/*--------------------------------*- C++ -*----------------------------------*\
| =========                 |                                                 |
| \\      /  F ield         | OpenFOAM: The Open Source CFD Toolbox           |
|  \\    /   O peration     | Version:  2312                                  |
|   \\  /    A nd           | Website:  www.openfoam.com                      |
|    \\/     M anipulation  |                                                 |
\*---------------------------------------------------------------------------*/
FoamFile
{
    version     2.0;
    format      ascii;
    arch        "LSB;label=32;scalar=64";
    class       volVectorField;
    location    "7.625";
    object      diffU;
}
// * * * * * * * * * * * * * * * * * * * * * * * * * * * * * * * * * * * * * //

dimensions      [0 1 -1 0 0 0 0];

internalField   nonuniform List<vector> 
400
(
(0 0 0)
(-1.44329e-15 3.31434e-15 0)
(-1.44329e-15 2.22645e-15 0)
(-1.33227e-15 2.49721e-15 0)
(-1.55431e-15 2.47686e-15 0)
(-1.77636e-15 2.44071e-15 0)
(-1.77636e-15 2.38524e-15 0)
(-1.9984e-15 2.27541e-15 0)
(-2.10942e-15 2.27666e-15 0)
(-1.9984e-15 2.30012e-15 0)
(-2.10942e-15 2.3541e-15 0)
(-2.10942e-15 2.34075e-15 0)
(-1.9984e-15 2.37597e-15 0)
(-1.9984e-15 2.43615e-15 0)
(-2.33147e-15 2.43359e-15 0)
(-2.44249e-15 2.41627e-15 0)
(-2.44249e-15 2.36614e-15 0)
(-2.66454e-15 2.33593e-15 0)
(-2.66454e-15 2.24681e-15 0)
(-2.33147e-15 2.225e-15 0)
(-7.54952e-15 2.10849e-15 0)
(-2.33147e-15 2.6739e-15 0)
(-3.33067e-15 2.22307e-15 0)
(-3.33067e-15 2.27024e-15 0)
(-3.33067e-15 2.35843e-15 0)
(-3.33067e-15 2.4357e-15 0)
(-3.10862e-15 2.44275e-15 0)
(-3.10862e-15 2.3875e-15 0)
(-2.88658e-15 2.33134e-15 0)
(-3.10862e-15 2.28785e-15 0)
(-2.88658e-15 2.2979e-15 0)
(-2.88658e-15 2.31874e-15 0)
(-3.10862e-15 2.34641e-15 0)
(-2.88658e-15 2.40132e-15 0)
(-2.88658e-15 2.36848e-15 0)
(-2.66454e-15 2.35545e-15 0)
(-2.66454e-15 2.34562e-15 0)
(-2.66454e-15 2.2599e-15 0)
(-2.44249e-15 2.17119e-15 0)
(-2.33147e-15 2.19898e-15 0)
(-1.9984e-15 2.17389e-15 0)
(-2.22045e-15 2.40701e-15 0)
(-2.33147e-15 2.55761e-15 0)
(-2.33147e-15 2.60605e-15 0)
(-2.66454e-15 2.62738e-15 0)
(-2.66454e-15 2.48948e-15 0)
(-2.88658e-15 2.3252e-15 0)
(-2.66454e-15 2.20142e-15 0)
(-2.44249e-15 2.12742e-15 0)
(-2.66454e-15 2.1663e-15 0)
(-2.44249e-15 2.19092e-15 0)
(-2.33147e-15 2.29094e-15 0)
(-2.66454e-15 2.35496e-15 0)
(-2.33147e-15 2.27418e-15 0)
(-2.33147e-15 2.21205e-15 0)
(-2.33147e-15 2.26172e-15 0)
(-2.66454e-15 2.28923e-15 0)
(-2.44249e-15 2.14988e-15 0)
(-2.22045e-15 2.16369e-15 0)
(-2.44249e-15 2.2679e-15 0)
(-1.9984e-15 5.13152e-16 0)
(-3.10862e-15 2.89355e-15 0)
(-2.66454e-15 2.40612e-15 0)
(-2.88658e-15 2.55516e-15 0)
(-2.33147e-15 2.44235e-15 0)
(-1.9984e-15 2.32392e-15 0)
(-1.55431e-15 2.27807e-15 0)
(-1.77636e-15 2.22299e-15 0)
(-1.9984e-15 2.1823e-15 0)
(-1.9984e-15 2.15651e-15 0)
(-2.22045e-15 2.18778e-15 0)
(-2.22045e-15 2.24823e-15 0)
(-2.22045e-15 2.38756e-15 0)
(-2.33147e-15 2.35112e-15 0)
(-2.33147e-15 2.33434e-15 0)
(-2.66454e-15 2.31676e-15 0)
(-2.22045e-15 2.2367e-15 0)
(-2.44249e-15 2.15724e-15 0)
(-2.44249e-15 2.19145e-15 0)
(-2.44249e-15 2.25901e-15 0)
(-1.11022e-16 4.33726e-15 0)
(-2.10942e-15 2.4529e-15 0)
(-1.88738e-15 2.42626e-15 0)
(-1.77636e-15 2.1938e-15 0)
(-1.77636e-15 2.16504e-15 0)
(-1.9984e-15 2.24068e-15 0)
(-1.88738e-15 2.29905e-15 0)
(-2.10942e-15 2.37193e-15 0)
(-1.88738e-15 2.34123e-15 0)
(-1.88738e-15 2.32309e-15 0)
(-1.77636e-15 2.3805e-15 0)
(-1.9984e-15 2.38569e-15 0)
(-2.33147e-15 2.36809e-15 0)
(-2.33147e-15 2.34125e-15 0)
(-2.33147e-15 2.3439e-15 0)
(-2.10942e-15 2.29309e-15 0)
(-2.10942e-15 2.19722e-15 0)
(-2.33147e-15 2.22082e-15 0)
(-2.44249e-15 2.22417e-15 0)
(-2.33147e-15 2.23165e-15 0)
(-6.66134e-15 2.4031e-15 0)
(-2.33147e-15 2.82077e-15 0)
(-2.88658e-15 2.33481e-15 0)
(-2.66454e-15 2.32676e-15 0)
(-2.66454e-15 2.28745e-15 0)
(-2.66454e-15 2.23646e-15 0)
(-2.22045e-15 2.20191e-15 0)
(-2.22045e-15 2.21262e-15 0)
(-2.10942e-15 2.19657e-15 0)
(-2.33147e-15 2.31184e-15 0)
(-2.33147e-15 2.40706e-15 0)
(-2.10942e-15 2.4486e-15 0)
(-2.10942e-15 2.3753e-15 0)
(-1.88738e-15 2.32343e-15 0)
(-2.22045e-15 2.31657e-15 0)
(-2.33147e-15 2.31034e-15 0)
(-2.44249e-15 2.2537e-15 0)
(-2.44249e-15 2.28312e-15 0)
(-2.33147e-15 2.28029e-15 0)
(-2.33147e-15 2.28874e-15 0)
(-2.10942e-15 2.78982e-15 0)
(-1.55431e-15 2.40301e-15 0)
(-1.9984e-15 2.19518e-15 0)
(-2.10942e-15 2.19681e-15 0)
(-1.9984e-15 2.00894e-15 0)
(-1.9984e-15 2.02926e-15 0)
(-1.9984e-15 2.20335e-15 0)
(-1.9984e-15 2.29643e-15 0)
(-1.88738e-15 2.31497e-15 0)
(-2.10942e-15 2.33543e-15 0)
(-1.9984e-15 2.31006e-15 0)
(-2.10942e-15 2.29508e-15 0)
(-2.10942e-15 2.39498e-15 0)
(-2.10942e-15 2.43161e-15 0)
(-1.9984e-15 2.43821e-15 0)
(-2.22045e-15 2.3568e-15 0)
(-2.22045e-15 2.41122e-15 0)
(-2.33147e-15 2.41731e-15 0)
(-2.44249e-15 2.32789e-15 0)
(-2.44249e-15 2.31452e-15 0)
(-7.77156e-15 4.01527e-15 0)
(-1.66533e-15 2.07369e-15 0)
(-3.33067e-15 2.51232e-15 0)
(-2.44249e-15 2.35192e-15 0)
(-2.66454e-15 2.23626e-15 0)
(-2.88658e-15 2.24786e-15 0)
(-2.88658e-15 2.21728e-15 0)
(-2.88658e-15 2.15034e-15 0)
(-2.66454e-15 2.19839e-15 0)
(-2.66454e-15 2.38822e-15 0)
(-2.44249e-15 2.47391e-15 0)
(-2.44249e-15 2.42999e-15 0)
(-2.66454e-15 2.40598e-15 0)
(-2.88658e-15 2.37901e-15 0)
(-2.66454e-15 2.42661e-15 0)
(-2.44249e-15 2.47355e-15 0)
(-2.88658e-15 2.55771e-15 0)
(-2.66454e-15 2.43798e-15 0)
(-2.44249e-15 2.2934e-15 0)
(-2.44249e-15 2.26826e-15 0)
(-5.32907e-15 3.46537e-16 0)
(-2.88658e-15 2.11982e-15 0)
(-3.33067e-15 2.24537e-15 0)
(-2.88658e-15 2.08096e-15 0)
(-2.88658e-15 2.26541e-15 0)
(-2.88658e-15 2.29569e-15 0)
(-2.88658e-15 2.17126e-15 0)
(-2.88658e-15 2.1421e-15 0)
(-3.10862e-15 2.20463e-15 0)
(-3.10862e-15 2.23193e-15 0)
(-3.10862e-15 2.30356e-15 0)
(-2.88658e-15 2.4135e-15 0)
(-2.88658e-15 2.29755e-15 0)
(-2.66454e-15 2.23489e-15 0)
(-2.88658e-15 2.30161e-15 0)
(-2.88658e-15 2.48258e-15 0)
(-2.66454e-15 2.38765e-15 0)
(-2.44249e-15 2.28812e-15 0)
(-2.44249e-15 2.22139e-15 0)
(-2.44249e-15 2.26891e-15 0)
(4.10783e-15 4.73615e-15 0)
(-2.88658e-15 1.73924e-15 0)
(-1.11022e-15 2.21764e-15 0)
(-1.88738e-15 2.09747e-15 0)
(-1.9984e-15 2.24609e-15 0)
(-1.9984e-15 2.3216e-15 0)
(-1.88738e-15 2.31369e-15 0)
(-2.10942e-15 2.3377e-15 0)
(-2.10942e-15 2.33542e-15 0)
(-1.9984e-15 2.18957e-15 0)
(-1.9984e-15 2.20562e-15 0)
(-2.33147e-15 2.41747e-15 0)
(-1.9984e-15 2.4434e-15 0)
(-2.22045e-15 2.40316e-15 0)
(-2.44249e-15 2.36122e-15 0)
(-2.33147e-15 2.33429e-15 0)
(-2.66454e-15 2.20054e-15 0)
(-2.10942e-15 2.22632e-15 0)
(-2.44249e-15 2.28182e-15 0)
(-2.33147e-15 2.33028e-15 0)
(-3.10862e-15 7.38861e-15 0)
(-1.66533e-15 1.80928e-15 0)
(-2.33147e-15 2.42979e-15 0)
(-2.10942e-15 2.34322e-15 0)
(-2.33147e-15 2.29001e-15 0)
(-2.44249e-15 2.23411e-15 0)
(-2.10942e-15 2.20895e-15 0)
(-2.10942e-15 2.20502e-15 0)
(-2.10942e-15 2.21427e-15 0)
(-1.9984e-15 2.35847e-15 0)
(-2.10942e-15 2.43982e-15 0)
(-2.44249e-15 2.46732e-15 0)
(-2.44249e-15 2.39852e-15 0)
(-2.22045e-15 2.41163e-15 0)
(-2.10942e-15 2.36596e-15 0)
(-2.22045e-15 2.31775e-15 0)
(-2.22045e-15 2.30611e-15 0)
(-2.44249e-15 2.30001e-15 0)
(-2.44249e-15 2.36042e-15 0)
(-2.44249e-15 2.35349e-15 0)
(-6.88338e-15 -1.76434e-15 0)
(-1.44329e-15 2.84761e-15 0)
(-2.66454e-15 2.17257e-15 0)
(-2.22045e-15 2.23043e-15 0)
(-2.22045e-15 2.25893e-15 0)
(-2.10942e-15 2.20771e-15 0)
(-2.10942e-15 2.2757e-15 0)
(-2.44249e-15 2.31539e-15 0)
(-2.66454e-15 2.27244e-15 0)
(-2.88658e-15 2.37911e-15 0)
(-2.88658e-15 2.39171e-15 0)
(-2.44249e-15 2.30595e-15 0)
(-2.33147e-15 2.23684e-15 0)
(-2.44249e-15 2.27807e-15 0)
(-2.22045e-15 2.34982e-15 0)
(-2.33147e-15 2.41903e-15 0)
(-2.33147e-15 2.40486e-15 0)
(-2.44249e-15 2.42357e-15 0)
(-2.33147e-15 2.42233e-15 0)
(-2.33147e-15 2.3518e-15 0)
(-3.33067e-16 2.22917e-15 0)
(-2.88658e-15 1.90507e-15 0)
(-2.44249e-15 2.29015e-15 0)
(-2.66454e-15 2.17696e-15 0)
(-2.66454e-15 2.26204e-15 0)
(-2.88658e-15 2.34032e-15 0)
(-2.88658e-15 2.44468e-15 0)
(-2.88658e-15 2.47466e-15 0)
(-3.10862e-15 2.43667e-15 0)
(-3.10862e-15 2.29276e-15 0)
(-2.66454e-15 2.18342e-15 0)
(-2.66454e-15 2.17445e-15 0)
(-2.44249e-15 2.339e-15 0)
(-2.88658e-15 2.3989e-15 0)
(-3.10862e-15 2.33436e-15 0)
(-3.10862e-15 2.26156e-15 0)
(-2.88658e-15 2.28333e-15 0)
(-2.66454e-15 2.33064e-15 0)
(-2.66454e-15 2.35113e-15 0)
(-2.44249e-15 2.31366e-15 0)
(-1.55431e-15 6.06081e-15 0)
(-2.10942e-15 1.47305e-15 0)
(-2.22045e-15 2.401e-15 0)
(-1.9984e-15 2.18482e-15 0)
(-2.10942e-15 2.37448e-15 0)
(-2.22045e-15 2.46922e-15 0)
(-2.22045e-15 2.40299e-15 0)
(-2.10942e-15 2.37298e-15 0)
(-2.22045e-15 2.40808e-15 0)
(-2.22045e-15 2.23186e-15 0)
(-2.10942e-15 2.17166e-15 0)
(-2.22045e-15 2.20802e-15 0)
(-2.66454e-15 2.34144e-15 0)
(-2.44249e-15 2.38031e-15 0)
(-2.10942e-15 2.25786e-15 0)
(-2.22045e-15 2.20631e-15 0)
(-2.33147e-15 2.31319e-15 0)
(-2.66454e-15 2.23342e-15 0)
(-2.44249e-15 2.18286e-15 0)
(-2.33147e-15 2.27102e-15 0)
(-6.66134e-16 -2.37633e-16 0)
(-3.33067e-15 2.60386e-15 0)
(-2.10942e-15 2.18072e-15 0)
(-2.66454e-15 2.21256e-15 0)
(-2.66454e-15 2.31168e-15 0)
(-2.22045e-15 2.44224e-15 0)
(-2.10942e-15 2.4565e-15 0)
(-2.22045e-15 2.38999e-15 0)
(-1.9984e-15 2.34753e-15 0)
(-2.10942e-15 2.26404e-15 0)
(-2.10942e-15 2.29499e-15 0)
(-2.22045e-15 2.40298e-15 0)
(-2.10942e-15 2.42597e-15 0)
(-2.10942e-15 2.41253e-15 0)
(-2.33147e-15 2.31875e-15 0)
(-2.66454e-15 2.26109e-15 0)
(-2.33147e-15 2.27973e-15 0)
(-2.44249e-15 2.25355e-15 0)
(-2.22045e-15 2.26072e-15 0)
(-2.10942e-15 2.30868e-15 0)
(-1.55431e-15 2.44884e-15 0)
(-3.10862e-15 2.35423e-15 0)
(-2.66454e-15 2.32455e-15 0)
(-3.10862e-15 2.37443e-15 0)
(-3.10862e-15 2.2345e-15 0)
(-3.10862e-15 2.2202e-15 0)
(-3.10862e-15 2.24898e-15 0)
(-2.88658e-15 2.32174e-15 0)
(-2.88658e-15 2.30266e-15 0)
(-2.88658e-15 2.20032e-15 0)
(-3.10862e-15 2.1292e-15 0)
(-2.88658e-15 2.22162e-15 0)
(-2.44249e-15 2.30483e-15 0)
(-2.33147e-15 2.33884e-15 0)
(-2.10942e-15 2.35056e-15 0)
(-2.10942e-15 2.29714e-15 0)
(-2.22045e-15 2.24474e-15 0)
(-2.33147e-15 2.32664e-15 0)
(-2.44249e-15 2.33344e-15 0)
(-2.44249e-15 2.29049e-15 0)
(-2.44249e-15 5.4197e-15 0)
(-1.77636e-15 2.02364e-15 0)
(-2.10942e-15 2.54772e-15 0)
(-2.10942e-15 2.54036e-15 0)
(-2.22045e-15 2.51324e-15 0)
(-1.88738e-15 2.31526e-15 0)
(-2.33147e-15 2.23005e-15 0)
(-2.66454e-15 2.30128e-15 0)
(-2.44249e-15 2.32117e-15 0)
(-2.22045e-15 2.22376e-15 0)
(-2.33147e-15 2.13476e-15 0)
(-2.66454e-15 2.08227e-15 0)
(-2.22045e-15 2.12103e-15 0)
(-2.44249e-15 2.09897e-15 0)
(-2.44249e-15 2.27285e-15 0)
(-2.44249e-15 2.38626e-15 0)
(-2.33147e-15 2.3488e-15 0)
(-2.44249e-15 2.35543e-15 0)
(-2.44249e-15 2.33646e-15 0)
(-2.33147e-15 2.27511e-15 0)
(-7.54952e-15 2.90967e-15 0)
(-2.33147e-15 2.01454e-15 0)
(-3.55271e-15 2.44759e-15 0)
(-2.66454e-15 2.36231e-15 0)
(-2.66454e-15 2.37778e-15 0)
(-2.33147e-15 2.35142e-15 0)
(-2.22045e-15 2.37218e-15 0)
(-2.66454e-15 2.24518e-15 0)
(-2.10942e-15 2.16149e-15 0)
(-2.33147e-15 2.21191e-15 0)
(-1.9984e-15 2.34009e-15 0)
(-2.44249e-15 2.34786e-15 0)
(-2.33147e-15 2.21832e-15 0)
(-2.44249e-15 2.09443e-15 0)
(-2.33147e-15 2.28002e-15 0)
(-2.66454e-15 2.41833e-15 0)
(-2.44249e-15 2.34719e-15 0)
(-2.88658e-15 2.30175e-15 0)
(-2.44249e-15 2.28728e-15 0)
(-2.44249e-15 2.27667e-15 0)
(-9.99201e-16 1.65428e-15 0)
(-2.88658e-15 1.7549e-15 0)
(-2.33147e-15 2.19156e-15 0)
(-2.44249e-15 2.1295e-15 0)
(-2.22045e-15 2.15905e-15 0)
(-2.33147e-15 2.29022e-15 0)
(-2.33147e-15 2.34431e-15 0)
(-2.33147e-15 2.13576e-15 0)
(-2.33147e-15 2.12405e-15 0)
(-2.33147e-15 2.24282e-15 0)
(-2.88658e-15 2.33282e-15 0)
(-2.88658e-15 2.28354e-15 0)
(-2.44249e-15 2.14721e-15 0)
(-2.44249e-15 2.18707e-15 0)
(-2.88658e-15 2.29047e-15 0)
(-2.66454e-15 2.3998e-15 0)
(-2.33147e-15 2.36629e-15 0)
(-2.44249e-15 2.27549e-15 0)
(-2.44249e-15 2.20031e-15 0)
(-2.44249e-15 2.25946e-15 0)
(3.9968e-15 2.66639e-15 0)
(-2.66454e-15 1.91609e-15 0)
(-1.22125e-15 2.24968e-15 0)
(-1.88738e-15 2.22775e-15 0)
(-1.77636e-15 2.26694e-15 0)
(-1.88738e-15 2.30819e-15 0)
(-1.77636e-15 2.31769e-15 0)
(-1.77636e-15 2.22909e-15 0)
(-2.10942e-15 2.32101e-15 0)
(-1.9984e-15 2.38062e-15 0)
(-1.9984e-15 2.31866e-15 0)
(-1.77636e-15 2.19084e-15 0)
(-2.22045e-15 2.1651e-15 0)
(-2.44249e-15 2.27757e-15 0)
(-2.44249e-15 2.26576e-15 0)
(-2.66454e-15 2.30512e-15 0)
(-2.44249e-15 2.33055e-15 0)
(-2.44249e-15 2.27749e-15 0)
(-2.33147e-15 2.24946e-15 0)
(-2.44249e-15 2.28302e-15 0)
)
;

boundaryField
{
    movingWall
    {
        type            calculated;
        value           uniform (-2.44249e-15 2.29891e-15 0);
    }
    fixedWalls
    {
        type            calculated;
        value           uniform (-2.44249e-15 2.29891e-15 0);
    }
    frontAndBack
    {
        type            empty;
    }
}


// ************************************************************************* //
