/*--------------------------------*- C++ -*----------------------------------*\
| =========                 |                                                 |
| \\      /  F ield         | OpenFOAM: The Open Source CFD Toolbox           |
|  \\    /   O peration     | Version:  2312                                  |
|   \\  /    A nd           | Website:  www.openfoam.com                      |
|    \\/     M anipulation  |                                                 |
\*---------------------------------------------------------------------------*/
FoamFile
{
    version     2.0;
    format      ascii;
    arch        "LSB;label=32;scalar=64";
    class       volScalarField;
    location    "7.625";
    object      divU;
}
// * * * * * * * * * * * * * * * * * * * * * * * * * * * * * * * * * * * * * //

dimensions      [0 0 -1 0 0 0 0];

internalField   nonuniform List<scalar> 
400
(
1.0842e-13
-2.35873e-14
1.22754e-14
-1.01405e-14
-3.35765e-15
7.5383e-16
-4.08812e-15
-2.05952e-14
-2.60869e-14
2.61215e-14
-2.16865e-14
3.32732e-14
1.24569e-14
-3.13952e-15
-6.67975e-15
-9.71478e-15
1.13947e-14
-5.4408e-14
3.62291e-14
-2.71051e-14
-2.43945e-13
3.1936e-13
-6.30282e-14
7.43415e-16
1.16943e-14
5.63075e-15
4.41182e-14
-8.89314e-16
4.03045e-14
-1.43658e-14
-1.08997e-14
1.187e-15
-4.38543e-14
3.48736e-14
-2.88337e-14
1.9353e-15
3.70379e-15
3.54069e-14
2.79167e-14
0
-1.0842e-13
1.60645e-14
-1.76178e-14
2.1303e-15
-3.41242e-14
-3.26515e-14
-2.65592e-14
9.76397e-15
5.25062e-14
-3.95533e-16
-2.19112e-14
-5.86376e-15
1.44705e-14
2.98534e-14
-5.14262e-15
-2.90389e-14
-7.18786e-15
2.51409e-14
2.83729e-15
-2.71051e-14
1.89735e-13
-8.77666e-14
-3.64836e-15
-1.19897e-14
5.51672e-14
5.08896e-14
2.50359e-14
-2.73948e-14
-7.42792e-15
-1.18221e-14
2.41514e-14
3.61114e-15
-1.13217e-14
-1.76492e-14
-1.90626e-14
1.20306e-15
1.0716e-14
-2.19746e-14
8.88502e-15
0
4.33681e-13
-2.03465e-13
1.63258e-14
-7.72506e-15
-4.1638e-14
-3.91719e-14
-9.68507e-15
-1.32646e-15
2.11042e-14
3.08165e-14
-8.13028e-15
-3.05617e-14
-3.9652e-14
6.68668e-15
3.33706e-14
5.61079e-16
1.24158e-14
-3.6492e-14
1.77691e-14
0
-5.69206e-13
3.60752e-13
-6.09918e-14
1.96803e-14
-3.03788e-15
2.10013e-14
3.49549e-14
-8.87647e-15
-8.62734e-15
-2.2159e-14
1.19317e-14
-1.25177e-14
1.72475e-14
1.57222e-14
-3.85131e-14
6.9323e-15
6.71091e-15
1.02621e-14
2.8141e-14
-2.71051e-14
2.71051e-13
-3.92164e-14
-4.32418e-14
-3.20139e-14
1.89488e-14
-4.96382e-15
9.38598e-15
1.20007e-14
-3.55506e-14
1.25843e-14
-8.48846e-15
-1.4379e-14
-6.78978e-15
2.12805e-14
-2.75093e-14
2.32536e-14
1.0007e-14
-1.3565e-15
2.34742e-15
0
-6.77626e-13
3.93251e-13
-6.53277e-14
6.48221e-14
-6.38236e-14
2.16783e-14
6.17748e-15
-3.43227e-15
7.62596e-15
5.64441e-14
-9.13919e-15
-2.96419e-14
-4.36382e-14
1.60836e-15
4.01456e-14
-4.54834e-14
-1.94549e-14
6.7039e-14
-8.30211e-15
0
-2.71051e-13
1.7007e-13
-4.0585e-14
3.93774e-14
-8.63058e-15
1.94691e-15
1.58188e-14
1.53041e-14
-3.28811e-14
-1.76311e-14
1.82413e-14
-3.78911e-15
1.43135e-14
4.02371e-15
6.50131e-15
-5.19925e-15
5.32485e-14
-8.33723e-15
-9.46045e-15
0
1.32815e-12
-5.65715e-13
1.13382e-13
-6.99222e-14
-6.17061e-15
-4.21036e-15
-7.51745e-15
-3.26139e-14
2.22929e-14
2.21279e-14
-2.23424e-14
1.5922e-15
-2.69493e-15
-5.40676e-15
-1.41692e-14
-2.16816e-14
-9.11604e-15
1.99575e-14
4.44228e-15
-2.71051e-14
-6.50521e-13
1.95644e-13
-2.66507e-14
2.46885e-14
-3.19917e-14
-1.55994e-14
1.57884e-14
-7.74057e-15
1.59945e-14
1.39767e-14
-3.73343e-15
-6.37699e-14
3.75429e-15
9.18873e-15
1.17959e-14
1.38976e-14
-1.57893e-14
-1.45276e-14
1.84937e-14
0
-8.67362e-13
4.49168e-13
-9.4825e-14
3.51674e-14
-7.68457e-15
2.21266e-14
1.22569e-14
-3.49864e-14
-7.01854e-14
-1.9699e-14
-2.26815e-15
4.24687e-14
-2.9302e-14
3.50208e-14
8.63666e-15
-1.8827e-14
9.03813e-15
-1.14646e-14
1.7565e-14
-2.71051e-14
9.75782e-13
-3.9302e-13
6.35434e-14
-5.07087e-14
-2.3235e-14
2.11732e-14
2.49863e-14
-2.12214e-15
-2.95156e-14
4.68915e-14
2.83265e-15
3.26755e-14
-4.59466e-14
-8.96515e-15
-5.47691e-14
4.12158e-14
-1.28719e-16
-3.37452e-15
2.07225e-14
0
-1.0842e-13
-2.49853e-14
-1.60914e-15
3.41669e-14
-1.82701e-14
4.25945e-15
-9.37334e-16
-1.05897e-14
-1.13254e-14
-1.01908e-14
1.39892e-14
-2.57864e-14
1.696e-14
1.95021e-14
2.49843e-14
-4.01461e-14
-2.7594e-14
-1.10841e-14
1.16812e-14
-2.71051e-14
-2.98156e-13
-4.52875e-14
7.20609e-14
-5.5292e-14
4.90468e-14
3.35671e-14
-1.63383e-14
-1.57133e-14
5.2371e-15
-4.04502e-14
-1.73624e-14
2.67863e-15
-1.38063e-14
-1.17497e-14
-4.70609e-14
-3.95842e-15
-7.33416e-15
2.53427e-14
5.38447e-14
-5.42101e-14
5.96311e-13
-1.57519e-13
2.74453e-14
-2.2512e-14
1.49927e-14
-6.23591e-15
4.23323e-14
2.52098e-15
2.60195e-15
-1.73731e-14
-6.28073e-15
-2.28715e-15
3.70147e-14
1.11042e-14
2.55973e-15
8.55877e-15
-2.75321e-14
-1.8679e-14
7.20883e-15
0
1.0842e-13
-1.75349e-15
-1.44608e-14
3.38063e-15
2.93207e-14
-2.02184e-14
-5.37683e-14
-5.13544e-15
1.55899e-14
3.79959e-14
-3.94013e-14
1.03368e-14
2.83638e-14
-4.04416e-14
-4.49429e-15
4.77833e-14
-1.7287e-14
5.9367e-15
2.96975e-14
-2.71051e-14
-8.67362e-13
3.77949e-13
-7.71818e-14
4.36097e-14
2.10066e-14
3.14885e-14
-1.52373e-14
-2.16872e-14
2.29831e-14
1.27967e-14
7.51014e-15
3.35835e-15
-2.32283e-14
-4.52656e-15
-2.73271e-15
-5.07351e-15
-4.26436e-14
-2.05794e-15
4.3187e-14
0
5.42101e-14
-1.46892e-13
6.56579e-14
-2.40561e-14
-1.7182e-14
6.06131e-17
6.41935e-15
3.80941e-15
1.18303e-14
-5.16469e-14
-2.17379e-14
1.47616e-14
5.2765e-14
-4.04226e-14
-4.15887e-15
3.78152e-14
9.90219e-15
-4.48318e-15
-1.4805e-14
0
6.50521e-13
-4.33681e-13
1.0842e-13
-2.71051e-14
0
0
2.71051e-14
-2.71051e-14
2.71051e-14
0
2.71051e-14
-2.71051e-14
-2.71051e-14
-2.71051e-14
0
0
0
2.71051e-14
0
0
)
;

boundaryField
{
    movingWall
    {
        type            extrapolatedCalculated;
        value           nonuniform List<scalar> 
20
(
6.50521e-13
-4.33681e-13
1.0842e-13
-2.71051e-14
0
0
2.71051e-14
-2.71051e-14
2.71051e-14
0
2.71051e-14
-2.71051e-14
-2.71051e-14
-2.71051e-14
0
0
0
2.71051e-14
0
0
)
;
    }
    fixedWalls
    {
        type            extrapolatedCalculated;
        value           nonuniform List<scalar> 
60
(
1.0842e-13
-2.43945e-13
-1.0842e-13
1.89735e-13
4.33681e-13
-5.69206e-13
2.71051e-13
-6.77626e-13
-2.71051e-13
1.32815e-12
-6.50521e-13
-8.67362e-13
9.75782e-13
-1.0842e-13
-2.98156e-13
5.96311e-13
1.0842e-13
-8.67362e-13
5.42101e-14
6.50521e-13
-2.71051e-14
0
-2.71051e-14
0
0
-2.71051e-14
0
0
0
-2.71051e-14
0
-2.71051e-14
0
-2.71051e-14
-5.42101e-14
0
-2.71051e-14
0
0
0
1.0842e-13
-2.35873e-14
1.22754e-14
-1.01405e-14
-3.35765e-15
7.5383e-16
-4.08812e-15
-2.05952e-14
-2.60869e-14
2.61215e-14
-2.16865e-14
3.32732e-14
1.24569e-14
-3.13952e-15
-6.67975e-15
-9.71478e-15
1.13947e-14
-5.4408e-14
3.62291e-14
-2.71051e-14
)
;
    }
    frontAndBack
    {
        type            empty;
    }
}


// ************************************************************************* //
