/*--------------------------------*- C++ -*----------------------------------*\
| =========                 |                                                 |
| \\      /  F ield         | OpenFOAM: The Open Source CFD Toolbox           |
|  \\    /   O peration     | Version:  2312                                  |
|   \\  /    A nd           | Website:  www.openfoam.com                      |
|    \\/     M anipulation  |                                                 |
\*---------------------------------------------------------------------------*/
FoamFile
{
    version     2.0;
    format      ascii;
    arch        "LSB;label=32;scalar=64";
    class       volScalarField;
    location    "7.625";
    object      epsilonzeroGrad;
}
// * * * * * * * * * * * * * * * * * * * * * * * * * * * * * * * * * * * * * //

dimensions      [0 2 -3 0 0 0 0];

internalField   nonuniform List<scalar> 
400
(
1.60714e-06
1.60714e-06
1.60713e-06
1.60714e-06
1.60713e-06
1.60714e-06
1.60713e-06
1.60713e-06
1.60713e-06
1.60713e-06
1.60713e-06
1.60713e-06
1.60713e-06
1.60713e-06
1.60713e-06
1.60713e-06
1.60713e-06
1.60713e-06
1.60713e-06
1.60713e-06
1.66635e-06
1.64474e-06
1.64657e-06
1.64732e-06
1.64883e-06
1.6496e-06
1.65112e-06
1.65191e-06
1.65343e-06
1.65425e-06
1.65577e-06
1.65661e-06
1.65813e-06
1.65899e-06
1.66052e-06
1.6614e-06
1.66293e-06
1.66384e-06
1.66461e-06
1.66583e-06
1.75866e-06
1.73506e-06
1.73709e-06
1.73792e-06
1.73959e-06
1.74044e-06
1.74211e-06
1.74298e-06
1.74465e-06
1.74554e-06
1.74721e-06
1.74811e-06
1.74978e-06
1.7507e-06
1.75237e-06
1.75331e-06
1.75498e-06
1.75593e-06
1.75677e-06
1.75809e-06
1.85359e-06
1.82827e-06
1.83044e-06
1.83133e-06
1.83312e-06
1.83404e-06
1.83583e-06
1.83676e-06
1.83855e-06
1.8395e-06
1.84129e-06
1.84226e-06
1.84405e-06
1.84504e-06
1.84683e-06
1.84783e-06
1.84963e-06
1.85065e-06
1.85155e-06
1.85296e-06
1.93139e-06
1.90462e-06
1.90691e-06
1.90785e-06
1.90975e-06
1.91071e-06
1.9126e-06
1.91359e-06
1.91548e-06
1.91648e-06
1.91838e-06
1.9194e-06
1.92129e-06
1.92234e-06
1.92423e-06
1.92529e-06
1.92719e-06
1.92827e-06
1.92922e-06
1.93071e-06
1.98659e-06
1.95877e-06
1.96115e-06
1.96213e-06
1.9641e-06
1.9651e-06
1.96706e-06
1.96809e-06
1.97005e-06
1.9711e-06
1.97306e-06
1.97412e-06
1.97609e-06
1.97717e-06
1.97914e-06
1.98025e-06
1.98221e-06
1.98334e-06
1.98433e-06
1.98588e-06
2.02245e-06
1.99395e-06
1.99639e-06
1.99739e-06
1.9994e-06
2.00043e-06
2.00244e-06
2.00349e-06
2.00551e-06
2.00658e-06
2.00859e-06
2.00968e-06
2.01169e-06
2.0128e-06
2.01482e-06
2.01595e-06
2.01797e-06
2.01912e-06
2.02013e-06
2.02172e-06
2.04494e-06
2.01601e-06
2.01848e-06
2.0195e-06
2.02154e-06
2.02259e-06
2.02463e-06
2.02569e-06
2.02774e-06
2.02882e-06
2.03087e-06
2.03197e-06
2.03402e-06
2.03514e-06
2.03719e-06
2.03834e-06
2.04039e-06
2.04156e-06
2.04258e-06
2.0442e-06
2.05939e-06
2.03017e-06
2.03267e-06
2.0337e-06
2.03576e-06
2.03682e-06
2.03888e-06
2.03995e-06
2.04201e-06
2.04311e-06
2.04517e-06
2.04629e-06
2.04836e-06
2.04949e-06
2.05156e-06
2.05272e-06
2.05478e-06
2.05597e-06
2.057e-06
2.05863e-06
2.06953e-06
2.04012e-06
2.04263e-06
2.04367e-06
2.04574e-06
2.0468e-06
2.04888e-06
2.04996e-06
2.05204e-06
2.05314e-06
2.05522e-06
2.05634e-06
2.05842e-06
2.05957e-06
2.06164e-06
2.06281e-06
2.06489e-06
2.06608e-06
2.06712e-06
2.06876e-06
2.07767e-06
2.04811e-06
2.05064e-06
2.05168e-06
2.05376e-06
2.05483e-06
2.05692e-06
2.058e-06
2.06009e-06
2.0612e-06
2.06329e-06
2.06442e-06
2.06651e-06
2.06766e-06
2.06975e-06
2.07092e-06
2.07301e-06
2.07421e-06
2.07526e-06
2.07691e-06
2.08517e-06
2.05546e-06
2.058e-06
2.05905e-06
2.06115e-06
2.06222e-06
2.06431e-06
2.06541e-06
2.0675e-06
2.06862e-06
2.07072e-06
2.07185e-06
2.07395e-06
2.07511e-06
2.07721e-06
2.07839e-06
2.08049e-06
2.08169e-06
2.08274e-06
2.0844e-06
2.09279e-06
2.06294e-06
2.06549e-06
2.06654e-06
2.06865e-06
2.06973e-06
2.07183e-06
2.07293e-06
2.07504e-06
2.07616e-06
2.07827e-06
2.07941e-06
2.08152e-06
2.08268e-06
2.08479e-06
2.08598e-06
2.08809e-06
2.08929e-06
2.09035e-06
2.09202e-06
2.10098e-06
2.07097e-06
2.07353e-06
2.07459e-06
2.07671e-06
2.07779e-06
2.07991e-06
2.08101e-06
2.08313e-06
2.08425e-06
2.08637e-06
2.08752e-06
2.08964e-06
2.09081e-06
2.09293e-06
2.09412e-06
2.09624e-06
2.09746e-06
2.09852e-06
2.1002e-06
2.10994e-06
2.07976e-06
2.08234e-06
2.0834e-06
2.08553e-06
2.08662e-06
2.08875e-06
2.08986e-06
2.09199e-06
2.09312e-06
2.09525e-06
2.09641e-06
2.09854e-06
2.09971e-06
2.10185e-06
2.10305e-06
2.10518e-06
2.1064e-06
2.10747e-06
2.10915e-06
2.11964e-06
2.08927e-06
2.09187e-06
2.09294e-06
2.09508e-06
2.09618e-06
2.09832e-06
2.09943e-06
2.10158e-06
2.10272e-06
2.10486e-06
2.10602e-06
2.10817e-06
2.10935e-06
2.1115e-06
2.1127e-06
2.11485e-06
2.11608e-06
2.11715e-06
2.11885e-06
2.12965e-06
2.09909e-06
2.10171e-06
2.10278e-06
2.10494e-06
2.10604e-06
2.10819e-06
2.10932e-06
2.11147e-06
2.11262e-06
2.11478e-06
2.11594e-06
2.1181e-06
2.11929e-06
2.12145e-06
2.12267e-06
2.12483e-06
2.12607e-06
2.12715e-06
2.12885e-06
2.13907e-06
2.10834e-06
2.11097e-06
2.11205e-06
2.11421e-06
2.11532e-06
2.11749e-06
2.11862e-06
2.12079e-06
2.12194e-06
2.12411e-06
2.12528e-06
2.12745e-06
2.12865e-06
2.13082e-06
2.13204e-06
2.13422e-06
2.13546e-06
2.13655e-06
2.13826e-06
2.14654e-06
2.11627e-06
2.11881e-06
2.11986e-06
2.12197e-06
2.12305e-06
2.12516e-06
2.12628e-06
2.1284e-06
2.12954e-06
2.13166e-06
2.13284e-06
2.13497e-06
2.13617e-06
2.13831e-06
2.13955e-06
2.1417e-06
2.14297e-06
2.14404e-06
2.14576e-06
2.14997e-06
2.14997e-06
2.14997e-06
2.14997e-06
2.14997e-06
2.14997e-06
2.14996e-06
2.14996e-06
2.14996e-06
2.14996e-06
2.14996e-06
2.14996e-06
2.14996e-06
2.14996e-06
2.14996e-06
2.14996e-06
2.14996e-06
2.14996e-06
2.14996e-06
2.14996e-06
)
;

boundaryField
{
    movingWall
    {
        type            zeroGradient;
    }
    fixedWalls
    {
        type            zeroGradient;
    }
    frontAndBack
    {
        type            empty;
    }
}


// ************************************************************************* //
