/*--------------------------------*- C++ -*----------------------------------*\
| =========                 |                                                 |
| \\      /  F ield         | OpenFOAM: The Open Source CFD Toolbox           |
|  \\    /   O peration     | Version:  2312                                  |
|   \\  /    A nd           | Website:  www.openfoam.com                      |
|    \\/     M anipulation  |                                                 |
\*---------------------------------------------------------------------------*/
FoamFile
{
    version     2.0;
    format      ascii;
    arch        "LSB;label=32;scalar=64";
    class       volScalarField;
    location    "7.625";
    object      flowTypeField;
}
// * * * * * * * * * * * * * * * * * * * * * * * * * * * * * * * * * * * * * //

dimensions      [0 0 0 0 0 0 0];

internalField   nonuniform List<scalar> 
400
(
0.671584
0.503059
-0.215801
0.509535
0.25193
0.702305
0.513627
0.564924
0.849797
0.64997
0.786943
0.865312
0.338664
0.779476
0.170011
0.725028
0.363253
0.406892
0.749035
0.514123
0.603636
0.728035
0.522809
-0.117688
-0.113727
-0.0611626
0.202173
0.138929
0.391889
0.0528336
-0.0105375
-0.0834075
0.0831192
0.254543
0.718886
0.874984
0.180853
0.643304
0.151097
-0.119757
0.0454142
-0.383034
0.286463
0.519741
-0.00348677
-0.162442
-0.200382
-0.110997
0.0804247
0.0645893
0.158548
0.202462
-0.01912
-0.103516
-0.0142938
0.653377
-0.175041
-0.0657359
0.0135126
0.428739
0.0119312
0.0783119
-0.51677
0.170497
0.255358
0.279735
-0.0600886
0.179101
0.217727
0.133554
0.206316
0.727467
0.187544
0.741146
0.825976
0.0438575
-0.113631
0.771604
-0.317637
0.0272747
-0.153544
-0.0318887
0.512902
-0.0294929
0.214237
-0.0812912
-0.154065
-0.076604
0.751456
0.229062
0.757125
0.953842
0.768425
-0.08098
0.160652
-0.266969
0.260934
0.917891
0.763055
0.512416
0.387726
0.870293
0.174282
0.171962
0.392493
0.800208
0.924313
0.803571
0.0306622
0.343004
0.0123616
0.563504
0.514105
-0.138547
0.949947
0.24232
0.870728
0.789557
0.941005
0.838762
0.322615
-0.155173
0.52706
-0.161119
0.423947
-0.6939
-0.485327
-0.0564531
0.0418592
0.0183672
0.789871
0.0212062
-0.245982
0.00419232
0.457562
0.750941
0.293757
0.669295
0.00749619
0.162324
0.187138
0.955397
-0.017464
0.375555
0.265247
0.0692879
0.1195
0.0395076
-0.166786
-0.0687288
-0.0382557
0.155798
0.111548
0.110619
0.0807439
0.048592
0.0895117
0.666498
0.139215
0.304157
-0.120316
-0.0162011
-0.00848277
0.318432
0.261828
-0.109702
-0.177241
0.0637992
0.64626
0.142707
0.647452
0.326689
-0.21613
0.00835802
0.0317373
0.408993
0.456177
-0.156256
0.103008
0.119971
0.921847
0.334023
0.617583
0.38784
0.408539
0.128001
0.0206587
0.13682
-0.0977484
-0.142209
0.18438
0.434887
-0.00863045
0.0190448
-0.0283565
-0.132209
-0.180423
0.456847
0.347856
0.246474
-0.162984
-0.212953
-0.348723
0.536701
0.528062
0.333518
0.332277
0.518434
-0.0162079
-0.231266
-0.0438485
0.884712
0.451961
0.364361
0.00676043
0.356382
0.117568
0.0649261
0.266153
0.0156746
0.175184
0.113993
0.905244
0.187791
0.0860544
0.0125859
-0.0843433
0.122282
0.154275
-0.141104
0.163247
0.768835
0.333273
-0.0734378
-0.128631
-0.0489695
-0.00393845
0.882514
0.432988
0.404706
0.373449
0.735076
0.429615
0.453207
0.454681
-0.166591
0.241973
-0.00891438
0.271187
0.202783
-0.0439771
0.662608
0.0470385
0.945342
0.693098
0.869479
0.338135
0.0438528
0.944666
0.306468
0.197603
0.177577
0.38227
0.843095
0.253576
0.0302589
-0.174917
0.0208183
-0.124987
-0.216104
-0.0215809
0.487807
0.320231
-0.0417088
-0.119601
0.184241
0.0797943
-0.221552
0.36376
0.619991
0.435921
-0.198508
0.826292
0.110089
-0.0290451
0.0134129
0.0568161
0.201354
0.303223
0.18087
-0.126337
-0.237995
0.0424737
-0.360619
0.669076
0.508141
0.00371701
0.881162
0.756667
0.912399
0.590487
0.102206
0.323416
0.428857
-0.15683
0.0507936
0.771986
-0.0587994
0.221839
0.0246208
0.784316
-0.0627138
0.75599
0.264305
0.266517
-0.212766
0.209378
0.632959
0.157461
0.0999965
-0.476925
-0.26275
-0.438442
-0.0624924
-0.174525
-0.244336
0.0941631
0.346246
-0.021315
-0.162217
0.0102271
0.0464111
0.314886
0.548578
-0.497474
0.140761
0.833733
0.023463
0.644386
0.898884
0.791133
0.740919
0.471541
0.498784
0.961833
0.276786
0.535814
-0.295948
0.466874
-0.630905
-0.155767
0.590092
0.501545
0.359916
-0.587746
-0.121924
0.727206
0.336806
0.922536
-0.119708
-0.100943
0.409665
0.219196
-0.0217915
0.202046
0.668541
-0.272476
-0.268197
0.384608
0.896876
0.783523
-0.129483
0.360503
0.692951
0.00216535
0.810929
0.447661
-0.300389
-0.0471817
0.0010041
0.202323
0.714161
-0.030247
0.275164
-0.017922
-0.0924177
0.139998
0.173741
-0.214283
0.00536268
0.383225
0.658604
0.419843
0.610815
0.0527668
0.132681
0.623923
0.641715
0.292544
0.201783
)
;

boundaryField
{
    movingWall
    {
        type            calculated;
        value           nonuniform List<scalar> 
20
(
0.0296971
0.70623
-0.0475841
0.0280431
-0.0234974
-0.0226388
0.03479
0.0236538
-0.110402
0.0175897
0.116359
0.0732468
0.157745
0.592788
0.700587
0.0727084
0.688685
0.651074
0.177085
0.24022
)
;
    }
    fixedWalls
    {
        type            calculated;
        value           nonuniform List<scalar> 
60
(
0.482176
0.941944
0.00845928
-0.157978
0.043267
0.805306
0.0665253
0.492
-0.0782336
0.692465
-0.387852
0.216656
0.51531
0.0215114
0.198211
0.58428
-0.453905
0.928725
-0.0750079
0.596906
0.931204
-0.0201833
0.0910649
0.0235235
0.978465
0.862604
0.22626
0.0578813
0.101287
0.243004
0.00466077
0.509112
0.344806
0.633502
0.952367
-0.111674
0.725415
-0.316681
0.000773676
0.208699
0.191963
0.663375
-0.19674
0.0716862
0.00674978
-0.00618605
-0.0469893
-0.0466088
0.0395041
0.0538303
0.0606036
0.0424177
0.0665993
0.0822506
0.341501
0.824906
0.638233
0.248949
0.247568
0.374191
)
;
    }
    frontAndBack
    {
        type            empty;
    }
}


// ************************************************************************* //
