/*--------------------------------*- C++ -*----------------------------------*\
| =========                 |                                                 |
| \\      /  F ield         | OpenFOAM: The Open Source CFD Toolbox           |
|  \\    /   O peration     | Version:  2312                                  |
|   \\  /    A nd           | Website:  www.openfoam.com                      |
|    \\/     M anipulation  |                                                 |
\*---------------------------------------------------------------------------*/
FoamFile
{
    version     2.0;
    format      ascii;
    arch        "LSB;label=32;scalar=64";
    class       volTensorField;
    location    "7.625";
    object      gradU;
}
// * * * * * * * * * * * * * * * * * * * * * * * * * * * * * * * * * * * * * //

dimensions      [0 0 -1 0 0 0 0];

internalField   nonuniform List<tensor> 
400
(
(3.52366e-13 -1.28347e-13 0 -2.71051e-13 -2.48932e-13 0 0 0 0)
(-1.6263e-13 2.22645e-13 0 8.13152e-14 1.39043e-13 0 0 0 0)
(2.71051e-14 -8.17128e-14 0 2.71051e-14 -1.48297e-14 0 0 0 0)
(-2.71051e-14 2.50409e-14 0 5.42101e-14 1.69645e-14 0 0 0 0)
(-2.71051e-14 -5.65091e-15 0 2.71051e-14 2.37474e-14 0 0 0 0)
(-2.71051e-14 -9.16202e-15 0 0 2.78589e-14 0 0 0 0)
(-2.71051e-14 -1.65298e-14 0 0 2.30169e-14 0 0 0 0)
(-2.71051e-14 -1.08577e-14 0 0 6.50985e-15 0 0 0 0)
(-2.71051e-14 2.47153e-15 0 0 1.01811e-15 0 0 0 0)
(2.71051e-14 7.74438e-15 0 0 -9.83594e-16 0 0 0 0)
(-2.71051e-14 4.0631e-15 0 0 5.41853e-15 0 0 0 0)
(2.71051e-14 2.18695e-15 0 0 6.16811e-15 0 0 0 0)
(0 9.53944e-15 0 0 1.24569e-14 0 0 0 0)
(-2.71051e-14 5.76154e-15 0 0 2.39655e-14 0 0 0 0)
(-2.71051e-14 -1.98819e-15 0 -5.42101e-14 2.04253e-14 0 0 0 0)
(-2.71051e-14 -6.74448e-15 0 0 1.73903e-14 0 0 0 0)
(0 -8.03339e-15 0 0 1.13947e-14 0 0 0 0)
(-5.42101e-14 -1.1933e-14 0 -5.42101e-14 -1.97855e-16 0 0 0 0)
(5.42101e-14 -1.10929e-14 0 0 -1.7981e-14 0 0 0 0)
(0 1.25996e-14 0 2.71051e-14 -1.73832e-14 0 0 0 0)
(-4.60786e-13 1.84576e-14 0 -1.6263e-13 2.17389e-13 0 0 0 0)
(4.06576e-13 1.1458e-14 0 -8.13152e-14 -9.07332e-14 0 0 0 0)
(-1.0842e-13 -4.03657e-14 0 -1.0842e-13 3.31166e-14 0 0 0 0)
(0 1.35362e-14 0 -1.0842e-13 1.0884e-14 0 0 0 0)
(0 1.65453e-14 0 -1.35525e-13 1.5052e-14 0 0 0 0)
(0 8.43155e-15 0 -1.35525e-13 4.87692e-15 0 0 0 0)
(5.42101e-14 -4.8192e-15 0 -8.13152e-14 -6.00382e-15 0 0 0 0)
(0 -1.11411e-14 0 -8.13152e-14 -7.39916e-15 0 0 0 0)
(5.42101e-14 -9.96498e-15 0 -5.42101e-14 -1.49238e-14 0 0 0 0)
(0 -3.34396e-15 0 -8.13152e-14 -1.33822e-14 0 0 0 0)
(0 3.08861e-15 0 -5.42101e-14 -1.63182e-14 0 0 0 0)
(0 4.85144e-15 0 -5.42101e-14 -4.98111e-15 0 0 0 0)
(-5.42101e-14 8.25799e-15 0 -8.13152e-14 -2.1011e-15 0 0 0 0)
(5.42101e-14 2.20684e-15 0 -5.42101e-14 -1.6197e-14 0 0 0 0)
(0 -4.58707e-15 0 0 -2.21539e-14 0 0 0 0)
(2.71051e-14 -2.2861e-15 0 0 -1.5455e-14 0 0 0 0)
(0 -9.55474e-15 0 -5.42101e-14 -7.69094e-15 0 0 0 0)
(5.42101e-14 -1.74428e-14 0 0 -1.86054e-14 0 0 0 0)
(2.71051e-14 -6.0924e-15 0 2.71051e-14 -8.31234e-15 0 0 0 0)
(-2.71051e-14 2.27645e-14 0 -2.71051e-14 4.28928e-15 0 0 0 0)
(5.42101e-14 -1.69084e-15 0 5.14996e-13 -1.59534e-13 0 0 0 0)
(0 3.83719e-14 0 -8.13152e-14 2.19648e-14 0 0 0 0)
(-2.71051e-14 1.99043e-14 0 8.13152e-14 1.83054e-14 0 0 0 0)
(-2.71051e-14 6.97628e-15 0 2.71051e-14 2.84919e-14 0 0 0 0)
(-5.42101e-14 -1.16579e-14 0 1.35525e-13 8.3916e-15 0 0 0 0)
(-2.71051e-14 -3.02178e-14 0 1.6263e-13 -1.11772e-14 0 0 0 0)
(0 -2.88059e-14 0 1.35525e-13 -1.64673e-14 0 0 0 0)
(2.71051e-14 -1.97776e-14 0 1.35525e-13 -1.64518e-14 0 0 0 0)
(5.42101e-14 -3.51146e-15 0 1.0842e-13 -1.49033e-14 0 0 0 0)
(0 6.34994e-15 0 1.0842e-13 -1.31348e-14 0 0 0 0)
(0 1.24641e-14 0 8.13152e-14 -1.10116e-14 0 0 0 0)
(0 1.6404e-14 0 8.13152e-14 -7.05075e-15 0 0 0 0)
(0 -1.67645e-15 0 8.13152e-14 4.11466e-15 0 0 0 0)
(2.71051e-14 -1.42913e-14 0 8.13152e-14 -5.02021e-15 0 0 0 0)
(0 -1.24617e-15 0 8.13152e-14 -3.41399e-15 0 0 0 0)
(-2.71051e-14 7.71852e-15 0 0 -3.86915e-15 0 0 0 0)
(0 -1.11838e-14 0 5.42101e-14 -1.08916e-14 0 0 0 0)
(2.71051e-14 -1.25543e-14 0 5.42101e-14 -1.0266e-14 0 0 0 0)
(0 1.18018e-14 0 0 2.02559e-15 0 0 0 0)
(-2.71051e-14 1.66227e-14 0 0 6.00323e-15 0 0 0 0)
(-2.71051e-14 -1.19111e-13 0 1.89735e-13 2.16336e-13 0 0 0 0)
(-8.13152e-14 1.89297e-13 0 0 4.58909e-15 0 0 0 0)
(0 -3.38385e-14 0 5.42101e-14 -1.31356e-14 0 0 0 0)
(2.71051e-14 3.6224e-15 0 8.13152e-14 -4.12251e-14 0 0 0 0)
(1.0842e-13 -2.31238e-14 0 8.13152e-14 -4.62339e-14 0 0 0 0)
(8.13152e-14 -1.64274e-14 0 5.42101e-14 -2.48791e-14 0 0 0 0)
(2.71051e-14 -1.00938e-14 0 8.13152e-14 -2.61499e-15 0 0 0 0)
(-5.42101e-14 -9.57719e-15 0 5.42101e-14 1.70513e-14 0 0 0 0)
(-2.71051e-14 -6.64804e-15 0 2.71051e-14 2.13811e-14 0 0 0 0)
(-2.71051e-14 5.47827e-16 0 5.42101e-14 1.56785e-14 0 0 0 0)
(0 9.17269e-15 0 5.42101e-14 1.89576e-14 0 0 0 0)
(0 1.99777e-14 0 2.71051e-14 9.4749e-15 0 0 0 0)
(0 1.02885e-14 0 5.42101e-14 1.31282e-15 0 0 0 0)
(-2.71051e-14 -5.32181e-15 0 0 6.70754e-15 0 0 0 0)
(-2.71051e-14 -3.436e-15 0 0 1.3185e-14 0 0 0 0)
(0 -9.76375e-15 0 0 3.13691e-15 0 0 0 0)
(2.71051e-14 -1.59516e-14 0 5.42101e-14 -9.20125e-15 0 0 0 0)
(-2.71051e-14 -4.52556e-15 0 0 7.09465e-15 0 0 0 0)
(0 1.01768e-14 0 -2.71051e-14 6.04774e-15 0 0 0 0)
(0 1.47357e-14 0 0 -3.62441e-15 0 0 0 0)
(2.43945e-13 2.19235e-13 0 -4.60786e-13 1.88994e-13 0 0 0 0)
(-1.89735e-13 -1.911e-13 0 1.0842e-13 -7.2782e-15 0 0 0 0)
(2.71051e-14 -2.59099e-14 0 -5.42101e-14 -7.13086e-15 0 0 0 0)
(2.71051e-14 -2.6122e-14 0 2.71051e-14 -2.28404e-14 0 0 0 0)
(-2.71051e-14 4.68806e-15 0 -2.71051e-14 -1.54901e-14 0 0 0 0)
(-2.71051e-14 1.34011e-14 0 -5.42101e-14 -8.74638e-15 0 0 0 0)
(0 1.31245e-14 0 -8.13152e-14 -7.61589e-15 0 0 0 0)
(0 4.21845e-15 0 -5.42101e-14 -1.03672e-15 0 0 0 0)
(2.71051e-14 -4.88432e-15 0 0 1.42706e-15 0 0 0 0)
(2.71051e-14 3.92644e-15 0 -2.71051e-14 1.55336e-14 0 0 0 0)
(-2.71051e-14 6.26056e-15 0 0 2.19284e-14 0 0 0 0)
(-5.42101e-14 -1.2407e-15 0 0 2.00372e-14 0 0 0 0)
(-2.71051e-14 -4.44381e-15 0 0 -1.22525e-15 0 0 0 0)
(0 -2.41908e-15 0 2.71051e-14 -2.76919e-15 0 0 0 0)
(2.71051e-14 -4.8168e-15 0 2.71051e-14 -1.77691e-15 0 0 0 0)
(0 -1.46678e-14 0 5.42101e-14 -6.41983e-16 0 0 0 0)
(0 -7.22608e-15 0 -2.71051e-14 1.69984e-15 0 0 0 0)
(-5.42101e-14 2.69464e-15 0 0 1.25877e-14 0 0 0 0)
(0 1.08272e-15 0 0 8.88408e-15 0 0 0 0)
(0 1.41994e-14 0 2.71051e-14 2.97281e-15 0 0 0 0)
(-4.06576e-13 6.26049e-14 0 -2.1684e-13 -1.54744e-13 0 0 0 0)
(3.52366e-13 -6.82815e-15 0 2.71051e-14 -4.98922e-15 0 0 0 0)
(-2.71051e-14 -4.94007e-14 0 0 -2.31076e-14 0 0 0 0)
(2.71051e-14 -4.73682e-15 0 -5.42101e-14 3.00277e-16 0 0 0 0)
(0 -9.02984e-15 0 -2.71051e-14 -1.561e-14 0 0 0 0)
(5.42101e-14 -8.55317e-15 0 0 -2.11419e-14 0 0 0 0)
(5.42101e-14 -2.38414e-15 0 0 -9.57014e-15 0 0 0 0)
(0 -5.34239e-16 0 0 -7.55001e-15 0 0 0 0)
(0 9.92224e-15 0 0 -2.62648e-15 0 0 0 0)
(-2.71051e-14 2.10492e-14 0 0 1.23458e-15 0 0 0 0)
(2.71051e-14 1.36763e-14 0 -2.71051e-14 -7.04311e-15 0 0 0 0)
(0 -3.17601e-15 0 0 -9.06105e-15 0 0 0 0)
(2.71051e-14 -1.25179e-14 0 0 2.68939e-15 0 0 0 0)
(0 -5.87347e-15 0 2.71051e-14 9.03556e-15 0 0 0 0)
(-5.42101e-14 -1.3088e-15 0 0 9.43148e-15 0 0 0 0)
(0 -6.287e-15 0 -2.71051e-14 6.37122e-15 0 0 0 0)
(-2.71051e-14 -2.72192e-15 0 0 2.14002e-14 0 0 0 0)
(0 2.65868e-15 0 0 1.9649e-14 0 0 0 0)
(2.71051e-14 5.61952e-16 0 0 1.03719e-14 0 0 0 0)
(-2.71051e-14 2.87883e-15 0 0 8.28648e-15 0 0 0 0)
(1.0842e-13 5.95018e-14 0 -8.13152e-14 1.61218e-13 0 0 0 0)
(2.71051e-14 -5.9464e-14 0 1.0842e-13 -7.47077e-14 0 0 0 0)
(-5.42101e-14 -2.06204e-14 0 -5.42101e-14 1.775e-14 0 0 0 0)
(-2.71051e-14 -1.86244e-14 0 5.42101e-14 2.51599e-15 0 0 0 0)
(2.71051e-14 -1.67541e-14 0 0 -5.11836e-15 0 0 0 0)
(0 1.94409e-14 0 -2.71051e-14 1.13989e-15 0 0 0 0)
(0 2.67164e-14 0 -5.42101e-14 1.53614e-15 0 0 0 0)
(2.71051e-14 1.11621e-14 0 -5.42101e-14 -6.2279e-15 0 0 0 0)
(-2.71051e-14 3.90027e-15 0 -5.42101e-14 1.81743e-16 0 0 0 0)
(0 -4.90185e-16 0 -5.42101e-14 7.63824e-15 0 0 0 0)
(-2.71051e-14 -4.03507e-15 0 0 6.68493e-15 0 0 0 0)
(0 8.4918e-15 0 0 -1.86126e-15 0 0 0 0)
(0 1.36528e-14 0 -5.42101e-14 3.06782e-15 0 0 0 0)
(2.71051e-14 4.32301e-15 0 -8.13152e-14 5.55821e-15 0 0 0 0)
(-2.71051e-14 -7.48114e-15 0 -2.71051e-14 1.10038e-14 0 0 0 0)
(0 -2.69908e-15 0 0 1.63213e-14 0 0 0 0)
(-2.71051e-14 6.0517e-15 0 -2.71051e-14 3.04012e-14 0 0 0 0)
(-2.71051e-14 -8.3336e-15 0 0 1.54865e-14 0 0 0 0)
(0 -1.02798e-14 0 0 1.31143e-15 0 0 0 0)
(0 -4.45905e-15 0 -2.71051e-14 -2.04806e-15 0 0 0 0)
(-4.33681e-13 1.49115e-13 0 -3.52366e-13 -2.44328e-13 0 0 0 0)
(4.33681e-13 -1.50296e-13 0 -1.35525e-13 -2.8319e-14 0 0 0 0)
(-8.13152e-14 2.7823e-14 0 -1.35525e-13 5.01917e-15 0 0 0 0)
(8.13152e-14 -2.76052e-14 0 -1.0842e-13 -1.15843e-14 0 0 0 0)
(-8.13152e-14 -1.04059e-14 0 -1.0842e-13 2.56478e-14 0 0 0 0)
(0 -1.89867e-15 0 -8.13152e-14 2.66421e-14 0 0 0 0)
(0 -9.75193e-15 0 -8.13152e-14 -3.2085e-15 0 0 0 0)
(0 -1.88863e-15 0 -8.13152e-14 -1.5433e-14 0 0 0 0)
(2.71051e-14 2.37884e-14 0 -1.0842e-13 -1.10335e-14 0 0 0 0)
(5.42101e-14 2.75524e-14 0 -8.13152e-14 -1.03502e-14 0 0 0 0)
(0 4.17685e-15 0 -1.0842e-13 -6.50729e-16 0 0 0 0)
(-5.42101e-14 -6.79311e-15 0 -1.0842e-13 1.18421e-14 0 0 0 0)
(-2.71051e-14 -5.09841e-15 0 -8.13152e-14 -9.74336e-15 0 0 0 0)
(2.71051e-14 2.06252e-15 0 -5.42101e-14 -1.96721e-14 0 0 0 0)
(5.42101e-14 9.45434e-15 0 -8.13152e-14 -1.36603e-14 0 0 0 0)
(-5.42101e-14 1.31104e-14 0 -8.13152e-14 1.25781e-14 0 0 0 0)
(-2.71051e-14 -3.5568e-15 0 -8.13152e-14 -2.35691e-15 0 0 0 0)
(8.13152e-14 -2.64311e-14 0 -5.42101e-14 -1.29197e-14 0 0 0 0)
(0 -1.69726e-14 0 0 -1.06495e-14 0 0 0 0)
(0 3.61546e-15 0 0 -4.56093e-15 0 0 0 0)
(-3.52366e-13 -2.13146e-13 0 1.19262e-12 7.20879e-14 0 0 0 0)
(2.1684e-13 1.89884e-13 0 -1.35525e-13 -3.34452e-14 0 0 0 0)
(0 -3.8857e-15 0 2.43945e-13 -2.94674e-14 0 0 0 0)
(5.42101e-14 2.00423e-15 0 5.42101e-14 -2.54447e-14 0 0 0 0)
(0 2.14722e-14 0 8.13152e-14 9.82933e-16 0 0 0 0)
(0 -9.41538e-15 0 8.13152e-14 7.37372e-15 0 0 0 0)
(0 -1.53586e-14 0 8.13152e-14 9.64133e-15 0 0 0 0)
(0 3.33711e-15 0 8.13152e-14 1.87363e-14 0 0 0 0)
(-5.42101e-14 8.98298e-15 0 2.71051e-14 1.3703e-14 0 0 0 0)
(0 9.89259e-15 0 8.13152e-14 -1.98651e-14 0 0 0 0)
(5.42101e-14 1.81573e-14 0 0 -2.68296e-14 0 0 0 0)
(0 -6.00838e-16 0 0 -1.25222e-15 0 0 0 0)
(0 -1.78614e-14 0 8.13152e-14 3.74159e-15 0 0 0 0)
(0 4.06089e-16 0 5.42101e-14 2.41535e-15 0 0 0 0)
(0 2.4769e-14 0 0 -6.5392e-15 0 0 0 0)
(0 8.6043e-15 0 0 -1.39259e-14 0 0 0 0)
(8.13152e-14 -1.94461e-14 0 2.71051e-14 -3.57168e-14 0 0 0 0)
(0 -1.66262e-14 0 8.13152e-14 -2.11661e-14 0 0 0 0)
(0 -1.92103e-15 0 0 -1.15833e-15 0 0 0 0)
(0 1.07514e-14 0 0 6.20239e-15 0 0 0 0)
(6.23416e-13 1.87757e-13 0 2.43945e-13 7.04207e-13 0 0 0 0)
(-5.42101e-13 -2.51851e-13 0 1.35525e-13 -3.10537e-14 0 0 0 0)
(1.0842e-13 3.58235e-14 0 8.13152e-14 1.84416e-14 0 0 0 0)
(-1.0842e-13 2.84514e-15 0 8.13152e-14 2.62256e-14 0 0 0 0)
(0 2.24125e-14 0 5.42101e-14 2.45997e-15 0 0 0 0)
(0 6.75972e-15 0 5.42101e-14 -6.15727e-15 0 0 0 0)
(0 1.61069e-15 0 8.13152e-14 3.7688e-15 0 0 0 0)
(-2.71051e-14 2.17309e-15 0 5.42101e-14 6.29209e-15 0 0 0 0)
(2.71051e-14 -1.48131e-14 0 1.0842e-13 9.63905e-16 0 0 0 0)
(0 -1.29803e-14 0 8.13152e-14 1.26539e-14 0 0 0 0)
(-2.71051e-14 2.27897e-14 0 1.35525e-13 1.36264e-14 0 0 0 0)
(0 2.37781e-14 0 5.42101e-14 5.38131e-15 0 0 0 0)
(0 -1.43083e-15 0 5.42101e-14 1.00966e-14 0 0 0 0)
(-2.71051e-14 -8.21827e-15 0 5.42101e-14 1.76746e-14 0 0 0 0)
(-2.71051e-14 -6.88693e-15 0 1.0842e-13 6.43458e-15 0 0 0 0)
(0 -1.60672e-14 0 1.0842e-13 -1.64824e-14 0 0 0 0)
(0 -1.0797e-14 0 5.42101e-14 -8.15445e-15 0 0 0 0)
(2.71051e-14 8.12737e-15 0 2.71051e-14 1.18969e-15 0 0 0 0)
(0 1.03959e-14 0 0 1.39027e-14 0 0 0 0)
(-2.71051e-14 -1.4286e-15 0 2.71051e-14 8.45795e-15 0 0 0 0)
(0 4.60008e-13 0 -1.0842e-12 -6.50049e-13 0 0 0 0)
(8.13152e-14 -4.95882e-13 0 1.35525e-13 1.10838e-13 0 0 0 0)
(-2.71051e-14 5.33936e-14 0 -1.35525e-13 -4.50728e-15 0 0 0 0)
(0 -1.39774e-14 0 -2.71051e-14 1.32955e-14 0 0 0 0)
(-2.71051e-14 -1.09107e-14 0 -2.71051e-14 1.28394e-15 0 0 0 0)
(0 -8.10656e-15 0 -2.71051e-14 -1.13891e-14 0 0 0 0)
(2.71051e-14 -2.90922e-15 0 -2.71051e-14 -3.79922e-15 0 0 0 0)
(0 5.32217e-16 0 0 -2.23168e-15 0 0 0 0)
(2.71051e-14 1.53448e-14 0 -2.71051e-14 -6.29839e-15 0 0 0 0)
(0 2.25551e-14 0 -8.13152e-14 1.89538e-14 0 0 0 0)
(-2.71051e-14 1.08847e-14 0 -8.13152e-14 1.8609e-14 0 0 0 0)
(-5.42101e-14 -4.1306e-15 0 0 -1.1152e-14 0 0 0 0)
(2.71051e-14 -5.56813e-15 0 -2.71051e-14 -2.06558e-14 0 0 0 0)
(2.71051e-14 -3.25596e-15 0 -2.71051e-14 -1.25096e-14 0 0 0 0)
(0 -9.38795e-15 0 0 -1.13998e-15 0 0 0 0)
(0 -5.98473e-15 0 0 8.47415e-15 0 0 0 0)
(-2.71051e-14 -1.774e-15 0 5.42101e-14 2.04318e-14 0 0 0 0)
(-2.71051e-14 5.43095e-15 0 -5.42101e-14 1.9725e-14 0 0 0 0)
(0 5.34723e-15 0 2.71051e-14 1.40515e-14 0 0 0 0)
(0 -1.16093e-14 0 0 2.15192e-15 0 0 0 0)
(-3.52366e-13 -3.51454e-13 0 2.71051e-13 -5.15944e-13 0 0 0 0)
(4.33681e-13 3.93691e-13 0 -1.35525e-13 9.57846e-15 0 0 0 0)
(-8.13152e-14 -6.17185e-14 0 -5.42101e-14 -1.39642e-14 0 0 0 0)
(5.42101e-14 8.63637e-15 0 -5.42101e-14 -1.66261e-14 0 0 0 0)
(0 -2.27213e-15 0 -2.71051e-14 -2.7979e-15 0 0 0 0)
(0 1.67656e-15 0 -2.71051e-14 1.0621e-14 0 0 0 0)
(0 1.07681e-14 0 -5.42101e-14 2.35736e-14 0 0 0 0)
(-5.42101e-14 -3.26081e-16 0 -1.0842e-13 2.69643e-14 0 0 0 0)
(-8.13152e-14 6.37243e-15 0 -1.0842e-13 2.22403e-14 0 0 0 0)
(0 1.19271e-14 0 -8.13152e-14 -6.57067e-15 0 0 0 0)
(2.71051e-14 -7.31613e-15 0 -8.13152e-14 -2.56398e-14 0 0 0 0)
(8.13152e-14 -1.54867e-14 0 0 -2.92866e-14 0 0 0 0)
(-2.71051e-14 -2.78835e-15 0 -2.71051e-14 -5.95128e-15 0 0 0 0)
(2.71051e-14 1.12976e-14 0 -8.13152e-14 -1.27294e-15 0 0 0 0)
(0 1.40968e-14 0 -1.0842e-13 -3.15925e-15 0 0 0 0)
(0 5.5046e-15 0 -1.0842e-13 -5.61947e-15 0 0 0 0)
(0 4.53906e-16 0 -1.0842e-13 -2.27765e-15 0 0 0 0)
(-2.71051e-14 1.747e-15 0 0 3.06298e-15 0 0 0 0)
(2.71051e-14 -7.17722e-15 0 -2.71051e-14 -9.28736e-16 0 0 0 0)
(-2.71051e-14 -1.7632e-14 0 0 -3.98258e-15 0 0 0 0)
(1.89735e-13 -4.63576e-14 0 5.14996e-13 7.82515e-13 0 0 0 0)
(-2.43945e-13 6.0978e-15 0 -5.42101e-14 -1.37456e-13 0 0 0 0)
(5.42101e-14 2.71891e-14 0 8.13152e-14 2.28431e-14 0 0 0 0)
(-5.42101e-14 -2.81111e-15 0 2.71051e-14 -4.56094e-15 0 0 0 0)
(-2.71051e-14 1.63364e-14 0 0 1.15546e-14 0 0 0 0)
(0 1.82649e-14 0 -5.42101e-14 2.61516e-14 0 0 0 0)
(0 1.34341e-14 0 0 1.27294e-14 0 0 0 0)
(0 -8.01032e-16 0 5.42101e-14 5.75919e-15 0 0 0 0)
(-5.42101e-14 -1.81901e-14 0 2.71051e-14 1.35648e-14 0 0 0 0)
(5.42101e-14 -2.5325e-14 0 2.71051e-14 -1.47246e-14 0 0 0 0)
(2.71051e-14 -1.18313e-14 0 8.13152e-14 -2.20043e-14 0 0 0 0)
(5.42101e-14 1.55579e-14 0 0 -9.79323e-15 0 0 0 0)
(-5.42101e-14 2.24455e-14 0 -5.42101e-14 1.04605e-14 0 0 0 0)
(-2.71051e-14 -4.63931e-16 0 0 1.02241e-14 0 0 0 0)
(-5.42101e-14 -1.37345e-14 0 0 -9.19567e-15 0 0 0 0)
(5.42101e-14 -5.10313e-15 0 0 -2.12724e-14 0 0 0 0)
(0 6.90845e-15 0 0 -9.16685e-15 0 0 0 0)
(2.71051e-14 6.77987e-15 0 -5.42101e-14 -1.9015e-14 0 0 0 0)
(5.42101e-14 -1.69833e-15 0 0 -2.39476e-14 0 0 0 0)
(0 -6.69794e-15 0 0 -8.07774e-15 0 0 0 0)
(1.35525e-13 2.93605e-13 0 -2.71051e-14 -2.4668e-13 0 0 0 0)
(-8.13152e-14 -3.65981e-13 0 -5.42101e-14 6.9879e-14 0 0 0 0)
(0 7.11767e-14 0 2.71051e-14 -1.09424e-14 0 0 0 0)
(2.71051e-14 -2.65214e-15 0 0 3.56044e-15 0 0 0 0)
(-2.71051e-14 2.84404e-14 0 0 4.96491e-15 0 0 0 0)
(0 2.85137e-15 0 1.0842e-13 1.01913e-14 0 0 0 0)
(0 -9.62435e-15 0 5.42101e-14 1.1814e-15 0 0 0 0)
(0 5.09269e-16 0 5.42101e-14 -8.46755e-15 0 0 0 0)
(0 -1.41114e-14 0 1.0842e-13 -8.91486e-15 0 0 0 0)
(0 -2.3642e-14 0 1.0842e-13 -2.8722e-15 0 0 0 0)
(0 -2.38474e-15 0 5.42101e-14 1.11565e-14 0 0 0 0)
(-5.42101e-14 1.6978e-14 0 5.42101e-14 2.28533e-14 0 0 0 0)
(0 1.7229e-14 0 5.42101e-14 8.69649e-15 0 0 0 0)
(2.71051e-14 -8.3586e-15 0 8.13152e-14 1.36223e-15 0 0 0 0)
(2.71051e-14 -1.73998e-14 0 1.0842e-13 -1.56174e-15 0 0 0 0)
(-2.71051e-14 5.53343e-15 0 5.42101e-14 -4.67249e-17 0 0 0 0)
(-2.71051e-14 2.71136e-15 0 8.13152e-14 -3.6026e-16 0 0 0 0)
(0 -1.30337e-14 0 5.42101e-14 -7.70956e-15 0 0 0 0)
(2.71051e-14 3.76002e-15 0 2.71051e-14 -9.04126e-15 0 0 0 0)
(-2.71051e-14 1.43934e-14 0 2.71051e-14 -4.98385e-16 0 0 0 0)
(8.13152e-14 -2.23159e-13 0 0 -3.61197e-13 0 0 0 0)
(-1.35525e-13 2.41836e-13 0 -1.35525e-13 8.81181e-14 0 0 0 0)
(8.13152e-14 -3.91295e-14 0 -2.71051e-14 -7.64511e-15 0 0 0 0)
(-8.13152e-14 1.30962e-14 0 -1.0842e-13 1.89613e-14 0 0 0 0)
(5.42101e-14 2.29673e-14 0 -8.13152e-14 -1.39982e-14 0 0 0 0)
(5.42101e-14 1.44814e-14 0 -1.0842e-13 -2.49025e-14 0 0 0 0)
(0 -5.22479e-15 0 -1.0842e-13 -1.5401e-14 0 0 0 0)
(0 -1.08973e-14 0 -5.42101e-14 -5.12365e-15 0 0 0 0)
(2.71051e-14 -1.25948e-14 0 -5.42101e-14 -1.05426e-14 0 0 0 0)
(-2.71051e-14 -5.25363e-15 0 -5.42101e-14 -3.15435e-15 0 0 0 0)
(0 1.38942e-14 0 -1.0842e-13 -4.24655e-15 0 0 0 0)
(0 1.30979e-14 0 -5.42101e-14 1.35997e-15 0 0 0 0)
(0 9.54485e-16 0 2.71051e-14 -3.66122e-15 0 0 0 0)
(0 -1.07222e-14 0 2.71051e-14 -4.14679e-15 0 0 0 0)
(-5.42101e-14 -1.51434e-14 0 0 9.27e-15 0 0 0 0)
(0 -3.90165e-15 0 0 9.08263e-15 0 0 0 0)
(0 -7.54386e-16 0 2.71051e-14 -6.84518e-15 0 0 0 0)
(2.71051e-14 -1.90113e-15 0 0 9.32172e-15 0 0 0 0)
(2.71051e-14 5.51284e-15 0 0 1.50584e-14 0 0 0 0)
(-5.42101e-14 2.8417e-15 0 0 1.94652e-15 0 0 0 0)
(2.71051e-14 2.05262e-14 0 -1.89735e-13 5.65733e-13 0 0 0 0)
(-1.0842e-13 -1.24295e-14 0 1.89735e-13 -5.80218e-14 0 0 0 0)
(0 2.01994e-15 0 -2.71051e-14 3.66995e-14 0 0 0 0)
(-5.42101e-14 -9.00527e-15 0 2.71051e-14 3.278e-14 0 0 0 0)
(0 -1.54234e-14 0 2.71051e-14 2.0156e-14 0 0 0 0)
(0 1.4486e-15 0 5.42101e-14 -1.26979e-14 0 0 0 0)
(5.42101e-14 1.01545e-14 0 0 -2.26445e-14 0 0 0 0)
(0 5.36769e-15 0 -8.13152e-14 -8.87074e-15 0 0 0 0)
(0 -1.21421e-14 0 -5.42101e-14 -2.63516e-15 0 0 0 0)
(0 -1.73459e-14 0 0 -4.02795e-15 0 0 0 0)
(0 2.12957e-15 0 0 -1.60234e-14 0 0 0 0)
(2.71051e-14 1.75634e-14 0 -8.13152e-14 -3.20708e-14 0 0 0 0)
(5.42101e-14 1.17222e-14 0 0 -3.04941e-14 0 0 0 0)
(5.42101e-14 4.57262e-15 0 -5.42101e-14 -3.13562e-14 0 0 0 0)
(0 -4.17033e-15 0 0 -4.58951e-15 0 0 0 0)
(0 -1.05818e-14 0 2.71051e-14 1.25172e-14 0 0 0 0)
(-2.71051e-14 2.95044e-15 0 -2.71051e-14 6.90716e-15 0 0 0 0)
(-2.71051e-14 8.86983e-15 0 0 1.01884e-14 0 0 0 0)
(0 -3.61518e-15 0 -2.71051e-14 7.57428e-15 0 0 0 0)
(0 -2.61155e-15 0 -2.71051e-14 -3.35686e-15 0 0 0 0)
(5.42101e-14 2.84552e-13 0 -5.69206e-13 4.6083e-14 0 0 0 0)
(2.71051e-14 -2.87198e-13 0 8.13152e-14 -3.39695e-14 0 0 0 0)
(-2.71051e-14 5.16723e-14 0 -8.13152e-14 1.23041e-14 0 0 0 0)
(0 -3.44729e-15 0 5.42101e-14 -1.21245e-15 0 0 0 0)
(2.71051e-14 -2.25107e-14 0 5.42101e-14 1.4328e-14 0 0 0 0)
(-2.71051e-14 -2.83191e-14 0 5.42101e-14 1.31225e-14 0 0 0 0)
(-5.42101e-14 -1.39761e-15 0 1.0842e-13 1.23196e-14 0 0 0 0)
(0 9.11209e-15 0 2.71051e-14 -7.65642e-15 0 0 0 0)
(2.71051e-14 -7.75199e-15 0 8.13152e-14 -1.41171e-14 0 0 0 0)
(2.71051e-14 -1.86418e-14 0 5.42101e-14 1.15885e-15 0 0 0 0)
(-5.42101e-14 -1.41487e-14 0 1.0842e-13 2.10895e-14 0 0 0 0)
(0 -1.37294e-15 0 2.71051e-14 1.2624e-14 0 0 0 0)
(2.71051e-14 1.66915e-15 0 2.71051e-14 -8.65098e-15 0 0 0 0)
(-2.71051e-14 1.51825e-14 0 0 -2.44408e-14 0 0 0 0)
(0 2.87299e-14 0 -5.42101e-14 -7.05402e-15 0 0 0 0)
(2.71051e-14 7.59502e-15 0 -2.71051e-14 1.21195e-14 0 0 0 0)
(-2.71051e-14 -3.08314e-15 0 0 1.02451e-14 0 0 0 0)
(0 -1.234e-15 0 -5.42101e-14 -2.48938e-15 0 0 0 0)
(2.71051e-14 -8.03245e-15 0 0 -4.61641e-15 0 0 0 0)
(-2.71051e-14 -1.37572e-15 0 0 -1.38215e-15 0 0 0 0)
(-4.87891e-13 3.26397e-14 0 1.35525e-13 -3.76541e-13 0 0 0 0)
(4.06576e-13 -4.62084e-14 0 -1.35525e-13 -2.68736e-14 0 0 0 0)
(-5.42101e-14 3.4777e-14 0 0 -3.5616e-14 0 0 0 0)
(8.13152e-14 -6.98134e-15 0 -5.42101e-14 -4.10861e-14 0 0 0 0)
(5.42101e-14 -1.08839e-15 0 0 -3.54192e-14 0 0 0 0)
(2.71051e-14 -5.59806e-16 0 -2.71051e-14 -2.50323e-15 0 0 0 0)
(-2.71051e-14 -1.06245e-14 0 -2.71051e-14 1.1426e-14 0 0 0 0)
(0 -2.1069e-14 0 5.42101e-14 -1.65518e-14 0 0 0 0)
(5.42101e-14 -3.32682e-15 0 2.71051e-14 -1.97119e-14 0 0 0 0)
(0 1.78607e-14 0 -2.71051e-14 1.90592e-15 0 0 0 0)
(0 1.35947e-14 0 -5.42101e-14 1.98064e-14 0 0 0 0)
(-2.71051e-14 -1.21771e-14 0 0 2.01266e-14 0 0 0 0)
(-2.71051e-14 -2.53425e-14 0 -5.42101e-14 2.61806e-15 0 0 0 0)
(0 6.16958e-15 0 0 8.80997e-15 0 0 0 0)
(0 3.23899e-14 0 -5.42101e-14 1.76158e-15 0 0 0 0)
(0 6.71734e-15 0 -5.42101e-14 1.3533e-15 0 0 0 0)
(-5.42101e-14 -1.16584e-14 0 0 1.74842e-15 0 0 0 0)
(0 -5.99164e-15 0 0 -7.99463e-15 0 0 0 0)
(5.42101e-14 -2.50795e-15 0 0 -1.36156e-14 0 0 0 0)
(0 3.38701e-15 0 -2.71051e-14 -1.56489e-15 0 0 0 0)
(8.13152e-14 -1.18863e-13 0 1.13841e-12 -2.43279e-14 0 0 0 0)
(-1.35525e-13 5.37275e-14 0 -2.71051e-14 -9.84433e-15 0 0 0 0)
(8.13152e-14 3.74598e-14 0 2.1684e-13 -1.97907e-14 0 0 0 0)
(0 -3.2505e-15 0 1.0842e-13 -1.34557e-14 0 0 0 0)
(0 1.60722e-14 0 8.13152e-14 -1.10836e-14 0 0 0 0)
(0 1.8526e-14 0 2.71051e-14 -4.3228e-15 0 0 0 0)
(0 -1.54461e-14 0 5.42101e-14 -5.4484e-15 0 0 0 0)
(0 -2.20258e-14 0 8.13152e-14 -1.60844e-15 0 0 0 0)
(0 1.07057e-14 0 0 1.59523e-14 0 0 0 0)
(-8.13152e-14 2.08765e-14 0 2.71051e-14 1.68715e-14 0 0 0 0)
(-2.71051e-14 4.07197e-15 0 0 -2.14296e-15 0 0 0 0)
(2.71051e-14 -1.85613e-14 0 8.13152e-14 -1.57018e-14 0 0 0 0)
(5.42101e-14 -9.64746e-15 0 2.71051e-14 -5.32187e-15 0 0 0 0)
(-5.42101e-14 1.4326e-14 0 0 1.83141e-14 0 0 0 0)
(0 2.12733e-14 0 0 -1.42617e-15 0 0 0 0)
(5.42101e-14 7.58185e-15 0 0 -1.13214e-14 0 0 0 0)
(0 -1.24311e-14 0 -2.71051e-14 -1.6643e-15 0 0 0 0)
(0 -1.6598e-14 0 5.42101e-14 -2.42524e-15 0 0 0 0)
(0 -1.6027e-15 0 2.71051e-14 -3.78181e-15 0 0 0 0)
(0 1.38047e-14 0 0 6.34929e-16 0 0 0 0)
(6.23416e-13 -1.53247e-15 0 -7.86047e-13 2.77135e-14 0 0 0 0)
(-5.14996e-13 -4.16713e-14 0 8.13152e-14 9.26815e-14 0 0 0 0)
(8.13152e-14 3.11656e-14 0 -1.35525e-13 1.56573e-14 0 0 0 0)
(-5.42101e-14 1.72578e-15 0 -5.42101e-14 2.40561e-14 0 0 0 0)
(-2.71051e-14 8.04451e-15 0 -8.13152e-14 1.7182e-14 0 0 0 0)
(0 5.07536e-15 0 -5.42101e-14 -6.06131e-17 0 0 0 0)
(2.71051e-14 -7.91011e-15 0 -8.13152e-14 -6.41935e-15 0 0 0 0)
(-5.42101e-14 3.31684e-16 0 -8.13152e-14 2.32956e-14 0 0 0 0)
(0 1.51531e-14 0 -5.42101e-14 1.52747e-14 0 0 0 0)
(0 -2.34558e-16 0 -5.42101e-14 -2.56318e-15 0 0 0 0)
(2.71051e-14 -1.89786e-14 0 0 -5.36718e-15 0 0 0 0)
(-2.71051e-14 -1.5356e-14 0 -2.71051e-14 1.23435e-14 0 0 0 0)
(-5.42101e-14 8.67344e-15 0 -2.71051e-14 2.85502e-14 0 0 0 0)
(-2.71051e-14 1.00653e-14 0 0 1.33175e-14 0 0 0 0)
(0 2.75438e-15 0 5.42101e-14 4.15887e-15 0 0 0 0)
(0 6.47921e-15 0 5.42101e-14 -1.07101e-14 0 0 0 0)
(0 -2.76222e-15 0 0 -9.90219e-15 0 0 0 0)
(2.71051e-14 -8.10915e-15 0 0 4.48318e-15 0 0 0 0)
(-2.71051e-14 5.52217e-16 0 -2.71051e-14 1.4805e-14 0 0 0 0)
(0 6.53388e-15 0 0 5.53366e-15 0 0 0 0)
)
;

boundaryField
{
    movingWall
    {
        type            extrapolatedCalculated;
        value           nonuniform List<tensor> 
20
(
(6.23416e-13 -1.53247e-15 0 -2.57572e-12 -1.46995e-13 0 0 0 0)
(-5.14996e-13 -4.16713e-14 0 8.88178e-14 1.53125e-13 0 0 0 0)
(8.13152e-14 3.11656e-14 0 -4.88498e-13 1.96897e-14 0 0 0 0)
(-5.42101e-14 1.72578e-15 0 -2.22045e-13 2.84629e-14 0 0 0 0)
(-2.71051e-14 8.04451e-15 0 -2.66454e-13 1.27866e-14 0 0 0 0)
(0 5.07536e-15 0 -2.22045e-13 -3.71518e-15 0 0 0 0)
(2.71051e-14 -7.91011e-15 0 -2.66454e-13 -7.51487e-15 0 0 0 0)
(-5.42101e-14 3.31684e-16 0 -2.66454e-13 2.79253e-14 0 0 0 0)
(0 1.51531e-14 0 -1.33227e-13 -8.8416e-15 0 0 0 0)
(0 -2.34558e-16 0 -1.77636e-13 -3.26872e-14 0 0 0 0)
(2.71051e-14 -1.89786e-14 0 -1.77636e-13 -7.90337e-15 0 0 0 0)
(-2.71051e-14 -1.5356e-14 0 -2.66454e-13 4.32273e-14 0 0 0 0)
(-5.42101e-14 8.67344e-15 0 -8.88178e-14 5.35208e-14 0 0 0 0)
(-2.71051e-14 1.00653e-14 0 0 8.53359e-15 0 0 0 0)
(0 2.75438e-15 0 0 1.32597e-14 0 0 0 0)
(0 6.47921e-15 0 8.88178e-14 -2.48394e-15 0 0 0 0)
(0 -2.76222e-15 0 0 -1.26572e-14 0 0 0 0)
(2.71051e-14 -8.10915e-15 0 0 8.56494e-15 0 0 0 0)
(-2.71051e-14 5.52217e-16 0 -4.44089e-14 1.97795e-14 0 0 0 0)
(0 6.53388e-15 0 0 6.35607e-15 0 0 0 0)
)
;
    }
    fixedWalls
    {
        type            extrapolatedCalculated;
        value           nonuniform List<tensor> 
60
(
(9.76996e-13 -9.19563e-13 0 -2.71051e-13 -2.48932e-13 0 0 0 0)
(-2.04281e-12 -7.61668e-14 0 -1.6263e-13 2.17389e-13 0 0 0 0)
(1.77636e-13 -5.00053e-14 0 5.14996e-13 -1.59534e-13 0 0 0 0)
(1.77636e-13 -7.14302e-13 0 1.89735e-13 2.16336e-13 0 0 0 0)
(9.32587e-13 8.1534e-13 0 -4.60786e-13 1.88994e-13 0 0 0 0)
(-1.68754e-12 4.1676e-14 0 -2.1684e-13 -1.54744e-13 0 0 0 0)
(1.33227e-13 1.96366e-13 0 -8.13152e-14 1.61218e-13 0 0 0 0)
(-2.13163e-12 6.86546e-13 0 -3.52366e-13 -2.44328e-13 0 0 0 0)
(-1.15463e-12 -7.80948e-13 0 1.19262e-12 7.20879e-14 0 0 0 0)
(2.62013e-12 9.74898e-13 0 2.43945e-13 7.04207e-13 0 0 0 0)
(-2.66454e-13 2.03588e-12 0 -1.0842e-12 -6.50049e-13 0 0 0 0)
(-1.77636e-12 -1.6253e-12 0 2.71051e-13 -5.15944e-13 0 0 0 0)
(8.43769e-13 -2.78952e-14 0 5.14996e-13 7.82515e-13 0 0 0 0)
(3.55271e-13 1.50476e-12 0 -2.71051e-14 -2.4668e-13 0 0 0 0)
(7.10543e-13 -1.01462e-12 0 0 -3.61197e-13 0 0 0 0)
(3.55271e-13 5.99746e-14 0 -1.89735e-13 5.65733e-13 0 0 0 0)
(0 1.24832e-12 0 -5.69206e-13 4.6083e-14 0 0 0 0)
(-2.04281e-12 2.44307e-13 0 1.35525e-13 -3.76541e-13 0 0 0 0)
(5.77316e-13 -2.57849e-13 0 1.13841e-12 -2.43279e-14 0 0 0 0)
(2.57572e-12 1.46995e-13 0 -7.86047e-13 2.77135e-14 0 0 0 0)
(-4.44089e-14 2.95612e-14 0 2.71051e-14 -1.73832e-14 0 0 0 0)
(-4.44089e-14 3.99715e-14 0 -2.71051e-14 4.28928e-15 0 0 0 0)
(0 1.24041e-14 0 0 6.00323e-15 0 0 0 0)
(0 1.59585e-14 0 0 -3.62441e-15 0 0 0 0)
(-4.44089e-14 2.69017e-14 0 2.71051e-14 2.97281e-15 0 0 0 0)
(-4.44089e-14 4.0673e-15 0 0 8.28648e-15 0 0 0 0)
(0 -6.2442e-15 0 -2.71051e-14 -2.04806e-15 0 0 0 0)
(0 1.22595e-14 0 0 -4.56093e-15 0 0 0 0)
(0 1.19995e-14 0 0 6.20239e-15 0 0 0 0)
(-4.44089e-14 -1.255e-14 0 2.71051e-14 8.45795e-15 0 0 0 0)
(0 -2.18323e-14 0 0 2.15192e-15 0 0 0 0)
(-4.44089e-14 -2.11577e-14 0 0 -3.98258e-15 0 0 0 0)
(0 -5.90194e-15 0 0 -8.07774e-15 0 0 0 0)
(-4.44089e-14 1.11533e-14 0 2.71051e-14 -4.98385e-16 0 0 0 0)
(-1.33227e-13 -3.9084e-15 0 0 1.94652e-15 0 0 0 0)
(0 3.36717e-15 0 -2.71051e-14 -3.35686e-15 0 0 0 0)
(-4.44089e-14 9.51903e-15 0 0 -1.38215e-15 0 0 0 0)
(0 8.89579e-15 0 -2.71051e-14 -1.56489e-15 0 0 0 0)
(0 1.57786e-14 0 0 6.34929e-16 0 0 0 0)
(0 6.35607e-15 0 0 5.53366e-15 0 0 0 0)
(3.52366e-13 -1.28347e-13 0 9.76996e-13 -9.19563e-13 0 0 0 0)
(-1.6263e-13 2.22645e-13 0 3.9968e-13 4.06175e-13 0 0 0 0)
(2.71051e-14 -8.17128e-14 0 3.9968e-13 -2.8984e-14 0 0 0 0)
(-2.71051e-14 2.50409e-14 0 4.44089e-13 7.93235e-14 0 0 0 0)
(-2.71051e-14 -5.65091e-15 0 3.55271e-13 7.11796e-14 0 0 0 0)
(-2.71051e-14 -9.16202e-15 0 2.66454e-13 5.67198e-14 0 0 0 0)
(-2.71051e-14 -1.65298e-14 0 2.66454e-13 3.45316e-14 0 0 0 0)
(-2.71051e-14 -1.08577e-14 0 1.77636e-13 -9.3995e-15 0 0 0 0)
(-2.71051e-14 2.47153e-15 0 1.33227e-13 -8.89915e-15 0 0 0 0)
(2.71051e-14 7.74438e-15 0 1.77636e-13 4.86635e-16 0 0 0 0)
(-2.71051e-14 4.0631e-15 0 1.33227e-13 2.20784e-14 0 0 0 0)
(2.71051e-14 2.18695e-15 0 1.33227e-13 1.6739e-14 0 0 0 0)
(0 9.53944e-15 0 1.77636e-13 3.08262e-14 0 0 0 0)
(-2.71051e-14 5.76154e-15 0 1.77636e-13 5.48968e-14 0 0 0 0)
(-2.71051e-14 -1.98819e-15 0 4.44089e-14 5.38724e-14 0 0 0 0)
(-2.71051e-14 -6.74448e-15 0 0 4.6944e-14 0 0 0 0)
(0 -8.03339e-15 0 0 2.68944e-14 0 0 0 0)
(-5.42101e-14 -1.1933e-14 0 -8.88178e-14 1.48104e-14 0 0 0 0)
(5.42101e-14 -1.10929e-14 0 -8.88178e-14 -2.08374e-14 0 0 0 0)
(0 1.25996e-14 0 4.44089e-14 -2.95612e-14 0 0 0 0)
)
;
    }
    frontAndBack
    {
        type            empty;
    }
}


// ************************************************************************* //
