/*--------------------------------*- C++ -*----------------------------------*\
| =========                 |                                                 |
| \\      /  F ield         | OpenFOAM: The Open Source CFD Toolbox           |
|  \\    /   O peration     | Version:  2312                                  |
|   \\  /    A nd           | Website:  www.openfoam.com                      |
|    \\/     M anipulation  |                                                 |
\*---------------------------------------------------------------------------*/
FoamFile
{
    version     2.0;
    format      ascii;
    arch        "LSB;label=32;scalar=64";
    class       volVectorField;
    location    "7.625";
    object      LambVectorField;
}
// * * * * * * * * * * * * * * * * * * * * * * * * * * * * * * * * * * * * * //

dimensions      [0 1 -2 0 0 0 0];

internalField   nonuniform List<vector> 
400
(
(3.28062e-28 -1.42704e-13 -1.42704e-13)
(-1.43511e-28 -1.41329e-13 0)
(-7.88495e-30 1.08818e-13 1.08818e-13)
(5.7845e-30 2.91692e-14 0)
(5.82889e-30 3.2756e-14 3.2756e-14)
(1.29917e-30 9.16202e-15 0)
(1.427e-30 1.65298e-14 1.65298e-14)
(-2.55142e-31 1.08577e-14 -0)
(5.49864e-32 -2.47153e-15 -2.47153e-15)
(-9.42172e-33 -7.74438e-15 0)
(-2.24267e-31 -4.0631e-15 -4.0631e-15)
(-9.15187e-32 -2.18695e-15 0)
(-7.35161e-31 -9.53944e-15 -9.53944e-15)
(-7.90725e-31 -5.76154e-15 0)
(-7.03329e-30 -5.22219e-14 -5.22219e-14)
(7.91532e-31 6.74448e-15 0)
(5.40134e-31 8.03339e-15 8.03339e-15)
(-1.56536e-30 -4.22772e-14 0)
(-5.77867e-31 1.10929e-14 1.10929e-14)
(-1.07199e-30 1.45054e-14 -0)
(3.44822e-29 -1.81088e-13 -1.81088e-13)
(-3.47893e-29 -9.27732e-14 0)
(5.16104e-30 -6.80545e-14 -6.80545e-14)
(3.4957e-30 -1.21956e-13 -0)
(-9.05199e-30 -1.52071e-13 -1.52071e-13)
(-1.96917e-29 -1.43957e-13 0)
(-1.10032e-29 -7.6496e-14 -7.6496e-14)
(-6.21722e-30 -7.0174e-14 0)
(-1.43482e-30 -4.42451e-14 -4.42451e-14)
(8.61779e-31 -7.79712e-14 -0)
(5.79069e-32 -5.72987e-14 -5.72987e-14)
(-1.1714e-30 -5.90615e-14 0)
(-4.25506e-30 -8.95732e-14 -8.95732e-14)
(-5.77785e-30 -5.6417e-14 0)
(3.19132e-31 4.58707e-15 4.58707e-15)
(1.29262e-31 2.2861e-15 0)
(-2.08591e-30 -4.46554e-14 -4.46554e-14)
(-6.8035e-31 1.74428e-14 -0)
(-4.23987e-30 3.31975e-14 3.31975e-14)
(4.9834e-30 -4.98696e-14 -0)
(-6.45928e-29 5.16687e-13 5.16687e-13)
(-1.29388e-29 -1.19687e-13 0)
(1.58874e-29 6.14108e-14 6.14108e-14)
(6.18252e-30 2.01288e-14 0)
(4.83451e-29 1.47183e-13 1.47183e-13)
(3.67508e-29 1.92848e-13 0)
(4.32038e-30 1.64331e-13 1.64331e-13)
(-1.51405e-29 1.55303e-13 -0)
(-1.91947e-29 1.11932e-13 1.11932e-13)
(-1.3535e-29 1.0207e-13 -0)
(-7.43495e-30 6.8851e-14 6.8851e-14)
(-5.16923e-31 6.49111e-14 -0)
(4.65205e-30 8.29916e-14 8.29916e-14)
(-2.36416e-30 9.56065e-14 -0)
(-7.17115e-30 8.25613e-14 8.25613e-14)
(2.8705e-31 -7.71852e-15 -0)
(-6.32577e-31 6.53939e-14 6.53939e-14)
(-9.94977e-30 6.67645e-14 -0)
(1.5958e-30 -1.18018e-14 -1.18018e-14)
(5.15473e-31 -1.66227e-14 -0)
(-5.51524e-28 3.08847e-13 3.08847e-13)
(-1.12564e-28 -1.89297e-13 0)
(9.44031e-30 8.80486e-14 8.80486e-14)
(1.99092e-29 7.76928e-14 0)
(1.49808e-29 1.04439e-13 1.04439e-13)
(1.76718e-30 7.06375e-14 0)
(-1.90428e-30 9.1409e-14 9.1409e-14)
(-4.84276e-30 6.37873e-14 -0)
(-3.93576e-30 3.37531e-14 3.37531e-14)
(-7.64156e-30 5.36623e-14 -0)
(-5.00484e-30 4.50374e-14 4.50374e-14)
(-3.61174e-31 7.12739e-15 -0)
(3.89366e-30 4.39216e-14 4.39216e-14)
(2.77859e-31 5.32181e-15 0)
(1.21745e-31 3.436e-15 3.436e-15)
(1.74295e-31 9.76375e-15 0)
(-4.36442e-30 7.01617e-14 7.01617e-14)
(-6.41111e-31 4.52556e-15 -0)
(4.00634e-30 -3.72819e-14 -3.72819e-14)
(5.87901e-31 -1.47357e-14 -0)
(-1.38612e-27 -6.80021e-13 -6.80021e-13)
(4.61249e-29 2.9952e-13 0)
(-3.60403e-30 -2.83002e-14 -2.83002e-14)
(-5.59431e-30 5.3227e-14 -0)
(4.25613e-30 -3.17931e-14 -3.17931e-14)
(3.93647e-30 -6.76112e-14 -0)
(-1.32984e-32 -9.44397e-14 -9.44397e-14)
(-4.26663e-30 -5.84286e-14 0)
(2.0673e-31 4.88432e-15 4.88432e-15)
(-7.50336e-31 -3.10315e-14 0)
(-5.10798e-31 -6.26056e-15 -6.26056e-15)
(1.07675e-31 1.2407e-15 0)
(3.07435e-31 4.44381e-15 4.44381e-15)
(1.25027e-30 2.95241e-14 0)
(1.43622e-30 3.19218e-14 3.19218e-14)
(-4.00913e-31 6.88779e-14 -0)
(2.02141e-30 -1.9879e-14 -1.9879e-14)
(2.10401e-31 -2.69464e-15 -0)
(8.09216e-32 -1.08272e-15 -1.08272e-15)
(-8.67962e-31 1.29057e-14 -0)
(-2.91154e-29 -2.79445e-13 -2.79445e-13)
(1.77084e-29 3.39332e-14 0)
(1.7739e-30 4.94007e-14 4.94007e-14)
(-1.37794e-30 -4.94733e-14 0)
(2.07138e-31 -1.80752e-14 -1.80752e-14)
(-5.34113e-31 8.55317e-15 -0)
(-2.31241e-31 2.38414e-15 2.38414e-15)
(-4.60982e-32 5.34239e-16 -0)
(1.01538e-30 -9.92224e-15 -9.92224e-15)
(-2.72267e-31 -2.10492e-14 0)
(-4.41083e-30 -4.07814e-14 -4.07814e-14)
(4.75443e-31 3.17601e-15 0)
(9.56339e-31 1.25179e-14 1.25179e-14)
(8.08614e-31 3.29785e-14 0)
(2.31176e-32 1.3088e-15 1.3088e-15)
(-2.3798e-31 -2.0818e-14 0)
(-1.23049e-31 2.72192e-15 2.72192e-15)
(4.19747e-32 -2.65868e-15 -0)
(1.04636e-32 -5.61952e-16 -5.61952e-16)
(2.92727e-32 -2.87883e-15 -0)
(-6.91291e-29 -1.40817e-13 -1.40817e-13)
(1.74774e-29 1.67884e-13 0)
(3.48412e-30 -3.35897e-14 -3.35897e-14)
(-7.4364e-30 7.28345e-14 -0)
(-4.85819e-30 1.67541e-14 1.67541e-14)
(1.25507e-29 -4.6546e-14 -0)
(7.73339e-30 -8.09265e-14 -8.09265e-14)
(1.61931e-31 -6.53722e-14 -0)
(-9.33283e-31 -5.81104e-14 -5.81104e-14)
(-1.96215e-30 -5.37199e-14 0)
(4.5026e-32 4.03507e-15 4.03507e-15)
(3.24816e-32 -8.4918e-15 -0)
(-6.52004e-30 -6.78629e-14 -6.78629e-14)
(-1.13644e-29 -8.56382e-14 0)
(-2.73374e-30 -1.96239e-14 -1.96239e-14)
(1.56254e-31 2.69908e-15 0)
(-3.72403e-30 -3.31568e-14 -3.31568e-14)
(9.86769e-31 8.3336e-15 0)
(2.97908e-31 1.02798e-14 1.02798e-14)
(-3.53516e-31 -2.2646e-14 0)
(-8.60723e-28 -5.0148e-13 -5.0148e-13)
(-3.32654e-30 1.47704e-14 -0)
(-3.48599e-29 -1.63348e-13 -1.63348e-13)
(-4.28417e-30 -8.0815e-14 0)
(6.13995e-30 -9.80143e-14 -9.80143e-14)
(4.054e-30 -7.94165e-14 -0)
(5.84172e-30 -7.15632e-14 -7.15632e-14)
(1.18001e-29 -7.94265e-14 -0)
(1.32891e-29 -1.32209e-13 -1.32209e-13)
(-9.72374e-30 -1.08868e-13 0)
(-1.97053e-29 -1.12597e-13 -1.12597e-13)
(-1.33219e-29 -1.01627e-13 0)
(-8.16099e-30 -7.62168e-14 -7.62168e-14)
(-4.50752e-30 -5.62726e-14 0)
(-1.15914e-29 -9.07695e-14 -9.07695e-14)
(-1.64909e-29 -9.44255e-14 0)
(-2.01242e-29 -7.77584e-14 -7.77584e-14)
(-3.86342e-30 -2.7779e-14 0)
(-9.34465e-32 1.69726e-14 1.69726e-14)
(1.1081e-31 -3.61546e-15 -0)
(-2.74458e-27 1.40577e-12 1.40577e-12)
(5.82761e-29 -3.25409e-13 -0)
(-1.32674e-29 2.47831e-13 2.47831e-13)
(-1.13779e-29 5.22059e-14 -0)
(-2.00424e-30 5.98429e-14 5.98429e-14)
(-2.9222e-31 9.07305e-14 -0)
(-1.234e-29 9.66738e-14 9.66738e-14)
(-1.22275e-29 7.79781e-14 -0)
(-1.70845e-30 1.81221e-14 1.81221e-14)
(-4.78366e-30 7.14226e-14 -0)
(-8.44566e-32 -1.81573e-14 -1.81573e-14)
(6.88536e-32 6.00838e-16 0)
(-1.34582e-31 9.91766e-14 9.91766e-14)
(-3.44442e-30 5.3804e-14 -0)
(-6.69729e-32 -2.4769e-14 -2.4769e-14)
(-1.58037e-30 -8.6043e-15 0)
(4.13127e-30 4.65511e-14 4.65511e-14)
(-1.05664e-30 9.79414e-14 -0)
(-1.4891e-31 1.92103e-15 1.92103e-15)
(3.2253e-31 -1.07514e-14 -0)
(1.36944e-28 5.61881e-14 5.61881e-14)
(-2.16803e-28 3.87376e-13 -0)
(-3.6969e-30 4.54916e-14 4.54916e-14)
(-1.58066e-29 7.847e-14 -0)
(-1.67936e-30 3.17976e-14 3.17976e-14)
(1.07664e-30 4.74504e-14 0)
(1.17828e-30 7.97045e-14 7.97045e-14)
(2.01887e-30 5.2037e-14 0)
(4.49974e-30 1.23233e-13 1.23233e-13)
(-1.03097e-29 9.42955e-14 -0)
(-1.0517e-29 1.12736e-13 1.12736e-13)
(3.60812e-30 3.0432e-14 0)
(8.03967e-30 5.56409e-14 5.56409e-14)
(6.50847e-30 6.24284e-14 0)
(7.1847e-30 1.15307e-13 1.15307e-13)
(4.40508e-30 1.24487e-13 0)
(-6.39428e-30 6.50071e-14 6.50071e-14)
(-1.37747e-30 1.89777e-14 -0)
(1.77656e-31 -1.03959e-14 -1.03959e-14)
(8.95244e-31 2.85337e-14 0)
(-7.85958e-27 -1.54421e-12 -1.54421e-12)
(-3.09152e-28 6.31408e-13 -0)
(-2.47261e-29 -1.88919e-13 -1.88919e-13)
(-5.81729e-31 -1.31276e-14 0)
(1.44001e-31 -1.61944e-14 -1.61944e-14)
(1.23098e-30 -1.89985e-14 -0)
(2.1766e-30 -2.41958e-14 -2.41958e-14)
(4.99676e-32 -5.32217e-16 -0)
(3.59277e-30 -4.24499e-14 -4.24499e-14)
(-6.18678e-30 -1.0387e-13 0)
(-1.29924e-29 -9.21998e-14 -9.21998e-14)
(6.95631e-31 4.1306e-15 0)
(-2.14528e-30 -2.15369e-14 -2.15369e-14)
(-2.68846e-30 -2.38491e-14 0)
(6.29459e-31 9.38795e-15 9.38795e-15)
(1.12803e-31 5.98473e-15 0)
(4.03218e-31 5.59841e-14 5.59841e-14)
(-6.61051e-32 -5.96411e-14 0)
(1.33837e-30 2.17578e-14 2.17578e-14)
(6.33641e-31 1.16093e-14 0)
(-2.52939e-27 6.22505e-13 6.22505e-13)
(-2.90384e-28 -5.29216e-13 0)
(-9.48599e-31 7.5084e-15 7.5084e-15)
(4.30369e-30 -6.28465e-14 -0)
(9.92687e-31 -2.48329e-14 -2.48329e-14)
(2.6249e-30 -2.87816e-14 -0)
(1.50808e-30 -6.49782e-14 -6.49782e-14)
(-1.78139e-30 -1.08094e-13 0)
(3.03855e-30 -1.14793e-13 -1.14793e-13)
(-7.47843e-30 -9.32422e-14 0)
(-6.86718e-30 -7.3999e-14 -7.3999e-14)
(1.09073e-31 1.54867e-14 0)
(1.50925e-30 -2.43167e-14 -2.43167e-14)
(1.9301e-30 -9.26127e-14 -0)
(-6.23727e-30 -1.22517e-13 -1.22517e-13)
(-1.36855e-29 -1.13925e-13 0)
(-1.15358e-29 -1.08874e-13 -1.08874e-13)
(-2.17792e-31 -1.747e-15 0)
(-2.4596e-30 -1.99278e-14 -1.99278e-14)
(9.32629e-31 1.7632e-14 0)
(-3.91477e-29 5.61354e-13 5.61354e-13)
(2.37516e-29 -6.03079e-14 -0)
(-4.74144e-31 5.41261e-14 5.41261e-14)
(-3.64821e-30 2.99162e-14 -0)
(6.02341e-31 -1.63364e-14 -1.63364e-14)
(-3.00166e-30 -7.2475e-14 0)
(-1.95839e-30 -1.34341e-14 -1.34341e-14)
(9.6686e-30 5.50111e-14 0)
(6.24021e-30 4.52952e-14 4.52952e-14)
(-3.22134e-31 5.24301e-14 -0)
(-1.07568e-29 9.31465e-14 9.31465e-14)
(1.93629e-30 -1.55579e-14 -0)
(-3.07362e-30 -7.66557e-14 -7.66557e-14)
(4.63923e-32 4.63931e-16 0)
(4.86986e-31 1.37345e-14 1.37345e-14)
(-1.90583e-31 5.10313e-15 -0)
(1.07593e-31 -6.90845e-15 -6.90845e-15)
(-1.93571e-30 -6.099e-14 0)
(8.86944e-32 1.69833e-15 1.69833e-15)
(9.88272e-32 6.69794e-15 0)
(-1.20648e-27 -3.2071e-13 -3.2071e-13)
(-2.57478e-28 3.11771e-13 -0)
(-4.49941e-30 -4.40717e-14 -4.40717e-14)
(-3.02579e-31 2.65214e-15 -0)
(-2.14929e-30 -2.84404e-14 -2.84404e-14)
(1.798e-29 1.05569e-13 0)
(6.64423e-30 6.38345e-14 6.38345e-14)
(3.97772e-30 5.37008e-14 0)
(1.33777e-29 1.22532e-13 1.22532e-13)
(-8.8537e-30 1.32062e-13 -0)
(-7.20122e-30 5.65948e-14 5.65948e-14)
(-3.384e-30 3.72321e-14 -0)
(1.57313e-30 3.69811e-14 3.69811e-14)
(7.2995e-30 8.96738e-14 0)
(-5.16457e-30 1.2582e-13 1.2582e-13)
(-4.50731e-30 4.86767e-14 -0)
(1.12301e-30 7.86038e-14 7.86038e-14)
(-4.40335e-30 6.72438e-14 -0)
(-2.7092e-30 2.3345e-14 2.3345e-14)
(-3.54442e-31 1.27117e-14 -0)
(-5.66051e-28 2.23159e-13 2.23159e-13)
(-1.15077e-28 -3.77361e-13 0)
(-1.42111e-30 1.20245e-14 1.20245e-14)
(1.04921e-29 -1.21516e-13 -0)
(-1.33253e-30 -1.04282e-13 -1.04282e-13)
(-1.76154e-29 -1.22902e-13 0)
(-1.62628e-29 -1.03195e-13 -1.03195e-13)
(-3.94501e-30 -4.33128e-14 0)
(-2.0233e-30 -4.16153e-14 -4.16153e-14)
(1.70692e-30 -4.89565e-14 -0)
(4.79135e-31 -1.22314e-13 -1.22314e-13)
(-7.00514e-30 -6.7308e-14 0)
(3.32273e-30 2.61506e-14 2.61506e-14)
(4.29796e-30 3.78272e-14 0)
(3.00442e-31 1.51434e-14 1.51434e-14)
(-1.47535e-31 3.90165e-15 -0)
(-5.34253e-31 2.78594e-14 2.78594e-14)
(-8.62305e-32 1.90113e-15 -0)
(2.10525e-31 -5.51284e-15 -5.51284e-15)
(-2.77663e-32 -2.8417e-15 0)
(-3.15259e-29 -2.10262e-13 -2.10262e-13)
(1.11848e-29 2.02165e-13 0)
(-7.4682e-31 -2.9125e-14 -2.9125e-14)
(2.72721e-30 3.61103e-14 0)
(-2.73929e-30 4.25284e-14 4.25284e-14)
(-4.15283e-30 5.27615e-14 -0)
(5.06961e-31 -1.01545e-14 -1.01545e-14)
(-1.97944e-30 -8.66828e-14 0)
(-1.5784e-31 -4.2068e-14 -4.2068e-14)
(-1.71005e-30 1.73459e-14 -0)
(3.61404e-31 -2.12957e-15 -2.12957e-15)
(7.64228e-30 -9.88785e-14 -0)
(-6.94713e-32 -1.17222e-14 -1.17222e-14)
(-2.34735e-30 -5.87827e-14 0)
(2.15409e-31 4.17033e-15 4.17033e-15)
(-6.67285e-32 3.76868e-14 -0)
(1.62795e-30 -3.00555e-14 -3.00555e-14)
(-2.45995e-31 -8.86983e-15 0)
(-8.11187e-31 -2.34899e-14 -2.34899e-14)
(2.06185e-31 -2.44935e-14 -0)
(-2.6644e-27 -8.53758e-13 -8.53758e-13)
(-1.01439e-28 3.68513e-13 -0)
(-3.30887e-29 -1.32987e-13 -1.32987e-13)
(1.39218e-29 5.76574e-14 0)
(1.64442e-29 7.67208e-14 7.67208e-14)
(1.34939e-30 8.25293e-14 0)
(-7.56134e-30 1.09818e-13 1.09818e-13)
(4.27219e-32 1.7993e-14 0)
(1.9833e-30 8.90672e-14 8.90672e-14)
(-5.4745e-30 7.28519e-14 -0)
(-2.01198e-29 1.22569e-13 1.22569e-13)
(-6.16926e-30 2.8478e-14 -0)
(-4.52454e-30 2.54359e-14 2.54359e-14)
(3.0356e-30 -1.51825e-14 -0)
(2.16103e-30 -8.294e-14 -8.294e-14)
(-3.03134e-30 -3.47001e-14 0)
(1.53833e-31 3.08314e-15 3.08314e-15)
(-2.99458e-30 -5.29761e-14 0)
(3.01657e-31 8.03245e-15 8.03245e-15)
(-3.27388e-32 1.37572e-15 -0)
(6.28391e-29 1.02886e-13 1.02886e-13)
(2.5399e-29 -8.93168e-14 -0)
(-5.17073e-30 -3.4777e-14 -3.4777e-14)
(-2.9943e-30 -4.72288e-14 0)
(8.58405e-32 1.08839e-15 1.08839e-15)
(-1.39405e-30 -2.65452e-14 0)
(-1.20755e-30 -1.64806e-14 -1.64806e-14)
(-4.04465e-30 7.52791e-14 -0)
(-4.18192e-30 3.04319e-14 3.04319e-14)
(3.91188e-30 -4.49658e-14 -0)
(-2.79275e-30 -6.78048e-14 -6.78048e-14)
(5.96072e-31 1.21771e-14 0)
(2.32625e-30 -2.88676e-14 -2.88676e-14)
(1.26152e-30 -6.16958e-15 -0)
(1.63566e-30 -8.66e-14 -8.66e-14)
(-7.2762e-30 -6.09274e-14 0)
(5.62936e-31 1.16584e-14 1.16584e-14)
(1.70166e-32 5.99164e-15 0)
(-2.9169e-32 2.50795e-15 2.50795e-15)
(6.78127e-31 -3.04921e-14 -0)
(-8.10469e-28 1.25727e-12 1.25727e-12)
(4.39731e-29 -8.08325e-14 -0)
(-1.92563e-29 1.79381e-13 1.79381e-13)
(-1.89175e-29 1.11671e-13 -0)
(-9.12446e-30 6.52429e-14 6.52429e-14)
(-7.44818e-32 8.57904e-15 -0)
(3.16284e-30 6.96563e-14 6.96563e-14)
(-1.68594e-29 1.03341e-13 -0)
(1.87191e-30 -1.07057e-14 -1.07057e-14)
(-3.49338e-31 6.22858e-15 -0)
(-1.38094e-31 -4.07197e-15 -4.07197e-15)
(-1.53476e-30 9.98765e-14 -0)
(-5.57534e-30 3.67525e-14 3.67525e-14)
(1.60224e-30 -1.4326e-14 -0)
(1.79537e-31 -2.12733e-14 -2.12733e-14)
(-7.64943e-31 -7.58185e-15 0)
(-9.88718e-31 -1.4674e-14 -1.4674e-14)
(-1.65828e-30 7.08081e-14 -0)
(-2.83061e-30 2.87078e-14 2.87078e-14)
(5.44547e-31 -1.38047e-14 -0)
(-2.883e-28 -7.84514e-13 -7.84514e-13)
(-4.70808e-29 1.22986e-13 -0)
(8.20523e-30 -1.66691e-13 -1.66691e-13)
(3.98024e-30 -5.59359e-14 -0)
(2.85651e-30 -8.93597e-14 -8.93597e-14)
(-5.50641e-31 -5.92855e-14 0)
(-1.37907e-30 -7.34051e-14 -7.34051e-14)
(5.70002e-30 -8.16468e-14 -0)
(-1.53321e-30 -6.93632e-14 -6.93632e-14)
(-4.41078e-30 -5.39756e-14 0)
(3.74988e-31 1.89786e-14 1.89786e-14)
(1.2697e-30 -1.1749e-14 -0)
(4.78723e-30 -3.57785e-14 -3.57785e-14)
(2.14732e-31 -1.00653e-14 -0)
(-1.70572e-30 5.14557e-14 5.14557e-14)
(2.96402e-31 4.77309e-14 0)
(8.74046e-32 2.76222e-15 2.76222e-15)
(-1.73636e-31 8.10915e-15 -0)
(1.36761e-30 -2.76573e-14 -2.76573e-14)
(1.03825e-31 -6.53388e-15 -0)
)
;

boundaryField
{
    movingWall
    {
        type            calculated;
        value           nonuniform List<vector> 
20
(
(0 -2.57418e-12 -0)
(0 1.30489e-13 -0)
(0 -5.19664e-13 -0)
(0 -2.2377e-13 -0)
(0 -2.74498e-13 -0)
(0 -2.2712e-13 -0)
(0 -2.58543e-13 -0)
(0 -2.66785e-13 -0)
(0 -1.4838e-13 -0)
(0 -1.77401e-13 -0)
(0 -1.58657e-13 -0)
(0 -2.51097e-13 -0)
(0 -9.74913e-14 -0)
(0 -1.00653e-14 -0)
(0 -2.75438e-15 -0)
(0 8.23386e-14 -0)
(0 2.76222e-15 -0)
(0 8.10915e-15 -0)
(0 -4.49611e-14 -0)
(0 -6.53388e-15 -0)
)
;
    }
    fixedWalls
    {
        type            calculated;
        value           nonuniform List<vector> 
60
(
(0 6.48512e-13 -0)
(0 -8.64635e-14 -0)
(0 5.65001e-13 -0)
(0 9.04037e-13 -0)
(0 -1.27613e-12 -0)
(0 -2.58516e-13 -0)
(0 -2.77681e-13 -0)
(0 -1.03891e-12 -0)
(0 1.97357e-12 -0)
(0 -7.30952e-13 -0)
(0 -3.12008e-12 -0)
(0 1.89635e-12 -0)
(0 5.42891e-13 -0)
(0 -1.53187e-12 -0)
(0 1.01462e-12 -0)
(0 -2.4971e-13 -0)
(0 -1.81752e-12 -0)
(0 -1.08782e-13 -0)
(0 1.39626e-12 -0)
(0 -9.33042e-13 -0)
(0 -2.45612e-15 -0)
(0 -6.70765e-14 -0)
(0 -1.24041e-14 -0)
(0 -1.59585e-14 -0)
(0 2.03332e-16 -0)
(0 -4.0673e-15 -0)
(0 -2.08609e-14 -0)
(0 -1.22595e-14 -0)
(0 -1.19995e-14 -0)
(0 3.96551e-14 -0)
(0 2.18323e-14 -0)
(0 2.11577e-14 -0)
(0 5.90194e-15 -0)
(0 1.59518e-14 -0)
(0 3.9084e-15 -0)
(0 -3.04722e-14 -0)
(0 -9.51903e-15 -0)
(0 -3.60008e-14 -0)
(0 -1.57786e-14 -0)
(0 -6.35607e-15 -0)
(0 1.10534e-12 -0)
(0 1.77036e-13 -0)
(0 4.81393e-13 -0)
(0 4.19048e-13 -0)
(0 3.60922e-13 -0)
(0 2.75616e-13 -0)
(0 2.82983e-13 -0)
(0 1.88493e-13 -0)
(0 1.30755e-13 -0)
(0 1.69891e-13 -0)
(0 1.29164e-13 -0)
(0 1.3104e-13 -0)
(0 1.68096e-13 -0)
(0 1.71874e-13 -0)
(0 4.63971e-14 -0)
(0 6.74448e-15 -0)
(0 8.03339e-15 -0)
(0 -7.68849e-14 -0)
(0 -7.77249e-14 -0)
(0 3.18093e-14 -0)
)
;
    }
    frontAndBack
    {
        type            empty;
    }
}


// ************************************************************************* //
