/*--------------------------------*- C++ -*----------------------------------*\
| =========                 |                                                 |
| \\      /  F ield         | OpenFOAM: The Open Source CFD Toolbox           |
|  \\    /   O peration     | Version:  2312                                  |
|   \\  /    A nd           | Website:  www.openfoam.com                      |
|    \\/     M anipulation  |                                                 |
\*---------------------------------------------------------------------------*/
FoamFile
{
    version     2.0;
    format      ascii;
    arch        "LSB;label=32;scalar=64";
    class       volScalarField;
    location    "7.625";
    object      Uy;
}
// * * * * * * * * * * * * * * * * * * * * * * * * * * * * * * * * * * * * * //

dimensions      [0 1 -1 0 0 0 0];

internalField   nonuniform List<scalar> 
400
(
-2.29891e-15
1.01544e-15
-7.24601e-17
1.98309e-16
1.77949e-16
1.418e-16
8.6329e-17
-2.34987e-17
-2.22479e-17
1.21659e-18
5.5196e-17
4.18476e-17
7.70655e-17
1.37242e-16
1.34681e-16
1.1736e-16
6.72361e-17
3.70261e-17
-5.20934e-17
-7.39029e-17
-1.90417e-16
3.74993e-16
-7.58368e-17
-2.86635e-17
5.9525e-17
1.36789e-16
1.4384e-16
8.85972e-17
3.2429e-17
-1.10525e-17
-1.01061e-18
1.98335e-17
4.75038e-17
1.02413e-16
6.95722e-17
5.65427e-17
4.67112e-17
-3.90046e-17
-1.27717e-16
-9.99286e-17
-1.25013e-16
1.08105e-16
2.58706e-16
3.07148e-16
3.28469e-16
1.90569e-16
2.62907e-17
-9.74904e-17
-1.71485e-16
-1.32605e-16
-1.07986e-16
-7.96355e-18
5.60545e-17
-2.47281e-17
-8.68585e-17
-3.71897e-17
-9.67333e-18
-1.49028e-16
-1.35217e-16
-3.10102e-17
-1.78575e-15
5.94641e-16
1.07217e-16
2.56256e-16
1.43441e-16
2.50175e-17
-2.08326e-17
-7.59205e-17
-1.16605e-16
-1.42401e-16
-1.11126e-16
-5.0674e-17
8.86504e-17
5.22113e-17
3.54323e-17
1.78513e-17
-6.22052e-17
-1.41664e-16
-1.07461e-16
-3.98963e-17
2.03835e-15
1.53996e-16
1.2735e-16
-1.05103e-16
-1.3387e-16
-5.82222e-17
1.40813e-19
7.3023e-17
4.23253e-17
2.41798e-17
8.15897e-17
8.67854e-17
6.91827e-17
4.23473e-17
4.49919e-17
-5.82063e-18
-1.01686e-16
-7.80815e-17
-7.47395e-17
-6.72543e-17
1.0419e-16
5.21859e-16
3.59084e-17
2.78522e-17
-1.14598e-17
-6.24462e-17
-9.69915e-17
-8.62876e-17
-1.02334e-16
1.29348e-17
1.08158e-16
1.49698e-16
7.63979e-17
2.45194e-17
1.76632e-17
1.14314e-17
-4.52068e-17
-1.57878e-17
-1.862e-17
-1.01683e-17
4.90914e-16
1.04104e-16
-1.03726e-16
-1.021e-16
-2.8997e-16
-2.69641e-16
-9.55606e-17
-2.47706e-18
1.60605e-17
3.65256e-17
1.11587e-17
-3.82505e-18
9.60766e-17
1.32703e-16
1.39307e-16
5.78916e-17
1.12316e-16
1.18409e-16
2.898e-17
1.56105e-17
1.71636e-15
-2.25218e-16
2.13409e-16
5.3012e-17
-6.26434e-17
-5.10473e-17
-8.16301e-17
-1.48567e-16
-1.00516e-16
8.93172e-17
1.75007e-16
1.31086e-16
1.07076e-16
8.01015e-17
1.27701e-16
1.74645e-16
2.58805e-16
1.39077e-16
-5.50573e-18
-3.06489e-17
-1.95237e-15
-1.79086e-16
-5.35341e-17
-2.17943e-16
-3.34918e-17
-3.22074e-18
-1.27646e-16
-1.56807e-16
-9.42745e-17
-6.69768e-17
4.65139e-18
1.14596e-16
-1.35699e-18
-6.4018e-17
2.7039e-18
1.83672e-16
8.87469e-17
-1.07885e-17
-7.75154e-17
-2.99988e-17
2.43724e-15
-5.5967e-16
-8.12655e-17
-2.01435e-16
-5.28141e-17
2.26899e-17
1.47832e-17
3.87968e-17
3.6514e-17
-1.09334e-16
-9.32892e-17
1.18563e-16
1.44492e-16
1.04255e-16
6.23092e-17
3.53858e-17
-9.83628e-17
-7.25838e-17
-1.70891e-17
3.1375e-17
5.08971e-15
-4.89623e-16
1.30882e-16
4.43133e-17
-8.89206e-18
-6.47935e-17
-8.99576e-17
-9.38857e-17
-8.46355e-17
5.95626e-17
1.40915e-16
1.68409e-16
9.96093e-17
1.12728e-16
6.70497e-17
1.88484e-17
7.20236e-18
1.10838e-18
6.15119e-17
5.45806e-17
-4.06325e-15
5.48706e-16
-1.26338e-16
-6.84794e-17
-3.99747e-17
-9.12007e-17
-2.32091e-17
1.648e-17
-2.64699e-17
8.02043e-17
9.2801e-17
7.043e-18
-6.20664e-17
-2.08406e-17
5.09094e-17
1.20127e-16
1.05955e-16
1.24666e-16
1.23425e-16
5.28942e-17
-6.9738e-17
-3.93838e-16
-8.75999e-18
-1.21948e-16
-3.68711e-17
4.14165e-17
1.45778e-16
1.75757e-16
1.37768e-16
-6.14406e-18
-1.15482e-16
-1.24457e-16
4.00965e-17
9.99985e-17
3.54572e-17
-3.73463e-17
-1.55741e-17
3.17381e-17
5.22245e-17
1.47549e-17
3.7619e-15
-8.25856e-16
1.02093e-16
-1.14089e-16
7.55716e-17
1.70315e-16
1.04085e-16
7.40719e-17
1.09178e-16
-6.70419e-17
-1.27242e-16
-9.08893e-17
4.25387e-17
8.14006e-17
-4.10473e-17
-9.25969e-17
1.42869e-17
-6.54833e-17
-1.1605e-16
-2.78831e-17
-2.53654e-15
3.04952e-16
-1.18184e-16
-8.63432e-17
1.27781e-17
1.4333e-16
1.57592e-16
9.10817e-17
4.8619e-17
-3.48661e-17
-3.91724e-18
1.04076e-16
1.27061e-16
1.13621e-16
1.98398e-17
-3.78136e-17
-1.91767e-17
-4.53574e-17
-3.81881e-17
9.77101e-18
1.49937e-16
5.5325e-17
2.56419e-17
7.55244e-17
-6.44108e-17
-7.87095e-17
-4.99248e-17
2.28354e-17
3.75202e-18
-9.85854e-17
-1.69707e-16
-7.72896e-17
5.92646e-18
3.99327e-17
5.16527e-17
-1.77061e-18
-5.41649e-17
2.77338e-17
3.45335e-17
-8.41794e-18
3.12079e-15
-2.75266e-16
2.48811e-16
2.41457e-16
2.14338e-16
1.63504e-17
-6.88534e-17
2.37437e-18
2.22674e-17
-7.51455e-17
-1.64151e-16
-2.16632e-16
-1.7788e-16
-1.99941e-16
-2.60554e-17
8.73583e-17
4.98948e-17
5.65269e-17
3.75548e-17
-2.37976e-17
6.10767e-16
-2.8437e-16
1.48683e-16
6.33999e-17
7.88692e-17
5.25159e-17
7.32711e-17
-5.37287e-17
-1.37419e-16
-8.69969e-17
4.11881e-17
4.89501e-17
-8.05833e-17
-2.04475e-16
-1.88875e-17
1.19424e-16
4.82859e-17
2.84005e-18
-1.16306e-17
-2.22395e-17
-6.44624e-16
-5.44002e-16
-1.07349e-16
-1.69404e-16
-1.39854e-16
-8.68183e-18
4.54064e-17
-1.63143e-16
-1.74851e-16
-5.60863e-17
3.39134e-17
-1.53666e-17
-1.517e-16
-1.11841e-16
-8.43955e-18
1.00891e-16
6.7379e-17
-2.34194e-17
-9.86009e-17
-3.94464e-17
3.67488e-16
-3.82813e-16
-4.92243e-17
-7.11572e-17
-3.19664e-17
9.28796e-18
1.87872e-17
-6.98131e-17
2.2104e-17
8.17181e-17
1.97584e-17
-1.08068e-16
-1.33802e-16
-2.1334e-17
-3.31492e-17
6.20985e-18
3.16429e-17
-2.14123e-17
-4.94486e-17
-1.58902e-17
)
;

boundaryField
{
    movingWall
    {
        type            calculated;
        value           uniform -0;
    }
    fixedWalls
    {
        type            calculated;
        value           uniform -0;
    }
    frontAndBack
    {
        type            empty;
    }
}


// ************************************************************************* //
