/*--------------------------------*- C++ -*----------------------------------*\
| =========                 |                                                 |
| \\      /  F ield         | OpenFOAM: The Open Source CFD Toolbox           |
|  \\    /   O peration     | Version:  2312                                  |
|   \\  /    A nd           | Website:  www.openfoam.com                      |
|    \\/     M anipulation  |                                                 |
\*---------------------------------------------------------------------------*/
FoamFile
{
    version     2.0;
    format      ascii;
    arch        "LSB;label=32;scalar=64";
    class       volScalarField;
    location    "8.25";
    object      divPhi;
}
// * * * * * * * * * * * * * * * * * * * * * * * * * * * * * * * * * * * * * //

dimensions      [0 0 -1 0 0 0 0];

internalField   nonuniform List<scalar> 
400
(
-3.25261e-13
9.46963e-15
-4.77165e-16
-6.59855e-15
6.23558e-16
-1.87809e-14
1.53302e-14
-1.9937e-16
-1.11923e-14
6.78954e-15
-8.89813e-15
-1.86342e-15
1.61007e-14
-1.60151e-14
2.02382e-14
-1.11814e-14
-3.70847e-16
5.80171e-15
-3.64906e-15
0
2.71051e-14
-5.68009e-16
-7.9897e-15
-2.49986e-14
2.51186e-14
2.29218e-14
1.9316e-15
4.43488e-17
-1.91083e-14
-9.83264e-15
2.69732e-14
-1.86617e-14
-1.42954e-14
2.63791e-14
1.55636e-14
-5.05202e-15
-1.28748e-14
-1.58897e-15
2.20292e-16
0
0
1.36061e-14
-3.5731e-14
2.08205e-14
-6.21291e-15
-1.25722e-14
-7.34688e-15
1.98728e-14
4.75691e-15
-1.23793e-14
4.38573e-15
-1.81529e-14
-8.36995e-16
-3.44091e-15
2.892e-15
-7.77508e-15
-1.36717e-14
-2.84412e-14
2.13587e-14
-2.71051e-14
0
-9.69428e-15
-1.40387e-14
-4.75217e-15
-1.8543e-14
-2.23069e-15
-1.83107e-14
-6.5062e-15
-2.15641e-15
-5.57833e-15
2.20936e-14
-1.2139e-14
6.73794e-15
9.20479e-15
8.00486e-15
-1.98947e-14
6.72459e-15
6.28117e-15
-7.21858e-15
2.71051e-14
-2.71051e-14
-2.70084e-14
2.74056e-14
-7.78686e-15
1.81257e-14
1.11664e-14
-4.74428e-17
2.03408e-14
-1.9357e-14
-1.298e-14
8.76116e-15
-2.2697e-14
1.8209e-15
1.35833e-14
1.11936e-14
-1.12383e-14
3.38268e-14
2.81617e-14
-3.55769e-14
0
2.71051e-14
-6.9589e-15
-2.1819e-15
-2.32611e-14
-1.24347e-15
1.30049e-14
4.30382e-15
-1.74356e-14
6.34317e-15
-1.888e-14
3.34006e-14
-1.64008e-15
-2.32162e-14
-1.21652e-14
3.0716e-14
-1.27806e-14
-7.26489e-15
4.67609e-15
-1.65247e-14
2.71051e-14
0
4.40797e-15
-6.76192e-15
1.87921e-14
-1.08504e-14
1.43935e-14
-7.38222e-15
2.72903e-14
-7.52902e-15
1.98632e-14
3.46368e-15
-5.86358e-15
-2.74061e-15
-1.85683e-14
2.68247e-14
7.81011e-15
-1.78015e-14
-7.80602e-15
6.46162e-15
-2.71051e-14
0
-2.91822e-14
-5.71428e-15
-3.50627e-15
6.16532e-15
-8.54738e-15
-2.84982e-14
-5.83345e-15
5.1507e-15
-1.04445e-14
1.693e-14
3.64178e-15
-9.07125e-16
-2.25151e-14
4.71249e-16
-6.22405e-16
3.67617e-14
-5.98068e-15
3.05326e-14
0
0
-6.8743e-15
1.60831e-14
-2.54521e-14
2.65532e-14
1.82231e-15
-2.03321e-14
2.51889e-14
3.71971e-15
-3.80265e-15
-3.33678e-14
2.91066e-14
-1.69896e-15
-1.178e-14
3.72838e-15
-2.26003e-15
3.27004e-14
-6.34782e-16
-1.23784e-14
0
2.71051e-14
-1.72949e-14
-9.62426e-16
-5.84194e-15
4.00349e-15
7.90153e-15
1.30518e-14
-5.36848e-15
1.96006e-14
8.03948e-15
-1.51258e-14
1.14604e-14
1.69121e-15
-1.53368e-14
6.82134e-15
4.63151e-15
1.01183e-16
2.61248e-14
-4.11934e-14
0
-2.71051e-14
2.03344e-14
-5.56083e-15
-1.45324e-14
1.84382e-14
3.07116e-14
1.47533e-14
-1.94311e-14
-2.01732e-14
2.80312e-14
2.75979e-14
-1.14634e-14
1.3195e-14
4.57314e-14
-1.11035e-14
1.00377e-14
-1.3925e-14
-5.06954e-15
3.99569e-14
-2.71051e-14
0
-1.51624e-14
-1.65701e-14
4.40071e-14
-2.67761e-14
1.47398e-15
9.65213e-16
-6.60281e-15
2.1605e-14
3.65435e-15
-1.00437e-17
-1.28638e-14
8.51263e-15
8.52706e-15
-1.94577e-14
2.18295e-14
2.56901e-14
-1.83322e-14
1.08934e-14
2.71051e-14
0
2.09647e-14
2.32549e-14
-3.02656e-14
2.58219e-14
1.34848e-14
-1.626e-14
-6.31041e-15
-1.0798e-14
1.53047e-14
4.51987e-15
-2.9888e-14
9.01015e-15
1.61858e-14
-1.30233e-14
1.09422e-14
5.41733e-15
-6.96977e-15
5.56338e-15
0
-2.71051e-14
1.36254e-14
-3.55201e-14
2.27331e-14
-2.91829e-14
2.56382e-14
3.21498e-14
-9.13086e-15
5.26937e-15
-3.73464e-14
-5.76092e-15
2.93704e-15
-1.6072e-15
-2.27139e-14
9.3425e-15
1.96481e-14
9.99008e-15
-5.16225e-15
-7.91292e-15
0
0
-8.56233e-15
1.08194e-14
-8.37131e-15
-1.71127e-14
1.55091e-14
8.62463e-15
-1.54698e-15
1.03256e-14
5.73671e-15
-1.50454e-14
-1.85479e-15
-6.3694e-16
3.91598e-15
-1.12845e-14
-1.60385e-14
3.50783e-14
-2.8084e-14
1.87157e-14
0
0
3.55774e-16
-1.31428e-15
-4.54511e-15
3.91717e-14
-5.20887e-15
7.30673e-15
4.73241e-15
7.80892e-15
4.84145e-15
3.62054e-15
1.78802e-14
1.17036e-15
-1.40998e-14
1.8702e-15
3.869e-14
-7.2486e-15
2.99924e-15
2.26164e-15
-2.71051e-14
0
1.49121e-14
-5.96989e-15
3.30573e-15
2.02904e-14
-2.64091e-14
1.96768e-14
-1.39097e-15
-5.91854e-15
-4.10463e-15
1.18443e-14
-1.36614e-17
9.31063e-15
3.45047e-15
1.68381e-14
1.28032e-14
-1.21048e-14
-1.75984e-14
6.31034e-15
2.71051e-14
2.71051e-14
-9.01989e-15
-6.80495e-15
-1.82838e-16
1.91657e-15
3.06777e-15
-1.56446e-14
1.15381e-14
-1.13134e-14
1.6342e-14
-1.27465e-14
2.45073e-14
1.58047e-16
-1.03355e-15
6.58704e-15
9.37985e-15
-1.81755e-14
7.5871e-15
1.22004e-14
0
0
-8.81895e-15
-6.92294e-15
-1.0446e-14
-1.68868e-15
1.25274e-14
2.7002e-14
-1.53575e-14
6.90437e-15
1.67234e-15
-2.15538e-14
2.43819e-15
-2.00706e-14
-5.72409e-15
1.36662e-14
1.22027e-14
-9.56806e-15
1.35781e-14
3.74388e-15
0
-2.71051e-14
0
0
-2.71051e-14
-2.71051e-14
2.71051e-14
0
2.71051e-14
0
0
0
0
0
0
-2.71051e-14
2.71051e-14
0
0
0
0
)
;

boundaryField
{
    movingWall
    {
        type            extrapolatedCalculated;
        value           nonuniform List<scalar> 
20
(
-2.71051e-14
0
0
-2.71051e-14
-2.71051e-14
2.71051e-14
0
2.71051e-14
0
0
0
0
0
0
-2.71051e-14
2.71051e-14
0
0
0
0
)
;
    }
    fixedWalls
    {
        type            extrapolatedCalculated;
        value           nonuniform List<scalar> 
60
(
-3.25261e-13
2.71051e-14
0
0
-2.71051e-14
2.71051e-14
0
0
0
2.71051e-14
-2.71051e-14
0
0
-2.71051e-14
0
0
0
2.71051e-14
0
-2.71051e-14
0
0
-2.71051e-14
2.71051e-14
0
2.71051e-14
-2.71051e-14
0
0
0
-2.71051e-14
2.71051e-14
0
0
0
-2.71051e-14
2.71051e-14
0
0
0
-3.25261e-13
9.46963e-15
-4.77165e-16
-6.59855e-15
6.23558e-16
-1.87809e-14
1.53302e-14
-1.9937e-16
-1.11923e-14
6.78954e-15
-8.89813e-15
-1.86342e-15
1.61007e-14
-1.60151e-14
2.02382e-14
-1.11814e-14
-3.70847e-16
5.80171e-15
-3.64906e-15
0
)
;
    }
    frontAndBack
    {
        type            empty;
    }
}


// ************************************************************************* //
