/*--------------------------------*- C++ -*----------------------------------*\
| =========                 |                                                 |
| \\      /  F ield         | OpenFOAM: The Open Source CFD Toolbox           |
|  \\    /   O peration     | Version:  2312                                  |
|   \\  /    A nd           | Website:  www.openfoam.com                      |
|    \\/     M anipulation  |                                                 |
\*---------------------------------------------------------------------------*/
FoamFile
{
    version     2.0;
    format      ascii;
    arch        "LSB;label=32;scalar=64";
    class       volScalarField;
    location    "8.25";
    object      divU;
}
// * * * * * * * * * * * * * * * * * * * * * * * * * * * * * * * * * * * * * //

dimensions      [0 0 -1 0 0 0 0];

internalField   nonuniform List<scalar> 
400
(
7.04731e-12
-1.25738e-12
2.57348e-13
-8.34227e-14
1.84439e-14
-1.8673e-14
1.41381e-14
2.56458e-14
-1.44098e-14
-1.63751e-14
1.62204e-14
-2.8562e-14
1.40056e-14
2.70873e-14
2.10082e-15
-5.45873e-15
-1.28391e-14
4.6412e-16
-3.27831e-15
0
-9.6765e-12
1.76565e-12
-3.4803e-13
7.81671e-14
-1.27896e-14
1.42502e-14
-9.10303e-15
3.32174e-15
1.41011e-14
8.55509e-15
-3.09623e-14
9.38361e-15
-1.46472e-14
-7.32523e-15
8.4039e-15
-1.62659e-14
-8.43962e-15
4.14655e-14
-1.77395e-14
0
-1.57209e-12
-3.70366e-13
5.60787e-14
-6.95062e-14
-1.01353e-14
-2.76293e-16
7.35196e-15
1.41236e-14
3.42486e-14
2.31666e-16
1.83396e-14
-2.78864e-14
-7.77244e-15
-9.44191e-15
8.9825e-15
6.01214e-14
-4.09282e-14
-8.35737e-14
8.91866e-15
2.71051e-14
6.36969e-12
-1.19055e-13
3.66987e-14
2.49775e-15
3.63757e-14
-3.09617e-14
-1.6465e-14
-2.2699e-14
1.51327e-14
1.31274e-14
-7.17673e-14
2.6191e-14
-1.04286e-14
3.93849e-14
5.16373e-15
-5.0778e-14
8.42591e-15
7.92074e-14
1.90157e-14
-2.71051e-14
-2.30393e-12
-3.84035e-13
4.01388e-14
-2.29165e-14
2.75329e-14
1.04543e-14
-7.89223e-15
8.421e-15
-1.14195e-14
1.55543e-14
9.96705e-15
2.1314e-14
-3.23684e-14
-1.43952e-14
3.37862e-14
-4.42266e-14
8.16306e-15
-4.46795e-15
2.62199e-14
0
-2.1413e-12
1.10014e-12
-1.86769e-13
8.91229e-14
-1.28535e-14
-4.08951e-14
3.80686e-14
4.09614e-14
-3.34701e-14
-5.00614e-14
4.27438e-14
1.18466e-14
1.42576e-14
-3.21075e-14
6.62262e-14
1.92187e-14
-6.97599e-15
2.95379e-14
-1.97654e-14
-2.71051e-14
6.77626e-12
-2.00398e-12
3.9391e-13
-1.59265e-13
3.86964e-14
4.99678e-15
6.96367e-15
-4.95744e-14
4.12611e-14
5.57787e-14
-6.64879e-14
-1.31565e-14
-1.5039e-14
-5.74655e-14
1.58351e-14
2.58103e-15
-4.07205e-14
3.84871e-15
5.94694e-14
0
-8.37546e-12
2.44095e-12
-5.11104e-13
2.25579e-13
-1.00428e-13
2.13185e-15
1.10093e-14
2.04564e-14
-7.81992e-15
-1.64715e-14
-2.90185e-15
2.92035e-15
6.23021e-14
1.40398e-14
-8.57019e-15
3.36429e-14
-3.13443e-14
1.17984e-14
3.54338e-14
-2.71051e-14
2.52077e-12
-1.5331e-12
2.8268e-13
-1.21824e-13
7.07423e-14
2.71761e-15
-2.28417e-14
-3.6912e-15
3.36986e-14
2.81496e-14
4.91006e-15
-2.03776e-14
2.07254e-14
-7.12111e-14
-1.3565e-14
2.25238e-17
4.38492e-14
-4.54952e-16
7.10198e-15
0
2.71051e-12
5.75113e-13
-1.32646e-13
5.2181e-15
-4.40175e-14
2.78122e-15
1.97412e-14
-6.40389e-15
1.28401e-14
1.95551e-15
-2.73092e-14
1.47834e-14
1.06344e-14
4.36084e-14
1.41004e-14
-7.1485e-15
-3.14305e-14
2.45651e-14
1.61013e-14
-2.71051e-14
-2.27682e-12
6.16588e-13
-7.19105e-14
7.54524e-14
9.11618e-14
9.30692e-15
-5.67834e-14
-2.1711e-14
6.75816e-14
3.19231e-14
2.92811e-15
-4.89425e-14
6.60236e-15
1.479e-14
-4.15212e-14
1.76884e-14
-1.16076e-14
-1.00776e-15
4.7212e-14
-5.42101e-14
2.05998e-12
-1.52923e-12
2.51581e-13
-1.52127e-13
3.277e-15
-7.58545e-15
4.16862e-14
-1.93474e-17
2.23769e-14
3.13693e-14
-2.44438e-14
1.35876e-14
-1.9211e-16
1.21543e-14
1.23772e-14
-4.7723e-15
6.22693e-17
-3.938e-14
6.26211e-16
0
-4.3097e-12
1.65886e-12
-2.58882e-13
1.53867e-13
-3.99127e-14
4.80698e-14
-5.04852e-14
-5.30882e-15
-9.00728e-15
8.63372e-15
-3.08e-14
6.31393e-15
2.16514e-14
9.02968e-15
-1.65836e-14
1.02805e-14
3.27174e-16
-4.23907e-14
1.36111e-14
5.42101e-14
5.44812e-12
-1.44689e-12
2.74623e-13
-1.2545e-13
-4.02524e-16
-5.56376e-15
4.00405e-14
9.4042e-15
-2.25847e-14
3.59041e-14
-1.50391e-14
-7.58074e-15
-4.27847e-14
3.4304e-14
1.01142e-14
6.12276e-15
4.09821e-15
2.57278e-14
-7.02363e-15
-5.42101e-14
-2.84603e-12
5.35797e-13
-7.81902e-14
4.75897e-14
-5.18411e-15
2.04208e-14
5.54491e-16
5.98751e-14
-2.18274e-14
1.52875e-14
-3.22121e-14
-1.9875e-14
4.26205e-14
9.41015e-15
-1.07122e-14
3.04512e-14
2.40976e-14
-5.73387e-15
1.02907e-14
0
-3.55076e-12
8.39087e-13
-1.32053e-13
6.23612e-14
-5.81608e-14
2.04033e-14
8.45693e-15
-3.68446e-15
1.20503e-14
9.57814e-15
9.02301e-15
1.17335e-14
-5.74306e-14
1.53506e-14
-6.41866e-16
-4.25814e-14
-1.06933e-14
3.12121e-14
2.85004e-14
-2.71051e-14
9.18861e-12
-1.44899e-12
2.97196e-13
-1.21819e-13
5.79174e-14
-2.90128e-14
7.54744e-15
3.8804e-14
-9.85817e-15
-8.86861e-15
4.28671e-15
3.29363e-14
-2.27271e-14
1.7256e-14
1.84121e-14
-2.20229e-14
-4.38766e-14
1.0189e-14
4.65579e-14
0
-5.06865e-12
1.19839e-12
-2.37478e-13
4.94937e-14
-2.15594e-14
3.3692e-14
-1.15108e-14
-4.2013e-15
-4.13593e-14
-7.71195e-15
5.5883e-14
-2.55285e-14
8.64773e-15
3.74854e-14
3.44494e-14
-5.19793e-14
8.71568e-15
3.71443e-14
-3.30193e-14
0
-7.94178e-12
7.62161e-13
-1.3174e-13
6.40194e-14
-7.38456e-14
7.36185e-15
3.99234e-14
5.07014e-14
1.67604e-14
5.40486e-15
-2.78719e-14
-3.63136e-14
-2.88029e-14
1.60728e-14
4.18276e-14
-2.45916e-15
1.77386e-14
1.18198e-14
1.90486e-14
-2.71051e-14
7.5081e-12
-1.21973e-12
2.71051e-13
-1.0842e-13
5.42101e-14
0
0
0
0
-2.71051e-14
0
0
-2.71051e-14
2.71051e-14
0
-2.71051e-14
0
0
0
0
)
;

boundaryField
{
    movingWall
    {
        type            extrapolatedCalculated;
        value           nonuniform List<scalar> 
20
(
7.5081e-12
-1.21973e-12
2.71051e-13
-1.0842e-13
5.42101e-14
0
0
0
0
-2.71051e-14
0
0
-2.71051e-14
2.71051e-14
0
-2.71051e-14
0
0
0
0
)
;
    }
    fixedWalls
    {
        type            extrapolatedCalculated;
        value           nonuniform List<scalar> 
60
(
7.04731e-12
-9.6765e-12
-1.57209e-12
6.36969e-12
-2.30393e-12
-2.1413e-12
6.77626e-12
-8.37546e-12
2.52077e-12
2.71051e-12
-2.27682e-12
2.05998e-12
-4.3097e-12
5.44812e-12
-2.84603e-12
-3.55076e-12
9.18861e-12
-5.06865e-12
-7.94178e-12
7.5081e-12
0
0
2.71051e-14
-2.71051e-14
0
-2.71051e-14
0
-2.71051e-14
0
-2.71051e-14
-5.42101e-14
0
5.42101e-14
-5.42101e-14
0
-2.71051e-14
0
0
-2.71051e-14
0
7.04731e-12
-1.25738e-12
2.57348e-13
-8.34227e-14
1.84439e-14
-1.8673e-14
1.41381e-14
2.56458e-14
-1.44098e-14
-1.63751e-14
1.62204e-14
-2.8562e-14
1.40056e-14
2.70873e-14
2.10082e-15
-5.45873e-15
-1.28391e-14
4.6412e-16
-3.27831e-15
0
)
;
    }
    frontAndBack
    {
        type            empty;
    }
}


// ************************************************************************* //
