/*--------------------------------*- C++ -*----------------------------------*\
| =========                 |                                                 |
| \\      /  F ield         | OpenFOAM: The Open Source CFD Toolbox           |
|  \\    /   O peration     | Version:  2312                                  |
|   \\  /    A nd           | Website:  www.openfoam.com                      |
|    \\/     M anipulation  |                                                 |
\*---------------------------------------------------------------------------*/
FoamFile
{
    version     2.0;
    format      ascii;
    arch        "LSB;label=32;scalar=64";
    class       volScalarField;
    location    "8.25";
    object      enstrophyField;
}
// * * * * * * * * * * * * * * * * * * * * * * * * * * * * * * * * * * * * * //

dimensions      [0 0 -2 0 0 0 0];

internalField   nonuniform List<scalar> 
400
(
9.91945e-24
1.41755e-23
5.2753e-25
5.14428e-26
1.73775e-28
2.14657e-28
1.02117e-31
5.3069e-29
2.0303e-29
1.92636e-27
2.18071e-27
1.02214e-27
2.01617e-28
7.81677e-28
2.80105e-27
3.24655e-27
1.49891e-29
8.13329e-29
2.26794e-29
9.00052e-31
4.57332e-26
6.4606e-25
1.11418e-25
9.25666e-27
2.17856e-26
1.60285e-26
2.58306e-27
1.98889e-27
1.04271e-27
9.39645e-30
4.76534e-30
2.29949e-29
2.65368e-27
2.96193e-28
5.27414e-31
8.3212e-29
1.00177e-31
1.22116e-27
4.90888e-29
1.5231e-27
1.44128e-24
6.66692e-24
2.23617e-25
1.98357e-26
3.43778e-27
7.93319e-28
1.10863e-30
4.4251e-27
8.88191e-29
4.50666e-27
2.55076e-30
9.97998e-28
1.86758e-30
2.32564e-29
4.16629e-27
1.61591e-27
4.72404e-30
1.724e-27
1.55543e-32
1.88509e-28
4.08195e-25
9.00784e-26
3.84247e-26
5.27987e-27
7.06881e-27
8.76693e-27
2.1403e-27
8.67701e-28
1.50009e-27
4.31908e-28
1.40262e-27
6.35303e-28
5.61081e-29
1.66697e-27
3.20576e-28
2.03347e-28
2.45501e-27
1.07174e-32
2.48183e-27
6.88777e-28
1.95299e-24
4.88158e-24
2.82103e-25
2.48251e-26
4.87724e-28
1.51433e-30
1.89711e-28
1.81369e-28
1.00912e-27
5.44227e-30
2.41493e-27
2.1547e-27
1.65474e-27
6.15572e-28
2.49474e-29
4.73743e-28
1.17644e-27
1.38806e-28
6.37791e-30
1.66699e-29
3.65347e-24
6.05654e-24
3.1728e-25
2.20956e-26
2.28686e-30
1.13432e-27
2.31385e-28
5.00454e-28
2.31534e-30
4.35844e-28
5.49903e-28
2.71692e-28
1.39718e-29
2.57617e-29
9.40597e-30
1.33033e-29
2.41508e-29
6.02687e-28
1.58892e-27
5.53106e-28
1.81116e-24
1.91465e-24
1.20202e-25
2.01022e-27
6.24838e-27
3.57916e-27
2.90806e-27
6.45982e-27
1.20241e-26
1.27917e-26
4.51928e-27
6.14203e-27
9.09395e-28
1.21845e-29
5.89147e-28
4.51798e-28
5.67599e-30
1.85515e-27
2.20308e-30
2.74345e-28
5.0434e-25
1.92958e-24
1.05771e-25
1.14537e-27
1.50837e-30
3.13588e-29
1.10011e-29
1.89729e-30
1.00734e-29
5.62183e-30
1.39571e-27
1.33878e-29
1.59108e-29
3.99667e-28
4.45311e-27
5.31686e-27
2.20833e-30
1.11489e-28
3.45264e-29
2.44719e-28
7.1625e-24
1.11546e-23
8.01178e-25
1.28612e-26
1.89356e-26
4.75151e-27
4.49223e-27
5.21142e-27
1.12255e-26
8.97269e-27
3.84145e-27
1.30708e-28
2.51842e-27
7.49441e-28
2.14213e-29
6.7478e-28
1.89557e-27
1.44801e-27
5.10951e-29
2.08383e-28
1.0872e-23
5.90526e-24
5.23993e-25
5.12772e-27
2.8276e-27
4.80642e-28
6.66811e-27
5.45202e-27
2.68331e-27
1.29855e-27
7.22389e-29
6.23222e-32
8.33391e-28
3.45232e-29
1.38229e-28
1.83844e-27
1.92508e-27
2.54025e-27
2.0129e-28
2.87847e-28
1.01635e-23
2.37539e-24
6.98929e-26
3.67781e-26
9.68866e-27
3.78138e-27
2.1169e-27
3.07421e-27
4.77582e-27
2.5575e-27
3.26428e-31
2.45866e-27
4.35398e-27
5.10352e-28
3.90198e-27
7.25036e-27
2.37134e-27
5.64238e-30
2.8814e-28
5.64342e-28
1.94327e-24
1.88931e-24
2.25175e-26
1.79467e-26
7.44884e-28
4.08262e-29
2.37916e-27
1.95107e-27
5.1123e-29
3.50002e-28
3.57691e-28
2.82551e-29
5.34201e-28
1.30817e-28
4.92347e-29
2.3817e-27
2.66017e-28
1.40237e-27
4.8273e-27
7.59959e-29
1.267e-25
2.16456e-25
1.33268e-26
3.69404e-27
1.60666e-27
3.12423e-27
9.84117e-27
7.27992e-28
5.42296e-28
1.06598e-27
4.6868e-29
1.08762e-29
2.6351e-28
1.34371e-30
3.60456e-28
3.67805e-28
2.79463e-28
2.35508e-31
1.29127e-27
6.63608e-30
2.5035e-24
1.56916e-24
7.72479e-26
1.01236e-26
2.90448e-27
1.01738e-28
1.78863e-27
3.44409e-27
6.69957e-27
1.32538e-27
2.40219e-27
2.80444e-27
5.7232e-27
4.57456e-27
3.94821e-28
6.94985e-28
2.91182e-27
8.09622e-28
1.18216e-27
5.99055e-29
7.66465e-24
7.77679e-24
4.31009e-25
3.24331e-26
3.84413e-27
4.29263e-31
2.02108e-27
2.26821e-29
1.12722e-27
2.52369e-27
9.58457e-30
1.67165e-29
1.31415e-28
7.43554e-28
3.13335e-28
1.70361e-27
2.3676e-27
4.23929e-28
9.40987e-28
3.02317e-28
4.26681e-24
8.01477e-24
4.8312e-25
9.51634e-27
1.00759e-26
2.08894e-28
1.3122e-27
9.13852e-28
4.1857e-30
2.80239e-27
6.28314e-27
7.28242e-27
8.46128e-28
2.09892e-27
7.96934e-30
6.27802e-30
6.25438e-27
2.14482e-27
8.6828e-28
1.67023e-29
3.67949e-25
2.20487e-25
2.12693e-26
1.48745e-28
2.65676e-27
1.64879e-29
3.309e-27
2.69746e-27
2.08525e-27
1.55367e-28
2.26218e-28
2.2224e-34
2.58187e-27
8.65826e-29
1.45474e-27
9.241e-29
7.23866e-28
1.42614e-27
1.01958e-27
7.07722e-30
2.87901e-24
9.66104e-24
5.40391e-25
2.63171e-26
1.10532e-27
3.1759e-28
8.2578e-28
9.97684e-28
1.26899e-27
2.79006e-28
6.46936e-28
3.31178e-27
1.15132e-27
1.51718e-27
8.7219e-28
2.33037e-28
2.12971e-27
3.45764e-29
2.52528e-28
1.99673e-28
6.05827e-24
6.64693e-24
4.18215e-25
1.51884e-26
1.03873e-26
7.63531e-27
8.81516e-27
8.28547e-27
9.14008e-27
6.05528e-28
3.789e-28
2.04027e-28
7.67611e-28
1.58983e-27
9.22264e-30
1.70266e-27
3.3969e-29
8.6501e-30
5.62017e-28
5.0914e-28
1.82607e-24
4.91482e-24
1.47163e-25
2.18125e-26
5.5333e-28
1.13326e-27
8.23917e-28
1.31867e-27
4.04169e-27
2.55491e-27
7.28254e-29
1.85654e-28
2.52491e-27
3.61794e-29
9.1519e-30
1.88321e-27
1.0505e-29
4.0592e-30
3.04987e-29
9.26483e-30
)
;

boundaryField
{
    movingWall
    {
        type            calculated;
        value           nonuniform List<scalar> 
20
(
5.08135e-24
7.78816e-24
2.13931e-26
6.4583e-26
3.01376e-26
4.62872e-26
3.19633e-26
2.4022e-26
2.65967e-26
5.62763e-27
7.28254e-29
3.27906e-27
3.79693e-28
6.44495e-28
4.33345e-27
9.85436e-27
1.0505e-29
8.63602e-28
3.04987e-29
9.26483e-30
)
;
    }
    fixedWalls
    {
        type            calculated;
        value           nonuniform List<scalar> 
60
(
2.47111e-22
1.41568e-23
1.14294e-22
3.48767e-24
8.83167e-23
1.11893e-22
3.61061e-23
3.37931e-23
2.18848e-22
1.26015e-22
4.41734e-23
2.8465e-23
3.00699e-24
2.90591e-23
1.46427e-22
1.48464e-22
4.80779e-24
1.78531e-22
1.29421e-22
8.59171e-23
1.45286e-31
8.07956e-28
3.03826e-28
1.54553e-29
5.47808e-29
9.08898e-28
5.33063e-28
2.05498e-29
5.40954e-28
1.76711e-28
8.70367e-29
7.00559e-28
1.34928e-29
2.49651e-29
5.62651e-28
1.18673e-30
8.11581e-30
5.15173e-29
5.8486e-28
4.15171e-30
1.26082e-23
1.64827e-23
2.96842e-25
1.27966e-25
1.11291e-26
3.38178e-26
8.935e-27
4.9124e-27
4.53058e-27
3.08915e-29
6.99862e-29
3.18573e-27
1.49541e-27
2.74889e-27
2.82552e-28
1.94989e-27
1.49891e-29
8.13329e-29
2.26794e-29
9.00052e-31
)
;
    }
    frontAndBack
    {
        type            empty;
    }
}


// ************************************************************************* //
