/*--------------------------------*- C++ -*----------------------------------*\
| =========                 |                                                 |
| \\      /  F ield         | OpenFOAM: The Open Source CFD Toolbox           |
|  \\    /   O peration     | Version:  2312                                  |
|   \\  /    A nd           | Website:  www.openfoam.com                      |
|    \\/     M anipulation  |                                                 |
\*---------------------------------------------------------------------------*/
FoamFile
{
    version     2.0;
    format      ascii;
    arch        "LSB;label=32;scalar=64";
    class       volScalarField;
    location    "8.25";
    object      epsilonzeroGrad;
}
// * * * * * * * * * * * * * * * * * * * * * * * * * * * * * * * * * * * * * //

dimensions      [0 2 -3 0 0 0 0];

internalField   nonuniform List<scalar> 
400
(
1.19172e-06
1.19173e-06
1.19172e-06
1.19173e-06
1.19171e-06
1.19173e-06
1.19171e-06
1.19173e-06
1.19171e-06
1.19172e-06
1.19172e-06
1.19172e-06
1.19172e-06
1.19172e-06
1.19172e-06
1.19172e-06
1.19172e-06
1.19172e-06
1.19172e-06
1.19172e-06
1.22656e-06
1.2122e-06
1.21342e-06
1.21392e-06
1.21493e-06
1.21545e-06
1.21645e-06
1.21699e-06
1.21799e-06
1.21855e-06
1.21955e-06
1.22012e-06
1.22112e-06
1.22171e-06
1.22271e-06
1.22331e-06
1.22432e-06
1.22492e-06
1.22544e-06
1.22625e-06
1.28194e-06
1.26645e-06
1.26779e-06
1.26834e-06
1.26944e-06
1.27e-06
1.2711e-06
1.27168e-06
1.27277e-06
1.27336e-06
1.27445e-06
1.27506e-06
1.27614e-06
1.27676e-06
1.27784e-06
1.27847e-06
1.27956e-06
1.28019e-06
1.28074e-06
1.2816e-06
1.3405e-06
1.32405e-06
1.32547e-06
1.32605e-06
1.32722e-06
1.32782e-06
1.32898e-06
1.3296e-06
1.33075e-06
1.33139e-06
1.33254e-06
1.33318e-06
1.33433e-06
1.33499e-06
1.33614e-06
1.3368e-06
1.33796e-06
1.33863e-06
1.33921e-06
1.34013e-06
1.38999e-06
1.37273e-06
1.37422e-06
1.37483e-06
1.37606e-06
1.37668e-06
1.3779e-06
1.37855e-06
1.37976e-06
1.38043e-06
1.38163e-06
1.38231e-06
1.38352e-06
1.38421e-06
1.38542e-06
1.38611e-06
1.38733e-06
1.38803e-06
1.38864e-06
1.38961e-06
1.4262e-06
1.40832e-06
1.40986e-06
1.41049e-06
1.41176e-06
1.41241e-06
1.41367e-06
1.41434e-06
1.4156e-06
1.41629e-06
1.41753e-06
1.41824e-06
1.41949e-06
1.4202e-06
1.42145e-06
1.42217e-06
1.42343e-06
1.42416e-06
1.42479e-06
1.42579e-06
1.45034e-06
1.43205e-06
1.43362e-06
1.43427e-06
1.43557e-06
1.43623e-06
1.43752e-06
1.43821e-06
1.43949e-06
1.4402e-06
1.44147e-06
1.4422e-06
1.44347e-06
1.4442e-06
1.44548e-06
1.44622e-06
1.44751e-06
1.44825e-06
1.4489e-06
1.44992e-06
1.46575e-06
1.4472e-06
1.44879e-06
1.44945e-06
1.45077e-06
1.45144e-06
1.45275e-06
1.45345e-06
1.45475e-06
1.45546e-06
1.45676e-06
1.45749e-06
1.45878e-06
1.45953e-06
1.46082e-06
1.46157e-06
1.46288e-06
1.46363e-06
1.46429e-06
1.46532e-06
1.47571e-06
1.45698e-06
1.4586e-06
1.45926e-06
1.46059e-06
1.46127e-06
1.46259e-06
1.46329e-06
1.4646e-06
1.46533e-06
1.46663e-06
1.46737e-06
1.46867e-06
1.46943e-06
1.47073e-06
1.47149e-06
1.47281e-06
1.47357e-06
1.47423e-06
1.47528e-06
1.48264e-06
1.4638e-06
1.46542e-06
1.46609e-06
1.46743e-06
1.46811e-06
1.46944e-06
1.47015e-06
1.47147e-06
1.47219e-06
1.47351e-06
1.47425e-06
1.47556e-06
1.47632e-06
1.47764e-06
1.4784e-06
1.47972e-06
1.48049e-06
1.48116e-06
1.48221e-06
1.48812e-06
1.46918e-06
1.47081e-06
1.47148e-06
1.47283e-06
1.47351e-06
1.47485e-06
1.47556e-06
1.47689e-06
1.47762e-06
1.47894e-06
1.47969e-06
1.481e-06
1.48176e-06
1.48309e-06
1.48385e-06
1.48518e-06
1.48595e-06
1.48663e-06
1.48768e-06
1.49307e-06
1.47405e-06
1.47568e-06
1.47636e-06
1.47771e-06
1.4784e-06
1.47974e-06
1.48045e-06
1.48179e-06
1.48252e-06
1.48385e-06
1.4846e-06
1.48592e-06
1.48669e-06
1.48801e-06
1.48878e-06
1.49012e-06
1.49089e-06
1.49157e-06
1.49263e-06
1.49803e-06
1.47892e-06
1.48057e-06
1.48124e-06
1.4826e-06
1.48329e-06
1.48464e-06
1.48536e-06
1.4867e-06
1.48743e-06
1.48877e-06
1.48952e-06
1.49085e-06
1.49162e-06
1.49295e-06
1.49373e-06
1.49507e-06
1.49585e-06
1.49652e-06
1.49759e-06
1.50331e-06
1.48411e-06
1.48576e-06
1.48644e-06
1.4878e-06
1.4885e-06
1.48986e-06
1.49058e-06
1.49192e-06
1.49266e-06
1.494e-06
1.49476e-06
1.49609e-06
1.49686e-06
1.49821e-06
1.49898e-06
1.50033e-06
1.50111e-06
1.50179e-06
1.50286e-06
1.50903e-06
1.48974e-06
1.4914e-06
1.49208e-06
1.49345e-06
1.49415e-06
1.49551e-06
1.49623e-06
1.49758e-06
1.49833e-06
1.49967e-06
1.50044e-06
1.50178e-06
1.50255e-06
1.5039e-06
1.50468e-06
1.50604e-06
1.50682e-06
1.50751e-06
1.50858e-06
1.51515e-06
1.49575e-06
1.49742e-06
1.49811e-06
1.49949e-06
1.50019e-06
1.50156e-06
1.50229e-06
1.50364e-06
1.50439e-06
1.50575e-06
1.50651e-06
1.50786e-06
1.50864e-06
1.51e-06
1.51078e-06
1.51214e-06
1.51293e-06
1.51362e-06
1.5147e-06
1.52139e-06
1.50188e-06
1.50356e-06
1.50425e-06
1.50564e-06
1.50634e-06
1.50772e-06
1.50845e-06
1.50982e-06
1.51057e-06
1.51193e-06
1.5127e-06
1.51406e-06
1.51484e-06
1.5162e-06
1.51699e-06
1.51836e-06
1.51916e-06
1.51985e-06
1.52094e-06
1.52718e-06
1.50757e-06
1.50926e-06
1.50995e-06
1.51134e-06
1.51206e-06
1.51344e-06
1.51417e-06
1.51555e-06
1.5163e-06
1.51767e-06
1.51844e-06
1.51981e-06
1.52059e-06
1.52196e-06
1.52276e-06
1.52413e-06
1.52493e-06
1.52563e-06
1.52672e-06
1.53172e-06
1.51241e-06
1.51405e-06
1.51472e-06
1.51607e-06
1.51676e-06
1.51811e-06
1.51884e-06
1.52017e-06
1.52093e-06
1.52226e-06
1.52304e-06
1.52437e-06
1.52517e-06
1.52651e-06
1.52732e-06
1.52867e-06
1.52949e-06
1.53018e-06
1.53127e-06
1.53381e-06
1.5338e-06
1.5338e-06
1.5338e-06
1.5338e-06
1.5338e-06
1.5338e-06
1.5338e-06
1.5338e-06
1.5338e-06
1.5338e-06
1.5338e-06
1.5338e-06
1.5338e-06
1.5338e-06
1.5338e-06
1.5338e-06
1.5338e-06
1.5338e-06
1.5338e-06
)
;

boundaryField
{
    movingWall
    {
        type            zeroGradient;
    }
    fixedWalls
    {
        type            zeroGradient;
    }
    frontAndBack
    {
        type            empty;
    }
}


// ************************************************************************* //
