/*--------------------------------*- C++ -*----------------------------------*\
| =========                 |                                                 |
| \\      /  F ield         | OpenFOAM: The Open Source CFD Toolbox           |
|  \\    /   O peration     | Version:  2312                                  |
|   \\  /    A nd           | Website:  www.openfoam.com                      |
|    \\/     M anipulation  |                                                 |
\*---------------------------------------------------------------------------*/
FoamFile
{
    version     2.0;
    format      ascii;
    arch        "LSB;label=32;scalar=64";
    class       volScalarField;
    location    "8.25";
    object      flowTypeField;
}
// * * * * * * * * * * * * * * * * * * * * * * * * * * * * * * * * * * * * * //

dimensions      [0 0 0 0 0 0 0];

internalField   nonuniform List<scalar> 
400
(
0.42124
0.0333851
0.0859536
-0.237686
0.741606
0.642076
0.967653
0.554455
0.720138
-0.000306939
-0.154369
0.397373
0.628881
0.466664
-0.0927316
-0.466149
0.755404
0.000626527
0.0882977
0.492399
0.957431
0.492638
0.171365
0.359269
-0.281708
-0.0997136
0.115969
0.223532
0.155815
0.0885938
0.77048
0.719583
-0.338627
0.366705
0.696139
0.206901
0.955475
0.328779
0.376431
-0.0110759
0.553873
0.109319
0.162379
0.0736515
-0.17856
0.492529
0.954409
-0.068891
0.698739
-0.158916
0.861069
0.255082
0.835128
0.0400468
-0.121493
0.237272
0.826922
0.361983
0.213535
0.609094
0.848824
0.763349
0.4284
0.400098
0.0242703
0.0460509
0.220653
0.238269
0.000443498
0.0228663
0.418664
0.0872057
0.0278022
0.227761
0.0724922
0.60443
-0.281706
0.985355
-0.26585
0.367728
0.499705
0.123196
0.0491044
-0.215342
0.236345
0.791425
0.384268
0.0205379
0.169113
0.154265
-0.278313
-0.0624173
0.0536471
0.0977268
0.672912
0.44216
0.103869
0.377154
0.80903
0.751232
0.19993
0.0603005
-0.017616
-0.0402927
0.903384
0.233331
0.585019
0.45477
0.835805
0.237552
0.142926
0.254521
0.655645
0.818168
0.878315
0.430959
0.698768
0.116894
0.075373
0.133415
0.641896
0.194479
0.0378228
0.533913
-0.21188
-0.0345707
0.0626465
-0.0125201
-0.0532016
-0.0840535
0.0358356
0.00857851
0.211075
0.884255
-0.243537
-0.0289927
0.906073
-0.121611
0.930075
0.170493
0.830053
0.268632
0.240287
0.701389
0.970428
0.0535534
0.200525
0.794344
0.280024
0.733747
0.363406
0.882911
0.902557
0.256974
-0.158443
-0.182928
0.930946
0.107284
0.633356
0.378993
0.165476
0.0937005
-0.146583
0.449245
-0.28092
0.100232
0.149232
0.058315
-0.0752924
-0.213891
-0.0719697
0.433065
-0.258852
0.509375
0.749303
-0.293276
0.363696
0.0308782
0.006786
0.244389
0.0931056
0.0799493
-0.195532
0.429889
0.0808937
0.500462
-0.0534389
-0.280734
-0.333566
0.217163
0.834967
0.967154
-0.190514
0.639171
0.000544094
-0.656658
-0.0584476
0.139737
0.473107
0.338775
-0.172398
-0.374921
-0.346405
-0.260815
0.116765
-0.0652302
0.310346
0.0512296
0.167304
0.122745
0.54941
0.118872
-0.144683
0.468996
-0.0218568
-0.0736012
-0.0534746
0.0727672
0.533519
0.408712
0.083444
0.143627
0.412699
0.186484
0.0138307
0.458582
0.116481
-0.143759
0.631481
0.539244
0.269965
0.707169
0.0202888
0.431205
0.000460225
-0.263374
0.203944
0.292043
-0.200002
0.0622048
0.826722
0.506168
0.398598
0.386355
0.158287
0.177357
0.0441085
0.148919
-0.191477
0.264328
0.650193
0.889233
0.363751
0.913512
0.529554
0.116367
0.124565
0.931485
0.170592
0.896979
0.523016
0.0996305
0.0558241
-0.0897665
-0.345961
0.000777107
0.0277225
-0.427593
-0.289204
0.141119
-0.239335
-0.312853
-0.213461
-0.105778
-0.0356766
-0.341992
-0.396878
-0.244969
0.10737
0.767849
0.0959778
0.00480691
-0.147754
-0.240702
-0.593915
0.919755
-0.136467
0.825482
0.287979
0.00369749
0.878712
0.491424
0.669797
0.167338
0.241873
0.264383
-0.101264
0.310514
0.228482
0.101973
0.367176
0.0699882
-0.0709108
0.299052
-0.280683
0.420156
0.17988
0.218032
0.496901
-0.244374
-0.344116
-0.111315
0.423785
0.203212
0.534642
0.897072
-0.362631
0.162537
0.299978
0.718797
0.881037
0.645378
0.537108
0.815441
0.198131
0.813922
-0.000376618
0.0773202
-0.0910381
0.4268
0.0228901
0.953649
0.153101
0.519024
0.0589025
0.708483
0.0540578
0.155581
0.375097
0.242394
0.568764
0.114681
0.0246048
0.0183901
0.125527
0.564623
0.0188257
0.201705
0.182373
0.436082
0.369129
0.0357884
-0.676981
0.258065
0.41805
0.566023
-0.200625
0.631376
0.371064
0.259054
0.567053
0.13749
0.00253047
0.174585
-0.126965
-0.138833
-0.0763646
-0.048304
0.00276903
0.366707
0.519621
0.614971
0.0535443
0.115981
0.885546
-0.0712104
0.279643
0.0673472
0.128942
0.166032
0.708225
0.130128
0.267546
-0.0344235
0.523366
0.12725
0.325671
0.223016
0.0416825
0.116186
0.00189956
0.490374
-0.138689
0.6468
0.57963
-0.00472552
0.471312
0.852929
0.260585
0.0243918
)
;

boundaryField
{
    movingWall
    {
        type            calculated;
        value           nonuniform List<scalar> 
20
(
0.724944
0.0858396
0.758836
-0.394084
0.0954659
0.0219123
0.0609921
0.0365671
-0.0134197
-0.00290724
0.534651
0.186965
0.442462
0.352583
0.0339146
-0.0286616
0.446903
0.270329
0.559874
0.139356
)
;
    }
    fixedWalls
    {
        type            calculated;
        value           nonuniform List<scalar> 
60
(
0.0446566
0.489254
0.118893
0.686155
0.116897
0.0464058
0.191757
0.303732
0.0555154
-0.00669376
-0.342214
0.207794
0.565542
0.113207
-0.0229183
0.0491887
0.641664
0.103694
0.122515
0.165334
0.650246
0.259047
0.674841
0.886013
0.393865
0.196873
-0.128095
0.835895
-0.19849
0.578908
0.695632
0.0078645
0.911883
0.821327
-0.209602
0.93177
0.224899
0.610832
0.314862
0.0480731
0.725652
0.170257
0.438075
-0.171932
0.331395
0.0523217
0.0843752
-0.0215078
-0.0119187
0.67082
0.678603
0.303863
0.383515
0.386924
0.618339
0.295613
0.869635
0.511111
0.160958
0.0468595
)
;
    }
    frontAndBack
    {
        type            empty;
    }
}


// ************************************************************************* //
