/*--------------------------------*- C++ -*----------------------------------*\
| =========                 |                                                 |
| \\      /  F ield         | OpenFOAM: The Open Source CFD Toolbox           |
|  \\    /   O peration     | Version:  2312                                  |
|   \\  /    A nd           | Website:  www.openfoam.com                      |
|    \\/     M anipulation  |                                                 |
\*---------------------------------------------------------------------------*/
FoamFile
{
    version     2.0;
    format      ascii;
    arch        "LSB;label=32;scalar=64";
    class       surfaceScalarField;
    location    "8.25";
    object      fluxField;
}
// * * * * * * * * * * * * * * * * * * * * * * * * * * * * * * * * * * * * * //

dimensions      [0 3 -1 0 0 0 0];

oriented        oriented;

internalField   nonuniform List<scalar> 
760
(
-5e-05
1.77453e-18
-5e-05
-3.75331e-19
-5e-05
7.78896e-20
-5e-05
-2.08557e-20
-5e-05
4.61096e-21
-5e-05
8.88429e-21
-5e-05
1.03108e-20
-5e-05
6.41146e-21
-5e-05
3.17382e-21
-5e-05
2.68248e-21
-5e-05
4.05511e-21
-5e-05
6.41203e-21
-5e-05
3.5014e-21
-5e-05
-6.7807e-21
-5e-05
-6.25106e-21
-5e-05
-1.36468e-21
-5e-05
3.5665e-21
-5e-05
1.1603e-22
-5e-05
-8.19579e-22
9.09422e-22
-5e-05
-6.61507e-19
-5e-05
1.16151e-19
-5e-05
-3.27974e-20
-5e-05
5.98925e-21
-5e-05
3.57886e-21
-5e-05
1.03388e-20
-5e-05
1.12768e-20
-5e-05
7.6067e-21
-5e-05
3.52529e-21
-5e-05
2.13877e-21
-5e-05
-9.64311e-22
-5e-05
2.3459e-21
-5e-05
3.11447e-21
-5e-05
-1.83131e-21
-5e-05
-4.67529e-21
-5e-05
-4.06649e-21
-5e-05
-2.10991e-21
-5e-05
-3.18614e-21
-5e-05
-4.43488e-21
-6.64932e-22
-5e-05
-1.18794e-18
-5e-05
2.25893e-19
-5e-05
-6.05192e-20
-5e-05
9.72851e-21
-5e-05
-2.53382e-21
-5e-05
-6.90733e-23
-5e-05
1.83799e-21
-5e-05
3.53089e-21
-5e-05
1.78588e-21
-5e-05
5.79164e-23
-5e-05
-2.19137e-21
-5e-05
-1.95338e-22
-5e-05
-1.94311e-21
-5e-05
-2.36048e-21
-5e-05
-4.53064e-21
-5e-05
-5.29844e-21
-5e-05
-3.45579e-21
-5e-05
-5.64629e-22
-5e-05
-4.5466e-21
-4.58131e-21
-5e-05
7.38424e-19
-5e-05
-1.78842e-19
-5e-05
2.95035e-20
-5e-05
-1.29281e-20
-5e-05
-4.45861e-21
-5e-05
-7.74042e-21
-5e-05
-4.11625e-21
-5e-05
1.1015e-21
-5e-05
3.78317e-21
-5e-05
3.28186e-21
-5e-05
2.38695e-21
-5e-05
-2.28506e-22
-5e-05
-2.60716e-21
-5e-05
-3.70631e-21
-5e-05
-5.48533e-21
-5e-05
-5.91823e-21
-5e-05
-4.66978e-21
-5e-05
-5.26952e-22
-5e-05
-2.02234e-21
-3.69485e-21
-5e-05
-7.89105e-20
-5e-05
-1.14107e-21
-5e-05
-1.02941e-20
-5e-05
-5.72912e-21
-5e-05
-6.6693e-21
-5e-05
-4.16268e-21
-5e-05
-1.97306e-21
-5e-05
2.10525e-21
-5e-05
3.92138e-21
-5e-05
3.88858e-21
-5e-05
2.49176e-21
-5e-05
-1.44776e-21
-5e-05
-1.31584e-21
-5e-05
-3.5988e-21
-5e-05
-5.10599e-21
-5e-05
-4.28039e-21
-5e-05
-4.7355e-21
-5e-05
-1.11699e-21
-5e-05
-2.21299e-22
3.16463e-22
-5e-05
-4.41127e-19
-5e-05
9.20751e-20
-5e-05
-3.31397e-20
-5e-05
-4.82433e-21
-5e-05
-9.98964e-21
-5e-05
-3.44751e-21
-5e-05
-4.03538e-21
-5e-05
-3.31219e-21
-5e-05
-1.59126e-21
-5e-05
1.03717e-21
-5e-05
3.90969e-21
-5e-05
2.96164e-21
-5e-05
3.5644e-21
-5e-05
-1.25061e-21
-5e-05
-3.77224e-21
-5e-05
-1.9716e-21
-5e-05
-1.744e-21
-5e-05
6.08204e-22
-5e-05
1.83491e-21
6.24002e-22
-5e-05
1.07203e-18
-5e-05
-2.36721e-19
-5e-05
4.42675e-20
-5e-05
-1.94875e-20
-5e-05
-3.87842e-21
-5e-05
-5.52707e-21
-5e-05
-5.03535e-21
-5e-05
-5.61733e-21
-5e-05
-3.23725e-21
-5e-05
3.92135e-22
-5e-05
3.70681e-21
-5e-05
3.48713e-21
-5e-05
3.01651e-21
-5e-05
-8.13846e-22
-5e-05
-2.8175e-21
-5e-05
6.45257e-22
-5e-05
3.37239e-21
-5e-05
9.62178e-22
-5e-05
1.31483e-21
-1.64004e-21
-5e-05
-7.76815e-19
-5e-05
1.49451e-19
-5e-05
-4.64609e-20
-5e-05
2.18461e-21
-5e-05
-4.77827e-21
-5e-05
-6.2433e-21
-5e-05
-4.02394e-21
-5e-05
-1.66217e-21
-5e-05
-1.95498e-21
-5e-05
-4.11787e-21
-5e-05
-7.50173e-21
-5e-05
-6.04618e-21
-5e-05
-4.75327e-21
-5e-05
-3.26631e-21
-5e-05
-2.14255e-21
-5e-05
1.63446e-21
-5e-05
5.71646e-21
-5e-05
2.94959e-21
-5e-05
2.08219e-21
-1.65509e-21
-5e-05
-4.61047e-19
-5e-05
9.78392e-20
-5e-05
-3.09739e-20
-5e-05
3.42536e-21
-5e-05
-2.64323e-21
-5e-05
-6.09686e-21
-5e-05
-5.71042e-21
-5e-05
-9.228e-22
-5e-05
1.64837e-21
-5e-05
2.61141e-22
-5e-05
-5.54875e-21
-5e-05
-5.0944e-21
-5e-05
-1.59492e-21
-5e-05
2.52603e-21
-5e-05
3.38502e-21
-5e-05
5.63096e-24
-5e-05
-2.59023e-21
-5e-05
-1.13738e-22
-5e-05
1.7755e-21
-8.80801e-22
-5e-05
4.8438e-19
-5e-05
-1.27272e-19
-5e-05
2.10487e-20
-5e-05
-1.2248e-20
-5e-05
2.54816e-21
-5e-05
6.95304e-22
-5e-05
-1.84098e-21
-5e-05
-1.60097e-21
-5e-05
3.21003e-21
-5e-05
7.26514e-21
-5e-05
6.72523e-21
-5e-05
3.69585e-21
-5e-05
2.6586e-21
-5e-05
4.12584e-21
-5e-05
3.5251e-21
-5e-05
-1.78712e-21
-5e-05
-7.85764e-21
-5e-05
-7.41126e-21
-5e-05
-2.75093e-21
3.50366e-22
-5e-05
4.50548e-20
-5e-05
-3.55884e-20
-5e-05
-4.42511e-21
-5e-05
-1.50182e-20
-5e-05
-4.3146e-21
-5e-05
2.32673e-21
-5e-05
-6.43318e-22
-5e-05
-5.42775e-21
-5e-05
-3.43339e-21
-5e-05
1.20451e-21
-5e-05
7.50829e-21
-5e-05
8.09317e-21
-5e-05
1.65059e-21
-5e-05
-3.07875e-21
-5e-05
-3.60403e-21
-5e-05
-2.35417e-21
-5e-05
-2.9019e-21
-5e-05
-7.0282e-21
-5e-05
-1.74952e-21
3.20893e-21
-5e-05
2.08189e-19
-5e-05
-2.99418e-20
-5e-05
8.68519e-21
-5e-05
-4.15049e-21
-5e-05
-5.95701e-21
-5e-05
-1.89636e-21
-5e-05
-3.13098e-21
-5e-05
-6.7811e-21
-5e-05
-7.95831e-21
-5e-05
-5.7102e-21
-5e-05
6.65314e-22
-5e-05
3.39689e-21
-5e-05
-4.80275e-23
-5e-05
-3.73769e-21
-5e-05
-3.68197e-21
-5e-05
-1.19307e-21
-5e-05
1.55673e-23
-5e-05
-3.06873e-21
-5e-05
1.56553e-22
2.0148e-21
-5e-05
-6.44989e-19
-5e-05
1.50442e-19
-5e-05
-2.40629e-20
-5e-05
1.13618e-20
-5e-05
-3.20191e-21
-5e-05
-1.53509e-21
-5e-05
9.31218e-22
-5e-05
-1.3272e-21
-5e-05
-9.02808e-21
-5e-05
-1.13941e-20
-5e-05
-7.7e-21
-5e-05
-5.19778e-21
-5e-05
-1.36342e-21
-5e-05
2.25742e-21
-5e-05
2.63037e-21
-5e-05
2.57012e-21
-5e-05
8.17936e-23
-5e-05
-3.8214e-21
-5e-05
-3.37348e-21
-1.57711e-21
-5e-05
6.11723e-19
-5e-05
-1.17776e-19
-5e-05
3.47745e-20
-5e-05
-4.25748e-21
-5e-05
-1.00631e-22
-5e-05
-1.39094e-21
-5e-05
3.23386e-21
-5e-05
2.35105e-21
-5e-05
-5.64619e-21
-5e-05
-1.13528e-20
-5e-05
-1.0536e-20
-5e-05
-8.67145e-21
-5e-05
-3.91991e-21
-5e-05
1.79972e-21
-5e-05
2.52855e-21
-5e-05
1.53069e-21
-5e-05
1.02455e-21
-5e-05
-3.44312e-22
-5e-05
-1.75591e-21
-1.65496e-21
-5e-05
-8.19533e-20
-5e-05
3.23052e-20
-5e-05
7.81233e-22
-5e-05
5.12117e-21
-5e-05
-1.29603e-21
-5e-05
-1.67106e-21
-5e-05
1.38623e-22
-5e-05
1.41624e-21
-5e-05
1.31941e-21
-5e-05
-2.95438e-21
-5e-05
-8.05303e-21
-5e-05
-1.1745e-20
-5e-05
-9.67366e-21
-5e-05
-4.42373e-21
-5e-05
-2.67804e-21
-5e-05
-5.93973e-21
-5e-05
-7.51859e-22
-5e-05
5.3428e-21
-5e-05
2.57267e-21
-4.98818e-22
-5e-05
-9.35683e-19
-5e-05
2.09772e-19
-5e-05
-3.97894e-20
-5e-05
1.55903e-20
-5e-05
-9.87675e-22
-5e-05
-1.67543e-21
-5e-05
-4.66203e-21
-5e-05
-9.21114e-22
-5e-05
3.01259e-21
-5e-05
2.39453e-21
-5e-05
-4.52051e-21
-5e-05
-1.06192e-20
-5e-05
-7.5814e-21
-5e-05
-2.93862e-21
-5e-05
-1.60466e-22
-5e-05
-3.86909e-21
-5e-05
-2.67332e-21
-5e-05
1.02677e-21
-5e-05
3.48841e-22
1.55515e-22
-5e-05
1.46121e-18
-5e-05
-3.01261e-19
-5e-05
7.4299e-20
-5e-05
-1.01259e-20
-5e-05
7.70308e-21
-5e-05
-4.76931e-22
-5e-05
-4.8894e-21
-5e-05
-3.85152e-21
-5e-05
-2.46454e-21
-5e-05
-2.21715e-21
-5e-05
-5.70459e-21
-5e-05
-5.31844e-21
-5e-05
1.09448e-21
-5e-05
4.314e-21
-5e-05
4.60303e-21
-5e-05
1.27053e-21
-5e-05
-4.19288e-21
-5e-05
-4.22901e-21
-5e-05
-1.91306e-21
-8.07851e-22
-5e-05
2.97441e-19
-5e-05
-7.98732e-20
-5e-05
1.51695e-20
-5e-05
-1.17911e-21
-5e-05
8.16267e-21
-5e-05
1.64674e-21
-5e-05
-2.8777e-21
-5e-05
-7.82659e-21
-5e-05
-1.03398e-20
-5e-05
-8.70425e-21
-5e-05
-6.35805e-21
-5e-05
3.94135e-22
-5e-05
2.16193e-21
-5e-05
2.59509e-21
-5e-05
1.83609e-21
-5e-05
5.57704e-22
-5e-05
-4.59734e-21
-5e-05
-4.26645e-21
-5e-05
-1.47855e-21
-1.50316e-21
-5e-05
-1.86378e-18
-5e-05
3.59947e-19
-5e-05
-9.39214e-20
-5e-05
1.60049e-20
-5e-05
1.86739e-21
-5e-05
1.84046e-21
-5e-05
-3.57167e-21
-5e-05
-7.65344e-21
-5e-05
-9.36242e-21
-5e-05
-5.42505e-21
-5e-05
-1.91713e-22
-5e-05
4.47414e-21
-5e-05
-4.24452e-22
-5e-05
-2.75806e-21
-5e-05
-3.09563e-21
-5e-05
-6.1479e-22
-5e-05
-2.34162e-21
-5e-05
-3.82132e-21
-5e-05
-2.0141e-21
-2.63409e-22
-5e-05
-5e-05
-5e-05
-5e-05
-5e-05
-5e-05
-5e-05
-5e-05
-5e-05
-5e-05
-5e-05
-5e-05
-5e-05
-5e-05
-5e-05
-5e-05
-5e-05
-5e-05
-5e-05
)
;

boundaryField
{
    movingWall
    {
        type            calculated;
        value           uniform -0;
    }
    fixedWalls
    {
        type            calculated;
        value           nonuniform List<scalar> 
60
(
5e-05
5e-05
5e-05
5e-05
5e-05
5e-05
5e-05
5e-05
5e-05
5e-05
5e-05
5e-05
5e-05
5e-05
5e-05
5e-05
5e-05
5e-05
5e-05
5e-05
-5e-05
-5e-05
-5e-05
-5e-05
-5e-05
-5e-05
-5e-05
-5e-05
-5e-05
-5e-05
-5e-05
-5e-05
-5e-05
-5e-05
-5e-05
-5e-05
-5e-05
-5e-05
-5e-05
-5e-05
0
0
0
0
0
0
0
0
0
0
0
0
0
0
0
0
0
0
0
0
)
;
    }
    frontAndBack
    {
        type            empty;
        value           nonuniform List<scalar> 0();
    }
}


// ************************************************************************* //
