/*--------------------------------*- C++ -*----------------------------------*\
| =========                 |                                                 |
| \\      /  F ield         | OpenFOAM: The Open Source CFD Toolbox           |
|  \\    /   O peration     | Version:  2312                                  |
|   \\  /    A nd           | Website:  www.openfoam.com                      |
|    \\/     M anipulation  |                                                 |
\*---------------------------------------------------------------------------*/
FoamFile
{
    version     2.0;
    format      ascii;
    arch        "LSB;label=32;scalar=64";
    class       volVectorField;
    location    "8.25";
    object      gradPhi;
}
// * * * * * * * * * * * * * * * * * * * * * * * * * * * * * * * * * * * * * //

dimensions      [0 2 -1 0 0 0 0];

internalField   nonuniform List<vector> 
400
(
(-0.02 2.22279e-17 0)
(5.62483e-17 -5.64471e-17 0)
(-1.48893e-17 1.48839e-17 0)
(3.30872e-18 -3.04043e-18 0)
(0 3.11779e-20 0)
(-3.30872e-18 1.77146e-18 0)
(-1.65436e-18 2.12176e-18 0)
(-1.65436e-18 1.34528e-18 0)
(0 7.95635e-19 0)
(0 3.39477e-19 0)
(-1.65436e-18 9.10346e-19 0)
(-1.65436e-18 1.26208e-18 0)
(0 8.05033e-19 0)
(1.65436e-18 -2.15601e-18 0)
(1.65436e-18 -1.69859e-18 0)
(0 -5.59069e-19 0)
(0 1.33671e-18 0)
(0 2.90086e-19 0)
(0 -1.82453e-19 0)
(0 3.9205e-19 0)
(-0.02 -4.39165e-17 0)
(-6.28657e-17 6.3195e-17 0)
(1.98523e-17 -2.07044e-17 0)
(-3.30872e-18 3.14576e-18 0)
(0 1.22475e-18 0)
(0 7.29879e-19 0)
(0 6.85321e-19 0)
(0 1.2186e-20 0)
(0 -3.95798e-19 0)
(-1.65436e-18 5.24143e-19 0)
(3.30872e-18 -9.16938e-19 0)
(0 -8.39912e-19 0)
(0 -1.64551e-19 0)
(-1.65436e-18 2.11971e-18 0)
(0 1.12152e-18 0)
(0 3.06468e-19 0)
(1.65436e-18 -1.98045e-18 0)
(0 -1.72479e-18 0)
(1.65436e-18 -1.16179e-18 0)
(0 -4.54901e-21 0)
(-0.02 -2.84984e-17 0)
(-4.1359e-17 4.27215e-17 0)
(4.96308e-18 -6.80807e-18 0)
(-1.65436e-18 2.29095e-18 0)
(1.65436e-18 -1.56657e-18 0)
(3.30872e-18 -3.12995e-18 0)
(3.30872e-18 -3.17443e-18 0)
(0 -3.63829e-19 0)
(0 -1.61992e-19 0)
(1.65436e-18 -1.48259e-18 0)
(1.65436e-18 -1.12937e-18 0)
(-1.65436e-18 2.54366e-20 0)
(0 -6.82332e-19 0)
(0 -1.3575e-19 0)
(1.65436e-18 -6.33581e-19 0)
(1.65436e-18 -1.49141e-18 0)
(0 -3.98423e-20 0)
(-4.96308e-18 2.72314e-18 0)
(0 1.05692e-18 0)
(1.65436e-18 -2.43508e-18 0)
(-0.02 7.6731e-17 0)
(8.93355e-17 -8.79012e-17 0)
(-1.98523e-17 1.87029e-17 0)
(4.96308e-18 -5.34439e-18 0)
(0 -6.16505e-19 0)
(1.65436e-18 -8.38176e-19 0)
(0 -5.48189e-19 0)
(1.65436e-18 -1.31895e-18 0)
(-1.65436e-18 1.00959e-18 0)
(-1.65436e-18 1.6953e-18 0)
(0 2.24065e-18 0)
(0 -1.05455e-18 0)
(0 -9.76506e-19 0)
(1.65436e-18 -7.22968e-19 0)
(0 2.55643e-19 0)
(-1.65436e-18 7.49269e-19 0)
(0 -3.35441e-19 0)
(3.30872e-18 -2.32964e-18 0)
(0 -7.36096e-20 0)
(-1.65436e-18 1.75957e-18 0)
(-0.02 -4.48955e-17 0)
(-4.96308e-17 4.92786e-17 0)
(9.92617e-18 -8.7698e-18 0)
(-3.30872e-18 2.55877e-18 0)
(1.65436e-18 -8.7707e-19 0)
(0 6.69857e-19 0)
(-1.65436e-18 9.13161e-19 0)
(0 1.34235e-18 0)
(0 -8.60027e-19 0)
(0 -3.70084e-19 0)
(1.65436e-18 -6.66625e-19 0)
(-1.65436e-18 8.27352e-19 0)
(-1.65436e-18 1.1094e-18 0)
(0 2.18927e-19 0)
(0 1.59435e-19 0)
(-1.65436e-18 4.32821e-19 0)
(1.65436e-18 -1.43596e-22 0)
(0 1.09402e-18 0)
(-1.65436e-18 -6.26613e-20 0)
(0 3.81917e-20 0)
(-0.02 2.13173e-17 0)
(1.48893e-17 -1.52606e-17 0)
(1.65436e-18 -2.83463e-18 0)
(1.65436e-18 -2.12896e-18 0)
(0 3.86794e-19 0)
(0 9.19239e-20 0)
(1.65436e-18 -1.13769e-18 0)
(1.65436e-18 -1.88882e-18 0)
(0 -7.02466e-20 0)
(0 -2.94999e-19 0)
(1.65436e-18 -1.23282e-19 0)
(0 -3.02408e-19 0)
(-1.65436e-18 1.03397e-19 0)
(0 6.78264e-20 0)
(1.65436e-18 -3.79128e-19 0)
(0 -7.71131e-20 0)
(-1.65436e-18 6.55923e-19 0)
(0 1.80974e-19 0)
(-1.65436e-18 9.52606e-19 0)
(0 1.32444e-18 0)
(-0.02 -4.36272e-18 0)
(1.32349e-17 -1.16289e-17 0)
(-1.48893e-17 1.33235e-17 0)
(0 7.47408e-19 0)
(0 -4.80346e-19 0)
(0 6.94268e-20 0)
(0 7.70951e-19 0)
(0 -4.74211e-19 0)
(1.65436e-18 -2.04886e-18 0)
(1.65436e-18 -7.73347e-19 0)
(-1.65436e-18 1.21366e-18 0)
(-1.65436e-18 1.14408e-18 0)
(0 1.02378e-18 0)
(-1.65436e-18 1.0351e-18 0)
(0 1.16069e-18 0)
(0 1.02953e-18 0)
(-1.65436e-18 8.2842e-19 0)
(0 -6.24105e-19 0)
(0 -2.05935e-19 0)
(1.65436e-18 -2.3361e-18 0)
(-0.02 4.12198e-18 0)
(-1.98523e-17 1.7294e-17 0)
(1.65436e-17 -1.62107e-17 0)
(0 2.40333e-19 0)
(-1.65436e-18 2.20604e-18 0)
(1.65436e-18 -1.14704e-18 0)
(0 -1.0558e-18 0)
(-1.65436e-18 1.05432e-18 0)
(-1.65436e-18 1.98924e-18 0)
(0 -1.60132e-19 0)
(4.96308e-18 -3.39244e-18 0)
(1.65436e-18 -2.23524e-18 0)
(3.30872e-18 -2.61883e-18 0)
(0 -1.55259e-18 0)
(1.65436e-18 -1.31767e-18 0)
(0 -4.21626e-19 0)
(0 1.37291e-18 0)
(-1.65436e-18 1.44652e-18 0)
(1.65436e-18 -1.51702e-19 0)
(-1.65436e-18 1.43675e-18 0)
(-0.02 -3.79605e-17 0)
(-3.30872e-17 3.36415e-17 0)
(0 1.08987e-18 0)
(-4.96308e-18 2.96847e-18 0)
(3.30872e-18 -1.69111e-18 0)
(0 5.18485e-19 0)
(-1.65436e-18 4.08303e-19 0)
(1.65436e-18 1.95863e-19 0)
(0 -7.15495e-20 0)
(0 3.32092e-19 0)
(-1.65436e-18 1.95619e-19 0)
(1.65436e-18 -8.20099e-20 0)
(-1.65436e-18 1.31566e-18 0)
(-3.30872e-18 1.89201e-18 0)
(-1.65436e-18 2.87336e-18 0)
(0 -8.18815e-20 0)
(3.30872e-18 -2.91357e-18 0)
(1.65436e-18 -1.08796e-18 0)
(-1.65436e-18 5.64954e-19 0)
(0 -3.92637e-19 0)
(-0.02 4.34776e-17 0)
(5.9557e-17 -5.87969e-17 0)
(-1.32349e-17 1.27002e-17 0)
(3.30872e-18 -3.08525e-18 0)
(-3.30872e-18 2.93827e-18 0)
(-1.65436e-18 1.65921e-18 0)
(0 3.13944e-19 0)
(0 -1.72615e-19 0)
(0 7.94046e-19 0)
(0 1.94736e-18 0)
(-4.96308e-18 3.6226e-18 0)
(-1.65436e-18 1.82819e-18 0)
(0 1.69508e-19 0)
(0 -1.77836e-19 0)
(1.65436e-18 -1.2006e-18 0)
(0 3.44577e-19 0)
(0 -2.74707e-19 0)
(3.30872e-18 -1.37253e-18 0)
(0 -1.44075e-18 0)
(0 -1.12913e-19 0)
(-0.02 1.72261e-17 0)
(0 5.26213e-19 0)
(6.61744e-18 -7.00618e-18 0)
(1.65436e-18 -3.14503e-18 0)
(4.96308e-18 -3.34402e-18 0)
(1.65436e-18 -2.14751e-19 0)
(-1.65436e-18 1.44033e-18 0)
(0 -7.03129e-19 0)
(1.65436e-18 -1.98869e-18 0)
(1.65436e-18 -1.71092e-18 0)
(1.65436e-18 -5.74319e-19 0)
(-3.30872e-18 1.56432e-18 0)
(0 5.75191e-19 0)
(3.30872e-18 -1.01235e-18 0)
(0 -8.96241e-19 0)
(1.65436e-18 -1.08494e-18 0)
(-1.65436e-18 6.53944e-19 0)
(0 -2.04463e-19 0)
(1.65436e-18 -8.24053e-21 0)
(-1.65436e-18 1.00052e-18 0)
(-0.02 -4.38548e-17 0)
(-4.1359e-17 4.15932e-17 0)
(-4.96308e-18 3.51529e-18 0)
(-3.30872e-18 5.63748e-18 0)
(-1.65436e-18 4.4979e-19 0)
(0 -1.06626e-19 0)
(3.30872e-18 -2.04466e-18 0)
(0 -7.1384e-19 0)
(0 -6.21598e-19 0)
(1.65436e-18 -1.21884e-18 0)
(1.65436e-18 -1.3804e-18 0)
(1.65436e-18 -1.42528e-18 0)
(0 -2.3412e-19 0)
(1.65436e-18 -5.04962e-19 0)
(0 -4.17711e-19 0)
(0 5.8959e-19 0)
(0 6.25502e-19 0)
(-1.65436e-18 6.92119e-19 0)
(-1.65436e-18 1.25733e-18 0)
(0 8.73327e-19 0)
(-0.02 1.83473e-17 0)
(1.32349e-17 -1.17462e-17 0)
(6.61744e-18 -6.14026e-18 0)
(-1.65436e-18 3.5212e-19 0)
(0 1.27465e-18 0)
(1.65436e-18 -7.54712e-19 0)
(-3.30872e-18 1.84925e-18 0)
(-1.65436e-18 1.36987e-18 0)
(0 -2.64895e-19 0)
(1.65436e-18 -7.72737e-19 0)
(1.65436e-18 -1.12876e-18 0)
(1.65436e-18 -2.20646e-18 0)
(1.65436e-18 -1.33038e-18 0)
(-1.65436e-18 1.73819e-18 0)
(-3.30872e-18 1.67697e-18 0)
(0 8.10884e-19 0)
(0 3.41615e-19 0)
(-1.65436e-18 5.68122e-19 0)
(1.65436e-18 -1.62175e-18 0)
(3.30872e-18 -3.28247e-18 0)
(-0.02 2.78091e-18 0)
(1.65436e-17 -1.52747e-17 0)
(-1.15805e-17 1.06138e-17 0)
(1.65436e-18 -1.41582e-18 0)
(0 -3.97304e-20 0)
(0 6.07671e-19 0)
(0 -2.90015e-19 0)
(0 1.21423e-18 0)
(0 8.03367e-19 0)
(0 -1.2773e-18 0)
(0 -1.86929e-18 0)
(0 2.85999e-19 0)
(0 8.24385e-19 0)
(0 -5.89734e-19 0)
(0 -2.36963e-19 0)
(0 4.35298e-19 0)
(0 2.28637e-19 0)
(0 9.03758e-20 0)
(0 6.81438e-19 0)
(-1.65436e-18 2.09611e-18 0)
(-0.02 -6.32943e-18 0)
(-1.65436e-17 1.65089e-17 0)
(6.61744e-18 -5.81454e-18 0)
(-1.65436e-18 1.15528e-18 0)
(0 -7.51744e-19 0)
(1.65436e-18 -5.06456e-19 0)
(0 1.78993e-19 0)
(1.65436e-18 -9.76059e-19 0)
(-1.65436e-18 1.60806e-18 0)
(-3.30872e-18 3.50941e-18 0)
(-1.65436e-18 2.24628e-18 0)
(0 -1.59484e-18 0)
(3.30872e-18 -2.66199e-18 0)
(1.65436e-18 -1.37901e-18 0)
(0 -1.03135e-18 0)
(1.65436e-18 -3.13959e-18 0)
(3.30872e-18 -1.45609e-18 0)
(-3.30872e-18 1.56442e-18 0)
(0 1.33143e-18 0)
(0 -8.25296e-19 0)
(-0.02 -1.28434e-17 0)
(-1.8198e-17 1.80642e-17 0)
(8.27181e-18 -8.7382e-18 0)
(0 1.54656e-18 0)
(0 1.45897e-18 0)
(0 3.19354e-19 0)
(0 -1.42115e-18 0)
(0 3.1397e-19 0)
(0 -1.25834e-19 0)
(0 -4.4763e-20 0)
(0 -4.21958e-19 0)
(0 9.8675e-19 0)
(0 1.44562e-18 0)
(-1.65436e-18 4.54465e-19 0)
(0 6.57736e-19 0)
(0 1.38117e-18 0)
(-1.65436e-18 5.94159e-19 0)
(1.65436e-18 -1.15634e-18 0)
(1.65436e-18 -8.22705e-19 0)
(-1.65436e-18 1.00957e-18 0)
(-0.02 4.94552e-17 0)
(6.94832e-17 -6.83901e-17 0)
(-2.31611e-17 2.28065e-17 0)
(4.96308e-18 -3.67322e-18 0)
(0 4.11187e-19 0)
(-1.65436e-18 2.95242e-19 0)
(1.65436e-18 -7.36748e-19 0)
(0 -1.66142e-18 0)
(0 -6.86373e-19 0)
(0 -4.47304e-19 0)
(0 4.11187e-19 0)
(0 4.60559e-19 0)
(0 1.76227e-18 0)
(-3.30872e-18 2.23276e-18 0)
(0 7.48397e-19 0)
(-1.65436e-18 1.41617e-18 0)
(0 -2.42811e-19 0)
(0 -1.02988e-18 0)
(1.65436e-18 -1.15282e-18 0)
(1.65436e-18 -1.00167e-18 0)
(-0.02 -1.12244e-17 0)
(-2.48154e-17 2.45532e-17 0)
(1.15805e-17 -1.08838e-17 0)
(-1.65436e-18 1.18082e-18 0)
(0 4.36561e-19 0)
(0 1.1859e-19 0)
(-3.30872e-18 2.29969e-18 0)
(0 6.46454e-19 0)
(1.65436e-18 -1.625e-18 0)
(3.30872e-18 -1.68818e-18 0)
(0 -1.22954e-18 0)
(0 1.22605e-18 0)
(0 -4.57629e-19 0)
(0 -1.57945e-18 0)
(1.65436e-18 -5.12555e-19 0)
(0 -1.71168e-19 0)
(0 -3.03536e-19 0)
(0 -9.5977e-20 0)
(-1.65436e-18 1.64975e-18 0)
(0 2.28752e-20 0)
(-0.02 -5.85846e-17 0)
(-7.94093e-17 7.997e-17 0)
(2.31611e-17 -2.30452e-17 0)
(-3.30872e-18 2.19735e-18 0)
(0 -1.80262e-19 0)
(0 4.72984e-19 0)
(3.30872e-18 -1.93343e-18 0)
(0 -1.34478e-18 0)
(0 -4.44362e-19 0)
(0 6.21771e-19 0)
(-1.65436e-18 2.27014e-18 0)
(-1.65436e-18 1.60705e-18 0)
(-1.65436e-18 3.43819e-19 0)
(0 -2.34527e-19 0)
(1.65436e-18 -1.00129e-18 0)
(1.65436e-18 -1.21411e-18 0)
(-1.65436e-18 4.30375e-19 0)
(0 2.99551e-19 0)
(1.65436e-18 -1.77808e-18 0)
(0 5.35605e-19 0)
(-0.02 3.67851e-17 0)
(6.12114e-17 -6.19007e-17 0)
(-1.8198e-17 1.93197e-17 0)
(1.65436e-18 -2.1882e-18 0)
(0 -1.27082e-18 0)
(1.65436e-18 -6.26372e-19 0)
(-1.65436e-18 1.3604e-18 0)
(-1.65436e-18 2.12313e-18 0)
(-3.30872e-18 2.36529e-18 0)
(0 1.27164e-18 0)
(0 -2.77562e-19 0)
(0 -1.47716e-18 0)
(0 -3.51721e-19 0)
(0 2.86205e-19 0)
(0 6.71941e-19 0)
(0 7.45119e-19 0)
(0 4.78403e-19 0)
(0 6.76346e-19 0)
(-1.65436e-18 1.16806e-18 0)
(0 -9.82888e-20 0)
)
;

boundaryField
{
    movingWall
    {
        type            extrapolatedCalculated;
        value           nonuniform List<vector> 
20
(
(-0.02 3.67851e-17 0)
(6.12114e-17 -6.19007e-17 0)
(-1.8198e-17 1.93197e-17 0)
(1.65436e-18 -2.1882e-18 0)
(0 -1.27082e-18 0)
(1.65436e-18 -6.26372e-19 0)
(-1.65436e-18 1.3604e-18 0)
(-1.65436e-18 2.12313e-18 0)
(-3.30872e-18 2.36529e-18 0)
(0 1.27164e-18 0)
(0 -2.77562e-19 0)
(0 -1.47716e-18 0)
(0 -3.51721e-19 0)
(0 2.86205e-19 0)
(0 6.71941e-19 0)
(0 7.45119e-19 0)
(0 4.78403e-19 0)
(0 6.76346e-19 0)
(-1.65436e-18 1.16806e-18 0)
(0 -9.82888e-20 0)
)
;
    }
    fixedWalls
    {
        type            extrapolatedCalculated;
        value           nonuniform List<vector> 
60
(
(-0.02 2.22279e-17 0)
(-0.02 -4.39165e-17 0)
(-0.02 -2.84984e-17 0)
(-0.02 7.6731e-17 0)
(-0.02 -4.48955e-17 0)
(-0.02 2.13173e-17 0)
(-0.02 -4.36272e-18 0)
(-0.02 4.12198e-18 0)
(-0.02 -3.79605e-17 0)
(-0.02 4.34776e-17 0)
(-0.02 1.72261e-17 0)
(-0.02 -4.38548e-17 0)
(-0.02 1.83473e-17 0)
(-0.02 2.78091e-18 0)
(-0.02 -6.32943e-18 0)
(-0.02 -1.28434e-17 0)
(-0.02 4.94552e-17 0)
(-0.02 -1.12244e-17 0)
(-0.02 -5.85846e-17 0)
(-0.02 3.67851e-17 0)
(0 3.9205e-19 0)
(0 -4.54901e-21 0)
(1.65436e-18 -2.43508e-18 0)
(-1.65436e-18 1.75957e-18 0)
(0 3.81917e-20 0)
(0 1.32444e-18 0)
(1.65436e-18 -2.3361e-18 0)
(-1.65436e-18 1.43675e-18 0)
(0 -3.92637e-19 0)
(0 -1.12913e-19 0)
(-1.65436e-18 1.00052e-18 0)
(0 8.73327e-19 0)
(3.30872e-18 -3.28247e-18 0)
(-1.65436e-18 2.09611e-18 0)
(0 -8.25296e-19 0)
(-1.65436e-18 1.00957e-18 0)
(1.65436e-18 -1.00167e-18 0)
(0 2.28752e-20 0)
(0 5.35605e-19 0)
(0 -9.82888e-20 0)
(-0.02 2.22279e-17 0)
(5.62483e-17 -5.64471e-17 0)
(-1.48893e-17 1.48839e-17 0)
(3.30872e-18 -3.04043e-18 0)
(0 3.11779e-20 0)
(-3.30872e-18 1.77146e-18 0)
(-1.65436e-18 2.12176e-18 0)
(-1.65436e-18 1.34528e-18 0)
(0 7.95635e-19 0)
(0 3.39477e-19 0)
(-1.65436e-18 9.10346e-19 0)
(-1.65436e-18 1.26208e-18 0)
(0 8.05033e-19 0)
(1.65436e-18 -2.15601e-18 0)
(1.65436e-18 -1.69859e-18 0)
(0 -5.59069e-19 0)
(0 1.33671e-18 0)
(0 2.90086e-19 0)
(0 -1.82453e-19 0)
(0 3.9205e-19 0)
)
;
    }
    frontAndBack
    {
        type            empty;
    }
}


// ************************************************************************* //
