/*--------------------------------*- C++ -*----------------------------------*\
| =========                 |                                                 |
| \\      /  F ield         | OpenFOAM: The Open Source CFD Toolbox           |
|  \\    /   O peration     | Version:  2312                                  |
|   \\  /    A nd           | Website:  www.openfoam.com                      |
|    \\/     M anipulation  |                                                 |
\*---------------------------------------------------------------------------*/
FoamFile
{
    version     2.0;
    format      ascii;
    arch        "LSB;label=32;scalar=64";
    class       volVectorField;
    location    "8.25";
    object      LambVectorField;
}
// * * * * * * * * * * * * * * * * * * * * * * * * * * * * * * * * * * * * * //

dimensions      [0 1 -2 0 0 0 0];

internalField   nonuniform List<vector> 
400
(
(-2.46944e-25 -4.45409e-12 -4.45409e-12)
(-6.09314e-26 5.32457e-12 -0)
(-2.53461e-27 -1.02716e-12 -1.02716e-12)
(-2.0199e-28 3.20758e-13 -0)
(-1.3638e-30 -1.86427e-14 -1.86427e-14)
(2.04713e-30 2.07199e-14 0)
(6.19163e-32 4.51923e-16 4.51923e-16)
(9.71313e-31 1.03023e-14 0)
(2.1655e-31 6.37229e-15 6.37229e-15)
(-1.89675e-30 -6.20703e-14 0)
(-7.43525e-30 -6.60411e-14 -6.60411e-14)
(-6.73088e-30 -4.52137e-14 0)
(-4.54251e-31 -2.00807e-14 -2.00807e-14)
(7.60839e-30 -3.95393e-14 -0)
(9.28757e-30 -7.48471e-14 -7.48471e-14)
(-1.12362e-30 -8.05798e-14 0)
(-7.64397e-31 -5.47524e-15 -5.47524e-15)
(8.76159e-31 1.27541e-14 0)
(8.12846e-32 6.73489e-15 6.73489e-15)
(1.80807e-33 1.34168e-15 0)
(-4.69946e-27 -3.02434e-13 -3.02434e-13)
(-4.05783e-27 1.13671e-12 -0)
(-3.05892e-28 -4.72054e-13 -4.72054e-13)
(2.78249e-29 -1.36064e-13 -0)
(-2.32291e-29 -2.08737e-13 -2.08737e-13)
(-4.59377e-29 -1.79044e-13 0)
(-1.97964e-29 -7.18758e-14 -7.18758e-14)
(-1.02285e-29 -6.30696e-14 0)
(-4.2456e-30 -4.56665e-14 -4.56665e-14)
(3.32679e-31 4.33508e-15 0)
(-1.53183e-31 -3.08718e-15 -3.08718e-15)
(-7.29786e-31 -6.78158e-15 0)
(8.55531e-30 7.28516e-14 7.28516e-14)
(-1.91796e-30 2.4339e-14 -0)
(1.29362e-31 -1.02705e-15 -1.02705e-15)
(8.84093e-31 -1.29005e-14 -0)
(-1.36534e-33 -4.4761e-16 -4.4761e-16)
(3.16561e-30 -4.94198e-14 -0)
(4.44417e-31 -9.90846e-15 -9.90846e-15)
(-1.93335e-30 -5.51924e-14 0)
(-7.13065e-26 1.69781e-12 1.69781e-12)
(-3.00005e-26 -3.65155e-12 0)
(-1.31069e-27 6.68756e-13 6.68756e-13)
(-8.84484e-29 -1.99177e-13 0)
(2.6427e-30 8.29189e-14 8.29189e-14)
(6.25297e-30 3.98326e-14 0)
(2.61544e-31 1.48905e-15 1.48905e-15)
(1.33673e-29 9.40756e-14 0)
(6.40304e-31 1.33281e-14 1.33281e-14)
(8.36375e-31 9.49385e-14 0)
(-1.99194e-31 2.25865e-15 2.25865e-15)
(-6.15504e-31 4.46766e-14 -0)
(-1.38067e-32 -1.93266e-15 -1.93266e-15)
(3.78491e-32 6.82003e-15 0)
(-5.57341e-30 9.12829e-14 9.12829e-14)
(-5.35109e-30 5.68491e-14 -0)
(2.68791e-31 -3.07377e-15 -3.07377e-15)
(-3.72226e-30 5.87197e-14 -0)
(2.33774e-32 -1.76376e-16 -1.76376e-16)
(1.1966e-30 -1.94169e-14 -0)
(-4.98621e-27 9.03543e-13 9.03543e-13)
(-3.48001e-28 -4.24449e-13 0)
(-1.27761e-28 2.77217e-13 2.77217e-13)
(-5.64456e-30 1.02761e-13 -0)
(-1.58405e-29 1.18902e-13 1.18902e-13)
(-2.11526e-29 1.32416e-13 -0)
(-6.68172e-30 6.54262e-14 6.54262e-14)
(-3.56132e-32 4.16581e-14 -0)
(1.28136e-30 5.47739e-14 5.47739e-14)
(-1.90834e-31 2.93907e-14 -0)
(2.84318e-32 5.29645e-14 5.29645e-14)
(2.12567e-31 3.56456e-14 0)
(-8.99028e-31 1.05932e-14 1.05932e-14)
(-5.77222e-30 5.77402e-14 -0)
(3.0428e-30 -2.5321e-14 -2.5321e-14)
(-2.37583e-30 2.01667e-14 -0)
(3.5586e-30 -7.00716e-14 -7.00716e-14)
(-5.97413e-33 -1.46406e-16 0)
(-3.47483e-30 7.04532e-14 7.04532e-14)
(-4.5142e-30 3.71154e-14 -0)
(-6.9282e-26 -1.97635e-12 -1.97635e-12)
(-2.49142e-26 3.12461e-12 -0)
(-1.23262e-27 -7.51136e-13 -7.51136e-13)
(-1.02988e-28 2.22823e-13 -0)
(1.40922e-30 -3.12322e-14 -3.12322e-14)
(-2.60824e-31 1.7403e-15 -0)
(1.21789e-30 -1.94788e-14 -1.94788e-14)
(-8.55439e-31 -1.90457e-14 0)
(5.74738e-30 4.49249e-14 4.49249e-14)
(4.54518e-31 3.29917e-15 0)
(6.59816e-30 6.94972e-14 6.94972e-14)
(-9.91491e-31 6.56461e-14 -0)
(-1.11709e-30 5.75281e-14 5.75281e-14)
(-1.69416e-30 3.50877e-14 -0)
(-7.01023e-31 7.06362e-15 7.06362e-15)
(-3.6605e-30 3.07813e-14 -0)
(-6.59718e-30 4.85064e-14 4.85064e-14)
(-1.03108e-30 1.66617e-14 -0)
(1.12763e-31 -3.57153e-15 -3.57153e-15)
(1.51095e-31 -5.77406e-15 -0)
(-1.03292e-25 2.70314e-12 2.70314e-12)
(-2.75922e-26 -3.48039e-12 0)
(-1.63522e-27 7.96593e-13 7.96593e-13)
(-4.89868e-29 -2.10217e-13 0)
(4.74029e-31 -2.13862e-15 -2.13862e-15)
(7.92313e-31 -4.76303e-14 -0)
(-3.52765e-31 2.15121e-14 2.15121e-14)
(-1.24318e-30 -3.16371e-14 0)
(6.22379e-32 2.1519e-15 2.1519e-15)
(5.24823e-31 2.95244e-14 0)
(1.56834e-31 3.31633e-14 3.31633e-14)
(9.9785e-31 -2.33106e-14 -0)
(-1.75583e-31 5.28617e-15 5.28617e-15)
(-6.86706e-31 7.17798e-15 -0)
(4.55393e-31 -4.33727e-15 -4.33727e-15)
(2.69749e-31 -5.15816e-15 -0)
(3.71222e-31 -6.94993e-15 -6.94993e-15)
(-5.97285e-31 -3.47185e-14 0)
(-1.28082e-30 -5.63724e-14 -5.63724e-14)
(1.29136e-30 3.32598e-14 0)
(-3.91436e-26 -1.90324e-12 -1.90324e-12)
(-8.30668e-27 1.95686e-12 -0)
(-3.56547e-28 -4.90311e-13 -4.90311e-13)
(-2.70115e-29 6.34069e-14 -0)
(1.9891e-29 -1.11789e-13 -1.11789e-13)
(1.02599e-29 -8.46069e-14 -0)
(1.10595e-29 -7.62635e-14 -7.62635e-14)
(1.95256e-29 -1.13665e-13 -0)
(1.43557e-29 -1.55075e-13 -1.55075e-13)
(-3.7925e-30 -1.59948e-13 0)
(-1.44184e-29 -9.50713e-14 -9.50713e-14)
(-1.78744e-29 -1.10834e-13 0)
(-7.49702e-30 -4.26473e-14 -4.26473e-14)
(-2.25322e-31 -4.93649e-15 0)
(-1.57538e-30 3.43263e-14 3.43263e-14)
(7.98637e-31 -3.00599e-14 -0)
(5.50747e-32 -3.36927e-15 -3.36927e-15)
(-4.3397e-31 -6.09123e-14 0)
(1.06372e-31 2.09908e-15 2.09908e-15)
(3.24807e-31 -2.34241e-14 -0)
(-2.24112e-26 -1.00433e-12 -1.00433e-12)
(-1.02623e-26 1.96447e-12 -0)
(-4.79952e-28 -4.59938e-13 -4.59938e-13)
(-1.6919e-29 4.78616e-14 -0)
(3.95961e-32 1.73687e-15 1.73687e-15)
(-7.90497e-31 7.91945e-15 -0)
(2.64539e-31 -4.69065e-15 -4.69065e-15)
(1.03068e-31 -1.94797e-15 -0)
(1.65705e-31 -4.48853e-15 -4.48853e-15)
(2.69103e-32 -3.35316e-15 -0)
(1.7889e-31 -5.28339e-14 -5.28339e-14)
(-1.12738e-31 5.17452e-15 -0)
(-3.10998e-31 5.64107e-15 5.64107e-15)
(-2.21085e-30 2.82725e-14 -0)
(6.30464e-30 -9.43728e-14 -9.43728e-14)
(-5.40127e-30 -1.0312e-13 0)
(3.17848e-31 2.10159e-15 2.10159e-15)
(4.6832e-31 1.49324e-14 0)
(1.59338e-32 8.3098e-15 8.3098e-15)
(-1.14456e-30 2.21233e-14 -0)
(-2.02062e-25 3.78484e-12 3.78484e-12)
(-5.29097e-26 -4.72326e-12 0)
(-3.67341e-27 1.26584e-12 1.26584e-12)
(-7.07097e-29 -1.60382e-13 0)
(-4.16315e-29 1.94605e-13 1.94605e-13)
(-1.46142e-29 9.74835e-14 -0)
(-9.91092e-30 9.47863e-14 9.47863e-14)
(-1.38603e-30 1.02092e-13 -0)
(-6.18551e-30 1.49837e-13 1.49837e-13)
(-2.09902e-29 1.3396e-13 -0)
(-2.60049e-29 8.76522e-14 8.76522e-14)
(3.558e-30 -1.61683e-14 -0)
(9.58102e-30 -7.09707e-14 -7.09707e-14)
(2.03079e-30 -3.87154e-14 -0)
(1.23683e-31 -6.54542e-15 -6.54542e-15)
(-4.77565e-31 -3.67363e-14 0)
(-4.76672e-30 -6.15722e-14 -6.15722e-14)
(4.66148e-30 5.38148e-14 0)
(8.22565e-31 1.01089e-14 1.01089e-14)
(2.95367e-31 -2.04149e-14 -0)
(-1.62951e-25 -4.66304e-12 -4.66304e-12)
(-2.50476e-26 3.43664e-12 -0)
(-1.70243e-27 -1.02371e-12 -1.02371e-12)
(-3.07726e-29 1.01269e-13 -0)
(-8.13668e-30 -7.52011e-14 -7.52011e-14)
(2.91317e-30 -3.10046e-14 -0)
(1.43032e-29 -1.15483e-13 -1.15483e-13)
(2.43678e-30 -1.04422e-13 -0)
(-7.85439e-30 -7.32572e-14 -7.32572e-14)
(-8.51751e-30 -5.09618e-14 0)
(-8.98285e-31 -1.20199e-14 -1.20199e-14)
(5.74895e-33 3.5305e-16 0)
(-2.90694e-30 -4.08262e-14 -4.08262e-14)
(-1.27546e-30 -8.30942e-15 0)
(2.56549e-30 1.6627e-14 1.6627e-14)
(-7.74614e-31 6.06373e-14 -0)
(-1.12326e-29 6.20497e-14 6.20497e-14)
(6.49841e-30 -7.12776e-14 -0)
(-2.07674e-31 2.00644e-14 2.00644e-14)
(-4.98199e-31 2.39936e-14 -0)
(-7.01982e-26 4.50855e-12 4.50855e-12)
(-4.78972e-27 -2.17963e-12 0)
(-3.06971e-28 3.73879e-13 3.73879e-13)
(5.04593e-29 -2.71212e-13 -0)
(8.73149e-31 -1.39202e-13 -1.39202e-13)
(-1.05898e-29 -8.69641e-14 0)
(-3.26752e-30 -6.50677e-14 -6.50677e-14)
(3.19161e-30 -7.84119e-14 -0)
(-2.07042e-30 -9.77325e-14 -9.77325e-14)
(-8.83051e-30 -7.15192e-14 0)
(-1.56974e-31 -8.07995e-16 -8.07995e-16)
(9.22478e-30 7.01236e-14 0)
(3.27924e-30 9.33164e-14 9.33164e-14)
(3.68621e-31 3.19484e-14 0)
(-1.17429e-30 8.834e-14 8.834e-14)
(-7.06984e-30 1.20419e-13 -0)
(-9.17858e-30 6.88671e-14 6.88671e-14)
(6.89593e-31 -3.35928e-15 -0)
(2.39307e-30 -2.40058e-14 -2.40058e-14)
(-1.16841e-30 -3.35959e-14 0)
(-3.42481e-26 -1.97143e-12 -1.97143e-12)
(-7.0388e-27 1.94387e-12 -0)
(-1.36675e-28 -2.12215e-13 -2.12215e-13)
(-7.85629e-29 1.89455e-13 -0)
(6.41922e-30 -3.85975e-14 -3.85975e-14)
(2.5936e-31 -9.03617e-15 -0)
(-5.23907e-30 6.89806e-14 6.89806e-14)
(-1.10196e-29 6.24671e-14 -0)
(1.6029e-30 -1.01117e-14 -1.01117e-14)
(1.99199e-30 -2.64576e-14 -0)
(-2.83663e-30 -2.67466e-14 -2.67466e-14)
(1.44465e-30 7.51732e-15 0)
(1.00944e-30 3.26864e-14 3.26864e-14)
(-2.17859e-30 1.61751e-14 -0)
(1.29863e-30 -9.92318e-15 -9.92318e-15)
(2.4471e-30 -6.90173e-14 -0)
(-3.96818e-31 -2.30659e-14 -2.30659e-14)
(-4.01691e-30 5.29599e-14 -0)
(-2.91886e-30 -9.82579e-14 -9.82579e-14)
(1.15369e-30 1.23285e-14 0)
(4.55297e-27 -5.03388e-13 -5.03388e-13)
(-1.59447e-27 -6.57961e-13 0)
(-4.84279e-29 1.6326e-13 1.6326e-13)
(2.13731e-29 8.5954e-14 0)
(-4.07964e-30 5.66861e-14 5.66861e-14)
(-3.72724e-30 7.90472e-14 -0)
(-6.91497e-30 1.40294e-13 1.40294e-13)
(-3.61873e-30 3.81574e-14 -0)
(-5.26312e-30 3.29331e-14 3.29331e-14)
(-7.06995e-30 4.61732e-14 -0)
(7.69148e-31 -9.68174e-15 -9.68174e-15)
(2.62584e-31 -4.66396e-15 -0)
(-7.5307e-31 2.29569e-14 2.29569e-14)
(2.42938e-32 -1.63933e-15 -0)
(-4.40613e-31 2.68498e-14 2.68498e-14)
(-3.32699e-31 2.71221e-14 -0)
(3.92001e-31 -2.36416e-14 -2.36416e-14)
(-3.21884e-32 6.86306e-16 -0)
(-1.1914e-30 5.08187e-14 5.08187e-14)
(4.73127e-32 -3.6431e-15 -0)
(-3.74913e-26 2.23763e-12 2.23763e-12)
(-6.36743e-27 -1.77153e-12 0)
(-2.61732e-28 3.9306e-13 3.9306e-13)
(-2.92857e-29 -1.42293e-13 0)
(-4.27631e-30 7.62166e-14 7.62166e-14)
(2.03289e-31 -1.42645e-14 -0)
(-5.17585e-30 -5.98101e-14 -5.98101e-14)
(3.46495e-30 8.2995e-14 0)
(-2.33027e-29 1.15755e-13 1.15755e-13)
(1.55819e-29 -5.14855e-14 -0)
(1.58421e-29 -6.93136e-14 -6.93136e-14)
(1.13545e-29 -7.48925e-14 -0)
(2.3252e-30 -1.06988e-13 -1.06988e-13)
(-1.00545e-29 -9.5651e-14 0)
(-3.41774e-30 -2.81006e-14 -2.81006e-14)
(4.29013e-30 3.72823e-14 0)
(1.51502e-30 7.63128e-14 7.63128e-14)
(-4.26362e-30 4.02398e-14 -0)
(-5.42137e-30 4.86243e-14 4.86243e-14)
(-5.48356e-31 1.09458e-14 -0)
(-1.61402e-25 -3.91526e-12 -3.91526e-12)
(-3.27547e-26 3.9438e-12 -0)
(-1.90969e-27 -9.28449e-13 -9.28449e-13)
(-9.57914e-29 2.54688e-13 -0)
(-4.5667e-30 -8.76827e-14 -8.76827e-14)
(-3.83471e-32 9.26567e-16 -0)
(-2.72219e-30 -6.3578e-14 -6.3578e-14)
(3.52209e-31 6.73529e-15 0)
(-1.16501e-30 4.74808e-14 4.74808e-14)
(-1.07608e-29 7.10449e-14 -0)
(-8.44498e-31 4.37826e-15 4.37826e-15)
(1.12894e-30 -5.78212e-15 -0)
(2.18965e-30 -1.6212e-14 -1.6212e-14)
(1.27748e-30 -3.8563e-14 -0)
(5.12767e-31 -2.50334e-14 -2.50334e-14)
(3.14294e-30 -5.83714e-14 -0)
(-1.45397e-30 -6.88128e-14 -6.88128e-14)
(-2.68418e-30 -2.9118e-14 0)
(-1.78988e-30 -4.33817e-14 -4.33817e-14)
(3.95917e-31 -2.45893e-14 -0)
(-1.30001e-25 2.92123e-12 2.92123e-12)
(-3.84257e-26 -4.00369e-12 0)
(-1.99113e-27 9.82975e-13 9.82975e-13)
(-8.01485e-29 -1.37959e-13 0)
(-1.47526e-29 1.41957e-13 1.41957e-13)
(-5.20325e-31 2.04399e-14 -0)
(-1.90938e-30 5.12288e-14 5.12288e-14)
(1.86242e-31 4.27517e-14 0)
(-2.23692e-31 -2.89334e-15 -2.89334e-15)
(2.49224e-30 7.48651e-14 0)
(-1.44874e-29 1.12099e-13 1.12099e-13)
(-3.31344e-29 1.20685e-13 -0)
(-1.03617e-29 4.1137e-14 4.1137e-14)
(-9.31832e-30 6.47907e-14 -0)
(-3.45888e-31 3.99233e-15 3.99233e-15)
(6.51092e-31 -3.54345e-15 -0)
(5.72676e-30 -1.11843e-13 -1.11843e-13)
(-7.95958e-30 -6.54953e-14 0)
(-2.569e-30 -4.1672e-14 -4.1672e-14)
(-2.22605e-32 5.77966e-15 -0)
(-6.06893e-27 -8.57845e-13 -8.57845e-13)
(-8.0131e-28 6.64059e-13 -0)
(-8.952e-29 -2.06249e-13 -2.06249e-13)
(-7.35668e-31 -1.72479e-14 0)
(-4.69555e-30 -7.28938e-14 -7.28938e-14)
(2.38661e-31 -5.74246e-15 -0)
(1.21384e-29 -8.13511e-14 -8.13511e-14)
(3.02621e-30 -7.34501e-14 -0)
(-2.78921e-30 -6.45794e-14 -6.45794e-14)
(-1.10158e-30 -1.76277e-14 0)
(-1.09721e-30 2.12705e-14 2.12705e-14)
(3.16691e-33 -2.10827e-17 -0)
(3.6916e-30 -7.18592e-14 -7.18592e-14)
(-3.45789e-31 -1.31592e-14 0)
(4.32702e-30 5.39397e-14 5.39397e-14)
(3.94003e-31 1.35949e-14 0)
(-2.12044e-30 3.80491e-14 3.80491e-14)
(-4.29701e-30 5.34067e-14 -0)
(-2.15374e-30 4.51571e-14 4.51571e-14)
(-3.78937e-32 -3.76224e-15 0)
(-1.23276e-25 -2.39959e-12 -2.39959e-12)
(-4.76658e-26 4.39569e-12 -0)
(-2.63844e-27 -1.03961e-12 -1.03961e-12)
(-1.0271e-28 2.29421e-13 -0)
(-1.14585e-29 -4.70174e-14 -4.70174e-14)
(-5.66647e-31 -2.52028e-14 0)
(-1.88431e-30 4.06394e-14 4.06394e-14)
(5.04139e-30 -4.46695e-14 -0)
(7.14225e-30 -5.03783e-14 -5.03783e-14)
(3.57116e-30 -2.36223e-14 -0)
(6.35238e-30 -3.59704e-14 -3.59704e-14)
(5.08854e-30 -8.13853e-14 -0)
(-4.56594e-30 -4.79857e-14 -4.79857e-14)
(-8.05799e-30 -5.50851e-14 0)
(-4.33953e-30 -4.17658e-14 -4.17658e-14)
(4.71487e-31 2.15888e-14 0)
(-7.30869e-30 6.52643e-14 6.52643e-14)
(7.37631e-31 -8.31582e-15 -0)
(-6.47864e-31 2.24735e-14 2.24735e-14)
(-8.4703e-31 1.99836e-14 -0)
(-1.37412e-25 3.48088e-12 3.48088e-12)
(-2.78882e-26 -3.64607e-12 0)
(-1.76616e-27 9.14565e-13 9.14565e-13)
(-6.98073e-29 -1.74289e-13 0)
(1.19343e-29 1.44134e-13 1.44134e-13)
(5.36142e-30 1.23574e-13 0)
(-9.12745e-30 1.32779e-13 1.32779e-13)
(-2.57719e-29 1.28728e-13 -0)
(-3.67513e-29 1.35204e-13 1.35204e-13)
(-6.85538e-30 3.48002e-14 -0)
(2.13954e-30 -2.75282e-14 -2.75282e-14)
(1.58147e-30 2.02003e-14 0)
(-3.39894e-31 3.91819e-14 3.91819e-14)
(-2.39534e-30 5.63884e-14 -0)
(1.30811e-31 -4.2948e-15 -4.2948e-15)
(2.73523e-32 5.83551e-14 0)
(-5.92695e-31 8.24245e-15 8.24245e-15)
(3.40883e-31 -4.15935e-15 -0)
(1.01633e-30 -3.35266e-14 -3.35266e-14)
(5.66101e-31 -3.19105e-14 -0)
(-6.70309e-26 1.91106e-12 1.91106e-12)
(-2.11598e-26 -3.13522e-12 0)
(-9.90481e-28 5.42517e-13 5.42517e-13)
(-5.00586e-29 -2.08866e-13 0)
(2.69605e-31 -3.32665e-14 -3.32665e-14)
(-1.4393e-30 -4.7608e-14 0)
(3.00901e-30 -4.05935e-14 -4.05935e-14)
(5.44023e-30 -5.1355e-14 -0)
(9.23137e-30 -8.99076e-14 -8.99076e-14)
(1.43035e-30 -7.14831e-14 -0)
(-8.45446e-31 -1.20686e-14 -1.20686e-14)
(-1.93997e-30 -1.92694e-14 0)
(-5.9005e-31 7.10621e-14 7.10621e-14)
(-5.77102e-31 8.5064e-15 -0)
(3.99453e-31 -4.2783e-15 -4.2783e-15)
(1.53798e-30 -6.13711e-14 -0)
(-9.97277e-32 4.58366e-15 4.58366e-15)
(-2.02005e-31 2.84928e-15 -0)
(3.92457e-31 -7.81009e-15 -7.81009e-15)
(-3.101e-32 -4.30461e-15 0)
)
;

boundaryField
{
    movingWall
    {
        type            calculated;
        value           nonuniform List<vector> 
20
(
(0 3.1879e-12 -0)
(0 -3.94669e-12 -0)
(0 2.06848e-13 -0)
(0 -3.59397e-13 -0)
(0 -2.4551e-13 -0)
(0 -3.0426e-13 -0)
(0 -2.52837e-13 -0)
(0 -2.1919e-13 -0)
(0 -2.30637e-13 -0)
(0 -1.06091e-13 -0)
(0 -1.20686e-14 -0)
(0 -8.09822e-14 -0)
(0 -2.7557e-14 -0)
(0 -3.59025e-14 -0)
(0 -9.30961e-14 -0)
(0 -1.40388e-13 -0)
(0 4.58366e-15 -0)
(0 -4.15596e-14 -0)
(0 -7.81009e-15 -0)
(0 -4.30461e-15 -0)
)
;
    }
    fixedWalls
    {
        type            calculated;
        value           nonuniform List<vector> 
60
(
(0 -2.22311e-11 -0)
(0 -5.32105e-12 -0)
(0 1.51191e-11 -0)
(0 2.64109e-12 -0)
(0 -1.32903e-11 -0)
(0 1.49595e-11 -0)
(0 -8.49778e-12 -0)
(0 -8.22109e-12 -0)
(0 2.09212e-11 -0)
(0 -1.58754e-11 -0)
(0 9.3993e-12 -0)
(0 -7.5452e-12 -0)
(0 2.45234e-12 -0)
(0 7.62353e-12 -0)
(0 -1.71129e-11 -0)
(0 1.72316e-11 -0)
(0 -3.1009e-12 -0)
(0 -1.88961e-11 -0)
(0 1.60886e-11 -0)
(0 1.31086e-11 -0)
(0 5.39048e-16 -0)
(0 -4.01984e-14 -0)
(0 -2.46506e-14 -0)
(0 5.55972e-15 -0)
(0 -1.04672e-14 -0)
(0 4.26356e-14 -0)
(0 -3.26516e-14 -0)
(0 6.4109e-15 -0)
(0 -3.28924e-14 -0)
(0 1.87995e-14 -0)
(0 -1.31937e-14 -0)
(0 3.74315e-14 -0)
(0 -5.19478e-15 -0)
(0 7.06613e-15 -0)
(0 -3.35455e-14 -0)
(0 -1.54061e-15 -0)
(0 4.02885e-15 -0)
(0 1.01506e-14 -0)
(0 -3.42012e-14 -0)
(0 2.88157e-15 -0)
(0 -5.0216e-12 -0)
(0 5.74155e-12 -0)
(0 -7.70509e-13 -0)
(0 5.05896e-13 -0)
(0 1.49192e-13 -0)
(0 2.60068e-13 -0)
(0 1.33679e-13 -0)
(0 9.91202e-14 -0)
(0 9.51901e-14 -0)
(0 -7.86021e-15 -0)
(0 -1.1831e-14 -0)
(0 -7.98214e-14 -0)
(0 -5.46884e-14 -0)
(0 -7.4147e-14 -0)
(0 2.37719e-14 -0)
(0 6.24482e-14 -0)
(0 -5.47524e-15 -0)
(0 1.27541e-14 -0)
(0 6.73489e-15 -0)
(0 1.34168e-15 -0)
)
;
    }
    frontAndBack
    {
        type            empty;
    }
}


// ************************************************************************* //
