/*--------------------------------*- C++ -*----------------------------------*\
| =========                 |                                                 |
| \\      /  F ield         | OpenFOAM: The Open Source CFD Toolbox           |
|  \\    /   O peration     | Version:  2312                                  |
|   \\  /    A nd           | Website:  www.openfoam.com                      |
|    \\/     M anipulation  |                                                 |
\*---------------------------------------------------------------------------*/
FoamFile
{
    version     2.0;
    format      ascii;
    arch        "LSB;label=32;scalar=64";
    class       volScalarField;
    location    "8.25";
    object      Lambda2Field;
}
// * * * * * * * * * * * * * * * * * * * * * * * * * * * * * * * * * * * * * //

dimensions      [0 0 -2 0 0 0 0];

internalField   nonuniform List<scalar> 
400
(
0
0
6.156e-26
-1.2511e-26
3.94936e-27
1.43596e-27
7.34684e-28
0
1.71322e-28
0
0
1.14552e-27
1.85016e-27
1.53095e-27
0
-1.39971e-27
2.11013e-28
0
0
0
1.0772e-24
5.607e-25
0
1.09181e-26
0
-2.63559e-27
7.67566e-28
1.48364e-27
4.6315e-28
0
0
2.64534e-28
0
3.91944e-28
0
0
5.15595e-28
4.3415e-28
0
-1.35936e-29
5.94254e-24
1.60354e-24
1.1071e-25
2.23712e-28
0
2.51259e-27
1.426e-27
-3.02929e-28
9.2818e-29
-1.0385e-27
2.5366e-29
6.2014e-28
0
0
0
0
3.13446e-29
0
0
2.45409e-28
1.56021e-24
2.26355e-24
8.91961e-26
1.10526e-26
1.80233e-27
4.21451e-28
1.29201e-27
6.80443e-28
0
0
1.10421e-27
0
0
0
4.83574e-29
1.94212e-28
0
2.27128e-32
0
9.39279e-28
2.9341e-24
1.2298e-24
3.59995e-26
-6.20179e-27
3.22057e-28
0
1.68348e-28
0
5.03353e-28
0
0
0
5.54815e-28
0
1.47761e-29
0
3.09196e-28
2.83068e-28
5.50892e-29
2.5745e-28
1.48166e-24
6.29076e-25
0
0
6.76716e-28
0
3.35341e-28
3.46736e-28
0
6.45133e-29
1.4291e-28
1.02849e-28
0
8.8224e-29
3.31651e-29
0
1.55261e-28
0
6.17467e-28
0
9.31784e-26
5.12953e-25
0
5.89349e-27
0
-1.98475e-28
4.10779e-28
0
2.89308e-28
-3.71211e-28
1.14171e-27
0
6.26823e-28
6.03932e-28
0
0
4.21677e-28
-3.61321e-28
5.4293e-30
9.97719e-29
2.15658e-24
1.146e-24
3.15684e-26
1.30482e-26
7.01316e-28
0
0
0
0
0
2.78256e-27
1.45414e-27
9.73866e-28
6.45891e-29
0
-1.03837e-27
8.90189e-29
0
2.66847e-29
1.35035e-28
3.38408e-24
1.6847e-24
0
2.91682e-26
0
1.18576e-27
2.21287e-27
6.86071e-28
0
-2.46226e-27
0
1.44939e-29
0
2.22119e-28
4.99574e-28
-2.18607e-28
1.6527e-27
2.1432e-29
0
1.81338e-28
0
4.49956e-25
0
1.2359e-26
7.07086e-28
1.99266e-27
0
-1.87161e-27
0
9.10777e-28
2.85541e-27
7.34684e-28
0
4.09503e-29
0
-8.57471e-28
0
0
6.19299e-28
1.08587e-28
0
-9.04912e-25
0
-8.84693e-27
2.26047e-27
-4.16763e-28
2.40257e-27
2.3608e-28
1.75909e-27
0
0
0
0
6.99217e-28
0
-5.66217e-28
0
0
1.60115e-28
0
5.77442e-25
0
4.87721e-26
0
0
0
4.87887e-28
-4.18309e-28
3.5316e-28
7.65012e-28
0
3.5288e-28
0
6.94708e-30
0
-7.81131e-28
1.09482e-28
3.18615e-28
0
0
1.57179e-24
7.10303e-25
3.01562e-26
6.28588e-27
1.22982e-28
1.86509e-28
2.29248e-27
1.76346e-28
0
9.52589e-28
0
1.18189e-27
2.71875e-28
5.7506e-28
8.24677e-28
0
9.38763e-29
9.06434e-30
9.18532e-28
2.06428e-28
0
0
0
-1.05503e-27
0
0
4.31106e-28
-1.34396e-27
0
1.47728e-28
0
-9.28131e-28
0
-4.31038e-28
0
-2.58568e-28
0
-1.62576e-28
3.02806e-28
4.38094e-28
0
0
0
-9.4606e-27
0
1.25552e-30
0
1.3982e-29
7.87634e-28
0
1.03437e-28
0
5.95397e-28
3.09132e-28
5.61527e-29
6.67331e-28
0
4.6293e-28
5.87008e-28
6.81898e-29
2.00515e-24
1.05456e-24
0
1.11522e-26
0
1.8066e-28
8.96299e-28
6.21164e-28
0
-6.61935e-28
0
-1.30945e-27
1.2018e-27
1.34369e-27
0
6.86008e-29
0
0
1.19296e-27
6.85042e-30
6.25306e-27
3.55587e-25
1.62896e-26
2.73841e-27
1.41947e-27
6.02016e-28
0
0
0
2.56885e-28
0
0
1.53851e-27
0
1.4661e-29
4.22651e-28
1.0224e-28
4.85527e-28
1.08242e-27
0
6.86656e-24
2.48845e-24
0
7.34684e-28
5.56038e-28
1.64465e-27
1.10792e-28
5.17195e-28
2.07722e-28
7.6772e-28
9.00037e-29
0
0
0
1.2332e-27
8.12995e-30
0
2.24238e-32
2.54825e-28
1.93026e-28
0
1.41285e-24
0
5.4588e-27
0
-1.64242e-27
2.97728e-28
0
4.35243e-29
1.05221e-27
7.97829e-28
4.53496e-28
1.63492e-28
3.40412e-28
3.93761e-28
-2.02703e-28
0
0
1.11541e-28
0
2.61341e-24
6.77882e-25
8.23297e-26
-8.28151e-28
1.46782e-27
3.579e-28
1.35423e-27
8.89458e-28
3.59914e-29
0
0
5.32673e-28
0
1.21711e-28
0
0
0
2.3364e-28
0
0
)
;

boundaryField
{
    movingWall
    {
        type            calculated;
        value           nonuniform List<scalar> 
20
(
0
0
3.00829e-25
-2.30967e-26
8.51924e-27
2.05234e-27
4.36287e-27
1.36864e-27
0
0
0
1.43063e-27
9.49255e-28
1.11244e-27
0
-2.19354e-28
0
8.61217e-28
0
0
)
;
    }
    fixedWalls
    {
        type            calculated;
        value           nonuniform List<scalar> 
60
(
0
5.71932e-24
3.73512e-23
3.88092e-23
3.20049e-23
7.07074e-24
7.99378e-24
2.37162e-23
4.3624e-23
0
0
0
1.73668e-23
0
0
1.05189e-23
4.98376e-24
3.65326e-23
1.23491e-23
1.3056e-23
0
7.59576e-28
3.97322e-28
2.63734e-27
0
0
0
5.6092e-28
0
2.49374e-28
5.51329e-28
0
2.13175e-28
5.43253e-28
0
6.85042e-30
0
4.59552e-28
1.24681e-28
0
0
0
3.39096e-25
-3.51238e-28
1.61766e-26
3.26318e-27
6.74476e-28
0
1.68711e-28
1.49407e-28
0
3.73778e-27
3.0313e-27
4.24177e-27
1.65115e-27
2.3421e-27
7.34684e-28
0
0
0
)
;
    }
    frontAndBack
    {
        type            empty;
    }
}


// ************************************************************************* //
