/*--------------------------------*- C++ -*----------------------------------*\
| =========                 |                                                 |
| \\      /  F ield         | OpenFOAM: The Open Source CFD Toolbox           |
|  \\    /   O peration     | Version:  2312                                  |
|   \\  /    A nd           | Website:  www.openfoam.com                      |
|    \\/     M anipulation  |                                                 |
\*---------------------------------------------------------------------------*/
FoamFile
{
    version     2.0;
    format      ascii;
    arch        "LSB;label=32;scalar=64";
    class       volScalarField;
    location    "8.25";
    object      magSqrP;
}
// * * * * * * * * * * * * * * * * * * * * * * * * * * * * * * * * * * * * * //

dimensions      [0 4 -4 0 0 0 0];

internalField   nonuniform List<scalar> 
400
(
7.92731e-31
2.08216e-29
2.46427e-29
3.81664e-29
4.59728e-29
5.45976e-29
6.0979e-29
6.57788e-29
7.07266e-29
7.8666e-29
8.32588e-29
8.63116e-29
9.4283e-29
9.49915e-29
9.78964e-29
1.04973e-28
1.09926e-28
1.09146e-28
1.09587e-28
1.0926e-28
1.24566e-29
5.39136e-30
2.86327e-29
3.88884e-29
5.18465e-29
5.58876e-29
6.07757e-29
6.59722e-29
7.15909e-29
7.97712e-29
8.26798e-29
8.50291e-29
9.28758e-29
1.02197e-28
1.02414e-28
1.04867e-28
1.06193e-28
1.06769e-28
1.10309e-28
1.08933e-28
2.25159e-29
2.57731e-29
3.29593e-29
4.50071e-29
5.28417e-29
5.72116e-29
6.11554e-29
6.88788e-29
7.41415e-29
7.82642e-29
8.36493e-29
8.59375e-29
9.08884e-29
9.91422e-29
1.03911e-28
1.05284e-28
1.05477e-28
1.0774e-28
1.10729e-28
1.0724e-28
2.66636e-29
3.62088e-29
4.22809e-29
4.9889e-29
5.45573e-29
6.26065e-29
6.75722e-29
7.17731e-29
7.79829e-29
8.31016e-29
8.72775e-29
8.40863e-29
9.20052e-29
9.7374e-29
1.02961e-28
1.09408e-28
1.04599e-28
1.00393e-28
1.06741e-28
1.13468e-28
3.81114e-29
4.84763e-29
5.15734e-29
5.68218e-29
6.00107e-29
6.76583e-29
7.37014e-29
7.68104e-29
7.91282e-29
8.40722e-29
8.77122e-29
8.83759e-29
9.43128e-29
9.77662e-29
1.04452e-28
1.09538e-28
1.0677e-28
1.02023e-28
1.047e-28
1.15011e-28
4.90157e-29
4.47965e-29
6.0828e-29
6.19011e-29
6.89652e-29
7.17396e-29
7.63553e-29
7.97546e-29
8.30685e-29
8.66404e-29
8.93275e-29
8.9707e-29
9.63884e-29
1.00746e-28
1.05761e-28
1.07303e-28
1.09621e-28
1.02028e-28
1.06574e-28
1.15428e-28
6.06281e-29
9.1351e-29
6.89957e-29
7.36718e-29
7.5261e-29
7.66837e-29
8.09612e-29
8.376e-29
8.56988e-29
8.89291e-29
9.31702e-29
9.67942e-29
1.01208e-28
1.04544e-28
1.07953e-28
1.07875e-28
1.10011e-28
1.03193e-28
1.0716e-28
1.13179e-28
7.89278e-29
4.36207e-29
7.9883e-29
7.83213e-29
8.58567e-29
8.05153e-29
8.24952e-29
9.0925e-29
9.54241e-29
9.50177e-29
9.34544e-29
1.00876e-28
1.02365e-28
1.0485e-28
1.08634e-28
1.07561e-28
1.11734e-28
1.08243e-28
1.08641e-28
1.1708e-28
8.02015e-29
1.08142e-28
8.97664e-29
9.06398e-29
8.90542e-29
9.06045e-29
9.25407e-29
9.56797e-29
9.79709e-29
9.81894e-29
1.00867e-28
1.04414e-28
1.06417e-28
1.06551e-28
1.11631e-28
1.09086e-28
1.07618e-28
1.08895e-28
1.10704e-28
1.1782e-28
8.92784e-29
8.66854e-29
1.00396e-28
9.8076e-29
9.68016e-29
9.88852e-29
1.00195e-28
1.0104e-28
1.00764e-28
1.0179e-28
1.08177e-28
1.07614e-28
1.07016e-28
1.07371e-28
1.11028e-28
1.09823e-28
1.10335e-28
1.07896e-28
1.09934e-28
1.19885e-28
1.00918e-28
8.85112e-29
1.02383e-28
1.01099e-28
9.99343e-29
1.05715e-28
1.0808e-28
1.04619e-28
1.00839e-28
1.04059e-28
1.09856e-28
1.11821e-28
1.09858e-28
1.07845e-28
1.10215e-28
1.09445e-28
1.10411e-28
1.08524e-28
1.11912e-28
1.20196e-28
9.78007e-29
1.36601e-28
1.10491e-28
1.13441e-28
1.0956e-28
1.09929e-28
1.09156e-28
1.09668e-28
1.08201e-28
1.07419e-28
1.10811e-28
1.09457e-28
1.0875e-28
1.08723e-28
1.11378e-28
1.11091e-28
1.11339e-28
1.12219e-28
1.12925e-28
1.17012e-28
1.08915e-28
8.35852e-29
1.12209e-28
1.15018e-28
1.18777e-28
1.13934e-28
1.16084e-28
1.15893e-28
1.14789e-28
1.1223e-28
1.12037e-28
1.08304e-28
1.08537e-28
1.10452e-28
1.11808e-28
1.10835e-28
1.11924e-28
1.14771e-28
1.12877e-28
1.12132e-28
1.12054e-28
1.43287e-28
1.15376e-28
1.19633e-28
1.21682e-28
1.20199e-28
1.18782e-28
1.21199e-28
1.2098e-28
1.16265e-28
1.13466e-28
1.10899e-28
1.11579e-28
1.09243e-28
1.12349e-28
1.12235e-28
1.11939e-28
1.1379e-28
1.13563e-28
1.1818e-28
1.28548e-28
1.07652e-28
1.22523e-28
1.23428e-28
1.26305e-28
1.23894e-28
1.22628e-28
1.21136e-28
1.25271e-28
1.23905e-28
1.19505e-28
1.12122e-28
1.11456e-28
1.10535e-28
1.11741e-28
1.09955e-28
1.13986e-28
1.16015e-28
1.1422e-28
1.17126e-28
1.30959e-28
1.10577e-28
1.24959e-28
1.29806e-28
1.33946e-28
1.29802e-28
1.2433e-28
1.2227e-28
1.22407e-28
1.21433e-28
1.19085e-28
1.17132e-28
1.18248e-28
1.147e-28
1.12361e-28
1.16869e-28
1.19194e-28
1.1339e-28
1.11496e-28
1.19008e-28
1.27425e-28
1.58991e-28
1.29515e-28
1.3584e-28
1.36424e-28
1.31582e-28
1.28746e-28
1.22584e-28
1.2253e-28
1.21288e-28
1.19007e-28
1.19253e-28
1.2164e-28
1.17541e-28
1.11269e-28
1.19186e-28
1.2049e-28
1.14526e-28
1.11837e-28
1.16656e-28
1.45389e-28
1.0572e-28
1.31645e-28
1.34588e-28
1.36259e-28
1.31901e-28
1.34876e-28
1.27864e-28
1.22796e-28
1.21563e-28
1.18247e-28
1.23306e-28
1.19857e-28
1.14747e-28
1.12536e-28
1.18873e-28
1.21111e-28
1.14077e-28
1.14142e-28
1.19201e-28
1.43285e-28
1.13308e-28
1.29709e-28
1.30749e-28
1.38136e-28
1.34335e-28
1.29652e-28
1.2604e-28
1.23301e-28
1.22623e-28
1.23382e-28
1.24526e-28
1.21384e-28
1.15428e-28
1.14844e-28
1.1957e-28
1.21778e-28
1.1659e-28
1.11118e-28
1.20932e-28
1.08406e-28
1.66415e-28
1.32579e-28
1.34936e-28
1.28933e-28
1.3254e-28
1.34388e-28
1.28454e-28
1.25038e-28
1.23395e-28
1.22532e-28
1.20827e-28
1.21448e-28
1.16185e-28
1.17618e-28
1.21886e-28
1.22505e-28
1.17866e-28
1.14575e-28
1.20709e-28
)
;

boundaryField
{
    movingWall
    {
        type            calculated;
        value           nonuniform List<scalar> 
20
(
1.08406e-28
1.66415e-28
1.32579e-28
1.34936e-28
1.28933e-28
1.3254e-28
1.34388e-28
1.28454e-28
1.25038e-28
1.23395e-28
1.22532e-28
1.20827e-28
1.21448e-28
1.16185e-28
1.17618e-28
1.21886e-28
1.22505e-28
1.17866e-28
1.14575e-28
1.20709e-28
)
;
    }
    fixedWalls
    {
        type            calculated;
        value           nonuniform List<scalar> 
60
(
7.92731e-31
1.24566e-29
2.25159e-29
2.66636e-29
3.81114e-29
4.90157e-29
6.06281e-29
7.89278e-29
8.02015e-29
8.92784e-29
1.00918e-28
9.78007e-29
1.08915e-28
1.12054e-28
1.28548e-28
1.30959e-28
1.27425e-28
1.45389e-28
1.43285e-28
1.08406e-28
1.0926e-28
1.08933e-28
1.0724e-28
1.13468e-28
1.15011e-28
1.15428e-28
1.13179e-28
1.1708e-28
1.1782e-28
1.19885e-28
1.20196e-28
1.17012e-28
1.12132e-28
1.1818e-28
1.17126e-28
1.19008e-28
1.16656e-28
1.19201e-28
1.20932e-28
1.20709e-28
7.92731e-31
2.08216e-29
2.46427e-29
3.81664e-29
4.59728e-29
5.45976e-29
6.0979e-29
6.57788e-29
7.07266e-29
7.8666e-29
8.32588e-29
8.63116e-29
9.4283e-29
9.49915e-29
9.78964e-29
1.04973e-28
1.09926e-28
1.09146e-28
1.09587e-28
1.0926e-28
)
;
    }
    frontAndBack
    {
        type            empty;
    }
}


// ************************************************************************* //
