/*--------------------------------*- C++ -*----------------------------------*\
| =========                 |                                                 |
| \\      /  F ield         | OpenFOAM: The Open Source CFD Toolbox           |
|  \\    /   O peration     | Version:  2312                                  |
|   \\  /    A nd           | Website:  www.openfoam.com                      |
|    \\/     M anipulation  |                                                 |
\*---------------------------------------------------------------------------*/
FoamFile
{
    version     2.0;
    format      ascii;
    arch        "LSB;label=32;scalar=64";
    class       volScalarField;
    location    "8.25";
    object      p;
}
// * * * * * * * * * * * * * * * * * * * * * * * * * * * * * * * * * * * * * //

dimensions      [0 2 -2 0 0 0 0];

internalField   nonuniform List<scalar> 
400
(
8.90355e-16
4.56307e-15
4.96414e-15
6.1779e-15
6.78033e-15
7.38902e-15
7.80891e-15
8.11041e-15
8.40991e-15
8.86939e-15
9.12462e-15
9.2904e-15
9.70994e-15
9.74636e-15
9.89426e-15
1.02456e-14
1.04846e-14
1.04473e-14
1.04684e-14
1.04527e-14
3.52939e-15
2.32193e-15
5.35095e-15
6.23606e-15
7.20045e-15
7.4758e-15
7.79588e-15
8.12233e-15
8.46114e-15
8.93147e-15
9.09284e-15
9.22112e-15
9.63721e-15
1.01093e-14
1.012e-14
1.02405e-14
1.0305e-14
1.03329e-14
1.05028e-14
1.04371e-14
4.74509e-15
5.07672e-15
5.74102e-15
6.70873e-15
7.26923e-15
7.56383e-15
7.82019e-15
8.29932e-15
8.61055e-15
8.8467e-15
9.146e-15
9.27025e-15
9.53354e-15
9.95702e-15
1.01937e-14
1.02608e-14
1.02702e-14
1.03798e-14
1.05228e-14
1.03557e-14
5.16368e-15
6.01737e-15
6.50238e-15
7.06322e-15
7.38629e-15
7.91243e-15
8.22023e-15
8.4719e-15
8.83079e-15
9.11601e-15
9.34224e-15
9.16986e-15
9.59194e-15
9.86782e-15
1.0147e-14
1.04598e-14
1.02274e-14
1.00196e-14
1.03315e-14
1.06521e-14
6.17344e-15
6.96249e-15
7.18146e-15
7.53803e-15
7.74666e-15
8.22546e-15
8.58495e-15
8.76415e-15
8.8954e-15
9.16909e-15
9.36548e-15
9.40085e-15
9.71148e-15
9.88768e-15
1.02202e-14
1.0466e-14
1.03329e-14
1.01007e-14
1.02323e-14
1.07243e-14
7.00112e-15
6.69302e-15
7.79923e-15
7.86772e-15
8.30453e-15
8.46992e-15
8.73815e-15
8.93054e-15
9.11419e-15
9.30808e-15
9.45132e-15
9.47138e-15
9.81776e-15
1.00372e-14
1.0284e-14
1.03587e-14
1.047e-14
1.01009e-14
1.03235e-14
1.07437e-14
7.78641e-15
9.55777e-15
8.30637e-15
8.58323e-15
8.67531e-15
8.75692e-15
8.99785e-15
9.15205e-15
9.25736e-15
9.43022e-15
9.65247e-15
9.83841e-15
1.00602e-14
1.02247e-14
1.039e-14
1.03863e-14
1.04886e-14
1.01584e-14
1.03518e-14
1.06386e-14
8.88413e-15
6.6046e-15
8.93773e-15
8.84993e-15
9.26589e-15
8.97303e-15
9.08269e-15
9.53546e-15
9.76853e-15
9.7477e-15
9.66718e-15
1.00437e-14
1.01175e-14
1.02396e-14
1.04228e-14
1.03712e-14
1.05704e-14
1.0404e-14
1.04231e-14
1.08203e-14
8.95553e-15
1.03991e-14
9.47451e-15
9.5205e-15
9.43685e-15
9.51864e-15
9.61981e-15
9.7816e-15
9.89803e-15
9.90905e-15
1.00432e-14
1.02183e-14
1.03159e-14
1.03224e-14
1.05656e-14
1.04444e-14
1.03739e-14
1.04353e-14
1.05216e-14
1.08545e-14
9.44873e-15
9.3105e-15
1.00198e-14
9.90333e-15
9.83878e-15
9.9441e-15
1.00097e-14
1.00519e-14
1.00381e-14
1.00891e-14
1.04008e-14
1.03737e-14
1.03449e-14
1.0362e-14
1.0537e-14
1.04796e-14
1.0504e-14
1.03873e-14
1.0485e-14
1.09492e-14
1.00458e-14
9.40804e-15
1.01184e-14
1.00548e-14
9.99671e-15
1.02818e-14
1.03961e-14
1.02284e-14
1.00418e-14
1.02009e-14
1.04812e-14
1.05746e-14
1.04813e-14
1.03848e-14
1.04983e-14
1.04616e-14
1.05077e-14
1.04175e-14
1.05789e-14
1.09634e-14
9.88942e-15
1.16877e-14
1.05114e-14
1.06509e-14
1.04671e-14
1.04847e-14
1.04478e-14
1.04722e-14
1.0402e-14
1.03643e-14
1.05267e-14
1.04622e-14
1.04284e-14
1.0427e-14
1.05536e-14
1.054e-14
1.05517e-14
1.05933e-14
1.06266e-14
1.08172e-14
1.04362e-14
9.1425e-15
1.05929e-14
1.07246e-14
1.08985e-14
1.0674e-14
1.07742e-14
1.07654e-14
1.0714e-14
1.05939e-14
1.05848e-14
1.04069e-14
1.04181e-14
1.05096e-14
1.05739e-14
1.05278e-14
1.05794e-14
1.07131e-14
1.06244e-14
1.05892e-14
1.05855e-14
1.19703e-14
1.07413e-14
1.09377e-14
1.1031e-14
1.09636e-14
1.08987e-14
1.1009e-14
1.09991e-14
1.07826e-14
1.0652e-14
1.05309e-14
1.05631e-14
1.04519e-14
1.05995e-14
1.05941e-14
1.05801e-14
1.06672e-14
1.06566e-14
1.08711e-14
1.13379e-14
1.03756e-14
1.1069e-14
1.11098e-14
1.12386e-14
1.11308e-14
1.10738e-14
1.10062e-14
1.11924e-14
1.11313e-14
1.09318e-14
1.05888e-14
1.05573e-14
1.05135e-14
1.05708e-14
1.0486e-14
1.06764e-14
1.0771e-14
1.06874e-14
1.08225e-14
1.14437e-14
1.05156e-14
1.11785e-14
1.13932e-14
1.15735e-14
1.13931e-14
1.11503e-14
1.10576e-14
1.10637e-14
1.10197e-14
1.09126e-14
1.08228e-14
1.08742e-14
1.07098e-14
1.06e-14
1.08106e-14
1.09176e-14
1.06485e-14
1.05592e-14
1.09091e-14
1.12883e-14
1.26092e-14
1.13805e-14
1.1655e-14
1.168e-14
1.14709e-14
1.13466e-14
1.10718e-14
1.10693e-14
1.10131e-14
1.0909e-14
1.09203e-14
1.1029e-14
1.08416e-14
1.05484e-14
1.09172e-14
1.09768e-14
1.07017e-14
1.05753e-14
1.08007e-14
1.20577e-14
1.0282e-14
1.14737e-14
1.16012e-14
1.1673e-14
1.14848e-14
1.16136e-14
1.13077e-14
1.10813e-14
1.10255e-14
1.08741e-14
1.11043e-14
1.09479e-14
1.0712e-14
1.06083e-14
1.09029e-14
1.10051e-14
1.06807e-14
1.06837e-14
1.09179e-14
1.19702e-14
1.06446e-14
1.1389e-14
1.14346e-14
1.17531e-14
1.15903e-14
1.13865e-14
1.12267e-14
1.11041e-14
1.10735e-14
1.11078e-14
1.11591e-14
1.10175e-14
1.07437e-14
1.07165e-14
1.09348e-14
1.10353e-14
1.07977e-14
1.05413e-14
1.09969e-14
1.04118e-14
1.29002e-14
1.15143e-14
1.16162e-14
1.13549e-14
1.15126e-14
1.15926e-14
1.13338e-14
1.1182e-14
1.11083e-14
1.10694e-14
1.09921e-14
1.10203e-14
1.07789e-14
1.08452e-14
1.10402e-14
1.10682e-14
1.08566e-14
1.0704e-14
1.09868e-14
)
;

boundaryField
{
    movingWall
    {
        type            zeroGradient;
    }
    fixedWalls
    {
        type            zeroGradient;
    }
    frontAndBack
    {
        type            empty;
    }
}


// ************************************************************************* //
