/*--------------------------------*- C++ -*----------------------------------*\
| =========                 |                                                 |
| \\      /  F ield         | OpenFOAM: The Open Source CFD Toolbox           |
|  \\    /   O peration     | Version:  2312                                  |
|   \\  /    A nd           | Website:  www.openfoam.com                      |
|    \\/     M anipulation  |                                                 |
\*---------------------------------------------------------------------------*/
FoamFile
{
    version     2.0;
    format      ascii;
    arch        "LSB;label=32;scalar=64";
    class       volScalarField;
    location    "8.25";
    object      QField;
}
// * * * * * * * * * * * * * * * * * * * * * * * * * * * * * * * * * * * * * //

dimensions      [0 0 -2 0 0 0 0];

internalField   nonuniform List<scalar> 
400
(
-1.46271e-25
-2.22653e-25
-7.55109e-26
1.94703e-26
-3.94936e-27
-2.09954e-27
-1.1179e-27
0
-3.44107e-28
1.35268e-28
6.41359e-28
-1.87808e-27
-1.85016e-27
-2.26564e-27
4.40994e-28
1.4295e-27
-3.86681e-28
0
0
0
-1.86293e-24
-8.97707e-25
9.60606e-27
-1.3094e-26
7.49841e-27
2.66944e-27
-7.67566e-28
-1.48364e-27
-4.6315e-28
0
0
-4.4085e-28
1.01056e-27
-5.36614e-28
0
0
-6.15437e-28
-9.75725e-28
0
5.3251e-29
-6.76176e-24
-1.76779e-24
-1.02295e-25
-1.21623e-27
8.93571e-28
-3.03625e-27
-2.04671e-27
5.95713e-28
-3.77173e-28
1.10778e-27
-1.33038e-28
-2.41292e-28
0
0
8.10531e-28
-1.24076e-28
1.45921e-28
-6.08207e-28
0
-8.4923e-28
-1.00302e-23
-2.4546e-24
-1.00525e-25
-1.18097e-26
7.19033e-28
-4.21451e-28
-1.29201e-27
-6.80443e-28
3.05642e-29
6.19534e-29
-1.55667e-27
2.27895e-28
0
-1.00464e-28
-4.83574e-29
-5.36692e-29
8.59852e-28
1.22548e-29
8.80541e-28
-1.02282e-27
-5.17211e-24
-1.49521e-24
-3.0204e-26
7.5795e-27
-2.39684e-28
0
-2.32365e-28
0
-5.03353e-28
0
8.28715e-28
4.87752e-28
3.98639e-29
2.04712e-28
4.11287e-29
-2.55508e-28
-3.09196e-28
-2.83068e-28
1.9527e-28
-4.34907e-28
3.60422e-26
-2.17171e-25
3.07647e-26
5.25756e-27
-6.76716e-28
4.0126e-28
-5.98792e-28
-1.05188e-27
0
3.74726e-28
3.17941e-28
-1.02849e-28
0
-5.09183e-28
2.8921e-28
0
-3.24339e-28
3.93409e-28
-1.05717e-28
1.3348e-28
4.87195e-24
8.37428e-25
6.65821e-26
3.90582e-27
3.14055e-27
2.67668e-28
-4.10779e-28
8.18524e-28
2.29251e-27
3.17008e-27
1.16258e-27
2.04677e-28
-6.26823e-28
-6.95588e-28
1.95732e-28
8.00903e-29
-1.10944e-27
3.63326e-28
-1.12775e-28
-9.97719e-29
6.01186e-24
1.03574e-24
3.59826e-26
6.21518e-27
-2.97358e-28
0
0
0
0
0
-2.50507e-27
-2.06721e-27
-2.5272e-27
-2.34252e-28
1.06178e-27
1.88031e-27
-5.0829e-28
0
8.31977e-29
-1.334e-28
-2.54655e-25
-1.36789e-24
2.17608e-25
-2.98162e-26
8.46977e-27
-1.18576e-27
-1.29534e-27
-6.86071e-28
2.33022e-27
2.76907e-27
5.15296e-28
-1.03191e-28
9.08591e-28
-1.56932e-27
-5.993e-28
2.61057e-28
-2.30274e-27
-2.1432e-29
0
-1.81338e-28
1.24985e-24
-9.57112e-25
1.53855e-25
-1.35265e-26
1.22198e-29
-1.99438e-27
7.65704e-28
1.87897e-27
1.03255e-27
-9.35468e-28
-4.40113e-27
-9.53041e-28
3.71913e-28
1.73452e-28
0
9.08894e-28
4.24985e-28
-6.57165e-28
-6.81594e-28
-2.17818e-28
5.19346e-24
1.12887e-24
2.95411e-26
1.4558e-26
3.61168e-28
4.59347e-28
-1.58087e-27
-2.3608e-28
-8.25863e-28
-3.75861e-28
0
-9.08443e-29
9.75883e-28
-1.43097e-27
5.71226e-28
1.23942e-27
2.57253e-28
0
2.17147e-28
-4.43918e-28
1.73973e-24
4.18523e-25
-2.48133e-26
5.37873e-28
0
0
2.61282e-28
4.47614e-28
-4.90593e-28
-1.49939e-27
0
-5.09171e-28
0
-7.14417e-29
0
8.02701e-28
-1.09482e-28
-9.26351e-28
1.3777e-27
0
2.28083e-24
4.9481e-25
5.96371e-27
2.60974e-27
2.04377e-28
-1.06081e-28
-2.34597e-28
-2.91739e-28
1.57971e-28
-1.05193e-27
0
-1.86367e-27
-2.55051e-28
-6.4999e-28
-1.37569e-27
4.62669e-31
-9.38763e-29
8.16053e-29
-5.66575e-28
-7.7887e-28
3.39289e-24
6.68779e-25
2.47482e-26
8.34529e-27
1.19297e-27
0
5.53231e-28
1.56043e-27
2.43379e-27
-1.43219e-28
8.18764e-28
1.12119e-27
2.36475e-27
1.1161e-27
2.6984e-29
2.75855e-28
1.19819e-27
3.56019e-28
-3.02806e-28
-4.21115e-28
2.27782e-24
7.36186e-26
1.0009e-25
1.08679e-26
1.81455e-27
-3.03712e-29
5.07837e-28
-2.02705e-28
-9.58136e-28
2.06114e-30
-5.38415e-28
0
-1.24764e-27
-3.64178e-28
-5.61527e-29
-1.39431e-27
5.99013e-28
-5.62037e-28
-5.87008e-28
-6.81898e-29
-1.52397e-24
-9.39987e-25
6.892e-26
-9.28244e-27
4.86421e-27
-1.81133e-28
-6.82103e-28
-6.21164e-28
0
1.11971e-27
2.50323e-27
1.32973e-27
-1.16238e-27
-1.34369e-27
0
-4.48998e-28
2.48234e-27
-3.24118e-28
-9.20798e-28
-7.09429e-29
-3.73902e-24
-1.21894e-24
-6.40579e-26
7.84435e-28
2.57471e-28
-7.08975e-28
2.92581e-30
4.07574e-28
5.62119e-28
-2.56885e-28
0
0
-9.24522e-28
0
-1.4661e-29
-1.11448e-27
4.61389e-28
-6.13388e-28
-9.81239e-28
0
-4.80862e-24
-2.09462e-24
0
9.70017e-28
-4.98293e-29
-1.34224e-27
1.48739e-28
-5.17195e-28
-2.07722e-28
-7.97733e-28
9.85993e-29
2.34453e-28
5.65972e-28
-3.25299e-28
-1.27459e-27
1.5457e-28
5.99247e-28
-4.05886e-30
-1.72649e-28
-1.93026e-28
-5.14339e-24
-2.17142e-24
7.42173e-27
-5.4588e-27
5.23719e-27
1.64302e-27
2.49053e-27
2.23934e-27
-4.35243e-29
-1.05221e-27
-1.33711e-27
-1.07186e-27
6.0776e-28
-4.62303e-28
-1.0694e-27
2.24699e-28
0
0
1.15992e-28
-4.16243e-30
-2.20633e-24
-9.43067e-25
-1.11307e-25
8.39714e-27
-1.54028e-27
-3.579e-28
-1.1254e-27
-9.84562e-28
-3.16384e-28
-2.40001e-28
0
-6.97474e-28
8.67527e-28
2.9903e-28
0
3.21543e-28
0
-4.14308e-28
0
0
)
;

boundaryField
{
    movingWall
    {
        type            calculated;
        value           nonuniform List<scalar> 
20
(
1.76693e-24
1.48182e-24
-3.68252e-25
3.74842e-26
-5.40477e-27
-2.05234e-27
-4.43186e-27
-1.78249e-27
7.94679e-28
1.10026e-27
0
-1.78748e-27
-8.38401e-28
3.57798e-28
3.79989e-28
6.82333e-28
0
-8.952e-28
0
0
)
;
    }
    fixedWalls
    {
        type            calculated;
        value           nonuniform List<scalar> 
60
(
-3.21086e-24
-9.45411e-24
-3.45909e-23
-4.76338e-23
-2.55067e-23
-2.10182e-25
2.15828e-23
2.45813e-23
-1.85711e-24
4.0172e-24
2.27164e-23
8.54844e-24
9.42326e-24
1.59988e-23
1.07727e-23
-8.00918e-24
-2.22247e-23
-2.65345e-23
-3.09957e-23
-1.55784e-23
0
-7.59576e-28
-1.39138e-27
-2.63734e-27
0
3.66327e-28
1.50339e-28
-5.58243e-28
1.56865e-28
-4.43821e-28
-8.84851e-28
0
-1.2761e-27
-5.29326e-28
1.74569e-28
-1.16233e-28
0
-4.59552e-28
-2.78838e-29
0
1.5333e-24
1.23592e-24
-3.89665e-25
6.38004e-26
-1.61766e-26
-3.84373e-27
-1.42522e-27
9.15031e-28
1.97527e-28
-3.31311e-28
0
-4.0271e-27
-3.0313e-27
-5.47561e-27
-2.26182e-27
-2.3421e-27
-1.51365e-27
0
0
0
)
;
    }
    frontAndBack
    {
        type            empty;
    }
}


// ************************************************************************* //
