/*--------------------------------*- C++ -*----------------------------------*\
| =========                 |                                                 |
| \\      /  F ield         | OpenFOAM: The Open Source CFD Toolbox           |
|  \\    /   O peration     | Version:  2312                                  |
|   \\  /    A nd           | Website:  www.openfoam.com                      |
|    \\/     M anipulation  |                                                 |
\*---------------------------------------------------------------------------*/
FoamFile
{
    version     2.0;
    format      ascii;
    arch        "LSB;label=32;scalar=64";
    class       volScalarField;
    location    "8.25";
    object      Uy;
}
// * * * * * * * * * * * * * * * * * * * * * * * * * * * * * * * * * * * * * //

dimensions      [0 1 -1 0 0 0 0];

internalField   nonuniform List<scalar> 
400
(
5.54422e-14
-1.14434e-14
2.46758e-15
-6.29728e-16
7.31549e-17
9.88002e-17
1.37006e-16
9.4281e-17
3.39831e-17
3.05581e-17
1.12585e-16
1.48868e-16
2.26213e-17
-1.92426e-16
-1.24087e-16
1.39442e-17
1.3961e-16
6.86966e-17
1.20692e-17
1.34762e-18
1.55388e-14
-3.56979e-15
6.48001e-16
-2.04499e-16
1.11284e-16
2.56571e-16
2.75425e-16
1.62177e-16
9.29698e-17
7.67412e-17
4.9619e-17
1.07613e-16
1.17435e-16
-7.88019e-17
-1.25955e-16
-6.85315e-17
3.05028e-18
-6.40554e-17
-4.48523e-17
3.50292e-17
-4.19991e-14
8.21583e-15
-1.9599e-15
4.4407e-16
3.18708e-17
1.56981e-16
1.75646e-16
1.42091e-16
4.80417e-17
8.80965e-18
-8.81914e-17
-1.37769e-17
7.1439e-18
5.54969e-18
-6.10564e-17
-9.4128e-17
-8.74465e-17
-6.33903e-17
-1.32543e-16
-6.16265e-17
-5.51851e-15
8.19889e-16
-4.6087e-16
-5.49292e-17
-1.33224e-16
-1.59744e-16
-1.02126e-16
-8.54891e-19
2.33936e-17
-6.49299e-18
5.36809e-19
5.96335e-18
-8.48683e-17
-9.99688e-17
-1.20169e-16
-1.1781e-16
-5.07852e-17
4.08051e-17
-4.93211e-17
-1.21626e-16
3.50555e-14
-7.97356e-15
1.64101e-15
-4.62194e-16
-4.51208e-17
-1.49873e-16
-6.25238e-17
4.49151e-17
1.27933e-16
1.37767e-16
9.49413e-17
-1.51036e-17
-1.94181e-17
-4.82835e-17
-9.92441e-17
-1.1892e-16
-1.36006e-16
-6.18832e-17
-3.15727e-17
-2.61679e-17
-3.82119e-14
7.92791e-15
-2.05277e-15
2.3303e-16
-2.21651e-16
-1.66346e-17
-1.63985e-17
3.9295e-17
2.89222e-17
1.77759e-17
4.72915e-18
-4.28067e-17
-3.32155e-17
-9.56684e-17
-1.04995e-16
-5.22956e-17
-5.34137e-17
1.72037e-17
2.27207e-17
3.88264e-17
2.05668e-14
-4.24491e-15
7.27186e-16
-4.26003e-16
-1.77934e-16
-1.21266e-16
-1.45017e-16
-1.71782e-16
-9.25726e-17
2.37108e-17
1.51658e-16
1.61272e-16
1.75791e-16
4.56441e-17
-4.58943e-17
-2.65682e-17
-1.63462e-17
7.1245e-18
5.06757e-17
-1.38663e-17
2.23145e-14
-5.22393e-15
1.04351e-15
-3.53499e-16
2.27974e-17
-9.98171e-17
-5.63971e-17
-5.29107e-17
-3.69175e-17
-8.02537e-18
-3.38589e-18
-2.17872e-17
-5.51311e-17
-7.81979e-17
-6.68057e-17
5.23785e-17
1.51242e-16
3.13626e-17
1.91747e-18
-5.17354e-17
-5.33871e-14
1.1202e-14
-2.90195e-15
4.40883e-16
-2.13928e-16
-1.49915e-16
-1.04561e-16
-1.35763e-17
-4.12817e-17
-1.5669e-16
-2.96683e-16
-2.2006e-16
-1.35e-16
-5.24544e-17
-1.88962e-17
1.29998e-17
7.74167e-17
8.66209e-17
8.13702e-17
-1.44683e-17
3.49452e-14
-7.28838e-15
1.66299e-15
-3.03869e-16
1.08199e-16
-9.39595e-17
-1.23856e-16
-2.33357e-17
1.07217e-16
1.67135e-16
7.47332e-17
1.62837e-17
7.12027e-17
1.53495e-16
1.54297e-16
-1.27745e-17
-1.81026e-16
-9.11704e-17
-1.03504e-17
-2.07638e-17
-1.557e-14
2.19749e-15
-8.21044e-16
-1.86051e-16
-6.27251e-18
1.21772e-16
5.02173e-17
-4.07032e-17
2.11846e-17
1.2347e-16
1.94276e-16
1.3155e-16
3.51411e-17
1.1538e-17
-1.32928e-17
-5.87104e-17
-1.3328e-16
-2.0528e-16
-9.96869e-17
3.47784e-17
1.73722e-14
-3.62103e-15
6.44039e-16
-4.14678e-16
-1.66312e-16
-2.87024e-17
-7.595e-17
-1.76407e-16
-1.5852e-16
-7.52901e-17
1.06056e-16
1.92176e-16
3.08825e-17
-1.34688e-16
-1.30868e-16
-3.54563e-17
1.72037e-17
-7.58482e-17
2.97062e-17
9.35788e-17
-9.04465e-15
2.42335e-15
-2.96631e-16
2.48658e-16
-7.19689e-17
-4.71521e-17
-4.92892e-17
-9.48371e-17
-1.59812e-16
-1.53118e-16
-7.94432e-17
-5.63006e-17
-3.28036e-17
-1.48193e-17
-1.64103e-17
-1.22667e-17
-1.6581e-17
-4.69009e-17
-2.3444e-17
-1.29869e-17
-1.67549e-14
3.59431e-15
-6.65884e-16
2.05813e-16
-5.61074e-17
-1.42514e-17
8.65379e-17
4.17489e-17
-2.01311e-16
-3.02646e-16
-2.28557e-16
-1.51611e-16
-2.17333e-17
1.05116e-16
1.21625e-16
1.15071e-16
1.98527e-17
-1.05955e-16
-1.11495e-16
-5.00973e-17
4.12238e-14
-8.30535e-15
2.05686e-15
-3.76112e-16
5.20821e-17
-4.13862e-17
4.28165e-17
5.22931e-17
-2.45364e-17
-1.51465e-16
-1.92884e-16
-1.95247e-16
-1.35063e-16
-3.31271e-17
-2.04833e-17
-5.38438e-17
2.11294e-17
9.21827e-17
4.12588e-17
-1.61012e-17
-4.4502e-14
9.59756e-15
-2.02561e-15
5.80959e-16
-1.03923e-16
-2.54563e-17
-3.72716e-17
4.35637e-18
7.73129e-17
3.32897e-17
-1.29237e-16
-2.74553e-16
-2.51883e-16
-1.43822e-16
-8.66382e-17
-1.83745e-16
-5.12037e-17
1.21529e-16
6.16481e-17
-3.85152e-18
7.07463e-15
-1.20669e-15
4.34038e-16
4.26526e-17
6.44163e-17
-4.15607e-17
-1.4921e-16
-4.12009e-17
4.31905e-17
6.24917e-17
-5.15835e-17
-1.50214e-16
-5.13727e-17
2.62773e-17
8.02196e-17
2.89818e-17
-5.5729e-17
-8.04583e-17
-4.76945e-17
1.00721e-17
5.13737e-14
-1.08438e-14
2.53792e-15
-4.4769e-16
2.43707e-16
2.24835e-17
-4.63665e-17
-1.1286e-16
-1.41772e-16
-1.51178e-16
-1.766e-16
-6.2524e-17
9.5152e-17
1.46283e-16
1.03901e-16
2.18394e-17
-1.11986e-16
-8.87021e-17
-2.8828e-17
-4.23862e-17
-3.94761e-14
7.64883e-15
-1.93114e-15
4.00526e-16
8.28e-17
4.33862e-17
-6.87415e-17
-2.00204e-16
-2.71821e-16
-1.96992e-16
-7.7722e-17
7.82894e-17
-8.67476e-18
-4.24792e-17
-3.0458e-17
4.68723e-19
-7.19076e-17
-8.19558e-17
-3.03141e-17
-1.77403e-17
-3.50753e-14
6.74904e-15
-1.82571e-15
2.39668e-16
-8.1044e-18
3.02323e-17
-7.41254e-17
-1.05934e-16
-1.02676e-16
-2.00097e-17
7.00534e-17
1.00676e-16
-8.3033e-18
-6.78433e-17
-9.33673e-17
-2.50603e-17
-2.17572e-17
-7.0897e-17
-5.025e-17
7.20391e-18
)
;

boundaryField
{
    movingWall
    {
        type            calculated;
        value           uniform -0;
    }
    fixedWalls
    {
        type            calculated;
        value           uniform -0;
    }
    frontAndBack
    {
        type            empty;
    }
}


// ************************************************************************* //
