/*--------------------------------*- C++ -*----------------------------------*\
| =========                 |                                                 |
| \\      /  F ield         | OpenFOAM: The Open Source CFD Toolbox           |
|  \\    /   O peration     | Version:  2312                                  |
|   \\  /    A nd           | Website:  www.openfoam.com                      |
|    \\/     M anipulation  |                                                 |
\*---------------------------------------------------------------------------*/
FoamFile
{
    version     2.0;
    format      ascii;
    arch        "LSB;label=32;scalar=64";
    class       volVectorField;
    location    "6.375";
    object      diffU;
}
// * * * * * * * * * * * * * * * * * * * * * * * * * * * * * * * * * * * * * //

dimensions      [0 1 -1 0 0 0 0];

internalField   nonuniform List<vector> 
400
(
(0 0 0)
(2.05391e-14 -1.71591e-13 0)
(1.56541e-14 -1.33659e-13 0)
(1.60982e-14 -1.42552e-13 0)
(1.57652e-14 -1.40601e-13 0)
(1.58762e-14 -1.41001e-13 0)
(1.59872e-14 -1.40861e-13 0)
(1.57652e-14 -1.4088e-13 0)
(1.56541e-14 -1.40895e-13 0)
(1.55431e-14 -1.40937e-13 0)
(1.55431e-14 -1.40956e-13 0)
(1.53211e-14 -1.40892e-13 0)
(1.54321e-14 -1.40878e-13 0)
(1.53211e-14 -1.40981e-13 0)
(1.53211e-14 -1.41087e-13 0)
(1.53211e-14 -1.41096e-13 0)
(1.55431e-14 -1.41016e-13 0)
(1.53211e-14 -1.41019e-13 0)
(1.55431e-14 -1.40952e-13 0)
(1.53211e-14 -1.40931e-13 0)
(4.62963e-14 -1.30814e-13 0)
(5.77316e-15 -1.43098e-13 0)
(1.54321e-14 -1.40324e-13 0)
(1.42109e-14 -1.4104e-13 0)
(1.46549e-14 -1.40927e-13 0)
(1.46549e-14 -1.41013e-13 0)
(1.44329e-14 -1.41061e-13 0)
(1.4877e-14 -1.4108e-13 0)
(1.4877e-14 -1.41028e-13 0)
(1.5099e-14 -1.41036e-13 0)
(1.4877e-14 -1.41035e-13 0)
(1.4877e-14 -1.41055e-13 0)
(1.5099e-14 -1.41059e-13 0)
(1.54321e-14 -1.40992e-13 0)
(1.53211e-14 -1.40974e-13 0)
(1.5099e-14 -1.41046e-13 0)
(1.53211e-14 -1.41048e-13 0)
(1.53211e-14 -1.40992e-13 0)
(1.5099e-14 -1.40973e-13 0)
(1.5099e-14 -1.40943e-13 0)
(6.88338e-15 -2.75753e-13 0)
(1.84297e-14 -1.11381e-13 0)
(1.53211e-14 -1.47954e-13 0)
(1.57652e-14 -1.39468e-13 0)
(1.54321e-14 -1.41425e-13 0)
(1.55431e-14 -1.41138e-13 0)
(1.55431e-14 -1.41269e-13 0)
(1.56541e-14 -1.41168e-13 0)
(1.54321e-14 -1.40997e-13 0)
(1.56541e-14 -1.40878e-13 0)
(1.55431e-14 -1.40831e-13 0)
(1.54321e-14 -1.40987e-13 0)
(1.5099e-14 -1.41053e-13 0)
(1.46549e-14 -1.4095e-13 0)
(1.4877e-14 -1.40936e-13 0)
(1.4877e-14 -1.41002e-13 0)
(1.4877e-14 -1.41137e-13 0)
(1.5099e-14 -1.41081e-13 0)
(1.5099e-14 -1.4112e-13 0)
(1.5099e-14 -1.41086e-13 0)
(-2.22045e-15 -3.22297e-14 0)
(1.96509e-14 -1.64782e-13 0)
(1.4877e-14 -1.35463e-13 0)
(1.56541e-14 -1.42243e-13 0)
(1.54321e-14 -1.4063e-13 0)
(1.54321e-14 -1.41014e-13 0)
(1.4877e-14 -1.41035e-13 0)
(1.4877e-14 -1.41073e-13 0)
(1.4877e-14 -1.41007e-13 0)
(1.4877e-14 -1.40988e-13 0)
(1.53211e-14 -1.40997e-13 0)
(1.55431e-14 -1.40917e-13 0)
(1.54321e-14 -1.40861e-13 0)
(1.55431e-14 -1.4092e-13 0)
(1.56541e-14 -1.41034e-13 0)
(1.55431e-14 -1.41096e-13 0)
(1.54321e-14 -1.41143e-13 0)
(1.54321e-14 -1.41128e-13 0)
(1.54321e-14 -1.41127e-13 0)
(1.54321e-14 -1.41101e-13 0)
(4.14113e-14 -1.53397e-13 0)
(8.65974e-15 -1.38386e-13 0)
(1.67644e-14 -1.41781e-13 0)
(1.54321e-14 -1.40892e-13 0)
(1.55431e-14 -1.40946e-13 0)
(1.54321e-14 -1.40974e-13 0)
(1.58762e-14 -1.41054e-13 0)
(1.56541e-14 -1.411e-13 0)
(1.55431e-14 -1.41196e-13 0)
(1.58762e-14 -1.41212e-13 0)
(1.58762e-14 -1.41135e-13 0)
(1.56541e-14 -1.40988e-13 0)
(1.57652e-14 -1.40983e-13 0)
(1.57652e-14 -1.40924e-13 0)
(1.57652e-14 -1.40874e-13 0)
(1.57652e-14 -1.4096e-13 0)
(1.55431e-14 -1.40964e-13 0)
(1.54321e-14 -1.4099e-13 0)
(1.53211e-14 -1.41015e-13 0)
(1.54321e-14 -1.41053e-13 0)
(4.88498e-15 -2.34401e-13 0)
(1.95399e-14 -1.20514e-13 0)
(1.56541e-14 -1.45742e-13 0)
(1.56541e-14 -1.39795e-13 0)
(1.55431e-14 -1.41107e-13 0)
(1.56541e-14 -1.40901e-13 0)
(1.53211e-14 -1.40989e-13 0)
(1.53211e-14 -1.41001e-13 0)
(1.5099e-14 -1.41087e-13 0)
(1.4877e-14 -1.41071e-13 0)
(1.4877e-14 -1.40947e-13 0)
(1.5099e-14 -1.40915e-13 0)
(1.4877e-14 -1.40942e-13 0)
(1.4877e-14 -1.40944e-13 0)
(1.4877e-14 -1.40895e-13 0)
(1.5099e-14 -1.40937e-13 0)
(1.53211e-14 -1.41e-13 0)
(1.5099e-14 -1.40988e-13 0)
(1.53211e-14 -1.41014e-13 0)
(1.53211e-14 -1.41026e-13 0)
(6.43929e-15 -2.88932e-14 0)
(1.74305e-14 -1.65103e-13 0)
(1.46549e-14 -1.35077e-13 0)
(1.4877e-14 -1.42067e-13 0)
(1.5099e-14 -1.40653e-13 0)
(1.5099e-14 -1.40966e-13 0)
(1.56541e-14 -1.40968e-13 0)
(1.54321e-14 -1.40906e-13 0)
(1.57652e-14 -1.40773e-13 0)
(1.55431e-14 -1.40835e-13 0)
(1.55431e-14 -1.40909e-13 0)
(1.57652e-14 -1.40977e-13 0)
(1.56541e-14 -1.4089e-13 0)
(1.56541e-14 -1.40929e-13 0)
(1.53211e-14 -1.4097e-13 0)
(1.54321e-14 -1.41035e-13 0)
(1.54321e-14 -1.41131e-13 0)
(1.53211e-14 -1.4106e-13 0)
(1.53211e-14 -1.41025e-13 0)
(1.53211e-14 -1.41004e-13 0)
(2.9754e-14 -1.62461e-13 0)
(9.99201e-15 -1.36352e-13 0)
(1.4877e-14 -1.42109e-13 0)
(1.4877e-14 -1.40797e-13 0)
(1.4877e-14 -1.41163e-13 0)
(1.5099e-14 -1.41091e-13 0)
(1.46549e-14 -1.41047e-13 0)
(1.46549e-14 -1.41048e-13 0)
(1.46549e-14 -1.41052e-13 0)
(1.4877e-14 -1.4112e-13 0)
(1.53211e-14 -1.41162e-13 0)
(1.54321e-14 -1.40987e-13 0)
(1.55431e-14 -1.40825e-13 0)
(1.55431e-14 -1.40795e-13 0)
(1.56541e-14 -1.40973e-13 0)
(1.58762e-14 -1.40976e-13 0)
(1.57652e-14 -1.40939e-13 0)
(1.54321e-14 -1.40917e-13 0)
(1.54321e-14 -1.4091e-13 0)
(1.54321e-14 -1.40971e-13 0)
(8.21565e-15 -2.11145e-13 0)
(1.87628e-14 -1.25837e-13 0)
(1.59872e-14 -1.44635e-13 0)
(1.55431e-14 -1.4019e-13 0)
(1.54321e-14 -1.41093e-13 0)
(1.5099e-14 -1.40897e-13 0)
(1.5099e-14 -1.40974e-13 0)
(1.54321e-14 -1.41129e-13 0)
(1.53211e-14 -1.41168e-13 0)
(1.53211e-14 -1.41107e-13 0)
(1.5099e-14 -1.41108e-13 0)
(1.46549e-14 -1.40993e-13 0)
(1.4877e-14 -1.40933e-13 0)
(1.5099e-14 -1.41055e-13 0)
(1.5099e-14 -1.41135e-13 0)
(1.5099e-14 -1.41021e-13 0)
(1.5099e-14 -1.40878e-13 0)
(1.4877e-14 -1.40879e-13 0)
(1.53211e-14 -1.40937e-13 0)
(1.54321e-14 -1.40992e-13 0)
(1.77636e-14 -5.29527e-14 0)
(1.5099e-14 -1.60035e-13 0)
(1.57652e-14 -1.36384e-13 0)
(1.55431e-14 -1.41818e-13 0)
(1.56541e-14 -1.40634e-13 0)
(1.56541e-14 -1.40894e-13 0)
(1.56541e-14 -1.40945e-13 0)
(1.5099e-14 -1.4099e-13 0)
(1.4877e-14 -1.40976e-13 0)
(1.5099e-14 -1.40932e-13 0)
(1.4877e-14 -1.40911e-13 0)
(1.5099e-14 -1.41071e-13 0)
(1.53211e-14 -1.41143e-13 0)
(1.53211e-14 -1.41103e-13 0)
(1.5099e-14 -1.40935e-13 0)
(1.5099e-14 -1.40873e-13 0)
(1.5099e-14 -1.40938e-13 0)
(1.5099e-14 -1.41059e-13 0)
(1.54321e-14 -1.41074e-13 0)
(1.53211e-14 -1.41059e-13 0)
(3.33067e-15 -2.23151e-13 0)
(1.69864e-14 -1.23407e-13 0)
(1.42109e-14 -1.45149e-13 0)
(1.58762e-14 -1.40047e-13 0)
(1.54321e-14 -1.41048e-13 0)
(1.54321e-14 -1.4088e-13 0)
(1.57652e-14 -1.40896e-13 0)
(1.54321e-14 -1.40811e-13 0)
(1.56541e-14 -1.40855e-13 0)
(1.54321e-14 -1.40932e-13 0)
(1.53211e-14 -1.41015e-13 0)
(1.53211e-14 -1.41066e-13 0)
(1.53211e-14 -1.41139e-13 0)
(1.4877e-14 -1.41047e-13 0)
(1.5099e-14 -1.40971e-13 0)
(1.5099e-14 -1.40975e-13 0)
(1.54321e-14 -1.41038e-13 0)
(1.54321e-14 -1.41123e-13 0)
(1.53211e-14 -1.41097e-13 0)
(1.55431e-14 -1.41068e-13 0)
(3.25295e-14 -7.0788e-14 0)
(1.28786e-14 -1.55805e-13 0)
(1.67644e-14 -1.37468e-13 0)
(1.42109e-14 -1.41682e-13 0)
(1.4877e-14 -1.40717e-13 0)
(1.4877e-14 -1.40975e-13 0)
(1.4877e-14 -1.40906e-13 0)
(1.5099e-14 -1.40855e-13 0)
(1.4877e-14 -1.40879e-13 0)
(1.53211e-14 -1.40961e-13 0)
(1.54321e-14 -1.41037e-13 0)
(1.58762e-14 -1.41022e-13 0)
(1.54321e-14 -1.41076e-13 0)
(1.57652e-14 -1.41088e-13 0)
(1.55431e-14 -1.41097e-13 0)
(1.56541e-14 -1.41123e-13 0)
(1.55431e-14 -1.41028e-13 0)
(1.55431e-14 -1.41e-13 0)
(1.55431e-14 -1.40955e-13 0)
(1.55431e-14 -1.40958e-13 0)
(-1.9984e-15 -1.59177e-13 0)
(1.63203e-14 -1.37078e-13 0)
(1.26565e-14 -1.41787e-13 0)
(1.5099e-14 -1.40828e-13 0)
(1.5099e-14 -1.41153e-13 0)
(1.5099e-14 -1.41028e-13 0)
(1.53211e-14 -1.41009e-13 0)
(1.53211e-14 -1.41058e-13 0)
(1.54321e-14 -1.41191e-13 0)
(1.54321e-14 -1.41285e-13 0)
(1.55431e-14 -1.41243e-13 0)
(1.54321e-14 -1.41151e-13 0)
(1.56541e-14 -1.40963e-13 0)
(1.53211e-14 -1.40802e-13 0)
(1.53211e-14 -1.40897e-13 0)
(1.5099e-14 -1.40965e-13 0)
(1.4877e-14 -1.40997e-13 0)
(1.5099e-14 -1.41003e-13 0)
(1.4877e-14 -1.4097e-13 0)
(1.53211e-14 -1.40969e-13 0)
(2.37588e-14 -2.16624e-13 0)
(1.53211e-14 -1.24728e-13 0)
(1.70974e-14 -1.44884e-13 0)
(1.53211e-14 -1.40229e-13 0)
(1.55431e-14 -1.41386e-13 0)
(1.55431e-14 -1.41106e-13 0)
(1.55431e-14 -1.41081e-13 0)
(1.55431e-14 -1.41071e-13 0)
(1.56541e-14 -1.41074e-13 0)
(1.53211e-14 -1.41048e-13 0)
(1.53211e-14 -1.41083e-13 0)
(1.53211e-14 -1.41036e-13 0)
(1.4877e-14 -1.40993e-13 0)
(1.53211e-14 -1.40919e-13 0)
(1.56541e-14 -1.40885e-13 0)
(1.56541e-14 -1.40911e-13 0)
(1.56541e-14 -1.40999e-13 0)
(1.58762e-14 -1.40968e-13 0)
(1.55431e-14 -1.41044e-13 0)
(1.55431e-14 -1.41052e-13 0)
(-8.88178e-16 -4.48707e-15 0)
(1.84297e-14 -1.69993e-13 0)
(1.33227e-14 -1.34236e-13 0)
(1.54321e-14 -1.42562e-13 0)
(1.4877e-14 -1.40794e-13 0)
(1.5099e-14 -1.41115e-13 0)
(1.5099e-14 -1.41037e-13 0)
(1.5099e-14 -1.41038e-13 0)
(1.4877e-14 -1.40922e-13 0)
(1.5099e-14 -1.40842e-13 0)
(1.5099e-14 -1.40862e-13 0)
(1.4877e-14 -1.40858e-13 0)
(1.4877e-14 -1.41054e-13 0)
(1.46549e-14 -1.41227e-13 0)
(1.46549e-14 -1.41129e-13 0)
(1.5099e-14 -1.41035e-13 0)
(1.4877e-14 -1.40978e-13 0)
(1.5099e-14 -1.40948e-13 0)
(1.54321e-14 -1.40978e-13 0)
(1.53211e-14 -1.41029e-13 0)
(3.53051e-14 -2.2928e-13 0)
(9.10383e-15 -1.22429e-13 0)
(1.55431e-14 -1.45533e-13 0)
(1.4877e-14 -1.4024e-13 0)
(1.46549e-14 -1.41304e-13 0)
(1.4877e-14 -1.40937e-13 0)
(1.4877e-14 -1.41e-13 0)
(1.46549e-14 -1.41062e-13 0)
(1.4877e-14 -1.41039e-13 0)
(1.53211e-14 -1.41029e-13 0)
(1.5099e-14 -1.41035e-13 0)
(1.54321e-14 -1.41048e-13 0)
(1.56541e-14 -1.41e-13 0)
(1.56541e-14 -1.41093e-13 0)
(1.55431e-14 -1.41137e-13 0)
(1.55431e-14 -1.41099e-13 0)
(1.54321e-14 -1.41057e-13 0)
(1.55431e-14 -1.41047e-13 0)
(1.53211e-14 -1.40961e-13 0)
(1.54321e-14 -1.41006e-13 0)
(-5.32907e-15 -1.66733e-13 0)
(2.10942e-14 -1.35868e-13 0)
(1.5099e-14 -1.42494e-13 0)
(1.55431e-14 -1.40854e-13 0)
(1.53211e-14 -1.4115e-13 0)
(1.4877e-14 -1.41079e-13 0)
(1.53211e-14 -1.41122e-13 0)
(1.54321e-14 -1.41102e-13 0)
(1.54321e-14 -1.41097e-13 0)
(1.53211e-14 -1.41201e-13 0)
(1.53211e-14 -1.41128e-13 0)
(1.54321e-14 -1.41053e-13 0)
(1.53211e-14 -1.40982e-13 0)
(1.5099e-14 -1.41042e-13 0)
(1.54321e-14 -1.41085e-13 0)
(1.55431e-14 -1.41048e-13 0)
(1.53211e-14 -1.41019e-13 0)
(1.54321e-14 -1.40977e-13 0)
(1.54321e-14 -1.40919e-13 0)
(1.54321e-14 -1.40957e-13 0)
(1.46549e-14 -3.6831e-14 0)
(1.55431e-14 -1.6307e-13 0)
(1.5099e-14 -1.35674e-13 0)
(1.53211e-14 -1.42011e-13 0)
(1.4877e-14 -1.40651e-13 0)
(1.5099e-14 -1.41055e-13 0)
(1.46549e-14 -1.41133e-13 0)
(1.46549e-14 -1.41164e-13 0)
(1.4877e-14 -1.41149e-13 0)
(1.53211e-14 -1.41145e-13 0)
(1.4877e-14 -1.41071e-13 0)
(1.4877e-14 -1.41048e-13 0)
(1.4877e-14 -1.41089e-13 0)
(1.5099e-14 -1.41133e-13 0)
(1.5099e-14 -1.41086e-13 0)
(1.5099e-14 -1.41035e-13 0)
(1.5099e-14 -1.41061e-13 0)
(1.4877e-14 -1.4106e-13 0)
(1.53211e-14 -1.41019e-13 0)
(1.53211e-14 -1.40921e-13 0)
(3.9635e-14 -1.74335e-13 0)
(9.32587e-15 -1.3402e-13 0)
(1.57652e-14 -1.42452e-13 0)
(1.53211e-14 -1.40539e-13 0)
(1.55431e-14 -1.4086e-13 0)
(1.54321e-14 -1.40884e-13 0)
(1.55431e-14 -1.41082e-13 0)
(1.55431e-14 -1.41322e-13 0)
(1.54321e-14 -1.41331e-13 0)
(1.54321e-14 -1.41088e-13 0)
(1.53211e-14 -1.41041e-13 0)
(1.53211e-14 -1.41133e-13 0)
(1.53211e-14 -1.41116e-13 0)
(1.5099e-14 -1.4107e-13 0)
(1.4877e-14 -1.41051e-13 0)
(1.5099e-14 -1.41063e-13 0)
(1.55431e-14 -1.41095e-13 0)
(1.53211e-14 -1.41127e-13 0)
(1.53211e-14 -1.41137e-13 0)
(1.53211e-14 -1.40981e-13 0)
(3.9968e-15 -2.31911e-13 0)
(1.88738e-14 -1.21591e-13 0)
(1.60982e-14 -1.45692e-13 0)
(1.60982e-14 -1.40131e-13 0)
(1.60982e-14 -1.41207e-13 0)
(1.60982e-14 -1.40974e-13 0)
(1.62093e-14 -1.41074e-13 0)
(1.62093e-14 -1.41166e-13 0)
(1.56541e-14 -1.41133e-13 0)
(1.55431e-14 -1.40985e-13 0)
(1.58762e-14 -1.40946e-13 0)
(1.55431e-14 -1.40995e-13 0)
(1.55431e-14 -1.40999e-13 0)
(1.57652e-14 -1.41038e-13 0)
(1.56541e-14 -1.41119e-13 0)
(1.56541e-14 -1.41105e-13 0)
(1.53211e-14 -1.41042e-13 0)
(1.54321e-14 -1.41047e-13 0)
(1.54321e-14 -1.41072e-13 0)
(1.53211e-14 -1.41032e-13 0)
)
;

boundaryField
{
    movingWall
    {
        type            calculated;
        value           uniform (1.53211e-14 -1.41017e-13 0);
    }
    fixedWalls
    {
        type            calculated;
        value           uniform (1.53211e-14 -1.41017e-13 0);
    }
    frontAndBack
    {
        type            empty;
    }
}


// ************************************************************************* //
