/*--------------------------------*- C++ -*----------------------------------*\
| =========                 |                                                 |
| \\      /  F ield         | OpenFOAM: The Open Source CFD Toolbox           |
|  \\    /   O peration     | Version:  2312                                  |
|   \\  /    A nd           | Website:  www.openfoam.com                      |
|    \\/     M anipulation  |                                                 |
\*---------------------------------------------------------------------------*/
FoamFile
{
    version     2.0;
    format      ascii;
    arch        "LSB;label=32;scalar=64";
    class       volScalarField;
    location    "6.375";
    object      divU;
}
// * * * * * * * * * * * * * * * * * * * * * * * * * * * * * * * * * * * * * //

dimensions      [0 0 -1 0 0 0 0];

internalField   nonuniform List<scalar> 
400
(
1.40946e-11
-1.69344e-12
3.71422e-13
-1.28634e-13
2.35127e-14
2.90752e-14
-1.59823e-14
-1.97149e-14
-1.60216e-14
6.02881e-15
-2.27715e-14
-1.84564e-14
9.6845e-15
6.159e-15
-2.6812e-15
1.64033e-14
-3.01007e-15
2.26303e-15
1.09056e-14
0
-2.53974e-11
2.94518e-12
-5.97333e-13
2.06858e-13
-3.17223e-14
-1.17137e-14
-2.96015e-14
3.28134e-14
8.73888e-16
1.2006e-14
1.68062e-14
-8.26471e-16
7.34676e-14
9.27264e-15
1.24712e-14
-5.55737e-14
3.91011e-14
-5.80987e-14
-5.86739e-15
2.71051e-14
9.29703e-12
-1.3374e-12
2.41145e-13
-1.30337e-13
2.50138e-14
-1.18121e-14
1.01145e-16
6.4436e-15
2.96008e-15
1.68192e-14
-6.53775e-15
-4.1169e-14
-6.92744e-14
-3.78073e-14
6.06216e-14
-6.37465e-15
2.96511e-14
-1.74503e-14
-2.12787e-14
2.71051e-14
1.08962e-11
-9.75033e-13
2.08014e-13
-8.30158e-14
1.86522e-14
-7.66763e-14
-5.58141e-15
1.31707e-14
-1.68844e-14
-1.66227e-14
4.44539e-14
4.00162e-14
-8.07921e-15
1.89663e-14
1.25698e-14
-2.20108e-15
-7.28072e-15
1.87037e-14
1.62709e-14
0
-1.82959e-11
1.93396e-12
-3.32012e-13
1.07564e-13
-2.90532e-14
1.59634e-14
2.61698e-14
-6.70915e-15
2.93673e-14
2.92876e-14
-3.19069e-14
1.31338e-14
-1.62546e-14
-1.04578e-14
2.65191e-14
-1.34418e-14
-2.01498e-14
-2.15107e-14
5.2577e-16
0
1.18178e-11
-1.57794e-12
2.57049e-13
-1.18393e-13
2.73397e-14
-3.74912e-14
-1.94254e-14
1.27743e-14
-9.62605e-15
1.27948e-14
1.77899e-14
4.14005e-14
-6.91339e-15
-1.08921e-14
1.69245e-14
-2.09066e-14
4.44969e-14
-1.43292e-15
-4.90879e-16
0
6.53232e-12
-7.7653e-13
1.05365e-13
-5.59226e-14
2.17885e-14
2.47793e-14
5.6123e-14
8.10007e-15
-6.10846e-15
7.94344e-15
-3.08033e-14
7.04514e-15
-2.23199e-14
3.95783e-15
-7.21685e-14
2.93697e-14
-3.07202e-14
5.65424e-15
9.85064e-15
0
-1.73201e-11
2.44526e-12
-4.70946e-13
1.86053e-13
-4.92915e-14
4.60919e-15
-5.28982e-14
-1.42018e-14
8.51542e-15
7.80925e-15
3.05905e-14
5.96229e-14
4.85005e-16
-8.71751e-15
1.97355e-14
3.62436e-15
-5.43931e-15
-3.30648e-15
1.86712e-14
-2.71051e-14
1.05981e-11
-1.57649e-12
2.09931e-13
-1.32933e-13
3.58154e-15
-2.98381e-14
6.56586e-14
4.5728e-14
-1.10521e-14
2.65782e-14
-5.26761e-14
-2.96307e-15
-3.1296e-14
-1.24071e-14
-3.59613e-15
1.39897e-14
-3.24021e-14
9.56829e-15
2.94106e-14
0
-9.75782e-13
4.89122e-14
-3.1266e-14
1.6854e-14
8.14051e-15
-1.04882e-15
-7.80292e-15
-8.51878e-14
2.02811e-14
4.40828e-14
1.08401e-14
4.39174e-14
-2.48367e-14
-1.15499e-14
-4.13961e-14
-8.47114e-15
-2.12596e-14
3.94e-14
-1.36416e-14
0
-2.81893e-12
1.5019e-12
-2.20957e-13
1.11803e-13
-2.72185e-14
1.79454e-14
-3.90167e-15
9.62112e-15
2.94515e-15
-6.71923e-14
-1.784e-15
-5.41034e-15
-4.52186e-14
-3.71188e-14
2.37308e-14
2.07448e-14
2.39898e-14
-8.84817e-15
5.2484e-14
-2.71051e-14
7.88757e-12
-2.92804e-12
4.67673e-13
-3.1867e-13
9.78046e-14
-2.3991e-14
-1.52708e-14
-1.50703e-14
-3.5599e-15
5.93062e-15
2.95824e-14
-1.38832e-14
2.66448e-14
1.44935e-14
4.06328e-15
-5.30885e-15
9.08277e-16
3.11455e-15
1.09594e-14
-5.42101e-14
-1.62359e-11
4.57068e-12
-8.15993e-13
3.68691e-13
-7.75113e-14
4.41582e-14
-5.65828e-15
-9.55584e-15
3.98876e-15
-2.80502e-15
-2.08761e-15
3.89215e-14
-1.92532e-14
-2.29045e-14
-2.89411e-14
-1.12859e-14
3.75986e-15
6.32288e-15
2.91087e-14
5.42101e-14
1.63172e-11
-3.95209e-12
7.52182e-13
-3.4679e-13
6.67351e-14
-1.87586e-14
-8.40895e-15
-7.542e-15
3.8097e-15
1.43775e-14
3.60695e-14
-1.31036e-14
-1.24861e-15
4.29867e-14
2.08757e-15
-1.83829e-14
3.28225e-14
-1.53113e-14
1.13548e-15
-5.42101e-14
-2.60209e-12
1.6718e-12
-3.69794e-13
1.40059e-13
-6.44618e-15
5.24012e-14
-2.52147e-16
-6.64972e-15
-1.97684e-14
1.63115e-14
-1.34034e-14
-1.43416e-14
-5.61906e-14
-2.85596e-14
3.10834e-14
1.70495e-14
-2.71991e-14
8.51501e-14
9.43636e-15
0
-1.48536e-11
1.45217e-12
-2.4684e-13
9.40051e-14
-4.20338e-14
1.86817e-15
-8.72622e-15
-1.30193e-14
1.69226e-14
7.58292e-15
-4.00106e-14
4.7475e-14
5.24616e-15
1.70256e-14
8.32595e-15
-3.84523e-14
2.28863e-14
-2.60833e-14
1.54098e-14
-2.71051e-14
1.77538e-11
-2.01564e-12
4.40905e-13
-1.37293e-13
-3.76352e-15
-9.95733e-15
3.21356e-14
3.90156e-15
-4.82921e-14
-4.04924e-15
-1.649e-14
2.03735e-14
-8.49875e-14
4.01585e-14
6.76481e-14
-3.20085e-14
-3.1662e-14
2.69054e-14
-1.74761e-14
0
-8.40257e-13
2.29183e-13
-4.28144e-14
2.97843e-14
-1.82703e-15
9.46954e-15
-4.52333e-14
-1.81352e-14
6.38503e-14
7.20697e-15
-7.85049e-15
-1.46956e-14
9.97852e-15
1.03119e-14
1.68463e-14
-6.40339e-15
-1.21443e-14
-1.52152e-14
4.19907e-14
-2.71051e-14
-1.76725e-11
1.80203e-12
-3.9409e-13
1.63521e-13
-5.74771e-14
4.46799e-14
1.48924e-14
-1.83405e-14
1.12746e-14
2.31591e-14
-2.2457e-14
1.77023e-14
1.89801e-14
-3.44064e-14
-1.35959e-14
4.07738e-14
1.68503e-14
-1.39901e-14
-1.74625e-14
0
1.16552e-11
-1.43657e-12
3.52366e-13
-1.35525e-13
0
-2.71051e-14
2.71051e-14
-2.71051e-14
0
0
2.71051e-14
-2.71051e-14
0
2.71051e-14
0
-2.71051e-14
0
2.71051e-14
0
0
)
;

boundaryField
{
    movingWall
    {
        type            extrapolatedCalculated;
        value           nonuniform List<scalar> 
20
(
1.16552e-11
-1.43657e-12
3.52366e-13
-1.35525e-13
0
-2.71051e-14
2.71051e-14
-2.71051e-14
0
0
2.71051e-14
-2.71051e-14
0
2.71051e-14
0
-2.71051e-14
0
2.71051e-14
0
0
)
;
    }
    fixedWalls
    {
        type            extrapolatedCalculated;
        value           nonuniform List<scalar> 
60
(
1.40946e-11
-2.53974e-11
9.29703e-12
1.08962e-11
-1.82959e-11
1.18178e-11
6.53232e-12
-1.73201e-11
1.05981e-11
-9.75782e-13
-2.81893e-12
7.88757e-12
-1.62359e-11
1.63172e-11
-2.60209e-12
-1.48536e-11
1.77538e-11
-8.40257e-13
-1.76725e-11
1.16552e-11
0
2.71051e-14
2.71051e-14
0
0
0
0
-2.71051e-14
0
0
-2.71051e-14
-5.42101e-14
5.42101e-14
-5.42101e-14
0
-2.71051e-14
0
-2.71051e-14
0
0
1.40946e-11
-1.69344e-12
3.71422e-13
-1.28634e-13
2.35127e-14
2.90752e-14
-1.59823e-14
-1.97149e-14
-1.60216e-14
6.02881e-15
-2.27715e-14
-1.84564e-14
9.6845e-15
6.159e-15
-2.6812e-15
1.64033e-14
-3.01007e-15
2.26303e-15
1.09056e-14
0
)
;
    }
    frontAndBack
    {
        type            empty;
    }
}


// ************************************************************************* //
