/*--------------------------------*- C++ -*----------------------------------*\
| =========                 |                                                 |
| \\      /  F ield         | OpenFOAM: The Open Source CFD Toolbox           |
|  \\    /   O peration     | Version:  2312                                  |
|   \\  /    A nd           | Website:  www.openfoam.com                      |
|    \\/     M anipulation  |                                                 |
\*---------------------------------------------------------------------------*/
FoamFile
{
    version     2.0;
    format      ascii;
    arch        "LSB;label=32;scalar=64";
    class       volScalarField;
    location    "6.375";
    object      enstrophyField;
}
// * * * * * * * * * * * * * * * * * * * * * * * * * * * * * * * * * * * * * //

dimensions      [0 0 -2 0 0 0 0];

internalField   nonuniform List<scalar> 
400
(
4.51186e-23
8.3271e-23
4.06043e-24
2.22532e-25
8.18462e-27
3.38154e-28
7.38581e-29
5.71373e-30
1.66121e-29
1.85621e-29
1.02117e-29
1.92481e-27
3.9317e-29
2.1929e-28
6.56578e-29
2.53859e-29
1.89421e-28
2.05466e-29
3.91797e-29
1.14993e-28
3.23077e-27
2.50004e-25
2.7139e-26
1.81492e-27
1.61719e-27
8.29102e-28
2.78118e-27
5.58169e-30
1.71773e-27
2.15832e-31
1.3682e-27
3.08549e-30
1.83546e-27
1.97109e-27
1.19114e-27
2.72771e-27
3.75314e-27
2.81642e-29
1.74651e-27
9.01553e-28
1.57023e-23
6.43348e-23
3.71922e-24
1.48264e-25
3.0836e-26
4.30688e-27
3.55023e-27
3.68132e-28
4.20501e-28
1.37604e-28
4.25487e-27
5.35456e-27
1.27457e-27
6.89389e-29
1.76684e-27
1.11538e-27
3.08006e-29
1.50748e-30
1.49839e-27
6.86944e-28
1.26643e-23
4.36883e-23
2.24377e-24
1.33505e-25
4.59e-27
9.00137e-29
1.74063e-29
4.00384e-30
3.59608e-29
5.18012e-31
1.99004e-28
9.06109e-29
1.48892e-27
7.91177e-27
4.88644e-27
7.11206e-27
6.23255e-27
3.26684e-28
2.97982e-28
2.94916e-29
1.41055e-24
6.74678e-25
6.44411e-26
3.47963e-27
3.32745e-29
7.19011e-28
2.23667e-27
8.50279e-28
2.13721e-27
1.86678e-29
1.22433e-27
2.40464e-27
1.83768e-27
2.12067e-27
3.01791e-27
1.63791e-28
2.91171e-28
2.42167e-28
2.17434e-28
4.64347e-28
7.18759e-24
3.19879e-23
1.41832e-24
1.34003e-25
1.58697e-27
2.18059e-27
4.99951e-29
1.50169e-28
5.83093e-28
9.7032e-29
9.1517e-28
3.53556e-28
4.20855e-30
1.12964e-29
1.50431e-27
1.36902e-28
2.42207e-28
1.39805e-27
7.21879e-30
1.57738e-31
1.99091e-23
4.67513e-23
2.84372e-24
1.13455e-25
1.83264e-26
2.58119e-28
6.55228e-27
2.72206e-27
3.90552e-27
8.23785e-28
8.52098e-28
3.17941e-28
1.21975e-27
1.93632e-27
7.08947e-27
2.47033e-27
1.61005e-27
2.50354e-27
2.29857e-28
1.26145e-31
1.74399e-24
1.85624e-24
1.84304e-25
8.84951e-29
1.59824e-27
6.74379e-29
4.95368e-28
1.20299e-31
1.97676e-28
6.13275e-29
8.15418e-28
1.00991e-26
8.14333e-27
7.79611e-28
4.0159e-29
5.50439e-30
5.45504e-28
3.54705e-27
2.35976e-28
8.98504e-28
9.13804e-24
1.88252e-23
1.14997e-24
4.49791e-26
1.60413e-26
8.95717e-28
5.45981e-27
2.71004e-27
3.11937e-28
1.82707e-29
2.15431e-27
9.95237e-28
1.93701e-29
2.04758e-28
3.58662e-27
8.99645e-27
4.56624e-27
2.24702e-28
6.42016e-29
5.48267e-29
2.69252e-23
3.34607e-23
2.02294e-24
1.02183e-25
4.27591e-27
3.64086e-27
2.04048e-27
4.77235e-30
1.17043e-27
1.13617e-27
9.61359e-29
5.46532e-27
1.6491e-27
2.81561e-27
2.64891e-28
4.90569e-32
2.65577e-27
4.50411e-27
4.47168e-33
4.83599e-29
3.11175e-23
3.23538e-23
1.57078e-24
1.48887e-25
3.16169e-28
7.63844e-27
1.86407e-27
8.27608e-30
7.29914e-29
1.27714e-28
2.28585e-27
2.22127e-27
3.16067e-28
6.99034e-28
1.10654e-27
1.8523e-27
2.37938e-27
5.44357e-28
2.33682e-28
9.89683e-29
1.83562e-23
2.18713e-23
1.24026e-24
2.96529e-26
4.78595e-27
3.31084e-29
2.18741e-27
3.85972e-30
9.54372e-28
1.25645e-28
5.5225e-28
7.55565e-30
5.66877e-28
1.5843e-27
4.68742e-28
2.39036e-29
2.21085e-27
5.91158e-28
4.89054e-28
1.12308e-28
1.39187e-25
1.1177e-24
9.21354e-26
1.60569e-28
5.13216e-27
2.24468e-27
3.55551e-27
1.02503e-27
8.59471e-27
1.36018e-29
9.00502e-29
1.5213e-27
3.97413e-27
1.84916e-27
9.41525e-28
6.90966e-28
7.4591e-30
1.32297e-27
5.70053e-30
4.51467e-29
1.82421e-23
2.43899e-23
1.33076e-24
4.36946e-26
3.84513e-27
4.63157e-28
4.6857e-28
3.86964e-28
1.59862e-27
3.70381e-31
4.00626e-28
4.0775e-27
4.32138e-27
2.11403e-27
5.96482e-27
6.5435e-29
1.58705e-29
1.02495e-29
1.96262e-27
1.94737e-29
4.59834e-23
7.6615e-23
4.30063e-24
1.80957e-25
3.92562e-26
1.6274e-27
3.96265e-27
4.30771e-27
5.09048e-27
1.80926e-29
1.3851e-27
1.84375e-28
6.98459e-27
2.79543e-29
1.83225e-28
8.89357e-28
1.97919e-27
1.46642e-27
1.06641e-27
2.9778e-28
2.13453e-23
3.30552e-23
1.94216e-24
6.79439e-26
1.14032e-26
4.63854e-28
7.86254e-28
4.81133e-28
2.81541e-28
6.11072e-32
1.57814e-27
3.02599e-27
1.72032e-27
2.30379e-27
5.94693e-27
1.0694e-27
1.20174e-27
9.95707e-28
2.6325e-28
5.71465e-28
4.61788e-28
1.57251e-24
9.87428e-26
5.74886e-27
2.51654e-28
4.05922e-30
3.06711e-28
3.02381e-30
4.87926e-29
4.72078e-30
2.37828e-27
4.60283e-27
5.99762e-27
9.61582e-28
1.43547e-27
1.84878e-27
2.58061e-29
7.01685e-27
4.21129e-28
1.24906e-28
6.89655e-24
3.80083e-23
2.04947e-24
1.10723e-25
8.54926e-28
8.39556e-27
7.22515e-28
1.23511e-30
1.85806e-30
3.01844e-29
4.67059e-29
1.64383e-30
3.54699e-29
6.53237e-32
4.1489e-27
1.60874e-27
3.07608e-30
8.57872e-30
9.56775e-29
1.57202e-28
1.24019e-24
4.17638e-24
2.89034e-25
3.03319e-27
1.02217e-26
5.36245e-27
2.1307e-26
1.75782e-26
3.61299e-27
3.19045e-28
6.37125e-27
3.94077e-27
2.81177e-27
2.79818e-27
3.25645e-27
3.6734e-27
5.58999e-28
3.65789e-27
7.87243e-29
3.54303e-29
1.70869e-23
3.4869e-23
1.47656e-24
1.40331e-25
2.91356e-28
4.47605e-27
3.97842e-27
5.26003e-27
2.61331e-27
2.65312e-27
1.41596e-27
2.37509e-28
2.61781e-28
1.14424e-28
2.27657e-29
6.07069e-28
5.40635e-28
2.90756e-28
4.09692e-28
2.42051e-29
)
;

boundaryField
{
    movingWall
    {
        type            calculated;
        value           nonuniform List<scalar> 
20
(
6.81713e-23
5.04316e-23
1.19062e-24
2.88286e-25
2.56696e-26
5.25408e-26
5.64656e-26
6.10466e-26
1.14477e-26
5.77294e-27
2.44316e-26
3.48677e-27
3.57809e-27
1.37213e-26
7.99848e-27
9.93573e-27
1.66905e-29
8.57742e-28
1.05473e-27
2.42051e-29
)
;
    }
    fixedWalls
    {
        type            calculated;
        value           nonuniform List<scalar> 
60
(
1.50491e-21
5.60986e-24
1.19993e-21
8.01821e-22
1.59985e-23
5.73145e-22
8.9701e-22
3.84328e-23
3.59958e-22
6.35798e-22
5.87903e-22
4.0917e-22
2.02859e-23
4.60594e-22
1.42826e-21
6.08016e-22
3.3614e-23
6.90991e-22
7.52751e-23
6.14486e-22
5.9832e-28
3.06905e-28
3.55291e-28
2.11463e-29
8.54405e-28
6.4614e-30
1.41554e-29
1.03673e-27
4.91604e-29
1.37619e-28
2.29789e-29
6.29192e-30
1.82126e-28
9.87567e-29
5.04106e-28
4.99897e-28
2.85055e-28
6.29266e-29
1.0335e-28
1.81772e-29
1.47452e-22
1.19399e-22
3.83838e-24
5.05112e-25
2.55116e-28
3.07645e-26
3.23342e-26
1.63834e-26
9.65922e-27
4.50403e-27
3.55313e-27
3.06946e-29
1.41919e-27
2.1929e-28
6.56578e-29
2.53859e-29
3.29482e-27
2.05466e-29
3.19726e-27
1.14993e-28
)
;
    }
    frontAndBack
    {
        type            empty;
    }
}


// ************************************************************************* //
