/*--------------------------------*- C++ -*----------------------------------*\
| =========                 |                                                 |
| \\      /  F ield         | OpenFOAM: The Open Source CFD Toolbox           |
|  \\    /   O peration     | Version:  2312                                  |
|   \\  /    A nd           | Website:  www.openfoam.com                      |
|    \\/     M anipulation  |                                                 |
\*---------------------------------------------------------------------------*/
FoamFile
{
    version     2.0;
    format      ascii;
    arch        "LSB;label=32;scalar=64";
    class       volTensorField;
    location    "6.375";
    object      gradU;
}
// * * * * * * * * * * * * * * * * * * * * * * * * * * * * * * * * * * * * * //

dimensions      [0 0 -1 0 0 0 0];

internalField   nonuniform List<tensor> 
400
(
(-1.02999e-12 1.10443e-11 0 1.54499e-12 1.51221e-11 0 0 0 0)
(1.57209e-12 -1.33659e-11 0 -4.60786e-13 -3.26553e-12 0 0 0 0)
(-4.33681e-13 2.90392e-12 0 5.42101e-14 8.05103e-13 0 0 0 0)
(2.71051e-14 -6.94237e-13 0 -2.71051e-14 -1.55739e-13 0 0 0 0)
(-2.71051e-14 1.55047e-13 0 2.71051e-14 5.06178e-14 0 0 0 0)
(2.71051e-14 -2.60059e-14 0 0 1.97017e-15 0 0 0 0)
(-2.71051e-14 1.21539e-14 0 0 1.11228e-14 0 0 0 0)
(-2.71051e-14 -3.38045e-15 0 0 7.39014e-15 0 0 0 0)
(-2.71051e-14 -5.76404e-15 0 0 1.10835e-14 0 0 0 0)
(0 -6.09296e-15 0 0 6.02881e-15 0 0 0 0)
(-2.71051e-14 4.51924e-15 0 0 4.33353e-15 0 0 0 0)
(-2.71051e-14 7.83512e-15 0 -5.42101e-14 8.64863e-15 0 0 0 0)
(0 -8.86758e-15 0 0 9.6845e-15 0 0 0 0)
(0 -2.09423e-14 0 0 6.159e-15 0 0 0 0)
(0 -1.14593e-14 0 0 -2.6812e-15 0 0 0 0)
(2.71051e-14 7.12543e-15 0 0 -1.07018e-14 0 0 0 0)
(0 7.64118e-15 0 2.71051e-14 -3.01007e-15 0 0 0 0)
(0 6.41041e-15 0 0 2.26303e-15 0 0 0 0)
(0 8.85208e-15 0 0 1.09056e-14 0 0 0 0)
(-2.71051e-14 -1.51653e-14 0 0 1.60068e-14 0 0 0 0)
(2.1684e-12 8.1222e-13 0 7.31836e-13 -2.75753e-11 0 0 0 0)
(-3.06287e-12 -9.51057e-13 0 -2.43945e-13 6.02097e-12 0 0 0 0)
(8.40257e-13 2.05871e-13 0 -2.71051e-14 -1.42954e-12 0 0 0 0)
(-1.0842e-13 -6.02482e-14 0 0 3.08387e-13 0 0 0 0)
(5.42101e-14 2.66152e-15 0 -5.42101e-14 -8.234e-14 0 0 0 0)
(0 -1.34891e-14 0 -5.42101e-14 -1.36839e-14 0 0 0 0)
(0 -6.73389e-15 0 -8.13152e-14 -4.07243e-14 0 0 0 0)
(5.42101e-14 3.34116e-15 0 0 -2.87869e-14 0 0 0 0)
(0 4.40271e-15 0 -5.42101e-14 -1.02096e-14 0 0 0 0)
(0 -6.57011e-16 0 0 5.97719e-15 0 0 0 0)
(0 -1.89941e-15 0 -5.42101e-14 1.24727e-14 0 0 0 0)
(0 -2.48415e-15 0 0 -9.4751e-15 0 0 0 0)
(8.13152e-14 6.37795e-15 0 -5.42101e-14 -1.75321e-14 0 0 0 0)
(0 8.57662e-15 0 -5.42101e-14 3.11365e-15 0 0 0 0)
(0 -5.40149e-15 0 -5.42101e-14 1.51524e-14 0 0 0 0)
(-5.42101e-14 -7.4543e-15 0 -8.13152e-14 9.33825e-15 0 0 0 0)
(5.42101e-14 5.32365e-15 0 -8.13152e-14 -1.20989e-14 0 0 0 0)
(-5.42101e-14 7.50522e-15 0 0 -6.15158e-15 0 0 0 0)
(0 4.89174e-15 0 -5.42101e-14 -1.67729e-14 0 0 0 0)
(5.42101e-14 -1.17471e-14 0 -5.42101e-14 -1.55365e-14 0 0 0 0)
(-5.42101e-13 -1.051e-11 0 -4.90601e-12 9.85838e-12 0 0 0 0)
(8.40257e-13 1.27798e-11 0 1.43657e-12 -2.16839e-12 0 0 0 0)
(-2.43945e-13 -2.80867e-12 0 -8.13152e-14 4.86112e-13 0 0 0 0)
(0 6.52964e-13 0 1.0842e-13 -1.20354e-13 0 0 0 0)
(0 -1.67023e-13 0 8.13152e-14 2.9631e-14 0 0 0 0)
(0 1.56098e-14 0 1.0842e-13 -9.83839e-17 0 0 0 0)
(0 -2.94912e-15 0 8.13152e-14 2.59757e-15 0 0 0 0)
(0 2.71342e-14 0 0 7.35281e-16 0 0 0 0)
(0 2.9e-14 0 0 2.08619e-15 0 0 0 0)
(0 1.65894e-14 0 0 4.81323e-15 0 0 0 0)
(0 -1.09331e-14 0 8.13152e-14 3.76106e-15 0 0 0 0)
(-5.42101e-14 -2.21697e-14 0 8.13152e-14 1.38676e-14 0 0 0 0)
(-8.13152e-14 3.72117e-15 0 5.42101e-14 1.98884e-14 0 0 0 0)
(-5.42101e-14 1.17421e-14 0 0 7.13015e-15 0 0 0 0)
(5.42101e-14 -5.2347e-15 0 5.42101e-14 -6.05967e-15 0 0 0 0)
(0 -2.01259e-14 0 2.71051e-14 -5.0111e-15 0 0 0 0)
(2.71051e-14 -7.84864e-15 0 0 -9.45007e-15 0 0 0 0)
(0 1.73637e-15 0 0 -1.35618e-14 0 0 0 0)
(0 -5.328e-16 0 5.42101e-14 -1.54113e-14 0 0 0 0)
(5.42101e-14 1.71441e-14 0 5.42101e-14 -1.57608e-14 0 0 0 0)
(-1.35525e-12 8.50221e-12 0 3.46945e-12 1.22356e-11 0 0 0 0)
(1.73472e-12 -1.03233e-11 0 -9.75782e-13 -2.7005e-12 0 0 0 0)
(-4.06576e-13 2.25391e-12 0 1.35525e-13 6.1739e-13 0 0 0 0)
(5.42101e-14 -5.16729e-13 0 0 -1.42415e-13 0 0 0 0)
(-2.71051e-14 1.22917e-13 0 2.71051e-14 4.78485e-14 0 0 0 0)
(-8.13152e-14 -4.05225e-14 0 -2.71051e-14 1.64509e-14 0 0 0 0)
(-2.71051e-14 -5.90022e-15 0 0 2.14225e-14 0 0 0 0)
(0 2.82979e-15 0 0 6.72706e-15 0 0 0 0)
(0 8.48066e-15 0 0 -1.98445e-14 0 0 0 0)
(2.71051e-14 1.01785e-15 0 0 -3.34419e-14 0 0 0 0)
(8.13152e-14 7.15492e-15 0 2.71051e-14 -3.03236e-14 0 0 0 0)
(2.71051e-14 1.36432e-14 0 2.71051e-14 -1.29932e-16 0 0 0 0)
(-2.71051e-14 -3.59459e-16 0 5.42101e-14 6.98504e-15 0 0 0 0)
(2.71051e-14 -1.73714e-14 0 1.0842e-13 2.56349e-15 0 0 0 0)
(0 -1.75427e-14 0 8.13152e-14 6.15829e-15 0 0 0 0)
(0 -1.08447e-14 0 1.0842e-13 4.17357e-15 0 0 0 0)
(-2.71051e-14 -3.22703e-15 0 1.0842e-13 1.72783e-14 0 0 0 0)
(0 1.54398e-15 0 2.71051e-14 9.04894e-15 0 0 0 0)
(0 2.69269e-15 0 2.71051e-14 1.04445e-14 0 0 0 0)
(-2.71051e-14 1.9425e-14 0 2.71051e-14 3.33016e-15 0 0 0 0)
(1.92446e-12 -9.74884e-13 0 7.04731e-13 -2.02171e-11 0 0 0 0)
(-2.49366e-12 1.16162e-12 0 0 4.42687e-12 0 0 0 0)
(7.04731e-13 -2.50582e-13 0 1.0842e-13 -1.02792e-12 0 0 0 0)
(-1.35525e-13 8.34222e-14 0 0 2.4479e-13 0 0 0 0)
(2.71051e-14 -8.15776e-15 0 0 -4.77055e-14 0 0 0 0)
(0 -1.08162e-14 0 2.71051e-14 1.13245e-14 0 0 0 0)
(2.71051e-14 -1.2673e-14 0 5.42101e-14 4.64613e-15 0 0 0 0)
(-2.71051e-14 -1.41328e-14 0 2.71051e-14 7.22525e-15 0 0 0 0)
(2.71051e-14 -1.1169e-14 0 5.42101e-14 -7.95846e-15 0 0 0 0)
(2.71051e-14 6.11028e-15 0 0 -8.29982e-15 0 0 0 0)
(-2.71051e-14 2.23789e-14 0 -2.71051e-14 4.95437e-15 0 0 0 0)
(0 1.51389e-14 0 -5.42101e-14 2.22685e-16 0 0 0 0)
(0 6.41459e-15 0 -5.42101e-14 -8.17536e-15 0 0 0 0)
(0 1.09154e-14 0 -5.42101e-14 -2.31908e-15 0 0 0 0)
(0 -3.62462e-15 0 -8.13152e-14 1.39493e-14 0 0 0 0)
(-2.71051e-14 -9.00582e-15 0 -2.71051e-14 1.58644e-14 0 0 0 0)
(-2.71051e-14 -2.97328e-15 0 -2.71051e-14 1.4236e-14 0 0 0 0)
(-2.71051e-14 -5.09745e-15 0 -2.71051e-14 1.39958e-14 0 0 0 0)
(0 -6.25157e-15 0 -2.71051e-14 1.136e-14 0 0 0 0)
(0 3.36944e-15 0 -2.71051e-14 7.50338e-15 0 0 0 0)
(-6.23416e-13 -7.28801e-12 0 -3.49655e-12 1.24503e-11 0 0 0 0)
(1.0842e-12 8.86585e-12 0 8.67362e-13 -2.67164e-12 0 0 0 0)
(-4.06576e-13 -1.92818e-12 0 -2.43945e-13 6.70376e-13 0 0 0 0)
(0 4.63482e-13 0 -5.42101e-14 -1.17537e-13 0 0 0 0)
(0 -1.10548e-13 0 -5.42101e-14 2.92879e-14 0 0 0 0)
(-2.71051e-14 1.18291e-14 0 -5.42101e-14 7.55499e-16 0 0 0 0)
(-2.71051e-14 -9.99951e-15 0 0 8.61489e-15 0 0 0 0)
(0 -9.7748e-15 0 -2.71051e-14 1.94834e-14 0 0 0 0)
(-5.42101e-14 -7.04441e-15 0 2.71051e-14 4.23219e-14 0 0 0 0)
(-2.71051e-14 1.39307e-14 0 0 3.77174e-14 0 0 0 0)
(0 1.56774e-14 0 -2.71051e-14 2.25917e-14 0 0 0 0)
(2.71051e-14 5.13462e-16 0 2.71051e-14 1.16156e-15 0 0 0 0)
(-2.71051e-14 -2.90122e-15 0 0 9.34117e-15 0 0 0 0)
(0 4.75319e-15 0 0 -4.34229e-16 0 0 0 0)
(2.71051e-14 6.40694e-16 0 -5.42101e-14 -9.59459e-15 0 0 0 0)
(0 -1.0558e-14 0 -2.71051e-14 -7.46478e-15 0 0 0 0)
(5.42101e-14 -5.09563e-15 0 -2.71051e-14 -1.66685e-14 0 0 0 0)
(0 -1.33201e-15 0 -5.42101e-14 -7.0273e-15 0 0 0 0)
(0 -3.79968e-15 0 0 -1.01665e-15 0 0 0 0)
(0 5.61673e-16 0 0 4.88837e-15 0 0 0 0)
(-6.77626e-13 8.80382e-12 0 2.49366e-12 7.19397e-12 0 0 0 0)
(8.13152e-13 -1.06184e-11 0 -9.48677e-13 -1.58383e-12 0 0 0 0)
(-2.71051e-13 2.30352e-12 0 -8.13152e-14 3.63312e-13 0 0 0 0)
(5.42101e-14 -5.57666e-13 0 -8.13152e-14 -1.0016e-13 0 0 0 0)
(2.71051e-14 1.10134e-13 0 -8.13152e-14 -5.5512e-15 0 0 0 0)
(5.42101e-14 -3.14892e-14 0 -5.42101e-14 -1.90446e-14 0 0 0 0)
(5.42101e-14 6.05491e-15 0 -1.0842e-13 -5.76671e-15 0 0 0 0)
(0 1.95742e-14 0 -5.42101e-14 -4.67419e-15 0 0 0 0)
(0 7.06498e-15 0 -8.13152e-14 3.51759e-15 0 0 0 0)
(0 -1.36198e-14 0 -5.42101e-14 -4.85139e-15 0 0 0 0)
(0 -1.41768e-14 0 2.71051e-14 -2.14881e-14 0 0 0 0)
(2.71051e-14 1.88835e-15 0 2.71051e-14 -7.25026e-15 0 0 0 0)
(-2.71051e-14 4.8188e-15 0 5.42101e-14 1.16985e-14 0 0 0 0)
(0 -8.02037e-15 0 5.42101e-14 1.48499e-14 0 0 0 0)
(-5.42101e-14 -1.06552e-14 0 1.0842e-13 -7.77781e-15 0 0 0 0)
(2.71051e-14 -1.60797e-14 0 5.42101e-14 -3.93381e-15 0 0 0 0)
(-2.71051e-14 -2.5358e-15 0 5.42101e-14 6.09815e-15 0 0 0 0)
(0 1.05544e-14 0 8.13152e-14 7.08716e-15 0 0 0 0)
(0 5.6641e-15 0 2.71051e-14 1.03415e-14 0 0 0 0)
(0 -5.02284e-16 0 0 5.50623e-15 0 0 0 0)
(9.21572e-13 -1.67788e-12 0 1.89735e-13 -1.82251e-11 0 0 0 0)
(-1.49078e-12 2.0352e-12 0 1.0842e-13 3.92652e-12 0 0 0 0)
(4.87891e-13 -4.44501e-13 0 1.6263e-13 -9.55781e-13 0 0 0 0)
(0 9.46189e-14 0 8.13152e-14 1.87765e-13 0 0 0 0)
(0 -2.94324e-14 0 2.71051e-14 -4.3975e-14 0 0 0 0)
(0 1.16136e-14 0 0 6.93494e-15 0 0 0 0)
(-5.42101e-14 4.3709e-15 0 -2.71051e-14 -6.00965e-16 0 0 0 0)
(0 -4.90508e-16 0 0 -2.23018e-14 0 0 0 0)
(5.42101e-14 -7.22161e-15 0 -2.71051e-14 -3.95862e-14 0 0 0 0)
(2.71051e-14 -1.1075e-14 0 0 -2.72392e-14 0 0 0 0)
(5.42101e-14 1.32785e-14 0 -2.71051e-14 -1.99214e-14 0 0 0 0)
(5.42101e-14 3.37e-14 0 -1.0842e-13 -1.63239e-15 0 0 0 0)
(0 1.91989e-14 0 -1.0842e-13 -4.30011e-15 0 0 0 0)
(0 -1.47231e-14 0 -5.42101e-14 -1.26753e-14 0 0 0 0)
(2.71051e-14 -1.8143e-14 0 -2.71051e-14 -1.65162e-14 0 0 0 0)
(0 3.31795e-15 0 0 1.35967e-15 0 0 0 0)
(-2.71051e-14 5.92535e-15 0 -2.71051e-14 2.52808e-14 0 0 0 0)
(-2.71051e-14 2.91136e-15 0 -8.13152e-14 1.81443e-14 0 0 0 0)
(0 -5.38061e-15 0 -2.71051e-14 8.82054e-15 0 0 0 0)
(-2.71051e-14 -1.52861e-14 0 2.71051e-14 1.14872e-15 0 0 0 0)
(-3.52366e-13 -5.49478e-12 0 -1.21973e-12 1.09508e-11 0 0 0 0)
(7.86047e-13 6.651e-12 0 5.14996e-13 -2.36835e-12 0 0 0 0)
(-3.52366e-13 -1.43524e-12 0 8.13152e-14 5.72457e-13 0 0 0 0)
(-2.71051e-14 3.5414e-13 0 5.42101e-14 -1.02146e-13 0 0 0 0)
(-5.42101e-14 -7.06961e-14 0 1.0842e-13 5.2873e-14 0 0 0 0)
(-5.42101e-14 1.18848e-14 0 5.42101e-14 1.97628e-14 0 0 0 0)
(5.42101e-14 -2.31819e-14 0 8.13152e-14 1.01365e-14 0 0 0 0)
(2.71051e-14 -1.94111e-14 0 5.42101e-14 5.71961e-15 0 0 0 0)
(-2.71051e-14 2.12757e-15 0 2.71051e-14 7.53758e-15 0 0 0 0)
(0 6.04495e-15 0 0 1.87689e-14 0 0 0 0)
(-8.13152e-14 1.143e-14 0 -5.42101e-14 2.51536e-14 0 0 0 0)
(0 1.75097e-14 0 -2.71051e-14 -8.37583e-15 0 0 0 0)
(0 -6.22416e-15 0 0 -3.1781e-14 0 0 0 0)
(2.71051e-14 -2.02365e-14 0 0 -3.07947e-14 0 0 0 0)
(0 3.37985e-15 0 -8.13152e-14 3.77344e-15 0 0 0 0)
(0 2.57174e-14 0 -1.0842e-13 1.03653e-14 0 0 0 0)
(-2.71051e-14 1.42489e-14 0 -8.13152e-14 1.42262e-16 0 0 0 0)
(2.71051e-14 -5.90592e-15 0 -2.71051e-14 -1.42303e-14 0 0 0 0)
(5.42101e-14 -1.13315e-14 0 0 -1.63656e-14 0 0 0 0)
(0 -1.04715e-14 0 0 -8.7551e-15 0 0 0 0)
(2.1684e-13 6.9046e-12 0 -4.33681e-13 -1.20062e-12 0 0 0 0)
(-1.89735e-13 -8.34318e-12 0 -1.6263e-13 2.43048e-13 0 0 0 0)
(2.71051e-14 1.8217e-12 0 -1.89735e-13 -5.14616e-14 0 0 0 0)
(0 -4.24965e-13 0 2.71051e-14 1.4262e-14 0 0 0 0)
(0 9.24761e-14 0 0 4.55897e-15 0 0 0 0)
(0 -3.11229e-14 0 5.42101e-14 1.68422e-15 0 0 0 0)
(-2.71051e-14 -9.6723e-15 0 5.42101e-14 7.85367e-15 0 0 0 0)
(-1.0842e-13 -3.08945e-15 0 0 3.17145e-14 0 0 0 0)
(0 5.82771e-15 0 5.42101e-14 3.13332e-14 0 0 0 0)
(2.71051e-14 6.54107e-15 0 5.42101e-14 1.75046e-14 0 0 0 0)
(0 -1.38662e-14 0 0 9.30611e-15 0 0 0 0)
(5.42101e-14 -2.32346e-14 0 8.13152e-14 -7.32967e-15 0 0 0 0)
(0 -3.21991e-15 0 5.42101e-14 -2.06458e-14 0 0 0 0)
(0 2.08313e-14 0 -5.42101e-14 8.57275e-16 0 0 0 0)
(-5.42101e-14 2.3017e-14 0 0 1.64101e-14 0 0 0 0)
(0 -3.13231e-16 0 0 4.64422e-15 0 0 0 0)
(0 -1.86703e-14 0 5.42101e-14 -1.59625e-14 0 0 0 0)
(5.42101e-14 -1.35965e-14 0 8.13152e-14 -2.43783e-14 0 0 0 0)
(0 9.45694e-17 0 0 -1.59472e-14 0 0 0 0)
(0 9.83462e-15 0 0 -7.56038e-15 0 0 0 0)
(-1.02999e-12 -6.45235e-12 0 1.43657e-12 -1.78353e-12 0 0 0 0)
(1.0842e-12 7.80015e-12 0 -2.43945e-13 4.22998e-13 0 0 0 0)
(-1.0842e-13 -1.66402e-12 0 1.0842e-13 -1.08376e-13 0 0 0 0)
(1.0842e-13 4.10161e-13 0 -1.35525e-13 1.36342e-14 0 0 0 0)
(-2.71051e-14 -8.32739e-14 0 -1.0842e-13 -8.25397e-15 0 0 0 0)
(2.71051e-14 1.51795e-14 0 -1.0842e-13 -8.11087e-15 0 0 0 0)
(0 6.84845e-15 0 -5.42101e-14 3.90125e-15 0 0 0 0)
(0 4.06843e-15 0 0 1.34938e-14 0 0 0 0)
(0 -1.20823e-14 0 0 9.76909e-15 0 0 0 0)
(-5.42101e-14 -1.59821e-14 0 0 -2.85485e-15 0 0 0 0)
(0 -1.34043e-14 0 5.42101e-14 -1.26241e-14 0 0 0 0)
(0 -1.24422e-14 0 5.42101e-14 4.88241e-15 0 0 0 0)
(-5.42101e-14 1.96279e-15 0 2.71051e-14 6.72314e-15 0 0 0 0)
(-2.71051e-14 1.68194e-14 0 5.42101e-14 1.53611e-15 0 0 0 0)
(2.71051e-14 7.16679e-15 0 5.42101e-14 -1.61883e-14 0 0 0 0)
(5.42101e-14 -6.65527e-15 0 5.42101e-14 -2.49942e-14 0 0 0 0)
(2.71051e-14 -1.47737e-14 0 5.42101e-14 -8.96076e-15 0 0 0 0)
(-2.71051e-14 -5.8906e-15 0 2.71051e-14 5.96189e-15 0 0 0 0)
(2.71051e-14 5.48646e-15 0 2.71051e-14 1.19155e-14 0 0 0 0)
(-2.71051e-14 1.30361e-14 0 2.71051e-14 1.0037e-14 0 0 0 0)
(1.49078e-12 5.54407e-12 0 -5.14996e-13 6.39735e-12 0 0 0 0)
(-1.57209e-12 -6.66803e-12 0 -5.42101e-14 -1.36707e-12 0 0 0 0)
(1.35525e-13 1.41234e-12 0 -1.6263e-13 3.36264e-13 0 0 0 0)
(-2.43945e-13 -3.24843e-13 0 -8.13152e-14 -7.81074e-14 0 0 0 0)
(1.0842e-13 7.0731e-14 0 -2.71051e-14 -1.05022e-14 0 0 0 0)
(0 -1.89677e-14 0 -2.71051e-14 -1.48314e-14 0 0 0 0)
(0 1.19324e-14 0 -5.42101e-14 -1.13692e-14 0 0 0 0)
(0 2.77839e-15 0 0 -2.46915e-14 0 0 0 0)
(2.71051e-14 -1.05209e-14 0 -5.42101e-14 -3.36101e-14 0 0 0 0)
(5.42101e-14 -1.58521e-14 0 0 -3.52973e-14 0 0 0 0)
(5.42101e-14 -6.12896e-15 0 2.71051e-14 -2.28437e-14 0 0 0 0)
(0 -3.88733e-15 0 0 -8.4729e-15 0 0 0 0)
(0 -6.56621e-15 0 2.71051e-14 1.76532e-14 0 0 0 0)
(0 -2.08013e-15 0 5.42101e-14 2.45073e-14 0 0 0 0)
(0 -3.5133e-15 0 2.71051e-14 7.43758e-15 0 0 0 0)
(0 6.91427e-15 0 0 1.05142e-15 0 0 0 0)
(0 1.22858e-14 0 -5.42101e-14 4.02358e-15 0 0 0 0)
(0 7.27977e-15 0 -2.71051e-14 1.19627e-14 0 0 0 0)
(0 4.16967e-15 0 -2.71051e-14 1.26855e-14 0 0 0 0)
(-5.42101e-14 -1.21179e-14 0 -2.71051e-14 9.8528e-15 0 0 0 0)
(-1.65341e-12 -1.42208e-12 0 -8.94467e-13 -1.45836e-11 0 0 0 0)
(1.46367e-12 1.73907e-12 0 2.43945e-13 3.1077e-12 0 0 0 0)
(-8.13152e-14 -3.75058e-13 0 5.42101e-14 -7.41565e-13 0 0 0 0)
(2.1684e-13 6.33948e-14 0 8.13152e-14 1.45259e-13 0 0 0 0)
(0 -1.99979e-14 0 8.13152e-14 -6.68956e-14 0 0 0 0)
(5.42101e-14 1.43125e-14 0 8.13152e-14 -1.31659e-14 0 0 0 0)
(0 -3.01166e-15 0 8.13152e-14 -1.74925e-14 0 0 0 0)
(0 -1.81725e-14 0 2.71051e-14 -2.15905e-14 0 0 0 0)
(2.71051e-14 -2.26882e-14 0 1.0842e-13 -1.95564e-14 0 0 0 0)
(0 -5.2157e-15 0 0 -8.73564e-15 0 0 0 0)
(0 1.34201e-14 0 0 -4.56497e-15 0 0 0 0)
(2.71051e-14 2.80547e-14 0 -2.71051e-14 -1.40535e-15 0 0 0 0)
(-2.71051e-14 3.4943e-14 0 -5.42101e-14 8.31218e-15 0 0 0 0)
(-2.71051e-14 6.60371e-15 0 -5.42101e-14 1.68121e-14 0 0 0 0)
(-5.42101e-14 -1.62891e-14 0 2.71051e-14 2.12057e-14 0 0 0 0)
(-2.71051e-14 -1.00693e-14 0 2.71051e-14 2.11281e-14 0 0 0 0)
(0 -3.86241e-15 0 0 2.85158e-15 0 0 0 0)
(0 2.77136e-15 0 5.42101e-14 3.20833e-15 0 0 0 0)
(2.71051e-14 3.37654e-15 0 0 -8.95577e-15 0 0 0 0)
(5.42101e-14 -9.50228e-15 0 0 -9.40291e-15 0 0 0 0)
(8.40257e-13 -5.9318e-12 0 1.0842e-13 1.5469e-11 0 0 0 0)
(-6.50521e-13 7.17399e-12 0 1.89735e-13 -3.29149e-12 0 0 0 0)
(0 -1.5501e-12 0 8.13152e-14 7.55024e-13 0 0 0 0)
(-1.6263e-13 3.49827e-13 0 5.42101e-14 -1.7338e-13 0 0 0 0)
(2.71051e-14 -8.76941e-14 0 0 3.58261e-14 0 0 0 0)
(0 3.04354e-14 0 0 -8.70678e-15 0 0 0 0)
(0 3.50768e-15 0 -2.71051e-14 -2.75067e-15 0 0 0 0)
(0 7.14498e-16 0 -2.71051e-14 2.01384e-15 0 0 0 0)
(-2.71051e-14 2.33398e-15 0 -5.42101e-14 2.6926e-14 0 0 0 0)
(-2.71051e-14 -8.60676e-16 0 0 4.42876e-14 0 0 0 0)
(0 1.20133e-15 0 -2.71051e-14 3.81571e-14 0 0 0 0)
(-5.42101e-14 8.98983e-15 0 -8.13152e-14 2.92901e-14 0 0 0 0)
(0 1.16513e-14 0 -8.13152e-14 -9.1005e-15 0 0 0 0)
(8.13152e-14 1.08134e-14 0 -5.42101e-14 -4.2529e-14 0 0 0 0)
(2.71051e-14 8.02631e-16 0 -1.0842e-13 -2.31814e-14 0 0 0 0)
(0 -1.14398e-14 0 0 -7.09709e-15 0 0 0 0)
(2.71051e-14 -5.63392e-15 0 0 1.95761e-15 0 0 0 0)
(-2.71051e-14 -4.52757e-15 0 0 5.47093e-15 0 0 0 0)
(0 -8.44156e-15 0 5.42101e-14 -8.68153e-16 0 0 0 0)
(-5.42101e-14 6.24078e-15 0 0 -5.93317e-15 0 0 0 0)
(-1.32815e-12 1.07554e-11 0 1.16552e-12 -1.26567e-12 0 0 0 0)
(1.43657e-12 -1.29749e-11 0 -5.96311e-13 2.29985e-13 0 0 0 0)
(-2.98156e-13 2.74305e-12 0 -1.89735e-13 -6.48791e-14 0 0 0 0)
(1.35525e-13 -6.55803e-13 0 -5.42101e-14 -1.04193e-15 0 0 0 0)
(-2.71051e-14 1.44675e-13 0 -1.35525e-13 8.1339e-15 0 0 0 0)
(2.71051e-14 -2.42643e-14 0 -8.13152e-14 1.69498e-14 0 0 0 0)
(0 7.70896e-15 0 -8.13152e-14 8.15681e-15 0 0 0 0)
(0 1.15042e-14 0 -8.13152e-14 8.92278e-16 0 0 0 0)
(-2.71051e-14 1.95856e-14 0 -8.13152e-14 3.52694e-15 0 0 0 0)
(2.71051e-14 6.01541e-15 0 0 1.934e-15 0 0 0 0)
(-2.71051e-14 -1.57738e-15 0 -5.42101e-14 4.7372e-15 0 0 0 0)
(0 -1.92029e-14 0 0 -1.23807e-15 0 0 0 0)
(-5.42101e-14 -3.68761e-14 0 8.13152e-14 -7.3187e-16 0 0 0 0)
(0 -7.4772e-15 0 0 -1.73362e-14 0 0 0 0)
(5.42101e-14 1.91429e-14 0 0 -2.52143e-14 0 0 0 0)
(2.71051e-14 1.50697e-14 0 -2.71051e-14 -1.87776e-14 0 0 0 0)
(-2.71051e-14 8.7056e-15 0 -5.42101e-14 -5.81153e-15 0 0 0 0)
(8.13152e-14 -5.44084e-17 0 -5.42101e-14 -7.95891e-15 0 0 0 0)
(0 -8.02755e-15 0 -5.42101e-14 8.30088e-15 0 0 0 0)
(0 -2.70096e-15 0 -2.71051e-14 4.6421e-15 0 0 0 0)
(1.38236e-12 -6.96749e-12 0 -4.33681e-13 -1.62246e-11 0 0 0 0)
(-1.95156e-12 8.37478e-12 0 2.43945e-13 3.41244e-12 0 0 0 0)
(5.69206e-13 -1.78113e-12 0 1.89735e-13 -8.25723e-13 0 0 0 0)
(-8.13152e-14 4.2284e-13 0 5.42101e-14 1.70787e-13 0 0 0 0)
(0 -6.97024e-14 0 8.13152e-14 -3.55876e-14 0 0 0 0)
(0 3.04583e-14 0 0 3.67705e-15 0 0 0 0)
(0 -1.25498e-14 0 2.71051e-14 -8.47408e-15 0 0 0 0)
(0 -3.91537e-15 0 2.71051e-14 -6.36959e-15 0 0 0 0)
(2.71051e-14 3.3757e-15 0 2.71051e-14 -1.7519e-14 0 0 0 0)
(5.42101e-14 3.49592e-16 0 0 -3.58337e-14 0 0 0 0)
(0 -1.97074e-15 0 5.42101e-14 -2.66072e-14 0 0 0 0)
(5.42101e-14 3.52075e-15 0 8.13152e-14 -1.94986e-14 0 0 0 0)
(0 -4.44688e-15 0 5.42101e-14 7.22664e-15 0 0 0 0)
(0 -1.3669e-14 0 5.42101e-14 1.84801e-14 0 0 0 0)
(0 -6.38787e-16 0 1.0842e-13 4.34762e-15 0 0 0 0)
(-2.71051e-14 7.96292e-15 0 5.42101e-14 -1.29169e-15 0 0 0 0)
(2.71051e-14 5.18481e-15 0 5.42101e-14 -4.12472e-15 0 0 0 0)
(-2.71051e-14 9.58484e-15 0 5.42101e-14 -2.81313e-15 0 0 0 0)
(0 4.15945e-15 0 2.71051e-14 5.97341e-15 0 0 0 0)
(-2.71051e-14 -6.7022e-15 0 2.71051e-14 7.13106e-15 0 0 0 0)
(-1.51788e-12 -2.0567e-12 0 -2.08709e-12 1.92449e-11 0 0 0 0)
(2.05998e-12 2.42394e-12 0 6.50521e-13 -4.06412e-12 0 0 0 0)
(-5.42101e-13 -4.98604e-13 0 -5.42101e-14 9.85901e-13 0 0 0 0)
(2.71051e-14 1.34332e-13 0 2.71051e-14 -1.77088e-13 0 0 0 0)
(-8.13152e-14 -2.24345e-14 0 0 6.53754e-14 0 0 0 0)
(0 2.84929e-15 0 0 -1.18255e-14 0 0 0 0)
(5.42101e-14 -2.33768e-15 0 -2.71051e-14 -1.33483e-14 0 0 0 0)
(2.71051e-14 2.45919e-15 0 0 -1.01842e-14 0 0 0 0)
(-2.71051e-14 -9.87852e-15 0 0 -1.10046e-14 0 0 0 0)
(0 -3.07271e-15 0 0 -1.16322e-14 0 0 0 0)
(0 1.47577e-14 0 -5.42101e-14 -3.5845e-15 0 0 0 0)
(2.71051e-14 1.46309e-14 0 -8.13152e-14 3.56014e-18 0 0 0 0)
(-8.13152e-14 1.10253e-15 0 -1.0842e-13 -8.91845e-15 0 0 0 0)
(5.42101e-14 -1.03562e-14 0 -5.42101e-14 -3.97214e-15 0 0 0 0)
(5.42101e-14 -6.28925e-16 0 -5.42101e-14 5.11205e-15 0 0 0 0)
(-2.71051e-14 6.5974e-15 0 -5.42101e-14 6.44375e-15 0 0 0 0)
(-2.71051e-14 7.18416e-15 0 0 -3.38157e-16 0 0 0 0)
(2.71051e-14 1.00437e-14 0 -1.0842e-13 -1.22141e-15 0 0 0 0)
(0 1.91664e-15 0 -2.71051e-14 -5.78084e-15 0 0 0 0)
(-2.71051e-14 -1.58054e-14 0 0 8.45226e-15 0 0 0 0)
(-5.42101e-14 8.21334e-12 0 4.49944e-12 -7.60157e-13 0 0 0 0)
(5.42101e-14 -9.88427e-12 0 -1.16552e-12 1.84836e-13 0 0 0 0)
(-5.42101e-14 2.1059e-12 0 8.13152e-14 4.17182e-15 0 0 0 0)
(0 -4.97686e-13 0 -2.71051e-14 3.15524e-14 0 0 0 0)
(-2.71051e-14 9.55605e-14 0 5.42101e-14 2.90415e-14 0 0 0 0)
(0 -4.82654e-14 0 8.13152e-14 1.94269e-14 0 0 0 0)
(-5.42101e-14 -1.09085e-14 0 2.71051e-14 3.94629e-15 0 0 0 0)
(0 -1.57169e-15 0 0 -2.20368e-14 0 0 0 0)
(8.13152e-14 1.92773e-15 0 0 -2.33828e-14 0 0 0 0)
(0 7.76973e-15 0 0 1.12562e-14 0 0 0 0)
(-2.71051e-14 9.66498e-15 0 0 8.63954e-15 0 0 0 0)
(0 -1.81319e-15 0 0 -7.96398e-15 0 0 0 0)
(2.71051e-14 -8.42258e-15 0 0 -1.34542e-14 0 0 0 0)
(0 3.61452e-16 0 0 -2.74155e-15 0 0 0 0)
(0 9.7771e-15 0 -8.13152e-14 3.40832e-15 0 0 0 0)
(0 2.51272e-15 0 -5.42101e-14 -1.49994e-15 0 0 0 0)
(0 -2.48036e-15 0 0 -7.58739e-15 0 0 0 0)
(0 4.14215e-15 0 0 -1.50155e-14 0 0 0 0)
(5.42101e-14 1.38331e-14 0 0 -2.18483e-14 0 0 0 0)
(0 -9.37361e-15 0 -2.71051e-14 -2.37497e-15 0 0 0 0)
(1.81604e-12 -2.63202e-12 0 -1.0571e-12 -1.9508e-11 0 0 0 0)
(-2.35814e-12 3.18827e-12 0 2.98156e-13 4.14783e-12 0 0 0 0)
(5.96311e-13 -6.51888e-13 0 1.0842e-13 -1.0018e-12 0 0 0 0)
(-2.71051e-14 1.59202e-13 0 8.13152e-14 1.87947e-13 0 0 0 0)
(0 -3.45601e-14 0 1.0842e-13 -5.56501e-14 0 0 0 0)
(2.71051e-14 -2.2246e-14 0 8.13152e-14 8.10528e-15 0 0 0 0)
(0 -4.38013e-14 0 1.6263e-13 5.91565e-15 0 0 0 0)
(-2.71051e-14 -2.48699e-14 0 1.6263e-13 -2.0531e-16 0 0 0 0)
(0 2.34144e-14 0 1.0842e-13 1.63443e-15 0 0 0 0)
(0 2.89497e-14 0 5.42101e-14 1.59522e-14 0 0 0 0)
(-2.71051e-14 -4.46245e-15 0 1.0842e-13 1.24986e-14 0 0 0 0)
(0 -7.46285e-15 0 8.13152e-14 5.29284e-15 0 0 0 0)
(0 6.32496e-15 0 8.13152e-14 9.00161e-15 0 0 0 0)
(-5.42101e-14 6.50635e-15 0 8.13152e-14 9.49184e-15 0 0 0 0)
(0 6.12681e-16 0 8.13152e-14 -3.33716e-15 0 0 0 0)
(5.42101e-14 -4.39831e-15 0 8.13152e-14 -7.03295e-15 0 0 0 0)
(2.71051e-14 -6.33142e-15 0 2.71051e-14 1.88954e-15 0 0 0 0)
(-2.71051e-14 -4.21723e-15 0 8.13152e-14 1.22504e-15 0 0 0 0)
(0 1.45572e-14 0 2.71051e-14 -5.24312e-15 0 0 0 0)
(0 8.41787e-15 0 0 -1.10882e-14 0 0 0 0)
(-7.58942e-13 -7.14687e-12 0 -1.30104e-12 1.24212e-11 0 0 0 0)
(1.19262e-12 8.62198e-12 0 2.71051e-13 -2.64229e-12 0 0 0 0)
(-2.71051e-13 -1.85399e-12 0 -1.35525e-13 6.1093e-13 0 0 0 0)
(0 4.48461e-13 0 -8.13152e-14 -1.36416e-13 0 0 0 0)
(0 -8.42808e-14 0 -1.0842e-13 3.26703e-15 0 0 0 0)
(0 1.33004e-14 0 -8.13152e-14 -1.75748e-14 0 0 0 0)
(2.71051e-14 -1.92191e-14 0 -1.0842e-13 1.22126e-14 0 0 0 0)
(-8.13152e-14 -5.85292e-15 0 -1.0842e-13 4.54456e-14 0 0 0 0)
(-5.42101e-14 1.80852e-14 0 -5.42101e-14 4.29355e-14 0 0 0 0)
(0 1.86339e-14 0 -5.42101e-14 3.94592e-15 0 0 0 0)
(2.71051e-14 -9.94339e-16 0 -5.42101e-14 -4.64808e-15 0 0 0 0)
(-2.71051e-14 -5.31016e-15 0 -2.71051e-14 9.40271e-15 0 0 0 0)
(0 -4.22358e-15 0 -2.71051e-14 8.12493e-15 0 0 0 0)
(2.71051e-14 -1.19773e-14 0 -2.71051e-14 7.30133e-15 0 0 0 0)
(-2.71051e-14 -6.74769e-15 0 0 1.35959e-14 0 0 0 0)
(-2.71051e-14 7.73942e-15 0 -2.71051e-14 1.34363e-14 0 0 0 0)
(0 5.77763e-15 0 -2.71051e-14 1.02548e-14 0 0 0 0)
(0 -2.99051e-15 0 -2.71051e-14 1.39901e-14 0 0 0 0)
(-2.71051e-14 1.51984e-15 0 -2.71051e-14 1.74625e-14 0 0 0 0)
(0 6.95775e-15 0 0 -2.08691e-15 0 0 0 0)
)
;

boundaryField
{
    movingWall
    {
        type            extrapolatedCalculated;
        value           nonuniform List<tensor> 
20
(
(-7.58942e-13 -7.14687e-12 0 4.52971e-12 3.63577e-11 0 0 0 0)
(1.19262e-12 8.62198e-12 0 -1.42109e-12 -7.77025e-12 0 0 0 0)
(-2.71051e-13 -1.85399e-12 0 -3.10862e-13 1.86982e-12 0 0 0 0)
(0 4.48461e-13 0 -3.10862e-13 -3.54302e-13 0 0 0 0)
(0 -8.42808e-14 0 -3.10862e-13 7.59727e-14 0 0 0 0)
(0 1.33004e-14 0 -3.10862e-13 -1.71786e-14 0 0 0 0)
(2.71051e-14 -1.92191e-14 0 -3.55271e-13 2.27711e-14 0 0 0 0)
(-8.13152e-14 -5.85292e-15 0 -3.55271e-13 5.96977e-14 0 0 0 0)
(-5.42101e-14 1.80852e-14 0 -1.33227e-13 4.61828e-14 0 0 0 0)
(0 1.86339e-14 0 -8.88178e-14 -1.26431e-14 0 0 0 0)
(2.71051e-14 -9.94339e-16 0 -2.22045e-13 -2.83527e-14 0 0 0 0)
(-2.71051e-14 -5.31016e-15 0 -8.88178e-14 -8.66573e-15 0 0 0 0)
(0 -4.22358e-15 0 -8.88178e-14 -7.11209e-15 0 0 0 0)
(2.71051e-14 -1.19773e-14 0 -1.77636e-13 8.22857e-15 0 0 0 0)
(-2.71051e-14 -6.74769e-15 0 -1.33227e-13 4.07972e-14 0 0 0 0)
(-2.71051e-14 7.73942e-15 0 -1.33227e-13 3.52193e-14 0 0 0 0)
(0 5.77763e-15 0 0 9.8395e-15 0 0 0 0)
(0 -2.99051e-15 0 -4.44089e-14 1.21088e-14 0 0 0 0)
(-2.71051e-14 1.51984e-15 0 -4.44089e-14 2.18015e-14 0 0 0 0)
(0 6.95775e-15 0 0 6.02946e-15 0 0 0 0)
)
;
    }
    fixedWalls
    {
        type            extrapolatedCalculated;
        value           nonuniform List<tensor> 
60
(
(-6.12843e-12 5.64068e-11 0 1.54499e-12 1.51221e-11 0 0 0 0)
(1.23901e-11 4.08142e-12 0 7.31836e-13 -2.75753e-11 0 0 0 0)
(-3.37508e-12 -5.38943e-11 0 -4.90601e-12 9.85838e-12 0 0 0 0)
(-7.01661e-12 4.35149e-11 0 3.46945e-12 1.22356e-11 0 0 0 0)
(1.04361e-11 -4.95185e-12 0 7.04731e-13 -2.02171e-11 0 0 0 0)
(-4.17444e-12 -3.73534e-11 0 -3.49655e-12 1.24503e-11 0 0 0 0)
(-3.55271e-12 4.48495e-11 0 2.49366e-12 7.19397e-12 0 0 0 0)
(5.77316e-12 -8.57757e-12 0 1.89735e-13 -1.82251e-11 0 0 0 0)
(-2.84217e-12 -2.8051e-11 0 -1.21973e-12 1.09508e-11 0 0 0 0)
(9.76996e-13 3.52258e-11 0 -4.33681e-13 -1.20062e-12 0 0 0 0)
(-4.79616e-12 -3.28535e-11 0 1.43657e-12 -1.78353e-12 0 0 0 0)
(6.88338e-12 2.80916e-11 0 -5.14996e-13 6.39735e-12 0 0 0 0)
(-6.92779e-12 -7.26407e-12 0 -8.94467e-13 -1.45836e-11 0 0 0 0)
(3.37508e-12 -3.02427e-11 0 1.0842e-13 1.5469e-11 0 0 0 0)
(-6.4837e-12 5.4612e-11 0 1.16552e-12 -1.26567e-12 0 0 0 0)
(7.99361e-12 -3.53053e-11 0 -4.33681e-13 -1.62246e-11 0 0 0 0)
(-8.26006e-12 -1.02864e-11 0 -2.08709e-12 1.92449e-11 0 0 0 0)
(-2.66454e-13 4.16744e-11 0 4.49944e-12 -7.60157e-13 0 0 0 0)
(9.72555e-12 -1.3327e-11 0 -1.0571e-12 -1.9508e-11 0 0 0 0)
(-4.52971e-12 -3.63577e-11 0 -1.30104e-12 1.24212e-11 0 0 0 0)
(0 -3.45925e-14 0 0 1.60068e-14 0 0 0 0)
(8.88178e-14 -2.94349e-14 0 -5.42101e-14 -1.55365e-14 0 0 0 0)
(8.88178e-14 2.75534e-14 0 5.42101e-14 -1.57608e-14 0 0 0 0)
(-4.44089e-14 3.36083e-14 0 2.71051e-14 3.33016e-15 0 0 0 0)
(-4.44089e-14 1.42327e-14 0 -2.71051e-14 7.50338e-15 0 0 0 0)
(0 3.59483e-15 0 0 4.88837e-15 0 0 0 0)
(0 -5.32079e-15 0 0 5.50623e-15 0 0 0 0)
(-4.44089e-14 -1.84301e-14 0 2.71051e-14 1.14872e-15 0 0 0 0)
(-4.44089e-14 -9.91569e-15 0 0 -8.7551e-15 0 0 0 0)
(0 1.65903e-14 0 0 -7.56038e-15 0 0 0 0)
(-8.88178e-14 2.03258e-14 0 2.71051e-14 1.0037e-14 0 0 0 0)
(-8.88178e-14 -2.35577e-14 0 -2.71051e-14 9.8528e-15 0 0 0 0)
(0 -1.90854e-14 0 0 -9.40291e-15 0 0 0 0)
(-8.88178e-14 1.40539e-14 0 0 -5.93317e-15 0 0 0 0)
(0 4.64729e-15 0 -2.71051e-14 4.6421e-15 0 0 0 0)
(-4.44089e-14 -4.51446e-15 0 2.71051e-14 7.13106e-15 0 0 0 0)
(-4.44089e-14 -2.3877e-14 0 0 8.45226e-15 0 0 0 0)
(0 -3.83235e-14 0 -2.71051e-14 -2.37497e-15 0 0 0 0)
(0 -1.43771e-14 0 0 -1.10882e-14 0 0 0 0)
(0 6.02946e-15 0 0 -2.08691e-15 0 0 0 0)
(-1.02999e-12 1.10443e-11 0 -6.12843e-12 5.64068e-11 0 0 0 0)
(1.57209e-12 -1.33659e-11 0 2.08722e-12 -1.22296e-11 0 0 0 0)
(-4.33681e-13 2.90392e-12 0 1.33227e-13 2.94322e-12 0 0 0 0)
(2.71051e-14 -6.94237e-13 0 3.10862e-13 -6.13899e-13 0 0 0 0)
(-2.71051e-14 1.55047e-13 0 1.77636e-13 1.66272e-13 0 0 0 0)
(2.71051e-14 -2.60059e-14 0 2.22045e-13 6.29077e-15 0 0 0 0)
(-2.71051e-14 1.21539e-14 0 2.66454e-13 6.22478e-14 0 0 0 0)
(-2.71051e-14 -3.38045e-15 0 1.77636e-13 5.49062e-14 0 0 0 0)
(-2.71051e-14 -5.76404e-15 0 1.33227e-13 4.8726e-14 0 0 0 0)
(0 -6.09296e-15 0 8.88178e-14 3.185e-14 0 0 0 0)
(-2.71051e-14 4.51924e-15 0 8.88178e-14 2.43542e-14 0 0 0 0)
(-2.71051e-14 7.83512e-15 0 0 4.9927e-14 0 0 0 0)
(0 -8.86758e-15 0 4.44089e-14 5.56947e-14 0 0 0 0)
(0 -2.09423e-14 0 0 1.44566e-14 0 0 0 0)
(0 -1.14593e-14 0 0 -2.80746e-14 0 0 0 0)
(2.71051e-14 7.12543e-15 0 0 -3.13806e-14 0 0 0 0)
(0 7.64118e-15 0 8.88178e-14 4.27077e-16 0 0 0 0)
(0 6.41041e-15 0 0 -8.1584e-16 0 0 0 0)
(0 8.85208e-15 0 8.88178e-14 2.60687e-14 0 0 0 0)
(-2.71051e-14 -1.51653e-14 0 0 3.45925e-14 0 0 0 0)
)
;
    }
    frontAndBack
    {
        type            empty;
    }
}


// ************************************************************************* //
