/*--------------------------------*- C++ -*----------------------------------*\
| =========                 |                                                 |
| \\      /  F ield         | OpenFOAM: The Open Source CFD Toolbox           |
|  \\    /   O peration     | Version:  2312                                  |
|   \\  /    A nd           | Website:  www.openfoam.com                      |
|    \\/     M anipulation  |                                                 |
\*---------------------------------------------------------------------------*/
FoamFile
{
    version     2.0;
    format      ascii;
    arch        "LSB;label=32;scalar=64";
    class       volScalarField;
    location    "6.375";
    object      Lambda2Field;
}
// * * * * * * * * * * * * * * * * * * * * * * * * * * * * * * * * * * * * * //

dimensions      [0 0 -2 0 0 0 0];

internalField   nonuniform List<scalar> 
400
(
1.81242e-23
8.6303e-24
3.45501e-25
1.9552e-26
4.93725e-27
3.88158e-30
1.60645e-28
5.46141e-29
1.3115e-28
0
2.38853e-29
0
0
0
0
1.14529e-28
2.07115e-28
0
0
2.56219e-28
5.29639e-24
9.61319e-24
7.00451e-25
1.17549e-26
2.79445e-27
7.31243e-28
5.47567e-28
8.28684e-28
0
0
1.02967e-28
0
8.79353e-28
-4.55245e-28
2.92815e-28
6.9335e-28
1.59006e-27
3.78419e-29
0
8.78194e-28
5.1856e-23
1.90651e-23
2.87897e-25
7.07945e-26
0
1.69242e-27
0
0
0
0
0
0
1.23456e-27
5.08391e-29
6.36367e-28
-5.20401e-28
1.04704e-28
0
0
1.17779e-27
3.13347e-23
1.30826e-23
4.70765e-25
2.93874e-27
4.06637e-27
1.369e-27
4.67627e-28
0
0
7.34684e-28
1.21295e-27
3.69816e-28
7.15198e-28
-1.14873e-27
0
-1.15837e-27
3.84809e-28
4.18497e-29
7.29856e-29
5.37606e-28
3.01651e-24
6.21837e-24
4.69478e-25
1.83671e-26
7.34684e-28
-1.64929e-28
4.76795e-29
0
1.29213e-28
6.8887e-29
3.01298e-29
-8.20633e-28
0
-5.86346e-28
2.94737e-28
4.95781e-28
4.28839e-28
3.34048e-28
1.69449e-28
-3.50282e-29
2.58716e-23
8.8654e-24
6.35674e-25
-1.13106e-26
5.99281e-27
0
9.92138e-29
2.64947e-28
1.89175e-27
7.34684e-28
0
1.52666e-29
8.93618e-29
0
6.99952e-28
2.86175e-28
5.37059e-28
7.22084e-29
0
0
2.2413e-23
1.07346e-23
0
4.82854e-26
0
2.06973e-27
2.28226e-27
-1.03927e-27
0
7.38333e-28
0
1.0375e-28
9.95912e-28
-2.14265e-28
1.7835e-27
-1.36999e-28
5.97218e-28
8.58231e-28
1.53526e-28
0
5.30941e-25
2.44308e-24
1.65748e-25
7.69395e-27
0
0
1.29572e-28
0
1.86165e-27
7.34684e-28
4.44657e-28
-7.15029e-28
0
7.98142e-28
7.84633e-28
0
5.74077e-28
9.24791e-29
1.45842e-28
0
6.8263e-24
4.04311e-24
7.4549e-27
1.99327e-26
0
1.03484e-27
9.47619e-28
-3.17592e-28
2.70452e-28
0
1.09024e-27
-4.04446e-28
0
7.34684e-28
0
-2.68084e-27
0
3.62581e-28
2.99934e-28
0
0
1.39285e-24
0
-1.13153e-26
0
-1.68434e-27
2.10347e-28
1.00581e-27
3.15921e-28
6.61004e-28
0
0
0
-1.12853e-27
4.01737e-28
0
0
0
0
0
0
-7.27318e-25
0
-4.38322e-26
9.25478e-27
-9.11078e-28
0
0
0
8.15014e-30
0
-6.50656e-28
2.56436e-28
9.14139e-28
1.1232e-27
2.63926e-28
0
0
4.07531e-28
4.54084e-28
0
2.23037e-24
0
3.25154e-26
5.86102e-28
5.1412e-28
0
0
1.30502e-27
1.2459e-27
6.31834e-28
0
0
0
0
0
0
-5.42121e-29
0
4.25534e-28
4.00576e-24
2.56658e-24
0
2.62552e-26
0
1.33716e-27
0
-2.64153e-29
0
0
0
-2.57409e-29
0
0
4.78928e-28
1.73466e-28
0
1.50236e-28
8.3056e-29
8.84147e-29
6.29041e-26
1.78434e-24
0
4.54128e-26
7.34684e-28
0
0
-1.5311e-29
6.08159e-28
7.34684e-28
0
1.269e-28
0
1.22252e-27
6.47663e-28
0
1.17675e-29
2.9931e-29
0
3.52025e-29
1.42996e-23
7.78999e-24
0
3.55522e-26
0
2.26035e-27
0
-9.34666e-28
0
3.74037e-30
8.00502e-28
0
0
0
7.27373e-28
0
2.62752e-28
6.62937e-29
4.35174e-28
7.32097e-29
4.93258e-24
5.85159e-24
0
2.95343e-26
0
0
0
-6.55547e-29
5.39186e-28
1.28405e-27
0
6.66485e-28
0
-3.99485e-28
0
4.33339e-28
8.98952e-28
5.27509e-28
1.12742e-28
0
6.59648e-24
5.82036e-24
3.20903e-25
4.37577e-27
4.39976e-27
0
3.94896e-28
1.03718e-28
1.45498e-28
0
0
-4.55032e-28
2.95881e-27
5.7719e-28
7.77963e-28
0
1.30174e-29
-3.54259e-28
0
7.14406e-29
3.69584e-23
1.15232e-23
1.7418e-25
1.34898e-26
5.91503e-27
-3.5473e-27
8.11553e-29
0
5.47686e-28
0
9.79945e-29
0
1.98752e-28
0
0
-1.33965e-28
0
0
5.25189e-28
2.54072e-28
6.0803e-24
6.51142e-24
2.84909e-25
1.36802e-26
0
-1.07425e-27
0
-3.30992e-27
2.5386e-27
1.56936e-27
2.50864e-28
-5.78829e-28
5.14315e-28
6.1916e-28
4.98202e-29
0
1.11456e-28
0
3.94574e-28
0
9.87438e-24
3.75934e-24
3.24731e-25
-1.78574e-26
9.13774e-27
-7.72649e-28
2.81842e-27
2.69987e-27
1.95834e-27
-9.94574e-28
7.83487e-28
2.32343e-28
1.1448e-28
3.77955e-28
1.96231e-28
0
0
8.10579e-29
4.68591e-28
0
)
;

boundaryField
{
    movingWall
    {
        type            calculated;
        value           nonuniform List<scalar> 
20
(
0
0
6.49804e-25
-1.38799e-26
2.61997e-26
-3.83949e-27
7.56267e-27
5.64319e-27
5.29304e-28
-1.49517e-27
9.55472e-28
5.46732e-28
3.75129e-28
2.19531e-27
1.63366e-27
0
0
1.32805e-28
6.6719e-28
0
)
;
    }
    fixedWalls
    {
        type            calculated;
        value           nonuniform List<scalar> 
60
(
1.24706e-22
1.56501e-22
2.75797e-22
2.00206e-22
1.05422e-22
1.48034e-22
1.24461e-22
3.17019e-23
4.22925e-23
-1.38352e-23
0
2.6459e-23
5.44918e-23
8.11224e-24
1.0569e-22
7.9209e-23
8.96971e-23
1.87583e-22
1.08674e-22
6.78213e-23
0
1.83705e-27
1.91972e-27
9.22046e-28
9.7725e-29
0
0
0
1.01232e-28
0
6.63164e-28
7.3561e-28
0
3.52025e-29
0
0
2.13968e-28
1.03876e-27
0
0
0
0
5.74959e-25
0
2.82766e-26
-5.03979e-27
3.97312e-27
1.34195e-28
0
0
1.13607e-27
7.34684e-28
0
0
0
7.34684e-28
6.78674e-28
0
7.86223e-28
7.34684e-28
)
;
    }
    frontAndBack
    {
        type            empty;
    }
}


// ************************************************************************* //
