/*--------------------------------*- C++ -*----------------------------------*\
| =========                 |                                                 |
| \\      /  F ield         | OpenFOAM: The Open Source CFD Toolbox           |
|  \\    /   O peration     | Version:  2312                                  |
|   \\  /    A nd           | Website:  www.openfoam.com                      |
|    \\/     M anipulation  |                                                 |
\*---------------------------------------------------------------------------*/
FoamFile
{
    version     2.0;
    format      ascii;
    arch        "LSB;label=32;scalar=64";
    class       volVectorField;
    location    "6.375";
    object      LambVectorField;
}
// * * * * * * * * * * * * * * * * * * * * * * * * * * * * * * * * * * * * * //

dimensions      [0 1 -2 0 0 0 0];

internalField   nonuniform List<vector> 
400
(
(-1.33957e-24 -9.49932e-12 -9.49932e-12)
(-3.94561e-25 1.29051e-11 -0)
(-2.09683e-26 -2.84971e-12 -2.84971e-12)
(-1.02388e-27 6.67131e-13 -0)
(-5.31829e-29 -1.27942e-13 -1.27942e-13)
(4.08993e-31 2.60059e-14 0)
(-1.89138e-30 -1.21539e-14 -1.21539e-14)
(4.64019e-31 3.38045e-15 0)
(7.02147e-31 5.76404e-15 5.76404e-15)
(4.85153e-31 6.09296e-15 0)
(-2.75156e-31 -4.51924e-15 -4.51924e-15)
(-7.74433e-30 -6.20452e-14 0)
(1.23469e-30 8.86758e-15 8.86758e-15)
(7.56889e-31 2.09423e-14 0)
(-8.0429e-31 1.14593e-14 1.14593e-14)
(5.59e-31 -7.12543e-15 -0)
(2.07814e-32 1.94639e-14 1.94639e-14)
(1.30747e-32 -6.41041e-15 -0)
(-5.76906e-31 -8.85208e-15 -8.85208e-15)
(1.31151e-30 1.51653e-14 0)
(-8.20199e-28 -8.03837e-14 -8.03837e-14)
(-1.47175e-27 7.07112e-13 -0)
(-1.61448e-28 -2.32976e-13 -2.32976e-13)
(-1.36404e-30 6.02482e-14 -0)
(-5.14682e-30 -5.68716e-14 -5.68716e-14)
(-1.61858e-31 -4.0721e-14 0)
(3.31079e-30 -7.45813e-14 -7.45813e-14)
(2.1171e-31 -3.34116e-15 -0)
(6.43571e-31 -5.86128e-14 -5.86128e-14)
(-1.27046e-32 6.57011e-16 -0)
(9.1806e-31 -5.23107e-14 -5.23107e-14)
(-9.52202e-32 2.48415e-15 -0)
(2.56843e-30 -6.05881e-14 -6.05881e-14)
(-1.59782e-30 -6.27867e-14 0)
(-2.11705e-30 -4.88086e-14 -4.88086e-14)
(2.10995e-30 -7.38609e-14 -0)
(2.70039e-30 -8.66388e-14 -8.66388e-14)
(-1.85153e-31 -7.50522e-15 0)
(-2.59362e-30 -5.91018e-14 -5.91018e-14)
(-3.12474e-30 -4.2463e-14 0)
(-7.55056e-25 5.60398e-12 5.60398e-12)
(-3.36167e-25 -1.13433e-11 0)
(-1.89206e-26 2.72735e-12 2.72735e-12)
(-8.43564e-28 -5.44544e-13 0)
(-1.01253e-28 2.48338e-13 2.48338e-13)
(-1.12405e-29 9.28104e-14 -0)
(-2.12028e-29 8.42643e-14 8.42643e-14)
(4.0865e-30 -2.71342e-14 -0)
(-5.71849e-31 -2.9e-14 -2.9e-14)
(-2.31251e-30 -1.65894e-14 0)
(1.71224e-29 9.22482e-14 9.22482e-14)
(3.11142e-30 1.03485e-13 0)
(-1.82186e-30 5.04889e-14 5.04889e-14)
(-7.89989e-31 -1.17421e-14 0)
(4.83507e-30 5.94448e-14 5.94448e-14)
(7.05207e-31 4.72309e-14 0)
(-9.4122e-31 7.84864e-15 7.84864e-15)
(1.10355e-31 -1.73637e-15 -0)
(-5.61431e-30 5.47429e-14 5.47429e-14)
(-2.55323e-30 3.7066e-14 -0)
(-5.47501e-25 -5.03276e-12 -5.03276e-12)
(-2.22147e-25 9.34754e-12 -0)
(-1.17657e-26 -2.11838e-12 -2.11838e-12)
(-6.33605e-28 5.16729e-13 -0)
(-3.70611e-29 -9.58123e-14 -9.58123e-14)
(4.0131e-32 1.34174e-14 0)
(-1.08658e-31 5.90022e-15 5.90022e-15)
(1.585e-31 -2.82979e-15 -0)
(-8.38049e-32 -8.48066e-15 -8.48066e-15)
(-2.93094e-32 -1.01785e-15 0)
(4.00208e-31 1.99501e-14 1.99501e-14)
(1.35082e-30 1.34619e-14 0)
(8.53972e-30 5.45696e-14 5.45696e-14)
(1.21703e-29 1.25792e-13 0)
(-1.70254e-30 9.88579e-14 9.88579e-14)
(-9.38347e-30 1.19265e-13 -0)
(-1.40306e-29 1.11647e-13 1.11647e-13)
(-2.83594e-30 2.55611e-14 -0)
(-2.69096e-30 2.44124e-14 2.44124e-14)
(-6.45284e-31 7.68005e-15 -0)
(-2.0793e-26 1.67962e-12 1.67962e-12)
(-3.05597e-27 -1.16162e-12 0)
(-2.74083e-28 3.59002e-13 3.59002e-13)
(-1.04257e-29 -8.34222e-14 0)
(5.77275e-31 8.15776e-15 8.15776e-15)
(1.64568e-30 3.79213e-14 0)
(-2.5013e-30 6.68831e-14 6.68831e-14)
(-3.43646e-30 4.12378e-14 -0)
(-1.16849e-29 6.53791e-14 6.53791e-14)
(1.19164e-30 -6.11028e-15 -0)
(5.82046e-30 -4.9484e-14 -4.9484e-14)
(-1.99497e-30 -6.9349e-14 0)
(-2.04706e-30 -6.06247e-14 -6.06247e-14)
(-6.05101e-30 -6.51255e-14 0)
(-1.11035e-29 -7.76905e-14 -7.76905e-14)
(-1.02563e-30 -1.80992e-14 0)
(-1.27565e-30 -2.41318e-14 -2.41318e-14)
(-5.92752e-31 -2.20076e-14 0)
(-3.9358e-32 -2.08535e-14 -2.08535e-14)
(1.08434e-30 -3.04745e-14 -0)
(-3.5406e-25 3.79146e-12 3.79146e-12)
(-1.63997e-25 -7.99849e-12 0)
(-7.9581e-27 1.68423e-12 1.68423e-12)
(-6.32472e-28 -5.17692e-13 0)
(-5.08424e-30 5.63377e-14 5.63377e-14)
(-7.67616e-30 -6.60392e-14 0)
(2.80439e-31 9.99951e-15 9.99951e-15)
(-2.81464e-31 -1.73303e-14 0)
(-2.38031e-30 3.41495e-14 3.41495e-14)
(7.55083e-31 -1.39307e-14 -0)
(-2.97783e-30 -4.27825e-14 -4.27825e-14)
(2.72753e-30 2.65916e-14 0)
(2.16834e-31 2.90122e-15 2.90122e-15)
(-3.4964e-31 -4.75319e-15 0)
(-6.70664e-30 -5.48508e-14 -5.48508e-14)
(-1.3232e-30 -1.6547e-14 0)
(-3.67347e-31 -2.20094e-14 -2.20094e-14)
(-1.53398e-30 -5.28781e-14 0)
(1.28062e-32 3.79968e-15 3.79968e-15)
(5.04779e-33 -5.61673e-16 -0)
(-7.07519e-25 -6.31016e-12 -6.31016e-12)
(-2.329e-25 9.66968e-12 -0)
(-1.41666e-26 -2.38484e-12 -2.38484e-12)
(-5.00354e-28 4.76351e-13 -0)
(-6.96193e-29 -1.91449e-13 -1.91449e-13)
(-1.15768e-30 -2.27209e-14 0)
(-5.58075e-30 -1.14475e-13 -1.14475e-13)
(-8.22705e-30 -7.37843e-14 0)
(-2.16083e-29 -8.83801e-14 -8.83801e-14)
(-7.39356e-30 -4.05903e-14 0)
(4.4706e-30 4.12819e-14 4.12819e-14)
(1.01832e-30 2.52167e-14 0)
(6.28148e-30 4.93913e-14 4.93913e-14)
(5.5118e-30 6.22305e-14 0)
(5.59347e-30 1.19075e-13 1.19075e-13)
(-1.26388e-30 7.02898e-14 -0)
(-6.45898e-30 5.67459e-14 5.67459e-14)
(-3.0667e-30 7.07608e-14 -0)
(-1.77513e-31 2.1441e-14 2.1441e-14)
(6.68137e-33 5.02284e-16 0)
(-4.0049e-26 1.86762e-12 1.86762e-12)
(-8.98866e-27 -1.92678e-12 0)
(-6.62956e-28 6.07132e-13 6.07132e-13)
(-2.92835e-30 -1.33038e-14 0)
(-8.24077e-30 5.65374e-14 5.65374e-14)
(8.61843e-31 -1.16136e-14 -0)
(9.32375e-31 -3.1476e-14 -3.1476e-14)
(-1.49608e-32 4.90508e-16 -0)
(6.86514e-31 -1.98834e-14 -1.98834e-14)
(-1.13759e-30 1.1075e-14 -0)
(5.86679e-30 -4.03836e-14 -4.03836e-14)
(-4.27337e-30 -1.4212e-13 0)
(-2.44676e-29 -1.27619e-13 -1.27619e-13)
(-8.76841e-30 -3.9487e-14 0)
(-3.98743e-31 -8.96203e-15 -8.96203e-15)
(-1.34801e-31 -3.31795e-15 0)
(-2.56554e-30 -3.30304e-14 -3.30304e-14)
(-8.41266e-30 -8.42265e-14 0)
(-2.31986e-30 -2.17244e-14 -2.17244e-14)
(1.95318e-30 4.23911e-14 0)
(-2.99799e-25 4.27505e-12 4.27505e-12)
(-9.31423e-26 -6.136e-12 0)
(-5.48615e-27 1.51655e-12 1.51655e-12)
(-2.48121e-28 -2.9993e-13 0)
(-1.36319e-29 1.79116e-13 1.79116e-13)
(5.09181e-30 4.23253e-14 0)
(4.46632e-30 1.04497e-13 1.04497e-13)
(-8.21001e-30 7.36212e-14 -0)
(-3.78083e-30 2.49775e-14 2.49775e-14)
(5.45505e-31 -6.04495e-15 -0)
(5.96799e-30 -6.56401e-14 -6.56401e-14)
(-1.07338e-30 -4.46147e-14 0)
(5.2393e-31 6.22416e-15 6.22416e-15)
(-7.72686e-31 2.02365e-14 -0)
(1.00099e-29 -8.4695e-14 -8.4695e-14)
(5.88099e-31 -1.34138e-13 -0)
(-1.3282e-29 -9.5564e-14 -9.5564e-14)
(-2.92769e-30 -2.11991e-14 0)
(9.05685e-31 1.13315e-14 1.13315e-14)
(2.59582e-31 1.04715e-14 0)
(-6.46242e-25 -7.33829e-12 -7.33829e-12)
(-1.55581e-25 8.18055e-12 -0)
(-9.31822e-27 -2.01144e-12 -2.01144e-12)
(-3.62262e-28 4.5207e-13 -0)
(-3.54158e-29 -9.24761e-14 -9.24761e-14)
(1.05317e-29 8.5333e-14 0)
(4.58314e-30 6.38824e-14 6.38824e-14)
(8.24742e-32 3.08945e-15 0)
(1.97637e-30 4.83824e-14 4.83824e-14)
(4.05056e-30 4.7669e-14 0)
(1.47342e-30 1.38662e-14 1.38662e-14)
(-5.61323e-30 1.0455e-13 -0)
(-7.24112e-30 5.743e-14 5.743e-14)
(6.4452e-30 -7.50414e-14 -0)
(-1.89261e-30 -2.3017e-14 -2.3017e-14)
(4.51934e-32 3.13231e-16 0)
(5.76444e-30 7.28804e-14 7.28804e-14)
(-4.02629e-30 9.49117e-14 -0)
(5.37821e-33 -9.45694e-17 -9.45694e-17)
(4.07899e-31 -9.83462e-15 -0)
(-6.47946e-25 7.88892e-12 7.88892e-12)
(-1.41658e-25 -8.0441e-12 0)
(-7.32397e-27 1.77244e-12 1.77244e-12)
(-5.29252e-28 -5.45686e-13 0)
(7.67387e-31 -2.51463e-14 -2.51463e-14)
(-1.69509e-29 -1.236e-13 0)
(-7.40505e-30 -6.10586e-14 -6.10586e-14)
(-8.36586e-31 -4.06843e-15 0)
(1.95688e-30 1.20823e-14 1.20823e-14)
(1.35536e-30 1.59821e-14 0)
(1.44774e-31 6.76144e-14 6.76144e-14)
(-3.28182e-30 6.66523e-14 -0)
(-3.07442e-30 2.51423e-14 2.51423e-14)
(-1.10714e-30 3.73907e-14 -0)
(2.15989e-30 4.70433e-14 4.70433e-14)
(2.55987e-30 6.08654e-14 0)
(-1.42382e-30 6.89838e-14 6.89838e-14)
(-3.48695e-30 3.29957e-14 -0)
(-1.71967e-30 2.16186e-14 2.16186e-14)
(-7.1491e-31 1.4069e-14 -0)
(-4.25523e-25 -6.05907e-12 -6.05907e-12)
(-9.78076e-26 6.61382e-12 -0)
(-5.58935e-27 -1.57497e-12 -1.57497e-12)
(-1.61946e-28 2.43528e-13 -0)
(-2.93932e-29 -9.78361e-14 -9.78361e-14)
(-3.4429e-31 -8.13737e-15 0)
(-7.32567e-30 -6.61425e-14 -6.61425e-14)
(-4.4908e-31 -2.77839e-15 0)
(-6.05269e-30 -4.36892e-14 -4.36892e-14)
(8.9444e-31 1.58521e-14 0)
(-6.64056e-31 3.3234e-14 3.3234e-14)
(-1.89137e-32 3.88733e-15 -0)
(-1.9817e-30 3.36713e-14 3.36713e-14)
(-3.97001e-30 5.62902e-14 -0)
(-2.43893e-30 3.06184e-14 3.06184e-14)
(7.30566e-31 -6.91427e-15 -0)
(6.99073e-31 -6.64959e-14 -6.64959e-14)
(-5.91332e-31 -3.43848e-14 0)
(-1.94794e-30 -3.12747e-14 -3.12747e-14)
(-8.82657e-31 -1.49872e-14 0)
(-9.58152e-27 5.27612e-13 5.27612e-13)
(-5.88987e-27 -1.49512e-12 0)
(-3.30316e-28 4.29268e-13 4.29268e-13)
(3.38352e-30 1.79203e-14 0)
(-1.37318e-29 1.01313e-13 1.01313e-13)
(-7.48401e-31 6.70027e-14 -0)
(6.3973e-31 8.43268e-14 8.43268e-14)
(-1.86934e-30 4.52776e-14 -0)
(-2.28311e-29 1.31108e-13 1.31108e-13)
(-1.39869e-30 5.2157e-15 -0)
(3.03692e-30 -1.34201e-14 -1.34201e-14)
(7.38959e-30 -5.51598e-14 -0)
(-4.83669e-30 -8.91531e-14 -8.91531e-14)
(-1.31031e-29 -6.08138e-14 0)
(5.21982e-30 4.33941e-14 4.33941e-14)
(1.95433e-30 3.71743e-14 0)
(7.5687e-32 3.86241e-15 3.86241e-15)
(7.17467e-31 5.14388e-14 0)
(-1.59742e-31 -3.37654e-15 -3.37654e-15)
(4.53386e-31 9.50228e-15 0)
(-4.56681e-25 6.04022e-12 6.04022e-12)
(-1.13764e-25 -6.98425e-12 0)
(-6.30836e-27 1.63142e-12 1.63142e-12)
(-2.32825e-28 -2.95617e-13 0)
(-3.23173e-29 8.76941e-14 8.76941e-14)
(2.71937e-30 -3.04354e-14 -0)
(1.96439e-30 -3.06127e-14 -3.06127e-14)
(1.50983e-30 -2.78196e-14 -0)
(3.22438e-30 -5.65441e-14 -5.65441e-14)
(-2.66227e-32 8.60676e-16 -0)
(1.85777e-30 -2.83064e-14 -2.83064e-14)
(1.70848e-30 -9.0305e-14 -0)
(-2.25605e-30 -9.29664e-14 -9.29664e-14)
(-6.34588e-30 -6.50235e-14 0)
(-1.44612e-29 -1.09223e-13 -1.09223e-13)
(1.20828e-30 1.14398e-14 0)
(1.01426e-31 5.63392e-15 5.63392e-15)
(2.23122e-31 4.52757e-15 0)
(-1.7087e-30 6.26517e-14 6.26517e-14)
(2.19269e-31 -6.24078e-15 -0)
(-1.30931e-24 -9.58993e-12 -9.58993e-12)
(-3.58677e-25 1.23786e-11 -0)
(-1.98865e-26 -2.93279e-12 -2.93279e-12)
(-9.29454e-28 6.01593e-13 -0)
(-6.24069e-29 -2.802e-13 -2.802e-13)
(5.60454e-30 -5.70509e-14 -0)
(1.7734e-30 -8.90241e-14 -8.90241e-14)
(1.96293e-30 -9.28193e-14 -0)
(-9.5978e-30 -1.00901e-13 -1.00901e-13)
(-1.05094e-30 -6.01541e-15 0)
(-8.17256e-30 -5.26327e-14 -5.26327e-14)
(3.05199e-30 1.92029e-14 0)
(-4.34394e-30 1.18191e-13 1.18191e-13)
(-1.56892e-30 7.4772e-15 -0)
(2.13492e-30 -1.91429e-14 -1.91429e-14)
(7.75964e-31 -4.21748e-14 -0)
(-2.46453e-30 -6.29157e-14 -6.29157e-14)
(-3.71818e-30 -5.41557e-14 0)
(-1.78393e-30 -4.61826e-14 -4.61826e-14)
(2.83532e-31 -2.44041e-14 -0)
(-5.76696e-25 6.53381e-12 6.53381e-12)
(-1.5114e-25 -8.13083e-12 0)
(-8.89961e-27 1.97087e-12 1.97087e-12)
(-2.86489e-28 -3.6863e-13 0)
(-4.33699e-29 1.51018e-13 1.51018e-13)
(-2.4412e-30 -3.04583e-14 0)
(6.89952e-31 3.96549e-14 3.96549e-14)
(-1.40676e-30 3.10204e-14 -0)
(-5.16227e-31 2.37294e-14 2.37294e-14)
(4.05257e-33 -3.49592e-16 -0)
(-1.0258e-30 5.61808e-14 5.61808e-14)
(-2.43494e-30 7.77944e-14 -0)
(9.94158e-31 5.8657e-14 5.8657e-14)
(-5.1431e-30 6.78792e-14 -0)
(-1.30589e-29 1.09059e-13 1.09059e-13)
(-3.7995e-30 4.62472e-14 -0)
(-1.96653e-30 4.90253e-14 4.90253e-14)
(-1.35252e-30 4.46253e-14 -0)
(1.27889e-30 2.29456e-14 2.29456e-14)
(3.81554e-31 3.38072e-14 0)
(7.81516e-28 -3.03904e-14 -3.03904e-14)
(-9.13119e-27 -1.77342e-12 0)
(-6.56137e-28 4.44394e-13 4.44394e-13)
(-1.7465e-29 -1.07227e-13 0)
(-2.98725e-30 2.24345e-14 2.24345e-14)
(1.75137e-31 -2.84929e-15 -0)
(2.59218e-30 -2.47674e-14 -2.47674e-14)
(2.08647e-31 -2.45919e-15 -0)
(-7.90966e-31 9.87852e-15 9.87852e-15)
(-5.64239e-31 3.07271e-15 -0)
(7.64139e-30 -6.89678e-14 -6.89678e-14)
(3.45902e-30 -9.59461e-14 -0)
(-3.88947e-30 -1.09523e-13 -1.09523e-13)
(1.0975e-30 -4.38539e-14 -0)
(3.64616e-30 -5.35812e-14 -5.35812e-14)
(1.90423e-30 -6.08075e-14 -0)
(1.49095e-32 -7.18416e-15 -7.18416e-15)
(-4.80087e-30 -1.18464e-13 0)
(-2.85463e-30 -2.90217e-14 -2.90217e-14)
(9.43465e-31 1.58054e-14 0)
(-3.86937e-25 -3.71391e-12 -3.71391e-12)
(-1.92272e-25 8.71875e-12 -0)
(-1.08182e-26 -2.02458e-12 -2.02458e-12)
(-4.67621e-28 4.7058e-13 -0)
(-1.51578e-29 -4.13504e-14 -4.13504e-14)
(-4.93782e-30 1.29581e-13 -0)
(-4.41278e-30 3.80135e-14 3.80135e-14)
(-2.31339e-31 1.57169e-15 -0)
(2.54077e-31 -1.92773e-15 -1.92773e-15)
(9.93857e-31 -7.76973e-15 -0)
(5.22913e-31 -9.66498e-15 -9.66498e-15)
(-5.66878e-32 1.81319e-15 -0)
(-6.08412e-31 8.42258e-15 8.42258e-15)
(4.1744e-32 -3.61452e-16 -0)
(6.25087e-30 -9.10923e-14 -9.10923e-14)
(1.00506e-30 -5.67228e-14 -0)
(-1.07881e-31 2.48036e-15 2.48036e-15)
(1.76134e-31 -4.14215e-15 -0)
(2.86704e-32 -1.38331e-14 -1.38331e-14)
(-1.69883e-30 -1.77314e-14 0)
(-5.24724e-26 1.57492e-12 1.57492e-12)
(-2.02229e-26 -2.89012e-12 0)
(-1.09086e-27 7.60308e-13 7.60308e-13)
(-3.72613e-29 -7.7887e-14 0)
(2.24853e-29 1.4298e-13 1.4298e-13)
(1.37531e-29 1.03561e-13 0)
(-1.3459e-29 2.06432e-13 2.06432e-13)
(-5.72272e-29 1.875e-13 -0)
(-2.66831e-29 8.50058e-14 8.50058e-14)
(-1.79518e-30 2.52604e-14 -0)
(-2.75445e-30 1.12883e-13 1.12883e-13)
(-1.02709e-29 8.8778e-14 -0)
(-7.42625e-30 7.49902e-14 7.49902e-14)
(-3.92311e-30 7.48088e-14 -0)
(-2.74114e-30 8.07025e-14 8.07025e-14)
(-3.96982e-30 8.57135e-14 -0)
(-2.60635e-30 3.34365e-14 3.34365e-14)
(-9.37686e-30 8.55324e-14 -0)
(-1.50727e-30 1.25479e-14 1.25479e-14)
(-3.02561e-31 -8.41787e-15 0)
(-5.31353e-25 5.84583e-12 5.84583e-12)
(-1.62222e-25 -8.35093e-12 0)
(-8.03302e-27 1.71846e-12 1.71846e-12)
(-4.69252e-28 -5.29776e-13 0)
(4.58484e-30 -2.41394e-14 -2.41394e-14)
(-4.06341e-30 -9.46156e-14 0)
(5.07803e-30 -8.92011e-14 -8.92011e-14)
(1.53076e-29 -1.02567e-13 -0)
(8.347e-30 -7.22953e-14 -7.22953e-14)
(-2.30243e-30 -7.2844e-14 0)
(-3.77203e-30 -5.32158e-14 -5.32158e-14)
(-4.72172e-31 -2.17949e-14 0)
(-4.06838e-31 -2.28815e-14 -2.28815e-14)
(3.11199e-31 -1.51277e-14 -0)
(-6.88217e-31 6.74769e-15 6.74769e-15)
(3.068e-30 -3.48445e-14 -0)
(8.08873e-31 -3.28827e-14 -3.28827e-14)
(7.29997e-31 -2.41145e-14 -0)
(1.56017e-30 -2.86249e-14 -2.86249e-14)
(1.04879e-31 -6.95775e-15 -0)
)
;

boundaryField
{
    movingWall
    {
        type            calculated;
        value           nonuniform List<vector> 
20
(
(0 1.16766e-11 -0)
(0 -1.00431e-11 -0)
(0 1.54313e-12 -0)
(0 -7.59323e-13 -0)
(0 -2.26582e-13 -0)
(0 -3.24163e-13 -0)
(0 -3.36052e-13 -0)
(0 -3.49418e-13 -0)
(0 -1.51312e-13 -0)
(0 -1.07452e-13 -0)
(0 -2.2105e-13 -0)
(0 -8.35077e-14 -0)
(0 -8.45943e-14 -0)
(0 -1.65658e-13 -0)
(0 -1.26479e-13 -0)
(0 -1.40966e-13 -0)
(0 -5.77763e-15 -0)
(0 -4.14184e-14 -0)
(0 -4.59288e-14 -0)
(0 -6.95775e-15 -0)
)
;
    }
    fixedWalls
    {
        type            calculated;
        value           nonuniform List<vector> 
60
(
(0 -5.48618e-11 -0)
(0 -3.34959e-12 -0)
(0 4.89883e-11 -0)
(0 -4.00455e-11 -0)
(0 5.65658e-12 -0)
(0 3.38569e-11 -0)
(0 -4.23559e-11 -0)
(0 8.76731e-12 -0)
(0 2.68313e-11 -0)
(0 -3.56594e-11 -0)
(0 3.429e-11 -0)
(0 -2.86066e-11 -0)
(0 6.3696e-12 -0)
(0 3.03511e-11 -0)
(0 -5.34465e-11 -0)
(0 3.48717e-11 -0)
(0 8.19927e-12 -0)
(0 -3.7175e-11 -0)
(0 1.22699e-11 -0)
(0 3.50567e-11 -0)
(0 3.45925e-14 -0)
(0 -2.47752e-14 -0)
(0 2.66568e-14 -0)
(0 -6.50328e-15 -0)
(0 -4.13378e-14 -0)
(0 -3.59483e-15 -0)
(0 5.32079e-15 -0)
(0 4.55352e-14 -0)
(0 9.91569e-15 -0)
(0 -1.65903e-14 -0)
(0 6.77922e-15 -0)
(0 -3.54737e-15 -0)
(0 1.90854e-14 -0)
(0 -1.40539e-14 -0)
(0 -3.17523e-14 -0)
(0 3.16195e-14 -0)
(0 2.3877e-14 -0)
(0 1.12184e-14 -0)
(0 1.43771e-14 -0)
(0 -6.02946e-15 -0)
(0 -1.71727e-11 -0)
(0 1.54531e-11 -0)
(0 -2.7707e-12 -0)
(0 1.0051e-12 -0)
(0 2.25883e-14 -0)
(0 2.48051e-13 -0)
(0 2.543e-13 -0)
(0 1.81016e-13 -0)
(0 1.38991e-13 -0)
(0 9.49108e-14 -0)
(0 8.42986e-14 -0)
(0 -7.83512e-15 -0)
(0 5.32765e-14 -0)
(0 2.09423e-14 -0)
(0 1.14593e-14 -0)
(0 -7.12543e-15 -0)
(0 8.11767e-14 -0)
(0 -6.41041e-15 -0)
(0 7.99658e-14 -0)
(0 1.51653e-14 -0)
)
;
    }
    frontAndBack
    {
        type            empty;
    }
}


// ************************************************************************* //
