/*--------------------------------*- C++ -*----------------------------------*\
| =========                 |                                                 |
| \\      /  F ield         | OpenFOAM: The Open Source CFD Toolbox           |
|  \\    /   O peration     | Version:  2312                                  |
|   \\  /    A nd           | Website:  www.openfoam.com                      |
|    \\/     M anipulation  |                                                 |
\*---------------------------------------------------------------------------*/
FoamFile
{
    version     2.0;
    format      ascii;
    arch        "LSB;label=32;scalar=64";
    class       volScalarField;
    location    "6.375";
    object      pzeroGrad;
}
// * * * * * * * * * * * * * * * * * * * * * * * * * * * * * * * * * * * * * //

dimensions      [0 2 -2 0 0 0 0];

internalField   nonuniform List<scalar> 
400
(
2.44429e-16
3.43732e-15
1.92557e-15
2.22476e-15
2.19614e-15
1.9909e-15
1.78805e-15
1.75522e-15
1.88193e-15
1.89228e-15
2.05041e-15
2.21207e-15
2.38944e-15
2.48395e-15
2.75112e-15
2.99378e-15
3.05627e-15
3.35398e-15
3.27099e-15
3.25348e-15
2.38773e-15
0
1.9961e-15
1.96993e-15
2.30857e-15
2.04559e-15
1.74589e-15
1.67011e-15
1.79496e-15
1.82396e-15
2.11139e-15
2.33624e-15
2.35163e-15
2.58268e-15
2.82926e-15
3.09079e-15
2.98768e-15
3.4428e-15
3.22778e-15
2.96333e-15
1.64481e-15
3.15426e-15
1.98614e-15
2.17856e-15
2.20524e-15
2.08455e-15
1.79461e-15
1.7327e-15
1.79795e-15
1.83979e-15
2.0204e-15
2.44261e-15
2.6891e-15
2.72881e-15
2.67655e-15
2.98622e-15
3.07558e-15
3.30179e-15
3.24139e-15
2.95381e-15
1.54855e-15
2.98977e-15
2.05985e-15
2.1341e-15
2.24694e-15
2.19311e-15
1.89624e-15
1.78343e-15
1.81956e-15
1.78145e-15
1.8858e-15
2.4347e-15
2.69003e-15
2.83064e-15
2.88241e-15
2.99805e-15
3.09378e-15
3.10592e-15
3.11749e-15
3.20166e-15
2.15031e-15
3.49696e-16
2.21589e-15
2.24373e-15
2.32401e-15
2.03947e-15
1.91571e-15
1.92516e-15
1.76275e-15
1.76788e-15
2.01093e-15
2.40999e-15
2.77505e-15
2.97463e-15
2.96435e-15
3.04539e-15
3.06554e-15
2.97557e-15
3.02688e-15
3.26117e-15
1.228e-15
3.62766e-15
2.28847e-15
2.50194e-15
2.1984e-15
2.07838e-15
1.98459e-15
1.92052e-15
1.97406e-15
1.86977e-15
1.9347e-15
2.28625e-15
2.89116e-15
2.85458e-15
2.90824e-15
3.06707e-15
3.01872e-15
2.99423e-15
3.02345e-15
3.28253e-15
1.79061e-15
2.80509e-15
2.24904e-15
2.27622e-15
2.12996e-15
2.01218e-15
2.00677e-15
2.034e-15
1.96895e-15
1.96847e-15
2.00239e-15
2.28141e-15
2.64748e-15
2.78884e-15
2.8604e-15
3.06615e-15
3.11203e-15
2.96195e-15
3.05786e-15
3.29054e-15
2.68691e-15
0
2.12225e-15
1.92877e-15
2.22775e-15
2.17963e-15
2.32376e-15
2.02026e-15
1.68714e-15
1.86522e-15
1.89637e-15
2.35283e-15
2.578e-15
2.6894e-15
2.72542e-15
3.01475e-15
3.18779e-15
3.06723e-15
3.03837e-15
3.25879e-15
1.76352e-15
3.44488e-15
2.1463e-15
2.1977e-15
2.23271e-15
2.32639e-15
2.04665e-15
1.99497e-15
1.90257e-15
1.93586e-15
2.15819e-15
2.35331e-15
2.56151e-15
2.58714e-15
2.86209e-15
3.20952e-15
3.26289e-15
3.0752e-15
3.02368e-15
3.17499e-15
1.76877e-15
1.97224e-15
2.17497e-15
2.056e-15
2.18105e-15
2.24177e-15
2.20221e-15
2.29911e-15
1.96325e-15
1.8692e-15
2.04846e-15
2.45801e-15
2.58792e-15
2.79841e-15
3.01255e-15
3.29282e-15
3.22876e-15
3.03118e-15
3.14863e-15
3.24257e-15
1.89515e-15
9.74488e-16
2.13172e-15
1.95287e-15
2.15136e-15
2.27145e-15
2.30057e-15
2.34144e-15
2.20316e-15
2.06673e-15
2.09941e-15
2.42994e-15
2.76882e-15
2.81762e-15
2.90953e-15
3.07236e-15
3.11591e-15
3.16828e-15
3.25163e-15
3.40412e-15
2.02838e-15
4.40115e-15
2.02147e-15
2.35613e-15
2.00438e-15
2.28191e-15
2.41536e-15
2.49106e-15
2.29575e-15
2.17854e-15
2.36179e-15
2.4993e-15
2.53174e-15
2.73661e-15
2.9034e-15
3.17926e-15
3.15861e-15
3.17973e-15
3.23726e-15
3.44569e-15
2.57062e-15
0
2.07273e-15
1.83829e-15
2.25084e-15
2.24817e-15
2.53096e-15
2.6074e-15
2.44338e-15
2.46711e-15
2.54275e-15
2.57621e-15
2.70698e-15
2.7823e-15
2.81137e-15
3.21728e-15
3.121e-15
3.11887e-15
3.08573e-15
3.15067e-15
1.58333e-15
5.17195e-15
1.81883e-15
2.17057e-15
2.24468e-15
2.36443e-15
2.50211e-15
2.57717e-15
2.53717e-15
2.58213e-15
2.65377e-15
2.83142e-15
2.84617e-15
2.65731e-15
2.88823e-15
2.98477e-15
2.94722e-15
2.98986e-15
2.96724e-15
3.19317e-15
2.28361e-15
5.20645e-16
2.0046e-15
1.90441e-15
2.39033e-15
2.40107e-15
2.39776e-15
2.52968e-15
2.57687e-15
2.52528e-15
2.80984e-15
2.89542e-15
3.0553e-15
2.78538e-15
2.74921e-15
2.84362e-15
2.9104e-15
2.71159e-15
2.8609e-15
3.18915e-15
2.66463e-15
3.10572e-16
1.8736e-15
1.9637e-15
2.50738e-15
2.45271e-15
2.42646e-15
2.42613e-15
2.48291e-15
2.50024e-15
2.80905e-15
2.74853e-15
2.93041e-15
2.88064e-15
2.73096e-15
2.75182e-15
2.64125e-15
2.78273e-15
2.82708e-15
3.24097e-15
1.25235e-15
3.9439e-15
2.14035e-15
2.29863e-15
2.59122e-15
2.45615e-15
2.49478e-15
2.47237e-15
2.50947e-15
2.58269e-15
2.79656e-15
2.79056e-15
3.00694e-15
3.05985e-15
2.69425e-15
2.60304e-15
2.4708e-15
2.59854e-15
2.77171e-15
3.16175e-15
1.92781e-15
1.74513e-15
2.27212e-15
2.34194e-15
2.49702e-15
2.46549e-15
2.61919e-15
2.54898e-15
2.35927e-15
2.56533e-15
2.76753e-15
2.86842e-15
2.94903e-15
3.0627e-15
2.86701e-15
2.6928e-15
2.38852e-15
2.54246e-15
2.57143e-15
2.92765e-15
2.60355e-15
2.03975e-16
2.09421e-15
2.25839e-15
2.5109e-15
2.33208e-15
2.46914e-15
2.64838e-15
2.45787e-15
2.63545e-15
2.83358e-15
2.90475e-15
2.89271e-15
3.02711e-15
2.95639e-15
2.66444e-15
2.39071e-15
2.4221e-15
2.64082e-15
2.77735e-15
1.10789e-15
3.49824e-15
2.18599e-15
2.60086e-15
2.26815e-15
2.23768e-15
2.38531e-15
2.72164e-15
2.58615e-15
2.57898e-15
2.78787e-15
2.95103e-15
2.88793e-15
2.82004e-15
2.81756e-15
2.67619e-15
2.54656e-15
2.57285e-15
2.74994e-15
2.76364e-15
)
;

boundaryField
{
    movingWall
    {
        type            zeroGradient;
    }
    fixedWalls
    {
        type            zeroGradient;
    }
    frontAndBack
    {
        type            empty;
    }
}


// ************************************************************************* //
