/*--------------------------------*- C++ -*----------------------------------*\
| =========                 |                                                 |
| \\      /  F ield         | OpenFOAM: The Open Source CFD Toolbox           |
|  \\    /   O peration     | Version:  2312                                  |
|   \\  /    A nd           | Website:  www.openfoam.com                      |
|    \\/     M anipulation  |                                                 |
\*---------------------------------------------------------------------------*/
FoamFile
{
    version     2.0;
    format      ascii;
    arch        "LSB;label=32;scalar=64";
    class       volScalarField;
    location    "6.375";
    object      QField;
}
// * * * * * * * * * * * * * * * * * * * * * * * * * * * * * * * * * * * * * //

dimensions      [0 0 -2 0 0 0 0];

internalField   nonuniform List<scalar> 
400
(
-3.26389e-23
-1.12925e-23
-5.0658e-25
-2.30386e-26
-5.57456e-27
5.34016e-29
-3.01484e-28
-2.0031e-28
-3.00419e-28
0
-1.1746e-28
1.90321e-28
0
0
0
-2.90073e-28
-2.07115e-28
0
0
-4.33866e-28
-6.03888e-23
-1.86735e-23
-1.1956e-24
-3.34354e-26
-4.31938e-27
-7.31243e-28
-5.47567e-28
-1.56054e-27
2.38671e-28
0
-1.02967e-28
0
-1.07988e-27
4.64939e-28
-2.92815e-28
-1.11237e-27
-2.2299e-28
3.33478e-28
2.65182e-28
-1.47905e-27
-5.69064e-23
-2.01811e-23
-3.46972e-25
-7.07945e-26
1.35815e-26
-1.69242e-27
2.39808e-28
0
0
0
8.89024e-28
1.05097e-27
-1.81895e-27
-3.86526e-28
-4.47214e-29
5.45512e-28
-2.56145e-28
0
2.88831e-29
-1.78378e-27
-4.60803e-23
-1.47579e-23
-5.56477e-25
-7.72031e-27
-4.62862e-27
-2.43608e-27
-5.80658e-28
0
0
-9.06446e-28
-2.6597e-27
-3.73321e-28
-1.69844e-28
1.9529e-27
1.42649e-27
1.17578e-27
-1.18455e-28
-4.18497e-29
-7.29856e-29
-6.1678e-28
-3.82199e-23
-1.10391e-23
-6.97237e-25
-3.31752e-26
-1.29306e-27
2.93174e-28
8.12938e-28
1.87229e-28
3.89757e-28
-2.24967e-28
4.72294e-28
8.20682e-28
3.47736e-28
5.91725e-28
-2.94737e-28
-6.74107e-28
-4.66457e-28
-5.17522e-28
-1.69449e-28
9.13288e-29
-3.32447e-23
-1.05865e-23
-7.42928e-25
2.51254e-26
-5.99281e-27
6.2078e-28
-2.33507e-28
-2.64947e-28
-2.10333e-27
-1.02233e-27
4.24937e-28
1.75667e-29
-2.53193e-28
0
-2.2533e-28
-2.86175e-28
-1.04172e-27
-7.22084e-29
0
0
-2.68286e-23
-1.13613e-23
8.88352e-26
-5.07764e-26
8.80512e-27
-2.73945e-27
3.43861e-28
1.06112e-27
5.7449e-28
-7.38333e-28
3.84264e-28
-2.47702e-28
-5.78316e-28
4.34785e-28
1.57687e-27
7.65057e-28
-2.78249e-29
-8.58231e-28
-1.53526e-28
0
-1.64774e-23
-6.07423e-24
-3.94028e-25
-7.69395e-27
7.97766e-28
0
1.51052e-28
0
-2.34172e-27
-7.38321e-28
-7.20028e-28
3.56527e-27
2.08155e-27
-7.98142e-28
-9.39441e-28
0
-5.24632e-28
-2.55065e-28
-1.45842e-28
3.83194e-28
-1.05608e-23
-5.28687e-24
-8.50074e-26
-1.64293e-26
4.79864e-27
-1.71562e-27
2.43454e-27
1.20731e-27
-2.61974e-28
0
-1.42575e-27
4.74601e-28
0
-8.34692e-28
2.74833e-28
2.78828e-27
1.15479e-27
-5.45793e-28
-8.87181e-28
0
2.73405e-24
-1.40297e-24
3.44246e-25
1.15187e-26
0
1.68718e-27
3.11462e-28
-3.4385e-27
-3.15921e-28
1.19872e-28
0
1.49198e-27
1.74552e-28
1.12927e-27
-8.89593e-28
0
1.01212e-27
-2.15951e-28
0
0
1.11063e-23
2.36143e-24
1.92164e-25
5.70654e-26
-8.80485e-27
1.42592e-27
3.71255e-28
0
0
1.54761e-28
7.26648e-28
6.74494e-28
-4.17664e-28
-9.53416e-28
-8.27296e-28
-9.94154e-28
5.58002e-28
-1.93229e-30
1.7426e-28
-6.25396e-28
1.23922e-23
1.78769e-24
2.75261e-25
-7.36073e-27
7.78518e-28
-5.1412e-28
6.46854e-28
0
-1.48134e-27
-1.91347e-27
-1.07223e-27
0
1.77978e-28
1.12764e-28
9.52281e-29
0
6.66015e-28
1.97319e-28
1.13019e-28
-8.62578e-28
2.28406e-23
4.12442e-24
8.06324e-26
2.63431e-26
1.62613e-27
-1.87755e-27
2.44893e-28
4.92567e-28
1.92978e-27
0
0
7.22333e-28
1.66896e-27
-9.77057e-29
-7.08047e-28
-2.99749e-28
0
-1.50236e-28
-2.42747e-28
-5.09733e-28
1.36411e-23
7.80026e-25
1.26047e-25
9.23267e-27
9.71069e-28
0
9.50758e-29
1.93665e-29
-6.03305e-28
-1.20042e-27
3.25622e-29
-8.56809e-28
9.47424e-28
-2.87206e-27
-5.41312e-28
0
5.30611e-29
-1.4829e-28
4.57618e-28
3.21638e-28
-1.08547e-23
-7.4067e-24
5.39798e-25
-3.56923e-26
1.93867e-26
-1.51363e-27
6.26856e-28
9.35463e-28
1.49701e-27
5.24213e-29
-2.13912e-28
0
3.03826e-27
0
-1.36687e-27
-1.00503e-28
6.29453e-28
-6.50129e-28
-4.35174e-28
-7.32097e-29
-2.54499e-23
-8.70259e-24
-1.32063e-25
-3.68097e-26
5.66786e-27
0
3.40163e-28
1.06126e-28
-5.66353e-28
-1.94255e-27
1.06834e-28
-1.34331e-27
2.41066e-28
7.41e-28
6.92574e-29
-3.9666e-28
-3.9287e-28
-4.43345e-28
-1.12742e-28
-1.16245e-29
-3.35041e-23
-9.94884e-24
-5.61487e-25
-8.44108e-27
-5.31601e-27
0
-7.86977e-28
-2.76043e-28
2.98281e-28
0
8.00018e-28
1.18981e-27
8.44742e-28
-7.76742e-28
2.4303e-28
1.82987e-28
9.16577e-30
1.05584e-27
5.19507e-29
-2.29099e-28
-3.69142e-23
-1.15103e-23
-1.71468e-25
-1.34898e-26
-5.96752e-27
3.92471e-27
8.17466e-29
0
-1.90138e-27
0
-2.34175e-28
0
-3.64678e-28
0
7.95027e-28
1.36215e-28
0
0
-1.1844e-27
-2.54072e-28
-3.82097e-23
-1.07318e-23
-5.26705e-25
-1.80399e-26
3.74701e-27
2.02863e-27
7.12342e-27
4.05017e-27
-2.5386e-27
-1.56936e-27
1.45045e-28
6.06843e-28
-5.14315e-28
-1.04362e-27
-4.98202e-29
-2.36074e-29
2.2283e-28
3.0972e-28
-3.94574e-28
0
-1.87253e-23
-5.48825e-24
-4.16855e-25
3.64667e-26
-9.13774e-27
1.08152e-27
-1.75271e-27
-4.32999e-27
-1.34714e-27
1.01014e-27
-1.7989e-28
-3.98793e-28
-1.1448e-28
-1.26743e-28
-3.68518e-28
-1.54415e-28
1.56603e-28
-8.10579e-29
-4.32127e-28
0
)
;

boundaryField
{
    movingWall
    {
        type            calculated;
        value           nonuniform List<scalar> 
20
(
4.77986e-24
2.9856e-24
-1.08315e-24
1.3941e-25
-2.61997e-26
4.13459e-27
-6.21078e-27
-6.9337e-27
-9.41419e-29
1.65502e-27
-9.8929e-28
-2.36752e-28
-3.75129e-28
-1.90456e-27
-2.00478e-27
7.64758e-29
0
-1.32805e-28
-5.23437e-28
0
)
;
    }
    fixedWalls
    {
        type            calculated;
        value           nonuniform List<scalar> 
60
(
-1.79822e-22
-3.44647e-22
-2.97679e-22
-2.36825e-22
-2.07498e-22
-1.82581e-22
-1.37398e-22
-1.03589e-22
-6.53387e-23
1.41037e-23
5.57503e-23
5.85025e-23
9.45345e-23
5.54881e-23
-5.5445e-23
-1.45004e-22
-1.80433e-22
-1.87309e-22
-2.03814e-22
-1.03567e-22
0
-2.97558e-27
-2.89351e-27
-1.05884e-27
5.25614e-29
0
0
4.48535e-28
3.88805e-28
0
-1.4424e-27
-1.51364e-27
0
5.26971e-28
1.25965e-28
-1.94318e-28
-3.75356e-28
-1.03876e-27
0
0
9.58571e-24
8.67152e-24
-1.6633e-24
1.99172e-25
-3.20487e-26
5.94499e-27
-4.92567e-27
-8.87747e-28
-5.52797e-28
5.41164e-28
-1.06151e-27
-1.35327e-27
3.938e-28
0
0
-8.50572e-28
-6.78674e-28
0
-7.86223e-28
-9.37631e-28
)
;
    }
    frontAndBack
    {
        type            empty;
    }
}


// ************************************************************************* //
