/*--------------------------------*- C++ -*----------------------------------*\
| =========                 |                                                 |
| \\      /  F ield         | OpenFOAM: The Open Source CFD Toolbox           |
|  \\    /   O peration     | Version:  2312                                  |
|   \\  /    A nd           | Website:  www.openfoam.com                      |
|    \\/     M anipulation  |                                                 |
\*---------------------------------------------------------------------------*/
FoamFile
{
    version     2.0;
    format      ascii;
    arch        "LSB;label=32;scalar=64";
    class       volVectorField;
    location    "6.375";
    object      UNear;
}
// * * * * * * * * * * * * * * * * * * * * * * * * * * * * * * * * * * * * * //

dimensions      [0 1 -1 0 0 0 0];

internalField   nonuniform List<vector> 
400
(
(-1 1.41017e-13 0)
(-1 -3.0574e-14 0)
(-1 7.35804e-15 0)
(-1 -1.53475e-15 0)
(-1 4.15679e-16 0)
(-1 1.57269e-17 0)
(-1 1.5562e-16 0)
(-1 1.37265e-16 0)
(-1 1.21815e-16 0)
(-1 7.96251e-17 0)
(-1 6.08854e-17 0)
(-1 1.24817e-16 0)
(-1 1.39237e-16 0)
(-1 3.61416e-17 0)
(-1 -7.01866e-17 0)
(-1 -7.84514e-17 0)
(-1 1.06769e-18 0)
(-1 -2.0396e-18 0)
(-1 6.51717e-17 0)
(-1 8.64812e-17 0)
(-1 1.02036e-14 0)
(-1 -2.08135e-15 0)
(-1 6.92981e-16 0)
(-1 -2.26404e-17 0)
(-1 9.04989e-17 0)
(-1 3.9748e-18 0)
(-1 -4.43917e-17 0)
(-1 -6.33641e-17 0)
(-1 -1.098e-17 0)
(-1 -1.9337e-17 0)
(-1 -1.75501e-17 0)
(-1 -3.83311e-17 0)
(-1 -4.23916e-17 0)
(-1 2.54483e-17 0)
(-1 4.33746e-17 0)
(-1 -2.85666e-17 0)
(-1 -3.11684e-17 0)
(-1 2.46699e-17 0)
(-1 4.38838e-17 0)
(-1 7.35873e-17 0)
(-1 -1.34736e-13 0)
(-1 2.96358e-14 0)
(-1 -6.93736e-15 0)
(-1 1.54912e-15 0)
(-1 -4.07722e-16 0)
(-1 -1.21112e-16 0)
(-1 -2.51623e-16 0)
(-1 -1.50603e-16 0)
(-1 1.97189e-17 0)
(-1 1.39397e-16 0)
(-1 1.85613e-16 0)
(-1 3.00664e-17 0)
(-1 -3.60843e-17 0)
(-1 6.72781e-17 0)
(-1 8.13372e-17 0)
(-1 1.4931e-17 0)
(-1 -1.19921e-16 0)
(-1 -6.35554e-17 0)
(-1 -1.02558e-16 0)
(-1 -6.88834e-17 0)
(-1 1.08787e-13 0)
(-1 -2.37652e-14 0)
(-1 5.5541e-15 0)
(-1 -1.22618e-15 0)
(-1 3.86809e-16 0)
(-1 2.99096e-18 0)
(-1 -1.8416e-17 0)
(-1 -5.60113e-17 0)
(-1 9.88188e-18 0)
(-1 2.87953e-17 0)
(-1 2.00604e-17 0)
(-1 1.00344e-16 0)
(-1 1.56492e-16 0)
(-1 9.67499e-17 0)
(-1 -1.72221e-17 0)
(-1 -7.86775e-17 0)
(-1 -1.25669e-16 0)
(-1 -1.10948e-16 0)
(-1 -1.10229e-16 0)
(-1 -8.40208e-17 0)
(-1 -1.23796e-14 0)
(-1 2.63079e-15 0)
(-1 -7.63458e-16 0)
(-1 1.24975e-16 0)
(-1 7.0764e-17 0)
(-1 4.33973e-17 0)
(-1 -3.73981e-17 0)
(-1 -8.33327e-17 0)
(-1 -1.78726e-16 0)
(-1 -1.95022e-16 0)
(-1 -1.17623e-16 0)
(-1 2.87671e-17 0)
(-1 3.37662e-17 0)
(-1 9.2913e-17 0)
(-1 1.4292e-16 0)
(-1 5.66668e-17 0)
(-1 5.28619e-17 0)
(-1 2.6934e-17 0)
(-1 1.88736e-18 0)
(-1 -3.55818e-17 0)
(-1 -9.33836e-14 0)
(-1 2.05035e-14 0)
(-1 -4.72507e-15 0)
(-1 1.22171e-15 0)
(-1 -9.02458e-17 0)
(-1 1.16236e-16 0)
(-1 2.80453e-17 0)
(-1 1.62412e-17 0)
(-1 -6.97027e-17 0)
(-1 -5.42029e-17 0)
(-1 6.96041e-17 0)
(-1 1.02571e-16 0)
(-1 7.47387e-17 0)
(-1 7.35591e-17 0)
(-1 1.22271e-16 0)
(-1 7.9966e-17 0)
(-1 1.66904e-17 0)
(-1 2.90097e-17 0)
(-1 3.37034e-18 0)
(-1 -8.98707e-18 0)
(-1 1.12124e-13 0)
(-1 -2.40856e-14 0)
(-1 5.9403e-15 0)
(-1 -1.05039e-15 0)
(-1 3.63643e-16 0)
(-1 5.09523e-17 0)
(-1 4.87508e-17 0)
(-1 1.11501e-16 0)
(-1 2.44493e-16 0)
(-1 1.82151e-16 0)
(-1 1.08294e-16 0)
(-1 4.03827e-17 0)
(-1 1.27178e-16 0)
(-1 8.85707e-17 0)
(-1 4.69742e-17 0)
(-1 -1.7981e-17 0)
(-1 -1.13823e-16 0)
(-1 -4.3339e-17 0)
(-1 -8.27914e-18 0)
(-1 1.3302e-17 0)
(-1 -2.14439e-14 0)
(-1 4.66513e-15 0)
(-1 -1.09195e-15 0)
(-1 2.20114e-16 0)
(-1 -1.45758e-16 0)
(-1 -7.42097e-17 0)
(-1 -2.96218e-17 0)
(-1 -3.05007e-17 0)
(-1 -3.45269e-17 0)
(-1 -1.02717e-16 0)
(-1 -1.45277e-16 0)
(-1 3.00687e-17 0)
(-1 1.91724e-16 0)
(-1 2.22058e-16 0)
(-1 4.44925e-17 0)
(-1 4.06279e-17 0)
(-1 7.7672e-17 0)
(-1 9.98814e-17 0)
(-1 1.06786e-16 0)
(-1 4.60753e-17 0)
(-1 -7.01275e-14 0)
(-1 1.51797e-14 0)
(-1 -3.61751e-15 0)
(-1 8.27263e-16 0)
(-1 -7.61066e-17 0)
(-1 1.20302e-16 0)
(-1 4.27411e-17 0)
(-1 -1.11517e-16 0)
(-1 -1.51369e-16 0)
(-1 -9.02413e-17 0)
(-1 -9.09199e-17 0)
(-1 2.40588e-17 0)
(-1 8.41768e-17 0)
(-1 -3.81828e-17 0)
(-1 -1.18188e-16 0)
(-1 -4.38429e-18 0)
(-1 1.38985e-16 0)
(-1 1.38104e-16 0)
(-1 7.99263e-17 0)
(-1 2.47892e-17 0)
(-1 8.80644e-14 0)
(-1 -1.90184e-14 0)
(-1 4.63262e-15 0)
(-1 -8.01342e-16 0)
(-1 3.82973e-16 0)
(-1 1.23418e-16 0)
(-1 7.17434e-17 0)
(-1 2.66954e-17 0)
(-1 4.08489e-17 0)
(-1 8.49725e-17 0)
(-1 1.0626e-16 0)
(-1 -5.36896e-17 0)
(-1 -1.26086e-16 0)
(-1 -8.58886e-17 0)
(-1 8.22269e-17 0)
(-1 1.44281e-16 0)
(-1 7.90946e-17 0)
(-1 -4.24215e-17 0)
(-1 -5.68705e-17 0)
(-1 -4.14758e-17 0)
(-1 -8.21337e-14 0)
(-1 1.76101e-14 0)
(-1 -4.13213e-15 0)
(-1 9.69883e-16 0)
(-1 -3.05169e-17 0)
(-1 1.37144e-16 0)
(-1 1.21278e-16 0)
(-1 2.05628e-16 0)
(-1 1.61962e-16 0)
(-1 8.4805e-17 0)
(-1 2.14117e-18 0)
(-1 -4.92379e-17 0)
(-1 -1.22281e-16 0)
(-1 -2.961e-17 0)
(-1 4.59128e-17 0)
(-1 4.20579e-17 0)
(-1 -2.064e-17 0)
(-1 -1.05679e-16 0)
(-1 -7.9546e-17 0)
(-1 -5.08146e-17 0)
(-1 7.02291e-14 0)
(-1 -1.47884e-14 0)
(-1 3.54886e-15 0)
(-1 -6.65e-16 0)
(-1 3.00433e-16 0)
(-1 4.23098e-17 0)
(-1 1.10756e-16 0)
(-1 1.61633e-16 0)
(-1 1.3854e-16 0)
(-1 5.64241e-17 0)
(-1 -1.99812e-17 0)
(-1 -4.86547e-18 0)
(-1 -5.88545e-17 0)
(-1 -7.05276e-17 0)
(-1 -7.96558e-17 0)
(-1 -1.05661e-16 0)
(-1 -1.0513e-17 0)
(-1 1.71975e-17 0)
(-1 6.22847e-17 0)
(-1 5.88942e-17 0)
(-1 -1.81602e-14 0)
(-1 3.93939e-15 0)
(-1 -7.69487e-16 0)
(-1 1.88809e-16 0)
(-1 -1.35539e-16 0)
(-1 -1.11697e-17 0)
(-1 7.58632e-18 0)
(-1 -4.12863e-17 0)
(-1 -1.74139e-16 0)
(-1 -2.68168e-16 0)
(-1 -2.26296e-16 0)
(-1 -1.33967e-16 0)
(-1 5.42515e-17 0)
(-1 2.15463e-16 0)
(-1 1.20289e-16 0)
(-1 5.25721e-17 0)
(-1 1.95958e-17 0)
(-1 1.3948e-17 0)
(-1 4.73094e-17 0)
(-1 4.77134e-17 0)
(-1 -7.56066e-14 0)
(-1 1.62886e-14 0)
(-1 -3.86679e-15 0)
(-1 7.87592e-16 0)
(-1 -3.68523e-16 0)
(-1 -8.93489e-17 0)
(-1 -6.41691e-17 0)
(-1 -5.42721e-17 0)
(-1 -5.70242e-17 0)
(-1 -3.09323e-17 0)
(-1 -6.56309e-17 0)
(-1 -1.8919e-17 0)
(-1 2.42674e-17 0)
(-1 9.75936e-17 0)
(-1 1.32401e-16 0)
(-1 1.0562e-16 0)
(-1 1.80028e-17 0)
(-1 4.92808e-17 0)
(-1 -2.7273e-17 0)
(-1 -3.51349e-17 0)
(-1 1.3653e-13 0)
(-1 -2.89755e-14 0)
(-1 6.78075e-15 0)
(-1 -1.54499e-15 0)
(-1 2.22722e-16 0)
(-1 -9.82375e-17 0)
(-1 -1.99204e-17 0)
(-1 -2.11479e-17 0)
(-1 9.51212e-17 0)
(-1 1.74708e-16 0)
(-1 1.55275e-16 0)
(-1 1.58934e-16 0)
(-1 -3.67535e-17 0)
(-1 -2.09828e-16 0)
(-1 -1.11526e-16 0)
(-1 -1.83988e-17 0)
(-1 3.91719e-17 0)
(-1 6.86572e-17 0)
(-1 3.86278e-17 0)
(-1 -1.16182e-17 0)
(-1 -8.82633e-14 0)
(-1 1.85885e-14 0)
(-1 -4.51558e-15 0)
(-1 7.77173e-16 0)
(-1 -2.87184e-16 0)
(-1 8.01488e-17 0)
(-1 1.73989e-17 0)
(-1 -4.53493e-17 0)
(-1 -2.17548e-17 0)
(-1 -1.15923e-17 0)
(-1 -1.82589e-17 0)
(-1 -3.12997e-17 0)
(-1 1.69487e-17 0)
(-1 -7.57685e-17 0)
(-1 -1.19742e-16 0)
(-1 -8.21564e-17 0)
(-1 -4.01126e-17 0)
(-1 -3.03083e-17 0)
(-1 5.57358e-17 0)
(-1 1.12861e-17 0)
(-1 -2.57159e-14 0)
(-1 5.14891e-15 0)
(-1 -1.47648e-15 0)
(-1 1.62878e-16 0)
(-1 -1.33154e-16 0)
(-1 -6.14671e-17 0)
(-1 -1.04661e-16 0)
(-1 -8.48438e-17 0)
(-1 -8.00693e-17 0)
(-1 -1.83629e-16 0)
(-1 -1.10796e-16 0)
(-1 -3.60517e-17 0)
(-1 3.55129e-17 0)
(-1 -2.50264e-17 0)
(-1 -6.80493e-17 0)
(-1 -3.13156e-17 0)
(-1 -2.07532e-18 0)
(-1 4.0526e-17 0)
(-1 9.83619e-17 0)
(-1 5.96924e-17 0)
(-1 1.04186e-13 0)
(-1 -2.20527e-14 0)
(-1 5.34342e-15 0)
(-1 -9.93711e-16 0)
(-1 3.66569e-16 0)
(-1 -3.81062e-17 0)
(-1 -1.16084e-16 0)
(-1 -1.47191e-16 0)
(-1 -1.31801e-16 0)
(-1 -1.27914e-16 0)
(-1 -5.41039e-17 0)
(-1 -3.12641e-17 0)
(-1 -7.22358e-17 0)
(-1 -1.1549e-16 0)
(-1 -6.86213e-17 0)
(-1 -1.77188e-17 0)
(-1 -4.34941e-17 0)
(-1 -4.25224e-17 0)
(-1 -2.07259e-18 0)
(-1 9.58087e-17 0)
(-1 -3.33175e-14 0)
(-1 6.99728e-15 0)
(-1 -1.43476e-15 0)
(-1 4.78403e-16 0)
(-1 1.57261e-16 0)
(-1 1.32802e-16 0)
(-1 -6.51983e-17 0)
(-1 -3.05211e-16 0)
(-1 -3.13898e-16 0)
(-1 -7.1067e-17 0)
(-1 -2.4401e-17 0)
(-1 -1.15691e-16 0)
(-1 -9.90296e-17 0)
(-1 -5.24419e-17 0)
(-1 -3.39661e-17 0)
(-1 -4.63151e-17 0)
(-1 -7.79492e-17 0)
(-1 -1.09629e-16 0)
(-1 -1.20121e-16 0)
(-1 3.59427e-17 0)
(-1 -9.08944e-14 0)
(-1 1.94256e-14 0)
(-1 -4.67454e-15 0)
(-1 8.85755e-16 0)
(-1 -1.89932e-16 0)
(-1 4.29466e-17 0)
(-1 -5.69278e-17 0)
(-1 -1.49244e-16 0)
(-1 -1.15457e-16 0)
(-1 3.16077e-17 0)
(-1 7.08819e-17 0)
(-1 2.16643e-17 0)
(-1 1.77802e-17 0)
(-1 -2.05714e-17 0)
(-1 -1.01993e-16 0)
(-1 -8.80483e-17 0)
(-1 -2.45987e-17 0)
(-1 -3.0272e-17 0)
(-1 -5.45038e-17 0)
(-1 -1.50737e-17 0)
)
;

boundaryField
{
    movingWall
    {
        type            fixedValue;
        value           uniform (-1 -0 -0);
    }
    fixedWalls
    {
        type            calculated;
        value           nonuniform List<vector> 
60
(
(-1 5.64068e-14 0)
(-1 4.08142e-15 0)
(-1 -5.38943e-14 0)
(-1 4.35149e-14 0)
(-1 -4.95185e-15 0)
(-1 -3.73534e-14 0)
(-1 4.48495e-14 0)
(-1 -8.57757e-15 0)
(-1 -2.8051e-14 0)
(-1 3.52258e-14 0)
(-1 -3.28535e-14 0)
(-1 2.80916e-14 0)
(-1 -7.26407e-15 0)
(-1 -3.02427e-14 0)
(-1 5.4612e-14 0)
(-1 -3.53053e-14 0)
(-1 -1.02864e-14 0)
(-1 4.16744e-14 0)
(-1 -1.3327e-14 0)
(-1 -3.63577e-14 0)
(-1 3.45925e-17 0)
(-1 2.94349e-17 0)
(-1 -2.75534e-17 0)
(-1 -3.36083e-17 0)
(-1 -1.42327e-17 0)
(-1 -3.59483e-18 0)
(-1 5.32079e-18 0)
(-1 1.84301e-17 0)
(-1 9.91569e-18 0)
(-1 -1.65903e-17 0)
(-1 -2.03258e-17 0)
(-1 2.35577e-17 0)
(-1 1.90854e-17 0)
(-1 -1.40539e-17 0)
(-1 -4.64729e-18 0)
(-1 4.51446e-18 0)
(-1 2.3877e-17 0)
(-1 3.83235e-17 0)
(-1 1.43771e-17 0)
(-1 -6.02946e-18 0)
(-1 5.64068e-14 0)
(-1 -1.22296e-14 0)
(-1 2.94322e-15 0)
(-1 -6.13899e-16 0)
(-1 1.66272e-16 0)
(-1 6.29077e-18 0)
(-1 6.22478e-17 0)
(-1 5.49062e-17 0)
(-1 4.8726e-17 0)
(-1 3.185e-17 0)
(-1 2.43542e-17 0)
(-1 4.9927e-17 0)
(-1 5.56947e-17 0)
(-1 1.44566e-17 0)
(-1 -2.80746e-17 0)
(-1 -3.13806e-17 0)
(-1 4.27077e-19 0)
(-1 -8.1584e-19 0)
(-1 2.60687e-17 0)
(-1 3.45925e-17 0)
)
;
    }
    frontAndBack
    {
        type            empty;
    }
}


// ************************************************************************* //
