/*--------------------------------*- C++ -*----------------------------------*\
| =========                 |                                                 |
| \\      /  F ield         | OpenFOAM: The Open Source CFD Toolbox           |
|  \\    /   O peration     | Version:  2312                                  |
|   \\  /    A nd           | Website:  www.openfoam.com                      |
|    \\/     M anipulation  |                                                 |
\*---------------------------------------------------------------------------*/
FoamFile
{
    version     2.0;
    format      ascii;
    arch        "LSB;label=32;scalar=64";
    class       volScalarField;
    location    "6.375";
    object      zeroGradient(epsilon);
}
// * * * * * * * * * * * * * * * * * * * * * * * * * * * * * * * * * * * * * //

dimensions      [0 2 -3 0 0 0 0];

internalField   nonuniform List<scalar> 
400
(
3.23425e-06
3.23425e-06
3.23424e-06
3.23424e-06
3.23423e-06
3.23423e-06
3.23422e-06
3.23423e-06
3.23422e-06
3.23423e-06
3.23422e-06
3.23422e-06
3.23422e-06
3.23422e-06
3.23422e-06
3.23422e-06
3.23422e-06
3.23422e-06
3.23422e-06
3.23422e-06
3.44036e-06
3.38361e-06
3.38834e-06
3.39028e-06
3.3942e-06
3.39621e-06
3.40015e-06
3.40221e-06
3.40617e-06
3.4083e-06
3.41226e-06
3.41446e-06
3.41842e-06
3.4207e-06
3.42466e-06
3.42703e-06
3.43098e-06
3.43342e-06
3.43541e-06
3.43862e-06
3.74632e-06
3.68176e-06
3.68722e-06
3.68946e-06
3.69397e-06
3.69626e-06
3.70079e-06
3.70313e-06
3.70767e-06
3.71007e-06
3.7146e-06
3.71707e-06
3.72159e-06
3.72413e-06
3.72863e-06
3.73126e-06
3.73574e-06
3.73844e-06
3.74069e-06
3.74429e-06
4.04062e-06
3.96914e-06
3.97518e-06
3.97765e-06
3.98264e-06
3.98518e-06
3.99019e-06
3.99277e-06
3.99779e-06
4.00045e-06
4.00546e-06
4.00819e-06
4.01319e-06
4.01601e-06
4.02099e-06
4.0239e-06
4.02886e-06
4.03185e-06
4.03433e-06
4.03831e-06
4.2653e-06
4.18833e-06
4.19483e-06
4.19749e-06
4.20285e-06
4.20558e-06
4.21097e-06
4.21375e-06
4.21915e-06
4.22201e-06
4.2274e-06
4.23034e-06
4.23572e-06
4.23875e-06
4.24411e-06
4.24724e-06
4.25258e-06
4.2558e-06
4.25847e-06
4.26277e-06
4.41462e-06
4.33393e-06
4.34073e-06
4.34351e-06
4.34914e-06
4.35199e-06
4.35764e-06
4.36055e-06
4.36621e-06
4.3692e-06
4.37485e-06
4.37794e-06
4.38357e-06
4.38675e-06
4.39236e-06
4.39565e-06
4.40124e-06
4.40463e-06
4.40742e-06
4.41192e-06
4.5067e-06
4.42371e-06
4.4307e-06
4.43357e-06
4.43935e-06
4.44229e-06
4.44809e-06
4.45109e-06
4.45691e-06
4.45998e-06
4.46579e-06
4.46897e-06
4.47476e-06
4.47803e-06
4.4838e-06
4.48718e-06
4.49294e-06
4.49642e-06
4.49929e-06
4.50392e-06
4.56272e-06
4.47832e-06
4.48543e-06
4.48834e-06
4.49422e-06
4.49721e-06
4.50311e-06
4.50616e-06
4.51207e-06
4.5152e-06
4.52111e-06
4.52433e-06
4.53022e-06
4.53355e-06
4.53942e-06
4.54286e-06
4.54871e-06
4.55225e-06
4.55517e-06
4.55988e-06
4.59867e-06
4.51336e-06
4.52054e-06
4.52348e-06
4.52942e-06
4.53244e-06
4.53841e-06
4.54149e-06
4.54746e-06
4.55063e-06
4.5566e-06
4.55986e-06
4.56581e-06
4.56918e-06
4.57511e-06
4.57858e-06
4.58449e-06
4.58807e-06
4.59103e-06
4.59578e-06
4.62462e-06
4.53866e-06
4.54589e-06
4.54886e-06
4.55484e-06
4.55789e-06
4.56389e-06
4.567e-06
4.57302e-06
4.57621e-06
4.58222e-06
4.58551e-06
4.59151e-06
4.5949e-06
4.60087e-06
4.60437e-06
4.61033e-06
4.61394e-06
4.61692e-06
4.62171e-06
4.64637e-06
4.55986e-06
4.56714e-06
4.57012e-06
4.57615e-06
4.57921e-06
4.58525e-06
4.58838e-06
4.59444e-06
4.59764e-06
4.6037e-06
4.607e-06
4.61304e-06
4.61645e-06
4.62247e-06
4.62599e-06
4.63198e-06
4.63561e-06
4.63861e-06
4.64343e-06
4.66713e-06
4.58011e-06
4.58743e-06
4.59043e-06
4.59649e-06
4.59957e-06
4.60565e-06
4.60879e-06
4.61489e-06
4.61811e-06
4.6242e-06
4.62753e-06
4.6336e-06
4.63703e-06
4.64308e-06
4.64663e-06
4.65266e-06
4.65631e-06
4.65932e-06
4.66418e-06
4.68876e-06
4.60119e-06
4.60856e-06
4.61158e-06
4.61768e-06
4.62077e-06
4.62689e-06
4.63006e-06
4.63619e-06
4.63943e-06
4.64556e-06
4.64891e-06
4.65501e-06
4.65847e-06
4.66456e-06
4.66812e-06
4.67419e-06
4.67786e-06
4.6809e-06
4.68578e-06
4.71241e-06
4.62424e-06
4.63166e-06
4.6347e-06
4.64083e-06
4.64395e-06
4.65011e-06
4.6533e-06
4.65947e-06
4.66274e-06
4.6689e-06
4.67227e-06
4.67842e-06
4.6819e-06
4.68803e-06
4.69162e-06
4.69772e-06
4.70142e-06
4.70448e-06
4.70939e-06
4.73876e-06
4.64994e-06
4.65741e-06
4.66047e-06
4.66666e-06
4.6698e-06
4.676e-06
4.67921e-06
4.68543e-06
4.68872e-06
4.69493e-06
4.69833e-06
4.70452e-06
4.70803e-06
4.7142e-06
4.71782e-06
4.72397e-06
4.7277e-06
4.73077e-06
4.73572e-06
4.76796e-06
4.67842e-06
4.68595e-06
4.68904e-06
4.69527e-06
4.69844e-06
4.70469e-06
4.70792e-06
4.71419e-06
4.71751e-06
4.72377e-06
4.7272e-06
4.73344e-06
4.73697e-06
4.7432e-06
4.74685e-06
4.75305e-06
4.7568e-06
4.75991e-06
4.7649e-06
4.79906e-06
4.70874e-06
4.71633e-06
4.71944e-06
4.72573e-06
4.72892e-06
4.73523e-06
4.73849e-06
4.74481e-06
4.74816e-06
4.75448e-06
4.75793e-06
4.76423e-06
4.76779e-06
4.77407e-06
4.77775e-06
4.784e-06
4.78779e-06
4.79092e-06
4.79596e-06
4.82932e-06
4.73828e-06
4.74592e-06
4.74906e-06
4.75539e-06
4.75861e-06
4.76497e-06
4.76826e-06
4.77463e-06
4.778e-06
4.78437e-06
4.78785e-06
4.7942e-06
4.79779e-06
4.80412e-06
4.80783e-06
4.81414e-06
4.81796e-06
4.82112e-06
4.82619e-06
4.85411e-06
4.76426e-06
4.77168e-06
4.77472e-06
4.78088e-06
4.78403e-06
4.79024e-06
4.79348e-06
4.79971e-06
4.80306e-06
4.80931e-06
4.8128e-06
4.81904e-06
4.82267e-06
4.8289e-06
4.83268e-06
4.8389e-06
4.84282e-06
4.84594e-06
4.85105e-06
4.86532e-06
4.86531e-06
4.8653e-06
4.8653e-06
4.86529e-06
4.86529e-06
4.86528e-06
4.86528e-06
4.86528e-06
4.86528e-06
4.86527e-06
4.86527e-06
4.86527e-06
4.86527e-06
4.86527e-06
4.86527e-06
4.86527e-06
4.86527e-06
4.86527e-06
4.86527e-06
)
;

boundaryField
{
    movingWall
    {
        type            zeroGradient;
    }
    fixedWalls
    {
        type            zeroGradient;
    }
    frontAndBack
    {
        type            empty;
    }
}


// ************************************************************************* //
