/*--------------------------------*- C++ -*----------------------------------*\
| =========                 |                                                 |
| \\      /  F ield         | OpenFOAM: The Open Source CFD Toolbox           |
|  \\    /   O peration     | Version:  2312                                  |
|   \\  /    A nd           | Website:  www.openfoam.com                      |
|    \\/     M anipulation  |                                                 |
\*---------------------------------------------------------------------------*/
FoamFile
{
    version     2.0;
    format      ascii;
    arch        "LSB;label=32;scalar=64";
    class       volVectorField;
    location    "6.875";
    object      diffU;
}
// * * * * * * * * * * * * * * * * * * * * * * * * * * * * * * * * * * * * * //

dimensions      [0 1 -1 0 0 0 0];

internalField   nonuniform List<vector> 
400
(
(0 0 0)
(1.96509e-14 -2.10697e-13 0)
(1.55431e-14 -1.64441e-13 0)
(1.55431e-14 -1.7511e-13 0)
(1.56541e-14 -1.72818e-13 0)
(1.54321e-14 -1.73407e-13 0)
(1.54321e-14 -1.73326e-13 0)
(1.54321e-14 -1.73343e-13 0)
(1.52101e-14 -1.73391e-13 0)
(1.55431e-14 -1.73311e-13 0)
(1.54321e-14 -1.73189e-13 0)
(1.54321e-14 -1.73193e-13 0)
(1.53211e-14 -1.7324e-13 0)
(1.4877e-14 -1.73344e-13 0)
(1.5099e-14 -1.73352e-13 0)
(1.4877e-14 -1.73315e-13 0)
(1.52101e-14 -1.73303e-13 0)
(1.4877e-14 -1.7334e-13 0)
(1.53211e-14 -1.73376e-13 0)
(1.52101e-14 -1.73316e-13 0)
(4.39648e-14 -1.73511e-13 0)
(5.77316e-15 -1.73438e-13 0)
(1.46549e-14 -1.73424e-13 0)
(1.42109e-14 -1.7343e-13 0)
(1.46549e-14 -1.7342e-13 0)
(1.46549e-14 -1.7333e-13 0)
(1.4877e-14 -1.73293e-13 0)
(1.4877e-14 -1.73271e-13 0)
(1.46549e-14 -1.73332e-13 0)
(1.44329e-14 -1.73366e-13 0)
(1.46549e-14 -1.73307e-13 0)
(1.46549e-14 -1.73276e-13 0)
(1.4877e-14 -1.73221e-13 0)
(1.4877e-14 -1.73253e-13 0)
(1.4877e-14 -1.73295e-13 0)
(1.4877e-14 -1.73265e-13 0)
(1.5099e-14 -1.73229e-13 0)
(1.46549e-14 -1.73362e-13 0)
(1.52101e-14 -1.73494e-13 0)
(1.4877e-14 -1.73392e-13 0)
(7.77156e-15 -3.16383e-13 0)
(1.79856e-14 -1.41985e-13 0)
(1.52101e-14 -1.80699e-13 0)
(1.5099e-14 -1.71769e-13 0)
(1.46549e-14 -1.73797e-13 0)
(1.44329e-14 -1.73354e-13 0)
(1.44329e-14 -1.73409e-13 0)
(1.4877e-14 -1.73383e-13 0)
(1.4877e-14 -1.73456e-13 0)
(1.4877e-14 -1.73535e-13 0)
(1.52101e-14 -1.73369e-13 0)
(1.52101e-14 -1.73201e-13 0)
(1.5099e-14 -1.73215e-13 0)
(1.5099e-14 -1.73227e-13 0)
(1.4877e-14 -1.73325e-13 0)
(1.5099e-14 -1.73383e-13 0)
(1.52101e-14 -1.7336e-13 0)
(1.52101e-14 -1.73376e-13 0)
(1.54321e-14 -1.73456e-13 0)
(1.5099e-14 -1.73428e-13 0)
(-8.21565e-15 -4.39056e-14 0)
(2.03171e-14 -2.01394e-13 0)
(1.37668e-14 -1.66711e-13 0)
(1.54321e-14 -1.74795e-13 0)
(1.53211e-14 -1.7302e-13 0)
(1.52101e-14 -1.7352e-13 0)
(1.53211e-14 -1.73479e-13 0)
(1.5099e-14 -1.73481e-13 0)
(1.5099e-14 -1.73543e-13 0)
(1.4877e-14 -1.73499e-13 0)
(1.46549e-14 -1.73321e-13 0)
(1.5099e-14 -1.7321e-13 0)
(1.53211e-14 -1.73247e-13 0)
(1.53211e-14 -1.73261e-13 0)
(1.55431e-14 -1.7332e-13 0)
(1.55431e-14 -1.73372e-13 0)
(1.52101e-14 -1.73399e-13 0)
(1.5099e-14 -1.73311e-13 0)
(1.52101e-14 -1.73301e-13 0)
(1.5099e-14 -1.73352e-13 0)
(4.15223e-14 -2.04887e-13 0)
(7.77156e-15 -1.67398e-13 0)
(1.59872e-14 -1.75068e-13 0)
(1.52101e-14 -1.73274e-13 0)
(1.55431e-14 -1.73452e-13 0)
(1.53211e-14 -1.73284e-13 0)
(1.52101e-14 -1.73325e-13 0)
(1.53211e-14 -1.73287e-13 0)
(1.5099e-14 -1.7327e-13 0)
(1.4877e-14 -1.73267e-13 0)
(1.46549e-14 -1.73409e-13 0)
(1.4877e-14 -1.73558e-13 0)
(1.4877e-14 -1.73539e-13 0)
(1.4877e-14 -1.73488e-13 0)
(1.52101e-14 -1.73399e-13 0)
(1.52101e-14 -1.73353e-13 0)
(1.5099e-14 -1.73288e-13 0)
(1.5099e-14 -1.73205e-13 0)
(1.5099e-14 -1.73285e-13 0)
(1.52101e-14 -1.73354e-13 0)
(3.77476e-15 -2.59818e-13 0)
(1.95399e-14 -1.54639e-13 0)
(1.59872e-14 -1.77882e-13 0)
(1.54321e-14 -1.72402e-13 0)
(1.52101e-14 -1.7358e-13 0)
(1.54321e-14 -1.73362e-13 0)
(1.53211e-14 -1.73503e-13 0)
(1.55431e-14 -1.7342e-13 0)
(1.58762e-14 -1.73149e-13 0)
(1.55431e-14 -1.73072e-13 0)
(1.56541e-14 -1.73186e-13 0)
(1.57652e-14 -1.73331e-13 0)
(1.53211e-14 -1.73438e-13 0)
(1.52101e-14 -1.7349e-13 0)
(1.52101e-14 -1.7341e-13 0)
(1.5099e-14 -1.73338e-13 0)
(1.4877e-14 -1.73282e-13 0)
(1.52101e-14 -1.73273e-13 0)
(1.5099e-14 -1.73328e-13 0)
(1.5099e-14 -1.73363e-13 0)
(1.37668e-14 -3.38834e-14 0)
(1.62093e-14 -2.03027e-13 0)
(1.53211e-14 -1.66207e-13 0)
(1.54321e-14 -1.74618e-13 0)
(1.52101e-14 -1.72822e-13 0)
(1.52101e-14 -1.73258e-13 0)
(1.5099e-14 -1.73246e-13 0)
(1.44329e-14 -1.73341e-13 0)
(1.42109e-14 -1.73252e-13 0)
(1.44329e-14 -1.73321e-13 0)
(1.44329e-14 -1.73355e-13 0)
(1.46549e-14 -1.73262e-13 0)
(1.4877e-14 -1.73307e-13 0)
(1.4877e-14 -1.73372e-13 0)
(1.46549e-14 -1.73443e-13 0)
(1.4877e-14 -1.73417e-13 0)
(1.4877e-14 -1.73309e-13 0)
(1.53211e-14 -1.73323e-13 0)
(1.5099e-14 -1.73328e-13 0)
(1.5099e-14 -1.73369e-13 0)
(2.39808e-14 -2.30779e-13 0)
(1.02141e-14 -1.61578e-13 0)
(1.35447e-14 -1.76217e-13 0)
(1.44329e-14 -1.72833e-13 0)
(1.46549e-14 -1.73402e-13 0)
(1.4877e-14 -1.73108e-13 0)
(1.52101e-14 -1.73009e-13 0)
(1.52101e-14 -1.73048e-13 0)
(1.53211e-14 -1.73243e-13 0)
(1.53211e-14 -1.73354e-13 0)
(1.52101e-14 -1.7339e-13 0)
(1.5099e-14 -1.73368e-13 0)
(1.52101e-14 -1.7337e-13 0)
(1.4877e-14 -1.73379e-13 0)
(1.5099e-14 -1.73426e-13 0)
(1.4877e-14 -1.73454e-13 0)
(1.4877e-14 -1.7339e-13 0)
(1.4877e-14 -1.73398e-13 0)
(1.52101e-14 -1.73394e-13 0)
(1.5099e-14 -1.73382e-13 0)
(1.63203e-14 -2.32258e-13 0)
(1.66533e-14 -1.60209e-13 0)
(1.63203e-14 -1.76447e-13 0)
(1.46549e-14 -1.72721e-13 0)
(1.44329e-14 -1.73624e-13 0)
(1.46549e-14 -1.73464e-13 0)
(1.46549e-14 -1.73447e-13 0)
(1.4877e-14 -1.73346e-13 0)
(1.5099e-14 -1.73365e-13 0)
(1.4877e-14 -1.73319e-13 0)
(1.5099e-14 -1.73342e-13 0)
(1.5099e-14 -1.7337e-13 0)
(1.52101e-14 -1.73302e-13 0)
(1.5099e-14 -1.73275e-13 0)
(1.53211e-14 -1.73278e-13 0)
(1.52101e-14 -1.7331e-13 0)
(1.53211e-14 -1.73406e-13 0)
(1.55431e-14 -1.73506e-13 0)
(1.52101e-14 -1.73446e-13 0)
(1.52101e-14 -1.73327e-13 0)
(8.21565e-15 -6.98532e-14 0)
(1.55431e-14 -1.95447e-13 0)
(1.44329e-14 -1.67997e-13 0)
(1.53211e-14 -1.74474e-13 0)
(1.52101e-14 -1.73172e-13 0)
(1.55431e-14 -1.73357e-13 0)
(1.53211e-14 -1.73336e-13 0)
(1.53211e-14 -1.73353e-13 0)
(1.53211e-14 -1.73344e-13 0)
(1.52101e-14 -1.73298e-13 0)
(1.5099e-14 -1.73307e-13 0)
(1.46549e-14 -1.73389e-13 0)
(1.4877e-14 -1.73388e-13 0)
(1.4877e-14 -1.73381e-13 0)
(1.52101e-14 -1.73445e-13 0)
(1.53211e-14 -1.73479e-13 0)
(1.5099e-14 -1.73464e-13 0)
(1.53211e-14 -1.73365e-13 0)
(1.5099e-14 -1.73339e-13 0)
(1.5099e-14 -1.73311e-13 0)
(1.5099e-14 -2.74959e-13 0)
(1.54321e-14 -1.50661e-13 0)
(1.52101e-14 -1.78556e-13 0)
(1.54321e-14 -1.72172e-13 0)
(1.46549e-14 -1.73716e-13 0)
(1.4877e-14 -1.73398e-13 0)
(1.5099e-14 -1.73403e-13 0)
(1.5099e-14 -1.7329e-13 0)
(1.52101e-14 -1.73223e-13 0)
(1.4877e-14 -1.73227e-13 0)
(1.52101e-14 -1.73217e-13 0)
(1.55431e-14 -1.73245e-13 0)
(1.55431e-14 -1.73347e-13 0)
(1.52101e-14 -1.73406e-13 0)
(1.55431e-14 -1.73459e-13 0)
(1.53211e-14 -1.7343e-13 0)
(1.4877e-14 -1.7342e-13 0)
(1.4877e-14 -1.73316e-13 0)
(1.5099e-14 -1.7333e-13 0)
(1.52101e-14 -1.73403e-13 0)
(1.24345e-14 -7.90896e-14 0)
(1.59872e-14 -1.9376e-13 0)
(1.46549e-14 -1.68532e-13 0)
(1.44329e-14 -1.74296e-13 0)
(1.52101e-14 -1.73019e-13 0)
(1.4877e-14 -1.73478e-13 0)
(1.4877e-14 -1.73429e-13 0)
(1.4877e-14 -1.73336e-13 0)
(1.4877e-14 -1.73251e-13 0)
(1.4877e-14 -1.73361e-13 0)
(1.4877e-14 -1.73475e-13 0)
(1.52101e-14 -1.73414e-13 0)
(1.55431e-14 -1.73315e-13 0)
(1.54321e-14 -1.73295e-13 0)
(1.52101e-14 -1.73336e-13 0)
(1.52101e-14 -1.73279e-13 0)
(1.5099e-14 -1.732e-13 0)
(1.5099e-14 -1.73317e-13 0)
(1.52101e-14 -1.734e-13 0)
(1.52101e-14 -1.73387e-13 0)
(1.9984e-14 -2.05296e-13 0)
(1.22125e-14 -1.67342e-13 0)
(1.42109e-14 -1.74823e-13 0)
(1.4877e-14 -1.73157e-13 0)
(1.46549e-14 -1.73372e-13 0)
(1.46549e-14 -1.73282e-13 0)
(1.44329e-14 -1.7332e-13 0)
(1.44329e-14 -1.7327e-13 0)
(1.46549e-14 -1.7327e-13 0)
(1.4877e-14 -1.73388e-13 0)
(1.4877e-14 -1.73549e-13 0)
(1.46549e-14 -1.73639e-13 0)
(1.46549e-14 -1.73453e-13 0)
(1.4877e-14 -1.73322e-13 0)
(1.53211e-14 -1.73285e-13 0)
(1.4877e-14 -1.73344e-13 0)
(1.4877e-14 -1.73332e-13 0)
(1.52101e-14 -1.73413e-13 0)
(1.52101e-14 -1.7339e-13 0)
(1.5099e-14 -1.7328e-13 0)
(1.22125e-14 -2.52858e-13 0)
(1.73195e-14 -1.5533e-13 0)
(1.66533e-14 -1.77317e-13 0)
(1.52101e-14 -1.72292e-13 0)
(1.52101e-14 -1.73533e-13 0)
(1.52101e-14 -1.73246e-13 0)
(1.53211e-14 -1.7333e-13 0)
(1.4877e-14 -1.73387e-13 0)
(1.5099e-14 -1.73503e-13 0)
(1.54321e-14 -1.73494e-13 0)
(1.54321e-14 -1.73469e-13 0)
(1.52101e-14 -1.73543e-13 0)
(1.4877e-14 -1.73551e-13 0)
(1.5099e-14 -1.73541e-13 0)
(1.53211e-14 -1.73333e-13 0)
(1.53211e-14 -1.7326e-13 0)
(1.52101e-14 -1.73311e-13 0)
(1.5099e-14 -1.7338e-13 0)
(1.4877e-14 -1.73392e-13 0)
(1.4877e-14 -1.73359e-13 0)
(6.88338e-15 -1.30523e-14 0)
(1.63203e-14 -2.08191e-13 0)
(1.44329e-14 -1.65132e-13 0)
(1.58762e-14 -1.7503e-13 0)
(1.52101e-14 -1.72871e-13 0)
(1.56541e-14 -1.73287e-13 0)
(1.55431e-14 -1.73211e-13 0)
(1.55431e-14 -1.73374e-13 0)
(1.54321e-14 -1.73497e-13 0)
(1.53211e-14 -1.73445e-13 0)
(1.55431e-14 -1.7341e-13 0)
(1.5099e-14 -1.73494e-13 0)
(1.52101e-14 -1.73623e-13 0)
(1.53211e-14 -1.7352e-13 0)
(1.5099e-14 -1.73302e-13 0)
(1.4877e-14 -1.73237e-13 0)
(1.52101e-14 -1.73175e-13 0)
(1.5099e-14 -1.73194e-13 0)
(1.52101e-14 -1.73317e-13 0)
(1.53211e-14 -1.73379e-13 0)
(4.21885e-14 -2.8223e-13 0)
(8.65974e-15 -1.49714e-13 0)
(1.58762e-14 -1.78982e-13 0)
(1.53211e-14 -1.72105e-13 0)
(1.53211e-14 -1.73554e-13 0)
(1.53211e-14 -1.73234e-13 0)
(1.53211e-14 -1.7331e-13 0)
(1.54321e-14 -1.73385e-13 0)
(1.52101e-14 -1.73437e-13 0)
(1.52101e-14 -1.73455e-13 0)
(1.53211e-14 -1.73397e-13 0)
(1.53211e-14 -1.73341e-13 0)
(1.5099e-14 -1.73416e-13 0)
(1.4877e-14 -1.73314e-13 0)
(1.4877e-14 -1.73261e-13 0)
(1.4877e-14 -1.73301e-13 0)
(1.4877e-14 -1.73402e-13 0)
(1.5099e-14 -1.73335e-13 0)
(1.5099e-14 -1.73274e-13 0)
(1.5099e-14 -1.73323e-13 0)
(-1.33227e-14 -1.99494e-13 0)
(2.30926e-14 -1.67232e-13 0)
(1.5099e-14 -1.7472e-13 0)
(1.58762e-14 -1.72927e-13 0)
(1.54321e-14 -1.73268e-13 0)
(1.55431e-14 -1.73218e-13 0)
(1.55431e-14 -1.73351e-13 0)
(1.54321e-14 -1.73414e-13 0)
(1.55431e-14 -1.73425e-13 0)
(1.54321e-14 -1.73382e-13 0)
(1.5099e-14 -1.73234e-13 0)
(1.5099e-14 -1.73196e-13 0)
(1.5099e-14 -1.73268e-13 0)
(1.5099e-14 -1.73293e-13 0)
(1.52101e-14 -1.73354e-13 0)
(1.52101e-14 -1.73311e-13 0)
(1.5099e-14 -1.73458e-13 0)
(1.52101e-14 -1.7338e-13 0)
(1.5099e-14 -1.73256e-13 0)
(1.52101e-14 -1.73357e-13 0)
(5.55112e-15 -5.0387e-14 0)
(1.58762e-14 -2.00333e-13 0)
(1.35447e-14 -1.67037e-13 0)
(1.46549e-14 -1.74733e-13 0)
(1.42109e-14 -1.72934e-13 0)
(1.46549e-14 -1.7331e-13 0)
(1.46549e-14 -1.73324e-13 0)
(1.46549e-14 -1.73351e-13 0)
(1.46549e-14 -1.73358e-13 0)
(1.44329e-14 -1.7326e-13 0)
(1.46549e-14 -1.73197e-13 0)
(1.4877e-14 -1.73288e-13 0)
(1.5099e-14 -1.73301e-13 0)
(1.5099e-14 -1.73321e-13 0)
(1.5099e-14 -1.7334e-13 0)
(1.5099e-14 -1.73332e-13 0)
(1.5099e-14 -1.7331e-13 0)
(1.46549e-14 -1.73321e-13 0)
(1.5099e-14 -1.73329e-13 0)
(1.52101e-14 -1.73342e-13 0)
(4.94049e-14 -2.2273e-13 0)
(6.43929e-15 -1.63435e-13 0)
(1.58762e-14 -1.75962e-13 0)
(1.46549e-14 -1.72856e-13 0)
(1.44329e-14 -1.73324e-13 0)
(1.44329e-14 -1.73265e-13 0)
(1.46549e-14 -1.73349e-13 0)
(1.44329e-14 -1.73444e-13 0)
(1.46549e-14 -1.73424e-13 0)
(1.46549e-14 -1.7335e-13 0)
(1.46549e-14 -1.73401e-13 0)
(1.52101e-14 -1.73368e-13 0)
(1.4877e-14 -1.73243e-13 0)
(1.46549e-14 -1.73358e-13 0)
(1.46549e-14 -1.73443e-13 0)
(1.4877e-14 -1.73459e-13 0)
(1.5099e-14 -1.73305e-13 0)
(1.4877e-14 -1.73324e-13 0)
(1.5099e-14 -1.73482e-13 0)
(1.5099e-14 -1.73404e-13 0)
(0 -2.60745e-13 0)
(1.9873e-14 -1.54515e-13 0)
(1.55431e-14 -1.77948e-13 0)
(1.57652e-14 -1.72269e-13 0)
(1.56541e-14 -1.73424e-13 0)
(1.57652e-14 -1.73267e-13 0)
(1.58762e-14 -1.73373e-13 0)
(1.57652e-14 -1.73458e-13 0)
(1.56541e-14 -1.7341e-13 0)
(1.55431e-14 -1.73385e-13 0)
(1.55431e-14 -1.73425e-13 0)
(1.54321e-14 -1.73364e-13 0)
(1.55431e-14 -1.73288e-13 0)
(1.55431e-14 -1.73367e-13 0)
(1.54321e-14 -1.73472e-13 0)
(1.52101e-14 -1.73478e-13 0)
(1.52101e-14 -1.73368e-13 0)
(1.5099e-14 -1.73313e-13 0)
(1.53211e-14 -1.73413e-13 0)
(1.52101e-14 -1.73405e-13 0)
)
;

boundaryField
{
    movingWall
    {
        type            calculated;
        value           uniform (1.5099e-14 -1.73339e-13 0);
    }
    fixedWalls
    {
        type            calculated;
        value           uniform (1.5099e-14 -1.73339e-13 0);
    }
    frontAndBack
    {
        type            empty;
    }
}


// ************************************************************************* //
