/*--------------------------------*- C++ -*----------------------------------*\
| =========                 |                                                 |
| \\      /  F ield         | OpenFOAM: The Open Source CFD Toolbox           |
|  \\    /   O peration     | Version:  2312                                  |
|   \\  /    A nd           | Website:  www.openfoam.com                      |
|    \\/     M anipulation  |                                                 |
\*---------------------------------------------------------------------------*/
FoamFile
{
    version     2.0;
    format      ascii;
    arch        "LSB;label=32;scalar=64";
    class       volScalarField;
    location    "6.875";
    object      divU;
}
// * * * * * * * * * * * * * * * * * * * * * * * * * * * * * * * * * * * * * //

dimensions      [0 0 -1 0 0 0 0];

internalField   nonuniform List<scalar> 
400
(
1.6263e-11
-2.17359e-12
4.47675e-13
-1.86164e-13
4.40794e-14
-3.30308e-14
5.94986e-15
6.40901e-15
-4.44574e-15
2.72884e-14
-8.93415e-15
2.09556e-14
-3.24871e-14
8.12461e-15
3.1732e-15
9.84581e-15
1.46341e-14
-2.37618e-15
7.99305e-15
-2.71051e-14
-2.96529e-11
3.93868e-12
-7.98716e-13
3.37598e-13
-5.38954e-14
-5.47065e-16
2.46899e-14
2.45481e-15
-3.80758e-14
-2.22746e-14
-2.68712e-14
-6.92763e-15
2.42566e-14
1.98688e-14
5.81857e-15
2.98511e-15
-1.81534e-14
-5.97537e-15
5.41453e-14
-2.71051e-14
1.25225e-11
-2.05534e-12
3.87538e-13
-2.05466e-13
-4.10714e-14
-1.95536e-14
3.32582e-14
8.56301e-15
-3.21473e-14
4.57295e-14
2.59325e-14
-3.58299e-16
-3.25866e-14
-8.06034e-15
3.32658e-15
1.93882e-14
-8.03979e-15
2.62902e-14
-7.90844e-15
0
9.29703e-12
-3.14092e-13
8.32864e-14
-3.59728e-15
2.05702e-14
1.44984e-14
1.46025e-14
-8.97377e-15
1.36251e-14
-3.58571e-14
-5.20815e-15
4.51807e-14
-1.07885e-14
-3.42047e-14
2.30999e-14
-3.17527e-14
-2.79703e-14
1.62105e-14
-1.78532e-14
0
-1.97054e-11
2.11169e-12
-3.29031e-13
1.81479e-13
-6.2483e-14
3.16244e-15
-4.20097e-14
-2.91726e-15
-5.53899e-14
6.80612e-15
8.296e-15
5.98486e-15
-2.98554e-14
2.42082e-14
1.40468e-14
-1.26789e-15
-1.62927e-14
-7.15211e-15
6.5836e-15
0
1.63715e-11
-2.31852e-12
4.75822e-13
-2.23955e-13
5.47369e-14
5.77498e-15
2.0056e-14
4.59348e-14
2.77125e-14
-5.27599e-14
4.0833e-14
8.51651e-15
-6.66029e-15
-1.83616e-14
-4.45992e-14
-7.7269e-15
8.78556e-15
-1.89677e-14
2.28189e-15
0
2.87314e-12
-4.9159e-13
7.31028e-14
-5.01832e-14
-8.82196e-15
4.10921e-15
-3.8996e-14
-7.95187e-14
4.5433e-14
-2.67833e-14
2.04025e-14
4.83829e-15
2.72277e-14
-7.24339e-15
8.0727e-15
7.81564e-15
5.2127e-14
2.27276e-14
-3.14077e-14
0
-1.94343e-11
3.19388e-12
-5.71475e-13
2.75044e-13
-3.47662e-14
6.48537e-14
-4.83283e-15
1.2948e-15
7.0162e-15
5.13235e-16
-5.96456e-14
2.11247e-14
-2.64454e-14
2.42646e-15
2.45518e-14
-3.56332e-14
-1.18557e-14
3.1629e-14
-1.6111e-14
0
1.63443e-11
-3.36437e-12
6.02889e-13
-3.2277e-13
1.54029e-14
-1.42316e-14
-3.7507e-14
-2.05884e-15
-3.09107e-15
6.13524e-15
5.71363e-14
1.89578e-14
-1.13256e-15
2.17655e-15
2.25987e-14
-3.81574e-14
7.89999e-15
7.89917e-15
-1.06773e-14
-2.71051e-14
-4.87891e-12
1.52069e-12
-2.04275e-13
1.38724e-13
6.12504e-15
1.93963e-14
-6.03154e-15
3.53389e-15
1.10578e-14
-1.18411e-14
-6.5914e-14
-2.27695e-14
2.1426e-14
4.32713e-14
3.16021e-14
-5.01893e-14
6.49142e-15
2.68594e-14
-2.62422e-14
0
-8.67362e-13
1.71544e-13
-4.09053e-14
-3.32237e-14
-5.99065e-14
7.28909e-15
3.88029e-14
5.19546e-15
2.03944e-14
-1.81341e-14
2.56794e-14
2.89991e-14
-2.55108e-14
-2.24515e-15
1.53798e-14
-3.01379e-14
-2.1371e-14
5.86939e-14
-5.20098e-15
0
6.77626e-12
-1.41531e-12
2.51028e-13
-7.74779e-14
8.29576e-14
-3.52323e-14
1.99955e-14
7.23044e-15
-1.14056e-14
-7.06325e-15
1.9623e-14
1.67424e-14
-8.99766e-15
6.1507e-15
-2.14452e-14
5.59029e-15
-1.25266e-14
-5.25368e-15
1.59279e-14
-2.71051e-14
-1.71846e-11
3.29508e-12
-6.00388e-13
2.04233e-13
-4.97894e-14
1.50252e-14
-5.13814e-14
2.15193e-15
1.75886e-14
6.70188e-15
-3.3937e-14
-2.32284e-14
-5.48233e-15
3.56962e-14
5.96114e-15
-4.67674e-14
3.06213e-14
1.5627e-14
-3.75072e-14
0
1.91362e-11
-3.63577e-12
7.75257e-13
-3.62607e-13
5.45204e-14
-1.26084e-14
-1.34062e-14
-8.32658e-15
2.20342e-14
9.69284e-16
7.04797e-15
-3.57879e-14
-2.24655e-14
1.59355e-14
3.13724e-14
-9.02698e-15
1.91879e-14
-7.08356e-14
-3.08737e-15
5.42101e-14
-3.63208e-12
1.31686e-12
-2.31555e-13
8.97836e-14
-2.8922e-14
4.28084e-14
-3.85053e-14
-8.15666e-15
-2.55542e-14
4.86601e-15
1.41917e-14
-4.27592e-14
7.23016e-14
-1.55337e-14
-1.55692e-14
-1.31264e-14
-1.70298e-14
4.20608e-14
3.58447e-14
-5.42101e-14
-1.65883e-11
1.45536e-12
-2.68725e-13
1.64605e-13
-4.15164e-14
-4.5589e-15
-2.5419e-14
-1.20864e-14
-1.8327e-14
1.11775e-14
3.1773e-14
1.41027e-14
-6.46656e-16
-1.99424e-14
6.40231e-15
-2.04497e-14
3.59995e-14
-3.08116e-14
1.48726e-14
0
2.11419e-11
-2.25135e-12
4.65076e-13
-2.0662e-13
4.76833e-14
-1.21492e-14
3.11793e-16
-8.68738e-15
-1.04844e-14
3.07495e-14
-2.95637e-14
-7.63652e-15
1.09384e-14
6.40206e-15
2.55566e-14
-2.35754e-14
1.80939e-14
-2.32994e-15
9.33101e-15
-2.71051e-14
-3.2255e-12
1.19121e-12
-2.55501e-13
9.85942e-14
-1.21038e-14
3.74362e-14
5.79307e-16
-1.17634e-14
-1.04197e-14
-4.74088e-14
3.51162e-14
5.65002e-14
1.34791e-14
-1.09809e-16
-1.05087e-14
-1.13303e-14
-4.79216e-14
3.26737e-15
6.80412e-14
-2.71051e-14
-1.84585e-11
1.21943e-12
-2.62481e-13
4.68719e-14
-6.11723e-14
6.8816e-14
-5.85599e-14
3.17737e-14
-1.56029e-14
-5.71157e-15
1.23733e-14
4.88446e-14
-3.94206e-14
-3.17427e-14
3.43809e-15
2.83322e-14
4.93278e-16
4.09551e-15
-2.16488e-14
0
1.26581e-11
-1.32815e-12
3.25261e-13
-1.6263e-13
2.71051e-14
-2.71051e-14
0
0
0
0
2.71051e-14
-2.71051e-14
0
0
0
0
-2.71051e-14
2.71051e-14
2.71051e-14
-2.71051e-14
)
;

boundaryField
{
    movingWall
    {
        type            extrapolatedCalculated;
        value           nonuniform List<scalar> 
20
(
1.26581e-11
-1.32815e-12
3.25261e-13
-1.6263e-13
2.71051e-14
-2.71051e-14
0
0
0
0
2.71051e-14
-2.71051e-14
0
0
0
0
-2.71051e-14
2.71051e-14
2.71051e-14
-2.71051e-14
)
;
    }
    fixedWalls
    {
        type            extrapolatedCalculated;
        value           nonuniform List<scalar> 
60
(
1.6263e-11
-2.96529e-11
1.25225e-11
9.29703e-12
-1.97054e-11
1.63715e-11
2.87314e-12
-1.94343e-11
1.63443e-11
-4.87891e-12
-8.67362e-13
6.77626e-12
-1.71846e-11
1.91362e-11
-3.63208e-12
-1.65883e-11
2.11419e-11
-3.2255e-12
-1.84585e-11
1.26581e-11
-2.71051e-14
-2.71051e-14
0
0
0
0
0
0
-2.71051e-14
0
0
-2.71051e-14
0
5.42101e-14
-5.42101e-14
0
-2.71051e-14
-2.71051e-14
0
-2.71051e-14
1.6263e-11
-2.17359e-12
4.47675e-13
-1.86164e-13
4.40794e-14
-3.30308e-14
5.94986e-15
6.40901e-15
-4.44574e-15
2.72884e-14
-8.93415e-15
2.09556e-14
-3.24871e-14
8.12461e-15
3.1732e-15
9.84581e-15
1.46341e-14
-2.37618e-15
7.99305e-15
-2.71051e-14
)
;
    }
    frontAndBack
    {
        type            empty;
    }
}


// ************************************************************************* //
