/*--------------------------------*- C++ -*----------------------------------*\
| =========                 |                                                 |
| \\      /  F ield         | OpenFOAM: The Open Source CFD Toolbox           |
|  \\    /   O peration     | Version:  2312                                  |
|   \\  /    A nd           | Website:  www.openfoam.com                      |
|    \\/     M anipulation  |                                                 |
\*---------------------------------------------------------------------------*/
FoamFile
{
    version     2.0;
    format      ascii;
    arch        "LSB;label=32;scalar=64";
    class       volScalarField;
    location    "6.875";
    object      epsilonzeroGrad;
}
// * * * * * * * * * * * * * * * * * * * * * * * * * * * * * * * * * * * * * //

dimensions      [0 2 -3 0 0 0 0];

internalField   nonuniform List<scalar> 
400
(
2.39978e-06
2.39978e-06
2.39978e-06
2.39977e-06
2.39977e-06
2.39977e-06
2.39977e-06
2.39976e-06
2.39977e-06
2.39976e-06
2.39977e-06
2.39976e-06
2.39977e-06
2.39976e-06
2.39976e-06
2.39976e-06
2.39976e-06
2.39976e-06
2.39976e-06
2.39976e-06
2.52066e-06
2.48316e-06
2.48631e-06
2.48759e-06
2.4902e-06
2.49154e-06
2.49415e-06
2.49553e-06
2.49815e-06
2.49956e-06
2.50219e-06
2.50364e-06
2.50628e-06
2.50777e-06
2.51042e-06
2.51194e-06
2.5146e-06
2.51617e-06
2.51751e-06
2.51963e-06
2.70398e-06
2.66213e-06
2.66571e-06
2.66716e-06
2.6701e-06
2.6716e-06
2.67455e-06
2.67607e-06
2.67902e-06
2.68059e-06
2.68354e-06
2.68513e-06
2.68809e-06
2.68971e-06
2.69267e-06
2.69432e-06
2.69729e-06
2.69898e-06
2.70046e-06
2.7028e-06
2.88541e-06
2.83975e-06
2.84365e-06
2.84523e-06
2.84844e-06
2.85007e-06
2.85329e-06
2.85495e-06
2.85817e-06
2.85987e-06
2.86309e-06
2.86482e-06
2.86805e-06
2.86982e-06
2.87305e-06
2.87485e-06
2.87809e-06
2.87993e-06
2.88155e-06
2.88409e-06
3.0281e-06
2.97934e-06
2.9835e-06
2.98519e-06
2.98861e-06
2.99035e-06
2.99378e-06
2.99556e-06
2.99899e-06
3.00081e-06
3.00424e-06
3.0061e-06
3.00954e-06
3.01143e-06
3.01488e-06
3.0168e-06
3.02025e-06
3.02222e-06
3.02395e-06
3.02667e-06
3.12549e-06
3.07458e-06
3.07892e-06
3.08068e-06
3.08426e-06
3.08608e-06
3.08965e-06
3.09151e-06
3.09509e-06
3.09699e-06
3.10057e-06
3.10251e-06
3.1061e-06
3.10807e-06
3.11168e-06
3.11368e-06
3.11729e-06
3.11934e-06
3.12115e-06
3.12399e-06
3.18682e-06
3.13454e-06
3.13899e-06
3.1408e-06
3.14447e-06
3.14633e-06
3.15001e-06
3.15191e-06
3.15559e-06
3.15754e-06
3.16122e-06
3.16321e-06
3.1669e-06
3.16892e-06
3.17262e-06
3.17468e-06
3.17838e-06
3.18049e-06
3.18234e-06
3.18526e-06
3.22453e-06
3.17141e-06
3.17593e-06
3.17777e-06
3.1815e-06
3.18339e-06
3.18712e-06
3.18906e-06
3.19279e-06
3.19477e-06
3.19851e-06
3.20053e-06
3.20428e-06
3.20634e-06
3.21009e-06
3.21219e-06
3.21595e-06
3.2181e-06
3.21998e-06
3.22294e-06
3.24869e-06
3.19502e-06
3.19959e-06
3.20145e-06
3.20521e-06
3.20713e-06
3.21089e-06
3.21285e-06
3.21662e-06
3.21862e-06
3.2224e-06
3.22444e-06
3.22823e-06
3.2303e-06
3.2341e-06
3.23622e-06
3.24002e-06
3.24218e-06
3.24409e-06
3.24708e-06
3.2659e-06
3.21185e-06
3.21645e-06
3.21832e-06
3.22211e-06
3.22404e-06
3.22783e-06
3.2298e-06
3.2336e-06
3.23562e-06
3.23942e-06
3.24148e-06
3.24529e-06
3.24738e-06
3.2512e-06
3.25334e-06
3.25716e-06
3.25935e-06
3.26126e-06
3.26427e-06
3.28007e-06
3.2257e-06
3.23033e-06
3.23221e-06
3.23602e-06
3.23796e-06
3.24178e-06
3.24376e-06
3.24758e-06
3.24961e-06
3.25343e-06
3.2555e-06
3.25934e-06
3.26144e-06
3.26528e-06
3.26743e-06
3.27128e-06
3.27347e-06
3.2754e-06
3.27843e-06
3.2934e-06
3.23873e-06
3.24339e-06
3.24528e-06
3.24911e-06
3.25106e-06
3.2549e-06
3.25689e-06
3.26073e-06
3.26277e-06
3.26662e-06
3.26869e-06
3.27255e-06
3.27467e-06
3.27853e-06
3.28069e-06
3.28456e-06
3.28677e-06
3.2887e-06
3.29175e-06
3.30716e-06
3.25218e-06
3.25686e-06
3.25876e-06
3.26262e-06
3.26457e-06
3.26843e-06
3.27044e-06
3.2743e-06
3.27635e-06
3.28022e-06
3.28231e-06
3.28618e-06
3.28831e-06
3.2922e-06
3.29437e-06
3.29826e-06
3.30048e-06
3.30243e-06
3.30549e-06
3.32209e-06
3.26678e-06
3.27149e-06
3.2734e-06
3.27728e-06
3.27925e-06
3.28313e-06
3.28515e-06
3.28903e-06
3.2911e-06
3.29499e-06
3.29709e-06
3.30099e-06
3.30313e-06
3.30704e-06
3.30922e-06
3.31314e-06
3.31537e-06
3.31733e-06
3.32041e-06
3.33863e-06
3.28296e-06
3.28769e-06
3.28961e-06
3.29352e-06
3.2955e-06
3.29941e-06
3.30144e-06
3.30535e-06
3.30742e-06
3.31134e-06
3.31346e-06
3.31738e-06
3.31954e-06
3.32348e-06
3.32567e-06
3.32961e-06
3.33186e-06
3.33383e-06
3.33694e-06
3.35678e-06
3.3007e-06
3.30547e-06
3.30741e-06
3.31134e-06
3.31334e-06
3.31727e-06
3.31932e-06
3.32325e-06
3.32534e-06
3.32929e-06
3.33142e-06
3.33538e-06
3.33755e-06
3.34151e-06
3.34372e-06
3.34769e-06
3.34996e-06
3.35194e-06
3.35507e-06
3.37584e-06
3.31934e-06
3.32415e-06
3.3261e-06
3.33006e-06
3.33207e-06
3.33604e-06
3.3381e-06
3.34207e-06
3.34417e-06
3.34815e-06
3.35029e-06
3.35428e-06
3.35647e-06
3.36046e-06
3.36269e-06
3.36669e-06
3.36897e-06
3.37097e-06
3.37412e-06
3.39413e-06
3.33724e-06
3.34208e-06
3.34404e-06
3.34803e-06
3.35005e-06
3.35404e-06
3.35612e-06
3.36011e-06
3.36223e-06
3.36623e-06
3.3684e-06
3.37241e-06
3.37461e-06
3.37863e-06
3.38088e-06
3.3849e-06
3.38721e-06
3.38922e-06
3.39239e-06
3.4089e-06
3.35281e-06
3.35749e-06
3.35939e-06
3.36328e-06
3.36526e-06
3.36915e-06
3.37119e-06
3.3751e-06
3.3772e-06
3.38113e-06
3.38329e-06
3.38724e-06
3.38945e-06
3.39342e-06
3.39569e-06
3.39968e-06
3.40202e-06
3.40402e-06
3.4072e-06
3.41563e-06
3.41562e-06
3.41562e-06
3.41562e-06
3.41561e-06
3.41561e-06
3.41561e-06
3.41561e-06
3.4156e-06
3.4156e-06
3.4156e-06
3.4156e-06
3.4156e-06
3.4156e-06
3.4156e-06
3.4156e-06
3.4156e-06
3.4156e-06
3.4156e-06
3.4156e-06
)
;

boundaryField
{
    movingWall
    {
        type            zeroGradient;
    }
    fixedWalls
    {
        type            zeroGradient;
    }
    frontAndBack
    {
        type            empty;
    }
}


// ************************************************************************* //
