/*--------------------------------*- C++ -*----------------------------------*\
| =========                 |                                                 |
| \\      /  F ield         | OpenFOAM: The Open Source CFD Toolbox           |
|  \\    /   O peration     | Version:  2312                                  |
|   \\  /    A nd           | Website:  www.openfoam.com                      |
|    \\/     M anipulation  |                                                 |
\*---------------------------------------------------------------------------*/
FoamFile
{
    version     2.0;
    format      ascii;
    arch        "LSB;label=32;scalar=64";
    class       volScalarField;
    location    "6.875";
    object      flowTypeField;
}
// * * * * * * * * * * * * * * * * * * * * * * * * * * * * * * * * * * * * * //

dimensions      [0 0 0 0 0 0 0];

internalField   nonuniform List<scalar> 
400
(
0.403553
0.0584168
0.0354342
0.0544271
0.333709
0.115075
0.244228
-0.194199
-0.0555508
0.356902
0.588955
0.683435
0.68501
0.210148
0.250793
-0.0694782
0.04091
0.0886939
0.17137
0.902894
0.965514
0.963005
0.95788
0.88752
0.222018
-0.151351
-0.0190369
0.0480605
0.496555
0.00722908
-0.0972117
-0.157044
0.858197
-0.106042
0.0230428
0.126575
0.360286
-0.806038
0.909625
0.110837
0.609471
0.12738
0.0537725
0.213254
-0.230907
0.705296
0.469922
0.0801348
-0.14091
0.641795
0.203373
0.189839
0.207708
-0.395645
-0.19048
0.0615942
0.162516
-0.0535213
0.780811
0.354011
0.510616
0.113828
0.0649229
0.0467623
0.44516
-0.545933
0.0389411
0.148621
0.831368
0.590474
-0.789199
0.568134
0.50253
0.427108
0.0562253
0.646981
0.146402
-0.105648
0.402918
0.553835
0.78055
0.454501
0.404459
0.405201
0.958572
0.509287
0.949299
0.213995
0.314051
0.0150793
-0.327773
-0.0656292
0.573705
0.704515
0.0235359
-0.197863
-0.0900008
0.0219906
0.537392
0.0340035
0.732692
0.173061
0.154232
0.0589273
0.373668
0.0472262
0.232571
-0.0599136
-0.313783
0.552093
0.282928
0.934285
0.526652
0.849594
-0.113597
0.0971379
0.0404098
0.545753
0.0879535
0.231959
0.205665
0.0688805
-0.0833352
0.16523
-0.503174
0.79709
0.875557
0.519239
0.247539
0.263946
0.223862
-0.057108
0.562781
0.319575
0.0445548
-0.0733178
0.774655
0.334476
0.175032
0.214506
0.708702
0.206356
0.223163
0.112738
0.526124
0.121149
0.0105568
-0.426719
-0.259152
-0.267921
0.144393
0.142777
0.238213
-0.0828513
-0.0678259
0.311323
0.113424
0.506746
0.763768
0.0748985
0.775624
0.213442
0.0990446
0.416389
-0.641949
0.368925
0.589631
0.737869
0.633881
0.502719
0.577895
0.0402758
-0.338113
0.00427792
0.807651
0.013834
-0.0707712
-0.13198
0.403471
0.49658
0.0976374
0.0199698
-0.0461353
-0.0833575
0.0306786
-0.497164
0.00612695
-0.0102098
0.552178
0.805117
0.845338
0.00147795
0.285048
0.850656
0.378759
0.251518
-0.407742
-0.145079
0.180197
0.128348
-0.0473784
0.00577425
0.000308647
-0.212991
0.159619
-0.264215
0.34933
-0.637104
-0.145774
-0.00401276
0.940064
-0.0862196
-0.120256
-0.185299
0.680298
0.89482
0.754781
0.16922
-0.268913
0.221079
0.293079
0.0494099
-0.020096
0.0821999
0.196648
0.754294
-0.165351
-0.217008
0.0316872
0.170034
0.37218
0.0307687
-0.134439
0.113293
0.904898
-0.227356
0.799191
-0.330782
0.683369
0.585555
0.811651
0.365885
0.275412
0.698526
0.698848
0.347366
0.517241
0.248981
0.372205
-0.227772
-0.242135
0.347526
-0.212112
0.314792
0.00718627
0.870416
0.823787
0.722281
0.00390868
0.0103354
0.706396
0.162278
0.116102
0.320765
-0.417285
0.186217
-0.0859749
-0.152346
0.0365443
0.140642
-0.042859
0.188107
0.0464776
0.838537
-0.176781
0.86948
-0.181753
0.863349
0.607553
0.355036
0.256905
0.0605197
-0.023056
-0.0288403
0.163533
0.113608
0.618621
-0.520035
0.679575
0.0788778
0.196711
0.255104
0.919858
-0.0802023
-0.162096
-0.226744
-0.0905413
0.477329
0.41474
0.521134
0.629387
0.149452
0.0797301
0.0259079
0.0548671
-0.659054
0.236793
0.460357
0.68326
0.381981
0.110699
0.912298
0.897577
0.679163
0.60519
-0.242931
0.910203
0.378654
0.668148
0.0305744
0.904109
0.668846
0.756017
0.394186
0.355994
0.159161
0.355598
0.134653
0.060011
-0.15215
0.0150903
0.135877
0.31031
0.00363842
0.884487
0.0551614
0.336676
-0.367933
0.859005
0.691046
0.664824
0.14626
0.044698
0.23546
-0.565752
0.5389
0.0502725
0.0431092
-0.111756
0.281123
0.550214
0.829835
0.0625841
0.0780217
0.0323857
-0.0192462
0.955832
0.544574
0.954941
0.283428
0.800814
0.376799
0.296817
0.573966
-0.19984
0.134537
-0.0439359
0.0943063
0.0870735
0.0390757
0.0613844
0.457478
0.165572
-0.176562
-0.0239339
0.43819
0.492502
-0.321361
-0.212365
0.749076
0.621941
0.110794
0.142079
-0.000892326
0.0362239
0.580783
0.348795
0.838559
0.166302
0.6111
0.771798
-0.09285
0.309336
0.0287626
0.634332
0.663642
-0.0448902
0.768992
0.442476
0.0397784
)
;

boundaryField
{
    movingWall
    {
        type            calculated;
        value           nonuniform List<scalar> 
20
(
0.586399
0.105761
0.348523
-0.0632833
0.455334
-0.0132577
0.0620452
0.0336909
-0.0167229
0.0132572
0.0066193
-0.0751959
0.0190553
0.104835
0.154829
0.259742
-0.0950236
0.780339
0.143507
0.0254244
)
;
    }
    fixedWalls
    {
        type            calculated;
        value           nonuniform List<scalar> 
60
(
0.0514443
0.96582
0.112416
0.0972405
0.443046
0.171028
0.0372567
0.221021
0.214094
0.00419548
-0.0104054
0.0294068
0.371719
0.168513
0.0490674
0.138269
0.70498
0.131581
0.362358
0.124804
0.72775
0.708736
0.00641626
0.363489
0.806766
0.010914
0.0114947
0.0274751
0.351103
0.413787
0.945109
0.553082
0.288154
0.502862
0.835806
0.046851
0.779518
0.410009
0.931893
0.100597
0.667136
0.1709
0.301375
0.0830907
0.806885
-0.299903
0.0485276
-0.0487463
0.150311
0.123606
0.172235
0.04868
0.0719227
0.124681
0.395786
-0.0475882
-0.00315447
0.0809385
0.0777057
0.170518
)
;
    }
    frontAndBack
    {
        type            empty;
    }
}


// ************************************************************************* //
