/*--------------------------------*- C++ -*----------------------------------*\
| =========                 |                                                 |
| \\      /  F ield         | OpenFOAM: The Open Source CFD Toolbox           |
|  \\    /   O peration     | Version:  2312                                  |
|   \\  /    A nd           | Website:  www.openfoam.com                      |
|    \\/     M anipulation  |                                                 |
\*---------------------------------------------------------------------------*/
FoamFile
{
    version     2.0;
    format      ascii;
    arch        "LSB;label=32;scalar=64";
    class       volTensorField;
    location    "6.875";
    object      gradU;
}
// * * * * * * * * * * * * * * * * * * * * * * * * * * * * * * * * * * * * * //

dimensions      [0 0 -1 0 0 0 0];

internalField   nonuniform List<tensor> 
400
(
(-1.0571e-12 1.35981e-11 0 1.38236e-12 1.73168e-11 0 0 0 0)
(1.57209e-12 -1.64441e-11 0 -5.14996e-13 -3.74568e-12 0 0 0 0)
(-4.33681e-13 3.55873e-12 0 0 8.81356e-13 0 0 0 0)
(0 -8.37701e-13 0 -2.71051e-14 -1.86164e-13 0 0 0 0)
(0 1.70222e-13 0 5.42101e-14 4.40794e-14 0 0 0 0)
(-2.71051e-14 -5.07855e-14 0 0 -5.92573e-15 0 0 0 0)
(0 6.39933e-15 0 2.71051e-14 5.94986e-15 0 0 0 0)
(0 -6.54086e-15 0 2.71051e-14 6.40901e-15 0 0 0 0)
(0 3.25464e-15 0 -5.42101e-14 -4.44574e-15 0 0 0 0)
(2.71051e-14 2.01539e-14 0 0 1.83345e-16 0 0 0 0)
(-2.71051e-14 1.1798e-14 0 0 1.81709e-14 0 0 0 0)
(0 -5.08004e-15 0 0 2.09556e-14 0 0 0 0)
(-5.42101e-14 -1.5121e-14 0 0 2.1723e-14 0 0 0 0)
(0 -1.11449e-14 0 -5.42101e-14 8.12461e-15 0 0 0 0)
(0 2.92503e-15 0 0 3.1732e-15 0 0 0 0)
(0 4.84555e-15 0 -5.42101e-14 9.84581e-15 0 0 0 0)
(0 -2.47868e-15 0 2.71051e-14 1.46341e-14 0 0 0 0)
(0 -7.24583e-15 0 -8.13152e-14 -2.37618e-15 0 0 0 0)
(2.71051e-14 2.40748e-15 0 5.42101e-14 -1.9112e-14 0 0 0 0)
(-2.71051e-14 1.2979e-15 0 0 -2.96589e-15 0 0 0 0)
(1.97867e-12 -2.70515e-14 0 7.58942e-13 -3.16383e-11 0 0 0 0)
(-2.92735e-12 8.65959e-15 0 -1.89735e-13 6.87122e-12 0 0 0 0)
(8.40257e-13 7.89885e-16 0 -5.42101e-14 -1.62586e-12 0 0 0 0)
(0 4.24833e-16 0 -2.71051e-14 3.34027e-13 0 0 0 0)
(5.42101e-14 1.0016e-14 0 -1.0842e-13 -9.79748e-14 0 0 0 0)
(0 1.26559e-14 0 -8.13152e-14 5.37866e-15 0 0 0 0)
(2.71051e-14 5.93541e-15 0 -1.0842e-13 -8.36498e-15 0 0 0 0)
(0 -3.85475e-15 0 -8.13152e-14 -3.9542e-15 0 0 0 0)
(-2.71051e-14 -9.4803e-15 0 -2.71051e-14 -6.52502e-15 0 0 0 0)
(0 2.46279e-15 0 -8.13152e-14 -2.2458e-14 0 0 0 0)
(0 8.97421e-15 0 -5.42101e-14 -1.7937e-14 0 0 0 0)
(0 8.63212e-15 0 -5.42101e-14 -7.78137e-16 0 0 0 0)
(2.71051e-14 2.29002e-15 0 0 2.53367e-15 0 0 0 0)
(0 -7.4049e-15 0 5.42101e-14 1.17442e-14 0 0 0 0)
(0 -1.20383e-15 0 -5.42101e-14 2.64537e-15 0 0 0 0)
(0 6.61531e-15 0 5.42101e-14 -6.8607e-15 0 0 0 0)
(0 -9.74331e-15 0 -2.71051e-14 -5.68239e-15 0 0 0 0)
(0 -2.65002e-14 0 2.71051e-14 -3.59919e-15 0 0 0 0)
(5.42101e-14 -2.9972e-15 0 0 -8.05782e-15 0 0 0 0)
(0 2.078e-14 0 0 -1.121e-14 0 0 0 0)
(-4.33681e-13 -1.1169e-11 0 -5.20417e-12 1.29605e-11 0 0 0 0)
(7.31836e-13 1.35684e-11 0 1.49078e-12 -2.79563e-12 0 0 0 0)
(-2.71051e-13 -2.97846e-12 0 -8.13152e-14 6.71258e-13 0 0 0 0)
(-8.13152e-14 6.90185e-13 0 1.35525e-13 -1.36488e-13 0 0 0 0)
(-8.13152e-14 -1.58426e-13 0 8.13152e-14 3.99291e-14 0 0 0 0)
(0 3.88244e-14 0 2.71051e-14 -1.90065e-14 0 0 0 0)
(5.42101e-14 -2.93353e-15 0 2.71051e-14 -1.85368e-14 0 0 0 0)
(2.71051e-14 -4.7009e-15 0 5.42101e-14 -2.09969e-14 0 0 0 0)
(0 -1.52492e-14 0 8.13152e-14 -2.11765e-14 0 0 0 0)
(5.42101e-14 8.74185e-15 0 2.71051e-14 -1.3311e-14 0 0 0 0)
(2.71051e-14 3.34779e-14 0 0 -1.40646e-15 0 0 0 0)
(0 1.53907e-14 0 8.13152e-14 6.56933e-15 0 0 0 0)
(-2.71051e-14 -2.5986e-15 0 2.71051e-14 -2.63318e-15 0 0 0 0)
(0 -1.10332e-14 0 2.71051e-14 -8.24132e-16 0 0 0 0)
(0 -1.56799e-14 0 8.13152e-14 -2.49199e-15 0 0 0 0)
(2.71051e-14 -3.4822e-15 0 5.42101e-14 -1.07019e-14 0 0 0 0)
(0 7.82833e-16 0 2.71051e-14 -1.69915e-14 0 0 0 0)
(2.71051e-14 -9.62127e-15 0 8.13152e-14 5.1605e-15 0 0 0 0)
(-2.71051e-14 -5.20329e-15 0 0 1.92614e-14 0 0 0 0)
(-2.71051e-14 2.05657e-14 0 0 4.07714e-15 0 0 0 0)
(-1.84314e-12 1.01378e-11 0 3.36103e-12 1.11496e-11 0 0 0 0)
(2.22261e-12 -1.22806e-11 0 -1.02999e-12 -2.54135e-12 0 0 0 0)
(-4.87891e-13 2.65993e-12 0 8.13152e-14 5.6311e-13 0 0 0 0)
(1.35525e-13 -6.30904e-13 0 0 -1.50497e-13 0 0 0 0)
(-2.71051e-14 1.27498e-13 0 5.42101e-14 3.45365e-14 0 0 0 0)
(0 -4.581e-14 0 8.13152e-14 6.947e-15 0 0 0 0)
(0 3.94509e-15 0 1.0842e-13 8.44934e-15 0 0 0 0)
(-2.71051e-14 -6.49451e-15 0 2.71051e-14 9.56828e-15 0 0 0 0)
(0 -1.79448e-15 0 0 1.86674e-14 0 0 0 0)
(-5.42101e-14 2.22329e-14 0 0 2.68336e-14 0 0 0 0)
(0 2.88546e-14 0 -2.71051e-14 -4.03557e-15 0 0 0 0)
(8.13152e-14 7.4054e-15 0 -2.71051e-14 -3.57761e-14 0 0 0 0)
(2.71051e-14 -5.10344e-15 0 -2.71051e-14 -3.24119e-14 0 0 0 0)
(0 -7.26371e-15 0 -2.71051e-14 -2.61444e-14 0 0 0 0)
(2.71051e-14 -1.10816e-14 0 2.71051e-14 -7.33174e-15 0 0 0 0)
(-2.71051e-14 -7.88416e-15 0 0 3.06914e-15 0 0 0 0)
(-2.71051e-14 6.11912e-15 0 -2.71051e-14 7.17451e-15 0 0 0 0)
(0 9.75261e-15 0 -2.71051e-14 1.70254e-14 0 0 0 0)
(-2.71051e-14 -4.08056e-15 0 -2.71051e-14 1.71603e-14 0 0 0 0)
(0 -2.55853e-15 0 0 7.32175e-15 0 0 0 0)
(1.87025e-12 -2.56069e-12 0 1.21973e-12 -2.15912e-11 0 0 0 0)
(-2.57498e-12 2.98187e-12 0 -5.42101e-14 4.67551e-12 0 0 0 0)
(7.86047e-13 -5.87604e-13 0 2.43945e-13 -1.11705e-12 0 0 0 0)
(-5.42101e-14 1.61612e-13 0 0 2.39287e-13 0 0 0 0)
(0 -9.81582e-16 0 0 -5.59482e-14 0 0 0 0)
(0 1.27372e-14 0 2.71051e-14 1.5769e-14 0 0 0 0)
(-2.71051e-14 -3.12249e-16 0 0 -2.40215e-15 0 0 0 0)
(0 5.51713e-15 0 2.71051e-14 6.05651e-15 0 0 0 0)
(-8.13152e-14 2.01617e-15 0 8.13152e-14 3.94052e-14 0 0 0 0)
(-2.71051e-14 -1.39611e-14 0 8.13152e-14 4.26633e-14 0 0 0 0)
(0 -2.91319e-14 0 8.13152e-14 1.35042e-14 0 0 0 0)
(2.71051e-14 -1.29857e-14 0 5.42101e-14 -1.20908e-14 0 0 0 0)
(0 7.03318e-15 0 0 -1.90669e-14 0 0 0 0)
(5.42101e-14 1.4047e-14 0 0 -2.29023e-14 0 0 0 0)
(2.71051e-14 1.35336e-14 0 -2.71051e-14 -9.05306e-15 0 0 0 0)
(0 1.1024e-14 0 -5.42101e-14 3.3798e-15 0 0 0 0)
(-2.71051e-14 1.4739e-14 0 -5.42101e-14 1.16776e-14 0 0 0 0)
(0 3.64548e-16 0 2.71051e-14 3.74246e-15 0 0 0 0)
(0 -1.49069e-14 0 -2.71051e-14 -2.66829e-15 0 0 0 0)
(0 -3.91639e-15 0 0 -1.15228e-15 0 0 0 0)
(-7.04731e-13 -6.77788e-12 0 -2.76472e-12 1.71003e-11 0 0 0 0)
(1.24683e-12 8.19358e-12 0 8.13152e-13 -3.56285e-12 0 0 0 0)
(-4.06576e-13 -1.77629e-12 0 -8.13152e-14 8.86168e-13 0 0 0 0)
(-8.13152e-14 4.30196e-13 0 0 -1.34384e-13 0 0 0 0)
(0 -9.60201e-14 0 -2.71051e-14 6.30098e-14 0 0 0 0)
(0 7.73604e-15 0 0 2.61254e-15 0 0 0 0)
(0 -5.76744e-15 0 -2.71051e-14 7.8556e-15 0 0 0 0)
(5.42101e-14 3.53128e-14 0 -5.42101e-14 -5.35805e-15 0 0 0 0)
(2.71051e-14 3.48123e-14 0 -8.13152e-14 1.78724e-15 0 0 0 0)
(-5.42101e-14 -3.66817e-15 0 -2.71051e-14 -5.35591e-15 0 0 0 0)
(2.71051e-14 -2.58995e-14 0 0 5.43195e-15 0 0 0 0)
(-2.71051e-14 -2.51657e-14 0 -2.71051e-14 2.96367e-14 0 0 0 0)
(-2.71051e-14 -1.59149e-14 0 0 2.31951e-14 0 0 0 0)
(-2.71051e-14 2.75016e-15 0 0 1.16403e-14 0 0 0 0)
(-2.71051e-14 1.52004e-14 0 -8.13152e-14 -4.4359e-15 0 0 0 0)
(0 1.28465e-14 0 0 -6.45901e-15 0 0 0 0)
(0 6.48179e-15 0 0 -2.02678e-15 0 0 0 0)
(0 -4.59329e-15 0 0 -1.18156e-14 0 0 0 0)
(0 -8.9753e-15 0 0 -4.3017e-15 0 0 0 0)
(0 1.26204e-15 0 0 -1.48609e-15 0 0 0 0)
(-5.42101e-14 1.09768e-11 0 2.00577e-12 2.9039e-12 0 0 0 0)
(1.89735e-13 -1.32323e-11 0 -8.94467e-13 -6.93841e-13 0 0 0 0)
(-8.13152e-14 2.84087e-12 0 -2.43945e-13 1.66487e-13 0 0 0 0)
(0 -6.61546e-13 0 -1.0842e-13 -4.30687e-14 0 0 0 0)
(-2.71051e-14 1.36015e-13 0 -8.13152e-14 1.77563e-14 0 0 0 0)
(-2.71051e-14 -4.2417e-14 0 -5.42101e-14 2.54393e-14 0 0 0 0)
(-8.13152e-14 -8.28284e-15 0 0 4.93683e-14 0 0 0 0)
(-1.0842e-13 -5.51226e-16 0 -5.42101e-14 3.71768e-14 0 0 0 0)
(5.42101e-14 2.0183e-15 0 -5.42101e-14 -9.3846e-15 0 0 0 0)
(0 -1.03164e-14 0 -5.42101e-14 -2.82335e-14 0 0 0 0)
(5.42101e-14 5.86072e-15 0 -5.42101e-14 -2.04305e-14 0 0 0 0)
(0 4.77745e-15 0 -8.13152e-14 -3.67822e-15 0 0 0 0)
(2.71051e-14 -1.09632e-14 0 0 6.78295e-15 0 0 0 0)
(-2.71051e-14 -1.3584e-14 0 -5.42101e-14 1.11183e-14 0 0 0 0)
(0 -4.56569e-15 0 0 -1.53824e-15 0 0 0 0)
(2.71051e-14 1.34332e-14 0 -5.42101e-14 -1.15625e-14 0 0 0 0)
(5.42101e-14 9.38248e-15 0 0 -1.08687e-14 0 0 0 0)
(2.71051e-14 -1.91038e-15 0 -2.71051e-14 -1.25148e-14 0 0 0 0)
(-2.71051e-14 -4.57741e-15 0 2.71051e-14 -6.58451e-15 0 0 0 0)
(0 1.8714e-15 0 0 -1.90451e-15 0 0 0 0)
(4.06576e-13 -4.56783e-12 0 2.71051e-13 -1.98375e-11 0 0 0 0)
(-1.0842e-12 5.45617e-12 0 0 4.28179e-12 0 0 0 0)
(4.60786e-13 -1.12552e-12 0 8.13152e-14 -1.02405e-12 0 0 0 0)
(8.13152e-14 2.81466e-13 0 -2.71051e-14 1.89702e-13 0 0 0 0)
(5.42101e-14 -2.75121e-14 0 -8.13152e-14 -8.01543e-14 0 0 0 0)
(8.13152e-14 3.9348e-14 0 -5.42101e-14 -2.05707e-14 0 0 0 0)
(2.71051e-14 5.97005e-15 0 -8.13152e-14 -2.0047e-14 0 0 0 0)
(0 -2.34401e-14 0 5.42101e-14 -5.01621e-16 0 0 0 0)
(2.71051e-14 -3.0598e-14 0 8.13152e-14 -1.13117e-14 0 0 0 0)
(0 -1.47141e-14 0 5.42101e-14 1.91486e-16 0 0 0 0)
(-5.42101e-14 -1.34418e-15 0 8.13152e-14 1.26706e-15 0 0 0 0)
(2.71051e-14 2.04775e-15 0 5.42101e-14 -1.08187e-14 0 0 0 0)
(-2.71051e-14 -1.11843e-15 0 2.71051e-14 5.36976e-16 0 0 0 0)
(0 -5.57103e-15 0 5.42101e-14 9.66985e-15 0 0 0 0)
(0 -7.48034e-15 0 8.13152e-14 1.64791e-14 0 0 0 0)
(-5.42101e-14 3.51609e-15 0 5.42101e-14 1.07613e-14 0 0 0 0)
(0 5.52951e-15 0 5.42101e-14 -9.77258e-15 0 0 0 0)
(5.42101e-14 -3.09149e-16 0 2.71051e-14 -1.82037e-14 0 0 0 0)
(0 1.63497e-15 0 0 -1.18084e-14 0 0 0 0)
(0 9.75107e-15 0 0 4.23636e-15 0 0 0 0)
(2.71051e-13 -4.57891e-12 0 -1.5992e-12 1.60925e-11 0 0 0 0)
(2.71051e-14 5.58113e-12 0 5.42101e-13 -3.38696e-12 0 0 0 0)
(-2.1684e-13 -1.25122e-12 0 1.0842e-13 8.21999e-13 0 0 0 0)
(-1.6263e-13 2.82349e-13 0 8.13152e-14 -1.64133e-13 0 0 0 0)
(0 -7.42584e-14 0 8.13152e-14 2.30641e-14 0 0 0 0)
(0 1.76904e-14 0 5.42101e-14 -2.48752e-14 0 0 0 0)
(0 1.17862e-14 0 0 -3.26742e-14 0 0 0 0)
(2.71051e-14 8.18403e-15 0 0 -3.04587e-14 0 0 0 0)
(0 2.71141e-15 0 0 -1.01073e-14 0 0 0 0)
(0 2.26239e-15 0 0 5.622e-15 0 0 0 0)
(5.42101e-14 -5.14943e-15 0 -2.71051e-14 8.36161e-15 0 0 0 0)
(2.71051e-14 4.04736e-15 0 -5.42101e-14 -2.16693e-15 0 0 0 0)
(0 9.52527e-15 0 -2.71051e-14 -1.7922e-15 0 0 0 0)
(0 2.35818e-15 0 0 -2.49917e-16 0 0 0 0)
(2.71051e-14 -3.47426e-15 0 0 -1.9531e-15 0 0 0 0)
(-2.71051e-14 -1.28186e-14 0 2.71051e-14 -2.5242e-15 0 0 0 0)
(2.71051e-14 -1.95825e-14 0 2.71051e-14 -7.34939e-15 0 0 0 0)
(0 -3.94617e-15 0 2.71051e-14 3.37522e-15 0 0 0 0)
(-2.71051e-14 1.78626e-14 0 0 5.43366e-15 0 0 0 0)
(-2.71051e-14 9.44342e-15 0 2.71051e-14 7.07264e-15 0 0 0 0)
(-6.23416e-13 8.13776e-12 0 -1.35525e-13 -4.27008e-12 0 0 0 0)
(5.69206e-13 -9.81438e-12 0 -1.35525e-13 9.54824e-13 0 0 0 0)
(0 2.09731e-12 0 -1.0842e-13 -2.10853e-13 0 0 0 0)
(8.13152e-14 -5.1747e-13 0 5.42101e-14 5.49184e-14 0 0 0 0)
(2.71051e-14 1.11746e-13 0 0 -9.27791e-15 0 0 0 0)
(0 -1.63902e-14 0 2.71051e-14 6.52282e-15 0 0 0 0)
(0 3.86536e-16 0 8.13152e-14 4.37042e-15 0 0 0 0)
(0 -8.73137e-16 0 2.71051e-14 5.59273e-15 0 0 0 0)
(0 5.48266e-15 0 0 1.41489e-14 0 0 0 0)
(-2.71051e-14 3.75482e-15 0 0 9.12869e-15 0 0 0 0)
(-8.13152e-14 -9.13311e-15 0 0 1.24751e-14 0 0 0 0)
(-2.71051e-14 -8.10606e-15 0 5.42101e-14 1.24828e-14 0 0 0 0)
(2.71051e-14 7.98584e-16 0 2.71051e-14 -4.54652e-15 0 0 0 0)
(5.42101e-14 -5.73193e-15 0 0 -1.31154e-14 0 0 0 0)
(5.42101e-14 -9.75462e-15 0 2.71051e-14 -1.81017e-14 0 0 0 0)
(-2.71051e-14 -1.88021e-15 0 2.71051e-14 -1.20319e-14 0 0 0 0)
(0 1.14289e-14 0 -2.71051e-14 -1.40857e-15 0 0 0 0)
(0 1.24739e-14 0 -5.42101e-14 1.89602e-14 0 0 0 0)
(-2.71051e-14 5.33239e-15 0 -2.71051e-14 1.15402e-14 0 0 0 0)
(0 -2.75523e-15 0 -2.71051e-14 -7.5858e-15 0 0 0 0)
(5.42101e-14 -7.89416e-12 0 4.33681e-13 -9.23636e-13 0 0 0 0)
(0 9.64036e-12 0 5.42101e-14 1.68741e-13 0 0 0 0)
(0 -2.15112e-12 0 0 -5.34709e-14 0 0 0 0)
(-5.42101e-14 4.83924e-13 0 -1.0842e-13 1.77873e-14 0 0 0 0)
(-8.13152e-14 -1.22654e-13 0 0 1.52836e-14 0 0 0 0)
(2.71051e-14 3.13387e-14 0 -8.13152e-14 -1.21072e-14 0 0 0 0)
(5.42101e-14 1.08561e-14 0 -2.71051e-14 -9.37571e-15 0 0 0 0)
(0 1.79625e-14 0 -2.71051e-14 1.66157e-15 0 0 0 0)
(0 6.24737e-15 0 -2.71051e-14 9.33663e-15 0 0 0 0)
(0 5.88603e-16 0 -5.42101e-14 -6.29298e-15 0 0 0 0)
(5.42101e-14 -1.79529e-15 0 0 -1.68269e-14 0 0 0 0)
(2.71051e-14 -1.29742e-14 0 5.42101e-14 -2.44144e-15 0 0 0 0)
(-2.71051e-14 -1.60729e-14 0 5.42101e-14 7.2733e-15 0 0 0 0)
(0 -1.1197e-14 0 5.42101e-14 8.69368e-15 0 0 0 0)
(0 -2.39083e-15 0 0 1.08827e-14 0 0 0 0)
(-5.42101e-14 3.87461e-15 0 0 2.00515e-14 0 0 0 0)
(-5.42101e-14 1.14097e-14 0 0 2.63477e-14 0 0 0 0)
(5.42101e-14 9.00259e-15 0 -5.42101e-14 4.72948e-15 0 0 0 0)
(0 -8.6834e-15 0 2.71051e-14 -6.06383e-15 0 0 0 0)
(0 5.48903e-15 0 2.71051e-14 -7.526e-15 0 0 0 0)
(-1.89735e-13 7.38286e-12 0 4.87891e-13 6.9663e-12 0 0 0 0)
(2.43945e-13 -8.94421e-12 0 -2.98156e-13 -1.66817e-12 0 0 0 0)
(-1.35525e-13 1.94636e-12 0 -8.13152e-14 3.73249e-13 0 0 0 0)
(2.71051e-14 -4.48715e-13 0 -2.71051e-14 -9.84643e-14 0 0 0 0)
(5.42101e-14 8.18516e-14 0 0 3.44439e-14 0 0 0 0)
(-5.42101e-14 -4.10496e-14 0 -2.71051e-14 1.16887e-14 0 0 0 0)
(0 1.41553e-14 0 -8.13152e-14 8.29768e-15 0 0 0 0)
(0 1.78392e-14 0 -8.13152e-14 2.03498e-15 0 0 0 0)
(0 -2.47189e-15 0 -8.13152e-14 -4.69494e-15 0 0 0 0)
(0 -2.24087e-14 0 0 -1.60342e-14 0 0 0 0)
(5.42101e-14 -5.28157e-15 0 -5.42101e-14 -3.31614e-14 0 0 0 0)
(5.42101e-14 1.59941e-14 0 -1.0842e-13 -3.93617e-14 0 0 0 0)
(0 1.19337e-14 0 -8.13152e-14 -1.05919e-14 0 0 0 0)
(0 -2.12247e-15 0 -2.71051e-14 8.39585e-15 0 0 0 0)
(-2.71051e-14 1.60316e-15 0 0 1.73851e-14 0 0 0 0)
(0 1.35848e-14 0 -5.42101e-14 8.62311e-15 0 0 0 0)
(-2.71051e-14 -3.89304e-15 0 0 8.84432e-15 0 0 0 0)
(0 -1.99377e-14 0 5.42101e-14 -9.7375e-15 0 0 0 0)
(2.71051e-14 -6.92309e-15 0 0 -5.97619e-15 0 0 0 0)
(-2.71051e-14 1.08346e-14 0 0 1.22678e-14 0 0 0 0)
(1.89735e-13 -2.59603e-12 0 -2.71051e-14 -1.73768e-11 0 0 0 0)
(-5.42101e-13 3.04731e-12 0 1.0842e-13 3.84303e-12 0 0 0 0)
(2.71051e-13 -5.81423e-13 0 1.89735e-13 -8.78521e-13 0 0 0 0)
(0 1.45119e-13 0 8.13152e-14 2.00396e-13 0 0 0 0)
(0 -1.2501e-14 0 0 -5.14319e-14 0 0 0 0)
(0 5.19247e-15 0 2.71051e-14 2.31524e-14 0 0 0 0)
(-5.42101e-14 1.2024e-15 0 2.71051e-14 9.93824e-15 0 0 0 0)
(0 4.96985e-15 0 0 -5.07851e-15 0 0 0 0)
(5.42101e-14 -1.18218e-14 0 2.71051e-14 -2.5216e-14 0 0 0 0)
(2.71051e-14 -2.78779e-14 0 8.13152e-14 -1.33399e-14 0 0 0 0)
(-2.71051e-14 -2.51229e-14 0 5.42101e-14 6.5012e-16 0 0 0 0)
(0 9.59534e-15 0 0 -1.28658e-14 0 0 0 0)
(2.71051e-14 3.16847e-14 0 -5.42101e-14 -2.35897e-14 0 0 0 0)
(5.42101e-14 1.678e-14 0 -2.71051e-14 -2.46647e-14 0 0 0 0)
(0 -2.16357e-15 0 0 3.01291e-16 0 0 0 0)
(-5.42101e-14 -4.66621e-15 0 0 1.85241e-15 0 0 0 0)
(5.42101e-14 -6.95093e-15 0 0 -1.10622e-14 0 0 0 0)
(2.71051e-14 -5.81792e-15 0 0 -6.22434e-15 0 0 0 0)
(-2.71051e-14 1.33219e-14 0 -2.71051e-14 7.75014e-16 0 0 0 0)
(0 -8.02574e-16 0 -8.13152e-14 2.73829e-15 0 0 0 0)
(-8.13152e-14 -6.15092e-12 0 -1.30104e-12 1.92244e-11 0 0 0 0)
(4.60786e-13 7.55408e-12 0 4.33681e-13 -4.08482e-12 0 0 0 0)
(-1.89735e-13 -1.69628e-12 0 2.71051e-14 9.69069e-13 0 0 0 0)
(-1.6263e-13 3.78374e-13 0 8.13152e-14 -1.8737e-13 0 0 0 0)
(0 -9.5392e-14 0 8.13152e-14 5.00997e-14 0 0 0 0)
(0 2.03205e-14 0 1.0842e-13 -5.28466e-16 0 0 0 0)
(-2.71051e-14 -1.40756e-14 0 1.0842e-13 1.08701e-14 0 0 0 0)
(0 -1.7315e-14 0 1.0842e-13 -1.04785e-14 0 0 0 0)
(5.42101e-14 -1.07333e-14 0 1.0842e-13 -2.26594e-14 0 0 0 0)
(0 3.45738e-15 0 2.71051e-14 -5.7326e-15 0 0 0 0)
(0 -4.80747e-15 0 8.13152e-14 1.38799e-14 0 0 0 0)
(-5.42101e-14 -8.24573e-15 0 5.42101e-14 1.45456e-14 0 0 0 0)
(0 1.3487e-16 0 5.42101e-14 -1.69832e-14 0 0 0 0)
(2.71051e-14 2.17685e-14 0 2.71051e-14 -1.97607e-14 0 0 0 0)
(2.71051e-14 2.81202e-14 0 -2.71051e-14 -1.69384e-15 0 0 0 0)
(-2.71051e-14 2.22129e-15 0 0 1.06354e-14 0 0 0 0)
(0 -1.19698e-14 0 2.71051e-14 1.56716e-14 0 0 0 0)
(-8.13152e-14 -8.10045e-15 0 0 2.19576e-14 0 0 0 0)
(0 2.03955e-15 0 0 7.31478e-15 0 0 0 0)
(5.42101e-14 7.32129e-15 0 5.42101e-14 -9.86906e-15 0 0 0 0)
(-7.04731e-13 1.25435e-11 0 3.00866e-12 -2.93727e-12 0 0 0 0)
(7.58942e-13 -1.5208e-11 0 -8.94467e-13 5.61613e-13 0 0 0 0)
(-5.42101e-14 3.31603e-12 0 -8.13152e-14 -1.66555e-13 0 0 0 0)
(8.13152e-14 -7.7385e-13 0 2.71051e-14 1.87099e-14 0 0 0 0)
(-2.71051e-14 1.7434e-13 0 2.71051e-14 -2.12722e-15 0 0 0 0)
(5.42101e-14 -3.4037e-14 0 2.71051e-14 1.2066e-15 0 0 0 0)
(-2.71051e-14 -8.74764e-15 0 0 2.006e-15 0 0 0 0)
(0 -2.85597e-14 0 5.42101e-14 1.69926e-16 0 0 0 0)
(-2.71051e-14 -7.07588e-15 0 0 6.62166e-15 0 0 0 0)
(0 8.66144e-15 0 0 3.89673e-15 0 0 0 0)
(0 -4.84469e-15 0 -2.71051e-14 7.14369e-15 0 0 0 0)
(-5.42101e-14 -2.12677e-14 0 2.71051e-14 2.01338e-14 0 0 0 0)
(5.42101e-14 -2.62156e-15 0 0 1.34519e-14 0 0 0 0)
(-2.71051e-14 3.20693e-14 0 -2.71051e-14 2.27409e-14 0 0 0 0)
(-2.71051e-14 2.82325e-14 0 -2.71051e-14 7.26852e-15 0 0 0 0)
(0 1.26993e-14 0 -5.42101e-14 -4.09937e-15 0 0 0 0)
(0 4.37133e-15 0 -2.71051e-14 -9.1126e-15 0 0 0 0)
(2.71051e-14 -1.41748e-14 0 0 4.47613e-15 0 0 0 0)
(2.71051e-14 -1.85048e-14 0 0 1.18271e-14 0 0 0 0)
(-5.42101e-14 1.7517e-15 0 2.71051e-14 3.6113e-15 0 0 0 0)
(2.05998e-12 -8.52658e-12 0 -2.03288e-12 -1.86442e-11 0 0 0 0)
(-2.62919e-12 1.03248e-11 0 7.04731e-13 4.09584e-12 0 0 0 0)
(6.77626e-13 -2.23918e-12 0 8.13152e-14 -9.58742e-13 0 0 0 0)
(-5.42101e-14 5.42802e-13 0 -2.71051e-14 2.10347e-13 0 0 0 0)
(0 -1.12895e-13 0 0 -3.96994e-14 0 0 0 0)
(0 2.44538e-14 0 -2.71051e-14 6.84285e-15 0 0 0 0)
(0 -1.51123e-14 0 0 -1.40188e-14 0 0 0 0)
(0 -1.26993e-14 0 -2.71051e-14 -3.92971e-15 0 0 0 0)
(-2.71051e-14 -7.00651e-15 0 0 7.22726e-15 0 0 0 0)
(0 3.97942e-15 0 0 6.31145e-15 0 0 0 0)
(2.71051e-14 1.14296e-14 0 -2.71051e-14 1.75813e-14 0 0 0 0)
(-2.71051e-14 -1.93749e-15 0 0 2.97569e-14 0 0 0 0)
(-2.71051e-14 2.74197e-15 0 0 3.5472e-14 0 0 0 0)
(-5.42101e-14 1.55851e-14 0 0 2.26964e-14 0 0 0 0)
(0 1.27999e-15 0 0 -5.13352e-15 0 0 0 0)
(0 -1.41598e-14 0 5.42101e-14 -7.32337e-15 0 0 0 0)
(5.42101e-14 -3.3943e-15 0 0 -2.82859e-14 0 0 0 0)
(0 1.28392e-14 0 0 -1.86623e-14 0 0 0 0)
(0 1.17472e-15 0 0 6.1329e-15 0 0 0 0)
(0 -8.11706e-15 0 0 2.16169e-15 0 0 0 0)
(-2.03288e-12 -2.00485e-12 0 -3.68629e-12 2.31843e-11 0 0 0 0)
(2.81893e-12 2.47747e-12 0 7.31836e-13 -5.06197e-12 0 0 0 0)
(-7.31836e-13 -5.69463e-13 0 -2.71051e-13 1.19459e-12 0 0 0 0)
(5.42101e-14 1.45193e-13 0 -2.71051e-14 -2.62805e-13 0 0 0 0)
(-2.71051e-14 -2.91637e-14 0 -1.0842e-13 6.20946e-14 0 0 0 0)
(0 -8.35638e-15 0 -5.42101e-14 -7.59027e-15 0 0 0 0)
(0 -1.95202e-14 0 -5.42101e-14 -1.37424e-15 0 0 0 0)
(0 -7.31367e-15 0 -5.42101e-14 3.39898e-15 0 0 0 0)
(-2.71051e-14 3.16528e-15 0 -5.42101e-14 7.84254e-15 0 0 0 0)
(0 1.90155e-14 0 -1.0842e-13 1.9572e-14 0 0 0 0)
(-5.42101e-14 1.86007e-14 0 -8.13152e-14 1.99785e-14 0 0 0 0)
(0 -3.37707e-15 0 -2.71051e-14 5.36582e-15 0 0 0 0)
(0 -9.68201e-15 0 0 1.1585e-14 0 0 0 0)
(0 -8.53617e-15 0 0 -7.60614e-16 0 0 0 0)
(2.71051e-14 -1.78733e-15 0 0 -7.9508e-15 0 0 0 0)
(-2.71051e-14 -1.04531e-14 0 2.71051e-14 -3.12566e-15 0 0 0 0)
(0 -6.96756e-15 0 0 9.19944e-15 0 0 0 0)
(0 2.0244e-14 0 -5.42101e-14 1.37659e-15 0 0 0 0)
(2.71051e-14 2.31917e-15 0 0 -5.54158e-15 0 0 0 0)
(-2.71051e-14 -6.54289e-15 0 0 -1.85876e-15 0 0 0 0)
(-8.94467e-13 9.5958e-12 0 6.31548e-12 -2.32351e-12 0 0 0 0)
(8.13152e-13 -1.1665e-11 0 -1.68051e-12 3.79692e-13 0 0 0 0)
(-1.35525e-13 2.55998e-12 0 1.0842e-13 -1.24266e-13 0 0 0 0)
(8.13152e-14 -5.89691e-13 0 -1.35525e-13 7.05895e-15 0 0 0 0)
(0 1.4232e-13 0 -8.13152e-14 -5.57698e-15 0 0 0 0)
(5.42101e-14 -3.90151e-14 0 -8.13152e-14 -4.62478e-15 0 0 0 0)
(0 -4.12306e-15 0 -8.13152e-14 2.67513e-16 0 0 0 0)
(0 -3.48256e-15 0 -8.13152e-14 -3.076e-15 0 0 0 0)
(0 9.16653e-15 0 -8.13152e-14 6.47839e-17 0 0 0 0)
(-5.42101e-14 1.61154e-14 0 -2.71051e-14 3.15685e-15 0 0 0 0)
(5.42101e-14 -2.77661e-15 0 -2.71051e-14 -1.66353e-14 0 0 0 0)
(8.13152e-14 -1.03309e-14 0 0 -1.71784e-14 0 0 0 0)
(0 -3.38447e-15 0 -5.42101e-14 2.54069e-15 0 0 0 0)
(0 -3.95071e-15 0 -5.42101e-14 -6.51187e-15 0 0 0 0)
(0 -1.08506e-15 0 -5.42101e-14 -8.96019e-15 0 0 0 0)
(0 2.99042e-15 0 -8.13152e-14 -1.486e-14 0 0 0 0)
(-5.42101e-14 1.10795e-15 0 0 1.52997e-14 0 0 0 0)
(0 -1.90182e-15 0 0 5.59731e-15 0 0 0 0)
(8.13152e-14 -2.06063e-15 0 0 -2.2605e-14 0 0 0 0)
(-2.71051e-14 -7.16726e-16 0 -2.71051e-14 -4.6682e-15 0 0 0 0)
(2.57498e-12 -3.94866e-12 0 -5.96311e-13 -2.10358e-11 0 0 0 0)
(-3.36103e-12 4.67671e-12 0 3.79471e-13 4.58187e-12 0 0 0 0)
(8.40257e-13 -9.42096e-13 0 1.89735e-13 -1.09118e-12 0 0 0 0)
(-1.89735e-13 2.63882e-13 0 1.0842e-13 2.46433e-13 0 0 0 0)
(0 -4.08474e-14 0 1.35525e-13 -4.90685e-14 0 0 0 0)
(5.42101e-14 -2.51188e-15 0 8.13152e-14 4.27481e-15 0 0 0 0)
(-5.42101e-14 -1.79714e-14 0 1.35525e-13 -4.92907e-15 0 0 0 0)
(5.42101e-14 -7.5164e-15 0 8.13152e-14 -1.0673e-14 0 0 0 0)
(0 9.39812e-15 0 1.0842e-13 -5.18323e-15 0 0 0 0)
(0 2.31542e-15 0 8.13152e-14 -1.25128e-14 0 0 0 0)
(2.71051e-14 -1.73455e-15 0 8.13152e-14 -2.27429e-14 0 0 0 0)
(5.42101e-14 1.57989e-14 0 5.42101e-14 -7.65558e-15 0 0 0 0)
(-5.42101e-14 9.84551e-16 0 8.13152e-14 1.31039e-15 0 0 0 0)
(-2.71051e-14 -2.00371e-14 0 5.42101e-14 -4.52785e-15 0 0 0 0)
(2.71051e-14 -1.01354e-14 0 5.42101e-14 -1.31583e-14 0 0 0 0)
(5.42101e-14 1.38068e-14 0 5.42101e-14 -1.45477e-14 0 0 0 0)
(0 1.34897e-14 0 2.71051e-14 -5.79523e-15 0 0 0 0)
(0 -1.76606e-14 0 5.42101e-14 8.28132e-16 0 0 0 0)
(0 -7.94634e-15 0 2.71051e-14 -8.37489e-15 0 0 0 0)
(0 2.07303e-14 0 2.71051e-14 -6.29836e-15 0 0 0 0)
(-1.02999e-12 -6.85809e-12 0 -1.89735e-12 1.36796e-11 0 0 0 0)
(1.54499e-12 8.27962e-12 0 4.06576e-13 -2.87284e-12 0 0 0 0)
(-4.06576e-13 -1.77545e-12 0 -1.0842e-13 7.23267e-13 0 0 0 0)
(0 4.52423e-13 0 -2.71051e-14 -1.55292e-13 0 0 0 0)
(2.71051e-14 -9.98388e-14 0 0 6.9622e-15 0 0 0 0)
(0 5.12432e-15 0 0 -1.46059e-14 0 0 0 0)
(0 -1.90709e-14 0 -5.42101e-14 4.34976e-15 0 0 0 0)
(-2.71051e-14 -3.73673e-15 0 0 2.24364e-14 0 0 0 0)
(-2.71051e-14 7.32673e-15 0 -2.71051e-14 1.56029e-14 0 0 0 0)
(0 -1.44428e-15 0 0 5.71157e-15 0 0 0 0)
(0 2.08065e-15 0 0 1.47318e-14 0 0 0 0)
(-2.71051e-14 1.37223e-14 0 -5.42101e-14 5.36547e-15 0 0 0 0)
(2.71051e-14 -2.56736e-16 0 -2.71051e-14 -1.47895e-14 0 0 0 0)
(0 -1.84194e-14 0 0 4.63766e-15 0 0 0 0)
(-2.71051e-14 -1.11049e-14 0 0 2.3667e-14 0 0 0 0)
(-2.71051e-14 1.03535e-14 0 0 2.58779e-14 0 0 0 0)
(-2.71051e-14 1.64837e-14 0 -2.71051e-14 -4.93278e-16 0 0 0 0)
(2.71051e-14 -4.48148e-15 0 0 -4.09551e-15 0 0 0 0)
(0 -9.18712e-15 0 -2.71051e-14 2.16488e-14 0 0 0 0)
(-2.71051e-14 1.39565e-14 0 -2.71051e-14 1.3038e-14 0 0 0 0)
)
;

boundaryField
{
    movingWall
    {
        type            extrapolatedCalculated;
        value           nonuniform List<tensor> 
20
(
(-1.02999e-12 -6.85809e-12 0 6.03961e-12 3.49622e-11 0 0 0 0)
(1.54499e-12 8.27962e-12 0 -1.90958e-12 -7.52982e-12 0 0 0 0)
(-4.06576e-13 -1.77545e-12 0 -1.77636e-13 1.84373e-12 0 0 0 0)
(0 4.52423e-13 0 -2.66454e-13 -4.2801e-13 0 0 0 0)
(2.71051e-14 -9.98388e-14 0 -2.22045e-13 3.404e-14 0 0 0 0)
(0 5.12432e-15 0 -2.66454e-13 -2.86549e-14 0 0 0 0)
(0 -1.90709e-14 0 -3.10862e-13 1.35427e-14 0 0 0 0)
(-2.71051e-14 -3.73673e-15 0 -2.66454e-13 4.76287e-14 0 0 0 0)
(-2.71051e-14 7.32673e-15 0 -2.22045e-13 2.84896e-14 0 0 0 0)
(0 -1.44428e-15 0 -1.77636e-13 1.83218e-14 0 0 0 0)
(0 2.08065e-15 0 -1.77636e-13 3.42667e-14 0 0 0 0)
(-2.71051e-14 1.37223e-14 0 -1.33227e-13 9.99922e-15 0 0 0 0)
(2.71051e-14 -2.56736e-16 0 -1.77636e-13 -2.06226e-14 0 0 0 0)
(0 -1.84194e-14 0 -1.77636e-13 1.10262e-14 0 0 0 0)
(-2.71051e-14 -1.11049e-14 0 -1.33227e-13 5.30549e-14 0 0 0 0)
(-2.71051e-14 1.03535e-14 0 -4.44089e-14 5.54456e-14 0 0 0 0)
(-2.71051e-14 1.64837e-14 0 -4.44089e-14 1.1641e-14 0 0 0 0)
(2.71051e-14 -4.48148e-15 0 0 -1.04893e-14 0 0 0 0)
(0 -9.18712e-15 0 -8.88178e-14 2.95669e-14 0 0 0 0)
(-2.71051e-14 1.39565e-14 0 -4.44089e-14 2.62592e-14 0 0 0 0)
)
;
    }
    fixedWalls
    {
        type            extrapolatedCalculated;
        value           nonuniform List<tensor> 
60
(
(-6.03961e-12 6.93356e-11 0 1.38236e-12 1.73168e-11 0 0 0 0)
(1.15463e-11 -6.85858e-14 0 7.58942e-13 -3.16383e-11 0 0 0 0)
(-2.93099e-12 -5.72176e-11 0 -5.20417e-12 1.29605e-11 0 0 0 0)
(-9.32587e-12 5.17734e-11 0 3.36103e-12 1.11496e-11 0 0 0 0)
(1.05693e-11 -1.26191e-11 0 1.21973e-12 -2.15912e-11 0 0 0 0)
(-4.52971e-12 -3.45914e-11 0 -2.76472e-12 1.71003e-11 0 0 0 0)
(-5.32907e-13 5.57823e-11 0 2.00577e-12 2.9039e-12 0 0 0 0)
(3.55271e-12 -2.29759e-11 0 2.71051e-13 -1.98375e-11 0 0 0 0)
(4.88498e-13 -2.35677e-11 0 -1.5992e-12 1.60925e-11 0 0 0 0)
(-2.75335e-12 4.13943e-11 0 -1.35525e-13 -4.27008e-12 0 0 0 0)
(0 -4.0648e-11 0 4.33681e-13 -9.23636e-13 0 0 0 0)
(-1.06581e-12 3.76998e-11 0 4.87891e-13 6.9663e-12 0 0 0 0)
(1.95399e-12 -1.27828e-11 0 -2.71051e-14 -1.73768e-11 0 0 0 0)
(-1.15463e-12 -3.18075e-11 0 -1.30104e-12 1.92244e-11 0 0 0 0)
(-3.28626e-12 6.41147e-11 0 3.00866e-12 -2.93727e-12 0 0 0 0)
(1.08358e-11 -4.35565e-11 0 -2.03288e-12 -1.86442e-11 0 0 0 0)
(-1.13687e-11 -1.04622e-11 0 -3.68629e-12 2.31843e-11 0 0 0 0)
(-3.81917e-12 4.91808e-11 0 6.31548e-12 -2.32351e-12 0 0 0 0)
(1.37224e-11 -1.97562e-11 0 -5.96311e-13 -2.10358e-11 0 0 0 0)
(-6.03961e-12 -3.49622e-11 0 -1.89735e-12 1.36796e-11 0 0 0 0)
(-4.44089e-14 -9.43343e-15 0 0 -2.96589e-15 0 0 0 0)
(8.88178e-14 2.1297e-14 0 0 -1.121e-14 0 0 0 0)
(0 3.54064e-14 0 0 4.07714e-15 0 0 0 0)
(0 4.98845e-15 0 0 7.32175e-15 0 0 0 0)
(-4.44089e-14 6.11943e-15 0 0 -1.15228e-15 0 0 0 0)
(0 9.59757e-15 0 0 -1.48609e-15 0 0 0 0)
(0 1.20638e-14 0 0 -1.90451e-15 0 0 0 0)
(0 1.72156e-14 0 0 4.23636e-15 0 0 0 0)
(-4.44089e-14 -4.88162e-15 0 2.71051e-14 7.07264e-15 0 0 0 0)
(0 -1.10749e-14 0 -2.71051e-14 -7.5858e-15 0 0 0 0)
(-4.44089e-14 2.54616e-14 0 2.71051e-14 -7.526e-15 0 0 0 0)
(-4.44089e-14 1.9029e-14 0 0 1.22678e-14 0 0 0 0)
(0 -2.36096e-14 0 -8.13152e-14 2.73829e-15 0 0 0 0)
(8.88178e-14 8.07588e-15 0 5.42101e-14 -9.86906e-15 0 0 0 0)
(-8.88178e-14 1.58666e-14 0 2.71051e-14 3.6113e-15 0 0 0 0)
(0 -6.36932e-15 0 0 2.16169e-15 0 0 0 0)
(-4.44089e-14 7.21987e-15 0 0 -1.85876e-15 0 0 0 0)
(-4.44089e-14 1.06572e-15 0 -2.71051e-14 -4.6682e-15 0 0 0 0)
(0 2.58927e-14 0 2.71051e-14 -6.29836e-15 0 0 0 0)
(-4.44089e-14 2.62592e-14 0 -2.71051e-14 1.3038e-14 0 0 0 0)
(-1.0571e-12 1.35981e-11 0 -6.03961e-12 6.93356e-11 0 0 0 0)
(1.57209e-12 -1.64441e-11 0 1.82077e-12 -1.49431e-11 0 0 0 0)
(-4.33681e-13 3.55873e-12 0 1.77636e-13 3.55937e-12 0 0 0 0)
(0 -8.37701e-13 0 1.77636e-13 -7.08195e-13 0 0 0 0)
(0 1.70222e-13 0 2.22045e-13 2.08566e-13 0 0 0 0)
(-2.71051e-14 -5.07855e-14 0 1.33227e-13 -2.73059e-14 0 0 0 0)
(0 6.39933e-15 0 1.33227e-13 5.42379e-15 0 0 0 0)
(0 -6.54086e-15 0 1.33227e-13 -1.70857e-15 0 0 0 0)
(0 3.25464e-15 0 4.44089e-14 -2.07397e-14 0 0 0 0)
(2.71051e-14 2.01539e-14 0 1.77636e-13 1.131e-14 0 0 0 0)
(-2.71051e-14 1.1798e-14 0 1.33227e-13 5.98758e-14 0 0 0 0)
(0 -5.08004e-15 0 1.33227e-13 5.8502e-14 0 0 0 0)
(-5.42101e-14 -1.5121e-14 0 8.88178e-14 3.95556e-14 0 0 0 0)
(0 -1.11449e-14 0 -8.88178e-14 -1.98188e-15 0 0 0 0)
(0 2.92503e-15 0 0 -5.02391e-15 0 0 0 0)
(0 4.84555e-15 0 -8.88178e-14 9.71822e-15 0 0 0 0)
(0 -2.47868e-15 0 4.44089e-14 1.43583e-14 0 0 0 0)
(0 -7.24583e-15 0 -8.88178e-14 -1.96491e-16 0 0 0 0)
(2.71051e-14 2.40748e-15 0 8.88178e-14 -1.4625e-14 0 0 0 0)
(-2.71051e-14 1.2979e-15 0 4.44089e-14 9.43343e-15 0 0 0 0)
)
;
    }
    frontAndBack
    {
        type            empty;
    }
}


// ************************************************************************* //
