/*--------------------------------*- C++ -*----------------------------------*\
| =========                 |                                                 |
| \\      /  F ield         | OpenFOAM: The Open Source CFD Toolbox           |
|  \\    /   O peration     | Version:  2312                                  |
|   \\  /    A nd           | Website:  www.openfoam.com                      |
|    \\/     M anipulation  |                                                 |
\*---------------------------------------------------------------------------*/
FoamFile
{
    version     2.0;
    format      ascii;
    arch        "LSB;label=32;scalar=64";
    class       volScalarField;
    location    "6.875";
    object      Lambda2Field;
}
// * * * * * * * * * * * * * * * * * * * * * * * * * * * * * * * * * * * * * //

dimensions      [0 0 -2 0 0 0 0];

internalField   nonuniform List<scalar> 
400
(
1.99149e-23
1.09401e-23
1.88079e-25
2.27059e-26
9.22776e-27
3.51142e-29
1.73454e-28
-1.36215e-28
0
3.36154e-32
3.6498e-28
0
5.29049e-28
6.04165e-28
0
-1.65738e-28
0
5.89196e-28
8.65194e-28
8.79653e-30
3.8946e-24
8.56771e-24
7.05988e-25
0
1.8528e-27
-1.00019e-27
9.1166e-29
3.13449e-28
3.77198e-28
0
0
-4.67342e-28
7.73053e-30
-2.63493e-28
6.52596e-29
3.58617e-28
2.64093e-28
-7.05336e-28
6.71743e-29
0
5.83133e-23
2.0763e-23
3.15662e-25
1.0015e-25
0
1.05234e-27
4.89677e-28
1.86032e-28
0
4.14132e-28
2.8217e-28
1.25149e-27
1.57075e-28
-2.98376e-28
0
0
2.12187e-29
-4.76709e-29
3.7777e-28
1.66231e-29
3.74707e-23
1.75889e-23
4.5433e-25
1.83671e-26
7.64634e-27
-3.67678e-27
4.27728e-28
0
0
7.20042e-28
0
1.07921e-27
8.73013e-28
1.96883e-28
1.17942e-28
9.41962e-30
1.61576e-28
0
5.37612e-28
0
3.74485e-25
6.46888e-24
4.74526e-25
2.93874e-27
0
3.45243e-28
5.7947e-30
1.49542e-28
3.2888e-27
0
0
0
0
5.24513e-28
1.28004e-28
-5.86192e-28
0
9.88108e-30
4.04052e-28
0
1.92356e-23
8.21722e-24
3.09743e-25
6.61216e-27
2.60263e-27
0
1.56327e-28
0
0
1.28112e-28
1.97202e-28
1.4168e-27
6.01334e-28
1.35496e-28
0
0
0
0
0
0
2.20199e-23
1.18719e-23
0
7.1725e-26
0
2.94659e-27
2.45438e-27
1.41199e-27
7.69067e-28
5.59253e-28
1.00182e-27
-3.7495e-28
7.60567e-29
8.60005e-28
0
0
1.40135e-28
2.08401e-28
1.7023e-28
0
0
1.17549e-24
1.20802e-25
0
5.17588e-27
0
2.49228e-28
-1.27044e-27
0
-7.97614e-28
1.60044e-27
2.28052e-28
1.69115e-28
-2.085e-28
0
3.06413e-28
2.99756e-28
3.22995e-28
0
0
7.39605e-24
3.02627e-24
0
4.94079e-26
0
9.58997e-28
0
7.34684e-28
0
0
3.30004e-28
0
0
0
6.83221e-30
0
6.81609e-29
-9.5569e-29
1.09293e-28
3.05987e-28
0
1.65409e-24
0
-2.14399e-26
7.34684e-28
-4.01711e-28
3.14313e-29
0
0
8.33329e-29
1.76481e-28
0
2.15324e-28
1.72013e-28
4.02932e-28
9.38046e-29
0
-3.16721e-28
2.51688e-28
7.46807e-29
0
5.22605e-25
0
-4.95284e-26
3.99459e-27
-1.81363e-27
1.53911e-28
-4.84113e-28
0
0
2.8395e-28
0
0
-5.31412e-28
0
4.02061e-28
7.26748e-28
0
0
1.48781e-28
3.63803e-24
2.72628e-24
0
1.28971e-26
2.8613e-27
1.24928e-27
0
-1.44646e-27
2.01002e-28
0
1.9845e-27
0
0
5.75297e-29
3.02886e-28
-6.62074e-28
8.20109e-29
-9.86004e-28
4.76971e-29
1.50499e-28
1.06365e-25
6.24264e-25
0
1.18004e-26
0
1.40742e-28
2.99097e-28
0
6.94239e-28
-1.53221e-27
0
0
0
1.53523e-28
0
3.43144e-30
1.34451e-28
3.87424e-29
4.80945e-29
6.52615e-29
8.00922e-24
3.48838e-24
0
5.72162e-26
0
2.20316e-27
0
-1.7675e-27
1.77503e-27
9.37126e-29
0
0
7.31133e-30
9.80521e-28
0
1.13111e-28
0
4.82138e-28
0
4.94286e-28
3.82359e-23
1.39185e-23
0
-1.43631e-26
5.46019e-27
0
2.31543e-29
-1.5482e-27
5.63634e-29
0
1.31316e-28
0
1.82673e-28
-1.34556e-28
0
-6.71623e-28
0
2.00357e-29
2.25486e-28
6.05215e-29
2.1577e-23
1.41889e-23
2.77098e-25
0
0
-6.15996e-28
0
3.44216e-28
6.45061e-29
0
3.70532e-28
7.34684e-28
7.34684e-28
5.15127e-28
0
-7.13974e-28
8.0297e-28
0
0
0
1.1523e-23
9.75945e-24
6.89938e-25
0
3.89662e-27
4.53e-28
1.05819e-27
3.96475e-28
5.63094e-28
-1.6786e-27
1.38242e-27
9.15356e-29
0
0
6.40138e-29
0
0
-1.09553e-27
3.20537e-29
3.45499e-30
6.14021e-23
1.97473e-23
2.95921e-25
7.99678e-26
0
3.19391e-27
3.35268e-28
2.83185e-28
0
0
4.9996e-28
2.95098e-28
1.83472e-28
2.14169e-28
5.88213e-29
-2.2348e-29
2.34387e-28
0
5.12046e-28
4.1219e-29
8.98515e-24
1.30712e-23
5.27282e-25
6.46096e-26
0
0
5.03154e-28
0
1.01895e-27
1.88278e-28
5.93639e-28
9.15067e-28
1.69503e-27
-3.51527e-28
1.85242e-28
9.60101e-28
3.65639e-28
-9.56699e-28
0
5.61895e-28
1.40731e-23
5.75328e-24
3.57799e-25
0
7.34684e-28
0
1.03384e-27
5.03393e-28
3.41246e-28
0
0
-9.20551e-30
4.05895e-28
0
5.90955e-28
6.69668e-28
2.84464e-29
1.67732e-29
2.49017e-28
0
)
;

boundaryField
{
    movingWall
    {
        type            calculated;
        value           nonuniform List<scalar> 
20
(
0
0
4.80688e-25
0
2.29033e-26
-5.44287e-28
5.92843e-27
1.73035e-27
0
2.56556e-28
0
-1.0935e-27
7.80289e-28
3.27194e-27
2.21415e-27
2.74897e-28
2.65889e-30
1.10026e-28
8.15981e-28
6.97502e-29
)
;
    }
    fixedWalls
    {
        type            calculated;
        value           nonuniform List<scalar> 
60
(
1.32324e-22
1.33265e-22
3.06361e-22
2.60984e-22
9.63187e-23
1.16154e-22
1.12171e-22
6.39416e-24
3.7928e-23
1.97097e-24
0
1.95294e-23
4.16457e-24
4.2716e-23
2.03699e-22
2.05959e-22
1.67814e-22
3.15999e-22
2.00084e-22
1.02813e-22
3.10439e-29
1.25663e-28
0
0
1.06896e-29
0
0
0
1.73492e-28
3.00187e-28
7.47453e-28
1.50499e-28
1.91982e-27
5.35193e-28
4.74683e-28
0
1.64866e-29
0
7.01822e-28
0
0
0
8.20236e-25
0
3.77969e-26
-6.02037e-27
8.52562e-28
-8.68498e-28
1.44535e-28
3.70796e-27
2.30649e-27
0
1.59572e-27
9.89864e-28
0
-3.35928e-28
0
6.43559e-28
9.48511e-28
1.46628e-28
)
;
    }
    frontAndBack
    {
        type            empty;
    }
}


// ************************************************************************* //
