/*--------------------------------*- C++ -*----------------------------------*\
| =========                 |                                                 |
| \\      /  F ield         | OpenFOAM: The Open Source CFD Toolbox           |
|  \\    /   O peration     | Version:  2312                                  |
|   \\  /    A nd           | Website:  www.openfoam.com                      |
|    \\/     M anipulation  |                                                 |
\*---------------------------------------------------------------------------*/
FoamFile
{
    version     2.0;
    format      ascii;
    arch        "LSB;label=32;scalar=64";
    class       volScalarField;
    location    "6.875";
    object      QField;
}
// * * * * * * * * * * * * * * * * * * * * * * * * * * * * * * * * * * * * * //

dimensions      [0 0 -2 0 0 0 0];

internalField   nonuniform List<scalar> 
400
(
-3.7103e-23
-1.43572e-23
-3.82227e-25
-2.27059e-26
-9.22776e-27
1.60617e-28
-1.73454e-28
1.7729e-28
1.76434e-28
4.96958e-30
-4.92523e-28
0
-1.1776e-27
-6.04165e-28
0
2.62678e-28
6.71847e-29
-5.89196e-28
-6.48542e-28
8.03907e-29
-6.25812e-23
-2.01128e-23
-1.3661e-24
1.15151e-29
-4.22529e-27
1.02912e-27
4.16785e-28
-3.13449e-28
-8.01031e-29
2.00262e-28
4.86493e-28
4.67948e-28
6.86752e-29
4.0142e-28
-6.52596e-29
-3.58617e-28
-2.64093e-28
7.1829e-28
-4.36815e-28
0
-6.37459e-23
-2.22734e-23
-4.24139e-25
-8.2439e-26
9.63559e-27
-1.05234e-27
-9.25367e-28
-3.14284e-28
1.23999e-27
-9.58541e-28
-3.81222e-29
-1.25149e-27
1.41808e-28
2.99055e-28
1.27501e-27
-1.01306e-28
-2.12187e-29
9.22231e-28
-5.22081e-28
-1.10511e-28
-5.46238e-23
-1.82973e-23
-4.91028e-25
-2.03962e-26
-7.84777e-27
3.72505e-27
-4.27728e-28
-8.33147e-29
0
-1.45465e-27
7.82105e-28
-2.70842e-27
-1.01686e-27
-1.96883e-28
1.01641e-28
-8.31892e-29
-2.86063e-29
2.64345e-28
-5.75735e-28
0
-3.72576e-23
-1.18777e-23
-7.34709e-25
-1.29718e-26
0
-3.45243e-28
6.51104e-29
-1.49542e-28
-3.36819e-27
-2.11409e-29
2.36886e-27
3.76235e-28
0
-1.24153e-27
1.21445e-28
5.97615e-28
4.82483e-28
-9.88108e-30
-4.04052e-28
0
-3.07901e-23
-1.11049e-23
-5.04734e-25
1.09274e-26
-2.60263e-27
0
-1.56327e-28
1.62385e-27
2.87921e-27
1.90919e-28
1.47233e-28
-1.48542e-27
-6.28705e-28
-3.1551e-28
1.35626e-27
0
0
0
0
0
-2.21744e-23
-1.19675e-23
6.79478e-25
-7.1725e-26
1.05788e-26
-2.98896e-27
-4.01439e-27
-4.0606e-27
-3.99328e-28
-5.59253e-28
-7.89828e-28
3.88479e-28
1.83852e-28
-1.03775e-27
0
4.14811e-28
-5.89191e-28
-3.90995e-28
3.02545e-28
0
-6.82733e-24
-4.64232e-24
-3.80346e-25
2.30548e-26
-6.58232e-27
4.60354e-28
-5.79188e-29
1.27069e-27
2.18148e-27
7.97651e-28
4.0615e-29
-4.04249e-28
1.57603e-29
3.02006e-28
6.08265e-28
-7.73978e-28
-2.99756e-28
-9.78444e-28
0
0
-2.96068e-24
-3.11734e-24
-4.25853e-26
3.73383e-27
6.03834e-27
-9.58997e-28
0
-8.25584e-28
0
0
3.13708e-28
1.60673e-28
2.58183e-28
0
-5.29388e-29
4.15866e-28
3.31579e-28
1.06961e-28
-1.4728e-28
-4.47669e-28
3.76491e-24
-7.86604e-25
2.27391e-25
3.25178e-26
-2.51478e-28
4.44258e-28
-3.14313e-29
2.36664e-29
0
-2.47434e-28
-1.01441e-27
1.01083e-28
-1.44879e-28
-7.10986e-28
-7.16898e-28
3.7709e-28
3.09782e-28
6.76212e-28
-1.68263e-28
-7.46807e-29
3.37348e-24
-5.22605e-25
0
5.15029e-26
-1.24279e-27
2.22015e-27
-2.14002e-28
4.86874e-28
1.69335e-28
3.19082e-29
-9.12188e-28
6.37159e-28
6.74172e-28
6.06992e-28
0
-1.08699e-27
-1.42831e-27
7.44417e-28
2.35364e-28
-1.48781e-28
-4.92379e-24
-3.07371e-24
1.07684e-25
-1.48313e-26
1.86721e-27
-1.7463e-27
1.15104e-27
1.4506e-27
-2.01002e-28
0
-2.084e-27
-3.99718e-28
9.70391e-28
-5.75297e-29
-4.71225e-28
7.36432e-28
-2.39726e-28
1.08082e-27
-1.61985e-28
-3.32519e-28
-3.36736e-24
-2.4137e-24
-1.27807e-25
-1.18004e-26
0
-1.40742e-28
-5.71344e-28
0
-1.04653e-27
1.90532e-27
1.34429e-27
0
1.07823e-27
-8.82251e-28
0
-1.0042e-28
-5.99682e-28
-1.68711e-28
3.40084e-28
-6.52615e-29
-9.56585e-24
-5.15829e-24
-1.37889e-25
-2.95535e-28
7.75682e-27
-2.20316e-27
1.23145e-27
1.8773e-27
-6.46619e-29
-9.37126e-29
3.9092e-28
-3.41515e-28
-7.31133e-30
-1.12565e-27
7.16289e-28
-2.88272e-28
3.24442e-28
-1.78549e-27
0
-9.31891e-28
-3.56692e-23
-1.31768e-23
2.78672e-25
2.24966e-26
-4.66784e-27
9.87986e-28
-5.43727e-29
1.54822e-27
-1.7948e-28
0
-1.31316e-28
-5.14991e-28
7.29231e-28
2.52848e-28
5.68229e-28
6.88428e-28
1.18485e-28
1.21326e-28
3.20573e-28
-2.43249e-28
-5.57403e-23
-1.80449e-23
-4.67589e-25
3.30976e-27
0
6.6282e-28
0
-3.44216e-28
-1.95895e-28
0
7.86341e-28
-8.06562e-28
-9.61469e-28
-1.23038e-27
0
7.67606e-28
-1.53338e-27
0
0
0
-5.45214e-23
-1.60824e-23
-1.0286e-24
-1.03113e-26
-4.84502e-27
-4.53e-28
-1.05819e-27
-3.96475e-28
-4.09827e-29
2.06166e-27
4.29484e-28
-9.15356e-29
0
0
-2.15507e-28
3.68053e-28
0
1.09743e-27
-1.50205e-28
5.03818e-29
-5.85237e-23
-1.92944e-23
-2.60713e-25
-7.9344e-26
1.15728e-26
-3.42323e-27
-3.35268e-28
-2.83185e-28
7.45378e-28
2.65675e-28
-9.7706e-28
-1.39687e-27
-1.83472e-28
-2.14169e-28
-5.88213e-29
2.43166e-28
-8.29397e-28
0
-1.83813e-27
1.07105e-28
-5.65213e-23
-1.71745e-23
-7.38124e-25
-7.53673e-26
5.53586e-27
4.35992e-28
2.70279e-27
3.26105e-29
-1.01895e-27
-1.88278e-28
-4.75403e-28
-1.27147e-27
-1.51095e-28
1.20894e-27
1.92786e-28
-1.5371e-27
-3.65639e-28
9.57385e-28
2.15386e-28
-5.61895e-28
-2.71021e-23
-7.8048e-24
-4.86558e-25
1.22629e-26
1.88711e-28
0
-1.03384e-27
-6.0814e-28
-2.24326e-28
0
0
5.98458e-28
-4.07828e-28
0
-6.41494e-28
-7.01423e-28
4.60163e-28
-1.11009e-28
-2.49017e-28
2.48978e-29
)
;

boundaryField
{
    movingWall
    {
        type            calculated;
        value           nonuniform List<scalar> 
20
(
5.40945e-24
4.17714e-24
-1.065e-24
1.2055e-25
-2.1246e-26
1.36539e-27
-5.92843e-27
-2.28664e-27
8.54649e-28
-2.56556e-28
3.69597e-28
1.55715e-27
-6.04583e-28
-3.27194e-27
-2.91752e-27
-1.04307e-27
4.16495e-28
-2.84313e-28
-8.15981e-28
-9.19622e-29
)
;
    }
    fixedWalls
    {
        type            calculated;
        value           nonuniform List<scalar> 
60
(
-2.00433e-22
-3.65254e-22
-3.35757e-22
-2.77992e-22
-2.12813e-22
-1.73095e-22
-1.13434e-22
-6.42493e-23
-2.98282e-23
1.7367e-23
1.76283e-23
-2.58182e-23
-3.43006e-23
-6.35799e-23
-1.83247e-22
-2.9057e-22
-3.02142e-22
-3.01727e-22
-3.00441e-22
-1.48955e-22
1.31712e-28
-9.95645e-28
0
0
5.11716e-29
0
0
0
-1.81772e-28
-3.00187e-28
-3.55916e-28
-5.448e-28
-1.91982e-27
-1.31434e-27
-7.50814e-28
0
8.25455e-29
2.36196e-28
-7.01822e-28
1.32755e-28
8.83295e-24
6.44883e-24
-2.17579e-24
1.48806e-25
-3.77969e-26
7.50611e-27
-8.52562e-28
8.71418e-28
-1.44535e-28
-3.27349e-27
-3.19475e-27
6.76797e-28
-8.01301e-28
-9.89864e-28
0
4.30372e-28
1.10075e-28
-6.43559e-28
-6.10239e-28
-3.13332e-28
)
;
    }
    frontAndBack
    {
        type            empty;
    }
}


// ************************************************************************* //
