/*--------------------------------*- C++ -*----------------------------------*\
| =========                 |                                                 |
| \\      /  F ield         | OpenFOAM: The Open Source CFD Toolbox           |
|  \\    /   O peration     | Version:  2312                                  |
|   \\  /    A nd           | Website:  www.openfoam.com                      |
|    \\/     M anipulation  |                                                 |
\*---------------------------------------------------------------------------*/
FoamFile
{
    version     2.0;
    format      ascii;
    arch        "LSB;label=32;scalar=64";
    class       volVectorField;
    location    "6.875";
    object      UNear;
}
// * * * * * * * * * * * * * * * * * * * * * * * * * * * * * * * * * * * * * //

dimensions      [0 1 -1 0 0 0 0];

internalField   nonuniform List<vector> 
400
(
(-1 1.73339e-13 0)
(-1 -3.73578e-14 0)
(-1 8.89843e-15 0)
(-1 -1.77049e-15 0)
(-1 5.21414e-16 0)
(-1 -6.82647e-17 0)
(-1 1.35595e-17 0)
(-1 -4.27143e-18 0)
(-1 -5.18491e-17 0)
(-1 2.82749e-17 0)
(-1 1.49689e-16 0)
(-1 1.46255e-16 0)
(-1 9.8889e-17 0)
(-1 -4.95471e-18 0)
(-1 -1.25598e-17 0)
(-1 2.42955e-17 0)
(-1 3.58958e-17 0)
(-1 -4.91229e-19 0)
(-1 -3.65626e-17 0)
(-1 2.35836e-17 0)
(-1 -1.71464e-16 0)
(-1 -9.9051e-17 0)
(-1 -8.48686e-17 0)
(-1 -9.11522e-17 0)
(-1 -8.06202e-17 0)
(-1 9.00748e-18 0)
(-1 4.59392e-17 0)
(-1 6.83615e-17 0)
(-1 7.3917e-18 0)
(-1 -2.64415e-17 0)
(-1 3.20196e-17 0)
(-1 6.33006e-17 0)
(-1 1.18341e-16 0)
(-1 8.62008e-17 0)
(-1 4.42918e-17 0)
(-1 7.41626e-17 0)
(-1 1.10445e-16 0)
(-1 -2.32706e-17 0)
(-1 -1.54557e-16 0)
(-1 -5.32425e-17 0)
(-1 -1.43044e-13 0)
(-1 3.13544e-14 0)
(-1 -7.36019e-15 0)
(-1 1.56978e-15 0)
(-1 -4.58334e-16 0)
(-1 -1.44781e-17 0)
(-1 -7.00903e-17 0)
(-1 -4.38134e-17 0)
(-1 -1.17099e-16 0)
(-1 -1.96305e-16 0)
(-1 -2.96808e-17 0)
(-1 1.38474e-16 0)
(-1 1.24226e-16 0)
(-1 1.12488e-16 0)
(-1 1.38939e-17 0)
(-1 -4.43115e-17 0)
(-1 -2.09281e-17 0)
(-1 -3.64832e-17 0)
(-1 -1.17141e-16 0)
(-1 -8.85161e-17 0)
(-1 1.29433e-13 0)
(-1 -2.80553e-14 0)
(-1 6.62771e-15 0)
(-1 -1.45603e-15 0)
(-1 3.18671e-16 0)
(-1 -1.81058e-16 0)
(-1 -1.39429e-16 0)
(-1 -1.41607e-16 0)
(-1 -2.04374e-16 0)
(-1 -1.59552e-16 0)
(-1 1.7955e-17 0)
(-1 1.28994e-16 0)
(-1 9.2009e-17 0)
(-1 7.79595e-17 0)
(-1 1.93719e-17 0)
(-1 -3.28568e-17 0)
(-1 -5.94697e-17 0)
(-1 2.83345e-17 0)
(-1 3.80564e-17 0)
(-1 -1.24711e-17 0)
(-1 -3.15478e-14 0)
(-1 5.94085e-15 0)
(-1 -1.72909e-15 0)
(-1 6.48077e-17 0)
(-1 -1.12969e-16 0)
(-1 5.49919e-17 0)
(-1 1.44031e-17 0)
(-1 5.18694e-17 0)
(-1 6.95744e-17 0)
(-1 7.20311e-17 0)
(-1 -7.00365e-17 0)
(-1 -2.19288e-16 0)
(-1 -1.99894e-16 0)
(-1 -1.48956e-16 0)
(-1 -5.94235e-17 0)
(-1 -1.36201e-17 0)
(-1 5.0817e-17 0)
(-1 1.3377e-16 0)
(-1 5.44625e-17 0)
(-1 -1.52986e-17 0)
(-1 -8.64786e-14 0)
(-1 1.86998e-14 0)
(-1 -4.54277e-15 0)
(-1 9.36833e-16 0)
(-1 -2.4081e-16 0)
(-1 -2.33675e-17 0)
(-1 -1.6345e-16 0)
(-1 -8.10419e-17 0)
(-1 1.89678e-16 0)
(-1 2.67081e-16 0)
(-1 1.52997e-16 0)
(-1 8.08591e-18 0)
(-1 -9.86603e-17 0)
(-1 -1.51063e-16 0)
(-1 -7.11587e-17 0)
(-1 9.41187e-19 0)
(-1 5.73064e-17 0)
(-1 6.57591e-17 0)
(-1 1.13735e-17 0)
(-1 -2.39939e-17 0)
(-1 1.39456e-13 0)
(-1 -2.96877e-14 0)
(-1 7.13259e-15 0)
(-1 -1.27903e-15 0)
(-1 5.17129e-16 0)
(-1 8.11173e-17 0)
(-1 9.29591e-17 0)
(-1 -1.71109e-18 0)
(-1 8.74468e-17 0)
(-1 1.84719e-17 0)
(-1 -1.57171e-17 0)
(-1 7.70791e-17 0)
(-1 3.20574e-17 0)
(-1 -3.25533e-17 0)
(-1 -1.03782e-16 0)
(-1 -7.82102e-17 0)
(-1 3.05492e-17 0)
(-1 1.56146e-17 0)
(-1 1.14455e-17 0)
(-1 -3.01595e-17 0)
(-1 -5.74396e-14 0)
(-1 1.17613e-14 0)
(-1 -2.8779e-15 0)
(-1 5.06146e-16 0)
(-1 -6.32475e-17 0)
(-1 2.31025e-16 0)
(-1 3.30233e-16 0)
(-1 2.90726e-16 0)
(-1 9.58324e-17 0)
(-1 -1.52544e-17 0)
(-1 -5.13082e-17 0)
(-1 -2.86963e-17 0)
(-1 -3.08308e-17 0)
(-1 -3.98805e-17 0)
(-1 -8.65411e-17 0)
(-1 -1.14684e-16 0)
(-1 -5.13802e-17 0)
(-1 -5.93888e-17 0)
(-1 -5.44717e-17 0)
(-1 -4.3039e-17 0)
(-1 -5.89192e-14 0)
(-1 1.31302e-14 0)
(-1 -3.1079e-15 0)
(-1 6.17995e-16 0)
(-1 -2.84414e-16 0)
(-1 -1.24589e-16 0)
(-1 -1.07511e-16 0)
(-1 -6.72729e-18 0)
(-1 -2.56704e-17 0)
(-1 2.03868e-17 0)
(-1 -3.04645e-18 0)
(-1 -3.11075e-17 0)
(-1 3.74272e-17 0)
(-1 6.41452e-17 0)
(-1 6.1009e-17 0)
(-1 2.94026e-17 0)
(-1 -6.71766e-17 0)
(-1 -1.66422e-16 0)
(-1 -1.06638e-16 0)
(-1 1.22041e-17 0)
(-1 1.03486e-13 0)
(-1 -2.21083e-14 0)
(-1 5.34209e-15 0)
(-1 -1.13519e-15 0)
(-1 1.67393e-16 0)
(-1 -1.77264e-17 0)
(-1 3.49105e-18 0)
(-1 -1.38611e-17 0)
(-1 -5.24032e-18 0)
(-1 4.09656e-17 0)
(-1 3.23079e-17 0)
(-1 -5.03656e-17 0)
(-1 -4.87528e-17 0)
(-1 -4.23797e-17 0)
(-1 -1.06072e-16 0)
(-1 -1.39926e-16 0)
(-1 -1.24874e-16 0)
(-1 -2.56366e-17 0)
(-1 -1.35048e-19 0)
(-1 2.76873e-17 0)
(-1 -1.0162e-13 0)
(-1 2.26784e-14 0)
(-1 -5.21643e-15 0)
(-1 1.16718e-15 0)
(-1 -3.77193e-16 0)
(-1 -5.93612e-17 0)
(-1 -6.38065e-17 0)
(-1 4.92e-17 0)
(-1 1.15818e-16 0)
(-1 1.11674e-16 0)
(-1 1.21704e-16 0)
(-1 9.37207e-17 0)
(-1 -8.03803e-18 0)
(-1 -6.70085e-17 0)
(-1 -1.20008e-16 0)
(-1 -9.09169e-17 0)
(-1 -8.12623e-17 0)
(-1 2.318e-17 0)
(-1 8.76361e-18 0)
(-1 -6.36539e-17 0)
(-1 9.42495e-14 0)
(-1 -2.04209e-14 0)
(-1 4.80738e-15 0)
(-1 -9.57315e-16 0)
(-1 3.2023e-16 0)
(-1 -1.38798e-16 0)
(-1 -9.0266e-17 0)
(-1 2.75462e-18 0)
(-1 8.8126e-17 0)
(-1 -2.19643e-17 0)
(-1 -1.35961e-16 0)
(-1 -7.478e-17 0)
(-1 2.39802e-17 0)
(-1 4.45571e-17 0)
(-1 2.75547e-18 0)
(-1 6.05887e-17 0)
(-1 1.38603e-16 0)
(-1 2.16582e-17 0)
(-1 -6.07734e-17 0)
(-1 -4.75726e-17 0)
(-1 -3.19571e-14 0)
(-1 5.99677e-15 0)
(-1 -1.48395e-15 0)
(-1 1.82536e-16 0)
(-1 -3.27544e-17 0)
(-1 5.75257e-17 0)
(-1 1.91703e-17 0)
(-1 6.95498e-17 0)
(-1 6.88688e-17 0)
(-1 -4.86682e-17 0)
(-1 -2.0991e-16 0)
(-1 -2.99897e-16 0)
(-1 -1.13957e-16 0)
(-1 1.69499e-17 0)
(-1 5.3843e-17 0)
(-1 -4.68574e-18 0)
(-1 7.18091e-18 0)
(-1 -7.4195e-17 0)
(-1 -5.09983e-17 0)
(-1 5.9024e-17 0)
(-1 -7.95186e-14 0)
(-1 1.80094e-14 0)
(-1 -3.97783e-15 0)
(-1 1.04665e-15 0)
(-1 -1.94089e-16 0)
(-1 9.27259e-17 0)
(-1 9.11642e-18 0)
(-1 -4.80305e-17 0)
(-1 -1.64034e-16 0)
(-1 -1.55364e-16 0)
(-1 -1.2946e-16 0)
(-1 -2.03438e-16 0)
(-1 -2.11917e-16 0)
(-1 -2.0209e-16 0)
(-1 5.76837e-18 0)
(-1 7.91128e-17 0)
(-1 2.79813e-17 0)
(-1 -4.05852e-17 0)
(-1 -5.30232e-17 0)
(-1 -2.01897e-17 0)
(-1 1.60287e-13 0)
(-1 -3.48514e-14 0)
(-1 8.20674e-15 0)
(-1 -1.69116e-15 0)
(-1 4.68242e-16 0)
(-1 5.22411e-17 0)
(-1 1.27872e-16 0)
(-1 -3.52354e-17 0)
(-1 -1.57725e-16 0)
(-1 -1.05994e-16 0)
(-1 -7.1111e-17 0)
(-1 -1.54441e-16 0)
(-1 -2.83788e-16 0)
(-1 -1.80657e-16 0)
(-1 3.69047e-17 0)
(-1 1.01668e-16 0)
(-1 1.63897e-16 0)
(-1 1.45381e-16 0)
(-1 2.21495e-17 0)
(-1 -3.96666e-17 0)
(-1 -1.08891e-13 0)
(-1 2.36255e-14 0)
(-1 -5.64338e-15 0)
(-1 1.23375e-15 0)
(-1 -2.15361e-16 0)
(-1 1.04792e-16 0)
(-1 2.91764e-17 0)
(-1 -4.63312e-17 0)
(-1 -9.78171e-17 0)
(-1 -1.16396e-16 0)
(-1 -5.80229e-17 0)
(-1 -2.10046e-18 0)
(-1 -7.73978e-17 0)
(-1 2.53192e-17 0)
(-1 7.84536e-17 0)
(-1 3.81191e-17 0)
(-1 -6.31447e-17 0)
(-1 4.1761e-18 0)
(-1 6.52473e-17 0)
(-1 1.59233e-17 0)
(-1 -2.61554e-14 0)
(-1 6.10694e-15 0)
(-1 -1.38068e-15 0)
(-1 4.12307e-16 0)
(-1 7.12477e-17 0)
(-1 1.2067e-16 0)
(-1 -1.23161e-17 0)
(-1 -7.45324e-17 0)
(-1 -8.54527e-17 0)
(-1 -4.28797e-17 0)
(-1 1.04702e-16 0)
(-1 1.43128e-16 0)
(-1 7.09312e-17 0)
(-1 4.63075e-17 0)
(-1 -1.44305e-17 0)
(-1 2.84342e-17 0)
(-1 -1.18961e-16 0)
(-1 -4.12414e-17 0)
(-1 8.34786e-17 0)
(-1 -1.80497e-17 0)
(-1 1.22952e-13 0)
(-1 -2.69941e-14 0)
(-1 6.30249e-15 0)
(-1 -1.39431e-15 0)
(-1 4.05585e-16 0)
(-1 2.88892e-17 0)
(-1 1.5434e-17 0)
(-1 -1.23414e-17 0)
(-1 -1.93916e-17 0)
(-1 7.93239e-17 0)
(-1 1.41762e-16 0)
(-1 5.15577e-17 0)
(-1 3.84527e-17 0)
(-1 1.77131e-17 0)
(-1 -1.0544e-18 0)
(-1 6.86246e-18 0)
(-1 2.88498e-17 0)
(-1 1.7942e-17 0)
(-1 9.83157e-18 0)
(-1 -2.6643e-18 0)
(-1 -4.93905e-14 0)
(-1 9.90386e-15 0)
(-1 -2.62334e-15 0)
(-1 4.82896e-16 0)
(-1 1.54779e-17 0)
(-1 7.44218e-17 0)
(-1 -9.64093e-18 0)
(-1 -1.05292e-16 0)
(-1 -8.48049e-17 0)
(-1 -1.13112e-17 0)
(-1 -6.16507e-17 0)
(-1 -2.86567e-17 0)
(-1 9.63381e-17 0)
(-1 -1.88112e-17 0)
(-1 -1.04032e-16 0)
(-1 -1.20165e-16 0)
(-1 3.40353e-17 0)
(-1 1.47318e-17 0)
(-1 -1.42571e-16 0)
(-1 -6.47316e-17 0)
(-1 -8.74055e-14 0)
(-1 1.88245e-14 0)
(-1 -4.60933e-15 0)
(-1 1.07003e-15 0)
(-1 -8.50999e-17 0)
(-1 7.16374e-17 0)
(-1 -3.38567e-17 0)
(-1 -1.19072e-16 0)
(-1 -7.1224e-17 0)
(-1 -4.58045e-17 0)
(-1 -8.56668e-17 0)
(-1 -2.4998e-17 0)
(-1 5.15566e-17 0)
(-1 -2.75654e-17 0)
(-1 -1.32637e-16 0)
(-1 -1.38614e-16 0)
(-1 -2.91025e-17 0)
(-1 2.62233e-17 0)
(-1 -7.39173e-17 0)
(-1 -6.56479e-17 0)
)
;

boundaryField
{
    movingWall
    {
        type            fixedValue;
        value           uniform (-1 -0 -0);
    }
    fixedWalls
    {
        type            calculated;
        value           nonuniform List<vector> 
60
(
(-1 6.93356e-14 0)
(-1 -6.85858e-17 0)
(-1 -5.72176e-14 0)
(-1 5.17734e-14 0)
(-1 -1.26191e-14 0)
(-1 -3.45914e-14 0)
(-1 5.57823e-14 0)
(-1 -2.29759e-14 0)
(-1 -2.35677e-14 0)
(-1 4.13943e-14 0)
(-1 -4.0648e-14 0)
(-1 3.76998e-14 0)
(-1 -1.27828e-14 0)
(-1 -3.18075e-14 0)
(-1 6.41147e-14 0)
(-1 -4.35565e-14 0)
(-1 -1.04622e-14 0)
(-1 4.91808e-14 0)
(-1 -1.97562e-14 0)
(-1 -3.49622e-14 0)
(-1 9.43343e-18 0)
(-1 -2.1297e-17 0)
(-1 -3.54064e-17 0)
(-1 -4.98845e-18 0)
(-1 -6.11943e-18 0)
(-1 -9.59757e-18 0)
(-1 -1.20638e-17 0)
(-1 -1.72156e-17 0)
(-1 4.88162e-18 0)
(-1 1.10749e-17 0)
(-1 -2.54616e-17 0)
(-1 -1.9029e-17 0)
(-1 2.36096e-17 0)
(-1 -8.07588e-18 0)
(-1 -1.58666e-17 0)
(-1 6.36932e-18 0)
(-1 -7.21987e-18 0)
(-1 -1.06572e-18 0)
(-1 -2.58927e-17 0)
(-1 -2.62592e-17 0)
(-1 6.93356e-14 0)
(-1 -1.49431e-14 0)
(-1 3.55937e-15 0)
(-1 -7.08195e-16 0)
(-1 2.08566e-16 0)
(-1 -2.73059e-17 0)
(-1 5.42379e-18 0)
(-1 -1.70857e-18 0)
(-1 -2.07397e-17 0)
(-1 1.131e-17 0)
(-1 5.98758e-17 0)
(-1 5.8502e-17 0)
(-1 3.95556e-17 0)
(-1 -1.98188e-18 0)
(-1 -5.02391e-18 0)
(-1 9.71822e-18 0)
(-1 1.43583e-17 0)
(-1 -1.96491e-19 0)
(-1 -1.4625e-17 0)
(-1 9.43343e-18 0)
)
;
    }
    frontAndBack
    {
        type            empty;
    }
}


// ************************************************************************* //
