/*--------------------------------*- C++ -*----------------------------------*\
| =========                 |                                                 |
| \\      /  F ield         | OpenFOAM: The Open Source CFD Toolbox           |
|  \\    /   O peration     | Version:  2312                                  |
|   \\  /    A nd           | Website:  www.openfoam.com                      |
|    \\/     M anipulation  |                                                 |
\*---------------------------------------------------------------------------*/
FoamFile
{
    version     2.0;
    format      ascii;
    arch        "LSB;label=32;scalar=64";
    class       volScalarField;
    location    "6.875";
    object      zeroGradient(p);
}
// * * * * * * * * * * * * * * * * * * * * * * * * * * * * * * * * * * * * * //

dimensions      [0 2 -2 0 0 0 0];

internalField   nonuniform List<scalar> 
400
(
3.62541e-16
3.85855e-15
2.43501e-15
2.73093e-15
2.71743e-15
2.82923e-15
2.68357e-15
2.88377e-15
2.92024e-15
2.87767e-15
2.97418e-15
2.88728e-15
2.92419e-15
2.73982e-15
2.68385e-15
2.65262e-15
2.72024e-15
2.44706e-15
2.11018e-15
2.26986e-15
2.89606e-15
0
2.56384e-15
2.49767e-15
2.87962e-15
2.82596e-15
2.69234e-15
2.8566e-15
3.05306e-15
3.01866e-15
3.03088e-15
2.90584e-15
2.79821e-15
2.7539e-15
2.65034e-15
2.60223e-15
2.54309e-15
2.43225e-15
2.32233e-15
2.15691e-15
2.12464e-15
4.10775e-15
2.69982e-15
2.90574e-15
3.00428e-15
2.91804e-15
2.7502e-15
2.90121e-15
3.07404e-15
2.9815e-15
2.93539e-15
2.72516e-15
2.64198e-15
2.62127e-15
2.60145e-15
2.55949e-15
2.42566e-15
2.32756e-15
2.36384e-15
2.42355e-15
2.32873e-15
2.89927e-15
2.64456e-15
2.90234e-15
3.05335e-15
3.0679e-15
3.03491e-15
3.10408e-15
3.06249e-15
3.07334e-15
2.90169e-15
2.66033e-15
2.71817e-15
2.7232e-15
2.59171e-15
2.43055e-15
2.37409e-15
2.2594e-15
2.23806e-15
2.47742e-15
3.06303e-15
6.02272e-16
2.77805e-15
2.784e-15
2.98958e-15
3.14158e-15
3.18998e-15
3.10938e-15
3.13177e-15
3.00339e-15
2.8256e-15
2.73467e-15
2.81693e-15
2.68085e-15
2.6247e-15
2.4302e-15
2.42709e-15
2.2239e-15
2.20501e-15
2.49822e-15
1.94769e-15
4.97318e-15
2.88221e-15
3.08043e-15
2.85029e-15
3.01104e-15
3.06322e-15
3.01249e-15
3.07111e-15
3.0425e-15
2.78345e-15
2.84523e-15
2.84151e-15
2.86053e-15
2.64112e-15
2.51966e-15
2.48413e-15
2.21077e-15
2.24487e-15
2.53984e-15
2.8056e-15
3.32125e-15
2.71789e-15
2.90779e-15
2.83468e-15
2.94301e-15
3.14915e-15
3.26944e-15
2.97623e-15
3.03767e-15
2.84749e-15
2.82451e-15
2.78708e-15
2.90257e-15
2.75258e-15
2.56167e-15
2.38037e-15
2.20919e-15
2.33517e-15
2.60402e-15
3.82399e-15
7.23155e-17
2.75308e-15
2.48848e-15
2.7818e-15
2.69372e-15
2.87229e-15
3.12797e-15
3.00396e-15
2.99867e-15
3.01436e-15
2.80693e-15
2.89038e-15
2.85106e-15
2.70884e-15
2.71063e-15
2.31725e-15
2.12361e-15
2.35946e-15
2.66463e-15
2.59285e-15
5.87166e-15
2.78536e-15
2.92729e-15
2.69266e-15
2.78977e-15
2.88154e-15
2.89446e-15
2.94017e-15
2.92146e-15
2.81218e-15
2.81723e-15
2.87363e-15
2.88576e-15
2.72014e-15
2.59903e-15
2.2704e-15
2.24918e-15
2.41987e-15
2.758e-15
3.00762e-15
1.72842e-15
2.98254e-15
2.70718e-15
2.7762e-15
2.80822e-15
2.85872e-15
2.90246e-15
2.9624e-15
3.04006e-15
3.0911e-15
2.9508e-15
2.78986e-15
2.76678e-15
2.55425e-15
2.48127e-15
2.28959e-15
2.33449e-15
2.52102e-15
2.6446e-15
3.28775e-15
2.81988e-15
3.01354e-15
2.95183e-15
2.91307e-15
2.69698e-15
2.83993e-15
3.03936e-15
3.12914e-15
3.09765e-15
2.95229e-15
2.83192e-15
2.72147e-15
2.5901e-15
2.52183e-15
2.55999e-15
2.42806e-15
2.24038e-15
2.48522e-15
2.65483e-15
3.37149e-15
4.01375e-15
2.9537e-15
2.77823e-15
2.68391e-15
2.97844e-15
2.96577e-15
2.94354e-15
2.94795e-15
3.00719e-15
2.97893e-15
2.63624e-15
2.67205e-15
2.55157e-15
2.49931e-15
2.49787e-15
2.40822e-15
2.28085e-15
2.50957e-15
2.83474e-15
3.24655e-15
2.50669e-16
3.04302e-15
2.58747e-15
2.66531e-15
2.94481e-15
3.11375e-15
2.94686e-15
2.75021e-15
2.79105e-15
2.94205e-15
2.79133e-15
2.59669e-15
2.49765e-15
2.60217e-15
2.58449e-15
2.27414e-15
2.32234e-15
2.67995e-15
2.7949e-15
2.22208e-15
5.95937e-15
2.67729e-15
2.89264e-15
2.65612e-15
2.83246e-15
3.1028e-15
2.96708e-15
2.78193e-15
2.77923e-15
2.75622e-15
2.85199e-15
2.63666e-15
2.64174e-15
2.73051e-15
2.64308e-15
2.38966e-15
2.48769e-15
2.73448e-15
2.59752e-15
3.04699e-15
1.71774e-15
2.66625e-15
2.65029e-15
2.75509e-15
2.65135e-15
2.93552e-15
2.95509e-15
2.9186e-15
2.78448e-15
2.73424e-15
2.88227e-15
2.67745e-15
2.77037e-15
2.76908e-15
2.70725e-15
2.39015e-15
2.43956e-15
2.57224e-15
2.80819e-15
3.36386e-15
1.30157e-15
2.67379e-15
2.70407e-15
2.88469e-15
2.80321e-15
2.85792e-15
2.85825e-15
2.90112e-15
2.77381e-15
2.73436e-15
2.81753e-15
3.13389e-15
2.88998e-15
2.62258e-15
2.63315e-15
2.36123e-15
2.40111e-15
2.58696e-15
2.70985e-15
2.07953e-15
4.70485e-15
2.75237e-15
3.03999e-15
2.89192e-15
2.76076e-15
2.80932e-15
2.79901e-15
2.86804e-15
2.77773e-15
2.89001e-15
2.9546e-15
3.24973e-15
2.96374e-15
2.56942e-15
2.54124e-15
2.49117e-15
2.44653e-15
2.43935e-15
2.73445e-15
3.0693e-15
1.5358e-15
2.76883e-15
2.71388e-15
2.71939e-15
2.55196e-15
2.76207e-15
2.80847e-15
2.82649e-15
2.99595e-15
2.7448e-15
2.78367e-15
3.14142e-15
2.95893e-15
2.69294e-15
2.46443e-15
2.60389e-15
2.45259e-15
2.2845e-15
2.78173e-15
3.1565e-15
1.13632e-15
2.69698e-15
2.70261e-15
2.66103e-15
2.4025e-15
2.74994e-15
2.72341e-15
2.87098e-15
2.84849e-15
2.61676e-15
2.84783e-15
3.06143e-15
2.88639e-15
2.67665e-15
2.49843e-15
2.53876e-15
2.47356e-15
2.57794e-15
2.7814e-15
1.47244e-15
3.79417e-15
2.83348e-15
2.82696e-15
2.39977e-15
2.25629e-15
2.51159e-15
2.80097e-15
2.89542e-15
2.74178e-15
2.75392e-15
2.90327e-15
2.83555e-15
2.81439e-15
2.7212e-15
2.67259e-15
2.52566e-15
2.36563e-15
2.6427e-15
2.98469e-15
)
;

boundaryField
{
    movingWall
    {
        type            zeroGradient;
    }
    fixedWalls
    {
        type            zeroGradient;
    }
    frontAndBack
    {
        type            empty;
    }
}


// ************************************************************************* //
