/*--------------------------------*- C++ -*----------------------------------*\
| =========                 |                                                 |
| \\      /  F ield         | OpenFOAM: The Open Source CFD Toolbox           |
|  \\    /   O peration     | Version:  2312                                  |
|   \\  /    A nd           | Website:  www.openfoam.com                      |
|    \\/     M anipulation  |                                                 |
\*---------------------------------------------------------------------------*/
FoamFile
{
    version     2.0;
    format      ascii;
    arch        "LSB;label=32;scalar=64";
    class       volScalarField;
    location    "1.25";
    object      blendingFactorField;
}
// * * * * * * * * * * * * * * * * * * * * * * * * * * * * * * * * * * * * * //

dimensions      [0 0 0 0 0 0 0];

internalField   nonuniform List<scalar> 
400
(
0
0
0
0
0.0234218
0.0947259
0.164251
0.229994
0.288773
0.335612
0.364299
0.36923
0.36923
0.34245
0.28075
0.186584
0.0701693
0
0
0
0
0
0
0.0186573
0.101373
0.184419
0.265527
0.341753
0.409055
0.462233
0.494911
0.499124
0.499124
0.469109
0.400856
0.296838
0.167948
0.0321218
0
0
0
0
0
0.045879
0.129931
0.215483
0.300567
0.382435
0.457192
0.519471
0.562106
0.576378
0.576378
0.553479
0.486103
0.373494
0.227101
0.121173
0.0297575
0
0
0.0150573
0.0445127
0.0624878
0.143912
0.231757
0.321648
0.411737
0.498788
0.577466
0.639636
0.674138
0.674138
0.667239
0.602974
0.472205
0.36702
0.292813
0.140116
0
0.0259477
0.0939331
0.124292
0.144717
0.159367
0.240867
0.337576
0.43937
0.544323
0.647838
0.741632
0.81264
0.842086
0.842086
0.799241
0.65644
0.660725
0.539255
0.255944
0
0.0968609
0.171919
0.203595
0.226917
0.246768
0.263852
0.347091
0.462802
0.59028
0.727705
0.870502
1
1
1
1
1
1
0.99257
0.505924
0
0.164013
0.247015
0.280703
0.307558
0.333812
0.360728
0.38739
0.473301
0.624715
0.803755
1
1
1
1
1
1
1
1
1
0.0734591
0.225601
0.31725
0.353487
0.384222
0.417526
0.455788
0.499299
0.546087
0.628036
0.849733
1
1
1
1
1
1
1
1
1
0.638082
0.280061
0.380675
0.419541
0.453783
0.493619
0.542912
0.603629
0.676373
0.762226
0.868627
1
1
1
1
1
1
1
1
1
1
0.3262
0.43555
0.476477
0.512846
0.557129
0.6147
0.68916
0.78357
0.903679
1
1
1
1
1
1
1
1
1
1
1
0.3635
0.48071
0.52237
0.558424
0.60354
0.664374
0.745628
0.851648
0.989665
1
1
1
1
1
0.894601
0.982237
1
1
1
1
0.392484
0.515985
0.556178
0.588537
0.629807
0.687572
0.766897
0.87182
1
1
1
1
1
1
0
0.930022
1
1
1
1
0.415303
0.542484
0.577956
0.602487
0.634778
0.687572
0.766897
0.87182
1
1
1
1
1
1
0.569169
0.846191
1
1
1
1
0.436046
0.562649
0.588934
0.602487
0.634778
0.68297
0.75197
0.844251
0.961422
1
1
1
1
1
1
1
1
1
1
1
0.461959
0.580519
0.590453
0.600766
0.619053
0.651832
0.704195
0.776864
0.86794
0.972563
1
1
1
1
1
1
1
1
1
1
0.504085
0.598912
0.590453
0.584214
0.583647
0.597577
0.629152
0.6783
0.741239
0.80976
0.868625
0.888198
1
1
1
1
1
1
1
1
0.585422
0.619499
0.583541
0.553524
0.530575
0.523084
0.532167
0.556803
0.592807
0.63178
0.699624
0.915781
1
1
1
1
1
1
1
1
0.718428
0.619499
0.559726
0.502901
0.460344
0.431591
0.417198
0.417291
0.441607
0.643006
0.858532
1
1
1
1
1
1
1
1
1
0.9122
0.60823
0.500585
0.43026
0.368711
0.518432
0.737725
0.956467
1
1
1
1
1
1
1
1
1
1
1
1
0.9122
1
1
1
1
1
1
1
1
1
1
1
1
1
1
1
1
1
1
1
)
;

boundaryField
{
    movingWall
    {
        type            zeroGradient;
    }
    fixedWalls
    {
        type            zeroGradient;
    }
    frontAndBack
    {
        type            empty;
    }
}


// ************************************************************************* //
