/*--------------------------------*- C++ -*----------------------------------*\
| =========                 |                                                 |
| \\      /  F ield         | OpenFOAM: The Open Source CFD Toolbox           |
|  \\    /   O peration     | Version:  2312                                  |
|   \\  /    A nd           | Website:  www.openfoam.com                      |
|    \\/     M anipulation  |                                                 |
\*---------------------------------------------------------------------------*/
FoamFile
{
    version     2.0;
    format      ascii;
    arch        "LSB;label=32;scalar=64";
    class       volVectorField;
    location    "1.25";
    object      diffU;
}
// * * * * * * * * * * * * * * * * * * * * * * * * * * * * * * * * * * * * * //

dimensions      [0 1 -1 0 0 0 0];

internalField   nonuniform List<vector> 
400
(
(0 0 0)
(-0.00134091 0.000595158 0)
(-0.00370699 0.000990566 0)
(-0.00640715 0.00114537 0)
(-0.00925315 0.00118373 0)
(-0.0121252 0.00117621 0)
(-0.0149585 0.0011429 0)
(-0.0176846 0.00107838 0)
(-0.0201994 0.000954978 0)
(-0.0223709 0.000724715 0)
(-0.0239483 0.000363976 0)
(-0.0245785 -6.62897e-05 0)
(-0.0242141 -0.000776783 0)
(-0.0223836 -0.00153234 0)
(-0.0192074 -0.00225823 0)
(-0.0149192 -0.00276879 0)
(-0.0101011 -0.00287994 0)
(-0.00548412 -0.00246743 0)
(-0.00168753 -0.00152098 0)
(0.000113698 -0.00047647 0)
(-0.000600952 0.00135922 0)
(-0.00283443 0.00289497 0)
(-0.00570346 0.00376401 0)
(-0.00884777 0.00415402 0)
(-0.0121339 0.00428594 0)
(-0.0154708 0.00427764 0)
(-0.0187791 0.00415905 0)
(-0.0219584 0.00390129 0)
(-0.0248722 0.00343417 0)
(-0.0273391 0.00266231 0)
(-0.029113 0.00151212 0)
(-0.0298934 -3.4261e-05 0)
(-0.0294107 -0.00197824 0)
(-0.0274261 -0.00414325 0)
(-0.0239114 -0.00614567 0)
(-0.0191401 -0.00750588 0)
(-0.0137248 -0.00779778 0)
(-0.0084515 -0.00686629 0)
(-0.003835 -0.00482298 0)
(-0.000650175 -0.0020598 0)
(-0.00106071 0.00371981 0)
(-0.00373432 0.0057306 0)
(-0.0067196 0.006797 0)
(-0.00990963 0.00735125 0)
(-0.0132356 0.00759304 0)
(-0.0166468 0.00762192 0)
(-0.0200833 0.00744894 0)
(-0.023455 0.00701632 0)
(-0.026633 0.00621203 0)
(-0.0294345 0.00489379 0)
(-0.0316045 0.00293638 0)
(-0.0328177 0.000275349 0)
(-0.0327081 -0.00305828 0)
(-0.0309185 -0.0067821 0)
(-0.0272538 -0.0102872 0)
(-0.0219207 -0.0127205 0)
(-0.0156702 -0.0133507 0)
(-0.00960901 -0.0120257 0)
(-0.00447104 -0.00909396 0)
(-0.000890546 -0.00486064 0)
(-0.00126009 0.0064417 0)
(-0.00415382 0.00876378 0)
(-0.00721172 0.00991521 0)
(-0.0104233 0.0105835 0)
(-0.0137662 0.0109403 0)
(-0.0172302 0.011052 0)
(-0.0208003 0.0109019 0)
(-0.0244261 0.0103978 0)
(-0.0280117 0.00937786 0)
(-0.0313919 0.00763042 0)
(-0.0342998 0.00494064 0)
(-0.0363499 0.00115633 0)
(-0.0370301 -0.00373327 0)
(-0.0356925 -0.00941441 0)
(-0.0317473 -0.0150037 0)
(-0.0252356 -0.0190729 0)
(-0.017111 -0.020194 0)
(-0.00931091 -0.0180674 0)
(-0.0034925 -0.0136098 0)
(-0.000414828 -0.00750022 0)
(-0.00130164 0.00931948 0)
(-0.00426535 0.0119103 0)
(-0.00735469 0.0131044 0)
(-0.0105792 0.0138686 0)
(-0.0139512 0.0143639 0)
(-0.017499 0.0146286 0)
(-0.0212601 0.0146197 0)
(-0.0252433 0.0142079 0)
(-0.0294126 0.0131703 0)
(-0.033647 0.0111957 0)
(-0.037694 0.00793434 0)
(-0.0411434 0.00308448 0)
(-0.0433648 -0.00353423 0)
(-0.0433104 -0.0117575 0)
(-0.0396682 -0.0205402 0)
(-0.0318703 -0.0274138 0)
(-0.0206667 -0.0294774 0)
(-0.00892938 -0.0254896 0)
(-0.000985932 -0.0177257 0)
(0.00076972 -0.00879849 0)
(-0.00125901 0.012194 0)
(-0.00418575 0.0150599 0)
(-0.00724946 0.0162982 0)
(-0.0104533 0.0171679 0)
(-0.013837 0.0178462 0)
(-0.017466 0.0183577 0)
(-0.0214356 0.0186437 0)
(-0.0258312 0.0185473 0)
(-0.0307084 0.0177841 0)
(-0.0360463 0.0159307 0)
(-0.04171 0.0124857 0)
(-0.0474636 0.0069535 0)
(-0.0528761 -0.00120226 0)
(-0.0568008 -0.0122525 0)
(-0.0570336 -0.025324 0)
(-0.0509311 -0.0370075 0)
(-0.037161 -0.0425876 0)
(-0.0178738 -0.0376397 0)
(-0.000525144 -0.0230286 0)
(0.00271291 -0.00802869 0)
(-0.0011648 0.0149622 0)
(-0.0039698 0.0181338 0)
(-0.00693904 0.0194406 0)
(-0.0100604 0.02044 0)
(-0.0133954 0.0213522 0)
(-0.0170427 0.0222117 0)
(-0.0211555 0.022966 0)
(-0.0259069 0.023453 0)
(-0.0314817 0.0233563 0)
(-0.0380446 0.0221843 0)
(-0.0457863 0.0193782 0)
(-0.0551991 0.0143998 0)
(-0.0668664 0.00647983 0)
(-0.0798897 -0.00595183 0)
(-0.0896662 -0.0242913 0)
(-0.0888247 -0.0458964 0)
(-0.074644 -0.0614302 0)
(-0.0482795 -0.0604702 0)
(-0.0145759 -0.03816 0)
(0.00370761 -0.00851562 0)
(-0.0010308 0.017545 0)
(-0.00363934 0.0210546 0)
(-0.0064354 0.0224567 0)
(-0.00938649 0.023609 0)
(-0.0125672 0.0247971 0)
(-0.0160988 0.0260904 0)
(-0.0201793 0.0274703 0)
(-0.0250642 0.028813 0)
(-0.0310937 0.0298574 0)
(-0.0386969 0.0302378 0)
(-0.0486258 0.0297383 0)
(-0.0628747 0.0282523 0)
(-0.0832553 0.0236985 0)
(-0.105798 0.00964942 0)
(-0.120616 -0.0182425 0)
(-0.123813 -0.0541981 0)
(-0.113295 -0.0851292 0)
(-0.0869421 -0.0961791 0)
(-0.0456345 -0.0732756 0)
(-0.000789692 -0.0183073 0)
(-0.000864187 0.0198751 0)
(-0.003208 0.0237434 0)
(-0.00574677 0.025255 0)
(-0.00842105 0.026563 0)
(-0.0113038 0.0280348 0)
(-0.0145175 0.0297943 0)
(-0.0182736 0.031883 0)
(-0.022867 0.0342659 0)
(-0.0287365 0.0368636 0)
(-0.0364476 0.0397335 0)
(-0.0470928 0.0433958 0)
(-0.0636102 0.0476344 0)
(-0.086988 0.0465715 0)
(-0.110017 0.0286945 0)
(-0.123943 -0.00976594 0)
(-0.128092 -0.0580234 0)
(-0.125168 -0.103558 0)
(-0.109444 -0.132991 0)
(-0.0731243 -0.123779 0)
(-0.0201478 -0.0500758 0)
(-0.000675074 0.0218956 0)
(-0.00269783 0.0261255 0)
(-0.00489961 0.027737 0)
(-0.00718656 0.0291675 0)
(-0.00961072 0.0308741 0)
(-0.0122686 0.0330426 0)
(-0.0153429 0.035786 0)
(-0.0190945 0.0391801 0)
(-0.0239204 0.0433741 0)
(-0.0302595 0.0488738 0)
(-0.038921 0.0567721 0)
(-0.0520757 0.0657874 0)
(-0.0697684 0.0659943 0)
(-0.0852148 0.0443896 0)
(-0.0927141 0.000461423 0)
(-0.0950041 -0.0534715 0)
(-0.0977017 -0.105085 0)
(-0.0980769 -0.151519 0)
(-0.0808385 -0.173446 0)
(-0.0360499 -0.109442 0)
(-0.000481622 0.0235717 0)
(-0.00214834 0.028137 0)
(-0.00395437 0.029812 0)
(-0.0057604 0.0312887 0)
(-0.00758164 0.033115 0)
(-0.00946718 0.0355347 0)
(-0.0115352 0.0387198 0)
(-0.0139484 0.0428314 0)
(-0.0169287 0.048161 0)
(-0.0206244 0.055393 0)
(-0.025045 0.0656282 0)
(-0.0308575 0.0766921 0)
(-0.0388248 0.0770687 0)
(-0.0453133 0.0529068 0)
(-0.0454809 0.00590285 0)
(-0.0446215 -0.0473064 0)
(-0.0487523 -0.0953725 0)
(-0.0595354 -0.144427 0)
(-0.0639467 -0.196851 0)
(-0.0370108 -0.171071 0)
(-0.000307238 0.0249069 0)
(-0.00162391 0.0297507 0)
(-0.00301046 0.0314169 0)
(-0.00427785 0.0328217 0)
(-0.00539876 0.0345976 0)
(-0.00636867 0.0370336 0)
(-0.00722982 0.0403327 0)
(-0.00802543 0.044677 0)
(-0.00877105 0.0503468 0)
(-0.00930101 0.0578631 0)
(-0.00894591 0.0680749 0)
(-0.00741966 0.0784064 0)
(-0.0053084 0.078817 0)
(-0.00380778 0.0551896 0)
(-0.00177372 0.00774131 0)
(-0.00206361 -0.0451139 0)
(-0.00792196 -0.0882305 0)
(-0.0198032 -0.127629 0)
(-0.036533 -0.190626 0)
(-0.0284794 -0.219531 0)
(-0.000188792 0.0259208 0)
(-0.00122093 0.0309763 0)
(-0.00220513 0.0325292 0)
(-0.00292083 0.033711 0)
(-0.00330369 0.0352338 0)
(-0.00330738 0.0374161 0)
(-0.00291387 0.0404629 0)
(-0.002075 0.0445142 0)
(-0.00068293 0.0497251 0)
(0.0016212 0.0563189 0)
(0.00580615 0.0645407 0)
(0.012592 0.0726237 0)
(0.0220083 0.0717734 0)
(0.028999 0.0522542 0)
(0.0331883 0.0102784 0)
(0.0300367 -0.0388221 0)
(0.0186072 -0.0793339 0)
(0.00512626 -0.114208 0)
(-0.0138142 -0.173577 0)
(-0.0189264 -0.245948 0)
(-0.000181154 0.0268266 0)
(-0.00104292 0.0319104 0)
(-0.00169454 0.033186 0)
(-0.00188698 0.0339604 0)
(-0.00154893 0.0350154 0)
(-0.000620782 0.0366875 0)
(0.000940859 0.0391746 0)
(0.0032188 0.0425391 0)
(0.00638413 0.0467736 0)
(0.0107727 0.0518145 0)
(0.0171439 0.0573745 0)
(0.0263476 0.0619896 0)
(0.0382286 0.059754 0)
(0.0484321 0.0435118 0)
(0.0535085 0.0110628 0)
(0.0493198 -0.0288857 0)
(0.0355842 -0.0656006 0)
(0.0185883 -0.0991729 0)
(-0.000327875 -0.156518 0)
(-0.014013 -0.256894 0)
(-0.000348869 0.0275189 0)
(-0.00127662 0.0325929 0)
(-0.00167452 0.0334065 0)
(-0.00137014 0.0335593 0)
(-0.000353782 0.0339606 0)
(0.00143124 0.0349302 0)
(0.00401628 0.0366427 0)
(0.00746339 0.0391092 0)
(0.0119179 0.0422005 0)
(0.0176149 0.0456257 0)
(0.0249338 0.0488049 0)
(0.0344156 0.0504144 0)
(0.0457541 0.0470695 0)
(0.0557494 0.0341826 0)
(0.060277 0.0103001 0)
(0.0562793 -0.0201045 0)
(0.0436476 -0.0506291 0)
(0.0258682 -0.0821377 0)
(0.00727023 -0.137414 0)
(-0.0125116 -0.260631 0)
(-0.000893321 0.0295593 0)
(-0.0020441 0.0335326 0)
(-0.00221663 0.0333342 0)
(-0.00145669 0.032639 0)
(0.000215217 0.0321956 0)
(0.00275963 0.0323256 0)
(0.00618527 0.0331431 0)
(0.0105364 0.0346199 0)
(0.0159042 0.0365804 0)
(0.022393 0.0386631 0)
(0.0300912 0.0402267 0)
(0.0390358 0.0401543 0)
(0.0487638 0.0365643 0)
(0.0571561 0.0269787 0)
(0.0608488 0.0101552 0)
(0.0576437 -0.0121166 0)
(0.0467026 -0.0364124 0)
(0.0307953 -0.0658041 0)
(0.0138955 -0.117101 0)
(-0.0111932 -0.262227 0)
(-0.00193308 0.028089 0)
(-0.00393791 0.0320588 0)
(-0.00356147 0.0316225 0)
(-0.00202382 0.0304637 0)
(0.000401929 0.0293916 0)
(0.0035806 0.0288554 0)
(0.00772239 0.0288715 0)
(0.0128066 0.029443 0)
(0.0188782 0.0304131 0)
(0.0259311 0.0314662 0)
(0.0338746 0.0320808 0)
(0.0424218 0.0314333 0)
(0.0509434 0.0283905 0)
(0.0579972 0.0216612 0)
(0.0613342 0.0102748 0)
(0.0589727 -0.00550857 0)
(0.0490258 -0.0240993 0)
(0.038532 -0.0521386 0)
(0.0213677 -0.0984777 0)
(-0.00765927 -0.266701 0)
(-0.00373714 0.0451603 0)
(-0.00559905 0.043435 0)
(-0.00370787 0.0376518 0)
(-0.000969981 0.0326054 0)
(0.0023243 0.0292078 0)
(0.00645845 0.0269008 0)
(0.0114569 0.0254193 0)
(0.0173495 0.0246593 0)
(0.0241308 0.0244209 0)
(0.0317709 0.0244399 0)
(0.0401259 0.0243333 0)
(0.0488099 0.0235319 0)
(0.0571186 0.0213608 0)
(0.0639844 0.017138 0)
(0.0673569 0.0103919 0)
(0.0666085 0.000272174 0)
(0.0566766 -0.0131919 0)
(0.0566836 -0.0395729 0)
(0.024418 -0.0772942 0)
(0.0052633 -0.267672 0)
(-0.00582173 0.0173601 0)
(-0.00864617 0.0100083 0)
(-0.000641743 0.0102568 0)
(0.00806621 0.0132844 0)
(0.0172326 0.0141817 0)
(0.0264433 0.0137945 0)
(0.0353697 0.0133369 0)
(0.044141 0.0130955 0)
(0.0529423 0.013005 0)
(0.0619322 0.0129803 0)
(0.0711488 0.012918 0)
(0.0804148 0.012628 0)
(0.0892449 0.0118182 0)
(0.0970574 0.0101084 0)
(0.102152 0.00730574 0)
(0.105763 0.00226652 0)
(0.0970292 -0.00410322 0)
(0.106928 -0.0218065 0)
(0.0301508 -0.0424435 0)
(0.0712096 -0.225788 0)
(0.0409836 0.0923787 0)
(0.0626565 0.069728 0)
(0.0880676 0.0438065 0)
(0.10993 0.0291647 0)
(0.12679 0.0214234 0)
(0.14092 0.0168489 0)
(0.15376 0.0138206 0)
(0.165729 0.0116586 0)
(0.176986 0.0100268 0)
(0.187695 0.00876206 0)
(0.197968 0.00773699 0)
(0.207817 0.00685715 0)
(0.21703 0.00605953 0)
(0.225457 0.0052625 0)
(0.231729 0.00437586 0)
(0.237908 0.00312021 0)
(0.231275 0.00168535 0)
(0.251923 -0.00340623 0)
(0.125211 0.00332096 0)
(0.378247 -0.0982826 0)
)
;

boundaryField
{
    movingWall
    {
        type            calculated;
        value           uniform (1.00026 -0.000259756 0);
    }
    fixedWalls
    {
        type            calculated;
        value           uniform (0.000260944 -0.000259756 0);
    }
    frontAndBack
    {
        type            empty;
    }
}


// ************************************************************************* //
