/*--------------------------------*- C++ -*----------------------------------*\
| =========                 |                                                 |
| \\      /  F ield         | OpenFOAM: The Open Source CFD Toolbox           |
|  \\    /   O peration     | Version:  2312                                  |
|   \\  /    A nd           | Website:  www.openfoam.com                      |
|    \\/     M anipulation  |                                                 |
\*---------------------------------------------------------------------------*/
FoamFile
{
    version     2.0;
    format      ascii;
    arch        "LSB;label=32;scalar=64";
    class       volScalarField;
    location    "1.25";
    object      diffP;
}
// * * * * * * * * * * * * * * * * * * * * * * * * * * * * * * * * * * * * * //

dimensions      [0 2 -2 0 0 0 0];

internalField   nonuniform List<scalar> 
400
(
-3
-3
-3.00001
-3.00006
-3.00015
-3.00028
-3.00045
-3.00067
-3.00094
-3.00126
-3.00164
-3.00208
-3.00257
-3.00307
-3.00352
-3.00386
-3.00407
-3.00413
-3.0041
-3.00403
-3.00001
-3
-3.00002
-3.00007
-3.00017
-3.00029
-3.00046
-3.00067
-3.00093
-3.00124
-3.0016
-3.00203
-3.00249
-3.00297
-3.00342
-3.00377
-3.00398
-3.00406
-3.00404
-3.00397
-3
-3
-3
-3.00002
-3.00011
-3.00023
-3.00039
-3.00059
-3.00083
-3.00113
-3.00149
-3.0019
-3.00237
-3.00288
-3.00336
-3.00374
-3.00397
-3.00403
-3.00398
-3.0039
-3
-3
-3
-3
-3
-3.00007
-3.00022
-3.0004
-3.00063
-3.00092
-3.00127
-3.0017
-3.00221
-3.00278
-3.00336
-3.00381
-3.00403
-3.00403
-3.0039
-3.00378
-3
-3
-3
-3
-3
-3
-3
-3.0001
-3.0003
-3.00057
-3.00092
-3.00137
-3.00193
-3.00264
-3.00338
-3.00394
-3.00414
-3.00401
-3.00376
-3.00359
-3
-3
-3
-3
-3
-3
-3
-3
-3
-3.00005
-3.00037
-3.00082
-3.00143
-3.00227
-3.00322
-3.00397
-3.00417
-3.00384
-3.00346
-3.00326
-3
-3
-3
-3
-3
-3
-3
-3
-3
-3
-3
-3
-3.00037
-3.00104
-3.00185
-3.0027
-3.00334
-3.00338
-3.0031
-3.00278
-3
-3
-3
-3
-3
-3
-3
-3
-3
-3
-3
-3
-3
-3
-3
-3
-3
-3.00142
-3.00271
-3.00275
-3
-3
-3
-3
-3
-3
-3
-3
-3
-3
-3
-3
-3
-3
-3
-3
-3
-3
-3.00128
-3.00274
-3
-3
-3
-3
-3
-3
-3
-3
-3
-3
-3
-3
-3
-3
-3
-3
-3
-3
-3
-3.0012
-3
-3
-3
-3
-3
-3
-3
-3
-3
-3
-3
-3
-3
-3
-3
-3
-3
-3
-3
-3
-3
-3
-3
-3
-3
-3
-3
-3
-3
-3
-3
-3
-3
-3
-3
-3
-3
-3
-3
-3
-3
-3
-3
-3
-3
-3
-3
-3
-3
-3
-3
-3
-3
-3
-3
-3
-3
-3
-3
-3
-3
-3
-3
-3
-3
-3
-3
-3
-3
-3
-3
-3
-3
-3
-3
-3
-3
-3
-3
-3
-3
-3
-3
-3
-3
-3
-3
-3
-3
-3
-3
-3
-3
-3
-3
-3
-3
-3
-3
-3
-3
-3
-3
-3
-3
-3
-3
-3
-3
-3
-3
-3
-3
-3
-3
-3
-3
-3
-3
-3
-3
-3
-3
-3
-3
-3
-3
-3
-3
-3
-3
-3
-3
-3
-3
-3
-3
-3
-3
-3
-3
-3
-3
-3
-3
-3
-3
-3
-3
-3
-3
-3
-3
-3
-3
-3
-3
-3
-3
-3
-3
-3
-3
-3
-3
-3
-3
-3
-3
-3
-3
-3
-3
-3
-3
-3
-3
-3
-3.00284
-3.02854
-3
-3.00269
-3.00112
-3
-3
-3
-3
-3
-3
-3
-3
-3
-3
-3
-3
-3
-3
-3.00461
-3.00816
-3.11355
)
;

boundaryField
{
    movingWall
    {
        type            calculated;
        value           nonuniform List<scalar> 
20
(
-3
-3.00269
-3.00112
-3
-3
-3
-3
-3
-3
-3
-3
-3
-3
-3
-3
-3
-3
-3.00461
-3.00816
-3.11355
)
;
    }
    fixedWalls
    {
        type            calculated;
        value           nonuniform List<scalar> 
60
(
-3
-3.00001
-3
-3
-3
-3
-3
-3
-3
-3
-3
-3
-3
-3
-3
-3
-3
-3
-3
-3
-3.00403
-3.00397
-3.0039
-3.00378
-3.00359
-3.00326
-3.00278
-3.00275
-3.00274
-3.0012
-3
-3
-3
-3
-3
-3
-3
-3
-3.02854
-3.11355
-3
-3
-3.00001
-3.00006
-3.00015
-3.00028
-3.00045
-3.00067
-3.00094
-3.00126
-3.00164
-3.00208
-3.00257
-3.00307
-3.00352
-3.00386
-3.00407
-3.00413
-3.0041
-3.00403
)
;
    }
    frontAndBack
    {
        type            empty;
    }
}


// ************************************************************************* //
