/*--------------------------------*- C++ -*----------------------------------*\
| =========                 |                                                 |
| \\      /  F ield         | OpenFOAM: The Open Source CFD Toolbox           |
|  \\    /   O peration     | Version:  2312                                  |
|   \\  /    A nd           | Website:  www.openfoam.com                      |
|    \\/     M anipulation  |                                                 |
\*---------------------------------------------------------------------------*/
FoamFile
{
    version     2.0;
    format      ascii;
    arch        "LSB;label=32;scalar=64";
    class       volScalarField;
    location    "1.25";
    object      divPhi;
}
// * * * * * * * * * * * * * * * * * * * * * * * * * * * * * * * * * * * * * //

dimensions      [0 0 -1 0 0 0 0];

internalField   nonuniform List<scalar> 
400
(
4.91595e-06
1.43603e-07
1.73765e-07
1.92064e-07
2.06889e-07
2.2051e-07
2.3352e-07
2.45026e-07
2.55721e-07
2.64357e-07
2.72691e-07
2.82429e-07
2.93336e-07
3.01387e-07
3.05626e-07
3.03815e-07
2.81683e-07
2.67321e-07
3.74885e-07
1.39017e-07
1.82183e-07
1.83775e-07
1.94074e-07
2.06258e-07
2.16647e-07
2.28443e-07
2.38638e-07
2.49306e-07
2.58112e-07
2.66909e-07
2.75088e-07
2.84025e-07
2.93588e-07
3.03296e-07
3.06354e-07
2.97632e-07
2.95578e-07
3.07236e-07
2.5698e-07
2.15352e-07
1.29954e-07
1.80044e-07
2.00194e-07
2.1066e-07
2.19135e-07
2.26599e-07
2.3455e-07
2.4192e-07
2.49305e-07
2.56199e-07
2.63619e-07
2.71882e-07
2.81638e-07
2.898e-07
2.93821e-07
2.90399e-07
2.65369e-07
2.50986e-07
4.05708e-07
1.08286e-07
2.44272e-07
2.13858e-07
2.09384e-07
2.1154e-07
2.1484e-07
2.19307e-07
2.24018e-07
2.29279e-07
2.34441e-07
2.40072e-07
2.4644e-07
2.53795e-07
2.62066e-07
2.71001e-07
2.73724e-07
2.6138e-07
2.6225e-07
3.04241e-07
1.84608e-07
2.1401e-07
1.29738e-07
1.81433e-07
1.95221e-07
1.99827e-07
2.02702e-07
2.05069e-07
2.07842e-07
2.10782e-07
2.1415e-07
2.1819e-07
2.22624e-07
2.28793e-07
2.37383e-07
2.45134e-07
2.47236e-07
2.43474e-07
2.12939e-07
1.79609e-07
3.97628e-07
5.79749e-08
2.45879e-07
1.96268e-07
1.84397e-07
1.82307e-07
1.82203e-07
1.82898e-07
1.83674e-07
1.84815e-07
1.86345e-07
1.88407e-07
1.91803e-07
1.97115e-07
2.02988e-07
2.08808e-07
2.08588e-07
1.88064e-07
1.90832e-07
2.57052e-07
7.06668e-08
1.82066e-07
7.8452e-08
1.35176e-07
1.48076e-07
1.509e-07
1.51639e-07
1.51339e-07
1.50966e-07
1.50452e-07
1.50641e-07
1.51341e-07
1.53119e-07
1.55342e-07
1.60722e-07
1.66816e-07
1.60056e-07
1.55403e-07
1.23596e-07
6.44274e-08
3.24393e-07
-1.02816e-08
1.9187e-07
1.33369e-07
1.18949e-07
1.154e-07
1.13761e-07
1.12538e-07
1.10828e-07
1.09573e-07
1.08192e-07
1.07699e-07
1.07133e-07
1.09381e-07
1.12951e-07
1.12021e-07
1.14093e-07
9.16001e-08
9.15281e-08
1.66671e-07
-6.32892e-08
1.14556e-07
-2.84105e-09
5.44948e-08
6.68824e-08
6.87171e-08
6.81724e-08
6.62509e-08
6.4201e-08
6.13153e-08
5.94878e-08
5.72223e-08
5.58715e-08
5.39047e-08
5.3597e-08
6.23932e-08
5.59737e-08
5.67463e-08
3.20434e-08
-4.95536e-08
1.87803e-07
-7.47911e-08
9.80821e-08
3.93465e-08
2.50856e-08
2.09676e-08
1.8403e-08
1.60401e-08
1.28031e-08
1.01406e-08
6.79763e-09
3.80734e-09
4.6134e-10
-9.87405e-10
1.7595e-09
-3.31605e-09
1.5536e-09
-1.10506e-08
-7.81737e-09
6.43145e-08
-1.6908e-07
3.35959e-08
-9.66977e-08
-4.56174e-08
-3.45812e-08
-3.34625e-08
-3.48409e-08
-3.73861e-08
-4.0197e-08
-4.3722e-08
-4.69881e-08
-5.02327e-08
-5.31407e-08
-5.6491e-08
-6.18064e-08
-5.77742e-08
-6.45751e-08
-5.62659e-08
-6.55904e-08
-1.47404e-07
5.16327e-08
-1.13903e-07
-1.94996e-08
-6.98816e-08
-8.1422e-08
-8.47861e-08
-8.73466e-08
-8.98846e-08
-9.30694e-08
-9.60233e-08
-9.9494e-08
-1.03498e-07
-1.08288e-07
-1.12658e-07
-1.158e-07
-1.27833e-07
-1.31723e-07
-1.31346e-07
-1.1717e-07
-4.78186e-08
-2.50001e-07
-3.45635e-08
-1.85571e-07
-1.46485e-07
-1.36915e-07
-1.36086e-07
-1.37273e-07
-1.39852e-07
-1.42376e-07
-1.45716e-07
-1.49168e-07
-1.53679e-07
-1.58583e-07
-1.65273e-07
-1.74597e-07
-1.82408e-07
-1.91071e-07
-1.78376e-07
-1.72754e-07
-2.37405e-07
-7.79314e-08
-1.38152e-07
-1.36573e-07
-1.71524e-07
-1.77323e-07
-1.79287e-07
-1.8107e-07
-1.8359e-07
-1.86053e-07
-1.89194e-07
-1.92353e-07
-1.96921e-07
-2.02517e-07
-2.08935e-07
-2.16136e-07
-2.2943e-07
-2.36581e-07
-2.32127e-07
-2.10205e-07
-1.53147e-07
-3.03035e-07
-8.69588e-08
-2.46838e-07
-2.224e-07
-2.15477e-07
-2.1499e-07
-2.17556e-07
-2.1918e-07
-2.2276e-07
-2.25073e-07
-2.29163e-07
-2.32353e-07
-2.37491e-07
-2.43587e-07
-2.53395e-07
-2.64284e-07
-2.70967e-07
-2.58126e-07
-2.45163e-07
-2.89526e-07
-1.84078e-07
-1.45916e-07
-2.23686e-07
-2.38221e-07
-2.39091e-07
-2.41058e-07
-2.43787e-07
-2.4673e-07
-2.5e-07
-2.53017e-07
-2.56293e-07
-2.59652e-07
-2.63763e-07
-2.69131e-07
-2.77219e-07
-2.87288e-07
-2.91523e-07
-2.8589e-07
-2.64672e-07
-2.22464e-07
-3.15314e-07
-1.21609e-07
-2.68401e-07
-2.64693e-07
-2.61709e-07
-2.64854e-07
-2.66495e-07
-2.72331e-07
-2.73729e-07
-2.78262e-07
-2.79443e-07
-2.82912e-07
-2.8464e-07
-2.89161e-07
-2.94926e-07
-3.02554e-07
-3.04197e-07
-2.92412e-07
-2.73762e-07
-2.99994e-07
-2.58078e-07
-1.44192e-07
-2.70559e-07
-2.77731e-07
-2.80823e-07
-2.81991e-07
-2.86561e-07
-2.88836e-07
-2.91952e-07
-2.92548e-07
-2.94229e-07
-2.94747e-07
-2.96257e-07
-2.97988e-07
-3.02406e-07
-3.0619e-07
-3.0454e-07
-2.93496e-07
-2.75044e-07
-2.57924e-07
-3.01943e-07
-1.39313e-07
-2.7271e-07
-2.74763e-07
-2.77243e-07
-2.77242e-07
-2.78783e-07
-2.78051e-07
-2.78107e-07
-2.76474e-07
-2.76619e-07
-2.76875e-07
-2.7849e-07
-2.80117e-07
-2.82683e-07
-2.84487e-07
-2.8106e-07
-2.65427e-07
-2.43974e-07
-2.61119e-07
-2.85131e-07
-1.35867e-07
-1.32107e-07
-1.29923e-07
-1.27434e-07
-1.26827e-07
-1.25445e-07
-1.2545e-07
-1.2466e-07
-1.24857e-07
-1.24654e-07
-1.25245e-07
-1.25692e-07
-1.26703e-07
-1.2779e-07
-1.27754e-07
-1.22524e-07
-1.11432e-07
-1.07116e-07
-1.28631e-07
-1.36978e-07
0
)
;

boundaryField
{
    movingWall
    {
        type            extrapolatedCalculated;
        value           nonuniform List<scalar> 
20
(
-1.32107e-07
-1.29923e-07
-1.27434e-07
-1.26827e-07
-1.25445e-07
-1.2545e-07
-1.2466e-07
-1.24857e-07
-1.24654e-07
-1.25245e-07
-1.25692e-07
-1.26703e-07
-1.2779e-07
-1.27754e-07
-1.22524e-07
-1.11432e-07
-1.07116e-07
-1.28631e-07
-1.36978e-07
0
)
;
    }
    fixedWalls
    {
        type            extrapolatedCalculated;
        value           nonuniform List<scalar> 
60
(
4.91595e-06
1.82183e-07
1.29954e-07
2.44272e-07
1.29738e-07
2.45879e-07
7.8452e-08
1.9187e-07
-2.84105e-09
9.80821e-08
-9.66977e-08
-1.94996e-08
-1.85571e-07
-1.36573e-07
-2.46838e-07
-2.23686e-07
-2.68401e-07
-2.70559e-07
-2.7271e-07
-1.32107e-07
1.39017e-07
2.15352e-07
1.08286e-07
2.1401e-07
5.79749e-08
1.82066e-07
-1.02816e-08
1.14556e-07
-7.47911e-08
3.35959e-08
-1.13903e-07
-3.45635e-08
-1.38152e-07
-8.69588e-08
-1.45916e-07
-1.21609e-07
-1.44192e-07
-1.39313e-07
-1.35867e-07
0
4.91595e-06
1.43603e-07
1.73765e-07
1.92064e-07
2.06889e-07
2.2051e-07
2.3352e-07
2.45026e-07
2.55721e-07
2.64357e-07
2.72691e-07
2.82429e-07
2.93336e-07
3.01387e-07
3.05626e-07
3.03815e-07
2.81683e-07
2.67321e-07
3.74885e-07
1.39017e-07
)
;
    }
    frontAndBack
    {
        type            empty;
    }
}


// ************************************************************************* //
