/*--------------------------------*- C++ -*----------------------------------*\
| =========                 |                                                 |
| \\      /  F ield         | OpenFOAM: The Open Source CFD Toolbox           |
|  \\    /   O peration     | Version:  2312                                  |
|   \\  /    A nd           | Website:  www.openfoam.com                      |
|    \\/     M anipulation  |                                                 |
\*---------------------------------------------------------------------------*/
FoamFile
{
    version     2.0;
    format      ascii;
    arch        "LSB;label=32;scalar=64";
    class       volScalarField;
    location    "1.25";
    object      divU;
}
// * * * * * * * * * * * * * * * * * * * * * * * * * * * * * * * * * * * * * //

dimensions      [0 0 -1 0 0 0 0];

internalField   nonuniform List<scalar> 
400
(
0.00159357
0.0302654
0.0207852
0.027274
0.0271174
0.0267976
0.0261994
0.0258324
0.0222398
0.0157609
0.018796
0.0153147
-0.004059
-0.0149304
-0.0419985
-0.0648926
-0.0723097
-0.0400612
-0.0226636
0.0078965
-0.0237463
0.0032934
-0.0206904
-0.0224599
-0.0213677
-0.0199439
-0.0181558
-0.0155168
-0.0123742
-0.00717799
0.00181726
0.00440005
0.0185771
0.0249464
0.0257021
0.0234885
0.0217766
0.0331499
0.0228353
0.0622896
-0.0234448
0.0209925
-0.00241162
-0.00865258
-0.00828054
-0.00733839
-0.00653452
-0.00531606
-0.00357953
-0.000343302
0.00453084
0.00870078
0.0144208
0.018316
0.0139752
0.00165589
-0.00846232
-0.000189299
-0.00683567
0.0443057
-0.0336133
0.0228072
0.00379227
-0.0037135
-0.00360351
-0.00273525
-0.00251452
-0.00199237
-0.000758136
0.00139231
0.00399535
0.00787727
0.0181492
0.0307421
0.0203966
-0.00568983
-0.0201965
0.0154572
0.0264396
0.0491367
-0.0336545
0.024308
0.0069191
-0.00120551
-0.00138866
-0.000316315
-0.000246808
-0.000302642
0.000253749
0.00188907
0.00486915
0.0126288
0.0364019
0.085855
0.111991
0.106683
0.0547332
0.0108487
0.0280258
0.0209631
-0.0323949
0.0233084
0.00686376
-0.0016175
-0.00244042
-0.00154372
-0.0018839
-0.00276753
-0.002917
-0.00130846
0.0026628
0.0149244
0.067684
0.164818
0.211849
0.138988
0.110455
0.165529
0.0152323
-0.138301
-0.0305518
0.0220463
0.00678834
-0.00153357
-0.0031458
-0.00274343
-0.00376751
-0.00605089
-0.00644461
0.000253845
0.00981508
0.0218743
0.0210189
-0.089786
-0.185356
-0.216838
-0.19964
0.152871
0.17402
0.11116
-0.0279156
0.0204981
0.00672653
-0.000883376
-0.00296628
-0.00295233
-0.00483827
-0.0101506
-0.0125306
0.00171192
-0.0160247
-0.139487
-0.283152
-0.271429
-0.348924
-0.480648
-0.525733
-0.486009
0.0533288
0.538589
-0.0243485
0.0188311
0.00671559
0.000150142
-0.00194022
-0.00175535
-0.00337694
-0.00957343
-0.00639222
0.0279607
-0.0128842
-0.236007
-0.411089
-0.221448
0.0629187
-0.0498543
-0.130829
-0.329627
-1.08743
0.265936
-0.0198108
0.0169076
0.00682144
0.00146128
-0.00018874
0.000826058
0.00108843
-0.00120419
0.0132324
0.0658885
0.041623
-0.178978
-0.264189
0.12666
0.587949
0.572942
0.511266
0.54274
-1.10448
-0.358495
-0.0140551
0.0152449
0.00679213
0.00269681
0.00166978
0.00374647
0.00654859
0.010333
0.029672
0.0873069
0.10696
-0.116078
-0.163302
0.41439
0.79717
0.508621
0.194087
0.869519
0.534416
-0.861001
-0.0104
0.0136078
0.00632701
0.00339471
0.00279898
0.00503921
0.0086351
0.0141578
0.0288522
0.0751013
0.079383
-0.043092
-0.168339
0.288207
0.611972
0.233604
-0.170102
0.160799
1.45974
-0.934263
-0.00118491
0.0143342
0.00692066
0.00401009
0.00313308
0.00437349
0.00742463
0.00930169
0.0123013
0.044047
0.0270396
-0.0214578
-0.265596
-0.049788
0.435918
0.164717
-0.228056
-0.396502
1.00558
-0.410051
-0.0147818
0.0103184
0.00332623
-0.000609058
-0.000692602
0.000383816
0.00193895
0.00382855
0.00293215
0.00666697
-0.0161044
-0.112459
-0.261944
-0.279158
0.090938
0.0793242
-0.202665
-0.38417
0.356238
0.0179596
0.0585232
0.0296563
0.00545882
-6.86818e-05
-0.00184162
0.000809154
7.06078e-05
-0.00176133
-0.00417054
-0.0135518
-0.0347023
-0.10151
-0.185592
-0.201019
-0.0377669
0.0139701
-0.122288
-0.300851
0.103723
0.0430086
-0.288924
-0.185739
-0.119662
-0.0663703
-0.0352704
-0.0104697
0.000560034
0.00527446
0.00692395
0.00275729
-0.00812687
-0.030858
-0.0558721
-0.0436524
0.0462396
0.0449793
-0.0318724
-0.2808
-0.305245
-0.825032
0.920812
0.827401
0.623177
0.392978
0.261655
0.189566
0.150227
0.119517
0.0964894
0.0773161
0.0597345
0.0446421
0.0371792
0.0550127
0.121217
0.00803902
0.277992
-0.142691
-0.638466
-1.86307
-2.0587
-2.20212
-1.67366
-1.11472
-0.77815
-0.592835
-0.464356
-0.367364
-0.298677
-0.249081
-0.212379
-0.18126
-0.139781
-0.13144
-0.0344994
-0.290526
1.00712
-0.192648
0.461393
1.1753
3.22286
3.1473
2.2867
1.44336
1.05928
0.808519
0.609899
0.4572
0.339709
0.252871
0.18863
0.142135
0.134137
0.103114
0.269003
-0.227428
1.60416
-3.07118
4.48969
6.85504
-0.714003
-3.31718
-0.73091
-0.424618
-0.513448
-0.419297
-0.286821
-0.204712
-0.158522
-0.128009
-0.105243
-0.0942358
-0.0757276
-0.119142
0.0249185
-0.63606
1.59135
-8.13708
16.4928
-17.9385
)
;

boundaryField
{
    movingWall
    {
        type            extrapolatedCalculated;
        value           nonuniform List<scalar> 
20
(
-0.714003
-3.31718
-0.73091
-0.424618
-0.513448
-0.419297
-0.286821
-0.204712
-0.158522
-0.128009
-0.105243
-0.0942358
-0.0757276
-0.119142
0.0249185
-0.63606
1.59135
-8.13708
16.4928
-17.9385
)
;
    }
    fixedWalls
    {
        type            extrapolatedCalculated;
        value           nonuniform List<scalar> 
60
(
0.00159357
-0.0237463
-0.0234448
-0.0336133
-0.0336545
-0.0323949
-0.0305518
-0.0279156
-0.0243485
-0.0198108
-0.0140551
-0.0104
-0.00118491
-0.0147818
0.0585232
-0.288924
0.920812
-2.0587
3.22286
-0.714003
0.0078965
0.0622896
0.0443057
0.0491367
0.0209631
-0.138301
0.11116
0.538589
0.265936
-0.358495
-0.861001
-0.934263
-0.410051
0.0179596
0.0430086
-0.825032
-1.86307
1.1753
6.85504
-17.9385
0.00159357
0.0302654
0.0207852
0.027274
0.0271174
0.0267976
0.0261994
0.0258324
0.0222398
0.0157609
0.018796
0.0153147
-0.004059
-0.0149304
-0.0419985
-0.0648926
-0.0723097
-0.0400612
-0.0226636
0.0078965
)
;
    }
    frontAndBack
    {
        type            empty;
    }
}


// ************************************************************************* //
