/*--------------------------------*- C++ -*----------------------------------*\
| =========                 |                                                 |
| \\      /  F ield         | OpenFOAM: The Open Source CFD Toolbox           |
|  \\    /   O peration     | Version:  2312                                  |
|   \\  /    A nd           | Website:  www.openfoam.com                      |
|    \\/     M anipulation  |                                                 |
\*---------------------------------------------------------------------------*/
FoamFile
{
    version     2.0;
    format      ascii;
    arch        "LSB;label=32;scalar=64";
    class       volScalarField;
    location    "1.25";
    object      flowTypeField;
}
// * * * * * * * * * * * * * * * * * * * * * * * * * * * * * * * * * * * * * //

dimensions      [0 0 0 0 0 0 0];

internalField   nonuniform List<scalar> 
400
(
0.251555
0.201928
0.142407
0.0941484
0.0614951
0.0411298
0.0288893
0.0217952
0.0184317
0.0173756
0.0165501
0.0207825
0.028656
0.0388624
0.0559577
0.0809611
0.114546
0.1556
0.202747
0.239591
0.187721
0.361781
0.473368
0.526804
0.536022
0.519383
0.491488
0.460916
0.432632
0.410678
0.399276
0.424242
0.5088
0.58424
0.619108
0.60767
0.555503
0.46588
0.342815
0.190301
0.135478
0.45246
0.595119
0.690817
0.752283
0.789808
0.813974
0.833597
0.855225
0.881594
0.909126
0.929605
0.92835
0.895651
0.844788
0.782872
0.717923
0.631566
0.472548
0.147211
0.0948383
0.514298
0.67459
0.770551
0.83959
0.890623
0.930359
0.964873
0.998371
0.971009
0.953129
0.961795
0.991944
0.916659
0.833097
0.747959
0.686591
0.652103
0.520655
0.113488
0.0648998
0.543606
0.730945
0.822465
0.886759
0.934914
0.972728
0.994664
0.965077
0.941518
0.93717
0.972361
0.937352
0.808221
0.656131
0.50274
0.379269
0.319411
0.332938
0.120754
0.0448202
0.546398
0.767315
0.856549
0.914005
0.956194
0.989874
0.979123
0.94902
0.927746
0.939843
0.979616
0.832164
0.663276
0.498363
0.355906
0.22831
0.115668
0.00960495
0.0974638
0.031935
0.529962
0.788842
0.880025
0.932003
0.969227
0.998325
0.964133
0.929756
0.913513
0.954619
0.906027
0.752316
0.667622
0.631846
0.524706
0.332989
0.15861
0.0271309
-0.018498
0.0236026
0.498228
0.798447
0.896811
0.946394
0.981739
0.983156
0.94335
0.908236
0.906806
0.972278
0.933921
0.967398
0.792239
0.555352
0.59277
0.868878
0.341289
0.117809
-0.0161666
0.0179696
0.453094
0.796952
0.909114
0.96055
0.99773
0.962487
0.919321
0.892071
0.908873
0.938631
0.823411
0.465748
0.0205367
-0.245927
-0.306936
-0.122242
0.849818
0.247175
0.0505423
0.0138328
0.395627
0.782798
0.917508
0.976176
0.981948
0.937963
0.89411
0.872677
0.891695
0.839411
0.513326
-0.00342206
-0.468126
-0.688387
-0.744433
-0.75006
-0.551216
0.629961
0.0878249
0.0104537
0.32728
0.75067
0.920873
0.993975
0.958657
0.912573
0.86899
0.845412
0.846744
0.730139
0.302371
-0.28593
-0.761493
-0.864515
-0.85497
-0.702469
-0.590518
-0.236777
0.0895627
0.00717453
0.248592
0.690411
0.91524
0.986159
0.934088
0.888838
0.844951
0.81246
0.797029
0.666379
0.25194
-0.369525
-0.920401
-0.77544
-0.735911
-0.603485
-0.409961
-0.44483
0.0697562
0.00331338
0.159527
0.579776
0.893268
0.962635
0.909941
0.870197
0.827267
0.78573
0.75159
0.659048
0.327625
-0.201753
-0.643564
-0.604024
-0.483214
-0.349686
-0.231826
-0.198569
0.041088
-0.00190062
0.0463564
0.342486
0.848196
0.930837
0.892426
0.865007
0.825457
0.777525
0.727374
0.654585
0.436865
0.0551952
-0.306794
-0.374001
-0.245534
-0.121144
-0.0662681
-0.077753
0.0167744
-0.0100696
-0.0931777
-0.490594
0.915851
0.884846
0.876708
0.869859
0.841155
0.792207
0.728168
0.648809
0.506671
0.253273
-0.0411951
-0.134965
-0.0527583
0.0346041
0.015721
-0.0292486
0.00728555
-0.0233131
-0.472617
0.589421
0.846895
0.783418
0.823758
0.843804
0.835602
0.7988
0.73644
0.64868
0.529239
0.344403
0.0923451
-0.0269596
0.0313773
0.098644
-0.00389678
-0.0268752
0.0129506
-0.00765149
0.333813
0.972164
0.36712
0.415196
0.517582
0.586961
0.623623
0.629683
0.604175
0.542029
0.435498
0.259231
-0.03679
-0.238427
-0.100345
0.00415353
-0.160666
-0.00799441
0.0458266
-0.0294533
0.845686
0.397774
0.163927
0.0789328
0.0813858
0.105651
0.13172
0.151817
0.160122
0.147144
0.100424
0.00375464
-0.168825
-0.402093
-0.405139
-0.458598
-0.357108
0.0153521
0.235544
0.714047
-0.0231834
0.0526276
0.047629
0.0165338
0.00547824
0.00600978
0.00843192
0.0102256
0.0110531
0.00990736
0.00493923
-0.00564839
-0.021783
-0.0454382
-0.0659346
-0.133099
-0.102345
-0.30628
0.738129
0.0852324
-0.0237553
-0.0204609
-0.0114069
-0.00630107
-0.00389269
-0.0026537
-0.00193425
-0.00147002
-0.00115481
-0.00095762
-0.00084922
-0.000827871
-0.000920016
-0.00123056
-0.00161746
-0.00386682
0.00318251
-0.0485945
0.118999
)
;

boundaryField
{
    movingWall
    {
        type            calculated;
        value           nonuniform List<scalar> 
20
(
0.0469549
-0.0100283
-0.00984133
-0.00567289
-0.00317529
-0.00198194
-0.00136722
-0.00101007
-0.000779121
-0.000621925
-0.000524178
-0.000470736
-0.000460554
-0.000506574
-0.00067045
-0.00087245
-0.00210813
0.00118151
-0.0264105
0.066646
)
;
    }
    fixedWalls
    {
        type            calculated;
        value           nonuniform List<scalar> 
60
(
0.168908
0.0877872
0.0534596
0.0352778
0.0234618
0.0161661
0.0118029
0.00914107
0.00739273
0.00605805
0.00483363
0.00343241
0.00151861
-0.00123488
-0.00585953
-0.012502
-0.0123072
-0.0156073
0.6845
0.191935
0.214622
0.106895
0.076787
0.0691559
0.0931468
0.132526
0.0230309
-0.114384
0.00820526
0.0464201
0.0446711
0.0320877
0.0183563
0.00787233
0.00391426
0.00559244
0.0158817
0.0745142
0.439241
0.432466
0.165941
0.0952801
0.0549937
0.0336678
0.0210374
0.0138091
0.00985869
0.00797687
0.00767129
0.00830228
0.0087499
0.0115144
0.0154349
0.0193442
0.0252525
0.0335104
0.0454489
0.0638441
0.107196
0.233787
)
;
    }
    frontAndBack
    {
        type            empty;
    }
}


// ************************************************************************* //
