/*--------------------------------*- C++ -*----------------------------------*\
| =========                 |                                                 |
| \\      /  F ield         | OpenFOAM: The Open Source CFD Toolbox           |
|  \\    /   O peration     | Version:  2312                                  |
|   \\  /    A nd           | Website:  www.openfoam.com                      |
|    \\/     M anipulation  |                                                 |
\*---------------------------------------------------------------------------*/
FoamFile
{
    version     2.0;
    format      ascii;
    arch        "LSB;label=32;scalar=64";
    class       volVectorField;
    location    "1.25";
    object      gradPhi;
}
// * * * * * * * * * * * * * * * * * * * * * * * * * * * * * * * * * * * * * //

dimensions      [0 2 -1 0 0 0 0];

internalField   nonuniform List<vector> 
400
(
(-8.70613e-06 8.70637e-06 0)
(-1.90645e-05 1.90645e-05 0)
(-2.51987e-05 2.51987e-05 0)
(-2.78001e-05 2.78001e-05 0)
(-2.85993e-05 2.85993e-05 0)
(-2.85217e-05 2.85217e-05 0)
(-2.78099e-05 2.78099e-05 0)
(-2.62975e-05 2.62975e-05 0)
(-2.35113e-05 2.35113e-05 0)
(-1.8736e-05 1.8736e-05 0)
(-1.14747e-05 1.14747e-05 0)
(-1.97219e-06 1.9722e-06 0)
(1.07119e-05 -1.07119e-05 0)
(2.46799e-05 -2.46799e-05 0)
(3.76666e-05 -3.76666e-05 0)
(4.65657e-05 -4.65657e-05 0)
(4.85448e-05 -4.85448e-05 0)
(4.22343e-05 -4.22343e-05 0)
(2.79052e-05 -2.79052e-05 0)
(9.38343e-06 -9.38342e-06 0)
(-1.88951e-05 1.88951e-05 0)
(-2.6454e-05 2.6454e-05 0)
(-3.00293e-05 3.00293e-05 0)
(-3.20846e-05 3.20846e-05 0)
(-3.30863e-05 3.30863e-05 0)
(-3.32185e-05 3.32185e-05 0)
(-3.2443e-05 3.2443e-05 0)
(-3.04904e-05 3.04904e-05 0)
(-2.69209e-05 2.69209e-05 0)
(-2.12713e-05 2.12713e-05 0)
(-1.30712e-05 1.30712e-05 0)
(-1.6852e-06 1.68521e-06 0)
(1.20059e-05 -1.20059e-05 0)
(2.73013e-05 -2.73013e-05 0)
(4.16071e-05 -4.16071e-05 0)
(5.15563e-05 -5.15563e-05 0)
(5.43304e-05 -5.43304e-05 0)
(4.97862e-05 -4.97862e-05 0)
(3.97272e-05 -3.97272e-05 0)
(2.33353e-05 -2.33353e-05 0)
(-2.54431e-05 2.54431e-05 0)
(-2.94705e-05 2.94705e-05 0)
(-3.09807e-05 3.09807e-05 0)
(-3.24574e-05 3.24574e-05 0)
(-3.36209e-05 3.36209e-05 0)
(-3.42208e-05 3.42208e-05 0)
(-3.40337e-05 3.40337e-05 0)
(-3.2747e-05 3.2747e-05 0)
(-2.99029e-05 2.99029e-05 0)
(-2.49116e-05 2.49116e-05 0)
(-1.7054e-05 1.7054e-05 0)
(-5.70861e-06 5.70863e-06 0)
(9.15927e-06 -9.15926e-06 0)
(2.69504e-05 -2.69504e-05 0)
(4.50439e-05 -4.50439e-05 0)
(5.85571e-05 -5.8557e-05 0)
(6.26012e-05 -6.26012e-05 0)
(5.64486e-05 -5.64486e-05 0)
(4.42707e-05 -4.42706e-05 0)
(2.75199e-05 -2.75199e-05 0)
(-2.83381e-05 2.83381e-05 0)
(-3.1034e-05 3.1034e-05 0)
(-3.15964e-05 3.15964e-05 0)
(-3.2653e-05 3.2653e-05 0)
(-3.39436e-05 3.39436e-05 0)
(-3.51379e-05 3.51379e-05 0)
(-3.59566e-05 3.59566e-05 0)
(-3.60355e-05 3.60355e-05 0)
(-3.48201e-05 3.48201e-05 0)
(-3.14714e-05 3.14714e-05 0)
(-2.48679e-05 2.48679e-05 0)
(-1.3801e-05 1.38011e-05 0)
(2.75975e-06 -2.75973e-06 0)
(2.57059e-05 -2.57059e-05 0)
(5.23076e-05 -5.23076e-05 0)
(7.42721e-05 -7.42721e-05 0)
(8.13316e-05 -8.13316e-05 0)
(6.86561e-05 -6.86561e-05 0)
(4.41434e-05 -4.41434e-05 0)
(2.04788e-05 -2.04788e-05 0)
(-2.89965e-05 2.89965e-05 0)
(-3.15503e-05 3.15503e-05 0)
(-3.19118e-05 3.19118e-05 0)
(-3.28919e-05 3.28919e-05 0)
(-3.44966e-05 3.44966e-05 0)
(-3.64999e-05 3.64999e-05 0)
(-3.86835e-05 3.86836e-05 0)
(-4.07178e-05 4.07178e-05 0)
(-4.19811e-05 4.19811e-05 0)
(-4.1406e-05 4.1406e-05 0)
(-3.75176e-05 3.75176e-05 0)
(-2.84031e-05 2.84031e-05 0)
(-1.17784e-05 1.17784e-05 0)
(1.71381e-05 -1.71381e-05 0)
(5.71204e-05 -5.71204e-05 0)
(9.71642e-05 -9.71642e-05 0)
(0.000117482 -0.000117482 0)
(9.85767e-05 -9.85767e-05 0)
(4.63312e-05 -4.63312e-05 0)
(3.0216e-06 -3.0216e-06 0)
(-2.83653e-05 2.83653e-05 0)
(-3.11943e-05 3.11943e-05 0)
(-3.17211e-05 3.17211e-05 0)
(-3.28799e-05 3.28799e-05 0)
(-3.49606e-05 3.49606e-05 0)
(-3.79419e-05 3.79419e-05 0)
(-4.17732e-05 4.17732e-05 0)
(-4.62845e-05 4.62845e-05 0)
(-5.09911e-05 5.09911e-05 0)
(-5.49699e-05 5.49699e-05 0)
(-5.71187e-05 5.71187e-05 0)
(-5.56974e-05 5.56974e-05 0)
(-4.78444e-05 4.78444e-05 0)
(-2.31772e-05 2.31772e-05 0)
(2.86457e-05 -2.86456e-05 0)
(0.000103121 -0.000103121 0)
(0.000170626 -0.000170626 0)
(0.000181326 -0.000181326 0)
(9.9992e-05 -9.9992e-05 0)
(-8.79129e-06 8.7913e-06 0)
(-2.68607e-05 2.68607e-05 0)
(-3.00385e-05 3.00385e-05 0)
(-3.08432e-05 3.08433e-05 0)
(-3.22563e-05 3.22563e-05 0)
(-3.48173e-05 3.48173e-05 0)
(-3.87503e-05 3.87503e-05 0)
(-4.4256e-05 4.4256e-05 0)
(-5.1498e-05 5.14981e-05 0)
(-6.05658e-05 6.05658e-05 0)
(-7.16159e-05 7.16159e-05 0)
(-8.57776e-05 8.57776e-05 0)
(-0.000105345 0.000105345 0)
(-0.000123291 0.000123291 0)
(-0.000117366 0.000117366 0)
(-4.48929e-05 4.48929e-05 0)
(7.61658e-05 -7.61658e-05 0)
(0.000208561 -0.000208561 0)
(0.000300399 -0.000300399 0)
(0.000258613 -0.000258613 0)
(5.4436e-05 -5.4436e-05 0)
(-2.46355e-05 2.46356e-05 0)
(-2.80939e-05 2.80939e-05 0)
(-2.91138e-05 2.91138e-05 0)
(-3.06658e-05 3.06658e-05 0)
(-3.34857e-05 3.34858e-05 0)
(-3.80241e-05 3.80241e-05 0)
(-4.47635e-05 4.47635e-05 0)
(-5.43639e-05 5.43639e-05 0)
(-6.80684e-05 6.80684e-05 0)
(-8.86787e-05 8.86787e-05 0)
(-0.00012194 0.00012194 0)
(-0.000170989 0.000170989 0)
(-0.000211317 0.000211317 0)
(-0.000186848 0.000186848 0)
(-9.32179e-05 9.32179e-05 0)
(3.15038e-05 -3.15038e-05 0)
(0.0001821 -0.0001821 0)
(0.000345756 -0.000345756 0)
(0.000438996 -0.000438996 0)
(0.000225849 -0.000225849 0)
(-2.17837e-05 2.17837e-05 0)
(-2.53698e-05 2.53698e-05 0)
(-2.64214e-05 2.64214e-05 0)
(-2.78241e-05 2.78241e-05 0)
(-3.04371e-05 3.04371e-05 0)
(-3.48498e-05 3.48498e-05 0)
(-4.17323e-05 4.17323e-05 0)
(-5.21144e-05 5.21144e-05 0)
(-6.81286e-05 6.81286e-05 0)
(-9.439e-05 9.439e-05 0)
(-0.000138063 0.000138063 0)
(-0.000193555 0.000193555 0)
(-0.000221011 0.000221011 0)
(-0.000187096 0.000187096 0)
(-9.33464e-05 9.33464e-05 0)
(-1.6813e-05 1.6813e-05 0)
(8.41801e-05 -8.41801e-05 0)
(0.000254041 -0.000254041 0)
(0.000482846 -0.000482846 0)
(0.00045187 -0.00045187 0)
(-1.84556e-05 1.84556e-05 0)
(-2.19502e-05 2.19502e-05 0)
(-2.27745e-05 2.27745e-05 0)
(-2.36255e-05 2.36255e-05 0)
(-2.54042e-05 2.54042e-05 0)
(-2.87151e-05 2.87151e-05 0)
(-3.42123e-05 3.42123e-05 0)
(-4.28789e-05 4.28789e-05 0)
(-5.65811e-05 5.65811e-05 0)
(-7.8646e-05 7.8646e-05 0)
(-0.000111898 0.000111898 0)
(-0.000144798 0.000144798 0)
(-0.000148626 0.000148626 0)
(-0.00011072 0.00011072 0)
(-7.06894e-05 7.06894e-05 0)
(-2.91975e-05 2.91975e-05 0)
(-2.01214e-05 2.01214e-05 0)
(6.03028e-05 -6.03028e-05 0)
(0.000342429 -0.000342429 0)
(0.000586561 -0.000586561 0)
(-1.49201e-05 1.49201e-05 0)
(-1.80639e-05 1.80639e-05 0)
(-1.83571e-05 1.83571e-05 0)
(-1.8231e-05 1.8231e-05 0)
(-1.85643e-05 1.85643e-05 0)
(-1.98696e-05 1.98696e-05 0)
(-2.25874e-05 2.25874e-05 0)
(-2.72311e-05 2.72311e-05 0)
(-3.43944e-05 3.43944e-05 0)
(-4.40058e-05 4.40058e-05 0)
(-5.41655e-05 5.41655e-05 0)
(-5.75944e-05 5.75944e-05 0)
(-4.99823e-05 4.99823e-05 0)
(-3.40241e-05 3.40241e-05 0)
(-2.58494e-05 2.58494e-05 0)
(-2.08862e-05 2.08862e-05 0)
(-6.26845e-05 6.26845e-05 0)
(-9.75528e-05 9.75528e-05 0)
(9.50399e-05 -9.50399e-05 0)
(0.000543924 -0.000543924 0)
(-1.15937e-05 1.15937e-05 0)
(-1.41099e-05 1.41099e-05 0)
(-1.35231e-05 1.35231e-05 0)
(-1.20452e-05 1.20452e-05 0)
(-1.05071e-05 1.05071e-05 0)
(-9.27893e-06 9.27893e-06 0)
(-8.50743e-06 8.50742e-06 0)
(-8.06885e-06 8.06884e-06 0)
(-7.24736e-06 7.24736e-06 0)
(-3.15363e-06 3.15362e-06 0)
(8.41198e-06 -8.41199e-06 0)
(2.42007e-05 -2.42007e-05 0)
(3.03705e-05 -3.03705e-05 0)
(1.48228e-05 -1.48228e-05 0)
(-1.03315e-05 1.03315e-05 0)
(-3.35325e-05 3.35325e-05 0)
(-7.48456e-05 7.48456e-05 0)
(-0.000137584 0.000137584 0)
(-9.77563e-05 9.77563e-05 0)
(0.00037428 -0.00037428 0)
(-9.12759e-06 9.12758e-06 0)
(-1.05995e-05 1.05995e-05 0)
(-8.71124e-06 8.71123e-06 0)
(-5.58007e-06 5.58007e-06 0)
(-1.98835e-06 1.98835e-06 0)
(1.84064e-06 -1.84064e-06 0)
(5.97091e-06 -5.97091e-06 0)
(1.10277e-05 -1.10277e-05 0)
(1.85442e-05 -1.85442e-05 0)
(3.10231e-05 -3.10231e-05 0)
(5.45584e-05 -5.45584e-05 0)
(8.49794e-05 -8.49794e-05 0)
(9.80662e-05 -9.80662e-05 0)
(5.76637e-05 -5.76638e-05 0)
(-1.90528e-05 1.90528e-05 0)
(-8.34743e-05 8.34743e-05 0)
(-0.000115239 0.000115239 0)
(-0.000146006 0.000146006 0)
(-0.00016156 0.00016156 0)
(0.000197665 -0.000197665 0)
(-8.29704e-06 8.29704e-06 0)
(-8.06623e-06 8.06623e-06 0)
(-4.3912e-06 4.39119e-06 0)
(6.88385e-07 -6.88394e-07 0)
(6.29011e-06 -6.29011e-06 0)
(1.2455e-05 -1.2455e-05 0)
(1.911e-05 -1.91101e-05 0)
(2.69546e-05 -2.69546e-05 0)
(3.7393e-05 -3.7393e-05 0)
(5.32079e-05 -5.32079e-05 0)
(7.81968e-05 -7.81968e-05 0)
(0.000108949 -0.000108949 0)
(0.000118912 -0.000118912 0)
(7.97755e-05 -7.97755e-05 0)
(-7.85434e-06 7.85433e-06 0)
(-0.00010392 0.00010392 0)
(-0.000149859 0.000149859 0)
(-0.00016408 0.00016408 0)
(-0.000182948 0.000182948 0)
(8.74837e-05 -8.74837e-05 0)
(-1.03652e-05 1.03652e-05 0)
(-7.14796e-06 7.14795e-06 0)
(-6.07787e-07 6.07776e-07 0)
(6.62079e-06 -6.6208e-06 0)
(1.41623e-05 -1.41623e-05 0)
(2.1702e-05 -2.1702e-05 0)
(3.00169e-05 -3.00169e-05 0)
(3.94255e-05 -3.94255e-05 0)
(5.06804e-05 -5.06804e-05 0)
(6.51213e-05 -6.51213e-05 0)
(8.43311e-05 -8.43311e-05 0)
(0.000106142 -0.000106142 0)
(0.000110695 -0.000110695 0)
(7.52977e-05 -7.52977e-05 0)
(-3.6192e-06 3.61918e-06 0)
(-9.25375e-05 9.25375e-05 0)
(-0.000152287 0.000152287 0)
(-0.000173106 0.000173106 0)
(-0.000199656 0.000199656 0)
(3.51325e-05 -3.51325e-05 0)
(-1.68504e-05 1.68504e-05 0)
(-7.3573e-06 7.35729e-06 0)
(2.76479e-06 -2.7648e-06 0)
(1.2276e-05 -1.22761e-05 0)
(2.1229e-05 -2.1229e-05 0)
(2.97973e-05 -2.97973e-05 0)
(3.87941e-05 -3.87941e-05 0)
(4.85989e-05 -4.85989e-05 0)
(5.93728e-05 -5.93728e-05 0)
(7.1192e-05 -7.1192e-05 0)
(8.37065e-05 -8.37065e-05 0)
(9.46273e-05 -9.46273e-05 0)
(9.27414e-05 -9.27414e-05 0)
(6.17846e-05 -6.17846e-05 0)
(-1.22107e-06 1.22105e-06 0)
(-7.55628e-05 7.55628e-05 0)
(-0.000137303 0.000137303 0)
(-0.000159036 0.000159036 0)
(-0.000212444 0.000212444 0)
(-7.11002e-06 7.11001e-06 0)
(-3.25347e-05 3.25347e-05 0)
(-8.2346e-06 8.23459e-06 0)
(9.52594e-06 -9.52596e-06 0)
(2.02491e-05 -2.02491e-05 0)
(2.80925e-05 -2.80925e-05 0)
(3.65972e-05 -3.65972e-05 0)
(4.59876e-05 -4.59876e-05 0)
(5.58048e-05 -5.58048e-05 0)
(6.58042e-05 -6.58042e-05 0)
(7.53784e-05 -7.53784e-05 0)
(8.31791e-05 -8.31792e-05 0)
(8.64627e-05 -8.64627e-05 0)
(7.92166e-05 -7.92166e-05 0)
(5.2568e-05 -5.2568e-05 0)
(1.65673e-06 -1.65675e-06 0)
(-6.05863e-05 6.05863e-05 0)
(-0.000118683 0.000118683 0)
(-0.00013402 0.00013402 0)
(-0.000213275 0.000213275 0)
(-7.31889e-05 7.31889e-05 0)
(-5.32027e-05 5.32027e-05 0)
(4.50741e-06 -4.50743e-06 0)
(2.36564e-05 -2.36564e-05 0)
(2.90563e-05 -2.90563e-05 0)
(3.66531e-05 -3.66531e-05 0)
(4.56746e-05 -4.56746e-05 0)
(5.45448e-05 -5.45448e-05 0)
(6.33942e-05 -6.33943e-05 0)
(7.23587e-05 -7.23588e-05 0)
(8.05596e-05 -8.05596e-05 0)
(8.62103e-05 -8.62103e-05 0)
(8.63536e-05 -8.63536e-05 0)
(7.67099e-05 -7.67099e-05 0)
(5.21725e-05 -5.21725e-05 0)
(9.40302e-06 -9.40304e-06 0)
(-4.16136e-05 4.16136e-05 0)
(-9.66388e-05 9.66388e-05 0)
(-0.000135812 0.000135812 0)
(-0.000228854 0.000228854 0)
(-0.000165133 0.000165133 0)
(-7.75086e-05 7.75086e-05 0)
(2.42098e-05 -2.42098e-05 0)
(8.46174e-05 -8.46174e-05 0)
(9.45197e-05 -9.45198e-05 0)
(9.20435e-05 -9.20435e-05 0)
(8.94911e-05 -8.94912e-05 0)
(8.7717e-05 -8.7717e-05 0)
(8.74971e-05 -8.74971e-05 0)
(8.90453e-05 -8.90453e-05 0)
(9.15376e-05 -9.15376e-05 0)
(9.32841e-05 -9.32841e-05 0)
(9.17342e-05 -9.17342e-05 0)
(8.39011e-05 -8.39011e-05 0)
(6.73409e-05 -6.73409e-05 0)
(3.97642e-05 -3.97642e-05 0)
(-5.30815e-06 5.30814e-06 0)
(-6.85482e-05 6.85482e-05 0)
(-0.000166988 0.000166988 0)
(-0.000412058 0.000412058 0)
(-0.000386292 0.000386292 0)
(0.00046488 -0.00046488 0)
(0.000319082 -0.000319082 0)
(0.000215617 -0.000215617 0)
(0.000177584 -0.000177584 0)
(0.000155441 -0.000155441 0)
(0.000137471 -0.000137471 0)
(0.000124617 -0.000124617 0)
(0.000116025 -0.000116025 0)
(0.000109914 -0.000109914 0)
(0.000105236 -0.000105236 0)
(0.00010107 -0.00010107 0)
(9.61014e-05 -9.61014e-05 0)
(8.86001e-05 -8.86001e-05 0)
(7.60299e-05 -7.603e-05 0)
(5.68596e-05 -5.68596e-05 0)
(2.45262e-05 -2.45263e-05 0)
(-1.35468e-05 1.35468e-05 0)
(-0.000143342 0.000143342 0)
(-0.000211742 0.000211742 0)
(-0.00200042 0.00200042 0)
)
;

boundaryField
{
    movingWall
    {
        type            extrapolatedCalculated;
        value           nonuniform List<vector> 
20
(
(0.00046488 -0.00046488 0)
(0.000319082 -0.000319082 0)
(0.000215617 -0.000215617 0)
(0.000177584 -0.000177584 0)
(0.000155441 -0.000155441 0)
(0.000137471 -0.000137471 0)
(0.000124617 -0.000124617 0)
(0.000116025 -0.000116025 0)
(0.000109914 -0.000109914 0)
(0.000105236 -0.000105236 0)
(0.00010107 -0.00010107 0)
(9.61014e-05 -9.61014e-05 0)
(8.86001e-05 -8.86001e-05 0)
(7.60299e-05 -7.603e-05 0)
(5.68596e-05 -5.68596e-05 0)
(2.45262e-05 -2.45263e-05 0)
(-1.35468e-05 1.35468e-05 0)
(-0.000143342 0.000143342 0)
(-0.000211742 0.000211742 0)
(-0.00200042 0.00200042 0)
)
;
    }
    fixedWalls
    {
        type            extrapolatedCalculated;
        value           nonuniform List<vector> 
60
(
(-8.70613e-06 8.70637e-06 0)
(-1.88951e-05 1.88951e-05 0)
(-2.54431e-05 2.54431e-05 0)
(-2.83381e-05 2.83381e-05 0)
(-2.89965e-05 2.89965e-05 0)
(-2.83653e-05 2.83653e-05 0)
(-2.68607e-05 2.68607e-05 0)
(-2.46355e-05 2.46356e-05 0)
(-2.17837e-05 2.17837e-05 0)
(-1.84556e-05 1.84556e-05 0)
(-1.49201e-05 1.49201e-05 0)
(-1.15937e-05 1.15937e-05 0)
(-9.12759e-06 9.12758e-06 0)
(-8.29704e-06 8.29704e-06 0)
(-1.03652e-05 1.03652e-05 0)
(-1.68504e-05 1.68504e-05 0)
(-3.25347e-05 3.25347e-05 0)
(-5.32027e-05 5.32027e-05 0)
(-7.75086e-05 7.75086e-05 0)
(0.00046488 -0.00046488 0)
(9.38343e-06 -9.38342e-06 0)
(2.33353e-05 -2.33353e-05 0)
(2.75199e-05 -2.75199e-05 0)
(2.04788e-05 -2.04788e-05 0)
(3.0216e-06 -3.0216e-06 0)
(-8.79129e-06 8.7913e-06 0)
(5.4436e-05 -5.4436e-05 0)
(0.000225849 -0.000225849 0)
(0.00045187 -0.00045187 0)
(0.000586561 -0.000586561 0)
(0.000543924 -0.000543924 0)
(0.00037428 -0.00037428 0)
(0.000197665 -0.000197665 0)
(8.74837e-05 -8.74837e-05 0)
(3.51325e-05 -3.51325e-05 0)
(-7.11002e-06 7.11001e-06 0)
(-7.31889e-05 7.31889e-05 0)
(-0.000165133 0.000165133 0)
(-0.000386292 0.000386292 0)
(-0.00200042 0.00200042 0)
(-8.70613e-06 8.70637e-06 0)
(-1.90645e-05 1.90645e-05 0)
(-2.51987e-05 2.51987e-05 0)
(-2.78001e-05 2.78001e-05 0)
(-2.85993e-05 2.85993e-05 0)
(-2.85217e-05 2.85217e-05 0)
(-2.78099e-05 2.78099e-05 0)
(-2.62975e-05 2.62975e-05 0)
(-2.35113e-05 2.35113e-05 0)
(-1.8736e-05 1.8736e-05 0)
(-1.14747e-05 1.14747e-05 0)
(-1.97219e-06 1.9722e-06 0)
(1.07119e-05 -1.07119e-05 0)
(2.46799e-05 -2.46799e-05 0)
(3.76666e-05 -3.76666e-05 0)
(4.65657e-05 -4.65657e-05 0)
(4.85448e-05 -4.85448e-05 0)
(4.22343e-05 -4.22343e-05 0)
(2.79052e-05 -2.79052e-05 0)
(9.38343e-06 -9.38342e-06 0)
)
;
    }
    frontAndBack
    {
        type            empty;
    }
}


// ************************************************************************* //
