/*--------------------------------*- C++ -*----------------------------------*\
| =========                 |                                                 |
| \\      /  F ield         | OpenFOAM: The Open Source CFD Toolbox           |
|  \\    /   O peration     | Version:  2312                                  |
|   \\  /    A nd           | Website:  www.openfoam.com                      |
|    \\/     M anipulation  |                                                 |
\*---------------------------------------------------------------------------*/
FoamFile
{
    version     2.0;
    format      ascii;
    arch        "LSB;label=32;scalar=64";
    class       volVectorField;
    location    "1.25";
    object      LambVectorField;
}
// * * * * * * * * * * * * * * * * * * * * * * * * * * * * * * * * * * * * * //

dimensions      [0 1 -2 0 0 0 0];

internalField   nonuniform List<vector> 
400
(
(-5.81208e-05 -5.83866e-05 -1.52357e-08)
(-0.000486258 -0.000911104 0)
(-0.00131066 -0.0041594 -1.65042e-05)
(-0.00224398 -0.0106489 0)
(-0.00316699 -0.0208738 -0.000198595)
(-0.00403177 -0.0347765 0)
(-0.00479171 -0.0519923 -0.000791296)
(-0.00534947 -0.071741 0)
(-0.00549543 -0.0925622 -0.00189385)
(-0.00488701 -0.112347 0)
(-0.00329282 -0.127806 -0.00309409)
(-0.00104188 -0.133768 0)
(0.00272373 -0.128936 -0.00315573)
(0.00621658 -0.110619 -0)
(0.00847438 -0.0825539 -0.00160719)
(0.00852056 -0.0515511 -0)
(0.00645855 -0.0255417 -0.000264665)
(0.00349175 -0.00908666 -0)
(0.00101344 -0.00156568 -3.05069e-06)
(5.49651e-05 -3.73463e-05 -0)
(-0.000944581 -0.000502866 -4.33419e-07)
(-0.0015137 -0.00148522 0)
(-0.00171882 -0.0025478 -1.51961e-05)
(-0.00177629 -0.00366572 0)
(-0.00186648 -0.00508939 -6.30824e-05)
(-0.00199406 -0.00691364 0)
(-0.00209825 -0.00904107 -0.000172142)
(-0.00209945 -0.0112107 0)
(-0.00191886 -0.0130557 -0.000328131)
(-0.00150239 -0.0141907 0)
(-0.000878792 -0.0145685 -0.000427934)
(-0.000107083 -0.0143197 0)
(0.000753554 -0.013011 -0.000386057)
(0.00169607 -0.012092 -0)
(0.00275686 -0.0113219 -0.000273678)
(0.00387619 -0.0103782 -0)
(0.00468012 -0.00868332 -0.000121443)
(0.00469043 -0.00618556 -0)
(0.00346349 -0.00310882 -1.27336e-05)
(0.00132619 -0.000671269 -0)
(-0.0042299 -0.0014048 -1.85666e-06)
(-0.00263372 -0.00175655 0)
(-0.002208 -0.00218415 -1.52466e-05)
(-0.00180498 -0.002412 0)
(-0.00149433 -0.00256829 -3.4663e-05)
(-0.00127314 -0.00273114 0)
(-0.00109122 -0.00287988 -5.85891e-05)
(-0.000895527 -0.00291892 0)
(-0.000658198 -0.00273519 -7.356e-05)
(-0.00040049 -0.00230768 0)
(-0.000181636 -0.00181092 -5.77057e-05)
(-2.47162e-05 -0.00152788 0)
(0.00015728 -0.0018529 -6.10884e-05)
(0.000676632 -0.00323457 -0)
(0.00190262 -0.00522067 -0.000143645)
(0.00377816 -0.00672554 -0)
(0.00534241 -0.00650148 -0.000103576)
(0.0060197 -0.00504965 -0)
(0.00602721 -0.00322844 -1.52769e-05)
(0.00607305 -0.00151994 -0)
(-0.0106995 -0.00242848 -3.69381e-06)
(-0.00361351 -0.00176791 0)
(-0.00249774 -0.00183438 -1.37077e-05)
(-0.00183754 -0.00181059 0)
(-0.00132627 -0.00166105 -2.32998e-05)
(-0.000920694 -0.00142365 0)
(-0.000583191 -0.00110043 -2.31764e-05)
(-0.000281588 -0.000652267 0)
(-1.17759e-05 -3.45455e-05 -9.76692e-07)
(0.000177272 0.000711159 0)
(0.000200053 0.00132951 4.59488e-05)
(4.93073e-05 0.00127477 0)
(2.98637e-05 -0.000320611 -1.19559e-05)
(0.0010267 -0.00403221 -0)
(0.00406327 -0.00882111 -0.000282348)
(0.00895373 -0.0121346 -0)
(0.0119646 -0.0104267 -0.000181131)
(0.0105147 -0.00565182 -0)
(0.00945457 -0.00265821 -9.97743e-06)
(0.0137064 -0.00127925 -0)
(-0.0208331 -0.00339833 -5.31017e-06)
(-0.00464509 -0.0017276 0)
(-0.00266756 -0.00152012 -1.15767e-05)
(-0.00182199 -0.00139794 0)
(-0.00121499 -0.0011808 -1.67817e-05)
(-0.000731912 -0.000873081 0)
(-0.000319294 -0.000461814 -9.9387e-06)
(6.4051e-05 0.000112912 0)
(0.000423721 0.000936206 2.77805e-05)
(0.000666218 0.00197199 0)
(0.00057443 0.00266075 0.000100988)
(0.000118696 0.00146955 0)
(0.000328749 -0.00437992 -0.000191077)
(0.00471679 -0.0178745 -0)
(0.01953 -0.0384516 -0.00153534)
(0.0455056 -0.0538465 -0)
(0.0642034 -0.0459869 -0.000962399)
(0.0512535 -0.0186698 -0)
(0.0239698 -0.00171119 -2.13364e-06)
(0.019534 0.00116392 0)
(-0.034418 -0.00420064 -6.38479e-06)
(-0.00583476 -0.0016936 0)
(-0.00280226 -0.00127105 -9.54613e-06)
(-0.0017937 -0.00110274 0)
(-0.00114778 -0.000893702 -1.25994e-05)
(-0.000635099 -0.000604722 0)
(-0.000160786 -0.000184542 -4.00393e-06)
(0.000368616 0.000511402 0)
(0.000987943 0.00169564 5.25128e-05)
(0.0014584 0.00327048 0)
(0.00112768 0.00371346 0.000155858)
(-0.000265231 -0.00175483 0)
(0.000404858 -0.0228253 -0.00121287)
(0.0149401 -0.0710852 -0)
(0.0632695 -0.144628 -0.00828641)
(0.145855 -0.203186 -0)
(0.225798 -0.199628 -0.00747048)
(0.220202 -0.10683 -0)
(0.0983638 -0.00339598 -2.66954e-06)
(0.0214422 0.00676742 0)
(-0.050822 -0.00476018 -6.7868e-06)
(-0.00723242 -0.00166354 0)
(-0.00293949 -0.00107431 -7.73501e-06)
(-0.00174853 -0.000871859 0)
(-0.00108476 -0.000685448 -9.36071e-06)
(-0.000554016 -0.000426607 0)
(3.47763e-05 3.20672e-05 6.86765e-07)
(0.00089308 0.000985545 0)
(0.00208613 0.002804 8.90063e-05)
(0.00297933 0.00508487 0)
(0.00170596 0.00400014 0.000184195)
(-0.00368356 -0.0139357 0)
(-0.00675821 -0.0673129 -0.00451853)
(0.0103744 -0.146083 -0)
(0.0568054 -0.212568 -0.0191156)
(0.163117 -0.318415 -0)
(0.376569 -0.461119 -0.0345401)
(0.555974 -0.448215 -0)
(0.367875 -0.144012 -0.00213669)
(0.0409976 0.0171157 0)
(-0.0691154 -0.00501437 -6.4773e-06)
(-0.00884537 -0.0016186 0)
(-0.00309415 -0.000912088 -6.10766e-06)
(-0.00167309 -0.000676241 0)
(-0.000976763 -0.000500067 -6.41495e-06)
(-0.000389935 -0.000242095 0)
(0.000441369 0.000325341 6.65005e-06)
(0.00189796 0.00165331 0)
(0.00397679 0.00414019 0.000129814)
(0.00523371 0.00668557 0)
(0.00203693 0.0033195 0.00016228)
(-0.00676105 -0.0149713 0)
(-0.00363856 -0.0126837 -0.00105929)
(0.0117067 0.125298 0)
(-0.053177 0.357445 0.0432069)
(-0.148976 0.342688 -0)
(0.0725022 -0.097009 -0.011016)
(0.700383 -0.636739 -0)
(0.996083 -0.626106 -0.0287354)
(0.2074 -0.0120738 -0)
(-0.0881547 -0.00492608 -5.54249e-06)
(-0.0106537 -0.00153968 0)
(-0.00327558 -0.000771268 -4.63355e-06)
(-0.00155532 -0.000503426 0)
(-0.000777474 -0.000317774 -3.67498e-06)
(-5.42941e-05 -2.66979e-05 0)
(0.00117282 0.000676285 1.25347e-05)
(0.00341533 0.00228785 0)
(0.00633187 0.00494589 0.000143418)
(0.00761919 0.0069934 0)
(0.00787505 0.00854217 0.000404504)
(0.0365113 0.048691 0)
(0.151859 0.282921 0.0246845)
(0.222718 0.848264 0)
(-0.10896 1.42362 0.176819)
(-0.708186 1.57361 -0)
(-0.935487 1.1359 0.142475)
(-0.120603 0.0996801 -0)
(1.459 -0.866822 -0.063612)
(1.03914 -0.425718 -0)
(-0.106696 -0.00450768 -4.21927e-06)
(-0.0126166 -0.0014148 0)
(-0.00349846 -0.000644862 -3.32784e-06)
(-0.00140214 -0.000354858 0)
(-0.000476242 -0.000151003 -1.49065e-06)
(0.000460876 0.000173398 0)
(0.00216627 0.000937757 1.46326e-05)
(0.00524722 0.00257511 0)
(0.00922478 0.00511226 0.000123621)
(0.0119159 0.00740188 0)
(0.0292817 0.020117 0.000788224)
(0.155413 0.123151 0)
(0.460869 0.487131 0.0341135)
(0.581498 1.1132 0)
(0.012716 1.63936 0.15242)
(-1.00579 1.80067 -0)
(-1.82882 1.70908 0.167426)
(-1.78893 1.16303 -0)
(0.569772 -0.266812 -0.0216383)
(3.26707 -1.08653 -0)
(-0.123591 -0.00385098 -2.85961e-06)
(-0.0146707 -0.00124471 0)
(-0.00379673 -0.000532207 -2.24342e-06)
(-0.00124384 -0.0002374 0)
(-0.000113534 -2.6679e-05 -2.09232e-07)
(0.00105634 0.000287088 0)
(0.00318226 0.000963024 1.13599e-05)
(0.00701443 0.00231302 0)
(0.01253 0.00444822 7.64635e-05)
(0.01943 0.00729168 0)
(0.0571642 0.0219553 0.000555601)
(0.2556 0.103362 0)
(0.682388 0.344914 0.0134812)
(0.811177 0.695339 0)
(0.1178 0.874372 0.0399954)
(-0.91372 0.871687 -0)
(-1.77766 0.916059 0.044899)
(-2.59144 1.07485 -0)
(-1.3948 0.455549 0.0292497)
(6.14633 -1.34116 -0)
(-0.138125 -0.00311843 -1.77183e-06)
(-0.0167538 -0.00105225 0)
(-0.004187 -0.000432412 -1.4146e-06)
(-0.00112822 -0.000154792 0)
(0.000230195 3.73763e-05 2.11539e-07)
(0.0015837 0.000281533 0)
(0.00396957 0.000732529 5.4872e-06)
(0.00835511 0.00154069 0)
(0.015484 0.00276351 2.496e-05)
(0.0262567 0.00431957 0)
(0.0704388 0.00949034 8.73762e-05)
(0.257296 0.0251212 0)
(0.664639 0.0468102 0.000260702)
(0.806168 0.0591544 0)
(0.143197 0.0364149 7.40918e-05)
(-0.765347 0.0396639 -0)
(-1.31846 0.122641 0.00100356)
(-2.1278 0.335187 -0)
(-2.70386 0.5226 0.0192285)
(8.58566 -1.12534 -0)
(-0.14999 -0.00257656 -1.15877e-06)
(-0.0188272 -0.000893187 0)
(-0.00465182 -0.000349866 -8.62795e-07)
(-0.00106576 -9.98218e-05 0)
(0.000513401 5.15612e-05 1.83797e-07)
(0.00195449 0.000185112 0)
(0.00436817 0.00034055 1.08118e-06)
(0.00887428 0.000462988 0)
(0.0167473 0.000316243 2.98494e-07)
(0.02975 -0.000715246 0)
(0.0634074 -0.005426 3.00883e-05)
(0.193392 -0.0327197 0)
(0.460339 -0.13898 0.00302245)
(0.597266 -0.326852 0)
(0.154235 -0.481919 0.0158683)
(-0.543712 -0.419826 0)
(-0.94013 -0.218123 0.00400174)
(-1.51135 -0.064531 0)
(-2.91078 0.236384 0.00332714)
(9.93905 -0.776205 -0)
(-0.160938 -0.0026268 -1.1613e-06)
(-0.0206374 -0.000836436 0)
(-0.00508176 -0.000297117 -5.81006e-07)
(-0.000953714 -5.98626e-05 0)
(0.000785821 4.03184e-05 7.29715e-08)
(0.0021411 5.10961e-05 0)
(0.0042533 -7.33342e-05 4.9861e-08)
(0.00830012 -0.000573627 0)
(0.0156406 -0.00203622 1.24682e-05)
(0.0280823 -0.00566874 0)
(0.0515973 -0.0151146 0.000255179)
(0.121039 -0.0507233 0)
(0.253399 -0.160313 0.0060867)
(0.33022 -0.36341 0)
(0.112644 -0.52974 0.0282074)
(-0.294578 -0.504844 0)
(-0.622879 -0.336729 0.0118944)
(-1.10446 -0.204642 0)
(-2.79398 0.0105284 6.19935e-06)
(10.4316 -0.580202 -0)
(-0.170404 -0.00374081 -2.28119e-06)
(-0.0226315 -0.00105919 0)
(-0.00501111 -0.000288087 -5.5758e-07)
(-0.000418827 -2.01999e-05 0)
(0.00134564 2.41727e-05 1.48596e-08)
(0.00245753 -8.17292e-05 0)
(0.00393165 -0.0004001 1.50251e-06)
(0.00692826 -0.00126751 0)
(0.012753 -0.00350118 4.08132e-05)
(0.0230158 -0.00870457 0)
(0.0400299 -0.0201296 0.000496656)
(0.0730906 -0.0492635 0)
(0.126687 -0.121772 0.00553978)
(0.15669 -0.252436 0)
(0.0650775 -0.369863 0.0221977)
(-0.137431 -0.387944 0)
(-0.368459 -0.31738 0.0137701)
(-0.810524 -0.253491 0)
(-2.64319 -0.135081 0.000946819)
(10.277 -0.504138 -0)
(-0.194407 -0.0075253 -8.68619e-06)
(-0.0217494 -0.00148357 0)
(-0.00333703 -0.000246108 -6.09751e-07)
(0.00159502 8.32757e-05 0)
(0.00346988 4.88883e-06 2.23554e-10)
(0.00391633 -0.00030031 0)
(0.00471587 -0.000836404 4.95513e-06)
(0.00664786 -0.00195845 0)
(0.0107463 -0.00456315 7.13824e-05)
(0.0181767 -0.0103355 0)
(0.0301609 -0.0222224 0.000662902)
(0.0471575 -0.0452448 0)
(0.0676269 -0.0890748 0.00432039)
(0.0780573 -0.163044 0)
(0.0418186 -0.243275 0.0147395)
(-0.058408 -0.282673 0)
(-0.213538 -0.27431 0.0127394)
(-0.61187 -0.285045 0)
(-2.45975 -0.287036 0.00391361)
(9.79645 -0.428335 -0)
(-0.180046 -0.0139345 -3.05726e-05)
(-0.0229089 -0.00297634 0)
(0.000331097 3.96957e-05 1.51734e-07)
(0.00834932 0.000620902 0)
(0.0110225 -5.24091e-05 7.3889e-09)
(0.0122834 -0.00140053 0)
(0.0136452 -0.00349496 2.60775e-05)
(0.0156579 -0.00661351 0)
(0.0190275 -0.011549 0.000215009)
(0.0244612 -0.0197921 0)
(0.0325594 -0.0338411 0.00113752)
(0.0426724 -0.0567666 0)
(0.0519339 -0.0918712 0.00465626)
(0.0546797 -0.144018 0)
(0.0354782 -0.205682 0.0125617)
(-0.0227478 -0.25445 0)
(-0.134942 -0.276029 0.0134605)
(-0.520172 -0.383731 0)
(-2.21074 -0.475081 0.0100274)
(9.27755 -0.275784 -0)
(-0.422422 -0.0371835 -0.000148663)
(0.0122353 0.0016409 0)
(0.052126 0.00545686 2.16572e-05)
(0.0609125 0.00228141 0)
(0.0664058 -0.00464981 9.59419e-06)
(0.0723859 -0.016517 0)
(0.0767517 -0.0334632 0.000374651)
(0.0805702 -0.0552521 0)
(0.0846141 -0.0818343 0.00195337)
(0.0891375 -0.113715 0)
(0.0939019 -0.152213 0.00606799)
(0.0974638 -0.198883 0)
(0.0966341 -0.254128 0.0144491)
(0.0870393 -0.318803 0)
(0.0614421 -0.387031 0.0259682)
(0.00374344 -0.466918 0)
(-0.113606 -0.495603 0.0279597)
(-0.520892 -0.74759 0)
(-1.82481 -0.572236 0.0138235)
(7.10185 0.132851 0)
(0.0296592 0.0102389 6.22797e-05)
(0.0773789 0.0671229 0)
(0.0930712 0.00798873 7.21132e-06)
(0.144889 -0.0834971 0)
(0.17901 -0.210373 0.00357037)
(0.190164 -0.354265 0)
(0.194435 -0.502062 0.0176268)
(0.198608 -0.652547 0)
(0.202912 -0.805871 0.0424544)
(0.206559 -0.962141 0)
(0.208465 -1.12141 0.0794942)
(0.206343 -1.28332 0)
(0.196183 -1.44538 0.128616)
(0.172097 -1.60668 0)
(0.130289 -1.7547 0.178788)
(0.0461572 -1.92762 0)
(-0.0763587 -1.92251 0.186038)
(-0.503288 -2.49152 0)
(-1.28565 -0.910969 0.0272288)
(-2.37418 -0.746888 0)
(16.7002 -7.34121 0.298953)
(13.9631 -12.4484 0)
(8.60904 -17.1544 1.50627)
(5.60508 -20.891 0)
(4.05219 -23.6459 2.9919)
(3.14929 -25.892 0)
(2.55782 -27.8844 4.28022)
(2.13869 -29.6924 0)
(1.82431 -31.3421 5.53894)
(1.58169 -32.8607 0)
(1.38608 -34.2688 6.77518)
(1.21981 -35.5745 0)
(1.07165 -36.7607 7.96859)
(0.927568 -37.826 0)
(0.773584 -38.6271 8.94095)
(0.560919 -39.4384 0)
(0.326533 -38.7814 8.95904)
(-0.516033 -41.2734 0)
(0.694671 -24.2408 3.02889)
(-14.2782 -55.0584 0)
)
;

boundaryField
{
    movingWall
    {
        type            calculated;
        value           nonuniform List<vector> 
20
(
(0 -367.448 0)
(0 -379.899 0)
(0 -368.934 0)
(0 -358.371 0)
(0 -350.62 0)
(0 -344.497 0)
(0 -339.119 0)
(0 -334.192 0)
(0 -329.599 0)
(0 -325.255 0)
(0 -321.108 0)
(0 -317.145 0)
(0 -313.452 0)
(0 -310.09 0)
(0 -307.627 0)
(0 -305.21 0)
(0 -308.247 0)
(0 -299.172 0)
(0 -359.508 0)
(0 -239.361 0)
)
;
    }
    fixedWalls
    {
        type            calculated;
        value           uniform (-0 0 0);
    }
    frontAndBack
    {
        type            empty;
    }
}


// ************************************************************************* //
