/*--------------------------------*- C++ -*----------------------------------*\
| =========                 |                                                 |
| \\      /  F ield         | OpenFOAM: The Open Source CFD Toolbox           |
|  \\    /   O peration     | Version:  2312                                  |
|   \\  /    A nd           | Website:  www.openfoam.com                      |
|    \\/     M anipulation  |                                                 |
\*---------------------------------------------------------------------------*/
FoamFile
{
    version     2.0;
    format      ascii;
    arch        "LSB;label=32;scalar=64";
    class       volScalarField;
    location    "1.25";
    object      magP;
}
// * * * * * * * * * * * * * * * * * * * * * * * * * * * * * * * * * * * * * //

dimensions      [0 2 -2 0 0 0 0];

internalField   nonuniform List<scalar> 
400
(
0
0
4.7491e-06
3.13145e-05
7.58502e-05
0.00013976
0.000224795
0.000333238
0.000467616
0.000629437
0.000820208
0.00104157
0.00128586
0.00153305
0.00175852
0.00193177
0.00203338
0.00206558
0.00205053
0.00201573
4.24648e-06
0
8.20269e-06
3.68465e-05
8.25377e-05
0.000146127
0.000229263
0.000334054
0.000462827
0.000617742
0.000801107
0.00101349
0.00124694
0.0014872
0.00170951
0.00188454
0.00199177
0.00203086
0.00202094
0.00198519
0
0
0
7.62299e-06
5.28727e-05
0.000114789
0.000194711
0.000294723
0.000417438
0.000565923
0.000743507
0.000951796
0.00118736
0.00143863
0.00167937
0.00187123
0.0019837
0.00201478
0.00199191
0.00194753
0
0
0
0
0
3.51009e-05
0.000109015
0.000201984
0.000317399
0.000460055
0.000635744
0.000849446
0.0011032
0.00139129
0.00167989
0.00190459
0.00201535
0.00201388
0.0019513
0.00188991
0
0
0
0
0
0
0
4.90142e-05
0.000152379
0.000285562
0.000458688
0.000682771
0.00096748
0.00131861
0.00168765
0.00196798
0.00206851
0.00200463
0.00187852
0.00179457
0
0
0
0
0
0
0
0
0
2.41907e-05
0.000183775
0.000409309
0.000716622
0.00113434
0.00160902
0.00198547
0.00208411
0.00191923
0.00173243
0.00162919
0
0
0
0
0
0
0
0
0
0
0
0
0.00018662
0.000519278
0.000922783
0.00134992
0.00166787
0.00168977
0.00155225
0.00138938
0
0
0
0
0
0
0
0
0
0
0
0
0
0
0
0
0
0.00070832
0.00135283
0.00137515
0
0
0
0
0
0
0
0
0
0
0
0
0
0
0
0
0
0
0.000641704
0.00137142
0
0
0
0
0
0
0
0
0
0
0
0
0
0
0
0
0
0
0
0.000599009
0
0
0
0
0
0
0
0
0
0
0
0
0
0
0
0
0
0
0
0
0
0
0
0
0
0
0
0
0
0
0
0
0
0
0
0
0
0
0
0
0
0
0
0
0
0
0
0
0
0
0
0
0
0
0
0
0
0
0
0
0
0
0
0
0
0
0
0
0
0
0
0
0
0
0
0
0
0
0
0
0
0
0
0
0
0
0
0
0
0
0
0
0
0
0
0
0
0
0
0
0
0
0
0
0
0
0
0
0
0
0
0
0
0
0
0
0
0
0
0
0
0
0
0
0
0
0
0
0
0
0
0
0
0
0
0
0
0
0
0
0
0
0
0
0
0
0
0
0
0
0
0
0
0
0
0
0
0
0
0
0
0
0
0
0
0
0
0
0
0
0
0
0
0
0
0
0
0
0.00141831
0.014269
0
0.00134299
0.00055834
0
0
0
0
0
0
0
0
0
0
0
0
0
0
0.00230589
0.00408082
0.0567754
)
;

boundaryField
{
    movingWall
    {
        type            calculated;
        value           nonuniform List<scalar> 
20
(
0
0.00134299
0.00055834
0
0
0
0
0
0
0
0
0
0
0
0
0
0
0.00230589
0.00408082
0.0567754
)
;
    }
    fixedWalls
    {
        type            calculated;
        value           nonuniform List<scalar> 
60
(
0
4.24648e-06
0
0
0
0
0
0
0
0
0
0
0
0
0
0
0
0
0
0
0.00201573
0.00198519
0.00194753
0.00188991
0.00179457
0.00162919
0.00138938
0.00137515
0.00137142
0.000599009
0
0
0
0
0
0
0
0
0.014269
0.0567754
0
0
4.7491e-06
3.13145e-05
7.58502e-05
0.00013976
0.000224795
0.000333238
0.000467616
0.000629437
0.000820208
0.00104157
0.00128586
0.00153305
0.00175852
0.00193177
0.00203338
0.00206558
0.00205053
0.00201573
)
;
    }
    frontAndBack
    {
        type            empty;
    }
}


// ************************************************************************* //
