/*--------------------------------*- C++ -*----------------------------------*\
| =========                 |                                                 |
| \\      /  F ield         | OpenFOAM: The Open Source CFD Toolbox           |
|  \\    /   O peration     | Version:  2312                                  |
|   \\  /    A nd           | Website:  www.openfoam.com                      |
|    \\/     M anipulation  |                                                 |
\*---------------------------------------------------------------------------*/
FoamFile
{
    version     2.0;
    format      ascii;
    arch        "LSB;label=32;scalar=64";
    class       volScalarField;
    location    "1.25";
    object      magSqrP;
}
// * * * * * * * * * * * * * * * * * * * * * * * * * * * * * * * * * * * * * //

dimensions      [0 4 -4 0 0 0 0];

internalField   nonuniform List<scalar> 
400
(
0
0
2.2554e-11
9.80595e-10
5.75326e-09
1.95329e-08
5.05329e-08
1.11048e-07
2.18665e-07
3.96191e-07
6.72741e-07
1.08486e-06
1.65345e-06
2.35024e-06
3.09241e-06
3.73175e-06
4.13463e-06
4.26663e-06
4.20468e-06
4.06316e-06
1.80326e-11
0
6.72841e-11
1.35766e-09
6.81247e-09
2.13532e-08
5.25615e-08
1.11592e-07
2.14209e-07
3.81606e-07
6.41772e-07
1.02717e-06
1.55486e-06
2.21177e-06
2.92244e-06
3.55149e-06
3.96715e-06
4.1244e-06
4.08421e-06
3.94099e-06
0
0
0
5.81099e-11
2.79552e-09
1.31765e-08
3.79122e-08
8.68619e-08
1.74254e-07
3.20269e-07
5.52802e-07
9.05915e-07
1.40983e-06
2.06967e-06
2.82028e-06
3.50152e-06
3.93506e-06
4.05934e-06
3.96769e-06
3.79289e-06
0
0
0
0
0
1.23207e-09
1.18843e-08
4.07974e-08
1.00742e-07
2.11651e-07
4.0417e-07
7.21558e-07
1.21706e-06
1.93569e-06
2.82204e-06
3.62748e-06
4.06164e-06
4.0557e-06
3.80757e-06
3.57174e-06
0
0
0
0
0
0
0
2.40239e-09
2.32194e-08
8.15455e-08
2.10394e-07
4.66176e-07
9.36018e-07
1.73874e-06
2.84816e-06
3.87296e-06
4.27874e-06
4.01854e-06
3.52884e-06
3.22047e-06
0
0
0
0
0
0
0
0
0
5.85192e-10
3.37732e-08
1.67534e-07
5.13547e-07
1.28673e-06
2.58894e-06
3.94211e-06
4.34351e-06
3.68343e-06
3.00132e-06
2.65425e-06
0
0
0
0
0
0
0
0
0
0
0
0
3.48272e-08
2.69649e-07
8.51528e-07
1.82227e-06
2.78177e-06
2.85532e-06
2.40948e-06
1.93038e-06
0
0
0
0
0
0
0
0
0
0
0
0
0
0
0
0
0
5.01717e-07
1.83016e-06
1.89103e-06
0
0
0
0
0
0
0
0
0
0
0
0
0
0
0
0
0
0
4.11784e-07
1.8808e-06
0
0
0
0
0
0
0
0
0
0
0
0
0
0
0
0
0
0
0
3.58812e-07
0
0
0
0
0
0
0
0
0
0
0
0
0
0
0
0
0
0
0
0
0
0
0
0
0
0
0
0
0
0
0
0
0
0
0
0
0
0
0
0
0
0
0
0
0
0
0
0
0
0
0
0
0
0
0
0
0
0
0
0
0
0
0
0
0
0
0
0
0
0
0
0
0
0
0
0
0
0
0
0
0
0
0
0
0
0
0
0
0
0
0
0
0
0
0
0
0
0
0
0
0
0
0
0
0
0
0
0
0
0
0
0
0
0
0
0
0
0
0
0
0
0
0
0
0
0
0
0
0
0
0
0
0
0
0
0
0
0
0
0
0
0
0
0
0
0
0
0
0
0
0
0
0
0
0
0
0
0
0
0
0
0
0
0
0
0
0
0
0
0
0
0
0
0
0
0
0
0
2.0116e-06
0.000203604
0
1.80362e-06
3.11744e-07
0
0
0
0
0
0
0
0
0
0
0
0
0
0
5.31712e-06
1.66531e-05
0.00322344
)
;

boundaryField
{
    movingWall
    {
        type            calculated;
        value           nonuniform List<scalar> 
20
(
0
1.80362e-06
3.11744e-07
0
0
0
0
0
0
0
0
0
0
0
0
0
0
5.31712e-06
1.66531e-05
0.00322344
)
;
    }
    fixedWalls
    {
        type            calculated;
        value           nonuniform List<scalar> 
60
(
0
1.80326e-11
0
0
0
0
0
0
0
0
0
0
0
0
0
0
0
0
0
0
4.06316e-06
3.94099e-06
3.79289e-06
3.57174e-06
3.22047e-06
2.65425e-06
1.93038e-06
1.89103e-06
1.8808e-06
3.58812e-07
0
0
0
0
0
0
0
0
0.000203604
0.00322344
0
0
2.2554e-11
9.80595e-10
5.75326e-09
1.95329e-08
5.05329e-08
1.11048e-07
2.18665e-07
3.96191e-07
6.72741e-07
1.08486e-06
1.65345e-06
2.35024e-06
3.09241e-06
3.73175e-06
4.13463e-06
4.26663e-06
4.20468e-06
4.06316e-06
)
;
    }
    frontAndBack
    {
        type            empty;
    }
}


// ************************************************************************* //
