/*--------------------------------*- C++ -*----------------------------------*\
| =========                 |                                                 |
| \\      /  F ield         | OpenFOAM: The Open Source CFD Toolbox           |
|  \\    /   O peration     | Version:  2312                                  |
|   \\  /    A nd           | Website:  www.openfoam.com                      |
|    \\/     M anipulation  |                                                 |
\*---------------------------------------------------------------------------*/
FoamFile
{
    version     2.0;
    format      ascii;
    arch        "LSB;label=32;scalar=64";
    class       volScalarField;
    location    "1.25";
    object      magSqrU;
}
// * * * * * * * * * * * * * * * * * * * * * * * * * * * * * * * * * * * * * //

dimensions      [0 2 -2 0 0 0 0];

internalField   nonuniform List<scalar> 
400
(
1.35565e-07
3.29682e-06
1.73078e-05
4.64379e-05
9.26017e-05
0.000155478
0.0002336
0.000323834
0.000420101
0.000513169
0.000586478
0.000617038
0.000599297
0.000514396
0.000383009
0.000236733
0.000114238
3.78795e-05
5.38726e-06
6.86462e-08
3.36396e-06
1.95336e-05
5.17648e-05
0.00010245
0.000174296
0.000268074
0.000382048
0.000511012
0.000645319
0.000770304
0.00086597
0.000909334
0.000883358
0.000781654
0.000618949
0.000428906
0.000252423
0.000119553
3.75998e-05
4.07031e-06
1.75837e-05
5.18465e-05
9.85259e-05
0.000161368
0.000243823
0.000347992
0.000473314
0.000615388
0.000765168
0.000908378
0.00102562
0.00109448
0.00109479
0.0010147
0.000857613
0.000647295
0.000425176
0.000235854
0.000100435
2.24941e-05
4.7223e-05
0.000100914
0.000159371
0.000231728
0.000322202
0.000433896
0.000568157
0.000723031
0.000892228
0.00106416
0.00122149
0.00134236
0.00140269
0.00137646
0.00124191
0.00100401
0.000699159
0.000408732
0.000192312
5.2881e-05
9.42035e-05
0.000168597
0.000236598
0.000317119
0.000415837
0.000537081
0.000684551
0.000859779
0.00106089
0.00128098
0.00150772
0.00172551
0.00191393
0.00203066
0.00200563
0.00176976
0.00129164
0.000721009
0.000306612
7.31688e-05
0.000157407
0.000254465
0.000330574
0.000418521
0.00052658
0.000660855
0.000828081
0.0010345
0.00128468
0.00158035
0.00192401
0.00232966
0.00282443
0.00339987
0.00391087
0.00397103
0.00319205
0.00172613
0.00051904
6.63685e-05
0.00023374
0.000356223
0.000439945
0.00053501
0.000653571
0.000804383
0.000998098
0.00124705
0.00156531
0.00197105
0.002506
0.00329072
0.0045515
0.00645653
0.00866441
0.010019
0.00935257
0.00598148
0.00165656
8.00388e-05
0.000318678
0.000469515
0.000560881
0.000662789
0.000792407
0.000961969
0.00118676
0.00148659
0.00189016
0.00244781
0.0032898
0.00479905
0.00754897
0.0113467
0.0149346
0.0183036
0.0200979
0.0168049
0.0074377
0.000326817
0.000406676
0.000588185
0.000687097
0.000794837
0.000934326
0.00112165
0.00137669
0.00172692
0.002219
0.00294698
0.00414819
0.00637338
0.00980555
0.0129995
0.0155169
0.019811
0.0264029
0.0296528
0.0206424
0.00289816
0.000491735
0.000704936
0.000810447
0.000921429
0.00106677
0.00126604
0.00154277
0.00193014
0.00248865
0.0033456
0.00478786
0.00710135
0.00929371
0.00929966
0.00864487
0.0119069
0.0205851
0.0325497
0.0365706
0.0132392
0.000568492
0.000812182
0.000922078
0.00103156
0.00117538
0.00137588
0.00165855
0.00205875
0.00264005
0.00353342
0.00498162
0.00688995
0.00750739
0.00490369
0.0021303
0.00422782
0.0114487
0.0243598
0.0427707
0.0305657
0.000633683
0.00090418
0.00101412
0.00111499
0.00124706
0.00143475
0.00170386
0.00208798
0.0026426
0.0034697
0.00475439
0.00624735
0.00628415
0.00309119
6.81569e-05
0.0020173
0.00780581
0.0166256
0.0375932
0.048906
0.000685623
0.000977889
0.0010812
0.00116413
0.0012725
0.00143221
0.00166841
0.00201016
0.00249938
0.00320299
0.00422985
0.00546405
0.00566173
0.00358359
0.00119526
0.00237365
0.00658931
0.0130079
0.0302371
0.0607308
0.000733869
0.00103662
0.00112245
0.00117563
0.00124761
0.00136588
0.00155553
0.00184049
0.00224963
0.00282223
0.00360675
0.0045555
0.00504319
0.00423641
0.00296351
0.00322621
0.00551716
0.0101197
0.0244169
0.066065
0.000772027
0.00108166
0.00113716
0.00114639
0.00117141
0.0012397
0.00137589
0.00160179
0.00193876
0.00240664
0.00301609
0.00373441
0.00430968
0.00426524
0.00371344
0.00353187
0.00441947
0.00735973
0.0188603
0.0679563
0.000890506
0.00114724
0.00113469
0.00108528
0.00105335
0.00106805
0.00115085
0.00132217
0.00160191
0.00200482
0.002529
0.00313678
0.00370855
0.00397899
0.00377935
0.00343337
0.00346384
0.0052284
0.0138377
0.0687582
0.000808465
0.00106212
0.00103109
0.000949152
0.000879224
0.000858715
0.000904305
0.00103965
0.00128742
0.00166549
0.00217579
0.00278199
0.00338955
0.003814
0.00384092
0.00347462
0.00294634
0.00415609
0.0100923
0.0710536
0.00207896
0.00194357
0.00145304
0.00108163
0.000872592
0.000776103
0.000784764
0.000912977
0.0011789
0.00160295
0.00219404
0.00292304
0.00370024
0.00436336
0.00461533
0.00440228
0.00334996
0.00472904
0.00651787
0.0715341
0.000347457
0.00018477
0.000111414
0.000244366
0.000496592
0.000883038
0.00141749
0.00210382
0.00295128
0.00397864
0.00519875
0.00659074
0.00806403
0.00947706
0.0104389
0.0111372
0.00937887
0.0118421
0.00267287
0.0558969
0.0102402
0.00879149
0.00965184
0.0128931
0.0164798
0.0200778
0.0237602
0.0275218
0.0313377
0.035213
0.0391521
0.0431303
0.0470289
0.0507439
0.0535992
0.0564874
0.0533713
0.0633436
0.0156254
0.152482
)
;

boundaryField
{
    movingWall
    {
        type            calculated;
        value           uniform 1;
    }
    fixedWalls
    {
        type            calculated;
        value           uniform 0;
    }
    frontAndBack
    {
        type            empty;
    }
}


// ************************************************************************* //
