/*--------------------------------*- C++ -*----------------------------------*\
| =========                 |                                                 |
| \\      /  F ield         | OpenFOAM: The Open Source CFD Toolbox           |
|  \\    /   O peration     | Version:  2312                                  |
|   \\  /    A nd           | Website:  www.openfoam.com                      |
|    \\/     M anipulation  |                                                 |
\*---------------------------------------------------------------------------*/
FoamFile
{
    version     2.0;
    format      ascii;
    arch        "LSB;label=32;scalar=64";
    class       volScalarField;
    location    "1.25";
    object      magU;
}
// * * * * * * * * * * * * * * * * * * * * * * * * * * * * * * * * * * * * * //

dimensions      [0 1 -1 0 0 0 0];

internalField   nonuniform List<scalar> 
400
(
0.000368192
0.00181572
0.00416026
0.00681453
0.00962298
0.0124691
0.015284
0.0179954
0.0204964
0.0226532
0.0242173
0.0248402
0.0244805
0.0226803
0.0195706
0.0153861
0.0106882
0.00615464
0.00232105
0.000262004
0.00183411
0.00441969
0.00719478
0.0101218
0.0132021
0.016373
0.0195461
0.0226056
0.0254031
0.0277543
0.0294274
0.0301552
0.0297213
0.0279581
0.0248787
0.02071
0.0158878
0.010934
0.00613187
0.0020175
0.00419329
0.00720045
0.00992602
0.0127031
0.0156148
0.0186545
0.0217558
0.024807
0.0276617
0.0301393
0.0320254
0.033083
0.0330876
0.0318543
0.029285
0.025442
0.0206198
0.0153575
0.0100217
0.00474279
0.0068719
0.0100456
0.0126242
0.0152226
0.01795
0.0208302
0.0238361
0.0268892
0.0298702
0.0326214
0.0349498
0.0366382
0.0374525
0.0371006
0.0352408
0.0316861
0.0264416
0.0202171
0.0138677
0.00727193
0.00970585
0.0129845
0.0153817
0.0178078
0.0203921
0.023175
0.0261639
0.029322
0.0325712
0.0357908
0.0388293
0.0415392
0.0437485
0.0450629
0.0447843
0.0420685
0.0359394
0.0268516
0.0175103
0.00855388
0.0125462
0.015952
0.0181817
0.0204578
0.0229473
0.0257071
0.0287764
0.0321637
0.0358424
0.0397536
0.0438635
0.0482666
0.0531454
0.0583084
0.062537
0.0630161
0.0564982
0.0415467
0.0227825
0.00814669
0.0152886
0.0188739
0.0209749
0.0231303
0.025565
0.0283616
0.0315927
0.0353136
0.039564
0.0443966
0.05006
0.0573648
0.0674648
0.0803525
0.0930828
0.100095
0.0967087
0.07734
0.0407009
0.00894644
0.0178515
0.0216683
0.0236829
0.0257447
0.0281497
0.0310156
0.0344494
0.0385563
0.0434759
0.0494754
0.0573568
0.0692752
0.0868848
0.106521
0.122207
0.135291
0.141767
0.129634
0.0862421
0.0180781
0.0201662
0.0242525
0.0262125
0.0281929
0.0305667
0.033491
0.0371038
0.0415562
0.0471062
0.0542861
0.0644065
0.0798335
0.099023
0.114016
0.124567
0.140752
0.16249
0.1722
0.143675
0.0538345
0.0221751
0.0265506
0.0284684
0.030355
0.0326614
0.0355814
0.0392782
0.0439333
0.0498864
0.0578412
0.0691944
0.0842695
0.0964039
0.0964348
0.0929778
0.109119
0.143475
0.180415
0.191234
0.115062
0.0238431
0.0284988
0.0303657
0.032118
0.0342838
0.0370928
0.0407253
0.0453734
0.0513815
0.0594426
0.0705806
0.0830057
0.0866452
0.0700263
0.0461551
0.0650217
0.106999
0.156076
0.206811
0.17483
0.0251731
0.0300696
0.0318452
0.0333914
0.0353138
0.0378781
0.0412778
0.0456944
0.0514062
0.0589042
0.0689521
0.0790402
0.0792727
0.0555985
0.00825572
0.0449144
0.0883505
0.12894
0.19389
0.221147
0.0261844
0.0312712
0.0328815
0.0341194
0.0356721
0.0378445
0.0408462
0.0448348
0.0499938
0.056595
0.0650373
0.0739192
0.0752445
0.0598631
0.0345726
0.0487201
0.0811745
0.114052
0.173888
0.246436
0.02709
0.0321966
0.0335029
0.0342875
0.0353216
0.0369578
0.0394402
0.042901
0.0474303
0.0531246
0.0600562
0.0674944
0.0710154
0.0650877
0.0544381
0.0567998
0.0742776
0.100597
0.156259
0.257031
0.0277854
0.0328886
0.0337219
0.0338583
0.0342259
0.0352094
0.037093
0.0400224
0.0440313
0.0490575
0.0549189
0.0611099
0.0656482
0.0653088
0.060938
0.0594295
0.0664791
0.0857889
0.137333
0.260684
0.0298413
0.0338709
0.0336851
0.0329435
0.0324554
0.032681
0.0339242
0.0363617
0.0400239
0.0447752
0.0502892
0.056007
0.0608978
0.0630792
0.0614764
0.058595
0.0588544
0.0723077
0.117634
0.262218
0.0284335
0.0325902
0.0321106
0.0308083
0.0296517
0.0293038
0.0300717
0.0322436
0.0358807
0.0408105
0.0466453
0.0527446
0.0582198
0.0617576
0.0619752
0.0589459
0.0542802
0.0644678
0.10046
0.266559
0.0455956
0.0440859
0.0381188
0.0328882
0.0295397
0.0278586
0.0280136
0.0302155
0.0343352
0.0400368
0.0468406
0.0540651
0.0608296
0.0660557
0.0679362
0.0663497
0.0578789
0.068768
0.0807333
0.267459
0.0186402
0.013593
0.0105553
0.0156322
0.0222843
0.029716
0.0376496
0.0458674
0.0543257
0.0630764
0.0721023
0.0811834
0.0897999
0.0973502
0.102171
0.105533
0.0968446
0.108821
0.0516998
0.236425
0.101194
0.0937629
0.0982438
0.113548
0.128374
0.141696
0.154143
0.165897
0.177025
0.187651
0.197869
0.207678
0.216862
0.225264
0.231515
0.237671
0.231022
0.251682
0.125001
0.39049
)
;

boundaryField
{
    movingWall
    {
        type            calculated;
        value           uniform 1;
    }
    fixedWalls
    {
        type            calculated;
        value           uniform 0;
    }
    frontAndBack
    {
        type            empty;
    }
}


// ************************************************************************* //
