/*--------------------------------*- C++ -*----------------------------------*\
| =========                 |                                                 |
| \\      /  F ield         | OpenFOAM: The Open Source CFD Toolbox           |
|  \\    /   O peration     | Version:  2312                                  |
|   \\  /    A nd           | Website:  www.openfoam.com                      |
|    \\/     M anipulation  |                                                 |
\*---------------------------------------------------------------------------*/
FoamFile
{
    version     2.0;
    format      ascii;
    arch        "LSB;label=32;scalar=64";
    class       volScalarField;
    location    "1.25";
    object      QField;
}
// * * * * * * * * * * * * * * * * * * * * * * * * * * * * * * * * * * * * * //

dimensions      [0 0 -2 0 0 0 0];

internalField   nonuniform List<scalar> 
400
(
-0.0224812
-0.102108
-0.212549
-0.29225
-0.335705
-0.352285
-0.357158
-0.363683
-0.391282
-0.443325
-0.476733
-0.628461
-0.842883
-1.00379
-1.12812
-1.10332
-0.885061
-0.54512
-0.2057
-0.0266238
-0.0965675
-0.20448
-0.311231
-0.380788
-0.419565
-0.434064
-0.428398
-0.403633
-0.362582
-0.31257
-0.27216
-0.288593
-0.405308
-0.644379
-0.935859
-1.12942
-1.08356
-0.822591
-0.457004
-0.155616
-0.204515
-0.291509
-0.355412
-0.4064
-0.443895
-0.466428
-0.471312
-0.456023
-0.42204
-0.379746
-0.35554
-0.400187
-0.571071
-0.885079
-1.26236
-1.52661
-1.50266
-1.21785
-0.790616
-0.351705
-0.294501
-0.349347
-0.383881
-0.420315
-0.457534
-0.493181
-0.523695
-0.545873
-0.561625
-0.583189
-0.642033
-0.798866
-1.12962
-1.65947
-2.27118
-2.66697
-2.51788
-1.87833
-1.13616
-0.516273
-0.350487
-0.3799
-0.402276
-0.433967
-0.477344
-0.533357
-0.602217
-0.684758
-0.787665
-0.931074
-1.16667
-1.60333
-2.4067
-3.69458
-5.13954
-5.70431
-4.75149
-2.8457
-1.40883
-0.817258
-0.374684
-0.384948
-0.405892
-0.440925
-0.496678
-0.579845
-0.698378
-0.862985
-1.09465
-1.44192
-2.03305
-3.18742
-5.44875
-9.06492
-12.5972
-13.5054
-10.904
-5.11899
-0.182637
-0.90188
-0.37939
-0.370619
-0.393865
-0.436248
-0.507823
-0.622127
-0.797998
-1.06306
-1.47031
-2.15203
-3.49796
-6.47759
-12.3308
-20.0706
-26.0305
-29.6497
-28.3443
-19.0912
-2.68553
0.445918
-0.372675
-0.340593
-0.364618
-0.413819
-0.500457
-0.644697
-0.87792
-1.25273
-1.88052
-3.07485
-5.83288
-12.017
-20.9519
-25.5797
-24.5014
-27.1521
-36.7431
-41.8183
-28.1702
2.21266
-0.356882
-0.298243
-0.318563
-0.370044
-0.466014
-0.631957
-0.910585
-1.38202
-2.22787
-3.97203
-8.10986
-15.3176
-17.0736
-1.24208
20.8152
27.0112
7.96899
-31.0524
-60.2586
-24.3604
-0.329678
-0.247509
-0.259074
-0.306102
-0.402415
-0.577115
-0.88024
-1.41146
-2.40597
-4.46901
-8.57934
-11.984
0.199355
36.8464
75.2497
87.5655
74.6718
32.1893
-49.186
-94.4451
-0.287026
-0.192909
-0.192464
-0.228623
-0.31686
-0.488466
-0.79573
-1.34153
-2.3685
-4.39047
-7.54106
-6.84774
13.4784
57.2151
91.1846
93.8523
84.681
75.8011
7.9349
-139.532
-0.219198
-0.137127
-0.125832
-0.148166
-0.224483
-0.387723
-0.687839
-1.21495
-2.16214
-3.94533
-6.35829
-4.81538
13.9322
52.7949
78.9843
71.1292
52.7368
57.5649
44.0534
-123.15
-0.109476
-0.0819412
-0.0660588
-0.0771721
-0.144258
-0.301913
-0.594229
-1.08916
-1.92109
-3.36655
-5.42781
-5.10217
5.74059
30.8193
50.3835
43.6796
27.1604
26.9555
39.4925
-73.0431
0.0669532
-0.0209237
-0.0182829
-0.0285891
-0.0965686
-0.25898
-0.552202
-1.01903
-1.73719
-2.84603
-4.39709
-5.20203
-1.06806
10.2637
19.6118
16.7634
8.77878
7.34089
21.4648
-28.6689
0.373117
0.0374408
0.00490685
-0.0198368
-0.103178
-0.281286
-0.582988
-1.03245
-1.65514
-2.47922
-3.50097
-4.32599
-3.23715
0.806668
3.97998
2.28313
-1.97936
-1.54491
10.2596
-11.5166
0.988017
0.107529
-0.0273416
-0.0827213
-0.190276
-0.38303
-0.689376
-1.12311
-1.67901
-2.31205
-2.91667
-3.25106
-2.70095
-0.919569
0.413197
-0.810534
-4.23541
0.376383
11.3421
-18.2485
0.727914
-0.0356357
0.0588578
0.00952539
-0.133533
-0.377883
-0.743574
-1.21621
-1.76232
-2.28937
-2.61763
-2.47655
-1.55158
0.214465
1.77056
1.55669
-0.0955525
12.0003
4.19005
-59.2922
4.52303
-0.35997
-0.672834
-0.184277
-0.169738
-0.50931
-1.07217
-1.75902
-2.43575
-2.92534
-2.92671
-2.06615
-0.0658031
3.10166
6.80626
10.2046
17.1424
34.0586
-8.77882
-283.591
-19.5496
6.21032
-1.97804
-4.96769
-2.06551
-0.68718
-1.05789
-1.79206
-2.38479
-2.71879
-2.51144
-1.26864
1.48257
5.75363
12.3662
19.3976
42.2044
50.6675
176.805
-1169.33
-3309.89
907.676
750.212
404.727
217.448
130.967
87.1494
62.0641
46.1129
35.4213
28.7209
24.9095
23.7721
25.9164
34.1852
44.6047
109.402
-53.042
1799.39
-3092.12
)
;

boundaryField
{
    movingWall
    {
        type            calculated;
        value           nonuniform List<scalar> 
20
(
-6622.25
1689.85
1396.74
751.556
403.421
242.88
161.769
115.57
86.3481
66.8532
54.6953
47.7449
45.5003
48.9337
63.5482
82.1064
199.659
-62.3087
3302.77
-4321.74
)
;
    }
    fixedWalls
    {
        type            calculated;
        value           nonuniform List<scalar> 
60
(
-0.00794323
-0.0595525
-0.163768
-0.276112
-0.359954
-0.411231
-0.444115
-0.467941
-0.482302
-0.477441
-0.440087
-0.348169
-0.166573
0.145175
0.724667
1.86326
1.85559
8.78071
-43.0074
-7462.31
-0.00270398
-0.0874728
-0.293896
-0.587287
-1.05752
-0.940715
2.57376
15.4747
-4.1368
-102.092
-215.854
-244.695
-170.845
-74.2346
-32.0921
-53.6267
-177.112
-851.805
-3845.46
-10973.5
-0.0077203
-0.0632964
-0.166049
-0.2602
-0.318418
-0.347942
-0.371478
-0.415414
-0.517149
-0.682647
-0.821065
-1.13549
-1.48066
-1.59673
-1.55957
-1.29142
-0.863957
-0.430686
-0.127231
-0.00946199
)
;
    }
    frontAndBack
    {
        type            empty;
    }
}


// ************************************************************************* //
