/*--------------------------------*- C++ -*----------------------------------*\
| =========                 |                                                 |
| \\      /  F ield         | OpenFOAM: The Open Source CFD Toolbox           |
|  \\    /   O peration     | Version:  2312                                  |
|   \\  /    A nd           | Website:  www.openfoam.com                      |
|    \\/     M anipulation  |                                                 |
\*---------------------------------------------------------------------------*/
FoamFile
{
    version     2.0;
    format      ascii;
    arch        "LSB;label=32;scalar=64";
    class       volScalarField;
    location    "1.25";
    object      staticP;
}
// * * * * * * * * * * * * * * * * * * * * * * * * * * * * * * * * * * * * * //

dimensions      [1 -1 -2 0 0 0 0];

internalField   nonuniform List<scalar> 
400
(
1
1
1
1.00003
1.00008
1.00014
1.00022
1.00033
1.00047
1.00063
1.00082
1.00104
1.00129
1.00153
1.00176
1.00193
1.00203
1.00207
1.00205
1.00202
1
1
1.00001
1.00004
1.00008
1.00015
1.00023
1.00033
1.00046
1.00062
1.0008
1.00101
1.00125
1.00149
1.00171
1.00188
1.00199
1.00203
1.00202
1.00199
1
1
1
1.00001
1.00005
1.00011
1.00019
1.00029
1.00042
1.00057
1.00074
1.00095
1.00119
1.00144
1.00168
1.00187
1.00198
1.00201
1.00199
1.00195
1
1
1
1
1
1.00004
1.00011
1.0002
1.00032
1.00046
1.00064
1.00085
1.0011
1.00139
1.00168
1.0019
1.00202
1.00201
1.00195
1.00189
1
1
1
1
1
1
1
1.00005
1.00015
1.00029
1.00046
1.00068
1.00097
1.00132
1.00169
1.00197
1.00207
1.002
1.00188
1.00179
1
1
1
1
1
1
1
1
1
1.00002
1.00018
1.00041
1.00072
1.00113
1.00161
1.00199
1.00208
1.00192
1.00173
1.00163
1
1
1
1
1
1
1
1
1
1
1
1
1.00019
1.00052
1.00092
1.00135
1.00167
1.00169
1.00155
1.00139
1
1
1
1
1
1
1
1
1
1
1
1
1
1
1
1
1
1.00071
1.00135
1.00138
1
1
1
1
1
1
1
1
1
1
1
1
1
1
1
1
1
1
1.00064
1.00137
1
1
1
1
1
1
1
1
1
1
1
1
1
1
1
1
1
1
1
1.0006
1
1
1
1
1
1
1
1
1
1
1
1
1
1
1
1
1
1
1
1
1
1
1
1
1
1
1
1
1
1
1
1
1
1
1
1
1
1
1
1
1
1
1
1
1
1
1
1
1
1
1
1
1
1
1
1
1
1
1
1
1
1
1
1
1
1
1
1
1
1
1
1
1
1
1
1
1
1
1
1
1
1
1
1
1
1
1
1
1
1
1
1
1
1
1
1
1
1
1
1
1
1
1
1
1
1
1
1
1
1
1
1
1
1
1
1
1
1
1
1
1
1
1
1
1
1
1
1
1
1
1
1
1
1
1
1
1
1
1
1
1
1
1
1
1
1
1
1
1
1
1
1
1
1
1
1
1
1
1
1
1
1
1
1
1
1
1
1
1
1
1
1
1
1
1
1
1
1
1.00142
1.01427
1
1.00134
1.00056
1
1
1
1
1
1
1
1
1
1
1
1
1
1
1.00231
1.00408
1.05678
)
;

boundaryField
{
    movingWall
    {
        type            calculated;
        value           nonuniform List<scalar> 
20
(
1
1.00134
1.00056
1
1
1
1
1
1
1
1
1
1
1
1
1
1
1.00231
1.00408
1.05678
)
;
    }
    fixedWalls
    {
        type            calculated;
        value           nonuniform List<scalar> 
60
(
1
1
1
1
1
1
1
1
1
1
1
1
1
1
1
1
1
1
1
1
1.00202
1.00199
1.00195
1.00189
1.00179
1.00163
1.00139
1.00138
1.00137
1.0006
1
1
1
1
1
1
1
1
1.01427
1.05678
1
1
1
1.00003
1.00008
1.00014
1.00022
1.00033
1.00047
1.00063
1.00082
1.00104
1.00129
1.00153
1.00176
1.00193
1.00203
1.00207
1.00205
1.00202
)
;
    }
    frontAndBack
    {
        type            empty;
    }
}


// ************************************************************************* //
