/*--------------------------------*- C++ -*----------------------------------*\
| =========                 |                                                 |
| \\      /  F ield         | OpenFOAM: The Open Source CFD Toolbox           |
|  \\    /   O peration     | Version:  2312                                  |
|   \\  /    A nd           | Website:  www.openfoam.com                      |
|    \\/     M anipulation  |                                                 |
\*---------------------------------------------------------------------------*/
FoamFile
{
    version     2.0;
    format      ascii;
    arch        "LSB;label=32;scalar=64";
    class       volScalarField;
    location    "1.25";
    object      totalP;
}
// * * * * * * * * * * * * * * * * * * * * * * * * * * * * * * * * * * * * * //

dimensions      [1 -1 -2 0 0 0 0];

internalField   nonuniform List<scalar> 
400
(
1
1
1.00001
1.00005
1.00012
1.00022
1.00034
1.0005
1.00068
1.00089
1.00111
1.00135
1.00159
1.00179
1.00195
1.00205
1.00209
1.00208
1.00205
1.00202
1.00001
1.00001
1.00003
1.00009
1.00017
1.00028
1.00042
1.00059
1.00079
1.001
1.00123
1.00147
1.00169
1.00188
1.00202
1.0021
1.00212
1.00209
1.00204
1.00199
1.00001
1.00003
1.00005
1.00009
1.00017
1.00029
1.00043
1.0006
1.0008
1.00102
1.00126
1.0015
1.00173
1.00195
1.00211
1.00219
1.0022
1.00213
1.00204
1.00196
1.00002
1.00005
1.00008
1.00012
1.00016
1.00025
1.00039
1.00056
1.00076
1.00099
1.00125
1.00152
1.0018
1.00208
1.0023
1.00241
1.00236
1.00222
1.00205
1.00192
1.00005
1.00008
1.00012
1.00016
1.00021
1.00027
1.00034
1.00048
1.00068
1.00093
1.00121
1.00155
1.00192
1.00233
1.00269
1.00285
1.00271
1.00237
1.00203
1.00183
1.00008
1.00013
1.00017
1.00021
1.00026
1.00033
1.00041
1.00052
1.00064
1.00081
1.00115
1.00157
1.00213
1.00283
1.00356
1.00397
1.00368
1.00278
1.00199
1.00166
1.00012
1.00018
1.00022
1.00027
1.00033
1.0004
1.0005
1.00062
1.00078
1.00099
1.00125
1.00165
1.00246
1.00375
1.00525
1.00636
1.00634
1.00468
1.00238
1.00143
1.00016
1.00023
1.00028
1.00033
1.0004
1.00048
1.00059
1.00074
1.00095
1.00122
1.00164
1.0024
1.00377
1.00567
1.00747
1.00915
1.01005
1.00911
1.00507
1.00154
1.0002
1.00029
1.00034
1.0004
1.00047
1.00056
1.00069
1.00086
1.00111
1.00147
1.00207
1.00319
1.0049
1.0065
1.00776
1.00991
1.0132
1.01483
1.01096
1.00282
1.00025
1.00035
1.00041
1.00046
1.00053
1.00063
1.00077
1.00097
1.00124
1.00167
1.00239
1.00355
1.00465
1.00465
1.00432
1.00595
1.01029
1.01627
1.01829
1.00722
1.00028
1.00041
1.00046
1.00052
1.00059
1.00069
1.00083
1.00103
1.00132
1.00177
1.00249
1.00344
1.00375
1.00245
1.00107
1.00211
1.00572
1.01218
1.02139
1.01528
1.00032
1.00045
1.00051
1.00056
1.00062
1.00072
1.00085
1.00104
1.00132
1.00173
1.00238
1.00312
1.00314
1.00155
1.00003
1.00101
1.0039
1.00831
1.0188
1.02445
1.00034
1.00049
1.00054
1.00058
1.00064
1.00072
1.00083
1.00101
1.00125
1.0016
1.00211
1.00273
1.00283
1.00179
1.0006
1.00119
1.00329
1.0065
1.01512
1.03037
1.00037
1.00052
1.00056
1.00059
1.00062
1.00068
1.00078
1.00092
1.00112
1.00141
1.0018
1.00228
1.00252
1.00212
1.00148
1.00161
1.00276
1.00506
1.01221
1.03303
1.00039
1.00054
1.00057
1.00057
1.00059
1.00062
1.00069
1.0008
1.00097
1.0012
1.00151
1.00187
1.00215
1.00213
1.00186
1.00177
1.00221
1.00368
1.00943
1.03398
1.00045
1.00057
1.00057
1.00054
1.00053
1.00053
1.00058
1.00066
1.0008
1.001
1.00126
1.00157
1.00185
1.00199
1.00189
1.00172
1.00173
1.00261
1.00692
1.03438
1.0004
1.00053
1.00052
1.00047
1.00044
1.00043
1.00045
1.00052
1.00064
1.00083
1.00109
1.00139
1.00169
1.00191
1.00192
1.00174
1.00147
1.00208
1.00505
1.03553
1.00104
1.00097
1.00073
1.00054
1.00044
1.00039
1.00039
1.00046
1.00059
1.0008
1.0011
1.00146
1.00185
1.00218
1.00231
1.0022
1.00167
1.00236
1.00326
1.03577
1.00017
1.00009
1.00006
1.00012
1.00025
1.00044
1.00071
1.00105
1.00148
1.00199
1.0026
1.0033
1.00403
1.00474
1.00522
1.00557
1.00469
1.00592
1.00275
1.04222
1.00512
1.00574
1.00538
1.00645
1.00824
1.01004
1.01188
1.01376
1.01567
1.01761
1.01958
1.02157
1.02351
1.02537
1.0268
1.02824
1.02669
1.03398
1.01189
1.13302
)
;

boundaryField
{
    movingWall
    {
        type            calculated;
        value           nonuniform List<scalar> 
20
(
1.5
1.50134
1.50056
1.5
1.5
1.5
1.5
1.5
1.5
1.5
1.5
1.5
1.5
1.5
1.5
1.5
1.5
1.50231
1.50408
1.55678
)
;
    }
    fixedWalls
    {
        type            calculated;
        value           nonuniform List<scalar> 
60
(
1
1
1
1
1
1
1
1
1
1
1
1
1
1
1
1
1
1
1
1
1.00202
1.00199
1.00195
1.00189
1.00179
1.00163
1.00139
1.00138
1.00137
1.0006
1
1
1
1
1
1
1
1
1.01427
1.05678
1
1
1
1.00003
1.00008
1.00014
1.00022
1.00033
1.00047
1.00063
1.00082
1.00104
1.00129
1.00153
1.00176
1.00193
1.00203
1.00207
1.00205
1.00202
)
;
    }
    frontAndBack
    {
        type            empty;
    }
}


// ************************************************************************* //
