/*--------------------------------*- C++ -*----------------------------------*\
| =========                 |                                                 |
| \\      /  F ield         | OpenFOAM: The Open Source CFD Toolbox           |
|  \\    /   O peration     | Version:  2312                                  |
|   \\  /    A nd           | Website:  www.openfoam.com                      |
|    \\/     M anipulation  |                                                 |
\*---------------------------------------------------------------------------*/
FoamFile
{
    version     2.0;
    format      ascii;
    arch        "LSB;label=32;scalar=64";
    class       volVectorField;
    location    "1.25";
    object      URandom;
}
// * * * * * * * * * * * * * * * * * * * * * * * * * * * * * * * * * * * * * //

dimensions      [0 1 -1 0 0 0 0];

internalField   nonuniform List<vector> 
400
(
(0.0906877 -0.00167249 -0.0415285)
(0.0690584 -0.0365513 -0.0600658)
(0.00978306 0.0497626 -0.0863566)
(-0.0816512 0.0309067 -0.0592215)
(-0.0775762 -0.0411389 0.0596178)
(-0.100868 0.0202762 0.0426155)
(0.0248516 0.0206099 0.0895845)
(0.0619507 0.0606893 0.00969639)
(-0.0995789 0.0117802 0.060238)
(-0.108464 0.0345358 -0.0388219)
(-0.00628225 -0.0977552 0.000458146)
(0.00198069 -0.0679403 -0.0681063)
(-0.0805117 -0.0689355 -0.0466777)
(-0.106558 0.0407674 0.0345147)
(0.0273464 -0.0895872 0.0116875)
(-0.0834505 -0.0692387 -0.029771)
(0.0410687 0.0263487 -0.0807197)
(-0.0398842 -0.069027 0.0661037)
(-0.0766219 -0.0625062 0.0259411)
(-0.061918 -0.0521529 0.0590508)
(0.0385007 -0.0614781 0.0668531)
(0.0501733 -0.0248799 0.079853)
(0.0331826 -0.0797039 0.0381731)
(0.0621937 0.0591174 -0.0438576)
(-0.0717395 0.0647299 -0.0534423)
(-0.0463095 -0.0266748 0.0899488)
(-0.0793026 0.0840922 0.00453629)
(0.0187108 0.0830967 -0.045759)
(-0.0802967 -0.0747553 -0.028332)
(-0.0858625 0.0841722 -0.0019737)
(-0.0985002 -0.0170736 0.0697597)
(-0.00830755 0.023812 -0.0946911)
(0.000596633 0.0915899 -0.0194262)
(-0.0588188 0.0182665 -0.0924131)
(-0.0960652 -0.0694851 -0.0280459)
(-0.0206981 0.0922202 0.0102352)
(0.0839558 0.0125104 -0.00234655)
(-0.017127 -0.0803044 0.0670657)
(0.00412895 -0.0705051 0.0747263)
(-0.00192434 0.0935986 -0.0299677)
(0.0235723 -0.0392058 -0.0866909)
(0.0524667 0.0765494 0.042819)
(-0.0513824 -0.0719128 -0.0423353)
(0.0199772 0.0969752 0.0332439)
(-0.0423958 -0.0243734 0.090146)
(0.0753922 -0.027975 0.0139653)
(-0.0817261 0.00802678 -0.0789441)
(-0.0811504 -0.015928 0.0785039)
(-0.104497 -0.0462918 0.0345514)
(0.0178596 -0.0811535 -0.0170183)
(-0.0883074 0.0766142 -0.0377373)
(-0.00989609 -0.0867845 0.0428702)
(0.00137191 0.0784405 -0.0471265)
(-0.097094 -0.00423675 0.0751667)
(-0.094546 -0.0340093 0.070226)
(0.0173274 0.0251892 -0.0837945)
(0.0199872 -0.0763467 -0.0686192)
(0.0313194 -0.048918 0.0832056)
(0.0625404 -0.082208 0.00952383)
(-0.0271146 -0.0819631 0.0578014)
(-0.0759192 0.0284564 0.0631794)
(-0.0654161 0.000324206 0.0787601)
(-0.0497855 0.0948668 -0.0322011)
(-0.055297 0.0283086 -0.0877762)
(0.0781628 0.0419704 0.0235414)
(0.0563334 -0.0312139 0.0523594)
(-0.0354556 -0.0687604 -0.0583546)
(-0.00566183 -0.016797 0.0942565)
(0.0573748 -0.000639445 0.0505854)
(0.0392486 -0.05903 0.0222414)
(-0.0364472 0.036075 0.0950957)
(0.0264119 -0.032439 -0.0698711)
(-0.0176726 -0.056522 0.082468)
(0.00308727 -0.0760116 -0.0632927)
(-0.0998288 -0.0357771 -0.0704129)
(-0.0505823 0.0776067 0.00859801)
(-0.110014 -0.0523875 -0.0190843)
(0.0470898 0.0415703 -0.0571289)
(-0.0246778 -0.108241 0.0236179)
(-0.00164962 -0.105365 0.0192512)
(-0.0522127 0.0496281 0.0763587)
(-0.101087 -0.013802 -0.00122472)
(0.03742 0.0781083 0.0614815)
(-0.107097 -0.00577035 -0.0184048)
(-0.0943704 0.0162961 -0.0597651)
(-0.00214592 -0.0789187 0.0309262)
(0.0648687 -0.0230552 -0.0331328)
(-0.0745337 0.0811804 -0.0560849)
(-0.0951219 0.088106 0.0118332)
(-0.0162327 0.0708261 0.078503)
(-0.0132315 0.0459761 0.089226)
(0.046722 0.0440304 -0.0240495)
(-0.0255294 0.0526536 0.0808986)
(0.00908049 0.0192644 -0.0792558)
(0.000783502 0.0483917 -0.0602214)
(-0.108388 -0.00796855 0.0617809)
(0.0766048 -0.0174653 -0.0186896)
(0.0111911 0.0387291 0.0741205)
(0.0578551 -0.0719839 -0.0594537)
(0.060836 0.0198307 -0.0745373)
(-0.047388 -0.0362059 -0.074353)
(0.024148 0.0925036 0.056789)
(-0.0953294 0.0187852 0.0477793)
(0.0593742 0.0549853 -0.0606385)
(-0.0278256 0.0610145 -0.0892772)
(0.000901901 -0.0179184 -0.0912036)
(-0.0736574 0.104084 -0.00665653)
(0.00950282 0.00631165 0.0926114)
(0.0442843 0.0672991 0.0437129)
(0.00625015 0.02719 0.0898214)
(-0.118964 -0.00174473 -0.0621458)
(-0.0142301 0.0449483 0.0863376)
(0.0213131 -0.0599567 0.031217)
(-0.0649561 0.0871558 -0.0103555)
(-0.118306 0.027423 -0.0593523)
(-0.026184 -0.0678538 0.0916898)
(0.0265064 -0.108341 0.0394386)
(-0.00376405 -0.11073 0.0664321)
(-0.00340958 -0.0861277 -0.0773226)
(0.0733188 0.0407122 -0.0512589)
(0.0306906 0.0928727 -0.0542116)
(0.088851 -0.0121907 0.0200098)
(-0.0693225 0.0660649 -0.0631754)
(0.069939 -0.0389115 0.00218348)
(0.0274606 -0.0140011 0.0839113)
(-0.0661564 0.104949 -0.028475)
(0.0674087 -0.0155733 0.0245913)
(0.0193968 0.11143 -0.0151481)
(-0.0257531 -0.00301866 0.0962014)
(-0.00319479 0.087275 0.0675587)
(0.0461471 0.0152753 0.0384858)
(-0.100925 -0.0711781 -0.0237666)
(0.0186346 -0.0270658 -0.0387568)
(-0.135509 0.0129597 0.0811638)
(-0.0768454 -0.0399954 0.0978469)
(-0.0354562 -0.130036 -0.000748011)
(-0.0358344 -0.152643 0.0103098)
(-0.0147972 -0.00613333 0.0770523)
(0.0523411 -0.0610573 -0.0703625)
(0.0800718 0.0328443 -0.04939)
(0.0570636 0.0644922 0.066445)
(0.0614849 -0.0393203 0.0452572)
(-0.0018451 0.0789794 -0.0825285)
(0.0303744 -0.0369973 0.0685098)
(-0.0699772 -0.0401101 -0.0498725)
(0.00858267 0.0759135 -0.0831947)
(-0.0270329 -0.0625016 -0.0426004)
(-0.0116903 -0.0631154 -0.0362688)
(-0.0550074 0.0298699 0.0971622)
(0.0332748 -0.0329619 0.0274835)
(-0.00581962 0.060735 0.0848555)
(-0.0501213 -0.0334922 -0.0773699)
(-0.157919 0.0446989 0.0635143)
(-0.127759 0.0555481 -0.0862913)
(-0.171463 -0.0991406 -0.0292302)
(-0.0453708 -0.115609 -0.00160806)
(-0.18342 -0.11252 0.0659887)
(-0.112441 0.000659514 0.00596221)
(-0.128672 -0.10581 0.0455266)
(-0.0666503 0.0484663 -0.0356733)
(-0.0720932 0.0873549 0.0210946)
(0.0589997 0.0825029 0.0517247)
(-0.0719896 0.0442779 0.0727622)
(0.0601784 0.0253643 -0.0724991)
(-0.0642799 0.0645659 -0.0768473)
(0.0185874 -0.0395012 0.0636301)
(0.0546395 0.0241406 -0.0676869)
(-0.0403206 -0.0613161 -0.0227766)
(-0.063664 0.0268258 -0.0932319)
(0.0341497 0.108782 -0.0157232)
(-0.0429086 0.109574 0.0750669)
(-0.115319 0.133643 0.00047712)
(-0.155895 0.0385731 -0.0722462)
(-0.0944856 0.114036 -0.0501178)
(-0.0482384 -0.0550484 -0.046424)
(-0.186516 0.0101648 0.044752)
(-0.103257 -0.177367 0.0634209)
(-0.010528 -0.138838 0.0112557)
(-0.117552 -0.0770248 -0.0767306)
(0.0101695 0.00386589 0.0786334)
(-0.0208126 0.0650668 0.0881109)
(-0.0610862 0.107538 0.00594933)
(0.0826245 -0.0142997 -0.0224676)
(-0.0510396 -0.0383793 -0.0591777)
(-0.0358401 0.126842 0.0128667)
(0.00911533 0.117784 0.0489324)
(0.0585794 -0.00465244 -0.0532965)
(-0.104355 0.00615738 0.0408321)
(0.0166145 0.113211 -0.0591164)
(-0.0972932 0.10709 -0.0467164)
(-0.105769 0.0328671 -0.070585)
(0.0119839 0.0265117 0.065573)
(-0.0129182 -0.011486 -0.0263591)
(-0.142087 0.0174231 0.077807)
(-0.0834033 0.0435195 0.0898704)
(-0.107208 -0.00925559 -0.0890238)
(-0.0222454 -0.168194 0.0158541)
(-0.194637 -0.165941 0.0226038)
(0.000414131 -0.227138 -0.0210883)
(-0.021644 -0.202132 -0.0338405)
(0.0372729 -0.0685611 0.00429423)
(-0.0625882 0.0556561 -0.0750695)
(0.0678586 -0.0148074 0.052832)
(-0.0559042 0.0838234 -0.0691305)
(-0.0123177 0.000906636 -0.0944764)
(0.0634539 0.00352571 0.060026)
(0.0521721 -0.0339284 -0.0243413)
(0.0132247 -0.00986978 0.0802653)
(0.0322238 0.129833 0.030501)
(-0.0631984 -0.00607964 0.0663228)
(-0.0940241 0.135319 -0.0213801)
(-0.014954 -0.00219152 0.0589494)
(0.0469069 0.126145 0.014906)
(-0.100784 0.0841812 -0.0773949)
(-0.100902 0.0189259 -0.0824286)
(-0.0745552 0.0198404 -0.0681591)
(-0.0794721 -0.0794111 -0.0939453)
(0.0284726 -0.131471 -0.0452482)
(-0.117433 -0.138047 -0.0611532)
(0.0206746 -0.179121 0.0810751)
(0.0768737 0.00390497 -0.0595877)
(0.0438896 -0.0588253 0.00359207)
(-0.0638823 -0.0474477 0.008103)
(-0.00771402 0.116196 -0.0555153)
(0.0244665 0.0694887 -0.088843)
(-0.0751412 0.0709861 -0.064583)
(-0.0474809 0.100405 0.0694494)
(-0.0780367 -0.0111812 0.0445608)
(-0.0484021 0.0562233 0.0917521)
(-0.0792881 0.0721169 -0.0703025)
(-0.0168272 0.0146816 0.0840433)
(0.0778383 0.0362651 0.0298106)
(0.0458853 0.144878 -0.0549779)
(-0.0245973 0.11471 0.077889)
(-0.00442705 -0.0565437 -0.076343)
(0.0568986 -0.0153225 0.07497)
(0.0165505 -0.00252773 0.0456919)
(-0.0112724 -0.0292321 0.0170807)
(0.045711 -0.217259 -0.0496963)
(-0.0045382 -0.272185 -0.0813293)
(-0.0773104 -0.0315352 0.0275923)
(0.0689093 0.0654839 0.0622268)
(0.00110608 0.12302 -0.0429611)
(-0.0691931 -0.0390783 -0.0175027)
(0.0650141 0.0733946 -0.0621327)
(0.00702532 0.132468 0.0300375)
(0.0828911 0.030369 -0.0498543)
(-0.0606639 -0.0357382 0.0107543)
(-0.0339408 0.00387724 -0.0823729)
(-0.0319983 0.0456277 -0.0936338)
(0.0707126 0.03727 0.0706773)
(0.0359603 -0.0218949 0.0214179)
(0.0666006 0.096875 0.085855)
(-0.000289391 0.135783 0.0471559)
(0.101527 -0.0586633 -0.0224779)
(0.0756191 0.0194093 0.0673623)
(0.045158 -0.0694075 0.0958524)
(-0.0784707 -0.0610994 0.0161895)
(0.0716189 -0.124763 -0.0172915)
(0.0262041 -0.327897 -0.0343705)
(-0.0507792 0.0824957 -0.0663022)
(-0.0486841 0.0623697 -0.082723)
(0.0710034 0.101388 -0.00780053)
(0.0657457 0.105249 -0.0185856)
(-0.0164332 -0.0330805 -0.0715098)
(-0.0775245 0.0403564 -0.0641425)
(0.0670447 0.041997 0.0747606)
(-0.0878835 0.0511906 0.0409564)
(0.0819337 0.100718 0.0370226)
(0.102501 0.082732 0.0244564)
(0.0494507 0.151549 0.0109224)
(0.0364542 0.0727764 0.0989025)
(-0.0486294 0.106752 0.0177907)
(0.123659 0.0407461 0.0655163)
(0.0615591 0.105673 -0.0320773)
(0.118985 -0.0770109 0.0526232)
(0.0472592 0.0214811 -0.0481611)
(0.0948394 -0.0525057 0.0446345)
(0.0679059 -0.185508 0.06673)
(-0.0788315 -0.240025 -0.0745416)
(0.0665162 -0.045499 -0.0111575)
(-0.0539092 -0.0176431 0.0686104)
(0.0798696 0.0624581 0.0497892)
(-0.0385563 0.101464 0.0637236)
(0.065342 0.100066 -0.0362495)
(0.0441744 -0.0261518 0.0662407)
(-0.0320086 -0.0425531 -0.049069)
(-0.0206999 0.0686971 0.0914402)
(-0.0264463 0.0950722 0.0760271)
(-0.00923532 0.130532 0.0461292)
(0.0842904 -0.00609766 0.0583342)
(-0.0176365 0.00823186 -0.0742719)
(0.110164 0.0932521 -0.0608991)
(0.0924533 0.0974511 -0.0682897)
(-0.0221071 0.0671717 -0.00713378)
(0.131986 -0.040585 0.0616343)
(0.0709931 -0.0684373 -0.0944004)
(-0.06076 -0.0982503 -0.0476723)
(-0.0665303 -0.0835633 0.0414724)
(-0.00440328 -0.359659 -0.00847581)
(0.0303054 0.118873 0.0328597)
(0.0400465 0.105202 -0.055741)
(-0.0230751 0.00262876 0.0928273)
(-0.0593443 0.0828413 0.0646909)
(0.0940015 0.059386 0.0207332)
(-0.0857514 0.0536321 0.0420591)
(-0.00520674 -0.0658021 0.00587075)
(0.0749106 0.0551219 -0.07357)
(-0.0023238 -0.0594515 -0.0201272)
(0.0940004 -0.00316779 -0.0553473)
(-0.0219427 -0.0390698 0.0314698)
(-0.0261998 -0.0312475 0.0253558)
(-0.00468875 0.0469444 0.0840728)
(0.0725817 0.108275 0.0564531)
(0.0204803 0.10184 0.00572339)
(0.089523 0.0158524 -0.0905495)
(0.0380967 0.0344374 -0.0703378)
(0.0754671 -0.0824236 -0.0877276)
(0.000623168 -0.0947124 0.096649)
(0.0235882 -0.281196 -0.0916641)
(0.0565592 -0.0143434 -0.0687419)
(0.0852311 0.0699802 -0.0241639)
(-0.0559197 -0.0527571 -0.0110481)
(-0.0743366 0.0251343 -0.069118)
(-0.0483393 -0.0535145 -0.027076)
(-0.0437337 -0.00156808 0.0827316)
(0.0312605 0.124638 0.0176644)
(0.0680693 -0.0121548 -0.0718684)
(0.0961808 0.0762689 0.0436451)
(0.103007 0.00591359 0.057903)
(0.077975 -0.0412883 0.0510965)
(0.0840915 -0.0465032 -0.0461214)
(0.0354093 0.127428 -0.00310715)
(-0.0176169 0.0876611 0.000373853)
(-0.0119571 0.0772805 0.0145446)
(0.11565 0.0376216 0.0701443)
(0.0388929 -0.112583 -0.0450248)
(0.0212799 -0.0923188 0.0898661)
(-0.0221265 -0.0383882 -0.0674632)
(-0.0289992 -0.361711 0.0218948)
(0.017867 0.13602 -0.0362429)
(0.0778678 0.0211159 0.0497981)
(0.0422712 -0.0293046 -0.057826)
(0.057872 -0.0471496 -0.0102219)
(0.0870556 0.0627427 -0.0408544)
(-0.0372803 -0.0335489 -0.0665135)
(-0.0221113 0.067041 0.0847338)
(0.0975476 -0.0301017 0.0223397)
(-0.0282309 0.105832 0.0264579)
(0.0809768 0.0610638 -0.0789346)
(0.10947 -0.00573532 -0.0650797)
(0.0968864 0.099278 -0.0443317)
(0.11102 -0.0614657 0.0127719)
(-0.00687067 -0.0448804 -0.0337328)
(0.0460575 -0.00950137 0.0956621)
(-0.000441566 -0.057263 -0.046893)
(-0.0269994 -0.0589507 -0.0304008)
(0.0654229 0.0159347 -0.0828654)
(0.0805725 -0.154735 0.0279268)
(-0.0695939 -0.327304 -0.0291251)
(-0.0488012 -0.0491433 0.0609739)
(-0.0312304 -0.0388079 0.0842212)
(0.0323097 -0.0260163 -0.0869614)
(0.0805207 0.0234288 -0.067932)
(0.0323904 -0.0394035 -0.0828431)
(0.0402719 -0.0308955 -0.08821)
(-0.055358 -0.0285373 -0.00636465)
(0.0447041 0.04616 -0.0944625)
(0.0257741 0.0871042 -0.0618363)
(0.126519 0.0850474 0.0252689)
(0.0468959 -0.0529624 0.0710624)
(0.0859016 0.0808282 0.073151)
(0.0761165 0.0556327 0.0890921)
(0.116566 -0.00740639 0.0964014)
(0.186429 -0.0249898 -0.0423493)
(0.17113 -0.0417008 0.0611307)
(0.065378 0.0684146 0.0615907)
(0.176138 -0.075419 0.0476604)
(-0.0582014 -0.0357863 0.0468934)
(0.101988 -0.165665 -0.0738433)
(0.0821986 0.14474 0.0746004)
(-0.00125958 0.0124909 -0.0514017)
(0.0224069 0.0226009 -0.0725404)
(0.174219 0.0019212 -0.0712521)
(0.111586 -0.0416497 0.0759319)
(0.216735 0.0817055 0.00630887)
(0.102509 -0.0501279 -0.0572481)
(0.141238 0.0740435 -0.0745208)
(0.0968217 0.0356213 0.0545303)
(0.099695 -0.0285279 0.0298635)
(0.167034 -0.0721704 -0.0513068)
(0.245409 0.0836934 0.0519923)
(0.181781 -0.0554252 -0.0704514)
(0.169729 -0.0192669 0.0794284)
(0.271272 0.0085195 -0.0916547)
(0.264242 0.0798194 -0.0587342)
(0.181227 0.0522273 -0.0706607)
(0.348772 0.0207191 -0.000365736)
(0.191188 -0.027646 0.0680984)
(0.315124 -0.175187 -0.0096982)
)
;

boundaryField
{
    movingWall
    {
        type            fixedValue;
        value           uniform (1 0 0);
    }
    fixedWalls
    {
        type            noSlip;
    }
    frontAndBack
    {
        type            empty;
    }
}


// ************************************************************************* //
