/*--------------------------------*- C++ -*----------------------------------*\
| =========                 |                                                 |
| \\      /  F ield         | OpenFOAM: The Open Source CFD Toolbox           |
|  \\    /   O peration     | Version:  2312                                  |
|   \\  /    A nd           | Website:  www.openfoam.com                      |
|    \\/     M anipulation  |                                                 |
\*---------------------------------------------------------------------------*/
FoamFile
{
    version     2.0;
    format      ascii;
    arch        "LSB;label=32;scalar=64";
    class       volScalarField;
    location    "1.25";
    object      Ux;
}
// * * * * * * * * * * * * * * * * * * * * * * * * * * * * * * * * * * * * * //

dimensions      [0 1 -1 0 0 0 0];

internalField   nonuniform List<scalar> 
400
(
-0.000260944
-0.00160186
-0.00396793
-0.0066681
-0.0095141
-0.0123861
-0.0152195
-0.0179456
-0.0204603
-0.0226318
-0.0242093
-0.0248395
-0.0244751
-0.0226446
-0.0194683
-0.0151802
-0.0103621
-0.00574506
-0.00194848
-0.000147247
-0.000861896
-0.00309537
-0.0059644
-0.00910872
-0.0123949
-0.0157317
-0.01904
-0.0222193
-0.0251331
-0.0276001
-0.029374
-0.0301543
-0.0296716
-0.0276871
-0.0241724
-0.019401
-0.0139858
-0.00871245
-0.00409595
-0.000911119
-0.00132166
-0.00399526
-0.00698054
-0.0101706
-0.0134965
-0.0169077
-0.0203443
-0.023716
-0.0268939
-0.0296954
-0.0318655
-0.0330786
-0.0329691
-0.0311794
-0.0275148
-0.0221816
-0.0159312
-0.00986995
-0.00473198
-0.00115149
-0.00152104
-0.00441477
-0.00747266
-0.0106842
-0.0140271
-0.0174911
-0.0210612
-0.024687
-0.0282727
-0.0316529
-0.0345607
-0.0366109
-0.0372911
-0.0359534
-0.0320083
-0.0254965
-0.0173719
-0.00957186
-0.00375344
-0.000675772
-0.00156258
-0.00452629
-0.00761563
-0.0108401
-0.0142122
-0.01776
-0.021521
-0.0255043
-0.0296735
-0.033908
-0.0379549
-0.0414044
-0.0436258
-0.0435714
-0.0399291
-0.0321312
-0.0209277
-0.00919033
-0.00124688
0.000508776
-0.00151996
-0.00444669
-0.00751041
-0.0107143
-0.014098
-0.017727
-0.0216965
-0.0260921
-0.0309693
-0.0363072
-0.041971
-0.0477245
-0.053137
-0.0570617
-0.0572945
-0.0511921
-0.037422
-0.0181347
-0.000786088
0.00245197
-0.00142574
-0.00423074
-0.00719999
-0.0103214
-0.0136563
-0.0173036
-0.0214164
-0.0261679
-0.0317427
-0.0383056
-0.0460473
-0.0554601
-0.0671273
-0.0801507
-0.0899271
-0.0890857
-0.074905
-0.0485405
-0.0148369
0.00344667
-0.00129175
-0.00390028
-0.00669634
-0.00964743
-0.0128282
-0.0163597
-0.0204403
-0.0253252
-0.0313546
-0.0389578
-0.0488868
-0.0631357
-0.0835163
-0.106059
-0.120877
-0.124074
-0.113556
-0.087203
-0.0458954
-0.00105064
-0.00112513
-0.00346895
-0.00600771
-0.008682
-0.0115648
-0.0147784
-0.0185346
-0.0231279
-0.0289974
-0.0367085
-0.0473538
-0.0638712
-0.0872489
-0.110278
-0.124204
-0.128353
-0.125429
-0.109705
-0.0733852
-0.0204088
-0.000936018
-0.00295878
-0.00516055
-0.00744751
-0.00987167
-0.0125295
-0.0156038
-0.0193554
-0.0241814
-0.0305205
-0.0391819
-0.0523366
-0.0700294
-0.0854757
-0.092975
-0.095265
-0.0979626
-0.0983379
-0.0810994
-0.0363108
-0.000742566
-0.00240928
-0.00421531
-0.00602135
-0.00784258
-0.00972812
-0.0117961
-0.0142093
-0.0171897
-0.0208853
-0.0253059
-0.0311185
-0.0390857
-0.0455742
-0.0457419
-0.0448824
-0.0490132
-0.0597963
-0.0642076
-0.0372717
-0.000568182
-0.00188486
-0.00327141
-0.00453879
-0.00565971
-0.00662961
-0.00749077
-0.00828637
-0.00903199
-0.00956196
-0.00920685
-0.00768061
-0.00556934
-0.00406872
-0.00203466
-0.00232455
-0.0081829
-0.0200641
-0.0367939
-0.0287403
-0.000449736
-0.00148188
-0.00246607
-0.00318177
-0.00356464
-0.00356832
-0.00317481
-0.00233594
-0.000943874
0.00136026
0.00554521
0.012331
0.0217474
0.0287381
0.0329273
0.0297758
0.0183463
0.00486531
-0.0140751
-0.0191874
-0.000442098
-0.00130386
-0.00195548
-0.00214793
-0.00180988
-0.000881726
0.000679915
0.00295786
0.00612318
0.0105118
0.016883
0.0260866
0.0379676
0.0481711
0.0532476
0.0490588
0.0353233
0.0183273
-0.00058882
-0.0142739
-0.000609813
-0.00153756
-0.00193546
-0.00163108
-0.000614727
0.0011703
0.00375534
0.00720244
0.011657
0.0173539
0.0246729
0.0341547
0.0454931
0.0554884
0.0600161
0.0560183
0.0433867
0.0256073
0.00700928
-0.0127725
-0.00115427
-0.00230504
-0.00247757
-0.00171763
-4.57275e-05
0.00249869
0.00592432
0.0102755
0.0156432
0.0221321
0.0298303
0.0387749
0.0485029
0.0568951
0.0605878
0.0573828
0.0464416
0.0305343
0.0136346
-0.0114541
-0.00219402
-0.00419886
-0.00382241
-0.00228477
0.000140985
0.00331965
0.00746145
0.0125457
0.0186172
0.0256701
0.0336136
0.0421609
0.0506824
0.0577363
0.0610733
0.0587117
0.0487649
0.0382711
0.0211068
-0.00792022
-0.00399808
-0.00585999
-0.00396881
-0.00123092
0.00206335
0.0061975
0.0111959
0.0170886
0.0238698
0.0315099
0.039865
0.0485489
0.0568576
0.0637235
0.067096
0.0663475
0.0564156
0.0564227
0.024157
0.00500236
-0.00608268
-0.00890711
-0.000902687
0.00780527
0.0169716
0.0261823
0.0351087
0.04388
0.0526814
0.0616712
0.0708879
0.0801539
0.088984
0.0967965
0.101891
0.105503
0.0967683
0.106667
0.0298899
0.0709486
0.0407226
0.0623956
0.0878067
0.109669
0.126529
0.140659
0.153499
0.165468
0.176725
0.187434
0.197707
0.207556
0.216769
0.225196
0.231469
0.237647
0.231014
0.251662
0.12495
0.377986
)
;

boundaryField
{
    movingWall
    {
        type            calculated;
        value           uniform 1;
    }
    fixedWalls
    {
        type            calculated;
        value           uniform 0;
    }
    frontAndBack
    {
        type            empty;
    }
}


// ************************************************************************* //
