/*--------------------------------*- C++ -*----------------------------------*\
| =========                 |                                                 |
| \\      /  F ield         | OpenFOAM: The Open Source CFD Toolbox           |
|  \\    /   O peration     | Version:  2312                                  |
|   \\  /    A nd           | Website:  www.openfoam.com                      |
|    \\/     M anipulation  |                                                 |
\*---------------------------------------------------------------------------*/
FoamFile
{
    version     2.0;
    format      ascii;
    arch        "LSB;label=32;scalar=64";
    class       volScalarField;
    location    "1.25";
    object      Uy;
}
// * * * * * * * * * * * * * * * * * * * * * * * * * * * * * * * * * * * * * //

dimensions      [0 1 -1 0 0 0 0];

internalField   nonuniform List<scalar> 
400
(
0.000259756
0.000854914
0.00125032
0.00140513
0.00144349
0.00143597
0.00140266
0.00133814
0.00121473
0.000984471
0.000623732
0.000193467
-0.000517027
-0.00127258
-0.00199848
-0.00250904
-0.00262019
-0.00220767
-0.00126123
-0.000216713
0.00161898
0.00315472
0.00402377
0.00441378
0.0045457
0.00453739
0.00441881
0.00416104
0.00369393
0.00292206
0.00177188
0.000225495
-0.00171848
-0.0038835
-0.00588592
-0.00724612
-0.00753802
-0.00660654
-0.00456322
-0.00180005
0.00397956
0.00599035
0.00705676
0.00761101
0.0078528
0.00788167
0.0077087
0.00727607
0.00647178
0.00515354
0.00319613
0.000535106
-0.00279852
-0.00652234
-0.0100275
-0.0124608
-0.013091
-0.011766
-0.0088342
-0.00460089
0.00670145
0.00902354
0.010175
0.0108432
0.0112
0.0113118
0.0111617
0.0106575
0.00963761
0.00789017
0.0052004
0.00141608
-0.00347352
-0.00915465
-0.014744
-0.0188131
-0.0199343
-0.0178076
-0.01335
-0.00724046
0.00957924
0.01217
0.0133641
0.0141284
0.0146237
0.0148884
0.0148794
0.0144676
0.0134301
0.0114555
0.0081941
0.00334424
-0.00327447
-0.0114977
-0.0202804
-0.027154
-0.0292176
-0.0252299
-0.0174659
-0.00853873
0.0124538
0.0153197
0.016558
0.0174277
0.018106
0.0186174
0.0189035
0.0188071
0.0180439
0.0161904
0.0127455
0.00721326
-0.000942505
-0.0119927
-0.0250642
-0.0367478
-0.0423278
-0.0373799
-0.0227689
-0.00776893
0.0152219
0.0183936
0.0197004
0.0206998
0.0216119
0.0224715
0.0232257
0.0237127
0.023616
0.0224441
0.019638
0.0146596
0.00673959
-0.00569207
-0.0240316
-0.0456367
-0.0611704
-0.0602105
-0.0379003
-0.00825586
0.0178048
0.0213144
0.0227165
0.0238687
0.0250568
0.0263501
0.02773
0.0290728
0.0301172
0.0304976
0.0299981
0.0285121
0.0239583
0.00990918
-0.0179828
-0.0539383
-0.0848694
-0.0959193
-0.0730158
-0.0180475
0.0201348
0.0240032
0.0255148
0.0268228
0.0282946
0.030054
0.0321428
0.0345256
0.0371234
0.0399933
0.0436556
0.0478942
0.0468313
0.0289543
-0.00950618
-0.0577636
-0.103298
-0.132732
-0.123519
-0.0498161
0.0221553
0.0263853
0.0279967
0.0294273
0.0311338
0.0333024
0.0360457
0.0394399
0.0436339
0.0491335
0.0570319
0.0660471
0.066254
0.0446494
0.00072118
-0.0532118
-0.104826
-0.151259
-0.173186
-0.109182
0.0238315
0.0283968
0.0300717
0.0315485
0.0333747
0.0357945
0.0389795
0.0430911
0.0484208
0.0556527
0.065888
0.0769519
0.0773285
0.0531665
0.00616261
-0.0470466
-0.0951127
-0.144167
-0.196591
-0.170811
0.0251666
0.0300105
0.0316767
0.0330815
0.0348573
0.0372934
0.0405925
0.0449368
0.0506065
0.0581229
0.0683347
0.0786661
0.0790768
0.0554494
0.00800107
-0.0448542
-0.0879707
-0.12737
-0.190367
-0.219271
0.0261805
0.0312361
0.0327889
0.0339707
0.0354935
0.0376759
0.0407227
0.0447739
0.0499849
0.0565786
0.0648005
0.0728834
0.0720332
0.0525139
0.0105382
-0.0385623
-0.0790742
-0.113948
-0.173318
-0.245688
0.0270864
0.0321701
0.0334458
0.0342202
0.0352752
0.0369473
0.0394343
0.0427989
0.0470334
0.0520743
0.0576343
0.0622494
0.0600138
0.0437716
0.0113225
-0.0286259
-0.0653408
-0.0989132
-0.156258
-0.256634
0.0277787
0.0328526
0.0336663
0.033819
0.0342204
0.0351899
0.0369025
0.0393689
0.0424602
0.0458855
0.0490646
0.0506742
0.0473292
0.0344424
0.0105598
-0.0198448
-0.0503693
-0.0818779
-0.137154
-0.260371
0.029819
0.0337923
0.0335939
0.0328987
0.0324554
0.0325853
0.0334029
0.0348796
0.0368402
0.0389229
0.0404865
0.040414
0.0368241
0.0272385
0.0104149
-0.0118569
-0.0361527
-0.0655443
-0.116841
-0.261968
0.0283487
0.0323186
0.0318822
0.0307235
0.0296514
0.0291152
0.0291313
0.0297028
0.0306729
0.031726
0.0323405
0.031693
0.0286503
0.0219209
0.0105346
-0.00524881
-0.0238396
-0.0518789
-0.0982179
-0.266441
0.04542
0.0436948
0.0379116
0.0328651
0.0294675
0.0271605
0.0256791
0.024919
0.0246806
0.0246996
0.0245931
0.0237917
0.0216205
0.0173977
0.0106516
0.000531931
-0.0129321
-0.0393131
-0.0770344
-0.267412
0.0176198
0.0102681
0.0105166
0.0135441
0.0144415
0.0140543
0.0135966
0.0133552
0.0132647
0.01324
0.0131778
0.0128878
0.0120779
0.0103682
0.0075655
0.00252628
-0.00384346
-0.0215468
-0.0421837
-0.225529
0.0926384
0.0699877
0.0440662
0.0294244
0.0216832
0.0171086
0.0140804
0.0119184
0.0102866
0.00902182
0.00799674
0.00711691
0.00631929
0.00552226
0.00463562
0.00337996
0.0019451
-0.00314648
0.00358071
-0.0980228
)
;

boundaryField
{
    movingWall
    {
        type            calculated;
        value           uniform 0;
    }
    fixedWalls
    {
        type            calculated;
        value           uniform 0;
    }
    frontAndBack
    {
        type            empty;
    }
}


// ************************************************************************* //
