/*--------------------------------*- C++ -*----------------------------------*\
| =========                 |                                                 |
| \\      /  F ield         | OpenFOAM: The Open Source CFD Toolbox           |
|  \\    /   O peration     | Version:  2312                                  |
|   \\  /    A nd           | Website:  www.openfoam.com                      |
|    \\/     M anipulation  |                                                 |
\*---------------------------------------------------------------------------*/
FoamFile
{
    version     2.0;
    format      ascii;
    arch        "LSB;label=32;scalar=64";
    class       volVectorField;
    location    "1.25";
    object      vorticityField;
}
// * * * * * * * * * * * * * * * * * * * * * * * * * * * * * * * * * * * * * //

dimensions      [0 0 -1 0 0 0 0];

internalField   nonuniform List<vector> 
400
(
(0 -0 0.223751)
(0 -0 0.56878)
(0 -0 1.04825)
(0 -0 1.597)
(0 -0 2.19398)
(0 -0 2.8077)
(0 -0 3.41617)
(0 -0 3.9977)
(0 -0 4.52398)
(0 -0 4.96409)
(0 -0 5.27922)
(0 -0 5.38531)
(0 -0 5.26807)
(0 -0 4.88502)
(0 -0 4.24042)
(0 -0 3.39595)
(0 -0 2.46492)
(0 -0 1.58165)
(0 -0 0.803539)
(0 -0 0.253631)
(0 -0 0.583442)
(0 -0 0.479819)
(0 -0 0.427167)
(0 -0 0.402441)
(0 -0 0.410604)
(0 -0 0.439472)
(0 -0 0.474845)
(0 -0 0.504549)
(0 -0 0.519463)
(0 -0 0.514155)
(0 -0 0.495966)
(0 -0 0.474879)
(0 -0 0.4385)
(0 -0 0.436739)
(0 -0 0.468382)
(0 -0 0.534932)
(0 -0 0.620869)
(0 -0 0.709968)
(0 -0 0.759)
(0 -0 0.736752)
(0 -0 1.06291)
(0 -0 0.439659)
(0 -0 0.312891)
(0 -0 0.237154)
(0 -0 0.190293)
(0 -0 0.161532)
(0 -0 0.141557)
(0 -0 0.123078)
(0 -0 0.101703)
(0 -0 0.0777116)
(0 -0 0.05683)
(0 -0 0.0461894)
(0 -0 0.0562012)
(0 -0 0.103741)
(0 -0 0.189741)
(0 -0 0.303204)
(0 -0 0.408098)
(0 -0 0.511619)
(0 -0 0.682258)
(0 -0 1.31997)
(0 -0 1.59659)
(0 -0 0.400454)
(0 -0 0.245479)
(0 -0 0.169464)
(0 -0 0.118417)
(0 -0 0.0813926)
(0 -0 0.0522493)
(0 -0 0.0264215)
(0 -0 0.00122187)
(0 -0 -0.0224674)
(0 -0 -0.0384688)
(0 -0 -0.0348195)
(0 -0 0.00859753)
(0 -0 0.112151)
(0 -0 0.275588)
(0 -0 0.475929)
(0 -0 0.600202)
(0 -0 0.590462)
(0 -0 0.708205)
(0 -0 1.89302)
(0 -0 2.17482)
(0 -0 0.381682)
(0 -0 0.199606)
(0 -0 0.12896)
(0 -0 0.0830837)
(0 -0 0.04916)
(0 -0 0.0214588)
(0 -0 -0.00442719)
(0 -0 -0.0315502)
(0 -0 -0.0581571)
(0 -0 -0.0701029)
(0 -0 -0.0354926)
(0 -0 0.100398)
(0 -0 0.410236)
(0 -0 0.962996)
(0 -0 1.67583)
(0 -0 2.19742)
(0 -0 2.03146)
(0 -0 1.37238)
(0 -0 2.28769)
(0 -0 2.76366)
(0 -0 0.380868)
(0 -0 0.169239)
(0 -0 0.102923)
(0 -0 0.0633922)
(0 -0 0.0341131)
(0 -0 0.00850562)
(0 -0 -0.0195999)
(0 -0 -0.0547523)
(0 -0 -0.090078)
(0 -0 -0.088477)
(0 -0 0.0367699)
(0 -0 0.429555)
(0 -0 1.24576)
(0 -0 2.5243)
(0 -0 3.96908)
(0 -0 5.33451)
(0 -0 5.89091)
(0 -0 4.3201)
(0 -0 2.75999)
(0 -0 3.33873)
(0 -0 0.393203)
(0 -0 0.14921)
(0 -0 0.0844713)
(0 -0 0.0501927)
(0 -0 0.0246542)
(0 -0 -0.00149732)
(0 -0 -0.0376624)
(0 -0 -0.0883352)
(0 -0 -0.132745)
(0 -0 -0.0868702)
(0 -0 0.251274)
(0 -0 1.00276)
(0 -0 1.8226)
(0 -0 2.36378)
(0 -0 3.57426)
(0 -0 6.15606)
(0 -0 9.23384)
(0 -0 9.7064)
(0 -0 4.96587)
(0 -0 3.88185)
(0 -0 0.414996)
(0 -0 0.136207)
(0 -0 0.0700955)
(0 -0 0.0389819)
(0 -0 0.0147982)
(0 -0 -0.0159167)
(0 -0 -0.0652831)
(0 -0 -0.132044)
(0 -0 -0.171611)
(0 -0 -0.0679019)
(0 -0 0.23713)
(0 -0 0.151871)
(0 -0 -1.1814)
(0 -0 -2.9571)
(0 -0 -2.76197)
(0 -0 0.85428)
(0 -0 7.3018)
(0 -0 13.642)
(0 -0 11.4919)
(0 -0 4.37822)
(0 -0 0.443847)
(0 -0 0.12838)
(0 -0 0.0579851)
(0 -0 0.0274778)
(0 -0 0.00180655)
(0 -0 -0.0364877)
(0 -0 -0.0989216)
(0 -0 -0.170563)
(0 -0 -0.190512)
(0 -0 -0.18039)
(0 -0 -0.762332)
(0 -0 -3.24269)
(0 -0 -7.69207)
(0 -0 -11.462)
(0 -0 -12.2601)
(0 -0 -9.05618)
(0 -0 -0.908621)
(0 -0 11.8119)
(0 -0 20.8596)
(0 -0 4.8158)
(0 -0 0.47817)
(0 -0 0.12496)
(0 -0 0.0476478)
(0 -0 0.0152966)
(0 -0 -0.0138391)
(0 -0 -0.0600979)
(0 -0 -0.133043)
(0 -0 -0.211413)
(0 -0 -0.242522)
(0 -0 -0.513426)
(0 -0 -2.35306)
(0 -0 -6.95609)
(0 -0 -13.0236)
(0 -0 -17.6323)
(0 -0 -18.9017)
(0 -0 -17.4463)
(0 -0 -11.8269)
(0 -0 3.28994)
(0 -0 29.9231)
(0 -0 5.18604)
(0 -0 0.516632)
(0 -0 0.126256)
(0 -0 0.0394264)
(0 -0 0.00340181)
(0 -0 -0.0295111)
(0 -0 -0.0816392)
(0 -0 -0.162781)
(0 -0 -0.258773)
(0 -0 -0.34913)
(0 -0 -0.867596)
(0 -0 -3.32155)
(0 -0 -8.82454)
(0 -0 -15.2573)
(0 -0 -19.1154)
(0 -0 -19.4216)
(0 -0 -18.69)
(0 -0 -17.9752)
(0 -0 -7.09495)
(0 -0 35.9832)
(0 -0 5.48843)
(0 -0 0.558265)
(0 -0 0.132179)
(0 -0 0.0341042)
(0 -0 -0.00660393)
(0 -0 -0.0424659)
(0 -0 -0.0977909)
(0 -0 -0.18593)
(0 -0 -0.305969)
(0 -0 -0.451745)
(0 -0 -1.03079)
(0 -0 -3.27074)
(0 -0 -8.40499)
(0 -0 -14.5388)
(0 -0 -17.8973)
(0 -0 -17.063)
(0 -0 -14.9875)
(0 -0 -16.7058)
(0 -0 -14.2034)
(0 -0 39.1554)
(0 -0 5.72905)
(0 -0 0.60274)
(0 -0 0.141872)
(0 -0 0.031373)
(0 -0 -0.0144646)
(0 -0 -0.0518765)
(0 -0 -0.107266)
(0 -0 -0.198202)
(0 -0 -0.335048)
(0 -0 -0.525817)
(0 -0 -0.978502)
(0 -0 -2.65345)
(0 -0 -6.39065)
(0 -0 -11.3735)
(0 -0 -14.6359)
(0 -0 -14.0996)
(0 -0 -11.8892)
(0 -0 -13.2635)
(0 -0 -16.7945)
(0 -0 40.4539)
(0 -0 5.94166)
(0 -0 0.641508)
(0 -0 0.15194)
(0 -0 0.0278699)
(0 -0 -0.0222769)
(0 -0 -0.0579501)
(0 -0 -0.107858)
(0 -0 -0.193933)
(0 -0 -0.332543)
(0 -0 -0.539274)
(0 -0 -0.895254)
(0 -0 -1.94442)
(0 -0 -4.22235)
(0 -0 -7.54415)
(0 -0 -9.94862)
(0 -0 -10.2906)
(0 -0 -9.53277)
(0 -0 -11.1659)
(0 -0 -17.8806)
(0 -0 40.6478)
(0 -0 6.13435)
(0 -0 0.688878)
(0 -0 0.148847)
(0 -0 0.0123844)
(0 -0 -0.0393228)
(0 -0 -0.0698361)
(0 -0 -0.106542)
(0 -0 -0.175983)
(0 -0 -0.300351)
(0 -0 -0.501591)
(0 -0 -0.815861)
(0 -0 -1.44236)
(0 -0 -2.67671)
(0 -0 -4.54934)
(0 -0 -6.16274)
(0 -0 -6.92531)
(0 -0 -7.31515)
(0 -0 -9.89917)
(0 -0 -19.2717)
(0 -0 39.4705)
(0 -0 6.51956)
(0 -0 0.643619)
(0 -0 0.0993343)
(0 -0 -0.0484828)
(0 -0 -0.106912)
(0 -0 -0.120187)
(0 -0 -0.141181)
(0 -0 -0.190594)
(0 -0 -0.291701)
(0 -0 -0.466993)
(0 -0 -0.744962)
(0 -0 -1.16686)
(0 -0 -1.83648)
(0 -0 -2.8657)
(0 -0 -4.01525)
(0 -0 -4.9261)
(0 -0 -5.90656)
(0 -0 -9.33522)
(0 -0 -21.0521)
(0 -0 37.3956)
(0 -0 6.35111)
(0 -0 0.708845)
(0 -0 -0.010385)
(0 -0 -0.271757)
(0 -0 -0.371735)
(0 -0 -0.421891)
(0 -0 -0.468402)
(0 -0 -0.527154)
(0 -0 -0.620337)
(0 -0 -0.771015)
(0 -0 -1.00677)
(0 -0 -1.34643)
(0 -0 -1.81269)
(0 -0 -2.49441)
(0 -0 -3.36779)
(0 -0 -4.33389)
(0 -0 -5.66041)
(0 -0 -10.0267)
(0 -0 -22.5085)
(0 -0 34.8203)
(0 -0 9.30034)
(0 -0 -0.280017)
(0 -0 -1.37494)
(0 -0 -1.85341)
(0 -0 -2.25352)
(0 -0 -2.66511)
(0 -0 -2.98888)
(0 -0 -3.23328)
(0 -0 -3.42836)
(0 -0 -3.60886)
(0 -0 -3.81822)
(0 -0 -4.09655)
(0 -0 -4.46955)
(0 -0 -5.00291)
(0 -0 -5.76831)
(0 -0 -7.03746)
(0 -0 -8.78485)
(0 -0 -13.2498)
(0 -0 -23.6882)
(0 -0 26.5577)
(0 -0 -1.68328)
(0 -0 -7.53588)
(0 -0 -8.84994)
(0 -0 -10.6975)
(0 -0 -12.3956)
(0 -0 -13.5307)
(0 -0 -14.3002)
(0 -0 -14.8712)
(0 -0 -15.2971)
(0 -0 -15.6011)
(0 -0 -15.8194)
(0 -0 -16.0107)
(0 -0 -16.2431)
(0 -0 -16.5985)
(0 -0 -17.2214)
(0 -0 -18.2708)
(0 -0 -19.8672)
(0 -0 -23.3579)
(0 -0 -30.4775)
(0 -0 -10.5272)
(0 -0 -180.273)
(0 -0 -199.508)
(0 -0 -195.366)
(0 -0 -190.491)
(0 -0 -186.882)
(0 -0 -184.076)
(0 -0 -181.658)
(0 -0 -179.445)
(0 -0 -177.349)
(0 -0 -175.318)
(0 -0 -173.331)
(0 -0 -171.397)
(0 -0 -169.584)
(0 -0 -167.969)
(0 -0 -166.878)
(0 -0 -165.954)
(0 -0 -167.874)
(0 -0 -164.004)
(0 -0 -194.004)
(0 -0 -145.662)
)
;

boundaryField
{
    movingWall
    {
        type            calculated;
        value           nonuniform List<vector> 
20
(
(0 -0 -367.448)
(0 -0 -379.899)
(0 -0 -368.934)
(0 -0 -358.371)
(0 -0 -350.62)
(0 -0 -344.497)
(0 -0 -339.119)
(0 -0 -334.192)
(0 -0 -329.599)
(0 -0 -325.255)
(0 -0 -321.108)
(0 -0 -317.145)
(0 -0 -313.452)
(0 -0 -310.09)
(0 -0 -307.627)
(0 -0 -305.21)
(0 -0 -308.247)
(0 -0 -299.172)
(0 -0 -359.508)
(0 -0 -239.361)
)
;
    }
    fixedWalls
    {
        type            calculated;
        value           nonuniform List<vector> 
60
(
(0 -0 0.216187)
(0 -0 0.753664)
(0 -0 1.65774)
(0 -0 2.70467)
(0 -0 3.83159)
(0 -0 4.96783)
(0 -0 6.06595)
(0 -0 7.09184)
(0 -0 8.01835)
(0 -0 8.82388)
(0 -0 9.49581)
(0 -0 10.0374)
(0 -0 10.4596)
(0 -0 10.8506)
(0 -0 11.1827)
(0 -0 12.086)
(0 -0 11.6239)
(0 -0 18.5569)
(0 -0 2.57586)
(0 -0 -159.481)
(0 -0 0.192522)
(0 -0 0.820443)
(0 -0 1.81682)
(0 -0 2.73016)
(0 -0 3.10272)
(0 -0 2.81378)
(0 -0 3.65261)
(0 -0 9.60455)
(0 -0 23.4524)
(0 -0 45.3591)
(0 -0 67.5675)
(0 -0 85.9002)
(0 -0 96.8286)
(0 -0 102.012)
(0 -0 103.867)
(0 -0 104.302)
(0 -0 104.931)
(0 -0 99.0778)
(0 -0 52.9131)
(0 -0 -115.897)
(0 -0 0.215845)
(0 -0 0.739799)
(0 -0 1.64219)
(0 -0 2.68656)
(0 -0 3.80872)
(0 -0 4.95036)
(0 -0 6.07801)
(0 -0 7.15944)
(0 -0 8.14877)
(0 -0 8.99364)
(0 -0 9.60461)
(0 -0 9.82172)
(0 -0 9.64343)
(0 -0 8.90969)
(0 -0 7.66368)
(0 -0 6.0099)
(0 -0 4.17497)
(0 -0 2.43392)
(0 -0 0.978487)
(0 -0 0.206693)
)
;
    }
    frontAndBack
    {
        type            empty;
    }
}


// ************************************************************************* //
