/*--------------------------------*- C++ -*----------------------------------*\
| =========                 |                                                 |
| \\      /  F ield         | OpenFOAM: The Open Source CFD Toolbox           |
|  \\    /   O peration     | Version:  2312                                  |
|   \\  /    A nd           | Website:  www.openfoam.com                      |
|    \\/     M anipulation  |                                                 |
\*---------------------------------------------------------------------------*/
FoamFile
{
    version     2.0;
    format      ascii;
    arch        "LSB;label=32;scalar=64";
    class       volVectorField;
    location    "1.25";
    object      zeroGradient(U);
}
// * * * * * * * * * * * * * * * * * * * * * * * * * * * * * * * * * * * * * //

dimensions      [0 1 -1 0 0 0 0];

internalField   nonuniform List<vector> 
400
(
(-0.000260944 0.000259756 0)
(-0.00160186 0.000854914 0)
(-0.00396793 0.00125032 0)
(-0.0066681 0.00140513 0)
(-0.0095141 0.00144349 0)
(-0.0123861 0.00143597 0)
(-0.0152195 0.00140266 0)
(-0.0179456 0.00133814 0)
(-0.0204603 0.00121473 0)
(-0.0226318 0.000984471 0)
(-0.0242093 0.000623732 0)
(-0.0248395 0.000193467 0)
(-0.0244751 -0.000517027 0)
(-0.0226446 -0.00127258 0)
(-0.0194683 -0.00199848 0)
(-0.0151802 -0.00250904 0)
(-0.0103621 -0.00262019 0)
(-0.00574506 -0.00220767 0)
(-0.00194848 -0.00126123 0)
(-0.000147247 -0.000216713 0)
(-0.000861896 0.00161898 0)
(-0.00309537 0.00315472 0)
(-0.0059644 0.00402377 0)
(-0.00910872 0.00441378 0)
(-0.0123949 0.0045457 0)
(-0.0157317 0.00453739 0)
(-0.01904 0.00441881 0)
(-0.0222193 0.00416104 0)
(-0.0251331 0.00369393 0)
(-0.0276001 0.00292206 0)
(-0.029374 0.00177188 0)
(-0.0301543 0.000225495 0)
(-0.0296716 -0.00171848 0)
(-0.0276871 -0.0038835 0)
(-0.0241724 -0.00588592 0)
(-0.019401 -0.00724612 0)
(-0.0139858 -0.00753802 0)
(-0.00871245 -0.00660654 0)
(-0.00409595 -0.00456322 0)
(-0.000911119 -0.00180005 0)
(-0.00132166 0.00397956 0)
(-0.00399526 0.00599035 0)
(-0.00698054 0.00705676 0)
(-0.0101706 0.00761101 0)
(-0.0134965 0.0078528 0)
(-0.0169077 0.00788167 0)
(-0.0203443 0.0077087 0)
(-0.023716 0.00727607 0)
(-0.0268939 0.00647178 0)
(-0.0296954 0.00515354 0)
(-0.0318655 0.00319613 0)
(-0.0330786 0.000535106 0)
(-0.0329691 -0.00279852 0)
(-0.0311794 -0.00652234 0)
(-0.0275148 -0.0100275 0)
(-0.0221816 -0.0124608 0)
(-0.0159312 -0.013091 0)
(-0.00986995 -0.011766 0)
(-0.00473198 -0.0088342 0)
(-0.00115149 -0.00460089 0)
(-0.00152104 0.00670145 0)
(-0.00441477 0.00902354 0)
(-0.00747266 0.010175 0)
(-0.0106842 0.0108432 0)
(-0.0140271 0.0112 0)
(-0.0174911 0.0113118 0)
(-0.0210612 0.0111617 0)
(-0.024687 0.0106575 0)
(-0.0282727 0.00963761 0)
(-0.0316529 0.00789017 0)
(-0.0345607 0.0052004 0)
(-0.0366109 0.00141608 0)
(-0.0372911 -0.00347352 0)
(-0.0359534 -0.00915465 0)
(-0.0320083 -0.014744 0)
(-0.0254965 -0.0188131 0)
(-0.0173719 -0.0199343 0)
(-0.00957186 -0.0178076 0)
(-0.00375344 -0.01335 0)
(-0.000675772 -0.00724046 0)
(-0.00156258 0.00957924 0)
(-0.00452629 0.01217 0)
(-0.00761563 0.0133641 0)
(-0.0108401 0.0141284 0)
(-0.0142122 0.0146237 0)
(-0.01776 0.0148884 0)
(-0.021521 0.0148794 0)
(-0.0255043 0.0144676 0)
(-0.0296735 0.0134301 0)
(-0.033908 0.0114555 0)
(-0.0379549 0.0081941 0)
(-0.0414044 0.00334424 0)
(-0.0436258 -0.00327447 0)
(-0.0435714 -0.0114977 0)
(-0.0399291 -0.0202804 0)
(-0.0321312 -0.027154 0)
(-0.0209277 -0.0292176 0)
(-0.00919033 -0.0252299 0)
(-0.00124688 -0.0174659 0)
(0.000508776 -0.00853873 0)
(-0.00151996 0.0124538 0)
(-0.00444669 0.0153197 0)
(-0.00751041 0.016558 0)
(-0.0107143 0.0174277 0)
(-0.014098 0.018106 0)
(-0.017727 0.0186174 0)
(-0.0216965 0.0189035 0)
(-0.0260921 0.0188071 0)
(-0.0309693 0.0180439 0)
(-0.0363072 0.0161904 0)
(-0.041971 0.0127455 0)
(-0.0477245 0.00721326 0)
(-0.053137 -0.000942505 0)
(-0.0570617 -0.0119927 0)
(-0.0572945 -0.0250642 0)
(-0.0511921 -0.0367478 0)
(-0.037422 -0.0423278 0)
(-0.0181347 -0.0373799 0)
(-0.000786088 -0.0227689 0)
(0.00245197 -0.00776893 0)
(-0.00142574 0.0152219 0)
(-0.00423074 0.0183936 0)
(-0.00719999 0.0197004 0)
(-0.0103214 0.0206998 0)
(-0.0136563 0.0216119 0)
(-0.0173036 0.0224715 0)
(-0.0214164 0.0232257 0)
(-0.0261679 0.0237127 0)
(-0.0317427 0.023616 0)
(-0.0383056 0.0224441 0)
(-0.0460473 0.019638 0)
(-0.0554601 0.0146596 0)
(-0.0671273 0.00673959 0)
(-0.0801507 -0.00569207 0)
(-0.0899271 -0.0240316 0)
(-0.0890857 -0.0456367 0)
(-0.074905 -0.0611704 0)
(-0.0485405 -0.0602105 0)
(-0.0148369 -0.0379003 0)
(0.00344667 -0.00825586 0)
(-0.00129175 0.0178048 0)
(-0.00390028 0.0213144 0)
(-0.00669634 0.0227165 0)
(-0.00964743 0.0238687 0)
(-0.0128282 0.0250568 0)
(-0.0163597 0.0263501 0)
(-0.0204403 0.02773 0)
(-0.0253252 0.0290728 0)
(-0.0313546 0.0301172 0)
(-0.0389578 0.0304976 0)
(-0.0488868 0.0299981 0)
(-0.0631357 0.0285121 0)
(-0.0835163 0.0239583 0)
(-0.106059 0.00990918 0)
(-0.120877 -0.0179828 0)
(-0.124074 -0.0539383 0)
(-0.113556 -0.0848694 0)
(-0.087203 -0.0959193 0)
(-0.0458954 -0.0730158 0)
(-0.00105064 -0.0180475 0)
(-0.00112513 0.0201348 0)
(-0.00346895 0.0240032 0)
(-0.00600771 0.0255148 0)
(-0.008682 0.0268228 0)
(-0.0115648 0.0282946 0)
(-0.0147784 0.030054 0)
(-0.0185346 0.0321428 0)
(-0.0231279 0.0345256 0)
(-0.0289974 0.0371234 0)
(-0.0367085 0.0399933 0)
(-0.0473538 0.0436556 0)
(-0.0638712 0.0478942 0)
(-0.0872489 0.0468313 0)
(-0.110278 0.0289543 0)
(-0.124204 -0.00950618 0)
(-0.128353 -0.0577636 0)
(-0.125429 -0.103298 0)
(-0.109705 -0.132732 0)
(-0.0733852 -0.123519 0)
(-0.0204088 -0.0498161 0)
(-0.000936018 0.0221553 0)
(-0.00295878 0.0263853 0)
(-0.00516055 0.0279967 0)
(-0.00744751 0.0294273 0)
(-0.00987167 0.0311338 0)
(-0.0125295 0.0333024 0)
(-0.0156038 0.0360457 0)
(-0.0193554 0.0394399 0)
(-0.0241814 0.0436339 0)
(-0.0305205 0.0491335 0)
(-0.0391819 0.0570319 0)
(-0.0523366 0.0660471 0)
(-0.0700294 0.066254 0)
(-0.0854757 0.0446494 0)
(-0.092975 0.00072118 0)
(-0.095265 -0.0532118 0)
(-0.0979626 -0.104826 0)
(-0.0983379 -0.151259 0)
(-0.0810994 -0.173186 0)
(-0.0363108 -0.109182 0)
(-0.000742566 0.0238315 0)
(-0.00240928 0.0283968 0)
(-0.00421531 0.0300717 0)
(-0.00602135 0.0315485 0)
(-0.00784258 0.0333747 0)
(-0.00972812 0.0357945 0)
(-0.0117961 0.0389795 0)
(-0.0142093 0.0430911 0)
(-0.0171897 0.0484208 0)
(-0.0208853 0.0556527 0)
(-0.0253059 0.065888 0)
(-0.0311185 0.0769519 0)
(-0.0390857 0.0773285 0)
(-0.0455742 0.0531665 0)
(-0.0457419 0.00616261 0)
(-0.0448824 -0.0470466 0)
(-0.0490132 -0.0951127 0)
(-0.0597963 -0.144167 0)
(-0.0642076 -0.196591 0)
(-0.0372717 -0.170811 0)
(-0.000568182 0.0251666 0)
(-0.00188486 0.0300105 0)
(-0.00327141 0.0316767 0)
(-0.00453879 0.0330815 0)
(-0.00565971 0.0348573 0)
(-0.00662961 0.0372934 0)
(-0.00749077 0.0405925 0)
(-0.00828637 0.0449368 0)
(-0.00903199 0.0506065 0)
(-0.00956196 0.0581229 0)
(-0.00920685 0.0683347 0)
(-0.00768061 0.0786661 0)
(-0.00556934 0.0790768 0)
(-0.00406872 0.0554494 0)
(-0.00203466 0.00800107 0)
(-0.00232455 -0.0448542 0)
(-0.0081829 -0.0879707 0)
(-0.0200641 -0.12737 0)
(-0.0367939 -0.190367 0)
(-0.0287403 -0.219271 0)
(-0.000449736 0.0261805 0)
(-0.00148188 0.0312361 0)
(-0.00246607 0.0327889 0)
(-0.00318177 0.0339707 0)
(-0.00356464 0.0354935 0)
(-0.00356832 0.0376759 0)
(-0.00317481 0.0407227 0)
(-0.00233594 0.0447739 0)
(-0.000943874 0.0499849 0)
(0.00136026 0.0565786 0)
(0.00554521 0.0648005 0)
(0.012331 0.0728834 0)
(0.0217474 0.0720332 0)
(0.0287381 0.0525139 0)
(0.0329273 0.0105382 0)
(0.0297758 -0.0385623 0)
(0.0183463 -0.0790742 0)
(0.00486531 -0.113948 0)
(-0.0140751 -0.173318 0)
(-0.0191874 -0.245688 0)
(-0.000442098 0.0270864 0)
(-0.00130386 0.0321701 0)
(-0.00195548 0.0334458 0)
(-0.00214793 0.0342202 0)
(-0.00180988 0.0352752 0)
(-0.000881726 0.0369473 0)
(0.000679915 0.0394343 0)
(0.00295786 0.0427989 0)
(0.00612318 0.0470334 0)
(0.0105118 0.0520743 0)
(0.016883 0.0576343 0)
(0.0260866 0.0622494 0)
(0.0379676 0.0600138 0)
(0.0481711 0.0437716 0)
(0.0532476 0.0113225 0)
(0.0490588 -0.0286259 0)
(0.0353233 -0.0653408 0)
(0.0183273 -0.0989132 0)
(-0.00058882 -0.156258 0)
(-0.0142739 -0.256634 0)
(-0.000609813 0.0277787 0)
(-0.00153756 0.0328526 0)
(-0.00193546 0.0336663 0)
(-0.00163108 0.033819 0)
(-0.000614727 0.0342204 0)
(0.0011703 0.0351899 0)
(0.00375534 0.0369025 0)
(0.00720244 0.0393689 0)
(0.011657 0.0424602 0)
(0.0173539 0.0458855 0)
(0.0246729 0.0490646 0)
(0.0341547 0.0506742 0)
(0.0454931 0.0473292 0)
(0.0554884 0.0344424 0)
(0.0600161 0.0105598 0)
(0.0560183 -0.0198448 0)
(0.0433867 -0.0503693 0)
(0.0256073 -0.0818779 0)
(0.00700928 -0.137154 0)
(-0.0127725 -0.260371 0)
(-0.00115427 0.029819 0)
(-0.00230504 0.0337923 0)
(-0.00247757 0.0335939 0)
(-0.00171763 0.0328987 0)
(-4.57275e-05 0.0324554 0)
(0.00249869 0.0325853 0)
(0.00592432 0.0334029 0)
(0.0102755 0.0348796 0)
(0.0156432 0.0368402 0)
(0.0221321 0.0389229 0)
(0.0298303 0.0404865 0)
(0.0387749 0.040414 0)
(0.0485029 0.0368241 0)
(0.0568951 0.0272385 0)
(0.0605878 0.0104149 0)
(0.0573828 -0.0118569 0)
(0.0464416 -0.0361527 0)
(0.0305343 -0.0655443 0)
(0.0136346 -0.116841 0)
(-0.0114541 -0.261968 0)
(-0.00219402 0.0283487 0)
(-0.00419886 0.0323186 0)
(-0.00382241 0.0318822 0)
(-0.00228477 0.0307235 0)
(0.000140985 0.0296514 0)
(0.00331965 0.0291152 0)
(0.00746145 0.0291313 0)
(0.0125457 0.0297028 0)
(0.0186172 0.0306729 0)
(0.0256701 0.031726 0)
(0.0336136 0.0323405 0)
(0.0421609 0.031693 0)
(0.0506824 0.0286503 0)
(0.0577363 0.0219209 0)
(0.0610733 0.0105346 0)
(0.0587117 -0.00524881 0)
(0.0487649 -0.0238396 0)
(0.0382711 -0.0518789 0)
(0.0211068 -0.0982179 0)
(-0.00792022 -0.266441 0)
(-0.00399808 0.04542 0)
(-0.00585999 0.0436948 0)
(-0.00396881 0.0379116 0)
(-0.00123092 0.0328651 0)
(0.00206335 0.0294675 0)
(0.0061975 0.0271605 0)
(0.0111959 0.0256791 0)
(0.0170886 0.024919 0)
(0.0238698 0.0246806 0)
(0.0315099 0.0246996 0)
(0.039865 0.0245931 0)
(0.0485489 0.0237917 0)
(0.0568576 0.0216205 0)
(0.0637235 0.0173977 0)
(0.067096 0.0106516 0)
(0.0663475 0.000531931 0)
(0.0564156 -0.0129321 0)
(0.0564227 -0.0393131 0)
(0.024157 -0.0770344 0)
(0.00500236 -0.267412 0)
(-0.00608268 0.0176198 0)
(-0.00890711 0.0102681 0)
(-0.000902687 0.0105166 0)
(0.00780527 0.0135441 0)
(0.0169716 0.0144415 0)
(0.0261823 0.0140543 0)
(0.0351087 0.0135966 0)
(0.04388 0.0133552 0)
(0.0526814 0.0132647 0)
(0.0616712 0.01324 0)
(0.0708879 0.0131778 0)
(0.0801539 0.0128878 0)
(0.088984 0.0120779 0)
(0.0967965 0.0103682 0)
(0.101891 0.0075655 0)
(0.105503 0.00252628 0)
(0.0967683 -0.00384346 0)
(0.106667 -0.0215468 0)
(0.0298899 -0.0421837 0)
(0.0709486 -0.225529 0)
(0.0407226 0.0926384 0)
(0.0623956 0.0699877 0)
(0.0878067 0.0440662 0)
(0.109669 0.0294244 0)
(0.126529 0.0216832 0)
(0.140659 0.0171086 0)
(0.153499 0.0140804 0)
(0.165468 0.0119184 0)
(0.176725 0.0102866 0)
(0.187434 0.00902182 0)
(0.197707 0.00799674 0)
(0.207556 0.00711691 0)
(0.216769 0.00631929 0)
(0.225196 0.00552226 0)
(0.231469 0.00463562 0)
(0.237647 0.00337996 0)
(0.231014 0.0019451 0)
(0.251662 -0.00314648 0)
(0.12495 0.00358071 0)
(0.377986 -0.0980228 0)
)
;

boundaryField
{
    movingWall
    {
        type            zeroGradient;
    }
    fixedWalls
    {
        type            zeroGradient;
    }
    frontAndBack
    {
        type            empty;
    }
}


// ************************************************************************* //
