/*--------------------------------*- C++ -*----------------------------------*\
| =========                 |                                                 |
| \\      /  F ield         | OpenFOAM: The Open Source CFD Toolbox           |
|  \\    /   O peration     | Version:  2312                                  |
|   \\  /    A nd           | Website:  www.openfoam.com                      |
|    \\/     M anipulation  |                                                 |
\*---------------------------------------------------------------------------*/
FoamFile
{
    version     2.0;
    format      ascii;
    arch        "LSB;label=32;scalar=64";
    class       volScalarField;
    location    "1.25";
    object      zeroGradient(epsilon);
}
// * * * * * * * * * * * * * * * * * * * * * * * * * * * * * * * * * * * * * //

dimensions      [0 2 -3 0 0 0 0];

internalField   nonuniform List<scalar> 
400
(
0.000182161
0.000315738
0.000465978
0.000598015
0.000712767
0.000815787
0.000911901
0.00100337
0.00108922
0.00116609
0.00121853
0.00123749
0.00123642
0.00118716
0.00108802
0.000940758
0.000753599
0.000542067
0.000327322
0.000192707
0.000311784
0.000308738
0.000379665
0.000440608
0.000486285
0.000520555
0.000547477
0.000569266
0.000586621
0.000597048
0.000600273
0.000599713
0.000600297
0.000596074
0.000578468
0.000541289
0.000480186
0.000398212
0.000326984
0.000336915
0.000489399
0.000370804
0.000411077
0.000455755
0.000489828
0.000513001
0.000528412
0.000539508
0.000548155
0.000555493
0.000563193
0.000573917
0.000589981
0.000607168
0.000615316
0.000602376
0.000554709
0.000477025
0.000418793
0.00050447
0.000655744
0.000438378
0.000456272
0.000491525
0.00051908
0.000538805
0.000553345
0.000565221
0.000577189
0.000592406
0.000615224
0.000651126
0.000703736
0.000772478
0.000830056
0.00084663
0.000788867
0.000642555
0.000521427
0.000649653
0.000805935
0.000494878
0.000495955
0.000526608
0.000553727
0.000574732
0.000592218
0.000609819
0.000632154
0.000665776
0.000720711
0.000811338
0.000954273
0.00116045
0.00139353
0.0014999
0.00144846
0.00109979
0.000709095
0.000765342
0.000940289
0.000540587
0.000528748
0.00055635
0.000584302
0.000608517
0.000632098
0.000660715
0.000703059
0.000773527
0.000896965
0.00111412
0.00147989
0.00203534
0.00272145
0.00314908
0.00318782
0.00252801
0.00131636
0.000879314
0.00106011
0.000577628
0.000554784
0.000580318
0.000610001
0.000638954
0.000671746
0.00071791
0.000794259
0.000932068
0.00119066
0.0016713
0.00249054
0.00362991
0.0048163
0.00579927
0.00640356
0.00590834
0.0034903
0.00123535
0.00116664
0.00060775
0.00057478
0.000598688
0.000630578
0.000665429
0.000710377
0.000781272
0.000908842
0.00115492
0.00163867
0.00251986
0.00377345
0.00488538
0.00558621
0.00655106
0.00819166
0.0098242
0.0090236
0.0034792
0.00126099
0.000632348
0.000589569
0.000611742
0.000645733
0.000686863
0.000745617
0.000845873
0.00103571
0.00141066
0.00212534
0.0032278
0.00418865
0.00460106
0.00490689
0.00563253
0.00757746
0.0114586
0.0153678
0.0121188
0.00134419
0.000652623
0.000599985
0.000619823
0.000655105
0.000701621
0.000772934
0.000899611
0.00114142
0.00160406
0.00240807
0.00340295
0.00380249
0.0036464
0.00335297
0.00347457
0.00528504
0.00967015
0.0182253
0.0259623
0.00141733
0.000669653
0.000606891
0.000623431
0.00065842
0.000708099
0.000787657
0.000929953
0.00119498
0.00167211
0.0024327
0.00317662
0.00321923
0.00268903
0.00220317
0.00211464
0.00323901
0.00731422
0.0183295
0.0354371
0.00148263
0.000684459
0.0006112
0.000623273
0.000656705
0.000706353
0.000786971
0.000929775
0.0011874
0.00163641
0.00231803
0.00287318
0.0028239
0.00226368
0.00179338
0.00173488
0.00244961
0.00550696
0.0165665
0.0410806
0.00154128
0.000697835
0.000614056
0.000621567
0.000652131
0.000700285
0.000779177
0.000915407
0.00115218
0.00154194
0.00209602
0.00259852
0.00257646
0.00219532
0.00178683
0.00177383
0.00231044
0.00477703
0.0156959
0.0458965
0.00160466
0.000711255
0.000616828
0.000620104
0.000647668
0.000692533
0.000765031
0.000886656
0.00108828
0.00140624
0.00185126
0.00230939
0.00242121
0.00223417
0.00192104
0.00201934
0.00252287
0.00458077
0.015404
0.0506223
0.00165814
0.000723799
0.000622484
0.000623552
0.000650784
0.000694653
0.000762784
0.000868986
0.00103386
0.00128213
0.00162235
0.0019995
0.00222064
0.00218121
0.00205584
0.00213753
0.00257652
0.00446551
0.0156014
0.0567397
0.00177496
0.000743733
0.000641069
0.00064656
0.000678563
0.000725312
0.000792295
0.000891808
0.00103851
0.00123844
0.00148997
0.00176485
0.00197166
0.0020159
0.0020013
0.0020917
0.00252151
0.0043098
0.0163707
0.0647807
0.00182369
0.000799962
0.000726645
0.000762411
0.00082067
0.000889548
0.00097253
0.00107814
0.00121626
0.00139597
0.00161348
0.00184469
0.00202584
0.00208717
0.0020966
0.0021895
0.00267338
0.00480004
0.0191562
0.0763096
0.00215105
0.00115412
0.00133907
0.00156141
0.00177034
0.00197567
0.00217838
0.00238255
0.00259432
0.00282141
0.00306153
0.00329545
0.00348254
0.00359459
0.00369214
0.00392754
0.00476838
0.00864931
0.0261003
0.094694
0.00345731
0.0056299
0.008753
0.0110284
0.0126611
0.0139812
0.0150645
0.0159399
0.0166147
0.017155
0.0176161
0.0180025
0.0183593
0.0187538
0.0192051
0.0201805
0.0222791
0.0329663
0.0493194
0.127105
0.0436954
0.0841861
0.123312
0.148131
0.163188
0.172664
0.178315
0.181406
0.182181
0.181784
0.180687
0.178771
0.176624
0.1747
0.173532
0.174014
0.176819
0.177798
0.193524
0.167802
)
;

boundaryField
{
    movingWall
    {
        type            zeroGradient;
    }
    fixedWalls
    {
        type            zeroGradient;
    }
    frontAndBack
    {
        type            empty;
    }
}


// ************************************************************************* //
