/*--------------------------------*- C++ -*----------------------------------*\
| =========                 |                                                 |
| \\      /  F ield         | OpenFOAM: The Open Source CFD Toolbox           |
|  \\    /   O peration     | Version:  2312                                  |
|   \\  /    A nd           | Website:  www.openfoam.com                      |
|    \\/     M anipulation  |                                                 |
\*---------------------------------------------------------------------------*/
FoamFile
{
    version     2.0;
    format      ascii;
    arch        "LSB;label=32;scalar=64";
    class       volVectorField;
    location    "7.5";
    object      ddtU;
}
// * * * * * * * * * * * * * * * * * * * * * * * * * * * * * * * * * * * * * //

dimensions      [0 1 -2 0 0 0 0];

internalField   nonuniform List<vector> 
400
(
(8.88178e-14 -4.04804e-14 0)
(-6.66134e-14 -2.05547e-14 0)
(0 -3.04219e-15 0)
(-6.66134e-14 1.33723e-14 0)
(-2.22045e-14 2.52938e-16 0)
(-4.44089e-14 -2.44081e-15 0)
(-4.44089e-14 -2.45454e-15 0)
(-4.44089e-14 -8.6747e-15 0)
(2.22045e-14 -1.27224e-14 0)
(0 -2.53779e-15 0)
(2.22045e-14 6.15727e-15 0)
(0 1.18218e-14 0)
(0 -1.0619e-14 0)
(-4.44089e-14 -4.59482e-15 0)
(2.22045e-14 9.33546e-15 0)
(-2.22045e-14 1.60278e-14 0)
(-4.44089e-14 7.81276e-15 0)
(-4.44089e-14 -6.09621e-15 0)
(4.44089e-14 -1.47247e-14 0)
(0 -5.34967e-15 0)
(-6.66134e-14 -1.21346e-13 0)
(0 -8.64681e-15 0)
(-4.44089e-14 -7.53086e-15 0)
(-4.44089e-14 -7.19012e-16 0)
(0 -1.86814e-14 0)
(0 -1.27552e-14 0)
(-4.44089e-14 2.27675e-15 0)
(0 -2.0543e-15 0)
(0 -2.6992e-15 0)
(0 -1.96553e-15 0)
(0 9.7185e-16 0)
(0 4.68442e-15 0)
(4.44089e-14 4.26843e-15 0)
(-4.44089e-14 4.68852e-15 0)
(0 3.33686e-15 0)
(0 2.20437e-14 0)
(0 2.18471e-14 0)
(0 -1.22114e-14 0)
(4.44089e-14 -2.54396e-14 0)
(0 -8.61119e-15 0)
(-1.77636e-13 -1.07518e-13 0)
(6.66134e-14 -3.66934e-14 0)
(0 -1.43572e-14 0)
(4.44089e-14 -1.973e-14 0)
(4.44089e-14 -9.11199e-15 0)
(0 2.36981e-15 0)
(-4.44089e-14 1.06818e-14 0)
(-4.44089e-14 1.01527e-14 0)
(0 6.65601e-15 0)
(4.44089e-14 -5.09752e-15 0)
(0 -9.54382e-15 0)
(-4.44089e-14 -1.22027e-14 0)
(-4.44089e-14 1.38116e-14 0)
(0 5.9772e-15 0)
(0 2.58228e-15 0)
(-4.44089e-14 8.9271e-15 0)
(0 2.21409e-15 0)
(4.44089e-14 -4.3112e-15 0)
(4.44089e-14 -5.18198e-15 0)
(0 -1.01425e-14 0)
(0 -1.3198e-14 0)
(-8.88178e-14 -6.19892e-14 0)
(-8.88178e-14 -1.61455e-14 0)
(-6.66134e-14 -1.98376e-14 0)
(-6.66134e-14 9.41145e-15 0)
(-4.44089e-14 1.29943e-14 0)
(-2.22045e-14 1.15542e-14 0)
(-6.66134e-14 1.10662e-14 0)
(0 -8.55855e-15 0)
(-6.66134e-14 -5.57786e-15 0)
(2.22045e-14 1.38972e-15 0)
(-4.44089e-14 -8.8035e-15 0)
(2.22045e-14 -1.14316e-14 0)
(-2.22045e-14 -1.22617e-14 0)
(0 1.02329e-14 0)
(2.22045e-14 3.47137e-15 0)
(2.22045e-14 1.13906e-15 0)
(-4.44089e-14 7.97183e-15 0)
(0 5.1733e-15 0)
(6.66134e-14 1.66465e-15 0)
(6.66134e-14 -4.87606e-14 0)
(-4.44089e-14 -1.65768e-14 0)
(2.22045e-14 -1.04562e-14 0)
(-4.44089e-14 -1.35149e-14 0)
(-8.88178e-14 1.10234e-14 0)
(0 6.05962e-15 0)
(-4.44089e-14 7.24833e-15 0)
(0 7.55434e-15 0)
(2.22045e-14 -1.21041e-15 0)
(-2.22045e-14 -1.40865e-15 0)
(0 -9.97253e-15 0)
(2.22045e-14 5.93642e-16 0)
(2.22045e-14 5.96405e-15 0)
(-4.44089e-14 -6.52975e-15 0)
(2.22045e-14 6.06239e-15 0)
(-4.44089e-14 1.59315e-14 0)
(0 2.20971e-14 0)
(2.22045e-14 3.21936e-15 0)
(0 -2.1573e-15 0)
(0 6.53833e-15 0)
(0 -9.07986e-14 0)
(-6.66134e-14 -7.89328e-15 0)
(0 -1.1268e-14 0)
(-6.66134e-14 1.06058e-14 0)
(-2.22045e-14 9.22967e-15 0)
(0 4.35228e-15 0)
(2.22045e-14 1.11461e-14 0)
(0 8.34944e-15 0)
(-4.44089e-14 4.47833e-15 0)
(0 -3.30755e-15 0)
(-2.22045e-14 -1.33885e-14 0)
(-4.44089e-14 9.67459e-15 0)
(0 2.52274e-14 0)
(-2.22045e-14 1.58701e-14 0)
(-2.22045e-14 -2.03119e-16 0)
(0 2.98675e-15 0)
(4.44089e-14 6.63636e-15 0)
(2.22045e-14 3.98447e-15 0)
(-2.22045e-14 1.89743e-15 0)
(-2.22045e-14 -4.95141e-15 0)
(4.44089e-14 8.07196e-14 0)
(-4.44089e-14 -2.26571e-14 0)
(-4.44089e-14 -1.23515e-14 0)
(4.44089e-14 -1.18606e-14 0)
(4.44089e-14 -1.73807e-14 0)
(2.22045e-14 -2.1091e-15 0)
(0 1.19846e-14 0)
(0 9.05152e-15 0)
(4.44089e-14 1.27158e-14 0)
(0 1.91667e-14 0)
(2.22045e-14 1.12195e-14 0)
(-4.44089e-14 6.0501e-15 0)
(-4.44089e-14 1.21502e-14 0)
(0 1.47818e-14 0)
(4.44089e-14 -7.99735e-15 0)
(4.44089e-14 -1.42057e-14 0)
(0 -5.00859e-15 0)
(0 -2.5633e-15 0)
(4.44089e-14 7.6371e-15 0)
(0 7.87246e-15 0)
(0 1.25628e-15 0)
(0 6.50763e-15 0)
(0 -9.47141e-15 0)
(0 -2.20472e-14 0)
(0 -1.47748e-14 0)
(0 -1.81628e-15 0)
(4.44089e-14 -4.92973e-15 0)
(0 -2.71762e-15 0)
(-4.44089e-14 1.90626e-14 0)
(4.44089e-14 3.46661e-14 0)
(0 3.04525e-14 0)
(0 1.29181e-14 0)
(-4.44089e-14 -5.01691e-15 0)
(0 1.50738e-15 0)
(0 1.45757e-14 0)
(-2.22045e-14 9.60499e-15 0)
(0 -1.09803e-14 0)
(4.44089e-14 -6.58001e-15 0)
(-2.22045e-14 1.25796e-14 0)
(0 1.41816e-14 0)
(0 -7.88475e-14 0)
(0 1.35623e-14 0)
(2.22045e-14 -1.09255e-14 0)
(2.22045e-14 5.92658e-15 0)
(0 4.74363e-15 0)
(0 -1.25566e-14 0)
(0 -8.30311e-15 0)
(4.44089e-14 8.37904e-15 0)
(-4.44089e-14 1.77158e-14 0)
(0 1.6762e-14 0)
(4.44089e-14 3.06659e-14 0)
(0 9.94469e-15 0)
(0 -1.40396e-16 0)
(-4.44089e-14 1.68295e-14 0)
(-4.44089e-14 1.03045e-14 0)
(4.44089e-14 7.30887e-15 0)
(-2.22045e-14 2.97967e-15 0)
(-2.22045e-14 4.78949e-15 0)
(0 7.6674e-15 0)
(0 3.70824e-15 0)
(-1.11022e-13 5.39581e-14 0)
(0 -3.83979e-14 0)
(0 -6.86705e-15 0)
(-4.44089e-14 5.60886e-15 0)
(4.44089e-14 1.5646e-15 0)
(0 -1.77193e-16 0)
(0 1.50157e-14 0)
(-2.22045e-14 2.07917e-14 0)
(0 3.81442e-15 0)
(2.22045e-14 1.02687e-14 0)
(2.22045e-14 3.75267e-14 0)
(-2.22045e-14 3.0621e-14 0)
(-6.66134e-14 1.0582e-14 0)
(-4.44089e-14 3.23669e-15 0)
(4.44089e-14 -4.7724e-15 0)
(-6.66134e-14 4.20183e-17 0)
(0 7.76096e-15 0)
(0 9.16215e-15 0)
(0 6.21669e-15 0)
(0 -2.49467e-15 0)
(0 -7.37441e-14 0)
(0 6.95903e-16 0)
(-4.44089e-14 8.218e-15 0)
(-2.22045e-14 -3.57835e-15 0)
(0 -9.83694e-15 0)
(-6.66134e-14 1.3034e-14 0)
(-4.44089e-14 1.56823e-14 0)
(0 1.44051e-14 0)
(2.22045e-14 2.03387e-14 0)
(-4.44089e-14 1.82792e-14 0)
(-8.88178e-14 3.14516e-14 0)
(0 2.40064e-14 0)
(4.44089e-14 -2.43214e-15 0)
(0 -1.75858e-14 0)
(-4.44089e-14 -1.20951e-15 0)
(4.44089e-14 9.33931e-15 0)
(0 6.25668e-15 0)
(2.22045e-14 1.01889e-14 0)
(0 7.27828e-15 0)
(0 -5.65124e-15 0)
(6.66134e-14 -9.73867e-15 0)
(0 1.78923e-14 0)
(0 1.7039e-14 0)
(4.44089e-14 -3.25975e-15 0)
(4.44089e-14 3.73063e-15 0)
(0 7.29912e-15 0)
(-4.44089e-14 -1.08058e-14 0)
(0 -1.00342e-14 0)
(4.44089e-14 1.39874e-14 0)
(4.44089e-14 6.8663e-15 0)
(0 -7.08472e-15 0)
(4.44089e-14 1.07049e-15 0)
(4.44089e-14 1.89241e-14 0)
(0 2.3742e-14 0)
(-4.44089e-14 3.77456e-15 0)
(-2.22045e-14 -5.62432e-16 0)
(0 3.51227e-15 0)
(4.44089e-14 -5.13152e-15 0)
(0 2.58134e-15 0)
(0 1.65013e-15 0)
(4.44089e-14 5.7397e-14 0)
(-4.44089e-14 -2.33149e-15 0)
(4.44089e-14 -1.03653e-15 0)
(4.44089e-14 -4.99019e-15 0)
(0 4.94696e-16 0)
(0 4.75735e-15 0)
(4.44089e-14 1.72895e-15 0)
(0 5.32217e-16 0)
(-6.66134e-14 -1.0106e-14 0)
(-4.44089e-14 2.95803e-15 0)
(-6.66134e-14 -3.65142e-15 0)
(-4.44089e-14 1.89585e-14 0)
(-4.44089e-14 4.03378e-14 0)
(0 2.94774e-14 0)
(0 9.17687e-15 0)
(0 -1.22962e-14 0)
(0 -1.35215e-14 0)
(0 -1.37287e-15 0)
(-4.44089e-14 7.4523e-15 0)
(0 4.14978e-15 0)
(0 -4.93044e-14 0)
(0 2.43619e-14 0)
(-4.44089e-14 -8.50569e-15 0)
(2.22045e-14 4.63472e-15 0)
(-4.44089e-14 -2.34421e-14 0)
(0 -2.32423e-14 0)
(0 -1.112e-15 0)
(0 5.7563e-15 0)
(4.44089e-14 1.1902e-14 0)
(2.22045e-14 1.77997e-14 0)
(-4.44089e-14 1.04171e-14 0)
(2.22045e-14 -2.64475e-16 0)
(4.44089e-14 2.24214e-14 0)
(2.22045e-14 7.87795e-15 0)
(2.22045e-14 -4.74988e-15 0)
(4.44089e-14 -1.17856e-14 0)
(2.22045e-14 -8.88679e-15 0)
(-4.44089e-14 1.46728e-14 0)
(0 1.17816e-14 0)
(-2.22045e-14 5.1549e-15 0)
(-1.33227e-13 3.83102e-14 0)
(0 -2.0839e-14 0)
(4.44089e-14 8.35232e-16 0)
(4.44089e-14 -6.56324e-15 0)
(8.88178e-14 -4.29e-15 0)
(0 -1.15426e-14 0)
(0 -8.09839e-15 0)
(0 7.69156e-15 0)
(-2.22045e-14 4.9911e-15 0)
(0 4.81263e-15 0)
(0 8.34547e-15 0)
(-4.44089e-14 2.77304e-15 0)
(-4.44089e-14 5.20606e-15 0)
(0 -1.81117e-15 0)
(4.44089e-14 1.40324e-15 0)
(0 -6.09409e-15 0)
(-4.44089e-14 9.42228e-15 0)
(-4.44089e-14 1.07066e-14 0)
(-6.66134e-14 3.17507e-15 0)
(-2.22045e-14 -2.62492e-15 0)
(6.66134e-14 4.29779e-14 0)
(4.44089e-14 -3.91466e-14 0)
(6.66134e-14 -1.92304e-15 0)
(0 -1.03132e-15 0)
(0 1.18976e-14 0)
(0 1.16091e-14 0)
(2.22045e-14 3.82126e-15 0)
(-4.44089e-14 3.03237e-14 0)
(4.44089e-14 2.06744e-14 0)
(-6.66134e-14 7.67703e-15 0)
(0 -7.06858e-15 0)
(-4.44089e-14 1.02533e-14 0)
(0 -1.27121e-14 0)
(0 -1.9308e-14 0)
(0 2.74592e-16 0)
(4.44089e-14 7.58638e-15 0)
(-4.44089e-14 6.13076e-15 0)
(0 -5.94579e-15 0)
(2.22045e-14 -2.39111e-15 0)
(2.22045e-14 -5.77653e-15 0)
(0 -9.90645e-14 0)
(0 1.34286e-14 0)
(-4.44089e-14 2.80109e-15 0)
(-2.22045e-14 1.44931e-14 0)
(-2.22045e-14 1.10695e-14 0)
(0 9.1008e-15 0)
(2.22045e-14 1.75579e-14 0)
(-6.66134e-14 5.05711e-15 0)
(-2.22045e-14 2.87891e-15 0)
(0 3.30991e-15 0)
(4.44089e-14 -4.89782e-15 0)
(0 -4.59813e-15 0)
(0 -1.07977e-14 0)
(0 -1.15802e-15 0)
(0 -1.5707e-14 0)
(0 -1.05123e-14 0)
(0 -3.86357e-15 0)
(0 -1.65581e-14 0)
(0 -2.08592e-15 0)
(0 1.27593e-14 0)
(6.66134e-14 3.39402e-14 0)
(-8.88178e-14 -2.99621e-15 0)
(0 -1.15576e-14 0)
(4.44089e-14 -1.78592e-14 0)
(0 -2.00449e-15 0)
(2.22045e-14 9.26611e-15 0)
(-4.44089e-14 7.92651e-15 0)
(6.66134e-14 1.66582e-15 0)
(0 -3.50169e-15 0)
(0 5.19937e-15 0)
(0 1.32198e-14 0)
(-2.22045e-14 -1.41753e-14 0)
(-2.22045e-14 -2.90855e-14 0)
(0 -2.28796e-14 0)
(2.22045e-14 -1.72474e-14 0)
(0 1.19956e-14 0)
(0 6.59456e-15 0)
(0 -1.24828e-14 0)
(-4.44089e-14 -4.29857e-15 0)
(0 5.18885e-15 0)
(0 6.50608e-14 0)
(4.44089e-14 -1.1226e-14 0)
(0 -1.56332e-14 0)
(4.44089e-14 -9.72016e-15 0)
(-4.44089e-14 -2.18554e-15 0)
(0 -6.52251e-16 0)
(0 -2.04095e-14 0)
(-4.44089e-14 -9.59246e-15 0)
(0 2.6589e-14 0)
(-4.44089e-14 2.69534e-15 0)
(8.88178e-14 -2.13108e-14 0)
(2.22045e-14 -1.6753e-14 0)
(0 -1.37475e-14 0)
(-4.44089e-14 -2.10506e-14 0)
(0 -1.54346e-14 0)
(-4.44089e-14 1.85674e-14 0)
(4.44089e-14 2.69665e-15 0)
(4.44089e-14 4.10697e-16 0)
(2.22045e-14 4.77262e-15 0)
(0 -3.67008e-15 0)
(0 -5.40109e-14 0)
(-4.44089e-14 7.01413e-15 0)
(0 4.36073e-16 0)
(0 7.97931e-15 0)
(4.44089e-14 7.95668e-15 0)
(2.22045e-14 -1.68273e-15 0)
(4.44089e-14 -9.45959e-15 0)
(0 -1.85761e-14 0)
(0 8.73891e-15 0)
(4.44089e-14 -1.27456e-14 0)
(-2.22045e-14 -2.79257e-14 0)
(-6.66134e-14 -5.25678e-15 0)
(-6.66134e-14 1.64994e-14 0)
(-2.22045e-14 1.17635e-14 0)
(-2.22045e-14 -6.70751e-15 0)
(0 -1.24111e-14 0)
(2.22045e-14 -2.79017e-15 0)
(0 5.08907e-15 0)
(2.22045e-14 5.91579e-15 0)
(0 1.60162e-15 0)
)
;

boundaryField
{
    movingWall
    {
        type            calculated;
        value           uniform (0 0 0);
    }
    fixedWalls
    {
        type            calculated;
        value           uniform (0 0 0);
    }
    frontAndBack
    {
        type            empty;
    }
}


// ************************************************************************* //
