/*--------------------------------*- C++ -*----------------------------------*\
| =========                 |                                                 |
| \\      /  F ield         | OpenFOAM: The Open Source CFD Toolbox           |
|  \\    /   O peration     | Version:  2312                                  |
|   \\  /    A nd           | Website:  www.openfoam.com                      |
|    \\/     M anipulation  |                                                 |
\*---------------------------------------------------------------------------*/
FoamFile
{
    version     2.0;
    format      ascii;
    arch        "LSB;label=32;scalar=64";
    class       volScalarField;
    location    "7.5";
    object      divPhi;
}
// * * * * * * * * * * * * * * * * * * * * * * * * * * * * * * * * * * * * * //

dimensions      [0 0 -1 0 0 0 0];

internalField   nonuniform List<scalar> 
400
(
-1.89735e-13
-9.39754e-15
6.22955e-15
3.49341e-15
-1.22354e-14
3.83584e-15
-1.67604e-15
8.08972e-15
1.16061e-14
-6.95295e-15
-1.28358e-14
1.04942e-16
2.07433e-15
6.99069e-15
-8.01608e-15
-5.86698e-15
5.91503e-16
4.87664e-15
3.14206e-15
0
0
4.88382e-15
2.51628e-14
-1.10563e-14
-1.09212e-15
-2.55688e-14
6.97435e-15
-1.40272e-14
1.28288e-14
2.15352e-14
-1.72178e-15
2.58523e-15
-1.07592e-14
1.92553e-14
-1.77807e-14
8.11707e-15
-2.25747e-14
2.91458e-15
-8.90004e-15
0
0
-7.45496e-16
-1.50763e-14
4.40502e-15
8.75154e-15
-1.10095e-14
6.12671e-15
2.31352e-14
-5.68306e-15
1.8463e-14
-4.07449e-15
2.51752e-15
-2.78633e-14
-2.00276e-14
1.25347e-14
6.86176e-15
-1.98569e-14
1.49149e-14
-2.2819e-14
0
0
-3.35762e-15
1.4539e-14
2.38517e-14
3.59036e-15
-3.60341e-15
7.71671e-15
2.57563e-14
-1.13196e-14
-2.24145e-16
5.45539e-16
-5.88306e-16
-7.92491e-15
-4.23468e-15
2.14207e-14
1.59104e-14
8.48911e-15
-1.29566e-14
-7.85204e-15
2.71051e-14
0
-1.65569e-14
3.40265e-15
2.18505e-15
8.95673e-15
5.71982e-15
-8.93919e-15
1.85376e-14
-2.18932e-14
1.03598e-14
2.77428e-15
6.8548e-15
-8.02939e-15
-2.15554e-15
-2.61826e-14
-1.38577e-14
1.09271e-14
-1.66975e-14
-5.60424e-16
0
2.71051e-14
3.16929e-15
1.33038e-14
-1.49762e-15
1.41326e-14
1.98794e-14
-1.0669e-14
1.41855e-15
1.03625e-14
1.553e-14
-4.45664e-15
7.55541e-15
-2.28202e-14
9.10849e-15
-4.39106e-15
2.0325e-14
7.79296e-15
-8.5408e-15
4.36202e-15
0
0
-9.26993e-16
2.25112e-14
-3.71344e-15
-2.92713e-14
1.39818e-14
-3.76526e-14
-4.02538e-15
2.40843e-14
3.23468e-15
-9.35507e-15
-1.91814e-16
5.74346e-15
2.95806e-14
-2.06416e-14
4.01259e-15
-2.13162e-14
-1.23941e-15
6.7827e-15
0
0
-1.23416e-14
2.65168e-14
-3.20962e-15
8.42601e-17
-1.3268e-14
-3.14702e-14
1.79143e-14
-1.48045e-14
2.83391e-14
-2.11398e-14
6.57948e-16
7.81595e-15
1.21006e-15
3.15691e-14
5.34571e-15
2.40001e-14
-2.31572e-14
2.49136e-14
0
-2.71051e-14
-7.56512e-15
-2.2657e-15
2.68322e-14
-9.52861e-15
-2.17875e-14
-6.82283e-15
-1.1683e-14
3.39601e-14
-2.37051e-14
-6.98555e-15
-2.2992e-15
1.74239e-14
-1.43935e-14
2.43368e-14
3.26402e-15
-1.19088e-14
8.14533e-15
-1.52519e-14
0
0
2.96249e-14
5.48673e-15
-2.05842e-14
-2.34643e-14
1.78781e-14
4.31448e-15
-3.16376e-14
1.02714e-14
1.52765e-14
-1.23438e-15
-1.81306e-14
-2.19766e-14
4.76338e-14
-8.09978e-15
-4.5543e-15
-2.86064e-15
2.29463e-14
8.07759e-15
0
0
1.77573e-14
-6.54429e-15
3.81156e-15
-1.5323e-15
-5.4039e-15
2.35226e-14
-1.34011e-14
1.02737e-14
-9.94102e-16
-3.51787e-15
-2.25818e-14
9.32143e-15
-1.46733e-14
7.41887e-15
-2.00395e-14
2.49585e-14
-2.75067e-15
8.10431e-15
0
-2.71051e-14
1.47163e-15
2.35392e-15
1.28626e-14
-4.42066e-15
3.7043e-15
-2.08002e-14
-3.84319e-15
8.1732e-15
-1.28285e-14
2.10215e-14
-1.28298e-14
3.78731e-14
-1.47614e-14
5.39107e-15
-7.40282e-15
1.75731e-14
-5.80989e-16
-9.6653e-15
0
2.71051e-14
1.50864e-14
-3.11501e-14
1.81479e-14
-5.35548e-15
3.25352e-15
2.64196e-14
9.72902e-16
-8.04962e-15
1.12346e-14
4.62277e-15
-2.14304e-14
2.35359e-14
5.2312e-15
-4.80463e-15
-1.5861e-16
1.15678e-14
5.34991e-15
-1.16671e-14
0
-2.71051e-14
-2.34868e-14
-1.64075e-14
1.24714e-15
6.26605e-15
-6.36868e-15
-1.33668e-14
1.05293e-14
-3.29855e-14
2.11845e-14
-5.04601e-15
3.24998e-15
-2.49323e-14
1.21396e-14
-1.21758e-14
1.15419e-14
2.23721e-14
8.19635e-15
-3.00157e-14
0
2.71051e-14
-1.11347e-14
1.5741e-14
-1.1851e-15
1.81792e-14
-9.56691e-15
-1.35129e-14
2.4511e-14
-1.83405e-15
2.37994e-14
-3.20733e-15
-1.93849e-14
1.68068e-14
-1.30067e-14
1.0267e-14
7.45252e-15
-4.37346e-15
-5.05676e-15
2.52836e-14
0
0
-1.49549e-15
-1.41895e-14
-6.5228e-15
-9.77345e-15
6.52566e-15
-1.64371e-14
-3.23089e-16
5.52522e-15
-1.89567e-14
-2.48054e-14
1.55216e-14
7.02168e-15
-7.55199e-15
-3.20312e-15
7.62668e-15
-2.19418e-14
-1.38494e-14
2.32448e-14
-2.71051e-14
2.71051e-14
-6.32222e-15
1.84658e-14
-1.81125e-14
-8.27952e-15
2.29177e-14
1.19703e-14
-1.15346e-14
-8.62656e-15
-4.93036e-15
1.54864e-14
-8.25768e-15
1.14749e-14
-3.27703e-14
1.62179e-14
1.52432e-14
9.43494e-16
-1.96176e-15
-7.6996e-16
0
0
-1.15757e-14
-1.50475e-14
-7.38065e-16
-2.52876e-14
-1.08718e-14
3.16693e-15
3.3133e-15
-1.86132e-14
-6.53781e-15
-1.87162e-14
-3.71597e-14
2.02012e-14
-1.39644e-14
8.46148e-16
-1.05275e-14
7.49566e-15
-8.24513e-15
1.12988e-15
2.71051e-14
0
3.38124e-15
1.3547e-14
4.34521e-15
-1.22424e-14
1.03469e-14
6.18442e-15
-1.07396e-14
4.1613e-15
-1.01858e-14
1.21901e-14
-8.81212e-15
8.12148e-15
1.28204e-14
3.74388e-15
-2.48755e-15
1.58248e-14
-1.4791e-14
-7.00392e-15
-2.71051e-14
0
-2.71051e-14
2.71051e-14
0
0
0
2.71051e-14
0
2.71051e-14
-2.71051e-14
0
0
0
2.71051e-14
0
2.71051e-14
-2.71051e-14
0
-2.71051e-14
2.71051e-14
)
;

boundaryField
{
    movingWall
    {
        type            extrapolatedCalculated;
        value           nonuniform List<scalar> 
20
(
0
-2.71051e-14
2.71051e-14
0
0
0
2.71051e-14
0
2.71051e-14
-2.71051e-14
0
0
0
2.71051e-14
0
2.71051e-14
-2.71051e-14
0
-2.71051e-14
2.71051e-14
)
;
    }
    fixedWalls
    {
        type            extrapolatedCalculated;
        value           nonuniform List<scalar> 
60
(
-1.89735e-13
0
0
0
0
2.71051e-14
0
0
-2.71051e-14
0
0
-2.71051e-14
2.71051e-14
-2.71051e-14
2.71051e-14
0
2.71051e-14
0
0
0
0
0
0
2.71051e-14
0
0
0
0
0
0
0
0
0
0
0
-2.71051e-14
0
2.71051e-14
-2.71051e-14
2.71051e-14
-1.89735e-13
-9.39754e-15
6.22955e-15
3.49341e-15
-1.22354e-14
3.83584e-15
-1.67604e-15
8.08972e-15
1.16061e-14
-6.95295e-15
-1.28358e-14
1.04942e-16
2.07433e-15
6.99069e-15
-8.01608e-15
-5.86698e-15
5.91503e-16
4.87664e-15
3.14206e-15
0
)
;
    }
    frontAndBack
    {
        type            empty;
    }
}


// ************************************************************************* //
