/*--------------------------------*- C++ -*----------------------------------*\
| =========                 |                                                 |
| \\      /  F ield         | OpenFOAM: The Open Source CFD Toolbox           |
|  \\    /   O peration     | Version:  2312                                  |
|   \\  /    A nd           | Website:  www.openfoam.com                      |
|    \\/     M anipulation  |                                                 |
\*---------------------------------------------------------------------------*/
FoamFile
{
    version     2.0;
    format      ascii;
    arch        "LSB;label=32;scalar=64";
    class       volScalarField;
    location    "7.5";
    object      divU;
}
// * * * * * * * * * * * * * * * * * * * * * * * * * * * * * * * * * * * * * //

dimensions      [0 0 -1 0 0 0 0];

internalField   nonuniform List<scalar> 
400
(
1.5477e-11
-1.99124e-12
3.58454e-13
-1.26461e-13
2.92717e-14
3.84608e-15
-4.20497e-15
1.39021e-14
1.14696e-15
-7.69066e-15
-3.86884e-15
6.56271e-15
4.92422e-15
1.08938e-14
-1.29129e-14
-7.87876e-15
2.54431e-14
-5.16935e-14
3.9824e-14
0
-2.93548e-11
3.82677e-12
-7.66215e-13
3.9577e-13
-9.36635e-14
1.27813e-14
-1.64752e-14
-2.25798e-14
4.68009e-14
-7.13734e-15
-8.28956e-15
-2.77293e-15
-6.4472e-15
1.02999e-14
-1.79143e-14
-1.6868e-14
2.22496e-15
3.2742e-14
-6.41976e-14
2.71051e-14
1.43386e-11
-2.07011e-12
4.03748e-13
-1.98156e-13
1.17324e-14
4.01267e-15
4.47375e-15
-1.59879e-15
-1.06041e-14
-6.04967e-15
-2.56999e-15
1.33493e-15
-6.38895e-14
4.6041e-14
-4.66628e-15
-4.42517e-15
5.73556e-15
4.32504e-14
-7.74886e-14
5.42101e-14
8.72783e-12
-5.8924e-13
8.49134e-14
-2.56118e-14
4.17868e-14
2.37379e-14
7.15034e-15
4.20165e-15
-1.90878e-15
2.05067e-15
2.28412e-15
-7.18219e-16
-3.43463e-15
-1.12937e-14
-1.23778e-14
6.14319e-15
1.24972e-14
-2.15943e-14
1.38741e-14
-5.42101e-14
-2.24701e-11
2.38553e-12
-4.44857e-13
1.46226e-13
2.44193e-16
1.00511e-14
1.75247e-14
-9.69702e-15
2.80366e-15
-2.78371e-14
-7.30831e-15
1.16437e-14
-5.2786e-15
-2.87054e-16
-3.30356e-14
-5.03128e-14
6.27589e-14
8.82453e-15
1.29229e-15
2.71051e-14
1.8838e-11
-1.80825e-12
3.54147e-13
-1.82154e-13
5.37753e-14
-4.17357e-17
-1.16205e-14
-1.61421e-14
1.58344e-15
3.03706e-14
1.17733e-14
4.70617e-15
2.35277e-15
1.01407e-14
4.64233e-15
-1.48496e-14
3.88397e-15
3.22679e-14
-1.19895e-14
-2.71051e-14
3.93023e-12
-1.58184e-12
2.99556e-13
-6.41415e-14
2.43123e-14
-2.6167e-14
-3.42624e-14
6.77804e-14
3.15879e-14
-1.71541e-15
-4.25607e-14
2.90274e-14
7.1743e-15
-2.73784e-15
2.58702e-14
2.07464e-14
-1.05963e-14
1.37562e-14
-3.02531e-14
-2.71051e-14
-2.32019e-11
4.08374e-12
-7.39201e-13
3.27149e-13
-9.88729e-14
1.55977e-14
-3.69192e-14
-8.10974e-15
1.11549e-14
-3.43453e-15
8.95662e-16
-5.21756e-15
2.15092e-15
9.90071e-15
3.96313e-14
-5.48257e-14
-8.21099e-15
3.81643e-14
-5.03506e-15
0
2.04914e-11
-3.46619e-12
6.6236e-13
-2.76691e-13
4.5687e-14
-4.58954e-14
2.04799e-14
1.21566e-14
7.37284e-15
-2.65328e-14
-7.67656e-15
5.41602e-15
2.59222e-14
-2.72505e-14
1.29867e-14
8.90965e-16
-1.00487e-14
8.48566e-15
-6.3554e-15
0
-6.83047e-12
1.31729e-12
-2.17581e-13
8.29428e-14
1.27435e-14
-1.02859e-14
1.14845e-14
1.37548e-14
6.31053e-15
1.56505e-15
6.29295e-15
-2.16894e-14
-3.58865e-14
5.94235e-14
3.82615e-14
-6.19119e-15
-1.26194e-14
1.88619e-14
-2.63123e-14
0
-3.95734e-12
1.21368e-12
-2.08453e-13
1.10012e-13
-1.56898e-14
-2.56468e-14
2.90136e-15
5.45881e-14
9.80705e-15
-6.60409e-14
-1.02672e-14
-4.11631e-15
1.5025e-14
-4.85228e-14
-8.58679e-15
1.08194e-14
3.65679e-14
-4.26636e-15
8.17731e-15
0
1.15739e-11
-2.97041e-12
5.2724e-13
-2.14914e-13
6.71583e-14
-3.22535e-14
-4.22679e-14
-1.39226e-14
4.57328e-14
-3.49134e-14
-1.64761e-15
2.24766e-14
-6.79165e-15
1.75635e-14
1.27906e-14
-7.59907e-15
1.16085e-14
-1.21748e-14
2.53916e-14
-2.71051e-14
-1.91091e-11
4.2158e-12
-8.26426e-13
3.3741e-13
-4.56266e-14
6.92902e-15
6.84347e-14
8.97069e-15
-1.95241e-14
6.43559e-15
-2.74452e-14
2.85216e-15
-1.79349e-14
-3.47443e-15
-3.4852e-14
7.72283e-16
1.38237e-14
-9.08456e-15
-1.64329e-14
5.42101e-14
1.85399e-11
-3.21798e-12
6.3061e-13
-2.57743e-13
3.31361e-14
-6.84548e-15
-4.22052e-14
8.88735e-15
3.01716e-14
2.00501e-15
-1.91915e-15
6.97687e-15
3.60753e-14
-8.73653e-15
-1.32532e-14
6.98096e-16
-5.01105e-16
-2.31547e-14
1.91987e-14
-2.71051e-14
-3.30682e-12
8.83485e-13
-1.95602e-13
1.45297e-13
5.80339e-15
-6.03008e-15
9.15328e-15
1.60708e-14
1.45096e-14
-1.50139e-14
-1.51893e-15
-3.92026e-14
5.38017e-14
-4.92448e-15
-4.02932e-14
3.92318e-14
-4.73407e-14
6.4205e-16
5.75701e-14
0
-1.68051e-11
1.7289e-12
-3.59922e-13
1.51866e-13
-5.03178e-14
-7.06537e-15
1.27901e-14
5.3596e-15
1.15468e-14
1.54078e-14
1.08303e-14
-4.86522e-14
-1.16258e-14
-2.37398e-14
-3.75174e-14
-1.28585e-14
4.25724e-14
1.86821e-14
-1.4946e-15
-2.71051e-14
2.18196e-11
-2.05241e-12
4.00234e-13
-1.46724e-13
1.13382e-14
3.51483e-14
-1.49493e-14
1.71232e-14
-3.71226e-14
-5.58744e-15
-3.70356e-16
-6.93995e-15
4.76468e-14
2.48149e-14
-4.92587e-15
-2.78013e-14
-1.4358e-14
-6.42998e-15
-1.05403e-14
0
-3.14419e-12
1.22397e-13
-1.90894e-14
-1.03093e-14
5.54168e-14
-3.73536e-14
1.85055e-15
-3.74727e-15
-1.43804e-14
-9.71334e-15
6.11069e-15
-4.37463e-14
2.27847e-15
3.8942e-15
4.19384e-16
-8.32134e-15
-3.27793e-14
-9.6751e-15
3.87547e-14
0
-1.91362e-11
1.74124e-12
-3.65583e-13
1.33158e-13
-8.87591e-14
7.14225e-15
-1.67405e-14
2.78057e-14
7.87477e-16
-4.22546e-15
2.57349e-14
3.06034e-14
-4.22793e-15
-3.38525e-14
5.01938e-15
3.96011e-14
-1.02818e-14
1.37356e-14
-1.15534e-14
0
1.32002e-11
-1.51788e-12
3.25261e-13
-1.0842e-13
2.71051e-14
0
2.71051e-14
0
0
2.71051e-14
-2.71051e-14
-5.42101e-14
0
5.42101e-14
0
0
0
-2.71051e-14
2.71051e-14
-5.42101e-14
)
;

boundaryField
{
    movingWall
    {
        type            extrapolatedCalculated;
        value           nonuniform List<scalar> 
20
(
1.32002e-11
-1.51788e-12
3.25261e-13
-1.0842e-13
2.71051e-14
0
2.71051e-14
0
0
2.71051e-14
-2.71051e-14
-5.42101e-14
0
5.42101e-14
0
0
0
-2.71051e-14
2.71051e-14
-5.42101e-14
)
;
    }
    fixedWalls
    {
        type            extrapolatedCalculated;
        value           nonuniform List<scalar> 
60
(
1.5477e-11
-2.93548e-11
1.43386e-11
8.72783e-12
-2.24701e-11
1.8838e-11
3.93023e-12
-2.32019e-11
2.04914e-11
-6.83047e-12
-3.95734e-12
1.15739e-11
-1.91091e-11
1.85399e-11
-3.30682e-12
-1.68051e-11
2.18196e-11
-3.14419e-12
-1.91362e-11
1.32002e-11
0
2.71051e-14
5.42101e-14
-5.42101e-14
2.71051e-14
-2.71051e-14
-2.71051e-14
0
0
0
0
-2.71051e-14
5.42101e-14
-2.71051e-14
0
-2.71051e-14
0
0
0
-5.42101e-14
1.5477e-11
-1.99124e-12
3.58454e-13
-1.26461e-13
2.92717e-14
3.84608e-15
-4.20497e-15
1.39021e-14
1.14696e-15
-7.69066e-15
-3.86884e-15
6.56271e-15
4.92422e-15
1.08938e-14
-1.29129e-14
-7.87876e-15
2.54431e-14
-5.16935e-14
3.9824e-14
0
)
;
    }
    frontAndBack
    {
        type            empty;
    }
}


// ************************************************************************* //
