/*--------------------------------*- C++ -*----------------------------------*\
| =========                 |                                                 |
| \\      /  F ield         | OpenFOAM: The Open Source CFD Toolbox           |
|  \\    /   O peration     | Version:  2312                                  |
|   \\  /    A nd           | Website:  www.openfoam.com                      |
|    \\/     M anipulation  |                                                 |
\*---------------------------------------------------------------------------*/
FoamFile
{
    version     2.0;
    format      ascii;
    arch        "LSB;label=32;scalar=64";
    class       volScalarField;
    location    "7.5";
    object      enstrophyField;
}
// * * * * * * * * * * * * * * * * * * * * * * * * * * * * * * * * * * * * * //

dimensions      [0 0 -2 0 0 0 0];

internalField   nonuniform List<scalar> 
400
(
7.849e-23
1.32333e-22
6.79631e-24
3.33995e-25
1.37252e-26
8.34747e-28
1.94156e-27
9.22107e-28
7.49839e-29
5.02588e-30
4.21833e-29
1.72303e-27
8.597e-30
3.02207e-30
4.72952e-29
1.8342e-27
3.15638e-29
7.38614e-28
5.81477e-31
1.00583e-30
5.83508e-25
7.63018e-25
1.00153e-26
9.21512e-27
2.66786e-27
1.02114e-26
4.22138e-28
2.50829e-27
2.58974e-27
1.37103e-27
3.73105e-27
3.66498e-27
1.03684e-26
3.88297e-27
3.19375e-27
5.11961e-28
2.63181e-27
2.89293e-28
5.77855e-30
2.39012e-27
1.95908e-23
6.70178e-23
3.92443e-24
1.44074e-25
2.24908e-26
7.45546e-28
4.18819e-27
3.94867e-27
3.49709e-27
1.41752e-27
3.36356e-27
3.50894e-27
2.94298e-27
2.62716e-27
3.32165e-28
4.34076e-27
5.43465e-27
2.41331e-27
2.58555e-28
6.66321e-29
2.19123e-23
7.83757e-23
3.77872e-24
2.5345e-25
1.02541e-26
8.61647e-27
1.23078e-27
1.90568e-27
1.58738e-27
2.00719e-28
1.0636e-27
3.69515e-27
7.5055e-27
1.68348e-27
1.34145e-27
5.10361e-28
7.14566e-28
2.30931e-27
4.38259e-30
1.24087e-28
1.85411e-24
5.38813e-24
3.0108e-25
1.18344e-26
2.22791e-27
1.17392e-28
4.41891e-30
1.55365e-27
3.66906e-28
4.49439e-28
5.89407e-29
3.96834e-28
4.69062e-28
2.41501e-28
2.1973e-27
4.41601e-28
6.90857e-28
7.17347e-29
8.59015e-30
3.1101e-27
1.89771e-23
4.41858e-23
2.17722e-24
1.2908e-25
1.13609e-26
4.22325e-28
9.61001e-30
8.11765e-28
4.94407e-27
1.8878e-27
4.7979e-28
4.79495e-30
1.1942e-28
2.56042e-28
5.8742e-29
2.41161e-27
1.76117e-27
1.11455e-29
1.57071e-28
1.00807e-28
4.87768e-23
1.12163e-22
6.2061e-24
3.05263e-25
1.94685e-26
8.63761e-29
1.85019e-27
3.24835e-27
2.08895e-27
4.87486e-27
3.75219e-27
8.69148e-28
5.22285e-27
5.64283e-27
8.38992e-29
7.96843e-29
1.36538e-27
1.84348e-27
7.35003e-28
3.90724e-31
6.72939e-24
2.17304e-23
1.19292e-24
5.89919e-26
2.8381e-28
6.43831e-28
2.22466e-28
7.63014e-29
9.37327e-27
9.65853e-28
1.40262e-30
1.81698e-28
3.18077e-27
1.93623e-29
4.21782e-27
1.65156e-27
1.20901e-27
4.39965e-31
5.05782e-28
1.04427e-30
1.02654e-23
1.82165e-23
9.40808e-25
6.16181e-26
2.51242e-27
3.9594e-28
1.61449e-27
1.03942e-27
5.52697e-27
1.46938e-27
3.31488e-27
1.86032e-27
8.26119e-28
2.09414e-27
1.1593e-27
4.82107e-30
2.08681e-27
2.50406e-30
3.43362e-29
2.09229e-28
5.02014e-23
8.06771e-23
4.22768e-24
2.2416e-25
9.66758e-27
4.30211e-30
1.00793e-26
1.77562e-27
7.48869e-29
2.1956e-27
6.42662e-27
7.40554e-27
3.18497e-29
4.36121e-28
1.20975e-27
4.65108e-31
4.15586e-29
1.05916e-30
2.86053e-29
4.375e-28
6.10593e-23
7.9509e-23
4.27029e-24
2.33279e-25
1.13951e-26
5.43172e-27
4.8906e-27
4.78869e-27
6.17131e-27
4.64134e-27
1.30458e-26
3.34244e-28
1.94648e-27
1.73746e-27
1.83575e-27
2.79593e-30
2.49565e-29
1.14736e-28
3.37384e-28
4.75015e-28
3.00503e-23
4.35873e-23
2.47607e-24
1.07269e-25
2.10208e-26
9.33798e-30
2.65539e-27
4.64957e-29
7.46539e-29
6.16206e-28
4.96052e-27
3.35202e-27
4.15691e-29
3.38807e-29
9.1144e-28
6.52091e-29
1.22731e-29
8.39181e-28
4.21946e-27
1.16043e-28
3.16089e-26
1.88259e-24
1.38831e-25
4.56189e-28
1.22439e-27
2.8297e-28
4.85402e-27
7.10391e-27
3.82114e-27
4.37953e-27
3.78024e-27
1.04927e-29
3.65684e-27
1.24103e-28
6.72619e-28
9.66773e-28
4.5412e-29
3.69505e-28
3.62156e-29
2.2444e-29
2.27445e-23
3.23078e-23
1.5352e-24
1.14981e-25
1.48911e-26
1.34601e-27
1.07467e-27
3.65066e-27
6.37177e-30
3.66956e-27
3.47508e-27
4.5512e-27
2.50516e-27
1.40702e-27
9.54845e-29
9.19239e-28
5.33594e-32
2.88798e-28
1.91003e-27
4.23352e-29
4.71865e-23
1.08548e-22
5.91183e-24
3.24792e-25
1.6115e-26
1.27824e-27
3.59876e-27
2.26337e-27
2.0906e-27
4.36112e-29
4.26141e-30
1.30092e-27
1.20188e-27
3.81582e-27
5.41171e-27
1.54733e-27
1.66979e-27
9.38938e-30
1.68127e-29
3.52528e-28
1.71435e-23
4.85643e-23
2.9159e-24
1.08239e-25
9.95725e-27
4.45648e-32
4.08583e-28
1.69783e-28
5.63725e-28
1.85437e-27
1.46953e-27
9.2982e-30
8.75929e-28
5.0139e-27
5.37078e-28
3.58454e-29
7.24975e-29
3.39522e-31
2.00673e-29
7.9452e-30
1.06212e-26
1.12395e-24
6.29227e-26
3.89651e-27
1.58647e-28
4.22866e-29
2.3199e-27
2.76352e-29
4.70655e-28
1.81099e-27
4.84811e-29
1.45118e-27
2.36381e-27
5.83893e-28
4.22001e-27
2.62209e-29
1.9011e-28
4.34225e-29
3.49034e-29
3.09229e-31
7.3093e-24
5.61457e-23
3.06844e-24
1.41184e-25
2.5717e-26
2.65986e-27
5.36587e-27
1.33683e-27
1.51408e-27
6.75081e-30
2.65143e-27
6.60673e-27
6.12946e-28
6.4119e-28
7.70414e-28
7.04487e-28
1.36963e-27
1.51325e-29
7.71381e-33
4.30355e-29
2.38571e-24
1.20733e-23
7.53527e-25
1.4828e-26
1.48815e-26
4.93994e-27
1.14463e-26
2.30781e-27
1.86019e-27
7.04587e-27
9.04289e-28
2.97868e-28
8.95197e-31
2.09787e-27
1.32453e-27
1.36536e-28
1.64944e-27
4.92505e-28
3.12873e-28
9.0671e-29
1.36962e-23
2.94495e-23
1.2373e-24
1.04416e-25
6.05925e-28
1.98424e-27
6.6398e-28
4.88473e-28
4.19448e-28
6.20782e-28
2.99199e-27
2.86979e-27
9.08499e-28
1.10059e-27
9.508e-28
4.0126e-28
1.72141e-27
4.53404e-28
4.31949e-28
5.78406e-28
)
;

boundaryField
{
    movingWall
    {
        type            calculated;
        value           nonuniform List<scalar> 
20
(
8.00839e-23
4.83921e-23
1.06501e-24
2.87314e-25
3.54444e-26
8.34223e-26
7.29281e-26
6.45923e-26
3.59957e-26
5.65479e-26
4.70949e-26
1.98375e-26
1.79581e-27
2.3059e-26
2.23538e-26
1.59953e-26
9.47957e-27
1.12419e-27
1.09026e-27
4.58161e-27
)
;
    }
    fixedWalls
    {
        type            calculated;
        value           nonuniform List<scalar> 
60
(
2.39141e-21
1.0253e-23
1.26107e-21
1.3847e-21
9.62231e-23
8.06339e-22
2.08575e-21
3.92156e-22
3.31173e-22
1.46651e-21
1.4731e-21
8.16296e-22
3.51611e-23
5.8429e-22
1.98635e-21
9.1269e-22
2.125e-23
1.02464e-21
2.2024e-22
5.17903e-22
2.58461e-29
2.39746e-27
8.14752e-29
1.56817e-30
3.99113e-27
1.45254e-28
6.89368e-29
9.72536e-31
1.32259e-28
3.7371e-28
4.24469e-28
1.2846e-31
2.79519e-33
1.5134e-29
5.20928e-28
4.88735e-29
1.15254e-28
2.43977e-29
9.02051e-30
8.08676e-28
2.01645e-22
1.77357e-22
6.43758e-24
5.68664e-25
4.2801e-28
2.38701e-26
7.82777e-27
5.00837e-27
1.05812e-26
4.23092e-27
1.41878e-26
3.55534e-27
1.65224e-26
3.72897e-27
3.12778e-27
2.02073e-29
3.15638e-29
2.6676e-27
5.81477e-31
1.00583e-30
)
;
    }
    frontAndBack
    {
        type            empty;
    }
}


// ************************************************************************* //
