/*--------------------------------*- C++ -*----------------------------------*\
| =========                 |                                                 |
| \\      /  F ield         | OpenFOAM: The Open Source CFD Toolbox           |
|  \\    /   O peration     | Version:  2312                                  |
|   \\  /    A nd           | Website:  www.openfoam.com                      |
|    \\/     M anipulation  |                                                 |
\*---------------------------------------------------------------------------*/
FoamFile
{
    version     2.0;
    format      ascii;
    arch        "LSB;label=32;scalar=64";
    class       surfaceScalarField;
    location    "7.5";
    object      fluxField;
}
// * * * * * * * * * * * * * * * * * * * * * * * * * * * * * * * * * * * * * //

dimensions      [0 3 -1 0 0 0 0];

oriented        oriented;

internalField   nonuniform List<scalar> 
760
(
-5e-05
4.13252e-18
-5e-05
-8.97608e-19
-5e-05
2.11586e-19
-5e-05
-4.51679e-20
-5e-05
1.40942e-20
-5e-05
9.61521e-22
-5e-05
5.72502e-21
-5e-05
3.47552e-21
-5e-05
2.8674e-22
-5e-05
-1.92266e-21
-5e-05
-9.67209e-22
-5e-05
1.64068e-21
-5e-05
1.23105e-21
-5e-05
2.72345e-21
-5e-05
3.54804e-21
-5e-05
4.80657e-21
-5e-05
6.36078e-21
-5e-05
6.29149e-22
-5e-05
-3.59652e-21
-4.90345e-22
-5e-05
-3.68611e-18
-5e-05
7.94062e-19
-5e-05
-1.91554e-19
-5e-05
3.7956e-20
-5e-05
-9.86335e-21
-5e-05
3.19533e-21
-5e-05
2.65747e-21
-5e-05
1.13132e-21
-5e-05
-1.8523e-21
-5e-05
-1.78434e-21
-5e-05
-2.07239e-21
-5e-05
-6.93233e-22
-5e-05
-1.6118e-21
-5e-05
2.57498e-21
-5e-05
2.29769e-21
-5e-05
2.55927e-21
-5e-05
5.56241e-22
-5e-05
-5.36702e-21
-5e-05
-9.27314e-21
-5.12566e-21
-5e-05
1.53645e-19
-5e-05
-4.99666e-20
-5e-05
-7.06899e-22
-5e-05
-8.88138e-21
-5e-05
-3.84316e-21
-5e-05
1.00317e-21
-5e-05
1.11844e-21
-5e-05
-3.99697e-22
-5e-05
-2.65103e-21
-5e-05
-1.51242e-21
-5e-05
-6.42497e-22
-5e-05
3.33733e-22
-5e-05
-2.41984e-21
-5e-05
-2.04227e-21
-5e-05
-1.16657e-21
-5e-05
-1.10629e-21
-5e-05
-5.34237e-21
-5e-05
-9.51618e-21
-5e-05
-1.25959e-20
-7.68477e-21
-5e-05
2.64227e-18
-5e-05
-5.87767e-19
-5e-05
1.29649e-19
-5e-05
-3.3508e-20
-5e-05
3.67044e-21
-5e-05
-8.41792e-22
-5e-05
1.78758e-21
-5e-05
1.05041e-21
-5e-05
-4.77196e-22
-5e-05
5.12667e-22
-5e-05
5.7103e-22
-5e-05
-1.79555e-22
-5e-05
-8.58658e-22
-5e-05
-2.82341e-21
-5e-05
-3.09445e-21
-5e-05
-5.24047e-21
-5e-05
-3.65196e-21
-5e-05
-5.39858e-21
-5e-05
-1.0084e-20
-5.69466e-21
-5e-05
-3.57343e-18
-5e-05
7.65789e-19
-5e-05
-1.78977e-19
-5e-05
4.33327e-20
-5e-05
-6.71522e-21
-5e-05
2.51278e-21
-5e-05
4.38117e-21
-5e-05
4.35201e-21
-5e-05
7.00916e-22
-5e-05
-1.83012e-22
-5e-05
-1.82708e-21
-5e-05
-3.86535e-21
-5e-05
-1.31965e-21
-5e-05
-7.17635e-23
-5e-05
-1.48265e-21
-5e-05
-5.80193e-21
-5e-05
-4.63906e-21
-5e-05
-4.57013e-21
-5e-05
-6.45319e-21
-3.26111e-21
-5e-05
1.61151e-18
-5e-05
-3.43643e-19
-5e-05
8.85366e-20
-5e-05
-1.16571e-20
-5e-05
6.66756e-21
-5e-05
-1.04339e-23
-5e-05
3.87114e-21
-5e-05
2.74075e-21
-5e-05
3.9586e-22
-5e-05
8.16398e-22
-5e-05
2.94332e-21
-5e-05
1.17654e-21
-5e-05
5.88193e-22
-5e-05
2.53518e-21
-5e-05
1.16058e-21
-5e-05
-3.71241e-21
-5e-05
-5.80527e-21
-5e-05
-5.48555e-21
-5e-05
-2.99737e-21
-3.31397e-22
-5e-05
2.36766e-18
-5e-05
-4.90327e-19
-5e-05
1.22323e-19
-5e-05
-2.28116e-20
-5e-05
6.07807e-21
-5e-05
2.34505e-22
-5e-05
-1.78933e-21
-5e-05
-3.38368e-21
-5e-05
1.12071e-21
-5e-05
6.34741e-21
-5e-05
9.68862e-21
-5e-05
7.25684e-21
-5e-05
1.79358e-21
-5e-05
-6.84459e-22
-5e-05
-3.08704e-22
-5e-05
-1.58965e-21
-5e-05
-2.64908e-21
-5e-05
-3.3372e-21
-5e-05
-7.87002e-22
6.46706e-22
-5e-05
-3.53842e-18
-5e-05
7.70213e-19
-5e-05
-1.78024e-19
-5e-05
4.11297e-20
-5e-05
-4.38944e-21
-5e-05
3.89941e-21
-5e-05
-2.45353e-21
-5e-05
-2.02743e-21
-5e-05
2.78873e-21
-5e-05
5.91763e-21
-5e-05
7.00018e-21
-5e-05
5.47187e-21
-5e-05
5.37729e-22
-5e-05
-4.30109e-21
-5e-05
-3.6447e-21
-5e-05
-1.53895e-22
-5e-05
-2.05275e-21
-5e-05
-4.01146e-21
-5e-05
-1.25877e-21
-7.64732e-22
-5e-05
1.77802e-18
-5e-05
-3.98985e-19
-5e-05
9.1051e-20
-5e-05
-2.17388e-20
-5e-05
4.64549e-21
-5e-05
-4.69759e-21
-5e-05
-1.65628e-21
-5e-05
3.03916e-21
-5e-05
1.84321e-21
-5e-05
1.43068e-22
-5e-05
4.85712e-21
-5e-05
8.13027e-21
-5e-05
6.48055e-21
-5e-05
-3.63635e-23
-5e-05
-3.5296e-21
-5e-05
2.22741e-22
-5e-05
-2.51218e-21
-5e-05
-4.65485e-21
-5e-05
-1.58885e-21
-6.92185e-22
-5e-05
7.03225e-20
-5e-05
-1.62675e-20
-5e-05
-1.85018e-22
-5e-05
-6.36936e-21
-5e-05
-1.03666e-20
-5e-05
-9.34773e-21
-5e-05
-3.90514e-21
-5e-05
3.4387e-21
-5e-05
1.57763e-21
-5e-05
3.91262e-22
-5e-05
8.3495e-21
-5e-05
1.49064e-20
-5e-05
1.13572e-20
-5e-05
1.30336e-21
-5e-05
-3.98714e-21
-5e-05
-1.5478e-21
-5e-05
-3.15485e-21
-5e-05
-2.06079e-21
-5e-05
1.98193e-22
1.12348e-22
-5e-05
-8.23056e-19
-5e-05
1.7467e-19
-5e-05
-3.85607e-20
-5e-05
7.17427e-21
-5e-05
-3.92244e-21
-5e-05
3.64556e-22
-5e-05
7.2534e-22
-5e-05
9.45e-23
-5e-05
2.45176e-21
-5e-05
3.81856e-21
-5e-05
4.20947e-21
-5e-05
5.74719e-21
-5e-05
3.75624e-21
-5e-05
1.42183e-21
-5e-05
-2.1467e-21
-5e-05
-4.07142e-21
-5e-05
-4.41054e-21
-5e-05
-1.06659e-21
-5e-05
2.04433e-21
1.85271e-21
-5e-05
1.90635e-18
-5e-05
-4.10567e-19
-5e-05
9.79288e-20
-5e-05
-1.98472e-20
-5e-05
1.00133e-20
-5e-05
5.48915e-21
-5e-05
2.98555e-21
-5e-05
-3.48064e-21
-5e-05
-2.11934e-21
-5e-05
-1.95208e-21
-5e-05
-7.18817e-21
-5e-05
-7.93337e-21
-5e-05
-1.69791e-21
-5e-05
4.39088e-21
-5e-05
3.19764e-21
-5e-05
-1.89977e-21
-5e-05
-3.87414e-21
-5e-05
-3.0437e-21
-5e-05
-4.28369e-22
1.72107e-21
-5e-05
-2.76229e-18
-5e-05
6.06716e-19
-5e-05
-1.38844e-19
-5e-05
3.69186e-20
-5e-05
-4.63037e-21
-5e-05
1.73226e-21
-5e-05
-3.22011e-21
-5e-05
-4.53359e-21
-5e-05
-4.88103e-21
-5e-05
-5.16737e-21
-5e-05
-6.86131e-21
-5e-05
-6.06322e-21
-5e-05
2.29253e-21
-5e-05
5.90766e-21
-5e-05
4.83952e-21
-5e-05
1.93071e-22
-5e-05
-3.32035e-21
-5e-05
-2.27114e-21
-5e-05
-4.10822e-21
-2.04259e-21
-5e-05
2.00779e-18
-5e-05
-4.45353e-19
-5e-05
1.10219e-19
-5e-05
-1.70019e-20
-5e-05
8.28401e-21
-5e-05
-1.71137e-21
-5e-05
-3.77503e-21
-5e-05
-4.55443e-21
-5e-05
-6.00962e-21
-5e-05
-6.27501e-21
-5e-05
-7.25605e-21
-5e-05
-5.03205e-21
-5e-05
2.24257e-21
-5e-05
4.59213e-21
-5e-05
3.46295e-21
-5e-05
1.74524e-22
-5e-05
-1.25276e-22
-5e-05
9.87588e-22
-5e-05
-1.97659e-21
-2.36121e-21
-5e-05
1.27922e-18
-5e-05
-2.73796e-19
-5e-05
5.95198e-20
-5e-05
-1.78859e-20
-5e-05
1.45085e-21
-5e-05
-1.50752e-21
-5e-05
-4.48794e-21
-5e-05
-2.75856e-21
-5e-05
-3.14886e-21
-5e-05
-3.75347e-21
-5e-05
-7.156e-21
-5e-05
-3.02437e-21
-5e-05
-1.02107e-22
-5e-05
-1.23112e-21
-5e-05
-3.29704e-21
-5e-05
-3.74457e-21
-5e-05
1.71734e-21
-5e-05
1.60512e-22
-5e-05
8.39989e-22
2.94623e-22
-5e-05
-3.36233e-18
-5e-05
7.23605e-19
-5e-05
-1.78072e-19
-5e-05
3.11903e-20
-5e-05
-1.25795e-20
-5e-05
-1.76634e-21
-5e-05
-3.57874e-21
-5e-05
1.3399e-21
-5e-05
2.88669e-21
-5e-05
3.85195e-21
-5e-05
2.70758e-21
-5e-05
1.38947e-21
-5e-05
-2.90645e-21
-5e-05
-5.93496e-21
-5e-05
-9.37935e-21
-5e-05
-9.99089e-21
-5e-05
-2.90943e-21
-5e-05
-2.10574e-21
-5e-05
-3.73649e-22
1.56682e-21
-5e-05
2.72001e-18
-5e-05
-6.0797e-19
-5e-05
1.40716e-19
-5e-05
-3.66811e-20
-5e-05
2.83454e-21
-5e-05
-4.76545e-21
-5e-05
3.03895e-21
-5e-05
4.2808e-21
-5e-05
4.27187e-21
-5e-05
5.3794e-21
-5e-05
6.68367e-21
-5e-05
-1.73499e-21
-5e-05
-8.4171e-21
-5e-05
-7.34879e-21
-5e-05
-8.00773e-21
-5e-05
-6.95032e-21
-5e-05
-3.5895e-21
-5e-05
-1.6075e-21
-5e-05
-2.63507e-21
5.12319e-22
-5e-05
1.76153e-18
-5e-05
-3.75977e-19
-5e-05
9.00953e-20
-5e-05
-2.29061e-20
-5e-05
3.01661e-22
-5e-05
-2.56213e-21
-5e-05
4.62637e-22
-5e-05
-9.36818e-22
-5e-05
3.18117e-21
-5e-05
4.34793e-21
-5e-05
1.52767e-21
-5e-05
-4.16031e-21
-5e-05
-6.20665e-21
-5e-05
-5.80271e-21
-5e-05
-6.67142e-21
-5e-05
-2.08033e-21
-5e-05
-1.41856e-21
-5e-05
-2.41878e-21
-5e-05
-3.86386e-21
-1.86518e-21
-5e-05
-3.557e-18
-5e-05
7.67347e-19
-5e-05
-1.79487e-19
-5e-05
4.00659e-20
-5e-05
-8.63724e-21
-5e-05
1.78556e-21
-5e-05
-4.18512e-21
-5e-05
-6.6011e-21
-5e-05
1.96869e-22
-5e-05
-1.05637e-21
-5e-05
-7.11881e-21
-5e-05
-5.90168e-21
-5e-05
-1.05698e-21
-5e-05
-1.68686e-21
-5e-05
-5.52142e-21
-5e-05
-3.65226e-21
-5e-05
-2.57045e-21
-5e-05
-3.34236e-21
-5e-05
-2.88835e-21
-2.24805e-21
-5e-05
-5e-05
-5e-05
-5e-05
-5e-05
-5e-05
-5e-05
-5e-05
-5e-05
-5e-05
-5e-05
-5e-05
-5e-05
-5e-05
-5e-05
-5e-05
-5e-05
-5e-05
-5e-05
)
;

boundaryField
{
    movingWall
    {
        type            calculated;
        value           uniform -0;
    }
    fixedWalls
    {
        type            calculated;
        value           nonuniform List<scalar> 
60
(
5e-05
5e-05
5e-05
5e-05
5e-05
5e-05
5e-05
5e-05
5e-05
5e-05
5e-05
5e-05
5e-05
5e-05
5e-05
5e-05
5e-05
5e-05
5e-05
5e-05
-5e-05
-5e-05
-5e-05
-5e-05
-5e-05
-5e-05
-5e-05
-5e-05
-5e-05
-5e-05
-5e-05
-5e-05
-5e-05
-5e-05
-5e-05
-5e-05
-5e-05
-5e-05
-5e-05
-5e-05
0
0
0
0
0
0
0
0
0
0
0
0
0
0
0
0
0
0
0
0
)
;
    }
    frontAndBack
    {
        type            empty;
        value           nonuniform List<scalar> 0();
    }
}


// ************************************************************************* //
