/*--------------------------------*- C++ -*----------------------------------*\
| =========                 |                                                 |
| \\      /  F ield         | OpenFOAM: The Open Source CFD Toolbox           |
|  \\    /   O peration     | Version:  2312                                  |
|   \\  /    A nd           | Website:  www.openfoam.com                      |
|    \\/     M anipulation  |                                                 |
\*---------------------------------------------------------------------------*/
FoamFile
{
    version     2.0;
    format      ascii;
    arch        "LSB;label=32;scalar=64";
    class       volTensorField;
    location    "7.5";
    object      gradU;
}
// * * * * * * * * * * * * * * * * * * * * * * * * * * * * * * * * * * * * * //

dimensions      [0 0 -1 0 0 0 0];

internalField   nonuniform List<tensor> 
400
(
(-1.0571e-12 1.3776e-11 0 1.24683e-12 1.65301e-11 0 0 0 0)
(1.5992e-12 -1.67022e-11 0 -4.33681e-13 -3.59043e-12 0 0 0 0)
(-4.87891e-13 3.63261e-12 0 -5.42101e-14 8.46345e-13 0 0 0 0)
(5.42101e-14 -8.44411e-13 0 -2.71051e-14 -1.80672e-13 0 0 0 0)
(-2.71051e-14 1.92787e-13 0 2.71051e-14 5.63767e-14 0 0 0 0)
(0 -4.08594e-14 0 0 3.84608e-15 0 0 0 0)
(-2.71051e-14 8.10464e-15 0 -5.42101e-14 2.29001e-14 0 0 0 0)
(0 -1.12658e-14 0 -5.42101e-14 1.39021e-14 0 0 0 0)
(0 -1.22461e-14 0 0 1.14696e-15 0 0 0 0)
(0 -3.17045e-15 0 0 -7.69066e-15 0 0 0 0)
(0 9.18513e-15 0 0 -3.86884e-15 0 0 0 0)
(0 4.49302e-15 0 -5.42101e-14 6.56271e-15 0 0 0 0)
(0 -4.14656e-15 0 0 4.92422e-15 0 0 0 0)
(0 2.45848e-15 0 0 1.08938e-14 0 0 0 0)
(-2.71051e-14 9.72576e-15 0 0 1.41921e-14 0 0 0 0)
(-2.71051e-14 6.35725e-15 0 -5.42101e-14 1.92263e-14 0 0 0 0)
(0 -7.94529e-15 0 0 2.54431e-14 0 0 0 0)
(-5.42101e-14 -1.57754e-14 0 -5.42101e-14 2.5166e-15 0 0 0 0)
(5.42101e-14 -1.0784e-15 0 0 -1.43861e-14 0 0 0 0)
(0 1.41833e-15 0 0 -1.96138e-15 0 0 0 0)
(1.92446e-12 -8.36339e-13 0 2.43945e-13 -3.12745e-11 0 0 0 0)
(-2.92735e-12 1.01849e-12 0 -2.1684e-13 6.76668e-12 0 0 0 0)
(8.40257e-13 -2.22845e-13 0 -8.13152e-14 -1.61256e-12 0 0 0 0)
(5.42101e-14 5.44428e-14 0 -8.13152e-14 3.32496e-13 0 0 0 0)
(0 -8.26916e-15 0 -8.13152e-14 -9.58301e-14 0 0 0 0)
(0 7.38282e-15 0 -1.35525e-13 8.93526e-15 0 0 0 0)
(0 1.95136e-15 0 -2.71051e-14 -1.22702e-14 0 0 0 0)
(0 -1.04873e-14 0 -8.13152e-14 -9.37682e-15 0 0 0 0)
(5.42101e-14 -9.34662e-15 0 -8.13152e-14 -8.55616e-15 0 0 0 0)
(0 -1.84535e-15 0 -5.42101e-14 5.53314e-16 0 0 0 0)
(0 5.06824e-15 0 -8.13152e-14 -4.42072e-15 0 0 0 0)
(0 4.30004e-15 0 -8.13152e-14 -9.33564e-15 0 0 0 0)
(0 8.47767e-15 0 -1.35525e-13 -1.13714e-14 0 0 0 0)
(0 6.80944e-15 0 -8.13152e-14 -5.93908e-16 0 0 0 0)
(0 -1.39329e-15 0 -8.13152e-14 -5.00139e-15 0 0 0 0)
(0 4.89373e-15 0 -2.71051e-14 -8.98921e-15 0 0 0 0)
(2.71051e-14 -8.76441e-15 0 -8.13152e-14 -2.32182e-14 0 0 0 0)
(5.42101e-14 -2.40538e-14 0 0 -2.39847e-14 0 0 0 0)
(-5.42101e-14 -3.39957e-15 0 0 -2.27065e-14 0 0 0 0)
(5.42101e-14 1.49291e-14 0 -5.42101e-14 -1.85413e-14 0 0 0 0)
(-1.02999e-12 -1.07318e-11 0 -4.47233e-12 1.5359e-11 0 0 0 0)
(1.30104e-12 1.29597e-11 0 1.38236e-12 -3.37612e-12 0 0 0 0)
(-3.52366e-13 -2.80158e-12 0 0 7.63388e-13 0 0 0 0)
(0 6.72319e-13 0 1.35525e-13 -1.8735e-13 0 0 0 0)
(0 -1.30774e-13 0 8.13152e-14 2.40808e-14 0 0 0 0)
(0 4.27005e-14 0 8.13152e-14 -8.76867e-15 0 0 0 0)
(0 -1.02074e-14 0 8.13152e-14 -6.15615e-15 0 0 0 0)
(0 -7.55177e-15 0 8.13152e-14 -6.12406e-15 0 0 0 0)
(0 -2.316e-15 0 8.13152e-14 -3.19494e-15 0 0 0 0)
(0 9.64988e-16 0 5.42101e-14 1.08767e-15 0 0 0 0)
(0 -7.03827e-16 0 8.13152e-14 5.71957e-15 0 0 0 0)
(0 -2.45768e-15 0 8.13152e-14 4.10786e-15 0 0 0 0)
(-5.42101e-14 4.59517e-15 0 8.13152e-14 -3.23218e-15 0 0 0 0)
(5.42101e-14 8.82851e-15 0 8.13152e-14 -1.8469e-14 0 0 0 0)
(0 1.33046e-15 0 2.71051e-14 -1.3857e-14 0 0 0 0)
(0 -1.18595e-14 0 8.13152e-14 -1.46623e-14 0 0 0 0)
(2.71051e-14 -2.29408e-14 0 8.13152e-14 -2.35945e-14 0 0 0 0)
(5.42101e-14 -1.52637e-14 0 5.42101e-14 -1.65966e-14 0 0 0 0)
(-5.42101e-14 4.36501e-15 0 2.71051e-14 -1.3291e-14 0 0 0 0)
(5.42101e-14 4.26661e-14 0 5.42101e-14 -1.02365e-14 0 0 0 0)
(-1.21973e-12 1.11466e-11 0 4.52654e-12 9.95449e-12 0 0 0 0)
(1.57209e-12 -1.35771e-11 0 -1.0571e-12 -2.1512e-12 0 0 0 0)
(-4.33681e-13 2.96592e-12 0 2.1684e-13 5.21422e-13 0 0 0 0)
(8.13152e-14 -6.84864e-13 0 2.71051e-14 -9.85065e-14 0 0 0 0)
(0 1.70312e-13 0 2.71051e-14 3.00544e-14 0 0 0 0)
(2.71051e-14 -2.28541e-14 0 1.0842e-13 -7.37984e-15 0 0 0 0)
(0 4.59597e-15 0 5.42101e-14 2.67659e-15 0 0 0 0)
(0 -7.52611e-15 0 5.42101e-14 5.80044e-15 0 0 0 0)
(0 -2.13488e-15 0 5.42101e-14 8.69535e-15 0 0 0 0)
(0 7.06915e-15 0 2.71051e-14 8.10034e-15 0 0 0 0)
(0 8.08843e-15 0 5.42101e-14 4.85411e-15 0 0 0 0)
(0 -4.6517e-15 0 8.13152e-14 -2.05315e-15 0 0 0 0)
(0 -1.40992e-14 0 1.0842e-13 6.24475e-15 0 0 0 0)
(0 -3.81542e-15 0 5.42101e-14 -3.12457e-15 0 0 0 0)
(0 2.41346e-15 0 5.42101e-14 -7.71151e-15 0 0 0 0)
(2.71051e-14 -4.8437e-15 0 2.71051e-14 -1.65367e-14 0 0 0 0)
(0 -1.06988e-14 0 2.71051e-14 6.76165e-15 0 0 0 0)
(-2.71051e-14 -1.37503e-14 0 5.42101e-14 1.64704e-14 0 0 0 0)
(0 2.96061e-15 0 0 1.00475e-14 0 0 0 0)
(-5.42101e-14 3.84566e-14 0 5.42101e-14 7.96048e-15 0 0 0 0)
(2.38524e-12 -2.92856e-12 0 -1.00289e-12 -2.48628e-11 0 0 0 0)
(-3.03577e-12 3.52667e-12 0 2.43945e-13 5.41422e-12 0 0 0 0)
(7.86047e-13 -7.48885e-13 0 2.71051e-14 -1.2345e-12 0 0 0 0)
(-1.6263e-13 1.80951e-13 0 2.71051e-14 3.07363e-13 0 0 0 0)
(5.42101e-14 -3.96469e-14 0 2.71051e-14 -4.15426e-14 0 0 0 0)
(0 1.53227e-14 0 0 1.34183e-14 0 0 0 0)
(0 2.97285e-15 0 0 1.03743e-14 0 0 0 0)
(-2.71051e-14 -1.53301e-15 0 5.42101e-14 1.32064e-14 0 0 0 0)
(0 -1.60976e-17 0 -2.71051e-14 4.71245e-15 0 0 0 0)
(-2.71051e-14 -2.87625e-15 0 2.71051e-14 -2.78271e-15 0 0 0 0)
(0 -1.08573e-14 0 0 -9.59243e-15 0 0 0 0)
(2.71051e-14 -1.06705e-15 0 2.71051e-14 -1.47432e-14 0 0 0 0)
(0 3.52375e-15 0 -2.71051e-14 -1.84397e-15 0 0 0 0)
(0 -5.12775e-15 0 -2.71051e-14 1.10066e-14 0 0 0 0)
(-2.71051e-14 -1.20817e-14 0 5.42101e-14 6.44722e-15 0 0 0 0)
(-5.42101e-14 2.61364e-15 0 -2.71051e-14 -2.24586e-15 0 0 0 0)
(5.42101e-14 1.00663e-14 0 -2.71051e-14 -3.94837e-15 0 0 0 0)
(0 -1.19779e-14 0 0 3.31379e-15 0 0 0 0)
(0 -4.14491e-15 0 0 1.45233e-14 0 0 0 0)
(0 2.46581e-14 0 -5.42101e-14 9.73419e-15 0 0 0 0)
(-1.89735e-12 -8.30199e-12 0 -2.1413e-12 2.07398e-11 0 0 0 0)
(2.62919e-12 1.00511e-11 0 6.50521e-13 -4.43773e-12 0 0 0 0)
(-7.04731e-13 -2.14094e-12 0 -5.42101e-14 1.07005e-12 0 0 0 0)
(2.71051e-14 5.08095e-13 0 0 -2.19959e-13 0 0 0 0)
(0 -1.23633e-13 0 2.71051e-14 5.35311e-14 0 0 0 0)
(0 2.90629e-14 0 0 -1.00929e-14 0 0 0 0)
(0 4.38406e-15 0 0 -2.04012e-15 0 0 0 0)
(0 -1.3188e-14 0 2.71051e-14 -6.44504e-15 0 0 0 0)
(0 -1.8124e-14 0 8.13152e-14 -1.22023e-15 0 0 0 0)
(2.71051e-14 -7.23572e-15 0 5.42101e-14 3.99764e-15 0 0 0 0)
(0 -3.87202e-15 0 2.71051e-14 1.90816e-14 0 0 0 0)
(-2.71051e-14 3.09676e-15 0 0 2.01676e-14 0 0 0 0)
(0 1.16506e-14 0 2.71051e-14 7.63137e-15 0 0 0 0)
(0 4.47577e-15 0 2.71051e-14 1.04278e-14 0 0 0 0)
(0 -1.0839e-14 0 0 1.05729e-14 0 0 0 0)
(-2.71051e-14 -1.52393e-14 0 5.42101e-14 8.3581e-15 0 0 0 0)
(0 -5.13915e-15 0 5.42101e-14 -4.66486e-15 0 0 0 0)
(2.71051e-14 4.72134e-15 0 0 -3.66168e-15 0 0 0 0)
(-2.71051e-14 9.38101e-15 0 2.71051e-14 1.38233e-14 0 0 0 0)
(-2.71051e-14 1.41991e-14 0 0 1.17188e-14 0 0 0 0)
(9.21572e-13 1.33735e-11 0 3.49655e-12 3.0246e-12 0 0 0 0)
(-1.00289e-12 -1.6143e-11 0 -1.16552e-12 -5.86734e-13 0 0 0 0)
(1.6263e-13 3.46888e-12 0 -5.42101e-14 1.35145e-13 0 0 0 0)
(-2.71051e-14 -8.35571e-13 0 -5.42101e-14 -4.46181e-14 0 0 0 0)
(2.71051e-14 1.70219e-13 0 -2.71051e-14 -2.35796e-15 0 0 0 0)
(-2.71051e-14 -4.02486e-14 0 -2.71051e-14 9.79754e-16 0 0 0 0)
(0 6.62067e-15 0 -5.42101e-14 -2.26419e-14 0 0 0 0)
(8.13152e-14 -7.13115e-16 0 -8.13152e-14 -2.44977e-14 0 0 0 0)
(2.71051e-14 1.04266e-14 0 -5.42101e-14 2.89938e-15 0 0 0 0)
(-2.71051e-14 1.74255e-14 0 -8.13152e-14 2.21241e-14 0 0 0 0)
(-8.13152e-14 5.3126e-15 0 -8.13152e-14 2.69812e-14 0 0 0 0)
(0 -1.25172e-14 0 -5.42101e-14 2.43212e-14 0 0 0 0)
(0 -6.21602e-15 0 -1.0842e-13 4.82153e-15 0 0 0 0)
(0 -2.18621e-15 0 -1.0842e-13 -1.28786e-14 0 0 0 0)
(2.71051e-14 -1.41513e-14 0 -2.71051e-14 -5.87715e-15 0 0 0 0)
(0 -1.26241e-14 0 0 8.49101e-15 0 0 0 0)
(-2.71051e-14 -1.95344e-15 0 -5.42101e-14 1.26248e-14 0 0 0 0)
(0 6.51026e-15 0 -5.42101e-14 8.5934e-15 0 0 0 0)
(-2.71051e-14 1.12356e-14 0 -2.71051e-14 8.84148e-15 0 0 0 0)
(-2.71051e-14 -8.83995e-16 0 0 3.91241e-15 0 0 0 0)
(4.06576e-13 -5.86413e-12 0 -2.19551e-12 -2.36243e-11 0 0 0 0)
(-9.48677e-13 7.16168e-12 0 5.69206e-13 5.04216e-12 0 0 0 0)
(4.60786e-13 -1.59882e-12 0 -5.42101e-14 -1.20139e-12 0 0 0 0)
(8.13152e-14 3.70593e-13 0 2.71051e-14 2.55765e-13 0 0 0 0)
(-5.42101e-14 -7.80349e-14 0 -5.42101e-14 -4.187e-14 0 0 0 0)
(0 8.77896e-15 0 -2.71051e-14 1.46596e-14 0 0 0 0)
(-2.71051e-14 -2.10934e-14 0 0 -2.65678e-15 0 0 0 0)
(0 1.23533e-14 0 0 5.425e-15 0 0 0 0)
(0 2.84978e-14 0 -1.0842e-13 6.67209e-15 0 0 0 0)
(0 1.68461e-14 0 -2.71051e-14 -1.71912e-15 0 0 0 0)
(0 -1.67489e-15 0 0 -1.07538e-14 0 0 0 0)
(0 -1.90629e-14 0 0 -7.13987e-15 0 0 0 0)
(0 -2.55492e-14 0 5.42101e-14 -5.02339e-15 0 0 0 0)
(2.71051e-14 -6.22291e-15 0 0 -1.44665e-14 0 0 0 0)
(5.42101e-14 1.05306e-14 0 -8.13152e-14 -1.3344e-14 0 0 0 0)
(-5.42101e-14 3.26263e-15 0 -5.42101e-14 5.74303e-15 0 0 0 0)
(0 -5.03676e-15 0 -5.42101e-14 2.38532e-15 0 0 0 0)
(5.42101e-14 9.38046e-16 0 0 -2.69702e-15 0 0 0 0)
(0 4.70003e-15 0 -2.71051e-14 -1.88706e-15 0 0 0 0)
(0 1.44518e-15 0 0 -5.64575e-15 0 0 0 0)
(-7.58942e-13 -5.20871e-12 0 -6.77626e-13 2.12658e-11 0 0 0 0)
(1.21973e-12 6.27991e-12 0 2.43945e-13 -4.67679e-12 0 0 0 0)
(-4.06576e-13 -1.31751e-12 0 5.42101e-14 1.0763e-12 0 0 0 0)
(-2.71051e-14 3.23945e-13 0 -2.71051e-14 -2.51474e-13 0 0 0 0)
(0 -7.08862e-14 0 0 3.61397e-14 0 0 0 0)
(0 -1.03532e-15 0 2.71051e-14 -3.4388e-14 0 0 0 0)
(2.71051e-14 -2.61397e-15 0 5.42101e-14 3.18897e-15 0 0 0 0)
(0 8.61576e-15 0 5.42101e-14 2.02664e-14 0 0 0 0)
(0 3.28247e-15 0 1.0842e-13 -3.78208e-15 0 0 0 0)
(0 -3.11426e-19 0 5.42101e-14 -2.30982e-14 0 0 0 0)
(0 -1.08143e-16 0 8.13152e-14 -8.57222e-15 0 0 0 0)
(0 -6.78686e-15 0 5.42101e-14 1.06336e-14 0 0 0 0)
(0 -1.35427e-14 0 2.71051e-14 2.37713e-14 0 0 0 0)
(-5.42101e-14 -1.05068e-14 0 5.42101e-14 1.70589e-14 0 0 0 0)
(0 6.05819e-15 0 5.42101e-14 4.60415e-16 0 0 0 0)
(0 3.10518e-15 0 0 1.50654e-15 0 0 0 0)
(0 -1.03935e-14 0 5.42101e-14 -1.83774e-15 0 0 0 0)
(0 2.23788e-15 0 0 -2.57356e-15 0 0 0 0)
(0 8.28688e-15 0 0 -1.32034e-15 0 0 0 0)
(0 6.64881e-15 0 2.71051e-14 2.90185e-16 0 0 0 0)
(0 1.07249e-11 0 7.04731e-13 -6.83079e-12 0 0 0 0)
(-2.1684e-13 -1.30278e-11 0 -3.25261e-13 1.53087e-12 0 0 0 0)
(1.35525e-13 2.8265e-12 0 -8.13152e-14 -3.64944e-13 0 0 0 0)
(2.71051e-14 -6.69567e-13 0 0 6.14777e-14 0 0 0 0)
(8.13152e-14 1.39051e-13 0 0 -6.00485e-14 0 0 0 0)
(0 -2.41718e-14 0 -2.71051e-14 -1.86006e-14 0 0 0 0)
(2.71051e-14 3.3561e-14 0 -1.0842e-13 -8.99544e-15 0 0 0 0)
(0 5.3822e-15 0 -5.42101e-14 1.59815e-15 0 0 0 0)
(0 -1.48668e-14 0 -2.71051e-14 -1.06231e-15 0 0 0 0)
(0 1.2056e-14 0 -5.42101e-14 9.92776e-16 0 0 0 0)
(0 3.20569e-14 0 -8.13152e-14 1.39695e-14 0 0 0 0)
(-5.42101e-14 1.32805e-14 0 -1.0842e-13 2.71047e-14 0 0 0 0)
(-5.42101e-14 -1.91239e-14 0 -2.71051e-14 1.95065e-14 0 0 0 0)
(5.42101e-14 -2.95338e-14 0 0 5.35889e-15 0 0 0 0)
(2.71051e-14 -5.02177e-15 0 -5.42101e-14 -1.83019e-15 0 0 0 0)
(0 9.64477e-16 0 0 -7.08216e-15 0 0 0 0)
(0 -9.11687e-15 0 0 -2.57065e-15 0 0 0 0)
(0 1.45544e-15 0 0 1.03762e-14 0 0 0 0)
(-2.71051e-14 7.56377e-15 0 0 7.14817e-15 0 0 0 0)
(0 2.47533e-15 0 -2.71051e-14 3.21813e-15 0 0 0 0)
(-4.06576e-13 -1.05086e-11 0 5.42101e-13 -3.57351e-12 0 0 0 0)
(4.60786e-13 1.27458e-11 0 1.35525e-13 7.63751e-13 0 0 0 0)
(-5.42101e-14 -2.7869e-12 0 1.35525e-13 -1.53503e-13 0 0 0 0)
(5.42101e-14 6.28841e-13 0 -5.42101e-14 5.41745e-14 0 0 0 0)
(-5.42101e-14 -1.50964e-13 0 0 2.57768e-14 0 0 0 0)
(-5.42101e-14 5.00177e-14 0 -5.42101e-14 3.88492e-14 0 0 0 0)
(-2.71051e-14 1.75847e-14 0 -8.13152e-14 1.85219e-14 0 0 0 0)
(8.13152e-14 1.65489e-14 0 -8.13152e-14 -1.33768e-14 0 0 0 0)
(0 2.67709e-15 0 -1.0842e-13 3.49653e-15 0 0 0 0)
(-8.13152e-14 1.50315e-14 0 -8.13152e-14 1.37092e-14 0 0 0 0)
(0 2.60038e-14 0 -1.35525e-13 -1.65601e-14 0 0 0 0)
(2.71051e-14 -1.2499e-15 0 -2.71051e-14 -3.6637e-14 0 0 0 0)
(5.42101e-14 -3.52885e-14 0 2.71051e-14 -3.04037e-14 0 0 0 0)
(-5.42101e-14 -3.18435e-14 0 2.71051e-14 4.73879e-16 0 0 0 0)
(-2.71051e-14 -6.38286e-15 0 5.42101e-14 7.36178e-15 0 0 0 0)
(2.71051e-14 2.36471e-15 0 0 -1.00945e-14 0 0 0 0)
(5.42101e-14 7.06491e-15 0 0 -5.02278e-15 0 0 0 0)
(0 1.19567e-14 0 2.71051e-14 3.97679e-15 0 0 0 0)
(0 1.12876e-15 0 2.71051e-14 7.38453e-15 0 0 0 0)
(0 -3.7175e-15 0 2.71051e-14 6.96146e-15 0 0 0 0)
(6.77626e-13 7.91509e-12 0 1.6263e-13 1.09176e-11 0 0 0 0)
(-6.23416e-13 -9.60778e-12 0 -2.71051e-13 -2.34095e-12 0 0 0 0)
(-2.71051e-14 2.11692e-12 0 -1.0842e-13 5.45958e-13 0 0 0 0)
(-1.0842e-13 -4.90288e-13 0 -2.71051e-14 -1.08086e-13 0 0 0 0)
(0 1.23726e-13 0 -8.13152e-14 5.5743e-14 0 0 0 0)
(-5.42101e-14 -3.14266e-14 0 -2.71051e-14 2.04984e-14 0 0 0 0)
(-5.42101e-14 -1.8665e-14 0 5.42101e-14 9.04082e-15 0 0 0 0)
(0 -9.6432e-15 0 0 -1.43006e-14 0 0 0 0)
(5.42101e-14 1.22192e-14 0 0 -1.82844e-14 0 0 0 0)
(0 -8.00067e-15 0 2.71051e-14 -2.30826e-14 0 0 0 0)
(5.42101e-14 -1.82893e-14 0 8.13152e-14 -4.55906e-14 0 0 0 0)
(8.13152e-14 -5.63042e-16 0 8.13152e-14 -5.47222e-14 0 0 0 0)
(2.71051e-14 1.7987e-14 0 2.71051e-14 -2.18166e-14 0 0 0 0)
(0 8.23173e-15 0 0 1.18762e-14 0 0 0 0)
(0 -1.55901e-14 0 2.71051e-14 2.13774e-14 0 0 0 0)
(-2.71051e-14 -1.14201e-14 0 0 8.68662e-15 0 0 0 0)
(0 4.95442e-15 0 0 2.1456e-15 0 0 0 0)
(0 1.38628e-14 0 -2.71051e-14 -7.90845e-15 0 0 0 0)
(2.71051e-14 1.05484e-14 0 -8.13152e-14 -9.89078e-15 0 0 0 0)
(-2.71051e-14 -1.18707e-14 0 -2.71051e-14 -5.26563e-16 0 0 0 0)
(-4.33681e-13 -1.93194e-12 0 -1.68051e-12 -1.86746e-11 0 0 0 0)
(1.35525e-13 2.37409e-12 0 4.33681e-13 4.06913e-12 0 0 0 0)
(1.0842e-13 -5.54042e-13 0 -2.71051e-14 -9.47091e-13 0 0 0 0)
(1.0842e-13 1.38626e-13 0 1.0842e-13 2.27063e-13 0 0 0 0)
(0 -2.23802e-14 0 2.71051e-14 -5.85747e-14 0 0 0 0)
(2.71051e-14 3.31556e-15 0 2.71051e-14 -1.50276e-14 0 0 0 0)
(8.13152e-14 -1.72142e-14 0 8.13152e-14 -2.48226e-14 0 0 0 0)
(0 -1.07763e-14 0 1.0842e-13 -4.21179e-15 0 0 0 0)
(0 -6.10492e-15 0 8.13152e-14 -1.10468e-14 0 0 0 0)
(2.71051e-14 -1.22747e-14 0 8.13152e-14 -1.28611e-14 0 0 0 0)
(-2.71051e-14 -5.63589e-15 0 8.13152e-14 1.30743e-15 0 0 0 0)
(0 2.25241e-14 0 2.71051e-14 7.4806e-15 0 0 0 0)
(-2.71051e-14 3.131e-14 0 -5.42101e-14 1.59618e-14 0 0 0 0)
(0 1.13505e-14 0 2.71051e-14 6.0671e-15 0 0 0 0)
(-5.42101e-14 -9.57244e-15 0 2.71051e-14 6.56751e-15 0 0 0 0)
(0 -1.68671e-14 0 2.71051e-14 8.37135e-15 0 0 0 0)
(0 -9.53016e-15 0 0 2.21517e-15 0 0 0 0)
(0 -7.96675e-17 0 2.71051e-14 3.09025e-15 0 0 0 0)
(0 8.51065e-15 0 0 -1.47194e-14 0 0 0 0)
(5.42101e-14 6.69985e-15 0 0 -1.50547e-14 0 0 0 0)
(-5.42101e-13 -6.69035e-12 0 5.42101e-14 1.90803e-11 0 0 0 0)
(1.00289e-12 8.1197e-12 0 8.13152e-14 -4.20828e-12 0 0 0 0)
(-3.52366e-13 -1.72515e-12 0 2.71051e-14 9.96251e-13 0 0 0 0)
(-5.42101e-14 3.98229e-13 0 -8.13152e-14 -2.15682e-13 0 0 0 0)
(-2.71051e-14 -1.18365e-13 0 5.42101e-14 5.16576e-14 0 0 0 0)
(0 2.32548e-15 0 5.42101e-14 -1.37745e-14 0 0 0 0)
(-2.71051e-14 -7.84916e-15 0 -5.42101e-14 -2.21967e-15 0 0 0 0)
(0 4.13265e-15 0 -8.13152e-14 -8.33489e-17 0 0 0 0)
(2.71051e-14 3.56981e-15 0 0 -4.51435e-15 0 0 0 0)
(0 4.35356e-15 0 -8.13152e-14 -4.43057e-15 0 0 0 0)
(0 2.05247e-15 0 -8.13152e-14 -1.57897e-15 0 0 0 0)
(0 1.40913e-14 0 -8.13152e-14 4.1247e-15 0 0 0 0)
(2.71051e-14 1.65735e-14 0 -5.42101e-14 -1.99838e-16 0 0 0 0)
(0 -1.16255e-15 0 -5.42101e-14 -5.2621e-15 0 0 0 0)
(0 -1.32859e-14 0 -2.71051e-14 -5.50626e-15 0 0 0 0)
(0 -1.57724e-14 0 2.71051e-14 -7.41872e-17 0 0 0 0)
(0 -3.26678e-16 0 0 1.27803e-14 0 0 0 0)
(-2.71051e-14 -3.07182e-15 0 -2.71051e-14 1.30349e-14 0 0 0 0)
(0 -7.59646e-15 0 5.42101e-14 8.52651e-15 0 0 0 0)
(-2.71051e-14 1.79034e-14 0 2.71051e-14 -1.27449e-15 0 0 0 0)
(-4.06576e-13 1.29401e-11 0 3.2255e-12 -2.91426e-12 0 0 0 0)
(1.89735e-13 -1.571e-11 0 -9.75782e-13 6.86227e-13 0 0 0 0)
(0 3.43855e-12 0 0 -2.02795e-13 0 0 0 0)
(1.35525e-13 -8.05967e-13 0 0 -3.53613e-15 0 0 0 0)
(2.71051e-14 1.79527e-13 0 0 -2.73327e-14 0 0 0 0)
(0 -5.05617e-14 0 0 8.15394e-16 0 0 0 0)
(0 -3.52307e-15 0 8.13152e-14 -2.85164e-15 0 0 0 0)
(0 -1.3071e-14 0 5.42101e-14 7.18349e-15 0 0 0 0)
(0 -1.04521e-14 0 5.42101e-14 1.1443e-14 0 0 0 0)
(-2.71051e-14 -9.33929e-15 0 0 1.00862e-14 0 0 0 0)
(0 2.91939e-15 0 0 4.00228e-16 0 0 0 0)
(-5.42101e-14 2.39032e-14 0 -2.71051e-14 8.03069e-15 0 0 0 0)
(5.42101e-14 2.19232e-14 0 -2.71051e-14 -9.37872e-15 0 0 0 0)
(2.71051e-14 6.04407e-15 0 -8.13152e-14 -2.3293e-14 0 0 0 0)
(0 -4.38453e-15 0 -1.0842e-13 -2.704e-14 0 0 0 0)
(5.42101e-14 1.4195e-15 0 -5.42101e-14 -1.56764e-14 0 0 0 0)
(-5.42101e-14 3.57894e-15 0 -5.42101e-14 7.37047e-15 0 0 0 0)
(0 -4.33345e-15 0 0 -3.3083e-15 0 0 0 0)
(5.42101e-14 -5.79875e-15 0 0 1.12663e-14 0 0 0 0)
(0 -5.5217e-16 0 -2.71051e-14 1.06234e-14 0 0 0 0)
(1.76183e-12 -8.91838e-12 0 -3.06287e-12 -1.85662e-11 0 0 0 0)
(-2.24972e-12 1.08312e-11 0 9.75782e-13 3.98961e-12 0 0 0 0)
(5.96311e-13 -2.41491e-12 0 0 -9.50367e-13 0 0 0 0)
(-5.42101e-14 5.73691e-13 0 1.0842e-13 1.96305e-13 0 0 0 0)
(0 -1.14014e-13 0 2.71051e-14 -5.61212e-14 0 0 0 0)
(0 2.68065e-14 0 2.71051e-14 -1.03528e-15 0 0 0 0)
(0 -1.48107e-15 0 2.71051e-14 3.63683e-15 0 0 0 0)
(0 1.84273e-14 0 0 1.63938e-14 0 0 0 0)
(0 6.47248e-15 0 -2.71051e-14 2.41422e-14 0 0 0 0)
(-2.71051e-14 -6.68924e-15 0 5.42101e-14 3.04217e-14 0 0 0 0)
(-2.71051e-14 -3.00293e-18 0 5.42101e-14 3.94543e-14 0 0 0 0)
(-5.42101e-14 4.31235e-15 0 0 1.76554e-14 0 0 0 0)
(0 -1.47502e-14 0 2.71051e-14 -1.12174e-14 0 0 0 0)
(0 -1.88238e-14 0 8.13152e-14 -1.88154e-14 0 0 0 0)
(0 -5.66926e-15 0 2.71051e-14 -2.43292e-14 0 0 0 0)
(0 1.8638e-14 0 2.71051e-14 -2.49853e-14 0 0 0 0)
(5.42101e-14 1.20414e-14 0 0 -1.85071e-14 0 0 0 0)
(2.71051e-14 8.24041e-16 0 0 -9.06499e-15 0 0 0 0)
(0 6.33519e-15 0 0 -4.85455e-15 0 0 0 0)
(-2.71051e-14 -3.98628e-15 0 0 5.0888e-15 0 0 0 0)
(-2.49366e-12 -1.63653e-12 0 -1.49078e-12 2.43294e-11 0 0 0 0)
(3.27971e-12 1.90588e-12 0 4.06576e-13 -5.3263e-12 0 0 0 0)
(-8.67362e-13 -3.54747e-13 0 0 1.27515e-12 0 0 0 0)
(1.35525e-13 8.82781e-14 0 0 -2.71485e-13 0 0 0 0)
(-5.42101e-14 -1.78127e-14 0 0 6.1656e-14 0 0 0 0)
(5.42101e-14 9.19637e-15 0 0 -1.19964e-14 0 0 0 0)
(-5.42101e-14 1.3906e-14 0 -5.42101e-14 2.64707e-14 0 0 0 0)
(0 7.4344e-15 0 0 1.17636e-14 0 0 0 0)
(-5.42101e-14 3.57573e-15 0 -2.71051e-14 5.54069e-15 0 0 0 0)
(0 5.97278e-15 0 -5.42101e-14 6.10981e-15 0 0 0 0)
(-2.71051e-14 -9.84694e-15 0 0 1.59044e-14 0 0 0 0)
(0 -2.67685e-14 0 2.71051e-14 -1.24978e-14 0 0 0 0)
(8.13152e-14 -1.45475e-14 0 5.42101e-14 -2.20426e-14 0 0 0 0)
(2.71051e-14 -7.06782e-15 0 2.71051e-14 -5.65534e-15 0 0 0 0)
(0 -1.05545e-14 0 8.13152e-14 5.48646e-15 0 0 0 0)
(-2.71051e-14 7.24167e-15 0 0 1.21623e-14 0 0 0 0)
(0 1.94992e-14 0 0 -2.7203e-15 0 0 0 0)
(0 9.31907e-15 0 0 1.99296e-15 0 0 0 0)
(0 8.35505e-15 0 0 -9.0457e-15 0 0 0 0)
(0 -7.86421e-16 0 0 -4.21802e-15 0 0 0 0)
(6.77626e-13 1.00847e-11 0 6.26127e-12 -3.83395e-12 0 0 0 0)
(-8.13152e-13 -1.22231e-11 0 -1.6263e-12 9.27975e-13 0 0 0 0)
(1.89735e-13 2.6399e-12 0 1.6263e-13 -2.02483e-13 0 0 0 0)
(-5.42101e-14 -6.39804e-13 0 -1.0842e-13 5.51e-14 0 0 0 0)
(5.42101e-14 1.45475e-13 0 -8.13152e-14 -1.01315e-14 0 0 0 0)
(-5.42101e-14 -8.37874e-15 0 -8.13152e-14 8.81327e-15 0 0 0 0)
(0 2.2279e-14 0 -8.13152e-14 -1.03052e-14 0 0 0 0)
(2.71051e-14 -2.50273e-15 0 -5.42101e-14 -2.08705e-14 0 0 0 0)
(0 8.18691e-16 0 -5.42101e-14 -4.36279e-15 0 0 0 0)
(0 3.67445e-15 0 0 -4.1259e-15 0 0 0 0)
(2.71051e-14 -1.86106e-14 0 5.42101e-14 -2.0624e-14 0 0 0 0)
(-2.71051e-14 -3.36346e-14 0 8.13152e-14 -9.70128e-15 0 0 0 0)
(0 -7.90768e-15 0 2.71051e-14 8.84182e-15 0 0 0 0)
(0 8.70529e-15 0 -2.71051e-14 6.18431e-15 0 0 0 0)
(0 1.21483e-14 0 -2.71051e-14 5.34526e-15 0 0 0 0)
(-2.71051e-14 1.04313e-14 0 -2.71051e-14 1.94799e-14 0 0 0 0)
(-5.42101e-14 1.87209e-15 0 5.42101e-14 8.68375e-15 0 0 0 0)
(0 -5.50136e-15 0 0 -3.24512e-15 0 0 0 0)
(5.42101e-14 1.24208e-16 0 0 -4.91513e-15 0 0 0 0)
(0 9.27744e-15 0 0 -9.51001e-15 0 0 0 0)
(2.1413e-12 -4.5425e-12 0 -2.35814e-12 -2.12741e-11 0 0 0 0)
(-2.81893e-12 5.53734e-12 0 6.23416e-13 4.57329e-12 0 0 0 0)
(7.04731e-13 -1.22762e-12 0 0 -1.07833e-12 0 0 0 0)
(-1.0842e-13 2.80629e-13 0 1.0842e-13 2.51888e-13 0 0 0 0)
(-5.42101e-14 -6.40995e-14 0 1.0842e-13 -3.57556e-14 0 0 0 0)
(0 9.02265e-15 0 1.0842e-13 1.73908e-14 0 0 0 0)
(0 -1.57777e-14 0 1.35525e-13 -1.8591e-14 0 0 0 0)
(5.42101e-14 1.33769e-14 0 8.13152e-14 -2.26571e-14 0 0 0 0)
(0 2.03203e-14 0 8.13152e-14 -1.19372e-14 0 0 0 0)
(2.71051e-14 -1.02884e-14 0 1.0842e-13 -2.16172e-14 0 0 0 0)
(5.42101e-14 -1.54223e-14 0 2.71051e-14 -3.45859e-14 0 0 0 0)
(2.71051e-14 2.69737e-15 0 2.71051e-14 -6.96548e-15 0 0 0 0)
(-2.71051e-14 1.33806e-15 0 0 2.05987e-14 0 0 0 0)
(-5.42101e-14 -1.05644e-14 0 5.42101e-14 1.64634e-14 0 0 0 0)
(0 2.74119e-15 0 5.42101e-14 4.6e-15 0 0 0 0)
(5.42101e-14 1.05802e-14 0 2.71051e-14 -6.2877e-15 0 0 0 0)
(0 -3.22585e-15 0 5.42101e-14 -4.60754e-15 0 0 0 0)
(2.71051e-14 -4.27981e-15 0 2.71051e-14 -3.69435e-15 0 0 0 0)
(-2.71051e-14 2.09016e-15 0 2.71051e-14 3.90203e-15 0 0 0 0)
(0 1.36387e-14 0 2.71051e-14 -1.53147e-15 0 0 0 0)
(-1.02999e-12 -6.61613e-12 0 -1.38236e-12 1.4228e-11 0 0 0 0)
(1.54499e-12 7.97272e-12 0 2.98156e-13 -3.06939e-12 0 0 0 0)
(-3.79471e-13 -1.6815e-12 0 -1.0842e-13 7.17949e-13 0 0 0 0)
(5.42101e-14 4.02771e-13 0 -5.42101e-14 -1.60263e-13 0 0 0 0)
(0 -8.90217e-14 0 -5.42101e-14 3.4549e-14 0 0 0 0)
(0 8.78583e-15 0 -5.42101e-14 -7.14225e-15 0 0 0 0)
(0 -1.77689e-14 0 -5.42101e-14 1.67405e-14 0 0 0 0)
(-2.71051e-14 4.15109e-15 0 -2.71051e-14 2.64044e-14 0 0 0 0)
(0 1.85864e-15 0 -2.71051e-14 -7.87477e-16 0 0 0 0)
(2.71051e-14 -1.89743e-14 0 -5.42101e-14 4.22546e-15 0 0 0 0)
(-5.42101e-14 -3.95893e-15 0 -8.13152e-14 2.84752e-14 0 0 0 0)
(-8.13152e-14 2.15499e-14 0 -5.42101e-14 2.36067e-14 0 0 0 0)
(0 1.55212e-14 0 -2.71051e-14 4.22793e-15 0 0 0 0)
(5.42101e-14 -7.29337e-15 0 -5.42101e-14 6.74746e-15 0 0 0 0)
(-2.71051e-14 -1.06028e-14 0 -5.42101e-14 2.20857e-14 0 0 0 0)
(-2.71051e-14 1.22372e-15 0 -2.71051e-14 1.4609e-14 0 0 0 0)
(0 4.46543e-15 0 -5.42101e-14 1.02818e-14 0 0 0 0)
(-2.71051e-14 3.0082e-15 0 -2.71051e-14 1.33695e-14 0 0 0 0)
(2.71051e-14 2.28709e-15 0 -2.71051e-14 1.15534e-14 0 0 0 0)
(-5.42101e-14 6.90689e-15 0 -2.71051e-14 8.99221e-15 0 0 0 0)
)
;

boundaryField
{
    movingWall
    {
        type            extrapolatedCalculated;
        value           nonuniform List<tensor> 
20
(
(-1.02999e-12 -6.61613e-12 0 6.03961e-12 3.35663e-11 0 0 0 0)
(1.54499e-12 7.97272e-12 0 -1.86517e-12 -7.10178e-12 0 0 0 0)
(-3.79471e-13 -1.6815e-12 0 -2.22045e-13 1.6754e-12 0 0 0 0)
(5.42101e-14 4.02771e-13 0 -3.55271e-13 -3.75769e-13 0 0 0 0)
(0 -8.90217e-14 0 -3.55271e-13 6.43209e-14 0 0 0 0)
(0 8.78583e-15 0 -3.9968e-13 -1.96818e-14 0 0 0 0)
(0 -1.77689e-14 0 -3.9968e-13 2.91775e-14 0 0 0 0)
(-2.71051e-14 4.15109e-15 0 -3.55271e-13 5.13939e-14 0 0 0 0)
(0 1.85864e-15 0 -2.66454e-13 1.25731e-14 0 0 0 0)
(2.71051e-14 -1.89743e-14 0 -3.55271e-13 4.39594e-14 0 0 0 0)
(-5.42101e-14 -3.95893e-15 0 -3.10862e-13 8.84703e-14 0 0 0 0)
(-8.13152e-14 2.15499e-14 0 -1.77636e-13 5.97951e-14 0 0 0 0)
(0 1.55212e-14 0 -4.44089e-14 2.27051e-15 0 0 0 0)
(5.42101e-14 -7.29337e-15 0 -2.22045e-13 -2.28972e-15 0 0 0 0)
(-2.71051e-14 -1.06028e-14 0 -2.22045e-13 3.1444e-14 0 0 0 0)
(-2.71051e-14 1.22372e-15 0 -1.77636e-13 4.01213e-14 0 0 0 0)
(0 4.46543e-15 0 -1.33227e-13 2.65491e-14 0 0 0 0)
(-2.71051e-14 3.0082e-15 0 -4.44089e-14 2.22596e-14 0 0 0 0)
(2.71051e-14 2.28709e-15 0 -4.44089e-14 1.45163e-14 0 0 0 0)
(-5.42101e-14 6.90689e-15 0 -8.88178e-14 1.31113e-14 0 0 0 0)
)
;
    }
    fixedWalls
    {
        type            extrapolatedCalculated;
        value           nonuniform List<tensor> 
60
(
(-6.30607e-12 7.04048e-11 0 1.24683e-12 1.65301e-11 0 0 0 0)
(1.12799e-11 -4.2844e-12 0 2.43945e-13 -3.12745e-11 0 0 0 0)
(-5.32907e-12 -5.46933e-11 0 -4.47233e-12 1.5359e-11 0 0 0 0)
(-6.57252e-12 5.71517e-11 0 4.52654e-12 9.95449e-12 0 0 0 0)
(1.27898e-11 -1.48754e-11 0 -1.00289e-12 -2.48628e-11 0 0 0 0)
(-1.06581e-11 -4.22995e-11 0 -2.1413e-12 2.07398e-11 0 0 0 0)
(4.30767e-12 6.80837e-11 0 3.49655e-12 3.0246e-12 0 0 0 0)
(3.28626e-12 -3.02011e-11 0 -2.19551e-12 -2.36243e-11 0 0 0 0)
(-4.61853e-12 -2.64137e-11 0 -6.77626e-13 2.12658e-11 0 0 0 0)
(7.10543e-13 5.4862e-11 0 7.04731e-13 -6.83079e-12 0 0 0 0)
(-1.86517e-12 -5.37369e-11 0 5.42101e-13 -3.57351e-12 0 0 0 0)
(2.93099e-12 4.0568e-11 0 1.6263e-13 1.09176e-11 0 0 0 0)
(-1.15463e-12 -1.00663e-11 0 -1.68051e-12 -1.86746e-11 0 0 0 0)
(-3.73035e-12 -3.41303e-11 0 5.42101e-14 1.90803e-11 0 0 0 0)
(-1.15463e-12 6.62549e-11 0 3.2255e-12 -2.91426e-12 0 0 0 0)
(9.32587e-12 -4.57873e-11 0 -3.06287e-12 -1.85662e-11 0 0 0 0)
(-1.35003e-11 -8.00998e-12 0 -1.49078e-12 2.43294e-11 0 0 0 0)
(3.37508e-12 5.15302e-11 0 6.26127e-12 -3.83395e-12 0 0 0 0)
(1.15907e-11 -2.33458e-11 0 -2.35814e-12 -2.12741e-11 0 0 0 0)
(-6.03961e-12 -3.35663e-11 0 -1.38236e-12 1.4228e-11 0 0 0 0)
(0 -7.18973e-15 0 0 -1.96138e-15 0 0 0 0)
(8.88178e-14 1.50352e-14 0 -5.42101e-14 -1.85413e-14 0 0 0 0)
(8.88178e-14 6.69753e-14 0 5.42101e-14 -1.02365e-14 0 0 0 0)
(-1.33227e-13 5.59811e-14 0 5.42101e-14 7.96048e-15 0 0 0 0)
(0 3.51334e-14 0 -5.42101e-14 9.73419e-15 0 0 0 0)
(0 1.70443e-14 0 0 1.17188e-14 0 0 0 0)
(0 -1.1742e-14 0 0 3.91241e-15 0 0 0 0)
(0 1.39466e-15 0 0 -5.64575e-15 0 0 0 0)
(-4.44089e-14 1.08411e-14 0 2.71051e-14 2.90185e-16 0 0 0 0)
(0 2.33917e-16 0 -2.71051e-14 3.21813e-15 0 0 0 0)
(-4.44089e-14 -2.03148e-15 0 2.71051e-14 6.96146e-15 0 0 0 0)
(-4.44089e-14 -2.76119e-14 0 -2.71051e-14 -5.26563e-16 0 0 0 0)
(8.88178e-14 7.47689e-17 0 0 -1.50547e-14 0 0 0 0)
(-4.44089e-14 3.26067e-14 0 2.71051e-14 -1.27449e-15 0 0 0 0)
(0 5.17274e-15 0 -2.71051e-14 1.06234e-14 0 0 0 0)
(-4.44089e-14 -9.88671e-15 0 0 5.0888e-15 0 0 0 0)
(0 -1.51825e-14 0 0 -4.21802e-15 0 0 0 0)
(-4.44089e-14 6.98537e-15 0 0 -9.51001e-15 0 0 0 0)
(0 2.28576e-14 0 2.71051e-14 -1.53147e-15 0 0 0 0)
(-8.88178e-14 1.31113e-14 0 -2.71051e-14 8.99221e-15 0 0 0 0)
(-1.0571e-12 1.3776e-11 0 -6.30607e-12 7.04048e-11 0 0 0 0)
(1.5992e-12 -1.67022e-11 0 2.13163e-12 -1.53008e-11 0 0 0 0)
(-4.87891e-13 3.63261e-12 0 4.44089e-14 3.59583e-12 0 0 0 0)
(5.42101e-14 -8.44411e-13 0 2.22045e-13 -7.70354e-13 0 0 0 0)
(-2.71051e-14 1.92787e-13 0 2.22045e-13 2.18186e-13 0 0 0 0)
(0 -4.08594e-14 0 1.77636e-13 7.93128e-16 0 0 0 0)
(-2.71051e-14 8.10464e-15 0 1.33227e-13 5.47485e-14 0 0 0 0)
(0 -1.12658e-14 0 8.88178e-14 3.32117e-14 0 0 0 0)
(0 -1.22461e-14 0 1.33227e-13 9.68528e-15 0 0 0 0)
(0 -3.17045e-15 0 8.88178e-14 -1.57728e-14 0 0 0 0)
(0 9.18513e-15 0 1.77636e-13 -2.99653e-15 0 0 0 0)
(0 4.49302e-15 0 8.88178e-14 2.09677e-14 0 0 0 0)
(0 -4.14656e-15 0 1.77636e-13 1.49755e-14 0 0 0 0)
(0 2.45848e-15 0 8.88178e-14 4.38143e-15 0 0 0 0)
(-2.71051e-14 9.72576e-15 0 8.88178e-14 2.48095e-14 0 0 0 0)
(-2.71051e-14 6.35725e-15 0 0 4.32845e-14 0 0 0 0)
(0 -7.94529e-15 0 0 5.02384e-14 0 0 0 0)
(-5.42101e-14 -1.57754e-14 0 -8.88178e-14 1.15033e-14 0 0 0 0)
(5.42101e-14 -1.0784e-15 0 0 -1.2863e-14 0 0 0 0)
(0 1.41833e-15 0 0 7.18973e-15 0 0 0 0)
)
;
    }
    frontAndBack
    {
        type            empty;
    }
}


// ************************************************************************* //
