/*--------------------------------*- C++ -*----------------------------------*\
| =========                 |                                                 |
| \\      /  F ield         | OpenFOAM: The Open Source CFD Toolbox           |
|  \\    /   O peration     | Version:  2312                                  |
|   \\  /    A nd           | Website:  www.openfoam.com                      |
|    \\/     M anipulation  |                                                 |
\*---------------------------------------------------------------------------*/
FoamFile
{
    version     2.0;
    format      ascii;
    arch        "LSB;label=32;scalar=64";
    class       volVectorField;
    location    "7.5";
    object      gradPhi;
}
// * * * * * * * * * * * * * * * * * * * * * * * * * * * * * * * * * * * * * //

dimensions      [0 2 -1 0 0 0 0];

internalField   nonuniform List<vector> 
400
(
(-0.02 8.76757e-17 0)
(1.38966e-16 -1.40061e-16 0)
(-4.1359e-17 4.23243e-17 0)
(6.61744e-18 -6.60159e-18 0)
(-3.30872e-18 2.09874e-18 0)
(0 1.91792e-19 0)
(-1.65436e-18 1.27145e-18 0)
(0 4.04486e-19 0)
(0 5.80307e-19 0)
(0 -3.47647e-19 0)
(0 -6.41792e-19 0)
(0 5.2471e-21 0)
(0 1.03716e-19 0)
(0 3.49534e-19 0)
(-1.65436e-18 9.54449e-19 0)
(0 1.0619e-18 0)
(-1.65436e-18 1.38483e-18 0)
(0 2.43832e-19 0)
(1.65436e-18 -1.19815e-18 0)
(0 5.92275e-19 0)
(-0.02 -1.78346e-16 0)
(-2.56426e-16 2.56857e-16 0)
(8.10637e-17 -8.03685e-17 0)
(-1.32349e-17 1.14698e-17 0)
(4.96308e-18 -3.5086e-18 0)
(-1.65436e-18 -1.14977e-19 0)
(1.65436e-18 -9.22733e-19 0)
(-1.65436e-18 2.49406e-19 0)
(1.65436e-18 -1.29412e-18 0)
(1.65436e-18 6.91545e-20 0)
(0 5.55703e-19 0)
(0 1.24015e-19 0)
(0 -6.41676e-19 0)
(0 6.13232e-19 0)
(0 -4.88231e-19 0)
(1.65436e-18 -6.5605e-19 0)
(0 -1.15831e-18 0)
(0 -1.45336e-18 0)
(0 -6.02105e-19 0)
(1.65436e-18 -1.53662e-18 0)
(-0.02 8.78234e-17 0)
(1.15805e-16 -1.15478e-16 0)
(-3.80503e-17 3.72904e-17 0)
(6.61744e-18 -6.0032e-18 0)
(0 4.92183e-19 0)
(-1.65436e-18 7.27963e-19 0)
(0 -4.23821e-20 0)
(1.65436e-18 -8.52384e-19 0)
(-1.65436e-18 4.29658e-19 0)
(1.65436e-18 -1.53609e-19 0)
(0 -1.17636e-19 0)
(0 -3.38591e-21 0)
(-1.65436e-18 5.0005e-19 0)
(1.65436e-18 -1.96415e-18 0)
(1.65436e-18 -1.19473e-18 0)
(0 -6.27656e-20 0)
(0 -1.21936e-18 0)
(0 -7.55235e-19 0)
(0 -6.95949e-19 0)
(1.65436e-18 -1.80911e-18 0)
(-0.02 7.54801e-17 0)
(9.76073e-17 -9.77088e-17 0)
(-2.64698e-17 2.72306e-17 0)
(4.96308e-18 -4.44868e-18 0)
(-1.65436e-18 1.09719e-18 0)
(1.65436e-18 -9.84949e-19 0)
(0 7.95001e-20 0)
(1.65436e-18 1.31056e-19 0)
(0 -2.81826e-19 0)
(0 4.20894e-19 0)
(0 2.31002e-19 0)
(0 -1.55291e-19 0)
(0 -3.58335e-19 0)
(-1.65436e-18 7.89648e-19 0)
(0 4.44301e-19 0)
(3.30872e-18 -2.25807e-18 0)
(0 6.20473e-20 0)
(-1.65436e-18 1.31693e-18 0)
(-1.65436e-18 7.48349e-19 0)
(-1.65436e-18 2.38527e-18 0)
(-0.02 -1.703e-16 0)
(-2.21684e-16 2.21601e-16 0)
(6.28657e-17 -6.28984e-17 0)
(-1.15805e-17 1.24692e-17 0)
(1.65436e-18 -1.08693e-18 0)
(0 4.66161e-19 0)
(-1.65436e-18 5.22458e-19 0)
(0 9.94318e-19 0)
(-1.65436e-18 8.26573e-19 0)
(0 5.29196e-19 0)
(0 1.11437e-19 0)
(1.65436e-18 -9.83098e-19 0)
(0 -5.22421e-21 0)
(0 1.03957e-19 0)
(-1.65436e-18 3.30337e-19 0)
(-1.65436e-18 1.2221e-18 0)
(0 1.21901e-19 0)
(0 -1.87046e-19 0)
(0 3.64581e-19 0)
(1.65436e-18 -9.31182e-19 0)
(-0.02 1.44559e-16 0)
(1.9356e-16 -1.9417e-16 0)
(-5.29396e-17 5.47052e-17 0)
(8.27181e-18 -8.31565e-18 0)
(-3.30872e-18 2.9693e-18 0)
(1.65436e-18 -6.47274e-19 0)
(0 -8.64885e-20 0)
(0 4.99298e-19 0)
(0 2.57531e-19 0)
(1.65436e-18 -1.09674e-18 0)
(0 -3.61546e-19 0)
(-1.65436e-18 1.39028e-18 0)
(-1.65436e-18 6.15711e-19 0)
(0 5.63201e-19 0)
(0 -2.65674e-19 0)
(0 3.53881e-19 0)
(0 -1.56708e-19 0)
(0 -9.47416e-19 0)
(0 2.46122e-19 0)
(-1.65436e-18 1.81104e-18 0)
(-0.02 -1.77488e-17 0)
(-9.92617e-18 1.06372e-17 0)
(-4.96308e-18 5.88138e-18 0)
(0 -1.46604e-18 0)
(1.65436e-18 -2.1702e-18 0)
(0 1.06037e-18 0)
(0 -1.34918e-18 0)
(3.30872e-18 -2.9827e-18 0)
(1.65436e-18 -6.69163e-19 0)
(-1.65436e-18 2.09574e-18 0)
(-3.30872e-18 2.46558e-18 0)
(-1.65436e-18 9.67891e-19 0)
(0 7.29315e-20 0)
(1.65436e-18 -3.31646e-19 0)
(-1.65436e-18 5.42727e-19 0)
(1.65436e-18 -8.15619e-19 0)
(-1.65436e-18 -1.00203e-19 0)
(0 1.72032e-18 0)
(-1.65436e-18 1.47629e-18 0)
(0 -3.5153e-19 0)
(-0.02 -1.02883e-16 0)
(-1.57164e-16 1.57994e-16 0)
(5.9557e-17 -5.94308e-17 0)
(-8.27181e-18 8.15671e-18 0)
(0 1.12525e-19 0)
(0 -7.23489e-21 0)
(0 3.09121e-19 0)
(0 1.09698e-18 0)
(-1.65436e-18 7.66064e-19 0)
(1.65436e-18 -1.00031e-19 0)
(0 -5.89234e-19 0)
(0 4.24881e-20 0)
(0 1.03625e-19 0)
(0 -1.41853e-18 0)
(3.30872e-18 -1.45523e-18 0)
(-1.65436e-18 1.42191e-18 0)
(0 9.10558e-19 0)
(0 -1.09589e-18 0)
(1.65436e-18 -4.48708e-19 0)
(0 -4.07067e-19 0)
(-0.02 9.69736e-17 0)
(1.43929e-16 -1.43418e-16 0)
(-5.29396e-17 5.2771e-17 0)
(9.92617e-18 -7.98468e-18 0)
(-1.65436e-18 8.74609e-19 0)
(1.65436e-18 -1.78123e-18 0)
(0 -1.22886e-19 0)
(-1.65436e-18 1.23064e-18 0)
(1.65436e-18 -2.72273e-19 0)
(0 -1.24696e-18 0)
(0 -6.47543e-19 0)
(0 -1.47858e-19 0)
(0 4.80396e-19 0)
(-3.30872e-18 1.93033e-18 0)
(0 9.9364e-19 0)
(0 -1.04084e-19 0)
(0 -4.40192e-19 0)
(0 2.09872e-19 0)
(0 -6.53021e-19 0)
(0 -6.83072e-20 0)
(-0.02 -1.95334e-17 0)
(-3.63959e-17 3.84513e-17 0)
(1.8198e-17 -1.72307e-17 0)
(-3.30872e-18 1.69494e-18 0)
(3.30872e-18 -3.40729e-18 0)
(1.65436e-18 -7.27223e-19 0)
(0 -7.98388e-19 0)
(0 3.57523e-19 0)
(0 1.70818e-19 0)
(0 -7.61424e-19 0)
(0 2.87559e-19 0)
(-1.65436e-18 1.91893e-18 0)
(-3.30872e-18 2.09573e-18 0)
(3.30872e-18 -9.64392e-19 0)
(1.65436e-18 -1.62183e-18 0)
(0 -3.90916e-19 0)
(0 4.5241e-19 0)
(0 7.40051e-19 0)
(-1.65436e-18 1.16647e-18 0)
(0 5.62212e-19 0)
(-0.02 -3.92968e-18 0)
(-8.27181e-18 8.89339e-18 0)
(6.61744e-18 -7.37781e-18 0)
(-1.65436e-18 1.21979e-18 0)
(-3.30872e-18 2.45185e-18 0)
(-1.65436e-18 1.5464e-18 0)
(0 9.60407e-19 0)
(1.65436e-18 -1.79868e-18 0)
(0 1.11825e-22 0)
(-1.65436e-18 1.89698e-18 0)
(0 -1.14174e-19 0)
(0 -1.57781e-18 0)
(3.30872e-18 -2.50085e-18 0)
(-1.65436e-18 9.50406e-19 0)
(-1.65436e-18 2.13119e-18 0)
(0 -7.74258e-19 0)
(3.30872e-18 -1.31955e-18 0)
(0 7.04016e-20 0)
(0 1.33594e-21 0)
(0 -3.86349e-19 0)
(-0.02 1.28539e-17 0)
(3.30872e-17 -3.19851e-17 0)
(-2.64698e-17 2.61947e-17 0)
(3.30872e-18 -2.25795e-18 0)
(-1.65436e-18 1.21083e-18 0)
(-1.65436e-18 1.81066e-18 0)
(-3.30872e-18 1.84962e-18 0)
(0 4.77895e-19 0)
(1.65436e-18 -1.46028e-18 0)
(1.65436e-18 -1.94697e-18 0)
(3.30872e-18 -2.83879e-18 0)
(3.30872e-18 -3.57816e-18 0)
(3.30872e-18 -1.28292e-18 0)
(-1.65436e-18 -4.40471e-21 0)
(0 -1.0139e-19 0)
(-1.65436e-18 6.31832e-19 0)
(0 9.8598e-19 0)
(1.65436e-18 -1.24677e-18 0)
(0 -8.8848e-19 0)
(-1.65436e-18 1.96982e-18 0)
(-0.02 -5.01802e-17 0)
(-9.42986e-17 9.55484e-17 0)
(4.46678e-17 -4.63985e-17 0)
(-8.27181e-18 7.04053e-18 0)
(1.65436e-18 -1.40199e-18 0)
(1.65436e-18 -1.37779e-18 0)
(4.96308e-18 -3.06002e-18 0)
(0 -1.11445e-18 0)
(0 5.44112e-19 0)
(0 -1.52099e-19 0)
(0 5.35319e-19 0)
(0 9.25226e-19 0)
(-1.65436e-18 1.99365e-18 0)
(-1.65436e-18 9.99628e-19 0)
(-1.65436e-18 8.45468e-19 0)
(0 3.6221e-19 0)
(1.65436e-18 -3.00265e-19 0)
(-1.65436e-18 1.6518e-18 0)
(0 -1.0009e-19 0)
(3.30872e-18 -3.76639e-18 0)
(-0.02 8.00608e-17 0)
(1.25731e-16 -1.26612e-16 0)
(-4.96308e-17 4.8171e-17 0)
(6.61744e-18 -6.26605e-18 0)
(0 1.93633e-18 0)
(0 -4.8111e-19 0)
(-1.65436e-18 7.21183e-19 0)
(0 4.77818e-19 0)
(0 -1.2468e-18 0)
(1.65436e-18 -8.57759e-19 0)
(0 -4.83439e-19 0)
(0 -1.21236e-19 0)
(0 -1.06815e-18 0)
(0 -1.00983e-18 0)
(0 -3.6856e-19 0)
(0 5.85027e-19 0)
(0 5.40215e-19 0)
(0 1.42322e-19 0)
(0 4.37821e-19 0)
(-1.65436e-18 1.82073e-18 0)
(-0.02 5.7255e-18 0)
(-9.92617e-18 1.01044e-17 0)
(8.27181e-18 -7.87935e-18 0)
(1.65436e-18 -2.83212e-18 0)
(3.30872e-18 -2.11485e-18 0)
(0 -1.59912e-19 0)
(0 -7.3051e-21 0)
(0 6.99085e-19 0)
(-1.65436e-18 1.55757e-18 0)
(0 1.486e-18 0)
(0 9.19342e-20 0)
(-1.65436e-18 2.2351e-19 0)
(1.65436e-18 -6.23552e-19 0)
(0 -1.25731e-18 0)
(3.30872e-18 -1.58837e-18 0)
(0 -1.55972e-18 0)
(0 1.37323e-18 0)
(0 -6.62655e-19 0)
(0 5.44603e-20 0)
(0 2.15311e-19 0)
(-0.02 -1.28872e-16 0)
(-1.6709e-16 1.68533e-16 0)
(4.79765e-17 -4.89304e-17 0)
(-8.27181e-18 9.21988e-18 0)
(0 -1.39763e-18 0)
(0 8.04628e-19 0)
(0 -1.46211e-19 0)
(0 1.1355e-19 0)
(0 3.67964e-19 0)
(0 5.72701e-19 0)
(-3.30872e-18 1.6306e-18 0)
(-1.65436e-18 1.74532e-18 0)
(0 8.65997e-19 0)
(0 2.72734e-19 0)
(0 -6.73505e-19 0)
(1.65436e-18 -1.34654e-18 0)
(1.65436e-18 -2.23367e-18 0)
(0 -4.39635e-19 0)
(1.65436e-18 -1.01938e-19 0)
(-1.65436e-18 4.86465e-19 0)
(-0.02 1.69619e-16 0)
(2.24993e-16 -2.25213e-16 0)
(-6.28657e-17 6.39744e-17 0)
(9.92617e-18 -1.14215e-17 0)
(-1.65436e-18 2.7852e-18 0)
(1.65436e-18 -1.8909e-18 0)
(0 1.42037e-18 0)
(-1.65436e-18 7.94679e-19 0)
(-1.65436e-18 6.47664e-19 0)
(-1.65436e-18 7.01318e-19 0)
(-1.65436e-18 2.01459e-18 0)
(1.65436e-18 -1.18896e-18 0)
(3.30872e-18 -2.48785e-18 0)
(0 -1.26091e-18 0)
(1.65436e-18 -3.84202e-19 0)
(0 3.80826e-19 0)
(0 -2.10986e-19 0)
(-1.65436e-18 5.94384e-19 0)
(0 1.54514e-19 0)
(0 -5.3555e-19 0)
(-0.02 -3.49283e-17 0)
(-4.30134e-17 4.17502e-17 0)
(9.92617e-18 -9.80718e-18 0)
(-3.30872e-18 2.22398e-18 0)
(1.65436e-18 -2.20566e-18 0)
(-1.65436e-18 1.02103e-18 0)
(0 -4.40169e-19 0)
(1.65436e-18 -6.12859e-19 0)
(0 -4.99334e-19 0)
(0 -8.03726e-20 0)
(1.65436e-18 -1.71013e-18 0)
(-1.65436e-18 -8.98461e-20 0)
(0 4.36315e-19 0)
(0 -4.14959e-19 0)
(0 5.86665e-19 0)
(-1.65436e-18 2.77722e-18 0)
(-1.65436e-18 1.68286e-18 0)
(0 -3.14168e-19 0)
(1.65436e-18 -1.26026e-18 0)
(0 -4.56876e-19 0)
(-0.02 -1.48024e-16 0)
(-1.96869e-16 1.97259e-16 0)
(5.45939e-17 -5.41356e-17 0)
(-1.15805e-17 1.10962e-17 0)
(0 6.52261e-19 0)
(0 1.06094e-18 0)
(0 -1.20438e-18 0)
(1.65436e-18 -2.0579e-18 0)
(0 -2.16526e-19 0)
(1.65436e-18 -1.53765e-18 0)
(3.30872e-18 -2.52044e-18 0)
(1.65436e-18 -1.29313e-18 0)
(-1.65436e-18 2.10652e-18 0)
(-3.30872e-18 2.69449e-18 0)
(0 1.44887e-19 0)
(3.30872e-18 -2.30851e-18 0)
(1.65436e-18 -9.38795e-19 0)
(0 -3.27295e-19 0)
(-1.65436e-18 9.48563e-19 0)
(0 -3.95382e-19 0)
(-0.02 9.39739e-17 0)
(1.32349e-16 -1.32984e-16 0)
(-3.63959e-17 3.59145e-17 0)
(6.61744e-18 -6.99352e-18 0)
(0 6.1212e-19 0)
(0 -5.17344e-19 0)
(0 1.04603e-18 0)
(0 1.89223e-18 0)
(0 -2.08065e-19 0)
(0 5.0929e-19 0)
(-3.30872e-18 2.101e-18 0)
(-1.65436e-18 1.79586e-18 0)
(0 -4.06074e-19 0)
(1.65436e-18 -6.41021e-19 0)
(-1.65436e-18 1.16806e-18 0)
(0 1.47963e-18 0)
(-1.65436e-18 5.64012e-19 0)
(0 7.39551e-19 0)
(-1.65436e-18 3.50196e-19 0)
(0 8.01237e-19 0)
)
;

boundaryField
{
    movingWall
    {
        type            extrapolatedCalculated;
        value           nonuniform List<vector> 
20
(
(-0.02 9.39739e-17 0)
(1.32349e-16 -1.32984e-16 0)
(-3.63959e-17 3.59145e-17 0)
(6.61744e-18 -6.99352e-18 0)
(0 6.1212e-19 0)
(0 -5.17344e-19 0)
(0 1.04603e-18 0)
(0 1.89223e-18 0)
(0 -2.08065e-19 0)
(0 5.0929e-19 0)
(-3.30872e-18 2.101e-18 0)
(-1.65436e-18 1.79586e-18 0)
(0 -4.06074e-19 0)
(1.65436e-18 -6.41021e-19 0)
(-1.65436e-18 1.16806e-18 0)
(0 1.47963e-18 0)
(-1.65436e-18 5.64012e-19 0)
(0 7.39551e-19 0)
(-1.65436e-18 3.50196e-19 0)
(0 8.01237e-19 0)
)
;
    }
    fixedWalls
    {
        type            extrapolatedCalculated;
        value           nonuniform List<vector> 
60
(
(-0.02 8.76757e-17 0)
(-0.02 -1.78346e-16 0)
(-0.02 8.78234e-17 0)
(-0.02 7.54801e-17 0)
(-0.02 -1.703e-16 0)
(-0.02 1.44559e-16 0)
(-0.02 -1.77488e-17 0)
(-0.02 -1.02883e-16 0)
(-0.02 9.69736e-17 0)
(-0.02 -1.95334e-17 0)
(-0.02 -3.92968e-18 0)
(-0.02 1.28539e-17 0)
(-0.02 -5.01802e-17 0)
(-0.02 8.00608e-17 0)
(-0.02 5.7255e-18 0)
(-0.02 -1.28872e-16 0)
(-0.02 1.69619e-16 0)
(-0.02 -3.49283e-17 0)
(-0.02 -1.48024e-16 0)
(-0.02 9.39739e-17 0)
(0 5.92275e-19 0)
(1.65436e-18 -1.53662e-18 0)
(1.65436e-18 -1.80911e-18 0)
(-1.65436e-18 2.38527e-18 0)
(1.65436e-18 -9.31182e-19 0)
(-1.65436e-18 1.81104e-18 0)
(0 -3.5153e-19 0)
(0 -4.07067e-19 0)
(0 -6.83072e-20 0)
(0 5.62212e-19 0)
(0 -3.86349e-19 0)
(-1.65436e-18 1.96982e-18 0)
(3.30872e-18 -3.76639e-18 0)
(-1.65436e-18 1.82073e-18 0)
(0 2.15311e-19 0)
(-1.65436e-18 4.86465e-19 0)
(0 -5.3555e-19 0)
(0 -4.56876e-19 0)
(0 -3.95382e-19 0)
(0 8.01237e-19 0)
(-0.02 8.76757e-17 0)
(1.38966e-16 -1.40061e-16 0)
(-4.1359e-17 4.23243e-17 0)
(6.61744e-18 -6.60159e-18 0)
(-3.30872e-18 2.09874e-18 0)
(0 1.91792e-19 0)
(-1.65436e-18 1.27145e-18 0)
(0 4.04486e-19 0)
(0 5.80307e-19 0)
(0 -3.47647e-19 0)
(0 -6.41792e-19 0)
(0 5.2471e-21 0)
(0 1.03716e-19 0)
(0 3.49534e-19 0)
(-1.65436e-18 9.54449e-19 0)
(0 1.0619e-18 0)
(-1.65436e-18 1.38483e-18 0)
(0 2.43832e-19 0)
(1.65436e-18 -1.19815e-18 0)
(0 5.92275e-19 0)
)
;
    }
    frontAndBack
    {
        type            empty;
    }
}


// ************************************************************************* //
