/*--------------------------------*- C++ -*----------------------------------*\
| =========                 |                                                 |
| \\      /  F ield         | OpenFOAM: The Open Source CFD Toolbox           |
|  \\    /   O peration     | Version:  2312                                  |
|   \\  /    A nd           | Website:  www.openfoam.com                      |
|    \\/     M anipulation  |                                                 |
\*---------------------------------------------------------------------------*/
FoamFile
{
    version     2.0;
    format      ascii;
    arch        "LSB;label=32;scalar=64";
    class       volScalarField;
    location    "7.5";
    object      initialResidual:k;
}
// * * * * * * * * * * * * * * * * * * * * * * * * * * * * * * * * * * * * * //

dimensions      [0 0 0 0 0 0 0];

internalField   nonuniform List<scalar> 
400
(
-4.14189e-13
-4.14233e-13
-4.1423e-13
-4.14229e-13
-4.14216e-13
-4.14221e-13
-4.14236e-13
-4.14191e-13
-4.14261e-13
-4.14179e-13
-4.14235e-13
-4.14199e-13
-4.1423e-13
-4.14208e-13
-4.14213e-13
-4.14216e-13
-4.14216e-13
-4.14216e-13
-4.14216e-13
-4.14216e-13
-4.36935e-13
-4.38128e-13
-4.36644e-13
-4.36598e-13
-4.37433e-13
-4.36979e-13
-4.37255e-13
-4.37084e-13
-4.37249e-13
-4.36853e-13
-4.36883e-13
-4.36983e-13
-4.37024e-13
-4.36946e-13
-4.37072e-13
-4.36959e-13
-4.37053e-13
-4.3705e-13
-4.36958e-13
-4.36973e-13
-4.70226e-13
-4.71393e-13
-4.69706e-13
-4.69609e-13
-4.70584e-13
-4.69859e-13
-4.70366e-13
-4.69918e-13
-4.70426e-13
-4.69888e-13
-4.70737e-13
-4.69591e-13
-4.70696e-13
-4.69607e-13
-4.70435e-13
-4.69826e-13
-4.70208e-13
-4.70011e-13
-4.70105e-13
-4.70082e-13
-5.00917e-13
-5.00377e-13
-5.01468e-13
-5.00824e-13
-5.01098e-13
-5.00484e-13
-5.01145e-13
-5.00546e-13
-5.01029e-13
-5.00684e-13
-5.01163e-13
-5.00496e-13
-5.01284e-13
-5.00306e-13
-5.0105e-13
-5.0048e-13
-5.00859e-13
-5.00643e-13
-5.00743e-13
-5.0072e-13
-5.23056e-13
-5.2464e-13
-5.22644e-13
-5.22469e-13
-5.23754e-13
-5.22884e-13
-5.23505e-13
-5.22989e-13
-5.24004e-13
-5.22438e-13
-5.24275e-13
-5.22188e-13
-5.24117e-13
-5.22182e-13
-5.23891e-13
-5.22365e-13
-5.23358e-13
-5.22827e-13
-5.23066e-13
-5.23085e-13
-5.37423e-13
-5.38444e-13
-5.36963e-13
-5.36988e-13
-5.37758e-13
-5.37088e-13
-5.37639e-13
-5.36997e-13
-5.37594e-13
-5.37126e-13
-5.37836e-13
-5.36894e-13
-5.37924e-13
-5.36778e-13
-5.37679e-13
-5.3697e-13
-5.37422e-13
-5.37175e-13
-5.37289e-13
-5.37263e-13
-5.45699e-13
-5.4635e-13
-5.45675e-13
-5.45845e-13
-5.45898e-13
-5.45539e-13
-5.46306e-13
-5.45295e-13
-5.45768e-13
-5.45699e-13
-5.45657e-13
-5.45626e-13
-5.45737e-13
-5.45569e-13
-5.45759e-13
-5.45601e-13
-5.45736e-13
-5.45719e-13
-5.45614e-13
-5.45619e-13
-5.50137e-13
-5.54297e-13
-5.48176e-13
-5.50792e-13
-5.50374e-13
-5.50514e-13
-5.50815e-13
-5.50463e-13
-5.50833e-13
-5.50486e-13
-5.50785e-13
-5.505e-13
-5.50753e-13
-5.50394e-13
-5.50494e-13
-5.50366e-13
-5.50693e-13
-5.50632e-13
-5.50577e-13
-5.50522e-13
-5.53938e-13
-5.51867e-13
-5.55581e-13
-5.53552e-13
-5.53837e-13
-5.53696e-13
-5.53797e-13
-5.53663e-13
-5.53787e-13
-5.53775e-13
-5.53867e-13
-5.53437e-13
-5.53889e-13
-5.53546e-13
-5.5374e-13
-5.53612e-13
-5.53679e-13
-5.53643e-13
-5.53643e-13
-5.53616e-13
-5.56156e-13
-5.55067e-13
-5.57015e-13
-5.55951e-13
-5.56209e-13
-5.56097e-13
-5.56163e-13
-5.55852e-13
-5.56333e-13
-5.55541e-13
-5.56108e-13
-5.55838e-13
-5.55925e-13
-5.55889e-13
-5.55978e-13
-5.55869e-13
-5.55944e-13
-5.55966e-13
-5.55828e-13
-5.5587e-13
-5.57946e-13
-5.59181e-13
-5.57523e-13
-5.57273e-13
-5.58441e-13
-5.57692e-13
-5.58192e-13
-5.58097e-13
-5.58006e-13
-5.57662e-13
-5.57972e-13
-5.57757e-13
-5.57818e-13
-5.57814e-13
-5.57918e-13
-5.57794e-13
-5.57891e-13
-5.57903e-13
-5.57762e-13
-5.57802e-13
-5.59941e-13
-5.59797e-13
-5.60203e-13
-5.59604e-13
-5.6019e-13
-5.5976e-13
-5.60054e-13
-5.59729e-13
-5.601e-13
-5.59422e-13
-5.59799e-13
-5.59703e-13
-5.59731e-13
-5.59699e-13
-5.59808e-13
-5.59681e-13
-5.59779e-13
-5.5979e-13
-5.59648e-13
-5.59688e-13
-5.61761e-13
-5.63041e-13
-5.6144e-13
-5.61082e-13
-5.62349e-13
-5.61701e-13
-5.62058e-13
-5.61838e-13
-5.61961e-13
-5.61732e-13
-5.61823e-13
-5.61583e-13
-5.61666e-13
-5.61684e-13
-5.61797e-13
-5.61666e-13
-5.61777e-13
-5.61785e-13
-5.61642e-13
-5.61681e-13
-5.64173e-13
-5.64538e-13
-5.64062e-13
-5.6356e-13
-5.64434e-13
-5.63738e-13
-5.64288e-13
-5.63703e-13
-5.64206e-13
-5.6375e-13
-5.64479e-13
-5.63512e-13
-5.64536e-13
-5.63403e-13
-5.64303e-13
-5.63575e-13
-5.64061e-13
-5.63774e-13
-5.63904e-13
-5.63881e-13
-5.66617e-13
-5.66195e-13
-5.67112e-13
-5.66292e-13
-5.66868e-13
-5.66262e-13
-5.66786e-13
-5.66474e-13
-5.66652e-13
-5.66085e-13
-5.66703e-13
-5.66341e-13
-5.66297e-13
-5.66445e-13
-5.66419e-13
-5.66382e-13
-5.66408e-13
-5.66449e-13
-5.66316e-13
-5.66355e-13
-5.69294e-13
-5.70349e-13
-5.6897e-13
-5.68547e-13
-5.69802e-13
-5.69105e-13
-5.69527e-13
-5.69264e-13
-5.69376e-13
-5.69132e-13
-5.69244e-13
-5.69057e-13
-5.69099e-13
-5.69129e-13
-5.69237e-13
-5.69105e-13
-5.69216e-13
-5.69224e-13
-5.69079e-13
-5.69118e-13
-5.72429e-13
-5.70216e-13
-5.74197e-13
-5.71882e-13
-5.7237e-13
-5.7214e-13
-5.72216e-13
-5.72146e-13
-5.72188e-13
-5.72181e-13
-5.72215e-13
-5.72225e-13
-5.72275e-13
-5.72112e-13
-5.72236e-13
-5.72117e-13
-5.72097e-13
-5.72109e-13
-5.72057e-13
-5.7208e-13
-5.75269e-13
-5.75427e-13
-5.75322e-13
-5.74726e-13
-5.75529e-13
-5.74979e-13
-5.75345e-13
-5.75151e-13
-5.75291e-13
-5.74722e-13
-5.7515e-13
-5.74958e-13
-5.75004e-13
-5.74994e-13
-5.75095e-13
-5.74971e-13
-5.75069e-13
-5.75083e-13
-5.74934e-13
-5.74977e-13
-5.77622e-13
-5.78318e-13
-5.77446e-13
-5.76874e-13
-5.78021e-13
-5.77176e-13
-5.77828e-13
-5.77142e-13
-5.78315e-13
-5.76611e-13
-5.78637e-13
-5.76314e-13
-5.78486e-13
-5.76427e-13
-5.78054e-13
-5.76802e-13
-5.77617e-13
-5.77188e-13
-5.77375e-13
-5.77364e-13
-5.78629e-13
-5.78921e-13
-5.7853e-13
-5.78937e-13
-5.78563e-13
-5.78799e-13
-5.78687e-13
-5.78728e-13
-5.78768e-13
-5.78713e-13
-5.78774e-13
-5.78697e-13
-5.78758e-13
-5.78713e-13
-5.78734e-13
-5.78729e-13
-5.78732e-13
-5.78731e-13
-5.78732e-13
-5.78732e-13
)
;

boundaryField
{
    movingWall
    {
        type            zeroGradient;
    }
    fixedWalls
    {
        type            zeroGradient;
    }
    frontAndBack
    {
        type            empty;
    }
}


// ************************************************************************* //
