/*--------------------------------*- C++ -*----------------------------------*\
| =========                 |                                                 |
| \\      /  F ield         | OpenFOAM: The Open Source CFD Toolbox           |
|  \\    /   O peration     | Version:  2312                                  |
|   \\  /    A nd           | Website:  www.openfoam.com                      |
|    \\/     M anipulation  |                                                 |
\*---------------------------------------------------------------------------*/
FoamFile
{
    version     2.0;
    format      ascii;
    arch        "LSB;label=32;scalar=64";
    class       volScalarField;
    location    "7.5";
    object      initialResidual:Uy;
}
// * * * * * * * * * * * * * * * * * * * * * * * * * * * * * * * * * * * * * //

dimensions      [0 0 0 0 0 0 0];

internalField   nonuniform List<scalar> 
400
(
2.06461e-20
1.31969e-21
6.91262e-22
6.81038e-21
-7.47073e-22
-2.45584e-21
-1.42529e-22
1.33814e-21
-2.1103e-21
-2.37923e-21
-4.81627e-21
3.29251e-21
1.2797e-21
4.03011e-22
1.52955e-21
1.59482e-21
-2.52907e-22
-4.55362e-22
2.06683e-21
2.92935e-22
1.6598e-20
1.48497e-20
2.4502e-22
7.36124e-21
4.76294e-21
-4.92571e-21
-4.40049e-21
-1.2663e-21
2.52878e-22
-2.96948e-22
-3.3601e-22
4.13041e-22
4.12477e-21
2.92815e-21
-5.09954e-21
-2.09123e-21
4.03589e-21
3.25795e-21
-2.15119e-21
-7.02487e-22
1.50213e-20
2.6224e-21
5.22676e-21
4.5068e-21
8.02449e-21
-8.66045e-22
-7.35296e-21
-7.12763e-21
5.52877e-22
2.05779e-21
6.93891e-21
-3.74521e-21
-1.70686e-21
9.65597e-22
-1.91496e-21
-2.81811e-21
-2.23527e-21
-2.59055e-21
-1.42119e-21
6.30692e-22
3.80723e-20
-7.93471e-21
1.318e-20
2.44593e-21
-1.04058e-21
2.83021e-21
-2.95505e-21
-4.46433e-21
-2.65798e-21
-9.42117e-22
3.06944e-21
-6.49684e-22
-7.48298e-21
-8.13921e-21
-2.44783e-25
-1.20123e-22
-5.16712e-21
-5.48151e-21
9.97784e-22
1.45738e-21
1.51183e-20
1.09342e-20
1.20179e-20
2.03956e-22
-3.42886e-21
3.59111e-21
2.60303e-21
6.77511e-22
-2.75747e-22
-1.14652e-21
-5.36209e-21
-7.83846e-21
-4.05732e-21
-5.31911e-21
-9.80938e-21
-3.71884e-21
5.06807e-21
1.18742e-21
-4.00832e-21
-3.71728e-22
-1.11801e-20
1.6744e-20
3.97133e-21
7.24805e-21
2.13844e-21
3.85379e-21
4.33714e-21
1.63069e-21
-1.9488e-21
-2.85199e-21
-7.90879e-21
-1.06909e-20
-3.61379e-21
2.20287e-21
-4.78073e-21
-8.20692e-21
-6.61405e-22
9.65051e-22
-9.75834e-22
-7.26031e-22
3.25775e-20
-2.3182e-21
8.27522e-21
1.04905e-20
3.78668e-21
-1.88435e-21
-2.05236e-21
2.89495e-21
2.18608e-21
5.05777e-21
-5.8806e-21
-1.13406e-20
-6.82763e-21
5.06753e-21
-1.3423e-21
-9.7511e-21
-5.98721e-21
-1.61257e-21
-2.21019e-22
4.26268e-22
1.13125e-20
6.36752e-21
8.19966e-21
9.15748e-21
8.42346e-21
-3.99354e-23
-3.0781e-21
-1.03148e-21
1.1533e-21
3.8913e-21
-5.13038e-23
-2.18691e-21
-6.35203e-21
-3.1471e-21
-2.59398e-21
-2.43559e-21
-4.91542e-21
-6.48077e-21
-4.64364e-21
1.79528e-21
-9.98495e-21
2.04797e-20
-1.21375e-21
3.39123e-21
8.75418e-21
3.05952e-21
-1.22403e-21
-3.36084e-21
-2.68e-21
-6.75409e-21
3.22948e-21
8.54919e-21
-2.86312e-21
-8.12549e-21
6.6733e-22
1.35535e-22
-6.29801e-21
-4.93923e-21
-2.96052e-21
2.18809e-21
3.4773e-20
-3.99284e-21
2.01365e-21
-4.99675e-21
-9.7297e-22
3.235e-21
4.66275e-21
1.97759e-22
-4.87044e-21
-5.7339e-21
6.89575e-21
1.06995e-20
-4.00929e-23
-1.0403e-20
-2.68759e-21
1.97319e-21
-2.91114e-21
-1.15228e-21
4.6145e-21
2.91702e-21
-1.17563e-20
1.40533e-20
4.71389e-21
-2.3026e-21
-3.24516e-21
8.05821e-22
5.80519e-21
4.52719e-23
-1.74863e-21
1.59993e-21
1.17131e-20
1.09361e-20
1.35929e-21
-9.32394e-21
-6.14428e-21
1.0139e-21
3.68602e-21
3.89435e-21
6.71649e-21
1.6499e-21
-2.33971e-21
1.01539e-20
9.22019e-21
6.57472e-21
3.75162e-21
-7.66513e-22
-4.22667e-21
-3.90211e-21
2.16929e-21
4.97653e-21
9.13129e-22
2.05622e-21
7.35276e-21
9.29829e-21
5.1359e-22
-2.83506e-21
4.53106e-21
7.21569e-21
6.94137e-21
4.30029e-22
1.54219e-20
-7.08686e-21
5.10289e-21
5.49598e-21
5.3832e-21
2.14298e-21
-1.6744e-21
1.53038e-21
-1.56115e-22
5.48504e-22
-3.14415e-21
-1.14027e-21
9.59375e-21
1.46447e-20
8.51715e-21
2.99696e-21
4.01801e-22
-1.49339e-21
5.25817e-21
2.64231e-21
-1.99585e-20
1.47481e-20
-3.98497e-21
6.14909e-21
3.90836e-21
-2.62742e-21
-1.52549e-21
2.30541e-21
4.43467e-22
5.00602e-21
3.21833e-21
2.44052e-21
3.49624e-21
6.26905e-21
6.75943e-21
4.03921e-21
3.2904e-22
-3.0779e-21
-1.14246e-22
2.14648e-21
1.51102e-20
-5.76084e-21
-1.05908e-21
5.4894e-22
1.69037e-21
1.99328e-21
-1.63698e-21
3.10156e-22
4.9866e-21
1.48037e-21
2.70723e-21
9.57376e-21
6.40967e-21
-3.38754e-21
2.82204e-22
6.05164e-21
1.47794e-21
8.53431e-22
1.08097e-21
-4.10048e-22
2.52979e-20
-1.56794e-20
-2.62573e-22
-3.82203e-21
-1.69678e-21
4.73057e-21
2.99915e-21
4.7011e-21
1.10017e-20
7.41242e-21
2.91618e-21
3.92117e-21
4.75784e-21
-5.19855e-21
-6.5295e-21
4.4993e-21
6.56863e-21
3.07124e-21
3.9036e-21
7.38566e-22
-2.39757e-20
5.90884e-21
-3.24313e-21
4.22935e-21
2.18393e-21
2.45351e-21
7.75985e-21
7.0338e-21
2.02783e-21
8.79985e-21
2.6999e-21
-7.10937e-21
2.25573e-22
5.85133e-21
7.30655e-22
-3.57655e-21
7.26829e-21
6.68571e-21
1.32337e-21
1.19061e-21
9.41521e-21
-1.78332e-21
3.45469e-21
1.82314e-21
9.94635e-22
5.51135e-21
7.79847e-21
5.5456e-21
3.13686e-21
3.25178e-22
-7.78548e-22
-3.32763e-22
6.6946e-21
7.08458e-21
2.50042e-21
-2.08524e-21
4.51152e-21
2.28958e-21
5.02929e-22
6.91801e-22
1.92656e-20
-3.74696e-22
4.63108e-21
-5.34658e-22
2.40469e-21
6.50181e-21
3.92952e-22
-1.72158e-21
3.81174e-21
-1.69873e-21
-2.59402e-21
4.18203e-21
8.91517e-21
3.93733e-21
-1.16712e-21
1.66255e-21
2.70246e-21
-2.90702e-21
-8.98868e-22
8.42974e-22
-1.42947e-20
6.22354e-21
-8.75163e-22
9.98084e-22
4.62734e-21
3.50705e-21
-1.23157e-21
-2.10942e-21
-2.03001e-21
-4.2708e-21
-2.47221e-21
-2.24925e-22
3.39377e-21
3.77121e-21
3.26799e-21
8.65585e-22
-5.82226e-22
-1.96159e-21
-2.04805e-21
3.4232e-22
)
;

boundaryField
{
    movingWall
    {
        type            zeroGradient;
    }
    fixedWalls
    {
        type            zeroGradient;
    }
    frontAndBack
    {
        type            empty;
    }
}


// ************************************************************************* //
