/*--------------------------------*- C++ -*----------------------------------*\
| =========                 |                                                 |
| \\      /  F ield         | OpenFOAM: The Open Source CFD Toolbox           |
|  \\    /   O peration     | Version:  2312                                  |
|   \\  /    A nd           | Website:  www.openfoam.com                      |
|    \\/     M anipulation  |                                                 |
\*---------------------------------------------------------------------------*/
FoamFile
{
    version     2.0;
    format      ascii;
    arch        "LSB;label=32;scalar=64";
    class       volScalarField;
    location    "7.5";
    object      initialResidual:p;
}
// * * * * * * * * * * * * * * * * * * * * * * * * * * * * * * * * * * * * * //

dimensions      [0 0 0 0 0 0 0];

internalField   nonuniform List<scalar> 
400
(
8.13151e-20
-2.07658e-20
2.12367e-21
-1.83536e-21
-1.43767e-21
-1.00527e-20
-9.03272e-21
7.44561e-22
-1.18238e-22
5.82523e-21
-1.86829e-21
-5.34289e-21
-1.12193e-20
7.81148e-21
2.86245e-22
-1.33313e-20
-1.21301e-20
6.88589e-21
2.08237e-20
-1.34429e-26
3.38814e-20
-1.33069e-20
-1.07067e-20
1.65339e-21
1.05101e-20
3.46058e-21
-1.69965e-20
-1.57341e-20
7.33365e-22
1.27004e-21
1.6248e-20
1.34428e-20
-3.32493e-20
-3.37188e-23
-3.45969e-21
-1.54473e-21
-6.0056e-21
1.5134e-20
-8.50988e-21
-2.89967e-26
6.77633e-21
5.81392e-21
5.79123e-21
1.74371e-20
-2.65564e-20
-1.3793e-21
-4.47805e-21
-1.05048e-20
-9.13735e-22
9.71286e-22
1.10463e-21
-2.71975e-21
-1.79514e-20
1.06378e-20
-4.3163e-22
-8.2697e-22
-9.9227e-21
-4.17664e-21
2.67086e-22
6.77625e-21
1.35524e-20
-7.78087e-21
-6.4717e-21
-4.2058e-22
-8.64292e-21
8.23571e-21
6.18805e-21
5.03069e-21
5.42628e-21
-9.18771e-21
2.49566e-21
-2.49683e-20
2.27827e-21
-1.19885e-20
2.9963e-21
4.99603e-21
-1.07655e-21
6.24851e-21
6.43542e-21
-1.35525e-20
2.80643e-25
2.70054e-21
5.4307e-21
-1.05852e-20
1.46861e-20
-4.55831e-21
1.29818e-21
6.02924e-21
-9.32726e-21
-1.06713e-20
8.36287e-21
-1.43002e-20
-1.79052e-20
-9.36932e-21
1.86656e-21
-3.35287e-21
1.61049e-21
1.38504e-20
-7.88859e-21
6.77627e-21
-2.0329e-20
6.03916e-21
4.66153e-21
-8.89724e-21
1.62934e-20
7.78731e-21
1.19736e-21
-5.58574e-21
-8.77535e-21
2.49691e-21
-7.27426e-21
1.20696e-21
-2.13017e-21
-8.22907e-21
-1.10966e-20
9.39678e-21
1.15528e-20
-5.49112e-22
-6.20079e-22
-1.20571e-26
2.03289e-20
-1.53946e-20
8.02625e-21
7.31381e-21
1.5345e-20
-7.94672e-21
-8.43397e-21
7.35948e-21
1.93153e-21
9.20821e-21
-2.51472e-20
-6.49066e-22
1.42991e-21
4.65222e-22
-2.44615e-21
4.42736e-22
-1.07007e-20
1.12906e-20
5.98072e-21
-6.77626e-21
1.75548e-25
8.21977e-21
-2.34925e-21
-2.22307e-20
2.56117e-20
-1.31622e-20
1.27519e-20
-1.24414e-21
-1.49966e-20
-1.63564e-21
8.18415e-21
1.46738e-20
3.94733e-21
-1.83095e-20
-2.40533e-20
1.09552e-20
8.51773e-21
-4.10799e-21
-8.49267e-21
6.77626e-21
-2.67331e-26
1.22633e-20
2.38867e-22
-1.29838e-20
-1.07464e-20
8.14196e-21
-7.83567e-21
-2.418e-21
-1.83055e-21
-7.99326e-22
1.02208e-20
-3.62201e-21
2.79932e-21
-1.85312e-20
1.02702e-21
1.96357e-20
-2.97997e-21
-1.04607e-21
1.43457e-20
1.5686e-26
2.71423e-26
-4.6783e-21
1.00153e-21
-1.68262e-21
5.53722e-21
2.79929e-21
-3.2912e-21
2.66548e-22
-8.19183e-22
7.83059e-21
6.80279e-21
-1.0222e-20
-8.56674e-21
6.71685e-21
-1.69455e-20
-1.10202e-20
8.67531e-21
2.19063e-20
3.67914e-21
4.9211e-29
1.45114e-25
8.74839e-21
-9.76035e-21
1.46752e-20
8.16268e-21
-2.11191e-20
1.34451e-20
1.36728e-20
-1.13823e-20
-1.02153e-21
5.61417e-21
1.25395e-20
1.6419e-21
7.34746e-22
6.96536e-21
-1.3541e-20
3.93623e-21
1.27559e-20
1.04319e-20
-1.35525e-20
-2.71051e-20
-1.03718e-20
1.34106e-20
1.76823e-20
-1.24034e-20
-2.37379e-22
-1.41378e-21
-3.06667e-22
1.50346e-20
9.04689e-21
-1.83804e-20
-3.69235e-21
1.65654e-21
3.7687e-22
-1.08183e-20
-4.54815e-21
2.37241e-20
-3.00022e-21
4.1423e-21
7.94926e-27
-6.77598e-21
2.77823e-21
-5.2136e-21
1.10736e-20
-1.72411e-20
1.37894e-20
7.13013e-21
-5.24515e-21
2.07398e-21
-5.82491e-21
-5.689e-21
-3.21304e-21
-1.34745e-20
1.6012e-20
5.53205e-21
1.72536e-21
6.8917e-21
-2.21162e-20
-5.32501e-21
6.77628e-21
-6.77634e-21
-3.08042e-21
6.45698e-21
2.49722e-21
-1.19409e-20
6.86588e-21
6.32545e-21
1.683e-20
-1.25111e-20
4.61934e-21
4.62728e-21
-1.05342e-21
9.64451e-21
-1.28508e-20
-3.17659e-21
2.8315e-21
-6.74766e-21
7.49345e-21
-1.37776e-22
-6.77625e-21
6.77639e-21
-7.51985e-21
6.49921e-21
-1.23459e-21
-6.03529e-21
-3.98003e-21
3.11556e-21
9.90835e-21
1.57038e-20
-9.66909e-21
2.55243e-21
-1.58216e-20
2.96212e-21
5.08311e-21
-1.44806e-20
5.19607e-21
-1.10338e-20
-6.20749e-21
8.81354e-21
1.35526e-20
-6.77608e-21
5.41691e-21
2.02423e-20
-1.14845e-20
-1.19275e-20
4.60705e-21
5.54584e-21
1.95299e-20
-1.65849e-20
-1.45435e-21
9.16026e-21
-1.45047e-20
7.29488e-21
2.44829e-22
6.60514e-21
-1.957e-20
-7.90337e-22
2.41455e-20
8.06514e-21
-6.77624e-21
-1.35526e-20
-5.80243e-21
6.6568e-22
1.69708e-20
4.99098e-21
-1.54187e-20
5.76246e-21
5.23516e-21
1.66529e-20
-1.90357e-20
-6.49625e-21
-3.32792e-22
3.41881e-21
3.31972e-21
2.19708e-21
2.00727e-21
-3.33728e-21
1.01513e-20
3.46108e-22
-6.77624e-21
6.77635e-21
-1.89785e-20
3.17504e-20
1.41725e-21
2.06352e-21
-1.64197e-20
1.70742e-20
1.05942e-21
-4.78895e-21
-5.01331e-21
-5.67365e-21
4.85763e-21
6.52313e-21
1.06817e-20
3.5236e-22
-2.73399e-20
1.82689e-21
5.79123e-21
-5.79357e-21
6.77629e-21
-6.77606e-21
9.40707e-21
-5.80856e-21
-4.72946e-21
-1.0085e-20
1.03684e-20
-2.13982e-20
1.25575e-20
1.27878e-20
-3.01518e-21
1.3255e-20
2.22347e-21
-2.99497e-20
-1.78757e-20
9.68608e-22
1.47241e-20
1.1577e-22
-1.38202e-21
-1.38415e-21
2.07751e-26
-6.77633e-21
1.20557e-25
4.14916e-27
-6.77624e-21
1.68877e-26
-6.77625e-21
6.77628e-21
6.77628e-21
1.35525e-20
1.35525e-20
-6.77625e-21
-2.7105e-20
-1.35525e-20
1.39706e-26
-6.77625e-21
6.77628e-21
-6.77625e-21
6.77628e-21
6.77628e-21
4.47154e-27
)
;

boundaryField
{
    movingWall
    {
        type            zeroGradient;
    }
    fixedWalls
    {
        type            zeroGradient;
    }
    frontAndBack
    {
        type            empty;
    }
}


// ************************************************************************* //
