/*--------------------------------*- C++ -*----------------------------------*\
| =========                 |                                                 |
| \\      /  F ield         | OpenFOAM: The Open Source CFD Toolbox           |
|  \\    /   O peration     | Version:  2312                                  |
|   \\  /    A nd           | Website:  www.openfoam.com                      |
|    \\/     M anipulation  |                                                 |
\*---------------------------------------------------------------------------*/
FoamFile
{
    version     2.0;
    format      ascii;
    arch        "LSB;label=32;scalar=64";
    class       volScalarField;
    location    "7.5";
    object      initialResidual:epsilon;
}
// * * * * * * * * * * * * * * * * * * * * * * * * * * * * * * * * * * * * * //

dimensions      [0 0 0 0 0 0 0];

internalField   nonuniform List<scalar> 
400
(
0
0
0
0
0
0
0
0
0
0
0
0
0
0
0
0
0
0
0
0
0
-2.31645e-13
-2.32386e-13
-2.32169e-13
-2.32473e-13
-2.32467e-13
-2.33003e-13
-2.32848e-13
-2.33464e-13
-2.33306e-13
-2.33856e-13
-2.33826e-13
-2.34217e-13
-2.34369e-13
-2.34586e-13
-2.34914e-13
-2.34991e-13
-2.35442e-13
-4.706e-13
0
0
-2.53177e-13
-2.54174e-13
-2.5388e-13
-2.54237e-13
-2.54212e-13
-2.54829e-13
-2.54709e-13
-2.55312e-13
-2.55124e-13
-2.55859e-13
-2.55715e-13
-2.56233e-13
-2.56363e-13
-2.56621e-13
-2.56999e-13
-2.5706e-13
-2.57604e-13
-5.15351e-13
0
0
-2.74529e-13
-2.75649e-13
-2.75325e-13
-2.7572e-13
-2.75712e-13
-2.7636e-13
-2.76224e-13
-2.76908e-13
-2.76703e-13
-2.77508e-13
-2.77348e-13
-2.77926e-13
-2.78063e-13
-2.78353e-13
-2.78767e-13
-2.78838e-13
-2.79437e-13
-5.59014e-13
0
0
-2.90778e-13
-2.91988e-13
-2.9164e-13
-2.92063e-13
-2.92059e-13
-2.92751e-13
-2.92611e-13
-2.93341e-13
-2.93125e-13
-2.93986e-13
-2.93819e-13
-2.94437e-13
-2.94586e-13
-2.94899e-13
-2.95342e-13
-2.9542e-13
-2.96062e-13
-5.92271e-13
0
0
-3.01491e-13
-3.02732e-13
-3.02378e-13
-3.02823e-13
-3.02814e-13
-3.03547e-13
-3.034e-13
-3.04161e-13
-3.03937e-13
-3.04837e-13
-3.04664e-13
-3.0531e-13
-3.05468e-13
-3.05796e-13
-3.06259e-13
-3.06344e-13
-3.07012e-13
-6.14181e-13
0
0
-3.07994e-13
-3.09276e-13
-3.08913e-13
-3.0937e-13
-3.09353e-13
-3.10118e-13
-3.09968e-13
-3.10743e-13
-3.10515e-13
-3.11442e-13
-3.11264e-13
-3.11927e-13
-3.12089e-13
-3.12427e-13
-3.12903e-13
-3.12991e-13
-3.13677e-13
-6.27518e-13
0
0
-3.1189e-13
-3.13204e-13
-3.12831e-13
-3.13294e-13
-3.13277e-13
-3.14056e-13
-3.13908e-13
-3.14692e-13
-3.14459e-13
-3.15401e-13
-3.15222e-13
-3.15895e-13
-3.16062e-13
-3.16404e-13
-3.16887e-13
-3.16978e-13
-3.17675e-13
-6.35518e-13
0
0
-3.14391e-13
-3.15684e-13
-3.15322e-13
-3.15789e-13
-3.1577e-13
-3.16561e-13
-3.16412e-13
-3.17202e-13
-3.16968e-13
-3.17919e-13
-3.17739e-13
-3.18419e-13
-3.18587e-13
-3.18934e-13
-3.19421e-13
-3.19515e-13
-3.20216e-13
-6.40605e-13
0
0
-3.1619e-13
-3.17482e-13
-3.1712e-13
-3.17594e-13
-3.17572e-13
-3.18372e-13
-3.18221e-13
-3.19016e-13
-3.18779e-13
-3.19738e-13
-3.19558e-13
-3.20241e-13
-3.20412e-13
-3.2076e-13
-3.21252e-13
-3.21345e-13
-3.22053e-13
-6.44279e-13
0
0
-3.17688e-13
-3.19015e-13
-3.18641e-13
-3.19114e-13
-3.19093e-13
-3.19898e-13
-3.19751e-13
-3.20546e-13
-3.20309e-13
-3.21273e-13
-3.21092e-13
-3.21779e-13
-3.21951e-13
-3.22302e-13
-3.22797e-13
-3.2289e-13
-3.23603e-13
-6.47379e-13
0
0
-3.19153e-13
-3.20474e-13
-3.20103e-13
-3.20581e-13
-3.20557e-13
-3.2137e-13
-3.21221e-13
-3.2202e-13
-3.21782e-13
-3.22751e-13
-3.2257e-13
-3.2326e-13
-3.23434e-13
-3.23786e-13
-3.24284e-13
-3.24378e-13
-3.25094e-13
-6.50364e-13
0
0
-3.20671e-13
-3.22016e-13
-3.21639e-13
-3.22116e-13
-3.22093e-13
-3.22911e-13
-3.22765e-13
-3.23563e-13
-3.23326e-13
-3.24301e-13
-3.24119e-13
-3.24813e-13
-3.24988e-13
-3.25342e-13
-3.25843e-13
-3.25938e-13
-3.26658e-13
-6.53492e-13
0
0
-3.22365e-13
-3.23692e-13
-3.23321e-13
-3.23804e-13
-3.23779e-13
-3.24603e-13
-3.24457e-13
-3.25259e-13
-3.25022e-13
-3.26001e-13
-3.25822e-13
-3.26517e-13
-3.26695e-13
-3.27052e-13
-3.27554e-13
-3.27653e-13
-3.28374e-13
-6.56927e-13
0
0
-3.24235e-13
-3.25584e-13
-3.25207e-13
-3.25692e-13
-3.25668e-13
-3.26497e-13
-3.2635e-13
-3.2716e-13
-3.26918e-13
-3.27906e-13
-3.27725e-13
-3.28425e-13
-3.28605e-13
-3.28963e-13
-3.29471e-13
-3.29568e-13
-3.30296e-13
-6.60771e-13
0
0
-3.26325e-13
-3.27677e-13
-3.27299e-13
-3.27789e-13
-3.27767e-13
-3.286e-13
-3.28455e-13
-3.29269e-13
-3.29026e-13
-3.30021e-13
-3.29838e-13
-3.30544e-13
-3.30725e-13
-3.31087e-13
-3.31598e-13
-3.31697e-13
-3.3243e-13
-6.6504e-13
0
0
-3.28551e-13
-3.29904e-13
-3.2953e-13
-3.30022e-13
-3.30002e-13
-3.30838e-13
-3.30693e-13
-3.31516e-13
-3.31269e-13
-3.32273e-13
-3.32089e-13
-3.32802e-13
-3.32983e-13
-3.3335e-13
-3.33862e-13
-3.33966e-13
-3.34701e-13
-6.69585e-13
0
0
-3.30742e-13
-3.32054e-13
-3.31692e-13
-3.32195e-13
-3.32184e-13
-3.33001e-13
-3.32883e-13
-3.33708e-13
-3.33436e-13
-3.34465e-13
-3.34282e-13
-3.34989e-13
-3.35183e-13
-3.35544e-13
-3.36065e-13
-3.36168e-13
-3.36907e-13
-6.74002e-13
0
0
-3.33208e-13
-3.34821e-13
-3.34323e-13
-3.34817e-13
-3.34744e-13
-3.35651e-13
-3.35447e-13
-3.36326e-13
-3.35947e-13
-3.37087e-13
-3.36812e-13
-3.37567e-13
-3.37739e-13
-3.38088e-13
-3.38648e-13
-3.3869e-13
-3.39514e-13
-6.78372e-13
0
0
0
0
0
0
0
0
0
0
0
0
0
0
0
0
0
0
0
0
0
)
;

boundaryField
{
    movingWall
    {
        type            zeroGradient;
    }
    fixedWalls
    {
        type            zeroGradient;
    }
    frontAndBack
    {
        type            empty;
    }
}


// ************************************************************************* //
