/*--------------------------------*- C++ -*----------------------------------*\
| =========                 |                                                 |
| \\      /  F ield         | OpenFOAM: The Open Source CFD Toolbox           |
|  \\    /   O peration     | Version:  2312                                  |
|   \\  /    A nd           | Website:  www.openfoam.com                      |
|    \\/     M anipulation  |                                                 |
\*---------------------------------------------------------------------------*/
FoamFile
{
    version     2.0;
    format      ascii;
    arch        "LSB;label=32;scalar=64";
    class       volScalarField;
    location    "7.5";
    object      k;
}
// * * * * * * * * * * * * * * * * * * * * * * * * * * * * * * * * * * * * * //

dimensions      [0 2 -2 0 0 0 0];

internalField   nonuniform List<scalar> 
400
(
4.84181e-06
4.84181e-06
4.84181e-06
4.84181e-06
4.8418e-06
4.8418e-06
4.8418e-06
4.8418e-06
4.8418e-06
4.8418e-06
4.8418e-06
4.8418e-06
4.84179e-06
4.84179e-06
4.84179e-06
4.84179e-06
4.84179e-06
4.84179e-06
4.84179e-06
4.84179e-06
4.9657e-06
4.9657e-06
4.96552e-06
4.96545e-06
4.96532e-06
4.96525e-06
4.96514e-06
4.96508e-06
4.96499e-06
4.96494e-06
4.96487e-06
4.96483e-06
4.96477e-06
4.96475e-06
4.96469e-06
4.96468e-06
4.96465e-06
4.96464e-06
4.96463e-06
4.96463e-06
5.15506e-06
5.15506e-06
5.15485e-06
5.15478e-06
5.15463e-06
5.15456e-06
5.15445e-06
5.15437e-06
5.15429e-06
5.15422e-06
5.15416e-06
5.15409e-06
5.15405e-06
5.154e-06
5.15397e-06
5.15393e-06
5.15391e-06
5.1539e-06
5.15389e-06
5.15389e-06
5.34514e-06
5.34514e-06
5.3449e-06
5.34484e-06
5.34466e-06
5.34461e-06
5.34446e-06
5.34441e-06
5.34429e-06
5.34423e-06
5.34415e-06
5.34409e-06
5.34404e-06
5.34399e-06
5.34395e-06
5.34392e-06
5.3439e-06
5.34388e-06
5.34387e-06
5.34387e-06
5.49746e-06
5.49746e-06
5.49723e-06
5.49714e-06
5.49698e-06
5.49689e-06
5.49677e-06
5.49667e-06
5.49659e-06
5.4965e-06
5.49643e-06
5.49636e-06
5.4963e-06
5.49625e-06
5.49621e-06
5.49618e-06
5.49615e-06
5.49614e-06
5.49613e-06
5.49612e-06
5.60363e-06
5.60363e-06
5.60339e-06
5.6033e-06
5.60312e-06
5.60305e-06
5.60289e-06
5.60283e-06
5.60271e-06
5.60264e-06
5.60256e-06
5.60249e-06
5.60243e-06
5.60238e-06
5.60234e-06
5.6023e-06
5.60227e-06
5.60226e-06
5.60225e-06
5.60224e-06
5.67175e-06
5.67175e-06
5.67149e-06
5.6714e-06
5.67122e-06
5.67115e-06
5.67098e-06
5.67092e-06
5.67079e-06
5.67073e-06
5.67062e-06
5.67059e-06
5.67049e-06
5.67047e-06
5.6704e-06
5.67038e-06
5.67034e-06
5.67033e-06
5.67032e-06
5.67031e-06
5.7141e-06
5.7141e-06
5.71386e-06
5.71375e-06
5.71358e-06
5.71349e-06
5.71333e-06
5.71327e-06
5.71312e-06
5.71308e-06
5.71296e-06
5.71293e-06
5.71283e-06
5.71281e-06
5.71274e-06
5.71273e-06
5.71268e-06
5.71267e-06
5.71266e-06
5.71265e-06
5.74121e-06
5.74122e-06
5.74092e-06
5.74086e-06
5.74067e-06
5.74059e-06
5.74043e-06
5.74037e-06
5.74022e-06
5.74018e-06
5.74004e-06
5.74003e-06
5.73991e-06
5.7399e-06
5.73982e-06
5.73981e-06
5.73976e-06
5.73976e-06
5.73974e-06
5.73974e-06
5.76023e-06
5.76024e-06
5.75996e-06
5.75988e-06
5.75969e-06
5.75961e-06
5.75944e-06
5.75938e-06
5.75923e-06
5.75919e-06
5.75907e-06
5.75903e-06
5.75894e-06
5.75891e-06
5.75884e-06
5.75882e-06
5.75878e-06
5.75877e-06
5.75876e-06
5.75875e-06
5.77555e-06
5.77555e-06
5.77529e-06
5.77519e-06
5.77501e-06
5.77492e-06
5.77477e-06
5.77468e-06
5.77456e-06
5.7745e-06
5.77439e-06
5.77434e-06
5.77426e-06
5.77422e-06
5.77415e-06
5.77413e-06
5.77409e-06
5.77408e-06
5.77407e-06
5.77407e-06
5.78969e-06
5.78969e-06
5.78942e-06
5.78932e-06
5.78914e-06
5.78905e-06
5.78889e-06
5.78882e-06
5.78868e-06
5.78862e-06
5.78852e-06
5.78846e-06
5.78838e-06
5.78834e-06
5.78828e-06
5.78826e-06
5.78822e-06
5.78821e-06
5.78819e-06
5.78819e-06
5.80406e-06
5.80406e-06
5.8038e-06
5.8037e-06
5.80352e-06
5.80342e-06
5.80328e-06
5.80318e-06
5.80306e-06
5.80299e-06
5.80289e-06
5.80283e-06
5.80275e-06
5.80272e-06
5.80265e-06
5.80263e-06
5.80259e-06
5.80258e-06
5.80256e-06
5.80256e-06
5.81951e-06
5.81951e-06
5.81924e-06
5.81915e-06
5.81895e-06
5.81888e-06
5.81871e-06
5.81864e-06
5.81851e-06
5.81843e-06
5.81835e-06
5.81827e-06
5.81821e-06
5.81815e-06
5.81811e-06
5.81807e-06
5.81804e-06
5.81802e-06
5.81801e-06
5.818e-06
5.83645e-06
5.83645e-06
5.83617e-06
5.83608e-06
5.83589e-06
5.8358e-06
5.83564e-06
5.83556e-06
5.83542e-06
5.83537e-06
5.83526e-06
5.8352e-06
5.83512e-06
5.83508e-06
5.83502e-06
5.83499e-06
5.83495e-06
5.83494e-06
5.83493e-06
5.83492e-06
5.85477e-06
5.85477e-06
5.8545e-06
5.85441e-06
5.85422e-06
5.85412e-06
5.85397e-06
5.85388e-06
5.85375e-06
5.85369e-06
5.85358e-06
5.85353e-06
5.85344e-06
5.85341e-06
5.85334e-06
5.85332e-06
5.85327e-06
5.85326e-06
5.85325e-06
5.85325e-06
5.87371e-06
5.87372e-06
5.87342e-06
5.87334e-06
5.87317e-06
5.87305e-06
5.87292e-06
5.87282e-06
5.87271e-06
5.87262e-06
5.87252e-06
5.87246e-06
5.87238e-06
5.87233e-06
5.87227e-06
5.87225e-06
5.87221e-06
5.8722e-06
5.87218e-06
5.87218e-06
5.89156e-06
5.89156e-06
5.89128e-06
5.89118e-06
5.891e-06
5.8909e-06
5.89074e-06
5.89066e-06
5.89052e-06
5.89046e-06
5.89035e-06
5.89029e-06
5.89021e-06
5.89017e-06
5.89011e-06
5.89008e-06
5.89004e-06
5.89003e-06
5.89002e-06
5.89001e-06
5.90574e-06
5.90575e-06
5.90548e-06
5.90539e-06
5.9052e-06
5.90511e-06
5.90497e-06
5.90486e-06
5.90476e-06
5.90467e-06
5.90459e-06
5.90451e-06
5.90445e-06
5.90439e-06
5.90434e-06
5.9043e-06
5.90427e-06
5.90425e-06
5.90424e-06
5.90424e-06
5.91223e-06
5.91223e-06
5.91223e-06
5.91223e-06
5.91222e-06
5.91222e-06
5.91222e-06
5.91222e-06
5.91221e-06
5.91221e-06
5.91221e-06
5.91221e-06
5.91221e-06
5.91221e-06
5.91221e-06
5.91221e-06
5.91221e-06
5.91221e-06
5.91221e-06
5.91221e-06
)
;

boundaryField
{
    movingWall
    {
        type            kqRWallFunction;
        value           nonuniform List<scalar> 
20
(
5.91223e-06
5.91223e-06
5.91223e-06
5.91223e-06
5.91222e-06
5.91222e-06
5.91222e-06
5.91222e-06
5.91221e-06
5.91221e-06
5.91221e-06
5.91221e-06
5.91221e-06
5.91221e-06
5.91221e-06
5.91221e-06
5.91221e-06
5.91221e-06
5.91221e-06
5.91221e-06
)
;
    }
    fixedWalls
    {
        type            kqRWallFunction;
        value           nonuniform List<scalar> 
60
(
4.84181e-06
4.9657e-06
5.15506e-06
5.34514e-06
5.49746e-06
5.60363e-06
5.67175e-06
5.7141e-06
5.74121e-06
5.76023e-06
5.77555e-06
5.78969e-06
5.80406e-06
5.81951e-06
5.83645e-06
5.85477e-06
5.87371e-06
5.89156e-06
5.90574e-06
5.91223e-06
4.84179e-06
4.96463e-06
5.15389e-06
5.34387e-06
5.49612e-06
5.60224e-06
5.67031e-06
5.71265e-06
5.73974e-06
5.75875e-06
5.77407e-06
5.78819e-06
5.80256e-06
5.818e-06
5.83492e-06
5.85325e-06
5.87218e-06
5.89001e-06
5.90424e-06
5.91221e-06
4.84181e-06
4.84181e-06
4.84181e-06
4.84181e-06
4.8418e-06
4.8418e-06
4.8418e-06
4.8418e-06
4.8418e-06
4.8418e-06
4.8418e-06
4.8418e-06
4.84179e-06
4.84179e-06
4.84179e-06
4.84179e-06
4.84179e-06
4.84179e-06
4.84179e-06
4.84179e-06
)
;
    }
    frontAndBack
    {
        type            empty;
    }
}


// ************************************************************************* //
