/*--------------------------------*- C++ -*----------------------------------*\
| =========                 |                                                 |
| \\      /  F ield         | OpenFOAM: The Open Source CFD Toolbox           |
|  \\    /   O peration     | Version:  2312                                  |
|   \\  /    A nd           | Website:  www.openfoam.com                      |
|    \\/     M anipulation  |                                                 |
\*---------------------------------------------------------------------------*/
FoamFile
{
    version     2.0;
    format      ascii;
    arch        "LSB;label=32;scalar=64";
    class       volScalarField;
    location    "7.5";
    object      L_P;
}
// * * * * * * * * * * * * * * * * * * * * * * * * * * * * * * * * * * * * * //

dimensions      [0 0 0 0 0 0 0];

internalField   nonuniform List<scalar> 
400
(
-199.587
-199.587
-199.587
-199.587
-199.587
-199.587
-199.587
-199.587
-199.587
-199.587
-199.587
-199.587
-199.587
-199.587
-199.587
-199.587
-199.587
-199.587
-199.587
-199.587
-199.148
-199.206
-199.201
-199.199
-199.196
-199.194
-199.19
-199.188
-199.184
-199.182
-199.178
-199.176
-199.172
-199.17
-199.166
-199.163
-199.159
-199.157
-199.155
-199.152
-198.497
-198.557
-198.553
-198.551
-198.547
-198.545
-198.541
-198.539
-198.535
-198.533
-198.528
-198.526
-198.522
-198.52
-198.516
-198.513
-198.509
-198.507
-198.505
-198.501
-197.868
-197.929
-197.924
-197.922
-197.918
-197.916
-197.912
-197.91
-197.906
-197.904
-197.9
-197.898
-197.893
-197.891
-197.887
-197.884
-197.88
-197.878
-197.876
-197.872
-197.38
-197.442
-197.437
-197.435
-197.431
-197.429
-197.425
-197.423
-197.418
-197.416
-197.412
-197.41
-197.405
-197.403
-197.399
-197.396
-197.392
-197.39
-197.387
-197.384
-197.047
-197.11
-197.105
-197.103
-197.099
-197.097
-197.093
-197.091
-197.086
-197.084
-197.08
-197.078
-197.073
-197.071
-197.067
-197.064
-197.06
-197.057
-197.055
-197.052
-196.837
-196.901
-196.896
-196.894
-196.889
-196.887
-196.883
-196.881
-196.877
-196.874
-196.87
-196.868
-196.864
-196.861
-196.857
-196.854
-196.85
-196.848
-196.845
-196.842
-196.708
-196.772
-196.767
-196.765
-196.76
-196.758
-196.754
-196.752
-196.748
-196.745
-196.741
-196.739
-196.734
-196.732
-196.728
-196.725
-196.721
-196.718
-196.716
-196.713
-196.626
-196.689
-196.685
-196.682
-196.678
-196.676
-196.672
-196.67
-196.666
-196.663
-196.659
-196.657
-196.652
-196.65
-196.646
-196.643
-196.639
-196.636
-196.634
-196.63
-196.568
-196.632
-196.627
-196.625
-196.621
-196.619
-196.615
-196.612
-196.608
-196.606
-196.602
-196.599
-196.595
-196.593
-196.588
-196.586
-196.581
-196.579
-196.576
-196.573
-196.522
-196.586
-196.581
-196.579
-196.575
-196.573
-196.568
-196.566
-196.562
-196.56
-196.555
-196.553
-196.549
-196.546
-196.542
-196.54
-196.535
-196.533
-196.53
-196.527
-196.48
-196.544
-196.539
-196.537
-196.532
-196.53
-196.526
-196.524
-196.52
-196.517
-196.513
-196.511
-196.506
-196.504
-196.499
-196.497
-196.493
-196.49
-196.488
-196.484
-196.437
-196.501
-196.496
-196.494
-196.489
-196.487
-196.483
-196.481
-196.477
-196.474
-196.47
-196.468
-196.463
-196.461
-196.456
-196.454
-196.45
-196.447
-196.445
-196.441
-196.391
-196.455
-196.45
-196.447
-196.443
-196.441
-196.437
-196.435
-196.43
-196.428
-196.424
-196.422
-196.417
-196.415
-196.41
-196.408
-196.403
-196.401
-196.399
-196.395
-196.34
-196.404
-196.399
-196.397
-196.393
-196.391
-196.386
-196.384
-196.38
-196.378
-196.373
-196.371
-196.367
-196.364
-196.36
-196.357
-196.353
-196.35
-196.348
-196.345
-196.286
-196.35
-196.345
-196.343
-196.338
-196.336
-196.332
-196.33
-196.326
-196.323
-196.319
-196.317
-196.312
-196.31
-196.305
-196.303
-196.298
-196.296
-196.294
-196.29
-196.229
-196.294
-196.289
-196.287
-196.282
-196.28
-196.276
-196.274
-196.269
-196.267
-196.263
-196.261
-196.256
-196.254
-196.249
-196.247
-196.242
-196.24
-196.238
-196.234
-196.177
-196.241
-196.236
-196.234
-196.23
-196.228
-196.223
-196.221
-196.217
-196.215
-196.21
-196.208
-196.203
-196.201
-196.197
-196.194
-196.19
-196.187
-196.185
-196.181
-196.135
-196.198
-196.193
-196.191
-196.187
-196.185
-196.181
-196.179
-196.175
-196.172
-196.168
-196.166
-196.161
-196.159
-196.155
-196.152
-196.148
-196.145
-196.143
-196.139
-196.116
-196.116
-196.116
-196.116
-196.116
-196.116
-196.116
-196.116
-196.116
-196.116
-196.116
-196.116
-196.116
-196.116
-196.116
-196.116
-196.116
-196.116
-196.116
-196.116
)
;

boundaryField
{
    movingWall
    {
        type            calculated;
        value           nonuniform List<scalar> 
20
(
-196.116
-196.116
-196.116
-196.116
-196.116
-196.116
-196.116
-196.116
-196.116
-196.116
-196.116
-196.116
-196.116
-196.116
-196.116
-196.116
-196.116
-196.116
-196.116
-196.116
)
;
    }
    fixedWalls
    {
        type            calculated;
        value           nonuniform List<scalar> 
60
(
-199.587
-199.148
-198.497
-197.868
-197.38
-197.047
-196.837
-196.708
-196.626
-196.568
-196.522
-196.48
-196.437
-196.391
-196.34
-196.286
-196.229
-196.177
-196.135
-196.116
-199.587
-199.152
-198.501
-197.872
-197.384
-197.052
-196.842
-196.713
-196.63
-196.573
-196.527
-196.484
-196.441
-196.395
-196.345
-196.29
-196.234
-196.181
-196.139
-196.116
-199.587
-199.587
-199.587
-199.587
-199.587
-199.587
-199.587
-199.587
-199.587
-199.587
-199.587
-199.587
-199.587
-199.587
-199.587
-199.587
-199.587
-199.587
-199.587
-199.587
)
;
    }
    frontAndBack
    {
        type            empty;
    }
}


// ************************************************************************* //
