/*--------------------------------*- C++ -*----------------------------------*\
| =========                 |                                                 |
| \\      /  F ield         | OpenFOAM: The Open Source CFD Toolbox           |
|  \\    /   O peration     | Version:  2312                                  |
|   \\  /    A nd           | Website:  www.openfoam.com                      |
|    \\/     M anipulation  |                                                 |
\*---------------------------------------------------------------------------*/
FoamFile
{
    version     2.0;
    format      ascii;
    arch        "LSB;label=32;scalar=64";
    class       volScalarField;
    location    "7.5";
    object      Lambda2Field;
}
// * * * * * * * * * * * * * * * * * * * * * * * * * * * * * * * * * * * * * //

dimensions      [0 0 -2 0 0 0 0];

internalField   nonuniform List<scalar> 
400
(
1.82938e-23
9.80087e-24
4.11136e-26
2.58266e-26
5.96018e-27
0
2.9533e-28
6.1072e-28
0
0
0
-2.00498e-28
0
0
2.25065e-28
2.50234e-29
0
8.61518e-28
2.0725e-28
0
3.49952e-24
8.3485e-24
7.24152e-25
0
6.72408e-28
-9.20719e-28
0
8.52778e-28
2.1281e-27
1.00037e-28
0
-2.62504e-28
0
-5.53358e-28
1.13295e-28
-5.18389e-29
1.44736e-27
5.75265e-28
5.18475e-28
0
4.90573e-23
1.96077e-23
1.24162e-25
9.11162e-26
0
3.4722e-27
0
-5.76569e-28
0
5.23121e-29
0
-1.82972e-28
1.85559e-27
1.059e-27
3.60623e-29
-7.49377e-28
0
0
4.24241e-28
2.41772e-27
5.19431e-23
1.68238e-23
8.31211e-25
-8.85974e-27
4.61631e-27
-1.74316e-27
2.49148e-28
-3.74346e-28
0
1.9161e-28
4.38475e-28
-3.74039e-28
0
-1.97071e-28
1.30834e-28
1.42174e-28
0
-1.07229e-29
0
2.1481e-27
8.62641e-24
1.00762e-23
5.97571e-25
3.13533e-26
1.76511e-27
0
0
9.1304e-29
4.36325e-31
0
0
1.88439e-28
0
1.38988e-28
7.97357e-29
0
8.8169e-29
0
0
-1.24196e-27
2.1377e-23
1.34511e-23
6.12707e-25
7.34684e-28
0
0
0
-3.15923e-28
0
0
0
4.06731e-28
3.1579e-28
1.21316e-28
0
-9.14394e-29
0
1.34079e-29
5.23891e-28
1.37331e-28
4.76104e-23
1.91593e-23
0
4.60311e-26
0
1.0919e-27
0
6.58126e-28
1.69458e-28
-6.82277e-28
2.17208e-27
6.78561e-28
6.73943e-28
2.3703e-28
4.60064e-28
0
8.4058e-28
-2.79075e-28
1.41132e-28
1.5307e-29
1.30401e-23
4.97646e-24
2.98996e-25
1.66571e-26
6.12529e-27
-2.30494e-29
1.18292e-28
0
0
-4.53659e-28
0
0
0
2.0928e-28
1.43068e-27
0
2.73043e-28
7.27391e-30
0
0
4.10555e-24
3.01969e-24
9.38815e-26
0
0
0
5.9298e-28
4.67061e-28
3.55886e-28
0
0
-2.54844e-28
0
0
3.28415e-28
0
0
0
0
1.80216e-28
7.55814e-24
4.28445e-24
0
7.34684e-28
6.61216e-27
6.55177e-28
0
-2.89216e-28
4.02967e-28
-6.5257e-28
0
0
9.14781e-28
2.87177e-29
8.80454e-28
0
0
0
6.5399e-29
-5.67376e-29
0
1.9397e-24
0
-3.11508e-26
2.93874e-27
0
0
0
0
0
0
7.68563e-28
9.41127e-28
0
3.88668e-28
1.01899e-28
3.77065e-29
3.24087e-28
3.05952e-29
-5.2301e-29
1.74641e-24
2.99284e-24
0
2.49718e-26
0
1.272e-27
3.97601e-28
0
3.71646e-28
0
1.45154e-27
2.94874e-27
9.84288e-28
0
0
7.54574e-29
0
-3.13207e-28
0
3.22032e-28
3.43474e-24
1.04796e-24
2.67723e-26
2.67848e-26
0
3.15697e-28
1.6434e-27
-1.15063e-27
0
-2.63432e-28
2.76401e-28
6.10516e-28
0
3.07656e-28
1.1998e-28
-3.87103e-28
0
0
0
2.26643e-28
0
1.66604e-24
7.74013e-26
0
0
1.26065e-28
9.67765e-28
-3.3604e-28
2.35652e-29
-3.3438e-28
0
-1.12882e-27
0
6.30218e-29
3.60115e-28
-4.27507e-28
0
2.53171e-28
0
4.86897e-28
4.19036e-23
1.53655e-23
0
1.25042e-29
7.34684e-28
0
0
-6.56978e-28
0
1.01731e-28
0
0
9.46734e-29
5.10896e-29
4.75372e-28
1.68798e-28
6.95203e-28
0
1.35336e-28
1.49666e-29
3.04199e-23
1.56301e-23
3.55587e-25
6.51385e-26
0
7.26592e-28
0
0
0
3.7206e-28
7.34521e-28
3.11712e-28
0
-1.17664e-27
0
5.05184e-28
3.7876e-28
8.21741e-29
0
2.58959e-29
8.65806e-24
1.15314e-23
7.52316e-25
1.83671e-26
2.93874e-27
1.43914e-28
1.1068e-27
0
1.69107e-28
-2.86455e-28
2.7719e-28
-5.69365e-28
8.79157e-28
0
0
1.47921e-28
0
0
0
0
6.36022e-23
2.05396e-23
4.65328e-25
7.23064e-26
0
7.58992e-28
0
5.7125e-28
0
0
0
-2.00032e-27
0
-1.97712e-28
0
9.67287e-29
8.61711e-28
0
2.41624e-29
0
1.5297e-23
1.13984e-23
4.96646e-25
4.21808e-26
0
9.78237e-28
0
1.60109e-27
1.65235e-27
-3.8079e-28
1.23031e-27
1.2163e-28
4.24752e-28
0
1.486e-28
3.26311e-28
0
0
2.28316e-28
3.69678e-28
1.02067e-23
4.7641e-24
3.26307e-25
0
4.82588e-27
-4.25269e-28
9.63256e-28
5.84676e-28
0
1.04645e-27
2.62876e-27
0
0
4.40902e-28
1.30946e-27
1.80255e-28
0
9.72048e-29
2.87464e-28
0
)
;

boundaryField
{
    movingWall
    {
        type            calculated;
        value           nonuniform List<scalar> 
20
(
0
0
5.17367e-25
-1.89079e-27
3.16269e-26
-3.12415e-27
7.10189e-27
0
0
7.47571e-27
4.16942e-27
0
0
1.6247e-27
3.08897e-27
5.17308e-28
0
3.61899e-28
6.33117e-28
0
)
;
    }
    fixedWalls
    {
        type            calculated;
        value           nonuniform List<scalar> 
60
(
1.27549e-22
1.2619e-22
2.73006e-22
3.01898e-22
1.78497e-22
2.04172e-22
2.56614e-22
7.71062e-23
3.92294e-23
3.91679e-23
0
1.51883e-23
1.82498e-23
1.20653e-23
2.15038e-22
2.27213e-22
1.942e-22
3.34035e-22
1.89398e-22
8.28776e-23
0
0
3.77626e-27
3.09811e-27
0
0
0
0
3.60061e-28
0
2.05633e-28
7.487e-28
2.26644e-28
8.85431e-28
0
2.58959e-29
0
9.04404e-29
6.19556e-28
0
0
0
3.99358e-25
0
4.35419e-26
-7.25747e-27
1.81444e-27
0
0
-3.2811e-29
1.63161e-27
3.9906e-28
0
2.18357e-28
1.59851e-27
7.34684e-28
0
1.53346e-27
1.65749e-28
0
)
;
    }
    frontAndBack
    {
        type            empty;
    }
}


// ************************************************************************* //
