/*--------------------------------*- C++ -*----------------------------------*\
| =========                 |                                                 |
| \\      /  F ield         | OpenFOAM: The Open Source CFD Toolbox           |
|  \\    /   O peration     | Version:  2312                                  |
|   \\  /    A nd           | Website:  www.openfoam.com                      |
|    \\/     M anipulation  |                                                 |
\*---------------------------------------------------------------------------*/
FoamFile
{
    version     2.0;
    format      ascii;
    arch        "LSB;label=32;scalar=64";
    class       volScalarField;
    location    "7.5";
    object      magSqrP;
}
// * * * * * * * * * * * * * * * * * * * * * * * * * * * * * * * * * * * * * //

dimensions      [0 4 -4 0 0 0 0];

internalField   nonuniform List<scalar> 
400
(
3.16804e-31
1.79434e-29
9.51811e-30
1.31913e-29
1.5535e-29
1.93634e-29
2.39894e-29
2.60717e-29
2.62453e-29
2.76326e-29
2.83069e-29
3.05547e-29
2.98485e-29
2.93763e-29
2.96684e-29
2.90863e-29
2.78834e-29
2.4022e-29
1.8477e-29
1.8253e-29
1.00917e-29
0
1.02714e-29
1.10005e-29
1.67391e-29
1.98945e-29
2.40554e-29
2.65579e-29
2.53658e-29
2.73955e-29
2.86561e-29
3.01139e-29
3.14502e-29
3.01703e-29
2.88511e-29
2.77523e-29
2.62271e-29
2.36271e-29
2.10602e-29
1.80303e-29
6.4725e-30
2.10468e-29
1.09528e-29
1.51352e-29
1.82534e-29
2.16328e-29
2.34036e-29
2.51903e-29
2.526e-29
2.74318e-29
2.87919e-29
2.98752e-29
3.10175e-29
2.86679e-29
2.85584e-29
2.66266e-29
2.43755e-29
2.37676e-29
2.21392e-29
1.95542e-29
8.07324e-30
1.57583e-29
1.32646e-29
1.65268e-29
1.8997e-29
2.02655e-29
2.23878e-29
2.43324e-29
2.53438e-29
2.81178e-29
2.8746e-29
2.9394e-29
2.95025e-29
3.02123e-29
2.90417e-29
2.49715e-29
2.37599e-29
2.27931e-29
2.22327e-29
2.36146e-29
1.54796e-29
2.11459e-30
1.42901e-29
1.68133e-29
2.00491e-29
2.04242e-29
2.1493e-29
2.34233e-29
2.63853e-29
2.82603e-29
2.85223e-29
2.88604e-29
2.94108e-29
2.89988e-29
2.71832e-29
2.65093e-29
2.32688e-29
2.07751e-29
2.23257e-29
2.39741e-29
9.3385e-30
3.30916e-29
1.62943e-29
1.88742e-29
1.88069e-29
2.11808e-29
2.12145e-29
2.25108e-29
2.57506e-29
2.67714e-29
2.79606e-29
2.81307e-29
2.83815e-29
2.80721e-29
2.50166e-29
2.49338e-29
2.26731e-29
2.06663e-29
2.28218e-29
2.60567e-29
1.37819e-29
3.13159e-29
1.73047e-29
1.73244e-29
1.77865e-29
2.18657e-29
2.05405e-29
2.00777e-29
2.44247e-29
2.74654e-29
2.87961e-29
2.70796e-29
2.71623e-29
2.66433e-29
2.49994e-29
2.40236e-29
2.25734e-29
2.16092e-29
2.40923e-29
2.59622e-29
2.64715e-29
4.09111e-31
1.8914e-29
1.72841e-29
2.00104e-29
2.02621e-29
2.01931e-29
2.18643e-29
2.46112e-29
2.61748e-29
2.66161e-29
2.55512e-29
2.58112e-29
2.55364e-29
2.43053e-29
2.55425e-29
2.34215e-29
2.19252e-29
2.37276e-29
2.50052e-29
1.65913e-29
5.27651e-29
1.95359e-29
2.13369e-29
1.98972e-29
1.99448e-29
2.01541e-29
2.22039e-29
2.35583e-29
2.45703e-29
2.4353e-29
2.39201e-29
2.43242e-29
2.49959e-29
2.3706e-29
2.4221e-29
2.37597e-29
2.24911e-29
2.25857e-29
2.53533e-29
2.0941e-29
1.15526e-29
2.1231e-29
1.95867e-29
1.9254e-29
2.10347e-29
2.06135e-29
2.10524e-29
2.2461e-29
2.38059e-29
2.32555e-29
2.41384e-29
2.34633e-29
2.24501e-29
2.35174e-29
2.36199e-29
2.26899e-29
2.30333e-29
2.3525e-29
2.58092e-29
2.23812e-29
1.3144e-29
2.07697e-29
1.83536e-29
1.98212e-29
2.17985e-29
2.15446e-29
1.94259e-29
2.18536e-29
2.48079e-29
2.33656e-29
2.17427e-29
2.07896e-29
2.31369e-29
2.48516e-29
2.32885e-29
2.21205e-29
2.27647e-29
2.28823e-29
2.58363e-29
2.13487e-29
5.09985e-29
1.90373e-29
1.94444e-29
1.96993e-29
2.19151e-29
2.21063e-29
2.09148e-29
2.0903e-29
2.32545e-29
2.28987e-29
2.15165e-29
2.12614e-29
2.24965e-29
2.43252e-29
2.35212e-29
2.22536e-29
2.28056e-29
2.33495e-29
2.6139e-29
2.86793e-29
1.07881e-30
1.96404e-29
1.86028e-29
2.07257e-29
2.09771e-29
2.06026e-29
2.11656e-29
2.20838e-29
2.34699e-29
2.35483e-29
2.21115e-29
2.18335e-29
2.17971e-29
2.41608e-29
2.32781e-29
2.21596e-29
2.46866e-29
2.43241e-29
2.37941e-29
1.93837e-29
5.29762e-29
2.03277e-29
2.1585e-29
2.10142e-29
2.13149e-29
2.13652e-29
2.09458e-29
2.12787e-29
2.28089e-29
2.31425e-29
2.25891e-29
2.03023e-29
2.17005e-29
2.42315e-29
2.30335e-29
2.27206e-29
2.25205e-29
2.35825e-29
2.63599e-29
2.35274e-29
1.58022e-29
2.20732e-29
1.94261e-29
2.19333e-29
2.20555e-29
2.2022e-29
2.13811e-29
2.09438e-29
2.25276e-29
2.35561e-29
2.47126e-29
2.08664e-29
2.17908e-29
2.4201e-29
2.23381e-29
2.31106e-29
2.12787e-29
2.28436e-29
2.62508e-29
2.77857e-29
9.87239e-30
2.0784e-29
2.12053e-29
2.2875e-29
2.1993e-29
2.16732e-29
1.95259e-29
2.04152e-29
2.13003e-29
2.43557e-29
2.58836e-29
2.2048e-29
2.27895e-29
2.38344e-29
2.42132e-29
2.19562e-29
2.16537e-29
2.29881e-29
2.68801e-29
1.71507e-29
4.54407e-29
2.14349e-29
2.1911e-29
2.1401e-29
2.11946e-29
2.23325e-29
2.01929e-29
2.01855e-29
2.16424e-29
2.57164e-29
2.46495e-29
2.16486e-29
2.1955e-29
2.34795e-29
2.6337e-29
2.46602e-29
2.32054e-29
2.31615e-29
2.59162e-29
2.26239e-29
2.11967e-29
2.09171e-29
2.12329e-29
2.08109e-29
2.24884e-29
2.1897e-29
2.11799e-29
2.1778e-29
2.22606e-29
2.27513e-29
2.37833e-29
2.29898e-29
2.28993e-29
2.50761e-29
2.91646e-29
2.64105e-29
2.35616e-29
2.29943e-29
2.50276e-29
2.86137e-29
8.85072e-30
2.15351e-29
2.11908e-29
2.37897e-29
2.30364e-29
2.38452e-29
2.19772e-29
2.24963e-29
2.15661e-29
2.15354e-29
2.40379e-29
2.60364e-29
2.64933e-29
2.6397e-29
2.52401e-29
2.5535e-29
2.38463e-29
2.36805e-29
2.62382e-29
1.51259e-29
4.0023e-29
2.11343e-29
2.2394e-29
2.23132e-29
2.33656e-29
2.47816e-29
2.4452e-29
2.13783e-29
2.23545e-29
2.41729e-29
2.60989e-29
2.46189e-29
2.44668e-29
2.78281e-29
2.70039e-29
2.51799e-29
2.30795e-29
2.28828e-29
2.73068e-29
)
;

boundaryField
{
    movingWall
    {
        type            calculated;
        value           nonuniform List<scalar> 
20
(
1.51259e-29
4.0023e-29
2.11343e-29
2.2394e-29
2.23132e-29
2.33656e-29
2.47816e-29
2.4452e-29
2.13783e-29
2.23545e-29
2.41729e-29
2.60989e-29
2.46189e-29
2.44668e-29
2.78281e-29
2.70039e-29
2.51799e-29
2.30795e-29
2.28828e-29
2.73068e-29
)
;
    }
    fixedWalls
    {
        type            calculated;
        value           nonuniform List<scalar> 
60
(
3.16804e-31
1.00917e-29
6.4725e-30
8.07324e-30
1.54796e-29
9.3385e-30
1.37819e-29
2.64715e-29
1.65913e-29
2.0941e-29
2.23812e-29
2.13487e-29
2.86793e-29
1.93837e-29
2.35274e-29
2.77857e-29
1.71507e-29
2.26239e-29
2.86137e-29
1.51259e-29
1.8253e-29
1.80303e-29
1.95542e-29
2.36146e-29
2.39741e-29
2.60567e-29
2.59622e-29
2.50052e-29
2.53533e-29
2.58092e-29
2.58363e-29
2.6139e-29
2.37941e-29
2.63599e-29
2.62508e-29
2.68801e-29
2.59162e-29
2.50276e-29
2.62382e-29
2.73068e-29
3.16804e-31
1.79434e-29
9.51811e-30
1.31913e-29
1.5535e-29
1.93634e-29
2.39894e-29
2.60717e-29
2.62453e-29
2.76326e-29
2.83069e-29
3.05547e-29
2.98485e-29
2.93763e-29
2.96684e-29
2.90863e-29
2.78834e-29
2.4022e-29
1.8477e-29
1.8253e-29
)
;
    }
    frontAndBack
    {
        type            empty;
    }
}


// ************************************************************************* //
