/*--------------------------------*- C++ -*----------------------------------*\
| =========                 |                                                 |
| \\      /  F ield         | OpenFOAM: The Open Source CFD Toolbox           |
|  \\    /   O peration     | Version:  2312                                  |
|   \\  /    A nd           | Website:  www.openfoam.com                      |
|    \\/     M anipulation  |                                                 |
\*---------------------------------------------------------------------------*/
FoamFile
{
    version     2.0;
    format      ascii;
    arch        "LSB;label=32;scalar=64";
    class       volVectorField;
    location    "7.5";
    object      momentum1:momentum;
}
// * * * * * * * * * * * * * * * * * * * * * * * * * * * * * * * * * * * * * //

dimensions      [1 1 -1 0 0 0 0];

internalField   nonuniform List<vector> 
400
(
(-2.5e-07 4.4003e-20 0)
(-2.5e-07 -9.56299e-21 0)
(-2.5e-07 2.24739e-21 0)
(-2.5e-07 -4.81471e-22 0)
(-2.5e-07 1.36366e-22 0)
(-2.5e-07 4.95705e-25 0)
(-2.5e-07 3.42178e-23 0)
(-2.5e-07 2.07573e-23 0)
(-2.5e-07 6.0533e-24 0)
(-2.5e-07 -9.85801e-24 0)
(-2.5e-07 -1.87283e-24 0)
(-2.5e-07 1.31048e-23 0)
(-2.5e-07 9.35971e-24 0)
(-2.5e-07 2.73839e-24 0)
(-2.5e-07 1.55059e-23 0)
(-2.5e-07 2.70528e-23 0)
(-2.5e-07 3.1399e-23 0)
(-2.5e-07 7.18959e-24 0)
(-2.5e-07 -8.03941e-24 0)
(-2.5e-07 4.49358e-24 0)
(-2.5e-07 -2.67775e-21 0)
(-2.5e-07 5.86904e-22 0)
(-2.5e-07 -1.31532e-22 0)
(-2.5e-07 2.97924e-23 0)
(-2.5e-07 4.57538e-24 0)
(-2.5e-07 9.1195e-24 0)
(-2.5e-07 2.30324e-23 0)
(-2.5e-07 1.39979e-23 0)
(-2.5e-07 -3.18589e-24 0)
(-2.5e-07 -9.36864e-24 0)
(-2.5e-07 -7.79927e-24 0)
(-2.5e-07 3.30196e-24 0)
(-2.5e-07 2.95084e-24 0)
(-2.5e-07 2.44961e-23 0)
(-2.5e-07 1.99744e-23 0)
(-2.5e-07 2.10129e-23 0)
(-2.5e-07 3.22088e-23 0)
(-2.5e-07 -8.98093e-25 0)
(-2.5e-07 -2.79258e-23 0)
(-2.5e-07 -9.39703e-24 0)
(-2.5e-07 -3.41833e-20 0)
(-2.5e-07 7.35372e-21 0)
(-2.5e-07 -1.78401e-21 0)
(-2.5e-07 3.49768e-22 0)
(-2.5e-07 -1.03209e-22 0)
(-2.5e-07 2.28338e-23 0)
(-2.5e-07 3.54232e-24 0)
(-2.5e-07 -2.68472e-24 0)
(-2.5e-07 -1.53371e-23 0)
(-2.5e-07 -8.47472e-24 0)
(-2.5e-07 -1.29246e-23 0)
(-2.5e-07 -1.02343e-23 0)
(-2.5e-07 -1.90688e-23 0)
(-2.5e-07 1.25362e-24 0)
(-2.5e-07 3.00244e-24 0)
(-2.5e-07 4.57978e-24 0)
(-2.5e-07 -2.66464e-23 0)
(-2.5e-07 -5.27721e-23 0)
(-2.5e-07 -6.48057e-23 0)
(-2.5e-07 -4.18596e-23 0)
(-2.5e-07 3.57198e-20 0)
(-2.5e-07 -7.85339e-21 0)
(-2.5e-07 1.77694e-21 0)
(-2.5e-07 -4.38582e-22 0)
(-2.5e-07 6.47773e-23 0)
(-2.5e-07 -1.28022e-23 0)
(-2.5e-07 7.64204e-24 0)
(-2.5e-07 -1.31225e-24 0)
(-2.5e-07 -1.11732e-23 0)
(-2.5e-07 -6.64946e-24 0)
(-2.5e-07 6.49965e-24 0)
(-2.5e-07 1.35716e-23 0)
(-2.5e-07 -5.12961e-24 0)
(-2.5e-07 -2.16763e-23 0)
(-2.5e-07 -1.46681e-23 0)
(-2.5e-07 -1.56427e-23 0)
(-2.5e-07 -2.67774e-23 0)
(-2.5e-07 -4.23897e-23 0)
(-2.5e-07 -6.11532e-23 0)
(-2.5e-07 -3.49882e-23 0)
(-2.5e-07 -9.29712e-21 0)
(-2.5e-07 1.97571e-21 0)
(-2.5e-07 -4.80451e-22 0)
(-2.5e-07 1.03501e-22 0)
(-2.5e-07 -2.80729e-23 0)
(-2.5e-07 4.38426e-24 0)
(-2.5e-07 1.02338e-23 0)
(-2.5e-07 1.18164e-23 0)
(-2.5e-07 6.40128e-24 0)
(-2.5e-07 1.17761e-23 0)
(-2.5e-07 -7.89349e-25 0)
(-2.5e-07 -1.53672e-23 0)
(-2.5e-07 -3.45697e-24 0)
(-2.5e-07 -6.5578e-24 0)
(-2.5e-07 -1.62763e-23 0)
(-2.5e-07 -3.6762e-23 0)
(-2.5e-07 -9.74224e-24 0)
(-2.5e-07 -1.15961e-23 0)
(-2.5e-07 -3.96869e-23 0)
(-2.5e-07 -2.19584e-23 0)
(-2.5e-07 -2.64372e-20 0)
(-2.5e-07 5.68218e-21 0)
(-2.5e-07 -1.30932e-21 0)
(-2.5e-07 3.29825e-22 0)
(-2.5e-07 -3.90793e-23 0)
(-2.5e-07 2.07436e-23 0)
(-2.5e-07 3.35779e-23 0)
(-2.5e-07 3.17037e-23 0)
(-2.5e-07 6.07886e-25 0)
(-2.5e-07 -1.36062e-23 0)
(-2.5e-07 -1.74814e-23 0)
(-2.5e-07 -2.32863e-23 0)
(-2.5e-07 -9.73953e-24 0)
(-2.5e-07 5.84016e-24 0)
(-2.5e-07 1.44989e-24 0)
(-2.5e-07 -2.12574e-23 0)
(-2.5e-07 -3.66483e-23 0)
(-2.5e-07 -3.41052e-23 0)
(-2.5e-07 -2.4845e-23 0)
(-2.5e-07 -1.06527e-23 0)
(-2.5e-07 4.25523e-20 0)
(-2.5e-07 -9.11861e-21 0)
(-2.5e-07 2.19468e-21 0)
(-2.5e-07 -4.46397e-22 0)
(-2.5e-07 1.05755e-22 0)
(-2.5e-07 -2.08479e-23 0)
(-2.5e-07 5.1335e-24 0)
(-2.5e-07 -4.29624e-24 0)
(-2.5e-07 3.35071e-24 0)
(-2.5e-07 2.17702e-23 0)
(-2.5e-07 4.69146e-23 0)
(-2.5e-07 3.50517e-23 0)
(-2.5e-07 1.56215e-23 0)
(-2.5e-07 1.95117e-23 0)
(-2.5e-07 1.01559e-23 0)
(-2.5e-07 -1.58667e-23 0)
(-2.5e-07 -2.14044e-23 0)
(-2.5e-07 -2.07503e-23 0)
(-2.5e-07 -5.12873e-24 0)
(-2.5e-07 7.33872e-24 0)
(-2.5e-07 -1.88757e-20 0)
(-2.5e-07 4.21534e-21 0)
(-2.5e-07 -9.71456e-22 0)
(-2.5e-07 2.1828e-22 0)
(-2.5e-07 -4.49742e-23 0)
(-2.5e-07 2.3193e-23 0)
(-2.5e-07 -2.30268e-23 0)
(-2.5e-07 -2.95406e-23 0)
(-2.5e-07 7.85634e-24 0)
(-2.5e-07 4.17039e-23 0)
(-2.5e-07 4.99716e-23 0)
(-2.5e-07 3.75167e-23 0)
(-2.5e-07 2.31429e-24 0)
(-2.5e-07 -2.63563e-23 0)
(-2.5e-07 -1.3243e-23 0)
(-2.5e-07 -2.98275e-26 0)
(-2.5e-07 -5.08641e-24 0)
(-2.5e-07 -1.26217e-23 0)
(-2.5e-07 -2.74129e-24 0)
(-2.5e-07 -8.71661e-25 0)
(-2.5e-07 -1.65086e-20 0)
(-2.5e-07 3.48679e-21 0)
(-2.5e-07 -8.08783e-22 0)
(-2.5e-07 1.93017e-22 0)
(-2.5e-07 1.07983e-24 0)
(-2.5e-07 1.58012e-23 0)
(-2.5e-07 -1.50846e-24 0)
(-2.5e-07 9.26625e-24 0)
(-2.5e-07 2.00309e-23 0)
(-2.5e-07 1.74724e-23 0)
(-2.5e-07 2.00302e-23 0)
(-2.5e-07 1.72021e-23 0)
(-2.5e-07 3.063e-24 0)
(-2.5e-07 -1.66546e-23 0)
(-2.5e-07 -2.3204e-23 0)
(-2.5e-07 -1.50912e-24 0)
(-2.5e-07 -1.54411e-23 0)
(-2.5e-07 -2.74929e-23 0)
(-2.5e-07 -9.84637e-24 0)
(-2.5e-07 -6.77566e-24 0)
(-2.5e-07 3.42888e-20 0)
(-2.5e-07 -7.47664e-21 0)
(-2.5e-07 1.71929e-21 0)
(-2.5e-07 -4.10404e-22 0)
(-2.5e-07 4.5375e-23 0)
(-2.5e-07 -6.27771e-23 0)
(-2.5e-07 -1.50544e-23 0)
(-2.5e-07 2.11254e-23 0)
(-2.5e-07 -1.59885e-24 0)
(-2.5e-07 -1.60417e-23 0)
(-2.5e-07 2.85411e-23 0)
(-2.5e-07 6.41006e-23 0)
(-2.5e-07 6.17425e-23 0)
(-2.5e-07 1.6291e-23 0)
(-2.5e-07 -1.20919e-23 0)
(-2.5e-07 3.73653e-24 0)
(-2.5e-07 -9.68075e-24 0)
(-2.5e-07 -1.90556e-23 0)
(-2.5e-07 -6.04213e-24 0)
(-2.5e-07 -1.46198e-25 0)
(-2.5e-07 -3.35855e-20 0)
(-2.5e-07 7.31397e-21 0)
(-2.5e-07 -1.72114e-21 0)
(-2.5e-07 3.46711e-22 0)
(-2.5e-07 -1.49041e-22 0)
(-2.5e-07 -3.07002e-23 0)
(-2.5e-07 -2.39971e-23 0)
(-2.5e-07 1.32616e-23 0)
(-2.5e-07 1.73752e-23 0)
(-2.5e-07 1.99544e-23 0)
(-2.5e-07 5.49539e-23 0)
(-2.5e-07 8.49638e-23 0)
(-2.5e-07 5.18292e-23 0)
(-2.5e-07 -3.25737e-24 0)
(-2.5e-07 -2.77795e-23 0)
(-2.5e-07 -1.92145e-23 0)
(-2.5e-07 -2.18677e-23 0)
(-2.5e-07 -1.55223e-24 0)
(-2.5e-07 8.02406e-24 0)
(-2.5e-07 1.26968e-24 0)
(-2.5e-07 2.5355e-20 0)
(-2.5e-07 -5.56727e-21 0)
(-2.5e-07 1.33554e-21 0)
(-2.5e-07 -2.74968e-22 0)
(-2.5e-07 1.09817e-22 0)
(-2.5e-07 3.43458e-23 0)
(-2.5e-07 3.12505e-23 0)
(-2.5e-07 -1.23166e-23 0)
(-2.5e-07 7.14246e-24 0)
(-2.5e-07 1.82313e-23 0)
(-2.5e-07 -1.28592e-23 0)
(-2.5e-07 -2.74919e-23 0)
(-2.5e-07 -1.42668e-23 0)
(-2.5e-07 1.74757e-23 0)
(-2.5e-07 6.31251e-24 0)
(-2.5e-07 -2.14997e-23 0)
(-2.5e-07 -2.22377e-23 0)
(-2.5e-07 -9.11366e-24 0)
(-2.5e-07 1.24192e-23 0)
(-2.5e-07 1.72575e-23 0)
(-2.5e-07 -6.29146e-21 0)
(-2.5e-07 1.4616e-21 0)
(-2.5e-07 -3.56248e-22 0)
(-2.5e-07 7.64962e-23 0)
(-2.5e-07 -9.6839e-24 0)
(-2.5e-07 2.05458e-23 0)
(-2.5e-07 -1.39501e-24 0)
(-2.5e-07 -2.24898e-23 0)
(-2.5e-07 -2.83358e-23 0)
(-2.5e-07 -3.77521e-23 0)
(-2.5e-07 -5.90225e-23 0)
(-2.5e-07 -5.18418e-23 0)
(-2.5e-07 -2.71231e-24 0)
(-2.5e-07 2.64331e-23 0)
(-2.5e-07 2.56639e-23 0)
(-2.5e-07 2.50204e-24 0)
(-2.5e-07 -1.65037e-23 0)
(-2.5e-07 -2.13234e-23 0)
(-2.5e-07 -1.67029e-23 0)
(-2.5e-07 -4.67305e-26 0)
(-2.5e-07 -2.13314e-20 0)
(-2.5e-07 4.60556e-21 0)
(-2.5e-07 -1.03219e-21 0)
(-2.5e-07 2.9269e-22 0)
(-2.5e-07 -3.66198e-23 0)
(-2.5e-07 -3.22321e-24 0)
(-2.5e-07 -3.08061e-23 0)
(-2.5e-07 -2.28461e-23 0)
(-2.5e-07 -2.04745e-23 0)
(-2.5e-07 -1.39216e-23 0)
(-2.5e-07 -9.59061e-24 0)
(-2.5e-07 -8.79042e-24 0)
(-2.5e-07 2.56376e-23 0)
(-2.5e-07 3.26434e-23 0)
(-2.5e-07 2.27313e-23 0)
(-2.5e-07 -5.71328e-25 0)
(-2.5e-07 -1.66998e-23 0)
(-2.5e-07 -1.38802e-24 0)
(-2.5e-07 -2.43793e-23 0)
(-2.5e-07 -2.03792e-23 0)
(-2.5e-07 4.14093e-20 0)
(-2.5e-07 -9.05909e-21 0)
(-2.5e-07 2.13438e-21 0)
(-2.5e-07 -4.62709e-22 0)
(-2.5e-07 1.1946e-22 0)
(-2.5e-07 -1.38905e-23 0)
(-2.5e-07 -6.94419e-24 0)
(-2.5e-07 -2.26982e-23 0)
(-2.5e-07 -3.96217e-23 0)
(-2.5e-07 -4.88285e-23 0)
(-2.5e-07 -6.29699e-23 0)
(-2.5e-07 -4.15301e-23 0)
(-2.5e-07 -3.21191e-24 0)
(-2.5e-07 1.32779e-23 0)
(-2.5e-07 1.18983e-23 0)
(-2.5e-07 2.31657e-24 0)
(-2.5e-07 1.5447e-23 0)
(-2.5e-07 1.12639e-23 0)
(-2.5e-07 4.61339e-24 0)
(-2.5e-07 -3.23296e-24 0)
(-2.5e-07 -2.86171e-20 0)
(-2.5e-07 6.32113e-21 0)
(-2.5e-07 -1.53918e-21 0)
(-2.5e-07 2.83849e-22 0)
(-2.5e-07 -1.04952e-22 0)
(-2.5e-07 -1.18472e-24 0)
(-2.5e-07 -3.79352e-23 0)
(-2.5e-07 -4.88739e-24 0)
(-2.5e-07 8.13305e-24 0)
(-2.5e-07 1.12938e-23 0)
(-2.5e-07 -8.59005e-24 0)
(-2.5e-07 1.12863e-23 0)
(-2.5e-07 2.19084e-24 0)
(-2.5e-07 -2.55891e-23 0)
(-2.5e-07 -4.48686e-23 0)
(-2.5e-07 -3.97623e-23 0)
(-2.5e-07 1.7264e-24 0)
(-2.5e-07 -9.65878e-24 0)
(-2.5e-07 3.7865e-24 0)
(-2.5e-07 6.17919e-24 0)
(-2.5e-07 -5.00623e-21 0)
(-2.5e-07 9.14921e-22 0)
(-2.5e-07 -2.41538e-22 0)
(-2.5e-07 2.80532e-23 0)
(-2.5e-07 -2.0843e-23 0)
(-2.5e-07 -1.64787e-23 0)
(-2.5e-07 2.14788e-24 0)
(-2.5e-07 1.82864e-23 0)
(-2.5e-07 2.07339e-23 0)
(-2.5e-07 2.72257e-23 0)
(-2.5e-07 3.56658e-23 0)
(-2.5e-07 2.60835e-24 0)
(-2.5e-07 -3.12553e-23 0)
(-2.5e-07 -3.37605e-23 0)
(-2.5e-07 -4.89248e-23 0)
(-2.5e-07 -6.01466e-23 0)
(-2.5e-07 -3.08207e-23 0)
(-2.5e-07 -1.13986e-23 0)
(-2.5e-07 -7.52299e-24 0)
(-2.5e-07 9.48905e-24 0)
(-2.5e-07 3.22064e-20 0)
(-2.5e-07 -6.99462e-21 0)
(-2.5e-07 1.6487e-21 0)
(-2.5e-07 -3.94864e-22 0)
(-2.5e-07 4.91884e-23 0)
(-2.5e-07 -3.11758e-23 0)
(-2.5e-07 2.82416e-23 0)
(-2.5e-07 2.45216e-23 0)
(-2.5e-07 2.19848e-23 0)
(-2.5e-07 2.65683e-23 0)
(-2.5e-07 3.11709e-23 0)
(-2.5e-07 -1.99582e-23 0)
(-2.5e-07 -5.29157e-23 0)
(-2.5e-07 -3.97274e-23 0)
(-2.5e-07 -3.11525e-23 0)
(-2.5e-07 -9.35659e-24 0)
(-2.5e-07 -5.07435e-24 0)
(-2.5e-07 -4.67637e-24 0)
(-2.5e-07 -1.88278e-23 0)
(-2.5e-07 -4.36585e-24 0)
(-2.5e-07 -1.45911e-20 0)
(-2.5e-07 3.23486e-21 0)
(-2.5e-07 -7.47745e-22 0)
(-2.5e-07 1.65803e-22 0)
(-2.5e-07 -4.61718e-23 0)
(-2.5e-07 5.55449e-24 0)
(-2.5e-07 -2.36152e-23 0)
(-2.5e-07 -3.38898e-23 0)
(-2.5e-07 9.82691e-24 0)
(-2.5e-07 1.69109e-23 0)
(-2.5e-07 -1.58942e-23 0)
(-2.5e-07 -2.16449e-23 0)
(-2.5e-07 -9.15075e-24 0)
(-2.5e-07 -1.82997e-23 0)
(-2.5e-07 -3.55617e-23 0)
(-2.5e-07 -1.14468e-23 0)
(-2.5e-07 -9.11128e-24 0)
(-2.5e-07 -1.95114e-23 0)
(-2.5e-07 -1.98108e-23 0)
(-2.5e-07 -1.4286e-23 0)
(-2.5e-07 -2.09789e-20 0)
(-2.5e-07 4.43861e-21 0)
(-2.5e-07 -1.04713e-21 0)
(-2.5e-07 2.34855e-22 0)
(-2.5e-07 -4.02005e-23 0)
(-2.5e-07 1.23011e-23 0)
(-2.5e-07 -1.8236e-23 0)
(-2.5e-07 -3.21212e-23 0)
(-2.5e-07 -7.85822e-24 0)
(-2.5e-07 -2.74746e-23 0)
(-2.5e-07 -5.52939e-23 0)
(-2.5e-07 -3.73719e-23 0)
(-2.5e-07 -1.41907e-24 0)
(-2.5e-07 1.43107e-24 0)
(-2.5e-07 -1.96525e-23 0)
(-2.5e-07 -2.50758e-23 0)
(-2.5e-07 -1.65932e-23 0)
(-2.5e-07 -1.39123e-23 0)
(-2.5e-07 -9.07268e-24 0)
(-2.5e-07 -8.19454e-24 0)
)
;

boundaryField
{
    movingWall
    {
        type            calculated;
        value           uniform (0 0 0);
    }
    fixedWalls
    {
        type            calculated;
        value           uniform (0 0 0);
    }
    frontAndBack
    {
        type            empty;
    }
}


// ************************************************************************* //
