/*--------------------------------*- C++ -*----------------------------------*\
| =========                 |                                                 |
| \\      /  F ield         | OpenFOAM: The Open Source CFD Toolbox           |
|  \\    /   O peration     | Version:  2312                                  |
|   \\  /    A nd           | Website:  www.openfoam.com                      |
|    \\/     M anipulation  |                                                 |
\*---------------------------------------------------------------------------*/
FoamFile
{
    version     2.0;
    format      ascii;
    arch        "LSB;label=32;scalar=64";
    class       volScalarField;
    location    "7.5";
    object      norm_k_field;
}
// * * * * * * * * * * * * * * * * * * * * * * * * * * * * * * * * * * * * * //

dimensions      [0 0 0 0 0 0 0];

internalField   nonuniform List<scalar> 
400
(
3.09806e+09
9.24722e+08
1.18522e+09
1.0453e+09
9.79835e+08
8.96565e+08
8.20936e+08
7.92951e+08
7.90753e+08
7.73861e+08
7.66056e+08
7.41739e+08
7.49112e+08
7.54175e+08
7.5103e+08
7.57339e+08
7.70928e+08
8.20473e+08
9.13806e+08
9.18337e+08
1.1889e+09
4.9657e+09
1.18089e+09
1.15029e+09
9.75246e+08
9.09333e+08
8.4089e+08
8.06879e+08
8.22501e+08
7.96421e+08
7.81483e+08
7.65279e+08
7.51321e+08
7.6466e+08
7.79225e+08
7.92062e+08
8.11053e+08
8.47097e+08
8.88264e+08
9.46327e+08
1.45454e+09
9.22575e+08
1.19616e+09
1.05406e+09
9.77662e+08
9.12133e+08
8.82954e+08
8.56351e+08
8.55351e+08
8.26322e+08
8.09662e+08
7.97129e+08
7.84561e+08
8.11112e+08
8.12415e+08
8.36665e+08
8.68078e+08
8.77229e+08
9.03362e+08
9.50549e+08
1.39148e+09
1.07555e+09
1.15141e+09
1.05518e+09
9.97408e+08
9.71444e+08
9.32459e+08
9.00825e+08
8.85659e+08
8.47938e+08
8.40074e+08
8.32202e+08
8.309e+08
8.22586e+08
8.36426e+08
8.91077e+08
9.0969e+08
9.25473e+08
9.35035e+08
9.12003e+08
1.11411e+09
2.24006e+09
1.14999e+09
1.07779e+09
1.00353e+09
9.95937e+08
9.75286e+08
9.41248e+08
8.95696e+08
8.70244e+08
8.66858e+08
8.62554e+08
8.55699e+08
8.608e+08
8.84523e+08
8.93873e+08
9.43743e+08
9.88876e+08
9.60021e+08
9.32126e+08
1.3816e+09
8.29857e+08
1.11253e+09
1.04844e+09
1.04992e+09
1.00014e+09
9.99459e+08
9.75329e+08
9.22332e+08
9.07441e+08
8.91023e+08
8.88743e+08
8.85421e+08
8.89505e+08
9.33464e+08
9.34749e+08
9.72342e+08
1.01014e+09
9.69714e+08
9.17711e+08
1.20358e+09
8.59869e+08
1.09915e+09
1.09863e+09
1.08698e+09
9.99132e+08
1.02509e+09
1.03469e+09
9.54335e+08
9.08663e+08
8.9074e+08
9.14049e+08
9.12865e+08
9.20275e+08
9.45075e+08
9.60856e+08
9.8595e+08
1.00385e+09
9.59707e+08
9.30276e+08
9.2987e+08
3.48502e+09
1.06821e+09
1.10787e+09
1.0439e+09
1.03856e+09
1.03998e+09
1.00658e+09
9.58422e+08
9.34101e+08
9.27567e+08
9.43534e+08
9.39536e+08
9.43742e+08
9.63355e+08
9.43635e+08
9.78269e+08
1.00532e+09
9.73013e+08
9.52026e+08
1.13166e+09
6.9473e+08
1.05922e+09
1.02165e+09
1.05128e+09
1.05024e+09
1.04574e+09
1.00495e+09
9.80616e+08
9.63628e+08
9.67171e+08
9.74402e+08
9.67626e+08
9.56715e+08
9.78009e+08
9.69321e+08
9.77083e+08
9.99526e+08
9.97792e+08
9.51042e+08
1.03302e+09
1.30947e+09
1.02715e+09
1.0616e+09
1.069e+09
1.03101e+09
1.03957e+09
1.03062e+09
1.00347e+09
9.796e+08
9.89123e+08
9.73947e+08
9.85464e+08
1.00362e+09
9.84505e+08
9.82729e+08
9.992e+08
9.93011e+08
9.84359e+08
9.4712e+08
1.0078e+09
1.24864e+09
1.03921e+09
1.09294e+09
1.05923e+09
1.01871e+09
1.0236e+09
1.06791e+09
1.01758e+09
9.65514e+08
9.89816e+08
1.01968e+09
1.03862e+09
9.93828e+08
9.64749e+08
9.9113e+08
1.01242e+09
1.00049e+09
9.98362e+08
9.49222e+08
1.03011e+09
7.11148e+08
1.07948e+09
1.0702e+09
1.06449e+09
1.01896e+09
1.01529e+09
1.03868e+09
1.03889e+09
9.94218e+08
1.00056e+09
1.02658e+09
1.03161e+09
1.00789e+09
9.75762e+08
9.89468e+08
1.01239e+09
1.0022e+09
9.92467e+08
9.46922e+08
9.13263e+08
2.847e+09
1.0685e+09
1.09234e+09
1.0452e+09
1.04003e+09
1.04771e+09
1.03617e+09
1.0182e+09
9.92885e+08
9.91496e+08
1.01763e+09
1.02294e+09
1.02363e+09
9.80946e+08
9.96204e+08
1.01668e+09
9.72191e+08
9.78189e+08
9.87179e+08
1.07715e+09
7.02969e+08
1.05639e+09
1.03068e+09
1.04205e+09
1.03598e+09
1.03494e+09
1.04339e+09
1.03663e+09
1.00737e+09
1.00132e+09
1.01138e+09
1.05674e+09
1.02824e+09
9.82365e+08
1.00323e+09
1.00892e+09
1.01261e+09
9.93481e+08
9.48455e+08
9.97596e+08
1.17311e+09
1.02421e+09
1.07925e+09
1.02685e+09
1.02449e+09
1.0251e+09
1.03762e+09
1.04644e+09
1.0155e+09
9.96889e+08
9.77228e+08
1.04798e+09
1.02947e+09
9.85736e+08
1.01898e+09
1.00475e+09
1.03956e+09
1.00959e+09
9.52866e+08
9.33595e+08
1.4135e+09
1.05317e+09
1.04451e+09
1.01235e+09
1.0289e+09
1.0351e+09
1.08029e+09
1.06079e+09
1.04247e+09
9.86255e+08
9.6155e+08
1.02773e+09
1.01378e+09
9.95118e+08
9.88621e+08
1.02946e+09
1.03536e+09
1.01012e+09
9.46422e+08
1.14245e+09
7.58784e+08
1.04328e+09
1.03387e+09
1.04391e+09
1.04805e+09
1.02571e+09
1.06902e+09
1.06916e+09
1.03901e+09
9.67286e+08
9.84514e+08
1.03884e+09
1.03284e+09
1.00457e+09
9.57646e+08
9.84295e+08
1.00945e+09
1.01024e+09
9.64106e+08
1.02347e+09
1.05131e+09
1.05701e+09
1.05051e+09
1.05917e+09
1.0259e+09
1.03721e+09
1.0515e+09
1.0395e+09
1.03014e+09
1.02089e+09
1.00229e+09
1.01647e+09
1.01812e+09
9.80442e+08
9.20264e+08
9.59428e+08
1.00615e+09
1.01635e+09
9.81218e+08
9.30159e+08
1.48572e+09
1.04696e+09
1.0539e+09
1.00472e+09
1.01819e+09
1.00371e+09
1.03813e+09
1.02816e+09
1.0462e+09
1.0468e+09
1.00028e+09
9.67532e+08
9.60506e+08
9.61964e+08
9.80137e+08
9.75394e+08
1.00357e+09
1.00647e+09
9.64378e+08
1.20924e+09
8.06979e+08
1.05628e+09
1.0314e+09
1.03294e+09
1.01344e+09
9.88978e+08
9.94503e+08
1.05131e+09
1.03215e+09
9.99259e+08
9.67833e+08
9.91691e+08
9.94251e+08
9.4215e+08
9.54116e+08
9.82428e+08
1.01862e+09
1.02224e+09
9.49662e+08
)
;

boundaryField
{
    movingWall
    {
        type            calculated;
        value           nonuniform List<scalar> 
20
(
1.20924e+09
8.06979e+08
1.05628e+09
1.0314e+09
1.03294e+09
1.01344e+09
9.88978e+08
9.94503e+08
1.05131e+09
1.03215e+09
9.99259e+08
9.67833e+08
9.91691e+08
9.94251e+08
9.4215e+08
9.54116e+08
9.82428e+08
1.01862e+09
1.02224e+09
9.49662e+08
)
;
    }
    fixedWalls
    {
        type            calculated;
        value           nonuniform List<scalar> 
60
(
3.09806e+09
1.1889e+09
1.45454e+09
1.39148e+09
1.11411e+09
1.3816e+09
1.20358e+09
9.2987e+08
1.13166e+09
1.03302e+09
1.0078e+09
1.03011e+09
9.13263e+08
1.07715e+09
9.97596e+08
9.33595e+08
1.14245e+09
1.02347e+09
9.30159e+08
1.20924e+09
9.18337e+08
9.46327e+08
9.50549e+08
9.12003e+08
9.32126e+08
9.17711e+08
9.30276e+08
9.52026e+08
9.51042e+08
9.4712e+08
9.49222e+08
9.46922e+08
9.87179e+08
9.48455e+08
9.52866e+08
9.46422e+08
9.64106e+08
9.81218e+08
9.64378e+08
9.49662e+08
3.09806e+09
9.24722e+08
1.18522e+09
1.0453e+09
9.79835e+08
8.96565e+08
8.20936e+08
7.92951e+08
7.90753e+08
7.73861e+08
7.66056e+08
7.41739e+08
7.49112e+08
7.54175e+08
7.5103e+08
7.57339e+08
7.70928e+08
8.20473e+08
9.13806e+08
9.18337e+08
)
;
    }
    frontAndBack
    {
        type            empty;
    }
}


// ************************************************************************* //
