/*--------------------------------*- C++ -*----------------------------------*\
| =========                 |                                                 |
| \\      /  F ield         | OpenFOAM: The Open Source CFD Toolbox           |
|  \\    /   O peration     | Version:  2312                                  |
|   \\  /    A nd           | Website:  www.openfoam.com                      |
|    \\/     M anipulation  |                                                 |
\*---------------------------------------------------------------------------*/
FoamFile
{
    version     2.0;
    format      ascii;
    arch        "LSB;label=32;scalar=64";
    class       volScalarField;
    location    "7.5";
    object      P_A;
}
// * * * * * * * * * * * * * * * * * * * * * * * * * * * * * * * * * * * * * //

dimensions      [1 -1 -3 0 0 0 0];

internalField   nonuniform List<scalar> 
400
(
1.09972e-32
1.09972e-32
1.09971e-32
1.09971e-32
1.09971e-32
1.09971e-32
1.09971e-32
1.09971e-32
1.09971e-32
1.09971e-32
1.0997e-32
1.0997e-32
1.0997e-32
1.0997e-32
1.0997e-32
1.0997e-32
1.0997e-32
1.0997e-32
1.0997e-32
1.0997e-32
1.21676e-32
1.20064e-32
1.20188e-32
1.20241e-32
1.20345e-32
1.20399e-32
1.20505e-32
1.20561e-32
1.20668e-32
1.20726e-32
1.20836e-32
1.20895e-32
1.21006e-32
1.21067e-32
1.2118e-32
1.21243e-32
1.21357e-32
1.21422e-32
1.2148e-32
1.21571e-32
1.41338e-32
1.39398e-32
1.3955e-32
1.39614e-32
1.39741e-32
1.39806e-32
1.39935e-32
1.40002e-32
1.40133e-32
1.40201e-32
1.40335e-32
1.40403e-32
1.40539e-32
1.40609e-32
1.40747e-32
1.40819e-32
1.40957e-32
1.41032e-32
1.41101e-32
1.41209e-32
1.63377e-32
1.61094e-32
1.6127e-32
1.61347e-32
1.61495e-32
1.61574e-32
1.61723e-32
1.61803e-32
1.61956e-32
1.62036e-32
1.62193e-32
1.62274e-32
1.62434e-32
1.62516e-32
1.62678e-32
1.62763e-32
1.62925e-32
1.63014e-32
1.63095e-32
1.63222e-32
1.8282e-32
1.80227e-32
1.80429e-32
1.80514e-32
1.80683e-32
1.8077e-32
1.80942e-32
1.8103e-32
1.81206e-32
1.81295e-32
1.81474e-32
1.81565e-32
1.81747e-32
1.8184e-32
1.82024e-32
1.8212e-32
1.82305e-32
1.82406e-32
1.82498e-32
1.82642e-32
1.97362e-32
1.94533e-32
1.94752e-32
1.94846e-32
1.95029e-32
1.95126e-32
1.95311e-32
1.9541e-32
1.95599e-32
1.95698e-32
1.95892e-32
1.95992e-32
1.9619e-32
1.96292e-32
1.96492e-32
1.96597e-32
1.96798e-32
1.96908e-32
1.97009e-32
1.97166e-32
2.07137e-32
2.04148e-32
2.04379e-32
2.04477e-32
2.0467e-32
2.04772e-32
2.04967e-32
2.05072e-32
2.05271e-32
2.05378e-32
2.0558e-32
2.05689e-32
2.05894e-32
2.06005e-32
2.06214e-32
2.06327e-32
2.06538e-32
2.06655e-32
2.06761e-32
2.06927e-32
2.13394e-32
2.10302e-32
2.10543e-32
2.10643e-32
2.10845e-32
2.10949e-32
2.11151e-32
2.1126e-32
2.11464e-32
2.11576e-32
2.11784e-32
2.11897e-32
2.12109e-32
2.12224e-32
2.1244e-32
2.12557e-32
2.12775e-32
2.12896e-32
2.13006e-32
2.13177e-32
2.17472e-32
2.14315e-32
2.14556e-32
2.14662e-32
2.14867e-32
2.14974e-32
2.15181e-32
2.15291e-32
2.155e-32
2.15614e-32
2.15826e-32
2.15943e-32
2.16158e-32
2.16276e-32
2.16496e-32
2.16616e-32
2.16839e-32
2.16963e-32
2.17074e-32
2.1725e-32
2.2037e-32
2.17164e-32
2.1741e-32
2.17517e-32
2.17724e-32
2.17833e-32
2.18043e-32
2.18155e-32
2.18367e-32
2.18482e-32
2.18699e-32
2.18815e-32
2.19037e-32
2.19154e-32
2.19379e-32
2.195e-32
2.19727e-32
2.19852e-32
2.19966e-32
2.20144e-32
2.22725e-32
2.19479e-32
2.1973e-32
2.19837e-32
2.20047e-32
2.20156e-32
2.2037e-32
2.20481e-32
2.20698e-32
2.20813e-32
2.21033e-32
2.2115e-32
2.21375e-32
2.21494e-32
2.21721e-32
2.21843e-32
2.22073e-32
2.222e-32
2.22315e-32
2.22495e-32
2.24913e-32
2.21632e-32
2.21885e-32
2.21993e-32
2.22205e-32
2.22316e-32
2.22531e-32
2.22645e-32
2.22863e-32
2.2298e-32
2.23203e-32
2.23321e-32
2.23548e-32
2.23668e-32
2.23898e-32
2.24022e-32
2.24254e-32
2.24382e-32
2.24498e-32
2.24681e-32
2.27156e-32
2.23838e-32
2.24095e-32
2.24203e-32
2.24419e-32
2.24529e-32
2.24749e-32
2.24862e-32
2.25084e-32
2.25201e-32
2.25427e-32
2.25546e-32
2.25775e-32
2.25897e-32
2.26129e-32
2.26255e-32
2.26489e-32
2.26619e-32
2.26736e-32
2.26921e-32
2.29585e-32
2.26227e-32
2.26486e-32
2.26597e-32
2.26814e-32
2.26928e-32
2.27148e-32
2.27264e-32
2.27489e-32
2.27606e-32
2.27836e-32
2.27954e-32
2.28189e-32
2.2831e-32
2.28547e-32
2.28672e-32
2.28911e-32
2.29041e-32
2.29161e-32
2.29347e-32
2.3227e-32
2.28868e-32
2.29129e-32
2.29242e-32
2.29462e-32
2.29577e-32
2.298e-32
2.29917e-32
2.30144e-32
2.30265e-32
2.30496e-32
2.30618e-32
2.30854e-32
2.30978e-32
2.31217e-32
2.31345e-32
2.31586e-32
2.31718e-32
2.31839e-32
2.32028e-32
2.35203e-32
2.31752e-32
2.32019e-32
2.32132e-32
2.32355e-32
2.32471e-32
2.32698e-32
2.32816e-32
2.33047e-32
2.33169e-32
2.33403e-32
2.33527e-32
2.33766e-32
2.33893e-32
2.34134e-32
2.34264e-32
2.34508e-32
2.34643e-32
2.34765e-32
2.34957e-32
2.38262e-32
2.34762e-32
2.35029e-32
2.35146e-32
2.35375e-32
2.3549e-32
2.35723e-32
2.35841e-32
2.36077e-32
2.36199e-32
2.36438e-32
2.36562e-32
2.36805e-32
2.36932e-32
2.37178e-32
2.3731e-32
2.37558e-32
2.37694e-32
2.37818e-32
2.38013e-32
2.41173e-32
2.37624e-32
2.37898e-32
2.38014e-32
2.38244e-32
2.38362e-32
2.38596e-32
2.38718e-32
2.38955e-32
2.3908e-32
2.39322e-32
2.39448e-32
2.39694e-32
2.39824e-32
2.40073e-32
2.40206e-32
2.40458e-32
2.40596e-32
2.40722e-32
2.40919e-32
2.43505e-32
2.39988e-32
2.40254e-32
2.40368e-32
2.40593e-32
2.40709e-32
2.40939e-32
2.41058e-32
2.41294e-32
2.41416e-32
2.41657e-32
2.41782e-32
2.42027e-32
2.42156e-32
2.42405e-32
2.42539e-32
2.42791e-32
2.42931e-32
2.43057e-32
2.43256e-32
2.44577e-32
2.44577e-32
2.44576e-32
2.44576e-32
2.44575e-32
2.44575e-32
2.44575e-32
2.44575e-32
2.44574e-32
2.44574e-32
2.44574e-32
2.44574e-32
2.44574e-32
2.44574e-32
2.44574e-32
2.44574e-32
2.44574e-32
2.44574e-32
2.44574e-32
2.44574e-32
)
;

boundaryField
{
    movingWall
    {
        type            calculated;
        value           nonuniform List<scalar> 
20
(
2.44577e-32
2.44577e-32
2.44576e-32
2.44576e-32
2.44575e-32
2.44575e-32
2.44575e-32
2.44575e-32
2.44574e-32
2.44574e-32
2.44574e-32
2.44574e-32
2.44574e-32
2.44574e-32
2.44574e-32
2.44574e-32
2.44574e-32
2.44574e-32
2.44574e-32
2.44574e-32
)
;
    }
    fixedWalls
    {
        type            calculated;
        value           nonuniform List<scalar> 
60
(
1.09972e-32
1.21676e-32
1.41338e-32
1.63377e-32
1.8282e-32
1.97362e-32
2.07137e-32
2.13394e-32
2.17472e-32
2.2037e-32
2.22725e-32
2.24913e-32
2.27156e-32
2.29585e-32
2.3227e-32
2.35203e-32
2.38262e-32
2.41173e-32
2.43505e-32
2.44577e-32
1.0997e-32
1.21571e-32
1.41209e-32
1.63222e-32
1.82642e-32
1.97166e-32
2.06927e-32
2.13177e-32
2.1725e-32
2.20144e-32
2.22495e-32
2.24681e-32
2.26921e-32
2.29347e-32
2.32028e-32
2.34957e-32
2.38013e-32
2.40919e-32
2.43256e-32
2.44574e-32
1.09972e-32
1.09972e-32
1.09971e-32
1.09971e-32
1.09971e-32
1.09971e-32
1.09971e-32
1.09971e-32
1.09971e-32
1.09971e-32
1.0997e-32
1.0997e-32
1.0997e-32
1.0997e-32
1.0997e-32
1.0997e-32
1.0997e-32
1.0997e-32
1.0997e-32
1.0997e-32
)
;
    }
    frontAndBack
    {
        type            empty;
    }
}


// ************************************************************************* //
