/*--------------------------------*- C++ -*----------------------------------*\
| =========                 |                                                 |
| \\      /  F ield         | OpenFOAM: The Open Source CFD Toolbox           |
|  \\    /   O peration     | Version:  2312                                  |
|   \\  /    A nd           | Website:  www.openfoam.com                      |
|    \\/     M anipulation  |                                                 |
\*---------------------------------------------------------------------------*/
FoamFile
{
    version     2.0;
    format      ascii;
    arch        "LSB;label=32;scalar=64";
    class       surfaceScalarField;
    location    "7.5";
    object      PecletNoField;
}
// * * * * * * * * * * * * * * * * * * * * * * * * * * * * * * * * * * * * * //

dimensions      [0 0 0 0 0 0 0];

oriented        oriented;

internalField   nonuniform List<scalar> 
760
(
445.149
3.90018e-12
445.149
6.22584e-12
445.149
1.88148e-12
445.149
2.93475e-13
445.149
9.3305e-14
445.149
8.52687e-15
445.149
5.65304e-14
445.149
1.79845e-14
445.149
2.58034e-14
445.149
1.54586e-14
445.149
2.85397e-14
445.149
2.33339e-16
445.149
4.61253e-15
445.149
1.55451e-14
445.149
4.24503e-14
445.149
4.72309e-14
445.149
6.15971e-14
445.149
1.0846e-14
445.149
5.32967e-14
2.6347e-14
444.202
4.02638e-12
443.902
5.17864e-12
443.944
1.68708e-12
443.981
2.15895e-13
444.018
6.25315e-14
444.055
3.40718e-15
444.092
1.54693e-14
444.129
2.90088e-14
444.167
3.16705e-14
444.204
1.2357e-14
444.241
3.82027e-15
444.278
5.73644e-15
444.315
2.38765e-14
444.352
4.27335e-14
444.389
2.06959e-14
444.427
1.80174e-14
444.464
1.00571e-14
444.489
5.37045e-14
444.52
7.99381e-14
4.1936e-14
443.261
1.26142e-13
442.945
5.83135e-14
442.991
3.33573e-14
443.03
5.02283e-14
443.069
4.06156e-14
443.109
3.5621e-14
443.148
1.35606e-14
443.187
8.78721e-15
443.226
1.25809e-14
443.265
1.91325e-14
443.304
9.02156e-15
443.343
5.57452e-15
443.382
1.67907e-15
443.421
4.4355e-14
443.46
3.22725e-14
443.498
1.51994e-14
443.537
4.39897e-14
443.563
8.70575e-14
443.595
1.10612e-13
1.22022e-13
442.341
3.21289e-12
442.015
4.25676e-12
442.062
1.16943e-12
442.103
2.46637e-13
442.143
7.93047e-15
442.184
7.95979e-15
442.224
1.7048e-14
442.265
2.97981e-15
442.305
2.50122e-14
442.346
4.95313e-16
442.386
1.20567e-15
442.426
1.30027e-15
442.466
1.75177e-14
442.506
9.36118e-15
442.547
1.25672e-14
442.586
8.46809e-14
442.626
4.11648e-14
442.653
2.86524e-14
442.686
7.73091e-14
1.62866e-14
441.617
4.3143e-12
441.283
5.52174e-12
441.331
1.60643e-12
441.372
3.03715e-13
441.414
4.00306e-14
441.456
1.26173e-14
441.498
4.00769e-14
441.539
4.08998e-14
441.581
1.15004e-14
441.622
2.28612e-14
441.663
6.12285e-15
441.705
4.46953e-14
441.746
1.77242e-14
441.787
4.75849e-15
441.828
2.03654e-15
441.869
3.05975e-14
441.91
3.57248e-14
441.938
3.68747e-14
441.971
6.10999e-14
5.7399e-14
441.119
2.06954e-12
440.779
3.03824e-12
440.828
8.05668e-13
440.87
6.30235e-14
440.913
9.08752e-14
440.955
1.59242e-14
440.998
3.62272e-14
441.04
6.28736e-14
441.082
2.28446e-14
441.124
2.55194e-14
441.167
9.82677e-15
441.209
1.66606e-14
441.25
9.44973e-15
441.292
2.00891e-14
441.334
9.68586e-15
441.376
1.49566e-14
441.418
4.26069e-14
441.446
7.86483e-14
441.48
5.01828e-14
2.25822e-14
440.802
1.28548e-12
440.458
2.56807e-12
440.508
1.06421e-12
440.551
1.27554e-13
440.594
4.77094e-15
440.637
3.07956e-14
440.68
2.32345e-14
440.723
6.85797e-14
440.765
6.65552e-15
440.808
6.68509e-14
440.851
9.88467e-14
440.893
5.93124e-14
440.936
1.26593e-14
440.978
5.45681e-15
441.02
1.4249e-14
441.062
5.09117e-14
441.105
4.70014e-14
441.133
2.73304e-15
441.168
1.49575e-14
7.06359e-15
440.607
3.25136e-12
440.26
4.38716e-12
440.31
1.55252e-12
440.353
2.31601e-13
440.397
1.85507e-16
440.44
3.04657e-14
440.483
9.61211e-15
440.526
2.02397e-14
440.569
2.70914e-14
440.612
6.242e-14
440.655
7.28504e-14
440.698
6.11629e-14
440.741
1.7221e-14
440.783
5.70587e-14
440.826
4.98951e-14
440.868
1.17814e-14
440.911
6.84394e-15
440.94
5.10458e-14
440.974
4.83101e-15
1.08879e-14
440.482
1.02423e-12
440.134
1.92508e-12
440.184
7.7044e-13
440.227
1.19905e-13
440.271
3.86868e-14
440.314
4.79588e-14
440.358
1.50204e-14
440.401
3.39538e-14
440.444
1.50944e-14
440.488
7.48686e-15
440.531
4.43104e-14
440.574
5.46351e-14
440.617
3.83812e-14
440.659
2.80027e-14
440.702
6.09908e-15
440.745
7.19185e-15
440.788
2.62429e-14
440.816
4.17834e-14
440.851
3.36141e-14
1.38965e-14
440.394
1.63127e-13
440.046
2.32967e-13
440.096
1.20721e-14
440.139
4.5293e-14
440.183
1.11286e-13
440.227
7.99599e-14
440.27
5.01644e-14
440.314
4.96877e-14
440.357
2.26129e-14
440.4
2.60428e-14
440.443
5.69664e-14
440.487
1.3914e-13
440.53
1.30687e-13
440.572
1.44847e-14
440.616
7.75502e-14
440.658
1.0033e-14
440.701
6.30272e-15
440.73
9.16332e-15
440.765
1.77993e-14
1.08855e-14
440.324
1.00703e-14
439.975
1.58295e-13
440.025
3.12537e-13
440.069
8.38556e-15
440.112
3.37156e-15
440.156
1.18911e-14
440.2
7.88408e-15
440.243
2.94946e-14
440.287
2.26144e-14
440.33
5.74793e-14
440.373
5.19303e-14
440.417
6.96386e-14
440.46
2.05264e-14
440.503
2.73774e-14
440.546
1.634e-14
440.589
4.41398e-14
440.632
6.4439e-14
440.661
6.05994e-15
440.696
1.78555e-14
6.14193e-15
440.26
5.56292e-13
439.909
1.24856e-12
439.96
8.39846e-13
440.003
9.09524e-14
440.047
4.99056e-14
440.091
6.77851e-14
440.135
7.35164e-14
440.179
8.45727e-15
440.222
4.16666e-14
440.265
2.82358e-14
440.309
7.30584e-14
440.352
8.79148e-14
440.395
3.59699e-14
440.439
2.71794e-14
440.482
1.18721e-14
440.525
1.63034e-14
440.568
2.09951e-14
440.597
6.09855e-14
440.632
2.12916e-14
8.06534e-14
440.194
1.65447e-12
439.843
2.95358e-12
439.893
1.20109e-12
439.937
2.18755e-13
439.981
1.17802e-14
440.025
7.1571e-15
440.069
6.11416e-14
440.113
5.74971e-14
440.156
1.77134e-14
440.2
3.49259e-14
440.243
4.94827e-14
440.287
4.71707e-14
440.33
5.18119e-14
440.373
7.11899e-14
440.417
4.91018e-14
440.46
3.49257e-16
440.503
3.42172e-14
440.532
1.17827e-14
440.567
2.56974e-14
8.52885e-14
440.124
1.87228e-12
439.772
2.61401e-12
439.822
9.17519e-13
439.866
5.68613e-14
439.911
7.33926e-14
439.954
1.40075e-14
439.998
2.94033e-14
440.042
3.64646e-14
440.086
7.25735e-14
440.13
7.26668e-14
440.173
7.07516e-14
440.217
5.2499e-14
440.26
4.78239e-15
440.303
2.67215e-14
440.347
3.28662e-14
440.39
2.54109e-14
440.433
1.04215e-14
440.462
1.80488e-14
440.498
6.40987e-15
5.07456e-15
440.047
2.1241e-12
439.694
2.16932e-12
439.745
5.70905e-13
439.789
1.81384e-13
439.833
1.9627e-14
439.877
2.10379e-14
439.921
2.97192e-14
439.965
5.70562e-15
440.009
4.03448e-15
440.053
7.27219e-15
440.096
6.66933e-14
440.14
4.26535e-14
440.184
2.26627e-14
440.227
2.86249e-14
440.27
3.70618e-14
440.314
4.32596e-14
440.357
5.00437e-14
440.386
1.11332e-14
440.422
4.01051e-15
4.40867e-15
439.964
3.5507e-12
439.61
5.23865e-12
439.661
1.5802e-12
439.705
2.23987e-13
439.749
8.10757e-14
439.793
1.43474e-14
439.838
3.61435e-14
439.882
7.10488e-16
439.926
1.21518e-14
439.97
1.79222e-14
440.013
5.05882e-15
440.057
3.41464e-14
440.101
1.54492e-14
440.144
1.66171e-14
440.188
6.66977e-14
440.231
1.02521e-13
440.275
4.82959e-14
440.304
3.04859e-14
440.34
8.49784e-15
2.58278e-14
439.878
3.91712e-12
439.523
4.65926e-12
439.574
1.2319e-12
439.618
2.78086e-13
439.663
4.13792e-14
439.707
6.87866e-14
439.751
2.63165e-14
439.796
3.42338e-14
439.84
4.06328e-14
439.884
4.87638e-14
439.928
9.3674e-14
439.972
1.81629e-14
440.016
9.4009e-14
440.059
7.2093e-14
440.103
8.3592e-14
440.146
8.57424e-14
440.19
5.75731e-14
440.219
4.3175e-15
440.255
1.69466e-15
2.24615e-15
439.798
2.37908e-12
439.442
2.82415e-12
439.493
8.00732e-13
439.537
1.80304e-13
439.582
5.55745e-14
439.626
2.38947e-14
439.671
6.96134e-15
439.715
7.28358e-15
439.759
1.86699e-14
439.803
4.52217e-14
439.847
1.84471e-14
439.891
2.21117e-14
439.935
7.48008e-14
439.979
9.03362e-14
440.023
5.77665e-14
440.067
3.64712e-14
440.11
1.64928e-14
440.14
1.81432e-14
440.176
5.71613e-14
1.78643e-14
439.741
4.13591e-12
439.391
5.84766e-12
439.44
1.57938e-12
439.484
3.07559e-13
439.527
2.69213e-14
439.57
2.27538e-14
439.613
4.60095e-14
439.657
8.32324e-14
439.7
9.1526e-15
439.743
2.2404e-14
439.787
9.24302e-14
439.83
7.90088e-14
439.873
1.78664e-14
439.917
2.82045e-14
439.96
5.13971e-14
440.004
6.51092e-14
440.047
2.48202e-14
440.077
3.25462e-14
440.112
1.54119e-14
3.52637e-14
440.098
440.098
440.098
440.098
440.098
440.098
440.098
440.098
440.098
440.098
440.098
440.098
440.098
440.098
440.098
440.099
440.099
440.099
440.099
)
;

boundaryField
{
    movingWall
    {
        type            calculated;
        value           uniform 0;
    }
    fixedWalls
    {
        type            calculated;
        value           nonuniform List<scalar> 
60
(
250
250
250
250
250
250
250
250
250
250
250
250
250
250
250
250
250
250
250
250
250
250
250
250
250
250
250
250
250
250
250
250
250
250
250
250
250
250
250
250
0
0
0
0
0
0
0
0
0
0
0
0
0
0
0
0
0
0
0
0
)
;
    }
    frontAndBack
    {
        type            empty;
        value           nonuniform List<scalar> 0();
    }
}


// ************************************************************************* //
