/*--------------------------------*- C++ -*----------------------------------*\
| =========                 |                                                 |
| \\      /  F ield         | OpenFOAM: The Open Source CFD Toolbox           |
|  \\    /   O peration     | Version:  2312                                  |
|   \\  /    A nd           | Website:  www.openfoam.com                      |
|    \\/     M anipulation  |                                                 |
\*---------------------------------------------------------------------------*/
FoamFile
{
    version     2.0;
    format      ascii;
    arch        "LSB;label=32;scalar=64";
    class       volScalarField;
    location    "7.5";
    object      pNear;
}
// * * * * * * * * * * * * * * * * * * * * * * * * * * * * * * * * * * * * * //

dimensions      [0 2 -2 0 0 0 0];

internalField   nonuniform List<scalar> 
400
(
5.62854e-16
4.23596e-15
3.08514e-15
3.63199e-15
3.94144e-15
4.40039e-15
4.8979e-15
5.10605e-15
5.12302e-15
5.25667e-15
5.32042e-15
5.52763e-15
5.46338e-15
5.41999e-15
5.44687e-15
5.39317e-15
5.28048e-15
4.90122e-15
4.29849e-15
4.27235e-15
3.17674e-15
0
3.20491e-15
3.3167e-15
4.09135e-15
4.46032e-15
4.90463e-15
5.15344e-15
5.03645e-15
5.23407e-15
5.35314e-15
5.48761e-15
5.60805e-15
5.49275e-15
5.37133e-15
5.26805e-15
5.12124e-15
4.86077e-15
4.58914e-15
4.24621e-15
2.54411e-15
4.58768e-15
3.3095e-15
3.89039e-15
4.2724e-15
4.65111e-15
4.83773e-15
5.01899e-15
5.02593e-15
5.23754e-15
5.36581e-15
5.46582e-15
5.56934e-15
5.35424e-15
5.34401e-15
5.16009e-15
4.93715e-15
4.8752e-15
4.70523e-15
4.42201e-15
2.84135e-15
3.96967e-15
3.64206e-15
4.06532e-15
4.35855e-15
4.50172e-15
4.73158e-15
4.93279e-15
5.03426e-15
5.30262e-15
5.36153e-15
5.42163e-15
5.43162e-15
5.49657e-15
5.38903e-15
4.99715e-15
4.87441e-15
4.77422e-15
4.71516e-15
4.85949e-15
3.93442e-15
1.45416e-15
3.78023e-15
4.1004e-15
4.47762e-15
4.51931e-15
4.63606e-15
4.83977e-15
5.13666e-15
5.31604e-15
5.34063e-15
5.37219e-15
5.42317e-15
5.38505e-15
5.21376e-15
5.14872e-15
4.82378e-15
4.55797e-15
4.725e-15
4.89633e-15
3.0559e-15
5.75253e-15
4.03662e-15
4.34444e-15
4.33669e-15
4.60226e-15
4.60592e-15
4.74456e-15
5.0745e-15
5.17411e-15
5.28778e-15
5.30383e-15
5.32742e-15
5.29831e-15
5.00166e-15
4.99337e-15
4.76163e-15
4.54602e-15
4.77721e-15
5.10458e-15
3.7124e-15
5.59606e-15
4.15989e-15
4.16226e-15
4.21741e-15
4.67608e-15
4.53216e-15
4.48082e-15
4.94214e-15
5.24074e-15
5.3662e-15
5.20381e-15
5.21175e-15
5.16171e-15
4.99994e-15
4.90139e-15
4.75115e-15
4.64857e-15
4.90839e-15
5.09531e-15
5.14505e-15
6.39618e-16
4.34902e-15
4.15742e-15
4.4733e-15
4.50135e-15
4.49367e-15
4.67593e-15
4.96097e-15
5.11613e-15
5.15907e-15
5.05482e-15
5.08047e-15
5.05336e-15
4.93005e-15
5.05396e-15
4.83958e-15
4.68244e-15
4.8711e-15
5.00052e-15
4.07324e-15
7.26396e-15
4.41994e-15
4.61919e-15
4.46063e-15
4.46596e-15
4.48933e-15
4.7121e-15
4.85368e-15
4.95685e-15
4.93488e-15
4.89082e-15
4.93195e-15
4.99959e-15
4.86888e-15
4.92148e-15
4.87439e-15
4.74248e-15
4.75244e-15
5.03521e-15
4.57614e-15
3.39892e-15
4.60771e-15
4.42568e-15
4.38794e-15
4.58636e-15
4.54021e-15
4.58829e-15
4.73931e-15
4.87913e-15
4.8224e-15
4.91308e-15
4.84389e-15
4.73815e-15
4.84948e-15
4.86003e-15
4.76339e-15
4.7993e-15
4.85026e-15
5.08028e-15
4.73087e-15
3.62546e-15
4.55738e-15
4.2841e-15
4.45211e-15
4.66888e-15
4.64162e-15
4.40749e-15
4.67478e-15
4.98075e-15
4.8338e-15
4.66291e-15
4.55956e-15
4.81008e-15
4.98514e-15
4.82581e-15
4.70324e-15
4.77124e-15
4.78354e-15
5.08295e-15
4.62047e-15
7.14133e-15
4.36318e-15
4.40958e-15
4.43839e-15
4.68136e-15
4.70173e-15
4.57327e-15
4.57198e-15
4.82229e-15
4.78526e-15
4.63859e-15
4.61101e-15
4.74305e-15
4.93206e-15
4.84987e-15
4.71737e-15
4.77552e-15
4.83213e-15
5.11264e-15
5.3553e-15
1.03866e-15
4.43175e-15
4.31309e-15
4.55255e-15
4.58007e-15
4.53901e-15
4.60061e-15
4.69934e-15
4.84457e-15
4.85266e-15
4.70229e-15
4.67263e-15
4.66874e-15
4.91536e-15
4.82474e-15
4.70739e-15
4.96856e-15
4.93194e-15
4.87792e-15
4.40269e-15
7.27848e-15
4.50863e-15
4.64596e-15
4.58412e-15
4.61681e-15
4.62225e-15
4.57666e-15
4.61289e-15
4.77587e-15
4.81067e-15
4.7528e-15
4.50581e-15
4.65838e-15
4.92255e-15
4.79932e-15
4.76661e-15
4.74558e-15
4.85618e-15
5.13419e-15
4.85051e-15
3.9752e-15
4.69821e-15
4.40751e-15
4.6833e-15
4.69632e-15
4.69276e-15
4.62397e-15
4.57644e-15
4.74633e-15
4.85346e-15
4.97118e-15
4.56798e-15
4.66806e-15
4.91945e-15
4.72632e-15
4.80734e-15
4.61288e-15
4.77949e-15
5.12355e-15
5.27122e-15
3.14204e-15
4.55895e-15
4.60492e-15
4.78278e-15
4.68967e-15
4.65545e-15
4.41881e-15
4.51832e-15
4.61522e-15
4.93515e-15
5.0876e-15
4.69553e-15
4.77383e-15
4.88205e-15
4.92069e-15
4.68575e-15
4.65335e-15
4.79459e-15
5.1846e-15
4.14134e-15
6.74097e-15
4.62978e-15
4.68092e-15
4.62612e-15
4.60376e-15
4.72573e-15
4.49365e-15
4.49283e-15
4.65214e-15
5.07113e-15
4.96483e-15
4.6528e-15
4.68561e-15
4.84557e-15
5.13196e-15
4.9659e-15
4.8172e-15
4.81264e-15
5.0908e-15
4.75646e-15
4.60399e-15
4.57352e-15
4.60792e-15
4.5619e-15
4.74219e-15
4.67942e-15
4.60216e-15
4.66669e-15
4.71811e-15
4.76983e-15
4.87681e-15
4.79476e-15
4.78533e-15
5.00761e-15
5.40043e-15
5.13912e-15
4.85403e-15
4.79524e-15
5.00276e-15
5.34917e-15
2.97502e-15
4.6406e-15
4.60335e-15
4.87747e-15
4.79963e-15
4.88316e-15
4.68798e-15
4.74303e-15
4.64394e-15
4.64063e-15
4.90285e-15
5.10258e-15
5.14716e-15
5.1378e-15
5.02396e-15
5.05322e-15
4.88327e-15
4.86627e-15
5.12233e-15
3.88921e-15
6.32637e-15
4.5972e-15
4.73223e-15
4.72369e-15
4.8338e-15
4.97811e-15
4.94489e-15
4.62366e-15
4.72805e-15
4.9166e-15
5.10871e-15
4.96175e-15
4.9464e-15
5.27523e-15
5.19653e-15
5.01796e-15
4.80411e-15
4.7836e-15
5.22559e-15
)
;

boundaryField
{
    movingWall
    {
        type            zeroGradient;
    }
    fixedWalls
    {
        type            calculated;
        value           nonuniform List<scalar> 
60
(
9.54936e-16
2.68976e-15
2.68359e-15
2.96072e-15
3.63868e-15
3.28615e-15
3.82882e-15
4.76938e-15
4.30945e-15
4.52391e-15
4.6911e-15
4.74725e-15
5.10218e-15
4.61275e-15
4.84644e-15
5.03863e-15
4.40309e-15
4.7531e-15
5.04127e-15
4.1082e-15
4.26843e-15
4.2765e-15
4.46126e-15
4.79939e-15
4.92204e-15
5.07195e-15
5.08248e-15
5.01994e-15
5.03677e-15
5.07392e-15
5.087e-15
5.07297e-15
4.95157e-15
5.09415e-15
5.1343e-15
5.16137e-15
5.09166e-15
5.0339e-15
5.11988e-15
5.2101e-15
1.11382e-15
3.51237e-15
3.33979e-15
3.59638e-15
3.96387e-15
4.40617e-15
4.85449e-15
5.07737e-15
5.14052e-15
5.24619e-15
5.34194e-15
5.48691e-15
5.46651e-15
5.43053e-15
5.43478e-15
5.38432e-15
5.24049e-15
4.8677e-15
4.38498e-15
4.27627e-15
)
;
    }
    frontAndBack
    {
        type            empty;
    }
}


// ************************************************************************* //
