/*--------------------------------*- C++ -*----------------------------------*\
| =========                 |                                                 |
| \\      /  F ield         | OpenFOAM: The Open Source CFD Toolbox           |
|  \\    /   O peration     | Version:  2312                                  |
|   \\  /    A nd           | Website:  www.openfoam.com                      |
|    \\/     M anipulation  |                                                 |
\*---------------------------------------------------------------------------*/
FoamFile
{
    version     2.0;
    format      ascii;
    arch        "LSB;label=32;scalar=64";
    class       volScalarField;
    location    "7.5";
    object      QField;
}
// * * * * * * * * * * * * * * * * * * * * * * * * * * * * * * * * * * * * * //

dimensions      [0 0 -2 0 0 0 0];

internalField   nonuniform List<scalar> 
400
(
-3.46503e-23
-1.29853e-23
-2.16e-25
-3.2682e-26
-6.75359e-27
0
-1.81354e-28
-6.1072e-28
0
0
0
2.43567e-28
0
0
-3.84679e-28
-1.76503e-28
0
-9.9161e-28
-7.7987e-28
0
-5.99825e-23
-1.95876e-23
-1.37309e-24
2.24517e-26
-6.72408e-28
1.00056e-27
5.28917e-29
-8.52778e-28
-1.22385e-27
-1.00037e-28
4.12125e-28
3.49658e-28
1.14894e-27
5.53711e-28
-1.13295e-28
1.32645e-28
-1.34201e-27
-1.30021e-27
1.23092e-27
-1.95815e-28
-6.38161e-23
-2.23075e-23
-2.68992e-25
-9.11162e-26
1.06339e-26
-3.4722e-27
8.30019e-28
6.14073e-28
1.88326e-28
-5.23121e-29
5.72318e-29
1.99847e-28
-1.9844e-28
-1.7191e-27
-3.60623e-29
9.64358e-28
1.2259e-27
-7.22571e-29
6.02192e-28
-2.86785e-27
-6.25972e-23
-1.77342e-23
-8.69262e-25
1.05532e-26
-4.61631e-27
2.27781e-27
-2.49148e-28
4.07991e-28
1.15732e-28
-1.9161e-28
-4.38475e-28
3.78254e-28
1.52864e-27
2.06834e-28
-1.30834e-28
-3.16939e-28
2.89991e-28
2.98976e-28
0
-2.51627e-27
-6.22408e-23
-1.72966e-23
-9.50077e-25
-5.48912e-26
-1.1774e-27
0
0
-2.74855e-28
-4.36325e-31
1.53387e-28
0
-3.70692e-28
9.55114e-29
-1.38988e-28
4.80196e-28
1.92591e-28
5.88072e-29
0
0
1.33672e-27
-5.71277e-23
-1.82061e-23
-8.70161e-25
-5.96201e-27
3.35107e-27
0
0
3.57461e-28
1.47376e-27
5.00606e-28
1.04951e-28
-5.46643e-28
-3.1579e-28
-1.21316e-28
0
5.99576e-28
2.78594e-28
-9.92502e-29
-6.28953e-28
-3.1764e-28
-4.39737e-23
-1.82266e-23
2.10027e-25
-4.4087e-26
4.5499e-27
-1.1175e-27
3.58907e-28
-2.05002e-27
6.43814e-28
8.17287e-28
-1.76199e-27
-6.78561e-28
-6.73943e-28
-2.3703e-28
-5.42873e-28
0
-4.48091e-28
3.52922e-28
6.48931e-29
-1.06046e-28
-2.24798e-23
-8.85985e-24
-6.40254e-25
1.07527e-26
-1.9605e-27
2.37954e-28
7.20123e-29
0
3.08974e-27
4.56615e-28
0
0
1.38502e-27
-3.92116e-28
1.32917e-28
-1.34463e-28
-2.73043e-28
-1.46206e-28
1.27394e-28
0
-1.9669e-23
-7.23637e-24
-3.66175e-25
1.55968e-26
0
2.80623e-29
2.28141e-28
-4.67061e-28
-3.55886e-28
1.68824e-32
8.79367e-30
3.67917e-28
3.67075e-28
-3.55189e-28
-3.28415e-28
0
5.63432e-28
0
0
-1.80216e-28
-7.55814e-24
-4.56938e-24
1.80378e-25
1.66636e-27
-4.88285e-27
-6.55177e-28
3.39487e-27
2.9177e-28
-4.02967e-28
6.53556e-28
2.60672e-27
-2.94681e-29
-1.5758e-27
2.90506e-28
-3.21838e-28
0
0
0
-1.93752e-28
6.7094e-29
7.14964e-24
-1.37545e-24
3.86017e-25
3.70263e-26
-1.39736e-27
6.05451e-28
9.27868e-28
2.5794e-28
2.90251e-28
1.07524e-28
3.52417e-27
-1.02693e-27
-6.91692e-28
8.3743e-28
1.46474e-28
-2.73612e-28
-2.72285e-28
-3.24087e-28
-3.05952e-29
1.00763e-28
6.11084e-24
-1.14481e-24
2.14719e-25
-1.57059e-27
1.00608e-26
-1.96304e-27
5.21726e-28
0
-9.91199e-28
2.16858e-28
-9.84274e-28
-4.40396e-27
-1.07888e-27
0
4.22572e-28
-2.35451e-28
0
3.75751e-28
5.89658e-28
-3.07482e-28
4.85214e-24
-4.78125e-25
-1.17701e-25
9.58839e-27
6.06616e-28
-4.97192e-28
-6.1868e-28
1.16837e-27
4.96422e-28
6.49514e-28
4.22845e-28
-6.10516e-28
1.26467e-27
-3.07656e-28
-9.65637e-29
4.57183e-28
0
2.15939e-30
0
-8.16115e-28
-9.98077e-24
-4.88068e-24
-3.04284e-25
4.40742e-26
5.01641e-27
-1.26065e-28
-3.6534e-28
3.36047e-28
-1.22362e-28
3.5401e-28
1.66897e-28
1.14584e-27
8.93037e-28
-6.30218e-29
-3.60115e-28
4.27512e-28
0
-4.36574e-28
4.11805e-28
-4.50727e-28
-4.05534e-23
-1.51993e-23
0
-4.79235e-28
-7.40853e-28
0
2.86479e-28
7.0858e-28
5.66612e-28
-2.73386e-28
0
2.12553e-28
8.58074e-29
-1.39884e-28
-4.75372e-28
-7.72867e-28
-2.05539e-28
0
6.10749e-28
-1.49666e-29
-6.00263e-23
-1.95443e-23
-5.66714e-25
-7.28414e-26
3.09035e-27
-7.26592e-28
4.01444e-29
0
1.75437e-28
-4.61957e-28
-1.06925e-27
-9.57099e-28
3.99804e-28
1.53066e-27
1.53666e-28
-5.05184e-28
-1.00327e-27
-2.45707e-28
0
-1.37932e-28
-6.3109e-23
-1.82436e-23
-1.10602e-24
-3.67931e-26
-3.34238e-27
-6.50328e-28
-6.81134e-28
0
-2.03441e-28
3.23785e-28
-4.31089e-28
7.2556e-28
-1.00378e-27
3.82854e-29
8.58237e-28
-3.29659e-28
0
0
0
0
-6.5741e-23
-2.0633e-23
-4.67746e-25
-7.23546e-26
1.12801e-26
-1.15909e-27
1.81162e-27
-7.01369e-28
4.43813e-29
0
4.49869e-28
2.99796e-27
2.14338e-28
2.35957e-28
3.29281e-28
-2.45265e-28
-5.72233e-28
0
-2.6645e-28
0
-5.62661e-23
-1.63438e-23
-7.59933e-25
-5.77356e-26
8.88799e-27
-9.78237e-28
2.13828e-27
-2.31599e-27
-1.65235e-27
5.2954e-28
-1.45688e-27
-2.61912e-28
-5.58328e-28
-3.19787e-28
-1.486e-28
-6.27633e-28
1.74874e-28
1.58689e-29
-1.62419e-28
-3.69678e-28
-2.38006e-23
-7.11928e-24
-4.5475e-25
1.31464e-26
-4.82588e-27
4.76281e-28
-9.63256e-28
-6.03177e-28
5.03785e-29
-9.14067e-28
-1.86557e-27
-7.51359e-28
4.20703e-28
-2.95938e-29
-1.17341e-27
-3.6281e-28
2.42072e-28
-2.80842e-28
3.75147e-28
-3.00257e-28
)
;

boundaryField
{
    movingWall
    {
        type            calculated;
        value           nonuniform List<scalar> 
20
(
5.38584e-24
3.89835e-24
-1.00914e-24
1.22722e-25
-3.16269e-26
3.51152e-27
-7.10189e-27
8.17296e-29
4.95241e-28
-5.5495e-27
-6.02667e-27
-1.03421e-27
6.8928e-28
-1.74358e-27
-3.20658e-27
-8.70115e-28
5.94915e-28
-4.69757e-28
4.95032e-28
-9.73082e-29
)
;
    }
    fixedWalls
    {
        type            calculated;
        value           nonuniform List<scalar> 
60
(
-1.92023e-22
-3.51727e-22
-3.26456e-22
-3.24126e-22
-3.32908e-22
-3.11623e-22
-2.25029e-22
-1.43942e-22
-1.16115e-22
-4.35166e-23
3.5796e-23
2.54019e-23
4.64563e-24
-6.9326e-23
-2.1034e-22
-3.13387e-22
-3.40395e-22
-3.35584e-22
-3.01635e-22
-1.32332e-22
0
-8.31732e-28
-4.53992e-27
-4.09529e-27
1.90459e-27
0
0
0
-3.06734e-28
6.34034e-30
-2.54087e-28
-7.25039e-28
-1.33712e-27
-8.27207e-28
1.40208e-28
-2.25988e-28
0
4.22329e-28
-6.19556e-28
-4.43287e-28
1.24477e-23
1.1134e-23
-1.91569e-24
1.45736e-25
-4.87212e-26
7.25809e-27
-2.56372e-27
1.0006e-27
1.63151e-27
2.81593e-28
-1.63161e-27
-3.9906e-28
7.36578e-28
-2.18357e-28
-1.53628e-27
-1.17323e-27
0
-2.02473e-27
-6.97307e-28
0
)
;
    }
    frontAndBack
    {
        type            empty;
    }
}


// ************************************************************************* //
