/*--------------------------------*- C++ -*----------------------------------*\
| =========                 |                                                 |
| \\      /  F ield         | OpenFOAM: The Open Source CFD Toolbox           |
|  \\    /   O peration     | Version:  2312                                  |
|   \\  /    A nd           | Website:  www.openfoam.com                      |
|    \\/     M anipulation  |                                                 |
\*---------------------------------------------------------------------------*/
FoamFile
{
    version     2.0;
    format      ascii;
    arch        "LSB;label=32;scalar=64";
    class       surfaceScalarField;
    location    "7.5";
    object      surfaceK;
}
// * * * * * * * * * * * * * * * * * * * * * * * * * * * * * * * * * * * * * //

dimensions      [0 2 -2 0 0 0 0];

internalField   nonuniform List<scalar> 
760
(
4.84181e-06
4.90376e-06
4.84181e-06
4.90376e-06
4.84181e-06
4.90366e-06
4.8418e-06
4.90363e-06
4.8418e-06
4.90356e-06
4.8418e-06
4.90353e-06
4.8418e-06
4.90347e-06
4.8418e-06
4.90344e-06
4.8418e-06
4.90339e-06
4.8418e-06
4.90337e-06
4.8418e-06
4.90333e-06
4.84179e-06
4.90331e-06
4.84179e-06
4.90328e-06
4.84179e-06
4.90327e-06
4.84179e-06
4.90324e-06
4.84179e-06
4.90324e-06
4.84179e-06
4.90322e-06
4.84179e-06
4.90322e-06
4.84179e-06
4.90321e-06
4.90321e-06
4.9657e-06
5.06038e-06
4.96561e-06
5.06038e-06
4.96548e-06
5.06019e-06
4.96538e-06
5.06011e-06
4.96528e-06
5.05997e-06
4.96519e-06
5.05991e-06
4.96511e-06
5.05979e-06
4.96503e-06
5.05973e-06
4.96496e-06
5.05964e-06
4.9649e-06
5.05958e-06
4.96485e-06
5.05951e-06
4.9648e-06
5.05946e-06
4.96476e-06
5.05941e-06
4.96472e-06
5.05937e-06
4.96469e-06
5.05933e-06
4.96467e-06
5.05931e-06
4.96465e-06
5.05928e-06
4.96464e-06
5.05927e-06
4.96463e-06
5.05926e-06
5.05926e-06
5.15506e-06
5.2501e-06
5.15496e-06
5.2501e-06
5.15482e-06
5.24988e-06
5.1547e-06
5.24981e-06
5.1546e-06
5.24965e-06
5.1545e-06
5.24959e-06
5.15441e-06
5.24945e-06
5.15433e-06
5.24939e-06
5.15425e-06
5.24929e-06
5.15419e-06
5.24922e-06
5.15413e-06
5.24915e-06
5.15407e-06
5.24909e-06
5.15402e-06
5.24904e-06
5.15398e-06
5.249e-06
5.15395e-06
5.24896e-06
5.15392e-06
5.24893e-06
5.15391e-06
5.2489e-06
5.15389e-06
5.24889e-06
5.15389e-06
5.24888e-06
5.24888e-06
5.34514e-06
5.4213e-06
5.34502e-06
5.4213e-06
5.34487e-06
5.42107e-06
5.34475e-06
5.42099e-06
5.34464e-06
5.42082e-06
5.34454e-06
5.42075e-06
5.34443e-06
5.42062e-06
5.34435e-06
5.42054e-06
5.34426e-06
5.42044e-06
5.34419e-06
5.42036e-06
5.34412e-06
5.42029e-06
5.34406e-06
5.42022e-06
5.34401e-06
5.42017e-06
5.34397e-06
5.42012e-06
5.34394e-06
5.42008e-06
5.34391e-06
5.42005e-06
5.34389e-06
5.42002e-06
5.34388e-06
5.42001e-06
5.34387e-06
5.42e-06
5.41999e-06
5.49746e-06
5.55055e-06
5.49735e-06
5.55055e-06
5.49719e-06
5.55031e-06
5.49706e-06
5.55022e-06
5.49693e-06
5.55005e-06
5.49683e-06
5.54997e-06
5.49672e-06
5.54983e-06
5.49663e-06
5.54975e-06
5.49654e-06
5.54965e-06
5.49646e-06
5.54957e-06
5.49639e-06
5.54949e-06
5.49633e-06
5.54942e-06
5.49628e-06
5.54937e-06
5.49623e-06
5.54932e-06
5.49619e-06
5.54927e-06
5.49617e-06
5.54924e-06
5.49615e-06
5.54921e-06
5.49613e-06
5.5492e-06
5.49612e-06
5.54919e-06
5.54918e-06
5.60363e-06
5.63769e-06
5.60351e-06
5.63769e-06
5.60334e-06
5.63744e-06
5.60321e-06
5.63735e-06
5.60308e-06
5.63717e-06
5.60297e-06
5.6371e-06
5.60286e-06
5.63694e-06
5.60277e-06
5.63688e-06
5.60268e-06
5.63675e-06
5.6026e-06
5.63669e-06
5.60252e-06
5.63659e-06
5.60246e-06
5.63654e-06
5.6024e-06
5.63646e-06
5.60236e-06
5.63642e-06
5.60232e-06
5.63637e-06
5.60229e-06
5.63634e-06
5.60227e-06
5.63631e-06
5.60225e-06
5.6363e-06
5.60224e-06
5.63628e-06
5.63628e-06
5.67175e-06
5.69292e-06
5.67162e-06
5.69292e-06
5.67145e-06
5.69268e-06
5.67131e-06
5.69258e-06
5.67118e-06
5.6924e-06
5.67106e-06
5.69232e-06
5.67095e-06
5.69215e-06
5.67086e-06
5.6921e-06
5.67076e-06
5.69196e-06
5.67068e-06
5.69191e-06
5.67061e-06
5.69179e-06
5.67054e-06
5.69176e-06
5.67048e-06
5.69166e-06
5.67043e-06
5.69164e-06
5.67039e-06
5.69157e-06
5.67036e-06
5.69156e-06
5.67034e-06
5.69151e-06
5.67033e-06
5.6915e-06
5.67032e-06
5.69149e-06
5.69148e-06
5.7141e-06
5.72765e-06
5.71398e-06
5.72766e-06
5.71381e-06
5.72739e-06
5.71367e-06
5.72731e-06
5.71354e-06
5.72712e-06
5.71341e-06
5.72704e-06
5.7133e-06
5.72688e-06
5.7132e-06
5.72682e-06
5.7131e-06
5.72667e-06
5.71302e-06
5.72663e-06
5.71294e-06
5.7265e-06
5.71288e-06
5.72648e-06
5.71282e-06
5.72637e-06
5.71277e-06
5.72636e-06
5.71273e-06
5.72628e-06
5.7127e-06
5.72627e-06
5.71267e-06
5.72622e-06
5.71266e-06
5.72622e-06
5.71265e-06
5.7262e-06
5.7262e-06
5.74121e-06
5.75072e-06
5.74107e-06
5.75073e-06
5.74089e-06
5.75044e-06
5.74076e-06
5.75037e-06
5.74063e-06
5.75018e-06
5.74051e-06
5.7501e-06
5.7404e-06
5.74993e-06
5.74029e-06
5.74988e-06
5.7402e-06
5.74972e-06
5.74011e-06
5.74969e-06
5.74003e-06
5.74956e-06
5.73997e-06
5.74953e-06
5.73991e-06
5.74943e-06
5.73986e-06
5.74941e-06
5.73982e-06
5.74933e-06
5.73979e-06
5.74932e-06
5.73976e-06
5.74927e-06
5.73975e-06
5.74927e-06
5.73974e-06
5.74925e-06
5.74925e-06
5.76024e-06
5.76789e-06
5.7601e-06
5.76789e-06
5.75992e-06
5.76763e-06
5.75978e-06
5.76754e-06
5.75965e-06
5.76735e-06
5.75953e-06
5.76726e-06
5.75941e-06
5.76711e-06
5.75931e-06
5.76703e-06
5.75921e-06
5.76689e-06
5.75913e-06
5.76684e-06
5.75905e-06
5.76673e-06
5.75898e-06
5.76668e-06
5.75892e-06
5.7666e-06
5.75888e-06
5.76656e-06
5.75883e-06
5.7665e-06
5.7588e-06
5.76648e-06
5.75878e-06
5.76644e-06
5.75876e-06
5.76643e-06
5.75876e-06
5.76641e-06
5.76641e-06
5.77555e-06
5.78262e-06
5.77542e-06
5.78262e-06
5.77524e-06
5.78235e-06
5.7751e-06
5.78226e-06
5.77497e-06
5.78207e-06
5.77485e-06
5.78199e-06
5.77473e-06
5.78183e-06
5.77462e-06
5.78175e-06
5.77453e-06
5.78162e-06
5.77444e-06
5.78156e-06
5.77436e-06
5.78145e-06
5.7743e-06
5.7814e-06
5.77424e-06
5.78132e-06
5.77419e-06
5.78128e-06
5.77414e-06
5.78122e-06
5.77411e-06
5.7812e-06
5.77409e-06
5.78116e-06
5.77408e-06
5.78115e-06
5.77407e-06
5.78113e-06
5.78113e-06
5.78969e-06
5.79687e-06
5.78955e-06
5.79687e-06
5.78937e-06
5.79661e-06
5.78923e-06
5.79651e-06
5.78909e-06
5.79633e-06
5.78897e-06
5.79624e-06
5.78885e-06
5.79608e-06
5.78875e-06
5.796e-06
5.78865e-06
5.79587e-06
5.78857e-06
5.79581e-06
5.78849e-06
5.7957e-06
5.78842e-06
5.79565e-06
5.78836e-06
5.79557e-06
5.78831e-06
5.79553e-06
5.78827e-06
5.79547e-06
5.78824e-06
5.79544e-06
5.78821e-06
5.7954e-06
5.7882e-06
5.79539e-06
5.78819e-06
5.79538e-06
5.79537e-06
5.80406e-06
5.81179e-06
5.80393e-06
5.81179e-06
5.80375e-06
5.81152e-06
5.80361e-06
5.81143e-06
5.80347e-06
5.81124e-06
5.80335e-06
5.81115e-06
5.80323e-06
5.81099e-06
5.80312e-06
5.81091e-06
5.80303e-06
5.81079e-06
5.80294e-06
5.81071e-06
5.80286e-06
5.81062e-06
5.80279e-06
5.81055e-06
5.80273e-06
5.81048e-06
5.80268e-06
5.81043e-06
5.80264e-06
5.81038e-06
5.80261e-06
5.81035e-06
5.80258e-06
5.81031e-06
5.80257e-06
5.8103e-06
5.80256e-06
5.81029e-06
5.81028e-06
5.81951e-06
5.82798e-06
5.81937e-06
5.82798e-06
5.81919e-06
5.8277e-06
5.81905e-06
5.82762e-06
5.81892e-06
5.82742e-06
5.8188e-06
5.82734e-06
5.81868e-06
5.82718e-06
5.81857e-06
5.8271e-06
5.81847e-06
5.82697e-06
5.81839e-06
5.8269e-06
5.81831e-06
5.8268e-06
5.81824e-06
5.82673e-06
5.81818e-06
5.82667e-06
5.81813e-06
5.82661e-06
5.81809e-06
5.82656e-06
5.81805e-06
5.82653e-06
5.81803e-06
5.8265e-06
5.81801e-06
5.82648e-06
5.81801e-06
5.82647e-06
5.82646e-06
5.83645e-06
5.84561e-06
5.83631e-06
5.84561e-06
5.83612e-06
5.84534e-06
5.83598e-06
5.84524e-06
5.83584e-06
5.84505e-06
5.83572e-06
5.84496e-06
5.8356e-06
5.8448e-06
5.83549e-06
5.84472e-06
5.8354e-06
5.84459e-06
5.83531e-06
5.84453e-06
5.83523e-06
5.84442e-06
5.83516e-06
5.84436e-06
5.8351e-06
5.84428e-06
5.83505e-06
5.84424e-06
5.83501e-06
5.84418e-06
5.83497e-06
5.84416e-06
5.83495e-06
5.84411e-06
5.83494e-06
5.8441e-06
5.83493e-06
5.84409e-06
5.84409e-06
5.85477e-06
5.86424e-06
5.85464e-06
5.86425e-06
5.85446e-06
5.86396e-06
5.85431e-06
5.86387e-06
5.85417e-06
5.86369e-06
5.85405e-06
5.86359e-06
5.85393e-06
5.86345e-06
5.85382e-06
5.86335e-06
5.85372e-06
5.86323e-06
5.85363e-06
5.86315e-06
5.85355e-06
5.86305e-06
5.85348e-06
5.86299e-06
5.85342e-06
5.86291e-06
5.85337e-06
5.86287e-06
5.85333e-06
5.8628e-06
5.8533e-06
5.86278e-06
5.85327e-06
5.86274e-06
5.85326e-06
5.86273e-06
5.85325e-06
5.86272e-06
5.86271e-06
5.87372e-06
5.88264e-06
5.87357e-06
5.88264e-06
5.87338e-06
5.88235e-06
5.87325e-06
5.88226e-06
5.87311e-06
5.88208e-06
5.87299e-06
5.88197e-06
5.87287e-06
5.88183e-06
5.87276e-06
5.88174e-06
5.87266e-06
5.88162e-06
5.87257e-06
5.88154e-06
5.87249e-06
5.88144e-06
5.87242e-06
5.88138e-06
5.87236e-06
5.88129e-06
5.8723e-06
5.88125e-06
5.87226e-06
5.88119e-06
5.87223e-06
5.88116e-06
5.8722e-06
5.88113e-06
5.87219e-06
5.88111e-06
5.87218e-06
5.8811e-06
5.88109e-06
5.89156e-06
5.89865e-06
5.89142e-06
5.89865e-06
5.89123e-06
5.89838e-06
5.89109e-06
5.89829e-06
5.89095e-06
5.8981e-06
5.89082e-06
5.898e-06
5.8907e-06
5.89786e-06
5.89059e-06
5.89776e-06
5.89049e-06
5.89764e-06
5.8904e-06
5.89756e-06
5.89032e-06
5.89747e-06
5.89025e-06
5.8974e-06
5.89019e-06
5.89733e-06
5.89014e-06
5.89728e-06
5.89009e-06
5.89722e-06
5.89006e-06
5.89719e-06
5.89004e-06
5.89716e-06
5.89002e-06
5.89714e-06
5.89001e-06
5.89713e-06
5.89712e-06
5.90574e-06
5.90899e-06
5.90561e-06
5.90899e-06
5.90543e-06
5.90885e-06
5.90529e-06
5.90881e-06
5.90515e-06
5.90871e-06
5.90504e-06
5.90866e-06
5.90491e-06
5.90859e-06
5.90481e-06
5.90854e-06
5.90471e-06
5.90849e-06
5.90463e-06
5.90844e-06
5.90455e-06
5.9084e-06
5.90448e-06
5.90836e-06
5.90442e-06
5.90833e-06
5.90436e-06
5.9083e-06
5.90432e-06
5.90828e-06
5.90429e-06
5.90826e-06
5.90426e-06
5.90824e-06
5.90425e-06
5.90823e-06
5.90424e-06
5.90823e-06
5.90822e-06
5.91223e-06
5.91223e-06
5.91223e-06
5.91222e-06
5.91222e-06
5.91222e-06
5.91222e-06
5.91222e-06
5.91221e-06
5.91221e-06
5.91221e-06
5.91221e-06
5.91221e-06
5.91221e-06
5.91221e-06
5.91221e-06
5.91221e-06
5.91221e-06
5.91221e-06
)
;

boundaryField
{
    movingWall
    {
        type            calculated;
        value           nonuniform List<scalar> 
20
(
5.91223e-06
5.91223e-06
5.91223e-06
5.91223e-06
5.91222e-06
5.91222e-06
5.91222e-06
5.91222e-06
5.91221e-06
5.91221e-06
5.91221e-06
5.91221e-06
5.91221e-06
5.91221e-06
5.91221e-06
5.91221e-06
5.91221e-06
5.91221e-06
5.91221e-06
5.91221e-06
)
;
    }
    fixedWalls
    {
        type            calculated;
        value           nonuniform List<scalar> 
60
(
4.84181e-06
4.9657e-06
5.15506e-06
5.34514e-06
5.49746e-06
5.60363e-06
5.67175e-06
5.7141e-06
5.74121e-06
5.76023e-06
5.77555e-06
5.78969e-06
5.80406e-06
5.81951e-06
5.83645e-06
5.85477e-06
5.87371e-06
5.89156e-06
5.90574e-06
5.91223e-06
4.84179e-06
4.96463e-06
5.15389e-06
5.34387e-06
5.49612e-06
5.60224e-06
5.67031e-06
5.71265e-06
5.73974e-06
5.75875e-06
5.77407e-06
5.78819e-06
5.80256e-06
5.818e-06
5.83492e-06
5.85325e-06
5.87218e-06
5.89001e-06
5.90424e-06
5.91221e-06
4.84181e-06
4.84181e-06
4.84181e-06
4.84181e-06
4.8418e-06
4.8418e-06
4.8418e-06
4.8418e-06
4.8418e-06
4.8418e-06
4.8418e-06
4.8418e-06
4.84179e-06
4.84179e-06
4.84179e-06
4.84179e-06
4.84179e-06
4.84179e-06
4.84179e-06
4.84179e-06
)
;
    }
    frontAndBack
    {
        type            empty;
        value           nonuniform List<scalar> 0();
    }
}


// ************************************************************************* //
