/*--------------------------------*- C++ -*----------------------------------*\
| =========                 |                                                 |
| \\      /  F ield         | OpenFOAM: The Open Source CFD Toolbox           |
|  \\    /   O peration     | Version:  2312                                  |
|   \\  /    A nd           | Website:  www.openfoam.com                      |
|    \\/     M anipulation  |                                                 |
\*---------------------------------------------------------------------------*/
FoamFile
{
    version     2.0;
    format      ascii;
    arch        "LSB;label=32;scalar=64";
    class       surfaceScalarField;
    location    "7.5";
    object      surfaceP;
}
// * * * * * * * * * * * * * * * * * * * * * * * * * * * * * * * * * * * * * //

dimensions      [0 2 -2 0 0 0 0];

internalField   nonuniform List<scalar> 
760
(
2.39941e-15
1.86979e-15
3.66055e-15
2.11798e-15
3.35857e-15
3.14503e-15
3.78672e-15
3.47434e-15
4.17092e-15
4.0164e-15
4.64914e-15
4.43036e-15
5.00197e-15
4.90126e-15
5.11453e-15
5.12974e-15
5.18984e-15
5.07973e-15
5.28855e-15
5.24537e-15
5.42402e-15
5.33678e-15
5.4955e-15
5.50762e-15
5.44168e-15
5.53572e-15
5.43343e-15
5.45637e-15
5.42002e-15
5.4091e-15
5.33682e-15
5.33061e-15
5.09085e-15
5.20086e-15
4.59986e-15
4.881e-15
4.28542e-15
4.44382e-15
4.25928e-15
1.58837e-15
2.86042e-15
1.60245e-15
2.29384e-15
3.2608e-15
3.25721e-15
3.70402e-15
3.60354e-15
4.27583e-15
4.18188e-15
4.68247e-15
4.55571e-15
5.02903e-15
4.87118e-15
5.09495e-15
5.08622e-15
5.13526e-15
5.03119e-15
5.2936e-15
5.2358e-15
5.42037e-15
5.35947e-15
5.54783e-15
5.47672e-15
5.5504e-15
5.58869e-15
5.43204e-15
5.4235e-15
5.31969e-15
5.35767e-15
5.19464e-15
5.21407e-15
4.99101e-15
5.0292e-15
4.72495e-15
4.86799e-15
4.41767e-15
4.64719e-15
4.33411e-15
3.5659e-15
2.69273e-15
3.94859e-15
4.27868e-15
3.59995e-15
3.47578e-15
4.0814e-15
3.97786e-15
4.46176e-15
4.31548e-15
4.74442e-15
4.57641e-15
4.92836e-15
4.78465e-15
5.02246e-15
4.97589e-15
5.13174e-15
5.0301e-15
5.30168e-15
5.27008e-15
5.41582e-15
5.36367e-15
5.51758e-15
5.44372e-15
5.46179e-15
5.50048e-15
5.34913e-15
5.42541e-15
5.25205e-15
5.36652e-15
5.04862e-15
5.07862e-15
4.90618e-15
4.90578e-15
4.79022e-15
4.82471e-15
4.56362e-15
4.71019e-15
4.64075e-15
3.40551e-15
3.38788e-15
3.80586e-15
2.71192e-15
3.85369e-15
3.71114e-15
4.21194e-15
4.08286e-15
4.43014e-15
4.41808e-15
4.61665e-15
4.51052e-15
4.83218e-15
4.68382e-15
4.98353e-15
4.88628e-15
5.16844e-15
5.08546e-15
5.33207e-15
5.30933e-15
5.39158e-15
5.35108e-15
5.42662e-15
5.39691e-15
5.4641e-15
5.4274e-15
5.4428e-15
5.44081e-15
5.19309e-15
5.3014e-15
4.93578e-15
5.07294e-15
4.82432e-15
4.8491e-15
4.74469e-15
4.66609e-15
4.78732e-15
4.72008e-15
4.87791e-15
2.69429e-15
3.49516e-15
2.61719e-15
3.60335e-15
3.94031e-15
3.90842e-15
4.28901e-15
4.22242e-15
4.49847e-15
4.40716e-15
4.57769e-15
4.56079e-15
4.73791e-15
4.62099e-15
4.98822e-15
4.79216e-15
5.22635e-15
5.10558e-15
5.32834e-15
5.24507e-15
5.35641e-15
5.31421e-15
5.39768e-15
5.33801e-15
5.40411e-15
5.3753e-15
5.2994e-15
5.34168e-15
5.18124e-15
5.10771e-15
4.98625e-15
5.07105e-15
4.69087e-15
4.7927e-15
4.64149e-15
4.55199e-15
4.81067e-15
4.75111e-15
5.00046e-15
4.40421e-15
3.38415e-15
4.89458e-15
5.6743e-15
4.19053e-15
4.09826e-15
4.34057e-15
4.25335e-15
4.46948e-15
4.27705e-15
4.60409e-15
4.63917e-15
4.67524e-15
4.56904e-15
4.90953e-15
4.61269e-15
5.12431e-15
5.00832e-15
5.23094e-15
5.20742e-15
5.29581e-15
5.32699e-15
5.31563e-15
5.25382e-15
5.31287e-15
5.26959e-15
5.14999e-15
5.23001e-15
4.99752e-15
5.0008e-15
4.8775e-15
4.94738e-15
4.65382e-15
4.75639e-15
4.66161e-15
4.59729e-15
4.9409e-15
4.8428e-15
5.09994e-15
4.65423e-15
4.42872e-15
4.87798e-15
3.11784e-15
4.16107e-15
4.25446e-15
4.18983e-15
4.15984e-15
4.44674e-15
4.34535e-15
4.60412e-15
4.58871e-15
4.50649e-15
4.51292e-15
4.71148e-15
4.57837e-15
5.09144e-15
4.95155e-15
5.30347e-15
5.17844e-15
5.285e-15
5.26264e-15
5.20778e-15
5.12932e-15
5.18673e-15
5.14611e-15
5.08083e-15
5.10753e-15
4.95067e-15
4.96499e-15
4.82627e-15
4.97767e-15
4.69986e-15
4.79536e-15
4.77848e-15
4.66551e-15
5.00185e-15
4.88974e-15
5.04791e-15
2.89233e-15
4.60915e-15
2.49432e-15
3.95179e-15
4.25322e-15
4.38448e-15
4.31536e-15
4.3883e-15
4.48732e-15
4.46696e-15
4.49751e-15
4.48365e-15
4.5848e-15
4.4915e-15
4.81845e-15
4.69401e-15
5.03855e-15
4.90733e-15
5.1376e-15
5.03649e-15
5.10695e-15
5.04698e-15
5.06765e-15
4.97282e-15
5.06691e-15
5.00621e-15
4.9917e-15
5.02648e-15
4.992e-15
4.89946e-15
4.94677e-15
4.98772e-15
4.76101e-15
4.85698e-15
4.77677e-15
4.71246e-15
4.93581e-15
4.81177e-15
5.01787e-15
5.6686e-15
4.32469e-15
5.84195e-15
5.33144e-15
4.51957e-15
4.51382e-15
4.53991e-15
4.52244e-15
4.4633e-15
4.42428e-15
4.47765e-15
4.52616e-15
4.60071e-15
4.51477e-15
4.78289e-15
4.65019e-15
4.90527e-15
4.7965e-15
4.94586e-15
4.91799e-15
4.91285e-15
4.87864e-15
4.91139e-15
4.90195e-15
4.96577e-15
4.88792e-15
4.93424e-15
4.86887e-15
4.89518e-15
4.85918e-15
4.89793e-15
4.89076e-15
4.80843e-15
4.81889e-15
4.74746e-15
4.77089e-15
4.89383e-15
4.80135e-15
5.05774e-15
3.98753e-15
4.65351e-15
4.00331e-15
3.51219e-15
4.51669e-15
4.58254e-15
4.40681e-15
4.35489e-15
4.48715e-15
4.42002e-15
4.56329e-15
4.62762e-15
4.56425e-15
4.59091e-15
4.6638e-15
4.49789e-15
4.80922e-15
4.70704e-15
4.85076e-15
4.92994e-15
4.86774e-15
4.8281e-15
4.87849e-15
4.78799e-15
4.79102e-15
4.70172e-15
4.79382e-15
4.77412e-15
4.85476e-15
4.91731e-15
4.81171e-15
4.84292e-15
4.78135e-15
4.73332e-15
4.82478e-15
4.78527e-15
4.96527e-15
4.8169e-15
5.08161e-15
4.17817e-15
4.67567e-15
4.09142e-15
5.38339e-15
4.42074e-15
4.46028e-15
4.36811e-15
4.34684e-15
4.56049e-15
4.44525e-15
4.65525e-15
4.67512e-15
4.52455e-15
4.67167e-15
4.54113e-15
4.49038e-15
4.82777e-15
4.62338e-15
4.90727e-15
4.90152e-15
4.74835e-15
4.80953e-15
4.61123e-15
4.65075e-15
4.68482e-15
4.58528e-15
4.89761e-15
4.77657e-15
4.90547e-15
4.9586e-15
4.76453e-15
4.83784e-15
4.73724e-15
4.7103e-15
4.77739e-15
4.77338e-15
4.93324e-15
4.80784e-15
5.09779e-15
5.8809e-15
4.98789e-15
5.75225e-15
4.08999e-15
4.38638e-15
4.39746e-15
4.42398e-15
4.36134e-15
4.55987e-15
4.49547e-15
4.69154e-15
4.63072e-15
4.6375e-15
4.62037e-15
4.57263e-15
4.58694e-15
4.69714e-15
4.63566e-15
4.80378e-15
4.83343e-15
4.71193e-15
4.81896e-15
4.6248e-15
4.67044e-15
4.67703e-15
4.64182e-15
4.83756e-15
4.70589e-15
4.89096e-15
4.92371e-15
4.78362e-15
4.8373e-15
4.74645e-15
4.71238e-15
4.80383e-15
4.87204e-15
4.97238e-15
4.88204e-15
4.99528e-15
3.19698e-15
4.87899e-15
2.7352e-15
4.15857e-15
4.37242e-15
4.47019e-15
4.43282e-15
4.47953e-15
4.56631e-15
4.56833e-15
4.55954e-15
4.59844e-15
4.56981e-15
4.58063e-15
4.64998e-15
4.58864e-15
4.77196e-15
4.65611e-15
4.84861e-15
4.81022e-15
4.77747e-15
4.83166e-15
4.68746e-15
4.72755e-15
4.67068e-15
4.58922e-15
4.79205e-15
4.66356e-15
4.87005e-15
4.91896e-15
4.76607e-15
4.81203e-15
4.83798e-15
4.737e-15
4.95025e-15
4.85707e-15
4.90493e-15
4.89406e-15
5.00605e-15
5.84058e-15
4.6266e-15
5.89355e-15
5.62684e-15
4.5773e-15
4.60342e-15
4.61504e-15
4.52673e-15
4.60046e-15
4.63371e-15
4.61953e-15
4.65657e-15
4.59945e-15
4.65751e-15
4.59477e-15
4.60032e-15
4.69438e-15
4.59466e-15
4.79327e-15
4.7611e-15
4.78174e-15
4.83207e-15
4.6293e-15
4.86199e-15
4.58209e-15
4.53689e-15
4.79047e-15
4.66322e-15
4.86093e-15
4.921e-15
4.78296e-15
4.76282e-15
4.7561e-15
4.78698e-15
4.80088e-15
4.67923e-15
4.99519e-15
4.81784e-15
5.12887e-15
4.41285e-15
5.06086e-15
4.33671e-15
3.55862e-15
4.55286e-15
4.62858e-15
4.5454e-15
4.50621e-15
4.68981e-15
4.73304e-15
4.69454e-15
4.693e-15
4.65837e-15
4.67411e-15
4.60021e-15
4.52139e-15
4.66138e-15
4.54738e-15
4.79989e-15
4.68077e-15
4.91232e-15
4.89431e-15
4.76958e-15
5.02939e-15
4.61802e-15
4.63175e-15
4.79376e-15
4.72095e-15
4.82289e-15
4.90075e-15
4.76683e-15
4.82351e-15
4.71011e-15
4.74654e-15
4.69619e-15
4.63312e-15
4.95152e-15
4.78704e-15
5.15408e-15
4.20663e-15
4.70628e-15
3.85049e-15
4.9415e-15
4.58193e-15
4.59436e-15
4.69385e-15
4.64292e-15
4.73623e-15
4.70445e-15
4.67256e-15
4.64672e-15
4.53713e-15
4.69059e-15
4.46856e-15
4.45623e-15
4.56677e-15
4.50558e-15
4.77519e-15
4.63368e-15
5.01137e-15
5.00314e-15
4.89156e-15
5.02621e-15
4.73468e-15
4.67417e-15
4.82794e-15
4.72972e-15
4.90137e-15
4.86381e-15
4.80322e-15
5.02633e-15
4.66955e-15
4.82582e-15
4.72397e-15
4.73528e-15
4.9896e-15
4.80362e-15
5.1377e-15
5.44116e-15
4.4489e-15
5.68538e-15
5.67248e-15
4.65535e-15
4.60165e-15
4.65352e-15
4.64442e-15
4.61494e-15
4.59401e-15
4.66475e-15
4.67298e-15
4.60969e-15
4.70257e-15
4.49324e-15
4.5479e-15
4.57249e-15
4.57976e-15
4.86164e-15
4.68513e-15
5.01798e-15
4.92048e-15
4.80882e-15
4.92082e-15
4.66921e-15
4.72378e-15
4.76559e-15
4.73547e-15
4.98877e-15
4.92659e-15
5.04893e-15
5.26619e-15
4.89155e-15
5.05251e-15
4.81492e-15
4.83562e-15
4.95172e-15
4.80394e-15
5.04678e-15
4.68022e-15
5.05282e-15
4.58875e-15
3.7895e-15
4.59072e-15
4.60706e-15
4.58491e-15
4.60563e-15
4.65204e-15
4.71968e-15
4.71081e-15
4.77091e-15
4.64079e-15
4.78129e-15
4.63443e-15
4.64507e-15
4.6924e-15
4.70486e-15
4.74397e-15
4.68103e-15
4.82332e-15
4.70523e-15
4.83579e-15
4.88983e-15
4.79004e-15
4.94867e-15
4.89647e-15
4.96624e-15
5.20402e-15
5.0727e-15
5.26977e-15
5.21219e-15
4.99657e-15
5.09617e-15
4.82463e-15
4.86865e-15
4.899e-15
4.83075e-15
5.06254e-15
4.16209e-15
4.61919e-15
3.80781e-15
4.65069e-15
4.62197e-15
4.6189e-15
4.74041e-15
4.66779e-15
4.83855e-15
4.80058e-15
4.84139e-15
4.81671e-15
4.78557e-15
4.93063e-15
4.71551e-15
4.81644e-15
4.69348e-15
4.68335e-15
4.64228e-15
4.68599e-15
4.77174e-15
4.77861e-15
5.00272e-15
5.00578e-15
5.12487e-15
5.03216e-15
5.14248e-15
5.04678e-15
5.08088e-15
5.20652e-15
5.03859e-15
5.11024e-15
4.96825e-15
5.03559e-15
4.87477e-15
4.84369e-15
4.9943e-15
4.82493e-15
5.17396e-15
5.10779e-15
5.46179e-15
4.66472e-15
4.72796e-15
4.77874e-15
4.90596e-15
4.9615e-15
4.78428e-15
4.67586e-15
4.82232e-15
5.01265e-15
5.03523e-15
4.95407e-15
5.11082e-15
5.23588e-15
5.10725e-15
4.91104e-15
4.79386e-15
5.0046e-15
)
;

boundaryField
{
    movingWall
    {
        type            calculated;
        value           nonuniform List<scalar> 
20
(
3.88921e-15
6.32637e-15
4.5972e-15
4.73223e-15
4.72369e-15
4.8338e-15
4.97811e-15
4.94489e-15
4.62366e-15
4.72805e-15
4.9166e-15
5.10871e-15
4.96175e-15
4.9464e-15
5.27523e-15
5.19653e-15
5.01796e-15
4.80411e-15
4.7836e-15
5.22559e-15
)
;
    }
    fixedWalls
    {
        type            calculated;
        value           nonuniform List<scalar> 
60
(
5.62854e-16
3.17674e-15
2.54411e-15
2.84135e-15
3.93442e-15
3.0559e-15
3.7124e-15
5.14505e-15
4.07324e-15
4.57614e-15
4.73087e-15
4.62047e-15
5.3553e-15
4.40269e-15
4.85051e-15
5.27122e-15
4.14134e-15
4.75646e-15
5.34917e-15
3.88921e-15
4.27235e-15
4.24621e-15
4.42201e-15
4.85949e-15
4.89633e-15
5.10458e-15
5.09531e-15
5.00052e-15
5.03521e-15
5.08028e-15
5.08295e-15
5.11264e-15
4.87792e-15
5.13419e-15
5.12355e-15
5.1846e-15
5.0908e-15
5.00276e-15
5.12233e-15
5.22559e-15
5.62854e-16
4.23596e-15
3.08514e-15
3.63199e-15
3.94144e-15
4.40039e-15
4.8979e-15
5.10605e-15
5.12302e-15
5.25667e-15
5.32042e-15
5.52763e-15
5.46338e-15
5.41999e-15
5.44687e-15
5.39317e-15
5.28048e-15
4.90122e-15
4.29849e-15
4.27235e-15
)
;
    }
    frontAndBack
    {
        type            empty;
        value           nonuniform List<scalar> 0();
    }
}


// ************************************************************************* //
