/*--------------------------------*- C++ -*----------------------------------*\
| =========                 |                                                 |
| \\      /  F ield         | OpenFOAM: The Open Source CFD Toolbox           |
|  \\    /   O peration     | Version:  2312                                  |
|   \\  /    A nd           | Website:  www.openfoam.com                      |
|    \\/     M anipulation  |                                                 |
\*---------------------------------------------------------------------------*/
FoamFile
{
    version     2.0;
    format      ascii;
    arch        "LSB;label=32;scalar=64";
    class       surfaceScalarField;
    location    "7.5";
    object      surfaceDivU;
}
// * * * * * * * * * * * * * * * * * * * * * * * * * * * * * * * * * * * * * //

dimensions      [0 0 -1 0 0 0 0];

internalField   nonuniform List<scalar> 
760
(
6.74288e-12
-6.93889e-12
-8.16391e-13
9.17768e-13
1.15996e-13
-2.0388e-13
-4.85949e-14
1.34654e-13
1.65589e-14
-3.21959e-14
-1.79442e-16
8.31371e-15
4.84856e-15
-1.03401e-14
7.52452e-15
-4.33885e-15
-3.27185e-15
2.39739e-14
-5.77975e-15
-7.414e-15
1.34693e-15
-6.0792e-15
5.74346e-15
1.89489e-15
7.90902e-15
-7.6149e-16
-1.00955e-15
1.05969e-14
-1.03958e-14
-1.54136e-14
8.78218e-15
-1.23734e-14
-1.31252e-14
1.3834e-14
-5.93474e-15
-9.47574e-15
1.9912e-14
-1.21868e-14
1.35525e-14
-1.2764e-11
-7.5081e-12
1.53028e-12
8.78328e-13
-1.85223e-13
-1.81233e-13
1.51053e-13
9.88069e-14
-4.04411e-14
-4.09656e-14
-1.84691e-15
8.397e-15
-1.95275e-14
-6.00071e-15
1.21106e-14
-1.20893e-14
1.98318e-14
1.80984e-14
-7.71345e-15
-6.59351e-15
-5.53124e-15
-5.42977e-15
-4.61007e-15
-7.19e-16
1.92635e-15
-3.51683e-14
-3.8072e-15
2.81705e-14
-1.73911e-14
-1.12903e-14
-7.3215e-15
-1.06466e-14
1.74835e-14
3.98026e-15
-1.57278e-14
3.79962e-14
-1.85463e-14
-7.08431e-14
4.06576e-14
6.13423e-12
1.15332e-11
-8.33183e-13
-1.32968e-12
1.02796e-13
2.44331e-13
-9.32117e-14
-1.11884e-13
7.87253e-15
2.67596e-14
4.24321e-15
1.38753e-14
1.43748e-15
5.81204e-15
-6.10146e-15
1.30143e-15
-8.3269e-15
-6.25646e-15
-4.30983e-15
-1.9995e-15
-6.17528e-16
-1.42935e-16
-3.12773e-14
3.08357e-16
-8.92423e-15
-3.36621e-14
2.06874e-14
1.73737e-14
-4.54573e-15
-8.52204e-15
6.55194e-16
8.59012e-16
2.4493e-14
9.11638e-15
-1.71191e-14
1.08281e-14
-1.16393e-14
-3.18073e-14
5.6798e-29
4.06929e-12
-6.87113e-12
-2.52163e-13
8.98144e-13
2.96508e-14
-1.79972e-13
8.08749e-15
6.0307e-14
3.27624e-14
2.10155e-14
1.54441e-14
1.68945e-14
5.67599e-15
1.23375e-14
1.14643e-15
-2.74768e-15
7.09423e-17
4.47441e-16
2.16739e-15
-1.28932e-14
7.82951e-16
-2.51209e-15
-2.07643e-15
5.46272e-15
-7.36415e-15
-4.35662e-15
-1.18357e-14
-5.79036e-15
-3.1173e-15
-2.27067e-14
9.3202e-15
-2.20848e-14
-4.54856e-15
3.76281e-14
-3.86013e-15
-6.38489e-15
-2.0168e-14
7.58317e-15
-1.35525e-14
-1.00423e-11
-1.81604e-12
9.70336e-13
2.88637e-13
-1.49316e-13
-4.53552e-14
7.3235e-14
-1.7964e-14
5.14766e-15
2.70098e-14
1.37879e-14
5.0047e-15
3.91383e-15
2.95208e-15
-3.44668e-15
-1.29195e-14
-1.25167e-14
2.19355e-15
-1.75727e-14
1.26677e-15
2.16768e-15
2.23248e-15
3.18253e-15
8.17492e-15
-2.78283e-15
-1.46291e-15
-1.66613e-14
4.92684e-15
-4.16742e-14
-1.41967e-14
6.22308e-15
-3.25812e-14
3.57917e-14
3.33215e-14
5.05841e-15
2.05462e-14
1.41987e-14
-5.3486e-15
-1.26218e-29
8.51488e-12
1.13841e-11
-7.27054e-13
-1.69505e-12
8.59964e-14
3.26851e-13
-6.41892e-14
-1.23148e-13
2.68668e-14
3.90438e-14
-5.83112e-15
-1.31044e-14
-1.38813e-14
-2.29414e-14
-7.27931e-15
2.58192e-14
1.5977e-14
1.65857e-14
2.1072e-14
1.43276e-14
8.23972e-15
-1.53937e-14
3.52947e-15
1.68668e-14
6.24675e-15
4.76354e-15
7.39153e-15
3.70145e-15
-5.10365e-15
1.52563e-14
-5.48282e-15
2.94841e-15
1.80759e-14
-3.35617e-15
1.01392e-14
2.30121e-14
-1.95473e-14
-2.11213e-14
-2.71051e-14
1.1742e-12
-9.63585e-12
-6.4114e-13
1.25095e-12
1.17707e-13
-2.19822e-13
-1.99146e-14
1.31504e-13
-9.2737e-16
-3.72803e-14
-3.02147e-14
-5.28469e-15
1.6759e-14
-3.55908e-14
4.96842e-14
2.98353e-14
1.49362e-14
2.13714e-14
-2.2138e-14
-2.57497e-15
-6.76666e-15
-2.08325e-14
1.81008e-14
1.19049e-14
2.21823e-15
4.66261e-15
1.15662e-14
3.58143e-15
2.33083e-14
3.27508e-14
5.07507e-15
-1.70396e-14
1.57996e-15
-9.40365e-15
-8.24841e-15
2.59603e-14
-2.86791e-14
-1.76441e-14
-1.35525e-14
-9.55909e-12
-1.35525e-12
1.67227e-12
3.08775e-13
-2.06026e-13
-3.84205e-14
1.14138e-13
2.52293e-14
-4.16376e-14
-2.6593e-14
-1.06608e-14
-1.51489e-14
-2.25144e-14
-8.21961e-15
1.52259e-15
2.02346e-15
3.86019e-15
9.26387e-15
-1.26944e-15
-1.49837e-14
-2.16095e-15
-3.39045e-15
-1.53332e-15
9.92298e-17
6.02581e-15
1.40365e-14
2.4766e-14
-8.6749e-15
-7.59719e-15
2.6309e-14
-3.15183e-14
-2.69674e-14
1.49766e-14
-9.12986e-15
1.65646e-14
2.3325e-14
-2.51753e-15
-5.69523e-15
0
8.51262e-12
6.83047e-12
-1.40192e-12
-1.07445e-12
1.92835e-13
2.2239e-13
-1.15502e-13
-9.68739e-14
-1.04213e-16
2.92153e-14
-1.27078e-14
-2.80907e-14
1.63183e-14
1.59822e-14
9.76474e-15
1.29557e-14
-9.57997e-15
6.84168e-15
-1.71047e-14
-1.24839e-14
-1.13027e-15
-6.91803e-16
1.56691e-14
-8.13669e-15
-6.64163e-16
-4.98216e-15
-7.13192e-15
1.60865e-14
6.93882e-15
2.56241e-14
-4.57888e-15
-2.65011e-15
-7.81534e-16
-1.13341e-14
1.06513e-15
1.36738e-14
-3.1777e-15
-1.63338e-14
0
-2.75659e-12
-5.39391e-12
5.49854e-13
1.26548e-12
-6.73189e-14
-2.13017e-13
4.78432e-14
9.64775e-14
1.22884e-15
-1.47311e-15
5.99303e-16
-1.79664e-14
1.26196e-14
7.19292e-15
1.00327e-14
3.41715e-14
3.93779e-15
8.05879e-15
3.929e-15
-3.22379e-14
-7.69823e-15
-1.98711e-15
-2.8788e-14
-1.29029e-14
1.17685e-14
-1.04308e-14
4.88425e-14
5.45038e-15
1.60352e-14
1.48374e-14
-9.40529e-15
2.31409e-15
3.12126e-15
1.19743e-14
-3.72519e-15
7.29778e-15
-1.31561e-14
-9.06749e-15
0
-1.37183e-12
3.80826e-12
5.02612e-13
-8.78369e-13
-4.92203e-14
1.59394e-13
4.71612e-14
-5.24509e-14
-2.06683e-14
2.57343e-14
-1.13727e-14
-2.89502e-14
2.87447e-14
-1.96833e-14
3.21976e-14
2.03328e-14
-2.81169e-14
2.77699e-14
-3.8154e-14
-5.04772e-14
-7.19174e-15
-5.95739e-15
5.45432e-15
9.18015e-15
-1.67489e-14
4.11665e-15
-2.85548e-14
-1.54796e-14
1.11629e-15
2.10189e-15
2.36937e-14
1.61015e-15
1.61508e-14
2.40882e-14
1.95547e-15
-8.22058e-15
4.08865e-15
1.67844e-14
-1.35525e-14
4.30172e-12
-3.7676e-12
-1.22159e-12
6.22693e-13
1.56163e-13
-1.49593e-13
-7.38778e-14
6.12479e-14
1.74524e-14
1.07659e-14
-3.72607e-14
-1.26622e-14
-2.80952e-14
1.30834e-14
1.59051e-14
-2.47594e-15
5.40969e-15
1.31043e-14
-1.82805e-14
-1.42389e-14
1.04145e-14
-1.45464e-14
7.84248e-15
1.26644e-14
5.38594e-15
-1.23633e-14
1.5177e-14
7.04455e-15
2.59575e-15
-1.10307e-14
2.00471e-15
-3.41339e-15
-2.83159e-16
1.27161e-14
6.60839e-15
-1.06297e-14
-8.56737e-16
4.47935e-15
1.35525e-14
-7.44663e-12
-2.84603e-13
1.69469e-12
4.9891e-13
-2.44508e-13
-9.79082e-14
1.45892e-13
3.98334e-14
-1.93488e-14
-6.24525e-15
3.76819e-14
4.17729e-17
3.87027e-14
1.31148e-14
-5.27672e-15
8.92902e-15
-6.54427e-15
5.32375e-15
-1.05048e-14
4.2203e-15
-1.22965e-14
-1.46822e-14
-7.54138e-15
4.91452e-15
-1.07047e-14
9.07021e-15
-1.91632e-14
-6.10548e-15
-1.70399e-14
-2.40526e-14
7.29797e-15
7.3519e-16
2.36955e-15
6.66128e-15
-1.27587e-14
-1.61196e-14
1.88886e-14
1.3829e-15
1.35525e-14
7.66094e-12
7.61652e-12
-1.29368e-12
-1.16725e-12
1.86434e-13
2.17504e-13
-1.12303e-13
-5.6223e-14
1.31453e-14
1.94697e-14
-2.45253e-14
-6.43778e-15
-1.66589e-14
-1.6526e-14
1.95295e-14
1.24791e-14
1.60883e-14
2.23406e-14
4.293e-17
-6.50443e-15
2.52886e-15
-1.71904e-15
2.15261e-14
-1.61128e-14
1.36694e-14
4.49385e-14
-1.09949e-14
-6.8305e-15
-6.27757e-15
-2.67732e-14
9.84957e-17
1.9965e-14
-1.18279e-14
-2.39209e-14
-1.97801e-15
-1.12563e-14
-3.95318e-15
3.83844e-14
-1.35525e-14
-1.21167e-12
-1.0056e-11
3.43942e-13
1.30619e-12
-2.51524e-14
-2.77762e-13
7.55501e-14
1.48581e-13
-1.13348e-16
-2.22572e-14
1.5616e-15
-6.54772e-15
1.26121e-14
1.09717e-14
1.52902e-14
1.07152e-14
-2.52141e-16
1.30282e-14
-8.2664e-15
1.96961e-16
-2.03607e-14
4.6557e-15
7.29956e-15
-4.39274e-14
2.44386e-14
2.10879e-14
-2.26088e-14
-1.43322e-14
-5.30681e-16
-3.89053e-14
-4.05446e-15
1.31867e-14
-2.33493e-14
-2.38417e-15
2.91061e-14
9.66208e-15
2.8785e-14
2.80377e-14
-1.35525e-14
-7.53811e-12
2.50722e-12
6.84491e-13
-1.61753e-13
-1.04028e-13
2.0156e-14
5.07741e-14
2.57081e-15
-2.86916e-14
-1.94898e-14
2.86237e-15
1.40415e-14
9.07485e-15
-1.07958e-15
8.45318e-15
1.12414e-14
1.34773e-14
-1.27879e-14
1.31191e-14
4.91018e-15
-1.8911e-14
5.22998e-15
-3.0139e-14
-2.77961e-14
-1.76828e-14
1.80105e-14
-3.06286e-14
5.37557e-16
-2.51879e-14
-2.12216e-14
1.4857e-14
-2.03299e-14
3.06273e-14
1.41072e-14
8.59376e-15
6.12606e-15
-1.42998e-14
-6.01745e-15
-1.35525e-14
9.88358e-12
9.33769e-12
-8.26088e-13
-9.65007e-13
1.26755e-13
1.90572e-13
-6.76931e-14
-7.85169e-14
2.32432e-14
3.33775e-14
1.00995e-14
-1.10263e-15
1.08697e-15
-6.54936e-15
-9.99973e-15
6.68796e-15
-2.1355e-14
-2.57515e-14
-2.9789e-15
-7.65039e-15
-3.65515e-15
2.87017e-15
2.03534e-14
-2.53431e-14
3.62309e-14
2.49626e-14
9.94453e-15
1.43546e-14
-1.63636e-14
-2.25325e-15
-2.10796e-14
-1.80613e-14
-1.0394e-14
-2.35687e-14
-8.48514e-15
-8.05254e-15
-5.27015e-15
1.41072e-14
0
-1.51089e-12
-1.11402e-11
5.16538e-14
9.31819e-13
-1.46994e-14
-1.92336e-13
2.25537e-14
6.14245e-14
9.03159e-15
-1.66712e-14
-1.77515e-14
-1.51057e-14
-9.48363e-16
-7.44496e-15
-9.06383e-15
1.20292e-14
-1.20469e-14
-6.79645e-15
-1.80132e-15
-6.9694e-15
-1.88178e-14
1.59228e-14
-2.07339e-14
-6.57145e-15
3.08633e-15
-9.74728e-16
2.15679e-15
-1.49792e-14
-3.95098e-15
2.71938e-15
-2.05503e-14
1.56399e-14
-2.12272e-14
-2.15305e-14
1.45398e-14
2.03025e-15
1.93773e-14
1.36006e-14
0
-8.69746e-12
-2.968e-12
6.87829e-13
1.11679e-13
-1.16212e-13
-2.01613e-14
2.21997e-14
1.23691e-14
-4.08084e-14
-3.0827e-14
-4.79911e-15
3.57112e-15
5.53262e-15
5.18229e-15
1.42966e-14
1.39029e-14
-1.71899e-15
3.93738e-16
1.07547e-14
1.14398e-14
2.81691e-14
-6.85095e-16
1.31877e-14
-1.18034e-14
-1.90402e-14
-2.11397e-15
-1.44166e-14
1.01788e-14
2.23102e-14
2.50969e-15
1.46596e-14
1.98005e-14
1.7269e-15
-5.14089e-15
1.0911e-15
-6.68473e-15
-5.7767e-15
7.77583e-15
-2.71051e-14
5.84114e-12
-5.96311e-13
1.0842e-13
-4.06576e-14
1.35525e-14
1.35525e-14
1.35525e-14
0
1.35525e-14
7.25752e-29
-4.06576e-14
-2.71051e-14
2.71051e-14
2.71051e-14
0
0
-1.35525e-14
2.1457e-28
-1.35525e-14
)
;

boundaryField
{
    movingWall
    {
        type            calculated;
        value           nonuniform List<scalar> 
20
(
1.32002e-11
-1.51788e-12
3.25261e-13
-1.0842e-13
2.71051e-14
0
2.71051e-14
0
0
2.71051e-14
-2.71051e-14
-5.42101e-14
0
5.42101e-14
0
0
0
-2.71051e-14
2.71051e-14
-5.42101e-14
)
;
    }
    fixedWalls
    {
        type            calculated;
        value           nonuniform List<scalar> 
60
(
1.5477e-11
-2.93548e-11
1.43386e-11
8.72783e-12
-2.24701e-11
1.8838e-11
3.93023e-12
-2.32019e-11
2.04914e-11
-6.83047e-12
-3.95734e-12
1.15739e-11
-1.91091e-11
1.85399e-11
-3.30682e-12
-1.68051e-11
2.18196e-11
-3.14419e-12
-1.91362e-11
1.32002e-11
0
2.71051e-14
5.42101e-14
-5.42101e-14
2.71051e-14
-2.71051e-14
-2.71051e-14
0
0
0
0
-2.71051e-14
5.42101e-14
-2.71051e-14
0
-2.71051e-14
0
0
0
-5.42101e-14
1.5477e-11
-1.99124e-12
3.58454e-13
-1.26461e-13
2.92717e-14
3.84608e-15
-4.20497e-15
1.39021e-14
1.14696e-15
-7.69066e-15
-3.86884e-15
6.56271e-15
4.92422e-15
1.08938e-14
-1.29129e-14
-7.87876e-15
2.54431e-14
-5.16935e-14
3.9824e-14
0
)
;
    }
    frontAndBack
    {
        type            empty;
        value           nonuniform List<scalar> 0();
    }
}


// ************************************************************************* //
