/*--------------------------------*- C++ -*----------------------------------*\
| =========                 |                                                 |
| \\      /  F ield         | OpenFOAM: The Open Source CFD Toolbox           |
|  \\    /   O peration     | Version:  2312                                  |
|   \\  /    A nd           | Website:  www.openfoam.com                      |
|    \\/     M anipulation  |                                                 |
\*---------------------------------------------------------------------------*/
FoamFile
{
    version     2.0;
    format      ascii;
    arch        "LSB;label=32;scalar=64";
    class       volScalarField;
    location    "7.5";
    object      turbulenceProperties:nut;
}
// * * * * * * * * * * * * * * * * * * * * * * * * * * * * * * * * * * * * * //

dimensions      [0 2 -1 0 0 0 0];

internalField   nonuniform List<scalar> 
400
(
1.23219e-06
1.23219e-06
1.23219e-06
1.23219e-06
1.23219e-06
1.23219e-06
1.23219e-06
1.23219e-06
1.23218e-06
1.23219e-06
1.23218e-06
1.23218e-06
1.23218e-06
1.23218e-06
1.23218e-06
1.23218e-06
1.23218e-06
1.23218e-06
1.23218e-06
1.23218e-06
1.24776e-06
1.26451e-06
1.263e-06
1.26237e-06
1.26112e-06
1.26048e-06
1.25925e-06
1.2586e-06
1.25736e-06
1.25671e-06
1.25549e-06
1.25483e-06
1.25361e-06
1.25295e-06
1.25173e-06
1.25106e-06
1.24985e-06
1.24917e-06
1.24856e-06
1.24763e-06
1.2712e-06
1.28889e-06
1.28726e-06
1.28659e-06
1.28525e-06
1.28457e-06
1.28326e-06
1.28257e-06
1.28127e-06
1.28057e-06
1.27928e-06
1.27859e-06
1.2773e-06
1.27661e-06
1.27533e-06
1.27464e-06
1.27337e-06
1.27267e-06
1.27204e-06
1.27106e-06
1.29433e-06
1.31268e-06
1.31098e-06
1.31029e-06
1.3089e-06
1.3082e-06
1.30683e-06
1.30612e-06
1.30476e-06
1.30405e-06
1.3027e-06
1.30199e-06
1.30065e-06
1.29994e-06
1.2986e-06
1.29789e-06
1.29657e-06
1.29585e-06
1.29519e-06
1.29418e-06
1.31259e-06
1.33148e-06
1.32974e-06
1.32901e-06
1.32759e-06
1.32686e-06
1.32546e-06
1.32471e-06
1.32333e-06
1.32259e-06
1.32121e-06
1.32047e-06
1.31909e-06
1.31836e-06
1.31698e-06
1.31625e-06
1.31489e-06
1.31415e-06
1.31347e-06
1.31243e-06
1.32517e-06
1.34444e-06
1.34267e-06
1.34193e-06
1.34047e-06
1.33974e-06
1.3383e-06
1.33755e-06
1.33613e-06
1.33538e-06
1.33397e-06
1.33321e-06
1.33181e-06
1.33106e-06
1.32966e-06
1.32891e-06
1.32752e-06
1.32676e-06
1.32607e-06
1.32501e-06
1.33319e-06
1.35271e-06
1.35091e-06
1.35016e-06
1.34869e-06
1.34794e-06
1.34648e-06
1.34573e-06
1.34428e-06
1.34353e-06
1.34209e-06
1.34134e-06
1.3399e-06
1.33916e-06
1.33772e-06
1.33697e-06
1.33556e-06
1.3348e-06
1.3341e-06
1.33302e-06
1.33815e-06
1.35782e-06
1.35602e-06
1.35525e-06
1.35378e-06
1.35302e-06
1.35155e-06
1.35079e-06
1.34933e-06
1.34857e-06
1.34711e-06
1.34637e-06
1.34491e-06
1.34416e-06
1.34272e-06
1.34197e-06
1.34054e-06
1.33977e-06
1.33907e-06
1.33799e-06
1.34132e-06
1.3611e-06
1.35925e-06
1.35851e-06
1.35702e-06
1.35626e-06
1.35478e-06
1.35402e-06
1.35255e-06
1.3518e-06
1.35032e-06
1.34958e-06
1.34811e-06
1.34736e-06
1.34591e-06
1.34515e-06
1.34372e-06
1.34295e-06
1.34224e-06
1.34115e-06
1.34354e-06
1.36338e-06
1.36154e-06
1.36079e-06
1.35929e-06
1.35853e-06
1.35704e-06
1.35628e-06
1.3548e-06
1.35404e-06
1.35258e-06
1.35182e-06
1.35036e-06
1.3496e-06
1.34814e-06
1.34738e-06
1.34595e-06
1.34517e-06
1.34446e-06
1.34337e-06
1.34532e-06
1.36521e-06
1.36338e-06
1.36261e-06
1.36112e-06
1.36035e-06
1.35887e-06
1.35809e-06
1.35662e-06
1.35585e-06
1.35438e-06
1.35362e-06
1.35216e-06
1.35139e-06
1.34994e-06
1.34917e-06
1.34773e-06
1.34696e-06
1.34624e-06
1.34515e-06
1.34696e-06
1.36691e-06
1.36506e-06
1.3643e-06
1.3628e-06
1.36203e-06
1.36054e-06
1.35977e-06
1.35829e-06
1.35752e-06
1.35605e-06
1.35528e-06
1.35382e-06
1.35305e-06
1.35159e-06
1.35082e-06
1.34938e-06
1.3486e-06
1.34789e-06
1.34679e-06
1.34863e-06
1.36862e-06
1.36678e-06
1.36601e-06
1.36451e-06
1.36373e-06
1.36225e-06
1.36146e-06
1.35999e-06
1.35921e-06
1.35774e-06
1.35697e-06
1.3555e-06
1.35473e-06
1.35327e-06
1.3525e-06
1.35106e-06
1.35027e-06
1.34956e-06
1.34846e-06
1.35042e-06
1.37046e-06
1.36861e-06
1.36785e-06
1.36633e-06
1.36556e-06
1.36407e-06
1.36329e-06
1.36181e-06
1.36102e-06
1.35956e-06
1.35877e-06
1.35731e-06
1.35653e-06
1.35508e-06
1.3543e-06
1.35285e-06
1.35207e-06
1.35135e-06
1.35024e-06
1.35238e-06
1.37248e-06
1.37062e-06
1.36985e-06
1.36834e-06
1.36756e-06
1.36606e-06
1.36528e-06
1.36379e-06
1.36302e-06
1.36154e-06
1.36076e-06
1.35929e-06
1.35851e-06
1.35704e-06
1.35627e-06
1.35481e-06
1.35403e-06
1.35331e-06
1.3522e-06
1.35449e-06
1.37466e-06
1.3728e-06
1.37202e-06
1.37051e-06
1.36972e-06
1.36822e-06
1.36744e-06
1.36595e-06
1.36516e-06
1.36368e-06
1.3629e-06
1.36142e-06
1.36065e-06
1.35917e-06
1.3584e-06
1.35694e-06
1.35615e-06
1.35543e-06
1.35432e-06
1.35667e-06
1.37691e-06
1.37502e-06
1.37426e-06
1.37274e-06
1.37195e-06
1.37046e-06
1.36966e-06
1.36817e-06
1.36738e-06
1.3659e-06
1.36511e-06
1.36362e-06
1.36285e-06
1.36137e-06
1.36059e-06
1.35913e-06
1.35833e-06
1.35761e-06
1.3565e-06
1.35872e-06
1.37901e-06
1.37714e-06
1.37636e-06
1.37483e-06
1.37405e-06
1.37254e-06
1.37175e-06
1.37025e-06
1.36946e-06
1.36797e-06
1.36718e-06
1.3657e-06
1.36492e-06
1.36343e-06
1.36265e-06
1.36119e-06
1.36039e-06
1.35966e-06
1.35855e-06
1.36035e-06
1.38029e-06
1.37848e-06
1.37773e-06
1.37625e-06
1.37548e-06
1.37402e-06
1.37324e-06
1.37179e-06
1.371e-06
1.36955e-06
1.36876e-06
1.3673e-06
1.36652e-06
1.36506e-06
1.36427e-06
1.36282e-06
1.36202e-06
1.3613e-06
1.36018e-06
1.3611e-06
1.36109e-06
1.3611e-06
1.36109e-06
1.36109e-06
1.36109e-06
1.36109e-06
1.36109e-06
1.36109e-06
1.36109e-06
1.36109e-06
1.36109e-06
1.36109e-06
1.36109e-06
1.36109e-06
1.36109e-06
1.36109e-06
1.36109e-06
1.36109e-06
1.36109e-06
)
;

boundaryField
{
    movingWall
    {
        type            nutkWallFunction;
        blending        stepwise;
        value           uniform 0;
    }
    fixedWalls
    {
        type            nutkWallFunction;
        blending        stepwise;
        value           uniform 0;
    }
    frontAndBack
    {
        type            empty;
    }
}


// ************************************************************************* //
