/*--------------------------------*- C++ -*----------------------------------*\
| =========                 |                                                 |
| \\      /  F ield         | OpenFOAM: The Open Source CFD Toolbox           |
|  \\    /   O peration     | Version:  2312                                  |
|   \\  /    A nd           | Website:  www.openfoam.com                      |
|    \\/     M anipulation  |                                                 |
\*---------------------------------------------------------------------------*/
FoamFile
{
    version     2.0;
    format      ascii;
    arch        "LSB;label=32;scalar=64";
    class       volScalarField;
    location    "7.5";
    object      turbulenceProperties:omega;
}
// * * * * * * * * * * * * * * * * * * * * * * * * * * * * * * * * * * * * * //

dimensions      [0 0 -1 0 0 0 0];

internalField   nonuniform List<scalar> 
400
(
3.92945
3.92944
3.92945
3.92944
3.92944
3.92944
3.92944
3.92944
3.92944
3.92944
3.92944
3.92944
3.92944
3.92944
3.92944
3.92944
3.92944
3.92944
3.92944
3.92944
3.9797
3.92696
3.93154
3.93345
3.93722
3.93918
3.94295
3.94494
3.94872
3.95073
3.95453
3.95656
3.96039
3.96245
3.96628
3.96838
3.9722
3.97436
3.97627
3.97926
4.05526
3.99961
4.00451
4.00656
4.01059
4.01267
4.01668
4.01879
4.0228
4.02493
4.02894
4.03107
4.03511
4.03724
4.04129
4.04345
4.04747
4.04967
4.05168
4.05479
4.12964
4.07192
4.07702
4.07913
4.08333
4.08546
4.08964
4.09181
4.09598
4.09818
4.10235
4.10456
4.10875
4.11096
4.11515
4.11739
4.12157
4.12385
4.12593
4.12915
4.18826
4.12885
4.13408
4.13626
4.14057
4.14279
4.14706
4.14932
4.15359
4.15587
4.16016
4.16243
4.16674
4.16902
4.17334
4.17564
4.17994
4.18229
4.18443
4.18774
4.2286
4.16799
4.17333
4.17556
4.17995
4.1822
4.18659
4.18886
4.19324
4.19555
4.19993
4.20225
4.20664
4.20897
4.21337
4.21572
4.22011
4.2225
4.22469
4.22807
4.25426
4.19287
4.19828
4.20054
4.20499
4.20727
4.21171
4.21401
4.21845
4.22078
4.22523
4.22756
4.23203
4.23436
4.23884
4.24121
4.24566
4.24808
4.2503
4.25372
4.27014
4.20828
4.21371
4.216
4.22047
4.22278
4.22725
4.22957
4.23405
4.23639
4.24088
4.24322
4.24774
4.25008
4.25459
4.25698
4.26147
4.2639
4.26614
4.26959
4.28026
4.21808
4.22359
4.22585
4.23036
4.23267
4.23716
4.23949
4.244
4.24634
4.25087
4.2532
4.25775
4.2601
4.26465
4.26704
4.27155
4.274
4.27624
4.27971
4.28736
4.22497
4.23048
4.23276
4.23728
4.2396
4.24411
4.24645
4.25097
4.25333
4.25785
4.26022
4.26476
4.26714
4.27168
4.27409
4.27861
4.28107
4.28332
4.28681
4.29307
4.23051
4.23602
4.23832
4.24285
4.24518
4.24969
4.25206
4.25657
4.25895
4.26348
4.26585
4.2704
4.27279
4.27734
4.27976
4.28429
4.28676
4.28902
4.29251
4.29833
4.23562
4.24114
4.24345
4.24799
4.25032
4.25485
4.25721
4.26175
4.26412
4.26866
4.27105
4.27561
4.278
4.28256
4.28499
4.28953
4.29201
4.29427
4.29777
4.30368
4.24081
4.24634
4.24866
4.2532
4.25555
4.26008
4.26246
4.26699
4.26939
4.27393
4.27632
4.2809
4.28329
4.28787
4.2903
4.29486
4.29734
4.2996
4.30311
4.30942
4.24638
4.25194
4.25425
4.25882
4.26116
4.26571
4.26808
4.27263
4.27504
4.27959
4.282
4.28657
4.28899
4.29356
4.29601
4.30057
4.30306
4.30533
4.30885
4.3157
4.25248
4.25805
4.26037
4.26495
4.2673
4.27187
4.27425
4.27882
4.28121
4.28579
4.28819
4.29279
4.2952
4.2998
4.30225
4.30683
4.30932
4.3116
4.31513
4.32249
4.25907
4.26466
4.26699
4.27158
4.27394
4.27852
4.28091
4.28549
4.2879
4.29249
4.2949
4.29951
4.30193
4.30655
4.309
4.31359
4.3161
4.31838
4.32192
4.32949
4.26588
4.2715
4.27383
4.27842
4.28081
4.28538
4.28779
4.29237
4.2948
4.29939
4.30182
4.30645
4.30888
4.31351
4.31597
4.32057
4.32309
4.32538
4.32893
4.3361
4.2723
4.27792
4.28026
4.28488
4.28726
4.29186
4.29427
4.29887
4.30129
4.30591
4.30834
4.31297
4.31541
4.32005
4.32252
4.32714
4.32966
4.33196
4.33553
4.34134
4.27863
4.28405
4.28632
4.29079
4.29312
4.29758
4.29996
4.30443
4.30685
4.31134
4.31377
4.31832
4.32076
4.32533
4.32782
4.33238
4.33494
4.33722
4.34078
4.34373
4.34373
4.34373
4.34373
4.34372
4.34373
4.34372
4.34373
4.34372
4.34372
4.34372
4.34372
4.34372
4.34372
4.34372
4.34372
4.34372
4.34372
4.34372
4.34372
)
;

boundaryField
{
    movingWall
    {
        type            calculated;
        value           nonuniform List<scalar> 
20
(
4.34373
4.34373
4.34373
4.34373
4.34372
4.34373
4.34372
4.34373
4.34372
4.34372
4.34372
4.34372
4.34372
4.34372
4.34372
4.34372
4.34372
4.34372
4.34372
4.34372
)
;
    }
    fixedWalls
    {
        type            calculated;
        value           nonuniform List<scalar> 
60
(
3.92945
3.9797
4.05526
4.12964
4.18826
4.2286
4.25426
4.27014
4.28026
4.28736
4.29307
4.29833
4.30368
4.30942
4.3157
4.32249
4.32949
4.3361
4.34134
4.34373
3.92944
3.97926
4.05479
4.12915
4.18774
4.22807
4.25372
4.26959
4.27971
4.28681
4.29251
4.29777
4.30311
4.30885
4.31513
4.32192
4.32893
4.33553
4.34078
4.34372
3.92945
3.92944
3.92945
3.92944
3.92944
3.92944
3.92944
3.92944
3.92944
3.92944
3.92944
3.92944
3.92944
3.92944
3.92944
3.92944
3.92944
3.92944
3.92944
3.92944
)
;
    }
    frontAndBack
    {
        type            empty;
    }
}


// ************************************************************************* //
