/*--------------------------------*- C++ -*----------------------------------*\
| =========                 |                                                 |
| \\      /  F ield         | OpenFOAM: The Open Source CFD Toolbox           |
|  \\    /   O peration     | Version:  2312                                  |
|   \\  /    A nd           | Website:  www.openfoam.com                      |
|    \\/     M anipulation  |                                                 |
\*---------------------------------------------------------------------------*/
FoamFile
{
    version     2.0;
    format      ascii;
    arch        "LSB;label=32;scalar=64";
    class       volScalarField;
    location    "7.5";
    object      turbulenceProperties:L;
}
// * * * * * * * * * * * * * * * * * * * * * * * * * * * * * * * * * * * * * //

dimensions      [0 1 0 0 0 0 0];

internalField   nonuniform List<scalar> 
400
(
0.00102238
0.00102238
0.00102238
0.00102238
0.00102238
0.00102238
0.00102238
0.00102238
0.00102238
0.00102238
0.00102238
0.00102238
0.00102238
0.00102238
0.00102238
0.00102238
0.00102238
0.00102238
0.00102238
0.00102238
0.0010223
0.00103603
0.00103481
0.0010343
0.00103329
0.00103277
0.00103177
0.00103125
0.00103025
0.00102972
0.00102872
0.00102819
0.00102719
0.00102665
0.00102566
0.00102511
0.00102412
0.00102357
0.00102307
0.0010223
0.00102221
0.00103643
0.00103514
0.0010346
0.00103355
0.001033
0.00103196
0.00103141
0.00103038
0.00102982
0.00102879
0.00102824
0.00102721
0.00102666
0.00102563
0.00102508
0.00102406
0.0010235
0.00102299
0.00102221
0.00102213
0.00103662
0.0010353
0.00103476
0.00103368
0.00103313
0.00103206
0.00103151
0.00103045
0.00102989
0.00102883
0.00102828
0.00102722
0.00102667
0.00102562
0.00102506
0.00102401
0.00102345
0.00102293
0.00102213
0.00102208
0.00103679
0.00103546
0.0010349
0.00103381
0.00103325
0.00103217
0.0010316
0.00103053
0.00102996
0.00102889
0.00102832
0.00102725
0.00102669
0.00102562
0.00102505
0.001024
0.00102342
0.0010229
0.00102209
0.00102206
0.00103693
0.00103558
0.00103502
0.00103391
0.00103335
0.00103225
0.00103168
0.0010306
0.00103002
0.00102894
0.00102837
0.00102729
0.00102672
0.00102564
0.00102506
0.001024
0.00102341
0.00102288
0.00102206
0.00102205
0.00103702
0.00103566
0.00103509
0.00103398
0.00103342
0.00103231
0.00103174
0.00103064
0.00103007
0.00102897
0.0010284
0.00102731
0.00102674
0.00102565
0.00102508
0.001024
0.00102341
0.00102288
0.00102205
0.00102205
0.00103707
0.00103571
0.00103514
0.00103403
0.00103346
0.00103235
0.00103178
0.00103067
0.0010301
0.001029
0.00102843
0.00102732
0.00102676
0.00102566
0.00102509
0.001024
0.00102341
0.00102288
0.00102205
0.00102205
0.00103711
0.00103573
0.00103517
0.00103406
0.00103348
0.00103237
0.0010318
0.00103069
0.00103012
0.00102901
0.00102844
0.00102733
0.00102677
0.00102566
0.00102509
0.001024
0.00102342
0.00102288
0.00102205
0.00102204
0.00103714
0.00103576
0.0010352
0.00103407
0.0010335
0.00103239
0.00103181
0.0010307
0.00103013
0.00102902
0.00102845
0.00102734
0.00102677
0.00102567
0.00102509
0.001024
0.00102341
0.00102288
0.00102204
0.00102204
0.00103715
0.00103578
0.00103521
0.00103409
0.00103351
0.0010324
0.00103182
0.00103071
0.00103014
0.00102903
0.00102845
0.00102735
0.00102677
0.00102567
0.00102509
0.001024
0.00102341
0.00102287
0.00102204
0.00102204
0.00103717
0.0010358
0.00103522
0.0010341
0.00103353
0.00103241
0.00103183
0.00103072
0.00103014
0.00102904
0.00102846
0.00102735
0.00102678
0.00102568
0.00102509
0.001024
0.00102341
0.00102287
0.00102204
0.00102204
0.00103719
0.00103581
0.00103524
0.00103412
0.00103354
0.00103242
0.00103184
0.00103073
0.00103015
0.00102904
0.00102846
0.00102736
0.00102678
0.00102568
0.0010251
0.001024
0.00102341
0.00102287
0.00102204
0.00102203
0.0010372
0.00103582
0.00103525
0.00103412
0.00103355
0.00103243
0.00103185
0.00103074
0.00103015
0.00102905
0.00102847
0.00102736
0.00102678
0.00102568
0.00102509
0.001024
0.00102341
0.00102287
0.00102203
0.00102203
0.00103722
0.00103584
0.00103527
0.00103414
0.00103356
0.00103244
0.00103186
0.00103075
0.00103017
0.00102905
0.00102847
0.00102737
0.00102678
0.00102568
0.0010251
0.001024
0.00102341
0.00102287
0.00102203
0.00102202
0.00103724
0.00103586
0.00103528
0.00103415
0.00103357
0.00103246
0.00103187
0.00103076
0.00103017
0.00102906
0.00102848
0.00102737
0.00102679
0.00102568
0.0010251
0.001024
0.0010234
0.00102286
0.00102202
0.00102202
0.00103726
0.00103587
0.0010353
0.00103417
0.00103358
0.00103247
0.00103188
0.00103077
0.00103018
0.00102907
0.00102848
0.00102737
0.00102679
0.00102568
0.00102509
0.001024
0.0010234
0.00102286
0.00102202
0.00102201
0.00103727
0.00103589
0.00103531
0.00103418
0.0010336
0.00103247
0.00103189
0.00103077
0.00103018
0.00102907
0.00102849
0.00102737
0.00102679
0.00102568
0.00102509
0.00102399
0.0010234
0.00102285
0.00102201
0.001022
0.00103698
0.00103565
0.00103509
0.001034
0.00103343
0.00103234
0.00103176
0.00103068
0.0010301
0.00102901
0.00102843
0.00102734
0.00102675
0.00102567
0.00102507
0.00102399
0.00102338
0.00102285
0.00102201
0.001022
0.001022
0.001022
0.001022
0.001022
0.001022
0.001022
0.001022
0.001022
0.001022
0.001022
0.001022
0.001022
0.001022
0.001022
0.001022
0.001022
0.001022
0.001022
0.001022
)
;

boundaryField
{
    movingWall
    {
        type            calculated;
        value           nonuniform List<scalar> 
20
(
0.001022
0.001022
0.001022
0.001022
0.001022
0.001022
0.001022
0.001022
0.001022
0.001022
0.001022
0.001022
0.001022
0.001022
0.001022
0.001022
0.001022
0.001022
0.001022
0.001022
)
;
    }
    fixedWalls
    {
        type            calculated;
        value           nonuniform List<scalar> 
60
(
0.00102238
0.0010223
0.00102221
0.00102213
0.00102208
0.00102206
0.00102205
0.00102205
0.00102205
0.00102204
0.00102204
0.00102204
0.00102204
0.00102203
0.00102203
0.00102202
0.00102202
0.00102201
0.001022
0.001022
0.00102238
0.0010223
0.00102221
0.00102213
0.00102209
0.00102206
0.00102205
0.00102205
0.00102205
0.00102204
0.00102204
0.00102204
0.00102204
0.00102203
0.00102203
0.00102202
0.00102202
0.00102201
0.00102201
0.001022
0.00102238
0.00102238
0.00102238
0.00102238
0.00102238
0.00102238
0.00102238
0.00102238
0.00102238
0.00102238
0.00102238
0.00102238
0.00102238
0.00102238
0.00102238
0.00102238
0.00102238
0.00102238
0.00102238
0.00102238
)
;
    }
    frontAndBack
    {
        type            empty;
    }
}


// ************************************************************************* //
