/*--------------------------------*- C++ -*----------------------------------*\
| =========                 |                                                 |
| \\      /  F ield         | OpenFOAM: The Open Source CFD Toolbox           |
|  \\    /   O peration     | Version:  2312                                  |
|   \\  /    A nd           | Website:  www.openfoam.com                      |
|    \\/     M anipulation  |                                                 |
\*---------------------------------------------------------------------------*/
FoamFile
{
    version     2.0;
    format      ascii;
    arch        "LSB;label=32;scalar=64";
    class       volScalarField;
    location    "7.5";
    object      turbulenceProperties:I;
}
// * * * * * * * * * * * * * * * * * * * * * * * * * * * * * * * * * * * * * //

dimensions      [0 0 0 0 0 0 0];

internalField   nonuniform List<scalar> 
400
(
0.00179663
0.00179663
0.00179663
0.00179663
0.00179663
0.00179663
0.00179663
0.00179663
0.00179663
0.00179663
0.00179663
0.00179663
0.00179663
0.00179663
0.00179663
0.00179663
0.00179663
0.00179663
0.00179663
0.00179663
0.00181947
0.00181947
0.00181944
0.00181942
0.0018194
0.00181939
0.00181937
0.00181936
0.00181934
0.00181933
0.00181932
0.00181931
0.0018193
0.00181929
0.00181928
0.00181928
0.00181928
0.00181928
0.00181927
0.00181927
0.00185384
0.00185384
0.0018538
0.00185379
0.00185376
0.00185375
0.00185373
0.00185371
0.0018537
0.00185368
0.00185367
0.00185366
0.00185365
0.00185365
0.00185364
0.00185363
0.00185363
0.00185363
0.00185363
0.00185362
0.0018877
0.0018877
0.00188766
0.00188765
0.00188762
0.00188761
0.00188758
0.00188757
0.00188755
0.00188754
0.00188753
0.00188752
0.00188751
0.0018875
0.00188749
0.00188749
0.00188748
0.00188748
0.00188748
0.00188748
0.00191441
0.00191441
0.00191437
0.00191436
0.00191433
0.00191431
0.00191429
0.00191427
0.00191426
0.00191424
0.00191423
0.00191422
0.00191421
0.0019142
0.00191419
0.00191419
0.00191418
0.00191418
0.00191418
0.00191418
0.00193281
0.00193281
0.00193277
0.00193275
0.00193272
0.00193271
0.00193268
0.00193267
0.00193265
0.00193264
0.00193262
0.00193261
0.0019326
0.00193259
0.00193259
0.00193258
0.00193258
0.00193257
0.00193257
0.00193257
0.00194452
0.00194452
0.00194448
0.00194446
0.00194443
0.00194442
0.00194439
0.00194438
0.00194436
0.00194435
0.00194433
0.00194432
0.00194431
0.0019443
0.00194429
0.00194429
0.00194428
0.00194428
0.00194428
0.00194428
0.00195177
0.00195177
0.00195173
0.00195171
0.00195168
0.00195167
0.00195164
0.00195163
0.0019516
0.00195159
0.00195157
0.00195157
0.00195155
0.00195155
0.00195154
0.00195153
0.00195153
0.00195152
0.00195152
0.00195152
0.00195639
0.00195639
0.00195634
0.00195633
0.0019563
0.00195629
0.00195626
0.00195625
0.00195622
0.00195622
0.00195619
0.00195619
0.00195617
0.00195617
0.00195616
0.00195615
0.00195615
0.00195615
0.00195614
0.00195614
0.00195963
0.00195963
0.00195958
0.00195957
0.00195954
0.00195953
0.0019595
0.00195949
0.00195946
0.00195945
0.00195943
0.00195943
0.00195941
0.00195941
0.00195939
0.00195939
0.00195938
0.00195938
0.00195938
0.00195938
0.00196224
0.00196224
0.00196219
0.00196217
0.00196214
0.00196213
0.0019621
0.00196209
0.00196207
0.00196206
0.00196204
0.00196203
0.00196202
0.00196201
0.001962
0.00196199
0.00196199
0.00196199
0.00196198
0.00196198
0.00196463
0.00196464
0.00196459
0.00196457
0.00196454
0.00196453
0.0019645
0.00196449
0.00196446
0.00196445
0.00196444
0.00196443
0.00196441
0.00196441
0.0019644
0.00196439
0.00196439
0.00196438
0.00196438
0.00196438
0.00196707
0.00196707
0.00196703
0.00196701
0.00196698
0.00196696
0.00196694
0.00196692
0.0019669
0.00196689
0.00196687
0.00196686
0.00196685
0.00196684
0.00196683
0.00196683
0.00196682
0.00196682
0.00196682
0.00196682
0.00196969
0.00196969
0.00196964
0.00196963
0.00196959
0.00196958
0.00196955
0.00196954
0.00196952
0.00196951
0.00196949
0.00196948
0.00196947
0.00196946
0.00196945
0.00196944
0.00196944
0.00196944
0.00196943
0.00196943
0.00197255
0.00197255
0.00197251
0.00197249
0.00197246
0.00197244
0.00197242
0.0019724
0.00197238
0.00197237
0.00197235
0.00197234
0.00197233
0.00197232
0.00197231
0.00197231
0.0019723
0.0019723
0.0019723
0.0019723
0.00197565
0.00197565
0.0019756
0.00197559
0.00197555
0.00197554
0.00197551
0.0019755
0.00197548
0.00197546
0.00197545
0.00197544
0.00197542
0.00197542
0.0019754
0.0019754
0.00197539
0.00197539
0.00197539
0.00197539
0.00197884
0.00197884
0.00197879
0.00197878
0.00197875
0.00197873
0.00197871
0.00197869
0.00197867
0.00197866
0.00197864
0.00197863
0.00197861
0.00197861
0.0019786
0.00197859
0.00197859
0.00197858
0.00197858
0.00197858
0.00198184
0.00198184
0.0019818
0.00198178
0.00198175
0.00198173
0.00198171
0.00198169
0.00198167
0.00198166
0.00198164
0.00198163
0.00198162
0.00198161
0.0019816
0.0019816
0.00198159
0.00198159
0.00198158
0.00198158
0.00198423
0.00198423
0.00198418
0.00198417
0.00198414
0.00198412
0.0019841
0.00198408
0.00198406
0.00198405
0.00198403
0.00198402
0.00198401
0.001984
0.00198399
0.00198399
0.00198398
0.00198398
0.00198398
0.00198398
0.00198532
0.00198532
0.00198532
0.00198532
0.00198532
0.00198532
0.00198532
0.00198532
0.00198532
0.00198532
0.00198531
0.00198531
0.00198531
0.00198531
0.00198531
0.00198531
0.00198531
0.00198531
0.00198531
0.00198531
)
;

boundaryField
{
    movingWall
    {
        type            calculated;
        value           nonuniform List<scalar> 
20
(
0.00198532
0.00198532
0.00198532
0.00198532
0.00198532
0.00198532
0.00198532
0.00198532
0.00198532
0.00198532
0.00198531
0.00198531
0.00198531
0.00198531
0.00198531
0.00198531
0.00198531
0.00198531
0.00198531
0.00198531
)
;
    }
    fixedWalls
    {
        type            calculated;
        value           nonuniform List<scalar> 
60
(
0.00179663
0.00181947
0.00185384
0.0018877
0.00191441
0.00193281
0.00194452
0.00195177
0.00195639
0.00195963
0.00196224
0.00196463
0.00196707
0.00196969
0.00197255
0.00197565
0.00197884
0.00198184
0.00198423
0.00198532
0.00179663
0.00181927
0.00185362
0.00188748
0.00191418
0.00193257
0.00194428
0.00195152
0.00195614
0.00195938
0.00196198
0.00196438
0.00196682
0.00196943
0.0019723
0.00197539
0.00197858
0.00198158
0.00198398
0.00198531
0.00179663
0.00179663
0.00179663
0.00179663
0.00179663
0.00179663
0.00179663
0.00179663
0.00179663
0.00179663
0.00179663
0.00179663
0.00179663
0.00179663
0.00179663
0.00179663
0.00179663
0.00179663
0.00179663
0.00179663
)
;
    }
    frontAndBack
    {
        type            empty;
    }
}


// ************************************************************************* //
