/*--------------------------------*- C++ -*----------------------------------*\
| =========                 |                                                 |
| \\      /  F ield         | OpenFOAM: The Open Source CFD Toolbox           |
|  \\    /   O peration     | Version:  2312                                  |
|   \\  /    A nd           | Website:  www.openfoam.com                      |
|    \\/     M anipulation  |                                                 |
\*---------------------------------------------------------------------------*/
FoamFile
{
    version     2.0;
    format      ascii;
    arch        "LSB;label=32;scalar=64";
    class       volScalarField;
    location    "7.5";
    object      turbulenceProperties:epsilon;
}
// * * * * * * * * * * * * * * * * * * * * * * * * * * * * * * * * * * * * * //

dimensions      [0 2 -3 0 0 0 0];

internalField   nonuniform List<scalar> 
400
(
1.71231e-06
1.71231e-06
1.7123e-06
1.7123e-06
1.7123e-06
1.7123e-06
1.7123e-06
1.7123e-06
1.7123e-06
1.7123e-06
1.7123e-06
1.7123e-06
1.7123e-06
1.7123e-06
1.7123e-06
1.7123e-06
1.7123e-06
1.7123e-06
1.7123e-06
1.7123e-06
1.77858e-06
1.75501e-06
1.75699e-06
1.75782e-06
1.75946e-06
1.76031e-06
1.76196e-06
1.76282e-06
1.76448e-06
1.76536e-06
1.76704e-06
1.76793e-06
1.76962e-06
1.77053e-06
1.77222e-06
1.77316e-06
1.77485e-06
1.77582e-06
1.77667e-06
1.778e-06
1.88146e-06
1.85564e-06
1.85784e-06
1.85876e-06
1.86058e-06
1.86152e-06
1.86334e-06
1.86429e-06
1.86612e-06
1.86708e-06
1.86892e-06
1.86989e-06
1.87174e-06
1.87272e-06
1.87458e-06
1.87557e-06
1.87743e-06
1.87844e-06
1.87937e-06
1.88081e-06
1.98662e-06
1.95885e-06
1.96122e-06
1.96221e-06
1.96416e-06
1.96517e-06
1.96712e-06
1.96815e-06
1.97011e-06
1.97115e-06
1.97312e-06
1.97416e-06
1.97616e-06
1.9772e-06
1.97921e-06
1.98027e-06
1.98227e-06
1.98336e-06
1.98436e-06
1.98591e-06
2.07223e-06
2.04284e-06
2.04534e-06
2.04639e-06
2.04845e-06
2.04952e-06
2.05159e-06
2.05267e-06
2.05475e-06
2.05585e-06
2.05794e-06
2.05904e-06
2.06115e-06
2.06226e-06
2.06438e-06
2.0655e-06
2.06762e-06
2.06878e-06
2.06983e-06
2.07147e-06
2.1326e-06
2.10203e-06
2.10463e-06
2.10572e-06
2.10787e-06
2.10898e-06
2.11113e-06
2.11225e-06
2.11442e-06
2.11555e-06
2.11773e-06
2.11887e-06
2.12107e-06
2.12222e-06
2.12442e-06
2.1256e-06
2.1278e-06
2.129e-06
2.1301e-06
2.1318e-06
2.17162e-06
2.14028e-06
2.14295e-06
2.14407e-06
2.14627e-06
2.1474e-06
2.14961e-06
2.15076e-06
2.15298e-06
2.15414e-06
2.15637e-06
2.15754e-06
2.15979e-06
2.16097e-06
2.16323e-06
2.16443e-06
2.16669e-06
2.16792e-06
2.16905e-06
2.1708e-06
2.196e-06
2.16419e-06
2.16689e-06
2.16803e-06
2.17026e-06
2.17141e-06
2.17365e-06
2.17482e-06
2.17707e-06
2.17825e-06
2.18052e-06
2.18171e-06
2.18399e-06
2.18519e-06
2.18748e-06
2.1887e-06
2.19099e-06
2.19225e-06
2.19339e-06
2.19516e-06
2.21164e-06
2.17952e-06
2.18226e-06
2.1834e-06
2.18566e-06
2.18682e-06
2.18908e-06
2.19026e-06
2.19253e-06
2.19373e-06
2.19601e-06
2.19722e-06
2.19952e-06
2.20073e-06
2.20305e-06
2.20428e-06
2.20659e-06
2.20785e-06
2.20901e-06
2.2108e-06
2.22266e-06
2.19031e-06
2.19306e-06
2.19422e-06
2.19649e-06
2.19766e-06
2.19994e-06
2.20112e-06
2.20341e-06
2.20461e-06
2.20691e-06
2.20812e-06
2.21044e-06
2.21166e-06
2.21399e-06
2.21523e-06
2.21756e-06
2.21883e-06
2.22e-06
2.2218e-06
2.23154e-06
2.19902e-06
2.20178e-06
2.20294e-06
2.20523e-06
2.2064e-06
2.20869e-06
2.20989e-06
2.21218e-06
2.21339e-06
2.21571e-06
2.21692e-06
2.21926e-06
2.22048e-06
2.22282e-06
2.22407e-06
2.22641e-06
2.22769e-06
2.22886e-06
2.23067e-06
2.23974e-06
2.20706e-06
2.20984e-06
2.211e-06
2.2133e-06
2.21448e-06
2.21678e-06
2.21798e-06
2.22029e-06
2.2215e-06
2.22383e-06
2.22505e-06
2.2274e-06
2.22863e-06
2.23098e-06
2.23223e-06
2.23459e-06
2.23587e-06
2.23705e-06
2.23887e-06
2.24809e-06
2.21525e-06
2.21804e-06
2.21921e-06
2.22152e-06
2.22271e-06
2.22502e-06
2.22623e-06
2.22855e-06
2.22977e-06
2.2321e-06
2.23333e-06
2.23569e-06
2.23693e-06
2.23929e-06
2.24055e-06
2.24292e-06
2.24421e-06
2.24539e-06
2.24722e-06
2.25708e-06
2.22407e-06
2.22687e-06
2.22805e-06
2.23037e-06
2.23156e-06
2.23389e-06
2.2351e-06
2.23743e-06
2.23866e-06
2.24101e-06
2.24224e-06
2.24461e-06
2.24586e-06
2.24824e-06
2.2495e-06
2.25188e-06
2.25318e-06
2.25436e-06
2.2562e-06
2.26695e-06
2.23374e-06
2.23656e-06
2.23775e-06
2.24008e-06
2.24128e-06
2.24362e-06
2.24484e-06
2.24718e-06
2.24842e-06
2.25078e-06
2.25202e-06
2.2544e-06
2.25566e-06
2.25805e-06
2.25932e-06
2.26171e-06
2.26302e-06
2.26421e-06
2.26606e-06
2.27765e-06
2.24423e-06
2.24707e-06
2.24826e-06
2.25061e-06
2.25182e-06
2.25417e-06
2.2554e-06
2.25776e-06
2.259e-06
2.26138e-06
2.26263e-06
2.26502e-06
2.26628e-06
2.26869e-06
2.26997e-06
2.27238e-06
2.27369e-06
2.27489e-06
2.27675e-06
2.28872e-06
2.25509e-06
2.25795e-06
2.25915e-06
2.26151e-06
2.26273e-06
2.26509e-06
2.26633e-06
2.2687e-06
2.26995e-06
2.27235e-06
2.2736e-06
2.27602e-06
2.27728e-06
2.27971e-06
2.281e-06
2.28342e-06
2.28474e-06
2.28595e-06
2.28782e-06
2.29917e-06
2.26535e-06
2.26822e-06
2.26942e-06
2.2718e-06
2.27302e-06
2.2754e-06
2.27664e-06
2.27903e-06
2.28029e-06
2.2827e-06
2.28396e-06
2.28639e-06
2.28767e-06
2.2901e-06
2.2914e-06
2.29383e-06
2.29517e-06
2.29638e-06
2.29827e-06
2.3075e-06
2.27416e-06
2.27694e-06
2.27811e-06
2.28042e-06
2.28162e-06
2.28394e-06
2.28516e-06
2.2875e-06
2.28874e-06
2.2911e-06
2.29236e-06
2.29475e-06
2.29603e-06
2.29844e-06
2.29975e-06
2.30216e-06
2.30351e-06
2.30472e-06
2.30661e-06
2.3113e-06
2.3113e-06
2.3113e-06
2.3113e-06
2.3113e-06
2.3113e-06
2.31129e-06
2.31129e-06
2.31129e-06
2.31129e-06
2.31129e-06
2.31129e-06
2.31129e-06
2.31129e-06
2.31129e-06
2.31129e-06
2.31129e-06
2.31129e-06
2.31129e-06
2.31129e-06
)
;

boundaryField
{
    movingWall
    {
        type            epsilonWallFunction;
        blending        stepwise;
        value           nonuniform List<scalar> 
20
(
2.3113e-06
2.3113e-06
2.3113e-06
2.3113e-06
2.3113e-06
2.3113e-06
2.31129e-06
2.31129e-06
2.31129e-06
2.31129e-06
2.31129e-06
2.31129e-06
2.31129e-06
2.31129e-06
2.31129e-06
2.31129e-06
2.31129e-06
2.31129e-06
2.31129e-06
2.31129e-06
)
;
    }
    fixedWalls
    {
        type            epsilonWallFunction;
        blending        stepwise;
        value           nonuniform List<scalar> 
60
(
1.71231e-06
1.77858e-06
1.88146e-06
1.98662e-06
2.07223e-06
2.1326e-06
2.17162e-06
2.196e-06
2.21164e-06
2.22266e-06
2.23154e-06
2.23974e-06
2.24809e-06
2.25708e-06
2.26695e-06
2.27765e-06
2.28872e-06
2.29917e-06
2.3075e-06
2.3113e-06
1.7123e-06
1.778e-06
1.88081e-06
1.98591e-06
2.07147e-06
2.1318e-06
2.1708e-06
2.19516e-06
2.2108e-06
2.2218e-06
2.23067e-06
2.23887e-06
2.24722e-06
2.2562e-06
2.26606e-06
2.27675e-06
2.28782e-06
2.29827e-06
2.30661e-06
2.31129e-06
1.71231e-06
1.71231e-06
1.7123e-06
1.7123e-06
1.7123e-06
1.7123e-06
1.7123e-06
1.7123e-06
1.7123e-06
1.7123e-06
1.7123e-06
1.7123e-06
1.7123e-06
1.7123e-06
1.7123e-06
1.7123e-06
1.7123e-06
1.7123e-06
1.7123e-06
1.7123e-06
)
;
    }
    frontAndBack
    {
        type            empty;
    }
}


// ************************************************************************* //
