/*--------------------------------*- C++ -*----------------------------------*\
| =========                 |                                                 |
| \\      /  F ield         | OpenFOAM: The Open Source CFD Toolbox           |
|  \\    /   O peration     | Version:  2312                                  |
|   \\  /    A nd           | Website:  www.openfoam.com                      |
|    \\/     M anipulation  |                                                 |
\*---------------------------------------------------------------------------*/
FoamFile
{
    version     2.0;
    format      ascii;
    arch        "LSB;label=32;scalar=64";
    class       volSymmTensorField;
    location    "7.5";
    object      turbulenceProperties:R;
}
// * * * * * * * * * * * * * * * * * * * * * * * * * * * * * * * * * * * * * //

dimensions      [0 2 -2 0 0 0 0];

internalField   nonuniform List<symmTensor> 
400
(
(3.22788e-06 -0 -0 3.22788e-06 -0 3.22788e-06)
(3.22787e-06 3.33985e-20 -0 3.22787e-06 -0 3.22787e-06)
(3.22787e-06 -0 -0 3.22787e-06 -0 3.22787e-06)
(3.22787e-06 -3.33985e-20 -0 3.22787e-06 -0 3.22787e-06)
(3.22787e-06 -3.33984e-20 -0 3.22787e-06 -0 3.22787e-06)
(3.22787e-06 -0 -0 3.22787e-06 -0 3.22787e-06)
(3.22787e-06 -0 -0 3.22787e-06 -0 3.22787e-06)
(3.22787e-06 -0 -0 3.22787e-06 -0 3.22787e-06)
(3.22786e-06 -0 -0 3.22786e-06 -0 3.22786e-06)
(3.22786e-06 -0 -0 3.22786e-06 -0 3.22786e-06)
(3.22786e-06 -0 -0 3.22786e-06 -0 3.22786e-06)
(3.22786e-06 -0 -0 3.22786e-06 -0 3.22786e-06)
(3.22786e-06 -0 -0 3.22786e-06 -0 3.22786e-06)
(3.22786e-06 -0 -0 3.22786e-06 -0 3.22786e-06)
(3.22786e-06 -0 -0 3.22786e-06 -0 3.22786e-06)
(3.22786e-06 -0 -0 3.22786e-06 -0 3.22786e-06)
(3.22786e-06 -0 -0 3.22786e-06 -0 3.22786e-06)
(3.22786e-06 -0 -0 3.22786e-06 -0 3.22786e-06)
(3.22786e-06 -0 -0 3.22786e-06 -0 3.22786e-06)
(3.22786e-06 -0 -0 3.22786e-06 -0 3.22786e-06)
(3.31047e-06 -0 -0 3.31047e-06 -0 3.31047e-06)
(3.31047e-06 -0 -0 3.31047e-06 -0 3.31047e-06)
(3.31035e-06 -0 -0 3.31035e-06 -0 3.31035e-06)
(3.3103e-06 -0 -0 3.3103e-06 -0 3.3103e-06)
(3.31021e-06 -0 -0 3.31021e-06 -0 3.31021e-06)
(3.31017e-06 -0 -0 3.31017e-06 -0 3.31017e-06)
(3.31009e-06 -0 -0 3.31009e-06 -0 3.31009e-06)
(3.31005e-06 -0 -0 3.31005e-06 -0 3.31005e-06)
(3.30999e-06 -0 -0 3.30999e-06 -0 3.30999e-06)
(3.30996e-06 -0 -0 3.30996e-06 -0 3.30996e-06)
(3.30991e-06 -0 -0 3.30991e-06 -0 3.30991e-06)
(3.30989e-06 -0 -0 3.30989e-06 -0 3.30989e-06)
(3.30984e-06 -0 -0 3.30984e-06 -0 3.30984e-06)
(3.30983e-06 -0 -0 3.30983e-06 -0 3.30983e-06)
(3.3098e-06 -0 -0 3.3098e-06 -0 3.3098e-06)
(3.30979e-06 -0 -0 3.30979e-06 -0 3.30979e-06)
(3.30977e-06 -0 -0 3.30977e-06 -0 3.30977e-06)
(3.30976e-06 -0 -0 3.30976e-06 -0 3.30976e-06)
(3.30975e-06 -0 -0 3.30975e-06 -0 3.30975e-06)
(3.30975e-06 -0 -0 3.30975e-06 -0 3.30975e-06)
(3.43671e-06 -0 -0 3.43671e-06 -0 3.43671e-06)
(3.43671e-06 -0 -0 3.43671e-06 -0 3.43671e-06)
(3.43657e-06 -0 -0 3.43657e-06 -0 3.43657e-06)
(3.43652e-06 -0 -0 3.43652e-06 -0 3.43652e-06)
(3.43642e-06 -0 -0 3.43642e-06 -0 3.43642e-06)
(3.43638e-06 -0 -0 3.43638e-06 -0 3.43638e-06)
(3.4363e-06 -0 -0 3.4363e-06 -0 3.4363e-06)
(3.43625e-06 -0 -0 3.43625e-06 -0 3.43625e-06)
(3.43619e-06 -0 -0 3.43619e-06 -0 3.43619e-06)
(3.43614e-06 -0 -0 3.43614e-06 -0 3.43614e-06)
(3.4361e-06 -0 -0 3.4361e-06 -0 3.4361e-06)
(3.43606e-06 -0 -0 3.43606e-06 -0 3.43606e-06)
(3.43603e-06 -0 -0 3.43603e-06 -0 3.43603e-06)
(3.436e-06 -0 -0 3.436e-06 -0 3.436e-06)
(3.43598e-06 -0 -0 3.43598e-06 -0 3.43598e-06)
(3.43596e-06 -0 -0 3.43596e-06 -0 3.43596e-06)
(3.43594e-06 -0 -0 3.43594e-06 -0 3.43594e-06)
(3.43593e-06 -0 -0 3.43593e-06 -0 3.43593e-06)
(3.43593e-06 -0 -0 3.43593e-06 -0 3.43593e-06)
(3.43592e-06 -0 -0 3.43592e-06 -0 3.43592e-06)
(3.56342e-06 -0 -0 3.56342e-06 -0 3.56342e-06)
(3.56343e-06 -0 -0 3.56343e-06 -0 3.56343e-06)
(3.56327e-06 -0 -0 3.56327e-06 -0 3.56327e-06)
(3.56323e-06 -0 -0 3.56323e-06 -0 3.56323e-06)
(3.56311e-06 -0 -0 3.56311e-06 -0 3.56311e-06)
(3.56307e-06 -0 -0 3.56307e-06 -0 3.56307e-06)
(3.56297e-06 -0 -0 3.56297e-06 -0 3.56297e-06)
(3.56294e-06 -0 -0 3.56294e-06 -0 3.56294e-06)
(3.56286e-06 -0 -0 3.56286e-06 -0 3.56286e-06)
(3.56282e-06 -0 -0 3.56282e-06 -0 3.56282e-06)
(3.56277e-06 -0 -0 3.56277e-06 -0 3.56277e-06)
(3.56273e-06 -0 -0 3.56273e-06 -0 3.56273e-06)
(3.56269e-06 -0 -0 3.56269e-06 -0 3.56269e-06)
(3.56266e-06 -0 -0 3.56266e-06 -0 3.56266e-06)
(3.56263e-06 -0 -0 3.56263e-06 -0 3.56263e-06)
(3.56261e-06 -0 -0 3.56261e-06 -0 3.56261e-06)
(3.5626e-06 -0 -0 3.5626e-06 -0 3.5626e-06)
(3.56259e-06 -0 -0 3.56259e-06 -0 3.56259e-06)
(3.56258e-06 -0 -0 3.56258e-06 -0 3.56258e-06)
(3.56258e-06 -0 -0 3.56258e-06 -0 3.56258e-06)
(3.66498e-06 -0 -0 3.66498e-06 -0 3.66498e-06)
(3.66497e-06 -0 -0 3.66497e-06 -0 3.66497e-06)
(3.66482e-06 -0 -0 3.66482e-06 -0 3.66482e-06)
(3.66476e-06 -0 -0 3.66476e-06 -0 3.66476e-06)
(3.66465e-06 -0 -0 3.66465e-06 -0 3.66465e-06)
(3.66459e-06 -0 -0 3.66459e-06 -0 3.66459e-06)
(3.66451e-06 -0 -0 3.66451e-06 -0 3.66451e-06)
(3.66445e-06 -0 -0 3.66445e-06 -0 3.66445e-06)
(3.66439e-06 -0 -0 3.66439e-06 -0 3.66439e-06)
(3.66433e-06 -0 -0 3.66433e-06 -0 3.66433e-06)
(3.66429e-06 -0 -0 3.66429e-06 -0 3.66429e-06)
(3.66424e-06 -0 -0 3.66424e-06 -0 3.66424e-06)
(3.6642e-06 -0 -0 3.6642e-06 -0 3.6642e-06)
(3.66417e-06 -0 -0 3.66417e-06 -0 3.66417e-06)
(3.66414e-06 -0 -0 3.66414e-06 -0 3.66414e-06)
(3.66412e-06 -0 -0 3.66412e-06 -0 3.66412e-06)
(3.6641e-06 -0 -0 3.6641e-06 -0 3.6641e-06)
(3.66409e-06 -0 -0 3.66409e-06 -0 3.66409e-06)
(3.66408e-06 -0 -0 3.66408e-06 -0 3.66408e-06)
(3.66408e-06 -0 -0 3.66408e-06 -0 3.66408e-06)
(3.73576e-06 -0 -0 3.73576e-06 -0 3.73576e-06)
(3.73576e-06 -0 -0 3.73576e-06 -0 3.73576e-06)
(3.73559e-06 -0 -0 3.73559e-06 -0 3.73559e-06)
(3.73554e-06 -0 -0 3.73554e-06 -0 3.73554e-06)
(3.73541e-06 -0 -0 3.73541e-06 -0 3.73541e-06)
(3.73537e-06 -0 -0 3.73537e-06 -0 3.73537e-06)
(3.73526e-06 -0 -0 3.73526e-06 -0 3.73526e-06)
(3.73522e-06 -0 -0 3.73522e-06 -0 3.73522e-06)
(3.73514e-06 -0 -0 3.73514e-06 -0 3.73514e-06)
(3.73509e-06 -0 -0 3.73509e-06 -0 3.73509e-06)
(3.73504e-06 -0 -0 3.73504e-06 -0 3.73504e-06)
(3.73499e-06 -0 -0 3.73499e-06 -0 3.73499e-06)
(3.73495e-06 -0 -0 3.73495e-06 -0 3.73495e-06)
(3.73492e-06 -0 -0 3.73492e-06 -0 3.73492e-06)
(3.73489e-06 -0 -0 3.73489e-06 -0 3.73489e-06)
(3.73487e-06 -0 -0 3.73487e-06 -0 3.73487e-06)
(3.73485e-06 -0 -0 3.73485e-06 -0 3.73485e-06)
(3.73484e-06 -0 -0 3.73484e-06 -0 3.73484e-06)
(3.73483e-06 -0 -0 3.73483e-06 -0 3.73483e-06)
(3.73483e-06 -0 -0 3.73483e-06 -0 3.73483e-06)
(3.78117e-06 -0 -0 3.78117e-06 -0 3.78117e-06)
(3.78117e-06 -0 -0 3.78117e-06 -0 3.78117e-06)
(3.781e-06 -0 -0 3.781e-06 -0 3.781e-06)
(3.78093e-06 -0 -0 3.78093e-06 -0 3.78093e-06)
(3.78081e-06 -0 -0 3.78081e-06 -0 3.78081e-06)
(3.78077e-06 -0 -0 3.78077e-06 -0 3.78077e-06)
(3.78065e-06 -0 -0 3.78065e-06 -0 3.78065e-06)
(3.78061e-06 -0 -0 3.78061e-06 -0 3.78061e-06)
(3.78053e-06 -0 -0 3.78053e-06 -0 3.78053e-06)
(3.78049e-06 -0 -0 3.78049e-06 -0 3.78049e-06)
(3.78042e-06 -0 -0 3.78042e-06 -0 3.78042e-06)
(3.78039e-06 -0 -0 3.78039e-06 -0 3.78039e-06)
(3.78033e-06 -0 -0 3.78033e-06 -0 3.78033e-06)
(3.78031e-06 -0 -0 3.78031e-06 -0 3.78031e-06)
(3.78027e-06 -0 -0 3.78027e-06 -0 3.78027e-06)
(3.78026e-06 -0 -0 3.78026e-06 -0 3.78026e-06)
(3.78023e-06 -0 -0 3.78023e-06 -0 3.78023e-06)
(3.78022e-06 -0 -0 3.78022e-06 -0 3.78022e-06)
(3.78021e-06 -0 -0 3.78021e-06 -0 3.78021e-06)
(3.78021e-06 -0 -0 3.78021e-06 -0 3.78021e-06)
(3.8094e-06 -0 -0 3.8094e-06 -0 3.8094e-06)
(3.8094e-06 -0 -0 3.8094e-06 -0 3.8094e-06)
(3.80924e-06 -0 -0 3.80924e-06 -0 3.80924e-06)
(3.80917e-06 -0 -0 3.80917e-06 -0 3.80917e-06)
(3.80905e-06 -0 -0 3.80905e-06 -0 3.80905e-06)
(3.809e-06 -0 -0 3.809e-06 -0 3.809e-06)
(3.80889e-06 -0 -0 3.80889e-06 -0 3.80889e-06)
(3.80885e-06 -0 -0 3.80885e-06 -0 3.80885e-06)
(3.80875e-06 -0 -0 3.80875e-06 -0 3.80875e-06)
(3.80872e-06 -0 -0 3.80872e-06 -0 3.80872e-06)
(3.80864e-06 -0 -0 3.80864e-06 -0 3.80864e-06)
(3.80862e-06 -0 -0 3.80862e-06 -0 3.80862e-06)
(3.80855e-06 -0 -0 3.80855e-06 -0 3.80855e-06)
(3.80854e-06 -0 -0 3.80854e-06 -0 3.80854e-06)
(3.80849e-06 -0 -0 3.80849e-06 -0 3.80849e-06)
(3.80848e-06 -0 -0 3.80848e-06 -0 3.80848e-06)
(3.80845e-06 -0 -0 3.80845e-06 -0 3.80845e-06)
(3.80845e-06 -0 -0 3.80845e-06 -0 3.80845e-06)
(3.80844e-06 -0 -0 3.80844e-06 -0 3.80844e-06)
(3.80843e-06 -0 -0 3.80843e-06 -0 3.80843e-06)
(3.82747e-06 -0 -0 3.82747e-06 -0 3.82747e-06)
(3.82748e-06 -0 -0 3.82748e-06 -0 3.82748e-06)
(3.82728e-06 -0 -0 3.82728e-06 -0 3.82728e-06)
(3.82724e-06 -0 -0 3.82724e-06 -0 3.82724e-06)
(3.82711e-06 -0 -0 3.82711e-06 -0 3.82711e-06)
(3.82706e-06 -0 -0 3.82706e-06 -0 3.82706e-06)
(3.82695e-06 -0 -0 3.82695e-06 -0 3.82695e-06)
(3.82691e-06 -0 -0 3.82691e-06 -0 3.82691e-06)
(3.82681e-06 -0 -0 3.82681e-06 -0 3.82681e-06)
(3.82679e-06 -0 -0 3.82679e-06 -0 3.82679e-06)
(3.82669e-06 -0 -0 3.82669e-06 -0 3.82669e-06)
(3.82669e-06 -0 -0 3.82669e-06 -0 3.82669e-06)
(3.82661e-06 -0 -0 3.82661e-06 -0 3.82661e-06)
(3.8266e-06 -0 -0 3.8266e-06 -0 3.8266e-06)
(3.82655e-06 -0 -0 3.82655e-06 -0 3.82655e-06)
(3.82654e-06 -0 -0 3.82654e-06 -0 3.82654e-06)
(3.82651e-06 -0 -0 3.82651e-06 -0 3.82651e-06)
(3.82651e-06 -0 -0 3.82651e-06 -0 3.82651e-06)
(3.82649e-06 -0 -0 3.82649e-06 -0 3.82649e-06)
(3.82649e-06 -0 -0 3.82649e-06 -0 3.82649e-06)
(3.84016e-06 -0 -0 3.84016e-06 -0 3.84016e-06)
(3.84016e-06 -0 -0 3.84016e-06 -0 3.84016e-06)
(3.83997e-06 -0 -0 3.83997e-06 -0 3.83997e-06)
(3.83992e-06 -0 -0 3.83992e-06 -0 3.83992e-06)
(3.83979e-06 -0 -0 3.83979e-06 -0 3.83979e-06)
(3.83974e-06 -0 -0 3.83974e-06 -0 3.83974e-06)
(3.83963e-06 -0 -0 3.83963e-06 -0 3.83963e-06)
(3.83959e-06 -0 -0 3.83959e-06 -0 3.83959e-06)
(3.83949e-06 -0 -0 3.83949e-06 -0 3.83949e-06)
(3.83946e-06 -0 -0 3.83946e-06 -0 3.83946e-06)
(3.83938e-06 -0 -0 3.83938e-06 -0 3.83938e-06)
(3.83935e-06 -0 -0 3.83935e-06 -0 3.83935e-06)
(3.83929e-06 -0 -0 3.83929e-06 -0 3.83929e-06)
(3.83927e-06 -0 -0 3.83927e-06 -0 3.83927e-06)
(3.83923e-06 -0 -0 3.83923e-06 -0 3.83923e-06)
(3.83921e-06 -0 -0 3.83921e-06 -0 3.83921e-06)
(3.83919e-06 -0 -0 3.83919e-06 -0 3.83919e-06)
(3.83918e-06 -0 -0 3.83918e-06 -0 3.83918e-06)
(3.83917e-06 -0 -0 3.83917e-06 -0 3.83917e-06)
(3.83917e-06 -0 -0 3.83917e-06 -0 3.83917e-06)
(3.85037e-06 -0 -0 3.85037e-06 -0 3.85037e-06)
(3.85037e-06 -0 -0 3.85037e-06 -0 3.85037e-06)
(3.85019e-06 -0 -0 3.85019e-06 -0 3.85019e-06)
(3.85013e-06 -0 -0 3.85013e-06 -0 3.85013e-06)
(3.85001e-06 -0 -0 3.85001e-06 -0 3.85001e-06)
(3.84995e-06 -0 -0 3.84995e-06 -0 3.84995e-06)
(3.84985e-06 -0 -0 3.84985e-06 -0 3.84985e-06)
(3.84979e-06 -0 -0 3.84979e-06 -0 3.84979e-06)
(3.8497e-06 -0 -0 3.8497e-06 -0 3.8497e-06)
(3.84966e-06 -0 -0 3.84966e-06 -0 3.84966e-06)
(3.84959e-06 -0 -0 3.84959e-06 -0 3.84959e-06)
(3.84956e-06 -0 -0 3.84956e-06 -0 3.84956e-06)
(3.8495e-06 -0 -0 3.8495e-06 -0 3.8495e-06)
(3.84948e-06 -0 -0 3.84948e-06 -0 3.84948e-06)
(3.84944e-06 -0 -0 3.84944e-06 -0 3.84944e-06)
(3.84942e-06 -0 -0 3.84942e-06 -0 3.84942e-06)
(3.8494e-06 -0 -0 3.8494e-06 -0 3.8494e-06)
(3.84939e-06 -0 -0 3.84939e-06 -0 3.84939e-06)
(3.84938e-06 -0 -0 3.84938e-06 -0 3.84938e-06)
(3.84938e-06 -0 -0 3.84938e-06 -0 3.84938e-06)
(3.85979e-06 -0 -0 3.85979e-06 -0 3.85979e-06)
(3.85979e-06 -0 -0 3.85979e-06 -0 3.85979e-06)
(3.85961e-06 -0 -0 3.85961e-06 -0 3.85961e-06)
(3.85955e-06 -0 -0 3.85955e-06 -0 3.85955e-06)
(3.85942e-06 -0 -0 3.85942e-06 -0 3.85942e-06)
(3.85937e-06 -0 -0 3.85937e-06 -0 3.85937e-06)
(3.85926e-06 -0 -0 3.85926e-06 -0 3.85926e-06)
(3.85921e-06 -0 -0 3.85921e-06 -0 3.85921e-06)
(3.85912e-06 -0 -0 3.85912e-06 -0 3.85912e-06)
(3.85908e-06 -0 -0 3.85908e-06 -0 3.85908e-06)
(3.85901e-06 -0 -0 3.85901e-06 -0 3.85901e-06)
(3.85898e-06 -0 -0 3.85898e-06 -0 3.85898e-06)
(3.85892e-06 -0 -0 3.85892e-06 -0 3.85892e-06)
(3.8589e-06 -0 -0 3.8589e-06 -0 3.8589e-06)
(3.85885e-06 -0 -0 3.85885e-06 -0 3.85885e-06)
(3.85884e-06 -0 -0 3.85884e-06 -0 3.85884e-06)
(3.85881e-06 -0 -0 3.85881e-06 -0 3.85881e-06)
(3.8588e-06 -0 -0 3.8588e-06 -0 3.8588e-06)
(3.8588e-06 -0 -0 3.8588e-06 -0 3.8588e-06)
(3.85879e-06 -0 -0 3.85879e-06 -0 3.85879e-06)
(3.86938e-06 -0 -0 3.86938e-06 -0 3.86938e-06)
(3.86937e-06 -0 -0 3.86937e-06 -0 3.86937e-06)
(3.8692e-06 -0 -0 3.8692e-06 -0 3.8692e-06)
(3.86913e-06 -0 -0 3.86913e-06 -0 3.86913e-06)
(3.86901e-06 -0 -0 3.86901e-06 -0 3.86901e-06)
(3.86895e-06 -0 -0 3.86895e-06 -0 3.86895e-06)
(3.86885e-06 -0 -0 3.86885e-06 -0 3.86885e-06)
(3.86879e-06 -0 -0 3.86879e-06 -0 3.86879e-06)
(3.86871e-06 -0 -0 3.86871e-06 -0 3.86871e-06)
(3.86866e-06 -0 -0 3.86866e-06 -0 3.86866e-06)
(3.86859e-06 -0 -0 3.86859e-06 -0 3.86859e-06)
(3.86856e-06 -0 -0 3.86856e-06 -0 3.86856e-06)
(3.8685e-06 -0 -0 3.8685e-06 -0 3.8685e-06)
(3.86848e-06 -0 -0 3.86848e-06 -0 3.86848e-06)
(3.86843e-06 -0 -0 3.86843e-06 -0 3.86843e-06)
(3.86842e-06 -0 -0 3.86842e-06 -0 3.86842e-06)
(3.86839e-06 -0 -0 3.86839e-06 -0 3.86839e-06)
(3.86839e-06 -0 -0 3.86839e-06 -0 3.86839e-06)
(3.86838e-06 -0 -0 3.86838e-06 -0 3.86838e-06)
(3.86837e-06 -0 -0 3.86837e-06 -0 3.86837e-06)
(3.87967e-06 -0 -0 3.87967e-06 -0 3.87967e-06)
(3.87967e-06 -0 -0 3.87967e-06 -0 3.87967e-06)
(3.87949e-06 -0 -0 3.87949e-06 -0 3.87949e-06)
(3.87943e-06 -0 -0 3.87943e-06 -0 3.87943e-06)
(3.8793e-06 -0 -0 3.8793e-06 -0 3.8793e-06)
(3.87925e-06 -0 -0 3.87925e-06 -0 3.87925e-06)
(3.87914e-06 -0 -0 3.87914e-06 -0 3.87914e-06)
(3.87909e-06 -0 -0 3.87909e-06 -0 3.87909e-06)
(3.87901e-06 -0 -0 3.87901e-06 -0 3.87901e-06)
(3.87895e-06 -0 -0 3.87895e-06 -0 3.87895e-06)
(3.8789e-06 -0 -0 3.8789e-06 -0 3.8789e-06)
(3.87885e-06 -0 -0 3.87885e-06 -0 3.87885e-06)
(3.87881e-06 -0 -0 3.87881e-06 -0 3.87881e-06)
(3.87877e-06 -0 -0 3.87877e-06 -0 3.87877e-06)
(3.87874e-06 -0 -0 3.87874e-06 -0 3.87874e-06)
(3.87871e-06 -0 -0 3.87871e-06 -0 3.87871e-06)
(3.87869e-06 -0 -0 3.87869e-06 -0 3.87869e-06)
(3.87868e-06 -0 -0 3.87868e-06 -0 3.87868e-06)
(3.87867e-06 -0 -0 3.87867e-06 -0 3.87867e-06)
(3.87867e-06 -0 -0 3.87867e-06 -0 3.87867e-06)
(3.89096e-06 -0 -0 3.89096e-06 -0 3.89096e-06)
(3.89097e-06 -0 -0 3.89097e-06 -0 3.89097e-06)
(3.89078e-06 -0 -0 3.89078e-06 -0 3.89078e-06)
(3.89072e-06 -0 -0 3.89072e-06 -0 3.89072e-06)
(3.89059e-06 -0 -0 3.89059e-06 -0 3.89059e-06)
(3.89054e-06 -0 -0 3.89054e-06 -0 3.89054e-06)
(3.89043e-06 -0 -0 3.89043e-06 -0 3.89043e-06)
(3.89038e-06 -0 -0 3.89038e-06 -0 3.89038e-06)
(3.89028e-06 -0 -0 3.89028e-06 -0 3.89028e-06)
(3.89024e-06 -0 -0 3.89024e-06 -0 3.89024e-06)
(3.89017e-06 -0 -0 3.89017e-06 -0 3.89017e-06)
(3.89013e-06 -0 -0 3.89013e-06 -0 3.89013e-06)
(3.89008e-06 -0 -0 3.89008e-06 -0 3.89008e-06)
(3.89005e-06 -0 -0 3.89005e-06 -0 3.89005e-06)
(3.89001e-06 -0 -0 3.89001e-06 -0 3.89001e-06)
(3.89e-06 -0 -0 3.89e-06 -0 3.89e-06)
(3.88997e-06 -0 -0 3.88997e-06 -0 3.88997e-06)
(3.88996e-06 -0 -0 3.88996e-06 -0 3.88996e-06)
(3.88995e-06 -0 -0 3.88995e-06 -0 3.88995e-06)
(3.88995e-06 -0 -0 3.88995e-06 -0 3.88995e-06)
(3.90318e-06 -0 -0 3.90318e-06 -0 3.90318e-06)
(3.90318e-06 -0 -0 3.90318e-06 -0 3.90318e-06)
(3.903e-06 -0 -0 3.903e-06 -0 3.903e-06)
(3.90294e-06 -0 -0 3.90294e-06 -0 3.90294e-06)
(3.90281e-06 -0 -0 3.90281e-06 -0 3.90281e-06)
(3.90275e-06 -0 -0 3.90275e-06 -0 3.90275e-06)
(3.90265e-06 -0 -0 3.90265e-06 -0 3.90265e-06)
(3.90259e-06 -0 -0 3.90259e-06 -0 3.90259e-06)
(3.9025e-06 -0 -0 3.9025e-06 -0 3.9025e-06)
(3.90246e-06 -0 -0 3.90246e-06 -0 3.90246e-06)
(3.90238e-06 -0 -0 3.90238e-06 -0 3.90238e-06)
(3.90235e-06 -0 -0 3.90235e-06 -0 3.90235e-06)
(3.90229e-06 -0 -0 3.90229e-06 -0 3.90229e-06)
(3.90227e-06 -0 -0 3.90227e-06 -0 3.90227e-06)
(3.90222e-06 -0 -0 3.90222e-06 -0 3.90222e-06)
(3.90221e-06 -0 -0 3.90221e-06 -0 3.90221e-06)
(3.90218e-06 -0 -0 3.90218e-06 -0 3.90218e-06)
(3.90218e-06 -0 -0 3.90218e-06 -0 3.90218e-06)
(3.90217e-06 -0 -0 3.90217e-06 -0 3.90217e-06)
(3.90216e-06 -0 -0 3.90216e-06 -0 3.90216e-06)
(3.91581e-06 -0 -0 3.91581e-06 -0 3.91581e-06)
(3.91581e-06 -0 -0 3.91581e-06 -0 3.91581e-06)
(3.91561e-06 -0 -0 3.91561e-06 -0 3.91561e-06)
(3.91556e-06 -0 -0 3.91556e-06 -0 3.91556e-06)
(3.91545e-06 -0 -0 3.91545e-06 -0 3.91545e-06)
(3.91537e-06 -0 -0 3.91537e-06 -0 3.91537e-06)
(3.91528e-06 -0 -0 3.91528e-06 -0 3.91528e-06)
(3.91521e-06 -0 -0 3.91521e-06 -0 3.91521e-06)
(3.91514e-06 -0 -0 3.91514e-06 -0 3.91514e-06)
(3.91508e-06 -0 -0 3.91508e-06 -0 3.91508e-06)
(3.91502e-06 -0 -0 3.91502e-06 -0 3.91502e-06)
(3.91497e-06 -0 -0 3.91497e-06 -0 3.91497e-06)
(3.91492e-06 -0 -0 3.91492e-06 -0 3.91492e-06)
(3.91489e-06 -0 -0 3.91489e-06 -0 3.91489e-06)
(3.91485e-06 -0 -0 3.91485e-06 -0 3.91485e-06)
(3.91483e-06 -0 -0 3.91483e-06 -0 3.91483e-06)
(3.91481e-06 -0 -0 3.91481e-06 -0 3.91481e-06)
(3.9148e-06 -0 -0 3.9148e-06 -0 3.9148e-06)
(3.91479e-06 -0 -0 3.91479e-06 -0 3.91479e-06)
(3.91479e-06 -0 -0 3.91479e-06 -0 3.91479e-06)
(3.92771e-06 -0 -0 3.92771e-06 -0 3.92771e-06)
(3.9277e-06 -0 -0 3.9277e-06 -0 3.9277e-06)
(3.92752e-06 -0 -0 3.92752e-06 -0 3.92752e-06)
(3.92746e-06 -0 -0 3.92746e-06 -0 3.92746e-06)
(3.92733e-06 -0 -0 3.92733e-06 -0 3.92733e-06)
(3.92727e-06 -0 -0 3.92727e-06 -0 3.92727e-06)
(3.92716e-06 -0 -0 3.92716e-06 -0 3.92716e-06)
(3.9271e-06 -0 -0 3.9271e-06 -0 3.9271e-06)
(3.92702e-06 -0 -0 3.92702e-06 -0 3.92702e-06)
(3.92697e-06 -0 -0 3.92697e-06 -0 3.92697e-06)
(3.9269e-06 -0 -0 3.9269e-06 -0 3.9269e-06)
(3.92686e-06 -0 -0 3.92686e-06 -0 3.92686e-06)
(3.92681e-06 -0 -0 3.92681e-06 -0 3.92681e-06)
(3.92678e-06 -0 -0 3.92678e-06 -0 3.92678e-06)
(3.92674e-06 -0 -0 3.92674e-06 -0 3.92674e-06)
(3.92672e-06 -0 -0 3.92672e-06 -0 3.92672e-06)
(3.92669e-06 -0 -0 3.92669e-06 -0 3.92669e-06)
(3.92669e-06 -0 -0 3.92669e-06 -0 3.92669e-06)
(3.92668e-06 -0 -0 3.92668e-06 -0 3.92668e-06)
(3.92667e-06 -0 -0 3.92667e-06 -0 3.92667e-06)
(3.93716e-06 -0 -0 3.93716e-06 -0 3.93716e-06)
(3.93716e-06 -0 -0 3.93716e-06 -0 3.93716e-06)
(3.93699e-06 -0 -0 3.93699e-06 -0 3.93699e-06)
(3.93692e-06 -0 -0 3.93692e-06 -0 3.93692e-06)
(3.9368e-06 -0 -0 3.9368e-06 -0 3.9368e-06)
(3.93674e-06 -0 -0 3.93674e-06 -0 3.93674e-06)
(3.93664e-06 -0 -0 3.93664e-06 -0 3.93664e-06)
(3.93657e-06 -0 -0 3.93657e-06 -0 3.93657e-06)
(3.93651e-06 -0 -0 3.93651e-06 -0 3.93651e-06)
(3.93644e-06 -0 -0 3.93644e-06 -0 3.93644e-06)
(3.93639e-06 -0 -0 3.93639e-06 -0 3.93639e-06)
(3.93634e-06 -0 -0 3.93634e-06 -0 3.93634e-06)
(3.9363e-06 -0 -0 3.9363e-06 -0 3.9363e-06)
(3.93626e-06 -0 -0 3.93626e-06 -0 3.93626e-06)
(3.93623e-06 -0 -0 3.93623e-06 -0 3.93623e-06)
(3.9362e-06 -0 -0 3.9362e-06 -0 3.9362e-06)
(3.93618e-06 -0 -0 3.93618e-06 -0 3.93618e-06)
(3.93617e-06 -0 -0 3.93617e-06 -0 3.93617e-06)
(3.93616e-06 -0 -0 3.93616e-06 -0 3.93616e-06)
(3.93616e-06 -0 -0 3.93616e-06 -0 3.93616e-06)
(3.94149e-06 -0 -0 3.94149e-06 -0 3.94149e-06)
(3.94149e-06 -0 -0 3.94149e-06 -0 3.94149e-06)
(3.94148e-06 -0 -0 3.94148e-06 -0 3.94148e-06)
(3.94148e-06 -0 -0 3.94148e-06 -0 3.94148e-06)
(3.94148e-06 -0 -0 3.94148e-06 -0 3.94148e-06)
(3.94148e-06 -0 -0 3.94148e-06 -0 3.94148e-06)
(3.94148e-06 -0 -0 3.94148e-06 -0 3.94148e-06)
(3.94148e-06 -0 -0 3.94148e-06 -0 3.94148e-06)
(3.94148e-06 -0 -0 3.94148e-06 -0 3.94148e-06)
(3.94148e-06 -0 -0 3.94148e-06 -0 3.94148e-06)
(3.94148e-06 -0 -0 3.94148e-06 -0 3.94148e-06)
(3.94147e-06 -0 -0 3.94147e-06 -0 3.94147e-06)
(3.94147e-06 -0 -0 3.94147e-06 -0 3.94147e-06)
(3.94147e-06 -0 -0 3.94147e-06 -0 3.94147e-06)
(3.94147e-06 -0 -0 3.94147e-06 -0 3.94147e-06)
(3.94147e-06 -0 -0 3.94147e-06 -0 3.94147e-06)
(3.94147e-06 -0 -0 3.94147e-06 -0 3.94147e-06)
(3.94147e-06 -0 -0 3.94147e-06 -0 3.94147e-06)
(3.94147e-06 -0 -0 3.94147e-06 -0 3.94147e-06)
(3.94147e-06 -0 -0 3.94147e-06 -0 3.94147e-06)
)
;

boundaryField
{
    movingWall
    {
        type            kqRWallFunction;
        value           nonuniform List<symmTensor> 
20
(
(3.94149e-06 -0 -0 3.94149e-06 -0 3.94149e-06)
(3.94149e-06 -0 -0 3.94149e-06 -0 3.94149e-06)
(3.94148e-06 -0 -0 3.94148e-06 -0 3.94148e-06)
(3.94148e-06 -0 -0 3.94148e-06 -0 3.94148e-06)
(3.94148e-06 -0 -0 3.94148e-06 -0 3.94148e-06)
(3.94148e-06 -0 -0 3.94148e-06 -0 3.94148e-06)
(3.94148e-06 -0 -0 3.94148e-06 -0 3.94148e-06)
(3.94148e-06 -0 -0 3.94148e-06 -0 3.94148e-06)
(3.94148e-06 -0 -0 3.94148e-06 -0 3.94148e-06)
(3.94148e-06 -0 -0 3.94148e-06 -0 3.94148e-06)
(3.94148e-06 -0 -0 3.94148e-06 -0 3.94148e-06)
(3.94147e-06 -0 -0 3.94147e-06 -0 3.94147e-06)
(3.94147e-06 -0 -0 3.94147e-06 -0 3.94147e-06)
(3.94147e-06 -0 -0 3.94147e-06 -0 3.94147e-06)
(3.94147e-06 -0 -0 3.94147e-06 -0 3.94147e-06)
(3.94147e-06 -0 -0 3.94147e-06 -0 3.94147e-06)
(3.94147e-06 -0 -0 3.94147e-06 -0 3.94147e-06)
(3.94147e-06 -0 -0 3.94147e-06 -0 3.94147e-06)
(3.94147e-06 -0 -0 3.94147e-06 -0 3.94147e-06)
(3.94147e-06 -0 -0 3.94147e-06 -0 3.94147e-06)
)
;
    }
    fixedWalls
    {
        type            kqRWallFunction;
        value           nonuniform List<symmTensor> 
60
(
(3.22788e-06 -0 -0 3.22788e-06 -0 3.22788e-06)
(3.31047e-06 -0 -0 3.31047e-06 -0 3.31047e-06)
(3.43671e-06 -0 -0 3.43671e-06 -0 3.43671e-06)
(3.56342e-06 -0 -0 3.56342e-06 -0 3.56342e-06)
(3.66498e-06 -0 -0 3.66498e-06 -0 3.66498e-06)
(3.73576e-06 -0 -0 3.73576e-06 -0 3.73576e-06)
(3.78117e-06 -0 -0 3.78117e-06 -0 3.78117e-06)
(3.8094e-06 -0 -0 3.8094e-06 -0 3.8094e-06)
(3.82747e-06 -0 -0 3.82747e-06 -0 3.82747e-06)
(3.84016e-06 -0 -0 3.84016e-06 -0 3.84016e-06)
(3.85037e-06 -0 -0 3.85037e-06 -0 3.85037e-06)
(3.85979e-06 -0 -0 3.85979e-06 -0 3.85979e-06)
(3.86938e-06 -0 -0 3.86938e-06 -0 3.86938e-06)
(3.87967e-06 -0 -0 3.87967e-06 -0 3.87967e-06)
(3.89096e-06 -0 -0 3.89096e-06 -0 3.89096e-06)
(3.90318e-06 -0 -0 3.90318e-06 -0 3.90318e-06)
(3.91581e-06 -0 -0 3.91581e-06 -0 3.91581e-06)
(3.92771e-06 -0 -0 3.92771e-06 -0 3.92771e-06)
(3.93716e-06 -0 -0 3.93716e-06 -0 3.93716e-06)
(3.94149e-06 -0 -0 3.94149e-06 -0 3.94149e-06)
(3.22786e-06 -0 -0 3.22786e-06 -0 3.22786e-06)
(3.30975e-06 -0 -0 3.30975e-06 -0 3.30975e-06)
(3.43592e-06 -0 -0 3.43592e-06 -0 3.43592e-06)
(3.56258e-06 -0 -0 3.56258e-06 -0 3.56258e-06)
(3.66408e-06 -0 -0 3.66408e-06 -0 3.66408e-06)
(3.73483e-06 -0 -0 3.73483e-06 -0 3.73483e-06)
(3.78021e-06 -0 -0 3.78021e-06 -0 3.78021e-06)
(3.80843e-06 -0 -0 3.80843e-06 -0 3.80843e-06)
(3.82649e-06 -0 -0 3.82649e-06 -0 3.82649e-06)
(3.83917e-06 -0 -0 3.83917e-06 -0 3.83917e-06)
(3.84938e-06 -0 -0 3.84938e-06 -0 3.84938e-06)
(3.85879e-06 -0 -0 3.85879e-06 -0 3.85879e-06)
(3.86837e-06 -0 -0 3.86837e-06 -0 3.86837e-06)
(3.87867e-06 -0 -0 3.87867e-06 -0 3.87867e-06)
(3.88995e-06 -0 -0 3.88995e-06 -0 3.88995e-06)
(3.90216e-06 -0 -0 3.90216e-06 -0 3.90216e-06)
(3.91479e-06 -0 -0 3.91479e-06 -0 3.91479e-06)
(3.92667e-06 -0 -0 3.92667e-06 -0 3.92667e-06)
(3.93616e-06 -0 -0 3.93616e-06 -0 3.93616e-06)
(3.94147e-06 -0 -0 3.94147e-06 -0 3.94147e-06)
(3.22788e-06 -0 -0 3.22788e-06 -0 3.22788e-06)
(3.22787e-06 -0 -0 3.22787e-06 -0 3.22787e-06)
(3.22787e-06 -0 -0 3.22787e-06 -0 3.22787e-06)
(3.22787e-06 -0 -0 3.22787e-06 -0 3.22787e-06)
(3.22787e-06 -0 -0 3.22787e-06 -0 3.22787e-06)
(3.22787e-06 -0 -0 3.22787e-06 -0 3.22787e-06)
(3.22787e-06 -0 -0 3.22787e-06 -0 3.22787e-06)
(3.22787e-06 -0 -0 3.22787e-06 -0 3.22787e-06)
(3.22786e-06 -0 -0 3.22786e-06 -0 3.22786e-06)
(3.22786e-06 -0 -0 3.22786e-06 -0 3.22786e-06)
(3.22786e-06 -0 -0 3.22786e-06 -0 3.22786e-06)
(3.22786e-06 -0 -0 3.22786e-06 -0 3.22786e-06)
(3.22786e-06 -0 -0 3.22786e-06 -0 3.22786e-06)
(3.22786e-06 -0 -0 3.22786e-06 -0 3.22786e-06)
(3.22786e-06 -0 -0 3.22786e-06 -0 3.22786e-06)
(3.22786e-06 -0 -0 3.22786e-06 -0 3.22786e-06)
(3.22786e-06 -0 -0 3.22786e-06 -0 3.22786e-06)
(3.22786e-06 -0 -0 3.22786e-06 -0 3.22786e-06)
(3.22786e-06 -0 -0 3.22786e-06 -0 3.22786e-06)
(3.22786e-06 -0 -0 3.22786e-06 -0 3.22786e-06)
)
;
    }
    frontAndBack
    {
        type            empty;
    }
}


// ************************************************************************* //
