/*--------------------------------*- C++ -*----------------------------------*\
| =========                 |                                                 |
| \\      /  F ield         | OpenFOAM: The Open Source CFD Toolbox           |
|  \\    /   O peration     | Version:  2312                                  |
|   \\  /    A nd           | Website:  www.openfoam.com                      |
|    \\/     M anipulation  |                                                 |
\*---------------------------------------------------------------------------*/
FoamFile
{
    version     2.0;
    format      ascii;
    arch        "LSB;label=32;scalar=64";
    class       volScalarField;
    location    "7.5";
    object      turbulenceProperties:nuEff;
}
// * * * * * * * * * * * * * * * * * * * * * * * * * * * * * * * * * * * * * //

dimensions      [0 2 -1 0 0 0 0];

internalField   nonuniform List<scalar> 
400
(
1.12322e-05
1.12322e-05
1.12322e-05
1.12322e-05
1.12322e-05
1.12322e-05
1.12322e-05
1.12322e-05
1.12322e-05
1.12322e-05
1.12322e-05
1.12322e-05
1.12322e-05
1.12322e-05
1.12322e-05
1.12322e-05
1.12322e-05
1.12322e-05
1.12322e-05
1.12322e-05
1.12478e-05
1.12645e-05
1.1263e-05
1.12624e-05
1.12611e-05
1.12605e-05
1.12592e-05
1.12586e-05
1.12574e-05
1.12567e-05
1.12555e-05
1.12548e-05
1.12536e-05
1.12529e-05
1.12517e-05
1.12511e-05
1.12498e-05
1.12492e-05
1.12486e-05
1.12476e-05
1.12712e-05
1.12889e-05
1.12873e-05
1.12866e-05
1.12853e-05
1.12846e-05
1.12833e-05
1.12826e-05
1.12813e-05
1.12806e-05
1.12793e-05
1.12786e-05
1.12773e-05
1.12766e-05
1.12753e-05
1.12746e-05
1.12734e-05
1.12727e-05
1.1272e-05
1.12711e-05
1.12943e-05
1.13127e-05
1.1311e-05
1.13103e-05
1.13089e-05
1.13082e-05
1.13068e-05
1.13061e-05
1.13048e-05
1.1304e-05
1.13027e-05
1.1302e-05
1.13006e-05
1.12999e-05
1.12986e-05
1.12979e-05
1.12966e-05
1.12958e-05
1.12952e-05
1.12942e-05
1.13126e-05
1.13315e-05
1.13297e-05
1.1329e-05
1.13276e-05
1.13269e-05
1.13255e-05
1.13247e-05
1.13233e-05
1.13226e-05
1.13212e-05
1.13205e-05
1.13191e-05
1.13184e-05
1.1317e-05
1.13162e-05
1.13149e-05
1.13141e-05
1.13135e-05
1.13124e-05
1.13252e-05
1.13444e-05
1.13427e-05
1.13419e-05
1.13405e-05
1.13397e-05
1.13383e-05
1.13376e-05
1.13361e-05
1.13354e-05
1.1334e-05
1.13332e-05
1.13318e-05
1.13311e-05
1.13297e-05
1.13289e-05
1.13275e-05
1.13268e-05
1.13261e-05
1.1325e-05
1.13332e-05
1.13527e-05
1.13509e-05
1.13502e-05
1.13487e-05
1.13479e-05
1.13465e-05
1.13457e-05
1.13443e-05
1.13435e-05
1.13421e-05
1.13413e-05
1.13399e-05
1.13392e-05
1.13377e-05
1.1337e-05
1.13356e-05
1.13348e-05
1.13341e-05
1.1333e-05
1.13382e-05
1.13578e-05
1.1356e-05
1.13553e-05
1.13538e-05
1.1353e-05
1.13515e-05
1.13508e-05
1.13493e-05
1.13486e-05
1.13471e-05
1.13464e-05
1.13449e-05
1.13442e-05
1.13427e-05
1.1342e-05
1.13405e-05
1.13398e-05
1.13391e-05
1.1338e-05
1.13413e-05
1.13611e-05
1.13593e-05
1.13585e-05
1.1357e-05
1.13563e-05
1.13548e-05
1.1354e-05
1.13525e-05
1.13518e-05
1.13503e-05
1.13496e-05
1.13481e-05
1.13474e-05
1.13459e-05
1.13452e-05
1.13437e-05
1.13429e-05
1.13422e-05
1.13412e-05
1.13435e-05
1.13634e-05
1.13615e-05
1.13608e-05
1.13593e-05
1.13585e-05
1.1357e-05
1.13563e-05
1.13548e-05
1.1354e-05
1.13526e-05
1.13518e-05
1.13504e-05
1.13496e-05
1.13481e-05
1.13474e-05
1.13459e-05
1.13452e-05
1.13445e-05
1.13434e-05
1.13453e-05
1.13652e-05
1.13634e-05
1.13626e-05
1.13611e-05
1.13603e-05
1.13589e-05
1.13581e-05
1.13566e-05
1.13559e-05
1.13544e-05
1.13536e-05
1.13522e-05
1.13514e-05
1.13499e-05
1.13492e-05
1.13477e-05
1.1347e-05
1.13462e-05
1.13451e-05
1.1347e-05
1.13669e-05
1.13651e-05
1.13643e-05
1.13628e-05
1.1362e-05
1.13605e-05
1.13598e-05
1.13583e-05
1.13575e-05
1.1356e-05
1.13553e-05
1.13538e-05
1.1353e-05
1.13516e-05
1.13508e-05
1.13494e-05
1.13486e-05
1.13479e-05
1.13468e-05
1.13486e-05
1.13686e-05
1.13668e-05
1.1366e-05
1.13645e-05
1.13637e-05
1.13622e-05
1.13615e-05
1.136e-05
1.13592e-05
1.13577e-05
1.1357e-05
1.13555e-05
1.13547e-05
1.13533e-05
1.13525e-05
1.13511e-05
1.13503e-05
1.13496e-05
1.13485e-05
1.13504e-05
1.13705e-05
1.13686e-05
1.13678e-05
1.13663e-05
1.13656e-05
1.13641e-05
1.13633e-05
1.13618e-05
1.1361e-05
1.13596e-05
1.13588e-05
1.13573e-05
1.13565e-05
1.13551e-05
1.13543e-05
1.13529e-05
1.13521e-05
1.13513e-05
1.13502e-05
1.13524e-05
1.13725e-05
1.13706e-05
1.13699e-05
1.13683e-05
1.13676e-05
1.13661e-05
1.13653e-05
1.13638e-05
1.1363e-05
1.13615e-05
1.13608e-05
1.13593e-05
1.13585e-05
1.1357e-05
1.13563e-05
1.13548e-05
1.1354e-05
1.13533e-05
1.13522e-05
1.13545e-05
1.13747e-05
1.13728e-05
1.1372e-05
1.13705e-05
1.13697e-05
1.13682e-05
1.13674e-05
1.13659e-05
1.13652e-05
1.13637e-05
1.13629e-05
1.13614e-05
1.13606e-05
1.13592e-05
1.13584e-05
1.13569e-05
1.13561e-05
1.13554e-05
1.13543e-05
1.13567e-05
1.13769e-05
1.1375e-05
1.13743e-05
1.13727e-05
1.13719e-05
1.13705e-05
1.13697e-05
1.13682e-05
1.13674e-05
1.13659e-05
1.13651e-05
1.13636e-05
1.13628e-05
1.13614e-05
1.13606e-05
1.13591e-05
1.13583e-05
1.13576e-05
1.13565e-05
1.13587e-05
1.1379e-05
1.13771e-05
1.13764e-05
1.13748e-05
1.1374e-05
1.13725e-05
1.13717e-05
1.13702e-05
1.13695e-05
1.1368e-05
1.13672e-05
1.13657e-05
1.13649e-05
1.13634e-05
1.13626e-05
1.13612e-05
1.13604e-05
1.13597e-05
1.13585e-05
1.13604e-05
1.13803e-05
1.13785e-05
1.13777e-05
1.13763e-05
1.13755e-05
1.1374e-05
1.13732e-05
1.13718e-05
1.1371e-05
1.13695e-05
1.13688e-05
1.13673e-05
1.13665e-05
1.13651e-05
1.13643e-05
1.13628e-05
1.1362e-05
1.13613e-05
1.13602e-05
1.13611e-05
1.13611e-05
1.13611e-05
1.13611e-05
1.13611e-05
1.13611e-05
1.13611e-05
1.13611e-05
1.13611e-05
1.13611e-05
1.13611e-05
1.13611e-05
1.13611e-05
1.13611e-05
1.13611e-05
1.13611e-05
1.13611e-05
1.13611e-05
1.13611e-05
1.13611e-05
)
;

boundaryField
{
    movingWall
    {
        type            calculated;
        value           uniform 1e-05;
    }
    fixedWalls
    {
        type            calculated;
        value           uniform 1e-05;
    }
    frontAndBack
    {
        type            empty;
    }
}


// ************************************************************************* //
