/*--------------------------------*- C++ -*----------------------------------*\
| =========                 |                                                 |
| \\      /  F ield         | OpenFOAM: The Open Source CFD Toolbox           |
|  \\    /   O peration     | Version:  2312                                  |
|   \\  /    A nd           | Website:  www.openfoam.com                      |
|    \\/     M anipulation  |                                                 |
\*---------------------------------------------------------------------------*/
FoamFile
{
    version     2.0;
    format      ascii;
    arch        "LSB;label=32;scalar=64";
    class       volVectorField;
    location    "7.5";
    object      UMean;
}
// * * * * * * * * * * * * * * * * * * * * * * * * * * * * * * * * * * * * * //

dimensions      [0 1 -1 0 0 0 0];

internalField   nonuniform List<vector> 
400
(
(-0.666729 4.99423e-05 0)
(-0.667135 0.000225595 0)
(-0.667891 0.000339351 0)
(-0.668762 0.000396515 0)
(-0.669724 0.000449236 0)
(-0.6708 0.000518916 0)
(-0.672023 0.000610286 0)
(-0.673402 0.000708303 0)
(-0.674877 0.000760753 0)
(-0.676301 0.000713832 0)
(-0.677456 0.000539886 0)
(-0.678116 0.000248559 0)
(-0.678105 -0.000148225 0)
(-0.677276 -0.00057061 0)
(-0.675646 -0.00096163 0)
(-0.673403 -0.00121873 0)
(-0.670881 -0.00122546 0)
(-0.668478 -0.000894647 0)
(-0.66688 -0.000359855 0)
(-0.666498 8.78557e-05 0)
(-0.666945 0.000490701 0)
(-0.667757 0.00105479 0)
(-0.668867 0.00136282 0)
(-0.67011 0.00152278 0)
(-0.671449 0.00167867 0)
(-0.672909 0.0018763 0)
(-0.67451 0.00208631 0)
(-0.676214 0.00223264 0)
(-0.67793 0.00221643 0)
(-0.679515 0.00194878 0)
(-0.680791 0.0013845 0)
(-0.681567 0.000531101 0)
(-0.681654 -0.000557858 0)
(-0.68092 -0.00176501 0)
(-0.679288 -0.00290206 0)
(-0.676838 -0.00370078 0)
(-0.67382 -0.00386823 0)
(-0.670636 -0.00314237 0)
(-0.667868 -0.00163514 0)
(-0.666664 -9.34918e-05 0)
(-0.667152 0.00136133 0)
(-0.668197 0.00218637 0)
(-0.66944 0.00263395 0)
(-0.670831 0.0029131 0)
(-0.67234 0.00319383 0)
(-0.673983 0.00352317 0)
(-0.67577 0.00384296 0)
(-0.677674 0.00403576 0)
(-0.679612 0.0039599 0)
(-0.681454 0.00349127 0)
(-0.683023 0.00255314 0)
(-0.684116 0.00112741 0)
(-0.684532 -0.000716611 0)
(-0.684131 -0.00282485 0)
(-0.682811 -0.00493265 0)
(-0.680494 -0.00663249 0)
(-0.677233 -0.00738686 0)
(-0.673305 -0.00662441 0)
(-0.669324 -0.00412986 0)
(-0.666861 -0.000964792 0)
(-0.667271 0.00243625 0)
(-0.668455 0.00343641 0)
(-0.669763 0.00398648 0)
(-0.671205 0.00438946 0)
(-0.672771 0.00481132 0)
(-0.674494 0.00529156 0)
(-0.676396 0.00575378 0)
(-0.678455 0.00603908 0)
(-0.680592 0.00595208 0)
(-0.682662 0.00531547 0)
(-0.684478 0.00401616 0)
(-0.685832 0.0020349 0)
(-0.686544 -0.000549093 0)
(-0.686477 -0.00354522 0)
(-0.685552 -0.0066565 0)
(-0.683652 -0.00945617 0)
(-0.680615 -0.0112727 0)
(-0.676386 -0.0111563 0)
(-0.671406 -0.00816217 0)
(-0.667345 -0.00264107 0)
(-0.667312 0.00361978 0)
(-0.668549 0.00475726 0)
(-0.669858 0.0053755 0)
(-0.67128 0.0058865 0)
(-0.67283 0.00645584 0)
(-0.67455 0.00711462 0)
(-0.676473 0.0077572 0)
(-0.678582 0.00817336 0)
(-0.680787 0.00810266 0)
(-0.682923 0.00730994 0)
(-0.684788 0.00566222 0)
(-0.686207 0.00316528 0)
(-0.687048 -6.72273e-05 0)
(-0.687228 -0.00381496 0)
(-0.686664 -0.00779275 0)
(-0.685307 -0.0116457 0)
(-0.682898 -0.0147702 0)
(-0.679022 -0.0160178 0)
(-0.67365 -0.0135428 0)
(-0.668344 -0.00593986 0)
(-0.66729 0.00481676 0)
(-0.668501 0.00607042 0)
(-0.669753 0.00673569 0)
(-0.671096 0.00734304 0)
(-0.672554 0.00806024 0)
(-0.674174 0.00890676 0)
(-0.675994 0.00974176 0)
(-0.678001 0.010296 0)
(-0.6801 0.0102363 0)
(-0.682139 0.00928289 0)
(-0.683958 0.0073073 0)
(-0.685418 0.00434511 0)
(-0.686385 0.000553753 0)
(-0.686736 -0.00384298 0)
(-0.686414 -0.0085307 0)
(-0.685432 -0.0132023 0)
(-0.68366 -0.0174776 0)
(-0.680545 -0.02042 0)
(-0.675431 -0.0195825 0)
(-0.669408 -0.0109264 0)
(-0.667223 0.00594789 0)
(-0.668343 0.00730851 0)
(-0.669485 0.0080056 0)
(-0.67069 0.00868724 0)
(-0.671982 0.00952889 0)
(-0.673397 0.0105429 0)
(-0.674978 0.0115509 0)
(-0.676722 0.0122317 0)
(-0.678566 0.0121991 0)
(-0.680414 0.0111475 0)
(-0.68217 0.00894559 0)
(-0.683709 0.00561839 0)
(-0.684849 0.0013101 0)
(-0.685401 -0.00371724 0)
(-0.685289 -0.00908605 0)
(-0.684553 -0.0144198 0)
(-0.683211 -0.0195263 0)
(-0.680873 -0.0239723 0)
(-0.676429 -0.0254396 0)
(-0.670223 -0.0172891 0)
(-0.667129 0.00694759 0)
(-0.668105 0.00841621 0)
(-0.669095 0.00912893 0)
(-0.670114 0.00985085 0)
(-0.671172 0.0107694 0)
(-0.672294 0.0118971 0)
(-0.673509 0.0130327 0)
(-0.674846 0.0138409 0)
(-0.676301 0.0138928 0)
(-0.677853 0.0128499 0)
(-0.679472 0.0105685 0)
(-0.681048 0.00701263 0)
(-0.682356 0.00226664 0)
(-0.683176 -0.00337484 0)
(-0.683368 -0.00942682 0)
(-0.682952 -0.0153867 0)
(-0.681985 -0.0211456 0)
(-0.680308 -0.0267233 0)
(-0.676682 -0.0306393 0)
(-0.67069 -0.0244293 0)
(-0.667018 0.00777121 0)
(-0.667818 0.00935041 0)
(-0.668626 0.0100629 0)
(-0.669427 0.0107839 0)
(-0.67021 0.0117161 0)
(-0.670974 0.0128792 0)
(-0.671743 0.0140742 0)
(-0.672566 0.0149825 0)
(-0.673495 0.0151716 0)
(-0.674584 0.0142903 0)
(-0.675893 0.0121182 0)
(-0.677358 0.00850422 0)
(-0.67879 0.00346375 0)
(-0.679908 -0.00270632 0)
(-0.68052 -0.00936292 0)
(-0.680607 -0.0159372 0)
(-0.680165 -0.0223024 0)
(-0.679149 -0.0287855 0)
(-0.676412 -0.0350507 0)
(-0.6709 -0.0317584 0)
(-0.666904 0.00839498 0)
(-0.667511 0.0100868 0)
(-0.668122 0.0107841 0)
(-0.668695 0.0114593 0)
(-0.669191 0.0123318 0)
(-0.669584 0.0134367 0)
(-0.669882 0.0146119 0)
(-0.670136 0.0155657 0)
(-0.670438 0.0159041 0)
(-0.670899 0.0152549 0)
(-0.671639 0.0133538 0)
(-0.672727 0.00996403 0)
(-0.674099 0.00493707 0)
(-0.675479 -0.00149794 0)
(-0.676667 -0.00863738 0)
(-0.677481 -0.0158175 0)
(-0.677772 -0.0227881 0)
(-0.677546 -0.0301213 0)
(-0.67578 -0.0385654 0)
(-0.671028 -0.0389178 0)
(-0.666798 0.00881646 0)
(-0.667216 0.0106199 0)
(-0.667635 0.0112874 0)
(-0.667987 0.0118761 0)
(-0.668214 0.0126224 0)
(-0.668265 0.0135791 0)
(-0.668132 0.0146316 0)
(-0.667847 0.0155318 0)
(-0.667509 0.0159515 0)
(-0.667254 0.0155442 0)
(-0.667264 0.0140242 0)
(-0.66768 0.0111024 0)
(-0.668668 0.00647 0)
(-0.67021 0.000178064 0)
(-0.67202 -0.0071531 0)
(-0.673681 -0.0147875 0)
(-0.674868 -0.0223811 0)
(-0.675576 -0.0305454 0)
(-0.674889 -0.0411074 0)
(-0.671165 -0.0457325 0)
(-0.666716 0.00905428 0)
(-0.666969 0.0109641 0)
(-0.667212 0.0115879 0)
(-0.667367 0.0120572 0)
(-0.667361 0.0126263 0)
(-0.667133 0.0133626 0)
(-0.666657 0.0141955 0)
(-0.665947 0.0149311 0)
(-0.665086 0.0153079 0)
(-0.664208 0.0150417 0)
(-0.663499 0.0138684 0)
(-0.663172 0.0115136 0)
(-0.663523 0.00768811 0)
(-0.664833 0.00215929 0)
(-0.667025 -0.00488951 0)
(-0.66949 -0.0127353 0)
(-0.67162 -0.0209385 0)
(-0.673327 -0.029919 0)
(-0.673824 -0.0425876 0)
(-0.671343 -0.0521491 0)
(-0.666672 0.00915272 0)
(-0.6668 0.0111485 0)
(-0.666896 0.0117121 0)
(-0.666883 0.0120372 0)
(-0.666683 0.0123985 0)
(-0.666241 0.0128762 0)
(-0.665526 0.0134338 0)
(-0.664542 0.0139297 0)
(-0.663353 0.0141649 0)
(-0.662077 0.0139171 0)
(-0.660889 0.012974 0)
(-0.660018 0.0111339 0)
(-0.659761 0.0081568 0)
(-0.660538 0.00378108 0)
(-0.66255 -0.00230631 0)
(-0.66539 -0.00993961 0)
(-0.668301 -0.018471 0)
(-0.670932 -0.0281784 0)
(-0.672682 -0.0429241 0)
(-0.671584 -0.0581545 0)
(-0.666681 0.00919793 0)
(-0.666742 0.0112243 0)
(-0.666726 0.0116939 0)
(-0.666568 0.0118496 0)
(-0.666204 0.0119879 0)
(-0.665596 0.0122012 0)
(-0.66472 0.0124762 0)
(-0.663584 0.0127178 0)
(-0.66224 0.0127789 0)
(-0.660789 0.0124922 0)
(-0.659385 0.0117004 0)
(-0.658236 0.0102719 0)
(-0.657583 0.00805414 0)
(-0.657768 0.00475988 0)
(-0.659213 -3.77614e-05 0)
(-0.661861 -0.00681276 0)
(-0.665165 -0.0151681 0)
(-0.668533 -0.0253769 0)
(-0.671493 -0.0419403 0)
(-0.671879 -0.0635574 0)
(-0.666765 0.00919608 0)
(-0.666847 0.0112122 0)
(-0.666744 0.0115431 0)
(-0.66645 0.0115028 0)
(-0.665929 0.0114146 0)
(-0.665171 0.0113787 0)
(-0.664172 0.011398 0)
(-0.662947 0.0114114 0)
(-0.661542 0.0113157 0)
(-0.660043 0.01099 0)
(-0.658579 0.0103218 0)
(-0.65731 0.00921726 0)
(-0.656423 0.00756969 0)
(-0.656158 0.00516569 0)
(-0.65691 0.00156837 0)
(-0.658985 -0.00384536 0)
(-0.662246 -0.0113954 0)
(-0.666106 -0.0217341 0)
(-0.669988 -0.0393783 0)
(-0.672105 -0.0681008 0)
(-0.666967 0.00964886 0)
(-0.667125 0.0113134 0)
(-0.666961 0.0113336 0)
(-0.666529 0.0110253 0)
(-0.66584 0.0106956 0)
(-0.664922 0.010429 0)
(-0.663795 0.0102318 0)
(-0.662485 0.0100605 0)
(-0.661036 0.0098429 0)
(-0.659519 0.00949404 0)
(-0.658033 0.00893069 0)
(-0.656701 0.00807809 0)
(-0.655665 0.00685751 0)
(-0.655098 0.00512688 0)
(-0.655293 0.00253384 0)
(-0.656627 -0.00152359 0)
(-0.659603 -0.00772547 0)
(-0.663241 -0.017754 0)
(-0.667548 -0.0353429 0)
(-0.672005 -0.0722025 0)
(-0.667418 0.00903373 0)
(-0.667895 0.0106067 0)
(-0.66752 0.0105503 0)
(-0.666816 0.0101511 0)
(-0.665879 0.00969841 0)
(-0.66475 0.00928457 0)
(-0.663446 0.0089422 0)
(-0.662004 0.00864934 0)
(-0.660463 0.00835629 0)
(-0.658879 0.00800277 0)
(-0.657327 0.00752726 0)
(-0.655896 0.00687101 0)
(-0.65471 0.00598258 0)
(-0.653908 0.00475955 0)
(-0.653723 0.00297447 0)
(-0.654364 5.76335e-05 0)
(-0.656946 -0.00456192 0)
(-0.659126 -0.0141099 0)
(-0.664259 -0.0306726 0)
(-0.671268 -0.0770533 0)
(-0.668039 0.014599 0)
(-0.66854 0.014049 0)
(-0.667775 0.0121994 0)
(-0.666721 0.0105721 0)
(-0.665475 0.00941124 0)
(-0.664022 0.0085529 0)
(-0.662396 0.00791017 0)
(-0.660663 0.00741227 0)
(-0.658869 0.00698849 0)
(-0.657061 0.00658127 0)
(-0.655298 0.0061451 0)
(-0.653664 0.00564463 0)
(-0.652258 0.00503721 0)
(-0.651173 0.00425251 0)
(-0.650651 0.00316624 0)
(-0.650611 0.00123138 0)
(-0.652908 -0.00210939 0)
(-0.651847 -0.0106176 0)
(-0.661997 -0.0243379 0)
(-0.667897 -0.0809098 0)
(-0.668898 0.00545449 0)
(-0.669767 0.00335905 0)
(-0.667077 0.00347771 0)
(-0.664085 0.0043897 0)
(-0.661 0.00460846 0)
(-0.657996 0.00444931 0)
(-0.655154 0.00425397 0)
(-0.652468 0.0040957 0)
(-0.649917 0.00394742 0)
(-0.647486 0.0037838 0)
(-0.645182 0.00359456 0)
(-0.643031 0.00336995 0)
(-0.641087 0.00309742 0)
(-0.639357 0.00272254 0)
(-0.638137 0.0022099 0)
(-0.636881 0.0011428 0)
(-0.63906 -0.000347494 0)
(-0.634839 -0.00560984 0)
(-0.658859 -0.0126454 0)
(-0.647418 -0.0706817 0)
(-0.653361 0.0306428 0)
(-0.646405 0.022414 0)
(-0.638289 0.0137392 0)
(-0.631424 0.00897683 0)
(-0.626213 0.00651616 0)
(-0.621876 0.00508919 0)
(-0.61795 0.00415705 0)
(-0.61432 0.00350038 0)
(-0.610958 0.00301012 0)
(-0.607832 0.00263057 0)
(-0.60492 0.00232406 0)
(-0.602214 0.00206601 0)
(-0.599745 0.00183923 0)
(-0.597491 0.00162322 0)
(-0.595769 0.00138932 0)
(-0.593843 0.00106343 0)
(-0.595639 0.000674762 0)
(-0.588231 -0.000733166 0)
(-0.628075 0.00189231 0)
(-0.545849 -0.031952 0)
)
;

boundaryField
{
    movingWall
    {
        type            calculated;
        value           uniform (-0.333333 0 0);
    }
    fixedWalls
    {
        type            calculated;
        value           uniform (-0.666667 0 0);
    }
    frontAndBack
    {
        type            empty;
    }
}


// ************************************************************************* //
