/*--------------------------------*- C++ -*----------------------------------*\
| =========                 |                                                 |
| \\      /  F ield         | OpenFOAM: The Open Source CFD Toolbox           |
|  \\    /   O peration     | Version:  2312                                  |
|   \\  /    A nd           | Website:  www.openfoam.com                      |
|    \\/     M anipulation  |                                                 |
\*---------------------------------------------------------------------------*/
FoamFile
{
    version     2.0;
    format      ascii;
    arch        "LSB;label=32;scalar=64";
    class       volVectorField;
    location    "7.5";
    object      UNear;
}
// * * * * * * * * * * * * * * * * * * * * * * * * * * * * * * * * * * * * * //

dimensions      [0 1 -1 0 0 0 0];

internalField   nonuniform List<vector> 
400
(
(-1 1.76012e-13 0)
(-1 -3.8252e-14 0)
(-1 8.98958e-15 0)
(-1 -1.92588e-15 0)
(-1 5.45466e-16 0)
(-1 1.98282e-18 0)
(-1 1.36871e-16 0)
(-1 8.30293e-17 0)
(-1 2.42132e-17 0)
(-1 -3.9432e-17 0)
(-1 -7.49132e-18 0)
(-1 5.24192e-17 0)
(-1 3.74388e-17 0)
(-1 1.09536e-17 0)
(-1 6.20237e-17 0)
(-1 1.08211e-16 0)
(-1 1.25596e-16 0)
(-1 2.87583e-17 0)
(-1 -3.21576e-17 0)
(-1 1.79743e-17 0)
(-1 -1.0711e-14 0)
(-1 2.34762e-15 0)
(-1 -5.26127e-16 0)
(-1 1.1917e-16 0)
(-1 1.83015e-17 0)
(-1 3.6478e-17 0)
(-1 9.21297e-17 0)
(-1 5.59916e-17 0)
(-1 -1.27436e-17 0)
(-1 -3.74746e-17 0)
(-1 -3.11971e-17 0)
(-1 1.32078e-17 0)
(-1 1.18033e-17 0)
(-1 9.79846e-17 0)
(-1 7.98978e-17 0)
(-1 8.40517e-17 0)
(-1 1.28835e-16 0)
(-1 -3.59237e-18 0)
(-1 -1.11703e-16 0)
(-1 -3.75881e-17 0)
(-1 -1.36733e-13 0)
(-1 2.94149e-14 0)
(-1 -7.13602e-15 0)
(-1 1.39907e-15 0)
(-1 -4.12836e-16 0)
(-1 9.13354e-17 0)
(-1 1.41693e-17 0)
(-1 -1.07389e-17 0)
(-1 -6.13484e-17 0)
(-1 -3.38989e-17 0)
(-1 -5.16985e-17 0)
(-1 -4.09372e-17 0)
(-1 -7.62753e-17 0)
(-1 5.0145e-18 0)
(-1 1.20097e-17 0)
(-1 1.83191e-17 0)
(-1 -1.06585e-16 0)
(-1 -2.11088e-16 0)
(-1 -2.59223e-16 0)
(-1 -1.67438e-16 0)
(-1 1.42879e-13 0)
(-1 -3.14135e-14 0)
(-1 7.10775e-15 0)
(-1 -1.75433e-15 0)
(-1 2.59109e-16 0)
(-1 -5.12087e-17 0)
(-1 3.05682e-17 0)
(-1 -5.249e-18 0)
(-1 -4.46929e-17 0)
(-1 -2.65978e-17 0)
(-1 2.59986e-17 0)
(-1 5.42865e-17 0)
(-1 -2.05184e-17 0)
(-1 -8.67054e-17 0)
(-1 -5.86726e-17 0)
(-1 -6.25708e-17 0)
(-1 -1.0711e-16 0)
(-1 -1.69559e-16 0)
(-1 -2.44613e-16 0)
(-1 -1.39953e-16 0)
(-1 -3.71885e-14 0)
(-1 7.90285e-15 0)
(-1 -1.92181e-15 0)
(-1 4.14006e-16 0)
(-1 -1.12291e-16 0)
(-1 1.7537e-17 0)
(-1 4.09352e-17 0)
(-1 4.72655e-17 0)
(-1 2.56051e-17 0)
(-1 4.71045e-17 0)
(-1 -3.1574e-18 0)
(-1 -6.14687e-17 0)
(-1 -1.38279e-17 0)
(-1 -2.62312e-17 0)
(-1 -6.51054e-17 0)
(-1 -1.47048e-16 0)
(-1 -3.89689e-17 0)
(-1 -4.63844e-17 0)
(-1 -1.58748e-16 0)
(-1 -8.78335e-17 0)
(-1 -1.05749e-13 0)
(-1 2.27287e-14 0)
(-1 -5.23727e-15 0)
(-1 1.3193e-15 0)
(-1 -1.56317e-16 0)
(-1 8.29743e-17 0)
(-1 1.34311e-16 0)
(-1 1.26815e-16 0)
(-1 2.43155e-18 0)
(-1 -5.4425e-17 0)
(-1 -6.99257e-17 0)
(-1 -9.31452e-17 0)
(-1 -3.89581e-17 0)
(-1 2.33607e-17 0)
(-1 5.79956e-18 0)
(-1 -8.50294e-17 0)
(-1 -1.46593e-16 0)
(-1 -1.36421e-16 0)
(-1 -9.93799e-17 0)
(-1 -4.26108e-17 0)
(-1 1.70209e-13 0)
(-1 -3.64744e-14 0)
(-1 8.77873e-15 0)
(-1 -1.78559e-15 0)
(-1 4.2302e-16 0)
(-1 -8.33916e-17 0)
(-1 2.0534e-17 0)
(-1 -1.71849e-17 0)
(-1 1.34028e-17 0)
(-1 8.70809e-17 0)
(-1 1.87658e-16 0)
(-1 1.40207e-16 0)
(-1 6.24859e-17 0)
(-1 7.80467e-17 0)
(-1 4.06237e-17 0)
(-1 -6.34668e-17 0)
(-1 -8.56175e-17 0)
(-1 -8.30012e-17 0)
(-1 -2.05149e-17 0)
(-1 2.93549e-17 0)
(-1 -7.55027e-14 0)
(-1 1.68614e-14 0)
(-1 -3.88582e-15 0)
(-1 8.73121e-16 0)
(-1 -1.79897e-16 0)
(-1 9.27718e-17 0)
(-1 -9.21072e-17 0)
(-1 -1.18162e-16 0)
(-1 3.14254e-17 0)
(-1 1.66816e-16 0)
(-1 1.99887e-16 0)
(-1 1.50067e-16 0)
(-1 9.25717e-18 0)
(-1 -1.05425e-16 0)
(-1 -5.29719e-17 0)
(-1 -1.1931e-19 0)
(-1 -2.03456e-17 0)
(-1 -5.04869e-17 0)
(-1 -1.09652e-17 0)
(-1 -3.48665e-18 0)
(-1 -6.60343e-14 0)
(-1 1.39472e-14 0)
(-1 -3.23513e-15 0)
(-1 7.72066e-16 0)
(-1 4.31931e-18 0)
(-1 6.32047e-17 0)
(-1 -6.03384e-18 0)
(-1 3.7065e-17 0)
(-1 8.01238e-17 0)
(-1 6.98897e-17 0)
(-1 8.01206e-17 0)
(-1 6.88083e-17 0)
(-1 1.2252e-17 0)
(-1 -6.66184e-17 0)
(-1 -9.28161e-17 0)
(-1 -6.03649e-18 0)
(-1 -6.17643e-17 0)
(-1 -1.09971e-16 0)
(-1 -3.93855e-17 0)
(-1 -2.71026e-17 0)
(-1 1.37155e-13 0)
(-1 -2.99066e-14 0)
(-1 6.87717e-15 0)
(-1 -1.64162e-15 0)
(-1 1.815e-16 0)
(-1 -2.51108e-16 0)
(-1 -6.02174e-17 0)
(-1 8.45015e-17 0)
(-1 -6.39541e-18 0)
(-1 -6.4167e-17 0)
(-1 1.14164e-16 0)
(-1 2.56402e-16 0)
(-1 2.4697e-16 0)
(-1 6.51639e-17 0)
(-1 -4.83678e-17 0)
(-1 1.49461e-17 0)
(-1 -3.8723e-17 0)
(-1 -7.62225e-17 0)
(-1 -2.41685e-17 0)
(-1 -5.84793e-19 0)
(-1 -1.34342e-13 0)
(-1 2.92559e-14 0)
(-1 -6.88457e-15 0)
(-1 1.38684e-15 0)
(-1 -5.96166e-16 0)
(-1 -1.22801e-16 0)
(-1 -9.59883e-17 0)
(-1 5.30465e-17 0)
(-1 6.95007e-17 0)
(-1 7.98175e-17 0)
(-1 2.19816e-16 0)
(-1 3.39855e-16 0)
(-1 2.07317e-16 0)
(-1 -1.30295e-17 0)
(-1 -1.11118e-16 0)
(-1 -7.68581e-17 0)
(-1 -8.74709e-17 0)
(-1 -6.20893e-18 0)
(-1 3.20962e-17 0)
(-1 5.07871e-18 0)
(-1 1.0142e-13 0)
(-1 -2.22691e-14 0)
(-1 5.34214e-15 0)
(-1 -1.09987e-15 0)
(-1 4.39268e-16 0)
(-1 1.37383e-16 0)
(-1 1.25002e-16 0)
(-1 -4.92665e-17 0)
(-1 2.85699e-17 0)
(-1 7.2925e-17 0)
(-1 -5.14368e-17 0)
(-1 -1.09968e-16 0)
(-1 -5.70672e-17 0)
(-1 6.99027e-17 0)
(-1 2.52501e-17 0)
(-1 -8.59988e-17 0)
(-1 -8.89508e-17 0)
(-1 -3.64546e-17 0)
(-1 4.96768e-17 0)
(-1 6.90298e-17 0)
(-1 -2.51659e-14 0)
(-1 5.8464e-15 0)
(-1 -1.42499e-15 0)
(-1 3.05985e-16 0)
(-1 -3.87356e-17 0)
(-1 8.21831e-17 0)
(-1 -5.58006e-18 0)
(-1 -8.99592e-17 0)
(-1 -1.13343e-16 0)
(-1 -1.51008e-16 0)
(-1 -2.3609e-16 0)
(-1 -2.07367e-16 0)
(-1 -1.08492e-17 0)
(-1 1.05733e-16 0)
(-1 1.02656e-16 0)
(-1 1.00081e-17 0)
(-1 -6.60149e-17 0)
(-1 -8.52935e-17 0)
(-1 -6.68116e-17 0)
(-1 -1.86922e-19 0)
(-1 -8.53257e-14 0)
(-1 1.84223e-14 0)
(-1 -4.12877e-15 0)
(-1 1.17076e-15 0)
(-1 -1.46479e-16 0)
(-1 -1.28928e-17 0)
(-1 -1.23225e-16 0)
(-1 -9.13844e-17 0)
(-1 -8.1898e-17 0)
(-1 -5.56863e-17 0)
(-1 -3.83625e-17 0)
(-1 -3.51617e-17 0)
(-1 1.02551e-16 0)
(-1 1.30574e-16 0)
(-1 9.09251e-17 0)
(-1 -2.28531e-18 0)
(-1 -6.67991e-17 0)
(-1 -5.5521e-18 0)
(-1 -9.75172e-17 0)
(-1 -8.15167e-17 0)
(-1 1.65637e-13 0)
(-1 -3.62364e-14 0)
(-1 8.53751e-15 0)
(-1 -1.85083e-15 0)
(-1 4.7784e-16 0)
(-1 -5.5562e-17 0)
(-1 -2.77768e-17 0)
(-1 -9.07927e-17 0)
(-1 -1.58487e-16 0)
(-1 -1.95314e-16 0)
(-1 -2.5188e-16 0)
(-1 -1.6612e-16 0)
(-1 -1.28476e-17 0)
(-1 5.31116e-17 0)
(-1 4.75931e-17 0)
(-1 9.26628e-18 0)
(-1 6.1788e-17 0)
(-1 4.50556e-17 0)
(-1 1.84536e-17 0)
(-1 -1.29319e-17 0)
(-1 -1.14468e-13 0)
(-1 2.52845e-14 0)
(-1 -6.15672e-15 0)
(-1 1.1354e-15 0)
(-1 -4.19806e-16 0)
(-1 -4.73889e-18 0)
(-1 -1.51741e-16 0)
(-1 -1.95496e-17 0)
(-1 3.25322e-17 0)
(-1 4.51752e-17 0)
(-1 -3.43602e-17 0)
(-1 4.51452e-17 0)
(-1 8.76336e-18 0)
(-1 -1.02356e-16 0)
(-1 -1.79475e-16 0)
(-1 -1.59049e-16 0)
(-1 6.90559e-18 0)
(-1 -3.86351e-17 0)
(-1 1.5146e-17 0)
(-1 2.47168e-17 0)
(-1 -2.00249e-14 0)
(-1 3.65968e-15 0)
(-1 -9.66153e-16 0)
(-1 1.12213e-16 0)
(-1 -8.33722e-17 0)
(-1 -6.59148e-17 0)
(-1 8.59153e-18 0)
(-1 7.31455e-17 0)
(-1 8.29355e-17 0)
(-1 1.08903e-16 0)
(-1 1.42663e-16 0)
(-1 1.04334e-17 0)
(-1 -1.25021e-16 0)
(-1 -1.35042e-16 0)
(-1 -1.95699e-16 0)
(-1 -2.40586e-16 0)
(-1 -1.23283e-16 0)
(-1 -4.55943e-17 0)
(-1 -3.0092e-17 0)
(-1 3.79562e-17 0)
(-1 1.28825e-13 0)
(-1 -2.79785e-14 0)
(-1 6.59479e-15 0)
(-1 -1.57946e-15 0)
(-1 1.96754e-16 0)
(-1 -1.24703e-16 0)
(-1 1.12966e-16 0)
(-1 9.80864e-17 0)
(-1 8.79391e-17 0)
(-1 1.06273e-16 0)
(-1 1.24684e-16 0)
(-1 -7.98329e-17 0)
(-1 -2.11663e-16 0)
(-1 -1.5891e-16 0)
(-1 -1.2461e-16 0)
(-1 -3.74264e-17 0)
(-1 -2.02974e-17 0)
(-1 -1.87055e-17 0)
(-1 -7.5311e-17 0)
(-1 -1.74634e-17 0)
(-1 -5.83644e-14 0)
(-1 1.29394e-14 0)
(-1 -2.99098e-15 0)
(-1 6.63213e-16 0)
(-1 -1.84687e-16 0)
(-1 2.22179e-17 0)
(-1 -9.44609e-17 0)
(-1 -1.35559e-16 0)
(-1 3.93076e-17 0)
(-1 6.76438e-17 0)
(-1 -6.35767e-17 0)
(-1 -8.65794e-17 0)
(-1 -3.6603e-17 0)
(-1 -7.31989e-17 0)
(-1 -1.42247e-16 0)
(-1 -4.5787e-17 0)
(-1 -3.64451e-17 0)
(-1 -7.80455e-17 0)
(-1 -7.92433e-17 0)
(-1 -5.7144e-17 0)
(-1 -8.39157e-14 0)
(-1 1.77545e-14 0)
(-1 -4.18851e-15 0)
(-1 9.39422e-16 0)
(-1 -1.60802e-16 0)
(-1 4.92045e-17 0)
(-1 -7.29438e-17 0)
(-1 -1.28485e-16 0)
(-1 -3.14329e-17 0)
(-1 -1.09898e-16 0)
(-1 -2.21176e-16 0)
(-1 -1.49488e-16 0)
(-1 -5.67628e-18 0)
(-1 5.7243e-18 0)
(-1 -7.86099e-17 0)
(-1 -1.00303e-16 0)
(-1 -6.63727e-17 0)
(-1 -5.5649e-17 0)
(-1 -3.62907e-17 0)
(-1 -3.27782e-17 0)
)
;

boundaryField
{
    movingWall
    {
        type            fixedValue;
        value           uniform (-1 -0 -0);
    }
    fixedWalls
    {
        type            calculated;
        value           nonuniform List<vector> 
60
(
(-1 7.04048e-14 0)
(-1 -4.2844e-15 0)
(-1 -5.46933e-14 0)
(-1 5.71517e-14 0)
(-1 -1.48754e-14 0)
(-1 -4.22995e-14 0)
(-1 6.80837e-14 0)
(-1 -3.02011e-14 0)
(-1 -2.64137e-14 0)
(-1 5.4862e-14 0)
(-1 -5.37369e-14 0)
(-1 4.0568e-14 0)
(-1 -1.00663e-14 0)
(-1 -3.41303e-14 0)
(-1 6.62549e-14 0)
(-1 -4.57873e-14 0)
(-1 -8.00998e-15 0)
(-1 5.15302e-14 0)
(-1 -2.33458e-14 0)
(-1 -3.35663e-14 0)
(-1 7.18973e-18 0)
(-1 -1.50352e-17 0)
(-1 -6.69753e-17 0)
(-1 -5.59811e-17 0)
(-1 -3.51334e-17 0)
(-1 -1.70443e-17 0)
(-1 1.1742e-17 0)
(-1 -1.39466e-18 0)
(-1 -1.08411e-17 0)
(-1 -2.33917e-19 0)
(-1 2.03148e-18 0)
(-1 2.76119e-17 0)
(-1 -7.47689e-20 0)
(-1 -3.26067e-17 0)
(-1 -5.17274e-18 0)
(-1 9.88671e-18 0)
(-1 1.51825e-17 0)
(-1 -6.98537e-18 0)
(-1 -2.28576e-17 0)
(-1 -1.31113e-17 0)
(-1 7.04048e-14 0)
(-1 -1.53008e-14 0)
(-1 3.59583e-15 0)
(-1 -7.70354e-16 0)
(-1 2.18186e-16 0)
(-1 7.93128e-19 0)
(-1 5.47485e-17 0)
(-1 3.32117e-17 0)
(-1 9.68528e-18 0)
(-1 -1.57728e-17 0)
(-1 -2.99653e-18 0)
(-1 2.09677e-17 0)
(-1 1.49755e-17 0)
(-1 4.38143e-18 0)
(-1 2.48095e-17 0)
(-1 4.32845e-17 0)
(-1 5.02384e-17 0)
(-1 1.15033e-17 0)
(-1 -1.2863e-17 0)
(-1 7.18973e-18 0)
)
;
    }
    frontAndBack
    {
        type            empty;
    }
}


// ************************************************************************* //
