/*--------------------------------*- C++ -*----------------------------------*\
| =========                 |                                                 |
| \\      /  F ield         | OpenFOAM: The Open Source CFD Toolbox           |
|  \\    /   O peration     | Version:  2312                                  |
|   \\  /    A nd           | Website:  www.openfoam.com                      |
|    \\/     M anipulation  |                                                 |
\*---------------------------------------------------------------------------*/
FoamFile
{
    version     2.0;
    format      ascii;
    arch        "LSB;label=32;scalar=64";
    class       volSymmTensorField;
    location    "7.5";
    object      UPrime2Mean;
}
// * * * * * * * * * * * * * * * * * * * * * * * * * * * * * * * * * * * * * //

dimensions      [0 2 -2 0 0 0 0];

internalField   nonuniform List<symmTensor> 
400
(
(0.222142 3.30679e-05 0 1.49271e-08 0 0)
(0.221598 0.000150156 0 1.37967e-07 0 0)
(0.220595 0.00022508 0 3.1487e-07 0 0)
(0.219442 0.000261987 0 4.37982e-07 0 0)
(0.218174 0.000295386 0 6.04004e-07 0 0)
(0.216764 0.000339004 0 9.33227e-07 0 0)
(0.215175 0.000395077 0 1.58179e-06 0 0)
(0.213402 0.000452639 0 2.65111e-06 0 0)
(0.211533 0.000478295 0 3.58964e-06 0 0)
(0.209758 0.000440907 0 3.5267e-06 0 0)
(0.208342 0.000327677 0 2.26561e-06 0 0)
(0.207548 0.00014721 0 6.95928e-07 0 0)
(0.207576 -9.5641e-05 0 1.24484e-07 0 0)
(0.208606 -0.000355612 0 1.29773e-06 0 0)
(0.21063 -0.000602666 0 4.04813e-06 0 0)
(0.213452 -0.000774786 0 6.85577e-06 0 0)
(0.216682 -0.000793456 0 7.07481e-06 0 0)
(0.219819 -0.000589984 0 3.5547e-06 0 0)
(0.221938 -0.000239831 0 4.05295e-07 0 0)
(0.222448 5.88877e-05 0 2.01887e-07 0 0)
(0.221854 0.000326544 0 6.63077e-07 0 0)
(0.220772 0.000699704 0 3.3842e-06 0 0)
(0.219304 0.000898934 0 5.83084e-06 0 0)
(0.217672 0.000997851 0 7.50531e-06 0 0)
(0.215926 0.0010911 0 9.83509e-06 0 0)
(0.21404 0.00120652 0 1.41602e-05 0 0)
(0.211999 0.00132238 0 2.08025e-05 0 0)
(0.209861 0.00139004 0 2.7661e-05 0 0)
(0.207747 0.00135266 0 3.03985e-05 0 0)
(0.20583 0.00116538 0 2.56603e-05 0 0)
(0.204314 0.000810662 0 1.47825e-05 0 0)
(0.203412 0.000297339 0 3.93475e-06 0 0)
(0.20333 -0.00034701 0 1.32427e-06 0 0)
(0.204225 -0.0010644 0 1.32524e-05 0 0)
(0.206201 -0.00175794 0 3.93784e-05 0 0)
(0.209199 -0.00227696 0 6.78815e-05 0 0)
(0.212958 -0.00243387 0 7.74206e-05 0 0)
(0.217015 -0.00202955 0 5.09567e-05 0 0)
(0.220627 -0.00108171 0 1.14812e-05 0 0)
(0.222226 -6.17756e-05 0 8.5878e-07 0 0)
(0.221579 0.000904872 0 5.57157e-06 0 0)
(0.22019 0.00144656 0 1.56925e-05 0 0)
(0.218553 0.00173064 0 2.3568e-05 0 0)
(0.216734 0.00189854 0 2.98962e-05 0 0)
(0.21478 0.00206029 0 3.89622e-05 0 0)
(0.212679 0.00224238 0 5.41318e-05 0 0)
(0.210428 0.00240416 0 7.43359e-05 0 0)
(0.208072 0.00247382 0 9.20598e-05 0 0)
(0.20572 0.00237479 0 9.60201e-05 0 0)
(0.203523 0.00204865 0 7.94536e-05 0 0)
(0.20168 0.00146547 0 4.67614e-05 0 0)
(0.200413 0.000622464 0 1.36253e-05 0 0)
(0.199941 -0.000445351 0 2.548e-06 0 0)
(0.200429 -0.00166553 0 3.34436e-05 0 0)
(0.202008 -0.00290668 0 0.000112775 0 0)
(0.204791 -0.00395465 0 0.00021854 0 0)
(0.208761 -0.00449999 0 0.000289131 0 0)
(0.213642 -0.0041593 0 0.000245505 0 0)
(0.218729 -0.00268538 0 9.32732e-05 0 0)
(0.221963 -0.000642074 0 3.42257e-06 0 0)
(0.221421 0.00161849 0 1.89675e-05 0 0)
(0.219848 0.00226967 0 4.03419e-05 0 0)
(0.218129 0.00261304 0 5.63429e-05 0 0)
(0.21625 0.00285161 0 7.14304e-05 0 0)
(0.21423 0.00309077 0 9.33126e-05 0 0)
(0.212036 0.00335009 0 0.00012718 0 0)
(0.209653 0.00357713 0 0.000169142 0 0)
(0.207116 0.00367768 0 0.000202765 0 0)
(0.204528 0.00354862 0 0.000206519 0 0)
(0.202056 0.00310633 0 0.000169372 0 0)
(0.199911 0.00230346 0 0.000101442 0 0)
(0.198324 0.00113724 0 3.2762e-05 0 0)
(0.197493 -0.000352051 0 3.47259e-06 0 0)
(0.197577 -0.0020736 0 5.07722e-05 0 0)
(0.198682 -0.00388078 0 0.000192683 0 0)
(0.200961 -0.00555211 0 0.00041248 0 0)
(0.204633 -0.00672182 0 0.000628635 0 0)
(0.209817 -0.00682997 0 0.000672108 0 0)
(0.216068 -0.0051889 0 0.0003912 0 0)
(0.221324 -0.00174591 0 3.65476e-05 0 0)
(0.221365 0.00240405 0 4.35266e-05 0 0)
(0.219725 0.00313988 0 7.9173e-05 0 0)
(0.218005 0.00352075 0 0.000104902 0 0)
(0.216152 0.00382119 0 0.000132073 0 0)
(0.214152 0.00414426 0 0.000172488 0 0)
(0.211961 0.00450277 0 0.000232821 0 0)
(0.209546 0.00482612 0 0.000303439 0 0)
(0.206936 0.00499093 0 0.000355425 0 0)
(0.204244 0.00485813 0 0.000355293 0 0)
(0.201665 0.00431163 0 0.00028914 0 0)
(0.199429 0.00329172 0 0.000176476 0 0)
(0.197741 0.00180834 0 6.38395e-05 0 0)
(0.196745 -7.70557e-05 0 7.19166e-06 0 0)
(0.196536 -0.00225178 0 5.74795e-05 0 0)
(0.197215 -0.0045739 0 0.000244452 0 0)
(0.198855 -0.00685841 0 0.000567388 0 0)
(0.201782 -0.00877979 0 0.000968409 0 0)
(0.206531 -0.00969816 0 0.00125337 0 0)
(0.213225 -0.00846877 0 0.00102658 0 0)
(0.220018 -0.00387511 0 0.000231954 0 0)
(0.22139 0.00319995 0 7.8757e-05 0 0)
(0.219789 0.00400769 0 0.000130206 0 0)
(0.218141 0.00441509 0 0.000166115 0 0)
(0.216388 0.00477376 0 0.000207515 0 0)
(0.2145 0.00518747 0 0.000270319 0 0)
(0.212426 0.00566152 0 0.000361401 0 0)
(0.210122 0.00610344 0 0.000462937 0 0)
(0.207612 0.00635321 0 0.000531844 0 0)
(0.205013 0.00622555 0 0.000522901 0 0)
(0.202511 0.00557276 0 0.000423449 0 0)
(0.200301 0.00433345 0 0.000265533 0 0)
(0.198544 0.00253717 0 0.000109372 0 0)
(0.197396 0.000279313 0 2.27363e-05 0 0)
(0.196994 -0.0023166 0 6.59756e-05 0 0)
(0.197398 -0.00508775 0 0.000278371 0 0)
(0.198594 -0.00787678 0 0.000669035 0 0)
(0.200751 -0.0104857 0 0.00121726 0 0)
(0.204577 -0.0123999 0 0.00180445 0 0)
(0.210951 -0.0121853 0 0.00193055 0 0)
(0.218632 -0.00706873 0 0.000767363 0 0)
(0.221476 0.00395339 0 0.000120798 0 0)
(0.219998 0.00483044 0 0.000188289 0 0)
(0.21849 0.00525842 0 0.000233536 0 0)
(0.216912 0.00566671 0 0.000288558 0 0)
(0.215231 0.00616514 0 0.000372817 0 0)
(0.213403 0.00675583 0 0.000492919 0 0)
(0.211379 0.00732209 0 0.000622011 0 0)
(0.209166 0.00766721 0 0.000704771 0 0)
(0.206845 0.00756405 0 0.000688316 0 0)
(0.20454 0.00683884 0 0.000563504 0 0)
(0.202375 0.00542449 0 0.000370625 0 0)
(0.200506 0.00335093 0 0.000176759 0 0)
(0.199148 0.0007179 0 5.88611e-05 0 0)
(0.198519 -0.00231531 0 8.91102e-05 0 0)
(0.198693 -0.00553805 0 0.00031536 0 0)
(0.199612 -0.00875266 0 0.000748703 0 0)
(0.201249 -0.0118793 0 0.00138949 0 0)
(0.204108 -0.014705 0 0.00221909 0 0)
(0.20965 -0.0158951 0 0.00287197 0 0)
(0.217567 -0.0111641 0 0.00173558 0 0)
(0.221603 0.00462159 0 0.000163437 0 0)
(0.220311 0.00557196 0 0.000246331 0 0)
(0.219001 0.00601425 0 0.000298603 0 0)
(0.217661 0.00645583 0 0.000363402 0 0)
(0.216274 0.00701715 0 0.000462704 0 0)
(0.214812 0.00770285 0 0.000603017 0 0)
(0.213237 0.00838154 0 0.000751406 0 0)
(0.211514 0.00883844 0 0.000848237 0 0)
(0.209652 0.00880515 0 0.000834224 0 0)
(0.207684 0.0080745 0 0.00069961 0 0)
(0.205656 0.00656693 0 0.000488285 0 0)
(0.203714 0.00428021 0 0.000267321 0 0)
(0.202139 0.0012909 0 0.000119998 0 0)
(0.201194 -0.0022035 0 0.000132369 0 0)
(0.201023 -0.00590422 0 0.000360286 0 0)
(0.201578 -0.00953062 0 0.000817938 0 0)
(0.202769 -0.0130655 0 0.00151776 0 0)
(0.204797 -0.0165894 0 0.00250784 0 0)
(0.2093 -0.0192996 0 0.0036878 0 0)
(0.216952 -0.0158131 0 0.00304631 0 0)
(0.221751 0.00517372 0 0.000200021 0 0)
(0.220691 0.00620311 0 0.000296844 0 0)
(0.219619 0.00665262 0 0.00035301 0 0)
(0.218561 0.00710478 0 0.0004216 0 0)
(0.217529 0.0076936 0 0.000525834 0 0)
(0.216524 0.00843202 0 0.000672346 0 0)
(0.215516 0.00918896 0 0.000827628 0 0)
(0.214443 0.0097524 0 0.000935041 0 0)
(0.213239 0.00983573 0 0.000934254 0 0)
(0.211838 0.00920807 0 0.000813535 0 0)
(0.210172 0.00773057 0 0.000607369 0 0)
(0.208335 0.0053273 0 0.000374265 0 0)
(0.206584 0.00204169 0 0.000203892 0 0)
(0.205265 -0.00189924 0 0.000193016 0 0)
(0.204587 -0.00606237 0 0.000403082 0 0)
(0.204531 -0.0101042 0 0.000859302 0 0)
(0.205084 -0.0140108 0 0.00159314 0 0)
(0.206277 -0.0180828 0 0.00269489 0 0)
(0.209637 -0.0222679 0 0.00433767 0 0)
(0.216672 -0.020638 0 0.00451458 0 0)
(0.221902 0.00559369 0 0.000225455 0 0)
(0.221099 0.00670575 0 0.000333993 0 0)
(0.220285 0.00715476 0 0.000390899 0 0)
(0.219527 0.00758963 0 0.000456539 0 0)
(0.21887 0.00815886 0 0.000554026 0 0)
(0.218353 0.00888932 0 0.000690588 0 0)
(0.217966 0.00967397 0 0.000839253 0 0)
(0.217639 0.0103129 0 0.000949179 0 0)
(0.217255 0.0105318 0 0.000966137 0 0)
(0.216668 0.0100709 0 0.000872412 0 0)
(0.215723 0.00874929 0 0.000694653 0 0)
(0.214342 0.0064201 0 0.000480683 0 0)
(0.212629 0.0030222 0 0.000302732 0 0)
(0.210947 -0.00123105 0 0.000259801 0 0)
(0.209527 -0.00581747 0 0.000424989 0 0)
(0.208546 -0.0102916 0 0.000845887 0 0)
(0.208169 -0.0145721 0 0.00158302 0 0)
(0.208355 -0.0191433 0 0.00277037 0 0)
(0.210459 -0.0246907 0 0.00480231 0 0)
(0.216501 -0.0253781 0 0.00600049 0 0)
(0.222043 0.00587856 0 0.000237208 0 0)
(0.221491 0.00707382 0 0.000354717 0 0)
(0.220933 0.007513 0 0.000409623 0 0)
(0.220467 0.0079028 0 0.000466751 0 0)
(0.220169 0.0084055 0 0.000548247 0 0)
(0.220109 0.00906204 0 0.000661444 0 0)
(0.220303 0.00979769 0 0.00078774 0 0)
(0.220709 0.0104399 0 0.000886046 0 0)
(0.221195 0.0107509 0 0.000913195 0 0)
(0.221575 0.0104768 0 0.000850615 0 0)
(0.221606 0.009409 0 0.000717257 0 0)
(0.2211 0.00735079 0 0.000549575 0 0)
(0.219851 0.00411421 0 0.000393217 0 0)
(0.217902 -0.000190935 0 0.000319715 0 0)
(0.215619 -0.00503951 0 0.000413233 0 0)
(0.213507 -0.00989082 0 0.000760401 0 0)
(0.211954 -0.0145799 0 0.00146239 0 0)
(0.210926 -0.0196375 0 0.00269955 0 0)
(0.211629 -0.0264955 0 0.00507081 0 0)
(0.216317 -0.0298955 0 0.00742204 0 0)
(0.222152 0.00604059 0 0.000235882 0 0)
(0.221822 0.00731428 0 0.000359121 0 0)
(0.221499 0.00773332 0 0.000410139 0 0)
(0.221297 0.00805376 0 0.000455422 0 0)
(0.221313 0.0084507 0 0.000515891 0 0)
(0.221633 0.00897516 0 0.000598179 0 0)
(0.222296 0.0095825 0 0.000690857 0 0)
(0.223289 0.0101365 0 0.000764478 0 0)
(0.224503 0.0104434 0 0.000787679 0 0)
(0.225753 0.0102868 0 0.000746295 0 0)
(0.226778 0.00946644 0 0.000654424 0 0)
(0.227281 0.00778495 0 0.000542068 0 0)
(0.226861 0.00505141 0 0.000438826 0 0)
(0.225155 0.00115916 0 0.00036439 0 0)
(0.222281 -0.00364534 0 0.000380965 0 0)
(0.219047 -0.00876117 0 0.000617188 0 0)
(0.216219 -0.0138965 0 0.00123431 0 0)
(0.213871 -0.0194572 0 0.00246875 0 0)
(0.21303 -0.0276107 0 0.00512609 0 0)
(0.216078 -0.0341396 0 0.00875855 0 0)
(0.22221 0.00610779 0 0.000224933 0 0)
(0.222048 0.00744476 0 0.000349863 0 0)
(0.221923 0.00783066 0 0.000395722 0 0)
(0.221949 0.00806203 0 0.000428063 0 0)
(0.222228 0.00832745 0 0.000466951 0 0)
(0.22284 0.00868515 0 0.000518323 0 0)
(0.223834 0.00911285 0 0.000575719 0 0)
(0.225209 0.00951016 0 0.000620243 0 0)
(0.226884 0.0097277 0 0.000631379 0 0)
(0.228694 0.00959302 0 0.000599659 0 0)
(0.230389 0.00894126 0 0.000536029 0 0)
(0.231645 0.00762359 0 0.000466755 0 0)
(0.232041 0.00547891 0 0.000412088 0 0)
(0.231007 0.0023515 0 0.000371923 0 0)
(0.228307 -0.00189667 0 0.000346619 0 0)
(0.22451 -0.00701595 0 0.000460856 0 0)
(0.220603 -0.0124759 0 0.000937905 0 0)
(0.217009 -0.0185342 0 0.00209376 0 0)
(0.214531 -0.0279734 0 0.00495548 0 0)
(0.21576 -0.0380929 0 0.0100162 0 0)
(0.222198 0.00613838 0 0.000210443 0 0)
(0.222127 0.00749791 0 0.000331887 0 0)
(0.222153 0.0078257 0 0.000370813 0 0)
(0.222376 0.00794854 0 0.000390284 0 0)
(0.22288 0.00806846 0 0.000409919 0 0)
(0.223719 0.00824979 0 0.000435461 0 0)
(0.224933 0.00848454 0 0.000463578 0 0)
(0.226518 0.00870446 0 0.000483585 0 0)
(0.228407 0.0087986 0 0.000483151 0 0)
(0.230459 0.00863683 0 0.000456556 0 0)
(0.232451 0.00809641 0 0.000411151 0 0)
(0.234084 0.0070794 0 0.000365963 0 0)
(0.235014 0.00548406 0 0.000338309 0 0)
(0.23477 0.00312423 0 0.000324528 0 0)
(0.232802 -0.000268761 0 0.000309895 0 0)
(0.229223 -0.00491962 0 0.000335045 0 0)
(0.224757 -0.0104066 0 0.000636934 0 0)
(0.220158 -0.0168749 0 0.00162458 0 0)
(0.216087 -0.0274681 0 0.00453277 0 0)
(0.215371 -0.041633 0 0.0111566 0 0)
(0.222083 0.00613484 0 0.000195083 0 0)
(0.221988 0.00748637 0 0.000308741 0 0)
(0.222132 0.00772383 0 0.000338626 0 0)
(0.222541 0.00771863 0 0.000345733 0 0)
(0.223257 0.00768862 0 0.000349625 0 0)
(0.224301 0.00770144 0 0.000355967 0 0)
(0.225683 0.00775868 0 0.000363491 0 0)
(0.227386 0.00781561 0 0.000366674 0 0)
(0.229353 0.00779474 0 0.000358877 0 0)
(0.231461 0.00760276 0 0.000336781 0 0)
(0.233525 0.00715254 0 0.000304242 0 0)
(0.235314 0.00637497 0 0.000272002 0 0)
(0.236558 0.0051983 0 0.000252405 0 0)
(0.236924 0.00348164 0 0.000249195 0 0)
(0.235881 0.000931575 0 0.000248995 0 0)
(0.233048 -0.00284139 0 0.000251243 0 0)
(0.228622 -0.00792143 0 0.000392355 0 0)
(0.223351 -0.0146083 0 0.00114084 0 0)
(0.218055 -0.0259483 0 0.00384248 0 0)
(0.215073 -0.0446223 0 0.0121028 0 0)
(0.221811 0.00643253 0 0.000201868 0 0)
(0.221619 0.00754438 0 0.000294576 0 0)
(0.221846 0.0075752 0 0.000306987 0 0)
(0.222441 0.00739255 0 0.000299536 0 0)
(0.223384 0.00720165 0 0.000289957 0 0)
(0.224643 0.00705791 0 0.000282634 0 0)
(0.226197 0.00696443 0 0.000277145 0 0)
(0.228012 0.00688903 0 0.000270497 0 0)
(0.230031 0.00677809 0 0.000259211 0 0)
(0.232154 0.00656712 0 0.000241278 0 0)
(0.234237 0.006193 0 0.000217947 0 0)
(0.236102 0.00560112 0 0.000193969 0 0)
(0.237543 0.00473785 0 0.000176171 0 0)
(0.238321 0.00350861 0 0.000170138 0 0)
(0.238034 0.00167412 0 0.000171397 0 0)
(0.236188 -0.00117191 0 0.00017424 0 0)
(0.232124 -0.0054236 0 0.000228226 0 0)
(0.227152 -0.0120755 0 0.000736276 0 0)
(0.221275 -0.0235116 0 0.00298024 0 0)
(0.215206 -0.0473959 0 0.0129705 0 0)
(0.221204 0.0060141 0 0.000170523 0 0)
(0.220596 0.00705141 0 0.000244174 0 0)
(0.2211 0.00703278 0 0.000251034 0 0)
(0.222056 0.00679253 0 0.000240244 0 0)
(0.223329 0.00652082 0 0.000226038 0 0)
(0.224872 0.0062772 0 0.00021272 0 0)
(0.226663 0.00608253 0 0.000201443 0 0)
(0.228655 0.00592 0 0.00019099 0 0)
(0.230794 0.00575313 0 0.000179444 0 0)
(0.233003 0.00553722 0 0.000165415 0 0)
(0.23517 0.00522658 0 0.000148856 0 0)
(0.237167 0.00477854 0 0.000131266 0 0)
(0.238815 0.00415743 0 0.00011546 0 0)
(0.239916 0.00329367 0 0.000104339 0 0)
(0.240148 0.00203154 0 9.93608e-05 0 0)
(0.239237 -1.89534e-05 0 9.76813e-05 0 0)
(0.235666 -0.00323038 0 0.000125845 0 0)
(0.232693 -0.00974219 0 0.000467884 0 0)
(0.225663 -0.0206581 0 0.00215696 0 0)
(0.216193 -0.0508125 0 0.014085 0 0)
(0.220371 0.0097003 0 0.000438763 0 0)
(0.219738 0.00931469 0 0.000416441 0 0)
(0.220754 0.00811761 0 0.000323519 0 0)
(0.222172 0.0070655 0 0.000249779 0 0)
(0.223855 0.00632311 0 0.000203288 0 0)
(0.225831 0.00578193 0 0.000172172 0 0)
(0.228054 0.005384 0 0.000150549 0 0)
(0.230442 0.00508066 0 0.000134446 0 0)
(0.232929 0.00482298 0 0.000120919 0 0)
(0.235447 0.00457027 0 0.000108217 0 0)
(0.237913 0.00428982 0 9.55913e-05 0 0)
(0.240202 0.00395608 0 8.3038e-05 0 0)
(0.242169 0.00353866 0 7.06704e-05 0 0)
(0.243679 0.00298843 0 5.84534e-05 0 0)
(0.244388 0.00221708 0 4.68971e-05 0 0)
(0.244417 0.000842742 0 3.60119e-05 0 0)
(0.241178 -0.00151662 0 4.99254e-05 0 0)
(0.242697 -0.00750746 0 0.000288934 0 0)
(0.228673 -0.016528 0 0.00130835 0 0)
(0.22074 -0.0540741 0 0.014643 0 0)
(0.21926 0.00361915 0 6.38233e-05 0 0)
(0.218109 0.0022155 0 2.41334e-05 0 0)
(0.221681 0.00231822 0 2.63642e-05 0 0)
(0.22569 0.00295485 0 4.27371e-05 0 0)
(0.229868 0.0031353 0 4.798e-05 0 0)
(0.23398 0.00305907 0 4.56869e-05 0 0)
(0.237913 0.00295459 0 4.25351e-05 0 0)
(0.241666 0.00287204 0 3.99947e-05 0 0)
(0.245265 0.00279316 0 3.75848e-05 0 0)
(0.248724 0.00270001 0 3.48731e-05 0 0)
(0.252028 0.0025848 0 3.17857e-05 0 0)
(0.255133 0.00244003 0 2.83299e-05 0 0)
(0.257954 0.00225596 0 2.44953e-05 0 0)
(0.260476 0.00199227 0 1.96966e-05 0 0)
(0.262258 0.00161949 0 1.39435e-05 0 0)
(0.26409 0.000830807 0 5.95982e-06 0 0)
(0.260903 -0.000286799 0 7.93539e-06 0 0)
(0.267056 -0.00420151 0 9.98667e-05 0 0)
(0.232886 -0.00869681 0 0.000374509 0 0)
(0.249092 -0.0503079 0 0.0106461 0 0)
(0.240411 0.0212623 0 0.00189498 0 0)
(0.250066 0.015872 0 0.00104606 0 0)
(0.261731 0.00997312 0 0.000407179 0 0)
(0.271792 0.00665267 0 0.000179465 0 0)
(0.27958 0.00490681 0 9.68609e-05 0 0)
(0.286154 0.00388321 0 6.01009e-05 0 0)
(0.292179 0.00321006 0 4.06268e-05 0 0)
(0.297815 0.00273297 0 2.91092e-05 0 0)
(0.303092 0.00237446 0 2.17242e-05 0 0)
(0.308049 0.00209509 0 1.67334e-05 0 0)
(0.312709 0.00186771 0 1.31687e-05 0 0)
(0.317077 0.00167435 0 1.04899e-05 0 0)
(0.321095 0.00150205 0 8.37371e-06 0 0)
(0.324787 0.00133476 0 6.55326e-06 0 0)
(0.327627 0.00114775 0 4.78955e-06 0 0)
(0.330803 0.000880383 0 2.7186e-06 0 0)
(0.327846 0.000548671 0 1.08397e-06 0 0)
(0.339934 -0.000643447 0 4.5008e-06 0 0)
(0.276929 0.00134511 0 3.5536e-05 0 0)
(0.413723 -0.0291583 0 0.00206684 0 0)
)
;

boundaryField
{
    movingWall
    {
        type            calculated;
        value           uniform (0.888889 0 0 0 0 0);
    }
    fixedWalls
    {
        type            calculated;
        value           uniform (0.222222 0 0 0 0 0);
    }
    frontAndBack
    {
        type            empty;
    }
}


// ************************************************************************* //
