/*--------------------------------*- C++ -*----------------------------------*\
| =========                 |                                                 |
| \\      /  F ield         | OpenFOAM: The Open Source CFD Toolbox           |
|  \\    /   O peration     | Version:  2312                                  |
|   \\  /    A nd           | Website:  www.openfoam.com                      |
|    \\/     M anipulation  |                                                 |
\*---------------------------------------------------------------------------*/
FoamFile
{
    version     2.0;
    format      ascii;
    arch        "LSB;label=32;scalar=64";
    class       volVectorField;
    location    "5.125";
    object      diffU;
}
// * * * * * * * * * * * * * * * * * * * * * * * * * * * * * * * * * * * * * //

dimensions      [0 1 -1 0 0 0 0];

internalField   nonuniform List<vector> 
400
(
(0 0 0)
(3.21965e-15 -3.3526e-14 0)
(2.44249e-15 -2.70187e-14 0)
(2.22045e-15 -2.85043e-14 0)
(2.44249e-15 -2.82371e-14 0)
(2.33147e-15 -2.82274e-14 0)
(2.33147e-15 -2.82475e-14 0)
(2.33147e-15 -2.83589e-14 0)
(2.33147e-15 -2.83233e-14 0)
(2.22045e-15 -2.82653e-14 0)
(2.22045e-15 -2.82127e-14 0)
(2.33147e-15 -2.82009e-14 0)
(1.9984e-15 -2.82426e-14 0)
(1.88738e-15 -2.8327e-14 0)
(1.9984e-15 -2.82462e-14 0)
(1.77636e-15 -2.81903e-14 0)
(1.77636e-15 -2.82279e-14 0)
(1.88738e-15 -2.8288e-14 0)
(1.77636e-15 -2.82609e-14 0)
(1.88738e-15 -2.82422e-14 0)
(5.9952e-15 4.16642e-15 0)
(-2.22045e-16 -3.47265e-14 0)
(6.66134e-16 -2.67862e-14 0)
(8.88178e-16 -2.85051e-14 0)
(8.88178e-16 -2.82648e-14 0)
(8.88178e-16 -2.83706e-14 0)
(1.55431e-15 -2.82975e-14 0)
(1.33227e-15 -2.82229e-14 0)
(1.33227e-15 -2.82369e-14 0)
(1.55431e-15 -2.81272e-14 0)
(1.33227e-15 -2.81199e-14 0)
(1.33227e-15 -2.81577e-14 0)
(1.55431e-15 -2.82306e-14 0)
(1.33227e-15 -2.83258e-14 0)
(1.33227e-15 -2.8197e-14 0)
(1.33227e-15 -2.81328e-14 0)
(1.33227e-15 -2.82932e-14 0)
(1.33227e-15 -2.8423e-14 0)
(1.55431e-15 -2.83772e-14 0)
(1.55431e-15 -2.82834e-14 0)
(-1.82077e-14 -8.72661e-14 0)
(4.66294e-15 -1.76586e-14 0)
(-6.66134e-16 -3.07309e-14 0)
(1.55431e-15 -2.78696e-14 0)
(6.66134e-16 -2.8489e-14 0)
(1.11022e-15 -2.85793e-14 0)
(6.66134e-16 -2.85266e-14 0)
(1.33227e-15 -2.84055e-14 0)
(8.88178e-16 -2.84169e-14 0)
(1.33227e-15 -2.84055e-14 0)
(1.55431e-15 -2.84496e-14 0)
(1.88738e-15 -2.8368e-14 0)
(1.9984e-15 -2.82451e-14 0)
(1.77636e-15 -2.81657e-14 0)
(1.88738e-15 -2.81136e-14 0)
(1.77636e-15 -2.82219e-14 0)
(1.9984e-15 -2.83839e-14 0)
(1.9984e-15 -2.84352e-14 0)
(1.9984e-15 -2.84471e-14 0)
(1.55431e-15 -2.83654e-14 0)
(4.30767e-14 9.87937e-15 0)
(-5.55112e-15 -3.52636e-14 0)
(5.9952e-15 -2.68261e-14 0)
(1.55431e-15 -2.86243e-14 0)
(2.55351e-15 -2.8211e-14 0)
(2.33147e-15 -2.8289e-14 0)
(2.10942e-15 -2.84119e-14 0)
(1.9984e-15 -2.85245e-14 0)
(1.9984e-15 -2.84951e-14 0)
(2.22045e-15 -2.84715e-14 0)
(2.10942e-15 -2.84357e-14 0)
(1.77636e-15 -2.83341e-14 0)
(1.77636e-15 -2.81504e-14 0)
(1.55431e-15 -2.81109e-14 0)
(1.88738e-15 -2.82408e-14 0)
(1.9984e-15 -2.83238e-14 0)
(1.77636e-15 -2.82644e-14 0)
(1.77636e-15 -2.82467e-14 0)
(1.77636e-15 -2.8347e-14 0)
(1.77636e-15 -2.83776e-14 0)
(-4.79616e-14 -4.08182e-14 0)
(1.02141e-14 -2.5237e-14 0)
(-3.10862e-15 -2.8893e-14 0)
(2.33147e-15 -2.82408e-14 0)
(8.88178e-16 -2.83802e-14 0)
(1.55431e-15 -2.82815e-14 0)
(1.33227e-15 -2.83555e-14 0)
(1.33227e-15 -2.84558e-14 0)
(1.11022e-15 -2.85199e-14 0)
(1.33227e-15 -2.84385e-14 0)
(1.55431e-15 -2.83707e-14 0)
(1.33227e-15 -2.83775e-14 0)
(1.77636e-15 -2.82261e-14 0)
(1.77636e-15 -2.81718e-14 0)
(1.88738e-15 -2.83504e-14 0)
(1.9984e-15 -2.83366e-14 0)
(1.88738e-15 -2.82386e-14 0)
(1.77636e-15 -2.82454e-14 0)
(1.88738e-15 -2.83237e-14 0)
(1.88738e-15 -2.83428e-14 0)
(5.34017e-14 -3.26782e-14 0)
(-7.77156e-15 -2.78379e-14 0)
(6.43929e-15 -2.86169e-14 0)
(1.33227e-15 -2.83973e-14 0)
(2.55351e-15 -2.84043e-14 0)
(1.77636e-15 -2.83565e-14 0)
(1.9984e-15 -2.83551e-14 0)
(1.9984e-15 -2.84216e-14 0)
(1.88738e-15 -2.84502e-14 0)
(1.55431e-15 -2.84929e-14 0)
(1.77636e-15 -2.84541e-14 0)
(1.77636e-15 -2.83782e-14 0)
(1.33227e-15 -2.83896e-14 0)
(1.77636e-15 -2.84173e-14 0)
(1.77636e-15 -2.84561e-14 0)
(1.88738e-15 -2.83375e-14 0)
(1.88738e-15 -2.81827e-14 0)
(1.9984e-15 -2.81946e-14 0)
(1.55431e-15 -2.82848e-14 0)
(1.88738e-15 -2.82957e-14 0)
(-4.4631e-14 -2.00899e-14 0)
(1.11022e-14 -2.97329e-14 0)
(-1.77636e-15 -2.80841e-14 0)
(2.55351e-15 -2.83229e-14 0)
(1.55431e-15 -2.82411e-14 0)
(2.10942e-15 -2.82969e-14 0)
(1.77636e-15 -2.83111e-14 0)
(1.9984e-15 -2.83836e-14 0)
(1.88738e-15 -2.83642e-14 0)
(1.88738e-15 -2.83933e-14 0)
(1.77636e-15 -2.83635e-14 0)
(1.77636e-15 -2.82705e-14 0)
(1.88738e-15 -2.83812e-14 0)
(1.77636e-15 -2.84882e-14 0)
(1.77636e-15 -2.84588e-14 0)
(1.33227e-15 -2.8398e-14 0)
(1.33227e-15 -2.8339e-14 0)
(1.77636e-15 -2.8246e-14 0)
(1.9984e-15 -2.81657e-14 0)
(1.88738e-15 -2.82406e-14 0)
(4.66294e-14 -3.4392e-14 0)
(-6.88338e-15 -2.68989e-14 0)
(5.9952e-15 -2.85813e-14 0)
(1.33227e-15 -2.82027e-14 0)
(2.33147e-15 -2.82974e-14 0)
(1.9984e-15 -2.83699e-14 0)
(2.22045e-15 -2.83831e-14 0)
(2.10942e-15 -2.84546e-14 0)
(1.9984e-15 -2.84978e-14 0)
(2.22045e-15 -2.83991e-14 0)
(2.33147e-15 -2.82972e-14 0)
(1.9984e-15 -2.8236e-14 0)
(2.10942e-15 -2.82801e-14 0)
(1.88738e-15 -2.82694e-14 0)
(1.88738e-15 -2.82196e-14 0)
(2.10942e-15 -2.82167e-14 0)
(1.77636e-15 -2.83064e-14 0)
(1.33227e-15 -2.83708e-14 0)
(1.55431e-15 -2.82667e-14 0)
(1.77636e-15 -2.82417e-14 0)
(-4.41869e-14 -2.33627e-14 0)
(1.0103e-14 -2.99552e-14 0)
(-2.44249e-15 -2.80988e-14 0)
(1.9984e-15 -2.83762e-14 0)
(8.88178e-16 -2.82491e-14 0)
(1.33227e-15 -2.82955e-14 0)
(1.33227e-15 -2.83521e-14 0)
(1.33227e-15 -2.83421e-14 0)
(1.33227e-15 -2.83567e-14 0)
(1.11022e-15 -2.83459e-14 0)
(1.11022e-15 -2.83279e-14 0)
(1.11022e-15 -2.83065e-14 0)
(1.33227e-15 -2.83561e-14 0)
(1.33227e-15 -2.8379e-14 0)
(1.33227e-15 -2.83481e-14 0)
(1.33227e-15 -2.82579e-14 0)
(1.88738e-15 -2.81783e-14 0)
(1.88738e-15 -2.82887e-14 0)
(1.88738e-15 -2.83587e-14 0)
(1.77636e-15 -2.82876e-14 0)
(4.90719e-14 -3.47917e-14 0)
(-7.32747e-15 -2.71803e-14 0)
(5.55112e-15 -2.85915e-14 0)
(8.88178e-16 -2.83074e-14 0)
(2.22045e-15 -2.84467e-14 0)
(1.9984e-15 -2.84235e-14 0)
(2.22045e-15 -2.84216e-14 0)
(1.9984e-15 -2.8392e-14 0)
(1.88738e-15 -2.8392e-14 0)
(2.22045e-15 -2.83912e-14 0)
(2.10942e-15 -2.83569e-14 0)
(2.10942e-15 -2.83445e-14 0)
(1.88738e-15 -2.82868e-14 0)
(1.9984e-15 -2.825e-14 0)
(1.77636e-15 -2.83013e-14 0)
(1.55431e-15 -2.83469e-14 0)
(1.77636e-15 -2.83863e-14 0)
(1.55431e-15 -2.83422e-14 0)
(1.88738e-15 -2.83054e-14 0)
(1.77636e-15 -2.82777e-14 0)
(-3.35287e-14 -1.91561e-14 0)
(9.21485e-15 -2.97755e-14 0)
(-4.44089e-16 -2.8034e-14 0)
(3.21965e-15 -2.84536e-14 0)
(1.88738e-15 -2.84098e-14 0)
(2.22045e-15 -2.84203e-14 0)
(1.77636e-15 -2.82809e-14 0)
(1.77636e-15 -2.81528e-14 0)
(1.77636e-15 -2.81597e-14 0)
(1.33227e-15 -2.82481e-14 0)
(1.11022e-15 -2.83517e-14 0)
(1.33227e-15 -2.8432e-14 0)
(1.55431e-15 -2.83467e-14 0)
(1.77636e-15 -2.82455e-14 0)
(1.77636e-15 -2.82096e-14 0)
(1.88738e-15 -2.82553e-14 0)
(1.9984e-15 -2.83583e-14 0)
(1.77636e-15 -2.8348e-14 0)
(1.77636e-15 -2.82883e-14 0)
(1.77636e-15 -2.82636e-14 0)
(3.60822e-14 -3.7835e-14 0)
(-4.88498e-15 -2.64242e-14 0)
(4.44089e-15 -2.86312e-14 0)
(6.66134e-16 -2.81923e-14 0)
(1.88738e-15 -2.83603e-14 0)
(1.77636e-15 -2.82718e-14 0)
(1.77636e-15 -2.81981e-14 0)
(1.55431e-15 -2.8121e-14 0)
(1.77636e-15 -2.80651e-14 0)
(1.77636e-15 -2.82571e-14 0)
(1.9984e-15 -2.84342e-14 0)
(1.88738e-15 -2.84248e-14 0)
(1.77636e-15 -2.84018e-14 0)
(1.77636e-15 -2.838e-14 0)
(1.77636e-15 -2.83172e-14 0)
(1.77636e-15 -2.83166e-14 0)
(1.88738e-15 -2.82609e-14 0)
(1.77636e-15 -2.82066e-14 0)
(1.55431e-15 -2.82047e-14 0)
(1.77636e-15 -2.8266e-14 0)
(-2.9754e-14 -2.13653e-14 0)
(7.21645e-15 -2.94775e-14 0)
(-1.33227e-15 -2.78761e-14 0)
(1.88738e-15 -2.82973e-14 0)
(1.11022e-15 -2.82694e-14 0)
(8.88178e-16 -2.82464e-14 0)
(8.88178e-16 -2.83359e-14 0)
(1.33227e-15 -2.83882e-14 0)
(1.55431e-15 -2.83822e-14 0)
(1.55431e-15 -2.8361e-14 0)
(1.55431e-15 -2.83242e-14 0)
(1.33227e-15 -2.82364e-14 0)
(1.77636e-15 -2.82603e-14 0)
(1.33227e-15 -2.8312e-14 0)
(1.33227e-15 -2.8375e-14 0)
(1.33227e-15 -2.83672e-14 0)
(1.33227e-15 -2.83483e-14 0)
(1.33227e-15 -2.83004e-14 0)
(1.55431e-15 -2.83019e-14 0)
(1.77636e-15 -2.83394e-14 0)
(2.72005e-14 -3.25788e-14 0)
(-3.9968e-15 -2.74793e-14 0)
(3.33067e-15 -2.85292e-14 0)
(1.33227e-15 -2.82328e-14 0)
(1.55431e-15 -2.81553e-14 0)
(1.77636e-15 -2.82392e-14 0)
(1.55431e-15 -2.84324e-14 0)
(1.9984e-15 -2.84807e-14 0)
(1.77636e-15 -2.84147e-14 0)
(1.77636e-15 -2.82957e-14 0)
(1.77636e-15 -2.83091e-14 0)
(1.88738e-15 -2.83867e-14 0)
(2.10942e-15 -2.83349e-14 0)
(2.22045e-15 -2.83049e-14 0)
(2.33147e-15 -2.82909e-14 0)
(2.10942e-15 -2.82989e-14 0)
(1.88738e-15 -2.83583e-14 0)
(1.55431e-15 -2.84477e-14 0)
(1.77636e-15 -2.84628e-14 0)
(1.88738e-15 -2.83477e-14 0)
(-2.42029e-14 -2.06574e-14 0)
(6.66134e-15 -2.97418e-14 0)
(-4.44089e-16 -2.80578e-14 0)
(1.9984e-15 -2.84345e-14 0)
(1.11022e-15 -2.8371e-14 0)
(1.77636e-15 -2.84576e-14 0)
(1.9984e-15 -2.85476e-14 0)
(1.9984e-15 -2.85399e-14 0)
(1.9984e-15 -2.83465e-14 0)
(1.9984e-15 -2.8337e-14 0)
(2.10942e-15 -2.84049e-14 0)
(1.9984e-15 -2.84477e-14 0)
(1.88738e-15 -2.8337e-14 0)
(1.9984e-15 -2.82786e-14 0)
(1.9984e-15 -2.81997e-14 0)
(2.10942e-15 -2.82047e-14 0)
(1.9984e-15 -2.81875e-14 0)
(2.10942e-15 -2.82726e-14 0)
(1.9984e-15 -2.83497e-14 0)
(1.77636e-15 -2.82946e-14 0)
(1.9873e-14 -3.47682e-14 0)
(-2.66454e-15 -2.76825e-14 0)
(2.9976e-15 -2.86045e-14 0)
(1.11022e-15 -2.83862e-14 0)
(1.33227e-15 -2.8453e-14 0)
(1.55431e-15 -2.85514e-14 0)
(1.11022e-15 -2.85414e-14 0)
(1.11022e-15 -2.85636e-14 0)
(8.88178e-16 -2.85887e-14 0)
(1.55431e-15 -2.84729e-14 0)
(1.77636e-15 -2.83598e-14 0)
(1.33227e-15 -2.82753e-14 0)
(1.33227e-15 -2.82565e-14 0)
(1.33227e-15 -2.83163e-14 0)
(1.33227e-15 -2.82991e-14 0)
(1.77636e-15 -2.82393e-14 0)
(1.55431e-15 -2.82439e-14 0)
(1.55431e-15 -2.82908e-14 0)
(1.77636e-15 -2.83139e-14 0)
(1.77636e-15 -2.82978e-14 0)
(-9.10383e-15 -2.3449e-14 0)
(4.55191e-15 -2.91426e-14 0)
(1.33227e-15 -2.81556e-14 0)
(1.9984e-15 -2.83381e-14 0)
(1.88738e-15 -2.83996e-14 0)
(1.88738e-15 -2.84966e-14 0)
(1.88738e-15 -2.84483e-14 0)
(1.9984e-15 -2.83987e-14 0)
(1.77636e-15 -2.85504e-14 0)
(1.33227e-15 -2.85094e-14 0)
(1.33227e-15 -2.84961e-14 0)
(1.33227e-15 -2.84434e-14 0)
(1.77636e-15 -2.84311e-14 0)
(1.88738e-15 -2.84047e-14 0)
(1.77636e-15 -2.83428e-14 0)
(1.77636e-15 -2.82024e-14 0)
(1.77636e-15 -2.82852e-14 0)
(1.55431e-15 -2.84434e-14 0)
(1.9984e-15 -2.83951e-14 0)
(2.10942e-15 -2.82753e-14 0)
(1.54321e-14 -2.58336e-14 0)
(-8.88178e-16 -2.82051e-14 0)
(3.33067e-15 -2.82666e-14 0)
(1.88738e-15 -2.85043e-14 0)
(2.44249e-15 -2.84947e-14 0)
(2.22045e-15 -2.84069e-14 0)
(2.22045e-15 -2.82436e-14 0)
(1.9984e-15 -2.81549e-14 0)
(1.77636e-15 -2.82804e-14 0)
(2.22045e-15 -2.84527e-14 0)
(2.10942e-15 -2.84508e-14 0)
(1.9984e-15 -2.84252e-14 0)
(1.55431e-15 -2.8378e-14 0)
(1.55431e-15 -2.82722e-14 0)
(1.33227e-15 -2.8303e-14 0)
(1.33227e-15 -2.83312e-14 0)
(1.88738e-15 -2.833e-14 0)
(1.77636e-15 -2.82903e-14 0)
(1.77636e-15 -2.82537e-14 0)
(1.55431e-15 -2.83198e-14 0)
(-6.88338e-15 -1.87597e-14 0)
(2.55351e-15 -3.05211e-14 0)
(6.66134e-16 -2.81749e-14 0)
(1.77636e-15 -2.86123e-14 0)
(1.33227e-15 -2.84391e-14 0)
(1.33227e-15 -2.83098e-14 0)
(8.88178e-16 -2.82335e-14 0)
(1.33227e-15 -2.82898e-14 0)
(1.11022e-15 -2.83868e-14 0)
(1.33227e-15 -2.84473e-14 0)
(1.11022e-15 -2.83465e-14 0)
(1.33227e-15 -2.83266e-14 0)
(1.33227e-15 -2.83054e-14 0)
(1.88738e-15 -2.83141e-14 0)
(1.77636e-15 -2.83188e-14 0)
(1.88738e-15 -2.84568e-14 0)
(1.77636e-15 -2.83873e-14 0)
(1.77636e-15 -2.82569e-14 0)
(1.77636e-15 -2.827e-14 0)
(1.77636e-15 -2.83627e-14 0)
(9.54792e-15 -5.60262e-14 0)
(1.88738e-15 -2.30815e-14 0)
(3.55271e-15 -2.96811e-14 0)
(2.44249e-15 -2.80928e-14 0)
(2.77556e-15 -2.83923e-14 0)
(2.77556e-15 -2.83285e-14 0)
(2.66454e-15 -2.83521e-14 0)
(2.66454e-15 -2.83784e-14 0)
(2.77556e-15 -2.8385e-14 0)
(2.44249e-15 -2.83903e-14 0)
(2.33147e-15 -2.84307e-14 0)
(2.33147e-15 -2.84471e-14 0)
(2.44249e-15 -2.84228e-14 0)
(2.22045e-15 -2.84398e-14 0)
(2.10942e-15 -2.83359e-14 0)
(1.9984e-15 -2.83442e-14 0)
(1.88738e-15 -2.83073e-14 0)
(1.77636e-15 -2.8313e-14 0)
(1.9984e-15 -2.83466e-14 0)
(1.77636e-15 -2.8307e-14 0)
)
;

boundaryField
{
    movingWall
    {
        type            calculated;
        value           uniform (1.77636e-15 -2.82935e-14 0);
    }
    fixedWalls
    {
        type            calculated;
        value           uniform (1.77636e-15 -2.82935e-14 0);
    }
    frontAndBack
    {
        type            empty;
    }
}


// ************************************************************************* //
