/*--------------------------------*- C++ -*----------------------------------*\
| =========                 |                                                 |
| \\      /  F ield         | OpenFOAM: The Open Source CFD Toolbox           |
|  \\    /   O peration     | Version:  2312                                  |
|   \\  /    A nd           | Website:  www.openfoam.com                      |
|    \\/     M anipulation  |                                                 |
\*---------------------------------------------------------------------------*/
FoamFile
{
    version     2.0;
    format      ascii;
    arch        "LSB;label=32;scalar=64";
    class       volScalarField;
    location    "5.125";
    object      divU;
}
// * * * * * * * * * * * * * * * * * * * * * * * * * * * * * * * * * * * * * //

dimensions      [0 0 -1 0 0 0 0];

internalField   nonuniform List<scalar> 
400
(
6.01732e-12
-8.95492e-13
1.69794e-13
-4.22255e-14
8.52619e-15
-1.09697e-15
4.21017e-15
5.25384e-16
2.69467e-15
-7.64816e-15
2.54578e-14
2.28441e-14
-4.28234e-14
2.05365e-14
-1.27183e-14
-7.05397e-16
6.59843e-15
1.4707e-14
-5.10679e-15
-2.71051e-14
-8.48388e-12
1.07072e-12
-2.5563e-13
7.54488e-14
-1.66637e-14
1.79294e-14
5.76142e-14
-3.12324e-14
-6.67086e-15
-2.16669e-14
-2.53431e-14
-2.0975e-14
3.82504e-14
-1.75495e-14
5.42741e-16
-3.86528e-15
-8.99656e-15
-1.23934e-17
-2.3719e-14
5.42101e-14
-1.11131e-12
1.66754e-12
-3.40933e-13
1.17744e-13
-3.83921e-14
-1.01438e-15
-8.03522e-15
1.99242e-14
-3.24936e-14
2.52181e-14
5.14928e-14
1.55972e-14
1.91684e-14
3.93752e-15
-3.84305e-15
4.13804e-15
2.09888e-14
1.7626e-14
-4.77972e-14
-2.71051e-14
8.0231e-12
-4.45711e-12
8.99954e-13
-3.8016e-13
8.09073e-14
-2.5452e-14
-1.80274e-14
-1.22117e-14
-1.56878e-14
2.19213e-14
-2.19297e-14
-6.6658e-14
-6.04035e-15
3.33113e-15
-4.14905e-16
-7.32982e-15
-1.86993e-14
9.50091e-15
1.87534e-14
2.71051e-14
-8.40257e-12
5.20302e-12
-9.5964e-13
4.0148e-13
-1.01059e-13
7.6216e-14
-1.23552e-14
-1.91793e-15
1.59069e-14
-7.32696e-15
3.04366e-14
-1.6858e-14
2.42449e-14
-1.96689e-16
5.15945e-15
-8.70028e-15
-3.76396e-14
1.47083e-14
2.49724e-14
-2.71051e-14
6.28837e-12
-5.16702e-12
9.91499e-13
-4.19879e-13
4.83756e-14
-3.37372e-14
1.91921e-14
5.29677e-15
-4.98404e-14
-5.70216e-14
5.82654e-14
-3.32633e-14
-1.83751e-14
2.23709e-14
2.14275e-14
-1.48391e-14
-2.05751e-14
-3.95626e-14
1.36663e-14
0
-3.90313e-12
4.41366e-12
-8.48088e-13
3.31417e-13
-4.93515e-14
4.62403e-14
-3.78152e-14
1.99259e-15
-3.9115e-16
-2.05375e-14
1.97452e-14
8.06563e-15
1.96831e-14
1.00508e-14
-3.62362e-14
-2.75857e-15
2.12711e-14
5.12361e-14
-1.16353e-14
-2.71051e-14
3.30682e-12
-4.09245e-12
8.03852e-13
-3.78645e-13
8.53698e-14
-3.49331e-14
1.22989e-14
-2.09581e-14
3.63734e-16
3.84104e-14
-3.80552e-15
-2.26422e-14
-4.90431e-15
-6.13568e-15
2.90408e-14
1.12513e-14
-9.81809e-14
-7.24586e-15
2.32754e-14
0
-3.82181e-12
4.17355e-12
-8.50577e-13
3.42715e-13
-9.21866e-14
4.10276e-14
8.44776e-15
1.24083e-14
-4.32664e-14
1.20962e-14
-9.77474e-15
4.78181e-14
-5.57248e-15
-4.19429e-15
-6.23315e-15
2.53408e-14
8.3565e-14
-4.3834e-15
-7.6919e-15
-2.71051e-14
4.25549e-12
-4.34658e-12
8.36411e-13
-3.69763e-13
8.14823e-14
-2.56696e-14
1.5564e-14
4.23379e-15
5.77508e-14
4.89871e-14
-3.92576e-14
-1.8943e-14
-4.64065e-15
-1.79444e-14
-1.94861e-14
-1.5044e-15
-1.57448e-14
-1.03048e-14
-6.51249e-16
0
-3.08998e-12
3.39976e-12
-6.31228e-13
2.65163e-13
-9.96131e-14
1.66046e-14
-4.33998e-14
3.13365e-14
-1.79746e-14
-1.89154e-14
-1.98771e-14
2.72452e-14
-1.61401e-14
5.03693e-14
6.02704e-15
2.8623e-14
2.38994e-14
-2.38475e-14
9.41635e-15
0
2.52077e-12
-3.12986e-12
5.77186e-13
-2.34203e-13
1.0416e-13
6.89271e-15
5.30867e-15
-1.93126e-14
-1.31274e-14
2.40007e-14
3.70773e-14
-3.45124e-14
1.96048e-14
-1.04924e-14
-1.05141e-14
-9.67434e-15
2.48968e-14
-1.90932e-14
8.04862e-15
0
-2.08709e-12
2.72774e-12
-4.96818e-13
2.49641e-13
-1.19288e-13
1.01534e-14
3.60862e-14
2.60233e-14
-2.09841e-14
-6.96618e-15
-4.62642e-15
2.3499e-14
-8.15785e-16
-3.00909e-14
-7.87791e-15
-7.90191e-15
-1.19457e-14
1.10036e-14
3.64491e-14
0
2.00577e-12
-2.39444e-12
4.87898e-13
-1.97759e-13
6.02941e-14
-1.09622e-14
-1.21879e-14
1.08549e-14
-1.74076e-14
-4.56028e-15
1.44151e-14
2.36697e-15
1.86236e-14
3.5107e-16
9.64796e-15
-1.87572e-14
-5.00777e-14
1.37873e-14
3.16676e-14
-2.71051e-14
-2.35814e-12
2.38285e-12
-4.95408e-13
1.3927e-13
-5.07886e-14
6.62322e-14
4.01624e-15
2.57112e-15
-7.70165e-15
-2.22756e-14
-1.77547e-14
1.35075e-14
-6.42547e-16
-7.83012e-16
8.82841e-15
1.43047e-14
1.55637e-14
2.37169e-15
-7.65879e-15
-2.71051e-14
1.11131e-12
-1.62299e-12
3.35069e-13
-1.76349e-13
5.47668e-14
8.11685e-15
-4.02626e-14
-3.75199e-14
8.03248e-14
1.46887e-14
2.28568e-16
-1.31678e-14
-1.00489e-14
-1.33867e-14
2.16313e-14
-1.25748e-14
-2.13153e-14
3.95041e-14
-1.21924e-14
0
1.0842e-13
9.53931e-13
-2.27454e-13
1.0999e-13
-3.07253e-14
2.25674e-14
4.3728e-14
3.3499e-15
-5.1478e-14
-3.74997e-14
-8.87043e-15
-1.04493e-15
5.91156e-14
-8.98196e-15
-3.29719e-14
-2.17602e-14
-2.81152e-15
1.24532e-14
4.80408e-14
-5.42101e-14
1.54499e-12
-1.35233e-12
3.12713e-13
-1.61372e-13
4.66418e-14
-1.29586e-14
-1.6107e-14
-1.28616e-14
4.62019e-14
2.29224e-14
-2.10193e-14
-4.35744e-14
-3.6742e-14
-2.70285e-14
-3.46707e-15
7.01932e-15
6.83018e-14
3.99461e-15
-4.78756e-14
5.42101e-14
-3.79471e-12
1.24712e-12
-2.35313e-13
1.23724e-13
-2.44319e-14
-5.93244e-14
1.48073e-16
-3.52153e-14
3.57415e-14
2.05093e-15
8.09308e-15
8.44038e-15
1.29906e-14
6.46329e-14
-6.76017e-15
-2.13881e-14
-1.0743e-14
1.72095e-15
-2.95749e-15
0
2.60209e-12
-8.94467e-13
1.89735e-13
-5.42101e-14
2.71051e-14
0
0
0
2.71051e-14
-2.71051e-14
0
2.71051e-14
2.71051e-14
0
-2.71051e-14
0
-2.71051e-14
2.71051e-14
0
-2.71051e-14
)
;

boundaryField
{
    movingWall
    {
        type            extrapolatedCalculated;
        value           nonuniform List<scalar> 
20
(
2.60209e-12
-8.94467e-13
1.89735e-13
-5.42101e-14
2.71051e-14
0
0
0
2.71051e-14
-2.71051e-14
0
2.71051e-14
2.71051e-14
0
-2.71051e-14
0
-2.71051e-14
2.71051e-14
0
-2.71051e-14
)
;
    }
    fixedWalls
    {
        type            extrapolatedCalculated;
        value           nonuniform List<scalar> 
60
(
6.01732e-12
-8.48388e-12
-1.11131e-12
8.0231e-12
-8.40257e-12
6.28837e-12
-3.90313e-12
3.30682e-12
-3.82181e-12
4.25549e-12
-3.08998e-12
2.52077e-12
-2.08709e-12
2.00577e-12
-2.35814e-12
1.11131e-12
1.0842e-13
1.54499e-12
-3.79471e-12
2.60209e-12
-2.71051e-14
5.42101e-14
-2.71051e-14
2.71051e-14
-2.71051e-14
0
-2.71051e-14
0
-2.71051e-14
0
0
0
0
-2.71051e-14
-2.71051e-14
0
-5.42101e-14
5.42101e-14
0
-2.71051e-14
6.01732e-12
-8.95492e-13
1.69794e-13
-4.22255e-14
8.52619e-15
-1.09697e-15
4.21017e-15
5.25384e-16
2.69467e-15
-7.64816e-15
2.54578e-14
2.28441e-14
-4.28234e-14
2.05365e-14
-1.27183e-14
-7.05397e-16
6.59843e-15
1.4707e-14
-5.10679e-15
-2.71051e-14
)
;
    }
    frontAndBack
    {
        type            empty;
    }
}


// ************************************************************************* //
