/*--------------------------------*- C++ -*----------------------------------*\
| =========                 |                                                 |
| \\      /  F ield         | OpenFOAM: The Open Source CFD Toolbox           |
|  \\    /   O peration     | Version:  2312                                  |
|   \\  /    A nd           | Website:  www.openfoam.com                      |
|    \\/     M anipulation  |                                                 |
\*---------------------------------------------------------------------------*/
FoamFile
{
    version     2.0;
    format      ascii;
    arch        "LSB;label=32;scalar=64";
    class       volScalarField;
    location    "5.125";
    object      flowTypeField;
}
// * * * * * * * * * * * * * * * * * * * * * * * * * * * * * * * * * * * * * //

dimensions      [0 0 0 0 0 0 0];

internalField   nonuniform List<scalar> 
400
(
0.625824
0.108413
0.0504804
0.256169
0.955811
0.0192212
-0.234623
-0.271975
0.338971
0.571276
0.678232
0.798945
0.714794
0.109977
0.525443
0.142319
0.182974
0.164993
0.272706
0.635822
0.471175
0.0789752
-0.182759
0.238044
-0.0606869
0.11316
0.0204114
-0.0220753
-0.0567378
-0.123717
0.0734434
0.230681
0.416983
0.835655
-0.295788
0.0456058
-0.421242
0.664079
0.350514
0.193902
-0.515869
-0.039942
-0.403401
0.231863
-0.343615
-0.0188184
0.327547
0.286251
0.0454772
0.286157
0.315862
0.291728
0.733828
0.335438
-0.0668294
-0.201643
-0.106478
-0.0511626
0.605241
0.072592
0.141244
0.188777
0.0821
0.392152
0.744647
0.115504
-0.174902
0.126905
0.45927
0.713584
0.608501
-0.0820321
-0.780102
0.164803
0.435102
0.0021394
0.683971
0.395098
0.503101
0.250785
0.619055
0.637035
0.50469
0.824592
0.922698
0.378126
0.412333
0.138626
0.498808
-0.181427
-0.0170794
0.0407201
0.0932577
0.0338107
0.707833
0.00696952
0.778234
-0.273506
0.595779
0.461228
0.798564
0.907576
0.776207
0.926569
0.180135
0.175026
0.131195
-0.160988
0.102969
0.153753
0.40121
0.345514
0.665955
0.848362
0.662414
-0.247883
-0.163693
0.574551
0.399751
0.834539
0.592607
0.742059
0.717715
0.827726
0.919572
0.819551
0.0868082
0.127658
-0.0192168
0.110575
0.248394
0.0552247
-0.192058
-0.0983422
0.660298
0.296097
0.482005
0.150771
0.453278
0.399396
0.815689
0.786325
0.876234
0.731842
0.297504
0.231448
0.231324
0.278488
-0.10084
-0.140998
-0.293203
0.0315877
0.0618006
-0.00853439
2.78501e-06
0.408395
0.390636
0.258697
0.718411
0.290802
0.959477
0.860481
0.697346
0.767195
0.861427
0.387891
0.18929
0.0148245
0.275516
0.0524863
-0.0650278
0.914574
0.132187
0.0151027
0.152771
-0.119751
0.586982
-0.325665
0.0138843
0.714946
0.547738
0.789343
0.566549
0.621307
0.206232
0.0291794
0.0647776
0.1023
0.140448
0.81599
0.760166
0.147354
0.172251
0.266588
-0.0154477
-0.103575
0.914019
0.167966
-0.183323
0.576129
0.32499
0.608029
0.570614
0.801833
0.667802
0.308571
0.0376258
0.0235427
0.797231
0.411542
0.0728203
0.0995655
0.136017
0.320341
0.304557
0.459376
-0.178295
0.702654
-0.13131
0.0419513
0.557655
0.599219
0.850457
0.379388
0.331735
-0.108832
-0.180591
-0.109994
0.292686
-0.335469
-0.136749
0.908381
0.451717
-0.143924
-0.0630362
-0.0779402
-0.0653374
0.0196137
0.0225288
0.144865
0.442868
0.694642
0.48304
0.674922
0.712238
0.0893136
0.703152
0.492521
0.897342
0.142731
-0.0572549
0.698229
-0.127916
-0.0580721
-0.0666906
0.0491096
0.368704
0.814366
0.256529
0.222863
0.502755
0.771623
0.551517
0.88411
0.977227
-0.277465
-0.23891
0.0528453
0.258242
0.381324
-0.0462463
0.0238928
0.646372
0.0817597
0.0568606
0.033327
0.0385508
-0.188395
0.50709
0.327756
0.385503
0.596357
0.630036
0.825598
0.900813
0.795437
0.236367
-0.180114
-0.167925
0.314111
0.0823134
-0.0981187
-0.151422
-0.249587
-0.0900848
0.653782
0.290709
0.249597
0.877309
0.147751
0.0225196
0.47319
0.369542
0.888981
0.276373
0.0764883
0.952251
0.872942
0.882747
-0.16811
-0.175999
-0.0630767
0.505658
0.0992765
0.0131973
-0.100364
0.450711
0.35962
0.671664
0.0454075
0.323557
0.354292
0.76281
0.138169
-0.0917879
-0.0497948
0.140894
0.00663456
0.209165
0.110341
0.13081
0.448118
0.438254
0.16314
0.355802
-0.0877811
0.0551834
1.14315e-05
0.639474
0.376062
0.956399
0.970209
0.898663
0.951837
0.161189
-0.180029
-0.1602
0.167271
0.584566
0.421213
0.0841807
0.356171
0.0304691
0.671785
0.0642596
0.880052
0.920948
0.24565
0.547237
0.518396
0.544979
0.082334
0.220796
0.409987
0.897337
0.51856
0.0541208
-0.160472
-0.0121466
0.163074
0.220163
0.0975111
0.0408394
0.394282
-0.130132
-0.0297103
0.719153
0.0171205
-0.275319
0.0319463
0.206156
0.0010958
0.136658
-0.255374
0.464783
-0.0681553
0.000384521
0.0694707
0.0711439
0.592726
0.764647
0.895489
0.0841463
0.00874276
-0.0332662
0.106509
0.220211
0.788735
-0.0155841
0.697699
)
;

boundaryField
{
    movingWall
    {
        type            calculated;
        value           nonuniform List<scalar> 
20
(
0.90188
0.19944
0.746316
-0.34046
0.0631479
-0.00941853
0.016135
0.0136704
0.00709783
0.0455077
0.0590391
0.032181
0.0154698
0.0149267
-0.0402873
0.0349604
0.0882351
0.795535
0.0204861
0.691486
)
;
    }
    fixedWalls
    {
        type            calculated;
        value           nonuniform List<scalar> 
60
(
0.131921
0.0622717
-0.0891298
0.196934
0.655688
0.866192
0.738993
0.821732
0.873881
0.759902
0.606385
0.650869
0.660784
0.726672
0.594309
0.429765
0.458052
0.821728
0.247308
0.0411269
0.52023
0.467709
0.631063
0.612271
0.815392
0.95275
0.5101
0.747789
0.342941
0.0569933
0.00448185
0.156712
0.668168
0.501594
0.00151479
0.0314219
0.807287
0.539142
0.0010488
0.380853
0.684093
0.055356
0.636874
-0.388131
0.106505
0.002345
-0.0552074
-0.026701
0.0433376
0.0737422
0.0510192
0.000409775
0.0486445
0.154414
0.198155
0.930522
0.577275
0.0814034
0.576711
0.0637031
)
;
    }
    frontAndBack
    {
        type            empty;
    }
}


// ************************************************************************* //
