/*--------------------------------*- C++ -*----------------------------------*\
| =========                 |                                                 |
| \\      /  F ield         | OpenFOAM: The Open Source CFD Toolbox           |
|  \\    /   O peration     | Version:  2312                                  |
|   \\  /    A nd           | Website:  www.openfoam.com                      |
|    \\/     M anipulation  |                                                 |
\*---------------------------------------------------------------------------*/
FoamFile
{
    version     2.0;
    format      ascii;
    arch        "LSB;label=32;scalar=64";
    class       surfaceScalarField;
    location    "5.125";
    object      fluxField;
}
// * * * * * * * * * * * * * * * * * * * * * * * * * * * * * * * * * * * * * //

dimensions      [0 3 -1 0 0 0 0];

oriented        oriented;

internalField   nonuniform List<scalar> 
760
(
-5e-05
1.51884e-18
-5e-05
-2.91636e-19
-5e-05
6.95536e-20
-5e-05
-1.05564e-20
-5e-05
2.13155e-21
-5e-05
-2.74243e-22
-5e-05
1.05254e-21
-5e-05
1.31346e-22
-5e-05
6.73668e-22
-5e-05
4.86422e-21
-5e-05
6.36445e-21
-5e-05
5.71103e-21
-5e-05
2.84668e-21
-5e-05
-1.64214e-21
-5e-05
3.59669e-21
-5e-05
6.59991e-21
-5e-05
1.64961e-21
-5e-05
-3.09952e-21
-5e-05
-1.2767e-21
1.53746e-21
-5e-05
-6.62815e-19
-5e-05
1.05051e-19
-5e-05
-2.325e-20
-5e-05
5.30968e-21
-5e-05
-4.16593e-21
-5e-05
-9.07019e-21
-5e-05
-5.92524e-21
-5e-05
-1.03185e-21
-5e-05
-1.66772e-21
-5e-05
1.35953e-21
-5e-05
4.40489e-22
-5e-05
1.53252e-21
-5e-05
2.78634e-21
-5e-05
2.3889e-21
-5e-05
6.91195e-21
-5e-05
5.80994e-21
-5e-05
-2.24914e-21
-5e-05
-6.77936e-21
-5e-05
-5.92976e-21
-1.5441e-21
-5e-05
-5.19992e-19
-5e-05
9.16239e-20
-5e-05
-2.42469e-20
-5e-05
2.33085e-21
-5e-05
-2.82176e-21
-5e-05
-7.02986e-21
-5e-05
-8.78507e-21
-5e-05
-8.57147e-21
-5e-05
-8.12341e-21
-5e-05
-7.248e-21
-5e-05
-7.45559e-21
-5e-05
-2.87697e-21
-5e-05
4.79209e-21
-5e-05
7.76064e-21
-5e-05
5.8155e-21
-5e-05
1.03451e-21
-5e-05
-1.52906e-21
-5e-05
-2.36978e-21
-5e-05
-5.17305e-21
-3.89797e-21
-5e-05
6.41206e-19
-5e-05
-9.78368e-20
-5e-05
2.17005e-20
-5e-05
-6.94856e-21
-5e-05
-1.0197e-22
-5e-05
4.13265e-22
-5e-05
-4.50686e-21
-5e-05
-9.8292e-21
-5e-05
-1.06982e-20
-5e-05
-8.07221e-21
-5e-05
-5.48243e-21
-5e-05
-3.11198e-21
-5e-05
5.26618e-21
-5e-05
7.60905e-21
-5e-05
-1.03726e-22
-5e-05
-1.83246e-21
-5e-05
2.10144e-21
-5e-05
2.37523e-21
-5e-05
-2.08792e-21
-3.33139e-21
-5e-05
-4.22733e-19
-5e-05
8.78042e-20
-5e-05
-2.30695e-20
-5e-05
-1.27391e-21
-5e-05
-4.93608e-21
-5e-05
-1.27478e-21
-5e-05
-3.0888e-21
-5e-05
-7.25575e-21
-5e-05
-9.57581e-21
-5e-05
-8.608e-21
-5e-05
-5.94338e-21
-5e-05
-4.21449e-21
-5e-05
-7.15049e-22
-5e-05
-4.91723e-23
-5e-05
-5.4864e-21
-5e-05
-2.17507e-21
-5e-05
4.14264e-21
-5e-05
3.67707e-21
-5e-05
-5.3316e-22
-1.28492e-21
-5e-05
9.54757e-20
-5e-05
-2.4593e-20
-5e-05
-2.84688e-21
-5e-05
-3.3259e-21
-5e-05
-1.45863e-21
-5e-05
-1.65804e-21
-5e-05
-1.97823e-21
-5e-05
-5.45207e-21
-5e-05
-5.68384e-21
-5e-05
-7.47913e-21
-5e-05
-5.76243e-21
-5e-05
-1.53957e-21
-5e-05
-4.59377e-21
-5e-05
-7.95979e-21
-5e-05
-8.19564e-21
-5e-05
-3.70978e-21
-5e-05
1.63249e-21
-5e-05
3.66187e-21
-5e-05
3.41658e-21
1.26847e-21
-5e-05
5.26293e-20
-5e-05
-1.11721e-21
-5e-05
-1.95778e-21
-5e-05
1.53898e-21
-5e-05
1.21465e-21
-5e-05
-1.99244e-21
-5e-05
-2.67753e-21
-5e-05
-6.27812e-21
-5e-05
-6.87405e-21
-5e-05
-5.13438e-21
-5e-05
-1.83996e-21
-5e-05
2.01641e-21
-5e-05
-1.85548e-21
-5e-05
-4.26357e-21
-5e-05
-2.28279e-21
-5e-05
-6.89642e-22
-5e-05
-1.45849e-21
-5e-05
-7.43514e-22
-5e-05
3.86743e-21
2.61906e-21
-5e-05
-2.91917e-20
-5e-05
-6.67412e-21
-5e-05
-2.32487e-21
-5e-05
2.06461e-22
-5e-05
1.01367e-21
-5e-05
-1.95701e-21
-5e-05
-3.70154e-21
-5e-05
-5.23952e-21
-5e-05
-6.68533e-21
-5e-05
-3.94993e-21
-5e-05
-9.51381e-22
-5e-05
1.11571e-21
-5e-05
-1.22608e-21
-5e-05
-1.53392e-21
-5e-05
4.83931e-22
-5e-05
2.81283e-21
-5e-05
2.55984e-21
-5e-05
-1.81146e-21
-5e-05
-9.57423e-22
1.44587e-21
-5e-05
-3.91844e-20
-5e-05
-1.371e-20
-5e-05
-2.5802e-21
-5e-05
-2.4127e-21
-5e-05
-2.71787e-21
-5e-05
-3.29563e-21
-5e-05
-4.66432e-21
-5e-05
-3.67419e-21
-5e-05
-4.04032e-21
-5e-05
-3.7522e-21
-5e-05
-2.44369e-21
-5e-05
-1.598e-21
-5e-05
-1.39312e-21
-5e-05
-1.04857e-21
-5e-05
-1.55829e-21
-5e-05
-4.41067e-22
-5e-05
5.62462e-22
-5e-05
-1.09585e-21
-5e-05
-1.92298e-21
5.44838e-22
-5e-05
6.59819e-20
-5e-05
-9.21875e-21
-5e-05
-9.61312e-22
-5e-05
-4.3494e-21
-5e-05
-6.73448e-21
-5e-05
-6.41739e-21
-5e-05
-2.88527e-21
-5e-05
1.05845e-21
-5e-05
8.85165e-22
-5e-05
-1.30575e-21
-5e-05
-3.03813e-21
-5e-05
-4.73574e-21
-5e-05
-1.16016e-21
-5e-05
2.29017e-21
-5e-05
1.90474e-21
-5e-05
-3.76101e-22
-5e-05
-3.93621e-21
-5e-05
-2.5762e-21
-5e-05
-1.62812e-22
1.14352e-21
-5e-05
-1.0101e-20
-5e-05
9.68358e-21
-5e-05
-1.95298e-21
-5e-05
-1.47186e-21
-5e-05
-4.57447e-21
-5e-05
-2.62512e-21
-5e-05
2.70258e-21
-5e-05
7.83413e-21
-5e-05
9.05889e-21
-5e-05
2.04742e-21
-5e-05
-4.96928e-21
-5e-05
-6.74122e-21
-5e-05
-4.03503e-21
-5e-05
-9.6019e-22
-5e-05
1.50676e-21
-5e-05
3.79477e-22
-5e-05
-8.01416e-22
-5e-05
8.14379e-22
-5e-05
2.35409e-21
1.43651e-21
-5e-05
-6.53317e-20
-5e-05
1.71347e-20
-5e-05
1.99497e-21
-5e-05
2.43559e-21
-5e-05
-1.06516e-21
-5e-05
1.72318e-21
-5e-05
1.32717e-21
-5e-05
1.94811e-21
-5e-05
3.49442e-21
-5e-05
-7.76094e-22
-5e-05
-4.2832e-21
-5e-05
-1.85183e-21
-5e-05
-1.87505e-21
-5e-05
-2.62311e-21
-5e-05
-2.62851e-21
-5e-05
-2.41858e-21
-5e-05
-5.52058e-22
-5e-05
2.00296e-21
-5e-05
2.01215e-21
-4.58246e-22
-5e-05
6.60747e-20
-5e-05
-9.24276e-21
-5e-05
4.54451e-21
-5e-05
1.42398e-21
-5e-05
4.05931e-21
-5e-05
2.53836e-21
-5e-05
-4.53097e-21
-5e-05
-7.04671e-21
-5e-05
-5.24603e-21
-5e-05
-1.74155e-21
-5e-05
-1.1566e-21
-5e-05
-9.01509e-22
-5e-05
-2.03946e-22
-5e-05
-7.46455e-22
-5e-05
-1.96948e-21
-5e-05
-1.97548e-21
-5e-05
-2.98643e-21
-5e-05
-4.02537e-21
-5e-05
-4.44024e-21
-2.50148e-21
-5e-05
8.37732e-20
-5e-05
-1.58504e-20
-5e-05
1.84554e-24
-5e-05
-2.0058e-21
-5e-05
1.521e-21
-5e-05
-2.74055e-21
-5e-05
-9.82325e-21
-5e-05
-1.08388e-20
-5e-05
-4.35191e-21
-5e-05
-1.14007e-21
-5e-05
-3.1725e-21
-5e-05
-6.18452e-21
-5e-05
-2.12037e-21
-5e-05
8.77674e-23
-5e-05
2.41199e-21
-5e-05
2.08697e-21
-5e-05
1.03311e-21
-5e-05
-3.32944e-21
-5e-05
-5.63563e-21
-1.38109e-21
-5e-05
2.90368e-20
-5e-05
-2.09286e-20
-5e-05
-1.87924e-21
-5e-05
-5.83996e-21
-5e-05
-5.9209e-21
-5e-05
-1.0547e-20
-5e-05
-1.25485e-20
-5e-05
-1.29097e-20
-5e-05
-8.70167e-21
-5e-05
-5.56891e-21
-5e-05
-4.43869e-21
-5e-05
-3.3994e-21
-5e-05
-1.60637e-22
-5e-05
-1.95753e-22
-5e-05
2.2071e-21
-5e-05
3.57617e-21
-5e-05
3.89093e-21
-5e-05
5.92923e-22
-5e-05
-1.9147e-21
-1.31895e-22
-5e-05
-4.0753e-20
-5e-05
-5.94838e-21
-5e-05
-4.32413e-21
-5e-05
-3.42965e-21
-5e-05
-6.63708e-21
-5e-05
-1.15233e-20
-5e-05
-1.00656e-20
-5e-05
-9.37997e-21
-5e-05
-1.38001e-20
-5e-05
-9.88036e-21
-5e-05
-6.71912e-21
-5e-05
-3.29195e-21
-5e-05
-2.51223e-21
-5e-05
-3.34666e-21
-5e-05
-1.36843e-21
-5e-05
3.63257e-21
-5e-05
1.44744e-21
-5e-05
-3.67651e-21
-5e-05
-3.04809e-21
3.51115e-22
-5e-05
1.82613e-19
-5e-05
-1.90153e-20
-5e-05
4.12281e-21
-5e-05
-6.38392e-21
-5e-05
-7.68132e-21
-5e-05
-7.91069e-21
-5e-05
-2.62052e-21
-5e-05
8.37474e-22
-5e-05
-6.09324e-21
-5e-05
-9.37493e-21
-5e-05
-8.99387e-21
-5e-05
-7.03749e-21
-5e-05
-5.5499e-21
-5e-05
-2.24549e-21
-5e-05
-1.46671e-21
-5e-05
1.33622e-21
-5e-05
-7.0288e-22
-5e-05
-3.66297e-21
-5e-05
-1.54233e-21
-2.00337e-22
-5e-05
2.99845e-19
-5e-05
-5.34785e-20
-5e-05
3.63936e-21
-5e-05
-1.32379e-20
-5e-05
-8.66835e-21
-5e-05
-3.23965e-21
-5e-05
2.74952e-21
-5e-05
3.56086e-21
-5e-05
-2.00206e-21
-5e-05
-7.82192e-21
-5e-05
-5.25483e-21
-5e-05
-4.11734e-21
-5e-05
-2.40923e-21
-5e-05
1.91507e-23
-5e-05
-8.66767e-22
-5e-05
-5.02143e-21
-5e-05
-3.25335e-21
-5e-05
9.98652e-22
-5e-05
1.58362e-21
-2.38678e-21
-5e-05
-4.5497e-19
-5e-05
7.4611e-20
-5e-05
-3.17233e-20
-5e-05
-2.95038e-21
-5e-05
-6.10798e-21
-5e-05
-1.27858e-21
-5e-05
3.70182e-23
-5e-05
-2.02757e-21
-5e-05
-4.61716e-21
-5e-05
-6.26353e-21
-5e-05
-4.75299e-21
-5e-05
-4.66617e-21
-5e-05
-3.5286e-21
-5e-05
-4.17056e-21
-5e-05
-1.69004e-21
-5e-05
-5.34702e-21
-5e-05
-2.68575e-21
-5e-05
4.30237e-22
-5e-05
-7.39372e-22
-2.06557e-21
-5e-05
-5e-05
-5e-05
-5e-05
-5e-05
-5e-05
-5e-05
-5e-05
-5e-05
-5e-05
-5e-05
-5e-05
-5e-05
-5e-05
-5e-05
-5e-05
-5e-05
-5e-05
-5e-05
)
;

boundaryField
{
    movingWall
    {
        type            calculated;
        value           uniform -0;
    }
    fixedWalls
    {
        type            calculated;
        value           nonuniform List<scalar> 
60
(
5e-05
5e-05
5e-05
5e-05
5e-05
5e-05
5e-05
5e-05
5e-05
5e-05
5e-05
5e-05
5e-05
5e-05
5e-05
5e-05
5e-05
5e-05
5e-05
5e-05
-5e-05
-5e-05
-5e-05
-5e-05
-5e-05
-5e-05
-5e-05
-5e-05
-5e-05
-5e-05
-5e-05
-5e-05
-5e-05
-5e-05
-5e-05
-5e-05
-5e-05
-5e-05
-5e-05
-5e-05
0
0
0
0
0
0
0
0
0
0
0
0
0
0
0
0
0
0
0
0
)
;
    }
    frontAndBack
    {
        type            empty;
        value           nonuniform List<scalar> 0();
    }
}


// ************************************************************************* //
