/*--------------------------------*- C++ -*----------------------------------*\
| =========                 |                                                 |
| \\      /  F ield         | OpenFOAM: The Open Source CFD Toolbox           |
|  \\    /   O peration     | Version:  2312                                  |
|   \\  /    A nd           | Website:  www.openfoam.com                      |
|    \\/     M anipulation  |                                                 |
\*---------------------------------------------------------------------------*/
FoamFile
{
    version     2.0;
    format      ascii;
    arch        "LSB;label=32;scalar=64";
    class       volTensorField;
    location    "5.125";
    object      gradU;
}
// * * * * * * * * * * * * * * * * * * * * * * * * * * * * * * * * * * * * * //

dimensions      [0 0 -1 0 0 0 0];

internalField   nonuniform List<tensor> 
400
(
(-5.42101e-14 2.30611e-12 0 2.43945e-13 6.07535e-12 0 0 0 0)
(2.71051e-13 -2.70187e-12 0 -8.13152e-14 -1.16654e-12 0 0 0 0)
(-1.0842e-13 5.02177e-13 0 -5.42101e-14 2.78214e-13 0 0 0 0)
(0 -1.21835e-13 0 -2.71051e-14 -4.22255e-14 0 0 0 0)
(0 2.76814e-14 0 2.71051e-14 8.52619e-15 0 0 0 0)
(0 -1.0449e-15 0 -5.42101e-14 -1.09697e-15 0 0 0 0)
(0 -1.315e-14 0 5.42101e-14 4.21017e-15 0 0 0 0)
(0 -7.57321e-15 0 2.71051e-14 5.25384e-16 0 0 0 0)
(0 9.36187e-15 0 2.71051e-14 2.69467e-15 0 0 0 0)
(-2.71051e-14 1.10603e-14 0 2.71051e-14 1.94569e-14 0 0 0 0)
(0 6.44089e-15 0 0 2.54578e-14 0 0 0 0)
(0 -2.99809e-15 0 0 2.28441e-14 0 0 0 0)
(-5.42101e-14 -1.26073e-14 0 0 1.13867e-14 0 0 0 0)
(2.71051e-14 -3.6066e-16 0 -5.42101e-14 -6.56855e-15 0 0 0 0)
(-2.71051e-14 1.36672e-14 0 0 1.43868e-14 0 0 0 0)
(-2.71051e-14 1.83327e-15 0 -5.42101e-14 2.63997e-14 0 0 0 0)
(0 -9.77189e-15 0 -5.42101e-14 6.59843e-15 0 0 0 0)
(2.71051e-14 -3.30234e-15 0 -5.42101e-14 -1.23981e-14 0 0 0 0)
(0 4.58576e-15 0 0 -5.10679e-15 0 0 0 0)
(-2.71051e-14 -8.39854e-15 0 0 6.14983e-15 0 0 0 0)
(2.43945e-13 2.6027e-12 0 -1.84314e-12 -8.72661e-12 0 0 0 0)
(-5.14996e-13 -3.09526e-12 0 1.35525e-13 1.58674e-12 0 0 0 0)
(1.0842e-13 6.2214e-13 0 -2.98156e-13 -3.71214e-13 0 0 0 0)
(0 -1.47853e-13 0 -2.71051e-14 6.34643e-14 0 0 0 0)
(0 1.34472e-14 0 -1.89735e-13 -2.51899e-14 0 0 0 0)
(5.42101e-14 -3.27113e-15 0 -1.35525e-13 -3.51838e-14 0 0 0 0)
(8.13152e-14 1.47723e-14 0 -1.89735e-13 -2.79111e-14 0 0 0 0)
(-2.71051e-14 6.05771e-15 0 -1.0842e-13 -4.65277e-15 0 0 0 0)
(0 9.56964e-15 0 -1.6263e-13 -9.36553e-15 0 0 0 0)
(0 1.17028e-14 0 -8.13152e-14 -1.40188e-14 0 0 0 0)
(0 -3.05364e-15 0 -8.13152e-14 -2.36958e-14 0 0 0 0)
(0 -1.1073e-14 0 -5.42101e-14 -1.67141e-14 0 0 0 0)
(2.71051e-14 -1.68054e-14 0 0 -2.41363e-16 0 0 0 0)
(-2.71051e-14 3.36071e-15 0 0 1.61241e-14 0 0 0 0)
(0 1.9301e-14 0 -5.42101e-14 1.3261e-14 0 0 0 0)
(0 -9.62161e-15 0 0 -3.15988e-15 0 0 0 0)
(0 -2.90258e-14 0 5.42101e-14 -1.5595e-14 0 0 0 0)
(2.71051e-14 -8.40288e-15 0 0 -1.47194e-14 0 0 0 0)
(0 1.39622e-14 0 0 -1.86123e-14 0 0 0 0)
(5.42101e-14 7.3555e-15 0 -5.42101e-14 -1.23262e-14 0 0 0 0)
(-1.68051e-12 -4.83376e-12 0 3.7405e-12 5.71295e-13 0 0 0 0)
(1.73472e-12 5.65353e-12 0 -5.14996e-13 -5.37063e-14 0 0 0 0)
(-3.25261e-13 -1.0211e-12 0 5.42101e-13 -3.98739e-15 0 0 0 0)
(1.35525e-13 2.24189e-13 0 2.71051e-14 -1.19153e-14 0 0 0 0)
(-5.42101e-14 -7.09667e-14 0 1.35525e-13 5.37667e-15 0 0 0 0)
(0 -3.7661e-15 0 1.89735e-13 8.16132e-15 0 0 0 0)
(0 1.7381e-14 0 5.42101e-14 -1.14393e-14 0 0 0 0)
(5.42101e-14 1.09724e-14 0 8.13152e-14 -3.01585e-14 0 0 0 0)
(0 -4.11654e-18 0 8.13152e-14 -2.58228e-14 0 0 0 0)
(5.42101e-14 -3.27001e-15 0 5.42101e-14 -3.44301e-14 0 0 0 0)
(8.13152e-14 3.74557e-15 0 8.13152e-14 -3.15843e-14 0 0 0 0)
(2.71051e-14 2.04564e-14 0 8.13152e-14 -1.76379e-14 0 0 0 0)
(0 2.02309e-14 0 2.71051e-14 8.02301e-15 0 0 0 0)
(-2.71051e-14 1.31417e-14 0 5.42101e-14 2.1487e-14 0 0 0 0)
(0 -5.61681e-15 0 8.13152e-14 -4.38579e-15 0 0 0 0)
(2.71051e-14 -2.70227e-14 0 8.13152e-14 -1.91017e-14 0 0 0 0)
(2.71051e-14 -2.13314e-14 0 2.71051e-14 2.88031e-15 0 0 0 0)
(0 -6.31961e-15 0 8.13152e-14 1.76383e-14 0 0 0 0)
(-5.42101e-14 6.9789e-15 0 2.71051e-14 3.02686e-15 0 0 0 0)
(0 2.25399e-14 0 0 -9.41549e-15 0 0 0 0)
(3.36103e-12 3.12029e-12 0 -2.98156e-12 4.64479e-12 0 0 0 0)
(-3.68629e-12 -3.67055e-12 0 5.42101e-13 -7.57843e-13 0 0 0 0)
(7.04731e-13 6.63931e-13 0 -2.71051e-13 1.8379e-13 0 0 0 0)
(-3.52366e-13 -1.38489e-13 0 8.13152e-14 -3.71176e-14 0 0 0 0)
(8.13152e-14 3.35238e-14 0 5.42101e-14 1.08792e-14 0 0 0 0)
(-5.42101e-14 -2.00871e-14 0 5.42101e-14 2.97725e-14 0 0 0 0)
(-2.71051e-14 -2.35475e-14 0 8.13152e-14 1.71128e-14 0 0 0 0)
(0 -8.32575e-15 0 0 -5.03088e-15 0 0 0 0)
(0 5.29803e-15 0 0 -1.02992e-14 0 0 0 0)
(2.71051e-14 5.94128e-15 0 0 -3.29687e-15 0 0 0 0)
(-2.71051e-14 1.37385e-14 0 2.71051e-14 7.89266e-15 0 0 0 0)
(-5.42101e-14 2.85344e-14 0 -8.13152e-14 -9.40057e-16 0 0 0 0)
(0 2.23196e-14 0 -2.71051e-14 1.89634e-15 0 0 0 0)
(0 -9.04809e-15 0 -5.42101e-14 -6.06389e-16 0 0 0 0)
(2.71051e-14 -2.12877e-14 0 0 -2.36769e-14 0 0 0 0)
(0 -2.35551e-15 0 2.71051e-14 -1.14679e-14 0 0 0 0)
(-2.71051e-14 7.71424e-15 0 0 1.4522e-14 0 0 0 0)
(0 -8.25632e-15 0 -2.71051e-14 1.898e-14 0 0 0 0)
(0 -1.30917e-14 0 -2.71051e-14 1.23405e-14 0 0 0 0)
(0 1.37441e-14 0 5.42101e-14 2.26634e-15 0 0 0 0)
(-4.14707e-12 -9.46815e-13 0 1.02999e-12 -4.25575e-12 0 0 0 0)
(4.47233e-12 1.19253e-12 0 -2.43945e-13 7.42564e-13 0 0 0 0)
(-7.86047e-13 -3.00378e-13 0 8.13152e-14 -1.7908e-13 0 0 0 0)
(3.79471e-13 5.12789e-14 0 0 2.26986e-14 0 0 0 0)
(-8.13152e-14 -4.07654e-15 0 0 -1.93364e-14 0 0 0 0)
(8.13152e-14 2.46756e-15 0 -5.42101e-14 -6.75218e-15 0 0 0 0)
(-2.71051e-14 -1.74223e-14 0 0 5.67224e-15 0 0 0 0)
(0 -1.64397e-14 0 0 1.02938e-14 0 0 0 0)
(0 1.7299e-15 0 0 4.48963e-15 0 0 0 0)
(0 1.49219e-14 0 -8.13152e-14 -2.14316e-15 0 0 0 0)
(2.71051e-14 6.10238e-15 0 -8.13152e-14 -1.8438e-15 0 0 0 0)
(0 1.44601e-14 0 0 -4.41005e-15 0 0 0 0)
(5.42101e-14 2.05646e-14 0 -5.42101e-14 -2.39249e-14 0 0 0 0)
(2.71051e-14 -1.24315e-14 0 5.42101e-14 -3.06329e-14 0 0 0 0)
(2.71051e-14 -1.64783e-14 0 -2.71051e-14 -2.15307e-14 0 0 0 0)
(0 1.11762e-14 0 0 -1.37046e-15 0 0 0 0)
(-5.42101e-14 9.11649e-15 0 0 8.16479e-15 0 0 0 0)
(0 -8.50115e-15 0 2.71051e-14 5.20736e-15 0 0 0 0)
(2.71051e-14 -9.73477e-15 0 0 6.21905e-15 0 0 0 0)
(-2.71051e-14 7.93312e-15 0 2.71051e-14 8.18586e-15 0 0 0 0)
(4.22839e-12 -3.92898e-13 0 3.52366e-13 2.07283e-12 0 0 0 0)
(-4.71628e-12 4.06126e-13 0 8.13152e-14 -4.49589e-13 0 0 0 0)
(9.21572e-13 -5.59349e-14 0 1.0842e-13 8.08906e-14 0 0 0 0)
(-4.06576e-13 2.12549e-14 0 0 -8.20799e-15 0 0 0 0)
(2.71051e-14 4.07305e-15 0 5.42101e-14 1.39098e-14 0 0 0 0)
(-2.71051e-14 4.92155e-15 0 5.42101e-14 -1.53306e-15 0 0 0 0)
(2.71051e-14 -6.50153e-15 0 2.71051e-14 4.44229e-15 0 0 0 0)
(0 -9.50836e-15 0 5.42101e-14 7.2147e-15 0 0 0 0)
(-5.42101e-14 -7.13893e-15 0 8.13152e-14 1.55679e-14 0 0 0 0)
(-5.42101e-14 -3.92148e-16 0 8.13152e-14 4.51549e-15 0 0 0 0)
(5.42101e-14 1.14717e-14 0 5.42101e-14 7.23773e-16 0 0 0 0)
(-5.42101e-14 6.45325e-15 0 5.42101e-14 1.06997e-14 0 0 0 0)
(0 -3.90327e-15 0 0 -1.55149e-14 0 0 0 0)
(5.42101e-14 -6.65389e-15 0 0 -3.16425e-14 0 0 0 0)
(2.71051e-14 7.97469e-15 0 0 -1.0837e-14 0 0 0 0)
(0 2.734e-14 0 -1.0842e-13 -6.13882e-15 0 0 0 0)
(0 1.42921e-14 0 -8.13152e-14 -1.00406e-14 0 0 0 0)
(-2.71051e-14 -1.02021e-14 0 0 -6.07839e-17 0 0 0 0)
(0 -1.01132e-14 0 0 1.5799e-14 0 0 0 0)
(0 -6.60788e-16 0 0 1.02136e-14 0 0 0 0)
(-3.7405e-12 6.76429e-13 0 -6.77626e-13 -1.71385e-13 0 0 0 0)
(4.3097e-12 -7.99416e-13 0 1.0842e-13 9.39031e-14 0 0 0 0)
(-8.40257e-13 1.41003e-13 0 -5.42101e-14 3.55638e-15 0 0 0 0)
(3.25261e-13 -1.57019e-14 0 2.71051e-14 1.94595e-14 0 0 0 0)
(-5.42101e-14 2.59839e-15 0 0 1.06931e-14 0 0 0 0)
(5.42101e-14 -6.99995e-15 0 0 -1.33759e-15 0 0 0 0)
(-2.71051e-14 -8.67458e-15 0 2.71051e-14 -2.79723e-15 0 0 0 0)
(0 -5.31408e-15 0 0 -3.30418e-15 0 0 0 0)
(0 -9.6931e-16 0 2.71051e-14 -4.76085e-15 0 0 0 0)
(-2.71051e-14 7.77638e-17 0 5.42101e-14 9.37903e-15 0 0 0 0)
(0 1.22866e-14 0 5.42101e-14 1.56899e-14 0 0 0 0)
(0 -1.7786e-15 0 2.71051e-14 1.42239e-14 0 0 0 0)
(0 -2.17776e-14 0 1.0842e-13 1.09532e-14 0 0 0 0)
(0 -7.75358e-15 0 2.71051e-14 1.47849e-14 0 0 0 0)
(-5.42101e-14 9.02537e-15 0 2.71051e-14 2.36514e-14 0 0 0 0)
(-2.71051e-14 1.19725e-14 0 5.42101e-14 1.20805e-14 0 0 0 0)
(2.71051e-14 1.51945e-14 0 0 -1.23639e-14 0 0 0 0)
(8.13152e-14 1.73384e-14 0 -8.13152e-14 -1.76215e-14 0 0 0 0)
(0 5.396e-16 0 0 1.80339e-15 0 0 0 0)
(-2.71051e-14 -1.80794e-14 0 0 5.40233e-15 0 0 0 0)
(3.63208e-12 -4.70381e-13 0 5.42101e-14 -3.27284e-13 0 0 0 0)
(-4.06576e-12 5.81068e-13 0 -1.0842e-13 -2.22277e-14 0 0 0 0)
(8.13152e-13 -1.30378e-13 0 -5.42101e-14 -1.46834e-15 0 0 0 0)
(-3.79471e-13 2.83916e-14 0 -5.42101e-14 -5.33009e-15 0 0 0 0)
(8.13152e-14 -1.67241e-14 0 -1.0842e-13 -8.03923e-16 0 0 0 0)
(-2.71051e-14 -8.56878e-15 0 -5.42101e-14 1.41726e-16 0 0 0 0)
(2.71051e-14 -8.46812e-15 0 -5.42101e-14 -4.09601e-15 0 0 0 0)
(-2.71051e-14 -1.1472e-14 0 -5.42101e-14 4.15439e-15 0 0 0 0)
(0 5.54427e-15 0 -5.42101e-14 7.54884e-16 0 0 0 0)
(2.71051e-14 2.00586e-14 0 -1.0842e-13 4.73777e-15 0 0 0 0)
(0 1.63165e-14 0 -5.42101e-14 3.55433e-15 0 0 0 0)
(-2.71051e-14 1.71653e-15 0 -8.13152e-14 -3.6028e-15 0 0 0 0)
(0 -3.3423e-15 0 -5.42101e-14 2.51762e-15 0 0 0 0)
(-2.71051e-14 6.04436e-15 0 -8.13152e-14 1.09186e-14 0 0 0 0)
(2.71051e-14 5.27034e-15 0 -8.13152e-14 1.10669e-14 0 0 0 0)
(0 -8.67534e-15 0 0 1.40099e-14 0 0 0 0)
(-1.0842e-13 -1.541e-14 0 5.42101e-14 1.60733e-14 0 0 0 0)
(0 3.96525e-15 0 0 -4.2718e-15 0 0 0 0)
(5.42101e-14 1.29107e-14 0 0 -1.92994e-14 0 0 0 0)
(0 -7.86651e-15 0 -2.71051e-14 -4.69275e-15 0 0 0 0)
(-3.7676e-12 3.26917e-13 0 2.1684e-13 -3.9971e-14 0 0 0 0)
(4.20128e-12 -4.73601e-13 0 -2.71051e-14 -2.81436e-14 0 0 0 0)
(-8.40257e-13 1.57901e-13 0 -5.42101e-14 -1.02133e-15 0 0 0 0)
(3.52366e-13 -1.50375e-14 0 -8.13152e-14 -1.04767e-14 0 0 0 0)
(-8.13152e-14 8.0702e-15 0 0 -1.49261e-14 0 0 0 0)
(5.42101e-14 -1.0292e-14 0 -5.42101e-14 -5.35449e-15 0 0 0 0)
(0 -4.66192e-15 0 0 -3.85115e-15 0 0 0 0)
(0 -4.63191e-16 0 -5.42101e-14 6.26132e-15 0 0 0 0)
(-5.42101e-14 -3.85925e-16 0 -5.42101e-14 1.058e-14 0 0 0 0)
(0 2.87721e-15 0 5.42101e-14 7.90922e-16 0 0 0 0)
(0 3.94602e-15 0 -5.42101e-14 -5.96922e-15 0 0 0 0)
(5.42101e-14 -2.81531e-15 0 0 -1.08548e-14 0 0 0 0)
(0 -7.25621e-15 0 -5.42101e-14 -6.6817e-16 0 0 0 0)
(0 7.95677e-16 0 5.42101e-14 1.9414e-15 0 0 0 0)
(0 1.21167e-14 0 0 -8.16887e-15 0 0 0 0)
(2.71051e-14 1.6979e-14 0 -8.13152e-14 -1.30156e-14 0 0 0 0)
(8.13152e-14 -3.08717e-15 0 2.71051e-14 -7.9895e-15 0 0 0 0)
(0 -1.80343e-14 0 5.42101e-14 2.86245e-15 0 0 0 0)
(0 1.18656e-16 0 2.71051e-14 -3.86221e-15 0 0 0 0)
(-2.71051e-14 5.91273e-15 0 0 -3.60413e-15 0 0 0 0)
(3.82181e-12 -5.38495e-13 0 1.0571e-12 4.20665e-13 0 0 0 0)
(-4.36391e-12 6.20018e-13 0 -1.0842e-13 1.79651e-14 0 0 0 0)
(8.40257e-13 -1.12712e-13 0 2.1684e-13 6.47555e-15 0 0 0 0)
(-3.52366e-13 1.44868e-14 0 1.35525e-13 -7.7468e-15 0 0 0 0)
(1.0842e-13 -1.16019e-14 0 1.0842e-13 -1.60664e-14 0 0 0 0)
(0 2.50621e-15 0 1.0842e-13 -1.2487e-14 0 0 0 0)
(0 3.14769e-15 0 5.42101e-14 7.11623e-15 0 0 0 0)
(-2.71051e-14 2.95919e-15 0 8.13152e-14 1.89305e-14 0 0 0 0)
(2.71051e-14 7.38749e-17 0 5.42101e-14 1.9702e-14 0 0 0 0)
(2.71051e-14 3.50935e-15 0 0 9.78583e-15 0 0 0 0)
(-2.71051e-14 4.6708e-15 0 0 -2.37776e-15 0 0 0 0)
(0 7.01757e-15 0 5.42101e-14 -1.2551e-14 0 0 0 0)
(0 9.45391e-15 0 5.42101e-14 9.31834e-16 0 0 0 0)
(-2.71051e-14 -1.45635e-15 0 2.71051e-14 1.3355e-14 0 0 0 0)
(-2.71051e-14 -9.68664e-15 0 5.42101e-14 1.38521e-14 0 0 0 0)
(0 -8.49596e-15 0 8.13152e-14 2.59863e-16 0 0 0 0)
(0 4.68028e-16 0 0 -1.79947e-14 0 0 0 0)
(0 8.09253e-15 0 0 -5.92139e-15 0 0 0 0)
(0 6.4441e-15 0 -2.71051e-14 7.04065e-15 0 0 0 0)
(0 -4.00175e-16 0 0 2.39473e-15 0 0 0 0)
(-2.79182e-12 7.65548e-13 0 -1.27394e-12 -3.04331e-13 0 0 0 0)
(3.33392e-12 -8.8779e-13 0 2.71051e-13 7.56093e-14 0 0 0 0)
(-6.23416e-13 1.32189e-13 0 -1.0842e-13 -3.96668e-15 0 0 0 0)
(2.43945e-13 -3.75795e-14 0 0 1.15102e-14 0 0 0 0)
(-1.0842e-13 3.32995e-15 0 -2.71051e-14 8.64002e-15 0 0 0 0)
(0 1.28906e-14 0 0 1.51691e-14 0 0 0 0)
(-5.42101e-14 2.67557e-14 0 -5.42101e-14 2.23514e-14 0 0 0 0)
(0 1.21225e-14 0 -2.71051e-14 2.71027e-14 0 0 0 0)
(-5.42101e-14 -9.53064e-15 0 0 3.26949e-14 0 0 0 0)
(-2.71051e-14 -1.92025e-14 0 -5.42101e-14 1.34127e-14 0 0 0 0)
(0 -1.83908e-14 0 0 -7.72463e-15 0 0 0 0)
(2.71051e-14 4.94282e-16 0 -5.42101e-14 -8.02188e-15 0 0 0 0)
(0 1.86497e-14 0 0 -1.14995e-14 0 0 0 0)
(5.42101e-14 1.37159e-14 0 -2.71051e-14 -1.30014e-14 0 0 0 0)
(0 -9.78426e-16 0 0 -1.59191e-15 0 0 0 0)
(2.71051e-14 -1.48678e-14 0 0 3.02231e-15 0 0 0 0)
(0 -9.26841e-15 0 2.71051e-14 1.25392e-14 0 0 0 0)
(-2.71051e-14 7.00105e-15 0 0 1.35623e-14 0 0 0 0)
(0 8.43477e-15 0 -5.42101e-14 1.00676e-14 0 0 0 0)
(0 -3.52266e-15 0 0 1.17196e-15 0 0 0 0)
(2.76472e-12 -7.67217e-13 0 3.52366e-13 -2.20923e-13 0 0 0 0)
(-3.17129e-12 9.20382e-13 0 -2.1684e-13 2.98044e-14 0 0 0 0)
(5.69206e-13 -1.76811e-13 0 -1.0842e-13 1.57918e-14 0 0 0 0)
(-2.43945e-13 2.70935e-14 0 -1.35525e-13 1.56298e-14 0 0 0 0)
(8.13152e-14 -7.94299e-15 0 -8.13152e-14 1.40372e-14 0 0 0 0)
(0 1.62176e-14 0 -1.35525e-13 1.73932e-14 0 0 0 0)
(0 1.50813e-14 0 -8.13152e-14 -5.50166e-15 0 0 0 0)
(0 1.33027e-14 0 -8.13152e-14 -2.35441e-14 0 0 0 0)
(0 -1.36162e-14 0 -5.42101e-14 -2.22579e-14 0 0 0 0)
(2.71051e-14 -3.69102e-14 0 5.42101e-14 -1.12941e-14 0 0 0 0)
(2.71051e-14 -1.67638e-14 0 5.42101e-14 2.74432e-15 0 0 0 0)
(-5.42101e-14 3.24273e-15 0 0 1.95576e-14 0 0 0 0)
(0 4.47437e-15 0 0 8.6399e-15 0 0 0 0)
(0 8.45121e-15 0 -5.42101e-14 -6.65169e-15 0 0 0 0)
(0 6.33709e-15 0 -5.42101e-14 -1.65411e-14 0 0 0 0)
(0 5.63511e-15 0 -5.42101e-14 -1.11922e-14 0 0 0 0)
(2.71051e-14 1.1008e-14 0 -1.0842e-13 9.97433e-16 0 0 0 0)
(-2.71051e-14 5.62097e-15 0 -5.42101e-14 4.75431e-15 0 0 0 0)
(0 -5.94624e-15 0 0 -1.36774e-15 0 0 0 0)
(0 -1.16397e-14 0 0 -7.57903e-15 0 0 0 0)
(-2.62919e-12 5.74429e-13 0 -8.94467e-13 5.25625e-13 0 0 0 0)
(2.84603e-12 -6.51076e-13 0 8.13152e-14 -1.0551e-13 0 0 0 0)
(-5.14996e-13 1.18014e-13 0 -1.35525e-13 1.01982e-14 0 0 0 0)
(2.43945e-13 -3.9334e-14 0 2.71051e-14 -4.04644e-15 0 0 0 0)
(-1.35525e-13 5.09335e-15 0 -2.71051e-14 2.04979e-14 0 0 0 0)
(0 -6.64827e-15 0 0 3.26073e-15 0 0 0 0)
(5.42101e-14 -1.41816e-14 0 0 -2.34325e-14 0 0 0 0)
(5.42101e-14 -4.63368e-15 0 2.71051e-14 -3.59793e-14 0 0 0 0)
(2.71051e-14 2.71935e-15 0 0 -3.49618e-14 0 0 0 0)
(0 5.79969e-15 0 0 -3.86181e-15 0 0 0 0)
(-2.71051e-14 1.24608e-14 0 -5.42101e-14 1.25064e-14 0 0 0 0)
(2.71051e-14 6.38986e-15 0 0 3.80127e-15 0 0 0 0)
(0 -7.55951e-15 0 5.42101e-14 6.68443e-15 0 0 0 0)
(-2.71051e-14 -1.14651e-14 0 5.42101e-14 7.50662e-15 0 0 0 0)
(0 -5.51899e-15 0 8.13152e-14 2.63615e-15 0 0 0 0)
(0 2.67072e-15 0 5.42101e-14 1.77243e-15 0 0 0 0)
(0 6.67814e-15 0 0 -9.73749e-15 0 0 0 0)
(2.71051e-14 4.63588e-15 0 0 -2.41133e-14 0 0 0 0)
(5.42101e-14 -3.89857e-15 0 5.42101e-14 -2.58096e-14 0 0 0 0)
(0 5.42411e-15 0 2.71051e-14 -8.17293e-15 0 0 0 0)
(1.95156e-12 -3.47102e-13 0 5.69206e-13 7.07939e-14 0 0 0 0)
(-2.35814e-12 4.04955e-13 0 -2.71051e-14 -2.64306e-14 0 0 0 0)
(5.14996e-13 -7.53474e-14 0 1.35525e-13 -1.81707e-14 0 0 0 0)
(-1.89735e-13 3.73932e-14 0 5.42101e-14 -1.37191e-14 0 0 0 0)
(8.13152e-14 -6.35824e-16 0 0 -1.01532e-14 0 0 0 0)
(0 -2.77128e-14 0 8.13152e-14 -2.11156e-14 0 0 0 0)
(0 -2.41587e-14 0 8.13152e-14 -2.11691e-14 0 0 0 0)
(2.71051e-14 1.77343e-15 0 1.0842e-13 -1.51683e-14 0 0 0 0)
(-2.71051e-14 1.85013e-14 0 8.13152e-14 3.57648e-15 0 0 0 0)
(0 1.0558e-14 0 2.71051e-14 2.4059e-15 0 0 0 0)
(2.71051e-14 -9.10068e-15 0 1.0842e-13 -8.06358e-15 0 0 0 0)
(2.71051e-14 -2.57923e-15 0 1.0842e-13 -2.1132e-14 0 0 0 0)
(2.71051e-14 8.17972e-15 0 0 -7.66568e-15 0 0 0 0)
(0 4.40294e-15 0 5.42101e-14 3.33689e-15 0 0 0 0)
(0 6.02901e-16 0 5.42101e-14 1.75259e-14 0 0 0 0)
(-2.71051e-14 -6.73853e-15 0 5.42101e-14 1.62498e-14 0 0 0 0)
(-5.42101e-14 -1.48777e-14 0 8.13152e-14 1.60782e-14 0 0 0 0)
(0 -1.04511e-14 0 5.42101e-14 2.78372e-15 0 0 0 0)
(2.71051e-14 9.99412e-15 0 2.71051e-14 -4.78156e-15 0 0 0 0)
(-2.71051e-14 2.23428e-14 0 0 4.48153e-15 0 0 0 0)
(-2.1413e-12 6.18793e-13 0 -7.31836e-13 -2.18945e-13 0 0 0 0)
(2.41235e-12 -7.4004e-13 0 1.35525e-13 -2.03126e-14 0 0 0 0)
(-4.87891e-13 1.30726e-13 0 -2.71051e-14 -7.52434e-15 0 0 0 0)
(1.6263e-13 -3.13166e-14 0 -5.42101e-14 -1.53366e-14 0 0 0 0)
(-2.71051e-14 -2.30317e-15 0 0 -2.97676e-14 0 0 0 0)
(1.0842e-13 -1.76642e-14 0 0 -3.12258e-14 0 0 0 0)
(2.71051e-14 -8.23425e-15 0 -5.42101e-14 -1.09009e-14 0 0 0 0)
(0 2.01119e-14 0 -1.0842e-13 -8.28382e-15 0 0 0 0)
(0 2.02936e-14 0 -1.0842e-13 -1.73991e-14 0 0 0 0)
(0 -5.84036e-15 0 -2.71051e-14 -1.77154e-14 0 0 0 0)
(0 -1.10771e-14 0 0 -5.06475e-15 0 0 0 0)
(0 6.78776e-15 0 -5.42101e-14 1.11405e-14 0 0 0 0)
(0 1.69094e-14 0 -1.0842e-13 7.83892e-15 0 0 0 0)
(0 1.37265e-14 0 -5.42101e-14 -1.13408e-15 0 0 0 0)
(0 7.39391e-15 0 -8.13152e-14 -8.19554e-16 0 0 0 0)
(0 1.22301e-15 0 0 5.95681e-15 0 0 0 0)
(0 -6.78792e-15 0 -2.71051e-14 1.14313e-14 0 0 0 0)
(0 -1.62238e-14 0 0 1.56894e-14 0 0 0 0)
(-2.71051e-14 -2.20076e-15 0 0 1.48837e-14 0 0 0 0)
(-2.71051e-14 5.72413e-15 0 -2.71051e-14 4.9968e-15 0 0 0 0)
(1.38236e-12 -5.8636e-13 0 1.51788e-12 -2.79159e-13 0 0 0 0)
(-1.68051e-12 6.16376e-13 0 -2.43945e-13 5.99207e-14 0 0 0 0)
(3.52366e-13 -7.03714e-14 0 1.6263e-13 -9.77955e-15 0 0 0 0)
(-1.89735e-13 1.515e-14 0 0 9.64125e-15 0 0 0 0)
(5.42101e-14 -1.6525e-14 0 2.71051e-14 -2.86475e-15 0 0 0 0)
(0 -8.84614e-15 0 0 -3.90522e-15 0 0 0 0)
(-5.42101e-14 -1.21671e-15 0 0 9.9313e-15 0 0 0 0)
(-5.42101e-14 -4.72474e-15 0 0 1.41191e-14 0 0 0 0)
(1.0842e-13 9.06978e-15 0 0 -2.03938e-14 0 0 0 0)
(2.71051e-14 2.28923e-14 0 -8.13152e-14 -1.72458e-14 0 0 0 0)
(0 1.97552e-14 0 -1.0842e-13 -9.12174e-15 0 0 0 0)
(-2.71051e-14 1.03244e-14 0 -8.13152e-14 4.29808e-16 0 0 0 0)
(0 -4.09484e-15 0 0 -9.40635e-15 0 0 0 0)
(0 -4.25554e-15 0 -5.42101e-14 -1.26036e-14 0 0 0 0)
(2.71051e-14 7.6938e-15 0 -5.42101e-14 -1.43021e-14 0 0 0 0)
(0 5.51228e-15 0 -5.42101e-14 2.25572e-16 0 0 0 0)
(0 -5.14508e-15 0 0 -9.77393e-15 0 0 0 0)
(5.42101e-14 -6.99864e-15 0 -5.42101e-14 -1.70777e-14 0 0 0 0)
(0 -6.98513e-16 0 0 -4.53356e-15 0 0 0 0)
(0 2.46223e-15 0 5.42101e-14 1.93204e-15 0 0 0 0)
(-7.86047e-13 3.99554e-13 0 -4.60786e-13 8.93463e-13 0 0 0 0)
(1.00289e-12 -4.70661e-13 0 2.1684e-13 -5.22676e-14 0 0 0 0)
(-2.71051e-13 8.04464e-14 0 2.71051e-14 3.37878e-14 0 0 0 0)
(1.0842e-13 -2.44018e-14 0 1.0842e-13 -1.18171e-14 0 0 0 0)
(-2.71051e-14 -1.58496e-14 0 1.35525e-13 -4.17695e-15 0 0 0 0)
(0 -4.8681e-15 0 5.42101e-14 1.44505e-14 0 0 0 0)
(2.71051e-14 9.79008e-15 0 1.0842e-13 2.97805e-14 0 0 0 0)
(-2.71051e-14 -1.02132e-14 0 1.0842e-13 4.08698e-14 0 0 0 0)
(-8.13152e-14 -1.10713e-14 0 8.13152e-14 3.08276e-14 0 0 0 0)
(-2.71051e-14 5.43172e-15 0 8.13152e-14 2.02171e-15 0 0 0 0)
(0 6.59848e-15 0 5.42101e-14 -9.099e-15 0 0 0 0)
(2.71051e-14 6.50315e-15 0 2.71051e-14 -1.49822e-14 0 0 0 0)
(8.13152e-14 3.87598e-15 0 5.42101e-14 -1.21507e-14 0 0 0 0)
(0 8.83071e-15 0 5.42101e-14 4.40469e-15 0 0 0 0)
(-2.71051e-14 2.02231e-14 0 0 -3.931e-16 0 0 0 0)
(0 5.75123e-15 0 -5.42101e-14 -9.18538e-15 0 0 0 0)
(0 -2.40912e-14 0 0 -8.60129e-15 0 0 0 0)
(0 -1.09835e-14 0 0 5.41826e-17 0 0 0 0)
(5.42101e-14 1.6809e-14 0 0 6.02304e-15 0 0 0 0)
(-5.42101e-14 8.32566e-15 0 -2.71051e-14 -2.20581e-15 0 0 0 0)
(1.0842e-12 2.54836e-13 0 2.1684e-13 4.6893e-13 0 0 0 0)
(-1.21973e-12 -2.43299e-13 0 -2.1684e-13 -1.37853e-13 0 0 0 0)
(3.25261e-13 -2.99209e-14 0 -5.42101e-14 -1.93379e-15 0 0 0 0)
(-1.35525e-13 -2.28147e-14 0 -2.71051e-14 -2.74158e-14 0 0 0 0)
(5.42101e-14 9.74257e-15 0 -5.42101e-14 -3.94811e-15 0 0 0 0)
(-2.71051e-14 2.51113e-14 0 -5.42101e-14 1.86842e-14 0 0 0 0)
(-2.71051e-14 2.52026e-14 0 -1.0842e-13 2.14802e-14 0 0 0 0)
(-2.71051e-14 -3.67768e-15 0 -5.42101e-14 1.08935e-14 0 0 0 0)
(2.71051e-14 -2.97783e-14 0 -5.42101e-14 1.63647e-14 0 0 0 0)
(2.71051e-14 -1.70343e-14 0 0 6.21202e-15 0 0 0 0)
(-2.71051e-14 2.75126e-15 0 -5.42101e-14 1.49562e-14 0 0 0 0)
(-5.42101e-14 7.27276e-15 0 5.42101e-14 1.16806e-14 0 0 0 0)
(-5.42101e-14 1.5292e-14 0 -8.13152e-14 1.25627e-14 0 0 0 0)
(-2.71051e-14 7.50205e-15 0 0 9.05856e-15 0 0 0 0)
(0 -5.89628e-15 0 0 2.39976e-15 0 0 0 0)
(2.71051e-14 -2.69591e-15 0 0 -2.54306e-14 0 0 0 0)
(8.13152e-14 4.09449e-15 0 0 -1.02019e-14 0 0 0 0)
(-2.71051e-14 7.62569e-15 0 5.42101e-14 1.86465e-14 0 0 0 0)
(-5.42101e-14 -2.95851e-15 0 -2.71051e-14 1.25038e-14 0 0 0 0)
(5.42101e-14 -1.355e-15 0 -2.71051e-14 -8.74576e-15 0 0 0 0)
(-7.86047e-13 7.30631e-13 0 -5.69206e-13 -3.01926e-12 0 0 0 0)
(7.31836e-13 -9.41524e-13 0 2.71051e-13 5.12358e-13 0 0 0 0)
(-8.13152e-14 1.90883e-13 0 0 -1.41451e-13 0 0 0 0)
(8.13152e-14 -2.64161e-14 0 2.71051e-14 4.115e-14 0 0 0 0)
(-2.71051e-14 3.02503e-14 0 2.71051e-14 1.02415e-14 0 0 0 0)
(-5.42101e-14 2.05602e-14 0 5.42101e-14 7.84429e-15 0 0 0 0)
(0 1.99946e-15 0 5.42101e-14 -1.085e-14 0 0 0 0)
(0 -1.53287e-14 0 5.42101e-14 -2.23537e-14 0 0 0 0)
(5.42101e-14 -1.57528e-14 0 1.0842e-13 -1.04604e-14 0 0 0 0)
(0 4.02315e-15 0 2.71051e-14 6.23357e-15 0 0 0 0)
(0 1.20671e-14 0 5.42101e-14 2.00736e-15 0 0 0 0)
(0 4.10966e-15 0 0 -2.1953e-15 0 0 0 0)
(2.71051e-14 1.25394e-15 0 1.0842e-13 -4.47749e-15 0 0 0 0)
(8.13152e-14 -1.33219e-15 0 5.42101e-14 -1.67588e-14 0 0 0 0)
(0 -1.42661e-14 0 1.0842e-13 -3.2931e-15 0 0 0 0)
(-2.71051e-14 -6.85042e-15 0 1.0842e-13 -1.30233e-15 0 0 0 0)
(0 1.99859e-14 0 2.71051e-14 2.27038e-15 0 0 0 0)
(0 1.17222e-14 0 0 -2.27366e-15 0 0 0 0)
(0 -1.05832e-14 0 2.71051e-14 -9.29198e-15 0 0 0 0)
(0 4.56761e-15 0 0 1.28482e-15 0 0 0 0)
(7.86047e-13 -2.25207e-12 0 8.13152e-14 1.81988e-12 0 0 0 0)
(-5.96311e-13 2.63451e-12 0 -8.13152e-14 -2.98444e-13 0 0 0 0)
(5.42101e-14 -5.01129e-13 0 -5.42101e-14 1.26893e-13 0 0 0 0)
(-5.42101e-14 1.28877e-13 0 -5.42101e-14 1.18015e-14 0 0 0 0)
(0 -2.35631e-14 0 -5.42101e-14 2.44319e-14 0 0 0 0)
(0 4.0198e-15 0 -5.42101e-14 5.11431e-15 0 0 0 0)
(0 -4.99544e-15 0 0 -1.48073e-16 0 0 0 0)
(0 -3.28808e-15 0 -5.42101e-14 8.11029e-15 0 0 0 0)
(0 -1.191e-15 0 -5.42101e-14 1.84687e-14 0 0 0 0)
(-5.42101e-14 -4.56647e-15 0 -2.71051e-14 2.50541e-14 0 0 0 0)
(-2.71051e-14 -5.67761e-15 0 0 1.9012e-14 0 0 0 0)
(0 7.8791e-16 0 0 1.86647e-14 0 0 0 0)
(0 7.28491e-16 0 -2.71051e-14 1.41144e-14 0 0 0 0)
(-2.71051e-14 8.68643e-15 0 -5.42101e-14 1.66822e-14 0 0 0 0)
(-2.71051e-14 9.56024e-15 0 -5.42101e-14 6.76017e-15 0 0 0 0)
(-2.71051e-14 2.86757e-15 0 -5.42101e-14 2.13881e-14 0 0 0 0)
(-2.71051e-14 3.12316e-15 0 -2.71051e-14 1.0743e-14 0 0 0 0)
(2.71051e-14 -3.93667e-15 0 0 -1.72095e-15 0 0 0 0)
(0 5.9997e-16 0 -2.71051e-14 2.95749e-15 0 0 0 0)
(-2.71051e-14 6.65217e-15 0 0 8.26229e-15 0 0 0 0)
)
;

boundaryField
{
    movingWall
    {
        type            extrapolatedCalculated;
        value           nonuniform List<tensor> 
20
(
(7.86047e-13 -2.25207e-12 0 -3.10862e-12 1.10931e-11 0 0 0 0)
(-5.96311e-13 2.63451e-12 0 -4.44089e-14 -2.0848e-12 0 0 0 0)
(5.42101e-14 -5.01129e-13 0 -7.10543e-13 5.55023e-13 0 0 0 0)
(-5.42101e-14 1.28877e-13 0 -2.66454e-13 -8.02839e-14 0 0 0 0)
(0 -2.35631e-14 0 -3.9968e-13 3.95134e-14 0 0 0 0)
(0 4.0198e-15 0 -3.9968e-13 1.39685e-14 0 0 0 0)
(0 -4.99544e-15 0 -3.55271e-13 2.34342e-14 0 0 0 0)
(0 -3.28808e-15 0 -3.55271e-13 3.39502e-14 0 0 0 0)
(0 -1.191e-15 0 -3.9968e-13 3.65865e-14 0 0 0 0)
(-5.42101e-14 -4.56647e-15 0 -2.66454e-13 3.87143e-14 0 0 0 0)
(-2.71051e-14 -5.67761e-15 0 -2.22045e-13 5.48524e-14 0 0 0 0)
(0 7.8791e-16 0 -2.22045e-13 6.14247e-14 0 0 0 0)
(0 7.28491e-16 0 -2.66454e-13 5.17007e-14 0 0 0 0)
(-2.71051e-14 8.68643e-15 0 -1.77636e-13 5.85107e-14 0 0 0 0)
(-2.71051e-14 9.56024e-15 0 -1.33227e-13 1.6955e-14 0 0 0 0)
(-2.71051e-14 2.86757e-15 0 -8.88178e-14 2.02698e-14 0 0 0 0)
(-2.71051e-14 3.12316e-15 0 -4.44089e-14 5.48471e-15 0 0 0 0)
(2.71051e-14 -3.93667e-15 0 0 7.77714e-15 0 0 0 0)
(0 5.9997e-16 0 -8.88178e-14 2.12314e-14 0 0 0 0)
(-2.71051e-14 6.65217e-15 0 0 5.37726e-15 0 0 0 0)
)
;
    }
    fixedWalls
    {
        type            extrapolatedCalculated;
        value           nonuniform List<tensor> 
60
(
(-7.10543e-13 1.13174e-11 0 2.43945e-13 6.07535e-12 0 0 0 0)
(1.68754e-12 1.2984e-11 0 -1.84314e-12 -8.72661e-12 0 0 0 0)
(-7.99361e-12 -2.3589e-11 0 3.7405e-12 5.71295e-13 0 0 0 0)
(1.65201e-11 1.52692e-11 0 -2.98156e-12 4.64479e-12 0 0 0 0)
(-1.98952e-11 -5.00988e-12 0 1.02999e-12 -4.25575e-12 0 0 0 0)
(2.06501e-11 -1.75384e-12 0 3.52366e-13 2.07283e-12 0 0 0 0)
(-1.85629e-11 3.28146e-12 0 -6.77626e-13 -1.71385e-13 0 0 0 0)
(1.79412e-11 -2.43939e-12 0 5.42101e-14 -3.27284e-13 0 0 0 0)
(-1.83853e-11 1.97232e-12 0 2.1684e-13 -3.9971e-14 0 0 0 0)
(1.89182e-11 -2.59927e-12 0 1.0571e-12 4.20665e-13 0 0 0 0)
(-1.4122e-11 3.65498e-12 0 -1.27394e-12 -3.04331e-13 0 0 0 0)
(1.37224e-11 -3.8166e-12 0 3.52366e-13 -2.20923e-13 0 0 0 0)
(-1.26121e-11 2.77129e-12 0 -8.94467e-13 5.25625e-13 0 0 0 0)
(1.01696e-11 -1.71409e-12 0 5.69206e-13 7.07939e-14 0 0 0 0)
(-1.03917e-11 3.05447e-12 0 -7.31836e-13 -2.18945e-13 0 0 0 0)
(7.23865e-12 -2.58988e-12 0 1.51788e-12 -2.79159e-13 0 0 0 0)
(-4.35207e-12 1.93783e-12 0 -4.60786e-13 8.93463e-13 0 0 0 0)
(5.4623e-12 9.83975e-13 0 2.1684e-13 4.6893e-13 0 0 0 0)
(-3.4639e-12 3.81355e-12 0 -5.69206e-13 -3.01926e-12 0 0 0 0)
(3.10862e-12 -1.10931e-11 0 8.13152e-14 1.81988e-12 0 0 0 0)
(-4.44089e-14 -2.05502e-14 0 0 6.14983e-15 0 0 0 0)
(8.88178e-14 -4.04907e-15 0 -5.42101e-14 -1.23262e-14 0 0 0 0)
(8.88178e-14 2.87547e-14 0 0 -9.41549e-15 0 0 0 0)
(0 3.36129e-14 0 5.42101e-14 2.26634e-15 0 0 0 0)
(-4.44089e-14 1.96893e-14 0 2.71051e-14 8.18586e-15 0 0 0 0)
(-4.44089e-14 8.6946e-16 0 0 1.02136e-14 0 0 0 0)
(-4.44089e-14 -2.1165e-14 0 0 5.40233e-15 0 0 0 0)
(0 -2.07399e-14 0 -2.71051e-14 -4.69275e-15 0 0 0 0)
(0 -2.39405e-15 0 0 -3.60413e-15 0 0 0 0)
(0 -6.32335e-15 0 0 2.39473e-15 0 0 0 0)
(0 -1.1973e-14 0 0 1.17196e-15 0 0 0 0)
(0 -1.10112e-14 0 0 -7.57903e-15 0 0 0 0)
(0 1.83432e-14 0 2.71051e-14 -8.17293e-15 0 0 0 0)
(-4.44089e-14 2.16805e-14 0 0 4.48153e-15 0 0 0 0)
(0 4.17026e-16 0 -2.71051e-14 4.9968e-15 0 0 0 0)
(0 1.69329e-15 0 5.42101e-14 1.93204e-15 0 0 0 0)
(-1.33227e-13 -7.31113e-15 0 -2.71051e-14 -2.20581e-15 0 0 0 0)
(8.88178e-14 1.05165e-14 0 -2.71051e-14 -8.74576e-15 0 0 0 0)
(0 2.76719e-14 0 0 1.28482e-15 0 0 0 0)
(0 5.37726e-15 0 0 8.26229e-15 0 0 0 0)
(-5.42101e-14 2.30611e-12 0 -7.10543e-13 1.13174e-11 0 0 0 0)
(2.71051e-13 -2.70187e-12 0 5.77316e-13 -2.09299e-12 0 0 0 0)
(-1.0842e-13 5.02177e-13 0 2.66454e-13 5.09927e-13 0 0 0 0)
(0 -1.21835e-13 0 1.77636e-13 -8.42815e-14 0 0 0 0)
(0 2.76814e-14 0 2.66454e-13 2.25864e-14 0 0 0 0)
(0 -1.0449e-15 0 2.22045e-13 2.6444e-14 0 0 0 0)
(0 -1.315e-14 0 2.22045e-13 1.84068e-14 0 0 0 0)
(0 -7.57321e-15 0 2.22045e-13 -2.61558e-14 0 0 0 0)
(0 9.36187e-15 0 2.22045e-13 -1.1886e-14 0 0 0 0)
(-2.71051e-14 1.10603e-14 0 1.77636e-13 1.12916e-14 0 0 0 0)
(0 6.44089e-15 0 1.77636e-13 3.23552e-14 0 0 0 0)
(0 -2.99809e-15 0 2.22045e-13 3.70552e-14 0 0 0 0)
(-5.42101e-14 -1.26073e-14 0 8.88178e-14 2.03628e-14 0 0 0 0)
(2.71051e-14 -3.6066e-16 0 4.44089e-14 -1.33741e-14 0 0 0 0)
(-2.71051e-14 1.36672e-14 0 8.88178e-14 1.89202e-14 0 0 0 0)
(-2.71051e-14 1.83327e-15 0 0 4.12948e-14 0 0 0 0)
(0 -9.77189e-15 0 0 2.62533e-14 0 0 0 0)
(2.71051e-14 -3.30234e-15 0 4.44089e-14 2.20722e-15 0 0 0 0)
(0 4.58576e-15 0 0 1.30439e-14 0 0 0 0)
(-2.71051e-14 -8.39854e-15 0 4.44089e-14 2.05502e-14 0 0 0 0)
)
;
    }
    frontAndBack
    {
        type            empty;
    }
}


// ************************************************************************* //
