/*--------------------------------*- C++ -*----------------------------------*\
| =========                 |                                                 |
| \\      /  F ield         | OpenFOAM: The Open Source CFD Toolbox           |
|  \\    /   O peration     | Version:  2312                                  |
|   \\  /    A nd           | Website:  www.openfoam.com                      |
|    \\/     M anipulation  |                                                 |
\*---------------------------------------------------------------------------*/
FoamFile
{
    version     2.0;
    format      ascii;
    arch        "LSB;label=32;scalar=64";
    class       volScalarField;
    location    "5.125";
    object      Lambda2Field;
}
// * * * * * * * * * * * * * * * * * * * * * * * * * * * * * * * * * * * * * //

dimensions      [0 0 -2 0 0 0 0];

internalField   nonuniform List<scalar> 
400
(
5.65503e-25
2.93172e-25
0
3.30235e-27
7.50305e-28
5.66439e-29
0
-2.04996e-28
2.53754e-28
6.78361e-28
0
0
1.69393e-28
6.26973e-29
2.53677e-28
5.9756e-28
5.29735e-28
3.32732e-28
0
3.78204e-29
0
0
0
4.00756e-27
0
1.68122e-27
3.80932e-27
0
0
-7.55091e-28
2.48308e-28
6.00268e-28
7.06633e-29
2.59988e-28
0
0
0
2.1666e-28
0
0
0
0
0
6.21864e-27
0
-6.47956e-28
9.42229e-28
1.80176e-27
0
1.00817e-27
2.8064e-27
1.97451e-27
5.48359e-28
1.17411e-27
0
-1.46267e-27
1.663e-29
-2.02769e-28
2.99591e-28
0
1.99318e-24
0
7.23673e-26
0
2.04267e-27
0
0
0
0
1.08693e-29
4.79344e-28
0
0
4.90498e-28
6.73888e-28
0
2.25766e-28
2.23788e-28
3.54851e-28
7.4507e-28
1.6223e-23
2.6049e-25
4.40668e-26
5.15226e-28
3.78052e-28
0
1.08059e-28
0
0
-1.20878e-27
2.38468e-28
0
8.55406e-28
6.07704e-29
9.38448e-28
0
8.74414e-29
-2.03307e-28
6.23681e-29
2.82036e-28
4.29705e-24
2.35154e-25
7.23196e-27
6.73711e-29
9.55484e-28
2.69148e-28
1.2586e-28
-4.63398e-28
1.61789e-27
0
1.07905e-27
4.64315e-28
0
1.00125e-27
1.33339e-28
-2.92652e-27
0
3.69468e-33
0
0
2.93733e-26
0
1.89591e-27
0
1.1603e-28
1.78914e-30
9.27451e-29
0
0
9.21817e-29
6.66057e-28
0
0
0
8.85741e-28
7.94972e-28
2.10585e-28
0
0
2.91852e-29
1.50414e-25
0
8.52039e-27
0
3.91592e-27
4.64535e-28
9.98917e-28
6.39157e-28
0
-1.44007e-27
0
0
1.81187e-28
0
3.06125e-28
0
6.34713e-28
0
4.14138e-28
2.13222e-28
7.55158e-26
1.3629e-26
2.68898e-27
1.33253e-27
2.39072e-28
5.86603e-28
0
2.51096e-29
8.57119e-28
1.55974e-28
0
1.17827e-28
3.9336e-28
4.31337e-29
0
-6.45963e-28
2.08047e-28
-9.69447e-28
3.21618e-30
1.29897e-29
2.44196e-25
0
2.75264e-27
2.02334e-27
2.60158e-27
2.71724e-28
1.70636e-28
5.98993e-28
7.38689e-28
9.57624e-29
1.11078e-29
3.80423e-28
5.12497e-28
1.3888e-28
2.0957e-28
-6.90783e-28
0
0
0
0
1.57233e-25
0
1.56972e-28
1.32484e-28
2.15964e-28
0
6.88022e-28
0
1.09166e-27
1.22087e-27
0
3.75555e-29
0
0
0
9.13438e-30
0
1.83936e-28
0
0
9.18323e-26
0
2.05885e-26
0
2.1888e-27
-1.89537e-27
0
-5.27386e-28
7.38135e-28
-1.26622e-27
0
3.82498e-28
0
-4.13896e-28
0
-1.80214e-28
0
0
0
0
3.01888e-25
0
1.80661e-28
0
5.41291e-28
0
5.99363e-28
1.16891e-27
7.34684e-28
0
5.91814e-29
1.44496e-29
0
0
0
1.4478e-28
0
5.81451e-28
1.29895e-27
1.47021e-28
1.73444e-26
0
1.23552e-27
2.2153e-27
1.03189e-28
-1.8076e-27
0
4.22353e-28
2.23912e-27
2.86175e-28
0
1.66923e-28
7.54896e-29
2.38684e-28
3.26833e-29
0
1.36199e-27
-5.58808e-28
3.6695e-28
2.00841e-29
5.11318e-26
0
2.74093e-27
1.93289e-27
7.34684e-28
9.75053e-28
1.09365e-27
-2.11192e-27
0
1.58303e-28
0
-2.43855e-28
0
-7.42828e-28
0
0
1.83987e-28
0
2.22737e-28
0
2.94864e-25
0
2.22357e-27
9.29537e-29
3.61911e-29
0
9.90008e-29
1.99349e-28
4.36473e-28
-1.12681e-27
0
-1.04849e-28
0
2.30693e-28
3.17602e-28
-2.9877e-28
0
6.71046e-28
0
1.33478e-28
4.3376e-25
0
4.03344e-27
0
0
-5.5083e-29
1.79613e-27
0
2.18389e-27
4.45769e-28
3.57705e-28
4.00734e-28
9.91137e-28
4.78714e-28
1.02398e-28
-2.27403e-28
0
0
1.06913e-28
0
2.75515e-25
7.17604e-26
1.77325e-27
1.37002e-27
5.09928e-28
-6.26603e-28
0
3.18036e-28
2.03132e-27
3.85892e-29
5.85538e-28
5.30694e-28
1.24758e-27
8.20575e-29
0
6.46716e-28
1.0827e-28
7.6108e-28
3.823e-28
1.13216e-28
2.0199e-25
7.31019e-27
6.61216e-27
9.77308e-28
9.27298e-28
1.1761e-27
1.08391e-28
-3.31279e-28
1.23081e-27
1.09048e-28
6.54157e-28
0
8.70636e-28
2.08641e-28
0
-8.03963e-30
5.41718e-28
0
0
0
4.34742e-25
0
3.0105e-26
-4.04772e-27
1.27736e-27
-1.91758e-28
0
1.78247e-28
6.45644e-29
7.51484e-28
3.69514e-28
0
0
0
2.16423e-28
3.01998e-28
2.59195e-28
2.96166e-30
0
6.82655e-29
)
;

boundaryField
{
    movingWall
    {
        type            calculated;
        value           nonuniform List<scalar> 
20
(
7.6187e-24
2.38591e-25
3.59012e-25
-2.78943e-26
9.41771e-27
-1.41152e-27
1.77474e-27
1.16816e-27
4.7602e-28
2.71555e-27
1.99537e-27
0
0
0
0
1.56173e-28
4.56211e-28
6.0484e-29
0
2.8915e-29
)
;
    }
    fixedWalls
    {
        type            calculated;
        value           nonuniform List<scalar> 
60
(
3.2657e-24
0
0
0
2.20713e-23
3.67864e-24
1.72436e-24
0
1.1997e-24
0
1.50996e-24
0
1.1569e-24
0
1.39659e-24
0
1.34369e-24
4.33261e-25
9.82788e-24
2.40993e-24
1.43399e-28
3.71437e-28
2.95359e-28
1.82216e-27
6.14436e-28
1.04317e-28
1.41175e-28
5.62155e-28
0
0
0
0
4.97192e-28
2.00841e-29
0
9.17933e-29
3.00984e-28
0
0
0
0
0
1.45562e-25
-1.45389e-26
7.3758e-27
0
0
-9.97462e-28
2.07875e-27
2.0922e-27
1.14413e-27
0
1.81898e-27
1.6285e-28
1.94858e-27
7.34684e-28
0
0
0
4.93424e-29
)
;
    }
    frontAndBack
    {
        type            empty;
    }
}


// ************************************************************************* //
