/*--------------------------------*- C++ -*----------------------------------*\
| =========                 |                                                 |
| \\      /  F ield         | OpenFOAM: The Open Source CFD Toolbox           |
|  \\    /   O peration     | Version:  2312                                  |
|   \\  /    A nd           | Website:  www.openfoam.com                      |
|    \\/     M anipulation  |                                                 |
\*---------------------------------------------------------------------------*/
FoamFile
{
    version     2.0;
    format      ascii;
    arch        "LSB;label=32;scalar=64";
    class       volScalarField;
    location    "5.125";
    object      Uy;
}
// * * * * * * * * * * * * * * * * * * * * * * * * * * * * * * * * * * * * * //

dimensions      [0 1 -1 0 0 0 0];

internalField   nonuniform List<scalar> 
400
(
2.82935e-14
-5.23248e-15
1.27482e-15
-2.10704e-16
5.6466e-17
6.61101e-17
4.6017e-17
-6.53896e-17
-2.97151e-17
2.82291e-17
8.08879e-17
9.2638e-17
5.0907e-17
-3.34352e-17
4.73004e-17
1.03237e-16
6.56331e-17
5.51805e-18
3.26098e-17
5.13756e-17
3.246e-14
-6.43295e-15
1.50733e-15
-2.11552e-16
2.8796e-17
-7.70798e-17
-3.91533e-18
7.06434e-17
5.66618e-17
1.6634e-16
1.7369e-16
1.35803e-16
6.29601e-17
-3.22503e-17
9.65672e-17
1.6076e-16
3.51117e-19
-1.29499e-16
-8.36777e-17
1.01227e-17
-5.89726e-14
1.0635e-14
-2.43733e-15
4.23939e-16
-1.95433e-16
-2.85728e-16
-2.33094e-16
-1.11917e-16
-1.2337e-16
-1.11958e-16
-1.5607e-16
-7.45027e-17
4.84934e-17
1.27806e-16
1.79911e-16
7.16381e-17
-9.03167e-17
-1.41676e-16
-1.53513e-16
-7.18867e-17
3.81729e-14
-6.97001e-15
1.46745e-15
-3.30705e-16
8.25627e-17
4.53338e-18
-1.18309e-16
-2.30942e-16
-2.01566e-16
-1.77961e-16
-1.42153e-16
-4.0576e-17
1.4319e-16
1.8262e-16
5.27093e-17
-3.02577e-17
2.91542e-17
4.68846e-17
-5.3409e-17
-8.40322e-17
-1.25247e-14
3.05654e-15
-5.9943e-16
5.27627e-17
-8.66415e-17
1.19972e-17
-6.19658e-17
-1.62226e-16
-2.26363e-16
-1.44927e-16
-7.71438e-17
-8.39033e-17
6.74568e-17
1.21742e-16
-5.68583e-17
-4.30405e-17
5.49035e-17
4.81244e-17
-3.01079e-17
-4.92233e-17
-4.38461e-15
4.5563e-16
-3.23351e-16
-1.03719e-16
-1.10802e-16
-6.29884e-17
-6.15862e-17
-1.28004e-16
-1.5667e-16
-1.99393e-16
-1.60591e-16
-8.46765e-17
-9.60587e-17
-1.23709e-16
-1.62598e-16
-4.39623e-17
1.10802e-16
9.89582e-17
8.78153e-18
-2.17365e-18
8.20364e-15
-1.43935e-15
2.09475e-16
-2.93172e-17
5.24566e-17
-3.33337e-18
-1.75429e-17
-9.00791e-17
-7.06837e-17
-9.97722e-17
-6.99061e-17
2.30937e-17
-8.76922e-17
-1.94682e-16
-1.65228e-16
-1.04429e-16
-4.55026e-17
4.75166e-17
1.27882e-16
5.29126e-17
-6.09847e-15
1.39466e-15
-2.87787e-16
9.08766e-17
-3.87065e-18
-7.63643e-17
-8.95584e-17
-1.61046e-16
-2.04278e-16
-1.05603e-16
-3.69243e-18
5.75626e-17
1.34728e-17
2.41396e-17
7.39164e-17
7.6843e-17
-1.2837e-17
-7.72571e-17
2.68155e-17
5.18496e-17
4.9308e-15
-1.66163e-15
1.94792e-16
-8.26181e-17
4.44173e-17
-1.91611e-18
-5.8503e-17
-4.85353e-17
-6.31349e-17
-5.23945e-17
-3.43628e-17
-1.29344e-17
-6.25159e-17
-8.54964e-17
-5.45592e-17
3.56702e-17
1.1523e-16
4.79856e-18
-6.51124e-17
5.98513e-18
-6.49818e-15
1.11323e-15
-2.98e-16
-1.38899e-17
-1.53132e-16
-1.29909e-16
-1.2807e-16
-9.84323e-17
-9.84781e-17
-9.76936e-17
-6.33846e-17
-5.09855e-17
6.79113e-18
4.35535e-17
-7.77234e-18
-5.33129e-17
-9.27319e-17
-4.86326e-17
-1.18066e-17
1.58084e-17
9.13745e-15
-1.48198e-15
2.59548e-16
-1.60086e-16
-1.16247e-16
-1.26787e-16
1.26593e-17
1.4077e-16
1.33885e-16
4.54637e-17
-5.81404e-17
-1.38444e-16
-5.31976e-17
4.80531e-17
8.39618e-17
3.82688e-17
-6.47163e-17
-5.44153e-17
5.29415e-18
2.99325e-17
-9.54149e-15
1.86932e-15
-3.37667e-16
1.01212e-16
-6.67318e-17
2.17819e-17
9.54441e-17
1.72595e-16
2.28471e-16
3.64331e-17
-1.40631e-16
-1.31204e-16
-1.08204e-16
-8.64607e-17
-2.36914e-17
-2.30898e-17
3.26597e-17
8.69904e-17
8.88694e-17
2.7528e-17
6.92822e-15
-1.18393e-15
4.17466e-16
-3.78839e-18
2.41253e-17
4.71451e-17
-4.23574e-17
-9.46704e-17
-8.86941e-17
-6.74769e-17
-3.06972e-17
5.71313e-17
3.32014e-17
-1.84637e-17
-8.14492e-17
-7.36536e-17
-5.4742e-17
-6.8722e-18
-8.38321e-18
-4.58579e-17
-4.28524e-15
8.14221e-16
-2.35685e-16
6.07475e-17
1.38247e-16
5.43892e-17
-1.38881e-16
-1.87198e-16
-1.21147e-16
-2.18492e-18
-1.5567e-17
-9.31917e-17
-4.13593e-17
-1.13945e-17
2.67007e-18
-5.36546e-18
-6.47152e-17
-1.54142e-16
-1.69227e-16
-5.42012e-17
7.63616e-15
-1.44824e-15
2.35759e-16
-1.40979e-16
-7.7407e-17
-1.64011e-16
-2.54048e-16
-2.46354e-16
-5.29294e-17
-4.34179e-17
-1.11333e-16
-1.54189e-16
-4.34554e-17
1.49052e-17
9.38095e-17
8.88443e-17
1.0604e-16
2.0965e-17
-5.61988e-17
-1.04256e-18
-6.47469e-15
6.11095e-16
-3.10929e-16
-9.26189e-17
-1.59429e-16
-2.57869e-16
-2.4789e-16
-2.70036e-16
-2.95138e-16
-1.79338e-16
-6.62145e-17
1.82131e-17
3.70299e-17
-2.27353e-17
-5.52547e-18
5.42027e-17
4.95973e-17
2.75191e-18
-2.03891e-17
-4.23322e-18
4.84457e-15
-8.49031e-16
1.37964e-16
-4.45669e-17
-1.06055e-16
-2.03063e-16
-1.54735e-16
-1.05163e-16
-2.56868e-16
-2.15876e-16
-2.0255e-16
-1.49891e-16
-1.37519e-16
-1.11131e-16
-4.92118e-17
9.11e-17
8.30042e-18
-1.49812e-16
-1.01534e-16
1.82778e-17
2.45994e-15
8.84196e-17
2.69489e-17
-2.1079e-16
-2.01198e-16
-1.13364e-16
4.99148e-17
1.38662e-16
1.3138e-17
-1.59121e-16
-1.57205e-16
-1.31609e-16
-8.44769e-17
2.13117e-17
-9.45647e-18
-3.76512e-17
-3.64156e-17
3.29374e-18
3.98413e-17
-2.62913e-17
9.53387e-15
-2.22756e-15
1.18626e-16
-3.18725e-16
-1.45536e-16
-1.62218e-17
6.00662e-17
3.77274e-18
-9.32204e-17
-1.53756e-16
-5.29888e-17
-3.3085e-17
-1.18923e-17
-2.05456e-17
-2.52142e-17
-1.63206e-16
-9.37184e-17
3.66523e-17
2.35036e-17
-6.91798e-17
-2.77327e-14
5.212e-15
-1.38756e-15
2.0071e-16
-9.87834e-17
-3.49212e-17
-5.85854e-17
-8.48756e-17
-9.14662e-17
-9.67856e-17
-1.37131e-16
-1.53562e-16
-1.29252e-16
-1.46277e-16
-4.23875e-17
-5.06745e-17
-1.37118e-17
-1.94429e-17
-5.30785e-17
-1.34432e-17
)
;

boundaryField
{
    movingWall
    {
        type            calculated;
        value           uniform -0;
    }
    fixedWalls
    {
        type            calculated;
        value           uniform -0;
    }
    frontAndBack
    {
        type            empty;
    }
}


// ************************************************************************* //
