/*--------------------------------*- C++ -*----------------------------------*\
| =========                 |                                                 |
| \\      /  F ield         | OpenFOAM: The Open Source CFD Toolbox           |
|  \\    /   O peration     | Version:  2312                                  |
|   \\  /    A nd           | Website:  www.openfoam.com                      |
|    \\/     M anipulation  |                                                 |
\*---------------------------------------------------------------------------*/
FoamFile
{
    version     2.0;
    format      ascii;
    arch        "LSB;label=32;scalar=64";
    class       volVectorField;
    location    "5.125";
    object      vorticityField;
}
// * * * * * * * * * * * * * * * * * * * * * * * * * * * * * * * * * * * * * //

dimensions      [0 0 -1 0 0 0 0];

internalField   nonuniform List<vector> 
400
(
(0 -0 2.06216e-12)
(0 -0 -2.62056e-12)
(0 -0 5.56388e-13)
(0 -0 -9.47301e-14)
(0 -0 5.76332e-16)
(0 -0 5.31652e-14)
(0 -0 -6.73601e-14)
(0 -0 -3.46783e-14)
(0 -0 -1.77432e-14)
(0 -0 -1.60448e-14)
(0 -0 6.44089e-15)
(0 -0 -2.99809e-15)
(0 -0 -1.26073e-14)
(0 -0 5.38494e-14)
(0 -0 1.36672e-14)
(0 -0 5.60434e-14)
(0 -0 4.44382e-14)
(0 -0 5.09078e-14)
(0 -0 4.58576e-15)
(0 -0 -8.39854e-15)
(0 -0 4.44585e-12)
(0 -0 -3.23079e-12)
(0 -0 9.20295e-13)
(0 -0 -1.20748e-13)
(0 -0 2.03183e-13)
(0 -0 1.32254e-13)
(0 -0 2.04508e-13)
(0 -0 1.14478e-13)
(0 -0 1.722e-13)
(0 -0 9.3018e-14)
(0 -0 7.82615e-14)
(0 -0 4.31371e-14)
(0 -0 -1.68054e-14)
(0 -0 3.36071e-15)
(0 -0 7.35111e-14)
(0 -0 -9.62161e-15)
(0 -0 -8.3236e-14)
(0 -0 -8.40288e-15)
(0 -0 1.39622e-14)
(0 -0 6.15656e-14)
(0 -0 -8.57426e-12)
(0 -0 6.16852e-12)
(0 -0 -1.5632e-12)
(0 -0 1.97084e-13)
(0 -0 -2.06492e-13)
(0 -0 -1.93501e-13)
(0 -0 -3.68291e-14)
(0 -0 -7.03428e-14)
(0 -0 -8.13193e-14)
(0 -0 -5.74801e-14)
(0 -0 -7.75696e-14)
(0 -0 -6.08588e-14)
(0 -0 -6.87416e-15)
(0 -0 -4.10684e-14)
(0 -0 -8.6932e-14)
(0 -0 -1.08338e-13)
(0 -0 -4.84364e-14)
(0 -0 -8.76348e-14)
(0 -0 -2.01262e-14)
(0 -0 2.25399e-14)
(0 -0 6.10185e-12)
(0 -0 -4.21265e-12)
(0 -0 9.34981e-13)
(0 -0 -2.19804e-13)
(0 -0 -2.06863e-14)
(0 -0 -7.42972e-14)
(0 -0 -1.04863e-13)
(0 -0 -8.32575e-15)
(0 -0 5.29803e-15)
(0 -0 5.94128e-15)
(0 -0 -1.33665e-14)
(0 -0 1.0985e-13)
(0 -0 4.94246e-14)
(0 -0 4.5162e-14)
(0 -0 -2.12877e-14)
(0 -0 -2.94606e-14)
(0 -0 7.71424e-15)
(0 -0 1.88487e-14)
(0 -0 1.40134e-14)
(0 -0 -4.0466e-14)
(0 -0 -1.97681e-12)
(0 -0 1.43647e-12)
(0 -0 -3.81693e-13)
(0 -0 5.12789e-14)
(0 -0 -4.07654e-15)
(0 -0 5.66777e-14)
(0 -0 -1.74223e-14)
(0 -0 -1.64397e-14)
(0 -0 1.7299e-15)
(0 -0 9.62371e-14)
(0 -0 8.74175e-14)
(0 -0 1.44601e-14)
(0 -0 7.47747e-14)
(0 -0 -6.66416e-14)
(0 -0 1.06268e-14)
(0 -0 1.11762e-14)
(0 -0 9.11649e-15)
(0 -0 -3.56062e-14)
(0 -0 -9.73477e-15)
(0 -0 -1.91719e-14)
(0 -0 -7.45264e-13)
(0 -0 3.24811e-13)
(0 -0 -1.64355e-13)
(0 -0 2.12549e-14)
(0 -0 -5.01371e-14)
(0 -0 -4.92886e-14)
(0 -0 -3.36066e-14)
(0 -0 -6.37185e-14)
(0 -0 -8.84541e-14)
(0 -0 -8.17073e-14)
(0 -0 -4.27385e-14)
(0 -0 -4.77569e-14)
(0 -0 -3.90327e-15)
(0 -0 -6.65389e-15)
(0 -0 7.97469e-15)
(0 -0 1.3576e-13)
(0 -0 9.56072e-14)
(0 -0 -1.02021e-14)
(0 -0 -1.01132e-14)
(0 -0 -6.60788e-16)
(0 -0 1.35406e-12)
(0 -0 -9.07837e-13)
(0 -0 1.95213e-13)
(0 -0 -4.28069e-14)
(0 -0 2.59839e-15)
(0 -0 -6.99995e-15)
(0 -0 -3.57796e-14)
(0 -0 -5.31408e-15)
(0 -0 -2.80744e-14)
(0 -0 -5.41323e-14)
(0 -0 -4.19235e-14)
(0 -0 -2.88837e-14)
(0 -0 -1.30198e-13)
(0 -0 -3.48586e-14)
(0 -0 -1.80797e-14)
(0 -0 -4.22376e-14)
(0 -0 1.51945e-14)
(0 -0 9.86536e-14)
(0 -0 5.396e-16)
(0 -0 -1.80794e-14)
(0 -0 -5.24591e-13)
(0 -0 6.89488e-13)
(0 -0 -7.61683e-14)
(0 -0 8.26017e-14)
(0 -0 9.16961e-14)
(0 -0 4.56413e-14)
(0 -0 4.5742e-14)
(0 -0 4.27381e-14)
(0 -0 5.97544e-14)
(0 -0 1.28479e-13)
(0 -0 7.05266e-14)
(0 -0 8.30317e-14)
(0 -0 5.08678e-14)
(0 -0 8.73595e-14)
(0 -0 8.65855e-14)
(0 -0 -8.67534e-15)
(0 -0 -6.96201e-14)
(0 -0 3.96525e-15)
(0 -0 1.29107e-14)
(0 -0 1.92385e-14)
(0 -0 1.10077e-13)
(0 -0 -4.46496e-13)
(0 -0 2.12111e-13)
(0 -0 6.62777e-14)
(0 -0 8.0702e-15)
(0 -0 4.39181e-14)
(0 -0 -4.66192e-15)
(0 -0 5.37469e-14)
(0 -0 5.38242e-14)
(0 -0 -5.13329e-14)
(0 -0 5.81561e-14)
(0 -0 -2.81531e-15)
(0 -0 4.69539e-14)
(0 -0 -5.34144e-14)
(0 -0 1.21167e-14)
(0 -0 9.82941e-14)
(0 -0 -3.01922e-14)
(0 -0 -7.22444e-14)
(0 -0 -2.69864e-14)
(0 -0 5.91273e-15)
(0 -0 -1.59559e-12)
(0 -0 7.28438e-13)
(0 -0 -3.29552e-13)
(0 -0 -1.21038e-13)
(0 -0 -1.20022e-13)
(0 -0 -1.05914e-13)
(0 -0 -5.10624e-14)
(0 -0 -7.8356e-14)
(0 -0 -5.41362e-14)
(0 -0 3.50935e-15)
(0 -0 4.6708e-15)
(0 -0 -4.71925e-14)
(0 -0 -4.47562e-14)
(0 -0 -2.85614e-14)
(0 -0 -6.38968e-14)
(0 -0 -8.98111e-14)
(0 -0 4.68028e-16)
(0 -0 8.09253e-15)
(0 -0 3.35492e-14)
(0 -0 -4.00175e-16)
(0 -0 2.03949e-12)
(0 -0 -1.15884e-12)
(0 -0 2.40609e-13)
(0 -0 -3.75795e-14)
(0 -0 3.0435e-14)
(0 -0 1.28906e-14)
(0 -0 8.09658e-14)
(0 -0 3.92276e-14)
(0 -0 -9.53064e-15)
(0 -0 3.50076e-14)
(0 -0 -1.83908e-14)
(0 -0 5.47044e-14)
(0 -0 1.86497e-14)
(0 -0 4.0821e-14)
(0 -0 -9.78426e-16)
(0 -0 -1.48678e-14)
(0 -0 -3.63735e-14)
(0 -0 7.00105e-15)
(0 -0 6.26449e-14)
(0 -0 -3.52266e-15)
(0 -0 -1.11958e-12)
(0 -0 1.13722e-12)
(0 -0 -6.83905e-14)
(0 -0 1.62619e-13)
(0 -0 7.33722e-14)
(0 -0 1.51743e-13)
(0 -0 9.63965e-14)
(0 -0 9.46178e-14)
(0 -0 4.05939e-14)
(0 -0 -9.11203e-14)
(0 -0 -7.09739e-14)
(0 -0 3.24273e-15)
(0 -0 4.47437e-15)
(0 -0 6.26613e-14)
(0 -0 6.05472e-14)
(0 -0 5.98452e-14)
(0 -0 1.19428e-13)
(0 -0 5.98311e-14)
(0 -0 -5.94624e-15)
(0 -0 -1.16397e-14)
(0 -0 1.4689e-12)
(0 -0 -7.32391e-13)
(0 -0 2.5354e-13)
(0 -0 -6.64391e-14)
(0 -0 3.21984e-14)
(0 -0 -6.64827e-15)
(0 -0 -1.41816e-14)
(0 -0 -3.17387e-14)
(0 -0 2.71935e-15)
(0 -0 5.79969e-15)
(0 -0 6.66709e-14)
(0 -0 6.38986e-15)
(0 -0 -6.17696e-14)
(0 -0 -6.56752e-14)
(0 -0 -8.68341e-14)
(0 -0 -5.15394e-14)
(0 -0 6.67814e-15)
(0 -0 4.63588e-15)
(0 -0 -5.81087e-14)
(0 -0 -2.16809e-14)
(0 -0 -9.16308e-13)
(0 -0 4.3206e-13)
(0 -0 -2.10873e-13)
(0 -0 -1.68169e-14)
(0 -0 -6.35824e-16)
(0 -0 -1.09028e-13)
(0 -0 -1.05474e-13)
(0 -0 -1.06647e-13)
(0 -0 -6.28138e-14)
(0 -0 -1.6547e-14)
(0 -0 -1.17521e-13)
(0 -0 -1.10999e-13)
(0 -0 8.17972e-15)
(0 -0 -4.98072e-14)
(0 -0 -5.36072e-14)
(0 -0 -6.09486e-14)
(0 -0 -9.61929e-14)
(0 -0 -6.46612e-14)
(0 -0 -1.71109e-14)
(0 -0 2.23428e-14)
(0 -0 1.35063e-12)
(0 -0 -8.75566e-13)
(0 -0 1.57831e-13)
(0 -0 2.28935e-14)
(0 -0 -2.30317e-15)
(0 -0 -1.76642e-14)
(0 -0 4.59759e-14)
(0 -0 1.28532e-13)
(0 -0 1.28714e-13)
(0 -0 2.12647e-14)
(0 -0 -1.10771e-14)
(0 -0 6.09979e-14)
(0 -0 1.2533e-13)
(0 -0 6.79366e-14)
(0 -0 8.87091e-14)
(0 -0 1.22301e-15)
(0 -0 2.03171e-14)
(0 -0 -1.62238e-14)
(0 -0 -2.20076e-15)
(0 -0 3.28292e-14)
(0 -0 -2.10424e-12)
(0 -0 8.60322e-13)
(0 -0 -2.33002e-13)
(0 -0 1.515e-14)
(0 -0 -4.36301e-14)
(0 -0 -8.84614e-15)
(0 -0 -1.21671e-15)
(0 -0 -4.72474e-15)
(0 -0 9.06978e-15)
(0 -0 1.04207e-13)
(0 -0 1.28175e-13)
(0 -0 9.16396e-14)
(0 -0 -4.09484e-15)
(0 -0 4.99546e-14)
(0 -0 6.19039e-14)
(0 -0 5.97224e-14)
(0 -0 -5.14508e-15)
(0 -0 4.72115e-14)
(0 -0 -6.98513e-16)
(0 -0 -5.17479e-14)
(0 -0 8.6034e-13)
(0 -0 -6.87501e-13)
(0 -0 5.33413e-14)
(0 -0 -1.32822e-13)
(0 -0 -1.51375e-13)
(0 -0 -5.90782e-14)
(0 -0 -9.86301e-14)
(0 -0 -1.18633e-13)
(0 -0 -9.23865e-14)
(0 -0 -7.58834e-14)
(0 -0 -4.76116e-14)
(0 -0 -2.06019e-14)
(0 -0 -5.03341e-14)
(0 -0 -4.53794e-14)
(0 -0 2.02231e-14)
(0 -0 5.99613e-14)
(0 -0 -2.40912e-14)
(0 -0 -1.09835e-14)
(0 -0 1.6809e-14)
(0 -0 3.54307e-14)
(0 -0 3.79952e-14)
(0 -0 -2.64583e-14)
(0 -0 2.42892e-14)
(0 -0 4.29033e-15)
(0 -0 6.39527e-14)
(0 -0 7.93214e-14)
(0 -0 1.33623e-13)
(0 -0 5.05324e-14)
(0 -0 2.44318e-14)
(0 -0 -1.70343e-14)
(0 -0 5.69614e-14)
(0 -0 -4.69373e-14)
(0 -0 9.66072e-14)
(0 -0 7.50205e-15)
(0 -0 -5.89628e-15)
(0 -0 -2.69591e-15)
(0 -0 4.09449e-15)
(0 -0 -4.65844e-14)
(0 -0 2.41465e-14)
(0 -0 2.57501e-14)
(0 -0 1.29984e-12)
(0 -0 -1.21257e-12)
(0 -0 1.90883e-13)
(0 -0 -5.35212e-14)
(0 -0 3.14526e-15)
(0 -0 -3.36499e-14)
(0 -0 -5.22107e-14)
(0 -0 -6.95388e-14)
(0 -0 -1.24173e-13)
(0 -0 -2.30819e-14)
(0 -0 -4.2143e-14)
(0 -0 4.10966e-15)
(0 -0 -1.07166e-13)
(0 -0 -5.55423e-14)
(0 -0 -1.22686e-13)
(0 -0 -1.15271e-13)
(0 -0 -7.1192e-15)
(0 -0 1.17222e-14)
(0 -0 -3.76883e-14)
(0 -0 4.56761e-15)
(0 -0 -2.33338e-12)
(0 -0 2.71583e-12)
(0 -0 -4.46919e-13)
(0 -0 1.83088e-13)
(0 -0 3.0647e-14)
(0 -0 5.82299e-14)
(0 -0 -4.99544e-15)
(0 -0 5.0922e-14)
(0 -0 5.30191e-14)
(0 -0 2.25386e-14)
(0 -0 -5.67761e-15)
(0 -0 7.8791e-16)
(0 -0 2.78335e-14)
(0 -0 6.28965e-14)
(0 -0 6.37703e-14)
(0 -0 5.70777e-14)
(0 -0 3.02282e-14)
(0 -0 -3.93667e-15)
(0 -0 2.7705e-14)
(0 -0 6.65217e-15)
)
;

boundaryField
{
    movingWall
    {
        type            calculated;
        value           nonuniform List<vector> 
20
(
(0 -0 8.56557e-13)
(0 -0 2.67892e-12)
(0 -0 2.09414e-13)
(0 -0 3.95331e-13)
(0 -0 3.76117e-13)
(0 -0 4.037e-13)
(0 -0 3.50276e-13)
(0 -0 3.51983e-13)
(0 -0 3.98489e-13)
(0 -0 2.61887e-13)
(0 -0 2.16367e-13)
(0 -0 2.22833e-13)
(0 -0 2.67182e-13)
(0 -0 1.86322e-13)
(0 -0 1.42787e-13)
(0 -0 9.16854e-14)
(0 -0 4.75321e-14)
(0 -0 -3.93667e-15)
(0 -0 8.94178e-14)
(0 -0 6.65217e-15)
)
;
    }
    fixedWalls
    {
        type            calculated;
        value           nonuniform List<vector> 
60
(
(0 -0 1.10735e-11)
(0 -0 1.48271e-11)
(0 -0 -2.73295e-11)
(0 -0 1.82507e-11)
(0 -0 -6.03987e-12)
(0 -0 -2.10621e-12)
(0 -0 3.95908e-12)
(0 -0 -2.4936e-12)
(0 -0 1.75548e-12)
(0 -0 -3.65637e-12)
(0 -0 4.92892e-12)
(0 -0 -4.16896e-12)
(0 -0 3.66576e-12)
(0 -0 -2.2833e-12)
(0 -0 3.7863e-12)
(0 -0 -4.10776e-12)
(0 -0 2.39861e-12)
(0 -0 7.67134e-13)
(0 -0 4.38275e-12)
(0 -0 -1.11744e-11)
(0 -0 -2.05502e-14)
(0 -0 5.0161e-14)
(0 -0 2.87547e-14)
(0 -0 -2.05972e-14)
(0 -0 -7.41574e-15)
(0 -0 8.6946e-16)
(0 -0 -2.1165e-14)
(0 -0 6.3652e-15)
(0 -0 -2.39405e-15)
(0 -0 -6.32335e-15)
(0 -0 -1.1973e-14)
(0 -0 -1.10112e-14)
(0 -0 -8.7619e-15)
(0 -0 2.16805e-14)
(0 -0 2.75221e-14)
(0 -0 -5.25168e-14)
(0 -0 1.97939e-14)
(0 -0 3.76216e-14)
(0 -0 2.76719e-14)
(0 -0 5.37726e-15)
(0 -0 3.01665e-12)
(0 -0 -3.27919e-12)
(0 -0 2.35724e-13)
(0 -0 -2.99471e-13)
(0 -0 -2.38772e-13)
(0 -0 -2.2309e-13)
(0 -0 -2.35195e-13)
(0 -0 -2.29618e-13)
(0 -0 -2.12683e-13)
(0 -0 -1.66575e-13)
(0 -0 -1.71195e-13)
(0 -0 -2.25043e-13)
(0 -0 -1.01425e-13)
(0 -0 -4.47696e-14)
(0 -0 -7.51506e-14)
(0 -0 1.83327e-15)
(0 -0 -9.77189e-15)
(0 -0 -4.77113e-14)
(0 -0 4.58576e-15)
(0 -0 -5.28075e-14)
)
;
    }
    frontAndBack
    {
        type            empty;
    }
}


// ************************************************************************* //
