/*--------------------------------*- C++ -*----------------------------------*\
| =========                 |                                                 |
| \\      /  F ield         | OpenFOAM: The Open Source CFD Toolbox           |
|  \\    /   O peration     | Version:  2312                                  |
|   \\  /    A nd           | Website:  www.openfoam.com                      |
|    \\/     M anipulation  |                                                 |
\*---------------------------------------------------------------------------*/
FoamFile
{
    version     2.0;
    format      ascii;
    arch        "LSB;label=32;scalar=64";
    class       volScalarField;
    location    "5.125";
    object      zeroGradient(epsilon);
}
// * * * * * * * * * * * * * * * * * * * * * * * * * * * * * * * * * * * * * //

dimensions      [0 2 -3 0 0 0 0];

internalField   nonuniform List<scalar> 
400
(
7.90308e-06
7.90305e-06
7.90303e-06
7.90301e-06
7.90299e-06
7.90298e-06
7.90295e-06
7.90296e-06
7.90293e-06
7.90294e-06
7.90291e-06
7.90292e-06
7.9029e-06
7.90291e-06
7.9029e-06
7.9029e-06
7.9029e-06
7.9029e-06
7.90289e-06
7.90289e-06
8.9388e-06
8.73694e-06
8.75338e-06
8.76009e-06
8.77371e-06
8.78077e-06
8.79445e-06
8.80176e-06
8.81551e-06
8.82308e-06
8.83691e-06
8.84472e-06
8.85864e-06
8.8667e-06
8.88072e-06
8.88901e-06
8.90314e-06
8.91168e-06
8.9188e-06
8.93024e-06
1.03875e-05
1.01372e-05
1.01578e-05
1.01662e-05
1.01832e-05
1.0192e-05
1.02091e-05
1.02182e-05
1.02353e-05
1.02446e-05
1.02618e-05
1.02713e-05
1.02886e-05
1.02984e-05
1.03158e-05
1.03258e-05
1.03433e-05
1.03536e-05
1.03623e-05
1.03763e-05
1.16759e-05
1.13823e-05
1.14064e-05
1.14162e-05
1.14361e-05
1.14464e-05
1.14664e-05
1.1477e-05
1.1497e-05
1.15079e-05
1.15281e-05
1.15393e-05
1.15595e-05
1.1571e-05
1.15913e-05
1.16031e-05
1.16236e-05
1.16356e-05
1.16459e-05
1.16623e-05
1.25856e-05
1.22599e-05
1.22866e-05
1.22974e-05
1.23195e-05
1.23309e-05
1.2353e-05
1.23647e-05
1.23869e-05
1.2399e-05
1.24213e-05
1.24337e-05
1.24561e-05
1.24689e-05
1.24914e-05
1.25045e-05
1.25272e-05
1.25406e-05
1.2552e-05
1.25702e-05
1.31514e-05
1.28053e-05
1.28336e-05
1.28451e-05
1.28685e-05
1.28806e-05
1.29041e-05
1.29165e-05
1.29401e-05
1.29529e-05
1.29766e-05
1.29898e-05
1.30136e-05
1.30271e-05
1.30511e-05
1.3065e-05
1.3089e-05
1.31033e-05
1.31154e-05
1.31347e-05
1.34849e-05
1.31267e-05
1.31559e-05
1.31678e-05
1.3192e-05
1.32045e-05
1.32288e-05
1.32417e-05
1.3266e-05
1.32793e-05
1.33038e-05
1.33175e-05
1.33421e-05
1.33561e-05
1.33809e-05
1.33953e-05
1.34202e-05
1.34349e-05
1.34475e-05
1.34674e-05
1.36845e-05
1.33191e-05
1.33489e-05
1.33611e-05
1.33857e-05
1.33985e-05
1.34232e-05
1.34364e-05
1.34612e-05
1.34748e-05
1.34997e-05
1.35137e-05
1.35388e-05
1.35531e-05
1.35783e-05
1.3593e-05
1.36184e-05
1.36335e-05
1.36463e-05
1.36667e-05
1.38152e-05
1.3445e-05
1.34752e-05
1.34875e-05
1.35125e-05
1.35254e-05
1.35505e-05
1.35638e-05
1.35889e-05
1.36027e-05
1.3628e-05
1.36421e-05
1.36675e-05
1.3682e-05
1.37076e-05
1.37224e-05
1.37482e-05
1.37634e-05
1.37764e-05
1.37971e-05
1.39141e-05
1.35403e-05
1.35708e-05
1.35832e-05
1.36084e-05
1.36214e-05
1.36467e-05
1.36602e-05
1.36856e-05
1.36994e-05
1.37249e-05
1.37392e-05
1.37649e-05
1.37795e-05
1.38053e-05
1.38203e-05
1.38463e-05
1.38617e-05
1.38748e-05
1.38957e-05
1.40011e-05
1.36242e-05
1.36549e-05
1.36674e-05
1.36928e-05
1.3706e-05
1.37315e-05
1.3745e-05
1.37706e-05
1.37846e-05
1.38104e-05
1.38247e-05
1.38506e-05
1.38654e-05
1.38914e-05
1.39066e-05
1.39327e-05
1.39483e-05
1.39615e-05
1.39825e-05
1.40873e-05
1.37072e-05
1.37382e-05
1.37508e-05
1.37764e-05
1.37897e-05
1.38154e-05
1.3829e-05
1.38549e-05
1.3869e-05
1.38949e-05
1.39094e-05
1.39355e-05
1.39504e-05
1.39766e-05
1.39919e-05
1.40183e-05
1.4034e-05
1.40473e-05
1.40685e-05
1.41789e-05
1.37955e-05
1.38268e-05
1.38395e-05
1.38654e-05
1.38787e-05
1.39046e-05
1.39184e-05
1.39445e-05
1.39587e-05
1.39848e-05
1.39995e-05
1.40258e-05
1.40408e-05
1.40673e-05
1.40827e-05
1.41093e-05
1.41251e-05
1.41385e-05
1.41599e-05
1.42805e-05
1.38935e-05
1.3925e-05
1.39378e-05
1.39639e-05
1.39774e-05
1.40036e-05
1.40175e-05
1.40438e-05
1.40581e-05
1.40845e-05
1.40993e-05
1.41259e-05
1.4141e-05
1.41677e-05
1.41833e-05
1.42102e-05
1.42262e-05
1.42397e-05
1.42613e-05
1.43956e-05
1.40044e-05
1.40362e-05
1.40492e-05
1.40756e-05
1.40892e-05
1.41156e-05
1.41297e-05
1.41563e-05
1.41708e-05
1.41974e-05
1.42124e-05
1.42392e-05
1.42545e-05
1.42815e-05
1.42973e-05
1.43244e-05
1.43406e-05
1.43543e-05
1.43761e-05
1.45263e-05
1.41303e-05
1.41626e-05
1.41757e-05
1.42024e-05
1.42162e-05
1.42429e-05
1.42572e-05
1.4284e-05
1.42987e-05
1.43257e-05
1.43408e-05
1.4368e-05
1.43835e-05
1.44108e-05
1.44267e-05
1.44542e-05
1.44706e-05
1.44844e-05
1.45065e-05
1.46709e-05
1.42697e-05
1.43024e-05
1.43157e-05
1.43427e-05
1.43567e-05
1.43838e-05
1.43982e-05
1.44254e-05
1.44403e-05
1.44676e-05
1.4483e-05
1.45105e-05
1.45262e-05
1.45539e-05
1.457e-05
1.45978e-05
1.46144e-05
1.46284e-05
1.46508e-05
1.48187e-05
1.44122e-05
1.44453e-05
1.44588e-05
1.44861e-05
1.45003e-05
1.45277e-05
1.45423e-05
1.45699e-05
1.45849e-05
1.46126e-05
1.46282e-05
1.4656e-05
1.46719e-05
1.47e-05
1.47163e-05
1.47445e-05
1.47614e-05
1.47756e-05
1.47982e-05
1.49453e-05
1.45429e-05
1.4575e-05
1.45881e-05
1.46148e-05
1.46287e-05
1.46555e-05
1.467e-05
1.4697e-05
1.4712e-05
1.47393e-05
1.47549e-05
1.47824e-05
1.47985e-05
1.48263e-05
1.48429e-05
1.4871e-05
1.48882e-05
1.49023e-05
1.49252e-05
1.50008e-05
1.50007e-05
1.50006e-05
1.50006e-05
1.50006e-05
1.50005e-05
1.50005e-05
1.50005e-05
1.50005e-05
1.50004e-05
1.50004e-05
1.50004e-05
1.50004e-05
1.50004e-05
1.50004e-05
1.50004e-05
1.50004e-05
1.50004e-05
1.50004e-05
1.50004e-05
)
;

boundaryField
{
    movingWall
    {
        type            zeroGradient;
    }
    fixedWalls
    {
        type            zeroGradient;
    }
    frontAndBack
    {
        type            empty;
    }
}


// ************************************************************************* //
