/*--------------------------------*- C++ -*----------------------------------*\
| =========                 |                                                 |
| \\      /  F ield         | OpenFOAM: The Open Source CFD Toolbox           |
|  \\    /   O peration     | Version:  2312                                  |
|   \\  /    A nd           | Website:  www.openfoam.com                      |
|    \\/     M anipulation  |                                                 |
\*---------------------------------------------------------------------------*/
FoamFile
{
    version     2.0;
    format      ascii;
    arch        "LSB;label=32;scalar=64";
    class       volScalarField;
    location    "5.125";
    object      zeroGradient(p);
}
// * * * * * * * * * * * * * * * * * * * * * * * * * * * * * * * * * * * * * //

dimensions      [0 2 -2 0 0 0 0];

internalField   nonuniform List<scalar> 
400
(
4.02473e-16
2.31967e-15
1.5656e-15
1.80044e-15
1.86162e-15
1.85359e-15
2.07935e-15
2.20946e-15
2.28348e-15
2.57816e-15
2.7125e-15
2.74052e-15
2.92953e-15
2.79313e-15
2.82377e-15
2.95919e-15
3.0542e-15
2.99519e-15
3.07027e-15
3.13259e-15
2.13592e-15
0
1.64646e-15
1.44989e-15
2.00674e-15
2.03818e-15
2.057e-15
2.27111e-15
2.4306e-15
2.66093e-15
2.76451e-15
2.82033e-15
2.87341e-15
2.91428e-15
2.89225e-15
2.92312e-15
2.98215e-15
2.93792e-15
3.09149e-15
2.92223e-15
1.78581e-15
3.00361e-16
1.64362e-15
1.43642e-15
1.92165e-15
2.19678e-15
2.16999e-15
2.14933e-15
2.51941e-15
2.67798e-15
2.63181e-15
2.80869e-15
2.96636e-15
3.10174e-15
2.88196e-15
2.72014e-15
2.9323e-15
2.95074e-15
3.1867e-15
3.08778e-15
1.04442e-15
5.19271e-15
1.66379e-15
1.90788e-15
1.84373e-15
2.16703e-15
2.32097e-15
2.45153e-15
2.57639e-15
2.61416e-15
2.76741e-15
2.94624e-15
2.98928e-15
3.08688e-15
2.76018e-15
2.79566e-15
3.03066e-15
2.88986e-15
3.08093e-15
3.15438e-15
1.98264e-15
0
1.77719e-15
1.76385e-15
2.2701e-15
2.11062e-15
2.44366e-15
2.51607e-15
2.65341e-15
2.67371e-15
2.69521e-15
2.9527e-15
2.92121e-15
2.95733e-15
2.8576e-15
2.92011e-15
3.03857e-15
2.82955e-15
2.92104e-15
3.29447e-15
1.58998e-15
5.54439e-15
1.62026e-15
2.25344e-15
2.26696e-15
2.34903e-15
2.49165e-15
2.59901e-15
2.79408e-15
2.75741e-15
2.75972e-15
3.05734e-15
2.97116e-15
2.85555e-15
2.84584e-15
2.97469e-15
2.9879e-15
2.81611e-15
2.95316e-15
3.26293e-15
1.65211e-15
0
2.16595e-15
1.98984e-15
2.34475e-15
2.3983e-15
2.5524e-15
2.68831e-15
2.70755e-15
2.87535e-15
2.96521e-15
2.97244e-15
2.90396e-15
2.89677e-15
2.97718e-15
2.92012e-15
2.8507e-15
2.61742e-15
2.95298e-15
3.26868e-15
2.07565e-15
4.81806e-15
1.71249e-15
2.26064e-15
2.30416e-15
2.51586e-15
2.55016e-15
2.67126e-15
2.8169e-15
2.96309e-15
3.0004e-15
3.0274e-15
2.99263e-15
3.04002e-15
2.90894e-15
2.94293e-15
3.10676e-15
2.81009e-15
2.81201e-15
3.04504e-15
2.22004e-15
0
2.04382e-15
2.00935e-15
2.20759e-15
2.46511e-15
2.63761e-15
2.75767e-15
3.06647e-15
3.05708e-15
3.07519e-15
3.02412e-15
3.05473e-15
3.05893e-15
3.02327e-15
3.00434e-15
2.87982e-15
2.66891e-15
2.84141e-15
3.05452e-15
1.94851e-15
5.54654e-15
1.98446e-15
2.19494e-15
2.10619e-15
2.30836e-15
2.55689e-15
2.83076e-15
3.01918e-15
3.07174e-15
3.22565e-15
3.16636e-15
3.12448e-15
3.11563e-15
3.12535e-15
3.12481e-15
2.8767e-15
2.539e-15
2.72142e-15
3.00459e-15
1.98848e-15
0
2.47559e-15
2.02041e-15
2.44929e-15
2.41198e-15
2.65014e-15
2.80601e-15
3.12892e-15
3.17479e-15
3.23995e-15
3.19697e-15
3.14846e-15
2.97137e-15
3.01185e-15
2.93422e-15
2.86253e-15
2.71132e-15
2.77073e-15
2.96532e-15
2.17799e-15
4.59757e-15
2.37375e-15
2.39493e-15
2.25673e-15
2.52607e-15
2.64527e-15
2.85983e-15
3.0677e-15
3.18386e-15
3.26729e-15
3.31617e-15
3.13747e-15
3.10916e-15
3.08249e-15
3.00726e-15
2.88097e-15
2.75114e-15
2.74241e-15
2.84811e-15
2.19393e-15
3.30125e-16
2.51655e-15
2.26066e-15
2.60976e-15
2.67198e-15
2.69843e-15
2.81373e-15
2.87779e-15
3.23533e-15
3.52172e-15
3.26011e-15
3.1987e-15
3.19305e-15
3.08492e-15
3.00352e-15
2.92648e-15
2.73633e-15
2.64363e-15
2.83665e-15
2.37697e-15
3.87937e-15
2.26446e-15
2.58349e-15
2.43272e-15
2.61391e-15
2.83538e-15
2.8701e-15
2.98052e-15
3.22505e-15
3.42244e-15
3.18781e-15
3.18029e-15
3.1047e-15
2.90903e-15
2.85645e-15
2.97715e-15
2.73712e-15
2.63764e-15
3.01826e-15
2.25328e-15
4.323e-16
2.49259e-15
2.33489e-15
2.43275e-15
2.3387e-15
2.73745e-15
2.99319e-15
3.01107e-15
3.18552e-15
3.20117e-15
3.09958e-15
3.0325e-15
3.03991e-15
2.9452e-15
2.95292e-15
2.88418e-15
2.78816e-15
2.81624e-15
3.03543e-15
2.12743e-15
3.3395e-15
2.0205e-15
2.43535e-15
2.34499e-15
2.40502e-15
2.66441e-15
3.09341e-15
2.86788e-15
3.05899e-15
3.11968e-15
3.07306e-15
2.94454e-15
3.04748e-15
3.03544e-15
3.02779e-15
2.95939e-15
2.76612e-15
2.90788e-15
2.99925e-15
1.77599e-15
1.65436e-15
2.3591e-15
2.08723e-15
2.26991e-15
2.43826e-15
2.59827e-15
2.79395e-15
3.00909e-15
3.03893e-15
3.12214e-15
3.08229e-15
2.90832e-15
3.07327e-15
3.12193e-15
2.97991e-15
2.96055e-15
2.96308e-15
2.93772e-15
3.05448e-15
1.92722e-15
2.99114e-15
2.00833e-15
2.31722e-15
2.26732e-15
2.51567e-15
2.6242e-15
2.59607e-15
2.77858e-15
2.89898e-15
3.25109e-15
3.29149e-15
3.19047e-15
3.13864e-15
3.0441e-15
2.80645e-15
2.91046e-15
3.06023e-15
3.11439e-15
2.95391e-15
1.96422e-15
6.5308e-16
1.97047e-15
2.2203e-15
2.39414e-15
2.56658e-15
2.55727e-15
2.50127e-15
2.77633e-15
3.08353e-15
3.3114e-15
3.32371e-15
3.12677e-15
2.95372e-15
3.09218e-15
2.97272e-15
2.83154e-15
2.83083e-15
2.9805e-15
3.23802e-15
1.204e-15
2.74864e-15
1.97123e-15
2.28501e-15
2.39092e-15
2.49361e-15
2.52329e-15
2.51896e-15
2.80495e-15
3.11956e-15
3.47021e-15
3.4345e-15
3.23702e-15
3.14983e-15
2.98622e-15
2.9892e-15
2.73606e-15
2.66001e-15
2.95831e-15
3.23452e-15
)
;

boundaryField
{
    movingWall
    {
        type            zeroGradient;
    }
    fixedWalls
    {
        type            zeroGradient;
    }
    frontAndBack
    {
        type            empty;
    }
}


// ************************************************************************* //
