/*--------------------------------*- C++ -*----------------------------------*\
| =========                 |                                                 |
| \\      /  F ield         | OpenFOAM: The Open Source CFD Toolbox           |
|  \\    /   O peration     | Version:  2312                                  |
|   \\  /    A nd           | Website:  www.openfoam.com                      |
|    \\/     M anipulation  |                                                 |
\*---------------------------------------------------------------------------*/
FoamFile
{
    version     2.0;
    format      ascii;
    arch        "LSB;label=32;scalar=64";
    class       volScalarField;
    location    "100";
    object      epsilon;
}
// * * * * * * * * * * * * * * * * * * * * * * * * * * * * * * * * * * * * * //

dimensions      [0 2 -3 0 0 0 0];

internalField   nonuniform List<scalar> 
12225
(
936.678
1509.32
1777.65
1793.98
1752.48
1670.25
1570.42
1481.58
1405.97
1342.98
1290.95
1248.33
1212.91
1184.33
1159.39
1142.08
1122.6
1117.62
109.95
259.882
333.714
359.005
363.427
361.16
351.997
342.341
334.301
327.935
323.35
320.218
318.142
316.396
315.53
314.491
313.146
313.925
30.0966
67.1238
93.1503
106.926
113.231
114.65
113.82
112.184
109.792
107.62
105.965
104.724
104.051
103.632
103.616
103.849
103.838
104.926
17.8796
29.1853
39.3747
46.5587
51.2356
53.7209
54.9753
55.0188
54.7633
54.1667
53.3595
52.5679
51.7977
51.1999
50.5449
50.2423
49.5525
49.6885
15.3569
19.0018
23.3943
27.0633
29.8969
31.8167
33.1234
33.7947
34.1483
34.1434
34.0307
33.8106
33.4473
33.1397
32.6936
32.4452
31.8874
31.8278
14.8223
15.8174
17.5544
19.4134
21.0159
22.2546
23.2054
23.8449
24.2781
24.5074
24.6085
24.5979
24.5313
24.422
24.2174
24.0833
23.7671
23.7124
14.6763
14.8244
15.2839
16.0986
16.9123
17.617
18.2067
18.6565
18.9931
19.2216
19.3625
19.438
19.4414
19.4213
19.3602
19.2943
19.1313
19.1062
14.6551
14.4546
14.4764
14.6425
14.9523
15.2719
15.5688
15.8185
16.0186
16.1687
16.2704
16.3361
16.3596
16.355
16.3354
16.2995
16.2128
16.2013
14.668
14.3514
14.1557
14.0536
14.0616
14.1034
14.1814
14.2613
14.3309
14.386
14.4217
14.4425
14.4409
14.4297
14.4045
14.3734
14.3097
14.2943
14.6757
14.3358
14.0557
13.8298
13.6742
13.5629
13.4896
13.4394
13.4012
13.3689
13.3363
13.3036
13.2648
13.2253
13.1765
13.1356
13.0687
13.0383
14.6776
14.3376
14.032
13.7594
13.5286
13.3342
13.1721
13.0366
12.9207
12.8202
12.7294
12.6474
12.5689
12.4967
12.4224
12.3586
12.2816
12.2302
14.6775
14.3395
14.0284
13.7428
13.4857
13.2563
13.0528
12.873
12.7131
12.5704
12.4412
12.3242
12.2154
12.1162
12.0202
11.9349
11.8451
11.7745
14.6772
14.3401
14.0281
13.739
13.4726
13.2282
13.0049
12.8016
12.6162
12.4474
12.2926
12.151
12.0197
11.8992
11.7851
11.6817
11.5794
11.492
14.677
14.3401
14.0279
13.7381
13.469
13.2194
12.9879
12.7736
12.5751
12.3914
12.221
12.0633
11.9162
11.78
11.6519
11.5337
11.4204
11.3184
14.6769
14.34
14.0276
13.7375
13.4678
13.2168
12.983
12.7649
12.5615
12.3717
12.1943
12.0286
11.8735
11.7284
11.592
11.4646
11.3439
11.232
14.6768
14.3398
14.0273
13.737
13.467
13.2156
12.9811
12.7621
12.5573
12.3656
12.1859
12.0175
11.8593
11.7107
11.5708
11.4393
11.3151
11.1984
14.6768
14.3397
14.027
13.7366
13.4664
13.2147
12.9799
12.7605
12.5552
12.363
12.1827
12.0134
11.8543
11.7047
11.5637
11.4309
11.3055
11.1872
14.6768
14.3397
14.0269
13.7363
13.466
13.2141
12.979
12.7594
12.5539
12.3614
12.1809
12.0113
11.8519
11.7019
11.5606
11.4273
11.3016
11.1829
14.6768
14.3396
14.0268
13.7362
13.4658
13.2138
12.9787
12.759
12.5534
12.3607
12.1801
12.0104
11.8509
11.7008
11.5594
11.4261
11.3004
11.1816
14.6768
14.3397
14.027
13.7364
13.466
13.2141
12.9791
12.7595
12.5542
12.3618
12.1816
12.0124
11.8536
11.7042
11.5637
11.4314
11.3068
11.189
14.6768
14.3398
14.0271
13.7367
13.4666
13.2153
12.9812
12.7632
12.5599
12.3702
12.1931
12.0276
11.8729
11.728
11.5923
11.4647
11.3454
11.2323
14.677
14.3398
14.0272
13.7378
13.4705
13.2242
12.9978
12.7898
12.5988
12.4232
12.2614
12.112
11.9738
11.8453
11.7261
11.6139
11.5105
11.4107
14.6779
14.3385
14.0297
13.7522
13.5065
13.2915
13.1043
12.9406
12.7967
12.6686
12.5535
12.4485
12.3522
12.2618
12.1783
12.0972
12.0237
11.9472
14.6794
14.3371
14.0751
13.8734
13.7322
13.64
13.5807
13.5416
13.5134
13.4894
13.4663
13.4405
13.4123
13.3792
13.3436
13.3012
13.2626
13.2088
14.6846
14.411
14.4216
14.4963
14.69
14.9202
15.1436
15.3439
15.5109
15.643
15.7427
15.8094
15.852
15.8669
15.8616
15.8462
15.8188
15.7658
14.8082
15.0393
15.8733
16.9025
17.8699
18.7169
19.4042
19.95
20.3536
20.6461
20.8398
20.951
21.0062
21
20.9646
20.8995
20.8293
20.6987
15.6356
18.1168
21.7917
24.9298
27.3826
29.2552
30.5692
31.4837
32.0145
32.3252
32.3997
32.3526
32.2445
32.0123
31.7909
31.4741
31.2392
30.8918
19.9117
33.9067
45.1085
53.0751
58.3586
61.7483
63.5168
64.3257
64.272
63.948
63.3553
62.5261
61.7294
60.8627
60.1806
59.3958
58.9219
58.244
57.9095
118.808
155.111
177.278
189.668
195.648
196.501
195.59
193.33
190.264
187.216
184.452
182.048
179.973
178.369
176.903
176.054
175.008
557.18
767.373
897.445
964.596
979.899
973.415
956.271
928.586
899.402
871.006
844.501
820.35
798.595
779.124
761.743
746.221
732.322
719.869
0.216895
0.264717
0.478362
0.706719
0.924712
1.12301
1.2989
1.45078
1.58027
1.70207
1.81504
1.9215
2.0296
2.14641
2.2816
2.44501
2.65697
2.93695
3.28411
3.68901
4.15408
4.68212
5.28307
5.96259
6.73184
7.59481
8.56033
9.62824
10.8045
12.0858
13.4745
14.9586
16.5363
18.1942
19.9288
21.7252
23.5802
25.4796
27.4217
29.3946
31.3998
33.4293
35.4898
37.5803
39.7168
41.9102
44.0997
46.2993
48.5061
50.7161
52.9323
55.15
57.3723
59.5952
61.8211
64.0472
66.275
68.5029
70.7314
72.96
75.1873
77.4141
79.6369
81.8578
84.0709
86.2821
88.4842
90.6854
92.8768
95.0691
97.251
99.4357
101.609
103.787
105.951
108.122
110.279
112.449
114.615
116.808
119.005
121.213
123.378
125.588
127.767
129.95
132.116
134.276
136.416
138.565
140.731
142.948
145.251
147.972
150.222
152.403
154.602
156.493
158.403
160.183
161.829
163.386
164.631
165.343
165.458
168.35
168.322
169.403
171.779
171.955
172.395
172.231
172.461
173.17
172.567
172.787
171.934
171.034
169.8
168.371
166.7
164.804
162.672
160.304
157.697
154.87
151.829
148.594
145.177
141.596
137.816
133.877
129.816
125.664
121.459
117.207
112.929
108.643
104.449
100.28
96.2852
93.5296
91.2484
89.0283
86.8163
84.6104
82.4228
80.257
78.1214
76.0091
73.8987
71.828
69.8079
67.8265
65.8636
63.9778
62.2071
60.5238
58.9199
57.3852
55.9178
54.52
53.1915
51.9297
50.7345
49.6039
48.5362
47.5285
46.5784
45.6817
44.8357
44.0331
43.2763
42.5362
41.8597
41.0939
40.5145
39.5024
38.8846
36.0887
0.906488
0.562692
0.541651
0.58254
0.647874
0.722648
0.80267
0.886783
0.976362
1.07461
1.18139
1.29831
1.42864
1.57656
1.74709
1.94555
2.17779
2.44829
2.75876
3.10901
3.49946
3.9304
4.4028
4.91678
5.47257
6.06898
6.70496
7.37811
8.08665
8.82709
9.59389
10.3823
11.1895
12.0117
12.8469
13.6923
14.5471
15.4095
16.2793
17.1558
18.0397
18.931
19.8313
20.741
21.6616
22.5921
23.5267
24.4655
25.4079
26.3535
27.3026
28.2544
29.209
30.166
31.1254
32.0867
33.0497
34.0142
34.9798
35.9462
36.9131
37.88
38.8462
39.8115
40.7746
41.7358
42.6943
43.6503
44.6029
45.5527
46.4984
47.4408
48.3782
49.312
50.2402
51.1645
52.0834
52.9996
53.9116
54.821
55.7233
56.618
57.5015
58.3806
59.2465
60.1036
60.9494
61.7861
62.6141
63.4404
64.2652
65.0927
65.9228
66.749
67.489
68.1949
68.8641
69.4689
70.0478
70.58
71.073
71.5335
71.9617
72.3295
72.6205
73.2482
73.3109
74.0646
74.4263
74.5432
74.556
74.6672
74.9376
74.9565
74.7996
74.848
74.5997
74.3234
73.9394
73.4862
72.9521
72.338
71.641
70.8595
69.9921
69.0415
68.0047
66.8856
65.6876
64.4143
63.0642
61.6456
60.1683
58.6404
57.0724
55.4699
53.8409
52.193
50.5436
48.8945
47.2602
45.8295
44.5172
43.2467
41.9947
40.7582
39.54
38.343
37.1692
36.0194
34.8706
33.7337
32.6255
31.5435
30.485
29.4574
28.471
27.5266
26.6236
25.7594
24.9329
24.1441
23.393
22.6786
22.0005
21.3579
20.7498
20.1753
19.6333
19.1222
18.6415
18.188
17.7651
17.3605
16.9998
16.6272
16.3704
16.0901
16.2804
16.5276
1.9312
0.989014
0.81989
0.796214
0.820039
0.868288
0.932238
1.00888
1.09774
1.20005
1.31751
1.45248
1.60781
1.78658
1.99197
2.2268
2.49344
2.79323
3.1264
3.49217
3.88943
4.31684
4.77318
5.25707
5.76725
6.30222
6.86082
7.44204
8.03747
8.64118
9.25832
9.88907
10.5327
11.1879
11.8537
12.5292
13.2141
13.9085
14.6115
15.3228
16.0422
16.7695
17.5046
18.2471
18.9967
19.7524
20.5133
21.2789
22.049
22.8233
23.6016
24.3837
25.1694
25.9583
26.7501
27.5447
28.3417
29.1407
29.9415
30.7435
31.5464
32.3498
33.1529
33.9554
34.7565
35.5559
36.3528
37.147
37.9376
38.7242
39.5061
40.283
41.054
41.8188
42.5768
43.3277
44.0708
44.806
45.5324
46.2493
46.9555
47.65
48.3323
49.0026
49.6596
50.3039
50.9353
51.5541
52.1613
52.7579
53.3436
53.9167
54.473
55.0059
55.5046
55.9785
56.4265
56.8475
57.2477
57.6254
57.9833
58.3235
58.6459
58.9467
59.2372
59.5526
59.7793
60.0956
60.2999
60.4334
60.5175
60.6057
60.7031
60.7064
60.6244
60.568
60.4191
60.2233
59.9634
59.6461
59.2675
58.8251
58.3167
57.7401
57.0944
56.3796
55.5955
54.7436
53.8262
52.8456
51.8041
50.7065
49.5587
48.3665
47.136
45.8729
44.5825
43.2704
41.944
40.6149
39.3009
38.0562
36.8689
35.7145
34.5817
33.468
32.3748
31.3042
30.258
29.2367
28.2349
27.2545
26.3011
25.3649
24.4505
23.5624
22.7019
21.873
21.0768
20.3125
19.58
18.8793
18.2105
17.573
16.9665
16.3905
15.8444
15.3274
14.8388
14.3776
13.9432
13.5338
13.1509
12.7891
12.459
12.1412
11.8797
11.6127
11.5787
11.6465
3.06478
1.43688
1.1358
1.0641
1.06592
1.10349
1.16408
1.24301
1.33903
1.45276
1.58583
1.74036
1.91879
2.12346
2.35634
2.61872
2.91114
3.23323
3.58388
3.96142
4.36397
4.78967
5.23685
5.704
6.18981
6.6929
7.21175
7.7441
8.29198
8.85743
9.43781
10.0323
10.6408
11.2616
11.8931
12.5342
13.1835
13.8427
14.512
15.1911
15.8797
16.5773
17.2836
17.998
18.7201
19.4492
20.185
20.9269
21.6747
22.4281
23.1868
23.9505
24.719
25.4919
26.269
27.0498
27.8341
28.6214
29.4114
30.2035
30.9973
31.7921
32.5875
33.3828
34.1772
34.9701
35.7608
36.5485
37.3323
38.1116
38.8854
39.6529
40.4133
41.1658
41.9096
42.6439
43.3679
44.0807
44.7813
45.4686
46.1417
46.7997
47.442
48.0683
48.678
49.2711
49.8476
50.4075
50.9511
51.4787
51.9896
52.4821
52.9539
53.4025
53.8261
54.2272
54.6068
54.966
55.307
55.6303
55.9372
56.2287
56.503
56.7599
57.002
57.2314
57.433
57.6314
57.7865
57.9019
57.9704
58.0052
58.0186
57.992
57.9243
57.8273
57.6762
57.4768
57.2239
56.9166
56.5519
56.127
55.6395
55.0875
54.4698
53.7859
53.0361
52.2215
51.3438
50.4055
49.4096
48.3603
47.2625
46.1212
44.9417
43.7292
42.489
41.2277
39.952
38.6768
37.4158
36.1896
34.9986
33.8356
32.6961
31.5791
30.4859
29.4183
28.3777
27.3649
26.3787
25.4197
24.4898
23.5866
22.7107
21.8628
21.0357
20.2366
19.466
18.7242
18.0112
17.3278
16.674
16.0495
15.4543
14.8881
14.3502
13.8404
13.3581
12.9025
12.4729
12.0681
11.6886
11.3318
11.0022
10.6929
10.4221
10.1685
10.0057
9.99007
4.18579
1.88544
1.46747
1.35618
1.34158
1.37323
1.43422
1.51785
1.62189
1.7463
1.89219
2.06126
2.25534
2.47606
2.72455
3.00123
3.30575
3.63706
3.9936
4.37349
4.77491
5.19616
5.63589
6.09303
6.56682
7.05661
7.56199
8.08269
8.61907
9.17136
9.73895
10.3211
10.9169
11.5265
12.1495
12.7857
13.4352
14.0976
14.7723
15.4588
16.1566
16.8653
17.5843
18.3132
19.0515
19.7986
20.5541
21.3176
22.0888
22.8672
23.6527
24.4448
25.2432
26.0475
26.8575
27.6726
28.4926
29.3169
30.1451
30.9767
31.8109
32.6473
33.4852
34.3236
35.1619
35.9992
36.8345
37.6669
38.4953
39.3187
40.136
40.9462
41.7481
42.5407
43.3228
44.0934
44.8514
45.5955
46.3246
47.0374
47.7328
48.41
49.068
49.7065
50.3247
50.9226
51.5
52.0566
52.5928
53.1082
53.6029
54.0753
54.5246
54.9497
55.3509
55.7291
56.0856
56.4215
56.7379
57.0352
57.3135
57.5726
57.812
58.032
58.2323
58.4131
58.5716
58.7105
58.8204
58.8858
58.9063
58.8944
58.8675
58.804
58.7019
58.5608
58.3729
58.137
57.8494
57.508
57.1094
56.6509
56.13
55.5449
54.8943
54.1777
53.3953
52.5482
51.6381
50.6676
49.6399
48.5592
47.43
46.257
45.0456
43.8019
42.533
41.2464
39.9479
38.6539
37.3732
36.1167
34.8873
33.6839
32.5054
31.3522
30.2256
29.1274
28.0588
27.0209
26.0136
25.0373
24.0927
23.1792
22.2966
21.4447
20.621
19.8269
19.058
18.3156
17.6001
16.9126
16.2533
15.6222
15.0196
14.4454
13.8983
13.3794
12.888
12.4235
11.9851
11.572
11.184
10.82
10.4817
10.1671
9.88412
9.62751
9.4224
9.323
5.22041
2.33163
1.80477
1.65765
1.62943
1.65684
1.71915
1.80747
1.91841
2.05115
2.20618
2.38461
2.5877
2.81651
3.07167
3.35319
3.66047
3.99238
4.34745
4.72408
5.12078
5.53625
5.96956
6.42006
6.88738
7.37134
7.87193
8.38921
8.92336
9.47442
10.0423
10.6266
11.2272
11.8439
12.4765
13.1247
13.7885
14.4674
15.161
15.8689
16.5905
17.3253
18.0729
18.8327
19.6043
20.387
21.1805
21.9842
22.7979
23.621
24.4532
25.2941
26.1434
27.0005
27.8652
28.737
29.6153
30.4998
31.3898
32.2848
33.1841
34.0869
34.9924
35.8997
36.8079
37.716
38.6227
39.5269
40.4273
41.3226
42.2116
43.0927
43.9647
44.8262
45.6757
46.5118
47.3332
48.1383
48.9257
49.6939
50.4417
51.1679
51.8715
52.5516
53.2078
53.8393
54.446
55.0276
55.5838
56.1149
56.6204
57.0999
57.5528
57.9788
58.3784
58.7524
59.102
59.428
59.7312
60.0119
60.2702
60.5057
60.7183
60.908
61.0744
61.217
61.3353
61.4282
61.4776
61.4865
61.4687
61.423
61.3474
61.2351
61.0829
60.8881
60.6468
60.3562
60.0132
59.6148
59.1579
58.6398
58.0579
57.4107
56.6966
55.9154
55.0673
54.1534
53.1756
52.1367
51.0402
49.8901
48.6912
47.4489
46.1697
44.8608
43.5302
42.1857
40.8356
39.4894
38.1562
36.8436
35.5556
34.2937
33.0588
31.8521
30.6752
29.5296
28.4168
27.3376
26.2925
25.2817
24.3056
23.3639
22.4561
21.5819
20.7399
19.93
19.15
18.3994
17.673
16.9731
16.3
15.6542
15.0363
14.4467
13.8844
13.3507
12.8449
12.3662
11.9142
11.488
11.0873
10.7114
10.361
10.0358
9.73959
9.4723
9.24466
9.08522
6.137
2.75331
2.13342
1.95538
1.9157
1.93968
2.00321
2.09532
2.21144
2.34993
2.51064
2.6941
2.90112
3.13236
3.3882
3.66857
3.97295
4.30044
4.64993
5.02025
5.41032
5.81927
6.24652
6.6917
7.15471
7.63558
8.13446
8.65153
9.18701
9.74101
10.3136
10.9048
11.5144
12.1425
12.7889
13.4535
14.1359
14.836
15.5534
16.2876
17.0383
17.8049
18.587
19.384
20.1954
21.0207
21.8595
22.7112
23.5755
24.4518
25.3398
26.239
27.1489
28.0693
28.9995
29.9392
30.8878
31.8448
32.8095
33.7813
34.7595
35.743
36.7312
37.7228
38.7168
39.712
40.7069
41.7003
42.6906
43.6761
44.6554
45.6267
46.5883
47.5385
48.4756
49.3977
50.3032
51.1902
52.0571
52.902
53.7235
54.5201
55.2905
56.0336
56.7485
57.4345
58.091
58.7175
59.314
59.8801
60.4158
60.9208
61.3947
61.8379
62.2504
62.6332
62.987
63.3127
63.6108
63.8818
64.1259
64.3429
64.5329
64.6956
64.831
64.9382
65.015
65.0515
65.046
65.0137
64.9493
64.8517
64.7185
64.5455
64.33
64.0687
63.7587
63.3968
62.9803
62.506
61.9711
61.3728
60.7089
59.9776
59.178
58.3096
57.373
56.3693
55.3009
54.1706
52.9823
51.7408
50.4518
49.1217
47.7578
46.3678
44.96
43.5423
42.1229
40.7099
39.3111
37.933
36.5799
35.2544
33.9584
32.6937
31.4618
30.2643
29.1026
27.9774
26.8893
25.8384
24.8248
23.8482
22.9082
22.0042
21.1353
20.3007
19.499
18.7292
17.9887
17.2739
16.5838
15.9198
15.2832
14.6749
14.0949
13.5433
13.02
12.5245
12.0561
11.6143
11.1987
10.8086
10.4444
10.1062
9.79617
9.51546
9.27007
9.06833
6.92903
3.14367
2.44496
2.23958
2.18947
2.21002
2.27408
2.36879
2.48839
2.63046
2.7942
2.97967
3.18729
3.41749
3.67055
3.94647
4.24496
4.56546
4.9073
5.26972
5.65209
6.05388
6.47477
6.91464
7.37352
7.85157
8.34903
8.86618
9.40328
9.96056
10.5382
11.1364
11.7552
12.3945
13.0545
13.735
14.436
15.1571
15.8981
16.6588
17.4386
18.2373
19.0544
19.8894
20.7418
21.6112
22.497
23.3988
24.3162
25.2487
26.1958
27.1571
28.1322
29.1205
30.1218
31.1353
32.1607
33.1972
34.2442
35.301
36.3667
37.4403
38.5209
39.6073
40.6981
41.7919
42.8873
43.9825
45.0758
46.1654
47.2492
48.3253
49.3916
50.4461
51.4865
52.5109
53.517
54.5027
55.4659
56.4046
57.3169
58.2008
59.055
59.8778
60.6682
61.425
62.1475
62.835
63.4869
64.1033
64.6837
65.2281
65.7362
66.2081
66.6443
67.0454
67.4119
67.7446
68.0442
68.311
68.5453
68.7474
68.9174
69.0551
69.1604
69.2286
69.255
69.2384
69.1893
69.1047
68.983
68.8225
68.6209
68.3753
68.0828
67.7408
67.3464
66.8968
66.3891
65.8207
65.1888
64.4911
63.7255
62.8906
61.9856
61.0105
59.966
58.8537
57.6764
56.4376
55.142
53.7956
52.405
50.9773
49.5201
48.0414
46.5493
45.0519
43.557
42.072
40.6039
39.1586
37.7403
36.3522
34.9966
33.6753
32.39
31.142
29.9326
28.7626
27.6322
26.5415
25.4903
24.4783
23.5049
22.5695
21.6714
20.8094
19.9826
19.1897
18.4287
17.6973
16.9897
16.3067
15.6506
15.0229
14.4239
13.8538
13.3125
12.7996
12.3144
11.8565
11.4253
11.0204
10.6419
10.2899
9.96571
9.67055
9.40859
9.17455
7.79467
3.53984
2.74614
2.50752
2.44418
2.45945
2.52255
2.61841
2.74
2.88404
3.04914
3.23488
3.44136
3.66884
3.91758
4.18768
4.47912
4.79167
5.12503
5.47887
5.85287
6.24683
6.66067
7.09442
7.54825
8.02241
8.51721
9.033
9.57015
10.129
10.7098
11.3129
11.9385
12.5867
13.2577
13.9514
14.668
15.4073
16.1691
16.9534
17.7597
18.5879
19.4375
20.3082
21.1996
22.1112
23.0427
23.9935
24.9633
25.9517
26.9581
27.9822
29.0235
30.0817
31.1561
32.2462
33.3516
34.4715
35.6053
36.7521
37.911
39.081
40.2609
41.4493
42.6449
43.8461
45.051
46.2577
47.4643
48.6685
49.8681
51.0607
52.2438
53.4151
54.5719
55.7117
56.8319
57.93
59.0034
60.0498
61.0667
62.0521
63.0039
63.9203
64.7997
65.6408
66.4423
67.2034
67.9236
68.6021
69.2389
69.8336
70.3861
70.8963
71.3647
71.7917
72.1778
72.5237
72.8299
73.097
73.3252
73.5151
73.6666
73.7803
73.8507
73.8748
73.8525
73.791
73.6881
73.5431
73.3543
73.1203
72.8388
72.5076
72.1241
71.6861
71.191
70.6363
70.0194
69.3381
68.5899
67.7732
66.8862
65.9281
64.8986
63.798
62.6279
61.3905
60.0892
58.7289
57.3153
55.8552
54.356
52.8254
51.2709
49.7005
48.1223
46.5442
44.9736
43.4176
41.8823
40.3732
38.8944
37.4491
36.0397
34.6679
33.335
32.0423
30.7908
29.5811
28.4134
27.2873
26.2026
25.1586
24.1547
23.1904
22.2648
21.3768
20.5254
19.7093
18.9269
18.1761
17.4514
16.75
16.0754
15.4292
14.8121
14.2244
13.6659
13.1362
12.635
12.1615
11.7153
11.296
10.9034
10.5377
10.1997
9.89017
9.61254
9.35406
9.06678
3.99285
3.0474
2.75889
2.67566
2.68215
2.74206
2.83747
2.9598
3.10478
3.27035
3.45564
3.66044
3.88484
4.12907
4.39331
4.67774
4.98239
5.3073
5.65242
6.01776
6.40335
6.80932
7.23584
7.68322
8.1518
8.642
9.15424
9.68899
10.2467
10.8278
11.4327
12.0617
12.7152
13.3935
14.0966
14.8248
15.5781
16.3566
17.1602
17.9888
18.8423
19.7206
20.6232
21.55
22.5006
23.4747
24.4719
25.4918
26.5341
27.5984
28.6843
29.7914
30.9192
32.0673
33.2351
34.4221
35.6275
36.8507
38.0908
39.3467
40.6173
41.9014
43.1974
44.5037
45.8186
47.14
48.4657
49.7934
51.1207
52.4449
53.7632
55.0727
56.3707
57.654
58.9196
60.1646
61.3859
62.5805
63.7455
64.8782
65.9759
67.0363
68.057
69.0361
69.9718
70.8626
71.7073
72.505
73.2551
73.957
74.6104
75.2149
75.7707
76.2777
76.7365
77.1474
77.511
77.8278
78.0982
78.3227
78.5016
78.6355
78.7206
78.7537
78.7349
78.6685
78.5536
78.3894
78.1751
77.9094
77.5907
77.2171
76.7867
76.2973
75.7471
75.1339
74.4558
73.7106
72.8966
72.0122
71.0562
70.0278
68.9268
67.7536
66.5098
65.1977
63.8208
62.3836
60.8917
59.3519
57.7719
56.1598
54.5238
52.8712
51.2098
49.5474
47.8916
46.2497
44.6279
43.032
41.4668
39.9361
38.4429
36.9892
35.5764
34.2055
32.8772
31.5926
30.3521
29.1552
28.0016
26.8905
25.8211
24.7928
23.8049
22.8565
21.9466
21.0741
20.2377
19.4358
18.6665
17.9247
17.2066
16.5156
15.8533
15.2205
14.6172
14.0435
13.499
12.9833
12.4957
12.0359
11.6032
11.1976
10.8191
10.468
10.1448
9.8523
9.57408
10.2738
4.41366
3.31981
2.9805
2.87584
2.87234
2.92743
3.0213
3.14358
3.28899
3.4548
3.63967
3.84306
4.06489
4.30528
4.56447
4.84272
5.14027
5.45736
5.79418
6.15098
6.52798
6.92549
7.34386
7.78351
8.2449
8.72855
9.23502
9.76489
10.3187
10.8972
11.5007
12.1298
12.7851
13.4667
14.1753
14.9109
15.674
16.4648
17.2834
18.13
19.0046
19.9073
20.8379
21.7964
22.7824
23.7959
24.8366
25.9041
26.9982
28.1187
29.265
30.437
31.6341
32.8559
34.1019
35.3716
36.6641
37.9786
39.3144
40.6702
42.0448
43.4368
44.8445
46.2662
47.6998
49.143
50.5933
52.0482
53.5048
54.9601
56.4109
57.8538
59.2856
60.7028
62.1018
63.4791
64.8312
66.1546
67.446
68.702
69.9196
71.0959
72.2282
73.314
74.3512
75.3379
76.2726
77.1541
77.9814
78.7539
79.4711
80.1324
80.7378
81.2874
81.7812
82.2197
82.6033
82.9323
83.2072
83.4283
83.5958
83.7087
83.7631
83.759
83.6977
83.5795
83.4037
83.1697
82.8764
82.5227
82.1069
81.6277
81.0832
80.472
79.7923
79.0428
78.2219
77.3284
76.3611
75.3196
74.2034
73.0131
71.7496
70.4146
69.0109
67.5423
66.0137
64.4302
62.7984
61.1261
59.4219
57.6949
55.9542
54.2056
52.4566
50.7152
48.9885
47.2832
45.6049
43.9587
42.3487
40.7783
39.2497
37.7646
36.3237
34.9274
33.5757
32.2701
31.0104
29.7957
28.6251
27.4975
26.412
25.3678
24.3641
23.4001
22.4748
21.587
20.7352
19.918
19.1334
18.3763
17.6445
16.9405
16.2657
15.6204
15.0049
14.419
13.8624
13.3346
12.8352
12.3637
11.9196
11.5025
11.1125
10.7496
10.414
10.1079
9.81352
11.3315
4.775
3.54882
3.1632
3.03774
3.02463
3.07504
3.16713
3.28917
3.43501
3.60132
3.78629
3.98909
4.20939
4.4472
4.70272
4.97622
5.26805
5.57856
5.90812
6.25711
6.62596
7.01511
7.42506
7.85639
8.30967
8.7856
9.28485
9.80817
10.3563
10.93
11.5299
12.1568
12.8112
13.4936
14.2046
14.9446
15.7142
16.514
17.3442
18.2055
19.0981
20.0223
20.9781
21.9657
22.985
24.0359
25.1184
26.2322
27.3772
28.5532
29.7599
30.9969
32.2639
33.5604
34.886
36.2399
37.6215
39.0298
40.4638
41.9224
43.4042
44.9075
46.4306
47.9714
49.5275
51.0966
52.6757
54.262
55.8521
57.4427
59.0301
60.6106
62.1804
63.7355
65.2718
66.7853
68.2719
69.7278
71.1489
72.5316
73.8723
75.1675
76.414
77.6092
78.7502
79.835
80.8616
81.8285
82.7346
83.5788
84.3606
85.0794
85.7348
86.3268
86.8554
87.3207
87.7231
88.0629
88.3403
88.5553
88.7076
88.7957
88.8174
88.7721
88.66
88.4814
88.2355
87.9211
87.5373
87.0826
86.5559
85.9558
85.2809
84.53
83.7022
82.7965
81.8122
80.7489
79.6066
78.3863
77.0888
75.7163
74.2716
72.7576
71.1787
69.5402
67.8492
66.1109
64.3327
62.5236
60.6933
58.8514
57.0059
55.1625
53.3303
51.5169
49.7288
47.9719
46.2508
44.5694
42.931
41.3378
39.7915
38.2927
36.8415
35.437
34.0775
32.7658
31.5014
30.2827
29.1082
27.9765
26.8863
25.8369
24.8273
23.8569
22.9246
22.0289
21.1686
20.3421
19.5469
18.7786
18.0379
17.3258
16.643
15.9898
15.3661
14.7718
14.2066
13.6701
13.1617
12.6811
12.2278
11.8014
11.4018
11.0288
10.6824
10.3643
10.057
12.1982
5.0643
3.7276
3.30276
3.15927
3.13769
3.184
3.2746
3.39668
3.54336
3.7108
3.8968
4.1002
4.32046
4.55741
4.81115
5.08192
5.37006
5.67599
6.00015
6.34306
6.70523
7.08728
7.48983
7.9136
8.35936
8.82794
9.3202
9.83706
10.3794
10.9483
11.5448
12.1693
12.8225
13.5051
14.2178
14.9614
15.7366
16.5443
17.3854
18.2605
19.1706
20.116
21.0971
22.1141
23.1671
24.2564
25.382
26.5438
27.7417
28.9755
30.245
31.5499
32.8899
34.2644
35.673
37.115
38.5894
40.0953
41.6316
43.1969
44.7896
46.4079
48.0499
49.7131
51.395
53.0927
54.8031
56.5228
58.2483
59.9756
61.7008
63.4195
65.1275
66.8203
68.4934
70.1421
71.7621
73.3487
74.8977
76.4048
77.8659
79.2772
80.635
81.9362
83.1777
84.3569
85.4715
86.5198
87.5003
88.412
89.2538
90.0253
90.7258
91.3552
91.9134
92.4002
92.8158
93.1603
93.434
93.6364
93.767
93.8238
93.805
93.7074
93.5333
93.2826
92.9538
92.5454
92.0563
91.485
90.8304
90.0913
89.2669
88.3561
87.359
86.2751
85.105
83.8492
82.5096
81.0886
79.5889
78.0141
76.3703
74.6612
72.8929
71.0722
69.2026
67.2914
65.3527
63.397
61.4355
59.4799
57.5436
55.6278
53.7342
51.8699
50.0409
48.2518
46.5066
44.8081
43.1585
41.5594
40.0116
38.5151
37.0691
35.6719
34.32
33.0211
31.7707
30.5658
29.4044
28.2844
27.2042
26.1635
25.1594
24.1933
23.264
22.3697
21.509
20.6801
19.8801
19.1085
18.3655
17.6515
16.9664
16.3104
15.6834
15.0853
14.5157
13.9742
13.4604
12.9739
12.5143
12.0811
11.6741
11.2933
10.9381
10.6099
10.2925
12.8465
5.27433
3.85313
3.39809
3.24057
3.21246
3.25588
3.34582
3.46871
3.61712
3.78679
3.97522
4.18094
4.4032
4.64164
4.89622
5.1671
5.45457
5.75905
6.08102
6.42105
6.77974
7.15781
7.55604
7.97528
8.41649
8.88071
9.36915
9.88267
10.4222
10.989
11.584
12.2081
12.8624
13.5477
14.2651
15.0155
15.8002
16.6202
17.4767
18.3707
19.3031
20.2745
21.2858
22.3372
23.4295
24.5631
25.7381
26.9544
28.2121
29.5108
30.8505
32.2308
33.6512
35.1112
36.6102
38.1472
39.7214
41.3314
42.976
44.6535
46.3623
48.1
49.8645
51.6531
53.4628
55.2904
57.1324
58.9851
60.8444
62.706
64.5655
66.4182
68.2592
70.0838
71.8868
73.6633
75.4083
77.117
78.7844
80.406
81.9774
83.4942
84.9525
86.3487
87.6793
88.9416
90.1328
91.2509
92.2944
93.2617
94.1521
94.9646
95.6987
96.3539
96.9299
97.4265
97.8436
98.1812
98.4392
98.6169
98.7139
98.7262
98.6512
98.4859
98.2347
97.8954
97.4661
96.9454
96.3317
95.6237
94.8203
93.9205
92.9239
91.8302
90.64
89.3545
87.9747
86.5028
84.9423
83.2989
81.5761
79.7795
77.9065
75.9697
73.9824
71.9568
69.9108
67.8544
65.7853
63.7136
61.6506
59.6083
57.6038
55.6187
53.6694
51.7632
49.905
48.0981
46.3451
44.6474
43.0058
41.4208
39.892
38.4184
36.9983
35.6288
34.3041
33.0317
31.807
30.6272
29.4898
28.3925
27.3334
26.3121
25.3261
24.3772
23.4631
22.581
21.7299
20.9074
20.1128
19.347
18.6098
17.9008
17.2201
16.5673
15.9427
15.3458
14.7765
14.2344
13.7191
13.2303
12.7675
12.3305
11.9189
11.5325
11.171
10.835
10.5102
13.2522
5.39932
3.92437
3.45029
3.28408
3.25234
3.29489
3.38582
3.51109
3.66295
3.83683
4.02998
4.24072
4.46807
4.71154
4.97092
5.24627
5.53781
5.84592
6.1711
6.51393
6.87509
7.25535
7.6556
8.0769
8.52038
8.98701
9.47782
9.99406
10.537
11.108
11.7083
12.3394
13.0024
13.6988
14.4298
15.197
16.0016
16.8451
17.7288
18.654
19.6217
20.6329
21.6886
22.7893
23.9355
25.1277
26.3665
27.652
28.9841
30.3625
31.7869
33.2567
34.7715
36.3304
37.9325
39.5767
41.2617
42.986
44.7478
46.5454
48.3764
50.2384
52.1286
54.0442
55.9816
57.9373
59.9075
61.8878
63.874
65.8612
67.8447
69.8194
71.7802
73.7217
75.6387
77.5258
79.3777
81.1892
82.9552
84.6709
86.3316
87.9327
89.4699
90.9394
92.3376
93.6612
94.9075
96.074
97.159
98.1611
99.079
99.9118
100.659
101.32
101.894
102.38
102.779
103.091
103.313
103.446
103.488
103.437
103.282
103.03
102.68
102.229
101.676
101.019
100.256
99.3865
98.4085
97.322
96.1269
94.8237
93.414
91.9013
90.2866
88.574
86.7599
84.8502
82.8605
80.8038
78.7062
76.573
74.4033
72.2108
70.0175
67.8026
65.59
63.3928
61.2225
59.0895
57.0026
54.9638
52.9791
51.0534
49.1898
47.39
45.6547
43.9835
42.3758
40.8305
39.346
37.9201
36.5501
35.2324
33.9634
32.7421
31.5661
30.4326
29.3391
28.283
27.2621
26.2759
25.32
24.3978
23.5072
22.6449
21.8114
21.0059
20.2275
19.4778
18.7555
18.0601
17.3911
16.7482
16.1319
15.5419
14.978
14.44
13.9275
13.4402
12.978
12.5404
12.1272
11.7381
11.3726
11.0313
10.7019
13.4981
5.4612
3.9516
3.4669
3.29717
3.26546
3.31011
3.40496
3.53581
3.69465
3.87673
4.0791
4.29993
4.53807
4.79289
5.06406
5.35154
5.6555
5.97631
6.31453
6.67072
7.04554
7.43977
7.8543
8.29011
8.74829
9.23019
9.73715
10.2707
10.8323
11.4236
12.0464
12.7022
13.3929
14.1201
14.8857
15.6912
16.5385
17.4291
18.3645
19.3463
20.3756
21.4537
22.5815
23.7597
24.989
26.2695
27.6013
28.9848
30.4198
31.906
33.4425
35.0287
36.6634
38.3454
40.0735
41.8458
43.6606
45.5158
47.4093
49.3384
51.3006
53.2929
55.312
57.3545
59.4167
61.4945
63.5836
65.6796
67.7776
69.8728
71.9599
74.0339
76.0893
78.1208
80.1227
82.0898
84.0165
85.8976
87.7281
89.5029
91.2174
92.867
94.4473
95.9543
97.3843
98.7339
100
101.18
102.272
103.275
104.187
105.007
105.735
106.369
106.909
107.354
107.704
107.957
108.114
108.171
108.129
107.975
107.712
107.34
106.858
106.262
105.551
104.723
103.775
102.708
101.52
100.211
98.7821
97.2337
95.5669
93.7695
91.8597
89.8488
87.7597
85.6048
83.3813
81.1028
78.7936
76.4331
74.048
71.6549
69.268
66.8945
64.5473
62.2386
59.9792
57.7781
55.6425
53.5765
51.5842
49.668
47.8289
46.0666
44.3794
42.7649
41.2208
39.7443
38.3326
36.982
35.6888
34.4483
33.2561
32.1092
31.0044
29.9388
28.9095
27.9133
26.9485
26.0141
25.107
24.2271
23.3746
22.5482
21.7476
20.9721
20.2206
19.4951
18.7949
18.1195
17.4687
16.8424
16.2411
15.6643
15.1115
14.5825
14.0774
13.596
13.138
12.7033
12.2917
11.9027
11.5362
11.1921
10.8609
13.4891
5.44176
3.93418
3.4534
3.28873
3.26355
3.31709
3.42279
3.56624
3.73957
3.93803
4.15862
4.39945
4.65933
4.93757
5.23379
5.54792
5.88009
6.23058
6.59978
6.98832
7.39695
7.82654
8.27808
8.75272
9.25175
9.77667
10.3291
10.9106
11.5232
12.1687
12.8491
13.5664
14.3228
15.1203
15.961
16.8471
17.7802
18.7623
19.7948
20.8793
22.017
23.2091
24.4567
25.7602
27.1197
28.5352
30.0062
31.532
33.1119
34.7454
36.4311
38.1676
39.9533
41.786
43.6635
45.5834
47.5429
49.5394
51.5697
53.6309
55.7196
57.8323
59.9654
62.115
64.277
66.4473
68.6213
70.7944
72.9619
75.1189
77.2605
79.3815
81.4768
83.5413
85.5696
87.5566
89.4972
91.3863
93.2193
94.9914
96.6982
98.3354
99.8989
101.385
102.789
104.108
105.34
106.481
107.528
108.481
109.338
110.098
110.76
111.323
111.785
112.147
112.406
112.561
112.611
112.557
112.383
112.091
111.682
111.152
110.499
109.719
108.812
107.775
106.605
105.304
103.869
102.296
100.578
98.728
96.7506
94.6784
92.5015
90.2298
87.886
85.4517
82.9529
80.407
77.8315
75.2369
72.6404
70.0587
67.5065
64.9961
62.5399
60.149
57.8332
55.5997
53.4537
51.3985
49.436
47.5666
45.7889
44.1
42.496
40.9719
39.5236
38.1471
36.8377
35.5909
34.4013
33.2634
32.1714
31.1214
30.1094
29.1322
28.1863
27.2679
26.3758
25.5093
24.6663
23.8462
23.0486
22.273
21.519
20.7865
20.075
19.3853
18.7174
18.0713
17.4468
16.8436
16.2628
15.7041
15.1673
14.6524
14.1597
13.6888
13.2395
12.8116
12.405
12.0195
11.655
11.311
10.981
13.3332
5.36599
3.882
3.41813
3.26986
3.26271
3.33538
3.46143
3.62787
3.82706
4.0544
4.30698
4.58298
4.88127
5.20122
5.54253
5.90518
6.28934
6.69536
7.12374
7.57514
8.05035
8.55033
9.0762
9.62926
10.211
10.8229
11.4669
12.1447
12.8584
13.61
14.4018
15.236
16.115
17.0411
18.0167
19.044
20.1245
21.2597
22.451
23.6993
25.0056
26.3702
27.7929
29.2741
30.8135
32.4103
34.0635
35.7717
37.5332
39.3464
41.2088
43.1181
45.0714
47.0654
49.0968
51.1622
53.258
55.3805
57.5262
59.6913
61.8721
64.065
66.266
68.4712
70.6767
72.8784
75.0722
77.2537
79.4189
81.5632
83.6825
85.7724
87.8284
89.8459
91.8205
93.7477
95.6228
97.4417
99.2001
100.894
102.52
104.073
105.551
106.948
108.263
109.491
110.628
111.673
112.623
113.474
114.227
114.879
115.431
115.879
116.223