/*--------------------------------*- C++ -*----------------------------------*\
| =========                 |                                                 |
| \\      /  F ield         | OpenFOAM: The Open Source CFD Toolbox           |
|  \\    /   O peration     | Version:  2312                                  |
|   \\  /    A nd           | Website:  www.openfoam.com                      |
|    \\/     M anipulation  |                                                 |
\*---------------------------------------------------------------------------*/
FoamFile
{
    version     2.0;
    format      ascii;
    arch        "LSB;label=32;scalar=64";
    class       volScalarField;
    location    "100";
    object      epsilon;
}
// * * * * * * * * * * * * * * * * * * * * * * * * * * * * * * * * * * * * * //

dimensions      [0 2 -3 0 0 0 0];

internalField   nonuniform List<scalar> 
12225
(
430.923
270.346
194.533
149.337
122.344
106.45
96.4023
89.4176
84.189
80.0598
76.7028
73.9439
71.7174
69.9251
68.6765
67.789
67.7808
67.6465
96.1456
89.3069
68.5677
52.9342
43.4885
37.524
33.5964
30.8471
28.7923
27.1682
25.8381
24.7198
23.779
22.9542
22.2702
21.622
21.2326
20.4278
40.0518
44.9573
39.542
31.8808
26.5065
22.8265
20.2696
18.4243
17.0278
15.9236
15.0221
14.265
13.6229
13.0588
12.5678
12.1106
11.6879
11.2782
24.7504
29.2897
27.6459
23.9064
20.3782
17.6934
15.6902
14.178
13.0059
12.0701
11.3041
10.6619
10.1159
9.6404
9.2217
8.84336
8.48034
8.15995
18.9911
21.9812
21.4129
19.5407
17.1371
15.1114
13.4858
12.1953
11.1621
10.3216
9.62613
9.04048
8.54069
8.10685
7.7248
7.38402
7.06497
6.7838
16.4245
18.0571
17.7805
16.7058
15.0322
13.4837
12.1554
11.0483
10.1309
9.36699
8.72495
8.17917
7.71029
7.3026
6.94366
6.62481
6.33301
6.07454
15.1871
15.7957
15.5299
14.7468
13.5319
12.3246
11.231
10.2799
9.46584
8.77153
8.17774
7.66679
7.22396
6.83696
6.49557
6.19226
5.91813
5.67422
14.5758
14.4636
14.0737
13.3647
12.4236
11.4507
10.5358
9.71361
8.9905
8.36019
7.81188
7.33391
6.91558
6.54744
6.22137
5.93094
5.66967
5.43616
14.2764
13.6798
13.099
12.4041
11.6013
10.7786
9.99328
9.27302
8.62684
8.05359
7.54744
7.10086
6.70615
6.35618
6.04455
5.76588
5.5152
5.2901
14.1343
13.2141
12.4652
11.7383
10.9956
10.2624
9.56567
8.92197
8.33781
7.81323
7.34472
6.92713
6.55484
6.22236
5.92462
5.65716
5.41598
5.19843
14.0699
12.9443
12.0604
11.2838
10.5572
9.87135
9.23111
8.64163
8.10486
7.61976
7.18329
6.79139
6.43959
6.12349
5.83894
5.58219
5.3499
5.13946
14.0445
12.8056
11.83
11.0063
10.2734
9.60601
8.99562
8.4389
7.93336
7.47603
7.06332
6.69128
6.35591
6.05333
5.77989
5.53231
5.30765
5.10345
14.033
12.7251
11.6828
10.8171
10.0694
9.40709
8.81298
8.27742
7.79401
7.35764
6.96375
6.6081
6.28673
5.99597
5.73248
5.49326
5.27563
5.07728
14.0281
12.6775
11.5854
10.6818
9.91425
9.24792
8.66066
8.13814
7.67053
7.25053
6.87231
6.531
6.22239
5.94279
5.68897
5.45806
5.24757
5.05528
14.0264
12.6532
11.5292
10.5964
9.80908
9.13345
8.54557
8.02846
7.56988
7.1607
6.79383
6.46363
6.16544
5.89537
5.65011
5.4268
5.22299
5.03657
14.0259
12.6428
11.5018
10.5503
9.74741
9.06162
8.46908
7.95191
7.49662
7.0929
6.73274
6.40978
6.11889
5.85589
5.61727
5.4001
5.2019
5.02052
14.0258
12.6391
11.4905
10.5295
9.71713
9.02369
8.42607
7.90645
7.45097
7.04883
6.6915
6.37217
6.08537
5.82663
5.59227
5.37923
5.18496
5.00726
14.0258
12.638
11.4869
10.5222
9.70574
9.00844
8.40772
7.88597
7.42939
7.02704
6.67023
6.35199
6.06666
5.80964
5.57714
5.36601
5.17361
4.99775
14.0258
12.6382
11.4875
10.5233
9.70743
9.01053
8.40999
7.8882
7.43135
7.02856
6.6712
6.35231
6.0663
5.8086
5.57542
5.36364
5.17063
4.9942
14.0259
12.6414
11.4973
10.5415
9.73403
9.04415
8.44843
7.92911
7.47259
7.06839
6.70829
6.38579
6.0956
5.83343
5.59571
5.37946
5.18214
5.00162
14.0266
12.6549
11.5315
10.5978
9.80848
9.1305
8.54029
8.02109
7.5607
7.14994
6.78171
6.45028
6.151
5.87993
5.63375
5.40962
5.20508
5.01798
14.0313
12.7042
11.6361
10.7489
9.98855
9.32202
8.72975
8.19955
7.72305
7.29387
6.90673
6.55707
6.24082
5.95435
5.69444
5.45818
5.24303
5.04669
14.0551
12.8563
11.9056
11.0922
10.3583
9.68409
9.06431
8.49742
7.98183
7.51501
7.09358
6.71369
6.37134
6.06266
5.78399
5.53201
5.30369
5.09634
14.1519
13.2596
12.5072
11.7753
11.028
10.2918
9.59252
8.94574
8.35774
7.82875
7.35555
6.93334
6.55676
6.22054
5.9198
5.65012
5.40766
5.18885
14.4813
14.2087
13.7165
13.0177
12.1404
11.2329
10.3699
9.58366
8.88342
8.26671
7.72602
7.25223
6.8363
6.47002
6.14622
5.85877
5.60264
5.37291
15.4704
16.2818
16.012
15.1838
13.9023
12.6382
11.4938
10.4975
9.6449
8.91887
8.2998
7.76951
7.31237
6.91569
6.56909
6.26428
5.99493
5.75423
18.3032
20.8544
20.4004
18.8309
16.6881
14.8009
13.2292
11.9479
10.9064
10.054
9.34861
8.75756
8.25611
7.82614
7.45346
7.12777
6.84156
6.58537
27.0838
31.541
29.5753
25.4032
21.6396
18.7341
16.5359
14.8695
13.5848
12.571
11.7513
11.0742
10.504
10.0172
9.59502
9.22657
8.90234
8.60956
62.9932
62.4157
52.4721
41.5211
34.3582
29.4622
26.0486
23.6058
21.7899
20.3833
19.2518
18.3146
17.5186
16.8336
16.2316
15.7041
15.2316
14.803
317.812
196.894
144.154
113.611
93.9839
81.2299
72.6948
66.6811
62.2078
58.7078
55.8482
53.4367
51.3559
49.5385
47.922
46.4904
45.1817
44.0181
0.0566503
0.040349
0.0584556
0.077055
0.0932302
0.107063
0.117933
0.126686
0.135844
0.150438
0.174821
0.207807
0.248855
0.298401
0.356998
0.42514
0.502966
0.59036
0.686646
0.79106
0.902596
1.02056
1.1442
1.27306
1.40349
1.53506
1.66649
1.79733
1.9266
2.0543
2.1796
2.30274
2.42293
2.54056
2.65484
2.76621
2.87382
2.97822
3.07847
3.17512
3.26719
3.35523
3.43832
3.51729
3.59176
3.6635
3.73115
3.79485
3.85386
3.9087
3.95843
4.00344
4.04282
4.07679
4.10447
4.12563
4.13496
4.15477
4.15549
4.15745
4.14748
4.13184
4.10915
4.07899
4.0419
3.99894
3.95055
3.89607
3.83625
3.77086
3.70091
3.62617
3.54778
3.4655
3.38056
3.29269
3.20322
3.11189
3.01997
2.92716
2.83482
2.74298
2.65403
2.57359
2.52063
2.49089
2.468
2.44622
2.42454
2.40252
2.38013
2.3576
2.33509
2.31271
2.29052
2.26861
2.24703
2.22586
2.20515
2.18493
2.16526
2.14614
2.12762
2.1097
2.0924
2.07573
2.05968
2.04423
2.0294
2.01515
2.00148
1.98836
1.97579
1.96379
1.95237
1.94148
1.9311
1.9212
1.91178
1.90279
1.89423
1.88606
1.87828
1.87085
1.86379
1.85703
1.8506
1.84448
1.83867
1.83315
1.82792
1.82293
1.8182
1.81368
1.80937
1.80525
1.80132
1.79756
1.79397
1.79054
1.7873
1.78421
1.78121
1.77897
1.77643
1.77441
1.77198
1.77005
1.768
1.76578
1.76398
1.76193
1.76007
1.75834
1.7565
1.7544
1.75289
1.75101
1.74943
1.748
1.74614
1.7447
1.74302
1.74129
1.73932
1.73741
1.73542
1.73277
1.72995
1.72668
1.72231
1.71699
1.71028
1.70132
1.6897
1.67339
1.65369
1.61661
1.58493
1.45558
0.169047
0.0832332
0.0679661
0.0698522
0.0779981
0.089415
0.102913
0.118138
0.135248
0.155162
0.179048
0.20681
0.237783
0.271221
0.307468
0.346524
0.388517
0.4323
0.477236
0.522838
0.568656
0.614417
0.659874
0.704568
0.747818
0.789674
0.830056
0.869049
0.906668
0.943085
0.978323
1.01254
1.04574
1.07806
1.10946
1.14002
1.16967
1.19851
1.22644
1.25354
1.27976
1.30522
1.32999
1.35441
1.37892
1.40442
1.43122
1.45707
1.48186
1.50555
1.52795
1.54899
1.56849
1.58635
1.6024
1.61657
1.6288
1.64016
1.64838
1.65506
1.65889
1.65986
1.65847
1.65465
1.64832
1.63962
1.6287
1.61547
1.60004
1.58245
1.56285
1.54133
1.51808
1.4932
1.46691
1.4393
1.41065
1.38104
1.35074
1.31986
1.28873
1.25761
1.22717
1.19874
1.17474
1.15504
1.13754
1.12093
1.10469
1.08861
1.07261
1.05673
1.04102
1.02551
1.01023
0.995217
0.98049
0.966071
0.951976
0.938224
0.924821
0.91178
0.899103
0.886798
0.874866
0.863308
0.852118
0.841294
0.830826
0.82071
0.810942
0.801521
0.792434
0.783678
0.775245
0.767125
0.759307
0.751781
0.744534
0.737556
0.730834
0.724359
0.718125
0.712124
0.706344
0.700775
0.695408
0.69024
0.685268
0.680483
0.675879
0.671449
0.667185
0.663079
0.659123
0.65531
0.651634
0.64809
0.644672
0.641377
0.638215
0.635136
0.632366
0.62846
0.62682
0.622605
0.621692
0.617891
0.615689
0.614837
0.611202
0.610777
0.607463
0.607327
0.603941
0.60349
0.601774
0.600901
0.597799
0.59752
0.596702
0.593872
0.592606
0.592741
0.590424
0.589278
0.589531
0.587387
0.586353
0.586686
0.584712
0.583761
0.584146
0.582374
0.58154
0.58175
0.582195
0.58181
0.586715
0.59426
0.296623
0.135349
0.105938
0.102907
0.108785
0.119656
0.134089
0.151427
0.171326
0.193339
0.21677
0.24124
0.266638
0.293037
0.319986
0.347166
0.374003
0.400896
0.427707
0.454337
0.480699
0.506737
0.532376
0.557546
0.582184
0.606319
0.629966
0.65317
0.675958
0.698381
0.720464
0.742251
0.763756
0.785015
0.806032
0.826832
0.847418
0.867817
0.888033
0.908101
0.928042
0.947911
0.967761
0.98768
1.00776
1.02802
1.04828
1.0682
1.08765
1.10654
1.12477
1.14224
1.15883
1.17445
1.18897
1.20232
1.21442
1.22524
1.23446
1.24214
1.24812
1.25218
1.25409
1.25437
1.2528
1.24938
1.24418
1.23718
1.22844
1.21802
1.20598
1.19243
1.17747
1.16119
1.14374
1.12522
1.10577
1.08553
1.06464
1.04324
1.02152
0.999695
0.978109
0.95725
0.937703
0.919544
0.902369
0.885793
0.869588
0.853637
0.837895
0.822363
0.807063
0.79202
0.77725
0.762771
0.748597
0.73474
0.721212
0.70802
0.695168
0.682661
0.670499
0.658683
0.647211
0.636081
0.625287
0.614824
0.604684
0.594862
0.585348
0.576137
0.56722
0.558589
0.550238
0.542157
0.534338
0.526773
0.519452
0.512366
0.505506
0.49887
0.492458
0.486258
0.480257
0.474447
0.468821
0.463374
0.458101
0.452997
0.448054
0.443271
0.438644
0.434165
0.429827
0.425625
0.421552
0.417604
0.413776
0.410068
0.406479
0.402994
0.399675
0.396231
0.393228
0.389925
0.387192
0.384175
0.381378
0.378956
0.376177
0.373927
0.371326
0.369291
0.366863
0.364845
0.362755
0.360891
0.358741
0.356978
0.355333
0.353425
0.351703
0.350335
0.348669
0.347156
0.345991
0.344534
0.343226
0.342275
0.341062
0.34002
0.339375
0.338602
0.337087
0.337039
0.337368
0.338811
0.343049
0.353776
0.381838
0.182301
0.146152
0.140748
0.145494
0.155709
0.169549
0.186057
0.204509
0.224244
0.244681
0.265426
0.286266
0.307099
0.327827
0.348397
0.368741
0.38899
0.409134
0.429159
0.449039
0.468756
0.488284
0.507608
0.526718
0.545624
0.564336
0.582877
0.60126
0.619513
0.637651
0.655701
0.673677
0.691606
0.709502
0.72739
0.745285
0.763214
0.781193
0.799247
0.817395
0.83566
0.854054
0.872586
0.891247
0.909976
0.928674
0.947228
0.965544
0.983533
1.0011
1.01813
1.03454
1.05019
1.06498
1.07879
1.0915
1.103
1.11316
1.12187
1.12906
1.13462
1.13839
1.14026
1.14052
1.13903
1.13581
1.13088
1.12427
1.11604
1.10626
1.09502
1.08242
1.06855
1.05353
1.03748
1.02052
1.00278
0.984383
0.965468
0.946191
0.926726
0.907287
0.888118
0.869446
0.851356
0.83378
0.816613
0.799772
0.783207
0.766899
0.750853
0.735086
0.719623
0.704472
0.689645
0.675154
0.661009
0.647216
0.633781
0.620705
0.60799
0.595635
0.583637
0.571992
0.560695
0.549741
0.539122
0.528833
0.518862
0.509202
0.499842
0.490776
0.481993
0.473485
0.465245
0.457262
0.449528
0.442035
0.434774
0.427736
0.420915
0.414305
0.407899
0.401689
0.395666
0.389823
0.384156
0.378659
0.373326
0.368151
0.363138
0.358283
0.353577
0.349012
0.344582
0.340283
0.336107
0.332053
0.32812
0.324307
0.320607
0.317034
0.313514
0.310165
0.306838
0.303701
0.3006
0.297605
0.294774
0.291945
0.289286
0.286626
0.284148
0.281665
0.27931
0.277004
0.274809
0.272618
0.270541
0.268565
0.266593
0.264694
0.262932
0.261168
0.259474
0.257915
0.256357
0.254873
0.253534
0.252214
0.250996
0.249962
0.249039
0.248046
0.247667
0.247038
0.247651
0.249963
0.256715
0.459001
0.228227
0.185062
0.176464
0.17873
0.186714
0.198221
0.212131
0.227678
0.244256
0.261393
0.27877
0.296201
0.313603
0.330947
0.348164
0.365285
0.382417
0.399536
0.416633
0.433694
0.450708
0.467664
0.484556
0.501382
0.518146
0.534856
0.551525
0.568162
0.584787
0.601413
0.618061
0.634746
0.651493
0.66832
0.68525
0.702304
0.719506
0.736874
0.754429
0.772184
0.790149
0.808322
0.826695
0.845239
0.863904
0.882625
0.901326
0.91993
0.938355
0.956498
0.974251
0.991494
1.0081
1.02395
1.03889
1.0528
1.06553
1.07695
1.08692
1.09532
1.10208
1.10713
1.11029
1.11164
1.11127
1.10911
1.10519
1.09955
1.09224
1.08333
1.07293
1.06111
1.048
1.0337
1.01834
1.00204
0.984926
0.967126
0.948778
0.930024
0.911012
0.891903
0.872855
0.854008
0.835446
0.817191
0.799233
0.781559
0.764161
0.74704
0.730207
0.713671
0.697443
0.681555
0.666024
0.650863
0.636079
0.621679
0.607666
0.59404
0.580801
0.567947
0.555472
0.543373
0.531641
0.52027
0.509254
0.498585
0.488249
0.478237
0.46854
0.459146
0.450048
0.441235
0.432697
0.424427
0.416413
0.408648
0.401123
0.393829
0.386758
0.379902
0.373253
0.366805
0.36055
0.35448
0.34859
0.342873
0.337325
0.33194
0.326714
0.321643
0.316723
0.311947
0.307308
0.302804
0.298427
0.294175
0.29005
0.286053
0.282175
0.278416
0.274753
0.271211
0.267754
0.26442
0.261176
0.258032
0.255004
0.252049
0.249201
0.24642
0.243748
0.241143
0.238626
0.23618
0.233819
0.231518
0.229296
0.227156
0.225072
0.223055
0.221124
0.219246
0.217432
0.215703
0.214028
0.212422
0.21091
0.209464
0.20811
0.206881
0.205781
0.204756
0.204105
0.203455
0.203215
0.204188
0.208129
0.690373
0.302989
0.228791
0.209917
0.207036
0.211216
0.219497
0.230346
0.242892
0.256552
0.270916
0.285704
0.300738
0.315926
0.331176
0.346489
0.361862
0.377323
0.392858
0.408456
0.424105
0.439796
0.455522
0.471279
0.487066
0.502886
0.518743
0.534646
0.550604
0.566631
0.582739
0.598945
0.615267
0.631726
0.648341
0.665136
0.682132
0.699354
0.71682
0.73455
0.752558
0.770851
0.789429
0.808284
0.827389
0.846701
0.866161
0.885699
0.905223
0.924648
0.943875
0.962791
0.981268
0.999169
1.01635
1.03266
1.04794
1.06205
1.07483
1.08614
1.09587
1.10393
1.11022
1.11464
1.11703
1.11761
1.11631
1.11312
1.1081
1.1013
1.09282
1.08273
1.07115
1.05819
1.04397
1.02863
1.01228
0.995073
0.977132
0.958595
0.939601
0.920284
0.90078
0.88122
0.861715
0.842353
0.823188
0.804255
0.785576
0.767171
0.749059
0.731257
0.713785
0.696678
0.679945
0.663599
0.647651
0.63211
0.616981
0.602266
0.587965
0.574078
0.560601
0.547528
0.534853
0.522569
0.510665
0.499128
0.487947
0.477119
0.466634
0.456482
0.446652
0.437134
0.427918
0.418992
0.410348
0.401974
0.393862
0.386005
0.378389
0.371008
0.363852
0.356913
0.350184
0.343657
0.337325
0.331181
0.325219
0.319433
0.313817
0.308367
0.303078
0.297943
0.292958
0.288118
0.283416
0.278848
0.274411
0.270102
0.26592
0.261861
0.257921
0.254091
0.250375
0.24676
0.24326
0.239867
0.236577
0.233393
0.2303
0.227304
0.224393
0.221578
0.218847
0.216202
0.213635
0.211149
0.208737
0.206401
0.204143
0.201955
0.199836
0.197791
0.195812
0.1939
0.192061
0.190288
0.188584
0.18696
0.185411
0.183948
0.182591
0.181353
0.180225
0.179355
0.178629
0.177996
0.178289
0.180432
0.964735
0.383845
0.270707
0.238468
0.229445
0.229327
0.234243
0.242216
0.25217
0.26347
0.275707
0.288605
0.301921
0.315619
0.329555
0.3436
0.35788
0.372348
0.386976
0.401746
0.416646
0.431665
0.446796
0.462037
0.477384
0.492841
0.50841
0.524097
0.53991
0.555858
0.571954
0.588213
0.604651
0.621287
0.638142
0.655239
0.6726
0.69025
0.708207
0.726493
0.745122
0.764108
0.783452
0.803143
0.823152
0.84344
0.863954
0.884629
0.905383
0.926146
0.946802
0.967225
0.987277
1.0068
1.02565
1.04364
1.06061
1.07638
1.09078
1.10367
1.11489
1.12434
1.13189
1.13747
1.14093
1.14236
1.14176
1.13914
1.13454
1.12802
1.11968
1.10963
1.09797
1.08483
1.07034
1.05465
1.03789
1.02021
1.00174
0.982625
0.962999
0.942997
0.922744
0.902362
0.881956
0.861618
0.841419
0.821412
0.801644
0.782148
0.762957
0.744098
0.725599
0.707485
0.689774
0.672481
0.655618
0.639192
0.62321
0.607673
0.592582
0.577933
0.563724
0.549947
0.536596
0.523661
0.511133
0.499001
0.487258
0.47589
0.464886
0.454235
0.443925
0.433944
0.424283
0.414929
0.405872
0.3971
0.388604
0.380369
0.372387
0.364653
0.357157
0.349891
0.342847
0.336017
0.329393
0.322968
0.316736
0.31069
0.304823
0.29913
0.293605
0.288243
0.283037
0.277984
0.273078
0.268314
0.263688
0.259196
0.254834
0.250599
0.246488
0.242494
0.238617
0.23485
0.231195
0.227649
0.224209
0.220874
0.217636
0.214496
0.21145
0.208503
0.205647
0.202879
0.200194
0.19759
0.195068
0.192626
0.190262
0.187973
0.185755
0.183611
0.181538
0.179535
0.177603
0.175741
0.173948
0.172232
0.170592
0.169036
0.167575
0.166225
0.164991
0.163951
0.163085
0.162395
0.162097
0.163204
1.24261
0.460901
0.307412
0.261382
0.245644
0.241729
0.243621
0.249156
0.257029
0.26651
0.277142
0.288642
0.300799
0.313368
0.326274
0.339544
0.353122
0.366969
0.381053
0.395355
0.409859
0.424554
0.439435
0.454497
0.469737
0.485158
0.500759
0.516546
0.532525
0.548704
0.565093
0.581706
0.598558
0.615668
0.633053
0.650737
0.668742
0.687096
0.705811
0.724912
0.744418
0.764343
0.784696
0.805465
0.826629
0.848153
0.869989
0.892076
0.914334
0.93667
0.95897
0.9811
1.00291
1.02424
1.0449
1.06471
1.08348
1.10101
1.11713
1.13163
1.14438
1.15521
1.16401
1.17069
1.17514
1.17736
1.17738
1.1752
1.17088
1.16449
1.15613
1.14593
1.13401
1.1205
1.10556
1.08933
1.07196
1.0536
1.03441
1.01451
0.994061
0.973185
0.952013
0.930661
0.909239
0.88784
0.866545
0.845421
0.824525
0.803904
0.783598
0.763643
0.74407
0.724906
0.706171
0.687883
0.670054
0.652693
0.635806
0.619394
0.603459
0.587996
0.573002
0.558469
0.54439
0.530755
0.517554
0.504775
0.492408
0.48044
0.46886
0.457655
0.446813
0.436321
0.426168
0.416341
0.406829
0.397621
0.388705
0.380071
0.371709
0.363609
0.355761
0.348155
0.340784
0.33364
0.326713
0.319996
0.31348
0.307159
0.301025
0.295076
0.289303
0.283702
0.278267
0.272992
0.267874
0.262906
0.258084
0.253401
0.248856
0.244444
0.240162
0.236004
0.231968
0.22805
0.224246
0.220555
0.216973
0.213498
0.210126
0.206854
0.20368
0.200603
0.19762
0.194728
0.191922
0.189201
0.186567
0.184019
0.181551
0.179161
0.176845
0.174605
0.17244
0.170348
0.168327
0.166378
0.164501
0.162699
0.160974
0.159331
0.157778
0.156329
0.154993
0.153816
0.152806
0.151994
0.151333
0.15183
1.50045
0.529507
0.337799
0.278827
0.256865
0.249454
0.248853
0.252385
0.258627
0.266722
0.276234
0.286684
0.297796
0.309531
0.321796
0.334508
0.347606
0.361047
0.374799
0.388841
0.403157
0.417736
0.432573
0.447662
0.463002
0.478594
0.494437
0.510536
0.526895
0.543521
0.560424
0.577615
0.595107
0.612918
0.631068
0.649566
0.668435
0.687701
0.707383
0.72752
0.748131
0.76923
0.790815
0.812879
0.835405
0.858361
0.881699
0.905358
0.929256
0.953292
0.977344
1.00127
1.02491
1.04809
1.0706
1.09225
1.11283
1.13211
1.14989
1.16597
1.18016
1.19231
1.20228
1.20996
1.21527
1.21818
1.21869
1.21683
1.21265
1.20625
1.19775
1.18728
1.17497
1.16098
1.14547
1.1286
1.11052
1.09139
1.07137
1.05061
1.02924
1.00742
0.985257
0.962884
0.940407
0.917926
0.895527
0.873285
0.851266
0.829525
0.808108
0.787057
0.766406
0.746186
0.72642
0.707126
0.688318
0.670007
0.652197
0.634893
0.618093
0.601794
0.585993
0.570681
0.55585
0.54149
0.52759
0.514139
0.501125
0.488534
0.476354
0.464572
0.453174
0.442148
0.431481
0.421161
0.411174
0.401509
0.392154
0.383099
0.374331
0.365841
0.357618
0.349653
0.341937
0.33446
0.327213
0.32019
0.313382
0.306781
0.300379
0.294172
0.288151
0.282311
0.276645
0.27115
0.265817
0.260641
0.255618
0.250743
0.246012
0.241421
0.236966
0.232643
0.228448
0.224376
0.220424
0.21659
0.212869
0.20926
0.205758
0.202361
0.199064
0.195868
0.192768
0.189761
0.186844
0.184016
0.181274
0.178618
0.176045
0.173552
0.171136
0.1688
0.166543
0.164361
0.162253
0.160216
0.158256
0.156371
0.154562
0.152835
0.151195
0.149654
0.148221
0.146925
0.145783
0.14483
0.143947
0.144009
1.71968
0.58715
0.361882
0.29152
0.264123
0.253536
0.250976
0.252923
0.257965
0.265034
0.273468
0.283015
0.293465
0.30464
0.316422
0.328725
0.341486
0.354661
0.368218
0.382136
0.396401
0.411004
0.425939
0.441203
0.456795
0.472714
0.488963
0.505545
0.522462
0.539722
0.557333
0.575304
0.593651
0.61237
0.631475
0.650974
0.670917
0.691336
0.712254
0.733684
0.75564
0.77813
0.801157
0.824716
0.848785
0.873334
0.898311
0.923652
0.949269
0.975055
1.00088
1.0266
1.05203
1.07698
1.10125
1.12462
1.14685
1.16772
1.18699
1.20446
1.21991
1.23318
1.24412
1.25261
1.25858
1.26199
1.26281
1.26113
1.25693
1.25039
1.24162
1.23078
1.218
1.20346
1.18732
1.16975
1.15092
1.13099
1.11012
1.08847
1.06619
1.04341
1.02027
0.996888
0.973379
0.949846
0.926379
0.90306
0.87996
0.857139
0.834649
0.812537
0.790841
0.769593
0.748819
0.728539
0.708769
0.689521
0.670799
0.652609
0.63495
0.617819
0.601211
0.585119
0.569534
0.554446
0.539843
0.525714
0.512045
0.498824
0.486036
0.473668
0.461707
0.450138
0.438949
0.428126
0.417655
0.407525
0.397724
0.388238
0.379057
0.370169
0.361565
0.353233
0.345164
0.337348
0.329776
0.32244
0.315332
0.308442
0.301765
0.295291
0.289015
0.28293
0.27703
0.271308
0.265759
0.260377
0.255157
0.250092
0.245178
0.240412
0.235788
0.231302
0.226949
0.222725
0.218626
0.21465
0.210793
0.207052
0.203423
0.199903
0.196488
0.193176
0.189964
0.186849
0.183828
0.180897
0.178056
0.175302
0.172633
0.170045
0.167538
0.16511
0.16276
0.160487
0.158288
0.156164
0.154119
0.152152
0.150261
0.148449
0.146725
0.145096
0.14357
0.142166
0.140903
0.139811
0.138826
0.138466
1.87851
0.629664
0.379088
0.299911
0.268223
0.255085
0.250896
0.251667
0.255584
0.261689
0.269426
0.278395
0.288341
0.299085
0.310505
0.322511
0.335043
0.348058
0.361527
0.375431
0.389758
0.404503
0.419661
0.435232
0.451216
0.467614
0.484431
0.501668
0.519328
0.537418
0.555952
0.57491
0.594296
0.614116
0.634416
0.655225
0.676562
0.698438
0.72086
0.743846
0.767402
0.791535
0.816241
0.841507
0.867307
0.893602
0.920334
0.947429
0.974791
1.0023
1.02983
1.05721
1.08426
1.11078
1.13654
1.16133
1.18489
1.207
1.2274
1.24587
1.26222
1.27624
1.2878
1.29678
1.30311
1.30676
1.30764
1.30591
1.30151
1.29467
1.28553
1.27422
1.26091
1.24577
1.22898
1.21071
1.19114
1.17044
1.14877
1.12628
1.10313
1.07946
1.0554
1.03108
1.00662
0.98211
0.957654
0.933337
0.909234
0.885408
0.861918
0.838812
0.816131
0.793913
0.772183
0.750966
0.730277
0.71013
0.690532
0.671486
0.652995
0.635055
0.617662
0.600808
0.584485
0.568682
0.553388
0.53859
0.524276
0.51043
0.49704
0.484092
0.471571
0.459462
0.447753
0.436428
0.425476
0.414881
0.404632
0.394717
0.385122
0.375837
0.366851
0.358151
0.349729
0.341574
0.333677
0.326028
0.318619
0.311441
0.304486
0.297747
0.291216
0.284886
0.278751
0.272803
0.267038
0.261448
0.256028
0.250773
0.245676
0.240734
0.235941
0.231294
0.226786
0.222414
0.218174
0.214061
0.210072
0.206203
0.202452
0.198812
0.195283
0.191859
0.188539
0.185319
0.182197
0.179169
0.176233
0.173386
0.170626
0.167951
0.165357
0.162845
0.160411
0.158055
0.155775
0.15357
0.151441
0.14939
0.147415
0.145519
0.143712
0.141996
0.140379
0.138875
0.1375
0.136277
0.135176
0.134513
1.97377
0.658234
0.390761
0.305088
0.270091
0.254927
0.249386
0.249025
0.252128
0.257606
0.264806
0.27332
0.28288
0.293304
0.304467
0.316281
0.32869
0.341654
0.355147
0.369156
0.383671
0.398693
0.41422
0.430257
0.446803
0.463863
0.481444
0.499562
0.518191
0.53733
0.556971
0.57713
0.597846
0.619141
0.641024
0.663501
0.686568
0.710236
0.734508
0.759387
0.784872
0.810956
0.837622
0.864842
0.892577
0.920771
0.949353
0.978233
1.0073
1.03643
1.06546
1.09423
1.12256
1.15022
1.17701
1.20269
1.22702
1.24976
1.27068
1.28956
1.30619
1.32041
1.33207
1.34105
1.34729
1.35078
1.35141
1.34935
1.34452
1.33722
1.32756
1.31571
1.30183
1.28609
1.26868
1.24976
1.22952
1.20813
1.18574
1.16252
1.13862
1.11418
1.08933
1.06419
1.03889
1.01353
0.988205
0.963007
0.938014
0.913293
0.888905
0.864903
0.84133
0.818226
0.79562
0.773537
0.751997
0.731013
0.710594
0.690746
0.67147
0.652764
0.634624
0.617044
0.600015
0.583526
0.567567
0.552124
0.537185
0.522735
0.50876
0.495247
0.48218
0.469544
0.457326
0.445512
0.434086
0.423036
0.412348
0.40201
0.392009
0.382333
0.372969
0.363908
0.355138
0.346649
0.33843
0.330472
0.322767
0.315304
0.308076
0.301075
0.294292
0.287721
0.281354
0.275185
0.269206
0.263412
0.257796
0.252352
0.247076
0.24196
0.237002
0.232195
0.227535
0.223017
0.218636
0.214388
0.21027
0.206276
0.202405
0.198651
0.195011
0.191481
0.188058
0.184739
0.18152
0.178399
0.175372
0.172437
0.169591
0.166831
0.164156
0.161564
0.159052
0.156619
0.154263
0.151982
0.149779
0.147651
0.1456
0.143628
0.141739
0.139937
0.13823
0.136629
0.135149
0.133806
0.132587
0.131689
1.98881
0.671081
0.397022
0.307649
0.270397
0.253734
0.246973
0.245873
0.248371
0.25335
0.260138
0.268314
0.277604
0.287824
0.298852
0.310603
0.323025
0.336084
0.349761
0.364043
0.378928
0.394419
0.410527
0.427269
0.444624
0.462597
0.481189
0.500392
0.520204
0.540668
0.561814
0.583648
0.606175
0.629398
0.653298
0.677875
0.703121
0.729031
0.755594
0.782796
0.810613
0.839018
0.86797
0.897419
0.927296
0.957523
0.988001
1.01862
1.04924
1.07972
1.10989
1.13959
1.1686
1.19674
1.22379
1.24953
1.27375
1.29622
1.31675
1.33514
1.35121
1.36481
1.37581
1.38411
1.38968
1.39248
1.39246
1.38969
1.38419
1.37624
1.36597
1.35351
1.33905
1.32276
1.30479
1.28533
1.26455
1.24261
1.21968
1.19589
1.17141
1.14637
1.12089
1.09512
1.06915
1.0431
1.01707
0.991146
0.965411
0.939937
0.914785
0.890012
0.865666
0.841787
0.818409
0.795558
0.773256
0.751518
0.730356
0.709775
0.689779
0.670368
0.651538
0.633282
0.615594
0.598462
0.581877
0.565826
0.550295
0.535272
0.520741
0.506688
0.493099
0.479959
0.467253
0.454966
0.443085
0.431596
0.420484
0.409737
0.399343
0.389287
0.379559
0.370146
0.361038
0.352224
0.343693
0.335435
0.327441
0.319701
0.312208
0.304951
0.297924
0.291117
0.284525
0.278139
0.271953
0.265959
0.260152
0.254526
0.249074
0.243791
0.238671
0.233709
0.228901
0.22424
0.219723
0.215345
0.211101
0.206987
0.202999
0.199133
0.195385
0.191752
0.188229
0.184814
0.181502
0.178292
0.175178
0.172159
0.169232
0.166393
0.163641
0.160973
0.158387
0.155881
0.153453
0.151102
0.148828
0.146631
0.14451
0.142466
0.140504
0.138626
0.136838
0.135149
0.133569
0.132113
0.130778
0.129689
1.93616
0.669869
0.39737
0.307473
0.269457
0.251823
0.244388
0.242771
0.244849
0.249484
0.256005
0.263988
0.273163
0.283347
0.294419
0.306303
0.31895
0.332338
0.346467
0.361303
0.376846
0.393106
0.410089
0.427789
0.446191
0.465346
0.485286
0.506045
0.52763
0.550049
0.573308
0.597408
0.622325
0.64804
0.67454
0.701807
0.729817
0.758542
0.787944
0.81798
0.848596
0.879728
0.911301
0.943224
0.975391
1.00769
1.03997
1.0721
1.10391
1.13524
1.1659
1.19572
1.22451
1.25208
1.27825
1.30285
1.3257
1.34664
1.36552
1.38219
1.39653
1.40844
1.41781
1.4246
1.42875
1.43023
1.42909
1.42518
1.41876
1.41
1.39902
1.38596
1.37097
1.35421
1.33584
1.31601
1.29489
1.27262
1.24935
1.22523
1.2004
1.17498
1.14911
1.12291
1.09649
1.06996
1.04342
1.01696
0.990664
0.964607
0.938854
0.913464
0.888489
0.86397
0.839946
0.816445
0.793491
0.771102
0.749291
0.728067
0.707435
0.687394
0.667944
0.649079
0.630792
0.613074
0.595915
0.579304
0.563227
0.547671
0.532622
0.518065
0.503987
0.490373
0.477207
0.464475
0.452164
0.440258
0.428744
0.417609
0.406839
0.396422
0.386345
0.376597
0.367166
0.35804
0.34921
0.340664
0.332393
0.324388
0.316639
0.309137
0.301874
0.294842
0.288032
0.281438
0.275052
0.268867
0.262877
0.257074
0.251454
0.246009
0.240734
0.235623
0.230672
0.225875
0.221226
0.216722
0.212357
0.208127
0.204027
0.200054
0.196203
0.19247
0.188851
0.185343
0.181943
0.178646
0.175449
0.172349
0.169344
0.166429
0.163603
0.160864
0.158208
0.155633
0.153138
0.150721
0.148381
0.146117
0.14393
0.141821
0.139791
0.137843
0.135981
0.134213
0.132546
0.130991
0.129549
0.128301
1.80019
0.65218
0.393115
0.305292
0.2674
0.249669
0.242017
0.240195
0.242081
0.246593
0.253079
0.261119
0.270465
0.28091
0.292341
0.30469
0.317914
0.331987
0.34688
0.36256
0.379076
0.39646
0.414741
0.433955
0.454123
0.475259
0.497382
0.520514
0.544667
0.569843
0.596012
0.623148
0.65123
0.680231
0.710113
0.740834
0.772335
0.804553
0.83741
0.87082
0.90468
0.938877
0.973283
1.00775
1.04213
1.07625
1.10993
1.14298
1.17521
1.20643
1.23647
1.26514
1.29229
1.31777
1.34146
1.36325
1.38305
1.40078
1.41637
1.42978
1.44096
1.44988
1.4565
1.46077
1.46271
1.46223
1.45933
1.45399
1.44643
1.43676
1.42506
1.41146
1.39607
1.37902
1.36046
1.34053
1.31934
1.29702
1.27371
1.24954
1.22463
1.19912
1.17313
1.14676
1.12014
1.09337
1.06655
1.03977
1.01312
0.986675
0.960507
0.934676
0.909237
0.884235
0.85971
0.835696
0.812219
0.789299
0.766952
0.74519
0.724018
0.703439
0.683453
0.664058
0.645246
0.62701
0.609342
0.592229
0.575661
0.559624
0.544105
0.52909
0.514564
0.500514
0.486925
0.473782
0.461071
0.448779
0.43689
0.425392
0.414272
0.403516
0.393112
0.383049
0.373313
0.363894
0.354782
0.345964
0.337432
0.329175
0.321184
0.31345
0.305963
0.298717
0.291701
0.28491
0.278334
0.271967
0.265802
0.259832
0.254051
0.248452
0.243029
0.237777
0.23269
0.227762
0.222988
0.218364
0.213883
0.209542
0.205336
0.201261
0.197311
0.193483
0.189773
0.186177
0.182691
0.179312
0.176036
0.172859
0.169779
0.166792
0.163896
0.161087
0.158364
0.155724
0.153165
0.150685
0.148282
0.145957
0.143709
0.141537
0.139444
0.137431
0.135502
0.133661
0.131916
0.130274
0.128738
0.127361
1.59641
0.609741
0.380345
0.299545
0.263989
0.247233
0.24007
0.238609
0.240766
0.245595
0.252465
0.260969
0.270842
0.281902
0.29408
0.307327
0.321617
0.336946
0.353327
0.370773
0.389296
0.408926
0.429689
0.451619
0.474739
0.499064
0.524602
0.551361
0.579333
0.608481
0.638776
0.670178
0.702635
0.736083
0.770444
0.805627
0.841522
0.878011
0.914953
0.9522
0.98958
1.02691
1.06401
1.10065
1.13662
1.17171
1.20568
1.23832
1.26943
1.29881
1.3263
1.35176
1.3751
1.39625
1.41517
1.43187
1.44638
1.45873
1.469
1.47726
1.48359
1.48804
1.4906
1.49127
1.49013
1.48686
1.48158
1.47444
1.46554
1.45493
1.44265
1.42875
1.4133
1.39636
1.37799
1.35829
1.33738
1.31536
1.29235
1.26845
1.24381
1.21852
1.1927
1.16646
1.13991
1.11315
1.0863
1.05943
1.03265
1.00603
0.97964
0.953551
0.92782
0.902497
0.877624
0.853239
0.829371
0.806044
0.783277
0.761083
0.739471
0.718448
0.698013
0.678167
0.658905
0.64022
0.622106
0.604552
0.587547
0.57108
0.555138
0.539708
0.524776
0.510328
0.496351
0.482829
0.469749
0.457098
0.444861
0.433025
0.421577
0.410504
0.399793
0.389432
0.37941
0.369715
0.360335
0.35126
0.34248
0.333984
0.325764
0.317808
0.31011
0.302659
0.295448
0.288467
0.281711
0.27517
0.268838
0.262708
0.256774
0.251027
0.245463
0.240076
0.234858
0.229806
0.224912
0.220173
0.215582
0.211135
0.206826
0.202652
0.198608
0.194689
0.190891
0.187211
0.183643
0.180185
0.176832
0.173581
0.17043
0.167373
0.164409
0.161535
0.158747
0.156044
0.153424
0.150883
0.148422
0.146038
0.14373