/*--------------------------------*- C++ -*----------------------------------*\
| =========                 |                                                 |
| \\      /  F ield         | OpenFOAM: The Open Source CFD Toolbox           |
|  \\    /   O peration     | Version:  2312                                  |
|   \\  /    A nd           | Website:  www.openfoam.com                      |
|    \\/     M anipulation  |                                                 |
\*---------------------------------------------------------------------------*/
FoamFile
{
    version     2.0;
    format      ascii;
    arch        "LSB;label=32;scalar=64";
    class       volScalarField;
    location    "100";
    object      k;
}
// * * * * * * * * * * * * * * * * * * * * * * * * * * * * * * * * * * * * * //

dimensions      [0 2 -2 0 0 0 0];

internalField   nonuniform List<scalar> 
12225
(
0.308577
0.22614
0.18159
0.152243
0.133294
0.121484
0.113712
0.10815
0.10389
0.100463
0.0976326
0.0952749
0.0933492
0.091786
0.0906778
0.0899085
0.0898611
0.0897385
0.352584
0.255161
0.191008
0.157069
0.137445
0.125048
0.116399
0.109774
0.104366
0.0997873
0.0958503
0.0924288
0.0894745
0.0868456
0.0846398
0.0825982
0.0808731
0.0795568
0.35828
0.290219
0.233329
0.195707
0.171279
0.154752
0.142882
0.133795
0.126468
0.120362
0.115173
0.110691
0.106809
0.103375
0.100414
0.0976998
0.0953254
0.0930171
0.361093
0.310636
0.263698
0.227406
0.201091
0.181856
0.167403
0.156142
0.147054
0.139515
0.133137
0.127654
0.122903
0.118724
0.115069
0.111774
0.108886
0.106107
0.3625
0.322854
0.283686
0.250499
0.224401
0.204127
0.188226
0.175514
0.165122
0.156454
0.149104
0.142785
0.1373
0.132486
0.12825
0.124465
0.121129
0.117993
0.363255
0.330518
0.297222
0.267439
0.242576
0.222314
0.205825
0.192292
0.181041
0.171556
0.16346
0.156472
0.150385
0.145037
0.140315
0.136107
0.132379
0.128924
0.363659
0.335492
0.306642
0.279991
0.256781
0.23714
0.220653
0.206793
0.195064
0.185051
0.176427
0.168935
0.162378
0.156598
0.151476
0.146909
0.142842
0.139099
0.363867
0.338778
0.313305
0.289346
0.267878
0.249177
0.233075
0.219249
0.207351
0.197061
0.18811
0.180273
0.173373
0.167262
0.161824
0.156963
0.152611
0.148618
0.363966
0.340954
0.318037
0.296322
0.276513
0.258883
0.243392
0.229851
0.218019
0.207659
0.198556
0.190521
0.183397
0.177055
0.171384
0.166295
0.161715
0.157515
0.364005
0.342382
0.321374
0.301493
0.283175
0.26663
0.251863
0.238764
0.227169
0.216901
0.20779
0.199684
0.192448
0.185967
0.180142
0.174891
0.170142
0.165782
0.364014
0.343299
0.323691
0.305274
0.288246
0.272724
0.258716
0.246146
0.234898
0.224839
0.215836
0.207764
0.20051
0.193975
0.18807
0.182721
0.177859
0.173388
0.364011
0.343822
0.32513
0.307755
0.291715
0.277038
0.263704
0.251648
0.240777
0.230982
0.222154
0.214189
0.20699
0.20047
0.194551
0.189166
0.18425
0.179721
0.364004
0.344156
0.326124
0.309562
0.294342
0.280406
0.267698
0.256148
0.245669
0.236172
0.227561
0.219748
0.21265
0.206191
0.2003
0.194919
0.189987
0.185434
0.363996
0.344374
0.326845
0.31096
0.296475
0.283246
0.271171
0.26016
0.250126
0.240985
0.232654
0.225055
0.218115
0.211769
0.205956
0.200621
0.195713
0.191171
0.363989
0.344496
0.327304
0.311925
0.298037
0.285425
0.273938
0.263458
0.253886
0.245135
0.237128
0.229792
0.223063
0.216881
0.211193
0.20595
0.201108
0.196617
0.363984
0.344551
0.327549
0.312496
0.299032
0.286896
0.275894
0.26588
0.256737
0.248368
0.240692
0.233639
0.227147
0.221162
0.215634
0.210521
0.205781
0.201376
0.363981
0.344568
0.327651
0.312768
0.299552
0.28772
0.277053
0.267382
0.258572
0.250515
0.243124
0.236324
0.230053
0.224257
0.218891
0.213912
0.209286
0.204978
0.363979
0.344569
0.327677
0.312852
0.299734
0.288035
0.277527
0.268028
0.259394
0.25151
0.24428
0.237628
0.23149
0.225811
0.220546
0.215654
0.2111
0.206853
0.363979
0.344565
0.327659
0.312808
0.299652
0.287906
0.277345
0.267789
0.259098
0.251156
0.243872
0.237169
0.230983
0.225259
0.219951
0.215021
0.210432
0.206157
0.363982
0.344544
0.327549
0.312524
0.299111
0.287041
0.276115
0.266176
0.257102
0.248792
0.241162
0.234141
0.227667
0.221686
0.21615
0.211019
0.206255
0.20183
0.363986
0.344466
0.327227
0.311794
0.29785
0.285183
0.273641
0.263103
0.253469
0.24465
0.236568
0.229152
0.222335
0.216061
0.210277
0.204936
0.199997
0.195429
0.363994
0.344225
0.326402
0.310134
0.295235
0.281601
0.269148
0.257793
0.24745
0.238031
0.229448
0.221621
0.214472
0.207932
0.201937
0.196434
0.191371
0.186714
0.364001
0.343616
0.324616
0.306902
0.290535
0.27556
0.261958
0.24966
0.238565
0.228563
0.219539
0.211386
0.204004
0.197306
0.191212
0.185654
0.180572
0.175927
0.363989
0.342285
0.321211
0.301282
0.282913
0.266298
0.251434
0.23821
0.226467
0.216034
0.206746
0.198452
0.191023
0.184343
0.178315
0.172855
0.167895
0.163389
0.363901
0.339667
0.315261
0.292222
0.271378
0.252994
0.236963
0.223036
0.210928
0.200367
0.191112
0.182958
0.175734
0.1693
0.163539
0.158357
0.153673
0.149445
0.363618
0.334828
0.305349
0.278216
0.254647
0.234689
0.217906
0.203773
0.191801
0.181576
0.172764
0.165102
0.158384
0.152449
0.147169
0.142446
0.138191
0.134372
0.362909
0.325998
0.289011
0.256947
0.230959
0.210193
0.19355
0.180064
0.16897
0.159694
0.151819
0.145044
0.139146
0.133963
0.129366
0.12527
0.121578
0.118283
0.361263
0.309485
0.261536
0.224755
0.197885
0.178062
0.163136
0.151572
0.142323
0.134711
0.128298
0.122798
0.118012
0.113809
0.110071
0.10675
0.103732
0.101066
0.355887
0.276247
0.215129
0.177751
0.154147
0.138539
0.12761
0.119443
0.112976
0.107633
0.103089
0.099153
0.0956931
0.0926348
0.0898863
0.0874499
0.0851949
0.083227
0.302816
0.220067
0.178766
0.152527
0.134412
0.121959
0.11326
0.106925
0.102089
0.0982237
0.0950086
0.0922548
0.0898452
0.087714
0.0857967
0.0840806
0.0824966
0.0810755
0.00109888
0.00145425
0.00186297
0.00224169
0.00254747
0.00279393
0.00298018
0.00312427
0.0032662
0.00348024
0.003832
0.00429011
0.00482981
0.00544452
0.00613005
0.00688331
0.00769741
0.00856539
0.00947539
0.0104175
0.0113805
0.0123581
0.0133434
0.0143365
0.0153106
0.0162636
0.0171889
0.018086
0.0189513
0.0197869
0.02059
0.0213639
0.0221059
0.0228199
0.0235031
0.0241593
0.0247849
0.025384
0.0259527
0.0264947
0.027006
0.02749
0.0279428
0.0283686
0.0287656
0.0291418
0.0294984
0.0298299
0.0301356
0.0304177
0.0306723
0.0309014
0.0311009
0.0312718
0.0314097
0.0315007
0.0316027
0.0316262
0.0316542
0.031677
0.0316205
0.0315411
0.031425
0.0312731
0.0310835
0.0308582
0.0306081
0.0303248
0.0300122
0.0296688
0.0292987
0.0289008
0.0284799
0.028035
0.0275712
0.0270874
0.0265895
0.0260765
0.0255541
0.0250212
0.0244841
0.0239429
0.023408
0.0228976
0.0225007
0.0222775
0.0221214
0.0219785
0.0218371
0.0216935
0.0215469
0.0213987
0.0212499
0.0211011
0.0209526
0.0208051
0.020659
0.0205148
0.0203728
0.0202333
0.0200967
0.0199631
0.0198328
0.0197059
0.0195826
0.0194628
0.0193467
0.0192341
0.0191252
0.0190197
0.0189177
0.018819
0.0187238
0.0186317
0.0185434
0.0184583
0.0183764
0.0182975
0.0182216
0.0181484
0.0180778
0.0180097
0.0179441
0.0178807
0.0178196
0.0177605
0.0177033
0.0176481
0.0175949
0.0175434
0.0174937
0.0174456
0.0173991
0.0173538
0.0173099
0.0172671
0.0172255
0.0171849
0.0171453
0.0171067
0.0170692
0.0170323
0.0169972
0.0169626
0.016932
0.0168995
0.0168692
0.0168383
0.0168064
0.0167771
0.016746
0.016717
0.0166867
0.0166563
0.0166257
0.0165963
0.0165678
0.0165389
0.0165082
0.0164806
0.0164511
0.016422
0.0163915
0.0163615
0.0163318
0.0162989
0.0162658
0.0162316
0.0161928
0.0161514
0.0161057
0.0160511
0.0159879
0.0159126
0.0158196
0.0156975
0.0155498
0.0153059
0.0150414
0.0142428
0.00227646
0.0028195
0.00380171
0.00465142
0.00536872
0.00599004
0.00656263
0.00711982
0.00768485
0.00827503
0.00890087
0.00956598
0.0102731
0.011026
0.0118259
0.0126736
0.0135668
0.0145037
0.0154782
0.016485
0.0175178
0.0185727
0.0196449
0.0207314
0.0218269
0.0229293
0.0240357
0.025139
0.0262377
0.0273324
0.0284222
0.029508
0.0305893
0.0316679
0.0327435
0.0338183
0.0348885
0.0359535
0.0370114
0.0380621
0.0391032
0.0401335
0.04115
0.0421504
0.0431308
0.0440884
0.0450215
0.0459394
0.0468394
0.0477195
0.0485759
0.0494057
0.0502045
0.0509689
0.0516948
0.0523785
0.0530188
0.0536061
0.0541454
0.0546292
0.0550513
0.0554141
0.055714
0.0559497
0.0561074
0.0561823
0.0562069
0.0561653
0.0560587
0.0558882
0.055656
0.0553639
0.0550151
0.0546123
0.0541592
0.0536589
0.053116
0.0525337
0.0519168
0.0512687
0.0505946
0.0498986
0.0491876
0.0484706
0.0477624
0.0470695
0.0463819
0.0456932
0.0450023
0.0443098
0.0436173
0.0429271
0.0422411
0.041561
0.0408883
0.0402243
0.0395699
0.038926
0.0382934
0.0376726
0.0370641
0.0364683
0.0358852
0.0353152
0.0347582
0.0342144
0.0336836
0.0331657
0.0326604
0.0321676
0.0316871
0.0312184
0.0307614
0.030316
0.0298819
0.029459
0.0290467
0.0286449
0.0282532
0.0278712
0.0274986
0.027135
0.0267801
0.0264335
0.0260952
0.0257647
0.025442
0.0251273
0.0248202
0.0245206
0.0242282
0.0239426
0.0236637
0.023391
0.0231245
0.022864
0.0226093
0.0223602
0.0221168
0.0218791
0.0216473
0.0214204
0.0211995
0.020987
0.0207793
0.0205779
0.0203773
0.0201844
0.0199921
0.0198042
0.0196228
0.019443
0.0192699
0.0190958
0.0189301
0.018766
0.018609
0.0184513
0.0182997
0.0181531
0.0180051
0.0178663
0.0177263
0.0175894
0.0174598
0.017328
0.0171994
0.0170766
0.0169512
0.0168279
0.0167099
0.0165876
0.0164656
0.0163495
0.0162277
0.0161089
0.0159745
0.0158596
0.0156578
0.0152896
0.00331786
0.00476365
0.00632144
0.00755594
0.00859821
0.00953738
0.0104268
0.0112983
0.0121701
0.0130528
0.013952
0.0148707
0.0158123
0.0167827
0.0177887
0.0188349
0.0199222
0.0210483
0.0222097
0.0234026
0.0246219
0.0258629
0.0271204
0.0283897
0.029666
0.0309454
0.0322243
0.0335
0.0347703
0.0360345
0.0372916
0.0385416
0.0397843
0.0410203
0.0422495
0.0434728
0.0446896
0.0459004
0.047105
0.0483035
0.0494954
0.0506805
0.0518579
0.0530272
0.0541871
0.0553368
0.0564745
0.0575987
0.0587066
0.0597945
0.0608584
0.0618939
0.0628963
0.0638608
0.0647823
0.0656557
0.0664762
0.0672383
0.0679382
0.0685703
0.0691305
0.0696161
0.0700241
0.0703516
0.0705956
0.0707446
0.0708085
0.070795
0.0707004
0.0705254
0.0702724
0.0699438
0.0695429
0.0690736
0.0685399
0.0679463
0.0672975
0.0665985
0.0658543
0.0650702
0.0642517
0.0634046
0.0625358
0.0616532
0.0607648
0.0598741
0.0589804
0.058083
0.0571827
0.0562812
0.0553804
0.0544828
0.0535908
0.0527064
0.0518315
0.0509675
0.0501158
0.0492774
0.0484532
0.047644
0.0468503
0.0460725
0.045311
0.0445659
0.0438372
0.043125
0.0424293
0.0417497
0.0410862
0.0404383
0.0398059
0.0391886
0.038586
0.0379979
0.0374239
0.0368637
0.0363168
0.0357829
0.0352615
0.0347524
0.034255
0.0337691
0.0332942
0.03283
0.0323761
0.0319324
0.0314987
0.0310754
0.0306619
0.0302578
0.0298628
0.0294767
0.0290989
0.0287293
0.0283677
0.0280138
0.0276675
0.0273285
0.0269969
0.0266729
0.0263564
0.026047
0.0257442
0.0254496
0.0251612
0.0248809
0.024605
0.0243364
0.0240728
0.0238141
0.0235626
0.0233155
0.0230752
0.0228386
0.0226084
0.0223821
0.022162
0.021946
0.0217354
0.02153
0.0213279
0.021132
0.0209395
0.0207501
0.0205664
0.0203856
0.0202078
0.0200348
0.0198641
0.0196957
0.0195315
0.0193684
0.0192064
0.0190494
0.0188937
0.0187427
0.0185892
0.0184602
0.0182707
0.0179615
0.00392941
0.00667193
0.00879086
0.0103589
0.0116471
0.0127886
0.0138568
0.0148942
0.0159246
0.016961
0.0180107
0.0190795
0.0201731
0.0212973
0.0224564
0.0236528
0.0248862
0.0261543
0.0274531
0.028778
0.0301235
0.0314842
0.0328549
0.034231
0.0356082
0.0369833
0.0383535
0.0397168
0.041072
0.0424186
0.043756
0.0450848
0.0464052
0.0477182
0.0490243
0.0503247
0.05162
0.0529114
0.0541994
0.0554847
0.0567678
0.0580488
0.0593276
0.0606037
0.0618761
0.0631435
0.0644035
0.0656535
0.0668902
0.0681095
0.069307
0.0704777
0.0716161
0.0727165
0.073773
0.0747794
0.0757295
0.0766173
0.0774369
0.0781824
0.0788488
0.0794315
0.0799268
0.0803317
0.0806435
0.0808556
0.0809636
0.0809825
0.0809079
0.0807409
0.0804836
0.080139
0.0797106
0.0792026
0.0786196
0.0779667
0.0772493
0.0764728
0.0756431
0.0747662
0.0738482
0.0728958
0.0719159
0.0709153
0.0699004
0.0688755
0.0678429
0.0668044
0.0657623
0.0647188
0.0636765
0.0626382
0.0616063
0.0605833
0.059571
0.0585713
0.0575856
0.0566152
0.0556611
0.054724
0.0538048
0.0529037
0.0520213
0.0511576
0.0503128
0.0494868
0.0486796
0.0478909
0.0471206
0.0463683
0.0456336
0.0449163
0.0442159
0.043532
0.0428643
0.0422122
0.0415754
0.0409535
0.040346
0.0397525
0.0391725
0.0386057
0.0380516
0.0375099
0.0369802
0.0364622
0.0359555
0.0354602
0.0349759
0.0345022
0.0340389
0.0335856
0.033142
0.0327079
0.032283
0.031867
0.0314597
0.0310609
0.030671
0.0302901
0.0299178
0.0295536
0.0291972
0.0288491
0.0285083
0.0281759
0.0278499
0.0275315
0.0272199
0.0269148
0.0266172
0.0263256
0.026041
0.025762
0.0254895
0.0252222
0.0249609
0.0247054
0.0244558
0.0242119
0.023973
0.0237398
0.0235115
0.0232874
0.0230684
0.022854
0.0226436
0.0224379
0.0222362
0.0220378
0.0218435
0.0216525
0.0214642
0.0212801
0.0211005
0.0209251
0.0207567
0.0206071
0.0204348
0.0201488
0.00441455
0.00841178
0.0110215
0.0128799
0.01437
0.0156612
0.0168466
0.0179815
0.0190998
0.0202224
0.0213618
0.0225262
0.0237212
0.0249504
0.0262155
0.027516
0.0288497
0.0302128
0.0316007
0.0330084
0.0344306
0.0358625
0.0372993
0.0387372
0.0401728
0.0416036
0.0430273
0.0444429
0.0458493
0.0472464
0.0486341
0.0500132
0.0513843
0.0527486
0.0541071
0.0554612
0.0568122
0.0581615
0.0595103
0.0608596
0.0622103
0.063563
0.0649177
0.0662741
0.0676314
0.0689881
0.0703419
0.0716902
0.0730294
0.0743553
0.075663
0.0769471
0.0782016
0.07942
0.0805956
0.0817212
0.0827897
0.0837939
0.0847267
0.0855815
0.0863519
0.0870324
0.0876181
0.0881052
0.0884903
0.0887711
0.0889381
0.0890009
0.0889605
0.0888174
0.0885734
0.0882314
0.0877954
0.0872697
0.0866594
0.08597
0.0852073
0.0843775
0.0834869
0.0825423
0.0815504
0.0805182
0.0794524
0.07836
0.077247
0.0761183
0.0749781
0.0738296
0.0726761
0.0715206
0.0703661
0.0692157
0.0680722
0.0669381
0.0658157
0.064707
0.0636135
0.0625367
0.0614778
0.0604377
0.059417
0.0584164
0.0574362
0.0564767
0.0555379
0.0546199
0.0537226
0.0528457
0.051989
0.0511522
0.050335
0.0495368
0.0487574
0.0479962
0.0472528
0.0465267
0.0458176
0.0451249
0.0444481
0.0437868
0.0431405
0.0425089
0.0418914
0.0412876
0.0406973
0.0401199
0.0395552
0.0390029
0.0384626
0.0379341
0.037417
0.0369111
0.036416
0.0359315
0.0354572
0.0349929
0.0345383
0.0340932
0.0336577
0.0332316
0.0328147
0.0324068
0.0320075
0.031617
0.0312347
0.030861
0.0304951
0.0301372
0.0297874
0.0294456
0.0291117
0.0287849
0.0284654
0.0281526
0.0278465
0.0275467
0.0272533
0.0269666
0.0266866
0.0264127
0.0261447
0.0258826
0.0256261
0.0253746
0.0251285
0.0248877
0.0246518
0.0244209
0.0241946
0.0239727
0.0237551
0.0235418
0.0233325
0.0231279
0.0229287
0.0227352
0.0225491
0.022379
0.0222172
0.0219348
0.00578351
0.0100167
0.0129395
0.0150084
0.0166514
0.0180583
0.0193338
0.0205424
0.0217258
0.0229108
0.0241143
0.0253461
0.0266116
0.0279129
0.0292496
0.0306192
0.0320181
0.0334421
0.0348861
0.0363454
0.0378152
0.0392911
0.0407692
0.0422463
0.0437194
0.0451867
0.0466463
0.0480973
0.0495392
0.0509719
0.0523956
0.0538111
0.0552192
0.0566214
0.0580188
0.0594133
0.0608063
0.0621996
0.0635947
0.0649932
0.0663961
0.0678044
0.0692186
0.0706387
0.0720641
0.0734936
0.0749252
0.0763562
0.0777831
0.0792017
0.0806069
0.081993
0.0833534
0.0846812
0.0859688
0.0872082
0.0883914
0.0895101
0.0905561
0.0915218
0.0923997
0.093183
0.093866
0.0944437
0.0949121
0.0952682
0.0955069
0.0956277
0.0956365
0.0955324
0.0953175
0.0949946
0.0945677
0.0940416
0.0934216
0.0927136
0.0919239
0.0910591
0.0901264
0.0891327
0.0880853
0.0869914
0.0858582
0.0846926
0.083501
0.0822891
0.0810618
0.0798236
0.0785785
0.0773302
0.0760823
0.0748381
0.0736007
0.072373
0.0711575
0.0699562
0.0687711
0.0676036
0.0664552
0.0653269
0.0642194
0.0631333
0.0620692
0.0610273
0.0600077
0.0590105
0.0580355
0.0570826
0.0561514
0.0552417
0.0543531
0.0534851
0.0526374
0.0518094
0.0510007
0.0502108
0.0494392
0.0486853
0.0479488
0.0472292
0.0465258
0.0458383
0.0451663
0.0445093
0.0438668
0.0432385
0.0426239
0.0420228
0.0414349
0.0408596
0.0402968
0.0397462
0.0392074
0.03868
0.0381639
0.0376587
0.0371642
0.03668
0.0362062
0.0357424
0.0352886
0.0348444
0.0344097
0.0339843
0.033568
0.0331606
0.0327619
0.0323718
0.0319901
0.0316168
0.0312517
0.0308945
0.030545
0.0302028
0.0298679
0.0295399
0.029219
0.0289058
0.0285998
0.0283004
0.0280074
0.0277207
0.02744
0.0271649
0.0268958
0.0266327
0.0263751
0.0261229
0.0258758
0.0256336
0.0253963
0.025164
0.0249367
0.0247147
0.0244988
0.0242896
0.0240878
0.0238994
0.0237384
0.0234538
0.00723725
0.0113149
0.0144508
0.0166793
0.0184445
0.0199504
0.0213077
0.022586
0.023831
0.0250727
0.0263304
0.0276153
0.0289329
0.0302846
0.0316694
0.033084
0.0345245
0.0359865
0.0374655
0.0389568
0.0404562
0.0419599
0.0434646
0.0449673
0.0464657
0.0479579
0.0494427
0.0509191
0.0523867
0.0538455
0.0552959
0.0567385
0.0581745
0.0596051
0.061032
0.0624569
0.0638816
0.0653082
0.0667385
0.0681744
0.0696174
0.0710689
0.0725297
0.0740004
0.0754808
0.07697
0.0784663
0.0799674
0.0814699
0.0829697
0.0844618
0.0859401
0.0873979
0.0888278
0.0902215
0.0915704
0.0928654
0.0940975
0.0952574
0.0963362
0.0973255
0.0982175
0.099005
0.099682
0.100244
0.100686
0.101006
0.1012
0.101271
0.101221
0.10105
0.100761
0.10036
0.099849
0.0992355
0.0985253
0.097725
0.0968419
0.0958832
0.0948566
0.0937696
0.0926298
0.0914448
0.0902218
0.0889677
0.0876886
0.0863904
0.0850783
0.0837571
0.0824309
0.081104
0.07978
0.0784624
0.0771543
0.0758585
0.0745772
0.0733126
0.0720663
0.0708399
0.0696344
0.0684509
0.0672899
0.066152
0.0650376
0.0639467
0.0628795
0.0618359
0.0608157
0.0598185
0.0588442
0.0578923
0.0569624
0.0560541
0.0551668
0.0543001
0.0534534
0.0526263
0.0518182
0.0510287
0.0502571
0.0495031
0.0487661
0.0480457
0.0473413
0.0466526
0.0459792
0.0453205
0.0446763
0.0440462
0.0434298
0.0428267
0.0422367
0.0416594
0.0410945
0.0405416
0.0400006
0.039471
0.0389527
0.0384454
0.0379489
0.037463
0.0369874
0.036522
0.0360666
0.0356208
0.0351846
0.0347577
0.0343399
0.0339311
0.0335311
0.0331398
0.0327568
0.0323821
0.0320152
0.0316561
0.0313045
0.0309603
0.0306236
0.0302943
0.0299721
0.0296566
0.0293478
0.0290453
0.0287489
0.0284594
0.0281763
0.0278993
0.0276281
0.0273624
0.027102
0.0268469
0.0265977
0.0263541
0.0261165
0.0258854
0.0256617
0.025446
0.0252417
0.0250646
0.0247885
0.00857753
0.0122673
0.0155406
0.0178936
0.0197616
0.0213569
0.022794
0.0241432
0.0254513
0.0267496
0.028058
0.0293886
0.0307474
0.0321362
0.0335538
0.0349977
0.0364642
0.0379494
0.0394492
0.0409595
0.0424767
0.0439974
0.0455186
0.0470378
0.0485529
0.0500622
0.0515645
0.0530591
0.0545454
0.0560234
0.0574936
0.0589565
0.0604133
0.0618653
0.0633141
0.0647617
0.0662101
0.0676613
0.0691177
0.0705814
0.0720543
0.0735382
0.0750346
0.0765442
0.0780675
0.0796041
0.0811528
0.0827116
0.0842776
0.0858469
0.0874144
0.0889745
0.09052
0.0920433
0.0935358
0.0949881
0.0963906
0.0977332
0.0990057
0.100198
0.101301
0.102306
0.103204
0.103988
0.104651
0.10519
0.1056
0.105879
0.106027
0.106045
0.105933
0.105694
0.105333
0.104853
0.104262
0.103566
0.102771
0.101886
0.100917
0.0998727
0.0987613
0.0975906
0.0963685
0.0951028
0.0938006
0.092469
0.0911142
0.0897422
0.0883583
0.0869674
0.0855741
0.0841826
0.0827965
0.0814194
0.0800542
0.0787036
0.0773697
0.0760545
0.0747596
0.0734863
0.0722356
0.0710083
0.069805
0.0686262
0.0674719
0.0663424
0.0652375
0.0641571
0.063101
0.0620689
0.0610603
0.0600749
0.0591121
0.0581716
0.0572528
0.0563552
0.0554782
0.0546214
0.0537842
0.052966
0.0521664
0.0513848
0.0506209
0.049874
0.0491438
0.0484298
0.0477316
0.0470487
0.0463808
0.0457274
0.0450884
0.0444631
0.0438515
0.043253
0.0426674
0.0420944
0.0415337
0.0409849
0.0404479
0.0399224
0.0394081
0.0389048
0.0384123
0.0379303
0.0374586
0.036997
0.0365453
0.0361033
0.0356707
0.0352475
0.0348333
0.0344279
0.0340312
0.033643
0.0332628
0.0328907
0.0325263
0.0321696
0.0318206
0.0314789
0.0311443
0.0308167
0.0304958
0.0301813
0.0298735
0.0295722
0.0292773
0.0289883
0.0287053
0.0284279
0.0281563
0.0278914
0.0276328
0.0273806
0.0271351
0.0268974
0.0266682
0.0264501
0.0262535
0.0259899
0.00973656
0.0128961
0.0162445
0.018694
0.0206494
0.0223264
0.0238403
0.0252602
0.026632
0.0279865
0.0293435
0.0307156
0.0321089
0.0335261
0.034967
0.03643
0.0379123
0.0394107
0.0409218
0.0424422
0.0439687
0.0454984
0.0470289
0.0485577
0.0500831
0.0516035
0.0531177
0.0546249
0.0561246
0.0576168
0.0591017
0.06058
0.0620525
0.0635207
0.0649861
0.0664507
0.0679165
0.0693859
0.0708612
0.0723448
0.0738391
0.0753463
0.0768681
0.0784061
0.0799609
0.0815329
0.0831214
0.0847249
0.086341
0.0879663
0.089596
0.0912246
0.0928452
0.0944501
0.0960304
0.0975764
0.0990778
0.100524
0.101904
0.103207
0.104423
0.105541
0.106552
0.107447
0.10822
0.108863
0.109374
0.109748
0.109985
0.110085
0.110047
0.109873
0.109567
0.109136
0.108584
0.107917
0.107145
0.106273
0.105309
0.104263
0.103143
0.101956
0.100712
0.0994179
0.098082
0.0967117
0.095314
0.0938953
0.0924617
0.0910185
0.0895707
0.088123
0.0866795
0.085244
0.0838197
0.0824094
0.0810158
0.0796407
0.0782861
0.0769534
0.0756438
0.0743581
0.073097
0.071861
0.0706504
0.0694654
0.0683059
0.0671717
0.0660628
0.0649788
0.0639193
0.062884
0.0618724
0.0608839
0.0599182
0.0589746
0.0580526
0.0571518
0.0562715
0.0554113
0.0545706
0.0537488
0.0529456
0.0521604
0.0513928
0.0506422
0.0499082
0.0491905
0.0484885
0.047802
0.0471305
0.0464736
0.0458311
0.0452025
0.0445875
0.0439858
0.0433971
0.0428211
0.0422575
0.041706
0.0411664
0.0406383
0.0401216
0.0396161
0.0391213
0.0386372
0.0381636
0.0377
0.0372464
0.0368026
0.0363682
0.0359431
0.035527
0.0351198
0.0347212
0.0343309
0.0339487
0.0335746
0.0332083
0.0328496
0.0324984
0.0321544
0.0318173
0.0314871
0.0311636
0.0308468
0.0305364
0.0302324
0.0299344
0.0296425
0.0293566
0.0290771
0.0288041
0.0285377
0.0282783
0.0280269
0.0277843
0.0275529
0.0273377
0.0270762
0.0106723
0.0132493
0.0166188
0.0191404
0.0211695
0.0229195
0.0245044
0.0259915
0.0274246
0.0288331
0.0302359
0.0316451
0.0330679
0.0345078
0.0359659
0.0374414
0.0389327
0.0404375
0.0419531
0.0434771
0.0450067
0.0465397
0.0480739
0.0496073
0.0511382
0.0526652
0.0541871
0.0557032
0.0572128
0.0587158
0.0602123
0.0617027
0.063188
0.0646693
0.0661481
0.0676262
0.0691056
0.0705888
0.0720781
0.0735761
0.0750854
0.0766084
0.0781473
0.0797039
0.0812796
0.082875
0.0844902
0.0861243
0.0877755
0.0894407
0.0911161
0.0927964
0.0944753
0.0961451
0.097797
0.0994215
0.101008
0.102545
0.104022
0.105427
0.106748
0.107976
0.109099
0.110107
0.110991
0.111746
0.112365
0.112844
0.113182
0.113377
0.113427
0.113336
0.113102
0.112735
0.112238
0.11162
0.110886
0.110044
0.109103
0.108072
0.106958
0.105771
0.104519
0.103212
0.101856
0.100461
0.0990344
0.0975822
0.0961115
0.0946282
0.0931377
0.0916451
0.090155
0.0886715
0.087198
0.0857378
0.0842935
0.0828675
0.0814617
0.0800778
0.078717
0.0773804
0.0760687
0.0747827
0.0735225
0.0722884
0.0710805
0.0698986
0.0687427
0.0676125
0.0665075
0.0654276
0.0643721
0.0633406
0.0623327
0.0613479
0.0603855
0.059445
0.058526
0.0576279
0.0567501
0.0558921
0.0550535
0.0542337
0.0534323
0.0526487
0.0518826
0.0511335
0.0504009
0.0496845
0.0489838
0.0482985
0.0476282
0.0469725
0.0463312
0.0457038
0.04509
0.0444896
0.0439021
0.0433274
0.0427651
0.0422149
0.0416767
0.04115
0.0406348
0.0401306
0.0396373
0.0391546
0.0386823
0.0382201
0.0377679
0.0373252
0.036892
0.036468
0.0360529
0.0356465
0.0352485
0.0348589
0.0344773
0.0341037
0.0337377
0.0333792
0.0330279
0.0326837
0.0323464
0.0320159
0.0316921
0.0313747
0.0310638
0.0307591
0.0304606
0.0301685
0.0298831
0.0296044
0.0293329
0.0290694
0.0288145
0.02857
0.0283376
0.0280728
0.0113293
0.0133253
0.0166958
0.0192827
0.0213805
0.0231961
0.0248454
0.0263943
0.0278837
0.029341
0.0307845
0.0322264
0.0336744
0.0351328
0.0366036
0.0380871
0.0395827
0.0410891
0.0426047
0.0441277
0.0456562
0.0471885
0.0487226
0.0502571
0.0517904
0.0533213
0.0548486
0.0563715
0.0578894
0.059402
0.0609091
0.0624111
0.0639085
0.0654024
0.0668939
0.0683847
0.0698767
0.0713722
0.0728735
0.074383
0.0759034
0.0774372
0.0789866
0.0805538
0.0821404
0.0837476
0.0853758
0.0870252
0.0886944
0.090381
0.0920812
0.0937905
0.0955038
0.0972144
0.0989143
0.100594
0.102245
0.103854
0.105411
0.106903
0.108319
0.109646
0.110873
0.111991
0.112988
0.113856
0.114589
0.115182
0.11563
0.115933
0.116087
0.116093
0.115952
0.115666
0.115243
0.11469
0.114012
0.113219
0.112318
0.111318
0.110227
0.109056
0.107813
0.106507
0.105147
0.103742
0.102299
0.100827
0.0993321
0.097821
0.0962997
0.0947737
0.0932479
0.0917268
0.0902142
0.0887135
0.0872279
0.0857597
0.0843112
0.0828842
0.0814801
0.0801001
0.0787451
0.0774158
0.0761127
0.0748359
0.0735858
0.0723621
0.0711649
0.0699939
0.0688489
0.0677294
0.066635
0.0655654
0.0645199
0.0634982
0.0624997
0.0615239
0.0605702
0.0596382
0.0587272
0.0578368
0.0569664
0.0561157
0.055284
0.0544709
0.0536759
0.0528986
0.0521385
0.0513953
0.0506685
0.0499578
0.0492626
0.0485828
0.0479178
0.0472675
0.0466313
0.046009
0.0454003
0.0448048
0.0442223
0.0436525
0.043095
0.0425496
0.042016
0.041494
0.0409833
0.0404836
0.0399946
0.0395162
0.039048
0.0385897
0.0381413
0.0377023
0.0372726
0.0368518
0.0364399
0.0360364
0.0356413
0.0352543
0.0348752
0.0345037
0.0341398
0.0337831
0.0334335
0.0330909
0.0327551
0.032426
0.0321034
0.0317873
0.0314776
0.0311744
0.0308779
0.0305884
0.0303061
0.0300318
0.029766
0.02951
0.0292636
0.028994
0.0117169
0.0132503
0.0165923
0.0192087
0.0213481
0.0232135
0.0249195
0.0265235
0.0280628
0.0295628
0.03104
0.0325091
0.0339779
0.035451
0.036931
0.0384193
0.0399161
0.0414213
0.0429342
0.0444537
0.0459787
0.0475081
0.0490404
0.0505746
0.0521094
0.0536436
0.0551763
0.0567066
0.0582337
0.0597572
0.0612767
0.0627921
0.0643039
0.0658128
0.0673197
0.068826
0.0703331
0.071843
0.0733577
0.0748792
0.07641
0.0779522
0.0795081
0.0810797
0.0826685
0.084276
0.0859029
0.0875495
0.0892156
0.0908996
0.0925963
0.0943036
0.096018
0.0977345
0.0994469
0.101147
0.102827
0.104475
0.106082
0.107637
0.109126
0.110539
0.111863
0.113086
0.114199
0.11519
0.116048
0.116763
0.117333
0.117755
0.118026
0.118145
0.118115
0.117931
0.117601
0.117131
0.11653
0.115803
0.11496
0.114009
0.11296
0.111821
0.110603
0.109314
0.107965
0.106565
0.105121
0.103642
0.102136
0.10061
0.0990699
0.097522
0.0959717
0.0944236
0.0928821
0.0913509
0.0898333
0.0883319
0.0868494
0.0853875
0.083948
0.0825322
0.0811411
0.0797756
0.0784362
0.0771232
0.075837
0.0745775
0.0733447
0.0721385
0.0709585
0.0698046
0.0686763
0.0675732
0.0664949
0.0654408
0.0644105
0.0634034
0.0624191
0.0614571
0.0605167
0.0595975
0.0586991
0.0578208
0.0569622
0.0561229
0.0553023
0.0545
0.0537155
0.0529485
0.0521985
0.0514651
0.0507479
0.0500466
0.0493607
0.0486899
0.0480339
0.0473922
0.0467646
0.0461508
0.0455504
0.0449631
0.0443886
0.0438266
0.0432768
0.042739
0.0422128
0.041698
0.0411944
0.0407015
0.0402192
0.0397472
0.0392852
0.0388329
0.0383902
0.0379568
0.0375323
0.0371166
0.0367094
0.0363105
0.0359197
0.0355368
0.0351615
0.0347936
0.0344331
0.0340796
0.0337331
0.0333934
0.0330604
0.032734
0.0324142
0.0321011
0.0317947
0.0314954
0.0312034
0.0309193
0.0306436
0.0303772
0.0301191
0.0298444
0.0117861
0.0130359
0.016328
0.0189735
0.021158
0.0230677
0.0248095
0.0264467
0.0280174
0.0295459
0.0310486
0.0325401
0.0340261
0.035511
0.0369981
0.0384894
0.0399862
0.0414893
0.0429987
0.0445145
0.0460361
0.0475631
0.0490946
0.0506299
0.0521681
0.0537083
0.0552496
0.056791
0.0583317
0.0598709
0.0614077
0.0629415
0.0644734
0.0660036
0.0675325
0.0690609
0.0705896
0.07212
0.0736533
0.0751911
0.0767349
0.0782865
0.0798475
0.0814195
0.0830037
0.0846013
0.086213
0.0878392
0.0894799
0.091135
0.0927987
0.0944737
0.0961573
0.0978457
0.0995343
0.101217
0.102888
0.104537
0.106157
0.107736
0.109264
0.110729
0.11212
0.113423
0.114627
0.115723
0.116699
0.117547
0.118255
0.118818
0.119231
0.119488
0.119586
0.119529
0.119311
0.118945
0.118439
0.117799
0.117032
0.116149
0.115158
0.11407
0.112893
0.111638
0.110316
0.108934
0.107504
0.106033
0.104529
0.103001
0.101454
0.0998965
0.0983329
0.0967689
0.095209
0.0936572
0.0921172
0.0905919
0.089084
0.0875958
0.086129
0.0846851
0.0832654
0.0818708
0.080502
0.0791594
0.0778434
0.0765541
0.0752915
0.0740556
0.0728462
0.0716631
0.0705058
0.069374
0.0682674
0.0671854
0.0661276
0.0650935
0.0640826
0.0630945
0.0621285
0.0611843
0.0602613
0.0593589
0.0584768
0.0576145
0.0567714
0.0559472
0.0551414
0.0543535
0.0535831
0.0528299
0.0520934
0.0513732
0.0506689
0.0499802
0.0493068
0.0486481
0.048004
0.047374
0.0467579
0.0461552
0.0455658
0.0449893
0.0444253
0.0438736
0.0433339
0.0428058
0.0422892
0.0417836
0.0412889
0.0408047
0.0403308
0.0398669
0.0394127
0.038968
0.0385324
0.0381058
0.037688
0.0372785
0.0368773
0.0364841
0.0360988
0.035721
0.0353505
0.0349874
0.0346312
0.0342821
0.0339397
0.0336041
0.0332751
0.032953
0.0326376
0.0323294
0.0320285
0.0317355
0.0314508
0.0311751
0.0309068
0.030627
0.0115834
0.0126226
0.0158738
0.0185432
0.0207684
0.0227247
0.0245118
0.0261904
0.0277976
0.0293572
0.0308848
0.0323923
0.0338891
0.0353809
0.0368717
0.0383643
0.0398607
0.0413621
0.0428696
0.0443838
0.0459047
0.0474325
0.0489668
0.0505075
0.0520538
0.0536051
0.0551605
0.0567193
0.0582807
0.0598435
0.061407
0.0629704
0.0645331
0.0660957
0.0676578
0.0692194
0.0707805
0.0723413
0.0739023
0.0754638
0.0770263
0.0785907
0.0801573
0.081727
0.0833003
0.0848777
0.0864597
0.0880467
0.0896391
0.0912374
0.0928358
0.0944391
0.0960473
0.0976594
0.0992737
0.100887
0.102497
0.104097
0.105683
0.107245
0.108775
0.110262
0.111696
0.113063
0.11435
0.115545
0.116637
0.117603
0.118438
0.119133
0.119684
0.120086
0.120337
0.120432
0.120366
0.12013
0.11974
0.119206
0.118536
0.117739
0.116825
0.115804
0.114686
0.113481
0.1122
0.110853
0.109451
0.108001
0.106513
0.104995
0.103455
0.101899
0.100334
0.0987653
0.0971976
0.0956355
0.0940829
0.0925431
0.0910191
0.0895131
0.0880273
0.0865634
0.0851227
0.0837063
0.0823151
0.0809496
0.0796102
0.0782973
0.077011
0.0757512
0.0745178
0.0733107
0.0721295
0.070974
0.0698438
0.0687385
0.0676576
0.0666007
0.0655673
0.064557
0.0635693
0.0626037
0.0616597
0.0607368
0.0598345
0.0589525
0.0580901
0.0572471
0.0564228
0.055617
0.0548291