/*--------------------------------*- C++ -*----------------------------------*\
| =========                 |                                                 |
| \\      /  F ield         | OpenFOAM: The Open Source CFD Toolbox           |
|  \\    /   O peration     | Version:  2312                                  |
|   \\  /    A nd           | Website:  www.openfoam.com                      |
|    \\/     M anipulation  |                                                 |
\*---------------------------------------------------------------------------*/
FoamFile
{
    version     2.0;
    format      ascii;
    arch        "LSB;label=32;scalar=64";
    class       volScalarField;
    location    "100";
    object      k;
}
// * * * * * * * * * * * * * * * * * * * * * * * * * * * * * * * * * * * * * //

dimensions      [0 2 -2 0 0 0 0];

internalField   nonuniform List<scalar> 
12225
(
0.5178
0.711674
0.793723
0.798554
0.787828
0.760298
0.73045
0.702856
0.678795
0.658383
0.641274
0.627083
0.615172
0.605461
0.59697
0.590912
0.584545
0.581437
0.43595
0.44017
0.428452
0.403628
0.382538
0.365887
0.35307
0.344004
0.338558
0.3353
0.334237
0.334529
0.335485
0.336676
0.339185
0.340429
0.343198
0.344356
0.392669
0.393604
0.385421
0.366728
0.344558
0.324301
0.306853
0.291754
0.279827
0.270009
0.262757
0.25694
0.253081
0.249934
0.248243
0.246919
0.246383
0.24622
0.37938
0.377788
0.372776
0.362586
0.349733
0.336134
0.322955
0.31038
0.299141
0.288725
0.279921
0.271774
0.265247
0.259043
0.254412
0.249794
0.246562
0.243099
0.374833
0.372715
0.368504
0.361909
0.353768
0.344759
0.335579
0.326368
0.317663
0.309224
0.301606
0.294245
0.287883
0.281611
0.276428
0.271073
0.266997
0.262437
0.37332
0.370313
0.366497
0.361539
0.355682
0.349198
0.342473
0.33559
0.328886
0.322252
0.316038
0.309954
0.304433
0.298985
0.29423
0.28937
0.285412
0.281032
0.372807
0.369124
0.36538
0.361162
0.356482
0.351423
0.346182
0.340802
0.335483
0.330181
0.325098
0.320099
0.315425
0.310827
0.306653
0.302445
0.298839
0.294945
0.372668
0.368557
0.364706
0.360801
0.356733
0.35249
0.348154
0.34374
0.339357
0.33499
0.330751
0.32658
0.322608
0.318712
0.315086
0.311472
0.308255
0.304861
0.372647
0.368314
0.364325
0.360504
0.356725
0.352936
0.349145
0.345346
0.341588
0.337866
0.334237
0.330675
0.32725
0.323899
0.320732
0.317603
0.314742
0.311786
0.372652
0.368223
0.364131
0.360295
0.356626
0.353062
0.34958
0.346157
0.342804
0.339515
0.336314
0.333188
0.330171
0.327232
0.324427
0.321678
0.319117
0.316518
0.372657
0.368194
0.364043
0.360169
0.35652
0.353047
0.349718
0.346505
0.343399
0.340386
0.337471
0.334645
0.33192
0.329278
0.326749
0.324285
0.321963
0.319644
0.372659
0.368186
0.364009
0.360106
0.356447
0.352995
0.349723
0.346603
0.343618
0.340751
0.337999
0.335348
0.332803
0.330348
0.327998
0.325722
0.323565
0.321438
0.372659
0.368182
0.363993
0.360073
0.356398
0.352945
0.34969
0.346609
0.343685
0.340899
0.338243
0.335702
0.333274
0.330945
0.32872
0.326577
0.324541
0.322555
0.372658
0.368179
0.363983
0.360052
0.356365
0.352903
0.349646
0.346575
0.343674
0.340927
0.338321
0.335844
0.333488
0.331242
0.329101
0.327053
0.325105
0.323227
0.372657
0.368176
0.363976
0.360039
0.356343
0.352872
0.349607
0.346532
0.343633
0.340895
0.338306
0.335854
0.333529
0.331322
0.329226
0.32723
0.325332
0.323519
0.372656
0.368173
0.363971
0.360029
0.356328
0.35285
0.349578
0.346496
0.343591
0.34085
0.33826
0.33581
0.333492
0.331295
0.329212
0.327235
0.325356
0.323571
0.372656
0.368171
0.363966
0.360021
0.356317
0.352834
0.349556
0.346469
0.343558
0.340811
0.338216
0.335762
0.33344
0.331242
0.329158
0.327181
0.325306
0.323524
0.372656
0.36817
0.363964
0.360017
0.356309
0.352823
0.349542
0.346451
0.343536
0.340784
0.338184
0.335726
0.3334
0.331197
0.329109
0.32713
0.325251
0.323468
0.372656
0.36817
0.363964
0.360016
0.356307
0.352819
0.349536
0.346443
0.343526
0.340771
0.338169
0.335708
0.333379
0.331174
0.329083
0.327101
0.325219
0.323433
0.372656
0.368171
0.363965
0.360018
0.356311
0.352824
0.349543
0.34645
0.343533
0.340779
0.338177
0.335715
0.333384
0.331175
0.329081
0.327093
0.325206
0.323412
0.372656
0.368173
0.363968
0.360024
0.35632
0.352837
0.349559
0.346469
0.343553
0.340797
0.338189
0.335718
0.333373
0.331147
0.329031
0.327018
0.3251
0.323276
0.372657
0.368174
0.363974
0.360038
0.356344
0.35287
0.349596
0.346502
0.34357
0.340787
0.338137
0.335612
0.333202
0.3309
0.328698
0.326593
0.324574
0.32265
0.372655
0.368177
0.363999
0.360092
0.356422
0.352954
0.349654
0.3465
0.343473
0.340561
0.337755
0.335051
0.332443
0.329931
0.327508
0.325181
0.322931
0.320787
0.372643
0.368215
0.364128
0.3603
0.356643
0.353098
0.34963
0.346229
0.342888
0.339617
0.336418
0.333303
0.330272
0.327339
0.324494
0.321761
0.319104
0.316586
0.372635
0.368469
0.364634
0.36089
0.357079
0.35316
0.34915
0.345097
0.341033
0.337011
0.333047
0.329183
0.325415
0.321782
0.31826
0.3149
0.311633
0.308572
0.37284
0.369539
0.366148
0.362224
0.357688
0.352685
0.347383
0.341955
0.336491
0.331114
0.325838
0.320759
0.315841
0.311174
0.306675
0.302462
0.298379
0.294631
0.37432
0.373097
0.370167
0.365152
0.358372
0.350667
0.342577
0.334476
0.326506
0.318884
0.311565
0.304736
0.298238
0.292275
0.286611
0.281491
0.276589
0.272244
0.381266
0.385719
0.382103
0.37293
0.359468
0.345679
0.332422
0.320086
0.308686
0.298452
0.289082
0.280894
0.273456
0.267051
0.26125
0.256283
0.251832
0.247968
0.407694
0.411614
0.403618
0.386601
0.368798
0.352503
0.338836
0.327438
0.317653
0.309902
0.30355
0.298713
0.294817
0.291991
0.289805
0.288303
0.287326
0.286652
0.44027
0.545011
0.604974
0.634788
0.641483
0.638651
0.631128
0.618887
0.60585
0.593028
0.580934
0.569803
0.559682
0.550545
0.542324
0.534929
0.528263
0.522254
0.00273067
0.00512025
0.00756937
0.00979787
0.0117044
0.013308
0.0146501
0.0157592
0.0166855
0.017543
0.0183178
0.0190389
0.0197656
0.020542
0.021432
0.0225031
0.0238831
0.0256091
0.0276148
0.0298404
0.0322886
0.0349541
0.0378646
0.0410199
0.044444
0.0481246
0.0520722
0.0562593
0.0606874
0.0653226
0.0701544
0.0751288
0.0802325
0.0854172
0.0906699
0.0959475
0.101243
0.106519
0.111778
0.116992
0.12217
0.127296
0.13239
0.137451
0.14252
0.147627
0.152664
0.157635
0.162542
0.16738
0.172161
0.176876
0.181535
0.186132
0.190676
0.195162
0.199595
0.203975
0.208303
0.21258
0.216806
0.220984
0.225109
0.229188
0.23321
0.237183
0.241097
0.244966
0.248775
0.252543
0.256252
0.259925
0.263538
0.26712
0.270644
0.274142
0.277587
0.281015
0.284402
0.287788
0.291131
0.294461
0.297736
0.301027
0.304255
0.307484
0.310665
0.313837
0.31698
0.320136
0.323315
0.326533
0.32982
0.333187
0.336166
0.339192
0.342073
0.344735
0.347336
0.349687
0.351798
0.353552
0.354684
0.354332
0.356248
0.358229
0.359515
0.363183
0.362598
0.363532
0.364335
0.364904
0.366066
0.364827
0.364589
0.364443
0.36455
0.362978
0.361374
0.359324
0.356979
0.354303
0.351291
0.347945
0.344239
0.340197
0.335818
0.331121
0.326115
0.320824
0.315245
0.309313
0.30314
0.296727
0.290134
0.283389
0.276513
0.269522
0.262464
0.255496
0.24837
0.241951
0.237527
0.233526
0.229548
0.22555
0.221534
0.217524
0.213519
0.209535
0.205548
0.201541
0.197597
0.193702
0.189855
0.185971
0.182303
0.178786
0.175402
0.172135
0.168975
0.165928
0.162999
0.160185
0.15749
0.154911
0.152448
0.150098
0.147858
0.145721
0.143683
0.14173
0.139868
0.138036
0.136339
0.134434
0.132961
0.130452
0.128863
0.122517
0.00704169
0.0128655
0.0182516
0.0225598
0.0261996
0.0293772
0.032206
0.0347629
0.03711
0.0393035
0.0414633
0.0436928
0.0460846
0.0487126
0.0516347
0.0548875
0.0584918
0.0624441
0.066737
0.0713617
0.0763151
0.0815964
0.087217
0.0931869
0.0995208
0.106223
0.113297
0.120736
0.128532
0.136663
0.1451
0.153804
0.162744
0.171882
0.181187
0.190621
0.200154
0.209752
0.219389
0.22904
0.238687
0.248308
0.257892
0.267425
0.276899
0.286301
0.29562
0.304853
0.313999
0.323057
0.332028
0.34091
0.349704
0.358408
0.367023
0.375548
0.383982
0.392325
0.400575
0.408731
0.416793
0.424759
0.432629
0.440404
0.448086
0.455658
0.463108
0.470439
0.477643
0.484723
0.491673
0.498497
0.505189
0.511754
0.518189
0.524501
0.530687
0.536757
0.542714
0.548571
0.554327
0.559992
0.565555
0.57104
0.576444
0.581784
0.587056
0.592282
0.597465
0.602636
0.6078
0.61296
0.618115
0.623251
0.628349
0.633387
0.638353
0.643219
0.647977
0.652592
0.657028
0.661242
0.665193
0.668971
0.672888
0.676488
0.680083
0.683367
0.686239
0.689191
0.691868
0.694145
0.695993
0.696603
0.698667
0.69902
0.699692
0.699821
0.699637
0.698558
0.696961
0.694791
0.692031
0.688678
0.684671
0.679977
0.674594
0.668527
0.661782
0.654377
0.646331
0.637666
0.628423
0.618637
0.608344
0.597597
0.586464
0.575002
0.563256
0.551328
0.539305
0.527162
0.515109
0.503039
0.490945
0.478877
0.466882
0.455004
0.443275
0.431708
0.420141
0.408671
0.397421
0.386451
0.375763
0.365268
0.355018
0.345066
0.335441
0.326119
0.317088
0.308366
0.299962
0.291869
0.284089
0.276621
0.269461
0.262602
0.256034
0.249749
0.243735
0.23798
0.232475
0.227189
0.222164
0.217218
0.212775
0.207508
0.203956
0.194439
0.0115906
0.0204637
0.0276907
0.0332513
0.0379417
0.0421015
0.0459092
0.0494825
0.0529201
0.0563161
0.0597683
0.0633714
0.0672144
0.0713723
0.0759032
0.0808447
0.0862163
0.0920209
0.0982519
0.104896
0.111942
0.119381
0.127211
0.135433
0.144051
0.153065
0.162474
0.172268
0.182435
0.192946
0.203766
0.214864
0.226208
0.237762
0.249493
0.261364
0.273342
0.285396
0.297495
0.309616
0.321738
0.333842
0.345913
0.357936
0.369902
0.381799
0.393621
0.405363
0.417022
0.428596
0.440083
0.451483
0.462793
0.474013
0.485141
0.496176
0.507114
0.517955
0.528696
0.539333
0.549863
0.560282
0.570587
0.580773
0.590834
0.600763
0.610553
0.620198
0.629694
0.639033
0.648212
0.657225
0.666068
0.674737
0.683228
0.691541
0.699673
0.707627
0.715401
0.723
0.730421
0.737663
0.744726
0.75162
0.758344
0.764908
0.771316
0.777578
0.783705
0.789714
0.795617
0.801414
0.807102
0.812676
0.818112
0.823402
0.828552
0.833552
0.838409
0.843125
0.847692
0.85211
0.856366
0.860472
0.864436
0.868168
0.871818
0.8751
0.878202
0.881113
0.883724
0.885943
0.887785
0.889007
0.890096
0.890403
0.89035
0.889865
0.888828
0.887068
0.884633
0.88148
0.877578
0.872893
0.867395
0.861059
0.853879
0.845855
0.836996
0.827319
0.816849
0.805622
0.793679
0.78107
0.767846
0.754068
0.739797
0.725097
0.710031
0.6947
0.679265
0.663787
0.648325
0.632861
0.617413
0.602025
0.586751
0.571636
0.55672
0.542024
0.527527
0.513264
0.49928
0.48562
0.472297
0.459184
0.446327
0.433817
0.421696
0.409924
0.398484
0.387414
0.376731
0.366418
0.356482
0.346927
0.337746
0.328932
0.320478
0.312372
0.304605
0.297164
0.29004
0.283214
0.276704
0.270417
0.264605
0.258516
0.25415
0.245398
0.0156974
0.0281015
0.0370414
0.0437322
0.0493354
0.0543212
0.0589284
0.0633104
0.0675884
0.07187
0.0762581
0.0808497
0.0857336
0.0909845
0.0966595
0.102795
0.109409
0.116502
0.124066
0.132087
0.14055
0.149446
0.158769
0.168516
0.178686
0.189278
0.200283
0.211687
0.223467
0.235599
0.248056
0.26081
0.273828
0.287074
0.300516
0.314117
0.327844
0.341667
0.355557
0.369492
0.383449
0.397411
0.411361
0.425284
0.439168
0.453003
0.466781
0.480495
0.494141
0.507715
0.521213
0.534632
0.54797
0.561224
0.574391
0.587468
0.600453
0.61334
0.626127
0.638809
0.65138
0.663835
0.676167
0.68837
0.700435
0.712355
0.72412
0.735722
0.747152
0.758401
0.76946
0.78032
0.790973
0.801411
0.811626
0.821613
0.831365
0.840879
0.85015
0.859175
0.867949
0.87647
0.884736
0.89275
0.900514
0.908032
0.915309
0.922352
0.929171
0.93578
0.942188
0.948396
0.954403
0.960207
0.9658
0.971184
0.976369
0.981356
0.986155
0.990771
0.995204
0.999452
1.00351
1.00736
1.01101
1.01442
1.01763
1.02054
1.02321
1.0256
1.02766
1.02931
1.03052
1.03109
1.03126
1.03094
1.03014
1.02876
1.02673
1.02398
1.02049
1.01619
1.01106
1.00505
0.998147
0.990315
0.981549
0.971847
0.961219
0.949683
0.937268
0.924013
0.909964
0.895174
0.879701
0.863608
0.846963
0.829854
0.812384
0.794666
0.776828
0.758949
0.741079
0.723236
0.705453
0.687774
0.670251
0.65293
0.63585
0.619038
0.602506
0.586282
0.570391
0.554861
0.539711
0.524907
0.510462
0.496409
0.482774
0.4695
0.456546
0.443996
0.431873
0.420135
0.408808
0.397898
0.387394
0.377294
0.36759
0.358274
0.349336
0.340766
0.332558
0.324698
0.317198
0.310015
0.3033
0.296655
0.291461
0.283806
0.0192626
0.0356233
0.0462754
0.0541103
0.0606294
0.0664185
0.0717734
0.0768807
0.0818817
0.0868963
0.0920338
0.0973941
0.103067
0.109126
0.11563
0.122616
0.130104
0.138097
0.14659
0.15557
0.165028
0.174952
0.185336
0.196176
0.207467
0.219202
0.231372
0.24396
0.256947
0.27031
0.284023
0.298054
0.312373
0.326944
0.341735
0.356713
0.371846
0.387107
0.40247
0.417911
0.433409
0.448945
0.4645
0.48006
0.49561
0.51114
0.526638
0.542097
0.55751
0.57287
0.588173
0.603414
0.618588
0.633692
0.64872
0.66367
0.678535
0.693311
0.707993
0.722573
0.737046
0.751403
0.765636
0.779736
0.793692
0.807494
0.82113
0.834587
0.847854
0.860918
0.873765
0.886383
0.898759
0.91088
0.922735
0.934312
0.945601
0.956593
0.967279
0.97765
0.987699
0.997419
1.00681
1.01586
1.02459
1.03298
1.04104
1.04877
1.0562
1.06332
1.07014
1.07667
1.0829
1.08885
1.09451
1.09989
1.10501
1.10985
1.11445
1.1188
1.1229
1.12676
1.13036
1.13371
1.1368
1.13962
1.14215
1.14438
1.14631
1.14788
1.14912
1.14984
1.15004
1.1497
1.14897
1.1477
1.14586
1.14339
1.14023
1.13632
1.13162
1.12608
1.11965
1.11229
1.10399
1.0947
1.08443
1.07316
1.06092
1.04771
1.03357
1.01854
1.00266
0.985999
0.96861
0.950573
0.931979
0.912932
0.89354
0.873916
0.854174
0.834398
0.814643
0.794946
0.775347
0.755893
0.736633
0.717611
0.698867
0.680432
0.662328
0.64458
0.627209
0.610237
0.593679
0.577528
0.561789
0.54648
0.531616
0.517182
0.503163
0.489585
0.47646
0.463697
0.451358
0.43946
0.427974
0.416913
0.406265
0.396028
0.386194
0.376756
0.36771
0.359049
0.350781
0.342896
0.335486
0.328361
0.322451
0.314599
0.0222751
0.0427487
0.0551795
0.0641849
0.0716293
0.0782148
0.0842907
0.0900736
0.0957225
0.101368
0.107124
0.113095
0.119372
0.12603
0.13313
0.140714
0.148808
0.157422
0.166556
0.176206
0.186364
0.197021
0.208172
0.219809
0.231927
0.244515
0.257562
0.271052
0.284964
0.299277
0.313964
0.328996
0.344343
0.359975
0.375861
0.39197
0.408276
0.42475
0.441367
0.458104
0.474939
0.491852
0.508824
0.525839
0.542881
0.559937
0.576996
0.594047
0.61108
0.628089
0.645066
0.662005
0.678899
0.695743
0.712532
0.729259
0.745917
0.762502
0.779005
0.795418
0.811734
0.827941
0.844029
0.859986
0.875801
0.891457
0.906942
0.922239
0.937331
0.952202
0.966834
0.98121
0.995312
1.00912
1.02263
1.0358
1.04864
1.06113
1.07324
1.08497
1.09631
1.10724
1.11777
1.12787
1.13756
1.14683
1.15567
1.1641
1.17212
1.17973
1.18695
1.19378
1.20022
1.20628
1.21196
1.21729
1.22225
1.22687
1.23116
1.23512
1.23876
1.24207
1.24507
1.24774
1.25008
1.2521
1.25378
1.2551
1.25607
1.25654
1.25659
1.25619
1.25531
1.25391
1.25201
1.24954
1.24646
1.24272
1.23826
1.23303
1.22698
1.22007
1.21225
1.20347
1.19372
1.18296
1.17118
1.15839
1.14459
1.12979
1.11404
1.09737
1.07983
1.06148
1.04241
1.0227
1.00246
0.981793
0.960811
0.939621
0.91833
0.897021
0.875755
0.854579
0.833538
0.812679
0.792047
0.771687
0.751635
0.731923
0.712578
0.693623
0.675077
0.656959
0.639283
0.62205
0.605267
0.588941
0.57308
0.557682
0.542745
0.52828
0.514295
0.50076
0.487684
0.475064
0.46283
0.451033
0.439653
0.428694
0.41815
0.408018
0.398297
0.388986
0.380094
0.371627
0.36365
0.356086
0.349546
0.341585
0.0247824
0.0493943
0.0635504
0.0737077
0.0820647
0.0894295
0.0961995
0.102618
0.108858
0.115059
0.121341
0.12781
0.13456
0.141669
0.149203
0.157209
0.165721
0.174758
0.184329
0.194436
0.205077
0.216246
0.227938
0.240145
0.252859
0.266069
0.279762
0.293922
0.30853
0.323562
0.338996
0.354804
0.370961
0.387437
0.404206
0.42124
0.438512
0.455999
0.473674
0.491515
0.5095
0.527609
0.545823
0.564123
0.582493
0.60092
0.619389
0.637888
0.656407
0.674936
0.693467
0.711991
0.7305
0.748988
0.767448
0.785872
0.804252
0.822581
0.84085
0.859049
0.877167
0.895193
0.913113
0.930913
0.948577
0.966088
0.983428
1.00058
1.01751
1.03422
1.05067
1.06684
1.08271
1.09825
1.11345
1.12828
1.14273
1.15676
1.17036
1.18351
1.1962
1.20841
1.22012
1.23134
1.24204
1.25223
1.26191
1.27107
1.27971
1.28785
1.29549
1.30263
1.30929
1.31546
1.32116
1.32639
1.33117
1.33552
1.33943
1.34293
1.34601
1.34869
1.35096
1.35282
1.35429
1.35537
1.35603
1.35622
1.35595
1.35522
1.35404
1.35237
1.35018
1.34746
1.34419
1.34031
1.33579
1.33059
1.32465
1.31794
1.31039
1.30197
1.29264
1.28234
1.27107
1.25878
1.24547
1.23114
1.21579
1.19945
1.18214
1.16392
1.14483
1.12497
1.10441
1.08325
1.0616
1.03957
1.01726
0.994782
0.972231
0.949689
0.92722
0.904876
0.882704
0.860748
0.839052
0.817655
0.796593
0.775896
0.755591
0.735699
0.716238
0.697225
0.678671
0.660583
0.642968
0.62583
0.609174
0.592999
0.577307
0.562105
0.547403
0.533189
0.519463
0.506217
0.49342
0.481076
0.469137
0.457618
0.446513
0.435826
0.42556
0.415717
0.406309
0.397353
0.388901
0.380934
0.37385
0.36574
0.0268733
0.0554153
0.071187
0.0824403
0.0916706
0.0997809
0.107211
0.114225
0.121011
0.127713
0.134457
0.14135
0.148487
0.155952
0.163813
0.172124
0.180928
0.190251
0.200112
0.210519
0.221476
0.232982
0.245031
0.257618
0.270734
0.284367
0.298505
0.313131
0.328227
0.343773
0.359747
0.376126
0.392886
0.410003
0.427451
0.445207
0.463247
0.481546
0.500082
0.518833
0.537778
0.556896
0.576168
0.595576
0.615103
0.634733
0.654452
0.674247
0.694105
0.714015
0.733968
0.753954
0.773965
0.793991
0.814025
0.834058
0.854082
0.874086
0.89406
0.913993
0.933873
0.953684
0.973412
0.99304
1.01255
1.03192
1.05112
1.07014
1.08895
1.10752
1.12583
1.14384
1.16154
1.17888
1.19584
1.2124
1.22851
1.24417
1.25934
1.274
1.28812
1.30168
1.31467
1.32708
1.33888
1.35007
1.36065
1.3706
1.37994
1.38866
1.39677
1.40428
1.41118
1.41749
1.42322
1.42838
1.43297
1.43702
1.44054
1.44354
1.44602
1.44799
1.44947
1.45045
1.45091
1.45088
1.45037
1.44934
1.4478
1.44574
1.44316
1.44004
1.43636
1.43211
1.42726
1.42178
1.41563
1.40879
1.40119
1.39281
1.38361
1.37353
1.36254
1.35061
1.33771
1.32381
1.30891
1.293
1.27609
1.2582
1.23938
1.21968
1.19917
1.17793
1.15605
1.13364
1.11079
1.08762
1.06422
1.0407
1.01715
0.993652
0.970261
0.947035
0.924019
0.901255
0.87878
0.856629
0.834835
0.813425
0.792423
0.771849
0.751718
0.732045
0.712839
0.694111
0.675865
0.658106
0.640838
0.624062
0.60778
0.591994
0.576716
0.561944
0.547675
0.533902
0.520607
0.507783
0.495405
0.48347
0.471934
0.460814
0.450113
0.439838
0.430005
0.420639
0.411784
0.403451
0.395901
0.387609
0.0293742
0.0608199
0.077974
0.0902096
0.100237
0.109035
0.117077
0.124646
0.131937
0.1391
0.146263
0.153532
0.161007
0.16877
0.176894
0.185439
0.194452
0.203969
0.214015
0.224605
0.235748
0.247448
0.259702
0.272506
0.285853
0.299731
0.31413
0.329033
0.344427
0.360291
0.376609
0.39336
0.410523
0.428078
0.446004
0.464278
0.48288
0.501788
0.520982
0.540441
0.560145
0.580075
0.600211
0.620537
0.641034
0.661687
0.68248
0.703401
0.724436
0.745574
0.766802
0.788112
0.809493
0.830937
0.852433
0.873973
0.895546
0.917142
0.938748
0.960351
0.981938
1.00349
1.02499
1.04642
1.06776
1.08898
1.11006
1.13097
1.15167
1.17214
1.19234
1.21225
1.23182
1.25102
1.26981
1.28816
1.30604
1.32341
1.34023
1.35648
1.37212
1.38714
1.4015
1.41518
1.42817
1.44046
1.45202
1.46286
1.47297
1.48235
1.491
1.49893
1.50614
1.51264
1.51844
1.52355
1.52798
1.53175
1.53487
1.53736
1.53922
1.54047
1.54107
1.54109
1.54051
1.53935
1.5376
1.53526
1.53232
1.52879
1.52466
1.51994
1.5146
1.50864
1.50204
1.49477
1.48681
1.47813
1.46869
1.45847
1.44742
1.43553
1.42274
1.40903
1.39437
1.37876
1.36218
1.34463
1.32613
1.30671
1.28642
1.26532
1.24348
1.22099
1.19795
1.17445
1.15059
1.12649
1.10222
1.0779
1.0536
1.0294
1.00536
0.981526
0.957946
0.934654
0.911681
0.889055
0.866802
0.844948
0.823512
0.802509
0.781952
0.761853
0.74222
0.723064
0.70439
0.686202
0.668504
0.651299
0.634588
0.618375
0.602666
0.587466
0.572773
0.558581
0.544878
0.531657
0.518902
0.506606
0.494746
0.483305
0.47227
0.461652
0.451474
0.441768
0.432574
0.423917
0.415968
0.407486
0.0325044
0.0655742
0.0838486
0.0969061
0.107617
0.11702
0.125611
0.133685
0.14144
0.149031
0.156581
0.164199
0.171982
0.180012
0.188365
0.197101
0.206274
0.215923
0.22608
0.236765
0.247993
0.259771
0.272102
0.284983
0.29841
0.312374
0.326866
0.341873
0.357384
0.373383
0.389855
0.406784
0.424155
0.441949
0.460148
0.478736
0.497694
0.517004
0.536647
0.556606
0.576862
0.597397
0.618194
0.639236
0.660506
0.68199
0.703671
0.725536
0.747573
0.769769
0.792112
0.814591
0.837198
0.859922
0.882752
0.90568
0.928694
0.951781
0.97493
0.998125
1.02135
1.04459
1.06781
1.09101
1.11415
1.1372
1.16014
1.18293
1.20554
1.22793
1.25006
1.2719
1.29339
1.3145
1.33518
1.3554
1.37511
1.39426
1.41282
1.43074
1.448
1.46456
1.48038
1.49544
1.50971
1.52318
1.53582
1.54763
1.55859
1.56871
1.57798
1.58641
1.59399
1.60074
1.60666
1.61176
1.61607
1.61959
1.62235
1.62434
1.62557
1.62606
1.62582
1.62487
1.62322
1.62087
1.61782
1.61407
1.60965
1.60454
1.59875
1.59229
1.58514
1.5773
1.56877
1.55954
1.54958
1.53888
1.52741
1.51516
1.50209
1.4882
1.47344
1.4578
1.44126
1.42382
1.40548
1.38623
1.36612
1.34517
1.32345
1.30101
1.27794
1.25432
1.23025
1.20582
1.18113
1.15629
1.13137
1.10647
1.08167
1.05703
1.0326
1.00844
0.98458
0.961044
0.937856
0.915034
0.892597
0.870571
0.848968
0.827795
0.807063
0.786777
0.766947
0.747582
0.728688
0.710269
0.692328
0.674869
0.657896
0.641412
0.625422
0.609932
0.594941
0.580446
0.56644
0.552917
0.539867
0.527281
0.515149
0.503457
0.492183
0.481303
0.470854
0.460873
0.4514
0.442465
0.434179
0.42552
0.0353144
0.0694697
0.0886574
0.102396
0.113683
0.123604
0.132676
0.141199
0.149377
0.15736
0.165271
0.173217
0.181289
0.18957
0.198131
0.207037
0.216338
0.22608
0.236296
0.247013
0.258248
0.270013
0.282315
0.295155
0.308532
0.322441
0.336877
0.351831
0.367293
0.383254
0.399703
0.416629
0.434018
0.451859
0.470136
0.488838
0.507949
0.527454
0.54734
0.56759
0.58819
0.609123
0.630374
0.651928
0.673771
0.695886
0.718262
0.740883
0.763738
0.786814
0.810101
0.833586
0.857261
0.881115
0.905139
0.929323
0.953654
0.97812
1.00271
1.0274
1.05217
1.07702
1.1019
1.12681
1.1517
1.17655
1.20133
1.22599
1.25049
1.2748
1.29887
1.32265
1.3461
1.36915
1.39177
1.4139
1.43549
1.45649
1.47686
1.49653
1.51548
1.53365
1.55102
1.56753
1.58317
1.5979
1.6117
1.62456
1.63646
1.64739
1.65736
1.66635
1.67437
1.68143
1.68753
1.69269
1.69691
1.70022
1.70264
1.70415
1.70478
1.70454
1.70346
1.70153
1.69877
1.69519
1.6908
1.6856
1.6796
1.67282
1.66526
1.65693
1.64784
1.63798
1.62737
1.61599
1.60385
1.59095
1.57727
1.5628
1.54753
1.53146
1.51456
1.49684
1.47828
1.45891
1.43873
1.41774
1.39599
1.37352
1.35039
1.32668
1.30245
1.27781
1.25284
1.22763
1.20229
1.1769
1.15155
1.1263
1.10124
1.07642
1.05188
1.02767
1.00381
0.980319
0.957205
0.934474
0.912134
0.890217
0.868721
0.847646
0.826996
0.806772
0.786982
0.767637
0.74874
0.730296
0.712306
0.694777
0.677714
0.661122
0.645006
0.62937
0.614215
0.599541
0.585346
0.571626
0.558373
0.545583
0.533249
0.521363
0.509912
0.498844
0.488192
0.478
0.468307
0.459144
0.450583
0.441775
0.0376893
0.0724373
0.0923255
0.106605
0.118358
0.128707
0.138186
0.147099
0.15565
0.163988
0.172232
0.180482
0.188827
0.197343
0.2061
0.215159
0.22457
0.234379
0.24462
0.255322
0.266507
0.27819
0.290381
0.303085
0.316306
0.330044
0.344296
0.35906
0.374329
0.3901
0.406366
0.423121
0.440358
0.45807
0.476244
0.494871
0.513943
0.53345
0.55338
0.573722
0.594465
0.615596
0.637102
0.658969
0.681187
0.703741
0.726619
0.749809
0.773299
0.797078
0.821134
0.845456
0.870034
0.894862
0.91993
0.945229
0.970744
0.996462
1.02237
1.04844
1.07467
1.10103
1.12749
1.15402
1.1806
1.20719
1.23375
1.26024
1.28662
1.31282
1.33882
1.36454
1.38993
1.41495
1.43952
1.46358
1.48709
1.50998
1.53219
1.55366
1.57435
1.59419
1.61316
1.63119
1.64825
1.66431
1.67934
1.69332
1.70621
1.71802
1.72874
1.73836
1.74687
1.75429
1.76062
1.76587
1.77006
1.77319
1.77528
1.77635
1.77641
1.77547
1.77353
1.77062
1.76674
1.7619
1.75612
1.7494
1.74177
1.73323
1.7238
1.71349
1.70232
1.69031
1.67746
1.66378
1.6493
1.63401
1.61793
1.60106
1.5834
1.56499
1.5458
1.52585
1.50515
1.48371
1.46152
1.43863
1.41513
1.39106
1.36649
1.34151
1.31619
1.29061
1.26488
1.23907
1.21327
1.18756
1.16202
1.13671
1.11169
1.087
1.06268
1.03876
1.01524
0.992138
0.969444
0.94715
0.925229
0.903712
0.882608
0.861908
0.841606
0.821702
0.802198
0.783109
0.764437
0.746182
0.728347
0.71094
0.693968
0.677438
0.661355
0.645723
0.630546
0.615825
0.601563
0.587758
0.574406
0.561505
0.549051
0.537041
0.525465
0.514273
0.503484
0.493145
0.483291
0.473954
0.465178
0.456262
0.0395854
0.0744646
0.0948354
0.109511
0.121615
0.1323
0.142105
0.151341
0.160209
0.168856
0.177395
0.18592
0.194515
0.203249
0.212187
0.221385
0.230892
0.240749
0.250992
0.26165
0.272746
0.284298
0.29632
0.30882
0.321806
0.335283
0.349252
0.363718
0.378678
0.394133
0.410081
0.426526
0.443468
0.460908
0.478821
0.497208
0.51607
0.535402
0.555199
0.575454
0.596159
0.617304
0.638882
0.660881
0.683291
0.706103
0.729305
0.752887
0.776839
0.801151
0.82581
0.850804
0.876118
0.90176
0.927722
0.95399
0.98055
1.00739
1.03448
1.06181
1.08937
1.11713
1.14506
1.17313
1.2013
1.22955
1.25782
1.28606
1.31424
1.34229
1.37016
1.39778
1.4251
1.45204
1.47854
1.50454
1.52996
1.55473
1.57879
1.60208
1.62452
1.64607
1.66665
1.68623
1.70476
1.72218
1.73847
1.7536
1.76753
1.78026
1.79176
1.80204
1.81109
1.8189
1.82549
1.83086
1.83502
1.838
1.83979
1.84043
1.83994
1.83828
1.83549
1.83158
1.82655
1.82042
1.8132
1.80492
1.79557
1.78519
1.77379
1.7614
1.74803
1.73372
1.71849
1.70235
1.68535
1.66752
1.64886
1.62941
1.60918
1.58812
1.56633
1.54385
1.52074
1.49707
1.47295
1.44839
1.42338
1.39796
1.37221
1.34621
1.32002
1.29373
1.26744
1.24122
1.21515
1.18931
1.16375
1.13854
1.11372
1.08933
1.0654
1.04194
1.01895
0.99643
0.974351
0.952695
0.931441
0.910658
0.890283
0.870286
0.850652
0.831372
0.81242
0.793835
0.775622
0.757781
0.740313
0.723225
0.706534
0.690244
0.674362
0.658891
0.643838
0.629209
0.615009
0.601238
0.587897
0.574985
0.562502
0.550447
0.538812
0.527553
0.516692
0.506271
0.49632
0.486867
0.477938
0.468958
0.040983
0.0755671
0.0962038
0.111129
0.123471
0.134392
0.144439
0.153924
0.163045
0.171945
0.180733
0.189495
0.198306
0.207232
0.216331
0.225653
0.235241
0.245134
0.255365
0.265962
0.276949
0.288344
0.300164
0.31242
0.325122
0.33828
0.351903
0.365999
0.380578
0.395626
0.411156
0.42718
0.443709
0.460759
0.478301
0.49634
0.514878
0.533915
0.553451
0.573482
0.594006
0.615017
0.636511
0.658481
0.680921
0.703823
0.72718
0.750984
0.775226
0.799899
0.824993
0.850497
0.876398
0.902716
0.92943
0.956527
0.98399
1.0118
1.03995
1.0684
1.09715
1.12617
1.15544
1.18492
1.21456
1.24434
1.27421
1.30411
1.33398
1.36378
1.39343
1.42287
1.45203
1.48083
1.5092
1.53706
1.56434
1.59095
1.61683
1.64189
1.66606
1.68928
1.71148
1.73259
1.75257
1.77135
1.7889
1.80518
1.82015
1.83379
1.84609
1.85703
1.86661
1.87482
1.88166
1.88715
1.89129
1.8941
1.8956
1.8958
1.89474
1.89236
1.88869
1.88374
1.87752
1.87005
1.86134
1.8514
1.84027
1.82795
1.81448
1.79988
1.78419
1.76744
1.74968
1.73093
1.71123
1.69052
1.66894
1.64656
1.62347
1.59985
1.5757
1.55099
1.52578
1.50017
1.47429
1.44795
1.4213
1.39443
1.36744
1.34039
1.31336
1.28642
1.25968
1.23319
1.20703
1.18126
1.15593
1.13108
1.10676
1.08298
1.05976
1.0371
1.01498
0.993378
0.972257
0.951576
0.931273
0.911402
0.891917
0.872788
0.853993
0.835517
0.817355
0.799551
0.782069
0.7649
0.748043
0.731488
0.715272
0.699407
0.683898
0.668751
0.653975
0.639582
0.625578
0.611966
0.598751
0.585934
0.573518
0.561503
0.549879
0.538623
0.527762
0.517328
0.507345
0.497837
0.488818
0.479826
0.0418596
0.0757426
0.0964487
0.111492
0.123962
0.135023
0.145226
0.154881
0.164186
0.173278
0.18226
0.191211
0.200195
0.209278
0.218512
0.227939
0.237597
0.247519
0.257734
0.268267
0.279141
0.290377
0.301992
0.314002
0.326408
0.339224
0.35247
0.366165
0.380336
0.394963
0.41006
0.425639
0.441704
0.458257
0.475304
0.492865
0.51095
0.529565
0.548716
0.568404
0.588631
0.609397
0.6307
0.652537
0.674906
0.6978
0.721215
0.745146
0.769585
0.794525
0.819959
0.845877
0.872269
0.899121
0.926433
0.954195
0.982397
1.01102
1.04006
1.06947
1.09927
1.12941
1.15986
1.19057
1.22153
1.25268
1.28398
1.31536
1.34678
1.37817
1.40946
1.44057
1.47143
1.50195
1.53206
1.56167
1.59069
1.61904
1.64662
1.67336
1.69918
1.72399
1.74771
1.77029
1.79165
1.81173
1.83048
1.84785
1.86381
1.87833
1.89137
1.90293
1.913
1.92156
1.92862
1.93419
1.93826
1.94087
1.942
1.94176
1.94008
1.93692
1.93231
1.92626
1.91879
1.90989
1.8996
1.88792
1.8749
1.86054
1.84489
1.82796
1.80972
1.79027
1.76968
1.74801
1.72537
1.70195
1.6777
1.6527
1.62707
1.60098
1.57423
1.54701
1.51944
1.4916
1.46359
1.43541
1.40717
1.37894
1.35081
1.32284
1.29513
1.26773
1.24073
1.2142
1.18819
1.16275
1.13792
1.11373
1.0902
1.06735
1.04515
1.02361
1.00268
0.982322
0.962481
0.943101
0.924128
0.905541
0.887304
0.869383
0.85175
0.834381
0.817244
0.800383
0.783783
0.767438
0.751347
0.735518
0.719992
0.704758
0.689818
0.675178
0.660837
0.646827
0.633156
0.619833
0.606862
0.594248
0.581998
0.570112
0.55858
0.547413
0.536631
0.526256
0.51631
0.506813
0.497769
0.48882
0.0423813
0.0752816
0.0958343
0.110822
0.123276
0.134352
0.144598
0.154321
0.163718
0.172919
0.182023
0.191103
0.200217
0.209435
0.21879
0.228316
0.238043
0.247998
0.258206
0.268689
0.279468
0.290562
0.301994
0.313791
0.325938
0.338458
0.351368
0.364677
0.378391
0.392527
0.407113
0.42217
0.437718
0.453772
0.470342
0.487439
0.505078
0.523269
0.542023
0.561348
0.581249
0.601731
0.622797
0.644448
0.666683
0.689501
0.712898
0.736872
0.761417
0.786527
0.812196
0.838416
0.865179
0.892475
0.920298
0.948641
0.977491
1.00683
1.03663
1.06688
1.09754
1.12861
1.16005
1.19183
1.2239
1.25623
1.28876
1.32144
1.3542
1.38697
1.41969
1.45228
1.48465
1.51671
1.54838
1.57956
1.61015
1.64007
1.66921
1.69748
1.72479
1.75106
1.77619
1.8001
1.82273
1.844
1.86384
1.88221
1.89906
1.91435
1.92804
1.94012
1.95058
1.9594
1.96657
1.97211
1.97601
1.9783
1.97895
1.97819
1.97577
1.97172
1.96604
1.95876
1.94988
1.9394
1.92733
1.91368
1.89849
1.8818
1.86364
1.84408
1.82327
1.80119
1.77791
1.75355
1.72825
1.7019
1.67467
1.6467
1.61812
1.58904
1.55954
1.52972
1.49973
1.46967
1.43963