/*--------------------------------*- C++ -*----------------------------------*\
| =========                 |                                                 |
| \\      /  F ield         | OpenFOAM: The Open Source CFD Toolbox           |
|  \\    /   O peration     | Version:  2312                                  |
|   \\  /    A nd           | Website:  www.openfoam.com                      |
|    \\/     M anipulation  |                                                 |
\*---------------------------------------------------------------------------*/
FoamFile
{
    version     2.0;
    format      ascii;
    arch        "LSB;label=32;scalar=64";
    class       volScalarField;
    location    "100";
    object      mag(U);
}
// * * * * * * * * * * * * * * * * * * * * * * * * * * * * * * * * * * * * * //

dimensions      [0 1 -1 0 0 0 0];

internalField   nonuniform List<scalar> 
12225
(
4.91718
4.70388
4.45488
4.20492
3.98097
3.79188
3.63357
3.50194
3.39314
3.30326
3.22878
3.16675
3.11493
3.07179
3.03633
3.00899
2.98528
2.97966
5.07624
5.14498
5.13422
5.08677
5.02768
4.96199
4.89095
4.81672
4.74271
4.67134
4.60394
4.54113
4.48336
4.43075
4.38337
4.34117
4.30537
4.27422
5.00439
5.02837
5.05665
5.07547
5.08645
5.09057
5.08718
5.07703
5.06198
5.04373
5.02344
5.00201
4.98021
4.95865
4.93789
4.91826
4.9009
4.88342
4.99798
5.01
5.03478
5.05428
5.06865
5.08044
5.08918
5.09455
5.09719
5.09777
5.09672
5.09441
5.09118
5.0874
5.08334
5.07919
5.07523
5.06996
4.99929
5.00895
5.02806
5.04348
5.05579
5.06736
5.07757
5.08584
5.09243
5.09778
5.1021
5.10559
5.10841
5.11076
5.11274
5.11441
5.11569
5.11576
5.00015
5.00829
5.02351
5.03671
5.04791
5.05876
5.06875
5.07737
5.08479
5.09133
5.09717
5.10242
5.10719
5.11157
5.11562
5.11927
5.1224
5.12448
5.00029
5.00719
5.02
5.03197
5.04244
5.05256
5.06203
5.07046
5.07795
5.08475
5.09101
5.09679
5.10218
5.10722
5.11192
5.1162
5.11991
5.12272
5.00029
5.00612
5.01713
5.02811
5.03796
5.04746
5.05644
5.0646
5.07197
5.07875
5.08506
5.09095
5.09648
5.10166
5.10649
5.11089
5.11471
5.11776
5.00031
5.00524
5.01467
5.02468
5.03395
5.04291
5.05146
5.05933
5.06654
5.07322
5.07945
5.08529
5.09077
5.09591
5.10067
5.10498
5.10874
5.11183
5.00032
5.0045
5.01255
5.02158
5.03025
5.03869
5.04682
5.05442
5.06144
5.06797
5.07408
5.07981
5.08518
5.09018
5.09479
5.09896
5.1026
5.10567
5.00031
5.00386
5.01073
5.01881
5.02684
5.03475
5.04245
5.04974
5.05654
5.0629
5.06886
5.07445
5.07966
5.08451
5.08896
5.09298
5.09649
5.09951
5.00029
5.00336
5.00932
5.01658
5.02401
5.03142
5.0387
5.04566
5.05222
5.05839
5.06419
5.06962
5.07469
5.07938
5.08368
5.08756
5.09097
5.09394
5.00027
5.00294
5.00812
5.01462
5.02147
5.02838
5.03523
5.04185
5.04814
5.05409
5.0597
5.06496
5.06986
5.07439
5.07854
5.08228
5.08559
5.08851
5.00024
5.00254
5.00698
5.01271
5.01892
5.02528
5.03163
5.03784
5.04381
5.04948
5.05483
5.05986
5.06456
5.0689
5.07288
5.07647
5.07968
5.08253
5.00022
5.00216
5.00593
5.01092
5.01647
5.02224
5.02807
5.03383
5.0394
5.04473
5.04978
5.05454
5.05899
5.0631
5.06688
5.07032
5.0734
5.07618
5.00019
5.00183
5.00501
5.00933
5.01424
5.01943
5.02473
5.03001
5.03516
5.04012
5.04484
5.04929
5.05346
5.05734
5.0609
5.06416
5.06711
5.0698
5.00016
5.00156
5.00427
5.00801
5.01236
5.01702
5.02182
5.02665
5.03139
5.03598
5.04037
5.04452
5.04841
5.05205
5.05541
5.05849
5.06131
5.06389
5.00014
5.00136
5.00375
5.00708
5.01099
5.01523
5.01964
5.02409
5.02849
5.03275
5.03685
5.04073
5.04439
5.04781
5.05099
5.05393
5.05663
5.05912
5.00013
5.00127
5.00352
5.00666
5.01038
5.01442
5.01861
5.02285
5.02703
5.0311
5.035
5.03871
5.0422
5.04547
5.04853
5.05136
5.05398
5.0564
5.00014
5.00135
5.00373
5.00705
5.01094
5.0151
5.01939
5.02368
5.02789
5.03196
5.03584
5.03951
5.04296
5.04619
5.0492
5.052
5.05459
5.05698
5.00015
5.00149
5.00416
5.00788
5.01214
5.01661
5.02114
5.02563
5.02999
5.03416
5.0381
5.04181
5.04528
5.04851
5.05152
5.05431
5.05689
5.05927
5.00015
5.00164
5.00478
5.00913
5.01392
5.0188
5.02367
5.02845
5.03302
5.03733
5.04137
5.04513
5.04864
5.05189
5.0549
5.05768
5.06026
5.06262
5.00012
5.00171
5.00549
5.01068
5.01613
5.02147
5.02674
5.03183
5.03662
5.04109
5.04523
5.04907
5.05261
5.05588
5.0589
5.06168
5.06425
5.0666
5.00005
5.00168
5.00626
5.01239
5.01847
5.02435
5.0301
5.03557
5.04062
5.04526
5.04954
5.05347
5.05707
5.06037
5.0634
5.06617
5.06872
5.07104
4.99981
5.00119
5.00704
5.01422
5.02084
5.02734
5.0338
5.03983
5.04526
5.05017
5.05463
5.05867
5.06233
5.06562
5.0686
5.07129
5.07373
5.07592
4.99829
4.99841
5.0072
5.01671
5.02437
5.0317
5.03899
5.04567
5.05155
5.05673
5.06132
5.06535
5.06887
5.07192
5.07456
5.07683
5.07879
5.08045
4.99438
4.99229
5.0059
5.02045
5.03149
5.04091
5.04933
5.05643
5.06224
5.06698
5.0708
5.07378
5.07599
5.07751
5.07846
5.0789
5.07894
5.07862
4.99493
4.99725
5.01304
5.03034
5.04564
5.05845
5.06777
5.07335
5.07576
5.07575
5.0738
5.07025
5.06543
5.0596
5.05301
5.04583
5.03826
5.03049
5.0413
5.09322
5.1021
5.09224
5.08012
5.06584
5.04608
5.02066
4.99128
4.95953
4.92656
4.89316
4.85991
4.82725
4.79544
4.76469
4.73504
4.70684
4.9737
4.89693
4.76588
4.60637
4.44769
4.3033
4.17479
4.06104
3.96098
3.87335
3.79645
3.72867
3.66861
3.61515
3.56727
3.52421
3.48502
3.44956
0.00244736
0.0118689
0.0215812
0.0309592
0.0391988
0.0459376
0.0508856
0.0538303
0.0546925
0.0532697
0.049825
0.0446464
0.0380435
0.030386
0.0222672
0.0153067
0.0142396
0.0215398
0.0330899
0.046876
0.0623845
0.0795182
0.0983028
0.118784
0.140992
0.164917
0.190504
0.217647
0.2462
0.275978
0.306766
0.338317
0.370379
0.402701
0.435045
0.46719
0.498945
0.530146
0.560662
0.590395
0.619273
0.647251
0.674304
0.700427
0.725628
0.749921
0.773401
0.796118
0.818119
0.839454
0.86017
0.880315
0.89993
0.919059
0.937739
0.956009
0.973902
0.991449
1.00868
1.02563
1.04233
1.05879
1.07505
1.09113
1.10705
1.12284
1.13852
1.15411
1.16963
1.1851
1.20054
1.21598
1.23143
1.2469
1.26241
1.27798
1.29361
1.3093
1.32507
1.34091
1.35682
1.37279
1.38879
1.40483
1.42088
1.43691
1.45285
1.46866
1.48425
1.49956
1.51458
1.52922
1.54339
1.55697
1.56988
1.58192
1.59295
1.60282
1.61133
1.61829
1.62347
1.62673
1.62809
1.62764
1.62522
1.62075
1.61427
1.60541
1.59428
1.58087
1.56494
1.54639
1.52514
1.50123
1.47464
1.44522
1.41307
1.37813
1.34043
1.30001
1.25697
1.21137
1.16328
1.11281
1.06006
1.00516
0.948288
0.889621
0.829354
0.767687
0.70483
0.640998
0.576405
0.511271
0.445809
0.380243
0.314823
0.249879
0.185907
0.124056
0.0681157
0.0463561
0.0903198
0.149451
0.210012
0.26974
0.327982
0.38447
0.439067
0.491709
0.542363
0.591007
0.637649
0.682297
0.724992
0.765743
0.804446
0.841159
0.875955
0.908893
0.94003
0.969424
0.997133
1.02322
1.04773
1.07074
1.0923
1.11247
1.13127
1.14873
1.16485
1.1796
1.19289
1.20456
1.21425
1.22136
1.2244
1.21711
1.20401
1.13581
0.0177881
0.0324292
0.0367092
0.0378808
0.0370764
0.0349515
0.0320459
0.028728
0.0253258
0.0223782
0.0206295
0.021306
0.0254231
0.0329958
0.0434952
0.056481
0.0716909
0.0889298
0.108049
0.128973
0.151634
0.175941
0.201777
0.228991
0.257407
0.286815
0.316988
0.347687
0.378673
0.409717
0.440602
0.471137
0.50117
0.530577
0.559267
0.587175
0.61426
0.6405
0.665894
0.690452
0.714199
0.73717
0.759406
0.780952
0.801853
0.822147
0.84187
0.86105
0.879723
0.897922
0.915681
0.933034
0.950013
0.966647
0.982965
0.998994
1.01476
1.03028
1.04559
1.06069
1.07562
1.0904
1.10503
1.11954
1.13395
1.14827
1.16252
1.17671
1.19085
1.20496
1.21905
1.23312
1.24718
1.26123
1.27528
1.28933
1.30338
1.31741
1.33143
1.34541
1.35934
1.37319
1.38693
1.40054
1.41397
1.42718
1.44011
1.4527
1.46487
1.47654
1.48767
1.4982
1.50803
1.51707
1.52521
1.53238
1.5385
1.54349
1.54733
1.54999
1.55148
1.55177
1.55069
1.54791
1.54328
1.53669
1.5279
1.51694
1.50366
1.48786
1.46955
1.44867
1.42517
1.39895
1.36993
1.33816
1.3036
1.26623
1.22609
1.18319
1.13763
1.08949
1.03883
0.985775
0.930426
0.872937
0.81348
0.752246
0.689443
0.625293
0.560033
0.493921
0.42724
0.360321
0.293594
0.227729
0.164118
0.106954
0.0726949
0.0919263
0.143491
0.202438
0.262518
0.322347
0.381382
0.439241
0.495685
0.550555
0.603744
0.655186
0.704838
0.75267
0.798673
0.842846
0.885186
0.925712
0.964456
1.00145
1.03674
1.07034
1.1023
1.13267
1.16149
1.18882
1.21471
1.23921
1.26237
1.28423
1.30482
1.32417
1.34226
1.35907
1.37453
1.38848
1.4007
1.41058
1.4185
1.42255
1.42598
1.41312
0.0363254
0.0453931
0.0408225
0.0340106
0.0259993
0.0171461
0.00814232
0.00583073
0.0151281
0.0260893
0.0377284
0.0500187
0.0630811
0.0771013
0.0922833
0.108808
0.1268
0.146314
0.167325
0.189751
0.213459
0.238276
0.263997
0.290398
0.317252
0.344337
0.37145
0.398411
0.425068
0.451288
0.476982
0.502102
0.526623
0.550538
0.573849
0.596571
0.618719
0.640312
0.66137
0.681914
0.701963
0.721538
0.740657
0.759337
0.777592
0.795435
0.812876
0.829926
0.846602
0.862918
0.878892
0.894543
0.90989
0.924951
0.939745
0.95429
0.968603
0.982701
0.996602
1.01032
1.02387
1.03727
1.05054
1.06368
1.07671
1.08965
1.1025
1.11528
1.128
1.14066
1.15328
1.16586
1.17841
1.19093
1.20343
1.21589
1.22834
1.24074
1.2531
1.26541
1.27764
1.28979
1.30182
1.3137
1.32541
1.3369
1.34814
1.35906
1.3696
1.3797
1.38932
1.3984
1.40687
1.41466
1.42168
1.42788
1.43316
1.43746
1.44068
1.44274
1.44353
1.44293
1.4408
1.43699
1.43139
1.42385
1.41419
1.40241
1.38831
1.37181
1.35284
1.33135
1.30727
1.28053
1.25105
1.21887
1.18394
1.14627
1.10588
1.0628
1.01712
0.968924
0.918297
0.865354
0.810231
0.753095
0.694141
0.633592
0.571701
0.508759
0.445118
0.381223
0.317709
0.255612
0.196957
0.146483
0.115651
0.120492
0.15709
0.208507
0.265358
0.323848
0.382412
0.440407
0.497478
0.553363
0.607871
0.660867
0.712254
0.761965
0.809953
0.856192
0.900667
0.943374
0.984318
1.02353
1.06107
1.09695
1.13121
1.16387
1.195
1.22462
1.25279
1.27955
1.30496
1.32905
1.35189
1.3735
1.39391
1.41316
1.43123
1.4481
1.46371
1.47795
1.49065
1.50142
1.51018
1.51593
1.52096
1.51918
0.0477216
0.0488315
0.0385303
0.0272017
0.0161779
0.00963492
0.0164373
0.0287606
0.0423766
0.0566485
0.0714432
0.0867572
0.102653
0.119233
0.136617
0.154913
0.174191
0.194467
0.215694
0.237765
0.26053
0.283802
0.30738
0.331061
0.354659
0.37801
0.400984
0.423487
0.445459
0.46688
0.48776
0.508124
0.528007
0.547448
0.566485
0.585151
0.603474
0.621474
0.639168
0.656568
0.67368
0.690509
0.707055
0.723317
0.739293
0.754982
0.77038
0.785489
0.800312
0.814854
0.829123
0.843126
0.856875
0.870379
0.883651
0.896703
0.909546
0.922192
0.934655
0.946946
0.959077
0.971061
0.982908
0.994632
1.00624
1.01775
1.02917
1.04051
1.05177
1.06297
1.07412
1.08522
1.09628
1.1073
1.11828
1.12923
1.14015
1.15103
1.16186
1.17263
1.18334
1.19396
1.20448
1.21486
1.22508
1.23512
1.24492
1.25444
1.26362
1.27242
1.28078
1.28866
1.296
1.30273
1.30876
1.31403
1.31844
1.32192
1.32435
1.32562
1.32563
1.32426
1.32138
1.31687
1.31062
1.3025
1.29238
1.28017
1.26575
1.24903
1.22994
1.20842
1.18439
1.15779
1.12857
1.09672
1.06224
1.02512
0.985408
0.943142
0.898406
0.851292
0.801915
0.750409
0.696946
0.641737
0.58504
0.527173
0.46854
0.409678
0.351363
0.294814
0.242146
0.197299
0.167309
0.161039
0.180894
0.219474
0.268231
0.321903
0.377703
0.434143
0.490417
0.546079
0.600831
0.654447
0.706756
0.757628
0.806965
0.854699
0.900779
0.945174
0.987867
1.02886
1.06815
1.10579
1.14179
1.17621
1.20908
1.24044
1.27033
1.29879
1.32587
1.35162
1.37608
1.39929
1.42132
1.44218
1.46192
1.48055
1.49807
1.51447
1.52971
1.5437
1.55632
1.56733
1.57666
1.58376
1.5907
1.59402
0.0501402
0.043971
0.0317509
0.0215584
0.0192924
0.0274268
0.0403948
0.0551448
0.0707943
0.0870494
0.103795
0.120989
0.138629
0.156737
0.175343
0.194471
0.21412
0.234251
0.254787
0.275613
0.296583
0.317539
0.338319
0.358777
0.378791
0.39827
0.417158
0.435437
0.45312
0.470247
0.486875
0.503067
0.518888
0.534398
0.54965
0.564689
0.579549
0.594252
0.608814
0.623241
0.637531
0.651678
0.665675
0.679511
0.693174
0.706652
0.719937
0.73302
0.745894
0.758558
0.771009
0.783249
0.795281
0.807108
0.818735
0.830169
0.841418
0.852488
0.863388
0.874127
0.884714
0.895157
0.905468
0.915654
0.925727
0.935696
0.94557
0.955359
0.965073
0.97472
0.984307
0.993843
1.00333
1.01279
1.02221
1.03159
1.04095
1.05027
1.05955
1.06879
1.07797
1.08708
1.0961
1.10502
1.11379
1.12241
1.13082
1.139
1.14688
1.15442
1.16158
1.16831
1.17454
1.18022
1.18526
1.18959
1.19311
1.19574
1.19738
1.19791
1.19723
1.19522
1.19179
1.18681
1.18016
1.17174
1.16142
1.14912
1.13473
1.11816
1.09935
1.07823
1.05471
1.02876
1.00034
0.969431
0.936037
0.900177
0.861896
0.821264
0.778379
0.733364
0.686372
0.637599
0.587299
0.535803
0.483549
0.431135
0.379412
0.329652
0.283847
0.245147
0.218184
0.208179
0.217796
0.24472
0.283815
0.330383
0.381207
0.434264
0.488292
0.54249
0.596354
0.649552
0.701841
0.753031
0.802968
0.851533
0.898633
0.9442
0.988183
1.03055
1.07129
1.11039
1.14786
1.18374
1.21804
1.25082
1.28211
1.31195
1.3404
1.36748
1.39326
1.41777
1.44107
1.46319
1.48418
1.50408
1.52291
1.5407
1.55745
1.57317
1.58781
1.60133
1.61365
1.62464
1.63431
1.6424
1.65086
1.65721
0.0439012
0.0331345
0.0232515
0.0230994
0.0331998
0.0474785
0.0633579
0.0800768
0.0973585
0.115075
0.133151
0.151533
0.17018
0.18906
0.208138
0.227372
0.246708
0.26607
0.285362
0.304472
0.323278
0.341657
0.359498
0.376709
0.39323
0.40903
0.424111
0.438507
0.452277
0.465494
0.478246
0.490617
0.502692
0.514547
0.526247
0.537844
0.549379
0.560878
0.572358
0.583823
0.59527
0.606691
0.618073
0.629398
0.640651
0.651814
0.66287
0.673804
0.684604
0.695259
0.705761
0.716103
0.726282
0.736294
0.746141
0.755821
0.765338
0.774695
0.783896
0.792947
0.801852
0.81062
0.819258
0.827773
0.836174
0.844471
0.852672
0.860787
0.868824
0.876793
0.884703
0.892562
0.900379
0.90816
0.915912
0.92364
0.931344
0.939027
0.946684
0.954312
0.961901
0.969441
0.976918
0.984313
0.991603
0.998762
1.00576
1.01256
1.01911
1.02537
1.03129
1.03684
1.04195
1.04655
1.05057
1.05394
1.05657
1.05836
1.05923
1.05907
1.05779
1.05528
1.05143
1.04614
1.0393
1.0308
1.02054
1.00843
0.994379
0.978308
0.960144
0.939818
0.917282
0.892499
0.865443
0.83611
0.804514
0.770705
0.734757
0.696781
0.656924
0.615381
0.572402
0.528331
0.483624
0.438919
0.3951
0.353434
0.315731
0.284519
0.263
0.254384
0.26048
0.2806
0.312079
0.351741
0.396872
0.445461
0.496088
0.547764
0.599793
0.651682
0.703089
0.753764
0.803514
0.852181
0.899635
0.94577
0.9905
1.03376
1.07551
1.11571
1.15435
1.19143
1.22695
1.26094
1.29343
1.32445
1.35404
1.38225
1.40911
1.43469
1.45902
1.48216
1.50415
1.52504
1.54486
1.56366
1.58145
1.59828
1.61414
1.62904
1.64297
1.6559
1.66781
1.67862
1.68844
1.69721
1.70677
1.715
0.031206
0.0194983
0.0213229
0.0343887
0.0505752
0.0676842
0.0853091
0.103324
0.121659
0.140256
0.159057
0.178
0.197017
0.216034
0.234973
0.253751
0.272277
0.290453
0.308179
0.32535
0.341869
0.357648
0.37262
0.386739
0.399991
0.412388
0.423973
0.434812
0.44499
0.454607
0.463765
0.472567
0.481113
0.489489
0.497771
0.506023
0.514292
0.522611
0.531001
0.53947
0.548018
0.556636
0.565311
0.574024
0.582755
0.591482
0.600184
0.608841
0.617434
0.625946
0.634361
0.642668
0.650856
0.658917
0.666843
0.674632
0.682279
0.689784
0.697147
0.70437
0.711455
0.718408
0.725233
0.731937
0.738528
0.745013
0.751402
0.757703
0.763927
0.770084
0.776182
0.782233
0.788246
0.79423
0.800192
0.80614
0.812078
0.818008
0.823931
0.829843
0.835741
0.841615
0.847453
0.85324
0.858957
0.86458
0.870081
0.875425
0.880571
0.885476
0.8901
0.8944
0.898319
0.901791
0.904748
0.907117
0.908819
0.909771
0.909885
0.909075
0.907247
0.904303
0.900147
0.894678
0.8878
0.879417
0.86944
0.857786
0.844382
0.829155
0.812043
0.793001
0.771997
0.749014
0.724049
0.697131
0.668317
0.637709
0.605451
0.571745
0.536859
0.501156
0.465122
0.429422
0.39496
0.362956
0.335015
0.313128
0.299479
0.29597
0.303551
0.321856
0.349429
0.384341
0.424715
0.468969
0.515854
0.56441
0.613907
0.66379
0.713633
0.763112
0.811984
0.86006
0.907188
0.953242
0.998111
1.04171
1.08395
1.12479
1.16419
1.2021
1.23853
1.27347
1.30693
1.33892
1.36948
1.39865
1.42645
1.45293
1.47813
1.50211
1.52491
1.54658
1.56716
1.58671
1.60527
1.62286
1.63952
1.65528
1.67016
1.68417
1.69731
1.70958
1.72097
1.7315
1.74134
1.75052
1.76082
1.77016
0.0146141
0.017267
0.0335961
0.0515232
0.069675
0.0879045
0.10629
0.124859
0.143596
0.162459
0.181389
0.200307
0.219123
0.237738
0.256044
0.273932
0.291292
0.308015
0.323999
0.339153
0.353397
0.366674
0.378945
0.3902
0.400454
0.40975
0.418152
0.425749
0.43264
0.438939
0.444761
0.450219
0.455423
0.460471
0.465449
0.470431
0.475474
0.480621
0.485901
0.49133
0.496912
0.502644
0.508513
0.514503
0.520592
0.526757
0.532974
0.539218
0.545465
0.551694
0.557883
0.564013
0.570069
0.576035
0.581901
0.587656
0.593292
0.598803
0.604186
0.609439
0.614562
0.619557
0.624426
0.629175
0.633811
0.63834
0.642772
0.647116
0.651383
0.655582
0.659727
0.663828
0.667896
0.671943
0.675979
0.680012
0.684049
0.688097
0.692157
0.696229
0.700312
0.704398
0.70848
0.712544
0.716574
0.720548
0.724442
0.728225
0.731857
0.7353
0.73852
0.741473
0.744105
0.746358
0.748168
0.749468
0.750189
0.750257
0.749595
0.748131
0.745776
0.742448
0.738061
0.732527
0.725766
0.717699
0.708257
0.697378
0.685004
0.671088
0.6556
0.638524
0.619869
0.599661
0.57796
0.554864
0.530532
0.505183
0.479124
0.452757
0.42662
0.401406
0.378019
0.357579
0.341411
0.330935
0.327464
0.331904
0.344529
0.364939
0.392231
0.42526
0.46286
0.503972
0.54769
0.593257
0.640053
0.687565
0.735379
0.783157
0.830625
0.877558
0.923784
0.969161
1.01357
1.05691
1.09909
1.14004
1.17969
1.218
1.25493
1.29045
1.32456
1.35725
1.38854
1.41844
1.44699
1.4742
1.50013
1.5248
1.54827
1.57057
1.59176
1.61189
1.631
1.64914
1.66634
1.68265
1.69811
1.71274
1.72656
1.73961
1.7519
1.76343
1.77425
1.78441
1.79412
1.8035
1.81422
1.82414
0.0113748
0.0350288
0.0533254
0.0715965
0.0898079
0.108003
0.126286
0.144687
0.163182
0.181714
0.20021
0.218574
0.236698
0.254463
0.271745
0.288419
0.304366
0.319473
0.333641
0.346787
0.358847
0.36978
0.37957
0.388225
0.395779
0.402289
0.407835
0.412511
0.416428
0.419702
0.422455
0.424808
0.426875
0.428764
0.43057
0.432376
0.434252
0.436251
0.438413
0.440764
0.443319
0.44608
0.449041
0.452191
0.45551
0.458975
0.462561
0.466242
0.469991
0.47378
0.477585
0.481382
0.485149
0.488865
0.492514
0.49608
0.49955
0.502914
0.506164
0.509294
0.512301
0.515184
0.517945
0.520587
0.523115
0.525536
0.527859
0.530094
0.532251
0.534344
0.536385
0.538387
0.540363
0.542327
0.544291
0.546267
0.548263
0.550288
0.552347
0.554442
0.556574
0.558739
0.56093
0.563137
0.565345
0.567536
0.569688
0.571771
0.573755
0.575601
0.577277
0.578747
0.579961
0.580867
0.581409
0.581533
0.581178
0.580285
0.578792
0.576643
0.573766
0.570095
0.565567
0.560118
0.553693
0.546251
0.537754
0.528175
0.517502
0.505743
0.49293
0.479122
0.464417
0.448952
0.432925
0.416607
0.400361
0.384657
0.370081
0.357337
0.347234
0.340644
0.338431
0.34133
0.349836
0.364111
0.384
0.409084
0.438778
0.472425
0.509366
0.548977
0.590693
0.63401
0.678488
0.72374
0.769428
0.815257
0.860977
0.906373
0.951261
0.995489
1.03893
1.08149
1.12306
1.16357
1.20296
1.24115
1.2781
1.31377
1.34813
1.38115
1.41283
1.44318
1.4722
1.49992
1.52635
1.55153
1.5755
1.59829
1.61995
1.64052
1.66004
1.67857
1.69614
1.7128
1.7286
1.74357
1.75775
1.77118
1.7839
1.79593
1.80731
1.81805
1.82824
1.83794
1.84741
1.85679
1.86768
1.87782
0.031566
0.0579892
0.0757634
0.0930652
0.110351
0.127697
0.145171
0.162771
0.180443
0.19811
0.215677
0.233033
0.250056
0.266613
0.282572
0.297801
0.312176
0.325585
0.337932
0.34914
0.359154
0.367945
0.375504
0.381851
0.387027
0.391094
0.394134
0.396245
0.397534
0.39812
0.398122
0.397661
0.396855
0.395815
0.394642
0.393428
0.392251
0.391177
0.390256
0.389529
0.389019
0.388742
0.388702
0.388893
0.389303
0.389914
0.390704
0.391646
0.392713
0.393877
0.395108
0.39638
0.397665
0.39894
0.400182
0.401371
0.402489
0.403522
0.404457
0.405285
0.405999
0.406597
0.407076
0.40744
0.407692
0.407839
0.407889
0.407854
0.407744
0.407574
0.407358
0.40711
0.406847
0.406583
0.406333
0.406111
0.405928
0.405794
0.405717
0.4057
0.405745
0.40585
0.40601
0.406215
0.406453
0.406706
0.406954
0.407173
0.40733
0.407396
0.407343
0.407136
0.406738
0.406105
0.405195
0.403969
0.402385
0.400407
0.398001
0.395134
0.391769
0.387881
0.383447
0.37846
0.372928
0.366875
0.360345
0.353408
0.346163
0.338754
0.331363
0.32423
0.317649
0.311982
0.307646
0.30512
0.304906
0.307503
0.313342
0.322764
0.335971
0.353019
0.373823
0.398211
0.425923
0.456657
0.49008
0.525859
0.563662
0.603173
0.644085
0.68611
0.728975
0.772429
0.816238
0.860189
0.904084
0.947747
0.991019
1.03376
1.07586
1.1172
1.1577
1.19728
1.23589
1.27345
1.30991
1.34524
1.37937
1.41229
1.44396
1.47439
1.50355
1.53145
1.55811
1.58355
1.60779
1.63086
1.65279
1.67363
1.6934
1.71217
1.72997
1.74683
1.76281
1.77794
1.79228
1.80586
1.81872
1.83092
1.84248
1.85344
1.86386
1.87376
1.88325
1.89242
1.90154
1.91077
1.92161
1.9317
0.0537532
0.0820061
0.098953
0.114819
0.130643
0.146595
0.16273
0.179023
0.195399
0.211759
0.227992
0.243974
0.259573
0.274652
0.289073
0.302704
0.315419
0.32711
0.337684
0.347068
0.355213
0.362091
0.3677
0.372059
0.37521
0.377213
0.378146
0.378099
0.377176
0.375486
0.373142
0.370259
0.366952
0.363328
0.35949
0.355533
0.35154
0.347583
0.343725
0.340015
0.336491
0.33318
0.330098
0.327251
0.324638
0.32225
0.32007
0.318078
0.316251
0.314562
0.312984
0.311487
0.310045
0.308631
0.307218
0.305785
0.304309
0.302772
0.301159
0.299458
0.29766
0.295759
0.293752
0.291641
0.289429
0.287121
0.284728
0.282261
0.279732
0.277156
0.27455
0.271931
0.269314
0.266719
0.264159
0.26165
0.259204
0.25683
0.254536
0.252325
0.250196
0.248145
0.246163
0.244238
0.242355
0.240493
0.238632
0.236743
0.234801
0.232776
0.230647
0.22839
0.225982
0.2234
0.220632
0.217672
0.214529
0.211222
0.207792
0.204289
0.200787
0.197386
0.19422
0.191459
0.189312
0.188027
0.187882
0.189174
0.192204
0.197248
0.20454
0.214251
0.22648
0.241263
0.258585
0.278393
0.300594
0.32508
0.351729
0.380418
0.411021
0.443407
0.477437
0.512974
0.549876
0.587997
0.627184
0.667283
0.70814
0.749599
0.791505
0.833706
0.87605
0.918396
0.960608
1.00256
1.04413
1.08521
1.12571
1.16553
1.20459
1.24285
1.28023
1.31668
1.35217
1.38664
1.42006
1.45238
1.48358
1.51363
1.54252
1.57023
1.59677
1.62214
1.64635
1.66942
1.69138
1.71225
1.73208
1.75089
1.76873
1.78563
1.80163
1.81678
1.83111
1.84467
1.8575
1.86965
1.88115
1.89207
1.90243
1.91229
1.9217
1.93073
1.93946
1.94803
1.95671
1.96564
1.97626
1.98612
0.0755052
0.105576
0.121691
0.135973
0.150067
0.164291
0.178727
0.193347
0.20807
0.222787
0.237377
0.25171
0.265651
0.279061
0.291803
0.303749
0.314777
0.324782
0.333675
0.341385
0.347867
0.353094
0.357061
0.359786
0.361305
0.361673
0.360957
0.359238
0.356609
0.353165
0.349011
0.344248
0.338981
0.333309
0.327328
0.321128
0.31479
0.308388
0.301987
0.29564
0.289395
0.283286
0.277341
0.271577
0.266003
0.260621
0.255428
0.250412
0.245558
0.240849
0.236263
0.231777
0.227368
0.223013
0.218688
0.214373
0.210046
0.205692
0.201295
0.196845
0.192334
0.187758
0.183117
0.178414
0.173656
0.168855
0.164023
0.159178
0.154339
0.149527
0.144766
0.140077
0.135484
0.131009
0.126669
0.12248
0.118451
0.114586
0.110879
0.107319
0.103883
0.100542
0.0972543
0.0939738
0.0906447
0.0872058
0.0835911
0.0797309
0.0755515
0.0709808
0.0659505
0.06039
0.0542374
0.0474358
0.0399483
0.0317737
0.0230286
0.0143622
0.0097697
0.0163149
0.0282432
0.04218
0.0575408
0.0741868
0.0920919
0.111245
0.131656
0.153325
0.176263
0.200467
0.225944
0.252684
0.280684
0.309928
0.340406
0.372094
0.404962
0.43896
0.474043
0.510145
0.547204
0.585135
0.623852
0.663257
0.703252
0.743732
0.784582
0.825686
0.866932
0.908212
0.949417
0.990443
1.03119
1.07156
1.11149
1.15088
1.18967
1.22778
1.26518
1.30179
1.33759
1.37254
1.4066
1.43974
1.47194
1.50317
1.53339
1.56259
1.59073
1.61779
1.64378
1.66868
1.69249
1.71522
1.73689
1.75751
1.77712
1.79572
1.81337
1.83009
1.84592
1.86089
1.87504
1.88842
1.90105
1.91299
1.92427
1.93495
1.94507
1.95467
1.9638
1.97253
1.9809
1.989
1.99693
2.00484
2.01299
2.02152
2.03178
2.04126
0.0958747
0.127803
0.143136
0.155829
0.168092
0.18042
0.192943
0.205656
0.218486
0.231327
0.244059
0.256554
0.26868
0.280303
0.291293
0.301527
0.31089
0.319284
0.326623
0.332842
0.337897
0.34176
0.344425
0.345907
0.346234
0.345452
0.343621
0.340809
0.337096
0.332565
0.327305
0.321407
0.31496
0.308053
0.300769
0.29319
0.285389
0.277433
0.269381
0.261288
0.253197
0.245147
0.237169
0.229285
0.221514
0.213867
0.206348
0.198962
0.191705
0.184574
0.177563
0.170666
0.163878
0.157196
0.150619
0.14415
0.137795
0.13157
0.125497
0.119608
0.113946
0.108564
0.103529
0.0989215
0.0948328
0.0913618
0.088609
0.0866662
0.0856059
0.0854702
0.0862631
0.0879486
0.0904552
0.0936842
0.0975215
0.101847
0.106542
0.111496
0.116607
0.121785
0.12695
0.132033
0.136978
0.141736
0.146273
0.150563
0.154591
0.15836
0.161881
0.165184
0.168309
0.17132
0.174304
0.17737
0.180645
0.18427
0.188409
0.193236
0.198943
0.205727
0.213777
0.223262
0.234321
0.247064
0.261572
0.277892
0.296044
0.316027
0.337817
0.36138
0.386665
0.413615
0.442164
0.472241
0.503764
0.536648
0.570797
0.606113
0.642488
0.679811
0.717967
0.756824
0.79625
0.836111
0.876274
0.91661
0.956979
0.997262
1.03735
1.07714
1.11654
1.15546
1.19383
1.23158
1.26865
1.30501
1.3406
1.3754
1.40938
1.44252
1.4748
1.50622
1.53675
1.5664
1.59515
1.62297
1.64986
1.67578
1.70073
1.72469
1.74766
1.76964
1.79062
1.81063
1.82967
1.84776
1.86492
1.88119
1.89659
1.91115
1.92491
1.93789
1.95014
1.96169
1.97258
1.98286
1.99256
2.00174
2.01043
2.01869
2.02657
2.03413
2.04144
2.04859
2.05568
2.06286
2.07042
2.07845
2.08823
2.09724
0.114266
0.148073
0.162698
0.173865
0.184304
0.19468
0.205192
0.215872
0.226669
0.237493
0.248237
0.258783
0.269009
0.278791
0.288011
0.296554
0.304318
0.311209
0.317154
0.322091
0.32598
0.328796
0.330533
0.3312
0.330825
0.329447
0.327117
0.323896
0.319854
0.315063
0.309605
0.303559
0.297007
0.290025
0.282692
0.27508
0.26726
0.259293
0.251241
0.243155
0.235087
0.22708
0.219176
0.211412
0.203824
0.196444
0.189308
0.182448
0.175901
0.169708
0.163912
0.158564
0.15372
0.149443
0.145799
0.142857
0.140684
0.139344
0.138893
0.139373
0.140806
0.143196
0.146527
0.150761
0.155848
0.161722
0.16831
0.175532
0.183308
0.191557
0.200198
0.209154
0.218351
0.227718
0.237189
0.246701
0.256195
0.265617
0.274916
0.284047
0.29297
0.301649
0.310055
0.318165
0.325961
0.333433
0.34058
0.347408
0.353936
0.36019
0.366202
0.372027
0.377732
0.383397
0.38911
0.394972
0.401095
0.407601
0.414636
0.422352
0.430906
0.440451
0.451136
0.463099
0.476467
0.491354
0.50785
0.526032
0.545949
0.567632
0.591085
0.616295
0.643226
0.671822
0.702003
0.733681
0.766742
0.801065
0.836512
0.872935
0.910178
0.948071
0.986437
1.02511
1.06394
1.10275
1.14141
1.17977
1.21771
1.25514
1.29196
1.32809
1.36347
1.39806
1.43182
1.46472
1.49674
1.52789
1.55816
1.58755
1.61607
1.64374
1.67055
1.69652
1.72164
1.74591
1.7693
1.79182
1.81345
1.83418
1.85402
1.87297
1.89103
1.90821
1.92453
1.94001
1.95466
1.96852
1.9816
1.99395
2.00557
2.01651
2.02681
2.03649
2.0456
2.05418
2.06227
2.06992
2.07717
2.08407
2.09067
2.09705
2.10327
2.10943
2.11565
2.12206
2.12895
2.13641
2.14562
2.15408
0.130335
0.166028
0.180031
0.189767
0.198435
0.206869
0.215345
0.22394
0.23264
0.24138
0.250073
0.258621
0.266917
0.274855
0.28233
0.289243
0.295504
0.301034
0.305768
0.309658
0.312669
0.314783
0.315999
0.316329
0.315799
0.314451
0.312335
0.309508
0.306036
0.301991
0.297447
0.292483
0.287175
0.281603
0.275842
0.269967
0.26405
0.258157
0.252355
0.246704
0.241266
0.236097
0.231251
0.226783
0.222745
0.219185
0.216153
0.213697
0.211862
0.210691
0.210224
0.210497
0.211542
0.213383
0.216038
0.219515
0.223816
0.228931
0.234845
0.241536
0.248972
0.257117
0.26593
0.275364
0.285372
0.295901
0.306895
0.318299
0.330054
0.342102
0.354383
0.366841
0.379415
0.392051
0.404692
0.417285
0.429779
0.442127
0.454283
0.466207
0.477863
0.489218
0.500246
0.510926
0.521242
0.531186
0.540754
0.549955
0.558804
0.567322
0.575545
0.583516
0.5913
0.598964
0.606587
0.614252
0.622052
0.630096
0.638507
0.647416
0.656958
0.667265
0.67847
0.690703
0.704085
0.718734
0.734754
0.752237
0.771258
0.791872
0.81412
0.838016
0.863549
0.890684
0.919359
0.949497
0.980986
1.0137
1.0475
1.08222
1.11769
1.15372
1.19014
1.22677
1.26342
1.29991
1.3361
1.37183
1.40697
1.44141
1.47506
1.50786
1.53975
1.57071
1.60071
1.62976
1.65786
1.68503
1.71129
1.73666
1.76118
1.78487
1.80776
1.82986
1.85118
1.87173
1.89149
1.91046
1.92865
1.94604
1.96264
1.97846
1.9935
2.00777
2.0213
2.03409
2.04616
2.05754
2.06824
2.07831
2.08775
2.0966
2.1049
2.11268
2.11998
2.12684
2.13329
2.13939
2.14517
2.15069
2.15601
2.16119
2.1663
2.17145
2.17676
2.18238
2.18855
2.19536
2.20394
2.21178
0.144416
0.182009
0.195431
0.203778
0.210687
0.217155
0.223541
0.229978
0.236495
0.243063
0.249626
0.256109
0.262429
0.268502
0.274243
0.279571
0.284416
0.288719
0.292432
0.295522
0.297972
0.299778
0.30095
0.301511
0.301496
0.300951
0.29993
0.298496
0.296716
0.294664
0.292413
0.290039
0.287617
0.285216
0.282908
0.280758
0.278827
0.277173
0.275846
0.274893
0.274358
0.274279
0.274691
0.275624
0.277106
0.279162
0.281812
0.285075
0.288967
0.2935
0.298688
0.304537
0.311055
0.318244
0.326104
0.33463
0.343812
0.353639
0.364093
0.375156
0.386802
0.399005
0.411733
0.424951
0.43862
0.452699
0.467142
0.481902
0.496927
0.512166
0.527566
0.543071
0.558629
0.574186
0.589687
0.605082
0.620321
0.635358
0.650148
0.664653
0.678838
0.69267
0.706126
0.719183
0.731828
0.74405
0.755847
0.767225
0.778198
0.788787
0.799024
0.808954
0.818636
0.828135
0.83752
0.846867
0.85626
0.865797
0.875593
0.885757
0.896409
0.907667
0.919648
0.932465
0.946236
0.961068
0.977064
0.994313
1.0129
1.03287
1.0543
1.07719
1.10155
1.12735
1.15453
1.18303
1.21274
1.24355
1.27531
1.30789
1.34109
1.37476
1.40868
1.44268
1.47655
1.51012
1.54321
1.57566
1.60735
1.63817
1.66804
1.69691
1.72475
1.75154
1.77728
1.80202
1.82576
1.84854
1.87042
1.89143
1.91162
1.93103
1.94972
1.96769
1.98497
2.00156
2.01747
2.0327
2.04725
2.06112
2.07431
2.08685
2.09872
2.10996
2.12056
2.13054
2.13992
2.14872
2.15695
2.16464
2.17181
2.1785
2.18474
2.19055
2.19598
2.20107
2.20584
2.21034
2.21461
2.21871
2.2227
2.22664
2.23061
2.23471
2.23907
2.24381
2.2492
2.25529
2.26315
2.27031
0.155941
0.195239
0.208067
0.215062