/*--------------------------------*- C++ -*----------------------------------*\
| =========                 |                                                 |
| \\      /  F ield         | OpenFOAM: The Open Source CFD Toolbox           |
|  \\    /   O peration     | Version:  2312                                  |
|   \\  /    A nd           | Website:  www.openfoam.com                      |
|    \\/     M anipulation  |                                                 |
\*---------------------------------------------------------------------------*/
FoamFile
{
    version     2.0;
    format      ascii;
    arch        "LSB;label=32;scalar=64";
    class       volScalarField;
    location    "100";
    object      mag(U);
}
// * * * * * * * * * * * * * * * * * * * * * * * * * * * * * * * * * * * * * //

dimensions      [0 1 -1 0 0 0 0];

internalField   nonuniform List<scalar> 
12225
(
0.984914
0.877311
0.765428
0.662749
0.593797
0.551348
0.522902
0.502179
0.486267
0.473533
0.463159
0.454791
0.448323
0.443717
0.441392
0.441539
0.445818
0.454355
1.04742
1.02192
0.978492
0.928619
0.884299
0.848076
0.818907
0.79585
0.777715
0.76325
0.751569
0.742175
0.734824
0.729428
0.726157
0.725348
0.728455
0.734376
1.00434
1.00817
1.00918
0.996096
0.976478
0.955478
0.935496
0.918066
0.903583
0.891715
0.882036
0.874246
0.86816
0.863703
0.86091
0.8599
0.861074
0.862573
0.999139
1.0056
1.01621
1.01581
1.00844
0.997656
0.985445
0.973607
0.963097
0.954122
0.946623
0.940508
0.935692
0.932123
0.929772
0.92857
0.928385
0.927528
0.999562
1.00584
1.01729
1.02169
1.02075
1.01636
1.00974
1.00239
0.995326
0.988975
0.983492
0.978927
0.975276
0.972517
0.970588
0.969325
0.968429
0.966543
0.999818
1.00552
1.01624
1.0227
1.02531
1.02492
1.02222
1.01832
1.01409
1.01001
1.00633
1.00318
1.0006
0.998595
0.997095
0.995904
0.994715
0.992505
0.99981
1.0049
1.01462
1.02185
1.02637
1.02847
1.02848
1.02716
1.0252
1.02304
1.02093
1.01904
1.01745
1.01615
1.01509
1.01409
1.01288
1.01074
0.99982
1.00431
1.01295
1.02029
1.02575
1.02935
1.03119
1.03177
1.03158
1.03098
1.03021
1.02943
1.02871
1.02808
1.02747
1.02674
1.02569
1.02383
0.999888
1.00379
1.01138
1.01846
1.02431
1.02877
1.03182
1.03374
1.03489
1.03553
1.03586
1.03601
1.03606
1.03603
1.03587
1.03547
1.0347
1.03324
0.999968
1.00335
1.00996
1.0166
1.02249
1.02739
1.0312
1.03404
1.03616
1.03775
1.03895
1.03987
1.04057
1.04107
1.04134
1.0413
1.04086
1.03985
1.00003
1.00296
1.00868
1.0148
1.02053
1.02559
1.02982
1.03327
1.03608
1.03836
1.04022
1.04175
1.04299
1.04395
1.04461
1.04492
1.04485
1.04429
1.00007
1.00263
1.00763
1.01325
1.01873
1.02377
1.02818
1.03196
1.03517
1.0379
1.04021
1.04216
1.04379
1.0451
1.04607
1.0467
1.04695
1.04679
1.00009
1.00233
1.0067
1.01182
1.017
1.02191
1.02637
1.03033
1.03381
1.03685
1.03949
1.04176
1.04369
1.04528
1.04654
1.04745
1.048
1.04819
1.00011
1.00203
1.00577
1.01034
1.01513
1.01982
1.02423
1.02825
1.03189
1.03514
1.03802
1.04055
1.04273
1.04458
1.0461
1.04728
1.04814
1.04869
1.00012
1.00173
1.00488
1.00889
1.01322
1.0176
1.02184
1.02582
1.02949
1.03284
1.03587
1.03857
1.04095
1.043
1.04475
1.04618
1.04732
1.0482
1.00011
1.00145
1.00407
1.00753
1.01139
1.0154
1.01937
1.0232
1.02681
1.03016
1.03323
1.03601
1.0385
1.04069
1.04261
1.04424
1.04562
1.04677
1.0001
1.00122
1.00342
1.00639
1.0098
1.01342
1.01709
1.02069
1.02415
1.0274
1.03043
1.0332
1.03572
1.03799
1.04
1.04177
1.04331
1.04465
1.00009
1.00106
1.00297
1.00559
1.00865
1.01195
1.01534
1.01871
1.02198
1.02509
1.028
1.0307
1.03318
1.03543
1.03745
1.03927
1.04088
1.04231
1.00008
1.00101
1.00281
1.00531
1.00824
1.01139
1.01463
1.01785
1.02096
1.02392
1.02669
1.02927
1.03163
1.03377
1.03572
1.03747
1.03903
1.04043
1.00009
1.00109
1.00306
1.00577
1.00887
1.01215
1.01545
1.01866
1.02172
1.02457
1.0272
1.02961
1.03178
1.03373
1.03548
1.03702
1.03838
1.03958
1.00009
1.00121
1.0035
1.00658
1.01001
1.01352
1.01696
1.02021
1.0232
1.02593
1.02837
1.03053
1.03244
1.0341
1.03555
1.03678
1.03784
1.03873
1.00006
1.0013
1.00406
1.00767
1.01153
1.01532
1.01888
1.0221
1.02493
1.02739
1.02948
1.03125
1.03273
1.03394
1.03492
1.03569
1.03629
1.03673
0.99997
1.0013
1.00469
1.00896
1.01327
1.0173
1.02087
1.02386
1.0263
1.02824
1.02973
1.03085
1.03165
1.03217
1.03248
1.0326
1.03256
1.03241
0.999827
1.00116
1.00538
1.01039
1.01509
1.01918
1.02246
1.02486
1.02649
1.0275
1.028
1.02812
1.02792
1.02749
1.02688
1.02613
1.02528
1.02437
0.999537
1.00074
1.00614
1.01192
1.01673
1.02043
1.02283
1.02397
1.02415
1.02364
1.02265
1.02131
1.01976
1.01806
1.01629
1.01447
1.01263
1.01083
0.998543
0.999508
1.00683
1.01329
1.01753
1.01988
1.0203
1.01912
1.0169
1.01408
1.01094
1.00766
1.00435
1.00109
0.99791
0.99483
0.991857
0.989036
0.996379
0.997069
1.00684
1.01338
1.01552
1.01457
1.01106
1.00587
0.999917
0.993791
0.987774
0.982007
0.976552
0.971421
0.966604
0.962079
0.957814
0.953846
0.997526
0.998365
1.00656
1.00854
1.00422
0.995838
0.984914
0.97309
0.961598
0.950952
0.941242
0.93242
0.924396
0.917067
0.910337
0.904125
0.898348
0.893033
1.03262
1.02589
1.00808
0.983231
0.956869
0.931065
0.906706
0.884872
0.866036
0.849909
0.835946
0.823683
0.812776
0.802967
0.794057
0.785904
0.778357
0.771449
1.00442
0.957539
0.881609
0.795521
0.726315
0.677348
0.642098
0.615524
0.594681
0.577613
0.563068
0.550341
0.539027
0.528859
0.519623
0.511203
0.503387
0.496278
0.0048477
0.00983228
0.0134302
0.0158462
0.0166232
0.0156162
0.0131789
0.00967862
0.00573713
0.00414097
0.00832707
0.0146234
0.0218928
0.0300135
0.0389797
0.0487901
0.0594114
0.0707845
0.082814
0.0953836
0.108361
0.121611
0.134996
0.148389
0.16167
0.174731
0.187476
0.199827
0.211717
0.223094
0.233913
0.244144
0.253761
0.262744
0.271076
0.278746
0.285744
0.292062
0.297693
0.302628
0.306857
0.310366
0.313135
0.315144
0.316368
0.316786
0.316484
0.315518
0.313899
0.311642
0.308756
0.305249
0.30113
0.296411
0.291102
0.285222
0.278784
0.271811
0.264331
0.256369
0.247953
0.239115
0.229886
0.220302
0.210398
0.200212
0.189782
0.179146
0.168341
0.157404
0.146369
0.135273
0.12415
0.113031
0.101948
0.090932
0.0800134
0.0692257
0.0586025
0.0481814
0.0380152
0.0282033
0.0189983
0.0113428
0.00912342
0.0146053
0.0225236
0.030832
0.0390888
0.0471591
0.0550044
0.0626148
0.0699812
0.0770962
0.0839581
0.0905691
0.0969339
0.103058
0.108948
0.11461
0.120053
0.125283
0.130309
0.135138
0.139776
0.144229
0.148505
0.152609
0.156548
0.160329
0.163959
0.167442
0.170786
0.173995
0.177075
0.180031
0.182867
0.185586
0.188194
0.190694
0.19309
0.195388
0.197589
0.199697
0.201712
0.203639
0.205478
0.207234
0.208908
0.210503
0.212022
0.213467
0.21484
0.216142
0.217375
0.218542
0.219644
0.220682
0.221659
0.222574
0.223434
0.224237
0.224994
0.225694
0.226371
0.226966
0.227542
0.228043
0.228498
0.228929
0.229282
0.229614
0.229867
0.230092
0.230263
0.230418
0.230531
0.230606
0.23062
0.230635
0.230592
0.230503
0.230368
0.230217
0.230009
0.229725
0.229415
0.229014
0.228503
0.227916
0.227175
0.226233
0.225089
0.223617
0.221711
0.21916
0.215804
0.21045
0.205182
0.18716
0.0134916
0.0166813
0.0123398
0.0056182
0.00207437
0.00943386
0.0171291
0.02529
0.0341998
0.0440396
0.0548616
0.0666218
0.079204
0.0924425
0.10616
0.120179
0.134326
0.148432
0.162346
0.175939
0.189105
0.201762
0.213845
0.225309
0.236121
0.246265
0.255735
0.264534
0.272672
0.280159
0.287008
0.293234
0.298851
0.303872
0.308309
0.312173
0.315471
0.318212
0.320402
0.322047
0.323155
0.323738
0.323812
0.323396
0.322512
0.321189
0.319372
0.317004
0.31407
0.310559
0.306472
0.301812
0.296584
0.290797
0.284464
0.277598
0.270219
0.262348
0.254005
0.245215
0.23601
0.226419
0.216473
0.206206
0.195652
0.184845
0.17382
0.162617
0.151272
0.139821
0.128301
0.116749
0.105202
0.093699
0.0822842
0.0710076
0.0599367
0.0491724
0.0388933
0.0294722
0.0218227
0.0180144
0.0200539
0.0263953
0.0345514
0.0433253
0.0522714
0.0612097
0.0700453
0.0787254
0.087225
0.0955308
0.103632
0.111521
0.119193
0.12665
0.133891
0.14092
0.147741
0.154359
0.160778
0.167005
0.173046
0.178905
0.184589
0.190102
0.19545
0.200638
0.205673
0.21056
0.215303
0.219909
0.224382
0.228728
0.232949
0.237051
0.241038
0.244912
0.248678
0.252339
0.255898
0.259359
0.262726
0.265999
0.269181
0.272273
0.275278
0.278198
0.281036
0.283792
0.286468
0.289067
0.291589
0.294036
0.29641
0.298712
0.300943
0.303104
0.305197
0.307222
0.309181
0.311077
0.31291
0.314678
0.316382
0.318031
0.319618
0.321153
0.32263
0.324045
0.325411
0.326723
0.32799
0.329204
0.330365
0.331467
0.332518
0.333522
0.334477
0.335371
0.336217
0.337015
0.337755
0.338429
0.339048
0.339602
0.340074
0.34047
0.340774
0.340955
0.341008
0.340893
0.340555
0.339954
0.338979
0.337489
0.335394
0.331839
0.328343
0.317269
0.0165656
0.0133018
0.00729158
0.0137443
0.0245289
0.0356392
0.0467087
0.057816
0.0691394
0.0808308
0.0929396
0.105406
0.118096
0.130842
0.143469
0.155811
0.167731
0.179134
0.189964
0.200193
0.209817
0.21885
0.227314
0.235239
0.242654
0.249586
0.25606
0.262097
0.267712
0.272915
0.277715
0.282114
0.286114
0.289713
0.292907
0.295693
0.298064
0.300016
0.301542
0.302636
0.303293
0.303506
0.303267
0.302565
0.301389
0.299721
0.297543
0.294845
0.291618
0.28786
0.283567
0.278743
0.273391
0.26752
0.26114
0.254264
0.24691
0.239098
0.230848
0.222186
0.21314
0.203738
0.194015
0.184003
0.173735
0.163247
0.152575
0.141762
0.130846
0.119873
0.108889
0.0979462
0.0871078
0.0764531
0.0660914
0.0561863
0.0470056
0.0390087
0.0329747
0.0299786
0.0307725
0.0349494
0.0413584
0.0490087
0.0572976
0.0658835
0.0745776
0.0832723
0.0918992
0.100414
0.10879
0.117011
0.125061
0.132932
0.140618
0.148117
0.155427
0.162551
0.169489
0.176245
0.182823
0.189226
0.19546
0.20153
0.207438
0.213191
0.218792
0.224246
0.229559
0.234735
0.239778
0.244695
0.249488
0.254162
0.25872
0.263168
0.267507
0.271742
0.275875
0.27991
0.283851
0.287699
0.291458
0.295129
0.298714
0.302216
0.305636
0.308975
0.312236
0.31542
0.318529
0.321565
0.324527
0.327419
0.330241
0.332994
0.33568
0.338299
0.340852
0.343341
0.345767
0.34813
0.35043
0.352671
0.354845
0.356968
0.359028
0.361037
0.36299
0.364883
0.366729
0.368516
0.370259
0.371946
0.373585
0.375166
0.376696
0.378176
0.37961
0.380984
0.382312
0.383589
0.384811
0.385969
0.38707
0.388108
0.389068
0.389953
0.390754
0.391441
0.39201
0.392433
0.392661
0.392654
0.392354
0.391626
0.390461
0.388343
0.38625
0.38031
0.0112373
0.00812276
0.0191174
0.0329728
0.0466076
0.0597154
0.072329
0.0845372
0.0964358
0.108093
0.119526
0.130699
0.141546
0.151981
0.161927
0.171329
0.180156
0.188412
0.196118
0.203313
0.21004
0.216346
0.222275
0.227867
0.233153
0.238156
0.242893
0.247373
0.251598
0.255566
0.259271
0.262705
0.265855
0.26871
0.271256
0.273478
0.275363
0.276896
0.278065
0.278856
0.279255
0.279246
0.278816
0.277948
0.276626
0.274835
0.272565
0.26981
0.266562
0.26282
0.258581
0.253846
0.248622
0.242913
0.236732
0.23009
0.223006
0.215497
0.207588
0.199302
0.190668
0.181718
0.172485
0.163008
0.153325
0.143476
0.133505
0.123465
0.113413
0.103416
0.0935542
0.0839296
0.0746777
0.0659859
0.0581208
0.0514578
0.0464903
0.0437497
0.0435905
0.0459582
0.0504102
0.0563673
0.0633222
0.070903
0.0788565
0.0870132
0.0952609
0.103524
0.111747
0.119893
0.127936
0.135856
0.143639
0.151273
0.158751
0.166068
0.173222
0.180212
0.187038
0.193702
0.200207
0.206554
0.212748
0.218792
0.224689
0.230443
0.236057
0.241537
0.246885
0.252107
0.257206
0.262186
0.26705
0.271804
0.276449
0.280989
0.285428
0.289768
0.294012
0.298163
0.302224
0.306199
0.310087
0.313893
0.317617
0.321261
0.324826
0.328316
0.33173
0.335071
0.33834
0.341538
0.344667
0.347728
0.350721
0.353649
0.356512
0.359311
0.362047
0.36472
0.367332
0.369883
0.372374
0.374808
0.37718
0.379498
0.381759
0.383965
0.386119
0.388217
0.390265
0.39226
0.394205
0.396098
0.397943
0.399736
0.401478
0.403171
0.404815
0.406408
0.407951
0.409443
0.410883
0.412267
0.413593
0.41486
0.416057
0.417182
0.418227
0.419175
0.420014
0.420724
0.421271
0.421616
0.421725
0.421503
0.420954
0.419808
0.418747
0.415673
0.00343275
0.0207073
0.0372122
0.0526631
0.0671488
0.0807184
0.0934584
0.10543
0.116677
0.127233
0.13712
0.14635
0.154925
0.162853
0.17015
0.176847
0.182991
0.188639
0.193852
0.198693
0.203221
0.207487
0.211535
0.215398
0.219102
0.222661
0.226083
0.229368
0.23251
0.2355
0.238324
0.240968
0.243412
0.24564
0.247632
0.249368
0.250829
0.251998
0.252855
0.253383
0.253563
0.253377
0.252809
0.251841
0.250458
0.248647
0.246398
0.243702
0.240554
0.236951
0.232891
0.228376
0.223411
0.218002
0.212161
0.205902
0.199243
0.192204
0.184809
0.177088
0.169072
0.160797
0.152303
0.143637
0.134849
0.125994
0.117136
0.108352
0.099735
0.0913975
0.0834814
0.0761657
0.0696756
0.0642837
0.0602923
0.0579822
0.0575321
0.0589472
0.0620515
0.0665547
0.0721384
0.0785146
0.0854497
0.0927637
0.100322
0.108024
0.115797
0.123587
0.131351
0.139059
0.146688
0.154221
0.161642
0.168941
0.176108
0.183139
0.19003
0.196779
0.203385
0.209849
0.216171
0.222353
0.228397
0.234306
0.240082
0.245728
0.251247
0.256642
0.261917
0.267075
0.272119
0.277053
0.28188
0.286603
0.291225
0.295748
0.300176
0.30451
0.308754
0.312911
0.316982
0.32097
0.324877
0.328705
0.332454
0.336127
0.339725
0.34325
0.346703
0.350086
0.353399
0.356645
0.359824
0.362937
0.365986
0.368971
0.371893
0.374753
0.377552
0.380291
0.38297
0.385591
0.388155
0.390661
0.393111
0.395507
0.397847
0.400133
0.402368
0.40455
0.406682
0.408762
0.410793
0.412775
0.414707
0.416591
0.418426
0.420212
0.421951
0.423641
0.425282
0.426873
0.428414
0.429903
0.431336
0.432712
0.434026
0.435273
0.436444
0.43753
0.438518
0.439391
0.440128
0.440697
0.441074
0.441204
0.441092
0.440617
0.440303
0.438892
0.017018
0.03996
0.057395
0.0725428
0.086417
0.0992048
0.110983
0.121788
0.131638
0.140557
0.148579
0.155751
0.162128
0.167775
0.172765
0.177177
0.181094
0.184598
0.187769
0.190678
0.193387
0.195948
0.198403
0.200781
0.203103
0.205381
0.207617
0.209809
0.211946
0.214015
0.216
0.217881
0.219638
0.221249
0.222692
0.223945
0.224985
0.225791
0.226342
0.226617
0.226596
0.22626
0.22559
0.224569
0.223182
0.221416
0.219261
0.216708
0.213752
0.210389
0.206619
0.202444
0.197869
0.192904
0.18756
0.181855
0.17581
0.169448
0.162799
0.155898
0.148785
0.141506
0.134113
0.126667
0.119242
0.111917
0.104786
0.0979633
0.0915809
0.0857943
0.080778
0.0767189
0.0737993
0.0721691
0.0719161
0.0730431
0.0754667
0.0790385
0.0835775
0.088898
0.0948295
0.101225
0.107962
0.114941
0.122083
0.129325
0.136618
0.143921
0.151205
0.158445
0.165622
0.172722
0.179731
0.18664
0.193439
0.200123
0.206689
0.213132
0.219453
0.225649
0.231722
0.237672
0.2435
0.249207
0.254795
0.260266
0.265623
0.270868
0.276004
0.281032
0.285957
0.29078
0.295504
0.300132
0.304666
0.309108
0.313461
0.317726
0.321907
0.326006
0.330024
0.333963
0.337825
0.341612
0.345325
0.348964
0.352533
0.356031
0.359461
0.362823
0.366119
0.369349
0.372516
0.375619
0.37866
0.381639
0.384558
0.387417
0.390217
0.392959
0.395644
0.398272
0.400845
0.403362
0.405826
0.408236
0.410593
0.412898
0.415152
0.417356
0.41951
0.421615
0.423671
0.425679
0.427639
0.429553
0.431419
0.433238
0.435011
0.436737
0.438416
0.440047
0.441629
0.443162
0.444643
0.44607
0.447439
0.448745
0.449983
0.451144
0.452219
0.453193
0.454052
0.454776
0.455345
0.455736
0.455964
0.455981
0.456227
0.455871
0.0334249
0.0607221
0.0781185
0.0920285
0.104403
0.115618
0.125765
0.134873
0.142951
0.150018
0.156118
0.161312
0.16568
0.169313
0.172307
0.174762
0.176774
0.178438
0.179839
0.181051
0.182138
0.183152
0.184137
0.185121
0.186124
0.187159
0.188228
0.189328
0.190448
0.191575
0.192692
0.193777
0.19481
0.195767
0.196625
0.197359
0.197947
0.198365
0.198591
0.198603
0.19838
0.197903
0.197153
0.196113
0.19477
0.193109
0.191123
0.188802
0.186143
0.183143
0.179804
0.176129
0.172128
0.167811
0.163196
0.158304
0.153161
0.1478
0.142258
0.13658
0.130819
0.125036
0.119302
0.113696
0.108311
0.10325
0.0986253
0.0945564
0.091168
0.0885795
0.0868942
0.0861865
0.0864927
0.0878054
0.0900754
0.093221
0.09714
0.101722
0.106857
0.112444
0.118392
0.12462
0.131062
0.137658
0.144361
0.151129
0.157929
0.164735
0.171521
0.178272
0.184971
0.191608
0.198171
0.204652
0.211042
0.217338
0.223533
0.229626
0.235615
0.241497
0.247273
0.252943
0.258506
0.263963
0.269315
0.274564
0.279712
0.284759
0.289707
0.29456
0.299318
0.303984
0.30856
0.313047
0.317448
0.321765
0.325999
0.330152
0.334226
0.338223
0.342145
0.345993
0.349768
0.353472
0.357106
0.360671
0.364168
0.367599
0.370965
0.374266
0.377504
0.380679
0.383793
0.386847
0.38984
0.392775
0.395651
0.39847
0.401232
0.403938
0.406589
0.409186
0.411729
0.414219
0.416657
0.419044
0.421379
0.423665
0.425901
0.428088
0.430227
0.432319
0.434363
0.436362
0.438314
0.440221
0.442082
0.443899
0.44567
0.447397
0.449078
0.450714
0.452304
0.453846
0.45534
0.456783
0.458172
0.459504
0.460773
0.461975
0.4631
0.46414
0.465084
0.46592
0.466638
0.467231
0.467732
0.46813
0.468804
0.46916
0.0492052
0.0809857
0.0980842
0.11042
0.1209
0.130161
0.138362
0.145541
0.151714
0.156899
0.161139
0.164498
0.167058
0.168914
0.170165
0.170913
0.171259
0.171297
0.171111
0.170777
0.17036
0.169913
0.169481
0.169096
0.168781
0.168551
0.168413
0.168365
0.168402
0.168512
0.168679
0.168884
0.169108
0.169328
0.16952
0.169662
0.169731
0.169703
0.169556
0.16927
0.168825
0.168202
0.167385
0.166359
0.165111
0.163632
0.161914
0.159953
0.157747
0.155296
0.152608
0.14969
0.146555
0.143223
0.139715
0.136061
0.132294
0.128457
0.124596
0.120767
0.117032
0.113461
0.110129
0.107116
0.104507
0.102381
0.100816
0.0998748
0.0996081
0.100045
0.101195
0.103044
0.105558
0.10869
0.112383
0.116574
0.121199
0.126195
0.131504
0.137073
0.142851
0.148797
0.154872
0.161042
0.167276
0.17355
0.179842
0.186132
0.192404
0.198645
0.204844
0.210993
0.217084
0.223107
0.229058
0.234931
0.240722
0.246429
0.252048
0.257579
0.263021
0.268372
0.273632
0.278801
0.283879
0.288868
0.293768
0.298579
0.303304
0.307944
0.312499
0.316972
0.321363
0.325675
0.329908
0.334065
0.338145
0.342152
0.346086
0.349948
0.353741
0.357465
0.361122
0.364711
0.368235
0.371694
0.37509
0.378423
0.381694
0.384904
0.388054
0.391146
0.394178
0.397153
0.400071
0.402932
0.405738
0.408489
0.411185
0.413828
0.416419
0.418957
0.421444
0.42388
0.426267
0.428603
0.430891
0.433131
0.435323
0.437468
0.439567
0.441621
0.443629
0.445593
0.447513
0.449389
0.451222
0.453011
0.454758
0.456462
0.458123
0.459741
0.461315
0.462845
0.464329
0.465766
0.467154
0.46849
0.46977
0.47099
0.472144
0.473227
0.474232
0.475153
0.475989
0.476746
0.477466
0.478165
0.479168
0.480027
0.0630616
0.0994397
0.116302
0.127075
0.135613
0.142854
0.149052
0.154284
0.158579
0.161962
0.164473
0.166168
0.167121
0.167416
0.167147
0.16641
0.165296
0.163893
0.162281
0.160533
0.158713
0.156874
0.155062
0.153315
0.15166
0.150117
0.148699
0.147411
0.146254
0.145221
0.144304
0.143489
0.14276
0.1421
0.141488
0.140907
0.140335
0.139754
0.139146
0.138493
0.13778
0.136993
0.136122
0.135156
0.134089
0.132919
0.131642
0.130262
0.128784
0.127216
0.125571
0.123864
0.122115
0.120347
0.118588
0.11687
0.115228
0.113701
0.112332
0.111163
0.11024
0.109608
0.109309
0.10938
0.109854
0.110754
0.112094
0.11388
0.116106
0.11876
0.121821
0.125262
0.129055
0.133167
0.137566
0.142218
0.147092
0.152159
0.157391
0.16276
0.168243
0.173818
0.179464
0.185163
0.190897
0.19665
0.20241
0.208164
0.213902
0.219613
0.225291
0.230931
0.236524
0.242065
0.247549
0.252972
0.258331
0.263621
0.268842
0.273991
0.279066
0.284067
0.288992
0.293841
0.298614
0.303311
0.307931
0.312476
0.316946
0.321342
0.325663
0.329913
0.33409
0.338196
0.342232
0.346199
0.350098
0.353929
0.357695
0.361396
0.365033
0.368606
0.372118
0.375567
0.378955
0.382284
0.385553
0.388763
0.391916
0.395012
0.398051
0.401034
0.403962
0.406836
0.409656
0.412422
0.415136
0.417797
0.420407
0.422967
0.425476
0.427935
0.430346
0.432708
0.435023
0.437291
0.439512
0.441687
0.443816
0.445901
0.447942
0.449939
0.451893
0.453805
0.455674
0.457502
0.459289
0.461035
0.46274
0.464405
0.466029
0.467612
0.469155
0.470657
0.472116
0.473532
0.474903
0.476228
0.477503
0.478727
0.479895
0.481004
0.482053
0.483041
0.483973
0.484863
0.485762
0.4867
0.487956
0.489183
0.0742285
0.115199
0.132049
0.141468
0.148232
0.153588
0.157908
0.161322
0.163883
0.165626
0.166587
0.166814
0.166371
0.16533
0.163769
0.161769
0.159409
0.156765
0.153908
0.150905
0.147812
0.144683
0.141562
0.138486
0.135489
0.132594
0.129821
0.127185
0.124692
0.122349
0.120154
0.118106
0.116198
0.114424
0.112776
0.111243
0.109817
0.108491
0.107257
0.106111
0.10505
0.104074
0.103185
0.102389
0.101693
0.101106
0.100641
0.100311
0.100129
0.100109
0.100266
0.100612
0.101157
0.10191
0.10288
0.10407
0.105483
0.107119
0.108978
0.111057
0.113353
0.115863
0.118581
0.121504
0.124625
0.127938
0.131436
0.13511
0.138954
0.142957
0.14711
0.151402
0.155823
0.160363
0.16501
0.169755
0.174587
0.179496
0.184474
0.18951
0.194596
0.199722
0.20488
0.210061
0.215257
0.220459
0.225661
0.230855
0.236035
0.241195
0.246331
0.251438
0.256513
0.261549
0.266543
0.271492
0.276392
0.281242
0.286037
0.290778
0.29546
0.300084
0.304648
0.30915
0.313589
0.317967
0.322281
0.326532
0.33072
0.334844
0.338906
0.342905
0.346842
0.350717
0.35453
0.358283
0.361975
0.365608
0.369181
0.372697
0.376154
0.379554
0.382897
0.386184
0.389415
0.392591
0.395713
0.39878
0.401794
0.404755
0.407663
0.410519
0.413324
0.416078
0.418782
0.421435
0.424038
0.426593
0.429099
0.431558
0.433969
0.436334
0.438652
0.440925
0.443152
0.445335
0.447474
0.44957
0.451622
0.453632
0.4556
0.457527
0.459413
0.461259
0.463065
0.464832
0.46656
0.468249
0.4699
0.471513
0.473088
0.474626
0.476125
0.477586
0.479009
0.480392
0.481736
0.483038
0.484297
0.485513
0.486683
0.487808
0.488888
0.489927
0.490937
0.491937
0.49298
0.494107
0.495562
0.497059
0.0822237
0.127674
0.144824
0.153197
0.158472
0.1622
0.164882
0.166708
0.167759
0.168083
0.167719
0.166713
0.165116
0.162984
0.160381
0.157369
0.154013
0.150373
0.146509
0.142474
0.138316
0.134081
0.129806
0.125526
0.121271
0.117065
0.112929
0.108881
0.104937
0.101108
0.0974055
0.0938407
0.0904234
0.0871649
0.0840786
0.0811807
0.0784914
0.0760354
0.0738429
0.0719494
0.0703952
0.0692252
0.0684843
0.068215
0.0684534
0.0692243
0.0705396
0.0723956
0.0747738
0.0776421
0.0809582
0.0846724
0.0887307
0.0930784
0.0976614
0.102429
0.107333
0.112332
0.117388
0.122467
0.127545
0.1326
0.137619
0.142591
0.147511
0.152377
0.15719
0.161954
0.166674
0.171357
0.176008
0.180633
0.185239
0.18983
0.194413
0.198991
0.203569
0.208149
0.212734
0.217325
0.221923
0.226528
0.231138
0.235753
0.24037
0.244987
0.2496
0.254208
0.258806
0.263392
0.267963
0.272517
0.277051
0.281561
0.286044
0.290497
0.294918
0.299303
0.303652
0.30796
0.312227
0.31645
0.320628
0.32476
0.328843
0.332877
0.336861
0.340794
0.344676
0.348506
0.352284
0.35601
0.359684
0.363305
0.366873
0.370389
0.373852
0.377264
0.380624
0.383933
0.38719
0.390396
0.393552
0.396656
0.399711
0.402716
0.405671
0.408577
0.411433
0.414242
0.417002
0.419715
0.42238
0.424997
0.427568
0.430093
0.432571
0.435004
0.437392
0.439736
0.442035
0.44429
0.446503
0.448673
0.4508
0.452886
0.45493
0.456934
0.458897
0.460821
0.462705
0.464551
0.466358
0.468127
0.46986
0.471555
0.473214
0.474836
0.476423
0.477975
0.479491
0.480973
0.48242
0.483832
0.485209
0.486551
0.487858
0.489128
0.490364
0.491563
0.492726
0.493856
0.494957
0.496035
0.497106
0.498195
0.499356
0.500633
0.50224
0.503939
0.0868727
0.136466
0.154251
0.161958
0.166102
0.168536
0.169891
0.170418
0.170237
0.169415
0.167998
0.166029
0.163551
0.160607
0.157247
0.153517
0.149466
0.145141
0.140584
0.135838
0.130937
0.125915
0.120798
0.115612
0.110375
0.105104
0.099811
0.0945074
0.0892009
0.0838983
0.0786062
0.0733327
0.0680889
0.0628922
0.0577698
0.0527649
0.0479451
0.0434154
0.039335
0.0359336
0.033513
0.0324036
0.0328536
0.0349145
0.0384285
0.0431274
0.0487384
0.0550347
0.0618415
0.069025
0.0764811
0.0841252
0.0918842
0.0996944
0.107499
0.115248
0.122895
0.1304
0.137728
0.144853
0.151751
0.15841
0.164819
0.170979
0.176892
0.182568
0.18802
0.193261
0.198311
0.203187
0.207908
0.212492
0.216959
0.221324
0.225604
0.229814
0.233966
0.238073
0.242145
0.24619
0.250216
0.254229
0.258233
0.262232
0.266227
0.270222
0.274216
0.278209
0.282199
0.286187
0.290172
0.294152
0.298125
0.302089
0.306041
0.30998
0.313901
0.317803
0.321684
0.325541
0.329372
0.333175
0.336946
0.340686
0.344391
0.348061
0.351694
0.355288
0.358844
0.362358
0.365832
0.369264
0.372654
0.376
0.379303
0.382563
0.385778
0.388949
0.392077
0.39516
0.398198
0.401192
0.404141
0.407046
0.409907
0.412723
0.415495
0.418223
0.420907
0.423547
0.426144
0.428698
0.431208
0.433675
0.436099
0.438481
0.440821
0.443119
0.445376
0.447592
0.449767
0.451901
0.453996
0.456052
0.458068
0.460046
0.461985
0.463887
0.465751
0.467578
0.469368
0.471123
0.472842
0.474526
0.476176
0.477791
0.479372
0.48092
0.482435
0.483918
0.485368
0.486787
0.488174
0.489529
0.490854
0.492147
0.49341
0.494643
0.495847
0.497022
0.498172
0.499299
0.50041
0.501516
0.502636
0.503796
0.50505
0.506444
0.508167
0.510016
0.088135
0.141345
0.160084
0.167532
0.170941
0.172451
0.172827
0.172392
0.171303
0.169649
0.167487
0.164861
0.161809
0.158368
0.154575
0.150468
0.146081
0.14145
0.136606
0.131578
0.126391
0.121067
0.115624
0.110077
0.104435
0.0987065
0.0928936
0.0869968
0.0810126
0.0749354
0.0687573
0.0624689
0.0560592
0.0495171
0.0428321
0.0359966
0.0290116
0.0219011
0.0147701
0.00816781
0.00599028
0.0117064
0.0195461
0.0279797
0.0367575
0.0457999
0.0550624
0.0645084
0.0741013
0.0838014
0.0935654
0.103347
0.113096
0.122763
0.132296
0.141645
0.150764
0.159608
0.16814
0.176328
0.184149
0.191588
0.198638
0.2053
0.211582
0.2175
0.223074
0.228329
0.233291
0.237987
0.242447
0.246698
0.250767
0.25468
0.25846
0.26213
0.265708
0.269214
0.272663
0.276069
0.279443
0.282796
0.286135
0.289468
0.292801
0.296136
0.299478
0.302827
0.306186
0.309553
0.31293
0.316316
0.31971
0.323111
0.326515
0.329921
0.333326
0.336728
0.340124
0.343512
0.346889
0.350253
0.353601
0.356931
0.36024
0.363527
0.366791
0.370028
0.373238
0.376419
0.379569
0.382689
0.385776
0.388829
0.391849
0.394834
0.397783
0.400696
0.403573
0.406413
0.409216
0.411981
0.414708
0.417397
0.420048
0.42266
0.425234
0.427769
0.430265
0.432723
0.435143
0.437523
0.439865
0.442169
0.444434
0.446661
0.44885
0.451002
0.453116
0.455192
0.457232
0.459235
0.461202
0.463133
0.465028
0.466888
0.468713
0.470503
0.472259
0.473982
0.47567
0.477326
0.478949
0.48054
0.482099
0.483627
0.485124
0.486591
0.488027
0.489434
0.490812
0.492161
0.493482
0.494775
0.496041
0.497281
0.498495
0.499684
0.50085
0.501996
0.503125
0.504242
0.505357
0.506481
0.507636
0.508852
0.510179
0.511664
0.513473
0.515432
0.0859382
0.142253
0.162222
0.169784
0.172851
0.173829
0.173606
0.172575
0.170933
0.168791
0.16622
0.163271
0.159983
0.156392
0.15253
0.148427
0.144113
0.139616
0.134961
0.130171
0.125267
0.120268
0.115191
0.110049
0.104856
0.0996232
0.0943621
0.089086
0.083811
0.0785583
0.0733579
0.0682529
0.063306
0.058608
0.0542886
0.0505268
0.0475558
0.0456506
0.0450834
0.046052
0.0486151
0.0526882
0.0580902
0.0646098
0.0720476
0.0802324
0.0890219
0.0982959
0.10795
0.11789
0.128027
0.138277
0.148557
0.158788
0.168895
0.178805
0.18845
0.197771
0.206715
0.21524
0.223313
0.230913
0.238031
0.244666
0.25083
0.256542
0.261828
0.266719
0.27125
0.275456
0.279374
0.28304
0.286487
0.289749
0.292854
0.295829
0.2987
0.301489
0.304214
0.306893
0.30954
0.312169
0.314789
0.317409
0.320037
0.322679
0.325338
0.328018
0.330721
0.333446
0.336197
0.338972
0.341771
0.344592
0.347433
0.350292
0.353167
0.356054
0.358951
0.361855
0.364764
0.367674
0.370583
0.373487
0.376385
0.379273
0.382151
0.385014
0.387862
0.390693
0.393504
0.396294
0.399062
0.401807
0.404526
0.40722
0.409887
0.412526
0.415137
0.417719
0.42027
0.422791
0.425281
0.427739
0.430166
0.43256
0.434921
0.43725
0.439545
0.441808
0.444036
0.446232
0.448394
0.450522
0.452616
0.454677
0.456704
0.458698
0.460659
0.462586
0.464481
0.466343
0.468173
0.46997
0.471735
0.473469
0.475171
0.476842
0.478482
0.480091
0.481671
0.48322
0.48474
0.486232
0.487694
0.489128
0.490535
0.491914
0.493266
0.494592
0.495892
0.497166
0.498416
0.499641
0.500844
0.502024
0.503184
0.504325
0.505449
0.50656
0.507662
0.508764
0.509874
0.511008
0.512188
0.513445
0.514827
0.516381
0.518253
0.520293
0.0808081
0.139141
0.16058
0.168642
0.171761
0.172602
0.172171
0.170925
0.169099
0.16683
0.164206
0.161289
0.158125
0.154754
0.151209
0.147521
0.143719
0.139831
0.135881
0.131892
0.127887
0.123887
0.119912
0.115984
0.112124
0.108356
0.104706
0.101204
0.0978871
0.0947972
0.091986
0.0895137
0.0874503
0.0858744
0.0848706
0.0845258
0.0849229
0.0861346
0.0882167
0.0912025
0.0951022
0.0999026
0.105569
0.112049
0.11928
0.12719
0.135698
0.144722
0.154175
0.163968
0.174007
0.184198
0.194448
0.204664
0.214755
0.224635
0.234223
0.243448
0.252246
0.260566
0.268371
0.275636
0.282348
0.288511
0.294139
0.299254
0.303891
0.308086
0.311881
0.31532
0.318446
0.321301
0.323925
0.326355
0.328626
0.330768
0.332809
0.334774
0.336684
0.338557
0.340411
0.342257
0.344108
0.345974
0.347862
0.349779
0.35173
0.353717
0.355744
0.357811
0.35992
0.36207
0.364261
0.36649
0.368756
0.371057
0.373389
0.37575
0.378136
0.380545
0.382973
0.385417
0.387873
0.390339
0.392812
0.395289
0.397766
0.400242
0.402714
0.40518
0.407637
0.410083
0.412518
0.414938
0.417343
0.419731
0.422101
0.424452
0.426782
0.429091
0.431377
0.43364
0.435879
0.438093
0.440282
0.442445
0.444581
0.446691
0.448773
0.450828
0.452855
0.454853
0.456823
0.458765
0.460678
0.462562
0.464417
0.466244
0.468042
0.469811
0.471552
0.473264
0.474947
0.476603
0.47823
0.479829
0.481401
0.482945
0.484462
0.485952
0.487416
0.488853
0.490264
0.491649
0.493009
0.494344
0.495654
0.49694
0.498203
0.499442
0.500659
0.501854
0.503028
0.504182
0.505317
0.506434
0.507535
0.508623
0.5097
0.510771
0.511843
0.512922
0.514022
0.515157
0.516352
0.517638
0.519061
0.520665
0.522579
0.524676
0.0731715
0.131865
0.154815
0.163785
0.167399
0.168533
0.168309
0.167248
0.165627
0.163615
0.16132
0.158822
0.15618
0.153442
0.150649
0.147839
0.145043
0.142291
0.13961
0.137024
0.134557
0.132229
0.130061
0.128075
0.12629
0.12473
0.123419
0.122381
0.121644
0.121237
0.121194
0.121546
0.122329
0.123579
0.125329
0.127614
0.130463
0.133904