/*--------------------------------*- C++ -*----------------------------------*\
| =========                 |                                                 |
| \\      /  F ield         | OpenFOAM: The Open Source CFD Toolbox           |
|  \\    /   O peration     | Version:  2312                                  |
|   \\  /    A nd           | Website:  www.openfoam.com                      |
|    \\/     M anipulation  |                                                 |
\*---------------------------------------------------------------------------*/
FoamFile
{
    version     2.0;
    format      ascii;
    arch        "LSB;label=32;scalar=64";
    class       volScalarField;
    location    "100";
    object      nut;
}
// * * * * * * * * * * * * * * * * * * * * * * * * * * * * * * * * * * * * * //

dimensions      [0 2 -1 0 0 0 0];

internalField   nonuniform List<scalar> 
12225
(
1.9887e-05
1.70246e-05
1.52557e-05
1.39686e-05
1.30703e-05
1.24777e-05
1.20718e-05
1.17726e-05
1.15382e-05
1.1346e-05
1.11846e-05
1.10483e-05
1.09355e-05
1.08433e-05
1.07755e-05
1.07321e-05
1.07221e-05
1.07141e-05
0.00011637
6.56123e-05
4.7888e-05
4.19457e-05
3.90954e-05
3.75049e-05
3.62951e-05
3.51581e-05
3.40477e-05
3.29862e-05
3.20014e-05
3.11037e-05
3.03003e-05
2.95717e-05
2.89512e-05
2.8398e-05
2.77234e-05
2.78853e-05
0.000288447
0.000168615
0.000123915
0.000108125
9.96092e-05
9.44224e-05
9.0647e-05
8.74447e-05
8.45365e-05
8.18806e-05
7.94716e-05
7.73028e-05
7.53686e-05
7.36492e-05
7.22058e-05
7.09357e-05
6.99719e-05
6.90445e-05
0.000474132
0.000296505
0.000226374
0.000194685
0.000178592
0.000168223
0.000160746
0.000154763
0.000149643
0.000145135
0.000141125
0.000137555
0.000134389
0.00013159
0.000129226
0.000127147
0.000125827
0.000124176
0.000622742
0.000426779
0.000338253
0.00028901
0.000264456
0.000248164
0.000236443
0.000227339
0.000219839
0.000213437
0.000207861
0.000202963
0.000198652
0.000194862
0.000191634
0.000188817
0.000186908
0.000184707
0.00072306
0.000544484
0.000447156
0.000385322
0.000352302
0.00032989
0.000313667
0.00030121
0.000291169
0.000282785
0.000275616
0.000269405
0.000263987
0.000259253
0.00025519
0.000251671
0.000249042
0.000246262
0.00078371
0.00064131
0.000544925
0.000478444
0.00043854
0.000410656
0.000390161
0.000374392
0.000361773
0.000351358
0.000342562
0.000335018
0.000328489
0.000322812
0.000317915
0.000313683
0.00031029
0.00030689
0.000817519
0.000714162
0.000627723
0.000563793
0.000519838
0.000488009
0.000464052
0.000445388
0.000430399
0.000418051
0.00040767
0.000398813
0.000391179
0.00038456
0.000378829
0.000373865
0.000369707
0.000365672
0.000835117
0.000764811
0.000694958
0.0006371
0.000593155
0.000559613
0.000533517
0.000512758
0.000495884
0.0004819
0.000470118
0.000460061
0.000451394
0.000443875
0.00043734
0.000431653
0.000426759
0.000422106
0.000843692
0.000798413
0.000745703
0.000696935
0.000656346
0.000623466
0.000596839
0.000575069
0.000557042
0.000541918
0.000529075
0.000518054
0.000508519
0.000500216
0.000492962
0.000486609
0.000481047
0.000475823
0.000847594
0.000819427
0.000781884
0.000743302
0.000708304
0.000678132
0.00065258
0.000631002
0.00061271
0.000597098
0.000583671
0.000572039
0.000561898
0.00055301
0.000545189
0.000538287
0.000532166
0.000526459
0.000849114
0.000830825
0.000804212
0.000774477
0.000745499
0.000719081
0.000695737
0.000675375
0.00065768
0.000642285
0.000628845
0.000617061
0.000606685
0.000597511
0.000589373
0.00058213
0.000575644
0.000569611
0.000849772
0.000837702
0.000819331
0.000797304
0.000774357
0.000752248
0.00073183
0.000713392
0.000696921
0.000682275
0.00066926
0.000657684
0.000647366
0.000638147
0.000629888
0.00062247
0.000615765
0.000609525
0.000850032
0.000841919
0.000829879
0.000814719
0.000797918
0.000780774
0.000764147
0.000748509
0.000734066
0.000720862
0.000708859
0.000697974
0.000688111
0.000679169
0.000671055
0.000663678
0.000656936
0.000650642
0.000850103
0.00084413
0.000836265
0.000826387
0.000814995
0.000802772
0.000790325
0.000778093
0.000766354
0.000755265
0.000744892
0.000735252
0.000726326
0.000718079
0.000710466
0.000703435
0.00069692
0.000690799
0.000850109
0.000845092
0.000839521
0.000833043
0.000825637
0.000817497
0.000808895
0.000800097
0.00079132
0.000782724
0.000774416
0.000766463
0.000758902
0.000751745
0.000744995
0.000738636
0.000732643
0.000726956
0.000850103
0.000845426
0.000840865
0.000836142
0.000831089
0.000825653
0.000819869
0.000813817
0.000807595
0.000801298
0.000795012
0.000788805
0.000782726
0.000776815
0.000771096
0.000765585
0.000760285
0.000755187
0.0008501
0.000845507
0.00084126
0.000837171
0.000833077
0.000828863
0.000824467
0.000819873
0.000815097
0.000810175
0.000805151
0.000800072
0.000794983
0.000789924
0.000784927
0.000780019
0.000775219
0.000770531
0.0008501
0.000845474
0.000841125
0.000836846
0.00083248
0.000827932
0.000823164
0.000818183
0.000813021
0.000807727
0.000802351
0.000796943
0.000791548
0.000786204
0.000780942
0.000775789
0.000770766
0.000765899
0.000850102
0.000845152
0.000839849
0.000833888
0.000827205
0.000819905
0.000812167
0.000804184
0.000796125
0.000788122
0.000780274
0.000772648
0.000765287
0.000758216
0.000751446
0.000744982
0.000738827
0.000732999
0.000850079
0.000843869
0.00083571
0.000825586
0.000814022
0.000801672
0.0007891
0.000776712
0.000764767
0.00075341
0.000742706
0.000732671
0.000723291
0.000714534
0.000706362
0.000698732
0.000691613
0.000685
0.000849831
0.000839422
0.000824022
0.000805334
0.000785375
0.000765599
0.000746833
0.000729451
0.000713559
0.000699119
0.000686025
0.000674146
0.000663347
0.000653505
0.000644504
0.000636247
0.000628658
0.000621715
0.000848429
0.000826558
0.00079658
0.000764234
0.000733421
0.000705693
0.000681351
0.000660165
0.000641734
0.000625641
0.000611507
0.000599009
0.000587882
0.000577908
0.000568911
0.000560747
0.000553307
0.000546574
0.000842569
0.000795219
0.000742446
0.000693774
0.000653208
0.000620136
0.000593141
0.000570883
0.000552287
0.000536531
0.000522998
0.000511227
0.000500869
0.000491661
0.000483403
0.000475938
0.000469147
0.000463041
0.000823006
0.000730798
0.000652139
0.000590381
0.000545959
0.000512825
0.000487335
0.000467153
0.000450745
0.000437081
0.000425463
0.000415406
0.000406567
0.000398703
0.000391631
0.000385222
0.000379356
0.000374109
0.000769184
0.000619702
0.000524073
0.000458801
0.000419792
0.000392232
0.000371807
0.000356
0.00034328
0.000332698
0.000323655
0.000315759
0.000308751
0.000302453
0.000296738
0.000291524
0.000286693
0.000282403
0.000647606
0.000458642
0.000368494
0.000315544
0.000287677
0.000268651
0.000254855
0.000244234
0.000235602
0.000228286
0.000221896
0.000216201
0.00021106
0.000206378
0.000202081
0.000198146
0.000194444
0.00019121
0.000433689
0.000273305
0.000208151
0.000178967
0.000162862
0.000152317
0.000144848
0.000139054
0.000134196
0.00012992
0.000126065
0.00012255
0.000119329
0.000116372
0.000113643
0.000111158
0.000108784
0.000106776
0.000180956
0.000110039
7.938e-05
6.84851e-05
6.22415e-05
5.86303e-05
5.62632e-05
5.43932e-05
5.27185e-05
5.11519e-05
4.96817e-05
4.83123e-05
4.7044e-05
4.5879e-05
4.47988e-05
4.38277e-05
4.28868e-05
4.21134e-05
2.59675e-05
2.21369e-05
1.99519e-05
1.84296e-05
1.73008e-05
1.648e-05
1.58815e-05
1.54312e-05
1.50783e-05
1.47904e-05
1.45465e-05
1.43344e-05
1.41463e-05
1.39778e-05
1.38245e-05
1.36858e-05
1.35567e-05
1.34397e-05
1.9184e-06
4.71724e-06
5.3435e-06
5.86941e-06
6.26475e-06
6.56193e-06
6.77788e-06
6.93445e-06
7.06785e-06
7.24609e-06
7.55963e-06
7.97115e-06
8.43637e-06
8.94051e-06
9.47337e-06
1.00301e-05
1.06021e-05
1.11846e-05
1.1768e-05
1.2347e-05
1.29144e-05
1.34682e-05
1.40048e-05
1.45305e-05
1.50321e-05
1.55077e-05
1.59564e-05
1.63795e-05
1.67775e-05
1.71528e-05
1.75056e-05
1.78385e-05
1.81517e-05
1.84476e-05
1.87264e-05
1.89901e-05
1.92379e-05
1.94718e-05
1.96912e-05
1.98976e-05
2.00904e-05
2.02708e-05
2.04378e-05
2.05926e-05
2.07339e-05
2.08632e-05
2.09892e-05
2.11034e-05
2.12083e-05
2.13041e-05
2.13901e-05
2.14667e-05
2.1533e-05
2.15889e-05
2.16329e-05
2.16468e-05
2.1738e-05
2.16666e-05
2.17012e-05
2.17223e-05
2.16967e-05
2.16696e-05
2.16292e-05
2.1579e-05
2.15138e-05
2.14309e-05
2.13431e-05
2.12428e-05
2.11315e-05
2.10088e-05
2.08751e-05
2.07307e-05
2.05761e-05
2.04116e-05
2.02378e-05
2.00552e-05
1.98645e-05
1.96661e-05
1.94609e-05
1.92491e-05
1.9032e-05
1.88094e-05
1.85808e-05
1.83351e-05
1.8077e-05
1.79317e-05
1.78453e-05
1.77722e-05
1.77013e-05
1.76292e-05
1.75555e-05
1.74803e-05
1.74042e-05
1.73273e-05
1.72498e-05
1.71721e-05
1.70943e-05
1.70168e-05
1.69397e-05
1.68631e-05
1.67874e-05
1.67125e-05
1.66386e-05
1.65659e-05
1.64944e-05
1.64241e-05
1.63552e-05
1.62876e-05
1.62213e-05
1.61563e-05
1.60927e-05
1.60304e-05
1.59694e-05
1.59094e-05
1.58511e-05
1.5794e-05
1.57384e-05
1.56839e-05
1.56307e-05
1.55785e-05
1.55275e-05
1.54775e-05
1.54286e-05
1.53806e-05
1.53336e-05
1.52874e-05
1.5242e-05
1.51973e-05
1.51534e-05
1.51103e-05
1.50678e-05
1.5026e-05
1.49849e-05
1.49442e-05
1.49041e-05
1.48643e-05
1.4825e-05
1.47861e-05
1.47476e-05
1.47093e-05
1.46715e-05
1.46333e-05
1.45976e-05
1.45566e-05
1.45249e-05
1.44855e-05
1.44535e-05
1.44163e-05
1.43783e-05
1.43463e-05
1.43078e-05
1.42749e-05
1.42381e-05
1.42003e-05
1.4163e-05
1.41298e-05
1.40935e-05
1.40594e-05
1.402e-05
1.39846e-05
1.39492e-05
1.39116e-05
1.38732e-05
1.38362e-05
1.38016e-05
1.37613e-05
1.37211e-05
1.36844e-05
1.36412e-05
1.35972e-05
1.35548e-05
1.35048e-05
1.34511e-05
1.33948e-05
1.33298e-05
1.32527e-05
1.31595e-05
1.30424e-05
1.28471e-05
1.25429e-05
2.75902e-06
8.5959e-06
1.91385e-05
2.78761e-05
3.32583e-05
3.61153e-05
3.76641e-05
3.8618e-05
3.92991e-05
3.97188e-05
3.98233e-05
3.98227e-05
3.99449e-05
4.03417e-05
4.09366e-05
4.17165e-05
4.26371e-05
4.3794e-05
4.51806e-05
4.6779e-05
4.85684e-05
5.05277e-05
5.26356e-05
5.49007e-05
5.73365e-05
5.99206e-05
6.26393e-05
6.54475e-05
6.83354e-05
7.12932e-05
7.43146e-05
7.7394e-05
8.05299e-05
8.37213e-05
8.69723e-05
9.02892e-05
9.36578e-05
9.70698e-05
0.000100524
0.000104013
0.000107532
0.000111064
0.000114586
0.000118058
0.000121417
0.000124564
0.000127461
0.000130357
0.000133247
0.000136126
0.000138987
0.000141823
0.000144626
0.000147386
0.000150094
0.00015274
0.000155323
0.000157682
0.000160069
0.000162285
0.000164422
0.000166499
0.000168447
0.000170268
0.000171887
0.00017326
0.000174575
0.000175743
0.000176766
0.000177645
0.000178381
0.000178978
0.000179437
0.000179765
0.000179963
0.000180042
0.000180001
0.000179851
0.000179592
0.000179233
0.000178767
0.000178187
0.000177439
0.00017639
0.000174773
0.000172633
0.000170205
0.000167636
0.000164995
0.00016232
0.000159632
0.000156943
0.000154261
0.000151592
0.000148943
0.000146319
0.000143724
0.000141161
0.000138632
0.000136141
0.000133688
0.000131275
0.000128903
0.000126573
0.000124284
0.000122038
0.000119834
0.000117672
0.000115552
0.000113473
0.000111434
0.000109433
0.000107471
0.000105548
0.000103662
0.000101815
0.000100005
9.82308e-05
9.64926e-05
9.47894e-05
9.31205e-05
9.14847e-05
8.98805e-05
8.83076e-05
8.67654e-05
8.52539e-05
8.37733e-05
8.23251e-05
8.09083e-05
7.95221e-05
7.81655e-05
7.68376e-05
7.55371e-05
7.42637e-05
7.30167e-05
7.17961e-05
7.06014e-05
6.94321e-05
6.82888e-05
6.71721e-05
6.60818e-05
6.50178e-05
6.39624e-05
6.30764e-05
6.19956e-05
6.12114e-05
6.01121e-05
5.93423e-05
5.84248e-05
5.74111e-05
5.66996e-05
5.5704e-05
5.50151e-05
5.40374e-05
5.34015e-05
5.25192e-05
5.17909e-05
5.09909e-05
5.04165e-05
4.96356e-05
4.88965e-05
4.83748e-05
4.77213e-05
4.69763e-05
4.64685e-05
4.58587e-05
4.51607e-05
4.46807e-05
4.41046e-05
4.34405e-05
4.29781e-05
4.24205e-05
4.17712e-05
4.13093e-05
4.07546e-05
4.01456e-05
3.94485e-05
3.89087e-05
3.76079e-05
3.54046e-05
3.34006e-06
1.50892e-05
3.39488e-05
4.99316e-05
6.11633e-05
6.84173e-05
7.29716e-05
7.58695e-05
7.7805e-05
7.93108e-05
8.082e-05
8.25001e-05
8.43935e-05
8.65051e-05
8.90023e-05
9.19671e-05
9.55084e-05
9.94588e-05
0.000103797
0.000108491
0.000113504
0.000118799
0.000124342
0.000130102
0.00013605
0.000142146
0.000148352
0.000154634
0.000160968
0.000167335
0.00017372
0.000180115
0.000186514
0.000192913
0.000199312
0.000205712
0.000212108
0.000218498
0.000224878
0.000231241
0.000237577
0.000243869
0.000250095
0.000256226
0.000262226
0.000268082
0.000273823
0.000279523
0.000285185
0.000290801
0.000296359
0.000301843
0.000307236
0.00031252
0.000317674
0.000322675
0.000327495
0.000332091
0.000336506
0.000340676
0.000344608
0.000348334
0.000351892
0.000355111
0.000358027
0.000360523
0.000362686
0.000364597
0.00036621
0.00036752
0.000368528
0.000369238
0.000369658
0.000369796
0.000369661
0.000369264
0.000368616
0.00036773
0.000366614
0.000365278
0.000363719
0.000361923
0.000359843
0.000357378
0.000354389
0.000350872
0.000346956
0.000342775
0.000338422
0.000333961
0.000329431
0.000324861
0.000320269
0.00031567
0.000311078
0.000306503
0.000301956
0.000297443
0.000292971
0.000288545
0.00028417
0.000279848
0.000275582
0.000271375
0.000267228
0.000263141
0.000259116
0.000255152
0.000251249
0.000247408
0.000243626
0.000239903
0.000236239
0.000232632
0.000229082
0.000225587
0.000222147
0.00021876
0.000215427
0.000212144
0.000208913
0.000205728
0.000202586
0.000199488
0.000196435
0.000193427
0.000190467
0.000187561
0.000184705
0.000181895
0.000179132
0.000176412
0.000173734
0.000171096
0.000168499
0.000165944
0.00016343
0.000160957
0.000158527
0.000156145
0.000153808
0.000151516
0.000149243
0.000147115
0.000144897
0.000142888
0.000140722
0.000138748
0.000136755
0.000134685
0.000132831
0.000130841
0.000129056
0.000127119
0.000125395
0.000123577
0.000121856
0.000120109
0.000118522
0.000116866
0.000115213
0.000113717
0.000112202
0.000110612
0.00010918
0.000107737
0.000106222
0.000104853
0.000103467
0.000102002
0.000100665
9.92946e-05
9.78259e-05
9.64526e-05
9.53096e-05
9.38055e-05
9.21853e-05
9.0523e-05
8.75787e-05
8.20732e-05
3.63929e-06
2.19764e-05
4.75884e-05
6.86162e-05
8.39137e-05
9.45308e-05
0.000101923
0.000107307
0.0001116
0.000115458
0.000119318
0.000123434
0.000127944
0.000132927
0.000138445
0.000144521
0.00015116
0.000158266
0.000165791
0.000173679
0.000181873
0.000190319
0.000198962
0.000207756
0.000216653
0.000225611
0.000234592
0.000243565
0.000252506
0.000261399
0.000270231
0.000278996
0.00028769
0.000296313
0.000304868
0.000313355
0.000321778
0.000330137
0.000338433
0.000346664
0.000354825
0.000362911
0.000370912
0.00037882
0.000386626
0.000394339
0.000401974
0.000409547
0.000417057
0.000424492
0.000431838
0.000439077
0.000446189
0.00045315
0.000459936
0.000466521
0.000472879
0.000478983
0.000484821
0.000490362
0.000495582
0.000500468
0.000505053
0.000509347
0.000513192
0.000516568
0.000519416
0.000521927
0.000524028
0.000525715
0.000526986
0.000527846
0.000528299
0.000528356
0.000528027
0.000527327
0.000526269
0.000524869
0.000523139
0.000521093
0.000518733
0.000516055
0.000513035
0.000509626
0.000505778
0.000501488
0.00049682
0.000491855
0.000486665
0.000481313
0.000475842
0.00047029
0.000464681
0.000459032
0.000453366
0.0004477
0.000442046
0.000436417
0.00043082
0.000425265
0.000419758
0.000414304
0.000408907
0.000403571
0.000398299
0.000393092
0.000387953
0.000382879
0.000377873
0.000372935
0.000368064
0.00036326
0.000358523
0.00035385
0.000349242
0.000344697
0.000340213
0.00033579
0.000331427
0.000327121
0.000322871
0.000318677
0.000314534
0.000310443
0.000306402
0.000302412
0.000298474
0.00029459
0.000290758
0.000286977
0.000283248
0.000279561
0.000275914
0.00027231
0.00026875
0.000265235
0.000261765
0.000258341
0.000254971
0.000251659
0.000248397
0.000245183
0.000242002
0.000238918
0.000235827
0.000232857
0.00022985
0.00022694
0.000224066
0.000221175
0.000218406
0.000215612
0.000212933
0.000210213
0.000207602
0.000204985
0.000202431
0.000199892
0.000197448
0.000195015
0.000192592
0.000190261
0.000187957
0.000185627
0.000183383
0.000181165
0.00017892
0.000176751
0.000174598
0.000172402
0.000170262
0.000168108
0.000165881
0.000163653
0.000161546
0.000159115
0.000156962
0.000154325
0.000150352
0.000142327
3.82121e-06
2.7903e-05
5.90752e-05
8.46074e-05
0.000103983
0.000118227
0.000128859
0.000137179
0.000144205
0.000150682
0.000157116
0.000163822
0.000170974
0.000178656
0.000186896
0.000195718
0.000205065
0.000214826
0.000224947
0.000235363
0.000246008
0.000256819
0.000267738
0.000278712
0.000289694
0.000300643
0.000311526
0.000322316
0.000332993
0.000343543
0.000353958
0.000364235
0.000374372
0.000384374
0.000394245
0.000403991
0.000413619
0.000423136
0.000432547
0.000441858
0.000451073
0.000460196
0.000469228
0.000478173
0.000487035
0.000495821
0.000504539
0.000513193
0.000521775
0.000530272
0.000538673
0.000546961
0.000555116
0.000563115
0.000570936
0.000578551
0.000585936
0.000593064
0.000599913
0.000606461
0.000612697
0.000618575
0.000624066
0.000629229
0.000633971
0.000638217
0.000641865
0.000645051
0.000647774
0.000650013
0.000651758
0.000653009
0.000653769
0.000654045
0.000653849
0.000653193
0.000652094
0.000650567
0.000648629
0.000646296
0.000643578
0.00064048
0.000637
0.000633125
0.000628844
0.00062417
0.000619138
0.000613805
0.000608224
0.000602448
0.00059652
0.00059048
0.000584364
0.000578204
0.000572007
0.000565789
0.000559567
0.000553353
0.000547159
0.000540995
0.00053487
0.000528792
0.000522765
0.000516795
0.000510885
0.00050504
0.00049926
0.000493545
0.000487895
0.000482315
0.000476803
0.00047136
0.000465985
0.000460677
0.000455436
0.00045026
0.000445148
0.000440098
0.00043511
0.000430181
0.00042531
0.000420496
0.000415739
0.000411035
0.000406385
0.000401789
0.000397245
0.000392754
0.000388316
0.000383931
0.000379596
0.000375309
0.000371067
0.00036687
0.000362719
0.000358614
0.000354555
0.000350543
0.000346581
0.000342666
0.000338792
0.000334962
0.000331171
0.000327447
0.000323751
0.000320131
0.000316526
0.000312977
0.000309482
0.000306011
0.000302617
0.000299241
0.000295938
0.000292642
0.000289408
0.000286196
0.000283034
0.000279908
0.000276849
0.000273825
0.000270824
0.000267879
0.000264969
0.000262062
0.000259206
0.000256383
0.000253561
0.00025078
0.000248017
0.000245232
0.000242463
0.000239678
0.000236834
0.000233943
0.000231083
0.000227922
0.000224923
0.000221804
0.000217566
0.000208055
4.36056e-06
2.98033e-05
6.58623e-05
9.65751e-05
0.000120531
0.000138954
0.000153267
0.000164879
0.000174897
0.00018414
0.000193177
0.000202371
0.000211932
0.000221957
0.0002325
0.000243524
0.000254972
0.000266757
0.000278812
0.00029107
0.00030346
0.000315922
0.000328396
0.000340833
0.000353186
0.000365421
0.000377507
0.00038942
0.000401145
0.000412671
0.000423992
0.00043511
0.000446025
0.000456746
0.00046728
0.000477639
0.000487833
0.000497875
0.000507779
0.000517555
0.000527215
0.00053677
0.00054623
0.000555603
0.0005649
0.000574132
0.00058331
0.00059244
0.00060153
0.000610569
0.000619544
0.00062844
0.000637238
0.000645918
0.000654457
0.000662828
0.000671005
0.000678958
0.000686657
0.000694074
0.000701174
0.000707906
0.00071425
0.000720203
0.000725808
0.00073088
0.000735407
0.000739379
0.000742867
0.000745825
0.000748239
0.000750102
0.000751413
0.000752176
0.000752398
0.000752092
0.000751272
0.000749954
0.000748158
0.000745901
0.0007432
0.000740071
0.000736525
0.00073257
0.000728219
0.000723491
0.000718417
0.000713037
0.000707395
0.000701534
0.000695495
0.000689315
0.000683029
0.00067665
0.000670208
0.000663726
0.000657223
0.000650714
0.000644213
0.000637732
0.000631281
0.000624869
0.000618502
0.000612188
0.00060593
0.000599732
0.0005936
0.00058754
0.000581555
0.000575638
0.000569789
0.000564007
0.000558292
0.000552643
0.000547059
0.00054154
0.000536084
0.00053069
0.000525357
0.00052008
0.000514863
0.000509703
0.0005046
0.000499553
0.000494559
0.000489619
0.000484732
0.000479898
0.000475115
0.000470383
0.000465702
0.000461069
0.000456482
0.000451942
0.000447448
0.000443
0.000438598
0.000434244
0.000429938
0.000425678
0.000421462
0.00041729
0.00041316
0.000409082
0.000405044
0.000401063
0.00039711
0.000393192
0.000389315
0.00038547
0.000381677
0.000377918
0.000374208
0.000370519
0.000366869
0.000363247
0.000359667
0.000356143
0.00035267
0.000349233
0.000345823
0.00034245
0.000339107
0.000335777
0.000332485
0.000329226
0.000325979
0.000322754
0.00031954
0.000316311
0.000313075
0.000309818
0.000306509
0.00030313
0.00029972
0.000296054
0.000292339
0.000288806
0.00028446
0.000274383
4.88631e-06
3.00182e-05
6.94273e-05
0.000104994
0.000133443
0.000156204
0.000174441
0.000189548
0.000202691
0.000214741
0.000226314
0.000237815
0.000249535
0.000261531
0.000273901
0.000286698
0.00029975
0.000313021
0.000326453
0.000339982
0.000353546
0.000367084
0.000380543
0.000393876
0.000407041
0.000420007
0.000432746
0.000445238
0.000457472
0.000469438
0.000481135
0.000492565
0.000503736
0.000514656
0.000525339
0.0005358
0.000546056
0.000556124
0.000566025
0.000575776
0.000585396
0.000594903
0.000604313
0.000613646
0.000622924
0.000632166
0.000641384
0.00065059
0.000659789
0.000668964
0.000678116
0.000687237
0.000696315
0.000705334
0.000714272
0.000723105
0.000731806
0.000740344
0.000748688
0.000756802
0.000764649
0.00077219
0.000779387
0.000786206
0.000792676
0.000798687
0.000804194
0.00080914
0.000813571
0.000817454
0.000820765
0.000823483
0.000825603
0.000827122
0.000828044
0.000828378
0.000828135
0.000827331
0.000825985
0.000824118
0.000821751
0.000818906
0.000815605
0.000811868
0.000807718
0.000803182
0.000798292
0.000793084
0.000787597
0.000781869
0.000775938
0.00076984
0.000763606
0.000757262
0.000750834
0.000744346
0.000737818
0.000731267
0.00072471
0.000718159
0.000711627
0.000705122
0.000698654
0.00069223
0.000685855
0.000679534
0.000673271
0.000667071
0.00066093
0.000654853
0.00064884
0.000642893
0.000637012
0.000631195
0.000625443
0.000619754
0.000614129
0.000608566
0.000603065
0.000597632
0.00059226
0.000586947
0.00058169
0.000576488
0.000571339
0.000566244
0.000561201
0.000556209
0.000551266
0.000546374
0.000541531
0.000536737
0.000531991
0.000527292
0.000522639
0.000518031
0.000513468
0.000508949
0.000504476
0.000500049
0.000495667
0.000491328
0.000487031
0.000482781
0.000478573
0.000474413
0.00047029
0.000466202
0.000462152
0.000458136
0.000454162
0.000450222
0.000446319
0.000442429
0.000438567
0.00043473
0.000430925
0.000427159
0.000423427
0.000419722
0.000416039
0.000412381
0.000408745
0.000405122
0.000401536
0.000397981
0.000394438
0.000390905
0.000387373
0.000383823
0.000380252
0.00037666
0.000373018
0.000369297
0.000365504
0.000361491
0.000357328
0.000353107
0.000348809
0.000338855
5.32884e-06
2.93855e-05
7.07061e-05
0.000110246
0.00014308
0.000169821
0.000191941
0.000210552
0.00022682
0.000241637
0.000255654
0.000269302
0.000282867
0.000296604
0.000310559
0.000324657
0.000338883
0.000353202
0.000367564
0.000381914
0.000396196
0.000410358
0.000424351
0.000438132
0.000451666
0.000464922
0.000477877
0.000490516
0.000502827
0.000514806
0.000526454
0.000537777
0.000548783
0.000559487
0.000569906
0.000580061
0.000589972
0.000599662
0.000609162
0.000618497
0.000627691
0.000636767
0.000645749
0.000654667
0.000663548
0.000672418
0.000681296
0.000690198
0.000699137
0.000708116
0.00071714
0.000726206
0.000735309
0.000744436
0.000753571
0.000762693
0.000771775
0.000780788
0.000789699
0.00079847
0.00080706
0.000815427
0.000823526
0.000831311
0.000838765
0.000845829
0.000852427
0.000858525
0.000864107
0.000869134
0.00087357
0.000877378
0.000880547
0.00088307
0.000884944
0.000886172
0.000886763
0.000886729
0.00088609
0.000884867
0.000883085
0.000880771
0.000877951
0.000874656
0.000870916
0.000866762
0.000862231
0.000857359
0.000852184
0.000846743
0.000841073
0.000835211
0.000829187
0.000823032
0.000816773
0.000810432
0.000804034
0.000797597
0.000791137
0.000784671
0.00077821
0.000771767
0.000765349
0.000758967
0.000752625
0.00074633
0.000740086
0.000733897
0.000727764
0.00072169
0.000715676
0.000709724
0.000703833
0.000698005
0.000692238
0.000686532
0.000680888
0.000675303
0.000669778
0.000664311
0.000658901
0.000653549
0.000648252
0.000643011
0.000637824
0.000632689
0.000627607
0.000622577
0.000617601
0.00061268
0.00060781
0.000602989
0.000598216
0.000593489
0.000588808
0.000584172
0.000579579
0.00057503
0.000570525
0.000566064
0.000561648
0.000557274
0.000552941
0.000548649
0.000544399
0.00054019
0.000536021
0.000531888
0.00052779
0.000523727
0.000519699
0.000515704
0.000511741
0.000507801
0.000503883
0.000499989
0.00049612
0.00049228
0.000488454
0.000484641
0.000480842
0.00047706
0.000473292
0.000469528
0.000465776
0.000462035
0.000458298
0.000454562
0.000450814
0.000447041
0.00044324
0.000439425
0.000435558
0.000431607
0.000427558
0.000423314
0.00041888
0.000414257
0.000409906
0.0004004
5.68632e-06
2.82674e-05
7.03068e-05
0.000112801
0.0001494
0.000179842
0.000205553
0.000227538
0.000246818
0.000264289
0.000280537
0.000296181
0.000311584
0.000326816
0.000341963
0.000357072
0.000372149
0.000387176
0.000402118
0.000416933
0.000431574
0.000445999
0.000460164
0.000474033
0.000487575
0.000500765
0.000513582
0.000526014
0.000538054
0.000549699
0.000560952
0.000571824
0.000582325
0.000592475
0.000602292
0.000611812
0.00062106
0.000630065
0.000638858
0.000647459
0.0006559
0.000664217
0.00067245
0.000680637
0.000688813
0.00069701
0.000705258
0.000713583
0.000722008
0.000730548
0.000739217
0.000748022
0.000756963
0.000766037
0.000775231
0.000784528
0.000793905
0.000803332
0.000812777
0.000822201
0.00083156
0.000840806
0.000849884
0.000858741
0.000867327
0.00087558
0.000883444
0.000890859
0.000897797
0.00090419
0.000909979
0.000915109
0.000919556
0.000923315
0.000926372
0.000928724
0.000930374
0.000931334
0.000931619
0.000931251
0.000930258
0.00092867
0.00092652
0.000923842
0.000920672
0.00091705
0.000913014
0.000908603
0.000903858
0.000898818
0.000893521
0.000888004
0.0008823
0.000876441
0.000870455
0.00086437
0.000858207
0.000851989
0.000845733
0.000839457
0.000833173
0.000826895
0.000820634
0.000814397
0.000808192
0.000802027
0.000795906
0.000789832
0.00078381
0.000777842
0.000771929
0.000766073
0.000760275
0.000754535
0.000748854
0.000743232
0.000737668
0.000732162
0.000726713
0.000721321
0.000715984
0.000710703
0.000705477
0.000700304
0.000695185
0.000690118
0.000685103
0.000680138
0.000675223
0.000670358
0.000665543
0.000660777
0.000656059
0.000651388
0.000646763
0.000642184
0.000637649
0.000633163
0.000628722
0.000624325
0.00061997
0.000615657
0.000611383
0.000607149
0.000602953
0.000598796
0.000594676
0.000590592
0.000586542
0.000582522
0.000578534
0.000574576
0.000570646
0.00056674
0.000562856
0.000558992
0.000555149
0.000551326
0.000547519
0.000543722
0.000539935
0.000536158
0.000532389
0.00052861
0.000524821
0.00052103
0.000517234
0.000513428
0.000509596
0.000505728
0.000501821
0.000497877
0.000493869
0.000489769
0.000485558
0.000481165
0.000476578
0.000471756
0.000467266
0.000458173
5.96091e-06
2.69079e-05
6.86874e-05
0.000113103
0.000152707
0.000186471
0.000215326
0.000240391
0.0002624
0.000282308
0.000300871
0.000318453
0.000335351
0.000351796
0.000367923
0.000383808
0.000399484
0.000414951
0.000430196
0.000445189
0.000459898
0.00047429
0.00048833
0.00050199
0.000515243
0.000528069
0.000540453
0.000552386
0.000563863
0.000574886
0.00058546
0.000595599
0.000605314
0.000614646
0.000623621
0.000632279
0.00064062
0.000648671
0.000656468
0.000664059
0.000671488
0.000678802
0.000686045
0.000693263
0.0007005
0.000707799
0.000715202
0.000722746
0.000730465
0.000738387
0.000746535
0.000754928
0.000763576
0.000772482
0.00078164
0.000791038
0.000800655
0.000810464
0.000820432
0.000830522
0.000840693
0.000850885
0.000861033
0.000871071
0.00088093
0.000890533
0.000899842
0.00090875
0.00091725
0.000925232
0.000932583
0.000939283
0.000945231
0.000950445
0.000954901
0.000958588
0.000961502
0.00096365
0.000965047
0.000965715
0.000965682
0.000964981
0.00096365
0.000961729
0.00095926
0.000956286
0.000952852
0.000949002
0.000944779
0.000940226
0.000935383
0.00093029
0.000924982
0.000919495
0.000913858
0.000908101
0.000902247
0.000896321
0.000890342
0.000884328
0.000878294
0.000872254
0.00086622
0.000860202
0.000854207
0.000848243
0.000842317
0.000836432
0.000830592
0.000824801
0.000819061
0.000813373
0.00080774
0.000802161
0.000796638
0.000791171
0.000785759
0.000780403
0.000775102
0.000769856
0.000764664
0.000759527
0.000754443
0.000749411
0.000744432
0.000739504
0.000734627
0.0007298
0.000725022
0.000720294
0.000715614
0.000710983
0.000706399
0.000701861
0.00069737
0.000692923
0.000688518
0.000684157
0.000679841
0.000675567
0.000671334
0.000667143
0.000662991
0.000658876
0.000654802
0.000650767
0.000646768
0.000642802
0.000638867
0.000634962
0.000631084
0.000627232
0.000623405
0.000619601
0.000615816
0.000612047
0.000608295
0.000604557
0.000600832
0.000597114
0.000593403
0.000589696
0.000585992
0.00058228
0.000578557
0.000574823
0.000571077
0.000567312
0.0005635
0.000559645
0.000555741
0.000551788
0.000547756
0.000543625
0.000539375
0.000534954
0.000530327
0.00052544
0.000520593
0.000512237
6.14947e-06
2.53797e-05
6.61782e-05
0.00011158
0.000153384
0.00018984
0.000221432
0.000249136
0.000273785
0.000296078
0.000316568
0.000335741
0.000353946
0.000371428
0.000388349
0.000404812
0.000420874
0.00043656
0.000451874
0.000466805
0.000481335
0.000495442
0.000509103
0.000522296
0.000535004
0.000547212
0.00055891
0.000570092
0.000580763
0.000590924
0.000600578
0.000609769
0.000618524
0.000626872
0.000634806
0.000642347
0.000649531
0.000656407
0.000663025
0.000669433
0.000675682
0.000681822
0.000687909
0.000693996
0.000700137
0.000706387
0.000712798
0.000719425
0.000726312
0.000733495
0.000741
0.000748858
0.000757096
0.000765732
0.000774773
0.000784216
0.000794044
0.000804236
0.000814758
0.000825563
0.000836597
0.000847801
0.000859108
0.00087044
0.000881709
0.000892818
0.000903732
0.000914315
0.000924567
0.000934314
0.000943476
0.00095194
0.000959649
0.000966526
0.000972582
0.000977796
0.000982159
0.000985671
0.000988345
0.000990202
0.000991273
0.000991594
0.000991206
0.000990154
0.000988489
0.000986257
0.00098351
0.000980297
0.000976667
0.000972665
0.000968338
0.000963727
0.000958872
0.00095381
0.000948575
0.000943197
0.000937703
0.000932119
0.000926467
0.000920765
0.000915031
0.000909279
0.000903522
0.000897772
0.000892037
0.000886325
0.000880643
0.000874997