/*--------------------------------*- C++ -*----------------------------------*\
| =========                 |                                                 |
| \\      /  F ield         | OpenFOAM: The Open Source CFD Toolbox           |
|  \\    /   O peration     | Version:  2312                                  |
|   \\  /    A nd           | Website:  www.openfoam.com                      |
|    \\/     M anipulation  |                                                 |
\*---------------------------------------------------------------------------*/
FoamFile
{
    version     2.0;
    format      ascii;
    arch        "LSB;label=32;scalar=64";
    class       volScalarField;
    location    "100";
    object      nut;
}
// * * * * * * * * * * * * * * * * * * * * * * * * * * * * * * * * * * * * * //

dimensions      [0 2 -1 0 0 0 0];

internalField   nonuniform List<scalar> 
12225
(
2.57618e-05
3.02011e-05
3.18958e-05
3.19915e-05
3.18752e-05
3.11479e-05
3.0578e-05
3.00088e-05
2.94947e-05
2.9049e-05
2.86696e-05
2.83507e-05
2.80807e-05
2.78576e-05
2.76641e-05
2.75164e-05
2.73939e-05
2.72241e-05
0.000155568
6.70974e-05
4.95077e-05
4.08418e-05
3.62388e-05
3.33609e-05
3.18733e-05
3.11107e-05
3.08582e-05
3.08548e-05
3.10942e-05
3.14532e-05
3.18396e-05
3.22431e-05
3.28152e-05
3.31655e-05
3.3852e-05
3.39964e-05
0.000461081
0.000207723
0.000143526
0.0001132
9.4363e-05
8.25591e-05
7.44529e-05
6.82884e-05
6.41875e-05
6.09683e-05
5.86389e-05
5.67361e-05
5.54007e-05
5.425e-05
5.35269e-05
5.28381e-05
5.26149e-05
5.20002e-05
0.000724492
0.000440123
0.00031763
0.000254135
0.000214855
0.000189288
0.000170749
0.000157586
0.000147064
0.000138509
0.00013216
0.000126456
0.000122246
0.000117955
0.00011525
0.000111773
0.000110415
0.000107042
0.000823403
0.000657963
0.000522417
0.000435573
0.000376749
0.000336217
0.000305983
0.000283667
0.000265954
0.000252048
0.000240576
0.000230468
0.000223005
0.000215373
0.000210351
0.000203828
0.000201203
0.000194755
0.000846234
0.000780269
0.000688649
0.000605971
0.000541772
0.000493135
0.00045489
0.000425073
0.000400977
0.000381362
0.000365288
0.000351512
0.000340021
0.000329428
0.00032173
0.00031292
0.000308468
0.000299763
0.000852304
0.000827199
0.000786135
0.000729219
0.000676262
0.000630913
0.000592407
0.000560296
0.00053332
0.000510454
0.000491258
0.000474416
0.000460584
0.000447715
0.000437146
0.000426684
0.000420118
0.000409778
0.000852898
0.000845759
0.000826925
0.000800133
0.000765988
0.00073222
0.000700696
0.000672262
0.000647041
0.000624641
0.000605124
0.000587591
0.00057256
0.000558973
0.00054698
0.00053568
0.000527478
0.000516294
0.000852055
0.000850713
0.000843896
0.00083229
0.000814473
0.000794899
0.000773633
0.000752652
0.000732783
0.000714156
0.000697161
0.000681402
0.000667432
0.000654345
0.000642729
0.000631613
0.000623047
0.000612057
0.000851628
0.000851224
0.000848995
0.000844781
0.000837082
0.000827163
0.000815335
0.000802429
0.000789208
0.000776005
0.000763304
0.000751022
0.000739641
0.000728699
0.000718913
0.000708978
0.000701313
0.000691541
0.000851544
0.00085098
0.00085002
0.000848507
0.000845581
0.000841281
0.000835647
0.000828892
0.000821396
0.000813378
0.000805208
0.000796913
0.000788885
0.00078086
0.000773507
0.000765822
0.00075963
0.000751868
0.000851556
0.000850831
0.000850075
0.000849235
0.000847926
0.000845979
0.000843309
0.000839899
0.000835877
0.00083132
0.000826437
0.00082125
0.000816033
0.000810622
0.000805514
0.000800051
0.000795475
0.000789756
0.000851574
0.000850774
0.000850021
0.000849312
0.000848523
0.000847531
0.000846253
0.000844614
0.000842622
0.000840267
0.000837636
0.000834718
0.000831674
0.000828396
0.000825199
0.000821691
0.000818648
0.000814802
0.000851583
0.000850759
0.000849987
0.000849271
0.000848588
0.000847893
0.000847147
0.000846298
0.000845326
0.000844197
0.000842932
0.0008415
0.000839971
0.000838276
0.000836573
0.00083466
0.000832934
0.000830756
0.000851584
0.000850755
0.000849975
0.000849244
0.000848559
0.000847909
0.000847284
0.000846664
0.000846038
0.000845384
0.000844702
0.000843968
0.000843204
0.000842373
0.000841533
0.000840598
0.000839717
0.00083866
0.000851584
0.000850752
0.000849968
0.00084923
0.000848536
0.000847883
0.000847266
0.000846679
0.000846119
0.000845578
0.000845053
0.000844535
0.000844026
0.000843512
0.000843007
0.000842485
0.000841982
0.000841441
0.000851583
0.000850749
0.000849963
0.000849222
0.000848523
0.000847864
0.000847241
0.000846652
0.000846094
0.000845563
0.000845059
0.000844576
0.000844115
0.000843671
0.000843245
0.000842831
0.000842435
0.000842043
0.000851583
0.000850748
0.00084996
0.000849216
0.000848515
0.000847852
0.000847225
0.000846632
0.000846069
0.000845535
0.000845028
0.000844545
0.000844084
0.000843645
0.000843226
0.000842826
0.000842442
0.000842075
0.000851583
0.000850748
0.000849959
0.000849215
0.000848512
0.000847848
0.000847219
0.000846623
0.000846058
0.00084552
0.000845008
0.000844519
0.000844052
0.000843606
0.000843177
0.000842766
0.00084237
0.000841992
0.000851583
0.000850749
0.000849961
0.000849219
0.000848517
0.000847853
0.000847223
0.000846621
0.000846043
0.000845484
0.000844941
0.000844409
0.000843883
0.000843366
0.000842848
0.00084234
0.000841821
0.000841325
0.000851583
0.00085075
0.000849966
0.000849227
0.000848523
0.000847841
0.000847162
0.000846473
0.000845756
0.000845003
0.000844202
0.000843357
0.000842455
0.000841516
0.000840516
0.000839504
0.00083841
0.000837376
0.000851574
0.000850757
0.000849987
0.000849223
0.000848392
0.000847426
0.000846263
0.000844868
0.000843224
0.000841346
0.000839241
0.000836957
0.000834497
0.000831941
0.000829247
0.000826568
0.000823717
0.000821097
0.000851515
0.000850852
0.000849952
0.000848592
0.000846506
0.000843535
0.000839667
0.000835015
0.000829716
0.000823956
0.000817863
0.000811613
0.000805257
0.000798977
0.000792687
0.000786701
0.000780593
0.000775191
0.000851373
0.000851109
0.000847811
0.000842148
0.000833625
0.00082266
0.000810103
0.000796707
0.000783036
0.000769535
0.000756402
0.000743886
0.000731952
0.000720793
0.000710203
0.000700518
0.000691002
0.000682908
0.000851034
0.000847912
0.000829739
0.000808606
0.000781173
0.000752335
0.000724499
0.000698537
0.000674839
0.000653447
0.000634127
0.000616879
0.000601221
0.000587319
0.000574724
0.0005632
0.00055253
0.00054355
0.000844866
0.000817213
0.000760132
0.000698629
0.00064436
0.000598113
0.00055971
0.00052752
0.000500666
0.000477923
0.000458513
0.000441973
0.000427396
0.000414982
0.00040375
0.000393957
0.000384684
0.000377447
0.000806517
0.000691521
0.000565908
0.000481361
0.000422122
0.000378294
0.000345521
0.000319806
0.000299694
0.000283118
0.000269648
0.000258334
0.000248264
0.000240164
0.000232556
0.000226578
0.000220401
0.000215932
0.00065704
0.00039491
0.000291303
0.000235835
0.000199277
0.000174166
0.000156579
0.000143348
0.000133431
0.000125361
0.000118714
0.000113571
0.000109025
0.000105458
0.00010207
9.95236e-05
9.68699e-05
9.50132e-05
0.000258322
0.000128344
9.45238e-05
7.58776e-05
6.45393e-05
5.71599e-05
5.25846e-05
4.93348e-05
4.69729e-05
4.54292e-05
4.42957e-05
4.35381e-05
4.29694e-05
4.26357e-05
4.23775e-05
4.22867e-05
4.22034e-05
4.22568e-05
3.13102e-05
3.48374e-05
3.67035e-05
3.75971e-05
3.77948e-05
3.77113e-05
3.74884e-05
3.7123e-05
3.67298e-05
3.63389e-05
3.59663e-05
3.56199e-05
3.53019e-05
3.50124e-05
3.47497e-05
3.45118e-05
3.42958e-05
3.40999e-05
3.09407e-06
8.91338e-06
1.07797e-05
1.22253e-05
1.33332e-05
1.41933e-05
1.48714e-05
1.54068e-05
1.5856e-05
1.62731e-05
1.66381e-05
1.6978e-05
1.73241e-05
1.76936e-05
1.81187e-05
1.864e-05
1.93213e-05
2.00972e-05
2.08981e-05
2.17241e-05
2.25874e-05
2.34854e-05
2.44244e-05
2.53978e-05
2.64079e-05
2.74448e-05
2.85078e-05
2.95858e-05
3.06784e-05
3.17756e-05
3.28729e-05
3.39598e-05
3.50352e-05
3.6091e-05
3.71269e-05
3.81369e-05
3.91219e-05
4.0078e-05
4.10073e-05
4.19071e-05
4.27805e-05
4.3626e-05
4.44476e-05
4.52458e-05
4.60275e-05
4.68007e-05
4.75641e-05
4.83026e-05
4.90202e-05
4.97171e-05
5.03952e-05
5.10543e-05
5.16963e-05
5.23208e-05
5.29295e-05
5.3522e-05
5.40995e-05
5.4662e-05
5.52103e-05
5.57446e-05
5.62653e-05
5.67732e-05
5.72685e-05
5.7752e-05
5.82223e-05
5.86799e-05
5.91235e-05
5.95548e-05
5.99721e-05
6.03775e-05
6.07694e-05
6.11499e-05
6.15175e-05
6.1875e-05
6.22207e-05
6.25579e-05
6.28849e-05
6.32047e-05
6.35138e-05
6.38136e-05
6.40995e-05
6.43799e-05
6.46646e-05
6.49392e-05
6.52082e-05
6.54804e-05
6.57462e-05
6.60163e-05
6.62891e-05
6.6567e-05
6.68503e-05
6.71305e-05
6.74028e-05
6.75208e-05
6.77043e-05
6.79421e-05
6.81185e-05
6.83468e-05
6.85454e-05
6.87044e-05
6.88292e-05
6.88547e-05
6.87724e-05
6.83406e-05
6.90334e-05
6.86042e-05
6.91092e-05
7.00763e-05
6.88849e-05
6.91694e-05
6.92979e-05
6.95806e-05
6.99313e-05
6.9174e-05
6.93251e-05
6.91814e-05
6.95657e-05
6.93302e-05
6.92178e-05
6.90155e-05
6.88008e-05
6.85527e-05
6.8275e-05
6.79704e-05
6.76303e-05
6.7257e-05
6.6849e-05
6.64074e-05
6.59307e-05
6.5422e-05
6.48992e-05
6.43183e-05
6.3709e-05
6.3059e-05
6.23747e-05
6.16675e-05
6.09352e-05
6.01766e-05
5.93579e-05
5.85862e-05
5.76607e-05
5.63313e-05
5.56473e-05
5.51296e-05
5.46247e-05
5.41135e-05
5.35891e-05
5.30606e-05
5.25225e-05
5.19866e-05
5.14553e-05
5.08953e-05
5.03382e-05
4.97864e-05
4.92538e-05
4.86522e-05
4.80831e-05
4.75317e-05
4.6995e-05
4.6471e-05
4.59557e-05
4.54491e-05
4.49541e-05
4.44706e-05
4.39992e-05
4.35403e-05
4.30946e-05
4.26619e-05
4.22424e-05
4.18355e-05
4.14407e-05
4.10567e-05
4.06843e-05
4.03153e-05
3.99654e-05
3.95809e-05
3.92718e-05
3.87721e-05
3.84345e-05
3.7434e-05
4.92304e-06
2.64745e-05
5.5351e-05
7.863e-05
9.53547e-05
0.000107482
0.0001163
0.000122647
0.000126944
0.000129375
0.000130971
0.000132338
0.000133792
0.000135461
0.000137344
0.000139363
0.000141389
0.000143338
0.000145299
0.000147418
0.000149783
0.000152457
0.000155495
0.000158954
0.000162884
0.000167326
0.000172301
0.000177816
0.000183864
0.000190428
0.000197508
0.000205061
0.00021303
0.00022136
0.000229985
0.00023884
0.000247854
0.00025696
0.000266096
0.000275205
0.00028423
0.000293123
0.000301834
0.000310325
0.000318563
0.000326536
0.000334309
0.000341876
0.000349246
0.000356421
0.000363404
0.0003702
0.000376814
0.000383248
0.000389507
0.000395594
0.000401511
0.000407263
0.00041285
0.000418278
0.000423548
0.000428665
0.000433636
0.000438468
0.000443176
0.000447724
0.000452104
0.000456311
0.000460348
0.000464211
0.000467905
0.000471428
0.000474788
0.000477984
0.000481026
0.000483913
0.000486653
0.000489244
0.000491702
0.000494038
0.000496293
0.000498485
0.000500626
0.000502698
0.000504771
0.000506833
0.0005089
0.000510985
0.000513092
0.000515214
0.000517353
0.000519487
0.00052161
0.00052375
0.000526515
0.000529455
0.000532564
0.000536006
0.00053947
0.000543055
0.000546646
0.000550116
0.000553397
0.000556855
0.000561137
0.000562296
0.000567803
0.000567465
0.000569464
0.000573474
0.000577839
0.000580783
0.000581771
0.000582645
0.000587333
0.000587545
0.000590636
0.00059305
0.000595816
0.000597644
0.000599269
0.000600599
0.000601633
0.000602388
0.000602778
0.000602727
0.000602267
0.000601378
0.000600053
0.000598296
0.000596169
0.000593644
0.000590715
0.000587377
0.000583599
0.000579431
0.000574927
0.000570124
0.000564921
0.000559503
0.00055388
0.00054574
0.00053643
0.000526615
0.000516552
0.000506379
0.000496158
0.000485945
0.000475781
0.000465679
0.000455588
0.000445581
0.000435699
0.000426109
0.000416855
0.000407635
0.000398419
0.000389308
0.000380372
0.000371587
0.000362936
0.000354456
0.000346169
0.000338066
0.000330156
0.000322446
0.000314934
0.000307622
0.000300501
0.000293571
0.000286813
0.000280246
0.000273796
0.00026758
0.000261305
0.000255396
0.0002489
0.000240854
0.000229958
0.000205874
6.26076e-06
3.81072e-05
8.41695e-05
0.000124977
0.000157994
0.000183727
0.000203477
0.000218427
0.000229607
0.000237852
0.000244023
0.000248839
0.000252891
0.000256613
0.000260304
0.000264158
0.000268301
0.000272841
0.000277895
0.000283574
0.000289964
0.00029713
0.00030513
0.000314013
0.000323822
0.00033458
0.000346284
0.00035889
0.000372684
0.000387739
0.00040362
0.000420159
0.000437237
0.000454755
0.000472611
0.000490693
0.000508884
0.000527058
0.000545138
0.000563055
0.000580742
0.000598142
0.000615211
0.000631917
0.000648243
0.00066419
0.000679773
0.000694993
0.000709857
0.000724368
0.000738533
0.000752358
0.000765851
0.000779019
0.000791868
0.000804405
0.000816636
0.000828564
0.000840196
0.000851534
0.000862583
0.000873344
0.000883822
0.000894019
0.000903935
0.000913561
0.000922892
0.000931924
0.000940658
0.00094909
0.00095722
0.000965049
0.000972576
0.000979804
0.000986736
0.000993375
0.00099973
0.00100581
0.00101163
0.00101722
0.00102259
0.00102777
0.00103276
0.00103758
0.00104225
0.00104679
0.00105121
0.00105552
0.00105974
0.00106389
0.00106799
0.0010721
0.00107626
0.00108061
0.00108527
0.00109005
0.00109496
0.00110001
0.00110509
0.00111023
0.00111536
0.00112045
0.00112544
0.00113046
0.00113531
0.00113907
0.00114431
0.00114687
0.0011511
0.00115619
0.00116144
0.00116558
0.00116855
0.0011717
0.00117617
0.00117807
0.00118084
0.00118339
0.00118575
0.00118734
0.00118837
0.00118879
0.00118856
0.00118765
0.00118599
0.00118355
0.00118031
0.00117625
0.00117137
0.00116568
0.00115921
0.00115197
0.00114396
0.00113522
0.00112574
0.0011156
0.00110485
0.00109357
0.00108175
0.00106943
0.00105662
0.00104201
0.00102605
0.00100929
0.000992082
0.000974635
0.000957067
0.00093946
0.000921883
0.00090438
0.000887044
0.000869932
0.000853016
0.000836763
0.000821078
0.000805369
0.000789744
0.000774369
0.00075934
0.000744537
0.000729881
0.000715494
0.000701428
0.000687621
0.000674102
0.000660885
0.000647958
0.000635313
0.000622931
0.000610804
0.0005989
0.000587238
0.000575712
0.000564459
0.000553084
0.000542062
0.000530439
0.000517948
0.000502071
0.000465361
7.23602e-06
4.9463e-05
0.000108721
0.000161757
0.00020551
0.000240664
0.000268477
0.000290215
0.00030704
0.000319996
0.000330034
0.000338033
0.00034476
0.000350859
0.000356857
0.000363159
0.00037007
0.00037781
0.000386541
0.000396379
0.000407403
0.000419668
0.000433214
0.000448068
0.000464246
0.000481756
0.000500598
0.000520785
0.000542017
0.000564002
0.000586776
0.000610227
0.000634194
0.000658617
0.000683411
0.000708478
0.000733748
0.000758972
0.000784031
0.000808839
0.000833329
0.000857449
0.00088116
0.000904432
0.000927249
0.000949604
0.000971496
0.000992925
0.00101389
0.0010344
0.00105446
0.00107408
0.00109326
0.00111202
0.00113035
0.00114828
0.0011658
0.00118292
0.00119964
0.00121598
0.00123194
0.00124751
0.0012627
0.00127751
0.00129194
0.00130598
0.00131964
0.00133291
0.00134578
0.00135826
0.00137034
0.00138202
0.00139329
0.00140416
0.00141462
0.00142469
0.00143436
0.00144365
0.00145257
0.00146115
0.00146939
0.00147732
0.00148493
0.00149226
0.00149931
0.00150609
0.00151263
0.00151894
0.00152504
0.00153096
0.00153674
0.00154245
0.00154813
0.00155386
0.00155964
0.00156541
0.00157117
0.00157689
0.00158253
0.0015881
0.00159355
0.00159885
0.00160402
0.00160906
0.00161384
0.00161825
0.0016228
0.00162646
0.00163059
0.00163495
0.00163958
0.00164387
0.00164736
0.00164993
0.00165241
0.00165416
0.00165591
0.0016572
0.00165798
0.00165802
0.00165733
0.00165585
0.00165353
0.00165032
0.00164618
0.00164105
0.00163491
0.00162776
0.00161957
0.00161036
0.00160014
0.00158895
0.00157679
0.00156371
0.00154976
0.00153498
0.00151948
0.00150334
0.00148671
0.00146947
0.00145157
0.00143247
0.00141228
0.00139133
0.00136988
0.00134814
0.00132623
0.00130424
0.00128226
0.00126033
0.00123855
0.00121699
0.00119565
0.00117475
0.00115434
0.00113423
0.00111484
0.00109593
0.00107759
0.00105952
0.00104152
0.0010239
0.00100673
0.000989825
0.000973265
0.000957077
0.000941218
0.000925666
0.000910386
0.000895363
0.000880565
0.000865993
0.00085156
0.000837343
0.000823045
0.00080893
0.000794387
0.000778913
0.000764107
0.000725631
7.97797e-06
6.05757e-05
0.000131332
0.000194305
0.000246599
0.00028912
0.000323261
0.000350469
0.000372045
0.000389159
0.000402876
0.000414166
0.000423903
0.000432852
0.000441662
0.000450858
0.000460842
0.00047191
0.000484266
0.000498044
0.000513324
0.000530148
0.000548529
0.00056846
0.000589908
0.000612824
0.000637128
0.00066271
0.000689397
0.000717023
0.00074548
0.00077465
0.000804428
0.000834629
0.000865094
0.000895681
0.000926246
0.000956666
0.000986874
0.0010168
0.00104638
0.00107556
0.0011043
0.00113258
0.00116037
0.00118765
0.00121442
0.00124068
0.00126641
0.00129164
0.00131635
0.00134056
0.00136427
0.0013875
0.00141024
0.0014325
0.0014543
0.00147564
0.00149652
0.00151695
0.00153693
0.00155647
0.00157556
0.00159421
0.0016124
0.00163015
0.00164745
0.00166428
0.00168065
0.00169655
0.00171198
0.00172692
0.00174137
0.00175534
0.0017688
0.00178177
0.00179425
0.00180624
0.00181775
0.0018288
0.00183939
0.00184954
0.00185925
0.00186853
0.0018774
0.00188587
0.00189395
0.00190165
0.00190901
0.00191604
0.0019228
0.00192933
0.00193567
0.00194185
0.00194787
0.00195372
0.00195939
0.00196485
0.00197011
0.00197516
0.00198001
0.00198467
0.00198912
0.00199334
0.00199731
0.00200102
0.0020045
0.00200757
0.00201056
0.00201386
0.00201749
0.00202044
0.00202207
0.00202305
0.00202397
0.00202437
0.00202438
0.00202384
0.00202268
0.00202078
0.00201807
0.00201452
0.00201006
0.00200464
0.00199821
0.00199073
0.00198216
0.00197249
0.00196171
0.00194981
0.00193682
0.00192276
0.00190765
0.00189155
0.00187451
0.00185661
0.00183793
0.00181858
0.00179878
0.00177823
0.00175701
0.00173493
0.00171202
0.00168848
0.00166448
0.0016402
0.00161573
0.00159118
0.00156662
0.0015421
0.00151771
0.00149351
0.00146954
0.00144591
0.00142268
0.0013998
0.00137746
0.00135562
0.00133463
0.00131434
0.00129463
0.00127552
0.00125705
0.0012387
0.00122075
0.00120324
0.00118608
0.00116922
0.00115259
0.00113619
0.00111999
0.00110396
0.00108806
0.00107231
0.00105653
0.00104081
0.00102484
0.00100793
0.000993136
0.000955435
8.55416e-06
7.05389e-05
0.000151836
0.000223674
0.000283393
0.000332307
0.000371953
0.000403987
0.000429861
0.000450862
0.000468141
0.00048274
0.0004956
0.00050755
0.000519304
0.00053145
0.000544451
0.000558651
0.000574289
0.000591517
0.000610421
0.000631034
0.000653347
0.000677322
0.000702894
0.000729973
0.000758447
0.00078818
0.000819021
0.000850817
0.000883425
0.000916701
0.000950503
0.000984675
0.00101907
0.00105356
0.00108801
0.00112232
0.00115642
0.00119021
0.00122366
0.00125669
0.00128929
0.0013214
0.00135301
0.0013841
0.00141466
0.00144468
0.00147416
0.0015031
0.00153149
0.00155936
0.00158669
0.0016135
0.00163979
0.00166558
0.00169086
0.00171565
0.00173994
0.00176374
0.00178706
0.0018099
0.00183225
0.00185411
0.00187548
0.00189635
0.00191672
0.00193659
0.00195593
0.00197475
0.00199304
0.00201077
0.00202795
0.00204456
0.00206059
0.00207603
0.00209089
0.00210516
0.00211884
0.00213194
0.00214447
0.00215641
0.00216779
0.0021786
0.00218886
0.00219856
0.00220773
0.00221638
0.00222452
0.00223219
0.00223942
0.00224623
0.00225267
0.00225875
0.00226449
0.00226987
0.0022749
0.00227956
0.00228386
0.00228782
0.00229146
0.00229477
0.00229778
0.00230046
0.00230282
0.00230489
0.0023066
0.00230797
0.00230967
0.00231109
0.00231193
0.0023122
0.00231178
0.00231088
0.00230961
0.00230787
0.00230565
0.00230286
0.00229943
0.00229529
0.00229038
0.00228465
0.00227804
0.0022705
0.00226198
0.00225242
0.00224181
0.00223011
0.00221732
0.00220342
0.00218843
0.00217237
0.00215528
0.00213719
0.00211818
0.00209833
0.00207772
0.00205644
0.0020346
0.00201218
0.00198918
0.00196556
0.00194133
0.0019166
0.0018915
0.00186613
0.00184059
0.00181496
0.00178929
0.00176365
0.00173811
0.0017127
0.00168749
0.00166255
0.00163792
0.00161363
0.00158975
0.00156632
0.00154349
0.0015213
0.00150011
0.00147982
0.00146043
0.00144169
0.00142357
0.00140598
0.00138854
0.00137137
0.00135436
0.00133752
0.00132081
0.00130424
0.00128775
0.00127135
0.00125493
0.00123853
0.001222
0.00120475
0.00118949
0.00115586
9.00682e-06
7.97518e-05
0.000170374
0.000250056
0.000316393
0.000371085
0.000415779
0.00045231
0.000482263
0.00050702
0.000527804
0.000545706
0.000561705
0.000576663
0.000591327
0.000606319
0.000622135
0.000639151
0.000657634
0.000677755
0.000699606
0.00072322
0.000748578
0.000775625
0.000804279
0.000834429
0.00086595
0.0008987
0.000932529
0.000967283
0.00100281
0.00103897
0.00107561
0.00111259
0.00114978
0.00118704
0.00122428
0.0012614
0.0012983
0.00133493
0.00137121
0.00140711
0.00144257
0.00147757
0.00151207
0.00154607
0.00157953
0.00161247
0.00164486
0.00167671
0.00170801
0.00173878
0.00176901
0.00179871
0.00182789
0.00185655
0.00188469
0.00191232
0.00193945
0.00196608
0.00199221
0.00201783
0.00204295
0.00206755
0.00209165
0.00211522
0.00213825
0.00216075
0.00218269
0.00220405
0.00222484
0.00224502
0.00226458
0.0022835
0.00230178
0.00231938
0.00233631
0.00235255
0.0023681
0.00238295
0.00239709
0.00241053
0.00242326
0.00243528
0.00244659
0.0024572
0.00246711
0.00247635
0.00248491
0.00249282
0.00250012
0.00250681
0.00251293
0.0025185
0.00252353
0.00252802
0.00253199
0.00253543
0.00253836
0.0025408
0.00254277
0.00254427
0.00254533
0.00254595
0.00254613
0.00254601
0.00254546
0.00254475
0.00254395
0.00254248
0.00254057
0.00253811
0.00253513
0.00253169
0.00252783
0.00252352
0.00251873
0.00251341
0.00250751
0.00250098
0.00249377
0.00248582
0.00247709
0.00246753
0.00245707
0.00244569
0.00243334
0.00242
0.00240563
0.00239025
0.00237384
0.00235642
0.00233803
0.00231872
0.00229856
0.00227762
0.00225599
0.00223376
0.002211
0.00218776
0.00216405
0.00213988
0.00211527
0.0020903
0.00206502
0.00203954
0.0020139
0.00198816
0.00196238
0.00193661
0.0019109
0.00188528
0.00185982
0.00183456
0.00180955
0.00178481
0.00176041
0.00173638
0.00171282
0.00168978
0.00166746
0.00164621
0.00162619
0.00160719
0.00158905
0.00157159
0.00155458
0.00153796
0.00152135
0.00150483
0.00148834
0.00147189
0.00145545
0.00143903
0.00142256
0.00140608
0.00138952
0.0013725
0.00135692
0.00132758
9.38021e-06
8.79154e-05
0.00018654
0.000273121
0.000345433
0.000405454
0.000454897
0.000495726
0.00052963
0.000558065
0.000582307
0.000603482
0.000622586
0.000640496
0.00065797
0.000675644
0.000694032
0.000713529
0.000734422
0.0007569
0.000781067
0.000806961
0.000834567
0.000863826
0.000894651
0.000926927
0.000960527
0.000995309
0.00103113
0.00106783
0.00110527
0.00114331
0.00118181
0.00122063
0.00125966
0.00129878
0.00133789
0.0013769
0.00141573
0.00145431
0.00149258
0.00153049
0.001568
0.00160508
0.00164169
0.00167782
0.00171346
0.00174858
0.00178319
0.00181727
0.00185083
0.00188386
0.00191638
0.00194838
0.00197988
0.00201086
0.00204135
0.00207133
0.00210082
0.00212982
0.00215831
0.00218631
0.00221381
0.00224079
0.00226725
0.00229318
0.00231857
0.0023434
0.00236764
0.00239129
0.00241431
0.0024367
0.00245841
0.00247943
0.00249974
0.00251931
0.00253812
0.00255614
0.00257337
0.00258979
0.00260538
0.00262013
0.00263404
0.00264709
0.00265928
0.00267061
0.00268108
0.0026907
0.00269948
0.00270743
0.00271457
0.00272092
0.0027265
0.00273132
0.00273542
0.0027388
0.00274146
0.00274344
0.00274475
0.00274541
0.00274543
0.00274484
0.00274366
0.00274192
0.00273946
0.00273667
0.0027337
0.00273048
0.0027266
0.00272217
0.00271724
0.00271181
0.00270591
0.00269958
0.00269284
0.00268569
0.00267812
0.0026701
0.00266159
0.00265257
0.00264299
0.00263281
0.00262199
0.00261047
0.00259822
0.00258519
0.00257133
0.00255661
0.002541
0.0025245
0.0025071
0.0024888
0.00246964
0.00244966
0.00242894
0.00240755
0.00238558
0.0023631
0.00234018
0.00231688
0.00229323
0.00226926
0.00224499
0.00222047
0.00219573
0.00217083
0.00214581
0.00212071
0.00209555
0.00207038
0.00204523
0.00202014
0.00199516
0.00197032
0.00194566
0.00192122
0.00189704
0.00187316
0.00184964
0.00182655
0.00180401
0.00178226
0.0017619
0.00174286
0.00172487
0.0017077
0.00169113
0.00167505
0.00165922
0.00164356
0.00162777
0.0016119
0.00159595
0.0015799
0.00156376
0.00154758
0.00153135
0.00151486
0.00149931
0.00147382
9.96269e-06
9.40484e-05
0.00019926
0.000292081
0.000369971
0.000435048
0.000489044
0.000534028
0.000571775
0.000603807
0.00063144
0.000655821
0.000677956
0.000698721
0.000718873
0.000739046
0.00075976
0.000781422
0.000804329
0.000828687
0.000854616
0.000882165
0.000911329
0.00094206
0.000974274
0.00100786
0.00104271
0.00107867
0.00111562
0.00115341
0.00119191
0.00123097
0.00127048
0.00131032
0.00135037
0.00139053
0.0014307
0.00147081
0.00151078
0.00155054
0.00159004
0.00162922
0.00166805
0.0017065
0.00174452
0.00178211
0.00181924
0.0018559
0.00189208
0.00192778
0.001963
0.00199773
0.00203198
0.00206575
0.00209904
0.00213186
0.00216422
0.00219611
0.00222754
0.0022585
0.002289
0.00231902
0.00234856
0.00237761
0.00240616
0.00243419
0.00246168
0.00248861
0.00251496
0.0025407
0.00256581
0.00259024
0.00261397
0.00263698
0.00265921
0.00268064
0.00270124
0.00272098
0.00273983
0.00275776
0.00277475
0.00279078
0.00280582
0.00281987
0.0028329
0.00284492
0.00285591
0.00286587
0.00287481
0.00288274
0.00288967
0.00289562
0.0029006
0.00290462
0.00290772
0.00290991
0.00291121
0.00291164
0.00291123
0.00291001
0.00290798
0.00290517
0.00290147
0.00289708
0.00289214
0.00288684
0.00288114
0.00287475
0.00286776
0.00286019
0.0028521
0.00284353
0.00283451
0.00282508
0.00281529
0.00280514
0.00279464
0.00278379
0.00277258
0.00276099
0.002749
0.00273657
0.00272367
0.00271025
0.00269628
0.00268172
0.00266651
0.00265062
0.00263401
0.00261667
0.00259858
0.00257975
0.0025602
0.00253996
0.00251912
0.00249776
0.00247594
0.00245374
0.00243121
0.00240842
0.00238541
0.0023622
0.00233882
0.00231528
0.00229162
0.00226787
0.00224403
0.00222012
0.00219614
0.00217214
0.00214812
0.00212413
0.00210019
0.00207634
0.00205261
0.00202903
0.00200563
0.00198246
0.00195956
0.00193701
0.0019149
0.00189341
0.00187312
0.00185436
0.00183674
0.00182
0.00180394
0.00178843
0.00177327
0.00175838
0.00174354
0.00172861
0.00171344
0.00169804
0.00168246
0.0016668
0.0016511
0.00163531
0.00162003
0.0015976
1.04875e-05
9.69227e-05
0.000207637
0.000306345
0.000389563
0.000459495
0.000517872
0.00056686
0.000608314
0.000643817
0.000674722
0.000702192
0.000727231
0.000750711
0.000773374
0.000795847
0.000818646
0.000842177
0.000866747
0.000892572
0.000919786
0.000948457
0.000978594
0.00101016
0.0010431
0.0010773
0.00111267
0.00114908
0.00118641
0.00122452
0.00126331
0.00130264
0.0013424
0.00138249
0.00142281
0.00146326
0.00150376
0.00154425
0.00158463
0.00162486
0.00166488
0.00170464
0.00174411
0.00178323
0.001822
0.00186039
0.00189837
0.00193595
0.0019731
0.00200983
0.00204612
0.00208199
0.00211743
0.00215245
0.00218705
0.00222124
0.00225502
0.0022884
0.00232136
0.00235392
0.00238607
0.00241779
0.00244909
0.00247994
0.00251033
0.00254025
0.00256966
0.00259853
0.00262685
0.00265457
0.00268166
0.00270808
0.00273379
0.00275874
0.00278289
0.00280619
0.00282861
0.0028501
0.00287062
0.00289013
0.00290859
0.00292597
0.00294224
0.00295737
0.00297135
0.00298414
0.00299575
0.00300615
0.00301536
0.00302336
0.00303017
0.00303579
0.00304025
0.00304355
0.00304573
0.0030468
0.00304679
0.00304573
0.00304365
0.00304059
0.00303646
0.00303136
0.00302531
0.00301852
0.00301111
0.0030031
0.00299433
0.00298486
0.00297472
0.00296397
0.00295266
0.00294086
0.00292862
0.002916
0.00290305
0.0028898
0.00287629
0.00286254
0.00284855
0.00283433
0.00281988
0.00280519
0.00279021
0.00277491
0.00275928
0.00274327
0.00272683
0.0027099
0.00269246
0.00267448
0.00265596
0.00263686
0.0026172
0.002597
0.00257636
0.00255537
0.00253408
0.00251255
0.00249083
0.00246898
0.00244703
0.00242501
0.00240294
0.00238083
0.00235868
0.00233651
0.0023143
0.00229204
0.0022697
0.00224731
0.00222489
0.00220245
0.00218001
0.0021576
0.00213524
0.00211298
0.00209082
0.00206881
0.00204699
0.00202545
0.00200426
0.00198359
0.00196398
0.00194585
0.00192884
0.0019127
0.00189724
0.00188234
0.00186784
0.00185364
0.00183961
0.00182561
0.00181142
0.0017968
0.00178192
0.00176691
0.00175187
0.00173683
0.00172204
0.0017021
1.09248e-05
9.84089e-05
0.000213088
0.000316607
0.000404454
0.000478711
0.000541178
0.000593902
0.00063883
0.000677592
0.000711567
0.000741929
0.000769678
0.000795669
0.000820631
0.000845174
0.000869801
0.000894913
0.000920818
0.00094774
0.000975825
0.00100516
0.00103576
0.00106762
0.0011007
0.0011349
0.00117016
0.00120635
0.00124337
0.00128112
0.00131949
0.00135837
0.00139766
0.00143729
0.00147716
0.00151719
0.00155732
0.00159747
0.00163757
0.00167758
0.00171743
0.00175709
0.0017965
0.00183564
0.00187449
0.00191302
0.00195122
0.00198907
0.00202657
0.00206372
0.00210051
0.00213695
0.00217303
0.00220878
0.00224419
0.00227927
0.00231403
0.00234848
0.00238259
0.00241639
0.00244986
0.00248299
0.00251577
0.00254819
0.00258022
0.00261185
0.00264304
0.00267375
0.00270396
0.00273361
0.00276267
0.00279108
0.00281879
0.00284575
0.0028719
0.00289719
0.00292155
0.00294493
0.00296728
0.00298854
0.00300866
0.00302759
0.0030453
0.00306174
0.00307687
0.00309067
0.00310312
0.00311419
0.00312388
0.00313218
0.00313908
0.0031446
0.00314875
0.00315154
0.00315299
0.00315313
0.00315199
0.00314961
0.00314603
0.0031412
0.00313519
0.00312806
0.00311986
0.00311079
0.00310086
0.00309006
0.00307841
0.00306595
0.00305274
0.00303885
0.00302436
0.00300934
0.00299387
0.00297803
0.00296188
0.0029455
0.00292894
0.00291224
0.00289544
0.00287856
0.00286163
0.00284465
0.0028276
0.00281043
0.00279315
0.00277575
0.0027582
0.00274034
0.00272219
0.00270373
0.00268495
0.00266579
0.00264624
0.00262628
0.00260608
0.00258571
0.00256523
0.00254466
0.00252406
0.00250347
0.00248292
0.00246243
0.00244202
0.00242168
0.00240139
0.00238115
0.00236095
0.00234073
0.00232038
0.0023
0.00227955
0.00225904
0.00223849
0.0022179
0.0021973
0.00217673
0.00215619
0.00213572
0.00211536
0.0020952
0.00207534
0.00205595
0.00203757
0.00202044
0.00200427
0.00198888
0.00197413
0.0019599
0.00194606
0.00193253
0.00191921
0.00190599
0.00189271
0.00187894
0.00186479
0.00185049
0.00183616
0.0018219
0.00180773
0.00178987
1.12821e-05
9.88993e-05
0.000216173
0.000323349
0.000415034
0.000492921
0.00055888
0.000614889
0.000662911
0.000704592
0.000741323
0.000774277
0.000804443
0.000832659
0.000859633
0.000885955
0.00091211
0.000938488
0.000965393
0.000993049
0.00102161
0.00105118
0.00108179
0.00111345
0.00114614
0.00117978
0.00121433
0.00124969
0.00128577
0.00132248
0.00135974
0.00139748
0.00143561
0.00147406