/*--------------------------------*- C++ -*----------------------------------*\
| =========                 |                                                 |
| \\      /  F ield         | OpenFOAM: The Open Source CFD Toolbox           |
|  \\    /   O peration     | Version:  2312                                  |
|   \\  /    A nd           | Website:  www.openfoam.com                      |
|    \\/     M anipulation  |                                                 |
\*---------------------------------------------------------------------------*/
FoamFile
{
    version     2.0;
    format      ascii;
    arch        "LSB;label=32;scalar=64";
    class       surfaceScalarField;
    location    "100";
    object      phi;
}
// * * * * * * * * * * * * * * * * * * * * * * * * * * * * * * * * * * * * * //

dimensions      [0 3 -1 0 0 0 0];

oriented        oriented;

internalField   nonuniform List<scalar> 
24170
(
2.95999e-07
2.28416e-08
2.55593e-07
4.04057e-08
2.24747e-07
3.08455e-08
1.99882e-07
2.48644e-08
1.82472e-07
1.74098e-08
1.71054e-07
1.14168e-08
1.63273e-07
7.78122e-09
1.5751e-07
5.76261e-09
1.52965e-07
4.54483e-09
1.49283e-07
3.6809e-09
1.46301e-07
2.98241e-09
1.43938e-07
2.36208e-09
1.42176e-07
1.76188e-09
1.41057e-07
1.11856e-09
1.4069e-07
3.6602e-10
1.41372e-07
-6.83157e-10
1.43495e-07
-2.12411e-09
-9.10986e-09
1.52604e-07
3.52299e-07
1.2267e-08
3.41653e-07
5.10511e-08
3.25083e-07
4.74147e-08
3.09626e-07
4.03205e-08
2.95899e-07
3.11359e-08
2.84633e-07
2.26821e-08
2.75753e-07
1.66604e-08
2.68776e-07
1.2739e-08
2.6323e-07
1.00899e-08
2.58772e-07
8.13787e-09
2.5518e-07
6.57334e-09
2.52326e-07
5.21535e-09
2.50153e-07
3.93311e-09
2.48669e-07
2.60144e-09
2.47976e-07
1.05854e-09
2.48292e-07
-1.00068e-09
2.50357e-07
-4.19157e-09
-1.13383e-08
2.52584e-07
3.66868e-07
1.16511e-08
3.70233e-07
4.7685e-08
3.66904e-07
5.07445e-08
3.61014e-07
4.62102e-08
3.53647e-07
3.85024e-08
3.46109e-07
3.02201e-08
3.39294e-07
2.34759e-08
3.33497e-07
1.85356e-08
3.28695e-07
1.48919e-08
3.24762e-07
1.20705e-08
3.21575e-07
9.7608e-09
3.19043e-07
7.74679e-09
3.1712e-07
5.85608e-09
3.15796e-07
3.92486e-09
3.15113e-07
1.74178e-09
3.1514e-07
-1.02842e-09
3.15887e-07
-4.93848e-09
-1.12189e-08
3.15768e-07
3.92619e-07
1.15707e-08
3.97393e-07
4.29106e-08
3.98526e-07
4.96111e-08
3.97035e-07
4.77002e-08
3.9357e-07
4.19676e-08
3.89048e-07
3.47407e-08
3.84359e-07
2.81652e-08
3.80013e-07
2.28807e-08
3.76213e-07
1.86915e-08
3.72995e-07
1.52873e-08
3.70337e-07
1.24183e-08
3.68204e-07
9.87975e-09
3.66568e-07
7.49122e-09
3.65415e-07
5.07716e-09
3.64734e-07
2.42205e-09
3.64471e-07
-7.65576e-10
3.64378e-07
-4.84622e-09
-1.03037e-08
3.63462e-07
4.2139e-07
1.08939e-08
4.25882e-07
3.84184e-08
4.28636e-07
4.68569e-08
4.29383e-07
4.69529e-08
4.28343e-07
4.30085e-08
4.26026e-07
3.70575e-08
4.23114e-07
3.10771e-08
4.20119e-07
2.58761e-08
4.17322e-07
2.14882e-08
4.14852e-07
1.7758e-08
4.12754e-07
1.45158e-08
4.1104e-07
1.15936e-08
4.09705e-07
8.82706e-09
4.0873e-07
6.05147e-09
4.08075e-07
3.07728e-09
4.07625e-07
-3.15337e-10
4.07099e-07
-4.32e-09
-9.05949e-09
4.05855e-07
4.51787e-07
1.00156e-08
4.55982e-07
3.42231e-08
4.59456e-07
4.33821e-08
4.61493e-07
4.49152e-08
4.62048e-07
4.24537e-08
4.61354e-07
3.77511e-08
4.59889e-07
3.25414e-08
4.5809e-07
2.76745e-08
4.56245e-07
2.33333e-08
4.54517e-07
1.94852e-08
4.52995e-07
1.60375e-08
4.5172e-07
1.28687e-08
4.50701e-07
9.84504e-09
4.49925e-07
6.82797e-09
4.49333e-07
3.66882e-09
4.48796e-07
2.21068e-10
4.48066e-07
-3.58984e-09
-7.71811e-09
4.46724e-07
4.84148e-07
9.13908e-09
4.88096e-07
3.02761e-08
4.91896e-07
3.9582e-08
4.94705e-07
4.21061e-08
4.96336e-07
4.08232e-08
4.96847e-07
3.72395e-08
4.96552e-07
3.28368e-08
4.95792e-07
2.84344e-08
4.94824e-07
2.43017e-08
4.93816e-07
2.04939e-08
4.92871e-07
1.69824e-08
4.92047e-07
1.36926e-08
4.91365e-07
1.05273e-08
4.9081e-07
7.3822e-09
4.90326e-07
4.15356e-09
4.89789e-07
7.58233e-10
4.89002e-07
-2.80294e-09
-6.41947e-09
4.87704e-07
5.18814e-07
8.28286e-09
5.22503e-07
2.6587e-08
5.26412e-07
3.56724e-08
5.29682e-07
3.88361e-08
5.32047e-07
3.84579e-08
5.33459e-07
3.58275e-08
5.34103e-07
3.21925e-08
5.34231e-07
2.8306e-08
5.34053e-07
2.44792e-08
5.33722e-07
2.08247e-08
5.33341e-07
1.73631e-08
5.32972e-07
1.40615e-08
5.3264e-07
1.08594e-08
5.32333e-07
7.68865e-09
5.31999e-07
4.48741e-09
5.31535e-07
1.22178e-09
5.30799e-07
-2.06598e-09
-5.25593e-09
5.29635e-07
5.55985e-07
7.43111e-09
5.59404e-07
2.31685e-08
5.63297e-07
3.17796e-08
5.66833e-07
3.53004e-08
5.69701e-07
3.55902e-08
5.71785e-07
3.37433e-08
5.73178e-07
3.07991e-08
5.74054e-07
2.74301e-08
5.74574e-07
2.39593e-08
5.74866e-07
2.05334e-08
5.75021e-07
1.72082e-08
5.75097e-07
1.39849e-08
5.7512e-07
1.08364e-08
5.75081e-07
7.72766e-09
5.74937e-07
4.63205e-09
5.74608e-07
1.55015e-09
5.74001e-07
-1.45835e-09
-4.28595e-09
5.73032e-07
5.95828e-07
6.58067e-09
5.98982e-07
2.00139e-08
6.02786e-07
2.79756e-08
6.06461e-07
3.16246e-08
6.09671e-07
3.23808e-08
6.12256e-07
3.11574e-08
6.14244e-07
2.88115e-08
6.15741e-07
2.59321e-08
6.16866e-07
2.28347e-08
6.17716e-07
1.96831e-08
6.18367e-07
1.65563e-08
6.1887e-07
1.34822e-08
6.19245e-07
1.04612e-08
6.19487e-07
7.48574e-09
6.19562e-07
4.55602e-09
6.19418e-07
1.69419e-09
6.18997e-07
-1.03686e-09
-3.55146e-09
6.18262e-07
6.38525e-07
5.73687e-09
6.41427e-07
1.71122e-08
6.45101e-07
2.43018e-08
6.4883e-07
2.7895e-08
6.52265e-07
2.89462e-08
6.55222e-07
2.82005e-08
6.57676e-07
2.63573e-08
6.59685e-07
2.39234e-08
6.61324e-07
2.11953e-08
6.62666e-07
1.83413e-08
6.63767e-07
1.54548e-08
6.64667e-07
1.25824e-08
6.65382e-07
9.74563e-09
6.6591e-07
6.95792e-09
6.66228e-07
4.23776e-09
6.66303e-07
1.61869e-09
6.66108e-07
-8.41583e-10
-3.07726e-09
6.65634e-07
5.74791e-07
5.02912e-09
5.7705e-07
1.48534e-08
5.80038e-07
2.1313e-08
5.83187e-07
2.47459e-08
5.86197e-07
2.5936e-08
5.88905e-07
2.5493e-08
5.91259e-07
2.40031e-08
5.93276e-07
2.19063e-08
5.94994e-07
1.94766e-08
5.96455e-07
1.68802e-08
5.97694e-07
1.42162e-08
5.98734e-07
1.15424e-08
5.99587e-07
8.89287e-09
6.00251e-07
6.29375e-09
6.00716e-07
3.77318e-09
6.00966e-07
1.3687e-09
6.00993e-07
-8.68242e-10
-2.89008e-09
6.00806e-07
7.00592e-07
4.25246e-09
7.03005e-07
1.2441e-08
7.06274e-07
1.80437e-08
7.09836e-07
2.11835e-08
7.13355e-07
2.24166e-08
7.16631e-07
2.22173e-08
7.1958e-07
2.10536e-08
7.22192e-07
1.92946e-08
7.24484e-07
1.71845e-08
7.26483e-07
1.48806e-08
7.28215e-07
1.2484e-08
7.29699e-07
1.00588e-08
7.30943e-07
7.64904e-09
7.31948e-07
5.28931e-09
7.32707e-07
3.01387e-09
7.33217e-07
8.60264e-10
7.33478e-07
-1.12939e-09
-2.9207e-09
7.33509e-07
8.53919e-07
3.41776e-09
8.56445e-07
9.91511e-09
8.59959e-07
1.45303e-08
8.63911e-07
1.72311e-08
8.67942e-07
1.83859e-08
8.71815e-07
1.83442e-08
8.75411e-07
1.74574e-08
8.78686e-07
1.60192e-08
8.81633e-07
1.42376e-08
8.8426e-07
1.22542e-08
8.86578e-07
1.01651e-08
8.88601e-07
8.03726e-09
8.90331e-07
5.91844e-09
8.91773e-07
3.84801e-09
8.92927e-07
1.8612e-09
8.93795e-07
-7.5125e-12
8.94392e-07
-1.72569e-09
-3.27081e-09
8.94742e-07
1.0408e-06
2.53801e-09
1.0434e-06
7.32133e-09
1.04711e-06
1.082e-08
1.05141e-06
1.29287e-08
1.05593e-06
1.38659e-08
1.0604e-06
1.38709e-08
1.06467e-06
1.31881e-08
1.06866e-06
1.20348e-08
1.07232e-06
1.05755e-08
1.07564e-06
8.92871e-09
1.07863e-06
7.17981e-09
1.08128e-06
5.39055e-09
1.08359e-06
3.60833e-09
1.08556e-06
1.87093e-09
1.08722e-06
2.11253e-10
1.08855e-06
-1.3426e-09
1.08959e-06
-2.76688e-09
-4.0486e-09
1.09037e-06
1.26859e-06
1.62762e-09
1.27122e-06
4.6874e-09
1.27509e-06
6.95414e-09
1.2797e-06
8.31859e-09
1.28468e-06
8.89012e-09
1.28973e-06
8.81453e-09
1.29468e-06
8.24416e-09
1.29939e-06
7.3216e-09
1.3038e-06
6.16276e-09
1.30788e-06
4.85585e-09
1.31159e-06
3.46733e-09
1.31493e-06
2.04819e-09
1.3179e-06
6.3806e-10
1.3205e-06
-7.30928e-10
1.32275e-06
-2.03267e-09
1.32465e-06
-3.2458e-09
1.32624e-06
-4.35509e-09
-5.35389e-09
1.32755e-06
1.54626e-06
6.88562e-10
1.54894e-06
1.99982e-09
1.55297e-06
2.9282e-09
1.55789e-06
3.40344e-09
1.56331e-06
3.46487e-09
1.56895e-06
3.18061e-09
1.57457e-06
2.62453e-09
1.58002e-06
1.86976e-09
1.5852e-06
9.7972e-10
1.59005e-06
5.67024e-12
1.59453e-06
-1.01157e-09
1.59862e-06
-2.03916e-09
1.60231e-06
-3.05056e-09
1.6056e-06
-4.02407e-09
1.60851e-06
-4.9423e-09
1.61105e-06
-5.79192e-09
1.61326e-06
-6.56433e-09
-7.25825e-09
1.61517e-06
1.88476e-06
-3.07596e-10
1.8876e-06
-8.43025e-10
1.89192e-06
-1.38487e-09
1.89726e-06
-1.94322e-09
1.90325e-06
-2.5216e-09
1.90955e-06
-3.12152e-09
1.91592e-06
-3.74121e-09
1.92216e-06
-4.37521e-09
1.92816e-06
-5.01637e-09
1.93382e-06
-5.65673e-09
1.9391e-06
-6.28759e-09
1.94396e-06
-6.89995e-09
1.94839e-06
-7.48494e-09
1.9524e-06
-8.03435e-09
1.956e-06
-8.5411e-09
1.95921e-06
-8.99988e-09
1.96205e-06
-9.4079e-09
-9.76775e-09
1.96456e-06
2.29747e-06
-1.44423e-09
2.30075e-06
-4.1268e-09
2.30576e-06
-6.3895e-09
2.31197e-06
-8.15944e-09
2.31894e-06
-9.48471e-09
2.32626e-06
-1.04503e-08
2.33366e-06
-1.11397e-08
2.34091e-06
-1.16266e-08
2.34787e-06
-1.19727e-08
2.35443e-06
-1.22217e-08
2.36055e-06
-1.24045e-08
2.36619e-06
-1.25397e-08
2.37134e-06
-1.26396e-08
2.37602e-06
-1.27101e-08
2.38023e-06
-1.27552e-08
2.38401e-06
-1.27763e-08
2.38738e-06
-1.27756e-08
-1.27571e-08
2.39037e-06
1.68197e-06
-2.34061e-09
1.68458e-06
-6.74316e-09
1.68855e-06
-1.03578e-08
1.6934e-06
-1.301e-08
1.69873e-06
-1.48177e-08
1.70424e-06
-1.59587e-08
1.7097e-06
-1.65952e-08
1.71494e-06
-1.68765e-08
1.71989e-06
-1.69213e-08
1.72449e-06
-1.68168e-08
1.7287e-06
-1.66199e-08
1.73253e-06
-1.63703e-08
1.73599e-06
-1.60913e-08
1.73907e-06
-1.57989e-08
1.74182e-06
-1.55004e-08
1.74424e-06
-1.52019e-08
1.74638e-06
-1.49051e-08
-1.46156e-08
1.74823e-06
1.4643e-06
-3.17939e-09
1.46691e-06
-9.36077e-09
1.47086e-06
-1.43092e-08
1.47557e-06
-1.77183e-08
1.48061e-06
-1.98561e-08
1.48567e-06
-2.10182e-08
1.49053e-06
-2.1462e-08
1.49508e-06
-2.14237e-08
1.49925e-06
-2.10882e-08
1.50301e-06
-2.05794e-08
1.50637e-06
-1.99793e-08
1.50934e-06
-1.934e-08
1.51194e-06
-1.86948e-08
1.5142e-06
-1.8062e-08
1.51615e-06
-1.74522e-08
1.51782e-06
-1.68697e-08
1.51923e-06
-1.6317e-08
-1.57957e-08
1.52042e-06
1.27474e-06
-3.90248e-09
1.27744e-06
-1.20667e-08
1.2815e-06
-1.83674e-08
1.28616e-06
-2.23839e-08
1.29098e-06
-2.46765e-08
1.29564e-06
-2.56764e-08
1.29993e-06
-2.57536e-08
1.30377e-06
-2.52584e-08
1.30712e-06
-2.44449e-08
1.31001e-06
-2.34717e-08
1.31247e-06
-2.24372e-08
1.31453e-06
-2.14021e-08
1.31624e-06
-2.0402e-08
1.31763e-06
-1.9454e-08
1.31874e-06
-1.85666e-08
1.31962e-06
-1.77402e-08
1.32027e-06
-1.69739e-08
-1.62656e-08
1.32074e-06
1.10959e-06
-4.40266e-09
1.11244e-06
-1.49162e-08
1.11666e-06
-2.25839e-08
1.12129e-06
-2.7014e-08
1.12587e-06
-2.92533e-08
1.13005e-06
-2.98647e-08
1.13366e-06
-2.93663e-08
1.13666e-06
-2.82578e-08
1.13908e-06
-2.68664e-08
1.14099e-06
-2.53747e-08
1.14244e-06
-2.38883e-08
1.1435e-06
-2.24678e-08
1.14424e-06
-2.11417e-08
1.14471e-06
-1.99214e-08
1.14495e-06
-1.88054e-08
1.145e-06
-1.77897e-08
1.14489e-06
-1.68645e-08
-1.60243e-08
1.14464e-06
9.65702e-07
-4.58341e-09
9.68741e-07
-1.7955e-08
9.73105e-07
-2.69482e-08
9.77631e-07
-3.15398e-08
9.81845e-07
-3.34675e-08
9.85382e-07
-3.34014e-08
9.88096e-07
-3.20812e-08
9.90038e-07
-3.01999e-08
9.9132e-07
-2.81491e-08
9.92061e-07
-2.61161e-08
9.9237e-07
-2.41971e-08
9.92339e-07
-2.24377e-08
9.92046e-07
-2.08498e-08
9.91552e-07
-1.94277e-08
9.90905e-07
-1.81585e-08
9.90141e-07
-1.70257e-08
9.89289e-07
-1.60128e-08
-1.51067e-08
9.88371e-07
8.40219e-07
-4.2668e-09
8.43594e-07
-2.13303e-08
8.48058e-07
-3.14123e-08
8.52313e-07
-3.5795e-08
8.55908e-07
-3.70624e-08
8.58459e-07
-3.59527e-08
8.59925e-07
-3.35472e-08
8.60491e-07
-3.07657e-08
8.60373e-07
-2.80314e-08
8.59757e-07
-2.55002e-08
8.58792e-07
-2.32323e-08
8.57592e-07
-2.12374e-08
8.56238e-07
-1.94966e-08
8.5479e-07
-1.79799e-08
8.53288e-07
-1.66568e-08
8.51761e-07
-1.54988e-08
8.50228e-07
-1.4481e-08
-1.35832e-08
8.48705e-07
7.30261e-07
-2.79949e-09
7.34478e-07
-2.55468e-08
7.39002e-07
-3.59366e-08
7.42673e-07
-3.94661e-08
7.45166e-07
-3.95555e-08
7.46175e-07
-3.69614e-08
7.45878e-07
-3.32506e-08
7.44656e-07
-2.95434e-08
7.42843e-07
-2.62183e-08
7.40686e-07
-2.33427e-08
7.38354e-07
-2.09001e-08
7.35958e-07
-1.88424e-08
7.33567e-07
-1.71059e-08
7.3122e-07
-1.56328e-08
7.28938e-07
-1.43752e-08
7.26733e-07
-1.32933e-08
7.24609e-07
-1.23579e-08
-1.1544e-08
7.22569e-07
6.33366e-07
8.41167e-10
6.39154e-07
-3.13348e-08
6.43404e-07
-4.01863e-08
6.45845e-07
-4.19073e-08
6.46356e-07
-4.00668e-08
6.4493e-07
-3.55352e-08
6.42147e-07
-3.04675e-08
6.38632e-07
-2.60278e-08
6.3482e-07
-2.24065e-08
6.30975e-07
-1.94969e-08
6.27238e-07
-1.71644e-08
6.23679e-07
-1.52826e-08
6.20319e-07
-1.37465e-08
6.17161e-07
-1.24739e-08
6.14193e-07
-1.14071e-08
6.11402e-07
-1.0502e-08
6.08774e-07
-9.73067e-09
-9.06989e-09
6.06298e-07
5.50627e-07
4.76033e-09
5.5716e-07
-3.78672e-08
5.58677e-07
-4.17033e-08
5.57809e-07
-4.104e-08
5.54395e-07
-3.66526e-08
5.48983e-07
-3.01229e-08
5.42666e-07
-2.41506e-08
5.36251e-07
-1.96123e-08
5.30152e-07
-1.63074e-08
5.24529e-07
-1.38741e-08
5.19406e-07
-1.20413e-08
5.14748e-07
-1.06246e-08
5.10502e-07
-9.4996e-09
5.06612e-07
-8.5836e-09
5.03029e-07
-7.82422e-09
4.99713e-07
-7.18483e-09
4.96629e-07
-6.64814e-09
-6.19639e-09
4.93755e-07
4.94479e-07
-6.9578e-09
4.90783e-07
-3.41711e-08
4.79666e-07
-3.05867e-08
4.68115e-07
-2.94891e-08
4.55666e-07
-2.42033e-08
4.43389e-07
-1.78459e-08
4.32221e-07
-1.29817e-08
4.22472e-07
-9.86269e-09
4.14078e-07
-7.9134e-09
4.06833e-07
-6.63009e-09
4.00515e-07
-5.72364e-09
3.94934e-07
-5.04292e-09
3.89943e-07
-4.50763e-09
3.85431e-07
-4.07168e-09
3.81317e-07
-3.70869e-09
3.77535e-07
-3.40292e-09
3.74036e-07
-3.14952e-09
-2.94676e-09
3.70785e-07
4.1331e-07
3.79139e-07
3.48552e-07
3.19063e-07
2.9486e-07
2.77014e-07
2.64032e-07
2.54169e-07
2.46256e-07
2.39626e-07
2.33902e-07
2.28859e-07
2.24352e-07
2.2028e-07
2.16572e-07
2.13169e-07
2.10019e-07
2.07072e-07
4.44384e-09
-4.44174e-09
1.0452e-08
-6.0067e-09
1.52554e-08
-4.79961e-09
1.78549e-08
-2.59893e-09
1.80808e-08
-2.21988e-10
1.61745e-08
1.90625e-09
1.25854e-08
3.59365e-09
7.73517e-09
4.84914e-09
1.96418e-09
5.77582e-09
-4.56082e-09
6.52239e-09
-1.17785e-08
7.22198e-09
-1.97231e-08
7.94044e-09
-2.84439e-08
8.72459e-09
-3.80321e-08
9.5829e-09
-4.85139e-08
1.04858e-08
-5.99094e-08
1.13895e-08
-7.21543e-08
1.22502e-08
-8.51919e-08
1.30308e-08
-9.88865e-08
1.36994e-08
-1.13126e-07
1.42315e-08
-1.27734e-07
1.46128e-08
-1.42584e-07
1.48389e-08
-1.57494e-07
1.49135e-08
-1.72353e-07
1.48471e-08
-1.87003e-07
1.46519e-08
-2.01357e-07
1.43413e-08
-2.15286e-07
1.39318e-08
-2.28737e-07
1.34388e-08
-2.41612e-07
1.28784e-08
-2.53889e-07
1.22645e-08
-2.65492e-07
1.16098e-08
-2.76425e-07
1.09232e-08
-2.86631e-07
1.02132e-08
-2.96124e-07
9.48526e-09
-3.04857e-07
8.74427e-09
-3.12854e-07
7.99226e-09
-3.20073e-07
7.23183e-09
-3.26541e-07
6.46256e-09
-3.32214e-07
5.68474e-09
-3.37115e-07
4.89533e-09
-3.41197e-07
4.09248e-09
-3.44474e-07
3.27147e-09
-3.46894e-07
2.43112e-09
-3.4847e-07
1.57122e-09
-3.49166e-07
7.0712e-10
-3.49042e-07
-1.26977e-10
-3.48126e-07
-9.04758e-10
-3.46488e-07
-1.6394e-09
-3.44127e-07
-2.34916e-09
-3.41083e-07
-3.04528e-09
-3.37342e-07
-3.72971e-09
-3.32937e-07
-4.40439e-09
-3.27861e-07
-5.06604e-09
-3.22144e-07
-5.71365e-09
-3.15789e-07
-6.34362e-09
-3.08827e-07
-6.95321e-09
-3.01267e-07
-7.54595e-09
-2.93147e-07
-8.10766e-09
-2.84496e-07
-8.63627e-09
-2.75341e-07
-9.13959e-09
-2.6572e-07
-9.60591e-09
-2.55663e-07
-1.00395e-08
-2.45215e-07
-1.04354e-08
-2.34405e-07
-1.07924e-08
-2.23286e-07
-1.11084e-08
-2.11888e-07
-1.13809e-08
-2.00267e-07
-1.16129e-08
-1.88446e-07
-1.18037e-08
-1.76487e-07
-1.19548e-08
-1.64406e-07
-1.20655e-08
-1.52265e-07
-1.21383e-08
-1.40076e-07
-1.21726e-08
-1.27902e-07
-1.21719e-08
-1.15747e-07
-1.21356e-08
-1.03674e-07
-1.20684e-08
-9.16781e-08
-1.19692e-08
-7.98245e-08
-1.18431e-08
-6.81059e-08
-1.169e-08
-5.65831e-08
-1.15155e-08
-4.52381e-08
-1.13185e-08
-3.41292e-08
-1.1104e-08
-2.32359e-08
-1.0871e-08
-1.2617e-08
-1.06214e-08
-2.25465e-09
-1.03451e-08
7.84251e-09
-1.01011e-08
1.77123e-08
-9.85934e-09
2.727e-08
-9.56693e-09
3.65181e-08
-9.25518e-09
4.54333e-08
-8.93732e-09
5.40243e-08
-8.61981e-09
6.23104e-08
-8.30577e-09
7.02969e-08
-7.99581e-09
7.79852e-08
-7.69077e-09
8.53771e-08
-7.39127e-09
9.24782e-08
-7.0986e-09
9.92946e-08
-6.81315e-09
1.05834e-07
-6.53579e-09
1.12106e-07
-6.26648e-09
1.18117e-07
-6.00586e-09
1.23876e-07
-5.7536e-09
1.29393e-07
-5.51035e-09
1.34677e-07
-5.27548e-09
1.39736e-07
-5.04968e-09
1.44579e-07
-4.83182e-09
1.49212e-07
-4.62287e-09
1.53644e-07
-4.42144e-09
1.5788e-07
-4.22861e-09
1.6193e-07
-4.0429e-09
1.658e-07
-3.8652e-09
1.69498e-07
-3.69396e-09
1.7303e-07
-3.53005e-09
1.76404e-07
-3.37193e-09
1.79625e-07
-3.22053e-09
1.827e-07
-3.07434e-09
1.85634e-07
-2.93419e-09
1.88432e-07
-2.79868e-09
1.91099e-07
-2.66859e-09
1.9364e-07
-2.54257e-09
1.96058e-07
-2.42136e-09
1.9836e-07
-2.3039e-09
2.00549e-07
-2.19072e-09
2.0263e-07
-2.08081e-09
2.04606e-07
-1.97473e-09
2.06479e-07
-1.87146e-09
2.08251e-07
-1.77191e-09
2.09926e-07
-1.67501e-09
2.11507e-07
-1.58155e-09
2.12997e-07
-1.49054e-09
2.14397e-07
-1.40279e-09
2.15713e-07
-1.3172e-09
2.16945e-07
-1.23455e-09
2.18097e-07
-1.15384e-09
2.1917e-07
-1.07577e-09
2.20167e-07
-9.99365e-10
2.21089e-07
-9.25498e-10
2.21939e-07
-8.53263e-10
2.22718e-07
-7.83454e-10
2.23429e-07
-7.15373e-10
2.24073e-07
-6.49807e-10
2.24652e-07
-5.86325e-10
2.25171e-07
-5.25583e-10
2.25632e-07
-4.6787e-10
2.2604e-07
-4.1431e-10
2.26398e-07
-3.6279e-10
2.26702e-07
-3.0898e-10
2.26951e-07
-2.53246e-10
2.27144e-07
-1.97139e-10
2.27284e-07
-1.42508e-10
2.27374e-07
-9.34266e-11
2.27413e-07
-4.25079e-11
2.27399e-07
1.06565e-11
2.27331e-07
6.57529e-11
2.27209e-07
1.18655e-10
2.27043e-07
1.63433e-10
2.26838e-07
2.01376e-10
2.26598e-07
2.37776e-10
2.26315e-07
2.79653e-10
2.25989e-07
3.23588e-10
2.25626e-07
3.60233e-10
2.25225e-07
3.97815e-10
2.24777e-07
4.45073e-10
2.24286e-07
4.88824e-10
2.23757e-07
5.26288e-10
2.23185e-07
5.70488e-10
2.22556e-07
6.26147e-10
2.21873e-07
6.81307e-10
2.21124e-07
7.47335e-10
2.20287e-07
8.34597e-10
2.19356e-07
9.29142e-10
2.18307e-07
1.04791e-09
2.17098e-07
1.20749e-09
2.15695e-07
1.4008e-09
2.14036e-07
1.65827e-09
2.1202e-07
2.01448e-09
2.0951e-07
2.50863e-09
2.06272e-07
3.23763e-09
2.01952e-07
4.31915e-09
1.95868e-07
6.08256e-09
1.86924e-07
8.94349e-09
1.45579e-08
1.72365e-07
3.64635e-09
-8.0862e-09
5.52485e-09
-7.88421e-09
4.78947e-09
-4.06138e-09
1.78728e-09
4.03714e-10
-3.07083e-09
4.63877e-09
-9.55968e-09
8.39518e-09
-1.75528e-08
1.15894e-08
-2.69473e-08
1.42432e-08
-3.76308e-08
1.64615e-08
-4.94933e-08
1.83837e-08
-6.2397e-08
2.01274e-08
-7.6219e-08
2.17603e-08
-9.07983e-08
2.33052e-08
-1.05972e-07
2.47538e-08
-1.21561e-07
2.60761e-08
-1.37402e-07
2.72273e-08
-1.53311e-07
2.81614e-08
-1.69126e-07
2.88431e-08
-1.8468e-07
2.92546e-08
-1.99844e-07
2.93918e-08
-2.14493e-07
2.92633e-08
-2.28545e-07
2.88868e-08
-2.41918e-07
2.82872e-08
-2.54571e-07
2.74936e-08
-2.66456e-07
2.65375e-08
-2.7757e-07
2.54491e-08
-2.87894e-07
2.42569e-08
-2.97448e-07
2.29863e-08
-3.06227e-07
2.16592e-08
-3.14262e-07
2.02935e-08
-3.21554e-07
1.89037e-08
-3.28136e-07
1.75004e-08
-3.34012e-07
1.60916e-08
-3.39212e-07
1.4682e-08
-3.43738e-07
1.32747e-08
-3.47617e-07
1.18701e-08
-3.50848e-07
1.04679e-08
-3.53454e-07
9.06659e-09
-3.55429e-07
7.66496e-09
-3.56797e-07
6.26155e-09
-3.57557e-07
4.8568e-09
-3.57739e-07
3.45175e-09
-3.57354e-07
2.05032e-09
-3.56441e-07
6.57593e-10
-3.55009e-07
-7.19502e-10
-3.53053e-07
-2.08279e-09
-3.50513e-07
-3.43901e-09
-3.47361e-07
-4.79023e-09
-3.43571e-07
-6.13326e-09
-3.39148e-07
-7.46616e-09
-3.34087e-07
-8.78535e-09
-3.28402e-07
-1.00874e-08
-3.22096e-07
-1.13669e-08
-3.15186e-07
-1.26191e-08
-3.07685e-07
-1.3838e-08
-2.99614e-07
-1.50181e-08
-2.90999e-07
-1.61539e-08
-2.81861e-07
-1.72375e-08
-2.72226e-07
-1.82634e-08
-2.62128e-07
-1.92276e-08
-2.51601e-07
-2.0125e-08
-2.40678e-07
-2.0953e-08
-2.29397e-07
-2.17084e-08
-2.17792e-07
-2.2388e-08
-2.05905e-07
-2.29888e-08
-1.9377e-07
-2.3507e-08
-1.81433e-07
-2.39441e-08
-1.68928e-07
-2.43017e-08
-1.56297e-07
-2.45811e-08
-1.43573e-07
-2.47832e-08
-1.30797e-07
-2.49108e-08
-1.17998e-07
-2.49655e-08
-1.05215e-07
-2.49511e-08
-9.24733e-08
-2.48702e-08
-7.98087e-08
-2.47274e-08
-6.7242e-08
-2.45258e-08
-5.48067e-08
-2.42709e-08
-4.25204e-08
-2.39661e-08
-3.04119e-08
-2.36174e-08
-1.8492e-08
-2.32289e-08
-6.78232e-09
-2.28087e-08
4.71449e-09
-2.23611e-08
1.59831e-08
-2.18877e-08
2.70285e-08
-2.13855e-08
3.77937e-08
-2.08651e-08
4.82584e-08
-2.03215e-08
5.84417e-08
-1.97519e-08
6.83479e-08
-1.91654e-08
7.79705e-08
-1.85712e-08
8.73125e-08
-1.79757e-08
9.63813e-08
-1.73837e-08
1.05179e-07
-1.67979e-08
1.13708e-07
-1.62198e-08
1.21969e-07
-1.56512e-08
1.29967e-07
-1.50937e-08
1.37705e-07
-1.45489e-08
1.4519e-07
-1.40176e-08
1.52428e-07
-1.3501e-08
1.59426e-07
-1.29993e-08
1.66189e-07
-1.25133e-08
1.72727e-07
-1.20431e-08
1.79046e-07
-1.15887e-08
1.85154e-07
-1.11501e-08
1.91057e-07
-1.07272e-08
1.96762e-07
-1.03197e-08
2.02274e-07
-9.92723e-09
2.07601e-07
-9.54965e-09
2.12749e-07
-9.18633e-09
2.17724e-07
-8.83688e-09
2.22533e-07
-8.50056e-09
2.27182e-07
-8.17699e-09
2.31676e-07
-7.86536e-09
2.36021e-07
-7.56526e-09
2.40223e-07
-7.27591e-09
2.44285e-07
-6.99692e-09
2.48213e-07
-6.72753e-09
2.52011e-07
-6.46736e-09
2.55683e-07
-6.21581e-09
2.59232e-07
-5.97244e-09
2.62662e-07
-5.73663e-09
2.65979e-07
-5.50808e-09
2.69184e-07
-5.2863e-09
2.72282e-07
-5.0711e-09
2.75273e-07
-4.86202e-09
2.78161e-07
-4.65901e-09
2.80947e-07
-4.46157e-09
2.83635e-07
-4.26961e-09
2.86226e-07
-4.08265e-09
2.88723e-07
-3.90068e-09
2.91127e-07
-3.7232e-09
2.93441e-07
-3.55022e-09
2.95666e-07
-3.38132e-09
2.97805e-07
-3.2165e-09
2.99859e-07
-3.05535e-09
3.01829e-07
-2.89804e-09
3.03716e-07
-2.74426e-09
3.05524e-07
-2.59423e-09
3.07252e-07
-2.44787e-09
3.08902e-07
-2.30518e-09
3.10476e-07
-2.16625e-09
3.11975e-07
-2.03167e-09
3.13402e-07
-1.90051e-09
3.14757e-07
-1.7743e-09
3.16038e-07
-1.64763e-09
3.1725e-07
-1.5251e-09
3.18396e-07
-1.40263e-09
3.19475e-07
-1.27988e-09
3.20494e-07
-1.16416e-09
3.21442e-07
-1.04473e-09
3.22328e-07
-9.31227e-10
3.23154e-07
-8.18349e-10
3.23923e-07
-7.05535e-10
3.24636e-07
-5.97497e-10
3.2529e-07
-4.92907e-10
3.25881e-07
-3.91878e-10
3.26408e-07
-2.92134e-10
3.26879e-07
-1.94241e-10
3.27298e-07
-9.80517e-11
3.27655e-07
1.87853e-13
3.2795e-07
1.01037e-10
3.28191e-07
2.0072e-10
3.28376e-07
3.01517e-10
3.28493e-07
4.07314e-10
3.28542e-07
5.19693e-10
3.28528e-07
6.37361e-10
3.28438e-07
7.69717e-10
3.28262e-07
9.21425e-10
3.28002e-07
1.09293e-09
3.27633e-07
1.29639e-09
3.27135e-07
1.54439e-09
3.26493e-07
1.84768e-09
3.25662e-07
2.2302e-09
3.24592e-07
2.72776e-09
3.23215e-07
3.38966e-09
3.21426e-07
4.29739e-09
3.19072e-07
5.59017e-09
3.15873e-07
7.51725e-09
3.11501e-07
1.04546e-08
3.0516e-07
1.52837e-08
2.3147e-08
2.96571e-07
-4.28145e-10
-7.65692e-09
-4.37183e-09
-3.93987e-09
-1.04136e-08
1.98198e-09
-1.77808e-08
7.77095e-09
-2.62012e-08
1.30604e-08
-3.56088e-08
1.78027e-08
-4.60018e-08
2.19833e-08
-5.73808e-08
2.56218e-08
-6.96943e-08
2.87758e-08
-8.28322e-08
3.15206e-08
-9.66253e-08
3.3921e-08
-1.10882e-07
3.60155e-08
-1.25392e-07
3.78156e-08
-1.39953e-07
3.93129e-08
-1.54366e-07
4.04898e-08
-1.68469e-07
4.13282e-08
-1.82124e-07
4.18173e-08
-1.95241e-07
4.19577e-08
-2.07748e-07
4.17624e-08
-2.19612e-07
4.12543e-08
-2.30811e-07
4.04634e-08
-2.41351e-07
3.9424e-08
-2.51235e-07
3.81722e-08
-2.60488e-07
3.67442e-08
-2.69125e-07
3.51748e-08
-2.77174e-07
3.34955e-08
-2.8465e-07
3.17339e-08
-2.9158e-07
2.99132e-08
-2.97972e-07
2.80525e-08
-3.03848e-07
2.61666e-08
-3.0921e-07
2.42667e-08
-3.14073e-07
2.23607e-08
-3.18435e-07
2.04538e-08
-3.22303e-07
1.85486e-08
-3.25673e-07
1.6646e-08
-3.28549e-07
1.47452e-08
-3.30924e-07
1.28447e-08
-3.32801e-07
1.09421e-08
-3.3417e-07
9.03562e-09
-3.35033e-07
7.12377e-09
-3.35381e-07
5.20614e-09
-3.35213e-07
3.28333e-09
-3.34518e-07
1.35694e-09
-3.33289e-07
-5.71206e-10
-3.31505e-07
-2.50103e-09
-3.29152e-07
-4.43525e-09
-3.26213e-07
-6.37493e-09
-3.22684e-07
-8.31737e-09
-3.18557e-07
-1.02576e-08
-3.13831e-07
-1.21897e-08
-3.08506e-07
-1.41068e-08
-3.0259e-07
-1.60015e-08
-2.96088e-07
-1.78656e-08
-2.89014e-07
-1.96904e-08
-2.81381e-07
-2.14671e-08
-2.73209e-07
-2.31865e-08
-2.64519e-07
-2.48395e-08
-2.55336e-07
-2.64167e-08
-2.45684e-07
-2.79098e-08
-2.35596e-07
-2.93108e-08
-2.25103e-07
-3.06131e-08
-2.1424e-07
-3.18113e-08
-2.03042e-07
-3.29014e-08
-1.91545e-07
-3.38802e-08
-1.79785e-07
-3.4744e-08
-1.67799e-07
-3.5489e-08
-1.55625e-07
-3.61142e-08
-1.433e-07
-3.66226e-08
-1.30861e-07
-3.70165e-08
-1.18343e-07
-3.72981e-08
-1.05781e-07
-3.74708e-08
-9.3205e-08
-3.75384e-08
-8.06482e-08
-3.75054e-08
-6.81384e-08
-3.7377e-08
-5.57037e-08
-3.71588e-08
-4.33686e-08
-3.68567e-08
-3.11579e-08
-3.64775e-08
-1.90919e-08
-3.6028e-08
-7.18884e-09
-3.55167e-08
4.53566e-09
-3.49497e-08
1.60624e-08
-3.43324e-08
2.73741e-08
-3.36704e-08
3.84577e-08
-3.29692e-08
4.93075e-08
-3.22334e-08
5.99116e-08
-3.14677e-08
7.0265e-08
-3.06737e-08
8.03682e-08
-2.98549e-08
9.02193e-08
-2.90182e-08
9.98141e-08
-2.81713e-08
1.09153e-07
-2.73213e-08
1.18239e-07
-2.6474e-08
1.27074e-07
-2.56336e-08
1.35658e-07
-2.48031e-08
1.43993e-07
-2.39851e-08
1.52084e-07
-2.31822e-08
1.59934e-07
-2.23963e-08
1.67548e-07
-2.16291e-08
1.74932e-07
-2.0882e-08
1.82091e-07
-2.01558e-08
1.89033e-07
-1.94514e-08
1.95763e-07
-1.87691e-08
2.02287e-07
-1.81091e-08
2.08613e-07
-1.74713e-08
2.14747e-07
-1.68557e-08
2.20694e-07
-1.62617e-08
2.2646e-07
-1.56894e-08
2.32052e-07
-1.51378e-08
2.37475e-07
-1.46067e-08
2.42735e-07
-1.4095e-08
2.47838e-07
-1.36023e-08
2.5279e-07
-1.31276e-08
2.57595e-07
-1.26701e-08
2.62259e-07
-1.22289e-08
2.66786e-07
-1.18032e-08
2.71181e-07
-1.13922e-08
2.75448e-07
-1.0995e-08
2.79591e-07
-1.0611e-08
2.83613e-07
-1.02394e-08
2.87519e-07
-9.87938e-09
2.91311e-07
-9.53034e-09
2.94994e-07
-9.19158e-09
2.98571e-07
-8.86264e-09
3.02043e-07
-8.54298e-09
3.05414e-07
-8.23223e-09
3.08685e-07
-7.92988e-09
3.11859e-07
-7.6355e-09
3.14938e-07
-7.34854e-09
3.17923e-07
-7.06868e-09
3.20817e-07
-6.79553e-09
3.23622e-07
-6.52878e-09
3.26339e-07
-6.2681e-09
3.28969e-07
-6.01326e-09
3.31516e-07
-5.76395e-09
3.33979e-07
-5.52001e-09
3.3636e-07
-5.28124e-09
3.38661e-07
-5.04751e-09
3.40884e-07
-4.81883e-09
3.43028e-07
-4.59518e-09
3.45096e-07
-4.37642e-09
3.47088e-07
-4.1625e-09
3.49006e-07
-3.95369e-09
3.5085e-07
-3.74898e-09
3.52622e-07
-3.54871e-09
3.54321e-07
-3.34971e-09
3.5595e-07
-3.15625e-09
3.57511e-07
-2.96579e-09
3.59006e-07
-2.77718e-09
3.60435e-07
-2.59507e-09
3.61799e-07
-2.41085e-09
3.63098e-07
-2.23214e-09
3.64335e-07
-2.05647e-09
3.65511e-07
-1.88315e-09
3.66627e-07
-1.715e-09
3.67682e-07
-1.54928e-09
3.68674e-07
-1.3861e-09
3.69605e-07
-1.22432e-09
3.70476e-07
-1.06676e-09
3.71288e-07
-9.12069e-10
3.7204e-07
-7.53544e-10
3.72733e-07
-5.9277e-10
3.73366e-07
-4.34528e-10
3.73939e-07
-2.72339e-10
3.74446e-07
-1.00895e-10
3.74885e-07
7.89103e-11
3.75255e-07
2.65958e-10
3.7555e-07
4.74056e-10
3.75763e-07
7.06976e-10
3.75889e-07
9.66193e-10
3.75912e-07
1.27197e-09
3.75818e-07
1.63759e-09
3.75588e-07
2.07722e-09
3.75188e-07
2.62881e-09
3.74578e-07
3.33724e-09
3.73706e-07
4.26052e-09
3.72496e-07
5.50728e-09
3.70846e-07
7.23966e-09
3.68605e-07
9.75679e-09
3.65607e-07
1.34524e-08
3.61705e-07
1.91855e-08
2.7879e-08
3.56972e-07
-4.65611e-09
-3.00006e-09
-1.26818e-08
4.08561e-09
-2.19703e-08
1.12712e-08
-3.19091e-08
1.77094e-08
-4.23497e-08
2.35016e-08
-5.3261e-08
2.87134e-08
-6.46409e-08
3.33637e-08
-7.64804e-08
3.74605e-08
-8.87257e-08
4.10212e-08
-1.01278e-07
4.40718e-08
-1.13996e-07
4.66392e-08
-1.26727e-07
4.87444e-08
-1.39312e-07
5.04012e-08
-1.51618e-07
5.16175e-08
-1.63529e-07
5.24008e-08
-1.74966e-07
5.27635e-08
-1.85874e-07
5.27253e-08
-1.96232e-07
5.23141e-08
-2.06032e-07
5.15632e-08
-2.15289e-07
5.05099e-08
-2.24018e-07
4.91932e-08
-2.32248e-07
4.7652e-08
-2.39998e-07
4.59237e-08
-2.47298e-07
4.4043e-08
-2.54164e-07
4.20415e-08
-2.60617e-07
3.99466e-08
-2.66664e-07
3.77817e-08
-2.72318e-07
3.55661e-08
-2.7758e-07
3.3315e-08
-2.82455e-07
3.10398e-08
-2.86937e-07
2.8749e-08
-2.91026e-07
2.6448e-08
-2.94712e-07
2.414e-08
-2.97991e-07
2.18261e-08
-3.00851e-07
1.9506e-08
-3.03285e-07
1.71781e-08
-3.0528e-07
1.484e-08
-3.06829e-07
1.24894e-08
-3.07916e-07
1.01237e-08
-3.08534e-07
7.74089e-09
-3.08668e-07
5.33986e-09
-3.08305e-07
2.92008e-09
-3.07429e-07
4.81822e-10
-3.06026e-07
-1.97438e-09
-3.04077e-07
-4.44804e-09
-3.01573e-07
-6.93823e-09
-2.98504e-07
-9.44228e-09
-2.94864e-07
-1.19552e-08
-2.9065e-07
-1.447e-08
-2.85859e-07
-1.69782e-08
-2.80494e-07
-1.94702e-08
-2.74558e-07
-2.19354e-08
-2.68059e-07
-2.43622e-08
-2.61008e-07
-2.67387e-08
-2.5342e-07
-2.90525e-08
-2.45313e-07
-3.1291e-08
-2.36707e-07
-3.3442e-08
-2.27628e-07
-3.54931e-08
-2.18101e-07
-3.74332e-08
-2.08157e-07
-3.92518e-08
-1.97827e-07
-4.09399e-08
-1.87145e-07
-4.24898e-08
-1.76147e-07
-4.38958e-08
-1.6487e-07
-4.51544e-08
-1.53348e-07
-4.62621e-08
-1.41618e-07
-4.72158e-08
-1.29716e-07
-4.80135e-08
-1.17678e-07
-4.8658e-08
-1.05539e-07
-4.91529e-08
-9.33332e-08
-4.9502e-08
-8.10924e-08
-4.97098e-08
-6.88473e-08
-4.97818e-08
-5.66268e-08
-4.97242e-08
-4.4458e-08
-4.9544e-08
-3.23662e-08
-4.92486e-08
-2.03742e-08
-4.88465e-08
-8.50268e-09
-4.83466e-08
3.22912e-09
-4.77575e-08
1.48013e-08
-4.70867e-08
2.61955e-08
-4.63419e-08
3.73962e-08
-4.55313e-08
4.83905e-08
-4.46631e-08
5.91684e-08
-4.37456e-08
6.97226e-08
-4.27862e-08
8.00472e-08
-4.17911e-08
9.01392e-08
-4.07646e-08
9.9997e-08
-3.97122e-08
1.09619e-07
-3.86404e-08
1.19001e-07
-3.75569e-08
1.28145e-07
-3.64689e-08
1.37052e-07
-3.53831e-08
1.45723e-07
-3.43048e-08
1.5416e-07
-3.32381e-08
1.62364e-07
-3.21867e-08
1.70337e-07
-3.11537e-08
1.78086e-07
-3.01419e-08
1.85612e-07
-2.91533e-08
1.92923e-07
-2.81898e-08
2.00023e-07
-2.72526e-08
2.06917e-07
-2.63428e-08
2.13612e-07
-2.54608e-08
2.20114e-07
-2.46069e-08
2.26427e-07
-2.37811e-08
2.32559e-07
-2.29835e-08
2.38515e-07
-2.22133e-08
2.44299e-07
-2.14706e-08
2.49918e-07
-2.07542e-08
2.55377e-07
-2.00637e-08
2.60681e-07
-1.9398e-08