/*--------------------------------*- C++ -*----------------------------------*\
| =========                 |                                                 |
| \\      /  F ield         | OpenFOAM: The Open Source CFD Toolbox           |
|  \\    /   O peration     | Version:  2312                                  |
|   \\  /    A nd           | Website:  www.openfoam.com                      |
|    \\/     M anipulation  |                                                 |
\*---------------------------------------------------------------------------*/
FoamFile
{
    version     2.0;
    format      ascii;
    arch        "LSB;label=32;scalar=64";
    class       surfaceScalarField;
    location    "100";
    object      phi;
}
// * * * * * * * * * * * * * * * * * * * * * * * * * * * * * * * * * * * * * //

dimensions      [0 3 -1 0 0 0 0];

oriented        oriented;

internalField   nonuniform List<scalar> 
24170
(
1.53243e-06
6.17736e-08
1.44702e-06
8.54068e-08
1.37264e-06
7.43835e-08
1.30268e-06
6.99556e-08
1.23862e-06
6.40606e-08
1.18326e-06
5.5357e-08
1.137e-06
4.62604e-08
1.09878e-06
3.82128e-08
1.06723e-06
3.15559e-08
1.04108e-06
2.61404e-08
1.01935e-06
2.17301e-08
1.00123e-06
1.81204e-08
9.86122e-07
1.51093e-08
9.73624e-07
1.24972e-08
9.63554e-07
1.00693e-08
9.55783e-07
7.77067e-09
9.50155e-07
5.62691e-09
1.12486e-09
9.49029e-07
1.74833e-06
2.20695e-08
1.75313e-06
8.06098e-08
1.74304e-06
8.44653e-08
1.72709e-06
8.59049e-08
1.70659e-06
8.45594e-08
1.68314e-06
7.88119e-08
1.65822e-06
7.11757e-08
1.63295e-06
6.34877e-08
1.60818e-06
5.63261e-08
1.5845e-06
4.98152e-08
1.56227e-06
4.39577e-08
1.54169e-06
3.8701e-08
1.52286e-06
3.39433e-08
1.50579e-06
2.95627e-08
1.49051e-06
2.5352e-08
1.47708e-06
2.12e-08
1.46611e-06
1.65975e-08
9.55151e-09
1.45768e-06
1.83576e-06
1.75647e-08
1.84806e-06
6.83087e-08
1.85525e-06
7.72776e-08
1.8608e-06
8.03493e-08
1.86382e-06
8.15462e-08
1.86378e-06
7.88495e-08
1.86114e-06
7.38115e-08
1.85652e-06
6.811e-08
1.85044e-06
6.23974e-08
1.84339e-06
5.68659e-08
1.83575e-06
5.15968e-08
1.82784e-06
4.66124e-08
1.81991e-06
4.18743e-08
1.81217e-06
3.73007e-08
1.80479e-06
3.27351e-08
1.79802e-06
2.79626e-08
1.79202e-06
2.25981e-08
1.5529e-08
1.78604e-06
1.96289e-06
1.73722e-08
1.97289e-06
5.83033e-08
1.98016e-06
7.00082e-08
1.9865e-06
7.40109e-08
1.99193e-06
7.61162e-08
1.99594e-06
7.48382e-08
1.99861e-06
7.11389e-08
2.00018e-06
6.65405e-08
2.00084e-06
6.17398e-08
2.00075e-06
5.695e-08
2.0001e-06
5.22558e-08
1.99901e-06
4.76946e-08
1.99765e-06
4.32413e-08
1.99612e-06
3.88283e-08
1.99453e-06
3.43234e-08
1.99297e-06
2.95248e-08
1.99133e-06
2.4229e-08
1.783e-08
1.98903e-06
2.10464e-06
1.62944e-08
2.11227e-06
5.06786e-08
2.11854e-06
6.37295e-08
2.12413e-06
6.84199e-08
2.12943e-06
7.08215e-08
2.13403e-06
7.02384e-08
2.13783e-06
6.73308e-08
2.14095e-06
6.34237e-08
2.14348e-06
5.92076e-08
2.14552e-06
5.49069e-08
2.14717e-06
5.06103e-08
2.1485e-06
4.63613e-08
2.14959e-06
4.21446e-08
2.15052e-06
3.79036e-08
2.15131e-06
3.35325e-08
2.15195e-06
2.88826e-08
2.15233e-06
2.38498e-08
1.81495e-08
2.15201e-06
2.25611e-06
1.47236e-08
2.26228e-06
4.45162e-08
2.26809e-06
5.79194e-08
2.2734e-06
6.31109e-08
2.27855e-06
6.56643e-08
2.28327e-06
6.55221e-08
2.2874e-06
6.32e-08
2.291e-06
5.98218e-08
2.29416e-06
5.60441e-08
2.29696e-06
5.21056e-08
2.29947e-06
4.8106e-08
2.30173e-06
4.40955e-08
2.30381e-06
4.0071e-08
2.30572e-06
3.59898e-08
2.30748e-06
3.17769e-08
2.30902e-06
2.73352e-08
2.31025e-06
2.26256e-08
1.75573e-08
2.31084e-06
2.41792e-06
1.31641e-08
2.42333e-06
3.91014e-08
2.42895e-06
5.23052e-08
2.43418e-06
5.78799e-08
2.43927e-06
6.05728e-08
2.44402e-06
6.07656e-08
2.4483e-06
5.89208e-08
2.45213e-06
5.5988e-08
2.4556e-06
5.25782e-08
2.45876e-06
4.89422e-08
2.46167e-06
4.51927e-08
2.46438e-06
4.13886e-08
2.46691e-06
3.75404e-08
2.46928e-06
3.3622e-08
2.47147e-06
2.95888e-08
2.47341e-06
2.53879e-08
2.47501e-06
2.10248e-08
1.65082e-08
2.47606e-06
2.59124e-06
1.1719e-08
2.59614e-06
3.41997e-08
2.60158e-06
4.68606e-08
2.60678e-06
5.26794e-08
2.61186e-06
5.54921e-08
2.61667e-06
5.59553e-08
2.62108e-06
5.45171e-08
2.62508e-06
5.19796e-08
2.62876e-06
4.89031e-08
2.63216e-06
4.55447e-08
2.63532e-06
4.2029e-08
2.63828e-06
3.84243e-08
2.64107e-06
3.47556e-08
2.64367e-06
3.10155e-08
2.64608e-06
2.71852e-08
2.64822e-06
2.32477e-08
2.65001e-06
1.9235e-08
1.51997e-08
2.65131e-06
2.77703e-06
1.03612e-08
2.78146e-06
2.97659e-08
2.78669e-06
4.16276e-08
2.79186e-06
4.75123e-08
2.79696e-06
5.03928e-08
2.80184e-06
5.10703e-08
2.80637e-06
4.9983e-08
2.81055e-06
4.78052e-08
2.81441e-06
4.50431e-08
2.818e-06
4.19539e-08
2.82135e-06
3.86718e-08
2.8245e-06
3.52743e-08
2.82746e-06
3.17997e-08
2.83021e-06
2.8259e-08
2.83274e-06
2.46554e-08
2.83499e-06
2.09974e-08
2.8369e-06
1.73309e-08
1.37226e-08
2.83837e-06
2.97617e-06
9.07727e-09
2.98017e-06
2.57662e-08
2.98515e-06
3.66451e-08
2.99025e-06
4.24115e-08
2.99536e-06
4.52874e-08
3.00031e-06
4.61165e-08
3.00497e-06
4.5324e-08
3.00931e-06
4.34711e-08
3.01334e-06
4.10079e-08
3.01711e-06
3.81856e-08
3.02064e-06
3.51436e-08
3.02394e-06
3.19673e-08
3.02703e-06
2.87068e-08
3.0299e-06
2.53887e-08
3.03253e-06
2.20333e-08
3.03486e-06
1.86663e-08
3.03685e-06
1.53382e-08
1.21166e-08
3.03846e-06
3.18961e-06
7.8695e-09
3.19323e-06
2.21527e-08
3.19794e-06
3.19285e-08
3.20294e-06
3.74115e-08
3.20802e-06
4.02068e-08
3.21302e-06
4.11202e-08
3.21778e-06
4.05602e-08
3.22226e-06
3.89923e-08
3.22645e-06
3.68097e-08
3.23039e-06
3.4251e-08
3.23408e-06
3.14564e-08
3.23753e-06
2.85165e-08
3.24074e-06
2.54904e-08
3.24371e-06
2.24165e-08
3.24642e-06
1.93277e-08
3.24883e-06
1.62589e-08
3.2509e-06
1.3261e-08
1.03944e-08
3.25262e-06
2.87138e-06
6.90149e-09
2.87416e-06
1.93728e-08
2.87794e-06
2.81512e-08
2.88207e-06
3.32822e-08
2.88632e-06
3.59578e-08
2.89054e-06
3.68936e-08
2.89462e-06
3.64793e-08
2.8985e-06
3.51176e-08
2.90215e-06
3.31544e-08
2.90559e-06
3.08125e-08
2.90882e-06
2.82301e-08
2.91183e-06
2.54993e-08
2.91464e-06
2.26839e-08
2.91723e-06
1.98301e-08
2.91958e-06
1.69765e-08
2.92167e-06
1.41631e-08
2.9235e-06
1.14362e-08
8.85242e-09
2.92504e-06
3.50011e-06
5.86917e-09
3.50306e-06
1.64251e-08
3.50715e-06
2.40614e-08
3.51173e-06
2.86982e-08
3.51652e-06
3.11651e-08
3.52134e-06
3.20707e-08
3.52605e-06
3.17716e-08
3.53056e-06
3.06062e-08
3.53485e-06
2.88699e-08
3.53889e-06
2.67661e-08
3.54269e-06
2.44261e-08
3.54625e-06
2.19414e-08
3.54956e-06
1.93784e-08
3.5526e-06
1.67873e-08
3.55536e-06
1.4211e-08
3.55784e-06
1.16897e-08
3.56001e-06
9.26615e-09
6.98703e-09
3.56187e-06
4.26651e-06
4.78076e-09
4.26959e-06
1.33468e-08
4.27395e-06
1.96978e-08
4.27897e-06
2.36835e-08
4.28429e-06
2.58364e-08
4.28972e-06
2.66419e-08
4.29508e-06
2.64124e-08
4.30026e-06
2.54209e-08
4.30522e-06
2.39113e-08
4.30993e-06
2.20609e-08
4.31436e-06
1.9992e-08
4.31851e-06
1.77899e-08
4.32237e-06
1.55212e-08
4.32592e-06
1.3236e-08
4.32915e-06
1.09781e-08
4.33205e-06
8.78521e-09
4.33462e-06
6.69347e-09
4.74156e-09
4.33687e-06
5.20074e-06
3.647e-09
5.20392e-06
1.01705e-08
5.20852e-06
1.50986e-08
5.21393e-06
1.82678e-08
5.21978e-06
1.99859e-08
5.22581e-06
2.06082e-08
5.23184e-06
2.03879e-08
5.23772e-06
1.95378e-08
5.24338e-06
1.82461e-08
5.24878e-06
1.66611e-08
5.25388e-06
1.4887e-08
5.25867e-06
1.3003e-08
5.26312e-06
1.10671e-08
5.26723e-06
9.12901e-09
5.27098e-06
7.22641e-09
5.27437e-06
5.39459e-09
5.2774e-06
3.66035e-09
2.05508e-09
5.28009e-06
6.33956e-06
2.47675e-09
6.34283e-06
6.90571e-09
6.34764e-06
1.02833e-08
6.35344e-06
1.24691e-08
6.3598e-06
1.36191e-08
6.36645e-06
1.3962e-08
6.37315e-06
1.36819e-08
6.37976e-06
1.29304e-08
6.38616e-06
1.18425e-08
6.39229e-06
1.05281e-08
6.39811e-06
9.07176e-09
6.40357e-06
7.53548e-09
6.40867e-06
5.96999e-09
6.41338e-06
4.41412e-09
6.41771e-06
2.90161e-09
6.42164e-06
1.45796e-09
6.4252e-06
1.05242e-10
-1.13639e-09
6.42839e-06
7.7278e-06
1.26615e-09
7.73118e-06
3.5202e-09
7.73625e-06
5.21798e-09
7.74246e-06
6.25527e-09
7.74938e-06
6.69459e-09
7.75669e-06
6.65426e-09
7.76413e-06
6.23996e-09
7.77152e-06
5.54088e-09
7.77872e-06
4.63742e-09
7.78565e-06
3.59808e-09
7.79224e-06
2.47761e-09
7.79846e-06
1.31876e-09
7.80427e-06
1.55888e-10
7.80967e-06
-9.83089e-10
7.81465e-06
-2.07542e-09
7.81921e-06
-3.10297e-09
7.82336e-06
-4.05238e-09
-4.90988e-09
7.82714e-06
9.4201e-06
-2.01481e-11
9.42372e-06
-9.89324e-11
9.42919e-06
-2.53037e-10
9.43599e-06
-5.41445e-10
9.44364e-06
-9.59002e-10
9.45178e-06
-1.48532e-09
9.46012e-06
-2.10148e-09
9.46845e-06
-2.78611e-09
9.4766e-06
-3.51647e-09
9.48447e-06
-4.27104e-09
9.49197e-06
-5.03138e-09
9.49907e-06
-5.78086e-09
9.50573e-06
-6.50512e-09
9.51194e-06
-7.19155e-09
9.51769e-06
-7.82973e-09
9.523e-06
-8.411e-09
9.52787e-06
-8.9295e-09
-9.37822e-09
9.53234e-06
1.14831e-05
-1.47836e-09
1.14873e-05
-4.23985e-09
1.14936e-05
-6.55165e-09
1.15014e-05
-8.40069e-09
1.15103e-05
-9.82448e-09
1.15197e-05
-1.09211e-08
1.15294e-05
-1.17764e-08
1.15391e-05
-1.2449e-08
1.15485e-05
-1.29795e-08
1.15577e-05
-1.34058e-08
1.15664e-05
-1.37517e-08
1.15746e-05
-1.40351e-08
1.15824e-05
-1.42634e-08
1.15896e-05
-1.44436e-08
1.15964e-05
-1.45774e-08
1.16026e-05
-1.46676e-08
1.16084e-05
-1.47142e-08
-1.47175e-08
1.16138e-05
8.40648e-06
-2.61133e-09
8.40969e-06
-7.44486e-09
8.41457e-06
-1.14339e-08
8.42061e-06
-1.44378e-08
8.42733e-06
-1.65492e-08
8.43442e-06
-1.80025e-08
8.44162e-06
-1.89795e-08
8.44876e-06
-1.95876e-08
8.4557e-06
-1.99257e-08
8.46237e-06
-2.00722e-08
8.4687e-06
-2.009e-08
8.47468e-06
-2.00138e-08
8.48029e-06
-1.98726e-08
8.48553e-06
-1.96803e-08
8.4904e-06
-1.94518e-08
8.49492e-06
-1.91908e-08
8.49911e-06
-1.89055e-08
-1.85942e-08
8.50299e-06
7.31836e-06
-3.68597e-09
7.32148e-06
-1.05697e-08
7.32626e-06
-1.62126e-08
7.33206e-06
-2.02342e-08
7.33838e-06
-2.28717e-08
7.34495e-06
-2.45704e-08
7.35155e-06
-2.55784e-08
7.35801e-06
-2.60522e-08
7.36423e-06
-2.61463e-08
7.37015e-06
-2.59937e-08
7.37574e-06
-2.56789e-08
7.38098e-06
-2.52585e-08
7.38588e-06
-2.47695e-08
7.39044e-06
-2.42397e-08
7.39467e-06
-2.36848e-08
7.3986e-06
-2.31166e-08
7.40223e-06
-2.254e-08
-2.19593e-08
7.40559e-06
6.37104e-06
-4.66439e-09
6.37422e-06
-1.3747e-08
6.37913e-06
-2.11195e-08
6.38485e-06
-2.596e-08
6.39092e-06
-2.89396e-08
6.39713e-06
-3.07803e-08
6.40328e-06
-3.17317e-08
6.40922e-06
-3.19863e-08
6.41485e-06
-3.17826e-08
6.42016e-06
-3.13004e-08
6.42513e-06
-3.06448e-08
6.42975e-06
-2.9884e-08
6.43405e-06
-2.90642e-08
6.43803e-06
-2.82201e-08
6.44171e-06
-2.73691e-08
6.44512e-06
-2.65254e-08
6.44827e-06
-2.56923e-08
-2.48744e-08
6.45118e-06
5.54624e-06
-5.43713e-09
5.54953e-06
-1.70383e-08
5.5547e-06
-2.62964e-08
5.56041e-06
-3.16688e-08
5.56627e-06
-3.48027e-08
5.57218e-06
-3.66898e-08
5.57794e-06
-3.74845e-08
5.58339e-06
-3.74419e-08
5.5885e-06
-3.68972e-08
5.59327e-06
-3.60671e-08
5.59769e-06
-3.50671e-08
5.60178e-06
-3.39718e-08
5.60556e-06
-3.2838e-08
5.60904e-06
-3.16996e-08
5.61224e-06
-3.05797e-08
5.61521e-06
-2.9486e-08
5.61794e-06
-2.84261e-08
-2.7398e-08
5.62046e-06
4.8281e-06
-5.92948e-09
4.83157e-06
-2.05065e-08
4.83693e-06
-3.16614e-08
4.84252e-06
-3.72553e-08
4.84821e-06
-4.04935e-08
4.85388e-06
-4.2367e-08
4.85929e-06
-4.28955e-08
4.86433e-06
-4.24801e-08
4.86899e-06
-4.15617e-08
4.8733e-06
-4.0372e-08
4.87726e-06
-3.90253e-08
4.88089e-06
-3.76027e-08
4.88421e-06
-3.61647e-08
4.88726e-06
-3.4749e-08
4.89006e-06
-3.33747e-08
4.89262e-06
-3.20517e-08
4.89498e-06
-3.07822e-08
-2.95621e-08
4.89714e-06
4.20248e-06
-5.72935e-09
4.20657e-06
-2.46011e-08
4.21195e-06
-3.70397e-08
4.21725e-06
-4.25584e-08
4.22282e-06
-4.60692e-08
4.22839e-06
-4.79349e-08
4.2336e-06
-4.81011e-08
4.23835e-06
-4.72383e-08
4.24269e-06
-4.58989e-08
4.24663e-06
-4.43157e-08
4.2502e-06
-4.2598e-08
4.25343e-06
-4.08323e-08
4.25635e-06
-3.90819e-08
4.25898e-06
-3.73835e-08
4.26136e-06
-3.5755e-08
4.26352e-06
-3.42046e-08
4.26547e-06
-3.27324e-08
-3.13335e-08
4.26724e-06
3.65583e-06
-2.91913e-09
3.66187e-06
-3.06397e-08
3.66785e-06
-4.30217e-08
3.67328e-06
-4.79937e-08
3.67899e-06
-5.17724e-08
3.68454e-06
-5.34839e-08
3.68959e-06
-5.31537e-08
3.69411e-06
-5.17674e-08
3.69816e-06
-4.99434e-08
3.70174e-06
-4.79003e-08
3.70489e-06
-4.57514e-08
3.70765e-06
-4.35887e-08
3.71005e-06
-4.14817e-08
3.71213e-06
-3.94628e-08
3.71392e-06
-3.75502e-08
3.71547e-06
-3.57509e-08
3.7168e-06
-3.40615e-08
-3.24785e-08
3.71794e-06
3.17742e-06
4.697e-09
3.1864e-06
-3.96218e-08
3.1942e-06
-5.08288e-08
3.2012e-06
-5.49919e-08
3.20792e-06
-5.84886e-08
3.21376e-06
-5.9326e-08
3.21863e-06
-5.80239e-08
3.22269e-06
-5.58325e-08
3.22606e-06
-5.33188e-08
3.22881e-06
-5.06436e-08
3.23097e-06
-4.79151e-08
3.23262e-06
-4.52362e-08
3.23381e-06
-4.26723e-08
3.2346e-06
-4.02531e-08
3.23504e-06
-3.79944e-08
3.23519e-06
-3.59048e-08
3.23511e-06
-3.39763e-08
-3.22286e-08
3.23486e-06
2.76711e-06
1.03207e-08
2.77704e-06
-4.95585e-08
2.78522e-06
-5.90078e-08
2.79384e-06
-6.36075e-08
2.80181e-06
-6.64674e-08
2.80785e-06
-6.53681e-08
2.81181e-06
-6.198e-08
2.81397e-06
-5.79926e-08
2.81464e-06
-5.39942e-08
2.8141e-06
-5.0097e-08
2.81256e-06
-4.63768e-08
2.81022e-06
-4.29054e-08
2.80727e-06
-3.97153e-08
2.80382e-06
-3.68086e-08
2.8e-06
-3.41768e-08
2.79591e-06
-3.18178e-08
2.79165e-06
-2.97103e-08
-2.79138e-08
2.78733e-06
2.44887e-06
-2.47473e-08
2.457e-06
-5.76935e-08
2.45645e-06
-5.84557e-08
2.45383e-06
-6.09841e-08
2.44865e-06
-6.12944e-08
2.44045e-06
-5.71705e-08
2.42946e-06
-5.09863e-08
2.41629e-06
-4.48231e-08
2.40161e-06
-3.93178e-08
2.38602e-06
-3.4512e-08
2.37002e-06
-3.037e-08
2.35394e-06
-2.6833e-08
2.33805e-06
-2.38242e-08
2.3225e-06
-2.12649e-08
2.30741e-06
-1.90888e-08
2.29285e-06
-1.72531e-08
2.27886e-06
-1.57265e-08
-1.46717e-08
2.26562e-06
2.07659e-06
2.0189e-06
1.96044e-06
1.89946e-06
1.83816e-06
1.78099e-06
1.73001e-06
1.68518e-06
1.64586e-06
1.61135e-06
1.58098e-06
1.55415e-06
1.53032e-06
1.50906e-06
1.48997e-06
1.47272e-06
1.45699e-06
1.44232e-06
3.91943e-09
-3.97577e-09
1.35011e-08
-9.64993e-09
2.49024e-08
-1.14851e-08
3.61451e-08
-1.12931e-08
4.58851e-08
-9.81863e-09
5.3485e-08
-7.64438e-09
5.85222e-08
-5.11989e-09
6.09254e-08
-2.44514e-09
6.0591e-08
2.47591e-10
5.77364e-08
2.81556e-09
5.25336e-08
5.11384e-09
4.5409e-08
7.08773e-09
3.65778e-08
8.73891e-09
2.64266e-08
1.01141e-08
1.50443e-08
1.12827e-08
2.68805e-09
1.23164e-08
-1.07346e-08
1.33152e-08
-2.52157e-08
1.44441e-08
-4.10232e-08
1.5709e-08
-5.81251e-08
1.70734e-08
-7.67891e-08
1.85729e-08
-9.70217e-08
2.02124e-08
-1.19069e-07
2.19667e-08
-1.42886e-07
2.38015e-08
-1.68628e-07
2.56656e-08
-1.96152e-07
2.75072e-08
-2.25497e-07
2.92655e-08
-2.56409e-07
3.0891e-08
-2.88819e-07
3.23323e-08
-3.22396e-07
3.35517e-08
-3.56987e-07
3.45101e-08
-3.92209e-07
3.51912e-08
-4.27872e-07
3.55852e-08
-4.63612e-07
3.57054e-08
-4.99258e-07
3.55668e-08
-5.34496e-07
3.52014e-08
-5.69206e-07
3.46362e-08
-6.0315e-07
3.39101e-08
-6.36268e-07
3.30523e-08
-6.68397e-07
3.21002e-08
-6.99533e-07
3.10787e-08
-7.29577e-07
3.00197e-08
-7.5857e-07
2.89425e-08
-7.86468e-07
2.78742e-08
-8.13347e-07
2.68316e-08
-8.3922e-07
2.58471e-08
-8.64191e-07
2.49267e-08
-8.88287e-07
2.4069e-08
-9.11597e-07
2.32681e-08
-9.3415e-07
2.25246e-08
-9.56022e-07
2.18316e-08
-9.77243e-07
2.11902e-08
-9.9788e-07
2.05941e-08
-1.01796e-06
2.00441e-08
-1.03754e-06
1.95345e-08
-1.05666e-06
1.9066e-08
-1.07534e-06
1.86336e-08
-1.09363e-06
1.82382e-08
-1.11157e-06
1.78755e-08
-1.12917e-06
1.75459e-08
-1.14647e-06
1.72461e-08
-1.16352e-06
1.69764e-08
-1.1803e-06
1.67347e-08
-1.19689e-06
1.65198e-08
-1.21327e-06
1.63308e-08
-1.2295e-06
1.61661e-08
-1.24557e-06
1.60264e-08
-1.26155e-06
1.59095e-08
-1.2774e-06
1.58171e-08
-1.29321e-06
1.57451e-08
-1.30893e-06
1.56959e-08
-1.32466e-06
1.56641e-08
-1.34033e-06
1.56523e-08
-1.35605e-06
1.56521e-08
-1.37174e-06
1.56672e-08
-1.3875e-06
1.56872e-08
-1.40325e-06
1.57169e-08
-1.41908e-06
1.57496e-08
-1.4349e-06
1.5796e-08
-1.45081e-06
1.58398e-08
-1.46671e-06
1.58735e-08
-1.48266e-06
1.58831e-08
-1.49856e-06
1.58949e-08
-1.51451e-06
1.58817e-08
-1.53035e-06
1.58346e-08
-1.54614e-06
1.57417e-08
-1.56173e-06
1.56148e-08
-1.57713e-06
1.54297e-08
-1.59224e-06
1.5188e-08
-1.60696e-06
1.48827e-08
-1.62131e-06
1.44814e-08
-1.63515e-06
1.39681e-08
-1.6484e-06
1.33536e-08
-1.66096e-06
1.26611e-08
-1.67264e-06
1.17736e-08
-1.68327e-06
1.07279e-08
-1.69273e-06
9.54348e-09
-1.70081e-06
8.14967e-09
-1.70733e-06
6.55844e-09
-1.71205e-06
4.7497e-09
-1.71482e-06
2.75914e-09
-1.71558e-06
6.95238e-10
-1.71433e-06
-1.36618e-09
-1.71109e-06
-3.40685e-09
-1.70568e-06
-5.59539e-09
-1.69817e-06
-7.72801e-09
-1.68838e-06
-9.97985e-09
-1.6761e-06
-1.24762e-08
-1.66148e-06
-1.4762e-08
-1.64439e-06
-1.7234e-08
-1.6246e-06
-1.98846e-08
-1.60208e-06
-2.26176e-08
-1.57675e-06
-2.53769e-08
-1.54872e-06
-2.8077e-08
-1.51786e-06
-3.08518e-08
-1.48418e-06
-3.36767e-08
-1.44769e-06
-3.64387e-08
-1.4084e-06
-3.92383e-08
-1.36632e-06
-4.19666e-08
-1.32157e-06
-4.46511e-08
-1.27421e-06
-4.72568e-08
-1.22438e-06
-4.9785e-08
-1.17212e-06
-5.21958e-08
-1.11758e-06
-5.44826e-08
-1.06085e-06
-5.6608e-08
-1.00214e-06
-5.85721e-08
-9.41614e-07
-6.03506e-08
-8.79479e-07
-6.19427e-08
-8.15935e-07
-6.33321e-08
-7.51204e-07
-6.45147e-08
-6.85501e-07
-6.54863e-08
-6.19042e-07
-6.6245e-08
-5.52046e-07
-6.6796e-08
-4.84715e-07
-6.71405e-08
-4.1725e-07
-6.72943e-08
-3.49838e-07
-6.72529e-08
-2.82657e-07
-6.70466e-08
-2.15923e-07
-6.66262e-08
-1.49781e-07
-6.60811e-08
-8.40581e-08
-6.57037e-08
-1.83906e-08
-6.56809e-08
4.7319e-08
-6.57484e-08
1.12245e-07
-6.49755e-08
1.75572e-07
-6.33923e-08
2.37012e-07
-6.15117e-08
2.96412e-07
-5.94797e-08
3.53696e-07
-5.73642e-08
4.08814e-07
-5.52021e-08
4.61746e-07
-5.30132e-08
5.1248e-07
-5.08166e-08
5.61033e-07
-4.8632e-08
6.07408e-07
-4.64555e-08
6.51629e-07
-4.42969e-08
6.93727e-07
-4.21723e-08
7.33737e-07
-4.00818e-08
7.7164e-07
-3.79718e-08
8.07431e-07
-3.58572e-08
8.41163e-07
-3.37939e-08
8.72911e-07
-3.18077e-08
9.02748e-07
-2.9892e-08
9.30734e-07
-2.80397e-08
9.56935e-07
-2.62489e-08
9.81414e-07
-2.45268e-08
1.00424e-06
-2.2869e-08
1.02548e-06
-2.12781e-08
1.04519e-06
-1.97492e-08
1.06343e-06
-1.82805e-08
1.08026e-06
-1.686e-08
1.09571e-06
-1.5478e-08
1.10979e-06
-1.41125e-08
1.1225e-06
-1.27404e-08
1.13379e-06
-1.13193e-08
1.14356e-06
-9.79235e-09
1.15157e-06
-8.03837e-09
1.15741e-06
-5.87363e-09
1.1599e-06
-2.51908e-09
1.15639e-06
3.4755e-09
1.14287e-06
1.34939e-08
1.10931e-06
3.35347e-08
6.58632e-08
1.04343e-06
1.00509e-08
-1.40748e-08
1.98344e-08
-1.94865e-08
2.67542e-08
-1.84488e-08
3.12504e-08
-1.58173e-08
3.37152e-08
-1.23171e-08
3.43286e-08
-8.28126e-09
3.31299e-08
-3.9542e-09
3.01741e-08
4.88051e-10
2.54722e-08
4.91621e-09
1.904e-08
9.22551e-09
1.07959e-08
1.33242e-08
7.16205e-10
1.71453e-08
-1.12427e-08
2.06644e-08
-2.50566e-08
2.39063e-08
-4.07404e-08
2.6934e-08
-5.82786e-08
2.98334e-08
-7.76923e-08
3.26968e-08
-9.88749e-08
3.56062e-08
-1.21807e-07
3.861e-08
-1.46476e-07
4.17255e-08
-1.72878e-07
4.49454e-08
-2.00918e-07
4.82356e-08
-2.30515e-07
5.1536e-08
-2.61496e-07
5.47686e-08
-2.93703e-07
5.7845e-08
-3.2689e-07
6.06769e-08
-3.60837e-07
6.31823e-08
-3.95257e-07
6.5294e-08
-4.29917e-07
6.69618e-08
-4.6454e-07
6.81538e-08
-4.98914e-07
6.88527e-08
-5.32811e-07
6.90666e-08
-5.66082e-07
6.88241e-08
-5.9857e-07
6.81703e-08
-6.30194e-07
6.71583e-08
-6.60865e-07
6.58476e-08
-6.90557e-07
6.42971e-08
-7.19234e-07
6.25653e-08
-7.46915e-07
6.07053e-08
-7.73602e-07
5.87675e-08
-7.99343e-07
5.67946e-08
-8.24166e-07
5.48251e-08
-8.48136e-07
5.28895e-08
-8.71294e-07
5.10151e-08
-8.93706e-07
4.92218e-08
-9.15403e-07
4.75263e-08
-9.36431e-07
4.59336e-08
-9.56824e-07
4.44435e-08
-9.7663e-07
4.30532e-08
-9.95884e-07
4.176e-08
-1.01463e-06
4.05583e-08
-1.03291e-06
3.94445e-08
-1.05075e-06
3.84128e-08
-1.06819e-06
3.74597e-08
-1.08526e-06
3.65795e-08
-1.10199e-06
3.57691e-08
-1.11841e-06
3.50236e-08
-1.13454e-06
3.43407e-08
-1.15041e-06
3.37159e-08
-1.16605e-06
3.31472e-08
-1.18147e-06
3.26312e-08
-1.19669e-06
3.21665e-08
-1.21174e-06
3.17502e-08
-1.22664e-06
3.13806e-08
-1.2414e-06
3.10553e-08
-1.25604e-06
3.07727e-08
-1.27058e-06
3.05307e-08
-1.28503e-06
3.03273e-08
-1.2994e-06
3.01604e-08
-1.31371e-06
3.00271e-08
-1.32796e-06
2.99246e-08
-1.34218e-06
2.98484e-08
-1.35634e-06
2.97952e-08
-1.37048e-06
2.97592e-08
-1.38457e-06
2.97358e-08
-1.39864e-06
2.97186e-08
-1.41265e-06
2.97059e-08
-1.42663e-06
2.96915e-08
-1.44053e-06
2.96718e-08
-1.45436e-06
2.96336e-08
-1.46807e-06
2.95646e-08
-1.48167e-06
2.94514e-08
-1.49509e-06
2.92944e-08
-1.50831e-06
2.90771e-08
-1.52128e-06
2.87841e-08
-1.53395e-06
2.83992e-08
-1.54625e-06
2.79164e-08
-1.55813e-06
2.73164e-08
-1.56947e-06
2.6597e-08
-1.58023e-06
2.57231e-08
-1.59034e-06
2.46795e-08
-1.59974e-06
2.34411e-08
-1.60832e-06
2.1997e-08
-1.61595e-06
2.03502e-08
-1.62257e-06
1.84507e-08
-1.6281e-06
1.63052e-08
-1.63243e-06
1.39215e-08
-1.63555e-06
1.12969e-08
-1.63741e-06
8.43352e-09
-1.63801e-06
5.35326e-09
-1.63734e-06
2.06486e-09
-1.63528e-06
-1.42388e-09
-1.6316e-06
-5.15209e-09
-1.62602e-06
-9.10893e-09
-1.61847e-06
-1.32886e-08
-1.60869e-06
-1.76454e-08
-1.59662e-06
-2.2198e-08
-1.58226e-06
-2.69495e-08
-1.56531e-06
-3.18239e-08
-1.54574e-06
-3.68835e-08
-1.52356e-06
-4.21382e-08
-1.49869e-06
-4.75428e-08
-1.47107e-06
-5.30366e-08
-1.44059e-06
-5.85716e-08
-1.40729e-06
-6.41622e-08
-1.37117e-06
-6.9784e-08
-1.33218e-06
-7.54063e-08
-1.29036e-06
-8.10031e-08
-1.24575e-06
-8.65178e-08
-1.19841e-06
-9.19213e-08
-1.14844e-06
-9.71776e-08
-1.09594e-06
-1.02259e-07
-1.04099e-06
-1.07114e-07
-9.83725e-07
-1.11707e-07
-9.2428e-07
-1.1599e-07
-8.62829e-07
-1.1994e-07
-7.99557e-07
-1.23521e-07
-7.34673e-07
-1.26716e-07
-6.68386e-07
-1.295e-07
-6.00921e-07
-1.3186e-07
-5.32503e-07
-1.33786e-07
-4.6336e-07
-1.35275e-07
-3.93719e-07
-1.3633e-07
-3.23804e-07
-1.3696e-07
-2.53824e-07
-1.37188e-07
-1.83983e-07
-1.37021e-07
-1.14439e-07
-1.36527e-07
-4.52022e-08
-1.35823e-07
2.36632e-08
-1.34926e-07
9.17157e-08
-1.33761e-07
1.58281e-07
-1.3226e-07
2.22804e-07
-1.30296e-07
2.85442e-07
-1.2764e-07
3.46411e-07
-1.24398e-07
4.05643e-07
-1.20781e-07
4.63046e-07
-1.16928e-07
5.18551e-07
-1.12913e-07
5.721e-07
-1.08801e-07
6.23663e-07
-1.04623e-07
6.73216e-07
-1.00422e-07
7.20755e-07
-9.62191e-08
7.66279e-07
-9.20325e-08
8.09802e-07
-8.78682e-08
8.51332e-07
-8.37536e-08
8.90888e-07
-7.96855e-08
9.28514e-07
-7.5647e-08
9.6426e-07
-7.16477e-08
9.98158e-07
-6.77373e-08
1.03025e-06
-6.39413e-08
1.06058e-06
-6.02668e-08
1.08921e-06
-5.67035e-08
1.11618e-06
-5.32592e-08
1.14156e-06
-4.99372e-08
1.1654e-06
-4.67395e-08
1.18775e-06
-4.36633e-08
1.20868e-06
-4.07077e-08
1.22823e-06
-3.78599e-08
1.24645e-06
-3.51054e-08
1.26337e-06
-3.24178e-08
1.27899e-06
-2.97634e-08
1.29332e-06
-2.70913e-08
1.30631e-06
-2.43299e-08
1.31786e-06
-2.13621e-08
1.3278e-06
-1.79953e-08
1.33578e-06
-1.38772e-08
1.34158e-06
-8.3453e-09
1.34496e-06
7.56092e-11
1.34486e-06
1.35735e-08
1.33981e-06
3.85599e-08
8.37433e-08
1.32192e-06
8.14824e-09
-2.22617e-08
1.34336e-08
-2.48114e-08
1.56796e-08
-2.07251e-08
1.55886e-08
-1.57446e-08
1.36466e-08
-1.03964e-08
1.01493e-08
-4.79861e-09
5.22022e-09
9.55587e-10
-1.08461e-09
6.77938e-09
-8.78258e-09
1.25953e-08
-1.79044e-08
1.83346e-08
-2.85331e-08
2.39348e-08
-4.07458e-08
2.93458e-08
-5.46405e-08
3.45416e-08
-7.02733e-08
3.95272e-08
-8.76932e-08
4.43366e-08
-1.06893e-07
4.90217e-08
-1.27852e-07
5.36376e-08
-1.50485e-07
5.82276e-08
-1.74705e-07
6.2813e-08
-2.00378e-07
6.73871e-08
-2.27365e-07
7.19148e-08
-2.55475e-07
7.63348e-08
-2.84522e-07
8.05664e-08
-3.14282e-07
8.45175e-08
-3.44549e-07
8.80944e-08
-3.75096e-07
9.12113e-08
-4.05729e-07
9.37966e-08
-4.36245e-07
9.57974e-08
-4.66483e-07
9.71806e-08
-4.96282e-07
9.79395e-08
-5.25544e-07
9.80951e-08
-5.54178e-07
9.76871e-08
-5.82142e-07
9.67686e-08
-6.09389e-07
9.54033e-08
-6.3591e-07
9.36609e-08
-6.6169e-07
9.1613e-08
-6.8674e-07
8.93296e-08
-7.11065e-07
8.68764e-08
-7.34688e-07
8.43126e-08
-7.57625e-07
8.16919e-08
-7.79905e-07
7.90606e-08
-8.01549e-07
7.64577e-08
-8.22588e-07
7.3915e-08
-8.43043e-07
7.1458e-08
-8.62939e-07
6.91053e-08
-8.82295e-07
6.68696e-08
-9.01131e-07
6.47569e-08
-9.19469e-07
6.2769e-08
-9.37334e-07
6.09048e-08
-9.54749e-07
5.91618e-08
-9.7174e-07
5.75357e-08
-9.88331e-07
5.60216e-08
-1.00455e-06
5.46145e-08
-1.02041e-06
5.3309e-08
-1.03595e-06
5.20999e-08
-1.05118e-06
5.09822e-08
-1.06613e-06
4.9951e-08
-1.08081e-06
4.90024e-08
-1.09525e-06
4.81318e-08
-1.10946e-06
4.73359e-08
-1.12346e-06
4.66111e-08
-1.13727e-06
4.59545e-08
-1.1509e-06
4.5363e-08
-1.16438e-06
4.48341e-08
-1.17771e-06
4.43647e-08
-1.19091e-06
4.39522e-08
-1.204e-06
4.35938e-08
-1.21698e-06
4.32865e-08
-1.22986e-06
4.30267e-08
-1.24267e-06
4.28104e-08
-1.25539e-06
4.26328e-08
-1.26805e-06
4.24889e-08
-1.28064e-06
4.23725e-08
-1.29318e-06
4.22765e-08
-1.30565e-06
4.21941e-08
-1.31807e-06
4.21178e-08
-1.33042e-06
4.20406e-08
-1.34271e-06
4.19543e-08
-1.3549e-06
4.18493e-08
-1.367e-06
4.17118e-08
-1.37898e-06
4.15265e-08
-1.39082e-06
4.12771e-08
-1.40249e-06
4.09515e-08
-1.41396e-06
4.05326e-08
-1.42519e-06
4.00013e-08
-1.43614e-06
3.93376e-08
-1.44675e-06
3.85248e-08
-1.45697e-06
3.75458e-08
-1.46672e-06
3.63778e-08
-1.47595e-06
3.50036e-08
-1.4846e-06
3.3386e-08
-1.49263e-06
3.15017e-08
-1.49993e-06
2.93407e-08
-1.50644e-06
2.68834e-08
-1.51208e-06
2.41152e-08
-1.51677e-06
2.10158e-08
-1.52043e-06
1.75963e-08
-1.52298e-06
1.38458e-08
-1.52431e-06
9.77153e-09
-1.52435e-06
5.36925e-09
-1.52296e-06
6.34629e-10
-1.51999e-06
-4.45197e-09
-1.51532e-06
-9.91267e-09
-1.50881e-06
-1.5731e-08
-1.50032e-06
-2.18956e-08
-1.48969e-06
-2.8382e-08
-1.47682e-06
-3.51697e-08
-1.46162e-06
-4.22323e-08
-1.44395e-06
-4.95782e-08
-1.42371e-06
-5.71728e-08
-1.40089e-06
-6.5018e-08
-1.3754e-06
-7.30667e-08
-1.34719e-06
-8.12782e-08
-1.31618e-06
-8.95909e-08
-1.28237e-06
-9.79797e-08
-1.24574e-06
-1.06396e-07
-1.20631e-06
-1.14826e-07
-1.16407e-06
-1.23201e-07
-1.11907e-06
-1.31469e-07
-1.07138e-06
-1.39564e-07
-1.02109e-06
-1.47439e-07
-9.68286e-07
-1.55037e-07
-9.13088e-07
-1.62296e-07
-8.55612e-07
-1.6915e-07
-7.96014e-07
-1.75545e-07
-7.34465e-07
-1.81428e-07
-6.71159e-07
-1.86757e-07
-6.06301e-07
-1.91495e-07
-5.4011e-07
-1.95609e-07
-4.72809e-07
-1.99076e-07
-4.0463e-07
-2.01882e-07
-3.35803e-07
-2.04023e-07
-2.66558e-07
-2.05501e-07
-1.9712e-07
-2.06333e-07
-1.27697e-07
-2.06551e-07
-5.84432e-08
-2.06224e-07
1.04696e-08
-2.054e-07
7.87322e-08
-2.04058e-07
1.45991e-07
-2.02173e-07
2.11972e-07
-1.99737e-07
2.76429e-07
-1.96721e-07
3.39177e-07
-1.93044e-07
4.00209e-07
-1.88677e-07
4.59536e-07
-1.83729e-07
5.17099e-07
-1.78352e-07
5.72833e-07
-1.72668e-07
6.26679e-07
-1.66769e-07
6.78594e-07
-1.60724e-07
7.2855e-07
-1.5459e-07
7.76532e-07
-1.48412e-07
8.22532e-07
-1.4223e-07
8.66558e-07
-1.36067e-07
9.08622e-07
-1.29943e-07
9.48741e-07
-1.23882e-07
9.86948e-07
-1.17903e-07
1.0233e-06
-1.12007e-07
1.05785e-06
-1.06206e-07
1.09063e-06
-1.00531e-07
1.12169e-06
-9.50116e-08
1.15107e-06
-8.96592e-08
1.17883e-06
-8.44728e-08
1.20502e-06
-7.94563e-08
1.22969e-06
-7.46177e-08
1.2529e-06
-6.99569e-08
1.27471e-06
-6.54752e-08
1.29516e-06
-6.11655e-08
1.3143e-06
-5.70126e-08
1.33218e-06
-5.2992e-08
1.34883e-06
-4.90696e-08
1.36425e-06
-4.51945e-08
1.37845e-06
-4.12987e-08
1.39139e-06
-3.72795e-08
1.403e-06
-3.29795e-08
1.41315e-06
-2.81456e-08
1.4216e-06
-2.23351e-08
1.42806e-06
-1.48213e-08
1.43228e-06
-4.1571e-09
1.43385e-06
1.20002e-08
1.43348e-06
3.89177e-08
8.50146e-08
1.4322e-06
3.75966e-09
-2.60561e-08
3.68687e-09
-2.47708e-08
1.60509e-09
-1.86674e-08
-2.03687e-09
-1.2117e-08
-7.00804e-09
-5.44134e-09
-1.31622e-08
1.34516e-09
-2.04493e-08
8.22848e-09
-2.8857e-08
1.51779e-08
-3.84277e-08
2.21528e-08
-4.92089e-08
2.91072e-08
-6.1281e-08
3.59941e-08
-7.4715e-08
4.27716e-08
-8.95954e-08
4.94094e-08
-1.05969e-07
5.58931e-08
-1.23869e-07
6.22241e-08
-1.43269e-07
6.84137e-08
-1.64119e-07
7.44742e-08
-1.86309e-07
8.04092e-08
-2.09714e-07
8.62053e-08
-2.34163e-07
9.18276e-08
-2.59482e-07
9.72206e-08
-2.85468e-07
1.02311e-07
-3.11931e-07
1.07016e-07
-3.3867e-07
1.11248e-07
-3.65516e-07
1.14926e-07
-3.92298e-07
1.17983e-07
-4.18885e-07
1.20369e-07
-4.45156e-07
1.22057e-07
-4.71033e-07
1.23043e-07
-4.96449e-07
1.23345e-07
-5.21371e-07
1.23003e-07
-5.45769e-07
1.22075e-07
-5.69638e-07
1.20623e-07
-5.92966e-07
1.18721e-07
-6.1576e-07
1.16442e-07
-6.38019e-07
1.13862e-07
-6.59754e-07
1.11053e-07
-6.80968e-07
1.0808e-07
-7.01674e-07
1.05007e-07
-7.21878e-07
1.01887e-07
-7.41593e-07
9.87656e-08
-7.60825e-07
9.56819e-08
-7.79588e-07
9.26678e-08
-7.97887e-07
8.97481e-08
-8.15733e-07
8.69415e-08
-8.33134e-07
8.4261e-08
-8.50101e-07
8.17141e-08
-8.66647e-07
7.93046e-08
-8.82786e-07
7.70333e-08
-8.98533e-07
7.48984e-08
-9.13905e-07
7.2897e-08
-9.28919e-07
7.10249e-08
-9.43594e-07
6.92771e-08
-9.57946e-07
6.76486e-08
-9.71994e-07
6.61339e-08
-9.85754e-07
6.47279e-08
-9.99243e-07
6.34255e-08
-1.01248e-06
6.2222e-08
-1.02547e-06
6.11128e-08
-1.03825e-06
6.0094e-08
-1.05082e-06
5.91615e-08
-1.06319e-06
5.8312e-08
-1.07539e-06
5.75421e-08
-1.08742e-06
5.68485e-08
-1.0993e-06
5.6228e-08
-1.11104e-06
5.56774e-08
-1.12266e-06
5.51932e-08
-1.13416e-06
5.47715e-08
-1.14556e-06
5.44081e-08
-1.15686e-06
5.4098e-08
-1.16807e-06
5.38354e-08
-1.17921e-06
5.36136e-08
-1.19028e-06
5.34253e-08
-1.20128e-06
5.32622e-08
-1.21221e-06
5.31152e-08
-1.22308e-06
5.29745e-08
-1.23388e-06
5.28304e-08
-1.24461e-06
5.26714e-08
-1.25526e-06
5.24841e-08
-1.26581e-06
5.22525e-08
-1.27626e-06
5.19586e-08
-1.28658e-06
5.15828e-08
-1.29674e-06
5.11058e-08
-1.30673e-06
5.05067e-08
-1.3165e-06
4.97626e-08
-1.32602e-06
4.88496e-08
-1.33525e-06
4.77451e-08
-1.34412e-06
4.64239e-08
-1.35258e-06
4.48672e-08
-1.36058e-06
4.30338e-08
-1.36808e-06
4.09069e-08
-1.375e-06
3.84479e-08
-1.38128e-06
3.56394e-08
-1.38685e-06
3.24588e-08
-1.39161e-06
2.88879e-08
-1.3955e-06
2.49046e-08
-1.39841e-06
2.05029e-08
-1.40024e-06
1.56692e-08
-1.40089e-06
1.03979e-08
-1.40023e-06
4.67661e-09
-1.39814e-06
-1.50833e-09
-1.39449e-06
-8.17327e-09
-1.38917e-06
-1.53294e-08
-1.38204e-06
-2.29608e-08
-1.37298e-06
-3.1058e-08
-1.36186e-06
-3.95945e-08
-1.34857e-06
-4.85465e-08
-1.33299e-06
-5.78824e-08
-1.31503e-06
-6.76041e-08
-1.29459e-06
-7.76604e-08
-1.27161e-06
-8.80352e-08