/*--------------------------------*- C++ -*----------------------------------*\
| =========                 |                                                 |
| \\      /  F ield         | OpenFOAM: The Open Source CFD Toolbox           |
|  \\    /   O peration     | Version:  2312                                  |
|   \\  /    A nd           | Website:  www.openfoam.com                      |
|    \\/     M anipulation  |                                                 |
\*---------------------------------------------------------------------------*/
FoamFile
{
    version     2.0;
    format      ascii;
    arch        "LSB;label=32;scalar=64";
    class       volVectorField;
    location    "100";
    object      U;
}
// * * * * * * * * * * * * * * * * * * * * * * * * * * * * * * * * * * * * * //

dimensions      [0 1 -1 0 0 0 0];

internalField   nonuniform List<vector> 
12225
(
(4.84801 -0.821834 0)
(4.65549 -0.673011 0)
(4.43874 -0.378858 0)
(4.20079 -0.186361 0)
(3.98012 -0.0822871 0)
(3.79176 -0.0311533 0)
(3.63356 -0.0079232 0)
(3.50194 0.00202222 0)
(3.39313 0.00573886 0)
(3.30325 0.00664812 0)
(3.22877 0.00634633 0)
(3.16674 0.0055755 0)
(3.11493 0.0046677 0)
(3.07179 0.0036779 0)
(3.03633 0.0027026 0)
(3.00899 0.00110576 0)
(2.98528 0.00244159 0)
(2.97962 -0.0160865 0)
(5.07191 0.209535 0)
(5.1359 0.305551 0)
(5.12831 0.246282 0)
(5.08371 0.176525 0)
(5.02606 0.127495 0)
(4.96108 0.0953226 0)
(4.89038 0.0742437 0)
(4.81634 0.0600939 0)
(4.74244 0.0502333 0)
(4.67115 0.0429919 0)
(4.60379 0.0373979 0)
(4.54101 0.0328633 0)
(4.48326 0.0290055 0)
(4.43067 0.0255844 0)
(4.38331 0.0221986 0)
(4.34113 0.0190118 0)
(4.30534 0.0142095 0)
(4.2742 0.0119658 0)
(5.0041 0.0539739 0)
(5.02804 0.0568873 0)
(5.05651 0.0375645 0)
(5.07533 0.0372486 0)
(5.08625 0.0450373 0)
(5.09032 0.0507446 0)
(5.0869 0.0529949 0)
(5.07675 0.0530127 0)
(5.06172 0.0517229 0)
(5.04349 0.04965 0)
(5.02322 0.0471232 0)
(5.00181 0.044351 0)
(4.98003 0.0414186 0)
(4.9585 0.0382993 0)
(4.93777 0.0348858 0)
(4.91816 0.0309354 0)
(4.90083 0.0261236 0)
(4.88338 0.0183391 0)
(4.99797 0.0107097 0)
(5.00992 0.0290188 0)
(5.03462 0.040599 0)
(5.05402 0.0513401 0)
(5.06831 0.0583475 0)
(5.08008 0.0605311 0)
(5.08883 0.0597921 0)
(5.09422 0.0578912 0)
(5.09689 0.0555744 0)
(5.0975 0.0530693 0)
(5.09647 0.050458 0)
(5.09418 0.0477715 0)
(5.09098 0.0449675 0)
(5.08722 0.041965 0)
(5.08319 0.0385867 0)
(5.07907 0.034556 0)
(5.07514 0.0294508 0)
(5.06991 0.0217946 0)
(4.99928 0.00745741 0)
(5.00884 0.0330865 0)
(5.02785 0.0459717 0)
(5.04321 0.0520676 0)
(5.05549 0.0555082 0)
(5.06704 0.0565921 0)
(5.07726 0.0560209 0)
(5.08554 0.0546843 0)
(5.09216 0.0530027 0)
(5.09752 0.0510917 0)
(5.10187 0.0489917 0)
(5.10537 0.046716 0)
(5.10822 0.0442305 0)
(5.11059 0.0414544 0)
(5.1126 0.0382322 0)
(5.11429 0.0343192 0)
(5.1156 0.0294385 0)
(5.11571 0.0229705 0)
(5.00014 0.00917857 0)
(5.00819 0.0317585 0)
(5.02333 0.042358 0)
(5.03648 0.0472338 0)
(5.04765 0.0506792 0)
(5.05849 0.0524201 0)
(5.06848 0.0525351 0)
(5.0771 0.0517195 0)
(5.08454 0.0504225 0)
(5.0911 0.0488053 0)
(5.09695 0.0469289 0)
(5.10222 0.0448202 0)
(5.10701 0.0424567 0)
(5.11142 0.0397664 0)
(5.11549 0.0366251 0)
(5.11917 0.0328473 0)
(5.12232 0.0282881 0)
(5.12442 0.0226807 0)
(5.00028 0.00893939 0)
(5.00711 0.0277603 0)
(5.01985 0.0377773 0)
(5.03178 0.0430528 0)
(5.04222 0.0467935 0)
(5.05232 0.0488154 0)
(5.0618 0.0492151 0)
(5.07023 0.0486414 0)
(5.07773 0.0475388 0)
(5.08455 0.0460779 0)
(5.09081 0.0443263 0)
(5.09661 0.0423131 0)
(5.10202 0.0400223 0)
(5.10708 0.0373956 0)
(5.1118 0.0343397 0)
(5.11611 0.0307302 0)
(5.11984 0.0265022 0)
(5.12268 0.021569 0)
(5.00028 0.00791908 0)
(5.00607 0.0240164 0)
(5.01701 0.0338199 0)
(5.02796 0.0393615 0)
(5.03778 0.0430982 0)
(5.04725 0.0451686 0)
(5.05624 0.0457372 0)
(5.06439 0.045352 0)
(5.07178 0.0444081 0)
(5.07857 0.0430733 0)
(5.08489 0.0414201 0)
(5.0908 0.0394818 0)
(5.09634 0.0372528 0)
(5.10155 0.0346915 0)
(5.1064 0.0317359 0)
(5.11081 0.0283144 0)
(5.11465 0.0244138 0)
(5.11772 0.0200448 0)
(5.0003 0.00695882 0)
(5.0052 0.0209065 0)
(5.01458 0.0301936 0)
(5.02455 0.035699 0)
(5.0338 0.0393276 0)
(5.04274 0.0414127 0)
(5.05128 0.0421271 0)
(5.05916 0.0419093 0)
(5.06638 0.0411055 0)
(5.07306 0.0398812 0)
(5.07931 0.0383152 0)
(5.08516 0.0364468 0)
(5.09066 0.0342819 0)
(5.09581 0.0317986 0)
(5.10058 0.0289628 0)
(5.10492 0.0257439 0)
(5.10869 0.0221615 0)
(5.1118 0.0182713 0)
(5.00032 0.00611954 0)
(5.00447 0.0181694 0)
(5.01248 0.0267157 0)
(5.02147 0.0320247 0)
(5.03012 0.0355163 0)
(5.03855 0.0375896 0)
(5.04668 0.0384107 0)
(5.05427 0.038329 0)
(5.0613 0.0376456 0)
(5.06784 0.0365221 0)
(5.07396 0.0350409 0)
(5.0797 0.0332475 0)
(5.08508 0.0311593 0)
(5.0901 0.0287722 0)
(5.09473 0.026077 0)
(5.09891 0.0230718 0)
(5.10256 0.019795 0)
(5.10565 0.0163184 0)
(5.00031 0.00534317 0)
(5.00384 0.0156925 0)
(5.01068 0.0233992 0)
(5.01873 0.0284085 0)
(5.02674 0.0317177 0)
(5.03464 0.0337259 0)
(5.04233 0.0345994 0)
(5.04962 0.0346162 0)
(5.05642 0.0340332 0)
(5.06279 0.0330022 0)
(5.06876 0.031607 0)
(5.07436 0.0298977 0)
(5.07959 0.0279019 0)
(5.08445 0.0256309 0)
(5.08891 0.0230941 0)
(5.09294 0.0203094 0)
(5.09646 0.0173238 0)
(5.09949 0.0142112 0)
(5.00028 0.00465523 0)
(5.00335 0.0136095 0)
(5.00928 0.0205159 0)
(5.01651 0.0251703 0)
(5.02393 0.028265 0)
(5.03133 0.030167 0)
(5.0386 0.0310402 0)
(5.04557 0.0311114 0)
(5.05213 0.0305992 0)
(5.05831 0.0296435 0)
(5.06411 0.0283266 0)
(5.06955 0.0267018 0)
(5.07463 0.0248036 0)
(5.07933 0.0226545 0)
(5.08364 0.020276 0)
(5.08753 0.0176971 0)
(5.09094 0.0149665 0)
(5.09392 0.0121546 0)
(5.00026 0.0040096 0)
(5.00293 0.0117007 0)
(5.00809 0.0177947 0)
(5.01457 0.0220332 0)
(5.02141 0.0248771 0)
(5.02831 0.0266384 0)
(5.03515 0.0274731 0)
(5.04177 0.0275677 0)
(5.04807 0.0271063 0)
(5.05403 0.0262152 0)
(5.05964 0.0249736 0)
(5.0649 0.0234363 0)
(5.06981 0.0216426 0)
(5.07435 0.0196231 0)
(5.07851 0.0174072 0)
(5.08226 0.01503 0)
(5.08558 0.012539 0)
(5.0885 0.00999912 0)
(5.00024 0.00333907 0)
(5.00253 0.00971393 0)
(5.00695 0.014883 0)
(5.01268 0.018584 0)
(5.01888 0.0210892 0)
(5.02523 0.0226431 0)
(5.03158 0.023387 0)
(5.03779 0.023469 0)
(5.04376 0.023038 0)
(5.04943 0.0222041 0)
(5.05479 0.021042 0)
(5.05983 0.0196051 0)
(5.06453 0.0179361 0)
(5.06887 0.0160701 0)
(5.07286 0.014042 0)
(5.07646 0.011889 0)
(5.07967 0.00965504 0)
(5.08253 0.00739645 0)
(5.00022 0.00264251 0)
(5.00216 0.00765839 0)
(5.00591 0.0118033 0)
(5.0109 0.0148429 0)
(5.01644 0.0169102 0)
(5.02221 0.0181792 0)
(5.02804 0.0187685 0)
(5.03379 0.0187913 0)
(5.03937 0.0183615 0)
(5.0447 0.0175711 0)
(5.04976 0.0164871 0)
(5.05452 0.0151601 0)
(5.05897 0.0136319 0)
(5.06309 0.0119401 0)
(5.06687 0.01012 0)
(5.07031 0.00820833 0)
(5.0734 0.00624242 0)
(5.07618 0.00426983 0)
(5.00019 0.00192055 0)
(5.00183 0.00554361 0)
(5.00501 0.00857563 0)
(5.00932 0.0108292 0)
(5.01423 0.0123506 0)
(5.01941 0.0132481 0)
(5.02471 0.0136101 0)
(5.02999 0.0135181 0)
(5.03514 0.0130536 0)
(5.0401 0.0122877 0)
(5.04483 0.0112762 0)
(5.04928 0.0100638 0)
(5.05346 0.00868854 0)
(5.05733 0.00718539 0)
(5.0609 0.00558709 0)
(5.06416 0.00392597 0)
(5.06711 0.00223256 0)
(5.0698 0.000543891 0)
(5.00016 0.00117339 0)
(5.00156 0.00336455 0)
(5.00427 0.00519942 0)
(5.00801 0.00654566 0)
(5.01235 0.00740678 0)
(5.01701 0.00783793 0)
(5.02182 0.00789355 0)
(5.02664 0.00762489 0)
(5.03139 0.00708392 0)
(5.03598 0.00631836 0)
(5.04036 0.00536938 0)
(5.04452 0.00427132 0)
(5.04841 0.0030551 0)
(5.05205 0.00174857 0)
(5.05541 0.000378796 0)
(5.05849 -0.00102925 0)
(5.06131 -0.00245209 0)
(5.06389 -0.00386307 0)
(5.00014 0.000388807 0)
(5.00136 0.00107798 0)
(5.00375 0.00161676 0)
(5.00708 0.00193046 0)
(5.01099 0.00200982 0)
(5.01523 0.00187163 0)
(5.01964 0.00153587 0)
(5.02409 0.00102387 0)
(5.02849 0.000359306 0)
(5.03275 -0.000434486 0)
(5.03685 -0.00133566 0)
(5.04073 -0.00232416 0)
(5.04439 -0.00338081 0)
(5.04781 -0.00448748 0)
(5.05099 -0.00562647 0)
(5.05393 -0.00678105 0)
(5.05663 -0.00793613 0)
(5.05911 -0.00907365 0)
(5.00013 -0.000471027 0)
(5.00127 -0.00142641 0)
(5.00352 -0.00232866 0)
(5.00666 -0.00318791 0)
(5.01038 -0.00401112 0)
(5.01442 -0.00481591 0)
(5.01861 -0.00561912 0)
(5.02284 -0.0064317 0)
(5.02703 -0.00725928 0)
(5.03109 -0.00810606 0)
(5.03499 -0.00897288 0)
(5.0387 -0.00985846 0)
(5.04219 -0.0107583 0)
(5.04546 -0.0116673 0)
(5.04851 -0.0125783 0)
(5.05134 -0.0134846 0)
(5.05396 -0.0143791 0)
(5.05638 -0.0152523 0)
(5.00014 -0.0012861 0)
(5.00135 -0.00380689 0)
(5.00372 -0.00608826 0)
(5.00705 -0.00805458 0)
(5.01093 -0.00971071 0)
(5.01509 -0.0111189 0)
(5.01937 -0.0123367 0)
(5.02366 -0.0134042 0)
(5.02787 -0.0143585 0)
(5.03193 -0.0152324 0)
(5.03581 -0.0160516 0)
(5.03948 -0.0168319 0)
(5.04293 -0.0175844 0)
(5.04616 -0.0183146 0)
(5.04916 -0.0190264 0)
(5.05196 -0.01972 0)
(5.05455 -0.0203957 0)
(5.05694 -0.0210489 0)
(5.00015 -0.00198462 0)
(5.00148 -0.00588557 0)
(5.00415 -0.00937783 0)
(5.00787 -0.0122491 0)
(5.01212 -0.0145344 0)
(5.01659 -0.0163804 0)
(5.02111 -0.0178838 0)
(5.0256 -0.0191052 0)
(5.02995 -0.0201107 0)
(5.03411 -0.0209627 0)
(5.03805 -0.0217081 0)
(5.04176 -0.0223775 0)
(5.04522 -0.022993 0)
(5.04846 -0.023569 0)
(5.05146 -0.0241161 0)
(5.05425 -0.0246398 0)
(5.05683 -0.0251438 0)
(5.05921 -0.0256273 0)
(5.00015 -0.0026363 0)
(5.00163 -0.00793902 0)
(5.00476 -0.012666 0)
(5.0091 -0.0163569 0)
(5.01389 -0.0191478 0)
(5.01876 -0.0213226 0)
(5.02362 -0.0230133 0)
(5.02839 -0.0243036 0)
(5.03295 -0.0252952 0)
(5.03726 -0.0260802 0)
(5.04129 -0.026721 0)
(5.04506 -0.027261 0)
(5.04856 -0.0277307 0)
(5.05181 -0.0281537 0)
(5.05482 -0.0285437 0)
(5.0576 -0.0289114 0)
(5.06017 -0.0292607 0)
(5.06254 -0.0295946 0)
(5.00011 -0.00323457 0)
(5.0017 -0.0100364 0)
(5.00546 -0.0159993 0)
(5.01064 -0.0203915 0)
(5.01607 -0.0236187 0)
(5.0214 -0.0260689 0)
(5.02666 -0.0278568 0)
(5.03174 -0.0291143 0)
(5.03653 -0.030013 0)
(5.04099 -0.0306775 0)
(5.04513 -0.0311801 0)
(5.04897 -0.0315701 0)
(5.05251 -0.0318863 0)
(5.05578 -0.0321566 0)
(5.0588 -0.0323985 0)
(5.06157 -0.0326227 0)
(5.06414 -0.0328348 0)
(5.06649 -0.0330366 0)
(5.00005 -0.00376027 0)
(5.00166 -0.0125515 0)
(5.00622 -0.0195915 0)
(5.01233 -0.024247 0)
(5.0184 -0.0277598 0)
(5.02426 -0.030495 0)
(5.03 -0.0323736 0)
(5.03546 -0.0335628 0)
(5.0405 -0.0343291 0)
(5.04514 -0.0348383 0)
(5.04942 -0.0351737 0)
(5.05335 -0.0353922 0)
(5.05695 -0.0355408 0)
(5.06025 -0.0356512 0)
(5.06327 -0.0357436 0)
(5.06604 -0.0358277 0)
(5.06859 -0.0359096 0)
(5.07091 -0.0359875 0)
(4.99981 -0.0035105 0)
(5.00116 -0.0157707 0)
(5.00698 -0.0242777 0)
(5.01413 -0.0286218 0)
(5.02074 -0.0318589 0)
(5.02723 -0.0345473 0)
(5.03367 -0.0363843 0)
(5.03969 -0.0374969 0)
(5.04511 -0.0381679 0)
(5.05002 -0.0385621 0)
(5.05448 -0.0387623 0)
(5.05852 -0.0388332 0)
(5.06218 -0.0388291 0)
(5.06548 -0.0387876 0)
(5.06845 -0.0387316 0)
(5.07114 -0.0386746 0)
(5.07358 -0.0386222 0)
(5.07577 -0.0385734 0)
(4.99829 -0.000227139 0)
(4.99838 -0.0165059 0)
(5.00712 -0.0286042 0)
(5.01659 -0.0343549 0)
(5.02423 -0.0376139 0)
(5.03155 -0.0396278 0)
(5.03883 -0.0406975 0)
(5.04551 -0.0412232 0)
(5.05138 -0.0414819 0)
(5.05656 -0.0415685 0)
(5.06115 -0.0415253 0)
(5.06518 -0.0413966 0)
(5.0687 -0.0412243 0)
(5.07175 -0.0410352 0)
(5.07439 -0.0408465 0)
(5.07666 -0.0406702 0)
(5.07862 -0.0405087 0)
(5.08029 -0.0403595 0)
(4.99438 0.00176779 0)
(4.99228 -0.0104742 0)
(5.00584 -0.0233486 0)
(5.02033 -0.0348083 0)
(5.03131 -0.0429201 0)
(5.04069 -0.0469493 0)
(5.0491 -0.0482519 0)
(5.0562 -0.0483194 0)
(5.06201 -0.0478795 0)
(5.06676 -0.0471883 0)
(5.07059 -0.0463728 0)
(5.07357 -0.0455279 0)
(5.07579 -0.0447141 0)
(5.07732 -0.0439582 0)
(5.07828 -0.043275 0)
(5.07873 -0.0426732 0)
(5.07877 -0.04215 0)
(5.07845 -0.0417124 0)
(4.99485 -0.0276013 0)
(4.99719 -0.0243541 0)
(5.01304 -0.00748321 0)
(5.03033 -0.00728691 0)
(5.04561 -0.0166018 0)
(5.05838 -0.0256113 0)
(5.06767 -0.0319777 0)
(5.07322 -0.0362963 0)
(5.07561 -0.0391558 0)
(5.07559 -0.0408779 0)
(5.07363 -0.0417569 0)
(5.07008 -0.0420603 0)
(5.06526 -0.0419919 0)
(5.05943 -0.0416885 0)
(5.05284 -0.0412513 0)
(5.04567 -0.0407588 0)
(5.0381 -0.0402619 0)
(5.03033 -0.0398589 0)
(5.03832 -0.173438 0)
(5.08573 -0.276067 0)
(5.09642 -0.240777 0)
(5.08887 -0.185385 0)
(5.07811 -0.142631 0)
(5.0646 -0.112141 0)
(5.04527 -0.0903554 0)
(5.0201 -0.0749132 0)
(4.99087 -0.0639125 0)
(4.95921 -0.0558638 0)
(4.92631 -0.0497861 0)
(4.89295 -0.0450794 0)
(4.85973 -0.0413591 0)
(4.8271 -0.0383626 0)
(4.79531 -0.0359142 0)
(4.76457 -0.0339101 0)
(4.73493 -0.0322698 0)
(4.70673 -0.0311202 0)
(4.9293 0.663073 0)
(4.86224 0.581854 0)
(4.75214 0.361616 0)
(4.60184 0.204092 0)
(4.44636 0.108781 0)
(4.30296 0.054294 0)
(4.17472 0.0239812 0)
(4.06104 0.00732323 0)
(3.96098 -0.00174356 0)
(3.87334 -0.00652024 0)
(3.79644 -0.00885282 0)
(3.72866 -0.0098081 0)
(3.66859 -0.00999879 0)
(3.61514 -0.00978154 0)
(3.56726 -0.00936283 0)
(3.5242 -0.0088763 0)
(3.48501 -0.00839682 0)
(3.44955 -0.00813445 0)
(0.0012337 -0.00211366 1.48184e-16)
(0.00765367 -0.00907146 -1.2765e-16)
(0.0168106 -0.0135335 0)
(0.0271264 -0.0149209 0)
(0.0366935 -0.0137887 0)
(0.0445511 -0.0112009 7.16839e-17)
(0.050263 -0.00793532 0)
(0.0536478 -0.00442816 0)
(0.0546847 -0.000920764 0)
(0.0532169 0.00237224 0)
(0.049548 0.00524646 -6.48421e-17)
(0.0439919 0.00761646 0)
(0.0368461 0.00946957 0)
(0.0283727 0.0108766 0)
(0.0187692 0.0119809 0)
(0.00816531 0.0129469 -7.64766e-17)
(-0.00336661 0.0138359 0)
(-0.0158212 0.0146168 0)
(-0.0293204 0.0153382 0)
(-0.0440128 0.0161318 0)
(-0.0600052 0.0170648 0)
(-0.0774157 0.0181647 0)
(-0.0963657 0.0194188 0)
(-0.116948 0.0208053 -4.30889e-17)
(-0.13922 0.022279 3.94792e-17)
(-0.163191 0.0237921 -3.62345e-17)
(-0.188818 0.0252868 -3.3317e-17)
(-0.216002 0.0267132 0)
(-0.244602 0.0280137 0)
(-0.274435 0.0291454 2.63148e-17)
(-0.305289 0.0300668 2.44755e-17)
(-0.336917 0.030752 0)
(-0.369064 0.0311814 0)
(-0.401478 0.0313561 2.01264e-17)
(-0.433919 0.0312794 0)
(-0.466163 0.0309718 0)
(-0.498015 0.0304525 -1.71018e-17)
(-0.52931 0.029754 0)
(-0.559917 0.0289042 -1.56053e-17)
(-0.589733 0.0279417 -2.99512e-17)
(-0.618688 0.0268965 0)
(-0.646736 0.0258059 0)
(-0.673852 0.0246954 0)
(-0.70003 0.0235945 0)
(-0.725279 0.0225214 0)
(-0.749613 0.0215154 -2.46269e-17)
(-0.773128 0.0205763 -2.39939e-17)
(-0.795874 0.0196941 -2.3412e-17)
(-0.817902 0.0188673 0)
(-0.839259 0.018095 2.23759e-17)
(-0.859995 0.0173707 0)
(-0.880156 0.0166956 -2.14791e-17)
(-0.899787 0.0160637 -2.10733e-17)
(-0.918928 0.0154762 0)
(-0.93762 0.0149268 0)
(-0.9559 0.014417 0)
(-0.973802 0.0139419 -1.96717e-17)
(-0.991357 0.0135031 0)
(-1.0086 0.0130959 0)
(-1.02555 0.0127221 0)
(-1.04225 0.0123782 0)
(-1.05872 0.0120662 0)
(-1.07498 0.0117827 0)
(-1.09106 0.0115286 0)
(-1.10699 0.0113005 0)
(-1.12278 0.0110993 1.7347e-17)
(-1.13846 0.0109233 0)
(-1.15406 0.0107729 0)
(-1.16958 0.010647 -1.67288e-17)
(-1.18505 0.0105453 -1.65345e-17)
(-1.2005 0.010467 0)
(-1.21594 0.010411 1.61614e-17)
(-1.23138 0.0103772 -1.59818e-17)
(-1.24685 0.0103636 0)
(-1.26237 0.0103716 1.56345e-17)
(-1.27794 0.0103991 0)
(-1.29357 0.0104504 0)
(-1.30926 0.0105282 -1.51405e-17)
(-1.32502 0.0106436 0)
(-1.34086 0.0107772 1.48282e-17)
(-1.35678 0.0108927 0)
(-1.37275 0.0109973 -1.45285e-17)
(-1.38875 0.0111484 -1.4383e-17)
(-1.40479 0.0113034 -1.42401e-17)
(-1.42084 0.0114152 -2.82017e-17)
(-1.43686 0.0114991 2.79288e-17)
(-1.4528 0.0115567 0)
(-1.46861 0.0115553 0)
(-1.48421 0.0115005 0)
(-1.49952 0.0113694 2.69179e-17)
(-1.51454 0.0111658 2.66875e-17)
(-1.52918 0.0108587 -2.64673e-17)
(-1.54335 0.010505 0)
(-1.55694 0.0101421 2.60723e-17)
(-1.56985 0.00950891 2.58971e-17)
(-1.5819 0.00878672 2.57311e-17)
(-1.59293 0.00810758 0)
(-1.60281 0.00734313 0)
(-1.61132 0.00657426 0)
(-1.61828 0.00575356 2.52499e-17)
(-1.62347 0.00489112 0)
(-1.62673 0.00400838 0)
(-1.62809 0.00303006 -2.51071e-17)
(-1.62763 0.00205738 0)
(-1.62522 0.000832255 0)
(-1.62075 -4.33901e-05 -2.51144e-17)
(-1.61427 -0.00105696 0)
(-1.60541 -0.00244407 0)
(-1.59427 -0.00315362 2.53685e-17)
(-1.58086 -0.00412371 2.55176e-17)
(-1.56493 -0.00544821 0)
(-1.54637 -0.00685244 -2.59106e-17)
(-1.52512 -0.00828648 0)
(-1.5012 -0.00955502 2.64583e-17)
(-1.4746 -0.0110403 0)
(-1.44516 -0.0126369 2.71917e-17)
(-1.413 -0.0141292 2.76212e-17)
(-1.37804 -0.0157679 0)
(-1.34032 -0.0174095 0)
(-1.29987 -0.0190997 0)
(-1.25679 -0.0208084 0)
(-1.21116 -0.0225373 0)
(-1.16303 -0.024262 0)
(-1.11251 -0.0259749 0)
(-1.05969 -0.0276536 3.35372e-17)
(-1.00473 -0.0292946 -3.47058e-17)
(-0.947785 -0.0308801 0)
(-0.889031 -0.0324053 0)
(-0.828663 -0.0338573 0)
(-0.766878 -0.0352287 0)
(-0.703883 -0.0365142 -8.58437e-17)
(-0.639887 -0.0377126 0)
(-0.575096 -0.0388277 9.55509e-17)
(-0.509715 -0.0398603 -1.0138e-16)
(-0.443936 -0.0408222 0)
(-0.377948 -0.0417134 0)
(-0.311933 -0.0425572 0)
(-0.246094 -0.0433291 1.34478e-16)
(-0.180617 -0.0440349 1.46353e-16)
(-0.115705 -0.0447468 0)
(-0.0511183 -0.0450186 1.70288e-16)
(0.0143796 -0.0440694 1.64545e-16)
(0.0798661 -0.0421791 -1.51768e-16)
(0.143973 -0.0400928 0)
(0.20654 -0.0380284 0)
(0.267323 -0.036029 -1.24854e-16)
(0.326203 -0.0341066 0)
(0.383114 -0.0322652 0)
(0.438007 -0.0304961 0)
(0.490865 -0.0288057 0)
(0.54168 -0.0271966 1.00261e-16)
(0.59045 -0.0256484 9.70193e-17)
(0.637191 -0.0241624 0)
(0.681918 -0.0227502 9.15524e-17)
(0.724675 -0.0214147 0)
(0.765479 -0.0201091 0)
(0.804225 -0.0188217 8.5386e-17)
(0.840975 -0.0175847 0)
(0.875801 -0.0164109 8.22751e-17)
(0.908764 -0.0152995 0)
(0.939922 -0.0142457 0)
(0.969334 -0.0132458 7.87204e-17)
(0.997057 -0.0122995 0)
(1.02315 -0.0114042 7.69206e-17)
(1.04768 -0.0105586 0)
(1.0707 -0.00975969 0)
(1.09227 -0.00900515 0)
(1.11244 -0.00828989 -7.43319e-17)
(1.13124 -0.00760916 0)
(1.14871 -0.00695484 7.34422e-17)
(1.16483 -0.0063184 0)
(1.17959 -0.00568479 0)
(1.19288 -0.00503742 0)
(1.20455 -0.00433272 0)
(1.21424 -0.00352924 0)
(1.22135 -0.00238274 0)
(1.2244 -0.000393042 0)
(1.2171 0.00285482 -1.46429e-16)
(1.20397 0.00944265 0)
(1.13567 0.0180204 0)
(0.00462139 -0.0171772 -3.41759e-16)
(0.0145425 -0.0289857 1.89868e-16)
(0.0210311 -0.0300875 0)
(0.0260307 -0.0275201 -5.83968e-17)
(0.0292358 -0.022802 0)
(0.0306331 -0.0168291 -2.24045e-17)
(0.0303676 -0.0102347 4.21296e-17)
(0.0285209 -0.00344349 4.06173e-17)
(0.0251152 0.00325957 0)
(0.0202041 0.00962162 3.91864e-17)
(0.0136939 0.0154291 1.95372e-17)
(0.00553518 0.0205744 0)
(-0.00429121 0.0250583 0)
(-0.0157883 0.0289733 0)
(-0.0289523 0.0324592 0)
(-0.0437872 0.0356762 1.80448e-17)
(-0.0603024 0.0387712 0)
(-0.0784589 0.0418653 -3.37039e-17)
(-0.0982065 0.0450561 0)
(-0.119541 0.0484134 0)
(-0.142455 0.0519559 3.01199e-17)
(-0.166906 0.055658 0)
(-0.19282 0.0594484 -2.77009e-17)
(-0.220089 0.0632292 1.32516e-17)
(-0.248566 0.0668824 -1.26634e-17)
(-0.278069 0.0702896 1.2091e-17)
(-0.308388 0.0733345 1.1539e-17)
(-0.339296 0.075923 0)
(-0.370556 0.0779805 0)
(-0.401939 0.0794537 -1.00392e-17)
(-0.433223 0.080299 9.59714e-18)
(-0.464206 0.0805179 0)
(-0.494721 0.0801389 0)
(-0.52463 0.0792195 -8.44973e-18)
(-0.553825 0.0778273 0)
(-0.58223 0.0760434 0)
(-0.609793 0.0739448 7.54933e-18)
(-0.636484 0.0716119 0)
(-0.662297 0.0691139 -7.06514e-18)
(-0.68724 0.0665196 1.3705e-17)
(-0.711336 0.0638835 0)
(-0.73462 0.0612583 0)
(-0.757135 0.0586832 2.52578e-17)
(-0.778927 0.0561973 2.46541e-17)
(-0.800044 0.0538268 2.40984e-17)
(-0.820527 0.0515986 -1.17925e-17)
(-0.840412 0.0495172 1.1554e-17)
(-0.859735 0.047579 3.39966e-17)
(-0.878531 0.0457747 -2.22505e-17)
(-0.896838 0.0440996 -1.09316e-17)
(-0.914692 0.0425429 0)
(-0.932129 0.0410998 1.05798e-17)
(-0.94918 0.0397602 -1.04195e-17)
(-0.965879 0.0385198 0)
(-0.982255 0.0373691 0)
(-0.998334 0.0363046 0)
(-1.01414 0.0353181 9.86122e-18)
(-1.02971 0.0344071 0)
(-1.04505 0.0335644 -1.92461e-17)
(-1.06019 0.0327878 0)
(-1.07515 0.0320714 -1.88127e-17)
(-1.08994 0.031414 0)
(-1.1046 0.0308105 1.84155e-17)
(-1.11913 0.0302593 0)
(-1.13356 0.0297564 -1.80496e-17)
(-1.1479 0.0293003 8.93901e-18)
(-1.16216 0.0288878 0)
(-1.17636 0.0285171 1.75548e-17)
(-1.19052 0.0281855 8.70129e-18)
(-1.20464 0.0278897 8.62809e-18)
(-1.21873 0.0276268 0)
(-1.23281 0.0273921 8.48975e-18)
(-1.24688 0.0271824 8.42409e-18)
(-1.26094 0.026991 0)
(-1.275 0.0268145 -8.29952e-18)
(-1.28905 0.0266458 1.64806e-17)
(-1.30311 0.026484 0)
(-1.31715 0.026324 8.12744e-18)
(-1.33117 0.0261654 0)
(-1.34516 0.0259998 -2.40653e-17)
(-1.35909 0.0258241 0)
(-1.37295 0.0256241 2.37642e-17)
(-1.3867 0.0253969 7.8724e-18)
(-1.40032 0.0251324 -7.8248e-18)
(-1.41375 0.0248261 -1.55561e-17)
(-1.42697 0.0244604 1.54644e-17)
(-1.43991 0.0240349 0)
(-1.45251 0.0235358 0)
(-1.46469 0.0229585 0)
(-1.47637 0.0222818 -4.53591e-17)
(-1.48751 0.0214778 -1.50409e-17)
(-1.49806 0.020532 1.49665e-17)
(-1.50791 0.0194339 0)
(-1.51696 0.0181905 1.48356e-17)
(-1.52512 0.0167901 -1.47723e-17)
(-1.53231 0.0152133 -1.47073e-17)
(-1.53844 0.0134498 0)
(-1.54345 0.0115051 0)
(-1.5473 0.00937473 0)
(-1.54998 0.00708676 -1.44798e-17)
(-1.55147 0.00467256 0)
(-1.55177 0.00219027 2.87749e-17)
(-1.55069 -0.000334337 4.30217e-17)
(-1.54791 -0.00292002 -2.85971e-17)
(-1.54327 -0.00557441 0)
(-1.53666 -0.00834537 -1.42166e-17)
(-1.52786 -0.0111805 0)
(-1.51688 -0.0140749 -2.84014e-17)
(-1.50357 -0.017077 1.41943e-17)
(-1.48773 -0.0201481 1.42028e-17)
(-1.46936 -0.0232732 0)
(-1.44843 -0.0264543 4.27001e-17)
(-1.42486 -0.0296395 -2.85436e-17)
(-1.39856 -0.032817 -1.43306e-17)
(-1.36946 -0.0359588 0)
(-1.33759 -0.0390815 -1.44874e-17)
(-1.30292 -0.0421949 -4.37079e-17)
(-1.26542 -0.0452603 0)
(-1.22514 -0.048242 -2.95489e-17)
(-1.18209 -0.0511261 -2.98105e-17)
(-1.13636 -0.053897 -3.01071e-17)
(-1.08802 -0.0565464 0)
(-1.03715 -0.0590451 0)
(-0.983862 -0.0613812 0)
(-0.928255 -0.063527 1.58434e-17)
(-0.870478 -0.0654763 1.60989e-17)
(-0.810698 -0.0672121 0)
(-0.7491 -0.068732 3.33718e-17)
(-0.685878 -0.0700252 3.40438e-17)
(-0.621238 -0.0710918 0)
(-0.555394 -0.0719326 3.55693e-17)
(-0.488563 -0.0725528 7.28554e-17)
(-0.420964 -0.0729603 -3.73601e-17)
(-0.352814 -0.0731674 -3.83642e-17)
(-0.284324 -0.073193 0)
(-0.215695 -0.0730481 0)
(-0.147109 -0.0727577 0)
(-0.0787579 -0.0723631 -4.31764e-17)
(-0.0104226 -0.0719438 4.33979e-17)
(0.0576749 -0.0715824 8.52108e-17)
(0.124693 -0.0710019 -4.19663e-17)
(0.190081 -0.0696437 4.1462e-17)
(0.25368 -0.0675439 4.1054e-17)
(0.315703 -0.0651071 0)
(0.376221 -0.0625279 0)
(0.435138 -0.0598969 -4.01204e-17)
(0.492367 -0.0572568 0)
(0.547837 -0.0546383 0)
(0.601495 -0.0520556 7.90116e-17)
(0.653312 -0.0495242 0)
(0.703266 -0.0470528 3.92323e-17)
(0.751345 -0.0446431 -3.91352e-17)
(0.797552 -0.0422965 0)
(0.841896 -0.0400245 3.89677e-17)
(0.884378 -0.03782 0)
(0.925025 -0.0356627 0)
(0.963872 -0.0335563 -3.88678e-17)
(1.00096 -0.0315297 7.77464e-17)
(1.03631 -0.0295952 -3.88935e-17)
(1.06998 -0.0277507 0)
(1.10199 -0.0259882 0)
(1.1324 -0.0243079 3.90441e-17)
(1.16127 -0.0227102 0)
(1.18863 -0.0211925 3.92038e-17)
(1.21455 -0.0197525 0)
(1.23908 -0.018387 0)
(1.26226 -0.0170899 0)
(1.28413 -0.0158527 3.96327e-17)
(1.30474 -0.0146639 0)
(1.3241 -0.0135077 -3.98964e-17)
(1.34221 -0.0123634 0)
(1.35903 -0.0112016 0)
(1.37449 -0.00997584 8.07512e-17)
(1.38845 -0.00860906 -8.11354e-17)
(1.40068 -0.00696522 0)
(1.41057 -0.00470064 0)
(1.4185 -0.00109772 0)
(1.42254 0.00472026 2.50212e-16)
(1.42589 0.0157233 0)
(1.41269 0.0347331 -1.7218e-16)
(0.00391489 -0.0361138 -2.82326e-22)
(0.0109115 -0.0440621 -1.91708e-16)
(0.0132875 -0.0385995 0)
(0.0141924 -0.0309079 7.97165e-17)
(0.0133375 -0.0223176 0)
(0.0109149 -0.0132232 0)
(0.00714625 -0.00390238 3.78321e-23)
(0.0021434 0.00542247 -2.47831e-17)
(-0.00407696 0.0145684 -2.36631e-17)
(-0.0115466 0.023395 -2.27739e-17)
(-0.0203269 0.0317845 0)
(-0.030493 0.0396491 0)
(-0.0421252 0.0469542 2.10162e-17)
(-0.0552945 0.053732 4.11019e-17)
(-0.0700522 0.060074 -4.0174e-17)
(-0.086423 0.0661073 0)
(-0.104398 0.0719673 -3.82323e-17)
(-0.123933 0.0777702 1.86024e-17)
(-0.144953 0.0835842 0)
(-0.167359 0.0894231 -3.50397e-17)
(-0.191029 0.0952504 -1.69553e-17)
(-0.215819 0.100983 3.27631e-17)
(-0.241562 0.1065 1.58037e-17)
(-0.268072 0.111661 0)
(-0.295158 0.116319 -2.93167e-17)
(-0.322625 0.120339 -2.8201e-17)
(-0.350281 0.123605 0)
(-0.377951 0.126033 -2.60695e-17)
(-0.405473 0.12757 0)
(-0.432694 0.128206 -2.40811e-17)
(-0.459496 0.127966 -1.15764e-17)
(-0.4858 0.126907 0)
(-0.511546 0.12511 0)
(-0.536695 0.122679 0)
(-0.561221 0.119723 0)
(-0.585114 0.116356 0)
(-0.608371 0.112685 0)
(-0.630999 0.108812 -1.81563e-17)
(-0.65301 0.104824 2.64488e-17)
(-0.674422 0.100801 0)
(-0.695256 0.0968072 0)
(-0.715533 0.0928979 0)
(-0.735276 0.0891155 1.02952e-22)
(-0.754509 0.0854931 -1.55457e-17)
(-0.773251 0.0820529 -3.04308e-17)
(-0.791521 0.0788095 2.98159e-17)
(-0.809337 0.0757656 1.46212e-17)
(-0.826717 0.0729186 -1.43532e-17)
(-0.843681 0.0702613 -9.3438e-23)
(-0.860251 0.0677858 -1.38671e-17)
(-0.876449 0.0654818 0)
(-0.892298 0.0633397 -1.34381e-17)
(-0.90782 0.0613491 -8.46262e-23)
(-0.923036 0.0595007 0)
(-0.937967 0.0577847 0)
(-0.952634 0.0561929 1.27161e-17)
(-0.967056 0.0547168 0)
(-0.981252 0.0533494 0)
(-0.99524 0.0520836 -1.22675e-17)
(-1.00904 0.0509134 -2.42644e-17)
(-1.02266 0.0498328 1.20032e-17)
(-1.03612 0.0488371 0)
(-1.04944 0.0479212 -1.17624e-17)
(-1.06264 0.0470805 0)
(-1.07572 0.0463108 -1.15425e-17)
(-1.08869 0.0456079 -1.14394e-17)
(-1.10158 0.0449677 2.2682e-17)
(-1.1144 0.0443858 1.12467e-17)
(-1.12715 0.0438581 0)
(-1.13984 0.043379 -2.21392e-17)
(-1.15248 0.0429436 0)
(-1.16509 0.0425452 -3.27204e-17)
(-1.17766 0.042178 -2.16607e-17)
(-1.1902 0.0418336 -2.15138e-17)
(-1.20271 0.0415057 2.13728e-17)
(-1.2152 0.0411862 -3.1856e-17)
(-1.22766 0.0408702 0)
(-1.24008 0.04055 0)
(-1.25246 0.0402188 2.08617e-17)
(-1.26478 0.0398631 3.11181e-17)
(-1.27703 0.0394692 0)
(-1.2892 0.0390222 -1.02615e-17)
(-1.30125 0.0385184 0)
(-1.31315 0.0379435 3.04695e-17)
(-1.32488 0.0372823 -1.71257e-22)
(-1.3364 0.0365189 1.77257e-22)
(-1.34767 0.0356453 -2.00193e-17)
(-1.35862 0.0346467 0)
(-1.36919 0.0335133 1.98376e-17)
(-1.37933 0.0322252 -1.96671e-22)
(-1.38897 0.03076 0)
(-1.39809 0.0291005 0)
(-1.40661 0.0272408 0)
(-1.41443 0.0251782 -1.94407e-17)
(-1.4215 0.0228915 0)
(-1.42773 0.0203752 0)
(-1.43305 0.0176465 0)
(-1.43738 0.0147073 0)
(-1.44063 0.0115689 0)
(-1.44271 0.00824111 -1.90262e-17)
(-1.44352 0.00472373 0)
(-1.44293 0.00100792 -1.88895e-17)
(-1.4408 -0.00292391 -1.88196e-17)
(-1.43698 -0.00705135 1.87523e-17)
(-1.43134 -0.0113597 0)
(-1.42376 -0.0158193 1.86299e-17)
(-1.41404 -0.0204186 0)
(-1.40218 -0.0251412 1.8552e-17)
(-1.38799 -0.0299752 -1.85193e-17)
(-1.37136 -0.0349089 -5.54832e-17)
(-1.35225 -0.0399433 0)
(-1.33059 -0.0450434 -5.53589e-17)
(-1.30631 -0.0501752 -1.84529e-17)
(-1.27934 -0.0552919 0)
(-1.24959 -0.0603807 -3.70283e-17)
(-1.21711 -0.0654101 -3.70975e-17)
(-1.18184 -0.0703736 5.57803e-17)
(-1.1438 -0.0752325 0)
(-1.10298 -0.0799527 1.87208e-17)
(-1.05944 -0.0844981 1.8809e-17)
(-1.01324 -0.0888421 5.67396e-17)
(-0.964455 -0.0929562 0)
(-0.913181 -0.0968046 0)
(-0.859515 -0.100356 0)
(-0.803583 -0.10358 1.95123e-17)
(-0.745533 -0.106455 0)
(-0.685536 -0.108961 0)
(-0.623778 -0.111086 -2.01845e-17)
(-0.560459 -0.112819 -2.04552e-17)
(-0.495787 -0.114154 0)
(-0.429981 -0.115092 0)
(-0.363261 -0.115641 -4.28347e-17)
(-0.295849 -0.115813 0)
(-0.227965 -0.115628 4.4386e-17)
(-0.159817 -0.115111 4.5245e-17)
(-0.0916168 -0.114297 0)
(-0.0234504 -0.113249 0)
(0.0444572 -0.111991 -4.63634e-17)
(0.111702 -0.110453 -2.14464e-21)
(0.177997 -0.108592 -2.1117e-21)
(0.243077 -0.106435 0)
(0.306712 -0.103949 -9.12831e-17)
(0.36881 -0.101081 0)
(0.42939 -0.0978928 0)
(0.488421 -0.094496 0)
(0.545833 -0.0909733 4.58008e-17)
(0.601558 -0.0873796 0)
(0.655538 -0.0837573 -9.20727e-17)
(0.707731 -0.0801351 -4.61861e-17)
(0.758111 -0.0765394 0)
(0.806658 -0.0729894 -4.65286e-17)
(0.853367 -0.069496 0)
(0.89824 -0.0660644 0)
(0.941287 -0.0627098 -1.41328e-16)
(0.982522 -0.059439 9.46211e-17)
(1.02199 -0.0562473 0)
(1.05973 -0.0531382 9.55299e-17)
(1.0958 -0.0501304 -4.80046e-17)
(1.13022 -0.047238 0)
(1.16303 -0.0444625 0)
(1.19427 -0.0418002 0)
(1.22399 -0.0392519 -1.47147e-16)
(1.25225 -0.036819 0)
(1.27909 -0.0344997 -4.96159e-17)
(1.30456 -0.0322919 0)
(1.32871 -0.0301911 0)
(1.35159 -0.0281884 0)
(1.37325 -0.0262713 0)
(1.3937 -0.0244228 0)
(1.41298 -0.0226198 0)
(1.43108 -0.020831 -1.03509e-16)
(1.44797 -0.0190118 0)
(1.46361 -0.0170935 -5.24401e-17)
(1.47787 -0.0149669 1.58422e-16)
(1.4906 -0.012434 0)
(1.50139 -0.00916764 0)
(1.51017 -0.00448506 -1.08387e-16)
(1.51592 0.00268373 -1.09341e-16)
(1.52088 0.0150695 1.10061e-16)
(1.51872 0.0370231 1.12788e-16)
(0.00170556 -0.0476912 5.11879e-16)
(0.00404266 -0.0486638 2.40985e-16)
(0.0025317 -0.038447 9.0823e-17)
(5.5063e-05 -0.0272016 3.21974e-17)
(-0.0037324 -0.0157414 0)
(-0.00868177 -0.00417835 -4.47403e-17)
(-0.0146737 0.00740739 2.01132e-17)
(-0.0216596 0.0189218 0)
(-0.0296559 0.0302706 1.75007e-17)
(-0.0387094 0.0413598 0)
(-0.0488828 0.0521018 -3.23264e-17)
(-0.0602472 0.0624267 0)
(-0.0728754 0.0722963 -1.53302e-17)
(-0.0868305 0.0817123 -2.99688e-17)
(-0.102153 0.0907135 2.92997e-17)
(-0.11885 0.0993617 0)
(-0.136889 0.107721 2.792e-17)
(-0.156202 0.115838 0)
(-0.176683 0.123721 0)
(-0.1982 0.131336 2.56238e-17)
(-0.220598 0.138609 0)
(-0.243707 0.145431 5.12144e-23)
(-0.267353 0.151673 0)
(-0.29136 0.157198 0)
(-0.31556 0.161879 -4.25637e-23)
(-0.339801 0.165611 2.07221e-17)
(-0.363947 0.168318 1.99502e-17)
(-0.387884 0.169961 1.92048e-17)
(-0.411523 0.170537 0)
(-0.434798 0.170081 3.56331e-17)
(-0.457669 0.168669 0)
(-0.480105 0.1664 1.65801e-17)
(-0.502091 0.163388 0)
(-0.523621 0.159751 0)
(-0.544693 0.155613 -1.49966e-17)
(-0.565308 0.151092 0)
(-0.585472 0.146301 1.41033e-17)
(-0.605188 0.141342 -3.89376e-23)
(-0.624465 0.136305 -2.66516e-17)
(-0.643312 0.131268 2.59559e-17)
(-0.661736 0.126297 0)
(-0.679746 0.121444 0)
(-0.697349 0.11675 1.20744e-17)
(-0.714555 0.112247 0)
(-0.731369 0.107954 1.15706e-17)