/*--------------------------------*- C++ -*----------------------------------*\
| =========                 |                                                 |
| \\      /  F ield         | OpenFOAM: The Open Source CFD Toolbox           |
|  \\    /   O peration     | Version:  2312                                  |
|   \\  /    A nd           | Website:  www.openfoam.com                      |
|    \\/     M anipulation  |                                                 |
\*---------------------------------------------------------------------------*/
FoamFile
{
    version     2.0;
    format      ascii;
    arch        "LSB;label=32;scalar=64";
    class       volVectorField;
    location    "100";
    object      U;
}
// * * * * * * * * * * * * * * * * * * * * * * * * * * * * * * * * * * * * * //

dimensions      [0 1 -1 0 0 0 0];

internalField   nonuniform List<vector> 
12225
(
(0.908926 -0.379353 0)
(0.865094 -0.145903 0)
(0.765203 -0.0185215 0)
(0.662666 0.0104677 0)
(0.593716 0.00982099 0)
(0.551318 0.00576211 0)
(0.522891 0.00338724 0)
(0.502173 0.00235949 0)
(0.486263 0.00189902 0)
(0.47353 0.00161113 0)
(0.463157 0.00136433 0)
(0.454789 0.00111986 0)
(0.448323 0.000853292 0)
(0.443717 0.000531885 0)
(0.441392 0.00011128 0)
(0.441539 -0.000601363 0)
(0.445817 -0.00100365 0)
(0.454138 -0.0140553 0)
(1.04414 0.0828143 0)
(1.01928 0.073389 0)
(0.977621 0.0412886 0)
(0.928229 0.0269246 0)
(0.88408 0.0196872 0)
(0.847953 0.0144132 0)
(0.818837 0.0107102 0)
(0.795806 0.00833471 0)
(0.777686 0.00678141 0)
(0.763229 0.00565645 0)
(0.751554 0.0047394 0)
(0.742164 0.00390191 0)
(0.734818 0.00304589 0)
(0.729425 0.00206486 0)
(0.726157 0.000805192 0)
(0.725348 -0.00104095 0)
(0.728443 -0.00418895 0)
(0.734289 -0.0112862 0)
(1.0039 0.02978 0)
(1.00737 0.0402704 0)
(1.00856 0.0355283 0)
(0.995584 0.0319358 0)
(0.976105 0.0269842 0)
(0.955237 0.0214521 0)
(0.935342 0.0169375 0)
(0.917964 0.0137017 0)
(0.903511 0.0113621 0)
(0.891663 0.00955025 0)
(0.881999 0.00802948 0)
(0.874221 0.00663522 0)
(0.868144 0.00522535 0)
(0.863695 0.00364336 0)
(0.860908 0.00165649 0)
(0.859899 -0.00116153 0)
(0.861055 -0.00565975 0)
(0.862453 -0.0143881 0)
(0.999112 0.00731016 0)
(1.00522 0.0277514 0)
(1.01564 0.0337787 0)
(1.01525 0.0338307 0)
(1.00798 0.0304298 0)
(0.997326 0.0256595 0)
(0.985215 0.0212714 0)
(0.973444 0.0177687 0)
(0.96298 0.014997 0)
(0.954037 0.0127146 0)
(0.946563 0.0107301 0)
(0.940466 0.00888056 0)
(0.935666 0.00700681 0)
(0.93211 0.00492816 0)
(0.929769 0.00238458 0)
(0.928569 -0.00104572 0)
(0.928365 -0.00602693 0)
(0.927425 -0.0137923 0)
(0.999547 0.00548437 0)
(1.00551 0.0257514 0)
(1.01676 0.0329504 0)
(1.02112 0.0339947 0)
(1.02026 0.031882 0)
(1.01598 0.028127 0)
(1.00945 0.0242133 0)
(1.00218 0.0207692 0)
(0.995166 0.0178266 0)
(0.988857 0.0152665 0)
(0.983407 0.012957 0)
(0.978867 0.010758 0)
(0.975239 0.00851587 0)
(0.972498 0.00605067 0)
(0.970583 0.00311651 0)
(0.969324 -0.000633984 0)
(0.968413 -0.00561809 0)
(0.966465 -0.0122975 0)
(0.999799 0.00628194 0)
(1.00524 0.0238295 0)
(1.01577 0.0309907 0)
(1.02217 0.0329203 0)
(1.02481 0.0319668 0)
(1.02451 0.0292124 0)
(1.02189 0.0259177 0)
(1.01806 0.0227421 0)
(1.01389 0.0198323 0)
(1.00987 0.017165 0)
(1.00623 0.0146664 0)
(1.0031 0.0122305 0)
(1.00055 0.00972423 0)
(0.998571 0.00698752 0)
(0.997087 0.00381469 0)
(0.995904 -4.63643e-05 0)
(0.994703 -0.00481565 0)
(0.992448 -0.0105906 0)
(0.999791 0.00612905 0)
(1.00468 0.0212407 0)
(1.01422 0.028441 0)
(1.02138 0.0311207 0)
(1.0259 0.0310877 0)
(1.02805 0.0292186 0)
(1.02813 0.0265739 0)
(1.02688 0.023778 0)
(1.02498 0.021038 0)
(1.02287 0.0183965 0)
(1.02081 0.0158286 0)
(1.01896 0.0132638 0)
(1.01739 0.0105982 0)
(1.01612 0.00770267 0)
(1.01508 0.00442273 0)
(1.01409 0.000595974 0)
(1.01287 -0.00386197 0)
(1.0107 -0.00888665 0)
(0.999805 0.0055448 0)
(1.00413 0.0186573 0)
(1.01262 0.0257489 0)
(1.01988 0.0289081 0)
(1.02532 0.0295511 0)
(1.02896 0.0284191 0)
(1.03086 0.026384 0)
(1.03149 0.0240042 0)
(1.03136 0.0215108 0)
(1.03081 0.0189872 0)
(1.03008 0.016445 0)
(1.02934 0.0138458 0)
(1.02865 0.0111169 0)
(1.02805 0.00816501 0)
(1.02746 0.00488685 0)
(1.02674 0.00119402 0)
(1.02569 -0.0029131 0)
(1.02381 -0.00730921 0)
(0.999876 0.00495786 0)
(1.00366 0.016296 0)
(1.01112 0.0230587 0)
(1.01812 0.0264533 0)
(1.02393 0.0275682 0)
(1.02842 0.0270223 0)
(1.03151 0.0255205 0)
(1.03348 0.023546 0)
(1.03467 0.0213317 0)
(1.03536 0.018983 0)
(1.03573 0.0165361 0)
(1.03592 0.0139793 0)
(1.036 0.0112698 0)
(1.036 0.00834912 0)
(1.03586 0.00515908 0)
(1.03547 0.00166686 0)
(1.0347 -0.00208052 0)
(1.03322 -0.0059477 0)
(0.999958 0.00441336 0)
(1.00325 0.0141389 0)
(1.00975 0.0204169 0)
(1.01632 0.0238619 0)
(1.02218 0.0252818 0)
(1.02708 0.0251809 0)
(1.03091 0.0241222 0)
(1.0338 0.0225163 0)
(1.03596 0.0205839 0)
(1.03759 0.0184394 0)
(1.03882 0.0161348 0)
(1.03978 0.0136795 0)
(1.04051 0.0110561 0)
(1.04104 0.0082368 0)
(1.04133 0.00519957 0)
(1.0413 0.00194947 0)
(1.04086 -0.00144588 0)
(1.03984 -0.00486393 0)
(1.00002 0.00388139 0)
(1.00288 0.0121554 0)
(1.00852 0.0178525 0)
(1.01458 0.0212067 0)
(1.02028 0.0227923 0)
(1.02534 0.0230093 0)
(1.02958 0.0223026 0)
(1.03306 0.021015 0)
(1.03589 0.0193485 0)
(1.03821 0.0174177 0)
(1.04011 0.0152837 0)
(1.04167 0.0129714 0)
(1.04294 0.0104842 0)
(1.04392 0.00781855 0)
(1.04459 0.0049789 0)
(1.04492 0.00199322 0)
(1.04485 -0.0010664 0)
(1.04428 -0.00409812 0)
(1.00006 0.0033921 0)
(1.00257 0.0104746 0)
(1.00751 0.0155848 0)
(1.01308 0.0187559 0)
(1.01853 0.0203888 0)
(1.02356 0.0207966 0)
(1.02798 0.0203343 0)
(1.03178 0.0192888 0)
(1.03502 0.0178413 0)
(1.03777 0.016102 0)
(1.04012 0.0141362 0)
(1.0421 0.0119786 0)
(1.04375 0.0096468 0)
(1.04507 0.0071537 0)
(1.04607 0.00451971 0)
(1.0467 0.00178365 0)
(1.04695 -0.000986255 0)
(1.04678 -0.00370879 0)
(1.00009 0.00291543 0)
(1.00229 0.00892096 0)
(1.00661 0.0134209 0)
(1.01169 0.0163408 0)
(1.01684 0.017944 0)
(1.02174 0.0184658 0)
(1.02621 0.0181847 0)
(1.03019 0.0173372 0)
(1.03369 0.0160824 0)
(1.03675 0.0145238 0)
(1.03941 0.0127275 0)
(1.0417 0.0107349 0)
(1.04365 0.00857366 0)
(1.04527 0.00626805 0)
(1.04653 0.00384843 0)
(1.04744 0.00135805 0)
(1.048 -0.00114216 0)
(1.04819 -0.00358964 0)
(1.00011 0.00240125 0)
(1.002 0.00728635 0)
(1.00571 0.0110787 0)
(1.01025 0.0136371 0)
(1.01502 0.0151152 0)
(1.0197 0.0156768 0)
(1.02411 0.0155262 0)
(1.02815 0.0148484 0)
(1.0318 0.0137774 0)
(1.03506 0.0124058 0)
(1.03796 0.0107978 0)
(1.04051 0.00899818 0)
(1.04271 0.00704135 0)
(1.04457 0.00495896 0)
(1.0461 0.00278638 0)
(1.04728 0.000566364 0)
(1.04814 -0.00165038 0)
(1.04868 -0.00381729 0)
(1.00011 0.00185778 0)
(1.00171 0.00559575 0)
(1.00484 0.00858819 0)
(1.00883 0.0106692 0)
(1.01315 0.0119111 0)
(1.01753 0.0124183 0)
(1.02176 0.0123278 0)
(1.02575 0.0117743 0)
(1.02943 0.0108635 0)
(1.0328 0.00967404 0)
(1.03584 0.0082639 0)
(1.03855 0.00667762 0)
(1.04093 0.00495183 0)
(1.043 0.00312075 0)
(1.04474 0.00121979 0)
(1.04618 -0.000713079 0)
(1.04732 -0.00263822 0)
(1.04819 -0.0045234 0)
(1.00011 0.00129241 0)
(1.00145 0.00387414 0)
(1.00406 0.00598284 0)
(1.0075 0.0074705 0)
(1.01136 0.00835688 0)
(1.01536 0.00869993 0)
(1.01934 0.00858162 0)
(1.02317 0.00808998 0)
(1.02678 0.00730092 0)
(1.03014 0.00627479 0)
(1.03321 0.00505974 0)
(1.036 0.00369503 0)
(1.03849 0.00221481 0)
(1.04069 0.000650727 0)
(1.04261 -0.000966148 0)
(1.04424 -0.00260526 0)
(1.04562 -0.00423798 0)
(1.04676 -0.00584378 0)
(1.0001 0.000710495 0)
(1.00122 0.00212946 0)
(1.00341 0.00328192 0)
(1.00638 0.00406654 0)
(1.00979 0.00447782 0)
(1.01341 0.00454064 0)
(1.01708 0.00429547 0)
(1.02069 0.00379035 0)
(1.02414 0.00307083 0)
(1.0274 0.00217623 0)
(1.03043 0.00114005 0)
(1.0332 -8.33454e-06 0)
(1.03572 -0.00124246 0)
(1.03798 -0.00253754 0)
(1.03999 -0.00387021 0)
(1.04176 -0.00521859 0)
(1.04329 -0.00656406 0)
(1.04462 -0.00789539 0)
(1.00009 0.000105229 0)
(1.00106 0.000329471 0)
(1.00297 0.000450782 0)
(1.00559 0.00042786 0)
(1.00865 0.000251266 0)
(1.01195 -7.60484e-05 0)
(1.01534 -0.000544423 0)
(1.01871 -0.00113924 0)
(1.02198 -0.00184452 0)
(1.02508 -0.0026446 0)
(1.028 -0.0035244 0)
(1.03069 -0.00446901 0)
(1.03316 -0.00546387 0)
(1.03541 -0.00649451 0)
(1.03742 -0.00754719 0)
(1.03923 -0.00860925 0)
(1.04083 -0.00967064 0)
(1.04226 -0.0107276 0)
(1.00008 -0.000550872 0)
(1.001 -0.00162344 0)
(1.00281 -0.00264559 0)
(1.0053 -0.0035886 0)
(1.00823 -0.00445577 0)
(1.01138 -0.00526236 0)
(1.01461 -0.00602622 0)
(1.01782 -0.00676459 0)
(1.02093 -0.00749273 0)
(1.02389 -0.00822157 0)
(1.02666 -0.00895814 0)
(1.02922 -0.00970536 0)
(1.03157 -0.0104635 0)
(1.03371 -0.0112304 0)
(1.03565 -0.0120028 0)
(1.03739 -0.012777 0)
(1.03894 -0.0135503 0)
(1.04033 -0.0143246 0)
(1.00009 -0.00118351 0)
(1.00108 -0.00352767 0)
(1.00305 -0.00566116 0)
(1.00574 -0.00747084 0)
(1.00883 -0.00896029 0)
(1.0121 -0.0101723 0)
(1.01539 -0.0111581 0)
(1.01859 -0.0119734 0)
(1.02164 -0.0126685 0)
(1.02449 -0.0132835 0)
(1.02711 -0.0138475 0)
(1.02951 -0.0143811 0)
(1.03167 -0.0148975 0)
(1.03362 -0.0154056 0)
(1.03535 -0.0159097 0)
(1.03689 -0.0164127 0)
(1.03824 -0.0169163 0)
(1.03943 -0.0174255 0)
(1.00008 -0.00173361 0)
(1.00119 -0.00524159 0)
(1.00346 -0.00835745 0)
(1.00652 -0.0108669 0)
(1.00993 -0.012806 0)
(1.01342 -0.0142613 0)
(1.01685 -0.0153264 0)
(1.02008 -0.016102 0)
(1.02307 -0.0166766 0)
(1.02578 -0.0171173 0)
(1.02822 -0.0174721 0)
(1.03038 -0.0177754 0)
(1.03228 -0.0180502 0)
(1.03394 -0.0183121 0)
(1.03538 -0.0185704 0)
(1.03661 -0.0188314 0)
(1.03766 -0.0190989 0)
(1.03855 -0.0193788 0)
(1.00005 -0.00223492 0)
(1.00128 -0.00698124 0)
(1.004 -0.0110853 0)
(1.00757 -0.0142075 0)
(1.01139 -0.0164763 0)
(1.01516 -0.0180388 0)
(1.0187 -0.0190451 0)
(1.02191 -0.0196573 0)
(1.02474 -0.0200094 0)
(1.02719 -0.0201954 0)
(1.02928 -0.0202812 0)
(1.03105 -0.0203118 0)
(1.03253 -0.0203183 0)
(1.03374 -0.0203197 0)
(1.03472 -0.0203287 0)
(1.03549 -0.0203518 0)
(1.03609 -0.0203937 0)
(1.03653 -0.0204592 0)
(0.999967 -0.0026702 0)
(1.00127 -0.00881847 0)
(1.00459 -0.0139088 0)
(1.00881 -0.0175274 0)
(1.01307 -0.0199882 0)
(1.01708 -0.0214977 0)
(1.02063 -0.0222801 0)
(1.02362 -0.0225848 0)
(1.02605 -0.022599 0)
(1.02799 -0.0224432 0)
(1.02949 -0.0221972 0)
(1.03062 -0.0219149 0)
(1.03142 -0.0216302 0)
(1.03195 -0.0213632 0)
(1.03226 -0.0211253 0)
(1.03239 -0.0209221 0)
(1.03235 -0.0207553 0)
(1.0322 -0.0206281 0)
(0.999822 -0.00299397 0)
(1.0011 -0.0108707 0)
(1.00524 -0.0168961 0)
(1.01018 -0.0208208 0)
(1.01482 -0.0232919 0)
(1.01889 -0.0245454 0)
(1.02215 -0.0249051 0)
(1.02456 -0.0247407 0)
(1.0262 -0.0242993 0)
(1.02722 -0.0237226 0)
(1.02774 -0.0230988 0)
(1.02787 -0.0224836 0)
(1.02769 -0.0219078 0)
(1.02727 -0.021387 0)
(1.02667 -0.0209269 0)
(1.02593 -0.0205285 0)
(1.02508 -0.0201888 0)
(1.02418 -0.019907 0)
(0.999533 -0.00271553 0)
(1.00065 -0.0130068 0)
(1.00594 -0.0200273 0)
(1.01163 -0.0240374 0)
(1.01639 -0.0262649 0)
(1.02007 -0.0269894 0)
(1.02248 -0.0266921 0)
(1.02364 -0.0258949 0)
(1.02385 -0.0249 0)
(1.02337 -0.0238566 0)
(1.02239 -0.0228486 0)
(1.02108 -0.0219217 0)
(1.01954 -0.0210938 0)
(1.01786 -0.0203679 0)
(1.0161 -0.0197398 0)
(1.01429 -0.0192019 0)
(1.01246 -0.018745 0)
(1.01066 -0.0183626 0)
(0.998542 -0.000773524 0)
(0.999404 -0.0143649 0)
(1.00657 -0.0227864 0)
(1.01294 -0.026905 0)
(1.01713 -0.0286272 0)
(1.01948 -0.0284825 0)
(1.01993 -0.0272827 0)
(1.01879 -0.0257271 0)
(1.01661 -0.0241433 0)
(1.01383 -0.0226584 0)
(1.01072 -0.0213286 0)
(1.00746 -0.0201719 0)
(1.00417 -0.0191805 0)
(1.00092 -0.0183373 0)
(0.997754 -0.0176243 0)
(0.994685 -0.0170237 0)
(0.991719 -0.0165204 0)
(0.988905 -0.016102 0)
(0.996379 0.00019004 0)
(0.996948 -0.0155289 0)
(1.00654 -0.0244368 0)
(1.01297 -0.0287592 0)
(1.01508 -0.0298265 0)
(1.01417 -0.0285033 0)
(1.01072 -0.0262203 0)
(1.00558 -0.0238865 0)
(0.999679 -0.0217966 0)
(0.99359 -0.0200044 0)
(0.987601 -0.0185041 0)
(0.981855 -0.0172648 0)
(0.976416 -0.0162436 0)
(0.971299 -0.0154001 0)
(0.966492 -0.0147023 0)
(0.961975 -0.0141238 0)
(0.957717 -0.0136472 0)
(0.953754 -0.0132578 0)
(0.997397 -0.0160965 0)
(0.997967 -0.028172 0)
(1.00615 -0.0287049 0)
(1.0081 -0.029899 0)
(1.00379 -0.0293089 0)
(0.995486 -0.0264773 0)
(0.984644 -0.0230858 0)
(0.972882 -0.0201253 0)
(0.961434 -0.0177637 0)
(0.950819 -0.0159136 0)
(0.941131 -0.0144692 0)
(0.932325 -0.0133367 0)
(0.924312 -0.0124388 0)
(0.916992 -0.0117165 0)
(0.910269 -0.0111301 0)
(0.904062 -0.0106497 0)
(0.89829 -0.0102627 0)
(0.892978 -0.0099543 0)
(1.02979 -0.0764112 0)
(1.02297 -0.0773805 0)
(1.00691 -0.0484597 0)
(0.982666 -0.0333259 0)
(0.956513 -0.0260927 0)
(0.930832 -0.0208221 0)
(0.906552 -0.016679 0)
(0.884766 -0.0136849 0)
(0.865958 -0.0115953 0)
(0.849849 -0.0101208 0)
(0.835897 -0.00905479 0)
(0.823641 -0.00826217 0)
(0.81274 -0.00765525 0)
(0.802935 -0.00717643 0)
(0.794028 -0.0067923 0)
(0.785877 -0.00647827 0)
(0.778332 -0.00623236 0)
(0.771426 -0.00604574 0)
(0.947758 0.332584 0)
(0.943904 0.161016 0)
(0.88077 0.0384377 0)
(0.795509 -0.00443604 0)
(0.726208 -0.0124784 0)
(0.677268 -0.0104277 0)
(0.642056 -0.00730239 0)
(0.615503 -0.00519442 0)
(0.594668 -0.0040207 0)
(0.577603 -0.00337608 0)
(0.56306 -0.0029894 0)
(0.550335 -0.00272732 0)
(0.539021 -0.00253131 0)
(0.528854 -0.00237461 0)
(0.519618 -0.00224496 0)
(0.511199 -0.00213702 0)
(0.503383 -0.00205089 0)
(0.496274 -0.00199575 0)
(0.00198009 -0.00442486 1.29828e-14)
(0.00682433 -0.0070783 -1.3379e-14)
(0.0115947 -0.00677735 0)
(0.0150773 -0.00487622 0)
(0.0164432 -0.00243961 0)
(0.0156152 -0.000173368 1.06032e-14)
(0.0130835 0.00158262 0)
(0.0092678 0.00278993 0)
(0.0044968 0.00356279 0)
(-0.000999944 0.00401842 0)
(-0.00712416 0.00431121 -1.0754e-14)
(-0.0138686 0.00463754 0)
(-0.0212838 0.00512791 0)
(-0.0294442 0.00581803 0)
(-0.038404 0.00667443 0)
(-0.0481873 0.00764529 -7.01526e-15)
(-0.0587748 0.00867449 0)
(-0.0701158 0.00970668 0)
(-0.0821223 0.0106811 0)
(-0.0946823 0.0115451 0)
(-0.107665 0.0122618 0)
(-0.120934 0.0128108 0)
(-0.134351 0.0131864 0)
(-0.147784 0.0133966 -3.92426e-15)
(-0.16111 0.0134484 3.71526e-15)
(-0.17422 0.0133521 -3.53157e-15)
(-0.187016 0.0131265 -3.37023e-15)
(-0.199417 0.0127914 0)
(-0.211356 0.0123677 0)
(-0.222777 0.011875 2.99224e-15)
(-0.233638 0.0113293 2.89457e-15)
(-0.243908 0.0107428 0)
(-0.253559 0.0101248 0)
(-0.262573 0.00948041 2.66356e-15)
(-0.270933 0.00881235 0)
(-0.278628 0.00812045 0)
(-0.285648 0.0074052 -2.50396e-15)
(-0.291986 0.00666683 0)
(-0.297634 0.00590858 -2.42766e-15)
(-0.302585 0.00513488 -4.79425e-15)
(-0.306826 0.00435393 0)
(-0.310346 0.00357382 0)
(-0.313122 0.00280421 0)
(-0.315137 0.00205165 0)
(-0.316365 0.00132973 0)
(-0.316786 0.000656397 -4.61482e-15)
(-0.316484 3.89524e-05 -4.60784e-15)
(-0.315517 -0.00054011 -4.60763e-15)
(-0.313897 -0.00109881 0)
(-0.311637 -0.00164643 4.62714e-15)
(-0.308748 -0.00218512 0)
(-0.305237 -0.00271669 -4.67285e-15)
(-0.301113 -0.00323842 -4.70584e-15)
(-0.296387 -0.00374987 0)
(-0.291071 -0.00424999 0)
(-0.285182 -0.00473599 0)
(-0.278735 -0.0052271 -4.91105e-15)
(-0.271752 -0.00568553 0)
(-0.264261 -0.0061131 0)
(-0.256285 -0.00653647 0)
(-0.247857 -0.00692651 0)
(-0.239003 -0.00729882 0)
(-0.229759 -0.00764348 0)
(-0.220158 -0.0079608 0)
(-0.210236 -0.0082497 0)
(-0.200031 -0.00850991 5.89449e-15)
(-0.189581 -0.00874334 0)
(-0.178923 -0.0089484 0)
(-0.168094 -0.00912619 -6.44043e-15)
(-0.15713 -0.00927635 -6.65432e-15)
(-0.146067 -0.00940044 0)
(-0.134939 -0.00949801 7.137e-15)
(-0.12378 -0.00957122 -7.40874e-15)
(-0.112621 -0.0096198 0)
(-0.101491 -0.0096467 8.02295e-15)
(-0.0904184 -0.00965122 0)
(-0.079431 -0.00963697 0)
(-0.0685563 -0.009604 -9.15422e-15)
(-0.0578181 -0.00955605 0)
(-0.0472372 -0.0094918 1.00805e-14)
(-0.0368312 -0.00941379 0)
(-0.026619 -0.00931971 -1.11818e-14)
(-0.0166207 -0.00920255 -1.18135e-14)
(-0.00686998 -0.00902568 -1.24165e-14)
(0.00266562 -0.00872532 -2.47805e-14)
(0.0120033 -0.00832075 2.36804e-14)
(0.0210952 -0.00789334 0)
(0.0299133 -0.0074706 0)
(0.0384457 -0.00706151 0)
(0.046685 -0.00667001 2.03934e-14)
(0.0546428 -0.00629701 1.97805e-14)
(0.0623323 -0.00594143 -1.92272e-14)
(0.0697566 -0.00560255 0)
(0.0769152 -0.00527985 1.82705e-14)
(0.0838106 -0.00497325 1.78557e-14)
(0.090448 -0.00468222 1.7477e-14)
(0.0968337 -0.00440644 0)
(0.102975 -0.00414519 0)
(0.108878 -0.00389808 0)
(0.114552 -0.00366429 1.62506e-14)
(0.120004 -0.00344356 0)
(0.125242 -0.00323497 0)
(0.130274 -0.00303837 -1.55588e-14)
(0.135108 -0.00285262 0)
(0.13975 -0.00267777 0)
(0.144207 -0.00251266 -1.50064e-14)
(0.148486 -0.00235744 0)
(0.152593 -0.00221101 0)
(0.156534 -0.00207339 1.45604e-14)
(0.160318 -0.00194346 1.44311e-14)
(0.163949 -0.00182132 0)
(0.167434 -0.00170593 -1.41974e-14)
(0.170779 -0.00159747 0)
(0.173989 -0.00149491 1.39927e-14)
(0.17707 -0.00139834 0)
(0.180026 -0.00130697 1.38132e-14)
(0.182863 -0.00122092 1.37318e-14)
(0.185583 -0.00113941 0)
(0.188191 -0.00106253 0)
(0.190691 -0.000989691 0)
(0.193088 -0.000920944 0)
(0.195386 -0.000855684 0)
(0.197588 -0.000793989 0)
(0.199695 -0.000735322 0)
(0.201711 -0.000679982 1.3242e-14)
(0.203638 -0.000627457 -1.31976e-14)
(0.205477 -0.000577958 0)
(0.207233 -0.000530968 0)
(0.208907 -0.000486717 0)
(0.210503 -0.000444643 0)
(0.212022 -0.000404923 -2.60363e-14)
(0.213467 -0.000367132 0)
(0.21484 -0.000331523 2.59281e-14)
(0.216142 -0.000297654 -2.58808e-14)
(0.217375 -0.000265686 0)
(0.218542 -0.000235259 0)
(0.219644 -0.000206698 0)
(0.220682 -0.000179606 2.57322e-14)
(0.221658 -0.000154171 2.57043e-14)
(0.222574 -0.000130338 0)
(0.223434 -0.00010844 2.5658e-14)
(0.224237 -9.00858e-05 2.56397e-14)
(0.224994 -7.27588e-05 -2.56202e-14)
(0.225694 -5.73337e-05 0)
(0.226371 -3.9566e-05 0)
(0.226966 -2.10229e-05 -2.5585e-14)
(0.227542 -4.06044e-06 0)
(0.228043 1.44231e-05 0)
(0.228498 2.66015e-05 0)
(0.228929 4.19777e-05 0)
(0.229282 5.7533e-05 2.55759e-14)
(0.229614 7.30127e-05 2.55699e-14)
(0.229867 8.84157e-05 0)
(0.230092 9.89147e-05 2.55887e-14)
(0.230263 0.000106469 0)
(0.230418 0.000114131 0)
(0.230531 0.000123771 2.56172e-14)
(0.230606 0.000132369 0)
(0.23062 0.000138955 2.56557e-14)
(0.230635 0.000144296 0)
(0.230592 0.000154192 0)
(0.230503 0.000162558 2.57097e-14)
(0.230368 0.000167356 0)
(0.230217 0.000175229 2.57512e-14)
(0.230008 0.000187835 0)
(0.229725 0.000199274 0)
(0.229414 0.000213292 0)
(0.229014 0.000234067 -2.58766e-14)
(0.228503 0.000255951 0)
(0.227915 0.00028396 2.59659e-14)
(0.227175 0.000324184 0)
(0.226233 0.000373114 0)
(0.225089 0.000439531 0)
(0.223617 0.000534941 0)
(0.22171 0.000667869 0)
(0.219159 0.000871624 0)
(0.215801 0.00115897 0)
(0.210443 0.00169156 -5.43192e-14)
(0.205168 0.00244706 0)
(0.187118 0.0040014 0)
(0.00181454 -0.013369 -3.672e-14)
(0.00459473 -0.016036 3.10336e-14)
(0.00505324 -0.0112577 0)
(0.00329363 -0.0045515 -1.19958e-14)
(-0.000233413 0.0020612 0)
(-0.00525767 0.00783291 -4.77606e-15)
(-0.0117124 0.012499 8.91583e-15)
(-0.0194812 0.0161266 8.43538e-15)
(-0.0284526 0.0189757 0)
(-0.0385196 0.0213479 7.66428e-15)
(-0.0495834 0.0234793 3.66746e-15)
(-0.0615405 0.0255191 0)
(-0.0742627 0.0275379 0)
(-0.0875963 0.029538 0)
(-0.10139 0.0314637 0)
(-0.115496 0.0332221 2.88185e-15)
(-0.129761 0.0347201 0)
(-0.144028 0.0358882 -5.21291e-15)
(-0.158146 0.0366883 0)
(-0.171982 0.0371035 0)
(-0.185422 0.0371378 4.52422e-15)
(-0.198375 0.036812 0)
(-0.210766 0.0361598 -4.15721e-15)
(-0.222539 0.0352231 1.99872e-15)
(-0.233653 0.0340487 -1.92562e-15)
(-0.244086 0.0326816 1.85869e-15)
(-0.253829 0.0311649 1.79747e-15)
(-0.26288 0.0295367 0)
(-0.271248 0.0278309 0)
(-0.278943 0.0260759 -1.64355e-15)
(-0.285978 0.0242952 1.60058e-15)
(-0.292369 0.0225067 0)
(-0.298132 0.0207242 0)
(-0.303281 0.0189566 -1.49074e-15)
(-0.307828 0.01721 0)
(-0.311788 0.0154861 0)
(-0.31517 0.0137849 1.40329e-15)
(-0.317982 0.0121033 0)
(-0.320232 0.0104381 -1.3549e-15)
(-0.321927 0.00878479 2.66655e-15)
(-0.323076 0.00714084 0)
(-0.323691 0.00550452 0)
(-0.323788 0.00387957 5.11184e-15)
(-0.323388 0.00227348 5.05128e-15)
(-0.322511 0.000704113 4.99197e-15)
(-0.321188 -0.000806008 -2.46904e-15)
(-0.319364 -0.00224961 2.44465e-15)
(-0.316983 -0.00364104 7.26824e-15)
(-0.31403 -0.00499081 -4.80606e-15)
(-0.310495 -0.00630563 -2.38544e-15)
(-0.306379 -0.00758569 0)
(-0.301683 -0.00883054 2.35662e-15)
(-0.296414 -0.010036 -2.34539e-15)
(-0.290582 -0.011199 0)
(-0.284197 -0.0123142 0)
(-0.277276 -0.013378 0)
(-0.269836 -0.0143846 2.32207e-15)
(-0.2619 -0.0153294 0)
(-0.253487 -0.0162087 -4.64775e-15)
(-0.244623 -0.0170193 0)
(-0.235341 -0.0177601 -4.66768e-15)
(-0.225668 -0.0184294 0)
(-0.215636 -0.0190243 4.70532e-15)
(-0.205278 -0.0195435 0)
(-0.194629 -0.0199844 -4.76278e-15)
(-0.183722 -0.0203452 2.40001e-15)
(-0.172592 -0.0206306 0)
(-0.161276 -0.0208431 4.88724e-15)
(-0.14981 -0.0209851 2.46894e-15)
(-0.138227 -0.0210586 2.49668e-15)
(-0.12656 -0.0210673 0)
(-0.114842 -0.0210136 2.55942e-15)
(-0.103104 -0.0209021 2.59445e-15)
(-0.0913758 -0.0207359 0)
(-0.0796845 -0.0205203 -2.67186e-15)
(-0.0680565 -0.0202583 5.42849e-15)
(-0.056517 -0.0199558 0)
(-0.0450902 -0.0196164 2.80635e-15)
(-0.0337975 -0.0192461 0)
(-0.0226574 -0.018848 -8.72518e-15)
(-0.0116886 -0.0184285 0)
(-0.000895015 -0.0179922 8.96317e-15)
(0.00971548 -0.0175434 2.97215e-15)
(0.0201297 -0.0170737 -2.95316e-15)
(0.0303255 -0.0165578 -5.88417e-15)
(0.0402675 -0.0159877 5.87496e-15)
(0.0499541 -0.015391 0)
(0.0593968 -0.0147865 0)
(0.0685938 -0.0141859 0)
(0.0775424 -0.0135963 -1.76891e-14)
(0.0862475 -0.0130217 -5.90865e-15)
(0.0947143 -0.0124636 5.92258e-15)
(0.102944 -0.0119221 0)
(0.110937 -0.0113978 5.95447e-15)
(0.118695 -0.0108916 -5.97209e-15)
(0.126222 -0.010404 -5.99064e-15)
(0.133522 -0.00993523 0)
(0.140601 -0.00948541 0)
(0.147464 -0.00905438 0)
(0.154117 -0.0086419 -6.07163e-15)
(0.160567 -0.00824769 0)
(0.16682 -0.00787123 1.22298e-14)
(0.172882 -0.00751215 1.84108e-14)
(0.178761 -0.00716963 -1.23184e-14)
(0.184462 -0.00684336 0)
(0.189989 -0.00653242 -6.20413e-15)
(0.19535 -0.00623656 0)
(0.20055 -0.0059548 -1.24988e-14)
(0.205595 -0.00568676 6.27213e-15)
(0.21049 -0.00543143 6.29483e-15)
(0.215241 -0.00518848 0)
(0.219853 -0.00495684 1.90209e-14)
(0.224332 -0.00473621 -1.2726e-14)
(0.228683 -0.00452566 -6.38568e-15)
(0.232909 -0.00432493 0)
(0.237015 -0.00413312 -6.43082e-15)
(0.241005 -0.00394998 -1.93598e-14)
(0.244883 -0.00377473 0)
(0.248652 -0.00360718 -1.29958e-14)
(0.252315 -0.00344661 -1.30402e-14)
(0.255877 -0.00329286 -1.30844e-14)
(0.25934 -0.00314535 0)
(0.262709 -0.00300394 0)
(0.265983 -0.00286807 0)
(0.269167 -0.0027378 6.63029e-15)
(0.27226 -0.00261258 6.6522e-15)
(0.275267 -0.00249243 0)
(0.278188 -0.00237687 1.33911e-14)
(0.281026 -0.00226595 1.3434e-14)
(0.283783 -0.00215917 0)
(0.286461 -0.00205659 1.35189e-14)
(0.28906 -0.0019577 2.7122e-14)
(0.291583 -0.00186257 -1.3603e-14)
(0.294031 -0.00177078 -1.36449e-14)
(0.296405 -0.00168252 0)
(0.298708 -0.00159734 0)
(0.300939 -0.00151544 0)
(0.303101 -0.00143671 -1.38107e-14)
(0.305194 -0.00136117 1.38516e-14)
(0.307219 -0.00128864 2.77843e-14)
(0.309179 -0.00121956 -1.39322e-14)
(0.311075 -0.0011527 1.39721e-14)
(0.312908 -0.00109112 1.40086e-14)
(0.314677 -0.00102894 0)
(0.31638 -0.000971316 0)
(0.31803 -0.000913431 -1.41215e-14)
(0.319617 -0.000855261 0)
(0.321152 -0.000804053 0)
(0.322629 -0.000747379 2.84737e-14)
(0.324045 -0.000696728 0)
(0.325411 -0.000646082 1.4309e-14)
(0.326723 -0.000595267 -1.43379e-14)
(0.32799 -0.000549306 0)
(0.329204 -0.000505216 1.44164e-14)
(0.330365 -0.000462964 0)
(0.331467 -0.00042254 0)
(0.332518 -0.000385289 -1.45149e-14)
(0.333522 -0.000349461 2.9101e-14)
(0.334477 -0.000312219 -1.45924e-14)
(0.335371 -0.000272983 0)
(0.336217 -0.000236955 0)
(0.337015 -0.000201353 1.46867e-14)
(0.337754 -0.00016174 0)
(0.338429 -0.000120283 1.47459e-14)
(0.339048 -8.01557e-05 0)
(0.339602 -3.30531e-05 0)
(0.340074 2.29145e-05 0)
(0.34047 8.46814e-05 1.48769e-14)
(0.340774 0.000159325 0)
(0.340955 0.000252502 -1.49486e-14)
(0.341007 0.000365252 0)
(0.340893 0.000508645 0)
(0.340555 0.000697187 3.01476e-14)
(0.339953 0.000948453 -3.02342e-14)
(0.338976 0.0012946 0)
(0.337485 0.00178912 0)
(0.335384 0.00253497 0)
(0.331819 0.00367707 9.245e-14)
(0.328296 0.00556719 0)
(0.317148 0.0087823 -6.35554e-14)
(0.000408695 -0.0165606 -3.5459e-22)
(-0.00197003 -0.0131551 -3.20886e-14)
(-0.00632161 -0.00363378 0)
(-0.0122653 0.00620214 1.45989e-14)
(-0.0192887 0.0151529 0)
(-0.0272173 0.023008 0)
(-0.0360285 0.0297263 3.57421e-23)
(-0.0457302 0.0353757 -4.66867e-15)
(-0.0563057 0.0401238 -4.46438e-15)
(-0.0676876 0.0441815 -4.28966e-15)
(-0.0797487 0.0477275 0)
(-0.0923225 0.0508616 0)
(-0.105226 0.0536095 3.81437e-15)
(-0.118276 0.0559499 7.3298e-15)
(-0.131293 0.0578417 -7.03768e-15)
(-0.14411 0.0592381 0)
(-0.156594 0.0601008 -6.47492e-15)
(-0.16864 0.0604116 3.10522e-15)
(-0.18018 0.0601791 0)
(-0.191167 0.0594349 -5.72637e-15)
(-0.201576 0.0582267 -2.75376e-15)
(-0.211401 0.0566128 5.30368e-15)
(-0.220646 0.0546566 2.55709e-15)
(-0.229324 0.0524227 0)
(-0.237452 0.0499736 -4.77443e-15)
(-0.24505 0.0473663 -4.62258e-15)
(-0.252137 0.0446512 0)
(-0.258731 0.0418706 -4.35137e-15)
(-0.264847 0.0390592 0)
(-0.270498 0.0362437 -4.1184e-15)
(-0.275694 0.0334445 -2.00717e-15)
(-0.280442 0.0306756 0)
(-0.284746 0.0279468 0)
(-0.288609 0.0252634 0)
(-0.292032 0.0226277 0)
(-0.295013 0.0200394 0)
(-0.29755 0.0174968 0)
(-0.29964 0.0149969 -3.45853e-15)
(-0.301281 0.0125372 5.09741e-15)
(-0.302467 0.0101151 0)
(-0.303195 0.00773 0)
(-0.303458 0.00538177 0)
(-0.303251 0.00307231 -2.06186e-23)
(-0.302564 0.00080341 -3.14973e-15)
(-0.301386 -0.00142431 -6.20987e-15)
(-0.299699 -0.00361827 6.12712e-15)
(-0.297487 -0.00578306 3.02532e-15)
(-0.294738 -0.00791531 -2.98967e-15)
(-0.291447 -0.0100092 4.61163e-23)
(-0.287607 -0.0120597 -2.92561e-15)
(-0.283219 -0.0140604 0)
(-0.278283 -0.0160052 -2.87091e-15)
(-0.272806 -0.0178864 6.56726e-23)
(-0.266794 -0.0196968 0)
(-0.260259 -0.0214283 0)
(-0.253215 -0.0230737 2.78958e-15)
(-0.245679 -0.0246252 0)
(-0.237672 -0.0260749 0)
(-0.229215 -0.0274163 -2.75363e-15)
(-0.220332 -0.0286438 -5.49279e-15)
(-0.211053 -0.0297529 2.74144e-15)
(-0.201406 -0.0307418 0)
(-0.191423 -0.0316095 -2.73807e-15)
(-0.181136 -0.0323545 0)
(-0.170577 -0.0329754 -2.74465e-15)
(-0.159779 -0.0334698 -2.7524e-15)
(-0.148775 -0.0338407 5.52465e-15)
(-0.137601 -0.0340939 2.77446e-15)
(-0.126289 -0.0342338 0)
(-0.114872 -0.0342647 -5.61148e-15)
(-0.103381 -0.0341922 0)
(-0.0918476 -0.0340217 -8.53887e-15)
(-0.0802997 -0.0337599 -5.73999e-15)
(-0.0687652 -0.0334128 -5.7919e-15)
(-0.05727 -0.0329881 5.84825e-15)
(-0.0458383 -0.0324923 -8.86346e-15)
(-0.0344929 -0.0319337 0)
(-0.0232549 -0.0313191 0)
(-0.0121435 -0.0306573 6.11689e-15)
(-0.0011718 -0.0299557 9.23898e-15)
(0.00964425 -0.0292222 0)
(0.0202853 -0.0284599 -3.07536e-15)
(0.0307369 -0.0276724 0)
(0.0409899 -0.0268641 9.22979e-15)
(0.0510367 -0.0260436 2.50409e-22)
(0.0608692 -0.0252107 -2.43459e-22)
(0.0704849 -0.0243659 -6.21719e-15)
(0.0798829 -0.0235159 0)
(0.0890596 -0.0226681 6.28604e-15)
(0.0980126 -0.021829 2.14659e-22)
(0.106744 -0.0210035 0)
(0.115255 -0.0201948 0)
(0.123546 -0.019405 0)
(0.131619 -0.0186358 -6.49654e-15)
(0.139476 -0.0178888 0)
(0.147119 -0.0171652 0)
(0.154553 -0.0164659 0)
(0.161782 -0.0157914 0)
(0.168811 -0.0151422 0)
(0.175646 -0.0145181 -6.78316e-15)
(0.182292 -0.0139191 0)
(0.188755 -0.0133449 -6.88223e-15)
(0.195041 -0.0127948 -6.93204e-15)
(0.201156 -0.0122684 6.98195e-15)
(0.207104 -0.011765 0)
(0.212892 -0.0112839 7.08188e-15)
(0.218524 -0.0108242 0)
(0.224005 -0.0103853 7.18172e-15)
(0.229342 -0.00996617 -7.23153e-15)
(0.23454 -0.00956588 -2.18437e-14)
(0.239603 -0.00918352 0)
(0.244536 -0.0088182 -2.21409e-14)
(0.249344 -0.00846898 -7.42962e-15)
(0.254031 -0.00813502 0)
(0.258602 -0.00781544 -1.50557e-14)
(0.263061 -0.00750946 -1.51534e-14)
(0.26741 -0.00721628 2.28762e-14)
(0.271654 -0.00693524 0)
(0.275795 -0.0066656 7.72232e-15)
(0.279837 -0.00640667 7.77052e-15)
(0.283784 -0.00615789 2.34557e-14)
(0.287638 -0.00591874 0)
(0.291402 -0.00568874 0)
(0.295078 -0.00546744 0)
(0.298668 -0.00525443 8.01e-15)
(0.302174 -0.00504925 0)
(0.305597 -0.00485148 0)
(0.30894 -0.00466074 -8.15195e-15)
(0.312204 -0.00447675 -8.19867e-15)
(0.315391 -0.00429913 0)
(0.318503 -0.00412761 0)
(0.32154 -0.00396188 -1.66748e-14)
(0.324505 -0.00380172 0)
(0.327399 -0.00364685 1.68582e-14)
(0.330222 -0.00349714 1.69494e-14)
(0.332977 -0.00335238 0)
(0.335664 -0.00321256 0)
(0.338285 -0.00307754 -1.72205e-14)
(0.34084 -0.0029472 -7.0396e-23)
(0.34333 -0.00282151 -6.80818e-23)
(0.345756 -0.00270067 0)
(0.34812 -0.00258404 -3.51439e-14)
(0.350422 -0.00247159 0)
(0.352663 -0.00236127 0)
(0.354838 -0.00225477 0)
(0.356961 -0.00215133 1.79055e-14)
(0.359022 -0.00204986 0)
(0.361031 -0.0019535 -3.61353e-14)
(0.362985 -0.00185794 -1.81523e-14)
(0.364879 -0.00176595 0)
(0.366726 -0.00167685 -1.83106e-14)
(0.368513 -0.00158986 0)
(0.370256 -0.00150675 0)
(0.371944 -0.00142685 -5.56317e-14)
(0.373582 -0.00134999 3.72473e-14)
(0.375163 -0.00127454 0)
(0.376694 -0.00120133 3.75329e-14)
(0.378175 -0.00113066 -1.88401e-14)
(0.379609 -0.00106021 0)
(0.380983 -0.000989231 0)
(0.382311 -0.000919377 0)
(0.383588 -0.000849663 -5.73808e-14)
(0.384811 -0.000777828 0)
(0.385969 -0.000702214 -1.92604e-14)
(0.387069 -0.000623458 0)
(0.388108 -0.000537431 0)
(0.389068 -0.000440875 0)
(0.389953 -0.000332721 0)
(0.390753 -0.000206536 0)
(0.391441 -5.50154e-05 0)
(0.39201 0.000128313 -3.94294e-14)
(0.392433 0.000357019 0)
(0.39266 0.000652839 -1.986e-14)
(0.392653 0.00103885 5.97731e-14)
(0.392351 0.00156269 0)
(0.391619 0.00229557 0)
(0.390446 0.00336764 -4.0347e-14)
(0.388312 0.00496277 -4.05717e-14)
(0.386177 0.00748786 4.07116e-14)
(0.380138 0.0114603 4.18519e-14)
(-0.00165574 -0.0111147 6.31552e-14)
(-0.00806796 -0.000941963 3.77266e-14)
(-0.0153047 0.011456 1.47909e-14)
(-0.0237458 0.0228766 5.35066e-15)
(-0.0328328 0.0330797 0)
(-0.0423414 0.0421087 -7.81503e-15)
(-0.0522658 0.0499977 3.59758e-15)
(-0.0626183 0.0567934 0)
(-0.0733759 0.0625766 3.22225e-15)