/*--------------------------------*- C++ -*----------------------------------*\
| =========                 |                                                 |
| \\      /  F ield         | OpenFOAM: The Open Source CFD Toolbox           |
|  \\    /   O peration     | Version:  2312                                  |
|   \\  /    A nd           | Website:  www.openfoam.com                      |
|    \\/     M anipulation  |                                                 |
\*---------------------------------------------------------------------------*/
FoamFile
{
    version     2.0;
    format      ascii;
    arch        "LSB;label=32;scalar=64";
    class       volScalarField;
    location    "150";
    object      epsilon;
}
// * * * * * * * * * * * * * * * * * * * * * * * * * * * * * * * * * * * * * //

dimensions      [0 2 -3 0 0 0 0];

internalField   nonuniform List<scalar> 
12225
(
1085.71
2467.78
3645.43
4414.76
4812.17
4980.59
4975.43
4926.68
4840.97
4729.45
4621.16
4517.77
4426.19
4340.44
4269.97
4199.91
4152.2
4087.88
81.2297
262.517
438.548
584.487
691.145
762.774
805.005
829.519
846.92
856.603
866.714
873.327
882.968
890.492
900.255
909.8
916.817
933.3
20.5781
51.1716
83.4787
112.52
136.942
156.16
170.183
179.836
186.403
190.719
193.502
195.546
196.847
198.29
199.292
200.654
202.405
205.889
14.758
21.8684
30.0237
38.4941
46.2239
53.0267
58.6301
63.249
66.7594
69.6313
71.6097
73.3163
74.3079
75.3142
75.7394
76.2745
76.6251
77.4057
14.361
16.3339
18.4581
21.4844
24.4412
27.2585
29.7381
31.9796
33.8186
35.4755
36.7424
37.9227
38.7389
39.5677
40.0497
40.6313
40.8466
41.4441
14.6446
14.9542
15.428
16.4553
17.6099
18.8279
19.9701
21.076
22.0332
22.9471
23.6881
24.414
24.9535
25.5243
25.8882
26.3461
26.5435
26.9941
14.7183
14.6387
14.6738
14.8757
15.2178
15.6831
16.1628
16.6722
17.1379
17.6105
18.0096
18.4201
18.737
19.0868
19.3186
19.6215
19.7657
20.071
14.7545
14.5907
14.4691
14.4209
14.4418
14.5153
14.6476
14.8246
15.0021
15.2022
15.3789
15.5758
15.7319
15.9145
16.0389
16.2062
16.2955
16.4675
14.7641
14.5919
14.4345
14.3029
14.2031
14.1371
14.0973
14.0987
14.1107
14.1415
14.1781
14.2346
14.2791
14.3425
14.385
14.4486
14.4864
14.5552
14.7656
14.5942
14.4321
14.2828
14.1466
14.0296
13.9256
13.8437
13.7744
13.7225
13.6772
13.6482
13.6204
13.6063
13.5892
13.5832
13.5731
13.5817
14.7657
14.5945
14.4323
14.2806
14.137
14.0051
13.8816
13.7706
13.668
13.5778
13.4939
13.422
13.3538
13.2972
13.2407
13.1974
13.1474
13.1179
14.7657
14.5944
14.4323
14.2801
14.1357
14.0007
13.8728
13.754
13.6418
13.5386
13.441
13.3524
13.2678
13.1923
13.1186
13.0551
12.9897
12.937
14.7657
14.5941
14.4321
14.2797
14.1353
13.9995
13.8707
13.7497
13.6348
13.5272
13.4248
13.3295
13.2385
13.1543
13.0733
12.9992
12.9269
12.8618
14.7657
14.594
14.4319
14.2792
14.1349
13.9987
13.8698
13.7481
13.6327
13.5237
13.4201
13.3225
13.2295
13.1419
13.0583
12.9797
12.9044
12.8339
14.7657
14.5938
14.4317
14.2789
14.1345
13.9981
13.8691
13.7471
13.6316
13.5222
13.4184
13.32
13.2266
13.138
13.0537
12.9738
12.8976
12.8254
14.7657
14.5938
14.4316
14.2786
14.1341
13.9976
13.8685
13.7463
13.6307
13.5211
13.4171
13.3186
13.225
13.1361
13.0516
12.9713
12.8949
12.8223
14.7657
14.5937
14.4315
14.2784
14.1338
13.9972
13.868
13.7457
13.6299
13.5202
13.4162
13.3175
13.2237
13.1347
13.0501
12.9697
12.8931
12.8204
14.7657
14.5937
14.4314
14.2783
14.1336
13.9969
13.8677
13.7453
13.6294
13.5196
13.4155
13.3167
13.2228
13.1337
13.049
12.9685
12.8919
12.819
14.7657
14.5937
14.4314
14.2782
14.1336
13.9969
13.8675
13.7452
13.6292
13.5194
13.4152
13.3163
13.2224
13.1333
13.0485
12.9679
12.8913
12.8183
14.7657
14.5937
14.4315
14.2783
14.1337
13.997
13.8677
13.7453
13.6294
13.5196
13.4154
13.3165
13.2227
13.1335
13.0488
12.9683
12.8917
12.8187
14.7657
14.5937
14.4316
14.2785
14.1339
13.9972
13.8681
13.7457
13.63
13.5202
13.4162
13.3176
13.224
13.1352
13.0509
12.9707
12.8947
12.8223
14.7657
14.5938
14.4317
14.2786
14.1343
13.9977
13.869
13.7472
13.6325
13.524
13.4219
13.3252
13.2344
13.1482
13.0676
12.9907
12.9191
12.8503
14.7657
14.5937
14.4319
14.2789
14.1361
14.002
13.8782
13.7628
13.6573
13.5595
13.4706
13.3883
13.314
13.2446
13.1828
13.1237
13.0729
13.0213
14.7644
14.5922
14.4335
14.2871
14.1628
14.0551
13.9689
13.8978
13.8459
13.8048
13.7783
13.7581
13.7483
13.7417
13.7424
13.7435
13.7531
13.7519
14.7478
14.5944
14.4764
14.4102
14.4234
14.4613
14.5554
14.6707
14.817
14.9614
15.1239
15.2714
15.4323
15.5688
15.7203
15.838
15.9791
16.0731
14.6504
14.7821
14.9369
15.3416
15.9228
16.5509
17.234
17.8783
18.5382
19.1223
19.7135
20.2106
20.7213
21.1264
21.5607
21.8779
22.248
22.4838
14.572
16.1273
17.9727
20.4197
22.9239
25.2658
27.5475
29.5536
31.4922
33.1046
34.6883
35.9172
37.1799
38.0708
39.0669
39.6796
40.4691
40.8617
16.5443
25.8795
36.7212
46.5549
55.8671
64.2751
72.1047
78.7455
84.8084
89.5985
94.0235
97.1874
100.328
102.208
104.473
105.439
107.16
107.521
45.7969
105.21
164.443
217.237
267.853
313.461
353.68
386.128
413.253
433.69
450.639
462.752
472.951
479.839
486.893
490.391
496.251
497.596
632.346
1081.15
1534.75
1880.98
2183.47
2431.74
2631.5
2772.95
2876.05
2932.05
2968.89
2969.89
2962.85
2945.85
2917.86
2884.53
2848.64
2811.24
0.959373
0.986269
1.65292
2.28368
2.82164
3.28951
3.74036
4.169
4.59647
5.05434
5.58369
6.23299
7.0144
7.90922
8.90329
9.99488
11.1865
12.4848
13.8946
15.4227
17.0736
18.8554
20.7748
22.8467
25.0487
27.3817
29.8459
32.449
35.1989
38.1182
41.235
44.4778
47.8635
51.3912
55.06
58.8764
62.8393
66.9598
71.2413
75.6946
80.3209
85.1347
90.1374
95.3438
100.753
106.376
112.2
118.24
124.495
130.981
137.695
144.652
151.849
159.304
167.012
174.989
183.23
191.753
200.549
209.639
219.01
228.684
238.647
248.922
259.491
270.379
281.565
293.075
304.885
317.024
329.466
342.238
355.313
368.72
382.427
396.464
410.797
425.457
440.408
455.682
471.24
487.113
503.258
519.708
536.41
553.398
570.615
588.088
605.767
623.657
641.721
659.913
678.198
696.525
714.855
733.143
751.388
769.63
788.037
806.427
824.73
842.908
860.913
878.684
896.155
913.264
929.929
946.083
961.629
976.49
990.559
1003.75
1015.95
1027.08
1037.03
1045.73
1053.07
1058.8
1061.89
1064.18
1063.77
1062
1058.83
1053.09
1045.5
1035.93
1024.46
1010.68
995.066
977.793
959.047
938.97
917.782
895.638
872.763
849.315
825.518
801.53
777.596
754.008
731.519
713.575
698.259
683.271
668.366
653.567
638.926
624.499
610.329
596.457
582.912
569.725
556.915
544.501
532.493
520.897
509.718
498.958
488.617
478.695
469.187
460.09
451.385
443.072
435.151
427.628
420.5
413.751
407.371
401.343
395.656
390.294
385.233
380.439
375.856
371.389
366.844
361.793
355.679
332.27
3.90267
2.17336
1.96052
2.05703
2.27355
2.55954
2.89993
3.28545
3.71494
4.19254
4.725
5.31862
5.97445
6.68918
7.45952
8.28397
9.16233
10.0952
11.0831
12.1268
13.2266
14.3825
15.5943
16.8617
18.1839
19.561
20.9918
22.478
24.0218
25.6258
27.2898
29.0095
30.7878
32.6272
34.5309
36.5036
38.5511
40.677
42.8756
45.1506
47.5049
49.9416
52.4629
55.0719
57.7697
60.5581
63.4365
66.4084
69.4755
72.6409
75.9059
79.2736
82.7452
86.3236
90.0097
93.8063
97.7138
101.735
105.87
110.122
114.489
118.975
123.579
128.304
133.147
138.111
143.194
148.398
153.721
159.165
164.727
170.409
176.207
182.122
188.15
194.292
200.542
206.902
213.367
219.936
226.603
233.367
240.221
247.162
254.181
261.275
268.433
275.65
282.913
290.218
297.547
304.887
312.224
319.547
326.847
334.125
341.395
348.692
356.076
363.645
371.143
378.586
385.952
393.22
400.37
407.377
414.218
420.864
427.287
433.455
439.333
444.888
450.081
454.874
459.229
463.104
466.446
469.174
471.112
472.541
472.915
472.899
472.122
470.402
467.876
464.527
460.363
455.35
449.571
443.089
435.959
428.243
420.012
411.333
402.284
392.935
383.364
373.641
363.841
354.07
344.531
335.794
327.689
319.827
312.1
304.5
297.04
289.74
282.614
275.677
268.937
262.404
256.082
249.976
244.086
238.413
232.955
227.711
222.677
217.85
213.227
208.803
204.553
200.492
196.622
192.942
189.447
186.132
182.991
180.016
177.204
174.547
172.04
169.676
167.446
165.345
163.353
161.49
160.481
158.108
7.40044
3.54121
2.92497
2.85283
2.97185
3.19907
3.5079
3.88682
4.33008
4.83425
5.39661
6.01431
6.68373
7.4009
8.16246
8.9662
9.81108
10.6969
11.6242
12.5938
13.6074
14.6651
15.7628
16.8968
18.0602
19.2617
20.5052
21.7927
23.1253
24.5043
25.9306
27.4049
28.929
30.5045
32.1334
33.8177
35.5594
37.3598
39.2197
41.1411
43.1293
45.1839
47.3061
49.4976
51.7597
54.0939
56.5013
58.9839
61.5432
64.181
66.8988
69.6983
72.5809
75.548
78.6008
81.7407
84.9685
88.2854
91.6922
95.1897
98.7784
102.459
106.232
110.097
114.054
118.104
122.246
126.479
130.803
135.217
139.72
144.311
148.988
153.749
158.593
163.517
168.519
173.595
178.745
183.963
189.247
194.593
199.997
205.454
210.96
216.51
222.097
227.717
233.365
239.035
244.722
250.419
256.122
261.828
267.537
273.254
278.984
284.737
290.526
296.333
302.103
307.829
313.498
319.096
324.61
330.022
335.317
340.474
345.472
350.286
354.892
359.26
363.361
367.161
370.625
373.714
376.389
378.605
380.249
381.418
381.877
381.965
381.404
380.165
378.274
375.732
372.543
368.715
364.285
359.293
353.783
347.804
341.407
334.649
327.587
320.279
312.781
305.15
297.444
289.742
282.164
274.898
267.932
261.157
254.525
248.027
241.674
235.476
229.446
223.592
217.92
212.434
207.137
202.031
197.114
192.385
187.841
183.479
179.296
175.287
171.447
167.773
164.254
160.888
157.675
154.612
151.694
148.917
146.276
143.767
141.385
139.127
136.989
134.97
133.069
131.29
129.641
128.164
127.164
126.028
10.7479
4.93746
3.9673
3.76914
3.82747
4.02793
4.32746
4.70804
5.16032
5.67792
6.2553
6.88708
7.56801
8.2934
9.05942
9.86341
10.7038
11.5797
12.4908
13.4367
14.4167
15.4308
16.4811
17.5699
18.701
19.8735
21.0873
22.343
23.6416
24.9844
26.3726
27.8081
29.2927
30.8266
32.411
34.0474
35.7371
37.481
39.2797
41.1332
43.0461
45.0204
47.0578
49.16
51.3283
53.5642
55.8694
58.2452
60.6934
63.2155
65.8131
68.4875
71.2403
74.0729
76.9864
79.9818
83.0601
86.2224
89.4693
92.8016
96.2198
99.7244
103.316
106.994
110.758
114.609
118.546
122.568
126.675
130.865
135.137
139.49
143.921
148.429
153.011
157.665
162.387
167.176
172.027
176.938
181.903
186.921
191.986
197.094
202.24
207.421
212.631
217.867
223.124
228.398
233.687
238.986
244.292
249.605
254.924
260.249
265.583
270.927
276.276
281.611
286.913
292.174
297.382
302.529
307.601
312.586
317.47
322.234
326.862
331.331
335.617
339.696
343.537
347.11
350.379
353.309
355.859
357.989
359.651
360.82
361.372
361.532
361.082
360.016
358.334
356.035
353.125
349.617
345.537
340.921
335.807
330.241
324.274
317.958
311.347
304.495
297.457
290.29
283.055
275.82
268.667
261.688
254.898
248.268
241.783
235.441
229.251
223.225
217.371
211.696
206.206
200.904
195.791
190.867
186.129
181.577
177.206
173.012
168.99
165.137
161.447
157.916
154.534
151.3
148.208
145.255
142.436
139.747
137.183
134.74
132.415
130.202
128.101
126.111
124.233
122.477
120.855
119.415
118.306
117.317
13.7428
6.27909
4.99351
4.68472
4.68711
4.85914
5.14395
5.51705
5.96565
6.48147
7.05794
7.68916
8.36976
9.09502
9.86114
10.6653
11.5058
12.3814
13.2918
14.237
15.2173
16.2335
17.2868
18.3787
19.5105
20.683
21.8967
23.1525
24.4512
25.7939
27.1815
28.615
30.0952
31.6242
33.2036
34.8348
36.5194
38.2587
40.0545
41.9091
43.8247
45.802
47.8424
49.9473
52.1183
54.357
56.665
59.0439
61.4955
64.0214
66.6232
69.3026
72.0611
74.9004
77.8223
80.8274
83.9166
87.0912
90.3519
93.6997
97.1353
100.659
104.271
107.973
111.763
115.641
119.608
123.662
127.802
132.028
136.337
140.729
145.2
149.75
154.374
159.071
163.837
168.669
173.563
178.515
183.521
188.577
193.678
198.821
203.999
209.209
214.446
219.706
224.985
230.279
235.586
240.9
246.22
251.542
256.865
262.186
267.504
272.814
278.108
283.375
288.606
293.793
298.927
303.999
308.999
313.916
318.737
323.447
328.029
332.465
336.731
340.803
344.653
348.251
351.562
354.55
357.176
359.401
361.185
362.494
363.194
363.472
363.159
362.236
360.695
358.531
355.75
352.361
348.389
343.864
338.827
333.322
327.398
321.11
314.512
307.663
300.62
293.445
286.196
278.936
271.73
264.639
257.687
250.879
244.216
237.704
231.354
225.176
219.18
213.373
207.759
202.341
197.119
192.092
187.258
182.613
178.155
173.877
169.774
165.843
162.076
158.468
155.012
151.704
148.537
145.508
142.611
139.841
137.193
134.664
132.25
129.948
127.756
125.673
123.704
121.859
120.156
118.637
117.385
116.262
16.7838
7.59763
5.98175
5.55222
5.49877
5.63716
5.90168
6.26087
6.6985
7.20466
7.77212
8.39499
9.06815
9.78727
10.5488
11.35
12.1892
13.0651
13.9773
14.9258
15.9111
16.9337
17.9947
19.095
20.2357
21.4177
22.6419
23.9091
25.2204
26.5769
27.9796
29.4297
30.9286
32.4778
34.0788
35.7332
37.4425
39.2083
41.0323
42.9165
44.8624
46.8717
48.9459
51.0866
53.2955
55.5745
57.9254
60.3499
62.85
65.4274
68.084
70.8216
73.6419
76.5465
79.5367
82.6145
85.7814
89.0388
92.3879
95.8299
99.3655
102.996
106.721
110.542
114.458
118.47
122.576
126.778
131.072
135.46
139.937
144.504
149.158
153.895
158.714
163.612
168.583
173.626
178.736
183.908
189.137
194.42
199.751
205.124
210.536
215.98
221.452
226.947
232.46
237.987
243.524
249.066
254.608
260.148
265.681
271.202
276.706
282.185
287.636
293.051
298.424
303.746
309.01
314.21
319.336
324.378
329.324
334.162
338.876
343.448
347.858
352.081
356.091
359.858
363.346
366.521
369.341
371.767
373.759
375.28
376.201
376.63
376.494
375.725
374.314
372.255
369.547
366.2
362.235
357.682
352.579
346.973
340.915
334.463
327.677
320.619
313.352
305.937
298.436
290.909
283.415
276.003
268.707
261.544
254.526
247.667
240.979
234.474
228.162
222.05
216.142
210.442
204.948
199.66
194.575
189.689
184.997
180.493
176.173
172.029
168.057
164.248
160.598
157.099
153.745
150.531
147.451
144.501
141.674
138.968
136.377
133.9
131.534
129.282
127.147
125.141
123.281
121.607
120.163
118.802
20.8666
9.04919
6.95587
6.3625
6.2378
6.33476
6.57363
6.91458
7.33737
7.83018
8.38506
8.99604
9.65831
10.3679
11.1216
11.9169
12.7521
13.6261
14.5384
15.4889
16.4778
17.5058
18.5736
19.682
20.8321
22.0247
23.2609
24.5418
25.8684
27.2419
28.6637
30.135
31.6573
33.2322
34.861
36.5456
38.2875
40.0884
41.9502
43.8747
45.8635
47.9186
50.0418
52.2349
54.4999
56.8389
59.2538
61.7468
64.32
66.9755
69.7155
72.5421
75.4573
78.4633
81.5619
84.7552
88.0451
91.4333
94.9215
98.5111
102.203
105.999
109.9
113.906
118.017
122.234
126.557
130.985
135.516
140.151
144.887
149.722
154.654
159.681
164.798
170.003
175.292
180.66
186.103
191.616
197.193
202.829
208.518
214.254
220.031
225.843
231.685
237.549
243.431
249.324
255.223
261.123
267.017
272.9
278.767
284.611
290.427
296.208
301.948
307.642
313.284
318.865
324.382
329.825
335.188
340.461
345.635
350.698
355.636
360.432
365.067
369.519
373.762
377.766
381.497
384.918
387.988
390.665
392.905
394.664
395.852
396.476
396.526
395.92
394.641
392.675
390.02
386.681
382.677
378.037
372.8
367.014
360.735
354.026
346.95
339.573
331.963
324.184
316.3
308.371
300.456
292.604
284.851
277.224
269.744
262.428
255.293
248.351
241.614
235.089
228.782
222.694
216.826
211.175
205.739
200.514
195.493
190.671
186.042
181.598
177.333
173.241
169.312
165.542
161.923
158.449
155.113
151.911
148.836
145.884
143.052
140.337
137.738
135.256
132.897
130.672
128.598
126.709
125.025
123.379
24.9079
10.4369
7.85246
7.08599
6.8841
6.93576
7.14608
7.46656
7.87278
8.35082
8.89184
9.48964
10.1395
10.8378
11.5816
12.3686
13.1973
14.0667
14.9761
15.9256
16.9152
17.9455
19.0172
20.131
21.288
22.4892
23.7357
25.0287
26.3694
27.7593
29.1996
30.692
32.2379
33.8391
35.4971
37.2139
38.991
40.8305
42.7343
44.7042
46.7424
48.8508
51.0316
53.2869
55.619
58.0303
60.523
63.0997
65.7627
68.5147
71.3581
74.2955
77.3295
80.4624
83.6969
87.0353
90.4799
94.033
97.6966
101.473
105.363
109.368
113.491
117.731
122.089
126.567
131.163
135.877
140.709
145.658
150.721
155.897
161.184
166.577
172.075
177.672
183.365
189.149
195.018
200.966
206.988
213.076
219.225
225.427
231.674
237.96
244.277
250.617
256.974
263.34
269.707
276.069
282.417
288.746
295.047
301.314
307.54
313.719
319.843
325.907
331.903
337.827
343.672
349.431
355.096
360.662
366.117
371.453
376.656
381.713
386.606
391.313
395.811
400.071
404.06
407.741
411.071
414.007
416.501
418.503
419.949
420.785
421.02
420.574
419.418
417.534
414.915
411.563
407.494
402.735
397.329
391.325
384.782
377.766
370.344
362.588
354.567
346.35
338.006
329.597
321.183
312.814
304.533
296.372
288.359
280.515
272.859
265.408
258.173
251.162
244.382
237.834
231.519
225.435
219.578
213.944
208.526
203.318
198.313
193.504
188.883
184.443
180.175
176.072
172.128
168.334
164.684
161.173
157.794
154.544
151.417
148.412
145.527
142.766
140.133
137.639
135.3
133.145
131.175
129.213
28.6174
11.6846
8.63854
7.70576
7.42732
7.4336
7.61462
7.91388
8.30296
8.76587
9.29277
9.87705
10.514
11.2001
11.9326
12.7097
13.5297
14.3918
15.2956
16.2408
17.2278
18.2571
19.3292
20.4452
21.6059
22.8126
24.0664
25.3688
26.7212
28.125
29.582
31.0939
32.6623
34.2891
35.9763
37.7257
39.5393
41.4194
43.3679
45.3871
47.4794
49.647
51.8924
54.2181
56.6268
59.121
61.7036
64.3774
67.1454
70.0104
72.9756
76.0439
79.2184
82.5021
85.898
89.4091
93.0381
96.7879
100.661
104.66
108.786
113.042
117.43
121.95
126.604
131.392
136.315
141.372
146.563
151.886
157.34
162.923
168.633
174.464
180.415
186.481
192.655
198.934
205.311
211.778
218.33
224.958
231.654
238.41
245.218
252.067
258.95
265.856
272.778
279.705
286.628
293.538
300.427
307.284
314.102
320.872
327.586
334.235
340.812
347.311
353.724
360.044
366.266
372.382
378.386
384.27
390.028
395.65
401.125
406.442
411.584
416.534
421.269
425.762
429.981
433.892
437.451
440.614
443.329
445.545
447.205
448.237
448.632
448.32
447.26
445.433
442.828
439.443
435.289
430.396
424.803
418.562
411.735
404.387
396.592
388.423
379.955
371.262
362.415
353.482
344.523
335.594
326.741
318.003
309.412
300.995
292.772
284.763
276.981
269.435
262.132
255.074
248.262
241.694
235.366
229.272
223.407
217.764
212.334
207.109
202.082
197.245
192.588
188.105
183.786
179.625
175.614
171.747
168.018
164.422
160.955
157.615
154.401
151.316
148.364
145.558
142.909
140.442
138.147
135.841
31.8731
12.7624
9.30259
8.21802
7.86516
7.8301
7.9817
8.25966
8.63152
9.07932
9.59216
10.163
10.7868
11.4603
12.1809
12.9467
13.7565
14.6094
15.5051
16.4436
17.4253
18.4506
19.5203
20.6354
21.797
23.0063
24.2648
25.5741
26.9357
28.3516
29.8236
31.3537
32.9439
34.5963
36.313
38.0964
39.9486
41.8721
43.8693
45.9428
48.0953
50.3294
52.6479
55.0539
57.5503
60.1403
62.827
65.6139
68.5043
71.5018
74.6099
77.8321
81.1722
84.6336
88.22
91.9349
95.7816
99.7635
103.884
108.145
112.55
117.101
121.801
126.65
131.651
136.803
142.109
147.567
153.176
158.937
164.846
170.903
177.103
183.443
189.918
196.525
203.256
210.106
217.067
224.132
231.292
238.539
245.863
253.254
260.701
268.194
275.722
283.273
290.837
298.401
305.955
313.487
320.986
328.441
335.841
343.176
350.435
357.61
364.691
371.669
378.537
385.285
391.908
398.399
404.75
410.954
417.006
422.896
428.618
434.159
439.509
444.65
449.564
454.227
458.611
462.68
466.396
469.712
472.577
474.938
476.735
477.906
478.404
478.174
477.159
475.348
472.725
469.282
465.027
459.985
454.194
447.708
440.586
432.899
424.721
416.129
407.203
398.02
388.654
379.178
369.656
360.148
350.704
341.369
332.178
323.163
314.348
305.754
297.397
289.286
281.429
273.83
266.488
259.402
252.569
245.981
239.633
233.517
227.625
221.948
216.478
211.206
206.122
201.219
196.488
191.921
187.51
183.248
179.13
175.15
171.305
167.591
164.009
160.561
157.253
154.093
151.096
148.278
145.622
142.946
34.6049
13.6565
9.84152
8.62352
8.20241
8.129
8.25334
8.51075
8.86576
9.29869
9.79769
10.3552
10.9662
11.6271
12.3355
13.0896
13.8884
14.7311
15.6175
16.5477
17.5223
18.542
19.6076
20.7203
21.8812
23.0918
24.3536
25.6684
27.0384
28.4659
29.9529
31.502
33.1153
34.7953
36.5447
38.3659
40.2617
42.2348
44.2881
46.4245
48.6472
50.9592
53.364
55.865
58.4656
61.1695
63.9806
66.9027
69.9398
73.096
76.3754
79.7822
83.3208
86.9952
90.8096
94.7682
98.8749
103.134
107.548
112.121
116.856
121.757
126.824
132.061
137.468
143.048
148.8
154.724
160.82
167.087
173.522
180.123
186.886
193.808
200.882
208.104
215.467
222.963
230.584
238.322
246.166
254.106
262.131
270.228
278.387
286.593
294.834
303.096
311.366
319.63
327.874
336.085
344.248
352.351
360.38
368.323
376.167
383.901
391.513
398.993
406.329
413.514
420.539
427.394
434.074
440.571
446.879
452.991
458.9
464.599
470.078
475.324
480.322
485.053
489.491
493.606
497.362
500.715
503.616
506.012
507.841
509.043
509.556
509.329
508.282
506.427
503.738
500.201
495.818
490.61
484.612
477.876
470.462
462.44
453.886
444.88
435.504
425.838
415.961
405.948
395.868
385.785
375.753
365.821
356.03
346.414
337.001
327.815
318.872
310.184
301.761
293.605
285.717
278.096
270.737
263.634
256.781
250.17
243.791
237.637
231.697
225.963
220.424
215.073
209.9
204.896
200.054
195.367
190.829
186.433
182.177
178.058
174.075
170.232
166.532
162.987
159.605
156.402
153.355
150.288
36.7722
14.3618
10.2576
8.92796
8.44764
8.33961
8.43894
8.67698
9.01581
9.43437
9.92006
10.4649
11.0635
11.7124
12.4092
13.1525
13.9413
14.7742
15.6514
16.5735
17.5412
18.5556
19.6176
20.7286
21.8902
23.1036
24.3701
25.6911
27.071
28.5125
30.018
31.5903
33.232
34.9462
36.7358
38.604
40.5539
42.5887
44.7118
46.9267
49.2369
51.6464
54.1588
56.7783
59.5091
62.3553
65.3215
68.4121
71.6318
74.9852
78.4773
82.1129
85.8967
89.8337
93.9285
98.186
102.61
107.206
111.978
116.928
122.061
127.38
132.888
138.585
144.475
150.558
156.835
163.305
169.967
176.82
183.861
191.087
198.494
206.077
213.83
221.746
229.817
238.035
246.39
254.872
263.469
272.17
280.96
289.827
298.756
307.732
316.739
325.762
334.785
343.791
352.763
361.687
370.545
379.321
388.001
396.568
405.008
413.306
421.449
429.421
437.212
444.81
452.205
459.386
466.344
473.074
479.567
485.818
491.823
497.575
503.068
508.294
513.242
517.898
522.241
526.247
529.885
533.116
535.896
538.174
539.891
540.989
541.392
541.048
539.865
537.883
535.061
531.377
526.828
521.43
515.214
508.228
500.531
492.191
483.283
473.89
464.092
453.974
443.616
433.095
422.486
411.854
401.259
390.753
380.382
370.182
360.186
350.419
340.9
331.642
322.655
313.944
305.509
297.349
289.46
281.836
274.469
267.352
260.474
253.828
247.403
241.19
235.178
229.359
223.723
218.262
212.967
207.832
202.849
198.013
193.321
188.771
184.361
180.095
175.978
172.018
168.223
164.608
161.144
157.668
38.3643
14.8804
10.5562
9.13882
8.61
8.47219
8.54956
8.77009
9.09406
9.49944
9.97312
10.5069
11.0946
11.7328
12.4195
13.1535
13.9344
14.7599
15.6308
16.5479
17.5121
18.5245
19.5865
20.6998
21.8664
23.0887
24.3662
25.7003
27.0981
28.5621
30.0955
31.7016
33.3838
35.1457
36.9913
38.9243
40.9483
43.0672
45.2848
47.6053
50.033
52.5724
55.2281
58.0049
60.9076
63.9412
67.1109
70.4219
73.8796
77.4894
81.2566
85.1869
89.2855
93.558
98.0095
102.645
107.47
112.488
117.705
123.123
128.747
134.579
140.622
146.878
153.348
160.033
166.932
174.046
181.371
188.907
196.649
204.593
212.734
221.066
229.582
238.273
247.13
256.143
265.301
274.592
284.003
293.519
303.125
312.806
322.545
332.325
342.128
351.934
361.727
371.487
381.195
390.832
400.38
409.82
419.133
428.303
437.31
446.138
454.768
463.186
471.375
479.322
487.014
494.439
501.586
508.447
515.014
521.283
527.248
532.909
538.262
543.302
548.025
552.421
556.478
560.179
563.5
566.409
568.871
570.841
572.264
573.091
573.221
572.585
571.147
568.93
565.884
561.983
557.218
551.6
545.155
537.923
529.961
521.333
512.112
502.376
492.207
481.689
470.903
459.93
448.844
437.715
426.605
415.572
404.662
393.917
383.373
373.056
362.989
353.185
343.657
334.409
325.442
316.756
308.347
300.207
292.331
284.71
277.333
270.193
263.278
256.58
250.087
243.791
237.681
231.75
225.989
220.39
214.946
209.654
204.508
199.508
194.652
189.943
185.387
180.99
176.761
172.712
168.812
164.912
39.3183
15.1972
10.7374
9.26207
8.69848
8.53763
8.59758
8.804
9.11564
9.51
9.97403
10.4999
11.0801
11.7115
12.3917
13.1193
13.8929
14.7136
15.5822
16.5006
17.4686
18.4873
19.5586
20.6846
21.8675
23.1093
24.41
25.7746
27.2078
28.7142
30.2975
31.9618
33.7112
35.55
37.4824
39.5132
41.6479
43.8906
46.2461
48.7193
51.3155
54.0401
56.8986
59.8966
63.0399
66.3342
69.7856
73.3999
77.1832
81.1415
85.281
89.6075
94.1268
98.8448
103.767
108.898
114.244
119.808
125.596
131.609
137.853
144.328
151.037
157.981
165.16
172.574
180.222
188.101
196.209
204.542
213.095
221.862
230.836
240.009
249.374
258.919
268.633
278.506
288.523
298.671
308.934
319.296
329.741
340.25
350.805
361.385
371.972
382.543
393.079
403.557
413.957
424.258
434.438
444.476
454.352
464.045
473.534
482.799
491.819
500.576
509.05
517.225
525.085
532.617
539.807
546.645
553.123
559.235
564.98
570.356
575.365
580.009
584.287
588.198
591.738
594.899
597.665
600.015
601.924
603.36
604.263
604.593
604.251
603.132
601.306
598.726
595.348
591.145
586.106
580.235
573.552
566.089
557.893
549.024
539.547
529.536
519.071
508.231
497.099
485.753
474.27
462.721
451.171
439.679
428.297
417.07
406.034
395.22
384.652
374.347
364.316
354.566
345.099
335.915
327.01
318.377
310.009
301.899
294.036
286.41
279.013
271.834
264.863
258.089
251.505
245.1
238.867
232.799
226.888
221.129
215.52
210.058
204.743
199.579
194.569
189.721
185.041
180.543
176.193
171.863
39.8315
15.3723
10.829
9.31519
8.72714
8.54955
8.59756
8.79553
9.09983
9.48792
9.94616
10.4656
11.0418
11.6721
12.3538
13.085
13.8655
14.6957
15.5765
16.5093
17.4929
18.5306
19.6251
20.7792
21.9959
23.2786
24.6306
26.0562
27.5598
29.1465
30.8211
32.5885
34.4539
36.4226
38.4998
40.6913
43.0029
45.4407
48.0105
50.7186
53.5717
56.5764
59.7393
63.067
66.5661
70.2432
74.105
78.1582
82.4092
86.8645
91.5304
96.4129
101.518
106.851
112.417
118.22
124.266
130.557
137.097
143.888
150.932
158.229
165.78
173.584
181.64
189.944
198.494
207.287
216.315
225.574
235.057
244.755
254.66
264.761
275.047
285.507
296.128
306.895
317.793
328.806
339.918
351.109
362.363
373.658
384.973
396.289
407.582
418.829
430.008
441.096
452.069
462.905
473.58
484.072
494.357
504.414
514.219
523.747
532.977
541.886
550.452
558.656
566.479
573.905
580.92
587.511
593.669
599.387
604.666
609.507
613.916
617.901
621.47
624.625
627.374
629.724
631.664
633.179
634.268
634.921
635.046
634.649
633.53
631.801
629.415
626.327
622.5
617.908
612.536
606.384
599.464
591.798
583.42
574.379
564.731
554.541
543.881
532.827
521.458
509.849
498.077
486.214
474.325
462.472
450.71
439.085
427.638
416.402
405.402
394.659
384.184
373.986
364.068
354.43
345.068
335.978
327.151
318.579
310.254
302.166
294.304
286.66
279.223
271.983
264.932
258.06
251.36
244.824
238.445
232.22
226.145
220.218
214.44
208.813
203.342
198.035
192.896
187.94
183.134
178.371
39.8007
15.3687
10.821
9.30145
8.70719
8.52411
8.56753
8.76048
9.06354
9.45405
9.91781
10.4463
11.0342
11.6784
12.3749
13.1241
13.9264
14.7826
15.6944
16.6636
17.6923
18.7833
19.94
21.166
22.4656
23.8431
25.3034
26.8519
28.494
30.2357
32.083
34.0425
36.1204
38.3235
40.6585
43.1322
45.751
48.5223
51.4541
54.5551
57.8345
61.3007
64.9611
68.8229
72.8935
77.1799
81.6891
86.4277
91.402
96.6182
102.082
107.797
113.77
120.004
126.503
133.269
140.304
147.609
155.186
163.032
171.148
179.53
188.175
197.08
206.24
215.649
225.3
235.186
245.299
255.63
266.169
276.904
287.825
298.919
310.172
321.571
333.1
344.743
356.484
368.305
380.187
392.111
404.058
416.006
427.933
439.818
451.637
463.365
474.979
486.455
497.768
508.894
519.809
530.491
540.914
551.055
560.888
570.388
579.528
588.283
596.63
604.547
612.013
619.009
625.52
631.531
637.033
642.019
646.491
650.453
653.917
656.899
659.415
661.468
663.086
664.298
665.08
665.431
665.383
664.976
663.984
662.485
660.477
657.919
654.78
651.027
646.629
641.56
635.805
629.356
622.214
614.388
605.901
596.783
587.074
576.826
566.102
554.968
543.497
531.762
519.834
507.785
495.68
483.584
471.551
459.633
447.872
436.302
424.953
413.846
402.997
392.414
382.102
372.062
362.292
352.786
343.538
334.539
325.781
317.256
308.953
300.863
292.976
285.284
277.777
270.447
263.286
256.287
249.445
242.755
236.214
229.821
223.576
217.484
211.548
205.776
200.174
194.755
189.488
184.292
39.3089
15.2342
10.7385
9.23473
8.64814
8.47339
8.53115
8.74224
9.06536
9.47538
9.96155
10.5167
11.1364
11.8183
12.5612
13.365
14.2307
15.1601
16.1558
17.2207
18.3588
19.574
20.8713
22.2558
23.7333
25.31
26.9927
28.7885
30.7048
32.7495
34.9307
37.2568
39.736
42.3772
45.1892
48.1808
51.3605
54.7374
58.3212
62.1218
66.1502
70.4147
74.9248
79.6886
84.7126
90.003
95.5648
101.403
107.52
113.921
120.607
127.58
134.842
142.392
150.228
158.351
166.755
175.438
184.394
193.619
203.105
212.844
222.83
233.053
243.504
254.173
265.048
276.12
287.376
298.804
310.392
322.127
333.994
345.981
358.07
370.248
382.499
394.805
407.149
419.514
431.882
444.233
456.547
468.804
480.983
493.062
505.019
516.828
528.467
539.91
551.134
562.116
572.832
583.26
593.376
603.154
612.568
621.59
630.191
638.345
646.027
653.213
659.881
666.01
671.584
676.591
681.016
684.855
688.114
690.8
692.927
694.528
695.626
696.206
696.346
696.11
695.395
694.252
692.738
690.865
688.585
685.891
682.772
679.204
675.169
670.648
665.616
660.048
653.923
647.225
639.937
632.056
623.594
614.552
604.95
594.824
584.222
573.199
561.819
550.149
538.253
526.201
514.057
501.886
489.745
477.686
465.753
453.986
442.414
431.063
419.948
409.083
398.473
388.119
378.022
368.176
358.575
349.213
340.082
331.172
322.476
313.985
305.69
297.581
289.652
281.894
274.3
266.864
259.58
252.445
245.456
238.613
231.917
225.371
218.981
212.754
206.695
200.822
195.102
189.484
38.3786
14.9446
10.5721
9.12552
8.58201
8.44754
8.54318
8.78967
9.15238
9.61155
10.1555
10.7778
11.4751
12.2461
13.0913
14.0121
15.0112
16.0919
17.2587
18.517
19.8726
21.332
22.9025
24.5919
26.4088
28.3621
30.4612
32.7163
35.1378
37.7364
40.5233
43.5094
46.7059
50.1241
53.7749
57.6692
61.8171
66.2289
70.9139
75.8812
81.1373
86.6933
92.5641
98.7532
105.262
112.09
119.235
126.697
134.471
142.554
150.941
159.628
168.607
177.872
187.415
197.225
207.293
217.607
228.155
238.926
249.908
261.086
272.449
283.983
295.675
307.51
319.477
331.562
343.751
356.032
368.39
380.813
393.287
405.798
418.331
430.873
443.408
455.921
468.397
480.82
493.174
505.44
517.603
529.644
541.543
553.282
564.839