/*--------------------------------*- C++ -*----------------------------------*\
| =========                 |                                                 |
| \\      /  F ield         | OpenFOAM: The Open Source CFD Toolbox           |
|  \\    /   O peration     | Version:  2312                                  |
|   \\  /    A nd           | Website:  www.openfoam.com                      |
|    \\/     M anipulation  |                                                 |
\*---------------------------------------------------------------------------*/
FoamFile
{
    version     2.0;
    format      ascii;
    arch        "LSB;label=32;scalar=64";
    class       volScalarField;
    location    "150";
    object      nut;
}
// * * * * * * * * * * * * * * * * * * * * * * * * * * * * * * * * * * * * * //

dimensions      [0 2 -1 0 0 0 0];

internalField   nonuniform List<scalar> 
12225
(
2.70743e-05
3.55747e-05
4.05232e-05
4.31925e-05
4.44516e-05
4.49646e-05
4.49112e-05
4.48721e-05
4.45038e-05
4.41857e-05
4.38525e-05
4.35248e-05
4.3229e-05
4.2948e-05
4.27143e-05
4.24787e-05
4.23188e-05
4.2095e-05
0.000212992
8.46428e-05
5.59086e-05
4.40582e-05
3.83763e-05
3.53567e-05
3.3845e-05
3.30873e-05
3.28548e-05
3.28707e-05
3.32264e-05
3.35844e-05
3.42435e-05
3.47755e-05
3.55995e-05
3.62e-05
3.71407e-05
3.76337e-05
0.000656954
0.00030656
0.000193992
0.000142124
0.00011322
9.45047e-05
8.20266e-05
7.33203e-05
6.68101e-05
6.19644e-05
5.8057e-05
5.51152e-05
5.2551e-05
5.07197e-05
4.89217e-05
4.7861e-05
4.63996e-05
4.54018e-05
0.000862987
0.000609451
0.000451562
0.000350913
0.000289257
0.000246537
0.00021667
0.000194326
0.000177768
0.000164317
0.000154065
0.000145094
0.000138229
0.00013177
0.000126895
0.000122112
0.000118155
0.000113718
0.000877432
0.000776396
0.000690787
0.000592011
0.00051727
0.000458141
0.000413465
0.000377266
0.000349683
0.000325999
0.000307932
0.000291343
0.000278974
0.000266653
0.000257946
0.000248336
0.000242304
0.000233439
0.00085841
0.000835289
0.000807254
0.000753141
0.000699354
0.000648275
0.00060483
0.000565889
0.000534224
0.00050539
0.000482532
0.000460765
0.000444144
0.000427147
0.000415051
0.000401218
0.000392788
0.000380084
0.000854258
0.000849542
0.000840708
0.000823039
0.000798592
0.000768477
0.000739183
0.000709563
0.000683376
0.000657742
0.000636244
0.000614828
0.000597767
0.000579836
0.000566633
0.000551269
0.000541522
0.000527058
0.000852389
0.000851592
0.000849792
0.000844527
0.000835947
0.000824521
0.000810181
0.000793468
0.000777256
0.000760023
0.000744587
0.00072831
0.000714614
0.000699802
0.000688245
0.000674839
0.00066544
0.000652518
0.000851903
0.00085148
0.000851079
0.000849881
0.000847545
0.000843617
0.000838594
0.000831274
0.000823652
0.000814996
0.000806313
0.000796564
0.000787823
0.000778095
0.000769885
0.000760572
0.000753056
0.000743889
0.000851815
0.000851373
0.000851074
0.000850609
0.000850035
0.000848809
0.000847332
0.000844859
0.000842001
0.000838307
0.000834509
0.00082987
0.000825436
0.000820289
0.00081559
0.000810321
0.000805576
0.000799793
0.000851799
0.000851357
0.000851021
0.000850624
0.000850325
0.000849824
0.000849339
0.000848519
0.000847606
0.000846262
0.000844877
0.000843013
0.000841207
0.000838891
0.00083683
0.00083412
0.00083206
0.000828869
0.000851792
0.000851359
0.000851001
0.000850611
0.000850306
0.000849938
0.000849632
0.000849211
0.000848816
0.000848235
0.000847678
0.000846879
0.000846142
0.000845098
0.00084422
0.000842925
0.000841986
0.000840439
0.000851787
0.000851362
0.000850989
0.000850608
0.00085028
0.000849936
0.000849645
0.00084932
0.000849041
0.000848699
0.0008484
0.000848003
0.000847662
0.000847183
0.000846791
0.000846217
0.000845778
0.000845109
0.000851783
0.000851364
0.00085098
0.000850605
0.000850263
0.000849926
0.000849622
0.000849316
0.000849043
0.00084876
0.000848508
0.000848234
0.000847992
0.000847717
0.000847475
0.00084719
0.00084694
0.000846641
0.000851781
0.000851364
0.000850974
0.0008506
0.000850251
0.000849916
0.000849603
0.0008493
0.000849019
0.000848745
0.000848489
0.000848239
0.000848006
0.000847775
0.000847558
0.000847343
0.000847139
0.000846936
0.00085178
0.000851363
0.00085097
0.000850596
0.000850243
0.000849907
0.000849589
0.000849286
0.000848999
0.000848724
0.000848464
0.000848214
0.000847977
0.00084775
0.000847533
0.000847324
0.000847125
0.000846934
0.000851779
0.000851362
0.000850967
0.000850592
0.000850236
0.000849899
0.000849579
0.000849274
0.000848984
0.000848707
0.000848444
0.000848192
0.000847952
0.000847723
0.000847503
0.000847293
0.000847092
0.000846899
0.000851779
0.000851362
0.000850966
0.000850589
0.000850233
0.000849894
0.000849572
0.000849265
0.000848974
0.000848696
0.00084843
0.000848177
0.000847935
0.000847703
0.000847482
0.000847269
0.000847066
0.000846872
0.000851779
0.000851362
0.000850965
0.000850589
0.000850232
0.000849892
0.00084957
0.000849262
0.00084897
0.000848691
0.000848424
0.00084817
0.000847926
0.000847694
0.000847471
0.000847258
0.000847053
0.000846858
0.000851779
0.000851362
0.000850966
0.000850591
0.000850234
0.000849895
0.000849573
0.000849266
0.000848973
0.000848695
0.000848428
0.000848174
0.000847929
0.000847696
0.000847472
0.000847258
0.000847051
0.000846853
0.000851779
0.000851364
0.000850968
0.000850595
0.000850238
0.000849902
0.000849578
0.000849274
0.000848979
0.0008487
0.000848426
0.000848167
0.00084791
0.000847666
0.000847419
0.000847186
0.000846945
0.000846721
0.000851778
0.000851367
0.000850969
0.000850603
0.000850243
0.00084991
0.000849573
0.000849254
0.000848916
0.000848587
0.000848222
0.000847864
0.000847455
0.000847058
0.000846593
0.000846158
0.000845633
0.000845166
0.000851779
0.000851381
0.000850972
0.000850624
0.000850209
0.000849789
0.000849233
0.000848615
0.000847803
0.000846894
0.000845767
0.000844557
0.000843122
0.000841659
0.000839953
0.000838324
0.000836375
0.000834686
0.000851855
0.000851467
0.000850932
0.000850394
0.000849126
0.000847457
0.000844946
0.000841938
0.00083807
0.000833843
0.000828955
0.00082392
0.000818442
0.000812982
0.000807259
0.000801701
0.00079581
0.00079074
0.000852785
0.00085138
0.000849189
0.000845094
0.000836883
0.000827815
0.000815745
0.000802817
0.000788366
0.000774357
0.000759647
0.000746057
0.000732092
0.000719651
0.00070678
0.000695796
0.000684033
0.000674632
0.00085821
0.000842299
0.00082896
0.000803014
0.000769254
0.00073547
0.000700795
0.000669693
0.000639482
0.000613572
0.000588586
0.000567712
0.000547276
0.000530612
0.000513811
0.000500547
0.000486495
0.000475986
0.000864336
0.000785613
0.000712706
0.000628303
0.000558274
0.000503082
0.000455736
0.000418853
0.000386605
0.00036157
0.000338736
0.000321196
0.000304378
0.000291729
0.000278864
0.000269495
0.00025931
0.000252238
0.000775951
0.000540066
0.000397937
0.000312962
0.000258151
0.000219629
0.000190497
0.000169556
0.000152541
0.000139979
0.000129081
0.000121001
0.000113509
0.000108056
0.000102612
9.87881e-05
9.46619e-05
9.18873e-05
0.000323579
0.000164842
0.000111415
8.60749e-05
7.08248e-05
6.13533e-05
5.50169e-05
5.08843e-05
4.7952e-05
4.60087e-05
4.45899e-05
4.36876e-05
4.30394e-05
4.26951e-05
4.24563e-05
4.24406e-05
4.24382e-05
4.26253e-05
3.26574e-05
3.90518e-05
4.3892e-05
4.69714e-05
4.93654e-05
5.11697e-05
5.25341e-05
5.3459e-05
5.41136e-05
5.44625e-05
5.46897e-05
5.4696e-05
5.46527e-05
5.45481e-05
5.43749e-05
5.41671e-05
5.39417e-05
5.37047e-05
5.00113e-06
1.38549e-05
1.64409e-05
1.83004e-05
1.96268e-05
2.06389e-05
2.15236e-05
2.2295e-05
2.3008e-05
2.37192e-05
2.44876e-05
2.53681e-05
2.63561e-05
2.74028e-05
2.84771e-05
2.95663e-05
3.06673e-05
3.17791e-05
3.29018e-05
3.40346e-05
3.51772e-05
3.63293e-05
3.74919e-05
3.86677e-05
3.98425e-05
4.10116e-05
4.21742e-05
4.33303e-05
4.44814e-05
4.56324e-05
4.67924e-05
4.79635e-05
4.91211e-05
5.02704e-05
5.14107e-05
5.25434e-05
5.36691e-05
5.47901e-05
5.59072e-05
5.70214e-05
5.81334e-05
5.92449e-05
6.03557e-05
6.14672e-05
6.25783e-05
6.36877e-05
6.47939e-05
6.59001e-05
6.70049e-05
6.81098e-05
6.9214e-05
7.03186e-05
7.14227e-05
7.25275e-05
7.36319e-05
7.47369e-05
7.58412e-05
7.69461e-05
7.80499e-05
7.91538e-05
8.02562e-05
8.13583e-05
8.24581e-05
8.35571e-05
8.46532e-05
8.57477e-05
8.68385e-05
8.7927e-05
8.9011e-05
9.0092e-05
9.11677e-05
9.22397e-05
9.33057e-05
9.43673e-05
9.5422e-05
9.64716e-05
9.75136e-05
9.85499e-05
9.95779e-05
0.0001006
0.000101613
0.000102619
0.000103616
0.000104606
0.000105585
0.000106557
0.000107518
0.000108472
0.000109415
0.000110349
0.000111272
0.000112184
0.000113082
0.000113967
0.000114835
0.000115685
0.000116511
0.000117309
0.00011807
0.000118862
0.00011962
0.000120366
0.000121092
0.000121799
0.000122486
0.000123151
0.000123793
0.000124411
0.000125001
0.000125563
0.000126094
0.000126591
0.000127051
0.000127472
0.000127849
0.000128181
0.000128468
0.000128721
0.000129013
0.000128991
0.00012916
0.000129078
0.000128947
0.000128827
0.000128575
0.000128247
0.000127834
0.000127374
0.000126756
0.00012606
0.00012527
0.000124392
0.000123432
0.000122392
0.000121279
0.000120099
0.000118859
0.000117563
0.000116219
0.000114831
0.000113354
0.000111751
0.00011066
0.000109665
0.000108663
0.000107644
0.00010661
0.000105568
0.000104522
0.000103477
0.000102435
0.0001014
0.000100373
9.9356e-05
9.83501e-05
9.73571e-05
9.6378e-05
9.54137e-05
9.44647e-05
9.35317e-05
9.26172e-05
9.17148e-05
9.08289e-05
8.99661e-05
8.91299e-05
8.83164e-05
8.75247e-05
8.67545e-05
8.60066e-05
8.52818e-05
8.45789e-05
8.38973e-05
8.32354e-05
8.25905e-05
8.19589e-05
8.13322e-05
8.06988e-05
8.00156e-05
7.93606e-05
7.7106e-05
7.97144e-06
4.38615e-05
8.98862e-05
0.000123285
0.00014448
0.000157056
0.000164216
0.000169052
0.000173154
0.000177174
0.000181256
0.000185334
0.00018943
0.000193657
0.000198072
0.000202702
0.000207568
0.000212689
0.000218083
0.000223761
0.000229728
0.000235988
0.000242542
0.000249369
0.000256432
0.000263681
0.0002711
0.000278639
0.000286254
0.000293905
0.000301577
0.000309295
0.000317025
0.000324753
0.000332461
0.000340124
0.000347714
0.00035524
0.000362786
0.000370348
0.000377933
0.000385557
0.000393239
0.000401004
0.000408892
0.000416897
0.000424937
0.000433014
0.000441135
0.000449305
0.000457529
0.000465811
0.000474158
0.00048257
0.000491053
0.000499609
0.000508243
0.000516952
0.000525742
0.000534609
0.000543557
0.000552582
0.000561687
0.000570868
0.000580125
0.000589455
0.000598857
0.000608326
0.000617862
0.00062746
0.00063712
0.000646837
0.000656613
0.000666443
0.00067633
0.000686269
0.000696264
0.000706312
0.000716416
0.000726577
0.0007368
0.000747088
0.000757449
0.000767887
0.000778414
0.000789037
0.00079977
0.000810625
0.000821621
0.000832769
0.000844091
0.000855594
0.000867282
0.000879149
0.000891176
0.000903307
0.00091544
0.000927399
0.000938933
0.000949701
0.000960666
0.000971724
0.000982891
0.000994161
0.00100553
0.00101697
0.00102848
0.00104003
0.0010516
0.00106315
0.00107465
0.00108606
0.00109732
0.00110838
0.00111918
0.00112966
0.0011398
0.00114966
0.00115947
0.00116815
0.00117639
0.00118344
0.00118848
0.00119455
0.00119905
0.00120252
0.00120494
0.00120646
0.00120691
0.00120631
0.00120467
0.00120201
0.00119836
0.00119379
0.00118834
0.00118208
0.00117508
0.00116738
0.00115905
0.00115007
0.00114013
0.00112769
0.00111349
0.00109853
0.00108329
0.00106797
0.00105271
0.00103757
0.00102263
0.00100793
0.000993487
0.00097934
0.000965503
0.000951989
0.000938808
0.000925971
0.000913482
0.000901348
0.000889569
0.000878145
0.000867078
0.000856274
0.0008459
0.000835898
0.000826244
0.000816913
0.000807887
0.000799158
0.000790711
0.000782539
0.000774619
0.000766931
0.000759445
0.000752124
0.000744916
0.000737721
0.000730351
0.000722473
0.000707867
0.000671126
9.86438e-06
7.00657e-05
0.00014342
0.000202223
0.00024582
0.000277209
0.000299639
0.000316104
0.000328924
0.000339693
0.000349425
0.000358735
0.000368015
0.000377519
0.000387396
0.000397723
0.00040854
0.000419861
0.000431683
0.000443982
0.000456706
0.000469857
0.00048354
0.000497817
0.000512806
0.000528179
0.000543791
0.000559563
0.000575438
0.000591374
0.000607339
0.000623315
0.000639277
0.000655216
0.000671121
0.000686986
0.000702815
0.000718626
0.000734444
0.000750275
0.000766062
0.000781868
0.000797718
0.000813627
0.000829611
0.00084567
0.000861806
0.000878023
0.000894335
0.000910751
0.000927281
0.000943935
0.00096072
0.000977646
0.000994717
0.00101194
0.00102932
0.00104686
0.00106456
0.00108242
0.00110044
0.00111862
0.00113695
0.00115543
0.00117407
0.00119284
0.00121175
0.00123079
0.00124996
0.00126924
0.00128864
0.00130814
0.00132774
0.00134743
0.00136722
0.00138708
0.00140703
0.00142705
0.00144715
0.00146732
0.00148757
0.00150789
0.0015283
0.00154879
0.00156938
0.00159007
0.00161088
0.00163182
0.00165289
0.00167412
0.00169551
0.00171707
0.00173878
0.00176062
0.00178257
0.00180457
0.00182653
0.00184838
0.00187
0.00189142
0.00191305
0.00193484
0.0019568
0.00197891
0.00200117
0.00202353
0.00204598
0.00206847
0.00209096
0.00211338
0.00213566
0.00215772
0.00217948
0.00220081
0.00222162
0.00224178
0.00226119
0.00227974
0.00229776
0.00231419
0.00232995
0.00234292
0.002353
0.00236368
0.00237207
0.00237842
0.00238275
0.00238511
0.00238543
0.00238369
0.00237992
0.00237419
0.00236656
0.00235714
0.00234603
0.00233335
0.00231922
0.00230377
0.00228709
0.00226919
0.00224981
0.00222804
0.00220414
0.00217895
0.00215306
0.00212682
0.00210044
0.00207409
0.00204788
0.00202191
0.00199624
0.00197095
0.00194607
0.00192165
0.00189771
0.0018743
0.00185142
0.0018291
0.00180734
0.00178616
0.00176556
0.00174551
0.00172609
0.00170728
0.00168904
0.00167134
0.00165417
0.00163751
0.00162134
0.00160565
0.0015904
0.00157555
0.00156106
0.00154686
0.00153283
0.00151881
0.00150445
0.00148911
0.00146719
0.00141575
1.11669e-05
9.1479e-05
0.00018671
0.000264315
0.000324305
0.000369531
0.000403706
0.000430043
0.000451145
0.000468997
0.000485032
0.00050024
0.000515271
0.000530535
0.000546277
0.000562631
0.000579664
0.000597405
0.000615862
0.000635037
0.000654945
0.000675538
0.000696667
0.000718202
0.000739949
0.000761936
0.000784152
0.000806547
0.000829068
0.000851665
0.000874293
0.000896906
0.000919463
0.000941995
0.000964501
0.000986982
0.00100945
0.00103192
0.00105443
0.00107702
0.00109963
0.00112227
0.00114494
0.00116766
0.00119045
0.00121332
0.00123629
0.00125936
0.00128257
0.00130591
0.00132941
0.00135307
0.00137691
0.00140094
0.00142517
0.0014496
0.00147425
0.00149911
0.0015242
0.00154951
0.00157503
0.00160078
0.00162674
0.0016529
0.00167927
0.00170584
0.00173259
0.00175952
0.00178662
0.00181388
0.00184129
0.00186884
0.00189652
0.00192432
0.00195223
0.00198025
0.00200836
0.00203655
0.00206482
0.00209317
0.00212159
0.00215008
0.00217863
0.00220725
0.00223595
0.00226471
0.00229355
0.00232247
0.00235147
0.00238057
0.00240975
0.00243902
0.00246836
0.00249774
0.00252716
0.00255655
0.00258589
0.00261512
0.00264424
0.00267338
0.00270266
0.00273208
0.00276165
0.00279134
0.00282115
0.00285105
0.002881
0.00291095
0.00294085
0.00297064
0.00300024
0.00302954
0.00305844
0.00308681
0.00311453
0.00314145
0.00316742
0.0031923
0.00321601
0.00323825
0.00325965
0.00327757
0.00329216
0.00330661
0.00331855
0.00332788
0.00333455
0.00333857
0.00333986
0.00333844
0.00333431
0.00332755
0.00331824
0.0033065
0.00329245
0.00327625
0.00325804
0.00323797
0.00321619
0.00319272
0.00316743
0.00313995
0.00311041
0.00307936
0.00304729
0.00301458
0.00298149
0.00294822
0.00291492
0.00288172
0.00284873
0.00281605
0.00278374
0.00275187
0.0027205
0.00268966
0.00265941
0.00262977
0.00260076
0.00257241
0.00254473
0.00251771
0.00249141
0.00246582
0.00244092
0.00241669
0.00239312
0.00237019
0.00234789
0.00232619
0.00230507
0.00228451
0.00226445
0.00224481
0.00222548
0.00220627
0.0021868
0.0021662
0.00213955
0.00208587
1.21162e-05
0.000109342
0.000223014
0.000316491
0.000390632
0.000448138
0.000492971
0.000528552
0.000557691
0.000582606
0.000604977
0.000626022
0.000646586
0.000667226
0.00068829
0.000709979
0.000732398
0.000755588
0.00077955
0.000804259
0.000829667
0.000855699
0.000882257
0.000909239
0.000936555
0.000964153
0.000991982
0.00101999
0.00104813
0.00107636
0.00110463
0.00113294
0.00116128
0.00118958
0.00121784
0.00124605
0.00127422
0.00130234
0.00133043
0.00135847
0.00138645
0.00141444
0.00144245
0.00147052
0.00149865
0.00152688
0.00155522
0.00158369
0.0016123
0.00164108
0.00167004
0.0016992
0.00172857
0.00175815
0.00178795
0.001818
0.0018483
0.00187887
0.00190969
0.00194078
0.00197213
0.00200373
0.0020356
0.0020677
0.00210005
0.00213263
0.00216543
0.00219844
0.00223165
0.00226503
0.0022986
0.00233231
0.00236617
0.00240016
0.00243427
0.00246847
0.00250277
0.00253713
0.00257156
0.00260604
0.00264056
0.00267512
0.00270969
0.00274429
0.0027789
0.00281352
0.00284814
0.00288276
0.00291738
0.002952
0.00298661
0.00302121
0.00305578
0.00309031
0.0031248
0.00315922
0.00319357
0.00322784
0.00326207
0.00329633
0.00333068
0.00336511
0.00339964
0.00343425
0.00346893
0.00350366
0.00353841
0.00357315
0.00360781
0.00364235
0.00367667
0.0037107
0.00374431
0.00377739
0.00380979
0.00384136
0.00387194
0.00390135
0.0039294
0.00395583
0.00398161
0.00400401
0.0040229
0.00404054
0.00405606
0.00406863
0.00407822
0.00408474
0.00408816
0.00408844
0.00408561
0.0040797
0.0040708
0.00405901
0.00404448
0.00402733
0.00400775
0.00398588
0.00396188
0.00393582
0.00390771
0.00387745
0.00384517
0.00381125
0.00377605
0.00373993
0.00370314
0.00366591
0.00362842
0.00359083
0.00355326
0.00351584
0.00347867
0.00344183
0.00340539
0.00336943
0.00333399
0.00329913
0.00326488
0.00323128
0.00319835
0.00316611
0.00313459
0.00310381
0.00307377
0.00304445
0.00301586
0.00298799
0.00296082
0.00293435
0.00290856
0.00288339
0.00285885
0.00283486
0.00281132
0.00278806
0.0027647
0.00274031
0.00271071
0.00265976
1.29439e-05
0.00012304
0.000252216
0.000360055
0.000446848
0.000515891
0.000570866
0.00061537
0.000652367
0.000684238
0.00071283
0.000739524
0.000765318
0.000790897
0.000816711
0.000843038
0.000870029
0.000897756
0.000926231
0.000955428
0.000985295
0.00101576
0.00104675
0.00107817
0.00110995
0.00114203
0.00117434
0.00120682
0.00123943
0.00127212
0.00130485
0.00133758
0.00137031
0.00140299
0.00143561
0.00146817
0.00150066
0.00153309
0.00156546
0.00159777
0.00163006
0.00166233
0.00169462
0.00172696
0.00175935
0.00179184
0.00182443
0.00185715
0.00189003
0.00192308
0.00195632
0.00198977
0.00202345
0.00205738
0.00209157
0.00212602
0.00216074
0.00219574
0.00223102
0.00226658
0.00230241
0.00233852
0.0023749
0.00241154
0.00244843
0.00248556
0.00252293
0.00256051
0.0025983
0.00263628
0.00267442
0.00271272
0.00275116
0.00278971
0.00282836
0.0028671
0.00290589
0.00294473
0.00298359
0.00302246
0.00306132
0.00310015
0.00313895
0.00317769
0.00321636
0.00325495
0.00329345
0.00333184
0.00337013
0.00340831
0.00344636
0.00348428
0.00352207
0.00355973
0.00359725
0.00363464
0.00367193
0.00370915
0.00374629
0.00378341
0.00382052
0.00385765
0.0038948
0.00393197
0.00396916
0.00400637
0.00404358
0.00408076
0.00411788
0.0041549
0.00419175
0.00422835
0.00426462
0.00430043
0.00433567
0.00437018
0.0044038
0.00443634
0.00446758
0.00449724
0.00452628
0.00455264
0.00457577
0.00459675
0.00461591
0.00463213
0.00464529
0.00465525
0.00466193
0.00466528
0.00466528
0.00466196
0.00465536
0.00464558
0.00463273
0.00461693
0.00459835
0.00457712
0.00455341
0.00452733
0.00449895
0.00446834
0.00443563
0.0044011
0.00436506
0.0043278
0.00428958
0.00425063
0.00421115
0.00417131
0.00413127
0.00409116
0.0040511
0.0040112
0.00397155
0.00393224
0.00389334
0.0038549
0.00381699
0.00377966
0.00374293
0.00370685
0.00367145
0.00363675
0.00360277
0.00356952
0.003537
0.00350523
0.0034742
0.0034439
0.00341434
0.0033855
0.00335735
0.00332987
0.00330298
0.00327655
0.00325024
0.00322316
0.00319185
0.00314492
1.39234e-05
0.00013107
0.000273455
0.000394791
0.000493571
0.00057362
0.000638363
0.000691523
0.000736186
0.000774853
0.000809494
0.000841617
0.00087234
0.00090246
0.000932523
0.000962885
0.000993759
0.00102526
0.00105742
0.00109025
0.0011237
0.00115772
0.00119224
0.00122718
0.00126248
0.00129807
0.00133388
0.00136986
0.00140594
0.0014421
0.00147827
0.00151444
0.00155057
0.00158665
0.00162264
0.00165856
0.00169439
0.00173013
0.00176581
0.00180142
0.00183699
0.00187254
0.0019081
0.00194367
0.0019793
0.002015
0.0020508
0.00208673
0.00212279
0.00215903
0.00219546
0.00223209
0.00226895
0.00230606
0.00234342
0.00238105
0.00241895
0.00245713
0.0024956
0.00253435
0.00257339
0.0026127
0.00265229
0.00269215
0.00273227
0.00277263
0.00281323
0.00285404
0.00289506
0.00293626
0.00297763
0.00301914
0.00306078
0.00310252
0.00314433
0.00318621
0.00322811
0.00327002
0.00331191
0.00335377
0.00339556
0.00343726
0.00347885
0.00352032
0.00356163
0.00360278
0.00364375
0.00368451
0.00372506
0.00376539
0.00380548
0.00384534
0.00388496
0.00392434
0.00396348
0.00400241
0.00404114
0.00407969
0.00411809
0.00415636
0.00419453
0.00423262
0.00427066
0.00430865
0.00434662
0.00438458
0.00442253
0.00446047
0.00449839
0.00453627
0.00457407
0.00461174
0.00464922
0.00468641
0.00472323
0.00475953
0.00479517
0.00482999
0.00486377
0.00489627
0.00492792
0.00495781
0.00498512
0.00500991
0.00503303
0.00505344
0.00507089
0.00508519
0.00509619
0.0051038
0.00510798
0.00510871
0.005106
0.00509991
0.0050905
0.00507789
0.00506219
0.00504355
0.00502209
0.00499797
0.00497129
0.00494218
0.00491079
0.00487736
0.00484214
0.0048054
0.00476739
0.00472834
0.00468845
0.00464792
0.00460691
0.00456558
0.00452407
0.00448251
0.004441
0.00439964
0.00435852
0.00431772
0.00427731
0.00423735
0.0041979
0.00415899
0.00412068
0.00408301
0.00404599
0.00400966
0.00397403
0.00393913
0.00390497
0.00387156
0.00383891
0.00380702
0.0037759
0.00374553
0.00371589
0.00368688
0.00365823
0.00362916
0.00359684
0.00355342
1.47776e-05
0.000136159
0.000288915
0.000421974
0.000531641
0.000621929
0.00069591
0.000757341
0.000809375
0.000854592
0.000895049
0.000932346
0.000967697
0.00100199
0.00103587
0.00106976
0.00110393
0.00113856
0.00117373
0.00120945
0.00124573
0.00128252
0.00131977
0.00135742
0.0013954
0.00143364
0.00147209
0.00151069
0.00154939
0.00158812
0.00162687
0.00166558
0.00170423
0.00174281
0.00178129
0.00181967
0.00185794
0.00189612
0.0019342
0.0019722
0.00201014
0.00204804
0.00208592
0.0021238
0.00216172
0.00219969
0.00223774
0.0022759
0.00231419
0.00235263
0.00239125
0.00243007
0.0024691
0.00250837
0.00254789
0.00258766
0.00262771
0.00266803
0.00270863
0.00274952
0.00279069
0.00283213
0.00287386
0.00291585
0.00295811
0.00300061
0.00304334
0.00308629
0.00312944
0.00317278
0.00321626
0.00325989
0.00330363
0.00334745
0.00339133
0.00343525
0.00347916
0.00352305
0.00356689
0.00361064
0.00365427
0.00369777
0.00374108
0.0037842
0.00382709
0.00386973
0.00391209
0.00395416
0.00399591
0.00403733
0.00407841
0.00411914
0.00415951
0.00419953
0.00423921
0.00427855
0.00431757
0.0043563
0.00439477
0.00443299
0.00447101
0.00450885
0.00454656
0.00458416
0.00462169
0.00465918
0.00469667
0.00473418
0.00477174
0.00480934
0.004847
0.0048847
0.00492241
0.00496007
0.00499762
0.00503497
0.00507199
0.00510855
0.00514448
0.00517956
0.00521382
0.00524707
0.00527832
0.00530761
0.00533509
0.00536029
0.00538278
0.00540227
0.00541856
0.00543152
0.00544106
0.00544711
0.00544964
0.00544864
0.00544416
0.00543624
0.00542498
0.00541048
0.00539287
0.00537227
0.00534883
0.00532268
0.00529398
0.00526297
0.00522985
0.00519489
0.00515831
0.00512036
0.00508125
0.00504117
0.00500032
0.00495887
0.00491696
0.00487475
0.00483236
0.0047899
0.00474749
0.00470521
0.00466315
0.00462139
0.00457999
0.00453901
0.00449851
0.00445854
0.00441914
0.00438035
0.00434221
0.00430474
0.00426798
0.00423195
0.00419669
0.00416221
0.00412854
0.0040957
0.00406369
0.00403248
0.00400186
0.00397117
0.00393815
0.00389736
1.5485e-05
0.000139255
0.000299832
0.00044264
0.000561863
0.000661373
0.000743863
0.000813018
0.000871995
0.000923404
0.000969356
0.00101151
0.00105116
0.00108927
0.00112655
0.0011635
0.00120047
0.00123766
0.00127522
0.00131321
0.00135164
0.00139049
0.00142975
0.00146935
0.00150924
0.00154937
0.00158968
0.0016301
0.00167059
0.00171111
0.0017516
0.00179203
0.00183238
0.00187262
0.00191275
0.00195274
0.00199261
0.00203235
0.00207197
0.00211149
0.00215092
0.00219028
0.0022296
0.0022689
0.00230821
0.00234755
0.00238694
0.00242643
0.00246603
0.00250576
0.00254566
0.00258573
0.00262601
0.00266651
0.00270725
0.00274824
0.00278949
0.00283102
0.00287282
0.0029149
0.00295727
0.00299992
0.00304284
0.00308604
0.00312951
0.00317322
0.00321717
0.00326135
0.00330573
0.00335029
0.00339502
0.00343987
0.00348484
0.00352989
0.00357499
0.00362011
0.00366521
0.00371027
0.00375524
0.00380009
0.0038448
0.00388931
0.00393359
0.00397762
0.00402135
0.00406475
0.00410779
0.00415045
0.0041927
0.00423452
0.00427589
0.00431679
0.00435722
0.00439718
0.00443667
0.0044757
0.00451428
0.00455244
0.0045902
0.00462761
0.00466469
0.00470149
0.00473806
0.00477446
0.00481074
0.00484696
0.00488317
0.00491945
0.00495584
0.0049924
0.00502916
0.00506616
0.00510341
0.0051409
0.00517861
0.00521649
0.00525446
0.00529242
0.00533023
0.00536773
0.00540475
0.00544129
0.00547655
0.0055105
0.00554303
0.00557359
0.00560183
0.00562729
0.00564975
0.00566902
0.00568496
0.00569745
0.00570639
0.00571172
0.00571341
0.00571148
0.00570597
0.00569693
0.00568446
0.00566868
0.00564972
0.00562773
0.00560287
0.00557534
0.00554536
0.00551317
0.00547901
0.0054431
0.00540568
0.00536695
0.00532712
0.00528637
0.00524488
0.00520279
0.00516027
0.00511744
0.00507443
0.00503133
0.00498826
0.0049453
0.00490253
0.00486004
0.00481788
0.00477611
0.00473481
0.00469402
0.00465378
0.00461415
0.00457517
0.00453688
0.00449933
0.00446257
0.00442664
0.0043916
0.00435747
0.00432427
0.00429186
0.00425972
0.00422604
0.00418738
1.60584e-05
0.000140788
0.000306925
0.000457504
0.000584979
0.00069238
0.000782549
0.000858743
0.000924096
0.000981218
0.00103224
0.00107886
0.00112242
0.00116394
0.0012042
0.00124376
0.00128301
0.00132225
0.00136163
0.00140127
0.00144121
0.00148147
0.00152204
0.00156289
0.00160397
0.00164525
0.00168666
0.00172815
0.00176968
0.00181119
0.00185263
0.00189399
0.00193522
0.00197632
0.00201725
0.00205803
0.00209864
0.0021391
0.0021794
0.00221956
0.00225961
0.00229956
0.00233943
0.00237926
0.00241907
0.00245889
0.00249875
0.00253868
0.0025787
0.00261884
0.00265913
0.00269958
0.00274023
0.00278109
0.00282219
0.00286353
0.00290513
0.00294701
0.00298916
0.00303161
0.00307435
0.00311738
0.00316071
0.00320432
0.00324821
0.00329237
0.00333679
0.00338145
0.00342634
0.00347142
0.00351669
0.00356211
0.00360766
0.0036533
0.00369899
0.00374472
0.00379043
0.0038361
0.00388167
0.00392711
0.00397237
0.00401742
0.00406221
0.00410669
0.00415083
0.00419458
0.00423791
0.00428077
0.00432313
0.00436497
0.00440626
0.00444697
0.0044871
0.00452662
0.00456555
0.00460388
0.00464163
0.00467881
0.00471547
0.00475163
0.00478734
0.00482265
0.00485763
0.00489234
0.00492687
0.00496131
0.00499573
0.00503025
0.00506494
0.00509991
0.00513524
0.00517102
0.0052073
0.00524414
0.00528155
0.00531956
0.00535812
0.00539719
0.00543666
0.00547641
0.00551629
0.00555612
0.00559553
0.00563425
0.00567219
0.00570871
0.00574327
0.0057755
0.00580488
0.0058313
0.00585455
0.00587445
0.00589082
0.00590354
0.00591252
0.0059177
0.00591906
0.00591662
0.00591043
0.00590058
0.00588718
0.00587037
0.00585031
0.0058272
0.00580125
0.00577269
0.00574175
0.00570868
0.00567371
0.00563706
0.00559895
0.00555958
0.00551914
0.00547781
0.00543576
0.00539312
0.00535005
0.00530667
0.00526308
0.0052194
0.00517572
0.00513213
0.00508872
0.00504555
0.00500271
0.00496025
0.00491824
0.00487674
0.00483581
0.00479552
0.00475593
0.00471709
0.00467909
0.004642
0.00460589
0.00457081
0.00453669
0.0045031
0.00446864
0.00443114
1.65114e-05
0.000141059
0.000310776
0.000467268
0.000601535
0.000715604
0.00081236
0.00089473
0.000965741
0.00102796
0.00108349
0.00113407
0.00118106
0.00122551
0.00126826
0.00130992
0.00135094
0.00139166
0.0014323
0.00147298
0.0015138
0.0015548
0.00159599
0.00163737
0.00167892
0.0017206
0.00176237
0.0018042
0.001846
0.00188772
0.00192934
0.0019708
0.0020121
0.00205321
0.00209412
0.00213482
0.00217531
0.0022156
0.00225569
0.00229561
0.00233537
0.00237499
0.00241452
0.00245397
0.00249338
0.00253279
0.00257221
0.00261169
0.00265125
0.00269093
0.00273075
0.00277073
0.00281091
0.00285131
0.00289194
0.00293284
0.002974
0.00301546
0.00305722
0.0030993
0.00314169
0.00318441
0.00322745
0.00327082
0.00331451
0.0033585
0.0034028
0.00344738
0.00349223
0.00353733
0.00358265
0.00362816
0.00367384
0.00371966
0.00376557
0.00381154
0.00385752
0.00390348
0.00394936
0.00399512
0.00404071
0.00408607
0.00413117
0.00417593
0.00422032
0.00426428
0.00430776
0.00435071
0.00439309
0.00443487
0.00447599
0.00451644
0.00455618
0.0045952
0.00463348
0.00467103
0.00470785
0.00474396
0.00477939
0.00481417
0.00484835
0.00488201
0.0049152
0.00494801
0.00498056
0.00501294
0.00504527
0.0050777
0.00511034
0.00514335
0.00517686
0.00521102
0.00524592
0.0052817
0.00531842
0.00535617
0.00539498
0.00543484
0.00547572
0.00551751
0.00556009
0.00560327
0.00564681
0.00569039
0.005734
0.00577673
0.00581821
0.00585779
0.00589482
0.00592906
0.0059604
0.00598855
0.00601325
0.00603429
0.00605152
0.0060648
0.00607405
0.00607923
0.00608032
0.00607738
0.00607051
0.00605981
0.00604544
0.00602759
0.00600646
0.00598229
0.00595531
0.00592577
0.00589392
0.00585998
0.0058242
0.0057868
0.00574798
0.00570794
0.00566686
0.00562491
0.00558224
0.005539
0.00549532
0.00545132
0.00540711
0.00536279
0.00531845
0.0052742
0.00523011
0.00518626
0.00514273
0.0050996
0.00505695
0.00501484
0.00497337
0.00493262
0.00489268
0.00485365
0.00481564
0.00477872
0.00474288
0.00470781
0.00467238
0.00463531
1.68554e-05
0.000140294
0.000311827
0.000472441
0.000611933
0.000731379
0.000833566
0.000921122
0.000996929
0.00106347
0.00112283
0.00117672
0.00122651
0.00127331
0.00131795
0.0013611
0.00140322
0.00144479
0.00148604
0.00152712
0.00156814
0.00160916
0.00165023
0.00169137
0.00173258
0.00177385
0.0018152
0.00185665
0.00189797
0.00193912
0.00198008
0.00202081
0.00206132
0.00210157
0.00214156
0.00218127
0.00222072
0.00225991
0.00229885
0.00233756
0.00237608
0.00241442
0.00245264
0.00249077
0.00252884
0.0025669
0.00260498
0.00264311
0.00268134
0.00271969
0.00275819
0.00279689
0.0028358
0.00287496