/*--------------------------------*- C++ -*----------------------------------*\
| =========                 |                                                 |
| \\      /  F ield         | OpenFOAM: The Open Source CFD Toolbox           |
|  \\    /   O peration     | Version:  2312                                  |
|   \\  /    A nd           | Website:  www.openfoam.com                      |
|    \\/     M anipulation  |                                                 |
\*---------------------------------------------------------------------------*/
FoamFile
{
    version     2.0;
    format      ascii;
    arch        "LSB;label=32;scalar=64";
    class       surfaceScalarField;
    location    "150";
    object      phi;
}
// * * * * * * * * * * * * * * * * * * * * * * * * * * * * * * * * * * * * * //

dimensions      [0 3 -1 0 0 0 0];

oriented        oriented;

internalField   nonuniform List<scalar> 
24170
(
3.11512e-06
7.32869e-08
3.01297e-06
1.02145e-07
2.91751e-06
9.54603e-08
2.82634e-06
9.11637e-08
2.74035e-06
8.59856e-08
2.66285e-06
7.7497e-08
2.59497e-06
6.7872e-08
2.53609e-06
5.88812e-08
2.48508e-06
5.10056e-08
2.44086e-06
4.42183e-08
2.40247e-06
3.83929e-08
2.36908e-06
3.33786e-08
2.34005e-06
2.90276e-08
2.31484e-06
2.52161e-08
2.29313e-06
2.17005e-08
2.27448e-06
1.86549e-08
2.25874e-06
1.573e-08
1.23712e-08
2.24637e-06
3.46865e-06
2.1884e-08
3.48677e-06
8.40202e-08
3.49345e-06
8.87817e-08
3.49232e-06
9.22878e-08
3.48433e-06
9.39716e-08
3.47073e-06
9.10973e-08
3.45281e-06
8.57874e-08
3.43178e-06
7.99037e-08
3.40876e-06
7.403e-08
3.38465e-06
6.83245e-08
3.36016e-06
6.28762e-08
3.3358e-06
5.77335e-08
3.31195e-06
5.28778e-08
3.28887e-06
4.82946e-08
3.26676e-06
4.38092e-08
3.24585e-06
3.9565e-08
3.22686e-06
3.47108e-08
2.83839e-08
3.21085e-06
3.66801e-06
1.63897e-08
3.68031e-06
7.17173e-08
3.69001e-06
7.90822e-08
3.70003e-06
8.22613e-08
3.70915e-06
8.48546e-08
3.71625e-06
8.39958e-08
3.72122e-06
8.08114e-08
3.72428e-06
7.68451e-08
3.72565e-06
7.26526e-08
3.7256e-06
6.83763e-08
3.72437e-06
6.41031e-08
3.7222e-06
5.99023e-08
3.71929e-06
5.57852e-08
3.71584e-06
5.17383e-08
3.712e-06
4.76499e-08
3.70811e-06
4.34535e-08
3.70419e-06
3.86321e-08
3.26441e-08
3.69993e-06
3.92495e-06
1.68237e-08
3.93557e-06
6.11042e-08
3.94313e-06
7.15189e-08
3.95015e-06
7.52303e-08
3.95684e-06
7.8163e-08
3.96265e-06
7.81918e-08
3.96762e-06
7.58358e-08
3.97196e-06
7.25014e-08
3.97577e-06
6.88455e-08
3.97909e-06
6.50495e-08
3.98199e-06
6.11997e-08
3.98453e-06
5.7362e-08
3.98676e-06
5.35517e-08
3.98875e-06
4.97473e-08
3.99054e-06
4.58534e-08
3.99224e-06
4.17598e-08
3.99367e-06
3.72004e-08
3.18836e-08
3.99443e-06
4.20772e-06
1.62257e-08
4.21609e-06
5.27353e-08
4.22227e-06
6.53426e-08
4.22776e-06
6.97381e-08
4.23321e-06
7.27097e-08
4.23825e-06
7.31516e-08
4.24279e-06
7.12944e-08
4.24693e-06
6.83609e-08
4.25074e-06
6.50345e-08
4.25426e-06
6.15226e-08
4.25754e-06
5.79143e-08
4.26063e-06
5.42747e-08
4.26356e-06
5.06247e-08
4.26636e-06
4.69436e-08
4.26905e-06
4.31563e-08
4.27164e-06
3.91705e-08
4.274e-06
3.48393e-08
3.00366e-08
4.27585e-06
4.51042e-06
1.48883e-08
4.51713e-06
4.60273e-08
4.52284e-06
5.96288e-08
4.52798e-06
6.45969e-08
4.53313e-06
6.75618e-08
4.538e-06
6.82804e-08
4.54244e-06
6.68505e-08
4.54651e-06
6.42904e-08
4.55028e-06
6.12615e-08
4.55381e-06
5.79931e-08
4.55713e-06
5.45846e-08
4.5603e-06
5.1105e-08
4.56334e-06
4.75831e-08
4.56628e-06
4.40059e-08
4.56911e-06
4.03222e-08
4.57181e-06
3.64677e-08
4.57428e-06
3.23679e-08
2.79975e-08
4.57632e-06
4.83415e-06
1.34587e-08
4.83991e-06
4.02628e-08
4.84555e-06
5.39862e-08
4.85068e-06
5.94703e-08
4.85575e-06
6.24901e-08
4.86059e-06
6.34382e-08
4.86505e-06
6.2389e-08
4.86916e-06
6.01794e-08
4.87299e-06
5.74322e-08
4.87658e-06
5.43941e-08
4.87999e-06
5.1177e-08
4.88324e-06
4.78545e-08
4.88636e-06
4.44643e-08
4.88936e-06
4.10045e-08
4.89223e-06
3.74475e-08
4.89494e-06
3.37568e-08
4.8974e-06
2.99093e-08
2.59364e-08
4.89946e-06
5.18096e-06
1.20813e-08
5.18606e-06
3.51592e-08
5.19159e-06
4.84513e-08
5.19673e-06
5.4328e-08
5.2018e-06
5.74203e-08
5.20669e-06
5.8546e-08
5.21125e-06
5.78279e-08
5.21548e-06
5.59453e-08
5.21944e-06
5.34711e-08
5.22317e-06
5.06629e-08
5.22671e-06
4.76425e-08
5.23007e-06
4.44885e-08
5.23329e-06
4.12473e-08
5.23636e-06
3.79297e-08
5.23928e-06
3.45291e-08
5.242e-06
3.10343e-08
5.24445e-06
2.74538e-08
2.3842e-08
5.24655e-06
5.55268e-06
1.07409e-08
5.55721e-06
3.06247e-08
5.56253e-06
4.31291e-08
5.56766e-06
4.91993e-08
5.57274e-06
5.23337e-08
5.57771e-06
5.35783e-08
5.5824e-06
5.31373e-08
5.58679e-06
5.15558e-08
5.59091e-06
4.93456e-08
5.5948e-06
4.67684e-08
5.59849e-06
4.39532e-08
5.602e-06
4.09831e-08
5.60533e-06
3.7912e-08
5.6085e-06
3.47636e-08
5.61148e-06
3.15484e-08
5.61423e-06
2.82752e-08
5.61672e-06
2.49699e-08
2.16962e-08
5.61886e-06
5.95107e-06
9.44368e-09
5.95512e-06
2.65789e-08
5.96018e-06
3.80679e-08
5.96526e-06
4.41153e-08
5.97035e-06
4.72421e-08
5.97537e-06
4.85511e-08
5.98018e-06
4.8329e-08
5.98472e-06
4.70147e-08
5.98901e-06
4.50537e-08
5.99307e-06
4.27042e-08
5.99692e-06
4.01002e-08
6.00058e-06
3.73279e-08
6.00404e-06
3.44471e-08
6.00731e-06
3.14924e-08
6.01037e-06
2.84875e-08
6.01319e-06
2.54553e-08
6.01573e-06
2.24297e-08
1.94755e-08
6.01795e-06
6.37805e-06
8.21011e-09
6.38168e-06
2.2941e-08
6.38647e-06
3.32792e-08
6.39148e-06
3.91049e-08
6.39655e-06
4.21654e-08
6.40161e-06
4.34906e-08
6.40651e-06
4.34287e-08
6.41118e-06
4.23422e-08
6.41562e-06
4.06113e-08
6.41984e-06
3.84823e-08
6.42385e-06
3.60918e-08
6.42765e-06
3.35277e-08
6.43124e-06
3.08536e-08
6.43462e-06
2.81125e-08
6.43777e-06
2.5337e-08
6.44066e-06
2.25585e-08
6.44328e-06
1.98134e-08
1.71634e-08
6.44559e-06
5.74182e-06
7.21907e-09
5.74463e-06
2.01355e-08
5.74846e-06
2.94411e-08
5.75263e-06
3.49413e-08
5.75689e-06
3.78961e-08
5.76118e-06
3.92035e-08
5.76537e-06
3.92336e-08
5.76941e-06
3.83077e-08
5.77326e-06
3.67554e-08
5.77693e-06
3.48065e-08
5.78043e-06
3.25965e-08
5.78374e-06
3.02141e-08
5.78687e-06
2.77247e-08
5.7898e-06
2.51756e-08
5.79254e-06
2.26043e-08
5.79505e-06
2.00461e-08
5.79732e-06
1.75364e-08
1.51337e-08
5.79935e-06
6.99922e-06
6.15589e-09
7.0022e-06
1.71555e-08
7.00636e-06
2.52747e-08
7.01101e-06
3.02889e-08
7.01586e-06
3.30477e-08
7.02077e-06
3.42895e-08
7.02562e-06
3.43821e-08
7.03032e-06
3.36059e-08
7.03484e-06
3.22382e-08
7.03915e-06
3.04869e-08
7.04327e-06
2.84829e-08
7.04717e-06
2.63135e-08
7.05084e-06
2.40444e-08
7.05429e-06
2.17252e-08
7.0575e-06
1.9396e-08
7.06045e-06
1.70935e-08
7.06314e-06
1.48501e-08
1.27203e-08
7.06555e-06
8.53197e-06
5.02983e-09
8.5351e-06
1.40288e-08
8.53956e-06
2.08103e-08
8.54469e-06
2.51587e-08
8.55013e-06
2.76049e-08
8.5557e-06
2.87145e-08
8.56126e-06
2.88244e-08
8.56669e-06
2.81749e-08
8.57193e-06
2.69909e-08
8.57697e-06
2.54518e-08
8.58177e-06
2.36789e-08
8.58633e-06
2.17558e-08
8.59063e-06
1.97449e-08
8.59465e-06
1.76958e-08
8.5984e-06
1.56482e-08
8.60186e-06
1.36374e-08
8.60502e-06
1.16916e-08
9.85888e-09
8.60788e-06
1.04004e-05
3.85222e-09
1.04036e-05
1.07771e-08
1.04084e-05
1.60737e-08
1.0414e-05
1.95655e-08
1.042e-05
2.15583e-08
1.04263e-05
2.24483e-08
1.04326e-05
2.25148e-08
1.04388e-05
2.19553e-08
1.04449e-05
2.09443e-08
1.04507e-05
1.96268e-08
1.04562e-05
1.81086e-08
1.04615e-05
1.6464e-08
1.04665e-05
1.47501e-08
1.04712e-05
1.30117e-08
1.04756e-05
1.12854e-08
1.04796e-05
9.6021e-09
1.04833e-05
7.98478e-09
6.47418e-09
1.04867e-05
1.2678e-05
2.63101e-09
1.26814e-05
7.39862e-09
1.26864e-05
1.10675e-08
1.26924e-05
1.35109e-08
1.26991e-05
1.48896e-08
1.27061e-05
1.54516e-08
1.27132e-05
1.53991e-08
1.27203e-05
1.48804e-08
1.27272e-05
1.4021e-08
1.27339e-05
1.2928e-08
1.27403e-05
1.16833e-08
1.27465e-05
1.03477e-08
1.27522e-05
8.96727e-09
1.27577e-05
7.57902e-09
1.27627e-05
6.21231e-09
1.27674e-05
4.89195e-09
1.27718e-05
3.63417e-09
2.47259e-09
1.27758e-05
1.54545e-05
1.35806e-09
1.5458e-05
3.85119e-09
1.54633e-05
5.73815e-09
1.54699e-05
6.94111e-09
1.54772e-05
7.53269e-09
1.54851e-05
7.64125e-09
1.54931e-05
7.38295e-09
1.55011e-05
6.84762e-09
1.5509e-05
6.11122e-09
1.55167e-05
5.23912e-09
1.55241e-05
4.28364e-09
1.55312e-05
3.28443e-09
1.55379e-05
2.27238e-09
1.55442e-05
1.27193e-09
1.55501e-05
3.02835e-10
1.55556e-05
-6.1902e-10
1.55607e-05
-1.48403e-09
-2.26708e-09
1.55654e-05
1.8839e-05
-5.1894e-12
1.88428e-05
1.15173e-11
1.88487e-05
-8.93118e-11
1.88559e-05
-3.37655e-10
1.88642e-05
-7.14475e-10
1.8873e-05
-1.19124e-09
1.88821e-05
-1.74395e-09
1.88913e-05
-2.35073e-09
1.89004e-05
-2.98927e-09
1.89093e-05
-3.64e-09
1.89179e-05
-4.28717e-09
1.89261e-05
-4.91845e-09
1.89339e-05
-5.52341e-09
1.89412e-05
-6.09363e-09
1.89482e-05
-6.62212e-09
1.89546e-05
-7.10317e-09
1.89607e-05
-7.53486e-09
-7.90062e-09
1.89663e-05
2.29649e-05
-1.55881e-09
2.29693e-05
-4.41288e-09
2.29761e-05
-6.84752e-09
2.29846e-05
-8.82574e-09
2.29942e-05
-1.03636e-08
2.30046e-05
-1.15474e-08
2.30153e-05
-1.24672e-08
2.30261e-05
-1.31771e-08
2.30368e-05
-1.37146e-08
2.30473e-05
-1.4114e-08
2.30574e-05
-1.44068e-08
2.30671e-05
-1.4614e-08
2.30763e-05
-1.47513e-08
2.30851e-05
-1.48291e-08
2.30933e-05
-1.48563e-08
2.3101e-05
-1.48382e-08
2.31083e-05
-1.47817e-08
-1.46784e-08
2.3115e-05
1.68119e-05
-2.75947e-09
1.68153e-05
-7.81324e-09
1.68205e-05
-1.20569e-08
1.6827e-05
-1.53299e-08
1.68343e-05
-1.76749e-08
1.68421e-05
-1.93259e-08
1.68501e-05
-2.04765e-08
1.68581e-05
-2.12273e-08
1.68661e-05
-2.16553e-08
1.68738e-05
-2.18411e-08
1.68813e-05
-2.18497e-08
1.68884e-05
-2.1728e-08
1.68951e-05
-2.15084e-08
1.69015e-05
-2.1217e-08
1.69075e-05
-2.08719e-08
1.69132e-05
-2.04872e-08
1.69185e-05
-2.00733e-08
-1.96288e-08
1.69234e-05
1.46357e-05
-3.89058e-09
1.4639e-05
-1.10715e-08
1.4644e-05
-1.70903e-08
1.46502e-05
-2.15174e-08
1.4657e-05
-2.44964e-08
1.46642e-05
-2.65003e-08
1.46715e-05
-2.78052e-08
1.46788e-05
-2.85297e-08
1.46859e-05
-2.88018e-08
1.46928e-05
-2.87517e-08
1.46995e-05
-2.84755e-08
1.47058e-05
-2.80362e-08
1.47117e-05
-2.74821e-08
1.47174e-05
-2.68501e-08
1.47227e-05
-2.61683e-08
1.47276e-05
-2.54555e-08
1.47323e-05
-2.47268e-08
-2.3984e-08
1.47366e-05
1.27412e-05
-4.9127e-09
1.27444e-05
-1.43106e-08
1.27495e-05
-2.22009e-08
1.27555e-05
-2.75548e-08
1.2762e-05
-3.09461e-08
1.27687e-05
-3.32208e-08
1.27755e-05
-3.46243e-08
1.27822e-05
-3.52567e-08
1.27888e-05
-3.53192e-08
1.2795e-05
-3.50034e-08
1.2801e-05
-3.44281e-08
1.28066e-05
-3.36701e-08
1.28119e-05
-3.27902e-08
1.28169e-05
-3.18356e-08
1.28215e-05
-3.08406e-08
1.28259e-05
-2.98268e-08
1.283e-05
-2.88101e-08
-2.77929e-08
1.28338e-05
1.10917e-05
-5.69233e-09
1.1095e-05
-1.75741e-08
1.11004e-05
-2.7596e-08
1.11063e-05
-3.35313e-08
1.11125e-05
-3.70831e-08
1.11188e-05
-3.95426e-08
1.11251e-05
-4.09686e-08
1.11313e-05
-4.1446e-08
1.11373e-05
-4.12715e-08
1.11429e-05
-4.06815e-08
1.11483e-05
-3.98049e-08
1.11534e-05
-3.87312e-08
1.11581e-05
-3.75347e-08
1.11626e-05
-3.62736e-08
1.11667e-05
-3.49856e-08
1.11706e-05
-3.36972e-08
1.11742e-05
-3.24262e-08
-3.11806e-08
1.11776e-05
9.65564e-06
-6.11578e-09
9.65904e-06
-2.09746e-08
9.66463e-06
-3.31877e-08
9.67041e-06
-3.93169e-08
9.67631e-06
-4.29872e-08
9.68235e-06
-4.55841e-08
9.68828e-06
-4.68965e-08
9.69395e-06
-4.71241e-08
9.69936e-06
-4.66814e-08
9.70449e-06
-4.58156e-08
9.70934e-06
-4.46468e-08
9.71388e-06
-4.32734e-08
9.71812e-06
-4.1782e-08
9.72208e-06
-4.02378e-08
9.72578e-06
-3.86831e-08
9.72922e-06
-3.7144e-08
9.73243e-06
-3.56339e-08
-3.41461e-08
9.7354e-06
8.40494e-06
-5.70548e-09
8.40932e-06
-2.53501e-08
8.41473e-06
-3.86034e-08
8.41983e-06
-4.44212e-08
8.42539e-06
-4.85503e-08
8.43124e-06
-5.14364e-08
8.43695e-06
-5.26016e-08
8.44236e-06
-5.2536e-08
8.44747e-06
-5.17944e-08
8.45228e-06
-5.06258e-08
8.45678e-06
-4.91466e-08
8.46097e-06
-4.74659e-08
8.46486e-06
-4.56803e-08
8.46849e-06
-4.38604e-08
8.47185e-06
-4.20506e-08
8.47499e-06
-4.028e-08
8.47792e-06
-3.85729e-08
-3.69387e-08
8.48072e-06
7.31364e-06
-2.06605e-09
7.3207e-06
-3.2409e-08
7.3265e-06
-4.44029e-08
7.3313e-06
-4.92245e-08
7.33667e-06
-5.39226e-08
7.34232e-06
-5.70885e-08
7.34784e-06
-5.81241e-08
7.35314e-06
-5.7832e-08
7.35818e-06
-5.68388e-08
7.36293e-06
-5.53768e-08
7.36736e-06
-5.35796e-08
7.37147e-06
-5.15782e-08
7.37528e-06
-4.94847e-08
7.37879e-06
-4.73746e-08
7.38204e-06
-4.5298e-08
7.38504e-06
-4.32846e-08
7.38781e-06
-4.13453e-08
-3.94285e-08
7.3903e-06
6.36047e-06
7.53272e-09
6.37029e-06
-4.2236e-08
6.37817e-06
-5.2285e-08
6.38523e-06
-5.62842e-08
6.39235e-06
-6.10382e-08
6.39895e-06
-6.36945e-08
6.40493e-06
-6.4103e-08
6.41046e-06
-6.33681e-08
6.41565e-06
-6.20251e-08
6.42048e-06
-6.02085e-08
6.42494e-06
-5.80448e-08
6.42904e-06
-5.56749e-08
6.43278e-06
-5.32273e-08
6.43618e-06
-5.07785e-08
6.43927e-06
-4.83867e-08
6.44208e-06
-4.60929e-08
6.44466e-06
-4.39284e-08
-4.1921e-08
6.44715e-06
5.53917e-06
1.38279e-08
5.54752e-06
-5.0586e-08
5.55586e-06
-6.06267e-08
5.56611e-06
-6.65351e-08
5.5773e-06
-7.22342e-08
5.58779e-06
-7.41844e-08
5.597e-06
-7.33127e-08
5.60494e-06
-7.13175e-08
5.6117e-06
-6.8784e-08
5.61734e-06
-6.58527e-08
5.62194e-06
-6.2647e-08
5.62559e-06
-5.93219e-08
5.62837e-06
-5.60125e-08
5.63039e-06
-5.27934e-08
5.63172e-06
-4.97163e-08
5.63247e-06
-4.68501e-08
5.63275e-06
-4.42054e-08
-4.18741e-08
5.6327e-06
4.87157e-06
-3.01374e-08
4.88648e-06
-6.54917e-08
4.89722e-06
-7.13685e-08
4.90599e-06
-7.53105e-08
4.91303e-06
-7.92776e-08
4.9173e-06
-7.84604e-08
4.91813e-06
-7.41396e-08
4.91539e-06
-6.85766e-08
4.90939e-06
-6.27883e-08
4.90065e-06
-5.71162e-08
4.88973e-06
-5.17305e-08
4.87714e-06
-4.67305e-08
4.86332e-06
-4.21981e-08
4.84865e-06
-3.81255e-08
4.83344e-06
-3.44986e-08
4.81792e-06
-3.13411e-08
4.80239e-06
-2.86682e-08
-2.69747e-08
4.78748e-06
4.17254e-06
4.10705e-06
4.03568e-06
3.96037e-06
3.88109e-06
3.80263e-06
3.72849e-06
3.65991e-06
3.59712e-06
3.54001e-06
3.48828e-06
3.44155e-06
3.39935e-06
3.36122e-06
3.32672e-06
3.29538e-06
3.26671e-06
3.23974e-06
1.92216e-08
-1.92836e-08
4.21977e-08
-2.30638e-08
6.07375e-08
-1.86142e-08
7.25422e-08
-1.18756e-08
7.70486e-08
-4.57336e-09
7.46341e-08
2.34533e-09
6.63223e-08
8.2449e-09
5.34108e-08
1.28388e-08
3.71191e-08
1.62202e-08
1.83972e-08
1.86415e-08
-2.04165e-09
2.03629e-08
-2.39412e-08
2.18203e-08
-4.72335e-08
2.32259e-08
-7.18397e-08
2.45379e-08
-9.77537e-08
2.58576e-08
-1.2503e-07
2.72164e-08
-1.53684e-07
2.86066e-08
-1.83745e-07
3.00079e-08
-2.15179e-07
3.13899e-08
-2.47956e-07
3.27252e-08
-2.81983e-07
3.39863e-08
-3.17189e-07
3.5154e-08
-3.53443e-07
3.62118e-08
-3.90647e-07
3.71496e-08
-4.28646e-07
3.7956e-08
-4.67328e-07
3.8625e-08
-5.06527e-07
3.91571e-08
-5.46144e-07
3.95611e-08
-5.86035e-07
3.98497e-08
-6.26132e-07
4.00437e-08
-6.66342e-07
4.01735e-08
-7.06651e-07
4.02595e-08
-7.46988e-07
4.03052e-08
-7.8735e-07
4.03187e-08
-8.27682e-07
4.03059e-08
-8.67995e-07
4.0274e-08
-9.08247e-07
4.02294e-08
-9.48463e-07
4.01791e-08
-9.88612e-07
4.01285e-08
-1.02873e-06
4.00806e-08
-1.06879e-06
4.00372e-08
-1.10882e-06
4.00006e-08
-1.14881e-06
3.9972e-08
-1.18879e-06
3.9952e-08
-1.22874e-06
3.99396e-08
-1.26871e-06
3.99332e-08
-1.30865e-06
3.99303e-08
-1.34861e-06
3.99303e-08
-1.38855e-06
3.99327e-08
-1.42852e-06
3.99358e-08
-1.46848e-06
3.99386e-08
-1.50846e-06
3.99383e-08
-1.54841e-06
3.99339e-08
-1.58838e-06
3.99228e-08
-1.62831e-06
3.99042e-08
-1.66823e-06
3.9874e-08
-1.70809e-06
3.98319e-08
-1.74791e-06
3.97746e-08
-1.78764e-06
3.97022e-08
-1.8273e-06
3.96099e-08
-1.86682e-06
3.94991e-08
-1.90623e-06
3.9366e-08
-1.94546e-06
3.9212e-08
-1.98453e-06
3.9032e-08
-2.02336e-06
3.88282e-08
-2.06199e-06
3.85954e-08
-2.10034e-06
3.83369e-08
-2.13841e-06
3.80474e-08
-2.17615e-06
3.77311e-08
-2.21355e-06
3.73823e-08
-2.25056e-06
3.70059e-08
-2.28717e-06
3.65955e-08
-2.32332e-06
3.61559e-08
-2.35903e-06
3.56792e-08
-2.39419e-06
3.51705e-08
-2.42884e-06
3.46199e-08
-2.46288e-06
3.40327e-08
-2.49631e-06
3.33998e-08
-2.52903e-06
3.27276e-08
-2.56105e-06
3.20037e-08
-2.59227e-06
3.12348e-08
-2.62269e-06
3.04087e-08
-2.65219e-06
2.95318e-08
-2.68078e-06
2.85868e-08
-2.70832e-06
2.75813e-08
-2.7348e-06
2.64978e-08
-2.76007e-06
2.53418e-08
-2.78409e-06
2.40914e-08
-2.80671e-06
2.27394e-08
-2.82782e-06
2.12768e-08
-2.84734e-06
1.9675e-08
-2.86512e-06
1.7925e-08
-2.88099e-06
1.60028e-08
-2.89474e-06
1.38911e-08
-2.90617e-06
1.15558e-08
-2.91502e-06
8.97187e-09
-2.92103e-06
6.12668e-09
-2.92399e-06
3.07302e-09
-2.92391e-06
9.59121e-12
-2.9209e-06
-2.93176e-09
-2.91499e-06
-5.86351e-09
-2.90606e-06
-8.89599e-09
-2.89399e-06
-1.2066e-08
-2.87863e-06
-1.53904e-08
-2.8598e-06
-1.88624e-08
-2.83736e-06
-2.24883e-08
-2.81113e-06
-2.62519e-08
-2.78098e-06
-3.01577e-08
-2.74678e-06
-3.41851e-08
-2.70842e-06
-3.8334e-08
-2.66577e-06
-4.25789e-08
-2.61878e-06
-4.69127e-08
-2.56737e-06
-5.13044e-08
-2.5115e-06
-5.57385e-08
-2.45116e-06
-6.01802e-08
-2.38638e-06
-6.4607e-08
-2.31719e-06
-6.89886e-08
-2.24368e-06
-7.32919e-08
-2.16596e-06
-7.74984e-08
-2.08415e-06
-8.15744e-08
-1.99845e-06
-8.54272e-08
-1.90915e-06
-8.9004e-08
-1.8165e-06
-9.23249e-08
-1.7208e-06
-9.53542e-08
-1.62241e-06
-9.80619e-08
-1.52168e-06
-1.00392e-07
-1.41906e-06
-1.02336e-07
-1.31493e-06
-1.03856e-07
-1.20976e-06
-1.04963e-07
-1.10396e-06
-1.05621e-07
-9.97993e-07
-1.05857e-07
-8.92263e-07
-1.05655e-07
-7.87218e-07
-1.05055e-07
-6.83216e-07
-1.04052e-07
-5.80656e-07
-1.02699e-07
-4.79845e-07
-1.00998e-07
-3.81101e-07
-9.90212e-08
-2.84708e-07
-9.67305e-08
-1.90813e-07
-9.43237e-08
-9.92441e-08
-9.2042e-08
-9.85037e-09
-8.98858e-08
7.74031e-08
-8.77167e-08
1.61749e-07
-8.47629e-08
2.42285e-07
-8.09161e-08
3.18785e-07
-7.68422e-08
3.91194e-07
-7.27235e-08
4.59547e-07
-6.86369e-08
5.23912e-07
-6.46256e-08
5.84391e-07
-6.0713e-08
6.41094e-07
-5.69175e-08
6.94148e-07
-5.32489e-08
7.43687e-07
-4.97181e-08
7.89855e-07
-4.63303e-08
8.32799e-07
-4.30931e-08
8.72672e-07
-4.00087e-08
9.09632e-07
-3.70832e-08
9.43839e-07
-3.43179e-08
9.75458e-07
-3.17179e-08
1.00465e-06
-2.92836e-08
1.03159e-06
-2.70191e-08
1.05645e-06
-2.49241e-08
1.0794e-06
-2.3003e-08
1.1006e-06
-2.12539e-08
1.12024e-06
-1.96795e-08
1.13848e-06
-1.8276e-08
1.1555e-06
-1.70432e-08
1.17146e-06
-1.59747e-08
1.18651e-06
-1.50657e-08
1.20081e-06
-1.43033e-08
1.21448e-06
-1.36757e-08
1.22764e-06
-1.31566e-08
1.24036e-06
-1.27122e-08
1.25265e-06
-1.22793e-08
1.26442e-06
-1.17587e-08
1.2754e-06
-1.09529e-08
1.28489e-06
-9.45928e-09
1.29122e-06
-6.29586e-09
1.28958e-06
1.67611e-09
1.26882e-06
2.07964e-08
6.5753e-08
1.20307e-06
1.69049e-08
-3.62399e-08
2.40235e-08
-3.02394e-08
2.3961e-08
-1.859e-08
1.91086e-08
-7.0555e-09
1.06908e-08
3.81573e-09
-7.64246e-10
1.37721e-08
-1.51344e-08
2.25884e-08
-3.24535e-08
3.01309e-08
-5.26748e-08
3.64161e-08
-7.56554e-08
4.1596e-08
-1.0121e-07
4.58935e-08
-1.28969e-07
4.95545e-08
-1.58558e-07
5.27918e-08
-1.898e-07
5.57568e-08
-2.22514e-07
5.85511e-08
-2.56543e-07
6.12243e-08
-2.91741e-07
6.37859e-08
-3.27975e-07
6.62219e-08
-3.6511e-07
6.85066e-08
-4.03018e-07
7.06127e-08
-4.41564e-07
7.25151e-08
-4.80628e-07
7.41968e-08
-5.20083e-07
7.5648e-08
-5.59824e-07
7.68669e-08
-5.99744e-07
7.78559e-08
-6.39765e-07
7.86226e-08
-6.79812e-07
7.91824e-08
-7.19834e-07
7.9559e-08
-7.59786e-07
7.97797e-08
-7.99641e-07
7.98743e-08
-8.3936e-07
7.98725e-08
-8.78921e-07
7.97978e-08
-9.18302e-07
7.96672e-08
-9.57501e-07
7.94967e-08
-9.96511e-07
7.92994e-08
-1.03534e-06
7.9087e-08
-1.074e-06
7.88687e-08
-1.11249e-06
7.86519e-08
-1.15082e-06
7.84416e-08
-1.189e-06
7.82423e-08
-1.22703e-06
7.80558e-08
-1.26493e-06
7.78845e-08
-1.3027e-06
7.77286e-08
-1.34035e-06
7.75875e-08
-1.37788e-06
7.74595e-08
-1.4153e-06
7.7343e-08
-1.45262e-06
7.72352e-08
-1.48983e-06
7.71332e-08
-1.52695e-06
7.7033e-08
-1.56396e-06
7.69312e-08
-1.60085e-06
7.68234e-08
-1.63764e-06
7.6706e-08
-1.6743e-06
7.65751e-08
-1.71082e-06
7.64269e-08
-1.7472e-06
7.62574e-08
-1.78341e-06
7.60628e-08
-1.81944e-06
7.58396e-08
-1.85527e-06
7.55843e-08
-1.89088e-06
7.52938e-08
-1.92626e-06
7.49646e-08
-1.96137e-06
7.45946e-08
-1.99621e-06
7.41809e-08
-2.03074e-06
7.37213e-08
-2.06494e-06
7.32129e-08
-2.09878e-06
7.26539e-08
-2.13224e-06
7.20416e-08
-2.16529e-06
7.13749e-08
-2.19791e-06
7.06513e-08
-2.23005e-06
6.98702e-08
-2.26171e-06
6.90289e-08
-2.29283e-06
6.81265e-08
-2.32341e-06
6.71594e-08
-2.35338e-06
6.61267e-08
-2.38273e-06
6.50233e-08
-2.41141e-06
6.38478e-08
-2.4394e-06
6.25947e-08
-2.46663e-06
6.12631e-08
-2.49309e-06
5.9847e-08
-2.51871e-06
5.83443e-08
-2.54346e-06
5.67463e-08
-2.56727e-06
5.50503e-08
-2.5901e-06
5.32461e-08
-2.61189e-06
5.13293e-08
-2.63258e-06
4.9287e-08
-2.65209e-06
4.71136e-08
-2.67037e-06
4.47941e-08
-2.68731e-06
4.23198e-08
-2.70285e-06
3.96701e-08
-2.71686e-06
3.68353e-08
-2.72928e-06
3.37897e-08
-2.74002e-06
3.05216e-08
-2.74902e-06
2.70132e-08
-2.75619e-06
2.32532e-08
-2.76146e-06
1.924e-08
-2.7648e-06
1.49696e-08
-2.7662e-06
1.04528e-08
-2.76571e-06
5.70412e-09
-2.76333e-06
7.52593e-10
-2.75886e-06
-4.41826e-09
-2.7519e-06
-9.84658e-09
-2.74218e-06
-1.55584e-08
-2.72951e-06
-2.15614e-08
-2.71373e-06
-2.7868e-08
-2.69466e-06
-3.44819e-08
-2.67216e-06
-4.14003e-08
-2.64605e-06
-4.86178e-08
-2.61621e-06
-5.61216e-08
-2.58247e-06
-6.39008e-08
-2.54472e-06
-7.19343e-08
-2.50283e-06
-8.02024e-08
-2.4567e-06
-8.86719e-08
-2.40625e-06
-9.73113e-08
-2.35141e-06
-1.06074e-07
-2.29215e-06
-1.14914e-07
-2.22847e-06
-1.23772e-07
-2.16037e-06
-1.32591e-07
-2.08794e-06
-1.41303e-07
-2.01126e-06
-1.49849e-07
-1.93047e-06
-1.58156e-07
-1.84575e-06
-1.66157e-07
-1.75729e-06
-1.73727e-07
-1.66539e-06
-1.8074e-07
-1.57034e-06
-1.87178e-07
-1.4725e-06
-1.93007e-07
-1.37225e-06
-1.9813e-07
-1.26999e-06
-2.02477e-07
-1.16616e-06
-2.06003e-07
-1.06122e-06
-2.08666e-07
-9.55609e-07
-2.10453e-07
-8.49799e-07
-2.11345e-07
-7.44233e-07
-2.11361e-07
-6.39345e-07
-2.10513e-07
-5.35547e-07
-2.08849e-07
-4.33225e-07
-2.06404e-07
-3.32732e-07
-2.0325e-07
-2.3439e-07
-1.99429e-07
-1.38456e-07
-1.95074e-07
-4.50112e-08
-1.90328e-07
4.58006e-08
-1.85313e-07
1.3355e-07
-1.79985e-07
2.17718e-07
-1.74245e-07
2.97843e-07
-1.68023e-07
3.74074e-07
-1.61159e-07
4.46768e-07
-1.53765e-07
5.15924e-07
-1.46142e-07
5.8153e-07
-1.38464e-07
6.43601e-07
-1.30832e-07
7.02176e-07
-1.23318e-07
7.57321e-07
-1.15965e-07
8.09116e-07
-1.08813e-07
8.5766e-07
-1.01886e-07
9.03063e-07
-9.52076e-08
9.45448e-07
-8.87944e-08
9.84944e-07
-8.26626e-08
1.02169e-06
-7.68226e-08
1.05583e-06
-7.1286e-08
1.08752e-06
-6.60613e-08
1.11691e-06
-6.11564e-08
1.14416e-06
-5.65779e-08
1.16943e-06
-5.23304e-08
1.19289e-06
-4.84199e-08
1.21471e-06
-4.48485e-08
1.23506e-06
-4.162e-08
1.25409e-06
-3.87313e-08
1.27199e-06
-3.6183e-08
1.28891e-06
-3.39675e-08
1.30501e-06
-3.20794e-08
1.32045e-06
-3.05007e-08
1.33536e-06
-2.92149e-08
1.34988e-06
-2.81879e-08
1.36412e-06
-2.73777e-08
1.37813e-06
-2.67081e-08
1.39194e-06
-2.60685e-08
1.40546e-06
-2.52613e-08
1.41847e-06
-2.39375e-08
1.43047e-06
-2.14185e-08
1.44042e-06
-1.62111e-08
1.44734e-06
-5.20271e-09
1.44915e-06
1.90271e-08
7.36047e-08
1.44132e-06
1.8124e-09
-3.80925e-08
-5.17377e-09
-2.32921e-08
-1.5976e-08
-7.81202e-09
-2.91868e-08
6.13596e-09
-4.42087e-08
1.88211e-08
-6.08307e-08
3.03783e-08
-7.90678e-08
4.0811e-08
-9.90428e-08
5.00909e-08
-1.20876e-07
5.8235e-08
-1.44623e-07
6.53282e-08
-1.7025e-07
7.15074e-08
-1.97642e-07
7.69325e-08
-2.26623e-07
8.17592e-08
-2.56998e-07
8.61183e-08
-2.88562e-07
9.01038e-08
-3.21124e-07
9.3773e-08
-3.54502e-07
9.71527e-08
-3.88541e-07
1.00249e-07
-4.23102e-07
1.03057e-07
-4.58067e-07
1.05567e-07
-4.93334e-07
1.07771e-07
-5.28815e-07
1.09666e-07
-5.64429e-07
1.11251e-07
-6.00112e-07
1.12536e-07
-6.35806e-07
1.13538e-07
-6.71479e-07
1.14281e-07
-7.07104e-07
1.14795e-07
-7.42669e-07
1.15109e-07
-7.78156e-07
1.15254e-07
-8.13558e-07
1.15261e-07
-8.48858e-07
1.15159e-07
-8.84049e-07
1.14975e-07
-9.19124e-07
1.14729e-07
-9.54081e-07
1.14441e-07
-9.8892e-07
1.14126e-07
-1.02364e-06
1.13799e-07
-1.05826e-06
1.13469e-07
-1.09276e-06
1.13145e-07
-1.12716e-06
1.12832e-07
-1.16147e-06
1.12535e-07
-1.19568e-06
1.12257e-07
-1.2298e-06
1.11998e-07
-1.26384e-06
1.11758e-07
-1.2978e-06
1.11536e-07
-1.33168e-06
1.1133e-07
-1.36548e-06
1.11135e-07
-1.3992e-06
1.10949e-07
-1.43284e-06
1.10767e-07
-1.4664e-06
1.10583e-07
-1.49987e-06
1.10393e-07
-1.53325e-06
1.1019e-07
-1.56652e-06
1.09968e-07
-1.59968e-06
1.09723e-07
-1.63271e-06
1.09449e-07
-1.6656e-06
1.0914e-07
-1.69835e-06
1.08791e-07
-1.73092e-06
1.08398e-07
-1.7633e-06
1.07955e-07
-1.79548e-06
1.07459e-07
-1.82744e-06
1.06904e-07
-1.85915e-06
1.06288e-07
-1.89059e-06
1.05607e-07
-1.92174e-06
1.04857e-07
-1.95257e-06
1.04035e-07
-1.98307e-06
1.03139e-07
-2.0132e-06
1.02164e-07
-2.04295e-06
1.0111e-07
-2.07228e-06
9.99719e-08
-2.10116e-06
9.87487e-08
-2.12958e-06
9.74372e-08
-2.15749e-06
9.60346e-08
-2.18487e-06
9.45372e-08
-2.21169e-06
9.29417e-08
-2.23791e-06
9.12433e-08
-2.2635e-06
8.94379e-08
-2.28844e-06
8.75203e-08
-2.31266e-06
8.5486e-08
-2.33615e-06
8.33291e-08
-2.35885e-06
8.10433e-08
-2.38072e-06
7.86202e-08
-2.40172e-06
7.6052e-08
-2.4218e-06
7.33282e-08
-2.4409e-06
7.04384e-08
-2.45897e-06
6.73695e-08
-2.47596e-06
6.41092e-08
-2.49179e-06
6.06416e-08
-2.50641e-06
5.69512e-08
-2.51972e-06
5.302e-08
-2.53167e-06
4.88273e-08
-2.54218e-06
4.43572e-08
-2.55118e-06
3.95857e-08
-2.55862e-06
3.44974e-08
-2.5644e-06
2.90848e-08
-2.56845e-06
2.33373e-08
-2.57069e-06
1.72555e-08
-2.57104e-06
1.08322e-08
-2.56936e-06
4.06547e-09
-2.56552e-06
-3.06547e-09
-2.55932e-06
-1.05981e-08
-2.55058e-06
-1.85706e-08
-2.53914e-06
-2.69963e-08
-2.52483e-06
-3.5881e-08
-2.5075e-06
-4.523e-08
-2.48697e-06
-5.50399e-08
-2.46309e-06
-6.53089e-08
-2.43571e-06
-7.60224e-08
-2.40469e-06
-8.71692e-08
-2.36987e-06
-9.87246e-08
-2.33114e-06
-1.10665e-07
-2.28837e-06
-1.22951e-07
-2.24148e-06
-1.35542e-07
-2.19038e-06
-1.48379e-07
-2.135e-06
-1.61401e-07
-2.07533e-06
-1.74528e-07
-2.01136e-06
-1.87678e-07
-1.94313e-06
-2.00754e-07
-1.8707e-06
-2.13655e-07
-1.79418e-06
-2.26278e-07
-1.71375e-06
-2.38506e-07
-1.62957e-06
-2.50234e-07
-1.54188e-06
-2.61309e-07
-1.45095e-06
-2.71551e-07
-1.35712e-06
-2.80878e-07
-1.26076e-06
-2.89243e-07
-1.16224e-06
-2.96517e-07
-1.062e-06
-3.02603e-07
-9.60463e-07
-3.07427e-07
-8.58093e-07
-3.10946e-07
-7.55333e-07
-3.13132e-07
-6.52641e-07
-3.13981e-07
-5.50444e-07
-3.13513e-07
-4.49168e-07
-3.1177e-07
-3.49199e-07
-3.08811e-07
-2.50909e-07
-3.04713e-07
-1.54616e-07
-2.99577e-07
-6.05636e-08
-2.93539e-07
3.10131e-08
-2.86725e-07
1.19796e-07
-2.79205e-07
2.05438e-07
-2.71064e-07
2.877e-07
-2.6236e-07
3.66442e-07
-2.53096e-07
4.41565e-07
-2.43242e-07
5.13134e-07
-2.32813e-07
5.8126e-07
-2.21964e-07
6.45963e-07
-2.10912e-07
7.07261e-07
-1.99821e-07
7.65185e-07
-1.88811e-07
8.1979e-07
-1.7797e-07
8.71146e-07
-1.67365e-07
9.19343e-07
-1.57048e-07
9.64482e-07
-1.47062e-07
1.00668e-06
-1.37437e-07
1.04606e-06
-1.28204e-07
1.08275e-06
-1.19384e-07
1.1169e-06
-1.10997e-07
1.14864e-06
-1.03058e-07
1.17814e-06
-9.55829e-08
1.20554e-06
-8.85822e-08
1.23101e-06
-8.20672e-08
1.25471e-06
-7.60444e-08
1.27679e-06
-7.05221e-08
1.29743e-06
-6.55033e-08
1.31679e-06
-6.09921e-08
1.33503e-06
-5.69849e-08
1.35232e-06
-5.34802e-08
1.36881e-06
-5.04681e-08
1.38466e-06
-4.79376e-08
1.40001e-06
-4.58644e-08
1.41501e-06
-4.42205e-08
1.42977e-06
-4.29577e-08
1.44439e-06
-4.20109e-08
1.45895e-06
-4.12729e-08
1.47346e-06
-4.05834e-08
1.48786e-06
-3.96708e-08
1.50199e-06
-3.80686e-08
1.51549e-06
-3.4927e-08
1.52783e-06
-2.85515e-08
1.53849e-06
-1.58639e-08
1.54786e-06
9.64542e-09
6.21605e-08
1.55929e-06
-1.14327e-08
-2.66933e-08
-2.74533e-08
-7.30069e-09
-4.48304e-08
9.54735e-09
-6.30293e-08
2.43207e-08
-8.19218e-08
3.77016e-08
-1.01525e-07
4.99697e-08
-1.21936e-07
6.12113e-08
-1.43297e-07
7.14411e-08
-1.65746e-07
8.0674e-08
-1.89383e-07
8.89535e-08
-2.1424e-07
9.63542e-08
-2.40289e-07
1.02971e-07
-2.67443e-07
1.08904e-07
-2.95578e-07
1.14244e-07
-3.2455e-07
1.19066e-07
-3.54212e-07
1.23425e-07
-3.84424e-07
1.27356e-07
-4.15064e-07
1.3088e-07
-4.46026e-07
1.3401e-07
-4.77222e-07
1.36754e-07
-5.0858e-07
1.39121e-07
-5.40045e-07
1.41122e-07
-5.71572e-07
1.42771e-07
-6.03136e-07
1.4409e-07
-6.34712e-07
1.45106e-07
-6.66289e-07
1.45848e-07
-6.97853e-07
1.46349e-07
-7.29397e-07
1.46642e-07
-7.60914e-07
1.4676e-07
-7.92397e-07
1.46733e-07
-8.2384e-07
1.46592e-07
-8.55239e-07
1.46363e-07
-8.86588e-07
1.46068e-07
-9.17887e-07
1.45729e-07
-9.49131e-07
1.45361e-07
-9.80322e-07
1.44979e-07
-1.01146e-06
1.44595e-07
-1.04254e-06
1.44217e-07
-1.07357e-06
1.43852e-07
-1.10455e-06
1.43503e-07
-1.13547e-06
1.43174e-07
-1.16635e-06
1.42866e-07
-1.19718e-06
1.42579e-07
-1.22796e-06
1.42309e-07
-1.25869e-06
1.42053e-07
-1.28937e-06
1.41808e-07
-1.31999e-06
1.41568e-07
-1.35056e-06
1.41328e-07
-1.38106e-06
1.4108e-07
-1.41149e-06
1.40819e-07
-1.44185e-06
1.40537e-07
-1.47211e-06
1.40228e-07
-1.50228e-06
1.39883e-07
-1.53234e-06
1.39497e-07
-1.56227e-06
1.39063e-07
-1.59206e-06
1.38573e-07
-1.62169e-06
1.38023e-07
-1.65116e-06
1.37407e-07
-1.68043e-06
1.36718e-07
-1.70948e-06
1.35952e-07
-1.73831e-06
1.35104e-07
-1.76689e-06
1.3417e-07
-1.79518e-06
1.33145e-07
-1.82319e-06
1.32026e-07
-1.85087e-06
1.30808e-07
-1.8782e-06
1.29489e-07
-1.90516e-06
1.28064e-07
-1.93173e-06
1.26531e-07
-1.95788e-06
1.24886e-07
-1.98357e-06
1.23126e-07
-2.00879e-06
1.21247e-07
-2.03349e-06
1.19244e-07
-2.05767e-06
1.17113e-07
-2.08127e-06
1.14849e-07
-2.10428e-06
1.12446e-07
-2.12666e-06
1.09898e-07
-2.14838e-06
1.07198e-07
-2.16939e-06
1.0434e-07
-2.18966e-06
1.01314e-07
-2.20915e-06
9.81103e-08
-2.22781e-06
9.4719e-08
-2.24561e-06
9.11272e-08
-2.26248e-06
8.73213e-08
-2.2784e-06
8.32861e-08
-2.29329e-06
7.9005e-08
-2.3071e-06
7.446e-08
-2.31976e-06
6.96317e-08
-2.33122e-06
6.44985e-08
-2.3414e-06
5.90407e-08
-2.35023e-06
5.32287e-08
-2.35766e-06
4.70468e-08
-2.3636e-06
4.04687e-08
-2.36797e-06
3.34797e-08
-2.37067e-06
2.60626e-08
-2.37159e-06
1.8204e-08
-2.37063e-06
9.88395e-09
-2.36763e-06
1.0822e-09
-2.36245e-06
-8.23482e-09
-2.35495e-06
-1.81039e-08
-2.34496e-06
-2.85568e-08
-2.33236e-06
-3.96113e-08
-2.31699e-06
-5.12761e-08
-2.2987e-06
-6.35569e-08
-2.27733e-06
-7.64491e-08
-2.25272e-06
-8.99486e-08
-2.22473e-06
-1.04038e-07
-2.19322e-06
-1.18702e-07
-2.15804e-06
-1.33908e-07
-2.11908e-06
-1.49623e-07
-2.07622e-06