/*--------------------------------*- C++ -*----------------------------------*\
| =========                 |                                                 |
| \\      /  F ield         | OpenFOAM: The Open Source CFD Toolbox           |
|  \\    /   O peration     | Version:  2312                                  |
|   \\  /    A nd           | Website:  www.openfoam.com                      |
|    \\/     M anipulation  |                                                 |
\*---------------------------------------------------------------------------*/
FoamFile
{
    version     2.0;
    format      ascii;
    arch        "LSB;label=32;scalar=64";
    class       volScalarField;
    location    "2.25";
    object      blendingFactorField;
}
// * * * * * * * * * * * * * * * * * * * * * * * * * * * * * * * * * * * * * //

dimensions      [0 0 0 0 0 0 0];

internalField   nonuniform List<scalar> 
400
(
0
0
0
0.0625378
0.20566
0.387061
0.619838
0.908054
1
1
1
1
1
1
1
1
0.819306
0.272726
0
0
0
0
0.17263
0.371475
0.590825
0.851104
1
1
1
1
1
1
1
1
1
1
1
0.953269
0.35877
0
0.00761623
0.16478
0.305902
0.548096
0.822609
1
1
1
1
1
1
1
1
1
1
1
1
1
1
0.0712531
0.18999
0.378403
0.485092
0.64085
0.943353
1
1
1
1
1
1
1
1
1
1
1
1
1
1
0.773163
0.386914
0.595834
0.716381
0.827564
0.992235
1
1
1
1
1
1
1
1
1
1
1
1
1
1
1
0.576422
0.800376
0.929634
1
1
1
1
1
1
1
1
1
1
1
1
1
1
1
1
1
0.740818
0.978123
1
1
1
1
1
1
1
1
1
1
1
1
1
1
1
1
1
1
0.868073
1
1
1
1
1
1
1
1
1
0.897276
0.897276
0.875605
0.840194
1
1
1
1
1
1
0.951169
1
1
1
1
1
1
1
1
1
0.860434
0.265195
0.265195
0.893947
1
1
1
1
1
1
0.987867
1
1
1
1
1
1
1
1
1
0.878701
0.115696
0.182126
0.893947
1
1
1
1
1
1
0.987867
1
1
1
1
1
1
1
1
1
0.878701
0.611371
0.572082
0.868558
1
1
1
1
1
1
0.980284
1
1
1
1
1
1
1
1
1
1
1
1
1
1
1
1
1
1
1
0.934851
1
1
1
1
1
1
1
1
1
1
1
1
1
1
1
1
1
1
1
0.860899
1
1
1
1
1
1
1
1
1
1
1
1
1
1
1
1
1
1
1
0.770365
1
1
1
1
1
1
1
1
1
1
1
1
1
1
0.994024
1
1
1
1
0.678182
0.99197
1
1
1
1
1
1
1
1
1
1
1
1
1
1
0.817633
1
1
1
0.602994
0.877203
0.934466
0.928649
0.904891
0.874109
0.836168
1
1
1
1
1
1
1
1
1
0.874938
1
1
1
0.644761
0.769117
0.782378
0.754182
0.716603
0.673626
0.825412
1
1
1
1
1
1
1
1
1
1
0.935588
1
1
0.876906
0.654527
0.614461
0.564132
0.621704
0.93397
1
1
1
1
1
1
1
1
1
1
1
1
1
1
0.876906
1
1
1
1
1
1
1
1
1
1
1
1
1
1
1
1
1
1
1
)
;

boundaryField
{
    movingWall
    {
        type            zeroGradient;
    }
    fixedWalls
    {
        type            zeroGradient;
    }
    frontAndBack
    {
        type            empty;
    }
}


// ************************************************************************* //
