/*--------------------------------*- C++ -*----------------------------------*\
| =========                 |                                                 |
| \\      /  F ield         | OpenFOAM: The Open Source CFD Toolbox           |
|  \\    /   O peration     | Version:  2312                                  |
|   \\  /    A nd           | Website:  www.openfoam.com                      |
|    \\/     M anipulation  |                                                 |
\*---------------------------------------------------------------------------*/
FoamFile
{
    version     2.0;
    format      ascii;
    arch        "LSB;label=32;scalar=64";
    class       volScalarField;
    location    "2.25";
    object      divPhi;
}
// * * * * * * * * * * * * * * * * * * * * * * * * * * * * * * * * * * * * * //

dimensions      [0 0 -1 0 0 0 0];

internalField   nonuniform List<scalar> 
400
(
-2.64672e-05
-9.19117e-07
-1.18605e-06
-9.83562e-07
-6.69236e-07
-4.14154e-07
-2.24507e-07
-1.04029e-07
-2.10189e-08
2.847e-08
6.24259e-08
9.11448e-08
1.06161e-07
1.3564e-07
1.47168e-07
1.74892e-07
1.79958e-07
1.94133e-07
2.4205e-07
9.68183e-08
2.86145e-08
-4.4478e-07
-7.09244e-07
-6.3638e-07
-4.78467e-07
-3.01078e-07
-1.78333e-07
-8.28816e-08
-2.70104e-08
1.80046e-08
4.67323e-08
7.24365e-08
9.79542e-08
1.15978e-07
1.39171e-07
1.54245e-07
1.72554e-07
1.89005e-07
1.7277e-07
1.05952e-07
1.18476e-06
3.40139e-07
-6.33079e-08
-1.96245e-07
-1.80174e-07
-1.34346e-07
-8.07989e-08
-4.21191e-08
-7.80833e-09
1.76015e-08
4.23131e-08
6.60626e-08
8.54534e-08
1.0692e-07
1.22143e-07
1.32573e-07
1.36561e-07
1.33464e-07
1.79489e-07
5.18942e-08
9.11646e-07
5.92339e-07
2.77066e-07
1.10723e-07
3.11306e-08
8.21279e-09
3.8846e-09
1.33665e-08
2.55942e-08
4.42475e-08
6.40538e-08
8.48872e-08
1.04039e-07
1.19106e-07
1.2262e-07
1.29709e-07
1.25316e-07
1.31852e-07
9.22073e-08
9.21149e-08
1.08906e-06
7.18115e-07
4.67064e-07
3.00211e-07
2.03418e-07
1.45417e-07
1.17897e-07
1.06625e-07
1.11018e-07
1.22137e-07
1.39669e-07
1.56418e-07
1.68847e-07
1.67614e-07
1.69964e-07
1.54818e-07
1.38237e-07
1.11767e-07
1.70277e-07
4.27483e-08
7.84787e-07
6.7657e-07
5.23099e-07
4.00735e-07
3.07073e-07
2.46152e-07
2.08086e-07
1.9303e-07
1.9082e-07
1.99549e-07
2.12122e-07
2.25127e-07
2.24569e-07
2.22066e-07
1.99083e-07
1.85517e-07
1.65418e-07
1.62717e-07
9.00873e-08
1.24287e-07
7.18833e-07
6.07838e-07
5.11052e-07
4.25372e-07
3.58469e-07
3.05324e-07
2.71292e-07
2.52049e-07
2.47377e-07
2.50316e-07
2.60321e-07
2.6653e-07
2.64309e-07
2.45842e-07
2.36381e-07
2.15248e-07
1.87773e-07
1.50849e-07
2.51127e-07
6.10551e-08
5.81135e-07
5.364e-07
4.77222e-07
4.23996e-07
3.73366e-07
3.32256e-07
2.97582e-07
2.78967e-07
2.69406e-07
2.67829e-07
2.70398e-07
2.73769e-07
2.66153e-07
2.5696e-07
2.35229e-07
2.18665e-07
2.08896e-07
2.27535e-07
1.12739e-07
1.45356e-07
4.55174e-07
4.46073e-07
4.16729e-07
3.80424e-07
3.46472e-07
3.10188e-07
2.8183e-07
2.59629e-07
2.45997e-07
2.36716e-07
2.35418e-07
2.33821e-07
2.26283e-07
2.09188e-07
2.03198e-07
1.93574e-07
1.73543e-07
1.36331e-07
2.80948e-07
4.11119e-08
4.33401e-07
3.89323e-07
3.55802e-07
3.28303e-07
2.97582e-07
2.69198e-07
2.38615e-07
2.14161e-07
1.93181e-07
1.79673e-07
1.69691e-07
1.63644e-07
1.54846e-07
1.51435e-07
1.4097e-07
1.33698e-07
1.39344e-07
1.89223e-07
4.70899e-08
9.99021e-08
2.71687e-07
2.92545e-07
2.80583e-07
2.58542e-07
2.35684e-07
2.07074e-07
1.79805e-07
1.51117e-07
1.27562e-07
1.0647e-07
9.25444e-08
8.19349e-08
7.5693e-08
6.62416e-08
6.91364e-08
7.00891e-08
6.19078e-08
2.04551e-08
1.72441e-07
-2.15535e-08
2.88382e-07
2.39115e-07
2.12435e-07
1.91839e-07
1.68413e-07
1.44866e-07
1.16735e-07
9.0481e-08
6.42091e-08
4.25717e-08
2.34822e-08
9.78419e-09
-1.33399e-09
1.43608e-10
-5.06192e-09
-5.32569e-09
1.91089e-09
5.57494e-08
-8.48066e-08
1.52414e-08
1.21121e-07
1.45258e-07
1.38647e-07
1.2371e-07
1.07027e-07
8.58534e-08
6.38286e-08
3.92053e-08
1.67321e-08
-5.5104e-09
-2.49409e-08
-4.18062e-08
-5.00173e-08
-6.1246e-08
-5.87878e-08
-5.85846e-08
-6.34396e-08
-1.10707e-07
6.48084e-09
-7.64634e-08
1.33422e-07
9.37389e-08
7.69492e-08
6.43581e-08
5.02999e-08
3.496e-08
1.67108e-08
-1.73886e-09
-2.14358e-08
-4.10416e-08
-6.05748e-08
-7.65519e-08
-9.27375e-08
-9.64865e-08
-1.05111e-07
-1.06977e-07
-1.04814e-07
-6.93283e-08
-1.78295e-07
-4.58567e-08
2.26755e-09
1.81089e-08
1.5565e-08
8.87002e-09
1.89747e-10
-1.02526e-08
-2.24129e-08
-3.57483e-08
-5.01516e-08
-6.57106e-08
-8.17818e-08
-9.77696e-08
-1.0793e-07
-1.21705e-07
-1.24811e-07
-1.26495e-07
-1.29112e-07
-1.69309e-07
-9.85001e-08
-8.66602e-08
-7.50852e-09
-2.54194e-08
-3.08722e-08
-3.50747e-08
-3.97961e-08
-4.61945e-08
-5.33286e-08
-6.16324e-08
-7.11513e-08
-8.27133e-08
-9.54156e-08
-1.06912e-07
-1.20463e-07
-1.26855e-07
-1.3579e-07
-1.38465e-07
-1.35188e-07
-1.15164e-07
-1.81064e-07
-6.33293e-08
-7.51595e-08
-7.28757e-08
-7.3796e-08
-7.59265e-08
-7.8738e-08
-8.18447e-08
-8.57314e-08
-8.93033e-08
-9.46753e-08
-1.00417e-07
-1.07716e-07
-1.1519e-07
-1.2105e-07
-1.29276e-07
-1.32634e-07
-1.30333e-07
-1.25799e-07
-1.49996e-07
-1.24466e-07
-7.02277e-08
-9.5558e-08
-1.0153e-07
-1.03937e-07
-1.06102e-07
-1.07554e-07
-1.0898e-07
-1.09076e-07
-1.09744e-07
-1.09773e-07
-1.11403e-07
-1.13157e-07
-1.15009e-07
-1.18854e-07
-1.20704e-07
-1.22361e-07
-1.19388e-07
-1.12461e-07
-1.06869e-07
-1.39497e-07
-5.97863e-08
-9.86159e-08
-1.02005e-07
-1.04701e-07
-1.06367e-07
-1.07564e-07
-1.07511e-07
-1.07112e-07
-1.06225e-07
-1.05296e-07
-1.0476e-07
-1.04309e-07
-1.05101e-07
-1.04994e-07
-1.06727e-07
-1.06779e-07
-1.00442e-07
-9.11556e-08
-1.05939e-07
-1.17257e-07
-5.58468e-08
-4.66857e-08
-4.70046e-08
-4.73974e-08
-4.78688e-08
-4.81922e-08
-4.82121e-08
-4.79678e-08
-4.73879e-08
-4.69752e-08
-4.64285e-08
-4.64545e-08
-4.62089e-08
-4.66656e-08
-4.71086e-08
-4.54017e-08
-4.03331e-08
-3.94927e-08
-5.03304e-08
-5.63029e-08
0
)
;

boundaryField
{
    movingWall
    {
        type            extrapolatedCalculated;
        value           nonuniform List<scalar> 
20
(
-4.66857e-08
-4.70046e-08
-4.73974e-08
-4.78688e-08
-4.81922e-08
-4.82121e-08
-4.79678e-08
-4.73879e-08
-4.69752e-08
-4.64285e-08
-4.64545e-08
-4.62089e-08
-4.66656e-08
-4.71086e-08
-4.54017e-08
-4.03331e-08
-3.94927e-08
-5.03304e-08
-5.63029e-08
0
)
;
    }
    fixedWalls
    {
        type            extrapolatedCalculated;
        value           nonuniform List<scalar> 
60
(
-2.64672e-05
2.86145e-08
1.18476e-06
9.11646e-07
1.08906e-06
7.84787e-07
7.18833e-07
5.81135e-07
4.55174e-07
4.33401e-07
2.71687e-07
2.88382e-07
1.21121e-07
1.33422e-07
2.26755e-09
-7.50852e-09
-7.51595e-08
-9.5558e-08
-9.86159e-08
-4.66857e-08
9.68183e-08
1.05952e-07
5.18942e-08
9.21149e-08
4.27483e-08
1.24287e-07
6.10551e-08
1.45356e-07
4.11119e-08
9.99021e-08
-2.15535e-08
1.52414e-08
-7.64634e-08
-4.58567e-08
-8.66602e-08
-6.33293e-08
-7.02277e-08
-5.97863e-08
-5.58468e-08
0
-2.64672e-05
-9.19117e-07
-1.18605e-06
-9.83562e-07
-6.69236e-07
-4.14154e-07
-2.24507e-07
-1.04029e-07
-2.10189e-08
2.847e-08
6.24259e-08
9.11448e-08
1.06161e-07
1.3564e-07
1.47168e-07
1.74892e-07
1.79958e-07
1.94133e-07
2.4205e-07
9.68183e-08
)
;
    }
    frontAndBack
    {
        type            empty;
    }
}


// ************************************************************************* //
