/*--------------------------------*- C++ -*----------------------------------*\
| =========                 |                                                 |
| \\      /  F ield         | OpenFOAM: The Open Source CFD Toolbox           |
|  \\    /   O peration     | Version:  2312                                  |
|   \\  /    A nd           | Website:  www.openfoam.com                      |
|    \\/     M anipulation  |                                                 |
\*---------------------------------------------------------------------------*/
FoamFile
{
    version     2.0;
    format      ascii;
    arch        "LSB;label=32;scalar=64";
    class       volScalarField;
    location    "2.25";
    object      epsilonzeroGrad;
}
// * * * * * * * * * * * * * * * * * * * * * * * * * * * * * * * * * * * * * //

dimensions      [0 2 -3 0 0 0 0];

internalField   nonuniform List<scalar> 
400
(
7.09661e-05
0.000149982
0.000299482
0.000514844
0.000813571
0.00122274
0.0017631
0.00243746
0.00318774
0.0038719
0.00423428
0.00435522
0.00432954
0.00410009
0.00368931
0.00301036
0.00197326
0.000852939
0.000222017
8.62939e-05
0.0001303
0.00015572
0.00025631
0.000387531
0.000563629
0.00081721
0.00118062
0.00163728
0.00208131
0.00240112
0.00260283
0.00278442
0.00305475
0.00348087
0.00392839
0.00414424
0.00404293
0.00281129
0.00101415
0.000185109
0.000276465
0.000208334
0.000297622
0.000420243
0.000595539
0.000876293
0.00128769
0.00177755
0.00218705
0.00237241
0.00249954
0.00271964
0.00306097
0.00349442
0.00411302
0.00486234
0.00568469
0.00615894
0.00393963
0.000949708
0.000481009
0.000289367
0.00036969
0.000502948
0.000717126
0.00108825
0.00160805
0.00198618
0.00212047
0.00215032
0.00212277
0.00213324
0.00227091
0.00263503
0.00320292
0.00423128
0.00578131
0.00772756
0.00879001
0.00495446
0.000730336
0.000373379
0.000446887
0.000623596
0.000930035
0.00141287
0.00181216
0.00192548
0.00190228
0.00165517
0.00153765
0.00150129
0.00154459
0.00175412
0.00216481
0.00303282
0.00471441
0.00786552
0.0118583
0.0131347
0.00100282
0.000450561
0.00051363
0.000731384
0.0011075
0.00160014
0.00179814
0.00179095
0.00151101
0.00124444
0.00112615
0.00107433
0.00106362
0.00117257
0.00146749
0.00208517
0.00343486
0.00637718
0.0129825
0.0212019
0.00127677
0.000513867
0.000558947
0.000801711
0.00121175
0.00162456
0.00174476
0.00157722
0.00121379
0.000967087
0.000846612
0.000780376
0.000760755
0.000832971
0.00106802
0.00155181
0.00270624
0.00561977
0.0128726
0.0265839
0.00153341
0.000560188
0.00057378
0.000807569
0.00120854
0.0015853
0.00164196
0.00140178
0.00102831
0.000793502
0.000669395
0.00059578
0.000573767
0.00064303
0.000858421
0.00127242
0.00217374
0.00472309
0.012174
0.0303657
0.00175664
0.000588066
0.000568401
0.000787359
0.00116605
0.00150525
0.00155238
0.00129826
0.000927839
0.000691337
0.00056855
0.00050178
0.000485286
0.000557359
0.000767373
0.0011566
0.00194956
0.00430219
0.0118724
0.033237
0.001933
0.000606656
0.000552735
0.000738248
0.00106989
0.00140688
0.00149116
0.00128278
0.000937351
0.000694282
0.000562868
0.000485633
0.000467565
0.000537636
0.000748785
0.00113023
0.00186999
0.00406462
0.0118109
0.0359051
0.00205608
0.000619618
0.000525488
0.000670123
0.000947334
0.00127721
0.00143153
0.00130438
0.00099674
0.000739258
0.000595616
0.000517902
0.000525301
0.000605372
0.000838876
0.00120927
0.00186614
0.00396358
0.0121761
0.0386425
0.00210337
0.000647479
0.000503192
0.000601614
0.000824
0.00112325
0.00135044
0.00132044
0.00115251
0.000871099
0.000698208
0.000615375
0.000638737
0.000746408
0.00100842
0.00133715
0.00191482
0.00393246
0.0128114
0.0417931
0.0020811
0.000676706
0.0004868
0.00054468
0.00071119
0.000962295
0.00121444
0.00130633
0.00125676
0.0011078
0.000932531
0.000831188
0.000851031
0.000948039
0.00115139
0.00139966
0.00192538
0.00388209
0.0136215
0.0455894
0.00200977
0.000690388
0.000475402
0.000503345
0.000619692
0.00081718
0.00104561
0.0012321
0.0012543
0.00121478
0.00112606
0.00103597
0.0010376
0.00108162
0.00120034
0.00141063
0.0018656
0.0036774
0.014449
0.0503672
0.00185512
0.000679973
0.000461789
0.000472352
0.000551131
0.000700997
0.000885125
0.00106267
0.00118146
0.00118929
0.00115786
0.00109675
0.00108055
0.00110336
0.00118081
0.00134739
0.00174017
0.00336972
0.015086
0.0565689
0.00173529
0.000652064
0.000454997
0.000464091
0.000525494
0.000639911
0.000778768
0.000918746
0.00103024
0.00108896
0.00109292
0.00107165
0.00105242
0.00106846
0.00113738
0.00130404
0.00168564
0.0032333
0.0154942
0.0648902
0.00148572
0.000572604
0.000463493
0.000495072
0.000572392
0.000687165
0.000818684
0.000949935
0.00105927
0.00112772
0.00115281
0.00115355
0.00115957
0.00119343
0.00128561
0.00150416
0.0019599
0.00383625
0.0179897
0.0763782
0.00165286
0.000747435
0.000831755
0.00100549
0.00119748
0.00140045
0.0016006
0.00178621
0.00194567
0.00207791
0.00217507
0.00226753
0.00236986
0.00253376
0.00275041
0.00313553
0.00399361
0.00774714
0.0250004
0.0945886
0.00281991
0.00469184
0.00728241
0.00913514
0.0104733
0.0115318
0.0123732
0.0130721
0.0136219
0.0141302
0.0145951
0.0151167
0.0156614
0.016455
0.0172971
0.0186666
0.0210609
0.0319511
0.0487194
0.126786
0.0435681
0.0844525
0.122601
0.145789
0.159087
0.166834
0.170907
0.172912
0.172976
0.17267
0.171944
0.171181
0.170425
0.170316
0.170639
0.171709
0.175254
0.176371
0.192202
0.167036
)
;

boundaryField
{
    movingWall
    {
        type            zeroGradient;
    }
    fixedWalls
    {
        type            zeroGradient;
    }
    frontAndBack
    {
        type            empty;
    }
}


// ************************************************************************* //
