/*--------------------------------*- C++ -*----------------------------------*\
| =========                 |                                                 |
| \\      /  F ield         | OpenFOAM: The Open Source CFD Toolbox           |
|  \\    /   O peration     | Version:  2312                                  |
|   \\  /    A nd           | Website:  www.openfoam.com                      |
|    \\/     M anipulation  |                                                 |
\*---------------------------------------------------------------------------*/
FoamFile
{
    version     2.0;
    format      ascii;
    arch        "LSB;label=32;scalar=64";
    class       surfaceScalarField;
    location    "2.25";
    object      fluxField;
}
// * * * * * * * * * * * * * * * * * * * * * * * * * * * * * * * * * * * * * //

dimensions      [0 3 -1 0 0 0 0];

oriented        oriented;

internalField   nonuniform List<scalar> 
760
(
-4.833e-08
5.08154e-08
-1.85552e-07
1.54888e-07
-3.86994e-07
2.12202e-07
-6.24614e-07
2.47972e-07
-9.1252e-07
2.98432e-07
-1.27591e-06
3.75056e-07
-1.74216e-06
4.80924e-07
-2.32217e-06
5.97694e-07
-2.97971e-06
6.76826e-07
-3.62623e-06
6.68617e-07
-4.1384e-06
5.42705e-07
-4.39857e-06
2.99378e-07
-4.32535e-06
-2.53964e-08
-3.88489e-06
-3.83453e-07
-3.11623e-06
-7.30313e-07
-2.13133e-06
-9.88248e-07
-1.08173e-06
-1.05612e-06
-2.49139e-07
-8.1764e-07
8.96197e-08
-3.31199e-07
1.08314e-07
-1.84483e-07
2.31841e-07
-4.7514e-07
4.54354e-07
-8.41559e-07
5.71872e-07
-1.24284e-06
6.41502e-07
-1.68228e-06
7.33874e-07
-2.20098e-06
8.92259e-07
-2.84374e-06
1.11707e-06
-3.60515e-06
1.34155e-06
-4.41575e-06
1.46334e-06
-5.16842e-06
1.39536e-06
-5.75105e-06
1.10227e-06
-6.06684e-06
6.02159e-07
-6.05304e-06
-4.94041e-08
-5.66163e-06
-7.83111e-07
-4.8831e-06
-1.5186e-06
-3.77358e-06
-2.12867e-06
-2.43227e-06
-2.4277e-06
-1.04463e-06
-2.15533e-06
-1.37053e-07
-1.18684e-06
-2.18648e-08
-3.01168e-07
5.26129e-07
-6.68342e-07
8.3761e-07
-1.10679e-06
1.00866e-06
-1.59401e-06
1.12397e-06
-2.14174e-06
1.28002e-06
-2.80229e-06
1.55089e-06
-3.60068e-06
1.90992e-06
-4.50607e-06
2.23617e-06
-5.4395e-06
2.37321e-06
-6.27637e-06
2.19655e-06
-6.88965e-06
1.68367e-06
-7.20187e-06
8.98301e-07
-7.20999e-06
-5.88204e-08
-6.94844e-06
-1.10437e-06
-6.38063e-06
-2.1741e-06
-5.41994e-06
-3.18244e-06
-4.02899e-06
-3.91556e-06
-2.29134e-06
-3.9659e-06
-6.86323e-07
-2.82276e-06
-5.96899e-07
-3.78494e-07
8.83836e-07
-7.88114e-07
1.25744e-06
-1.25416e-06
1.46966e-06
-1.77659e-06
1.63865e-06
-2.37862e-06
1.87956e-06
-3.10833e-06
2.27618e-06
-3.98093e-06
2.76686e-06
-4.93454e-06
3.16459e-06
-5.83609e-06
3.24873e-06
-6.54557e-06
2.89005e-06
-6.98678e-06
2.11609e-06
-7.17446e-06
1.07413e-06
-7.14603e-06
-8.49466e-08
-6.95124e-06
-1.27196e-06
-6.62554e-06
-2.47061e-06
-6.07944e-06
-3.71081e-06
-5.09945e-06
-4.90013e-06
-3.52119e-06
-5.62605e-06
-1.49338e-06
-4.96745e-06
-1.98141e-06
-4.09537e-07
1.26854e-06
-8.27032e-07
1.68717e-06
-1.28465e-06
1.92782e-06
-1.7987e-06
2.14959e-06
-2.39987e-06
2.47812e-06
-3.13019e-06
2.99516e-06
-3.97538e-06
3.59272e-06
-4.83313e-06
3.999e-06
-5.54666e-06
3.94894e-06
-5.98561e-06
3.33591e-06
-6.11914e-06
2.27835e-06
-6.01375e-06
1.02638e-06
-5.80966e-06
-2.28106e-07
-5.60771e-06
-1.41649e-06
-5.4598e-06
-2.56686e-06
-5.33664e-06
-3.77817e-06
-4.97634e-06
-5.1692e-06
-3.98463e-06
-6.57802e-06
-2.23072e-06
-6.98469e-06
-4.17954e-06
-3.94402e-07
1.64209e-06
-7.88088e-07
2.09385e-06
-1.20747e-06
2.35296e-06
-1.67527e-06
2.62087e-06
-2.21853e-06
3.02394e-06
-2.86335e-06
3.63479e-06
-3.57356e-06
4.28774e-06
-4.2332e-06
4.63852e-06
-4.69168e-06
4.40951e-06
-4.85784e-06
3.53547e-06
-4.77067e-06
2.24118e-06
-4.55784e-06
8.41536e-07
-4.30439e-06
-4.7694e-07
-4.04773e-06
-1.67504e-06
-3.86408e-06
-2.75574e-06
-3.8391e-06
-3.80162e-06
-3.87969e-06
-5.06408e-06
-3.53738e-06
-6.7729e-06
-2.34672e-06
-8.31272e-06
-6.5938e-06
-3.41889e-07
1.97035e-06
-6.85176e-07
2.44957e-06
-1.0408e-06
2.71739e-06
-1.42713e-06
3.01479e-06
-1.85828e-06
3.46145e-06
-2.3471e-06
4.11793e-06
-2.85807e-06
4.78059e-06
-3.2935e-06
5.0517e-06
-3.5475e-06
4.66768e-06
-3.59293e-06
3.60166e-06
-3.50524e-06
2.16519e-06
-3.3564e-06
6.84429e-07
-3.14741e-06
-7.07409e-07
-2.88011e-06
-1.97635e-06
-2.6182e-06
-3.05595e-06
-2.48287e-06
-3.97857e-06
-2.56132e-06
-5.00283e-06
-2.58588e-06
-6.59565e-06
-1.96732e-06
-8.84189e-06
-8.71334e-06
-2.64216e-07
2.22708e-06
-5.37355e-07
2.73272e-06
-8.09332e-07
2.99909e-06
-1.08801e-06
3.30224e-06
-1.37174e-06
3.75346e-06
-1.66518e-06
4.40338e-06
-1.94212e-06
5.03931e-06
-2.16354e-06
5.24725e-06
-2.28648e-06
4.7944e-06
-2.30924e-06
3.64777e-06
-2.29099e-06
2.15877e-06
-2.23297e-06
6.27853e-07
-2.09562e-06
-8.47792e-07
-1.88439e-06
-2.20435e-06
-1.65841e-06
-3.30865e-06
-1.49625e-06
-4.17025e-06
-1.51591e-06
-5.03525e-06
-1.63986e-06
-6.39218e-06
-1.40021e-06
-8.91667e-06
-1.02436e-05
-1.7214e-07
2.39676e-06
-3.62063e-07
2.92922e-06
-5.39897e-07
3.18596e-06
-7.00738e-07
3.47099e-06
-8.25492e-07
3.88847e-06
-9.0911e-07
4.48158e-06
-9.49373e-07
5.06407e-06
-9.66473e-07
5.24218e-06
-9.73748e-07
4.80695e-06
-9.79927e-07
3.69016e-06
-1.00506e-06
2.21379e-06
-1.0117e-06
6.60413e-07
-9.51876e-07
-8.80305e-07
-8.46929e-07
-2.29666e-06
-7.53641e-07
-3.40689e-06
-7.00904e-07
-4.22703e-06
-7.62197e-07
-5.00625e-06
-9.28899e-07
-6.20876e-06
-9.06943e-07
-8.80668e-06
-1.12269e-05
-7.58039e-08
2.47358e-06
-1.77553e-07
3.03439e-06
-2.60162e-07
3.27595e-06
-3.07098e-07
3.52422e-06
-2.85253e-07
3.87654e-06
-1.77842e-07
4.37066e-06
2.04124e-09
4.87547e-06
1.92143e-07
5.03988e-06
3.29169e-07
4.66815e-06
3.83424e-07
3.67309e-06
3.6445e-07
2.27819e-06
3.24841e-07
7.52609e-07
2.94694e-07
-7.99449e-07
2.42741e-07
-2.21591e-06
1.42525e-07
-3.30588e-06
1.76413e-08
-4.0985e-06
-1.72375e-07
-4.82822e-06
-4.22487e-07
-5.95066e-06
-5.75717e-07
-8.58284e-06
-1.18454e-05
1.593e-08
2.46158e-06
-1.42651e-09
3.05197e-06
3.21881e-09
3.27575e-06
5.52017e-08
3.47652e-06
1.9457e-07
3.74541e-06
4.49278e-07
4.11613e-06
8.05212e-07
4.50825e-06
1.18719e-06
4.64729e-06
1.4975e-06
4.34402e-06
1.67164e-06
3.51797e-06
1.7127e-06
2.28182e-06
1.66009e-06
8.55797e-07
1.5229e-06
-6.18449e-07
1.28413e-06
-1.95993e-06
9.70914e-07
-3.00223e-06
6.52178e-07
-3.78066e-06
3.04331e-07
-4.48901e-06
-6.30641e-08
-5.56277e-06
-3.76943e-07
-8.25631e-06
-1.22415e-05
9.33763e-08
2.37262e-06
1.51828e-07
2.99154e-06
2.31928e-07
3.19906e-06
3.6179e-07
3.34883e-06
5.80987e-07
3.53048e-06
9.25687e-07
3.7728e-06
1.38837e-06
4.02979e-06
1.90189e-06
4.11743e-06
2.36317e-06
3.86302e-06
2.67684e-06
3.19895e-06
2.80564e-06
2.16727e-06
2.75848e-06
9.2039e-07
2.53201e-06
-3.81204e-07
2.13355e-06
-1.57299e-06
1.645e-06
-2.53894e-06
1.163e-06
-3.30594e-06
6.72671e-07
-4.0087e-06
1.88094e-07
-5.05654e-06
-2.68868e-07
-7.82713e-06
-1.25184e-05
1.51856e-07
2.22712e-06
2.73472e-07
2.86725e-06
4.14816e-07
3.06014e-06
6.0243e-07
3.16161e-06
8.69705e-07
3.26382e-06
1.25003e-06
3.39222e-06
1.74819e-06
3.52001e-06
2.31065e-06
3.53721e-06
2.84067e-06
3.3134e-06
3.23894e-06
2.78361e-06
3.43434e-06
1.96048e-06
3.39938e-06
9.44776e-07
3.13391e-06
-1.27217e-07
2.66877e-06
-1.12907e-06
2.09915e-06
-1.99457e-06
1.52246e-06
-2.73497e-06
9.32707e-07
-3.42644e-06
3.5368e-07
-4.45401e-06
-2.21222e-07
-7.30355e-06
-1.27276e-05
1.86361e-07
2.04221e-06
3.56844e-07
2.69054e-06
5.47387e-07
2.86824e-06
7.78158e-07
2.92842e-06
1.07394e-06
2.96602e-06
1.45764e-06
3.00591e-06
1.93802e-06
3.03243e-06
2.4794e-06
2.98308e-06
3.00082e-06
2.77866e-06
3.40866e-06
2.36117e-06
3.62422e-06
1.73157e-06
3.60896e-06
9.52251e-07
3.36365e-06
1.1615e-07
2.92156e-06
-6.95875e-07
2.35596e-06
-1.44375e-06
1.74901e-06
-2.13035e-06
1.10341e-06
-2.78799e-06
4.58032e-07
-3.79465e-06
-2.08835e-07
-6.66878e-06
-1.28793e-05
1.91689e-07
1.87548e-06
3.94482e-07
2.49448e-06
6.26294e-07
2.64154e-06
8.9319e-07
2.6614e-06
1.20963e-06
2.64846e-06
1.58763e-06
2.62569e-06
2.03023e-06
2.58535e-06
2.51462e-06
2.49185e-06
2.98445e-06
2.30264e-06
3.36151e-06
1.97936e-06
3.57623e-06
1.51547e-06
3.58863e-06
9.43339e-07
3.39246e-06
3.15907e-07
3.011e-06
-3.16889e-07
2.49489e-06
-9.32291e-07
1.89999e-06
-1.53682e-06
1.2296e-06
-2.13622e-06
5.63988e-07
-3.14948e-06
-1.72177e-07
-5.91946e-06
-1.30104e-05
1.60571e-07
1.64588e-06
3.84773e-07
2.20418e-06
6.49564e-07
2.33466e-06
9.48567e-07
2.33772e-06
1.28623e-06
2.29894e-06
1.66493e-06
2.24152e-06
2.07974e-06
2.16731e-06
2.51101e-06
2.05801e-06
2.92167e-06
1.89078e-06
3.25806e-06
1.64444e-06
3.46536e-06
1.31213e-06
3.50557e-06
9.06367e-07
3.36621e-06
4.58718e-07
3.05602e-06
-7.94599e-09
2.60624e-06
-4.84248e-07
2.0351e-06
-9.86835e-07
1.39334e-06
-1.51543e-06
7.96634e-07
-2.60936e-06
-1.65479e-08
-5.14757e-06
-1.32291e-05
5.46394e-08
1.83731e-06
2.66375e-07
2.20825e-06
5.71886e-07
2.19614e-06
9.16711e-07
2.09771e-06
1.29055e-06
1.99389e-06
1.69022e-06
1.8934e-06
2.10518e-06
1.79332e-06
2.51614e-06
1.68005e-06
2.89592e-06
1.53789e-06
3.20923e-06
1.35366e-06
3.42044e-06
1.12368e-06
3.49554e-06
8.54758e-07
3.41064e-06
5.61496e-07
3.16176e-06
2.52346e-07
2.7766e-06
-7.39285e-08
2.22947e-06
-4.6332e-07
1.72682e-06
-9.44274e-07
1.24094e-06
-2.15496e-06
2.81283e-07
-4.31282e-06
-1.34168e-05
-1.08482e-07
1.44322e-06
9.68401e-08
1.44181e-06
4.37286e-07
1.43176e-06
8.21308e-07
1.42577e-06
1.24354e-06
1.37318e-06
1.69134e-06
1.30321e-06
2.14542e-06
1.23249e-06
2.58524e-06
1.15854e-06
2.98779e-06
1.07205e-06
3.32695e-06
9.65208e-07
3.57171e-06
8.36857e-07
3.69709e-06
6.92724e-07
3.69062e-06
5.35341e-07
3.53497e-06
3.68014e-07
3.25504e-06
1.86859e-07
2.76712e-06
-7.73614e-08
2.5303e-06
-4.4187e-07
1.87403e-06
-1.50642e-06
7.13231e-07
-2.99264e-06
-1.23996e-05
-4.25327e-07
2.6765e-06
-2.07549e-07
1.97106e-06
4.2085e-07
1.38974e-06
1.08088e-06
1.12233e-06
1.72894e-06
9.64936e-07
2.35759e-06
8.53753e-07
2.95076e-06
7.70767e-07
3.50066e-06
7.04856e-07
3.99971e-06
6.45948e-07
4.43764e-06
5.87429e-07
4.80181e-06
5.26203e-07
5.08085e-06
4.62114e-07
5.27329e-06
3.9536e-07
5.36136e-06
3.23016e-07
5.37802e-06
2.41895e-07
5.11549e-06
1.11166e-07
5.11236e-06
-5.45144e-08
3.43283e-06
-6.16472e-07
2.5496e-06
-9.84246e-07
-8.13149e-06
2.5149e-06
3.66093e-06
4.87105e-06
5.88903e-06
6.73371e-06
7.49019e-06
8.1963e-06
8.85612e-06
9.46705e-06
1.00263e-05
1.05297e-05
1.09709e-05
1.13472e-05
1.16362e-05
1.18756e-05
1.18173e-05
1.21477e-05
9.49907e-06
1.26465e-05
)
;

boundaryField
{
    movingWall
    {
        type            calculated;
        value           uniform 0;
    }
    fixedWalls
    {
        type            calculated;
        value           uniform 0;
    }
    frontAndBack
    {
        type            empty;
        value           nonuniform List<scalar> 0();
    }
}


// ************************************************************************* //
