/*--------------------------------*- C++ -*----------------------------------*\
| =========                 |                                                 |
| \\      /  F ield         | OpenFOAM: The Open Source CFD Toolbox           |
|  \\    /   O peration     | Version:  2312                                  |
|   \\  /    A nd           | Website:  www.openfoam.com                      |
|    \\/     M anipulation  |                                                 |
\*---------------------------------------------------------------------------*/
FoamFile
{
    version     2.0;
    format      ascii;
    arch        "LSB;label=32;scalar=64";
    class       volVectorField;
    location    "2.25";
    object      gradPhi;
}
// * * * * * * * * * * * * * * * * * * * * * * * * * * * * * * * * * * * * * //

dimensions      [0 2 -1 0 0 0 0];

internalField   nonuniform List<vector> 
400
(
(-9.05745e-06 9.05612e-06 0)
(-2.89174e-05 2.89173e-05 0)
(-3.99755e-05 3.99755e-05 0)
(-4.70648e-05 4.70647e-05 0)
(-5.7249e-05 5.7249e-05 0)
(-7.25603e-05 7.25603e-05 0)
(-9.31109e-05 9.31109e-05 0)
(-0.000115286 0.000115286 0)
(-0.000130111 0.000130111 0)
(-0.000127869 0.000127869 0)
(-0.000102452 0.000102452 0)
(-5.42094e-05 5.42094e-05 0)
(8.10622e-06 -8.10622e-06 0)
(8.31781e-05 -8.31781e-05 0)
(0.000153117 -0.000153117 0)
(0.00020574 -0.00020574 0)
(0.000218632 -0.000218632 0)
(0.000164701 -0.000164701 0)
(6.48321e-05 -6.48321e-05 0)
(-2.04431e-05 2.04431e-05 0)
(-3.57531e-05 3.57531e-05 0)
(-6.0444e-05 6.0444e-05 0)
(-7.2855e-05 7.28549e-05 0)
(-7.95378e-05 7.95378e-05 0)
(-8.77401e-05 8.77401e-05 0)
(-0.000104112 0.000104112 0)
(-0.000128637 0.000128637 0)
(-0.00015136 0.00015136 0)
(-0.000160488 0.000160488 0)
(-0.000149051 0.000149051 0)
(-0.000116914 0.000116914 0)
(-6.65695e-05 6.65695e-05 0)
(1.26541e-06 -1.26541e-06 0)
(7.4386e-05 -7.4386e-05 0)
(0.000153604 -0.000153604 0)
(0.000225808 -0.000225808 0)
(0.000277092 -0.000277092 0)
(0.000278935 -0.000278935 0)
(0.000178676 -0.000178676 0)
(2.36968e-05 -2.36968e-05 0)
(-5.82372e-05 5.82373e-05 0)
(-7.65507e-05 7.65508e-05 0)
(-8.75727e-05 8.75727e-05 0)
(-9.68778e-05 9.68778e-05 0)
(-0.000109805 0.000109805 0)
(-0.0001324 0.0001324 0)
(-0.000159126 0.000159126 0)
(-0.000179981 0.000179981 0)
(-0.000185006 0.000185006 0)
(-0.000165776 0.000165776 0)
(-0.000123015 0.000123015 0)
(-6.64773e-05 6.64773e-05 0)
(-1.45109e-06 1.4511e-06 0)
(4.92814e-05 -4.92814e-05 0)
(0.000112208 -0.000112208 0)
(0.000191214 -0.000191214 0)
(0.000280592 -0.000280592 0)
(0.00035394 -0.00035394 0)
(0.000329793 -0.000329793 0)
(0.000125248 -0.000125248 0)
(-7.29496e-05 7.29497e-05 0)
(-8.54489e-05 8.54489e-05 0)
(-9.36337e-05 9.36337e-05 0)
(-0.000104308 0.000104308 0)
(-0.000121001 0.000121001 0)
(-0.000146101 0.000146101 0)
(-0.00017329 0.00017329 0)
(-0.00018856 0.00018856 0)
(-0.000178263 0.000178263 0)
(-0.000141576 0.000141576 0)
(-8.97625e-05 8.97626e-05 0)
(-3.89274e-05 3.89274e-05 0)
(4.6785e-06 -4.67849e-06 0)
(3.72577e-05 -3.72576e-05 0)
(6.4764e-05 -6.4764e-05 0)
(0.000106899 -0.000106899 0)
(0.000190136 -0.000190136 0)
(0.000320435 -0.000320435 0)
(0.000428889 -0.000428889 0)
(0.000280764 -0.000280764 0)
(-7.87693e-05 7.87694e-05 0)
(-8.69724e-05 8.69725e-05 0)
(-9.25154e-05 9.25155e-05 0)
(-0.000103238 0.000103238 0)
(-0.000121099 0.000121099 0)
(-0.000145638 0.000145638 0)
(-0.000166911 0.000166911 0)
(-0.000168228 0.000168228 0)
(-0.000140838 0.000140838 0)
(-8.86853e-05 8.86853e-05 0)
(-2.84857e-05 2.84857e-05 0)
(1.98875e-05 -1.98875e-05 0)
(3.62393e-05 -3.62393e-05 0)
(4.25616e-05 -4.25616e-05 0)
(3.16775e-05 -3.16775e-05 0)
(2.51677e-05 -2.51677e-05 0)
(6.13319e-05 -6.13319e-05 0)
(0.000186699 -0.000186699 0)
(0.000388337 -0.000388337 0)
(0.000429478 -0.000429478 0)
(-7.5803e-05 7.58031e-05 0)
(-8.1817e-05 8.18171e-05 0)
(-8.53012e-05 8.53013e-05 0)
(-9.45398e-05 9.45398e-05 0)
(-0.00010951 0.00010951 0)
(-0.000128087 0.000128087 0)
(-0.000138868 0.000138868 0)
(-0.000127261 0.000127261 0)
(-9.01597e-05 9.01597e-05 0)
(-3.56276e-05 3.56276e-05 0)
(1.31621e-05 -1.3162e-05 0)
(4.03244e-05 -4.03244e-05 0)
(4.92565e-05 -4.92564e-05 0)
(5.24836e-05 -5.24836e-05 0)
(3.99514e-05 -3.99514e-05 0)
(9.48605e-06 -9.48604e-06 0)
(-1.35917e-05 1.35917e-05 0)
(4.3424e-05 -4.3424e-05 0)
(0.00025863 -0.00025863 0)
(0.000473848 -0.000473848 0)
(-6.57587e-05 6.57587e-05 0)
(-7.10984e-05 7.10984e-05 0)
(-7.27488e-05 7.27488e-05 0)
(-7.85982e-05 7.85982e-05 0)
(-8.72606e-05 8.72606e-05 0)
(-9.62614e-05 9.62614e-05 0)
(-9.79973e-05 9.79973e-05 0)
(-8.14963e-05 8.14963e-05 0)
(-5.04534e-05 5.04534e-05 0)
(-1.31295e-05 1.31295e-05 0)
(1.31285e-05 -1.31285e-05 0)
(2.70576e-05 -2.70576e-05 0)
(4.084e-05 -4.084e-05 0)
(5.42244e-05 -5.42244e-05 0)
(5.52085e-05 -5.52085e-05 0)
(3.21947e-05 -3.21947e-05 0)
(-1.14696e-05 1.14696e-05 0)
(-2.87986e-05 2.87986e-05 0)
(0.000112605 -0.000112605 0)
(0.000419812 -0.000419812 0)
(-5.09017e-05 5.09017e-05 0)
(-5.63192e-05 5.63192e-05 0)
(-5.60161e-05 5.60161e-05 0)
(-5.71571e-05 5.71572e-05 0)
(-5.80757e-05 5.80758e-05 0)
(-5.66179e-05 5.66179e-05 0)
(-5.08846e-05 5.08847e-05 0)
(-3.80483e-05 3.80483e-05 0)
(-2.45627e-05 2.45627e-05 0)
(-9.77479e-06 9.7748e-06 0)
(-5.52358e-07 5.52372e-07 0)
(8.66852e-06 -8.6685e-06 0)
(2.53391e-05 -2.53391e-05 0)
(4.2705e-05 -4.2705e-05 0)
(4.82537e-05 -4.82537e-05 0)
(3.61519e-05 -3.61519e-05 0)
(4.68006e-06 -4.68005e-06 0)
(-3.81487e-05 3.81487e-05 0)
(2.19345e-05 -2.19345e-05 0)
(0.000309326 -0.000309326 0)
(-3.32384e-05 3.32384e-05 0)
(-3.89212e-05 3.89212e-05 0)
(-3.70287e-05 3.70288e-05 0)
(-3.33624e-05 3.33624e-05 0)
(-2.64466e-05 2.64466e-05 0)
(-1.4751e-05 1.4751e-05 0)
(-3.65926e-06 3.65927e-06 0)
(2.27887e-06 -2.27886e-06 0)
(-3.61086e-07 3.61099e-07 0)
(-6.37491e-06 6.37492e-06 0)
(-9.282e-06 9.28201e-06 0)
(-4.93134e-06 4.93136e-06 0)
(8.57667e-06 -8.57666e-06 0)
(2.15013e-05 -2.15013e-05 0)
(2.24175e-05 -2.24175e-05 0)
(1.30112e-05 -1.30112e-05 0)
(-5.28555e-06 5.28556e-06 0)
(-3.7342e-05 3.7342e-05 0)
(-1.96924e-05 1.96924e-05 0)
(0.000202891 -0.000202891 0)
(-1.46792e-05 1.46792e-05 0)
(-2.05691e-05 2.05691e-05 0)
(-1.77754e-05 1.77754e-05 0)
(-1.01129e-05 1.0113e-05 0)
(3.05542e-06 -3.05541e-06 0)
(2.27901e-05 -2.27901e-05 0)
(3.82352e-05 -3.82352e-05 0)
(4.20736e-05 -4.20736e-05 0)
(3.00441e-05 -3.00441e-05 0)
(7.78991e-06 -7.7899e-06 0)
(-7.3068e-06 7.30681e-06 0)
(-1.11011e-05 1.11011e-05 0)
(-8.62137e-06 8.62138e-06 0)
(-1.01558e-05 1.01558e-05 0)
(-1.70228e-05 1.70228e-05 0)
(-2.35282e-05 2.35282e-05 0)
(-3.4575e-05 3.4575e-05 0)
(-5.15323e-05 5.15324e-05 0)
(-4.41133e-05 4.41133e-05 0)
(0.000127105 -0.000127105 0)
(3.03316e-06 -3.03314e-06 0)
(-3.18174e-06 3.18175e-06 0)
(6.27444e-07 -6.2743e-07 0)
(9.76244e-06 -9.76242e-06 0)
(2.65535e-05 -2.65535e-05 0)
(5.13933e-05 -5.13933e-05 0)
(7.45627e-05 -7.45627e-05 0)
(7.9561e-05 -7.9561e-05 0)
(6.58751e-05 -6.58751e-05 0)
(3.28688e-05 -3.28688e-05 0)
(3.49252e-06 -3.49251e-06 0)
(-1.57155e-05 1.57155e-05 0)
(-3.24544e-05 3.24544e-05 0)
(-4.67864e-05 4.67864e-05 0)
(-5.78347e-05 5.78347e-05 0)
(-6.20403e-05 6.20403e-05 0)
(-6.66859e-05 6.66859e-05 0)
(-7.70055e-05 7.70055e-05 0)
(-6.58033e-05 6.58033e-05 0)
(7.97777e-05 -7.97777e-05 0)
(1.81731e-05 -1.8173e-05 0)
(1.2316e-05 -1.2316e-05 0)
(1.52981e-05 -1.52981e-05 0)
(2.57187e-05 -2.57187e-05 0)
(4.31532e-05 -4.31532e-05 0)
(6.88099e-05 -6.88099e-05 0)
(9.51975e-05 -9.51975e-05 0)
(0.000105138 -0.000105138 0)
(9.50528e-05 -9.50528e-05 0)
(6.23742e-05 -6.23742e-05 0)
(2.18711e-05 -2.18711e-05 0)
(-1.36816e-05 1.36816e-05 0)
(-4.91997e-05 4.91997e-05 0)
(-7.91416e-05 7.91416e-05 0)
(-9.38439e-05 9.38439e-05 0)
(-9.54619e-05 9.54619e-05 0)
(-9.60799e-05 9.60799e-05 0)
(-0.000101244 0.000101244 0)
(-8.6782e-05 8.6782e-05 0)
(5.23324e-05 -5.23324e-05 0)
(2.95808e-05 -2.95808e-05 0)
(2.50269e-05 -2.50268e-05 0)
(2.7891e-05 -2.78909e-05 0)
(3.7446e-05 -3.7446e-05 0)
(5.32105e-05 -5.32105e-05 0)
(7.57692e-05 -7.57692e-05 0)
(0.000101137 -0.000101137 0)
(0.00011447 -0.00011447 0)
(0.000107691 -0.000107691 0)
(7.9864e-05 -7.9864e-05 0)
(3.66838e-05 -3.66838e-05 0)
(-1.03838e-05 1.03838e-05 0)
(-5.53961e-05 5.53961e-05 0)
(-9.31805e-05 9.31805e-05 0)
(-0.000111282 0.000111282 0)
(-0.000115318 0.000115318 0)
(-0.000116727 0.000116727 0)
(-0.000120433 0.000120433 0)
(-0.000105919 0.000105919 0)
(3.98691e-05 -3.98691e-05 0)
(3.62137e-05 -3.62137e-05 0)
(3.47928e-05 -3.47928e-05 0)
(3.80155e-05 -3.80155e-05 0)
(4.63076e-05 -4.63076e-05 0)
(5.91234e-05 -5.91234e-05 0)
(7.6642e-05 -7.6642e-05 0)
(9.67678e-05 -9.67678e-05 0)
(0.00010968 -0.00010968 0)
(0.000105197 -0.000105197 0)
(8.18082e-05 -8.18082e-05 0)
(4.2025e-05 -4.2025e-05 0)
(-5.25686e-06 5.25685e-06 0)
(-5.07944e-05 5.07944e-05 0)
(-8.88687e-05 8.88687e-05 0)
(-0.000111664 0.000111664 0)
(-0.000121988 0.000121988 0)
(-0.000128398 0.000128398 0)
(-0.000132418 0.000132418 0)
(-0.000124734 0.000124734 0)
(3.75491e-05 -3.75491e-05 0)
(3.68733e-05 -3.68733e-05 0)
(4.13168e-05 -4.13168e-05 0)
(4.65262e-05 -4.65262e-05 0)
(5.377e-05 -5.377e-05 0)
(6.33804e-05 -6.33804e-05 0)
(7.56283e-05 -7.56283e-05 0)
(8.88884e-05 -8.88884e-05 0)
(9.77172e-05 -9.77172e-05 0)
(9.45716e-05 -9.45716e-05 0)
(7.56018e-05 -7.56018e-05 0)
(4.24025e-05 -4.24025e-05 0)
(1.09165e-06 -1.09166e-06 0)
(-4.06593e-05 4.06593e-05 0)
(-7.64353e-05 7.64353e-05 0)
(-0.000103064 0.000103064 0)
(-0.000119554 0.000119554 0)
(-0.000132598 0.000132598 0)
(-0.000133765 0.000133765 0)
(-0.000148752 0.000148752 0)
(3.70598e-05 -3.70598e-05 0)
(3.00752e-05 -3.00752e-05 0)
(4.59068e-05 -4.59068e-05 0)
(5.3278e-05 -5.3278e-05 0)
(6.03319e-05 -6.03319e-05 0)
(6.77541e-05 -6.77541e-05 0)
(7.58519e-05 -7.58519e-05 0)
(8.32281e-05 -8.32281e-05 0)
(8.67414e-05 -8.67414e-05 0)
(8.25922e-05 -8.25922e-05 0)
(6.74415e-05 -6.74415e-05 0)
(4.10467e-05 -4.10468e-05 0)
(7.17717e-06 -7.17718e-06 0)
(-2.91159e-05 2.91159e-05 0)
(-6.17766e-05 6.17766e-05 0)
(-9.13641e-05 9.1364e-05 0)
(-0.000112657 0.000112657 0)
(-0.000127857 0.000127857 0)
(-0.000115854 0.000115854 0)
(-0.000170346 0.000170346 0)
(7.54477e-06 -7.54477e-06 0)
(9.15745e-06 -9.15746e-06 0)
(4.32343e-05 -4.32343e-05 0)
(6.08353e-05 -6.08353e-05 0)
(6.97868e-05 -6.97868e-05 0)
(7.53152e-05 -7.53152e-05 0)
(8.01931e-05 -8.01931e-05 0)
(8.32578e-05 -8.32578e-05 0)
(8.24877e-05 -8.24877e-05 0)
(7.62244e-05 -7.62244e-05 0)
(6.28445e-05 -6.28445e-05 0)
(4.19528e-05 -4.19528e-05 0)
(1.41509e-05 -1.41509e-05 0)
(-1.73855e-05 1.73855e-05 0)
(-5.01344e-05 5.01344e-05 0)
(-7.92129e-05 7.92129e-05 0)
(-0.000102732 0.000102732 0)
(-0.000115778 0.000115778 0)
(-9.27148e-05 9.27148e-05 0)
(-0.000179986 0.000179986 0)
(-6.14964e-05 6.14964e-05 0)
(-2.58642e-05 2.58642e-05 0)
(4.58358e-05 -4.58358e-05 0)
(6.71669e-05 -6.71669e-05 0)
(7.60202e-05 -7.60202e-05 0)
(8.54817e-05 -8.54817e-05 0)
(9.03307e-05 -9.03307e-05 0)
(9.11937e-05 -9.11937e-05 0)
(8.82603e-05 -8.82603e-05 0)
(8.07523e-05 -8.07523e-05 0)
(6.77296e-05 -6.77296e-05 0)
(4.87408e-05 -4.87408e-05 0)
(2.47605e-05 -2.47605e-05 0)
(-2.07457e-06 2.07456e-06 0)
(-3.08431e-05 3.08431e-05 0)
(-5.9023e-05 5.9023e-05 0)
(-8.02806e-05 8.02806e-05 0)
(-9.39518e-05 9.39518e-05 0)
(-0.000105956 0.000105956 0)
(-0.000207293 0.000207293 0)
(-0.000160987 0.000160987 0)
(-9.28581e-05 9.28581e-05 0)
(4.78645e-05 -4.78645e-05 0)
(0.000124391 -0.000124391 0)
(0.000137541 -0.000137541 0)
(0.000131743 -0.000131743 0)
(0.000124906 -0.000124906 0)
(0.000118012 -0.000118012 0)
(0.000109897 -0.000109897 0)
(9.99666e-05 -9.99666e-05 0)
(8.75519e-05 -8.75519e-05 0)
(7.25992e-05 -7.25992e-05 0)
(5.58052e-05 -5.58052e-05 0)
(3.79269e-05 -3.79269e-05 0)
(1.98615e-05 -1.98615e-05 0)
(1.94026e-07 -1.94031e-07 0)
(-2.90847e-05 2.90847e-05 0)
(-7.37067e-05 7.37067e-05 0)
(-0.000169026 0.000169026 0)
(-0.000412641 0.000412641 0)
(-0.000390945 0.000390945 0)
(0.000450762 -0.000450762 0)
(0.000313946 -0.000313946 0)
(0.000221393 -0.000221393 0)
(0.000188111 -0.000188111 0)
(0.000169417 -0.000169417 0)
(0.000154213 -0.000154213 0)
(0.000142004 -0.000142004 0)
(0.000131916 -0.000131916 0)
(0.000122277 -0.000122277 0)
(0.00011199 -0.00011199 0)
(0.000100666 -0.000100666 0)
(8.83306e-05 -8.83306e-05 0)
(7.49239e-05 -7.49239e-05 0)
(5.98819e-05 -5.98819e-05 0)
(4.29161e-05 -4.29161e-05 0)
(1.69738e-05 -1.69738e-05 0)
(-1.57601e-05 1.57601e-05 0)
(-0.000143897 0.000143897 0)
(-0.000217636 0.000217636 0)
(-0.00201243 0.00201243 0)
)
;

boundaryField
{
    movingWall
    {
        type            extrapolatedCalculated;
        value           nonuniform List<vector> 
20
(
(0.000450762 -0.000450762 0)
(0.000313946 -0.000313946 0)
(0.000221393 -0.000221393 0)
(0.000188111 -0.000188111 0)
(0.000169417 -0.000169417 0)
(0.000154213 -0.000154213 0)
(0.000142004 -0.000142004 0)
(0.000131916 -0.000131916 0)
(0.000122277 -0.000122277 0)
(0.00011199 -0.00011199 0)
(0.000100666 -0.000100666 0)
(8.83306e-05 -8.83306e-05 0)
(7.49239e-05 -7.49239e-05 0)
(5.98819e-05 -5.98819e-05 0)
(4.29161e-05 -4.29161e-05 0)
(1.69738e-05 -1.69738e-05 0)
(-1.57601e-05 1.57601e-05 0)
(-0.000143897 0.000143897 0)
(-0.000217636 0.000217636 0)
(-0.00201243 0.00201243 0)
)
;
    }
    fixedWalls
    {
        type            extrapolatedCalculated;
        value           nonuniform List<vector> 
60
(
(-9.05745e-06 9.05612e-06 0)
(-3.57531e-05 3.57531e-05 0)
(-5.82372e-05 5.82373e-05 0)
(-7.29496e-05 7.29497e-05 0)
(-7.87693e-05 7.87694e-05 0)
(-7.5803e-05 7.58031e-05 0)
(-6.57587e-05 6.57587e-05 0)
(-5.09017e-05 5.09017e-05 0)
(-3.32384e-05 3.32384e-05 0)
(-1.46792e-05 1.46792e-05 0)
(3.03316e-06 -3.03314e-06 0)
(1.81731e-05 -1.8173e-05 0)
(2.95808e-05 -2.95808e-05 0)
(3.62137e-05 -3.62137e-05 0)
(3.68733e-05 -3.68733e-05 0)
(3.00752e-05 -3.00752e-05 0)
(9.15745e-06 -9.15746e-06 0)
(-2.58642e-05 2.58642e-05 0)
(-9.28581e-05 9.28581e-05 0)
(0.000450762 -0.000450762 0)
(-2.04431e-05 2.04431e-05 0)
(2.36968e-05 -2.36968e-05 0)
(0.000125248 -0.000125248 0)
(0.000280764 -0.000280764 0)
(0.000429478 -0.000429478 0)
(0.000473848 -0.000473848 0)
(0.000419812 -0.000419812 0)
(0.000309326 -0.000309326 0)
(0.000202891 -0.000202891 0)
(0.000127105 -0.000127105 0)
(7.97777e-05 -7.97777e-05 0)
(5.23324e-05 -5.23324e-05 0)
(3.98691e-05 -3.98691e-05 0)
(3.75491e-05 -3.75491e-05 0)
(3.70598e-05 -3.70598e-05 0)
(7.54477e-06 -7.54477e-06 0)
(-6.14964e-05 6.14964e-05 0)
(-0.000160987 0.000160987 0)
(-0.000390945 0.000390945 0)
(-0.00201243 0.00201243 0)
(-9.05745e-06 9.05612e-06 0)
(-2.89174e-05 2.89173e-05 0)
(-3.99755e-05 3.99755e-05 0)
(-4.70648e-05 4.70647e-05 0)
(-5.7249e-05 5.7249e-05 0)
(-7.25603e-05 7.25603e-05 0)
(-9.31109e-05 9.31109e-05 0)
(-0.000115286 0.000115286 0)
(-0.000130111 0.000130111 0)
(-0.000127869 0.000127869 0)
(-0.000102452 0.000102452 0)
(-5.42094e-05 5.42094e-05 0)
(8.10622e-06 -8.10622e-06 0)
(8.31781e-05 -8.31781e-05 0)
(0.000153117 -0.000153117 0)
(0.00020574 -0.00020574 0)
(0.000218632 -0.000218632 0)
(0.000164701 -0.000164701 0)
(6.48321e-05 -6.48321e-05 0)
(-2.04431e-05 2.04431e-05 0)
)
;
    }
    frontAndBack
    {
        type            empty;
    }
}


// ************************************************************************* //
