/*--------------------------------*- C++ -*----------------------------------*\
| =========                 |                                                 |
| \\      /  F ield         | OpenFOAM: The Open Source CFD Toolbox           |
|  \\    /   O peration     | Version:  2312                                  |
|   \\  /    A nd           | Website:  www.openfoam.com                      |
|    \\/     M anipulation  |                                                 |
\*---------------------------------------------------------------------------*/
FoamFile
{
    version     2.0;
    format      ascii;
    arch        "LSB;label=32;scalar=64";
    class       volTensorField;
    location    "2.25";
    object      gradU;
}
// * * * * * * * * * * * * * * * * * * * * * * * * * * * * * * * * * * * * * //

dimensions      [0 0 -1 0 0 0 0];

internalField   nonuniform List<tensor> 
400
(
(-0.19332 0.0648292 0 -0.13898 0.203261 0 0 0 0)
(-0.548888 0.13008 0 -0.79227 0.619553 0 0 0 0)
(-0.805769 0.0944357 0 -1.8505 0.848808 0 0 0 0)
(-0.950479 0.105565 0 -3.06372 0.99189 0 0 0 0)
(-1.15162 0.153705 0 -4.4061 1.19373 0 0 0 0)
(-1.45355 0.198446 0 -5.9731 1.50022 0 0 0 0)
(-1.86499 0.236535 0 -7.93445 1.92369 0 0 0 0)
(-2.32004 0.238859 0 -10.4091 2.39078 0 0 0 0)
(-2.63016 0.129711 0 -13.3001 2.7073 0 0 0 0)
(-2.58609 -0.105426 0 -16.2817 2.67447 0 0 0 0)
(-2.04868 -0.384426 0 -18.8969 2.17082 0 0 0 0)
(-1.0407 -0.590389 0 -20.6609 1.19751 0 0 0 0)
(0.292919 -0.669731 0 -21.2008 -0.101586 0 0 0 0)
(1.76181 -0.675332 0 -20.3127 -1.53381 0 0 0 0)
(3.07467 -0.580311 0 -17.8733 -2.92125 0 0 0 0)
(3.93959 -0.269307 0 -14.1239 -3.95299 0 0 0 0)
(4.19838 0.297334 0 -9.49571 -4.22447 0 0 0 0)
(3.33038 0.795363 0 -4.56029 -3.27056 0 0 0 0)
(1.35504 0.796509 0 -0.614798 -1.3248 0 0 0 0)
(-0.358479 0.0335488 0 0.425064 0.433258 0 0 0 0)
(-0.73793 0.757985 0 -0.26997 0.724104 0 0 0 0)
(-1.16263 0.515466 0 -0.741381 1.19786 0 0 0 0)
(-1.46568 0.277901 0 -1.18978 1.43868 0 0 0 0)
(-1.60512 0.239355 0 -1.68939 1.57412 0 0 0 0)
(-1.75777 0.354627 0 -2.18821 1.74177 0 0 0 0)
(-2.0748 0.53152 0 -2.72865 2.06881 0 0 0 0)
(-2.57103 0.654021 0 -3.37688 2.54458 0 0 0 0)
(-3.04565 0.54475 0 -4.05721 2.97541 0 0 0 0)
(-3.24238 0.153979 0 -4.67843 3.14604 0 0 0 0)
(-3.01071 -0.431056 0 -5.16075 2.90697 0 0 0 0)
(-2.3305 -1.09253 0 -5.43981 2.23828 0 0 0 0)
(-1.26316 -1.68202 0 -5.56517 1.21112 0 0 0 0)
(0.0551991 -2.06159 0 -5.648 -0.0960307 0 0 0 0)
(1.56565 -2.14433 0 -5.89057 -1.59863 0 0 0 0)
(3.11412 -1.83887 0 -6.3636 -3.15317 0 0 0 0)
(4.43804 -1.03391 0 -6.69403 -4.5617 0 0 0 0)
(5.36528 0.385097 0 -6.46042 -5.48631 0 0 0 0)
(5.55054 2.10431 0 -5.3286 -5.35076 0 0 0 0)
(3.63031 2.90731 0 -2.84022 -3.42257 0 0 0 0)
(0.548212 0.857991 0 -0.263546 -0.520717 0 0 0 0)
(-1.20467 1.9868 0 -0.242414 1.17715 0 0 0 0)
(-1.4687 0.844657 0 -0.533631 1.53302 0 0 0 0)
(-1.75377 0.47069 0 -0.718262 1.74716 0 0 0 0)
(-1.94891 0.408652 0 -0.93213 1.92987 0 0 0 0)
(-2.19089 0.648401 0 -1.20286 2.1846 0 0 0 0)
(-2.64222 1.00126 0 -1.5825 2.63452 0 0 0 0)
(-3.19355 1.14313 0 -2.0469 3.1714 0 0 0 0)
(-3.62158 0.840317 0 -2.50188 3.57851 0 0 0 0)
(-3.7337 0.0612659 0 -2.81568 3.6395 0 0 0 0)
(-3.34747 -1.01319 0 -2.8657 3.20476 0 0 0 0)
(-2.45311 -2.08027 0 -2.64287 2.32558 0 0 0 0)
(-1.24889 -2.9247 0 -2.30006 1.18457 0 0 0 0)
(-0.0324771 -3.47949 0 -2.13043 -0.0376653 0 0 0 0)
(1.04621 -3.73247 0 -2.24153 -1.28502 0 0 0 0)
(2.27121 -3.54338 0 -2.91694 -2.62199 0 0 0 0)
(3.84276 -2.60245 0 -4.05286 -4.21508 0 0 0 0)
(5.56382 -0.49173 0 -5.17058 -5.95146 0 0 0 0)
(6.95058 2.85911 0 -5.49815 -7.24228 0 0 0 0)
(6.42009 5.62655 0 -4.40808 -6.54368 0 0 0 0)
(2.74529 3.97683 0 -1.01723 -2.30014 0 0 0 0)
(-1.51398 3.46816 0 -0.138792 1.43083 0 0 0 0)
(-1.63848 1.08547 0 -0.294682 1.67933 0 0 0 0)
(-1.86417 0.674744 0 -0.340078 1.84398 0 0 0 0)
(-2.08971 0.676793 0 -0.371383 2.05874 0 0 0 0)
(-2.40813 1.05928 0 -0.447367 2.39816 0 0 0 0)
(-2.91884 1.51832 0 -0.585163 2.90115 0 0 0 0)
(-3.49042 1.59801 0 -0.726417 3.42778 0 0 0 0)
(-3.81444 1.01285 0 -0.772368 3.71366 0 0 0 0)
(-3.6062 -0.219767 0 -0.53586 3.50209 0 0 0 0)
(-2.8379 -1.74498 0 0.107208 2.774 0 0 0 0)
(-1.76486 -3.11272 0 1.05581 1.7297 0 0 0 0)
(-0.750716 -4.04527 0 2.0262 0.703299 0 0 0 0)
(0.113725 -4.53119 0 2.72626 -0.104505 0 0 0 0)
(0.779142 -4.72865 0 2.87506 -0.670376 0 0 0 0)
(1.3028 -4.76892 0 2.48783 -1.18604 0 0 0 0)
(2.1844 -4.36339 0 1.19552 -2.11346 0 0 0 0)
(3.91998 -2.64211 0 -0.862309 -3.9383 0 0 0 0)
(6.31304 1.51209 0 -2.92709 -6.64061 0 0 0 0)
(8.11123 7.84945 0 -3.84606 -8.57876 0 0 0 0)
(5.97353 9.7018 0 -2.33153 -5.53805 0 0 0 0)
(-1.63815 5.09696 0 -0.0247945 1.53882 0 0 0 0)
(-1.66998 1.25781 0 -0.0388398 1.7189 0 0 0 0)
(-1.83047 0.850101 0 0.0389425 1.83264 0 0 0 0)
(-2.0562 0.962827 0 0.147808 2.04372 0 0 0 0)
(-2.40467 1.49081 0 0.257449 2.39423 0 0 0 0)
(-2.92127 2.03088 0 0.382921 2.87594 0 0 0 0)
(-3.38075 1.95564 0 0.59701 3.30343 0 0 0 0)
(-3.43103 0.914619 0 1.03247 3.33764 0 0 0 0)
(-2.85413 -0.878388 0 1.77291 2.80083 0 0 0 0)
(-1.7558 -2.78558 0 2.80473 1.78344 0 0 0 0)
(-0.53411 -4.15097 0 3.94616 0.649007 0 0 0 0)
(0.421554 -4.7589 0 4.91829 -0.190996 0 0 0 0)
(0.816379 -4.85316 0 5.54818 -0.572638 0 0 0 0)
(0.80778 -4.81401 0 5.81835 -0.578113 0 0 0 0)
(0.591669 -4.98646 0 5.7957 -0.384977 0 0 0 0)
(0.492626 -5.3547 0 5.25016 -0.269473 0 0 0 0)
(1.44121 -5.01888 0 3.7112 -1.07625 0 0 0 0)
(3.96683 -1.78136 0 1.16784 -3.80786 0 0 0 0)
(7.01564 6.72911 0 -1.2326 -8.06897 0 0 0 0)
(8.92288 18.0936 0 -2.18076 -8.79251 0 0 0 0)
(-1.57761 6.72588 0 0.0768916 1.49421 0 0 0 0)
(-1.57474 1.3793 0 0.193699 1.62674 0 0 0 0)
(-1.67753 0.99957 0 0.373725 1.70057 0 0 0 0)
(-1.87121 1.23838 0 0.601668 1.88512 0 0 0 0)
(-2.17302 1.89149 0 0.884626 2.18328 0 0 0 0)
(-2.57928 2.42753 0 1.28175 2.5585 0 0 0 0)
(-2.84087 2.05971 0 1.85061 2.78007 0 0 0 0)
(-2.63853 0.510259 0 2.61861 2.55809 0 0 0 0)
(-1.83393 -1.77397 0 3.53991 1.84229 0 0 0 0)
(-0.664655 -3.8968 0 4.45674 0.79826 0 0 0 0)
(0.348706 -5.08715 0 5.114 -0.148672 0 0 0 0)
(0.85131 -5.26691 0 5.34162 -0.739365 0 0 0 0)
(1.01378 -4.9183 0 5.28778 -0.995337 0 0 0 0)
(1.02666 -4.54099 0 5.36122 -1.03419 0 0 0 0)
(0.734608 -4.46028 0 5.54919 -0.755543 0 0 0 0)
(0.0998991 -5.05466 0 5.81717 -0.0937988 0 0 0 0)
(-0.162338 -6.18049 0 5.59792 0.420476 0 0 0 0)
(1.36923 -5.48063 0 4.06214 -0.779539 0 0 0 0)
(4.76263 2.8648 0 1.53286 -5.3121 0 0 0 0)
(9.38689 26.5633 0 -0.479257 -9.65706 0 0 0 0)
(-1.36756 8.21791 0 0.149628 1.31303 0 0 0 0)
(-1.37315 1.46417 0 0.371116 1.42286 0 0 0 0)
(-1.42251 1.10849 0 0.631816 1.45771 0 0 0 0)
(-1.5453 1.44554 0 0.960735 1.57568 0 0 0 0)
(-1.72459 2.16419 0 1.38832 1.75005 0 0 0 0)
(-1.95529 2.62768 0 1.99884 1.93258 0 0 0 0)
(-2.04389 1.95523 0 2.79381 1.97139 0 0 0 0)
(-1.74173 -0.0231651 0 3.73197 1.65271 0 0 0 0)
(-1.01599 -2.63822 0 4.54666 1.03265 0 0 0 0)
(-0.181706 -4.77654 0 5.07413 0.264737 0 0 0 0)
(0.350764 -5.6886 0 5.12027 -0.303939 0 0 0 0)
(0.595337 -5.60556 0 4.79842 -0.628425 0 0 0 0)
(0.835983 -5.14798 0 4.50107 -0.921873 0 0 0 0)
(1.06919 -4.57421 0 4.33404 -1.20528 0 0 0 0)
(1.04762 -4.04607 0 4.31931 -1.20083 0 0 0 0)
(0.541353 -4.17869 0 4.50337 -0.707784 0 0 0 0)
(-0.313829 -5.70462 0 4.86805 0.24501 0 0 0 0)
(-0.0982277 -7.51393 0 4.58704 0.709 0 0 0 0)
(2.47425 -2.14841 0 3.00302 -2.11669 0 0 0 0)
(7.86927 33.0628 0 0.783043 -8.47814 0 0 0 0)
(-1.05687 9.46177 0 0.191672 1.02691 0 0 0 0)
(-1.09255 1.52397 0 0.487324 1.13259 0 0 0 0)
(-1.08791 1.1524 0 0.805129 1.1268 0 0 0 0)
(-1.11471 1.53072 0 1.19849 1.14981 0 0 0 0)
(-1.13491 2.24839 0 1.70706 1.16802 0 0 0 0)
(-1.17378 2.64887 0 2.42407 1.1418 0 0 0 0)
(-1.10774 1.77984 0 3.32788 1.03488 0 0 0 0)
(-0.885689 -0.428486 0 4.30691 0.782222 0 0 0 0)
(-0.491776 -3.16194 0 5.00122 0.506883 0 0 0 0)
(-0.0910393 -5.23339 0 5.2938 0.184468 0 0 0 0)
(0.0729962 -5.98032 0 5.15821 -0.0256858 0 0 0 0)
(0.232107 -5.88485 0 4.84251 -0.226307 0 0 0 0)
(0.549406 -5.49515 0 4.53629 -0.561535 0 0 0 0)
(0.844894 -4.81995 0 4.24584 -0.912 0 0 0 0)
(0.903934 -3.96279 0 3.88688 -1.01082 0 0 0 0)
(0.648643 -3.60882 0 3.57137 -0.766727 0 0 0 0)
(-0.0786632 -4.76371 0 3.55648 -0.129702 0 0 0 0)
(-0.495797 -7.84233 0 3.64002 0.813873 0 0 0 0)
(0.958631 -6.32234 0 2.9879 -0.299134 0 0 0 0)
(5.60082 37.1581 0 1.2536 -6.12114 0 0 0 0)
(-0.68856 10.3774 0 0.20712 0.678704 0 0 0 0)
(-0.759693 1.56406 0 0.54653 0.786015 0 0 0 0)
(-0.711336 1.1257 0 0.892679 0.747495 0 0 0 0)
(-0.643364 1.48676 0 1.304 0.674991 0 0 0 0)
(-0.499016 2.15618 0 1.81964 0.540058 0 0 0 0)
(-0.33447 2.49453 0 2.52629 0.312807 0 0 0 0)
(-0.161053 1.59565 0 3.42306 0.0990255 0 0 0 0)
(-0.068398 -0.551165 0 4.35357 -0.0203116 0 0 0 0)
(-0.0291034 -3.23597 0 5.06916 0.0502008 0 0 0 0)
(-0.0247126 -5.30911 0 5.39345 0.169543 0 0 0 0)
(-0.100518 -6.09937 0 5.37722 0.220077 0 0 0 0)
(-0.0265859 -6.14141 0 5.24456 0.130243 0 0 0 0)
(0.239308 -5.83368 0 4.98668 -0.130049 0 0 0 0)
(0.419788 -5.0235 0 4.57456 -0.369228 0 0 0 0)
(0.373149 -3.90079 0 3.93397 -0.392965 0 0 0 0)
(0.210949 -3.29757 0 3.26977 -0.227097 0 0 0 0)
(-0.245172 -4.12402 0 2.78579 0.116002 0 0 0 0)
(-0.666807 -7.68336 0 2.58836 0.733671 0 0 0 0)
(0.0878242 -9.08343 0 2.28114 0.439992 0 0 0 0)
(3.62777 39.4831 0 1.01681 -3.93291 0 0 0 0)
(-0.303216 10.9265 0 0.202166 0.307312 0 0 0 0)
(-0.406995 1.59276 0 0.550114 0.420688 0 0 0 0)
(-0.330437 1.04137 0 0.892433 0.359954 0 0 0 0)
(-0.187746 1.32328 0 1.28003 0.212914 0 0 0 0)
(0.0873824 1.8862 0 1.74373 -0.0477463 0 0 0 0)
(0.429642 2.20784 0 2.33652 -0.443683 0 0 0 0)
(0.719534 1.44672 0 3.09703 -0.75438 0 0 0 0)
(0.760407 -0.477311 0 3.92131 -0.809185 0 0 0 0)
(0.548104 -2.97209 0 4.69333 -0.555178 0 0 0 0)
(0.21702 -5.06351 0 5.19168 -0.0682962 0 0 0 0)
(-0.0758957 -6.01962 0 5.41459 0.257612 0 0 0 0)
(-0.158434 -6.23497 0 5.45643 0.368782 0 0 0 0)
(-0.120587 -5.99462 0 5.23074 0.323423 0 0 0 0)
(-0.207814 -5.08286 0 4.66837 0.322995 0 0 0 0)
(-0.400862 -3.82066 0 3.85587 0.404055 0 0 0 0)
(-0.499535 -3.09986 0 3.04235 0.514121 0 0 0 0)
(-0.760067 -3.80294 0 2.36998 0.712121 0 0 0 0)
(-1.00045 -7.51834 0 1.89614 1.03244 0 0 0 0)
(-0.61292 -10.9889 0 1.5672 0.895351 0 0 0 0)
(2.30287 40.651 0 0.552797 -2.47429 0 0 0 0)
(0.0637201 11.1054 0 0.176126 -0.0479987 0 0 0 0)
(-0.0694262 1.61671 0 0.500595 0.0703196 0 0 0 0)
(0.0185813 0.917925 0 0.81693 -0.000789525 0 0 0 0)
(0.207932 1.07906 0 1.15143 -0.190785 0 0 0 0)
(0.557471 1.49958 0 1.52412 -0.5245 0 0 0 0)
(1.01883 1.7879 0 1.94083 -1.01812 0 0 0 0)
(1.42374 1.23015 0 2.47328 -1.4689 0 0 0 0)
(1.5279 -0.351963 0 3.07204 -1.57034 0 0 0 0)
(1.24127 -2.49509 0 3.76695 -1.29651 0 0 0 0)
(0.69655 -4.49632 0 4.36907 -0.620477 0 0 0 0)
(0.164228 -5.66229 0 4.8046 0.0145138 0 0 0 0)
(-0.210436 -6.0756 0 4.96018 0.412753 0 0 0 0)
(-0.548754 -5.87946 0 4.77436 0.723998 0 0 0 0)
(-0.955082 -4.94287 0 4.1749 1.02392 0 0 0 0)
(-1.25286 -3.70967 0 3.38835 1.21459 0 0 0 0)
(-1.27494 -2.9895 0 2.62154 1.27135 0 0 0 0)
(-1.39139 -3.6057 0 1.95988 1.35685 0 0 0 0)
(-1.46958 -7.50013 0 1.4203 1.55153 0 0 0 0)
(-1.25551 -12.5902 0 1.02202 1.30613 0 0 0 0)
(1.50777 41.062 0 0.205376 -1.58446 0 0 0 0)
(0.373505 10.9488 0 0.131983 -0.35584 0 0 0 0)
(0.233809 1.63997 0 0.41172 -0.241713 0 0 0 0)
(0.320396 0.780267 0 0.687874 -0.306766 0 0 0 0)
(0.519449 0.799569 0 0.958516 -0.510761 0 0 0 0)
(0.876788 1.05887 0 1.2304 -0.859729 0 0 0 0)
(1.3788 1.26344 0 1.47014 -1.37334 0 0 0 0)
(1.85074 0.894503 0 1.73286 -1.91384 0 0 0 0)
(2.05407 -0.304927 0 2.03907 -2.11948 0 0 0 0)
(1.84513 -2.02222 0 2.45479 -1.924 0 0 0 0)
(1.25467 -3.75249 0 2.91788 -1.27607 0 0 0 0)
(0.515215 -4.98639 0 3.35134 -0.458206 0 0 0 0)
(-0.188671 -5.52549 0 3.53524 0.258371 0 0 0 0)
(-0.905875 -5.38345 0 3.42193 0.948982 0 0 0 0)
(-1.59382 -4.59228 0 3.02211 1.54778 0 0 0 0)
(-1.95422 -3.57323 0 2.51646 1.85317 0 0 0 0)
(-1.92801 -2.95759 0 1.9965 1.89887 0 0 0 0)
(-1.9613 -3.52276 0 1.48462 1.92123 0 0 0 0)
(-1.93831 -7.56905 0 1.02888 2.02492 0 0 0 0)
(-1.82785 -14.1249 0 0.638095 1.71669 0 0 0 0)
(1.07547 40.9294 0 -0.015213 -1.10736 0 0 0 0)
(0.607423 10.5079 0 0.0757566 -0.582017 0 0 0 0)
(0.486465 1.66578 0 0.296183 -0.497166 0 0 0 0)
(0.565377 0.648877 0 0.523878 -0.555703 0 0 0 0)
(0.750456 0.526098 0 0.737959 -0.748856 0 0 0 0)
(1.0691 0.637004 0 0.927515 -1.06664 0 0 0 0)
(1.52129 0.73379 0 1.04428 -1.52233 0 0 0 0)
(1.99266 0.484012 0 1.08353 -2.0391 0 0 0 0)
(2.24983 -0.362124 0 1.11507 -2.32087 0 0 0 0)
(2.12008 -1.65168 0 1.19497 -2.19849 0 0 0 0)
(1.59309 -3.03052 0 1.35562 -1.66138 0 0 0 0)
(0.781587 -4.12785 0 1.57167 -0.827174 0 0 0 0)
(-0.139837 -4.66841 0 1.70264 0.0975461 0 0 0 0)
(-1.06188 -4.59006 0 1.6993 1.01595 0 0 0 0)
(-1.86056 -4.03868 0 1.62725 1.77569 0 0 0 0)
(-2.27847 -3.35857 0 1.52476 2.17749 0 0 0 0)
(-2.30678 -2.92144 0 1.31909 2.28389 0 0 0 0)
(-2.35901 -3.47966 0 1.02495 2.32904 0 0 0 0)
(-2.31611 -7.70467 0 0.698 2.41012 0 0 0 0)
(-2.29961 -15.7224 0 0.381754 2.09434 0 0 0 0)
(0.884888 40.4527 0 -0.141622 -0.836747 0 0 0 0)
(0.745444 9.86963 0 0.00905625 -0.739656 0 0 0 0)
(0.68193 1.66628 0 0.150278 -0.706828 0 0 0 0)
(0.762173 0.528576 0 0.333763 -0.767588 0 0 0 0)
(0.923086 0.28863 0 0.512148 -0.932787 0 0 0 0)
(1.18311 0.285398 0 0.650893 -1.19118 0 0 0 0)
(1.53481 0.290987 0 0.708798 -1.54521 0 0 0 0)
(1.92153 0.0959622 0 0.641623 -1.95031 0 0 0 0)
(2.16551 -0.464323 0 0.486519 -2.2165 0 0 0 0)
(2.08568 -1.36274 0 0.329371 -2.13897 0 0 0 0)
(1.63138 -2.38117 0 0.24574 -1.68974 0 0 0 0)
(0.862238 -3.22746 0 0.244541 -0.915651 0 0 0 0)
(-0.061047 -3.68237 0 0.323008 0.0298975 0 0 0 0)
(-0.981262 -3.70531 0 0.433974 0.973467 0 0 0 0)
(-1.76836 -3.43073 0 0.60023 1.73277 0 0 0 0)
(-2.26238 -3.06502 0 0.768693 2.20328 0 0 0 0)
(-2.42782 -2.80605 0 0.814236 2.41846 0 0 0 0)
(-2.58239 -3.39653 0 0.695869 2.55379 0 0 0 0)
(-2.58151 -7.80375 0 0.49171 2.63746 0 0 0 0)
(-2.66747 -17.3718 0 0.349525 2.53906 0 0 0 0)
(0.835342 39.6718 0 -0.153343 -0.6071 0 0 0 0)
(0.766757 9.06137 0 -0.0874815 -0.66692 0 0 0 0)
(0.811172 1.63785 0 -0.0156771 -0.784264 0 0 0 0)
(0.927247 0.422919 0 0.127395 -0.906794 0 0 0 0)
(1.06759 0.102502 0 0.281315 -1.06806 0 0 0 0)
(1.26575 0.0245801 0 0.400321 -1.27026 0 0 0 0)
(1.51202 -0.0253353 0 0.448842 -1.52091 0 0 0 0)
(1.77038 -0.187277 0 0.380316 -1.78836 0 0 0 0)
(1.93758 -0.550784 0 0.186539 -1.96492 0 0 0 0)
(1.8793 -1.12492 0 -0.060085 -1.90408 0 0 0 0)
(1.50826 -1.80721 0 -0.256518 -1.52725 0 0 0 0)
(0.858855 -2.40822 0 -0.345882 -0.864375 0 0 0 0)
(0.0495964 -2.77929 0 -0.28958 -0.0356467 0 0 0 0)
(-0.784655 -2.88719 0 -0.123968 0.799027 0 0 0 0)
(-1.52584 -2.80887 0 0.13423 1.51594 0 0 0 0)
(-2.06447 -2.67288 0 0.403642 2.04584 0 0 0 0)
(-2.3796 -2.57092 0 0.597463 2.37412 0 0 0 0)
(-2.68154 -3.26066 0 0.546905 2.6071 0 0 0 0)
(-2.66245 -7.7194 0 0.612834 2.58067 0 0 0 0)
(-2.94466 -18.967 0 0.741574 2.9973 0 0 0 0)
(0.688706 38.5207 0 0.0275765 -0.524184 0 0 0 0)
(0.642286 8.41844 0 -0.229562 -0.918401 0 0 0 0)
(0.896806 1.42641 0 -0.318637 -1.1612 0 0 0 0)
(1.05916 0.244778 0 -0.193792 -1.22754 0 0 0 0)
(1.19601 -0.0748354 0 -0.0238406 -1.29472 0 0 0 0)
(1.35064 -0.167448 0 0.117922 -1.39806 0 0 0 0)
(1.51481 -0.227112 0 0.205785 -1.53668 0 0 0 0)
(1.65923 -0.348054 0 0.204546 -1.67215 0 0 0 0)
(1.72511 -0.58005 0 0.0952682 -1.73539 0 0 0 0)
(1.64262 -0.925063 0 -0.0891979 -1.64744 0 0 0 0)
(1.34558 -1.34146 0 -0.26493 -1.33966 0 0 0 0)
(0.829176 -1.73586 0 -0.344212 -0.813376 0 0 0 0)
(0.160868 -2.01896 0 -0.278921 -0.14789 0 0 0 0)
(-0.557451 -2.15372 0 -0.0934148 0.571246 0 0 0 0)
(-1.24075 -2.18392 0 0.166118 1.23577 0 0 0 0)
(-1.79914 -2.20685 0 0.436894 1.79217 0 0 0 0)
(-2.28456 -2.24479 0 0.689948 2.19994 0 0 0 0)
(-2.56702 -3.18998 0 0.627992 2.48315 0 0 0 0)
(-2.38684 -7.41355 0 1.36087 2.16049 0 0 0 0)
(-3.25273 -20.4766 0 1.34693 3.08754 0 0 0 0)
(0.0661917 37.1987 0 0.466912 -0.874683 0 0 0 0)
(0.218558 6.98177 0 -0.431612 0.765726 0 0 0 0)
(0.846942 1.32871 0 -0.644602 0.0163006 0 0 0 0)
(1.22204 0.289397 0 -0.507129 -0.554057 0 0 0 0)
(1.3793 -0.0680168 0 -0.341983 -0.960051 0 0 0 0)
(1.49537 -0.217375 0 -0.167054 -1.22019 0 0 0 0)
(1.59865 -0.299427 0 -0.00369874 -1.39245 0 0 0 0)
(1.65986 -0.385987 0 0.109342 -1.49594 0 0 0 0)
(1.64383 -0.526068 0 0.153411 -1.51182 0 0 0 0)
(1.5191 -0.729191 0 0.1435 -1.41154 0 0 0 0)
(1.25325 -0.973145 0 0.120994 -1.16312 0 0 0 0)
(0.844865 -1.21645 0 0.154549 -0.753771 0 0 0 0)
(0.300393 -1.39467 0 0.270874 -0.206435 0 0 0 0)
(-0.339616 -1.50353 0 0.495177 0.411109 0 0 0 0)
(-0.99553 -1.58794 0 0.802476 1.04117 0 0 0 0)
(-1.54064 -1.70871 0 1.11329 1.64128 0 0 0 0)
(-2.1885 -1.87994 0 1.48194 2.09406 0 0 0 0)
(-2.01061 -3.30011 0 1.44614 2.28463 0 0 0 0)
(-1.94352 -7.11502 0 3.10169 1.81758 0 0 0 0)
(-3.83862 -22.0022 0 1.20788 3.33901 0 0 0 0)
(-1.12513 36.3079 0 1.71123 -0.75093 0 0 0 0)
(-0.433929 9.20047 0 -0.664026 -1.57637 0 0 0 0)
(0.821289 0.106626 0 -1.25584 -3.06579 0 0 0 0)
(1.36178 -0.731573 0 -0.639855 -3.05753 0 0 0 0)
(1.53609 -0.740971 0 0.0357111 -2.68776 0 0 0 0)
(1.68893 -0.599846 0 0.620972 -2.48286 0 0 0 0)
(1.79121 -0.502855 0 1.13258 -2.36076 0 0 0 0)
(1.81634 -0.467428 0 1.53693 -2.24334 0 0 0 0)
(1.75927 -0.495658 0 1.84538 -2.08605 0 0 0 0)
(1.6102 -0.576363 0 2.09271 -1.86336 0 0 0 0)
(1.35663 -0.683685 0 2.32248 -1.55382 0 0 0 0)
(0.979056 -0.77917 0 2.59119 -1.14731 0 0 0 0)
(0.501495 -0.854084 0 2.93429 -0.648134 0 0 0 0)
(-0.0258491 -0.906119 0 3.40695 -0.10462 0 0 0 0)
(-0.622633 -0.953754 0 4.04368 0.462674 0 0 0 0)
(-1.11968 -1.15396 0 4.75473 1.04315 0 0 0 0)
(-1.95171 -1.60144 0 5.65096 1.54384 0 0 0 0)
(-0.94727 -3.46646 0 5.89312 2.00962 0 0 0 0)
(-2.62509 -6.35916 0 7.64903 2.59418 0 0 0 0)
(-4.64319 -23.0451 0 1.11855 5.28071 0 0 0 0)
(-2.85292 34.6106 0 7.95473 4.06857 0 0 0 0)
(-1.70131 2.33961 0 4.3367 4.93315 0 0 0 0)
(0.871114 -0.15245 0 6.15683 2.11702 0 0 0 0)
(2.5136 0.667424 0 8.09955 -0.168085 0 0 0 0)
(2.64013 0.506651 0 9.63551 -1.21375 0 0 0 0)
(2.59224 0.109631 0 10.6354 -1.63298 0 0 0 0)
(2.51461 -0.0599131 0 11.3253 -1.79785 0 0 0 0)
(2.37266 -0.111277 0 11.8701 -1.84688 0 0 0 0)
(2.19961 -0.146087 0 12.3334 -1.81473 0 0 0 0)
(1.9962 -0.196961 0 12.7501 -1.70441 0 0 0 0)
(1.75173 -0.257094 0 13.1669 -1.51111 0 0 0 0)
(1.45668 -0.310763 0 13.6303 -1.24261 0 0 0 0)
(1.11615 -0.351981 0 14.2016 -0.922443 0 0 0 0)
(0.769772 -0.392721 0 14.8936 -0.559921 0 0 0 0)
(0.352254 -0.44017 0 15.7326 -0.179994 0 0 0 0)
(0.0666412 -0.627544 0 16.6725 0.220144 0 0 0 0)
(-1.05011 -0.913477 0 17.8095 0.754109 0 0 0 0)
(-0.0125388 -2.24977 0 18.3912 1.54942 0 0 0 0)
(-6.71809 -3.84392 0 20.0783 3.55979 0 0 0 0)
(-3.53292 -20.5278 0 10.4218 8.03358 0 0 0 0)
(-10.1984 26.9586 0 37.3112 17.0726 0 0 0 0)
(10.0596 16.2506 0 196.671 -10.706 0 0 0 0)
(4.58414 -4.99461 0 194.971 -7.88424 0 0 0 0)
(4.84047 -4.06235 0 191.215 -5.55895 0 0 0 0)
(4.07193 -2.20586 0 187.617 -4.48932 0 0 0 0)
(3.37872 -1.18394 0 184.503 -3.85974 0 0 0 0)
(3.02592 -0.716762 0 181.646 -3.41501 0 0 0 0)
(2.82444 -0.48431 0 178.963 -3.08307 0 0 0 0)
(2.63928 -0.353189 0 176.449 -2.81942 0 0 0 0)
(2.4437 -0.272746 0 174.124 -2.58379 0 0 0 0)
(2.23684 -0.221886 0 172.009 -2.34972 0 0 0 0)
(2.01379 -0.190499 0 170.135 -2.10481 0 0 0 0)
(1.7648 -0.171391 0 168.539 -1.84845 0 0 0 0)
(1.50509 -0.16367 0 167.254 -1.58144 0 0 0 0)
(1.15625 -0.17369 0 166.264 -1.29206 0 0 0 0)
(0.957286 -0.219855 0 165.746 -0.967581 0 0 0 0)
(-0.233019 -0.272162 0 165.24 -0.444663 0 0 0 0)
(1.32152 -0.66078 0 167.029 0.218058 0 0 0 0)
(-10.5945 0.124996 0 163.931 2.46589 0 0 0 0)
(12.5897 -9.5323 0 184.341 3.93699 0 0 0 0)
(-50.5859 9.50436 0 154.874 32.526 0 0 0 0)
)
;

boundaryField
{
    movingWall
    {
        type            extrapolatedCalculated;
        value           nonuniform List<tensor> 
20
(
(10.0596 16.2506 0 383.893 -37.2767 0 0 0 0)
(4.58414 -4.99461 0 375.869 -27.7259 0 0 0 0)
(4.84047 -4.06235 0 365.556 -17.2982 0 0 0 0)
(4.07193 -2.20586 0 356.507 -11.4765 0 0 0 0)
(3.37872 -1.18394 0 349.268 -8.4748 0 0 0 0)
(3.02592 -0.716762 0 342.992 -6.74073 0 0 0 0)
(2.82444 -0.48431 0 337.165 -5.60775 0 0 0 0)
(2.63928 -0.353189 0 331.695 -4.8035 0 0 0 0)
(2.4437 -0.272746 0 326.608 -4.195 0 0 0 0)
(2.23684 -0.221886 0 321.92 -3.71251 0 0 0 0)
(2.01379 -0.190499 0 317.66 -3.30745 0 0 0 0)
(1.7648 -0.171391 0 313.865 -2.95052 0 0 0 0)
(1.50509 -0.16367 0 310.601 -2.62189 0 0 0 0)
(1.15625 -0.17369 0 307.844 -2.29583 0 0 0 0)
(0.957286 -0.219855 0 305.976 -1.92713 0 0 0 0)
(-0.233019 -0.272162 0 304.015 -1.41641 0 0 0 0)
(1.32152 -0.66078 0 306.908 -0.838483 0 0 0 0)
(-10.5945 0.124996 0 298.729 1.22671 0 0 0 0)
(12.5897 -9.5323 0 349.286 -1.33847 0 0 0 0)
(-50.5859 9.50436 0 248.37 39.3559 0 0 0 0)
)
;
    }
    fixedWalls
    {
        type            extrapolatedCalculated;
        value           nonuniform List<tensor> 
60
(
(-0.0272177 -0.025032 0 -0.13898 0.203261 0 0 0 0)
(-0.528704 0.838078 0 -0.26997 0.724104 0 0 0 0)
(-1.1071 2.87138 0 -0.242414 1.17715 0 0 0 0)
(-1.49836 5.54668 0 -0.138792 1.43083 0 0 0 0)
(-1.66227 8.5947 0 -0.0247945 1.53882 0 0 0 0)
(-1.59754 11.702 0 0.0768916 1.49421 0 0 0 0)
(-1.3547 14.5715 0 0.149628 1.31303 0 0 0 0)
(-0.999027 16.9541 0 0.191672 1.02691 0 0 0 0)
(-0.588013 18.6792 0 0.20712 0.678704 0 0 0 0)
(-0.170546 19.6689 0 0.202166 0.307312 0 0 0 0)
(0.220651 19.9084 0 0.176126 -0.0479987 0 0 0 0)
(0.533957 19.4769 0 0.131983 -0.35584 0 0 0 0)
(0.748581 18.4851 0 0.0757566 -0.582017 0 0 0 0)
(0.836983 17.1489 0 0.00905625 -0.739656 0 0 0 0)
(0.784806 15.5264 0 -0.0874815 -0.66692 0 0 0 0)
(0.487057 14.4812 0 -0.229562 -0.918401 0 0 0 0)
(-0.133443 11.8528 0 -0.431612 0.765726 0 0 0 0)
(-1.23939 17.5441 0 -0.664026 -1.57637 0 0 0 0)
(-2.78955 5.54737 0 4.3367 4.93315 0 0 0 0)
(16.1074 37.2767 0 196.671 -10.706 0 0 0 0)
(-0.933037 -0.579398 0 0.425064 0.433258 0 0 0 0)
(-0.76722 -1.15363 0 -0.263546 -0.520717 0 0 0 0)
(0.121148 1.50347 0 -1.01723 -2.30014 0 0 0 0)
(3.30171 8.04692 0 -2.33153 -5.53805 0 0 0 0)
(9.44726 23.6557 0 -2.18076 -8.79251 0 0 0 0)
(12.0247 43.217 0 -0.479257 -9.65706 0 0 0 0)
(11.3643 62.2839 0 0.783043 -8.47814 0 0 0 0)
(8.89256 77.1295 0 1.2536 -6.12114 0 0 0 0)
(6.34989 86.7685 0 1.01681 -3.93291 0 0 0 0)
(4.82531 92.8611 0 0.552797 -2.47429 0 0 0 0)
(4.13871 96.6656 0 0.205376 -1.58446 0 0 0 0)
(4.00381 99.199 0 -0.015213 -1.10736 0 0 0 0)
(4.19956 101.095 0 -0.141622 -0.836747 0 0 0 0)
(4.5703 102.546 0 -0.153343 -0.6071 0 0 0 0)
(4.81293 103.523 0 0.0275765 -0.524184 0 0 0 0)
(4.45999 104.643 0 0.466912 -0.874683 0 0 0 0)
(2.94528 107.022 0 1.71123 -0.75093 0 0 0 0)
(-2.38493 107.646 0 7.95473 4.06857 0 0 0 0)
(-28.8736 90.7479 0 37.3112 17.0726 0 0 0 0)
(-151.63 39.3559 0 154.874 32.526 0 0 0 0)
(-0.19332 0.0648292 0 -0.0272177 -0.025032 0 0 0 0)
(-0.548888 0.13008 0 -0.746063 0.284349 0 0 0 0)
(-0.805769 0.0944357 0 -2.22277 0.495288 0 0 0 0)
(-0.950479 0.105565 0 -3.96914 0.662091 0 0 0 0)
(-1.15162 0.153705 0 -6.02469 0.91755 0 0 0 0)
(-1.45355 0.198446 0 -8.57563 1.27691 0 0 0 0)
(-1.86499 0.236535 0 -11.8389 1.71133 0 0 0 0)
(-2.32004 0.238859 0 -16.0356 2.22305 0 0 0 0)
(-2.63016 0.129711 0 -21.119 2.66677 0 0 0 0)
(-2.58609 -0.105426 0 -26.5562 2.7419 0 0 0 0)
(-2.04868 -0.384426 0 -31.4634 2.24507 0 0 0 0)
(-1.0407 -0.590389 0 -34.751 1.20419 0 0 0 0)
(0.292919 -0.669731 0 -35.6262 -0.116487 0 0 0 0)
(1.76181 -0.675332 0 -33.5793 -1.47473 0 0 0 0)
(3.07467 -0.580311 0 -28.579 -2.81782 0 0 0 0)
(3.93959 -0.269307 0 -21.2806 -3.79597 0 0 0 0)
(4.19838 0.297334 0 -12.8206 -3.89504 0 0 0 0)
(3.33038 0.795363 0 -4.48711 -2.60664 0 0 0 0)
(1.35504 0.796509 0 0.500879 -0.713593 0 0 0 0)
(-0.358479 0.0335488 0 0.933037 0.579398 0 0 0 0)
)
;
    }
    frontAndBack
    {
        type            empty;
    }
}


// ************************************************************************* //
