/*--------------------------------*- C++ -*----------------------------------*\
| =========                 |                                                 |
| \\      /  F ield         | OpenFOAM: The Open Source CFD Toolbox           |
|  \\    /   O peration     | Version:  2312                                  |
|   \\  /    A nd           | Website:  www.openfoam.com                      |
|    \\/     M anipulation  |                                                 |
\*---------------------------------------------------------------------------*/
FoamFile
{
    version     2.0;
    format      ascii;
    arch        "LSB;label=32;scalar=64";
    class       volScalarField;
    location    "2.25";
    object      magSqrU;
}
// * * * * * * * * * * * * * * * * * * * * * * * * * * * * * * * * * * * * * //

dimensions      [0 2 -2 0 0 0 0];

internalField   nonuniform List<scalar> 
400
(
8.54626e-09
3.98415e-06
3.24126e-05
0.000101203
0.000232117
0.000469824
0.000894301
0.00163802
0.00283204
0.0044547
0.00621866
0.00755675
0.00793276
0.0070609
0.00515436
0.00292047
0.00112213
0.000168304
4.75059e-06
7.53912e-06
6.13689e-06
6.67753e-05
0.000220213
0.000497371
0.000933951
0.00160575
0.00269855
0.00443302
0.00684906
0.00969359
0.0124276
0.0144159
0.0151154
0.0143394
0.0120017
0.00865306
0.00501382
0.0018682
0.000186186
1.19969e-05
5.91907e-05
0.000247123
0.000548809
0.00102177
0.00175339
0.00294446
0.00489878
0.00775313
0.0113702
0.0152141
0.0184878
0.0205432
0.0211851
0.0207943
0.0197357
0.0174708
0.0135156
0.00776364
0.00203382
1.42194e-05
0.000206317
0.00056308
0.00101639
0.00166182
0.00267486
0.00438445
0.00710865
0.0108554
0.0149684
0.0183433
0.0202462
0.0208054
0.0208083
0.0206493
0.0209614
0.0217408
0.0216038
0.0177107
0.00856402
0.000472838
0.00047895
0.00101871
0.00159537
0.00237489
0.0036245
0.00577623
0.00908488
0.0130606
0.0163632
0.0177249
0.0170573
0.0154401
0.0139961
0.0137153
0.014689
0.0175171
0.0218963
0.0247783
0.0191393
0.00405526
0.000871801
0.00158312
0.00224284
0.00311949
0.00455133
0.0070064
0.0104808
0.0138514
0.0154067
0.0142841
0.0115644
0.00910858
0.00792583
0.00787441
0.00889076
0.0113937
0.0165707
0.0247197
0.0289061
0.0125769
0.00133853
0.00219894
0.00290124
0.00383116
0.00535454
0.00790251
0.0111447
0.0134784
0.0132213
0.0103691
0.00701097
0.00495834
0.00442789
0.00500745
0.00635662
0.00845816
0.0123863
0.0208418
0.0331247
0.0250527
0.00180275
0.00279337
0.00350081
0.00442399
0.00592279
0.00835543
0.0112028
0.0125361
0.0110907
0.00738773
0.00395495
0.00223529
0.00217192
0.00339793
0.005374
0.00768091
0.0108975
0.0178086
0.0330951
0.0376753
0.00218286
0.00328702
0.00396831
0.00482639
0.00620107
0.00838801
0.0107901
0.0115705
0.00972066
0.00577819
0.00228761
0.000573414
0.000720861
0.00242637
0.00488869
0.00740349
0.010405
0.0161786
0.0320681
0.0473068
0.0024181
0.00361791
0.00425821
0.00500607
0.00617663
0.00801207
0.0100867
0.0107865
0.00917716
0.00555136
0.0020845
0.000241075
0.000338278
0.00215076
0.00466418
0.00709819
0.00983643
0.0149836
0.0305208
0.0540405
0.00247746
0.00375562
0.00434786
0.00496501
0.00589105
0.00733726
0.00909764
0.00996029
0.00904802
0.00635711
0.00330877
0.00142741
0.00125511
0.00263639
0.00461959
0.0066129
0.0089268
0.0134058
0.0285685
0.0585086
0.00237272
0.00370189
0.00425046
0.00473716
0.00542044
0.00647716
0.00786155
0.00884834
0.00870071
0.00724661
0.00514561
0.00351598
0.00300264
0.00352986
0.00457709
0.00589262
0.00767569
0.0114636
0.026017
0.0616029
0.00213911
0.00348286
0.00399807
0.00436839
0.00484469
0.00556664
0.00656314
0.00750033
0.00786115
0.00740957
0.00633389
0.00518127
0.00444662
0.00420201
0.00436519
0.00498882
0.00620202
0.00927899
0.0230427
0.0639865
0.0018424
0.00314509
0.00362383
0.003903
0.00422557
0.00470716
0.00538979
0.00615372
0.00672409
0.0068416
0.00646633
0.00576543
0.0050196
0.0043824
0.00399997
0.0040569
0.00471767
0.00706308
0.0197083
0.0658535
0.00151054
0.00271555
0.00314792
0.00336334
0.00359119
0.00393033
0.00441887
0.005015
0.00559813
0.00597493
0.00599494
0.00565193
0.00503717
0.00430479
0.00363959
0.00329086
0.0034304
0.00508343
0.0160031
0.0671267
0.00131213
0.00232932
0.00265067
0.00279265
0.00296238
0.00323571
0.00364211
0.00415616
0.00470963
0.0051817
0.00542118
0.00533465
0.00491017
0.00423832
0.00346241
0.00283551
0.00249401
0.00368782
0.0122937
0.0685624
0.000878174
0.00162123
0.00190825
0.00207311
0.00226501
0.00255498
0.00297772
0.00351535
0.00410923
0.00466546
0.00506194
0.00519983
0.00499083
0.0044335
0.00362324
0.00282539
0.00204182
0.0032219
0.00947117
0.0716402
0.00193332
0.00231943
0.00204454
0.00182018
0.00182674
0.00206967
0.00252907
0.00315896
0.00389175
0.00463126
0.00526496
0.00565173
0.0057071
0.00539515
0.00467651
0.00384351
0.00256269
0.00424011
0.00643667
0.072459
0.000240968
0.000191563
0.000155391
0.000490415
0.0010949
0.0019818
0.00312187
0.00445399
0.00590282
0.0073775
0.00877479
0.00997883
0.0108933
0.0114946
0.011576
0.0115869
0.00942359
0.0120253
0.0027127
0.0566805
0.0103062
0.00844393
0.00928509
0.0126459
0.0165345
0.0205957
0.0248733
0.0293045
0.0337753
0.0381895
0.0424425
0.0464251
0.0499942
0.0531123
0.0552765
0.0575945
0.0541676
0.0641083
0.0160857
0.153378
)
;

boundaryField
{
    movingWall
    {
        type            calculated;
        value           uniform 1;
    }
    fixedWalls
    {
        type            calculated;
        value           uniform 0;
    }
    frontAndBack
    {
        type            empty;
    }
}


// ************************************************************************* //
