/*--------------------------------*- C++ -*----------------------------------*\
| =========                 |                                                 |
| \\      /  F ield         | OpenFOAM: The Open Source CFD Toolbox           |
|  \\    /   O peration     | Version:  2312                                  |
|   \\  /    A nd           | Website:  www.openfoam.com                      |
|    \\/     M anipulation  |                                                 |
\*---------------------------------------------------------------------------*/
FoamFile
{
    version     2.0;
    format      ascii;
    arch        "LSB;label=32;scalar=64";
    class       volScalarField;
    location    "2.25";
    object      magU;
}
// * * * * * * * * * * * * * * * * * * * * * * * * * * * * * * * * * * * * * //

dimensions      [0 1 -1 0 0 0 0];

internalField   nonuniform List<scalar> 
400
(
9.2446e-05
0.00199603
0.00569321
0.01006
0.0152354
0.0216754
0.0299049
0.0404724
0.0532169
0.0667435
0.0788585
0.0869296
0.089066
0.0840292
0.0717939
0.0540413
0.0334981
0.0129732
0.00217958
0.00274575
0.00247727
0.00817161
0.0148396
0.0223018
0.0305606
0.0400718
0.0519475
0.0665809
0.082759
0.098456
0.111479
0.120066
0.122945
0.119747
0.109552
0.0930218
0.0708083
0.0432227
0.013645
0.00346365
0.00769355
0.0157201
0.0234267
0.0319651
0.0418735
0.0542629
0.0699913
0.0880519
0.106631
0.123346
0.13597
0.143329
0.145551
0.144202
0.140484
0.132177
0.116257
0.0881115
0.0450979
0.00377086
0.0143637
0.0237293
0.0318809
0.0407654
0.0517191
0.0662152
0.0843128
0.104189
0.122345
0.135437
0.142289
0.144241
0.144251
0.143699
0.144781
0.147448
0.146982
0.133081
0.092542
0.0217448
0.0218849
0.0319172
0.0399421
0.0487328
0.0602038
0.0760015
0.0953147
0.114283
0.127919
0.133135
0.130604
0.124258
0.118305
0.117112
0.121198
0.132352
0.147974
0.157411
0.138345
0.063681
0.0295263
0.0397884
0.0473586
0.0558524
0.0674635
0.0837042
0.102376
0.117692
0.124124
0.119516
0.107538
0.0954389
0.0890271
0.0887379
0.0942908
0.106741
0.128727
0.157225
0.170018
0.112147
0.036586
0.0468929
0.0538632
0.0618963
0.0731747
0.0888961
0.105568
0.116097
0.114984
0.101829
0.0837316
0.0704155
0.0665424
0.0707633
0.0797284
0.0919683
0.111294
0.144367
0.182002
0.15828
0.0424588
0.0528524
0.0591677
0.0665131
0.0769596
0.0914081
0.105843
0.111965
0.105312
0.0859519
0.0628884
0.0472789
0.0466038
0.0582917
0.0733075
0.0876408
0.104391
0.133449
0.181921
0.194101
0.0467211
0.0573325
0.0629945
0.0694722
0.0787469
0.0915861
0.103875
0.107566
0.0985934
0.0760144
0.0478289
0.0239461
0.0268489
0.0492582
0.0699192
0.0860436
0.102005
0.127195
0.179076
0.217501
0.0491741
0.0601491
0.065255
0.0707536
0.0785916
0.0895102
0.100433
0.103858
0.0957975
0.0745075
0.0456563
0.0155266
0.0183923
0.0463762
0.0682948
0.0842508
0.0991788
0.122408
0.174702
0.232466
0.0497741
0.0612831
0.0659383
0.0704628
0.0767532
0.0856578
0.0953816
0.0998012
0.0951211
0.0797315
0.0575219
0.0377811
0.0354275
0.0513458
0.0679675
0.0813197
0.0944817
0.115784
0.169022
0.241885
0.0487106
0.0608432
0.0651955
0.068827
0.0736236
0.0804808
0.0886654
0.0940656
0.0932776
0.085127
0.0717329
0.0592957
0.0547963
0.0594127
0.0676542
0.0767634
0.087611
0.107068
0.161298
0.248199
0.0462506
0.0590157
0.0632303
0.0660938
0.0696038
0.0746099
0.0810132
0.0866045
0.0886631
0.0860788
0.0795857
0.071981
0.066683
0.0648229
0.0660696
0.0706316
0.0787529
0.0963275
0.151798
0.252956
0.0429232
0.0560811
0.0601983
0.062474
0.0650044
0.0686087
0.0734152
0.0784456
0.0820005
0.082714
0.0804135
0.0759305
0.0708492
0.0661997
0.0632453
0.0636938
0.0686853
0.0840421
0.140386
0.256619
0.0388657
0.0521109
0.0561064
0.0579943
0.0599265
0.0626923
0.0664746
0.0708166
0.0748206
0.0772977
0.077427
0.0751793
0.070973
0.0656109
0.060329
0.0573661
0.0585696
0.0712982
0.126503
0.259088
0.0362234
0.048263
0.0514846
0.0528456
0.0544278
0.0568833
0.0603499
0.0644683
0.0686268
0.071984
0.0736287
0.0730387
0.0700726
0.0651024
0.0588422
0.0532495
0.0499401
0.0607274
0.110877
0.261844
0.029634
0.0402645
0.0436835
0.0455314
0.0475921
0.0505468
0.0545685
0.0592904
0.0641033
0.0683042
0.0711473
0.0721099
0.0706458
0.0665845
0.0601933
0.0531544
0.0451865
0.0567618
0.09732
0.267657
0.0439695
0.0481605
0.0452166
0.0426636
0.0427404
0.0454936
0.0502899
0.0562046
0.0623839
0.0680534
0.07256
0.075178
0.0755453
0.0734517
0.068385
0.0619961
0.050623
0.0651161
0.0802289
0.269182
0.0155231
0.0138406
0.0124656
0.0221453
0.0330893
0.0445174
0.0558737
0.0667382
0.0768298
0.0858924
0.0936738
0.0998941
0.104371
0.107213
0.107592
0.107643
0.0970752
0.10966
0.0520836
0.238077
0.10152
0.0918909
0.0963592
0.112454
0.128587
0.143512
0.157713
0.171185
0.183781
0.195421
0.206016
0.215465
0.223594
0.230461
0.235109
0.239989
0.232739
0.253196
0.126829
0.391635
)
;

boundaryField
{
    movingWall
    {
        type            calculated;
        value           uniform 1;
    }
    fixedWalls
    {
        type            calculated;
        value           uniform 0;
    }
    frontAndBack
    {
        type            empty;
    }
}


// ************************************************************************* //
