/*--------------------------------*- C++ -*----------------------------------*\
| =========                 |                                                 |
| \\      /  F ield         | OpenFOAM: The Open Source CFD Toolbox           |
|  \\    /   O peration     | Version:  2312                                  |
|   \\  /    A nd           | Website:  www.openfoam.com                      |
|    \\/     M anipulation  |                                                 |
\*---------------------------------------------------------------------------*/
FoamFile
{
    version     2.0;
    format      ascii;
    arch        "LSB;label=32;scalar=64";
    class       volScalarField;
    location    "2.25";
    object      totalP;
}
// * * * * * * * * * * * * * * * * * * * * * * * * * * * * * * * * * * * * * //

dimensions      [1 -1 -2 0 0 0 0];

internalField   nonuniform List<scalar> 
400
(
1
1
1.00002
1.00005
1.00012
1.00023
1.00045
1.00082
1.00142
1.00223
1.00311
1.00378
1.00397
1.0042
1.00473
1.00499
1.00494
1.00473
1.00455
1.00443
1.00004
1.00004
1.00011
1.00025
1.00047
1.0008
1.00135
1.00222
1.00342
1.00485
1.00621
1.00721
1.00756
1.00717
1.00738
1.00722
1.00649
1.00537
1.00457
1.00436
1.00007
1.00012
1.00027
1.00051
1.00088
1.00147
1.00245
1.00388
1.00569
1.00761
1.00924
1.01027
1.01059
1.0104
1.00987
1.00985
1.00957
1.00786
1.00538
1.00419
1.0001
1.00028
1.00051
1.00083
1.00134
1.00219
1.00355
1.00543
1.00748
1.00917
1.01012
1.0104
1.0104
1.01032
1.01048
1.01087
1.01093
1.01137
1.00826
1.00433
1.00024
1.00051
1.0008
1.00119
1.00181
1.00289
1.00454
1.00653
1.00818
1.00886
1.00853
1.00772
1.007
1.00686
1.00734
1.00876
1.01095
1.01239
1.01238
1.00569
1.00044
1.00079
1.00112
1.00156
1.00228
1.0035
1.00524
1.00693
1.0077
1.00714
1.00578
1.00455
1.00396
1.00394
1.00445
1.0057
1.00829
1.01236
1.01465
1.0086
1.00067
1.0011
1.00145
1.00192
1.00268
1.00395
1.00557
1.00674
1.00661
1.00518
1.00351
1.00248
1.00221
1.0025
1.00318
1.00423
1.00619
1.01042
1.01656
1.01253
1.0009
1.0014
1.00175
1.00221
1.00296
1.00418
1.0056
1.00627
1.00555
1.00369
1.00198
1.00112
1.00109
1.0017
1.00269
1.00384
1.00545
1.0089
1.01655
1.01884
1.00109
1.00164
1.00198
1.00241
1.0031
1.00419
1.0054
1.00579
1.00486
1.00289
1.00114
1.00029
1.00036
1.00121
1.00244
1.0037
1.0052
1.00809
1.01603
1.02365
1.00121
1.00181
1.00213
1.0025
1.00309
1.00401
1.00504
1.00539
1.00459
1.00278
1.00104
1.00012
1.00017
1.00108
1.00233
1.00355
1.00492
1.00749
1.01526
1.02702
1.00124
1.00188
1.00217
1.00248
1.00295
1.00367
1.00455
1.00498
1.00452
1.00318
1.00165
1.00071
1.00063
1.00132
1.00231
1.00331
1.00446
1.0067
1.01428
1.02925
1.00119
1.00185
1.00213
1.00237
1.00271
1.00324
1.00393
1.00442
1.00435
1.00362
1.00257
1.00176
1.0015
1.00176
1.00229
1.00295
1.00384
1.00573
1.01301
1.0308
1.00107
1.00174
1.002
1.00218
1.00242
1.00278
1.00328
1.00375
1.00393
1.0037
1.00317
1.00259
1.00222
1.0021
1.00218
1.00249
1.0031
1.00464
1.01152
1.03199
1.00092
1.00157
1.00181
1.00195
1.00211
1.00235
1.00269
1.00308
1.00336
1.00342
1.00323
1.00288
1.00251
1.00219
1.002
1.00203
1.00236
1.00353
1.00985
1.03293
1.00076
1.00136
1.00157
1.00168
1.0018
1.00197
1.00221
1.00251
1.0028
1.00299
1.003
1.00283
1.00252
1.00215
1.00182
1.00165
1.00172
1.00254
1.008
1.03356
1.00066
1.00116
1.00133
1.0014
1.00148
1.00162
1.00182
1.00208
1.00235
1.00259
1.00271
1.00267
1.00246
1.00212
1.00173
1.00142
1.00125
1.00184
1.00615
1.03428
1.00044
1.00081
1.00095
1.00104
1.00113
1.00128
1.00149
1.00176
1.00205
1.00233
1.00253
1.0026
1.0025
1.00222
1.00181
1.00141
1.00102
1.00161
1.00474
1.03582
1.00097
1.00116
1.00102
1.00091
1.00091
1.00103
1.00126
1.00158
1.00195
1.00232
1.00263
1.00283
1.00285
1.0027
1.00234
1.00192
1.00128
1.00212
1.00322
1.03623
1.00012
1.0001
1.00008
1.00025
1.00055
1.00099
1.00156
1.00223
1.00295
1.00369
1.00439
1.00499
1.00545
1.00575
1.00579
1.00579
1.00471
1.00691
1.00381
1.0437
1.00515
1.00558
1.00536
1.00632
1.00827
1.0103
1.01244
1.01465
1.01689
1.01909
1.02122
1.02321
1.025
1.02656
1.02764
1.0288
1.02708
1.03559
1.0134
1.13514
)
;

boundaryField
{
    movingWall
    {
        type            calculated;
        value           nonuniform List<scalar> 
20
(
1.5
1.50136
1.50072
1.5
1.5
1.5
1.5
1.5
1.5
1.5
1.5
1.5
1.5
1.5
1.5
1.5
1.5
1.50354
1.50535
1.55845
)
;
    }
    fixedWalls
    {
        type            calculated;
        value           nonuniform List<scalar> 
60
(
1
1.00003
1.00004
1
1
1
1
1
1
1
1
1
1
1
1
1
1
1
1
1
1.00443
1.00436
1.00418
1.00409
1.00366
1.00231
1
1
1
1
1
1
1
1
1
1
1
1
1.01536
1.05845
1
1
1
1
1
1
1
1
1
1
1
1
1
1.00067
1.00215
1.00353
1.00438
1.00465
1.00455
1.00443
)
;
    }
    frontAndBack
    {
        type            empty;
    }
}


// ************************************************************************* //
