/*--------------------------------*- C++ -*----------------------------------*\
| =========                 |                                                 |
| \\      /  F ield         | OpenFOAM: The Open Source CFD Toolbox           |
|  \\    /   O peration     | Version:  2312                                  |
|   \\  /    A nd           | Website:  www.openfoam.com                      |
|    \\/     M anipulation  |                                                 |
\*---------------------------------------------------------------------------*/
FoamFile
{
    version     2.0;
    format      ascii;
    arch        "LSB;label=32;scalar=64";
    class       volVectorField;
    location    "2.25";
    object      U;
}
// * * * * * * * * * * * * * * * * * * * * * * * * * * * * * * * * * * * * * //

dimensions      [0 1 -1 0 0 0 0];

internalField   nonuniform List<vector> 
400
(
(-6.80441e-05 -6.258e-05 0)
(-0.00186516 0.000710872 0)
(-0.00555693 0.00123822 0)
(-0.00992285 0.00165523 0)
(-0.0150617 0.00229387 0)
(-0.0214391 0.00319228 0)
(-0.0295972 0.00427834 0)
(-0.040089 0.00555763 0)
(-0.0527976 0.00666693 0)
(-0.0663906 0.00685475 0)
(-0.0786585 0.00561267 0)
(-0.0868775 0.00301049 0)
(-0.0890655 -0.000291217 0)
(-0.0839483 -0.00368682 0)
(-0.0714474 -0.00704454 0)
(-0.0532016 -0.00948993 0)
(-0.0320516 -0.00973761 0)
(-0.0112178 -0.00651659 0)
(0.0012522 -0.00178398 0)
(0.00233259 0.00144849 0)
(-0.00132176 0.00209519 0)
(-0.00605754 0.00548466 0)
(-0.0129481 0.00724986 0)
(-0.0207143 0.00826367 0)
(-0.0289992 0.00964341 0)
(-0.038292 0.0118099 0)
(-0.0497472 0.0149586 0)
(-0.0640023 0.0183501 0)
(-0.0802038 0.0204061 0)
(-0.096426 0.0198899 0)
(-0.110311 0.0160955 0)
(-0.119731 0.00896463 0)
(-0.122942 -0.00072464 0)
(-0.119179 -0.0116513 0)
(-0.107286 -0.022168 0)
(-0.0880378 -0.03004 0)
(-0.0629055 -0.0325071 0)
(-0.0343851 -0.026189 0)
(-0.00740018 -0.011464 0)
(0.00191805 0.00288408 0)
(-0.00276775 0.00717846 0)
(-0.00927897 0.0126895 0)
(-0.0174547 0.015625 0)
(-0.0268167 0.0173964 0)
(-0.0369438 0.0197116 0)
(-0.0487256 0.0238804 0)
(-0.0633661 0.0297241 0)
(-0.0806611 0.0353117 0)
(-0.0995819 0.0381273 0)
(-0.117998 0.0359244 0)
(-0.133057 0.0279954 0)
(-0.142529 0.0151217 0)
(-0.145546 -0.00125152 0)
(-0.142854 -0.0196731 0)
(-0.135083 -0.0385762 0)
(-0.120142 -0.0551069 0)
(-0.0966558 -0.0646007 0)
(-0.0645037 -0.0600242 0)
(-0.02715 -0.0360096 0)
(-0.00030287 -0.00375867 0)
(-0.0037459 0.0138667 0)
(-0.0113939 0.0208149 0)
(-0.0201307 0.0247214 0)
(-0.0300356 0.0275623 0)
(-0.0410278 0.0314894 0)
(-0.0541169 0.0381551 0)
(-0.0702162 0.0466726 0)
(-0.0890211 0.0541352 0)
(-0.108361 0.0568011 0)
(-0.125083 0.0519375 0)
(-0.13674 0.0393514 0)
(-0.142732 0.0208103 0)
(-0.144247 -0.00110129 0)
(-0.141594 -0.0245015 0)
(-0.136455 -0.0483878 0)
(-0.128566 -0.0721907 0)
(-0.114611 -0.0920217 0)
(-0.0893666 -0.0986118 0)
(-0.051481 -0.0769008 0)
(-0.00825427 -0.0201173 0)
(-0.00415567 0.0214867 0)
(-0.0122258 0.0294828 0)
(-0.0208555 0.0340649 0)
(-0.0305305 0.0379838 0)
(-0.0414175 0.0436932 0)
(-0.0545772 0.052892 0)
(-0.0706302 0.064002 0)
(-0.0883848 0.0724483 0)
(-0.104941 0.0731482 0)
(-0.116926 0.0636644 0)
(-0.122499 0.0452924 0)
(-0.122267 0.0221547 0)
(-0.118283 -0.00229657 0)
(-0.114103 -0.0263769 0)
(-0.110205 -0.0504367 0)
(-0.108187 -0.0762415 0)
(-0.105279 -0.103984 0)
(-0.0937746 -0.12643 0)
(-0.0656106 -0.121797 0)
(-0.0236182 -0.0591392 0)
(-0.00399384 0.0292549 0)
(-0.0117823 0.0380039 0)
(-0.0197413 0.0430479 0)
(-0.0285575 0.0479996 0)
(-0.0384533 0.0554316 0)
(-0.0502877 0.0669145 0)
(-0.0642461 0.0797069 0)
(-0.0786964 0.0875116 0)
(-0.0906315 0.0848095 0)
(-0.0970358 0.0697719 0)
(-0.097278 0.0458415 0)
(-0.0935487 0.0189004 0)
(-0.0887649 -0.00682767 0)
(-0.0834109 -0.0302827 0)
(-0.0784983 -0.0522376 0)
(-0.0760648 -0.0748855 0)
(-0.0774993 -0.102784 0)
(-0.0776882 -0.13669 0)
(-0.063807 -0.15759 0)
(-0.0300618 -0.108042 0)
(-0.00338675 0.0364289 0)
(-0.0102888 0.0457502 0)
(-0.0171182 0.0510706 0)
(-0.0245139 0.0568351 0)
(-0.0325712 0.065526 0)
(-0.0417598 0.078477 0)
(-0.0521241 0.0918027 0)
(-0.0621987 0.0980292 0)
(-0.0695414 0.0915711 0)
(-0.0723586 0.071647 0)
(-0.0713585 0.0438057 0)
(-0.068851 0.0147611 0)
(-0.0654051 -0.0122499 0)
(-0.0604911 -0.0367188 0)
(-0.0547132 -0.0579921 0)
(-0.0500149 -0.0771795 0)
(-0.0492997 -0.0997789 0)
(-0.0531532 -0.134226 0)
(-0.050282 -0.174918 0)
(-0.0284107 -0.15571 0)
(-0.00249757 0.0423853 0)
(-0.00807109 0.0522325 0)
(-0.0134231 0.0576249 0)
(-0.0189502 0.0637564 0)
(-0.0245702 0.0729321 0)
(-0.0302993 0.0862403 0)
(-0.036308 0.0994208 0)
(-0.0413767 0.104039 0)
(-0.0451649 0.0951359 0)
(-0.0462945 0.0724193 0)
(-0.0460753 0.0428021 0)
(-0.0455645 0.0126161 0)
(-0.0437542 -0.0160464 0)
(-0.0400704 -0.0423354 0)
(-0.0353053 -0.0642459 0)
(-0.0310311 -0.0819633 0)
(-0.0288188 -0.100334 0)
(-0.0318177 -0.1296 0)
(-0.0337768 -0.178757 0)
(-0.0222314 -0.192824 0)
(-0.00147003 0.046698 0)
(-0.00541557 0.0570762 0)
(-0.00906696 0.0623386 0)
(-0.0125289 0.0683332 0)
(-0.0155006 0.0772062 0)
(-0.0175191 0.0898949 0)
(-0.0188453 0.102152 0)
(-0.0191296 0.105851 0)
(-0.0195293 0.0966399 0)
(-0.0194207 0.0734917 0)
(-0.0197764 0.0435488 0)
(-0.0204258 0.012498 0)
(-0.0200423 -0.0178653 0)
(-0.0180328 -0.0458388 0)
(-0.0158444 -0.0681003 0)
(-0.0143013 -0.0848467 0)
(-0.0137349 -0.101076 0)
(-0.016753 -0.126087 0)
(-0.020403 -0.17791 0)
(-0.0158747 -0.216921 0)
(-0.000426364 0.0491723 0)
(-0.00260579 0.0600926 0)
(-0.00449632 0.0650999 0)
(-0.00591016 0.0705063 0)
(-0.00637377 0.0783327 0)
(-0.00503634 0.0893684 0)
(-0.00207735 0.100411 0)
(0.002159 0.103836 0)
(0.00552671 0.095638 0)
(0.00764004 0.0741147 0)
(0.00769691 0.0450028 0)
(0.00688108 0.0139185 0)
(0.00611257 -0.0173469 0)
(0.00567521 -0.0460277 0)
(0.00403442 -0.0681755 0)
(0.00166658 -0.0842343 0)
(-0.000960928 -0.0991741 0)
(-0.00593408 -0.122264 0)
(-0.0109654 -0.174357 0)
(-0.0120633 -0.232153 0)
(0.000551627 0.0497711 0)
(8.55742e-05 0.061283 0)
(-0.000142635 0.0659381 0)
(0.000271387 0.0704623 0)
(0.00193668 0.0767287 0)
(0.0058461 0.0854581 0)
(0.012125 0.0946078 0)
(0.0200835 0.0977596 0)
(0.027404 0.0910881 0)
(0.0324962 0.0728087 0)
(0.0343695 0.0461249 0)
(0.0341384 0.0161858 0)
(0.0322651 -0.0146311 0)
(0.0286509 -0.0426088 0)
(0.0227143 -0.0640597 0)
(0.0161223 -0.0797055 0)
(0.00996486 -0.0939548 0)
(0.00220837 -0.115763 0)
(-0.00473094 -0.168956 0)
(-0.0103468 -0.241664 0)
(0.00133489 0.0486923 0)
(0.00240016 0.0607958 0)
(0.00367298 0.065092 0)
(0.00560412 0.0685985 0)
(0.00886747 0.0730877 0)
(0.014372 0.0791871 0)
(0.0226555 0.0857221 0)
(0.0328794 0.0881322 0)
(0.0431962 0.0826728 0)
(0.0513307 0.06791 0)
(0.0557429 0.045148 0)
(0.0564829 0.0180461 0)
(0.0538562 -0.0101069 0)
(0.0474242 -0.0357885 0)
(0.0379179 -0.0560297 0)
(0.027882 -0.0715207 0)
(0.0186379 -0.0856056 0)
(0.00826896 -0.106748 0)
(-0.000745211 -0.161296 0)
(-0.0100095 -0.247997 0)
(0.00187145 0.0462127 0)
(0.00420278 0.0588659 0)
(0.0067361 0.0628705 0)
(0.00985655 0.0653547 0)
(0.0142407 0.0681315 0)
(0.0205475 0.0717247 0)
(0.0294536 0.0754694 0)
(0.0404741 0.0765648 0)
(0.0519519 0.0718481 0)
(0.0616749 0.0600481 0)
(0.0678828 0.0415429 0)
(0.0694908 0.0187695 0)
(0.0664845 -0.00514124 0)
(0.058872 -0.0271311 0)
(0.0478789 -0.0455281 0)
(0.0360873 -0.0607168 0)
(0.0248111 -0.0747424 0)
(0.0124972 -0.0955134 0)
(0.00165002 -0.151789 0)
(-0.0104989 -0.252738 0)
(0.00209246 0.0428721 0)
(0.00536199 0.0558241 0)
(0.00891176 0.059535 0)
(0.0129837 0.0611099 0)
(0.0181426 0.0624213 0)
(0.0248148 0.0639639 0)
(0.0334908 0.0653311 0)
(0.0440301 0.0649235 0)
(0.0551459 0.0606879 0)
(0.0648869 0.0512961 0)
(0.0714596 0.0368762 0)
(0.0735093 0.0190215 0)
(0.0708491 5.25722e-05 0)
(0.0636967 -0.0180316 0)
(0.0531656 -0.0342548 0)
(0.0410729 -0.0486818 0)
(0.0288874 -0.0623153 0)
(0.015249 -0.0826471 0)
(0.00307232 -0.140353 0)
(-0.0114257 -0.256365 0)
(0.00196202 0.0388161 0)
(0.00570555 0.0517976 0)
(0.0100737 0.0551946 0)
(0.014978 0.0560268 0)
(0.0207496 0.0562196 0)
(0.0276355 0.0562726 0)
(0.0358698 0.0559663 0)
(0.0453393 0.0543998 0)
(0.0552456 0.0504584 0)
(0.0641323 0.0431507 0)
(0.0703282 0.0323864 0)
(0.0727209 0.0190685 0)
(0.0708242 0.00459343 0)
(0.0648743 -0.00980341 0)
(0.0555658 -0.0234953 0)
(0.0442297 -0.0365322 0)
(0.0317698 -0.0492045 0)
(0.0174143 -0.0691388 0)
(0.00514527 -0.126399 0)
(-0.0120323 -0.258809 0)
(0.00121764 0.0362029 0)
(0.00520521 0.0479815 0)
(0.0101857 0.050467 0)
(0.0157969 0.0504293 0)
(0.0221458 0.0497187 0)
(0.0293033 0.0487548 0)
(0.0372939 0.0474476 0)
(0.0458955 0.0452743 0)
(0.054545 0.041647 0)
(0.0623217 0.0360236 0)
(0.0680008 0.0282325 0)
(0.0706135 0.0186651 0)
(0.0696095 0.00804284 0)
(0.065039 -0.00287214 0)
(0.057202 -0.0137964 0)
(0.0470475 -0.0249406 0)
(0.0343564 -0.0362443 0)
(0.0213773 -0.0568404 0)
(0.0104881 -0.11038 0)
(-0.01115 -0.261607 0)
(-0.000333607 0.0296321 0)
(0.00251918 0.0401856 0)
(0.00813582 0.0429192 0)
(0.0147396 0.0430796 0)
(0.0219288 0.042239 0)
(0.0296934 0.0409058 0)
(0.0379153 0.0392447 0)
(0.046292 0.037046 0)
(0.0543536 0.0339841 0)
(0.061483 0.029754 0)
(0.0668861 0.0242526 0)
(0.0699317 0.0175896 0)
(0.0698901 0.0103059 0)
(0.0665355 0.0025543 0)
(0.0599348 -0.00557353 0)
(0.0511291 -0.0145328 0)
(0.0380497 -0.024373 0)
(0.031023 -0.0475339 0)
(0.0186145 -0.0955232 0)
(-0.00736321 -0.267555 0)
(-0.00309848 0.0438602 0)
(-0.00124081 0.0481445 0)
(0.00511441 0.0449265 0)
(0.012377 0.0408288 0)
(0.0204753 0.0375167 0)
(0.0292663 0.0348303 0)
(0.0383873 0.0324882 0)
(0.0474296 0.030156 0)
(0.05598 0.0275316 0)
(0.0635317 0.0243924 0)
(0.0695463 0.0206948 0)
(0.0733222 0.0166007 0)
(0.0745612 0.0121539 0)
(0.0730637 0.00753953 0)
(0.0683349 0.0026164 0)
(0.0618669 -0.00400006 0)
(0.0488178 -0.013398 0)
(0.0523942 -0.0386646 0)
(0.0225669 -0.0769896 0)
(0.00596233 -0.269116 0)
(-0.00697387 0.0138684 0)
(-0.0100392 0.00952772 0)
(0.00173727 0.0123439 0)
(0.0150967 0.016202 0)
(0.0281385 0.0174104 0)
(0.0410191 0.0172983 0)
(0.0532846 0.0168113 0)
(0.0647458 0.0161855 0)
(0.0752807 0.0153504 0)
(0.0847078 0.0142159 0)
(0.092798 0.0127795 0)
(0.0992746 0.0111083 0)
(0.10396 0.00925968 0)
(0.106972 0.00718104 0)
(0.107482 0.00485798 0)
(0.107639 0.000905599 0)
(0.0969809 -0.00427678 0)
(0.107513 -0.0215921 0)
(0.0298 -0.042716 0)
(0.0721841 -0.22687 0)
(0.0402685 0.0931917 0)
(0.0603275 0.0693147 0)
(0.0861099 0.0432456 0)
(0.108732 0.0286912 0)
(0.126829 0.021187 0)
(0.142519 0.0168518 0)
(0.157088 0.0140194 0)
(0.170764 0.0120087 0)
(0.183481 0.0104875 0)
(0.195201 0.00928128 0)
(0.20585 0.00826864 0)
(0.215339 0.00737629 0)
(0.223498 0.00655473 0)
(0.23039 0.00573959 0)
(0.23506 0.00481783 0)
(0.239962 0.00354103 0)
(0.23273 0.00209621 0)
(0.253178 -0.00306676 0)
(0.126785 0.00334617 0)
(0.379074 -0.0983898 0)
)
;

boundaryField
{
    movingWall
    {
        type            fixedValue;
        value           uniform (1 0 0);
    }
    fixedWalls
    {
        type            noSlip;
    }
    frontAndBack
    {
        type            empty;
    }
}


// ************************************************************************* //
