/*--------------------------------*- C++ -*----------------------------------*\
| =========                 |                                                 |
| \\      /  F ield         | OpenFOAM: The Open Source CFD Toolbox           |
|  \\    /   O peration     | Version:  2312                                  |
|   \\  /    A nd           | Website:  www.openfoam.com                      |
|    \\/     M anipulation  |                                                 |
\*---------------------------------------------------------------------------*/
FoamFile
{
    version     2.0;
    format      ascii;
    arch        "LSB;label=32;scalar=64";
    class       volVectorField;
    location    "2.25";
    object      URandom;
}
// * * * * * * * * * * * * * * * * * * * * * * * * * * * * * * * * * * * * * //

dimensions      [0 1 -1 0 0 0 0];

internalField   nonuniform List<vector> 
400
(
(0.0908806 -0.00199482 -0.0415285)
(0.0687951 -0.0366953 -0.0600658)
(0.00819407 0.0497505 -0.0863566)
(-0.084906 0.0311568 -0.0592215)
(-0.0831239 -0.0402885 0.0596178)
(-0.10992 0.0220325 0.0426155)
(0.0104739 0.0234856 0.0895845)
(0.0398073 0.0649088 0.00969639)
(-0.131916 0.0172324 0.060238)
(-0.152223 0.0404061 -0.0388219)
(-0.0607315 -0.0927663 0.000458146)
(-0.0600573 -0.0651233 -0.0681063)
(-0.145102 -0.0687097 -0.0466777)
(-0.167861 0.0383531 0.0345147)
(-0.0246328 -0.0946333 0.0116875)
(-0.121472 -0.0762196 -0.029771)
(0.0193792 0.0192313 -0.0807197)
(-0.0453569 -0.0733359 0.0661037)
(-0.0734212 -0.0630289 0.0259411)
(-0.0594382 -0.0504877 0.0590508)
(0.0380409 -0.0610019 0.0668531)
(0.0472112 -0.02255 0.079853)
(0.0261989 -0.0764778 0.0381731)
(0.0505881 0.0629673 -0.0438576)
(-0.0883439 0.0698276 -0.0534423)
(-0.0688698 -0.0194023 0.0899488)
(-0.11001 0.094632 0.00453629)
(-0.0230722 0.0972858 -0.045759)
(-0.135367 -0.0580431 -0.028332)
(-0.154688 0.10114 -0.0019737)
(-0.179437 -0.00274989 0.0697597)
(-0.0978843 0.0325511 -0.0946911)
(-0.0926742 0.0925838 -0.0194262)
(-0.150311 0.0104987 -0.0924131)
(-0.179179 -0.0857671 -0.0280459)
(-0.0893349 0.0694264 0.0102352)
(0.035036 -0.0124586 -0.00234655)
(-0.0427997 -0.0998869 0.0670657)
(0.000824724 -0.0774059 0.0747263)
(0.00090483 0.0982828 -0.0299677)
(0.0221263 -0.0360069 -0.0866909)
(0.047183 0.0832485 0.042819)
(-0.0618566 -0.0633446 -0.0423353)
(0.00333106 0.106761 0.0332439)
(-0.0658431 -0.0125147 0.090146)
(0.0435743 -0.0119763 0.0139653)
(-0.124748 0.0300422 -0.0789441)
(-0.138096 0.0121077 0.0785039)
(-0.177185 -0.0146363 0.0345514)
(-0.0704431 -0.0503826 -0.0170183)
(-0.189498 0.101413 -0.0377373)
(-0.119347 -0.0721979 0.0428702)
(-0.111205 0.0799875 -0.0471265)
(-0.208769 -0.0173875 0.0751667)
(-0.202115 -0.062558 0.070226)
(-0.0806329 -0.017457 -0.0837945)
(-0.0607374 -0.127856 -0.0686192)
(-0.0233144 -0.0971763 0.0832056)
(0.0401224 -0.109383 0.00952383)
(-0.026266 -0.0811209 0.0578014)
(-0.078144 0.0356216 0.0631794)
(-0.0723952 0.0121156 0.0787601)
(-0.0624436 0.109413 -0.0322011)
(-0.0746483 0.0450277 -0.0877762)
(0.0511621 0.0622597 0.0235414)
(0.0197076 -0.00437059 0.0523594)
(-0.0846106 -0.0332495 -0.0583546)
(-0.0699959 0.0266807 0.0942565)
(-0.0227131 0.0465241 0.0505854)
(-0.0541816 -0.0149826 0.0222414)
(-0.138626 0.070226 0.0950957)
(-0.0797089 -0.0130447 -0.0698711)
(-0.124628 -0.0541498 0.082468)
(-0.102554 -0.0913585 -0.0632927)
(-0.204276 -0.069421 -0.0704129)
(-0.153652 0.0242291 0.00859801)
(-0.207254 -0.124475 -0.0190843)
(-0.0327049 -0.0392339 -0.0571289)
(-0.0724053 -0.171792 0.0236179)
(-0.00922812 -0.118242 0.0192512)
(-0.0548058 0.0615356 0.0763587)
(-0.108786 0.00351081 -0.00122472)
(0.0241801 0.0988091 0.0614815)
(-0.126787 0.0180851 -0.0184048)
(-0.121576 0.0453656 -0.0597651)
(-0.0389632 -0.0409151 0.0309262)
(0.0157595 0.0260674 -0.0331328)
(-0.137414 0.139161 -0.0560849)
(-0.170389 0.147824 0.0118332)
(-0.0992508 0.123035 0.078503)
(-0.0977751 0.0830744 0.089226)
(-0.0341408 0.0628409 -0.0240495)
(-0.100187 0.0536315 0.0808986)
(-0.0614515 0.0043852 -0.0792558)
(-0.0694925 0.0182355 -0.0602214)
(-0.184443 -0.057056 0.0617809)
(-0.00774643 -0.0922314 -0.0186896)
(-0.0733932 -0.0624713 0.0741205)
(-0.00650862 -0.176315 -0.0594537)
(0.0367091 -0.0307698 -0.0745373)
(-0.0498619 -0.0194047 -0.074353)
(0.0168124 0.115188 0.056789)
(-0.10756 0.0452751 0.0477793)
(0.041531 0.0855571 -0.0606385)
(-0.052181 0.0983401 -0.0892772)
(-0.0316588 0.0303786 -0.0912036)
(-0.116207 0.164888 -0.00665653)
(-0.0431015 0.0750162 0.0926114)
(-0.0153779 0.134065 0.0437129)
(-0.0544784 0.0807715 0.0898214)
(-0.174271 0.0313512 -0.0621458)
(-0.0600543 0.0566355 0.0863376)
(-0.0143148 -0.0658419 0.031217)
(-0.0913052 0.0688659 -0.0103555)
(-0.13951 0.00024958 -0.0593523)
(-0.0510568 -0.105992 0.0916898)
(-0.013571 -0.168798 0.0394386)
(-0.0633175 -0.210041 0.0664321)
(-0.0664305 -0.220949 -0.0773226)
(0.040805 -0.0595612 -0.0512589)
(0.0287296 0.11408 -0.0542116)
(0.0827929 0.0151659 0.0200098)
(-0.0792407 0.0974352 -0.0631754)
(0.0557465 -0.00277616 0.00218348)
(0.0085457 0.0299129 0.0839113)
(-0.0906126 0.160955 -0.028475)
(0.036701 0.0530037 0.0245913)
(-0.016634 0.185747 -0.0151481)
(-0.0635519 0.0649364 0.0962014)
(-0.0372478 0.136478 0.0675587)
(0.0208359 0.039443 0.0384858)
(-0.114316 -0.0710766 -0.0237666)
(0.0203568 -0.0460553 -0.0387568)
(-0.115849 -0.018067 0.0811638)
(-0.0416315 -0.0739559 0.0978469)
(0.00361453 -0.161579 -0.000748011)
(-0.0102291 -0.191251 0.0103098)
(-0.01941 -0.0801485 0.0770523)
(0.0168959 -0.198075 -0.0703625)
(0.0482144 -0.11461 -0.04939)
(0.0558577 0.0890727 0.066445)
(0.0573141 -0.00840219 0.0452572)
(-0.00857186 0.113888 -0.0825285)
(0.0210716 0.00289044 0.0685098)
(-0.0817192 0.00776519 -0.0498725)
(-0.00535688 0.135804 -0.0831947)
(-0.0429006 0.00918921 -0.0426004)
(-0.0277418 0.0118505 -0.0362688)
(-0.0688176 0.0948887 0.0971622)
(0.0259382 0.00895985 0.0274835)
(-0.00300815 0.073539 0.0848555)
(-0.0325502 -0.0493882 -0.0773699)
(-0.118157 0.00469421 0.0635143)
(-0.0617705 0.00330348 -0.0862913)
(-0.0858918 -0.145404 -0.0292302)
(0.0476716 -0.143634 -0.00160806)
(-0.0986827 -0.127984 0.0659887)
(-0.0570562 -0.0330215 0.00596221)
(-0.116553 -0.211551 0.0455266)
(-0.0878311 -0.12631 -0.0356733)
(-0.0724381 0.113918 0.0210946)
(0.0570531 0.115576 0.0517247)
(-0.0750488 0.0811018 0.0727622)
(0.0563315 0.0668747 -0.0724991)
(-0.0682158 0.113478 -0.0768473)
(0.0158467 0.0203397 0.0636301)
(0.0543287 0.0941494 -0.0676869)
(-0.0363223 0.0100097 -0.0227766)
(-0.0541959 0.0863424 -0.0932319)
(0.0514376 0.14228 -0.0157232)
(-0.0153312 0.109467 0.0750669)
(-0.0718734 0.0982472 0.00047712)
(-0.0886884 -0.0261235 -0.0722462)
(-0.00224059 0.0392425 -0.0501178)
(0.0601209 -0.113643 -0.046424)
(-0.0724647 -0.0169184 0.044752)
(0.00843716 -0.175145 0.0634209)
(0.0824238 -0.132193 0.0112557)
(-0.0645693 -0.131415 -0.0767306)
(0.0147035 -0.163239 0.0786334)
(-0.020303 0.0920837 0.0881109)
(-0.0607332 0.141246 0.00594933)
(0.0832888 0.0228035 -0.0224676)
(-0.0495023 0.00269979 -0.0591777)
(-0.0323422 0.174041 0.0128667)
(0.0166085 0.17385 0.0489324)
(0.0721058 0.0597129 -0.0532965)
(-0.0828411 0.0705531 0.0408321)
(0.0463225 0.165215 -0.0591164)
(-0.0591327 0.132071 -0.0467164)
(-0.05889 0.0208381 -0.070585)
(0.0712017 -0.0256169 0.065573)
(0.0632237 -0.095087 -0.0263591)
(-0.0509357 -0.073254 0.077807)
(0.0136061 -0.0253772 0.0898704)
(-0.0102759 -0.0402781 -0.0890238)
(0.0747563 -0.162542 0.0158541)
(-0.102233 -0.136946 0.0226038)
(0.0705482 -0.22831 -0.0210883)
(0.00260354 -0.325103 -0.0338405)
(0.0385671 -0.0426215 0.00429423)
(-0.0600934 0.0885423 -0.0750695)
(0.0719312 0.021059 0.052832)
(-0.0496115 0.122737 -0.0691305)
(-0.00253847 0.0442607 -0.0944764)
(0.0790281 0.0531893 0.060026)
(0.0760932 0.0216998 -0.0243413)
(0.0475175 0.0447987 0.0802653)
(0.0768174 0.172501 0.030501)
(-0.00981689 0.0110764 0.0663228)
(-0.0343487 0.115556 -0.0213801)
(0.0503029 -0.0629576 0.0589494)
(0.118258 0.0341858 0.014906)
(-0.0265588 -0.0115942 -0.0773949)
(-0.0324456 -0.0512964 -0.0824286)
(-0.0135505 -0.0128185 -0.0681591)
(-0.020494 -0.0782531 -0.0939453)
(0.0904773 -0.103066 -0.0452482)
(-0.0579559 -0.110412 -0.0611532)
(0.0475996 -0.249974 0.0810751)
(0.0787768 0.0274306 -0.0595877)
(0.0481746 -0.02804 0.00359207)
(-0.0569379 -0.0140324 0.008103)
(0.00242889 0.151713 -0.0555153)
(0.0389937 0.107719 -0.088843)
(-0.0541396 0.11288 -0.064583)
(-0.0173347 0.145535 0.0694494)
(-0.0368709 0.0320142 0.0445608)
(0.00382608 0.0882896 0.0917521)
(-0.0183954 0.081904 -0.0703025)
(0.0481225 -0.00850508 0.0840433)
(0.142002 -0.024355 0.0298106)
(0.105311 0.0556947 -0.0549779)
(0.0268956 0.0234726 0.077889)
(0.0355256 -0.120574 -0.076343)
(0.0871052 -0.041989 0.07497)
(0.0433713 -0.00016261 0.0456919)
(0.0170607 -0.00861094 0.0170807)
(0.0817597 -0.188189 -0.0496963)
(0.0141926 -0.300911 -0.0813293)
(-0.0749892 -0.011503 0.0275923)
(0.0745939 0.0931138 0.0622268)
(0.0103083 0.153101 -0.0429611)
(-0.0561548 -0.00769433 -0.0175027)
(0.0828194 0.106033 -0.0621327)
(0.0311412 0.166517 0.0300375)
(0.11552 0.0651157 -0.0498543)
(-0.0178538 -0.00394726 0.0107543)
(0.018955 0.0257405 -0.0823729)
(0.0283164 0.0490972 -0.0936338)
(0.13305 0.0140124 0.0706773)
(0.0931201 -0.0760088 0.0214179)
(0.111338 0.0197005 0.085855)
(0.0298445 0.0561379 0.0471559)
(0.116478 -0.11473 -0.0224779)
(0.0819306 -0.00274511 0.0673623)
(0.0516229 -0.0650758 0.0958524)
(-0.0708388 -0.0426644 0.0161895)
(0.087344 -0.103235 -0.0172915)
(0.0348926 -0.334946 -0.0343705)
(-0.0482447 0.0982815 -0.0663022)
(-0.0420183 0.0860237 -0.082723)
(0.0818706 0.127477 -0.00780053)
(0.0808774 0.132138 -0.0185856)
(0.00351929 -0.00593447 -0.0715098)
(-0.051828 0.067373 -0.0641425)
(0.0998556 0.0678938 0.0747606)
(-0.0468112 0.0733153 0.0409564)
(0.130956 0.114373 0.0370226)
(0.156876 0.0819538 0.0244564)
(0.104027 0.130791 0.0109224)
(0.0838768 0.0295485 0.0989025)
(-0.0157479 0.0467906 0.0177907)
(0.139185 -0.0210571 0.0655163)
(0.0614771 0.0600955 -0.0320773)
(0.110999 -0.0970668 0.0526232)
(0.0408233 0.0245066 -0.0481611)
(0.0917611 -0.0362396 0.0446345)
(0.0715671 -0.169603 0.06673)
(-0.0759834 -0.239756 -0.0745416)
(0.069088 -0.0344615 -0.0111575)
(-0.046666 0.00130183 0.0686104)
(0.0918788 0.0839865 0.0497892)
(-0.0219472 0.123672 0.0637236)
(0.0867063 0.122066 -0.0362495)
(0.0706396 -0.00506919 0.0662407)
(0.000105904 -0.0234893 -0.049069)
(0.017437 0.083728 0.0914402)
(0.0171423 0.10307 0.0760271)
(0.0375431 0.127798 0.0461292)
(0.129946 -0.0227759 0.0583342)
(0.0209297 -0.0233738 -0.0742719)
(0.135496 0.0505163 -0.0608991)
(0.101839 0.0532054 -0.0682897)
(-0.0265573 0.0331166 -0.00713378)
(0.120197 -0.0572724 0.0616343)
(0.0593762 -0.0672725 -0.0944004)
(-0.068953 -0.0855111 -0.0476723)
(-0.0683943 -0.0728079 0.0414724)
(-0.0036631 -0.358097 -0.00847581)
(0.0326773 0.125256 0.0328597)
(0.0475568 0.119391 -0.055741)
(-0.0104118 0.0195019 0.0928273)
(-0.0418298 0.100372 0.0646909)
(0.116193 0.0766493 0.0207332)
(-0.0589468 0.0698015 0.0420591)
(0.0261629 -0.0517575 0.00587075)
(0.110531 0.0655165 -0.07357)
(0.036578 -0.0546446 -0.0201272)
(0.13419 -0.00606702 -0.0553473)
(0.0162278 -0.0513238 0.0314698)
(0.0056388 -0.0529965 0.0253558)
(0.0164178 0.0181631 0.0840728)
(0.0807255 0.0781647 0.0564531)
(0.0170944 0.0776292 0.00572339)
(0.0791877 0.00276867 -0.0905495)
(0.0260115 0.0343458 -0.0703378)
(0.0663101 -0.0737197 -0.0877276)
(-0.00252334 -0.0882511 0.096649)
(0.0238923 -0.280835 -0.0916641)
(0.0584196 -0.01306 -0.0687419)
(0.0919491 0.0778472 -0.0241639)
(-0.0439614 -0.0417201 -0.0110481)
(-0.0573122 0.0374904 -0.069118)
(-0.0265514 -0.0409268 -0.027076)
(-0.01736 0.0102225 0.0827316)
(0.0617143 0.134752 0.0176644)
(0.101816 -0.00481159 -0.0718684)
(0.131917 0.0795801 0.0436451)
(0.13882 0.00394164 0.057903)
(0.111248 -0.0493763 0.0510965)
(0.111862 -0.0606066 -0.0461214)
(0.0546169 0.109084 -0.00310715)
(-0.00881763 0.0682944 0.000373853)
(-0.0130956 0.0611724 0.0145446)
(0.108067 0.0283376 0.0701443)
(0.0281777 -0.113116 -0.0450248)
(0.0140318 -0.0879738 0.0898661)
(-0.0246187 -0.0356934 -0.0674632)
(-0.0284422 -0.362825 0.0218948)
(0.0187666 0.13446 -0.0362429)
(0.082487 0.0255657 0.0497981)
(0.0513544 -0.0222897 -0.057826)
(0.0714799 -0.039186 -0.0102219)
(0.105468 0.070792 -0.0408544)
(-0.0142115 -0.0258791 -0.0665135)
(0.00508014 0.0738501 0.0847338)
(0.127889 -0.0248646 0.0223397)
(0.00387925 0.108683 0.0264579)
(0.112999 0.0607566 -0.0789346)
(0.139151 -0.00963364 -0.0650797)
(0.12166 0.0920871 -0.0443317)
(0.128724 -0.0709323 0.0127719)
(0.0024696 -0.0547386 -0.0337328)
(0.0472964 -0.0175366 0.0956621)
(-0.00492221 -0.061795 -0.046893)
(-0.0345972 -0.0594166 -0.0304008)
(0.0613945 0.0165832 -0.0828654)
(0.0789824 -0.15469 0.0279268)
(-0.0686339 -0.329009 -0.0291251)
(-0.0496924 -0.0528947 0.0609739)
(-0.0323625 -0.0395482 0.0842212)
(0.0349496 -0.024189 -0.0869614)
(0.0878122 0.0260866 -0.067932)
(0.0435573 -0.0364345 -0.0828431)
(0.0551087 -0.0276515 -0.08821)
(-0.0371821 -0.0253226 -0.00636465)
(0.0655698 0.0489903 -0.0944625)
(0.0483734 0.0891899 -0.0618363)
(0.149555 0.0860233 0.0252689)
(0.068806 -0.0533607 0.0710624)
(0.105022 0.0790487 0.073151)
(0.091092 0.0528145 0.0890921)
(0.126742 -0.0105935 0.0964014)
(0.19202 -0.0276973 -0.0423493)
(0.173266 -0.0433215 0.0611307)
(0.0655906 0.0679813 0.0615907)
(0.176985 -0.0754643 0.0476604)
(-0.0582913 -0.0363186 0.0468934)
(0.103224 -0.167006 -0.0738433)
(0.0817444 0.145293 0.0746004)
(-0.00332768 0.0118178 -0.0514017)
(0.0207101 0.0217803 -0.0725404)
(0.173282 0.00118803 -0.0712521)
(0.111886 -0.0421459 0.0759319)
(0.218595 0.0814487 0.00630887)
(0.106099 -0.0501889 -0.0572481)
(0.146533 0.0741338 -0.0745208)
(0.103578 0.0358222 0.0545303)
(0.107461 -0.0282685 0.0298635)
(0.175177 -0.0718985 -0.0513068)
(0.253192 0.0839528 0.0519923)
(0.188509 -0.0551898 -0.0704514)
(0.174922 -0.0190496 0.0794284)
(0.274864 0.00870171 -0.0916547)
(0.266558 0.0799805 -0.0587342)
(0.182943 0.0523784 -0.0706607)
(0.350287 0.0207988 -0.000365736)
(0.193023 -0.0278806 0.0680984)
(0.316212 -0.175554 -0.0096982)
)
;

boundaryField
{
    movingWall
    {
        type            fixedValue;
        value           uniform (1 0 0);
    }
    fixedWalls
    {
        type            noSlip;
    }
    frontAndBack
    {
        type            empty;
    }
}


// ************************************************************************* //
