/*--------------------------------*- C++ -*----------------------------------*\
| =========                 |                                                 |
| \\      /  F ield         | OpenFOAM: The Open Source CFD Toolbox           |
|  \\    /   O peration     | Version:  2312                                  |
|   \\  /    A nd           | Website:  www.openfoam.com                      |
|    \\/     M anipulation  |                                                 |
\*---------------------------------------------------------------------------*/
FoamFile
{
    version     2.0;
    format      ascii;
    arch        "LSB;label=32;scalar=64";
    class       volScalarField;
    location    "2.25";
    object      Ux;
}
// * * * * * * * * * * * * * * * * * * * * * * * * * * * * * * * * * * * * * //

dimensions      [0 1 -1 0 0 0 0];

internalField   nonuniform List<scalar> 
400
(
-6.80441e-05
-0.00186516
-0.00555693
-0.00992285
-0.0150617
-0.0214391
-0.0295972
-0.040089
-0.0527976
-0.0663906
-0.0786585
-0.0868775
-0.0890655
-0.0839483
-0.0714474
-0.0532016
-0.0320516
-0.0112178
0.0012522
0.00233259
-0.00132176
-0.00605754
-0.0129481
-0.0207143
-0.0289992
-0.038292
-0.0497472
-0.0640023
-0.0802038
-0.096426
-0.110311
-0.119731
-0.122942
-0.119179
-0.107286
-0.0880378
-0.0629055
-0.0343851
-0.00740018
0.00191805
-0.00276775
-0.00927897
-0.0174547
-0.0268167
-0.0369438
-0.0487256
-0.0633661
-0.0806611
-0.0995819
-0.117998
-0.133057
-0.142529
-0.145546
-0.142854
-0.135083
-0.120142
-0.0966558
-0.0645037
-0.02715
-0.00030287
-0.0037459
-0.0113939
-0.0201307
-0.0300356
-0.0410278
-0.0541169
-0.0702162
-0.0890211
-0.108361
-0.125083
-0.13674
-0.142732
-0.144247
-0.141594
-0.136455
-0.128566
-0.114611
-0.0893666
-0.051481
-0.00825427
-0.00415567
-0.0122258
-0.0208555
-0.0305305
-0.0414175
-0.0545772
-0.0706302
-0.0883848
-0.104941
-0.116926
-0.122499
-0.122267
-0.118283
-0.114103
-0.110205
-0.108187
-0.105279
-0.0937746
-0.0656106
-0.0236182
-0.00399384
-0.0117823
-0.0197413
-0.0285575
-0.0384533
-0.0502877
-0.0642461
-0.0786964
-0.0906315
-0.0970358
-0.097278
-0.0935487
-0.0887649
-0.0834109
-0.0784983
-0.0760648
-0.0774993
-0.0776882
-0.063807
-0.0300618
-0.00338675
-0.0102888
-0.0171182
-0.0245139
-0.0325712
-0.0417598
-0.0521241
-0.0621987
-0.0695414
-0.0723586
-0.0713585
-0.068851
-0.0654051
-0.0604911
-0.0547132
-0.0500149
-0.0492997
-0.0531532
-0.050282
-0.0284107
-0.00249757
-0.00807109
-0.0134231
-0.0189502
-0.0245702
-0.0302993
-0.036308
-0.0413767
-0.0451649
-0.0462945
-0.0460753
-0.0455645
-0.0437542
-0.0400704
-0.0353053
-0.0310311
-0.0288188
-0.0318177
-0.0337768
-0.0222314
-0.00147003
-0.00541557
-0.00906696
-0.0125289
-0.0155006
-0.0175191
-0.0188453
-0.0191296
-0.0195293
-0.0194207
-0.0197764
-0.0204258
-0.0200423
-0.0180328
-0.0158444
-0.0143013
-0.0137349
-0.016753
-0.020403
-0.0158747
-0.000426364
-0.00260579
-0.00449632
-0.00591016
-0.00637377
-0.00503634
-0.00207735
0.002159
0.00552671
0.00764004
0.00769691
0.00688108
0.00611257
0.00567521
0.00403442
0.00166658
-0.000960928
-0.00593408
-0.0109654
-0.0120633
0.000551627
8.55742e-05
-0.000142635
0.000271387
0.00193668
0.0058461
0.012125
0.0200835
0.027404
0.0324962
0.0343695
0.0341384
0.0322651
0.0286509
0.0227143
0.0161223
0.00996486
0.00220837
-0.00473094
-0.0103468
0.00133489
0.00240016
0.00367298
0.00560412
0.00886747
0.014372
0.0226555
0.0328794
0.0431962
0.0513307
0.0557429
0.0564829
0.0538562
0.0474242
0.0379179
0.027882
0.0186379
0.00826896
-0.000745211
-0.0100095
0.00187145
0.00420278
0.0067361
0.00985655
0.0142407
0.0205475
0.0294536
0.0404741
0.0519519
0.0616749
0.0678828
0.0694908
0.0664845
0.058872
0.0478789
0.0360873
0.0248111
0.0124972
0.00165002
-0.0104989
0.00209246
0.00536199
0.00891176
0.0129837
0.0181426
0.0248148
0.0334908
0.0440301
0.0551459
0.0648869
0.0714596
0.0735093
0.0708491
0.0636967
0.0531656
0.0410729
0.0288874
0.015249
0.00307232
-0.0114257
0.00196202
0.00570555
0.0100737
0.014978
0.0207496
0.0276355
0.0358698
0.0453393
0.0552456
0.0641323
0.0703282
0.0727209
0.0708242
0.0648743
0.0555658
0.0442297
0.0317698
0.0174143
0.00514527
-0.0120323
0.00121764
0.00520521
0.0101857
0.0157969
0.0221458
0.0293033
0.0372939
0.0458955
0.054545
0.0623217
0.0680008
0.0706135
0.0696095
0.065039
0.057202
0.0470475
0.0343564
0.0213773
0.0104881
-0.01115
-0.000333607
0.00251918
0.00813582
0.0147396
0.0219288
0.0296934
0.0379153
0.046292
0.0543536
0.061483
0.0668861
0.0699317
0.0698901
0.0665355
0.0599348
0.0511291
0.0380497
0.031023
0.0186145
-0.00736321
-0.00309848
-0.00124081
0.00511441
0.012377
0.0204753
0.0292663
0.0383873
0.0474296
0.05598
0.0635317
0.0695463
0.0733222
0.0745612
0.0730637
0.0683349
0.0618669
0.0488178
0.0523942
0.0225669
0.00596233
-0.00697387
-0.0100392
0.00173727
0.0150967
0.0281385
0.0410191
0.0532846
0.0647458
0.0752807
0.0847078
0.092798
0.0992746
0.10396
0.106972
0.107482
0.107639
0.0969809
0.107513
0.0298
0.0721841
0.0402685
0.0603275
0.0861099
0.108732
0.126829
0.142519
0.157088
0.170764
0.183481
0.195201
0.20585
0.215339
0.223498
0.23039
0.23506
0.239962
0.23273
0.253178
0.126785
0.379074
)
;

boundaryField
{
    movingWall
    {
        type            calculated;
        value           uniform 1;
    }
    fixedWalls
    {
        type            calculated;
        value           uniform 0;
    }
    frontAndBack
    {
        type            empty;
    }
}


// ************************************************************************* //
