/*--------------------------------*- C++ -*----------------------------------*\
| =========                 |                                                 |
| \\      /  F ield         | OpenFOAM: The Open Source CFD Toolbox           |
|  \\    /   O peration     | Version:  2312                                  |
|   \\  /    A nd           | Website:  www.openfoam.com                      |
|    \\/     M anipulation  |                                                 |
\*---------------------------------------------------------------------------*/
FoamFile
{
    version     2.0;
    format      ascii;
    arch        "LSB;label=32;scalar=64";
    class       volScalarField;
    location    "2.25";
    object      Uy;
}
// * * * * * * * * * * * * * * * * * * * * * * * * * * * * * * * * * * * * * //

dimensions      [0 1 -1 0 0 0 0];

internalField   nonuniform List<scalar> 
400
(
-6.258e-05
0.000710872
0.00123822
0.00165523
0.00229387
0.00319228
0.00427834
0.00555763
0.00666693
0.00685475
0.00561267
0.00301049
-0.000291217
-0.00368682
-0.00704454
-0.00948993
-0.00973761
-0.00651659
-0.00178398
0.00144849
0.00209519
0.00548466
0.00724986
0.00826367
0.00964341
0.0118099
0.0149586
0.0183501
0.0204061
0.0198899
0.0160955
0.00896463
-0.00072464
-0.0116513
-0.022168
-0.03004
-0.0325071
-0.026189
-0.011464
0.00288408
0.00717846
0.0126895
0.015625
0.0173964
0.0197116
0.0238804
0.0297241
0.0353117
0.0381273
0.0359244
0.0279954
0.0151217
-0.00125152
-0.0196731
-0.0385762
-0.0551069
-0.0646007
-0.0600242
-0.0360096
-0.00375867
0.0138667
0.0208149
0.0247214
0.0275623
0.0314894
0.0381551
0.0466726
0.0541352
0.0568011
0.0519375
0.0393514
0.0208103
-0.00110129
-0.0245015
-0.0483878
-0.0721907
-0.0920217
-0.0986118
-0.0769008
-0.0201173
0.0214867
0.0294828
0.0340649
0.0379838
0.0436932
0.052892
0.064002
0.0724483
0.0731482
0.0636644
0.0452924
0.0221547
-0.00229657
-0.0263769
-0.0504367
-0.0762415
-0.103984
-0.12643
-0.121797
-0.0591392
0.0292549
0.0380039
0.0430479
0.0479996
0.0554316
0.0669145
0.0797069
0.0875116
0.0848095
0.0697719
0.0458415
0.0189004
-0.00682767
-0.0302827
-0.0522376
-0.0748855
-0.102784
-0.13669
-0.15759
-0.108042
0.0364289
0.0457502
0.0510706
0.0568351
0.065526
0.078477
0.0918027
0.0980292
0.0915711
0.071647
0.0438057
0.0147611
-0.0122499
-0.0367188
-0.0579921
-0.0771795
-0.0997789
-0.134226
-0.174918
-0.15571
0.0423853
0.0522325
0.0576249
0.0637564
0.0729321
0.0862403
0.0994208
0.104039
0.0951359
0.0724193
0.0428021
0.0126161
-0.0160464
-0.0423354
-0.0642459
-0.0819633
-0.100334
-0.1296
-0.178757
-0.192824
0.046698
0.0570762
0.0623386
0.0683332
0.0772062
0.0898949
0.102152
0.105851
0.0966399
0.0734917
0.0435488
0.012498
-0.0178653
-0.0458388
-0.0681003
-0.0848467
-0.101076
-0.126087
-0.17791
-0.216921
0.0491723
0.0600926
0.0650999
0.0705063
0.0783327
0.0893684
0.100411
0.103836
0.095638
0.0741147
0.0450028
0.0139185
-0.0173469
-0.0460277
-0.0681755
-0.0842343
-0.0991741
-0.122264
-0.174357
-0.232153
0.0497711
0.061283
0.0659381
0.0704623
0.0767287
0.0854581
0.0946078
0.0977596
0.0910881
0.0728087
0.0461249
0.0161858
-0.0146311
-0.0426088
-0.0640597
-0.0797055
-0.0939548
-0.115763
-0.168956
-0.241664
0.0486923
0.0607958
0.065092
0.0685985
0.0730877
0.0791871
0.0857221
0.0881322
0.0826728
0.06791
0.045148
0.0180461
-0.0101069
-0.0357885
-0.0560297
-0.0715207
-0.0856056
-0.106748
-0.161296
-0.247997
0.0462127
0.0588659
0.0628705
0.0653547
0.0681315
0.0717247
0.0754694
0.0765648
0.0718481
0.0600481
0.0415429
0.0187695
-0.00514124
-0.0271311
-0.0455281
-0.0607168
-0.0747424
-0.0955134
-0.151789
-0.252738
0.0428721
0.0558241
0.059535
0.0611099
0.0624213
0.0639639
0.0653311
0.0649235
0.0606879
0.0512961
0.0368762
0.0190215
5.25722e-05
-0.0180316
-0.0342548
-0.0486818
-0.0623153
-0.0826471
-0.140353
-0.256365
0.0388161
0.0517976
0.0551946
0.0560268
0.0562196
0.0562726
0.0559663
0.0543998
0.0504584
0.0431507
0.0323864
0.0190685
0.00459343
-0.00980341
-0.0234953
-0.0365322
-0.0492045
-0.0691388
-0.126399
-0.258809
0.0362029
0.0479815
0.050467
0.0504293
0.0497187
0.0487548
0.0474476
0.0452743
0.041647
0.0360236
0.0282325
0.0186651
0.00804284
-0.00287214
-0.0137964
-0.0249406
-0.0362443
-0.0568404
-0.11038
-0.261607
0.0296321
0.0401856
0.0429192
0.0430796
0.042239
0.0409058
0.0392447
0.037046
0.0339841
0.029754
0.0242526
0.0175896
0.0103059
0.0025543
-0.00557353
-0.0145328
-0.024373
-0.0475339
-0.0955232
-0.267555
0.0438602
0.0481445
0.0449265
0.0408288
0.0375167
0.0348303
0.0324882
0.030156
0.0275316
0.0243924
0.0206948
0.0166007
0.0121539
0.00753953
0.0026164
-0.00400006
-0.013398
-0.0386646
-0.0769896
-0.269116
0.0138684
0.00952772
0.0123439
0.016202
0.0174104
0.0172983
0.0168113
0.0161855
0.0153504
0.0142159
0.0127795
0.0111083
0.00925968
0.00718104
0.00485798
0.000905599
-0.00427678
-0.0215921
-0.042716
-0.22687
0.0931917
0.0693147
0.0432456
0.0286912
0.021187
0.0168518
0.0140194
0.0120087
0.0104875
0.00928128
0.00826864
0.00737629
0.00655473
0.00573959
0.00481783
0.00354103
0.00209621
-0.00306676
0.00334617
-0.0983898
)
;

boundaryField
{
    movingWall
    {
        type            calculated;
        value           uniform 0;
    }
    fixedWalls
    {
        type            calculated;
        value           uniform 0;
    }
    frontAndBack
    {
        type            empty;
    }
}


// ************************************************************************* //
