/*--------------------------------*- C++ -*----------------------------------*\
| =========                 |                                                 |
| \\      /  F ield         | OpenFOAM: The Open Source CFD Toolbox           |
|  \\    /   O peration     | Version:  2312                                  |
|   \\  /    A nd           | Website:  www.openfoam.com                      |
|    \\/     M anipulation  |                                                 |
\*---------------------------------------------------------------------------*/
FoamFile
{
    version     2.0;
    format      ascii;
    arch        "LSB;label=32;scalar=64";
    class       volVectorField;
    location    "2.25";
    object      vorticityField;
}
// * * * * * * * * * * * * * * * * * * * * * * * * * * * * * * * * * * * * * //

dimensions      [0 0 -1 0 0 0 0];

internalField   nonuniform List<vector> 
400
(
(0 -0 0.20381)
(0 -0 0.92235)
(0 -0 1.94494)
(0 -0 3.16928)
(0 -0 4.5598)
(0 -0 6.17155)
(0 -0 8.17098)
(0 -0 10.648)
(0 -0 13.4299)
(0 -0 16.1762)
(0 -0 18.5125)
(0 -0 20.0705)
(0 -0 20.5311)
(0 -0 19.6374)
(0 -0 17.293)
(0 -0 13.8546)
(0 -0 9.79305)
(0 -0 5.35565)
(0 -0 1.41131)
(0 -0 -0.391515)
(0 -0 1.02796)
(0 -0 1.25685)
(0 -0 1.46768)
(0 -0 1.92874)
(0 -0 2.54284)
(0 -0 3.26017)
(0 -0 4.0309)
(0 -0 4.60196)
(0 -0 4.83241)
(0 -0 4.7297)
(0 -0 4.34728)
(0 -0 3.88316)
(0 -0 3.58641)
(0 -0 3.74624)
(0 -0 4.52473)
(0 -0 5.66012)
(0 -0 6.84552)
(0 -0 7.43291)
(0 -0 5.74753)
(0 -0 1.12154)
(0 -0 2.22921)
(0 -0 1.37829)
(0 -0 1.18895)
(0 -0 1.34078)
(0 -0 1.85126)
(0 -0 2.58375)
(0 -0 3.19003)
(0 -0 3.3422)
(0 -0 2.87695)
(0 -0 1.85251)
(0 -0 0.562604)
(0 -0 -0.624637)
(0 -0 -1.34906)
(0 -0 -1.49094)
(0 -0 -0.626441)
(0 -0 1.4504)
(0 -0 4.67885)
(0 -0 8.35726)
(0 -0 10.0346)
(0 -0 4.99406)
(0 -0 3.60695)
(0 -0 1.38016)
(0 -0 1.01482)
(0 -0 1.04818)
(0 -0 1.50664)
(0 -0 2.10349)
(0 -0 2.32443)
(0 -0 1.78522)
(0 -0 0.316093)
(0 -0 -1.85218)
(0 -0 -4.16853)
(0 -0 -6.07147)
(0 -0 -7.25745)
(0 -0 -7.60371)
(0 -0 -7.25675)
(0 -0 -5.55891)
(0 -0 -1.7798)
(0 -0 4.43918)
(0 -0 11.6955)
(0 -0 12.0333)
(0 -0 5.12175)
(0 -0 1.29665)
(0 -0 0.811159)
(0 -0 0.81502)
(0 -0 1.23336)
(0 -0 1.64796)
(0 -0 1.35863)
(0 -0 -0.117847)
(0 -0 -2.6513)
(0 -0 -5.59031)
(0 -0 -8.09713)
(0 -0 -9.67719)
(0 -0 -10.4013)
(0 -0 -10.6324)
(0 -0 -10.7822)
(0 -0 -10.6049)
(0 -0 -8.73008)
(0 -0 -2.9492)
(0 -0 7.96171)
(0 -0 20.2744)
(0 -0 6.64899)
(0 -0 1.1856)
(0 -0 0.625844)
(0 -0 0.636708)
(0 -0 1.00686)
(0 -0 1.14578)
(0 -0 0.209104)
(0 -0 -2.10835)
(0 -0 -5.31387)
(0 -0 -8.35355)
(0 -0 -10.2012)
(0 -0 -10.6085)
(0 -0 -10.2061)
(0 -0 -9.90222)
(0 -0 -10.0095)
(0 -0 -10.8718)
(0 -0 -11.7784)
(0 -0 -9.54276)
(0 -0 1.33194)
(0 -0 27.0425)
(0 -0 8.06828)
(0 -0 1.09306)
(0 -0 0.476672)
(0 -0 0.4848)
(0 -0 0.775873)
(0 -0 0.628832)
(0 -0 -0.838585)
(0 -0 -3.75514)
(0 -0 -7.18488)
(0 -0 -9.85067)
(0 -0 -10.8089)
(0 -0 -10.404)
(0 -0 -9.64905)
(0 -0 -8.90826)
(0 -0 -8.36538)
(0 -0 -8.68206)
(0 -0 -10.5727)
(0 -0 -12.101)
(0 -0 -5.15143)
(0 -0 32.2798)
(0 -0 9.2701)
(0 -0 1.03665)
(0 -0 0.347267)
(0 -0 0.332221)
(0 -0 0.541324)
(0 -0 0.224803)
(0 -0 -1.54804)
(0 -0 -4.73539)
(0 -0 -8.16316)
(0 -0 -10.5272)
(0 -0 -11.1385)
(0 -0 -10.7274)
(0 -0 -10.0314)
(0 -0 -9.06579)
(0 -0 -7.84967)
(0 -0 -7.18019)
(0 -0 -8.32019)
(0 -0 -11.4824)
(0 -0 -9.31024)
(0 -0 35.9045)
(0 -0 10.1703)
(0 -0 1.01753)
(0 -0 0.23302)
(0 -0 0.182761)
(0 -0 0.336534)
(0 -0 -0.0317588)
(0 -0 -1.82741)
(0 -0 -4.90473)
(0 -0 -8.30514)
(0 -0 -10.7026)
(0 -0 -11.4766)
(0 -0 -11.386)
(0 -0 -10.8204)
(0 -0 -9.59806)
(0 -0 -7.83476)
(0 -0 -6.56734)
(0 -0 -6.90981)
(0 -0 -10.2717)
(0 -0 -11.3646)
(0 -0 38.4663)
(0 -0 10.7243)
(0 -0 1.04265)
(0 -0 0.148939)
(0 -0 0.0432479)
(0 -0 0.142476)
(0 -0 -0.128681)
(0 -0 -1.65031)
(0 -0 -4.39862)
(0 -0 -7.66541)
(0 -0 -10.2552)
(0 -0 -11.4342)
(0 -0 -11.6914)
(0 -0 -11.2254)
(0 -0 -9.75123)
(0 -0 -7.67653)
(0 -0 -6.14221)
(0 -0 -6.17291)
(0 -0 -9.41447)
(0 -0 -12.5561)
(0 -0 40.0982)
(0 -0 10.9293)
(0 -0 1.11611)
(0 -0 0.100996)
(0 -0 -0.072367)
(0 -0 -0.0245439)
(0 -0 -0.152933)
(0 -0 -1.24313)
(0 -0 -3.424)
(0 -0 -6.26203)
(0 -0 -8.86539)
(0 -0 -10.4669)
(0 -0 -11.0358)
(0 -0 -10.6538)
(0 -0 -9.11776)
(0 -0 -7.09802)
(0 -0 -5.61105)
(0 -0 -5.56559)
(0 -0 -8.92044)
(0 -0 -13.6122)
(0 -0 40.8566)
(0 -0 10.8168)
(0 -0 1.22825)
(0 -0 0.0923932)
(0 -0 -0.158948)
(0 -0 -0.171531)
(0 -0 -0.206702)
(0 -0 -0.838354)
(0 -0 -2.34399)
(0 -0 -4.47701)
(0 -0 -6.67036)
(0 -0 -8.33772)
(0 -0 -9.06072)
(0 -0 -8.80539)
(0 -0 -7.61439)
(0 -0 -6.08969)
(0 -0 -4.9541)
(0 -0 -5.00739)
(0 -0 -8.59793)
(0 -0 -14.763)
(0 -0 40.9446)
(0 -0 10.4321)
(0 -0 1.3696)
(0 -0 0.125)
(0 -0 -0.211861)
(0 -0 -0.29051)
(0 -0 -0.310494)
(0 -0 -0.599515)
(0 -0 -1.4772)
(0 -0 -2.84665)
(0 -0 -4.38614)
(0 -0 -5.69953)
(0 -0 -6.37105)
(0 -0 -6.28936)
(0 -0 -5.66593)
(0 -0 -4.88334)
(0 -0 -4.24053)
(0 -0 -4.50461)
(0 -0 -8.40267)
(0 -0 -16.1042)
(0 -0 40.5943)
(0 -0 9.86057)
(0 -0 1.516)
(0 -0 0.194813)
(0 -0 -0.223517)
(0 -0 -0.365495)
(0 -0 -0.417811)
(0 -0 -0.545661)
(0 -0 -0.950843)
(0 -0 -1.69211)
(0 -0 -2.62691)
(0 -0 -3.472)
(0 -0 -4.00538)
(0 -0 -4.13929)
(0 -0 -4.03096)
(0 -0 -3.83372)
(0 -0 -3.62029)
(0 -0 -4.0924)
(0 -0 -8.29546)
(0 -0 -17.7213)
(0 -0 39.8251)
(0 -0 9.14886)
(0 -0 1.65353)
(0 -0 0.295524)
(0 -0 -0.178813)
(0 -0 -0.375741)
(0 -0 -0.474178)
(0 -0 -0.567593)
(0 -0 -0.737323)
(0 -0 -1.06483)
(0 -0 -1.55069)
(0 -0 -2.06233)
(0 -0 -2.48971)
(0 -0 -2.76322)
(0 -0 -2.9431)
(0 -0 -3.07652)
(0 -0 -3.16839)
(0 -0 -3.80757)
(0 -0 -8.33224)
(0 -0 -19.7086)
(0 -0 38.4931)
(0 -0 8.64801)
(0 -0 1.74505)
(0 -0 0.43857)
(0 -0 -0.0509947)
(0 -0 -0.28537)
(0 -0 -0.432897)
(0 -0 -0.5526)
(0 -0 -0.675318)
(0 -0 -0.835865)
(0 -0 -1.07653)
(0 -0 -1.39164)
(0 -0 -1.74004)
(0 -0 -2.06031)
(0 -0 -2.35004)
(0 -0 -2.64374)
(0 -0 -2.93474)
(0 -0 -3.81797)
(0 -0 -8.77442)
(0 -0 -21.8236)
(0 -0 36.7317)
(0 -0 7.41338)
(0 -0 1.97331)
(0 -0 0.796527)
(0 -0 0.273967)
(0 -0 -0.0503206)
(0 -0 -0.295728)
(0 -0 -0.495329)
(0 -0 -0.679479)
(0 -0 -0.872691)
(0 -0 -1.09414)
(0 -0 -1.37099)
(0 -0 -1.66555)
(0 -0 -1.99871)
(0 -0 -2.39042)
(0 -0 -2.822)
(0 -0 -3.36188)
(0 -0 -4.74625)
(0 -0 -10.2167)
(0 -0 -23.21)
(0 -0 34.5966)
(0 -0 9.8645)
(0 -0 1.36247)
(0 -0 -0.0917182)
(0 -0 -0.776682)
(0 -0 -1.22082)
(0 -0 -1.63543)
(0 -0 -2.00436)
(0 -0 -2.34103)
(0 -0 -2.66907)
(0 -0 -3.00616)
(0 -0 -3.37036)
(0 -0 -3.78837)
(0 -0 -4.31306)
(0 -0 -4.99743)
(0 -0 -5.90869)
(0 -0 -7.2524)
(0 -0 -9.35958)
(0 -0 -14.0082)
(0 -0 -24.1637)
(0 -0 26.6558)
(0 -0 -1.99708)
(0 -0 -6.30928)
(0 -0 -7.43212)
(0 -0 -9.12886)
(0 -0 -10.5258)
(0 -0 -11.3852)
(0 -0 -11.9814)
(0 -0 -12.4795)
(0 -0 -12.9471)
(0 -0 -13.424)
(0 -0 -13.9411)
(0 -0 -14.5536)
(0 -0 -15.2864)
(0 -0 -16.1727)
(0 -0 -17.3001)
(0 -0 -18.723)
(0 -0 -20.641)
(0 -0 -23.9223)
(0 -0 -30.9496)
(0 -0 -10.3526)
(0 -0 -180.42)
(0 -0 -199.966)
(0 -0 -195.278)
(0 -0 -189.823)
(0 -0 -185.687)
(0 -0 -182.363)
(0 -0 -179.447)
(0 -0 -176.802)
(0 -0 -174.397)
(0 -0 -172.231)
(0 -0 -170.326)
(0 -0 -168.71)
(0 -0 -167.418)
(0 -0 -166.438)
(0 -0 -165.966)
(0 -0 -165.512)
(0 -0 -167.69)
(0 -0 -163.806)
(0 -0 -193.874)
(0 -0 -145.37)
)
;

boundaryField
{
    movingWall
    {
        type            calculated;
        value           nonuniform List<vector> 
20
(
(0 -0 -367.642)
(0 -0 -380.864)
(0 -0 -369.618)
(0 -0 -358.713)
(0 -0 -350.452)
(0 -0 -343.709)
(0 -0 -337.649)
(0 -0 -332.048)
(0 -0 -326.88)
(0 -0 -322.142)
(0 -0 -317.851)
(0 -0 -314.036)
(0 -0 -310.765)
(0 -0 -308.018)
(0 -0 -306.196)
(0 -0 -304.287)
(0 -0 -307.569)
(0 -0 -298.604)
(0 -0 -358.818)
(0 -0 -238.866)
)
;
    }
    fixedWalls
    {
        type            calculated;
        value           nonuniform List<vector> 
60
(
(0 -0 0.113948)
(0 -0 1.10805)
(0 -0 3.1138)
(0 -0 5.68547)
(0 -0 8.61949)
(0 -0 11.6251)
(0 -0 14.4219)
(0 -0 16.7624)
(0 -0 18.4721)
(0 -0 19.4667)
(0 -0 19.7323)
(0 -0 19.3449)
(0 -0 18.4093)
(0 -0 17.1398)
(0 -0 15.6139)
(0 -0 14.7107)
(0 -0 12.2845)
(0 -0 18.2081)
(0 -0 1.21067)
(0 -0 -159.394)
(0 -0 -1.00446)
(0 -0 -0.890087)
(0 -0 2.5207)
(0 -0 10.3784)
(0 -0 25.8364)
(0 -0 43.6962)
(0 -0 61.5009)
(0 -0 75.8759)
(0 -0 85.7517)
(0 -0 92.3084)
(0 -0 96.4603)
(0 -0 99.2142)
(0 -0 101.237)
(0 -0 102.699)
(0 -0 103.496)
(0 -0 104.176)
(0 -0 105.311)
(0 -0 99.6917)
(0 -0 53.4367)
(0 -0 -115.518)
(0 -0 0.0920469)
(0 -0 0.876143)
(0 -0 2.31721)
(0 -0 4.07471)
(0 -0 6.17839)
(0 -0 8.77407)
(0 -0 12.0754)
(0 -0 16.2745)
(0 -0 21.2488)
(0 -0 26.4508)
(0 -0 31.079)
(0 -0 34.1606)
(0 -0 34.9565)
(0 -0 32.904)
(0 -0 27.9987)
(0 -0 21.0113)
(0 -0 13.118)
(0 -0 5.28247)
(0 -0 0.29563)
(0 -0 -0.899488)
)
;
    }
    frontAndBack
    {
        type            empty;
    }
}


// ************************************************************************* //
