/*--------------------------------*- C++ -*----------------------------------*\
| =========                 |                                                 |
| \\      /  F ield         | OpenFOAM: The Open Source CFD Toolbox           |
|  \\    /   O peration     | Version:  2312                                  |
|   \\  /    A nd           | Website:  www.openfoam.com                      |
|    \\/     M anipulation  |                                                 |
\*---------------------------------------------------------------------------*/
FoamFile
{
    version     2.0;
    format      ascii;
    arch        "LSB;label=32;scalar=64";
    class       volVectorField;
    location    "8.5";
    object      ddtU;
}
// * * * * * * * * * * * * * * * * * * * * * * * * * * * * * * * * * * * * * //

dimensions      [0 1 -2 0 0 0 0];

internalField   nonuniform List<vector> 
400
(
(-1.33227e-13 2.14594e-14 0)
(-6.66134e-14 -5.69121e-14 0)
(6.66134e-14 -1.08048e-14 0)
(0 -3.75412e-16 0)
(2.22045e-14 -7.17151e-15 0)
(2.22045e-14 -1.04246e-15 0)
(-2.22045e-14 9.19947e-15 0)
(-2.22045e-14 5.94747e-15 0)
(-2.22045e-14 3.59605e-15 0)
(2.22045e-14 -3.02169e-15 0)
(2.22045e-14 -4.6031e-16 0)
(4.44089e-14 1.01911e-14 0)
(0 -9.02414e-16 0)
(0 6.60279e-16 0)
(0 -4.52868e-15 0)
(0 -4.91755e-15 0)
(0 -5.45092e-16 0)
(2.22045e-14 -2.31832e-15 0)
(0 -2.36898e-15 0)
(0 4.54762e-15 0)
(-6.66134e-14 -9.33792e-14 0)
(-4.44089e-14 -5.29091e-14 0)
(-8.88178e-14 -2.75861e-14 0)
(-4.44089e-14 -7.33446e-15 0)
(-4.44089e-14 -9.22632e-15 0)
(-4.44089e-14 -3.94443e-15 0)
(-4.44089e-14 3.24194e-15 0)
(0 -5.32164e-15 0)
(0 -1.38325e-14 0)
(-4.44089e-14 -1.66315e-14 0)
(-4.44089e-14 -1.15466e-14 0)
(0 4.79669e-15 0)
(0 6.80536e-15 0)
(-4.44089e-14 -4.35783e-15 0)
(4.44089e-14 1.84809e-15 0)
(0 6.4148e-15 0)
(0 -4.97483e-15 0)
(0 -3.0356e-15 0)
(0 4.81037e-15 0)
(0 7.24361e-15 0)
(2.22045e-14 -1.51027e-13 0)
(0 3.17294e-15 0)
(-2.22045e-14 -1.50331e-14 0)
(0 -2.48503e-14 0)
(-4.44089e-14 -2.25715e-14 0)
(4.44089e-14 -1.13942e-14 0)
(0 -7.84737e-15 0)
(0 -1.10435e-14 0)
(0 -4.96371e-15 0)
(0 5.92712e-15 0)
(0 -1.99739e-15 0)
(0 4.06827e-15 0)
(0 6.59811e-15 0)
(-4.44089e-14 -1.37405e-14 0)
(0 -9.96745e-15 0)
(0 -2.90094e-16 0)
(0 -1.38426e-14 0)
(-4.44089e-14 9.60392e-16 0)
(-4.44089e-14 1.29362e-14 0)
(0 2.94177e-15 0)
(4.44089e-14 -6.85274e-14 0)
(0 -8.05844e-15 0)
(4.44089e-14 -9.46124e-15 0)
(4.44089e-14 -2.54038e-14 0)
(0 -2.92483e-14 0)
(0 -1.76131e-14 0)
(0 -6.77805e-15 0)
(0 1.29422e-15 0)
(-4.44089e-14 -7.42893e-15 0)
(0 4.96581e-15 0)
(-4.44089e-14 -5.76986e-16 0)
(4.44089e-14 -1.41679e-14 0)
(4.44089e-14 -1.06775e-14 0)
(6.66134e-14 -1.17655e-15 0)
(4.44089e-14 -8.62813e-15 0)
(2.22045e-14 -9.08019e-15 0)
(-2.22045e-14 5.8443e-15 0)
(-2.22045e-14 8.71189e-15 0)
(0 1.87281e-15 0)
(-2.22045e-14 -1.07258e-14 0)
(-1.11022e-13 -1.27896e-13 0)
(-4.44089e-14 -3.99908e-14 0)
(4.44089e-14 -3.26747e-14 0)
(4.44089e-14 -1.30408e-14 0)
(2.22045e-14 -6.34091e-15 0)
(0 7.99631e-16 0)
(0 3.83647e-15 0)
(-4.44089e-14 1.06796e-14 0)
(-2.22045e-14 -1.60073e-14 0)
(-1.11022e-13 -2.98002e-14 0)
(0 -2.3036e-14 0)
(-4.44089e-14 -4.76422e-14 0)
(-2.22045e-14 -3.561e-14 0)
(0 -4.66425e-15 0)
(2.22045e-14 1.351e-14 0)
(-2.22045e-14 1.86199e-14 0)
(-4.44089e-14 2.95231e-14 0)
(0 7.99215e-15 0)
(0 -1.3684e-14 0)
(0 -1.79484e-14 0)
(-4.44089e-14 -1.16499e-13 0)
(2.22045e-14 -5.23471e-14 0)
(-8.88178e-14 -2.37333e-14 0)
(-8.88178e-14 -1.30702e-14 0)
(-4.44089e-14 -4.59239e-15 0)
(-1.33227e-13 -9.62817e-15 0)
(0 -1.52151e-14 0)
(4.44089e-14 -2.36176e-14 0)
(4.44089e-14 -2.02944e-14 0)
(6.66134e-14 -1.77856e-14 0)
(-2.22045e-14 -6.56485e-15 0)
(2.22045e-14 -1.46193e-14 0)
(-2.22045e-14 -3.21443e-14 0)
(-2.22045e-14 -1.27875e-14 0)
(0 1.08232e-14 0)
(0 1.20336e-14 0)
(0 1.066e-14 0)
(4.44089e-14 -9.19755e-16 0)
(2.22045e-14 -1.49304e-15 0)
(2.22045e-14 -1.22262e-15 0)
(8.88178e-14 6.86371e-14 0)
(-4.44089e-14 -3.94515e-14 0)
(0 5.13963e-15 0)
(-2.22045e-14 -1.00775e-14 0)
(0 -1.10115e-14 0)
(-2.22045e-14 -3.88053e-14 0)
(2.22045e-14 -4.28489e-14 0)
(0 -4.19098e-14 0)
(0 -3.5538e-14 0)
(-4.44089e-14 -2.85837e-14 0)
(0 -1.72499e-14 0)
(0 -5.58945e-15 0)
(4.44089e-14 -2.22133e-15 0)
(0 -4.11609e-15 0)
(-4.44089e-14 1.28534e-14 0)
(0 1.52594e-14 0)
(-6.66134e-14 -1.31606e-14 0)
(4.44089e-14 -4.4071e-15 0)
(0 1.63248e-14 0)
(2.22045e-14 1.19463e-14 0)
(-1.77636e-13 -1.105e-13 0)
(0 -2.3307e-14 0)
(-4.44089e-14 -2.4639e-14 0)
(0 -1.38914e-14 0)
(4.44089e-14 -2.12651e-14 0)
(0 -3.36416e-14 0)
(0 -2.31503e-14 0)
(0 -1.68264e-14 0)
(4.44089e-14 -2.85135e-14 0)
(0 -3.59921e-14 0)
(-4.44089e-14 -2.45707e-14 0)
(4.44089e-14 -1.10825e-14 0)
(-4.44089e-14 1.48743e-14 0)
(-4.44089e-14 1.9407e-15 0)
(-4.44089e-14 -1.86273e-15 0)
(4.44089e-14 2.96694e-15 0)
(4.44089e-14 -5.40325e-15 0)
(-4.44089e-14 6.8776e-15 0)
(0 1.40393e-14 0)
(0 9.54434e-15 0)
(4.44089e-14 -4.07637e-14 0)
(-4.44089e-14 -3.97473e-14 0)
(-2.22045e-14 -5.49591e-14 0)
(0 -2.60616e-14 0)
(-2.22045e-14 -2.68315e-14 0)
(-2.22045e-14 -3.11071e-14 0)
(-6.66134e-14 -2.09872e-14 0)
(2.22045e-14 -1.18113e-14 0)
(0 -2.0785e-14 0)
(-6.66134e-14 -1.73868e-14 0)
(-2.22045e-14 -1.49531e-14 0)
(-4.44089e-14 2.1684e-15 0)
(0 1.22436e-15 0)
(4.44089e-14 -1.1271e-14 0)
(4.44089e-14 -1.72311e-14 0)
(0 -1.91881e-14 0)
(0 1.42139e-14 0)
(0 2.10396e-14 0)
(0 6.11476e-15 0)
(-2.22045e-14 1.35225e-14 0)
(-4.44089e-14 2.33169e-13 0)
(-2.22045e-14 -6.19579e-14 0)
(-4.44089e-14 -2.30626e-14 0)
(-8.88178e-14 -3.05188e-14 0)
(4.44089e-14 -1.11268e-14 0)
(-4.44089e-14 -9.28238e-15 0)
(-2.22045e-14 -3.00033e-14 0)
(-4.44089e-14 -2.27906e-14 0)
(0 -1.21639e-14 0)
(-4.44089e-14 -2.23896e-14 0)
(-4.44089e-14 -3.98654e-14 0)
(0 -2.368e-14 0)
(4.44089e-14 -1.08908e-14 0)
(6.66134e-14 -4.50565e-15 0)
(2.22045e-14 6.71564e-15 0)
(2.22045e-14 3.58182e-15 0)
(-4.44089e-14 6.51931e-15 0)
(0 1.55496e-14 0)
(0 1.02922e-14 0)
(0 9.24354e-15 0)
(8.88178e-14 -2.04803e-13 0)
(0 2.17733e-14 0)
(8.88178e-14 -8.7309e-15 0)
(-2.22045e-14 -1.0347e-14 0)
(4.44089e-14 -6.19201e-15 0)
(0 -1.12921e-15 0)
(0 -3.29362e-14 0)
(2.22045e-14 -3.96474e-14 0)
(2.22045e-14 -1.13681e-14 0)
(2.22045e-14 -4.38919e-15 0)
(-4.44089e-14 -1.71844e-14 0)
(-2.22045e-14 -1.45876e-14 0)
(-2.22045e-14 1.75533e-14 0)
(-8.88178e-14 1.28796e-14 0)
(-4.44089e-14 -1.40206e-14 0)
(0 -8.50868e-15 0)
(0 -1.48405e-14 0)
(4.44089e-14 1.43611e-15 0)
(2.22045e-14 1.58844e-14 0)
(0 7.11617e-15 0)
(2.22045e-14 -2.60707e-14 0)
(0 -4.47712e-15 0)
(-2.22045e-14 -7.57768e-15 0)
(0 -1.81957e-14 0)
(2.22045e-14 -1.16856e-14 0)
(4.44089e-14 -9.12988e-15 0)
(2.22045e-14 -7.48333e-15 0)
(-2.22045e-14 -1.43903e-14 0)
(-6.66134e-14 -8.10904e-15 0)
(-4.44089e-14 4.14331e-15 0)
(-2.22045e-14 3.43803e-15 0)
(-2.22045e-14 -5.90455e-15 0)
(4.44089e-14 -4.19648e-15 0)
(0 -1.13386e-14 0)
(2.22045e-14 -2.8747e-14 0)
(-2.22045e-14 -1.38885e-14 0)
(0 -5.40538e-15 0)
(-2.22045e-14 -5.40008e-15 0)
(0 -1.5696e-15 0)
(-2.22045e-14 1.36713e-14 0)
(-8.88178e-14 1.22778e-13 0)
(0 -2.35327e-14 0)
(8.88178e-14 -5.9238e-15 0)
(0 -2.71975e-14 0)
(0 -3.2922e-14 0)
(4.44089e-14 -1.82084e-14 0)
(0 1.71762e-14 0)
(0 1.28168e-14 0)
(0 -1.45026e-14 0)
(4.44089e-14 -2.27038e-14 0)
(4.44089e-14 -1.10767e-14 0)
(4.44089e-14 -6.58812e-15 0)
(4.44089e-14 -1.33654e-14 0)
(6.66134e-14 -1.95156e-15 0)
(0 -4.83863e-16 0)
(-4.44089e-14 -1.83996e-14 0)
(-4.44089e-14 -5.70111e-15 0)
(0 5.06747e-15 0)
(-4.44089e-14 1.91619e-15 0)
(-4.44089e-14 -5.54084e-15 0)
(-2.22045e-14 -1.63315e-13 0)
(4.44089e-14 -2.63106e-14 0)
(4.44089e-14 -2.98992e-14 0)
(4.44089e-14 -1.48481e-14 0)
(4.44089e-14 -1.63626e-14 0)
(0 -3.60698e-15 0)
(0 3.30964e-15 0)
(4.44089e-14 6.72705e-15 0)
(4.44089e-14 2.82183e-16 0)
(0 -2.46688e-17 0)
(0 2.49914e-15 0)
(0 6.6284e-15 0)
(2.22045e-14 1.28165e-15 0)
(0 -1.30654e-14 0)
(2.22045e-14 -9.23499e-15 0)
(0 2.25775e-15 0)
(-4.44089e-14 3.42033e-15 0)
(-2.22045e-14 -1.0746e-14 0)
(0 -1.75116e-14 0)
(8.88178e-14 -7.54904e-15 0)
(1.33227e-13 1.94283e-14 0)
(0 -6.87275e-14 0)
(0 -3.18777e-14 0)
(0 -2.03474e-14 0)
(-4.44089e-14 -8.995e-15 0)
(-4.44089e-14 -8.19227e-15 0)
(4.44089e-14 -9.4652e-15 0)
(4.44089e-14 6.43012e-15 0)
(0 1.59516e-14 0)
(0 1.49804e-14 0)
(0 3.74755e-15 0)
(0 -2.80247e-15 0)
(8.88178e-14 -5.10644e-15 0)
(8.88178e-14 -7.53518e-16 0)
(0 1.91083e-14 0)
(-4.44089e-14 2.77419e-14 0)
(0 -7.55735e-15 0)
(4.44089e-14 -2.19544e-14 0)
(-2.22045e-14 -2.37778e-14 0)
(0 4.93644e-15 0)
(-8.88178e-14 -8.26723e-14 0)
(-4.44089e-14 -2.04417e-14 0)
(0 -1.74796e-14 0)
(-4.44089e-14 -1.3549e-14 0)
(0 -1.32303e-14 0)
(2.22045e-14 -1.03668e-14 0)
(-2.22045e-14 -1.70697e-14 0)
(0 3.28253e-15 0)
(2.22045e-14 2.95066e-14 0)
(-2.22045e-14 1.80235e-14 0)
(-2.22045e-14 4.19309e-15 0)
(0 -3.27784e-15 0)
(0 -2.98362e-15 0)
(-4.44089e-14 1.69721e-14 0)
(0 2.81077e-14 0)
(0 2.15439e-15 0)
(4.44089e-14 -1.4304e-14 0)
(0 -6.2352e-15 0)
(0 3.24299e-15 0)
(0 -3.35442e-15 0)
(-4.44089e-14 -9.22089e-14 0)
(-6.66134e-14 -1.69427e-14 0)
(2.22045e-14 -2.7278e-14 0)
(2.22045e-14 -1.92365e-14 0)
(-6.66134e-14 -8.65215e-15 0)
(0 -6.60232e-15 0)
(0 -8.66814e-15 0)
(-6.66134e-14 1.54861e-14 0)
(-4.44089e-14 2.33203e-14 0)
(0 2.09372e-14 0)
(-4.44089e-14 9.62493e-15 0)
(0 6.92633e-15 0)
(-4.44089e-14 -5.87368e-15 0)
(-4.44089e-14 -1.08743e-14 0)
(0 -1.47877e-14 0)
(-2.22045e-14 -1.62951e-14 0)
(4.44089e-14 1.31816e-14 0)
(2.22045e-14 8.54515e-15 0)
(0 2.76496e-15 0)
(2.22045e-14 -6.34173e-15 0)
(2.22045e-14 7.31293e-14 0)
(0 -3.69581e-14 0)
(-2.22045e-14 -1.78933e-14 0)
(-4.44089e-14 -1.54428e-14 0)
(-2.22045e-14 -2.57743e-14 0)
(4.44089e-14 -2.33493e-14 0)
(0 1.51545e-14 0)
(0 2.55949e-14 0)
(2.22045e-14 -1.32087e-15 0)
(2.22045e-14 8.11399e-15 0)
(-2.22045e-14 1.29391e-14 0)
(2.22045e-14 1.61826e-14 0)
(2.22045e-14 5.86361e-15 0)
(2.22045e-14 -3.98625e-15 0)
(4.44089e-14 -2.79219e-14 0)
(-2.22045e-14 -1.79403e-14 0)
(-4.44089e-14 -5.28329e-15 0)
(0 3.7313e-15 0)
(0 1.20445e-15 0)
(0 -4.48815e-15 0)
(0 -2.49783e-14 0)
(-4.44089e-14 -6.22619e-15 0)
(-4.44089e-14 -6.94536e-15 0)
(-2.22045e-14 -2.68523e-15 0)
(0 -1.15461e-14 0)
(-6.66134e-14 -1.44659e-15 0)
(-4.44089e-14 4.79603e-15 0)
(0 1.31992e-15 0)
(0 -3.79824e-15 0)
(0 3.80641e-16 0)
(0 1.25386e-14 0)
(4.44089e-14 -4.75673e-16 0)
(0 1.04655e-15 0)
(4.44089e-14 -3.50903e-15 0)
(4.44089e-14 -7.79614e-15 0)
(0 1.40448e-14 0)
(-2.22045e-14 -7.72719e-15 0)
(0 -1.47467e-14 0)
(-6.66134e-14 -1.44876e-14 0)
(0 -4.75497e-15 0)
(0 -5.47468e-14 0)
(0 2.01152e-14 0)
(0 -7.60078e-15 0)
(-2.22045e-14 -1.91719e-15 0)
(0 6.21667e-17 0)
(0 3.15717e-15 0)
(-2.22045e-14 -9.89169e-15 0)
(0 -5.59642e-15 0)
(-2.22045e-14 -2.02464e-15 0)
(-4.44089e-14 -5.94081e-15 0)
(-4.44089e-14 2.27881e-18 0)
(-2.22045e-14 -9.16014e-15 0)
(-4.44089e-14 -4.57705e-15 0)
(-2.22045e-14 -5.0164e-15 0)
(-4.44089e-14 5.69673e-15 0)
(-4.44089e-14 1.97056e-14 0)
(4.44089e-14 2.38003e-15 0)
(0 -7.05552e-15 0)
(2.22045e-14 -1.32668e-14 0)
(2.22045e-14 -1.9456e-15 0)
)
;

boundaryField
{
    movingWall
    {
        type            calculated;
        value           uniform (0 0 0);
    }
    fixedWalls
    {
        type            calculated;
        value           uniform (0 0 0);
    }
    frontAndBack
    {
        type            empty;
    }
}


// ************************************************************************* //
