/*--------------------------------*- C++ -*----------------------------------*\
| =========                 |                                                 |
| \\      /  F ield         | OpenFOAM: The Open Source CFD Toolbox           |
|  \\    /   O peration     | Version:  2312                                  |
|   \\  /    A nd           | Website:  www.openfoam.com                      |
|    \\/     M anipulation  |                                                 |
\*---------------------------------------------------------------------------*/
FoamFile
{
    version     2.0;
    format      ascii;
    arch        "LSB;label=32;scalar=64";
    class       volScalarField;
    location    "8.5";
    object      divPhi;
}
// * * * * * * * * * * * * * * * * * * * * * * * * * * * * * * * * * * * * * //

dimensions      [0 0 -1 0 0 0 0];

internalField   nonuniform List<scalar> 
400
(
-1.89735e-13
-1.05626e-14
2.25955e-15
4.80683e-15
1.26698e-14
-1.4452e-14
1.09032e-14
8.97793e-15
-2.10464e-14
4.89604e-15
2.2771e-15
-9.49952e-15
1.5183e-14
7.20949e-15
-1.55087e-14
8.86878e-15
-1.70655e-14
1.97746e-14
-8.19547e-15
0
0
5.07305e-16
4.26727e-15
-3.72075e-15
-1.47657e-14
3.15263e-14
-2.0389e-15
1.7748e-14
-1.11869e-14
-3.88432e-15
-6.18278e-15
-1.03259e-14
1.00774e-15
1.16487e-14
-6.7832e-15
-3.34603e-15
4.73201e-15
1.35011e-14
-2.47234e-14
0
0
-6.41998e-15
1.00434e-14
6.18429e-15
4.16372e-14
-1.83734e-14
-4.35675e-15
1.67834e-15
-1.53489e-14
5.43221e-15
-9.1824e-15
-3.13828e-14
3.66875e-17
1.39091e-14
-1.85661e-14
-9.07227e-16
-2.94766e-15
2.84591e-14
-5.96586e-15
2.71051e-14
0
3.3328e-15
-1.29331e-14
6.28957e-15
-7.06349e-15
2.26596e-15
1.19394e-14
-2.36455e-14
-3.45004e-15
2.1645e-14
-1.87699e-14
-1.72866e-15
-1.84946e-16
1.41654e-15
9.33919e-15
-1.27838e-14
7.96929e-15
8.62933e-15
-1.02573e-14
0
0
9.94649e-15
-2.13671e-14
3.13336e-14
-1.4857e-14
-1.95863e-15
8.88585e-15
1.04961e-14
8.64088e-15
-1.06798e-14
1.60783e-14
-1.67006e-14
5.374e-15
1.90037e-15
1.70155e-14
-2.07362e-14
1.13142e-14
5.19226e-15
1.15345e-14
0
0
3.55085e-17
1.94858e-14
-2.08659e-14
2.12654e-14
2.09513e-15
1.20448e-14
8.52627e-15
8.94966e-15
-2.59732e-14
-6.67284e-16
-9.35784e-15
1.97277e-14
3.3223e-14
-4.7895e-15
6.13169e-15
2.09052e-14
5.07595e-15
2.19193e-14
0
0
3.57592e-15
2.17192e-14
-6.39935e-15
-2.30449e-14
7.55756e-15
1.00797e-14
-1.07188e-15
1.05411e-14
1.99333e-16
2.08496e-14
-2.84795e-15
-5.34589e-15
-1.43294e-14
-2.3073e-14
-2.4863e-15
-1.34359e-14
3.28534e-14
-5.90678e-15
0
0
-1.93711e-14
-1.37763e-14
8.51688e-15
-1.18394e-14
9.55376e-15
3.81734e-15
1.59991e-14
2.89324e-15
7.24979e-15
-1.64989e-15
-1.15048e-14
-1.47995e-14
3.23514e-15
3.60592e-15
2.59228e-15
-1.97127e-14
-2.32568e-15
-9.78612e-15
-2.71051e-14
2.71051e-14
-6.97025e-15
1.7303e-14
1.14776e-14
6.10944e-16
2.68957e-14
-1.21901e-14
-3.03334e-14
9.81942e-15
1.45776e-14
-4.24429e-15
-1.30867e-14
1.3403e-14
1.67989e-14
-4.03955e-15
4.28651e-15
-1.71785e-14
9.16319e-15
-1.51932e-14
2.71051e-14
0
-1.50785e-14
9.74995e-15
1.48811e-14
1.40719e-15
-7.00659e-15
-9.80858e-15
2.10144e-14
-4.60726e-15
-3.59966e-15
-2.12844e-15
-7.93769e-15
2.85708e-14
-8.48253e-15
-3.07532e-15
-1.06377e-14
9.01588e-15
3.17076e-14
-9.68252e-15
0
-2.71051e-14
2.37039e-14
-1.17929e-14
-1.74267e-14
1.54454e-14
-6.31623e-16
1.723e-15
-3.34973e-14
-1.06132e-14
1.87619e-14
-5.57358e-15
-2.07311e-15
2.97805e-14
-3.13569e-14
1.29602e-15
-7.02791e-15
7.12702e-15
-1.4036e-14
1.00823e-14
0
0
-1.79427e-15
-4.07232e-15
-2.89421e-16
-2.36887e-14
1.82295e-14
-7.34652e-15
-2.24338e-14
-8.70582e-15
2.83026e-15
-1.20555e-14
8.19026e-15
7.86083e-15
-5.06412e-15
-7.07104e-15
-2.8685e-15
1.48669e-14
-1.66555e-15
5.57329e-15
0
0
2.24485e-14
-1.43745e-15
-1.69e-14
-1.72391e-14
-1.79018e-14
7.81565e-15
2.1168e-14
1.13799e-14
9.76277e-15
-3.63842e-14
2.90764e-14
1.09289e-14
1.81423e-14
-2.36616e-14
-1.44843e-14
-1.59579e-14
-4.43208e-15
1.02571e-14
0
-2.71051e-14
-1.5767e-14
-9.11587e-15
3.18463e-15
1.27846e-14
1.97657e-14
-1.49999e-15
1.9157e-14
2.13457e-15
3.19607e-14
-6.9738e-15
-7.30138e-17
6.65706e-15
-2.55704e-14
-1.45959e-15
1.89812e-14
3.49499e-14
-1.29342e-14
1.91979e-16
0
0
4.32428e-15
-2.26573e-14
3.20332e-14
2.36702e-14
-6.85764e-16
-1.11714e-14
-1.16405e-14
4.23393e-15
3.88365e-15
-2.74386e-15
1.51848e-15
3.50511e-14
8.23753e-15
7.27753e-15
-1.54951e-14
2.3518e-14
-3.91796e-14
6.14015e-15
2.71051e-14
0
-1.79239e-15
9.0898e-15
-2.89905e-17
-8.78987e-15
1.50632e-14
-3.57092e-14
-8.30585e-15
-6.37019e-15
6.71002e-17
1.34693e-14
1.4306e-14
4.3761e-15
-4.34364e-15
1.26624e-14
-4.23692e-15
6.72072e-15
-3.94909e-15
1.97344e-14
0
0
2.43948e-14
-1.28378e-15
-8.41122e-16
1.14207e-14
-1.15514e-15
-1.95885e-14
-6.54574e-15
-1.87944e-14
4.2157e-15
-8.95947e-15
-1.40187e-15
-1.62784e-14
-1.14402e-14
5.85429e-15
1.99267e-14
-1.16427e-14
1.81775e-15
-7.10813e-15
0
0
-2.37582e-14
1.48788e-14
-9.95746e-16
9.36538e-15
2.47859e-14
5.24638e-15
-1.42246e-14
3.64752e-15
1.30836e-14
1.61599e-14
-6.34392e-15
3.1636e-15
-3.69166e-15
-6.15736e-17
-4.14933e-15
-2.68546e-14
-2.60014e-14
1.10291e-14
0
0
3.18814e-16
-1.60851e-14
-2.032e-15
-3.31664e-15
9.57694e-15
1.75816e-14
1.11527e-14
3.5535e-15
-1.41213e-14
-7.91257e-15
1.82156e-14
-6.2112e-15
1.12619e-14
-1.25905e-14
-1.72954e-14
4.54158e-15
-1.71487e-14
3.93412e-14
-2.71051e-14
2.71051e-14
-2.71051e-14
2.71051e-14
0
0
0
0
2.71051e-14
0
0
0
0
0
2.71051e-14
-2.71051e-14
2.71051e-14
2.71051e-14
0
2.71051e-14
0
)
;

boundaryField
{
    movingWall
    {
        type            extrapolatedCalculated;
        value           nonuniform List<scalar> 
20
(
2.71051e-14
-2.71051e-14
2.71051e-14
0
0
0
0
2.71051e-14
0
0
0
0
0
2.71051e-14
-2.71051e-14
2.71051e-14
2.71051e-14
0
2.71051e-14
0
)
;
    }
    fixedWalls
    {
        type            extrapolatedCalculated;
        value           nonuniform List<scalar> 
60
(
-1.89735e-13
0
0
0
0
0
0
0
2.71051e-14
0
-2.71051e-14
0
0
-2.71051e-14
0
0
0
0
0
2.71051e-14
0
0
2.71051e-14
0
0
0
0
-2.71051e-14
2.71051e-14
0
0
0
0
0
2.71051e-14
0
0
0
-2.71051e-14
0
-1.89735e-13
-1.05626e-14
2.25955e-15
4.80683e-15
1.26698e-14
-1.4452e-14
1.09032e-14
8.97793e-15
-2.10464e-14
4.89604e-15
2.2771e-15
-9.49952e-15
1.5183e-14
7.20949e-15
-1.55087e-14
8.86878e-15
-1.70655e-14
1.97746e-14
-8.19547e-15
0
)
;
    }
    frontAndBack
    {
        type            empty;
    }
}


// ************************************************************************* //
