/*--------------------------------*- C++ -*----------------------------------*\
| =========                 |                                                 |
| \\      /  F ield         | OpenFOAM: The Open Source CFD Toolbox           |
|  \\    /   O peration     | Version:  2312                                  |
|   \\  /    A nd           | Website:  www.openfoam.com                      |
|    \\/     M anipulation  |                                                 |
\*---------------------------------------------------------------------------*/
FoamFile
{
    version     2.0;
    format      ascii;
    arch        "LSB;label=32;scalar=64";
    class       volScalarField;
    location    "8.5";
    object      divU;
}
// * * * * * * * * * * * * * * * * * * * * * * * * * * * * * * * * * * * * * //

dimensions      [0 0 -1 0 0 0 0];

internalField   nonuniform List<scalar> 
400
(
9.37835e-12
-1.61087e-12
3.93147e-13
-1.31586e-13
5.08522e-14
-1.20763e-14
-3.06358e-14
3.05055e-15
3.84674e-15
4.2028e-15
-4.29412e-16
1.06703e-14
-5.65836e-15
-2.15776e-14
-9.40738e-17
4.61517e-16
4.87037e-15
-4.82022e-15
-1.4079e-15
0
-1.27394e-11
1.99956e-12
-4.3699e-13
1.26633e-13
7.31842e-15
-2.1477e-14
3.1206e-14
-6.75474e-15
-7.04663e-15
-7.96088e-15
-7.7802e-15
3.2751e-14
-1.0466e-15
-4.20533e-15
3.56708e-14
-3.77876e-15
-1.98872e-15
1.59611e-14
-3.05927e-14
0
-1.6263e-12
-1.98493e-13
-1.31296e-14
-2.21615e-14
1.65923e-14
-2.38724e-14
2.24603e-14
-2.26898e-14
-1.85763e-14
1.17957e-14
1.14843e-16
-2.09574e-14
-1.7614e-14
-5.69267e-14
-2.41448e-14
8.74952e-15
-1.48609e-14
-5.57652e-15
5.27769e-14
0
7.69784e-12
-1.58954e-13
6.42039e-15
5.33471e-15
-4.13849e-14
1.92378e-15
1.09254e-14
-2.15676e-14
2.80531e-15
1.96237e-14
-5.41254e-14
6.29589e-14
4.90763e-14
8.10824e-15
3.41495e-14
-1.55058e-14
2.95749e-16
1.72287e-14
1.16351e-14
-2.71051e-14
-3.33392e-12
-3.06123e-13
1.3082e-13
3.16459e-15
2.827e-14
3.66352e-15
1.7524e-14
-2.65876e-14
-1.06094e-14
9.23387e-15
-8.899e-15
8.83691e-15
-2.9373e-14
5.50489e-15
2.24997e-14
2.50793e-15
1.65113e-14
-5.14718e-15
1.57632e-14
0
-4.87891e-13
4.8758e-13
-1.0854e-13
6.38023e-14
-4.92103e-14
6.66649e-15
-3.12514e-14
1.49354e-14
3.57574e-14
1.78627e-14
-2.32077e-14
4.38552e-14
-3.87945e-15
-9.89053e-16
1.43902e-14
1.57814e-14
-6.97155e-14
4.01617e-14
1.9723e-14
-2.71051e-14
6.23416e-12
-1.78703e-12
3.06185e-13
-1.07526e-13
3.21258e-14
-1.05577e-14
2.83385e-14
-2.32623e-14
-2.94657e-14
-3.76181e-14
1.26123e-14
2.20041e-14
-1.19272e-14
-3.90021e-15
-2.17797e-14
-7.10459e-14
5.45553e-14
3.4272e-15
1.50819e-14
-2.71051e-14
-1.10047e-11
2.82386e-12
-5.63854e-13
2.04122e-13
-2.83586e-14
3.23075e-14
-6.02327e-15
2.97093e-15
-2.22731e-15
-1.78556e-14
5.65721e-14
-8.66684e-15
-9.40856e-15
-5.86799e-14
4.03499e-14
6.21456e-14
-6.62494e-14
-2.85336e-15
2.90831e-14
0
7.39968e-12
-2.20826e-12
4.36164e-13
-1.72253e-13
1.40618e-14
-4.13488e-14
-4.45104e-15
3.85467e-14
-8.6526e-15
-1.22067e-14
2.55879e-14
-1.57826e-14
-2.15989e-14
1.35081e-14
-1.94308e-14
4.35296e-15
-1.42488e-15
1.5213e-14
-1.93559e-14
-2.71051e-14
9.48677e-13
2.11827e-13
-7.51357e-14
3.46847e-14
-4.05054e-15
7.52184e-14
-5.37749e-14
5.24273e-15
-3.60692e-14
-2.76563e-15
2.46156e-16
2.10676e-14
4.19384e-14
3.58338e-14
3.97277e-14
-5.74972e-15
-2.53348e-14
-1.87691e-14
1.20474e-14
0
-6.64074e-12
1.98107e-12
-3.23975e-13
1.25974e-13
-6.65698e-14
-1.96475e-15
1.99881e-14
4.24754e-14
-4.07335e-15
9.00663e-15
-1.73362e-14
3.07757e-14
-3.04636e-14
-7.73146e-14
1.1706e-14
-1.51265e-14
-1.52991e-14
9.46352e-14
1.2432e-14
0
8.42967e-12
-3.33413e-12
6.33178e-13
-2.88386e-13
5.24489e-14
2.15259e-14
-3.90172e-14
-8.06923e-15
-9.49729e-14
6.83445e-14
2.53656e-14
3.05345e-14
-5.01692e-14
5.6614e-14
3.93879e-14
3.02897e-14
7.96685e-15
-3.62815e-14
3.47491e-14
-5.42101e-14
-7.04731e-12
2.62985e-12
-4.86429e-13
2.55023e-13
-6.33977e-14
-1.22503e-14
4.26127e-15
-4.50091e-15
1.05319e-14
6.99338e-15
-1.10448e-14
1.42019e-15
4.74481e-14
-1.15945e-14
-4.13619e-14
-1.83778e-14
1.82907e-14
-2.34792e-15
1.06157e-14
5.42101e-14
4.98733e-12
-1.27033e-12
2.36646e-13
-6.00563e-14
6.96289e-14
-6.22039e-14
4.57128e-14
-1.18526e-14
6.58012e-15
3.60462e-14
-5.71844e-15
2.61759e-14
-3.62475e-14
-4.97152e-14
6.55907e-14
6.25327e-15
7.53708e-15
-3.04546e-14
2.49698e-14
-5.42101e-14
-1.87025e-12
2.60798e-13
-1.08023e-13
2.93985e-14
-8.91386e-14
-1.47059e-14
5.27071e-14
-1.58536e-14
-3.35611e-14
7.25456e-16
3.53493e-15
1.23497e-14
4.98453e-14
1.08909e-15
4.4091e-15
-3.23207e-14
-5.85842e-15
5.883e-14
9.31913e-15
0
-5.99022e-12
1.22727e-12
-2.12612e-13
9.99759e-14
3.76545e-14
5.2092e-14
-3.81354e-14
3.44347e-14
7.20953e-15
-4.41489e-15
-8.39715e-15
2.26548e-14
-5.85797e-14
3.7191e-15
3.62545e-15
1.98341e-14
-2.21691e-14
-4.56421e-16
1.82418e-14
0
1.26039e-11
-1.69257e-12
3.83064e-13
-2.11693e-13
-2.88234e-14
2.21754e-14
-1.30975e-14
-4.29391e-14
-3.18903e-15
-2.1592e-14
3.09554e-14
3.01828e-14
-1.10505e-14
-3.74722e-14
4.53801e-14
3.99667e-15
4.26423e-14
-3.38817e-14
1.91581e-14
-2.71051e-14
-5.31259e-12
7.01462e-13
-1.30967e-13
7.4228e-14
-5.79067e-15
3.58185e-14
-2.82576e-14
3.89849e-14
-1.99886e-14
1.35865e-14
-9.98948e-15
2.53359e-14
-2.55705e-14
-2.51705e-15
-3.95859e-14
-3.83534e-14
1.40718e-15
4.68892e-15
-1.33489e-14
0
-1.12757e-11
1.0348e-12
-1.99565e-13
1.05961e-13
-3.49431e-14
-7.97768e-16
-1.16837e-14
3.881e-14
-1.96153e-14
-1.15031e-14
-7.8487e-15
1.85362e-14
-8.9744e-15
-2.36296e-14
2.63664e-14
-8.33892e-15
7.38786e-15
-4.95238e-14
3.73087e-14
0
9.86624e-12
-1.46367e-12
3.79471e-13
-1.35525e-13
0
0
0
2.71051e-14
-2.71051e-14
0
0
0
0
2.71051e-14
-2.71051e-14
0
0
2.71051e-14
5.42101e-14
-5.42101e-14
)
;

boundaryField
{
    movingWall
    {
        type            extrapolatedCalculated;
        value           nonuniform List<scalar> 
20
(
9.86624e-12
-1.46367e-12
3.79471e-13
-1.35525e-13
0
0
0
2.71051e-14
-2.71051e-14
0
0
0
0
2.71051e-14
-2.71051e-14
0
0
2.71051e-14
5.42101e-14
-5.42101e-14
)
;
    }
    fixedWalls
    {
        type            extrapolatedCalculated;
        value           nonuniform List<scalar> 
60
(
9.37835e-12
-1.27394e-11
-1.6263e-12
7.69784e-12
-3.33392e-12
-4.87891e-13
6.23416e-12
-1.10047e-11
7.39968e-12
9.48677e-13
-6.64074e-12
8.42967e-12
-7.04731e-12
4.98733e-12
-1.87025e-12
-5.99022e-12
1.26039e-11
-5.31259e-12
-1.12757e-11
9.86624e-12
0
0
0
-2.71051e-14
0
-2.71051e-14
-2.71051e-14
0
-2.71051e-14
0
0
-5.42101e-14
5.42101e-14
-5.42101e-14
0
0
-2.71051e-14
0
0
-5.42101e-14
9.37835e-12
-1.61087e-12
3.93147e-13
-1.31586e-13
5.08522e-14
-1.20763e-14
-3.06358e-14
3.05055e-15
3.84674e-15
4.2028e-15
-4.29412e-16
1.06703e-14
-5.65836e-15
-2.15776e-14
-9.40738e-17
4.61517e-16
4.87037e-15
-4.82022e-15
-1.4079e-15
0
)
;
    }
    frontAndBack
    {
        type            empty;
    }
}


// ************************************************************************* //
