/*--------------------------------*- C++ -*----------------------------------*\
| =========                 |                                                 |
| \\      /  F ield         | OpenFOAM: The Open Source CFD Toolbox           |
|  \\    /   O peration     | Version:  2312                                  |
|   \\  /    A nd           | Website:  www.openfoam.com                      |
|    \\/     M anipulation  |                                                 |
\*---------------------------------------------------------------------------*/
FoamFile
{
    version     2.0;
    format      ascii;
    arch        "LSB;label=32;scalar=64";
    class       volScalarField;
    location    "8.5";
    object      enstrophyField;
}
// * * * * * * * * * * * * * * * * * * * * * * * * * * * * * * * * * * * * * //

dimensions      [0 0 -2 0 0 0 0];

internalField   nonuniform List<scalar> 
400
(
1.61085e-23
2.42851e-23
1.11656e-24
5.00271e-26
1.52575e-27
4.68764e-29
6.6237e-30
2.11815e-29
1.32142e-29
6.78821e-30
2.54738e-29
2.46199e-28
9.31476e-30
1.16113e-27
3.95859e-29
8.31098e-30
1.47297e-27
2.35382e-30
9.94795e-32
3.25749e-30
3.0125e-25
1.45111e-24
1.11778e-25
6.31971e-31
1.49109e-26
4.12458e-27
2.66279e-27
8.40142e-28
1.2611e-27
1.0695e-27
1.43326e-27
4.82911e-27
3.41727e-31
1.20444e-28
1.68444e-27
2.00038e-27
1.77359e-27
8.44014e-30
1.58625e-29
2.88688e-30
1.83361e-24
9.94203e-24
5.74383e-25
6.95299e-27
8.58903e-27
2.2403e-27
4.8514e-28
1.35923e-27
3.87106e-30
2.61162e-29
1.01917e-28
1.42426e-28
4.07213e-29
3.46839e-27
1.65977e-27
1.09049e-27
2.0343e-30
1.61424e-27
4.1554e-29
2.6119e-30
3.4464e-25
2.32733e-26
1.39954e-27
1.8664e-27
3.82692e-27
6.34214e-28
5.32443e-27
6.16306e-29
1.05705e-29
6.57107e-29
2.57761e-29
1.90415e-27
3.6301e-28
1.72689e-27
2.20738e-27
1.37473e-27
1.09462e-28
9.41435e-28
4.81279e-28
1.11455e-31
7.0064e-25
4.82689e-24
2.88265e-25
7.47056e-27
9.56143e-27
6.61599e-27
8.96622e-27
1.92776e-27
2.57955e-27
4.5601e-27
7.99798e-27
3.12305e-27
3.89368e-28
2.51675e-27
1.23631e-28
2.64931e-27
2.60271e-27
1.35876e-31
4.49717e-29
5.76487e-28
3.52682e-24
7.14588e-24
3.90453e-25
2.19282e-26
1.5945e-27
4.75212e-29
1.17483e-30
3.97037e-29
2.97875e-31
4.72491e-27
7.94785e-27
1.71454e-27
3.01937e-28
3.22455e-29
1.95898e-27
3.21339e-30
1.14234e-30
8.05689e-31
1.11221e-29
3.64064e-29
6.03638e-24
4.917e-24
3.99253e-25
2.36493e-27
3.49552e-28
2.67219e-27
1.49702e-28
1.45543e-29
3.61371e-27
3.85181e-27
4.01854e-27
2.39364e-27
4.34426e-27
2.07684e-27
4.02323e-27
1.41809e-29
1.70799e-27
2.02266e-27
2.472e-30
2.36612e-28
6.0931e-26
5.87954e-25
2.34804e-26
2.43325e-27
5.81855e-29
7.19673e-29
5.02563e-28
1.62212e-30
1.01971e-27
4.99025e-27
3.54799e-27
7.80897e-28
7.14472e-28
1.11376e-27
2.27324e-28
5.9681e-32
4.41367e-28
1.19395e-27
2.38859e-28
2.61697e-28
1.41935e-23
1.77913e-23
1.09696e-24
3.91987e-26
8.96758e-27
1.10368e-27
5.75801e-28
1.36322e-27
3.53529e-27
7.71671e-30
7.3341e-29
3.85004e-28
1.10906e-28
2.15663e-27
8.30793e-27
1.39047e-27
3.34815e-29
1.69864e-28
1.16215e-30
1.39499e-30
3.39632e-23
2.81762e-23
1.44697e-24
9.29006e-26
2.81931e-27
1.39632e-27
8.46491e-27
5.54491e-28
2.17919e-28
4.73912e-27
2.44281e-27
2.14778e-28
8.07432e-29
2.30138e-27
7.16972e-27
2.50211e-27
1.19457e-26
3.81038e-28
1.33255e-28
7.24373e-29
2.61619e-23
1.33728e-23
8.56865e-25
1.56417e-26
6.71318e-27
1.30504e-27
5.25223e-27
3.57166e-27
8.27975e-29
4.19305e-28
2.37359e-27
1.78552e-28
6.80188e-32
2.14323e-27
8.44202e-31
1.45435e-27
5.14001e-28
4.77899e-29
7.24885e-29
6.73914e-28
2.29264e-24
1.40271e-24
9.23573e-26
3.36986e-27
2.39766e-27
4.27099e-28
7.17918e-27
6.57423e-27
6.76205e-27
7.70241e-27
6.93534e-27
1.79879e-27
1.46726e-27
3.00401e-27
2.78531e-27
7.13109e-32
1.14774e-27
2.60387e-27
2.48135e-27
4.79108e-29
6.42869e-24
1.32877e-24
1.1265e-25
7.16228e-28
3.04464e-27
7.59562e-27
4.46739e-27
1.06805e-27
8.15924e-29
1.68129e-27
2.48261e-29
5.71075e-35
4.86734e-31
9.84855e-30
5.44594e-28
1.73482e-27
1.96284e-27
3.89638e-29
5.5499e-30
2.58759e-31
1.25219e-23
7.05266e-24
4.0313e-25
2.97774e-26
2.75705e-27
1.39532e-27
1.78022e-27
2.24801e-27
4.02253e-30
2.01715e-27
7.89025e-28
1.71008e-27
7.65702e-28
7.61983e-28
3.92038e-31
5.13707e-29
2.8765e-29
2.50015e-27
2.15471e-27
3.52427e-28
1.31512e-23
1.83134e-23
9.84852e-25
3.79586e-26
7.97832e-27
1.23194e-27
3.2524e-28
3.31888e-31
3.59468e-27
1.18631e-27
1.62218e-27
2.96151e-29
2.56774e-27
5.26696e-28
1.61619e-27
2.26704e-27
1.47707e-28
2.05531e-28
1.24209e-29
2.85458e-27
5.4272e-24
1.40046e-23
7.21416e-25
4.33403e-26
1.92223e-27
1.37614e-27
2.96627e-28
2.27639e-28
1.11199e-27
1.00823e-29
2.62379e-27
3.32266e-27
1.55781e-27
3.59028e-27
2.61846e-27
3.01112e-27
5.88636e-27
3.48375e-29
1.14955e-28
1.68572e-28
3.73376e-26
1.35259e-25
1.09434e-27
7.87063e-27
8.03616e-28
7.13402e-30
1.1114e-28
2.88186e-28
2.51141e-28
2.01948e-28
6.48554e-28
2.97097e-27
2.55885e-27
2.94475e-27
3.47416e-27
2.8839e-30
2.37805e-29
2.45231e-28
5.23952e-30
4.30713e-29
4.8933e-24
2.01929e-23
1.06755e-24
6.76157e-26
4.50394e-28
1.14858e-28
1.69448e-27
2.25899e-27
3.96764e-28
3.68195e-28
5.63811e-28
3.17849e-29
4.80133e-28
3.06367e-28
7.14603e-28
5.6486e-32
6.67597e-28
3.31976e-28
1.16609e-27
6.20497e-28
4.3141e-24
1.00566e-23
6.80779e-25
2.46118e-26
4.56277e-27
5.92215e-28
3.90416e-28
3.70247e-27
3.83972e-30
4.96775e-29
1.7692e-27
1.66817e-27
1.07232e-29
6.80228e-29
4.22634e-28
2.34162e-27
2.11383e-29
9.00249e-29
2.10803e-27
4.92943e-29
4.37078e-24
1.05919e-23
3.13608e-25
4.35489e-26
9.23607e-28
1.6632e-27
8.89916e-29
2.85849e-28
3.98492e-28
1.61807e-30
1.59897e-27
1.09358e-29
1.39033e-28
2.59591e-29
8.17183e-28
5.51211e-28
2.12761e-29
5.9089e-29
2.31757e-29
7.86993e-28
)
;

boundaryField
{
    movingWall
    {
        type            calculated;
        value           nonuniform List<scalar> 
20
(
1.94324e-23
1.63873e-23
1.44515e-25
1.07165e-25
2.60188e-26
2.54273e-26
1.3427e-26
3.46526e-26
1.59778e-26
4.1057e-27
8.84889e-28
3.53986e-27
7.53956e-27
3.33029e-27
1.66644e-27
2.29913e-27
2.12761e-29
5.9089e-29
7.06908e-28
5.13959e-27
)
;
    }
    fixedWalls
    {
        type            calculated;
        value           nonuniform List<scalar> 
60
(
4.4678e-22
2.65936e-23
1.90536e-22
3.91125e-25
8.61444e-23
1.37734e-22
1.03653e-22
1.04665e-23
3.45828e-22
5.3353e-22
2.64549e-22
3.06385e-23
3.0764e-23
1.45727e-22
3.28492e-22
2.49708e-22
1.45082e-24
3.66072e-22
1.87062e-22
1.82528e-22
5.94658e-30
3.59716e-29
1.76282e-29
2.78157e-29
1.49879e-28
3.42193e-29
5.77397e-28
1.52972e-28
1.83876e-29
1.57818e-28
1.13887e-27
5.24495e-29
8.90015e-30
3.34708e-29
3.8072e-27
5.97242e-29
2.0952e-28
9.88475e-28
5.56412e-30
1.15372e-27
2.47806e-23
2.91097e-23
6.48764e-25
1.59874e-25
1.69479e-26
3.81256e-26
1.64304e-26
9.763e-27
3.50092e-27
8.39058e-27
3.33582e-27
1.49162e-26
4.33697e-27
1.81216e-29
3.95859e-29
8.31098e-30
3.9502e-27
1.08478e-27
3.98402e-27
3.25749e-30
)
;
    }
    frontAndBack
    {
        type            empty;
    }
}


// ************************************************************************* //
