/*--------------------------------*- C++ -*----------------------------------*\
| =========                 |                                                 |
| \\      /  F ield         | OpenFOAM: The Open Source CFD Toolbox           |
|  \\    /   O peration     | Version:  2312                                  |
|   \\  /    A nd           | Website:  www.openfoam.com                      |
|    \\/     M anipulation  |                                                 |
\*---------------------------------------------------------------------------*/
FoamFile
{
    version     2.0;
    format      ascii;
    arch        "LSB;label=32;scalar=64";
    class       surfaceScalarField;
    location    "8.5";
    object      fluxField;
}
// * * * * * * * * * * * * * * * * * * * * * * * * * * * * * * * * * * * * * //

dimensions      [0 3 -1 0 0 0 0];

oriented        oriented;

internalField   nonuniform List<scalar> 
760
(
-5e-05
2.39524e-18
-5e-05
-4.97586e-19
-5e-05
1.11839e-19
-5e-05
-2.61203e-20
-5e-05
5.93679e-21
-5e-05
3.7572e-21
-5e-05
5.89356e-21
-5e-05
7.62637e-22
-5e-05
9.61685e-22
-5e-05
1.0507e-21
-5e-05
-1.07353e-22
-5e-05
2.66758e-21
-5e-05
5.36167e-21
-5e-05
1.38185e-21
-5e-05
-2.35184e-23
-5e-05
1.15379e-22
-5e-05
1.21759e-21
-5e-05
-1.20506e-21
-5e-05
-3.51975e-22
3.1458e-22
-5e-05
-8.65902e-19
-5e-05
1.74629e-19
-5e-05
-4.82612e-20
-5e-05
4.55331e-21
-5e-05
-4.94666e-21
-5e-05
1.40702e-21
-5e-05
1.02524e-21
-5e-05
-1.68868e-21
-5e-05
-1.76166e-21
-5e-05
-1.99022e-21
-5e-05
-1.94505e-21
-5e-05
1.41148e-21
-5e-05
6.51461e-21
-5e-05
-1.05133e-21
-5e-05
-4.63482e-21
-5e-05
-9.4469e-22
-5e-05
-4.9718e-22
-5e-05
-2.78599e-21
-5e-05
-8.71902e-22
9.01228e-22
-5e-05
-1.38207e-18
-5e-05
2.68861e-19
-5e-05
-7.1045e-20
-5e-05
8.01214e-21
-5e-05
-9.40445e-21
-5e-05
-5.9681e-21
-5e-05
-7.93746e-21
-5e-05
-5.67244e-21
-5e-05
-4.64407e-21
-5e-05
-3.82734e-21
-5e-05
2.87107e-23
-5e-05
1.53692e-21
-5e-05
2.37276e-21
-5e-05
-6.79151e-22
-5e-05
-6.03621e-21
-5e-05
-4.58888e-21
-5e-05
-3.71523e-21
-5e-05
-1.39413e-21
-5e-05
-3.58299e-22
-9.50577e-23
-5e-05
9.14167e-19
-5e-05
-2.29474e-19
-5e-05
4.22627e-20
-5e-05
-1.89951e-20
-5e-05
-3.56996e-21
-5e-05
-6.29532e-21
-5e-05
-4.04492e-21
-5e-05
1.38437e-21
-5e-05
7.01328e-22
-5e-05
-1.87034e-21
-5e-05
2.11684e-23
-5e-05
-4.58907e-21
-5e-05
-8.05971e-21
-5e-05
-4.7492e-21
-5e-05
-5.01514e-21
-5e-05
-3.87645e-21
-5e-05
7.39372e-23
-5e-05
4.30718e-21
-5e-05
2.90878e-21
-1.07814e-21
-5e-05
-1.62748e-19
-5e-05
1.15606e-20
-5e-05
-1.47289e-20
-5e-05
-5.98512e-21
-5e-05
-6.48503e-21
-5e-05
-5.86038e-21
-5e-05
-2.39526e-21
-5e-05
1.29366e-22
-5e-05
-2.65236e-21
-5e-05
-4.4678e-21
-5e-05
-2.22475e-21
-5e-05
-4.56704e-21
-5e-05
-7.34324e-21
-5e-05
-5.40004e-21
-5e-05
-1.15133e-21
-5e-05
6.26983e-22
-5e-05
4.12782e-21
-5e-05
5.48947e-21
-5e-05
3.94079e-21
-9.49248e-23
-5e-05
-2.28924e-19
-5e-05
6.7685e-20
-5e-05
-1.35826e-20
-5e-05
9.17431e-21
-5e-05
1.24995e-21
-5e-05
-5.10964e-21
-5e-05
-7.81286e-21
-5e-05
-9.81868e-21
-5e-05
-1.13894e-20
-5e-05
-9.08686e-21
-5e-05
-5.80192e-21
-5e-05
-2.58872e-21
-5e-05
-9.69862e-22
-5e-05
-2.47263e-22
-5e-05
3.59754e-21
-5e-05
3.94535e-21
-5e-05
2.89992e-21
-5e-05
3.26415e-21
-5e-05
4.93075e-21
2.64094e-21
-5e-05
1.17906e-18
-5e-05
-2.50245e-19
-5e-05
6.29938e-20
-5e-05
-6.55269e-21
-5e-05
8.03146e-21
-5e-05
-2.63943e-21
-5e-05
-6.46791e-21
-5e-05
-5.81559e-21
-5e-05
-7.36642e-21
-5e-05
-9.40453e-21
-5e-05
-1.03995e-20
-5e-05
-8.0515e-21
-5e-05
-2.98181e-21
-5e-05
-9.75054e-22
-5e-05
1.33133e-21
-5e-05
2.56732e-21
-5e-05
8.63058e-23
-5e-05
8.568e-22
-5e-05
3.77048e-21
2.72475e-21
-5e-05
-1.30693e-18
-5e-05
2.65508e-19
-5e-05
-6.64246e-20
-5e-05
1.0373e-20
-5e-05
-7.08966e-21
-5e-05
-5.47564e-21
-5e-05
-8.28208e-21
-5e-05
-6.03353e-21
-5e-05
-7.33309e-21
-5e-05
-1.12402e-20
-5e-05
-1.2962e-20
-5e-05
-8.94297e-21
-5e-05
-2.35214e-21
-5e-05
-1.11746e-21
-5e-05
-3.46506e-21
-5e-05
-4.79238e-21
-5e-05
-3.00982e-21
-5e-05
-7.13339e-22
-5e-05
4.94513e-22
9.79879e-22
-5e-05
2.7763e-19
-5e-05
-3.02927e-20
-5e-05
7.39697e-21
-5e-05
-2.4056e-21
-5e-05
-3.2608e-21
-5e-05
-3.56094e-21
-5e-05
-7.88902e-21
-5e-05
-1.06921e-20
-5e-05
-8.93941e-21
-5e-05
-9.82793e-21
-5e-05
-1.39318e-20
-5e-05
-1.07219e-20
-5e-05
-5.39974e-21
-5e-05
-3.39925e-21
-5e-05
-4.85769e-21
-5e-05
-5.68802e-21
-5e-05
-3.5622e-22
-5e-05
3.80324e-21
-5e-05
1.93728e-21
1.4894e-21
-5e-05
6.73439e-19
-5e-05
-1.43555e-19
-5e-05
3.54262e-20
-5e-05
-1.16576e-20
-5e-05
-1.01264e-21
-5e-05
-1.52419e-21
-5e-05
-6.66746e-21
-5e-05
-1.22418e-20
-5e-05
-9.01729e-21
-5e-05
-7.46767e-21
-5e-05
-1.3491e-20
-5e-05
-1.50619e-20
-5e-05
-9.8442e-21
-5e-05
-4.59408e-21
-5e-05
-3.6206e-21
-5e-05
-1.43743e-21
-5e-05
4.4257e-22
-5e-05
2.084e-21
-5e-05
3.01186e-21
2.39917e-21
-5e-05
-7.92532e-19
-5e-05
1.42901e-19
-5e-05
-3.356e-20
-5e-05
-2.38771e-21
-5e-05
-9.86618e-21
-5e-05
-7.26745e-21
-5e-05
-8.55549e-21
-5e-05
-9.70994e-21
-5e-05
-7.7946e-21
-5e-05
-4.52461e-21
-5e-05
-4.33404e-21
-5e-05
-5.85861e-21
-5e-05
-8.39648e-22
-5e-05
1.00013e-21
-5e-05
-3.84975e-21
-5e-05
-3.78163e-21
-5e-05
-3.82477e-21
-5e-05
-3.44625e-21
-5e-05
3.108e-21
3.62298e-21
-5e-05
7.81291e-19
-5e-05
-1.42353e-19
-5e-05
3.63219e-20
-5e-05
-1.11103e-20
-5e-05
-7.21656e-21
-5e-05
-8.17105e-21
-5e-05
-2.97803e-21
-5e-05
-2.01731e-21
-5e-05
-3.41443e-21
-5e-05
-3.24266e-21
-5e-05
-4.34857e-22
-5e-05
8.57361e-22
-5e-05
1.01024e-21
-5e-05
6.00968e-22
-5e-05
-3.70556e-21
-5e-05
-5.98009e-21
-5e-05
-4.78455e-21
-5e-05
-2.2941e-21
-5e-05
1.91102e-21
2.59788e-21
-5e-05
-6.0555e-19
-5e-05
1.3569e-19
-5e-05
-4.02921e-20
-5e-05
2.76946e-21
-5e-05
-9.07315e-21
-5e-05
-3.06258e-21
-5e-05
1.06532e-21
-5e-05
-1.12523e-21
-5e-05
-4.14329e-21
-5e-05
-5.02792e-21
-5e-05
-2.7612e-21
-5e-05
3.55048e-22
-5e-05
-1.6905e-21
-5e-05
-2.89864e-21
-5e-05
-3.56421e-21
-5e-05
-4.59446e-21
-5e-05
-2.20358e-21
-5e-05
-5.8698e-22
-5e-05
-4.12233e-21
-2.61308e-21
-5e-05
6.4679e-19
-5e-05
-1.68504e-19
-5e-05
1.8504e-20
-5e-05
-1.50141e-20
-5e-05
-2.92156e-21
-5e-05
-1.99844e-21
-5e-05
-2.12434e-21
-5e-05
-2.96315e-21
-5e-05
-5.13123e-21
-5e-05
-4.54097e-21
-5e-05
-1.42961e-21
-5e-05
-2.323e-22
-5e-05
-2.28562e-21
-5e-05
-5.65255e-21
-5e-05
-3.93112e-21
-5e-05
1.56332e-21
-5e-05
1.88427e-21
-5e-05
-8.37374e-22
-5e-05
-7.31007e-21
-4.94242e-21
-5e-05
1.08693e-19
-5e-05
-3.64446e-20
-5e-05
-6.67706e-21
-5e-05
-6.20291e-21
-5e-05
-1.95587e-21
-5e-05
-3.67647e-21
-5e-05
-7.152e-21
-5e-05
-3.96339e-21
-5e-05
-1.61401e-21
-5e-05
1.81364e-22
-5e-05
8.83732e-22
-5e-05
-3.68885e-21
-5e-05
-7.86747e-21
-5e-05
-6.50399e-21
-5e-05
1.10228e-21
-5e-05
5.47236e-21
-5e-05
-1.4646e-21
-5e-05
-5.62129e-21
-5e-05
-4.44648e-21
-3.07664e-21
-5e-05
-1.33431e-18
-5e-05
2.66159e-19
-5e-05
-7.34818e-20
-5e-05
4.66518e-21
-5e-05
-1.09152e-20
-5e-05
-7.30579e-21
-5e-05
-9.53386e-21
-5e-05
-4.94386e-21
-5e-05
1.80238e-21
-5e-05
5.67254e-21
-5e-05
4.67698e-21
-5e-05
-1.11257e-21
-5e-05
-7.86865e-21
-5e-05
-5.84649e-21
-5e-05
9.06363e-22
-5e-05
-1.81774e-21
-5e-05
-5.54228e-21
-5e-05
-6.89037e-21
-5e-05
-2.21582e-21
-2.29039e-21
-5e-05
2.01105e-18
-5e-05
-4.4347e-19
-5e-05
9.57659e-20
-5e-05
-3.25945e-20
-5e-05
-7.20585e-21
-5e-05
-1.47849e-20
-5e-05
-1.00506e-20
-5e-05
-3.95851e-21
-5e-05
-7.97257e-22
-5e-05
1.37826e-21
-5e-05
9.62575e-22
-5e-05
7.69432e-22
-5e-05
-2.76262e-21
-5e-05
-2.59179e-21
-5e-05
-2.20751e-21
-5e-05
-5.7771e-21
-5e-05
-2.89195e-21
-5e-05
-1.69417e-21
-5e-05
-1.98673e-21
-2.36427e-21
-5e-05
5.83885e-19
-5e-05
-1.29566e-19
-5e-05
2.14684e-20
-5e-05
-1.53243e-20
-5e-05
-8.22393e-21
-5e-05
-1.13742e-20
-5e-05
-7.0644e-21
-5e-05
-3.8063e-21
-5e-05
-4.99716e-21
-5e-05
-3.37965e-21
-5e-05
-2.49737e-21
-5e-05
-4.42284e-22
-5e-05
3.83649e-22
-5e-05
-6.29264e-22
-5e-05
-3.12022e-21
-5e-05
-2.8121e-21
-5e-05
3.51795e-22
-5e-05
1.17223e-21
-5e-05
-3.33722e-21
-2.98743e-21
-5e-05
-2.53857e-18
-5e-05
5.22973e-19
-5e-05
-1.31206e-19
-5e-05
1.97139e-20
-5e-05
-8.73577e-21
-5e-05
-1.99442e-22
-5e-05
-2.92092e-21
-5e-05
-3.85002e-21
-5e-05
-4.90383e-21
-5e-05
-2.87577e-21
-5e-05
-1.96218e-21
-5e-05
-2.14221e-21
-5e-05
-2.2436e-21
-5e-05
-5.9074e-21
-5e-05
-6.96092e-21
-5e-05
-2.08473e-21
-5e-05
1.84696e-21
-5e-05
1.17158e-21
-5e-05
-4.22534e-21
-3.21073e-21
-5e-05
-5e-05
-5e-05
-5e-05
-5e-05
-5e-05
-5e-05
-5e-05
-5e-05
-5e-05
-5e-05
-5e-05
-5e-05
-5e-05
-5e-05
-5e-05
-5e-05
-5e-05
-5e-05
)
;

boundaryField
{
    movingWall
    {
        type            calculated;
        value           uniform -0;
    }
    fixedWalls
    {
        type            calculated;
        value           nonuniform List<scalar> 
60
(
5e-05
5e-05
5e-05
5e-05
5e-05
5e-05
5e-05
5e-05
5e-05
5e-05
5e-05
5e-05
5e-05
5e-05
5e-05
5e-05
5e-05
5e-05
5e-05
5e-05
-5e-05
-5e-05
-5e-05
-5e-05
-5e-05
-5e-05
-5e-05
-5e-05
-5e-05
-5e-05
-5e-05
-5e-05
-5e-05
-5e-05
-5e-05
-5e-05
-5e-05
-5e-05
-5e-05
-5e-05
0
0
0
0
0
0
0
0
0
0
0
0
0
0
0
0
0
0
0
0
)
;
    }
    frontAndBack
    {
        type            empty;
        value           nonuniform List<scalar> 0();
    }
}


// ************************************************************************* //
