/*--------------------------------*- C++ -*----------------------------------*\
| =========                 |                                                 |
| \\      /  F ield         | OpenFOAM: The Open Source CFD Toolbox           |
|  \\    /   O peration     | Version:  2312                                  |
|   \\  /    A nd           | Website:  www.openfoam.com                      |
|    \\/     M anipulation  |                                                 |
\*---------------------------------------------------------------------------*/
FoamFile
{
    version     2.0;
    format      ascii;
    arch        "LSB;label=32;scalar=64";
    class       volTensorField;
    location    "8.5";
    object      gradU;
}
// * * * * * * * * * * * * * * * * * * * * * * * * * * * * * * * * * * * * * //

dimensions      [0 0 -1 0 0 0 0];

internalField   nonuniform List<tensor> 
400
(
(-1.89735e-13 5.97415e-12 0 2.98156e-13 9.58096e-12 0 0 0 0)
(3.79471e-13 -7.18607e-12 0 -2.1684e-13 -1.99034e-12 0 0 0 0)
(-5.42101e-14 1.49436e-12 0 0 4.47357e-13 0 0 0 0)
(-2.71051e-14 -3.43419e-13 0 -2.71051e-14 -1.04481e-13 0 0 0 0)
(2.71051e-14 8.23454e-14 0 2.71051e-14 2.37472e-14 0 0 0 0)
(-2.71051e-14 -9.6826e-15 0 0 1.50288e-14 0 0 0 0)
(-5.42101e-14 -3.6397e-15 0 0 2.35743e-14 0 0 0 0)
(0 -6.50868e-15 0 0 3.05055e-15 0 0 0 0)
(0 5.14086e-15 0 0 3.84674e-15 0 0 0 0)
(0 3.68462e-15 0 0 4.2028e-15 0 0 0 0)
(0 7.13775e-15 0 0 -4.29412e-16 0 0 0 0)
(0 4.915e-15 0 2.71051e-14 1.06703e-14 0 0 0 0)
(-2.71051e-14 -4.31619e-15 0 0 2.14467e-14 0 0 0 0)
(-2.71051e-14 -6.02022e-15 0 -5.42101e-14 5.52741e-15 0 0 0 0)
(0 -8.89785e-15 0 0 -9.40738e-17 0 0 0 0)
(0 -4.077e-15 0 0 4.61517e-16 0 0 0 0)
(0 6.63639e-17 0 -5.42101e-14 4.87037e-15 0 0 0 0)
(0 -2.16971e-15 0 0 -4.82022e-15 0 0 0 0)
(0 4.46048e-16 0 0 -1.4079e-15 0 0 0 0)
(0 2.55244e-15 0 0 1.25832e-15 0 0 0 0)
(2.98156e-13 1.61647e-12 0 8.40257e-13 -1.30446e-11 0 0 0 0)
(-6.77626e-13 -1.94753e-12 0 -2.43945e-13 2.68886e-12 0 0 0 0)
(2.1684e-13 3.91502e-13 0 -8.13152e-14 -6.40401e-13 0 0 0 0)
(0 -8.01909e-14 0 -8.13152e-14 1.22695e-13 0 0 0 0)
(5.42101e-14 3.71648e-14 0 -1.35525e-13 -4.35338e-14 0 0 0 0)
(0 9.5097e-15 0 -8.13152e-14 -9.40071e-15 0 0 0 0)
(5.42101e-14 -8.33855e-15 0 -8.13152e-14 -1.94733e-14 0 0 0 0)
(0 -1.32188e-14 0 -5.42101e-14 -9.80528e-15 0 0 0 0)
(0 -3.98861e-15 0 -5.42101e-14 -1.08934e-14 0 0 0 0)
(0 -7.96077e-15 0 -5.42101e-14 -1.21637e-14 0 0 0 0)
(0 -6.70234e-16 0 -5.42101e-14 -7.35078e-15 0 0 0 0)
(2.71051e-14 1.69611e-14 0 -8.13152e-14 -5.02439e-15 0 0 0 0)
(0 -8.26713e-16 0 0 4.61176e-15 0 0 0 0)
(0 -1.55205e-14 0 0 -9.73274e-15 0 0 0 0)
(5.42101e-14 3.83196e-15 0 -5.42101e-14 -1.84452e-14 0 0 0 0)
(0 9.04145e-15 0 -5.42101e-14 -4.24028e-15 0 0 0 0)
(0 -5.3481e-15 0 5.42101e-14 -6.85909e-15 0 0 0 0)
(2.71051e-14 -4.10856e-15 0 0 -6.32372e-15 0 0 0 0)
(-2.71051e-14 5.63249e-15 0 0 -2.07971e-15 0 0 0 0)
(0 -2.40286e-15 0 0 2.34659e-15 0 0 0 0)
(4.33681e-13 -4.38156e-12 0 -2.46656e-12 -2.06468e-12 0 0 0 0)
(-5.69206e-13 5.2181e-12 0 7.58942e-13 3.76928e-13 0 0 0 0)
(8.13152e-14 -1.0718e-12 0 0 -9.11355e-14 0 0 0 0)
(-2.71051e-14 2.53449e-13 0 1.35525e-13 1.38353e-14 0 0 0 0)
(2.71051e-14 -4.97499e-14 0 8.13152e-14 -1.78312e-14 0 0 0 0)
(0 1.43779e-14 0 8.13152e-14 -2.95005e-14 0 0 0 0)
(5.42101e-14 -4.04427e-15 0 2.71051e-14 -3.58508e-14 0 0 0 0)
(0 2.07126e-15 0 5.42101e-14 -1.5935e-14 0 0 0 0)
(0 2.78247e-15 0 0 -1.15296e-14 0 0 0 0)
(2.71051e-14 7.2272e-15 0 0 -7.34849e-15 0 0 0 0)
(0 1.4277e-14 0 0 7.89504e-15 0 0 0 0)
(-2.71051e-14 1.68775e-14 0 0 5.01739e-16 0 0 0 0)
(0 -9.02455e-15 0 0 -1.65674e-14 0 0 0 0)
(-5.42101e-14 -2.90772e-14 0 5.42101e-14 1.48873e-15 0 0 0 0)
(-2.71051e-14 -3.40539e-15 0 5.42101e-14 -5.60558e-15 0 0 0 0)
(2.71051e-14 7.5091e-15 0 5.42101e-14 -1.45768e-14 0 0 0 0)
(0 -2.01708e-15 0 0 -1.28722e-14 0 0 0 0)
(0 2.60967e-15 0 -5.42101e-14 5.56742e-15 0 0 0 0)
(5.42101e-14 9.11636e-15 0 0 2.05441e-15 0 0 0 0)
(0 2.28556e-15 0 0 -3.98514e-15 0 0 0 0)
(-1.49078e-12 -7.12869e-14 0 7.58942e-13 9.18496e-12 0 0 0 0)
(1.84314e-12 2.60111e-14 0 -1.89735e-13 -1.99334e-12 0 0 0 0)
(-4.33681e-13 2.84089e-14 0 8.13152e-14 4.53231e-13 0 0 0 0)
(1.0842e-13 -6.88658e-15 0 5.42101e-14 -1.08029e-13 0 0 0 0)
(-5.42101e-14 -6.17107e-15 0 8.13152e-14 2.33379e-14 0 0 0 0)
(0 -8.50993e-15 0 2.71051e-14 -1.30887e-15 0 0 0 0)
(0 5.22691e-15 0 1.0842e-13 1.55702e-14 0 0 0 0)
(-5.42101e-14 1.11023e-14 0 0 2.82273e-14 0 0 0 0)
(-2.71051e-14 4.59794e-15 0 0 2.13816e-14 0 0 0 0)
(0 1.14639e-14 0 0 7.828e-15 0 0 0 0)
(-5.42101e-14 7.17999e-15 0 0 -3.01692e-17 0 0 0 0)
(8.13152e-14 -7.50135e-15 0 5.42101e-14 -2.4504e-14 0 0 0 0)
(8.13152e-14 1.60278e-16 0 2.71051e-14 -4.17299e-14 0 0 0 0)
(2.71051e-14 -4.55871e-15 0 5.42101e-14 -1.62802e-14 0 0 0 0)
(2.71051e-14 -1.22335e-14 0 5.42101e-14 4.08429e-15 0 0 0 0)
(-2.71051e-14 1.77482e-15 0 5.42101e-14 2.84974e-15 0 0 0 0)
(-2.71051e-14 1.47961e-14 0 0 1.51567e-14 0 0 0 0)
(0 1.08181e-14 0 5.42101e-14 2.28052e-14 0 0 0 0)
(0 -3.92007e-15 0 2.71051e-14 1.30683e-14 0 0 0 0)
(-2.71051e-14 -4.72133e-16 0 0 -3.93232e-15 0 0 0 0)
(9.75782e-13 2.81006e-12 0 1.6263e-12 -4.30766e-12 0 0 0 0)
(-1.27394e-12 -3.51363e-12 0 -4.06576e-13 9.64138e-13 0 0 0 0)
(3.52366e-13 8.13506e-13 0 5.42101e-14 -2.27966e-13 0 0 0 0)
(-5.42101e-14 -1.76444e-13 0 -5.42101e-14 5.204e-14 0 0 0 0)
(2.71051e-14 5.69702e-14 0 -8.13152e-14 -1.16603e-14 0 0 0 0)
(0 6.61011e-15 0 -1.0842e-13 1.73974e-15 0 0 0 0)
(0 2.54919e-14 0 -1.0842e-13 6.59864e-15 0 0 0 0)
(-2.71051e-14 7.88268e-15 0 -5.42101e-14 -5.02003e-15 0 0 0 0)
(0 -1.76168e-14 0 5.42101e-14 -1.34147e-14 0 0 0 0)
(2.71051e-14 -1.41846e-14 0 8.13152e-14 -1.03898e-14 0 0 0 0)
(0 -1.80549e-14 0 1.0842e-13 -8.98367e-15 0 0 0 0)
(0 -2.48222e-14 0 5.42101e-14 8.81422e-17 0 0 0 0)
(-2.71051e-14 -8.00803e-16 0 2.71051e-14 2.86588e-15 0 0 0 0)
(0 1.6737e-14 0 -5.42101e-14 -2.60336e-15 0 0 0 0)
(0 1.57246e-14 0 0 1.54552e-14 0 0 0 0)
(-2.71051e-14 1.85815e-14 0 -5.42101e-14 1.80137e-14 0 0 0 0)
(0 1.79384e-14 0 -5.42101e-14 1.62155e-14 0 0 0 0)
(0 5.21299e-16 0 0 4.72915e-15 0 0 0 0)
(0 -1.76212e-14 0 -2.71051e-14 4.12806e-15 0 0 0 0)
(0 -6.85042e-15 0 2.71051e-14 3.93285e-15 0 0 0 0)
(-2.1684e-13 -3.41481e-12 0 -7.58942e-13 -2.64702e-13 0 0 0 0)
(2.71051e-13 4.10571e-12 0 3.25261e-13 2.24498e-13 0 0 0 0)
(-1.0842e-13 -8.83689e-13 0 0 4.58508e-15 0 0 0 0)
(0 2.09419e-13 0 0 6.06377e-14 0 0 0 0)
(-8.13152e-14 -5.64713e-14 0 0 3.09399e-14 0 0 0 0)
(0 9.74897e-15 0 0 3.00298e-15 0 0 0 0)
(0 -1.53286e-15 0 0 -2.16704e-14 0 0 0 0)
(5.42101e-14 -8.91108e-15 0 0 -3.97922e-14 0 0 0 0)
(8.13152e-14 -7.71849e-16 0 0 -3.49483e-14 0 0 0 0)
(2.71051e-14 1.5895e-14 0 -8.13152e-14 -1.84763e-14 0 0 0 0)
(0 1.7658e-14 0 -1.0842e-13 -1.43087e-14 0 0 0 0)
(2.71051e-14 4.34821e-15 0 -5.42101e-14 7.91327e-15 0 0 0 0)
(-2.71051e-14 -2.53122e-15 0 -2.71051e-14 2.54935e-14 0 0 0 0)
(-2.71051e-14 8.03063e-15 0 0 2.06111e-14 0 0 0 0)
(0 8.38354e-15 0 -5.42101e-14 1.89955e-14 0 0 0 0)
(0 2.53511e-15 0 0 1.32735e-14 0 0 0 0)
(-5.42101e-14 1.51152e-15 0 0 -4.91159e-15 0 0 0 0)
(5.42101e-14 -1.2694e-15 0 0 -8.90126e-15 0 0 0 0)
(2.71051e-14 -4.71637e-15 0 0 3.95983e-15 0 0 0 0)
(-2.71051e-14 -8.53304e-15 0 0 1.09435e-14 0 0 0 0)
(5.96311e-13 2.76986e-12 0 -7.04731e-13 5.63193e-12 0 0 0 0)
(-5.14996e-13 -3.24434e-12 0 -1.0842e-13 -1.27172e-12 0 0 0 0)
(0 6.49647e-13 0 -2.43945e-13 3.06306e-13 0 0 0 0)
(-5.42101e-14 -1.50089e-13 0 -8.13152e-14 -6.2908e-14 0 0 0 0)
(0 -6.64473e-16 0 -2.71051e-14 2.71261e-14 0 0 0 0)
(-2.71051e-14 -4.60002e-14 0 2.71051e-14 9.88086e-15 0 0 0 0)
(2.71051e-14 -1.73033e-14 0 0 5.37981e-15 0 0 0 0)
(-2.71051e-14 -5.39523e-15 0 0 1.60124e-14 0 0 0 0)
(-5.42101e-14 3.69913e-15 0 -8.13152e-14 1.60921e-14 0 0 0 0)
(-2.71051e-14 6.45509e-15 0 -8.13152e-14 -1.27068e-15 0 0 0 0)
(2.71051e-14 8.33461e-15 0 -8.13152e-14 -1.83902e-14 0 0 0 0)
(5.42101e-14 1.498e-14 0 -5.42101e-14 -2.18511e-14 0 0 0 0)
(0 1.1897e-14 0 -8.13152e-14 -8.0478e-15 0 0 0 0)
(0 1.0239e-14 0 -5.42101e-14 -2.91116e-15 0 0 0 0)
(0 8.3869e-15 0 -8.13152e-14 -9.06483e-15 0 0 0 0)
(-5.42101e-14 -5.32559e-15 0 0 -5.51211e-15 0 0 0 0)
(5.42101e-14 -4.23629e-15 0 5.42101e-14 -1.12545e-14 0 0 0 0)
(0 9.39272e-15 0 -5.42101e-14 -9.62941e-15 0 0 0 0)
(2.71051e-14 2.22351e-15 0 0 -4.64106e-15 0 0 0 0)
(-2.71051e-14 -2.17537e-14 0 0 3.35261e-16 0 0 0 0)
(-1.0571e-12 9.45399e-13 0 5.96311e-13 -9.94397e-12 0 0 0 0)
(7.58942e-13 -1.21992e-12 0 -1.35525e-13 2.06301e-12 0 0 0 0)
(-5.42101e-14 3.25125e-13 0 1.0842e-13 -5.17674e-13 0 0 0 0)
(1.35525e-13 -6.97604e-14 0 0 6.77028e-14 0 0 0 0)
(2.71051e-14 1.63175e-14 0 2.71051e-14 -6.04845e-14 0 0 0 0)
(5.42101e-14 -1.19973e-14 0 0 -1.13449e-14 0 0 0 0)
(0 4.59865e-15 0 -2.71051e-14 -7.25669e-15 0 0 0 0)
(0 1.80118e-15 0 0 -8.71781e-16 0 0 0 0)
(0 -1.80549e-14 0 2.71051e-14 1.33325e-16 0 0 0 0)
(0 -1.85872e-14 0 8.13152e-14 -7.34251e-15 0 0 0 0)
(5.42101e-14 -2.92249e-15 0 8.13152e-14 -1.02503e-14 0 0 0 0)
(0 1.46906e-14 0 5.42101e-14 -3.56589e-15 0 0 0 0)
(0 1.64087e-14 0 5.42101e-14 2.51869e-15 0 0 0 0)
(-5.42101e-14 7.0136e-15 0 5.42101e-14 -5.69612e-16 0 0 0 0)
(5.42101e-14 5.78259e-15 0 2.71051e-14 -1.91856e-14 0 0 0 0)
(8.13152e-14 3.45488e-16 0 0 -2.94388e-14 0 0 0 0)
(-5.42101e-14 -2.60578e-15 0 2.71051e-14 -1.23845e-14 0 0 0 0)
(0 5.344e-15 0 5.42101e-14 -6.28056e-15 0 0 0 0)
(5.42101e-14 5.24831e-15 0 2.71051e-14 -1.31039e-14 0 0 0 0)
(0 -4.22725e-15 0 -2.71051e-14 -6.9795e-15 0 0 0 0)
(1.0571e-12 -5.1111e-12 0 2.1684e-13 6.33825e-12 0 0 0 0)
(-1.02999e-12 6.18195e-12 0 2.1684e-13 -1.1832e-12 0 0 0 0)
(1.35525e-13 -1.34566e-12 0 1.35525e-13 2.95286e-13 0 0 0 0)
(-1.0842e-13 3.071e-13 0 2.71051e-14 -5.11144e-14 0 0 0 0)
(0 -7.97121e-14 0 5.42101e-14 1.53154e-14 0 0 0 0)
(-5.42101e-14 7.22758e-15 0 5.42101e-14 7.6588e-15 0 0 0 0)
(0 -6.8302e-15 0 2.71051e-14 1.57223e-15 0 0 0 0)
(5.42101e-14 1.99478e-15 0 5.42101e-14 -1.86343e-14 0 0 0 0)
(0 -2.7716e-15 0 8.13152e-14 -6.42529e-15 0 0 0 0)
(-2.71051e-14 -3.92854e-15 0 0 5.64892e-15 0 0 0 0)
(2.71051e-14 1.21112e-14 0 0 -3.87912e-15 0 0 0 0)
(0 2.7749e-14 0 0 -7.11576e-15 0 0 0 0)
(0 1.48933e-14 0 0 -1.21904e-14 0 0 0 0)
(2.71051e-14 -1.14653e-14 0 5.42101e-14 -9.12717e-15 0 0 0 0)
(-2.71051e-14 -2.04823e-14 0 1.0842e-13 -5.5705e-15 0 0 0 0)
(0 1.47548e-15 0 5.42101e-14 -3.58256e-15 0 0 0 0)
(0 1.8922e-14 0 2.71051e-14 1.06144e-14 0 0 0 0)
(0 8.67334e-15 0 2.71051e-14 1.80663e-14 0 0 0 0)
(-2.71051e-14 1.52456e-15 0 0 5.77106e-15 0 0 0 0)
(-2.71051e-14 -1.67032e-15 0 0 2.03808e-15 0 0 0 0)
(-6.23416e-13 6.10045e-12 0 -2.1413e-12 1.58324e-12 0 0 0 0)
(6.77626e-13 -7.26288e-12 0 2.43945e-13 -4.53048e-13 0 0 0 0)
(-1.89735e-13 1.45721e-12 0 -2.43945e-13 1.12117e-13 0 0 0 0)
(8.13152e-14 -3.49731e-13 0 8.13152e-14 -3.70081e-14 0 0 0 0)
(0 7.50907e-14 0 0 8.99268e-15 0 0 0 0)
(5.42101e-14 -2.57405e-14 0 2.71051e-14 8.14699e-15 0 0 0 0)
(-5.42101e-14 -2.16945e-14 0 1.0842e-13 4.88624e-15 0 0 0 0)
(0 -6.19634e-15 0 2.71051e-14 -6.19895e-15 0 0 0 0)
(-2.71051e-14 6.22831e-15 0 2.71051e-14 -3.11521e-16 0 0 0 0)
(0 -1.60411e-14 0 8.13152e-14 9.44103e-15 0 0 0 0)
(0 -1.56872e-14 0 5.42101e-14 1.76332e-15 0 0 0 0)
(2.71051e-14 6.3793e-15 0 2.71051e-14 -1.73599e-14 0 0 0 0)
(5.42101e-14 1.43973e-14 0 2.71051e-14 -1.77778e-14 0 0 0 0)
(2.71051e-14 1.36335e-14 0 -5.42101e-14 -4.77931e-15 0 0 0 0)
(2.71051e-14 1.13272e-14 0 -1.0842e-13 4.94837e-15 0 0 0 0)
(-2.71051e-14 1.65304e-14 0 -5.42101e-14 1.70024e-14 0 0 0 0)
(-2.71051e-14 1.90431e-14 0 -1.35525e-13 3.19516e-15 0 0 0 0)
(0 5.00653e-16 0 -2.71051e-14 -6.87699e-15 0 0 0 0)
(0 -1.07799e-14 0 -2.71051e-14 4.29831e-15 0 0 0 0)
(0 -1.20364e-14 0 0 3.63909e-15 0 0 0 0)
(-7.86047e-13 -3.98091e-12 0 3.25261e-12 -5.86389e-12 0 0 0 0)
(8.40257e-13 4.71083e-12 0 -4.60786e-13 1.14582e-12 0 0 0 0)
(-5.42101e-14 -9.29624e-13 0 3.79471e-13 -2.75945e-13 0 0 0 0)
(8.13152e-14 2.03976e-13 0 2.71051e-14 3.70796e-14 0 0 0 0)
(-2.71051e-14 -3.4557e-14 0 8.13152e-14 -3.54142e-14 0 0 0 0)
(2.71051e-14 3.12115e-15 0 5.42101e-14 -2.2973e-14 0 0 0 0)
(2.71051e-14 -2.11761e-14 0 8.13152e-14 -7.55211e-15 0 0 0 0)
(2.71051e-14 -3.20298e-15 0 8.13152e-14 1.01276e-14 0 0 0 0)
(0 1.28684e-14 0 0 4.89078e-15 0 0 0 0)
(0 -1.8537e-15 0 2.71051e-14 1.17723e-14 0 0 0 0)
(-5.42101e-14 -1.46897e-14 0 5.42101e-14 3.66278e-14 0 0 0 0)
(0 8.20787e-15 0 2.71051e-14 3.68131e-14 0 0 0 0)
(-5.42101e-14 2.74739e-14 0 2.71051e-14 3.60182e-14 0 0 0 0)
(-1.0842e-13 1.12609e-14 0 -5.42101e-14 2.23768e-14 0 0 0 0)
(0 1.29939e-15 0 0 -9.1663e-16 0 0 0 0)
(0 -2.77732e-16 0 -5.42101e-14 -9.37681e-15 0 0 0 0)
(0 -4.9574e-15 0 2.71051e-14 -1.70694e-14 0 0 0 0)
(1.0842e-13 9.77649e-15 0 0 -2.2121e-14 0 0 0 0)
(0 1.20406e-14 0 0 3.84579e-16 0 0 0 0)
(-2.71051e-14 -9.60772e-15 0 2.71051e-14 4.89524e-15 0 0 0 0)
(2.1413e-12 1.38238e-12 0 -7.58942e-13 6.29529e-12 0 0 0 0)
(-2.19551e-12 -1.67494e-12 0 0 -1.14102e-12 0 0 0 0)
(3.52366e-13 3.48469e-13 0 -8.13152e-14 2.79527e-13 0 0 0 0)
(-2.43945e-13 -1.09201e-13 0 -2.71051e-14 -3.48902e-14 0 0 0 0)
(5.42101e-14 1.50381e-14 0 -5.42101e-14 1.05985e-14 0 0 0 0)
(2.71051e-14 2.12162e-15 0 -2.71051e-14 -3.61439e-15 0 0 0 0)
(-5.42101e-14 1.14062e-14 0 -1.0842e-13 2.23098e-14 0 0 0 0)
(-2.71051e-14 6.24654e-15 0 -1.0842e-13 3.07705e-14 0 0 0 0)
(-1.0842e-13 7.87297e-15 0 -1.0842e-13 1.75207e-14 0 0 0 0)
(5.42101e-14 1.56959e-14 0 -1.0842e-13 5.12778e-15 0 0 0 0)
(0 9.35365e-15 0 -1.0842e-13 1.55967e-14 0 0 0 0)
(0 5.7697e-15 0 -5.42101e-14 2.68639e-14 0 0 0 0)
(-5.42101e-14 -3.89261e-17 0 -5.42101e-14 7.39955e-15 0 0 0 0)
(5.42101e-14 -2.33013e-14 0 5.42101e-14 -1.59665e-15 0 0 0 0)
(2.71051e-14 -2.04264e-14 0 5.42101e-14 5.76779e-16 0 0 0 0)
(2.71051e-14 3.77653e-16 0 0 -8.79385e-15 0 0 0 0)
(0 6.29891e-15 0 5.42101e-14 -3.83911e-15 0 0 0 0)
(-5.42101e-14 1.79546e-14 0 -5.42101e-14 4.60861e-15 0 0 0 0)
(2.71051e-14 1.62363e-14 0 -5.42101e-14 -4.78794e-15 0 0 0 0)
(-2.71051e-14 -1.73162e-14 0 -2.71051e-14 -4.10039e-15 0 0 0 0)
(-1.51788e-12 1.17337e-12 0 -2.41235e-12 -5.54737e-12 0 0 0 0)
(1.51788e-12 -1.30494e-12 0 3.25261e-13 1.11217e-12 0 0 0 0)
(-1.89735e-13 1.76503e-13 0 -2.98156e-13 -3.06456e-13 0 0 0 0)
(1.89735e-13 -6.49529e-14 0 -2.71051e-14 5.55189e-14 0 0 0 0)
(-5.42101e-14 -3.28127e-15 0 -8.13152e-14 -7.42636e-15 0 0 0 0)
(-2.71051e-14 1.48325e-14 0 -1.0842e-13 2.04339e-14 0 0 0 0)
(0 1.32088e-14 0 -8.13152e-14 1.61734e-14 0 0 0 0)
(0 -7.99213e-15 0 -5.42101e-14 3.56832e-15 0 0 0 0)
(0 -1.27744e-14 0 0 -2.91544e-15 0 0 0 0)
(2.71051e-14 -3.77764e-15 0 5.42101e-14 -7.14103e-15 0 0 0 0)
(0 7.04643e-15 0 0 -9.30536e-15 0 0 0 0)
(0 1.06871e-17 0 0 -2.00925e-15 0 0 0 0)
(5.42101e-14 -9.86645e-16 0 0 -1.0803e-14 0 0 0 0)
(0 4.43814e-15 0 0 -1.39984e-14 0 0 0 0)
(-5.42101e-14 -5.89781e-15 0 2.71051e-14 5.65404e-16 0 0 0 0)
(-2.71051e-14 -4.69362e-15 0 5.42101e-14 5.54253e-15 0 0 0 0)
(0 8.44506e-15 0 -5.42101e-14 1.03239e-14 0 0 0 0)
(0 8.82766e-15 0 0 6.82849e-15 0 0 0 0)
(2.71051e-14 3.33163e-15 0 0 -2.41334e-14 0 0 0 0)
(5.42101e-14 -7.19387e-16 0 0 -2.08438e-14 0 0 0 0)
(0 -3.05281e-12 0 1.95156e-12 5.00936e-12 0 0 0 0)
(-5.42101e-14 3.56597e-12 0 -1.89735e-13 -1.21678e-12 0 0 0 0)
(0 -7.08185e-13 0 1.89735e-13 2.35184e-13 0 0 0 0)
(0 1.89829e-13 0 -5.42101e-14 -7.11342e-14 0 0 0 0)
(5.42101e-14 -2.00469e-14 0 5.42101e-14 2.46064e-14 0 0 0 0)
(-5.42101e-14 2.57214e-14 0 -2.71051e-14 4.25655e-15 0 0 0 0)
(5.42101e-14 -5.45938e-15 0 5.42101e-14 -1.27586e-14 0 0 0 0)
(0 -1.28423e-14 0 5.42101e-14 -7.35169e-15 0 0 0 0)
(0 -2.83638e-15 0 0 -3.95177e-15 0 0 0 0)
(2.71051e-14 9.30601e-15 0 -5.42101e-14 1.94778e-15 0 0 0 0)
(0 1.44854e-14 0 5.42101e-14 5.32635e-15 0 0 0 0)
(2.71051e-14 4.27209e-15 0 -5.42101e-14 -2.34939e-15 0 0 0 0)
(-2.71051e-14 -1.20281e-14 0 2.71051e-14 -2.38045e-15 0 0 0 0)
(-2.71051e-14 -1.1933e-14 0 2.71051e-14 -1.10156e-14 0 0 0 0)
(5.42101e-14 -8.85481e-16 0 0 -1.46766e-15 0 0 0 0)
(-2.71051e-14 1.01361e-14 0 0 2.46311e-14 0 0 0 0)
(0 7.58486e-15 0 0 1.63514e-14 0 0 0 0)
(-2.71051e-14 -1.65027e-14 0 5.42101e-14 -1.00158e-15 0 0 0 0)
(2.71051e-14 -1.1436e-14 0 5.42101e-14 -1.27509e-14 0 0 0 0)
(-2.71051e-14 2.7661e-14 0 5.42101e-14 -9.31736e-15 0 0 0 0)
(2.71051e-13 4.96595e-12 0 -1.6263e-13 -2.15239e-12 0 0 0 0)
(-2.71051e-13 -6.07911e-12 0 -2.71051e-14 5.2824e-13 0 0 0 0)
(0 1.32215e-12 0 -8.13152e-14 -1.00724e-13 0 0 0 0)
(0 -2.75531e-13 0 0 3.52447e-14 0 0 0 0)
(-8.13152e-14 7.21095e-14 0 -5.42101e-14 3.86279e-15 0 0 0 0)
(0 -2.25325e-14 0 2.71051e-14 -6.7121e-15 0 0 0 0)
(8.13152e-14 1.60054e-15 0 2.71051e-14 -2.01107e-14 0 0 0 0)
(0 8.14724e-16 0 0 -4.00097e-15 0 0 0 0)
(-5.42101e-14 -3.47491e-15 0 8.13152e-14 1.40689e-14 0 0 0 0)
(-2.71051e-14 5.50048e-15 0 5.42101e-14 1.88894e-14 0 0 0 0)
(0 2.74926e-15 0 -5.42101e-14 9.25337e-15 0 0 0 0)
(2.71051e-14 -7.69612e-15 0 0 -1.38262e-14 0 0 0 0)
(8.13152e-14 -9.65289e-15 0 -8.13152e-14 -2.23274e-14 0 0 0 0)
(0 5.35093e-15 0 -2.71051e-14 -3.40577e-15 0 0 0 0)
(-2.71051e-14 2.97489e-14 0 -2.71051e-14 2.01336e-14 0 0 0 0)
(-5.42101e-14 1.31254e-14 0 -5.42101e-14 1.56362e-14 0 0 0 0)
(0 -1.71876e-14 0 0 -1.33955e-14 0 0 0 0)
(8.13152e-14 -2.02747e-14 0 0 -1.91357e-14 0 0 0 0)
(0 -4.98415e-15 0 0 1.14543e-14 0 0 0 0)
(-2.71051e-14 2.13489e-14 0 -5.42101e-14 7.46313e-15 0 0 0 0)
(-2.1684e-13 -4.67696e-12 0 -1.38236e-12 -5.77201e-12 0 0 0 0)
(2.71051e-14 5.61763e-12 0 3.25261e-13 1.21042e-12 0 0 0 0)
(5.42101e-14 -1.20118e-12 0 0 -2.67219e-13 0 0 0 0)
(5.42101e-14 2.94416e-13 0 0 4.34724e-14 0 0 0 0)
(8.13152e-14 -6.20037e-14 0 0 -3.58372e-14 0 0 0 0)
(5.42101e-14 1.74794e-15 0 5.42101e-14 -1.45173e-14 0 0 0 0)
(-2.71051e-14 -2.74825e-15 0 -2.71051e-14 -9.52742e-15 0 0 0 0)
(2.71051e-14 2.13372e-14 0 0 -3.92185e-15 0 0 0 0)
(0 2.00539e-14 0 -2.71051e-14 1.36656e-14 0 0 0 0)
(-2.71051e-14 4.4905e-15 0 0 2.19647e-14 0 0 0 0)
(-2.71051e-14 -1.82301e-14 0 5.42101e-14 1.5173e-14 0 0 0 0)
(0 -2.73087e-14 0 5.42101e-14 1.03051e-14 0 0 0 0)
(-5.42101e-14 -1.60768e-15 0 5.42101e-14 -4.75038e-18 0 0 0 0)
(0 3.0528e-14 0 -5.42101e-14 2.63001e-15 0 0 0 0)
(0 1.81565e-14 0 -5.42101e-14 -7.83647e-16 0 0 0 0)
(5.42101e-14 -2.33929e-14 0 5.42101e-14 -2.91604e-14 0 0 0 0)
(0 -2.7187e-14 0 8.13152e-14 -1.63107e-14 0 0 0 0)
(0 8.34715e-15 0 0 -5.07631e-15 0 0 0 0)
(0 1.51628e-14 0 0 8.92263e-15 0 0 0 0)
(0 8.74356e-15 0 2.71051e-14 3.14497e-15 0 0 0 0)
(-7.86047e-13 4.04359e-13 0 6.77626e-13 1.33814e-11 0 0 0 0)
(1.13841e-12 -5.74324e-13 0 -5.42101e-14 -2.83852e-12 0 0 0 0)
(-2.98156e-13 1.55204e-13 0 1.0842e-13 6.76991e-13 0 0 0 0)
(-5.42101e-14 -4.4149e-14 0 8.13152e-14 -1.49039e-13 0 0 0 0)
(-5.42101e-14 1.41198e-14 0 5.42101e-14 1.48373e-14 0 0 0 0)
(5.42101e-14 3.77731e-15 0 0 -2.99166e-14 0 0 0 0)
(0 1.2196e-14 0 2.71051e-14 -2.06708e-15 0 0 0 0)
(-5.42101e-14 2.40077e-14 0 0 3.94137e-15 0 0 0 0)
(0 2.24116e-14 0 0 -1.03986e-14 0 0 0 0)
(0 7.00787e-15 0 2.71051e-14 -1.71771e-14 0 0 0 0)
(5.42101e-14 -8.91033e-15 0 2.71051e-14 -1.48576e-14 0 0 0 0)
(2.71051e-14 -2.28738e-14 0 5.42101e-14 7.52801e-15 0 0 0 0)
(-2.71051e-14 -1.7328e-14 0 5.42101e-14 2.04241e-14 0 0 0 0)
(-5.42101e-14 4.57204e-15 0 8.13152e-14 1.30188e-14 0 0 0 0)
(5.42101e-14 -2.04145e-15 0 8.13152e-14 -1.24555e-14 0 0 0 0)
(2.71051e-14 -2.40163e-15 0 0 -1.58374e-14 0 0 0 0)
(2.71051e-14 6.89645e-15 0 0 1.06013e-14 0 0 0 0)
(-5.42101e-14 4.95867e-15 0 2.71051e-14 2.07848e-14 0 0 0 0)
(2.71051e-14 3.23714e-15 0 0 9.16377e-16 0 0 0 0)
(-2.71051e-14 9.2813e-15 0 0 -2.95511e-16 0 0 0 0)
(4.06576e-13 5.86596e-12 0 2.73761e-12 -5.70866e-12 0 0 0 0)
(-5.42101e-13 -7.08682e-12 0 -7.31836e-13 1.25562e-12 0 0 0 0)
(1.6263e-13 1.4883e-12 0 2.71051e-14 -2.9719e-13 0 0 0 0)
(0 -3.67738e-13 0 0 6.90805e-14 0 0 0 0)
(0 5.71182e-14 0 2.71051e-14 -4.07232e-15 0 0 0 0)
(2.71051e-14 -1.51564e-14 0 0 1.36431e-14 0 0 0 0)
(-2.71051e-14 3.11098e-14 0 -2.71051e-14 1.19449e-14 0 0 0 0)
(2.71051e-14 1.30058e-14 0 -5.42101e-14 6.08843e-16 0 0 0 0)
(0 -1.06456e-15 0 2.71051e-14 -1.67996e-14 0 0 0 0)
(2.71051e-14 3.14548e-17 0 -2.71051e-14 -1.90316e-14 0 0 0 0)
(0 6.47503e-15 0 -2.71051e-14 -1.38398e-14 0 0 0 0)
(2.71051e-14 7.97306e-15 0 0 -4.84687e-15 0 0 0 0)
(-2.71051e-14 3.88311e-15 0 -2.71051e-14 1.25851e-14 0 0 0 0)
(0 -2.35161e-15 0 -2.71051e-14 7.85011e-15 0 0 0 0)
(-2.71051e-14 -1.06998e-14 0 2.71051e-14 -3.65082e-15 0 0 0 0)
(-5.42101e-14 -3.36113e-16 0 0 1.186e-14 0 0 0 0)
(0 9.43526e-15 0 -2.71051e-14 1.2975e-14 0 0 0 0)
(0 -1.33779e-15 0 -2.71051e-14 1.14656e-14 0 0 0 0)
(0 -5.91755e-15 0 -5.42101e-14 -5.40196e-15 0 0 0 0)
(0 8.1227e-15 0 -2.71051e-14 -2.49262e-15 0 0 0 0)
(1.21973e-12 -4.04869e-12 0 -1.11131e-12 -1.24898e-11 0 0 0 0)
(-1.57209e-12 4.83715e-12 0 3.52366e-13 2.61016e-12 0 0 0 0)
(4.06576e-13 -1.03133e-12 0 1.35525e-13 -6.10699e-13 0 0 0 0)
(-2.71051e-14 2.48969e-13 0 2.71051e-14 1.40153e-13 0 0 0 0)
(-2.71051e-14 -4.13176e-14 0 5.42101e-14 -2.04735e-15 0 0 0 0)
(-5.42101e-14 1.97946e-14 0 5.42101e-14 4.46989e-14 0 0 0 0)
(-2.71051e-14 -8.38309e-16 0 2.71051e-14 1.65739e-14 0 0 0 0)
(2.71051e-14 -4.7368e-15 0 8.13152e-14 -1.74879e-16 0 0 0 0)
(-2.71051e-14 2.77118e-15 0 0 3.73303e-16 0 0 0 0)
(0 9.9677e-15 0 0 2.01552e-15 0 0 0 0)
(0 5.27443e-15 0 -5.42101e-14 2.14078e-15 0 0 0 0)
(2.71051e-14 3.55101e-15 0 -5.42101e-14 -6.79972e-15 0 0 0 0)
(0 -4.63102e-15 0 0 -1.0509e-14 0 0 0 0)
(0 -1.16639e-14 0 0 -2.11126e-14 0 0 0 0)
(5.42101e-14 1.96844e-15 0 -2.71051e-14 -1.53628e-14 0 0 0 0)
(0 1.42242e-14 0 -5.42101e-14 2.90947e-15 0 0 0 0)
(0 6.50205e-15 0 0 5.98068e-15 0 0 0 0)
(-5.42101e-14 -1.34183e-14 0 0 -2.59472e-18 0 0 0 0)
(5.42101e-14 -1.07211e-14 0 5.42101e-14 -3.5525e-15 0 0 0 0)
(0 1.71759e-14 0 2.71051e-14 -8.93225e-16 0 0 0 0)
(-2.98156e-13 -4.01371e-12 0 -1.0571e-12 1.01543e-11 0 0 0 0)
(6.23416e-13 4.79232e-12 0 1.89735e-13 -2.09189e-12 0 0 0 0)
(-1.35525e-13 -9.81705e-13 0 -1.89735e-13 5.24825e-13 0 0 0 0)
(-5.42101e-14 2.40913e-13 0 -5.42101e-14 -7.88557e-14 0 0 0 0)
(-2.71051e-14 -3.83359e-14 0 -8.13152e-14 3.49431e-14 0 0 0 0)
(0 3.46484e-15 0 -5.42101e-14 7.97768e-16 0 0 0 0)
(0 -1.3764e-14 0 -2.71051e-14 1.16837e-14 0 0 0 0)
(0 -3.19485e-15 0 -2.71051e-14 1.54001e-14 0 0 0 0)
(-5.42101e-14 1.12584e-15 0 -2.71051e-14 1.96153e-14 0 0 0 0)
(0 1.79893e-15 0 0 1.15031e-14 0 0 0 0)
(0 -2.3402e-15 0 5.42101e-14 7.8487e-15 0 0 0 0)
(0 -4.67671e-15 0 0 8.56885e-15 0 0 0 0)
(0 -1.04297e-14 0 -2.71051e-14 8.9744e-15 0 0 0 0)
(0 -7.20542e-15 0 0 2.36296e-14 0 0 0 0)
(-5.42101e-14 1.33222e-14 0 -2.71051e-14 2.78437e-14 0 0 0 0)
(0 2.10074e-14 0 5.42101e-14 8.33892e-15 0 0 0 0)
(0 6.5232e-15 0 0 -7.38786e-15 0 0 0 0)
(2.71051e-14 -1.0871e-14 0 0 -4.68632e-15 0 0 0 0)
(2.71051e-14 -6.80818e-15 0 0 1.69014e-14 0 0 0 0)
(-5.42101e-14 1.25684e-14 0 -2.71051e-14 1.28429e-14 0 0 0 0)
)
;

boundaryField
{
    movingWall
    {
        type            extrapolatedCalculated;
        value           nonuniform List<tensor> 
20
(
(-2.98156e-13 -4.01371e-12 0 2.22045e-12 2.01636e-11 0 0 0 0)
(6.23416e-13 4.79232e-12 0 -9.32587e-13 -4.10872e-12 0 0 0 0)
(-1.35525e-13 -9.81705e-13 0 -4.44089e-13 9.94289e-13 0 0 0 0)
(-5.42101e-14 2.40913e-13 0 -2.22045e-13 -1.81896e-13 0 0 0 0)
(-2.71051e-14 -3.83359e-14 0 -2.66454e-13 3.06358e-14 0 0 0 0)
(0 3.46484e-15 0 -2.22045e-13 -2.85526e-14 0 0 0 0)
(0 -1.3764e-14 0 -1.77636e-13 1.67764e-14 0 0 0 0)
(0 -3.19485e-15 0 -2.66454e-13 2.65034e-14 0 0 0 0)
(-5.42101e-14 1.12584e-15 0 -1.77636e-13 2.95558e-14 0 0 0 0)
(0 1.79893e-15 0 -8.88178e-14 2.20001e-14 0 0 0 0)
(0 -2.3402e-15 0 -4.44089e-14 2.236e-14 0 0 0 0)
(0 -4.67671e-15 0 -8.88178e-14 3.13609e-14 0 0 0 0)
(0 -1.04297e-14 0 -1.33227e-13 4.10669e-14 0 0 0 0)
(0 -7.20542e-15 0 -8.88178e-14 7.30798e-14 0 0 0 0)
(-5.42101e-14 1.33222e-14 0 -4.44089e-14 6.98886e-14 0 0 0 0)
(0 2.10074e-14 0 8.88178e-14 1.97908e-14 0 0 0 0)
(0 6.5232e-15 0 0 -1.41409e-14 0 0 0 0)
(2.71051e-14 -1.0871e-14 0 0 -6.30197e-15 0 0 0 0)
(2.71051e-14 -6.80818e-15 0 -4.44089e-14 2.9343e-14 0 0 0 0)
(-5.42101e-14 1.25684e-14 0 -8.88178e-14 2.09308e-14 0 0 0 0)
)
;
    }
    fixedWalls
    {
        type            extrapolatedCalculated;
        value           nonuniform List<tensor> 
60
(
(-1.06581e-12 3.01906e-11 0 2.98156e-13 9.58096e-12 0 0 0 0)
(2.22045e-12 8.13322e-12 0 8.40257e-13 -1.30446e-11 0 0 0 0)
(2.30926e-12 -2.19876e-11 0 -2.46656e-12 -2.06468e-12 0 0 0 0)
(-7.63833e-12 -1.25507e-13 0 7.58942e-13 9.18496e-12 0 0 0 0)
(5.32907e-12 1.47522e-11 0 1.6263e-12 -4.30766e-12 0 0 0 0)
(-1.15463e-12 -1.73562e-11 0 -7.58942e-13 -2.64702e-13 0 0 0 0)
(2.39808e-12 1.36934e-11 0 -7.04731e-13 5.63193e-12 0 0 0 0)
(-3.9968e-12 5.17157e-12 0 5.96311e-13 -9.94397e-12 0 0 0 0)
(4.70735e-12 -2.60825e-11 0 2.1684e-13 6.33825e-12 0 0 0 0)
(-3.10862e-12 3.05246e-11 0 -2.1413e-12 1.58324e-12 0 0 0 0)
(-3.81917e-12 -1.97495e-11 0 3.25261e-12 -5.86389e-12 0 0 0 0)
(9.85878e-12 7.06903e-12 0 -7.58942e-13 6.29529e-12 0 0 0 0)
(-6.83897e-12 5.43163e-12 0 -2.41235e-12 -5.54737e-12 0 0 0 0)
(1.77636e-13 -1.51204e-11 0 1.95156e-12 5.00936e-12 0 0 0 0)
(1.02141e-12 2.54691e-11 0 -1.6263e-13 -2.15239e-12 0 0 0 0)
(-5.32907e-13 -2.373e-11 0 -1.38236e-12 -5.77201e-12 0 0 0 0)
(-4.52971e-12 2.38105e-12 0 6.77626e-13 1.33814e-11 0 0 0 0)
(2.17604e-12 2.97958e-11 0 2.73761e-12 -5.70866e-12 0 0 0 0)
(6.4837e-12 -2.04536e-11 0 -1.11131e-12 -1.24898e-11 0 0 0 0)
(-2.22045e-12 -2.01636e-11 0 -1.0571e-12 1.01543e-11 0 0 0 0)
(0 3.44865e-15 0 0 1.25832e-15 0 0 0 0)
(0 -8.48193e-15 0 0 2.34659e-15 0 0 0 0)
(0 -5.93772e-15 0 0 -3.98514e-15 0 0 0 0)
(0 7.45864e-15 0 0 -3.93232e-15 0 0 0 0)
(-4.44089e-14 9.79155e-15 0 2.71051e-14 3.93285e-15 0 0 0 0)
(-4.44089e-14 -8.27276e-15 0 0 1.09435e-14 0 0 0 0)
(-4.44089e-14 -3.39823e-14 0 0 3.35261e-16 0 0 0 0)
(0 -9.6138e-15 0 -2.71051e-14 -6.9795e-15 0 0 0 0)
(0 -6.06426e-15 0 0 2.03808e-15 0 0 0 0)
(0 -1.77661e-14 0 0 3.63909e-15 0 0 0 0)
(-4.44089e-14 -2.06206e-14 0 2.71051e-14 4.89524e-15 0 0 0 0)
(-4.44089e-14 -3.73471e-14 0 -2.71051e-14 -4.10039e-15 0 0 0 0)
(8.88178e-14 -4.21904e-15 0 0 -2.08438e-14 0 0 0 0)
(-8.88178e-14 4.60283e-14 0 5.42101e-14 -9.31736e-15 0 0 0 0)
(-4.44089e-14 3.30504e-14 0 -5.42101e-14 7.46313e-15 0 0 0 0)
(0 1.61758e-14 0 2.71051e-14 3.14497e-15 0 0 0 0)
(-4.44089e-14 2.04705e-14 0 0 -2.95511e-16 0 0 0 0)
(0 1.73579e-14 0 -2.71051e-14 -2.49262e-15 0 0 0 0)
(0 3.0441e-14 0 2.71051e-14 -8.93225e-16 0 0 0 0)
(-8.88178e-14 2.09308e-14 0 -2.71051e-14 1.28429e-14 0 0 0 0)
(-1.89735e-13 5.97415e-12 0 -1.06581e-12 3.01906e-11 0 0 0 0)
(3.79471e-13 -7.18607e-12 0 4.44089e-13 -6.29403e-12 0 0 0 0)
(-5.42101e-14 1.49436e-12 0 3.55271e-13 1.44635e-12 0 0 0 0)
(-2.71051e-14 -3.43419e-13 0 2.22045e-13 -3.16579e-13 0 0 0 0)
(2.71051e-14 8.23454e-14 0 2.66454e-13 7.26733e-14 0 0 0 0)
(-2.71051e-14 -9.6826e-15 0 2.66454e-13 1.28022e-14 0 0 0 0)
(-5.42101e-14 -3.6397e-15 0 1.77636e-13 3.39429e-14 0 0 0 0)
(0 -6.50868e-15 0 1.33227e-13 -1.75656e-15 0 0 0 0)
(0 5.14086e-15 0 8.88178e-14 7.90812e-15 0 0 0 0)
(0 3.68462e-15 0 1.33227e-13 1.88069e-14 0 0 0 0)
(0 7.13775e-15 0 8.88178e-14 2.26466e-14 0 0 0 0)
(0 4.915e-15 0 1.77636e-13 4.73579e-14 0 0 0 0)
(-2.71051e-14 -4.31619e-15 0 8.88178e-14 4.23066e-14 0 0 0 0)
(-2.71051e-14 -6.02022e-15 0 0 3.00931e-14 0 0 0 0)
(0 -8.89785e-15 0 0 1.82257e-14 0 0 0 0)
(0 -4.077e-15 0 0 -5.4983e-15 0 0 0 0)
(0 6.63639e-17 0 -8.88178e-14 1.91771e-15 0 0 0 0)
(0 -2.16971e-15 0 4.44089e-14 -5.23284e-15 0 0 0 0)
(0 4.46048e-16 0 -8.88178e-14 -6.76113e-15 0 0 0 0)
(0 2.55244e-15 0 0 -3.44865e-15 0 0 0 0)
)
;
    }
    frontAndBack
    {
        type            empty;
    }
}


// ************************************************************************* //
