/*--------------------------------*- C++ -*----------------------------------*\
| =========                 |                                                 |
| \\      /  F ield         | OpenFOAM: The Open Source CFD Toolbox           |
|  \\    /   O peration     | Version:  2312                                  |
|   \\  /    A nd           | Website:  www.openfoam.com                      |
|    \\/     M anipulation  |                                                 |
\*---------------------------------------------------------------------------*/
FoamFile
{
    version     2.0;
    format      ascii;
    arch        "LSB;label=32;scalar=64";
    class       volVectorField;
    location    "8.5";
    object      gradPhi;
}
// * * * * * * * * * * * * * * * * * * * * * * * * * * * * * * * * * * * * * //

dimensions      [0 2 -1 0 0 0 0];

internalField   nonuniform List<vector> 
400
(
(-0.02 4.31695e-17 0)
(7.61006e-17 -7.77775e-17 0)
(-2.15067e-17 2.1797e-17 0)
(4.96308e-18 -3.82542e-18 0)
(0 6.33489e-19 0)
(-1.65436e-18 6.32653e-19 0)
(-1.65436e-18 1.90042e-18 0)
(0 4.48897e-19 0)
(-1.65436e-18 3.02932e-19 0)
(0 2.44802e-19 0)
(0 1.13855e-19 0)
(-1.65436e-18 8.80277e-19 0)
(0 7.59152e-19 0)
(0 3.60474e-19 0)
(0 5.79816e-19 0)
(0 4.43439e-19 0)
(-1.65436e-18 5.01978e-19 0)
(1.65436e-18 -3.66523e-19 0)
(0 -4.09774e-19 0)
(0 -1.56668e-19 0)
(-0.02 -6.02163e-17 0)
(-9.42986e-17 9.54212e-17 0)
(3.14329e-17 -3.10704e-17 0)
(-4.96308e-18 3.63938e-18 0)
(0 -1.37177e-18 0)
(1.65436e-18 -4.11593e-19 0)
(1.65436e-18 -2.00236e-18 0)
(1.65436e-18 -9.16752e-19 0)
(0 -8.62276e-19 0)
(0 -4.39018e-19 0)
(0 -4.22994e-19 0)
(1.65436e-18 -1.39657e-18 0)
(0 6.46488e-19 0)
(0 -1.13329e-18 0)
(1.65436e-18 -2.27423e-18 0)
(0 -6.10741e-19 0)
(0 -2.65378e-19 0)
(1.65436e-18 -3.13676e-19 0)
(-1.65436e-18 5.28856e-19 0)
(0 8.24951e-19 0)
(-0.02 -3.00168e-17 0)
(-3.97047e-17 3.8956e-17 0)
(6.61744e-18 -5.1322e-18 0)
(-1.65436e-18 1.85051e-18 0)
(3.30872e-18 -1.24561e-18 0)
(0 -1.13973e-18 0)
(0 -1.47114e-18 0)
(1.65436e-18 -8.03481e-19 0)
(0 -2.08099e-19 0)
(1.65436e-18 -8.89426e-19 0)
(0 -1.49981e-19 0)
(-3.30872e-18 1.65766e-18 0)
(0 -4.85527e-20 0)
(0 1.46827e-18 0)
(-1.65436e-18 7.66109e-19 0)
(1.65436e-18 -1.23331e-18 0)
(0 -1.73924e-18 0)
(0 7.47902e-19 0)
(0 -4.17376e-19 0)
(1.65436e-18 -1.30616e-18 0)
(-0.02 8.32779e-17 0)
(1.04225e-16 -1.02512e-16 0)
(-2.48154e-17 2.32457e-17 0)
(4.96308e-18 -5.41575e-18 0)
(-1.65436e-18 1.63072e-18 0)
(0 -3.23284e-19 0)
(0 8.14809e-19 0)
(-1.65436e-18 1.44431e-18 0)
(-1.65436e-18 5.94941e-19 0)
(0 8.10638e-19 0)
(-1.65436e-18 8.75879e-19 0)
(3.30872e-18 -2.58305e-18 0)
(3.30872e-18 -4.07684e-18 0)
(3.30872e-18 -1.97988e-18 0)
(0 4.00102e-20 0)
(-1.65436e-18 7.61425e-19 0)
(-1.65436e-18 1.9011e-18 0)
(0 3.63763e-19 0)
(-1.65436e-18 1.14068e-18 0)
(0 8.55982e-19 0)
(-0.02 -4.30175e-17 0)
(-5.29396e-17 5.45408e-17 0)
(1.15805e-17 -1.2619e-17 0)
(-1.65436e-18 2.60746e-18 0)
(1.65436e-18 -1.74493e-18 0)
(0 -2.11229e-19 0)
(0 -1.52679e-19 0)
(0 3.5183e-19 0)
(0 6.04546e-19 0)
(0 -2.60988e-19 0)
(1.65436e-18 -9.68097e-19 0)
(-1.65436e-18 6.06658e-19 0)
(-1.65436e-18 1.6332e-18 0)
(0 2.41918e-20 0)
(0 3.83817e-19 0)
(-1.65436e-18 9.5763e-19 0)
(0 1.67243e-19 0)
(-1.65436e-18 1.1834e-18 0)
(1.65436e-18 -2.65663e-19 0)
(0 -6.5215e-19 0)
(-0.02 1.27985e-17 0)
(1.32349e-17 -1.40481e-17 0)
(-1.65436e-18 2.04265e-18 0)
(-3.30872e-18 2.81103e-18 0)
(-3.30872e-18 3.16137e-18 0)
(0 2.02688e-19 0)
(0 1.57948e-19 0)
(3.30872e-18 -2.809e-18 0)
(3.30872e-18 -4.05032e-18 0)
(1.65436e-18 -2.11992e-18 0)
(1.65436e-18 -8.37279e-19 0)
(-1.65436e-18 3.67136e-19 0)
(0 7.17684e-19 0)
(0 1.56613e-18 0)
(-1.65436e-18 1.62025e-18 0)
(0 -1.18565e-20 0)
(0 4.79551e-19 0)
(1.65436e-18 -1.36107e-18 0)
(0 5.19242e-19 0)
(-1.65436e-18 1.128e-18 0)
(-0.02 -3.24726e-18 0)
(1.15805e-17 -1.0665e-17 0)
(-1.15805e-17 1.36642e-17 0)
(0 -1.98718e-18 0)
(0 4.94988e-19 0)
(-1.65436e-18 1.62837e-18 0)
(1.65436e-18 -1.45351e-18 0)
(-1.65436e-18 8.75345e-19 0)
(-3.30872e-18 2.79008e-18 0)
(-1.65436e-18 1.30862e-18 0)
(1.65436e-18 -2.7941e-19 0)
(1.65436e-18 -1.02976e-18 0)
(0 1.01574e-19 0)
(0 -1.02237e-18 0)
(0 -9.14173e-19 0)
(-1.65436e-18 9.24353e-19 0)
(1.65436e-18 -1.71706e-18 0)
(1.65436e-18 3.36189e-20 0)
(0 -3.60524e-20 0)
(0 5.19347e-19 0)
(-0.02 1.53238e-18 0)
(-3.30872e-17 3.2734e-17 0)
(2.48154e-17 -2.48141e-17 0)
(0 7.45812e-19 0)
(1.65436e-18 -3.50548e-18 0)
(3.30872e-18 -2.6107e-18 0)
(-1.65436e-18 1.04214e-18 0)
(0 8.53551e-19 0)
(0 -3.82391e-19 0)
(1.65436e-18 -1.00273e-18 0)
(1.65436e-18 -1.12497e-18 0)
(0 -4.32841e-19 0)
(0 -4.72681e-19 0)
(-1.65436e-18 8.78229e-19 0)
(1.65436e-18 -1.37656e-18 0)
(1.65436e-18 -2.45658e-18 0)
(-1.65436e-18 1.04141e-18 0)
(0 -4.037e-19 0)
(1.65436e-18 -1.54922e-18 0)
(1.65436e-18 -2.09312e-18 0)
(-0.02 -1.14833e-17 0)
(4.96308e-18 -4.80097e-18 0)
(-1.32349e-17 1.37512e-17 0)
(0 1.48034e-19 0)
(-1.65436e-18 1.97777e-18 0)
(-1.65436e-18 2.22235e-18 0)
(0 -8.00372e-19 0)
(1.65436e-18 -2.31663e-18 0)
(1.65436e-18 -1.00894e-18 0)
(0 3.6639e-19 0)
(0 -1.2972e-19 0)
(0 -7.90979e-20 0)
(0 5.48719e-20 0)
(1.65436e-18 -6.77066e-19 0)
(-1.65436e-18 9.7298e-19 0)
(0 8.47115e-20 0)
(0 -1.22854e-18 0)
(0 5.74443e-19 0)
(-1.65436e-18 1.0849e-18 0)
(-1.65436e-18 1.92263e-18 0)
(-0.02 2.68904e-17 0)
(2.81241e-17 -2.75105e-17 0)
(-6.61744e-18 6.39861e-18 0)
(3.30872e-18 -2.54033e-18 0)
(1.65436e-18 -1.31544e-18 0)
(0 -3.39863e-19 0)
(-1.65436e-18 1.47433e-18 0)
(0 1.21213e-18 0)
(-1.65436e-18 6.33919e-19 0)
(0 4.4639e-19 0)
(0 1.05792e-19 0)
(1.65436e-18 -1.0978e-18 0)
(3.30872e-18 -1.95211e-18 0)
(1.65436e-18 -1.26407e-18 0)
(0 -1.30704e-18 0)
(0 6.09044e-19 0)
(-1.65436e-18 1.30972e-18 0)
(0 1.12722e-18 0)
(-1.65436e-18 2.75536e-19 0)
(1.65436e-18 -9.60054e-19 0)
(-0.02 3.54136e-18 0)
(-6.61744e-18 6.00488e-18 0)
(1.32349e-17 -1.32744e-17 0)
(0 -2.60139e-19 0)
(0 7.01911e-19 0)
(1.65436e-18 -1.0365e-18 0)
(1.65436e-18 -2.13393e-18 0)
(0 -1.37033e-18 0)
(0 -3.00295e-19 0)
(0 1.11808e-18 0)
(-1.65436e-18 2.53825e-18 0)
(-1.65436e-18 1.64848e-18 0)
(-1.65436e-18 2.77099e-18 0)
(-4.96308e-18 2.92204e-18 0)
(0 1.57382e-18 0)
(0 1.80487e-19 0)
(0 -1.4497e-18 0)
(3.30872e-18 -3.64243e-18 0)
(1.65436e-18 -3.67014e-19 0)
(-1.65436e-18 6.14572e-19 0)
(-0.02 -4.37901e-17 0)
(-2.31611e-17 2.44749e-17 0)
(-1.32349e-17 1.25833e-17 0)
(-1.65436e-18 2.21212e-18 0)
(0 -1.9567e-18 0)
(1.65436e-18 -4.12197e-19 0)
(-1.65436e-18 2.25703e-18 0)
(-4.96308e-18 3.26368e-18 0)
(-1.65436e-18 1.45062e-18 0)
(1.65436e-18 -7.96581e-19 0)
(0 -3.24096e-19 0)
(-1.65436e-18 1.86842e-18 0)
(0 2.59268e-19 0)
(1.65436e-18 -1.39586e-18 0)
(1.65436e-18 -1.77361e-18 0)
(1.65436e-18 -1.14728e-18 0)
(0 3.86995e-19 0)
(-3.30872e-18 1.97378e-18 0)
(0 -2.25448e-19 0)
(0 7.43e-19 0)
(-0.02 3.39537e-17 0)
(1.98523e-17 -1.77614e-17 0)
(1.32349e-17 -1.34208e-17 0)
(0 -8.30531e-19 0)
(-3.30872e-18 1.67773e-18 0)
(-1.65436e-18 9.0394e-19 0)
(0 7.58108e-19 0)
(1.65436e-18 -5.30417e-19 0)
(1.65436e-18 -3.50966e-19 0)
(0 3.46625e-19 0)
(-1.65436e-18 1.38816e-19 0)
(1.65436e-18 -3.10946e-19 0)
(1.65436e-18 -1.20185e-18 0)
(1.65436e-18 -1.9493e-19 0)
(-3.30872e-18 1.88098e-18 0)
(-1.65436e-18 7.74462e-19 0)
(0 -1.85987e-19 0)
(0 -1.38327e-19 0)
(1.65436e-18 -1.12106e-18 0)
(3.30872e-18 -2.63142e-18 0)
(-0.02 1.29402e-17 0)
(1.8198e-17 -1.95291e-17 0)
(-9.92617e-18 9.10285e-18 0)
(1.65436e-18 -1.70627e-18 0)
(1.65436e-18 -1.20932e-18 0)
(0 5.28122e-19 0)
(0 -4.65782e-19 0)
(1.65436e-18 -1.00552e-19 0)
(0 -4.62267e-19 0)
(1.65436e-18 -2.45355e-19 0)
(0 1.15269e-19 0)
(0 -1.02217e-19 0)
(-1.65436e-18 1.14166e-18 0)
(0 -8.30384e-19 0)
(1.65436e-18 -1.6004e-18 0)
(0 3.18022e-19 0)
(0 1.19014e-18 0)
(-1.65436e-18 9.30149e-19 0)
(0 -5.03256e-19 0)
(0 -1.65472e-19 0)
(-0.02 -2.05656e-17 0)
(-2.31611e-17 2.26886e-17 0)
(1.65436e-18 -3.38758e-18 0)
(0 1.44243e-18 0)
(-1.65436e-18 3.25478e-18 0)
(0 3.32681e-19 0)
(1.65436e-18 -1.83882e-18 0)
(0 -1.8462e-19 0)
(-1.65436e-18 1.46022e-18 0)
(-1.65436e-18 1.30665e-18 0)
(0 2.11497e-19 0)
(1.65436e-18 -1.27568e-18 0)
(3.30872e-18 -2.64606e-18 0)
(0 3.35143e-19 0)
(-1.65436e-18 1.79211e-18 0)
(-1.65436e-18 2.34195e-18 0)
(1.65436e-18 -5.71599e-19 0)
(0 -2.66752e-18 0)
(0 2.97409e-19 0)
(0 1.18352e-18 0)
(-0.02 -1.62954e-17 0)
(-3.30872e-17 3.22202e-17 0)
(1.32349e-17 -1.33204e-17 0)
(-1.65436e-18 1.1074e-18 0)
(4.96308e-18 -4.33351e-18 0)
(1.65436e-18 -1.92306e-18 0)
(0 1.28367e-19 0)
(0 -1.18852e-18 0)
(0 -5.30206e-19 0)
(0 1.16443e-18 0)
(-1.65436e-18 2.16591e-18 0)
(-1.65436e-18 1.99463e-18 0)
(-1.65436e-18 1.17676e-18 0)
(0 -6.29058e-19 0)
(0 2.69243e-19 0)
(1.65436e-18 -2.1476e-18 0)
(1.65436e-18 -8.39862e-19 0)
(0 4.06271e-19 0)
(0 6.79711e-19 0)
(0 -4.93786e-19 0)
(-0.02 7.71613e-17 0)
(1.05879e-16 -1.044e-16 0)
(-3.47416e-17 3.33626e-17 0)
(6.61744e-18 -5.46162e-18 0)
(-1.65436e-18 2.36578e-18 0)
(1.65436e-18 -8.10916e-19 0)
(0 -5.49218e-19 0)
(-1.65436e-18 1.44326e-18 0)
(-1.65436e-18 7.34045e-19 0)
(1.65436e-18 -1.14782e-18 0)
(1.65436e-18 -2.47669e-18 0)
(1.65436e-18 -7.85393e-19 0)
(-1.65436e-18 3.22527e-19 0)
(-1.65436e-18 1.00043e-18 0)
(1.65436e-18 -1.69566e-18 0)
(1.65436e-18 -1.50232e-18 0)
(0 4.3708e-19 0)
(-1.65436e-18 1.64359e-18 0)
(0 1.31277e-20 0)
(0 2.52426e-19 0)
(-0.02 -3.79636e-17 0)
(-4.96308e-17 4.9092e-17 0)
(1.48893e-17 -1.40997e-17 0)
(-3.30872e-18 2.70277e-18 0)
(1.65436e-18 -1.45802e-18 0)
(1.65436e-18 -5.8203e-20 0)
(-1.65436e-18 1.24174e-18 0)
(0 -3.83946e-19 0)
(1.65436e-18 -1.58841e-18 0)
(1.65436e-18 -9.11856e-19 0)
(1.65436e-18 -9.92862e-20 0)
(0 -2.47102e-19 0)
(-1.65436e-18 9.72101e-19 0)
(0 3.87426e-19 0)
(-1.65436e-18 1.05946e-18 0)
(-1.65436e-18 1.5067e-18 0)
(-1.65436e-18 5.9466e-19 0)
(0 -3.57044e-20 0)
(0 -4.4839e-19 0)
(0 2.43169e-20 0)
(-0.02 -8.93556e-17 0)
(-1.14151e-16 1.1369e-16 0)
(3.14329e-17 -3.13638e-17 0)
(-4.96308e-18 5.3692e-18 0)
(-1.65436e-18 7.21152e-19 0)
(-3.30872e-18 3.30531e-18 0)
(0 6.16762e-19 0)
(0 -8.6383e-20 0)
(0 -4.70089e-21 0)
(-1.65436e-18 -4.99653e-21 0)
(0 1.51631e-19 0)
(1.65436e-18 -1.27276e-19 0)
(0 -4.6874e-19 0)
(1.65436e-18 -6.07576e-19 0)
(1.65436e-18 -1.9817e-18 0)
(0 -6.57302e-19 0)
(0 2.14555e-19 0)
(-1.65436e-18 4.42636e-19 0)
(1.65436e-18 6.03513e-20 0)
(0 -7.48467e-19 0)
(-0.02 6.06861e-17 0)
(8.93355e-17 -9.08179e-17 0)
(-2.64698e-17 2.65541e-17 0)
(3.30872e-18 -2.60891e-18 0)
(-1.65436e-18 1.52108e-18 0)
(0 -4.78847e-19 0)
(0 4.76172e-19 0)
(0 7.97615e-19 0)
(-1.65436e-18 1.17758e-18 0)
(-1.65436e-18 7.06067e-19 0)
(0 3.95628e-19 0)
(0 4.44472e-19 0)
(0 3.1056e-19 0)
(0 7.92159e-19 0)
(-1.65436e-18 1.98478e-18 0)
(0 8.64768e-19 0)
(1.65436e-18 -2.27079e-19 0)
(0 -4.9782e-19 0)
(0 7.43445e-19 0)
(-1.65436e-18 1.13855e-18 0)
)
;

boundaryField
{
    movingWall
    {
        type            extrapolatedCalculated;
        value           nonuniform List<vector> 
20
(
(-0.02 6.06861e-17 0)
(8.93355e-17 -9.08179e-17 0)
(-2.64698e-17 2.65541e-17 0)
(3.30872e-18 -2.60891e-18 0)
(-1.65436e-18 1.52108e-18 0)
(0 -4.78847e-19 0)
(0 4.76172e-19 0)
(0 7.97615e-19 0)
(-1.65436e-18 1.17758e-18 0)
(-1.65436e-18 7.06067e-19 0)
(0 3.95628e-19 0)
(0 4.44472e-19 0)
(0 3.1056e-19 0)
(0 7.92159e-19 0)
(-1.65436e-18 1.98478e-18 0)
(0 8.64768e-19 0)
(1.65436e-18 -2.27079e-19 0)
(0 -4.9782e-19 0)
(0 7.43445e-19 0)
(-1.65436e-18 1.13855e-18 0)
)
;
    }
    fixedWalls
    {
        type            extrapolatedCalculated;
        value           nonuniform List<vector> 
60
(
(-0.02 4.31695e-17 0)
(-0.02 -6.02163e-17 0)
(-0.02 -3.00168e-17 0)
(-0.02 8.32779e-17 0)
(-0.02 -4.30175e-17 0)
(-0.02 1.27985e-17 0)
(-0.02 -3.24726e-18 0)
(-0.02 1.53238e-18 0)
(-0.02 -1.14833e-17 0)
(-0.02 2.68904e-17 0)
(-0.02 3.54136e-18 0)
(-0.02 -4.37901e-17 0)
(-0.02 3.39537e-17 0)
(-0.02 1.29402e-17 0)
(-0.02 -2.05656e-17 0)
(-0.02 -1.62954e-17 0)
(-0.02 7.71613e-17 0)
(-0.02 -3.79636e-17 0)
(-0.02 -8.93556e-17 0)
(-0.02 6.06861e-17 0)
(0 -1.56668e-19 0)
(0 8.24951e-19 0)
(1.65436e-18 -1.30616e-18 0)
(0 8.55982e-19 0)
(0 -6.5215e-19 0)
(-1.65436e-18 1.128e-18 0)
(0 5.19347e-19 0)
(1.65436e-18 -2.09312e-18 0)
(-1.65436e-18 1.92263e-18 0)
(1.65436e-18 -9.60054e-19 0)
(-1.65436e-18 6.14572e-19 0)
(0 7.43e-19 0)
(3.30872e-18 -2.63142e-18 0)
(0 -1.65472e-19 0)
(0 1.18352e-18 0)
(0 -4.93786e-19 0)
(0 2.52426e-19 0)
(0 2.43169e-20 0)
(0 -7.48467e-19 0)
(-1.65436e-18 1.13855e-18 0)
(-0.02 4.31695e-17 0)
(7.61006e-17 -7.77775e-17 0)
(-2.15067e-17 2.1797e-17 0)
(4.96308e-18 -3.82542e-18 0)
(0 6.33489e-19 0)
(-1.65436e-18 6.32653e-19 0)
(-1.65436e-18 1.90042e-18 0)
(0 4.48897e-19 0)
(-1.65436e-18 3.02932e-19 0)
(0 2.44802e-19 0)
(0 1.13855e-19 0)
(-1.65436e-18 8.80277e-19 0)
(0 7.59152e-19 0)
(0 3.60474e-19 0)
(0 5.79816e-19 0)
(0 4.43439e-19 0)
(-1.65436e-18 5.01978e-19 0)
(1.65436e-18 -3.66523e-19 0)
(0 -4.09774e-19 0)
(0 -1.56668e-19 0)
)
;
    }
    frontAndBack
    {
        type            empty;
    }
}


// ************************************************************************* //
