/*--------------------------------*- C++ -*----------------------------------*\
| =========                 |                                                 |
| \\      /  F ield         | OpenFOAM: The Open Source CFD Toolbox           |
|  \\    /   O peration     | Version:  2312                                  |
|   \\  /    A nd           | Website:  www.openfoam.com                      |
|    \\/     M anipulation  |                                                 |
\*---------------------------------------------------------------------------*/
FoamFile
{
    version     2.0;
    format      ascii;
    arch        "LSB;label=32;scalar=64";
    class       volScalarField;
    location    "8.5";
    object      initialResidual:Uy;
}
// * * * * * * * * * * * * * * * * * * * * * * * * * * * * * * * * * * * * * //

dimensions      [0 0 0 0 0 0 0];

internalField   nonuniform List<scalar> 
400
(
1.17656e-20
-2.17699e-20
-6.97525e-21
9.82659e-22
3.20176e-21
-3.38669e-21
-3.80772e-21
-1.81585e-21
4.28224e-21
2.41174e-21
1.27778e-21
-4.13347e-22
-3.97708e-21
-3.33203e-21
-1.64155e-21
3.65323e-21
3.42229e-21
-1.72444e-21
-3.7711e-21
-4.57219e-22
-3.30548e-20
-1.66237e-20
-1.0225e-20
-1.50404e-21
3.43011e-21
-1.58332e-21
-3.36705e-21
-2.27937e-21
-1.71904e-21
-1.83647e-21
-4.0493e-21
-1.3744e-21
-6.05444e-21
-1.13053e-20
-2.84354e-21
1.27046e-20
5.42858e-21
-4.15652e-21
-2.55018e-21
-3.51536e-22
-6.23646e-20
-5.89398e-21
-5.92269e-21
-6.25431e-21
-2.78533e-21
-5.35768e-21
-5.16422e-21
-3.37359e-21
-1.00473e-20
-3.20584e-21
7.36852e-22
4.09803e-21
2.36837e-21
-1.04351e-20
-4.9266e-21
3.20718e-21
-1.7319e-21
-5.26375e-21
3.93214e-21
1.5477e-21
-2.00614e-20
-1.42483e-20
-7.27641e-21
-6.35555e-21
-5.17326e-21
-1.09247e-20
-9.27488e-21
-2.9237e-21
-4.83105e-21
-6.12345e-21
-1.23202e-21
-3.37884e-21
4.2721e-23
-1.16937e-21
-5.50534e-22
-6.49534e-21
-1.57022e-21
4.62634e-21
7.11264e-21
1.02566e-21
-1.42019e-20
-6.52279e-21
-1.35222e-20
-7.98069e-21
-6.85341e-21
-4.31656e-21
-2.19289e-21
1.30445e-21
-1.3943e-21
-5.92716e-21
-7.2993e-21
-1.30738e-20
-1.33825e-20
-3.5143e-21
-1.03565e-21
-1.32862e-22
6.73215e-21
1.44798e-20
7.47851e-21
-9.4222e-22
-1.11245e-20
-1.2286e-20
-1.11909e-20
-9.67188e-21
-1.09717e-20
-1.92018e-21
2.31035e-21
-2.74329e-21
-4.29183e-21
-4.7095e-21
1.49182e-21
1.03123e-22
-3.00142e-21
-4.38001e-21
-3.63571e-21
-6.79439e-22
4.03004e-21
9.3443e-21
4.9932e-21
-5.36935e-22
2.79355e-20
-2.07829e-20
-2.48447e-21
-5.1418e-21
-6.7744e-21
-4.82323e-21
7.20723e-22
-4.95738e-21
-2.97951e-21
-6.39004e-21
-8.71519e-21
-2.95603e-21
-3.69175e-22
-2.76449e-21
-1.44792e-21
4.75245e-21
6.14283e-21
-2.4584e-22
-2.63751e-21
-1.06481e-21
-2.21929e-20
1.82431e-23
-7.66965e-21
-4.29881e-21
-1.49174e-21
-6.96592e-21
-4.99396e-21
-3.05718e-21
-6.02392e-21
-5.79109e-21
-1.08241e-20
-9.68807e-21
-4.98478e-21
2.88675e-22
5.13998e-22
3.71843e-21
1.73414e-21
-6.05939e-21
-4.40773e-21
-1.68958e-21
-1.94911e-21
-7.38752e-22
-6.71018e-21
-1.19684e-20
-8.20656e-21
-9.03126e-21
-1.4237e-20
-4.94455e-21
-8.50915e-21
-6.03268e-21
-1.70983e-21
4.50252e-22
2.24455e-22
-2.23001e-21
-4.08574e-21
-4.0413e-21
-4.1968e-21
-1.26062e-21
-4.49672e-21
-3.59713e-21
7.24182e-20
-2.4874e-20
-1.669e-21
-1.20341e-20
-7.23582e-21
-4.33384e-21
-1.26511e-20
-8.78157e-21
-4.20115e-21
-4.87639e-21
-3.52518e-21
-2.30032e-21
-4.02335e-21
-4.70126e-21
-7.63276e-22
2.71339e-21
-5.60621e-22
-3.82191e-21
-6.44435e-21
-1.59498e-21
-4.83264e-20
1.86033e-20
-1.00192e-20
-1.23778e-21
-3.02783e-21
-4.49249e-21
-4.97306e-21
-8.3492e-21
-4.42767e-21
-2.21899e-21
-3.40032e-21
-5.53797e-21
8.45852e-22
7.56599e-21
5.71068e-21
1.29157e-21
-5.92658e-21
-5.80269e-21
-5.20023e-22
1.88347e-22
1.06922e-20
9.16474e-22
-3.07471e-21
-3.64797e-21
-6.15519e-21
-5.16848e-21
-7.07726e-23
-2.86986e-21
-3.03313e-21
8.6639e-22
-1.24838e-22
2.27411e-21
4.3104e-21
-2.96127e-22
-7.20585e-21
-3.15949e-21
-1.81044e-22
2.99138e-21
-1.62886e-21
-1.85215e-21
3.9411e-20
-1.0101e-20
7.15515e-21
8.62759e-23
-5.79944e-21
-5.61846e-21
-1.31444e-21
5.94225e-21
5.99748e-21
-5.93929e-21
-5.71253e-21
5.99277e-22
1.44463e-21
-4.42256e-21
-4.64543e-21
-5.78697e-21
-7.68271e-22
5.29225e-22
-2.88828e-21
7.68516e-23
-3.61274e-20
4.16782e-21
6.63567e-21
4.12751e-21
1.80221e-21
4.09308e-21
-1.19277e-22
-3.21148e-22
2.05024e-21
-3.01997e-22
-1.25426e-21
-2.68307e-21
-2.12713e-21
-1.70605e-21
-4.04871e-21
-5.7704e-21
2.25012e-21
-3.9884e-22
-5.62118e-21
-1.49385e-21
3.47584e-20
-1.79636e-20
5.45265e-21
2.24517e-21
7.04152e-21
3.17372e-21
2.66698e-21
-5.49806e-21
-6.90101e-21
3.86935e-21
2.09124e-21
-4.83305e-21
-6.69659e-21
1.56694e-23
3.43805e-21
4.56513e-21
8.58241e-22
-3.69759e-21
-5.06341e-21
-1.72825e-21
-7.35663e-22
4.32511e-21
-2.56362e-21
4.09438e-21
1.05092e-20
1.95052e-21
-1.97758e-21
-3.33505e-21
3.44419e-22
8.95535e-21
1.02406e-21
-7.4268e-21
-6.27678e-21
2.08484e-21
8.75811e-21
-1.48156e-22
-7.54052e-21
-3.27058e-21
1.46416e-21
5.35928e-22
-1.52478e-20
1.13386e-20
-3.41949e-22
1.03377e-21
4.30704e-21
3.67576e-21
-4.24e-21
-4.28929e-22
3.53699e-21
4.09278e-21
3.30301e-21
-2.8843e-21
-2.22014e-21
-1.35329e-22
-4.56381e-22
-6.05939e-21
-5.08468e-21
5.94185e-22
8.3455e-23
-2.96243e-22
3.13916e-20
-1.02613e-20
5.75262e-21
2.94796e-21
-3.78244e-21
-5.76132e-21
-7.98118e-22
8.09167e-21
1.79355e-23
-7.81243e-21
-2.92351e-21
3.28555e-21
3.84742e-21
3.61642e-21
-2.30932e-21
-2.78009e-21
-3.32199e-21
-2.15517e-21
-2.17594e-21
-9.25892e-22
-3.62526e-21
-1.89531e-21
-2.19685e-21
1.84171e-21
4.04169e-22
4.4786e-22
3.69562e-21
2.19278e-21
4.39998e-22
-2.02873e-21
-1.85251e-21
4.51062e-21
6.48026e-22
-3.99006e-21
-5.9408e-21
2.18353e-21
9.40664e-21
-1.16042e-21
-3.83785e-21
-2.2261e-22
-2.30325e-20
1.30531e-20
-4.22026e-21
2.88522e-23
5.36326e-22
7.79245e-22
1.9905e-21
-1.70531e-21
1.74556e-21
3.37213e-22
1.22074e-22
1.15957e-21
-2.84088e-21
-5.70741e-21
-2.89786e-21
3.62229e-21
8.57186e-21
-7.26691e-22
-2.46722e-21
3.88434e-22
)
;

boundaryField
{
    movingWall
    {
        type            zeroGradient;
    }
    fixedWalls
    {
        type            zeroGradient;
    }
    frontAndBack
    {
        type            empty;
    }
}


// ************************************************************************* //
