/*--------------------------------*- C++ -*----------------------------------*\
| =========                 |                                                 |
| \\      /  F ield         | OpenFOAM: The Open Source CFD Toolbox           |
|  \\    /   O peration     | Version:  2312                                  |
|   \\  /    A nd           | Website:  www.openfoam.com                      |
|    \\/     M anipulation  |                                                 |
\*---------------------------------------------------------------------------*/
FoamFile
{
    version     2.0;
    format      ascii;
    arch        "LSB;label=32;scalar=64";
    class       volScalarField;
    location    "8.5";
    object      initialResidual:k;
}
// * * * * * * * * * * * * * * * * * * * * * * * * * * * * * * * * * * * * * //

dimensions      [0 0 0 0 0 0 0];

internalField   nonuniform List<scalar> 
400
(
-2.59488e-13
-2.59421e-13
-2.59456e-13
-2.59448e-13
-2.5946e-13
-2.59451e-13
-2.59455e-13
-2.59469e-13
-2.59441e-13
-2.59474e-13
-2.59434e-13
-2.59469e-13
-2.5944e-13
-2.59466e-13
-2.59443e-13
-2.59461e-13
-2.59449e-13
-2.59455e-13
-2.59454e-13
-2.59454e-13
-2.69349e-13
-2.69759e-13
-2.69139e-13
-2.69268e-13
-2.6948e-13
-2.69284e-13
-2.69435e-13
-2.69288e-13
-2.69353e-13
-2.69419e-13
-2.69158e-13
-2.6977e-13
-2.68888e-13
-2.69741e-13
-2.68922e-13
-2.69572e-13
-2.69087e-13
-2.69295e-13
-2.69287e-13
-2.69303e-13
-2.84405e-13
-2.84375e-13
-2.84295e-13
-2.84211e-13
-2.84554e-13
-2.84138e-13
-2.84358e-13
-2.84212e-13
-2.84259e-13
-2.84252e-13
-2.84303e-13
-2.84232e-13
-2.84306e-13
-2.84246e-13
-2.84305e-13
-2.84253e-13
-2.84286e-13
-2.84293e-13
-2.84237e-13
-2.84251e-13
-2.98952e-13
-2.99298e-13
-2.98697e-13
-2.98871e-13
-2.99237e-13
-2.9873e-13
-2.9898e-13
-2.98765e-13
-2.98894e-13
-2.98841e-13
-2.98893e-13
-2.98842e-13
-2.98899e-13
-2.98854e-13
-2.98914e-13
-2.98864e-13
-2.98897e-13
-2.98904e-13
-2.98843e-13
-2.98858e-13
-3.10044e-13
-3.114e-13
-3.09347e-13
-3.09996e-13
-3.10226e-13
-3.10232e-13
-3.10093e-13
-3.1057e-13
-3.09773e-13
-3.10796e-13
-3.09542e-13
-3.10893e-13
-3.09402e-13
-3.10622e-13
-3.0964e-13
-3.10419e-13
-3.09896e-13
-3.10129e-13
-3.101e-13
-3.10123e-13
-3.17715e-13
-3.17692e-13
-3.17584e-13
-3.18371e-13
-3.17302e-13
-3.17458e-13
-3.1796e-13
-3.17484e-13
-3.17634e-13
-3.17496e-13
-3.17672e-13
-3.17593e-13
-3.17669e-13
-3.1761e-13
-3.17663e-13
-3.17622e-13
-3.17623e-13
-3.17646e-13
-3.17592e-13
-3.17606e-13
-3.22312e-13
-3.22581e-13
-3.21979e-13
-3.22433e-13
-3.22172e-13
-3.22118e-13
-3.22334e-13
-3.22226e-13
-3.21982e-13
-3.23041e-13
-3.21362e-13
-3.23184e-13
-3.2122e-13
-3.22959e-13
-3.21441e-13
-3.226e-13
-3.218e-13
-3.22163e-13
-3.22128e-13
-3.22163e-13
-3.24428e-13
-3.27904e-13
-3.22679e-13
-3.26379e-13
-3.23413e-13
-3.26407e-13
-3.23485e-13
-3.25605e-13
-3.24279e-13
-3.24708e-13
-3.2513e-13
-3.24737e-13
-3.24912e-13
-3.24775e-13
-3.2494e-13
-3.24883e-13
-3.24919e-13
-3.24929e-13
-3.24852e-13
-3.24869e-13
-3.26309e-13
-3.28376e-13
-3.25381e-13
-3.2715e-13
-3.25953e-13
-3.28066e-13
-3.25158e-13
-3.28943e-13
-3.24202e-13
-3.28628e-13
-3.24307e-13
-3.28669e-13
-3.24476e-13
-3.28185e-13
-3.25153e-13
-3.27439e-13
-3.25883e-13
-3.26724e-13
-3.26404e-13
-3.26557e-13
-3.27694e-13
-3.28845e-13
-3.26988e-13
-3.29071e-13
-3.26767e-13
-3.27831e-13
-3.27842e-13
-3.27516e-13
-3.27921e-13
-3.2765e-13
-3.2781e-13
-3.27758e-13
-3.27808e-13
-3.27762e-13
-3.27819e-13
-3.27754e-13
-3.27795e-13
-3.278e-13
-3.27733e-13
-3.27752e-13
-3.28843e-13
-3.29078e-13
-3.28513e-13
-3.29407e-13
-3.28426e-13
-3.28589e-13
-3.29115e-13
-3.28585e-13
-3.28815e-13
-3.28715e-13
-3.28811e-13
-3.28753e-13
-3.28806e-13
-3.2875e-13
-3.28808e-13
-3.28757e-13
-3.28776e-13
-3.28793e-13
-3.28729e-13
-3.28747e-13
-3.29831e-13
-3.2976e-13
-3.29758e-13
-3.30101e-13
-3.29781e-13
-3.29525e-13
-3.30068e-13
-3.29596e-13
-3.29657e-13
-3.29645e-13
-3.29757e-13
-3.29702e-13
-3.29765e-13
-3.29707e-13
-3.29764e-13
-3.29711e-13
-3.29732e-13
-3.29748e-13
-3.29682e-13
-3.29701e-13
-3.30791e-13
-3.31158e-13
-3.30383e-13
-3.31548e-13
-3.30188e-13
-3.30549e-13
-3.31078e-13
-3.30484e-13
-3.30788e-13
-3.30664e-13
-3.30756e-13
-3.30698e-13
-3.30751e-13
-3.30703e-13
-3.30759e-13
-3.30711e-13
-3.30727e-13
-3.30746e-13
-3.3068e-13
-3.30699e-13
-3.31952e-13
-3.31908e-13
-3.31872e-13
-3.31884e-13
-3.32189e-13
-3.31642e-13
-3.32011e-13
-3.31722e-13
-3.31764e-13
-3.31707e-13
-3.31855e-13
-3.31797e-13
-3.31853e-13
-3.31798e-13
-3.31861e-13
-3.31805e-13
-3.31833e-13
-3.31845e-13
-3.31775e-13
-3.31794e-13
-3.32903e-13
-3.34498e-13
-3.3214e-13
-3.32899e-13
-3.33139e-13
-3.33025e-13
-3.3307e-13
-3.33285e-13
-3.32853e-13
-3.33388e-13
-3.32745e-13
-3.33482e-13
-3.32599e-13
-3.3323e-13
-3.32811e-13
-3.33144e-13
-3.32949e-13
-3.33024e-13
-3.33012e-13
-3.33016e-13
-3.34424e-13
-3.34774e-13
-3.33959e-13
-3.36104e-13
-3.3301e-13
-3.35207e-13
-3.33751e-13
-3.34138e-13
-3.34591e-13
-3.34237e-13
-3.34492e-13
-3.34325e-13
-3.3445e-13
-3.34344e-13
-3.34439e-13
-3.34363e-13
-3.34388e-13
-3.34403e-13
-3.34339e-13
-3.34361e-13
-3.35904e-13
-3.36412e-13
-3.35444e-13
-3.36315e-13
-3.35505e-13
-3.35939e-13
-3.35802e-13
-3.35915e-13
-3.35559e-13
-3.36611e-13
-3.34994e-13
-3.368e-13
-3.34838e-13
-3.36588e-13
-3.35047e-13
-3.36223e-13
-3.35404e-13
-3.35762e-13
-3.35747e-13
-3.35775e-13
-3.37255e-13
-3.37927e-13
-3.36793e-13
-3.3703e-13
-3.37411e-13
-3.37113e-13
-3.37276e-13
-3.37153e-13
-3.37253e-13
-3.37221e-13
-3.36918e-13
-3.3793e-13
-3.3641e-13
-3.37852e-13
-3.36481e-13
-3.37549e-13
-3.36775e-13
-3.3712e-13
-3.37097e-13
-3.37127e-13
-3.38358e-13
-3.38423e-13
-3.38153e-13
-3.38754e-13
-3.38082e-13
-3.38045e-13
-3.38571e-13
-3.38072e-13
-3.38245e-13
-3.38189e-13
-3.3828e-13
-3.38225e-13
-3.3828e-13
-3.38223e-13
-3.38282e-13
-3.38228e-13
-3.3825e-13
-3.38267e-13
-3.382e-13
-3.38218e-13
-3.38813e-13
-3.38821e-13
-3.38862e-13
-3.38802e-13
-3.38899e-13
-3.38756e-13
-3.38989e-13
-3.3864e-13
-3.39045e-13
-3.38627e-13
-3.39011e-13
-3.38696e-13
-3.38915e-13
-3.38788e-13
-3.38866e-13
-3.38814e-13
-3.38842e-13
-3.38832e-13
-3.38834e-13
-3.38834e-13
)
;

boundaryField
{
    movingWall
    {
        type            zeroGradient;
    }
    fixedWalls
    {
        type            zeroGradient;
    }
    frontAndBack
    {
        type            empty;
    }
}


// ************************************************************************* //
