/*--------------------------------*- C++ -*----------------------------------*\
| =========                 |                                                 |
| \\      /  F ield         | OpenFOAM: The Open Source CFD Toolbox           |
|  \\    /   O peration     | Version:  2312                                  |
|   \\  /    A nd           | Website:  www.openfoam.com                      |
|    \\/     M anipulation  |                                                 |
\*---------------------------------------------------------------------------*/
FoamFile
{
    version     2.0;
    format      ascii;
    arch        "LSB;label=32;scalar=64";
    class       volScalarField;
    location    "8.5";
    object      initialResidual:p;
}
// * * * * * * * * * * * * * * * * * * * * * * * * * * * * * * * * * * * * * //

dimensions      [0 0 0 0 0 0 0];

internalField   nonuniform List<scalar> 
400
(
-1.01644e-19
4.261e-20
-6.63573e-21
-6.91692e-21
2.17618e-20
-9.49415e-21
-9.14562e-21
-8.35053e-21
7.50052e-21
-4.18622e-22
5.6229e-21
-2.46573e-21
-1.13165e-20
-1.03057e-20
1.43264e-21
1.11358e-20
1.50368e-20
-9.03793e-21
-1.67142e-21
-6.77625e-21
-2.71048e-20
1.11313e-20
3.37098e-21
-2.87113e-21
-2.69393e-21
4.04733e-21
1.07685e-20
4.11503e-21
-1.10004e-20
-8.55487e-21
-2.79988e-21
4.37101e-21
2.58801e-21
1.0014e-21
-7.43034e-21
-1.73254e-21
8.75091e-22
-8.78429e-21
2.0467e-22
6.77629e-21
6.77616e-21
-9.13456e-21
-2.09992e-20
1.07155e-21
8.62764e-21
-1.50578e-20
-1.36495e-20
9.58328e-21
-1.25198e-20
-2.32355e-20
1.49584e-20
1.5315e-20
-5.90738e-21
9.4162e-21
4.52174e-21
-8.884e-21
-8.77127e-22
6.86726e-21
2.4872e-21
7.48748e-27
4.06576e-20
1.14066e-20
-1.61702e-21
7.17122e-23
-1.22652e-20
1.58384e-21
9.24655e-21
-1.09389e-20
1.00897e-20
7.17178e-21
-1.99554e-20
-6.51493e-22
8.22628e-21
7.06306e-21
-5.2751e-21
1.32568e-21
1.06023e-20
7.28443e-21
4.27814e-21
2.33033e-26
-6.7764e-21
3.15276e-20
-9.46402e-21
-9.13416e-22
-1.34461e-20
-2.36032e-21
5.34455e-21
6.12456e-21
-1.79183e-20
1.71812e-20
2.74586e-21
1.08792e-21
2.80702e-22
3.52308e-21
5.73365e-21
-1.80656e-20
1.36431e-20
1.43472e-21
3.59428e-21
-6.77626e-21
-6.77624e-21
-6.06856e-21
-7.27848e-21
7.81002e-22
-5.15529e-21
-2.25994e-21
1.34911e-20
9.27575e-21
9.84796e-21
7.35992e-22
-8.35591e-21
5.55302e-21
8.02654e-21
5.83274e-21
7.65877e-21
-9.75844e-21
1.03558e-20
9.33379e-21
-1.32648e-20
-6.77624e-21
-1.5217e-25
-5.36393e-21
8.81574e-21
-4.6318e-21
-3.93556e-21
9.62395e-21
-2.91094e-21
-5.09123e-21
-1.13082e-20
1.55165e-20
-9.57564e-21
1.60204e-20
-3.73784e-20
-4.9185e-22
1.39875e-20
-1.18676e-20
2.20019e-20
-2.29814e-20
-2.94957e-21
-3.89371e-27
6.77639e-21
4.89702e-22
2.00711e-20
-6.85064e-21
2.5856e-22
-1.82236e-21
-2.84315e-20
1.56461e-20
-7.72207e-21
-1.31397e-20
1.76171e-20
-3.26964e-21
5.53668e-21
-7.7991e-21
1.28999e-20
6.41872e-21
-9.13577e-21
-1.83503e-20
1.10226e-20
1.03761e-26
1.35523e-20
-2.19754e-20
5.23379e-22
2.68343e-21
-1.96764e-21
-7.91218e-21
2.43899e-21
7.13522e-21
-1.11671e-20
-3.07289e-21
1.79027e-20
-2.09168e-21
-2.34393e-21
4.24067e-21
-2.87727e-21
-2.82445e-21
2.52619e-21
-1.26972e-21
-2.58552e-21
-1.00716e-26
-1.35525e-20
8.81556e-21
-2.07782e-20
1.44332e-20
8.66902e-21
-5.86815e-21
8.33552e-22
1.41929e-20
-4.36237e-21
-4.05639e-21
-2.76031e-21
1.31811e-20
-7.34332e-21
-1.38821e-20
2.09907e-20
4.41826e-22
-1.6683e-21
-4.30015e-21
3.14799e-21
1.35525e-20
3.38813e-20
-1.17654e-20
2.26176e-21
-3.28607e-21
-3.92187e-21
9.02872e-21
-4.08273e-21
1.62907e-20
-8.73852e-21
6.70324e-21
-7.68997e-21
-8.49321e-21
1.86659e-21
-3.085e-21
2.13035e-20
-1.94069e-21
-3.32262e-21
1.23291e-20
1.41843e-20
-1.35525e-20
-1.35527e-20
-8.37297e-21
-3.22343e-22
1.07482e-20
1.49033e-20
1.11127e-20
-6.4176e-21
-2.67707e-20
-7.38786e-22
1.16992e-20
-6.97514e-21
8.92615e-21
2.14086e-20
2.33663e-21
-2.72587e-20
-8.87139e-21
7.82878e-21
1.26942e-21
5.56661e-21
-2.93041e-27
-1.35526e-20
7.71732e-21
1.03502e-20
8.01375e-22
2.02616e-20
-9.37171e-22
-6.60286e-23
3.31677e-21
2.88607e-21
3.83882e-21
-1.12554e-20
-9.07692e-21
-9.71589e-21
2.918e-21
5.10603e-21
-2.89641e-21
-7.84546e-21
-2.79265e-21
-1.06702e-20
1.35525e-20
-4.62748e-26
1.0728e-20
5.22326e-21
9.5614e-21
7.71599e-21
-1.00663e-20
1.48202e-20
-1.02861e-20
-2.3477e-20
-6.53093e-21
6.58515e-21
-2.83253e-21
1.19589e-20
6.75078e-21
-8.85711e-21
-2.19195e-21
-6.96509e-21
6.50805e-21
3.20511e-20
-2.03288e-20
-6.77635e-21
-1.25823e-21
-1.11612e-20
-2.52658e-21
2.14226e-20
-7.44326e-21
-2.24455e-21
5.27629e-21
-6.54296e-21
8.58062e-21
-1.56028e-21
-4.66286e-21
9.91909e-21
-4.4267e-21
-2.38474e-21
8.91606e-21
-2.71901e-21
-4.71455e-21
-1.37901e-21
-1.53106e-26
-1.35526e-20
1.78169e-20
-2.06522e-20
9.17412e-21
-4.1567e-21
1.53751e-21
-7.11288e-21
6.76889e-21
2.18827e-21
-1.82004e-21
6.47552e-21
-3.05138e-21
5.84707e-21
-7.09739e-21
6.68731e-21
-4.75066e-21
-3.20853e-21
-5.23274e-21
1.43659e-20
6.77625e-21
-1.35527e-20
-4.6184e-21
1.0052e-20
8.6845e-21
-2.02133e-20
1.29642e-20
-8.29454e-21
1.30944e-21
1.45503e-20
-9.07957e-21
-5.78316e-21
1.7277e-22
-1.3811e-20
6.81168e-21
1.12513e-20
1.0588e-20
-2.97668e-21
-8.91332e-21
-1.17301e-21
-1.61288e-26
-3.91344e-26
-1.0946e-20
-1.2097e-20
8.95733e-22
-8.96588e-22
5.86493e-21
1.72257e-21
1.03398e-20
-1.98287e-21
3.81963e-21
-8.19261e-21
1.92413e-21
1.13316e-21
-6.97743e-21
-8.7923e-21
2.75465e-22
1.35007e-20
1.27245e-20
-1.10526e-21
-1.49595e-26
-2.71051e-20
3.49514e-21
-8.98121e-21
1.55097e-23
2.91894e-22
-5.49435e-21
9.38768e-21
5.99506e-21
7.85102e-21
5.96193e-22
6.83297e-21
7.97329e-21
-1.93477e-21
-1.06475e-20
-7.73592e-22
-3.83562e-21
1.24808e-20
-2.19397e-20
1.81636e-20
6.77625e-21
-9.24504e-26
6.77631e-21
-6.77629e-21
6.77625e-21
-6.77628e-21
-1.82904e-26
6.77624e-21
-6.77628e-21
6.77625e-21
-1.35525e-20
6.77625e-21
-1.82624e-26
-1.61847e-26
1.35525e-20
-2.71051e-20
2.03288e-20
-6.77628e-21
-1.72108e-26
-1.76159e-26
3.13276e-27
)
;

boundaryField
{
    movingWall
    {
        type            zeroGradient;
    }
    fixedWalls
    {
        type            zeroGradient;
    }
    frontAndBack
    {
        type            empty;
    }
}


// ************************************************************************* //
