/*--------------------------------*- C++ -*----------------------------------*\
| =========                 |                                                 |
| \\      /  F ield         | OpenFOAM: The Open Source CFD Toolbox           |
|  \\    /   O peration     | Version:  2312                                  |
|   \\  /    A nd           | Website:  www.openfoam.com                      |
|    \\/     M anipulation  |                                                 |
\*---------------------------------------------------------------------------*/
FoamFile
{
    version     2.0;
    format      ascii;
    arch        "LSB;label=32;scalar=64";
    class       volScalarField;
    location    "8.5";
    object      initialResidual:epsilon;
}
// * * * * * * * * * * * * * * * * * * * * * * * * * * * * * * * * * * * * * //

dimensions      [0 0 0 0 0 0 0];

internalField   nonuniform List<scalar> 
400
(
0
0
0
0
0
0
0
0
0
0
0
0
0
0
0
0
0
0
0
0
0
-1.22422e-13
-1.21535e-13
-1.21736e-13
-1.22062e-13
-1.22051e-13
-1.22219e-13
-1.22264e-13
-1.22406e-13
-1.22476e-13
-1.22583e-13
-1.22699e-13
-1.22756e-13
-1.22924e-13
-1.22944e-13
-1.23137e-13
-1.23152e-13
-1.23325e-13
-2.46583e-13
0
0
-1.30762e-13
-1.29689e-13
-1.29929e-13
-1.30319e-13
-1.30296e-13
-1.30488e-13
-1.30534e-13
-1.30693e-13
-1.3077e-13
-1.30885e-13
-1.3102e-13
-1.3107e-13
-1.3127e-13
-1.31272e-13
-1.31505e-13
-1.31499e-13
-1.31705e-13
-2.6359e-13
0
0
-1.39405e-13
-1.38256e-13
-1.38513e-13
-1.38934e-13
-1.38909e-13
-1.39117e-13
-1.39166e-13
-1.39338e-13
-1.39421e-13
-1.39546e-13
-1.39692e-13
-1.39746e-13
-1.39962e-13
-1.39965e-13
-1.40216e-13
-1.4021e-13
-1.40432e-13
-2.81051e-13
0
0
-1.46314e-13
-1.45109e-13
-1.4538e-13
-1.45823e-13
-1.45799e-13
-1.46019e-13
-1.46072e-13
-1.46255e-13
-1.46343e-13
-1.46476e-13
-1.46629e-13
-1.46689e-13
-1.46916e-13
-1.46921e-13
-1.47186e-13
-1.47182e-13
-1.47416e-13
-2.95029e-13
0
0
-1.51076e-13
-1.49825e-13
-1.50108e-13
-1.50569e-13
-1.50543e-13
-1.50772e-13
-1.50828e-13
-1.51018e-13
-1.5111e-13
-1.51248e-13
-1.51409e-13
-1.51471e-13
-1.51708e-13
-1.51713e-13
-1.51988e-13
-1.51985e-13
-1.52229e-13
-3.0466e-13
0
0
-1.54066e-13
-1.52797e-13
-1.53084e-13
-1.53554e-13
-1.53529e-13
-1.53764e-13
-1.5382e-13
-1.54016e-13
-1.54109e-13
-1.54252e-13
-1.54416e-13
-1.54481e-13
-1.54722e-13
-1.5473e-13
-1.5501e-13
-1.55008e-13
-1.55257e-13
-3.10724e-13
0
0
-1.55891e-13
-1.54607e-13
-1.54897e-13
-1.55375e-13
-1.55348e-13
-1.55587e-13
-1.55645e-13
-1.55843e-13
-1.55939e-13
-1.56084e-13
-1.5625e-13
-1.56316e-13
-1.56561e-13
-1.56568e-13
-1.56854e-13
-1.56851e-13
-1.57104e-13
-3.14421e-13
0
0
-1.57043e-13
-1.55752e-13
-1.56044e-13
-1.56525e-13
-1.565e-13
-1.56741e-13
-1.56798e-13
-1.56999e-13
-1.57094e-13
-1.57242e-13
-1.57409e-13
-1.57477e-13
-1.57723e-13
-1.57732e-13
-1.58019e-13
-1.58018e-13
-1.58272e-13
-3.1676e-13
0
0
-1.57861e-13
-1.56556e-13
-1.56853e-13
-1.57338e-13
-1.57311e-13
-1.57554e-13
-1.57612e-13
-1.57814e-13
-1.57911e-13
-1.58058e-13
-1.58227e-13
-1.58295e-13
-1.58544e-13
-1.58551e-13
-1.58842e-13
-1.58839e-13
-1.59096e-13
-3.18409e-13
0
0
-1.58531e-13
-1.57216e-13
-1.57515e-13
-1.58003e-13
-1.57977e-13
-1.5822e-13
-1.5828e-13
-1.58482e-13
-1.5858e-13
-1.58727e-13
-1.58898e-13
-1.58965e-13
-1.59216e-13
-1.59224e-13
-1.59515e-13
-1.59513e-13
-1.59771e-13
-3.1976e-13
0
0
-1.59159e-13
-1.5784e-13
-1.5814e-13
-1.5863e-13
-1.58604e-13
-1.58848e-13
-1.58908e-13
-1.59111e-13
-1.5921e-13
-1.59358e-13
-1.59529e-13
-1.59597e-13
-1.59849e-13
-1.59857e-13
-1.6015e-13
-1.60148e-13
-1.60407e-13
-3.21033e-13
0
0
-1.59812e-13
-1.58483e-13
-1.58786e-13
-1.59278e-13
-1.59252e-13
-1.59498e-13
-1.59558e-13
-1.59762e-13
-1.59862e-13
-1.60011e-13
-1.60183e-13
-1.60251e-13
-1.60504e-13
-1.60512e-13
-1.60806e-13
-1.60805e-13
-1.61065e-13
-3.2235e-13
0
0
-1.60519e-13
-1.59186e-13
-1.5949e-13
-1.59985e-13
-1.59959e-13
-1.60205e-13
-1.60266e-13
-1.60471e-13
-1.60571e-13
-1.60721e-13
-1.60894e-13
-1.60963e-13
-1.61217e-13
-1.61225e-13
-1.61521e-13
-1.61519e-13
-1.61781e-13
-3.23783e-13
0
0
-1.61295e-13
-1.5997e-13
-1.60271e-13
-1.60766e-13
-1.60741e-13
-1.60989e-13
-1.6105e-13
-1.61257e-13
-1.61356e-13
-1.61508e-13
-1.61681e-13
-1.61752e-13
-1.62006e-13
-1.62016e-13
-1.62312e-13
-1.62312e-13
-1.62574e-13
-3.2537e-13
0
0
-1.6216e-13
-1.60815e-13
-1.61123e-13
-1.61622e-13
-1.61596e-13
-1.61847e-13
-1.61907e-13
-1.62116e-13
-1.62217e-13
-1.62369e-13
-1.62543e-13
-1.62614e-13
-1.6287e-13
-1.62879e-13
-1.63178e-13
-1.63177e-13
-1.63442e-13
-3.27107e-13
0
0
-1.63048e-13
-1.6171e-13
-1.62014e-13
-1.62515e-13
-1.6249e-13
-1.62741e-13
-1.62803e-13
-1.63012e-13
-1.63113e-13
-1.63267e-13
-1.63442e-13
-1.63514e-13
-1.63771e-13
-1.63782e-13
-1.64081e-13
-1.64081e-13
-1.64347e-13
-3.28919e-13
0
0
-1.63893e-13
-1.62556e-13
-1.62862e-13
-1.63362e-13
-1.63339e-13
-1.6359e-13
-1.63654e-13
-1.63864e-13
-1.63966e-13
-1.6412e-13
-1.64296e-13
-1.6437e-13
-1.64626e-13
-1.6464e-13
-1.64938e-13
-1.64941e-13
-1.65206e-13
-3.30639e-13
0
0
-1.65138e-13
-1.63554e-13
-1.63899e-13
-1.64454e-13
-1.64403e-13
-1.64664e-13
-1.64717e-13
-1.64928e-13
-1.65028e-13
-1.65173e-13
-1.65361e-13
-1.65409e-13
-1.65696e-13
-1.65672e-13
-1.66009e-13
-1.65972e-13
-1.66271e-13
-3.32382e-13
0
0
0
0
0
0
0
0
0
0
0
0
0
0
0
0
0
0
0
0
0
)
;

boundaryField
{
    movingWall
    {
        type            zeroGradient;
    }
    fixedWalls
    {
        type            zeroGradient;
    }
    frontAndBack
    {
        type            empty;
    }
}


// ************************************************************************* //
