/*--------------------------------*- C++ -*----------------------------------*\
| =========                 |                                                 |
| \\      /  F ield         | OpenFOAM: The Open Source CFD Toolbox           |
|  \\    /   O peration     | Version:  2312                                  |
|   \\  /    A nd           | Website:  www.openfoam.com                      |
|    \\/     M anipulation  |                                                 |
\*---------------------------------------------------------------------------*/
FoamFile
{
    version     2.0;
    format      ascii;
    arch        "LSB;label=32;scalar=64";
    class       volScalarField;
    location    "8.5";
    object      k;
}
// * * * * * * * * * * * * * * * * * * * * * * * * * * * * * * * * * * * * * //

dimensions      [0 2 -2 0 0 0 0];

internalField   nonuniform List<scalar> 
400
(
3.52966e-06
3.52966e-06
3.52966e-06
3.52965e-06
3.52965e-06
3.52965e-06
3.52965e-06
3.52965e-06
3.52965e-06
3.52965e-06
3.52965e-06
3.52965e-06
3.52965e-06
3.52965e-06
3.52965e-06
3.52965e-06
3.52965e-06
3.52965e-06
3.52965e-06
3.52965e-06
3.59237e-06
3.59237e-06
3.59228e-06
3.59223e-06
3.59217e-06
3.59212e-06
3.59208e-06
3.59204e-06
3.592e-06
3.59197e-06
3.59194e-06
3.59191e-06
3.59188e-06
3.59186e-06
3.59185e-06
3.59183e-06
3.59182e-06
3.59181e-06
3.59181e-06
3.59181e-06
3.69166e-06
3.69166e-06
3.69155e-06
3.69151e-06
3.69144e-06
3.6914e-06
3.69134e-06
3.69131e-06
3.69126e-06
3.69123e-06
3.69119e-06
3.69117e-06
3.69113e-06
3.69112e-06
3.69109e-06
3.69109e-06
3.69107e-06
3.69106e-06
3.69106e-06
3.69106e-06
3.79627e-06
3.79627e-06
3.79616e-06
3.79612e-06
3.79603e-06
3.796e-06
3.79593e-06
3.7959e-06
3.79584e-06
3.79582e-06
3.79577e-06
3.79576e-06
3.79571e-06
3.7957e-06
3.79567e-06
3.79567e-06
3.79564e-06
3.79564e-06
3.79563e-06
3.79563e-06
3.88462e-06
3.88462e-06
3.88451e-06
3.88446e-06
3.88438e-06
3.88434e-06
3.88427e-06
3.88424e-06
3.88418e-06
3.88415e-06
3.88411e-06
3.88408e-06
3.88405e-06
3.88402e-06
3.884e-06
3.88399e-06
3.88397e-06
3.88397e-06
3.88396e-06
3.88396e-06
3.94937e-06
3.94937e-06
3.94925e-06
3.9492e-06
3.94912e-06
3.94908e-06
3.949e-06
3.94897e-06
3.9489e-06
3.94888e-06
3.94883e-06
3.94881e-06
3.94876e-06
3.94875e-06
3.94872e-06
3.94871e-06
3.94869e-06
3.94869e-06
3.94868e-06
3.94868e-06
3.9927e-06
3.9927e-06
3.99258e-06
3.99252e-06
3.99245e-06
3.9924e-06
3.99233e-06
3.99229e-06
3.99223e-06
3.99219e-06
3.99215e-06
3.99212e-06
3.99209e-06
3.99206e-06
3.99204e-06
3.99202e-06
3.99201e-06
3.992e-06
3.992e-06
3.99199e-06
4.02045e-06
4.02044e-06
4.02033e-06
4.02027e-06
4.0202e-06
4.02014e-06
4.02008e-06
4.02004e-06
4.01998e-06
4.01995e-06
4.01988e-06
4.01987e-06
4.01982e-06
4.01981e-06
4.01978e-06
4.01977e-06
4.01975e-06
4.01974e-06
4.01974e-06
4.01973e-06
4.03838e-06
4.03838e-06
4.03827e-06
4.03821e-06
4.03813e-06
4.03807e-06
4.03801e-06
4.03796e-06
4.03791e-06
4.03788e-06
4.03782e-06
4.0378e-06
4.03776e-06
4.03774e-06
4.03771e-06
4.0377e-06
4.03768e-06
4.03767e-06
4.03767e-06
4.03766e-06
4.05082e-06
4.05082e-06
4.0507e-06
4.05064e-06
4.05057e-06
4.05052e-06
4.05044e-06
4.05041e-06
4.05034e-06
4.05031e-06
4.05026e-06
4.05024e-06
4.05019e-06
4.05018e-06
4.05014e-06
4.05013e-06
4.05011e-06
4.05011e-06
4.0501e-06
4.0501e-06
4.06057e-06
4.06057e-06
4.06045e-06
4.06039e-06
4.06031e-06
4.06027e-06
4.06018e-06
4.06015e-06
4.06008e-06
4.06006e-06
4.06e-06
4.05998e-06
4.05993e-06
4.05992e-06
4.05988e-06
4.05988e-06
4.05985e-06
4.05985e-06
4.05984e-06
4.05984e-06
4.06931e-06
4.06931e-06
4.06918e-06
4.06913e-06
4.06904e-06
4.069e-06
4.06892e-06
4.06888e-06
4.06882e-06
4.06879e-06
4.06873e-06
4.06872e-06
4.06867e-06
4.06866e-06
4.06862e-06
4.06861e-06
4.06859e-06
4.06858e-06
4.06858e-06
4.06858e-06
4.07801e-06
4.07801e-06
4.07788e-06
4.07783e-06
4.07775e-06
4.0777e-06
4.07761e-06
4.07759e-06
4.07752e-06
4.07749e-06
4.07743e-06
4.07741e-06
4.07736e-06
4.07735e-06
4.07731e-06
4.07731e-06
4.07728e-06
4.07728e-06
4.07727e-06
4.07727e-06
4.08721e-06
4.08721e-06
4.08708e-06
4.08703e-06
4.08693e-06
4.0869e-06
4.08681e-06
4.08678e-06
4.08671e-06
4.08669e-06
4.08663e-06
4.08661e-06
4.08656e-06
4.08655e-06
4.08651e-06
4.08651e-06
4.08648e-06
4.08648e-06
4.08647e-06
4.08647e-06
4.09714e-06
4.09713e-06
4.09701e-06
4.09695e-06
4.09687e-06
4.09682e-06
4.09675e-06
4.0967e-06
4.09664e-06
4.09661e-06
4.09656e-06
4.09653e-06
4.09649e-06
4.09647e-06
4.09644e-06
4.09643e-06
4.09641e-06
4.0964e-06
4.0964e-06
4.09639e-06
4.1077e-06
4.10769e-06
4.10757e-06
4.10751e-06
4.10743e-06
4.10738e-06
4.10731e-06
4.10727e-06
4.10719e-06
4.10717e-06
4.1071e-06
4.10709e-06
4.10704e-06
4.10703e-06
4.10699e-06
4.10698e-06
4.10696e-06
4.10696e-06
4.10695e-06
4.10695e-06
4.11838e-06
4.11838e-06
4.11825e-06
4.11819e-06
4.11811e-06
4.11806e-06
4.11798e-06
4.11794e-06
4.11788e-06
4.11784e-06
4.1178e-06
4.11776e-06
4.11773e-06
4.1177e-06
4.11768e-06
4.11766e-06
4.11765e-06
4.11764e-06
4.11763e-06
4.11763e-06
4.12824e-06
4.12823e-06
4.12811e-06
4.12804e-06
4.12797e-06
4.1279e-06
4.12784e-06
4.12778e-06
4.12773e-06
4.12769e-06
4.12765e-06
4.12761e-06
4.12758e-06
4.12755e-06
4.12753e-06
4.12751e-06
4.12749e-06
4.12748e-06
4.12748e-06
4.12748e-06
4.13592e-06
4.13592e-06
4.1358e-06
4.13574e-06
4.13566e-06
4.13561e-06
4.13553e-06
4.1355e-06
4.13543e-06
4.1354e-06
4.13535e-06
4.13533e-06
4.13528e-06
4.13526e-06
4.13523e-06
4.13522e-06
4.1352e-06
4.13519e-06
4.13519e-06
4.13518e-06
4.13946e-06
4.13946e-06
4.13946e-06
4.13946e-06
4.13945e-06
4.13945e-06
4.13945e-06
4.13945e-06
4.13945e-06
4.13945e-06
4.13945e-06
4.13945e-06
4.13945e-06
4.13945e-06
4.13945e-06
4.13945e-06
4.13945e-06
4.13945e-06
4.13945e-06
4.13945e-06
)
;

boundaryField
{
    movingWall
    {
        type            kqRWallFunction;
        value           nonuniform List<scalar> 
20
(
4.13946e-06
4.13946e-06
4.13946e-06
4.13946e-06
4.13945e-06
4.13945e-06
4.13945e-06
4.13945e-06
4.13945e-06
4.13945e-06
4.13945e-06
4.13945e-06
4.13945e-06
4.13945e-06
4.13945e-06
4.13945e-06
4.13945e-06
4.13945e-06
4.13945e-06
4.13945e-06
)
;
    }
    fixedWalls
    {
        type            kqRWallFunction;
        value           nonuniform List<scalar> 
60
(
3.52966e-06
3.59237e-06
3.69166e-06
3.79627e-06
3.88462e-06
3.94937e-06
3.9927e-06
4.02045e-06
4.03838e-06
4.05082e-06
4.06057e-06
4.06931e-06
4.07801e-06
4.08721e-06
4.09714e-06
4.1077e-06
4.11838e-06
4.12824e-06
4.13592e-06
4.13946e-06
3.52965e-06
3.59181e-06
3.69106e-06
3.79563e-06
3.88396e-06
3.94868e-06
3.99199e-06
4.01973e-06
4.03766e-06
4.0501e-06
4.05984e-06
4.06858e-06
4.07727e-06
4.08647e-06
4.09639e-06
4.10695e-06
4.11763e-06
4.12748e-06
4.13518e-06
4.13945e-06
3.52966e-06
3.52966e-06
3.52966e-06
3.52965e-06
3.52965e-06
3.52965e-06
3.52965e-06
3.52965e-06
3.52965e-06
3.52965e-06
3.52965e-06
3.52965e-06
3.52965e-06
3.52965e-06
3.52965e-06
3.52965e-06
3.52965e-06
3.52965e-06
3.52965e-06
3.52965e-06
)
;
    }
    frontAndBack
    {
        type            empty;
    }
}


// ************************************************************************* //
