/*--------------------------------*- C++ -*----------------------------------*\
| =========                 |                                                 |
| \\      /  F ield         | OpenFOAM: The Open Source CFD Toolbox           |
|  \\    /   O peration     | Version:  2312                                  |
|   \\  /    A nd           | Website:  www.openfoam.com                      |
|    \\/     M anipulation  |                                                 |
\*---------------------------------------------------------------------------*/
FoamFile
{
    version     2.0;
    format      ascii;
    arch        "LSB;label=32;scalar=64";
    class       volScalarField;
    location    "8.5";
    object      L_P;
}
// * * * * * * * * * * * * * * * * * * * * * * * * * * * * * * * * * * * * * //

dimensions      [0 0 0 0 0 0 0];

internalField   nonuniform List<scalar> 
400
(
-205.08
-205.08
-205.08
-205.08
-205.08
-205.08
-205.08
-205.08
-205.08
-205.08
-205.08
-205.08
-205.08
-205.08
-205.08
-205.08
-205.08
-205.08
-205.08
-205.08
-204.774
-204.823
-204.819
-204.817
-204.814
-204.812
-204.809
-204.807
-204.804
-204.802
-204.799
-204.797
-204.794
-204.792
-204.788
-204.786
-204.783
-204.781
-204.779
-204.776
-204.3
-204.351
-204.346
-204.345
-204.341
-204.34
-204.336
-204.334
-204.331
-204.329
-204.326
-204.324
-204.32
-204.318
-204.315
-204.313
-204.309
-204.307
-204.305
-204.303
-203.814
-203.866
-203.861
-203.86
-203.856
-203.855
-203.851
-203.849
-203.846
-203.844
-203.84
-203.838
-203.835
-203.833
-203.829
-203.827
-203.824
-203.822
-203.82
-203.817
-203.414
-203.466
-203.462
-203.46
-203.457
-203.455
-203.452
-203.45
-203.446
-203.444
-203.441
-203.439
-203.435
-203.433
-203.43
-203.428
-203.424
-203.422
-203.42
-203.417
-203.127
-203.18
-203.175
-203.174
-203.17
-203.168
-203.165
-203.163
-203.159
-203.157
-203.154
-203.152
-203.148
-203.146
-203.143
-203.141
-203.137
-203.135
-203.133
-203.13
-202.937
-202.99
-202.986
-202.984
-202.981
-202.979
-202.975
-202.974
-202.97
-202.968
-202.964
-202.963
-202.959
-202.957
-202.953
-202.951
-202.947
-202.945
-202.943
-202.941
-202.817
-202.87
-202.866
-202.864
-202.861
-202.859
-202.855
-202.853
-202.85
-202.848
-202.844
-202.842
-202.839
-202.837
-202.833
-202.831
-202.827
-202.825
-202.823
-202.82
-202.74
-202.793
-202.789
-202.787
-202.783
-202.782
-202.778
-202.776
-202.772
-202.771
-202.767
-202.765
-202.761
-202.759
-202.756
-202.754
-202.75
-202.748
-202.746
-202.743
-202.686
-202.74
-202.735
-202.734
-202.73
-202.728
-202.725
-202.723
-202.719
-202.717
-202.714
-202.712
-202.708
-202.706
-202.702
-202.7
-202.696
-202.694
-202.692
-202.689
-202.645
-202.698
-202.694
-202.692
-202.688
-202.687
-202.683
-202.681
-202.677
-202.676
-202.672
-202.67
-202.666
-202.664
-202.66
-202.658
-202.655
-202.653
-202.651
-202.648
-202.607
-202.661
-202.656
-202.655
-202.651
-202.649
-202.646
-202.644
-202.64
-202.638
-202.635
-202.633
-202.629
-202.627
-202.623
-202.621
-202.617
-202.615
-202.613
-202.61
-202.57
-202.624
-202.619
-202.618
-202.614
-202.612
-202.609
-202.607
-202.603
-202.601
-202.597
-202.595
-202.592
-202.59
-202.586
-202.584
-202.58
-202.578
-202.576
-202.573
-202.531
-202.585
-202.58
-202.578
-202.575
-202.573
-202.569
-202.568
-202.564
-202.562
-202.558
-202.556
-202.553
-202.551
-202.547
-202.545
-202.541
-202.539
-202.537
-202.534
-202.489
-202.542
-202.538
-202.536
-202.533
-202.531
-202.527
-202.525
-202.522
-202.52
-202.516
-202.514
-202.511
-202.509
-202.505
-202.503
-202.499
-202.497
-202.495
-202.492
-202.444
-202.498
-202.493
-202.492
-202.488
-202.486
-202.483
-202.481
-202.477
-202.475
-202.472
-202.47
-202.466
-202.464
-202.46
-202.458
-202.454
-202.452
-202.45
-202.447
-202.399
-202.453
-202.448
-202.447
-202.443
-202.441
-202.438
-202.436
-202.432
-202.43
-202.426
-202.424
-202.421
-202.419
-202.415
-202.413
-202.409
-202.407
-202.405
-202.402
-202.357
-202.411
-202.407
-202.405
-202.402
-202.4
-202.396
-202.394
-202.391
-202.389
-202.385
-202.383
-202.379
-202.377
-202.373
-202.371
-202.368
-202.365
-202.364
-202.361
-202.325
-202.378
-202.374
-202.372
-202.369
-202.367
-202.363
-202.361
-202.358
-202.356
-202.352
-202.35
-202.347
-202.345
-202.341
-202.339
-202.335
-202.333
-202.331
-202.328
-202.31
-202.31
-202.31
-202.31
-202.31
-202.31
-202.31
-202.31
-202.31
-202.31
-202.31
-202.31
-202.31
-202.31
-202.31
-202.31
-202.31
-202.31
-202.31
-202.31
)
;

boundaryField
{
    movingWall
    {
        type            calculated;
        value           nonuniform List<scalar> 
20
(
-202.31
-202.31
-202.31
-202.31
-202.31
-202.31
-202.31
-202.31
-202.31
-202.31
-202.31
-202.31
-202.31
-202.31
-202.31
-202.31
-202.31
-202.31
-202.31
-202.31
)
;
    }
    fixedWalls
    {
        type            calculated;
        value           nonuniform List<scalar> 
60
(
-205.08
-204.774
-204.3
-203.814
-203.414
-203.127
-202.937
-202.817
-202.74
-202.686
-202.645
-202.607
-202.57
-202.531
-202.489
-202.444
-202.399
-202.357
-202.325
-202.31
-205.08
-204.776
-204.303
-203.817
-203.417
-203.13
-202.941
-202.82
-202.743
-202.689
-202.648
-202.61
-202.573
-202.534
-202.492
-202.447
-202.402
-202.361
-202.328
-202.31
-205.08
-205.08
-205.08
-205.08
-205.08
-205.08
-205.08
-205.08
-205.08
-205.08
-205.08
-205.08
-205.08
-205.08
-205.08
-205.08
-205.08
-205.08
-205.08
-205.08
)
;
    }
    frontAndBack
    {
        type            empty;
    }
}


// ************************************************************************* //
