/*--------------------------------*- C++ -*----------------------------------*\
| =========                 |                                                 |
| \\      /  F ield         | OpenFOAM: The Open Source CFD Toolbox           |
|  \\    /   O peration     | Version:  2312                                  |
|   \\  /    A nd           | Website:  www.openfoam.com                      |
|    \\/     M anipulation  |                                                 |
\*---------------------------------------------------------------------------*/
FoamFile
{
    version     2.0;
    format      ascii;
    arch        "LSB;label=32;scalar=64";
    class       volVectorField;
    location    "8.5";
    object      LambVectorField;
}
// * * * * * * * * * * * * * * * * * * * * * * * * * * * * * * * * * * * * * //

dimensions      [0 1 -2 0 0 0 0];

internalField   nonuniform List<vector> 
400
(
(-4.28405e-25 -5.676e-12 -5.676e-12)
(-1.09661e-25 6.96923e-12 -0)
(-5.40342e-27 -1.49436e-12 -1.49436e-12)
(-2.50346e-28 3.16314e-13 -0)
(-1.00362e-29 -5.52403e-14 -5.52403e-14)
(3.09897e-31 9.6826e-15 0)
(3.08854e-31 3.6397e-15 3.6397e-15)
(-2.85822e-32 6.50868e-15 -0)
(-1.01636e-31 -5.14086e-15 -5.14086e-15)
(-1.7324e-31 -3.68462e-15 0)
(-4.04115e-31 -7.13775e-15 -7.13775e-15)
(2.62719e-30 2.21901e-14 0)
(4.56509e-31 4.31619e-15 4.31619e-15)
(-3.62546e-30 -4.81899e-14 0)
(4.05424e-31 8.89785e-15 8.89785e-15)
(-5.60414e-32 4.077e-15 -0)
(-2.60216e-31 -5.42765e-14 -5.42765e-14)
(-2.83844e-32 2.16971e-15 -0)
(7.53947e-33 -4.46048e-16 -4.46048e-16)
(2.20062e-32 -2.55244e-15 -0)
(-1.57827e-26 -7.76209e-13 -7.76209e-13)
(-7.10121e-27 1.70359e-12 -0)
(-4.05534e-28 -4.72817e-13 -4.72817e-13)
(2.84846e-31 -1.12425e-15 -0)
(-9.63411e-30 -1.7269e-13 -1.7269e-13)
(-1.0743e-29 -9.08249e-14 0)
(-1.10111e-29 -7.29766e-14 -7.29766e-14)
(-1.43047e-30 -4.09913e-14 0)
(-9.38995e-31 -5.02215e-14 -5.02215e-14)
(2.30748e-31 -4.62493e-14 -0)
(3.26115e-30 -5.35399e-14 -5.35399e-14)
(1.149e-30 -9.82763e-14 -0)
(8.9864e-32 8.26713e-16 8.26713e-16)
(-3.0977e-31 1.55205e-14 -0)
(2.69925e-30 -5.80421e-14 -5.80421e-14)
(-1.16136e-30 -6.32516e-14 0)
(2.61517e-30 5.95582e-14 5.95582e-14)
(-1.44293e-31 4.10856e-15 -0)
(-1.59051e-32 -5.63249e-15 -5.63249e-15)
(5.09523e-32 2.40286e-15 0)
(-1.05266e-25 1.915e-12 1.915e-12)
(-4.97354e-26 -4.45916e-12 0)
(-2.98835e-27 1.0718e-12 1.0718e-12)
(-5.13555e-29 -1.17924e-13 0)
(-3.32453e-29 1.31065e-13 1.31065e-13)
(-4.15021e-30 6.69373e-14 -0)
(-3.42256e-30 3.11493e-14 3.11493e-14)
(-5.34133e-30 5.21389e-14 -0)
(2.48094e-31 -2.78247e-15 -2.78247e-15)
(5.39291e-31 -7.2272e-15 -0)
(2.41158e-31 -1.4277e-14 -1.4277e-14)
(-1.15022e-30 -1.68775e-14 0)
(1.37069e-30 9.02455e-15 9.02455e-15)
(-1.8402e-30 8.32873e-14 -0)
(-8.00208e-30 5.76155e-14 5.76155e-14)
(-2.62219e-30 4.6701e-14 -0)
(-1.28683e-31 2.01708e-15 2.01708e-15)
(4.33644e-30 -5.68198e-14 -0)
(3.43686e-31 -9.11636e-15 -9.11636e-15)
(-3.39275e-32 -2.28556e-15 0)
(-2.60499e-28 8.30228e-13 8.30228e-13)
(8.61046e-29 -2.15746e-13 -0)
(-2.83881e-30 5.29063e-14 5.29063e-14)
(-7.02685e-30 6.10967e-14 -0)
(-1.07191e-29 8.74862e-14 8.74862e-14)
(-6.29397e-30 3.5615e-14 -0)
(-2.14252e-29 1.03193e-13 1.03193e-13)
(1.38172e-30 -1.11023e-14 -0)
(4.44159e-31 -4.59794e-15 -4.59794e-15)
(8.9962e-31 -1.14639e-14 -0)
(-1.29525e-31 -7.17999e-15 -7.17999e-15)
(-4.11873e-31 6.17115e-14 -0)
(-1.53514e-30 2.69448e-14 2.69448e-14)
(-2.9804e-31 5.87688e-14 -0)
(-6.81452e-30 6.64437e-14 6.64437e-14)
(-6.68061e-30 5.24353e-14 -0)
(1.2549e-30 -1.47961e-14 -1.47961e-14)
(8.91883e-31 4.33921e-14 0)
(7.24993e-31 3.10251e-14 3.10251e-14)
(-8.80368e-33 4.72133e-16 -0)
(-4.36575e-26 -1.18376e-12 -1.18376e-12)
(-2.72795e-26 3.10705e-12 -0)
(-1.32434e-27 -7.59296e-13 -7.59296e-13)
(-7.88155e-29 1.22234e-13 -0)
(2.80379e-30 -1.38285e-13 -1.38285e-13)
(8.63765e-30 -1.1503e-13 -0)
(-6.13662e-30 -1.33912e-13 -1.33912e-13)
(-1.11661e-29 -6.20928e-14 0)
(8.95341e-30 7.18269e-14 7.18269e-14)
(3.49571e-31 9.54997e-14 0)
(-2.17449e-30 1.26475e-13 1.26475e-13)
(-1.39799e-29 7.90323e-14 -0)
(-7.40663e-30 2.79059e-14 2.79059e-14)
(1.31179e-29 -7.09471e-14 -0)
(1.54171e-30 -1.57246e-14 -1.57246e-14)
(2.01277e-30 -7.27916e-14 -0)
(-6.33249e-30 -7.21485e-14 -7.21485e-14)
(-7.90983e-32 -5.21299e-16 0)
(-8.81838e-31 -9.48385e-15 -9.48385e-15)
(-8.31192e-31 3.39555e-14 -0)
(-1.15239e-25 2.65587e-12 2.65587e-12)
(-3.49399e-26 -3.78045e-12 0)
(-2.06193e-27 8.83689e-13 8.83689e-13)
(-8.48961e-29 -2.09419e-13 0)
(-1.35037e-29 5.64713e-14 5.64713e-14)
(1.55326e-30 -9.74897e-15 -0)
(-2.17108e-31 1.53286e-15 1.53286e-15)
(-1.55635e-30 8.91108e-15 -0)
(-1.78102e-31 7.71849e-16 7.71849e-16)
(1.77284e-29 -9.72102e-14 -0)
(9.05203e-30 -1.26078e-13 -1.26078e-13)
(3.39214e-31 -5.85583e-14 -0)
(6.95806e-31 -2.45738e-14 -2.45738e-14)
(2.49793e-31 -8.03063e-15 -0)
(-3.25433e-30 -6.25936e-14 -6.25936e-14)
(-1.33677e-31 -2.53511e-15 0)
(-1.16904e-31 -1.51152e-15 -1.51152e-15)
(8.61232e-32 1.2694e-15 0)
(3.04906e-31 4.71637e-15 4.71637e-15)
(1.76479e-31 8.53304e-15 0)
(-1.18947e-25 -3.47459e-12 -3.47459e-12)
(-2.04929e-26 3.13592e-12 -0)
(-1.59954e-27 -8.93592e-13 -8.93592e-13)
(-2.642e-30 6.8774e-14 -0)
(-7.6446e-30 -2.64406e-14 -2.64406e-14)
(-3.29415e-30 7.31053e-14 -0)
(-2.95676e-30 1.73033e-14 1.73033e-14)
(-1.17666e-30 5.39523e-15 -0)
(1.91138e-29 -8.50143e-14 -8.50143e-14)
(1.58954e-29 -8.77703e-14 -0)
(1.43691e-29 -8.96498e-14 -8.96498e-14)
(6.76375e-30 -6.91901e-14 -0)
(9.76826e-31 -9.32122e-14 -9.32122e-14)
(-1.36725e-30 -6.44491e-14 0)
(-8.24453e-30 -8.97021e-14 -8.97021e-14)
(5.59631e-31 5.32559e-15 0)
(2.2592e-30 5.84464e-14 5.84464e-14)
(-3.98921e-30 -6.36028e-14 0)
(-2.94796e-31 -2.22351e-15 -2.22351e-15)
(1.8481e-30 2.17537e-14 0)
(-4.51332e-27 -3.49087e-13 -3.49087e-13)
(-3.7682e-27 1.08439e-12 -0)
(-1.58138e-28 -2.16704e-13 -2.16704e-13)
(-1.56048e-29 6.97604e-14 -0)
(3.46656e-31 1.07875e-14 1.07875e-14)
(-7.26034e-31 1.19973e-14 -0)
(2.78479e-30 -3.17037e-14 -3.17037e-14)
(2.61712e-32 -1.80118e-15 -0)
(-3.15335e-30 4.516e-14 4.516e-14)
(-1.94889e-29 9.99024e-14 -0)
(-2.15395e-29 8.42377e-14 8.42377e-14)
(-8.86439e-30 3.95195e-14 -0)
(-4.11252e-30 3.78014e-14 3.78014e-14)
(-2.84201e-30 4.71965e-14 -0)
(-8.24261e-31 2.13225e-14 2.13225e-14)
(8.25969e-34 -3.45488e-16 -0)
(-1.04588e-30 2.97108e-14 2.97108e-14)
(-1.39017e-30 4.88661e-14 -0)
(3.98622e-31 2.18567e-14 2.18567e-14)
(-5.49857e-31 -2.28778e-14 0)
(-3.47415e-25 5.32794e-12 5.32794e-12)
(-8.40798e-26 -5.96511e-12 0)
(-5.01638e-27 1.48119e-12 1.48119e-12)
(-1.78808e-28 -2.79995e-13 0)
(-4.22821e-29 1.33922e-13 1.33922e-13)
(-7.44716e-30 4.69825e-14 -0)
(-8.26138e-30 3.39353e-14 3.39353e-14)
(-1.1843e-29 5.22153e-14 -0)
(-1.87932e-29 8.40868e-14 8.40868e-14)
(-9.9992e-31 3.92854e-15 -0)
(3.18263e-30 -1.21112e-14 -1.21112e-14)
(3.70213e-30 -2.7749e-14 -0)
(-2.19041e-31 -1.48933e-14 -1.48933e-14)
(1.01917e-30 6.56754e-14 0)
(-1.28832e-29 1.28903e-13 1.28903e-13)
(-9.98291e-30 5.27346e-14 -0)
(-6.97124e-31 8.18309e-15 8.18309e-15)
(-1.56646e-33 1.84317e-14 -0)
(-2.35177e-33 -1.52456e-15 -1.52456e-15)
(2.53232e-32 1.67032e-15 0)
(-6.2894e-25 -8.24175e-12 -8.24175e-12)
(-1.14907e-25 7.50683e-12 -0)
(-6.26469e-27 -1.70116e-12 -1.70116e-12)
(-3.16749e-28 4.31047e-13 -0)
(-1.39135e-29 -7.50907e-14 -7.50907e-14)
(8.49305e-31 5.28455e-14 0)
(-9.3833e-30 1.30115e-13 1.30115e-13)
(-6.68935e-30 3.33014e-14 -0)
(-2.79913e-30 2.08767e-14 2.08767e-14)
(-1.34926e-29 9.73562e-14 -0)
(-2.0584e-29 6.98973e-14 6.98973e-14)
(-6.12366e-30 2.07258e-14 -0)
(-2.93163e-30 1.27077e-14 1.27077e-14)
(1.02775e-29 -6.78436e-14 -0)
(1.12996e-29 -1.19747e-13 -1.19747e-13)
(2.70344e-30 -7.07405e-14 -0)
(-1.09654e-29 -1.54568e-13 -1.54568e-13)
(-4.20199e-30 -2.76057e-14 0)
(-1.23987e-30 -1.63251e-14 -1.63251e-14)
(5.346e-31 1.20364e-14 0)
(-3.57147e-25 7.23352e-12 7.23352e-12)
(-4.94653e-26 -5.17162e-12 0)
(-2.96583e-27 1.3091e-12 1.3091e-12)
(-4.74954e-29 -1.76871e-13 0)
(-2.61633e-29 1.15872e-13 1.15872e-13)
(-3.93586e-30 5.1089e-14 -0)
(-1.99431e-29 1.02491e-13 1.02491e-13)
(-2.44089e-29 8.45181e-14 -0)
(2.91614e-30 -1.28684e-14 -1.28684e-14)
(-4.63679e-30 2.89588e-14 -0)
(-1.68908e-29 6.88998e-14 6.88998e-14)
(-5.80169e-30 1.88972e-14 -0)
(6.01459e-32 -3.68833e-16 -3.68833e-16)
(2.11306e-30 -6.5471e-14 -0)
(6.55695e-32 -1.29939e-15 -1.29939e-15)
(1.03986e-30 -5.39324e-14 -0)
(-1.70698e-30 3.20625e-14 3.20625e-14)
(6.73159e-31 -9.77649e-15 -0)
(-5.36118e-31 -1.20406e-14 -1.20406e-14)
(1.8926e-30 3.67128e-14 0)
(-3.78427e-26 -2.14133e-12 -2.14133e-12)
(-6.4464e-27 1.67494e-12 -0)
(-3.96758e-28 -4.29784e-13 -4.29784e-13)
(-2.98861e-29 8.20957e-14 -0)
(1.16928e-29 -6.92482e-14 -6.92482e-14)
(6.24454e-30 -2.92267e-14 -0)
(1.76908e-29 -1.19826e-13 -1.19826e-13)
(1.14205e-29 -1.14667e-13 -0)
(9.90484e-30 -1.16293e-13 -1.16293e-13)
(2.58997e-30 -1.24116e-13 -0)
(-8.45476e-30 -1.17774e-13 -1.17774e-13)
(-4.35869e-30 -5.99798e-14 0)
(-7.01436e-30 -5.41712e-14 -5.41712e-14)
(5.60253e-30 7.75114e-14 0)
(-7.72699e-30 7.46365e-14 7.46365e-14)
(4.98443e-32 -3.77653e-16 -0)
(-4.77922e-30 4.79112e-14 4.79112e-14)
(4.97903e-30 -7.21647e-14 -0)
(-5.62122e-30 -7.04464e-14 -7.04464e-14)
(-9.13962e-31 -9.78885e-15 0)
(-4.86908e-26 -3.58572e-12 -3.58572e-12)
(-3.00837e-27 1.6302e-12 -0)
(-2.51436e-28 -4.74659e-13 -4.74659e-13)
(-3.04185e-30 3.78478e-14 -0)
(9.34921e-30 -7.80339e-14 -7.80339e-14)
(1.39501e-29 -1.23253e-13 -0)
(-2.69538e-30 -9.45239e-14 -9.45239e-14)
(-8.73735e-31 -4.6218e-14 0)
(-6.5668e-31 1.27744e-14 1.27744e-14)
(-6.31134e-30 5.79877e-14 -0)
(6.28418e-31 -7.04643e-15 -7.04643e-15)
(4.10117e-34 -1.06871e-17 -0)
(-8.78859e-32 9.86645e-16 9.86645e-16)
(2.14102e-31 -4.43814e-15 -0)
(-1.47503e-30 3.30029e-14 3.30029e-14)
(-6.31562e-30 5.89037e-14 -0)
(5.74112e-30 -6.26552e-14 -6.26552e-14)
(2.00995e-31 -8.82766e-15 -0)
(1.11734e-32 -3.33163e-15 -3.33163e-15)
(7.5878e-33 7.19387e-16 0)
(-1.89171e-25 5.00437e-12 5.00437e-12)
(-2.73152e-26 -3.7557e-12 0)
(-1.92281e-27 8.9792e-13 8.9792e-13)
(-4.66478e-29 -2.44039e-13 0)
(-1.80531e-29 7.4257e-14 7.4257e-14)
(4.92342e-31 -5.28264e-14 -0)
(8.41183e-31 5.96695e-14 5.96695e-14)
(-4.28557e-30 6.70524e-14 -0)
(-3.24271e-31 2.83638e-15 2.83638e-15)
(5.86112e-30 -6.35161e-14 -0)
(-8.44766e-31 3.97247e-14 3.97247e-14)
(-3.0748e-30 -5.84822e-14 0)
(8.39618e-31 3.91332e-14 3.91332e-14)
(-2.64304e-30 3.9038e-14 -0)
(-8.66657e-32 8.85481e-16 8.85481e-16)
(7.76013e-31 -1.01361e-14 -0)
(-2.64506e-32 -7.58486e-15 -7.58486e-15)
(-5.02372e-32 7.07128e-14 -0)
(-1.06044e-29 6.56461e-14 6.56461e-14)
(-3.05502e-30 2.65491e-14 -0)
(-3.26551e-25 -5.12858e-12 -5.12858e-12)
(-8.48078e-26 6.05201e-12 -0)
(-4.04416e-27 -1.40346e-12 -1.40346e-12)
(-2.18141e-28 2.75531e-13 -0)
(-1.59483e-29 -1.2632e-13 -1.2632e-13)
(-3.50529e-30 4.96375e-14 -0)
(-2.52676e-30 2.55045e-14 2.55045e-14)
(4.44939e-32 -8.14724e-16 -0)
(-7.70943e-30 8.47901e-14 8.47901e-14)
(-4.35276e-30 4.87096e-14 -0)
(2.04592e-30 -5.69594e-14 -5.69594e-14)
(-4.76149e-31 7.69612e-15 -0)
(8.08924e-30 -7.16623e-14 -7.16623e-14)
(5.14095e-30 -3.2456e-14 -0)
(3.37546e-30 -5.6854e-14 -5.6854e-14)
(-9.36582e-30 -6.73355e-14 0)
(1.23551e-30 1.71876e-14 1.71876e-14)
(-6.64695e-31 2.02747e-14 -0)
(-6.52241e-31 4.98415e-15 4.98415e-15)
(6.24314e-30 -7.5559e-14 -0)
(-1.95452e-25 3.2946e-12 3.2946e-12)
(-6.64478e-26 -5.29237e-12 0)
(-3.78209e-27 1.20118e-12 1.20118e-12)
(-1.60043e-28 -2.94416e-13 0)
(-1.2679e-29 6.20037e-14 6.20037e-14)
(-4.01026e-30 5.24622e-14 -0)
(4.55495e-30 -2.43568e-14 -2.43568e-14)
(2.21744e-30 -2.13372e-14 -0)
(-1.24326e-30 -4.7159e-14 -4.7159e-14)
(-4.33854e-31 -4.4905e-15 0)
(5.16268e-30 7.24402e-14 7.24402e-14)
(-6.98495e-30 8.15188e-14 -0)
(-1.12651e-29 5.58178e-14 5.58178e-14)
(8.62312e-30 -8.47381e-14 -0)
(-7.48717e-30 -7.23666e-14 -7.23666e-14)
(6.19293e-30 7.7603e-14 0)
(-1.4156e-29 1.08502e-13 1.08502e-13)
(1.60321e-30 -8.34715e-15 -0)
(7.12591e-31 -1.51628e-14 -1.51628e-14)
(-7.4253e-31 1.83615e-14 -0)
(1.62666e-27 2.73267e-13 2.73267e-13)
(-9.9291e-28 5.20114e-13 -0)
(-9.79511e-30 -4.67833e-14 -4.67833e-14)
(-4.47893e-29 1.25464e-13 -0)
(-9.30569e-30 4.00903e-14 4.00903e-14)
(8.15107e-31 -3.77731e-15 -0)
(-2.89751e-30 1.49091e-14 1.49091e-14)
(2.25266e-30 -2.40077e-14 -0)
(-1.02493e-30 -2.24116e-14 -2.24116e-14)
(2.61838e-30 2.00972e-14 0)
(4.17097e-30 3.60154e-14 3.60154e-14)
(3.1745e-30 7.7084e-14 0)
(-8.07862e-30 7.15381e-14 7.15381e-14)
(-1.01376e-29 7.67431e-14 -0)
(-5.60216e-30 8.33566e-14 8.33566e-14)
(-3.66277e-31 2.40163e-15 -0)
(6.29118e-31 -6.89645e-15 -6.89645e-15)
(-1.85028e-30 2.21464e-14 -0)
(1.34784e-31 -3.23714e-15 -3.23714e-15)
(4.74982e-31 -9.2813e-15 -0)
(-2.33029e-25 -3.12835e-12 -3.12835e-12)
(-1.00598e-25 6.35498e-12 -0)
(-5.29138e-27 -1.4612e-12 -1.4612e-12)
(-3.48171e-28 3.67738e-13 -0)
(1.68421e-30 -3.00131e-14 -3.00131e-14)
(-5.69286e-30 1.51564e-14 -0)
(1.20901e-29 -5.82148e-14 -5.82148e-14)
(4.33608e-30 -6.72159e-14 -0)
(-2.18659e-30 2.81696e-14 2.81696e-14)
(2.03946e-30 -2.71365e-14 -0)
(2.59601e-30 -3.35801e-14 -3.35801e-14)
(8.29603e-32 -7.97306e-15 -0)
(-7.50764e-32 -3.09882e-14 -3.09882e-14)
(-7.03641e-31 -2.47534e-14 0)
(-7.97431e-31 3.78048e-14 3.78048e-14)
(-2.6409e-32 3.36113e-16 -0)
(8.93575e-31 -3.65403e-14 -3.65403e-14)
(-4.0663e-31 -2.57673e-14 0)
(1.82702e-30 -4.82926e-14 -4.82926e-14)
(1.5287e-30 -3.52278e-14 -0)
(-1.502e-25 2.93738e-12 2.93738e-12)
(-4.77501e-26 -4.48478e-12 0)
(-3.22348e-27 1.16686e-12 1.16686e-12)
(-7.40618e-29 -2.21864e-13 0)
(-2.60639e-29 9.55277e-14 9.55277e-14)
(-2.73119e-30 3.44156e-14 -0)
(-2.09284e-30 2.79434e-14 2.79434e-14)
(-7.5504e-30 8.6052e-14 -0)
(3.38815e-31 -2.77118e-15 -2.77118e-15)
(5.98366e-31 -9.9677e-15 -0)
(1.34357e-30 -5.94845e-14 -5.94845e-14)
(4.20864e-31 -5.77611e-14 -0)
(5.98477e-32 4.63102e-15 4.63102e-15)
(-6.25142e-31 1.16639e-14 -0)
(3.01537e-30 -2.90735e-14 -2.90735e-14)
(2.32075e-30 -6.84343e-14 -0)
(-2.505e-31 -6.50205e-15 -6.50205e-15)
(4.17419e-31 1.34183e-14 0)
(-6.21108e-30 6.49312e-14 6.49312e-14)
(-7.55634e-31 9.92918e-15 -0)
(-1.4904e-25 2.95661e-12 2.95661e-12)
(-4.72768e-26 -4.60258e-12 0)
(-1.96862e-27 7.9197e-13 7.9197e-13)
(-1.34205e-28 -2.95123e-13 0)
(3.29175e-30 -4.29792e-14 -4.29792e-14)
(-4.11693e-30 -5.7675e-14 0)
(5.59536e-31 -1.3341e-14 -1.3341e-14)
(1.58426e-30 -2.39102e-14 -0)
(2.08596e-30 -2.82309e-14 -2.82309e-14)
(9.89415e-32 -1.79893e-15 -0)
(-3.16117e-30 5.65503e-14 5.65503e-14)
(-3.66665e-31 4.67671e-15 -0)
(1.71201e-30 -1.66753e-14 -1.66753e-14)
(-1.31643e-30 7.20542e-15 -0)
(7.06352e-30 -4.04273e-14 -4.04273e-14)
(-1.64277e-30 3.32027e-14 -0)
(-2.3061e-31 -6.5232e-15 -6.5232e-15)
(1.71271e-31 1.0871e-14 0)
(-4.9943e-31 6.80818e-15 6.80818e-15)
(2.07599e-30 -3.96735e-14 -0)
)
;

boundaryField
{
    movingWall
    {
        type            calculated;
        value           nonuniform List<vector> 
20
(
(0 6.23416e-12 -0)
(0 -5.7249e-12 -0)
(0 5.37616e-13 -0)
(0 -4.62958e-13 -0)
(0 -2.28118e-13 -0)
(0 -2.25509e-13 -0)
(0 -1.63872e-13 -0)
(0 -2.63259e-13 -0)
(0 -1.78762e-13 -0)
(0 -9.06168e-14 -0)
(0 -4.20687e-14 -0)
(0 -8.41411e-14 -0)
(0 -1.22797e-13 -0)
(0 -8.16124e-14 -0)
(0 -5.77312e-14 -0)
(0 6.78105e-14 -0)
(0 -6.5232e-15 -0)
(0 1.0871e-14 -0)
(0 -3.76007e-14 -0)
(0 -1.01386e-13 -0)
)
;
    }
    fixedWalls
    {
        type            calculated;
        value           nonuniform List<vector> 
60
(
(0 -2.98925e-11 -0)
(0 -7.29296e-12 -0)
(0 1.95211e-11 -0)
(0 8.84449e-13 -0)
(0 -1.31259e-11 -0)
(0 1.65972e-11 -0)
(0 -1.43981e-11 -0)
(0 -4.57526e-12 -0)
(0 2.62993e-11 -0)
(0 -3.26659e-11 -0)
(0 2.30022e-11 -0)
(0 -7.82797e-12 -0)
(0 -7.84398e-12 -0)
(0 1.7072e-11 -0)
(0 -2.56317e-11 -0)
(0 2.23476e-11 -0)
(0 -1.70342e-12 -0)
(0 -2.70582e-11 -0)
(0 1.93423e-11 -0)
(0 1.91065e-11 -0)
(0 -3.44865e-15 -0)
(0 8.48193e-15 -0)
(0 5.93772e-15 -0)
(0 -7.45864e-15 -0)
(0 1.73135e-14 -0)
(0 8.27276e-15 -0)
(0 3.39823e-14 -0)
(0 -1.74913e-14 -0)
(0 6.06426e-15 -0)
(0 1.77661e-14 -0)
(0 4.77257e-14 -0)
(0 1.0242e-14 -0)
(0 4.21904e-15 -0)
(0 8.18179e-15 -0)
(0 -8.72605e-14 -0)
(0 1.09292e-14 -0)
(0 -2.04705e-14 -0)
(0 -4.44629e-14 -0)
(0 -3.3359e-15 -0)
(0 -4.80358e-14 -0)
(0 -7.03997e-12 -0)
(0 7.63016e-12 -0)
(0 -1.13909e-12 -0)
(0 5.65463e-13 -0)
(0 1.84108e-13 -0)
(0 2.76136e-13 -0)
(0 1.81275e-13 -0)
(0 1.39735e-13 -0)
(0 8.3677e-14 -0)
(0 1.29542e-13 -0)
(0 8.16801e-14 -0)
(0 1.72721e-13 -0)
(0 9.3134e-14 -0)
(0 6.02022e-15 -0)
(0 8.89785e-15 -0)
(0 4.077e-15 -0)
(0 -8.88842e-14 -0)
(0 4.65786e-14 -0)
(0 -8.92639e-14 -0)
(0 -2.55244e-15 -0)
)
;
    }
    frontAndBack
    {
        type            empty;
    }
}


// ************************************************************************* //
