/*--------------------------------*- C++ -*----------------------------------*\
| =========                 |                                                 |
| \\      /  F ield         | OpenFOAM: The Open Source CFD Toolbox           |
|  \\    /   O peration     | Version:  2312                                  |
|   \\  /    A nd           | Website:  www.openfoam.com                      |
|    \\/     M anipulation  |                                                 |
\*---------------------------------------------------------------------------*/
FoamFile
{
    version     2.0;
    format      ascii;
    arch        "LSB;label=32;scalar=64";
    class       volScalarField;
    location    "8.5";
    object      magSqrP;
}
// * * * * * * * * * * * * * * * * * * * * * * * * * * * * * * * * * * * * * //

dimensions      [0 4 -4 0 0 0 0];

internalField   nonuniform List<scalar> 
400
(
2.78551e-31
1.05559e-29
5.29294e-30
7.49375e-30
7.16975e-30
9.10633e-30
1.03196e-29
1.05253e-29
9.57215e-30
9.02652e-30
8.78628e-30
8.68366e-30
1.14171e-29
1.16875e-29
1.06176e-29
1.03349e-29
1.06295e-29
1.16057e-29
1.40771e-29
1.61193e-29
6.55919e-30
2.30805e-34
6.31772e-30
6.47676e-30
8.35833e-30
9.18081e-30
8.72233e-30
9.87102e-30
9.82125e-30
9.32431e-30
8.90054e-30
8.23851e-30
1.15174e-29
1.15436e-29
1.04013e-29
1.03902e-29
1.02186e-29
1.17381e-29
1.452e-29
1.60418e-29
6.42077e-30
4.72018e-30
6.95244e-30
7.73123e-30
8.7007e-30
9.30989e-30
8.93653e-30
1.01897e-29
1.01746e-29
9.54259e-30
9.47746e-30
9.43061e-30
1.03748e-29
1.20474e-29
1.14883e-29
1.07964e-29
1.04681e-29
1.20167e-29
1.40743e-29
1.53497e-29
3.82789e-30
6.77304e-30
7.12708e-30
8.48015e-30
9.4677e-30
9.15618e-30
8.83479e-30
1.08496e-29
1.02873e-29
9.63405e-30
1.04493e-29
9.32948e-30
9.70121e-30
1.1149e-29
1.18725e-29
1.17652e-29
1.17667e-29
1.17863e-29
1.41489e-29
1.59751e-29
5.12236e-30
7.3591e-30
7.71536e-30
9.04909e-30
9.64106e-30
9.49043e-30
9.55655e-30
1.09585e-29
1.14177e-29
9.99555e-30
1.00287e-29
1.06786e-29
1.16585e-29
1.13593e-29
1.14021e-29
1.21453e-29
1.18337e-29
1.23792e-29
1.39448e-29
1.63126e-29
5.613e-30
6.61993e-30
9.06044e-30
9.35472e-30
1.03689e-29
1.00222e-29
1.03534e-29
1.05273e-29
1.08331e-29
1.11583e-29
1.09387e-29
1.16158e-29
1.2641e-29
1.22306e-29
1.12566e-29
1.16656e-29
1.20267e-29
1.21529e-29
1.44032e-29
1.69179e-29
8.23606e-30
1.97417e-29
8.89346e-30
9.44209e-30
9.69314e-30
1.12916e-29
1.11097e-29
1.2409e-29
1.37433e-29
1.29362e-29
1.20563e-29
1.19008e-29
1.37826e-29
1.24899e-29
1.05539e-29
1.18462e-29
1.13173e-29
1.29032e-29
1.37758e-29
1.56858e-29
1.36516e-29
4.62767e-31
9.67129e-30
9.47686e-30
9.8485e-30
1.13987e-29
1.38833e-29
1.36186e-29
1.37701e-29
1.41671e-29
1.23383e-29
1.26546e-29
1.29173e-29
1.32204e-29
1.06783e-29
1.04143e-29
1.25478e-29
1.27119e-29
1.252e-29
1.43222e-29
8.70315e-30
2.82765e-29
1.12086e-29
1.17216e-29
1.16652e-29
1.362e-29
1.39377e-29
1.34026e-29
1.44326e-29
1.48357e-29
1.29175e-29
1.3305e-29
1.33952e-29
1.29638e-29
1.15746e-29
1.08739e-29
1.09329e-29
1.19135e-29
1.27802e-29
1.48582e-29
1.18305e-29
1.0357e-29
1.3189e-29
1.11405e-29
1.14218e-29
1.3484e-29
1.50208e-29
1.4829e-29
1.564e-29
1.51775e-29
1.4783e-29
1.40703e-29
1.35492e-29
1.32969e-29
1.08938e-29
1.13347e-29
1.1527e-29
1.10924e-29
1.19946e-29
1.33928e-29
1.25842e-29
3.35211e-30
1.26917e-29
1.20622e-29
1.30764e-29
1.30056e-29
1.4415e-29
1.54089e-29
1.65202e-29
1.54802e-29
1.62538e-29
1.58977e-29
1.50999e-29
1.40182e-29
1.14578e-29
1.15289e-29
1.13167e-29
9.61535e-30
1.07835e-29
1.34027e-29
9.16729e-30
4.17914e-29
1.16851e-29
1.38855e-29
1.20263e-29
1.32501e-29
1.62335e-29
1.8528e-29
1.75469e-29
1.47307e-29
1.57112e-29
1.74115e-29
1.46896e-29
1.23798e-29
1.20573e-29
1.18516e-29
1.17735e-29
1.13177e-29
1.07023e-29
1.22125e-29
1.62755e-29
2.14106e-30
1.2004e-29
1.29041e-29
1.36026e-29
1.46784e-29
1.58855e-29
1.74321e-29
1.74375e-29
1.60435e-29
1.68141e-29
1.797e-29
1.53617e-29
1.24179e-29
1.2876e-29
1.24679e-29
1.1673e-29
1.15563e-29
1.13778e-29
1.07526e-29
1.67827e-29
2.14784e-29
1.26033e-29
1.45993e-29
1.44996e-29
1.63446e-29
1.49864e-29
1.69301e-29
1.77884e-29
1.69055e-29
1.73106e-29
1.76369e-29
1.5415e-29
1.19313e-29
1.20571e-29
1.31922e-29
1.25255e-29
1.13925e-29
1.1086e-29
1.23523e-29
1.73536e-29
1.45372e-29
1.71457e-29
1.612e-29
1.70798e-29
1.59718e-29
1.44928e-29
1.58836e-29
1.75565e-29
1.71178e-29
1.72178e-29
1.69973e-29
1.41546e-29
1.28872e-29
1.32202e-29
1.3297e-29
1.2361e-29
1.10609e-29
1.23167e-29
1.34151e-29
2.02514e-29
1.02389e-29
1.96962e-29
1.72977e-29
1.61913e-29
1.57108e-29
1.61769e-29
1.54987e-29
1.59349e-29
1.6459e-29
1.63405e-29
1.64504e-29
1.50083e-29
1.27856e-29
1.21926e-29
1.14981e-29
1.25057e-29
1.22328e-29
1.28941e-29
1.36269e-29
1.62502e-29
3.76021e-29
2.07224e-29
1.96681e-29
1.85991e-29
1.63984e-29
1.70798e-29
1.7057e-29
1.58596e-29
1.52791e-29
1.39093e-29
1.36301e-29
1.45977e-29
1.39323e-29
1.16571e-29
1.12186e-29
1.18562e-29
1.29557e-29
1.29845e-29
1.45994e-29
2.23039e-29
1.62144e-29
2.23436e-29
1.92719e-29
1.82364e-29
1.76623e-29
1.81883e-29
1.57377e-29
1.52731e-29
1.45267e-29
1.40524e-29
1.29249e-29
1.46354e-29
1.45969e-29
1.29183e-29
1.25822e-29
1.14506e-29
1.18059e-29
1.30176e-29
1.5175e-29
2.47856e-29
1.29865e-29
2.18037e-29
1.95995e-29
2.00152e-29
1.95223e-29
1.70601e-29
1.50901e-29
1.55284e-29
1.43837e-29
1.41089e-29
1.33067e-29
1.42518e-29
1.43612e-29
1.30609e-29
1.29883e-29
1.20891e-29
1.21704e-29
1.33439e-29
1.58821e-29
1.24386e-29
3.79105e-29
2.24324e-29
2.2513e-29
2.04854e-29
1.90065e-29
1.70934e-29
1.53132e-29
1.59451e-29
1.48464e-29
1.42402e-29
1.37758e-29
1.37886e-29
1.33456e-29
1.39053e-29
1.33032e-29
1.3026e-29
1.17701e-29
1.39837e-29
1.7098e-29
)
;

boundaryField
{
    movingWall
    {
        type            calculated;
        value           nonuniform List<scalar> 
20
(
1.24386e-29
3.79105e-29
2.24324e-29
2.2513e-29
2.04854e-29
1.90065e-29
1.70934e-29
1.53132e-29
1.59451e-29
1.48464e-29
1.42402e-29
1.37758e-29
1.37886e-29
1.33456e-29
1.39053e-29
1.33032e-29
1.3026e-29
1.17701e-29
1.39837e-29
1.7098e-29
)
;
    }
    fixedWalls
    {
        type            calculated;
        value           nonuniform List<scalar> 
60
(
2.78551e-31
6.55919e-30
6.42077e-30
3.82789e-30
5.12236e-30
5.613e-30
8.23606e-30
1.36516e-29
8.70315e-30
1.18305e-29
1.25842e-29
9.16729e-30
1.62755e-29
1.67827e-29
1.73536e-29
2.02514e-29
1.62502e-29
2.23039e-29
2.47856e-29
1.24386e-29
1.61193e-29
1.60418e-29
1.53497e-29
1.59751e-29
1.63126e-29
1.69179e-29
1.56858e-29
1.43222e-29
1.48582e-29
1.33928e-29
1.34027e-29
1.22125e-29
1.07526e-29
1.23523e-29
1.34151e-29
1.36269e-29
1.45994e-29
1.5175e-29
1.58821e-29
1.7098e-29
2.78551e-31
1.05559e-29
5.29294e-30
7.49375e-30
7.16975e-30
9.10633e-30
1.03196e-29
1.05253e-29
9.57215e-30
9.02652e-30
8.78628e-30
8.68366e-30
1.14171e-29
1.16875e-29
1.06176e-29
1.03349e-29
1.06295e-29
1.16057e-29
1.40771e-29
1.61193e-29
)
;
    }
    frontAndBack
    {
        type            empty;
    }
}


// ************************************************************************* //
