/*--------------------------------*- C++ -*----------------------------------*\
| =========                 |                                                 |
| \\      /  F ield         | OpenFOAM: The Open Source CFD Toolbox           |
|  \\    /   O peration     | Version:  2312                                  |
|   \\  /    A nd           | Website:  www.openfoam.com                      |
|    \\/     M anipulation  |                                                 |
\*---------------------------------------------------------------------------*/
FoamFile
{
    version     2.0;
    format      ascii;
    arch        "LSB;label=32;scalar=64";
    class       volVectorField;
    location    "8.5";
    object      momentum1:momentum;
}
// * * * * * * * * * * * * * * * * * * * * * * * * * * * * * * * * * * * * * //

dimensions      [1 1 -1 0 0 0 0];

internalField   nonuniform List<vector> 
400
(
(-2.5e-07 1.88691e-20 0)
(-2.5e-07 -3.93377e-21 0)
(-2.5e-07 9.03967e-22 0)
(-2.5e-07 -1.97862e-22 0)
(-2.5e-07 4.54208e-23 0)
(-2.5e-07 8.0014e-24 0)
(-2.5e-07 2.12143e-23 0)
(-2.5e-07 -1.09785e-24 0)
(-2.5e-07 4.94258e-24 0)
(-2.5e-07 1.17543e-23 0)
(-2.5e-07 1.41541e-23 0)
(-2.5e-07 2.95987e-23 0)
(-2.5e-07 2.64416e-23 0)
(-2.5e-07 1.88082e-23 0)
(-2.5e-07 1.13911e-23 0)
(-2.5e-07 -3.43643e-24 0)
(-2.5e-07 1.19857e-24 0)
(-2.5e-07 -3.27052e-24 0)
(-2.5e-07 -4.22571e-24 0)
(-2.5e-07 -2.1554e-24 0)
(-2.5e-07 5.08326e-21 0)
(-2.5e-07 -1.0421e-21 0)
(-2.5e-07 2.14424e-22 0)
(-2.5e-07 -6.33413e-23 0)
(-2.5e-07 1.39471e-23 0)
(-2.5e-07 2.95706e-23 0)
(-2.5e-07 3.77214e-23 0)
(-2.5e-07 8.72422e-24 0)
(-2.5e-07 4.67427e-24 0)
(-2.5e-07 -1.2473e-24 0)
(-2.5e-07 -1.52277e-23 0)
(-2.5e-07 -2.92289e-24 0)
(-2.5e-07 2.71751e-23 0)
(-2.5e-07 -4.98967e-24 0)
(-2.5e-07 -1.16263e-23 0)
(-2.5e-07 4.59023e-24 0)
(-2.5e-07 1.09774e-23 0)
(-2.5e-07 -8.78003e-24 0)
(-2.5e-07 7.05953e-25 0)
(-2.5e-07 5.30121e-24 0)
(-2.5e-07 -1.37423e-20 0)
(-2.5e-07 2.78839e-21 0)
(-2.5e-07 -6.97036e-22 0)
(-2.5e-07 1.08874e-22 0)
(-2.5e-07 -6.34137e-23 0)
(-2.5e-07 -1.55004e-23 0)
(-2.5e-07 -2.7469e-23 0)
(-2.5e-07 -2.56111e-23 0)
(-2.5e-07 -2.22908e-23 0)
(-2.5e-07 -1.86549e-23 0)
(-2.5e-07 -4.22283e-24 0)
(-2.5e-07 1.70377e-23 0)
(-2.5e-07 3.7971e-23 0)
(-2.5e-07 -5.52366e-24 0)
(-2.5e-07 -3.47219e-23 0)
(-2.5e-07 -1.40371e-23 0)
(-2.5e-07 -1.59492e-23 0)
(-2.5e-07 -1.90798e-23 0)
(-2.5e-07 -9.42498e-24 0)
(-2.5e-07 3.71107e-24 0)
(-2.5e-07 -7.84421e-23 0)
(-2.5e-07 -9.97752e-23 0)
(-2.5e-07 -1.34143e-23 0)
(-2.5e-07 -2.8753e-23 0)
(-2.5e-07 -3.06308e-23 0)
(-2.5e-07 -4.41806e-23 0)
(-2.5e-07 -5.19056e-23 0)
(-2.5e-07 -3.11134e-23 0)
(-2.5e-07 -2.41499e-23 0)
(-2.5e-07 -1.96185e-23 0)
(-2.5e-07 4.50994e-24 0)
(-2.5e-07 -1.66854e-24 0)
(-2.5e-07 -1.42434e-23 0)
(-2.5e-07 -1.26785e-24 0)
(-2.5e-07 -2.56402e-23 0)
(-2.5e-07 -3.18517e-23 0)
(-2.5e-07 -2.12032e-23 0)
(-2.5e-07 5.13851e-24 0)
(-2.5e-07 5.84198e-24 0)
(-2.5e-07 -4.66165e-24 0)
(-2.5e-07 9.22011e-21 0)
(-2.5e-07 -2.19496e-21 0)
(-2.5e-07 4.36041e-22 0)
(-2.5e-07 -1.61198e-22 0)
(-2.5e-07 -5.06885e-24 0)
(-2.5e-07 -1.87725e-23 0)
(-2.5e-07 1.14564e-23 0)
(-2.5e-07 4.49571e-23 0)
(-2.5e-07 3.11631e-23 0)
(-2.5e-07 9.15109e-25 0)
(-2.5e-07 -4.29826e-24 0)
(-2.5e-07 -4.42222e-23 0)
(-2.5e-07 -6.63537e-23 0)
(-2.5e-07 -4.62242e-23 0)
(-2.5e-07 -2.45112e-23 0)
(-2.5e-07 -6.91277e-24 0)
(-2.5e-07 2.19425e-23 0)
(-2.5e-07 3.79333e-23 0)
(-2.5e-07 2.32458e-23 0)
(-2.5e-07 -6.11972e-24 0)
(-2.5e-07 -1.08476e-20 0)
(-2.5e-07 2.31057e-21 0)
(-2.5e-07 -5.8333e-22 0)
(-2.5e-07 1.01347e-22 0)
(-2.5e-07 -5.97814e-23 0)
(-2.5e-07 -3.98313e-23 0)
(-2.5e-07 -3.5409e-23 0)
(-2.5e-07 -4.36635e-23 0)
(-2.5e-07 -5.76867e-23 0)
(-2.5e-07 -4.55931e-23 0)
(-2.5e-07 -1.79492e-23 0)
(-2.5e-07 -1.44819e-24 0)
(-2.5e-07 -7.07873e-24 0)
(-2.5e-07 -7.77625e-24 0)
(-2.5e-07 1.29979e-23 0)
(-2.5e-07 1.31826e-23 0)
(-2.5e-07 1.93356e-23 0)
(-2.5e-07 1.69614e-23 0)
(-2.5e-07 1.61621e-23 0)
(-2.5e-07 5.17047e-24 0)
(-2.5e-07 8.55836e-21 0)
(-2.5e-07 -1.63372e-21 0)
(-2.5e-07 4.47504e-22 0)
(-2.5e-07 -9.60392e-24 0)
(-2.5e-07 7.22809e-23 0)
(-2.5e-07 -1.12651e-23 0)
(-2.5e-07 -4.27196e-23 0)
(-2.5e-07 -5.45234e-23 0)
(-2.5e-07 -5.62077e-23 0)
(-2.5e-07 -4.52755e-23 0)
(-2.5e-07 -4.007e-23 0)
(-2.5e-07 -2.4439e-23 0)
(-2.5e-07 -2.6199e-24 0)
(-2.5e-07 5.30361e-24 0)
(-2.5e-07 2.29775e-23 0)
(-2.5e-07 2.62709e-23 0)
(-2.5e-07 9.66357e-24 0)
(-2.5e-07 1.56801e-23 0)
(-2.5e-07 3.31454e-23 0)
(-2.5e-07 2.12389e-23 0)
(-2.5e-07 3.23223e-21 0)
(-2.5e-07 -8.68735e-22 0)
(-2.5e-07 1.82435e-22 0)
(-2.5e-07 -5.59229e-23 0)
(-2.5e-07 8.0337e-24 0)
(-2.5e-07 -1.51291e-23 0)
(-2.5e-07 -2.19595e-23 0)
(-2.5e-07 -3.63251e-24 0)
(-2.5e-07 -1.74565e-23 0)
(-2.5e-07 -4.87698e-23 0)
(-2.5e-07 -6.39247e-23 0)
(-2.5e-07 -5.6076e-23 0)
(-2.5e-07 -2.71982e-23 0)
(-2.5e-07 -1.50542e-23 0)
(-2.5e-07 -9.66423e-24 0)
(-2.5e-07 -5.97683e-25 0)
(-2.5e-07 -8.80051e-24 0)
(-2.5e-07 -7.11214e-24 0)
(-2.5e-07 4.55949e-24 0)
(-2.5e-07 6.00863e-24 0)
(-2.5e-07 -1.63016e-20 0)
(-2.5e-07 3.52381e-21 0)
(-2.5e-07 -8.46681e-22 0)
(-2.5e-07 1.59653e-22 0)
(-2.5e-07 -7.89303e-23 0)
(-2.5e-07 -3.96273e-23 0)
(-2.5e-07 -6.08613e-23 0)
(-2.5e-07 -5.67028e-23 0)
(-2.5e-07 -5.58744e-23 0)
(-2.5e-07 -6.36318e-23 0)
(-2.5e-07 -6.56957e-23 0)
(-2.5e-07 -3.33537e-23 0)
(-2.5e-07 3.67683e-24 0)
(-2.5e-07 3.87958e-24 0)
(-2.5e-07 -2.49864e-23 0)
(-2.5e-07 -4.73262e-23 0)
(-2.5e-07 -2.12977e-23 0)
(-2.5e-07 -2.12469e-26 0)
(-2.5e-07 3.85647e-25 0)
(-2.5e-07 3.79016e-24 0)
(-2.5e-07 1.90779e-20 0)
(-2.5e-07 -3.82674e-21 0)
(-2.5e-07 9.20651e-22 0)
(-2.5e-07 -1.83709e-22 0)
(-2.5e-07 4.63222e-23 0)
(-2.5e-07 4.01787e-24 0)
(-2.5e-07 -1.80289e-23 0)
(-2.5e-07 -5.02183e-23 0)
(-2.5e-07 -3.35198e-23 0)
(-2.5e-07 -3.46475e-23 0)
(-2.5e-07 -7.36225e-23 0)
(-2.5e-07 -7.38654e-23 0)
(-2.5e-07 -5.76742e-23 0)
(-2.5e-07 -3.78721e-23 0)
(-2.5e-07 -2.35905e-23 0)
(-2.5e-07 -9.55408e-24 0)
(-2.5e-07 1.77355e-23 0)
(-2.5e-07 3.80537e-23 0)
(-2.5e-07 1.89871e-23 0)
(-2.5e-07 1.11038e-23 0)
(-2.5e-07 -1.23435e-20 0)
(-2.5e-07 2.39119e-21 0)
(-2.5e-07 -5.66389e-22 0)
(-2.5e-07 6.71328e-23 0)
(-2.5e-07 -5.64486e-23 0)
(-2.5e-07 -1.92598e-23 0)
(-2.5e-07 -4.86457e-23 0)
(-2.5e-07 -7.22002e-23 0)
(-2.5e-07 -5.66532e-23 0)
(-2.5e-07 -4.00292e-23 0)
(-2.5e-07 -6.12874e-23 0)
(-2.5e-07 -7.67534e-23 0)
(-2.5e-07 -4.07678e-23 0)
(-2.5e-07 -8.06868e-24 0)
(-2.5e-07 -1.26155e-23 0)
(-2.5e-07 -4.82022e-24 0)
(-2.5e-07 -1.33098e-23 0)
(-2.5e-07 -1.72137e-23 0)
(-2.5e-07 1.11314e-23 0)
(-2.5e-07 1.28879e-23 0)
(-2.5e-07 4.41814e-21 0)
(-2.5e-07 -9.62183e-22 0)
(-2.5e-07 2.30789e-22 0)
(-2.5e-07 -9.10099e-23 0)
(-2.5e-07 -4.22132e-23 0)
(-2.5e-07 -5.34147e-23 0)
(-2.5e-07 -3.69092e-23 0)
(-2.5e-07 -2.48992e-23 0)
(-2.5e-07 -2.12928e-23 0)
(-2.5e-07 -5.21682e-24 0)
(-2.5e-07 1.7947e-23 0)
(-2.5e-07 1.81673e-23 0)
(-2.5e-07 3.23713e-23 0)
(-2.5e-07 1.807e-23 0)
(-2.5e-07 -2.58821e-23 0)
(-2.5e-07 -3.29961e-23 0)
(-2.5e-07 -2.49379e-23 0)
(-2.5e-07 -1.72488e-23 0)
(-2.5e-07 1.99486e-23 0)
(-2.5e-07 2.33419e-23 0)
(-2.5e-07 3.39477e-21 0)
(-2.5e-07 -4.6135e-22 0)
(-2.5e-07 1.3243e-22 0)
(-2.5e-07 -2.00926e-23 0)
(-2.5e-07 -2.99524e-23 0)
(-2.5e-07 -2.82958e-23 0)
(-2.5e-07 7.12883e-24 0)
(-2.5e-07 4.72617e-24 0)
(-2.5e-07 -1.28515e-23 0)
(-2.5e-07 -2.72098e-23 0)
(-2.5e-07 -2.22956e-23 0)
(-2.5e-07 -9.59371e-24 0)
(-2.5e-07 -2.22689e-23 0)
(-2.5e-07 -1.20603e-23 0)
(-2.5e-07 -1.11735e-23 0)
(-2.5e-07 -2.68048e-23 0)
(-2.5e-07 -2.29076e-23 0)
(-2.5e-07 -5.69219e-24 0)
(-2.5e-07 -8.38433e-25 0)
(-2.5e-07 2.6369e-24 0)
(-2.5e-07 -9.45027e-21 0)
(-2.5e-07 1.81825e-21 0)
(-2.5e-07 -5.35351e-22 0)
(-2.5e-07 4.77872e-23 0)
(-2.5e-07 -6.07791e-23 0)
(-2.5e-07 -2.33e-24 0)
(-2.5e-07 3.52434e-24 0)
(-2.5e-07 -1.59784e-23 0)
(-2.5e-07 -2.85814e-23 0)
(-2.5e-07 -2.30694e-23 0)
(-2.5e-07 -5.31638e-24 0)
(-2.5e-07 1.31442e-23 0)
(-2.5e-07 5.36385e-24 0)
(-2.5e-07 -1.69261e-23 0)
(-2.5e-07 -2.44685e-23 0)
(-2.5e-07 -1.91398e-23 0)
(-2.5e-07 8.71823e-25 0)
(-2.5e-07 -1.7761e-25 0)
(-2.5e-07 -4.03849e-23 0)
(-2.5e-07 -2.87677e-23 0)
(-2.5e-07 1.59182e-20 0)
(-2.5e-07 -3.50329e-21 0)
(-2.5e-07 7.20391e-22 0)
(-2.5e-07 -1.97928e-22 0)
(-2.5e-07 3.15635e-23 0)
(-2.5e-07 -1.76544e-23 0)
(-2.5e-07 -2.47677e-23 0)
(-2.5e-07 -1.36531e-23 0)
(-2.5e-07 -2.27309e-23 0)
(-2.5e-07 -2.23403e-23 0)
(-2.5e-07 -8.97972e-24 0)
(-2.5e-07 -1.54672e-23 0)
(-2.5e-07 -2.822e-23 0)
(-2.5e-07 -3.95994e-23 0)
(-2.5e-07 -1.48427e-23 0)
(-2.5e-07 3.47729e-23 0)
(-2.5e-07 1.79709e-23 0)
(-2.5e-07 -8.19613e-24 0)
(-2.5e-07 -3.27158e-23 0)
(-2.5e-07 -2.06565e-23 0)
(-2.5e-07 -1.48312e-20 0)
(-2.5e-07 3.13885e-21 0)
(-2.5e-07 -7.87161e-22 0)
(-2.5e-07 1.35899e-22 0)
(-2.5e-07 -5.11222e-23 0)
(-2.5e-07 -1.91102e-23 0)
(-2.5e-07 -4.67523e-23 0)
(-2.5e-07 -2.59809e-23 0)
(-2.5e-07 6.59078e-24 0)
(-2.5e-07 2.4154e-23 0)
(-2.5e-07 1.7817e-23 0)
(-2.5e-07 -2.14213e-23 0)
(-2.5e-07 -5.04547e-23 0)
(-2.5e-07 -2.54405e-23 0)
(-2.5e-07 2.58654e-23 0)
(-2.5e-07 1.99507e-23 0)
(-2.5e-07 -3.26169e-23 0)
(-2.5e-07 -4.80168e-23 0)
(-2.5e-07 -1.1749e-23 0)
(-2.5e-07 -1.01099e-23 0)
(-2.5e-07 1.48815e-21 0)
(-2.5e-07 -4.77256e-22 0)
(-2.5e-07 5.2343e-23 0)
(-2.5e-07 -8.92472e-23 0)
(-2.5e-07 -5.80296e-23 0)
(-2.5e-07 -5.39476e-23 0)
(-2.5e-07 -4.85863e-23 0)
(-2.5e-07 -2.34577e-23 0)
(-2.5e-07 1.1433e-23 0)
(-2.5e-07 3.25714e-23 0)
(-2.5e-07 2.89527e-23 0)
(-2.5e-07 1.02956e-23 0)
(-2.5e-07 -2.82319e-23 0)
(-2.5e-07 -3.30244e-23 0)
(-2.5e-07 -1.68018e-23 0)
(-2.5e-07 -3.8128e-23 0)
(-2.5e-07 -2.28059e-23 0)
(-2.5e-07 -2.08869e-23 0)
(-2.5e-07 -1.04092e-23 0)
(-2.5e-07 -1.27941e-23 0)
(-2.5e-07 1.86224e-20 0)
(-2.5e-07 -3.95745e-21 0)
(-2.5e-07 9.05316e-22 0)
(-2.5e-07 -2.36697e-22 0)
(-2.5e-07 -1.4029e-23 0)
(-2.5e-07 -9.39019e-23 0)
(-2.5e-07 -5.192e-23 0)
(-2.5e-07 -1.61275e-23 0)
(-2.5e-07 -1.94056e-23 0)
(-2.5e-07 -1.87889e-23 0)
(-2.5e-07 -1.9327e-23 0)
(-2.5e-07 -2.60127e-24 0)
(-2.5e-07 6.05686e-25 0)
(-2.5e-07 7.1065e-24 0)
(-2.5e-07 -5.27334e-24 0)
(-2.5e-07 -1.96429e-23 0)
(-2.5e-07 -6.11362e-24 0)
(-2.5e-07 3.94522e-24 0)
(-2.5e-07 -9.45809e-24 0)
(-2.5e-07 -1.08487e-23 0)
(-2.5e-07 -1.27835e-20 0)
(-2.5e-07 2.66179e-21 0)
(-2.5e-07 -6.90632e-22 0)
(-2.5e-07 8.34541e-23 0)
(-2.5e-07 -6.82104e-23 0)
(-2.5e-07 -1.98398e-23 0)
(-2.5e-07 -1.8724e-23 0)
(-2.5e-07 -2.19356e-23 0)
(-2.5e-07 -3.0566e-23 0)
(-2.5e-07 -1.50076e-23 0)
(-2.5e-07 -5.64672e-24 0)
(-2.5e-07 -1.82157e-24 0)
(-2.5e-07 3.2308e-24 0)
(-2.5e-07 -1.33991e-23 0)
(-2.5e-07 -2.59288e-23 0)
(-2.5e-07 -8.47804e-24 0)
(-2.5e-07 9.63157e-24 0)
(-2.5e-07 7.77707e-24 0)
(-2.5e-07 -2.39141e-23 0)
(-2.5e-07 -1.90256e-23 0)
(-2.5e-07 -1.26022e-20 0)
(-2.5e-07 2.56795e-21 0)
(-2.5e-07 -6.2143e-22 0)
(-2.5e-07 1.13685e-22 0)
(-2.5e-07 -1.91473e-23 0)
(-2.5e-07 1.78454e-23 0)
(-2.5e-07 -1.04852e-23 0)
(-2.5e-07 -1.65647e-23 0)
(-2.5e-07 -1.84724e-23 0)
(-2.5e-07 -1.37501e-23 0)
(-2.5e-07 -1.3975e-23 0)
(-2.5e-07 -1.96006e-23 0)
(-2.5e-07 -2.56668e-23 0)
(-2.5e-07 -4.56749e-23 0)
(-2.5e-07 -4.36804e-23 0)
(-2.5e-07 -1.23693e-23 0)
(-2.5e-07 8.83808e-24 0)
(-2.5e-07 3.93873e-24 0)
(-2.5e-07 -1.83393e-23 0)
(-2.5e-07 -1.30817e-23 0)
)
;

boundaryField
{
    movingWall
    {
        type            calculated;
        value           uniform (0 0 0);
    }
    fixedWalls
    {
        type            calculated;
        value           uniform (0 0 0);
    }
    frontAndBack
    {
        type            empty;
    }
}


// ************************************************************************* //
