/*--------------------------------*- C++ -*----------------------------------*\
| =========                 |                                                 |
| \\      /  F ield         | OpenFOAM: The Open Source CFD Toolbox           |
|  \\    /   O peration     | Version:  2312                                  |
|   \\  /    A nd           | Website:  www.openfoam.com                      |
|    \\/     M anipulation  |                                                 |
\*---------------------------------------------------------------------------*/
FoamFile
{
    version     2.0;
    format      ascii;
    arch        "LSB;label=32;scalar=64";
    class       volScalarField;
    location    "8.5";
    object      norm_k_field;
}
// * * * * * * * * * * * * * * * * * * * * * * * * * * * * * * * * * * * * * //

dimensions      [0 0 0 0 0 0 0];

internalField   nonuniform List<scalar> 
400
(
2.31032e+09
8.30707e+08
1.06939e+09
9.44396e+08
9.5976e+08
8.78532e+08
8.37918e+08
8.31628e+08
8.62176e+08
8.81439e+08
8.90389e+08
8.94306e+08
8.06054e+08
7.98798e+08
8.28856e+08
8.37442e+08
8.28499e+08
8.00969e+08
7.4278e+08
7.03834e+08
1.00878e+09
3.53861e+09
1.02242e+09
1.01334e+09
9.23182e+08
8.91349e+08
9.08615e+08
8.67261e+08
8.68916e+08
8.86123e+08
9.01731e+08
9.28075e+08
8.17503e+08
8.1678e+08
8.5012e+08
8.50462e+08
8.55876e+08
8.11508e+08
7.46659e+08
7.17612e+08
1.04463e+09
1.16361e+09
1.01507e+09
9.76459e+08
9.34613e+08
9.11185e+08
9.25287e+08
8.80533e+08
8.81018e+08
9.02699e+08
9.05025e+08
9.06715e+08
8.7447e+08
8.25581e+08
8.40902e+08
8.61237e+08
8.71472e+08
8.26388e+08
7.76807e+08
7.5054e+08
1.28404e+09
1.05379e+09
1.03447e+09
9.7036e+08
9.31093e+08
9.42891e+08
9.55591e+08
8.84028e+08
9.02184e+08
9.24936e+08
8.96805e+08
9.36202e+08
9.2248e+08
8.74786e+08
8.53794e+08
8.56802e+08
8.56753e+08
8.56202e+08
7.97151e+08
7.596e+08
1.19041e+09
1.04629e+09
1.02829e+09
9.69136e+08
9.46255e+08
9.51892e+08
9.49383e+08
9.0114e+08
8.87e+08
9.33336e+08
9.32153e+08
9.10086e+08
8.79846e+08
8.88719e+08
8.87426e+08
8.65992e+08
8.74765e+08
8.59586e+08
8.20393e+08
7.70797e+08
1.17221e+09
1.10536e+09
9.84836e+08
9.73057e+08
9.35791e+08
9.47978e+08
9.36298e+08
9.30355e+08
9.20197e+08
9.09797e+08
9.1676e+08
8.95788e+08
8.66828e+08
8.78042e+08
9.0669e+08
8.94286e+08
8.83779e+08
8.80206e+08
8.23474e+08
7.72261e+08
1.03174e+09
7.33525e+08
1.00261e+09
9.8029e+08
9.706e+08
9.15624e+08
9.21351e+08
8.82733e+08
8.48112e+08
8.68493e+08
8.92657e+08
8.97155e+08
8.47129e+08
8.80452e+08
9.39597e+08
8.98733e+08
9.14735e+08
8.69319e+08
8.47273e+08
8.04752e+08
8.56361e+08
2.39274e+09
9.78215e+08
9.85735e+08
9.71478e+08
9.18638e+08
8.50625e+08
8.57088e+08
8.53353e+08
8.43831e+08
8.90814e+08
8.82069e+08
8.75002e+08
8.67089e+08
9.41892e+08
9.50949e+08
8.84961e+08
8.80485e+08
8.85723e+08
8.40163e+08
1.02235e+09
6.3923e+08
9.28781e+08
9.12862e+08
9.14549e+08
8.609e+08
8.53104e+08
8.66337e+08
8.414e+08
8.32258e+08
8.78916e+08
8.68792e+08
8.66481e+08
8.77669e+08
9.17214e+08
9.39532e+08
9.3758e+08
9.07019e+08
8.82562e+08
8.31714e+08
9.12441e+08
9.60313e+08
8.74568e+08
9.33814e+08
9.24869e+08
8.66966e+08
8.30745e+08
8.34989e+08
8.17466e+08
8.27299e+08
8.35989e+08
8.52495e+08
8.65255e+08
8.71663e+08
9.41767e+08
9.27502e+08
9.21497e+08
9.35247e+08
9.07417e+08
8.69192e+08
8.92939e+08
1.43439e+09
8.89954e+08
9.07744e+08
8.79593e+08
8.81455e+08
8.46453e+08
8.24325e+08
8.01674e+08
8.22791e+08
8.069e+08
8.14081e+08
8.30955e+08
8.55786e+08
9.2587e+08
9.2366e+08
9.30299e+08
9.89999e+08
9.47715e+08
8.71029e+08
1.01032e+09
5.45146e+08
9.20975e+08
8.6095e+08
9.10729e+08
8.76928e+08
8.09079e+08
7.67074e+08
7.8414e+08
8.40997e+08
8.19692e+08
7.86573e+08
8.41902e+08
9.00444e+08
9.09725e+08
9.15814e+08
9.18158e+08
9.32268e+08
9.52508e+08
9.05206e+08
8.10047e+08
1.65555e+09
9.13364e+08
8.87985e+08
8.69795e+08
8.44028e+08
8.17868e+08
7.87912e+08
7.87801e+08
8.14612e+08
7.99419e+08
7.78265e+08
8.28833e+08
9.0129e+08
8.88631e+08
8.9987e+08
9.23177e+08
9.26769e+08
9.32354e+08
9.52829e+08
8.01939e+08
7.25392e+08
8.98237e+08
8.47774e+08
8.50057e+08
8.10435e+08
8.3897e+08
7.99039e+08
7.83251e+08
7.99489e+08
7.91889e+08
7.85943e+08
8.29556e+08
9.17467e+08
9.13732e+08
8.82213e+08
9.00276e+08
9.33994e+08
9.43853e+08
9.0517e+08
7.93133e+08
8.51304e+08
7.9697e+08
8.16945e+08
7.9818e+08
8.19941e+08
8.52256e+08
8.21736e+08
7.89326e+08
7.97413e+08
7.95535e+08
7.99669e+08
8.60199e+08
8.925e+08
8.83623e+08
8.81613e+08
9.07124e+08
9.46972e+08
9.0839e+08
8.78553e+08
7.46832e+08
9.78061e+08
7.55339e+08
7.96175e+08
8.17588e+08
8.27485e+08
8.17854e+08
8.31964e+08
8.22778e+08
8.12181e+08
8.14524e+08
8.12335e+08
8.42632e+08
8.97574e+08
9.14333e+08
9.35342e+08
9.05347e+08
9.13156e+08
8.94598e+08
8.7541e+08
8.18575e+08
5.77447e+08
7.41735e+08
7.57736e+08
7.75149e+08
8.1554e+08
8.02293e+08
8.02717e+08
8.26483e+08
8.38861e+08
8.70659e+08
8.77634e+08
8.54179e+08
8.70072e+08
9.32815e+08
9.46714e+08
9.26712e+08
8.95254e+08
8.94476e+08
8.54116e+08
7.21379e+08
8.21259e+08
7.20827e+08
7.65874e+08
7.83235e+08
7.93422e+08
7.8405e+08
8.31029e+08
8.41008e+08
8.57899e+08
8.69223e+08
8.98258e+08
8.55345e+08
8.56233e+08
8.98421e+08
9.07714e+08
9.41517e+08
9.30457e+08
8.95722e+08
8.43115e+08
6.91798e+08
8.98396e+08
7.29489e+08
7.62049e+08
7.55532e+08
7.63253e+08
8.06086e+08
8.46641e+08
8.37029e+08
8.62874e+08
8.69467e+08
8.89732e+08
8.65998e+08
8.6338e+08
8.96237e+08
8.98194e+08
9.23667e+08
9.21264e+08
8.88728e+08
8.29487e+08
9.14427e+08
5.78367e+08
7.21627e+08
7.20559e+08
7.49076e+08
7.72338e+08
8.06218e+08
8.42515e+08
8.29029e+08
8.52949e+08
8.67151e+08
8.7857e+08
8.78248e+08
8.896e+08
8.75337e+08
8.90712e+08
8.98092e+08
9.34253e+08
8.73397e+08
8.06128e+08
)
;

boundaryField
{
    movingWall
    {
        type            calculated;
        value           nonuniform List<scalar> 
20
(
9.14427e+08
5.78367e+08
7.21627e+08
7.20559e+08
7.49076e+08
7.72338e+08
8.06218e+08
8.42515e+08
8.29029e+08
8.52949e+08
8.67151e+08
8.7857e+08
8.78248e+08
8.896e+08
8.75337e+08
8.90712e+08
8.98092e+08
9.34253e+08
8.73397e+08
8.06128e+08
)
;
    }
    fixedWalls
    {
        type            calculated;
        value           nonuniform List<scalar> 
60
(
2.31032e+09
1.00878e+09
1.04463e+09
1.28404e+09
1.19041e+09
1.17221e+09
1.03174e+09
8.56361e+08
1.02235e+09
9.12441e+08
8.92939e+08
1.01032e+09
8.10047e+08
8.01939e+08
7.93133e+08
7.46832e+08
8.18575e+08
7.21379e+08
6.91798e+08
9.14427e+08
7.03834e+08
7.17612e+08
7.5054e+08
7.596e+08
7.70797e+08
7.72261e+08
8.04752e+08
8.40163e+08
8.31714e+08
8.69192e+08
8.71029e+08
9.05206e+08
9.52829e+08
9.0517e+08
8.78553e+08
8.7541e+08
8.54116e+08
8.43115e+08
8.29487e+08
8.06128e+08
2.31032e+09
8.30707e+08
1.06939e+09
9.44396e+08
9.5976e+08
8.78532e+08
8.37918e+08
8.31628e+08
8.62176e+08
8.81439e+08
8.90389e+08
8.94306e+08
8.06054e+08
7.98798e+08
8.28856e+08
8.37442e+08
8.28499e+08
8.00969e+08
7.4278e+08
7.03834e+08
)
;
    }
    frontAndBack
    {
        type            empty;
    }
}


// ************************************************************************* //
