/*--------------------------------*- C++ -*----------------------------------*\
| =========                 |                                                 |
| \\      /  F ield         | OpenFOAM: The Open Source CFD Toolbox           |
|  \\    /   O peration     | Version:  2312                                  |
|   \\  /    A nd           | Website:  www.openfoam.com                      |
|    \\/     M anipulation  |                                                 |
\*---------------------------------------------------------------------------*/
FoamFile
{
    version     2.0;
    format      ascii;
    arch        "LSB;label=32;scalar=64";
    class       volVectorField;
    location    "8.5";
    object      norm_U_composite;
}
// * * * * * * * * * * * * * * * * * * * * * * * * * * * * * * * * * * * * * //

dimensions      [0 0 0 0 0 0 0];

internalField   nonuniform List<vector> 
400
(
(-0.5 3.77383e-14 0)
(-0.5 -7.86753e-15 0)
(-0.5 1.80793e-15 0)
(-0.5 -3.95724e-16 0)
(-0.5 9.08416e-17 0)
(-0.5 1.60028e-17 0)
(-0.5 4.24286e-17 0)
(-0.5 -2.1957e-18 0)
(-0.5 9.88516e-18 0)
(-0.5 2.35086e-17 0)
(-0.5 2.83083e-17 0)
(-0.5 5.91974e-17 0)
(-0.5 5.28833e-17 0)
(-0.5 3.76164e-17 0)
(-0.5 2.27821e-17 0)
(-0.5 -6.87287e-18 0)
(-0.5 2.39713e-18 0)
(-0.5 -6.54105e-18 0)
(-0.5 -8.45141e-18 0)
(-0.5 -4.31081e-18 0)
(-0.5 1.01665e-14 0)
(-0.5 -2.08419e-15 0)
(-0.5 4.28849e-16 0)
(-0.5 -1.26683e-16 0)
(-0.5 2.78942e-17 0)
(-0.5 5.91412e-17 0)
(-0.5 7.54427e-17 0)
(-0.5 1.74484e-17 0)
(-0.5 9.34854e-18 0)
(-0.5 -2.49461e-18 0)
(-0.5 -3.04553e-17 0)
(-0.5 -5.84578e-18 0)
(-0.5 5.43502e-17 0)
(-0.5 -9.97935e-18 0)
(-0.5 -2.32525e-17 0)
(-0.5 9.18045e-18 0)
(-0.5 2.19547e-17 0)
(-0.5 -1.75601e-17 0)
(-0.5 1.41191e-18 0)
(-0.5 1.06024e-17 0)
(-0.5 -2.74846e-14 0)
(-0.5 5.57677e-15 0)
(-0.5 -1.39407e-15 0)
(-0.5 2.17749e-16 0)
(-0.5 -1.26827e-16 0)
(-0.5 -3.10008e-17 0)
(-0.5 -5.4938e-17 0)
(-0.5 -5.12221e-17 0)
(-0.5 -4.45817e-17 0)
(-0.5 -3.73098e-17 0)
(-0.5 -8.44567e-18 0)
(-0.5 3.40754e-17 0)
(-0.5 7.59421e-17 0)
(-0.5 -1.10473e-17 0)
(-0.5 -6.94438e-17 0)
(-0.5 -2.80743e-17 0)
(-0.5 -3.18983e-17 0)
(-0.5 -3.81596e-17 0)
(-0.5 -1.885e-17 0)
(-0.5 7.42215e-18 0)
(-0.5 -1.56884e-16 0)
(-0.5 -1.9955e-16 0)
(-0.5 -2.68287e-17 0)
(-0.5 -5.7506e-17 0)
(-0.5 -6.12616e-17 0)
(-0.5 -8.83613e-17 0)
(-0.5 -1.03811e-16 0)
(-0.5 -6.22268e-17 0)
(-0.5 -4.82997e-17 0)
(-0.5 -3.9237e-17 0)
(-0.5 9.01988e-18 0)
(-0.5 -3.33709e-18 0)
(-0.5 -2.84869e-17 0)
(-0.5 -2.5357e-18 0)
(-0.5 -5.12804e-17 0)
(-0.5 -6.37034e-17 0)
(-0.5 -4.24063e-17 0)
(-0.5 1.0277e-17 0)
(-0.5 1.1684e-17 0)
(-0.5 -9.3233e-18 0)
(-0.5 1.84402e-14 0)
(-0.5 -4.38993e-15 0)
(-0.5 8.72082e-16 0)
(-0.5 -3.22396e-16 0)
(-0.5 -1.01377e-17 0)
(-0.5 -3.75451e-17 0)
(-0.5 2.29129e-17 0)
(-0.5 8.99142e-17 0)
(-0.5 6.23263e-17 0)
(-0.5 1.83022e-18 0)
(-0.5 -8.59651e-18 0)
(-0.5 -8.84443e-17 0)
(-0.5 -1.32707e-16 0)
(-0.5 -9.24484e-17 0)
(-0.5 -4.90224e-17 0)
(-0.5 -1.38255e-17 0)
(-0.5 4.38851e-17 0)
(-0.5 7.58666e-17 0)
(-0.5 4.64916e-17 0)
(-0.5 -1.22394e-17 0)
(-0.5 -2.16952e-14 0)
(-0.5 4.62114e-15 0)
(-0.5 -1.16666e-15 0)
(-0.5 2.02694e-16 0)
(-0.5 -1.19563e-16 0)
(-0.5 -7.96626e-17 0)
(-0.5 -7.0818e-17 0)
(-0.5 -8.73269e-17 0)
(-0.5 -1.15373e-16 0)
(-0.5 -9.11862e-17 0)
(-0.5 -3.58985e-17 0)
(-0.5 -2.89638e-18 0)
(-0.5 -1.41575e-17 0)
(-0.5 -1.55525e-17 0)
(-0.5 2.59957e-17 0)
(-0.5 2.63652e-17 0)
(-0.5 3.86713e-17 0)
(-0.5 3.39228e-17 0)
(-0.5 3.23242e-17 0)
(-0.5 1.03409e-17 0)
(-0.5 1.71167e-14 0)
(-0.5 -3.26744e-15 0)
(-0.5 8.95008e-16 0)
(-0.5 -1.92078e-17 0)
(-0.5 1.44562e-16 0)
(-0.5 -2.25302e-17 0)
(-0.5 -8.54392e-17 0)
(-0.5 -1.09047e-16 0)
(-0.5 -1.12415e-16 0)
(-0.5 -9.05511e-17 0)
(-0.5 -8.01399e-17 0)
(-0.5 -4.8878e-17 0)
(-0.5 -5.2398e-18 0)
(-0.5 1.06072e-17 0)
(-0.5 4.59551e-17 0)
(-0.5 5.25417e-17 0)
(-0.5 1.93271e-17 0)
(-0.5 3.13603e-17 0)
(-0.5 6.62907e-17 0)
(-0.5 4.24778e-17 0)
(-0.5 6.46446e-15 0)
(-0.5 -1.73747e-15 0)
(-0.5 3.64869e-16 0)
(-0.5 -1.11846e-16 0)
(-0.5 1.60674e-17 0)
(-0.5 -3.02583e-17 0)
(-0.5 -4.3919e-17 0)
(-0.5 -7.26501e-18 0)
(-0.5 -3.49131e-17 0)
(-0.5 -9.75395e-17 0)
(-0.5 -1.27849e-16 0)
(-0.5 -1.12152e-16 0)
(-0.5 -5.43965e-17 0)
(-0.5 -3.01083e-17 0)
(-0.5 -1.93285e-17 0)
(-0.5 -1.19537e-18 0)
(-0.5 -1.7601e-17 0)
(-0.5 -1.42243e-17 0)
(-0.5 9.11897e-18 0)
(-0.5 1.20173e-17 0)
(-0.5 -3.26031e-14 0)
(-0.5 7.04763e-15 0)
(-0.5 -1.69336e-15 0)
(-0.5 3.19306e-16 0)
(-0.5 -1.57861e-16 0)
(-0.5 -7.92546e-17 0)
(-0.5 -1.21723e-16 0)
(-0.5 -1.13406e-16 0)
(-0.5 -1.11749e-16 0)
(-0.5 -1.27264e-16 0)
(-0.5 -1.31391e-16 0)
(-0.5 -6.67075e-17 0)
(-0.5 7.35365e-18 0)
(-0.5 7.75917e-18 0)
(-0.5 -4.99728e-17 0)
(-0.5 -9.46523e-17 0)
(-0.5 -4.25954e-17 0)
(-0.5 -4.24937e-20 0)
(-0.5 7.71293e-19 0)
(-0.5 7.58032e-18 0)
(-0.5 3.81557e-14 0)
(-0.5 -7.65348e-15 0)
(-0.5 1.8413e-15 0)
(-0.5 -3.67418e-16 0)
(-0.5 9.26445e-17 0)
(-0.5 8.03573e-18 0)
(-0.5 -3.60578e-17 0)
(-0.5 -1.00437e-16 0)
(-0.5 -6.70395e-17 0)
(-0.5 -6.9295e-17 0)
(-0.5 -1.47245e-16 0)
(-0.5 -1.47731e-16 0)
(-0.5 -1.15348e-16 0)
(-0.5 -7.57442e-17 0)
(-0.5 -4.7181e-17 0)
(-0.5 -1.91082e-17 0)
(-0.5 3.5471e-17 0)
(-0.5 7.61073e-17 0)
(-0.5 3.79743e-17 0)
(-0.5 2.22077e-17 0)
(-0.5 -2.46869e-14 0)
(-0.5 4.78239e-15 0)
(-0.5 -1.13278e-15 0)
(-0.5 1.34266e-16 0)
(-0.5 -1.12897e-16 0)
(-0.5 -3.85196e-17 0)
(-0.5 -9.72915e-17 0)
(-0.5 -1.444e-16 0)
(-0.5 -1.13306e-16 0)
(-0.5 -8.00585e-17 0)
(-0.5 -1.22575e-16 0)
(-0.5 -1.53507e-16 0)
(-0.5 -8.15355e-17 0)
(-0.5 -1.61374e-17 0)
(-0.5 -2.5231e-17 0)
(-0.5 -9.64044e-18 0)
(-0.5 -2.66196e-17 0)
(-0.5 -3.44274e-17 0)
(-0.5 2.22628e-17 0)
(-0.5 2.57758e-17 0)
(-0.5 8.83628e-15 0)
(-0.5 -1.92437e-15 0)
(-0.5 4.61578e-16 0)
(-0.5 -1.8202e-16 0)
(-0.5 -8.44265e-17 0)
(-0.5 -1.06829e-16 0)
(-0.5 -7.38183e-17 0)
(-0.5 -4.97985e-17 0)
(-0.5 -4.25856e-17 0)
(-0.5 -1.04336e-17 0)
(-0.5 3.58941e-17 0)
(-0.5 3.63346e-17 0)
(-0.5 6.47425e-17 0)
(-0.5 3.614e-17 0)
(-0.5 -5.17641e-17 0)
(-0.5 -6.59922e-17 0)
(-0.5 -4.98758e-17 0)
(-0.5 -3.44977e-17 0)
(-0.5 3.98972e-17 0)
(-0.5 4.66838e-17 0)
(-0.5 6.78954e-15 0)
(-0.5 -9.227e-16 0)
(-0.5 2.64859e-16 0)
(-0.5 -4.01852e-17 0)
(-0.5 -5.99048e-17 0)
(-0.5 -5.65916e-17 0)
(-0.5 1.42577e-17 0)
(-0.5 9.45233e-18 0)
(-0.5 -2.5703e-17 0)
(-0.5 -5.44196e-17 0)
(-0.5 -4.45912e-17 0)
(-0.5 -1.91874e-17 0)
(-0.5 -4.45378e-17 0)
(-0.5 -2.41206e-17 0)
(-0.5 -2.23471e-17 0)
(-0.5 -5.36097e-17 0)
(-0.5 -4.58152e-17 0)
(-0.5 -1.13844e-17 0)
(-0.5 -1.67687e-18 0)
(-0.5 5.2738e-18 0)
(-0.5 -1.89005e-14 0)
(-0.5 3.6365e-15 0)
(-0.5 -1.0707e-15 0)
(-0.5 9.55745e-17 0)
(-0.5 -1.21558e-16 0)
(-0.5 -4.65999e-18 0)
(-0.5 7.04869e-18 0)
(-0.5 -3.19569e-17 0)
(-0.5 -5.71628e-17 0)
(-0.5 -4.61388e-17 0)
(-0.5 -1.06328e-17 0)
(-0.5 2.62884e-17 0)
(-0.5 1.07277e-17 0)
(-0.5 -3.38521e-17 0)
(-0.5 -4.89371e-17 0)
(-0.5 -3.82795e-17 0)
(-0.5 1.74365e-18 0)
(-0.5 -3.5522e-19 0)
(-0.5 -8.07698e-17 0)
(-0.5 -5.75354e-17 0)
(-0.5 3.18363e-14 0)
(-0.5 -7.00659e-15 0)
(-0.5 1.44078e-15 0)
(-0.5 -3.95856e-16 0)
(-0.5 6.3127e-17 0)
(-0.5 -3.53088e-17 0)
(-0.5 -4.95355e-17 0)
(-0.5 -2.73061e-17 0)
(-0.5 -4.54619e-17 0)
(-0.5 -4.46807e-17 0)
(-0.5 -1.79594e-17 0)
(-0.5 -3.09344e-17 0)
(-0.5 -5.644e-17 0)
(-0.5 -7.91988e-17 0)
(-0.5 -2.96854e-17 0)
(-0.5 6.95459e-17 0)
(-0.5 3.59417e-17 0)
(-0.5 -1.63923e-17 0)
(-0.5 -6.54316e-17 0)
(-0.5 -4.1313e-17 0)
(-0.5 -2.96625e-14 0)
(-0.5 6.2777e-15 0)
(-0.5 -1.57432e-15 0)
(-0.5 2.71798e-16 0)
(-0.5 -1.02244e-16 0)
(-0.5 -3.82205e-17 0)
(-0.5 -9.35046e-17 0)
(-0.5 -5.19618e-17 0)
(-0.5 1.31816e-17 0)
(-0.5 4.8308e-17 0)
(-0.5 3.56341e-17 0)
(-0.5 -4.28426e-17 0)
(-0.5 -1.00909e-16 0)
(-0.5 -5.0881e-17 0)
(-0.5 5.17309e-17 0)
(-0.5 3.99013e-17 0)
(-0.5 -6.52338e-17 0)
(-0.5 -9.60336e-17 0)
(-0.5 -2.34981e-17 0)
(-0.5 -2.02198e-17 0)
(-0.5 2.97631e-15 0)
(-0.5 -9.54512e-16 0)
(-0.5 1.04686e-16 0)
(-0.5 -1.78494e-16 0)
(-0.5 -1.16059e-16 0)
(-0.5 -1.07895e-16 0)
(-0.5 -9.71726e-17 0)
(-0.5 -4.69154e-17 0)
(-0.5 2.28661e-17 0)
(-0.5 6.51428e-17 0)
(-0.5 5.79054e-17 0)
(-0.5 2.05912e-17 0)
(-0.5 -5.64638e-17 0)
(-0.5 -6.60488e-17 0)
(-0.5 -3.36036e-17 0)
(-0.5 -7.62561e-17 0)
(-0.5 -4.56117e-17 0)
(-0.5 -4.17738e-17 0)
(-0.5 -2.08184e-17 0)
(-0.5 -2.55881e-17 0)
(-0.5 3.72447e-14 0)
(-0.5 -7.9149e-15 0)
(-0.5 1.81063e-15 0)
(-0.5 -4.73395e-16 0)
(-0.5 -2.80579e-17 0)
(-0.5 -1.87804e-16 0)
(-0.5 -1.0384e-16 0)
(-0.5 -3.22549e-17 0)
(-0.5 -3.88112e-17 0)
(-0.5 -3.75777e-17 0)
(-0.5 -3.8654e-17 0)
(-0.5 -5.20254e-18 0)
(-0.5 1.21137e-18 0)
(-0.5 1.4213e-17 0)
(-0.5 -1.05467e-17 0)
(-0.5 -3.92859e-17 0)
(-0.5 -1.22272e-17 0)
(-0.5 7.89043e-18 0)
(-0.5 -1.89162e-17 0)
(-0.5 -2.16973e-17 0)
(-0.5 -2.5567e-14 0)
(-0.5 5.32357e-15 0)
(-0.5 -1.38126e-15 0)
(-0.5 1.66908e-16 0)
(-0.5 -1.36421e-16 0)
(-0.5 -3.96796e-17 0)
(-0.5 -3.74479e-17 0)
(-0.5 -4.38712e-17 0)
(-0.5 -6.11319e-17 0)
(-0.5 -3.00153e-17 0)
(-0.5 -1.12934e-17 0)
(-0.5 -3.64314e-18 0)
(-0.5 6.46161e-18 0)
(-0.5 -2.67983e-17 0)
(-0.5 -5.18577e-17 0)
(-0.5 -1.69561e-17 0)
(-0.5 1.92631e-17 0)
(-0.5 1.55541e-17 0)
(-0.5 -4.78282e-17 0)
(-0.5 -3.80512e-17 0)
(-0.5 -2.52044e-14 0)
(-0.5 5.1359e-15 0)
(-0.5 -1.24286e-15 0)
(-0.5 2.27371e-16 0)
(-0.5 -3.82947e-17 0)
(-0.5 3.56908e-17 0)
(-0.5 -2.09705e-17 0)
(-0.5 -3.31293e-17 0)
(-0.5 -3.69447e-17 0)
(-0.5 -2.75001e-17 0)
(-0.5 -2.79501e-17 0)
(-0.5 -3.92011e-17 0)
(-0.5 -5.13336e-17 0)
(-0.5 -9.13498e-17 0)
(-0.5 -8.73607e-17 0)
(-0.5 -2.47385e-17 0)
(-0.5 1.76762e-17 0)
(-0.5 7.87746e-18 0)
(-0.5 -3.66787e-17 0)
(-0.5 -2.61634e-17 0)
)
;

boundaryField
{
    movingWall
    {
        type            calculated;
        value           uniform (-0.5 -0 -0);
    }
    fixedWalls
    {
        type            calculated;
        value           uniform (-0.5 -0 -0);
    }
    frontAndBack
    {
        type            empty;
    }
}


// ************************************************************************* //
