/*--------------------------------*- C++ -*----------------------------------*\
| =========                 |                                                 |
| \\      /  F ield         | OpenFOAM: The Open Source CFD Toolbox           |
|  \\    /   O peration     | Version:  2312                                  |
|   \\  /    A nd           | Website:  www.openfoam.com                      |
|    \\/     M anipulation  |                                                 |
\*---------------------------------------------------------------------------*/
FoamFile
{
    version     2.0;
    format      ascii;
    arch        "LSB;label=32;scalar=64";
    class       volVectorField;
    location    "8.5";
    object      norm_U_L2;
}
// * * * * * * * * * * * * * * * * * * * * * * * * * * * * * * * * * * * * * //

dimensions      [0 0 0 0 0 0 0];

internalField   nonuniform List<vector> 
400
(
(-1 7.54766e-14 0)
(-1 -1.57351e-14 0)
(-1 3.61587e-15 0)
(-1 -7.91448e-16 0)
(-1 1.81683e-16 0)
(-1 3.20056e-17 0)
(-1 8.48571e-17 0)
(-1 -4.3914e-18 0)
(-1 1.97703e-17 0)
(-1 4.70172e-17 0)
(-1 5.66165e-17 0)
(-1 1.18395e-16 0)
(-1 1.05767e-16 0)
(-1 7.52328e-17 0)
(-1 4.55643e-17 0)
(-1 -1.37457e-17 0)
(-1 4.79427e-18 0)
(-1 -1.30821e-17 0)
(-1 -1.69028e-17 0)
(-1 -8.62162e-18 0)
(-1 2.0333e-14 0)
(-1 -4.16838e-15 0)
(-1 8.57698e-16 0)
(-1 -2.53365e-16 0)
(-1 5.57885e-17 0)
(-1 1.18282e-16 0)
(-1 1.50885e-16 0)
(-1 3.48969e-17 0)
(-1 1.86971e-17 0)
(-1 -4.98922e-18 0)
(-1 -6.09106e-17 0)
(-1 -1.16916e-17 0)
(-1 1.087e-16 0)
(-1 -1.99587e-17 0)
(-1 -4.6505e-17 0)
(-1 1.83609e-17 0)
(-1 4.39094e-17 0)
(-1 -3.51201e-17 0)
(-1 2.82381e-18 0)
(-1 2.12048e-17 0)
(-1 -5.49691e-14 0)
(-1 1.11535e-14 0)
(-1 -2.78814e-15 0)
(-1 4.35498e-16 0)
(-1 -2.53655e-16 0)
(-1 -6.20015e-17 0)
(-1 -1.09876e-16 0)
(-1 -1.02444e-16 0)
(-1 -8.91634e-17 0)
(-1 -7.46196e-17 0)
(-1 -1.68913e-17 0)
(-1 6.81509e-17 0)
(-1 1.51884e-16 0)
(-1 -2.20946e-17 0)
(-1 -1.38888e-16 0)
(-1 -5.61485e-17 0)
(-1 -6.37966e-17 0)
(-1 -7.63193e-17 0)
(-1 -3.76999e-17 0)
(-1 1.48443e-17 0)
(-1 -3.13768e-16 0)
(-1 -3.99101e-16 0)
(-1 -5.36574e-17 0)
(-1 -1.15012e-16 0)
(-1 -1.22523e-16 0)
(-1 -1.76723e-16 0)
(-1 -2.07622e-16 0)
(-1 -1.24454e-16 0)
(-1 -9.65994e-17 0)
(-1 -7.84741e-17 0)
(-1 1.80398e-17 0)
(-1 -6.67417e-18 0)
(-1 -5.69737e-17 0)
(-1 -5.07139e-18 0)
(-1 -1.02561e-16 0)
(-1 -1.27407e-16 0)
(-1 -8.48126e-17 0)
(-1 2.05541e-17 0)
(-1 2.33679e-17 0)
(-1 -1.86466e-17 0)
(-1 3.68805e-14 0)
(-1 -8.77986e-15 0)
(-1 1.74416e-15 0)
(-1 -6.44793e-16 0)
(-1 -2.02754e-17 0)
(-1 -7.50902e-17 0)
(-1 4.58257e-17 0)
(-1 1.79828e-16 0)
(-1 1.24653e-16 0)
(-1 3.66044e-18 0)
(-1 -1.7193e-17 0)
(-1 -1.76889e-16 0)
(-1 -2.65415e-16 0)
(-1 -1.84897e-16 0)
(-1 -9.80448e-17 0)
(-1 -2.76511e-17 0)
(-1 8.77701e-17 0)
(-1 1.51733e-16 0)
(-1 9.29831e-17 0)
(-1 -2.44789e-17 0)
(-1 -4.33904e-14 0)
(-1 9.24228e-15 0)
(-1 -2.33332e-15 0)
(-1 4.05388e-16 0)
(-1 -2.39126e-16 0)
(-1 -1.59325e-16 0)
(-1 -1.41636e-16 0)
(-1 -1.74654e-16 0)
(-1 -2.30747e-16 0)
(-1 -1.82372e-16 0)
(-1 -7.1797e-17 0)
(-1 -5.79275e-18 0)
(-1 -2.83149e-17 0)
(-1 -3.1105e-17 0)
(-1 5.19914e-17 0)
(-1 5.27304e-17 0)
(-1 7.73425e-17 0)
(-1 6.78456e-17 0)
(-1 6.46485e-17 0)
(-1 2.06819e-17 0)
(-1 3.42334e-14 0)
(-1 -6.53488e-15 0)
(-1 1.79002e-15 0)
(-1 -3.84157e-17 0)
(-1 2.89124e-16 0)
(-1 -4.50604e-17 0)
(-1 -1.70878e-16 0)
(-1 -2.18093e-16 0)
(-1 -2.24831e-16 0)
(-1 -1.81102e-16 0)
(-1 -1.6028e-16 0)
(-1 -9.7756e-17 0)
(-1 -1.04796e-17 0)
(-1 2.12145e-17 0)
(-1 9.19101e-17 0)
(-1 1.05083e-16 0)
(-1 3.86543e-17 0)
(-1 6.27206e-17 0)
(-1 1.32581e-16 0)
(-1 8.49557e-17 0)
(-1 1.29289e-14 0)
(-1 -3.47494e-15 0)
(-1 7.29738e-16 0)
(-1 -2.23692e-16 0)
(-1 3.21348e-17 0)
(-1 -6.05166e-17 0)
(-1 -8.7838e-17 0)
(-1 -1.453e-17 0)
(-1 -6.98262e-17 0)
(-1 -1.95079e-16 0)
(-1 -2.55699e-16 0)
(-1 -2.24304e-16 0)
(-1 -1.08793e-16 0)
(-1 -6.02166e-17 0)
(-1 -3.86569e-17 0)
(-1 -2.39073e-18 0)
(-1 -3.5202e-17 0)
(-1 -2.84486e-17 0)
(-1 1.82379e-17 0)
(-1 2.40345e-17 0)
(-1 -6.52062e-14 0)
(-1 1.40953e-14 0)
(-1 -3.38672e-15 0)
(-1 6.38612e-16 0)
(-1 -3.15721e-16 0)
(-1 -1.58509e-16 0)
(-1 -2.43445e-16 0)
(-1 -2.26811e-16 0)
(-1 -2.23498e-16 0)
(-1 -2.54527e-16 0)
(-1 -2.62783e-16 0)
(-1 -1.33415e-16 0)
(-1 1.47073e-17 0)
(-1 1.55183e-17 0)
(-1 -9.99456e-17 0)
(-1 -1.89305e-16 0)
(-1 -8.51908e-17 0)
(-1 -8.49875e-20 0)
(-1 1.54259e-18 0)
(-1 1.51606e-17 0)
(-1 7.63114e-14 0)
(-1 -1.5307e-14 0)
(-1 3.6826e-15 0)
(-1 -7.34836e-16 0)
(-1 1.85289e-16 0)
(-1 1.60715e-17 0)
(-1 -7.21156e-17 0)
(-1 -2.00873e-16 0)
(-1 -1.34079e-16 0)
(-1 -1.3859e-16 0)
(-1 -2.9449e-16 0)
(-1 -2.95462e-16 0)
(-1 -2.30697e-16 0)
(-1 -1.51488e-16 0)
(-1 -9.43619e-17 0)
(-1 -3.82163e-17 0)
(-1 7.0942e-17 0)
(-1 1.52215e-16 0)
(-1 7.59485e-17 0)
(-1 4.44153e-17 0)
(-1 -4.93739e-14 0)
(-1 9.56477e-15 0)
(-1 -2.26556e-15 0)
(-1 2.68531e-16 0)
(-1 -2.25794e-16 0)
(-1 -7.70393e-17 0)
(-1 -1.94583e-16 0)
(-1 -2.88801e-16 0)
(-1 -2.26613e-16 0)
(-1 -1.60117e-16 0)
(-1 -2.4515e-16 0)
(-1 -3.07014e-16 0)
(-1 -1.63071e-16 0)
(-1 -3.22747e-17 0)
(-1 -5.04619e-17 0)
(-1 -1.92809e-17 0)
(-1 -5.32392e-17 0)
(-1 -6.88549e-17 0)
(-1 4.45257e-17 0)
(-1 5.15515e-17 0)
(-1 1.76726e-14 0)
(-1 -3.84873e-15 0)
(-1 9.23155e-16 0)
(-1 -3.6404e-16 0)
(-1 -1.68853e-16 0)
(-1 -2.13659e-16 0)
(-1 -1.47637e-16 0)
(-1 -9.9597e-17 0)
(-1 -8.51713e-17 0)
(-1 -2.08673e-17 0)
(-1 7.17881e-17 0)
(-1 7.26693e-17 0)
(-1 1.29485e-16 0)
(-1 7.228e-17 0)
(-1 -1.03528e-16 0)
(-1 -1.31984e-16 0)
(-1 -9.97517e-17 0)
(-1 -6.89953e-17 0)
(-1 7.97943e-17 0)
(-1 9.33677e-17 0)
(-1 1.35791e-14 0)
(-1 -1.8454e-15 0)
(-1 5.29719e-16 0)
(-1 -8.03705e-17 0)
(-1 -1.1981e-16 0)
(-1 -1.13183e-16 0)
(-1 2.85153e-17 0)
(-1 1.89047e-17 0)
(-1 -5.1406e-17 0)
(-1 -1.08839e-16 0)
(-1 -8.91824e-17 0)
(-1 -3.83748e-17 0)
(-1 -8.90755e-17 0)
(-1 -4.82413e-17 0)
(-1 -4.46941e-17 0)
(-1 -1.07219e-16 0)
(-1 -9.16304e-17 0)
(-1 -2.27687e-17 0)
(-1 -3.35373e-18 0)
(-1 1.05476e-17 0)
(-1 -3.78011e-14 0)
(-1 7.273e-15 0)
(-1 -2.1414e-15 0)
(-1 1.91149e-16 0)
(-1 -2.43116e-16 0)
(-1 -9.31999e-18 0)
(-1 1.40974e-17 0)
(-1 -6.39138e-17 0)
(-1 -1.14326e-16 0)
(-1 -9.22776e-17 0)
(-1 -2.12655e-17 0)
(-1 5.25767e-17 0)
(-1 2.14554e-17 0)
(-1 -6.77042e-17 0)
(-1 -9.78742e-17 0)
(-1 -7.6559e-17 0)
(-1 3.48729e-18 0)
(-1 -7.1044e-19 0)
(-1 -1.6154e-16 0)
(-1 -1.15071e-16 0)
(-1 6.36727e-14 0)
(-1 -1.40132e-14 0)
(-1 2.88156e-15 0)
(-1 -7.91712e-16 0)
(-1 1.26254e-16 0)
(-1 -7.06176e-17 0)
(-1 -9.90709e-17 0)
(-1 -5.46122e-17 0)
(-1 -9.09237e-17 0)
(-1 -8.93613e-17 0)
(-1 -3.59189e-17 0)
(-1 -6.18687e-17 0)
(-1 -1.1288e-16 0)
(-1 -1.58398e-16 0)
(-1 -5.93707e-17 0)
(-1 1.39092e-16 0)
(-1 7.18835e-17 0)
(-1 -3.27845e-17 0)
(-1 -1.30863e-16 0)
(-1 -8.2626e-17 0)
(-1 -5.9325e-14 0)
(-1 1.25554e-14 0)
(-1 -3.14864e-15 0)
(-1 5.43596e-16 0)
(-1 -2.04489e-16 0)
(-1 -7.6441e-17 0)
(-1 -1.87009e-16 0)
(-1 -1.03924e-16 0)
(-1 2.63631e-17 0)
(-1 9.66159e-17 0)
(-1 7.12681e-17 0)
(-1 -8.56852e-17 0)
(-1 -2.01819e-16 0)
(-1 -1.01762e-16 0)
(-1 1.03462e-16 0)
(-1 7.98027e-17 0)
(-1 -1.30468e-16 0)
(-1 -1.92067e-16 0)
(-1 -4.69961e-17 0)
(-1 -4.04395e-17 0)
(-1 5.95261e-15 0)
(-1 -1.90902e-15 0)
(-1 2.09372e-16 0)
(-1 -3.56989e-16 0)
(-1 -2.32118e-16 0)
(-1 -2.15791e-16 0)
(-1 -1.94345e-16 0)
(-1 -9.38308e-17 0)
(-1 4.57322e-17 0)
(-1 1.30286e-16 0)
(-1 1.15811e-16 0)
(-1 4.11824e-17 0)
(-1 -1.12928e-16 0)
(-1 -1.32098e-16 0)
(-1 -6.72072e-17 0)
(-1 -1.52512e-16 0)
(-1 -9.12234e-17 0)
(-1 -8.35476e-17 0)
(-1 -4.16368e-17 0)
(-1 -5.11762e-17 0)
(-1 7.44894e-14 0)
(-1 -1.58298e-14 0)
(-1 3.62127e-15 0)
(-1 -9.46789e-16 0)
(-1 -5.61159e-17 0)
(-1 -3.75607e-16 0)
(-1 -2.0768e-16 0)
(-1 -6.45098e-17 0)
(-1 -7.76224e-17 0)
(-1 -7.51554e-17 0)
(-1 -7.73079e-17 0)
(-1 -1.04051e-17 0)
(-1 2.42274e-18 0)
(-1 2.8426e-17 0)
(-1 -2.10934e-17 0)
(-1 -7.85718e-17 0)
(-1 -2.44545e-17 0)
(-1 1.57809e-17 0)
(-1 -3.78323e-17 0)
(-1 -4.33946e-17 0)
(-1 -5.1134e-14 0)
(-1 1.06471e-14 0)
(-1 -2.76253e-15 0)
(-1 3.33816e-16 0)
(-1 -2.72841e-16 0)
(-1 -7.93593e-17 0)
(-1 -7.48959e-17 0)
(-1 -8.77423e-17 0)
(-1 -1.22264e-16 0)
(-1 -6.00305e-17 0)
(-1 -2.25869e-17 0)
(-1 -7.28629e-18 0)
(-1 1.29232e-17 0)
(-1 -5.35965e-17 0)
(-1 -1.03715e-16 0)
(-1 -3.39122e-17 0)
(-1 3.85263e-17 0)
(-1 3.11083e-17 0)
(-1 -9.56564e-17 0)
(-1 -7.61024e-17 0)
(-1 -5.04089e-14 0)
(-1 1.02718e-14 0)
(-1 -2.48572e-15 0)
(-1 4.54741e-16 0)
(-1 -7.65894e-17 0)
(-1 7.13816e-17 0)
(-1 -4.1941e-17 0)
(-1 -6.62586e-17 0)
(-1 -7.38894e-17 0)
(-1 -5.50002e-17 0)
(-1 -5.59001e-17 0)
(-1 -7.84022e-17 0)
(-1 -1.02667e-16 0)
(-1 -1.827e-16 0)
(-1 -1.74721e-16 0)
(-1 -4.94771e-17 0)
(-1 3.53523e-17 0)
(-1 1.57549e-17 0)
(-1 -7.33574e-17 0)
(-1 -5.23269e-17 0)
)
;

boundaryField
{
    movingWall
    {
        type            calculated;
        value           uniform (-1 -0 -0);
    }
    fixedWalls
    {
        type            calculated;
        value           uniform (-1 -0 -0);
    }
    frontAndBack
    {
        type            empty;
    }
}


// ************************************************************************* //
