/*--------------------------------*- C++ -*----------------------------------*\
| =========                 |                                                 |
| \\      /  F ield         | OpenFOAM: The Open Source CFD Toolbox           |
|  \\    /   O peration     | Version:  2312                                  |
|   \\  /    A nd           | Website:  www.openfoam.com                      |
|    \\/     M anipulation  |                                                 |
\*---------------------------------------------------------------------------*/
FoamFile
{
    version     2.0;
    format      ascii;
    arch        "LSB;label=32;scalar=64";
    class       volVectorField;
    location    "8.5";
    object      norm_U_L1;
}
// * * * * * * * * * * * * * * * * * * * * * * * * * * * * * * * * * * * * * //

dimensions      [0 0 0 0 0 0 0];

internalField   nonuniform List<vector> 
400
(
(-0.0025 1.88691e-16 0)
(-0.0025 -3.93377e-17 0)
(-0.0025 9.03967e-18 0)
(-0.0025 -1.97862e-18 0)
(-0.0025 4.54208e-19 0)
(-0.0025 8.0014e-20 0)
(-0.0025 2.12143e-19 0)
(-0.0025 -1.09785e-20 0)
(-0.0025 4.94258e-20 0)
(-0.0025 1.17543e-19 0)
(-0.0025 1.41541e-19 0)
(-0.0025 2.95987e-19 0)
(-0.0025 2.64416e-19 0)
(-0.0025 1.88082e-19 0)
(-0.0025 1.13911e-19 0)
(-0.0025 -3.43643e-20 0)
(-0.0025 1.19857e-20 0)
(-0.0025 -3.27052e-20 0)
(-0.0025 -4.22571e-20 0)
(-0.0025 -2.1554e-20 0)
(-0.0025 5.08326e-17 0)
(-0.0025 -1.0421e-17 0)
(-0.0025 2.14424e-18 0)
(-0.0025 -6.33413e-19 0)
(-0.0025 1.39471e-19 0)
(-0.0025 2.95706e-19 0)
(-0.0025 3.77214e-19 0)
(-0.0025 8.72422e-20 0)
(-0.0025 4.67427e-20 0)
(-0.0025 -1.2473e-20 0)
(-0.0025 -1.52277e-19 0)
(-0.0025 -2.92289e-20 0)
(-0.0025 2.71751e-19 0)
(-0.0025 -4.98967e-20 0)
(-0.0025 -1.16263e-19 0)
(-0.0025 4.59023e-20 0)
(-0.0025 1.09774e-19 0)
(-0.0025 -8.78003e-20 0)
(-0.0025 7.05953e-21 0)
(-0.0025 5.30121e-20 0)
(-0.0025 -1.37423e-16 0)
(-0.0025 2.78839e-17 0)
(-0.0025 -6.97036e-18 0)
(-0.0025 1.08874e-18 0)
(-0.0025 -6.34137e-19 0)
(-0.0025 -1.55004e-19 0)
(-0.0025 -2.7469e-19 0)
(-0.0025 -2.56111e-19 0)
(-0.0025 -2.22908e-19 0)
(-0.0025 -1.86549e-19 0)
(-0.0025 -4.22283e-20 0)
(-0.0025 1.70377e-19 0)
(-0.0025 3.7971e-19 0)
(-0.0025 -5.52366e-20 0)
(-0.0025 -3.47219e-19 0)
(-0.0025 -1.40371e-19 0)
(-0.0025 -1.59492e-19 0)
(-0.0025 -1.90798e-19 0)
(-0.0025 -9.42498e-20 0)
(-0.0025 3.71107e-20 0)
(-0.0025 -7.84421e-19 0)
(-0.0025 -9.97752e-19 0)
(-0.0025 -1.34143e-19 0)
(-0.0025 -2.8753e-19 0)
(-0.0025 -3.06308e-19 0)
(-0.0025 -4.41806e-19 0)
(-0.0025 -5.19056e-19 0)
(-0.0025 -3.11134e-19 0)
(-0.0025 -2.41499e-19 0)
(-0.0025 -1.96185e-19 0)
(-0.0025 4.50994e-20 0)
(-0.0025 -1.66854e-20 0)
(-0.0025 -1.42434e-19 0)
(-0.0025 -1.26785e-20 0)
(-0.0025 -2.56402e-19 0)
(-0.0025 -3.18517e-19 0)
(-0.0025 -2.12032e-19 0)
(-0.0025 5.13851e-20 0)
(-0.0025 5.84198e-20 0)
(-0.0025 -4.66165e-20 0)
(-0.0025 9.22011e-17 0)
(-0.0025 -2.19496e-17 0)
(-0.0025 4.36041e-18 0)
(-0.0025 -1.61198e-18 0)
(-0.0025 -5.06885e-20 0)
(-0.0025 -1.87725e-19 0)
(-0.0025 1.14564e-19 0)
(-0.0025 4.49571e-19 0)
(-0.0025 3.11631e-19 0)
(-0.0025 9.15109e-21 0)
(-0.0025 -4.29826e-20 0)
(-0.0025 -4.42222e-19 0)
(-0.0025 -6.63537e-19 0)
(-0.0025 -4.62242e-19 0)
(-0.0025 -2.45112e-19 0)
(-0.0025 -6.91277e-20 0)
(-0.0025 2.19425e-19 0)
(-0.0025 3.79333e-19 0)
(-0.0025 2.32458e-19 0)
(-0.0025 -6.11972e-20 0)
(-0.0025 -1.08476e-16 0)
(-0.0025 2.31057e-17 0)
(-0.0025 -5.8333e-18 0)
(-0.0025 1.01347e-18 0)
(-0.0025 -5.97814e-19 0)
(-0.0025 -3.98313e-19 0)
(-0.0025 -3.5409e-19 0)
(-0.0025 -4.36635e-19 0)
(-0.0025 -5.76867e-19 0)
(-0.0025 -4.55931e-19 0)
(-0.0025 -1.79492e-19 0)
(-0.0025 -1.44819e-20 0)
(-0.0025 -7.07873e-20 0)
(-0.0025 -7.77625e-20 0)
(-0.0025 1.29979e-19 0)
(-0.0025 1.31826e-19 0)
(-0.0025 1.93356e-19 0)
(-0.0025 1.69614e-19 0)
(-0.0025 1.61621e-19 0)
(-0.0025 5.17047e-20 0)
(-0.0025 8.55836e-17 0)
(-0.0025 -1.63372e-17 0)
(-0.0025 4.47504e-18 0)
(-0.0025 -9.60392e-20 0)
(-0.0025 7.22809e-19 0)
(-0.0025 -1.12651e-19 0)
(-0.0025 -4.27196e-19 0)
(-0.0025 -5.45234e-19 0)
(-0.0025 -5.62077e-19 0)
(-0.0025 -4.52755e-19 0)
(-0.0025 -4.007e-19 0)
(-0.0025 -2.4439e-19 0)
(-0.0025 -2.6199e-20 0)
(-0.0025 5.30361e-20 0)
(-0.0025 2.29775e-19 0)
(-0.0025 2.62709e-19 0)
(-0.0025 9.66357e-20 0)
(-0.0025 1.56801e-19 0)
(-0.0025 3.31454e-19 0)
(-0.0025 2.12389e-19 0)
(-0.0025 3.23223e-17 0)
(-0.0025 -8.68735e-18 0)
(-0.0025 1.82435e-18 0)
(-0.0025 -5.59229e-19 0)
(-0.0025 8.0337e-20 0)
(-0.0025 -1.51291e-19 0)
(-0.0025 -2.19595e-19 0)
(-0.0025 -3.63251e-20 0)
(-0.0025 -1.74565e-19 0)
(-0.0025 -4.87698e-19 0)
(-0.0025 -6.39247e-19 0)
(-0.0025 -5.6076e-19 0)
(-0.0025 -2.71982e-19 0)
(-0.0025 -1.50542e-19 0)
(-0.0025 -9.66423e-20 0)
(-0.0025 -5.97683e-21 0)
(-0.0025 -8.80051e-20 0)
(-0.0025 -7.11214e-20 0)
(-0.0025 4.55949e-20 0)
(-0.0025 6.00863e-20 0)
(-0.0025 -1.63016e-16 0)
(-0.0025 3.52381e-17 0)
(-0.0025 -8.46681e-18 0)
(-0.0025 1.59653e-18 0)
(-0.0025 -7.89303e-19 0)
(-0.0025 -3.96273e-19 0)
(-0.0025 -6.08613e-19 0)
(-0.0025 -5.67028e-19 0)
(-0.0025 -5.58744e-19 0)
(-0.0025 -6.36318e-19 0)
(-0.0025 -6.56957e-19 0)
(-0.0025 -3.33537e-19 0)
(-0.0025 3.67683e-20 0)
(-0.0025 3.87958e-20 0)
(-0.0025 -2.49864e-19 0)
(-0.0025 -4.73262e-19 0)
(-0.0025 -2.12977e-19 0)
(-0.0025 -2.12469e-22 0)
(-0.0025 3.85647e-21 0)
(-0.0025 3.79016e-20 0)
(-0.0025 1.90779e-16 0)
(-0.0025 -3.82674e-17 0)
(-0.0025 9.20651e-18 0)
(-0.0025 -1.83709e-18 0)
(-0.0025 4.63222e-19 0)
(-0.0025 4.01787e-20 0)
(-0.0025 -1.80289e-19 0)
(-0.0025 -5.02183e-19 0)
(-0.0025 -3.35198e-19 0)
(-0.0025 -3.46475e-19 0)
(-0.0025 -7.36225e-19 0)
(-0.0025 -7.38654e-19 0)
(-0.0025 -5.76742e-19 0)
(-0.0025 -3.78721e-19 0)
(-0.0025 -2.35905e-19 0)
(-0.0025 -9.55408e-20 0)
(-0.0025 1.77355e-19 0)
(-0.0025 3.80537e-19 0)
(-0.0025 1.89871e-19 0)
(-0.0025 1.11038e-19 0)
(-0.0025 -1.23435e-16 0)
(-0.0025 2.39119e-17 0)
(-0.0025 -5.66389e-18 0)
(-0.0025 6.71328e-19 0)
(-0.0025 -5.64486e-19 0)
(-0.0025 -1.92598e-19 0)
(-0.0025 -4.86457e-19 0)
(-0.0025 -7.22002e-19 0)
(-0.0025 -5.66532e-19 0)
(-0.0025 -4.00292e-19 0)
(-0.0025 -6.12874e-19 0)
(-0.0025 -7.67534e-19 0)
(-0.0025 -4.07678e-19 0)
(-0.0025 -8.06868e-20 0)
(-0.0025 -1.26155e-19 0)
(-0.0025 -4.82022e-20 0)
(-0.0025 -1.33098e-19 0)
(-0.0025 -1.72137e-19 0)
(-0.0025 1.11314e-19 0)
(-0.0025 1.28879e-19 0)
(-0.0025 4.41814e-17 0)
(-0.0025 -9.62183e-18 0)
(-0.0025 2.30789e-18 0)
(-0.0025 -9.10099e-19 0)
(-0.0025 -4.22132e-19 0)
(-0.0025 -5.34147e-19 0)
(-0.0025 -3.69092e-19 0)
(-0.0025 -2.48992e-19 0)
(-0.0025 -2.12928e-19 0)
(-0.0025 -5.21682e-20 0)
(-0.0025 1.7947e-19 0)
(-0.0025 1.81673e-19 0)
(-0.0025 3.23713e-19 0)
(-0.0025 1.807e-19 0)
(-0.0025 -2.58821e-19 0)
(-0.0025 -3.29961e-19 0)
(-0.0025 -2.49379e-19 0)
(-0.0025 -1.72488e-19 0)
(-0.0025 1.99486e-19 0)
(-0.0025 2.33419e-19 0)
(-0.0025 3.39477e-17 0)
(-0.0025 -4.6135e-18 0)
(-0.0025 1.3243e-18 0)
(-0.0025 -2.00926e-19 0)
(-0.0025 -2.99524e-19 0)
(-0.0025 -2.82958e-19 0)
(-0.0025 7.12883e-20 0)
(-0.0025 4.72617e-20 0)
(-0.0025 -1.28515e-19 0)
(-0.0025 -2.72098e-19 0)
(-0.0025 -2.22956e-19 0)
(-0.0025 -9.59371e-20 0)
(-0.0025 -2.22689e-19 0)
(-0.0025 -1.20603e-19 0)
(-0.0025 -1.11735e-19 0)
(-0.0025 -2.68048e-19 0)
(-0.0025 -2.29076e-19 0)
(-0.0025 -5.69219e-20 0)
(-0.0025 -8.38433e-21 0)
(-0.0025 2.6369e-20 0)
(-0.0025 -9.45027e-17 0)
(-0.0025 1.81825e-17 0)
(-0.0025 -5.35351e-18 0)
(-0.0025 4.77872e-19 0)
(-0.0025 -6.07791e-19 0)
(-0.0025 -2.33e-20 0)
(-0.0025 3.52434e-20 0)
(-0.0025 -1.59784e-19 0)
(-0.0025 -2.85814e-19 0)
(-0.0025 -2.30694e-19 0)
(-0.0025 -5.31638e-20 0)
(-0.0025 1.31442e-19 0)
(-0.0025 5.36385e-20 0)
(-0.0025 -1.69261e-19 0)
(-0.0025 -2.44685e-19 0)
(-0.0025 -1.91398e-19 0)
(-0.0025 8.71823e-21 0)
(-0.0025 -1.7761e-21 0)
(-0.0025 -4.03849e-19 0)
(-0.0025 -2.87677e-19 0)
(-0.0025 1.59182e-16 0)
(-0.0025 -3.50329e-17 0)
(-0.0025 7.20391e-18 0)
(-0.0025 -1.97928e-18 0)
(-0.0025 3.15635e-19 0)
(-0.0025 -1.76544e-19 0)
(-0.0025 -2.47677e-19 0)
(-0.0025 -1.36531e-19 0)
(-0.0025 -2.27309e-19 0)
(-0.0025 -2.23403e-19 0)
(-0.0025 -8.97972e-20 0)
(-0.0025 -1.54672e-19 0)
(-0.0025 -2.822e-19 0)
(-0.0025 -3.95994e-19 0)
(-0.0025 -1.48427e-19 0)
(-0.0025 3.47729e-19 0)
(-0.0025 1.79709e-19 0)
(-0.0025 -8.19613e-20 0)
(-0.0025 -3.27158e-19 0)
(-0.0025 -2.06565e-19 0)
(-0.0025 -1.48312e-16 0)
(-0.0025 3.13885e-17 0)
(-0.0025 -7.87161e-18 0)
(-0.0025 1.35899e-18 0)
(-0.0025 -5.11222e-19 0)
(-0.0025 -1.91102e-19 0)
(-0.0025 -4.67523e-19 0)
(-0.0025 -2.59809e-19 0)
(-0.0025 6.59078e-20 0)
(-0.0025 2.4154e-19 0)
(-0.0025 1.7817e-19 0)
(-0.0025 -2.14213e-19 0)
(-0.0025 -5.04547e-19 0)
(-0.0025 -2.54405e-19 0)
(-0.0025 2.58654e-19 0)
(-0.0025 1.99507e-19 0)
(-0.0025 -3.26169e-19 0)
(-0.0025 -4.80168e-19 0)
(-0.0025 -1.1749e-19 0)
(-0.0025 -1.01099e-19 0)
(-0.0025 1.48815e-17 0)
(-0.0025 -4.77256e-18 0)
(-0.0025 5.2343e-19 0)
(-0.0025 -8.92472e-19 0)
(-0.0025 -5.80296e-19 0)
(-0.0025 -5.39476e-19 0)
(-0.0025 -4.85863e-19 0)
(-0.0025 -2.34577e-19 0)
(-0.0025 1.1433e-19 0)
(-0.0025 3.25714e-19 0)
(-0.0025 2.89527e-19 0)
(-0.0025 1.02956e-19 0)
(-0.0025 -2.82319e-19 0)
(-0.0025 -3.30244e-19 0)
(-0.0025 -1.68018e-19 0)
(-0.0025 -3.8128e-19 0)
(-0.0025 -2.28059e-19 0)
(-0.0025 -2.08869e-19 0)
(-0.0025 -1.04092e-19 0)
(-0.0025 -1.27941e-19 0)
(-0.0025 1.86224e-16 0)
(-0.0025 -3.95745e-17 0)
(-0.0025 9.05316e-18 0)
(-0.0025 -2.36697e-18 0)
(-0.0025 -1.4029e-19 0)
(-0.0025 -9.39019e-19 0)
(-0.0025 -5.192e-19 0)
(-0.0025 -1.61275e-19 0)
(-0.0025 -1.94056e-19 0)
(-0.0025 -1.87889e-19 0)
(-0.0025 -1.9327e-19 0)
(-0.0025 -2.60127e-20 0)
(-0.0025 6.05686e-21 0)
(-0.0025 7.1065e-20 0)
(-0.0025 -5.27334e-20 0)
(-0.0025 -1.96429e-19 0)
(-0.0025 -6.11362e-20 0)
(-0.0025 3.94522e-20 0)
(-0.0025 -9.45809e-20 0)
(-0.0025 -1.08487e-19 0)
(-0.0025 -1.27835e-16 0)
(-0.0025 2.66179e-17 0)
(-0.0025 -6.90632e-18 0)
(-0.0025 8.34541e-19 0)
(-0.0025 -6.82104e-19 0)
(-0.0025 -1.98398e-19 0)
(-0.0025 -1.8724e-19 0)
(-0.0025 -2.19356e-19 0)
(-0.0025 -3.0566e-19 0)
(-0.0025 -1.50076e-19 0)
(-0.0025 -5.64672e-20 0)
(-0.0025 -1.82157e-20 0)
(-0.0025 3.2308e-20 0)
(-0.0025 -1.33991e-19 0)
(-0.0025 -2.59288e-19 0)
(-0.0025 -8.47804e-20 0)
(-0.0025 9.63157e-20 0)
(-0.0025 7.77707e-20 0)
(-0.0025 -2.39141e-19 0)
(-0.0025 -1.90256e-19 0)
(-0.0025 -1.26022e-16 0)
(-0.0025 2.56795e-17 0)
(-0.0025 -6.2143e-18 0)
(-0.0025 1.13685e-18 0)
(-0.0025 -1.91473e-19 0)
(-0.0025 1.78454e-19 0)
(-0.0025 -1.04852e-19 0)
(-0.0025 -1.65647e-19 0)
(-0.0025 -1.84724e-19 0)
(-0.0025 -1.37501e-19 0)
(-0.0025 -1.3975e-19 0)
(-0.0025 -1.96006e-19 0)
(-0.0025 -2.56668e-19 0)
(-0.0025 -4.56749e-19 0)
(-0.0025 -4.36804e-19 0)
(-0.0025 -1.23693e-19 0)
(-0.0025 8.83808e-20 0)
(-0.0025 3.93873e-20 0)
(-0.0025 -1.83393e-19 0)
(-0.0025 -1.30817e-19 0)
)
;

boundaryField
{
    movingWall
    {
        type            calculated;
        value           uniform (-0.0025 -0 -0);
    }
    fixedWalls
    {
        type            calculated;
        value           uniform (-0.0025 -0 -0);
    }
    frontAndBack
    {
        type            empty;
    }
}


// ************************************************************************* //
