/*--------------------------------*- C++ -*----------------------------------*\
| =========                 |                                                 |
| \\      /  F ield         | OpenFOAM: The Open Source CFD Toolbox           |
|  \\    /   O peration     | Version:  2312                                  |
|   \\  /    A nd           | Website:  www.openfoam.com                      |
|    \\/     M anipulation  |                                                 |
\*---------------------------------------------------------------------------*/
FoamFile
{
    version     2.0;
    format      ascii;
    arch        "LSB;label=32;scalar=64";
    class       volScalarField;
    location    "8.5";
    object      nut;
}
// * * * * * * * * * * * * * * * * * * * * * * * * * * * * * * * * * * * * * //

dimensions      [0 2 -1 0 0 0 0];

internalField   nonuniform List<scalar> 
400
(
1.05243e-06
1.05243e-06
1.05243e-06
1.05243e-06
1.05243e-06
1.05243e-06
1.05243e-06
1.05243e-06
1.05243e-06
1.05243e-06
1.05243e-06
1.05243e-06
1.05243e-06
1.05243e-06
1.05243e-06
1.05243e-06
1.05243e-06
1.05243e-06
1.05243e-06
1.05243e-06
1.0617e-06
1.0738e-06
1.0727e-06
1.07225e-06
1.07135e-06
1.07089e-06
1.07e-06
1.06953e-06
1.06865e-06
1.06818e-06
1.0673e-06
1.06682e-06
1.06594e-06
1.06545e-06
1.06459e-06
1.06409e-06
1.06323e-06
1.06272e-06
1.06229e-06
1.06161e-06
1.0762e-06
1.08886e-06
1.08769e-06
1.08721e-06
1.08626e-06
1.08578e-06
1.08483e-06
1.08435e-06
1.08341e-06
1.08293e-06
1.08199e-06
1.08151e-06
1.08058e-06
1.08009e-06
1.07917e-06
1.07867e-06
1.07777e-06
1.07726e-06
1.07681e-06
1.07612e-06
1.09129e-06
1.1043e-06
1.1031e-06
1.10261e-06
1.10162e-06
1.10114e-06
1.10016e-06
1.09967e-06
1.09869e-06
1.0982e-06
1.09724e-06
1.09674e-06
1.09578e-06
1.09528e-06
1.09434e-06
1.09383e-06
1.0929e-06
1.09237e-06
1.09192e-06
1.0912e-06
1.10388e-06
1.1172e-06
1.11597e-06
1.11547e-06
1.11446e-06
1.11396e-06
1.11296e-06
1.11245e-06
1.11146e-06
1.11095e-06
1.10997e-06
1.10945e-06
1.10849e-06
1.10796e-06
1.10701e-06
1.10647e-06
1.10553e-06
1.10499e-06
1.10452e-06
1.10378e-06
1.11302e-06
1.12658e-06
1.12532e-06
1.12481e-06
1.12379e-06
1.12328e-06
1.12225e-06
1.12175e-06
1.12073e-06
1.12022e-06
1.11921e-06
1.1187e-06
1.1177e-06
1.11718e-06
1.1162e-06
1.11566e-06
1.1147e-06
1.11415e-06
1.11367e-06
1.11292e-06
1.1191e-06
1.13281e-06
1.13154e-06
1.13102e-06
1.12999e-06
1.12947e-06
1.12844e-06
1.12792e-06
1.1269e-06
1.12638e-06
1.12537e-06
1.12484e-06
1.12384e-06
1.1233e-06
1.12232e-06
1.12177e-06
1.1208e-06
1.12024e-06
1.11976e-06
1.119e-06
1.12298e-06
1.13679e-06
1.13551e-06
1.13499e-06
1.13395e-06
1.13342e-06
1.13239e-06
1.13187e-06
1.13084e-06
1.13031e-06
1.12929e-06
1.12876e-06
1.12775e-06
1.12721e-06
1.12621e-06
1.12567e-06
1.12469e-06
1.12412e-06
1.12364e-06
1.12288e-06
1.12548e-06
1.13935e-06
1.13807e-06
1.13754e-06
1.1365e-06
1.13597e-06
1.13494e-06
1.1344e-06
1.13338e-06
1.13285e-06
1.13182e-06
1.13129e-06
1.13027e-06
1.12973e-06
1.12873e-06
1.12818e-06
1.1272e-06
1.12663e-06
1.12614e-06
1.12538e-06
1.12721e-06
1.14113e-06
1.13984e-06
1.13931e-06
1.13827e-06
1.13774e-06
1.13669e-06
1.13617e-06
1.13513e-06
1.1346e-06
1.13357e-06
1.13304e-06
1.13202e-06
1.13148e-06
1.13047e-06
1.12992e-06
1.12893e-06
1.12836e-06
1.12788e-06
1.12711e-06
1.12856e-06
1.14252e-06
1.14122e-06
1.1407e-06
1.13965e-06
1.13912e-06
1.13807e-06
1.13754e-06
1.1365e-06
1.13597e-06
1.13494e-06
1.13441e-06
1.13338e-06
1.13284e-06
1.13183e-06
1.13128e-06
1.13029e-06
1.12972e-06
1.12923e-06
1.12846e-06
1.12977e-06
1.14376e-06
1.14246e-06
1.14194e-06
1.14088e-06
1.14035e-06
1.1393e-06
1.13877e-06
1.13773e-06
1.1372e-06
1.13616e-06
1.13563e-06
1.1346e-06
1.13406e-06
1.13305e-06
1.13249e-06
1.1315e-06
1.13093e-06
1.13044e-06
1.12967e-06
1.13098e-06
1.14499e-06
1.1437e-06
1.14317e-06
1.14211e-06
1.14158e-06
1.14053e-06
1.14e-06
1.13895e-06
1.13842e-06
1.13738e-06
1.13685e-06
1.13582e-06
1.13527e-06
1.13426e-06
1.13371e-06
1.13271e-06
1.13214e-06
1.13165e-06
1.13088e-06
1.13225e-06
1.1463e-06
1.145e-06
1.14447e-06
1.1434e-06
1.14288e-06
1.14182e-06
1.14129e-06
1.14024e-06
1.13971e-06
1.13867e-06
1.13813e-06
1.1371e-06
1.13656e-06
1.13554e-06
1.13498e-06
1.13399e-06
1.13342e-06
1.13292e-06
1.13215e-06
1.13362e-06
1.1477e-06
1.1464e-06
1.14587e-06
1.14481e-06
1.14427e-06
1.14322e-06
1.14268e-06
1.14164e-06
1.1411e-06
1.14006e-06
1.13951e-06
1.13849e-06
1.13793e-06
1.13692e-06
1.13636e-06
1.13536e-06
1.13479e-06
1.1343e-06
1.13352e-06
1.13508e-06
1.1492e-06
1.14789e-06
1.14735e-06
1.1463e-06
1.14576e-06
1.1447e-06
1.14417e-06
1.14311e-06
1.14258e-06
1.14153e-06
1.14099e-06
1.13995e-06
1.1394e-06
1.13838e-06
1.13782e-06
1.13682e-06
1.13625e-06
1.13575e-06
1.13497e-06
1.13655e-06
1.1507e-06
1.14939e-06
1.14886e-06
1.14779e-06
1.14725e-06
1.14619e-06
1.14566e-06
1.1446e-06
1.14406e-06
1.14302e-06
1.14247e-06
1.14144e-06
1.14088e-06
1.13987e-06
1.1393e-06
1.1383e-06
1.13772e-06
1.13723e-06
1.13644e-06
1.1379e-06
1.15208e-06
1.15078e-06
1.15024e-06
1.14917e-06
1.14863e-06
1.14757e-06
1.14702e-06
1.14598e-06
1.14543e-06
1.14439e-06
1.14384e-06
1.14281e-06
1.14225e-06
1.14123e-06
1.14066e-06
1.13966e-06
1.13908e-06
1.13858e-06
1.1378e-06
1.13896e-06
1.1529e-06
1.15163e-06
1.15111e-06
1.15007e-06
1.14955e-06
1.14851e-06
1.14799e-06
1.14696e-06
1.14642e-06
1.1454e-06
1.14486e-06
1.14384e-06
1.14328e-06
1.14228e-06
1.14171e-06
1.14072e-06
1.14013e-06
1.13964e-06
1.13886e-06
1.13944e-06
1.13944e-06
1.13944e-06
1.13944e-06
1.13944e-06
1.13944e-06
1.13944e-06
1.13944e-06
1.13944e-06
1.13944e-06
1.13944e-06
1.13944e-06
1.13944e-06
1.13944e-06
1.13944e-06
1.13944e-06
1.13944e-06
1.13944e-06
1.13944e-06
1.13944e-06
)
;

boundaryField
{
    movingWall
    {
        type            nutkWallFunction;
        blending        stepwise;
        value           uniform 0;
    }
    fixedWalls
    {
        type            nutkWallFunction;
        blending        stepwise;
        value           uniform 0;
    }
    frontAndBack
    {
        type            empty;
    }
}


// ************************************************************************* //
