/*--------------------------------*- C++ -*----------------------------------*\
| =========                 |                                                 |
| \\      /  F ield         | OpenFOAM: The Open Source CFD Toolbox           |
|  \\    /   O peration     | Version:  2312                                  |
|   \\  /    A nd           | Website:  www.openfoam.com                      |
|    \\/     M anipulation  |                                                 |
\*---------------------------------------------------------------------------*/
FoamFile
{
    version     2.0;
    format      ascii;
    arch        "LSB;label=32;scalar=64";
    class       volScalarField;
    location    "8.5";
    object      p;
}
// * * * * * * * * * * * * * * * * * * * * * * * * * * * * * * * * * * * * * //

dimensions      [0 2 -2 0 0 0 0];

internalField   nonuniform List<scalar> 
400
(
5.27779e-16
3.24898e-15
2.30064e-15
2.73747e-15
2.67764e-15
3.01767e-15
3.21241e-15
3.24427e-15
3.09389e-15
3.00442e-15
2.96417e-15
2.9468e-15
3.37893e-15
3.4187e-15
3.25846e-15
3.2148e-15
3.2603e-15
3.40672e-15
3.75194e-15
4.01489e-15
2.56109e-15
1.51923e-17
2.51351e-15
2.54495e-15
2.89108e-15
3.02999e-15
2.95336e-15
3.14182e-15
3.13389e-15
3.05357e-15
2.98338e-15
2.87028e-15
3.39373e-15
3.39759e-15
3.2251e-15
3.22339e-15
3.19666e-15
3.4261e-15
3.81051e-15
4.00522e-15
2.53392e-15
2.1726e-15
2.63675e-15
2.78051e-15
2.9497e-15
3.05121e-15
2.9894e-15
3.19213e-15
3.18976e-15
3.08911e-15
3.07855e-15
3.07093e-15
3.22099e-15
3.47094e-15
3.38944e-15
3.28579e-15
3.23544e-15
3.4665e-15
3.75158e-15
3.91787e-15
1.9565e-15
2.60251e-15
2.66966e-15
2.91207e-15
3.07696e-15
3.02592e-15
2.97234e-15
3.29387e-15
3.20739e-15
3.10388e-15
3.23254e-15
3.05442e-15
3.11468e-15
3.33901e-15
3.44565e-15
3.43004e-15
3.43027e-15
3.43311e-15
3.7615e-15
3.99688e-15
2.26326e-15
2.71277e-15
2.77765e-15
3.00817e-15
3.10501e-15
3.08065e-15
3.09137e-15
3.31036e-15
3.37901e-15
3.16157e-15
3.16681e-15
3.26781e-15
3.41446e-15
3.37036e-15
3.3767e-15
3.48501e-15
3.44002e-15
3.51842e-15
3.73427e-15
4.03888e-15
2.36918e-15
2.57292e-15
3.01006e-15
3.05855e-15
3.22009e-15
3.16579e-15
3.21767e-15
3.24459e-15
3.29137e-15
3.3404e-15
3.30737e-15
3.4082e-15
3.55541e-15
3.49722e-15
3.35509e-15
3.41549e-15
3.46796e-15
3.48609e-15
3.79515e-15
4.11314e-15
2.86985e-15
4.44316e-15
2.98219e-15
3.0728e-15
3.11338e-15
3.3603e-15
3.33312e-15
3.52264e-15
3.7072e-15
3.59669e-15
3.47222e-15
3.44975e-15
3.7125e-15
3.53411e-15
3.24867e-15
3.44184e-15
3.36411e-15
3.5921e-15
3.71158e-15
3.96052e-15
3.69481e-15
6.8027e-16
3.10987e-15
3.07845e-15
3.13823e-15
3.3762e-15
3.72603e-15
3.69034e-15
3.7108e-15
3.76393e-15
3.51259e-15
3.55732e-15
3.59407e-15
3.63599e-15
3.26777e-15
3.22711e-15
3.54229e-15
3.56537e-15
3.53837e-15
3.78447e-15
2.95011e-15
5.31757e-15
3.34792e-15
3.42368e-15
3.41543e-15
3.69052e-15
3.73332e-15
3.66095e-15
3.79903e-15
3.85171e-15
3.5941e-15
3.64761e-15
3.65995e-15
3.60053e-15
3.40215e-15
3.29756e-15
3.30649e-15
3.45159e-15
3.57494e-15
3.85463e-15
3.43955e-15
3.21823e-15
3.63166e-15
3.33774e-15
3.37961e-15
3.67206e-15
3.87567e-15
3.85085e-15
3.95475e-15
3.89583e-15
3.84487e-15
3.75104e-15
3.68092e-15
3.6465e-15
3.30058e-15
3.36671e-15
3.39514e-15
3.33052e-15
3.46333e-15
3.65961e-15
3.54742e-15
1.83088e-15
3.56254e-15
3.47306e-15
3.61612e-15
3.60632e-15
3.7967e-15
3.92542e-15
4.06451e-15
3.93449e-15
4.0316e-15
3.98719e-15
3.88586e-15
3.74409e-15
3.38494e-15
3.39542e-15
3.36403e-15
3.10086e-15
3.28382e-15
3.66097e-15
3.02775e-15
6.46462e-15
3.41834e-15
3.72633e-15
3.46789e-15
3.64006e-15
4.02908e-15
4.30442e-15
4.1889e-15
3.83806e-15
3.96374e-15
4.17271e-15
3.83271e-15
3.5185e-15
3.47236e-15
3.44262e-15
3.43125e-15
3.36418e-15
3.27143e-15
3.49464e-15
4.03429e-15
1.46324e-15
3.46468e-15
3.59223e-15
3.68817e-15
3.83124e-15
3.98566e-15
4.17518e-15
4.17582e-15
4.00544e-15
4.1005e-15
4.23911e-15
3.9194e-15
3.52391e-15
3.58831e-15
3.531e-15
3.41658e-15
3.39946e-15
3.3731e-15
3.27912e-15
4.09666e-15
4.63448e-15
3.55011e-15
3.8209e-15
3.80783e-15
4.04284e-15
3.87123e-15
4.11462e-15
4.21763e-15
4.11163e-15
4.1606e-15
4.19963e-15
3.9262e-15
3.45417e-15
3.47233e-15
3.63211e-15
3.53914e-15
3.37527e-15
3.32956e-15
3.51459e-15
4.16576e-15
3.81277e-15
4.14074e-15
4.01497e-15
4.13277e-15
3.99648e-15
3.80694e-15
3.98543e-15
4.19005e-15
4.13737e-15
4.14944e-15
4.12278e-15
3.76226e-15
3.58988e-15
3.63596e-15
3.64651e-15
3.51582e-15
3.32579e-15
3.50951e-15
3.66266e-15
4.50016e-15
3.19983e-15
4.43804e-15
4.15905e-15
4.02384e-15
3.96369e-15
4.02205e-15
3.93684e-15
3.99186e-15
4.05696e-15
4.04234e-15
4.05591e-15
3.87406e-15
3.5757e-15
3.49179e-15
3.39089e-15
3.53634e-15
3.49754e-15
3.59083e-15
3.69146e-15
4.03116e-15
6.13205e-15
4.55219e-15
4.43487e-15
4.31267e-15
4.04949e-15
4.13277e-15
4.13001e-15
3.98241e-15
3.90885e-15
3.72952e-15
3.69189e-15
3.82069e-15
3.7326e-15
3.41425e-15
3.34942e-15
3.44328e-15
3.59941e-15
3.6034e-15
3.82092e-15
4.7227e-15
4.02671e-15
4.7269e-15
4.38997e-15
4.27041e-15
4.20265e-15
4.26477e-15
3.96707e-15
3.90808e-15
3.81139e-15
3.74866e-15
3.59513e-15
3.82563e-15
3.82059e-15
3.5942e-15
3.54715e-15
3.38388e-15
3.43598e-15
3.60799e-15
3.8955e-15
4.97851e-15
3.60368e-15
4.66944e-15
4.42713e-15
4.47384e-15
4.4184e-15
4.13039e-15
3.8846e-15
3.94061e-15
3.79259e-15
3.75619e-15
3.64783e-15
3.77516e-15
3.78962e-15
3.61399e-15
3.60393e-15
3.47693e-15
3.48861e-15
3.65293e-15
3.98523e-15
3.52684e-15
6.15715e-15
4.73628e-15
4.74479e-15
4.52608e-15
4.35964e-15
4.13441e-15
3.91321e-15
3.99313e-15
3.85311e-15
3.77362e-15
3.71158e-15
3.71331e-15
3.65316e-15
3.72898e-15
3.64735e-15
3.60916e-15
3.43076e-15
3.73948e-15
4.13497e-15
)
;

boundaryField
{
    movingWall
    {
        type            zeroGradient;
    }
    fixedWalls
    {
        type            zeroGradient;
    }
    frontAndBack
    {
        type            empty;
    }
}


// ************************************************************************* //
