/*--------------------------------*- C++ -*----------------------------------*\
| =========                 |                                                 |
| \\      /  F ield         | OpenFOAM: The Open Source CFD Toolbox           |
|  \\    /   O peration     | Version:  2312                                  |
|   \\  /    A nd           | Website:  www.openfoam.com                      |
|    \\/     M anipulation  |                                                 |
\*---------------------------------------------------------------------------*/
FoamFile
{
    version     2.0;
    format      ascii;
    arch        "LSB;label=32;scalar=64";
    class       volScalarField;
    location    "8.5";
    object      P_A;
}
// * * * * * * * * * * * * * * * * * * * * * * * * * * * * * * * * * * * * * //

dimensions      [1 -1 -3 0 0 0 0];

internalField   nonuniform List<scalar> 
400
(
3.10474e-33
3.10473e-33
3.10473e-33
3.10472e-33
3.10472e-33
3.10472e-33
3.10471e-33
3.10471e-33
3.10471e-33
3.10471e-33
3.10471e-33
3.10471e-33
3.1047e-33
3.1047e-33
3.1047e-33
3.1047e-33
3.1047e-33
3.1047e-33
3.1047e-33
3.1047e-33
3.33148e-33
3.29391e-33
3.29691e-33
3.2981e-33
3.30063e-33
3.30186e-33
3.30442e-33
3.30568e-33
3.30828e-33
3.30959e-33
3.3122e-33
3.31358e-33
3.3162e-33
3.31763e-33
3.32026e-33
3.32176e-33
3.32439e-33
3.32596e-33
3.32728e-33
3.3294e-33
3.71558e-33
3.67238e-33
3.67587e-33
3.67729e-33
3.68019e-33
3.68165e-33
3.6846e-33
3.68608e-33
3.68906e-33
3.69058e-33
3.69357e-33
3.69515e-33
3.69814e-33
3.69979e-33
3.70278e-33
3.70448e-33
3.70748e-33
3.70924e-33
3.71074e-33
3.71315e-33
4.15519e-33
4.1062e-33
4.11016e-33
4.11176e-33
4.11503e-33
4.1167e-33
4.12002e-33
4.12172e-33
4.12507e-33
4.12683e-33
4.13019e-33
4.132e-33
4.13537e-33
4.13725e-33
4.14063e-33
4.14257e-33
4.14596e-33
4.14797e-33
4.14967e-33
4.15239e-33
4.55589e-33
4.50153e-33
4.50593e-33
4.50769e-33
4.51135e-33
4.51317e-33
4.51687e-33
4.51873e-33
4.52248e-33
4.52437e-33
4.52816e-33
4.53011e-33
4.53391e-33
4.53593e-33
4.53974e-33
4.54185e-33
4.54564e-33
4.54784e-33
4.54973e-33
4.55275e-33
4.86738e-33
4.8088e-33
4.81351e-33
4.81542e-33
4.81936e-33
4.82133e-33
4.82528e-33
4.82732e-33
4.83132e-33
4.83341e-33
4.83744e-33
4.83959e-33
4.84363e-33
4.84586e-33
4.84991e-33
4.85223e-33
4.85629e-33
4.85868e-33
4.86071e-33
4.86397e-33
5.08458e-33
5.02301e-33
5.02798e-33
5.02996e-33
5.03412e-33
5.03615e-33
5.04035e-33
5.04244e-33
5.04669e-33
5.04884e-33
5.05312e-33
5.05533e-33
5.05964e-33
5.06192e-33
5.06623e-33
5.06862e-33
5.07291e-33
5.07541e-33
5.07755e-33
5.08097e-33
5.22742e-33
5.16389e-33
5.16904e-33
5.17107e-33
5.17537e-33
5.17746e-33
5.18181e-33
5.18396e-33
5.18833e-33
5.19057e-33
5.19492e-33
5.19727e-33
5.20165e-33
5.20408e-33
5.20847e-33
5.21097e-33
5.21537e-33
5.21797e-33
5.22017e-33
5.2237e-33
5.32134e-33
5.25652e-33
5.26176e-33
5.26384e-33
5.26821e-33
5.27034e-33
5.27479e-33
5.27695e-33
5.28144e-33
5.28374e-33
5.2882e-33
5.29057e-33
5.29505e-33
5.29751e-33
5.302e-33
5.30455e-33
5.30904e-33
5.31169e-33
5.31393e-33
5.31753e-33
5.38722e-33
5.32149e-33
5.32679e-33
5.3289e-33
5.33335e-33
5.33553e-33
5.33998e-33
5.34225e-33
5.34674e-33
5.34907e-33
5.3536e-33
5.356e-33
5.36054e-33
5.36304e-33
5.36758e-33
5.37017e-33
5.37473e-33
5.37741e-33
5.37969e-33
5.38335e-33
5.43927e-33
5.37282e-33
5.37817e-33
5.38032e-33
5.38479e-33
5.38701e-33
5.3915e-33
5.3938e-33
5.39834e-33
5.40069e-33
5.40527e-33
5.4077e-33
5.41229e-33
5.41481e-33
5.41941e-33
5.42203e-33
5.42663e-33
5.42935e-33
5.43165e-33
5.43534e-33
5.48626e-33
5.41916e-33
5.42454e-33
5.42673e-33
5.43122e-33
5.43347e-33
5.43801e-33
5.44031e-33
5.44492e-33
5.44729e-33
5.45191e-33
5.45437e-33
5.459e-33
5.46155e-33
5.46619e-33
5.46883e-33
5.47348e-33
5.47622e-33
5.47855e-33
5.48228e-33
5.53332e-33
5.46557e-33
5.47103e-33
5.47322e-33
5.47778e-33
5.48004e-33
5.48461e-33
5.48696e-33
5.49159e-33
5.49399e-33
5.49865e-33
5.50113e-33
5.50581e-33
5.50838e-33
5.51307e-33
5.51574e-33
5.52043e-33
5.5232e-33
5.52555e-33
5.52931e-33
5.58345e-33
5.51501e-33
5.5205e-33
5.52274e-33
5.52729e-33
5.52961e-33
5.53423e-33
5.5366e-33
5.54127e-33
5.54372e-33
5.5484e-33
5.55093e-33
5.55563e-33
5.55825e-33
5.56297e-33
5.56568e-33
5.57041e-33
5.57321e-33
5.57558e-33
5.57939e-33
5.6379e-33
5.5687e-33
5.57429e-33
5.57652e-33
5.58117e-33
5.58347e-33
5.58818e-33
5.59053e-33
5.59529e-33
5.59771e-33
5.6025e-33
5.60499e-33
5.60982e-33
5.6124e-33
5.61723e-33
5.61992e-33
5.62474e-33
5.62755e-33
5.62996e-33
5.6338e-33
5.69626e-33
5.62627e-33
5.6319e-33
5.63415e-33
5.63889e-33
5.6412e-33
5.64596e-33
5.64836e-33
5.65312e-33
5.65563e-33
5.66041e-33
5.663e-33
5.66781e-33
5.67049e-33
5.67532e-33
5.67808e-33
5.68293e-33
5.68579e-33
5.68822e-33
5.69211e-33
5.7558e-33
5.68497e-33
5.69067e-33
5.69295e-33
5.69772e-33
5.70007e-33
5.70488e-33
5.70729e-33
5.71216e-33
5.71463e-33
5.71956e-33
5.72209e-33
5.72704e-33
5.72967e-33
5.73462e-33
5.73737e-33
5.74231e-33
5.74518e-33
5.74764e-33
5.75158e-33
5.8111e-33
5.7395e-33
5.74529e-33
5.74756e-33
5.75241e-33
5.75473e-33
5.75966e-33
5.76203e-33
5.767e-33
5.76946e-33
5.77445e-33
5.77701e-33
5.78201e-33
5.78468e-33
5.78968e-33
5.79246e-33
5.79745e-33
5.80035e-33
5.80284e-33
5.80682e-33
5.85452e-33
5.78373e-33
5.78932e-33
5.79157e-33
5.79627e-33
5.79861e-33
5.80335e-33
5.80577e-33
5.8106e-33
5.8131e-33
5.81796e-33
5.82057e-33
5.82545e-33
5.82819e-33
5.83309e-33
5.83596e-33
5.84087e-33
5.84387e-33
5.84633e-33
5.85033e-33
5.87459e-33
5.87458e-33
5.87457e-33
5.87456e-33
5.87456e-33
5.87455e-33
5.87455e-33
5.87453e-33
5.87454e-33
5.87452e-33
5.87453e-33
5.87452e-33
5.87453e-33
5.87452e-33
5.87452e-33
5.87452e-33
5.87452e-33
5.87452e-33
5.87452e-33
5.87452e-33
)
;

boundaryField
{
    movingWall
    {
        type            calculated;
        value           nonuniform List<scalar> 
20
(
5.87459e-33
5.87458e-33
5.87457e-33
5.87456e-33
5.87456e-33
5.87455e-33
5.87455e-33
5.87453e-33
5.87454e-33
5.87452e-33
5.87453e-33
5.87452e-33
5.87453e-33
5.87452e-33
5.87452e-33
5.87452e-33
5.87452e-33
5.87452e-33
5.87452e-33
5.87452e-33
)
;
    }
    fixedWalls
    {
        type            calculated;
        value           nonuniform List<scalar> 
60
(
3.10474e-33
3.33148e-33
3.71558e-33
4.15519e-33
4.55589e-33
4.86738e-33
5.08458e-33
5.22742e-33
5.32134e-33
5.38722e-33
5.43927e-33
5.48626e-33
5.53332e-33
5.58345e-33
5.6379e-33
5.69626e-33
5.7558e-33
5.8111e-33
5.85452e-33
5.87459e-33
3.1047e-33
3.3294e-33
3.71315e-33
4.15239e-33
4.55275e-33
4.86397e-33
5.08097e-33
5.2237e-33
5.31753e-33
5.38335e-33
5.43534e-33
5.48228e-33
5.52931e-33
5.57939e-33
5.6338e-33
5.69211e-33
5.75158e-33
5.80682e-33
5.85033e-33
5.87452e-33
3.10474e-33
3.10473e-33
3.10473e-33
3.10472e-33
3.10472e-33
3.10472e-33
3.10471e-33
3.10471e-33
3.10471e-33
3.10471e-33
3.10471e-33
3.10471e-33
3.1047e-33
3.1047e-33
3.1047e-33
3.1047e-33
3.1047e-33
3.1047e-33
3.1047e-33
3.1047e-33
)
;
    }
    frontAndBack
    {
        type            empty;
    }
}


// ************************************************************************* //
