/*--------------------------------*- C++ -*----------------------------------*\
| =========                 |                                                 |
| \\      /  F ield         | OpenFOAM: The Open Source CFD Toolbox           |
|  \\    /   O peration     | Version:  2312                                  |
|   \\  /    A nd           | Website:  www.openfoam.com                      |
|    \\/     M anipulation  |                                                 |
\*---------------------------------------------------------------------------*/
FoamFile
{
    version     2.0;
    format      ascii;
    arch        "LSB;label=32;scalar=64";
    class       surfaceScalarField;
    location    "8.5";
    object      PecletNoField;
}
// * * * * * * * * * * * * * * * * * * * * * * * * * * * * * * * * * * * * * //

dimensions      [0 0 0 0 0 0 0];

oriented        oriented;

internalField   nonuniform List<scalar> 
760
(
452.389
1.95212e-12
452.389
3.51517e-12
452.389
9.8517e-13
452.389
1.72903e-13
452.389
2.86338e-14
452.389
2.85967e-14
452.389
8.59044e-14
452.389
2.02919e-14
452.389
1.36942e-14
452.389
1.10667e-14
452.389
5.14721e-15
452.389
3.97969e-14
452.389
3.43222e-14
452.389
1.62979e-14
452.389
2.62158e-14
452.389
2.00501e-14
452.389
2.26979e-14
452.389
1.65734e-14
452.389
1.85294e-14
7.08454e-15
451.763
7.70027e-13
451.539
7.96098e-13
451.57
4.18468e-13
451.598
8.3954e-15
451.625
3.33197e-14
451.653
9.97716e-15
451.681
4.60149e-15
451.708
2.11184e-14
451.736
2.52502e-14
451.764
8.76777e-15
451.791
1.39571e-14
451.819
2.33107e-14
451.847
6.347e-14
451.874
3.48972e-14
451.902
7.65187e-14
451.93
7.55559e-15
451.958
1.06861e-14
451.977
3.07226e-14
452
5.37883e-15
3.01875e-14
451.16
2.12309e-12
450.927
2.55032e-12
450.96
6.49171e-13
450.989
7.50104e-14
451.019
8.94137e-14
451.048
4.1406e-14
451.077
7.09079e-14
451.106
5.73086e-14
451.135
3.45974e-14
451.163
4.88542e-14
451.192
2.07005e-14
451.221
5.14633e-14
451.25
6.11952e-14
451.279
3.13616e-14
451.307
4.18654e-14
451.336
6.3169e-14
451.365
6.77758e-14
451.384
3.05389e-15
451.408
1.34556e-14
2.87755e-14
450.54
1.63163e-12
450.3
2.0661e-12
450.335
3.97862e-13
450.365
1.68839e-13
450.394
1.58973e-14
450.424
5.59059e-14
450.454
3.41366e-14
450.484
7.78751e-15
450.513
7.7668e-15
450.543
1.22924e-14
450.573
1.87668e-14
450.602
6.49227e-14
450.632
1.22488e-13
450.661
5.78486e-14
450.691
4.00108e-14
450.72
2.87919e-14
450.749
1.79501e-14
450.77
1.94377e-14
450.793
3.79515e-14
9.82681e-15
450.023
3.06214e-13
449.778
3.87922e-13
449.813
1.69903e-13
449.844
5.14302e-14
449.874
9.43466e-14
449.905
6.53491e-14
449.935
4.09693e-14
449.966
2.36036e-14
449.996
1.94333e-14
450.026
2.402e-14
450.057
2.48024e-14
450.087
3.75662e-14
450.117
4.88862e-14
450.147
5.67031e-14
450.177
2.27004e-14
450.207
1.43299e-14
450.237
2.54591e-14
450.258
7.26791e-14
450.282
2.59573e-14
1.95368e-14
449.648
2.69673e-13
449.4
2.43458e-13
449.436
7.80081e-14
449.467
7.49111e-14
449.497
4.77794e-14
449.528
5.61951e-14
449.559
3.38422e-14
449.59
1.02662e-13
449.621
1.62636e-13
449.652
1.19295e-13
449.682
6.24249e-14
449.713
2.1035e-14
449.744
1.65847e-14
449.774
1.3754e-14
449.805
5.01732e-14
449.835
1.37869e-14
449.866
4.70086e-14
449.887
1.14146e-14
449.912
4.92936e-14
3.12144e-14
449.4
1.23556e-13
449.148
7.22251e-13
449.185
5.35678e-13
449.216
1.43702e-14
449.247
6.99903e-14
449.278
1.69734e-14
449.31
9.91212e-14
449.341
6.32911e-14
449.372
3.72095e-14
449.403
6.04441e-14
449.434
7.49518e-14
449.465
6.72992e-14
449.496
1.20124e-14
449.527
3.22002e-14
449.558
9.06148e-15
449.588
5.53294e-14
449.619
3.01992e-14
449.64
1.29209e-14
449.665
4.76507e-14
5.45504e-14
449.241
1.92396e-13
448.988
7.47424e-13
449.024
5.78537e-13
449.056
1.91197e-14
449.087
8.74351e-14
449.119
1.00264e-13
449.15
5.22912e-14
449.182
2.49389e-14
449.213
5.43738e-14
449.244
1.05466e-13
449.276
1.25465e-13
449.307
8.67245e-14
449.338
3.32453e-14
449.369
7.2677e-15
449.4
5.27953e-14
449.431
5.50754e-14
449.462
1.66106e-14
449.483
5.22607e-15
449.509
2.19915e-14
3.95456e-14
449.139
3.23682e-13
448.885
5.318e-13
448.921
3.88345e-14
448.953
2.57612e-14
448.985
1.37138e-15
449.016
4.69927e-16
449.048
8.82179e-14
449.079
1.28956e-13
449.111
9.96715e-14
449.142
8.89921e-14
449.174
1.31267e-13
449.205
9.02605e-14
449.236
3.07742e-14
449.267
2.31483e-14
449.299
9.07388e-15
449.33
5.1259e-14
449.361
3.85927e-14
449.382
2.05868e-14
449.407
2.67633e-14
4.68625e-14
449.068
8.84605e-13
448.814
7.02834e-13
448.85
3.26006e-13
448.882
8.82607e-14
448.913
5.76756e-14
448.945
1.57262e-14
448.977
2.20172e-14
449.008
7.45178e-14
449.04
7.11944e-14
449.071
6.89356e-14
449.103
1.26498e-13
449.134
1.39549e-13
449.166
1.18445e-13
449.197
7.99207e-14
449.228
6.77836e-14
449.26
2.38928e-14
449.291
2.0252e-14
449.312
7.12272e-14
449.338
3.91393e-14
3.71829e-15
449.013
1.04361e-12
448.758
4.33308e-13
448.794
2.69734e-13
448.826
9.99248e-14
448.858
2.61655e-14
448.89
6.22472e-14
448.921
1.17804e-13
448.953
1.36024e-13
448.985
8.46678e-14
449.016
1.87292e-14
449.048
1.2513e-14
449.079
6.55099e-14
449.111
6.00741e-15
449.142
5.13164e-14
449.174
2.91046e-15
449.205
1.57833e-14
449.236
4.48707e-14
449.257
9.24076e-14
449.283
2.26469e-14
3.1329e-14
448.963
9.23652e-13
448.708
6.64823e-13
448.744
2.94921e-13
448.776
6.49359e-16
448.808
1.13974e-13
448.84
8.07394e-14
448.872
1.64869e-14
448.903
1.04837e-14
448.935
1.95402e-14
448.967
5.44873e-14
448.998
2.70624e-14
449.03
1.83865e-14
449.062
1.76486e-14
449.093
1.13702e-14
449.124
7.67405e-14
449.156
6.73073e-14
449.187
2.74839e-14
449.209
3.74061e-15
449.234
1.25175e-14
6.4703e-14
448.914
6.01552e-13
448.658
1.3204e-13
448.695
3.07247e-13
448.727
3.79135e-14
448.759
3.86777e-14
448.791
4.01666e-14
448.822
1.75378e-14
448.854
1.3323e-14
448.886
3.52911e-14
448.918
3.89222e-14
448.949
2.08277e-14
448.981
4.42499e-15
449.013
3.63134e-14
449.044
2.01212e-14
449.076
7.73121e-15
449.107
3.25217e-14
449.138
3.58335e-14
449.16
9.95277e-15
449.185
3.78358e-14
5.3501e-14
448.862
1.18265e-12
448.606
1.008e-12
448.642
1.01147e-13
448.674
1.14456e-13
448.707
9.29314e-14
448.738
1.64655e-14
448.77
3.36547e-15
448.802
1.78337e-14
448.834
5.60332e-14
448.866
4.99295e-14
448.897
1.56513e-14
448.929
1.63872e-16
448.961
1.49425e-14
448.992
5.73984e-14
449.024
6.41255e-14
449.055
1.82384e-14
449.087
1.76136e-14
449.108
3.18187e-14
449.134
6.04321e-14
6.09263e-14
448.806
2.58977e-13
448.549
9.69704e-15
448.586
5.08142e-14
448.618
4.97391e-14
448.65
5.30933e-14
448.682
1.53827e-15
448.714
8.58682e-14
448.746
2.61151e-14
448.778
9.49962e-15
448.81
8.71411e-15
448.842
6.15724e-15
448.873
5.74192e-14
448.905
1.03832e-13
448.937
4.23469e-14
448.968
1.63354e-14
449
8.69057e-14
449.031
8.05283e-15
449.053
8.79608e-14
449.079
4.70697e-14
7.77076e-15
448.747
4.72724e-13
448.489
1.45456e-12
448.526
6.48209e-13
448.558
6.50121e-17
448.59
1.41293e-13
448.623
8.78009e-14
448.655
8.00981e-14
448.687
7.94329e-14
448.719
1.42908e-14
448.75
6.09606e-14
448.782
9.1037e-14
448.814
3.21e-14
448.846
5.10043e-14
448.878
7.05752e-14
448.909
2.84187e-14
448.941
9.50957e-15
448.973
4.57558e-14
448.994
6.97095e-14
449.02
1.65462e-14
2.9941e-14
448.687
2.99145e-12
448.429
3.22668e-12
448.466
8.47946e-13
448.498
2.44991e-13
448.53
3.51714e-14
448.562
1.2416e-13
448.594
1.04723e-13
448.626
1.46814e-14
448.659
1.86417e-14
448.69
9.45669e-15
448.722
2.00998e-14
448.754
3.14515e-15
448.786
3.65245e-14
448.818
2.56701e-14
448.85
4.76879e-14
448.881
7.69377e-14
448.913
2.61306e-14
448.935
4.07993e-15
448.961
1.59548e-14
1.86046e-14
448.632
1.28696e-12
448.373
1.02542e-12
448.41
2.15658e-13
448.442
1.23772e-13
448.475
1.00552e-13
448.507
1.26758e-13
448.539
4.90191e-14
448.571
3.1901e-14
448.603
5.2612e-14
448.635
3.14496e-14
448.667
2.4552e-14
448.699
1.42312e-14
448.731
7.09752e-15
448.763
8.28263e-15
448.795
1.3816e-16
448.827
9.31079e-15
448.859
5.62105e-16
448.88
2.4769e-15
448.906
3.60799e-14
1.7511e-14
448.594
2.72399e-12
448.34
4.07395e-12
448.375
1.19124e-12
448.407
1.17041e-13
448.438
6.82422e-14
448.469
2.14836e-14
448.501
2.13645e-14
448.532
3.57877e-14
448.564
5.28384e-14
448.595
3.16823e-14
448.627
1.77533e-14
448.658
1.99455e-14
448.69
1.39369e-14
448.721
3.55503e-14
448.753
8.90765e-14
448.784
3.88116e-14
448.816
1.0192e-14
448.838
2.23442e-14
448.863
3.33697e-14
5.11059e-14
448.855
448.856
448.856
448.856
448.856
448.856
448.856
448.856
448.856
448.856
448.856
448.856
448.856
448.856
448.856
448.856
448.856
448.856
448.856
)
;

boundaryField
{
    movingWall
    {
        type            calculated;
        value           uniform 0;
    }
    fixedWalls
    {
        type            calculated;
        value           nonuniform List<scalar> 
60
(
250
250
250
250
250
250
250
250
250
250
250
250
250
250
250
250
250
250
250
250
250
250
250
250
250
250
250
250
250
250
250
250
250
250
250
250
250
250
250
250
0
0
0
0
0
0
0
0
0
0
0
0
0
0
0
0
0
0
0
0
)
;
    }
    frontAndBack
    {
        type            empty;
        value           nonuniform List<scalar> 0();
    }
}


// ************************************************************************* //
