/*--------------------------------*- C++ -*----------------------------------*\
| =========                 |                                                 |
| \\      /  F ield         | OpenFOAM: The Open Source CFD Toolbox           |
|  \\    /   O peration     | Version:  2312                                  |
|   \\  /    A nd           | Website:  www.openfoam.com                      |
|    \\/     M anipulation  |                                                 |
\*---------------------------------------------------------------------------*/
FoamFile
{
    version     2.0;
    format      ascii;
    arch        "LSB;label=32;scalar=64";
    class       surfaceScalarField;
    location    "8.5";
    object      phi;
}
// * * * * * * * * * * * * * * * * * * * * * * * * * * * * * * * * * * * * * //

dimensions      [0 3 -1 0 0 0 0];

oriented        oriented;

internalField   nonuniform List<scalar> 
760
(
-5e-05
2.15847e-19
-5e-05
-3.88888e-19
-5e-05
1.08985e-19
-5e-05
-1.91271e-20
-5e-05
3.16744e-21
-5e-05
3.16327e-21
-5e-05
9.50208e-21
-5e-05
2.24448e-21
-5e-05
1.51466e-21
-5e-05
1.22401e-21
-5e-05
5.69274e-22
-5e-05
4.40138e-21
-5e-05
3.79576e-21
-5e-05
1.80237e-21
-5e-05
2.89908e-21
-5e-05
2.2172e-21
-5e-05
2.50989e-21
-5e-05
-1.83261e-21
-5e-05
-2.04887e-21
-7.83339e-22
-5e-05
-8.52339e-20
-5e-05
8.82183e-20
-5e-05
-4.6367e-20
-5e-05
-9.30188e-22
-5e-05
-3.69142e-21
-5e-05
1.1053e-21
-5e-05
-5.09726e-22
-5e-05
-2.33927e-21
-5e-05
-2.79672e-21
-5e-05
-9.71079e-22
-5e-05
-1.54569e-21
-5e-05
-2.58147e-21
-5e-05
7.0282e-21
-5e-05
-3.86409e-21
-5e-05
-8.47206e-21
-5e-05
-8.36508e-22
-5e-05
1.183e-21
-5e-05
-3.40099e-21
-5e-05
5.95413e-22
3.34142e-21
-5e-05
-2.35318e-19
-5e-05
2.82998e-19
-5e-05
-7.2028e-20
-5e-05
8.32234e-21
-5e-05
-9.9195e-21
-5e-05
-4.59335e-21
-5e-05
-7.86545e-21
-5e-05
-6.35668e-21
-5e-05
-3.83722e-21
-5e-05
-5.41821e-21
-5e-05
-2.2956e-21
-5e-05
5.70683e-21
-5e-05
6.78544e-21
-5e-05
3.47728e-21
-5e-05
-4.64152e-21
-5e-05
-7.00307e-21
-5e-05
-7.51318e-21
-5e-05
3.38518e-22
-5e-05
-1.49147e-21
-3.18938e-21
-5e-05
1.81072e-19
-5e-05
-2.2956e-19
-5e-05
4.42006e-20
-5e-05
-1.87564e-20
-5e-05
-1.76587e-21
-5e-05
-6.20977e-21
-5e-05
-3.79141e-21
-5e-05
8.64885e-22
-5e-05
-8.6251e-22
-5e-05
-1.36502e-21
-5e-05
2.0838e-21
-5e-05
-7.20843e-21
-5e-05
-1.35988e-20
-5e-05
-6.42213e-21
-5e-05
-4.44146e-21
-5e-05
-3.19595e-21
-5e-05
1.99232e-21
-5e-05
2.15733e-21
-5e-05
4.21194e-21
1.09053e-21
-5e-05
-3.40156e-20
-5e-05
4.31442e-20
-5e-05
-1.88943e-20
-5e-05
-5.71912e-21
-5e-05
-1.04905e-20
-5e-05
-7.26592e-21
-5e-05
-4.5548e-21
-5e-05
2.62404e-21
-5e-05
2.16022e-21
-5e-05
-2.66996e-21
-5e-05
-2.75669e-21
-5e-05
-4.17514e-21
-5e-05
-5.43276e-21
-5e-05
-6.30117e-21
-5e-05
-2.52238e-21
-5e-05
1.59221e-21
-5e-05
2.82854e-21
-5e-05
8.07433e-21
-5e-05
2.88362e-21
-2.17022e-21
-5e-05
2.9977e-20
-5e-05
-2.70962e-20
-5e-05
-8.68108e-21
-5e-05
8.33604e-21
-5e-05
5.31636e-21
-5e-05
-6.25248e-21
-5e-05
-3.76506e-21
-5e-05
-1.1421e-20
-5e-05
-1.80914e-20
-5e-05
-1.32696e-20
-5e-05
-6.94308e-21
-5e-05
-2.33946e-21
-5e-05
-1.84434e-21
-5e-05
1.52948e-21
-5e-05
5.57889e-21
-5e-05
1.53292e-21
-5e-05
5.22629e-21
-5e-05
1.26899e-21
-5e-05
5.47983e-21
3.46978e-21
-5e-05
1.37407e-20
-5e-05
-8.04212e-20
-5e-05
5.96399e-20
-5e-05
-1.59984e-21
-5e-05
7.7913e-21
-5e-05
1.88939e-21
-5e-05
-1.10326e-20
-5e-05
-7.04423e-21
-5e-05
-4.141e-21
-5e-05
-6.72643e-21
-5e-05
-8.34014e-21
-5e-05
-7.48825e-21
-5e-05
-1.33647e-21
-5e-05
-3.58236e-21
-5e-05
1.00802e-21
-5e-05
6.15469e-21
-5e-05
-3.35898e-21
-5e-05
1.43708e-21
-5e-05
5.29957e-21
6.06652e-21
-5e-05
2.14026e-20
-5e-05
8.32486e-20
-5e-05
-6.44304e-20
-5e-05
2.12922e-21
-5e-05
-9.7361e-21
-5e-05
-1.11641e-20
-5e-05
-5.82193e-21
-5e-05
-2.77648e-21
-5e-05
-6.05295e-21
-5e-05
-1.17401e-20
-5e-05
-1.3965e-20
-5e-05
-9.65246e-21
-5e-05
-3.69988e-21
-5e-05
8.08784e-22
-5e-05
-5.87478e-21
-5e-05
-6.12819e-21
-5e-05
1.84809e-21
-5e-05
-5.8142e-22
-5e-05
-2.44653e-21
-4.3991e-21
-5e-05
-3.6014e-20
-5e-05
5.92438e-20
-5e-05
4.32576e-21
-5e-05
2.86939e-21
-5e-05
1.52736e-22
-5e-05
-5.23351e-23
-5e-05
-9.82379e-21
-5e-05
-1.43596e-20
-5e-05
-1.10977e-20
-5e-05
-9.90813e-21
-5e-05
-1.46136e-20
-5e-05
-1.00479e-20
-5e-05
-3.42552e-21
-5e-05
-2.57655e-21
-5e-05
-1.00989e-21
-5e-05
-5.70464e-21
-5e-05
-4.29461e-21
-5e-05
2.2908e-21
-5e-05
2.97795e-21
5.21403e-21
-5e-05
9.84378e-20
-5e-05
-7.83085e-20
-5e-05
3.63188e-20
-5e-05
-9.83225e-21
-5e-05
-6.42446e-21
-5e-05
-1.75165e-21
-5e-05
-2.45214e-21
-5e-05
-8.29894e-21
-5e-05
-7.92808e-21
-5e-05
-7.67618e-21
-5e-05
-1.40846e-20
-5e-05
-1.5537e-20
-5e-05
-1.31861e-20
-5e-05
-8.8969e-21
-5e-05
-7.54509e-21
-5e-05
-2.65941e-21
-5e-05
2.25397e-21
-5e-05
7.9269e-21
-5e-05
4.35563e-21
4.13763e-22
-5e-05
1.16145e-19
-5e-05
-4.82841e-20
-5e-05
-3.00533e-20
-5e-05
-1.11329e-20
-5e-05
-2.91491e-21
-5e-05
-6.93417e-21
-5e-05
-1.31218e-20
-5e-05
-1.51506e-20
-5e-05
-9.42955e-21
-5e-05
-2.08579e-21
-5e-05
-1.3934e-21
-5e-05
-7.29454e-21
-5e-05
6.68864e-22
-5e-05
5.71329e-21
-5e-05
3.24005e-22
-5e-05
-1.75698e-21
-5e-05
-4.99451e-21
-5e-05
-1.02853e-20
-5e-05
2.52056e-21
3.48662e-21
-5e-05
-1.02806e-19
-5e-05
7.40903e-20
-5e-05
3.28632e-20
-5e-05
-7.23552e-23
-5e-05
-1.26984e-20
-5e-05
-8.99516e-21
-5e-05
-1.83663e-21
-5e-05
1.16782e-21
-5e-05
-2.17646e-21
-5e-05
-6.0687e-21
-5e-05
-3.01388e-21
-5e-05
2.04756e-21
-5e-05
1.96521e-21
-5e-05
-1.26603e-21
-5e-05
-8.54402e-21
-5e-05
-7.49339e-21
-5e-05
-3.05953e-21
-5e-05
-4.16387e-22
-5e-05
1.39332e-21
7.20162e-21
-5e-05
6.69625e-20
-5e-05
-1.47167e-20
-5e-05
-3.42407e-20
-5e-05
-4.22501e-21
-5e-05
-4.30976e-21
-5e-05
-4.47546e-21
-5e-05
1.95391e-21
-5e-05
-1.48426e-21
-5e-05
-3.93128e-21
-5e-05
-4.33557e-21
-5e-05
-2.3198e-21
-5e-05
4.92832e-22
-5e-05
-4.04403e-21
-5e-05
-2.24068e-21
-5e-05
8.60863e-22
-5e-05
-3.62108e-21
-5e-05
-3.98947e-21
-5e-05
-1.10802e-21
-5e-05
-4.21199e-21
-5.95547e-21
-5e-05
1.31664e-19
-5e-05
-1.12362e-19
-5e-05
1.12736e-20
-5e-05
-1.27564e-20
-5e-05
-1.03564e-20
-5e-05
-1.83485e-21
-5e-05
-3.74998e-22
-5e-05
-1.98702e-21
-5e-05
-6.24262e-21
-5e-05
-5.56234e-21
-5e-05
-1.74345e-21
-5e-05
-1.82534e-23
-5e-05
1.66426e-21
-5e-05
-6.3926e-21
-5e-05
-7.14116e-21
-5e-05
-2.03097e-21
-5e-05
1.96122e-21
-5e-05
3.54272e-21
-5e-05
-6.72827e-21
-6.78283e-21
-5e-05
2.88354e-20
-5e-05
1.08107e-21
-5e-05
-5.66433e-21
-5e-05
-5.54423e-21
-5e-05
5.91754e-21
-5e-05
-1.71441e-22
-5e-05
-9.56912e-21
-5e-05
-2.91012e-21
-5e-05
1.05848e-21
-5e-05
9.70912e-22
-5e-05
-6.85966e-22
-5e-05
-6.39664e-21
-5e-05
-1.1566e-20
-5e-05
-4.71688e-21
-5e-05
1.81938e-21
-5e-05
9.67876e-21
-5e-05
-8.96771e-22
-5e-05
-9.79489e-21
-5e-05
-5.24123e-21
-8.65215e-22
-5e-05
-5.26417e-20
-5e-05
1.62182e-19
-5e-05
-7.22665e-20
-5e-05
-7.24762e-24
-5e-05
-1.575e-20
-5e-05
-9.78673e-21
-5e-05
-8.92729e-21
-5e-05
-8.85273e-21
-5e-05
-1.59255e-21
-5e-05
6.79304e-21
-5e-05
1.01436e-20
-5e-05
3.5765e-21
-5e-05
-5.68224e-21
-5e-05
-7.86217e-21
-5e-05
3.16559e-21
-5e-05
-1.05923e-21
-5e-05
-5.09608e-21
-5e-05
-7.76354e-21
-5e-05
-1.84267e-21
-3.33414e-21
-5e-05
3.33165e-19
-5e-05
-3.5982e-19
-5e-05
9.45467e-20
-5e-05
-2.73153e-20
-5e-05
-3.92108e-21
-5e-05
-1.38413e-20
-5e-05
-1.16734e-20
-5e-05
-1.63643e-21
-5e-05
2.07767e-21
-5e-05
1.05392e-21
-5e-05
-2.23987e-21
-5e-05
-3.50468e-22
-5e-05
-4.0696e-21
-5e-05
-2.86005e-21
-5e-05
-5.31269e-21
-5e-05
-8.57085e-21
-5e-05
-2.91068e-21
-5e-05
4.54439e-22
-5e-05
-1.77703e-21
-2.07201e-21
-5e-05
1.43347e-19
-5e-05
-1.1436e-19
-5e-05
2.40485e-20
-5e-05
-1.38015e-20
-5e-05
-1.12112e-20
-5e-05
-1.41323e-20
-5e-05
-5.46467e-21
-5e-05
-3.55616e-21
-5e-05
-5.86438e-21
-5e-05
-3.50535e-21
-5e-05
-2.7363e-21
-5e-05
-1.58598e-21
-5e-05
7.909e-22
-5e-05
-9.22914e-22
-5e-05
-1.53934e-23
-5e-05
-1.03733e-21
-5e-05
6.26195e-23
-5e-05
2.75917e-22
-5e-05
-4.01898e-21
-1.95043e-21
-5e-05
-3.03431e-19
-5e-05
4.54089e-19
-5e-05
-1.3277e-19
-5e-05
1.30445e-20
-5e-05
-7.60542e-21
-5e-05
2.39424e-21
-5e-05
-2.38086e-21
-5e-05
-3.98808e-21
-5e-05
-5.88789e-21
-5e-05
-3.53034e-21
-5e-05
-1.97814e-21
-5e-05
-2.22236e-21
-5e-05
-1.5528e-21
-5e-05
-3.96079e-21
-5e-05
-9.92389e-21
-5e-05
-4.32384e-21
-5e-05
1.1354e-21
-5e-05
2.4891e-21
-5e-05
-3.71723e-21
-5.69277e-21
-5e-05
-5e-05
-5e-05
-5e-05
-5e-05
-5e-05
-5e-05
-5e-05
-5e-05
-5e-05
-5e-05
-5e-05
-5e-05
-5e-05
-5e-05
-5e-05
-5e-05
-5e-05
-5e-05
)
;

boundaryField
{
    movingWall
    {
        type            calculated;
        value           uniform 0;
    }
    fixedWalls
    {
        type            calculated;
        value           nonuniform List<scalar> 
60
(
5e-05
5e-05
5e-05
5e-05
5e-05
5e-05
5e-05
5e-05
5e-05
5e-05
5e-05
5e-05
5e-05
5e-05
5e-05
5e-05
5e-05
5e-05
5e-05
5e-05
-5e-05
-5e-05
-5e-05
-5e-05
-5e-05
-5e-05
-5e-05
-5e-05
-5e-05
-5e-05
-5e-05
-5e-05
-5e-05
-5e-05
-5e-05
-5e-05
-5e-05
-5e-05
-5e-05
-5e-05
0
0
0
0
0
0
0
0
0
0
0
0
0
0
0
0
0
0
0
0
)
;
    }
    frontAndBack
    {
        type            empty;
        value           nonuniform List<scalar> 0();
    }
}


// ************************************************************************* //
