/*--------------------------------*- C++ -*----------------------------------*\
| =========                 |                                                 |
| \\      /  F ield         | OpenFOAM: The Open Source CFD Toolbox           |
|  \\    /   O peration     | Version:  2312                                  |
|   \\  /    A nd           | Website:  www.openfoam.com                      |
|    \\/     M anipulation  |                                                 |
\*---------------------------------------------------------------------------*/
FoamFile
{
    version     2.0;
    format      ascii;
    arch        "LSB;label=32;scalar=64";
    class       volScalarField;
    location    "8.5";
    object      QField;
}
// * * * * * * * * * * * * * * * * * * * * * * * * * * * * * * * * * * * * * //

dimensions      [0 0 -2 0 0 0 0];

internalField   nonuniform List<scalar> 
400
(
-3.59907e-24
-2.31351e-24
-2.42513e-26
-6.47641e-27
-1.58831e-27
-4.07356e-28
-1.27796e-27
0
0
0
0
-1.33221e-28
-5.81314e-28
-4.76178e-28
0
0
3.5976e-30
0
0
0
-5.24756e-24
-2.29714e-24
-1.0703e-25
-6.52074e-27
2.67679e-27
7.73283e-28
-1.7337e-27
-7.16595e-28
-2.16223e-28
-4.31554e-28
-3.63335e-29
1.24301e-27
0
0
-7.92185e-28
4.90138e-28
2.89921e-28
-1.71405e-28
5.63706e-29
0
-1.17028e-23
-4.17478e-24
-7.4107e-27
-3.47237e-26
3.56211e-27
-1.16914e-27
-1.83385e-27
-1.12283e-28
0
-1.99181e-28
0
-1.35997e-29
0
1.49557e-27
3.36546e-28
-8.02173e-28
0
1.41471e-28
1.1137e-28
0
-1.36386e-23
-3.66908e-24
-1.98868e-25
-1.13392e-26
-7.63351e-28
2.30662e-28
-5.66702e-28
-1.5302e-27
-5.79549e-28
0
1.63547e-30
-1.58589e-27
-3.39762e-27
-1.94148e-28
7.73887e-28
-1.73456e-28
-4.10823e-28
-5.86448e-28
1.06254e-28
1.06586e-28
-8.77335e-24
-2.65681e-24
-1.24428e-25
-1.23861e-26
4.31649e-27
7.1667e-28
2.76383e-27
5.63389e-28
9.55009e-28
8.71803e-28
1.95752e-27
1.34561e-27
-5.59741e-29
9.07315e-28
0
5.19042e-28
9.72444e-28
0
-4.77624e-28
1.85681e-28
-2.53424e-24
-1.27457e-24
-4.97115e-28
0
-2.51588e-27
0
0
-2.15714e-27
-2.84183e-27
7.91704e-28
1.91448e-27
4.50206e-28
-7.59612e-28
-5.58665e-28
4.54473e-28
0
2.66258e-28
-4.82538e-28
1.07331e-28
-2.96623e-28
5.31039e-24
3.03179e-25
1.58478e-25
-8.79428e-27
-1.80106e-29
9.79017e-28
1.4582e-28
-4.34016e-28
-5.71558e-28
5.59338e-28
1.79264e-28
-3.72483e-28
9.6741e-28
5.55056e-28
6.81982e-28
2.98812e-28
-3.80455e-28
5.0918e-28
-1.25796e-28
-9.08728e-30
9.94799e-24
1.40038e-24
-7.18692e-27
9.17544e-27
-2.08172e-27
-6.15007e-28
1.24647e-28
0
4.89379e-28
1.51143e-27
-3.18027e-28
-7.96378e-28
-8.8952e-28
-3.49329e-28
-1.19679e-27
-2.39382e-27
7.41996e-28
-2.89699e-28
-8.52619e-28
-1.1458e-28
7.80844e-24
-1.21808e-25
2.2239e-25
-2.78213e-27
4.3212e-27
-8.06992e-28
1.85133e-28
-1.1183e-27
2.25373e-28
-1.53114e-28
-1.05144e-28
0
0
3.74142e-28
2.37168e-27
-7.99859e-29
-5.12881e-28
-2.35091e-28
-1.56425e-28
-5.52423e-29
1.20759e-23
1.46475e-24
3.34208e-25
2.54291e-26
0
1.13935e-27
2.08723e-27
1.67952e-28
-1.60375e-28
1.30438e-27
8.50403e-28
-6.43452e-28
-1.35398e-27
6.0953e-28
1.36222e-27
4.35264e-28
2.49422e-27
1.35702e-29
-2.92191e-28
0
1.75576e-23
3.13347e-24
3.67724e-25
-2.51365e-27
3.76991e-27
-7.91883e-28
1.51724e-27
5.3496e-28
0
5.02446e-29
-1.18927e-27
-2.22475e-28
-2.69723e-27
-1.81565e-27
0
-1.50559e-29
1.34371e-28
-2.39836e-27
0
1.27732e-28
1.45293e-23
2.50511e-24
1.26832e-25
5.5514e-27
1.38976e-27
-4.04614e-29
2.72429e-29
-1.56786e-28
-1.04601e-27
1.97973e-27
1.01413e-27
3.12776e-28
-4.0324e-28
1.17661e-27
1.12295e-27
-2.38358e-28
-3.41464e-28
7.23487e-28
7.50394e-28
-3.58215e-28
1.12508e-23
2.11259e-24
1.10771e-25
8.77334e-27
1.35767e-28
1.05428e-27
1.07407e-27
-4.33254e-28
0
1.12281e-29
0
0
-5.8563e-28
0
1.2921e-28
1.04211e-28
4.57808e-28
0
-6.54137e-28
-1.12995e-27
5.95775e-24
7.42552e-25
1.34368e-25
1.02906e-26
2.42066e-27
4.66432e-28
-3.95693e-28
6.96183e-28
0
5.57275e-28
-7.85257e-28
1.6791e-28
3.90544e-28
6.22023e-28
-7.9562e-29
-6.67628e-28
0
9.2176e-28
2.74334e-28
-1.24696e-27
2.24208e-25
-3.07954e-25
1.07511e-25
0
3.59496e-27
6.10744e-28
-1.67868e-27
0
-4.80112e-28
-8.10179e-28
1.49038e-28
-3.7476e-28
-2.60048e-27
1.45037e-28
2.60625e-28
-1.36108e-28
0
-1.55602e-27
0
9.55038e-28
-5.21363e-24
-1.79439e-24
-1.4486e-26
2.35664e-27
-2.91411e-27
-8.8174e-28
1.8375e-28
-1.06302e-28
5.43563e-28
-5.95354e-28
5.76992e-28
1.48041e-27
8.741e-29
1.65493e-27
9.84264e-28
-3.12654e-28
2.21071e-27
0
0
-2.36995e-28
-1.07924e-23
-3.26254e-24
-2.18676e-25
1.16694e-26
-1.56977e-27
-1.62178e-27
-3.30573e-28
-2.13662e-28
0
-1.89949e-28
-5.63917e-28
1.44404e-27
3.85755e-28
-1.07753e-27
-5.09213e-28
-4.29275e-28
2.87349e-28
-1.26115e-27
2.48385e-29
8.00985e-30
-1.83797e-23
-5.86706e-24
-8.86726e-26
0
-1.54819e-27
3.69798e-28
5.19464e-28
7.21546e-28
2.8855e-29
-5.15001e-28
1.75506e-28
-1.31375e-28
-2.35867e-28
-6.37405e-29
3.88974e-28
-6.42932e-28
2.55743e-28
-3.62608e-29
-3.20791e-28
2.20166e-28
-1.97335e-23
-5.80786e-24
-1.08524e-25
-1.05472e-26
2.29532e-27
-3.4962e-27
-4.26514e-28
3.80433e-28
-1.01184e-29
0
2.85927e-28
8.19388e-30
0
0
-7.79465e-28
7.71093e-28
0
1.4066e-31
3.88609e-28
-4.65553e-28
-7.27044e-24
-2.21339e-24
-2.57391e-25
1.73347e-26
-4.06443e-27
1.8783e-28
-3.73074e-28
-8.65965e-29
-1.03283e-27
0
1.26863e-28
0
-2.82698e-28
0
-1.14831e-27
-1.13881e-27
0
-1.27023e-28
4.58113e-28
-3.55549e-28
)
;

boundaryField
{
    movingWall
    {
        type            calculated;
        value           nonuniform List<scalar> 
20
(
2.90035e-24
1.90781e-24
-5.70716e-25
6.33541e-26
-1.10451e-26
7.6935e-28
-2.44498e-27
-8.51278e-28
-1.40223e-27
1.59777e-28
-1.03926e-28
-4.15375e-28
-1.38952e-27
-6.3997e-28
-3.19704e-27
-1.86583e-27
0
-1.70815e-28
4.92998e-28
-1.8358e-29
)
;
    }
    fixedWalls
    {
        type            calculated;
        value           nonuniform List<scalar> 
60
(
-1.9213e-23
-3.57988e-23
-5.90017e-23
-7.00625e-23
-4.69474e-23
-1.28667e-23
2.3156e-23
3.66602e-23
3.54921e-23
6.04406e-23
8.66327e-23
6.74289e-23
5.10413e-23
3.03983e-23
1.94358e-24
-2.97274e-23
-6.22275e-23
-9.39915e-23
-1.03711e-22
-4.38619e-23
0
0
0
0
-4.40054e-28
-4.85987e-28
-1.48886e-29
-2.60583e-28
0
0
3.4153e-28
-8.302e-28
-1.85131e-27
-1.66765e-27
1.46024e-27
-4.38446e-28
1.31233e-29
4.70486e-28
-8.25104e-28
-5.73352e-28
6.39104e-25
8.02858e-25
-6.09311e-25
8.48352e-26
-1.99714e-26
2.23296e-27
-1.19351e-27
8.67131e-28
-4.566e-28
-4.9089e-28
-6.3396e-28
-8.7308e-28
-7.63368e-28
-8.15676e-28
0
0
5.8943e-30
9.63545e-29
3.9617e-29
0
)
;
    }
    frontAndBack
    {
        type            empty;
    }
}


// ************************************************************************* //
