/*--------------------------------*- C++ -*----------------------------------*\
| =========                 |                                                 |
| \\      /  F ield         | OpenFOAM: The Open Source CFD Toolbox           |
|  \\    /   O peration     | Version:  2312                                  |
|   \\  /    A nd           | Website:  www.openfoam.com                      |
|    \\/     M anipulation  |                                                 |
\*---------------------------------------------------------------------------*/
FoamFile
{
    version     2.0;
    format      ascii;
    arch        "LSB;label=32;scalar=64";
    class       surfaceScalarField;
    location    "8.5";
    object      surfaceDivU;
}
// * * * * * * * * * * * * * * * * * * * * * * * * * * * * * * * * * * * * * //

dimensions      [0 0 -1 0 0 0 0];

internalField   nonuniform List<scalar> 
760
(
3.88374e-12
-1.68051e-12
-6.08864e-13
1.94342e-13
1.3078e-13
-2.19217e-14
-4.03671e-14
-2.47645e-15
1.9388e-14
2.90853e-14
-2.13561e-14
-1.67766e-14
-1.37926e-14
2.85079e-16
3.44864e-15
-1.85209e-15
4.02477e-15
-1.59994e-15
1.88669e-15
-1.87904e-15
5.12045e-15
-4.1048e-15
2.50598e-15
2.17107e-14
-1.3618e-14
-3.35248e-15
-1.08359e-14
-1.28915e-14
1.83722e-16
1.77884e-14
2.66594e-15
-1.65862e-15
2.50736e-17
1.44082e-15
-3.11406e-15
5.57045e-15
-7.03951e-16
-1.60003e-14
0
-5.36991e-12
-7.18284e-12
7.81284e-13
9.00533e-13
-1.55178e-13
-2.2506e-13
6.69759e-14
5.2236e-14
-7.07927e-15
1.19554e-14
4.86452e-15
-2.26747e-14
1.22256e-14
2.68331e-14
-6.90068e-15
-1.47223e-14
-7.50375e-15
-1.28115e-14
-7.87054e-15
1.9174e-15
1.24854e-14
-3.83268e-15
1.58522e-14
5.8968e-15
-2.62597e-15
-9.33031e-15
1.57328e-14
-3.0566e-14
1.5946e-14
5.763e-15
-2.88374e-15
2.48538e-15
6.9862e-15
-8.42482e-15
-7.31578e-15
5.1923e-15
-1.52963e-14
1.10921e-14
0
-9.12398e-13
3.03577e-12
-1.05811e-13
-1.78724e-13
-1.76455e-14
-3.35458e-15
-2.78461e-15
-8.41341e-15
-3.64004e-15
-1.23963e-14
-7.06069e-16
-1.09743e-14
-1.14753e-16
1.66928e-14
-2.0633e-14
-2.21287e-14
-3.39029e-15
-7.88548e-15
5.95527e-15
1.57097e-14
-1.04213e-14
-2.70053e-14
-1.92857e-14
2.10007e-14
-3.72704e-14
1.57311e-14
-4.05358e-14
-2.44092e-14
-7.69766e-15
5.00235e-15
-3.0557e-15
-3.37813e-15
-1.02187e-14
-7.28259e-15
2.36002e-14
5.8261e-15
2.63885e-14
3.2206e-14
-1.35525e-14
3.76944e-12
2.18196e-12
-7.62669e-14
-2.32539e-13
5.87755e-15
6.86202e-14
-1.80251e-14
4.24965e-15
-1.97306e-14
-6.55746e-15
6.42458e-15
2.79365e-15
-5.32109e-15
1.42247e-14
-9.38112e-15
-2.40776e-14
1.12145e-14
-3.90206e-15
-1.72509e-14
1.44288e-14
4.41672e-15
-3.15122e-14
5.60176e-14
3.58979e-14
2.85923e-14
9.85167e-15
2.11289e-14
6.80656e-15
9.32188e-15
2.83246e-14
-7.60502e-15
-6.49893e-15
8.76223e-15
8.40351e-15
1.44319e-14
6.04077e-15
-7.73497e-15
1.36991e-14
-1.35525e-14
-1.82002e-12
-1.91091e-12
-8.76518e-14
9.07285e-14
6.69923e-14
1.11397e-14
1.57173e-14
3.34834e-14
1.59668e-14
-1.04702e-14
1.05938e-14
5.165e-15
-4.53179e-15
-6.86371e-15
-1.85985e-14
-5.8261e-15
-6.87784e-16
1.2574e-14
1.67434e-16
1.35483e-14
-3.10443e-17
-1.60533e-14
-1.0268e-14
2.63461e-14
-1.1934e-14
-1.66262e-14
1.40023e-14
2.25792e-15
1.25038e-14
1.84449e-14
9.5096e-15
9.14466e-15
5.68204e-15
-2.66021e-14
5.30799e-15
1.75072e-14
7.88158e-15
1.77431e-14
-1.35525e-14
-1.5531e-16
2.87314e-12
1.8952e-13
-6.49724e-13
-2.23691e-14
9.88225e-14
7.29598e-15
-2.18618e-14
-2.12719e-14
-8.54224e-15
-1.22925e-14
-1.9456e-15
-8.15803e-15
-1.45649e-15
2.53464e-14
-4.16348e-15
2.681e-14
3.14585e-15
-2.67251e-15
-9.87773e-15
1.03238e-14
-5.29771e-15
1.99879e-14
3.29297e-14
-2.43425e-15
-7.90335e-15
6.70055e-15
-2.44463e-15
1.50858e-14
-3.69479e-15
-2.6967e-14
-2.76322e-14
-1.47769e-14
-7.58008e-15
2.99423e-14
2.17944e-14
-3.69103e-15
1.74025e-14
-2.71051e-14
2.22357e-12
-2.38524e-12
-7.40421e-13
5.18416e-13
9.93298e-14
-1.28834e-13
-3.77e-14
4.82982e-14
1.07841e-14
1.88361e-15
8.89039e-15
1.08749e-14
2.53806e-15
1.11576e-14
-2.6364e-14
-1.01457e-14
-3.35419e-14
-1.58465e-14
-1.25029e-14
-2.77368e-14
1.73082e-14
3.45922e-14
5.03843e-15
6.66864e-15
-7.91373e-15
-1.06679e-14
-1.284e-14
-3.12901e-14
-4.64128e-14
9.28506e-15
-8.24528e-15
-4.45013e-15
2.89913e-14
-5.84703e-15
9.25457e-15
2.86922e-16
-6.01156e-15
2.20825e-14
-1.35525e-14
-4.0904e-12
-1.80249e-12
1.13e-12
3.078e-13
-1.79866e-13
-6.38452e-14
8.78819e-14
1.59348e-14
1.97445e-15
-7.1484e-15
1.31421e-14
-4.52065e-15
-1.52617e-15
-5.23716e-15
3.71807e-16
2.07588e-14
-1.00414e-14
-5.43996e-15
1.93582e-14
-1.50311e-14
2.39526e-14
4.108e-14
-9.0377e-15
-1.22247e-14
-3.40442e-14
-1.55038e-14
-9.16504e-15
-2.25859e-14
5.12477e-14
1.04596e-14
-2.05188e-15
3.32493e-14
-3.45514e-14
-3.38371e-14
1.31149e-14
6.17981e-15
1.45416e-14
4.86358e-15
-1.35525e-14
2.59571e-12
4.17418e-12
-8.86048e-13
-9.98216e-13
1.31955e-13
1.80514e-13
-7.90954e-14
-6.8784e-14
-1.36435e-14
5.00565e-15
-2.28999e-14
1.69348e-14
1.70478e-14
-2.9113e-14
1.49471e-14
2.18947e-14
-1.04296e-14
-2.23609e-14
6.69061e-15
-7.48615e-15
4.90265e-15
1.2917e-14
-1.86908e-14
2.64252e-15
-4.04545e-15
1.01697e-14
-2.96135e-15
2.46709e-14
-7.53889e-15
1.01485e-14
1.46404e-15
-6.98378e-16
6.89405e-15
-1.33798e-14
-2.07148e-15
-1.77805e-15
-2.32305e-14
-3.65426e-15
-1.35525e-14
5.80252e-13
-2.84603e-12
6.83458e-14
1.09645e-12
-2.02255e-14
-1.99556e-13
1.53171e-14
8.03295e-14
3.55839e-14
-3.53102e-14
1.07217e-14
3.66268e-14
-2.42661e-14
-1.68934e-14
-1.54132e-14
2.38591e-14
-1.94174e-14
-2.00713e-14
-1.25974e-15
3.1205e-15
1.06569e-14
-8.545e-15
3.1503e-14
2.59217e-14
3.88861e-14
5.73737e-15
3.77808e-14
-2.07404e-14
1.6989e-14
2.57169e-14
-1.55422e-14
-1.04381e-14
-2.20519e-14
-2.03169e-14
-3.36082e-15
3.79331e-14
6.02371e-15
1.22397e-14
0
-2.32984e-12
8.94467e-13
8.28546e-13
-6.76531e-13
-9.90005e-14
1.54601e-13
2.97023e-14
-8.1206e-14
-3.42673e-14
-7.06044e-15
9.0117e-15
9.78058e-15
3.12318e-14
-9.51452e-15
1.9201e-14
1.72031e-14
2.46664e-15
-4.95231e-14
-4.16476e-15
3.86756e-14
6.71976e-15
4.01473e-15
1.56015e-16
3.06551e-14
-5.38891e-14
-4.03164e-14
-3.28043e-14
-1.03503e-14
-1.71024e-15
2.5547e-14
-1.52128e-14
7.58161e-15
3.96681e-14
-3.66612e-15
5.35336e-14
2.91769e-14
6.216e-15
2.35906e-14
-2.71051e-14
2.54777e-12
6.91179e-13
-1.35048e-12
-3.5214e-13
1.72396e-13
7.33747e-14
-1.17969e-13
-1.66816e-14
3.69874e-14
-5.47438e-15
-8.74564e-15
4.6378e-15
-2.35432e-14
-1.7378e-14
-5.15211e-14
-6.28507e-15
-1.33142e-14
-4.22205e-14
4.68551e-14
3.76689e-14
2.79501e-14
7.16042e-15
-9.81733e-15
1.59773e-14
3.22241e-15
-1.36053e-15
4.80009e-14
2.25097e-14
3.48388e-14
-9.87003e-16
1.91283e-14
5.95595e-15
-1.41573e-14
1.31288e-14
-7.66172e-16
-1.93147e-14
-9.7305e-15
2.26824e-14
-1.26218e-28
-2.20873e-12
-1.02999e-12
1.07171e-12
6.7976e-13
-1.15703e-13
-1.24891e-13
9.58128e-14
9.74835e-14
-3.7824e-14
3.11562e-15
-3.99452e-15
-3.72271e-14
-1.19822e-16
2.4987e-14
3.01549e-15
-8.17676e-15
8.76263e-15
8.556e-15
-2.02571e-15
2.15198e-14
-4.8123e-15
-8.38162e-15
2.44341e-14
1.3798e-14
1.79268e-14
5.60029e-15
-2.64782e-14
-3.06549e-14
-2.98699e-14
1.21144e-14
-4.35452e-17
-6.06228e-15
7.97141e-15
1.29139e-14
4.13391e-15
-1.64012e-14
3.24129e-14
1.77928e-14
-2.65057e-28
1.8585e-12
1.55854e-12
-5.16841e-13
-5.04766e-13
8.8295e-14
6.43114e-14
4.78629e-15
-1.53289e-14
3.71252e-15
-9.75486e-15
-8.24556e-15
-3.84549e-14
1.69301e-14
4.92099e-14
-2.63624e-15
-1.38531e-14
2.13132e-14
-1.34905e-14
1.51639e-14
1.83858e-14
1.02287e-14
-1.09176e-15
-5.03583e-15
1.92628e-14
-4.29814e-14
6.79889e-15
7.93772e-15
-2.43131e-14
3.5922e-14
3.49999e-14
6.89517e-15
-1.30337e-14
-1.14587e-14
8.39331e-16
-2.74235e-15
1.41877e-14
-1.46201e-14
1.71445e-14
-2.71051e-14
-8.04726e-13
-3.93023e-12
7.63871e-14
7.44032e-13
-3.93125e-14
-1.60318e-13
-2.98701e-14
6.46872e-14
-5.19222e-14
-2.57421e-14
1.90006e-14
1.86931e-14
1.84268e-14
7.28585e-15
-2.47073e-14
9.29055e-15
-1.64178e-14
-1.31758e-14
2.13019e-15
-1.84472e-15
7.9423e-15
-2.43111e-15
3.10975e-14
1.75022e-14
2.54672e-14
-4.36719e-15
2.7491e-15
2.4041e-15
-1.39558e-14
4.01728e-15
-1.90895e-14
-6.24328e-15
2.64858e-14
-1.40138e-14
3.40746e-14
2.91868e-14
4.65957e-15
1.37804e-14
0
-2.38147e-12
3.30682e-12
5.07328e-13
-2.3265e-13
-5.63181e-14
8.52258e-14
6.88152e-14
-5.58585e-14
4.48732e-14
4.41553e-15
6.97829e-15
3.71337e-14
-1.85038e-15
-2.56165e-14
2.08221e-14
-4.25222e-15
1.39732e-15
2.01025e-15
-6.40602e-15
-1.30035e-14
7.12881e-15
1.12791e-14
-1.79624e-14
2.64188e-14
-2.74303e-14
-3.48151e-14
3.67228e-15
-1.68766e-14
1.17298e-14
2.45028e-14
-1.1675e-15
1.19154e-14
-1.13128e-14
1.02366e-14
8.89267e-15
-1.71691e-14
9.12088e-15
1.87e-14
-1.35525e-14
5.45564e-12
3.64563e-12
-6.54752e-13
-4.95552e-13
8.56854e-14
1.26048e-13
-1.20258e-13
-6.87325e-14
-3.32402e-15
-1.7307e-14
4.53895e-15
2.89969e-14
-2.80183e-14
-2.06775e-14
-2.30641e-14
-1.97711e-15
-1.23905e-14
-1.15888e-14
4.68166e-15
-4.00278e-15
3.05691e-14
1.04829e-14
9.56615e-15
2.77594e-14
-2.42613e-14
-1.83105e-14
3.95392e-15
-1.99946e-14
2.46884e-14
2.89706e-15
2.33195e-14
-1.71784e-14
4.3803e-15
2.20247e-14
-7.36179e-15
-1.45964e-14
-3.97346e-15
2.90463e-15
-1.35525e-14
-2.30556e-12
-8.29415e-12
2.85248e-13
8.68129e-13
-2.83695e-14
-1.65266e-13
3.42187e-14
9.00944e-14
1.50139e-14
-2.03669e-14
3.78046e-15
1.75104e-14
5.36365e-15
-1.99706e-14
9.49813e-15
3.88975e-14
-3.20109e-15
-1.9802e-14
1.79849e-15
1.04169e-15
7.67322e-15
-8.91909e-15
-1.1727e-16
2.19361e-14
-1.40438e-14
-1.72724e-14
-2.10515e-14
-1.30733e-14
-3.89697e-14
-6.60975e-15
-1.84731e-14
-2.33462e-14
3.04805e-15
4.39752e-15
-4.32998e-15
-2.24174e-14
-6.67444e-15
1.19799e-14
0
-5.12045e-12
-7.04731e-13
4.17616e-13
-2.14438e-13
-4.68019e-14
8.99531e-14
3.55089e-14
-1.47822e-14
-1.78704e-14
-1.74715e-14
-6.24072e-15
-3.98884e-16
1.35632e-14
-5.84184e-15
9.59734e-15
3.29575e-14
-1.55592e-14
-2.33602e-14
-9.67589e-15
-5.75154e-15
5.34375e-15
-3.92435e-15
4.7809e-15
9.2681e-15
-1.6302e-14
-4.4872e-15
1.36841e-15
1.73772e-15
9.01375e-15
-3.69314e-16
-4.75531e-16
-4.16946e-15
-2.1068e-14
3.69393e-15
-6.10753e-15
-1.12094e-14
1.86544e-14
4.57594e-14
-2.71051e-14
4.20128e-12
-5.42101e-13
1.21973e-13
-6.77626e-14
0
0
1.35525e-14
-8.20415e-29
-1.35525e-14
0
0
0
1.35525e-14
0
-1.35525e-14
0
1.35525e-14
4.06576e-14
-3.34477e-28
)
;

boundaryField
{
    movingWall
    {
        type            calculated;
        value           nonuniform List<scalar> 
20
(
9.86624e-12
-1.46367e-12
3.79471e-13
-1.35525e-13
0
0
0
2.71051e-14
-2.71051e-14
0
0
0
0
2.71051e-14
-2.71051e-14
0
0
2.71051e-14
5.42101e-14
-5.42101e-14
)
;
    }
    fixedWalls
    {
        type            calculated;
        value           nonuniform List<scalar> 
60
(
9.37835e-12
-1.27394e-11
-1.6263e-12
7.69784e-12
-3.33392e-12
-4.87891e-13
6.23416e-12
-1.10047e-11
7.39968e-12
9.48677e-13
-6.64074e-12
8.42967e-12
-7.04731e-12
4.98733e-12
-1.87025e-12
-5.99022e-12
1.26039e-11
-5.31259e-12
-1.12757e-11
9.86624e-12
0
0
0
-2.71051e-14
0
-2.71051e-14
-2.71051e-14
0
-2.71051e-14
0
0
-5.42101e-14
5.42101e-14
-5.42101e-14
0
0
-2.71051e-14
0
0
-5.42101e-14
9.37835e-12
-1.61087e-12
3.93147e-13
-1.31586e-13
5.08522e-14
-1.20763e-14
-3.06358e-14
3.05055e-15
3.84674e-15
4.2028e-15
-4.29412e-16
1.06703e-14
-5.65836e-15
-2.15776e-14
-9.40738e-17
4.61517e-16
4.87037e-15
-4.82022e-15
-1.4079e-15
0
)
;
    }
    frontAndBack
    {
        type            empty;
        value           nonuniform List<scalar> 0();
    }
}


// ************************************************************************* //
