/*--------------------------------*- C++ -*----------------------------------*\
| =========                 |                                                 |
| \\      /  F ield         | OpenFOAM: The Open Source CFD Toolbox           |
|  \\    /   O peration     | Version:  2312                                  |
|   \\  /    A nd           | Website:  www.openfoam.com                      |
|    \\/     M anipulation  |                                                 |
\*---------------------------------------------------------------------------*/
FoamFile
{
    version     2.0;
    format      ascii;
    arch        "LSB;label=32;scalar=64";
    class       surfaceVectorField;
    location    "8.5";
    object      surfaceU;
}
// * * * * * * * * * * * * * * * * * * * * * * * * * * * * * * * * * * * * * //

dimensions      [0 1 -1 0 0 0 0];

internalField   nonuniform List<vector> 
760
(
(-1 2.98708e-14 0)
(-1 4.79048e-14 0)
(-1 -6.0596e-15 0)
(-1 -9.95172e-15 0)
(-1 1.41221e-15 0)
(-1 2.23678e-15 0)
(-1 -3.04882e-16 0)
(-1 -5.22407e-16 0)
(-1 1.06844e-16 0)
(-1 1.18736e-16 0)
(-1 5.84314e-17 0)
(-1 7.5144e-17 0)
(-1 4.02329e-17 0)
(-1 1.17871e-16 0)
(-1 7.68946e-18 0)
(-1 1.52527e-17 0)
(-1 3.33938e-17 0)
(-1 1.92337e-17 0)
(-1 5.18169e-17 0)
(-1 2.1014e-17 0)
(-1 8.75056e-17 0)
(-1 -2.14706e-18 0)
(-1 1.12081e-16 0)
(-1 5.33516e-17 0)
(-1 9.04997e-17 0)
(-1 1.07233e-16 0)
(-1 6.03985e-17 0)
(-1 2.76371e-17 0)
(-1 1.59093e-17 0)
(-1 -4.70369e-19 0)
(-1 -4.47573e-18 0)
(-1 2.30759e-18 0)
(-1 -4.14392e-18 0)
(-1 2.43518e-17 0)
(-1 -1.49925e-17 0)
(-1 -2.41011e-17 0)
(-1 -1.27622e-17 0)
(-1 -7.03951e-18 0)
(-1 6.2916e-18 0)
(-1 8.08233e-15 0)
(-1 -1.7318e-14 0)
(-1 -1.65534e-15 0)
(-1 3.49258e-15 0)
(-1 3.02166e-16 0)
(-1 -9.65223e-16 0)
(-1 -9.87884e-17 0)
(-1 9.10662e-17 0)
(-1 8.70354e-17 0)
(-1 -9.89331e-17 0)
(-1 1.34584e-16 0)
(-1 2.81405e-17 0)
(-1 9.28912e-17 0)
(-1 2.05048e-17 0)
(-1 2.6797e-17 0)
(-1 -3.37737e-17 0)
(-1 6.85393e-18 0)
(-1 -3.52331e-17 0)
(-1 -3.29499e-17 0)
(-1 -3.98044e-17 0)
(-1 -3.63011e-17 0)
(-1 -3.8901e-17 0)
(-1 4.85044e-17 0)
(-1 2.82297e-17 0)
(-1 4.43708e-17 0)
(-1 1.30292e-16 0)
(-1 -3.32319e-17 0)
(-1 -2.10267e-17 0)
(-1 -1.40721e-17 0)
(-1 -9.26963e-17 0)
(-1 3.11352e-17 0)
(-1 -1.88938e-17 0)
(-1 4.39465e-18 0)
(-1 -9.9436e-18 0)
(-1 -1.61482e-17 0)
(-1 -5.57197e-17 0)
(-1 1.20143e-17 0)
(-1 -1.7438e-17 0)
(-1 1.80246e-17 0)
(-1 -2.19078e-14 0)
(-1 -2.76414e-14 0)
(-1 4.1827e-15 0)
(-1 5.37722e-15 0)
(-1 -1.17632e-15 0)
(-1 -1.4209e-15 0)
(-1 9.09214e-17 0)
(-1 1.60243e-16 0)
(-1 -1.57828e-16 0)
(-1 -1.88089e-16 0)
(-1 -8.59387e-17 0)
(-1 -1.19362e-16 0)
(-1 -1.0616e-16 0)
(-1 -1.58749e-16 0)
(-1 -9.58038e-17 0)
(-1 -1.13449e-16 0)
(-1 -8.18915e-17 0)
(-1 -9.28814e-17 0)
(-1 -4.57555e-17 0)
(-1 -7.65468e-17 0)
(-1 2.56298e-17 0)
(-1 5.74214e-19 0)
(-1 1.10018e-16 0)
(-1 3.07384e-17 0)
(-1 6.48948e-17 0)
(-1 4.74552e-17 0)
(-1 -8.04911e-17 0)
(-1 -1.3583e-17 0)
(-1 -9.75181e-17 0)
(-1 -1.20724e-16 0)
(-1 -5.99726e-17 0)
(-1 -9.17777e-17 0)
(-1 -7.0058e-17 0)
(-1 -7.43046e-17 0)
(-1 -5.70096e-17 0)
(-1 -2.78826e-17 0)
(-1 -1.14278e-17 0)
(-1 -7.16599e-18 0)
(-1 -1.90115e-18 0)
(-1 -3.56434e-16 0)
(-1 1.82833e-14 0)
(-1 -2.26379e-16 0)
(-1 -4.58948e-15 0)
(-1 -8.43346e-17 0)
(-1 8.45254e-16 0)
(-1 -1.18768e-16 0)
(-1 -3.79902e-16 0)
(-1 -1.49623e-16 0)
(-1 -7.13993e-17 0)
(-1 -1.92173e-16 0)
(-1 -1.25906e-16 0)
(-1 -1.66038e-16 0)
(-1 -8.08984e-17 0)
(-1 -1.10526e-16 0)
(-1 2.76875e-17 0)
(-1 -8.75367e-17 0)
(-1 1.40266e-17 0)
(-1 -3.02172e-17 0)
(-1 -3.74068e-17 0)
(-1 5.68279e-18 0)
(-1 4.23368e-19 0)
(-1 -3.1824e-17 0)
(-1 -9.17814e-17 0)
(-1 -3.10226e-17 0)
(-1 -1.61194e-16 0)
(-1 -5.38161e-17 0)
(-1 -9.4984e-17 0)
(-1 -1.14984e-16 0)
(-1 -1.00303e-16 0)
(-1 -1.0611e-16 0)
(-1 -7.75289e-17 0)
(-1 -3.21293e-17 0)
(-1 1.47874e-18 0)
(-1 2.1961e-17 0)
(-1 8.61436e-17 0)
(-1 2.36067e-18 0)
(-1 5.81755e-17 0)
(-1 -2.15627e-17 0)
(-1 1.40503e-14 0)
(-1 -3.25496e-15 0)
(-1 -3.51785e-15 0)
(-1 2.31211e-16 0)
(-1 5.49686e-16 0)
(-1 -2.94577e-16 0)
(-1 -3.32534e-16 0)
(-1 -1.19702e-16 0)
(-1 -4.76828e-17 0)
(-1 -1.29701e-16 0)
(-1 -1.46322e-17 0)
(-1 -1.17208e-16 0)
(-1 1.12827e-16 0)
(-1 -4.79052e-17 0)
(-1 1.5224e-16 0)
(-1 2.58731e-18 0)
(-1 6.41565e-17 0)
(-1 -5.30472e-17 0)
(-1 -6.76629e-18 0)
(-1 -8.93559e-17 0)
(-1 -9.70409e-17 0)
(-1 -4.4495e-17 0)
(-1 -2.21152e-16 0)
(-1 -9.13407e-17 0)
(-1 -2.25156e-16 0)
(-1 -1.46865e-16 0)
(-1 -1.41471e-16 0)
(-1 -1.08001e-16 0)
(-1 -6.28479e-17 0)
(-1 -2.30267e-17 0)
(-1 3.00595e-17 0)
(-1 1.25397e-17 0)
(-1 1.19752e-16 0)
(-1 8.25563e-17 0)
(-1 1.22358e-16 0)
(-1 1.09789e-16 0)
(-1 3.42521e-17 0)
(-1 7.88158e-17 0)
(-1 -1.8985e-18 0)
(-1 -1.7074e-14 0)
(-1 -4.57847e-15 0)
(-1 3.45448e-15 0)
(-1 1.3537e-15 0)
(-1 -9.63966e-16 0)
(-1 -2.71652e-16 0)
(-1 8.31311e-17 0)
(-1 1.83486e-16 0)
(-1 -1.99225e-16 0)
(-1 2.49989e-17 0)
(-1 -1.50481e-16 0)
(-1 -1.02193e-16 0)
(-1 -1.58145e-16 0)
(-1 -1.56257e-16 0)
(-1 -2.027e-16 0)
(-1 -1.96374e-16 0)
(-1 -2.0656e-16 0)
(-1 -2.27789e-16 0)
(-1 -1.27085e-16 0)
(-1 -1.81737e-16 0)
(-1 -3.87949e-17 0)
(-1 -1.16038e-16 0)
(-1 -1.70538e-17 0)
(-1 -5.17744e-17 0)
(-1 -2.97099e-17 0)
(-1 -1.93972e-17 0)
(-1 1.04432e-17 0)
(-1 -4.94526e-18 0)
(-1 5.23609e-17 0)
(-1 7.19508e-17 0)
(-1 6.50365e-17 0)
(-1 7.89069e-17 0)
(-1 7.2594e-17 0)
(-1 5.79984e-17 0)
(-1 6.6247e-17 0)
(-1 6.52831e-17 0)
(-1 4.26652e-17 0)
(-1 9.8615e-17 0)
(-1 5.28188e-17 0)
(-1 1.38493e-14 0)
(-1 2.35812e-14 0)
(-1 -2.37243e-15 0)
(-1 -5.00491e-15 0)
(-1 8.758e-16 0)
(-1 1.25988e-15 0)
(-1 1.25354e-16 0)
(-1 -1.31054e-16 0)
(-1 1.22032e-16 0)
(-1 1.60629e-16 0)
(-1 -1.07969e-16 0)
(-1 -5.27885e-17 0)
(-1 -1.94486e-16 0)
(-1 -1.29358e-16 0)
(-1 -2.21462e-16 0)
(-1 -1.16312e-16 0)
(-1 -2.02966e-16 0)
(-1 -1.47328e-16 0)
(-1 -1.70691e-16 0)
(-1 -1.88091e-16 0)
(-1 -1.29018e-16 0)
(-1 -2.07989e-16 0)
(-1 -5.41178e-17 0)
(-1 -1.6103e-16 0)
(-1 5.36743e-18 0)
(-1 -5.96362e-17 0)
(-1 5.65623e-17 0)
(-1 -1.95011e-17 0)
(-1 9.84968e-17 0)
(-1 2.66266e-17 0)
(-1 7.18689e-17 0)
(-1 5.13464e-17 0)
(-1 5.06874e-17 0)
(-1 1.72612e-18 0)
(-1 9.7651e-17 0)
(-1 1.7136e-17 0)
(-1 1.08769e-16 0)
(-1 7.54097e-17 0)
(-1 5.44951e-17 0)
(-1 4.72699e-15 0)
(-1 -2.61387e-14 0)
(-1 -1.3726e-15 0)
(-1 5.31016e-15 0)
(-1 2.53023e-16 0)
(-1 -1.32849e-15 0)
(-1 -9.57785e-17 0)
(-1 2.0746e-16 0)
(-1 -1.41909e-17 0)
(-1 -1.41793e-16 0)
(-1 -7.41773e-17 0)
(-1 -1.09513e-16 0)
(-1 -5.1184e-17 0)
(-1 -1.65642e-16 0)
(-1 -4.21781e-17 0)
(-1 -1.20671e-16 0)
(-1 -1.32453e-16 0)
(-1 -1.46662e-16 0)
(-1 -2.25389e-16 0)
(-1 -2.24803e-16 0)
(-1 -2.40001e-16 0)
(-1 -2.59241e-16 0)
(-1 -1.66548e-16 0)
(-1 -1.78859e-16 0)
(-1 -8.45048e-17 0)
(-1 -4.70428e-17 0)
(-1 -4.94368e-17 0)
(-1 -2.23491e-17 0)
(-1 -2.05238e-17 0)
(-1 -6.93013e-17 0)
(-1 -1.87964e-17 0)
(-1 -9.58477e-17 0)
(-1 -3.18253e-17 0)
(-1 -6.01964e-17 0)
(-1 -5.10531e-18 0)
(-1 -1.42668e-17 0)
(-1 2.11362e-17 0)
(-1 9.89027e-18 0)
(-1 1.95976e-17 0)
(-1 -2.55555e-14 0)
(-1 5.5526e-15 0)
(-1 5.35427e-15 0)
(-1 -6.05854e-16 0)
(-1 -1.37406e-15 0)
(-1 1.47939e-16 0)
(-1 1.61445e-16 0)
(-1 -4.8112e-17 0)
(-1 -2.37115e-16 0)
(-1 -6.52161e-17 0)
(-1 -2.00977e-16 0)
(-1 -7.12189e-17 0)
(-1 -2.35128e-16 0)
(-1 -1.5778e-16 0)
(-1 -2.25154e-16 0)
(-1 -2.13842e-16 0)
(-1 -2.39012e-16 0)
(-1 -1.78788e-16 0)
(-1 -2.58655e-16 0)
(-1 -1.96559e-16 0)
(-1 -1.98099e-16 0)
(-1 -2.78636e-16 0)
(-1 -5.93538e-17 0)
(-1 -2.14438e-16 0)
(-1 1.51128e-17 0)
(-1 -1.07995e-16 0)
(-1 -4.22136e-17 0)
(-1 -6.7985e-17 0)
(-1 -1.44625e-16 0)
(-1 -9.71538e-17 0)
(-1 -1.37248e-16 0)
(-1 -1.1376e-16 0)
(-1 -4.26379e-17 0)
(-1 -7.12441e-18 0)
(-1 7.288e-19 0)
(-1 7.60649e-17 0)
(-1 8.35162e-18 0)
(-1 3.87456e-17 0)
(-1 2.9788e-17 0)
(-1 3.05022e-14 0)
(-1 1.34688e-14 0)
(-1 -5.81218e-15 0)
(-1 -2.8711e-15 0)
(-1 1.47388e-15 0)
(-1 7.08524e-16 0)
(-1 -2.74774e-16 0)
(-1 -2.33152e-16 0)
(-1 1.0068e-16 0)
(-1 -2.02527e-17 0)
(-1 -2.80221e-17 0)
(-1 -3.04839e-17 0)
(-1 -1.36494e-16 0)
(-1 -1.33349e-16 0)
(-1 -1.67476e-16 0)
(-1 -2.44837e-16 0)
(-1 -1.36334e-16 0)
(-1 -1.80346e-16 0)
(-1 -2.1654e-16 0)
(-1 -1.49353e-16 0)
(-1 -2.94976e-16 0)
(-1 -2.6982e-16 0)
(-1 -2.63079e-16 0)
(-1 -3.01238e-16 0)
(-1 -1.91093e-16 0)
(-1 -1.96884e-16 0)
(-1 -1.22925e-16 0)
(-1 -9.18815e-17 0)
(-1 -6.62891e-17 0)
(-1 -7.24119e-17 0)
(-1 1.63629e-17 0)
(-1 -2.87486e-17 0)
(-1 1.11578e-16 0)
(-1 8.8514e-18 0)
(-1 1.14082e-16 0)
(-1 4.16799e-17 0)
(-1 6.01819e-17 0)
(-1 6.02371e-17 0)
(-1 4.79834e-17 0)
(-1 -1.99045e-14 0)
(-1 -1.58506e-14 0)
(-1 3.64961e-15 0)
(-1 2.85802e-15 0)
(-1 -9.98512e-16 0)
(-1 -6.712e-16 0)
(-1 2.13684e-17 0)
(-1 -4.77543e-17 0)
(-1 -1.51417e-16 0)
(-1 -1.97324e-16 0)
(-1 -1.35811e-16 0)
(-1 -1.45349e-16 0)
(-1 -2.41692e-16 0)
(-1 -1.7111e-16 0)
(-1 -2.57707e-16 0)
(-1 -1.94199e-16 0)
(-1 -1.93365e-16 0)
(-1 -1.55892e-16 0)
(-1 -2.02633e-16 0)
(-1 -9.04921e-17 0)
(-1 -2.76082e-16 0)
(-1 -8.66808e-17 0)
(-1 -2.35042e-16 0)
(-1 -1.17172e-16 0)
(-1 -9.76729e-17 0)
(-1 -1.6793e-17 0)
(-1 -4.13683e-17 0)
(-1 2.00026e-17 0)
(-1 -3.48714e-17 0)
(-1 -7.69951e-17 0)
(-1 -3.62601e-17 0)
(-1 -7.56326e-17 0)
(-1 -6.10471e-17 0)
(-1 -7.64955e-17 0)
(-1 -1.21646e-17 0)
(-1 -6.89251e-17 0)
(-1 4.80386e-17 0)
(-1 6.216e-17 0)
(-1 7.24596e-17 0)
(-1 6.91192e-15 0)
(-1 1.56258e-14 0)
(-1 -1.46279e-15 0)
(-1 -2.84707e-15 0)
(-1 2.79558e-16 0)
(-1 7.26437e-16 0)
(-1 -2.66446e-16 0)
(-1 -2.22205e-16 0)
(-1 -1.91256e-16 0)
(-1 -1.44331e-16 0)
(-1 -1.80648e-16 0)
(-1 -1.63421e-16 0)
(-1 -1.23617e-16 0)
(-1 -5.95607e-17 0)
(-1 -9.23841e-17 0)
(-1 -4.03461e-17 0)
(-1 -5.30193e-17 0)
(-1 -6.82886e-17 0)
(-1 2.54604e-17 0)
(-1 -6.48532e-17 0)
(-1 7.22287e-17 0)
(-1 -8.69714e-18 0)
(-1 1.01077e-16 0)
(-1 1.71472e-17 0)
(-1 1.00883e-16 0)
(-1 2.02048e-17 0)
(-1 -1.56241e-17 0)
(-1 1.20194e-17 0)
(-1 -1.17756e-16 0)
(-1 -7.41112e-17 0)
(-1 -1.15868e-16 0)
(-1 -1.19602e-16 0)
(-1 -8.43735e-17 0)
(-1 -9.5691e-17 0)
(-1 5.39952e-18 0)
(-1 -4.5882e-17 0)
(-1 8.6581e-17 0)
(-1 3.82203e-17 0)
(-1 5.19576e-17 0)
(-1 5.86684e-15 0)
(-1 -1.2111e-14 0)
(-1 -6.57841e-16 0)
(-1 2.7138e-15 0)
(-1 2.24674e-16 0)
(-1 -8.05842e-16 0)
(-1 -1.0009e-16 0)
(-1 5.53893e-17 0)
(-1 -1.16496e-16 0)
(-1 -1.81463e-16 0)
(-1 -4.23339e-17 0)
(-1 -6.12516e-17 0)
(-1 2.371e-17 0)
(-1 2.13063e-17 0)
(-1 -1.62507e-17 0)
(-1 -2.25046e-17 0)
(-1 -8.01226e-17 0)
(-1 -8.28658e-17 0)
(-1 -9.90108e-17 0)
(-1 -1.00558e-16 0)
(-1 -6.37786e-17 0)
(-1 -5.5224e-17 0)
(-1 -6.37252e-17 0)
(-1 7.10096e-18 0)
(-1 -6.86584e-17 0)
(-1 -3.38101e-17 0)
(-1 -4.64677e-17 0)
(-1 -5.79727e-17 0)
(-1 -7.59567e-17 0)
(-1 -7.12841e-17 0)
(-1 -9.94249e-17 0)
(-1 -9.18892e-17 0)
(-1 -5.71996e-17 0)
(-1 -4.40715e-17 0)
(-1 -1.30612e-17 0)
(-1 -1.17396e-17 0)
(-1 3.59693e-18 0)
(-1 -8.24466e-17 0)
(-1 -5.22616e-17 0)
(-1 -1.5264e-14 0)
(-1 1.29358e-14 0)
(-1 2.5658e-15 0)
(-1 -3.37009e-15 0)
(-1 -9.75127e-16 0)
(-1 3.7008e-16 0)
(-1 -2.59838e-17 0)
(-1 -3.00282e-16 0)
(-1 -1.26218e-16 0)
(-1 -5.84313e-17 0)
(-1 2.38869e-18 0)
(-1 -3.99688e-17 0)
(-1 -2.49082e-17 0)
(-1 -4.24868e-17 0)
(-1 -8.91197e-17 0)
(-1 -5.9263e-17 0)
(-1 -1.03302e-16 0)
(-1 -1.02625e-16 0)
(-1 -5.67716e-17 0)
(-1 -9.08195e-17 0)
(-1 1.56556e-17 0)
(-1 -2.85922e-17 0)
(-1 3.70161e-17 0)
(-1 -4.64599e-18 0)
(-1 -2.31244e-17 0)
(-1 -4.57123e-17 0)
(-1 -8.27892e-17 0)
(-1 -1.13051e-16 0)
(-1 -8.72166e-17 0)
(-1 -7.86224e-17 0)
(-1 -3.65359e-17 0)
(-1 3.12663e-17 0)
(-1 1.38843e-18 0)
(-1 3.76854e-17 0)
(-1 -8.1125e-17 0)
(-1 -1.67475e-17 0)
(-1 -1.38305e-16 0)
(-1 -1.46201e-16 0)
(-1 -9.88484e-17 0)
(-1 2.48298e-14 0)
(-1 2.17386e-15 0)
(-1 -5.56581e-15 0)
(-1 -7.28891e-16 0)
(-1 1.04492e-15 0)
(-1 -1.33541e-16 0)
(-1 -3.32729e-16 0)
(-1 -1.24058e-16 0)
(-1 2.78181e-17 0)
(-1 -3.91173e-17 0)
(-1 -8.48443e-17 0)
(-1 -7.35293e-17 0)
(-1 -7.68416e-17 0)
(-1 -1.4304e-16 0)
(-1 -7.2768e-17 0)
(-1 -7.92679e-17 0)
(-1 -9.01425e-17 0)
(-1 -3.22803e-17 0)
(-1 -6.26401e-17 0)
(-1 3.62728e-18 0)
(-1 -4.88938e-17 0)
(-1 1.76746e-17 0)
(-1 -8.73744e-17 0)
(-1 -7.37769e-17 0)
(-1 -1.35639e-16 0)
(-1 -1.57349e-16 0)
(-1 -1.08884e-16 0)
(-1 -1.3008e-16 0)
(-1 3.98605e-17 0)
(-1 2.20455e-17 0)
(-1 1.05488e-16 0)
(-1 1.09447e-16 0)
(-1 1.95495e-17 0)
(-1 -2.92921e-17 0)
(-1 -8.18238e-17 0)
(-1 -1.12426e-16 0)
(-1 -1.06745e-16 0)
(-1 -8.89296e-17 0)
(-1 -6.15327e-17 0)
(-1 -2.33848e-14 0)
(-1 -2.66862e-14 0)
(-1 4.70337e-15 0)
(-1 5.32318e-15 0)
(-1 -1.30252e-15 0)
(-1 -1.46964e-15 0)
(-1 1.69554e-16 0)
(-1 9.33036e-17 0)
(-1 -1.40465e-16 0)
(-1 -2.18303e-16 0)
(-1 -1.31725e-16 0)
(-1 -1.46116e-16 0)
(-1 -1.45466e-16 0)
(-1 -1.90677e-16 0)
(-1 -3.87802e-17 0)
(-1 -9.88771e-17 0)
(-1 6.14895e-17 0)
(-1 3.60476e-17 0)
(-1 8.3942e-17 0)
(-1 1.13451e-16 0)
(-1 -7.2085e-18 0)
(-1 9.35395e-17 0)
(-1 -1.43752e-16 0)
(-1 -2.22514e-17 0)
(-1 -1.5179e-16 0)
(-1 -1.57373e-16 0)
(-1 8.49889e-19 0)
(-1 -1.1693e-16 0)
(-1 9.16322e-17 0)
(-1 1.81273e-17 0)
(-1 -2.53325e-17 0)
(-1 -3.63547e-17 0)
(-1 -1.61267e-16 0)
(-1 -1.10846e-16 0)
(-1 -1.19532e-16 0)
(-1 -1.37807e-16 0)
(-1 -4.37178e-17 0)
(-1 -4.43165e-17 0)
(-1 -4.58079e-17 0)
(-1 2.02179e-15 0)
(-1 4.0221e-14 0)
(-1 -8.49826e-16 0)
(-1 -8.86941e-15 0)
(-1 -7.38083e-17 0)
(-1 1.91532e-15 0)
(-1 -2.94553e-16 0)
(-1 -6.51889e-16 0)
(-1 -2.23954e-16 0)
(-1 -1.44117e-16 0)
(-1 -2.05068e-16 0)
(-1 -2.95699e-16 0)
(-1 -1.44088e-16 0)
(-1 -2.01013e-16 0)
(-1 -2.40493e-17 0)
(-1 -7.91703e-17 0)
(-1 8.80089e-17 0)
(-1 -1.59451e-17 0)
(-1 1.23048e-16 0)
(-1 2.75651e-17 0)
(-1 7.84966e-17 0)
(-1 1.92515e-17 0)
(-1 -3.58726e-17 0)
(-1 1.53886e-17 0)
(-1 -1.22513e-16 0)
(-1 -5.52524e-17 0)
(-1 -9.96524e-17 0)
(-1 -5.18358e-17 0)
(-1 -1.0986e-16 0)
(-1 -4.41503e-17 0)
(-1 -1.21868e-16 0)
(-1 -1.15542e-16 0)
(-1 -8.73855e-17 0)
(-1 -5.7839e-17 0)
(-1 -6.25922e-17 0)
(-1 -3.38834e-17 0)
(-1 -4.64065e-17 0)
(-1 -3.97346e-17 0)
(-1 -4.72854e-17 0)
(-1 2.93298e-14 0)
(-1 1.16777e-14 0)
(-1 -6.10427e-15 0)
(-1 -2.59133e-15 0)
(-1 1.33724e-15 0)
(-1 4.29368e-16 0)
(-1 -5.01453e-16 0)
(-1 -3.06486e-16 0)
(-1 -2.15862e-16 0)
(-1 -1.64479e-16 0)
(-1 -2.91644e-16 0)
(-1 -2.27483e-16 0)
(-1 -1.36095e-16 0)
(-1 -1.41288e-16 0)
(-1 -7.10661e-17 0)
(-1 -7.61261e-17 0)
(-1 -7.63889e-17 0)
(-1 -9.99431e-17 0)
(-1 -7.62317e-17 0)
(-1 -6.7593e-17 0)
(-1 -4.38565e-17 0)
(-1 -4.99474e-17 0)
(-1 -3.99116e-18 0)
(-1 -8.84568e-18 0)
(-1 1.54244e-17 0)
(-1 7.67298e-18 0)
(-1 3.66632e-18 0)
(-1 -1.25853e-17 0)
(-1 -4.98326e-17 0)
(-1 -6.24044e-17 0)
(-1 -5.15131e-17 0)
(-1 -5.6242e-17 0)
(-1 -4.33681e-18 0)
(-1 7.03589e-18 0)
(-1 -1.10257e-17 0)
(-1 2.34446e-17 0)
(-1 -4.06135e-17 0)
(-1 -6.67444e-17 0)
(-1 -5.97485e-17 0)
(-1 -2.02434e-14 0)
(-1 -5.07715e-14 0)
(-1 3.94231e-15 0)
(-1 1.04595e-14 0)
(-1 -1.21436e-15 0)
(-1 -2.62413e-15 0)
(-1 3.04875e-17 0)
(-1 3.94279e-16 0)
(-1 -1.761e-16 0)
(-1 -1.74715e-16 0)
(-1 -7.71276e-17 0)
(-1 -3.98884e-18 0)
(-1 -8.13191e-17 0)
(-1 -5.84184e-17 0)
(-1 -1.05003e-16 0)
(-1 -7.70005e-17 0)
(-1 -9.11472e-17 0)
(-1 -9.80766e-17 0)
(-1 -4.13087e-17 0)
(-1 -5.75154e-17 0)
(-1 -1.49366e-17 0)
(-1 -3.92435e-17 0)
(-1 2.81846e-18 0)
(-1 -4.28443e-17 0)
(-1 -2.03367e-17 0)
(-1 -4.4872e-17 0)
(-1 -7.86559e-17 0)
(-1 -1.18148e-16 0)
(-1 -6.88138e-17 0)
(-1 -1.39218e-16 0)
(-1 2.30705e-18 0)
(-1 -4.16946e-17 0)
(-1 3.48173e-17 0)
(-1 3.69393e-17 0)
(-1 -3.2274e-17 0)
(-1 2.34316e-17 0)
(-1 -8.58794e-17 0)
(-1 -8.45069e-17 0)
(-1 -6.42146e-17 0)
(-1 -2.00686e-14 0)
(-1 3.89304e-15 0)
(-1 -1.01549e-15 0)
(-1 1.89076e-16 0)
(-1 -2.60391e-18 0)
(-1 1.47203e-17 0)
(-1 -5.40998e-17 0)
(-1 -7.0074e-17 0)
(-1 -6.44448e-17 0)
(-1 -5.54502e-17 0)
(-1 -6.71512e-17 0)
(-1 -9.05347e-17 0)
(-1 -1.42683e-16 0)
(-1 -1.7871e-16 0)
(-1 -1.12099e-16 0)
(-1 -7.06236e-18 0)
(-1 2.55536e-17 0)
(-1 -2.88012e-17 0)
(-1 -6.28421e-17 0)
)
;

boundaryField
{
    movingWall
    {
        type            calculated;
        value           uniform (-1 -0 -0);
    }
    fixedWalls
    {
        type            calculated;
        value           uniform (-1 -0 -0);
    }
    frontAndBack
    {
        type            empty;
        value           nonuniform List<vector> 0();
    }
}


// ************************************************************************* //
