/*--------------------------------*- C++ -*----------------------------------*\
| =========                 |                                                 |
| \\      /  F ield         | OpenFOAM: The Open Source CFD Toolbox           |
|  \\    /   O peration     | Version:  2312                                  |
|   \\  /    A nd           | Website:  www.openfoam.com                      |
|    \\/     M anipulation  |                                                 |
\*---------------------------------------------------------------------------*/
FoamFile
{
    version     2.0;
    format      ascii;
    arch        "LSB;label=32;scalar=64";
    class       surfaceScalarField;
    location    "8.5";
    object      surfaceP;
}
// * * * * * * * * * * * * * * * * * * * * * * * * * * * * * * * * * * * * * //

dimensions      [0 2 -2 0 0 0 0];

internalField   nonuniform List<scalar> 
760
(
1.88838e-15
1.54444e-15
2.77481e-15
1.63209e-15
2.51905e-15
2.40707e-15
2.70756e-15
2.64121e-15
2.84765e-15
2.78436e-15
3.11504e-15
3.02383e-15
3.22834e-15
3.08288e-15
3.16908e-15
3.19304e-15
3.04915e-15
3.11389e-15
2.98429e-15
3.029e-15
2.95548e-15
2.97377e-15
3.16286e-15
2.90854e-15
3.39881e-15
3.38633e-15
3.33858e-15
3.40814e-15
3.23663e-15
3.24178e-15
3.23755e-15
3.21909e-15
3.33351e-15
3.22848e-15
3.57933e-15
3.41641e-15
3.88342e-15
3.78123e-15
4.01006e-15
1.28814e-15
2.54751e-15
1.26435e-15
1.0939e-15
2.52923e-15
2.57513e-15
2.71801e-15
2.66273e-15
2.96053e-15
2.92039e-15
2.99167e-15
3.0406e-15
3.04759e-15
2.97138e-15
3.13785e-15
3.16697e-15
3.09373e-15
3.16183e-15
3.01847e-15
3.07134e-15
2.92683e-15
3.03096e-15
3.132e-15
2.9706e-15
3.39566e-15
3.30736e-15
3.31135e-15
3.43426e-15
3.22425e-15
3.30727e-15
3.21002e-15
3.25459e-15
3.31138e-15
3.21605e-15
3.6183e-15
3.4463e-15
3.90787e-15
3.78105e-15
3.96155e-15
2.35326e-15
2.24521e-15
2.40467e-15
2.38755e-15
2.70863e-15
2.6532e-15
2.8651e-15
2.84629e-15
3.00045e-15
3.01333e-15
3.02031e-15
3.03856e-15
3.09076e-15
2.98087e-15
3.19095e-15
3.243e-15
3.13944e-15
3.19858e-15
3.08383e-15
3.09649e-15
3.07474e-15
3.15555e-15
3.14596e-15
3.06267e-15
3.34597e-15
3.16783e-15
3.43019e-15
3.40498e-15
3.33762e-15
3.41754e-15
3.26062e-15
3.35792e-15
3.35097e-15
3.33285e-15
3.60904e-15
3.44981e-15
3.83472e-15
3.75654e-15
3.95738e-15
2.2795e-15
2.10988e-15
2.63608e-15
2.65764e-15
2.79086e-15
2.72366e-15
2.99452e-15
2.96012e-15
3.05144e-15
3.09098e-15
2.99913e-15
3.05329e-15
3.1331e-15
3.03185e-15
3.25063e-15
3.30212e-15
3.15563e-15
3.2932e-15
3.16821e-15
3.13273e-15
3.14348e-15
3.19968e-15
3.08455e-15
3.16112e-15
3.22684e-15
3.26457e-15
3.39233e-15
3.35469e-15
3.43784e-15
3.41117e-15
3.43015e-15
3.45753e-15
3.43169e-15
3.43514e-15
3.59731e-15
3.47576e-15
3.87919e-15
3.74788e-15
4.01788e-15
2.48801e-15
2.31622e-15
2.74521e-15
2.64284e-15
2.89291e-15
2.89385e-15
3.05659e-15
3.03336e-15
3.09283e-15
3.16255e-15
3.08601e-15
3.12322e-15
3.20086e-15
3.15452e-15
3.34469e-15
3.27747e-15
3.27029e-15
3.33519e-15
3.16419e-15
3.25099e-15
3.21731e-15
3.23709e-15
3.34114e-15
3.33801e-15
3.39241e-15
3.48494e-15
3.37353e-15
3.43379e-15
3.43086e-15
3.3659e-15
3.46252e-15
3.45025e-15
3.47922e-15
3.45399e-15
3.62634e-15
3.50225e-15
3.88658e-15
3.76471e-15
4.07601e-15
2.47105e-15
2.61952e-15
2.79149e-15
3.50804e-15
3.0343e-15
2.99612e-15
3.13932e-15
3.06567e-15
3.19294e-15
3.16673e-15
3.19173e-15
3.26304e-15
3.23113e-15
3.2754e-15
3.26798e-15
3.38361e-15
3.31588e-15
3.49928e-15
3.32389e-15
3.46854e-15
3.35778e-15
3.38979e-15
3.48181e-15
3.42898e-15
3.52632e-15
3.63395e-15
3.42616e-15
3.51567e-15
3.38529e-15
3.30188e-15
3.44173e-15
3.42866e-15
3.47703e-15
3.41604e-15
3.64062e-15
3.5391e-15
3.95414e-15
3.75336e-15
4.03683e-15
3.65651e-15
3.28233e-15
3.71268e-15
2.56172e-15
3.02749e-15
3.04603e-15
3.09309e-15
3.07562e-15
3.23684e-15
3.12581e-15
3.34671e-15
3.36825e-15
3.42788e-15
3.52958e-15
3.61492e-15
3.60649e-15
3.65194e-15
3.709e-15
3.53445e-15
3.68031e-15
3.46098e-15
3.4924e-15
3.58112e-15
3.50354e-15
3.6233e-15
3.65328e-15
3.39139e-15
3.58505e-15
3.34526e-15
3.25822e-15
3.40298e-15
3.33447e-15
3.47811e-15
3.4532e-15
3.65184e-15
3.57874e-15
3.83605e-15
3.62497e-15
3.8725e-15
2.18754e-15
3.32246e-15
1.89507e-15
2.99892e-15
3.09416e-15
3.2289e-15
3.10834e-15
3.25106e-15
3.25722e-15
3.27683e-15
3.55112e-15
3.53336e-15
3.70819e-15
3.72967e-15
3.70057e-15
3.67565e-15
3.73736e-15
3.75492e-15
3.63826e-15
3.80782e-15
3.53496e-15
3.55334e-15
3.5757e-15
3.60247e-15
3.61503e-15
3.62701e-15
3.45188e-15
3.61826e-15
3.24744e-15
3.33496e-15
3.3847e-15
3.26234e-15
3.55383e-15
3.42439e-15
3.55187e-15
3.50848e-15
3.66142e-15
3.55665e-15
3.81955e-15
4.13384e-15
3.19483e-15
4.33275e-15
4.2679e-15
3.3858e-15
3.48979e-15
3.41955e-15
3.38071e-15
3.55298e-15
3.39752e-15
3.71192e-15
3.68129e-15
3.69714e-15
3.80449e-15
3.72999e-15
3.7559e-15
3.82537e-15
3.87689e-15
3.72291e-15
3.87377e-15
3.62085e-15
3.71948e-15
3.65378e-15
3.69932e-15
3.63024e-15
3.67043e-15
3.50134e-15
3.62351e-15
3.34986e-15
3.35136e-15
3.30203e-15
3.33214e-15
3.37904e-15
3.35082e-15
3.51326e-15
3.39105e-15
3.71478e-15
3.51913e-15
3.75712e-15
3.32889e-15
3.49348e-15
3.42495e-15
2.52455e-15
3.4847e-15
3.5971e-15
3.35868e-15
3.4054e-15
3.52584e-15
3.49787e-15
3.77386e-15
3.63919e-15
3.86326e-15
3.83619e-15
3.9028e-15
3.88814e-15
3.92529e-15
4.00963e-15
3.87035e-15
3.91516e-15
3.79795e-15
3.93823e-15
3.71598e-15
3.86912e-15
3.66371e-15
3.78339e-15
3.47354e-15
3.69529e-15
3.33364e-15
3.34276e-15
3.38093e-15
3.38107e-15
3.36283e-15
3.37959e-15
3.39693e-15
3.21569e-15
3.56147e-15
3.37358e-15
3.66029e-15
2.68915e-15
3.28759e-15
2.69671e-15
4.14775e-15
3.5178e-15
3.49044e-15
3.54459e-15
3.59969e-15
3.61122e-15
3.54201e-15
3.70151e-15
3.62319e-15
3.86106e-15
3.91289e-15
3.99497e-15
4.11492e-15
3.9995e-15
4.1267e-15
3.98305e-15
3.88628e-15
4.0094e-15
3.99767e-15
3.93653e-15
4.07995e-15
3.81497e-15
3.85928e-15
3.56451e-15
3.63129e-15
3.39018e-15
3.42865e-15
3.37973e-15
3.41902e-15
3.23245e-15
3.39764e-15
3.19234e-15
3.23252e-15
3.4724e-15
3.27763e-15
3.57781e-15
4.74619e-15
3.53102e-15
4.94148e-15
3.96393e-15
3.57233e-15
3.44151e-15
3.59711e-15
3.65928e-15
3.55398e-15
3.57803e-15
3.83457e-15
3.73565e-15
4.16675e-15
4.00737e-15
4.24666e-15
4.2398e-15
4.01348e-15
4.18236e-15
3.9009e-15
3.92175e-15
4.06822e-15
4.03212e-15
4.00271e-15
4.20591e-15
3.6756e-15
3.87605e-15
3.49543e-15
3.5212e-15
3.45749e-15
3.53034e-15
3.43693e-15
3.48681e-15
3.39771e-15
3.42391e-15
3.31781e-15
3.38182e-15
3.38304e-15
3.32227e-15
3.38688e-15
2.74876e-15
4.06548e-15
2.46396e-15
3.04886e-15
3.52845e-15
3.5074e-15
3.6402e-15
3.70656e-15
3.7597e-15
3.748e-15
3.90845e-15
3.93704e-15
4.08042e-15
3.92844e-15
4.1755e-15
4.1449e-15
4.09063e-15
4.19673e-15
4.05297e-15
4.05853e-15
4.1698e-15
4.13055e-15
4.07925e-15
4.21937e-15
3.72165e-15
3.9228e-15
3.55611e-15
3.48904e-15
3.55965e-15
3.53032e-15
3.47379e-15
3.58155e-15
3.40802e-15
3.47786e-15
3.38628e-15
3.38736e-15
3.32611e-15
3.35133e-15
3.39686e-15
4.36557e-15
4.13121e-15
4.0923e-15
4.22363e-15
3.68551e-15
3.84542e-15
3.81437e-15
3.91793e-15
3.92534e-15
3.9703e-15
3.95703e-15
4.01966e-15
3.99292e-15
3.83908e-15
4.16613e-15
4.05003e-15
4.16463e-15
4.20384e-15
4.13612e-15
4.1245e-15
4.18012e-15
4.15502e-15
4.06291e-15
4.16121e-15
3.69018e-15
3.84423e-15
3.46325e-15
3.52202e-15
3.55222e-15
3.55414e-15
3.58562e-15
3.63931e-15
3.45721e-15
3.52748e-15
3.35242e-15
3.35053e-15
3.42207e-15
3.41954e-15
3.58862e-15
3.98927e-15
4.33296e-15
3.97675e-15
3.5063e-15
4.07785e-15
4.28939e-15
4.07387e-15
4.08701e-15
4.06462e-15
4.0783e-15
3.90171e-15
3.98008e-15
3.89618e-15
3.9145e-15
4.08774e-15
3.96113e-15
4.16371e-15
4.09096e-15
4.1434e-15
4.09717e-15
4.13611e-15
4.09589e-15
3.94252e-15
4.08935e-15
3.67607e-15
3.81816e-15
3.61292e-15
3.58279e-15
3.64123e-15
3.56387e-15
3.58117e-15
3.5187e-15
3.42081e-15
3.52608e-15
3.41765e-15
3.41167e-15
3.58609e-15
3.55017e-15
3.67706e-15
3.85e-15
4.26566e-15
3.81894e-15
4.66594e-15
4.29855e-15
4.49511e-15
4.09145e-15
4.29696e-15
3.99377e-15
4.16826e-15
3.99287e-15
4.00659e-15
3.97944e-15
4.07741e-15
3.96435e-15
4.03342e-15
4.02441e-15
3.98714e-15
4.04965e-15
3.98291e-15
4.04913e-15
3.88593e-15
3.96498e-15
3.8739e-15
3.72488e-15
3.84737e-15
3.53374e-15
3.65415e-15
3.44134e-15
3.45302e-15
3.46361e-15
3.37016e-15
3.51694e-15
3.48981e-15
3.54419e-15
3.54848e-15
3.64114e-15
3.59712e-15
3.75619e-15
5.08161e-15
4.37693e-15
5.34212e-15
5.07938e-15
4.49353e-15
4.63955e-15
4.37377e-15
4.41242e-15
4.18108e-15
4.29154e-15
4.09113e-15
4.12607e-15
4.13139e-15
4.19877e-15
4.05621e-15
4.04854e-15
3.94563e-15
3.94525e-15
3.81919e-15
3.86012e-15
3.71071e-15
3.73909e-15
3.75629e-15
3.64351e-15
3.77664e-15
3.82316e-15
3.57343e-15
3.7766e-15
3.38184e-15
3.50422e-15
3.39635e-15
3.44828e-15
3.52135e-15
3.41358e-15
3.60141e-15
3.51769e-15
3.71216e-15
3.6057e-15
3.85821e-15
4.3747e-15
4.85061e-15
4.37681e-15
3.81519e-15
4.55844e-15
4.69817e-15
4.33019e-15
4.40855e-15
4.23653e-15
4.37212e-15
4.23371e-15
4.31053e-15
4.11592e-15
4.19758e-15
3.93758e-15
3.92583e-15
3.85973e-15
3.92434e-15
3.78002e-15
3.80199e-15
3.67189e-15
3.75242e-15
3.71038e-15
3.62148e-15
3.82311e-15
3.80039e-15
3.7074e-15
3.80511e-15
3.57067e-15
3.60409e-15
3.46551e-15
3.57554e-15
3.40993e-15
3.4304e-15
3.52198e-15
3.46229e-15
3.75175e-15
3.63046e-15
3.94037e-15
4.29109e-15
4.25267e-15
4.13656e-15
4.88041e-15
4.54829e-15
4.70286e-15
4.45049e-15
4.58596e-15
4.44612e-15
4.49996e-15
4.27439e-15
4.38902e-15
4.00749e-15
4.1324e-15
3.9126e-15
3.8989e-15
3.8666e-15
3.96687e-15
3.77439e-15
3.82285e-15
3.70201e-15
3.7649e-15
3.7115e-15
3.67971e-15
3.78239e-15
3.74423e-15
3.70181e-15
3.72139e-15
3.60896e-15
3.67148e-15
3.54043e-15
3.62564e-15
3.48277e-15
3.54305e-15
3.57077e-15
3.45968e-15
3.81908e-15
3.6962e-15
4.0601e-15
4.84199e-15
5.44672e-15
4.74054e-15
4.63543e-15
4.44286e-15
4.24703e-15
4.02381e-15
3.95317e-15
3.92312e-15
3.81336e-15
3.7426e-15
3.71244e-15
3.68323e-15
3.69107e-15
3.68817e-15
3.62826e-15
3.51996e-15
3.58512e-15
3.93723e-15
)
;

boundaryField
{
    movingWall
    {
        type            calculated;
        value           nonuniform List<scalar> 
20
(
3.52684e-15
6.15715e-15
4.73628e-15
4.74479e-15
4.52608e-15
4.35964e-15
4.13441e-15
3.91321e-15
3.99313e-15
3.85311e-15
3.77362e-15
3.71158e-15
3.71331e-15
3.65316e-15
3.72898e-15
3.64735e-15
3.60916e-15
3.43076e-15
3.73948e-15
4.13497e-15
)
;
    }
    fixedWalls
    {
        type            calculated;
        value           nonuniform List<scalar> 
60
(
5.27779e-16
2.56109e-15
2.53392e-15
1.9565e-15
2.26326e-15
2.36918e-15
2.86985e-15
3.69481e-15
2.95011e-15
3.43955e-15
3.54742e-15
3.02775e-15
4.03429e-15
4.09666e-15
4.16576e-15
4.50016e-15
4.03116e-15
4.7227e-15
4.97851e-15
3.52684e-15
4.01489e-15
4.00522e-15
3.91787e-15
3.99688e-15
4.03888e-15
4.11314e-15
3.96052e-15
3.78447e-15
3.85463e-15
3.65961e-15
3.66097e-15
3.49464e-15
3.27912e-15
3.51459e-15
3.66266e-15
3.69146e-15
3.82092e-15
3.8955e-15
3.98523e-15
4.13497e-15
5.27779e-16
3.24898e-15
2.30064e-15
2.73747e-15
2.67764e-15
3.01767e-15
3.21241e-15
3.24427e-15
3.09389e-15
3.00442e-15
2.96417e-15
2.9468e-15
3.37893e-15
3.4187e-15
3.25846e-15
3.2148e-15
3.2603e-15
3.40672e-15
3.75194e-15
4.01489e-15
)
;
    }
    frontAndBack
    {
        type            empty;
        value           nonuniform List<scalar> 0();
    }
}


// ************************************************************************* //
