/*--------------------------------*- C++ -*----------------------------------*\
| =========                 |                                                 |
| \\      /  F ield         | OpenFOAM: The Open Source CFD Toolbox           |
|  \\    /   O peration     | Version:  2312                                  |
|   \\  /    A nd           | Website:  www.openfoam.com                      |
|    \\/     M anipulation  |                                                 |
\*---------------------------------------------------------------------------*/
FoamFile
{
    version     2.0;
    format      ascii;
    arch        "LSB;label=32;scalar=64";
    class       volScalarField;
    location    "8.5";
    object      turbulenceProperties:I;
}
// * * * * * * * * * * * * * * * * * * * * * * * * * * * * * * * * * * * * * //

dimensions      [0 0 0 0 0 0 0];

internalField   nonuniform List<scalar> 
400
(
0.00153398
0.00153398
0.00153398
0.00153398
0.00153398
0.00153398
0.00153398
0.00153398
0.00153398
0.00153398
0.00153398
0.00153398
0.00153398
0.00153398
0.00153398
0.00153398
0.00153398
0.00153398
0.00153398
0.00153398
0.00154755
0.00154755
0.00154753
0.00154752
0.00154751
0.0015475
0.00154749
0.00154748
0.00154747
0.00154746
0.00154746
0.00154745
0.00154745
0.00154744
0.00154744
0.00154744
0.00154743
0.00154743
0.00154743
0.00154743
0.00156879
0.00156879
0.00156877
0.00156876
0.00156874
0.00156874
0.00156872
0.00156872
0.00156871
0.0015687
0.00156869
0.00156869
0.00156868
0.00156868
0.00156867
0.00156867
0.00156867
0.00156866
0.00156866
0.00156866
0.00159086
0.00159086
0.00159084
0.00159083
0.00159081
0.00159081
0.00159079
0.00159079
0.00159077
0.00159077
0.00159076
0.00159076
0.00159075
0.00159075
0.00159074
0.00159074
0.00159073
0.00159073
0.00159073
0.00159073
0.00160927
0.00160927
0.00160925
0.00160924
0.00160922
0.00160921
0.0016092
0.00160919
0.00160918
0.00160917
0.00160916
0.00160916
0.00160915
0.00160915
0.00160914
0.00160914
0.00160914
0.00160913
0.00160913
0.00160913
0.00162263
0.00162263
0.0016226
0.00162259
0.00162257
0.00162257
0.00162255
0.00162254
0.00162253
0.00162253
0.00162251
0.00162251
0.0016225
0.0016225
0.00162249
0.00162249
0.00162249
0.00162249
0.00162248
0.00162248
0.0016315
0.0016315
0.00163148
0.00163147
0.00163145
0.00163144
0.00163143
0.00163142
0.00163141
0.0016314
0.00163139
0.00163138
0.00163138
0.00163137
0.00163137
0.00163136
0.00163136
0.00163136
0.00163136
0.00163136
0.00163716
0.00163716
0.00163714
0.00163713
0.00163711
0.0016371
0.00163709
0.00163708
0.00163707
0.00163706
0.00163705
0.00163704
0.00163703
0.00163703
0.00163702
0.00163702
0.00163702
0.00163702
0.00163702
0.00163702
0.00164081
0.00164081
0.00164079
0.00164077
0.00164076
0.00164075
0.00164073
0.00164072
0.00164071
0.00164071
0.0016407
0.00164069
0.00164068
0.00164068
0.00164067
0.00164067
0.00164067
0.00164067
0.00164066
0.00164066
0.00164334
0.00164333
0.00164331
0.0016433
0.00164328
0.00164327
0.00164326
0.00164325
0.00164324
0.00164323
0.00164322
0.00164322
0.00164321
0.0016432
0.0016432
0.00164319
0.00164319
0.00164319
0.00164319
0.00164319
0.00164531
0.00164531
0.00164529
0.00164527
0.00164526
0.00164525
0.00164523
0.00164523
0.00164521
0.00164521
0.00164519
0.00164519
0.00164518
0.00164518
0.00164517
0.00164517
0.00164517
0.00164516
0.00164516
0.00164516
0.00164708
0.00164708
0.00164705
0.00164704
0.00164703
0.00164702
0.001647
0.00164699
0.00164698
0.00164698
0.00164696
0.00164696
0.00164695
0.00164695
0.00164694
0.00164694
0.00164693
0.00164693
0.00164693
0.00164693
0.00164884
0.00164884
0.00164881
0.0016488
0.00164879
0.00164878
0.00164876
0.00164875
0.00164874
0.00164873
0.00164872
0.00164872
0.00164871
0.00164871
0.0016487
0.0016487
0.00164869
0.00164869
0.00164869
0.00164869
0.0016507
0.0016507
0.00165067
0.00165066
0.00165064
0.00165064
0.00165062
0.00165061
0.0016506
0.00165059
0.00165058
0.00165058
0.00165057
0.00165057
0.00165056
0.00165056
0.00165055
0.00165055
0.00165055
0.00165055
0.0016527
0.0016527
0.00165268
0.00165267
0.00165265
0.00165264
0.00165262
0.00165261
0.0016526
0.0016526
0.00165259
0.00165258
0.00165257
0.00165257
0.00165256
0.00165256
0.00165256
0.00165255
0.00165255
0.00165255
0.00165483
0.00165483
0.0016548
0.00165479
0.00165478
0.00165477
0.00165475
0.00165474
0.00165473
0.00165473
0.00165471
0.00165471
0.0016547
0.0016547
0.00165469
0.00165469
0.00165468
0.00165468
0.00165468
0.00165468
0.00165698
0.00165698
0.00165696
0.00165694
0.00165693
0.00165692
0.0016569
0.00165689
0.00165688
0.00165687
0.00165686
0.00165686
0.00165685
0.00165685
0.00165684
0.00165684
0.00165683
0.00165683
0.00165683
0.00165683
0.00165896
0.00165896
0.00165894
0.00165892
0.00165891
0.00165889
0.00165888
0.00165887
0.00165886
0.00165885
0.00165884
0.00165884
0.00165883
0.00165882
0.00165882
0.00165882
0.00165881
0.00165881
0.00165881
0.00165881
0.00166051
0.00166051
0.00166048
0.00166047
0.00166045
0.00166044
0.00166043
0.00166042
0.00166041
0.0016604
0.00166039
0.00166039
0.00166038
0.00166037
0.00166037
0.00166037
0.00166036
0.00166036
0.00166036
0.00166036
0.00166122
0.00166122
0.00166122
0.00166122
0.00166122
0.00166122
0.00166122
0.00166121
0.00166121
0.00166121
0.00166121
0.00166121
0.00166121
0.00166121
0.00166121
0.00166121
0.00166121
0.00166121
0.00166121
0.00166121
)
;

boundaryField
{
    movingWall
    {
        type            calculated;
        value           nonuniform List<scalar> 
20
(
0.00166122
0.00166122
0.00166122
0.00166122
0.00166122
0.00166122
0.00166122
0.00166121
0.00166121
0.00166121
0.00166121
0.00166121
0.00166121
0.00166121
0.00166121
0.00166121
0.00166121
0.00166121
0.00166121
0.00166121
)
;
    }
    fixedWalls
    {
        type            calculated;
        value           nonuniform List<scalar> 
60
(
0.00153398
0.00154755
0.00156879
0.00159086
0.00160927
0.00162263
0.0016315
0.00163716
0.00164081
0.00164334
0.00164531
0.00164708
0.00164884
0.0016507
0.0016527
0.00165483
0.00165698
0.00165896
0.00166051
0.00166122
0.00153398
0.00154743
0.00156866
0.00159073
0.00160913
0.00162248
0.00163136
0.00163702
0.00164066
0.00164319
0.00164516
0.00164693
0.00164869
0.00165055
0.00165255
0.00165468
0.00165683
0.00165881
0.00166036
0.00166121
0.00153398
0.00153398
0.00153398
0.00153398
0.00153398
0.00153398
0.00153398
0.00153398
0.00153398
0.00153398
0.00153398
0.00153398
0.00153398
0.00153398
0.00153398
0.00153398
0.00153398
0.00153398
0.00153398
0.00153398
)
;
    }
    frontAndBack
    {
        type            empty;
    }
}


// ************************************************************************* //
