/*--------------------------------*- C++ -*----------------------------------*\
| =========                 |                                                 |
| \\      /  F ield         | OpenFOAM: The Open Source CFD Toolbox           |
|  \\    /   O peration     | Version:  2312                                  |
|   \\  /    A nd           | Website:  www.openfoam.com                      |
|    \\/     M anipulation  |                                                 |
\*---------------------------------------------------------------------------*/
FoamFile
{
    version     2.0;
    format      ascii;
    arch        "LSB;label=32;scalar=64";
    class       volSymmTensorField;
    location    "8.5";
    object      turbulenceProperties:R;
}
// * * * * * * * * * * * * * * * * * * * * * * * * * * * * * * * * * * * * * //

dimensions      [0 2 -2 0 0 0 0];

internalField   nonuniform List<symmTensor> 
400
(
(2.35311e-06 -6.60119e-18 -0 2.35311e-06 -0 2.35311e-06)
(2.3531e-06 7.79108e-18 -0 2.3531e-06 -0 2.3531e-06)
(2.3531e-06 -1.57272e-18 -0 2.3531e-06 -0 2.3531e-06)
(2.3531e-06 3.89952e-19 -0 2.3531e-06 -0 2.3531e-06)
(2.3531e-06 -1.15189e-19 -0 2.3531e-06 -0 2.3531e-06)
(2.3531e-06 1.01903e-20 -0 2.3531e-06 -0 2.3531e-06)
(2.3531e-06 3.83054e-21 -0 2.3531e-06 -0 2.3531e-06)
(2.3531e-06 6.84996e-21 -0 2.3531e-06 -0 2.3531e-06)
(2.3531e-06 -5.41041e-21 -0 2.3531e-06 -0 2.3531e-06)
(2.3531e-06 -3.87782e-21 -0 2.3531e-06 -0 2.3531e-06)
(2.3531e-06 -7.51201e-21 -0 2.3531e-06 -0 2.3531e-06)
(2.3531e-06 -3.3699e-20 -0 2.3531e-06 -0 2.3531e-06)
(2.3531e-06 4.54251e-21 -0 2.3531e-06 -0 2.3531e-06)
(2.3531e-06 6.33884e-20 -0 2.3531e-06 -0 2.3531e-06)
(2.3531e-06 9.3644e-21 -0 2.3531e-06 -0 2.3531e-06)
(2.3531e-06 4.29077e-21 -0 2.3531e-06 -0 2.3531e-06)
(2.3531e-06 5.69827e-20 -0 2.3531e-06 -0 2.3531e-06)
(2.3531e-06 2.28347e-21 -0 2.3531e-06 -0 2.3531e-06)
(2.3531e-06 -4.69436e-22 -0 2.3531e-06 -0 2.3531e-06)
(2.3531e-06 -2.68628e-21 -0 2.3531e-06 -0 2.3531e-06)
(2.39491e-06 -2.60829e-18 -0 2.39491e-06 -0 2.39491e-06)
(2.39491e-06 2.35321e-18 -0 2.39491e-06 -0 2.39491e-06)
(2.39485e-06 -3.32738e-19 -0 2.39485e-06 -0 2.39485e-06)
(2.39482e-06 1.73175e-19 -0 2.39482e-06 -0 2.39482e-06)
(2.39478e-06 1.05379e-19 -0 2.39478e-06 -0 2.39478e-06)
(2.39475e-06 7.68959e-20 -0 2.39475e-06 -0 2.39475e-06)
(2.39472e-06 9.59298e-20 -0 2.39472e-06 -0 2.39472e-06)
(2.39469e-06 7.21176e-20 -0 2.39469e-06 -0 2.39469e-06)
(2.39467e-06 6.21941e-20 -0 2.39467e-06 -0 2.39467e-06)
(2.39464e-06 6.64095e-20 -0 2.39464e-06 -0 2.39464e-06)
(2.39462e-06 5.85736e-20 -0 2.39462e-06 -0 2.39462e-06)
(2.39461e-06 6.8654e-20 -0 2.39461e-06 -0 2.39461e-06)
(2.39459e-06 8.81228e-22 -0 2.39459e-06 -0 2.39459e-06)
(2.39458e-06 1.65364e-20 -0 2.39458e-06 -0 2.39458e-06)
(2.39456e-06 5.36319e-20 -0 2.39456e-06 -0 2.39456e-06)
(2.39456e-06 4.80634e-20 -0 2.39456e-06 -0 2.39456e-06)
(2.39455e-06 -5.19516e-20 -0 2.39455e-06 -0 2.39455e-06)
(2.39454e-06 4.36625e-21 -0 2.39454e-06 -0 2.39454e-06)
(2.39454e-06 -5.98336e-21 -0 2.39454e-06 -0 2.39454e-06)
(2.39454e-06 2.55091e-21 -0 2.39454e-06 -0 2.39454e-06)
(2.46111e-06 7.36996e-18 -0 2.46111e-06 -0 2.46111e-06)
(2.46111e-06 -6.50815e-18 -0 2.46111e-06 -0 2.46111e-06)
(2.46104e-06 1.16579e-18 -0 2.46104e-06 -0 2.46104e-06)
(2.46101e-06 -4.22898e-19 -0 2.46101e-06 -0 2.46101e-06)
(2.46096e-06 -3.4288e-20 -0 2.46096e-06 -0 2.46096e-06)
(2.46093e-06 -1.03901e-19 -0 2.46093e-06 -0 2.46093e-06)
(2.4609e-06 -2.50171e-20 -0 2.4609e-06 -0 2.4609e-06)
(2.46087e-06 -6.10287e-20 -0 2.46087e-06 -0 2.46087e-06)
(2.46084e-06 -3.01455e-21 -0 2.46084e-06 -0 2.46084e-06)
(2.46082e-06 -7.82654e-21 -0 2.46082e-06 -0 2.46082e-06)
(2.46079e-06 -1.54476e-20 -0 2.46079e-06 -0 2.46079e-06)
(2.46078e-06 -1.82532e-20 -0 2.46078e-06 -0 2.46078e-06)
(2.46075e-06 9.75174e-21 -0 2.46075e-06 -0 2.46075e-06)
(2.46075e-06 -2.71458e-20 -0 2.46075e-06 -0 2.46075e-06)
(2.46073e-06 -5.48271e-20 -0 2.46073e-06 -0 2.46073e-06)
(2.46072e-06 -6.65747e-20 -0 2.46072e-06 -0 2.46072e-06)
(2.46071e-06 2.17395e-21 -0 2.46071e-06 -0 2.46071e-06)
(2.46071e-06 5.5587e-20 -0 2.46071e-06 -0 2.46071e-06)
(2.46071e-06 -9.81662e-21 -0 2.46071e-06 -0 2.46071e-06)
(2.4607e-06 -2.45953e-21 -0 2.4607e-06 -0 2.4607e-06)
(2.53085e-06 -7.50429e-19 -0 2.53085e-06 -0 2.53085e-06)
(2.53085e-06 1.80801e-19 -0 2.53085e-06 -0 2.53085e-06)
(2.53077e-06 -1.21036e-19 -0 2.53077e-06 -0 2.53077e-06)
(2.53074e-06 -5.21794e-20 -0 2.53074e-06 -0 2.53074e-06)
(2.53069e-06 -8.27804e-20 -0 2.53069e-06 -0 2.53069e-06)
(2.53067e-06 -2.04758e-20 -0 2.53067e-06 -0 2.53067e-06)
(2.53062e-06 -1.2503e-19 -0 2.53062e-06 -0 2.53062e-06)
(2.5306e-06 -1.22088e-20 -0 2.5306e-06 -0 2.5306e-06)
(2.53056e-06 -5.05174e-21 -0 2.53056e-06 -0 2.53056e-06)
(2.53055e-06 -1.25897e-20 -0 2.53055e-06 -0 2.53055e-06)
(2.53051e-06 -7.87815e-21 -0 2.53051e-06 -0 2.53051e-06)
(2.5305e-06 -5.12275e-20 -0 2.5305e-06 -0 2.5305e-06)
(2.53047e-06 -2.98769e-20 -0 2.53047e-06 -0 2.53047e-06)
(2.53047e-06 -5.43824e-20 -0 2.53047e-06 -0 2.53047e-06)
(2.53044e-06 -4.59366e-20 -0 2.53044e-06 -0 2.53044e-06)
(2.53044e-06 -6.12378e-20 -0 2.53044e-06 -0 2.53044e-06)
(2.53043e-06 -1.61706e-20 -0 2.53043e-06 -0 2.53043e-06)
(2.53043e-06 -7.10349e-20 -0 2.53043e-06 -0 2.53043e-06)
(2.53042e-06 -2.5316e-20 -0 2.53042e-06 -0 2.53042e-06)
(2.53042e-06 5.1519e-22 -0 2.53042e-06 -0 2.53042e-06)
(2.58975e-06 -4.8972e-18 -0 2.58975e-06 -0 2.58975e-06)
(2.58975e-06 4.37966e-18 -0 2.58975e-06 -0 2.58975e-06)
(2.58968e-06 -9.68347e-19 -0 2.58968e-06 -0 2.58968e-06)
(2.58964e-06 2.57287e-19 -0 2.58964e-06 -0 2.58964e-06)
(2.58959e-06 2.71315e-20 -0 2.58959e-06 -0 2.58959e-06)
(2.58956e-06 1.13412e-19 -0 2.58956e-06 -0 2.58956e-06)
(2.58952e-06 9.2296e-20 -0 2.58952e-06 -0 2.58952e-06)
(2.58949e-06 5.15371e-20 -0 2.58949e-06 -0 2.58949e-06)
(2.58946e-06 -4.06721e-20 -0 2.58946e-06 -0 2.58946e-06)
(2.58943e-06 -7.45789e-20 -0 2.58943e-06 -0 2.58943e-06)
(2.58941e-06 -1.00303e-19 -0 2.58941e-06 -0 2.58941e-06)
(2.58938e-06 -3.26046e-20 -0 2.58938e-06 -0 2.58938e-06)
(2.58937e-06 -2.91579e-20 -0 2.58937e-06 -0 2.58937e-06)
(2.58935e-06 4.15188e-20 -0 2.58935e-06 -0 2.58935e-06)
(2.58934e-06 -1.74072e-20 -0 2.58934e-06 -0 2.58934e-06)
(2.58932e-06 3.9422e-20 -0 2.58932e-06 -0 2.58932e-06)
(2.58932e-06 4.00995e-20 -0 2.58932e-06 -0 2.58932e-06)
(2.58931e-06 -5.76027e-22 -0 2.58931e-06 -0 2.58931e-06)
(2.58931e-06 4.9401e-20 -0 2.58931e-06 -0 2.58931e-06)
(2.58931e-06 -2.23567e-20 -0 2.58931e-06 -0 2.58931e-06)
(2.63291e-06 4.64547e-18 -0 2.63291e-06 -0 2.63291e-06)
(2.63291e-06 -4.99183e-18 -0 2.63291e-06 -0 2.63291e-06)
(2.63283e-06 9.94433e-19 -0 2.63283e-06 -0 2.63283e-06)
(2.6328e-06 -2.35557e-19 -0 2.6328e-06 -0 2.6328e-06)
(2.63275e-06 6.34618e-20 -0 2.63275e-06 -0 2.63275e-06)
(2.63272e-06 -1.09508e-20 -0 2.63272e-06 -0 2.63272e-06)
(2.63267e-06 1.72026e-21 -0 2.63267e-06 -0 2.63267e-06)
(2.63265e-06 9.99597e-21 -0 2.63265e-06 -0 2.63265e-06)
(2.6326e-06 8.65036e-22 -0 2.6326e-06 -0 2.6326e-06)
(2.63259e-06 7.3285e-20 -0 2.63259e-06 -0 2.63259e-06)
(2.63255e-06 1.01582e-19 -0 2.63255e-06 -0 2.63255e-06)
(2.63254e-06 5.57804e-20 -0 2.63254e-06 -0 2.63254e-06)
(2.63251e-06 3.31245e-20 -0 2.63251e-06 -0 2.63251e-06)
(2.6325e-06 -8.97164e-21 -0 2.6325e-06 -0 2.6325e-06)
(2.63248e-06 5.11515e-20 -0 2.63248e-06 -0 2.63248e-06)
(2.63247e-06 -2.82832e-21 -0 2.63247e-06 -0 2.63247e-06)
(2.63246e-06 -1.68488e-21 -0 2.63246e-06 -0 2.63246e-06)
(2.63246e-06 1.4143e-21 -0 2.63246e-06 -0 2.63246e-06)
(2.63245e-06 5.25248e-21 -0 2.63245e-06 -0 2.63245e-06)
(2.63245e-06 9.49661e-21 -0 2.63245e-06 -0 2.63245e-06)
(2.6618e-06 -2.31108e-18 -0 2.6618e-06 -0 2.6618e-06)
(2.6618e-06 3.79804e-18 -0 2.6618e-06 -0 2.6618e-06)
(2.66172e-06 -4.59068e-19 -0 2.66172e-06 -0 2.66172e-06)
(2.66168e-06 2.61724e-19 -0 2.66168e-06 -0 2.66168e-06)
(2.66163e-06 3.13794e-20 -0 2.66163e-06 -0 2.66163e-06)
(2.6616e-06 2.13415e-20 -0 2.6616e-06 -0 2.6616e-06)
(2.66155e-06 1.95258e-20 -0 2.66155e-06 -0 2.66155e-06)
(2.66152e-06 6.0854e-21 -0 2.66152e-06 -0 2.66152e-06)
(2.66149e-06 8.74658e-20 -0 2.66149e-06 -0 2.66149e-06)
(2.66146e-06 8.43207e-20 -0 2.66146e-06 -0 2.66146e-06)
(2.66144e-06 8.21302e-20 -0 2.66144e-06 -0 2.66144e-06)
(2.66141e-06 4.41275e-20 -0 2.66141e-06 -0 2.66141e-06)
(2.66139e-06 7.8015e-20 -0 2.66139e-06 -0 2.66139e-06)
(2.66138e-06 4.93928e-20 -0 2.66138e-06 -0 2.66138e-06)
(2.66136e-06 8.18487e-20 -0 2.66136e-06 -0 2.66136e-06)
(2.66135e-06 5.97407e-21 -0 2.66135e-06 -0 2.66135e-06)
(2.66134e-06 -5.60106e-20 -0 2.66134e-06 -0 2.66134e-06)
(2.66133e-06 5.02061e-20 -0 2.66133e-06 -0 2.66133e-06)
(2.66133e-06 -2.48979e-21 -0 2.66133e-06 -0 2.66133e-06)
(2.66133e-06 2.43424e-20 -0 2.66133e-06 -0 2.66133e-06)
(2.6803e-06 -1.7313e-18 -0 2.6803e-06 -0 2.6803e-06)
(2.6803e-06 1.54085e-18 -0 2.6803e-06 -0 2.6803e-06)
(2.68022e-06 -4.92296e-19 -0 2.68022e-06 -0 2.68022e-06)
(2.68018e-06 7.91772e-20 -0 2.68018e-06 -0 2.68018e-06)
(2.68013e-06 -4.92392e-20 -0 2.68013e-06 -0 2.68013e-06)
(2.68009e-06 1.3598e-20 -0 2.68009e-06 -0 2.68009e-06)
(2.68005e-06 2.54861e-20 -0 2.68005e-06 -0 2.68005e-06)
(2.68002e-06 -2.03869e-21 -0 2.68002e-06 -0 2.68002e-06)
(2.67998e-06 -1.02343e-20 -0 2.67998e-06 -0 2.67998e-06)
(2.67996e-06 -7.09022e-20 -0 2.67996e-06 -0 2.67996e-06)
(2.67992e-06 -8.85278e-20 -0 2.67992e-06 -0 2.67992e-06)
(2.67992e-06 -7.77725e-20 -0 2.67992e-06 -0 2.67992e-06)
(2.67988e-06 -7.96402e-20 -0 2.67988e-06 -0 2.67988e-06)
(2.67988e-06 -6.90122e-20 -0 2.67988e-06 -0 2.67988e-06)
(2.67985e-06 -3.70386e-20 -0 2.67985e-06 -0 2.67985e-06)
(2.67985e-06 -3.88904e-22 -0 2.67985e-06 -0 2.67985e-06)
(2.67983e-06 -2.7554e-20 -0 2.67983e-06 -0 2.67983e-06)
(2.67983e-06 -6.69462e-20 -0 2.67983e-06 -0 2.67983e-06)
(2.67982e-06 -3.63535e-20 -0 2.67982e-06 -0 2.67982e-06)
(2.67982e-06 3.51824e-20 -0 2.67982e-06 -0 2.67982e-06)
(2.69226e-06 5.50838e-18 -0 2.69226e-06 -0 2.69226e-06)
(2.69225e-06 -7.29048e-18 -0 2.69225e-06 -0 2.69225e-06)
(2.69218e-06 1.37722e-18 -0 2.69218e-06 -0 2.69218e-06)
(2.69214e-06 -3.80174e-19 -0 2.69214e-06 -0 2.69214e-06)
(2.69209e-06 2.89831e-20 -0 2.69209e-06 -0 2.69209e-06)
(2.69205e-06 -6.97914e-20 -0 2.69205e-06 -0 2.69205e-06)
(2.69201e-06 -2.30107e-20 -0 2.69201e-06 -0 2.69201e-06)
(2.69197e-06 -6.37589e-20 -0 2.69197e-06 -0 2.69197e-06)
(2.69194e-06 -8.90194e-20 -0 2.69194e-06 -0 2.69194e-06)
(2.69192e-06 4.45044e-21 -0 2.69192e-06 -0 2.69192e-06)
(2.69188e-06 -1.37078e-20 -0 2.69188e-06 -0 2.69188e-06)
(2.69187e-06 -3.13922e-20 -0 2.69187e-06 -0 2.69187e-06)
(2.69184e-06 -1.68335e-20 -0 2.69184e-06 -0 2.69184e-06)
(2.69183e-06 -4.82902e-20 -0 2.69183e-06 -0 2.69183e-06)
(2.69181e-06 -9.92583e-20 -0 2.69181e-06 -0 2.69181e-06)
(2.6918e-06 -6.28233e-20 -0 2.6918e-06 -0 2.6918e-06)
(2.69179e-06 -5.18815e-20 -0 2.69179e-06 -0 2.69179e-06)
(2.69178e-06 -4.0309e-20 -0 2.69178e-06 -0 2.69178e-06)
(2.69178e-06 -1.71688e-21 -0 2.69178e-06 -0 2.69178e-06)
(2.69178e-06 1.87974e-21 -0 2.69178e-06 -0 2.69178e-06)
(2.70055e-06 -4.46278e-18 -0 2.70055e-06 -0 2.70055e-06)
(2.70055e-06 8.00951e-18 -0 2.70055e-06 -0 2.70055e-06)
(2.70047e-06 -1.38293e-18 -0 2.70047e-06 -0 2.70047e-06)
(2.70043e-06 3.0581e-19 -0 2.70043e-06 -0 2.70043e-06)
(2.70038e-06 -8.54735e-20 -0 2.70038e-06 -0 2.70038e-06)
(2.70035e-06 -1.55256e-21 -0 2.70035e-06 -0 2.70035e-06)
(2.70029e-06 -9.85806e-20 -0 2.70029e-06 -0 2.70029e-06)
(2.70027e-06 -2.37558e-20 -0 2.70027e-06 -0 2.70027e-06)
(2.70023e-06 -3.78376e-20 -0 2.70023e-06 -0 2.70023e-06)
(2.70021e-06 -7.40601e-20 -0 2.70021e-06 -0 2.70021e-06)
(2.70017e-06 -4.36685e-20 -0 2.70017e-06 -0 2.70017e-06)
(2.70016e-06 -3.7939e-20 -0 2.70016e-06 -0 2.70016e-06)
(2.70013e-06 -4.69814e-20 -0 2.70013e-06 -0 2.70013e-06)
(2.70012e-06 4.59115e-20 -0 2.70012e-06 -0 2.70012e-06)
(2.70009e-06 1.09761e-19 -0 2.70009e-06 -0 2.70009e-06)
(2.70009e-06 4.2575e-20 -0 2.70009e-06 -0 2.70009e-06)
(2.70007e-06 1.315e-19 -0 2.70007e-06 -0 2.70007e-06)
(2.70007e-06 3.00194e-20 -0 2.70007e-06 -0 2.70007e-06)
(2.70007e-06 4.27296e-20 -0 2.70007e-06 -0 2.70007e-06)
(2.70007e-06 1.35663e-20 -0 2.70007e-06 -0 2.70007e-06)
(2.70705e-06 8.21935e-19 -0 2.70705e-06 -0 2.70705e-06)
(2.70705e-06 -4.85575e-18 -0 2.70705e-06 -0 2.70705e-06)
(2.70696e-06 6.27849e-19 -0 2.70696e-06 -0 2.70696e-06)
(2.70693e-06 -2.63594e-19 -0 2.70693e-06 -0 2.70693e-06)
(2.70687e-06 -5.32878e-20 -0 2.70687e-06 -0 2.70687e-06)
(2.70684e-06 -6.53072e-20 -0 2.70684e-06 -0 2.70684e-06)
(2.70679e-06 -6.84423e-20 -0 2.70679e-06 -0 2.70679e-06)
(2.70677e-06 -8.88561e-20 -0 2.70677e-06 -0 2.70677e-06)
(2.70672e-06 -1.46249e-20 -0 2.70672e-06 -0 2.70672e-06)
(2.7067e-06 -2.86849e-20 -0 2.7067e-06 -0 2.7067e-06)
(2.70667e-06 -4.48533e-20 -0 2.70667e-06 -0 2.70667e-06)
(2.70665e-06 -4.00592e-20 -0 2.70665e-06 -0 2.70665e-06)
(2.70662e-06 -6.18588e-20 -0 2.70662e-06 -0 2.70662e-06)
(2.70661e-06 4.86546e-20 -0 2.70661e-06 -0 2.70661e-06)
(2.70659e-06 -1.47069e-21 -0 2.70659e-06 -0 2.70659e-06)
(2.70658e-06 6.16409e-20 -0 2.70658e-06 -0 2.70658e-06)
(2.70657e-06 -2.50332e-20 -0 2.70657e-06 -0 2.70657e-06)
(2.70657e-06 -1.10447e-20 -0 2.70657e-06 -0 2.70657e-06)
(2.70656e-06 -1.35967e-20 -0 2.70656e-06 -0 2.70656e-06)
(2.70656e-06 -1.97451e-20 -0 2.70656e-06 -0 2.70656e-06)
(2.71288e-06 -7.04349e-19 -0 2.71288e-06 -0 2.71288e-06)
(2.71287e-06 1.91573e-18 -0 2.71287e-06 -0 2.71287e-06)
(2.71279e-06 -3.05214e-19 -0 2.71279e-06 -0 2.71279e-06)
(2.71275e-06 1.55653e-19 -0 2.71275e-06 -0 2.71275e-06)
(2.71269e-06 4.46906e-20 -0 2.71269e-06 -0 2.71269e-06)
(2.71267e-06 2.849e-20 -0 2.71267e-06 -0 2.71267e-06)
(2.71261e-06 1.10528e-19 -0 2.71261e-06 -0 2.71261e-06)
(2.71259e-06 1.16353e-19 -0 2.71259e-06 -0 2.71259e-06)
(2.71255e-06 1.14396e-19 -0 2.71255e-06 -0 2.71255e-06)
(2.71253e-06 1.05446e-19 -0 2.71253e-06 -0 2.71253e-06)
(2.71249e-06 1.12556e-19 -0 2.71249e-06 -0 2.71249e-06)
(2.71248e-06 5.50104e-20 -0 2.71248e-06 -0 2.71248e-06)
(2.71244e-06 6.15511e-20 -0 2.71244e-06 -0 2.71244e-06)
(2.71244e-06 -3.50524e-20 -0 2.71244e-06 -0 2.71244e-06)
(2.71241e-06 -3.82786e-20 -0 2.71241e-06 -0 2.71241e-06)
(2.71241e-06 -4.2769e-22 -0 2.71241e-06 -0 2.71241e-06)
(2.71239e-06 -6.84661e-20 -0 2.71239e-06 -0 2.71239e-06)
(2.71239e-06 4.10026e-20 -0 2.71239e-06 -0 2.71239e-06)
(2.71238e-06 4.29273e-20 -0 2.71238e-06 -0 2.71238e-06)
(2.71238e-06 5.01815e-20 -0 2.71238e-06 -0 2.71238e-06)
(2.71867e-06 1.40126e-18 -0 2.71867e-06 -0 2.71867e-06)
(2.71867e-06 1.12172e-18 -0 2.71867e-06 -0 2.71867e-06)
(2.71859e-06 1.39133e-19 -0 2.71859e-06 -0 2.71859e-06)
(2.71855e-06 1.05238e-19 -0 2.71855e-06 -0 2.71855e-06)
(2.7185e-06 9.66187e-20 -0 2.7185e-06 -0 2.7185e-06)
(2.71847e-06 1.06838e-19 -0 2.71847e-06 -0 2.71847e-06)
(2.71841e-06 7.7677e-20 -0 2.71841e-06 -0 2.71841e-06)
(2.71839e-06 7.09105e-20 -0 2.71839e-06 -0 2.71839e-06)
(2.71834e-06 1.45494e-20 -0 2.71834e-06 -0 2.71834e-06)
(2.71833e-06 -5.74134e-20 -0 2.71833e-06 -0 2.71833e-06)
(2.71829e-06 -8.01449e-21 -0 2.71829e-06 -0 2.71829e-06)
(2.71827e-06 -1.21496e-23 -0 2.71827e-06 -0 2.71827e-06)
(2.71824e-06 1.12065e-21 -0 2.71824e-06 -0 2.71824e-06)
(2.71823e-06 -5.03851e-21 -0 2.71823e-06 -0 2.71823e-06)
(2.71821e-06 -2.40546e-20 -0 2.71821e-06 -0 2.71821e-06)
(2.71821e-06 -5.61371e-20 -0 2.71821e-06 -0 2.71821e-06)
(2.71819e-06 5.18386e-20 -0 2.71819e-06 -0 2.71819e-06)
(2.71819e-06 -9.99415e-21 -0 2.71819e-06 -0 2.71819e-06)
(2.71818e-06 -3.77024e-21 -0 2.71818e-06 -0 2.71818e-06)
(2.71818e-06 8.13538e-22 -0 2.71818e-06 -0 2.71818e-06)
(2.72481e-06 1.24689e-18 -0 2.72481e-06 -0 2.72481e-06)
(2.72481e-06 -3.87018e-18 -0 2.72481e-06 -0 2.72481e-06)
(2.72472e-06 5.93622e-19 -0 2.72472e-06 -0 2.72472e-06)
(2.72469e-06 -1.55211e-19 -0 2.72469e-06 -0 2.72469e-06)
(2.72462e-06 -3.90623e-20 -0 2.72462e-06 -0 2.72462e-06)
(2.7246e-06 1.58136e-21 -0 2.7246e-06 -0 2.7246e-06)
(2.72454e-06 -5.56645e-20 -0 2.72454e-06 -0 2.72454e-06)
(2.72452e-06 -4.72127e-20 -0 2.72452e-06 -0 2.72452e-06)
(2.72447e-06 3.23416e-21 -0 2.72447e-06 -0 2.72447e-06)
(2.72446e-06 5.11777e-20 -0 2.72446e-06 -0 2.72446e-06)
(2.72442e-06 -7.82214e-20 -0 2.72442e-06 -0 2.72442e-06)
(2.72441e-06 5.68362e-20 -0 2.72441e-06 -0 2.72441e-06)
(2.72437e-06 -1.7144e-20 -0 2.72437e-06 -0 2.72437e-06)
(2.72437e-06 -1.7244e-20 -0 2.72437e-06 -0 2.72437e-06)
(2.72434e-06 1.0055e-21 -0 2.72434e-06 -0 2.72434e-06)
(2.72434e-06 -1.15044e-20 -0 2.72434e-06 -0 2.72434e-06)
(2.72432e-06 -8.60113e-21 -0 2.72432e-06 -0 2.72432e-06)
(2.72432e-06 -4.27382e-20 -0 2.72432e-06 -0 2.72432e-06)
(2.72431e-06 -4.84597e-20 -0 2.72431e-06 -0 2.72431e-06)
(2.72431e-06 -9.26903e-20 -0 2.72431e-06 -0 2.72431e-06)
(2.73142e-06 -5.44514e-18 -0 2.73142e-06 -0 2.73142e-06)
(2.73142e-06 7.00812e-18 -0 2.73142e-06 -0 2.73142e-06)
(2.73134e-06 -1.42249e-18 -0 2.73134e-06 -0 2.73134e-06)
(2.7313e-06 3.15722e-19 -0 2.7313e-06 -0 2.7313e-06)
(2.73125e-06 -2.04913e-20 -0 2.73125e-06 -0 2.73125e-06)
(2.73121e-06 -5.23226e-21 -0 2.73121e-06 -0 2.73121e-06)
(2.73117e-06 -3.28168e-20 -0 2.73117e-06 -0 2.73117e-06)
(2.73114e-06 -9.30971e-22 -0 2.73114e-06 -0 2.73114e-06)
(2.7311e-06 -8.88652e-20 -0 2.7311e-06 -0 2.7311e-06)
(2.73107e-06 -6.81355e-20 -0 2.73107e-06 -0 2.73107e-06)
(2.73104e-06 5.86684e-20 -0 2.73104e-06 -0 2.73104e-06)
(2.73102e-06 8.76982e-21 -0 2.73102e-06 -0 2.73102e-06)
(2.73099e-06 1.03566e-19 -0 2.73099e-06 -0 2.73099e-06)
(2.73098e-06 2.47548e-20 -0 2.73098e-06 -0 2.73098e-06)
(2.73096e-06 -3.00589e-21 -0 2.73096e-06 -0 2.73096e-06)
(2.73095e-06 4.66869e-20 -0 2.73095e-06 -0 2.73095e-06)
(2.73094e-06 1.95142e-20 -0 2.73094e-06 -0 2.73094e-06)
(2.73093e-06 2.30074e-20 -0 2.73093e-06 -0 2.73093e-06)
(2.73093e-06 5.6535e-21 -0 2.73093e-06 -0 2.73093e-06)
(2.73093e-06 3.72488e-20 -0 2.73093e-06 -0 2.73093e-06)
(2.73846e-06 6.87779e-18 -0 2.73846e-06 -0 2.73846e-06)
(2.73846e-06 -6.82955e-18 -0 2.73846e-06 -0 2.73846e-06)
(2.73838e-06 1.37882e-18 -0 2.73838e-06 -0 2.73838e-06)
(2.73834e-06 -3.37799e-19 -0 2.73834e-06 -0 2.73834e-06)
(2.73829e-06 7.10745e-20 -0 2.73829e-06 -0 2.73829e-06)
(2.73825e-06 -6.41143e-20 -0 2.73825e-06 -0 2.73825e-06)
(2.7382e-06 3.41731e-20 -0 2.7382e-06 -0 2.7382e-06)
(2.73818e-06 -2.44133e-20 -0 2.73818e-06 -0 2.73818e-06)
(2.73813e-06 8.06017e-21 -0 2.73813e-06 -0 2.73813e-06)
(2.73812e-06 -5.13074e-21 -0 2.73812e-06 -0 2.73812e-06)
(2.73807e-06 -4.10721e-20 -0 2.73807e-06 -0 2.73807e-06)
(2.73806e-06 -3.06942e-20 -0 2.73806e-06 -0 2.73806e-06)
(2.73802e-06 -5.99642e-20 -0 2.73802e-06 -0 2.73802e-06)
(2.73802e-06 2.69835e-20 -0 2.73802e-06 -0 2.73802e-06)
(2.73799e-06 4.10429e-20 -0 2.73799e-06 -0 2.73799e-06)
(2.73799e-06 -3.50645e-20 -0 2.73799e-06 -0 2.73799e-06)
(2.73797e-06 -6.15341e-20 -0 2.73797e-06 -0 2.73797e-06)
(2.73797e-06 -9.48443e-21 -0 2.73797e-06 -0 2.73797e-06)
(2.73797e-06 -1.72212e-20 -0 2.73797e-06 -0 2.73797e-06)
(2.73796e-06 -4.06872e-20 -0 2.73796e-06 -0 2.73796e-06)
(2.74559e-06 -1.22973e-18 -0 2.74559e-06 -0 2.74559e-06)
(2.74559e-06 7.23256e-19 -0 2.74559e-06 -0 2.74559e-06)
(2.7455e-06 -3.03007e-19 -0 2.7455e-06 -0 2.7455e-06)
(2.74546e-06 -4.26986e-20 -0 2.74546e-06 -0 2.74546e-06)
(2.74541e-06 -7.84285e-20 -0 2.74541e-06 -0 2.74541e-06)
(2.74537e-06 -4.33353e-21 -0 2.74537e-06 -0 2.74537e-06)
(2.74532e-06 -4.50465e-20 -0 2.74532e-06 -0 2.74532e-06)
(2.74529e-06 -2.75046e-20 -0 2.74529e-06 -0 2.74529e-06)
(2.74525e-06 -2.56524e-20 -0 2.74525e-06 -0 2.74525e-06)
(2.74523e-06 -3.90272e-20 -0 2.74523e-06 -0 2.74523e-06)
(2.7452e-06 -2.07969e-20 -0 2.7452e-06 -0 2.7452e-06)
(2.74518e-06 -3.58007e-20 -0 2.74518e-06 -0 2.74518e-06)
(2.74515e-06 -4.20988e-20 -0 2.74515e-06 -0 2.74515e-06)
(2.74514e-06 -9.79872e-20 -0 2.74514e-06 -0 2.74514e-06)
(2.74512e-06 -9.03616e-20 -0 2.74512e-06 -0 2.74512e-06)
(2.74511e-06 2.73617e-21 -0 2.74511e-06 -0 2.74511e-06)
(2.7451e-06 -7.85023e-21 -0 2.7451e-06 -0 2.7451e-06)
(2.74509e-06 -3.64795e-20 -0 2.74509e-06 -0 2.74509e-06)
(2.74509e-06 -3.68135e-21 -0 2.74509e-06 -0 2.74509e-06)
(2.74509e-06 -1.05477e-20 -0 2.74509e-06 -0 2.74509e-06)
(2.75216e-06 -9.79003e-18 -0 2.75216e-06 -0 2.75216e-06)
(2.75215e-06 9.00775e-18 -0 2.75215e-06 -0 2.75215e-06)
(2.75207e-06 -1.74389e-18 -0 2.75207e-06 -0 2.75207e-06)
(2.75203e-06 4.22986e-19 -0 2.75203e-06 -0 2.75203e-06)
(2.75198e-06 -9.67872e-20 -0 2.75198e-06 -0 2.75198e-06)
(2.75193e-06 1.74091e-20 -0 2.75193e-06 -0 2.75193e-06)
(2.7519e-06 -4.5957e-21 -0 2.7519e-06 -0 2.7519e-06)
(2.75185e-06 4.72624e-20 -0 2.75185e-06 -0 2.75185e-06)
(2.75182e-06 -2.98418e-20 -0 2.75182e-06 -0 2.75182e-06)
(2.75179e-06 3.10108e-20 -0 2.75179e-06 -0 2.75179e-06)
(2.75176e-06 2.36087e-20 -0 2.75176e-06 -0 2.75176e-06)
(2.75174e-06 -9.11987e-21 -0 2.75174e-06 -0 2.75174e-06)
(2.75172e-06 2.65382e-20 -0 2.75172e-06 -0 2.75172e-06)
(2.7517e-06 3.36467e-20 -0 2.7517e-06 -0 2.7517e-06)
(2.75168e-06 -1.87222e-20 -0 2.75168e-06 -0 2.75168e-06)
(2.75167e-06 3.8339e-22 -0 2.75167e-06 -0 2.75167e-06)
(2.75166e-06 2.01375e-20 -0 2.75166e-06 -0 2.75166e-06)
(2.75166e-06 3.23986e-20 -0 2.75166e-06 -0 2.75166e-06)
(2.75165e-06 6.84602e-20 -0 2.75165e-06 -0 2.75165e-06)
(2.75165e-06 2.15981e-20 -0 2.75165e-06 -0 2.75165e-06)
(2.75728e-06 5.87701e-18 -0 2.75728e-06 -0 2.75728e-06)
(2.75728e-06 -5.98298e-18 -0 2.75728e-06 -0 2.75728e-06)
(2.7572e-06 1.03164e-18 -0 2.7572e-06 -0 2.7572e-06)
(2.75716e-06 -3.17792e-19 -0 2.75716e-06 -0 2.75716e-06)
(2.75711e-06 -1.48274e-20 -0 2.75711e-06 -0 2.75711e-06)
(2.75708e-06 -8.50723e-20 -0 2.75708e-06 -0 2.75708e-06)
(2.75702e-06 -3.01677e-20 -0 2.75702e-06 -0 2.75702e-06)
(2.757e-06 -8.79111e-20 -0 2.757e-06 -0 2.757e-06)
(2.75696e-06 -3.17843e-21 -0 2.75696e-06 -0 2.75696e-06)
(2.75694e-06 -1.14272e-20 -0 2.75694e-06 -0 2.75694e-06)
(2.7569e-06 5.60508e-20 -0 2.7569e-06 -0 2.7569e-06)
(2.75688e-06 5.79974e-20 -0 2.75688e-06 -0 2.75688e-06)
(2.75685e-06 5.29714e-21 -0 2.75685e-06 -0 2.75685e-06)
(2.75684e-06 1.33351e-20 -0 2.75684e-06 -0 2.75684e-06)
(2.75682e-06 2.8713e-20 -0 2.75682e-06 -0 2.75682e-06)
(2.75681e-06 4.56522e-20 -0 2.75681e-06 -0 2.75681e-06)
(2.7568e-06 -7.417e-21 -0 2.7568e-06 -0 2.7568e-06)
(2.7568e-06 1.52985e-20 -0 2.7568e-06 -0 2.7568e-06)
(2.75679e-06 -4.95618e-20 -0 2.75679e-06 -0 2.75679e-06)
(2.75679e-06 -5.04296e-20 -0 2.75679e-06 -0 2.75679e-06)
(2.75964e-06 5.7779e-18 -0 2.75964e-06 -0 2.75964e-06)
(2.75964e-06 -5.67676e-18 -0 2.75964e-06 -0 2.75964e-06)
(2.75964e-06 1.33479e-18 -0 2.75964e-06 -0 2.75964e-06)
(2.75964e-06 -2.12737e-19 -0 2.75964e-06 -0 2.75964e-06)
(2.75964e-06 1.36335e-19 -0 2.75964e-06 -0 2.75964e-06)
(2.75964e-06 5.78213e-20 -0 2.75964e-06 -0 2.75964e-06)
(2.75964e-06 4.65679e-20 -0 2.75964e-06 -0 2.75964e-06)
(2.75963e-06 3.4525e-20 -0 2.75963e-06 -0 2.75963e-06)
(2.75963e-06 2.96018e-20 -0 2.75963e-06 -0 2.75963e-06)
(2.75963e-06 -2.04978e-21 -0 2.75963e-06 -0 2.75963e-06)
(2.75963e-06 -5.91027e-20 -0 2.75963e-06 -0 2.75963e-06)
(2.75963e-06 5.32884e-21 -0 2.75963e-06 -0 2.75963e-06)
(2.75963e-06 4.27687e-20 -0 2.75963e-06 -0 2.75963e-06)
(2.75963e-06 8.21016e-21 -0 2.75963e-06 -0 2.75963e-06)
(2.75963e-06 1.57047e-20 -0 2.75963e-06 -0 2.75963e-06)
(2.75963e-06 -8.57059e-20 -0 2.75963e-06 -0 2.75963e-06)
(2.75963e-06 -7.4328e-21 -0 2.75963e-06 -0 2.75963e-06)
(2.75963e-06 1.23868e-20 -0 2.75963e-06 -0 2.75963e-06)
(2.75963e-06 7.75752e-21 -0 2.75963e-06 -0 2.75963e-06)
(2.75963e-06 1.65636e-20 -0 2.75963e-06 -0 2.75963e-06)
)
;

boundaryField
{
    movingWall
    {
        type            kqRWallFunction;
        value           nonuniform List<symmTensor> 
20
(
(2.75964e-06 0 -0 2.75964e-06 -0 2.75964e-06)
(2.75964e-06 -0 -0 2.75964e-06 -0 2.75964e-06)
(2.75964e-06 0 -0 2.75964e-06 -0 2.75964e-06)
(2.75964e-06 -0 -0 2.75964e-06 -0 2.75964e-06)
(2.75964e-06 0 -0 2.75964e-06 -0 2.75964e-06)
(2.75964e-06 0 -0 2.75964e-06 -0 2.75964e-06)
(2.75964e-06 0 -0 2.75964e-06 -0 2.75964e-06)
(2.75963e-06 0 -0 2.75963e-06 -0 2.75963e-06)
(2.75963e-06 0 -0 2.75963e-06 -0 2.75963e-06)
(2.75963e-06 0 -0 2.75963e-06 -0 2.75963e-06)
(2.75963e-06 0 -0 2.75963e-06 -0 2.75963e-06)
(2.75963e-06 0 -0 2.75963e-06 -0 2.75963e-06)
(2.75963e-06 0 -0 2.75963e-06 -0 2.75963e-06)
(2.75963e-06 0 -0 2.75963e-06 -0 2.75963e-06)
(2.75963e-06 0 -0 2.75963e-06 -0 2.75963e-06)
(2.75963e-06 -0 -0 2.75963e-06 -0 2.75963e-06)
(2.75963e-06 -0 -0 2.75963e-06 -0 2.75963e-06)
(2.75963e-06 0 -0 2.75963e-06 -0 2.75963e-06)
(2.75963e-06 0 -0 2.75963e-06 -0 2.75963e-06)
(2.75963e-06 0 -0 2.75963e-06 -0 2.75963e-06)
)
;
    }
    fixedWalls
    {
        type            kqRWallFunction;
        value           nonuniform List<symmTensor> 
60
(
(2.35311e-06 -0 -0 2.35311e-06 -0 2.35311e-06)
(2.39491e-06 -0 -0 2.39491e-06 -0 2.39491e-06)
(2.46111e-06 0 -0 2.46111e-06 -0 2.46111e-06)
(2.53085e-06 -0 -0 2.53085e-06 -0 2.53085e-06)
(2.58975e-06 -0 -0 2.58975e-06 -0 2.58975e-06)
(2.63291e-06 0 -0 2.63291e-06 -0 2.63291e-06)
(2.6618e-06 -0 -0 2.6618e-06 -0 2.6618e-06)
(2.6803e-06 -0 -0 2.6803e-06 -0 2.6803e-06)
(2.69226e-06 0 -0 2.69226e-06 -0 2.69226e-06)
(2.70055e-06 -0 -0 2.70055e-06 -0 2.70055e-06)
(2.70705e-06 0 -0 2.70705e-06 -0 2.70705e-06)
(2.71288e-06 -0 -0 2.71288e-06 -0 2.71288e-06)
(2.71867e-06 -0 -0 2.71867e-06 -0 2.71867e-06)
(2.72481e-06 0 -0 2.72481e-06 -0 2.72481e-06)
(2.73142e-06 -0 -0 2.73142e-06 -0 2.73142e-06)
(2.73846e-06 0 -0 2.73846e-06 -0 2.73846e-06)
(2.74559e-06 -0 -0 2.74559e-06 -0 2.74559e-06)
(2.75216e-06 -0 -0 2.75216e-06 -0 2.75216e-06)
(2.75728e-06 0 -0 2.75728e-06 -0 2.75728e-06)
(2.75964e-06 0 -0 2.75964e-06 -0 2.75964e-06)
(2.3531e-06 -0 -0 2.3531e-06 -0 2.3531e-06)
(2.39454e-06 0 -0 2.39454e-06 -0 2.39454e-06)
(2.4607e-06 0 -0 2.4607e-06 -0 2.4607e-06)
(2.53042e-06 -0 -0 2.53042e-06 -0 2.53042e-06)
(2.58931e-06 -0 -0 2.58931e-06 -0 2.58931e-06)
(2.63245e-06 0 -0 2.63245e-06 -0 2.63245e-06)
(2.66133e-06 0 -0 2.66133e-06 -0 2.66133e-06)
(2.67982e-06 0 -0 2.67982e-06 -0 2.67982e-06)
(2.69178e-06 0 -0 2.69178e-06 -0 2.69178e-06)
(2.70007e-06 0 -0 2.70007e-06 -0 2.70007e-06)
(2.70656e-06 -0 -0 2.70656e-06 -0 2.70656e-06)
(2.71238e-06 0 -0 2.71238e-06 -0 2.71238e-06)
(2.71818e-06 0 -0 2.71818e-06 -0 2.71818e-06)
(2.72431e-06 -0 -0 2.72431e-06 -0 2.72431e-06)
(2.73093e-06 0 -0 2.73093e-06 -0 2.73093e-06)
(2.73796e-06 -0 -0 2.73796e-06 -0 2.73796e-06)
(2.74509e-06 -0 -0 2.74509e-06 -0 2.74509e-06)
(2.75165e-06 0 -0 2.75165e-06 -0 2.75165e-06)
(2.75679e-06 -0 -0 2.75679e-06 -0 2.75679e-06)
(2.75963e-06 0 -0 2.75963e-06 -0 2.75963e-06)
(2.35311e-06 -0 -0 2.35311e-06 -0 2.35311e-06)
(2.3531e-06 0 -0 2.3531e-06 -0 2.3531e-06)
(2.3531e-06 -0 -0 2.3531e-06 -0 2.3531e-06)
(2.3531e-06 0 -0 2.3531e-06 -0 2.3531e-06)
(2.3531e-06 -0 -0 2.3531e-06 -0 2.3531e-06)
(2.3531e-06 -0 -0 2.3531e-06 -0 2.3531e-06)
(2.3531e-06 -0 -0 2.3531e-06 -0 2.3531e-06)
(2.3531e-06 -0 -0 2.3531e-06 -0 2.3531e-06)
(2.3531e-06 -0 -0 2.3531e-06 -0 2.3531e-06)
(2.3531e-06 -0 -0 2.3531e-06 -0 2.3531e-06)
(2.3531e-06 -0 -0 2.3531e-06 -0 2.3531e-06)
(2.3531e-06 -0 -0 2.3531e-06 -0 2.3531e-06)
(2.3531e-06 -0 -0 2.3531e-06 -0 2.3531e-06)
(2.3531e-06 0 -0 2.3531e-06 -0 2.3531e-06)
(2.3531e-06 0 -0 2.3531e-06 -0 2.3531e-06)
(2.3531e-06 0 -0 2.3531e-06 -0 2.3531e-06)
(2.3531e-06 0 -0 2.3531e-06 -0 2.3531e-06)
(2.3531e-06 -0 -0 2.3531e-06 -0 2.3531e-06)
(2.3531e-06 0 -0 2.3531e-06 -0 2.3531e-06)
(2.3531e-06 -0 -0 2.3531e-06 -0 2.3531e-06)
)
;
    }
    frontAndBack
    {
        type            empty;
    }
}


// ************************************************************************* //
