/*--------------------------------*- C++ -*----------------------------------*\
| =========                 |                                                 |
| \\      /  F ield         | OpenFOAM: The Open Source CFD Toolbox           |
|  \\    /   O peration     | Version:  2312                                  |
|   \\  /    A nd           | Website:  www.openfoam.com                      |
|    \\/     M anipulation  |                                                 |
\*---------------------------------------------------------------------------*/
FoamFile
{
    version     2.0;
    format      ascii;
    arch        "LSB;label=32;scalar=64";
    class       volScalarField;
    location    "8.5";
    object      turbulenceProperties:nuEff;
}
// * * * * * * * * * * * * * * * * * * * * * * * * * * * * * * * * * * * * * //

dimensions      [0 2 -1 0 0 0 0];

internalField   nonuniform List<scalar> 
400
(
1.10524e-05
1.10524e-05
1.10524e-05
1.10524e-05
1.10524e-05
1.10524e-05
1.10524e-05
1.10524e-05
1.10524e-05
1.10524e-05
1.10524e-05
1.10524e-05
1.10524e-05
1.10524e-05
1.10524e-05
1.10524e-05
1.10524e-05
1.10524e-05
1.10524e-05
1.10524e-05
1.10617e-05
1.10738e-05
1.10727e-05
1.10722e-05
1.10714e-05
1.10709e-05
1.107e-05
1.10695e-05
1.10687e-05
1.10682e-05
1.10673e-05
1.10668e-05
1.10659e-05
1.10655e-05
1.10646e-05
1.10641e-05
1.10632e-05
1.10627e-05
1.10623e-05
1.10616e-05
1.10762e-05
1.10889e-05
1.10877e-05
1.10872e-05
1.10863e-05
1.10858e-05
1.10848e-05
1.10844e-05
1.10834e-05
1.10829e-05
1.1082e-05
1.10815e-05
1.10806e-05
1.10801e-05
1.10792e-05
1.10787e-05
1.10778e-05
1.10773e-05
1.10768e-05
1.10761e-05
1.10913e-05
1.11043e-05
1.11031e-05
1.11026e-05
1.11016e-05
1.11011e-05
1.11002e-05
1.10997e-05
1.10987e-05
1.10982e-05
1.10972e-05
1.10967e-05
1.10958e-05
1.10953e-05
1.10943e-05
1.10938e-05
1.10929e-05
1.10924e-05
1.10919e-05
1.10912e-05
1.11039e-05
1.11172e-05
1.1116e-05
1.11155e-05
1.11145e-05
1.1114e-05
1.1113e-05
1.11125e-05
1.11115e-05
1.1111e-05
1.111e-05
1.11095e-05
1.11085e-05
1.1108e-05
1.1107e-05
1.11065e-05
1.11055e-05
1.1105e-05
1.11045e-05
1.11038e-05
1.1113e-05
1.11266e-05
1.11253e-05
1.11248e-05
1.11238e-05
1.11233e-05
1.11223e-05
1.11217e-05
1.11207e-05
1.11202e-05
1.11192e-05
1.11187e-05
1.11177e-05
1.11172e-05
1.11162e-05
1.11157e-05
1.11147e-05
1.11141e-05
1.11137e-05
1.11129e-05
1.11191e-05
1.11328e-05
1.11315e-05
1.1131e-05
1.113e-05
1.11295e-05
1.11284e-05
1.11279e-05
1.11269e-05
1.11264e-05
1.11254e-05
1.11248e-05
1.11238e-05
1.11233e-05
1.11223e-05
1.11218e-05
1.11208e-05
1.11202e-05
1.11198e-05
1.1119e-05
1.1123e-05
1.11368e-05
1.11355e-05
1.1135e-05
1.1134e-05
1.11334e-05
1.11324e-05
1.11319e-05
1.11308e-05
1.11303e-05
1.11293e-05
1.11288e-05
1.11277e-05
1.11272e-05
1.11262e-05
1.11257e-05
1.11247e-05
1.11241e-05
1.11236e-05
1.11229e-05
1.11255e-05
1.11394e-05
1.11381e-05
1.11375e-05
1.11365e-05
1.1136e-05
1.11349e-05
1.11344e-05
1.11334e-05
1.11328e-05
1.11318e-05
1.11313e-05
1.11303e-05
1.11297e-05
1.11287e-05
1.11282e-05
1.11272e-05
1.11266e-05
1.11261e-05
1.11254e-05
1.11272e-05
1.11411e-05
1.11398e-05
1.11393e-05
1.11383e-05
1.11377e-05
1.11367e-05
1.11362e-05
1.11351e-05
1.11346e-05
1.11336e-05
1.1133e-05
1.1132e-05
1.11315e-05
1.11305e-05
1.11299e-05
1.11289e-05
1.11284e-05
1.11279e-05
1.11271e-05
1.11286e-05
1.11425e-05
1.11412e-05
1.11407e-05
1.11396e-05
1.11391e-05
1.11381e-05
1.11375e-05
1.11365e-05
1.1136e-05
1.11349e-05
1.11344e-05
1.11334e-05
1.11328e-05
1.11318e-05
1.11313e-05
1.11303e-05
1.11297e-05
1.11292e-05
1.11285e-05
1.11298e-05
1.11438e-05
1.11425e-05
1.11419e-05
1.11409e-05
1.11404e-05
1.11393e-05
1.11388e-05
1.11377e-05
1.11372e-05
1.11362e-05
1.11356e-05
1.11346e-05
1.11341e-05
1.1133e-05
1.11325e-05
1.11315e-05
1.11309e-05
1.11304e-05
1.11297e-05
1.1131e-05
1.1145e-05
1.11437e-05
1.11432e-05
1.11421e-05
1.11416e-05
1.11405e-05
1.114e-05
1.1139e-05
1.11384e-05
1.11374e-05
1.11368e-05
1.11358e-05
1.11353e-05
1.11343e-05
1.11337e-05
1.11327e-05
1.11321e-05
1.11316e-05
1.11309e-05
1.11323e-05
1.11463e-05
1.1145e-05
1.11445e-05
1.11434e-05
1.11429e-05
1.11418e-05
1.11413e-05
1.11402e-05
1.11397e-05
1.11387e-05
1.11381e-05
1.11371e-05
1.11366e-05
1.11355e-05
1.1135e-05
1.1134e-05
1.11334e-05
1.11329e-05
1.11321e-05
1.11336e-05
1.11477e-05
1.11464e-05
1.11459e-05
1.11448e-05
1.11443e-05
1.11432e-05
1.11427e-05
1.11416e-05
1.11411e-05
1.11401e-05
1.11395e-05
1.11385e-05
1.11379e-05
1.11369e-05
1.11364e-05
1.11354e-05
1.11348e-05
1.11343e-05
1.11335e-05
1.11351e-05
1.11492e-05
1.11479e-05
1.11474e-05
1.11463e-05
1.11458e-05
1.11447e-05
1.11442e-05
1.11431e-05
1.11426e-05
1.11415e-05
1.1141e-05
1.114e-05
1.11394e-05
1.11384e-05
1.11378e-05
1.11368e-05
1.11362e-05
1.11358e-05
1.1135e-05
1.11365e-05
1.11507e-05
1.11494e-05
1.11489e-05
1.11478e-05
1.11473e-05
1.11462e-05
1.11457e-05
1.11446e-05
1.11441e-05
1.1143e-05
1.11425e-05
1.11414e-05
1.11409e-05
1.11399e-05
1.11393e-05
1.11383e-05
1.11377e-05
1.11372e-05
1.11364e-05
1.11379e-05
1.11521e-05
1.11508e-05
1.11502e-05
1.11492e-05
1.11486e-05
1.11476e-05
1.1147e-05
1.1146e-05
1.11454e-05
1.11444e-05
1.11438e-05
1.11428e-05
1.11422e-05
1.11412e-05
1.11407e-05
1.11397e-05
1.11391e-05
1.11386e-05
1.11378e-05
1.1139e-05
1.11529e-05
1.11516e-05
1.11511e-05
1.11501e-05
1.11496e-05
1.11485e-05
1.1148e-05
1.1147e-05
1.11464e-05
1.11454e-05
1.11449e-05
1.11438e-05
1.11433e-05
1.11423e-05
1.11417e-05
1.11407e-05
1.11401e-05
1.11396e-05
1.11389e-05
1.11394e-05
1.11394e-05
1.11394e-05
1.11394e-05
1.11394e-05
1.11394e-05
1.11394e-05
1.11394e-05
1.11394e-05
1.11394e-05
1.11394e-05
1.11394e-05
1.11394e-05
1.11394e-05
1.11394e-05
1.11394e-05
1.11394e-05
1.11394e-05
1.11394e-05
1.11394e-05
)
;

boundaryField
{
    movingWall
    {
        type            calculated;
        value           uniform 1e-05;
    }
    fixedWalls
    {
        type            calculated;
        value           uniform 1e-05;
    }
    frontAndBack
    {
        type            empty;
    }
}


// ************************************************************************* //
