/*--------------------------------*- C++ -*----------------------------------*\
| =========                 |                                                 |
| \\      /  F ield         | OpenFOAM: The Open Source CFD Toolbox           |
|  \\    /   O peration     | Version:  2312                                  |
|   \\  /    A nd           | Website:  www.openfoam.com                      |
|    \\/     M anipulation  |                                                 |
\*---------------------------------------------------------------------------*/
FoamFile
{
    version     2.0;
    format      ascii;
    arch        "LSB;label=32;scalar=64";
    class       volScalarField;
    location    "8.5";
    object      turbulenceProperties:L;
}
// * * * * * * * * * * * * * * * * * * * * * * * * * * * * * * * * * * * * * //

dimensions      [0 1 0 0 0 0 0];

internalField   nonuniform List<scalar> 
400
(
0.00102275
0.00102275
0.00102275
0.00102275
0.00102275
0.00102275
0.00102275
0.00102275
0.00102275
0.00102275
0.00102275
0.00102275
0.00102275
0.00102275
0.00102275
0.00102275
0.00102275
0.00102275
0.00102275
0.00102275
0.0010227
0.00103436
0.00103332
0.00103289
0.00103203
0.0010316
0.00103075
0.0010303
0.00102945
0.001029
0.00102816
0.0010277
0.00102686
0.00102639
0.00102556
0.00102508
0.00102426
0.00102377
0.00102336
0.0010227
0.00102264
0.00103467
0.00103357
0.00103312
0.00103222
0.00103178
0.00103088
0.00103043
0.00102954
0.00102909
0.00102821
0.00102775
0.00102687
0.00102641
0.00102554
0.00102506
0.00102421
0.00102372
0.0010233
0.00102264
0.00102259
0.00103478
0.00103367
0.00103322
0.0010323
0.00103185
0.00103094
0.00103049
0.00102959
0.00102913
0.00102823
0.00102777
0.00102688
0.00102641
0.00102553
0.00102505
0.00102418
0.00102369
0.00102326
0.00102259
0.00102255
0.0010349
0.00103377
0.00103331
0.00103239
0.00103193
0.00103101
0.00103055
0.00102964
0.00102917
0.00102827
0.00102779
0.0010269
0.00102642
0.00102553
0.00102504
0.00102417
0.00102367
0.00102323
0.00102255
0.00102254
0.00103499
0.00103385
0.00103339
0.00103246
0.001032
0.00103107
0.0010306
0.00102968
0.00102921
0.0010283
0.00102782
0.00102692
0.00102643
0.00102554
0.00102505
0.00102416
0.00102366
0.00102322
0.00102254
0.00102253
0.00103506
0.00103391
0.00103345
0.00103251
0.00103204
0.00103111
0.00103064
0.00102972
0.00102924
0.00102833
0.00102784
0.00102694
0.00102645
0.00102555
0.00102505
0.00102417
0.00102366
0.00102322
0.00102253
0.00102252
0.0010351
0.00103395
0.00103348
0.00103255
0.00103207
0.00103115
0.00103067
0.00102974
0.00102927
0.00102834
0.00102786
0.00102695
0.00102646
0.00102556
0.00102506
0.00102417
0.00102366
0.00102322
0.00102252
0.00102252
0.00103513
0.00103398
0.00103351
0.00103257
0.00103209
0.00103116
0.00103068
0.00102976
0.00102928
0.00102836
0.00102788
0.00102696
0.00102647
0.00102556
0.00102506
0.00102417
0.00102366
0.00102322
0.00102252
0.00102252
0.00103515
0.00103399
0.00103352
0.00103259
0.00103211
0.00103117
0.0010307
0.00102977
0.00102929
0.00102836
0.00102788
0.00102696
0.00102647
0.00102557
0.00102506
0.00102417
0.00102366
0.00102322
0.00102252
0.00102252
0.00103516
0.00103401
0.00103354
0.0010326
0.00103212
0.00103118
0.00103071
0.00102977
0.0010293
0.00102837
0.00102789
0.00102697
0.00102648
0.00102557
0.00102507
0.00102417
0.00102366
0.00102322
0.00102252
0.00102252
0.00103518
0.00103402
0.00103355
0.0010326
0.00103213
0.00103119
0.00103072
0.00102978
0.0010293
0.00102837
0.00102789
0.00102697
0.00102648
0.00102557
0.00102507
0.00102417
0.00102366
0.00102322
0.00102252
0.00102251
0.00103519
0.00103403
0.00103356
0.00103261
0.00103214
0.0010312
0.00103072
0.00102979
0.00102931
0.00102838
0.0010279
0.00102697
0.00102648
0.00102557
0.00102507
0.00102417
0.00102366
0.00102321
0.00102251
0.00102251
0.0010352
0.00103404
0.00103357
0.00103262
0.00103215
0.0010312
0.00103073
0.00102979
0.00102932
0.00102838
0.0010279
0.00102697
0.00102648
0.00102557
0.00102507
0.00102417
0.00102366
0.00102321
0.00102251
0.00102251
0.00103521
0.00103405
0.00103358
0.00103263
0.00103216
0.00103121
0.00103074
0.0010298
0.00102932
0.00102839
0.0010279
0.00102698
0.00102648
0.00102557
0.00102507
0.00102417
0.00102365
0.00102321
0.00102251
0.00102251
0.00103522
0.00103406
0.00103359
0.00103264
0.00103217
0.00103122
0.00103075
0.0010298
0.00102933
0.00102839
0.00102791
0.00102698
0.00102649
0.00102557
0.00102507
0.00102417
0.00102365
0.00102321
0.00102251
0.0010225
0.00103524
0.00103407
0.0010336
0.00103265
0.00103217
0.00103123
0.00103075
0.00102981
0.00102933
0.0010284
0.00102791
0.00102698
0.00102648
0.00102558
0.00102507
0.00102417
0.00102365
0.0010232
0.0010225
0.0010225
0.00103524
0.00103408
0.0010336
0.00103266
0.00103218
0.00103124
0.00103075
0.00102982
0.00102933
0.0010284
0.00102791
0.00102699
0.00102649
0.00102558
0.00102506
0.00102417
0.00102365
0.0010232
0.0010225
0.00102249
0.00103501
0.00103388
0.00103343
0.00103251
0.00103204
0.00103112
0.00103065
0.00102974
0.00102926
0.00102835
0.00102786
0.00102695
0.00102646
0.00102556
0.00102505
0.00102416
0.00102364
0.0010232
0.00102249
0.00102249
0.00102249
0.00102249
0.00102249
0.00102249
0.00102249
0.00102249
0.00102249
0.00102249
0.00102249
0.00102249
0.00102249
0.00102249
0.00102249
0.00102249
0.00102249
0.00102249
0.00102249
0.00102249
0.00102249
)
;

boundaryField
{
    movingWall
    {
        type            calculated;
        value           nonuniform List<scalar> 
20
(
0.00102249
0.00102249
0.00102249
0.00102249
0.00102249
0.00102249
0.00102249
0.00102249
0.00102249
0.00102249
0.00102249
0.00102249
0.00102249
0.00102249
0.00102249
0.00102249
0.00102249
0.00102249
0.00102249
0.00102249
)
;
    }
    fixedWalls
    {
        type            calculated;
        value           nonuniform List<scalar> 
60
(
0.00102275
0.0010227
0.00102264
0.00102259
0.00102255
0.00102254
0.00102253
0.00102252
0.00102252
0.00102252
0.00102252
0.00102252
0.00102251
0.00102251
0.00102251
0.00102251
0.0010225
0.0010225
0.00102249
0.00102249
0.00102275
0.0010227
0.00102264
0.00102259
0.00102255
0.00102254
0.00102253
0.00102252
0.00102252
0.00102252
0.00102252
0.00102252
0.00102251
0.00102251
0.00102251
0.00102251
0.0010225
0.0010225
0.00102249
0.00102249
0.00102275
0.00102275
0.00102275
0.00102275
0.00102275
0.00102275
0.00102275
0.00102275
0.00102275
0.00102275
0.00102275
0.00102275
0.00102275
0.00102275
0.00102275
0.00102275
0.00102275
0.00102275
0.00102275
0.00102275
)
;
    }
    frontAndBack
    {
        type            empty;
    }
}


// ************************************************************************* //
