/*--------------------------------*- C++ -*----------------------------------*\
| =========                 |                                                 |
| \\      /  F ield         | OpenFOAM: The Open Source CFD Toolbox           |
|  \\    /   O peration     | Version:  2312                                  |
|   \\  /    A nd           | Website:  www.openfoam.com                      |
|    \\/     M anipulation  |                                                 |
\*---------------------------------------------------------------------------*/
FoamFile
{
    version     2.0;
    format      ascii;
    arch        "LSB;label=32;scalar=64";
    class       volScalarField;
    location    "8.5";
    object      turbulenceProperties:omega;
}
// * * * * * * * * * * * * * * * * * * * * * * * * * * * * * * * * * * * * * //

dimensions      [0 0 -1 0 0 0 0];

internalField   nonuniform List<scalar> 
400
(
3.3538
3.3538
3.3538
3.3538
3.3538
3.3538
3.3538
3.3538
3.3538
3.3538
3.3538
3.3538
3.3538
3.3538
3.3538
3.3538
3.3538
3.3538
3.3538
3.3538
3.38361
3.34547
3.34881
3.35018
3.35292
3.35433
3.35707
3.3585
3.36125
3.36271
3.36545
3.36694
3.36968
3.37121
3.37393
3.37551
3.37822
3.37983
3.38119
3.38335
3.43027
3.39039
3.39395
3.39539
3.39831
3.39977
3.40269
3.40416
3.40707
3.40857
3.41147
3.41299
3.41588
3.41743
3.42029
3.42188
3.42472
3.42635
3.42776
3.42998
3.47871
3.4377
3.44136
3.44284
3.44585
3.44735
3.45035
3.45186
3.45486
3.45639
3.45939
3.46094
3.46392
3.4655
3.46845
3.47008
3.473
3.47468
3.47612
3.47841
3.51907
3.4771
3.48084
3.48236
3.48543
3.48697
3.49004
3.49159
3.49465
3.49623
3.49928
3.50089
3.50392
3.50556
3.50856
3.51025
3.51322
3.51495
3.51643
3.51877
3.54834
3.50564
3.50945
3.51099
3.51411
3.51568
3.51881
3.52038
3.5235
3.52509
3.52821
3.52983
3.53293
3.53458
3.53765
3.53935
3.54239
3.54414
3.54564
3.54803
3.56778
3.52459
3.52844
3.53001
3.53316
3.53475
3.5379
3.5395
3.54265
3.54428
3.54741
3.54906
3.55218
3.55387
3.55696
3.55869
3.56175
3.56353
3.56505
3.56746
3.58017
3.53667
3.54054
3.54212
3.54529
3.5469
3.55007
3.55169
3.55486
3.55649
3.55967
3.56131
3.56447
3.56615
3.56928
3.57101
3.5741
3.57589
3.57742
3.57985
3.58815
3.54445
3.54834
3.54993
3.55312
3.55473
3.55792
3.55955
3.56273
3.56436
3.56754
3.5692
3.57237
3.57407
3.57721
3.57895
3.58205
3.58385
3.58539
3.58783
3.59368
3.54984
3.55374
3.55534
3.55853
3.56014
3.56335
3.56497
3.56818
3.56981
3.57301
3.57467
3.57785
3.57955
3.5827
3.58445
3.58756
3.58936
3.59091
3.59335
3.59801
3.55406
3.55797
3.55956
3.56278
3.56439
3.56761
3.56923
3.57244
3.57408
3.57728
3.57895
3.58214
3.58384
3.587
3.58875
3.59188
3.59368
3.59523
3.59768
3.60188
3.55783
3.56176
3.56335
3.56658
3.56819
3.57142
3.57304
3.57626
3.5779
3.58111
3.58278
3.58598
3.58769
3.59085
3.59261
3.59574
3.59755
3.5991
3.60155
3.60574
3.5616
3.56553
3.56713
3.57035
3.57197
3.57521
3.57683
3.58006
3.58171
3.58492
3.5866
3.5898
3.59151
3.59469
3.59644
3.59958
3.60139
3.60295
3.60541
3.60981
3.56557
3.56952
3.57111
3.57436
3.57597
3.57921
3.58084
3.58408
3.58572
3.58895
3.59063
3.59384
3.59555
3.59874
3.6005
3.60364
3.60546
3.60701
3.60948
3.6142
3.56986
3.5738
3.57541
3.57865
3.58028
3.58352
3.58517
3.5884
3.59007
3.59329
3.59498
3.59819
3.59992
3.60309
3.60487
3.60801
3.60984
3.6114
3.61387
3.61887
3.57441
3.57837
3.57998
3.58322
3.58486
3.58811
3.58975
3.59301
3.59466
3.59791
3.59959
3.60282
3.60454
3.60774
3.60951
3.61267
3.61449
3.61606
3.61854
3.62359
3.57901
3.58298
3.5846
3.58785
3.58949
3.59275
3.5944
3.59765
3.59933
3.60256
3.60427
3.60748
3.60923
3.61242
3.61421
3.61736
3.6192
3.62077
3.62326
3.62794
3.58327
3.58724
3.58886
3.59212
3.59377
3.59702
3.59869
3.60193
3.60362
3.60686
3.60857
3.61179
3.61354
3.61674
3.61853
3.62169
3.62353
3.62511
3.6276
3.63132
3.58742
3.59127
3.59282
3.59599
3.59759
3.60077
3.60238
3.60557
3.60722
3.6104
3.61209
3.61527
3.61701
3.62016
3.62196
3.62508
3.62695
3.62851
3.631
3.63288
3.63288
3.63288
3.63288
3.63288
3.63288
3.63288
3.63288
3.63288
3.63288
3.63288
3.63288
3.63288
3.63288
3.63288
3.63288
3.63288
3.63288
3.63288
3.63288
)
;

boundaryField
{
    movingWall
    {
        type            calculated;
        value           nonuniform List<scalar> 
20
(
3.63288
3.63288
3.63288
3.63288
3.63288
3.63288
3.63288
3.63288
3.63288
3.63288
3.63288
3.63288
3.63288
3.63288
3.63288
3.63288
3.63288
3.63288
3.63288
3.63288
)
;
    }
    fixedWalls
    {
        type            calculated;
        value           nonuniform List<scalar> 
60
(
3.3538
3.38361
3.43027
3.47871
3.51907
3.54834
3.56778
3.58017
3.58815
3.59368
3.59801
3.60188
3.60574
3.60981
3.6142
3.61887
3.62359
3.62794
3.63132
3.63288
3.3538
3.38335
3.42998
3.47841
3.51877
3.54803
3.56746
3.57985
3.58783
3.59335
3.59768
3.60155
3.60541
3.60948
3.61387
3.61854
3.62326
3.6276
3.631
3.63288
3.3538
3.3538
3.3538
3.3538
3.3538
3.3538
3.3538
3.3538
3.3538
3.3538
3.3538
3.3538
3.3538
3.3538
3.3538
3.3538
3.3538
3.3538
3.3538
3.3538
)
;
    }
    frontAndBack
    {
        type            empty;
    }
}


// ************************************************************************* //
