/*--------------------------------*- C++ -*----------------------------------*\
| =========                 |                                                 |
| \\      /  F ield         | OpenFOAM: The Open Source CFD Toolbox           |
|  \\    /   O peration     | Version:  2312                                  |
|   \\  /    A nd           | Website:  www.openfoam.com                      |
|    \\/     M anipulation  |                                                 |
\*---------------------------------------------------------------------------*/
FoamFile
{
    version     2.0;
    format      ascii;
    arch        "LSB;label=32;scalar=64";
    class       volSymmTensorField;
    location    "8.5";
    object      turbulenceProperties:devReff;
}
// * * * * * * * * * * * * * * * * * * * * * * * * * * * * * * * * * * * * * //

dimensions      [0 2 -2 0 0 0 0];

internalField   nonuniform List<symmTensor> 
400
(
(7.33914e-17 -6.93243e-17 -0 -1.42589e-16 -0 6.91973e-17)
(-2.02575e-17 8.18202e-17 -0 3.21269e-17 -0 -1.18694e-17)
(4.09513e-18 -1.65163e-17 -0 -6.99194e-18 -0 2.89682e-18)
(-3.70413e-19 4.09519e-18 -0 1.33998e-18 -0 -9.69566e-19)
(-2.2446e-19 -1.20969e-18 -0 -1.50234e-19 -0 3.74694e-19)
(5.10172e-19 1.07016e-19 -0 -4.21191e-19 -0 -8.89813e-20)
(9.72573e-19 4.02275e-20 -0 -7.4684e-19 -0 -2.25734e-19)
(2.24773e-20 7.19368e-20 -0 -4.49547e-20 -0 2.24773e-20)
(2.83439e-20 -5.6819e-20 -0 -5.66878e-20 -0 2.83439e-20)
(3.09674e-20 -4.0724e-20 -0 -6.19349e-20 -0 3.09674e-20)
(-3.16403e-21 -7.88895e-20 -0 6.32806e-21 -0 -3.16403e-21)
(7.8622e-20 -3.539e-19 -0 -1.57244e-19 -0 7.8622e-20)
(5.57461e-19 4.77044e-20 -0 -5.15769e-19 -0 -4.16925e-20)
(4.40163e-19 6.65692e-19 -0 -2.81173e-19 -0 -1.5899e-19)
(-6.93163e-22 9.83429e-20 -0 1.38633e-21 -0 -6.93163e-22)
(3.40059e-21 4.50608e-20 -0 -6.80118e-21 -0 3.40059e-21)
(3.58863e-20 5.9842e-19 -0 -7.17726e-20 -0 3.58863e-20)
(-3.55168e-20 2.39806e-20 -0 7.10336e-20 -0 -3.55168e-20)
(-1.03738e-20 -4.92992e-21 -0 2.07477e-20 -0 -1.03738e-20)
(9.27167e-21 -2.82107e-20 -0 -1.85433e-20 -0 9.27167e-21)
(-1.00594e-16 -2.71755e-17 -0 1.94592e-16 -0 -9.3998e-17)
(2.98558e-17 2.4268e-17 -0 -4.47038e-17 -0 1.4848e-17)
(-7.92866e-18 -3.4346e-18 -0 1.10553e-17 -0 -3.12664e-18)
(9.0567e-19 1.78824e-18 -0 -1.81134e-18 -0 9.0567e-19)
(-1.12156e-18 1.08898e-18 -0 1.04276e-18 -0 7.88009e-20)
(-6.93828e-20 7.94951e-19 -0 1.38766e-19 -0 -6.93828e-20)
(-9.43855e-19 9.92467e-19 -0 6.87497e-19 -0 2.56358e-19)
(-7.236e-20 7.46407e-19 -0 1.4472e-19 -0 -7.236e-20)
(-8.03832e-20 6.44181e-19 -0 1.60766e-19 -0 -8.03832e-20)
(-8.97532e-20 6.88118e-19 -0 1.79506e-19 -0 -8.97532e-20)
(-5.42355e-20 6.07377e-19 -0 1.08471e-19 -0 -5.42355e-20)
(-4.37025e-19 7.12195e-19 -0 2.74116e-19 -0 1.62908e-19)
(3.40223e-20 9.14836e-21 -0 -6.80447e-20 -0 3.40223e-20)
(-7.17982e-20 1.71742e-19 -0 1.43596e-19 -0 -7.17982e-20)
(-9.35809e-19 5.57413e-19 -0 6.71993e-19 -0 2.63816e-19)
(-3.12765e-20 4.9975e-19 -0 6.25531e-20 -0 -3.12765e-20)
(-5.05891e-20 -5.40572e-19 -0 1.01178e-19 -0 -5.05891e-20)
(-4.46446e-19 4.54519e-20 -0 2.9318e-19 -0 1.53265e-19)
(3.84455e-19 -6.23083e-20 -0 -1.69221e-19 -0 -2.15234e-19)
(1.73047e-20 2.65795e-20 -0 -3.46094e-20 -0 1.73047e-20)
(-2.16506e-17 7.58511e-17 -0 3.36941e-17 -0 -1.20435e-17)
(1.12023e-17 -6.62785e-17 -0 -9.78084e-18 -0 -1.42143e-18)
(-1.87578e-18 1.18838e-17 -0 1.94837e-18 -0 -7.25898e-20)
(5.02956e-19 -4.31264e-18 -0 -4.04873e-19 -0 -9.80828e-20)
(-5.32445e-19 -3.4994e-19 -0 4.63903e-19 -0 6.85419e-20)
(-2.18024e-19 -1.06083e-18 -0 4.36048e-19 -0 -2.18024e-19)
(-1.06615e-18 -2.55625e-19 -0 9.30473e-19 -0 1.35673e-19)
(-1.17753e-19 -6.23842e-19 -0 2.35506e-19 -0 -1.17753e-19)
(-8.51919e-20 -3.08392e-20 -0 1.70384e-19 -0 -8.51919e-20)
(-4.54833e-19 -8.00986e-20 -0 3.08859e-19 -0 1.45974e-19)
(5.83285e-20 -1.58218e-19 -0 -1.16657e-19 -0 5.83285e-20)
(4.04193e-19 -1.87029e-19 -0 -2.07657e-19 -0 -1.96537e-19)
(-1.22384e-19 9.99973e-20 -0 2.44769e-19 -0 -1.22384e-19)
(8.11867e-19 -2.78475e-19 -0 -4.22429e-19 -0 -3.89438e-19)
(3.58999e-19 -5.62874e-19 -0 -1.17394e-19 -0 -2.41605e-19)
(-5.08045e-19 -6.83767e-19 -0 4.15514e-19 -0 9.25311e-20)
(-9.50636e-20 2.23447e-20 -0 1.90127e-19 -0 -9.50636e-20)
(4.11145e-20 5.71591e-19 -0 -8.2229e-20 -0 4.11145e-20)
(-7.85463e-19 -1.0098e-19 -0 3.69975e-19 -0 4.15488e-19)
(-2.94266e-20 -2.53151e-20 -0 5.88532e-20 -0 -2.94266e-20)
(8.99615e-17 -7.62698e-18 -0 -1.46854e-16 -0 5.68922e-17)
(-4.20455e-17 1.81804e-18 -0 4.31574e-17 -0 -1.11188e-18)
(9.77511e-18 -1.21828e-18 -0 -9.91982e-18 -0 1.4471e-19)
(-2.4046e-18 -5.25415e-19 -0 2.4017e-18 -0 2.89551e-21)
(9.75153e-19 -8.34221e-19 -0 -7.46665e-19 -0 -2.28487e-19)
(-9.68661e-21 -2.06427e-19 -0 1.93732e-20 -0 -9.68661e-21)
(1.15221e-19 -1.2615e-18 -0 -2.30442e-19 -0 1.15221e-19)
(1.01116e-18 -1.23232e-19 -0 -8.18894e-19 -0 -1.92267e-19)
(5.59313e-19 -5.10312e-20 -0 -5.16964e-19 -0 -4.23487e-20)
(5.79178e-20 -1.27229e-19 -0 -1.15836e-19 -0 5.79178e-20)
(8.01887e-19 -7.96781e-20 -0 -4.00609e-19 -0 -4.01278e-19)
(-1.38439e-18 -5.18315e-19 -0 9.64108e-19 -0 4.2028e-19)
(-1.51169e-18 -3.0253e-19 -0 1.21887e-18 -0 2.9282e-19)
(-5.21407e-19 -5.50896e-19 -0 4.41337e-19 -0 8.00698e-20)
(-3.70742e-19 -4.65702e-19 -0 1.40058e-19 -0 2.30683e-19)
(4.22008e-19 -6.21087e-19 -0 -2.42619e-19 -0 -1.79389e-19)
(5.12986e-19 -1.64132e-19 -0 -4.24624e-19 -0 -8.83614e-20)
(1.68643e-19 -7.21317e-19 -0 -3.37286e-19 -0 1.68643e-19)
(9.6635e-20 -2.57166e-19 -0 -1.9327e-19 -0 9.6635e-20)
(3.71761e-19 5.23652e-21 -0 -1.42266e-19 -0 -2.29494e-19)
(-4.63344e-17 -4.92608e-17 -0 7.0999e-17 -0 -2.46645e-17)
(2.60292e-17 4.35817e-17 -0 -2.37331e-17 -0 -2.29607e-18)
(-6.91189e-18 -9.64551e-18 -0 5.99001e-18 -0 9.21881e-19)
(1.18906e-18 2.56383e-18 -0 -1.17298e-18 -0 -1.60813e-20)
(-4.88076e-19 2.70581e-19 -0 3.73636e-19 -0 1.1444e-19)
(1.28903e-20 1.13151e-18 -0 -2.57805e-20 -0 1.28903e-20)
(4.8887e-20 9.2158e-19 -0 -9.77739e-20 -0 4.8887e-20)
(3.64415e-19 5.14811e-19 -0 -1.26423e-19 -0 -2.37992e-19)
(-9.93717e-20 -4.06605e-19 -0 1.98743e-19 -0 -9.93717e-20)
(-4.78511e-19 -7.45885e-19 -0 3.54696e-19 -0 1.23815e-19)
(-6.65389e-20 -1.00396e-18 -0 1.33078e-19 -0 -6.65389e-20)
(6.52808e-22 -3.26484e-19 -0 -1.30562e-21 -0 6.52808e-22)
(4.22685e-19 -2.922e-19 -0 -2.43178e-19 -0 -1.79507e-19)
(-1.92787e-20 4.1625e-19 -0 3.85574e-20 -0 -1.92787e-20)
(1.14441e-19 -1.74653e-19 -0 -2.28882e-19 -0 1.14441e-19)
(5.34768e-19 3.95708e-19 -0 -4.67453e-19 -0 -6.73151e-20)
(1.20055e-19 4.02816e-19 -0 -2.40109e-19 -0 1.20055e-19)
(3.50114e-20 -5.78901e-21 -0 -7.00229e-20 -0 3.50114e-20)
(3.05601e-20 4.96664e-19 -0 -6.11201e-20 -0 3.05601e-20)
(2.9113e-20 -2.24903e-19 -0 -5.8226e-20 -0 2.9113e-20)
(1.25191e-18 4.6383e-17 -0 2.31569e-18 -0 -3.5676e-18)
(-2.35589e-18 -4.93015e-17 -0 -1.31994e-18 -0 3.67584e-18)
(1.64229e-18 9.83132e-18 -0 -8.72154e-19 -0 -7.70133e-19)
(4.49722e-19 -2.32975e-18 -0 -8.99444e-19 -0 4.49722e-19)
(1.43549e-18 6.28175e-19 -0 -1.06191e-18 -0 -3.73576e-19)
(2.22686e-20 -1.08441e-19 -0 -4.45372e-20 -0 2.22686e-20)
(-1.60683e-19 1.70489e-20 -0 3.21365e-19 -0 -1.60683e-19)
(-1.09892e-18 9.91068e-20 -0 9.92019e-19 -0 1.06902e-19)
(-1.46481e-18 8.58352e-21 -0 1.12106e-18 -0 3.43755e-19)
(-5.38859e-19 7.27487e-19 -0 4.7489e-19 -0 6.39694e-20)
(-1.06068e-19 1.00921e-18 -0 2.12135e-19 -0 -1.06068e-19)
(-3.43174e-19 5.54399e-19 -0 8.36017e-20 -0 2.59572e-19)
(5.90747e-19 3.29487e-19 -0 -5.78803e-19 -0 -1.19444e-20)
(5.54534e-19 -8.92779e-20 -0 -5.06404e-19 -0 -4.81295e-20)
(1.40772e-19 5.09417e-19 -0 -2.81543e-19 -0 1.40772e-19)
(9.83621e-20 -2.81794e-20 -0 -1.96724e-19 -0 9.83621e-20)
(7.66978e-19 -1.68e-20 -0 -3.28898e-19 -0 -4.3808e-19)
(-8.69285e-19 1.41083e-20 -0 5.33573e-19 -0 3.35713e-19)
(-3.7231e-19 5.24161e-20 -0 1.42147e-19 -0 2.30163e-19)
(4.82698e-19 9.4827e-20 -0 -3.62963e-19 -0 -1.19735e-19)
(3.29074e-17 -2.29623e-17 -0 -7.90757e-17 -0 4.61683e-17)
(-1.79409e-18 3.73257e-17 -0 1.50549e-17 -0 -1.32608e-17)
(2.2731e-18 -4.51608e-18 -0 -4.54621e-18 -0 2.2731e-18)
(3.37732e-19 2.57577e-18 -0 5.31364e-19 -0 -8.69096e-19)
(2.01275e-19 3.09075e-19 -0 -4.0255e-19 -0 2.01275e-19)
(4.75532e-19 2.10293e-19 -0 -3.47735e-19 -0 -1.27797e-19)
(-3.6227e-19 1.92559e-19 -0 1.21266e-19 -0 2.41004e-19)
(5.20954e-19 6.00377e-20 -0 -4.38661e-19 -0 -8.22923e-20)
(9.23624e-19 8.63626e-19 -0 -6.40867e-19 -0 -2.82757e-19)
(3.92683e-19 8.32921e-19 -0 -1.82203e-19 -0 -2.10479e-19)
(-5.3847e-19 8.11936e-19 -0 4.73832e-19 -0 6.46376e-20)
(-9.66165e-19 4.36428e-19 -0 7.26173e-19 -0 2.39992e-19)
(-5.96816e-20 7.72196e-19 -0 1.19363e-19 -0 -5.96816e-20)
(-2.15878e-20 4.89104e-19 -0 4.31756e-20 -0 -2.15878e-20)
(-6.72146e-20 8.11131e-19 -0 1.34429e-19 -0 -6.72146e-20)
(7.63013e-19 5.92299e-20 -0 -3.20202e-19 -0 -4.42811e-19)
(-8.87252e-19 -5.55749e-19 -0 5.68785e-19 -0 3.18467e-19)
(-7.13876e-20 4.9838e-19 -0 1.42775e-19 -0 -7.13876e-20)
(-4.36274e-19 -2.47249e-20 -0 2.69744e-19 -0 1.66529e-19)
(4.04327e-19 2.4188e-19 -0 -2.05891e-19 -0 -1.98436e-19)
(-5.80603e-17 -1.71484e-17 -0 1.39637e-16 -0 -8.15764e-17)
(4.04734e-18 1.50953e-17 -0 -2.4999e-17 -0 2.09517e-17)
(-3.03817e-18 -4.82774e-18 -0 7.28365e-18 -0 -4.24548e-18)
(-1.50952e-18 7.76781e-19 -0 8.88919e-22 -0 1.50863e-18)
(-8.51336e-19 -4.83465e-19 -0 1.0991e-18 -0 -2.47763e-19)
(-8.8893e-19 1.33571e-19 -0 5.70773e-19 -0 3.18158e-19)
(-5.38562e-20 2.5055e-19 -0 1.07712e-19 -0 -5.38562e-20)
(-6.4697e-21 -2.00505e-20 -0 1.29394e-20 -0 -6.4697e-21)
(9.89344e-22 -1.00736e-19 -0 -1.97869e-21 -0 9.89344e-22)
(-5.4483e-20 -6.98181e-19 -0 1.08966e-19 -0 -5.4483e-20)
(-8.80479e-19 -8.72454e-19 -0 5.54318e-19 -0 3.26161e-19)
(-2.6456e-20 -7.66779e-19 -0 5.29119e-20 -0 -2.6456e-20)
(1.86849e-20 -7.85829e-19 -0 -3.73698e-20 -0 1.86849e-20)
(8.00051e-19 -6.81249e-19 -0 -3.93687e-19 -0 -4.06364e-19)
(-9.46513e-19 -3.65915e-19 -0 6.86719e-19 -0 2.59794e-19)
(-1.4246e-18 -3.84379e-21 -0 1.03983e-18 -0 3.84773e-19)
(7.12245e-19 -2.72547e-19 -0 -2.18349e-19 -0 -4.93896e-19)
(-4.65771e-20 -6.62487e-19 -0 9.31542e-20 -0 -4.65771e-20)
(-9.01194e-19 -3.59887e-19 -0 5.9636e-19 -0 3.04834e-19)
(-5.17548e-20 3.48505e-19 -0 1.0351e-19 -0 -5.17548e-20)
(3.13298e-17 5.4451e-17 -0 -8.6181e-17 -0 5.48512e-17)
(6.51118e-18 -7.12784e-17 -0 9.92452e-18 -0 -1.64357e-17)
(1.79961e-19 1.34786e-17 -0 -3.3789e-18 -0 3.19894e-18)
(1.23052e-18 -3.72223e-18 -0 -4.59711e-20 -0 -1.18455e-18)
(1.13707e-19 2.84003e-19 -0 -2.27414e-19 -0 1.13707e-19)
(8.61768e-19 -6.84168e-19 -0 -5.16172e-19 -0 -3.45596e-19)
(1.16711e-20 -2.25759e-19 -0 -2.33423e-20 -0 1.16711e-20)
(-9.43117e-19 -6.25808e-19 -0 6.7904e-19 -0 2.64077e-19)
(-4.76901e-20 -8.74455e-19 -0 9.53802e-20 -0 -4.76901e-20)
(4.44268e-19 4.37358e-20 -0 -2.85022e-19 -0 -1.59245e-19)
(-4.31093e-19 -1.3482e-19 -0 2.58728e-19 -0 1.72365e-19)
(-5.28051e-20 -3.08882e-19 -0 1.0561e-19 -0 -5.28051e-20)
(-9.04549e-20 -1.65767e-19 -0 1.8091e-19 -0 -9.04549e-20)
(-4.69951e-19 -4.75738e-19 -0 3.36559e-19 -0 1.33393e-19)
(3.60865e-19 -9.78638e-19 -0 -1.1844e-19 -0 -2.42425e-19)
(-2.65782e-20 -6.19679e-19 -0 5.31565e-20 -0 -2.65782e-20)
(7.87391e-20 -5.12152e-19 -0 -1.57478e-19 -0 7.87391e-20)
(1.34012e-19 -3.98093e-19 -0 -2.68023e-19 -0 1.34012e-19)
(4.44906e-19 -1.69625e-20 -0 -2.86663e-19 -0 -1.58243e-19)
(4.17188e-19 1.8583e-20 -0 -2.31269e-19 -0 -1.8592e-19)
(2.09939e-17 -4.40543e-17 -0 -2.81139e-17 -0 7.12009e-18)
(-1.3431e-17 7.81989e-17 -0 1.1763e-17 -0 1.66803e-18)
(3.65081e-18 -1.35156e-17 -0 -3.07437e-18 -0 -5.76438e-19)
(-1.48256e-18 2.98997e-18 -0 1.15352e-18 -0 3.29034e-19)
(6.67752e-20 -8.36381e-19 -0 -1.3355e-19 -0 6.67752e-20)
(-7.44545e-19 -1.51985e-20 -0 2.81533e-19 -0 4.63011e-19)
(8.41239e-19 -9.65838e-19 -0 -4.75036e-19 -0 -3.66203e-19)
(-4.60217e-20 -2.32843e-19 -0 9.20434e-20 -0 -4.60217e-20)
(4.00112e-19 -3.71171e-19 -0 -1.96587e-19 -0 -2.03525e-19)
(7.00814e-20 -7.26801e-19 -0 -1.40163e-19 -0 7.00814e-20)
(1.3088e-20 -4.28898e-19 -0 -2.61761e-20 -0 1.3088e-20)
(-5.31194e-19 -3.72783e-19 -0 4.58865e-19 -0 7.2329e-20)
(-9.36559e-19 -4.62005e-19 -0 6.66183e-19 -0 2.70376e-19)
(-4.3776e-19 4.51678e-19 -0 2.7208e-19 -0 1.65679e-19)
(-3.65538e-19 1.08069e-18 -0 1.27691e-19 -0 2.37846e-19)
(5.28393e-19 4.19372e-19 -0 -4.53431e-19 -0 -7.49613e-20)
(4.25906e-19 1.29632e-18 -0 -2.48512e-19 -0 -1.77394e-19)
(-5.10198e-20 2.96063e-19 -0 1.0204e-19 -0 -5.10198e-20)
(3.18874e-20 4.2158e-19 -0 -6.37748e-20 -0 3.18874e-20)
(2.6995e-20 1.3393e-19 -0 -5.399e-20 -0 2.6995e-20)
(-3.1841e-17 8.10496e-18 -0 8.11771e-17 -0 -4.93361e-17)
(-3.97186e-18 -4.73562e-17 -0 -1.07814e-17 -0 1.47533e-17)
(-1.24429e-18 6.12938e-18 -0 3.69651e-18 -0 -2.45222e-18)
(-9.32482e-19 -2.57441e-18 -0 5.31477e-20 -0 8.79334e-19)
(1.39587e-19 -5.20869e-19 -0 3.24708e-19 -0 -4.64295e-19)
(-5.73168e-19 -6.3862e-19 -0 5.42483e-19 -0 3.06848e-20)
(-4.58608e-19 -6.69833e-19 -0 3.1342e-19 -0 1.45188e-19)
(-3.27314e-19 -8.69978e-19 -0 5.08602e-20 -0 2.76454e-19)
(3.63108e-20 -1.43309e-19 -0 -7.26215e-20 -0 3.63108e-20)
(8.73971e-20 -2.81198e-19 -0 -1.74794e-19 -0 8.73971e-20)
(1.07673e-18 -4.40058e-19 -0 -9.46215e-19 -0 -1.30519e-19)
(2.73261e-19 -3.93188e-19 -0 -5.46522e-19 -0 2.73261e-19)
(1.07206e-18 -6.07648e-19 -0 -9.37034e-19 -0 -1.35025e-19)
(1.77545e-18 4.78147e-19 -0 -1.13684e-18 -0 -6.38605e-19)
(-6.80252e-21 -1.44645e-20 -0 1.3605e-20 -0 -6.80252e-21)
(-6.95839e-20 6.06519e-19 -0 1.39168e-19 -0 -6.95839e-20)
(-1.26658e-19 -2.4651e-19 -0 2.53316e-19 -0 -1.26658e-19)
(-1.77305e-18 -1.0881e-19 -0 1.13273e-18 -0 6.40324e-19)
(2.85338e-21 -1.34003e-19 -0 -5.70677e-21 -0 2.85338e-21)
(4.38501e-19 -1.94718e-19 -0 -2.73727e-19 -0 -1.64774e-19)
(1.49339e-17 -6.93877e-18 -0 -7.75322e-17 -0 6.25983e-17)
(2.41448e-17 1.86651e-17 -0 6.42813e-19 -0 -2.47876e-17)
(-3.15855e-18 -2.97675e-18 -0 -1.53535e-18 -0 4.6939e-18)
(3.36487e-18 1.51871e-18 -0 -1.29369e-18 -0 -2.07118e-18)
(-7.26547e-19 4.36411e-19 -0 2.45197e-19 -0 4.8135e-19)
(-4.29457e-19 2.78324e-19 -0 2.54994e-19 -0 1.74463e-19)
(9.70828e-19 1.08067e-18 -0 -7.3393e-19 -0 -2.36898e-19)
(6.31053e-19 1.13809e-18 -0 -6.58273e-19 -0 2.72193e-20)
(1.74017e-18 1.11987e-18 -0 -1.06522e-18 -0 -6.74943e-19)
(-7.66926e-19 1.03269e-18 -0 3.26354e-19 -0 4.40572e-19)
(1.15792e-19 1.10322e-18 -0 -2.31584e-19 -0 1.15792e-19)
(1.99431e-19 5.39414e-19 -0 -3.98862e-19 -0 1.99431e-19)
(8.59738e-19 6.04041e-19 -0 -5.1226e-19 -0 -3.47478e-19)
(-8.16623e-19 -3.4414e-19 -0 4.26089e-19 -0 3.90534e-19)
(-3.98068e-19 -3.76115e-19 -0 1.92613e-19 -0 2.05455e-19)
(-4.67594e-19 -4.20422e-21 -0 3.31695e-19 -0 1.359e-19)
(-2.84901e-20 -6.73556e-19 -0 5.69801e-20 -0 -2.84901e-20)
(8.38744e-19 4.03558e-19 -0 -4.7067e-19 -0 -3.68074e-19)
(-4.37783e-19 4.22665e-19 -0 2.72183e-19 -0 1.656e-19)
(3.71803e-19 4.94394e-19 -0 -1.40266e-19 -0 -2.31538e-19)
(-1.86377e-17 1.37911e-17 -0 7.10665e-17 -0 -5.24288e-17)
(-1.42923e-17 1.09185e-17 -0 -5.24901e-18 -0 1.95413e-17)
(5.42438e-19 1.35566e-18 -0 3.14383e-18 -0 -3.68627e-18)
(-2.40657e-18 1.02582e-18 -0 5.84628e-19 -0 1.82194e-18)
(7.5019e-19 9.42583e-19 -0 -2.9235e-19 -0 -4.5784e-19)
(5.54435e-19 1.04272e-18 -0 -5.04883e-19 -0 -4.95516e-20)
(1.2012e-19 7.58741e-19 -0 -2.4024e-19 -0 1.2012e-19)
(2.65007e-20 6.92933e-19 -0 -5.30014e-20 -0 2.65007e-20)
(-2.16499e-20 1.42293e-19 -0 4.32999e-20 -0 -2.16499e-20)
(-4.5557e-19 -5.61738e-19 -0 3.07325e-19 -0 1.48245e-19)
(-6.90916e-20 -7.84788e-20 -0 1.38183e-19 -0 -6.90916e-20)
(-1.49178e-20 -1.19021e-22 -0 2.98357e-20 -0 -1.49178e-20)
(-8.85098e-19 1.09871e-20 -0 5.62849e-19 -0 3.22249e-19)
(-1.03918e-19 -4.94199e-20 -0 2.07835e-19 -0 -1.03918e-19)
(8.08983e-19 -2.36127e-19 -0 -4.10787e-19 -0 -3.98196e-19)
(4.43512e-19 -5.51302e-19 -0 -2.83465e-19 -0 -1.60047e-19)
(7.6622e-20 5.09489e-19 -0 -1.53244e-19 -0 7.6622e-20)
(5.06771e-20 -9.82708e-20 -0 -1.01354e-19 -0 5.06771e-20)
(-5.81395e-19 -3.70866e-20 -0 5.59342e-19 -0 2.2053e-20)
(-9.59215e-19 8.00741e-21 -0 7.11618e-19 -0 2.47597e-19)
(3.7177e-17 1.22593e-17 -0 -7.43539e-17 -0 3.7177e-17)
(-8.23605e-18 -3.76325e-17 -0 1.76806e-17 -0 -9.44454e-18)
(1.74742e-18 5.77812e-18 -0 -3.49484e-18 -0 1.74742e-18)
(-5.28502e-19 -1.5114e-18 -0 1.057e-18 -0 -5.28502e-19)
(-6.22648e-19 -3.80694e-19 -0 3.71253e-20 -0 5.85522e-19)
(8.37029e-19 1.5418e-20 -0 -4.65945e-19 -0 -3.71084e-19)
(-9.00102e-19 -5.43172e-19 -0 5.92205e-19 -0 3.07897e-19)
(-5.46049e-20 -4.60891e-19 -0 1.0921e-19 -0 -5.46049e-20)
(-2.93491e-20 3.1598e-20 -0 5.86982e-20 -0 -2.93491e-20)
(-3.88125e-19 5.00219e-19 -0 1.72365e-19 -0 2.1576e-19)
(3.95523e-20 -7.65177e-19 -0 -7.91046e-20 -0 3.95523e-20)
(-4.19978e-19 5.56216e-19 -0 2.36157e-19 -0 1.83821e-19)
(3.84821e-19 -1.67914e-19 -0 -1.65899e-19 -0 -2.18922e-19)
(3.20692e-19 -1.68965e-19 -0 -3.76696e-20 -0 -2.83022e-19)
(-8.15774e-19 9.86031e-21 -0 4.2423e-19 -0 3.91544e-19)
(5.85264e-19 -1.12866e-19 -0 -5.66899e-19 -0 -1.83649e-20)
(1.21371e-19 -8.44497e-20 -0 -2.42741e-19 -0 1.21371e-19)
(3.94928e-19 -4.19812e-19 -0 -1.86313e-19 -0 -2.08615e-19)
(-4.96981e-19 -4.762e-19 -0 3.90446e-19 -0 1.06536e-19)
(3.33169e-19 -9.11402e-19 -0 -6.2862e-20 -0 -2.70306e-19)
(-1.99996e-17 -5.34784e-17 -0 3.39637e-17 -0 -1.39641e-17)
(7.95456e-18 6.80703e-17 -0 -9.86594e-18 -0 1.91138e-18)
(-7.48475e-19 -1.38308e-17 -0 1.49695e-18 -0 -7.48475e-19)
(2.61888e-19 3.07103e-18 -0 -5.23777e-19 -0 2.61888e-19)
(1.23702e-18 -1.99485e-19 -0 -6.61561e-19 -0 -5.75461e-19)
(-4.98676e-20 -5.09579e-20 -0 9.97352e-20 -0 -4.98676e-20)
(-1.35755e-18 -3.19873e-19 -0 9.02872e-19 -0 4.54677e-19)
(-2.9721e-20 -9.07821e-21 -0 5.94421e-20 -0 -2.9721e-20)
(9.09819e-19 -8.67268e-19 -0 -6.1166e-19 -0 -2.98159e-19)
(5.42939e-19 -6.65241e-19 -0 -4.81917e-19 -0 -6.10213e-20)
(6.8722e-20 5.73277e-19 -0 -1.37444e-19 -0 6.8722e-20)
(-5.05261e-19 8.5731e-20 -0 4.06647e-19 -0 9.86134e-20)
(-1.37343e-18 1.01325e-18 -0 9.3541e-19 -0 4.38023e-19)
(-2.52888e-20 2.42296e-19 -0 5.05777e-20 -0 -2.52888e-20)
(5.51973e-19 -2.94447e-20 -0 -5.00213e-19 -0 -5.17605e-20)
(9.21024e-19 4.57534e-19 -0 -6.34642e-19 -0 -2.86382e-19)
(-9.94425e-20 1.9139e-19 -0 1.98885e-19 -0 -9.94425e-20)
(-1.34928e-18 2.25754e-19 -0 8.87714e-19 -0 4.6157e-19)
(8.5024e-20 5.5495e-20 -0 -1.70048e-19 -0 8.5024e-20)
(4.5776e-19 3.65861e-19 -0 -3.11971e-19 -0 -1.45789e-19)
(-3.96285e-17 6.7471e-17 -0 8.4086e-17 -0 -4.44575e-17)
(8.59384e-18 -6.62585e-17 -0 -1.77921e-17 -0 9.19824e-18)
(-2.79172e-18 1.33906e-17 -0 4.37479e-18 -0 -1.58307e-18)
(-4.82665e-19 -3.28195e-18 -0 -2.43269e-19 -0 7.25934e-19)
(-1.47479e-18 6.91111e-19 -0 1.13684e-18 -0 3.3794e-19)
(-9.13488e-19 -6.23695e-19 -0 6.1855e-19 -0 2.94938e-19)
(3.31983e-19 3.32706e-19 -0 -5.98114e-20 -0 -2.72172e-19)
(-4.31888e-19 -2.37786e-19 -0 2.5965e-19 -0 1.72238e-19)
(1.01518e-19 7.85713e-20 -0 -2.03036e-19 -0 1.01518e-19)
(5.65856e-19 -5.00358e-20 -0 -5.27671e-19 -0 -3.81845e-20)
(5.15356e-19 -4.00872e-19 -0 -4.26728e-19 -0 -8.86277e-20)
(7.65394e-20 -2.99709e-19 -0 -1.53079e-19 -0 7.65394e-20)
(8.05162e-19 -5.85988e-19 -0 -4.02528e-19 -0 -4.02634e-19)
(1.95311e-20 2.63804e-19 -0 -3.90623e-20 -0 1.95311e-20)
(-5.81904e-21 4.01579e-19 -0 1.16381e-20 -0 -5.81904e-21)
(-1.02157e-18 -3.43236e-19 -0 8.35566e-19 -0 1.86e-19)
(-1.211e-19 -6.02816e-19 -0 2.42199e-19 -0 -1.211e-19)
(-3.76873e-20 -9.2956e-20 -0 7.53747e-20 -0 -3.76873e-20)
(6.62402e-20 -1.68849e-19 -0 -1.3248e-19 -0 6.62402e-20)
(2.33461e-20 -3.99173e-19 -0 -4.66923e-20 -0 2.33461e-20)
(1.11021e-16 -1.20496e-17 -0 -2.04533e-16 -0 9.35128e-17)
(-3.80264e-17 7.0086e-18 -0 5.06647e-17 -0 -1.26383e-17)
(9.46436e-18 -2.93924e-18 -0 -1.22802e-17 -0 2.81586e-18)
(-3.01898e-19 -4.1436e-19 -0 1.81256e-18 -0 -1.51066e-18)
(9.16033e-19 -7.61728e-19 -0 -6.23419e-19 -0 -2.92613e-19)
(-1.02805e-18 -4.21066e-20 -0 8.47514e-19 -0 1.80537e-19)
(-1.536e-20 -4.38057e-19 -0 3.07201e-20 -0 -1.536e-20)
(8.34896e-19 -2.67582e-19 -0 -4.61377e-19 -0 -3.73519e-19)
(-7.72585e-20 -2.49769e-19 -0 1.54517e-19 -0 -7.72585e-20)
(-1.27615e-19 -3.80156e-19 -0 2.55231e-19 -0 -1.27615e-19)
(-9.15791e-19 -2.02744e-19 -0 6.23454e-19 -0 2.92337e-19)
(-3.46769e-19 -3.49163e-19 -0 8.9504e-20 -0 2.57265e-19)
(5.54355e-19 -4.1092e-19 -0 -5.04732e-19 -0 -4.96233e-20)
(9.01958e-19 -9.56859e-19 -0 -5.9602e-19 -0 -3.05938e-19)
(-8.97693e-19 -8.83099e-19 -0 5.87599e-19 -0 3.10094e-19)
(-5.20187e-19 2.67524e-20 -0 4.36512e-19 -0 8.36755e-20)
(-3.23819e-19 -7.68148e-20 -0 4.38286e-20 -0 2.7999e-19)
(9.59366e-19 -3.57117e-19 -0 -7.11178e-19 -0 -2.48188e-19)
(-3.95696e-19 -3.60527e-20 -0 1.87642e-19 -0 2.08054e-19)
(4.00278e-19 -1.03361e-19 -0 -1.96848e-19 -0 -2.0343e-19)
(-4.84262e-17 -9.58258e-17 -0 8.77957e-17 -0 -3.93694e-17)
(1.73959e-17 8.71943e-17 -0 -2.27007e-17 -0 5.30479e-18)
(-4.62721e-18 -1.6898e-17 -0 5.6275e-18 -0 -1.0003e-18)
(5.13509e-19 4.10037e-18 -0 -1.02702e-18 -0 5.13509e-19)
(-3.02686e-20 -9.3902e-19 -0 6.05373e-20 -0 -3.02686e-20)
(-3.01511e-19 1.68973e-19 -0 -1.34679e-21 -0 3.02858e-19)
(4.91646e-19 -4.46427e-20 -0 -3.7898e-19 -0 -1.12666e-19)
(-3.9833e-19 4.59306e-19 -0 1.92378e-19 -0 2.05952e-19)
(-1.24832e-19 -2.90247e-19 -0 2.49664e-19 -0 -1.24832e-19)
(-5.44207e-19 3.01747e-19 -0 4.84219e-19 -0 5.99879e-20)
(-1.02824e-19 2.29909e-19 -0 2.05648e-19 -0 -1.02824e-19)
(-4.38747e-19 -8.88505e-20 -0 2.73386e-19 -0 1.65361e-19)
(4.96191e-19 2.58758e-19 -0 -3.88328e-19 -0 -1.07862e-19)
(5.83119e-20 3.28213e-19 -0 -1.16624e-19 -0 5.83119e-20)
(3.75528e-19 -1.82775e-19 -0 -1.4709e-19 -0 -2.28439e-19)
(8.93334e-19 3.74452e-21 -0 -5.78795e-19 -0 -3.14539e-19)
(9.63578e-20 1.96835e-19 -0 -1.92716e-19 -0 9.63578e-20)
(8.5144e-20 3.16827e-19 -0 -1.70288e-19 -0 8.5144e-20)
(-4.01134e-20 6.69737e-19 -0 8.02269e-20 -0 -4.01134e-20)
(-1.85082e-20 2.11422e-19 -0 3.70163e-20 -0 -1.85082e-20)
(-1.10864e-16 5.7477e-17 -0 1.94556e-16 -0 -8.36915e-17)
(4.27851e-17 -5.78781e-17 -0 -5.05034e-17 -0 7.71829e-18)
(-1.05855e-17 9.98971e-18 -0 1.2103e-17 -0 -1.51753e-18)
(1.44491e-18 -3.07853e-18 -0 -2.28532e-18 -0 8.40407e-19)
(3.87746e-19 -1.43753e-19 -0 -1.71045e-19 -0 -2.16701e-19)
(1.13814e-18 -8.25119e-19 -0 -1.06744e-18 -0 -7.06972e-20)
(5.26091e-19 -2.92835e-19 -0 -4.4782e-19 -0 -7.82711e-20)
(-4.04189e-19 -8.53695e-19 -0 2.04044e-19 -0 2.00145e-19)
(4.05626e-19 -3.08902e-20 -0 -2.06974e-19 -0 -1.98652e-19)
(1.49772e-20 -1.11104e-19 -0 -2.99544e-20 -0 1.49772e-20)
(1.59065e-20 5.45408e-19 -0 -3.18131e-20 -0 1.59065e-20)
(-4.53297e-19 5.64588e-19 -0 3.0243e-19 -0 1.50867e-19)
(-7.80737e-20 5.16074e-20 -0 1.56147e-19 -0 -7.80737e-20)
(-1.56842e-19 1.29974e-19 -0 3.13684e-19 -0 -1.56842e-19)
(-9.19483e-19 2.80079e-19 -0 6.30918e-19 -0 2.88565e-19)
(2.1611e-20 4.45512e-19 -0 -4.3222e-20 -0 2.1611e-20)
(4.44194e-20 -7.24374e-20 -0 -8.88388e-20 -0 4.44194e-20)
(8.05191e-19 1.49481e-19 -0 -4.02566e-19 -0 -4.02624e-19)
(-8.31557e-19 -4.84452e-19 -0 4.55352e-19 -0 3.76205e-19)
(-6.633e-21 -4.93239e-19 -0 1.3266e-20 -0 -6.633e-21)
(7.98372e-17 5.6486e-17 -0 -1.53032e-16 -0 7.31946e-17)
(-2.47944e-17 -5.54973e-17 -0 3.56997e-17 -0 -1.09053e-17)
(5.91041e-18 1.30492e-17 -0 -8.80146e-18 -0 2.89106e-18)
(2.19554e-19 -2.07977e-18 -0 7.68632e-19 -0 -9.88186e-19)
(6.62078e-19 1.33285e-18 -0 -7.20285e-19 -0 5.82075e-20)
(5.92446e-21 5.65274e-19 -0 -1.18489e-20 -0 5.92446e-21)
(8.67665e-20 4.55259e-19 -0 -1.73533e-19 -0 8.67665e-20)
(1.14366e-19 3.37524e-19 -0 -2.28731e-19 -0 1.14366e-19)
(9.5083e-19 2.89394e-19 -0 -6.93919e-19 -0 -2.56911e-19)
(8.54252e-20 -2.00391e-20 -0 -1.7085e-19 -0 8.54252e-20)
(5.82868e-20 -5.77802e-19 -0 -1.16574e-19 -0 5.82868e-20)
(6.36348e-20 5.20959e-20 -0 -1.2727e-19 -0 6.36348e-20)
(6.66465e-20 4.18116e-19 -0 -1.33293e-19 -0 6.66465e-20)
(1.7548e-19 8.02644e-20 -0 -3.50961e-19 -0 1.7548e-19)
(1.01194e-18 1.53533e-19 -0 -8.16131e-19 -0 -1.95805e-19)
(6.19273e-20 -8.37881e-19 -0 -1.23855e-19 -0 6.19273e-20)
(-5.48644e-20 -7.26648e-20 -0 1.09729e-19 -0 -5.48644e-20)
(-4.37382e-19 1.21097e-19 -0 2.70894e-19 -0 1.66488e-19)
(-2.77066e-19 7.58393e-20 -0 -4.97391e-20 -0 3.26805e-19)
(9.00536e-19 1.6193e-19 -0 -5.93331e-19 -0 -3.07205e-19)
)
;

boundaryField
{
    movingWall
    {
        type            calculated;
        value           nonuniform List<symmTensor> 
20
(
(1.38399e-16 1.79326e-17 -0 -2.70835e-16 -0 1.32436e-16)
(-3.57037e-17 -3.85973e-17 -0 5.8939e-17 -0 -2.32353e-17)
(8.4356e-18 1.42579e-17 -0 -1.41607e-17 -0 5.72509e-18)
(-4.89841e-19 -1.88687e-19 -0 2.06388e-18 -0 -1.57404e-18)
(5.65639e-19 3.04789e-18 -0 -5.89177e-19 -0 2.3538e-20)
(-1.90351e-19 2.1858e-18 -0 3.80702e-19 -0 -1.90351e-19)
(1.11843e-19 1.914e-18 -0 -2.23685e-19 -0 1.11843e-19)
(1.7669e-19 2.69648e-18 -0 -3.53379e-19 -0 1.7669e-19)
(9.1984e-19 1.7651e-18 -0 -7.55478e-19 -0 -1.64362e-19)
(1.46667e-19 8.70189e-19 -0 -2.93335e-19 -0 1.46667e-19)
(1.49067e-19 4.67491e-19 -0 -2.98134e-19 -0 1.49067e-19)
(2.09073e-19 9.34946e-19 -0 -4.18145e-19 -0 2.09073e-19)
(2.73779e-19 1.43656e-18 -0 -5.47559e-19 -0 2.73779e-19)
(4.87199e-19 9.60233e-19 -0 -9.74397e-19 -0 4.87199e-19)
(1.18873e-18 3.10867e-19 -0 -1.29325e-18 -0 1.04523e-19)
(1.31939e-19 -1.09825e-18 -0 -2.63878e-19 -0 1.31939e-19)
(-9.42729e-20 -6.5232e-20 -0 1.88546e-19 -0 -9.42729e-20)
(-4.03414e-19 1.0871e-19 -0 2.64727e-19 -0 1.38687e-19)
(-1.65781e-19 5.12171e-19 -0 -2.10539e-19 -0 3.7632e-19)
(8.6234e-19 7.62494e-19 -0 -6.40477e-19 -0 -2.21862e-19)
)
;
    }
    fixedWalls
    {
        type            calculated;
        value           nonuniform List<symmTensor> 
60
(
(7.80839e-17 -3.04888e-16 -0 -1.34852e-16 -0 5.67677e-17)
(-1.1657e-16 -8.97347e-17 -0 1.88731e-16 -0 -7.21608e-17)
(-4.45547e-17 2.44542e-16 -0 4.29242e-17 -0 1.63055e-18)
(1.63078e-16 -6.33434e-18 -0 -1.73388e-16 -0 1.03108e-17)
(-9.9772e-17 -1.63785e-16 -0 9.29626e-17 -0 6.8094e-18)
(1.36304e-17 1.81151e-16 -0 -4.16818e-18 -0 -9.46223e-18)
(5.57178e-18 -1.29886e-16 -0 -5.91052e-17 -0 5.35334e-17)
(-1.30024e-17 -5.76788e-17 -0 1.05941e-16 -0 -9.29385e-17)
(-2.05096e-17 2.58657e-16 -0 -5.31277e-17 -0 7.36373e-17)
(5.20032e-17 -2.83833e-16 -0 -4.1834e-17 -0 -1.01692e-17)
(1.18296e-17 1.64969e-16 -0 5.27241e-17 -0 -6.45537e-17)
(-8.94818e-17 -6.31009e-17 -0 -1.82121e-17 -0 1.07694e-16)
(5.42039e-17 -3.01928e-17 -0 2.83717e-17 -0 -8.25756e-17)
(3.10273e-17 1.31689e-16 -0 -6.56072e-17 -0 3.458e-17)
(-2.7968e-17 -2.53064e-16 -0 3.55079e-17 -0 -7.53989e-18)
(-3.13746e-17 2.51123e-16 -0 7.34074e-17 -0 -4.20328e-17)
(1.49606e-16 -3.05867e-17 -0 -2.08617e-16 -0 5.90115e-17)
(-6.70716e-17 -3.25334e-16 -0 9.06224e-17 -0 -2.35508e-17)
(-1.69715e-16 2.15649e-16 -0 2.09756e-16 -0 -4.00409e-17)
(9.73012e-17 2.12207e-16 -0 -1.50194e-16 -0 5.28923e-17)
(8.38881e-21 -3.44865e-20 -0 -1.67776e-20 -0 8.38881e-21)
(1.56439e-20 8.48193e-20 -0 -3.12879e-20 -0 1.56439e-20)
(-2.65676e-20 5.93772e-20 -0 5.31352e-20 -0 -2.65676e-20)
(-2.62155e-20 -7.45864e-20 -0 5.24309e-20 -0 -2.62155e-20)
(6.18338e-19 -3.68966e-19 -0 -3.48497e-19 -0 -2.6984e-19)
(6.65075e-19 8.27276e-20 -0 -4.41972e-19 -0 -2.23103e-19)
(5.94354e-19 3.39823e-19 -0 -3.0053e-19 -0 -2.93824e-19)
(-4.653e-20 3.67189e-19 -0 9.30601e-20 -0 -4.653e-20)
(1.35872e-20 6.06426e-20 -0 -2.71744e-20 -0 1.35872e-20)
(2.42606e-20 1.77661e-19 -0 -4.85212e-20 -0 2.42606e-20)
(6.24754e-19 -6.48445e-20 -0 -3.61329e-19 -0 -2.63425e-19)
(5.64783e-19 6.44521e-19 -0 -2.41388e-19 -0 -3.23395e-19)
(-1.3232e-18 4.21904e-20 -0 8.70037e-19 -0 4.5316e-19)
(1.12212e-18 -1.00238e-18 -0 -4.67888e-19 -0 -6.54235e-19)
(6.41873e-19 2.11597e-19 -0 -3.95568e-19 -0 -2.46305e-19)
(2.09665e-20 -4.32809e-19 -0 -4.1933e-20 -0 2.09665e-20)
(5.90149e-19 -2.04705e-19 -0 -2.92119e-19 -0 -2.9803e-19)
(-1.66174e-20 9.7472e-20 -0 3.32349e-20 -0 -1.66174e-20)
(-5.95483e-21 -5.7546e-19 -0 1.19097e-20 -0 -5.95483e-21)
(1.26986e-18 6.1743e-20 -0 -7.63358e-19 -0 -5.06499e-19)
(2.03801e-16 -4.90834e-17 -0 -4.03807e-16 -0 2.00006e-16)
(-4.70198e-17 6.74198e-17 -0 8.64502e-17 -0 -3.94304e-17)
(1.03651e-17 -1.84963e-17 -0 -1.9646e-17 -0 9.28092e-18)
(-1.74913e-18 1.21374e-18 -0 4.04036e-18 -0 -2.29123e-18)
(1.23088e-19 -3.48799e-18 -0 -7.88276e-19 -0 6.65189e-19)
(4.46749e-19 -2.56771e-18 -0 -3.51397e-19 -0 -9.53521e-20)
(9.49087e-19 -1.73996e-18 -0 -8.13972e-19 -0 -1.35115e-19)
(-1.17104e-20 -1.26718e-18 -0 2.34208e-20 -0 -1.17104e-20)
(5.27208e-20 -9.39587e-19 -0 -1.05442e-19 -0 5.27208e-20)
(1.25379e-19 -1.36911e-18 -0 -2.50758e-19 -0 1.25379e-19)
(1.50977e-19 -9.59556e-19 -0 -3.01955e-19 -0 1.50977e-19)
(3.15719e-19 -1.82551e-18 -0 -6.31439e-19 -0 3.15719e-19)
(6.43445e-19 -8.45016e-19 -0 -7.44789e-19 -0 1.01344e-19)
(5.62022e-19 6.02022e-20 -0 -5.81942e-19 -0 1.99204e-20)
(1.21505e-19 8.89785e-20 -0 -2.4301e-19 -0 1.21505e-19)
(-3.66553e-20 4.077e-20 -0 7.33106e-20 -0 -3.66553e-20)
(1.27847e-20 8.87515e-19 -0 -2.55694e-20 -0 1.27847e-20)
(-3.48856e-20 -4.22392e-19 -0 6.97712e-20 -0 -3.48856e-20)
(-4.50742e-20 8.83718e-19 -0 9.01484e-20 -0 -4.50742e-20)
(-2.2991e-20 -2.55244e-20 -0 4.5982e-20 -0 -2.2991e-20)
)
;
    }
    frontAndBack
    {
        type            empty;
    }
}


// ************************************************************************* //
