/*--------------------------------*- C++ -*----------------------------------*\
| =========                 |                                                 |
| \\      /  F ield         | OpenFOAM: The Open Source CFD Toolbox           |
|  \\    /   O peration     | Version:  2312                                  |
|   \\  /    A nd           | Website:  www.openfoam.com                      |
|    \\/     M anipulation  |                                                 |
\*---------------------------------------------------------------------------*/
FoamFile
{
    version     2.0;
    format      ascii;
    arch        "LSB;label=32;scalar=64";
    class       volVectorField;
    location    "8.5";
    object      UMean;
}
// * * * * * * * * * * * * * * * * * * * * * * * * * * * * * * * * * * * * * //

dimensions      [0 1 -1 0 0 0 0];

internalField   nonuniform List<vector> 
400
(
(-0.705937 4.40667e-05 0)
(-0.706296 0.000199055 0)
(-0.706962 0.000299427 0)
(-0.707731 0.000349866 0)
(-0.70858 0.000396385 0)
(-0.70953 0.000457867 0)
(-0.710609 0.000538488 0)
(-0.711825 0.000624974 0)
(-0.713127 0.000671253 0)
(-0.714383 0.000629852 0)
(-0.715402 0.00047637 0)
(-0.715985 0.000219317 0)
(-0.715975 -0.000130786 0)
(-0.715243 -0.000503479 0)
(-0.713806 -0.000848497 0)
(-0.711827 -0.00107535 0)
(-0.709601 -0.00108128 0)
(-0.70748 -0.000789394 0)
(-0.706071 -0.000317519 0)
(-0.705733 7.75197e-05 0)
(-0.706128 0.000432972 0)
(-0.706844 0.000930696 0)
(-0.707824 0.00120249 0)
(-0.708921 0.00134363 0)
(-0.710102 0.00148118 0)
(-0.711391 0.00165556 0)
(-0.712803 0.00184086 0)
(-0.714306 0.00196997 0)
(-0.71582 0.00195567 0)
(-0.717219 0.00171951 0)
(-0.718345 0.00122162 0)
(-0.719029 0.000468618 0)
(-0.719106 -0.000492228 0)
(-0.718459 -0.00155737 0)
(-0.717019 -0.00256064 0)
(-0.714857 -0.00326539 0)
(-0.712194 -0.00341314 0)
(-0.709384 -0.00277268 0)
(-0.706943 -0.00144277 0)
(-0.70588 -8.24928e-05 0)
(-0.70631 0.00120117 0)
(-0.707233 0.00192915 0)
(-0.708329 0.00232407 0)
(-0.709557 0.00257038 0)
(-0.710888 0.00281809 0)
(-0.712338 0.00310868 0)
(-0.713915 0.00339085 0)
(-0.715595 0.00356097 0)
(-0.717305 0.00349403 0)
(-0.71893 0.00308054 0)
(-0.720315 0.00225277 0)
(-0.721279 0.000994776 0)
(-0.721646 -0.000632304 0)
(-0.721292 -0.00249252 0)
(-0.720127 -0.00435234 0)
(-0.718083 -0.0058522 0)
(-0.715205 -0.00651782 0)
(-0.711739 -0.00584507 0)
(-0.708227 -0.00364399 0)
(-0.706054 -0.000851287 0)
(-0.706415 0.00214963 0)
(-0.707461 0.00303213 0)
(-0.708615 0.00351748 0)
(-0.709887 0.00387305 0)
(-0.711269 0.00424528 0)
(-0.712789 0.00466902 0)
(-0.714467 0.00507686 0)
(-0.716284 0.0053286 0)
(-0.718169 0.00525184 0)
(-0.719996 0.00469012 0)
(-0.721598 0.00354367 0)
(-0.722793 0.0017955 0)
(-0.723421 -0.000484494 0)
(-0.723362 -0.00312813 0)
(-0.722546 -0.00587339 0)
(-0.720869 -0.00834368 0)
(-0.71819 -0.00994648 0)
(-0.714458 -0.00984381 0)
(-0.710065 -0.00720191 0)
(-0.706481 -0.00233036 0)
(-0.706452 0.00319392 0)
(-0.707543 0.00419758 0)
(-0.708698 0.00474309 0)
(-0.709953 0.00519397 0)
(-0.711321 0.00569633 0)
(-0.712838 0.00627761 0)
(-0.714535 0.00684459 0)
(-0.716396 0.00721179 0)
(-0.718342 0.0071494 0)
(-0.720226 0.00644995 0)
(-0.721872 0.00499607 0)
(-0.723124 0.0027929 0)
(-0.723866 -5.93182e-05 0)
(-0.724025 -0.00336615 0)
(-0.723527 -0.00687596 0)
(-0.722329 -0.0102756 0)
(-0.720204 -0.0130325 0)
(-0.716784 -0.0141333 0)
(-0.712044 -0.0119495 0)
(-0.707363 -0.00524105 0)
(-0.706432 0.00425008 0)
(-0.707501 0.00535626 0)
(-0.708605 0.00594325 0)
(-0.70979 0.00647915 0)
(-0.711077 0.00711198 0)
(-0.712506 0.00785891 0)
(-0.714113 0.00859567 0)
(-0.715883 0.00908466 0)
(-0.717735 0.00903202 0)
(-0.719535 0.00819078 0)
(-0.721139 0.00644762 0)
(-0.722428 0.00383392 0)
(-0.723281 0.000488605 0)
(-0.723591 -0.00339087 0)
(-0.723306 -0.00752709 0)
(-0.72244 -0.0116491 0)
(-0.720877 -0.0154214 0)
(-0.718128 -0.0180177 0)
(-0.713615 -0.0172787 0)
(-0.708301 -0.0096409 0)
(-0.706373 0.00524814 0)
(-0.707361 0.00644868 0)
(-0.708369 0.00706377 0)
(-0.709432 0.00766521 0)
(-0.710572 0.00840784 0)
(-0.711821 0.00930258 0)
(-0.713216 0.0101919 0)
(-0.714755 0.0107926 0)
(-0.716382 0.0107639 0)
(-0.718013 0.00983599 0)
(-0.719562 0.00789317 0)
(-0.720919 0.00495741 0)
(-0.721926 0.00115597 0)
(-0.722413 -0.00327992 0)
(-0.722314 -0.0080171 0)
(-0.721665 -0.0127233 0)
(-0.72048 -0.0172291 0)
(-0.718418 -0.021152 0)
(-0.714496 -0.0224467 0)
(-0.70902 -0.0152551 0)
(-0.70629 0.00613022 0)
(-0.707152 0.00742607 0)
(-0.708025 0.00805494 0)
(-0.708924 0.00869192 0)
(-0.709858 0.00950242 0)
(-0.710848 0.0104974 0)
(-0.711919 0.0114995 0)
(-0.713099 0.0122126 0)
(-0.714383 0.0122584 0)
(-0.715753 0.0113382 0)
(-0.717181 0.00932511 0)
(-0.718572 0.00618761 0)
(-0.719726 0.00199998 0)
(-0.72045 -0.0029778 0)
(-0.720619 -0.00831779 0)
(-0.720252 -0.0135765 0)
(-0.719398 -0.0186579 0)
(-0.717919 -0.0235794 0)
(-0.71472 -0.0270347 0)
(-0.709433 -0.0215552 0)
(-0.706192 0.00685695 0)
(-0.706898 0.00825036 0)
(-0.707611 0.008879 0)
(-0.708318 0.00951521 0)
(-0.709008 0.0103378 0)
(-0.709683 0.011364 0)
(-0.710362 0.0124184 0)
(-0.711088 0.0132199 0)
(-0.711907 0.0133867 0)
(-0.712868 0.0126091 0)
(-0.714023 0.0106925 0)
(-0.715316 0.00750373 0)
(-0.716579 0.00305625 0)
(-0.717566 -0.00238793 0)
(-0.718105 -0.0082614 0)
(-0.718183 -0.0140622 0)
(-0.717792 -0.0196786 0)
(-0.716896 -0.025399 0)
(-0.714482 -0.0309271 0)
(-0.709618 -0.0280221 0)
(-0.706092 0.00740733 0)
(-0.706627 0.00890014 0)
(-0.707167 0.00951536 0)
(-0.707672 0.0101112 0)
(-0.70811 0.010881 0)
(-0.708456 0.0118559 0)
(-0.708719 0.0128929 0)
(-0.708944 0.0137344 0)
(-0.70921 0.014033 0)
(-0.709617 0.0134602 0)
(-0.71027 0.0117828 0)
(-0.71123 0.00879179 0)
(-0.712441 0.00435624 0)
(-0.713658 -0.00132172 0)
(-0.714706 -0.00762122 0)
(-0.715425 -0.0139566 0)
(-0.715681 -0.0201072 0)
(-0.715482 -0.0265777 0)
(-0.713924 -0.0340283 0)
(-0.70973 -0.0343392 0)
(-0.705999 0.00777923 0)
(-0.706367 0.00937051 0)
(-0.706737 0.00995951 0)
(-0.707048 0.0104789 0)
(-0.707248 0.0111374 0)
(-0.707293 0.0119815 0)
(-0.707175 0.0129102 0)
(-0.706923 0.0137045 0)
(-0.706625 0.0140748 0)
(-0.706401 0.0137155 0)
(-0.706409 0.0123743 0)
(-0.706776 0.00979624 0)
(-0.707648 0.00570883 0)
(-0.709009 0.000157115 0)
(-0.710606 -0.00631156 0)
(-0.712071 -0.0130478 0)
(-0.713119 -0.019748 0)
(-0.713744 -0.0269518 0)
(-0.713137 -0.0362713 0)
(-0.709851 -0.0403522 0)
(-0.705926 0.00798907 0)
(-0.706149 0.0096742 0)
(-0.706364 0.0102246 0)
(-0.7065 0.0106387 0)
(-0.706495 0.0111409 0)
(-0.706293 0.0117905 0)
(-0.705873 0.0125254 0)
(-0.705248 0.0131745 0)
(-0.704488 0.013507 0)
(-0.703713 0.0132721 0)
(-0.703087 0.0122368 0)
(-0.702799 0.010159 0)
(-0.703109 0.00678362 0)
(-0.704264 0.00190526 0)
(-0.706199 -0.00431427 0)
(-0.708374 -0.011237 0)
(-0.710253 -0.0184751 0)
(-0.711759 -0.0263991 0)
(-0.712198 -0.0375773 0)
(-0.710009 -0.0460139 0)
(-0.705887 0.00807593 0)
(-0.706 0.00983688 0)
(-0.706085 0.0103342 0)
(-0.706073 0.010621 0)
(-0.705897 0.0109398 0)
(-0.705507 0.0113614 0)
(-0.704876 0.0118533 0)
(-0.704008 0.0122909 0)
(-0.702958 0.0124985 0)
(-0.701833 0.0122798 0)
(-0.700785 0.0114476 0)
(-0.700016 0.00982401 0)
(-0.699789 0.00719718 0)
(-0.700475 0.00333624 0)
(-0.70225 -0.00203498 0)
(-0.704756 -0.00877024 0)
(-0.707324 -0.0162979 0)
(-0.709646 -0.0248633 0)
(-0.71119 -0.0378742 0)
(-0.710221 -0.0513128 0)
(-0.705895 0.00811582 0)
(-0.705948 0.0099038 0)
(-0.705935 0.0103181 0)
(-0.705796 0.0104555 0)
(-0.705474 0.0105776 0)
(-0.704937 0.0107658 0)
(-0.704165 0.0110084 0)
(-0.703162 0.0112216 0)
(-0.701976 0.0112755 0)
(-0.700696 0.0110225 0)
(-0.699457 0.0103239 0)
(-0.698443 0.00906345 0)
(-0.697868 0.0071066 0)
(-0.698031 0.00419989 0)
(-0.699305 -3.33189e-05 0)
(-0.701642 -0.00601126 0)
(-0.704557 -0.0133836 0)
(-0.707529 -0.0223914 0)
(-0.710141 -0.0370061 0)
(-0.710482 -0.0560801 0)
(-0.705969 0.00811419 0)
(-0.706042 0.00989309 0)
(-0.705951 0.0101851 0)
(-0.705691 0.0101495 0)
(-0.705231 0.0100717 0)
(-0.704563 0.0100401 0)
(-0.703681 0.0100571 0)
(-0.7026 0.0100688 0)
(-0.70136 0.00998442 0)
(-0.700038 0.00969706 0)
(-0.698746 0.00910746 0)
(-0.697626 0.00813288 0)
(-0.696843 0.00667914 0)
(-0.69661 0.00455796 0)
(-0.697273 0.00138385 0)
(-0.699104 -0.00339297 0)
(-0.701981 -0.0100548 0)
(-0.705388 -0.0191771 0)
(-0.708813 -0.0347455 0)
(-0.710681 -0.060089 0)
(-0.706147 0.0085137 0)
(-0.706287 0.0099824 0)
(-0.706142 0.0100002 0)
(-0.705761 0.0097282 0)
(-0.705153 0.00943729 0)
(-0.704343 0.00920208 0)
(-0.703348 0.00902808 0)
(-0.702193 0.00887687 0)
(-0.700914 0.00868491 0)
(-0.699575 0.00837709 0)
(-0.698264 0.00788002 0)
(-0.697089 0.00712773 0)
(-0.696175 0.00605074 0)
(-0.695675 0.00452372 0)
(-0.695847 0.00223574 0)
(-0.697024 -0.00134434 0)
(-0.69965 -0.00681659 0)
(-0.70286 -0.0156653 0)
(-0.70666 -0.0311849 0)
(-0.710593 -0.0637081 0)
(-0.706545 0.00797093 0)
(-0.706966 0.00935886 0)
(-0.706635 0.00930911 0)
(-0.706014 0.00895681 0)
(-0.705188 0.00855742 0)
(-0.704192 0.00819227 0)
(-0.703041 0.00789018 0)
(-0.701768 0.00763177 0)
(-0.700408 0.0073732 0)
(-0.699011 0.00706126 0)
(-0.697641 0.0066417 0)
(-0.696379 0.00606266 0)
(-0.695333 0.00527875 0)
(-0.694625 0.00419961 0)
(-0.694461 0.00262453 0)
(-0.695027 5.08531e-05 0)
(-0.697305 -0.00402523 0)
(-0.699229 -0.0124499 0)
(-0.703758 -0.0270641 0)
(-0.709943 -0.0679882 0)
(-0.707093 0.0128815 0)
(-0.707535 0.0123962 0)
(-0.70686 0.0107642 0)
(-0.705931 0.00932836 0)
(-0.704831 0.00830404 0)
(-0.703549 0.00754668 0)
(-0.702114 0.00697956 0)
(-0.700585 0.00654023 0)
(-0.699002 0.00616631 0)
(-0.697407 0.005807 0)
(-0.695852 0.00542214 0)
(-0.69441 0.00498055 0)
(-0.693169 0.0044446 0)
(-0.692211 0.00375222 0)
(-0.691751 0.00279374 0)
(-0.691715 0.00108651 0)
(-0.693742 -0.00186122 0)
(-0.692806 -0.00936846 0)
(-0.701762 -0.0214746 0)
(-0.706968 -0.071391 0)
(-0.707852 0.00481278 0)
(-0.708618 0.00296386 0)
(-0.706244 0.00306857 0)
(-0.703605 0.00387327 0)
(-0.700882 0.00406629 0)
(-0.698232 0.00392586 0)
(-0.695724 0.0037535 0)
(-0.693354 0.00361385 0)
(-0.691104 0.00348302 0)
(-0.688959 0.00333865 0)
(-0.686925 0.00317167 0)
(-0.685027 0.00297349 0)
(-0.683312 0.00273302 0)
(-0.681785 0.00240224 0)
(-0.680709 0.00194991 0)
(-0.679601 0.00100835 0)
(-0.681524 -0.000306613 0)
(-0.677799 -0.00494986 0)
(-0.698993 -0.0111577 0)
(-0.688898 -0.0623662 0)
(-0.694142 0.0270378 0)
(-0.688004 0.019777 0)
(-0.680843 0.0121228 0)
(-0.674786 0.00792074 0)
(-0.670188 0.00574955 0)
(-0.666361 0.00449046 0)
(-0.662897 0.00366799 0)
(-0.659694 0.00308857 0)
(-0.656728 0.00265599 0)
(-0.653969 0.00232109 0)
(-0.6514 0.00205064 0)
(-0.649012 0.00182295 0)
(-0.646833 0.00162285 0)
(-0.644845 0.00143226 0)
(-0.643325 0.00122587 0)
(-0.641626 0.000938324 0)
(-0.64321 0.000595379 0)
(-0.636675 -0.000646911 0)
(-0.67183 0.00166968 0)
(-0.599278 -0.0281929 0)
)
;

boundaryField
{
    movingWall
    {
        type            calculated;
        value           uniform (-0.411765 0 0);
    }
    fixedWalls
    {
        type            calculated;
        value           uniform (-0.705882 0 0);
    }
    frontAndBack
    {
        type            empty;
    }
}


// ************************************************************************* //
