/*--------------------------------*- C++ -*----------------------------------*\
| =========                 |                                                 |
| \\      /  F ield         | OpenFOAM: The Open Source CFD Toolbox           |
|  \\    /   O peration     | Version:  2312                                  |
|   \\  /    A nd           | Website:  www.openfoam.com                      |
|    \\/     M anipulation  |                                                 |
\*---------------------------------------------------------------------------*/
FoamFile
{
    version     2.0;
    format      ascii;
    arch        "LSB;label=32;scalar=64";
    class       volSymmTensorField;
    location    "8.5";
    object      UPrime2Mean;
}
// * * * * * * * * * * * * * * * * * * * * * * * * * * * * * * * * * * * * * //

dimensions      [0 2 -2 0 0 0 0];

internalField   nonuniform List<symmTensor> 
400
(
(0.207537 3.09053e-05 0 1.34299e-08 0 0)
(0.207029 0.000140286 0 1.27018e-07 0 0)
(0.206092 0.000210299 0 2.8978e-07 0 0)
(0.205014 0.000244799 0 4.02776e-07 0 0)
(0.20383 0.000276036 0 5.53894e-07 0 0)
(0.202512 0.000316854 0 8.51388e-07 0 0)
(0.201026 0.000369375 0 1.43436e-06 0 0)
(0.199368 0.000423401 0 2.3913e-06 0 0)
(0.197619 0.0004477 0 3.2274e-06 0 0)
(0.195957 0.000413022 0 3.16469e-06 0 0)
(0.194631 0.000307203 0 2.02932e-06 0 0)
(0.193886 0.000138197 0 6.20467e-07 0 0)
(0.193912 -8.9342e-05 0 1.1212e-07 0 0)
(0.194875 -0.000332891 0 1.17885e-06 0 0)
(0.196771 -0.000564142 0 3.66788e-06 0 0)
(0.199413 -0.000724953 0 6.20339e-06 0 0)
(0.202435 -0.000741976 0 6.39837e-06 0 0)
(0.205367 -0.000551362 0 3.21959e-06 0 0)
(0.207347 -0.00022406 0 3.71056e-07 0 0)
(0.207824 5.50013e-05 0 1.78937e-07 0 0)
(0.207268 0.000305092 0 6.10063e-07 0 0)
(0.206258 0.000653764 0 3.10155e-06 0 0)
(0.204886 0.000840022 0 5.33766e-06 0 0)
(0.20336 0.000932604 0 6.86305e-06 0 0)
(0.201728 0.00101999 0 8.97054e-06 0 0)
(0.199965 0.00112828 0 1.28598e-05 0 0)
(0.198055 0.0012373 0 1.8807e-05 0 0)
(0.196055 0.00130155 0 2.49242e-05 0 0)
(0.194074 0.00126762 0 2.73321e-05 0 0)
(0.192277 0.00109311 0 2.30357e-05 0 0)
(0.190854 0.000761167 0 1.32423e-05 0 0)
(0.190007 0.000279914 0 3.50112e-06 0 0)
(0.189929 -0.000324621 0 1.20078e-06 0 0)
(0.190767 -0.000997639 0 1.20167e-05 0 0)
(0.192619 -0.00164774 0 3.56199e-05 0 0)
(0.195428 -0.00213323 0 6.13171e-05 0 0)
(0.198948 -0.00227851 0 6.98656e-05 0 0)
(0.202745 -0.00189821 0 4.59868e-05 0 0)
(0.206121 -0.00101083 0 1.0408e-05 0 0)
(0.207616 -5.77429e-05 0 7.58654e-07 0 0)
(0.207012 0.000845453 0 5.10847e-06 0 0)
(0.205713 0.00135168 0 1.43425e-05 0 0)
(0.204184 0.00161742 0 2.15154e-05 0 0)
(0.202484 0.00177472 0 2.72599e-05 0 0)
(0.200657 0.00192653 0 3.54373e-05 0 0)
(0.198691 0.0020978 0 4.90518e-05 0 0)
(0.196584 0.00225066 0 6.71236e-05 0 0)
(0.194378 0.00231781 0 8.29199e-05 0 0)
(0.192173 0.0022271 0 8.63514e-05 0 0)
(0.190113 0.00192308 0 7.13714e-05 0 0)
(0.188383 0.00137707 0 4.19368e-05 0 0)
(0.187193 0.000586202 0 1.21543e-05 0 0)
(0.186749 -0.000416424 0 2.30155e-06 0 0)
(0.187206 -0.00156221 0 3.03374e-05 0 0)
(0.188686 -0.00272713 0 0.000102033 0 0)
(0.191295 -0.00370938 0 0.000197395 0 0)
(0.195016 -0.00421808 0 0.00026078 0 0)
(0.199587 -0.00389462 0 0.000221177 0 0)
(0.204347 -0.00251122 0 8.40703e-05 0 0)
(0.20737 -0.0005999 0 3.11654e-06 0 0)
(0.206864 0.00151223 0 1.73522e-05 0 0)
(0.205394 0.00212092 0 3.68216e-05 0 0)
(0.203788 0.00244228 0 5.1364e-05 0 0)
(0.202031 0.00266595 0 6.50269e-05 0 0)
(0.200142 0.00289059 0 8.47377e-05 0 0)
(0.198089 0.00313476 0 0.000115125 0 0)
(0.195858 0.00334957 0 0.00015268 0 0)
(0.193482 0.00344658 0 0.000182696 0 0)
(0.191057 0.00332848 0 0.000185901 0 0)
(0.188738 0.00291598 0 0.000152379 0 0)
(0.186727 0.002164 0 9.1182e-05 0 0)
(0.185238 0.00106981 0 2.93375e-05 0 0)
(0.184458 -0.0003285 0 3.09535e-06 0 0)
(0.184537 -0.00194503 0 4.61037e-05 0 0)
(0.185572 -0.0036415 0 0.000174614 0 0)
(0.187707 -0.00520945 0 0.000373235 0 0)
(0.191148 -0.00630476 0 0.000567869 0 0)
(0.196004 -0.00640122 0 0.000605956 0 0)
(0.201857 -0.00485685 0 0.000352092 0 0)
(0.206773 -0.00163171 0 3.2972e-05 0 0)
(0.206811 0.00224623 0 3.97659e-05 0 0)
(0.205279 0.00293417 0 7.22078e-05 0 0)
(0.203672 0.00329077 0 9.55602e-05 0 0)
(0.201939 0.00357251 0 0.000120132 0 0)
(0.200069 0.00387596 0 0.000156522 0 0)
(0.19802 0.00421339 0 0.000210685 0 0)
(0.195759 0.00451886 0 0.000273987 0 0)
(0.193315 0.00467647 0 0.000320545 0 0)
(0.190793 0.00455507 0 0.000320309 0 0)
(0.188376 0.00404498 0 0.000260671 0 0)
(0.186281 0.00308973 0 0.000159042 0 0)
(0.184699 0.0016987 0 5.7369e-05 0 0)
(0.183765 -7.01743e-05 0 6.34605e-06 0 0)
(0.183569 -0.00211073 0 5.2228e-05 0 0)
(0.184205 -0.00428926 0 0.000221997 0 0)
(0.18574 -0.00643197 0 0.000514715 0 0)
(0.188481 -0.00823306 0 0.000877124 0 0)
(0.192928 -0.00909091 0 0.00113255 0 0)
(0.199195 -0.00793124 0 0.000924849 0 0)
(0.205552 -0.00362371 0 0.000208327 0 0)
(0.206835 0.00298985 0 7.18999e-05 0 0)
(0.205339 0.00374509 0 0.000118713 0 0)
(0.203799 0.00412658 0 0.000151282 0 0)
(0.20216 0.00446285 0 0.000188699 0 0)
(0.200395 0.00485115 0 0.000245261 0 0)
(0.198455 0.00529671 0 0.000327119 0 0)
(0.196299 0.00571304 0 0.000418325 0 0)
(0.19395 0.00594992 0 0.000480279 0 0)
(0.191517 0.00583306 0 0.00047226 0 0)
(0.189174 0.00522344 0 0.000382576 0 0)
(0.187105 0.00406336 0 0.000239837 0 0)
(0.185459 0.00238057 0 9.84645e-05 0 0)
(0.184383 0.00026448 0 2.00932e-05 0 0)
(0.184005 -0.00216903 0 5.97468e-05 0 0)
(0.184383 -0.00476688 0 0.000253176 0 0)
(0.185502 -0.00738121 0 0.000608418 0 0)
(0.187521 -0.00982601 0 0.00110576 0 0)
(0.191103 -0.0116182 0 0.00163544 0 0)
(0.197068 -0.0114116 0 0.00174323 0 0)
(0.204255 -0.00661208 0 0.000689478 0 0)
(0.206916 0.00369375 0 0.000110258 0 0)
(0.205534 0.00451377 0 0.000171683 0 0)
(0.204125 0.00491445 0 0.000212714 0 0)
(0.20265 0.00529701 0 0.000262444 0 0)
(0.201079 0.00576429 0 0.000338382 0 0)
(0.19937 0.00631846 0 0.000446467 0 0)
(0.197477 0.00685039 0 0.000562683 0 0)
(0.195407 0.00717566 0 0.000637388 0 0)
(0.193235 0.00708121 0 0.000622786 0 0)
(0.191079 0.00640409 0 0.000510109 0 0)
(0.189052 0.00508146 0 0.000335329 0 0)
(0.187302 0.00314117 0 0.000159241 0 0)
(0.186029 0.0006763 0 5.21144e-05 0 0)
(0.185437 -0.00216431 0 8.0061e-05 0 0)
(0.185598 -0.00518335 0 0.000286829 0 0)
(0.186458 -0.00819512 0 0.000682205 0 0)
(0.18799 -0.0111238 0 0.0012656 0 0)
(0.190667 -0.0137691 0 0.00201767 0 0)
(0.195854 -0.0148796 0 0.00260127 0 0)
(0.20326 -0.0104426 0 0.00156243 0 0)
(0.207034 0.00431794 0 0.00014922 0 0)
(0.205827 0.0052064 0 0.000224704 0 0)
(0.204603 0.00562027 0 0.000272124 0 0)
(0.20335 0.00603365 0 0.000330722 0 0)
(0.202054 0.00655921 0 0.000420308 0 0)
(0.200688 0.00720135 0 0.000546767 0 0)
(0.199216 0.00783718 0 0.000680637 0 0)
(0.197605 0.0082658 0 0.000768331 0 0)
(0.195864 0.00823607 0 0.000756116 0 0)
(0.194023 0.00755427 0 0.000634443 0 0)
(0.192126 0.00614599 0 0.000442434 0 0)
(0.190308 0.00400884 0 0.000240976 0 0)
(0.188832 0.00121377 0 0.000106414 0 0)
(0.187944 -0.00205526 0 0.000117978 0 0)
(0.187781 -0.00551945 0 0.000327124 0 0)
(0.188297 -0.00891577 0 0.000746286 0 0)
(0.189412 -0.0122265 0 0.00138561 0 0)
(0.191312 -0.0155246 0 0.00228693 0 0)
(0.195528 -0.0180574 0 0.00335139 0 0)
(0.202685 -0.0147878 0 0.00274987 0 0)
(0.207172 0.00483367 0 0.000182758 0 0)
(0.206182 0.00579576 0 0.000270997 0 0)
(0.20518 0.00621611 0 0.000321991 0 0)
(0.204191 0.00663898 0 0.000384072 0 0)
(0.203227 0.00718957 0 0.00047822 0 0)
(0.202288 0.00787991 0 0.000610466 0 0)
(0.201347 0.00858749 0 0.000750822 0 0)
(0.200344 0.00911431 0 0.000848338 0 0)
(0.199219 0.0091928 0 0.000848235 0 0)
(0.197908 0.0086075 0 0.000739023 0 0)
(0.19635 0.0072288 0 0.000551158 0 0)
(0.194631 0.00498538 0 0.000337741 0 0)
(0.19299 0.00191698 0 0.00018115 0 0)
(0.191752 -0.00176573 0 0.000171068 0 0)
(0.191113 -0.00565966 0 0.000364761 0 0)
(0.191058 -0.00944383 0 0.000784574 0 0)
(0.191575 -0.013103 0 0.00145735 0 0)
(0.192695 -0.0169141 0 0.00246386 0 0)
(0.195843 -0.0208255 0 0.00395489 0 0)
(0.202424 -0.019295 0 0.00408815 0 0)
(0.207314 0.00522589 0 0.000206246 0 0)
(0.206563 0.00626498 0 0.000305262 0 0)
(0.205803 0.00668455 0 0.000356983 0 0)
(0.205094 0.00709084 0 0.00041646 0 0)
(0.204481 0.00762247 0 0.000504633 0 0)
(0.203998 0.00830438 0 0.000628084 0 0)
(0.203635 0.00903658 0 0.000762681 0 0)
(0.20333 0.00963264 0 0.000862662 0 0)
(0.202971 0.00983689 0 0.00087873 0 0)
(0.202421 0.0094072 0 0.000793932 0 0)
(0.201536 0.00817514 0 0.00063144 0 0)
(0.200244 0.0060033 0 0.000434438 0 0)
(0.198639 0.00283367 0 0.000269647 0 0)
(0.197062 -0.00113668 0 0.000229469 0 0)
(0.195729 -0.00542297 0 0.000382735 0 0)
(0.194809 -0.00961036 0 0.000772342 0 0)
(0.194457 -0.01362 0 0.00145069 0 0)
(0.194636 -0.0178994 0 0.00253863 0 0)
(0.196611 -0.0230838 0 0.00439173 0 0)
(0.202264 -0.0237214 0 0.00545178 0 0)
(0.207445 0.00549191 0 0.00021737 0 0)
(0.206929 0.00660847 0 0.000324693 0 0)
(0.206408 0.00701855 0 0.000374658 0 0)
(0.205972 0.00738237 0 0.00042648 0 0)
(0.205694 0.00785135 0 0.000500286 0 0)
(0.205638 0.00846353 0 0.000602768 0 0)
(0.205818 0.00914908 0 0.000717288 0 0)
(0.206196 0.00974722 0 0.000806847 0 0)
(0.206648 0.0100367 0 0.000832174 0 0)
(0.207001 0.00978117 0 0.000775624 0 0)
(0.207027 0.00878645 0 0.00065329 0 0)
(0.206552 0.00686899 0 0.000497715 0 0)
(0.205382 0.00385272 0 0.000351301 0 0)
(0.203557 -0.000162376 0 0.000282105 0 0)
(0.201418 -0.00469016 0 0.000369929 0 0)
(0.199443 -0.0092281 0 0.000693642 0 0)
(0.197992 -0.01362 0 0.00134235 0 0)
(0.197037 -0.0183559 0 0.00247881 0 0)
(0.197704 -0.0247657 0 0.00464966 0 0)
(0.202092 -0.0279394 0 0.00676597 0 0)
(0.207547 0.00564318 0 0.000216641 0 0)
(0.207238 0.00683281 0 0.00032935 0 0)
(0.206936 0.00722383 0 0.000375826 0 0)
(0.206747 0.00752259 0 0.000416934 0 0)
(0.206762 0.00789248 0 0.000471747 0 0)
(0.20706 0.00838098 0 0.00054634 0 0)
(0.207678 0.00894636 0 0.000630498 0 0)
(0.208603 0.00946175 0 0.000697682 0 0)
(0.209735 0.00974694 0 0.000719336 0 0)
(0.210899 0.00960091 0 0.000681982 0 0)
(0.211852 0.00883718 0 0.000597398 0 0)
(0.212319 0.00727164 0 0.000492056 0 0)
(0.211924 0.00472566 0 0.000393335 0 0)
(0.210328 0.00109791 0 0.000322005 0 0)
(0.207639 -0.00338549 0 0.000338628 0 0)
(0.204616 -0.00816738 0 0.000561414 0 0)
(0.201976 -0.0129753 0 0.00113461 0 0)
(0.199787 -0.0181827 0 0.00227123 0 0)
(0.199011 -0.0258043 0 0.00471129 0 0)
(0.20187 -0.0319023 0 0.00801044 0 0)
(0.207602 0.00570592 0 0.000207166 0 0)
(0.20745 0.00695451 0 0.000321605 0 0)
(0.207332 0.00731439 0 0.000363406 0 0)
(0.207356 0.0075298 0 0.000392744 0 0)
(0.207617 0.00777675 0 0.000427973 0 0)
(0.208187 0.00810948 0 0.000474555 0 0)
(0.209114 0.00850718 0 0.000526721 0 0)
(0.210395 0.00887639 0 0.000567415 0 0)
(0.211957 0.00907828 0 0.000577927 0 0)
(0.213642 0.00895262 0 0.000549217 0 0)
(0.215222 0.00834606 0 0.00049044 0 0)
(0.216392 0.00711964 0 0.000424711 0 0)
(0.216759 0.00512242 0 0.000370514 0 0)
(0.215792 0.00220809 0 0.000329652 0 0)
(0.213268 -0.00175432 0 0.000306392 0 0)
(0.20972 -0.0065358 0 0.000416893 0 0)
(0.206071 -0.0116442 0 0.00086298 0 0)
(0.202719 -0.0173162 0 0.00192986 0 0)
(0.200413 -0.0261409 0 0.00456374 0 0)
(0.201573 -0.035594 0 0.00918888 0 0)
(0.20759 0.00573447 0 0.000194467 0 0)
(0.207524 0.0070041 0 0.00030592 0 0)
(0.207548 0.00730959 0 0.000341383 0 0)
(0.207755 0.00742356 0 0.000358944 0 0)
(0.208225 0.00753462 0 0.000376611 0 0)
(0.209008 0.00770277 0 0.000399684 0 0)
(0.21014 0.00792058 0 0.000425197 0 0)
(0.211617 0.00812454 0 0.000443483 0 0)
(0.213378 0.00821152 0 0.000443261 0 0)
(0.21529 0.00806061 0 0.000419043 0 0)
(0.217147 0.00755759 0 0.000376991 0 0)
(0.21867 0.00661095 0 0.000333862 0 0)
(0.219536 0.00512516 0 0.000305242 0 0)
(0.219308 0.00292578 0 0.0002887 0 0)
(0.217469 -0.000238478 0 0.000273437 0 0)
(0.214125 -0.00457998 0 0.000300446 0 0)
(0.209954 -0.00970947 0 0.000585884 0 0)
(0.205662 -0.0157628 0 0.00150031 0 0)
(0.201868 -0.0256667 0 0.00418209 0 0)
(0.201209 -0.0388998 0 0.0102634 0 0)
(0.207482 0.00573121 0 0.000180911 0 0)
(0.207394 0.00699337 0 0.000285469 0 0)
(0.207528 0.00721446 0 0.000312619 0 0)
(0.207908 0.00720884 0 0.000318794 0 0)
(0.208577 0.00717992 0 0.000322018 0 0)
(0.209551 0.00719089 0 0.000327529 0 0)
(0.210839 0.00724324 0 0.000334213 0 0)
(0.212428 0.00729539 0 0.000337054 0 0)
(0.214262 0.00727528 0 0.000329948 0 0)
(0.216228 0.00709615 0 0.000309698 0 0)
(0.218152 0.00667689 0 0.000279508 0 0)
(0.21982 0.00595286 0 0.000248821 0 0)
(0.220982 0.00485671 0 0.000228658 0 0)
(0.221324 0.00325641 0 0.000222648 0 0)
(0.22035 0.000877835 0 0.000219957 0 0)
(0.217702 -0.00264323 0 0.00022322 0 0)
(0.213567 -0.00738903 0 0.000359676 0 0)
(0.208648 -0.013643 0 0.00105566 0 0)
(0.203707 -0.0242445 0 0.00355139 0 0)
(0.200931 -0.0416906 0 0.0111603 0 0)
(0.207229 0.00600934 0 0.000187783 0 0)
(0.207048 0.00704774 0 0.000273206 0 0)
(0.20726 0.00707581 0 0.000284204 0 0)
(0.207815 0.0069045 0 0.000276915 0 0)
(0.208695 0.00672541 0 0.00026772 0 0)
(0.209869 0.00659032 0 0.000260674 0 0)
(0.211319 0.00650218 0 0.000255407 0 0)
(0.213012 0.00643104 0 0.000249181 0 0)
(0.214895 0.00632701 0 0.000238773 0 0)
(0.216876 0.00613008 0 0.000222249 0 0)
(0.218819 0.00578144 0 0.000200585 0 0)
(0.220559 0.00523004 0 0.000177923 0 0)
(0.221905 0.00442557 0 0.000160327 0 0)
(0.222632 0.00327939 0 0.00015285 0 0)
(0.222365 0.00156783 0 0.000151899 0 0)
(0.22064 -0.00108834 0 0.000153982 0 0)
(0.216844 -0.00505851 0 0.000207571 0 0)
(0.212201 -0.0112755 0 0.000682376 0 0)
(0.206716 -0.0219653 0 0.00275929 0 0)
(0.201055 -0.0442782 0 0.0119857 0 0)
(0.206662 0.00561844 0 0.000158933 0 0)
(0.206093 0.00658749 0 0.000227126 0 0)
(0.206564 0.00656953 0 0.000233056 0 0)
(0.207455 0.0063445 0 0.000222677 0 0)
(0.208644 0.00609004 0 0.000209209 0 0)
(0.210083 0.00586182 0 0.000196642 0 0)
(0.211754 0.00567935 0 0.000186045 0 0)
(0.213614 0.005527 0 0.000176287 0 0)
(0.215609 0.00537081 0 0.000165581 0 0)
(0.21767 0.00516916 0 0.000152603 0 0)
(0.219692 0.00487944 0 0.000137225 0 0)
(0.221557 0.00446179 0 0.000120724 0 0)
(0.223095 0.00388275 0 0.000105592 0 0)
(0.224124 0.00307717 0 9.44158e-05 0 0)
(0.224343 0.00189945 0 8.85897e-05 0 0)
(0.223492 -1.46557e-05 0 8.61897e-05 0 0)
(0.220157 -0.00301279 0 0.0001132 0 0)
(0.217379 -0.00909533 0 0.000433506 0 0)
(0.210816 -0.0192967 0 0.00200086 0 0)
(0.201977 -0.0474639 0 0.0130442 0 0)
(0.205884 0.00906216 0 0.000409269 0 0)
(0.205291 0.00870224 0 0.000387937 0 0)
(0.206241 0.00758332 0 0.000300907 0 0)
(0.207564 0.00660002 0 0.000231996 0 0)
(0.209136 0.00590602 0 0.000188566 0 0)
(0.21098 0.0054 0 0.00015951 0 0)
(0.213056 0.0050278 0 0.000139332 0 0)
(0.215285 0.00474404 0 0.000124332 0 0)
(0.217605 0.00450304 0 0.000111763 0 0)
(0.219956 0.00426688 0 9.99819e-05 0 0)
(0.222257 0.00400502 0 8.82652e-05 0 0)
(0.224394 0.00369359 0 7.65763e-05 0 0)
(0.226232 0.00330418 0 6.49902e-05 0 0)
(0.227642 0.00279084 0 5.34538e-05 0 0)
(0.228305 0.00207107 0 4.24205e-05 0 0)
(0.228334 0.000788257 0 3.19326e-05 0 0)
(0.22531 -0.00141419 0 4.45137e-05 0 0)
(0.226727 -0.00700795 0 0.000266644 0 0)
(0.21363 -0.0154374 0 0.00121592 0 0)
(0.206219 -0.0505018 0 0.0135998 0 0)
(0.204845 0.00338084 0 5.9403e-05 0 0)
(0.203769 0.00207 0 2.24655e-05 0 0)
(0.207107 0.00216568 0 2.4518e-05 0 0)
(0.210851 0.00276029 0 3.97095e-05 0 0)
(0.214754 0.00292862 0 4.45399e-05 0 0)
(0.218595 0.00285714 0 4.23669e-05 0 0)
(0.222267 0.00275927 0 3.94095e-05 0 0)
(0.225772 0.00268191 0 3.70308e-05 0 0)
(0.229132 0.002608 0 3.47806e-05 0 0)
(0.232362 0.00252082 0 3.22566e-05 0 0)
(0.235446 0.0024131 0 2.93875e-05 0 0)
(0.238345 0.00227784 0 2.61758e-05 0 0)
(0.240979 0.00210595 0 2.26094e-05 0 0)
(0.243334 0.00185981 0 1.81488e-05 0 0)
(0.244997 0.00151198 0 1.281e-05 0 0)
(0.246708 0.000776141 0 5.39423e-06 0 0)
(0.243732 -0.000266078 0 7.01435e-06 0 0)
(0.24948 -0.00391986 0 9.13845e-05 0 0)
(0.217569 -0.00812146 0 0.000347048 0 0)
(0.232692 -0.0469763 0 0.00991223 0 0)
(0.2246 0.0198634 0 0.00176951 0 0)
(0.233625 0.0148275 0 0.000975146 0 0)
(0.24452 0.00931569 0 0.000378871 0 0)
(0.253919 0.00621346 0 0.000166716 0 0)
(0.261191 0.00458238 0 8.98732e-05 0 0)
(0.267331 0.00362612 0 5.57188e-05 0 0)
(0.272957 0.00299727 0 3.7641e-05 0 0)
(0.278219 0.00255159 0 2.69565e-05 0 0)
(0.283146 0.00221668 0 2.0109e-05 0 0)
(0.287773 0.0019557 0 1.54831e-05 0 0)
(0.292123 0.00174329 0 1.21802e-05 0 0)
(0.2962 0.00156268 0 9.69891e-06 0 0)
(0.29995 0.00140176 0 7.73972e-06 0 0)
(0.303395 0.00124555 0 6.0558e-06 0 0)
(0.306045 0.00107102 0 4.42644e-06 0 0)
(0.309009 0.000821645 0 2.51616e-06 0 0)
(0.306249 0.000512445 0 1.00371e-06 0 0)
(0.317543 -0.000599086 0 4.0271e-06 0 0)
(0.258708 0.00125992 0 3.1727e-05 0 0)
(0.38646 -0.0272342 0 0.00192967 0 0)
)
;

boundaryField
{
    movingWall
    {
        type            calculated;
        value           uniform (0.83045 0 0 0 0 0);
    }
    fixedWalls
    {
        type            calculated;
        value           uniform (0.207612 0 0 0 0 0);
    }
    frontAndBack
    {
        type            empty;
    }
}


// ************************************************************************* //
