/*--------------------------------*- C++ -*----------------------------------*\
| =========                 |                                                 |
| \\      /  F ield         | OpenFOAM: The Open Source CFD Toolbox           |
|  \\    /   O peration     | Version:  2312                                  |
|   \\  /    A nd           | Website:  www.openfoam.com                      |
|    \\/     M anipulation  |                                                 |
\*---------------------------------------------------------------------------*/
FoamFile
{
    version     2.0;
    format      ascii;
    arch        "LSB;label=32;scalar=64";
    class       volVectorField;
    location    "8.5";
    object      vorticityField;
}
// * * * * * * * * * * * * * * * * * * * * * * * * * * * * * * * * * * * * * //

dimensions      [0 0 -1 0 0 0 0];

internalField   nonuniform List<vector> 
400
(
(0 -0 5.676e-12)
(0 -0 -6.96923e-12)
(0 -0 1.49436e-12)
(0 -0 -3.16314e-13)
(0 -0 5.52403e-14)
(0 -0 -9.6826e-15)
(0 -0 -3.6397e-15)
(0 -0 -6.50868e-15)
(0 -0 5.14086e-15)
(0 -0 3.68462e-15)
(0 -0 7.13775e-15)
(0 -0 -2.21901e-14)
(0 -0 -4.31619e-15)
(0 -0 4.81899e-14)
(0 -0 -8.89785e-15)
(0 -0 -4.077e-15)
(0 -0 5.42765e-14)
(0 -0 -2.16971e-15)
(0 -0 4.46048e-16)
(0 -0 2.55244e-15)
(0 -0 7.76209e-13)
(0 -0 -1.70359e-12)
(0 -0 4.72817e-13)
(0 -0 1.12425e-15)
(0 -0 1.7269e-13)
(0 -0 9.08249e-14)
(0 -0 7.29766e-14)
(0 -0 4.09913e-14)
(0 -0 5.02215e-14)
(0 -0 4.62493e-14)
(0 -0 5.35399e-14)
(0 -0 9.82763e-14)
(0 -0 -8.26713e-16)
(0 -0 -1.55205e-14)
(0 -0 5.80421e-14)
(0 -0 6.32516e-14)
(0 -0 -5.95582e-14)
(0 -0 -4.10856e-15)
(0 -0 5.63249e-15)
(0 -0 -2.40286e-15)
(0 -0 -1.915e-12)
(0 -0 4.45916e-12)
(0 -0 -1.0718e-12)
(0 -0 1.17924e-13)
(0 -0 -1.31065e-13)
(0 -0 -6.69373e-14)
(0 -0 -3.11493e-14)
(0 -0 -5.21389e-14)
(0 -0 2.78247e-15)
(0 -0 7.2272e-15)
(0 -0 1.4277e-14)
(0 -0 1.68775e-14)
(0 -0 -9.02455e-15)
(0 -0 -8.32873e-14)
(0 -0 -5.76155e-14)
(0 -0 -4.6701e-14)
(0 -0 -2.01708e-15)
(0 -0 5.68198e-14)
(0 -0 9.11636e-15)
(0 -0 2.28556e-15)
(0 -0 -8.30228e-13)
(0 -0 2.15746e-13)
(0 -0 -5.29063e-14)
(0 -0 -6.10967e-14)
(0 -0 -8.74862e-14)
(0 -0 -3.5615e-14)
(0 -0 -1.03193e-13)
(0 -0 1.11023e-14)
(0 -0 4.59794e-15)
(0 -0 1.14639e-14)
(0 -0 7.17999e-15)
(0 -0 -6.17115e-14)
(0 -0 -2.69448e-14)
(0 -0 -5.87688e-14)
(0 -0 -6.64437e-14)
(0 -0 -5.24353e-14)
(0 -0 1.47961e-14)
(0 -0 -4.33921e-14)
(0 -0 -3.10251e-14)
(0 -0 -4.72133e-16)
(0 -0 1.18376e-12)
(0 -0 -3.10705e-12)
(0 -0 7.59296e-13)
(0 -0 -1.22234e-13)
(0 -0 1.38285e-13)
(0 -0 1.1503e-13)
(0 -0 1.33912e-13)
(0 -0 6.20928e-14)
(0 -0 -7.18269e-14)
(0 -0 -9.54997e-14)
(0 -0 -1.26475e-13)
(0 -0 -7.90323e-14)
(0 -0 -2.79059e-14)
(0 -0 7.09471e-14)
(0 -0 1.57246e-14)
(0 -0 7.27916e-14)
(0 -0 7.21485e-14)
(0 -0 5.21299e-16)
(0 -0 9.48385e-15)
(0 -0 -3.39555e-14)
(0 -0 -2.65587e-12)
(0 -0 3.78045e-12)
(0 -0 -8.83689e-13)
(0 -0 2.09419e-13)
(0 -0 -5.64713e-14)
(0 -0 9.74897e-15)
(0 -0 -1.53286e-15)
(0 -0 -8.91108e-15)
(0 -0 -7.71849e-16)
(0 -0 9.72102e-14)
(0 -0 1.26078e-13)
(0 -0 5.85583e-14)
(0 -0 2.45738e-14)
(0 -0 8.03063e-15)
(0 -0 6.25936e-14)
(0 -0 2.53511e-15)
(0 -0 1.51152e-15)
(0 -0 -1.2694e-15)
(0 -0 -4.71637e-15)
(0 -0 -8.53304e-15)
(0 -0 3.47459e-12)
(0 -0 -3.13592e-12)
(0 -0 8.93592e-13)
(0 -0 -6.8774e-14)
(0 -0 2.64406e-14)
(0 -0 -7.31053e-14)
(0 -0 -1.73033e-14)
(0 -0 -5.39523e-15)
(0 -0 8.50143e-14)
(0 -0 8.77703e-14)
(0 -0 8.96498e-14)
(0 -0 6.91901e-14)
(0 -0 9.32122e-14)
(0 -0 6.44491e-14)
(0 -0 8.97021e-14)
(0 -0 -5.32559e-15)
(0 -0 -5.84464e-14)
(0 -0 6.36028e-14)
(0 -0 2.22351e-15)
(0 -0 -2.17537e-14)
(0 -0 3.49087e-13)
(0 -0 -1.08439e-12)
(0 -0 2.16704e-13)
(0 -0 -6.97604e-14)
(0 -0 -1.07875e-14)
(0 -0 -1.19973e-14)
(0 -0 3.17037e-14)
(0 -0 1.80118e-15)
(0 -0 -4.516e-14)
(0 -0 -9.99024e-14)
(0 -0 -8.42377e-14)
(0 -0 -3.95195e-14)
(0 -0 -3.78014e-14)
(0 -0 -4.71965e-14)
(0 -0 -2.13225e-14)
(0 -0 3.45488e-16)
(0 -0 -2.97108e-14)
(0 -0 -4.88661e-14)
(0 -0 -2.18567e-14)
(0 -0 2.28778e-14)
(0 -0 -5.32794e-12)
(0 -0 5.96511e-12)
(0 -0 -1.48119e-12)
(0 -0 2.79995e-13)
(0 -0 -1.33922e-13)
(0 -0 -4.69825e-14)
(0 -0 -3.39353e-14)
(0 -0 -5.22153e-14)
(0 -0 -8.40868e-14)
(0 -0 -3.92854e-15)
(0 -0 1.21112e-14)
(0 -0 2.7749e-14)
(0 -0 1.48933e-14)
(0 -0 -6.56754e-14)
(0 -0 -1.28903e-13)
(0 -0 -5.27346e-14)
(0 -0 -8.18309e-15)
(0 -0 -1.84317e-14)
(0 -0 1.52456e-15)
(0 -0 -1.67032e-15)
(0 -0 8.24175e-12)
(0 -0 -7.50683e-12)
(0 -0 1.70116e-12)
(0 -0 -4.31047e-13)
(0 -0 7.50907e-14)
(0 -0 -5.28455e-14)
(0 -0 -1.30115e-13)
(0 -0 -3.33014e-14)
(0 -0 -2.08767e-14)
(0 -0 -9.73562e-14)
(0 -0 -6.98973e-14)
(0 -0 -2.07258e-14)
(0 -0 -1.27077e-14)
(0 -0 6.78436e-14)
(0 -0 1.19747e-13)
(0 -0 7.07405e-14)
(0 -0 1.54568e-13)
(0 -0 2.76057e-14)
(0 -0 1.63251e-14)
(0 -0 -1.20364e-14)
(0 -0 -7.23352e-12)
(0 -0 5.17162e-12)
(0 -0 -1.3091e-12)
(0 -0 1.76871e-13)
(0 -0 -1.15872e-13)
(0 -0 -5.1089e-14)
(0 -0 -1.02491e-13)
(0 -0 -8.45181e-14)
(0 -0 1.28684e-14)
(0 -0 -2.89588e-14)
(0 -0 -6.88998e-14)
(0 -0 -1.88972e-14)
(0 -0 3.68833e-16)
(0 -0 6.5471e-14)
(0 -0 1.29939e-15)
(0 -0 5.39324e-14)
(0 -0 -3.20625e-14)
(0 -0 9.77649e-15)
(0 -0 1.20406e-14)
(0 -0 -3.67128e-14)
(0 -0 2.14133e-12)
(0 -0 -1.67494e-12)
(0 -0 4.29784e-13)
(0 -0 -8.20957e-14)
(0 -0 6.92482e-14)
(0 -0 2.92267e-14)
(0 -0 1.19826e-13)
(0 -0 1.14667e-13)
(0 -0 1.16293e-13)
(0 -0 1.24116e-13)
(0 -0 1.17774e-13)
(0 -0 5.99798e-14)
(0 -0 5.41712e-14)
(0 -0 -7.75114e-14)
(0 -0 -7.46365e-14)
(0 -0 3.77653e-16)
(0 -0 -4.79112e-14)
(0 -0 7.21647e-14)
(0 -0 7.04464e-14)
(0 -0 9.78885e-15)
(0 -0 3.58572e-12)
(0 -0 -1.6302e-12)
(0 -0 4.74659e-13)
(0 -0 -3.78478e-14)
(0 -0 7.80339e-14)
(0 -0 1.23253e-13)
(0 -0 9.45239e-14)
(0 -0 4.6218e-14)
(0 -0 -1.27744e-14)
(0 -0 -5.79877e-14)
(0 -0 7.04643e-15)
(0 -0 1.06871e-17)
(0 -0 -9.86645e-16)
(0 -0 4.43814e-15)
(0 -0 -3.30029e-14)
(0 -0 -5.89037e-14)
(0 -0 6.26552e-14)
(0 -0 8.82766e-15)
(0 -0 3.33163e-15)
(0 -0 -7.19387e-16)
(0 -0 -5.00437e-12)
(0 -0 3.7557e-12)
(0 -0 -8.9792e-13)
(0 -0 2.44039e-13)
(0 -0 -7.4257e-14)
(0 -0 5.28264e-14)
(0 -0 -5.96695e-14)
(0 -0 -6.70524e-14)
(0 -0 -2.83638e-15)
(0 -0 6.35161e-14)
(0 -0 -3.97247e-14)
(0 -0 5.84822e-14)
(0 -0 -3.91332e-14)
(0 -0 -3.9038e-14)
(0 -0 -8.85481e-16)
(0 -0 1.01361e-14)
(0 -0 7.58486e-15)
(0 -0 -7.07128e-14)
(0 -0 -6.56461e-14)
(0 -0 -2.65491e-14)
(0 -0 5.12858e-12)
(0 -0 -6.05201e-12)
(0 -0 1.40346e-12)
(0 -0 -2.75531e-13)
(0 -0 1.2632e-13)
(0 -0 -4.96375e-14)
(0 -0 -2.55045e-14)
(0 -0 8.14724e-16)
(0 -0 -8.47901e-14)
(0 -0 -4.87096e-14)
(0 -0 5.69594e-14)
(0 -0 -7.69612e-15)
(0 -0 7.16623e-14)
(0 -0 3.2456e-14)
(0 -0 5.6854e-14)
(0 -0 6.73355e-14)
(0 -0 -1.71876e-14)
(0 -0 -2.02747e-14)
(0 -0 -4.98415e-15)
(0 -0 7.5559e-14)
(0 -0 -3.2946e-12)
(0 -0 5.29237e-12)
(0 -0 -1.20118e-12)
(0 -0 2.94416e-13)
(0 -0 -6.20037e-14)
(0 -0 -5.24622e-14)
(0 -0 2.43568e-14)
(0 -0 2.13372e-14)
(0 -0 4.7159e-14)
(0 -0 4.4905e-15)
(0 -0 -7.24402e-14)
(0 -0 -8.15188e-14)
(0 -0 -5.58178e-14)
(0 -0 8.47381e-14)
(0 -0 7.23666e-14)
(0 -0 -7.7603e-14)
(0 -0 -1.08502e-13)
(0 -0 8.34715e-15)
(0 -0 1.51628e-14)
(0 -0 -1.83615e-14)
(0 -0 -2.73267e-13)
(0 -0 -5.20114e-13)
(0 -0 4.67833e-14)
(0 -0 -1.25464e-13)
(0 -0 -4.00903e-14)
(0 -0 3.77731e-15)
(0 -0 -1.49091e-14)
(0 -0 2.40077e-14)
(0 -0 2.24116e-14)
(0 -0 -2.00972e-14)
(0 -0 -3.60154e-14)
(0 -0 -7.7084e-14)
(0 -0 -7.15381e-14)
(0 -0 -7.67431e-14)
(0 -0 -8.33566e-14)
(0 -0 -2.40163e-15)
(0 -0 6.89645e-15)
(0 -0 -2.21464e-14)
(0 -0 3.23714e-15)
(0 -0 9.2813e-15)
(0 -0 3.12835e-12)
(0 -0 -6.35498e-12)
(0 -0 1.4612e-12)
(0 -0 -3.67738e-13)
(0 -0 3.00131e-14)
(0 -0 -1.51564e-14)
(0 -0 5.82148e-14)
(0 -0 6.72159e-14)
(0 -0 -2.81696e-14)
(0 -0 2.71365e-14)
(0 -0 3.35801e-14)
(0 -0 7.97306e-15)
(0 -0 3.09882e-14)
(0 -0 2.47534e-14)
(0 -0 -3.78048e-14)
(0 -0 -3.36113e-16)
(0 -0 3.65403e-14)
(0 -0 2.57673e-14)
(0 -0 4.82926e-14)
(0 -0 3.52278e-14)
(0 -0 -2.93738e-12)
(0 -0 4.48478e-12)
(0 -0 -1.16686e-12)
(0 -0 2.21864e-13)
(0 -0 -9.55277e-14)
(0 -0 -3.44156e-14)
(0 -0 -2.79434e-14)
(0 -0 -8.6052e-14)
(0 -0 2.77118e-15)
(0 -0 9.9677e-15)
(0 -0 5.94845e-14)
(0 -0 5.77611e-14)
(0 -0 -4.63102e-15)
(0 -0 -1.16639e-14)
(0 -0 2.90735e-14)
(0 -0 6.84343e-14)
(0 -0 6.50205e-15)
(0 -0 -1.34183e-14)
(0 -0 -6.49312e-14)
(0 -0 -9.92918e-15)
(0 -0 -2.95661e-12)
(0 -0 4.60258e-12)
(0 -0 -7.9197e-13)
(0 -0 2.95123e-13)
(0 -0 4.29792e-14)
(0 -0 5.7675e-14)
(0 -0 1.3341e-14)
(0 -0 2.39102e-14)
(0 -0 2.82309e-14)
(0 -0 1.79893e-15)
(0 -0 -5.65503e-14)
(0 -0 -4.67671e-15)
(0 -0 1.66753e-14)
(0 -0 -7.20542e-15)
(0 -0 4.04273e-14)
(0 -0 -3.32027e-14)
(0 -0 6.5232e-15)
(0 -0 -1.0871e-14)
(0 -0 -6.80818e-15)
(0 -0 3.96735e-14)
)
;

boundaryField
{
    movingWall
    {
        type            calculated;
        value           nonuniform List<vector> 
20
(
(0 -0 -6.23416e-12)
(0 -0 5.7249e-12)
(0 -0 -5.37616e-13)
(0 -0 4.62958e-13)
(0 -0 2.28118e-13)
(0 -0 2.25509e-13)
(0 -0 1.63872e-13)
(0 -0 2.63259e-13)
(0 -0 1.78762e-13)
(0 -0 9.06168e-14)
(0 -0 4.20687e-14)
(0 -0 8.41411e-14)
(0 -0 1.22797e-13)
(0 -0 8.16124e-14)
(0 -0 5.77312e-14)
(0 -0 -6.78105e-14)
(0 -0 6.5232e-15)
(0 -0 -1.0871e-14)
(0 -0 3.76007e-14)
(0 -0 1.01386e-13)
)
;
    }
    fixedWalls
    {
        type            calculated;
        value           nonuniform List<vector> 
60
(
(0 -0 2.98925e-11)
(0 -0 7.29296e-12)
(0 -0 -1.95211e-11)
(0 -0 -8.84449e-13)
(0 -0 1.31259e-11)
(0 -0 -1.65972e-11)
(0 -0 1.43981e-11)
(0 -0 4.57526e-12)
(0 -0 -2.62993e-11)
(0 -0 3.26659e-11)
(0 -0 -2.30022e-11)
(0 -0 7.82797e-12)
(0 -0 7.84398e-12)
(0 -0 -1.7072e-11)
(0 -0 2.56317e-11)
(0 -0 -2.23476e-11)
(0 -0 1.70342e-12)
(0 -0 2.70582e-11)
(0 -0 -1.93423e-11)
(0 -0 -1.91065e-11)
(0 -0 3.44865e-15)
(0 -0 -8.48193e-15)
(0 -0 -5.93772e-15)
(0 -0 7.45864e-15)
(0 -0 -1.73135e-14)
(0 -0 -8.27276e-15)
(0 -0 -3.39823e-14)
(0 -0 1.74913e-14)
(0 -0 -6.06426e-15)
(0 -0 -1.77661e-14)
(0 -0 -4.77257e-14)
(0 -0 -1.0242e-14)
(0 -0 -4.21904e-15)
(0 -0 -8.18179e-15)
(0 -0 8.72605e-14)
(0 -0 -1.09292e-14)
(0 -0 2.04705e-14)
(0 -0 4.44629e-14)
(0 -0 3.3359e-15)
(0 -0 4.80358e-14)
(0 -0 7.03997e-12)
(0 -0 -7.63016e-12)
(0 -0 1.13909e-12)
(0 -0 -5.65463e-13)
(0 -0 -1.84108e-13)
(0 -0 -2.76136e-13)
(0 -0 -1.81275e-13)
(0 -0 -1.39735e-13)
(0 -0 -8.3677e-14)
(0 -0 -1.29542e-13)
(0 -0 -8.16801e-14)
(0 -0 -1.72721e-13)
(0 -0 -9.3134e-14)
(0 -0 -6.02022e-15)
(0 -0 -8.89785e-15)
(0 -0 -4.077e-15)
(0 -0 8.88842e-14)
(0 -0 -4.65786e-14)
(0 -0 8.92639e-14)
(0 -0 2.55244e-15)
)
;
    }
    frontAndBack
    {
        type            empty;
    }
}


// ************************************************************************* //
