/*--------------------------------*- C++ -*----------------------------------*\
| =========                 |                                                 |
| \\      /  F ield         | OpenFOAM: The Open Source CFD Toolbox           |
|  \\    /   O peration     | Version:  2312                                  |
|   \\  /    A nd           | Website:  www.openfoam.com                      |
|    \\/     M anipulation  |                                                 |
\*---------------------------------------------------------------------------*/
FoamFile
{
    version     2.0;
    format      ascii;
    arch        "LSB;label=32;scalar=64";
    class       volVectorField;
    location    "8.5";
    object      wallShearStress;
}
// * * * * * * * * * * * * * * * * * * * * * * * * * * * * * * * * * * * * * //

dimensions      [0 2 -2 0 0 0 0];

internalField   uniform (0 0 0);

boundaryField
{
    movingWall
    {
        type            calculated;
        value           uniform (0 0 0);
    }
    fixedWalls
    {
        type            calculated;
        value           nonuniform List<vector> 
60
(
(7.80839e-17 -3.04888e-16 0)
(-1.1657e-16 -8.97347e-17 0)
(-4.45547e-17 2.44542e-16 0)
(1.63078e-16 -6.33434e-18 0)
(-9.9772e-17 -1.63785e-16 0)
(1.36304e-17 1.81151e-16 0)
(5.57178e-18 -1.29886e-16 0)
(-1.30024e-17 -5.76788e-17 0)
(-2.05096e-17 2.58657e-16 0)
(5.20032e-17 -2.83833e-16 0)
(1.18296e-17 1.64969e-16 0)
(-8.94818e-17 -6.31009e-17 0)
(5.42039e-17 -3.01928e-17 0)
(3.10273e-17 1.31689e-16 0)
(-2.7968e-17 -2.53064e-16 0)
(-3.13746e-17 2.51123e-16 0)
(1.49606e-16 -3.05867e-17 0)
(-6.70716e-17 -3.25334e-16 0)
(-1.69715e-16 2.15649e-16 0)
(9.73012e-17 2.12207e-16 0)
(-8.38881e-21 3.44865e-20 0)
(-1.56439e-20 -8.48193e-20 0)
(2.65676e-20 -5.93772e-20 0)
(2.62155e-20 7.45864e-20 0)
(-6.18338e-19 3.68966e-19 0)
(-6.65075e-19 -8.27276e-20 0)
(-5.94354e-19 -3.39823e-19 0)
(4.653e-20 -3.67189e-19 0)
(-1.35872e-20 -6.06426e-20 0)
(-2.42606e-20 -1.77661e-19 0)
(-6.24754e-19 6.48445e-20 0)
(-5.64783e-19 -6.44521e-19 0)
(1.3232e-18 -4.21904e-20 0)
(-1.12212e-18 1.00238e-18 0)
(-6.41873e-19 -2.11597e-19 0)
(-2.09665e-20 4.32809e-19 0)
(-5.90149e-19 2.04705e-19 0)
(1.66174e-20 -9.7472e-20 0)
(5.95483e-21 5.7546e-19 0)
(-1.26986e-18 -6.1743e-20 0)
(-4.90834e-17 -4.03807e-16 0)
(6.74198e-17 8.64502e-17 0)
(-1.84963e-17 -1.9646e-17 0)
(1.21374e-18 4.04036e-18 0)
(-3.48799e-18 -7.88276e-19 0)
(-2.56771e-18 -3.51397e-19 0)
(-1.73996e-18 -8.13972e-19 0)
(-1.26718e-18 2.34208e-20 0)
(-9.39587e-19 -1.05442e-19 0)
(-1.36911e-18 -2.50758e-19 0)
(-9.59556e-19 -3.01955e-19 0)
(-1.82551e-18 -6.31439e-19 0)
(-8.45016e-19 -7.44789e-19 0)
(6.02022e-20 -5.81942e-19 0)
(8.89785e-20 -2.4301e-19 0)
(4.077e-20 7.33106e-20 0)
(8.87515e-19 -2.55694e-20 0)
(-4.22392e-19 6.97712e-20 0)
(8.83718e-19 9.01484e-20 0)
(-2.55244e-20 4.5982e-20 0)
)
;
    }
    frontAndBack
    {
        type            empty;
    }
}


// ************************************************************************* //
