/*--------------------------------*- C++ -*----------------------------------*\
| =========                 |                                                 |
| \\      /  F ield         | OpenFOAM: The Open Source CFD Toolbox           |
|  \\    /   O peration     | Version:  2312                                  |
|   \\  /    A nd           | Website:  www.openfoam.com                      |
|    \\/     M anipulation  |                                                 |
\*---------------------------------------------------------------------------*/
FoamFile
{
    version     2.0;
    format      ascii;
    arch        "LSB;label=32;scalar=64";
    class       volScalarField;
    location    "8.5";
    object      yPlus;
}
// * * * * * * * * * * * * * * * * * * * * * * * * * * * * * * * * * * * * * //

dimensions      [0 0 0 0 0 0 0];

internalField   uniform 0;

boundaryField
{
    movingWall
    {
        type            calculated;
        value           nonuniform List<scalar> 
20
(
3.56067e-06
1.62273e-06
8.24983e-07
4.23554e-07
4.09427e-07
3.7406e-07
3.33941e-07
4.09091e-07
3.35483e-07
2.39142e-07
1.76282e-07
2.42631e-07
2.95183e-07
2.68117e-07
2.27492e-07
2.3848e-07
9.40111e-08
6.27593e-08
1.82393e-07
2.38813e-07
)
;
    }
    fixedWalls
    {
        type            calculated;
        value           nonuniform List<scalar> 
60
(
4.34522e-06
2.29549e-06
3.71724e-06
2.18509e-06
3.13102e-06
3.29721e-06
2.94764e-06
2.02114e-06
4.07e-06
4.3791e-06
3.54572e-06
2.75355e-06
2.33633e-06
3.07424e-06
3.99136e-06
3.85162e-06
1.7884e-06
4.32111e-06
3.66202e-06
3.56067e-06
4.64263e-08
7.28094e-08
6.09186e-08
6.82763e-08
1.68589e-07
1.68027e-07
1.86948e-07
7.75153e-08
6.15643e-08
1.05375e-07
1.74934e-07
1.90436e-07
2.35741e-07
2.50045e-07
1.86007e-07
1.00548e-07
1.74821e-07
1.04157e-07
1.37933e-07
2.38813e-07
4.34522e-06
1.98584e-06
9.648e-07
4.91608e-07
4.15471e-07
4.0832e-07
3.36201e-07
2.88572e-07
2.36074e-07
2.89987e-07
2.39348e-07
3.38969e-07
2.47966e-07
1.37143e-07
1.06729e-07
5.86211e-08
2.35636e-07
1.67175e-07
2.35949e-07
4.64263e-08
)
;
    }
    frontAndBack
    {
        type            empty;
    }
}


// ************************************************************************* //
