/*--------------------------------*- C++ -*----------------------------------*\
| =========                 |                                                 |
| \\      /  F ield         | OpenFOAM: The Open Source CFD Toolbox           |
|  \\    /   O peration     | Version:  2312                                  |
|   \\  /    A nd           | Website:  www.openfoam.com                      |
|    \\/     M anipulation  |                                                 |
\*---------------------------------------------------------------------------*/
FoamFile
{
    version     2.0;
    format      ascii;
    arch        "LSB;label=32;scalar=64";
    class       volScalarField;
    location    "8.5";
    object      zeroGradient(epsilon);
}
// * * * * * * * * * * * * * * * * * * * * * * * * * * * * * * * * * * * * * //

dimensions      [0 2 -3 0 0 0 0];

internalField   nonuniform List<scalar> 
400
(
1.0654e-06
1.0654e-06
1.0654e-06
1.0654e-06
1.0654e-06
1.0654e-06
1.0654e-06
1.0654e-06
1.0654e-06
1.0654e-06
1.0654e-06
1.0654e-06
1.0654e-06
1.0654e-06
1.0654e-06
1.0654e-06
1.0654e-06
1.0654e-06
1.0654e-06
1.0654e-06
1.09397e-06
1.08163e-06
1.08269e-06
1.08311e-06
1.08399e-06
1.08442e-06
1.0853e-06
1.08575e-06
1.08663e-06
1.08709e-06
1.08796e-06
1.08844e-06
1.08932e-06
1.0898e-06
1.09068e-06
1.09118e-06
1.09206e-06
1.09258e-06
1.09301e-06
1.09371e-06
1.1397e-06
1.12646e-06
1.12761e-06
1.12807e-06
1.12902e-06
1.12949e-06
1.13044e-06
1.13092e-06
1.13188e-06
1.13236e-06
1.13332e-06
1.13381e-06
1.13476e-06
1.13527e-06
1.13622e-06
1.13674e-06
1.13768e-06
1.13822e-06
1.13868e-06
1.13942e-06
1.18855e-06
1.17454e-06
1.17576e-06
1.17625e-06
1.17725e-06
1.17775e-06
1.17876e-06
1.17926e-06
1.18027e-06
1.18079e-06
1.18179e-06
1.18232e-06
1.18332e-06
1.18386e-06
1.18486e-06
1.18541e-06
1.1864e-06
1.18698e-06
1.18747e-06
1.18825e-06
1.23032e-06
1.21565e-06
1.21692e-06
1.21744e-06
1.21849e-06
1.21901e-06
1.22006e-06
1.2206e-06
1.22165e-06
1.22219e-06
1.22324e-06
1.22379e-06
1.22484e-06
1.22541e-06
1.22645e-06
1.22704e-06
1.22807e-06
1.22867e-06
1.22919e-06
1.23001e-06
1.26123e-06
1.24605e-06
1.24737e-06
1.2479e-06
1.24899e-06
1.24953e-06
1.25062e-06
1.25117e-06
1.25226e-06
1.25282e-06
1.25391e-06
1.25448e-06
1.25556e-06
1.25615e-06
1.25723e-06
1.25783e-06
1.2589e-06
1.25952e-06
1.26006e-06
1.2609e-06
1.28206e-06
1.26654e-06
1.26788e-06
1.26843e-06
1.26954e-06
1.27009e-06
1.2712e-06
1.27176e-06
1.27288e-06
1.27345e-06
1.27456e-06
1.27515e-06
1.27626e-06
1.27686e-06
1.27796e-06
1.27858e-06
1.27967e-06
1.28031e-06
1.28085e-06
1.28172e-06
1.29545e-06
1.27971e-06
1.28107e-06
1.28163e-06
1.28275e-06
1.28331e-06
1.28444e-06
1.28501e-06
1.28614e-06
1.28672e-06
1.28785e-06
1.28844e-06
1.28957e-06
1.29017e-06
1.29129e-06
1.29192e-06
1.29303e-06
1.29367e-06
1.29423e-06
1.2951e-06
1.30413e-06
1.28825e-06
1.28962e-06
1.29018e-06
1.29132e-06
1.29188e-06
1.29302e-06
1.2936e-06
1.29474e-06
1.29532e-06
1.29646e-06
1.29706e-06
1.29819e-06
1.29881e-06
1.29994e-06
1.30057e-06
1.30169e-06
1.30234e-06
1.3029e-06
1.30378e-06
1.31016e-06
1.29418e-06
1.29556e-06
1.29613e-06
1.29727e-06
1.29784e-06
1.29898e-06
1.29956e-06
1.30071e-06
1.3013e-06
1.30244e-06
1.30304e-06
1.30419e-06
1.3048e-06
1.30594e-06
1.30658e-06
1.3077e-06
1.30836e-06
1.30892e-06
1.30981e-06
1.3149e-06
1.29883e-06
1.30023e-06
1.30079e-06
1.30194e-06
1.30251e-06
1.30366e-06
1.30424e-06
1.3054e-06
1.30599e-06
1.30714e-06
1.30774e-06
1.30889e-06
1.30951e-06
1.31065e-06
1.31129e-06
1.31242e-06
1.31308e-06
1.31365e-06
1.31454e-06
1.31915e-06
1.30301e-06
1.30441e-06
1.30498e-06
1.30613e-06
1.30671e-06
1.30786e-06
1.30845e-06
1.3096e-06
1.3102e-06
1.31135e-06
1.31196e-06
1.31311e-06
1.31374e-06
1.31488e-06
1.31552e-06
1.31666e-06
1.31732e-06
1.31789e-06
1.31879e-06
1.32338e-06
1.30718e-06
1.30858e-06
1.30915e-06
1.31031e-06
1.31089e-06
1.31205e-06
1.31263e-06
1.3138e-06
1.31439e-06
1.31556e-06
1.31616e-06
1.31732e-06
1.31795e-06
1.3191e-06
1.31974e-06
1.32089e-06
1.32155e-06
1.32212e-06
1.32302e-06
1.32787e-06
1.31159e-06
1.313e-06
1.31357e-06
1.31473e-06
1.31532e-06
1.31648e-06
1.31707e-06
1.31824e-06
1.31884e-06
1.32e-06
1.32062e-06
1.32178e-06
1.32241e-06
1.32356e-06
1.32421e-06
1.32536e-06
1.32603e-06
1.3266e-06
1.3275e-06
1.33271e-06
1.31636e-06
1.31777e-06
1.31835e-06
1.31952e-06
1.3201e-06
1.32127e-06
1.32186e-06
1.32304e-06
1.32364e-06
1.32481e-06
1.32542e-06
1.32659e-06
1.32722e-06
1.32839e-06
1.32904e-06
1.33019e-06
1.33086e-06
1.33143e-06
1.33235e-06
1.33787e-06
1.32143e-06
1.32286e-06
1.32343e-06
1.32461e-06
1.32519e-06
1.32637e-06
1.32697e-06
1.32815e-06
1.32875e-06
1.32993e-06
1.33055e-06
1.33172e-06
1.33236e-06
1.33352e-06
1.33418e-06
1.33534e-06
1.33601e-06
1.33659e-06
1.3375e-06
1.3431e-06
1.32658e-06
1.32801e-06
1.32859e-06
1.32977e-06
1.33036e-06
1.33154e-06
1.33214e-06
1.33332e-06
1.33393e-06
1.33512e-06
1.33574e-06
1.33692e-06
1.33756e-06
1.33873e-06
1.33939e-06
1.34055e-06
1.34123e-06
1.34181e-06
1.34273e-06
1.34793e-06
1.33133e-06
1.33277e-06
1.33335e-06
1.33453e-06
1.33512e-06
1.33631e-06
1.33691e-06
1.3381e-06
1.33872e-06
1.33991e-06
1.34053e-06
1.34172e-06
1.34236e-06
1.34354e-06
1.3442e-06
1.34537e-06
1.34605e-06
1.34663e-06
1.34755e-06
1.3517e-06
1.33535e-06
1.33675e-06
1.33731e-06
1.33846e-06
1.33904e-06
1.3402e-06
1.34079e-06
1.34195e-06
1.34256e-06
1.34372e-06
1.34435e-06
1.34551e-06
1.34615e-06
1.34732e-06
1.34798e-06
1.34914e-06
1.34983e-06
1.35041e-06
1.35134e-06
1.35344e-06
1.35343e-06
1.35343e-06
1.35343e-06
1.35343e-06
1.35343e-06
1.35343e-06
1.35343e-06
1.35343e-06
1.35343e-06
1.35343e-06
1.35343e-06
1.35343e-06
1.35343e-06
1.35343e-06
1.35343e-06
1.35343e-06
1.35343e-06
1.35343e-06
1.35343e-06
)
;

boundaryField
{
    movingWall
    {
        type            zeroGradient;
    }
    fixedWalls
    {
        type            zeroGradient;
    }
    frontAndBack
    {
        type            empty;
    }
}


// ************************************************************************* //
