/*--------------------------------*- C++ -*----------------------------------*\
| =========                 |                                                 |
| \\      /  F ield         | OpenFOAM: The Open Source CFD Toolbox           |
|  \\    /   O peration     | Version:  2312                                  |
|   \\  /    A nd           | Website:  www.openfoam.com                      |
|    \\/     M anipulation  |                                                 |
\*---------------------------------------------------------------------------*/
FoamFile
{
    version     2.0;
    format      ascii;
    arch        "LSB;label=32;scalar=64";
    class       volScalarField;
    location    "1.75";
    object      blendingFactorField;
}
// * * * * * * * * * * * * * * * * * * * * * * * * * * * * * * * * * * * * * //

dimensions      [0 0 0 0 0 0 0];

internalField   nonuniform List<scalar> 
400
(
0
0
0
0.0653149
0.184268
0.310717
0.442696
0.573352
0.691021
0.782039
0.8327
0.8327
0.829329
0.757278
0.612281
0.40633
0.172311
0
0
0
0
0
0.0744929
0.223786
0.382651
0.546099
0.705693
0.850661
0.972273
1
1
1
1
1
0.927284
0.695018
0.403556
0.125488
0
0
0
0.0690507
0.134174
0.292343
0.460642
0.633212
0.801543
0.958877
1
1
1
1
1
1
1
1
0.83403
0.521938
0.136629
0
0.0888071
0.209097
0.277174
0.326765
0.488945
0.664545
0.8442
1
1
1
1
1
1
1
1
1
1
1
0.647254
0
0.217103
0.349874
0.422532
0.48103
0.530439
0.663772
0.864536
1
1
1
1
1
1
1
1
1
1
1
1
0.254707
0.339592
0.484128
0.560113
0.626568
0.689329
0.747663
0.847934
1
1
1
1
1
1
1
1
1
1
1
1
1
0.4489
0.605313
0.683973
0.757185
0.83372
0.917191
1
1
1
1
1
1
1
1
1
1
1
1
1
1
0.539281
0.707775
0.78829
0.866034
0.953763
1
1
1
1
1
1
1
1
1
1
1
1
1
1
1
0.606632
0.787113
0.868271
0.947097
1
1
1
1
1
1
1
1
0.839053
0.828673
1
1
1
1
1
1
0.648823
0.840726
0.921039
0.996752
1
1
1
1
1
1
1
1
0.369096
0.149551
1
1
1
1
1
1
0.665874
0.868033
0.945836
1
1
1
1
1
1
1
1
1
0.393393
0.266918
1
1
1
1
1
1
0.665874
0.870622
0.945836
1
1
1
1
1
1
1
1
1
0.918951
0.918951
0.903093
1
1
1
1
1
0.660099
0.870622
0.943737
1
1
1
1
1
1
1
1
1
1
1
1
1
1
1
1
1
0.637054
0.851529
0.918073
0.962952
1
1
1
1
1
1
1
1
1
1
1
1
1
1
1
1
0.603222
0.816197
0.87269
0.902058
0.931425
0.966489
1
1
1
1
1
1
1
1
1
1
1
1
1
1
0.569297
0.770974
0.811753
0.822724
0.831976
0.845046
0.860382
0.871791
0.868141
0.952789
1
1
1
1
1
1
0.825748
1
1
1
0.579744
0.721538
0.73997
0.728132
0.716157
0.708418
0.70382
0.696906
0.792831
0.976134
1
1
1
1
1
1
0.911309
1
1
1
0.67991
0.680686
0.654083
0.613521
0.580381
0.554131
0.533559
0.668351
0.871436
1
1
1
1
1
1
1
1
0.943084
1
1
0.895244
0.623015
0.545491
0.486396
0.429779
0.697063
0.957875
1
1
1
1
1
1
1
1
1
1
1
1
1
0.895244
1
1
1
1
1
1
1
1
1
1
1
1
1
1
1
1
1
1
1
)
;

boundaryField
{
    movingWall
    {
        type            zeroGradient;
    }
    fixedWalls
    {
        type            zeroGradient;
    }
    frontAndBack
    {
        type            empty;
    }
}


// ************************************************************************* //
