/*--------------------------------*- C++ -*----------------------------------*\
| =========                 |                                                 |
| \\      /  F ield         | OpenFOAM: The Open Source CFD Toolbox           |
|  \\    /   O peration     | Version:  2312                                  |
|   \\  /    A nd           | Website:  www.openfoam.com                      |
|    \\/     M anipulation  |                                                 |
\*---------------------------------------------------------------------------*/
FoamFile
{
    version     2.0;
    format      ascii;
    arch        "LSB;label=32;scalar=64";
    class       volScalarField;
    location    "1.75";
    object      divPhi;
}
// * * * * * * * * * * * * * * * * * * * * * * * * * * * * * * * * * * * * * //

dimensions      [0 0 -1 0 0 0 0];

internalField   nonuniform List<scalar> 
400
(
-8.53594e-06
-1.91147e-07
-2.78109e-07
-1.67253e-07
-3.97622e-09
1.39264e-07
2.56765e-07
3.45356e-07
4.18479e-07
4.74744e-07
5.25624e-07
5.68685e-07
6.1119e-07
6.39831e-07
6.63049e-07
6.69093e-07
6.30995e-07
6.10847e-07
8.13057e-07
3.12752e-07
2.92351e-07
7.74414e-08
-3.19596e-08
1.7632e-08
1.09485e-07
2.19008e-07
3.03642e-07
3.80793e-07
4.36488e-07
4.88392e-07
5.28734e-07
5.67904e-07
6.01166e-07
6.33996e-07
6.4994e-07
6.46317e-07
6.57189e-07
6.79529e-07
5.81595e-07
4.4849e-07
7.36318e-07
4.26561e-07
2.71677e-07
2.3292e-07
2.65025e-07
3.12305e-07
3.65617e-07
4.08717e-07
4.48919e-07
4.80456e-07
5.11232e-07
5.39581e-07
5.67592e-07
5.88326e-07
6.01972e-07
6.07858e-07
5.70419e-07
5.52009e-07
8.45716e-07
2.31678e-07
7.75956e-07
5.90108e-07
4.46102e-07
3.85698e-07
3.70515e-07
3.8363e-07
4.01498e-07
4.23593e-07
4.41557e-07
4.60563e-07
4.77209e-07
4.95144e-07
5.14726e-07
5.31466e-07
5.33871e-07
5.11115e-07
5.23267e-07
6.13225e-07
3.84302e-07
4.15672e-07
7.15796e-07
6.15963e-07
5.22726e-07
4.61201e-07
4.33211e-07
4.2017e-07
4.19208e-07
4.19088e-07
4.22672e-07
4.24665e-07
4.30609e-07
4.46165e-07
4.61682e-07
4.66215e-07
4.61989e-07
4.57082e-07
4.04068e-07
3.33428e-07
7.3081e-07
1.11748e-07
7.36109e-07
6.20707e-07
5.34558e-07
4.79408e-07
4.41345e-07
4.19095e-07
4.02099e-07
3.92007e-07
3.82801e-07
3.78589e-07
3.82316e-07
3.89147e-07
4.02664e-07
4.13669e-07
4.01058e-07
3.61037e-07
3.57275e-07
4.59668e-07
1.33345e-07
3.18316e-07
4.89258e-07
5.09527e-07
4.7775e-07
4.39008e-07
4.07927e-07
3.81393e-07
3.63074e-07
3.46107e-07
3.34322e-07
3.27035e-07
3.2416e-07
3.38044e-07
3.53543e-07
3.50061e-07
3.34487e-07
3.23734e-07
2.64173e-07
1.39032e-07
5.41382e-07
-3.34802e-09
5.65931e-07
4.65804e-07
4.12773e-07
3.76444e-07
3.4511e-07
3.21208e-07
2.99659e-07
2.84532e-07
2.70906e-07
2.62582e-07
2.67239e-07
2.68504e-07
2.75946e-07
2.78939e-07
2.60304e-07
2.21183e-07
2.16002e-07
3.2296e-07
-6.43061e-08
2.01666e-07
2.48061e-07
3.11695e-07
3.05753e-07
2.82769e-07
2.5887e-07
2.35621e-07
2.17865e-07
2.01964e-07
1.89249e-07
1.82911e-07
1.75475e-07
1.82732e-07
1.88233e-07
1.75202e-07
1.61843e-07
1.60797e-07
1.16178e-07
-2.62858e-08
3.59135e-07
-8.72066e-08
3.51946e-07
2.52351e-07
2.1184e-07
1.85091e-07
1.60917e-07
1.39731e-07
1.19833e-07
1.04146e-07
9.10036e-08
8.02251e-08
7.76809e-08
6.76995e-08
6.00813e-08
5.83699e-08
5.06581e-08
2.6901e-08
3.77075e-08
1.56927e-07
-2.33004e-07
8.01394e-08
1.76742e-08
8.69353e-08
8.87771e-08
7.30871e-08
5.35916e-08
3.21686e-08
1.34305e-08
-4.34099e-09
-1.93476e-08
-3.28126e-08
-4.971e-08
-5.87531e-08
-6.94786e-08
-8.05233e-08
-8.42656e-08
-6.93416e-08
-9.02912e-08
-2.20466e-07
1.27476e-07
-1.72826e-07
1.05808e-07
1.76546e-08
-1.30844e-08
-3.27335e-08
-5.28986e-08
-7.23425e-08
-9.29978e-08
-1.11166e-07
-1.29024e-07
-1.44869e-07
-1.58287e-07
-1.79003e-07
-1.99359e-07
-2.07679e-07
-2.04635e-07
-2.10695e-07
-1.88308e-07
-7.4023e-08
-4.13699e-07
-5.30329e-08
-1.90718e-07
-1.33912e-07
-1.28655e-07
-1.38917e-07
-1.53484e-07
-1.72187e-07
-1.90356e-07
-2.09631e-07
-2.26696e-07
-2.43958e-07
-2.63384e-07
-2.85069e-07
-3.07778e-07
-3.21136e-07
-3.23907e-07
-3.02388e-07
-3.07817e-07
-4.18281e-07
-1.40827e-07
-2.45313e-07
-1.38108e-07
-2.0114e-07
-2.18203e-07
-2.29457e-07
-2.42364e-07
-2.58133e-07
-2.75173e-07
-2.93518e-07
-3.10883e-07
-3.27962e-07
-3.46946e-07
-3.7383e-07
-3.99363e-07
-4.15291e-07
-4.15582e-07
-4.14284e-07
-3.89837e-07
-2.97468e-07
-5.52584e-07
-1.64394e-07
-3.43857e-07
-3.07974e-07
-3.03587e-07
-3.0669e-07
-3.17688e-07
-3.29174e-07
-3.45688e-07
-3.5995e-07
-3.77021e-07
-3.92611e-07
-4.147e-07
-4.38722e-07
-4.63186e-07
-4.80005e-07
-4.8772e-07
-4.7082e-07
-4.62778e-07
-5.4436e-07
-3.56644e-07
-2.70313e-07
-3.26785e-07
-3.55664e-07
-3.60838e-07
-3.662e-07
-3.74719e-07
-3.85622e-07
-3.98678e-07
-4.11979e-07
-4.25674e-07
-4.39842e-07
-4.58524e-07
-4.81549e-07
-5.03841e-07
-5.20804e-07
-5.27308e-07
-5.25777e-07
-5.01254e-07
-4.32161e-07
-5.86721e-07
-2.25999e-07
-4.15947e-07
-4.13369e-07
-4.10629e-07
-4.20119e-07
-4.24152e-07
-4.37646e-07
-4.44677e-07
-4.58274e-07
-4.65301e-07
-4.78575e-07
-4.91685e-07
-5.11005e-07
-5.25695e-07
-5.42931e-07
-5.50451e-07
-5.35657e-07
-5.12142e-07
-5.59547e-07
-4.79052e-07
-2.59067e-07
-4.28393e-07
-4.42519e-07
-4.51173e-07
-4.56055e-07
-4.65835e-07
-4.71363e-07
-4.80035e-07
-4.8473e-07
-4.92154e-07
-4.98242e-07
-5.09359e-07
-5.20438e-07
-5.32817e-07
-5.43603e-07
-5.4478e-07
-5.29877e-07
-5.03418e-07
-4.74777e-07
-5.4175e-07
-2.46955e-07
-4.37083e-07
-4.42151e-07
-4.48529e-07
-4.50503e-07
-4.56055e-07
-4.57197e-07
-4.61113e-07
-4.63098e-07
-4.68892e-07
-4.73721e-07
-4.8135e-07
-4.8837e-07
-4.96087e-07
-5.01286e-07
-4.98038e-07
-4.75405e-07
-4.42525e-07
-4.68286e-07
-5.0551e-07
-2.40715e-07
-2.12385e-07
-2.10179e-07
-2.07106e-07
-2.07792e-07
-2.07021e-07
-2.09226e-07
-2.09759e-07
-2.12244e-07
-2.13567e-07
-2.16471e-07
-2.18856e-07
-2.22043e-07
-2.24588e-07
-2.25197e-07
-2.17737e-07
-2.00943e-07
-1.92884e-07
-2.27883e-07
-2.42689e-07
0
)
;

boundaryField
{
    movingWall
    {
        type            extrapolatedCalculated;
        value           nonuniform List<scalar> 
20
(
-2.12385e-07
-2.10179e-07
-2.07106e-07
-2.07792e-07
-2.07021e-07
-2.09226e-07
-2.09759e-07
-2.12244e-07
-2.13567e-07
-2.16471e-07
-2.18856e-07
-2.22043e-07
-2.24588e-07
-2.25197e-07
-2.17737e-07
-2.00943e-07
-1.92884e-07
-2.27883e-07
-2.42689e-07
0
)
;
    }
    fixedWalls
    {
        type            extrapolatedCalculated;
        value           nonuniform List<scalar> 
60
(
-8.53594e-06
2.92351e-07
7.36318e-07
7.75956e-07
7.15796e-07
7.36109e-07
4.89258e-07
5.65931e-07
2.48061e-07
3.51946e-07
1.76742e-08
1.05808e-07
-1.90718e-07
-1.38108e-07
-3.43857e-07
-3.26785e-07
-4.15947e-07
-4.28393e-07
-4.37083e-07
-2.12385e-07
3.12752e-07
4.4849e-07
2.31678e-07
4.15672e-07
1.11748e-07
3.18316e-07
-3.34802e-09
2.01666e-07
-8.72066e-08
8.01394e-08
-1.72826e-07
-5.30329e-08
-2.45313e-07
-1.64394e-07
-2.70313e-07
-2.25999e-07
-2.59067e-07
-2.46955e-07
-2.40715e-07
0
-8.53594e-06
-1.91147e-07
-2.78109e-07
-1.67253e-07
-3.97622e-09
1.39264e-07
2.56765e-07
3.45356e-07
4.18479e-07
4.74744e-07
5.25624e-07
5.68685e-07
6.1119e-07
6.39831e-07
6.63049e-07
6.69093e-07
6.30995e-07
6.10847e-07
8.13057e-07
3.12752e-07
)
;
    }
    frontAndBack
    {
        type            empty;
    }
}


// ************************************************************************* //
