/*--------------------------------*- C++ -*----------------------------------*\
| =========                 |                                                 |
| \\      /  F ield         | OpenFOAM: The Open Source CFD Toolbox           |
|  \\    /   O peration     | Version:  2312                                  |
|   \\  /    A nd           | Website:  www.openfoam.com                      |
|    \\/     M anipulation  |                                                 |
\*---------------------------------------------------------------------------*/
FoamFile
{
    version     2.0;
    format      ascii;
    arch        "LSB;label=32;scalar=64";
    class       volScalarField;
    location    "1.75";
    object      flowTypeField;
}
// * * * * * * * * * * * * * * * * * * * * * * * * * * * * * * * * * * * * * //

dimensions      [0 0 0 0 0 0 0];

internalField   nonuniform List<scalar> 
400
(
0.279734
0.208521
0.139142
0.086751
0.053459
0.034011
0.023763
0.0194994
0.0187871
0.0198403
0.0223178
0.0280657
0.0368705
0.0499041
0.069813
0.0991701
0.144758
0.213447
0.306159
0.67399
0.185297
0.345176
0.437113
0.451021
0.420625
0.384813
0.361113
0.351555
0.346964
0.334222
0.312894
0.300498
0.301888
0.304498
0.30132
0.292822
0.276985
0.25513
0.220863
0.101037
0.132128
0.408349
0.543096
0.621589
0.661452
0.698163
0.748764
0.789403
0.748291
0.608585
0.464736
0.371207
0.316831
0.286529
0.268578
0.244075
0.20619
0.162718
0.150783
0.145848
0.0964848
0.463683
0.612917
0.713841
0.798056
0.893946
0.987921
0.97153
0.77841
0.568427
0.448284
0.41337
0.439233
0.474382
0.446829
0.363348
0.261759
0.173406
0.0842077
0.0876972
0.068702
0.500801
0.677816
0.791789
0.903179
0.979815
0.938763
0.926398
0.716709
0.604494
0.631595
0.823588
0.816287
0.618382
0.674095
0.950153
0.517252
0.262081
0.117749
0.0335265
0.0487826
0.514368
0.731286
0.858664
0.984387
0.922289
0.954665
0.875403
0.758409
0.835041
0.752887
0.201807
-0.203429
-0.387023
-0.392348
-0.211628
0.345336
0.57771
0.191534
0.043379
0.0353364
0.505856
0.774192
0.916512
0.959326
0.901505
0.970278
0.892343
0.917469
0.707672
0.131031
-0.416334
-0.787064
-0.878261
-0.908236
-0.928087
-0.734144
0.0766176
0.37458
0.0749222
0.0263632
0.476048
0.807484
0.968638
0.919625
0.887325
0.961707
0.959841
0.837437
0.324285
-0.262597
-0.76756
-0.896768
-0.816384
-0.825144
-0.889353
-0.791999
-0.755527
0.847569
0.0873024
0.0202659
0.425416
0.829842
0.982658
0.885486
0.862681
0.921653
0.946431
0.649831
0.101019
-0.46803
-0.91733
-0.844869
-0.801898
-0.814833
-0.877793
-0.796733
-0.547244
-0.564904
0.0751823
0.0159954
0.358718
0.837871
0.935612
0.846181
0.824419
0.864907
0.868211
0.563591
0.0400611
-0.523398
-0.956359
-0.821918
-0.798927
-0.865675
-0.886685
-0.706086
-0.41268
-0.38141
0.0527547
0.0131018
0.287532
0.827209
0.88887
0.802375
0.781204
0.804447
0.807218
0.581799
0.120245
-0.404078
-0.812594
-0.764438
-0.698017
-0.638443
-0.547428
-0.435123
-0.260766
-0.191278
0.0288632
0.00978354
0.223667
0.790685
0.857411
0.76731
0.743496
0.75095
0.760122
0.631429
0.285777
-0.14951
-0.511795
-0.605624
-0.523451
-0.389267
-0.268462
-0.182731
-0.123605
-0.0850295
0.0108234
0.00635073
0.176378
0.735569
0.859244
0.756613
0.725191
0.716825
0.716655
0.657331
0.439983
0.123113
-0.184314
-0.321817
-0.278447
-0.154866
-0.049154
0.00858419
-0.0204952
-0.0247776
0.000985371
0.00229938
0.12985
0.675411
0.905762
0.782089
0.734834
0.708936
0.689984
0.653774
0.539261
0.329376
0.0864124
-0.0561524
-0.045613
0.0360111
0.102428
0.130215
0.0411687
-0.000593758
-0.00250399
-0.00808981
0.0530997
0.611935
0.994825
0.850664
0.784041
0.736263
0.694212
0.647872
0.576313
0.446359
0.259483
0.110932
0.0907316
0.13729
0.1774
0.187293
0.0461401
-0.00980469
0.00052424
-0.0219109
0.00756142
0.595736
0.899013
0.949376
0.861589
0.793908
0.730265
0.661898
0.581166
0.468504
0.298566
0.117904
0.0729788
0.126185
0.173702
0.175131
-0.0417476
-0.034295
0.0118065
-0.0359042
-0.176029
0.383528
0.813565
0.987437
0.864764
0.777342
0.697919
0.612063
0.505472
0.356859
0.126797
-0.202203
-0.280882
-0.0804084
0.0405099
0.00229209
-0.258413
-0.0221594
0.0469442
-0.0441929
0.766197
0.692118
0.466407
0.360712
0.306594
0.271653
0.23693
0.19297
0.131379
0.0438576
-0.0725292
-0.203193
-0.272352
-0.262983
-0.214217
-0.424648
-0.432463
0.00148089
0.237158
0.684829
-0.000158515
0.0809413
0.0651366
0.0289738
0.0169562
0.0150075
0.0140848
0.0112084
0.00605618
-0.00113694
-0.00961917
-0.018724
-0.0272763
-0.0403433
-0.0529391
-0.122058
-0.105046
-0.316152
0.737002
0.0852252
-0.024032
-0.0205176
-0.0113943
-0.00623125
-0.00381518
-0.0025846
-0.00187314
-0.00141731
-0.00112553
-0.000953926
-0.000860956
-0.000846435
-0.000935534
-0.00124773
-0.00160886
-0.00388463
0.00308767
-0.0486201
0.119107
)
;

boundaryField
{
    movingWall
    {
        type            calculated;
        value           nonuniform List<scalar> 
20
(
0.0470057
-0.0101732
-0.00987739
-0.00567162
-0.00314328
-0.00194617
-0.00133608
-0.00098283
-0.000755074
-0.000607948
-0.000520399
-0.000471204
-0.000461805
-0.000505998
-0.000673489
-0.000866932
-0.00211898
0.00113672
-0.0264287
0.0667191
)
;
    }
    fixedWalls
    {
        type            calculated;
        value           nonuniform List<scalar> 
60
(
0.204806
0.0842253
0.0508033
0.0358961
0.0255626
0.0187391
0.0144246
0.0116538
0.00974295
0.00827962
0.00715232
0.00547029
0.0034855
0.00103365
-0.00485098
-0.0128256
-0.0241131
-0.0240759
0.748945
0.192435
0.191005
0.924022
0.390551
0.326623
-0.0367537
-0.00977073
0.0389136
0.0457022
0.0359086
0.0239559
0.0129527
0.00517147
0.00118395
-2.89139e-05
0.00126783
0.00513034
0.0161643
0.0748329
0.43939
0.432732
0.201198
0.0963817
0.0518953
0.0294157
0.0162673
0.00914446
0.00633027
0.00646901
0.00813128
0.0101799
0.0124352
0.0159297
0.0203241
0.025779
0.03348
0.044657
0.0656089
0.122572
0.402539
0.320119
)
;
    }
    frontAndBack
    {
        type            empty;
    }
}


// ************************************************************************* //
