/*--------------------------------*- C++ -*----------------------------------*\
| =========                 |                                                 |
| \\      /  F ield         | OpenFOAM: The Open Source CFD Toolbox           |
|  \\    /   O peration     | Version:  2312                                  |
|   \\  /    A nd           | Website:  www.openfoam.com                      |
|    \\/     M anipulation  |                                                 |
\*---------------------------------------------------------------------------*/
FoamFile
{
    version     2.0;
    format      ascii;
    arch        "LSB;label=32;scalar=64";
    class       surfaceScalarField;
    location    "1.75";
    object      fluxField;
}
// * * * * * * * * * * * * * * * * * * * * * * * * * * * * * * * * * * * * * //

dimensions      [0 3 -1 0 0 0 0];

oriented        oriented;

internalField   nonuniform List<scalar> 
760
(
-6.70448e-08
6.83535e-08
-2.095e-07
1.55183e-07
-4.08502e-07
2.07398e-07
-6.31119e-07
2.32203e-07
-8.6995e-07
2.48088e-07
-1.12377e-06
2.6271e-07
-1.3885e-06
2.72898e-07
-1.65101e-06
2.68849e-07
-1.88812e-06
2.41274e-07
-2.06957e-06
1.86681e-07
-2.16711e-06
1.0464e-07
-2.15144e-06
-6.12866e-09
-1.997e-06
-1.46532e-07
-1.70298e-06
-2.97354e-07
-1.29949e-06
-4.2408e-07
-8.47622e-07
-4.83511e-07
-4.26786e-07
-4.46104e-07
-1.22024e-07
-3.11846e-07
1.21358e-08
-1.32993e-07
1.33031e-08
-1.56429e-07
2.18534e-07
-3.7668e-07
3.78959e-07
-6.47649e-07
4.72279e-07
-9.47298e-07
5.2464e-07
-1.26591e-06
5.59888e-07
-1.59353e-06
5.84054e-07
-1.91347e-06
5.86994e-07
-2.20434e-06
5.54195e-07
-2.44843e-06
4.80696e-07
-2.63417e-06
3.70313e-07
-2.74786e-06
2.20013e-07
-2.76161e-06
1.5533e-08
-2.63463e-06
-2.49471e-07
-2.33798e-06
-5.54687e-07
-1.87726e-06
-8.3863e-07
-1.30645e-06
-1.01234e-06
-7.32718e-07
-9.89696e-07
-2.8345e-07
-7.34867e-07
-4.8219e-08
-3.49708e-07
-2.4937e-08
-2.23872e-07
4.33563e-07
-4.77088e-07
6.40469e-07
-7.66062e-07
7.60176e-07
-1.0837e-06
8.3833e-07
-1.42132e-06
8.93941e-07
-1.76722e-06
9.26993e-07
-2.10451e-06
9.21948e-07
-2.4198e-06
8.68032e-07
-2.71475e-06
7.75456e-07
-2.99992e-06
6.59716e-07
-3.27125e-06
5.06088e-07
-3.48572e-06
2.59394e-07
-3.55414e-06
-1.39929e-07
-3.37814e-06
-6.87129e-07
-2.9064e-06
-1.27772e-06
-2.16524e-06
-1.72788e-06
-1.27768e-06
-1.85479e-06
-4.83222e-07
-1.51017e-06
-6.00895e-08
-7.65628e-07
-7.41667e-08
-2.59305e-07
6.77968e-07
-5.28912e-07
9.17516e-07
-8.21677e-07
1.05304e-06
-1.1393e-06
1.15204e-06
-1.47769e-06
1.22799e-06
-1.82977e-06
1.27524e-06
-2.18895e-06
1.27943e-06
-2.56532e-06
1.24597e-06
-2.99832e-06
1.2127e-06
-3.53371e-06
1.20075e-06
-4.15957e-06
1.13692e-06
-4.76039e-06
8.52356e-07
-5.16267e-06
2.27373e-07
-5.20112e-06
-6.97114e-07
-4.7837e-06
-1.74083e-06
-3.90985e-06
-2.65328e-06
-2.65391e-06
-3.15349e-06
-1.2095e-06
-2.91585e-06
-2.01655e-07
-1.76611e-06
-2.80216e-07
-2.67854e-07
9.30799e-07
-5.39274e-07
1.19742e-06
-8.26294e-07
1.34285e-06
-1.13564e-06
1.45969e-06
-1.46884e-06
1.55845e-06
-1.8282e-06
1.63254e-06
-2.22751e-06
1.67913e-06
-2.71505e-06
1.73353e-06
-3.37301e-06
1.86058e-06
-4.24504e-06
2.04143e-06
-5.22684e-06
2.06582e-06
-6.07174e-06
1.64751e-06
-6.56631e-06
6.93758e-07
-6.67548e-06
-6.44567e-07
-6.40551e-06
-2.1039e-06
-5.67364e-06
-3.4871e-06
-4.39366e-06
-4.52991e-06
-2.61887e-06
-4.77964e-06
-8.11293e-07
-3.60451e-06
-9.55671e-07
-2.55868e-07
1.17357e-06
-5.15292e-07
1.4649e-06
-7.86356e-07
1.61754e-06
-1.07782e-06
1.75046e-06
-1.39719e-06
1.87578e-06
-1.7576e-06
1.99207e-06
-2.18947e-06
2.11468e-06
-2.76165e-06
2.30859e-06
-3.55775e-06
2.64371e-06
-4.55314e-06
2.99835e-06
-5.54099e-06
3.00583e-06
-6.27776e-06
2.35572e-06
-6.67628e-06
1.07131e-06
-6.7678e-06
-5.50436e-07
-6.62992e-06
-2.22803e-06
-6.2582e-06
-3.85231e-06
-5.43342e-06
-5.35816e-06
-3.90018e-06
-6.39042e-06
-1.73203e-06
-5.91999e-06
-2.57931e-06
-2.2824e-07
1.39134e-06
-4.6301e-07
1.70687e-06
-7.06649e-07
1.86506e-06
-9.67768e-07
2.01151e-06
-1.25772e-06
2.16421e-06
-1.59516e-06
2.33034e-06
-2.01411e-06
2.54157e-06
-2.58204e-06
2.87947e-06
-3.34483e-06
3.39225e-06
-4.21508e-06
3.82867e-06
-4.96817e-06
3.72931e-06
-5.40592e-06
2.81068e-06
-5.49529e-06
1.23572e-06
-5.39529e-06
-5.46622e-07
-5.29451e-06
-2.25439e-06
-5.24747e-06
-3.83404e-06
-5.05794e-06
-5.44749e-06
-4.24436e-06
-7.13775e-06
-2.4954e-06
-7.95657e-06
-5.07025e-06
-1.88554e-07
1.57231e-06
-3.87548e-07
1.91202e-06
-5.92427e-07
2.0739e-06
-8.095e-07
2.2294e-06
-1.05001e-06
2.40445e-06
-1.33046e-06
2.61399e-06
-1.67463e-06
2.89731e-06
-2.12253e-06
3.33697e-06
-2.68901e-06
3.94972e-06
-3.28543e-06
4.3818e-06
-3.72711e-06
4.16401e-06
-3.87104e-06
3.0173e-06
-3.767e-06
1.21624e-06
-3.57696e-06
-6.93841e-07
-3.42674e-06
-2.40318e-06
-3.43228e-06
-3.83966e-06
-3.60435e-06
-5.22726e-06
-3.51945e-06
-7.04316e-06
-2.49566e-06
-9.06028e-06
-7.68543e-06
-1.40382e-07
1.70804e-06
-2.94862e-07
2.07143e-06
-4.5158e-07
2.23454e-06
-6.12717e-07
2.3923e-06
-7.85495e-07
2.57846e-06
-9.78289e-07
2.81169e-06
-1.19695e-06
3.12936e-06
-1.45181e-06
3.60196e-06
-1.73171e-06
4.22459e-06
-2.00857e-06
4.61199e-06
-2.19936e-06
4.34097e-06
-2.22522e-06
3.09119e-06
-2.13862e-06
1.1902e-06
-2.01318e-06
-8.11506e-07
-1.88888e-06
-2.57059e-06
-1.84352e-06
-3.93908e-06
-2.02265e-06
-5.09425e-06
-2.2948e-06
-6.62838e-06
-1.93985e-06
-9.22098e-06
-9.82513e-06
-8.79431e-08
1.79433e-06
-1.92587e-07
2.17964e-06
-2.9552e-07
2.3409e-06
-3.93703e-07
2.49248e-06
-4.87819e-07
2.6746e-06
-5.77241e-07
2.90557e-06
-6.5144e-07
3.21479e-06
-6.90609e-07
3.65239e-06
-6.81514e-07
4.20561e-06
-6.43033e-07
4.54282e-06
-6.00096e-07
4.27902e-06
-5.61627e-07
3.11231e-06
-5.47564e-07
1.26692e-06
-5.50958e-07
-7.46731e-07
-5.81214e-07
-2.5305e-06
-6.55324e-07
-3.88438e-06
-8.41951e-07
-4.95379e-06
-1.19432e-06
-6.25926e-06
-1.24254e-06
-8.92469e-06
-1.12029e-05
-3.57416e-08
1.82981e-06
-8.91289e-08
2.23537e-06
-1.36853e-07
2.39117e-06
-1.7092e-07
2.52837e-06
-1.85949e-07
2.69174e-06
-1.73865e-07
2.89724e-06
-1.16464e-07
3.16327e-06
2.55254e-08
3.51708e-06
2.76681e-07
3.94772e-06
5.92899e-07
4.21538e-06
8.68827e-07
3.9702e-06
1.02957e-06
2.99188e-06
1.03708e-06
1.35465e-06
9.01058e-07
-5.24629e-07
6.50048e-07
-2.24797e-06
3.40213e-07
-3.57664e-06
-4.97022e-09
-4.62366e-06
-4.32447e-07
-5.8582e-06
-7.07908e-07
-8.50707e-06
-1.1975e-05
1.18528e-08
1.82034e-06
6.31717e-09
2.24129e-06
1.12121e-08
2.38781e-06
3.70008e-08
2.504e-06
9.26768e-08
2.63774e-06
1.89716e-07
2.80253e-06
3.49324e-07
3.00663e-06
6.1361e-07
3.25771e-06
1.00881e-06
3.54237e-06
1.5019e-06
3.70393e-06
1.96597e-06
3.46869e-06
2.26902e-06
2.67541e-06
2.3355e-06
1.33416e-06
2.12169e-06
-2.73069e-07
1.67608e-06
-1.81466e-06
1.14687e-06
-3.07589e-06
6.11671e-07
-4.1084e-06
6.8469e-08
-5.30945e-06
-3.967e-07
-8.0133e-06
-1.24117e-05
4.75922e-08
1.77688e-06
8.50657e-08
2.20445e-06
1.36884e-07
2.33702e-06
2.14842e-07
2.42673e-06
3.28859e-07
2.52443e-06
4.90281e-07
2.64193e-06
7.16869e-07
2.78058e-06
1.04068e-06
2.9353e-06
1.48804e-06
3.08462e-06
2.03246e-06
3.13356e-06
2.56303e-06
2.90273e-06
2.93458e-06
2.2691e-06
3.03579e-06
1.22165e-06
2.81484e-06
-5.74294e-08
2.31258e-06
-1.33583e-06
1.67909e-06
-2.47479e-06
1.01878e-06
-3.47063e-06
3.71387e-07
-4.64811e-06
-2.48887e-07
-7.42179e-06
-1.26678e-05
7.02909e-08
1.7078e-06
1.39963e-07
2.13278e-06
2.30559e-07
2.24557e-06
3.52153e-07
2.30417e-06
5.12807e-07
2.36293e-06
7.2054e-07
2.43316e-06
9.86748e-07
2.51257e-06
1.32931e-06
2.59001e-06
1.76525e-06
2.64106e-06
2.27537e-06
2.606e-06
2.77359e-06
2.38486e-06
3.12926e-06
1.88978e-06
3.23497e-06
1.10714e-06
3.04174e-06
1.38046e-07
2.57581e-06
-8.8178e-07
1.94818e-06
-1.8632e-06
1.2431e-06
-2.78168e-06
5.32114e-07
-3.92764e-06
-1.97131e-07
-6.72466e-06
-1.28158e-05
7.17172e-08
1.65507e-06
1.60741e-07
2.04988e-06
2.82051e-07
2.12713e-06
4.39954e-07
2.14682e-06
6.38634e-07
2.16381e-06
8.81351e-07
2.18911e-06
1.1725e-06
2.21927e-06
1.5177e-06
2.24155e-06
1.92031e-06
2.23352e-06
2.36329e-06
2.15538e-06
2.78697e-06
1.95391e-06
3.09381e-06
1.57885e-06
3.19406e-06
1.01241e-06
3.04046e-06
3.00263e-07
2.64432e-06
-4.85295e-07
2.07111e-06
-1.29347e-06
1.37119e-06
-2.10042e-06
6.48917e-07
-3.22157e-06
-1.53989e-07
-5.92687e-06
-1.29274e-05
4.14955e-08
1.5431e-06
1.39157e-07
1.89304e-06
2.82512e-07
1.94632e-06
4.70085e-07
1.9379e-06
7.0131e-07
1.92322e-06
9.74137e-07
1.91276e-06
1.28665e-06
1.90611e-06
1.63548e-06
1.89332e-06
2.01303e-06
1.85646e-06
2.39967e-06
1.76883e-06
2.75462e-06
1.59988e-06
3.01345e-06
1.32316e-06
3.10854e-06
9.23461e-07
2.99481e-06
4.21025e-07
2.6721e-06
-1.56091e-07
2.15899e-06
-7.92565e-07
1.51079e-06
-1.47016e-06
8.64145e-07
-2.62271e-06
-7.93538e-09
-5.11489e-06
-1.31306e-05
-5.0325e-08
1.83596e-06
2.49786e-08
2.02907e-06
1.99276e-07
1.93858e-06
4.26438e-07
1.81534e-06
6.96762e-07
1.72165e-06
1.00458e-06
1.65396e-06
1.34417e-06
1.60435e-06
1.70739e-06
1.56067e-06
2.08162e-06
1.50699e-06
2.44611e-06
1.42453e-06
2.76907e-06
1.29409e-06
3.00929e-06
1.1007e-06
3.11574e-06
8.38571e-07
3.0405e-06
5.11965e-07
2.77891e-06
1.30206e-07
2.30691e-06
-3.36542e-07
1.80529e-06
-9.01853e-07
1.27792e-06
-2.12443e-06
2.76908e-07
-4.25267e-06
-1.3317e-05
-1.78533e-07
1.507e-06
-8.90048e-08
1.37952e-06
1.29427e-07
1.29688e-06
3.91124e-07
1.26991e-06
6.98489e-07
1.21386e-06
1.04969e-06
1.15438e-06
1.43263e-06
1.10747e-06
1.8336e-06
1.07034e-06
2.23754e-06
1.0319e-06
2.62457e-06
9.80263e-07
2.96804e-06
9.05262e-07
3.23046e-06
7.99129e-07
3.37484e-06
6.62199e-07
3.36537e-06
4.87713e-07
3.19936e-06
2.82457e-07
2.7842e-06
-1.2776e-08
2.54731e-06
-4.08593e-07
1.87348e-06
-1.47149e-06
6.97109e-07
-2.93512e-06
-1.23178e-05
-4.03157e-07
2.71637e-06
-2.45605e-07
1.98435e-06
2.63036e-07
1.36865e-06
8.0321e-07
1.0909e-06
1.34825e-06
9.24103e-07
1.88773e-06
8.07534e-07
2.41224e-06
7.25309e-07
2.92103e-06
6.66118e-07
3.4118e-06
6.19081e-07
3.87625e-06
5.76327e-07
4.30005e-06
5.3157e-07
4.66274e-06
4.80768e-07
4.94753e-06
4.22096e-07
5.12389e-06
3.50725e-07
5.21338e-06
2.65482e-07
4.99876e-06
1.28757e-07
5.01567e-06
-4.25795e-08
3.3806e-06
-6.06243e-07
2.51876e-06
-9.56004e-07
-8.08978e-06
2.54763e-06
3.70558e-06
4.89429e-06
5.87847e-06
6.67917e-06
7.38546e-06
8.04201e-06
8.65965e-06
9.24104e-06
9.78681e-06
1.02938e-05
1.07534e-05
1.11578e-05
1.14775e-05
1.17434e-05
1.17039e-05
1.20521e-05
9.40995e-06
1.25758e-05
)
;

boundaryField
{
    movingWall
    {
        type            calculated;
        value           uniform 0;
    }
    fixedWalls
    {
        type            calculated;
        value           uniform 0;
    }
    frontAndBack
    {
        type            empty;
        value           nonuniform List<scalar> 0();
    }
}


// ************************************************************************* //
