/*--------------------------------*- C++ -*----------------------------------*\
| =========                 |                                                 |
| \\      /  F ield         | OpenFOAM: The Open Source CFD Toolbox           |
|  \\    /   O peration     | Version:  2312                                  |
|   \\  /    A nd           | Website:  www.openfoam.com                      |
|    \\/     M anipulation  |                                                 |
\*---------------------------------------------------------------------------*/
FoamFile
{
    version     2.0;
    format      ascii;
    arch        "LSB;label=32;scalar=64";
    class       volVectorField;
    location    "1.75";
    object      gradPhi;
}
// * * * * * * * * * * * * * * * * * * * * * * * * * * * * * * * * * * * * * //

dimensions      [0 2 -1 0 0 0 0];

internalField   nonuniform List<vector> 
400
(
(-1.26346e-05 1.26342e-05 0)
(-2.94624e-05 2.94623e-05 0)
(-3.96043e-05 3.96043e-05 0)
(-4.44247e-05 4.44247e-05 0)
(-4.75814e-05 4.75814e-05 0)
(-5.05793e-05 5.05793e-05 0)
(-5.2792e-05 5.2792e-05 0)
(-5.22623e-05 5.22623e-05 0)
(-4.70673e-05 4.70674e-05 0)
(-3.64075e-05 3.64075e-05 0)
(-2.02642e-05 2.02642e-05 0)
(1.34821e-06 -1.34818e-06 0)
(2.88204e-05 -2.88203e-05 0)
(5.7999e-05 -5.79989e-05 0)
(8.23803e-05 -8.23803e-05 0)
(9.36076e-05 -9.36076e-05 0)
(8.61923e-05 -8.61923e-05 0)
(6.02702e-05 -6.02702e-05 0)
(2.54303e-05 -2.54302e-05 0)
(-2.96838e-06 2.96839e-06 0)
(-3.00671e-05 3.00671e-05 0)
(-4.55702e-05 4.55702e-05 0)
(-5.41599e-05 5.41599e-05 0)
(-5.97173e-05 5.97173e-05 0)
(-6.35458e-05 6.35458e-05 0)
(-6.53793e-05 6.53793e-05 0)
(-6.38377e-05 6.38377e-05 0)
(-5.79872e-05 5.79872e-05 0)
(-4.86448e-05 4.86448e-05 0)
(-3.71438e-05 3.71438e-05 0)
(-2.27864e-05 2.27864e-05 0)
(-3.96968e-06 3.96971e-06 0)
(2.3628e-05 -2.3628e-05 0)
(5.82674e-05 -5.82673e-05 0)
(9.29064e-05 -9.29063e-05 0)
(0.000116585 -0.000116585 0)
(0.000117423 -0.000117423 0)
(8.99251e-05 -8.99251e-05 0)
(4.5597e-05 -4.5597e-05 0)
(8.4772e-06 -8.47718e-06 0)
(-4.30579e-05 4.3058e-05 0)
(-5.25877e-05 5.25877e-05 0)
(-5.80241e-05 5.80241e-05 0)
(-6.32677e-05 6.32677e-05 0)
(-6.73196e-05 6.73196e-05 0)
(-6.90279e-05 6.90279e-05 0)
(-6.73325e-05 6.73325e-05 0)
(-6.29334e-05 6.29334e-05 0)
(-5.87394e-05 5.87395e-05 0)
(-5.67486e-05 5.67486e-05 0)
(-5.4178e-05 5.41781e-05 0)
(-4.33048e-05 4.33048e-05 0)
(-1.64883e-05 1.64883e-05 0)
(3.40016e-05 -3.40016e-05 0)
(9.47263e-05 -9.47263e-05 0)
(0.00015067 -0.00015067 0)
(0.000181121 -0.000181121 0)
(0.00015858 -0.00015858 0)
(8.36244e-05 -8.36243e-05 0)
(1.02865e-05 -1.02865e-05 0)
(-4.97636e-05 4.97636e-05 0)
(-5.60187e-05 5.60187e-05 0)
(-5.90811e-05 5.90812e-05 0)
(-6.32963e-05 6.32963e-05 0)
(-6.74182e-05 6.74182e-05 0)
(-7.02401e-05 7.02402e-05 0)
(-7.18619e-05 7.18619e-05 0)
(-7.53518e-05 7.53518e-05 0)
(-8.61788e-05 8.61789e-05 0)
(-0.000106106 0.000106106 0)
(-0.000125191 0.000125191 0)
(-0.000120975 0.000120975 0)
(-8.12546e-05 8.12546e-05 0)
(-9.44275e-06 9.44278e-06 0)
(8.15581e-05 -8.1558e-05 0)
(0.000175807 -0.000175807 0)
(0.000256498 -0.000256498 0)
(0.000288098 -0.000288098 0)
(0.00020425 -0.00020425 0)
(3.59686e-05 -3.59686e-05 0)
(-5.13181e-05 5.13182e-05 0)
(-5.63107e-05 5.63107e-05 0)
(-5.81433e-05 5.81434e-05 0)
(-6.17059e-05 6.17059e-05 0)
(-6.63105e-05 6.63105e-05 0)
(-7.17203e-05 7.17203e-05 0)
(-8.03056e-05 8.03056e-05 0)
(-9.82492e-05 9.82492e-05 0)
(-0.000131448 0.000131448 0)
(-0.000172576 0.000172576 0)
(-0.000193534 0.000193534 0)
(-0.000168601 0.000168601 0)
(-0.000102071 0.000102071 0)
(-2.36804e-05 2.36804e-05 0)
(5.17573e-05 -5.17573e-05 0)
(0.000144445 -0.000144445 0)
(0.000255437 -0.000255437 0)
(0.000361964 -0.000361964 0)
(0.000372252 -0.000372252 0)
(0.000150119 -0.000150119 0)
(-4.89957e-05 4.89957e-05 0)
(-5.37014e-05 5.37014e-05 0)
(-5.50325e-05 5.50325e-05 0)
(-5.82151e-05 5.82151e-05 0)
(-6.35559e-05 6.35559e-05 0)
(-7.21182e-05 7.21182e-05 0)
(-8.75548e-05 8.75548e-05 0)
(-0.000115864 0.000115864 0)
(-0.000158607 0.000158607 0)
(-0.000194988 0.000194988 0)
(-0.000192999 0.000192999 0)
(-0.000147811 0.000147811 0)
(-8.29973e-05 8.29973e-05 0)
(-2.06673e-05 2.06673e-05 0)
(2.50975e-05 -2.50975e-05 0)
(7.21979e-05 -7.21978e-05 0)
(0.000157673 -0.000157673 0)
(0.000308923 -0.000308923 0)
(0.000461168 -0.000461168 0)
(0.000328047 -0.000328047 0)
(-4.37234e-05 4.37234e-05 0)
(-4.84739e-05 4.8474e-05 0)
(-4.9544e-05 4.95441e-05 0)
(-5.22471e-05 5.22471e-05 0)
(-5.77564e-05 5.77564e-05 0)
(-6.78111e-05 6.78111e-05 0)
(-8.5777e-05 8.5777e-05 0)
(-0.000115204 0.000115204 0)
(-0.000151026 0.000151026 0)
(-0.000167035 0.000167035 0)
(-0.000145242 0.000145242 0)
(-8.8414e-05 8.84141e-05 0)
(-2.33918e-05 2.33918e-05 0)
(1.26515e-05 -1.26514e-05 0)
(2.27667e-05 -2.27667e-05 0)
(1.21789e-05 -1.21789e-05 0)
(2.83869e-05 -2.83869e-05 0)
(0.000146024 -0.000146024 0)
(0.00038835 -0.00038835 0)
(0.000485288 -0.000485288 0)
(-3.61522e-05 3.61522e-05 0)
(-4.09849e-05 4.09849e-05 0)
(-4.17265e-05 4.17265e-05 0)
(-4.35393e-05 4.35393e-05 0)
(-4.80172e-05 4.80172e-05 0)
(-5.67204e-05 5.67204e-05 0)
(-7.11368e-05 7.11368e-05 0)
(-9.12516e-05 9.12516e-05 0)
(-0.000110965 0.000110965 0)
(-0.000108609 0.000108609 0)
(-8.2109e-05 8.21091e-05 0)
(-3.38391e-05 3.38391e-05 0)
(1.05816e-05 -1.05816e-05 0)
(3.21862e-05 -3.21862e-05 0)
(3.34461e-05 -3.34461e-05 0)
(6.40826e-06 -6.40825e-06 0)
(-3.4944e-05 3.4944e-05 0)
(-1.1314e-05 1.1314e-05 0)
(0.000214955 -0.000214955 0)
(0.000513732 -0.000513732 0)
(-2.69403e-05 2.69404e-05 0)
(-3.17353e-05 3.17353e-05 0)
(-3.19924e-05 3.19924e-05 0)
(-3.24255e-05 3.24255e-05 0)
(-3.46153e-05 3.46153e-05 0)
(-3.92868e-05 3.92868e-05 0)
(-4.60834e-05 4.60834e-05 0)
(-5.2328e-05 5.2328e-05 0)
(-5.31879e-05 5.31879e-05 0)
(-4.33742e-05 4.33742e-05 0)
(-3.09361e-05 3.09361e-05 0)
(-1.27159e-05 1.27159e-05 0)
(4.15204e-06 -4.15203e-06 0)
(1.85052e-05 -1.85052e-05 0)
(2.82599e-05 -2.82599e-05 0)
(1.68772e-05 -1.68772e-05 0)
(-2.61878e-05 2.61878e-05 0)
(-7.3558e-05 7.3558e-05 0)
(4.35238e-05 -4.35237e-05 0)
(0.000424049 -0.000424049 0)
(-1.68763e-05 1.68763e-05 0)
(-2.14452e-05 2.14452e-05 0)
(-2.11073e-05 2.11073e-05 0)
(-1.98618e-05 1.98618e-05 0)
(-1.90039e-05 1.90039e-05 0)
(-1.84554e-05 1.84554e-05 0)
(-1.65714e-05 1.65714e-05 0)
(-9.54945e-06 9.54946e-06 0)
(5.60731e-06 -5.60731e-06 0)
(1.59975e-05 -1.59975e-05 0)
(1.53141e-05 -1.53141e-05 0)
(1.71965e-06 -1.71964e-06 0)
(-8.61737e-06 8.61738e-06 0)
(-7.61915e-06 7.61915e-06 0)
(-4.10189e-06 4.10189e-06 0)
(-8.98608e-06 8.98608e-06 0)
(-2.70414e-05 2.70414e-05 0)
(-7.17806e-05 7.17807e-05 0)
(-4.98495e-05 4.98495e-05 0)
(0.000282228 -0.000282228 0)
(-6.82059e-06 6.8206e-06 0)
(-1.09226e-05 1.09226e-05 0)
(-9.91877e-06 9.91877e-06 0)
(-7.01319e-06 7.0132e-06 0)
(-3.20767e-06 3.20767e-06 0)
(2.02473e-06 -2.02473e-06 0)
(1.10771e-05 -1.10771e-05 0)
(2.88264e-05 -2.88264e-05 0)
(5.19856e-05 -5.19856e-05 0)
(6.74492e-05 -6.74492e-05 0)
(6.40575e-05 -6.40575e-05 0)
(2.89477e-05 -2.89477e-05 0)
(-9.71847e-06 9.71847e-06 0)
(-3.72395e-05 3.72395e-05 0)
(-4.75592e-05 4.75592e-05 0)
(-5.69678e-05 5.69678e-05 0)
(-6.51192e-05 6.51192e-05 0)
(-8.06079e-05 8.06079e-05 0)
(-8.13337e-05 8.13337e-05 0)
(0.00016206 -0.00016206 0)
(2.31e-06 -2.30999e-06 0)
(-1.03566e-06 1.03566e-06 0)
(8.39464e-07 -8.39465e-07 0)
(5.00047e-06 -5.00047e-06 0)
(1.09357e-05 -1.09357e-05 0)
(1.90986e-05 -1.90986e-05 0)
(3.13818e-05 -3.13818e-05 0)
(5.15479e-05 -5.15479e-05 0)
(8.18023e-05 -8.18023e-05 0)
(0.000102399 -0.000102399 0)
(9.96217e-05 -9.96217e-05 0)
(6.08697e-05 -6.08698e-05 0)
(2.80966e-06 -2.80967e-06 0)
(-5.29369e-05 5.29369e-05 0)
(-8.78785e-05 8.78785e-05 0)
(-0.000100492 0.000100492 0)
(-0.000102182 0.000102182 0)
(-0.00010999 0.00010999 0)
(-0.000101552 0.000101552 0)
(8.74514e-05 -8.74514e-05 0)
(9.21802e-06 -9.21802e-06 0)
(7.63738e-06 -7.63738e-06 0)
(1.02657e-05 -1.02657e-05 0)
(1.55327e-05 -1.55328e-05 0)
(2.27131e-05 -2.27131e-05 0)
(3.21182e-05 -3.21182e-05 0)
(4.51221e-05 -4.51221e-05 0)
(6.42677e-05 -6.42677e-05 0)
(9.06501e-05 -9.06501e-05 0)
(0.000111781 -0.000111781 0)
(0.000109439 -0.000109439 0)
(7.52866e-05 -7.52866e-05 0)
(1.36542e-05 -1.36542e-05 0)
(-4.92285e-05 4.92285e-05 0)
(-0.000101961 0.000101961 0)
(-0.000123684 0.000123684 0)
(-0.000129244 0.000129244 0)
(-0.000132809 0.000132809 0)
(-0.0001198 0.0001198 0)
(4.90403e-05 -4.90403e-05 0)
(1.35328e-05 -1.35328e-05 0)
(1.41328e-05 -1.41328e-05 0)
(1.81534e-05 -1.81535e-05 0)
(2.43574e-05 -2.43575e-05 0)
(3.21133e-05 -3.21133e-05 0)
(4.15019e-05 -4.15019e-05 0)
(5.32327e-05 -5.32327e-05 0)
(6.84584e-05 -6.84584e-05 0)
(8.76759e-05 -8.7676e-05 0)
(0.000103861 -0.000103861 0)
(0.000101106 -0.000101106 0)
(7.20691e-05 -7.20691e-05 0)
(1.77417e-05 -1.77418e-05 0)
(-4.15588e-05 4.15587e-05 0)
(-9.49575e-05 9.49575e-05 0)
(-0.00012489 0.00012489 0)
(-0.000139537 0.000139537 0)
(-0.000145287 0.000145287 0)
(-0.000137552 0.000137552 0)
(3.58452e-05 -3.58452e-05 0)
(1.35701e-05 -1.35702e-05 0)
(1.8089e-05 -1.8089e-05 0)
(2.43747e-05 -2.43747e-05 0)
(3.17336e-05 -3.17336e-05 0)
(3.97794e-05 -3.97794e-05 0)
(4.85769e-05 -4.8577e-05 0)
(5.82866e-05 -5.82866e-05 0)
(6.91641e-05 -6.91641e-05 0)
(8.08872e-05 -8.08872e-05 0)
(8.95725e-05 -8.95725e-05 0)
(8.55914e-05 -8.55914e-05 0)
(6.17572e-05 -6.17572e-05 0)
(1.85707e-05 -1.85707e-05 0)
(-3.29114e-05 3.29114e-05 0)
(-8.04418e-05 8.04418e-05 0)
(-0.000115287 0.000115286 0)
(-0.000138471 0.000138471 0)
(-0.000145989 0.000145989 0)
(-0.000159289 0.000159289 0)
(3.24351e-05 -3.24352e-05 0)
(7.464e-06 -7.46402e-06 0)
(1.97743e-05 -1.97743e-05 0)
(2.8713e-05 -2.8713e-05 0)
(3.78369e-05 -3.78369e-05 0)
(4.63278e-05 -4.63278e-05 0)
(5.46514e-05 -5.46514e-05 0)
(6.26249e-05 -6.26249e-05 0)
(6.99536e-05 -6.99536e-05 0)
(7.58651e-05 -7.58652e-05 0)
(7.79046e-05 -7.79046e-05 0)
(7.15373e-05 -7.15373e-05 0)
(5.18596e-05 -5.18597e-05 0)
(1.82131e-05 -1.82131e-05 0)
(-2.41402e-05 2.41401e-05 0)
(-6.61569e-05 6.61569e-05 0)
(-0.000102129 0.000102129 0)
(-0.000129488 0.000129488 0)
(-0.000127268 0.000127268 0)
(-0.000178212 0.000178212 0)
(4.66922e-06 -4.66923e-06 0)
(-1.16431e-05 1.16431e-05 0)
(1.63411e-05 -1.63412e-05 0)
(3.43549e-05 -3.4355e-05 0)
(4.58443e-05 -4.58443e-05 0)
(5.43101e-05 -5.43101e-05 0)
(6.17146e-05 -6.17146e-05 0)
(6.81045e-05 -6.81045e-05 0)
(7.28937e-05 -7.28937e-05 0)
(7.5212e-05 -7.5212e-05 0)
(7.33215e-05 -7.33215e-05 0)
(6.5007e-05 -6.5007e-05 0)
(4.81533e-05 -4.81534e-05 0)
(2.04118e-05 -2.04118e-05 0)
(-1.55261e-05 1.55261e-05 0)
(-5.49863e-05 5.49863e-05 0)
(-8.89899e-05 8.89898e-05 0)
(-0.000115397 0.000115397 0)
(-0.000101869 0.000101869 0)
(-0.000185535 0.000185535 0)
(-6.17219e-05 6.17219e-05 0)
(-4.00662e-05 4.00662e-05 0)
(2.30683e-05 -2.30684e-05 0)
(4.34368e-05 -4.34368e-05 0)
(5.08501e-05 -5.08501e-05 0)
(6.16999e-05 -6.16999e-05 0)
(7.07461e-05 -7.07461e-05 0)
(7.7009e-05 -7.7009e-05 0)
(8.05962e-05 -8.05963e-05 0)
(8.12342e-05 -8.12343e-05 0)
(7.79108e-05 -7.79108e-05 0)
(6.89193e-05 -6.89194e-05 0)
(5.26584e-05 -5.26584e-05 0)
(2.8413e-05 -2.8413e-05 0)
(-1.85511e-06 1.85508e-06 0)
(-3.74556e-05 3.74556e-05 0)
(-6.6138e-05 6.6138e-05 0)
(-9.37934e-05 9.37934e-05 0)
(-0.000110154 0.000110154 0)
(-0.000208827 0.000208827 0)
(-0.000158252 0.000158252 0)
(-8.61336e-05 8.61336e-05 0)
(3.33953e-05 -3.33954e-05 0)
(0.000101329 -0.000101329 0)
(0.000113235 -0.000113235 0)
(0.000110085 -0.000110085 0)
(0.000106914 -0.000106914 0)
(0.000104325 -0.000104325 0)
(0.000101722 -0.000101722 0)
(9.84987e-05 -9.84987e-05 0)
(9.33125e-05 -9.33125e-05 0)
(8.4997e-05 -8.4997e-05 0)
(7.27408e-05 -7.27408e-05 0)
(5.6811e-05 -5.6811e-05 0)
(3.72672e-05 -3.72672e-05 0)
(1.47062e-05 -1.47063e-05 0)
(-2.14132e-05 2.14131e-05 0)
(-6.83558e-05 6.83558e-05 0)
(-0.00016113 0.000161129 0)
(-0.00040652 0.00040652 0)
(-0.000385787 0.000385787 0)
(0.000458098 -0.000458098 0)
(0.00031581 -0.00031581 0)
(0.000216867 -0.000216867 0)
(0.000181323 -0.000181323 0)
(0.000160367 -0.000160367 0)
(0.000143992 -0.000143992 0)
(0.00013209 -0.00013209 0)
(0.00012355 -0.00012355 0)
(0.000116446 -0.000116446 0)
(0.000109479 -0.000109479 0)
(0.00010165 -0.00010165 0)
(9.22202e-05 -9.22202e-05 0)
(8.07318e-05 -8.07318e-05 0)
(6.5928e-05 -6.5928e-05 0)
(4.78942e-05 -4.78942e-05 0)
(2.01995e-05 -2.01995e-05 0)
(-1.29714e-05 1.29714e-05 0)
(-0.000142028 0.000142027 0)
(-0.000210679 0.000210679 0)
(-0.00200097 0.00200097 0)
)
;

boundaryField
{
    movingWall
    {
        type            extrapolatedCalculated;
        value           nonuniform List<vector> 
20
(
(0.000458098 -0.000458098 0)
(0.00031581 -0.00031581 0)
(0.000216867 -0.000216867 0)
(0.000181323 -0.000181323 0)
(0.000160367 -0.000160367 0)
(0.000143992 -0.000143992 0)
(0.00013209 -0.00013209 0)
(0.00012355 -0.00012355 0)
(0.000116446 -0.000116446 0)
(0.000109479 -0.000109479 0)
(0.00010165 -0.00010165 0)
(9.22202e-05 -9.22202e-05 0)
(8.07318e-05 -8.07318e-05 0)
(6.5928e-05 -6.5928e-05 0)
(4.78942e-05 -4.78942e-05 0)
(2.01995e-05 -2.01995e-05 0)
(-1.29714e-05 1.29714e-05 0)
(-0.000142028 0.000142027 0)
(-0.000210679 0.000210679 0)
(-0.00200097 0.00200097 0)
)
;
    }
    fixedWalls
    {
        type            extrapolatedCalculated;
        value           nonuniform List<vector> 
60
(
(-1.26346e-05 1.26342e-05 0)
(-3.00671e-05 3.00671e-05 0)
(-4.30579e-05 4.3058e-05 0)
(-4.97636e-05 4.97636e-05 0)
(-5.13181e-05 5.13182e-05 0)
(-4.89957e-05 4.89957e-05 0)
(-4.37234e-05 4.37234e-05 0)
(-3.61522e-05 3.61522e-05 0)
(-2.69403e-05 2.69404e-05 0)
(-1.68763e-05 1.68763e-05 0)
(-6.82059e-06 6.8206e-06 0)
(2.31e-06 -2.30999e-06 0)
(9.21802e-06 -9.21802e-06 0)
(1.35328e-05 -1.35328e-05 0)
(1.35701e-05 -1.35702e-05 0)
(7.464e-06 -7.46402e-06 0)
(-1.16431e-05 1.16431e-05 0)
(-4.00662e-05 4.00662e-05 0)
(-8.61336e-05 8.61336e-05 0)
(0.000458098 -0.000458098 0)
(-2.96838e-06 2.96839e-06 0)
(8.4772e-06 -8.47718e-06 0)
(1.02865e-05 -1.02865e-05 0)
(3.59686e-05 -3.59686e-05 0)
(0.000150119 -0.000150119 0)
(0.000328047 -0.000328047 0)
(0.000485288 -0.000485288 0)
(0.000513732 -0.000513732 0)
(0.000424049 -0.000424049 0)
(0.000282228 -0.000282228 0)
(0.00016206 -0.00016206 0)
(8.74514e-05 -8.74514e-05 0)
(4.90403e-05 -4.90403e-05 0)
(3.58452e-05 -3.58452e-05 0)
(3.24351e-05 -3.24352e-05 0)
(4.66922e-06 -4.66923e-06 0)
(-6.17219e-05 6.17219e-05 0)
(-0.000158252 0.000158252 0)
(-0.000385787 0.000385787 0)
(-0.00200097 0.00200097 0)
(-1.26346e-05 1.26342e-05 0)
(-2.94624e-05 2.94623e-05 0)
(-3.96043e-05 3.96043e-05 0)
(-4.44247e-05 4.44247e-05 0)
(-4.75814e-05 4.75814e-05 0)
(-5.05793e-05 5.05793e-05 0)
(-5.2792e-05 5.2792e-05 0)
(-5.22623e-05 5.22623e-05 0)
(-4.70673e-05 4.70674e-05 0)
(-3.64075e-05 3.64075e-05 0)
(-2.02642e-05 2.02642e-05 0)
(1.34821e-06 -1.34818e-06 0)
(2.88204e-05 -2.88203e-05 0)
(5.7999e-05 -5.79989e-05 0)
(8.23803e-05 -8.23803e-05 0)
(9.36076e-05 -9.36076e-05 0)
(8.61923e-05 -8.61923e-05 0)
(6.02702e-05 -6.02702e-05 0)
(2.54303e-05 -2.54302e-05 0)
(-2.96838e-06 2.96839e-06 0)
)
;
    }
    frontAndBack
    {
        type            empty;
    }
}


// ************************************************************************* //
