/*--------------------------------*- C++ -*----------------------------------*\
| =========                 |                                                 |
| \\      /  F ield         | OpenFOAM: The Open Source CFD Toolbox           |
|  \\    /   O peration     | Version:  2312                                  |
|   \\  /    A nd           | Website:  www.openfoam.com                      |
|    \\/     M anipulation  |                                                 |
\*---------------------------------------------------------------------------*/
FoamFile
{
    version     2.0;
    format      ascii;
    arch        "LSB;label=32;scalar=64";
    class       volTensorField;
    location    "1.75";
    object      gradU;
}
// * * * * * * * * * * * * * * * * * * * * * * * * * * * * * * * * * * * * * //

dimensions      [0 0 -1 0 0 0 0];

internalField   nonuniform List<tensor> 
400
(
(-0.268179 0.145697 0 -0.159235 0.273414 0 0 0 0)
(-0.569821 0.138099 0 -0.734659 0.620733 0 0 0 0)
(-0.796009 0.0781406 0 -1.61006 0.829591 0 0 0 0)
(-0.890467 0.0369296 0 -2.61454 0.928813 0 0 0 0)
(-0.955324 0.0319212 0 -3.69912 0.99235 0 0 0 0)
(-1.01528 0.040813 0 -4.84431 1.05084 0 0 0 0)
(-1.05892 0.0397321 0 -6.02488 1.09159 0 0 0 0)
(-1.05006 0.0111115 0 -7.18299 1.07539 0 0 0 0)
(-0.948428 -0.0477798 0 -8.23843 0.965098 0 0 0 0)
(-0.72579 -0.123494 0 -9.10775 0.746726 0 0 0 0)
(-0.390187 -0.200514 0 -9.7072 0.41856 0 0 0 0)
(0.0626807 -0.279114 0 -9.95269 -0.0245146 0 0 0 0)
(0.617756 -0.322908 0 -9.69953 -0.58613 0 0 0 0)
(1.17608 -0.297202 0 -8.82701 -1.18942 0 0 0 0)
(1.61396 -0.188354 0 -7.33684 -1.69632 0 0 0 0)
(1.80749 -0.00306811 0 -5.37016 -1.93404 0 0 0 0)
(1.68334 0.202024 0 -3.24613 -1.78442 0 0 0 0)
(1.21905 0.345001 0 -1.39188 -1.24739 0 0 0 0)
(0.53664 0.340681 0 -0.230015 -0.531974 0 0 0 0)
(-0.0485431 0.0522838 0 0.0856825 0.0532124 0 0 0 0)
(-0.625715 0.74845 0 -0.180646 0.60072 0 0 0 0)
(-0.881007 0.418077 0 -0.446664 0.895105 0 0 0 0)
(-1.08388 0.229939 0 -0.623688 1.05953 0 0 0 0)
(-1.19859 0.12583 0 -0.806551 1.16975 0 0 0 0)
(-1.27444 0.0901059 0 -1.00378 1.2472 0 0 0 0)
(-1.31048 0.0584306 0 -1.20169 1.28538 0 0 0 0)
(-1.27976 -0.0151773 0 -1.37211 1.25638 0 0 0 0)
(-1.16349 -0.137607 0 -1.49193 1.14138 0 0 0 0)
(-0.976334 -0.280889 0 -1.58321 0.957686 0 0 0 0)
(-0.742979 -0.423044 0 -1.72332 0.734528 0 0 0 0)
(-0.454751 -0.570726 0 -1.99808 0.461493 0 0 0 0)
(-0.0550053 -0.725576 0 -2.41847 0.0866466 0 0 0 0)
(0.507918 -0.841995 0 -2.91861 -0.411753 0 0 0 0)
(1.1866 -0.812988 0 -3.30994 -1.02933 0 0 0 0)
(1.84289 -0.55627 0 -3.39069 -1.6582 0 0 0 0)
(2.28322 -0.0850294 0 -3.03692 -2.11533 0 0 0 0)
(2.29494 0.484633 0 -2.23354 -2.17437 0 0 0 0)
(1.79707 0.907442 0 -1.17002 -1.69208 0 0 0 0)
(0.940924 0.959916 0 -0.274769 -0.86686 0 0 0 0)
(0.192876 0.426478 0 -0.0141322 -0.15296 0 0 0 0)
(-0.895489 1.64152 0 -0.133063 0.86012 0 0 0 0)
(-1.01286 0.596905 0 -0.278442 1.04604 0 0 0 0)
(-1.1559 0.352785 0 -0.330485 1.15159 0 0 0 0)
(-1.27056 0.224606 0 -0.365627 1.25476 0 0 0 0)
(-1.35046 0.147549 0 -0.402368 1.33621 0 0 0 0)
(-1.38361 0.0499955 0 -0.444757 1.37176 0 0 0 0)
(-1.34917 -0.10426 0 -0.500215 1.33981 0 0 0 0)
(-1.26116 -0.287587 0 -0.601708 1.25535 0 0 0 0)
(-1.17981 -0.454636 0 -0.842191 1.17904 0 0 0 0)
(-1.14065 -0.619687 0 -1.35738 1.15761 0 0 0 0)
(-1.08534 -0.848396 0 -2.24078 1.1443 0 0 0 0)
(-0.857855 -1.15236 0 -3.40609 0.975444 0 0 0 0)
(-0.27371 -1.43888 0 -4.58905 0.438166 0 0 0 0)
(0.704004 -1.54365 0 -5.52313 -0.529771 0 0 0 0)
(1.88697 -1.27436 0 -5.92943 -1.75636 0 0 0 0)
(2.96465 -0.519233 0 -5.69632 -2.86215 0 0 0 0)
(3.55024 0.625272 0 -4.71727 -3.46038 0 0 0 0)
(3.17782 1.65251 0 -2.9675 -3.10123 0 0 0 0)
(1.69253 1.87981 0 -0.736698 -1.66368 0 0 0 0)
(0.240358 1.0721 0 0.122954 -0.196919 0 0 0 0)
(-1.03722 2.65461 0 -0.0556109 0.977618 0 0 0 0)
(-1.07843 0.709546 0 -0.120317 1.10819 0 0 0 0)
(-1.17106 0.438658 0 -0.128427 1.17145 0 0 0 0)
(-1.27048 0.310453 0 -0.112499 1.25484 0 0 0 0)
(-1.35357 0.207104 0 -0.095257 1.33619 0 0 0 0)
(-1.40833 0.0620336 0 -0.0948437 1.393 0 0 0 0)
(-1.43671 -0.131584 0 -0.149086 1.42993 0 0 0 0)
(-1.50547 -0.29838 0 -0.342924 1.51177 0 0 0 0)
(-1.73201 -0.378631 0 -0.838098 1.74897 0 0 0 0)
(-2.14157 -0.457787 0 -1.79493 2.16414 0 0 0 0)
(-2.50345 -0.752891 0 -3.18558 2.52331 0 0 0 0)
(-2.40327 -1.43171 0 -4.63678 2.37185 0 0 0 0)
(-1.60913 -2.34721 0 -5.70732 1.46921 0 0 0 0)
(-0.153786 -3.00752 0 -6.34136 -0.0399371 0 0 0 0)
(1.6697 -2.88865 0 -6.84798 -1.85245 0 0 0 0)
(3.49538 -1.78905 0 -7.14848 -3.70159 0 0 0 0)
(5.02376 0.245554 0 -6.88513 -5.19478 0 0 0 0)
(5.77764 2.70414 0 -5.57881 -5.62271 0 0 0 0)
(4.03138 3.86423 0 -2.96377 -4.00194 0 0 0 0)
(0.80662 2.28708 0 -0.0410408 -0.824199 0 0 0 0)
(-1.07142 3.72733 0 0.00350601 1.01132 0 0 0 0)
(-1.08568 0.790734 0 0.0102421 1.11961 0 0 0 0)
(-1.14808 0.49944 0 0.0442363 1.15924 0 0 0 0)
(-1.23739 0.389354 0 0.0970506 1.23058 0 0 0 0)
(-1.3328 0.285707 0 0.148858 1.32186 0 0 0 0)
(-1.43743 0.143735 0 0.173139 1.42917 0 0 0 0)
(-1.59725 0.014504 0 0.115536 1.5988 0 0 0 0)
(-1.95017 0.0314471 0 -0.117611 1.95022 0 0 0 0)
(-2.63182 0.197741 0 -0.667725 2.59154 0 0 0 0)
(-3.48814 0.154658 0 -1.57001 3.36273 0 0 0 0)
(-3.9272 -0.64069 0 -2.5077 3.71563 0 0 0 0)
(-3.37959 -2.20646 0 -3.01798 3.18061 0 0 0 0)
(-1.97828 -3.85067 0 -3.05149 1.86554 0 0 0 0)
(-0.436665 -4.86531 0 -3.00294 0.210185 0 0 0 0)
(1.07985 -4.93601 0 -3.26377 -1.45226 0 0 0 0)
(2.9275 -3.86156 0 -4.12111 -3.3353 0 0 0 0)
(5.1199 -1.29585 0 -5.27227 -5.50571 0 0 0 0)
(7.09917 2.84535 0 -5.84577 -7.45514 0 0 0 0)
(7.2303 6.67832 0 -4.91694 -7.35357 0 0 0 0)
(3.24517 5.89824 0 -1.20455 -2.70182 0 0 0 0)
(-1.02347 4.78554 0 0.045192 0.971072 0 0 0 0)
(-1.0377 0.857462 0 0.113265 1.06993 0 0 0 0)
(-1.08425 0.549634 0 0.191792 1.09876 0 0 0 0)
(-1.16586 0.473072 0 0.286786 1.16311 0 0 0 0)
(-1.27748 0.405688 0 0.384707 1.26929 0 0 0 0)
(-1.44165 0.338974 0 0.459789 1.43815 0 0 0 0)
(-1.72746 0.389467 0 0.472386 1.7422 0 0 0 0)
(-2.28873 0.694358 0 0.381216 2.30025 0 0 0 0)
(-3.18441 1.03388 0 0.150828 3.13252 0 0 0 0)
(-3.98154 0.666307 0 -0.0380941 3.82766 0 0 0 0)
(-3.95142 -0.935007 0 0.157954 3.76004 0 0 0 0)
(-2.94707 -3.2818 0 0.876758 2.83286 0 0 0 0)
(-1.59409 -5.31764 0 1.78653 1.51019 0 0 0 0)
(-0.366062 -6.32531 0 2.49755 0.376526 0 0 0 0)
(0.551527 -6.43413 0 2.62318 -0.496518 0 0 0 0)
(1.48688 -5.8425 0 1.82084 -1.46083 0 0 0 0)
(3.2991 -3.87429 0 -0.116179 -3.31298 0 0 0 0)
(6.13297 0.856283 0 -2.54092 -6.44314 0 0 0 0)
(8.6726 8.61755 0 -3.96104 -9.26195 0 0 0 0)
(6.92811 12.3425 0 -2.77539 -6.49455 0 0 0 0)
(-0.91296 5.76833 0 0.0753314 0.87111 0 0 0 0)
(-0.939079 0.918418 0 0.193922 0.967856 0 0 0 0)
(-0.974558 0.592612 0 0.317055 0.990084 0 0 0 0)
(-1.04447 0.55989 0 0.45866 1.04419 0 0 0 0)
(-1.1598 0.560751 0 0.61462 1.15374 0 0 0 0)
(-1.34976 0.616641 0 0.774089 1.35306 0 0 0 0)
(-1.67582 0.876608 0 0.9345 1.70755 0 0 0 0)
(-2.27173 1.42177 0 1.12487 2.28353 0 0 0 0)
(-3.05113 1.72515 0 1.4316 2.99413 0 0 0 0)
(-3.48101 0.78217 0 2.04338 3.32128 0 0 0 0)
(-3.01234 -1.6355 0 3.02746 2.89389 0 0 0 0)
(-1.75101 -4.4563 0 4.22808 1.81984 0 0 0 0)
(-0.357494 -6.307 0 5.39881 0.657665 0 0 0 0)
(0.399985 -6.87203 0 6.23829 0.0152561 0 0 0 0)
(0.403149 -6.77337 0 6.52504 -0.10544 0 0 0 0)
(0.18814 -6.67802 0 6.28766 0.073082 0 0 0 0)
(0.758139 -6.27816 0 5.01599 -0.357338 0 0 0 0)
(3.25432 -3.10362 0 2.30027 -2.98931 0 0 0 0)
(6.99583 6.6269 0 -0.777349 -8.1463 0 0 0 0)
(9.9816 21.6547 0 -2.27717 -9.96375 0 0 0 0)
(-0.754218 6.62451 0 0.0964216 0.723863 0 0 0 0)
(-0.795975 0.976436 0 0.25501 0.820636 0 0 0 0)
(-0.819515 0.625966 0 0.417579 0.835365 0 0 0 0)
(-0.868291 0.636728 0 0.602697 0.871562 0 0 0 0)
(-0.962053 0.714558 0 0.817504 0.960946 0 0 0 0)
(-1.12177 0.892787 0 1.07139 1.13462 0 0 0 0)
(-1.37668 1.31994 0 1.39608 1.42295 0 0 0 0)
(-1.79163 1.98094 0 1.87257 1.82998 0 0 0 0)
(-2.2659 2.07163 0 2.64835 2.22988 0 0 0 0)
(-2.38568 0.566069 0 3.80411 2.21251 0 0 0 0)
(-1.76672 -2.43644 0 5.02194 1.73883 0 0 0 0)
(-0.575713 -5.51803 0 6.05327 0.826466 0 0 0 0)
(0.416131 -7.12222 0 6.6695 -0.0779359 0 0 0 0)
(0.760167 -7.08842 0 6.75718 -0.588878 0 0 0 0)
(0.600891 -6.3763 0 6.77127 -0.59516 0 0 0 0)
(-0.0221719 -6.0944 0 6.85122 -0.02249 0 0 0 0)
(-0.688281 -6.93668 0 6.76457 0.880929 0 0 0 0)
(0.339626 -6.93267 0 5.37658 0.378339 0 0 0 0)
(4.09516 1.64311 0 2.42164 -4.41485 0 0 0 0)
(9.98263 30.4525 0 -0.199435 -10.4607 0 0 0 0)
(-0.561528 7.31283 0 0.10815 0.542917 0 0 0 0)
(-0.617921 1.02992 0 0.294295 0.637635 0 0 0 0)
(-0.626871 0.643538 0 0.485549 0.642561 0 0 0 0)
(-0.644549 0.685471 0 0.702079 0.651596 0 0 0 0)
(-0.691109 0.823811 0 0.961106 0.696049 0 0 0 0)
(-0.771177 1.07864 0 1.28767 0.790778 0 0 0 0)
(-0.874633 1.57196 0 1.72519 0.928211 0 0 0 0)
(-1.01947 2.22871 0 2.36755 1.05995 0 0 0 0)
(-1.11959 2.10768 0 3.36014 1.0995 0 0 0 0)
(-1.10742 0.291119 0 4.66983 0.920795 0 0 0 0)
(-0.763183 -3.02154 0 5.89975 0.707835 0 0 0 0)
(-0.103445 -6.27307 0 6.60831 0.295543 0 0 0 0)
(0.346411 -7.72234 0 6.62933 -0.104139 0 0 0 0)
(0.50175 -7.38925 0 6.24843 -0.47066 0 0 0 0)
(0.497192 -6.20698 0 5.85559 -0.669644 0 0 0 0)
(0.181442 -5.20193 0 5.52651 -0.397681 0 0 0 0)
(-0.716497 -5.87733 0 5.58132 0.532033 0 0 0 0)
(-1.08861 -8.3994 0 5.46829 1.65916 0 0 0 0)
(1.41981 -4.21216 0 3.83223 -0.642783 0 0 0 0)
(7.7594 36.5303 0 1.18025 -8.55882 0 0 0 0)
(-0.351773 7.80506 0 0.109775 0.345179 0 0 0 0)
(-0.418576 1.07608 0 0.308786 0.432814 0 0 0 0)
(-0.411731 0.639926 0 0.514147 0.425452 0 0 0 0)
(-0.392734 0.690216 0 0.744762 0.400724 0 0 0 0)
(-0.376462 0.85374 0 1.02243 0.38456 0 0 0 0)
(-0.35769 1.12495 0 1.37575 0.375528 0 0 0 0)
(-0.296797 1.58911 0 1.84194 0.341714 0 0 0 0)
(-0.156675 2.15223 0 2.47999 0.201747 0 0 0 0)
(0.0363798 1.93247 0 3.42937 -0.075919 0 0 0 0)
(0.153923 0.174401 0 4.6042 -0.276707 0 0 0 0)
(0.171751 -3.0617 0 5.80166 -0.247807 0 0 0 0)
(0.153872 -6.33 0 6.47109 0.0845036 0 0 0 0)
(0.0562536 -7.88843 0 6.54808 0.306865 0 0 0 0)
(-0.0135763 -7.65392 0 6.15473 0.259103 0 0 0 0)
(-0.121024 -6.30332 0 5.50223 0.160346 0 0 0 0)
(-0.296438 -4.89272 0 4.6535 0.218803 0 0 0 0)
(-0.746508 -4.87984 0 4.08145 0.561846 0 0 0 0)
(-1.40947 -8.10749 0 3.98926 1.47646 0 0 0 0)
(-0.192874 -8.57487 0 3.46016 1.18516 0 0 0 0)
(4.97015 39.6541 0 1.4676 -5.51122 0 0 0 0)
(-0.142967 8.09082 0 0.103562 0.141896 0 0 0 0)
(-0.213549 1.11019 0 0.295622 0.222936 0 0 0 0)
(-0.190895 0.611448 0 0.499995 0.201074 0 0 0 0)
(-0.136268 0.644579 0 0.726933 0.14355 0 0 0 0)
(-0.0601173 0.798615 0 0.995884 0.068536 0 0 0 0)
(0.0483368 1.03579 0 1.3261 -0.033331 0 0 0 0)
(0.229603 1.39818 0 1.74173 -0.206086 0 0 0 0)
(0.567958 1.81107 0 2.26133 -0.541251 0 0 0 0)
(1.00462 1.62923 0 2.95555 -1.03157 0 0 0 0)
(1.26487 0.11923 0 3.80576 -1.30975 0 0 0 0)
(1.10371 -2.66033 0 4.77399 -1.2353 0 0 0 0)
(0.642979 -5.7184 0 5.49029 -0.481725 0 0 0 0)
(0.0300454 -7.54774 0 5.83229 0.35093 0 0 0 0)
(-0.5441 -7.53577 0 5.69995 0.888408 0 0 0 0)
(-1.00404 -6.24728 0 4.99063 1.13014 0 0 0 0)
(-1.23934 -4.80043 0 4.03856 1.23095 0 0 0 0)
(-1.38073 -4.61967 0 3.1702 1.32052 0 0 0 0)
(-1.70991 -7.77609 0 2.64428 1.60426 0 0 0 0)
(-1.10184 -11.1998 0 2.40686 1.67047 0 0 0 0)
(2.83163 40.8564 0 0.976482 -3.08831 0 0 0 0)
(0.0474112 8.16989 0 0.0797095 -0.0378758 0 0 0 0)
(-0.0221425 1.13526 0 0.253626 0.0236838 0 0 0 0)
(0.0195799 0.56054 0 0.443152 -0.0134372 0 0 0 0)
(0.103155 0.557678 0 0.651796 -0.0974873 0 0 0 0)
(0.222704 0.676859 0 0.89125 -0.215966 0 0 0 0)
(0.388158 0.850328 0 1.16798 -0.378832 0 0 0 0)
(0.63843 1.08119 0 1.4886 -0.626557 0 0 0 0)
(1.05714 1.32674 0 1.84473 -1.03747 0 0 0 0)
(1.58082 1.16397 0 2.21587 -1.62138 0 0 0 0)
(1.97236 -0.0293248 0 2.62957 -2.04578 0 0 0 0)
(1.85628 -2.23367 0 3.12869 -2.00601 0 0 0 0)
(1.21218 -4.74377 0 3.64814 -1.26589 0 0 0 0)
(0.265912 -6.51829 0 3.9719 -0.0819549 0 0 0 0)
(-0.855238 -6.87471 0 4.02294 1.00624 0 0 0 0)
(-1.78241 -5.96078 0 3.6322 1.73321 0 0 0 0)
(-2.11687 -4.70235 0 3.01792 2.00301 0 0 0 0)
(-2.14079 -4.50653 0 2.33757 2.06105 0 0 0 0)
(-2.17281 -7.75753 0 1.75745 2.195 0 0 0 0)
(-1.86068 -13.2674 0 1.45789 1.97509 0 0 0 0)
(1.5868 41.072 0 0.378195 -1.74676 0 0 0 0)
(0.190369 8.07663 0 0.0472306 -0.173819 0 0 0 0)
(0.149894 1.13463 0 0.186522 -0.147359 0 0 0 0)
(0.207274 0.490277 0 0.34806 -0.203172 0 0 0 0)
(0.31183 0.44205 0 0.529329 -0.309067 0 0 0 0)
(0.456071 0.51727 0 0.731281 -0.45325 0 0 0 0)
(0.645687 0.625203 0 0.949238 -0.6424 0 0 0 0)
(0.90635 0.739542 0 1.17406 -0.904168 0 0 0 0)
(1.29523 0.816248 0 1.37564 -1.28966 0 0 0 0)
(1.78946 0.620914 0 1.48717 -1.83101 0 0 0 0)
(2.17769 -0.265394 0 1.53855 -2.28149 0 0 0 0)
(2.12228 -1.88043 0 1.55529 -2.26386 0 0 0 0)
(1.48619 -3.79435 0 1.67519 -1.62522 0 0 0 0)
(0.404854 -5.27562 0 1.76579 -0.450041 0 0 0 0)
(-0.883806 -5.7206 0 1.83209 0.86256 0 0 0 0)
(-2.00906 -5.2505 0 1.84812 1.91534 0 0 0 0)
(-2.53396 -4.47259 0 1.7508 2.4044 0 0 0 0)
(-2.64121 -4.42769 0 1.45443 2.55106 0 0 0 0)
(-2.58959 -7.86205 0 1.07128 2.64533 0 0 0 0)
(-2.48109 -15.1416 0 0.783304 2.36604 0 0 0 0)
(0.995547 40.6281 0 0.0149744 -1.02427 0 0 0 0)
(0.281163 7.84871 0 0.00819228 -0.276327 0 0 0 0)
(0.278687 1.1059 0 0.0883077 -0.286677 0 0 0 0)
(0.362387 0.398832 0 0.214394 -0.365797 0 0 0 0)
(0.486375 0.3076 0 0.366274 -0.490237 0 0 0 0)
(0.642613 0.343526 0 0.534176 -0.646014 0 0 0 0)
(0.830933 0.39941 0 0.704921 -0.83508 0 0 0 0)
(1.06483 0.433933 0 0.859357 -1.07207 0 0 0 0)
(1.37026 0.399896 0 0.963169 -1.38115 0 0 0 0)
(1.74373 0.172146 0 0.944915 -1.77424 0 0 0 0)
(2.04048 -0.462176 0 0.78415 -2.11026 0 0 0 0)
(1.99292 -1.5774 0 0.539147 -2.07146 0 0 0 0)
(1.42268 -2.92995 0 0.3566 -1.5173 0 0 0 0)
(0.422806 -4.03051 0 0.280303 -0.458047 0 0 0 0)
(-0.77291 -4.50933 0 0.352743 0.781901 0 0 0 0)
(-1.8637 -4.41895 0 0.549743 1.8162 0 0 0 0)
(-2.51055 -4.06663 0 0.777236 2.44636 0 0 0 0)
(-2.82031 -4.2656 0 0.790858 2.7558 0 0 0 0)
(-2.84394 -7.94255 0 0.618749 2.88189 0 0 0 0)
(-2.91698 -16.937 0 0.491373 2.78851 0 0 0 0)
(0.788522 39.7302 0 -0.11178 -0.591968 0 0 0 0)
(0.286869 7.51363 0 -0.0693588 -0.210936 0 0 0 0)
(0.356096 1.04516 0 -0.0458226 -0.3316 0 0 0 0)
(0.485241 0.286717 0 0.0425985 -0.47374 0 0 0 0)
(0.631612 0.161833 0 0.165212 -0.629383 0 0 0 0)
(0.794718 0.172427 0 0.306516 -0.796479 0 0 0 0)
(0.970868 0.199146 0 0.447496 -0.976184 0 0 0 0)
(1.1646 0.193468 0 0.566891 -1.1732 0 0 0 0)
(1.38079 0.114083 0 0.632703 -1.39385 0 0 0 0)
(1.61044 -0.108193 0 0.591965 -1.63016 0 0 0 0)
(1.77193 -0.562617 0 0.399163 -1.80248 0 0 0 0)
(1.69473 -1.28748 0 0.098065 -1.7238 0 0 0 0)
(1.22735 -2.18093 0 -0.173957 -1.24372 0 0 0 0)
(0.400997 -2.97641 0 -0.289319 -0.378946 0 0 0 0)
(-0.614366 -3.44635 0 -0.216369 0.648868 0 0 0 0)
(-1.58457 -3.58604 0 0.0286708 1.58594 0 0 0 0)
(-2.29285 -3.53299 0 0.356455 2.27894 0 0 0 0)
(-2.7997 -3.99217 0 0.486812 2.72505 0 0 0 0)
(-2.88907 -7.82934 0 0.583971 2.8243 0 0 0 0)
(-3.21162 -18.6155 0 0.744154 3.19117 0 0 0 0)
(0.615955 38.4315 0 0.0126265 -0.446412 0 0 0 0)
(0.165982 7.30618 0 -0.176398 -0.447879 0 0 0 0)
(0.390644 0.843101 0 -0.31177 -0.627362 0 0 0 0)
(0.573422 0.101048 0 -0.23128 -0.723256 0 0 0 0)
(0.750293 -0.0151387 0 -0.0998224 -0.835684 0 0 0 0)
(0.924897 -0.00327444 0 0.0457586 -0.962364 0 0 0 0)
(1.09131 0.0226854 0 0.186756 -1.10539 0 0 0 0)
(1.25004 0.0162668 0 0.306159 -1.25262 0 0 0 0)
(1.39534 -0.0570633 0 0.380521 -1.39292 0 0 0 0)
(1.51019 -0.236488 0 0.378266 -1.50822 0 0 0 0)
(1.54658 -0.555819 0 0.266981 -1.54617 0 0 0 0)
(1.4198 -1.01864 0 0.0643232 -1.41614 0 0 0 0)
(1.03529 -1.58509 0 -0.135935 -1.02273 0 0 0 0)
(0.380395 -2.13792 0 -0.202147 -0.355779 0 0 0 0)
(-0.45492 -2.54445 0 -0.111101 0.483049 0 0 0 0)
(-1.29087 -2.78888 0 0.111238 1.31682 0 0 0 0)
(-2.05241 -2.92752 0 0.427118 2.0036 0 0 0 0)
(-2.59279 -3.72024 0 0.516077 2.52106 0 0 0 0)
(-2.58659 -7.47643 0 1.22035 2.39544 0 0 0 0)
(-3.48832 -20.2077 0 1.29566 3.2479 0 0 0 0)
(0.0317415 36.9854 0 0.42793 -0.812923 0 0 0 0)
(-0.2013 6.43839 0 -0.34913 1.17143 0 0 0 0)
(0.301214 0.769785 0 -0.530985 0.544108 0 0 0 0)
(0.697189 0.078395 0 -0.381661 -0.0309479 0 0 0 0)
(0.90865 -0.0772747 0 -0.230679 -0.490263 0 0 0 0)
(1.0813 -0.097279 0 -0.0851659 -0.806282 0 0 0 0)
(1.23127 -0.0911063 0 0.0738829 -1.03523 0 0 0 0)
(1.35836 -0.0940654 0 0.228318 -1.20706 0 0 0 0)
(1.45289 -0.141526 0 0.355625 -1.33057 0 0 0 0)
(1.4969 -0.261439 0 0.436871 -1.39792 0 0 0 0)
(1.45798 -0.470529 0 0.461182 -1.37723 0 0 0 0)
(1.29181 -0.764037 0 0.438418 -1.22313 0 0 0 0)
(0.960876 -1.12057 0 0.415252 -0.889864 0 0 0 0)
(0.425831 -1.47063 0 0.452804 -0.339559 0 0 0 0)
(-0.300981 -1.77376 0 0.61238 0.363758 0 0 0 0)
(-1.04635 -2.06548 0 0.869861 1.14519 0 0 0 0)
(-1.88801 -2.32874 0 1.2392 1.82409 0 0 0 0)
(-2.00647 -3.60033 0 1.26163 2.27322 0 0 0 0)
(-2.10949 -7.10251 0 2.88443 1.99313 0 0 0 0)
(-4.00404 -21.8238 0 1.15289 3.44888 0 0 0 0)
(-1.10763 35.9965 0 1.66729 -0.745552 0 0 0 0)
(-0.714133 9.02172 0 -0.534499 -1.31585 0 0 0 0)
(0.358113 -0.359282 0 -0.87683 -2.59818 0 0 0 0)
(0.873728 -0.933322 0 -0.205504 -2.5668 0 0 0 0)
(1.04679 -0.790473 0 0.460545 -2.18169 0 0 0 0)
(1.22946 -0.548245 0 1.04654 -2.03113 0 0 0 0)
(1.40479 -0.378092 0 1.55941 -1.99829 0 0 0 0)
(1.53178 -0.279068 0 1.97319 -1.98752 0 0 0 0)
(1.60389 -0.247919 0 2.29908 -1.96133 0 0 0 0)
(1.61575 -0.283147 0 2.55549 -1.90036 0 0 0 0)
(1.54812 -0.381034 0 2.76522 -1.77706 0 0 0 0)
(1.37387 -0.531281 0 2.95532 -1.55533 0 0 0 0)
(1.04968 -0.70152 0 3.1686 -1.20627 0 0 0 0)
(0.577523 -0.884297 0 3.4452 -0.705491 0 0 0 0)
(-0.0378629 -1.0597 0 3.88195 -0.0970079 0 0 0 0)
(-0.664052 -1.32854 0 4.45164 0.609002 0 0 0 0)
(-1.66064 -1.79949 0 5.28623 1.29506 0 0 0 0)
(-0.947561 -3.55121 0 5.48119 1.97304 0 0 0 0)
(-2.69534 -6.30077 0 7.36033 2.61176 0 0 0 0)
(-4.70547 -22.9464 0 1.0504 5.27022 0 0 0 0)
(-2.78843 34.2821 0 7.917 3.99691 0 0 0 0)
(-1.61263 2.52436 0 4.39373 4.8375 0 0 0 0)
(0.630209 -0.481171 0 6.51091 2.41931 0 0 0 0)
(2.03456 0.494881 0 8.66744 0.287085 0 0 0 0)
(2.16069 0.458398 0 10.392 -0.716057 0 0 0 0)
(2.18016 0.086121 0 11.5574 -1.15904 0 0 0 0)
(2.15792 -0.0474907 0 12.3654 -1.3874 0 0 0 0)
(2.09803 -0.0571022 0 12.9777 -1.52864 0 0 0 0)
(2.03519 -0.0543692 0 13.4598 -1.61689 0 0 0 0)
(1.96304 -0.0771633 0 13.8444 -1.65126 0 0 0 0)
(1.85781 -0.125504 0 14.1696 -1.61574 0 0 0 0)
(1.69519 -0.193255 0 14.4794 -1.49477 0 0 0 0)
(1.45076 -0.270733 0 14.8237 -1.27344 0 0 0 0)
(1.13918 -0.361366 0 15.2681 -0.960408 0 0 0 0)
(0.705459 -0.459267 0 15.8638 -0.547952 0 0 0 0)
(0.357931 -0.673412 0 16.5845 -0.067897 0 0 0 0)
(-0.858456 -0.964705 0 17.5916 0.566134 0 0 0 0)
(0.0676341 -2.28363 0 18.0873 1.46405 0 0 0 0)
(-6.54028 -3.80533 0 19.932 3.46097 0 0 0 0)
(-3.44737 -20.4387 0 10.2139 7.91646 0 0 0 0)
(-10.075 26.7294 0 37.3009 16.9119 0 0 0 0)
(10.1905 16.2785 0 196.587 -10.8655 0 0 0 0)
(4.63182 -4.9097 0 194.835 -7.93741 0 0 0 0)
(4.75485 -4.06869 0 191.325 -5.47462 0 0 0 0)
(3.93671 -2.2366 0 188.046 -4.3636 0 0 0 0)
(3.2028 -1.21958 0 185.228 -3.69641 0 0 0 0)
(2.82517 -0.747686 0 182.663 -3.23014 0 0 0 0)
(2.62618 -0.508561 0 180.245 -2.90124 0 0 0 0)
(2.47058 -0.370544 0 177.938 -2.66447 0 0 0 0)
(2.32554 -0.282003 0 175.739 -2.47632 0 0 0 0)
(2.18307 -0.224538 0 173.65 -2.30531 0 0 0 0)
(2.028 -0.188978 0 171.698 -2.12628 0 0 0 0)
(1.83844 -0.167162 0 169.927 -1.92307 0 0 0 0)
(1.61764 -0.158807 0 168.409 -1.68839 0 0 0 0)
(1.27852 -0.167189 0 167.17 -1.4029 0 0 0 0)
(1.06376 -0.214458 0 166.425 -1.06193 0 0 0 0)
(-0.15787 -0.267543 0 165.748 -0.51503 0 0 0 0)
(1.39277 -0.656372 0 167.441 0.170318 0 0 0 0)
(-10.5687 0.151632 0 164.288 2.42497 0 0 0 0)
(12.6634 -9.49546 0 184.55 3.82401 0 0 0 0)
(-50.3033 9.45371 0 155.072 32.3591 0 0 0 0)
)
;

boundaryField
{
    movingWall
    {
        type            extrapolatedCalculated;
        value           nonuniform List<tensor> 
20
(
(10.1905 16.2785 0 383.784 -37.1745 0 0 0 0)
(4.63182 -4.9097 0 375.454 -27.9397 0 0 0 0)
(4.75485 -4.06869 0 365.257 -17.5357 0 0 0 0)
(3.93671 -2.2366 0 356.434 -11.6649 0 0 0 0)
(3.2028 -1.21958 0 349.51 -8.58927 0 0 0 0)
(2.82517 -0.747686 0 343.623 -6.78657 0 0 0 0)
(2.62618 -0.508561 0 338.209 -5.59853 0 0 0 0)
(2.47058 -0.370544 0 333.118 -4.75232 0 0 0 0)
(2.32554 -0.282003 0 328.327 -4.11635 0 0 0 0)
(2.18307 -0.224538 0 323.816 -3.62431 0 0 0 0)
(2.028 -0.188978 0 319.595 -3.2182 0 0 0 0)
(1.83844 -0.167162 0 315.704 -2.8684 0 0 0 0)
(1.61764 -0.158807 0 312.241 -2.54955 0 0 0 0)
(1.27852 -0.167189 0 309.234 -2.23317 0 0 0 0)
(1.06376 -0.214458 0 307.127 -1.88079 0 0 0 0)
(-0.15787 -0.267543 0 304.979 -1.37534 0 0 0 0)
(1.39277 -0.656372 0 307.759 -0.810622 0 0 0 0)
(-10.5687 0.151632 0 299.408 1.25015 0 0 0 0)
(12.6634 -9.49546 0 350.033 -1.41715 0 0 0 0)
(-50.3033 9.45371 0 248.754 39.232 0 0 0 0)
)
;
    }
    fixedWalls
    {
        type            extrapolatedCalculated;
        value           nonuniform List<tensor> 
60
(
(-0.132849 0.125381 0 -0.159235 0.273414 0 0 0 0)
(-0.504091 0.968276 0 -0.180646 0.60072 0 0 0 0)
(-0.855435 2.52826 0 -0.133063 0.86012 0 0 0 0)
(-1.03634 4.40875 0 -0.0556109 0.977618 0 0 0 0)
(-1.07788 6.43873 0 0.00350601 1.01132 0 0 0 0)
(-1.02232 8.45405 0 0.045192 0.971072 0 0 0 0)
(-0.89711 10.323 0 0.0753314 0.87111 0 0 0 0)
(-0.720993 11.9385 0 0.0964216 0.723863 0 0 0 0)
(-0.511424 13.2185 0 0.10815 0.542917 0 0 0 0)
(-0.288392 14.1102 0 0.109775 0.345179 0 0 0 0)
(-0.0723231 14.5992 0 0.103562 0.141896 0 0 0 0)
(0.125855 14.6777 0 0.0797095 -0.0378758 0 0 0 0)
(0.246515 14.4477 0 0.0472306 -0.173819 0 0 0 0)
(0.314777 13.9825 0 0.00819228 -0.276327 0 0 0 0)
(0.279284 13.3424 0 -0.0693588 -0.210936 0 0 0 0)
(0.037342 13.1387 0 -0.176398 -0.447879 0 0 0 0)
(-0.426309 11.5509 0 -0.34913 1.17143 0 0 0 0)
(-1.35918 17.8245 0 -0.534499 -1.31585 0 0 0 0)
(-2.5643 6.28747 0 4.39373 4.8375 0 0 0 0)
(16.2157 37.1745 0 196.587 -10.8655 0 0 0 0)
(-0.271445 -0.189176 0 0.0856825 0.0532124 0 0 0 0)
(-0.0712848 -0.0236741 0 -0.0141322 -0.15296 0 0 0 0)
(-0.214917 0.422666 0 0.122954 -0.196919 0 0 0 0)
(-0.563102 0.764001 0 -0.0410408 -0.824199 0 0 0 0)
(-0.0507535 3.71946 0 -1.20455 -2.70182 0 0 0 0)
(4.25509 11.5713 0 -2.77539 -6.49455 0 0 0 0)
(11.0508 29.6977 0 -2.27717 -9.96375 0 0 0 0)
(13.3638 51.4263 0 -0.199435 -10.4607 0 0 0 0)
(11.8486 71.5406 0 1.18025 -8.55882 0 0 0 0)
(8.64274 85.6616 0 1.4676 -5.51122 0 0 0 0)
(5.97814 93.5855 0 0.976482 -3.08831 0 0 0 0)
(4.73681 98.0148 0 0.378195 -1.74676 0 0 0 0)
(4.46536 100.573 0 0.0149744 -1.02427 0 0 0 0)
(4.67692 102.112 0 -0.11178 -0.591968 0 0 0 0)
(4.91248 102.94 0 0.0126265 -0.446412 0 0 0 0)
(4.62641 103.898 0 0.42793 -0.812923 0 0 0 0)
(3.20076 106.192 0 1.66729 -0.745552 0 0 0 0)
(-2.04275 106.88 0 7.917 3.99691 0 0 0 0)
(-28.4672 90.2044 0 37.3009 16.9119 0 0 0 0)
(-151.246 39.232 0 155.072 32.3591 0 0 0 0)
(-0.268179 0.145697 0 -0.132849 0.125381 0 0 0 0)
(-0.569821 0.138099 0 -0.939868 0.457406 0 0 0 0)
(-0.796009 0.0781406 0 -2.41213 0.677778 0 0 0 0)
(-0.890467 0.0369296 0 -4.12391 0.769968 0 0 0 0)
(-0.955324 0.0319212 0 -5.974 0.825497 0 0 0 0)
(-1.01528 0.040813 0 -7.9452 0.897653 0 0 0 0)
(-1.05892 0.0397321 0 -10.0351 0.988749 0 0 0 0)
(-1.05006 0.0111115 0 -12.1809 1.05658 0 0 0 0)
(-0.948428 -0.0477798 0 -14.2353 1.03319 0 0 0 0)
(-0.72579 -0.123494 0 -15.9746 0.865462 0 0 0 0)
(-0.390187 -0.200514 0 -17.1385 0.539219 0 0 0 0)
(0.0626807 -0.279114 0 -17.5353 0.0634044 0 0 0 0)
(0.617756 -0.322908 0 -16.8878 -0.577236 0 0 0 0)
(1.17608 -0.297202 0 -15.0643 -1.22823 0 0 0 0)
(1.61396 -0.188354 0 -12.1834 -1.76604 0 0 0 0)
(1.80749 -0.00306811 0 -8.60848 -1.98165 0 0 0 0)
(1.68334 0.202024 0 -4.95346 -1.77832 0 0 0 0)
(1.21905 0.345001 0 -1.87512 -1.17355 0 0 0 0)
(0.53664 0.340681 0 -0.0772729 -0.398311 0 0 0 0)
(-0.0485431 0.0522838 0 0.271445 0.189176 0 0 0 0)
)
;
    }
    frontAndBack
    {
        type            empty;
    }
}


// ************************************************************************* //
