/*--------------------------------*- C++ -*----------------------------------*\
| =========                 |                                                 |
| \\      /  F ield         | OpenFOAM: The Open Source CFD Toolbox           |
|  \\    /   O peration     | Version:  2312                                  |
|   \\  /    A nd           | Website:  www.openfoam.com                      |
|    \\/     M anipulation  |                                                 |
\*---------------------------------------------------------------------------*/
FoamFile
{
    version     2.0;
    format      ascii;
    arch        "LSB;label=32;scalar=64";
    class       volScalarField;
    location    "1.75";
    object      Lambda2Field;
}
// * * * * * * * * * * * * * * * * * * * * * * * * * * * * * * * * * * * * * //

dimensions      [0 0 -2 0 0 0 0];

internalField   nonuniform List<scalar> 
400
(
0.0487202
0.219648
0.506958
0.670769
0.793266
0.77683
0.880893
0.954969
1.29286
1.56908
2.09781
2.58493
3.51253
3.95951
3.97943
3.10596
2.17074
1.00286
0.20962
0.00667357
0.256042
0.589432
1.0312
1.26544
1.53308
1.57896
1.65795
1.50233
1.39716
1.2638
1.34701
1.71026
2.68343
3.55664
5.19098
4.64931
4.17586
1.8009
0.619006
0.0135312
0.582496
0.859281
1.21951
1.49227
1.76428
1.85931
1.87185
1.7485
1.77484
2.13603
3.06586
4.47986
6.58667
8.28898
11.0725
11.0116
9.64945
4.70858
1.47964
0.152455
0.924711
1.07648
1.31505
1.53964
1.7885
1.93457
2.06436
2.36854
3.31624
5.40176
8.6647
12.2179
15.8594
18.1787
22.402
24.5656
23.5252
16.5013
4.79931
0.54671
1.15725
1.18441
1.34006
1.55196
1.79429
2.06733
2.55287
3.79948
6.76791
11.0561
16.1569
16.5937
15.1146
13.8337
16.3635
23.6924
32.8508
33.7105
19.4401
0
1.26086
1.17051
1.28057
1.48832
1.76679
2.22394
3.16735
5.50227
10.1568
14.6237
14.2841
5.12029
0
-15.6395
0
-8.40092
11.334
35.4201
41.042
7.26058
1.26617
1.05564
1.13667
1.34713
1.6756
2.29862
3.6204
6.75616
11.4327
12.5841
4.12138
-15.5295
0
-42.6357
0
-41.9156
0
1.78995
43.4306
49.8946
1.20661
0.877452
0.931235
1.13703
1.50907
2.21017
3.71272
6.88743
10.4876
6.89745
0
-32.7067
0
-47.3164
0
-41.7367
0
-36.5861
20.6092
89.7382
1.10583
0.679316
0.702719
0.894575
1.26791
1.97117
3.42603
6.25587
8.32711
1.89648
0
-41.3553
0
-45.9113
0
-28.5812
0
-42.8153
0
93.4218
0.980499
0.501973
0.495201
0.664905
1.01116
1.65889
2.95724
5.26542
6.60924
0.558552
0
-40.9279
0
-46.8871
0
-22.6783
0
-30.0912
0
74.2538
0.858337
0.36894
0.339033
0.483057
0.795059
1.35756
2.45945
4.34683
5.81693
2.0061
0
-30.9804
0
-42.01
0
-17.8504
0
-17.4908
0
43.251
0.653371
0.287386
0.246926
0.37009
0.650324
1.13019
2.01009
3.50704
5.06695
3.7849
0
-15.6972
0
-26.5275
0
-9.69136
0
-8.78154
0
14.9919
0.417424
0.232009
0.212887
0.328778
0.585934
1.00492
1.68963
2.78385
4.11999
4.32478
1.5793
-3.66951
0
-9.67279
0
-1.36426
0.534028
-1.33161
0
1.04416
0.143328
0.172307
0.216733
0.348822
0.596292
0.971312
1.50642
2.26105
3.20213
3.80069
3.12011
0.933438
0
-0.966308
1.04268
2.79213
4.57858
3.10579
0.171519
-0.0590129
0
0.055631
0.2469
0.422813
0.684404
1.03142
1.46577
1.9781
2.52935
2.91509
2.74533
1.87805
1.02121
1.07808
2.40804
3.92727
5.89117
3.29073
0
0
0
0
0.305014
0.564273
0.855276
1.19512
1.56757
1.9185
2.19122
2.24225
1.95029
1.25752
0.575971
0.463224
1.35557
2.74674
4.79944
-2.14516
0
1.54107
0
-0.0713849
0.00150256
0.251176
0.657203
1.06497
1.46121
1.71958
1.96141
1.67975
1.33315
0.321926
0
-0.932757
0
0.436531
0
-15.9331
0
26.0073
0
0.16548
0.803079
0.722175
0.92558
1.32473
1.74472
1.90455
1.85278
1.25531
0.303908
-0.682625
0
-3.91792
0
-6.45955
0
-39.1065
0
257.461
8.9767
0
2.37707
0
4.59509
0
3.32858
0
2.68813
0
0.0369511
-0.837457
0
-5.66959
0
-14.0029
0
-19.2542
0
953.259
3303.36
-599.759
0
-363.614
0
-90.5112
0
-42.1103
0
-23.348
0
-17.6806
0
-15.7601
0
0
0
0
0
1602.79
)
;

boundaryField
{
    movingWall
    {
        type            calculated;
        value           nonuniform List<scalar> 
20
(
5538.74
0
0
0
0
0
0
0
0
0
0
0
0
0
0
0
0
0
0
2873.59
)
;
    }
    fixedWalls
    {
        type            calculated;
        value           nonuniform List<scalar> 
60
(
0
0.0670161
0.395333
0.628861
1.1799
1.15243
1.58176
1.65563
1.69011
1.24595
1.51217
0.529379
0.737785
0
0
0
0
0
28.0321
6869
0.00316122
0.00448261
0
0
0
0
53.5435
51.7473
212.726
40.0409
118.344
0
9.56433
0
5.44689
0
180.871
743.92
3520.87
2154.04
0.0157388
0.0639194
0.431448
0.274811
0.705046
0.115728
0.717718
0.933858
1.57242
1.48096
3.56554
3.77526
5.83305
5.51762
4.87541
2.80414
1.82563
0.720125
0.172284
0.00502265
)
;
    }
    frontAndBack
    {
        type            empty;
    }
}


// ************************************************************************* //
