/*--------------------------------*- C++ -*----------------------------------*\
| =========                 |                                                 |
| \\      /  F ield         | OpenFOAM: The Open Source CFD Toolbox           |
|  \\    /   O peration     | Version:  2312                                  |
|   \\  /    A nd           | Website:  www.openfoam.com                      |
|    \\/     M anipulation  |                                                 |
\*---------------------------------------------------------------------------*/
FoamFile
{
    version     2.0;
    format      ascii;
    arch        "LSB;label=32;scalar=64";
    class       volVectorField;
    location    "1.75";
    object      LambVectorField;
}
// * * * * * * * * * * * * * * * * * * * * * * * * * * * * * * * * * * * * * //

dimensions      [0 1 -2 0 0 0 0];

internalField   nonuniform List<vector> 
400
(
(-9.55814e-05 -0.000101275 -3.36357e-08)
(-0.000998012 -0.00205069 0)
(-0.00286057 -0.0101804 -6.13914e-05)
(-0.00510388 -0.0273361 0)
(-0.00769992 -0.0557232 -0.000832226)
(-0.0109629 -0.0970332 0)
(-0.014991 -0.152148 -0.00381704)
(-0.0190029 -0.219076 0)
(-0.0211564 -0.291492 -0.0103737)
(-0.0194388 -0.358799 0)
(-0.0128155 -0.407326 -0.0174524)
(-0.00153337 -0.424073 0)
(0.0135313 -0.395875 -0.0167136)
(0.0261914 -0.321239 -0)
(0.0315614 -0.217733 -0.00663184)
(0.0265892 -0.115506 -0)
(0.0153298 -0.0427008 -0.000528792)
(0.0050958 -0.00814214 -0)
(0.000568287 -0.000110248 -2.1298e-08)
(1.57956e-05 -2.26648e-05 0)
(-0.00224905 -0.00117087 -1.47557e-06)
(-0.00437889 -0.00432104 0)
(-0.00563519 -0.00859628 -8.65671e-05)
(-0.00686531 -0.0147649 0)
(-0.00859767 -0.024127 -0.00053215)
(-0.0104139 -0.0360142 0)
(-0.011458 -0.0477112 -0.00167758)
(-0.010987 -0.0560388 0)
(-0.00920482 -0.0609436 -0.00285191)
(-0.00689614 -0.0664973 0)
(-0.00405019 -0.0773992 -0.00419703)
(0.00068335 -0.0942749 -0)
(0.00917493 -0.113748 -0.00623067)
(0.0220321 -0.126369 -0)
(0.0355666 -0.121625 -0.0052189)
(0.0424668 -0.0949932 -0)
(0.0364191 -0.0545746 -0.00109573)
(0.019819 -0.0191771 -0)
(0.00533873 -0.00260145 -5.48117e-06)
(-2.60775e-05 7.8522e-05 0)
(-0.0112165 -0.0037951 -8.11616e-06)
(-0.00883624 -0.00596663 0)
(-0.00839718 -0.00838182 -0.000102822)
(-0.00804039 -0.0108457 0)
(-0.00799346 -0.013733 -0.000342951)
(-0.00746972 -0.0157726 0)
(-0.00595346 -0.0153665 -0.000596358)
(-0.00441507 -0.0142522 0)
(-0.00471261 -0.0199283 -0.00102472)
(-0.00701471 -0.0421738 0)
(-0.00830275 -0.0874793 -0.00549606)
(-0.00231002 -0.153305 0)
(0.0175169 -0.224939 -0.0160619)
(0.0531812 -0.281588 -0)
(0.0977432 -0.299626 -0.0192856)
(0.135161 -0.268641 -0)
(0.139918 -0.185488 -0.00643997)
(0.091729 -0.0757128 -0)
(0.0252869 -0.0076948 -2.26294e-05)
(0.00100293 0.00050997 0)
(-0.0298717 -0.00702179 -1.81925e-05)
(-0.012883 -0.00645744 0)
(-0.0102741 -0.00758485 -0.000101448)
(-0.00842131 -0.00824416 0)
(-0.00641666 -0.00788554 -0.000205654)
(-0.00344845 -0.00518129 0)
(-0.000382278 -0.000702929 -2.82319e-05)
(-0.000920559 -0.00211118 0)
(-0.00866481 -0.0253708 -0.00140092)
(-0.0225705 -0.086533 0)
(-0.0347402 -0.186426 -0.0142865)
(-0.0299699 -0.287653 0)
(0.000122791 -0.33825 -0.0340503)
(0.0470782 -0.352856 -0)
(0.119222 -0.40466 -0.041358)
(0.230497 -0.477759 -0)
(0.342288 -0.479541 -0.0322493)
(0.335893 -0.322257 -0)
(0.14312 -0.0646882 -0.000612853)
(0.00444671 0.00327742 0)
(-0.0599417 -0.0100346 -2.70401e-05)
(-0.016528 -0.00625913 0)
(-0.0109268 -0.00616869 -8.35949e-05)
(-0.00764983 -0.0057 0)
(-0.0038178 -0.00354788 -9.19802e-05)
(0.000853554 0.000965302 0)
(0.00296379 0.00407158 0.000164083)
(-0.00434846 -0.00727415 0)
(-0.0256607 -0.0517561 -0.00309509)
(-0.0537241 -0.129555 0)
(-0.0582434 -0.176774 -0.0167374)
(-0.0200797 -0.0928298 0)
(0.00729766 0.102677 0.0131918)
(-0.0256323 0.249882 -0)
(-0.0660898 0.22215 0.0295115)
(0.0163838 -0.0320223 -0)
(0.310707 -0.41184 -0.0426544)
(0.661236 -0.627292 -0)
(0.576096 -0.377758 -0.0123068)
(0.0660463 0.000901228 0)
(-0.100188 -0.0121154 -3.09644e-05)
(-0.0198851 -0.00571463 0)
(-0.0106314 -0.00462789 -5.98515e-05)
(-0.0060015 -0.00345028 0)
(-0.000722593 -0.000515949 -1.26879e-05)
(0.00438239 0.00378107 0)
(0.00313682 0.00323447 0.00012617)
(-0.0125784 -0.0152096 0)
(-0.0395377 -0.0546568 -0.00338299)
(-0.0355772 -0.0566444 0)
(0.0562185 0.111166 0.0113067)
(0.171153 0.498732 0)
(0.132272 0.931934 0.122252)
(-0.106046 1.19876 -0)
(-0.404267 1.2213 0.164683)
(-0.585179 0.998954 -0)
(-0.387309 0.450873 0.0540926)
(0.391031 -0.330764 -0)
(1.18863 -0.737651 -0.0432584)
(0.437332 -0.160819 -0)
(-0.146922 -0.0127681 -2.8636e-05)
(-0.0230939 -0.00498948 0)
(-0.00964223 -0.00320571 -3.72939e-05)
(-0.00382667 -0.00168369 0)
(0.00218659 0.00118934 2.62587e-05)
(0.00683474 0.00444483 0)
(0.00270687 0.00205957 7.3271e-05)
(-0.015491 -0.0133572 0)
(-0.017899 -0.0171119 -0.000997504)
(0.0875621 0.0952213 0)
(0.320795 0.434137 0.0404195)
(0.460898 0.917273 0)
(0.283672 1.29482 0.143224)
(-0.131077 1.43162 -0)
(-0.591604 1.41779 0.151156)
(-1.00784 1.36356 -0)
(-1.25667 1.18286 0.123884)
(-0.759319 0.527341 -0)
(1.05365 -0.534505 -0.0385854)
(1.77681 -0.661168 -0)
(-0.194839 -0.0117668 -2.12093e-05)
(-0.0262591 -0.00414077 0)
(-0.00825432 -0.00203432 -1.98595e-05)
(-0.00145172 -0.000474221 0)
(0.00473323 0.00189885 3.50245e-05)
(0.00889499 0.00420698 0)
(0.0041808 0.00225868 6.69989e-05)
(-0.00682725 -0.00404435 0)
(0.0430893 0.0274396 0.00130555)
(0.271088 0.194222 0)
(0.599473 0.532797 0.0380609)
(0.686818 0.898493 0)
(0.34749 1.06463 0.0821818)
(-0.164304 1.01747 -0)
(-0.600695 0.914958 0.0636733)
(-0.979077 0.873547 -0)
(-1.461 0.956528 0.0667782)
(-1.7848 0.915329 -0)
(-0.13699 0.0517077 0.00343426)
(3.94079 -1.02406 -0)
(-0.238087 -0.00921161 -1.17776e-05)
(-0.0294855 -0.00319021 0)
(-0.00684811 -0.00117825 -8.7871e-06)
(0.000772584 0.00017614 0)
(0.0068922 0.00190884 2.65391e-05)
(0.0114456 0.00366148 0)
(0.00934469 0.00331198 7.15885e-05)
(0.00978512 0.00364646 0)
(0.104297 0.0398404 0.00126731)
(0.40088 0.164021 0)
(0.768879 0.38258 0.0164065)
(0.790101 0.580829 0)
(0.336605 0.630302 0.0276818)
(-0.216658 0.567688 -0)
(-0.608417 0.469244 0.018254)
(-0.836352 0.393246 -0)
(-1.17403 0.424961 0.0157603)
(-1.89613 0.607675 -0)
(-1.49989 0.38591 0.0185131)
(6.32241 -1.04712 -0)
(-0.271454 -0.00554814 -4.00009e-06)
(-0.0328212 -0.00214593 0)
(-0.00579039 -0.000617165 -3.02827e-06)
(0.0026823 0.000377138 0)
(0.00893011 0.00149021 1.31646e-05)
(0.0144744 0.00267825 0)
(0.0162287 0.00313788 3.89442e-05)
(0.0241243 0.00447287 0)
(0.128299 0.0209232 0.000292458)
(0.411651 0.0588404 0)
(0.775137 0.110247 0.0013713)
(0.797646 0.148049 0)
(0.348701 0.157355 0.00171513)
(-0.228858 0.151934 -0)
(-0.618436 0.130281 0.00143772)
(-0.759944 0.116588 -0)
(-0.90789 0.125457 0.00175639)
(-1.55329 0.238041 -0)
(-2.19504 0.33812 0.00949934)
(8.17779 -0.82509 -0)
(-0.291519 -0.00144416 -2.61115e-07)
(-0.0361753 -0.00101728 0)
(-0.00530516 -0.000258159 -5.97972e-07)
(0.00416095 0.000260061 0)
(0.0106615 0.000725747 2.67001e-06)
(0.016986 0.00109125 0)
(0.0221259 0.00109785 3.50831e-06)
(0.0326399 0.000658696 0)
(0.109441 -0.00329455 8.18356e-06)
(0.327309 -0.0316425 0)
(0.622302 -0.112501 0.00170245)
(0.696976 -0.219919 0)
(0.354875 -0.288507 0.00622093)
(-0.175979 -0.263667 0)
(-0.548803 -0.181172 0.00292076)
(-0.669717 -0.087333 0)
(-0.754366 -0.0290415 0.00010827)
(-1.27092 0.0409199 -0)
(-2.37573 0.181935 0.00243264)
(9.33045 -0.596019 -0)
(-0.296864 0.00254547 -8.00899e-07)
(-0.0396775 0.000140598 0)
(-0.00564014 1.0942e-05 -1.01993e-09)
(0.00476333 -3.34378e-05 0)
(0.0114964 -0.000241138 2.71222e-07)
(0.0182266 -0.000820287 0)
(0.0253111 -0.00203962 1.02111e-05)
(0.035322 -0.00464462 0)
(0.0793072 -0.0163862 0.000255261)
(0.21226 -0.0658735 0)
(0.402719 -0.189299 0.0066825)
(0.48248 -0.363685 0)
(0.290195 -0.497478 0.023592)
(-0.0837967 -0.501256 0)
(-0.394115 -0.372887 0.0144944)
(-0.519553 -0.2175 0)
(-0.603015 -0.121155 0.0021447)
(-1.06913 -0.0643662 0)
(-2.43973 0.0592838 0.000238675)
(9.97148 -0.481897 -0)
(-0.290016 0.00494842 -3.04965e-06)
(-0.0423304 0.0012206 0)
(-0.00675041 0.000300822 -6.36306e-07)
(0.00432465 -0.00029327 0)
(0.0111042 -0.00112003 5.8617e-06)
(0.017732 -0.00256663 0)
(0.0252618 -0.00507964 5.9383e-05)
(0.0347484 -0.00950093 0)
(0.0574335 -0.021347 0.000526046)
(0.123259 -0.0629198 0)
(0.218672 -0.159485 0.00740323)
(0.270867 -0.306851 0)
(0.180986 -0.431508 0.0264435)
(-0.0244205 -0.454296 0)
(-0.223627 -0.372276 0.0195235)
(-0.346881 -0.249307 0)
(-0.448387 -0.159428 0.00432111)
(-0.893469 -0.121918 0)
(-2.46596 -0.0192361 2.32358e-05)
(10.2114 -0.45338 -0)
(-0.274075 0.00617004 -4.85547e-06)
(-0.044297 0.00206032 0)
(-0.00848696 0.000659148 -2.35567e-06)
(0.00278813 -0.000331422 0)
(0.00935923 -0.00160862 1.35728e-05)
(0.0155672 -0.00368895 0)
(0.0225837 -0.00712453 0.000119314)
(0.0311455 -0.0127993 0)
(0.0441129 -0.0235304 0.000716491)
(0.0710597 -0.0500529 0)
(0.11104 -0.107636 0.00547374)
(0.135542 -0.197487 0)
(0.0998514 -0.280552 0.0182587)
(0.00455175 -0.312717 0)
(-0.108965 -0.284964 0.0163432)
(-0.209513 -0.22127 0)
(-0.316517 -0.163053 0.00525787)
(-0.735496 -0.14963 0)
(-2.47522 -0.0663511 0.000252603)
(10.1708 -0.465844 -0)
(-0.252938 0.00529452 -3.69668e-06)
(-0.0455817 0.00236796 0)
(-0.0106942 0.00103974 -4.42843e-06)
(0.000150886 -2.37338e-05 0)
(0.0060911 -0.00141803 1.4996e-05)
(0.0115165 -0.00371782 0)
(0.0177067 -0.0075745 0.000153641)
(0.0250527 -0.0138036 0)
(0.0339984 -0.0238697 0.000813761)
(0.0454196 -0.0410877 0)
(0.059484 -0.0717864 0.00371933)
(0.0689392 -0.119752 0)
(0.0567586 -0.172201 0.0110354)
(0.0148116 -0.205678 0)
(-0.0482233 -0.209439 0.0121351)
(-0.121641 -0.18604 0)
(-0.217995 -0.15682 0.00549064)
(-0.598998 -0.166878 0)
(-2.45798 -0.118513 0.000725495)
(9.88714 -0.47183 -0)
(-0.245779 0.000698536 -6.52118e-08)
(-0.0464431 0.00180907 0)
(-0.0137178 0.00132925 -5.31672e-06)
(-0.00349112 0.000618249 0)
(0.00201655 -0.000564013 6.48769e-06)
(0.00675851 -0.00271531 0)
(0.011988 -0.00649816 0.000145662)
(0.0180964 -0.0127118 0)
(0.0250713 -0.0223581 0.000813145)
(0.0320814 -0.0363282 0)
(0.038147 -0.0561356 0.00290978)
(0.0417416 -0.0845582 0)
(0.0375028 -0.120382 0.00748627)
(0.0180673 -0.151242 0)
(-0.0176064 -0.167159 0.00963482)
(-0.0686491 -0.1652 0)
(-0.149738 -0.157229 0.00583549)
(-0.501512 -0.202785 0)
(-2.36775 -0.241883 0.00272085)
(9.49558 -0.422825 -0)
(-0.196004 -0.00723396 -7.70976e-06)
(-0.0461861 -0.00123212 0)
(-0.0168265 0.000895438 -1.74285e-06)
(-0.00556715 0.00092421 0)
(0.000433676 -0.000133642 1.47446e-06)
(0.00582707 -0.00277803 0)
(0.0112483 -0.00752622 0.000175704)
(0.0170907 -0.015124 0)
(0.0233766 -0.0264481 0.00100171)
(0.0295938 -0.0422906 0)
(0.0345954 -0.0630739 0.0033085)
(0.037048 -0.0895516 0)
(0.0337849 -0.119374 0.00740874)
(0.0224683 -0.149293 0)
(-0.000506948 -0.173342 0.0102364)
(-0.040099 -0.185901 0)
(-0.114062 -0.19532 0.00784664)
(-0.471803 -0.319967 0)
(-2.17096 -0.438355 0.00836304)
(9.11374 -0.274699 -0)
(-0.425836 -0.0324715 -0.000110336)
(-0.0236292 -0.00193738 0)
(0.0298175 -0.00013333 2.44248e-08)
(0.0454405 -0.00624745 0)
(0.0527293 -0.0169862 0.000180921)
(0.0597531 -0.0334964 0)
(0.0659523 -0.0556286 0.00137397)
(0.0714424 -0.0830481 0)
(0.0760854 -0.11564 0.00471093)
(0.0793429 -0.153423 0)
(0.0801679 -0.196013 0.0110197)
(0.0770363 -0.241892 0)
(0.0691765 -0.288846 0.0192706)
(0.0546667 -0.337404 0)
(0.0311029 -0.383441 0.0254365)
(-0.0157515 -0.436744 0)
(-0.113935 -0.449189 0.0223385)
(-0.515503 -0.712584 0)
(-1.81468 -0.546587 0.0124499)
(7.04474 0.134643 0)
(0.029384 0.0119841 7.6827e-05)
(0.066599 0.0679318 0)
(0.0891378 0.000888151 9.65196e-08)
(0.143777 -0.105596 0)
(0.1777 -0.246612 0.00530173)
(0.190351 -0.40257 0)
(0.195732 -0.561508 0.0241884)
(0.199522 -0.721818 0)
(0.201478 -0.883037 0.0560105)
(0.200021 -1.04415 0)
(0.193933 -1.20326 0.0986767)
(0.182035 -1.35841 0)
(0.164266 -1.50848 0.145591)
(0.137866 -1.65494 0)
(0.10212 -1.7874 0.18512)
(0.0317676 -1.94778 0)
(-0.0759781 -1.93493 0.18379)
(-0.501435 -2.50765 0)
(-1.28076 -0.906774 0.0268245)
(-2.38398 -0.752351 0)
(16.7572 -7.30959 0.296326)
(13.952 -12.2575 0)
(8.56591 -16.9714 1.4741)
(5.54906 -20.7244 0)
(4.00361 -23.5342 2.9706)
(3.11181 -25.8503 0)
(2.52988 -27.9221 4.3133)
(2.11845 -29.814 0)
(1.81141 -31.5398 5.65136)
(1.57544 -33.116 0)
(1.38292 -34.5515 6.94529)
(1.21974 -35.8455 0)
(1.07443 -36.9832 8.11402)
(0.93423 -37.9714 0)
(0.783535 -38.6907 8.98329)
(0.570819 -39.4376 0)
(0.340659 -38.7639 8.93909)
(-0.512986 -41.2771 0)
(0.687479 -24.2396 3.02793)
(-14.2822 -55.0604 0)
)
;

boundaryField
{
    movingWall
    {
        type            calculated;
        value           nonuniform List<vector> 
20
(
(0 -367.506 0)
(0 -380.363 0)
(0 -369.326 0)
(0 -358.671 0)
(0 -350.73 0)
(0 -344.371 0)
(0 -338.718 0)
(0 -333.489 0)
(0 -328.609 0)
(0 -324.041 0)
(0 -319.784 0)
(0 -315.871 0)
(0 -312.4 0)
(0 -309.401 0)
(0 -307.342 0)
(0 -305.246 0)
(0 -308.415 0)
(0 -299.256 0)
(0 -359.529 0)
(0 -239.3 0)
)
;
    }
    fixedWalls
    {
        type            calculated;
        value           uniform (-0 0 0);
    }
    frontAndBack
    {
        type            empty;
    }
}


// ************************************************************************* //
