/*--------------------------------*- C++ -*----------------------------------*\
| =========                 |                                                 |
| \\      /  F ield         | OpenFOAM: The Open Source CFD Toolbox           |
|  \\    /   O peration     | Version:  2312                                  |
|   \\  /    A nd           | Website:  www.openfoam.com                      |
|    \\/     M anipulation  |                                                 |
\*---------------------------------------------------------------------------*/
FoamFile
{
    version     2.0;
    format      ascii;
    arch        "LSB;label=32;scalar=64";
    class       volScalarField;
    location    "1.75";
    object      magSqrU;
}
// * * * * * * * * * * * * * * * * * * * * * * * * * * * * * * * * * * * * * //

dimensions      [0 2 -2 0 0 0 0];

internalField   nonuniform List<scalar> 
400
(
2.08558e-07
6.82858e-06
3.92361e-05
0.000109997
0.000227313
0.000399575
0.000635506
0.000934312
0.0012732
0.0015996
0.00183762
0.00192182
0.00178456
0.00142776
0.000947219
0.000487706
0.00017312
3.0583e-05
1.02889e-06
6.84187e-07
7.44791e-06
5.06114e-05
0.00014499
0.000304986
0.000548253
0.00088512
0.0013076
0.00177793
0.00223982
0.00264353
0.00294849
0.00310137
0.00301991
0.00263916
0.00199871
0.00124255
0.00058263
0.000176223
2.3136e-05
3.52624e-08
4.45242e-05
0.000148362
0.000301521
0.000523221
0.000834929
0.00124427
0.0017322
0.00225612
0.00279193
0.00335879
0.00398279
0.00462819
0.00512967
0.00518559
0.0045838
0.00337421
0.0018913
0.000662777
0.000102049
1.40522e-06
0.000128195
0.00030155
0.000507133
0.000776376
0.00113053
0.00157403
0.00209017
0.00267335
0.00340466
0.00447294
0.00607664
0.00814239
0.0101337
0.0114017
0.0113524
0.00979626
0.00682682
0.00315817
0.000529109
5.62989e-06
0.000266369
0.000512753
0.000759842
0.00106517
0.00145041
0.00192032
0.00248461
0.00323257
0.00445531
0.0066132
0.00993804
0.0136975
0.0165902
0.018192
0.0192099
0.019206
0.0168323
0.0109978
0.00352984
8.6481e-05
0.000453226
0.000772939
0.00104993
0.00138095
0.00179088
0.00229522
0.00295274
0.00397261
0.0058357
0.00901753
0.0129908
0.0160769
0.0175552
0.0186051
0.0201745
0.0228233
0.0250148
0.0227286
0.0123686
0.000950002
0.00067106
0.00106349
0.00135976
0.00170562
0.00213505
0.00268133
0.00345186
0.00474625
0.00711601
0.0105203
0.0134012
0.0139729
0.0128226
0.0120242
0.0133455
0.0171023
0.0233492
0.0292669
0.0254615
0.00627545
0.000894046
0.00135782
0.0016643
0.00201393
0.00245419
0.0030353
0.00389452
0.00536238
0.00784612
0.0106067
0.0115634
0.00955233
0.00659359
0.00554118
0.00693042
0.0102732
0.0162444
0.0265536
0.0353729
0.0176453
0.00109368
0.00162538
0.00193444
0.00227635
0.00271335
0.00330501
0.00418656
0.0056565
0.00794634
0.00978494
0.00926684
0.00579535
0.00247891
0.00198515
0.00405731
0.00742078
0.011873
0.0206152
0.0370656
0.0328653
0.00124487
0.00183754
0.00214341
0.00246593
0.00288051
0.00344469
0.00427411
0.00560363
0.0075416
0.00881199
0.00780294
0.00401639
0.000702226
0.000395742
0.00286598
0.00648639
0.0104602
0.0168751
0.0340544
0.0463287
0.00133213
0.00197383
0.00227112
0.00256272
0.00293447
0.00343766
0.00415804
0.00525733
0.00681479
0.00795645
0.00723581
0.00425153
0.00116839
0.000573616
0.00264476
0.00583849
0.00939175
0.0148909
0.030664
0.0549624
0.00134657
0.00202543
0.00230852
0.00256149
0.00287677
0.00329897
0.00388483
0.00473034
0.00592698
0.00698665
0.00688637
0.00518365
0.00301422
0.00217482
0.00319881
0.00532262
0.00807624
0.0126711
0.0274669
0.0601834
0.00130498
0.00199502
0.00225745
0.00246648
0.00271955
0.0030573
0.0035167
0.00414712
0.00500302
0.00588514
0.00620567
0.00559992
0.00441608
0.00362851
0.00374275
0.00471154
0.00654544
0.0101893
0.0239798
0.0633423
0.00122255
0.00189904
0.00213017
0.00228999
0.00248114
0.00274216
0.00309851
0.00357375
0.00418579
0.0048636
0.00533847
0.00531159
0.00477207
0.00413763
0.00377019
0.00395756
0.00495817
0.00768587
0.0201848
0.0653044
0.00111311
0.00175031
0.00193724
0.00204272
0.00217535
0.00237445
0.00265984
0.00304193
0.00352015
0.00405519
0.00452755
0.00474015
0.004553
0.00407588
0.00353512
0.00326601
0.00359471
0.00546236
0.0161574
0.0663803
0.00107892
0.0016197
0.00171986
0.00175284
0.0018237
0.00197073
0.00221256
0.00255417
0.00298594
0.00346966
0.00392762
0.00423439
0.00424267
0.00391823
0.00335907
0.00284386
0.00262684
0.0038691
0.0122508
0.0676006
0.000835026
0.00126163
0.00134152
0.00135331
0.00140353
0.00153086
0.00176241
0.00210725
0.00255511
0.00306915
0.0035792
0.00398176
0.00416035
0.00400326
0.00348732
0.00284105
0.00216426
0.00325827
0.00929144
0.0705438
0.00199724
0.00209849
0.00167844
0.00134429
0.00120665
0.00125002
0.00146752
0.00184996
0.002378
0.00301387
0.00368927
0.00430278
0.00470631
0.00478422
0.00442959
0.00380408
0.00263227
0.00414476
0.00623745
0.0714216
0.000288175
0.000185116
0.000118974
0.000322488
0.000702145
0.00128697
0.00208115
0.00307082
0.00423274
0.00553098
0.00689993
0.00824442
0.00942561
0.0103505
0.0107617
0.0110207
0.00903607
0.0116064
0.00262093
0.0559202
0.0102806
0.00864466
0.00946612
0.0127127
0.0163938
0.0201526
0.0240588
0.0280984
0.0322121
0.0363569
0.0404709
0.0444626
0.0481757
0.051522
0.0539307
0.0564435
0.0531821
0.0632526
0.0156168
0.152591
)
;

boundaryField
{
    movingWall
    {
        type            calculated;
        value           uniform 1;
    }
    fixedWalls
    {
        type            calculated;
        value           uniform 0;
    }
    frontAndBack
    {
        type            empty;
    }
}


// ************************************************************************* //
