/*--------------------------------*- C++ -*----------------------------------*\
| =========                 |                                                 |
| \\      /  F ield         | OpenFOAM: The Open Source CFD Toolbox           |
|  \\    /   O peration     | Version:  2312                                  |
|   \\  /    A nd           | Website:  www.openfoam.com                      |
|    \\/     M anipulation  |                                                 |
\*---------------------------------------------------------------------------*/
FoamFile
{
    version     2.0;
    format      ascii;
    arch        "LSB;label=32;scalar=64";
    class       volScalarField;
    location    "1.75";
    object      magU;
}
// * * * * * * * * * * * * * * * * * * * * * * * * * * * * * * * * * * * * * //

dimensions      [0 1 -1 0 0 0 0];

internalField   nonuniform List<scalar> 
400
(
0.000456681
0.00261315
0.00626387
0.0104879
0.0150769
0.0199894
0.0252092
0.0305665
0.0356819
0.039995
0.0428674
0.0438386
0.0422441
0.0377857
0.0307769
0.0220841
0.0131575
0.00553019
0.00101434
0.000827156
0.00272909
0.00711417
0.0120412
0.0174638
0.0234148
0.029751
0.0361608
0.0421655
0.0473267
0.0514153
0.0543
0.05569
0.0549537
0.0513728
0.0447069
0.0352498
0.0241377
0.0132749
0.00480999
0.000187783
0.00667264
0.0121804
0.0173644
0.022874
0.0288951
0.0352742
0.0416197
0.0474987
0.0528387
0.057955
0.0631093
0.0680308
0.0716217
0.0720111
0.0677038
0.058088
0.0434891
0.0257445
0.0101019
0.00118542
0.0113223
0.0173652
0.0225196
0.0278635
0.0336233
0.039674
0.0457183
0.0517044
0.0583494
0.06688
0.0779528
0.0902352
0.100666
0.106779
0.106548
0.0989761
0.0826246
0.0561976
0.0230024
0.00237274
0.0163208
0.0226441
0.0275652
0.032637
0.0380842
0.0438214
0.0498459
0.0568557
0.0667481
0.0813216
0.0996897
0.117036
0.128803
0.134878
0.1386
0.138586
0.129739
0.104871
0.0594125
0.00929952
0.0212891
0.0278018
0.0324026
0.0371612
0.0423188
0.0479085
0.0543391
0.0630287
0.0763918
0.0949607
0.113977
0.126795
0.132496
0.136401
0.142037
0.151074
0.158161
0.15076
0.111214
0.0308221
0.0259048
0.0326113
0.0368749
0.0412992
0.0462066
0.0517816
0.0587526
0.0688931
0.0843565
0.102569
0.115763
0.118207
0.113237
0.109655
0.115523
0.130776
0.152804
0.171076
0.159566
0.0792178
0.0299006
0.0368486
0.0407958
0.0448768
0.0495398
0.0550936
0.0624061
0.0732283
0.0885783
0.102989
0.107533
0.097736
0.0812009
0.0744391
0.0832492
0.101357
0.127454
0.162953
0.188077
0.132836
0.0330709
0.0403161
0.0439823
0.0477112
0.0520898
0.0574892
0.0647036
0.0752097
0.0891423
0.0989188
0.0962644
0.0761272
0.0497887
0.044555
0.0636971
0.0861439
0.108963
0.14358
0.192524
0.181288
0.0352828
0.0428665
0.0462969
0.0496581
0.0536704
0.0586915
0.0653767
0.0748574
0.0868424
0.0938722
0.0883343
0.063375
0.0264996
0.0198933
0.0535349
0.0805381
0.102275
0.129904
0.184538
0.215241
0.0364984
0.0444278
0.0476562
0.0506234
0.0541708
0.0586315
0.0644829
0.0725075
0.0825518
0.0891989
0.0850635
0.0652037
0.0341818
0.0239503
0.0514272
0.07641
0.096911
0.122028
0.175111
0.234441
0.0366957
0.0450048
0.048047
0.0506112
0.0536355
0.0574366
0.0623284
0.0687775
0.0769869
0.0835862
0.0829842
0.0719976
0.0549019
0.046635
0.056558
0.0729563
0.0898679
0.112566
0.165731
0.245323
0.0361245
0.0446657
0.0475126
0.0496637
0.0521493
0.0552929
0.0593018
0.0643981
0.0707321
0.0767147
0.0787761
0.0748326
0.0664536
0.0602371
0.061178
0.0686407
0.0809039
0.100942
0.154854
0.251679
0.034965
0.043578
0.0461538
0.0478538
0.049811
0.0523657
0.0556643
0.0597808
0.0646977
0.0697395
0.0730649
0.0728807
0.0690802
0.0643244
0.0614019
0.0629092
0.0704143
0.0876691
0.142073
0.255547
0.0333632
0.0418367
0.0440141
0.0451965
0.0466406
0.0487283
0.0515737
0.0551537
0.0593308
0.0636804
0.067287
0.0688487
0.0674759
0.0638426
0.0594569
0.057149
0.0599559
0.0739078
0.127112
0.257644
0.0328469
0.0402455
0.0414712
0.0418669
0.0427048
0.0443929
0.0470379
0.0505388
0.0546438
0.0589038
0.0626707
0.0650722
0.0651358
0.0625958
0.0579575
0.0533278
0.0512527
0.0622021
0.110684
0.260001
0.0288968
0.0355194
0.0366268
0.0367874
0.0374637
0.0391262
0.0419811
0.0459048
0.0505481
0.0553999
0.0598265
0.0631012
0.0645008
0.0632713
0.0590535
0.0533015
0.0465216
0.0570813
0.0963921
0.265601
0.0446905
0.0458092
0.0409687
0.0366645
0.0347368
0.0353556
0.0383082
0.0430111
0.0487648
0.0548987
0.0607394
0.0655956
0.0686025
0.0691681
0.0665552
0.0616772
0.0513057
0.0643798
0.0789775
0.267248
0.0169757
0.0136057
0.0109075
0.017958
0.026498
0.0358744
0.0456196
0.0554149
0.0650595
0.0743706
0.0830658
0.0907988
0.0970856
0.101737
0.103739
0.104979
0.0950583
0.107733
0.051195
0.236474
0.101393
0.0929767
0.097294
0.112751
0.128038
0.14196
0.155109
0.167626
0.179477
0.190675
0.201174
0.210862
0.21949
0.226985
0.23223
0.237578
0.230613
0.251501
0.124967
0.390629
)
;

boundaryField
{
    movingWall
    {
        type            calculated;
        value           uniform 1;
    }
    fixedWalls
    {
        type            calculated;
        value           uniform 0;
    }
    frontAndBack
    {
        type            empty;
    }
}


// ************************************************************************* //
