/*--------------------------------*- C++ -*----------------------------------*\
| =========                 |                                                 |
| \\      /  F ield         | OpenFOAM: The Open Source CFD Toolbox           |
|  \\    /   O peration     | Version:  2312                                  |
|   \\  /    A nd           | Website:  www.openfoam.com                      |
|    \\/     M anipulation  |                                                 |
\*---------------------------------------------------------------------------*/
FoamFile
{
    version     2.0;
    format      ascii;
    arch        "LSB;label=32;scalar=64";
    class       volScalarField;
    location    "1.75";
    object      pNear;
}
// * * * * * * * * * * * * * * * * * * * * * * * * * * * * * * * * * * * * * //

dimensions      [0 2 -2 0 0 0 0];

internalField   nonuniform List<scalar> 
400
(
2.23812e-08
0
0
0
0
0
1.13925e-05
3.7692e-05
8.69366e-05
0.000179587
0.000346611
0.000622578
0.00102418
0.00152014
0.00201956
0.00241363
0.00264491
0.00271959
0.00269751
0.00266346
1.19646e-05
0
0
0
0
0
0
4.77793e-06
3.24032e-05
9.8656e-05
0.000233828
0.00047326
0.000845789
0.00134419
0.00187874
0.00232378
0.00259653
0.00269511
0.0026802
0.00263714
0
0
0
0
0
0
0
0
0
0
0
0.000139898
0.000482116
0.00102711
0.00165774
0.00221747
0.00256959
0.00268696
0.00267432
0.00260039
0
0
0
0
0
0
0
0
0
0
0
0
0
0.000188567
0.000855373
0.00165216
0.00230423
0.00260078
0.00265657
0.00253032
0
0
0
0
0
0
0
0
0
0
0
0
0
0
0
0
0.000936904
0.00212237
0.00258181
0.00242155
0
0
0
0
0
0
0
0
0
0
0
0
0
0
0
0
0
0.000326903
0.00220078
0.00243484
0
0
0
0
0
0
0
0
0
0
0
0
0
0
0
0
0
0
0.000795271
0.00207947
0
0
0
0
0
0
0
0
0
0
0
0
0
0
0
0
0
0
0
0.000671656
0
0
0
0
0
0
0
0
0
0
0
0
0
0
0
0
0
0
0
0
0
0
0
0
0
0
0
0
0
0
0
0
0
0
0
0
0
0
0
0
0
0
0
0
0
0
0
0
0
0
0
0
0
0
0
0
0
0
0
0
0
0
0
0
0
0
0
0
0
0
0
0
0
0
0
0
0
0
0
0
0
0
0
0
0
0
0
0
0
0
0
0
0
0
0
0
0
0
0
0
0
0
0
0
0
0
0
0
0
0
0
0
0
0
0
0
0
0
0
0
0
0
0
0
0
0
0
0
0
0
0
0
0
0
0
0
0
0
0
0
0
0
0
0
0
0
0
0
0
0
0
0
0
0
0
0
0
0
0
0
0
0
0
0
0
0
0
0
0
0
0
0
0
0
0
0
0
0
0
0
0
0
0
0
0
0
0
0
0
0
0
0
0
0
0
0
0
0
0
0
0
0
0
0
0
0
0
0
0
0
0
0
0
0
0
0
0
0.000590501
0.00210926
0.0148899
0
0.00118994
0.000491274
0
0
0
0
0
0
0
0
0
0
0
0
0
0
0.00318578
0.00481461
0.0574218
)
;

boundaryField
{
    movingWall
    {
        type            zeroGradient;
    }
    fixedWalls
    {
        type            calculated;
        value           nonuniform List<scalar> 
60
(
1.81372e-06
8.3786e-06
1.79469e-06
0
0
0
0
0
0
0
0
0
0
0
0
0
0
0
0
0
0.00265951
0.00263558
0.00259539
0.00252451
0.00243986
0.00237954
0.0019216
0.00078208
0.000100748
0
0
0
0
0
0
0
0
0.00223349
0.0190362
0.051042
1.9024e-08
3.35718e-09
0
0
0
1.70888e-06
1.36286e-05
4.11338e-05
9.34474e-05
0.000190743
0.000362953
0.000641422
0.00103833
0.00152066
0.00200376
0.00238921
0.00262142
0.00270507
0.00269571
0.00266857
)
;
    }
    frontAndBack
    {
        type            empty;
    }
}


// ************************************************************************* //
