/*--------------------------------*- C++ -*----------------------------------*\
| =========                 |                                                 |
| \\      /  F ield         | OpenFOAM: The Open Source CFD Toolbox           |
|  \\    /   O peration     | Version:  2312                                  |
|   \\  /    A nd           | Website:  www.openfoam.com                      |
|    \\/     M anipulation  |                                                 |
\*---------------------------------------------------------------------------*/
FoamFile
{
    version     2.0;
    format      ascii;
    arch        "LSB;label=32;scalar=64";
    class       volScalarField;
    location    "1.75";
    object      totalP;
}
// * * * * * * * * * * * * * * * * * * * * * * * * * * * * * * * * * * * * * //

dimensions      [1 -1 -2 0 0 0 0];

internalField   nonuniform List<scalar> 
400
(
1
1
1.00002
1.00005
1.00011
1.0002
1.00033
1.0005
1.00072
1.00098
1.00127
1.00158
1.00192
1.00223
1.00249
1.00266
1.00273
1.00273
1.0027
1.00266
1.00002
1.00003
1.00007
1.00015
1.00027
1.00044
1.00065
1.00089
1.00115
1.00142
1.00171
1.00202
1.00236
1.00266
1.00288
1.00295
1.00289
1.00278
1.00269
1.00264
1.00002
1.00007
1.00015
1.00026
1.00042
1.00062
1.00087
1.00113
1.0014
1.00168
1.00199
1.00245
1.00305
1.00362
1.00395
1.0039
1.00352
1.00302
1.00273
1.0026
1.00006
1.00015
1.00025
1.00039
1.00057
1.00079
1.00105
1.00134
1.0017
1.00224
1.00304
1.00407
1.00507
1.00589
1.00653
1.00655
1.00572
1.00418
1.00292
1.00253
1.00013
1.00026
1.00038
1.00053
1.00073
1.00096
1.00124
1.00162
1.00223
1.00331
1.00497
1.00685
1.0083
1.0091
1.0096
1.0096
1.00935
1.00762
1.00435
1.00246
1.00023
1.00039
1.00052
1.00069
1.0009
1.00115
1.00148
1.00199
1.00292
1.00451
1.0065
1.00804
1.00878
1.0093
1.01009
1.01141
1.01251
1.01169
1.00839
1.00291
1.00034
1.00053
1.00068
1.00085
1.00107
1.00134
1.00173
1.00237
1.00356
1.00526
1.0067
1.00699
1.00641
1.00601
1.00667
1.00855
1.01167
1.01463
1.01353
1.00522
1.00045
1.00068
1.00083
1.00101
1.00123
1.00152
1.00195
1.00268
1.00392
1.0053
1.00578
1.00478
1.0033
1.00277
1.00347
1.00514
1.00812
1.01328
1.01769
1.00949
1.00055
1.00081
1.00097
1.00114
1.00136
1.00165
1.00209
1.00283
1.00397
1.00489
1.00463
1.0029
1.00124
1.00099
1.00203
1.00371
1.00594
1.01031
1.01853
1.01643
1.00062
1.00092
1.00107
1.00123
1.00144
1.00172
1.00214
1.0028
1.00377
1.00441
1.0039
1.00201
1.00035
1.0002
1.00143
1.00324
1.00523
1.00844
1.01703
1.02316
1.00067
1.00099
1.00114
1.00128
1.00147
1.00172
1.00208
1.00263
1.00341
1.00398
1.00362
1.00213
1.00058
1.00029
1.00132
1.00292
1.0047
1.00745
1.01533
1.02748
1.00067
1.00101
1.00115
1.00128
1.00144
1.00165
1.00194
1.00237
1.00296
1.00349
1.00344
1.00259
1.00151
1.00109
1.0016
1.00266
1.00404
1.00634
1.01373
1.03009
1.00065
1.001
1.00113
1.00123
1.00136
1.00153
1.00176
1.00207
1.0025
1.00294
1.0031
1.0028
1.00221
1.00181
1.00187
1.00236
1.00327
1.00509
1.01199
1.03167
1.00061
1.00095
1.00107
1.00114
1.00124
1.00137
1.00155
1.00179
1.00209
1.00243
1.00267
1.00266
1.00239
1.00207
1.00189
1.00198
1.00248
1.00384
1.01009
1.03265
1.00056
1.00088
1.00097
1.00102
1.00109
1.00119
1.00133
1.00152
1.00176
1.00203
1.00226
1.00237
1.00228
1.00204
1.00177
1.00163
1.0018
1.00273
1.00808
1.03319
1.00054
1.00081
1.00086
1.00088
1.00091
1.00099
1.00111
1.00128
1.00149
1.00173
1.00196
1.00212
1.00212
1.00196
1.00168
1.00142
1.00131
1.00193
1.00613
1.0338
1.00042
1.00063
1.00067
1.00068
1.0007
1.00077
1.00088
1.00105
1.00128
1.00153
1.00179
1.00199
1.00208
1.002
1.00174
1.00142
1.00108
1.00163
1.00465
1.03527
1.001
1.00105
1.00084
1.00067
1.0006
1.00063
1.00073
1.00092
1.00119
1.00151
1.00184
1.00215
1.00235
1.00239
1.00221
1.0019
1.00132
1.00207
1.00312
1.03571
1.00014
1.00009
1.00006
1.00016
1.00035
1.00064
1.00104
1.00154
1.00212
1.00277
1.00345
1.00412
1.00471
1.00518
1.00538
1.00551
1.00452
1.00639
1.00342
1.04285
1.00514
1.00551
1.00522
1.00636
1.0082
1.01008
1.01203
1.01405
1.01611
1.01818
1.02024
1.02223
1.02409
1.02576
1.02697
1.02822
1.02659
1.03481
1.01262
1.13372
)
;

boundaryField
{
    movingWall
    {
        type            calculated;
        value           nonuniform List<scalar> 
20
(
1.5
1.50119
1.50049
1.5
1.5
1.5
1.5
1.5
1.5
1.5
1.5
1.5
1.5
1.5
1.5
1.5
1.5
1.50319
1.50481
1.55742
)
;
    }
    fixedWalls
    {
        type            calculated;
        value           nonuniform List<scalar> 
60
(
1
1.00001
1
1
1
1
1
1
1
1
1
1
1
1
1
1
1
1
1
1
1.00266
1.00264
1.0026
1.00253
1.00242
1.00243
1.00208
1.00067
1
1
1
1
1
1
1
1
1
1
1.01489
1.05742
1
1
1
1
1
1
1.00001
1.00004
1.00009
1.00018
1.00035
1.00062
1.00102
1.00152
1.00202
1.00241
1.00264
1.00272
1.0027
1.00266
)
;
    }
    frontAndBack
    {
        type            empty;
    }
}


// ************************************************************************* //
