/*--------------------------------*- C++ -*----------------------------------*\
| =========                 |                                                 |
| \\      /  F ield         | OpenFOAM: The Open Source CFD Toolbox           |
|  \\    /   O peration     | Version:  2312                                  |
|   \\  /    A nd           | Website:  www.openfoam.com                      |
|    \\/     M anipulation  |                                                 |
\*---------------------------------------------------------------------------*/
FoamFile
{
    version     2.0;
    format      ascii;
    arch        "LSB;label=32;scalar=64";
    class       volVectorField;
    location    "1.75";
    object      U;
}
// * * * * * * * * * * * * * * * * * * * * * * * * * * * * * * * * * * * * * //

dimensions      [0 1 -1 0 0 0 0];

internalField   nonuniform List<vector> 
400
(
(-0.000332123 0.000313452 0)
(-0.00234967 0.00114351 0)
(-0.00603033 0.00169445 0)
(-0.0103098 0.00192492 0)
(-0.014935 0.00206374 0)
(-0.019863 0.00224413 0)
(-0.0250878 0.00247187 0)
(-0.0304522 0.00264145 0)
(-0.0355883 0.00258299 0)
(-0.0399365 0.00216366 0)
(-0.0428462 0.00134805 0)
(-0.0438383 0.000158511 0)
(-0.0422194 -0.00144309 0)
(-0.0376608 -0.00307057 0)
(-0.0304586 -0.00441511 0)
(-0.0215212 -0.00495412 0)
(-0.0123837 -0.00444579 0)
(-0.00468779 -0.00293388 0)
(-0.000193182 -0.000995777 0)
(0.000678613 0.000472939 0)
(-0.00126023 0.00242069 0)
(-0.00499692 0.00506381 0)
(-0.0100703 0.00660146 0)
(-0.0158357 0.00736321 0)
(-0.0220562 0.00785976 0)
(-0.0285801 0.00826427 0)
(-0.0351611 0.00844406 0)
(-0.0413777 0.0081125 0)
(-0.046796 0.00706799 0)
(-0.051141 0.0053036 0)
(-0.0542258 0.00283755 0)
(-0.0556885 -0.000403657 0)
(-0.0547758 -0.00441821 0)
(-0.0506093 -0.0088236 0)
(-0.0429099 -0.0125481 0)
(-0.0321804 -0.0143863 0)
(-0.0200777 -0.0133984 0)
(-0.00923103 -0.00953998 0)
(-0.00210697 -0.00432396 0)
(0.000178212 5.91851e-05 0)
(-0.00213859 0.00632065 0)
(-0.00681631 0.0100946 0)
(-0.0122672 0.0122897 0)
(-0.0183753 0.0136224 0)
(-0.0249728 0.0145358 0)
(-0.0318798 0.0150979 0)
(-0.0388089 0.0150357 0)
(-0.0453715 0.0140553 0)
(-0.0514205 0.0121598 0)
(-0.0571696 0.00950894 0)
(-0.062827 0.00596297 0)
(-0.068023 0.00102498 0)
(-0.0714056 -0.00556062 0)
(-0.0707601 -0.0133639 0)
(-0.0643655 -0.0209971 0)
(-0.0518904 -0.0261074 0)
(-0.0347191 -0.0261895 0)
(-0.016388 -0.0198547 0)
(-0.00294087 -0.00966437 0)
(0.000537292 -0.00105666 0)
(-0.00259086 0.0110219 0)
(-0.00778134 0.0155242 0)
(-0.0133751 0.0181173 0)
(-0.019492 0.0199108 0)
(-0.0260799 0.0212219 0)
(-0.0330277 0.0219818 0)
(-0.0401632 0.0218422 0)
(-0.0473948 0.020666 0)
(-0.0552179 0.0188584 0)
(-0.0647149 0.0168797 0)
(-0.0766336 0.0142805 0)
(-0.0897494 0.00935078 0)
(-0.100666 -3.65439e-05 0)
(-0.105841 -0.0141213 0)
(-0.102204 -0.0301117 0)
(-0.0891437 -0.0430078 0)
(-0.0672504 -0.0480022 0)
(-0.038906 -0.0405523 0)
(-0.00947395 -0.0209607 0)
(0.00140776 -0.00191 0)
(-0.0026947 0.0160968 0)
(-0.00801948 0.0211764 0)
(-0.0135515 0.0240042 0)
(-0.0195003 0.0261708 0)
(-0.0259254 0.0278977 0)
(-0.0328283 0.0290279 0)
(-0.0402997 0.0293351 0)
(-0.0488007 0.029173 0)
(-0.0598014 0.0296495 0)
(-0.0751189 0.0311504 0)
(-0.0946828 0.0311961 0)
(-0.114391 0.0247435 0)
(-0.128479 0.00913147 0)
(-0.134174 -0.0137632 0)
(-0.132845 -0.0395217 0)
(-0.123375 -0.0631233 0)
(-0.10357 -0.0781373 0)
(-0.0721762 -0.0760818 0)
(-0.0325786 -0.0496837 0)
(0.000126884 -0.00929865 0)
(-0.0025558 0.0211351 0)
(-0.00767892 0.0267203 0)
(-0.0129328 0.0297097 0)
(-0.0185214 0.0322166 0)
(-0.0245913 0.0344405 0)
(-0.0312963 0.0362735 0)
(-0.0390079 0.0378302 0)
(-0.0485709 0.0401682 0)
(-0.0618951 0.0447738 0)
(-0.080415 0.050507 0)
(-0.101711 0.0514369 0)
(-0.119929 0.0411569 0)
(-0.131181 0.0186189 0)
(-0.13587 -0.0120195 0)
(-0.134842 -0.0446343 0)
(-0.130355 -0.0763608 0)
(-0.119973 -0.103059 0)
(-0.0973637 -0.115104 0)
(-0.0586434 -0.0944965 0)
(-0.0106377 -0.0289282 0)
(-0.00224278 0.0258075 0)
(-0.00688682 0.0318758 0)
(-0.0116336 0.0349917 0)
(-0.0166324 0.0378019 0)
(-0.0220783 0.0405906 0)
(-0.0282304 0.0434094 0)
(-0.0355759 0.046757 0)
(-0.0449886 0.0521755 0)
(-0.0582932 0.0609748 0)
(-0.0754999 0.069427 0)
(-0.0931033 0.0687965 0)
(-0.105623 0.053072 0)
(-0.110613 0.0242334 0)
(-0.109198 -0.00999797 0)
(-0.106614 -0.0444869 0)
(-0.105167 -0.0777316 0)
(-0.104732 -0.111267 0)
(-0.0975854 -0.140513 0)
(-0.072189 -0.142303 0)
(-0.027627 -0.0742442 0)
(-0.00180248 0.0298462 0)
(-0.0057397 0.0363988 0)
(-0.00976223 0.0396106 0)
(-0.0139348 0.0426585 0)
(-0.0184451 0.0459779 0)
(-0.0235554 0.0498041 0)
(-0.0296629 0.0549057 0)
(-0.0373222 0.0630034 0)
(-0.0475791 0.0747151 0)
(-0.0599812 0.0837198 0)
(-0.071436 0.0803758 0)
(-0.0776484 0.0593553 0)
(-0.0771931 0.0251955 0)
(-0.0734871 -0.0118669 0)
(-0.0695914 -0.0456887 0)
(-0.0674782 -0.0756299 0)
(-0.0698131 -0.106633 0)
(-0.074361 -0.144997 0)
(-0.0664169 -0.175959 0)
(-0.0334094 -0.128566 0)
(-0.00127856 0.0330462 0)
(-0.00433672 0.0400821 0)
(-0.00745777 0.0433454 0)
(-0.0106054 0.0465175 0)
(-0.0139033 0.0502001 0)
(-0.0175165 0.0547556 0)
(-0.021615 0.0609865 0)
(-0.0262629 0.0704752 0)
(-0.0318097 0.0832736 0)
(-0.0374587 0.0915521 0)
(-0.0428839 0.0861848 0)
(-0.0450906 0.0613367 0)
(-0.0439184 0.023454 0)
(-0.0416265 -0.0158868 0)
(-0.0389009 -0.0504385 0)
(-0.0366545 -0.0779565 0)
(-0.0370864 -0.102458 0)
(-0.0438195 -0.13673 0)
(-0.0479726 -0.186452 0)
(-0.0296214 -0.178851 0)
(-0.000720979 0.0352754 0)
(-0.00279675 0.0427752 0)
(-0.00490674 0.0460362 0)
(-0.00691406 0.0491745 0)
(-0.00883408 0.0529384 0)
(-0.0106787 0.0577119 0)
(-0.012411 0.0641879 0)
(-0.0136466 0.073603 0)
(-0.0139777 0.0857101 0)
(-0.0132828 0.0929277 0)
(-0.0124385 0.0874541 0)
(-0.0115653 0.0623108 0)
(-0.0108998 0.0241541 0)
(-0.0110028 -0.0165735 0)
(-0.0110355 -0.0523851 0)
(-0.012213 -0.0796067 0)
(-0.0139999 -0.101312 0)
(-0.0196781 -0.128405 0)
(-0.0280946 -0.182387 0)
(-0.0216069 -0.214154 0)
(-0.000180808 0.036498 0)
(-0.00124886 0.0444103 0)
(-0.0023163 0.0475999 0)
(-0.00315781 0.0505248 0)
(-0.00367898 0.0540457 0)
(-0.00375898 0.0585109 0)
(-0.00319561 0.0644036 0)
(-0.00146295 0.0724927 0)
(0.00248397 0.0825144 0)
(0.00858328 0.088785 0)
(0.0151327 0.0837067 0)
(0.0196204 0.0621817 0)
(0.0215625 0.0265227 0)
(0.0199208 -0.0132957 0)
(0.0161215 -0.048835 0)
(0.00988043 -0.0757685 0)
(0.00372811 -0.0968393 0)
(-0.00392691 -0.121965 0)
(-0.013371 -0.1746 0)
(-0.0149454 -0.233964 0)
(0.000314637 0.0366944 0)
(0.000159475 0.0450045 0)
(9.32121e-05 0.0480469 0)
(0.000355274 0.05061 0)
(0.00112476 0.0536237 0)
(0.00258231 0.0573785 0)
(0.00500634 0.062127 0)
(0.00896661 0.0681905 0)
(0.0155778 0.0753944 0)
(0.0247748 0.0798302 0)
(0.0353014 0.0751011 0)
(0.0433376 0.0574935 0)
(0.0474232 0.0276634 0)
(0.0459967 -0.00768942 0)
(0.0388708 -0.0410837 0)
(0.0281726 -0.0672973 0)
(0.0177021 -0.0881072 0)
(0.00676473 -0.112363 0)
(-0.00402597 -0.165683 0)
(-0.011842 -0.245037 0)
(0.000616287 0.0361192 0)
(0.0012874 0.0446471 0)
(0.00211523 0.0474655 0)
(0.00336015 0.0495499 0)
(0.00523352 0.051886 0)
(0.00792085 0.0547226 0)
(0.0116904 0.0581381 0)
(0.0169843 0.062118 0)
(0.0246427 0.0663005 0)
(0.0348789 0.0683272 0)
(0.0464196 0.0636466 0)
(0.0561017 0.0495228 0)
(0.0612815 0.0257031 0)
(0.0601503 -0.00323335 0)
(0.0524435 -0.0315029 0)
(0.0400597 -0.0557384 0)
(0.0271038 -0.0762288 0)
(0.0136475 -0.100015 0)
(0.00120793 -0.154849 0)
(-0.0111634 -0.251431 0)
(0.000786943 0.0349562 0)
(0.00202469 0.043531 0)
(0.00357381 0.0460152 0)
(0.00564856 0.0475193 0)
(0.00843757 0.0490912 0)
(0.0120747 0.0509545 0)
(0.0167469 0.0530853 0)
(0.022723 0.0552939 0)
(0.0304495 0.0570843 0)
(0.0401603 0.0570153 0)
(0.0508543 0.0524625 0)
(0.0600895 0.0412413 0)
(0.0650811 0.023163 0)
(0.0643176 0.000936173 0)
(0.057352 -0.0219303 0)
(0.0456806 -0.0432533 0)
(0.0322464 -0.0625966 0)
(0.0174775 -0.0859093 0)
(0.00380707 -0.142022 0)
(-0.0116923 -0.25528 0)
(0.00069821 0.0333559 0)
(0.00217048 0.0417804 0)
(0.00425917 0.0438076 0)
(0.00702289 0.0446475 0)
(0.0105753 0.0454259 0)
(0.0149701 0.0463718 0)
(0.020284 0.0474174 0)
(0.026616 0.0483065 0)
(0.0340918 0.0485582 0)
(0.0427204 0.0472245 0)
(0.0518111 0.042932 0)
(0.0596677 0.0343498 0)
(0.0640845 0.0211227 0)
(0.0636777 0.00458566 0)
(0.0579409 -0.0133409 0)
(0.047832 -0.0312747 0)
(0.0350124 -0.0486708 0)
(0.019835 -0.0711964 0)
(0.00612166 -0.126964 0)
(-0.0122812 -0.257351 0)
(9.3355e-05 0.0328468 0)
(0.00156647 0.040215 0)
(0.0039998 0.0412778 0)
(0.00730068 0.0412254 0)
(0.0115027 0.0411264 0)
(0.0165497 0.0411927 0)
(0.0224158 0.0413533 0)
(0.0290501 0.0413554 0)
(0.0363692 0.0407827 0)
(0.044152 0.0389905 0)
(0.0518349 0.0352245 0)
(0.0583499 0.028804 0)
(0.0621879 0.0193735 0)
(0.0621539 0.00742486 0)
(0.0576387 -0.00607094 0)
(0.0492451 -0.0204639 0)
(0.0371146 -0.0353461 0)
(0.0233172 -0.0576664 0)
(0.0112486 -0.11011 0)
(-0.011566 -0.259744 0)
(-0.00106577 0.0288772 0)
(-0.000947225 0.0355067 0)
(0.00194637 0.036575 0)
(0.00602466 0.0362907 0)
(0.0110329 0.0358023 0)
(0.0168376 0.0353179 0)
(0.0233456 0.0348912 0)
(0.0304213 0.0343772 0)
(0.0378745 0.0334759 0)
(0.0453903 0.0317628 0)
(0.0524543 0.0287706 0)
(0.0583084 0.0241225 0)
(0.0620631 0.0175649 0)
(0.0625667 0.00941615 0)
(0.0590533 -0.000172705 0)
(0.0521032 -0.0112387 0)
(0.0401732 -0.0234601 0)
(0.0320385 -0.047242 0)
(0.0190782 -0.0944852 0)
(-0.0080019 -0.26548 0)
(-0.00339794 0.0445612 0)
(-0.00374338 0.045656 0)
(0.000183191 0.0409683 0)
(0.00499389 0.0363228 0)
(0.0106511 0.0330636 0)
(0.0172885 0.0308404 0)
(0.024699 0.0292827 0)
(0.0326063 0.0280497 0)
(0.0407379 0.0268035 0)
(0.0487638 0.0252182 0)
(0.0562191 0.0229932 0)
(0.0625025 0.0199054 0)
(0.0667159 0.015978 0)
(0.0682777 0.0110624 0)
(0.0663373 0.00538096 0)
(0.0616372 -0.00222299 0)
(0.0497309 -0.012614 0)
(0.0521615 -0.0377351 0)
(0.0227775 -0.0756217 0)
(0.00510686 -0.267199 0)
(-0.00641076 0.0157187 0)
(-0.00971553 0.00952492 0)
(-0.000108675 0.010907 0)
(0.0106301 0.0144737 0)
(0.0214983 0.0154909 0)
(0.0324317 0.0153349 0)
(0.0430775 0.015016 0)
(0.053412 0.0147639 0)
(0.0634294 0.0144723 0)
(0.0730424 0.0139923 0)
(0.0820075 0.0132173 0)
(0.0899944 0.0120597 0)
(0.096515 0.01051 0)
(0.101386 0.00844608 0)
(0.10357 0.00591731 0)
(0.104965 0.00171195 0)
(0.0949851 -0.00372974 0)
(0.105642 -0.0211244 0)
(0.0295823 -0.041783 0)
(0.0711681 -0.225511 0)
(0.0405393 0.0929361 0)
(0.0613657 0.0698492 0)
(0.0868576 0.0438392 0)
(0.108914 0.0291622 0)
(0.126225 0.0214732 0)
(0.140942 0.0169664 0)
(0.154476 0.0139963 0)
(0.167204 0.0118808 0)
(0.179182 0.0102909 0)
(0.19046 0.00906077 0)
(0.201013 0.00804549 0)
(0.21074 0.007171 0)
(0.219397 0.00637387 0)
(0.226916 0.00558292 0)
(0.232182 0.00470199 0)
(0.237554 0.00343834 0)
(0.230604 0.00202655 0)
(0.251481 -0.00312537 0)
(0.124917 0.00354287 0)
(0.378116 -0.0980799 0)
)
;

boundaryField
{
    movingWall
    {
        type            fixedValue;
        value           uniform (1 0 0);
    }
    fixedWalls
    {
        type            noSlip;
    }
    frontAndBack
    {
        type            empty;
    }
}


// ************************************************************************* //
