/*--------------------------------*- C++ -*----------------------------------*\
| =========                 |                                                 |
| \\      /  F ield         | OpenFOAM: The Open Source CFD Toolbox           |
|  \\    /   O peration     | Version:  2312                                  |
|   \\  /    A nd           | Website:  www.openfoam.com                      |
|    \\/     M anipulation  |                                                 |
\*---------------------------------------------------------------------------*/
FoamFile
{
    version     2.0;
    format      ascii;
    arch        "LSB;label=32;scalar=64";
    class       volVectorField;
    location    "1.75";
    object      URandom;
}
// * * * * * * * * * * * * * * * * * * * * * * * * * * * * * * * * * * * * * //

dimensions      [0 1 -1 0 0 0 0];

internalField   nonuniform List<vector> 
400
(
(0.0906165 -0.00161879 -0.0415285)
(0.0683106 -0.0362627 -0.0600658)
(0.00772066 0.0502067 -0.0863566)
(-0.0852929 0.0314265 -0.0592215)
(-0.0829972 -0.0405186 0.0596178)
(-0.108344 0.0210844 0.0426155)
(0.0149834 0.0216792 0.0895845)
(0.0494441 0.0619926 0.00969639)
(-0.114707 0.0131484 0.060238)
(-0.125769 0.035715 -0.0388219)
(-0.0249192 -0.0970309 0.000458146)
(-0.0170181 -0.0679753 -0.0681063)
(-0.0982561 -0.0698615 -0.0466777)
(-0.121574 0.0389694 0.0345147)
(0.0163561 -0.0920038 0.0116875)
(-0.0897915 -0.0716838 -0.029771)
(0.0390471 0.0245231 -0.0807197)
(-0.038827 -0.0697532 0.0661037)
(-0.0748666 -0.0622407 0.0259411)
(-0.0610922 -0.0514633 0.0590508)
(0.0381024 -0.0606764 0.0668531)
(0.0482718 -0.0229708 0.079853)
(0.0290767 -0.0771262 0.0381731)
(0.0554667 0.0620668 -0.0438576)
(-0.0814009 0.0680439 -0.0534423)
(-0.0591579 -0.0229479 0.0899488)
(-0.0954237 0.0881174 0.00453629)
(-0.0004476 0.0870482 -0.045759)
(-0.10196 -0.0713812 -0.028332)
(-0.109403 0.0865538 -0.0019737)
(-0.123352 -0.0160079 0.0697597)
(-0.0338418 0.0231828 -0.0946911)
(-0.0245076 0.0888902 -0.0194262)
(-0.0817411 0.0133264 -0.0924131)
(-0.114803 -0.0761472 -0.0280459)
(-0.0334775 0.0850801 0.0102352)
(0.0778639 0.00665008 -0.00234655)
(-0.0176456 -0.0832379 0.0670657)
(0.00611793 -0.0702659 0.0747263)
(-0.000835009 0.0954579 -0.0299677)
(0.0227554 -0.0368647 -0.0866909)
(0.0496457 0.0806536 0.042819)
(-0.0566691 -0.0666799 -0.0423353)
(0.0117725 0.102987 0.0332439)
(-0.0538721 -0.0176905 0.090146)
(0.06042 -0.0207588 0.0139653)
(-0.100191 0.0153538 -0.0789441)
(-0.102806 -0.00914879 0.0785039)
(-0.129023 -0.0406038 0.0345514)
(-0.00961463 -0.0767981 -0.0170183)
(-0.119269 0.079381 -0.0377373)
(-0.0448405 -0.0862946 0.0428702)
(-0.0370646 0.0756784 -0.0471265)
(-0.136675 -0.0110783 0.0751667)
(-0.131397 -0.0449789 0.070226)
(-0.0123814 0.0115425 -0.0837945)
(0.0011993 -0.0894451 -0.0686192)
(0.0248013 -0.0570068 0.0832056)
(0.0643315 -0.0830382 0.00952383)
(-0.0254259 -0.0784189 0.0578014)
(-0.076989 0.0327768 0.0631794)
(-0.0687827 0.00682488 0.0787601)
(-0.055688 0.102809 -0.0322011)
(-0.0641047 0.0373761 -0.0877762)
(0.0661101 0.0519922 0.0235414)
(0.0407969 -0.0205439 0.0523594)
(-0.0545576 -0.0580799 -0.0583546)
(-0.0283696 -0.00678856 0.0942565)
(0.0304296 0.00858135 0.0505854)
(0.00618657 -0.0500405 0.0222414)
(-0.07852 0.0451552 0.0950957)
(-0.0267267 -0.0245043 -0.0698711)
(-0.0810479 -0.0530851 0.082468)
(-0.0667999 -0.0809783 -0.0632927)
(-0.170025 -0.0511448 -0.0704129)
(-0.114229 0.053412 0.00859801)
(-0.159893 -0.0804554 -0.0190843)
(0.0177556 0.0188257 -0.0571289)
(-0.0303983 -0.115852 0.0236179)
(0.000433908 -0.100035 0.0192512)
(-0.0533448 0.0561457 0.0763587)
(-0.10458 -0.00479558 -0.00122472)
(0.0314842 0.0887484 0.0614815)
(-0.115757 0.00627213 -0.0184048)
(-0.106084 0.0295702 -0.0597651)
(-0.0172142 -0.0647792 0.0309262)
(0.04609 -0.00859957 -0.0331328)
(-0.0978302 0.0958857 -0.0560849)
(-0.12525 0.104325 0.0118332)
(-0.0574437 0.0905209 0.078503)
(-0.0699595 0.0689781 0.089226)
(-0.0262645 0.0654297 -0.0240495)
(-0.110382 0.0650595 0.0808986)
(-0.0815219 0.0169989 -0.0792558)
(-0.0921327 0.0291505 -0.0602214)
(-0.199632 -0.0439379 0.0617809)
(-0.00603788 -0.0663849 -0.0186896)
(-0.0517948 -0.0121228 0.0741205)
(0.0265234 -0.104202 -0.0594537)
(0.0604541 0.0190707 -0.0745373)
(-0.0484238 -0.0275245 -0.074353)
(0.0209158 0.103904 0.056789)
(-0.100752 0.0319369 0.0477793)
(0.0515671 0.0697742 -0.0606385)
(-0.038319 0.0773489 -0.0892772)
(-0.0126674 -0.000262391 -0.0912036)
(-0.0909687 0.123011 -0.00665653)
(-0.012976 0.0276727 0.0926114)
(0.0133585 0.094029 0.0437129)
(-0.0378576 0.0615066 0.0898214)
(-0.178704 0.0369466 -0.0621458)
(-0.0864347 0.078892 0.0863376)
(-0.0567311 -0.0403954 0.031217)
(-0.143764 0.0871291 -0.0103555)
(-0.195853 0.00785291 -0.0593523)
(-0.105347 -0.107467 0.0916898)
(-0.0560447 -0.169073 0.0394386)
(-0.082993 -0.188454 0.0664321)
(-0.0612669 -0.157855 -0.0773226)
(0.0602291 0.019553 -0.0512589)
(0.0298736 0.103458 -0.0542116)
(0.0861949 0.00129145 0.0200098)
(-0.073756 0.0813563 -0.0631754)
(0.063628 -0.0218093 0.00218348)
(0.0190386 0.00497757 0.0839113)
(-0.0770832 0.125887 -0.028475)
(0.0532493 0.007958 0.0245913)
(0.0005761 0.139893 -0.0151481)
(-0.0523036 0.0343401 0.0962014)
(-0.0403891 0.134258 0.0675587)
(-0.000908908 0.0644338 0.0384858)
(-0.151088 -0.0327656 -0.0237666)
(-0.0248515 -0.00957196 -0.0387568)
(-0.164557 0.00865382 0.0811638)
(-0.0935318 -0.0604507 0.0978469)
(-0.0515373 -0.162131 -0.000748011)
(-0.0656616 -0.202739 0.0103098)
(-0.0638421 -0.0864361 0.0770523)
(-0.00501106 -0.16546 -0.0703625)
(0.0489981 -0.033144 -0.04939)
(0.0565528 0.0765337 0.066445)
(0.0596455 -0.0242358 0.0452572)
(-0.00491099 0.0958735 -0.0825285)
(0.0260869 -0.0182075 0.0685098)
(-0.0755941 -0.019189 -0.0498725)
(0.00138701 0.0993674 -0.0831947)
(-0.0362555 -0.0353259 -0.0426004)
(-0.0236873 -0.0291847 -0.0362688)
(-0.0712318 0.0744679 0.0971622)
(0.0122515 0.0202603 0.0274835)
(-0.0283688 0.111113 0.0848555)
(-0.0646341 -0.00264897 -0.0773699)
(-0.151596 0.0459361 0.0635143)
(-0.0951872 0.033772 -0.0862913)
(-0.120178 -0.126847 -0.0292302)
(0.0112245 -0.137301 -0.00160806)
(-0.139677 -0.134283 0.0659887)
(-0.0995994 -0.0484179 0.00596221)
(-0.149193 -0.208753 0.0455266)
(-0.0990091 -0.0620518 -0.0356733)
(-0.0722467 0.100266 0.0210946)
(0.0581319 0.0985819 0.0517247)
(-0.0734397 0.0621085 0.0727622)
(0.0582549 0.0450591 -0.0724991)
(-0.0666185 0.0864714 -0.0768473)
(0.0158493 -0.0147996 0.0636301)
(0.051559 0.0529843 -0.0676869)
(-0.0434555 -0.0253665 -0.0227766)
(-0.0664763 0.072976 -0.0932319)
(0.0333995 0.160341 -0.0157232)
(-0.0384387 0.152103 0.0750669)
(-0.0965381 0.147086 0.00047712)
(-0.112564 0.0151959 -0.0722462)
(-0.0258343 0.0691945 -0.0501178)
(0.0370644 -0.0959807 -0.046424)
(-0.094818 -0.0100282 0.044752)
(-0.0149144 -0.176527 0.0634209)
(0.0553572 -0.142836 0.0112557)
(-0.0921389 -0.139957 -0.0767306)
(0.000956871 -0.12517 0.0786334)
(-0.0205976 0.0781868 0.0881109)
(-0.0609242 0.123928 0.00594933)
(0.0828783 0.00373976 -0.0224676)
(-0.0505062 -0.0186321 -0.0591777)
(-0.0348025 0.148647 0.0128667)
(0.0109662 0.142193 0.0489324)
(0.0617722 0.0234897 -0.0532965)
(-0.0986467 0.0403204 0.0408321)
(0.0268181 0.155287 -0.0591164)
(-0.0800556 0.150884 -0.0467164)
(-0.0790254 0.0632894 -0.070585)
(0.0527552 0.0227753 0.065573)
(0.0462114 -0.053586 -0.0263591)
(-0.0676137 -0.0437998 0.077807)
(-0.00146381 -0.00958675 0.0898704)
(-0.0241556 -0.0356506 -0.0890238)
(0.0617173 -0.164681 0.0158541)
(-0.115977 -0.143087 0.0226038)
(0.0534189 -0.236339 -0.0210883)
(-0.00694004 -0.307104 -0.0338405)
(0.0378347 -0.0558946 0.00429423)
(-0.0614278 0.0716696 -0.0750695)
(0.0697576 0.00272082 0.052832)
(-0.0530407 0.1028 -0.0691305)
(-0.00815412 0.0215776 -0.0944764)
(0.069423 0.0262422 0.060026)
(0.0607726 -0.00850435 -0.0243413)
(0.0259711 0.0195318 0.0802653)
(0.0518974 0.163927 0.030501)
(-0.0337298 0.0270526 0.0663228)
(-0.0535855 0.153138 -0.0213801)
(0.0357849 -0.0169617 0.0589494)
(0.107555 0.0753395 0.014906)
(-0.0352889 0.017719 -0.0773949)
(-0.0390384 -0.0360717 -0.0824286)
(-0.0197923 -0.00888151 -0.0681591)
(-0.0267308 -0.0811376 -0.0939453)
(0.084342 -0.109269 -0.0452482)
(-0.0665959 -0.116056 -0.0611532)
(0.043001 -0.242273 0.0810751)
(0.0777565 0.0154327 -0.0595877)
(0.0459339 -0.0438313 0.00359207)
(-0.0605176 -0.0310774 0.008103)
(-0.00281996 0.133724 -0.0555153)
(0.031251 0.0882551 -0.088843)
(-0.0659293 0.0910713 -0.064583)
(-0.0349838 0.12194 0.0694494)
(-0.0607837 0.0120725 0.0445608)
(-0.0237923 0.0810112 0.0917521)
(-0.0449513 0.0938242 -0.0703025)
(0.027681 0.0214481 0.0840433)
(0.128856 0.0150924 0.0298106)
(0.0988778 0.093465 -0.0549779)
(0.0254682 0.0515717 0.077889)
(0.0364784 -0.105628 -0.076343)
(0.0873958 -0.0377656 0.07497)
(0.0424355 -0.00266418 0.0456919)
(0.0155564 -0.0142251 0.0170807)
(0.0784789 -0.192575 -0.0496963)
(0.0123601 -0.29795 -0.0813293)
(-0.0762444 -0.0215965 0.0275923)
(0.0716785 0.078895 0.0622268)
(0.00568738 0.137696 -0.0429611)
(-0.0626512 -0.0234991 -0.0175027)
(0.0738123 0.0897871 -0.0621327)
(0.0185145 0.149515 0.0300375)
(0.0977563 0.0477844 -0.0498543)
(-0.0413436 -0.0183941 0.0107543)
(-0.00835425 0.0201929 -0.0823729)
(0.00152043 0.0573763 -0.0936338)
(0.111587 0.0361161 0.0706773)
(0.079731 -0.0452555 0.0214179)
(0.106135 0.0505449 0.085855)
(0.0311228 0.0800356 0.0471559)
(0.121043 -0.100704 -0.0224779)
(0.0859029 0.0022333 0.0673623)
(0.0539156 -0.0665621 0.0958524)
(-0.0696885 -0.0471663 0.0161895)
(0.086902 -0.106295 -0.0172915)
(0.0342281 -0.33364 -0.0343705)
(-0.0495502 0.0903655 -0.0663022)
(-0.0453556 0.0737305 -0.082723)
(0.0765327 0.113958 -0.00780053)
(0.0735422 0.118548 -0.0185856)
(-0.00618575 -0.0192645 -0.0715098)
(-0.0645681 0.0543637 -0.0641425)
(0.0831117 0.055648 0.0747606)
(-0.0681183 0.0636856 0.0409564)
(0.10626 0.110769 0.0370226)
(0.132149 0.087673 0.0244564)
(0.083422 0.146378 0.0109224)
(0.0704571 0.0517683 0.0989025)
(-0.021516 0.069901 0.0177907)
(0.139806 -0.0020893 0.0655163)
(0.0656635 0.0724199 -0.0320773)
(0.115607 -0.0916383 0.0526232)
(0.0441824 0.0242253 -0.0481611)
(0.0939896 -0.0395018 0.0446345)
(0.0723018 -0.171272 0.06673)
(-0.0762499 -0.238671 -0.0745416)
(0.0678242 -0.0399217 -0.0111575)
(-0.0502011 -0.00871544 0.0686104)
(0.0860642 0.0725994 0.0497892)
(-0.0299023 0.112292 0.0637236)
(0.076532 0.111272 -0.0362495)
(0.0579741 -0.01497 0.0662407)
(-0.0154799 -0.0320382 -0.049069)
(-0.00128631 0.0776347 0.0914402)
(-0.00401143 0.10117 0.0760271)
(0.0161312 0.131872 0.0461292)
(0.111429 -0.0122303 0.0583342)
(0.00787651 -0.00809255 -0.0742719)
(0.128756 0.0670455 -0.0608991)
(0.100643 0.0675944 -0.0682897)
(-0.0241822 0.043271 -0.00713378)
(0.123799 -0.0520149 0.0616343)
(0.0626188 -0.0667388 -0.0944004)
(-0.0665322 -0.0875688 -0.0476723)
(-0.067418 -0.0733735 0.0414724)
(-0.00391197 -0.356639 -0.00847581)
(0.0315531 0.1219 0.0328597)
(0.043918 0.111624 -0.055741)
(-0.0165977 0.0103127 0.0928273)
(-0.050326 0.091168 0.0646909)
(0.10555 0.0680571 0.0207332)
(-0.0717004 0.0622394 0.0420591)
(0.0112847 -0.0578517 0.00587075)
(0.0936852 0.0615976 -0.07357)
(0.0184021 -0.055509 -0.0201272)
(0.11602 -0.00310016 -0.0553473)
(6.19234e-05 -0.0443318 0.0314698)
(-0.00662475 -0.0428575 0.0253558)
(0.00899624 0.0294938 0.0840728)
(0.0778405 0.0884617 0.0564531)
(0.0175311 0.0853546 0.00572339)
(0.0813853 0.00724537 -0.0905495)
(0.0287696 0.0352439 -0.0703378)
(0.06825 -0.0745457 -0.0877276)
(-0.00176279 -0.0879818 0.096649)
(0.0234763 -0.278972 -0.0916641)
(0.0576874 -0.013815 -0.0687419)
(0.0884827 0.0731684 -0.0241639)
(-0.0501509 -0.0480643 -0.0110481)
(-0.0660272 0.0307015 -0.069118)
(-0.0374474 -0.0473636 -0.027076)
(-0.0302158 0.00463461 0.0827316)
(0.0471446 0.130398 0.0176644)
(0.0859449 -0.00748031 -0.0718684)
(0.115438 0.079072 0.0436451)
(0.122727 0.00595044 0.057903)
(0.0968157 -0.0448583 0.0510965)
(0.100239 -0.0540737 -0.0461214)
(0.0467899 0.116343 -0.00310715)
(-0.0127864 0.0751563 0.000373853)
(-0.0139771 0.0665732 0.0145446)
(0.109041 0.0316317 0.0701443)
(0.0303012 -0.112203 -0.0450248)
(0.0150473 -0.0876819 0.0898661)
(-0.024155 -0.0346555 -0.0674632)
(-0.0290809 -0.36075 0.0218948)
(0.0184671 0.135161 -0.0362429)
(0.0799844 0.0230772 0.0497981)
(0.0464232 -0.0262478 -0.057826)
(0.0640968 -0.0436919 -0.0102219)
(0.0956433 0.0663388 -0.0408544)
(-0.0261893 -0.0298691 -0.0665135)
(-0.00860821 0.0706446 0.0847338)
(0.113065 -0.026971 0.0223397)
(-0.0113629 0.107955 0.0264579)
(0.0982307 0.0615824 -0.0789346)
(0.125824 -0.00733525 -0.0650797)
(0.11084 0.0953918 -0.0443317)
(0.120878 -0.0671083 0.0127719)
(-0.00231645 -0.0512157 -0.0337328)
(0.0452988 -0.0147721 0.0956621)
(-0.00515194 -0.060018 -0.046893)
(-0.0336842 -0.0586326 -0.0304008)
(0.0611618 0.0175128 -0.0828654)
(0.0791929 -0.153322 0.0279268)
(-0.0694894 -0.327092 -0.0291251)
(-0.0491293 -0.0510444 0.0609739)
(-0.0320389 -0.0395511 0.0842212)
(0.0331037 -0.0256259 -0.0869614)
(0.0833456 0.0243584 -0.067932)
(0.036917 -0.038354 -0.0828431)
(0.0465213 -0.0296149 -0.08821)
(-0.0473892 -0.0271179 -0.00636465)
(0.0542361 0.0475687 -0.0944625)
(0.0365221 0.0883118 -0.0618363)
(0.13789 0.0857997 0.0252689)
(0.0580155 -0.0529229 0.0710624)
(0.0957421 0.0800001 0.073151)
(0.0836476 0.0540648 0.0890921)
(0.121156 -0.0093285 0.0964014)
(0.188108 -0.026638 -0.0423493)
(0.170593 -0.0425151 0.0611307)
(0.0635948 0.0685284 0.0615907)
(0.175113 -0.0749965 0.0476604)
(-0.0585091 -0.0353856 0.0468934)
(0.102208 -0.165647 -0.0738433)
(0.0820153 0.145037 0.0746004)
(-0.00228941 0.0123523 -0.0514017)
(0.0214578 0.0223739 -0.0725404)
(0.173464 0.00165903 -0.0712521)
(0.111282 -0.0418597 0.0759319)
(0.217018 0.0815633 0.00630887)
(0.103487 -0.0502119 -0.0572481)
(0.142974 0.0740059 -0.0745208)
(0.0992784 0.0356256 0.0545303)
(0.10272 -0.028489 0.0298635)
(0.17034 -0.0721217 -0.0513068)
(0.248592 0.0837475 0.0519923)
(0.184408 -0.0553706 -0.0704514)
(0.171449 -0.0192062 0.0794284)
(0.271986 0.00858587 -0.0916547)
(0.264149 0.0798778 -0.0587342)
(0.180816 0.0523087 -0.0706607)
(0.348591 0.0207402 -0.000365736)
(0.191155 -0.0276839 0.0680984)
(0.315253 -0.175244 -0.0096982)
)
;

boundaryField
{
    movingWall
    {
        type            fixedValue;
        value           uniform (1 0 0);
    }
    fixedWalls
    {
        type            noSlip;
    }
    frontAndBack
    {
        type            empty;
    }
}


// ************************************************************************* //
