/*--------------------------------*- C++ -*----------------------------------*\
| =========                 |                                                 |
| \\      /  F ield         | OpenFOAM: The Open Source CFD Toolbox           |
|  \\    /   O peration     | Version:  2312                                  |
|   \\  /    A nd           | Website:  www.openfoam.com                      |
|    \\/     M anipulation  |                                                 |
\*---------------------------------------------------------------------------*/
FoamFile
{
    version     2.0;
    format      ascii;
    arch        "LSB;label=32;scalar=64";
    class       volScalarField;
    location    "1.75";
    object      Ux;
}
// * * * * * * * * * * * * * * * * * * * * * * * * * * * * * * * * * * * * * //

dimensions      [0 1 -1 0 0 0 0];

internalField   nonuniform List<scalar> 
400
(
-0.000332123
-0.00234967
-0.00603033
-0.0103098
-0.014935
-0.019863
-0.0250878
-0.0304522
-0.0355883
-0.0399365
-0.0428462
-0.0438383
-0.0422194
-0.0376608
-0.0304586
-0.0215212
-0.0123837
-0.00468779
-0.000193182
0.000678613
-0.00126023
-0.00499692
-0.0100703
-0.0158357
-0.0220562
-0.0285801
-0.0351611
-0.0413777
-0.046796
-0.051141
-0.0542258
-0.0556885
-0.0547758
-0.0506093
-0.0429099
-0.0321804
-0.0200777
-0.00923103
-0.00210697
0.000178212
-0.00213859
-0.00681631
-0.0122672
-0.0183753
-0.0249728
-0.0318798
-0.0388089
-0.0453715
-0.0514205
-0.0571696
-0.062827
-0.068023
-0.0714056
-0.0707601
-0.0643655
-0.0518904
-0.0347191
-0.016388
-0.00294087
0.000537292
-0.00259086
-0.00778134
-0.0133751
-0.019492
-0.0260799
-0.0330277
-0.0401632
-0.0473948
-0.0552179
-0.0647149
-0.0766336
-0.0897494
-0.100666
-0.105841
-0.102204
-0.0891437
-0.0672504
-0.038906
-0.00947395
0.00140776
-0.0026947
-0.00801948
-0.0135515
-0.0195003
-0.0259254
-0.0328283
-0.0402997
-0.0488007
-0.0598014
-0.0751189
-0.0946828
-0.114391
-0.128479
-0.134174
-0.132845
-0.123375
-0.10357
-0.0721762
-0.0325786
0.000126884
-0.0025558
-0.00767892
-0.0129328
-0.0185214
-0.0245913
-0.0312963
-0.0390079
-0.0485709
-0.0618951
-0.080415
-0.101711
-0.119929
-0.131181
-0.13587
-0.134842
-0.130355
-0.119973
-0.0973637
-0.0586434
-0.0106377
-0.00224278
-0.00688682
-0.0116336
-0.0166324
-0.0220783
-0.0282304
-0.0355759
-0.0449886
-0.0582932
-0.0754999
-0.0931033
-0.105623
-0.110613
-0.109198
-0.106614
-0.105167
-0.104732
-0.0975854
-0.072189
-0.027627
-0.00180248
-0.0057397
-0.00976223
-0.0139348
-0.0184451
-0.0235554
-0.0296629
-0.0373222
-0.0475791
-0.0599812
-0.071436
-0.0776484
-0.0771931
-0.0734871
-0.0695914
-0.0674782
-0.0698131
-0.074361
-0.0664169
-0.0334094
-0.00127856
-0.00433672
-0.00745777
-0.0106054
-0.0139033
-0.0175165
-0.021615
-0.0262629
-0.0318097
-0.0374587
-0.0428839
-0.0450906
-0.0439184
-0.0416265
-0.0389009
-0.0366545
-0.0370864
-0.0438195
-0.0479726
-0.0296214
-0.000720979
-0.00279675
-0.00490674
-0.00691406
-0.00883408
-0.0106787
-0.012411
-0.0136466
-0.0139777
-0.0132828
-0.0124385
-0.0115653
-0.0108998
-0.0110028
-0.0110355
-0.012213
-0.0139999
-0.0196781
-0.0280946
-0.0216069
-0.000180808
-0.00124886
-0.0023163
-0.00315781
-0.00367898
-0.00375898
-0.00319561
-0.00146295
0.00248397
0.00858328
0.0151327
0.0196204
0.0215625
0.0199208
0.0161215
0.00988043
0.00372811
-0.00392691
-0.013371
-0.0149454
0.000314637
0.000159475
9.32121e-05
0.000355274
0.00112476
0.00258231
0.00500634
0.00896661
0.0155778
0.0247748
0.0353014
0.0433376
0.0474232
0.0459967
0.0388708
0.0281726
0.0177021
0.00676473
-0.00402597
-0.011842
0.000616287
0.0012874
0.00211523
0.00336015
0.00523352
0.00792085
0.0116904
0.0169843
0.0246427
0.0348789
0.0464196
0.0561017
0.0612815
0.0601503
0.0524435
0.0400597
0.0271038
0.0136475
0.00120793
-0.0111634
0.000786943
0.00202469
0.00357381
0.00564856
0.00843757
0.0120747
0.0167469
0.022723
0.0304495
0.0401603
0.0508543
0.0600895
0.0650811
0.0643176
0.057352
0.0456806
0.0322464
0.0174775
0.00380707
-0.0116923
0.00069821
0.00217048
0.00425917
0.00702289
0.0105753
0.0149701
0.020284
0.026616
0.0340918
0.0427204
0.0518111
0.0596677
0.0640845
0.0636777
0.0579409
0.047832
0.0350124
0.019835
0.00612166
-0.0122812
9.3355e-05
0.00156647
0.0039998
0.00730068
0.0115027
0.0165497
0.0224158
0.0290501
0.0363692
0.044152
0.0518349
0.0583499
0.0621879
0.0621539
0.0576387
0.0492451
0.0371146
0.0233172
0.0112486
-0.011566
-0.00106577
-0.000947225
0.00194637
0.00602466
0.0110329
0.0168376
0.0233456
0.0304213
0.0378745
0.0453903
0.0524543
0.0583084
0.0620631
0.0625667
0.0590533
0.0521032
0.0401732
0.0320385
0.0190782
-0.0080019
-0.00339794
-0.00374338
0.000183191
0.00499389
0.0106511
0.0172885
0.024699
0.0326063
0.0407379
0.0487638
0.0562191
0.0625025
0.0667159
0.0682777
0.0663373
0.0616372
0.0497309
0.0521615
0.0227775
0.00510686
-0.00641076
-0.00971553
-0.000108675
0.0106301
0.0214983
0.0324317
0.0430775
0.053412
0.0634294
0.0730424
0.0820075
0.0899944
0.096515
0.101386
0.10357
0.104965
0.0949851
0.105642
0.0295823
0.0711681
0.0405393
0.0613657
0.0868576
0.108914
0.126225
0.140942
0.154476
0.167204
0.179182
0.19046
0.201013
0.21074
0.219397
0.226916
0.232182
0.237554
0.230604
0.251481
0.124917
0.378116
)
;

boundaryField
{
    movingWall
    {
        type            calculated;
        value           uniform 1;
    }
    fixedWalls
    {
        type            calculated;
        value           uniform 0;
    }
    frontAndBack
    {
        type            empty;
    }
}


// ************************************************************************* //
