/*--------------------------------*- C++ -*----------------------------------*\
| =========                 |                                                 |
| \\      /  F ield         | OpenFOAM: The Open Source CFD Toolbox           |
|  \\    /   O peration     | Version:  2312                                  |
|   \\  /    A nd           | Website:  www.openfoam.com                      |
|    \\/     M anipulation  |                                                 |
\*---------------------------------------------------------------------------*/
FoamFile
{
    version     2.0;
    format      ascii;
    arch        "LSB;label=32;scalar=64";
    class       volScalarField;
    location    "1.75";
    object      Uy;
}
// * * * * * * * * * * * * * * * * * * * * * * * * * * * * * * * * * * * * * //

dimensions      [0 1 -1 0 0 0 0];

internalField   nonuniform List<scalar> 
400
(
0.000313452
0.00114351
0.00169445
0.00192492
0.00206374
0.00224413
0.00247187
0.00264145
0.00258299
0.00216366
0.00134805
0.000158511
-0.00144309
-0.00307057
-0.00441511
-0.00495412
-0.00444579
-0.00293388
-0.000995777
0.000472939
0.00242069
0.00506381
0.00660146
0.00736321
0.00785976
0.00826427
0.00844406
0.0081125
0.00706799
0.0053036
0.00283755
-0.000403657
-0.00441821
-0.0088236
-0.0125481
-0.0143863
-0.0133984
-0.00953998
-0.00432396
5.91851e-05
0.00632065
0.0100946
0.0122897
0.0136224
0.0145358
0.0150979
0.0150357
0.0140553
0.0121598
0.00950894
0.00596297
0.00102498
-0.00556062
-0.0133639
-0.0209971
-0.0261074
-0.0261895
-0.0198547
-0.00966437
-0.00105666
0.0110219
0.0155242
0.0181173
0.0199108
0.0212219
0.0219818
0.0218422
0.020666
0.0188584
0.0168797
0.0142805
0.00935078
-3.65439e-05
-0.0141213
-0.0301117
-0.0430078
-0.0480022
-0.0405523
-0.0209607
-0.00191
0.0160968
0.0211764
0.0240042
0.0261708
0.0278977
0.0290279
0.0293351
0.029173
0.0296495
0.0311504
0.0311961
0.0247435
0.00913147
-0.0137632
-0.0395217
-0.0631233
-0.0781373
-0.0760818
-0.0496837
-0.00929865
0.0211351
0.0267203
0.0297097
0.0322166
0.0344405
0.0362735
0.0378302
0.0401682
0.0447738
0.050507
0.0514369
0.0411569
0.0186189
-0.0120195
-0.0446343
-0.0763608
-0.103059
-0.115104
-0.0944965
-0.0289282
0.0258075
0.0318758
0.0349917
0.0378019
0.0405906
0.0434094
0.046757
0.0521755
0.0609748
0.069427
0.0687965
0.053072
0.0242334
-0.00999797
-0.0444869
-0.0777316
-0.111267
-0.140513
-0.142303
-0.0742442
0.0298462
0.0363988
0.0396106
0.0426585
0.0459779
0.0498041
0.0549057
0.0630034
0.0747151
0.0837198
0.0803758
0.0593553
0.0251955
-0.0118669
-0.0456887
-0.0756299
-0.106633
-0.144997
-0.175959
-0.128566
0.0330462
0.0400821
0.0433454
0.0465175
0.0502001
0.0547556
0.0609865
0.0704752
0.0832736
0.0915521
0.0861848
0.0613367
0.023454
-0.0158868
-0.0504385
-0.0779565
-0.102458
-0.13673
-0.186452
-0.178851
0.0352754
0.0427752
0.0460362
0.0491745
0.0529384
0.0577119
0.0641879
0.073603
0.0857101
0.0929277
0.0874541
0.0623108
0.0241541
-0.0165735
-0.0523851
-0.0796067
-0.101312
-0.128405
-0.182387
-0.214154
0.036498
0.0444103
0.0475999
0.0505248
0.0540457
0.0585109
0.0644036
0.0724927
0.0825144
0.088785
0.0837067
0.0621817
0.0265227
-0.0132957
-0.048835
-0.0757685
-0.0968393
-0.121965
-0.1746
-0.233964
0.0366944
0.0450045
0.0480469
0.05061
0.0536237
0.0573785
0.062127
0.0681905
0.0753944
0.0798302
0.0751011
0.0574935
0.0276634
-0.00768942
-0.0410837
-0.0672973
-0.0881072
-0.112363
-0.165683
-0.245037
0.0361192
0.0446471
0.0474655
0.0495499
0.051886
0.0547226
0.0581381
0.062118
0.0663005
0.0683272
0.0636466
0.0495228
0.0257031
-0.00323335
-0.0315029
-0.0557384
-0.0762288
-0.100015
-0.154849
-0.251431
0.0349562
0.043531
0.0460152
0.0475193
0.0490912
0.0509545
0.0530853
0.0552939
0.0570843
0.0570153
0.0524625
0.0412413
0.023163
0.000936173
-0.0219303
-0.0432533
-0.0625966
-0.0859093
-0.142022
-0.25528
0.0333559
0.0417804
0.0438076
0.0446475
0.0454259
0.0463718
0.0474174
0.0483065
0.0485582
0.0472245
0.042932
0.0343498
0.0211227
0.00458566
-0.0133409
-0.0312747
-0.0486708
-0.0711964
-0.126964
-0.257351
0.0328468
0.040215
0.0412778
0.0412254
0.0411264
0.0411927
0.0413533
0.0413554
0.0407827
0.0389905
0.0352245
0.028804
0.0193735
0.00742486
-0.00607094
-0.0204639
-0.0353461
-0.0576664
-0.11011
-0.259744
0.0288772
0.0355067
0.036575
0.0362907
0.0358023
0.0353179
0.0348912
0.0343772
0.0334759
0.0317628
0.0287706
0.0241225
0.0175649
0.00941615
-0.000172705
-0.0112387
-0.0234601
-0.047242
-0.0944852
-0.26548
0.0445612
0.045656
0.0409683
0.0363228
0.0330636
0.0308404
0.0292827
0.0280497
0.0268035
0.0252182
0.0229932
0.0199054
0.015978
0.0110624
0.00538096
-0.00222299
-0.012614
-0.0377351
-0.0756217
-0.267199
0.0157187
0.00952492
0.010907
0.0144737
0.0154909
0.0153349
0.015016
0.0147639
0.0144723
0.0139923
0.0132173
0.0120597
0.01051
0.00844608
0.00591731
0.00171195
-0.00372974
-0.0211244
-0.041783
-0.225511
0.0929361
0.0698492
0.0438392
0.0291622
0.0214732
0.0169664
0.0139963
0.0118808
0.0102909
0.00906077
0.00804549
0.007171
0.00637387
0.00558292
0.00470199
0.00343834
0.00202655
-0.00312537
0.00354287
-0.0980799
)
;

boundaryField
{
    movingWall
    {
        type            calculated;
        value           uniform 0;
    }
    fixedWalls
    {
        type            calculated;
        value           uniform 0;
    }
    frontAndBack
    {
        type            empty;
    }
}


// ************************************************************************* //
