/*--------------------------------*- C++ -*----------------------------------*\
| =========                 |                                                 |
| \\      /  F ield         | OpenFOAM: The Open Source CFD Toolbox           |
|  \\    /   O peration     | Version:  2312                                  |
|   \\  /    A nd           | Website:  www.openfoam.com                      |
|    \\/     M anipulation  |                                                 |
\*---------------------------------------------------------------------------*/
FoamFile
{
    version     2.0;
    format      ascii;
    arch        "LSB;label=32;scalar=64";
    class       volVectorField;
    location    "1.75";
    object      vorticityField;
}
// * * * * * * * * * * * * * * * * * * * * * * * * * * * * * * * * * * * * * //

dimensions      [0 0 -1 0 0 0 0];

internalField   nonuniform List<vector> 
400
(
(0 -0 0.304932)
(0 -0 0.872758)
(0 -0 1.6882)
(0 -0 2.65147)
(0 -0 3.73104)
(0 -0 4.88512)
(0 -0 6.06461)
(0 -0 7.1941)
(0 -0 8.19065)
(0 -0 8.98425)
(0 -0 9.50669)
(0 -0 9.67357)
(0 -0 9.37662)
(0 -0 8.52981)
(0 -0 7.14849)
(0 -0 5.3671)
(0 -0 3.44816)
(0 -0 1.73688)
(0 -0 0.570697)
(0 -0 -0.0333988)
(0 -0 0.929097)
(0 -0 0.864741)
(0 -0 0.853627)
(0 -0 0.93238)
(0 -0 1.09389)
(0 -0 1.26012)
(0 -0 1.35693)
(0 -0 1.35433)
(0 -0 1.30232)
(0 -0 1.30027)
(0 -0 1.42735)
(0 -0 1.6929)
(0 -0 2.07662)
(0 -0 2.49695)
(0 -0 2.83442)
(0 -0 2.95189)
(0 -0 2.71817)
(0 -0 2.07746)
(0 -0 1.23469)
(0 -0 0.44061)
(0 -0 1.77458)
(0 -0 0.875347)
(0 -0 0.68327)
(0 -0 0.590233)
(0 -0 0.549917)
(0 -0 0.494752)
(0 -0 0.395955)
(0 -0 0.314122)
(0 -0 0.387555)
(0 -0 0.737696)
(0 -0 1.39238)
(0 -0 2.25373)
(0 -0 3.15017)
(0 -0 3.97948)
(0 -0 4.65508)
(0 -0 5.17709)
(0 -0 5.34254)
(0 -0 4.62001)
(0 -0 2.6165)
(0 -0 0.949149)
(0 -0 2.71022)
(0 -0 0.829863)
(0 -0 0.567085)
(0 -0 0.422952)
(0 -0 0.302361)
(0 -0 0.156877)
(0 -0 0.0175018)
(0 -0 0.0445446)
(0 -0 0.459467)
(0 -0 1.33714)
(0 -0 2.43269)
(0 -0 3.20507)
(0 -0 3.36011)
(0 -0 3.33384)
(0 -0 3.95933)
(0 -0 5.35943)
(0 -0 7.13068)
(0 -0 8.28296)
(0 -0 6.828)
(0 -0 2.32812)
(0 -0 3.72382)
(0 -0 0.780491)
(0 -0 0.455204)
(0 -0 0.292304)
(0 -0 0.13685)
(0 -0 -0.0294046)
(0 -0 -0.101032)
(0 -0 0.149058)
(0 -0 0.865466)
(0 -0 1.72467)
(0 -0 1.86701)
(0 -0 0.811514)
(0 -0 -0.799177)
(0 -0 -1.86238)
(0 -0 -1.67224)
(0 -0 0.259552)
(0 -0 3.97642)
(0 -0 8.69112)
(0 -0 11.5953)
(0 -0 7.10279)
(0 -0 4.74035)
(0 -0 0.744197)
(0 -0 0.357842)
(0 -0 0.186286)
(0 -0 0.0209809)
(0 -0 -0.120815)
(0 -0 -0.0829184)
(0 -0 0.313142)
(0 -0 0.883054)
(0 -0 0.704402)
(0 -0 -1.09296)
(0 -0 -4.15856)
(0 -0 -7.10417)
(0 -0 -8.82286)
(0 -0 -9.05731)
(0 -0 -7.66335)
(0 -0 -3.75812)
(0 -0 3.3972)
(0 -0 12.5786)
(0 -0 15.1179)
(0 -0 5.693)
(0 -0 0.724496)
(0 -0 0.275557)
(0 -0 0.101229)
(0 -0 -0.0538693)
(0 -0 -0.157448)
(0 -0 -0.0578923)
(0 -0 0.296901)
(0 -0 0.293548)
(0 -0 -1.26121)
(0 -0 -4.66295)
(0 -0 -8.68438)
(0 -0 -11.7058)
(0 -0 -13.1103)
(0 -0 -13.2984)
(0 -0 -12.9657)
(0 -0 -11.2941)
(0 -0 -5.40389)
(0 -0 7.40425)
(0 -0 23.9319)
(0 -0 6.52808)
(0 -0 0.721426)
(0 -0 0.208387)
(0 -0 0.0340313)
(0 -0 -0.102946)
(0 -0 -0.1786)
(0 -0 -0.0761451)
(0 -0 0.108363)
(0 -0 -0.576715)
(0 -0 -3.23804)
(0 -0 -7.45838)
(0 -0 -11.5713)
(0 -0 -13.7917)
(0 -0 -13.8456)
(0 -0 -13.1476)
(0 -0 -12.9456)
(0 -0 -13.7013)
(0 -0 -12.3093)
(0 -0 -0.778532)
(0 -0 30.6519)
(0 -0 7.20468)
(0 -0 0.735626)
(0 -0 0.157989)
(0 -0 -0.0166085)
(0 -0 -0.137295)
(0 -0 -0.20903)
(0 -0 -0.153226)
(0 -0 -0.138845)
(0 -0 -1.25246)
(0 -0 -4.37871)
(0 -0 -8.92129)
(0 -0 -12.8814)
(0 -0 -14.3517)
(0 -0 -13.6377)
(0 -0 -12.0626)
(0 -0 -10.7284)
(0 -0 -11.4587)
(0 -0 -13.8677)
(0 -0 -8.04439)
(0 -0 35.3501)
(0 -0 7.69528)
(0 -0 0.767295)
(0 -0 0.125779)
(0 -0 -0.0545465)
(0 -0 -0.168689)
(0 -0 -0.250804)
(0 -0 -0.252831)
(0 -0 -0.327763)
(0 -0 -1.49689)
(0 -0 -4.4298)
(0 -0 -8.86336)
(0 -0 -12.8011)
(0 -0 -14.4365)
(0 -0 -13.8087)
(0 -0 -11.8056)
(0 -0 -9.54622)
(0 -0 -8.9613)
(0 -0 -12.0967)
(0 -0 -12.035)
(0 -0 38.1865)
(0 -0 7.98726)
(0 -0 0.814571)
(0 -0 0.111453)
(0 -0 -0.0823547)
(0 -0 -0.197269)
(0 -0 -0.290305)
(0 -0 -0.343551)
(0 -0 -0.450251)
(0 -0 -1.32632)
(0 -0 -3.68653)
(0 -0 -7.43431)
(0 -0 -11.2087)
(0 -0 -13.38)
(0 -0 -13.2357)
(0 -0 -11.2379)
(0 -0 -8.83899)
(0 -0 -7.78988)
(0 -0 -10.4204)
(0 -0 -13.6067)
(0 -0 39.8799)
(0 -0 8.09018)
(0 -0 0.881632)
(0 -0 0.117388)
(0 -0 -0.0941184)
(0 -0 -0.214391)
(0 -0 -0.317656)
(0 -0 -0.407408)
(0 -0 -0.51799)
(0 -0 -1.0519)
(0 -0 -2.65889)
(0 -0 -5.36236)
(0 -0 -8.39191)
(0 -0 -10.4902)
(0 -0 -10.8977)
(0 -0 -9.59298)
(0 -0 -7.72027)
(0 -0 -6.8441)
(0 -0 -9.51498)
(0 -0 -14.7253)
(0 -0 40.6938)
(0 -0 8.0294)
(0 -0 0.948111)
(0 -0 0.142217)
(0 -0 -0.0872788)
(0 -0 -0.21401)
(0 -0 -0.324035)
(0 -0 -0.434514)
(0 -0 -0.559393)
(0 -0 -0.86626)
(0 -0 -1.80395)
(0 -0 -3.43572)
(0 -0 -5.46954)
(0 -0 -7.04141)
(0 -0 -7.55269)
(0 -0 -7.09862)
(0 -0 -6.22339)
(0 -0 -5.88212)
(0 -0 -8.93333)
(0 -0 -15.9249)
(0 -0 40.6131)
(0 -0 7.84052)
(0 -0 1.0176)
(0 -0 0.184438)
(0 -0 -0.0586737)
(0 -0 -0.19065)
(0 -0 -0.305511)
(0 -0 -0.425424)
(0 -0 -0.563273)
(0 -0 -0.772769)
(0 -0 -1.24633)
(0 -0 -2.11655)
(0 -0 -3.28655)
(0 -0 -4.31081)
(0 -0 -4.86208)
(0 -0 -4.96869)
(0 -0 -4.84386)
(0 -0 -5.05646)
(0 -0 -8.5613)
(0 -0 -17.4284)
(0 -0 39.842)
(0 -0 7.58299)
(0 -0 1.09099)
(0 -0 0.244119)
(0 -0 -0.0033795)
(0 -0 -0.134089)
(0 -0 -0.24835)
(0 -0 -0.373423)
(0 -0 -0.51862)
(0 -0 -0.700158)
(0 -0 -0.96178)
(0 -0 -1.38554)
(0 -0 -2.00698)
(0 -0 -2.68709)
(0 -0 -3.22999)
(0 -0 -3.61471)
(0 -0 -3.88945)
(0 -0 -4.47898)
(0 -0 -8.41332)
(0 -0 -19.3596)
(0 -0 38.4189)
(0 -0 7.48258)
(0 -0 1.15487)
(0 -0 0.332328)
(0 -0 0.0846837)
(0 -0 -0.049033)
(0 -0 -0.164071)
(0 -0 -0.289892)
(0 -0 -0.437584)
(0 -0 -0.614753)
(0 -0 -0.8228)
(0 -0 -1.08297)
(0 -0 -1.44916)
(0 -0 -1.93577)
(0 -0 -2.43335)
(0 -0 -2.90012)
(0 -0 -3.35464)
(0 -0 -4.23632)
(0 -0 -8.69678)
(0 -0 -21.5034)
(0 -0 36.5575)
(0 -0 6.78752)
(0 -0 1.30077)
(0 -0 0.460056)
(0 -0 0.153404)
(0 -0 -0.0121131)
(0 -0 -0.164989)
(0 -0 -0.322383)
(0 -0 -0.497151)
(0 -0 -0.69831)
(0 -0 -0.931712)
(0 -0 -1.20245)
(0 -0 -1.53583)
(0 -0 -1.92344)
(0 -0 -2.38614)
(0 -0 -2.93534)
(0 -0 -3.56794)
(0 -0 -4.86196)
(0 -0 -9.98694)
(0 -0 -22.9767)
(0 -0 34.3293)
(0 -0 9.55622)
(0 -0 0.517549)
(0 -0 -0.727818)
(0 -0 -1.25102)
(0 -0 -1.59478)
(0 -0 -1.9375)
(0 -0 -2.25226)
(0 -0 -2.54699)
(0 -0 -2.83864)
(0 -0 -3.14625)
(0 -0 -3.4866)
(0 -0 -3.87012)
(0 -0 -4.32949)
(0 -0 -4.94165)
(0 -0 -5.78018)
(0 -0 -7.08572)
(0 -0 -9.0324)
(0 -0 -13.6611)
(0 -0 -23.9968)
(0 -0 26.3651)
(0 -0 -1.86937)
(0 -0 -6.99208)
(0 -0 -8.17256)
(0 -0 -9.93363)
(0 -0 -11.4712)
(0 -0 -12.4129)
(0 -0 -13.0348)
(0 -0 -13.5141)
(0 -0 -13.9216)
(0 -0 -14.2951)
(0 -0 -14.6726)
(0 -0 -15.0944)
(0 -0 -15.6295)
(0 -0 -16.3231)
(0 -0 -17.2579)
(0 -0 -18.5563)
(0 -0 -20.3709)
(0 -0 -23.7373)
(0 -0 -30.6526)
(0 -0 -10.5715)
(0 -0 -180.309)
(0 -0 -199.745)
(0 -0 -195.394)
(0 -0 -190.282)
(0 -0 -186.447)
(0 -0 -183.41)
(0 -0 -180.753)
(0 -0 -178.309)
(0 -0 -176.021)
(0 -0 -173.874)
(0 -0 -171.887)
(0 -0 -170.094)
(0 -0 -168.568)
(0 -0 -167.337)
(0 -0 -166.639)
(0 -0 -166.016)
(0 -0 -168.098)
(0 -0 -164.136)
(0 -0 -194.046)
(0 -0 -145.618)
)
;

boundaryField
{
    movingWall
    {
        type            calculated;
        value           nonuniform List<vector> 
20
(
(0 -0 -367.506)
(0 -0 -380.363)
(0 -0 -369.326)
(0 -0 -358.671)
(0 -0 -350.73)
(0 -0 -344.371)
(0 -0 -338.718)
(0 -0 -333.489)
(0 -0 -328.609)
(0 -0 -324.041)
(0 -0 -319.784)
(0 -0 -315.871)
(0 -0 -312.4)
(0 -0 -309.401)
(0 -0 -307.342)
(0 -0 -305.246)
(0 -0 -308.415)
(0 -0 -299.256)
(0 -0 -359.529)
(0 -0 -239.3)
)
;
    }
    fixedWalls
    {
        type            calculated;
        value           nonuniform List<vector> 
60
(
(0 -0 0.284616)
(0 -0 1.14892)
(0 -0 2.66132)
(0 -0 4.46437)
(0 -0 6.43522)
(0 -0 8.40886)
(0 -0 10.2477)
(0 -0 11.8421)
(0 -0 13.1103)
(0 -0 14.0004)
(0 -0 14.4956)
(0 -0 14.598)
(0 -0 14.4005)
(0 -0 13.9743)
(0 -0 13.4117)
(0 -0 13.3151)
(0 -0 11.9)
(0 -0 18.359)
(0 -0 1.89374)
(0 -0 -159.413)
(0 -0 -0.274858)
(0 -0 -0.00954189)
(0 -0 0.299711)
(0 -0 0.805042)
(0 -0 4.92401)
(0 -0 14.3467)
(0 -0 31.9748)
(0 -0 51.6257)
(0 -0 70.3603)
(0 -0 84.194)
(0 -0 92.609)
(0 -0 97.6366)
(0 -0 100.558)
(0 -0 102.224)
(0 -0 102.928)
(0 -0 103.47)
(0 -0 104.525)
(0 -0 98.9627)
(0 -0 52.9036)
(0 -0 -115.84)
(0 -0 0.278546)
(0 -0 1.07797)
(0 -0 2.49027)
(0 -0 4.16084)
(0 -0 6.00592)
(0 -0 7.98601)
(0 -0 10.0748)
(0 -0 12.192)
(0 -0 14.1876)
(0 -0 15.8511)
(0 -0 16.938)
(0 -0 17.2562)
(0 -0 16.5649)
(0 -0 14.7671)
(0 -0 11.9951)
(0 -0 8.60542)
(0 -0 5.15549)
(0 -0 2.22012)
(0 -0 0.417954)
(0 -0 -0.219162)
)
;
    }
    frontAndBack
    {
        type            empty;
    }
}


// ************************************************************************* //
