/*--------------------------------*- C++ -*----------------------------------*\
| =========                 |                                                 |
| \\      /  F ield         | OpenFOAM: The Open Source CFD Toolbox           |
|  \\    /   O peration     | Version:  2312                                  |
|   \\  /    A nd           | Website:  www.openfoam.com                      |
|    \\/     M anipulation  |                                                 |
\*---------------------------------------------------------------------------*/
FoamFile
{
    version     2.0;
    format      ascii;
    arch        "LSB;label=32;scalar=64";
    class       volScalarField;
    location    "1.75";
    object      zeroGradient(epsilon);
}
// * * * * * * * * * * * * * * * * * * * * * * * * * * * * * * * * * * * * * //

dimensions      [0 2 -3 0 0 0 0];

internalField   nonuniform List<scalar> 
400
(
0.000102969
0.000197012
0.000334052
0.000489512
0.000663656
0.000862415
0.00108673
0.00132426
0.00154788
0.00169188
0.00174723
0.00175097
0.00164913
0.00146842
0.00123428
0.0009318
0.000629619
0.000367704
0.000181259
0.000102134
0.000183212
0.000186449
0.000256049
0.000328193
0.000399473
0.000472797
0.000545842
0.000610234
0.000658691
0.000694476
0.000738341
0.00081278
0.000933844
0.00102337
0.00105528
0.0009711
0.000740882
0.000437615
0.000223487
0.000165025
0.000332923
0.000229853
0.000275302
0.000332932
0.000383064
0.000428586
0.000475704
0.000534025
0.000621464
0.00075933
0.000979991
0.001318
0.00175148
0.00221669
0.00244026
0.00246374
0.00206341
0.00126846
0.000494701
0.000258513
0.000503481
0.000288636
0.00031071
0.000357593
0.000405182
0.000456208
0.000521992
0.000630878
0.000833772
0.00120095
0.00179061
0.00252125
0.0032033
0.00378123
0.00433751
0.0047618
0.00495664
0.00382452
0.0016115
0.000426842
0.000683605
0.000344187
0.000346776
0.000393666
0.000450019
0.000522749
0.000643274
0.000878189
0.00133023
0.00205806
0.00285413
0.00331854
0.00360684
0.0040092
0.00459828
0.00544275
0.00658405
0.0074743
0.00534083
0.00147945
0.00086523
0.000392614
0.000379974
0.000429419
0.000503017
0.00061821
0.000830446
0.00123783
0.00191551
0.00262241
0.00289008
0.00296587
0.00295414
0.00309254
0.00364241
0.00469058
0.00646133
0.00896353
0.0108972
0.00648407
0.00104046
0.000434478
0.000407464
0.000460835
0.000554775
0.000716239
0.00101748
0.00155587
0.00228228
0.00258587
0.00259568
0.00220963
0.00201119
0.00196463
0.00225904
0.00316673
0.00506695
0.008632
0.0140501
0.0166081
0.00120174
0.000469623
0.000427721
0.000483938
0.000594853
0.000791682
0.00114909
0.00174087
0.0022995
0.00243386
0.00208065
0.0015798
0.00134584
0.00126149
0.00137474
0.0019834
0.00341334
0.00685057
0.0148786
0.025697
0.00134198
0.000498086
0.000440303
0.000496027
0.000615191
0.000825738
0.0011899
0.00175639
0.00220478
0.00218925
0.00172591
0.00123063
0.00100758
0.000929395
0.00102259
0.00147723
0.00258903
0.00573248
0.0142376
0.0312039
0.00145534
0.000520377
0.00044552
0.000495142
0.000612098
0.000817458
0.00116472
0.00168732
0.00206299
0.0020335
0.00156866
0.0010943
0.000875646
0.00081315
0.000918724
0.00130521
0.00221396
0.00482118
0.0134413
0.0351635
0.00153608
0.000536833
0.00044524
0.00048895
0.000598614
0.000788251
0.00109602
0.00153675
0.00192863
0.00194595
0.00159606
0.00113706
0.000906732
0.000829904
0.000928623
0.00129154
0.00212647
0.00447745
0.013154
0.0383217
0.00158449
0.000549538
0.000442832
0.000476144
0.000572288
0.000736172
0.00099372
0.0013611
0.00174806
0.00187515
0.00168367
0.00128429
0.00102933
0.000991905
0.00112023
0.00149195
0.00222194
0.00436963
0.0132324
0.0416475
0.00159886
0.000563069
0.00043941
0.000461557
0.000541819
0.000679584
0.000888988
0.00118397
0.00152815
0.00176027
0.00170842
0.00154036
0.00129813
0.00125904
0.00137939
0.00167773
0.00228703
0.00435666
0.0138872
0.0454206
0.00158761
0.000571109
0.000435786
0.000448381
0.000513392
0.000627723
0.000795382
0.0010255
0.00130509
0.00155883
0.0016505
0.0015997
0.00148422
0.00145995
0.00152601
0.00173876
0.00227833
0.00422942
0.0146697
0.050152
0.00155509
0.000568756
0.000432923
0.000441324
0.000495315
0.000590205
0.000723836
0.000900999
0.00111479
0.00132873
0.00147838
0.00151446
0.00147546
0.00146238
0.00151203
0.0016753
0.00212211
0.00386581
0.0153435
0.0563027
0.00154059
0.000559721
0.000437362
0.000449475
0.000503547
0.000593056
0.000709462
0.000850122
0.00101022
0.00117069
0.001296
0.00135732
0.0013685
0.00137449
0.00142319
0.00158225
0.00201338
0.00367828
0.0158538
0.0646236
0.00149377
0.000565192
0.000479495
0.000516324
0.000590711
0.000690404
0.000810643
0.000948189
0.00109631
0.00124127
0.00135951
0.00142875
0.00145637
0.00148025
0.00154527
0.00173594
0.00222377
0.0041906
0.0183635
0.0761831
0.00172858
0.000818458
0.000954128
0.00114219
0.00134265
0.00155393
0.00176871
0.00198243
0.00218536
0.00237343
0.00254067
0.00267069
0.00277737
0.00291039
0.00309319
0.00343252
0.00428268
0.00803259
0.0252064
0.0945675
0.00295958
0.00498083
0.00781371
0.00983606
0.0113096
0.0124971
0.0134507
0.0142319
0.014835
0.0153546
0.0158215
0.0162663
0.0167206
0.0173411
0.0180517
0.0193736
0.0215493
0.0323333
0.0487356
0.127091
0.043385
0.0840075
0.122773
0.146931
0.161333
0.170141
0.175054
0.177627
0.177845
0.17742
0.176409
0.174908
0.173696
0.172547
0.172629
0.173417
0.176669
0.177719
0.193571
0.167881
)
;

boundaryField
{
    movingWall
    {
        type            zeroGradient;
    }
    fixedWalls
    {
        type            zeroGradient;
    }
    frontAndBack
    {
        type            empty;
    }
}


// ************************************************************************* //
