/*--------------------------------*- C++ -*----------------------------------*\
| =========                 |                                                 |
| \\      /  F ield         | OpenFOAM: The Open Source CFD Toolbox           |
|  \\    /   O peration     | Version:  2312                                  |
|   \\  /    A nd           | Website:  www.openfoam.com                      |
|    \\/     M anipulation  |                                                 |
\*---------------------------------------------------------------------------*/
FoamFile
{
    version     2.0;
    format      ascii;
    arch        "LSB;label=32;scalar=64";
    class       volVectorField;
    location    "9";
    object      ddtU;
}
// * * * * * * * * * * * * * * * * * * * * * * * * * * * * * * * * * * * * * //

dimensions      [0 1 -2 0 0 0 0];

internalField   nonuniform List<vector> 
400
(
(0 3.89018e-14 0)
(-8.88178e-14 -3.36348e-14 0)
(2.22045e-14 -2.18775e-15 0)
(-2.22045e-14 3.93612e-16 0)
(0 1.01283e-14 0)
(0 1.75214e-15 0)
(-2.22045e-14 4.64687e-15 0)
(-2.22045e-14 -3.17883e-15 0)
(-4.44089e-14 -3.19372e-15 0)
(-4.44089e-14 -1.10026e-15 0)
(2.22045e-14 -1.70529e-15 0)
(-6.66134e-14 -4.62264e-15 0)
(0 -8.57073e-15 0)
(2.22045e-14 1.85206e-14 0)
(-2.22045e-14 1.76498e-14 0)
(-6.66134e-14 -1.50861e-15 0)
(-4.44089e-14 -1.79203e-14 0)
(0 -1.72184e-14 0)
(4.44089e-14 -5.09282e-15 0)
(0 5.29741e-15 0)
(-6.66134e-14 -6.38584e-14 0)
(-4.44089e-14 -4.63542e-14 0)
(-4.44089e-14 -3.07649e-14 0)
(0 -3.00042e-14 0)
(0 -1.65211e-14 0)
(8.88178e-14 -7.64367e-15 0)
(8.88178e-14 1.11682e-14 0)
(4.44089e-14 2.76946e-14 0)
(0 1.15674e-14 0)
(4.44089e-14 -1.42764e-14 0)
(0 -7.3949e-15 0)
(4.44089e-14 -1.61157e-15 0)
(-4.44089e-14 -1.26281e-15 0)
(0 1.52572e-14 0)
(8.88178e-14 1.93498e-15 0)
(4.44089e-14 -8.65165e-16 0)
(2.22045e-14 -9.16286e-15 0)
(2.22045e-14 -1.46003e-14 0)
(-4.44089e-14 -1.23285e-14 0)
(0 -1.26763e-15 0)
(0 -2.20743e-13 0)
(0 -9.46328e-15 0)
(4.44089e-14 -4.02522e-14 0)
(4.44089e-14 -3.61918e-14 0)
(-4.44089e-14 -3.53199e-14 0)
(0 -1.33023e-15 0)
(-2.22045e-14 5.458e-15 0)
(-4.44089e-14 2.62694e-14 0)
(4.44089e-14 3.83754e-15 0)
(0 -1.71444e-14 0)
(4.44089e-14 -8.2081e-15 0)
(0 5.5867e-15 0)
(0 7.03042e-15 0)
(0 -1.36239e-14 0)
(4.44089e-14 -1.16679e-14 0)
(2.22045e-14 1.08851e-14 0)
(2.22045e-14 1.10203e-14 0)
(4.44089e-14 6.91217e-15 0)
(-4.44089e-14 -4.86054e-15 0)
(0 -1.73721e-14 0)
(8.88178e-14 9.39062e-15 0)
(-2.22045e-14 -5.8298e-14 0)
(0 -3.38103e-14 0)
(0 -2.18394e-14 0)
(0 -1.56744e-14 0)
(-2.22045e-14 4.01662e-15 0)
(4.44089e-14 -5.84908e-15 0)
(4.44089e-14 -1.04527e-14 0)
(2.22045e-14 -5.99372e-15 0)
(2.22045e-14 3.57541e-15 0)
(0 -2.33558e-15 0)
(0 1.27215e-14 0)
(0 6.12627e-15 0)
(-2.22045e-14 -2.02994e-14 0)
(-4.44089e-14 4.21777e-15 0)
(-4.44089e-14 8.03701e-15 0)
(-4.44089e-14 4.54556e-15 0)
(-4.44089e-14 1.53717e-15 0)
(0 -9.30459e-15 0)
(0 -2.51171e-14 0)
(8.88178e-14 -9.40489e-14 0)
(-4.44089e-14 -3.02834e-14 0)
(-2.22045e-14 -3.38244e-14 0)
(-2.22045e-14 -1.79151e-14 0)
(-6.66134e-14 -1.91957e-14 0)
(-2.22045e-14 -1.53178e-14 0)
(-2.22045e-14 -1.17454e-14 0)
(2.22045e-14 -6.15915e-15 0)
(-4.44089e-14 2.46799e-14 0)
(-2.22045e-14 1.1647e-14 0)
(2.22045e-14 -6.96001e-15 0)
(-4.44089e-14 4.61045e-15 0)
(4.44089e-14 1.90106e-14 0)
(-4.44089e-14 7.61515e-15 0)
(-2.22045e-14 -1.80901e-15 0)
(4.44089e-14 -8.6707e-15 0)
(-2.22045e-14 2.14938e-15 0)
(-4.44089e-14 -8.04473e-15 0)
(0 -2.71589e-14 0)
(0 -1.93623e-14 0)
(0 -1.5525e-13 0)
(0 -1.23745e-14 0)
(-6.66134e-14 -3.10578e-14 0)
(4.44089e-14 -1.60427e-14 0)
(0 -1.49926e-14 0)
(0 -1.77568e-14 0)
(-2.22045e-14 -8.39057e-15 0)
(-4.44089e-14 -6.03919e-15 0)
(0 -5.77318e-15 0)
(4.44089e-14 -4.00471e-15 0)
(4.44089e-14 1.60212e-14 0)
(0 6.20509e-15 0)
(2.22045e-14 2.32247e-15 0)
(0 1.8624e-14 0)
(2.22045e-14 1.29946e-14 0)
(-2.22045e-14 8.1143e-17 0)
(0 -3.07817e-15 0)
(2.22045e-14 -1.56814e-14 0)
(0 -1.79959e-14 0)
(0 -1.08529e-14 0)
(0 1.16564e-13 0)
(0 -5.42486e-14 0)
(-4.44089e-14 -2.23835e-14 0)
(-2.22045e-14 -2.71587e-14 0)
(-6.66134e-14 4.43364e-15 0)
(-2.22045e-14 -1.16895e-14 0)
(-4.44089e-14 -1.24931e-14 0)
(0 -8.24266e-15 0)
(-2.22045e-14 -2.98529e-14 0)
(0 -1.97042e-14 0)
(2.22045e-14 1.29025e-14 0)
(0 1.26925e-14 0)
(0 -1.08417e-14 0)
(0 -3.51183e-15 0)
(4.44089e-14 1.78945e-15 0)
(4.44089e-14 4.50324e-16 0)
(4.44089e-14 -7.32374e-15 0)
(4.44089e-14 -1.20018e-14 0)
(2.22045e-14 -3.56188e-15 0)
(0 -6.03728e-15 0)
(4.44089e-14 -1.33854e-13 0)
(-4.44089e-14 1.10943e-14 0)
(4.44089e-14 -1.46927e-14 0)
(0 -4.2431e-15 0)
(0 2.18731e-15 0)
(0 -8.48201e-15 0)
(0 -1.46132e-14 0)
(0 -5.85776e-15 0)
(-4.44089e-14 -1.00431e-14 0)
(0 -9.09212e-15 0)
(0 -1.40153e-14 0)
(2.22045e-14 -5.06842e-15 0)
(0 -1.05805e-14 0)
(-2.22045e-14 -1.68586e-14 0)
(2.22045e-14 -1.86699e-14 0)
(-4.44089e-14 -3.11408e-15 0)
(4.44089e-14 -1.33367e-14 0)
(2.22045e-14 -1.09041e-14 0)
(0 8.64737e-16 0)
(2.22045e-14 3.67521e-15 0)
(-4.44089e-14 -9.74691e-14 0)
(-2.22045e-14 8.24992e-15 0)
(-2.22045e-14 -4.99875e-15 0)
(-4.44089e-14 -2.32402e-14 0)
(-8.88178e-14 -2.46249e-14 0)
(0 -6.68464e-15 0)
(-4.44089e-14 1.7229e-16 0)
(0 -1.00404e-14 0)
(0 -1.29569e-14 0)
(0 -7.50226e-16 0)
(6.66134e-14 -8.93287e-15 0)
(0 -3.95033e-15 0)
(4.44089e-14 1.04591e-15 0)
(-4.44089e-14 -1.35276e-14 0)
(-2.22045e-14 -2.76856e-14 0)
(0 -2.33899e-14 0)
(4.44089e-14 -6.40087e-15 0)
(0 -5.18957e-15 0)
(0 2.40779e-15 0)
(2.22045e-14 -2.24295e-15 0)
(0 1.2994e-13 0)
(0 -3.51913e-14 0)
(2.22045e-14 1.0377e-14 0)
(0 -1.70517e-14 0)
(-4.44089e-14 -5.33446e-15 0)
(-8.88178e-14 -1.11226e-14 0)
(-2.22045e-14 -2.7489e-14 0)
(2.22045e-14 -3.4131e-14 0)
(2.22045e-14 -1.60399e-14 0)
(0 -7.93718e-15 0)
(0 -6.72295e-15 0)
(-4.44089e-14 -1.34853e-14 0)
(0 -5.52737e-15 0)
(4.44089e-14 -1.59588e-15 0)
(2.22045e-14 -1.36821e-14 0)
(-4.44089e-14 -4.03386e-14 0)
(-4.44089e-14 -1.58892e-14 0)
(2.22045e-14 3.14455e-15 0)
(0 5.63164e-16 0)
(0 -1.00068e-14 0)
(0 -9.58944e-14 0)
(0 1.03757e-14 0)
(0 -6.67105e-15 0)
(0 1.54773e-14 0)
(0 -4.94264e-15 0)
(6.66134e-14 -1.84537e-14 0)
(2.22045e-14 -1.15641e-14 0)
(2.22045e-14 -1.00035e-14 0)
(-2.22045e-14 -1.93702e-15 0)
(-2.22045e-14 -1.2575e-14 0)
(2.22045e-14 -1.99871e-14 0)
(2.22045e-14 -2.54786e-14 0)
(2.22045e-14 -2.36883e-14 0)
(0 -1.90886e-14 0)
(0 -3.9059e-15 0)
(4.44089e-14 -1.5967e-14 0)
(2.22045e-14 -2.45737e-14 0)
(0 4.18824e-15 0)
(0 2.08317e-15 0)
(-2.22045e-14 -1.51886e-14 0)
(-8.88178e-14 3.19641e-14 0)
(2.22045e-14 -2.73538e-15 0)
(-2.22045e-14 2.8546e-15 0)
(4.44089e-14 -6.49271e-15 0)
(0 -1.75143e-14 0)
(0 -1.01532e-14 0)
(-4.44089e-14 -9.81525e-15 0)
(0 -5.87617e-16 0)
(-4.44089e-14 3.35867e-15 0)
(4.44089e-14 -1.06797e-14 0)
(4.44089e-14 -3.12422e-14 0)
(-4.44089e-14 -7.63757e-15 0)
(0 -2.12243e-14 0)
(0 -4.04136e-14 0)
(4.44089e-14 -1.78683e-14 0)
(4.44089e-14 4.41743e-15 0)
(0 1.33169e-15 0)
(0 2.34068e-15 0)
(2.22045e-14 -6.34952e-15 0)
(0 -1.95974e-14 0)
(0 1.06052e-14 0)
(-4.44089e-14 3.10919e-15 0)
(-4.44089e-14 1.97037e-15 0)
(0 -1.37617e-14 0)
(-4.44089e-14 -1.6327e-14 0)
(0 -1.1656e-14 0)
(4.44089e-14 -2.37944e-14 0)
(-8.88178e-14 -1.64278e-14 0)
(0 -5.39418e-15 0)
(4.44089e-14 -1.58691e-14 0)
(-4.44089e-14 -1.32779e-14 0)
(-4.44089e-14 -1.55234e-14 0)
(4.44089e-14 -3.98753e-14 0)
(4.44089e-14 -3.11637e-14 0)
(4.44089e-14 -3.25622e-15 0)
(-4.44089e-14 1.19897e-14 0)
(0 3.57787e-15 0)
(0 -8.25979e-15 0)
(0 -9.97221e-15 0)
(0 -1.29925e-14 0)
(-4.44089e-14 -7.85574e-14 0)
(4.44089e-14 2.77227e-14 0)
(2.22045e-14 -1.45483e-14 0)
(4.44089e-14 -2.05953e-14 0)
(2.22045e-14 -3.73944e-14 0)
(2.22045e-14 -2.25907e-14 0)
(2.22045e-14 1.77864e-14 0)
(0 -4.99273e-16 0)
(-2.22045e-14 -1.93425e-14 0)
(0 -2.28574e-14 0)
(2.22045e-14 -4.41538e-15 0)
(2.22045e-14 -2.52794e-14 0)
(4.44089e-14 -2.37066e-14 0)
(-2.22045e-14 -1.06995e-14 0)
(-4.44089e-14 -2.66587e-15 0)
(0 1.02802e-14 0)
(-4.44089e-14 -7.62676e-15 0)
(-4.44089e-14 -2.19647e-14 0)
(0 -1.47218e-14 0)
(2.22045e-14 -1.03822e-14 0)
(4.44089e-14 1.65884e-13 0)
(4.44089e-14 -3.07014e-14 0)
(0 -1.40547e-14 0)
(4.44089e-14 -1.98952e-14 0)
(2.22045e-14 -1.27669e-14 0)
(-2.22045e-14 -1.55861e-14 0)
(-2.22045e-14 -1.06502e-14 0)
(4.44089e-14 -1.52406e-14 0)
(2.22045e-14 -1.31758e-14 0)
(0 -2.6508e-15 0)
(-4.44089e-14 -7.78344e-15 0)
(-4.44089e-14 -1.63479e-14 0)
(-4.44089e-14 3.36378e-15 0)
(0 1.29571e-15 0)
(4.44089e-14 -1.72866e-14 0)
(0 -1.96917e-14 0)
(4.44089e-14 -7.64301e-15 0)
(4.44089e-14 -7.12381e-15 0)
(2.22045e-14 -7.90073e-15 0)
(-2.22045e-14 -4.51812e-15 0)
(-2.22045e-14 -1.38347e-14 0)
(0 -1.54574e-14 0)
(0 -1.27328e-14 0)
(-2.22045e-14 1.23884e-15 0)
(-4.44089e-14 2.71796e-15 0)
(2.22045e-14 -6.53617e-15 0)
(0 -1.07924e-14 0)
(0 1.22435e-15 0)
(-8.88178e-14 -9.36714e-15 0)
(0 3.46909e-15 0)
(-4.44089e-14 -5.25877e-15 0)
(-4.44089e-14 -1.54663e-14 0)
(0 -5.41331e-15 0)
(0 -1.11422e-14 0)
(4.44089e-14 -2.64223e-14 0)
(0 -1.22123e-14 0)
(-6.66134e-14 3.19054e-16 0)
(0 4.82606e-15 0)
(0 6.42567e-15 0)
(0 1.6978e-15 0)
(0 2.66986e-14 0)
(2.22045e-14 -8.19018e-15 0)
(-6.66134e-14 -1.54904e-14 0)
(2.22045e-14 -2.95169e-15 0)
(0 -6.29761e-16 0)
(0 -8.60617e-16 0)
(-8.88178e-14 -6.83412e-15 0)
(4.44089e-14 2.0928e-15 0)
(4.44089e-14 -8.05431e-15 0)
(2.22045e-14 -3.91736e-15 0)
(2.22045e-14 -6.14824e-15 0)
(2.22045e-14 -1.81014e-15 0)
(0 -8.43486e-15 0)
(2.22045e-14 -1.78082e-14 0)
(-4.44089e-14 -5.63538e-15 0)
(-6.66134e-14 -4.06171e-15 0)
(4.44089e-14 -5.68112e-15 0)
(4.44089e-14 8.22607e-15 0)
(2.22045e-14 1.6678e-14 0)
(2.22045e-14 2.24815e-15 0)
(0 1.3202e-13 0)
(4.44089e-14 -2.05942e-14 0)
(0 -1.43089e-14 0)
(0 -1.76814e-14 0)
(0 -5.1816e-16 0)
(2.22045e-14 2.54634e-15 0)
(0 -2.02616e-14 0)
(2.22045e-14 -5.00232e-15 0)
(2.22045e-14 -4.17882e-15 0)
(4.44089e-14 -9.91296e-15 0)
(2.22045e-14 -7.19524e-15 0)
(0 -1.88375e-15 0)
(6.66134e-14 3.42647e-15 0)
(2.22045e-14 2.06688e-14 0)
(6.66134e-14 1.89602e-14 0)
(0 -9.81627e-15 0)
(-6.66134e-14 -2.44243e-14 0)
(-4.44089e-14 -5.50546e-15 0)
(0 1.91936e-14 0)
(0 9.00832e-15 0)
(-2.22045e-14 -4.76419e-14 0)
(0 7.15502e-15 0)
(0 7.51308e-15 0)
(4.44089e-14 1.19679e-14 0)
(0 4.38661e-16 0)
(2.22045e-14 1.58731e-15 0)
(-4.44089e-14 4.27326e-15 0)
(-6.66134e-14 -2.67867e-15 0)
(0 -9.70678e-15 0)
(0 -9.12423e-15 0)
(-4.44089e-14 -2.10206e-15 0)
(4.44089e-14 -9.3174e-15 0)
(-4.44089e-14 -8.31021e-16 0)
(0 1.10174e-14 0)
(-4.44089e-14 8.90904e-15 0)
(4.44089e-14 1.42828e-14 0)
(4.44089e-14 -1.7814e-14 0)
(2.22045e-14 -1.18569e-14 0)
(-2.22045e-14 1.21824e-14 0)
(-2.22045e-14 1.25809e-14 0)
(0 -4.99703e-14 0)
(-4.44089e-14 1.34963e-14 0)
(-2.22045e-14 8.55251e-15 0)
(0 1.93837e-14 0)
(0 4.27817e-15 0)
(2.22045e-14 -6.40665e-16 0)
(4.44089e-14 5.91762e-15 0)
(2.22045e-14 -9.73399e-15 0)
(2.22045e-14 -1.15463e-16 0)
(2.22045e-14 4.75041e-16 0)
(-2.22045e-14 3.16438e-16 0)
(-2.22045e-14 -2.70978e-15 0)
(-4.44089e-14 -5.90433e-15 0)
(-2.22045e-14 -1.37409e-14 0)
(-4.44089e-14 -1.67487e-15 0)
(-4.44089e-14 7.95535e-15 0)
(4.44089e-14 -3.43256e-15 0)
(-2.22045e-14 6.31407e-15 0)
(-4.44089e-14 8.51355e-15 0)
(0 5.20079e-15 0)
)
;

boundaryField
{
    movingWall
    {
        type            calculated;
        value           uniform (0 0 0);
    }
    fixedWalls
    {
        type            calculated;
        value           uniform (0 0 0);
    }
    frontAndBack
    {
        type            empty;
    }
}


// ************************************************************************* //
