/*--------------------------------*- C++ -*----------------------------------*\
| =========                 |                                                 |
| \\      /  F ield         | OpenFOAM: The Open Source CFD Toolbox           |
|  \\    /   O peration     | Version:  2312                                  |
|   \\  /    A nd           | Website:  www.openfoam.com                      |
|    \\/     M anipulation  |                                                 |
\*---------------------------------------------------------------------------*/
FoamFile
{
    version     2.0;
    format      ascii;
    arch        "LSB;label=32;scalar=64";
    class       volVectorField;
    location    "9";
    object      diffU;
}
// * * * * * * * * * * * * * * * * * * * * * * * * * * * * * * * * * * * * * //

dimensions      [0 1 -1 0 0 0 0];

internalField   nonuniform List<vector> 
400
(
(0 0 0)
(8.99281e-15 -1.56604e-13 0)
(6.99441e-15 -1.2293e-13 0)
(6.66134e-15 -1.30644e-13 0)
(6.43929e-15 -1.28961e-13 0)
(6.43929e-15 -1.29422e-13 0)
(6.55032e-15 -1.29391e-13 0)
(6.32827e-15 -1.29439e-13 0)
(6.32827e-15 -1.29444e-13 0)
(6.21725e-15 -1.29434e-13 0)
(6.32827e-15 -1.2944e-13 0)
(6.10623e-15 -1.2944e-13 0)
(6.10623e-15 -1.2949e-13 0)
(6.32827e-15 -1.29344e-13 0)
(5.9952e-15 -1.29308e-13 0)
(5.77316e-15 -1.29319e-13 0)
(5.55112e-15 -1.29429e-13 0)
(5.77316e-15 -1.29558e-13 0)
(6.21725e-15 -1.29545e-13 0)
(5.9952e-15 -1.29465e-13 0)
(1.87628e-14 -1.08356e-13 0)
(2.22045e-16 -1.33305e-13 0)
(4.44089e-15 -1.28355e-13 0)
(4.88498e-15 -1.29578e-13 0)
(4.88498e-15 -1.2942e-13 0)
(5.32907e-15 -1.29602e-13 0)
(5.55112e-15 -1.29626e-13 0)
(5.55112e-15 -1.2951e-13 0)
(5.77316e-15 -1.29371e-13 0)
(5.55112e-15 -1.29382e-13 0)
(5.55112e-15 -1.29442e-13 0)
(5.55112e-15 -1.29457e-13 0)
(5.32907e-15 -1.29456e-13 0)
(5.55112e-15 -1.29312e-13 0)
(5.9952e-15 -1.2935e-13 0)
(5.9952e-15 -1.29359e-13 0)
(6.10623e-15 -1.2944e-13 0)
(6.10623e-15 -1.29588e-13 0)
(5.77316e-15 -1.29641e-13 0)
(5.77316e-15 -1.29535e-13 0)
(5.77316e-15 -2.35261e-13 0)
(5.55112e-15 -1.07731e-13 0)
(5.9952e-15 -1.34831e-13 0)
(5.9952e-15 -1.28574e-13 0)
(6.10623e-15 -1.29946e-13 0)
(6.10623e-15 -1.29573e-13 0)
(6.21725e-15 -1.29533e-13 0)
(5.55112e-15 -1.2944e-13 0)
(5.55112e-15 -1.29449e-13 0)
(5.55112e-15 -1.29452e-13 0)
(5.77316e-15 -1.29508e-13 0)
(5.77316e-15 -1.2955e-13 0)
(5.55112e-15 -1.29536e-13 0)
(5.77316e-15 -1.29609e-13 0)
(5.9952e-15 -1.29594e-13 0)
(6.10623e-15 -1.29521e-13 0)
(6.21725e-15 -1.29459e-13 0)
(6.32827e-15 -1.2948e-13 0)
(5.9952e-15 -1.29561e-13 0)
(6.10623e-15 -1.29565e-13 0)
(-1.02141e-14 -8.31324e-14 0)
(1.11022e-14 -1.39902e-13 0)
(5.9952e-15 -1.2757e-13 0)
(6.66134e-15 -1.30169e-13 0)
(6.66134e-15 -1.2946e-13 0)
(6.32827e-15 -1.29437e-13 0)
(6.32827e-15 -1.29321e-13 0)
(6.55032e-15 -1.29354e-13 0)
(6.77236e-15 -1.29423e-13 0)
(6.32827e-15 -1.29377e-13 0)
(6.32827e-15 -1.29435e-13 0)
(6.21725e-15 -1.29445e-13 0)
(6.10623e-15 -1.29453e-13 0)
(5.9952e-15 -1.29616e-13 0)
(5.77316e-15 -1.29608e-13 0)
(5.55112e-15 -1.2957e-13 0)
(5.77316e-15 -1.2954e-13 0)
(5.77316e-15 -1.29502e-13 0)
(5.9952e-15 -1.29467e-13 0)
(5.9952e-15 -1.29525e-13 0)
(2.37588e-14 -1.00334e-13 0)
(1.77636e-15 -1.36435e-13 0)
(6.55032e-15 -1.28115e-13 0)
(6.10623e-15 -1.2998e-13 0)
(5.9952e-15 -1.29459e-13 0)
(6.21725e-15 -1.29515e-13 0)
(6.21725e-15 -1.29531e-13 0)
(6.55032e-15 -1.295e-13 0)
(6.32827e-15 -1.2926e-13 0)
(6.21725e-15 -1.2918e-13 0)
(6.32827e-15 -1.29307e-13 0)
(5.9952e-15 -1.29383e-13 0)
(6.21725e-15 -1.29352e-13 0)
(5.9952e-15 -1.29376e-13 0)
(6.10623e-15 -1.29484e-13 0)
(5.9952e-15 -1.29585e-13 0)
(6.10623e-15 -1.2962e-13 0)
(5.77316e-15 -1.29587e-13 0)
(5.9952e-15 -1.29559e-13 0)
(6.10623e-15 -1.29545e-13 0)
(-2.66454e-15 -2.20501e-13 0)
(8.65974e-15 -1.09905e-13 0)
(5.77316e-15 -1.34052e-13 0)
(6.32827e-15 -1.28547e-13 0)
(6.10623e-15 -1.2974e-13 0)
(6.10623e-15 -1.29428e-13 0)
(5.9952e-15 -1.29504e-13 0)
(5.77316e-15 -1.29516e-13 0)
(5.9952e-15 -1.29424e-13 0)
(5.77316e-15 -1.29396e-13 0)
(6.21725e-15 -1.29377e-13 0)
(5.9952e-15 -1.29385e-13 0)
(6.10623e-15 -1.2944e-13 0)
(5.9952e-15 -1.29375e-13 0)
(6.21725e-15 -1.29336e-13 0)
(5.9952e-15 -1.29455e-13 0)
(5.77316e-15 -1.2951e-13 0)
(6.10623e-15 -1.29541e-13 0)
(5.9952e-15 -1.29584e-13 0)
(6.10623e-15 -1.29533e-13 0)
(1.27676e-14 -2.19771e-14 0)
(5.32907e-15 -1.51909e-13 0)
(6.99441e-15 -1.242e-13 0)
(5.9952e-15 -1.30699e-13 0)
(5.9952e-15 -1.29261e-13 0)
(6.21725e-15 -1.29441e-13 0)
(6.10623e-15 -1.29368e-13 0)
(6.21725e-15 -1.29346e-13 0)
(6.10623e-15 -1.29373e-13 0)
(6.21725e-15 -1.29409e-13 0)
(6.21725e-15 -1.29333e-13 0)
(5.9952e-15 -1.29282e-13 0)
(5.77316e-15 -1.29383e-13 0)
(5.77316e-15 -1.2946e-13 0)
(5.77316e-15 -1.29456e-13 0)
(5.9952e-15 -1.29493e-13 0)
(5.9952e-15 -1.29534e-13 0)
(5.9952e-15 -1.29582e-13 0)
(6.10623e-15 -1.29546e-13 0)
(5.9952e-15 -1.29524e-13 0)
(5.77316e-15 -1.55351e-13 0)
(3.55271e-15 -1.24736e-13 0)
(4.44089e-15 -1.30802e-13 0)
(5.9952e-15 -1.29313e-13 0)
(5.32907e-15 -1.29503e-13 0)
(5.32907e-15 -1.2948e-13 0)
(5.77316e-15 -1.29476e-13 0)
(5.77316e-15 -1.29375e-13 0)
(5.77316e-15 -1.29332e-13 0)
(5.77316e-15 -1.29379e-13 0)
(5.9952e-15 -1.29358e-13 0)
(6.32827e-15 -1.29352e-13 0)
(6.32827e-15 -1.29349e-13 0)
(6.10623e-15 -1.29477e-13 0)
(6.21725e-15 -1.2956e-13 0)
(6.10623e-15 -1.29512e-13 0)
(6.43929e-15 -1.29512e-13 0)
(6.10623e-15 -1.29581e-13 0)
(5.9952e-15 -1.29514e-13 0)
(6.21725e-15 -1.29472e-13 0)
(4.21885e-15 -2.28182e-13 0)
(8.10463e-15 -1.08476e-13 0)
(6.88338e-15 -1.34504e-13 0)
(5.55112e-15 -1.28375e-13 0)
(5.55112e-15 -1.29752e-13 0)
(5.55112e-15 -1.29573e-13 0)
(5.32907e-15 -1.2961e-13 0)
(5.32907e-15 -1.2961e-13 0)
(5.55112e-15 -1.2967e-13 0)
(5.77316e-15 -1.29661e-13 0)
(6.10623e-15 -1.29584e-13 0)
(5.9952e-15 -1.29463e-13 0)
(6.21725e-15 -1.29333e-13 0)
(6.21725e-15 -1.2931e-13 0)
(6.10623e-15 -1.29421e-13 0)
(5.77316e-15 -1.29543e-13 0)
(5.9952e-15 -1.29483e-13 0)
(6.10623e-15 -1.29443e-13 0)
(5.9952e-15 -1.29434e-13 0)
(6.10623e-15 -1.2943e-13 0)
(9.4369e-15 3.01556e-14 0)
(5.55112e-15 -1.63613e-13 0)
(6.32827e-15 -1.21329e-13 0)
(6.66134e-15 -1.31075e-13 0)
(6.55032e-15 -1.28915e-13 0)
(6.21725e-15 -1.29376e-13 0)
(6.32827e-15 -1.29338e-13 0)
(6.21725e-15 -1.29507e-13 0)
(6.10623e-15 -1.29658e-13 0)
(5.77316e-15 -1.29697e-13 0)
(5.55112e-15 -1.29652e-13 0)
(5.55112e-15 -1.29621e-13 0)
(5.77316e-15 -1.29587e-13 0)
(5.77316e-15 -1.29447e-13 0)
(6.10623e-15 -1.29372e-13 0)
(5.9952e-15 -1.29482e-13 0)
(5.77316e-15 -1.29597e-13 0)
(6.10623e-15 -1.29521e-13 0)
(5.9952e-15 -1.29451e-13 0)
(5.9952e-15 -1.29482e-13 0)
(4.44089e-15 -2.61177e-13 0)
(4.88498e-15 -1.00667e-13 0)
(4.88498e-15 -1.36242e-13 0)
(5.77316e-15 -1.28042e-13 0)
(5.77316e-15 -1.29786e-13 0)
(6.10623e-15 -1.29368e-13 0)
(6.32827e-15 -1.29391e-13 0)
(6.55032e-15 -1.2933e-13 0)
(6.32827e-15 -1.29381e-13 0)
(6.43929e-15 -1.29515e-13 0)
(6.43929e-15 -1.29555e-13 0)
(6.66134e-15 -1.29573e-13 0)
(6.43929e-15 -1.29528e-13 0)
(6.21725e-15 -1.29532e-13 0)
(6.10623e-15 -1.29424e-13 0)
(6.21725e-15 -1.29387e-13 0)
(6.43929e-15 -1.29522e-13 0)
(5.9952e-15 -1.29505e-13 0)
(5.9952e-15 -1.29474e-13 0)
(6.10623e-15 -1.29514e-13 0)
(4.66294e-15 -8.21991e-14 0)
(7.21645e-15 -1.39612e-13 0)
(6.21725e-15 -1.27098e-13 0)
(4.88498e-15 -1.29998e-13 0)
(5.10703e-15 -1.29482e-13 0)
(4.88498e-15 -1.29544e-13 0)
(4.66294e-15 -1.29524e-13 0)
(4.66294e-15 -1.29552e-13 0)
(4.66294e-15 -1.29566e-13 0)
(5.10703e-15 -1.29584e-13 0)
(5.32907e-15 -1.29616e-13 0)
(5.32907e-15 -1.29491e-13 0)
(5.10703e-15 -1.29438e-13 0)
(5.32907e-15 -1.29524e-13 0)
(5.77316e-15 -1.29544e-13 0)
(5.9952e-15 -1.29495e-13 0)
(5.9952e-15 -1.29408e-13 0)
(5.9952e-15 -1.29364e-13 0)
(6.21725e-15 -1.2941e-13 0)
(5.9952e-15 -1.29505e-13 0)
(-1.13243e-14 -8.46058e-14 0)
(7.66054e-15 -1.39406e-13 0)
(3.10862e-15 -1.2699e-13 0)
(5.77316e-15 -1.29871e-13 0)
(5.10703e-15 -1.29277e-13 0)
(5.32907e-15 -1.29401e-13 0)
(5.55112e-15 -1.29456e-13 0)
(5.55112e-15 -1.29625e-13 0)
(5.55112e-15 -1.29709e-13 0)
(5.55112e-15 -1.29704e-13 0)
(5.32907e-15 -1.29697e-13 0)
(5.10703e-15 -1.2973e-13 0)
(5.55112e-15 -1.29861e-13 0)
(5.55112e-15 -1.2985e-13 0)
(5.77316e-15 -1.29705e-13 0)
(5.77316e-15 -1.29536e-13 0)
(5.77316e-15 -1.295e-13 0)
(5.77316e-15 -1.29519e-13 0)
(5.77316e-15 -1.29526e-13 0)
(5.9952e-15 -1.29538e-13 0)
(2.27596e-14 -2.23407e-13 0)
(3.55271e-15 -1.09505e-13 0)
(7.88258e-15 -1.34088e-13 0)
(5.9952e-15 -1.2842e-13 0)
(6.32827e-15 -1.29734e-13 0)
(6.21725e-15 -1.2962e-13 0)
(6.55032e-15 -1.29591e-13 0)
(6.77236e-15 -1.29552e-13 0)
(6.66134e-15 -1.29636e-13 0)
(6.77236e-15 -1.29642e-13 0)
(6.88338e-15 -1.29553e-13 0)
(6.88338e-15 -1.29608e-13 0)
(6.88338e-15 -1.29674e-13 0)
(6.66134e-15 -1.29684e-13 0)
(6.21725e-15 -1.29583e-13 0)
(6.10623e-15 -1.29417e-13 0)
(6.10623e-15 -1.29467e-13 0)
(5.77316e-15 -1.29622e-13 0)
(5.9952e-15 -1.29701e-13 0)
(6.10623e-15 -1.2959e-13 0)
(-5.32907e-15 -2.35592e-14 0)
(8.54872e-15 -1.51993e-13 0)
(5.10703e-15 -1.24189e-13 0)
(6.43929e-15 -1.30608e-13 0)
(6.21725e-15 -1.29282e-13 0)
(6.21725e-15 -1.29716e-13 0)
(5.9952e-15 -1.2977e-13 0)
(5.9952e-15 -1.29813e-13 0)
(6.32827e-15 -1.297e-13 0)
(5.77316e-15 -1.29539e-13 0)
(5.55112e-15 -1.29508e-13 0)
(5.55112e-15 -1.29526e-13 0)
(5.55112e-15 -1.29516e-13 0)
(5.77316e-15 -1.29474e-13 0)
(5.77316e-15 -1.29514e-13 0)
(5.77316e-15 -1.29505e-13 0)
(6.21725e-15 -1.29477e-13 0)
(6.21725e-15 -1.29473e-13 0)
(6.10623e-15 -1.29573e-13 0)
(6.10623e-15 -1.29513e-13 0)
(2.06501e-14 -1.92466e-13 0)
(1.9984e-15 -1.15794e-13 0)
(6.43929e-15 -1.32682e-13 0)
(5.9952e-15 -1.28912e-13 0)
(6.10623e-15 -1.29759e-13 0)
(6.21725e-15 -1.29593e-13 0)
(6.21725e-15 -1.29601e-13 0)
(6.21725e-15 -1.29469e-13 0)
(5.55112e-15 -1.29418e-13 0)
(5.55112e-15 -1.29391e-13 0)
(5.55112e-15 -1.29496e-13 0)
(5.55112e-15 -1.2959e-13 0)
(5.55112e-15 -1.29579e-13 0)
(5.55112e-15 -1.29581e-13 0)
(5.55112e-15 -1.29746e-13 0)
(5.77316e-15 -1.29757e-13 0)
(5.77316e-15 -1.29628e-13 0)
(5.77316e-15 -1.29523e-13 0)
(5.9952e-15 -1.29513e-13 0)
(5.9952e-15 -1.29487e-13 0)
(-8.21565e-15 -1.55828e-13 0)
(1.07692e-14 -1.23433e-13 0)
(5.9952e-15 -1.30711e-13 0)
(6.32827e-15 -1.29143e-13 0)
(5.9952e-15 -1.29567e-13 0)
(6.10623e-15 -1.29476e-13 0)
(5.55112e-15 -1.2944e-13 0)
(5.77316e-15 -1.2934e-13 0)
(5.9952e-15 -1.29378e-13 0)
(6.10623e-15 -1.29446e-13 0)
(6.21725e-15 -1.29471e-13 0)
(6.10623e-15 -1.29443e-13 0)
(6.21725e-15 -1.29485e-13 0)
(6.21725e-15 -1.29672e-13 0)
(6.10623e-15 -1.29783e-13 0)
(5.77316e-15 -1.29782e-13 0)
(6.21725e-15 -1.29678e-13 0)
(5.9952e-15 -1.29592e-13 0)
(6.21725e-15 -1.29457e-13 0)
(6.21725e-15 -1.29462e-13 0)
(1.33227e-15 -3.31162e-14 0)
(6.43929e-15 -1.49598e-13 0)
(5.32907e-15 -1.2456e-13 0)
(5.9952e-15 -1.30505e-13 0)
(5.77316e-15 -1.29297e-13 0)
(6.10623e-15 -1.29553e-13 0)
(6.32827e-15 -1.29593e-13 0)
(6.43929e-15 -1.29565e-13 0)
(6.43929e-15 -1.29523e-13 0)
(6.55032e-15 -1.2955e-13 0)
(6.66134e-15 -1.29588e-13 0)
(6.43929e-15 -1.29617e-13 0)
(6.77236e-15 -1.29677e-13 0)
(6.88338e-15 -1.29554e-13 0)
(6.99441e-15 -1.29424e-13 0)
(6.55032e-15 -1.2944e-13 0)
(6.10623e-15 -1.29533e-13 0)
(5.77316e-15 -1.29529e-13 0)
(5.9952e-15 -1.29408e-13 0)
(5.9952e-15 -1.29394e-13 0)
(2.73115e-14 -1.66262e-13 0)
(2.22045e-16 -1.2225e-13 0)
(6.77236e-15 -1.3144e-13 0)
(6.32827e-15 -1.29198e-13 0)
(6.32827e-15 -1.2968e-13 0)
(6.32827e-15 -1.29587e-13 0)
(5.9952e-15 -1.29548e-13 0)
(5.77316e-15 -1.29541e-13 0)
(6.10623e-15 -1.29517e-13 0)
(6.10623e-15 -1.2957e-13 0)
(5.77316e-15 -1.29586e-13 0)
(6.32827e-15 -1.2965e-13 0)
(5.77316e-15 -1.29663e-13 0)
(5.55112e-15 -1.29539e-13 0)
(5.55112e-15 -1.29424e-13 0)
(5.77316e-15 -1.29352e-13 0)
(5.9952e-15 -1.29477e-13 0)
(6.21725e-15 -1.29494e-13 0)
(5.9952e-15 -1.29422e-13 0)
(5.9952e-15 -1.29395e-13 0)
(-1.11022e-15 -2.06495e-13 0)
(8.99281e-15 -1.13479e-13 0)
(6.88338e-15 -1.33477e-13 0)
(6.66134e-15 -1.28646e-13 0)
(6.66134e-15 -1.29648e-13 0)
(6.55032e-15 -1.29437e-13 0)
(6.66134e-15 -1.29462e-13 0)
(6.66134e-15 -1.29578e-13 0)
(6.55032e-15 -1.29525e-13 0)
(6.55032e-15 -1.29508e-13 0)
(6.21725e-15 -1.2947e-13 0)
(6.10623e-15 -1.29476e-13 0)
(5.9952e-15 -1.29497e-13 0)
(5.9952e-15 -1.29597e-13 0)
(5.77316e-15 -1.29588e-13 0)
(5.77316e-15 -1.29535e-13 0)
(5.9952e-15 -1.29542e-13 0)
(5.9952e-15 -1.29463e-13 0)
(5.77316e-15 -1.29408e-13 0)
(5.9952e-15 -1.29426e-13 0)
)
;

boundaryField
{
    movingWall
    {
        type            calculated;
        value           uniform (5.9952e-15 -1.29471e-13 0);
    }
    fixedWalls
    {
        type            calculated;
        value           uniform (5.9952e-15 -1.29471e-13 0);
    }
    frontAndBack
    {
        type            empty;
    }
}


// ************************************************************************* //
