/*--------------------------------*- C++ -*----------------------------------*\
| =========                 |                                                 |
| \\      /  F ield         | OpenFOAM: The Open Source CFD Toolbox           |
|  \\    /   O peration     | Version:  2312                                  |
|   \\  /    A nd           | Website:  www.openfoam.com                      |
|    \\/     M anipulation  |                                                 |
\*---------------------------------------------------------------------------*/
FoamFile
{
    version     2.0;
    format      ascii;
    arch        "LSB;label=32;scalar=64";
    class       volScalarField;
    location    "9";
    object      divPhi;
}
// * * * * * * * * * * * * * * * * * * * * * * * * * * * * * * * * * * * * * //

dimensions      [0 0 -1 0 0 0 0];

internalField   nonuniform List<scalar> 
400
(
-2.1684e-13
1.61201e-14
-4.45313e-15
1.60755e-15
6.33808e-15
-5.0827e-15
3.56527e-15
-2.15653e-14
7.59718e-15
1.00534e-14
2.6212e-15
4.32869e-15
-1.14299e-14
9.21529e-15
-1.85941e-14
3.7359e-15
1.17435e-14
-4.21378e-15
-5.10287e-15
0
0
-9.68377e-16
3.26874e-15
-4.97557e-15
2.158e-14
8.97674e-15
-4.46845e-15
9.20364e-15
1.37531e-14
1.25558e-14
3.51585e-15
-7.98019e-15
-3.15399e-14
2.74626e-14
-2.47634e-15
8.80667e-15
5.14401e-15
-2.0714e-15
1.85921e-15
0
0
-6.87018e-15
1.95494e-14
1.08125e-14
-3.0247e-14
3.61169e-14
-1.25421e-14
-1.33846e-14
-1.70381e-14
7.62983e-15
2.57591e-14
-3.29513e-15
-4.87672e-15
-1.10107e-14
2.00787e-14
3.58394e-15
-4.44157e-15
3.05851e-15
-2.9797e-14
2.71051e-14
0
-2.53631e-14
-1.00449e-14
3.11941e-14
-2.66311e-14
4.74459e-15
2.36716e-15
-3.1096e-14
2.16771e-14
-1.05315e-14
1.75808e-14
1.0249e-14
-4.5963e-15
-2.59708e-14
-9.74841e-15
1.2102e-14
-2.62915e-14
2.35248e-14
-1.27898e-14
0
2.71051e-14
-2.79223e-14
7.27921e-15
-1.11599e-15
2.7509e-15
2.71026e-14
-3.5092e-15
1.39512e-14
-2.33117e-14
-1.28106e-14
6.74972e-15
-1.01864e-14
-1.17024e-14
2.33247e-14
-1.81503e-14
1.14747e-14
7.94963e-15
1.64858e-14
-2.18332e-14
-2.71051e-14
-2.71051e-14
1.99549e-14
2.93273e-14
-6.55458e-15
2.3233e-15
-2.04875e-14
5.97399e-15
-1.41613e-14
-1.58785e-14
-1.8807e-14
1.45754e-14
-4.37862e-17
-3.0561e-14
-2.29211e-14
-2.317e-15
3.37417e-14
1.9269e-14
-1.62738e-14
1.05616e-14
2.71051e-14
0
-1.45194e-15
8.04788e-15
-1.04507e-14
2.05012e-14
1.53923e-15
7.85059e-15
1.85859e-14
4.33964e-14
-1.30239e-14
-1.82167e-14
1.56859e-14
-1.51666e-14
6.5933e-15
-1.19376e-14
1.82301e-14
-1.30821e-14
2.44631e-14
-1.0043e-14
-2.71051e-14
0
-1.01745e-14
-1.82677e-14
1.17574e-14
-2.29436e-15
1.69679e-14
8.4451e-15
-2.91303e-14
-1.84461e-14
-9.22513e-15
1.99735e-14
-2.5506e-14
-5.50143e-15
1.15317e-14
-4.09534e-14
1.36534e-14
-2.52314e-14
2.42029e-14
-3.07703e-15
2.71051e-14
2.71051e-14
-2.19561e-15
9.94361e-15
8.39072e-15
-1.42908e-14
-3.32071e-16
-1.64733e-14
-1.62673e-14
2.77982e-14
-1.92883e-14
-9.19299e-15
1.18621e-14
1.08795e-15
2.81693e-14
8.9938e-15
-8.81718e-15
-2.32632e-14
-2.43851e-15
5.27447e-15
-2.71051e-14
0
-2.13849e-14
2.33806e-14
2.36781e-14
1.91871e-15
-4.09834e-15
1.18985e-14
1.04264e-14
-6.15494e-17
7.16454e-15
1.02127e-14
-1.66832e-14
3.37612e-15
8.32216e-15
-8.55214e-15
-1.56812e-14
1.52886e-14
-1.64763e-14
2.43363e-15
0
0
8.3838e-15
2.44646e-14
-1.81164e-14
-4.59355e-15
1.46855e-14
5.00174e-16
2.73697e-14
1.50826e-15
1.14653e-14
5.83098e-15
2.49974e-14
-2.5903e-14
2.6124e-14
1.58472e-14
4.2102e-15
-3.02093e-16
-6.23742e-15
3.43893e-15
0
2.71051e-14
2.72557e-15
1.42397e-14
1.13036e-14
7.82637e-15
-7.38256e-15
-2.49902e-14
9.60841e-15
-1.56663e-14
1.03733e-14
2.27493e-14
-1.63378e-14
-6.22019e-15
9.21807e-15
-7.57729e-15
1.75825e-14
3.29775e-15
-2.99266e-15
-1.92843e-14
0
0
-1.01048e-15
-1.69607e-14
2.41028e-14
-1.11072e-15
-2.17811e-14
1.96506e-14
-1.9111e-14
2.53103e-14
3.55067e-15
-2.56868e-15
1.56705e-14
1.33645e-14
1.23504e-14
-1.82925e-14
-5.00635e-15
-7.61972e-15
-1.97131e-14
-4.52885e-15
0
0
1.95635e-15
7.99977e-15
-2.16803e-15
-2.70882e-15
1.29865e-14
4.96372e-15
-1.27424e-14
1.2628e-14
-2.01184e-14
-7.72173e-15
-2.54662e-14
4.05908e-14
1.10808e-14
1.71147e-14
-1.25781e-14
-1.06049e-14
1.56285e-14
-1.06981e-14
0
0
1.68159e-15
3.10671e-14
-4.48943e-16
-1.44782e-14
1.16484e-14
-5.14379e-15
8.48582e-16
-7.29783e-15
4.27995e-14
-1.84494e-14
1.36243e-14
5.01805e-17
3.89918e-14
-3.56246e-14
-1.673e-14
-6.66347e-15
-3.38013e-14
1.41207e-14
2.71051e-14
0
9.18871e-15
-3.95098e-15
3.52836e-15
1.33888e-14
1.38906e-14
2.11832e-15
-2.27674e-14
4.63939e-15
-1.61146e-14
1.99297e-14
-1.42793e-14
1.95085e-14
2.3229e-15
8.04085e-16
1.05e-15
2.68372e-14
-1.54896e-14
-4.24182e-15
-2.71051e-14
0
1.86528e-14
-2.48073e-14
1.63654e-14
1.71301e-14
8.792e-15
4.12876e-15
1.86758e-14
-4.97519e-15
-8.54178e-15
1.29844e-14
-5.08761e-15
2.15279e-14
7.48115e-15
-2.17126e-16
-1.84474e-14
1.68024e-14
2.42148e-15
1.13365e-14
2.71051e-14
-2.71051e-14
4.31994e-16
1.52435e-14
7.18819e-15
-4.07777e-14
2.8643e-14
-1.02422e-14
-7.42829e-15
-2.32989e-15
-1.42737e-14
3.68058e-14
-3.10135e-14
-1.13767e-14
2.44601e-14
1.17348e-14
5.55667e-15
-1.93952e-14
-3.12085e-16
9.24939e-15
-2.71051e-14
2.71051e-14
2.521e-14
-2.41889e-14
2.63626e-15
2.18794e-14
-6.68383e-15
-1.57309e-14
3.9782e-15
1.49236e-14
1.10925e-14
-1.43471e-14
5.96451e-15
-6.23274e-15
-1.48262e-14
1.55236e-14
3.05516e-14
5.72438e-15
-7.49053e-15
-1.19039e-14
2.71051e-14
-2.71051e-14
0
0
0
0
0
2.71051e-14
2.71051e-14
-2.71051e-14
0
0
0
-2.71051e-14
2.71051e-14
-2.71051e-14
2.71051e-14
0
0
-2.71051e-14
0
)
;

boundaryField
{
    movingWall
    {
        type            extrapolatedCalculated;
        value           nonuniform List<scalar> 
20
(
-2.71051e-14
0
0
0
0
0
2.71051e-14
2.71051e-14
-2.71051e-14
0
0
0
-2.71051e-14
2.71051e-14
-2.71051e-14
2.71051e-14
0
0
-2.71051e-14
0
)
;
    }
    fixedWalls
    {
        type            extrapolatedCalculated;
        value           nonuniform List<scalar> 
60
(
-2.1684e-13
0
0
0
2.71051e-14
-2.71051e-14
0
0
2.71051e-14
0
0
2.71051e-14
0
0
0
0
0
-2.71051e-14
2.71051e-14
-2.71051e-14
0
0
2.71051e-14
0
-2.71051e-14
2.71051e-14
-2.71051e-14
2.71051e-14
-2.71051e-14
0
0
0
0
0
2.71051e-14
-2.71051e-14
2.71051e-14
-2.71051e-14
2.71051e-14
0
-2.1684e-13
1.61201e-14
-4.45313e-15
1.60755e-15
6.33808e-15
-5.0827e-15
3.56527e-15
-2.15653e-14
7.59718e-15
1.00534e-14
2.6212e-15
4.32869e-15
-1.14299e-14
9.21529e-15
-1.85941e-14
3.7359e-15
1.17435e-14
-4.21378e-15
-5.10287e-15
0
)
;
    }
    frontAndBack
    {
        type            empty;
    }
}


// ************************************************************************* //
