/*--------------------------------*- C++ -*----------------------------------*\
| =========                 |                                                 |
| \\      /  F ield         | OpenFOAM: The Open Source CFD Toolbox           |
|  \\    /   O peration     | Version:  2312                                  |
|   \\  /    A nd           | Website:  www.openfoam.com                      |
|    \\/     M anipulation  |                                                 |
\*---------------------------------------------------------------------------*/
FoamFile
{
    version     2.0;
    format      ascii;
    arch        "LSB;label=32;scalar=64";
    class       volScalarField;
    location    "9";
    object      divU;
}
// * * * * * * * * * * * * * * * * * * * * * * * * * * * * * * * * * * * * * //

dimensions      [0 0 -1 0 0 0 0];

internalField   nonuniform List<scalar> 
400
(
1.47723e-11
-2.39195e-12
5.2174e-13
-1.82285e-13
2.88995e-14
-8.17272e-15
-7.56556e-15
-2.78173e-14
1.26835e-14
1.25703e-14
5.93652e-15
-2.26306e-14
2.66837e-14
1.43783e-15
1.27631e-15
-2.78122e-14
-1.98824e-14
6.09415e-14
2.74493e-15
-2.71051e-14
-2.27954e-11
3.41692e-12
-6.95439e-13
2.68657e-13
-6.9599e-14
3.09034e-14
3.24716e-14
-8.04852e-16
1.22088e-14
1.07496e-14
-7.88609e-16
-6.51329e-15
-5.92735e-14
5.6341e-14
2.68541e-14
-2.08943e-14
3.1414e-14
-1.25928e-14
-5.31073e-14
2.71051e-14
2.43945e-12
-6.30947e-13
1.41986e-13
-6.14833e-14
3.48916e-14
4.74238e-14
-1.83158e-14
-6.65029e-14
7.01145e-15
1.1269e-14
2.69886e-14
-5.35771e-15
-3.18466e-14
-1.14835e-15
2.81706e-14
3.93306e-14
-5.65996e-15
-3.11402e-14
1.85208e-14
-2.71051e-14
1.23328e-11
-1.25158e-12
2.17207e-13
-6.65482e-14
2.26212e-15
-2.80754e-14
3.61037e-14
3.58683e-14
-1.19521e-15
-1.56828e-14
1.99713e-14
1.13321e-14
-1.34682e-14
-5.03321e-15
-4.2102e-14
-2.12992e-14
5.30755e-15
3.94864e-14
-8.39636e-15
2.71051e-14
-1.2387e-11
1.28732e-12
-2.41237e-13
1.22798e-13
-2.58083e-14
2.70389e-14
-9.3399e-15
1.96788e-14
-2.84138e-14
9.48428e-15
-1.3349e-15
-9.70326e-15
-1.21574e-14
1.90699e-14
1.22146e-14
1.7294e-14
8.3266e-15
8.48963e-15
-2.0097e-14
-2.71051e-14
7.20994e-12
-6.66709e-13
1.50283e-13
-3.03737e-14
-5.97084e-15
-1.98093e-14
6.9203e-15
-4.61715e-14
4.16154e-14
-1.34391e-14
2.31003e-14
-2.66903e-14
-1.52156e-14
1.07348e-14
1.49427e-14
-2.77263e-14
1.69539e-14
8.94665e-15
3.54436e-14
0
7.12863e-12
-2.04141e-12
3.66864e-13
-1.88351e-13
4.48316e-14
2.91885e-14
9.80045e-15
-4.96809e-15
2.37201e-14
-1.16768e-14
-2.92206e-14
-2.3388e-14
-3.31712e-14
5.19742e-16
1.96128e-14
-6.365e-15
-1.03631e-14
3.20593e-14
-1.18408e-14
0
-2.0898e-11
4.19927e-12
-8.2617e-13
3.69273e-13
-1.39764e-13
4.30736e-14
1.2722e-14
-3.13926e-14
-3.30744e-14
1.72663e-14
2.70237e-14
-1.43741e-14
-1.05733e-15
1.549e-14
-3.95186e-15
-1.13465e-14
-5.26333e-15
-3.53259e-14
2.64099e-14
-2.71051e-14
1.85941e-11
-3.61868e-12
6.90317e-13
-3.21911e-13
5.45837e-14
-7.35669e-16
-2.77265e-14
-1.74661e-14
4.27498e-14
1.25776e-14
-2.9478e-14
1.29007e-14
2.17333e-15
-8.67222e-15
-3.93022e-14
-6.25785e-14
4.03958e-14
-2.23102e-15
5.59308e-15
0
-3.00866e-12
4.96152e-13
-7.97838e-14
6.38294e-14
-5.72533e-14
1.97525e-14
2.12675e-14
1.04998e-14
-9.73187e-15
-2.69493e-14
-2.65144e-14
1.86313e-15
9.75135e-15
2.33888e-14
-1.25016e-14
-4.69452e-14
6.35571e-14
-8.46926e-15
1.62038e-15
0
-1.15196e-11
2.46265e-12
-4.94005e-13
1.98665e-13
-5.50458e-15
2.99975e-14
2.65884e-15
5.93552e-15
-5.79613e-16
1.14169e-14
3.12981e-14
1.48955e-14
-2.95146e-14
-1.13728e-14
-2.97612e-14
6.05176e-15
2.82958e-14
-4.69541e-14
5.75104e-15
0
1.76725e-11
-3.71522e-12
6.75184e-13
-3.09526e-13
4.54226e-14
-5.4526e-14
-3.86606e-15
-2.35289e-14
2.08171e-14
1.96e-14
4.41255e-14
-8.20569e-14
1.84735e-14
1.09527e-14
5.05826e-14
-8.89802e-15
3.41094e-15
3.3052e-14
5.49477e-16
-2.71051e-14
-1.56667e-11
4.41827e-12
-8.64084e-13
3.63271e-13
-8.81977e-14
4.63594e-14
-1.0612e-14
3.6462e-15
-1.32711e-14
-1.32888e-14
-1.12121e-13
4.17223e-14
2.196e-14
-5.02954e-15
1.95945e-14
-1.17701e-15
-2.55263e-15
-1.98973e-14
2.56954e-14
-2.71051e-14
7.5081e-12
-2.72226e-12
5.27239e-13
-1.98376e-13
-7.41857e-15
-3.94235e-14
3.93646e-14
-1.51758e-14
1.47309e-14
3.21904e-15
4.23014e-14
7.85559e-15
2.24782e-15
-4.87517e-14
-4.26777e-14
1.89789e-15
-2.73721e-14
1.17691e-14
2.10507e-14
-2.71051e-14
2.19551e-12
4.43588e-13
-9.1159e-14
5.05358e-14
-9.91522e-15
-3.67626e-14
-1.57955e-14
4.73067e-14
9.42357e-15
-5.30114e-14
-3.33114e-14
9.70177e-15
3.88868e-14
1.57689e-14
-4.77529e-15
2.21395e-14
3.78482e-14
-5.45069e-15
1.27653e-14
0
-1.21702e-11
1.4565e-12
-2.5543e-13
8.86279e-14
1.58351e-14
1.43531e-14
4.42584e-14
-6.80259e-14
1.46076e-14
1.04895e-14
-2.4488e-15
1.80649e-14
1.48851e-14
-3.11329e-14
-3.16279e-14
-5.4834e-15
-9.36849e-15
3.6808e-14
2.42936e-14
0
1.50162e-11
-2.00523e-12
3.67102e-13
-1.24811e-13
-1.93173e-14
-6.29898e-14
-3.62281e-14
8.49478e-14
4.08765e-15
-5.42291e-15
1.54323e-14
-3.88732e-14
5.08759e-15
-1.35223e-15
-2.65604e-14
2.61936e-14
2.72391e-14
9.13886e-15
3.47035e-14
-5.42101e-14
-1.43657e-12
5.25388e-13
-1.6657e-13
8.66047e-14
-3.52531e-15
3.43927e-14
7.21795e-15
-1.64898e-14
-9.81312e-15
9.30396e-15
-2.32419e-14
-5.41077e-15
4.14976e-14
1.19668e-14
9.38474e-15
-6.63787e-14
-3.39743e-14
1.89901e-14
1.11684e-14
2.71051e-14
-1.58022e-11
1.58941e-12
-2.99335e-13
1.36931e-13
-3.85735e-14
1.89107e-14
-8.81077e-14
6.35638e-14
1.70867e-14
-1.35459e-14
1.56865e-14
3.57593e-14
-7.60227e-14
-1.94702e-14
2.01538e-14
3.25474e-14
1.94098e-14
-1.50269e-15
-1.589e-14
-2.71051e-14
1.09775e-11
-1.54499e-12
3.79471e-13
-1.35525e-13
0
0
2.71051e-14
0
0
-2.71051e-14
-2.71051e-14
0
0
2.71051e-14
-5.42101e-14
5.42101e-14
0
-5.42101e-14
5.42101e-14
0
)
;

boundaryField
{
    movingWall
    {
        type            extrapolatedCalculated;
        value           nonuniform List<scalar> 
20
(
1.09775e-11
-1.54499e-12
3.79471e-13
-1.35525e-13
0
0
2.71051e-14
0
0
-2.71051e-14
-2.71051e-14
0
0
2.71051e-14
-5.42101e-14
5.42101e-14
0
-5.42101e-14
5.42101e-14
0
)
;
    }
    fixedWalls
    {
        type            extrapolatedCalculated;
        value           nonuniform List<scalar> 
60
(
1.47723e-11
-2.27954e-11
2.43945e-12
1.23328e-11
-1.2387e-11
7.20994e-12
7.12863e-12
-2.0898e-11
1.85941e-11
-3.00866e-12
-1.15196e-11
1.76725e-11
-1.56667e-11
7.5081e-12
2.19551e-12
-1.21702e-11
1.50162e-11
-1.43657e-12
-1.58022e-11
1.09775e-11
-2.71051e-14
2.71051e-14
-2.71051e-14
2.71051e-14
-2.71051e-14
0
0
-2.71051e-14
0
0
0
-2.71051e-14
-2.71051e-14
-2.71051e-14
0
0
-5.42101e-14
2.71051e-14
-2.71051e-14
0
1.47723e-11
-2.39195e-12
5.2174e-13
-1.82285e-13
2.88995e-14
-8.17272e-15
-7.56556e-15
-2.78173e-14
1.26835e-14
1.25703e-14
5.93652e-15
-2.26306e-14
2.66837e-14
1.43783e-15
1.27631e-15
-2.78122e-14
-1.98824e-14
6.09415e-14
2.74493e-15
-2.71051e-14
)
;
    }
    frontAndBack
    {
        type            empty;
    }
}


// ************************************************************************* //
