/*--------------------------------*- C++ -*----------------------------------*\
| =========                 |                                                 |
| \\      /  F ield         | OpenFOAM: The Open Source CFD Toolbox           |
|  \\    /   O peration     | Version:  2312                                  |
|   \\  /    A nd           | Website:  www.openfoam.com                      |
|    \\/     M anipulation  |                                                 |
\*---------------------------------------------------------------------------*/
FoamFile
{
    version     2.0;
    format      ascii;
    arch        "LSB;label=32;scalar=64";
    class       volScalarField;
    location    "9";
    object      dpdt2;
}
// * * * * * * * * * * * * * * * * * * * * * * * * * * * * * * * * * * * * * //

dimensions      [0 4 -6 0 0 0 0];

internalField   nonuniform List<scalar> 
400
(
1.42683e-26
2.17377e-26
3.68128e-26
6.38033e-26
8.92552e-26
1.03142e-25
1.19755e-25
1.54058e-25
1.19895e-25
9.14046e-26
1.31211e-25
1.70001e-25
1.55184e-25
1.58395e-25
2.02228e-25
2.4375e-25
2.37799e-25
2.47108e-25
1.59956e-25
1.91376e-25
6.38898e-26
7.07103e-26
5.76418e-26
8.23914e-26
7.26911e-26
9.83029e-26
1.11291e-25
1.68712e-25
1.28832e-25
8.93516e-26
1.22932e-25
1.86203e-25
1.84973e-25
1.4292e-25
1.73045e-25
2.40463e-25
2.55873e-25
2.59469e-25
1.86253e-25
1.76791e-25
1.03229e-25
1.21834e-25
1.23166e-25
1.63893e-25
1.36987e-25
1.31927e-25
1.27419e-25
1.39032e-25
1.38211e-25
1.35303e-25
1.31634e-25
1.68724e-25
1.66085e-25
1.4951e-25
2.39757e-25
2.41115e-25
2.23345e-25
2.3476e-25
2.24385e-25
1.99682e-25
1.57097e-25
1.71884e-25
1.80386e-25
2.10502e-25
2.44895e-25
1.75988e-25
1.91273e-25
1.62455e-25
1.80252e-25
1.61059e-25
1.49981e-25
1.54126e-25
1.59444e-25
1.87943e-25
2.46945e-25
2.31991e-25
2.48175e-25
2.8395e-25
2.46704e-25
2.509e-25
2.35327e-25
2.32092e-25
2.98216e-25
2.97363e-25
3.12051e-25
2.32658e-25
2.424e-25
2.33909e-25
2.28526e-25
1.67924e-25
1.75636e-25
1.60339e-25
1.49027e-25
1.9543e-25
2.0041e-25
2.60454e-25
2.91458e-25
3.20219e-25
2.96105e-25
3.12648e-25
2.72054e-25
3.45297e-25
3.14111e-25
3.34094e-25
4.00124e-25
2.8975e-25
2.77404e-25
2.91131e-25
2.45806e-25
2.06925e-25
2.25183e-25
1.98906e-25
1.49633e-25
1.68017e-25
2.14642e-25
2.69914e-25
2.91056e-25
3.58543e-25
3.72821e-25
3.33972e-25
3.81944e-25
4.17983e-25
4.41075e-25
4.23143e-25
4.35343e-25
3.49843e-25
3.07612e-25
3.21475e-25
3.52499e-25
2.85105e-25
2.1266e-25
2.14903e-25
1.9758e-25
1.79097e-25
2.03556e-25
2.8438e-25
3.20154e-25
3.75572e-25
3.59261e-25
3.82482e-25
4.43069e-25
4.77213e-25
5.16968e-25
5.06777e-25
4.55817e-25
4.2517e-25
3.82501e-25
3.77383e-25
4.09591e-25
3.95329e-25
3.08866e-25
2.46843e-25
2.51008e-25
2.28543e-25
2.72974e-25
2.98734e-25
3.28072e-25
4.01062e-25
4.03503e-25
3.8885e-25
5.61183e-25
5.47934e-25
5.93014e-25
5.18127e-25
4.85066e-25
4.77237e-25
5.09052e-25
4.63833e-25
5.33756e-25
4.46555e-25
3.91473e-25
3.36331e-25
3.58452e-25
3.22692e-25
3.25563e-25
3.28731e-25
3.94823e-25
4.43091e-25
4.04986e-25
3.80761e-25
6.15454e-25
5.80946e-25
5.73044e-25
6.92726e-25
5.95382e-25
5.51589e-25
5.37102e-25
5.8586e-25
6.70249e-25
5.38599e-25
4.85674e-25
4.38483e-25
3.97032e-25
4.00598e-25
4.42928e-25
4.51504e-25
4.48138e-25
4.41796e-25
4.2449e-25
4.16931e-25
6.11331e-25
6.49576e-25
6.48421e-25
7.28915e-25
6.65962e-25
7.0204e-25
7.19981e-25
6.86994e-25
6.83267e-25
6.07294e-25
5.66714e-25
5.3266e-25
5.11862e-25
4.96666e-25
5.24163e-25
5.92851e-25
5.25942e-25
4.94825e-25
4.77483e-25
4.46914e-25
6.21791e-25
6.56939e-25
7.0556e-25
8.18308e-25
8.14665e-25
8.3611e-25
7.31685e-25
7.19135e-25
6.93714e-25
6.77825e-25
7.07559e-25
6.70316e-25
5.95693e-25
5.9555e-25
6.38845e-25
6.87457e-25
6.20966e-25
5.14505e-25
4.88161e-25
5.23212e-25
6.94665e-25
6.59284e-25
7.63926e-25
8.48384e-25
8.79475e-25
8.37648e-25
8.90732e-25
8.1008e-25
7.13056e-25
7.01443e-25
8.31801e-25
7.37249e-25
7.28052e-25
7.94994e-25
7.11208e-25
7.10104e-25
6.75289e-25
5.93473e-25
5.55409e-25
5.59972e-25
7.05214e-25
7.28763e-25
8.09464e-25
9.50447e-25
1.02755e-24
9.56813e-25
9.18494e-25
8.64228e-25
7.48434e-25
7.89384e-25
8.38932e-25
8.15695e-25
8.95383e-25
8.67031e-25
7.26475e-25
7.48571e-25
7.30065e-25
6.66319e-25
6.03441e-25
6.02719e-25
7.44798e-25
8.21058e-25
9.81974e-25
1.06077e-24
1.07691e-24
1.02269e-24
8.50314e-25
9.31714e-25
8.8498e-25
9.26838e-25
9.42034e-25
8.91545e-25
8.7109e-25
8.97903e-25
8.20476e-25
7.5707e-25
7.60222e-25
7.55114e-25
6.87326e-25
6.46289e-25
7.29091e-25
8.73153e-25
1.07559e-24
1.14536e-24
1.1153e-24
9.93983e-25
9.66757e-25
1.04255e-24
9.96428e-25
9.32454e-25
8.79153e-25
9.23056e-25
9.26659e-25
9.54898e-25
8.86882e-25
9.13498e-25
8.35258e-25
7.46549e-25
6.56039e-25
6.50204e-25
8.48506e-25
9.40913e-25
1.039e-24
1.10149e-24
1.14203e-24
1.10533e-24
1.03116e-24
9.89374e-25
1.06079e-24
9.51817e-25
9.23152e-25
9.92145e-25
9.61881e-25
9.92741e-25
9.55925e-25
8.50012e-25
8.17421e-25
7.21305e-25
6.49654e-25
6.48303e-25
8.54339e-25
9.33047e-25
1.10688e-24
1.14705e-24
1.11419e-24
1.0549e-24
1.03282e-24
1.03283e-24
1.088e-24
1.02991e-24
1.0267e-24
9.28376e-25
9.31783e-25
9.78967e-25
8.84423e-25
8.70508e-25
8.01841e-25
6.44286e-25
6.04097e-25
6.45058e-25
8.52975e-25
9.45992e-25
1.0542e-24
1.04688e-24
1.05944e-24
1.03778e-24
1.12348e-24
1.04237e-24
1.14474e-24
1.05861e-24
9.81409e-25
9.5557e-25
9.48063e-25
9.70159e-25
9.47527e-25
8.69057e-25
8.5306e-25
7.4168e-25
5.75111e-25
5.96864e-25
8.34202e-25
8.76552e-25
9.77198e-25
8.98894e-25
9.92135e-25
1.02166e-24
1.03539e-24
1.07409e-24
1.14629e-24
1.10489e-24
9.98785e-25
9.14664e-25
8.96252e-25
1.03844e-24
1.03319e-24
7.98259e-25
9.01827e-25
7.54098e-25
5.47327e-25
5.71827e-25
)
;

boundaryField
{
    movingWall
    {
        type            calculated;
        value           nonuniform List<scalar> 
20
(
8.34202e-25
8.76552e-25
9.77198e-25
8.98894e-25
9.92135e-25
1.02166e-24
1.03539e-24
1.07409e-24
1.14629e-24
1.10489e-24
9.98785e-25
9.14664e-25
8.96252e-25
1.03844e-24
1.03319e-24
7.98259e-25
9.01827e-25
7.54098e-25
5.47327e-25
5.71827e-25
)
;
    }
    fixedWalls
    {
        type            calculated;
        value           nonuniform List<scalar> 
60
(
1.42683e-26
6.38898e-26
1.03229e-25
1.57097e-25
2.35327e-25
2.72054e-25
3.81944e-25
4.43069e-25
5.61183e-25
6.15454e-25
6.11331e-25
6.21791e-25
6.94665e-25
7.05214e-25
7.44798e-25
7.29091e-25
8.48506e-25
8.54339e-25
8.52975e-25
8.34202e-25
1.91376e-25
1.76791e-25
1.99682e-25
2.509e-25
3.12648e-25
3.33972e-25
3.82482e-25
3.8885e-25
3.80761e-25
4.16931e-25
4.46914e-25
5.23212e-25
5.59972e-25
6.02719e-25
6.46289e-25
6.50204e-25
6.48303e-25
6.45058e-25
5.96864e-25
5.71827e-25
1.42683e-26
2.17377e-26
3.68128e-26
6.38033e-26
8.92552e-26
1.03142e-25
1.19755e-25
1.54058e-25
1.19895e-25
9.14046e-26
1.31211e-25
1.70001e-25
1.55184e-25
1.58395e-25
2.02228e-25
2.4375e-25
2.37799e-25
2.47108e-25
1.59956e-25
1.91376e-25
)
;
    }
    frontAndBack
    {
        type            empty;
    }
}


// ************************************************************************* //
