/*--------------------------------*- C++ -*----------------------------------*\
| =========                 |                                                 |
| \\      /  F ield         | OpenFOAM: The Open Source CFD Toolbox           |
|  \\    /   O peration     | Version:  2312                                  |
|   \\  /    A nd           | Website:  www.openfoam.com                      |
|    \\/     M anipulation  |                                                 |
\*---------------------------------------------------------------------------*/
FoamFile
{
    version     2.0;
    format      ascii;
    arch        "LSB;label=32;scalar=64";
    class       volScalarField;
    location    "9";
    object      dUdt2;
}
// * * * * * * * * * * * * * * * * * * * * * * * * * * * * * * * * * * * * * //

dimensions      [0 2 -4 0 0 0 0];

internalField   nonuniform List<scalar> 
400
(
1.51335e-27
9.01991e-27
4.97824e-28
4.93193e-28
1.02583e-28
3.07e-30
5.14631e-28
5.03143e-28
1.98235e-27
1.97336e-27
4.95946e-28
4.45871e-27
7.34574e-29
8.36052e-28
8.04554e-28
4.43962e-27
2.29329e-27
2.96474e-28
1.99809e-27
2.80625e-29
8.51523e-27
4.12087e-27
2.91863e-27
9.00252e-28
2.72947e-28
7.94703e-27
8.01334e-27
2.73914e-27
1.33805e-28
2.17597e-27
5.46846e-29
1.97475e-27
1.97375e-27
2.32783e-28
7.89235e-27
1.9729e-27
5.76996e-28
7.06208e-28
2.12414e-27
1.60688e-30
4.87275e-26
8.95537e-29
3.5924e-27
3.282e-27
3.21965e-27
1.76951e-30
5.22828e-28
2.66223e-27
1.98688e-27
2.9393e-28
2.03953e-27
3.12112e-29
4.94268e-29
1.8561e-28
2.10829e-27
6.11523e-28
6.14485e-28
2.01993e-27
1.99578e-27
3.01789e-28
7.97679e-27
3.8917e-27
1.14314e-27
4.76958e-28
2.45686e-28
5.09171e-28
2.00636e-27
2.08141e-27
5.28963e-28
5.05822e-28
5.45491e-30
1.61836e-28
3.75312e-29
9.05106e-28
1.98994e-27
2.03675e-27
1.99281e-27
1.97452e-27
8.65754e-29
6.3087e-28
1.67338e-26
2.88924e-27
1.63713e-27
8.13988e-28
4.80582e-27
7.27673e-28
6.30992e-28
5.30973e-28
2.58125e-27
6.2869e-28
5.4148e-28
1.99341e-27
2.33356e-27
2.03014e-27
4.96311e-28
2.04733e-27
4.97658e-28
2.03687e-27
7.37606e-28
3.749e-28
2.41025e-26
1.53127e-28
5.40193e-27
2.22952e-27
2.24777e-28
3.15304e-28
5.6344e-28
2.00862e-27
3.33296e-29
1.98819e-27
2.22883e-27
3.85031e-29
4.98432e-28
3.46854e-28
6.61897e-28
4.93045e-28
9.47513e-30
7.38944e-28
3.23854e-28
1.17785e-28
1.35871e-26
2.94291e-27
2.47318e-27
1.23063e-27
4.457e-27
6.29681e-28
2.12823e-27
6.79414e-29
1.38423e-27
3.88257e-28
6.59513e-28
1.61101e-28
1.17543e-28
1.23329e-29
1.97535e-27
1.97236e-27
2.02579e-27
2.1162e-27
5.05725e-28
3.64487e-29
1.98891e-26
2.09524e-27
2.18803e-27
1.80039e-29
4.78435e-30
7.19445e-29
2.13547e-28
3.43134e-29
2.07302e-27
8.26666e-29
1.96429e-28
5.18727e-28
1.11948e-28
7.77251e-28
8.41605e-28
1.98185e-27
2.15002e-27
6.11938e-28
7.47771e-31
5.06545e-28
1.14724e-26
5.61099e-28
5.18026e-28
2.51226e-27
8.49499e-27
4.46844e-29
1.97218e-27
1.0081e-28
1.67882e-28
5.62839e-31
4.51714e-27
1.56051e-29
1.97325e-27
2.15515e-27
1.25953e-27
5.47086e-28
2.01312e-27
2.69316e-29
5.79745e-30
4.98069e-28
1.68845e-26
1.23843e-27
6.0072e-28
2.9076e-28
2.00061e-27
8.01232e-27
1.24869e-27
1.65796e-27
7.50317e-28
6.29988e-29
4.51981e-29
2.15401e-27
3.05518e-29
1.9747e-27
6.80238e-28
3.59936e-27
2.22462e-27
5.02926e-28
3.17154e-31
1.00136e-28
9.19574e-27
1.07655e-28
4.45029e-29
2.39546e-28
2.44297e-29
4.77788e-27
6.26767e-28
5.93108e-28
4.9679e-28
6.51169e-28
8.92521e-28
1.1422e-27
1.05417e-27
3.64376e-28
1.5256e-29
2.2271e-27
1.09691e-27
1.75413e-29
4.3396e-30
7.23732e-28
8.91031e-27
5.0052e-28
5.01187e-28
2.01431e-27
3.06749e-28
1.03087e-28
2.06849e-27
3.45294e-31
1.98343e-27
2.08621e-27
2.94823e-27
2.03048e-27
4.5047e-28
1.63326e-27
2.29143e-27
1.99167e-27
1.77341e-30
5.47879e-30
5.33354e-28
3.84057e-28
1.1247e-28
1.98182e-27
1.97603e-27
1.89385e-28
2.23872e-27
1.35863e-28
2.53833e-27
8.15848e-27
2.90972e-29
2.22398e-27
2.14845e-27
2.21313e-27
3.56219e-27
2.94333e-27
1.98276e-27
2.11591e-27
1.28011e-29
6.82241e-29
9.9445e-29
1.68805e-28
8.14342e-27
2.7407e-27
7.04691e-28
2.39632e-27
1.89138e-27
1.00338e-27
8.09394e-28
2.49273e-31
8.6717e-28
5.2246e-28
5.12534e-28
1.13208e-27
2.53415e-27
6.07517e-28
1.97926e-27
1.05683e-28
2.03032e-27
2.4546e-27
2.1673e-28
6.00829e-28
2.94897e-26
2.91473e-27
1.97534e-28
2.36797e-27
6.56031e-28
7.35965e-28
6.06465e-28
2.20443e-27
6.6664e-28
7.02676e-30
2.03273e-27
2.23941e-27
1.98347e-27
1.67886e-30
2.27098e-27
3.87763e-28
2.03057e-27
2.0229e-27
5.5546e-28
5.13451e-28
6.84437e-28
2.3893e-28
1.62125e-28
4.94573e-28
1.97954e-27
5.3576e-28
1.16476e-28
1.49903e-30
7.97635e-27
1.20346e-29
1.99981e-27
2.21136e-27
2.93039e-29
1.24149e-28
2.67029e-27
1.4914e-28
4.43744e-27
2.32908e-29
4.12892e-29
2.88253e-30
7.12815e-28
5.60117e-28
4.6773e-27
5.01751e-28
3.96599e-31
7.40661e-31
7.93531e-27
1.97653e-27
2.03702e-27
5.08384e-28
5.30839e-28
4.96315e-28
7.11468e-29
8.10172e-28
2.00391e-27
4.45384e-27
2.00443e-27
2.03982e-27
7.71195e-28
4.98092e-28
1.74293e-26
2.39627e-27
2.04746e-28
3.12632e-28
2.6849e-31
4.99522e-28
4.10534e-28
5.18061e-28
5.10501e-28
2.07042e-27
5.4481e-28
3.5485e-30
4.44908e-27
9.20236e-28
4.79683e-27
9.63591e-29
5.03389e-27
2.00246e-27
3.68395e-28
8.11498e-29
2.76278e-27
5.11943e-29
5.64463e-29
2.11538e-27
1.92424e-31
4.95558e-28
1.99041e-27
4.44452e-27
9.42215e-29
8.32515e-29
1.97657e-27
2.05897e-27
1.97284e-27
1.21383e-28
2.05152e-27
2.17615e-27
2.28949e-27
6.33623e-28
6.41449e-28
6.51318e-28
2.49704e-27
2.1543e-27
5.66184e-28
3.75728e-28
1.83027e-29
4.93449e-28
2.00717e-27
5.87789e-28
4.93051e-28
4.93264e-28
4.93138e-28
5.00381e-28
2.00701e-27
6.8185e-28
1.97496e-27
2.03544e-27
1.98393e-27
5.32906e-28
2.04463e-27
2.70483e-29
)
;

boundaryField
{
    movingWall
    {
        type            calculated;
        value           uniform 0;
    }
    fixedWalls
    {
        type            calculated;
        value           uniform 0;
    }
    frontAndBack
    {
        type            empty;
    }
}


// ************************************************************************* //
