/*--------------------------------*- C++ -*----------------------------------*\
| =========                 |                                                 |
| \\      /  F ield         | OpenFOAM: The Open Source CFD Toolbox           |
|  \\    /   O peration     | Version:  2312                                  |
|   \\  /    A nd           | Website:  www.openfoam.com                      |
|    \\/     M anipulation  |                                                 |
\*---------------------------------------------------------------------------*/
FoamFile
{
    version     2.0;
    format      ascii;
    arch        "LSB;label=32;scalar=64";
    class       volScalarField;
    location    "9";
    object      enstrophyField;
}
// * * * * * * * * * * * * * * * * * * * * * * * * * * * * * * * * * * * * * //

dimensions      [0 0 -2 0 0 0 0];

internalField   nonuniform List<scalar> 
400
(
4.56602e-23
7.1938e-23
3.51166e-24
1.6591e-25
1.11591e-26
9.24325e-28
4.15514e-28
1.39829e-29
3.54275e-28
7.08789e-32
2.01716e-31
1.21421e-27
2.0346e-27
1.65296e-28
3.22192e-30
7.38593e-29
4.59881e-28
6.64293e-29
4.35979e-29
2.27015e-29
6.7158e-25
1.35727e-24
1.29125e-25
3.15468e-27
3.05537e-28
5.65688e-28
6.58412e-28
5.70873e-27
4.42846e-27
2.7522e-27
2.72724e-27
3.29689e-28
8.64999e-28
2.10151e-27
1.09671e-29
6.51958e-28
8.62106e-27
2.75775e-27
1.39582e-29
2.73174e-28
1.51514e-23
4.01307e-23
2.58573e-24
6.22712e-26
3.44461e-26
2.25057e-27
8.36047e-28
5.00103e-27
6.01285e-27
3.80096e-27
4.15119e-27
3.54173e-27
5.42821e-28
1.68669e-29
3.83978e-29
4.50108e-27
1.69919e-27
1.41966e-28
3.64445e-29
3.72405e-29
1.57477e-24
8.25932e-24
4.22363e-25
2.33399e-26
5.03302e-27
9.63704e-29
3.42773e-29
4.18639e-27
1.5968e-27
1.53814e-27
1.86261e-27
4.17086e-28
4.83802e-27
2.42904e-27
1.06286e-29
2.32215e-29
2.28413e-29
3.92902e-27
2.72442e-30
5.15894e-28
1.06339e-24
3.27999e-24
2.26141e-25
5.75774e-27
2.71351e-27
1.99171e-28
4.07804e-28
5.8768e-27
6.42762e-27
1.22639e-27
2.07485e-28
2.54196e-28
3.48973e-28
8.63825e-29
2.819e-27
2.30015e-27
1.68171e-32
1.1587e-27
8.89319e-30
5.9236e-29
1.82116e-23
3.46084e-23
1.78842e-24
9.29493e-26
3.88186e-27
6.09054e-30
1.67283e-28
6.17493e-28
7.13988e-29
1.08501e-29
7.00065e-31
1.96252e-29
1.52307e-27
5.41941e-29
1.06748e-27
1.50991e-28
1.03919e-27
5.94927e-28
3.07097e-31
1.52963e-28
2.93785e-23
4.73793e-23
2.48518e-24
1.02102e-25
2.74252e-26
4.7723e-27
4.5666e-29
1.00037e-31
2.15958e-28
7.72892e-30
7.91052e-28
5.1363e-28
1.00674e-27
2.70681e-29
5.61683e-30
2.97703e-29
6.88392e-27
7.51711e-31
1.72811e-29
8.15558e-29
8.11955e-25
2.44421e-24
9.27015e-26
1.69402e-26
1.38814e-28
3.53748e-27
4.21472e-27
4.57754e-27
1.44851e-27
1.32859e-27
4.44862e-28
3.40861e-28
7.85695e-28
2.84134e-27
1.66714e-27
1.17388e-29
2.35954e-29
3.16418e-32
5.96538e-29
2.57343e-28
3.29994e-23
4.16222e-23
2.43496e-24
7.75864e-26
2.02241e-26
2.25471e-27
4.72867e-28
5.46428e-28
1.33388e-29
3.65538e-29
2.74219e-27
8.91834e-27
2.41546e-27
1.02985e-27
7.22624e-30
1.15456e-27
2.06116e-27
1.1615e-29
9.24209e-31
1.86638e-28
7.83913e-23
1.09062e-22
6.0228e-24
3.08668e-25
6.69516e-27
1.13527e-26
7.38148e-27
1.40308e-26
8.11813e-27
3.26255e-27
1.0871e-27
2.79734e-27
4.76542e-29
2.32433e-28
6.11724e-30
5.39559e-27
4.79351e-28
8.69141e-28
7.44459e-30
3.46094e-28
4.80422e-23
7.56908e-23
3.74691e-24
3.48899e-25
4.0238e-30
1.53114e-26
9.70995e-27
1.3386e-26
6.85357e-27
2.04772e-27
1.72536e-29
4.42478e-28
3.65499e-27
2.087e-27
8.64616e-28
4.79818e-29
7.59774e-28
1.14759e-29
3.91387e-28
1.08525e-29
1.39667e-23
1.14626e-23
6.62541e-25
2.84227e-26
1.18205e-26
5.4309e-27
5.79246e-27
5.42784e-27
5.53818e-27
2.91102e-27
1.04948e-26
2.15478e-26
3.03956e-27
2.49728e-27
1.63339e-27
8.30201e-28
2.26402e-27
2.65596e-32
8.40174e-29
3.51286e-30
1.40608e-24
7.44558e-24
2.9169e-25
4.80573e-26
3.91537e-27
1.17824e-26
2.86242e-26
2.93153e-26
2.52553e-26
1.77697e-26
1.36488e-26
2.12472e-26
2.03615e-26
1.0802e-26
2.59835e-28
2.10136e-28
1.55666e-30
1.3302e-27
1.80715e-30
1.11117e-28
3.19466e-23
3.91662e-23
2.16566e-24
5.3454e-26
2.60878e-26
4.43364e-27
2.05785e-28
4.98393e-28
1.99964e-27
3.48999e-29
2.81188e-28
2.2014e-27
2.8748e-29
1.62226e-28
3.55079e-28
6.68448e-29
1.13239e-27
3.00632e-27
5.25216e-30
6.0812e-28
3.66005e-23
4.92776e-23
2.6476e-24
1.29673e-25
6.76539e-27
1.19003e-27
1.519e-28
5.79472e-28
5.91216e-27
1.19724e-26
9.35319e-27
9.07477e-27
9.89975e-27
9.20961e-27
3.05847e-27
1.67929e-27
4.60743e-28
4.57085e-29
8.15906e-30
8.62135e-28
1.08615e-23
1.67543e-23
1.00855e-24
4.27338e-26
8.4009e-28
1.24829e-28
4.39401e-27
1.02994e-27
1.92156e-27
6.07114e-28
5.11699e-27
6.27183e-28
3.23477e-27
4.8083e-27
1.00062e-27
6.93287e-29
2.73056e-28
6.70877e-29
2.76135e-28
2.26823e-28
3.22739e-27
2.04789e-24
9.48373e-26
6.54848e-27
2.18934e-28
7.89148e-28
8.24107e-28
2.16874e-28
7.08082e-27
6.93087e-27
3.28024e-27
6.03674e-27
5.43817e-27
9.54743e-27
1.50617e-26
2.50851e-27
6.22613e-28
2.43733e-28
8.5611e-29
2.60448e-30
8.29057e-24
3.24831e-23
1.62168e-24
9.97488e-26
9.50935e-29
1.60397e-27
4.00577e-28
2.40282e-29
1.16582e-30
2.07673e-29
2.08927e-28
6.47662e-28
5.5746e-28
3.15465e-27
2.15045e-27
5.93485e-29
1.02777e-27
7.80102e-29
8.23845e-28
8.68989e-29
3.68052e-24
5.15587e-24
3.67534e-25
4.48407e-27
7.22557e-27
9.70678e-29
2.54879e-28
2.87121e-28
4.02791e-30
2.43883e-29
1.06532e-27
1.8847e-28
2.1322e-27
8.76508e-27
8.08023e-27
2.88466e-27
1.00527e-28
2.32378e-28
2.05766e-27
7.88643e-29
1.10158e-23
2.47159e-23
8.80405e-25
1.20698e-25
4.29187e-28
4.99243e-27
8.05044e-28
1.14446e-27
1.87602e-27
1.78765e-27
4.94956e-30
1.32645e-27
7.3346e-29
2.00535e-27
1.15206e-27
1.22983e-27
2.6168e-29
8.18848e-28
1.27401e-27
5.86021e-29
)
;

boundaryField
{
    movingWall
    {
        type            calculated;
        value           nonuniform List<scalar> 
20
(
4.00102e-23
3.61324e-23
6.74447e-25
2.10831e-25
1.75465e-26
2.89571e-26
3.18451e-26
3.38224e-26
2.62407e-26
2.59073e-26
4.2287e-27
8.69655e-28
7.3346e-29
4.15866e-29
3.41211e-27
3.54505e-27
2.6168e-29
8.92903e-29
3.61979e-27
5.86021e-29
)
;
    }
    fixedWalls
    {
        type            calculated;
        value           nonuniform List<scalar> 
60
(
1.30615e-21
3.1023e-23
7.76808e-22
1.39768e-22
5.93576e-23
6.23076e-22
8.88617e-22
4.52382e-23
7.93484e-22
2.03672e-21
1.36213e-21
2.09732e-22
1.30089e-22
7.28497e-22
9.06593e-22
3.10681e-22
3.6905e-23
6.1219e-22
1.04728e-22
4.32187e-22
3.25253e-30
3.26635e-28
5.74853e-29
1.19586e-27
3.01889e-30
3.09882e-28
2.22349e-28
3.59034e-28
5.56604e-29
5.02777e-28
1.50152e-28
9.3954e-29
9.1356e-32
1.1306e-27
9.72006e-28
2.11119e-28
6.87241e-30
6.51722e-30
4.66168e-28
1.64641e-28
7.97821e-23
9.10174e-23
2.41179e-24
3.781e-25
1.53172e-27
2.43392e-26
2.50359e-26
9.59321e-27
8.80999e-27
3.91093e-27
8.95951e-27
1.21722e-27
6.0652e-28
6.61763e-27
3.22192e-30
2.93868e-27
1.182e-26
2.98698e-27
3.15853e-27
2.27015e-29
)
;
    }
    frontAndBack
    {
        type            empty;
    }
}


// ************************************************************************* //
