/*--------------------------------*- C++ -*----------------------------------*\
| =========                 |                                                 |
| \\      /  F ield         | OpenFOAM: The Open Source CFD Toolbox           |
|  \\    /   O peration     | Version:  2312                                  |
|   \\  /    A nd           | Website:  www.openfoam.com                      |
|    \\/     M anipulation  |                                                 |
\*---------------------------------------------------------------------------*/
FoamFile
{
    version     2.0;
    format      ascii;
    arch        "LSB;label=32;scalar=64";
    class       volScalarField;
    location    "9";
    object      epsilon;
}
// * * * * * * * * * * * * * * * * * * * * * * * * * * * * * * * * * * * * * //

dimensions      [0 2 -3 0 0 0 0];

internalField   nonuniform List<scalar> 
400
(
8.61278e-07
8.61277e-07
8.61277e-07
8.61276e-07
8.61276e-07
8.61275e-07
8.61276e-07
8.61275e-07
8.61275e-07
8.61275e-07
8.61275e-07
8.61275e-07
8.61275e-07
8.61275e-07
8.61275e-07
8.61275e-07
8.61275e-07
8.61275e-07
8.61275e-07
8.61275e-07
8.80888e-07
8.71649e-07
8.72441e-07
8.72763e-07
8.73416e-07
8.73749e-07
8.74401e-07
8.74745e-07
8.75395e-07
8.7575e-07
8.76399e-07
8.76764e-07
8.77413e-07
8.77786e-07
8.78437e-07
8.78818e-07
8.7947e-07
8.7986e-07
8.80188e-07
8.80711e-07
9.12694e-07
9.02839e-07
9.03698e-07
9.04045e-07
9.04751e-07
9.05108e-07
9.05811e-07
9.06177e-07
9.06876e-07
9.07252e-07
9.07948e-07
9.08332e-07
9.09026e-07
9.09417e-07
9.1011e-07
9.10507e-07
9.112e-07
9.11604e-07
9.11951e-07
9.125e-07
9.47305e-07
9.36951e-07
9.37853e-07
9.38218e-07
9.38959e-07
9.39335e-07
9.40073e-07
9.40457e-07
9.41192e-07
9.41587e-07
9.42317e-07
9.42721e-07
9.4345e-07
9.43861e-07
9.44589e-07
9.45006e-07
9.45734e-07
9.46158e-07
9.46523e-07
9.471e-07
9.77559e-07
9.66758e-07
9.677e-07
9.6808e-07
9.68853e-07
9.69244e-07
9.70014e-07
9.70415e-07
9.71181e-07
9.71593e-07
9.72355e-07
9.72776e-07
9.73536e-07
9.73965e-07
9.74724e-07
9.75159e-07
9.75919e-07
9.76361e-07
9.76741e-07
9.77343e-07
1.00044e-06
9.893e-07
9.9027e-07
9.90663e-07
9.9146e-07
9.91864e-07
9.92657e-07
9.93072e-07
9.93861e-07
9.94286e-07
9.95072e-07
9.95507e-07
9.96291e-07
9.96734e-07
9.97517e-07
9.97966e-07
9.9875e-07
9.99206e-07
9.99598e-07
1.00022e-06
1.01618e-06
1.00479e-06
1.00578e-06
1.00618e-06
1.007e-06
1.00741e-06
1.00822e-06
1.00864e-06
1.00945e-06
1.00988e-06
1.01069e-06
1.01113e-06
1.01193e-06
1.01238e-06
1.01318e-06
1.01364e-06
1.01444e-06
1.01491e-06
1.01531e-06
1.01594e-06
1.02645e-06
1.01491e-06
1.01591e-06
1.01632e-06
1.01714e-06
1.01756e-06
1.01838e-06
1.01881e-06
1.01963e-06
1.02007e-06
1.02088e-06
1.02133e-06
1.02214e-06
1.0226e-06
1.02341e-06
1.02388e-06
1.02469e-06
1.02516e-06
1.02557e-06
1.02621e-06
1.03315e-06
1.02151e-06
1.02252e-06
1.02293e-06
1.02377e-06
1.02419e-06
1.02502e-06
1.02545e-06
1.02627e-06
1.02672e-06
1.02754e-06
1.02799e-06
1.02881e-06
1.02927e-06
1.03009e-06
1.03056e-06
1.03138e-06
1.03186e-06
1.03227e-06
1.03292e-06
1.0378e-06
1.02609e-06
1.02711e-06
1.02752e-06
1.02836e-06
1.02878e-06
1.02961e-06
1.03005e-06
1.03088e-06
1.03133e-06
1.03215e-06
1.03261e-06
1.03343e-06
1.0339e-06
1.03472e-06
1.03519e-06
1.03602e-06
1.0365e-06
1.03691e-06
1.03756e-06
1.04141e-06
1.02964e-06
1.03066e-06
1.03108e-06
1.03192e-06
1.03234e-06
1.03318e-06
1.03362e-06
1.03445e-06
1.0349e-06
1.03573e-06
1.03619e-06
1.03702e-06
1.03748e-06
1.03831e-06
1.03879e-06
1.03961e-06
1.04009e-06
1.04051e-06
1.04116e-06
1.0446e-06
1.03278e-06
1.03381e-06
1.03423e-06
1.03507e-06
1.0355e-06
1.03634e-06
1.03678e-06
1.03762e-06
1.03807e-06
1.0389e-06
1.03936e-06
1.04019e-06
1.04066e-06
1.04149e-06
1.04197e-06
1.0428e-06
1.04328e-06
1.0437e-06
1.04436e-06
1.04775e-06
1.03588e-06
1.03691e-06
1.03733e-06
1.03818e-06
1.03861e-06
1.03945e-06
1.03989e-06
1.04073e-06
1.04119e-06
1.04202e-06
1.04249e-06
1.04332e-06
1.04379e-06
1.04462e-06
1.0451e-06
1.04594e-06
1.04642e-06
1.04684e-06
1.0475e-06
1.05105e-06
1.03913e-06
1.04017e-06
1.04059e-06
1.04144e-06
1.04187e-06
1.04272e-06
1.04316e-06
1.04401e-06
1.04446e-06
1.0453e-06
1.04576e-06
1.0466e-06
1.04708e-06
1.04791e-06
1.04839e-06
1.04923e-06
1.04972e-06
1.05014e-06
1.0508e-06
1.05458e-06
1.04262e-06
1.04366e-06
1.04408e-06
1.04493e-06
1.04537e-06
1.04622e-06
1.04666e-06
1.04751e-06
1.04797e-06
1.04881e-06
1.04928e-06
1.05012e-06
1.0506e-06
1.05144e-06
1.05192e-06
1.05276e-06
1.05325e-06
1.05367e-06
1.05434e-06
1.05832e-06
1.0463e-06
1.04734e-06
1.04776e-06
1.04862e-06
1.04906e-06
1.04992e-06
1.05036e-06
1.05121e-06
1.05167e-06
1.05252e-06
1.05299e-06
1.05383e-06
1.05431e-06
1.05516e-06
1.05564e-06
1.05649e-06
1.05698e-06
1.0574e-06
1.05807e-06
1.06207e-06
1.04999e-06
1.05104e-06
1.05146e-06
1.05233e-06
1.05277e-06
1.05363e-06
1.05407e-06
1.05493e-06
1.05539e-06
1.05624e-06
1.05671e-06
1.05756e-06
1.05804e-06
1.05889e-06
1.05938e-06
1.06023e-06
1.06072e-06
1.06115e-06
1.06182e-06
1.0655e-06
1.05337e-06
1.05442e-06
1.05485e-06
1.05572e-06
1.05616e-06
1.05702e-06
1.05747e-06
1.05833e-06
1.05879e-06
1.05965e-06
1.06012e-06
1.06097e-06
1.06145e-06
1.06231e-06
1.0628e-06
1.06365e-06
1.06414e-06
1.06457e-06
1.06525e-06
1.06816e-06
1.05622e-06
1.05724e-06
1.05765e-06
1.05849e-06
1.05892e-06
1.05976e-06
1.06021e-06
1.06104e-06
1.0615e-06
1.06234e-06
1.06281e-06
1.06365e-06
1.06413e-06
1.06497e-06
1.06547e-06
1.06631e-06
1.06681e-06
1.06723e-06
1.06791e-06
1.06938e-06
1.06938e-06
1.06938e-06
1.06938e-06
1.06938e-06
1.06938e-06
1.06938e-06
1.06938e-06
1.06938e-06
1.06938e-06
1.06938e-06
1.06938e-06
1.06938e-06
1.06938e-06
1.06938e-06
1.06938e-06
1.06938e-06
1.06938e-06
1.06938e-06
1.06938e-06
)
;

boundaryField
{
    movingWall
    {
        type            epsilonWallFunction;
        blending        stepwise;
        value           nonuniform List<scalar> 
20
(
1.06938e-06
1.06938e-06
1.06938e-06
1.06938e-06
1.06938e-06
1.06938e-06
1.06938e-06
1.06938e-06
1.06938e-06
1.06938e-06
1.06938e-06
1.06938e-06
1.06938e-06
1.06938e-06
1.06938e-06
1.06938e-06
1.06938e-06
1.06938e-06
1.06938e-06
1.06938e-06
)
;
    }
    fixedWalls
    {
        type            epsilonWallFunction;
        blending        stepwise;
        value           nonuniform List<scalar> 
60
(
8.61278e-07
8.80888e-07
9.12694e-07
9.47305e-07
9.77559e-07
1.00044e-06
1.01618e-06
1.02645e-06
1.03315e-06
1.0378e-06
1.04141e-06
1.0446e-06
1.04775e-06
1.05105e-06
1.05458e-06
1.05832e-06
1.06207e-06
1.0655e-06
1.06816e-06
1.06938e-06
8.61275e-07
8.80711e-07
9.125e-07
9.471e-07
9.77343e-07
1.00022e-06
1.01594e-06
1.02621e-06
1.03292e-06
1.03756e-06
1.04116e-06
1.04436e-06
1.0475e-06
1.0508e-06
1.05434e-06
1.05807e-06
1.06182e-06
1.06525e-06
1.06791e-06
1.06938e-06
8.61278e-07
8.61277e-07
8.61277e-07
8.61276e-07
8.61276e-07
8.61275e-07
8.61276e-07
8.61275e-07
8.61275e-07
8.61275e-07
8.61275e-07
8.61275e-07
8.61275e-07
8.61275e-07
8.61275e-07
8.61275e-07
8.61275e-07
8.61275e-07
8.61275e-07
8.61275e-07
)
;
    }
    frontAndBack
    {
        type            empty;
    }
}


// ************************************************************************* //
