/*--------------------------------*- C++ -*----------------------------------*\
| =========                 |                                                 |
| \\      /  F ield         | OpenFOAM: The Open Source CFD Toolbox           |
|  \\    /   O peration     | Version:  2312                                  |
|   \\  /    A nd           | Website:  www.openfoam.com                      |
|    \\/     M anipulation  |                                                 |
\*---------------------------------------------------------------------------*/
FoamFile
{
    version     2.0;
    format      ascii;
    arch        "LSB;label=32;scalar=64";
    class       volScalarField;
    location    "9";
    object      flowTypeField;
}
// * * * * * * * * * * * * * * * * * * * * * * * * * * * * * * * * * * * * * //

dimensions      [0 0 0 0 0 0 0];

internalField   nonuniform List<scalar> 
400
(
0.42927
0.0541457
0.0246667
0.0680197
-0.0704978
0.0171634
-0.0221872
0.73595
0.103227
0.889268
0.743569
0.176873
-0.0399497
0.516633
0.890927
0.742008
0.479863
0.814715
0.681766
0.68922
0.932825
0.64314
0.565785
0.610648
0.707044
0.523895
0.377946
-0.311345
-0.155984
0.0870567
0.0937655
0.114305
0.300706
0.327035
0.883982
-0.0323362
-0.165491
-0.169752
0.856646
0.546487
0.365778
0.109681
-0.0897443
0.281163
-0.558844
0.396921
0.457003
0.245102
-0.0102122
-0.0715899
-0.0574249
-0.0346164
0.139222
0.799832
0.801721
0.057627
-0.0557
0.519913
0.486724
0.731743
0.836173
0.245561
0.253407
0.130252
0.0585376
0.487052
0.632525
0.0678541
0.104342
0.287682
-0.0491565
0.0884034
-0.107008
-0.0451569
0.873988
0.687929
0.719818
0.0959351
0.00247324
-0.176297
0.862372
0.381887
0.298797
0.448785
-0.246943
0.432219
0.119163
-0.21203
-0.287645
0.0858312
0.0363193
0.375004
0.0257609
0.457792
-0.0809904
-0.213345
0.69665
0.112568
0.566272
0.583322
0.392908
0.0564055
0.015145
0.0208571
0.0632223
0.878915
0.390639
0.39509
0.726571
0.723602
0.908086
0.715842
-0.016253
0.582485
0.146683
0.424422
0.165893
-0.265442
0.926533
0.40477
0.263596
0.0584588
-0.0380764
0.13316
-0.623358
0.123299
0.0389428
0.948775
0.424626
0.0723368
0.0154597
0.159912
0.26836
0.354402
0.907549
0.171506
-0.0817028
0.906619
0.721469
0.0903534
0.916635
0.504345
0.568288
0.35546
0.773571
0.138212
-0.0239223
-0.109401
0.121266
0.325253
0.487479
0.181497
-0.409408
-0.311501
-0.061949
0.250171
0.169409
0.976277
0.578617
0.380164
0.540836
0.0968035
0.0094511
0.237087
-0.372067
0.178313
0.451289
-0.0776704
0.91006
0.813457
-0.155476
-0.146303
-0.0391341
0.161765
0.910511
0.337212
0.162112
0.308282
0.648823
0.28033
0.0346388
0.0264926
-0.0646482
-0.0339793
0.342361
-0.349762
-0.0952959
-0.175549
-0.0936011
0.169564
0.216813
0.0871192
0.724635
0.589731
0.00313023
-0.0234648
0.437891
-0.45153
0.244616
0.0697959
0.324107
0.0324771
0.021667
-0.256293
0.975932
-0.165128
0.00109473
-0.00567186
0.137134
0.217253
0.716329
0.0142365
0.127909
-0.175206
-0.200102
0.00704803
-0.114562
0.872399
-0.0196126
0.0855079
0.65166
0.180817
0.150034
0.253268
-0.231206
0.132647
0.00897823
0.0705271
0.151652
0.124344
0.0139993
-0.0454224
0.224641
0.286279
0.392799
-0.233297
-0.236839
0.953147
0.514175
0.842474
0.850589
0.261327
0.333476
0.13486
0.387142
-0.0431943
-0.102493
-0.116284
-0.0357829
0.00684265
0.145708
-0.0399391
-0.0135946
0.0997285
0.602257
0.0604005
0.580914
0.132691
0.942247
0.455987
0.165732
0.0310371
-0.0777188
0.28325
-0.898019
0.160888
0.71919
0.049628
-0.0320821
0.475659
0.396459
-0.129619
0.768131
0.752366
0.518291
0.0312163
-0.0971846
-0.416247
0.819229
0.193385
0.0423237
0.0209041
-0.0661269
0.0259029
-0.300697
0.119012
0.49609
0.134736
-0.270876
0.039017
0.0111662
0.00600059
-0.0150138
0.00146011
0.0556549
0.280079
0.460824
0.611657
0.706757
0.0160216
0.61372
0.137697
0.0661484
0.112223
0.512576
0.396066
-0.059324
0.569861
0.0976594
-0.191827
-0.24025
-0.223794
0.0114554
-0.163021
-0.0656095
0.639092
0.218237
0.733837
0.188806
0.220027
0.992953
0.493743
0.545238
0.379825
0.722193
0.322497
0.311155
0.698326
-0.0568358
-0.0729628
0.0583577
0.0169279
-0.187259
-0.272215
0.00682562
0.179572
0.40187
0.000316031
0.521068
0.926657
0.469652
0.119399
0.0582175
0.0699566
0.849255
0.15871
0.26013
0.594039
0.802809
0.716698
0.287677
0.175349
0.422756
-0.388679
0.0776182
0.869342
0.386162
0.190717
-0.461129
0.510096
0.802906
0.368531
0.304205
0.595604
-0.294196
0.502446
0.743617
0.542345
0.833904
0.678354
0.163409
0.472474
0.312913
-0.174055
-0.11741
0.209094
0.472868
0.217897
-0.0450499
0.0279551
0.582107
0.0844714
0.184753
-0.214234
0.738806
-0.218989
0.321956
0.224521
-0.107272
0.0398366
0.833454
0.173403
0.600648
-0.0892803
0.33964
0.320003
0.268623
0.312584
0.314286
0.291859
)
;

boundaryField
{
    movingWall
    {
        type            calculated;
        value           nonuniform List<scalar> 
20
(
0.660127
0.126751
0.435597
-0.147269
0.316914
-0.0813826
0.0574008
0.0404833
-0.026556
-0.0151597
0.0101216
0.183828
0.544403
0.762085
0.252352
0.198328
0.677916
0.696531
0.190003
0.424676
)
;
    }
    fixedWalls
    {
        type            calculated;
        value           nonuniform List<scalar> 
60
(
0.0520609
0.634428
0.0700818
0.27441
0.395421
0.0552654
0.0321612
0.533117
0.0837877
0.00198585
0.030699
0.195077
0.296918
0.0125223
0.0032107
0.134423
0.517101
0.0934002
0.365563
0.104193
0.478364
0.663139
0.776946
-0.760054
0.928465
0.454888
0.0379901
0.65066
0.745491
-0.106123
0.570427
0.0134423
0.960149
0.244864
0.191
0.246394
0.932845
0.86427
0.00512205
0.154002
0.707214
0.168602
0.369678
-0.0749171
0.763743
-0.231202
0.00247832
-0.0135664
0.00680169
0.0174921
-0.000557151
0.0770022
0.312005
0.196846
0.937505
0.330725
0.145775
0.347473
0.174304
0.684784
)
;
    }
    frontAndBack
    {
        type            empty;
    }
}


// ************************************************************************* //
