/*--------------------------------*- C++ -*----------------------------------*\
| =========                 |                                                 |
| \\      /  F ield         | OpenFOAM: The Open Source CFD Toolbox           |
|  \\    /   O peration     | Version:  2312                                  |
|   \\  /    A nd           | Website:  www.openfoam.com                      |
|    \\/     M anipulation  |                                                 |
\*---------------------------------------------------------------------------*/
FoamFile
{
    version     2.0;
    format      ascii;
    arch        "LSB;label=32;scalar=64";
    class       surfaceScalarField;
    location    "9";
    object      fluxField;
}
// * * * * * * * * * * * * * * * * * * * * * * * * * * * * * * * * * * * * * //

dimensions      [0 3 -1 0 0 0 0];

oriented        oriented;

internalField   nonuniform List<scalar> 
760
(
-5e-05
3.76466e-18
-5e-05
-7.74169e-19
-5e-05
1.91421e-19
-5e-05
-3.20187e-20
-5e-05
1.40011e-20
-5e-05
-2.04318e-21
-5e-05
-1.89139e-21
-5e-05
-1.78051e-22
-5e-05
3.17087e-21
-5e-05
3.14258e-21
-5e-05
1.48413e-21
-5e-05
1.11862e-21
-5e-05
-1.05339e-22
-5e-05
7.13572e-21
-5e-05
7.09534e-21
-5e-05
6.59949e-21
-5e-05
1.80567e-21
-5e-05
-5.09341e-21
-5e-05
-6.09003e-21
-1.43804e-21
-5e-05
-2.11688e-18
-5e-05
4.47654e-19
-5e-05
-1.06097e-19
-5e-05
1.97303e-20
-5e-05
-1.06235e-20
-5e-05
-5.82668e-21
-5e-05
-5.43462e-21
-5e-05
-2.01213e-22
-5e-05
3.05219e-21
-5e-05
2.68741e-21
-5e-05
-1.97152e-22
-5e-05
-1.62832e-21
-5e-05
-1.26585e-21
-5e-05
5.3272e-22
-5e-05
-6.27397e-23
-5e-05
1.5527e-21
-5e-05
1.07723e-21
-5e-05
-3.14819e-21
-5e-05
-6.50056e-21
-3.96167e-21
-5e-05
-1.4863e-18
-5e-05
2.82721e-19
-5e-05
-8.64761e-20
-5e-05
4.95797e-21
-5e-05
-1.16059e-20
-5e-05
-1.69658e-21
-5e-05
2.19732e-21
-5e-05
3.70308e-21
-5e-05
1.75286e-21
-5e-05
2.81724e-21
-5e-05
-2.91221e-23
-5e-05
-1.33943e-21
-5e-05
-1.1854e-21
-5e-05
-7.06335e-21
-5e-05
-6.50987e-21
-5e-05
-3.71988e-21
-5e-05
-1.41499e-21
-5e-05
-1.00878e-21
-5e-05
-2.14607e-21
-3.72673e-21
-5e-05
1.88687e-18
-5e-05
-4.34868e-19
-5e-05
8.14069e-20
-5e-05
-3.01896e-20
-5e-05
5.6553e-22
-5e-05
-2.42589e-22
-5e-05
2.24967e-21
-5e-05
2.19081e-21
-5e-05
6.47746e-21
-5e-05
9.63182e-21
-5e-05
4.99283e-21
-5e-05
2.83302e-21
-5e-05
3.4092e-21
-5e-05
-1.2583e-21
-5e-05
-3.74925e-21
-5e-05
-5.3248e-21
-5e-05
-5.44938e-21
-5e-05
-3.68093e-21
-5e-05
-2.09909e-21
-3.21015e-21
-5e-05
-1.54735e-18
-5e-05
3.15054e-19
-5e-05
-8.06381e-20
-5e-05
1.03706e-20
-5e-05
-6.45207e-21
-5e-05
-1.65435e-23
-5e-05
-2.33498e-21
-5e-05
-1.85657e-21
-5e-05
6.44907e-21
-5e-05
9.14733e-21
-5e-05
6.44254e-21
-5e-05
4.35045e-21
-5e-05
3.73691e-21
-5e-05
4.76747e-21
-5e-05
3.05365e-21
-5e-05
-2.45277e-21
-5e-05
-4.69461e-21
-5e-05
-4.65386e-21
-5e-05
-5.02425e-21
-3.40358e-21
-5e-05
4.11584e-19
-5e-05
-7.18096e-20
-5e-05
1.72421e-20
-5e-05
-7.59344e-21
-5e-05
-1.49271e-21
-5e-05
1.82393e-21
-5e-05
1.73007e-21
-5e-05
2.00964e-21
-5e-05
3.62758e-21
-5e-05
3.41648e-21
-5e-05
5.77508e-21
-5e-05
6.87995e-21
-5e-05
2.97236e-21
-5e-05
2.68371e-21
-5e-05
3.73567e-21
-5e-05
-1.55307e-22
-5e-05
-2.53779e-21
-5e-05
-4.5396e-21
-5e-05
-4.69163e-21
-2.87393e-21
-5e-05
2.04033e-18
-5e-05
-4.4259e-19
-5e-05
9.84923e-20
-5e-05
-2.6759e-20
-5e-05
4.43165e-21
-5e-05
5.20853e-22
-5e-05
2.45011e-21
-5e-05
5.53424e-21
-5e-05
5.93003e-21
-5e-05
3.85708e-21
-5e-05
6.24737e-21
-5e-05
7.70553e-21
-5e-05
5.25972e-21
-5e-05
1.29935e-22
-5e-05
-1.87306e-21
-5e-05
-1.59125e-21
-5e-05
-2.59078e-21
-5e-05
-5.5377e-21
-5e-05
-2.96021e-21
-1.33726e-21
-5e-05
-3.11479e-18
-5e-05
6.43241e-19
-5e-05
-1.59109e-19
-5e-05
3.13319e-20
-5e-05
-7.83589e-21
-5e-05
-2.78414e-21
-5e-05
-3.59576e-21
-5e-05
-1.07188e-21
-5e-05
-1.49234e-21
-5e-05
-2.45969e-21
-5e-05
-2.03402e-23
-5e-05
3.18273e-21
-5e-05
6.51193e-21
-5e-05
3.87249e-21
-5e-05
-9.87965e-22
-5e-05
-2.83663e-21
-5e-05
-1.31583e-21
-5e-05
-2.05522e-21
-5e-05
-1.73786e-22
1.01537e-21
-5e-05
1.52289e-18
-5e-05
-3.28688e-19
-5e-05
7.77114e-20
-5e-05
-1.27151e-20
-5e-05
6.86966e-21
-5e-05
-1.83917e-22
-5e-05
-1.55366e-22
-5e-05
-4.36653e-21
-5e-05
-9.64135e-21
-5e-05
-1.04081e-20
-5e-05
-7.36951e-21
-5e-05
-3.55108e-21
-5e-05
5.43334e-22
-5e-05
4.60821e-21
-5e-05
3.72698e-21
-5e-05
-2.09209e-21
-5e-05
-3.45358e-21
-5e-05
-5.57755e-22
-5e-05
1.39827e-21
7.46799e-22
-5e-05
6.9802e-19
-5e-05
-1.3346e-19
-5e-05
3.42642e-20
-5e-05
-4.37143e-21
-5e-05
6.01546e-21
-5e-05
4.93812e-21
-5e-05
5.31689e-21
-5e-05
2.62496e-21
-5e-05
-2.43297e-21
-5e-05
-6.73734e-21
-5e-05
-6.6286e-21
-5e-05
-6.31048e-21
-5e-05
-4.33843e-21
-5e-05
-9.29067e-22
-5e-05
3.65086e-21
-5e-05
1.81623e-21
-5e-05
-4.43952e-21
-5e-05
-2.11732e-21
-5e-05
4.05095e-22
-1.37092e-21
-5e-05
-2.11085e-18
-5e-05
4.66585e-19
-5e-05
-1.09949e-19
-5e-05
2.25612e-20
-5e-05
-8.15241e-21
-5e-05
7.23102e-22
-5e-05
6.6471e-22
-5e-05
1.48388e-21
-5e-05
-1.44903e-22
-5e-05
-3.92205e-21
-5e-05
-5.72801e-21
-5e-05
-3.05239e-21
-5e-05
-6.02382e-22
-5e-05
-2.8432e-21
-5e-05
-6.64044e-22
-5e-05
1.51294e-21
-5e-05
2.97678e-22
-5e-05
1.81399e-21
-5e-05
1.43776e-21
-1.93983e-21
-5e-05
2.30342e-18
-5e-05
-5.019e-19
-5e-05
1.21362e-19
-5e-05
-2.31714e-20
-5e-05
4.57938e-21
-5e-05
-7.89798e-23
-5e-05
-9.66514e-22
-5e-05
-5.88222e-21
-5e-05
-8.34826e-21
-5e-05
-8.65252e-21
-5e-05
-9.29742e-21
-5e-05
-6.9617e-21
-5e-05
-8.93415e-21
-5e-05
-1.08144e-20
-5e-05
-7.68315e-21
-5e-05
-2.2245e-21
-5e-05
8.52734e-22
-5e-05
1.48674e-21
-5e-05
1.37369e-22
-2.5241e-21
-5e-05
-1.22676e-18
-5e-05
2.50758e-19
-5e-05
-5.33906e-20
-5e-05
1.62787e-20
-5e-05
-1.72064e-21
-5e-05
-1.96268e-21
-5e-05
-2.65299e-21
-5e-05
-5.86471e-21
-5e-05
-1.0094e-20
-5e-05
-1.00985e-20
-5e-05
-7.70134e-21
-5e-05
-9.8982e-21
-5e-05
-1.48388e-20
-5e-05
-1.48099e-20
-5e-05
-8.6539e-21
-5e-05
-2.94254e-22
-5e-05
-6.38157e-22
-5e-05
-4.97433e-21
-5e-05
-7.12869e-21
-4.63935e-21
-5e-05
2.99399e-19
-5e-05
-6.39244e-20
-5e-05
1.66133e-20
-5e-05
-2.16024e-21
-5e-05
-1.85464e-21
-5e-05
-9.85589e-21
-5e-05
-1.04876e-20
-5e-05
-1.05702e-20
-5e-05
-9.8698e-21
-5e-05
-5.9715e-21
-5e-05
-2.97717e-21
-5e-05
-4.81236e-21
-5e-05
-6.21431e-21
-5e-05
-5.41167e-21
-5e-05
-3.89315e-21
-5e-05
4.74472e-22
-5e-05
-6.67661e-23
-5e-05
-3.83399e-21
-5e-05
-8.28986e-21
-4.03362e-21
-5e-05
1.07291e-18
-5e-05
-2.2114e-19
-5e-05
5.17491e-20
-5e-05
-1.44711e-20
-5e-05
-2.4788e-21
-5e-05
-9.19066e-21
-5e-05
-1.07251e-20
-5e-05
-8.50212e-21
-5e-05
-4.42037e-21
-5e-05
2.99687e-22
-5e-05
-1.55158e-21
-5e-05
-4.35082e-21
-5e-05
-3.83084e-21
-5e-05
-2.83404e-21
-5e-05
-7.97009e-21
-5e-05
-8.01766e-21
-5e-05
-4.09048e-21
-5e-05
-1.36267e-21
-5e-05
-3.58494e-21
-1.47141e-21
-5e-05
-2.23381e-18
-5e-05
4.92874e-19
-5e-05
-1.11291e-19
-5e-05
2.2157e-20
-5e-05
-9.59376e-21
-5e-05
-3.18799e-21
-5e-05
-2.48793e-21
-5e-05
3.32232e-21
-5e-05
3.6519e-21
-5e-05
2.62238e-21
-5e-05
-6.12201e-22
-5e-05
-2.26003e-21
-5e-05
-3.05498e-21
-5e-05
-7.78323e-21
-5e-05
-1.46833e-20
-5e-05
-1.49234e-20
-5e-05
-9.11839e-21
-5e-05
-4.35053e-21
-5e-05
-7.02871e-22
-1.78077e-22
-5e-05
1.74994e-18
-5e-05
-3.52229e-19
-5e-05
9.17756e-20
-5e-05
-1.76502e-20
-5e-05
1.94695e-21
-5e-05
-2.19492e-21
-5e-05
-2.28077e-21
-5e-05
9.08158e-22
-5e-05
1.02191e-21
-5e-05
-1.35573e-21
-5e-05
-2.91819e-21
-5e-05
-2.94203e-21
-5e-05
-5.50437e-21
-5e-05
-7.11432e-21
-5e-05
-6.64009e-21
-5e-05
-7.00413e-21
-5e-05
-6.74276e-21
-5e-05
-4.49155e-21
-5e-05
1.89961e-21
2.15142e-21
-5e-05
1.48908e-18
-5e-05
-3.22663e-19
-5e-05
7.3554e-20
-5e-05
-1.90064e-20
-5e-05
-8.81327e-22
-5e-05
-4.95436e-21
-5e-05
-4.97178e-21
-5e-05
-4.12245e-21
-5e-05
-2.45328e-21
-5e-05
-4.45027e-21
-5e-05
-5.81047e-21
-5e-05
-8.12896e-21
-5e-05
-9.95439e-21
-5e-05
-3.78455e-21
-5e-05
2.34618e-21
-5e-05
3.73412e-21
-5e-05
-1.71732e-21
-5e-05
-2.02874e-21
-5e-05
2.79211e-21
3.8281e-21
-5e-05
-2.84539e-18
-5e-05
5.80312e-19
-5e-05
-1.49373e-19
-5e-05
2.74564e-20
-5e-05
-9.64337e-21
-5e-05
-2.0486e-21
-5e-05
-1.69814e-21
-5e-05
-4.43784e-21
-5e-05
-2.50458e-21
-5e-05
-3.38648e-21
-5e-05
-2.85465e-21
-5e-05
-4.61269e-21
-5e-05
-5.45315e-21
-5e-05
-4.86754e-21
-5e-05
-1.73781e-21
-5e-05
1.36059e-21
-5e-05
-1.92382e-21
-5e-05
-3.75672e-22
-5e-05
2.80375e-21
3.04252e-21
-5e-05
-5e-05
-5e-05
-5e-05
-5e-05
-5e-05
-5e-05
-5e-05
-5e-05
-5e-05
-5e-05
-5e-05
-5e-05
-5e-05
-5e-05
-5e-05
-5e-05
-5e-05
-5e-05
)
;

boundaryField
{
    movingWall
    {
        type            calculated;
        value           uniform -0;
    }
    fixedWalls
    {
        type            calculated;
        value           nonuniform List<scalar> 
60
(
5e-05
5e-05
5e-05
5e-05
5e-05
5e-05
5e-05
5e-05
5e-05
5e-05
5e-05
5e-05
5e-05
5e-05
5e-05
5e-05
5e-05
5e-05
5e-05
5e-05
-5e-05
-5e-05
-5e-05
-5e-05
-5e-05
-5e-05
-5e-05
-5e-05
-5e-05
-5e-05
-5e-05
-5e-05
-5e-05
-5e-05
-5e-05
-5e-05
-5e-05
-5e-05
-5e-05
-5e-05
0
0
0
0
0
0
0
0
0
0
0
0
0
0
0
0
0
0
0
0
)
;
    }
    frontAndBack
    {
        type            empty;
        value           nonuniform List<scalar> 0();
    }
}


// ************************************************************************* //
