/*--------------------------------*- C++ -*----------------------------------*\
| =========                 |                                                 |
| \\      /  F ield         | OpenFOAM: The Open Source CFD Toolbox           |
|  \\    /   O peration     | Version:  2312                                  |
|   \\  /    A nd           | Website:  www.openfoam.com                      |
|    \\/     M anipulation  |                                                 |
\*---------------------------------------------------------------------------*/
FoamFile
{
    version     2.0;
    format      ascii;
    arch        "LSB;label=32;scalar=64";
    class       volTensorField;
    location    "9";
    object      gradU;
}
// * * * * * * * * * * * * * * * * * * * * * * * * * * * * * * * * * * * * * //

dimensions      [0 0 -1 0 0 0 0];

internalField   nonuniform List<tensor> 
400
(
(-2.98156e-13 1.02338e-11 0 6.77626e-13 1.50586e-11 0 0 0 0)
(7.04731e-13 -1.2293e-11 0 -2.98156e-13 -3.09668e-12 0 0 0 0)
(-2.43945e-13 2.59594e-12 0 -5.42101e-14 7.65685e-13 0 0 0 0)
(-5.42101e-14 -6.03144e-13 0 -2.71051e-14 -1.28075e-13 0 0 0 0)
(-2.71051e-14 1.22287e-13 0 -2.71051e-14 5.60046e-14 0 0 0 0)
(0 -4.29959e-14 0 0 -8.17272e-15 0 0 0 0)
(0 -1.72249e-15 0 2.71051e-14 -7.56556e-15 0 0 0 0)
(-2.71051e-14 -5.28828e-15 0 0 -7.12203e-16 0 0 0 0)
(0 4.86464e-16 0 2.71051e-14 1.26835e-14 0 0 0 0)
(0 3.76507e-16 0 0 1.25703e-14 0 0 0 0)
(0 -6.35162e-16 0 0 5.93652e-15 0 0 0 0)
(-2.71051e-14 -4.9312e-15 0 -5.42101e-14 4.4745e-15 0 0 0 0)
(2.71051e-14 9.58019e-15 0 -5.42101e-14 -4.21357e-16 0 0 0 0)
(-2.71051e-14 1.81822e-14 0 0 2.85429e-14 0 0 0 0)
(-2.71051e-14 2.53847e-15 0 0 2.83814e-14 0 0 0 0)
(-5.42101e-14 -1.2154e-14 0 0 2.6398e-14 0 0 0 0)
(-2.71051e-14 -2.38825e-14 0 -5.42101e-14 7.22267e-15 0 0 0 0)
(8.13152e-14 -1.15264e-14 0 0 -2.03736e-14 0 0 0 0)
(2.71051e-14 9.33787e-15 0 0 -2.43601e-14 0 0 0 0)
(-2.71051e-14 6.73818e-15 0 0 -5.75216e-15 0 0 0 0)
(7.31836e-13 1.72815e-12 0 5.69206e-13 -2.35261e-11 0 0 0 0)
(-1.46367e-12 -1.99995e-12 0 -3.52366e-13 4.88729e-12 0 0 0 0)
(4.87891e-13 3.72657e-13 0 -1.35525e-13 -1.19007e-12 0 0 0 0)
(5.42101e-14 -1.06537e-13 0 -2.71051e-14 2.06996e-13 0 0 0 0)
(2.71051e-14 -2.38514e-15 0 -2.71051e-14 -9.84985e-14 0 0 0 0)
(5.42101e-14 -2.05742e-14 0 -5.42101e-14 -1.5134e-14 0 0 0 0)
(5.42101e-14 9.18301e-15 0 -2.71051e-14 -1.41729e-14 0 0 0 0)
(0 2.55373e-14 0 -8.13152e-14 -9.26492e-17 0 0 0 0)
(0 1.27961e-14 0 -8.13152e-14 -4.74739e-16 0 0 0 0)
(0 -7.12348e-15 0 -8.13152e-14 -1.82069e-15 0 0 0 0)
(0 -7.46067e-15 0 -8.13152e-14 -6.72513e-15 0 0 0 0)
(0 -1.42668e-15 0 -2.71051e-14 -1.09878e-14 0 0 0 0)
(-5.42101e-14 1.44882e-14 0 -2.71051e-14 -4.64205e-15 0 0 0 0)
(8.13152e-14 1.06205e-14 0 -5.42101e-14 -2.6412e-14 0 0 0 0)
(5.42101e-14 -4.6834e-15 0 0 -2.86323e-14 0 0 0 0)
(0 -9.00473e-15 0 2.71051e-14 -2.01872e-14 0 0 0 0)
(2.71051e-14 -2.2889e-14 0 1.0842e-13 -2.91377e-15 0 0 0 0)
(-2.71051e-14 -2.00564e-14 0 5.42101e-14 7.78087e-15 0 0 0 0)
(-5.42101e-14 5.2836e-15 0 0 -1.64213e-15 0 0 0 0)
(5.42101e-14 2.33741e-14 0 0 -1.00945e-14 0 0 0 0)
(-8.13152e-14 -8.40505e-12 0 -2.90024e-12 2.52231e-12 0 0 0 0)
(2.71051e-14 1.00431e-11 0 1.0842e-12 -6.59732e-13 0 0 0 0)
(5.42101e-14 -2.08435e-12 0 1.89735e-13 7.84839e-14 0 0 0 0)
(0 4.88431e-13 0 1.35525e-13 -5.90894e-14 0 0 0 0)
(2.71051e-14 -9.98428e-14 0 1.6263e-13 -3.92956e-15 0 0 0 0)
(2.71051e-14 4.13297e-14 0 1.0842e-13 1.65204e-14 0 0 0 0)
(-5.42101e-14 1.33189e-14 0 5.42101e-14 3.05277e-14 0 0 0 0)
(-8.13152e-14 8.4099e-15 0 1.0842e-13 1.56172e-14 0 0 0 0)
(0 -1.24158e-15 0 1.0842e-13 -5.1973e-15 0 0 0 0)
(0 -5.87388e-15 0 8.13152e-14 5.19315e-16 0 0 0 0)
(2.71051e-14 -9.80226e-15 0 8.13152e-14 6.7212e-16 0 0 0 0)
(0 -2.84812e-15 0 8.13152e-14 1.15558e-15 0 0 0 0)
(-2.71051e-14 -5.84402e-15 0 2.71051e-14 3.2182e-16 0 0 0 0)
(2.71051e-14 -5.80809e-15 0 0 -3.03843e-14 0 0 0 0)
(5.42101e-14 8.76331e-15 0 0 -2.57885e-14 0 0 0 0)
(5.42101e-14 1.35646e-14 0 -8.13152e-14 -2.10903e-14 0 0 0 0)
(0 4.0855e-15 0 -5.42101e-14 -9.96887e-15 0 0 0 0)
(-2.71051e-14 -1.02548e-14 0 -2.71051e-14 8.55762e-15 0 0 0 0)
(0 -8.5375e-15 0 0 1.7418e-14 0 0 0 0)
(-2.71051e-14 1.84748e-14 0 2.71051e-14 9.39748e-16 0 0 0 0)
(-1.13841e-12 3.59074e-12 0 1.81604e-12 1.34927e-11 0 0 0 0)
(1.6263e-12 -4.44378e-12 0 -3.79471e-13 -2.87035e-12 0 0 0 0)
(-4.60786e-13 9.733e-13 0 5.42101e-14 6.71532e-13 0 0 0 0)
(8.13152e-14 -1.8895e-13 0 2.71051e-14 -1.4059e-13 0 0 0 0)
(-5.42101e-14 7.32246e-14 0 -2.71051e-14 4.86856e-14 0 0 0 0)
(-2.71051e-14 1.38831e-14 0 0 5.81597e-15 0 0 0 0)
(2.71051e-14 8.27977e-15 0 0 2.09411e-16 0 0 0 0)
(5.42101e-14 -1.01877e-14 0 8.13152e-14 -6.04907e-15 0 0 0 0)
(-2.71051e-14 -2.30177e-15 0 5.42101e-14 1.88984e-14 0 0 0 0)
(-5.42101e-14 -1.25406e-15 0 5.42101e-14 2.72583e-14 0 0 0 0)
(0 -6.82441e-15 0 5.42101e-14 2.00878e-14 0 0 0 0)
(0 -1.77698e-15 0 2.71051e-14 1.66898e-14 0 0 0 0)
(-2.71051e-14 -1.70517e-14 0 8.13152e-14 1.83784e-14 0 0 0 0)
(-2.71051e-14 -1.54898e-14 0 5.42101e-14 2.32202e-14 0 0 0 0)
(-5.42101e-14 4.61056e-15 0 0 1.10425e-14 0 0 0 0)
(-2.71051e-14 6.81491e-15 0 0 -6.41968e-15 0 0 0 0)
(2.71051e-14 6.7589e-15 0 0 -1.61375e-14 0 0 0 0)
(5.42101e-14 7.33047e-15 0 -8.13152e-14 -1.06886e-14 0 0 0 0)
(0 -2.33428e-15 0 0 1.87931e-16 0 0 0 0)
(0 5.01639e-15 0 -2.71051e-14 2.06631e-15 0 0 0 0)
(1.32815e-12 2.21729e-12 0 7.58942e-13 -1.37369e-11 0 0 0 0)
(-1.70762e-12 -2.77808e-12 0 -2.1684e-13 2.99969e-12 0 0 0 0)
(4.06576e-13 6.45414e-13 0 -2.71051e-14 -6.4818e-13 0 0 0 0)
(-2.71051e-14 -1.34415e-13 0 -2.71051e-14 1.62241e-13 0 0 0 0)
(0 4.65633e-14 0 -2.71051e-14 -2.80704e-14 0 0 0 0)
(2.71051e-14 -7.14655e-15 0 -2.71051e-14 9.04182e-16 0 0 0 0)
(0 1.45381e-15 0 -2.71051e-14 -1.83386e-14 0 0 0 0)
(2.71051e-14 2.70989e-14 0 -8.13152e-14 -1.61895e-14 0 0 0 0)
(-2.71051e-14 3.20658e-14 0 -8.13152e-14 -1.13557e-16 0 0 0 0)
(0 -4.68448e-15 0 -5.42101e-14 -1.93796e-15 0 0 0 0)
(0 -2.03708e-14 0 0 5.79885e-15 0 0 0 0)
(-2.71051e-14 -4.55751e-15 0 -2.71051e-14 6.06972e-15 0 0 0 0)
(0 6.86383e-16 0 2.71051e-14 1.31082e-15 0 0 0 0)
(0 -1.3144e-14 0 0 2.41031e-14 0 0 0 0)
(-2.71051e-14 -2.08766e-14 0 5.42101e-14 2.72116e-14 0 0 0 0)
(0 -1.36154e-14 0 5.42101e-14 1.14881e-14 0 0 0 0)
(0 -1.83396e-16 0 0 3.01905e-15 0 0 0 0)
(0 6.07067e-15 0 5.42101e-14 -3.89171e-15 0 0 0 0)
(0 4.21739e-15 0 0 -1.17006e-14 0 0 0 0)
(0 1.62206e-14 0 2.71051e-14 -7.73725e-16 0 0 0 0)
(-6.23416e-13 -7.14647e-12 0 -1.11131e-12 7.83573e-12 0 0 0 0)
(8.67362e-13 8.64493e-12 0 3.25261e-13 -1.54745e-12 0 0 0 0)
(-2.43945e-13 -1.86415e-12 0 2.71051e-14 3.91521e-13 0 0 0 0)
(5.42101e-14 4.3116e-13 0 0 -7.18562e-14 0 0 0 0)
(-2.71051e-14 -8.8112e-14 0 0 1.98374e-14 0 0 0 0)
(-2.71051e-14 2.36149e-14 0 2.71051e-14 7.3619e-15 0 0 0 0)
(0 -8.81393e-15 0 -2.71051e-14 1.62602e-14 0 0 0 0)
(-5.42101e-14 8.03731e-15 0 -2.71051e-14 1.54649e-14 0 0 0 0)
(5.42101e-14 1.19498e-14 0 0 -1.1286e-14 0 0 0 0)
(0 4.65835e-15 0 0 -2.29234e-14 0 0 0 0)
(2.71051e-14 1.18327e-15 0 0 -2.66984e-15 0 0 0 0)
(-2.71051e-14 -6.26501e-15 0 0 1.0118e-14 0 0 0 0)
(0 9.81702e-16 0 -5.42101e-14 -3.05817e-15 0 0 0 0)
(2.71051e-14 1.0411e-14 0 0 -8.33503e-15 0 0 0 0)
(0 -8.00441e-15 0 -5.42101e-14 2.72811e-15 0 0 0 0)
(-2.71051e-14 -1.73776e-14 0 0 9.18987e-15 0 0 0 0)
(0 -8.62093e-15 0 -5.42101e-14 8.62727e-15 0 0 0 0)
(0 -7.38921e-15 0 2.71051e-14 4.57017e-16 0 0 0 0)
(2.71051e-14 7.83705e-16 0 0 1.33046e-15 0 0 0 0)
(-2.71051e-14 1.74907e-14 0 0 2.11859e-15 0 0 0 0)
(6.23416e-13 8.50556e-12 0 8.40257e-13 6.515e-12 0 0 0 0)
(-5.69206e-13 -1.02223e-11 0 -4.87891e-13 -1.48312e-12 0 0 0 0)
(5.42101e-14 2.12101e-12 0 -1.0842e-13 3.25001e-13 0 0 0 0)
(-1.0842e-13 -5.06099e-13 0 -5.42101e-14 -7.66622e-14 0 0 0 0)
(2.71051e-14 1.25781e-13 0 -1.0842e-13 2.36974e-14 0 0 0 0)
(2.71051e-14 -1.07238e-14 0 -1.0842e-13 -5.21231e-15 0 0 0 0)
(0 9.55678e-15 0 0 2.88015e-15 0 0 0 0)
(-2.71051e-14 -4.47296e-16 0 0 1.40984e-14 0 0 0 0)
(2.71051e-14 -6.32244e-15 0 -2.71051e-14 9.20982e-15 0 0 0 0)
(0 3.93165e-15 0 0 1.76238e-15 0 0 0 0)
(-2.71051e-14 1.26706e-14 0 -2.71051e-14 1.88918e-15 0 0 0 0)
(-2.71051e-14 -4.94584e-15 0 2.71051e-14 3.3023e-15 0 0 0 0)
(-5.42101e-14 -1.77667e-14 0 2.71051e-14 9.14944e-15 0 0 0 0)
(0 -7.35773e-15 0 0 -1.02151e-14 0 0 0 0)
(5.42101e-14 -3.35166e-15 0 0 -2.24349e-14 0 0 0 0)
(0 -7.71625e-15 0 0 -5.74377e-15 0 0 0 0)
(0 -8.91625e-15 0 1.0842e-13 -2.11954e-16 0 0 0 0)
(2.71051e-14 -1.22614e-15 0 0 -3.99239e-15 0 0 0 0)
(-2.71051e-14 5.87896e-15 0 0 6.92569e-15 0 0 0 0)
(0 1.27715e-14 0 0 6.1467e-15 0 0 0 0)
(-2.71051e-13 -2.11458e-12 0 -8.40257e-13 -2.06205e-11 0 0 0 0)
(-1.35525e-13 2.45492e-12 0 2.43945e-13 4.34332e-12 0 0 0 0)
(2.1684e-13 -4.5769e-13 0 -2.71051e-14 -1.0304e-12 0 0 0 0)
(1.35525e-13 1.29856e-13 0 -5.42101e-14 2.32364e-13 0 0 0 0)
(-8.13152e-14 -1.66622e-14 0 0 -4.90701e-14 0 0 0 0)
(5.42101e-14 2.79764e-15 0 -8.13152e-14 -1.322e-14 0 0 0 0)
(2.71051e-14 1.04968e-14 0 -8.13152e-14 -2.41835e-14 0 0 0 0)
(0 1.4367e-14 0 -8.13152e-14 -2.64245e-14 0 0 0 0)
(0 -3.86216e-16 0 -5.42101e-14 -2.96895e-14 0 0 0 0)
(5.42101e-14 -2.66229e-15 0 -5.42101e-14 -2.52671e-14 0 0 0 0)
(5.42101e-14 2.7232e-15 0 -2.71051e-14 -2.50709e-14 0 0 0 0)
(0 9.95243e-16 0 2.71051e-14 -1.80912e-14 0 0 0 0)
(0 -1.25357e-14 0 2.71051e-14 5.00883e-15 0 0 0 0)
(0 -2.11734e-14 0 5.42101e-14 1.49702e-14 0 0 0 0)
(0 -3.53308e-15 0 5.42101e-14 3.54039e-15 0 0 0 0)
(0 4.84536e-15 0 0 -4.98154e-15 0 0 0 0)
(0 -6.86955e-15 0 0 5.0998e-15 0 0 0 0)
(-5.42101e-14 -2.51562e-16 0 0 1.39299e-14 0 0 0 0)
(2.71051e-14 1.09228e-14 0 0 1.11457e-14 0 0 0 0)
(-2.71051e-14 4.41835e-15 0 2.71051e-14 9.41052e-15 0 0 0 0)
(2.71051e-14 -7.77159e-12 0 3.52366e-13 1.85507e-11 0 0 0 0)
(2.71051e-13 9.36778e-12 0 2.43945e-13 -3.88772e-12 0 0 0 0)
(-2.43945e-13 -1.98995e-12 0 2.1684e-13 9.47281e-13 0 0 0 0)
(-1.35525e-13 4.75235e-13 0 8.13152e-14 -1.76188e-13 0 0 0 0)
(0 -1.19802e-13 0 8.13152e-14 5.88222e-14 0 0 0 0)
(0 1.41629e-14 0 8.13152e-14 1.04009e-14 0 0 0 0)
(-5.42101e-14 -3.64775e-15 0 2.71051e-14 1.37616e-14 0 0 0 0)
(0 -5.95332e-15 0 2.71051e-14 -1.31786e-14 0 0 0 0)
(8.13152e-14 -5.16504e-15 0 0 -3.2596e-14 0 0 0 0)
(5.42101e-14 8.5503e-15 0 0 -3.17938e-14 0 0 0 0)
(0 1.98465e-14 0 -5.42101e-14 -2.93967e-14 0 0 0 0)
(2.71051e-14 2.51338e-14 0 -1.0842e-13 -2.69353e-14 0 0 0 0)
(2.71051e-14 1.52947e-14 0 -5.42101e-14 -2.38744e-14 0 0 0 0)
(0 -8.82617e-15 0 -5.42101e-14 2.94289e-15 0 0 0 0)
(-5.42101e-14 -2.33034e-14 0 -2.71051e-14 1.88598e-14 0 0 0 0)
(-5.42101e-14 -6.15684e-15 0 -5.42101e-14 2.97818e-15 0 0 0 0)
(5.42101e-14 9.9952e-15 0 -5.42101e-14 -8.55099e-15 0 0 0 0)
(0 4.81975e-15 0 0 5.98987e-15 0 0 0 0)
(0 1.35957e-15 0 0 6.28822e-15 0 0 0 0)
(0 -7.78469e-15 0 -2.71051e-14 -1.07429e-15 0 0 0 0)
(2.98156e-13 1.25484e-11 0 2.71051e-14 -3.29947e-12 0 0 0 0)
(-2.98156e-13 -1.51485e-11 0 -3.79471e-13 7.8091e-13 0 0 0 0)
(8.13152e-14 3.25384e-12 0 -2.1684e-13 -1.73789e-13 0 0 0 0)
(2.71051e-14 -7.58602e-13 0 2.71051e-14 3.33746e-14 0 0 0 0)
(-5.42101e-14 1.69927e-13 0 5.42101e-14 -3.41679e-15 0 0 0 0)
(0 -4.2263e-14 0 1.0842e-13 2.04882e-14 0 0 0 0)
(0 -1.30827e-14 0 1.0842e-13 2.1889e-14 0 0 0 0)
(-2.71051e-14 -3.19906e-14 0 1.35525e-13 2.7966e-14 0 0 0 0)
(-2.71051e-14 -1.90014e-14 0 1.0842e-13 2.88335e-14 0 0 0 0)
(-5.42101e-14 5.37061e-16 0 8.13152e-14 1.46832e-14 0 0 0 0)
(-2.71051e-14 7.5817e-15 0 5.42101e-14 2.96364e-15 0 0 0 0)
(0 6.51753e-15 0 8.13152e-14 -1.10376e-14 0 0 0 0)
(2.71051e-14 1.73425e-14 0 2.71051e-14 -1.9527e-14 0 0 0 0)
(5.42101e-14 2.15608e-14 0 0 -2.21491e-14 0 0 0 0)
(0 -3.49778e-15 0 0 -3.04492e-16 0 0 0 0)
(-5.42101e-14 -2.25654e-14 0 8.13152e-14 1.56333e-14 0 0 0 0)
(5.42101e-14 -3.85787e-15 0 2.71051e-14 -3.94375e-15 0 0 0 0)
(0 1.45876e-14 0 -2.71051e-14 -6.23824e-15 0 0 0 0)
(0 3.85865e-15 0 0 -3.97269e-15 0 0 0 0)
(0 -7.9558e-16 0 -2.71051e-14 -8.47086e-15 0 0 0 0)
(-2.71051e-13 -1.02902e-11 0 -4.87891e-13 -1.12355e-11 0 0 0 0)
(5.42101e-14 1.24935e-11 0 1.89735e-13 2.40018e-12 0 0 0 0)
(8.13152e-14 -2.73748e-12 0 0 -5.76851e-13 0 0 0 0)
(8.13152e-14 6.45607e-13 0 -1.89735e-13 1.07731e-13 0 0 0 0)
(5.42101e-14 -1.32688e-13 0 -1.35525e-13 -5.66715e-14 0 0 0 0)
(5.42101e-14 3.94687e-14 0 -1.35525e-13 -1.68601e-14 0 0 0 0)
(2.71051e-14 3.83006e-15 0 -1.35525e-13 -1.86087e-14 0 0 0 0)
(0 9.91209e-16 0 -1.6263e-13 -4.56432e-15 0 0 0 0)
(0 -1.84478e-14 0 -1.35525e-13 9.15226e-15 0 0 0 0)
(0 -1.73196e-14 0 -8.13152e-14 1.12612e-14 0 0 0 0)
(2.71051e-14 -5.87428e-15 0 0 3.60237e-15 0 0 0 0)
(0 2.64317e-15 0 -2.71051e-14 1.30324e-14 0 0 0 0)
(-5.42101e-14 4.1832e-15 0 -8.13152e-14 1.49442e-14 0 0 0 0)
(0 1.03964e-14 0 -5.42101e-14 -7.65652e-15 0 0 0 0)
(0 1.4479e-14 0 -2.71051e-14 -1.72596e-14 0 0 0 0)
(0 -9.7961e-15 0 0 -1.21316e-15 0 0 0 0)
(0 -1.18763e-14 0 2.71051e-14 1.89488e-14 0 0 0 0)
(-5.42101e-14 4.79081e-15 0 0 1.57252e-14 0 0 0 0)
(0 -8.73055e-16 0 2.71051e-14 4.13066e-15 0 0 0 0)
(0 4.65887e-15 0 0 -2.27564e-15 0 0 0 0)
(0 3.71311e-12 0 -1.57209e-12 1.76571e-11 0 0 0 0)
(1.6263e-13 -4.48987e-12 0 2.98156e-13 -3.87394e-12 0 0 0 0)
(-2.43945e-13 9.61386e-13 0 -1.89735e-13 9.25243e-13 0 0 0 0)
(-1.35525e-13 -2.38423e-13 0 0 -1.82931e-13 0 0 0 0)
(0 4.53359e-14 0 -1.0842e-13 5.09271e-14 0 0 0 0)
(-5.42101e-14 -4.20021e-15 0 -1.0842e-13 -3.20833e-15 0 0 0 0)
(0 -7.8694e-16 0 -1.0842e-13 -6.5249e-15 0 0 0 0)
(0 -4.22966e-15 0 -1.0842e-13 -2.94644e-14 0 0 0 0)
(5.42101e-14 -3.17591e-15 0 -1.0842e-13 -3.28134e-14 0 0 0 0)
(2.71051e-14 -5.01283e-15 0 -8.13152e-14 -1.89219e-14 0 0 0 0)
(5.42101e-14 9.3529e-15 0 -1.35525e-13 -1.42776e-14 0 0 0 0)
(-5.42101e-14 1.78593e-14 0 -1.89735e-13 -1.56372e-14 0 0 0 0)
(5.42101e-14 -3.34643e-15 0 -8.13152e-14 -3.33271e-14 0 0 0 0)
(5.42101e-14 -1.0643e-14 0 -8.13152e-14 -3.18846e-14 0 0 0 0)
(8.13152e-14 2.94558e-15 0 -5.42101e-14 -2.80764e-14 0 0 0 0)
(0 1.3643e-14 0 -2.71051e-14 -1.49498e-14 0 0 0 0)
(0 1.30805e-14 0 -5.42101e-14 2.22023e-15 0 0 0 0)
(2.71051e-14 -2.30476e-16 0 0 -1.30901e-15 0 0 0 0)
(0 -1.41422e-14 0 -2.71051e-14 -5.20157e-15 0 0 0 0)
(-2.71051e-14 -2.65061e-15 0 0 -2.33708e-15 0 0 0 0)
(-1.54499e-12 3.49299e-12 0 1.81604e-12 -1.41208e-11 0 0 0 0)
(1.40946e-12 -4.23838e-12 0 -3.79471e-13 3.01063e-12 0 0 0 0)
(-1.6263e-13 9.53529e-13 0 1.89735e-13 -6.99011e-13 0 0 0 0)
(2.1684e-13 -2.28708e-13 0 8.13152e-14 1.578e-13 0 0 0 0)
(-5.42101e-14 4.70338e-14 0 1.35525e-13 -2.52001e-14 0 0 0 0)
(5.42101e-14 -1.79834e-14 0 1.35525e-13 -7.53478e-15 0 0 0 0)
(0 -2.2426e-14 0 2.1684e-13 -6.74591e-15 0 0 0 0)
(0 -2.52973e-14 0 2.1684e-13 7.00453e-17 0 0 0 0)
(0 -7.90528e-15 0 2.1684e-13 -6.98312e-15 0 0 0 0)
(0 1.21618e-15 0 1.89735e-13 -5.78372e-15 0 0 0 0)
(-1.0842e-13 -2.58959e-15 0 1.6263e-13 6.38434e-15 0 0 0 0)
(5.42101e-14 -1.64063e-14 0 1.89735e-13 -1.1746e-14 0 0 0 0)
(5.42101e-14 -1.20642e-14 0 1.89735e-13 -2.36185e-14 0 0 0 0)
(0 1.5647e-14 0 1.6263e-13 -1.59822e-14 0 0 0 0)
(2.71051e-14 3.14138e-14 0 5.42101e-14 -3.883e-15 0 0 0 0)
(0 2.05006e-14 0 0 7.72101e-15 0 0 0 0)
(0 1.76446e-15 0 0 -5.96356e-15 0 0 0 0)
(0 -2.63098e-15 0 -5.42101e-14 -2.58443e-14 0 0 0 0)
(5.42101e-14 -1.90113e-15 0 0 -2.90642e-14 0 0 0 0)
(0 1.21975e-14 0 2.71051e-14 -8.46101e-15 0 0 0 0)
(1.40946e-12 -7.39702e-12 0 5.96311e-13 6.10466e-12 0 0 0 0)
(-1.46367e-12 8.93188e-12 0 8.13152e-14 -1.25873e-12 0 0 0 0)
(2.43945e-13 -1.89145e-12 0 1.89735e-13 2.80016e-13 0 0 0 0)
(-1.35525e-13 4.35388e-13 0 1.0842e-13 -7.37559e-14 0 0 0 0)
(0 -1.19999e-13 0 1.0842e-13 -5.35999e-16 0 0 0 0)
(0 1.4254e-14 0 1.0842e-13 -3.15728e-14 0 0 0 0)
(8.13152e-14 6.81789e-15 0 2.71051e-14 -3.13386e-14 0 0 0 0)
(0 -4.46687e-15 0 2.71051e-14 -1.8822e-14 0 0 0 0)
(2.71051e-14 -9.02967e-15 0 5.42101e-14 8.96965e-16 0 0 0 0)
(0 8.35463e-15 0 0 1.65078e-14 0 0 0 0)
(2.71051e-14 3.39059e-15 0 2.71051e-14 1.88967e-14 0 0 0 0)
(0 -1.21435e-14 0 5.42101e-14 2.03434e-14 0 0 0 0)
(-2.71051e-14 -7.58261e-15 0 0 3.44979e-14 0 0 0 0)
(-8.13152e-14 9.09249e-15 0 2.71051e-14 3.7593e-14 0 0 0 0)
(-5.42101e-14 2.66488e-14 0 0 1.9043e-14 0 0 0 0)
(0 1.15624e-14 0 0 3.0749e-15 0 0 0 0)
(-2.71051e-14 -2.04848e-14 0 2.71051e-14 2.28556e-15 0 0 0 0)
(0 -2.33311e-14 0 5.42101e-14 4.56136e-15 0 0 0 0)
(2.71051e-14 3.24104e-15 0 0 -4.64468e-15 0 0 0 0)
(-2.71051e-14 3.48746e-14 0 0 2.42293e-15 0 0 0 0)
(-8.94467e-13 8.33892e-12 0 -2.1684e-13 3.09403e-12 0 0 0 0)
(1.0842e-12 -1.0063e-11 0 -1.35525e-13 -6.28863e-13 0 0 0 0)
(-2.43945e-13 2.1385e-12 0 -1.6263e-13 1.40543e-13 0 0 0 0)
(1.0842e-13 -5.0926e-13 0 0 -4.92434e-14 0 0 0 0)
(0 8.92168e-14 0 -2.71051e-14 -2.49665e-15 0 0 0 0)
(-2.71051e-14 -4.87859e-14 0 0 2.66092e-15 0 0 0 0)
(-2.71051e-14 -9.67518e-15 0 -2.71051e-14 -9.50022e-16 0 0 0 0)
(2.71051e-14 6.93821e-15 0 -2.71051e-14 8.27234e-15 0 0 0 0)
(0 2.74245e-14 0 -8.13152e-14 2.17977e-14 0 0 0 0)
(-8.13152e-14 1.92159e-14 0 -1.35525e-13 2.50848e-14 0 0 0 0)
(-2.71051e-14 1.24597e-15 0 -1.35525e-13 5.70237e-15 0 0 0 0)
(0 -8.0505e-16 0 -1.35525e-13 1.84617e-15 0 0 0 0)
(2.71051e-14 5.18541e-15 0 -1.35525e-13 9.5339e-15 0 0 0 0)
(0 1.92139e-16 0 -1.35525e-13 1.03105e-14 0 0 0 0)
(0 -3.10424e-15 0 -8.13152e-14 -1.63077e-14 0 0 0 0)
(5.42101e-14 3.74311e-15 0 -5.42101e-14 -3.39685e-14 0 0 0 0)
(5.42101e-14 3.25092e-15 0 -2.71051e-14 -1.60949e-14 0 0 0 0)
(-2.71051e-14 -9.56122e-15 0 0 9.88525e-15 0 0 0 0)
(0 -4.03957e-15 0 0 1.88197e-14 0 0 0 0)
(-2.71051e-14 1.44193e-14 0 -2.71051e-14 1.02488e-14 0 0 0 0)
(1.0571e-12 -4.93185e-12 0 -2.71051e-13 -1.32269e-11 0 0 0 0)
(-1.40946e-12 5.97839e-12 0 1.89735e-13 2.85606e-12 0 0 0 0)
(4.06576e-13 -1.31183e-12 0 1.0842e-13 -6.52162e-13 0 0 0 0)
(-5.42101e-14 2.92348e-13 0 0 1.46512e-13 0 0 0 0)
(5.42101e-14 -6.80951e-14 0 -2.71051e-14 -2.84598e-14 0 0 0 0)
(0 1.58006e-14 0 0 2.40107e-14 0 0 0 0)
(0 1.24293e-14 0 -8.13152e-14 3.29488e-14 0 0 0 0)
(-1.0842e-13 1.82809e-14 0 -2.71051e-14 4.72978e-14 0 0 0 0)
(-2.71051e-14 7.78275e-15 0 -5.42101e-14 3.22891e-14 0 0 0 0)
(0 -7.74071e-15 0 2.71051e-14 9.29076e-15 0 0 0 0)
(0 -1.9848e-14 0 8.13152e-14 3.7575e-15 0 0 0 0)
(0 -8.31199e-15 0 2.71051e-14 8.36315e-15 0 0 0 0)
(0 8.81728e-16 0 8.13152e-14 3.1034e-15 0 0 0 0)
(0 -1.67491e-14 0 8.13152e-14 -1.97968e-14 0 0 0 0)
(0 -1.76302e-14 0 2.71051e-14 -2.68527e-14 0 0 0 0)
(2.71051e-14 1.17753e-14 0 0 -2.76229e-14 0 0 0 0)
(0 2.3369e-14 0 0 -2.01116e-14 0 0 0 0)
(5.42101e-14 1.15834e-14 0 0 -1.19514e-14 0 0 0 0)
(0 3.60463e-15 0 2.71051e-14 1.15283e-14 0 0 0 0)
(0 5.80611e-15 0 2.71051e-14 5.17333e-15 0 0 0 0)
(-9.21572e-13 -2.03191e-12 0 -1.95156e-12 1.5935e-11 0 0 0 0)
(1.38236e-12 2.5117e-12 0 4.87891e-13 -3.38041e-12 0 0 0 0)
(-4.33681e-13 -5.71042e-13 0 -1.35525e-13 8.12268e-13 0 0 0 0)
(2.71051e-14 1.14442e-13 0 0 -1.59229e-13 0 0 0 0)
(-5.42101e-14 -3.32848e-14 0 -5.42101e-14 4.61628e-14 0 0 0 0)
(-5.42101e-14 1.26227e-14 0 -2.71051e-14 3.97228e-15 0 0 0 0)
(-2.71051e-14 1.36119e-14 0 5.42101e-14 8.28649e-16 0 0 0 0)
(8.13152e-14 6.27846e-15 0 2.71051e-14 -9.65663e-15 0 0 0 0)
(2.71051e-14 -1.05825e-14 0 1.0842e-13 -1.05199e-14 0 0 0 0)
(0 -9.31568e-15 0 1.0842e-13 -1.59124e-14 0 0 0 0)
(2.71051e-14 3.18366e-16 0 8.13152e-14 -9.22396e-15 0 0 0 0)
(-2.71051e-14 -1.45915e-15 0 1.0842e-13 -2.728e-15 0 0 0 0)
(2.71051e-14 -2.29745e-14 0 8.13152e-14 -9.79753e-15 0 0 0 0)
(0 -2.97639e-14 0 1.0842e-13 2.67563e-15 0 0 0 0)
(-5.42101e-14 -1.09303e-14 0 1.6263e-13 3.21726e-14 0 0 0 0)
(0 1.04842e-14 0 8.13152e-14 3.1677e-14 0 0 0 0)
(2.71051e-14 1.89224e-14 0 5.42101e-14 9.50252e-15 0 0 0 0)
(0 2.20786e-14 0 0 -5.64075e-16 0 0 0 0)
(2.71051e-14 1.30852e-14 0 0 1.04099e-14 0 0 0 0)
(-5.42101e-14 -2.28232e-15 0 0 9.318e-15 0 0 0 0)
(-4.06576e-13 7.62276e-12 0 3.55076e-12 -1.04343e-12 0 0 0 0)
(4.06576e-13 -9.14436e-12 0 -1.0842e-12 1.18264e-13 0 0 0 0)
(-8.13152e-14 1.90936e-12 0 1.0842e-13 -7.28865e-14 0 0 0 0)
(8.13152e-14 -4.73757e-13 0 -2.71051e-14 -5.42477e-15 0 0 0 0)
(0 9.5106e-14 0 8.13152e-14 -1.13131e-14 0 0 0 0)
(5.42101e-14 -2.95336e-14 0 2.71051e-14 -1.10377e-14 0 0 0 0)
(2.71051e-14 -1.1996e-15 0 2.71051e-14 -1.0764e-14 0 0 0 0)
(0 6.93228e-15 0 0 -2.01224e-14 0 0 0 0)
(0 1.52697e-15 0 0 -1.39008e-14 0 0 0 0)
(2.71051e-14 -6.44473e-15 0 0 -1.23782e-14 0 0 0 0)
(0 -6.66359e-15 0 -2.71051e-14 -1.15691e-14 0 0 0 0)
(2.71051e-14 -8.88556e-15 0 2.71051e-14 -2.07477e-14 0 0 0 0)
(5.42101e-14 6.28536e-15 0 -2.71051e-14 -1.78001e-14 0 0 0 0)
(0 2.5221e-14 0 -5.42101e-14 1.33191e-14 0 0 0 0)
(-2.71051e-14 1.13711e-14 0 -5.42101e-14 3.59451e-14 0 0 0 0)
(-1.0842e-13 -1.08948e-14 0 0 4.2953e-14 0 0 0 0)
(-5.42101e-14 -8.87205e-15 0 -5.42101e-14 2.01018e-14 0 0 0 0)
(0 1.24908e-14 0 0 9.85122e-15 0 0 0 0)
(0 1.34867e-14 0 -2.71051e-14 3.56999e-15 0 0 0 0)
(0 -1.39218e-14 0 -2.71051e-14 6.70669e-15 0 0 0 0)
(1.54499e-12 -2.95707e-12 0 -2.43945e-13 -1.73379e-11 0 0 0 0)
(-2.03288e-12 3.48224e-12 0 2.71051e-13 3.6119e-12 0 0 0 0)
(5.96311e-13 -6.94731e-13 0 1.6263e-13 -8.91706e-13 0 0 0 0)
(-5.42101e-14 1.76015e-13 0 8.13152e-14 1.85851e-13 0 0 0 0)
(0 -3.88978e-14 0 8.13152e-14 -3.50482e-14 0 0 0 0)
(0 1.31718e-14 0 2.71051e-14 1.1623e-14 0 0 0 0)
(-1.0842e-13 4.52724e-15 0 2.71051e-14 1.30946e-14 0 0 0 0)
(5.42101e-14 3.14171e-15 0 2.71051e-14 -1.26159e-15 0 0 0 0)
(2.71051e-14 -2.83828e-15 0 0 -2.05193e-16 0 0 0 0)
(-2.71051e-14 -6.98402e-15 0 0 4.25518e-15 0 0 0 0)
(0 -8.05115e-15 0 -5.42101e-14 1.18233e-14 0 0 0 0)
(2.71051e-14 -7.69012e-15 0 -2.71051e-14 1.40651e-14 0 0 0 0)
(-8.13152e-14 1.10923e-14 0 -5.42101e-14 1.8005e-14 0 0 0 0)
(-2.71051e-14 2.39813e-14 0 -1.0842e-13 -4.33194e-15 0 0 0 0)
(2.71051e-14 1.87035e-14 0 -1.0842e-13 -1.6336e-14 0 0 0 0)
(5.42101e-14 -5.35918e-15 0 -8.13152e-14 -9.49412e-15 0 0 0 0)
(2.71051e-14 -1.41794e-14 0 0 -8.25999e-16 0 0 0 0)
(0 5.54688e-15 0 2.71051e-14 6.61229e-15 0 0 0 0)
(-2.71051e-14 9.94066e-15 0 -5.42101e-14 4.65888e-17 0 0 0 0)
(0 -1.2559e-14 0 0 -3.14232e-15 0 0 0 0)
(-4.06576e-13 -6.10325e-12 0 -1.40946e-12 1.13816e-11 0 0 0 0)
(7.86047e-13 7.30183e-12 0 2.71051e-13 -2.32125e-12 0 0 0 0)
(-2.1684e-13 -1.51669e-12 0 -1.89735e-13 5.9749e-13 0 0 0 0)
(-2.71051e-14 3.82901e-13 0 -1.0842e-13 -1.09826e-13 0 0 0 0)
(-2.71051e-14 -7.91222e-14 0 -1.0842e-13 3.85735e-14 0 0 0 0)
(0 1.86091e-14 0 -8.13152e-14 8.1944e-15 0 0 0 0)
(2.71051e-14 -1.40842e-14 0 -5.42101e-14 6.79255e-15 0 0 0 0)
(-2.71051e-14 -6.36747e-15 0 -5.42101e-14 1.77514e-14 0 0 0 0)
(0 7.04375e-15 0 -5.42101e-14 1.00183e-14 0 0 0 0)
(-2.71051e-14 5.58375e-15 0 -5.42101e-14 1.35459e-14 0 0 0 0)
(-2.71051e-14 3.14629e-15 0 0 1.14186e-14 0 0 0 0)
(-2.71051e-14 -2.70388e-15 0 -5.42101e-14 1.84508e-14 0 0 0 0)
(-2.71051e-14 -1.21116e-14 0 0 2.18126e-14 0 0 0 0)
(0 -9.11993e-15 0 5.42101e-14 1.94702e-14 0 0 0 0)
(-5.42101e-14 6.20895e-15 0 5.42101e-14 6.95124e-15 0 0 0 0)
(5.42101e-14 4.61517e-15 0 5.42101e-14 -5.44234e-15 0 0 0 0)
(0 7.23436e-15 0 0 7.69526e-15 0 0 0 0)
(-5.42101e-14 1.33634e-14 0 -2.71051e-14 1.50269e-15 0 0 0 0)
(5.42101e-14 3.7321e-15 0 5.42101e-14 -1.1215e-14 0 0 0 0)
(0 -1.08261e-14 0 0 -1.21701e-14 0 0 0 0)
)
;

boundaryField
{
    movingWall
    {
        type            extrapolatedCalculated;
        value           nonuniform List<tensor> 
20
(
(-4.06576e-13 -6.10325e-12 0 2.84217e-12 3.08097e-11 0 0 0 0)
(7.86047e-13 7.30183e-12 0 -1.19904e-12 -6.39672e-12 0 0 0 0)
(-2.1684e-13 -1.51669e-12 0 -3.55271e-13 1.60237e-12 0 0 0 0)
(-2.71051e-14 3.82901e-13 0 -2.66454e-13 -3.29957e-13 0 0 0 0)
(-2.71051e-14 -7.91222e-14 0 -2.66454e-13 7.07624e-14 0 0 0 0)
(0 1.86091e-14 0 -2.22045e-13 -1.34678e-14 0 0 0 0)
(2.71051e-14 -1.40842e-14 0 -2.66454e-13 -3.67411e-15 0 0 0 0)
(-2.71051e-14 -6.36747e-15 0 -2.66454e-13 4.28691e-14 0 0 0 0)
(0 7.04375e-15 0 -2.22045e-13 2.17958e-14 0 0 0 0)
(-2.71051e-14 5.58375e-15 0 -2.22045e-13 1.46941e-14 0 0 0 0)
(-2.71051e-14 3.14629e-15 0 -8.88178e-14 -5.39223e-16 0 0 0 0)
(-2.71051e-14 -2.70388e-15 0 -4.44089e-14 2.10894e-15 0 0 0 0)
(-2.71051e-14 -1.21116e-14 0 0 1.02763e-14 0 0 0 0)
(0 -9.11993e-15 0 0 5.05555e-14 0 0 0 0)
(-5.42101e-14 6.20895e-15 0 8.88178e-14 4.6756e-14 0 0 0 0)
(5.42101e-14 4.61517e-15 0 8.88178e-14 2.57197e-14 0 0 0 0)
(0 7.23436e-15 0 0 2.82954e-14 0 0 0 0)
(-5.42101e-14 1.33634e-14 0 0 -3.2177e-15 0 0 0 0)
(5.42101e-14 3.7321e-15 0 8.88178e-14 -2.51582e-14 0 0 0 0)
(0 -1.08261e-14 0 0 -1.81461e-14 0 0 0 0)
)
;
    }
    fixedWalls
    {
        type            extrapolatedCalculated;
        value           nonuniform List<tensor> 
60
(
(-2.39808e-12 5.17884e-11 0 6.77626e-13 1.50586e-11 0 0 0 0)
(5.10703e-12 8.44613e-12 0 5.69206e-13 -2.35261e-11 0 0 0 0)
(-8.88178e-14 -4.23162e-11 0 -2.90024e-12 2.52231e-12 0 0 0 0)
(-6.4837e-12 1.85354e-11 0 1.81604e-12 1.34927e-11 0 0 0 0)
(7.10543e-12 1.16546e-11 0 7.58942e-13 -1.37369e-11 0 0 0 0)
(-3.4639e-12 -3.64122e-11 0 -1.11131e-12 7.83573e-12 0 0 0 0)
(2.70894e-12 4.29975e-11 0 8.40257e-13 6.515e-12 0 0 0 0)
(-8.88178e-14 -1.03522e-11 0 -8.40257e-13 -2.06205e-11 0 0 0 0)
(-7.10543e-13 -3.94844e-11 0 3.52366e-13 1.85507e-11 0 0 0 0)
(1.37668e-12 6.38506e-11 0 2.71051e-14 -3.29947e-12 0 0 0 0)
(-6.21725e-13 -5.26823e-11 0 -4.87891e-13 -1.12355e-11 0 0 0 0)
(-5.32907e-13 1.89087e-11 0 -1.57209e-12 1.76571e-11 0 0 0 0)
(-6.92779e-12 1.79461e-11 0 1.81604e-12 -1.41208e-11 0 0 0 0)
(6.70575e-12 -3.75743e-11 0 5.96311e-13 6.10466e-12 0 0 0 0)
(-4.52971e-12 4.23647e-11 0 -2.1684e-13 3.09403e-12 0 0 0 0)
(5.86198e-12 -2.51982e-11 0 -2.71051e-13 -1.32269e-11 0 0 0 0)
(-5.68434e-12 -1.05428e-11 0 -1.95156e-12 1.5935e-11 0 0 0 0)
(-1.86517e-12 3.85419e-11 0 3.55076e-12 -1.04343e-12 0 0 0 0)
(8.52651e-12 -1.47166e-11 0 -2.43945e-13 -1.73379e-11 0 0 0 0)
(-2.84217e-12 -3.08097e-11 0 -1.40946e-12 1.13816e-11 0 0 0 0)
(0 -2.5505e-15 0 0 -5.75216e-15 0 0 0 0)
(8.88178e-14 2.55592e-14 0 0 -1.00945e-14 0 0 0 0)
(-4.44089e-14 3.78275e-14 0 2.71051e-14 9.39748e-16 0 0 0 0)
(0 2.18002e-14 0 -2.71051e-14 2.06631e-15 0 0 0 0)
(-4.44089e-14 2.95622e-14 0 2.71051e-14 -7.73725e-16 0 0 0 0)
(-4.44089e-14 2.48951e-14 0 0 2.11859e-15 0 0 0 0)
(0 2.10879e-14 0 0 6.1467e-15 0 0 0 0)
(-8.88178e-14 3.08262e-16 0 2.71051e-14 9.41052e-15 0 0 0 0)
(-4.44089e-14 -1.65542e-14 0 -2.71051e-14 -1.07429e-15 0 0 0 0)
(0 4.60541e-15 0 -2.71051e-14 -8.47086e-15 0 0 0 0)
(-4.44089e-14 1.73293e-14 0 0 -2.27564e-15 0 0 0 0)
(0 1.3708e-14 0 0 -2.33708e-15 0 0 0 0)
(0 2.66776e-14 0 2.71051e-14 -8.46101e-15 0 0 0 0)
(-4.44089e-14 4.7552e-14 0 0 2.42293e-15 0 0 0 0)
(-4.44089e-14 1.69859e-14 0 -2.71051e-14 1.02488e-14 0 0 0 0)
(0 6.55663e-15 0 2.71051e-14 5.17333e-15 0 0 0 0)
(-8.88178e-14 -3.7074e-15 0 0 9.318e-15 0 0 0 0)
(0 -3.07154e-14 0 -2.71051e-14 6.70669e-15 0 0 0 0)
(0 -3.05342e-14 0 0 -3.14232e-15 0 0 0 0)
(0 -1.81461e-14 0 0 -1.21701e-14 0 0 0 0)
(-2.98156e-13 1.02338e-11 0 -2.39808e-12 5.17884e-11 0 0 0 0)
(7.04731e-13 -1.2293e-11 0 1.19904e-12 -1.08532e-11 0 0 0 0)
(-2.43945e-13 2.59594e-12 0 3.9968e-13 2.61642e-12 0 0 0 0)
(-5.42101e-14 -6.03144e-13 0 2.66454e-13 -4.6941e-13 0 0 0 0)
(-2.71051e-14 1.22287e-13 0 1.77636e-13 2.03845e-13 0 0 0 0)
(0 -4.29959e-14 0 1.77636e-13 1.97393e-14 0 0 0 0)
(0 -1.72249e-15 0 2.22045e-13 3.18615e-14 0 0 0 0)
(-2.71051e-14 -5.28828e-15 0 1.33227e-13 1.28493e-14 0 0 0 0)
(0 4.86464e-16 0 1.33227e-13 1.07083e-14 0 0 0 0)
(0 3.76507e-16 0 8.88178e-14 1.47952e-14 0 0 0 0)
(0 -6.35162e-16 0 1.33227e-13 1.22144e-14 0 0 0 0)
(-2.71051e-14 -4.9312e-15 0 4.44089e-14 1.22545e-14 0 0 0 0)
(2.71051e-14 9.58019e-15 0 4.44089e-14 -7.5104e-15 0 0 0 0)
(-2.71051e-14 1.81822e-14 0 1.33227e-13 5.05753e-14 0 0 0 0)
(-2.71051e-14 2.53847e-15 0 0 6.52183e-14 0 0 0 0)
(-5.42101e-14 -1.2154e-14 0 -8.88178e-14 6.07292e-14 0 0 0 0)
(-2.71051e-14 -2.38825e-14 0 -1.77636e-13 1.66025e-14 0 0 0 0)
(8.13152e-14 -1.15264e-14 0 -8.88178e-14 -3.4801e-14 0 0 0 0)
(2.71051e-14 9.33787e-15 0 8.88178e-14 -2.95032e-14 0 0 0 0)
(-2.71051e-14 6.73818e-15 0 0 2.5505e-15 0 0 0 0)
)
;
    }
    frontAndBack
    {
        type            empty;
    }
}


// ************************************************************************* //
