/*--------------------------------*- C++ -*----------------------------------*\
| =========                 |                                                 |
| \\      /  F ield         | OpenFOAM: The Open Source CFD Toolbox           |
|  \\    /   O peration     | Version:  2312                                  |
|   \\  /    A nd           | Website:  www.openfoam.com                      |
|    \\/     M anipulation  |                                                 |
\*---------------------------------------------------------------------------*/
FoamFile
{
    version     2.0;
    format      ascii;
    arch        "LSB;label=32;scalar=64";
    class       volVectorField;
    location    "9";
    object      gradPhi;
}
// * * * * * * * * * * * * * * * * * * * * * * * * * * * * * * * * * * * * * //

dimensions      [0 2 -1 0 0 0 0];

internalField   nonuniform List<vector> 
400
(
(-0.02 6.71282e-17 0)
(1.19114e-16 -1.18456e-16 0)
(-3.80503e-17 3.77244e-17 0)
(4.96308e-18 -3.98538e-18 0)
(-3.30872e-18 3.02741e-18 0)
(0 -2.54135e-19 0)
(0 1.78264e-19 0)
(-1.65436e-18 2.76989e-19 0)
(0 3.79859e-19 0)
(0 5.02669e-19 0)
(0 1.3106e-19 0)
(0 2.16435e-19 0)
(0 -5.71497e-19 0)
(-1.65436e-18 1.81602e-18 0)
(-1.65436e-18 1.7808e-18 0)
(-1.65436e-18 1.54205e-18 0)
(0 5.87173e-19 0)
(1.65436e-18 -1.56594e-18 0)
(1.65436e-18 -1.6104e-18 0)
(0 1.76989e-19 0)
(-0.02 -1.13195e-16 0)
(-1.77017e-16 1.78039e-16 0)
(5.79026e-17 -5.78898e-17 0)
(-6.61744e-18 6.44711e-18 0)
(4.96308e-18 -4.65891e-18 0)
(1.65436e-18 -6.52281e-19 0)
(1.65436e-18 -1.75694e-18 0)
(1.65436e-18 -1.17206e-18 0)
(0 3.07794e-19 0)
(0 1.25121e-19 0)
(0 4.47328e-20 0)
(0 -6.15444e-19 0)
(-1.65436e-18 3.49752e-19 0)
(3.30872e-18 -1.79814e-18 0)
(0 -1.90462e-18 0)
(1.65436e-18 -1.10171e-18 0)
(0 -3.29972e-19 0)
(-1.65436e-18 1.46237e-18 0)
(0 3.48104e-19 0)
(1.65436e-18 -1.78665e-18 0)
(-0.02 3.85971e-18 0)
(3.30872e-18 -4.36085e-18 0)
(-1.65436e-18 2.16928e-18 0)
(3.30872e-18 -1.9211e-18 0)
(0 -1.2361e-18 0)
(1.65436e-18 1.75613e-21 0)
(-3.30872e-18 2.30682e-18 0)
(-3.30872e-18 2.93634e-18 0)
(0 -1.84304e-19 0)
(0 -2.46298e-19 0)
(1.65436e-18 -2.43092e-19 0)
(0 2.34253e-19 0)
(0 -2.20914e-20 0)
(0 -1.92366e-18 0)
(3.30872e-18 -1.58275e-18 0)
(1.65436e-18 -1.61639e-18 0)
(0 -4.79279e-19 0)
(0 2.56496e-19 0)
(-3.30872e-18 1.1277e-18 0)
(0 1.13185e-18 0)
(-0.02 8.84306e-17 0)
(1.22423e-16 -1.22897e-16 0)
(-3.47416e-17 3.37569e-17 0)
(6.61744e-18 -5.75719e-18 0)
(-3.30872e-18 2.8913e-18 0)
(-1.65436e-18 1.14189e-18 0)
(1.65436e-18 -6.09789e-19 0)
(1.65436e-18 -2.24082e-18 0)
(0 5.80504e-19 0)
(-3.30872e-18 1.80244e-18 0)
(0 9.46338e-19 0)
(0 6.77204e-19 0)
(-1.65436e-18 1.36927e-18 0)
(-3.30872e-18 1.9625e-18 0)
(0 1.21915e-18 0)
(0 4.25902e-19 0)
(0 -1.0925e-18 0)
(1.65436e-18 -1.68719e-18 0)
(0 -5.04894e-19 0)
(0 1.20444e-19 0)
(-0.02 -9.00329e-17 0)
(-1.1746e-16 1.16424e-16 0)
(3.14329e-17 -3.16599e-17 0)
(-6.61744e-18 6.51601e-18 0)
(1.65436e-18 -1.24141e-18 0)
(1.65436e-18 -2.37351e-19 0)
(0 -2.93818e-19 0)
(1.65436e-18 -4.58144e-19 0)
(-1.65436e-18 4.61066e-19 0)
(0 -1.13954e-19 0)
(0 8.137e-19 0)
(-1.65436e-18 3.33484e-19 0)
(0 -3.55303e-19 0)
(0 1.10952e-18 0)
(-1.65436e-18 9.35159e-19 0)
(0 -3.13621e-20 0)
(0 3.56806e-19 0)
(0 1.0033e-18 0)
(0 -4.52172e-19 0)
(0 -7.47944e-19 0)
(-0.02 5.60484e-17 0)
(7.61006e-17 -7.48555e-17 0)
(-1.98523e-17 2.00759e-17 0)
(3.30872e-18 -2.98244e-18 0)
(-1.65436e-18 1.33387e-18 0)
(-1.65436e-18 3.31e-19 0)
(0 4.7416e-19 0)
(-1.65436e-18 1.30488e-18 0)
(0 -9.83592e-19 0)
(1.65436e-18 -1.65507e-18 0)
(1.65436e-18 -9.63968e-19 0)
(0 5.07132e-19 0)
(0 -9.42933e-19 0)
(0 -9.57037e-19 0)
(-1.65436e-18 7.91664e-19 0)
(0 1.11335e-18 0)
(0 5.65969e-19 0)
(0 -2.82725e-19 0)
(0 2.6449e-19 0)
(0 9.3287e-19 0)
(-0.02 3.91015e-18 0)
(1.8198e-17 -1.73334e-17 0)
(-1.48893e-17 1.51991e-17 0)
(1.65436e-18 -1.55006e-18 0)
(1.65436e-18 -4.4636e-19 0)
(0 -2.53917e-19 0)
(0 9.383e-20 0)
(0 2.82109e-19 0)
(0 2.53241e-19 0)
(0 2.89156e-19 0)
(-1.65436e-18 1.0709e-18 0)
(0 7.86486e-19 0)
(-3.30872e-18 2.12497e-18 0)
(0 1.20466e-19 0)
(1.65436e-18 -1.83628e-18 0)
(1.65436e-18 -7.75581e-19 0)
(0 -2.62305e-19 0)
(1.65436e-18 -6.73662e-19 0)
(-1.65436e-18 3.25023e-19 0)
(0 -7.5352e-19 0)
(-0.02 -6.57615e-17 0)
(-1.15805e-16 1.16116e-16 0)
(4.96308e-17 -5.14601e-17 0)
(-4.96308e-18 6.53142e-18 0)
(0 2.15477e-19 0)
(1.65436e-18 -5.83819e-19 0)
(0 -1.32553e-18 0)
(0 -1.03056e-18 0)
(0 -3.81622e-19 0)
(1.65436e-18 -1.16531e-18 0)
(3.30872e-18 -2.15625e-18 0)
(1.65436e-18 -2.05959e-18 0)
(0 -8.71993e-19 0)
(0 2.46919e-19 0)
(-1.65436e-18 -9.55406e-20 0)
(1.65436e-18 -2.28836e-19 0)
(-1.65436e-18 7.4779e-19 0)
(0 1.34224e-18 0)
(0 3.48297e-19 0)
(-1.65436e-18 1.68525e-18 0)
(-0.02 6.90226e-17 0)
(1.09188e-16 -1.08021e-16 0)
(-4.79765e-17 4.74892e-17 0)
(3.30872e-18 -4.23409e-18 0)
(0 7.55432e-19 0)
(0 4.90254e-19 0)
(-3.30872e-18 1.46459e-18 0)
(0 -7.12106e-19 0)
(3.30872e-18 -3.10879e-18 0)
(1.65436e-18 -1.85841e-18 0)
(1.65436e-18 -1.45833e-18 0)
(1.65436e-18 -8.42101e-19 0)
(1.65436e-18 -1.02578e-18 0)
(0 8.31882e-19 0)
(-3.30872e-18 2.49736e-18 0)
(0 2.31726e-19 0)
(0 -1.25684e-18 0)
(0 2.31824e-20 0)
(0 4.17575e-19 0)
(0 -4.59792e-19 0)
(-0.02 -1.8169e-17 0)
(-2.15067e-17 2.07246e-17 0)
(9.92617e-18 -8.81492e-18 0)
(0 7.64368e-19 0)
(-1.65436e-18 8.10474e-19 0)
(-1.65436e-18 1.16694e-18 0)
(0 6.3336e-20 0)
(0 1.33469e-18 0)
(-3.30872e-18 2.67277e-18 0)
(-1.65436e-18 1.32264e-18 0)
(0 9.70286e-19 0)
(-1.65436e-18 -7.20161e-20 0)
(1.65436e-18 -1.24084e-18 0)
(3.30872e-18 -2.34761e-18 0)
(1.65436e-18 -2.23255e-18 0)
(-1.65436e-18 1.01205e-18 0)
(0 5.72335e-19 0)
(0 -7.01888e-19 0)
(0 -1.42042e-19 0)
(0 -8.70805e-19 0)
(-0.02 -3.402e-17 0)
(-6.28657e-17 6.24748e-17 0)
(2.81241e-17 -2.70509e-17 0)
(-3.30872e-18 1.97603e-18 0)
(3.30872e-18 -3.03612e-18 0)
(3.30872e-18 -1.77132e-18 0)
(0 -5.69915e-19 0)
(1.65436e-18 -5.08092e-19 0)
(0 7.84906e-20 0)
(0 2.15037e-19 0)
(0 -2.19088e-19 0)
(0 -6.26473e-19 0)
(-1.65436e-18 1.24655e-18 0)
(0 8.90091e-19 0)
(0 1.21997e-18 0)
(0 -3.60683e-19 0)
(0 5.75719e-19 0)
(-3.30872e-18 1.86719e-18 0)
(0 5.02651e-20 0)
(0 8.36285e-20 0)
(-0.02 5.92779e-17 0)
(8.76811e-17 -8.83743e-17 0)
(-4.1359e-17 4.28568e-17 0)
(1.65436e-18 -2.59476e-18 0)
(0 1.97625e-18 0)
(-1.65436e-18 1.6071e-18 0)
(-1.65436e-18 8.07334e-20 0)
(1.65436e-18 -8.88063e-19 0)
(1.65436e-18 -2.21398e-18 0)
(0 -1.40985e-18 0)
(3.30872e-18 -1.86459e-18 0)
(-1.65436e-18 6.43746e-19 0)
(1.65436e-18 -1.72636e-18 0)
(3.30872e-18 -2.20055e-18 0)
(1.65436e-18 -2.52648e-18 0)
(1.65436e-18 -6.86636e-19 0)
(0 1.79992e-19 0)
(1.65436e-18 -1.19301e-18 0)
(-1.65436e-18 2.19091e-19 0)
(0 6.63257e-19 0)
(-0.02 -2.15514e-18 0)
(-3.80503e-17 3.91155e-17 0)
(2.97785e-17 -3.13756e-17 0)
(0 6.39958e-19 0)
(0 -4.46855e-19 0)
(1.65436e-18 -2.07518e-18 0)
(1.65436e-18 -4.78464e-19 0)
(-1.65436e-18 -8.07176e-20 0)
(0 6.93578e-19 0)
(-1.65436e-18 1.01412e-18 0)
(-1.65436e-18 2.79986e-18 0)
(1.65436e-18 -1.11009e-18 0)
(1.65436e-18 -1.73127e-18 0)
(1.65436e-18 -1.19864e-18 0)
(0 -5.35759e-19 0)
(0 2.25808e-19 0)
(0 -5.45874e-19 0)
(0 -8.36024e-19 0)
(1.65436e-18 -1.97273e-18 0)
(1.65436e-18 -1.67457e-18 0)
(-0.02 -2.75642e-17 0)
(-1.15805e-17 1.23456e-17 0)
(-1.15805e-17 1.07348e-17 0)
(-1.65436e-18 1.39696e-18 0)
(0 -7.99049e-20 0)
(1.65436e-18 -9.72124e-19 0)
(3.30872e-18 -2.0896e-18 0)
(0 -1.03682e-18 0)
(1.65436e-18 -6.34115e-19 0)
(0 -1.18345e-18 0)
(0 -1.6129e-18 0)
(0 6.53671e-19 0)
(-1.65436e-18 2.71656e-18 0)
(-3.30872e-18 2.64703e-18 0)
(-1.65436e-18 1.77036e-18 0)
(0 9.76666e-19 0)
(-1.65436e-18 1.206e-18 0)
(0 4.11829e-19 0)
(0 -3.08464e-19 0)
(0 2.09382e-19 0)
(-0.02 4.12916e-17 0)
(4.79765e-17 -4.74476e-17 0)
(-8.27181e-18 9.28488e-18 0)
(3.30872e-18 -3.9798e-18 0)
(0 -5.88471e-19 0)
(-1.65436e-18 1.28835e-18 0)
(-1.65436e-18 8.49877e-19 0)
(1.65436e-18 -6.75702e-19 0)
(-1.65436e-18 3.58963e-19 0)
(0 3.14589e-18 0)
(-3.30872e-18 2.17412e-18 0)
(0 5.99272e-19 0)
(0 -6.71776e-19 0)
(1.65436e-18 4.02978e-20 0)
(0 -1.28171e-18 0)
(1.65436e-18 -2.9181e-18 0)
(3.30872e-18 -2.51344e-18 0)
(-1.65436e-18 2.39015e-19 0)
(0 1.24094e-18 0)
(-1.65436e-18 1.97846e-18 0)
(-0.02 -8.31524e-17 0)
(-1.10842e-16 1.10151e-16 0)
(3.30872e-17 -3.29217e-17 0)
(-4.96308e-18 5.61988e-18 0)
(1.65436e-18 -1.31715e-18 0)
(0 -1.24314e-18 0)
(0 3.63105e-19 0)
(-4.96308e-18 4.24021e-18 0)
(-3.30872e-18 3.30737e-18 0)
(0 -2.35198e-19 0)
(1.65436e-18 -7.91547e-19 0)
(0 -3.99307e-20 0)
(0 9.72914e-19 0)
(0 -4.78193e-19 0)
(1.65436e-18 -8.8907e-19 0)
(0 -4.66253e-19 0)
(1.65436e-18 3.19782e-19 0)
(0 -4.39669e-19 0)
(0 4.37125e-19 0)
(1.65436e-18 -1.71169e-18 0)
(-0.02 8.93513e-17 0)
(1.27386e-16 -1.26921e-16 0)
(-4.1359e-17 3.96148e-17 0)
(4.96308e-18 -4.77916e-18 0)
(-1.65436e-18 2.89757e-18 0)
(-1.65436e-18 2.45557e-18 0)
(-1.65436e-18 1.45577e-18 0)
(3.30872e-18 -1.9936e-18 0)
(1.65436e-18 -1.83598e-18 0)
(0 -9.76613e-19 0)
(0 -3.47268e-19 0)
(0 4.59586e-19 0)
(0 1.00971e-19 0)
(0 2.57913e-19 0)
(0 1.30419e-18 0)
(-1.65436e-18 3.80383e-19 0)
(1.65436e-18 -5.01739e-19 0)
(0 -4.59698e-19 0)
(0 7.78918e-19 0)
(-1.65436e-18 2.10614e-18 0)
(-0.02 8.80448e-18 0)
(3.30872e-18 -3.62154e-18 0)
(3.30872e-18 -2.06322e-18 0)
(1.65436e-18 -1.81411e-18 0)
(0 -1.54014e-18 0)
(3.30872e-18 -1.71796e-18 0)
(1.65436e-18 -2.0738e-18 0)
(0 5.00471e-20 0)
(0 1.32265e-19 0)
(0 -2.86597e-19 0)
(1.65436e-18 -1.64181e-19 0)
(0 -1.29629e-18 0)
(1.65436e-18 -3.00048e-18 0)
(1.65436e-18 -5.06304e-19 0)
(-1.65436e-18 1.95285e-18 0)
(-3.30872e-18 3.91071e-18 0)
(-3.30872e-18 2.25588e-18 0)
(-1.65436e-18 1.21857e-18 0)
(0 -1.04358e-19 0)
(0 -5.71348e-19 0)
(-0.02 -1.15881e-16 0)
(-1.52201e-16 1.54382e-16 0)
(4.46678e-17 -4.6695e-17 0)
(-6.61744e-18 7.90392e-18 0)
(0 -9.32902e-19 0)
(0 9.44166e-19 0)
(-3.30872e-18 2.43607e-18 0)
(1.65436e-18 -7.84929e-19 0)
(1.65436e-18 -4.92577e-19 0)
(0 -8.69421e-20 0)
(-1.65436e-18 1.52859e-19 0)
(0 4.93647e-19 0)
(-3.30872e-18 2.96771e-18 0)
(-1.65436e-18 7.4619e-19 0)
(1.65436e-18 -1.16581e-18 0)
(3.30872e-18 -1.46076e-18 0)
(1.65436e-18 -1.45453e-18 0)
(0 -3.58922e-19 0)
(-1.65436e-18 2.9759e-19 0)
(0 4.83503e-19 0)
(-0.02 6.28057e-17 0)
(9.76073e-17 -9.74834e-17 0)
(-3.14329e-17 3.1025e-17 0)
(4.96308e-18 -4.19757e-18 0)
(-1.65436e-18 1.61653e-18 0)
(0 3.34192e-19 0)
(1.65436e-18 -5.68707e-19 0)
(0 1.15634e-18 0)
(-1.65436e-18 6.09072e-19 0)
(-1.65436e-18 8.00628e-19 0)
(-1.65436e-18 7.17356e-19 0)
(0 1.05703e-18 0)
(-1.65436e-18 3.11637e-19 0)
(0 7.41309e-19 0)
(-1.65436e-18 5.79071e-19 0)
(1.65436e-18 -1.72327e-19 0)
(-1.65436e-18 1.06903e-18 0)
(0 3.74527e-19 0)
(0 -7.60059e-19 0)
(1.65436e-18 -9.95459e-19 0)
)
;

boundaryField
{
    movingWall
    {
        type            extrapolatedCalculated;
        value           nonuniform List<vector> 
20
(
(-0.02 6.28057e-17 0)
(9.76073e-17 -9.74834e-17 0)
(-3.14329e-17 3.1025e-17 0)
(4.96308e-18 -4.19757e-18 0)
(-1.65436e-18 1.61653e-18 0)
(0 3.34192e-19 0)
(1.65436e-18 -5.68707e-19 0)
(0 1.15634e-18 0)
(-1.65436e-18 6.09072e-19 0)
(-1.65436e-18 8.00628e-19 0)
(-1.65436e-18 7.17356e-19 0)
(0 1.05703e-18 0)
(-1.65436e-18 3.11637e-19 0)
(0 7.41309e-19 0)
(-1.65436e-18 5.79071e-19 0)
(1.65436e-18 -1.72327e-19 0)
(-1.65436e-18 1.06903e-18 0)
(0 3.74527e-19 0)
(0 -7.60059e-19 0)
(1.65436e-18 -9.95459e-19 0)
)
;
    }
    fixedWalls
    {
        type            extrapolatedCalculated;
        value           nonuniform List<vector> 
60
(
(-0.02 6.71282e-17 0)
(-0.02 -1.13195e-16 0)
(-0.02 3.85971e-18 0)
(-0.02 8.84306e-17 0)
(-0.02 -9.00329e-17 0)
(-0.02 5.60484e-17 0)
(-0.02 3.91015e-18 0)
(-0.02 -6.57615e-17 0)
(-0.02 6.90226e-17 0)
(-0.02 -1.8169e-17 0)
(-0.02 -3.402e-17 0)
(-0.02 5.92779e-17 0)
(-0.02 -2.15514e-18 0)
(-0.02 -2.75642e-17 0)
(-0.02 4.12916e-17 0)
(-0.02 -8.31524e-17 0)
(-0.02 8.93513e-17 0)
(-0.02 8.80448e-18 0)
(-0.02 -1.15881e-16 0)
(-0.02 6.28057e-17 0)
(0 1.76989e-19 0)
(1.65436e-18 -1.78665e-18 0)
(0 1.13185e-18 0)
(0 1.20444e-19 0)
(0 -7.47944e-19 0)
(0 9.3287e-19 0)
(0 -7.5352e-19 0)
(-1.65436e-18 1.68525e-18 0)
(0 -4.59792e-19 0)
(0 -8.70805e-19 0)
(0 8.36285e-20 0)
(0 6.63257e-19 0)
(1.65436e-18 -1.67457e-18 0)
(0 2.09382e-19 0)
(-1.65436e-18 1.97846e-18 0)
(1.65436e-18 -1.71169e-18 0)
(-1.65436e-18 2.10614e-18 0)
(0 -5.71348e-19 0)
(0 4.83503e-19 0)
(1.65436e-18 -9.95459e-19 0)
(-0.02 6.71282e-17 0)
(1.19114e-16 -1.18456e-16 0)
(-3.80503e-17 3.77244e-17 0)
(4.96308e-18 -3.98538e-18 0)
(-3.30872e-18 3.02741e-18 0)
(0 -2.54135e-19 0)
(0 1.78264e-19 0)
(-1.65436e-18 2.76989e-19 0)
(0 3.79859e-19 0)
(0 5.02669e-19 0)
(0 1.3106e-19 0)
(0 2.16435e-19 0)
(0 -5.71497e-19 0)
(-1.65436e-18 1.81602e-18 0)
(-1.65436e-18 1.7808e-18 0)
(-1.65436e-18 1.54205e-18 0)
(0 5.87173e-19 0)
(1.65436e-18 -1.56594e-18 0)
(1.65436e-18 -1.6104e-18 0)
(0 1.76989e-19 0)
)
;
    }
    frontAndBack
    {
        type            empty;
    }
}


// ************************************************************************* //
