/*--------------------------------*- C++ -*----------------------------------*\
| =========                 |                                                 |
| \\      /  F ield         | OpenFOAM: The Open Source CFD Toolbox           |
|  \\    /   O peration     | Version:  2312                                  |
|   \\  /    A nd           | Website:  www.openfoam.com                      |
|    \\/     M anipulation  |                                                 |
\*---------------------------------------------------------------------------*/
FoamFile
{
    version     2.0;
    format      ascii;
    arch        "LSB;label=32;scalar=64";
    class       volScalarField;
    location    "9";
    object      initialResidual:k;
}
// * * * * * * * * * * * * * * * * * * * * * * * * * * * * * * * * * * * * * //

dimensions      [0 0 0 0 0 0 0];

internalField   nonuniform List<scalar> 
400
(
-2.10309e-13
-2.10205e-13
-2.10348e-13
-2.10176e-13
-2.10356e-13
-2.10184e-13
-2.10332e-13
-2.10222e-13
-2.10292e-13
-2.10252e-13
-2.10287e-13
-2.10246e-13
-2.10289e-13
-2.10251e-13
-2.10279e-13
-2.10262e-13
-2.1027e-13
-2.10267e-13
-2.10268e-13
-2.10268e-13
-2.17127e-13
-2.16458e-13
-2.17516e-13
-2.1709e-13
-2.17099e-13
-2.17116e-13
-2.17033e-13
-2.17748e-13
-2.1649e-13
-2.17393e-13
-2.16687e-13
-2.1736e-13
-2.16738e-13
-2.17319e-13
-2.16798e-13
-2.17212e-13
-2.16899e-13
-2.17032e-13
-2.1703e-13
-2.1704e-13
-2.27577e-13
-2.27823e-13
-2.27333e-13
-2.27407e-13
-2.2765e-13
-2.2742e-13
-2.27596e-13
-2.27525e-13
-2.27511e-13
-2.27744e-13
-2.27191e-13
-2.28298e-13
-2.26795e-13
-2.28165e-13
-2.26894e-13
-2.27836e-13
-2.27218e-13
-2.27524e-13
-2.27465e-13
-2.27499e-13
-2.37974e-13
-2.38341e-13
-2.37584e-13
-2.39327e-13
-2.36846e-13
-2.39033e-13
-2.37065e-13
-2.3865e-13
-2.37268e-13
-2.38612e-13
-2.37406e-13
-2.37756e-13
-2.38083e-13
-2.37909e-13
-2.37998e-13
-2.37952e-13
-2.38039e-13
-2.38012e-13
-2.37965e-13
-2.37964e-13
-2.46333e-13
-2.45644e-13
-2.46856e-13
-2.46233e-13
-2.46362e-13
-2.46214e-13
-2.46286e-13
-2.46242e-13
-2.46311e-13
-2.46229e-13
-2.46298e-13
-2.46231e-13
-2.46278e-13
-2.46231e-13
-2.46272e-13
-2.46235e-13
-2.46274e-13
-2.46261e-13
-2.46258e-13
-2.4624e-13
-2.51934e-13
-2.51874e-13
-2.52088e-13
-2.51675e-13
-2.52043e-13
-2.51897e-13
-2.51922e-13
-2.51927e-13
-2.51934e-13
-2.51822e-13
-2.51893e-13
-2.51861e-13
-2.51917e-13
-2.51854e-13
-2.51902e-13
-2.51858e-13
-2.51899e-13
-2.51883e-13
-2.51884e-13
-2.51866e-13
-2.55465e-13
-2.5517e-13
-2.55888e-13
-2.54995e-13
-2.55747e-13
-2.55119e-13
-2.55852e-13
-2.54977e-13
-2.5553e-13
-2.55305e-13
-2.55326e-13
-2.55442e-13
-2.55334e-13
-2.55355e-13
-2.55378e-13
-2.55333e-13
-2.55386e-13
-2.55355e-13
-2.55368e-13
-2.55352e-13
-2.57514e-13
-2.57604e-13
-2.57327e-13
-2.5768e-13
-2.57323e-13
-2.57344e-13
-2.57519e-13
-2.57551e-13
-2.57382e-13
-2.57873e-13
-2.57087e-13
-2.58136e-13
-2.56835e-13
-2.58091e-13
-2.56789e-13
-2.57881e-13
-2.57084e-13
-2.57473e-13
-2.57395e-13
-2.5744e-13
-2.58815e-13
-2.58477e-13
-2.59216e-13
-2.5849e-13
-2.58946e-13
-2.58744e-13
-2.58788e-13
-2.58881e-13
-2.58746e-13
-2.58734e-13
-2.58773e-13
-2.58742e-13
-2.58798e-13
-2.58722e-13
-2.58789e-13
-2.58718e-13
-2.58778e-13
-2.5875e-13
-2.58757e-13
-2.58739e-13
-2.5978e-13
-2.58926e-13
-2.60196e-13
-2.59651e-13
-2.59756e-13
-2.59608e-13
-2.59732e-13
-2.59633e-13
-2.59729e-13
-2.59654e-13
-2.59673e-13
-2.59695e-13
-2.59708e-13
-2.59723e-13
-2.59662e-13
-2.59647e-13
-2.5965e-13
-2.59634e-13
-2.59656e-13
-2.59648e-13
-2.60507e-13
-2.59861e-13
-2.60943e-13
-2.60457e-13
-2.60385e-13
-2.6112e-13
-2.59877e-13
-2.60805e-13
-2.59934e-13
-2.61191e-13
-2.59643e-13
-2.61284e-13
-2.59585e-13
-2.61076e-13
-2.59784e-13
-2.60752e-13
-2.6009e-13
-2.60394e-13
-2.60363e-13
-2.60394e-13
-2.61205e-13
-2.60427e-13
-2.61752e-13
-2.61087e-13
-2.6122e-13
-2.61077e-13
-2.61154e-13
-2.61104e-13
-2.61179e-13
-2.61086e-13
-2.61163e-13
-2.6109e-13
-2.61143e-13
-2.61091e-13
-2.61137e-13
-2.61096e-13
-2.61138e-13
-2.61124e-13
-2.61121e-13
-2.61101e-13
-2.6193e-13
-2.61726e-13
-2.62223e-13
-2.61593e-13
-2.6204e-13
-2.61836e-13
-2.61881e-13
-2.61984e-13
-2.61899e-13
-2.61786e-13
-2.6185e-13
-2.61837e-13
-2.61895e-13
-2.61824e-13
-2.61878e-13
-2.61827e-13
-2.61874e-13
-2.61853e-13
-2.61857e-13
-2.61837e-13
-2.62753e-13
-2.619e-13
-2.63211e-13
-2.62708e-13
-2.6278e-13
-2.62632e-13
-2.62637e-13
-2.63183e-13
-2.62297e-13
-2.63011e-13
-2.62352e-13
-2.62893e-13
-2.62424e-13
-2.6289e-13
-2.62444e-13
-2.62816e-13
-2.625e-13
-2.62631e-13
-2.62634e-13
-2.62643e-13
-2.63628e-13
-2.62786e-13
-2.64154e-13
-2.63586e-13
-2.63639e-13
-2.63575e-13
-2.63605e-13
-2.63549e-13
-2.63531e-13
-2.64338e-13
-2.62949e-13
-2.63977e-13
-2.63116e-13
-2.63853e-13
-2.6325e-13
-2.63737e-13
-2.63366e-13
-2.63523e-13
-2.63526e-13
-2.63537e-13
-2.64618e-13
-2.63788e-13
-2.65081e-13
-2.64636e-13
-2.64645e-13
-2.6468e-13
-2.64398e-13
-2.65111e-13
-2.64121e-13
-2.64785e-13
-2.6424e-13
-2.64934e-13
-2.6415e-13
-2.64895e-13
-2.64191e-13
-2.64745e-13
-2.64323e-13
-2.64502e-13
-2.64503e-13
-2.64515e-13
-2.65624e-13
-2.6478e-13
-2.66161e-13
-2.65619e-13
-2.65625e-13
-2.65678e-13
-2.65413e-13
-2.66564e-13
-2.64707e-13
-2.66188e-13
-2.64893e-13
-2.66265e-13
-2.64871e-13
-2.6613e-13
-2.65001e-13
-2.65859e-13
-2.65254e-13
-2.65522e-13
-2.65513e-13
-2.65534e-13
-2.66587e-13
-2.66246e-13
-2.66953e-13
-2.66422e-13
-2.66625e-13
-2.66445e-13
-2.66534e-13
-2.66491e-13
-2.66582e-13
-2.66484e-13
-2.66568e-13
-2.66489e-13
-2.66551e-13
-2.66493e-13
-2.66542e-13
-2.66493e-13
-2.66537e-13
-2.66521e-13
-2.66519e-13
-2.66499e-13
-2.674e-13
-2.66526e-13
-2.67833e-13
-2.67369e-13
-2.67412e-13
-2.6726e-13
-2.67238e-13
-2.68123e-13
-2.667e-13
-2.67622e-13
-2.66866e-13
-2.67627e-13
-2.66981e-13
-2.67633e-13
-2.66982e-13
-2.67498e-13
-2.67086e-13
-2.67259e-13
-2.67258e-13
-2.6727e-13
-2.67692e-13
-2.67722e-13
-2.67682e-13
-2.67756e-13
-2.67663e-13
-2.67741e-13
-2.67667e-13
-2.67708e-13
-2.677e-13
-2.67712e-13
-2.67697e-13
-2.67702e-13
-2.67705e-13
-2.67702e-13
-2.67707e-13
-2.67702e-13
-2.67705e-13
-2.67703e-13
-2.67703e-13
-2.67703e-13
)
;

boundaryField
{
    movingWall
    {
        type            zeroGradient;
    }
    fixedWalls
    {
        type            zeroGradient;
    }
    frontAndBack
    {
        type            empty;
    }
}


// ************************************************************************* //
