/*--------------------------------*- C++ -*----------------------------------*\
| =========                 |                                                 |
| \\      /  F ield         | OpenFOAM: The Open Source CFD Toolbox           |
|  \\    /   O peration     | Version:  2312                                  |
|   \\  /    A nd           | Website:  www.openfoam.com                      |
|    \\/     M anipulation  |                                                 |
\*---------------------------------------------------------------------------*/
FoamFile
{
    version     2.0;
    format      ascii;
    arch        "LSB;label=32;scalar=64";
    class       volScalarField;
    location    "9";
    object      initialResidual:epsilon;
}
// * * * * * * * * * * * * * * * * * * * * * * * * * * * * * * * * * * * * * //

dimensions      [0 0 0 0 0 0 0];

internalField   nonuniform List<scalar> 
400
(
0
0
0
0
0
0
0
0
0
0
0
0
0
0
0
0
0
0
0
0
0
-9.18135e-14
-9.11695e-14
-9.14148e-14
-9.15219e-14
-9.16143e-14
-9.1635e-14
-9.17509e-14
-9.17852e-14
-9.18675e-14
-9.19462e-14
-9.19889e-14
-9.21021e-14
-9.21259e-14
-9.22496e-14
-9.22746e-14
-9.23913e-14
-9.24282e-14
-1.84864e-13
0
0
-9.72018e-14
-9.64355e-14
-9.67296e-14
-9.68501e-14
-9.69582e-14
-9.69697e-14
-9.71095e-14
-9.71357e-14
-9.72332e-14
-9.73156e-14
-9.73613e-14
-9.74887e-14
-9.75085e-14
-9.76499e-14
-9.767e-14
-9.78024e-14
-9.78368e-14
-1.95883e-13
0
0
-1.02931e-13
-1.02121e-13
-1.02434e-13
-1.02563e-13
-1.02678e-13
-1.02691e-13
-1.02841e-13
-1.02868e-13
-1.02973e-13
-1.03062e-13
-1.0311e-13
-1.03247e-13
-1.03268e-13
-1.0342e-13
-1.03441e-13
-1.03583e-13
-1.0362e-13
-2.0746e-13
0
0
-1.07624e-13
-1.06772e-13
-1.07102e-13
-1.07238e-13
-1.0736e-13
-1.07373e-13
-1.07532e-13
-1.07561e-13
-1.07672e-13
-1.07765e-13
-1.07817e-13
-1.07961e-13
-1.07984e-13
-1.08144e-13
-1.08167e-13
-1.08317e-13
-1.08356e-13
-2.16941e-13
0
0
-1.10923e-13
-1.10048e-13
-1.10388e-13
-1.10528e-13
-1.10655e-13
-1.10669e-13
-1.10834e-13
-1.10864e-13
-1.1098e-13
-1.11076e-13
-1.1113e-13
-1.1128e-13
-1.11304e-13
-1.1147e-13
-1.11494e-13
-1.1165e-13
-1.1169e-13
-2.23617e-13
0
0
-1.13038e-13
-1.12143e-13
-1.12491e-13
-1.12635e-13
-1.12765e-13
-1.12779e-13
-1.12948e-13
-1.12979e-13
-1.13098e-13
-1.13197e-13
-1.13252e-13
-1.13406e-13
-1.1343e-13
-1.136e-13
-1.13625e-13
-1.13785e-13
-1.13826e-13
-2.27895e-13
0
0
-1.14343e-13
-1.13432e-13
-1.13786e-13
-1.13933e-13
-1.14064e-13
-1.1408e-13
-1.1425e-13
-1.14283e-13
-1.14402e-13
-1.14503e-13
-1.14559e-13
-1.14715e-13
-1.1474e-13
-1.14913e-13
-1.14938e-13
-1.151e-13
-1.15142e-13
-2.3053e-13
0
0
-1.15161e-13
-1.14252e-13
-1.14607e-13
-1.14753e-13
-1.14887e-13
-1.14902e-13
-1.15074e-13
-1.15107e-13
-1.15228e-13
-1.15329e-13
-1.15386e-13
-1.15543e-13
-1.15569e-13
-1.15743e-13
-1.15768e-13
-1.15931e-13
-1.15975e-13
-2.32198e-13
0
0
-1.15742e-13
-1.14819e-13
-1.15178e-13
-1.15327e-13
-1.1546e-13
-1.15476e-13
-1.15649e-13
-1.15682e-13
-1.15804e-13
-1.15907e-13
-1.15963e-13
-1.16122e-13
-1.16147e-13
-1.16323e-13
-1.16348e-13
-1.16513e-13
-1.16556e-13
-2.33362e-13
0
0
-1.16205e-13
-1.15282e-13
-1.15642e-13
-1.15791e-13
-1.15924e-13
-1.15941e-13
-1.16114e-13
-1.16149e-13
-1.16269e-13
-1.16374e-13
-1.1643e-13
-1.1659e-13
-1.16615e-13
-1.16791e-13
-1.16817e-13
-1.16982e-13
-1.17026e-13
-2.34303e-13
0
0
-1.16639e-13
-1.15711e-13
-1.16073e-13
-1.16222e-13
-1.16357e-13
-1.16373e-13
-1.16548e-13
-1.16582e-13
-1.16704e-13
-1.16808e-13
-1.16865e-13
-1.17025e-13
-1.17051e-13
-1.17228e-13
-1.17254e-13
-1.1742e-13
-1.17464e-13
-2.3518e-13
0
0
-1.17082e-13
-1.16154e-13
-1.16516e-13
-1.16666e-13
-1.16802e-13
-1.16818e-13
-1.16993e-13
-1.17027e-13
-1.1715e-13
-1.17254e-13
-1.17312e-13
-1.17472e-13
-1.17499e-13
-1.17676e-13
-1.17703e-13
-1.17869e-13
-1.17913e-13
-2.3608e-13
0
0
-1.17566e-13
-1.1663e-13
-1.16995e-13
-1.17147e-13
-1.17283e-13
-1.17299e-13
-1.17475e-13
-1.1751e-13
-1.17632e-13
-1.17738e-13
-1.17796e-13
-1.17957e-13
-1.17983e-13
-1.18162e-13
-1.18189e-13
-1.18356e-13
-1.184e-13
-2.37055e-13
0
0
-1.181e-13
-1.17155e-13
-1.17523e-13
-1.17676e-13
-1.17812e-13
-1.1783e-13
-1.18006e-13
-1.18041e-13
-1.18165e-13
-1.18271e-13
-1.18329e-13
-1.18491e-13
-1.18517e-13
-1.18697e-13
-1.18724e-13
-1.18892e-13
-1.18937e-13
-2.38129e-13
0
0
-1.18677e-13
-1.17727e-13
-1.18097e-13
-1.18251e-13
-1.18388e-13
-1.18406e-13
-1.18582e-13
-1.18619e-13
-1.18742e-13
-1.1885e-13
-1.18908e-13
-1.19071e-13
-1.19098e-13
-1.19278e-13
-1.19305e-13
-1.19474e-13
-1.1952e-13
-2.39295e-13
0
0
-1.19272e-13
-1.18319e-13
-1.18691e-13
-1.18846e-13
-1.18983e-13
-1.19001e-13
-1.19179e-13
-1.19216e-13
-1.1934e-13
-1.19448e-13
-1.19506e-13
-1.19671e-13
-1.19697e-13
-1.19879e-13
-1.19906e-13
-1.20076e-13
-1.20122e-13
-2.40501e-13
0
0
-1.19826e-13
-1.18883e-13
-1.19251e-13
-1.19405e-13
-1.19543e-13
-1.19563e-13
-1.19738e-13
-1.19778e-13
-1.19901e-13
-1.2001e-13
-1.2007e-13
-1.20233e-13
-1.20262e-13
-1.20443e-13
-1.20472e-13
-1.20642e-13
-1.20689e-13
-2.41635e-13
0
0
-1.20667e-13
-1.19546e-13
-1.19974e-13
-1.2013e-13
-1.2028e-13
-1.20277e-13
-1.20471e-13
-1.20491e-13
-1.20625e-13
-1.20725e-13
-1.20786e-13
-1.2095e-13
-1.20975e-13
-1.2116e-13
-1.21183e-13
-1.21359e-13
-1.21401e-13
-2.428e-13
0
0
0
0
0
0
0
0
0
0
0
0
0
0
0
0
0
0
0
0
0
)
;

boundaryField
{
    movingWall
    {
        type            zeroGradient;
    }
    fixedWalls
    {
        type            zeroGradient;
    }
    frontAndBack
    {
        type            empty;
    }
}


// ************************************************************************* //
