/*--------------------------------*- C++ -*----------------------------------*\
| =========                 |                                                 |
| \\      /  F ield         | OpenFOAM: The Open Source CFD Toolbox           |
|  \\    /   O peration     | Version:  2312                                  |
|   \\  /    A nd           | Website:  www.openfoam.com                      |
|    \\/     M anipulation  |                                                 |
\*---------------------------------------------------------------------------*/
FoamFile
{
    version     2.0;
    format      ascii;
    arch        "LSB;label=32;scalar=64";
    class       volScalarField;
    location    "9";
    object      initialResidual:Uy;
}
// * * * * * * * * * * * * * * * * * * * * * * * * * * * * * * * * * * * * * //

dimensions      [0 0 0 0 0 0 0];

internalField   nonuniform List<scalar> 
400
(
2.95996e-20
-5.29474e-21
5.54035e-21
4.22669e-21
-4.14505e-22
-4.21424e-21
3.25913e-22
2.2729e-21
-2.40588e-22
-1.29614e-21
-7.13161e-22
2.50847e-22
-1.34733e-21
1.56871e-21
3.80781e-21
2.62525e-21
-2.92529e-21
-6.08941e-21
-4.81085e-22
5.39942e-22
1.16008e-20
2.59237e-21
7.36406e-21
7.19799e-21
1.58648e-21
-4.40734e-21
-1.92146e-21
7.6723e-21
1.17212e-20
2.68908e-21
-2.37942e-21
-1.65451e-21
-9.04897e-22
2.19699e-21
4.51575e-21
7.36554e-22
-3.28057e-21
-6.22083e-21
1.98648e-21
5.41739e-22
-4.50086e-20
1.76681e-20
5.45344e-21
5.6791e-21
8.49092e-21
9.62626e-21
5.91934e-21
6.15511e-21
1.38876e-20
7.35631e-21
-1.0717e-21
-3.86844e-21
-7.65294e-22
1.87968e-21
-7.25275e-22
3.1814e-22
2.11334e-21
5.27633e-21
7.1608e-21
1.32588e-21
2.51902e-20
-1.19444e-20
8.89643e-21
5.12232e-21
1.00822e-20
1.39467e-20
1.23563e-20
5.84724e-21
6.33244e-21
6.98587e-21
2.41591e-21
1.66788e-21
3.57171e-21
-3.81276e-21
-7.46617e-21
2.45975e-21
5.29964e-21
9.72334e-21
7.93402e-21
1.42331e-21
-9.91962e-21
8.23802e-21
-1.61837e-22
5.69386e-21
8.80913e-21
5.63602e-21
2.88698e-21
4.77232e-21
1.32322e-20
1.183e-20
5.16097e-21
2.38698e-21
6.00765e-21
-7.10483e-22
-4.02385e-21
-3.55708e-21
1.01909e-21
7.90384e-21
5.74125e-21
-8.31496e-23
-2.50084e-20
1.57032e-20
-2.30983e-22
3.74808e-21
7.17957e-21
5.15994e-21
-1.10976e-21
3.13474e-21
9.14022e-21
5.3552e-21
8.05438e-21
8.02444e-21
1.27275e-21
3.98099e-21
3.90807e-21
4.42834e-22
1.91486e-21
-3.26107e-22
1.24357e-21
1.97344e-21
5.44689e-20
-1.5363e-20
8.86948e-21
-2.11814e-21
5.70383e-21
9.44137e-21
2.79921e-21
7.10225e-21
3.75469e-21
2.8712e-21
9.1853e-21
1.24561e-20
5.73234e-21
4.41444e-21
5.66693e-21
3.2916e-21
6.16404e-22
-3.34017e-21
1.70809e-21
2.67106e-21
-2.85739e-20
1.3932e-20
2.14606e-22
4.05402e-21
2.28105e-21
6.76039e-21
1.0239e-20
1.1757e-20
8.17789e-21
8.59433e-21
8.83685e-21
1.08433e-20
1.23625e-20
8.75827e-21
4.06741e-21
4.72367e-21
1.492e-21
-1.08716e-21
1.6436e-21
1.6635e-21
-1.81065e-20
5.58273e-21
1.60477e-21
7.49136e-21
-2.83823e-21
8.53182e-22
1.06831e-20
1.19957e-20
9.65448e-21
7.83774e-21
8.54788e-21
1.23539e-20
1.3412e-20
1.38443e-20
6.0879e-21
5.19534e-21
7.96182e-21
-1.82383e-21
6.12215e-22
1.62104e-21
4.22398e-20
-1.80362e-20
6.00441e-21
5.16098e-21
8.39634e-21
1.132e-20
6.07571e-21
-1.85836e-21
-8.93721e-22
6.11421e-21
1.00526e-20
6.84627e-21
6.08383e-21
1.37954e-20
1.75234e-20
4.91203e-21
3.48904e-22
2.96194e-21
5.89998e-21
1.38756e-21
-2.97125e-20
8.27263e-21
-3.40256e-21
9.73217e-21
1.25539e-20
9.59076e-21
7.9811e-21
1.238e-21
-3.57517e-21
4.4423e-21
8.87184e-21
6.5343e-21
4.15747e-21
4.25348e-21
1.39167e-20
1.03885e-20
4.51278e-22
4.92943e-21
6.2195e-21
2.06216e-21
1.22787e-20
-5.31835e-21
6.07229e-21
1.59505e-21
4.95029e-21
3.75257e-21
4.19086e-21
3.9093e-21
3.09966e-22
4.40286e-21
2.64962e-21
9.66998e-21
1.13898e-20
4.06155e-21
1.25957e-21
7.78967e-21
1.0349e-20
7.44133e-21
5.25135e-21
1.20189e-22
6.34367e-21
2.55085e-21
6.48681e-21
1.60459e-21
3.42415e-21
3.95981e-21
1.3981e-21
2.81204e-23
2.3682e-21
2.78812e-21
9.57572e-22
5.22368e-21
6.59429e-21
1.48186e-21
-1.16178e-21
6.67733e-21
7.96989e-21
6.91594e-21
5.87059e-21
9.54418e-23
-2.9435e-20
2.42458e-20
7.91142e-21
9.10815e-21
-3.73574e-21
-7.6648e-21
1.21114e-21
7.42438e-21
6.82337e-21
4.2295e-21
7.63297e-21
1.18618e-21
-2.07955e-21
-1.5674e-21
2.03184e-21
6.55144e-21
3.44658e-21
1.61275e-22
2.34983e-21
1.7273e-21
4.4545e-20
-5.83169e-21
1.26782e-20
2.2438e-21
-1.35583e-21
-5.00137e-21
-3.99546e-21
2.99896e-21
9.42839e-21
7.21873e-21
3.16879e-21
-3.00622e-21
6.54382e-22
5.74682e-21
4.41388e-21
1.63655e-21
3.61225e-21
-3.73172e-22
-2.1094e-21
1.4671e-21
4.7116e-21
3.71153e-21
-5.24773e-21
-3.15745e-21
2.53449e-22
3.80522e-21
6.117e-21
4.87015e-21
4.05565e-21
1.72241e-21
-2.0156e-21
1.15295e-22
5.73538e-21
3.70353e-21
-2.12376e-21
-1.49637e-21
1.73483e-21
-1.84788e-21
-1.71781e-21
9.98283e-22
1.40801e-20
2.15854e-21
-6.17905e-21
-3.55224e-21
-1.63827e-21
3.56144e-21
2.42718e-21
1.56554e-21
4.59586e-22
3.69777e-21
5.47698e-21
4.14336e-21
1.06087e-21
-4.37624e-21
-3.10208e-21
-3.58852e-21
-5.53234e-21
-5.15668e-21
3.11255e-21
7.19535e-22
3.84771e-20
-9.01789e-21
-9.17594e-22
-1.02138e-20
-4.40256e-21
-4.19907e-22
-2.26487e-21
1.34571e-21
6.24839e-21
4.13618e-21
1.81467e-21
-1.57646e-21
-2.5102e-21
4.08805e-21
8.96199e-21
1.81753e-21
-6.15866e-21
-4.01977e-21
2.43769e-21
4.41649e-22
-1.34987e-20
-2.09151e-21
-4.06125e-21
-1.03645e-20
-7.40627e-21
-1.27563e-21
1.95485e-21
4.64407e-21
3.84957e-21
1.73612e-21
-5.59824e-22
-2.31297e-21
-3.44375e-21
6.07038e-21
8.77073e-21
5.34373e-21
1.76461e-22
1.1116e-21
3.44913e-22
4.4658e-22
-1.70628e-20
-5.68115e-22
-3.09004e-21
-2.0068e-21
-1.2226e-21
-1.89682e-22
-2.45842e-21
-1.1768e-21
8.26078e-22
4.23416e-21
1.9638e-21
-1.00433e-21
-2.84439e-21
-1.01206e-21
9.66904e-22
4.78959e-22
2.74521e-22
2.49203e-21
1.19088e-21
5.63517e-22
)
;

boundaryField
{
    movingWall
    {
        type            zeroGradient;
    }
    fixedWalls
    {
        type            zeroGradient;
    }
    frontAndBack
    {
        type            empty;
    }
}


// ************************************************************************* //
