/*--------------------------------*- C++ -*----------------------------------*\
| =========                 |                                                 |
| \\      /  F ield         | OpenFOAM: The Open Source CFD Toolbox           |
|  \\    /   O peration     | Version:  2312                                  |
|   \\  /    A nd           | Website:  www.openfoam.com                      |
|    \\/     M anipulation  |                                                 |
\*---------------------------------------------------------------------------*/
FoamFile
{
    version     2.0;
    format      ascii;
    arch        "LSB;label=32;scalar=64";
    class       volScalarField;
    location    "9";
    object      initialResidual:p;
}
// * * * * * * * * * * * * * * * * * * * * * * * * * * * * * * * * * * * * * //

dimensions      [0 0 0 0 0 0 0];

internalField   nonuniform List<scalar> 
400
(
-1.35525e-20
1.67401e-20
3.46835e-21
9.80579e-21
6.07204e-21
-2.34129e-21
-1.27976e-20
-8.37618e-21
9.23695e-21
5.62109e-21
-2.04566e-21
7.04505e-22
5.38852e-22
8.78869e-21
-1.28101e-20
-6.79021e-21
4.53207e-21
-1.05535e-20
2.00871e-20
-6.77629e-21
-2.03289e-20
7.56242e-21
2.09321e-20
-8.47204e-22
2.53298e-20
2.45898e-20
1.04606e-20
-2.18365e-20
1.52152e-21
2.33958e-20
5.93639e-21
-1.56449e-20
1.37163e-22
1.20336e-21
1.64865e-20
-7.35434e-21
-7.18717e-21
-1.31008e-20
1.6731e-20
6.77622e-21
2.26354e-25
-1.58711e-20
-1.68591e-22
-4.17332e-22
9.50435e-21
3.33604e-21
1.025e-20
8.31564e-22
-3.5545e-22
-3.68058e-21
6.69405e-21
-7.18395e-21
-9.94027e-23
6.67359e-21
-1.37037e-21
-3.35029e-21
1.20465e-20
-5.79219e-21
-2.70437e-21
6.77625e-21
6.77612e-21
-5.16611e-21
-7.21916e-22
-5.19039e-21
-4.75047e-21
1.48729e-20
-7.32731e-21
1.42114e-20
1.35633e-21
-1.43239e-20
2.76832e-21
8.38079e-21
2.08279e-21
-2.57759e-21
-1.66148e-20
1.58307e-20
-2.05168e-21
-2.18596e-20
1.72543e-20
6.77623e-21
-1.35523e-20
1.55428e-20
-2.53229e-20
-8.9627e-21
1.1624e-23
1.1473e-20
-3.40276e-21
-8.28973e-21
-4.62587e-21
1.46082e-20
-5.24731e-22
3.98561e-21
8.67692e-21
-1.24198e-20
1.48485e-20
-7.05776e-21
-5.47427e-21
-3.61483e-21
2.51949e-21
-1.30439e-27
3.38812e-20
-1.94946e-20
5.02567e-21
-2.69602e-21
-8.07542e-21
5.19698e-21
3.32467e-21
-8.07222e-21
1.28989e-20
4.61201e-21
-2.10384e-20
4.67586e-22
2.33368e-20
2.82307e-21
2.86345e-21
-4.37958e-21
8.18206e-21
-7.58247e-21
-1.36719e-20
6.77624e-21
6.77643e-21
-2.43437e-20
-9.59563e-21
-1.78473e-20
4.94946e-21
1.64127e-21
6.70093e-21
1.50001e-20
-7.45999e-21
1.8027e-21
2.44705e-20
2.46528e-21
7.73195e-21
1.22769e-20
3.63595e-21
7.74032e-21
-6.85659e-22
-6.99856e-21
2.92014e-21
-6.77625e-21
2.71051e-20
-1.54325e-20
-1.76857e-20
-1.44185e-21
1.1306e-20
-9.22165e-22
-2.2837e-21
3.50025e-21
2.94164e-21
-1.85427e-20
1.86709e-21
1.06118e-20
4.47806e-21
8.27313e-21
-3.4402e-21
3.7067e-21
1.00781e-20
1.2216e-22
-7.09586e-21
-1.44046e-26
7.01425e-26
2.81447e-22
-9.4894e-21
5.42408e-21
3.81639e-21
-2.34988e-22
-2.03502e-20
7.54301e-21
-2.63718e-20
8.36881e-21
9.77232e-21
3.45447e-21
-1.79829e-20
1.1421e-20
9.65241e-21
1.72753e-20
-4.52003e-21
-1.30394e-20
2.40207e-21
6.77629e-21
-1.35525e-20
1.24665e-20
1.14447e-20
-2.6346e-20
-4.31937e-21
8.77338e-21
1.1354e-20
-7.46424e-21
-1.93002e-20
-2.59374e-22
1.52022e-21
-5.88135e-21
1.40554e-20
1.45471e-21
-1.10352e-20
-7.06781e-21
-1.15895e-20
1.7421e-20
3.89874e-21
-4.60437e-27
2.37874e-25
-9.44548e-21
4.04832e-21
-6.17841e-21
-5.66805e-21
4.30214e-21
-1.04714e-20
-4.54988e-21
-5.0447e-21
6.23602e-21
8.03189e-21
6.39934e-21
-6.2478e-21
6.17193e-21
8.10997e-22
-8.00482e-21
4.9742e-21
-1.81166e-21
-4.68715e-21
6.77629e-21
2.7105e-20
-7.60449e-21
4.14631e-21
-1.16693e-20
-3.98938e-21
-1.66972e-20
1.71517e-20
2.79897e-21
2.67582e-21
3.12922e-21
-1.13989e-20
-1.28995e-20
1.29572e-20
1.13935e-20
-1.62736e-20
-1.27997e-20
7.63619e-21
5.16027e-21
1.09511e-20
8.34941e-27
6.77653e-21
4.20739e-21
-1.86833e-21
2.3268e-21
4.28417e-22
6.98797e-21
-1.73769e-20
-2.84797e-21
1.03231e-20
1.70839e-20
-1.59976e-20
-4.65416e-21
8.77013e-21
-2.07986e-20
-5.11606e-21
-7.06592e-22
-9.51273e-21
-3.8589e-21
1.96654e-21
3.39804e-26
2.71051e-20
-2.01021e-20
1.34348e-20
-3.99337e-21
-1.61601e-20
-2.64247e-21
-6.29169e-21
-9.28166e-22
1.40845e-20
4.51729e-21
-1.72822e-20
7.29303e-21
-6.38513e-21
-1.02096e-20
1.10299e-20
-4.65467e-21
1.82793e-21
-5.65875e-23
7.07601e-21
2.06674e-26
1.52421e-25
1.21348e-21
-1.13254e-20
-7.06468e-21
-1.25351e-20
-4.9542e-21
3.02601e-20
-3.62015e-21
4.08832e-21
-1.77424e-20
-1.32262e-20
2.11856e-22
9.62852e-21
-4.28931e-21
-1.65855e-22
7.98443e-21
1.42202e-21
-1.32373e-20
-1.03428e-21
3.6979e-26
4.7434e-20
-1.50504e-20
-1.77637e-20
-1.48461e-20
-6.07536e-21
1.65112e-20
-8.96449e-21
-2.68118e-21
-4.18531e-21
1.75396e-21
8.26565e-22
-1.18253e-20
1.49407e-20
-7.13883e-21
5.61705e-21
-2.28043e-20
-8.89173e-21
-2.31682e-21
2.78997e-20
2.6058e-26
-6.77621e-21
-8.87938e-21
-1.03062e-20
1.0175e-20
6.38529e-21
2.71169e-21
-1.34026e-20
1.40519e-21
2.14202e-21
1.00875e-20
1.03226e-20
-1.32971e-20
-6.65646e-21
-1.45788e-20
-1.34614e-21
-3.40617e-21
9.1476e-21
3.91252e-21
1.73677e-21
3.53145e-26
6.77641e-21
8.60118e-21
-1.7513e-20
-1.40788e-20
-2.96613e-21
5.49937e-21
1.96574e-21
-2.90043e-21
-2.22854e-21
1.28387e-21
-1.45863e-20
7.15686e-21
7.22865e-21
-1.56473e-21
6.32709e-21
2.87059e-21
-9.57329e-22
7.34596e-21
1.39279e-20
2.99617e-26
3.38815e-20
-2.44341e-20
-1.14854e-20
-4.10486e-21
-2.7974e-21
7.15699e-21
-1.31305e-20
-1.25702e-20
1.33779e-21
-4.7002e-21
7.31832e-21
-8.49214e-21
-7.14154e-21
-3.53986e-21
9.83893e-21
-5.99833e-21
6.64974e-22
-1.18476e-20
1.42732e-20
2.98392e-26
1.35525e-20
6.77636e-21
6.77629e-21
6.7763e-21
1.35526e-20
3.15976e-26
-6.77623e-21
3.19082e-26
-1.35525e-20
-1.35525e-20
2.86494e-26
6.77629e-21
-6.77623e-21
-2.03288e-20
-6.77624e-21
2.71051e-20
-2.03288e-20
-6.77624e-21
2.03288e-20
2.68029e-31
)
;

boundaryField
{
    movingWall
    {
        type            zeroGradient;
    }
    fixedWalls
    {
        type            zeroGradient;
    }
    frontAndBack
    {
        type            empty;
    }
}


// ************************************************************************* //
