/*--------------------------------*- C++ -*----------------------------------*\
| =========                 |                                                 |
| \\      /  F ield         | OpenFOAM: The Open Source CFD Toolbox           |
|  \\    /   O peration     | Version:  2312                                  |
|   \\  /    A nd           | Website:  www.openfoam.com                      |
|    \\/     M anipulation  |                                                 |
\*---------------------------------------------------------------------------*/
FoamFile
{
    version     2.0;
    format      ascii;
    arch        "LSB;label=32;scalar=64";
    class       volScalarField;
    location    "9";
    object      k2;
}
// * * * * * * * * * * * * * * * * * * * * * * * * * * * * * * * * * * * * * //

dimensions      [0 4 -4 0 0 0 0];

internalField   nonuniform List<scalar> 
400
(
9.39691e-12
9.3969e-12
9.3969e-12
9.39689e-12
9.39689e-12
9.39688e-12
9.39689e-12
9.39688e-12
9.39688e-12
9.39688e-12
9.39688e-12
9.39687e-12
9.39687e-12
9.39687e-12
9.39687e-12
9.39687e-12
9.39687e-12
9.39687e-12
9.39687e-12
9.39687e-12
9.68305e-12
9.68307e-12
9.68261e-12
9.68243e-12
9.68214e-12
9.68195e-12
9.6817e-12
9.68155e-12
9.68132e-12
9.68122e-12
9.68103e-12
9.68094e-12
9.68079e-12
9.68072e-12
9.68061e-12
9.68057e-12
9.6805e-12
9.68048e-12
9.68046e-12
9.68045e-12
1.01516e-11
1.01516e-11
1.01511e-11
1.01509e-11
1.01506e-11
1.01504e-11
1.01502e-11
1.015e-11
1.01498e-11
1.01496e-11
1.01494e-11
1.01493e-11
1.01491e-11
1.01491e-11
1.0149e-11
1.01489e-11
1.01488e-11
1.01488e-11
1.01488e-11
1.01488e-11
1.06679e-11
1.06679e-11
1.06673e-11
1.06671e-11
1.06667e-11
1.06666e-11
1.06662e-11
1.06661e-11
1.06658e-11
1.06657e-11
1.06654e-11
1.06654e-11
1.06652e-11
1.06651e-11
1.0665e-11
1.06649e-11
1.06648e-11
1.06648e-11
1.06648e-11
1.06648e-11
1.11243e-11
1.11243e-11
1.11237e-11
1.11235e-11
1.11231e-11
1.11229e-11
1.11226e-11
1.11224e-11
1.11221e-11
1.1122e-11
1.11217e-11
1.11216e-11
1.11214e-11
1.11214e-11
1.11212e-11
1.11212e-11
1.11211e-11
1.11211e-11
1.1121e-11
1.1121e-11
1.14728e-11
1.14728e-11
1.14722e-11
1.14719e-11
1.14715e-11
1.14713e-11
1.1471e-11
1.14708e-11
1.14705e-11
1.14703e-11
1.14701e-11
1.147e-11
1.14698e-11
1.14697e-11
1.14695e-11
1.14695e-11
1.14694e-11
1.14694e-11
1.14693e-11
1.14693e-11
1.17139e-11
1.17139e-11
1.17132e-11
1.1713e-11
1.17126e-11
1.17123e-11
1.17121e-11
1.17117e-11
1.17115e-11
1.17113e-11
1.17111e-11
1.17109e-11
1.17107e-11
1.17107e-11
1.17105e-11
1.17105e-11
1.17104e-11
1.17103e-11
1.17103e-11
1.17103e-11
1.1872e-11
1.1872e-11
1.18713e-11
1.18711e-11
1.18707e-11
1.18705e-11
1.18701e-11
1.18699e-11
1.18696e-11
1.18694e-11
1.18692e-11
1.1869e-11
1.18688e-11
1.18687e-11
1.18686e-11
1.18685e-11
1.18684e-11
1.18684e-11
1.18684e-11
1.18684e-11
1.19755e-11
1.19755e-11
1.19748e-11
1.19746e-11
1.19742e-11
1.19739e-11
1.19736e-11
1.19734e-11
1.19731e-11
1.19729e-11
1.19726e-11
1.19725e-11
1.19723e-11
1.19722e-11
1.1972e-11
1.1972e-11
1.19719e-11
1.19719e-11
1.19718e-11
1.19718e-11
1.20474e-11
1.20474e-11
1.20467e-11
1.20465e-11
1.2046e-11
1.20458e-11
1.20455e-11
1.20452e-11
1.20449e-11
1.20447e-11
1.20445e-11
1.20443e-11
1.20441e-11
1.2044e-11
1.20439e-11
1.20438e-11
1.20437e-11
1.20437e-11
1.20437e-11
1.20437e-11
1.21032e-11
1.21032e-11
1.21025e-11
1.21023e-11
1.21018e-11
1.21016e-11
1.21012e-11
1.2101e-11
1.21007e-11
1.21006e-11
1.21003e-11
1.21002e-11
1.20999e-11
1.20999e-11
1.20997e-11
1.20996e-11
1.20995e-11
1.20995e-11
1.20995e-11
1.20995e-11
1.21527e-11
1.21527e-11
1.2152e-11
1.21518e-11
1.21513e-11
1.21511e-11
1.21507e-11
1.21505e-11
1.21502e-11
1.215e-11
1.21497e-11
1.21496e-11
1.21494e-11
1.21493e-11
1.21492e-11
1.21491e-11
1.2149e-11
1.2149e-11
1.21489e-11
1.21489e-11
1.22015e-11
1.22015e-11
1.22008e-11
1.22006e-11
1.22002e-11
1.21999e-11
1.21995e-11
1.21993e-11
1.2199e-11
1.21988e-11
1.21985e-11
1.21984e-11
1.21982e-11
1.21981e-11
1.21979e-11
1.21979e-11
1.21978e-11
1.21978e-11
1.21977e-11
1.21977e-11
1.22528e-11
1.22528e-11
1.22521e-11
1.22518e-11
1.22514e-11
1.22511e-11
1.22508e-11
1.22506e-11
1.22502e-11
1.22501e-11
1.22498e-11
1.22497e-11
1.22494e-11
1.22493e-11
1.22492e-11
1.22491e-11
1.2249e-11
1.2249e-11
1.2249e-11
1.2249e-11
1.23078e-11
1.23078e-11
1.23071e-11
1.23068e-11
1.23064e-11
1.23061e-11
1.23058e-11
1.23055e-11
1.23052e-11
1.2305e-11
1.23048e-11
1.23046e-11
1.23044e-11
1.23043e-11
1.23042e-11
1.23041e-11
1.2304e-11
1.2304e-11
1.2304e-11
1.23039e-11
1.23659e-11
1.23659e-11
1.23652e-11
1.2365e-11
1.23645e-11
1.23643e-11
1.23639e-11
1.23637e-11
1.23633e-11
1.23632e-11
1.23629e-11
1.23628e-11
1.23625e-11
1.23624e-11
1.23623e-11
1.23622e-11
1.23621e-11
1.23621e-11
1.23621e-11
1.2362e-11
1.24243e-11
1.24243e-11
1.24237e-11
1.24234e-11
1.24229e-11
1.24227e-11
1.24223e-11
1.24221e-11
1.24217e-11
1.24216e-11
1.24213e-11
1.24212e-11
1.24209e-11
1.24208e-11
1.24207e-11
1.24206e-11
1.24205e-11
1.24205e-11
1.24205e-11
1.24204e-11
1.24778e-11
1.24778e-11
1.24771e-11
1.24769e-11
1.24764e-11
1.24761e-11
1.24758e-11
1.24756e-11
1.24752e-11
1.24751e-11
1.24747e-11
1.24746e-11
1.24744e-11
1.24743e-11
1.24741e-11
1.24741e-11
1.2474e-11
1.2474e-11
1.24739e-11
1.24739e-11
1.25193e-11
1.25193e-11
1.25187e-11
1.25184e-11
1.2518e-11
1.25177e-11
1.25173e-11
1.25171e-11
1.25168e-11
1.25166e-11
1.25163e-11
1.25162e-11
1.2516e-11
1.25159e-11
1.25157e-11
1.25157e-11
1.25156e-11
1.25155e-11
1.25155e-11
1.25155e-11
1.25385e-11
1.25385e-11
1.25385e-11
1.25385e-11
1.25384e-11
1.25384e-11
1.25384e-11
1.25384e-11
1.25384e-11
1.25384e-11
1.25384e-11
1.25384e-11
1.25384e-11
1.25384e-11
1.25384e-11
1.25384e-11
1.25384e-11
1.25384e-11
1.25384e-11
1.25384e-11
)
;

boundaryField
{
    movingWall
    {
        type            calculated;
        value           nonuniform List<scalar> 
20
(
1.25385e-11
1.25385e-11
1.25385e-11
1.25385e-11
1.25384e-11
1.25384e-11
1.25384e-11
1.25384e-11
1.25384e-11
1.25384e-11
1.25384e-11
1.25384e-11
1.25384e-11
1.25384e-11
1.25384e-11
1.25384e-11
1.25384e-11
1.25384e-11
1.25384e-11
1.25384e-11
)
;
    }
    fixedWalls
    {
        type            calculated;
        value           nonuniform List<scalar> 
60
(
9.39691e-12
9.68305e-12
1.01516e-11
1.06679e-11
1.11243e-11
1.14728e-11
1.17139e-11
1.1872e-11
1.19755e-11
1.20474e-11
1.21032e-11
1.21527e-11
1.22015e-11
1.22528e-11
1.23078e-11
1.23659e-11
1.24243e-11
1.24778e-11
1.25193e-11
1.25385e-11
9.39687e-12
9.68045e-12
1.01488e-11
1.06648e-11
1.1121e-11
1.14693e-11
1.17103e-11
1.18684e-11
1.19718e-11
1.20437e-11
1.20995e-11
1.21489e-11
1.21977e-11
1.2249e-11
1.23039e-11
1.2362e-11
1.24204e-11
1.24739e-11
1.25155e-11
1.25384e-11
9.39691e-12
9.3969e-12
9.3969e-12
9.39689e-12
9.39689e-12
9.39688e-12
9.39689e-12
9.39688e-12
9.39688e-12
9.39688e-12
9.39688e-12
9.39687e-12
9.39687e-12
9.39687e-12
9.39687e-12
9.39687e-12
9.39687e-12
9.39687e-12
9.39687e-12
9.39687e-12
)
;
    }
    frontAndBack
    {
        type            empty;
    }
}


// ************************************************************************* //
