/*--------------------------------*- C++ -*----------------------------------*\
| =========                 |                                                 |
| \\      /  F ield         | OpenFOAM: The Open Source CFD Toolbox           |
|  \\    /   O peration     | Version:  2312                                  |
|   \\  /    A nd           | Website:  www.openfoam.com                      |
|    \\/     M anipulation  |                                                 |
\*---------------------------------------------------------------------------*/
FoamFile
{
    version     2.0;
    format      ascii;
    arch        "LSB;label=32;scalar=64";
    class       volScalarField;
    location    "9";
    object      kDiff;
}
// * * * * * * * * * * * * * * * * * * * * * * * * * * * * * * * * * * * * * //

dimensions      [0 2 -2 0 0 0 0];

internalField   nonuniform List<scalar> 
400
(
-4.19998e-09
-4.19937e-09
-4.20025e-09
-4.19912e-09
-4.20034e-09
-4.19916e-09
-4.20022e-09
-4.1994e-09
-4.19995e-09
-4.19966e-09
-4.19987e-09
-4.19962e-09
-4.1999e-09
-4.19963e-09
-4.19984e-09
-4.19971e-09
-4.19977e-09
-4.19975e-09
-4.19976e-09
-4.19976e-09
-4.33368e-09
-4.33022e-09
-4.3443e-09
-4.33362e-09
-4.33654e-09
-4.33708e-09
-4.33634e-09
-4.34098e-09
-4.32734e-09
-4.34057e-09
-4.3298e-09
-4.33943e-09
-4.33068e-09
-4.33867e-09
-4.33147e-09
-4.33731e-09
-4.33263e-09
-4.33547e-09
-4.33461e-09
-4.33483e-09
-4.54493e-09
-4.54782e-09
-4.53838e-09
-4.54735e-09
-4.54178e-09
-4.54616e-09
-4.54236e-09
-4.54654e-09
-4.54257e-09
-4.54692e-09
-4.54018e-09
-4.55098e-09
-4.53612e-09
-4.55135e-09
-4.53834e-09
-4.54524e-09
-4.54009e-09
-4.54482e-09
-4.54297e-09
-4.54347e-09
-4.75427e-09
-4.75604e-09
-4.7505e-09
-4.76523e-09
-4.73915e-09
-4.76597e-09
-4.74071e-09
-4.7615e-09
-4.74348e-09
-4.7594e-09
-4.74381e-09
-4.75201e-09
-4.7554e-09
-4.74926e-09
-4.75535e-09
-4.75074e-09
-4.75496e-09
-4.75188e-09
-4.75242e-09
-4.7523e-09
-4.91724e-09
-4.9115e-09
-4.93166e-09
-4.91071e-09
-4.92478e-09
-4.91141e-09
-4.92489e-09
-4.91059e-09
-4.92662e-09
-4.90874e-09
-4.92748e-09
-4.90836e-09
-4.92672e-09
-4.90969e-09
-4.92468e-09
-4.91237e-09
-4.92177e-09
-4.91573e-09
-4.91818e-09
-4.91749e-09
-5.03116e-09
-5.03038e-09
-5.03316e-09
-5.02542e-09
-5.03711e-09
-5.02523e-09
-5.03681e-09
-5.02412e-09
-5.03793e-09
-5.02084e-09
-5.0394e-09
-5.02101e-09
-5.03911e-09
-5.02192e-09
-5.0371e-09
-5.02453e-09
-5.03416e-09
-5.02792e-09
-5.03056e-09
-5.02981e-09
-5.10124e-09
-5.09805e-09
-5.10828e-09
-5.0906e-09
-5.11049e-09
-5.09185e-09
-5.11017e-09
-5.08917e-09
-5.11028e-09
-5.09022e-09
-5.1096e-09
-5.09008e-09
-5.10955e-09
-5.08963e-09
-5.10874e-09
-5.09192e-09
-5.10535e-09
-5.09633e-09
-5.1005e-09
-5.09941e-09
-5.1424e-09
-5.1435e-09
-5.13934e-09
-5.14559e-09
-5.13679e-09
-5.14318e-09
-5.14187e-09
-5.14359e-09
-5.14104e-09
-5.14616e-09
-5.13695e-09
-5.14837e-09
-5.1339e-09
-5.1477e-09
-5.13412e-09
-5.14656e-09
-5.13687e-09
-5.14279e-09
-5.14047e-09
-5.14111e-09
-5.16769e-09
-5.16527e-09
-5.17502e-09
-5.16005e-09
-5.17577e-09
-5.16162e-09
-5.17477e-09
-5.16206e-09
-5.17436e-09
-5.15897e-09
-5.17674e-09
-5.15814e-09
-5.17683e-09
-5.15869e-09
-5.17494e-09
-5.16117e-09
-5.17184e-09
-5.16484e-09
-5.16791e-09
-5.16706e-09
-5.18434e-09
-5.17784e-09
-5.19754e-09
-5.18113e-09
-5.18879e-09
-5.18361e-09
-5.18787e-09
-5.18401e-09
-5.18803e-09
-5.1838e-09
-5.18769e-09
-5.18485e-09
-5.18761e-09
-5.18506e-09
-5.18584e-09
-5.18472e-09
-5.18546e-09
-5.1849e-09
-5.18538e-09
-5.1852e-09
-5.19999e-09
-5.19604e-09
-5.21137e-09
-5.19815e-09
-5.20392e-09
-5.20653e-09
-5.19256e-09
-5.20689e-09
-5.19432e-09
-5.20885e-09
-5.19137e-09
-5.20978e-09
-5.19109e-09
-5.208e-09
-5.19317e-09
-5.20487e-09
-5.19614e-09
-5.20133e-09
-5.19961e-09
-5.20009e-09
-5.21367e-09
-5.20755e-09
-5.22885e-09
-5.20758e-09
-5.22095e-09
-5.20905e-09
-5.22078e-09
-5.20839e-09
-5.22234e-09
-5.20654e-09
-5.22319e-09
-5.20614e-09
-5.2225e-09
-5.20732e-09
-5.22069e-09
-5.20972e-09
-5.21813e-09
-5.21273e-09
-5.21485e-09
-5.21421e-09
-5.23055e-09
-5.22788e-09
-5.23599e-09
-5.221e-09
-5.23947e-09
-5.22085e-09
-5.23969e-09
-5.2209e-09
-5.24005e-09
-5.21627e-09
-5.24208e-09
-5.21665e-09
-5.24169e-09
-5.21793e-09
-5.23892e-09
-5.22151e-09
-5.2348e-09
-5.22618e-09
-5.22993e-09
-5.22892e-09
-5.24326e-09
-5.23935e-09
-5.25591e-09
-5.24453e-09
-5.2464e-09
-5.2465e-09
-5.24637e-09
-5.25112e-09
-5.23969e-09
-5.2508e-09
-5.24041e-09
-5.24921e-09
-5.24175e-09
-5.24851e-09
-5.24201e-09
-5.24739e-09
-5.24266e-09
-5.24563e-09
-5.24477e-09
-5.24499e-09
-5.26049e-09
-5.25861e-09
-5.27238e-09
-5.26425e-09
-5.26119e-09
-5.26802e-09
-5.26008e-09
-5.26728e-09
-5.26328e-09
-5.27066e-09
-5.25479e-09
-5.26936e-09
-5.25697e-09
-5.26755e-09
-5.25873e-09
-5.26575e-09
-5.26013e-09
-5.26359e-09
-5.26259e-09
-5.26284e-09
-5.28081e-09
-5.27679e-09
-5.29412e-09
-5.28236e-09
-5.28475e-09
-5.28522e-09
-5.2817e-09
-5.28935e-09
-5.27599e-09
-5.28761e-09
-5.27843e-09
-5.28776e-09
-5.27741e-09
-5.28735e-09
-5.27791e-09
-5.28562e-09
-5.27942e-09
-5.2832e-09
-5.28208e-09
-5.28236e-09
-5.301e-09
-5.29692e-09
-5.31532e-09
-5.30139e-09
-5.30515e-09
-5.3056e-09
-5.30317e-09
-5.31207e-09
-5.29208e-09
-5.31203e-09
-5.29469e-09
-5.31133e-09
-5.29479e-09
-5.30981e-09
-5.2963e-09
-5.30709e-09
-5.29889e-09
-5.30379e-09
-5.30231e-09
-5.3027e-09
-5.32296e-09
-5.32009e-09
-5.33076e-09
-5.31612e-09
-5.32889e-09
-5.31521e-09
-5.32983e-09
-5.3143e-09
-5.3322e-09
-5.31212e-09
-5.33333e-09
-5.31168e-09
-5.3326e-09
-5.31311e-09
-5.33023e-09
-5.31605e-09
-5.32685e-09
-5.3199e-09
-5.32276e-09
-5.32195e-09
-5.33589e-09
-5.33154e-09
-5.34859e-09
-5.33723e-09
-5.33892e-09
-5.33887e-09
-5.33939e-09
-5.34545e-09
-5.32886e-09
-5.3433e-09
-5.33172e-09
-5.34304e-09
-5.33333e-09
-5.34206e-09
-5.33334e-09
-5.34047e-09
-5.33451e-09
-5.33816e-09
-5.33707e-09
-5.33734e-09
-5.34591e-09
-5.34623e-09
-5.34578e-09
-5.34655e-09
-5.34569e-09
-5.34619e-09
-5.34566e-09
-5.34603e-09
-5.34595e-09
-5.34606e-09
-5.34589e-09
-5.346e-09
-5.346e-09
-5.34597e-09
-5.34602e-09
-5.34597e-09
-5.346e-09
-5.34597e-09
-5.34598e-09
-5.34598e-09
)
;

boundaryField
{
    movingWall
    {
        type            calculated;
        value           nonuniform List<scalar> 
20
(
-5.34591e-09
-5.34623e-09
-5.34578e-09
-5.34655e-09
-5.34569e-09
-5.34619e-09
-5.34566e-09
-5.34603e-09
-5.34595e-09
-5.34606e-09
-5.34589e-09
-5.346e-09
-5.346e-09
-5.34597e-09
-5.34602e-09
-5.34597e-09
-5.346e-09
-5.34597e-09
-5.34598e-09
-5.34598e-09
)
;
    }
    fixedWalls
    {
        type            calculated;
        value           nonuniform List<scalar> 
60
(
-4.19998e-09
-4.33368e-09
-4.54493e-09
-4.75427e-09
-4.91724e-09
-5.03116e-09
-5.10124e-09
-5.1424e-09
-5.16769e-09
-5.18434e-09
-5.19999e-09
-5.21367e-09
-5.23055e-09
-5.24326e-09
-5.26049e-09
-5.28081e-09
-5.301e-09
-5.32296e-09
-5.33589e-09
-5.34591e-09
-4.19976e-09
-4.33483e-09
-4.54347e-09
-4.7523e-09
-4.91749e-09
-5.02981e-09
-5.09941e-09
-5.14111e-09
-5.16706e-09
-5.1852e-09
-5.20009e-09
-5.21421e-09
-5.22892e-09
-5.24499e-09
-5.26284e-09
-5.28236e-09
-5.3027e-09
-5.32195e-09
-5.33734e-09
-5.34598e-09
-4.19998e-09
-4.19937e-09
-4.20025e-09
-4.19912e-09
-4.20034e-09
-4.19916e-09
-4.20022e-09
-4.1994e-09
-4.19995e-09
-4.19966e-09
-4.19987e-09
-4.19962e-09
-4.1999e-09
-4.19963e-09
-4.19984e-09
-4.19971e-09
-4.19977e-09
-4.19975e-09
-4.19976e-09
-4.19976e-09
)
;
    }
    frontAndBack
    {
        type            empty;
    }
}


// ************************************************************************* //
