/*--------------------------------*- C++ -*----------------------------------*\
| =========                 |                                                 |
| \\      /  F ield         | OpenFOAM: The Open Source CFD Toolbox           |
|  \\    /   O peration     | Version:  2312                                  |
|   \\  /    A nd           | Website:  www.openfoam.com                      |
|    \\/     M anipulation  |                                                 |
\*---------------------------------------------------------------------------*/
FoamFile
{
    version     2.0;
    format      ascii;
    arch        "LSB;label=32;scalar=64";
    class       volScalarField;
    location    "9";
    object      kTotal;
}
// * * * * * * * * * * * * * * * * * * * * * * * * * * * * * * * * * * * * * //

dimensions      [0 2 -2 0 0 0 0];

internalField   nonuniform List<scalar> 
400
(
6.13088e-06
6.13088e-06
6.13087e-06
6.13087e-06
6.13087e-06
6.13087e-06
6.13087e-06
6.13087e-06
6.13087e-06
6.13087e-06
6.13087e-06
6.13087e-06
6.13087e-06
6.13086e-06
6.13086e-06
6.13086e-06
6.13086e-06
6.13086e-06
6.13086e-06
6.13086e-06
6.22352e-06
6.22353e-06
6.22338e-06
6.22332e-06
6.22323e-06
6.22317e-06
6.22309e-06
6.22304e-06
6.22297e-06
6.22293e-06
6.22287e-06
6.22284e-06
6.22279e-06
6.22277e-06
6.22274e-06
6.22272e-06
6.2227e-06
6.22269e-06
6.22269e-06
6.22268e-06
6.37233e-06
6.37233e-06
6.37217e-06
6.37211e-06
6.37201e-06
6.37194e-06
6.37187e-06
6.3718e-06
6.37174e-06
6.37169e-06
6.37163e-06
6.3716e-06
6.37155e-06
6.37153e-06
6.37149e-06
6.37148e-06
6.37145e-06
6.37144e-06
6.37143e-06
6.37143e-06
6.53234e-06
6.53234e-06
6.53217e-06
6.53211e-06
6.53199e-06
6.53194e-06
6.53184e-06
6.53179e-06
6.53171e-06
6.53167e-06
6.5316e-06
6.53157e-06
6.53152e-06
6.53149e-06
6.53146e-06
6.53144e-06
6.53142e-06
6.5314e-06
6.5314e-06
6.53139e-06
6.67063e-06
6.67063e-06
6.67045e-06
6.67039e-06
6.67027e-06
6.67021e-06
6.67011e-06
6.67006e-06
6.66997e-06
6.66993e-06
6.66986e-06
6.66983e-06
6.66977e-06
6.66975e-06
6.6697e-06
6.66969e-06
6.66966e-06
6.66966e-06
6.66964e-06
6.66964e-06
6.7743e-06
6.7743e-06
6.77411e-06
6.77405e-06
6.77394e-06
6.77386e-06
6.77377e-06
6.77371e-06
6.77362e-06
6.77358e-06
6.7735e-06
6.77347e-06
6.77341e-06
6.77339e-06
6.77334e-06
6.77333e-06
6.7733e-06
6.77329e-06
6.77328e-06
6.77328e-06
6.84511e-06
6.8451e-06
6.84491e-06
6.84485e-06
6.84474e-06
6.84465e-06
6.84458e-06
6.84449e-06
6.84443e-06
6.84436e-06
6.8443e-06
6.84425e-06
6.84419e-06
6.84418e-06
6.84412e-06
6.84412e-06
6.84408e-06
6.84408e-06
6.84407e-06
6.84407e-06
6.89115e-06
6.89115e-06
6.89097e-06
6.89089e-06
6.89077e-06
6.89071e-06
6.8906e-06
6.89054e-06
6.89045e-06
6.89041e-06
6.89033e-06
6.89029e-06
6.89023e-06
6.89021e-06
6.89016e-06
6.89015e-06
6.89012e-06
6.89011e-06
6.8901e-06
6.8901e-06
6.92113e-06
6.92114e-06
6.92094e-06
6.92087e-06
6.92076e-06
6.92067e-06
6.92059e-06
6.92051e-06
6.92043e-06
6.92038e-06
6.9203e-06
6.92027e-06
6.9202e-06
6.92018e-06
6.92013e-06
6.92012e-06
6.92009e-06
6.92008e-06
6.92007e-06
6.92007e-06
6.94186e-06
6.94186e-06
6.94168e-06
6.94161e-06
6.94148e-06
6.94141e-06
6.94131e-06
6.94124e-06
6.94116e-06
6.9411e-06
6.94104e-06
6.94099e-06
6.94094e-06
6.94091e-06
6.94086e-06
6.94084e-06
6.94082e-06
6.94081e-06
6.9408e-06
6.9408e-06
6.95793e-06
6.95793e-06
6.95774e-06
6.95767e-06
6.95754e-06
6.95748e-06
6.95737e-06
6.95731e-06
6.95722e-06
6.95717e-06
6.9571e-06
6.95706e-06
6.957e-06
6.95697e-06
6.95692e-06
6.95691e-06
6.95688e-06
6.95687e-06
6.95686e-06
6.95686e-06
6.97214e-06
6.97214e-06
6.97195e-06
6.97188e-06
6.97175e-06
6.97168e-06
6.97158e-06
6.97152e-06
6.97142e-06
6.97138e-06
6.9713e-06
6.97126e-06
6.9712e-06
6.97118e-06
6.97113e-06
6.97111e-06
6.97108e-06
6.97108e-06
6.97106e-06
6.97106e-06
6.98613e-06
6.98613e-06
6.98593e-06
6.98587e-06
6.98574e-06
6.98566e-06
6.98557e-06
6.9855e-06
6.9854e-06
6.98536e-06
6.98528e-06
6.98525e-06
6.98518e-06
6.98516e-06
6.98511e-06
6.9851e-06
6.98506e-06
6.98506e-06
6.98505e-06
6.98505e-06
7.00079e-06
7.00079e-06
7.0006e-06
7.00053e-06
7.0004e-06
7.00033e-06
7.00023e-06
7.00016e-06
7.00007e-06
7.00002e-06
6.99994e-06
6.99991e-06
6.99984e-06
6.99982e-06
6.99977e-06
6.99975e-06
6.99973e-06
6.99972e-06
6.99971e-06
6.9997e-06
7.01649e-06
7.01649e-06
7.0163e-06
7.01622e-06
7.0161e-06
7.01602e-06
7.01592e-06
7.01585e-06
7.01577e-06
7.01571e-06
7.01563e-06
7.0156e-06
7.01554e-06
7.01551e-06
7.01546e-06
7.01545e-06
7.01542e-06
7.01541e-06
7.0154e-06
7.0154e-06
7.03304e-06
7.03304e-06
7.03285e-06
7.03278e-06
7.03264e-06
7.03257e-06
7.03246e-06
7.03241e-06
7.03231e-06
7.03226e-06
7.03218e-06
7.03215e-06
7.03208e-06
7.03206e-06
7.03201e-06
7.03199e-06
7.03196e-06
7.03196e-06
7.03195e-06
7.03194e-06
7.04963e-06
7.04964e-06
7.04944e-06
7.04936e-06
7.04924e-06
7.04916e-06
7.04906e-06
7.049e-06
7.0489e-06
7.04886e-06
7.04877e-06
7.04874e-06
7.04867e-06
7.04865e-06
7.0486e-06
7.04858e-06
7.04855e-06
7.04855e-06
7.04853e-06
7.04853e-06
7.06479e-06
7.06479e-06
7.06459e-06
7.06452e-06
7.06439e-06
7.06432e-06
7.06421e-06
7.06415e-06
7.06405e-06
7.06401e-06
7.06392e-06
7.06389e-06
7.06382e-06
7.0638e-06
7.06375e-06
7.06374e-06
7.0637e-06
7.0637e-06
7.06369e-06
7.06368e-06
7.07653e-06
7.07653e-06
7.07635e-06
7.07627e-06
7.07615e-06
7.07607e-06
7.07597e-06
7.07591e-06
7.07581e-06
7.07577e-06
7.07569e-06
7.07566e-06
7.07559e-06
7.07556e-06
7.07552e-06
7.0755e-06
7.07547e-06
7.07546e-06
7.07545e-06
7.07545e-06
7.08194e-06
7.08194e-06
7.08194e-06
7.08194e-06
7.08193e-06
7.08193e-06
7.08193e-06
7.08193e-06
7.08193e-06
7.08193e-06
7.08193e-06
7.08193e-06
7.08193e-06
7.08193e-06
7.08193e-06
7.08193e-06
7.08193e-06
7.08193e-06
7.08193e-06
7.08193e-06
)
;

boundaryField
{
    movingWall
    {
        type            calculated;
        value           nonuniform List<scalar> 
20
(
7.08194e-06
7.08194e-06
7.08194e-06
7.08194e-06
7.08193e-06
7.08193e-06
7.08193e-06
7.08193e-06
7.08193e-06
7.08193e-06
7.08193e-06
7.08193e-06
7.08193e-06
7.08193e-06
7.08193e-06
7.08193e-06
7.08193e-06
7.08193e-06
7.08193e-06
7.08193e-06
)
;
    }
    fixedWalls
    {
        type            calculated;
        value           nonuniform List<scalar> 
60
(
6.13088e-06
6.22352e-06
6.37233e-06
6.53234e-06
6.67063e-06
6.7743e-06
6.84511e-06
6.89115e-06
6.92113e-06
6.94186e-06
6.95793e-06
6.97214e-06
6.98613e-06
7.00079e-06
7.01649e-06
7.03304e-06
7.04963e-06
7.06479e-06
7.07653e-06
7.08194e-06
6.13086e-06
6.22268e-06
6.37143e-06
6.53139e-06
6.66964e-06
6.77328e-06
6.84407e-06
6.8901e-06
6.92007e-06
6.9408e-06
6.95686e-06
6.97106e-06
6.98505e-06
6.9997e-06
7.0154e-06
7.03194e-06
7.04853e-06
7.06368e-06
7.07545e-06
7.08193e-06
6.13088e-06
6.13088e-06
6.13087e-06
6.13087e-06
6.13087e-06
6.13087e-06
6.13087e-06
6.13087e-06
6.13087e-06
6.13087e-06
6.13087e-06
6.13087e-06
6.13087e-06
6.13086e-06
6.13086e-06
6.13086e-06
6.13086e-06
6.13086e-06
6.13086e-06
6.13086e-06
)
;
    }
    frontAndBack
    {
        type            empty;
    }
}


// ************************************************************************* //
