/*--------------------------------*- C++ -*----------------------------------*\
| =========                 |                                                 |
| \\      /  F ield         | OpenFOAM: The Open Source CFD Toolbox           |
|  \\    /   O peration     | Version:  2312                                  |
|   \\  /    A nd           | Website:  www.openfoam.com                      |
|    \\/     M anipulation  |                                                 |
\*---------------------------------------------------------------------------*/
FoamFile
{
    version     2.0;
    format      ascii;
    arch        "LSB;label=32;scalar=64";
    class       volVectorField;
    location    "9";
    object      kU;
}
// * * * * * * * * * * * * * * * * * * * * * * * * * * * * * * * * * * * * * //

dimensions      [0 3 -3 0 0 0 0];

internalField   nonuniform List<vector> 
400
(
(-3.06334e-06 3.96613e-19 0)
(-3.06334e-06 -8.31175e-20 0)
(-3.06334e-06 2.00375e-20 0)
(-3.06334e-06 -3.5949e-21 0)
(-3.06334e-06 1.56112e-21 0)
(-3.06333e-06 1.5117e-22 0)
(-3.06333e-06 2.44006e-22 0)
(-3.06333e-06 9.84045e-23 0)
(-3.06333e-06 8.20081e-23 0)
(-3.06333e-06 1.13307e-22 0)
(-3.06333e-06 9.35418e-23 0)
(-3.06333e-06 9.38494e-23 0)
(-3.06333e-06 -5.75172e-23 0)
(-3.06333e-06 3.87323e-22 0)
(-3.06333e-06 4.99464e-22 0)
(-3.06333e-06 4.65084e-22 0)
(-3.06333e-06 1.27147e-22 0)
(-3.06333e-06 -2.66517e-22 0)
(-3.06333e-06 -2.25945e-22 0)
(-3.06333e-06 1.95326e-23 0)
(-3.10959e-06 6.56601e-20 0)
(-3.1096e-06 -1.19216e-20 0)
(-3.10952e-06 3.4696e-21 0)
(-3.10949e-06 -3.33413e-22 0)
(-3.10945e-06 1.56818e-22 0)
(-3.10942e-06 -4.07568e-22 0)
(-3.10937e-06 -4.82915e-22 0)
(-3.10935e-06 -1.22028e-22 0)
(-3.10932e-06 3.11131e-22 0)
(-3.1093e-06 2.75842e-22 0)
(-3.10927e-06 8.96379e-23 0)
(-3.10925e-06 4.38673e-23 0)
(-3.10923e-06 4.5278e-23 0)
(-3.10922e-06 4.94336e-22 0)
(-3.1092e-06 3.75492e-22 0)
(-3.10919e-06 3.48716e-22 0)
(-3.10918e-06 9.55156e-23 0)
(-3.10918e-06 -3.62947e-22 0)
(-3.10918e-06 -5.28072e-22 0)
(-3.10918e-06 -1.9867e-22 0)
(-3.18389e-06 -3.36825e-19 0)
(-3.18389e-06 6.92176e-20 0)
(-3.18382e-06 -1.70642e-20 0)
(-3.18378e-06 2.85406e-21 0)
(-3.18373e-06 -1.51346e-21 0)
(-3.1837e-06 -3.24711e-22 0)
(-3.18366e-06 -1.97627e-22 0)
(-3.18363e-06 9.93192e-23 0)
(-3.1836e-06 7.01139e-23 0)
(-3.18357e-06 5.97908e-23 0)
(-3.18355e-06 -1.16885e-22 0)
(-3.18352e-06 -2.52267e-22 0)
(-3.18351e-06 -2.07554e-22 0)
(-3.18349e-06 -4.38308e-22 0)
(-3.18347e-06 -3.9245e-22 0)
(-3.18347e-06 -1.59328e-22 0)
(-3.18345e-06 3.93749e-23 0)
(-3.18345e-06 -2.92676e-23 0)
(-3.18345e-06 -2.87081e-22 0)
(-3.18344e-06 -3.01054e-22 0)
(-3.26379e-06 1.51239e-19 0)
(-3.26379e-06 -3.4045e-20 0)
(-3.26371e-06 6.20313e-21 0)
(-3.26367e-06 -2.27843e-21 0)
(-3.26363e-06 3.63472e-23 0)
(-3.26359e-06 1.11381e-22 0)
(-3.26355e-06 4.89428e-22 0)
(-3.26352e-06 3.8159e-22 0)
(-3.26348e-06 1.56944e-22 0)
(-3.26346e-06 3.06466e-22 0)
(-3.26343e-06 1.16016e-22 0)
(-3.26341e-06 8.37534e-23 0)
(-3.26338e-06 5.8025e-23 0)
(-3.26337e-06 -4.72707e-22 0)
(-3.26335e-06 -4.47462e-22 0)
(-3.26334e-06 -3.22244e-22 0)
(-3.26333e-06 -2.25066e-22 0)
(-3.26333e-06 -1.01678e-22 0)
(-3.26332e-06 1.41514e-23 0)
(-3.26332e-06 -1.77852e-22 0)
(-3.33285e-06 9.71077e-20 0)
(-3.33286e-06 -2.32087e-20 0)
(-3.33276e-06 4.51801e-21 0)
(-3.33274e-06 -1.69791e-21 0)
(-3.33267e-06 3.82729e-23 0)
(-3.33265e-06 -1.46077e-22 0)
(-3.33259e-06 -1.99894e-22 0)
(-3.33257e-06 -9.76239e-23 0)
(-3.33252e-06 7.03187e-22 0)
(-3.33251e-06 9.70975e-22 0)
(-3.33246e-06 5.47066e-22 0)
(-3.33246e-06 2.92111e-22 0)
(-3.33242e-06 3.95183e-22 0)
(-3.33242e-06 3.14981e-22 0)
(-3.33239e-06 -4.283e-23 0)
(-3.33239e-06 -3.80711e-22 0)
(-3.33237e-06 -4.96546e-22 0)
(-3.33237e-06 -3.8682e-22 0)
(-3.33236e-06 -2.94248e-22 0)
(-3.33236e-06 -2.4628e-22 0)
(-3.38463e-06 -3.08105e-19 0)
(-3.38463e-06 6.62229e-20 0)
(-3.38454e-06 -1.55051e-20 0)
(-3.38451e-06 3.12827e-21 0)
(-3.38445e-06 -9.12335e-22 0)
(-3.38442e-06 1.46106e-22 0)
(-3.38436e-06 -1.13097e-22 0)
(-3.38434e-06 -1.52191e-22 0)
(-3.38429e-06 1.58911e-22 0)
(-3.38428e-06 2.52227e-22 0)
(-3.38423e-06 3.16557e-22 0)
(-3.38423e-06 2.92267e-22 0)
(-3.38418e-06 1.04534e-22 0)
(-3.38418e-06 3.25486e-22 0)
(-3.38415e-06 4.56855e-22 0)
(-3.38415e-06 5.46019e-23 0)
(-3.38413e-06 -1.31229e-22 0)
(-3.38413e-06 -2.37142e-22 0)
(-3.38413e-06 -3.81289e-22 0)
(-3.38413e-06 -2.1062e-22 0)
(-3.42e-06 3.67629e-19 0)
(-3.42e-06 -7.67385e-20 0)
(-3.4199e-06 1.80258e-20 0)
(-3.41988e-06 -4.1997e-21 0)
(-3.41982e-06 7.17677e-22 0)
(-3.41978e-06 1.01865e-22 0)
(-3.41973e-06 3.50935e-22 0)
(-3.4197e-06 4.28676e-22 0)
(-3.41966e-06 3.35632e-22 0)
(-3.41963e-06 2.12463e-22 0)
(-3.41959e-06 4.70072e-22 0)
(-3.41958e-06 6.45742e-22 0)
(-3.41954e-06 3.00939e-22 0)
(-3.41954e-06 3.81956e-23 0)
(-3.41951e-06 4.93381e-23 0)
(-3.41951e-06 -7.64153e-23 0)
(-3.41949e-06 -2.14518e-22 0)
(-3.41949e-06 -3.81305e-22 0)
(-3.41948e-06 -2.56446e-22 0)
(-3.41948e-06 -1.80274e-22 0)
(-3.443e-06 -8.91063e-20 0)
(-3.443e-06 1.63011e-20 0)
(-3.44291e-06 -4.58305e-21 0)
(-3.44287e-06 5.42834e-22 0)
(-3.44282e-06 -1.1221e-22 0)
(-3.44278e-06 -3.08228e-23 0)
(-3.44273e-06 -1.5892e-23 0)
(-3.4427e-06 3.3055e-22 0)
(-3.44266e-06 4.78714e-22 0)
(-3.44263e-06 3.17248e-22 0)
(-3.4426e-06 3.87054e-22 0)
(-3.44257e-06 4.1099e-22 0)
(-3.44255e-06 4.2131e-22 0)
(-3.44253e-06 -2.05601e-23 0)
(-3.44252e-06 -3.07592e-22 0)
(-3.4425e-06 -1.42186e-22 0)
(-3.44249e-06 -1.40788e-22 0)
(-3.44249e-06 -3.78669e-22 0)
(-3.44248e-06 -1.49448e-22 0)
(-3.44248e-06 -2.65297e-24 0)
(-3.45798e-06 -3.41341e-19 0)
(-3.45798e-06 7.26007e-20 0)
(-3.45788e-06 -1.74042e-20 0)
(-3.45786e-06 3.78845e-21 0)
(-3.45779e-06 -9.71097e-22 0)
(-3.45776e-06 -3.54118e-22 0)
(-3.45771e-06 -4.81362e-22 0)
(-3.45767e-06 -4.80236e-22 0)
(-3.45763e-06 -6.87194e-22 0)
(-3.45761e-06 -6.58815e-22 0)
(-3.45756e-06 -3.9155e-22 0)
(-3.45756e-06 2.74e-23 0)
(-3.45751e-06 4.77462e-22 0)
(-3.45751e-06 5.56217e-22 0)
(-3.45748e-06 1.72294e-22 0)
(-3.45748e-06 -2.49499e-22 0)
(-3.45746e-06 -4.05769e-23 0)
(-3.45746e-06 9.60821e-23 0)
(-3.45745e-06 1.26064e-22 0)
(-3.45745e-06 1.43088e-22 0)
(-3.46834e-06 5.53639e-19 0)
(-3.46834e-06 -1.18418e-19 0)
(-3.46824e-06 2.82372e-20 0)
(-3.46821e-06 -5.56374e-21 0)
(-3.46815e-06 1.92701e-21 0)
(-3.46811e-06 3.29665e-22 0)
(-3.46806e-06 4.61251e-22 0)
(-3.46803e-06 -1.24055e-22 0)
(-3.46799e-06 -6.4819e-22 0)
(-3.46796e-06 -7.83013e-22 0)
(-3.46793e-06 -6.29553e-22 0)
(-3.4679e-06 -5.20075e-22 0)
(-3.46787e-06 -4.03524e-22 0)
(-3.46786e-06 8.13439e-23 0)
(-3.46784e-06 3.44172e-22 0)
(-3.46783e-06 -3.99539e-23 0)
(-3.46782e-06 -4.38357e-22 0)
(-3.46781e-06 -1.73737e-22 0)
(-3.46781e-06 6.75158e-23 0)
(-3.46781e-06 -3.99266e-23 0)
(-3.47637e-06 -4.57857e-19 0)
(-3.47637e-06 1.00134e-19 0)
(-3.47626e-06 -2.35381e-20 0)
(-3.47624e-06 4.96877e-21 0)
(-3.47617e-06 -1.09503e-21 0)
(-3.47614e-06 3.56196e-22 0)
(-3.47609e-06 2.7696e-22 0)
(-3.47605e-06 4.89322e-22 0)
(-3.47601e-06 3.11409e-22 0)
(-3.47598e-06 -1.5193e-22 0)
(-3.47595e-06 -2.90618e-22 0)
(-3.47593e-06 -3.56113e-22 0)
(-3.4759e-06 -1.98739e-22 0)
(-3.47588e-06 -2.10705e-22 0)
(-3.47587e-06 1.62627e-22 0)
(-3.47585e-06 2.92564e-22 0)
(-3.47584e-06 -1.77871e-22 0)
(-3.47584e-06 -1.20238e-22 0)
(-3.47583e-06 -1.13503e-23 0)
(-3.47583e-06 -1.50584e-22 0)
(-3.48346e-06 1.6467e-19 0)
(-3.48347e-06 -3.5325e-20 0)
(-3.48336e-06 8.2665e-21 0)
(-3.48333e-06 -1.83538e-21 0)
(-3.48327e-06 -3.8613e-23 0)
(-3.48324e-06 -2.56174e-22 0)
(-3.48318e-06 -1.84913e-22 0)
(-3.48315e-06 -2.83579e-22 0)
(-3.4831e-06 -3.32232e-22 0)
(-3.48309e-06 -3.94193e-22 0)
(-3.48304e-06 -5.06825e-22 0)
(-3.48303e-06 -6.84222e-23 0)
(-3.48299e-06 1.15221e-22 0)
(-3.48298e-06 -1.84977e-22 0)
(-3.48295e-06 -2.55472e-22 0)
(-3.48295e-06 -8.2382e-23 0)
(-3.48293e-06 2.19706e-22 0)
(-3.48293e-06 3.73204e-22 0)
(-3.48293e-06 2.11678e-22 0)
(-3.48292e-06 -1.19359e-22 0)
(-3.49045e-06 1.566e-19 0)
(-3.49045e-06 -3.46785e-20 0)
(-3.49035e-06 8.66076e-21 0)
(-3.49032e-06 -1.39596e-21 0)
(-3.49025e-06 6.78018e-22 0)
(-3.49022e-06 2.45662e-22 0)
(-3.49016e-06 5.03521e-23 0)
(-3.49014e-06 -5.37044e-22 0)
(-3.49008e-06 -8.32546e-22 0)
(-3.49007e-06 -8.12934e-22 0)
(-3.49002e-06 -7.90086e-22 0)
(-3.49002e-06 -9.03299e-22 0)
(-3.48997e-06 -1.36265e-21 0)
(-3.48997e-06 -1.32432e-21 0)
(-3.48993e-06 -8.16564e-22 0)
(-3.48994e-06 -2.27988e-22 0)
(-3.48992e-06 -1.01107e-22 0)
(-3.48992e-06 -1.66409e-22 0)
(-3.48991e-06 -1.92926e-22 0)
(-3.48991e-06 -2.32756e-22 0)
(-3.49777e-06 -3.28566e-19 0)
(-3.49778e-06 6.9835e-20 0)
(-3.49767e-06 -1.61487e-20 0)
(-3.49764e-06 3.67637e-21 0)
(-3.49758e-06 -9.20164e-22 0)
(-3.49754e-06 -5.20758e-22 0)
(-3.49749e-06 -4.2161e-22 0)
(-3.49745e-06 -2.82293e-22 0)
(-3.49741e-06 -5.77826e-22 0)
(-3.49739e-06 -5.9809e-22 0)
(-3.49735e-06 -2.85625e-22 0)
(-3.49733e-06 -4.795e-22 0)
(-3.4973e-06 -7.10316e-22 0)
(-3.49728e-06 -7.44679e-22 0)
(-3.49727e-06 -3.9232e-22 0)
(-3.49725e-06 1.87303e-22 0)
(-3.49724e-06 1.20482e-23 0)
(-3.49724e-06 -5.29098e-22 0)
(-3.49723e-06 -8.03896e-22 0)
(-3.49723e-06 -4.15751e-22 0)
(-3.50561e-06 3.71286e-19 0)
(-3.50561e-06 -7.89553e-20 0)
(-3.50552e-06 1.85144e-20 0)
(-3.50548e-06 -3.98752e-21 0)
(-3.50542e-06 6.62176e-22 0)
(-3.50538e-06 -8.60018e-22 0)
(-3.50533e-06 -1.04795e-21 0)
(-3.50529e-06 -1.19914e-21 0)
(-3.50525e-06 -8.04724e-22 0)
(-3.50522e-06 -2.37828e-22 0)
(-3.50519e-06 -1.31156e-22 0)
(-3.50516e-06 -1.94151e-22 0)
(-3.50514e-06 -1.59373e-22 0)
(-3.50512e-06 -1.23935e-23 0)
(-3.5051e-06 -1.52636e-22 0)
(-3.50509e-06 -1.212e-22 0)
(-3.50508e-06 -2.14361e-23 0)
(-3.50507e-06 -7.25223e-24 0)
(-3.50507e-06 -3.56563e-22 0)
(-3.50507e-06 -1.48842e-22 0)
(-3.51388e-06 -2.21359e-19 0)
(-3.51388e-06 4.80591e-20 0)
(-3.51378e-06 -1.12846e-20 0)
(-3.51375e-06 1.96301e-21 0)
(-3.51368e-06 -1.01212e-21 0)
(-3.51364e-06 -4.29661e-22 0)
(-3.51359e-06 -4.56931e-22 0)
(-3.51356e-06 7.06049e-24 0)
(-3.51352e-06 1.8538e-22 0)
(-3.51349e-06 2.80506e-22 0)
(-3.51345e-06 -8.659e-23 0)
(-3.51343e-06 -4.16844e-22 0)
(-3.5134e-06 -3.78622e-22 0)
(-3.51338e-06 -3.8586e-22 0)
(-3.51337e-06 -9.67077e-22 0)
(-3.51335e-06 -1.00527e-21 0)
(-3.51334e-06 -5.53364e-22 0)
(-3.51334e-06 -1.84232e-22 0)
(-3.51333e-06 -1.46399e-22 0)
(-3.51333e-06 -5.7589e-23 0)
(-3.52217e-06 -9.2834e-20 0)
(-3.52217e-06 2.1267e-20 0)
(-3.52206e-06 -4.36777e-21 0)
(-3.52203e-06 1.15386e-21 0)
(-3.52197e-06 -3.37045e-22 0)
(-3.52193e-06 -1.84407e-23 0)
(-3.52188e-06 1.07521e-22 0)
(-3.52184e-06 4.6095e-22 0)
(-3.5218e-06 3.28634e-22 0)
(-3.52177e-06 8.82486e-23 0)
(-3.52174e-06 5.53724e-25 0)
(-3.52171e-06 9.9459e-23 0)
(-3.52169e-06 -5.08329e-23 0)
(-3.52167e-06 -7.09628e-22 0)
(-3.52165e-06 -1.09901e-21 0)
(-3.52164e-06 -1.09455e-21 0)
(-3.52163e-06 -7.29793e-22 0)
(-3.52162e-06 -4.2817e-22 0)
(-3.52162e-06 4.77343e-23 0)
(-3.52161e-06 3.26401e-23 0)
(-3.52973e-06 3.40107e-19 0)
(-3.52974e-06 -7.10436e-20 0)
(-3.52963e-06 1.73345e-20 0)
(-3.5296e-06 -3.64827e-21 0)
(-3.52953e-06 6.12641e-22 0)
(-3.5295e-06 -2.91398e-22 0)
(-3.52944e-06 -4.29746e-22 0)
(-3.52942e-06 -3.33731e-22 0)
(-3.52936e-06 -1.85071e-22 0)
(-3.52935e-06 -2.79832e-22 0)
(-3.5293e-06 -4.12521e-22 0)
(-3.52929e-06 -5.15005e-22 0)
(-3.52925e-06 -7.26108e-22 0)
(-3.52924e-06 -2.93172e-22 0)
(-3.52921e-06 1.64001e-22 0)
(-3.52921e-06 1.08142e-22 0)
(-3.52919e-06 -2.20498e-22 0)
(-3.52919e-06 -2.0497e-22 0)
(-3.52918e-06 2.20326e-22 0)
(-3.52918e-06 2.71e-22 0)
(-3.5356e-06 -1.30079e-19 0)
(-3.5356e-06 2.55294e-20 0)
(-3.5355e-06 -6.96134e-21 0)
(-3.53547e-06 9.66471e-22 0)
(-3.5354e-06 -7.38294e-22 0)
(-3.53537e-06 -4.08736e-22 0)
(-3.53532e-06 -2.72611e-22 0)
(-3.53528e-06 -2.48676e-22 0)
(-3.53524e-06 -1.61538e-22 0)
(-3.53521e-06 -3.4901e-22 0)
(-3.53518e-06 -4.08433e-22 0)
(-3.53516e-06 -6.33625e-22 0)
(-3.53513e-06 -6.80283e-22 0)
(-3.53511e-06 -2.41493e-22 0)
(-3.53509e-06 1.67484e-22 0)
(-3.53508e-06 4.19694e-22 0)
(-3.53507e-06 -2.19676e-23 0)
(-3.53506e-06 -8.15579e-23 0)
(-3.53506e-06 1.74118e-22 0)
(-3.53506e-06 2.6985e-22 0)
(-3.5383e-06 -2.72535e-19 0)
(-3.5383e-06 5.65837e-20 0)
(-3.5383e-06 -1.41741e-20 0)
(-3.5383e-06 2.91871e-21 0)
(-3.53829e-06 -6.25946e-22 0)
(-3.53829e-06 1.19132e-22 0)
(-3.53829e-06 3.25002e-23 0)
(-3.53829e-06 -3.79208e-22 0)
(-3.53829e-06 -1.928e-22 0)
(-3.53829e-06 -1.2998e-22 0)
(-3.53829e-06 4.76982e-24 0)
(-3.53829e-06 -1.86551e-23 0)
(-3.53829e-06 -9.09015e-23 0)
(-3.53829e-06 -4.472e-22 0)
(-3.53829e-06 -4.13591e-22 0)
(-3.53829e-06 -2.2751e-22 0)
(-3.53829e-06 -2.50293e-22 0)
(-3.53829e-06 2.84629e-23 0)
(-3.53829e-06 2.22543e-22 0)
(-3.53829e-06 1.60515e-22 0)
)
;

boundaryField
{
    movingWall
    {
        type            calculated;
        value           nonuniform List<vector> 
20
(
(-3.5383e-06 -0 -0)
(-3.5383e-06 -0 -0)
(-3.5383e-06 -0 -0)
(-3.5383e-06 -0 -0)
(-3.53829e-06 -0 -0)
(-3.53829e-06 -0 -0)
(-3.53829e-06 -0 -0)
(-3.53829e-06 -0 -0)
(-3.53829e-06 -0 -0)
(-3.53829e-06 -0 -0)
(-3.53829e-06 -0 -0)
(-3.53829e-06 -0 -0)
(-3.53829e-06 -0 -0)
(-3.53829e-06 -0 -0)
(-3.53829e-06 -0 -0)
(-3.53829e-06 -0 -0)
(-3.53829e-06 -0 -0)
(-3.53829e-06 -0 -0)
(-3.53829e-06 -0 -0)
(-3.53829e-06 -0 -0)
)
;
    }
    fixedWalls
    {
        type            calculated;
        value           nonuniform List<vector> 
60
(
(-3.06334e-06 -0 -0)
(-3.10959e-06 -0 -0)
(-3.18389e-06 -0 -0)
(-3.26379e-06 -0 -0)
(-3.33285e-06 -0 -0)
(-3.38463e-06 -0 -0)
(-3.42e-06 -0 -0)
(-3.443e-06 -0 -0)
(-3.45798e-06 -0 -0)
(-3.46834e-06 -0 -0)
(-3.47637e-06 -0 -0)
(-3.48346e-06 -0 -0)
(-3.49045e-06 -0 -0)
(-3.49777e-06 -0 -0)
(-3.50561e-06 -0 -0)
(-3.51388e-06 -0 -0)
(-3.52217e-06 -0 -0)
(-3.52973e-06 -0 -0)
(-3.5356e-06 -0 -0)
(-3.5383e-06 -0 -0)
(-3.06333e-06 -0 -0)
(-3.10918e-06 -0 -0)
(-3.18344e-06 -0 -0)
(-3.26332e-06 -0 -0)
(-3.33236e-06 -0 -0)
(-3.38413e-06 -0 -0)
(-3.41948e-06 -0 -0)
(-3.44248e-06 -0 -0)
(-3.45745e-06 -0 -0)
(-3.46781e-06 -0 -0)
(-3.47583e-06 -0 -0)
(-3.48292e-06 -0 -0)
(-3.48991e-06 -0 -0)
(-3.49723e-06 -0 -0)
(-3.50507e-06 -0 -0)
(-3.51333e-06 -0 -0)
(-3.52161e-06 -0 -0)
(-3.52918e-06 -0 -0)
(-3.53506e-06 -0 -0)
(-3.53829e-06 -0 -0)
(-3.06334e-06 -0 -0)
(-3.06334e-06 -0 -0)
(-3.06334e-06 -0 -0)
(-3.06334e-06 -0 -0)
(-3.06334e-06 -0 -0)
(-3.06333e-06 -0 -0)
(-3.06333e-06 -0 -0)
(-3.06333e-06 -0 -0)
(-3.06333e-06 -0 -0)
(-3.06333e-06 -0 -0)
(-3.06333e-06 -0 -0)
(-3.06333e-06 -0 -0)
(-3.06333e-06 -0 -0)
(-3.06333e-06 -0 -0)
(-3.06333e-06 -0 -0)
(-3.06333e-06 -0 -0)
(-3.06333e-06 -0 -0)
(-3.06333e-06 -0 -0)
(-3.06333e-06 -0 -0)
(-3.06333e-06 -0 -0)
)
;
    }
    frontAndBack
    {
        type            empty;
    }
}


// ************************************************************************* //
