/*--------------------------------*- C++ -*----------------------------------*\
| =========                 |                                                 |
| \\      /  F ield         | OpenFOAM: The Open Source CFD Toolbox           |
|  \\    /   O peration     | Version:  2312                                  |
|   \\  /    A nd           | Website:  www.openfoam.com                      |
|    \\/     M anipulation  |                                                 |
\*---------------------------------------------------------------------------*/
FoamFile
{
    version     2.0;
    format      ascii;
    arch        "LSB;label=32;scalar=64";
    class       volTensorField;
    location    "9";
    object      kU2;
}
// * * * * * * * * * * * * * * * * * * * * * * * * * * * * * * * * * * * * * //

dimensions      [0 4 -4 0 0 0 0];

internalField   nonuniform List<tensor> 
400
(
(3.06334e-06 -3.96017e-19 -0 -3.96613e-19 5.12727e-32 0 -0 0 0)
(3.06334e-06 8.26023e-20 -0 8.31175e-20 2.24125e-33 -0 -0 -0 0)
(3.06334e-06 -2.0071e-20 -0 -2.00375e-20 1.31285e-34 0 -0 0 0)
(3.06334e-06 3.60093e-21 -0 3.5949e-21 4.22579e-36 -0 -0 -0 0)
(3.06334e-06 -1.40598e-21 -0 -1.56112e-21 7.16507e-37 0 -0 0 0)
(3.06333e-06 -1.24333e-22 -0 -1.5117e-22 6.13563e-39 0 -0 0 0)
(3.06333e-06 -1.72831e-22 -0 -2.44006e-22 1.37666e-38 0 -0 0 0)
(3.06333e-06 -1.47094e-22 -0 -9.84045e-23 4.72514e-39 0 -0 0 0)
(3.06333e-06 -1.30925e-22 -0 -8.20081e-23 3.50499e-39 0 -0 0 0)
(3.06333e-06 -1.30159e-22 -0 -1.13307e-22 4.81431e-39 0 -0 0 0)
(3.06333e-06 -1.19661e-22 -0 -9.35418e-23 3.65397e-39 0 -0 0 0)
(3.06333e-06 -1.64653e-22 -0 -9.38494e-23 5.04436e-39 0 -0 0 0)
(3.06333e-06 -7.37578e-23 -0 5.75172e-23 -1.38488e-39 -0 -0 0 0)
(3.06333e-06 -1.03648e-22 -0 -3.87323e-22 1.31051e-38 0 -0 0 0)
(3.06333e-06 -2.29127e-22 -0 -4.99464e-22 3.73583e-38 0 -0 0 0)
(3.06333e-06 -4.88191e-22 -0 -4.65084e-22 7.41187e-38 0 -0 0 0)
(3.06333e-06 -4.01627e-22 -0 -1.27147e-22 1.667e-38 0 -0 0 0)
(3.06333e-06 2.78845e-24 -0 2.66517e-22 2.42602e-40 -0 -0 -0 0)
(3.06333e-06 1.4794e-22 -0 2.25945e-22 1.09118e-38 -0 -0 -0 0)
(3.06333e-06 6.1606e-23 -0 -1.95326e-23 -3.92815e-40 0 -0 -0 0)
(3.10959e-06 -6.6653e-20 -0 -6.56601e-20 1.4074e-33 0 -0 0 0)
(3.1096e-06 1.12009e-20 -0 1.19216e-20 4.29418e-35 -0 -0 -0 0)
(3.10952e-06 -3.94792e-21 -0 -3.4696e-21 4.40508e-36 0 -0 0 0)
(3.10949e-06 -1.33077e-22 -0 3.33413e-22 -1.4269e-38 -0 -0 0 0)
(3.10945e-06 -4.13675e-22 -0 -1.56818e-22 2.08627e-38 0 -0 0 0)
(3.10942e-06 2.88731e-22 -0 4.07568e-22 3.78456e-38 -0 -0 -0 0)
(3.10937e-06 6.56545e-22 -0 4.82915e-22 1.01968e-37 -0 -0 -0 0)
(3.10935e-06 5.52588e-22 -0 1.22028e-22 2.16865e-38 -0 -0 -0 0)
(3.10932e-06 -1.31298e-22 -0 -3.11131e-22 1.31382e-38 0 -0 0 0)
(3.1093e-06 -4.9779e-22 -0 -2.75842e-22 4.41616e-38 0 -0 0 0)
(3.10927e-06 -2.04602e-22 -0 -8.96379e-23 5.89851e-39 0 -0 0 0)
(3.10925e-06 -6.89211e-23 -0 -4.38673e-23 9.72382e-40 0 -0 0 0)
(3.10923e-06 -6.49099e-23 -0 -4.5278e-23 9.45247e-40 0 -0 0 0)
(3.10922e-06 -2.57146e-22 -0 -4.94336e-22 4.08837e-38 0 -0 0 0)
(3.1092e-06 -3.4541e-22 -0 -3.75492e-22 4.17145e-38 0 -0 0 0)
(3.10919e-06 -3.62166e-22 -0 -3.48716e-22 4.06193e-38 0 -0 0 0)
(3.10918e-06 -2.37961e-22 -0 -9.55156e-23 7.31026e-39 0 -0 0 0)
(3.10918e-06 1.35971e-22 -0 3.62947e-22 1.58724e-38 -0 -0 -0 0)
(3.10918e-06 3.36416e-22 -0 5.28072e-22 5.71379e-38 -0 -0 -0 0)
(3.10918e-06 1.78963e-22 -0 1.9867e-22 1.14354e-38 -0 -0 -0 0)
(3.18389e-06 3.33311e-19 -0 3.36825e-19 3.52611e-32 -0 -0 -0 0)
(3.18389e-06 -6.93682e-20 -0 -6.92176e-20 1.50806e-33 0 -0 0 0)
(3.18382e-06 1.64235e-20 -0 1.70642e-20 8.80246e-35 -0 -0 -0 0)
(3.18378e-06 -3.43019e-21 -0 -2.85406e-21 3.07495e-36 0 -0 0 0)
(3.18373e-06 9.51212e-22 -0 1.51346e-21 4.5218e-37 -0 -0 -0 0)
(3.1837e-06 3.03536e-22 -0 3.24711e-22 3.09581e-38 -0 -0 -0 0)
(3.18366e-06 2.84509e-22 -0 1.97627e-22 1.76611e-38 -0 -0 -0 0)
(3.18363e-06 3.18841e-22 -0 -9.93192e-23 -9.94684e-39 0 -0 -0 0)
(3.1836e-06 -9.02796e-24 -0 -7.01139e-23 1.98827e-40 0 -0 0 0)
(3.18357e-06 -3.32693e-22 -0 -5.97908e-23 6.24833e-39 0 -0 0 0)
(3.18355e-06 -1.37693e-23 -0 1.16885e-22 -5.05546e-40 -0 -0 0 0)
(3.18352e-06 3.41194e-22 -0 2.52267e-22 2.70368e-38 -0 -0 -0 0)
(3.18351e-06 3.1946e-22 -0 2.07554e-22 2.08277e-38 -0 -0 -0 0)
(3.18349e-06 2.21451e-22 -0 4.38308e-22 3.04898e-38 -0 -0 -0 0)
(3.18347e-06 2.06728e-22 -0 3.9245e-22 2.54849e-38 -0 -0 -0 0)
(3.18347e-06 3.3259e-22 -0 1.59328e-22 1.66457e-38 -0 -0 -0 0)
(3.18345e-06 1.36038e-22 -0 -3.93749e-23 -1.68261e-39 0 -0 -0 0)
(3.18345e-06 1.3929e-22 -0 2.92676e-23 1.28059e-39 -0 -0 -0 0)
(3.18345e-06 2.09715e-22 -0 2.87081e-22 1.8912e-38 -0 -0 -0 0)
(3.18344e-06 2.4539e-23 -0 3.01054e-22 2.32062e-39 -0 -0 -0 0)
(3.26379e-06 -1.51086e-19 -0 -1.51239e-19 7.00109e-33 0 -0 0 0)
(3.26379e-06 3.30936e-20 -0 3.4045e-20 3.45204e-34 -0 -0 -0 0)
(3.26371e-06 -6.75487e-21 -0 -6.20313e-21 1.28386e-35 0 -0 0 0)
(3.26367e-06 1.92204e-21 -0 2.27843e-21 1.34181e-36 -0 -0 -0 0)
(3.26363e-06 -2.92124e-22 -0 -3.63472e-23 3.2534e-39 0 -0 0 0)
(3.26359e-06 -4.58381e-23 -0 -1.11381e-22 1.56438e-39 0 -0 0 0)
(3.26355e-06 -5.84872e-22 -0 -4.89428e-22 8.77122e-38 0 -0 0 0)
(3.26352e-06 -5.52152e-22 -0 -3.8159e-22 6.45611e-38 0 -0 0 0)
(3.26348e-06 -2.54746e-22 -0 -1.56944e-22 1.2251e-38 0 -0 0 0)
(3.26346e-06 -2.48125e-22 -0 -3.06466e-22 2.33011e-38 0 -0 0 0)
(3.26343e-06 -1.54126e-22 -0 -1.16016e-22 5.47925e-39 0 -0 0 0)
(3.26341e-06 1.23823e-22 -0 -8.37534e-23 -3.17785e-39 0 -0 -0 0)
(3.26338e-06 4.19368e-23 -0 -5.8025e-23 -7.45664e-40 0 -0 -0 0)
(3.26337e-06 1.41484e-22 -0 4.72707e-22 2.04942e-38 -0 -0 -0 0)
(3.26335e-06 5.16282e-22 -0 4.47462e-22 7.07912e-38 -0 -0 -0 0)
(3.26334e-06 4.53382e-22 -0 3.22244e-22 4.47699e-38 -0 -0 -0 0)
(3.26333e-06 2.99234e-22 -0 2.25066e-22 2.06376e-38 -0 -0 -0 0)
(3.26333e-06 1.26759e-22 -0 1.01678e-22 3.94951e-39 -0 -0 -0 0)
(3.26332e-06 -1.65971e-22 -0 -1.41514e-23 7.19731e-40 0 -0 0 0)
(3.26332e-06 -2.31974e-22 -0 1.77852e-22 -1.26427e-38 -0 -0 0 0)
(3.33285e-06 -9.86749e-20 -0 -9.71077e-20 2.87504e-33 0 -0 0 0)
(3.33286e-06 2.27041e-20 -0 2.32087e-20 1.58102e-34 -0 -0 -0 0)
(3.33276e-06 -5.08165e-21 -0 -4.51801e-21 6.88888e-36 0 -0 0 0)
(3.33274e-06 1.39938e-21 -0 1.69791e-21 7.12937e-37 -0 -0 -0 0)
(3.33267e-06 -3.58137e-22 -0 -3.82729e-23 4.1129e-39 0 -0 0 0)
(3.33265e-06 -1.09168e-22 -0 1.46077e-22 -4.78503e-39 -0 -0 0 0)
(3.33259e-06 4.18081e-24 -0 1.99894e-22 2.50771e-40 -0 -0 -0 0)
(3.33257e-06 -5.00523e-24 -0 9.76239e-23 -1.46622e-40 -0 -0 0 0)
(3.33252e-06 -2.91955e-22 -0 -7.03187e-22 6.16047e-38 0 -0 0 0)
(3.33251e-06 -7.76907e-22 -0 -9.70975e-22 2.26363e-37 0 -0 0 0)
(3.33246e-06 -6.63036e-22 -0 -5.47066e-22 1.08846e-37 0 -0 0 0)
(3.33246e-06 -2.1529e-22 -0 -2.92111e-22 1.88716e-38 0 -0 0 0)
(3.33242e-06 -7.8426e-23 -0 -3.95183e-22 9.30033e-39 0 -0 0 0)
(3.33242e-06 -1.88096e-22 -0 -3.14981e-22 1.77789e-38 0 -0 0 0)
(3.33239e-06 1.26883e-23 -0 4.283e-23 1.63078e-40 -0 -0 -0 0)
(3.33239e-06 2.3624e-22 -0 3.80711e-22 2.69893e-38 -0 -0 -0 0)
(3.33237e-06 5.32359e-22 -0 4.96546e-22 7.9325e-38 -0 -0 -0 0)
(3.33237e-06 2.5278e-22 -0 3.8682e-22 2.93426e-38 -0 -0 -0 0)
(3.33236e-06 -1.58269e-22 -0 2.94248e-22 -1.39751e-38 -0 -0 0 0)
(3.33236e-06 -7.63311e-23 -0 2.4628e-22 -5.6413e-39 -0 -0 0 0)
(3.38463e-06 3.05477e-19 -0 3.08105e-19 2.78077e-32 -0 -0 -0 0)
(3.38463e-06 -6.64324e-20 -0 -6.62229e-20 1.2998e-33 0 -0 0 0)
(3.38454e-06 1.49795e-20 -0 1.55051e-20 6.86237e-35 -0 -0 -0 0)
(3.38451e-06 -3.39975e-21 -0 -3.12827e-21 3.14236e-36 0 -0 0 0)
(3.38445e-06 6.58627e-22 -0 9.12335e-22 1.77544e-37 -0 -0 -0 0)
(3.38442e-06 -4.46588e-22 -0 -1.46106e-22 1.92793e-38 0 -0 0 0)
(3.38436e-06 -2.88862e-23 -0 1.13097e-22 -9.6531e-40 -0 -0 0 0)
(3.38434e-06 4.99973e-23 -0 1.52191e-22 2.24833e-39 -0 -0 -0 0)
(3.38429e-06 -2.56602e-22 -0 -1.58911e-22 1.20489e-38 0 -0 0 0)
(3.38428e-06 -3.19992e-22 -0 -2.52227e-22 2.38486e-38 0 -0 0 0)
(3.38423e-06 -4.54606e-23 -0 -3.16557e-22 4.25234e-39 0 -0 0 0)
(3.38423e-06 -1.8727e-22 -0 -2.92267e-22 1.61729e-38 0 -0 0 0)
(3.38418e-06 -6.52353e-23 -0 -1.04534e-22 2.01504e-39 0 -0 0 0)
(3.38418e-06 -1.03508e-23 -0 -3.25486e-22 9.95528e-40 0 -0 0 0)
(3.38415e-06 -2.36978e-22 -0 -4.56855e-22 3.19916e-38 0 -0 0 0)
(3.38415e-06 -5.32289e-23 -0 -5.46019e-23 8.58825e-40 0 -0 0 0)
(3.38413e-06 7.91442e-23 -0 1.31229e-22 3.06903e-39 -0 -0 -0 0)
(3.38413e-06 -2.81976e-23 -0 2.37142e-22 -1.97594e-39 -0 -0 0 0)
(3.38413e-06 7.67863e-23 -0 3.81289e-22 8.65149e-39 -0 -0 -0 0)
(3.38413e-06 2.69822e-23 -0 2.1062e-22 1.67931e-39 -0 -0 -0 0)
(3.42e-06 -3.65636e-19 -0 -3.67629e-19 3.93036e-32 0 -0 0 0)
(3.42e-06 7.58109e-20 -0 7.67385e-20 1.70106e-33 -0 -0 -0 0)
(3.4199e-06 -1.84085e-20 -0 -1.80258e-20 9.70284e-35 0 -0 0 0)
(3.41988e-06 3.73531e-21 -0 4.1997e-21 4.58706e-36 -0 -0 -0 0)
(3.41982e-06 -6.41866e-22 -0 -7.17677e-22 1.34701e-37 0 -0 0 0)
(3.41978e-06 -3.01742e-22 -0 -1.01865e-22 8.98797e-39 0 -0 0 0)
(3.41973e-06 -5.64551e-22 -0 -3.50935e-22 5.79346e-38 0 -0 0 0)
(3.4197e-06 -5.69613e-22 -0 -4.28676e-22 7.14037e-38 0 -0 0 0)
(3.41966e-06 -8.46065e-22 -0 -3.35632e-22 8.30393e-38 0 -0 0 0)
(3.41963e-06 -5.49369e-22 -0 -2.12463e-22 3.41325e-38 0 -0 0 0)
(3.41959e-06 -2.49465e-22 -0 -4.70072e-22 3.42925e-38 0 -0 0 0)
(3.41958e-06 -4.28726e-22 -0 -6.45742e-22 8.09591e-38 0 -0 0 0)
(3.41954e-06 -4.86308e-22 -0 -3.00939e-22 4.27979e-38 0 -0 0 0)
(3.41954e-06 -9.82399e-23 -0 -3.81956e-23 1.09732e-39 0 -0 0 0)
(3.41951e-06 -1.8743e-23 -0 -4.93381e-23 2.70432e-40 0 -0 0 0)
(3.41951e-06 8.41148e-23 -0 7.64153e-23 1.8797e-39 -0 -0 -0 0)
(3.41949e-06 8.93013e-23 -0 2.14518e-22 5.60223e-39 -0 -0 -0 0)
(3.41949e-06 1.76105e-22 -0 3.81305e-22 1.96373e-38 -0 -0 -0 0)
(3.41948e-06 1.95547e-22 -0 2.56446e-22 1.46651e-38 -0 -0 -0 0)
(3.41948e-06 7.70523e-23 -0 1.80274e-22 4.06217e-39 -0 -0 -0 0)
(3.443e-06 8.6802e-20 -0 8.91063e-20 2.24647e-33 -0 -0 -0 0)
(3.443e-06 -1.61101e-20 -0 -1.63011e-20 7.62744e-35 0 -0 0 0)
(3.44291e-06 4.33012e-21 -0 4.58305e-21 5.76405e-36 -0 -0 -0 0)
(3.44287e-06 -6.15876e-22 -0 -5.42834e-22 9.71044e-38 0 -0 0 0)
(3.44282e-06 1.49863e-22 -0 1.1221e-22 4.8844e-39 -0 -0 -0 0)
(3.44278e-06 -1.15186e-22 -0 3.08228e-23 -1.03124e-39 -0 -0 0 0)
(3.44273e-06 -2.35655e-22 -0 1.5892e-23 -1.08781e-39 -0 -0 0 0)
(3.4427e-06 -4.31383e-22 -0 -3.3055e-22 4.14192e-38 0 -0 0 0)
(3.44266e-06 -6.51589e-22 -0 -4.78714e-22 9.06059e-38 0 -0 0 0)
(3.44263e-06 -4.73752e-22 -0 -3.17248e-22 4.36575e-38 0 -0 0 0)
(3.4426e-06 -6.28299e-22 -0 -3.87054e-22 7.06402e-38 0 -0 0 0)
(3.44257e-06 -4.98232e-22 -0 -4.1099e-22 5.94813e-38 0 -0 0 0)
(3.44255e-06 -6.0343e-22 -0 -4.2131e-22 7.38498e-38 0 -0 0 0)
(3.44253e-06 -2.69621e-22 -0 2.05601e-23 -1.61028e-39 -0 -0 0 0)
(3.44252e-06 -1.37659e-23 -0 3.07592e-22 -1.23e-39 -0 -0 0 0)
(3.4425e-06 8.8585e-23 -0 1.42186e-22 3.65884e-39 -0 -0 -0 0)
(3.44249e-06 -8.87696e-23 -0 1.40788e-22 -3.63043e-39 -0 -0 0 0)
(3.44249e-06 1.90982e-22 -0 3.78669e-22 2.10078e-38 -0 -0 -0 0)
(3.44248e-06 1.64332e-22 -0 1.49448e-22 7.13413e-39 -0 -0 -0 0)
(3.44248e-06 6.59121e-23 -0 2.65297e-24 5.07956e-41 -0 -0 -0 0)
(3.45798e-06 3.39656e-19 -0 3.41341e-19 3.35278e-32 -0 -0 -0 0)
(3.45798e-06 -7.24581e-20 -0 -7.26007e-20 1.52126e-33 0 -0 0 0)
(3.45788e-06 1.73178e-20 -0 1.74042e-20 8.71637e-35 -0 -0 -0 0)
(3.45786e-06 -4.19026e-21 -0 -3.78845e-21 4.59088e-36 0 -0 0 0)
(3.45779e-06 5.45358e-22 -0 9.71097e-22 1.5316e-37 -0 -0 -0 0)
(3.45776e-06 2.38548e-22 -0 3.54118e-22 2.44304e-38 -0 -0 -0 0)
(3.45771e-06 4.8434e-22 -0 4.81362e-22 6.74271e-38 -0 -0 -0 0)
(3.45767e-06 3.06654e-22 -0 4.80236e-22 4.25912e-38 -0 -0 -0 0)
(3.45763e-06 4.63193e-22 -0 6.87194e-22 9.20585e-38 -0 -0 -0 0)
(3.45761e-06 6.45845e-22 -0 6.58815e-22 1.2306e-37 -0 -0 -0 0)
(3.45756e-06 2.3712e-22 -0 3.9155e-22 2.68525e-38 -0 -0 -0 0)
(3.45756e-06 -9.56925e-23 -0 -2.74e-23 7.58333e-40 0 -0 0 0)
(3.45751e-06 -4.5938e-22 -0 -4.77462e-22 6.34377e-38 0 -0 0 0)
(3.45751e-06 -7.90076e-22 -0 -5.56217e-22 1.27101e-37 0 -0 0 0)
(3.45748e-06 -6.50905e-22 -0 -1.72294e-22 3.24361e-38 0 -0 0 0)
(3.45748e-06 -1.5485e-22 -0 2.49499e-22 -1.11743e-38 -0 -0 0 0)
(3.45746e-06 -7.00768e-23 -0 4.05769e-23 -8.22425e-40 -0 -0 0 0)
(3.45746e-06 -1.85796e-22 -0 -9.60821e-23 5.16323e-39 0 -0 0 0)
(3.45745e-06 -8.44396e-23 -0 -1.26064e-22 3.07879e-39 0 -0 0 0)
(3.45745e-06 -1.81863e-22 -0 -1.43088e-22 7.52647e-39 0 -0 0 0)
(3.46834e-06 -5.51385e-19 -0 -5.53639e-19 8.80157e-32 0 -0 0 0)
(3.46834e-06 1.17808e-19 -0 1.18418e-19 4.02227e-33 -0 -0 -0 0)
(3.46824e-06 -2.80572e-20 -0 -2.82372e-20 2.28432e-34 0 -0 0 0)
(3.46821e-06 5.26805e-21 -0 5.56374e-21 8.45106e-36 -0 -0 -0 0)
(3.46815e-06 -2.01951e-21 -0 -1.92701e-21 1.1221e-36 0 -0 0 0)
(3.46811e-06 -5.22538e-22 -0 -3.29665e-22 4.96703e-38 0 -0 0 0)
(3.46806e-06 -9.37919e-22 -0 -4.61251e-22 1.24743e-37 0 -0 0 0)
(3.46803e-06 -4.6778e-22 -0 1.24055e-22 -1.6733e-38 -0 -0 0 0)
(3.46799e-06 3.70059e-22 -0 6.4819e-22 6.91665e-38 -0 -0 -0 0)
(3.46796e-06 6.45384e-22 -0 7.83013e-22 1.45718e-37 -0 -0 -0 0)
(3.46793e-06 5.1298e-22 -0 6.29553e-22 9.31243e-38 -0 -0 -0 0)
(3.4679e-06 2.86246e-22 -0 5.20075e-22 4.29278e-38 -0 -0 -0 0)
(3.46787e-06 3.07683e-22 -0 4.03524e-22 3.58022e-38 -0 -0 -0 0)
(3.46786e-06 -1.09015e-22 -0 -8.13439e-23 2.55712e-39 0 -0 0 0)
(3.46784e-06 -5.81408e-22 -0 -3.44172e-22 5.7703e-38 0 -0 0 0)
(3.46783e-06 -6.59483e-22 -0 3.99539e-23 -7.59811e-39 -0 -0 0 0)
(3.46782e-06 1.62853e-22 -0 4.38357e-22 2.05858e-38 -0 -0 -0 0)
(3.46781e-06 2.28261e-22 -0 1.73737e-22 1.14359e-38 -0 -0 -0 0)
(3.46781e-06 -5.77511e-23 -0 -6.75158e-23 1.12437e-39 0 -0 0 0)
(3.46781e-06 -1.33581e-22 -0 3.99266e-23 -1.53799e-39 -0 -0 0 0)
(3.47637e-06 4.5619e-19 -0 4.57857e-19 6.00829e-32 -0 -0 -0 0)
(3.47637e-06 -9.99536e-20 -0 -1.00134e-19 2.87908e-33 0 -0 0 0)
(3.47626e-06 2.34221e-20 -0 2.35381e-20 1.58593e-34 -0 -0 -0 0)
(3.47624e-06 -4.69976e-21 -0 -4.96877e-21 6.71761e-36 0 -0 0 0)
(3.47617e-06 1.00912e-21 -0 1.09503e-21 3.17885e-37 -0 -0 -0 0)
(3.47614e-06 -6.76934e-22 -0 -3.56196e-22 6.93648e-38 0 -0 0 0)
(3.47609e-06 -4.7795e-22 -0 -2.7696e-22 3.8081e-38 0 -0 0 0)
(3.47605e-06 -6.63186e-22 -0 -4.89322e-22 9.33564e-38 0 -0 0 0)
(3.47601e-06 -3.45074e-22 -0 -3.11409e-22 3.09145e-38 0 -0 0 0)
(3.47598e-06 -6.66226e-23 -0 1.5193e-22 -2.91197e-39 -0 -0 0 0)
(3.47595e-06 -5.67527e-23 -0 2.90618e-22 -4.74499e-39 -0 -0 0 0)
(3.47593e-06 -8.66961e-23 -0 3.56113e-22 -8.88212e-39 -0 -0 0 0)
(3.4759e-06 -2.12952e-22 -0 1.98739e-22 -1.21758e-38 -0 -0 0 0)
(3.47588e-06 -1.21044e-22 -0 2.10705e-22 -7.3376e-39 -0 -0 0 0)
(3.47587e-06 -2.30509e-22 -0 -1.62627e-22 1.07849e-38 0 -0 0 0)
(3.47585e-06 -5.70059e-22 -0 -2.92564e-22 4.79822e-38 0 -0 0 0)
(3.47584e-06 -2.49201e-22 -0 1.77871e-22 -1.27525e-38 -0 -0 0 0)
(3.47584e-06 1.93026e-22 -0 1.20238e-22 6.67729e-39 -0 -0 -0 0)
(3.47583e-06 4.75541e-23 -0 1.13503e-23 1.55288e-40 -0 -0 -0 0)
(3.47583e-06 -1.13381e-22 -0 1.50584e-22 -4.91203e-39 -0 -0 0 0)
(3.48346e-06 -1.64113e-19 -0 -1.6467e-19 7.75792e-33 0 -0 0 0)
(3.48347e-06 3.52774e-20 -0 3.5325e-20 3.5774e-34 -0 -0 -0 0)
(3.48336e-06 -8.21678e-21 -0 -8.2665e-21 1.94996e-35 0 -0 0 0)
(3.48333e-06 1.7223e-21 -0 1.83538e-21 9.07488e-37 -0 -0 -0 0)
(3.48327e-06 -2.66421e-22 -0 3.8613e-23 -2.95336e-39 -0 -0 0 0)
(3.48324e-06 7.93451e-23 -0 2.56174e-22 5.83543e-39 -0 -0 -0 0)
(3.48318e-06 1.39717e-23 -0 1.84913e-22 7.41723e-40 -0 -0 -0 0)
(3.48315e-06 2.73345e-22 -0 2.83579e-22 2.22542e-38 -0 -0 -0 0)
(3.4831e-06 3.90725e-22 -0 3.32232e-22 3.72689e-38 -0 -0 -0 0)
(3.48309e-06 2.08201e-22 -0 3.94193e-22 2.35629e-38 -0 -0 -0 0)
(3.48304e-06 -3.72643e-23 -0 5.06825e-22 -5.42241e-39 -0 -0 0 0)
(3.48303e-06 -6.45872e-23 -0 6.84222e-23 -1.26878e-39 -0 -0 0 0)
(3.48299e-06 -4.84841e-22 -0 -1.15221e-22 1.6039e-38 0 -0 0 0)
(3.48298e-06 -5.18823e-22 -0 1.84977e-22 -2.75541e-38 -0 -0 0 0)
(3.48295e-06 -5.57003e-23 -0 2.55472e-22 -4.08557e-39 -0 -0 0 0)
(3.48295e-06 1.5931e-22 -0 8.2382e-23 3.76816e-39 -0 -0 -0 0)
(3.48293e-06 -1.96515e-22 -0 -2.19706e-22 1.23963e-38 0 -0 0 0)
(3.48293e-06 -3.32442e-22 -0 -3.73204e-22 3.5622e-38 0 -0 0 0)
(3.48293e-06 -3.22253e-22 -0 -2.11678e-22 1.95852e-38 0 -0 0 0)
(3.48292e-06 -2.21921e-22 -0 1.19359e-22 -7.60522e-39 -0 -0 0 0)
(3.49045e-06 -1.56414e-19 -0 -1.566e-19 7.01755e-33 0 -0 0 0)
(3.49045e-06 3.47327e-20 -0 3.46785e-20 3.45078e-34 -0 -0 -0 0)
(3.49035e-06 -8.62637e-21 -0 -8.66076e-21 2.1405e-35 0 -0 0 0)
(3.49032e-06 1.1558e-21 -0 1.39596e-21 4.62263e-37 -0 -0 -0 0)
(3.49025e-06 -9.62945e-22 -0 -6.78018e-22 1.87062e-37 0 -0 0 0)
(3.49022e-06 -4.49072e-22 -0 -2.45662e-22 3.16083e-38 0 -0 0 0)
(3.49016e-06 -4.65585e-22 -0 -5.03521e-23 6.71692e-39 0 -0 0 0)
(3.49014e-06 2.50367e-22 -0 5.37044e-22 3.85251e-38 -0 -0 -0 0)
(3.49008e-06 7.38415e-22 -0 8.32546e-22 1.76146e-37 -0 -0 -0 0)
(3.49007e-06 5.36013e-22 -0 8.12934e-22 1.24852e-37 -0 -0 -0 0)
(3.49002e-06 5.58386e-22 -0 7.90086e-22 1.2641e-37 -0 -0 -0 0)
(3.49002e-06 6.32415e-22 -0 9.03299e-22 1.63684e-37 -0 -0 -0 0)
(3.48997e-06 6.6683e-22 -0 1.36265e-21 2.60362e-37 -0 -0 -0 0)
(3.48997e-06 7.80523e-22 -0 1.32432e-21 2.96182e-37 -0 -0 -0 0)
(3.48993e-06 7.59744e-22 -0 8.16564e-22 1.77763e-37 -0 -0 -0 0)
(3.48994e-06 4.37205e-22 -0 2.27988e-22 2.85614e-38 -0 -0 -0 0)
(3.48992e-06 1.6354e-22 -0 1.01107e-22 4.73796e-39 -0 -0 -0 0)
(3.48992e-06 2.22788e-23 -0 1.66409e-22 1.06231e-39 -0 -0 -0 0)
(3.48991e-06 1.89157e-23 -0 1.92926e-22 1.04568e-39 -0 -0 -0 0)
(3.48991e-06 6.04298e-24 -0 2.32756e-22 4.03031e-40 -0 -0 -0 0)
(3.49777e-06 3.27192e-19 -0 3.28566e-19 3.0735e-32 -0 -0 -0 0)
(3.49778e-06 -6.93502e-20 -0 -6.9835e-20 1.38461e-33 0 -0 0 0)
(3.49767e-06 1.58942e-20 -0 1.61487e-20 7.33831e-35 -0 -0 -0 0)
(3.49764e-06 -4.03655e-21 -0 -3.67637e-21 4.24282e-36 0 -0 0 0)
(3.49758e-06 2.66216e-22 -0 9.20164e-22 7.00376e-38 -0 -0 -0 0)
(3.49754e-06 1.257e-22 -0 5.20758e-22 1.87158e-38 -0 -0 -0 0)
(3.49749e-06 7.32649e-22 -0 4.2161e-22 8.83183e-38 -0 -0 -0 0)
(3.49745e-06 2.73562e-22 -0 2.82293e-22 2.20803e-38 -0 -0 -0 0)
(3.49741e-06 2.39582e-22 -0 5.77826e-22 3.95827e-38 -0 -0 -0 0)
(3.49739e-06 1.98385e-22 -0 5.9809e-22 3.39259e-38 -0 -0 -0 0)
(3.49735e-06 2.08414e-22 -0 2.85625e-22 1.7021e-38 -0 -0 -0 0)
(3.49733e-06 3.74489e-23 -0 4.795e-22 5.13442e-39 -0 -0 -0 0)
(3.4973e-06 2.95771e-22 -0 7.10316e-22 6.00723e-38 -0 -0 -0 0)
(3.49728e-06 5.57584e-22 -0 7.44679e-22 1.18727e-37 -0 -0 -0 0)
(3.49727e-06 3.45704e-22 -0 3.9232e-22 3.87808e-38 -0 -0 -0 0)
(3.49725e-06 -7.54015e-24 -0 -1.87303e-22 4.03829e-40 0 -0 0 0)
(3.49724e-06 -1.45411e-22 -0 -1.20482e-23 5.00953e-40 0 -0 0 0)
(3.49724e-06 1.45019e-22 -0 5.29098e-22 2.194e-38 -0 -0 -0 0)
(3.49723e-06 5.46469e-22 -0 8.03896e-22 1.25615e-37 -0 -0 -0 0)
(3.49723e-06 2.34205e-22 -0 4.15751e-22 2.78423e-38 -0 -0 -0 0)
(3.50561e-06 -3.68378e-19 -0 -3.71286e-19 3.90155e-32 0 -0 0 0)
(3.50561e-06 7.84172e-20 -0 7.89553e-20 1.76615e-33 -0 -0 -0 0)
(3.50552e-06 -1.87607e-20 -0 -1.85144e-20 9.90848e-35 0 -0 0 0)
(3.50548e-06 3.63881e-21 -0 3.98752e-21 4.13918e-36 -0 -0 -0 0)
(3.50542e-06 -8.85942e-22 -0 -6.62176e-22 1.67355e-37 0 -0 0 0)
(3.50538e-06 5.86842e-22 -0 8.60018e-22 1.43977e-37 -0 -0 -0 0)
(3.50533e-06 8.61287e-22 -0 1.04795e-21 2.57489e-37 -0 -0 -0 0)
(3.50529e-06 9.32027e-22 -0 1.19914e-21 3.18841e-37 -0 -0 -0 0)
(3.50525e-06 5.73802e-22 -0 8.04724e-22 1.31731e-37 -0 -0 -0 0)
(3.50522e-06 1.91369e-22 -0 2.37828e-22 1.29843e-38 -0 -0 -0 0)
(3.50519e-06 -5.25578e-24 -0 1.31156e-22 -1.9666e-40 -0 -0 0 0)
(3.50516e-06 -9.23603e-23 -0 1.94151e-22 -5.11583e-39 -0 -0 0 0)
(3.50514e-06 2.18325e-22 -0 1.59373e-22 9.92686e-39 -0 -0 -0 0)
(3.50512e-06 3.51016e-23 -0 1.23935e-23 1.24113e-40 -0 -0 -0 0)
(3.5051e-06 -1.50321e-22 -0 1.52636e-22 -6.546e-39 -0 -0 0 0)
(3.50509e-06 -2.23906e-22 -0 1.212e-22 -7.74228e-39 -0 -0 0 0)
(3.50508e-06 -1.12511e-22 -0 2.14361e-23 -6.88084e-40 -0 -0 0 0)
(3.50507e-06 -1.17595e-22 -0 7.25223e-24 -2.43312e-40 -0 -0 0 0)
(3.50507e-06 2.181e-22 -0 3.56563e-22 2.21869e-38 -0 -0 -0 0)
(3.50507e-06 6.96602e-23 -0 1.48842e-22 2.95811e-39 -0 -0 -0 0)
(3.51388e-06 2.21115e-19 -0 2.21359e-19 1.39293e-32 -0 -0 -0 0)
(3.51388e-06 -4.83307e-20 -0 -4.80591e-20 6.61015e-34 0 -0 0 0)
(3.51378e-06 1.10609e-20 -0 1.12846e-20 3.55225e-35 -0 -0 -0 0)
(3.51375e-06 -1.94125e-21 -0 -1.96301e-21 1.08451e-36 0 -0 0 0)
(3.51368e-06 1.05987e-21 -0 1.01212e-21 3.053e-37 -0 -0 -0 0)
(3.51364e-06 3.14832e-22 -0 4.29661e-22 3.84988e-38 -0 -0 -0 0)
(3.51359e-06 2.67331e-22 -0 4.56931e-22 3.47655e-38 -0 -0 -0 0)
(3.51356e-06 1.44486e-23 -0 -7.06049e-24 -2.90344e-41 0 -0 -0 0)
(3.51352e-06 -3.49938e-22 -0 -1.8538e-22 1.84633e-38 0 -0 0 0)
(3.51349e-06 -2.19563e-22 -0 -2.80506e-22 1.75293e-38 0 -0 0 0)
(3.51345e-06 -5.7921e-24 -0 8.659e-23 -1.42748e-40 -0 -0 0 0)
(3.51343e-06 1.45144e-22 -0 4.16844e-22 1.72203e-38 -0 -0 -0 0)
(3.5134e-06 2.83527e-22 -0 3.78622e-22 3.05543e-38 -0 -0 -0 0)
(3.51338e-06 1.90125e-22 -0 3.8586e-22 2.08807e-38 -0 -0 -0 0)
(3.51337e-06 5.02922e-22 -0 9.67077e-22 1.38432e-37 -0 -0 -0 0)
(3.51335e-06 7.90739e-22 -0 1.00527e-21 2.26253e-37 -0 -0 -0 0)
(3.51334e-06 5.58969e-22 -0 5.53364e-22 8.80396e-38 -0 -0 -0 0)
(3.51334e-06 2.6901e-22 -0 1.84232e-22 1.41063e-38 -0 -0 -0 0)
(3.51333e-06 2.59276e-22 -0 1.46399e-22 1.08039e-38 -0 -0 -0 0)
(3.51333e-06 8.74137e-23 -0 5.7589e-23 1.43285e-39 -0 -0 -0 0)
(3.52217e-06 9.33042e-20 -0 9.2834e-20 2.45923e-33 -0 -0 -0 0)
(3.52217e-06 -2.14112e-20 -0 -2.1267e-20 1.29281e-34 0 -0 0 0)
(3.52206e-06 4.09498e-21 -0 4.36777e-21 5.07826e-36 -0 -0 -0 0)
(3.52203e-06 -1.20584e-21 -0 -1.15386e-21 3.95047e-37 0 -0 0 0)
(3.52197e-06 3.25955e-22 -0 3.37045e-22 3.11932e-38 -0 -0 -0 0)
(3.52193e-06 3.28557e-24 -0 1.84407e-23 1.72032e-41 -0 -0 -0 0)
(3.52188e-06 -2.27866e-22 -0 -1.07521e-22 6.95661e-39 0 -0 0 0)
(3.52184e-06 -4.24097e-22 -0 -4.6095e-22 5.55072e-38 0 -0 0 0)
(3.5218e-06 -4.70462e-22 -0 -3.28634e-22 4.39007e-38 0 -0 0 0)
(3.52177e-06 -1.57229e-22 -0 -8.82486e-23 3.93984e-39 0 -0 0 0)
(3.52174e-06 -1.08816e-22 -0 -5.53724e-25 1.71092e-41 0 -0 0 0)
(3.52171e-06 -1.31333e-22 -0 -9.9459e-23 3.70906e-39 0 -0 0 0)
(3.52169e-06 -9.76919e-23 -0 5.08329e-23 -1.41011e-39 -0 -0 0 0)
(3.52167e-06 3.96055e-22 -0 7.09628e-22 7.98064e-38 -0 -0 -0 0)
(3.52165e-06 9.99785e-22 -0 1.09901e-21 3.12006e-37 -0 -0 -0 0)
(3.52164e-06 1.02303e-21 -0 1.09455e-21 3.17965e-37 -0 -0 -0 0)
(3.52163e-06 6.29759e-22 -0 7.29793e-22 1.30506e-37 -0 -0 -0 0)
(3.52162e-06 5.73016e-22 -0 4.2817e-22 6.96692e-38 -0 -0 -0 0)
(3.52162e-06 2.45934e-22 -0 -4.77343e-23 -3.33355e-39 0 -0 -0 0)
(3.52161e-06 6.9455e-24 -0 -3.26401e-23 -6.43744e-41 0 -0 -0 0)
(3.52973e-06 -3.37777e-19 -0 -3.40107e-19 3.25464e-32 0 -0 0 0)
(3.52974e-06 7.06802e-20 -0 7.10436e-20 1.42259e-33 -0 -0 -0 0)
(3.52963e-06 -1.7587e-20 -0 -1.73345e-20 8.63724e-35 0 -0 0 0)
(3.5296e-06 3.33623e-21 -0 3.64827e-21 3.44839e-36 -0 -0 -0 0)
(3.52953e-06 -6.21785e-22 -0 -6.12641e-22 1.07927e-37 0 -0 0 0)
(3.5295e-06 3.36335e-22 -0 2.91398e-22 2.77681e-38 -0 -0 -0 0)
(3.52944e-06 7.21843e-23 -0 4.29746e-22 8.78917e-39 -0 -0 -0 0)
(3.52942e-06 2.45454e-22 -0 3.33731e-22 2.32094e-38 -0 -0 -0 0)
(3.52936e-06 1.11328e-22 -0 1.85071e-22 5.83777e-39 -0 -0 -0 0)
(3.52935e-06 1.049e-22 -0 2.79832e-22 8.31722e-39 -0 -0 -0 0)
(3.5293e-06 2.8555e-22 -0 4.12521e-22 3.33765e-38 -0 -0 -0 0)
(3.52929e-06 4.81763e-22 -0 5.15005e-22 7.03003e-38 -0 -0 -0 0)
(3.52925e-06 7.86573e-22 -0 7.26108e-22 1.6183e-37 -0 -0 -0 0)
(3.52924e-06 6.57898e-22 -0 2.93172e-22 5.46511e-38 -0 -0 -0 0)
(3.52921e-06 1.70572e-22 -0 -1.64001e-22 -7.92642e-39 0 -0 -0 0)
(3.52921e-06 -2.8136e-22 -0 -1.08142e-22 8.6214e-39 0 -0 0 0)
(3.52919e-06 -2.10491e-22 -0 2.20498e-22 -1.31511e-38 -0 -0 0 0)
(3.52919e-06 1.07821e-22 -0 2.0497e-22 6.26212e-39 -0 -0 -0 0)
(3.52918e-06 1.18363e-22 -0 -2.20326e-22 -7.38936e-39 0 -0 -0 0)
(3.52918e-06 -1.1204e-22 -0 -2.71e-22 8.60341e-39 0 -0 0 0)
(3.5356e-06 1.29237e-19 -0 1.30079e-19 4.75482e-33 -0 -0 -0 0)
(3.5356e-06 -2.54029e-20 -0 -2.55294e-20 1.83426e-34 0 -0 0 0)
(3.5355e-06 7.09415e-21 -0 6.96134e-21 1.39683e-35 -0 -0 -0 0)
(3.53547e-06 -7.5491e-22 -0 -9.66471e-22 2.06366e-37 0 -0 0 0)
(3.5354e-06 7.46048e-22 -0 7.38294e-22 1.55796e-37 -0 -0 -0 0)
(3.53537e-06 4.36795e-22 -0 4.08736e-22 5.04993e-38 -0 -0 -0 0)
(3.53532e-06 3.48148e-22 -0 2.72611e-22 2.68459e-38 -0 -0 -0 0)
(3.53528e-06 2.01326e-22 -0 2.48676e-22 1.41615e-38 -0 -0 -0 0)
(3.53524e-06 -1.00408e-23 -0 1.61538e-22 -4.58802e-40 -0 -0 0 0)
(3.53521e-06 1.87729e-22 -0 3.4901e-22 1.85334e-38 -0 -0 -0 0)
(3.53518e-06 3.71277e-22 -0 4.08433e-22 4.28951e-38 -0 -0 -0 0)
(3.53516e-06 4.68933e-22 -0 6.33625e-22 8.40493e-38 -0 -0 -0 0)
(3.53513e-06 6.65594e-22 -0 6.80283e-22 1.28084e-37 -0 -0 -0 0)
(3.53511e-06 4.36231e-22 -0 2.41493e-22 2.98001e-38 -0 -0 -0 0)
(3.53509e-06 -1.00131e-23 -0 -1.67484e-22 4.74395e-40 0 -0 0 0)
(3.53508e-06 -1.67239e-22 -0 -4.19694e-22 1.98551e-38 0 -0 0 0)
(3.53507e-06 -2.92902e-22 -0 2.19676e-23 -1.82015e-39 -0 -0 0 0)
(3.53506e-06 -1.28016e-22 -0 8.15579e-23 -2.95347e-39 -0 -0 0 0)
(3.53506e-06 4.121e-23 -0 -1.74118e-22 -2.02978e-39 0 -0 -0 0)
(3.53506e-06 -4.74788e-23 -0 -2.6985e-22 3.62432e-39 0 -0 0 0)
(3.5383e-06 2.71651e-19 -0 2.72535e-19 2.09237e-32 -0 -0 -0 0)
(3.5383e-06 -5.63449e-20 -0 -5.65837e-20 9.01057e-34 0 -0 0 0)
(3.5383e-06 1.43254e-20 -0 1.41741e-20 5.73865e-35 -0 -0 -0 0)
(3.5383e-06 -2.57578e-21 -0 -2.91871e-21 2.12474e-36 0 -0 0 0)
(3.53829e-06 7.01633e-22 -0 6.25946e-22 1.24123e-37 -0 -0 -0 0)
(3.53829e-06 -1.30467e-22 -0 -1.19132e-22 4.39274e-39 0 -0 0 0)
(3.53829e-06 7.21911e-23 -0 -3.25002e-23 -6.63095e-40 0 -0 -0 0)
(3.53829e-06 2.07e-22 -0 3.79208e-22 2.21847e-38 -0 -0 -0 0)
(3.53829e-06 1.90757e-22 -0 1.928e-22 1.03942e-38 -0 -0 -0 0)
(3.53829e-06 1.38384e-22 -0 1.2998e-22 5.08357e-39 -0 -0 -0 0)
(3.53829e-06 8.28425e-25 -0 -4.76982e-24 -1.11676e-42 0 -0 -0 0)
(3.53829e-06 -2.92849e-23 -0 1.86551e-23 -1.544e-40 -0 -0 0 0)
(3.53829e-06 -1.35547e-23 -0 9.09015e-23 -3.48232e-40 -0 -0 0 0)
(3.53829e-06 2.04104e-22 -0 4.472e-22 2.57965e-38 -0 -0 -0 0)
(3.53829e-06 3.8396e-22 -0 4.13591e-22 4.48811e-38 -0 -0 -0 0)
(3.53829e-06 3.68251e-22 -0 2.2751e-22 2.36783e-38 -0 -0 -0 0)
(3.53829e-06 1.89566e-22 -0 2.50293e-22 1.34096e-38 -0 -0 -0 0)
(3.53829e-06 8.32421e-23 -0 -2.84629e-23 -6.69621e-40 0 -0 -0 0)
(3.53829e-06 -7.19258e-23 -0 -2.22543e-22 4.52382e-39 0 -0 0 0)
(3.53829e-06 -6.85059e-23 -0 -1.60515e-22 3.10779e-39 0 -0 0 0)
)
;

boundaryField
{
    movingWall
    {
        type            calculated;
        value           nonuniform List<tensor> 
20
(
(3.5383e-06 0 0 0 0 0 0 0 0)
(3.5383e-06 0 0 0 0 0 0 0 0)
(3.5383e-06 0 0 0 0 0 0 0 0)
(3.5383e-06 0 0 0 0 0 0 0 0)
(3.53829e-06 0 0 0 0 0 0 0 0)
(3.53829e-06 0 0 0 0 0 0 0 0)
(3.53829e-06 0 0 0 0 0 0 0 0)
(3.53829e-06 0 0 0 0 0 0 0 0)
(3.53829e-06 0 0 0 0 0 0 0 0)
(3.53829e-06 0 0 0 0 0 0 0 0)
(3.53829e-06 0 0 0 0 0 0 0 0)
(3.53829e-06 0 0 0 0 0 0 0 0)
(3.53829e-06 0 0 0 0 0 0 0 0)
(3.53829e-06 0 0 0 0 0 0 0 0)
(3.53829e-06 0 0 0 0 0 0 0 0)
(3.53829e-06 0 0 0 0 0 0 0 0)
(3.53829e-06 0 0 0 0 0 0 0 0)
(3.53829e-06 0 0 0 0 0 0 0 0)
(3.53829e-06 0 0 0 0 0 0 0 0)
(3.53829e-06 0 0 0 0 0 0 0 0)
)
;
    }
    fixedWalls
    {
        type            calculated;
        value           nonuniform List<tensor> 
60
(
(3.06334e-06 0 0 0 0 0 0 0 0)
(3.10959e-06 0 0 0 0 0 0 0 0)
(3.18389e-06 0 0 0 0 0 0 0 0)
(3.26379e-06 0 0 0 0 0 0 0 0)
(3.33285e-06 0 0 0 0 0 0 0 0)
(3.38463e-06 0 0 0 0 0 0 0 0)
(3.42e-06 0 0 0 0 0 0 0 0)
(3.443e-06 0 0 0 0 0 0 0 0)
(3.45798e-06 0 0 0 0 0 0 0 0)
(3.46834e-06 0 0 0 0 0 0 0 0)
(3.47637e-06 0 0 0 0 0 0 0 0)
(3.48346e-06 0 0 0 0 0 0 0 0)
(3.49045e-06 0 0 0 0 0 0 0 0)
(3.49777e-06 0 0 0 0 0 0 0 0)
(3.50561e-06 0 0 0 0 0 0 0 0)
(3.51388e-06 0 0 0 0 0 0 0 0)
(3.52217e-06 0 0 0 0 0 0 0 0)
(3.52973e-06 0 0 0 0 0 0 0 0)
(3.5356e-06 0 0 0 0 0 0 0 0)
(3.5383e-06 0 0 0 0 0 0 0 0)
(3.06333e-06 0 0 0 0 0 0 0 0)
(3.10918e-06 0 0 0 0 0 0 0 0)
(3.18344e-06 0 0 0 0 0 0 0 0)
(3.26332e-06 0 0 0 0 0 0 0 0)
(3.33236e-06 0 0 0 0 0 0 0 0)
(3.38413e-06 0 0 0 0 0 0 0 0)
(3.41948e-06 0 0 0 0 0 0 0 0)
(3.44248e-06 0 0 0 0 0 0 0 0)
(3.45745e-06 0 0 0 0 0 0 0 0)
(3.46781e-06 0 0 0 0 0 0 0 0)
(3.47583e-06 0 0 0 0 0 0 0 0)
(3.48292e-06 0 0 0 0 0 0 0 0)
(3.48991e-06 0 0 0 0 0 0 0 0)
(3.49723e-06 0 0 0 0 0 0 0 0)
(3.50507e-06 0 0 0 0 0 0 0 0)
(3.51333e-06 0 0 0 0 0 0 0 0)
(3.52161e-06 0 0 0 0 0 0 0 0)
(3.52918e-06 0 0 0 0 0 0 0 0)
(3.53506e-06 0 0 0 0 0 0 0 0)
(3.53829e-06 0 0 0 0 0 0 0 0)
(3.06334e-06 0 0 0 0 0 0 0 0)
(3.06334e-06 0 0 0 0 0 0 0 0)
(3.06334e-06 0 0 0 0 0 0 0 0)
(3.06334e-06 0 0 0 0 0 0 0 0)
(3.06334e-06 0 0 0 0 0 0 0 0)
(3.06333e-06 0 0 0 0 0 0 0 0)
(3.06333e-06 0 0 0 0 0 0 0 0)
(3.06333e-06 0 0 0 0 0 0 0 0)
(3.06333e-06 0 0 0 0 0 0 0 0)
(3.06333e-06 0 0 0 0 0 0 0 0)
(3.06333e-06 0 0 0 0 0 0 0 0)
(3.06333e-06 0 0 0 0 0 0 0 0)
(3.06333e-06 0 0 0 0 0 0 0 0)
(3.06333e-06 0 0 0 0 0 0 0 0)
(3.06333e-06 0 0 0 0 0 0 0 0)
(3.06333e-06 0 0 0 0 0 0 0 0)
(3.06333e-06 0 0 0 0 0 0 0 0)
(3.06333e-06 0 0 0 0 0 0 0 0)
(3.06333e-06 0 0 0 0 0 0 0 0)
(3.06333e-06 0 0 0 0 0 0 0 0)
)
;
    }
    frontAndBack
    {
        type            empty;
    }
}


// ************************************************************************* //
