/*--------------------------------*- C++ -*----------------------------------*\
| =========                 |                                                 |
| \\      /  F ield         | OpenFOAM: The Open Source CFD Toolbox           |
|  \\    /   O peration     | Version:  2312                                  |
|   \\  /    A nd           | Website:  www.openfoam.com                      |
|    \\/     M anipulation  |                                                 |
\*---------------------------------------------------------------------------*/
FoamFile
{
    version     2.0;
    format      ascii;
    arch        "LSB;label=32;scalar=64";
    class       volScalarField;
    location    "9";
    object      L_P;
}
// * * * * * * * * * * * * * * * * * * * * * * * * * * * * * * * * * * * * * //

dimensions      [0 0 0 0 0 0 0];

internalField   nonuniform List<scalar> 
400
(
-207.542
-207.542
-207.542
-207.542
-207.542
-207.542
-207.542
-207.542
-207.542
-207.542
-207.542
-207.542
-207.542
-207.542
-207.542
-207.542
-207.542
-207.542
-207.542
-207.542
-207.281
-207.327
-207.324
-207.322
-207.319
-207.317
-207.314
-207.313
-207.31
-207.308
-207.305
-207.303
-207.3
-207.298
-207.295
-207.293
-207.29
-207.288
-207.286
-207.284
-206.871
-206.918
-206.914
-206.913
-206.909
-206.908
-206.905
-206.903
-206.9
-206.898
-206.895
-206.893
-206.89
-206.888
-206.885
-206.883
-206.88
-206.878
-206.876
-206.873
-206.44
-206.488
-206.484
-206.482
-206.479
-206.478
-206.474
-206.473
-206.469
-206.468
-206.464
-206.463
-206.459
-206.457
-206.454
-206.452
-206.449
-206.447
-206.445
-206.443
-206.076
-206.125
-206.121
-206.119
-206.116
-206.114
-206.111
-206.109
-206.106
-206.104
-206.101
-206.099
-206.096
-206.094
-206.09
-206.089
-206.085
-206.083
-206.082
-206.079
-205.808
-205.857
-205.853
-205.852
-205.848
-205.847
-205.843
-205.842
-205.838
-205.836
-205.833
-205.831
-205.828
-205.826
-205.823
-205.821
-205.817
-205.815
-205.814
-205.811
-205.628
-205.677
-205.673
-205.671
-205.668
-205.666
-205.663
-205.661
-205.658
-205.656
-205.653
-205.651
-205.647
-205.646
-205.642
-205.64
-205.637
-205.635
-205.633
-205.63
-205.511
-205.561
-205.556
-205.555
-205.552
-205.55
-205.547
-205.545
-205.541
-205.54
-205.536
-205.534
-205.531
-205.529
-205.526
-205.524
-205.52
-205.518
-205.517
-205.514
-205.436
-205.485
-205.481
-205.48
-205.476
-205.475
-205.471
-205.469
-205.466
-205.464
-205.461
-205.459
-205.456
-205.454
-205.45
-205.448
-205.445
-205.443
-205.441
-205.439
-205.384
-205.433
-205.429
-205.428
-205.424
-205.423
-205.419
-205.418
-205.414
-205.412
-205.409
-205.407
-205.404
-205.402
-205.398
-205.397
-205.393
-205.391
-205.389
-205.387
-205.344
-205.393
-205.389
-205.388
-205.384
-205.383
-205.379
-205.377
-205.374
-205.372
-205.369
-205.367
-205.364
-205.362
-205.358
-205.356
-205.353
-205.351
-205.349
-205.347
-205.308
-205.358
-205.354
-205.352
-205.349
-205.347
-205.344
-205.342
-205.339
-205.337
-205.334
-205.332
-205.328
-205.326
-205.323
-205.321
-205.318
-205.316
-205.314
-205.311
-205.274
-205.323
-205.319
-205.317
-205.314
-205.312
-205.309
-205.307
-205.304
-205.302
-205.299
-205.297
-205.293
-205.292
-205.288
-205.286
-205.283
-205.281
-205.279
-205.276
-205.237
-205.287
-205.283
-205.281
-205.278
-205.276
-205.273
-205.271
-205.267
-205.266
-205.262
-205.26
-205.257
-205.255
-205.252
-205.25
-205.246
-205.244
-205.243
-205.24
-205.198
-205.248
-205.244
-205.242
-205.239
-205.237
-205.234
-205.232
-205.229
-205.227
-205.223
-205.222
-205.218
-205.216
-205.213
-205.211
-205.207
-205.205
-205.204
-205.201
-205.157
-205.207
-205.203
-205.201
-205.198
-205.196
-205.193
-205.191
-205.188
-205.186
-205.183
-205.181
-205.177
-205.175
-205.172
-205.17
-205.167
-205.165
-205.163
-205.16
-205.116
-205.166
-205.162
-205.16
-205.157
-205.155
-205.152
-205.15
-205.147
-205.145
-205.142
-205.14
-205.136
-205.134
-205.131
-205.129
-205.126
-205.124
-205.122
-205.119
-205.079
-205.129
-205.125
-205.123
-205.12
-205.118
-205.115
-205.113
-205.11
-205.108
-205.104
-205.102
-205.099
-205.097
-205.094
-205.092
-205.088
-205.086
-205.085
-205.082
-205.05
-205.099
-205.095
-205.094
-205.09
-205.089
-205.085
-205.084
-205.08
-205.079
-205.075
-205.073
-205.07
-205.068
-205.065
-205.063
-205.059
-205.057
-205.056
-205.053
-205.037
-205.037
-205.037
-205.037
-205.037
-205.037
-205.037
-205.037
-205.037
-205.037
-205.037
-205.037
-205.037
-205.037
-205.037
-205.037
-205.037
-205.037
-205.037
-205.037
)
;

boundaryField
{
    movingWall
    {
        type            calculated;
        value           nonuniform List<scalar> 
20
(
-205.037
-205.037
-205.037
-205.037
-205.037
-205.037
-205.037
-205.037
-205.037
-205.037
-205.037
-205.037
-205.037
-205.037
-205.037
-205.037
-205.037
-205.037
-205.037
-205.037
)
;
    }
    fixedWalls
    {
        type            calculated;
        value           nonuniform List<scalar> 
60
(
-207.542
-207.281
-206.871
-206.44
-206.076
-205.808
-205.628
-205.511
-205.436
-205.384
-205.344
-205.308
-205.274
-205.237
-205.198
-205.157
-205.116
-205.079
-205.05
-205.037
-207.542
-207.284
-206.873
-206.443
-206.079
-205.811
-205.63
-205.514
-205.439
-205.387
-205.347
-205.311
-205.276
-205.24
-205.201
-205.16
-205.119
-205.082
-205.053
-205.037
-207.542
-207.542
-207.542
-207.542
-207.542
-207.542
-207.542
-207.542
-207.542
-207.542
-207.542
-207.542
-207.542
-207.542
-207.542
-207.542
-207.542
-207.542
-207.542
-207.542
)
;
    }
    frontAndBack
    {
        type            empty;
    }
}


// ************************************************************************* //
