/*--------------------------------*- C++ -*----------------------------------*\
| =========                 |                                                 |
| \\      /  F ield         | OpenFOAM: The Open Source CFD Toolbox           |
|  \\    /   O peration     | Version:  2312                                  |
|   \\  /    A nd           | Website:  www.openfoam.com                      |
|    \\/     M anipulation  |                                                 |
\*---------------------------------------------------------------------------*/
FoamFile
{
    version     2.0;
    format      ascii;
    arch        "LSB;label=32;scalar=64";
    class       volVectorField;
    location    "9";
    object      LambVectorField;
}
// * * * * * * * * * * * * * * * * * * * * * * * * * * * * * * * * * * * * * //

dimensions      [0 1 -2 0 0 0 0];

internalField   nonuniform List<vector> 
400
(
(-1.23725e-24 -9.55617e-12 -9.55617e-12)
(-3.25455e-25 1.19948e-11 -0)
(-1.73348e-26 -2.65015e-12 -2.65015e-12)
(-6.75997e-28 5.76039e-13 -0)
(-7.61323e-29 -1.49392e-13 -1.49392e-13)
(2.12177e-30 4.29959e-14 0)
(2.29622e-30 2.88275e-14 2.88275e-14)
(1.69877e-31 5.28828e-15 0)
(7.12603e-31 2.66186e-14 2.66186e-14)
(-1.39262e-32 -3.76507e-16 0)
(1.93953e-32 6.35162e-16 6.35162e-16)
(-1.50973e-30 -4.92789e-14 0)
(1.19773e-30 -6.37903e-14 -6.37903e-14)
(-2.29892e-30 -1.81822e-14 0)
(-4.13887e-31 -2.53847e-15 -2.53847e-15)
(1.84525e-30 1.2154e-14 0)
(-1.25878e-30 -3.03276e-14 -3.03276e-14)
(-1.00283e-30 1.15264e-14 -0)
(6.88743e-31 -9.33787e-15 -9.33787e-15)
(-4.29643e-32 -6.73818e-15 0)
(-2.44716e-26 -1.15895e-12 -1.15895e-12)
(-6.31652e-27 1.64759e-12 -0)
(-5.6703e-28 -5.08183e-13 -5.08183e-13)
(-8.51697e-30 7.94315e-14 -0)
(-1.24669e-30 -2.47199e-14 -2.47199e-14)
(4.40884e-30 -3.36359e-14 -0)
(5.63587e-30 -3.62881e-14 -3.62881e-14)
(4.19347e-30 -1.06852e-13 -0)
(-9.41715e-30 -9.41112e-14 -9.41112e-14)
(-6.58194e-30 -7.41917e-14 0)
(-2.12917e-30 -7.38545e-14 -7.38545e-14)
(-3.62286e-31 -2.56784e-14 0)
(-6.05699e-31 -4.15932e-14 -4.15932e-14)
(-1.03075e-29 -6.48306e-14 0)
(5.65604e-31 4.6834e-15 4.6834e-15)
(4.04995e-30 3.61098e-14 0)
(4.03388e-30 1.31309e-13 1.31309e-13)
(-8.66941e-30 7.42665e-14 -0)
(8.97383e-31 -5.2836e-15 -5.2836e-15)
(1.49356e-30 -2.33741e-14 -0)
(-5.82356e-25 5.50481e-12 5.50481e-12)
(-1.94765e-25 -8.95887e-12 0)
(-1.21884e-26 2.27409e-12 2.27409e-12)
(-3.16358e-28 -3.52906e-13 0)
(-1.24772e-28 2.62473e-13 2.62473e-13)
(-6.84268e-30 6.70905e-14 -0)
(-2.53835e-30 4.08913e-14 4.08913e-14)
(3.12001e-30 1.0001e-13 0)
(2.41513e-30 1.09662e-13 1.09662e-13)
(1.6375e-30 8.7189e-14 0)
(-3.34541e-30 9.11174e-14 9.11174e-14)
(-6.66923e-30 8.41633e-14 -0)
(-2.14817e-30 3.29491e-14 3.29491e-14)
(-7.99668e-31 5.80809e-15 -0)
(1.08032e-30 -8.76331e-15 -8.76331e-15)
(4.74861e-30 -9.48798e-14 -0)
(-7.21036e-31 -5.82956e-14 -5.82956e-14)
(1.54916e-31 -1.68503e-14 -0)
(-7.69907e-31 8.5375e-15 8.5375e-15)
(-8.16151e-31 8.63024e-15 -0)
(-8.22367e-26 -1.7747e-12 -1.7747e-12)
(-4.23953e-26 4.06431e-12 -0)
(-1.74686e-27 -9.1909e-13 -9.1909e-13)
(-1.50832e-28 2.16055e-13 -0)
(-1.11738e-30 -1.0033e-13 -1.0033e-13)
(-4.73809e-31 -1.38831e-14 0)
(-1.2417e-30 -8.27977e-15 -8.27977e-15)
(1.06991e-29 9.15029e-14 0)
(2.71772e-30 5.65119e-14 5.65119e-14)
(5.20856e-30 5.54642e-14 0)
(2.1698e-30 6.10345e-14 6.10345e-14)
(7.4124e-31 2.8882e-14 0)
(1.74903e-30 9.83668e-14 9.83668e-14)
(-1.00962e-29 6.96999e-14 -0)
(6.32188e-31 -4.61056e-15 -4.61056e-15)
(6.72949e-31 -6.81491e-15 -0)
(4.66149e-31 -6.7589e-15 -6.7589e-15)
(2.76199e-30 -8.86456e-14 -0)
(1.01226e-32 2.33428e-15 2.33428e-15)
(1.75063e-30 -3.21214e-14 -0)
(-4.24911e-26 -1.45835e-12 -1.45835e-12)
(-1.78355e-26 2.56124e-12 -0)
(-9.11691e-28 -6.72519e-13 -6.72519e-13)
(-5.46708e-29 1.0731e-13 -0)
(-8.46018e-31 -7.36684e-14 -7.36684e-14)
(8.74821e-31 -1.99585e-14 -0)
(1.713e-30 -2.85589e-14 -2.85589e-14)
(3.17587e-30 -1.08414e-13 -0)
(-2.39242e-29 -1.13381e-13 -1.13381e-13)
(-1.443e-29 -4.95256e-14 0)
(3.34413e-30 2.03708e-14 2.03708e-14)
(-1.97643e-30 -2.25475e-14 0)
(3.13292e-30 2.64187e-14 2.64187e-14)
(1.24237e-30 1.3144e-14 0)
(-9.65061e-31 7.50867e-14 7.50867e-14)
(-7.74876e-30 6.78255e-14 -0)
(-2.73273e-32 1.83396e-16 1.83396e-16)
(-5.588e-30 4.81394e-14 -0)
(3.72396e-31 -4.21739e-15 -4.21739e-15)
(-8.04425e-31 1.08845e-14 -0)
(-5.49383e-25 6.03516e-12 6.03516e-12)
(-1.62781e-25 -8.31967e-12 0)
(-8.66413e-27 1.89125e-12 1.89125e-12)
(-3.98517e-28 -4.3116e-13 0)
(-2.37521e-29 8.8112e-14 8.8112e-14)
(1.5067e-31 3.49014e-15 0)
(6.11246e-31 -1.82911e-14 -1.82911e-14)
(1.58032e-30 -3.51424e-14 -0)
(-5.61109e-31 -1.19498e-14 -1.19498e-14)
(-3.47182e-31 -4.65835e-15 0)
(-1.10682e-31 -1.18327e-15 -1.18327e-15)
(5.41057e-31 6.26501e-15 0)
(-1.70481e-30 -5.51918e-14 -5.51918e-14)
(-1.00131e-30 -1.0411e-14 0)
(-6.2377e-30 -4.62057e-14 -4.62057e-14)
(2.80381e-31 1.73776e-14 0)
(1.76784e-30 -4.55892e-14 -4.55892e-14)
(-2.41718e-30 3.44943e-14 -0)
(8.82999e-32 -7.83705e-16 -7.83705e-16)
(1.08858e-30 -1.74907e-14 -0)
(-8.23973e-25 -7.66531e-12 -7.66531e-12)
(-2.18422e-25 9.7344e-12 -0)
(-1.1751e-26 -2.22943e-12 -2.22943e-12)
(-5.54932e-28 4.51889e-13 -0)
(-4.91492e-29 -2.34202e-13 -2.34202e-13)
(-2.91008e-30 -9.76964e-14 0)
(-9.80722e-31 -9.55678e-15 -9.55678e-15)
(5.60707e-32 4.47296e-16 0)
(-2.03976e-30 -2.07826e-14 -2.07826e-14)
(-2.44275e-31 -3.93165e-15 0)
(-5.46773e-30 -3.97757e-14 -3.97757e-14)
(6.05238e-30 3.20509e-14 0)
(3.94897e-30 4.48717e-14 4.48717e-14)
(8.21843e-32 7.35773e-15 0)
(4.83593e-32 3.35166e-15 3.35166e-15)
(-1.72434e-31 7.71625e-15 -0)
(-7.36099e-30 1.17336e-13 1.17336e-13)
(-1.36726e-31 1.22614e-15 -0)
(4.40896e-31 -5.87896e-15 -5.87896e-15)
(6.73311e-31 -1.27715e-14 -0)
(-3.29801e-26 1.27433e-12 1.27433e-12)
(-1.0468e-26 -2.21098e-12 0)
(-5.73174e-28 4.30584e-13 4.30584e-13)
(-2.90215e-29 -1.84066e-13 0)
(-5.43062e-31 1.66622e-14 1.66622e-14)
(7.53051e-31 -8.41128e-14 -0)
(4.23814e-31 -9.18119e-14 -9.18119e-14)
(-9.18691e-30 -9.56821e-14 0)
(-7.48441e-30 -5.38239e-14 -5.38239e-14)
(-4.75027e-30 -5.15478e-14 0)
(-3.35361e-30 -2.98282e-14 -2.98282e-14)
(3.11711e-30 2.61098e-14 0)
(4.85136e-30 3.96408e-14 3.96408e-14)
(-4.50219e-31 7.53835e-14 -0)
(-5.1594e-30 5.77432e-14 5.77432e-14)
(2.00129e-31 -4.84536e-15 -0)
(-2.80946e-31 6.86955e-15 6.86955e-15)
(-2.76715e-32 2.51562e-16 -0)
(4.7419e-31 -1.09228e-14 -1.09228e-14)
(-1.74836e-32 2.26867e-14 -0)
(-8.01924e-25 8.12396e-12 8.12396e-12)
(-1.91556e-25 -9.12384e-12 0)
(-1.11072e-26 2.20679e-12 2.20679e-12)
(-4.31582e-28 -3.9392e-13 0)
(-5.64824e-29 2.01117e-13 2.01117e-13)
(-6.87724e-30 6.71523e-14 -0)
(-4.28123e-30 3.07528e-14 3.07528e-14)
(-4.59148e-30 3.30584e-14 -0)
(-1.02654e-30 5.16504e-15 5.16504e-15)
(1.62918e-30 -8.5503e-15 -0)
(8.3865e-30 -7.40566e-14 -7.40566e-14)
(-1.05837e-30 -1.33554e-13 0)
(-9.5982e-30 -6.95048e-14 -6.95048e-14)
(-7.301e-30 -4.53839e-14 0)
(-1.89445e-31 -3.80164e-15 -3.80164e-15)
(3.46763e-30 -4.80533e-14 -0)
(7.53517e-31 -6.42053e-14 -6.42053e-14)
(-1.3394e-31 -4.81975e-15 0)
(-4.95717e-32 -1.35957e-15 -1.35957e-15)
(-7.99582e-31 -1.93204e-14 0)
(-1.99873e-24 -1.25213e-11 -1.25213e-11)
(-5.04252e-25 1.4769e-11 -0)
(-2.82571e-26 -3.47068e-12 -3.47068e-12)
(-1.26044e-27 7.85707e-13 -0)
(-6.42955e-29 -1.15717e-13 -1.15717e-13)
(1.43233e-29 1.50683e-13 0)
(1.61598e-29 1.21503e-13 1.21503e-13)
(-5.99223e-30 1.67516e-13 -0)
(-2.38159e-29 1.27422e-13 1.27422e-13)
(-1.82385e-29 8.07781e-14 -0)
(-8.46474e-30 4.66284e-14 4.66284e-14)
(-1.12173e-29 7.47976e-14 -0)
(-1.13598e-30 9.7626e-15 9.7626e-15)
(-5.0574e-31 -2.15608e-14 0)
(3.47144e-31 3.49778e-15 3.49778e-15)
(-1.19684e-30 1.03881e-13 -0)
(-3.91394e-30 3.09629e-14 3.09629e-14)
(2.0888e-30 -4.16927e-14 -0)
(-7.51253e-32 -3.85865e-15 -3.85865e-15)
(3.02915e-31 -2.63095e-14 -0)
(-1.29101e-24 9.80226e-12 9.80226e-12)
(-3.54399e-25 -1.23037e-11 0)
(-1.85357e-26 2.73748e-12 2.73748e-12)
(-1.194e-27 -8.35343e-13 0)
(8.93633e-31 -2.83683e-15 -2.83683e-15)
(-1.79315e-29 -1.74994e-13 0)
(-1.11032e-29 -1.39355e-13 -1.39355e-13)
(-2.30329e-29 -1.63622e-13 0)
(-1.04887e-29 -1.17077e-13 -1.17077e-13)
(2.79715e-30 -6.39956e-14 -0)
(-4.91137e-31 5.87428e-15 5.87428e-15)
(3.04774e-30 -2.97482e-14 -0)
(4.88849e-30 -8.54984e-14 -8.54984e-14)
(3.91639e-30 -6.46065e-14 -0)
(-1.94561e-30 -4.1584e-14 -4.1584e-14)
(8.24543e-31 9.7961e-15 0)
(-1.99482e-30 3.89814e-14 3.89814e-14)
(1.65727e-31 -4.79081e-15 -0)
(-9.13627e-32 2.79781e-14 2.79781e-14)
(2.01837e-31 -4.65887e-15 -0)
(-2.49841e-25 -5.2852e-12 -5.2852e-12)
(-4.85542e-26 4.78802e-12 -0)
(-2.73177e-27 -1.15112e-12 -1.15112e-12)
(-1.25626e-28 2.38423e-13 -0)
(1.70443e-30 -1.53756e-13 -1.53756e-13)
(7.66485e-30 -1.0422e-13 -0)
(5.71397e-30 -1.07633e-13 -1.07633e-13)
(8.4826e-30 -1.04191e-13 -0)
(1.00386e-29 -1.05244e-13 -1.05244e-13)
(8.6354e-30 -7.63023e-14 -0)
(2.10816e-29 -1.44878e-13 -1.44878e-13)
(4.07808e-30 -2.07595e-13 -0)
(-2.57929e-30 -7.79687e-14 -7.79687e-14)
(3.75331e-30 -7.06721e-14 -0)
(4.19232e-30 -5.71557e-14 -5.71557e-14)
(9.6381e-31 -4.0748e-14 -0)
(-4.24474e-30 -6.72906e-14 -6.72906e-14)
(2.46961e-32 2.30476e-16 0)
(-7.87828e-31 -1.29628e-14 -1.29628e-14)
(-9.0836e-32 2.65061e-15 -0)
(-7.52366e-26 -1.67695e-12 -1.67695e-12)
(-3.83392e-26 3.85891e-12 -0)
(-1.89523e-27 -7.63793e-13 -7.63793e-13)
(-1.23995e-28 3.10024e-13 -0)
(1.71904e-29 8.84915e-14 8.84915e-14)
(1.08048e-29 1.53509e-13 0)
(3.45186e-30 2.39266e-13 2.39266e-13)
(-3.72589e-29 2.42138e-13 -0)
(-5.36123e-29 2.24746e-13 2.24746e-13)
(-4.39113e-29 1.88519e-13 -0)
(-3.74032e-29 1.6522e-13 1.6522e-13)
(-5.33543e-29 2.06142e-13 -0)
(-7.87921e-29 2.018e-13 2.018e-13)
(-5.57751e-29 1.46983e-13 -0)
(-5.3338e-30 2.27963e-14 2.27963e-14)
(1.33925e-30 -2.05006e-14 -0)
(5.11187e-32 -1.76446e-15 -1.76446e-15)
(2.45943e-30 -5.15791e-14 -0)
(-1.05097e-31 1.90113e-15 1.90113e-15)
(-9.94243e-31 1.49075e-14 -0)
(-7.50859e-25 7.99333e-12 7.99333e-12)
(-1.76706e-25 -8.85056e-12 0)
(-9.60874e-27 2.08118e-12 2.08118e-12)
(-3.43676e-28 -3.26968e-13 0)
(-6.0094e-29 2.2842e-13 2.2842e-13)
(-1.40207e-29 9.41663e-14 -0)
(-2.44555e-30 2.02872e-14 2.02872e-14)
(-2.54829e-30 3.15719e-14 -0)
(-1.04482e-29 6.32398e-14 6.32398e-14)
(1.42873e-30 -8.35463e-15 -0)
(-1.93674e-30 2.37145e-14 2.37145e-14)
(-9.0974e-30 6.63536e-14 -0)
(-1.54006e-30 7.58261e-15 7.58261e-15)
(-3.83543e-30 1.80126e-14 -0)
(2.98944e-30 -2.66488e-14 -2.66488e-14)
(-6.1925e-31 -1.15624e-14 0)
(1.6395e-31 4.75898e-14 4.75898e-14)
(-1.17312e-29 7.75413e-14 -0)
(7.45006e-31 -3.24104e-15 -3.24104e-15)
(4.1459e-30 -3.48746e-14 -0)
(-9.06155e-25 -8.55576e-12 -8.55576e-12)
(-2.23592e-25 9.92749e-12 -0)
(-1.21534e-26 -2.30113e-12 -2.30113e-12)
(-5.79289e-28 5.0926e-13 -0)
(-2.19732e-29 -1.16322e-13 -1.16322e-13)
(-1.19693e-29 4.87859e-14 -0)
(5.21081e-30 -1.74299e-14 -1.74299e-14)
(1.1646e-29 -3.40433e-14 -0)
(2.49641e-29 -1.0874e-13 -1.0874e-13)
(1.04991e-29 -1.54741e-13 -0)
(5.11767e-30 -1.36771e-13 -1.36771e-13)
(7.46214e-30 -1.3472e-13 -0)
(6.39787e-30 -1.40711e-13 -1.40711e-13)
(4.79874e-31 -1.35717e-13 -0)
(3.40584e-30 -7.82109e-14 -7.82109e-14)
(2.00392e-30 -5.79532e-14 -0)
(1.85648e-31 -3.0356e-14 -3.0356e-14)
(-1.97828e-32 9.56122e-15 -0)
(-4.10937e-31 4.03957e-15 4.03957e-15)
(1.76332e-30 -4.15243e-14 -0)
(-2.93609e-25 4.6608e-12 4.6608e-12)
(-7.9171e-26 -5.78866e-12 0)
(-4.56117e-27 1.42025e-12 1.42025e-12)
(-1.63325e-28 -2.92348e-13 0)
(-1.18073e-29 4.099e-14 4.099e-14)
(1.93215e-30 -1.58006e-14 -0)
(1.21912e-29 -9.37445e-14 -9.37445e-14)
(-9.12029e-32 -4.53859e-14 0)
(-3.27086e-30 -6.19929e-14 -6.19929e-14)
(2.78198e-30 3.48458e-14 0)
(-2.49319e-30 1.01163e-13 1.01163e-13)
(-4.20198e-30 3.5417e-14 -0)
(-8.66792e-30 8.04334e-14 8.04334e-14)
(-1.077e-29 9.80643e-14 -0)
(-1.23137e-29 4.47353e-14 4.47353e-14)
(3.36924e-30 -1.17753e-14 -0)
(3.68071e-30 -2.3369e-14 -2.3369e-14)
(6.07409e-31 -1.15834e-14 -0)
(-9.79251e-31 2.35004e-14 2.35004e-14)
(-3.49123e-31 2.12989e-14 -0)
(-2.11757e-27 8.03416e-14 8.03416e-14)
(-1.22198e-26 -2.02381e-12 0)
(-5.40092e-28 4.35516e-13 4.35516e-13)
(-3.74926e-29 -1.14442e-13 0)
(2.00251e-30 -2.09253e-14 -2.09253e-14)
(2.08014e-31 -3.97278e-14 -0)
(1.23944e-30 4.05982e-14 4.05982e-14)
(2.72585e-30 2.08266e-14 0)
(1.11046e-29 1.19003e-13 1.19003e-13)
(2.95023e-30 1.17736e-13 0)
(1.27351e-32 8.09968e-14 8.09968e-14)
(3.10318e-30 1.09879e-13 0)
(-1.50534e-30 1.0429e-13 1.0429e-13)
(-2.78446e-29 1.38184e-13 -0)
(-5.41637e-29 1.73561e-13 1.73561e-13)
(-2.20148e-29 7.0831e-14 -0)
(-7.31275e-30 3.52878e-14 3.52878e-14)
(2.6844e-30 -2.20786e-14 -0)
(-1.77365e-31 -1.30852e-14 -1.30852e-14)
(2.11537e-32 2.28232e-15 0)
(-3.92356e-25 -4.07199e-12 -4.07199e-12)
(-1.62228e-25 8.06016e-12 -0)
(-8.84465e-27 -1.80094e-12 -1.80094e-12)
(-4.61668e-28 4.46652e-13 -0)
(-2.39375e-30 -1.37908e-14 -1.37908e-14)
(-4.67613e-30 5.66386e-14 -0)
(-3.44638e-30 2.83047e-14 2.83047e-14)
(6.55494e-31 -6.93228e-15 -0)
(8.00706e-32 -1.52697e-15 -1.52697e-15)
(-5.10984e-31 6.44473e-15 -0)
(2.3893e-30 -2.04415e-14 -2.04415e-14)
(-5.25186e-30 3.59906e-14 -0)
(6.86976e-30 -3.33904e-14 -3.33904e-14)
(6.59829e-30 -7.94311e-14 -0)
(-3.04754e-30 -6.55812e-14 -6.55812e-14)
(3.33838e-31 1.08948e-14 0)
(2.83265e-30 -4.53381e-14 -4.53381e-14)
(7.25449e-31 -1.24908e-14 -0)
(-2.53413e-30 -4.05918e-14 -4.05918e-14)
(-1.01232e-30 -1.31832e-14 0)
(-9.98196e-26 2.71313e-12 2.71313e-12)
(-2.31869e-26 -3.21119e-12 0)
(-1.68813e-27 8.57361e-13 8.57361e-13)
(-2.58877e-29 -9.47002e-14 0)
(-2.51039e-29 1.20213e-13 1.20213e-13)
(-1.61087e-30 1.39333e-14 -0)
(-1.74099e-30 2.25778e-14 2.25778e-14)
(-1.68561e-30 2.39633e-14 -0)
(-1.29691e-31 2.83828e-15 2.83828e-15)
(-6.89489e-31 6.98402e-15 -0)
(5.33292e-30 -4.6159e-14 -4.6159e-14)
(3.47984e-30 -1.94149e-14 -0)
(1.25665e-29 -6.53024e-14 -6.53024e-14)
(9.04471e-30 -1.32401e-13 -0)
(-6.02283e-30 -1.27124e-13 -1.27124e-13)
(-9.0177e-30 -7.5956e-14 0)
(-8.81134e-32 1.41794e-14 1.41794e-14)
(-4.97372e-31 2.15582e-14 -0)
(-3.15972e-30 -6.41508e-14 -6.41508e-14)
(9.58697e-31 1.2559e-14 0)
(-3.61535e-25 4.69378e-12 4.69378e-12)
(-1.12435e-25 -7.03078e-12 0)
(-5.31567e-27 1.32695e-12 1.32695e-12)
(-4.05287e-28 -4.91321e-13 0)
(5.18299e-30 -2.9298e-14 -2.9298e-14)
(-3.36439e-30 -9.99243e-14 0)
(-3.68568e-31 -4.01259e-14 -4.01259e-14)
(5.12742e-30 -4.78426e-14 -0)
(3.33769e-30 -6.12539e-14 -6.12539e-14)
(2.19654e-30 -5.97939e-14 -0)
(-4.24138e-33 -3.14629e-15 -3.14629e-15)
(2.71559e-31 -5.15062e-14 -0)
(-3.11158e-31 1.21116e-14 1.21116e-14)
(-8.00421e-30 6.333e-14 -0)
(-5.61086e-30 4.80012e-14 4.80012e-14)
(-3.18892e-30 4.95949e-14 -0)
(5.11747e-31 -7.23436e-15 -7.23436e-15)
(-3.25539e-31 -4.04685e-14 0)
(3.17484e-30 5.0478e-14 5.0478e-14)
(4.91128e-31 1.08261e-14 0)
)
;

boundaryField
{
    movingWall
    {
        type            calculated;
        value           nonuniform List<vector> 
20
(
(0 8.94542e-12 -0)
(0 -8.50087e-12 -0)
(0 1.16142e-12 -0)
(0 -6.49355e-13 -0)
(0 -1.87331e-13 -0)
(0 -2.40654e-13 -0)
(0 -2.52369e-13 -0)
(0 -2.60086e-13 -0)
(0 -2.29088e-13 -0)
(0 -2.27628e-13 -0)
(0 -9.19641e-14 -0)
(0 -4.1705e-14 -0)
(0 1.21116e-14 -0)
(0 9.11993e-15 -0)
(0 8.26089e-14 -0)
(0 8.42027e-14 -0)
(0 -7.23436e-15 -0)
(0 -1.33634e-14 -0)
(0 8.50857e-14 -0)
(0 1.08261e-14 -0)
)
;
    }
    fixedWalls
    {
        type            calculated;
        value           nonuniform List<vector> 
60
(
(0 -5.11107e-11 -0)
(0 -7.87693e-12 -0)
(0 3.94159e-11 -0)
(0 -1.67194e-11 -0)
(0 -1.08957e-11 -0)
(0 3.53009e-11 -0)
(0 -4.21573e-11 -0)
(0 9.5119e-12 -0)
(0 3.98368e-11 -0)
(0 -6.38235e-11 -0)
(0 5.21944e-11 -0)
(0 -2.04808e-11 -0)
(0 -1.613e-11 -0)
(0 3.81706e-11 -0)
(0 -4.25815e-11 -0)
(0 2.49271e-11 -0)
(0 8.59127e-12 -0)
(0 -3.49911e-11 -0)
(0 1.44726e-11 -0)
(0 2.94002e-11 -0)
(0 2.5505e-15 -0)
(0 -2.55592e-14 -0)
(0 -1.07224e-14 -0)
(0 -4.89052e-14 -0)
(0 -2.45719e-15 -0)
(0 -2.48951e-14 -0)
(0 -2.10879e-14 -0)
(0 2.67968e-14 -0)
(0 -1.05509e-14 -0)
(0 -3.17105e-14 -0)
(0 -1.73293e-14 -0)
(0 -1.3708e-14 -0)
(0 4.27448e-16 -0)
(0 -4.7552e-14 -0)
(0 -4.4091e-14 -0)
(0 2.05484e-14 -0)
(0 3.7074e-15 -0)
(0 3.61032e-15 -0)
(0 3.05342e-14 -0)
(0 1.81461e-14 -0)
(0 -1.26319e-11 -0)
(0 1.3492e-11 -0)
(0 -2.19626e-12 -0)
(0 8.69598e-13 -0)
(0 5.53483e-14 -0)
(0 2.20632e-13 -0)
(0 2.23767e-13 -0)
(0 1.38515e-13 -0)
(0 1.3274e-13 -0)
(0 8.84413e-14 -0)
(0 1.33862e-13 -0)
(0 4.93401e-14 -0)
(0 3.48287e-14 -0)
(0 1.15045e-13 -0)
(0 -2.53847e-15 -0)
(0 -7.66639e-14 -0)
(0 -1.53753e-13 -0)
(0 -7.72914e-14 -0)
(0 7.948e-14 -0)
(0 -6.73818e-15 -0)
)
;
    }
    frontAndBack
    {
        type            empty;
    }
}


// ************************************************************************* //
