/*--------------------------------*- C++ -*----------------------------------*\
| =========                 |                                                 |
| \\      /  F ield         | OpenFOAM: The Open Source CFD Toolbox           |
|  \\    /   O peration     | Version:  2312                                  |
|   \\  /    A nd           | Website:  www.openfoam.com                      |
|    \\/     M anipulation  |                                                 |
\*---------------------------------------------------------------------------*/
FoamFile
{
    version     2.0;
    format      ascii;
    arch        "LSB;label=32;scalar=64";
    class       volScalarField;
    location    "9";
    object      Lambda2Field;
}
// * * * * * * * * * * * * * * * * * * * * * * * * * * * * * * * * * * * * * //

dimensions      [0 0 -2 0 0 0 0];

internalField   nonuniform List<scalar> 
400
(
7.02358e-24
4.16187e-24
0
1.9287e-26
0
0
0
5.07232e-31
1.31856e-29
0
0
2.87342e-28
2.15341e-28
7.34684e-28
7.34684e-28
6.96852e-28
1.57678e-27
4.15085e-28
6.15214e-28
3.30874e-29
1.51926e-24
2.84705e-24
1.87533e-25
5.82642e-27
7.99333e-28
1.34437e-27
2.81171e-28
-2.07656e-27
0
5.79247e-28
6.06666e-28
3.86702e-29
6.1345e-29
1.21854e-28
8.25293e-28
0
0
-3.52574e-28
9.6757e-30
1.01899e-28
2.43833e-23
1.08895e-23
0
6.61947e-26
0
4.7539e-27
2.07198e-27
1.1557e-27
0
-4.77366e-28
0
-2.3026e-28
1.13111e-28
7.34684e-28
6.84246e-28
0
0
3.5119e-28
0
5.01644e-28
7.8169e-24
4.33115e-24
2.65086e-25
1.49066e-27
9.53979e-28
3.38255e-29
1.71825e-29
0
6.09905e-28
6.75034e-28
0
0
0
-1.0502e-28
1.27251e-28
4.12124e-29
2.71841e-28
0
0
-1.317e-28
3.44677e-24
3.51836e-24
1.4781e-25
4.37802e-27
0
1.94525e-28
0
-1.46887e-27
0
2.53946e-28
0
1.60373e-28
1.86045e-29
0
0
-6.06116e-28
0
3.29092e-28
0
4.39659e-28
8.33057e-24
3.56417e-24
8.98159e-27
2.93874e-27
7.34684e-28
6.94281e-28
2.38902e-28
2.13101e-29
1.63072e-28
0
7.4781e-30
1.02374e-28
0
6.94728e-29
4.3392e-28
8.44537e-29
4.67342e-28
-2.00076e-28
1.92367e-30
4.48843e-30
7.5355e-24
5.31136e-24
0
3.33128e-26
0
1.18984e-27
0
1.98765e-28
3.6417e-28
0
5.56573e-29
0
1.05514e-28
0
5.06135e-28
0
0
1.59392e-29
5.66058e-29
0
1.85026e-24
6.17235e-25
5.94255e-26
1.13276e-26
2.47729e-27
0
0
-4.7e-28
2.09368e-29
7.82748e-28
7.77167e-28
2.69761e-29
0
-9.23706e-28
0
0
0
1.94043e-28
1.54053e-28
2.08318e-28
0
2.3587e-24
0
5.70109e-26
0
1.15166e-27
3.26942e-28
0
1.06917e-27
1.01084e-27
0
-1.99033e-27
0
4.78468e-28
9.90944e-28
3.42632e-28
5.61859e-28
0
0
2.11004e-28
4.29022e-25
5.8373e-24
0
-1.94481e-26
1.21505e-26
-4.1624e-27
0
-3.55344e-27
0
2.59268e-28
9.6334e-28
5.29974e-28
8.752e-28
4.90583e-28
0
0
1.50661e-28
-3.56483e-28
0
2.15642e-29
5.09394e-24
2.37339e-24
6.61216e-27
-1.10889e-25
2.09214e-26
-2.41027e-27
2.15615e-28
-1.40368e-28
2.50014e-27
1.40835e-27
2.16039e-29
0
1.71066e-27
-5.04966e-28
0
0
0
2.47283e-28
0
0
0
0
0
1.83671e-26
0
4.65681e-28
8.53202e-29
4.58581e-28
3.28307e-27
7.65658e-28
1.67118e-27
-4.49813e-28
2.90259e-27
1.88207e-27
1.4453e-27
-1.46298e-28
0
1.7135e-30
3.83326e-28
5.46196e-30
8.73039e-24
3.59493e-24
2.07367e-25
6.30353e-27
8.96699e-27
0
0
-5.48548e-27
0
2.30752e-28
6.44402e-27
-1.74112e-28
6.49726e-28
2.54468e-27
1.84794e-27
0
0
1.42626e-28
8.45633e-28
3.30614e-28
0
2.3107e-24
0
5.26448e-26
0
1.54542e-27
1.2698e-27
0
2.45184e-28
0
5.8958e-28
-2.44449e-28
7.34684e-28
1.65969e-27
5.40176e-28
0
1.61809e-29
-1.24398e-27
2.41991e-29
5.87057e-30
0
1.75926e-24
0
2.42491e-27
0
7.08051e-30
3.39099e-28
0
0
0
5.65824e-28
1.09105e-28
3.19305e-29
0
2.52422e-28
9.50947e-28
4.013e-28
9.77182e-29
0
0
2.45424e-24
3.1209e-24
2.30754e-26
2.93874e-27
3.07573e-27
0
0
1.74157e-27
3.1278e-28
-1.23494e-28
0
-1.55355e-28
7.16979e-29
-9.70047e-28
0
7.34684e-28
0
1.42837e-28
9.77037e-29
1.57375e-28
4.81469e-24
3.13635e-24
2.6547e-25
7.34684e-28
4.04485e-27
0
1.15064e-27
2.63428e-28
0
-7.56803e-28
7.60572e-28
0
0
-3.21985e-27
1.16113e-27
8.52522e-28
1.42739e-27
0
1.51172e-28
8.68252e-29
2.72319e-23
9.92832e-24
2.13625e-25
1.28706e-26
7.73356e-27
0
2.83637e-28
0
0
1.53219e-28
1.80617e-28
1.89624e-28
4.25208e-28
-1.18984e-27
1.18254e-28
1.84496e-27
1.39892e-27
0
0
3.77352e-28
3.10835e-24
5.07646e-24
2.42603e-25
1.72515e-26
0
3.57022e-28
4.21618e-28
8.67478e-29
2.05606e-30
1.81066e-29
4.36454e-28
4.06267e-28
7.88966e-28
-1.86537e-27
0
5.25921e-28
5.0946e-29
1.50348e-28
1.958e-28
0
8.7676e-24
2.59703e-24
3.3479e-25
-2.94526e-26
9.31313e-27
-1.44606e-27
1.21217e-27
6.60293e-28
0
0
1.32859e-28
4.87009e-28
5.12462e-28
-1.15306e-28
9.60935e-28
2.79808e-28
0
0
9.65101e-28
0
)
;

boundaryField
{
    movingWall
    {
        type            calculated;
        value           nonuniform List<scalar> 
20
(
0
0
5.85856e-25
0
2.18171e-26
-3.95068e-27
4.48747e-27
2.43132e-27
0
-5.05157e-28
4.55238e-28
1.24524e-28
1.42276e-28
0
3.4902e-27
1.07141e-27
0
1.03536e-29
2.77431e-27
0
)
;
    }
    fixedWalls
    {
        type            calculated;
        value           nonuniform List<scalar> 
60
(
4.0844e-23
3.08893e-23
1.22735e-22
7.56994e-23
5.93323e-23
5.24637e-23
4.34673e-23
8.70636e-24
0
3.62591e-24
2.60898e-23
0
8.0585e-23
1.48609e-23
1.13319e-23
4.11928e-23
5.28868e-23
1.37942e-22
7.62915e-23
5.15031e-23
0
1.01899e-28
1.05494e-27
-5.86625e-28
8.03394e-28
4.48843e-30
0
9.69133e-29
4.77686e-28
-5.30742e-29
8.02545e-29
0
7.23098e-28
5.87057e-30
1.30638e-28
1.77718e-28
9.02614e-29
8.32542e-28
0
0
0
0
1.09706e-24
0
2.24573e-26
-7.24797e-27
0
0
6.481e-29
3.34406e-29
0
0
7.85112e-28
3.15704e-27
7.34684e-28
4.01822e-27
4.97708e-27
2.23486e-27
1.56405e-27
6.50505e-30
)
;
    }
    frontAndBack
    {
        type            empty;
    }
}


// ************************************************************************* //
