/*--------------------------------*- C++ -*----------------------------------*\
| =========                 |                                                 |
| \\      /  F ield         | OpenFOAM: The Open Source CFD Toolbox           |
|  \\    /   O peration     | Version:  2312                                  |
|   \\  /    A nd           | Website:  www.openfoam.com                      |
|    \\/     M anipulation  |                                                 |
\*---------------------------------------------------------------------------*/
FoamFile
{
    version     2.0;
    format      ascii;
    arch        "LSB;label=32;scalar=64";
    class       volScalarField;
    location    "9";
    object      magSqrP;
}
// * * * * * * * * * * * * * * * * * * * * * * * * * * * * * * * * * * * * * //

dimensions      [0 4 -4 0 0 0 0];

internalField   nonuniform List<scalar> 
400
(
3.61262e-31
2.24051e-29
8.35464e-30
1.19375e-29
1.41629e-29
1.49219e-29
1.52983e-29
1.59646e-29
1.4923e-29
1.44922e-29
1.4836e-29
1.53899e-29
1.41772e-29
1.41761e-29
1.48811e-29
1.62864e-29
1.58305e-29
1.41936e-29
1.23465e-29
1.40914e-29
1.51787e-29
0
9.71934e-30
9.81049e-30
1.28935e-29
1.46023e-29
1.46548e-29
1.58347e-29
1.54789e-29
1.46424e-29
1.49344e-29
1.56069e-29
1.58721e-29
1.33006e-29
1.3988e-29
1.57051e-29
1.54406e-29
1.51968e-29
1.37266e-29
1.38484e-29
1.29961e-29
1.31236e-29
1.08588e-29
1.30621e-29
1.37411e-29
1.50873e-29
1.55457e-29
1.59203e-29
1.53158e-29
1.53459e-29
1.45653e-29
1.54151e-29
1.58285e-29
1.37203e-29
1.53717e-29
1.5801e-29
1.44801e-29
1.39797e-29
1.45634e-29
1.58224e-29
9.16191e-30
2.37279e-29
1.38349e-29
1.58428e-29
1.6841e-29
1.66824e-29
1.63264e-29
1.47926e-29
1.60972e-29
1.56024e-29
1.45516e-29
1.48541e-29
1.54008e-29
1.51661e-29
1.65325e-29
1.61031e-29
1.4798e-29
1.39166e-29
1.47611e-29
1.70014e-29
1.44547e-29
7.62581e-30
1.8165e-29
1.7642e-29
1.88978e-29
1.78135e-29
1.78947e-29
1.69905e-29
1.72839e-29
1.46819e-29
1.44669e-29
1.46846e-29
1.39591e-29
1.50472e-29
1.57505e-29
1.64101e-29
1.61143e-29
1.56231e-29
1.60514e-29
1.82987e-29
1.2805e-29
2.64681e-29
1.89313e-29
2.01184e-29
2.08549e-29
1.8892e-29
1.86505e-29
1.97061e-29
1.75575e-29
1.45501e-29
1.42665e-29
1.48974e-29
1.36702e-29
1.39398e-29
1.55133e-29
1.67323e-29
1.66164e-29
1.6366e-29
1.77775e-29
1.96339e-29
2.03053e-29
3.80815e-29
2.02243e-29
2.19371e-29
2.20094e-29
2.01174e-29
1.9654e-29
2.09293e-29
2.01987e-29
1.65224e-29
1.40981e-29
1.43177e-29
1.51688e-29
1.4276e-29
1.42353e-29
1.62123e-29
1.70297e-29
1.7189e-29
1.79703e-29
2.04904e-29
3.08279e-29
1.18053e-30
2.25318e-29
2.17312e-29
2.44518e-29
2.15459e-29
2.17675e-29
2.2413e-29
2.18061e-29
1.86886e-29
1.49747e-29
1.39278e-29
1.46743e-29
1.45171e-29
1.55014e-29
1.67227e-29
1.73829e-29
1.85815e-29
1.86211e-29
2.15054e-29
1.88276e-29
6.76388e-29
2.58192e-29
2.59599e-29
2.31349e-29
2.29499e-29
2.41755e-29
2.35876e-29
2.2616e-29
2.00273e-29
1.72488e-29
1.61786e-29
1.62289e-29
1.5771e-29
1.66941e-29
1.73652e-29
1.79585e-29
1.94955e-29
1.93689e-29
2.04798e-29
2.49977e-29
2.30875e-29
2.74133e-29
2.74492e-29
2.58072e-29
2.43858e-29
2.40368e-29
2.47274e-29
2.49104e-29
2.20872e-29
1.96479e-29
1.82779e-29
1.76683e-29
1.65484e-29
1.69158e-29
1.91071e-29
1.93927e-29
2.01021e-29
1.99455e-29
2.05939e-29
3.21478e-29
1.08974e-29
2.93912e-29
2.75671e-29
2.68431e-29
2.66922e-29
2.7619e-29
2.65995e-29
2.47485e-29
2.29536e-29
2.06244e-29
1.98844e-29
2.06093e-29
1.95742e-29
1.92105e-29
2.02385e-29
2.03587e-29
2.14434e-29
2.08084e-29
2.13692e-29
2.89549e-29
6.97433e-29
2.85418e-29
3.20895e-29
2.94406e-29
3.03665e-29
2.83101e-29
2.72218e-29
2.49843e-29
2.41863e-29
2.30053e-29
2.38735e-29
2.20333e-29
2.11014e-29
2.00972e-29
2.1795e-29
2.16777e-29
2.06851e-29
2.11584e-29
2.27377e-29
3.77848e-29
3.28094e-30
3.20806e-29
2.82151e-29
3.20978e-29
2.94943e-29
2.9618e-29
2.73321e-29
2.60573e-29
2.56991e-29
2.72627e-29
2.45593e-29
2.41788e-29
2.464e-29
2.19782e-29
2.21457e-29
2.21925e-29
2.20362e-29
2.13985e-29
2.3139e-29
2.89174e-29
6.02359e-29
3.11904e-29
3.43391e-29
3.41609e-29
3.25959e-29
2.95741e-29
2.71748e-29
2.61825e-29
2.66248e-29
2.59222e-29
2.58831e-29
2.73736e-29
2.79013e-29
2.4455e-29
2.27052e-29
2.2942e-29
2.29149e-29
2.26722e-29
2.53685e-29
2.9365e-29
2.98438e-29
3.56388e-29
3.37851e-29
3.45208e-29
3.39152e-29
2.97986e-29
2.84637e-29
2.85389e-29
3.02636e-29
2.85421e-29
2.75575e-29
2.6865e-29
2.8523e-29
2.6334e-29
2.25747e-29
2.24073e-29
2.36698e-29
2.50765e-29
2.77301e-29
3.25045e-29
1.89879e-29
3.55842e-29
3.47537e-29
3.53238e-29
3.19165e-29
3.1283e-29
3.24029e-29
3.18985e-29
2.92809e-29
2.69863e-29
2.81247e-29
2.83241e-29
2.91966e-29
2.80742e-29
2.59724e-29
2.47751e-29
2.33046e-29
2.52883e-29
2.71295e-29
2.43937e-29
5.93401e-29
3.40706e-29
3.65249e-29
3.62211e-29
3.56175e-29
3.34092e-29
3.07833e-29
3.1722e-29
2.89264e-29
2.78576e-29
2.90666e-29
2.77664e-29
2.82069e-29
2.84667e-29
2.62379e-29
2.52217e-29
2.365e-29
2.53649e-29
2.84215e-29
3.36094e-29
2.72155e-29
3.54182e-29
3.43891e-29
3.53098e-29
3.37175e-29
3.36109e-29
3.25224e-29
3.23552e-29
2.95259e-29
2.87693e-29
2.70868e-29
2.59228e-29
2.73601e-29
2.76994e-29
2.85246e-29
2.65073e-29
2.38906e-29
2.4215e-29
2.70789e-29
3.76167e-29
1.65386e-29
3.36416e-29
3.33867e-29
3.56259e-29
3.43532e-29
3.61583e-29
3.22439e-29
3.17116e-29
2.92144e-29
2.76827e-29
2.64578e-29
2.80622e-29
2.8325e-29
2.79777e-29
2.66948e-29
2.67987e-29
2.50025e-29
2.36289e-29
2.58756e-29
1.8684e-29
5.19069e-29
3.51313e-29
3.44186e-29
3.47507e-29
3.42155e-29
3.35481e-29
3.34781e-29
3.15304e-29
2.94658e-29
2.77152e-29
2.60496e-29
2.67898e-29
2.91475e-29
2.9442e-29
2.5452e-29
2.8726e-29
2.54002e-29
2.26546e-29
2.42383e-29
)
;

boundaryField
{
    movingWall
    {
        type            calculated;
        value           nonuniform List<scalar> 
20
(
1.8684e-29
5.19069e-29
3.51313e-29
3.44186e-29
3.47507e-29
3.42155e-29
3.35481e-29
3.34781e-29
3.15304e-29
2.94658e-29
2.77152e-29
2.60496e-29
2.67898e-29
2.91475e-29
2.9442e-29
2.5452e-29
2.8726e-29
2.54002e-29
2.26546e-29
2.42383e-29
)
;
    }
    fixedWalls
    {
        type            calculated;
        value           nonuniform List<scalar> 
60
(
3.61262e-31
1.51787e-29
1.29961e-29
9.16191e-30
1.44547e-29
1.2805e-29
2.03053e-29
3.08279e-29
1.88276e-29
2.49977e-29
3.21478e-29
2.89549e-29
3.77848e-29
2.89174e-29
2.9365e-29
3.25045e-29
2.43937e-29
3.36094e-29
3.76167e-29
1.8684e-29
1.40914e-29
1.38484e-29
1.58224e-29
1.70014e-29
1.82987e-29
1.96339e-29
2.04904e-29
2.15054e-29
2.04798e-29
2.05939e-29
2.13692e-29
2.27377e-29
2.3139e-29
2.53685e-29
2.77301e-29
2.71295e-29
2.84215e-29
2.70789e-29
2.58756e-29
2.42383e-29
3.61262e-31
2.24051e-29
8.35464e-30
1.19375e-29
1.41629e-29
1.49219e-29
1.52983e-29
1.59646e-29
1.4923e-29
1.44922e-29
1.4836e-29
1.53899e-29
1.41772e-29
1.41761e-29
1.48811e-29
1.62864e-29
1.58305e-29
1.41936e-29
1.23465e-29
1.40914e-29
)
;
    }
    frontAndBack
    {
        type            empty;
    }
}


// ************************************************************************* //
