/*--------------------------------*- C++ -*----------------------------------*\
| =========                 |                                                 |
| \\      /  F ield         | OpenFOAM: The Open Source CFD Toolbox           |
|  \\    /   O peration     | Version:  2312                                  |
|   \\  /    A nd           | Website:  www.openfoam.com                      |
|    \\/     M anipulation  |                                                 |
\*---------------------------------------------------------------------------*/
FoamFile
{
    version     2.0;
    format      ascii;
    arch        "LSB;label=32;scalar=64";
    class       volVectorField;
    location    "9";
    object      momentum1:momentum;
}
// * * * * * * * * * * * * * * * * * * * * * * * * * * * * * * * * * * * * * //

dimensions      [1 1 -1 0 0 0 0];

internalField   nonuniform List<vector> 
400
(
(-2.5e-07 3.23677e-20 0)
(-2.5e-07 -6.78324e-21 0)
(-2.5e-07 1.63526e-21 0)
(-2.5e-07 -2.93381e-22 0)
(-2.5e-07 1.27403e-22 0)
(-2.5e-07 1.23371e-23 0)
(-2.5e-07 1.99134e-23 0)
(-2.5e-07 8.03084e-24 0)
(-2.5e-07 6.69272e-24 0)
(-2.5e-07 9.247e-24 0)
(-2.5e-07 7.63399e-24 0)
(-2.5e-07 7.65909e-24 0)
(-2.5e-07 -4.694e-24 0)
(-2.5e-07 3.16096e-23 0)
(-2.5e-07 4.07615e-23 0)
(-2.5e-07 3.79558e-23 0)
(-2.5e-07 1.03766e-23 0)
(-2.5e-07 -2.17506e-23 0)
(-2.5e-07 -1.84395e-23 0)
(-2.5e-07 1.59406e-24 0)
(-2.5e-07 5.27883e-21 0)
(-2.5e-07 -9.5845e-22 0)
(-2.5e-07 2.7895e-22 0)
(-2.5e-07 -2.6806e-23 0)
(-2.5e-07 1.26082e-23 0)
(-2.5e-07 -3.27689e-23 0)
(-2.5e-07 -3.88273e-23 0)
(-2.5e-07 -9.81134e-24 0)
(-2.5e-07 2.5016e-23 0)
(-2.5e-07 2.21788e-23 0)
(-2.5e-07 7.20731e-24 0)
(-2.5e-07 3.52716e-24 0)
(-2.5e-07 3.64061e-24 0)
(-2.5e-07 3.97476e-23 0)
(-2.5e-07 3.0192e-23 0)
(-2.5e-07 2.80391e-23 0)
(-2.5e-07 7.68011e-24 0)
(-2.5e-07 -2.91835e-23 0)
(-2.5e-07 -4.24608e-23 0)
(-2.5e-07 -1.59745e-23 0)
(-2.5e-07 -2.64476e-20 0)
(-2.5e-07 5.43499e-21 0)
(-2.5e-07 -1.33992e-21 0)
(-2.5e-07 2.24109e-22 0)
(-2.5e-07 -1.18843e-22 0)
(-2.5e-07 -2.54979e-23 0)
(-2.5e-07 -1.55189e-23 0)
(-2.5e-07 7.79921e-24 0)
(-2.5e-07 5.50587e-24 0)
(-2.5e-07 4.69527e-24 0)
(-2.5e-07 -9.17883e-24 0)
(-2.5e-07 -1.98104e-23 0)
(-2.5e-07 -1.62991e-23 0)
(-2.5e-07 -3.44204e-23 0)
(-2.5e-07 -3.08193e-23 0)
(-2.5e-07 -1.25122e-23 0)
(-2.5e-07 3.09215e-24 0)
(-2.5e-07 -2.29842e-24 0)
(-2.5e-07 -2.25448e-23 0)
(-2.5e-07 -2.36422e-23 0)
(-2.5e-07 1.15846e-20 0)
(-2.5e-07 -2.60778e-21 0)
(-2.5e-07 4.75159e-22 0)
(-2.5e-07 -1.74529e-22 0)
(-2.5e-07 2.78426e-24 0)
(-2.5e-07 8.53211e-24 0)
(-2.5e-07 3.74921e-23 0)
(-2.5e-07 2.92315e-23 0)
(-2.5e-07 1.20228e-23 0)
(-2.5e-07 2.34771e-23 0)
(-2.5e-07 8.88761e-24 0)
(-2.5e-07 6.4161e-24 0)
(-2.5e-07 4.44516e-24 0)
(-2.5e-07 -3.62131e-23 0)
(-2.5e-07 -3.42793e-23 0)
(-2.5e-07 -2.46867e-23 0)
(-2.5e-07 -1.72421e-23 0)
(-2.5e-07 -7.78941e-24 0)
(-2.5e-07 1.08412e-24 0)
(-2.5e-07 -1.36251e-23 0)
(-2.5e-07 7.28412e-21 0)
(-2.5e-07 -1.7409e-21 0)
(-2.5e-07 3.38909e-22 0)
(-2.5e-07 -1.27366e-22 0)
(-2.5e-07 2.87104e-24 0)
(-2.5e-07 -1.0958e-23 0)
(-2.5e-07 -1.49953e-23 0)
(-2.5e-07 -7.32346e-24 0)
(-2.5e-07 5.27518e-23 0)
(-2.5e-07 7.28411e-23 0)
(-2.5e-07 4.10406e-23 0)
(-2.5e-07 2.19141e-23 0)
(-2.5e-07 2.96469e-23 0)
(-2.5e-07 2.363e-23 0)
(-2.5e-07 -3.21316e-24 0)
(-2.5e-07 -2.85614e-23 0)
(-2.5e-07 -3.72517e-23 0)
(-2.5e-07 -2.90199e-23 0)
(-2.5e-07 -2.2075e-23 0)
(-2.5e-07 -1.84764e-23 0)
(-2.5e-07 -2.27576e-20 0)
(-2.5e-07 4.89144e-21 0)
(-2.5e-07 -1.14529e-21 0)
(-2.5e-07 2.31073e-22 0)
(-2.5e-07 -6.73917e-23 0)
(-2.5e-07 1.07926e-23 0)
(-2.5e-07 -8.35441e-24 0)
(-2.5e-07 -1.12423e-23 0)
(-2.5e-07 1.17389e-23 0)
(-2.5e-07 1.86322e-23 0)
(-2.5e-07 2.33847e-23 0)
(-2.5e-07 2.15904e-23 0)
(-2.5e-07 7.72222e-24 0)
(-2.5e-07 2.40447e-23 0)
(-2.5e-07 3.37496e-23 0)
(-2.5e-07 4.03364e-24 0)
(-2.5e-07 -9.69443e-24 0)
(-2.5e-07 -1.75187e-23 0)
(-2.5e-07 -2.81674e-23 0)
(-2.5e-07 -1.55594e-23 0)
(-2.5e-07 2.68734e-20 0)
(-2.5e-07 -5.60954e-21 0)
(-2.5e-07 1.31771e-21 0)
(-2.5e-07 -3.07007e-22 0)
(-2.5e-07 5.24646e-23 0)
(-2.5e-07 7.44675e-24 0)
(-2.5e-07 2.56552e-23 0)
(-2.5e-07 3.13387e-23 0)
(-2.5e-07 2.45369e-23 0)
(-2.5e-07 1.55326e-23 0)
(-2.5e-07 3.4366e-23 0)
(-2.5e-07 4.72091e-23 0)
(-2.5e-07 2.20014e-23 0)
(-2.5e-07 2.79245e-24 0)
(-2.5e-07 3.60711e-24 0)
(-2.5e-07 -5.58671e-24 0)
(-2.5e-07 -1.56835e-23 0)
(-2.5e-07 -2.78773e-23 0)
(-2.5e-07 -1.87489e-23 0)
(-2.5e-07 -1.31799e-23 0)
(-2.5e-07 -6.4701e-21 0)
(-2.5e-07 1.18364e-21 0)
(-2.5e-07 -3.32788e-22 0)
(-2.5e-07 3.94172e-23 0)
(-2.5e-07 -8.14813e-24 0)
(-2.5e-07 -2.23822e-24 0)
(-2.5e-07 -1.15403e-24 0)
(-2.5e-07 2.40037e-23 0)
(-2.5e-07 3.47634e-23 0)
(-2.5e-07 2.30382e-23 0)
(-2.5e-07 2.81077e-23 0)
(-2.5e-07 2.98462e-23 0)
(-2.5e-07 3.05958e-23 0)
(-2.5e-07 -1.4931e-24 0)
(-2.5e-07 -2.23377e-23 0)
(-2.5e-07 -1.03258e-23 0)
(-2.5e-07 -1.02243e-23 0)
(-2.5e-07 -2.74997e-23 0)
(-2.5e-07 -1.08532e-23 0)
(-2.5e-07 -1.92664e-25 0)
(-2.5e-07 -2.46778e-20 0)
(-2.5e-07 5.24877e-21 0)
(-2.5e-07 -1.2583e-21 0)
(-2.5e-07 2.73902e-22 0)
(-2.5e-07 -7.02108e-23 0)
(-2.5e-07 -2.56031e-23 0)
(-2.5e-07 -3.48036e-23 0)
(-2.5e-07 -3.47225e-23 0)
(-2.5e-07 -4.96869e-23 0)
(-2.5e-07 -4.76351e-23 0)
(-2.5e-07 -2.83111e-23 0)
(-2.5e-07 1.98117e-24 0)
(-2.5e-07 3.45235e-23 0)
(-2.5e-07 4.0218e-23 0)
(-2.5e-07 1.24581e-23 0)
(-2.5e-07 -1.80406e-23 0)
(-2.5e-07 -2.93401e-24 0)
(-2.5e-07 6.94745e-24 0)
(-2.5e-07 9.11536e-24 0)
(-2.5e-07 1.03464e-23 0)
(-2.5e-07 3.99066e-20 0)
(-2.5e-07 -8.53565e-21 0)
(-2.5e-07 2.03541e-21 0)
(-2.5e-07 -4.01053e-22 0)
(-2.5e-07 1.38907e-22 0)
(-2.5e-07 2.3764e-23 0)
(-2.5e-07 3.32499e-23 0)
(-2.5e-07 -8.94278e-24 0)
(-2.5e-07 -4.67267e-23 0)
(-2.5e-07 -5.64462e-23 0)
(-2.5e-07 -4.5384e-23 0)
(-2.5e-07 -3.7492e-23 0)
(-2.5e-07 -2.90902e-23 0)
(-2.5e-07 5.86413e-24 0)
(-2.5e-07 2.48117e-23 0)
(-2.5e-07 -2.88033e-24 0)
(-2.5e-07 -3.16018e-23 0)
(-2.5e-07 -1.2525e-23 0)
(-2.5e-07 4.86733e-24 0)
(-2.5e-07 -2.87838e-24 0)
(-2.5e-07 -3.29264e-20 0)
(-2.5e-07 7.20105e-21 0)
(-2.5e-07 -1.69277e-21 0)
(-2.5e-07 3.57338e-22 0)
(-2.5e-07 -7.87528e-23 0)
(-2.5e-07 2.56172e-23 0)
(-2.5e-07 1.9919e-23 0)
(-2.5e-07 3.51924e-23 0)
(-2.5e-07 2.2397e-23 0)
(-2.5e-07 -1.09271e-23 0)
(-2.5e-07 -2.0902e-23 0)
(-2.5e-07 -2.56128e-23 0)
(-2.5e-07 -1.42941e-23 0)
(-2.5e-07 -1.51548e-23 0)
(-2.5e-07 1.16968e-23 0)
(-2.5e-07 2.10426e-23 0)
(-2.5e-07 -1.27934e-23 0)
(-2.5e-07 -8.64816e-24 0)
(-2.5e-07 -8.16377e-25 0)
(-2.5e-07 -1.08308e-23 0)
(-2.5e-07 1.1818e-20 0)
(-2.5e-07 -2.53519e-21 0)
(-2.5e-07 5.93285e-22 0)
(-2.5e-07 -1.31726e-22 0)
(-2.5e-07 -2.77133e-24 0)
(-2.5e-07 -1.83862e-23 0)
(-2.5e-07 -1.32719e-23 0)
(-2.5e-07 -2.03536e-23 0)
(-2.5e-07 -2.3846e-23 0)
(-2.5e-07 -2.82934e-23 0)
(-2.5e-07 -3.63781e-23 0)
(-2.5e-07 -4.91111e-24 0)
(-2.5e-07 8.27027e-24 0)
(-2.5e-07 -1.32772e-23 0)
(-2.5e-07 -1.83373e-23 0)
(-2.5e-07 -5.91323e-24 0)
(-2.5e-07 1.57702e-23 0)
(-2.5e-07 2.67881e-23 0)
(-2.5e-07 1.5194e-23 0)
(-2.5e-07 -8.56747e-24 0)
(-2.5e-07 1.12163e-20 0)
(-2.5e-07 -2.48381e-21 0)
(-2.5e-07 6.20336e-22 0)
(-2.5e-07 -9.9988e-23 0)
(-2.5e-07 4.85651e-23 0)
(-2.5e-07 1.75964e-23 0)
(-2.5e-07 3.60671e-24 0)
(-2.5e-07 -3.84687e-23 0)
(-2.5e-07 -5.96366e-23 0)
(-2.5e-07 -5.82319e-23 0)
(-2.5e-07 -5.65961e-23 0)
(-2.5e-07 -6.47059e-23 0)
(-2.5e-07 -9.76118e-23 0)
(-2.5e-07 -9.48664e-23 0)
(-2.5e-07 -5.84942e-23 0)
(-2.5e-07 -1.63318e-23 0)
(-2.5e-07 -7.24283e-24 0)
(-2.5e-07 -1.19207e-23 0)
(-2.5e-07 -1.38203e-23 0)
(-2.5e-07 -1.66735e-23 0)
(-2.5e-07 -2.34839e-20 0)
(-2.5e-07 4.99139e-21 0)
(-2.5e-07 -1.15424e-21 0)
(-2.5e-07 2.62775e-22 0)
(-2.5e-07 -6.57715e-23 0)
(-2.5e-07 -3.72232e-23 0)
(-2.5e-07 -3.01366e-23 0)
(-2.5e-07 -2.01785e-23 0)
(-2.5e-07 -4.13038e-23 0)
(-2.5e-07 -4.27527e-23 0)
(-2.5e-07 -2.04172e-23 0)
(-2.5e-07 -3.42762e-23 0)
(-2.5e-07 -5.0776e-23 0)
(-2.5e-07 -5.32327e-23 0)
(-2.5e-07 -2.80448e-23 0)
(-2.5e-07 1.33893e-23 0)
(-2.5e-07 8.61267e-25 0)
(-2.5e-07 -3.78226e-23 0)
(-2.5e-07 -5.74666e-23 0)
(-2.5e-07 -2.972e-23 0)
(-2.5e-07 2.64779e-20 0)
(-2.5e-07 -5.63063e-21 0)
(-2.5e-07 1.32038e-21 0)
(-2.5e-07 -2.84378e-22 0)
(-2.5e-07 4.72251e-23 0)
(-2.5e-07 -6.13357e-23 0)
(-2.5e-07 -7.47397e-23 0)
(-2.5e-07 -8.55236e-23 0)
(-2.5e-07 -5.73942e-23 0)
(-2.5e-07 -1.69624e-23 0)
(-2.5e-07 -9.35444e-24 0)
(-2.5e-07 -1.38475e-23 0)
(-2.5e-07 -1.13671e-23 0)
(-2.5e-07 -8.83957e-25 0)
(-2.5e-07 -1.08867e-23 0)
(-2.5e-07 -8.64457e-24 0)
(-2.5e-07 -1.52893e-24 0)
(-2.5e-07 -5.17267e-25 0)
(-2.5e-07 -2.5432e-23 0)
(-2.5e-07 -1.06162e-23 0)
(-2.5e-07 -1.57489e-20 0)
(-2.5e-07 3.41923e-21 0)
(-2.5e-07 -8.02884e-22 0)
(-2.5e-07 1.39667e-22 0)
(-2.5e-07 -7.20131e-23 0)
(-2.5e-07 -3.05709e-23 0)
(-2.5e-07 -3.25117e-23 0)
(-2.5e-07 5.02374e-25 0)
(-2.5e-07 1.31905e-23 0)
(-2.5e-07 1.99593e-23 0)
(-2.5e-07 -6.16132e-24 0)
(-2.5e-07 -2.96607e-23 0)
(-2.5e-07 -2.69413e-23 0)
(-2.5e-07 -2.74564e-23 0)
(-2.5e-07 -6.88141e-23 0)
(-2.5e-07 -7.15321e-23 0)
(-2.5e-07 -3.93759e-23 0)
(-2.5e-07 -1.31095e-23 0)
(-2.5e-07 -1.04174e-23 0)
(-2.5e-07 -4.09789e-24 0)
(-2.5e-07 -6.58927e-21 0)
(-2.5e-07 1.50951e-21 0)
(-2.5e-07 -3.10029e-22 0)
(-2.5e-07 8.1903e-23 0)
(-2.5e-07 -2.39245e-23 0)
(-2.5e-07 -1.30899e-24 0)
(-2.5e-07 7.63236e-24 0)
(-2.5e-07 3.27208e-23 0)
(-2.5e-07 2.33285e-23 0)
(-2.5e-07 6.2645e-24 0)
(-2.5e-07 3.93075e-26 0)
(-2.5e-07 7.06041e-24 0)
(-2.5e-07 -3.60856e-24 0)
(-2.5e-07 -5.03759e-23 0)
(-2.5e-07 -7.80184e-23 0)
(-2.5e-07 -7.77017e-23 0)
(-2.5e-07 -5.1808e-23 0)
(-2.5e-07 -3.03958e-23 0)
(-2.5e-07 3.38866e-24 0)
(-2.5e-07 2.31713e-24 0)
(-2.5e-07 2.40887e-20 0)
(-2.5e-07 -5.03179e-21 0)
(-2.5e-07 1.22779e-21 0)
(-2.5e-07 -2.58405e-22 0)
(-2.5e-07 4.33939e-23 0)
(-2.5e-07 -2.06402e-23 0)
(-2.5e-07 -3.04401e-23 0)
(-2.5e-07 -2.36392e-23 0)
(-2.5e-07 -1.31094e-23 0)
(-2.5e-07 -1.98218e-23 0)
(-2.5e-07 -2.92212e-23 0)
(-2.5e-07 -3.64807e-23 0)
(-2.5e-07 -5.14351e-23 0)
(-2.5e-07 -2.07673e-23 0)
(-2.5e-07 1.16174e-23 0)
(-2.5e-07 7.66047e-24 0)
(-2.5e-07 -1.56196e-23 0)
(-2.5e-07 -1.45197e-23 0)
(-2.5e-07 1.56074e-23 0)
(-2.5e-07 1.91971e-23 0)
(-2.5e-07 -9.19784e-21 0)
(-2.5e-07 1.80517e-21 0)
(-2.5e-07 -4.92246e-22 0)
(-2.5e-07 6.83411e-23 0)
(-2.5e-07 -5.22072e-23 0)
(-2.5e-07 -2.89034e-23 0)
(-2.5e-07 -1.92777e-23 0)
(-2.5e-07 -1.75853e-23 0)
(-2.5e-07 -1.14234e-23 0)
(-2.5e-07 -2.4681e-23 0)
(-2.5e-07 -2.88835e-23 0)
(-2.5e-07 -4.48088e-23 0)
(-2.5e-07 -4.81088e-23 0)
(-2.5e-07 -1.70782e-23 0)
(-2.5e-07 1.18444e-23 0)
(-2.5e-07 2.96807e-23 0)
(-2.5e-07 -1.55355e-24 0)
(-2.5e-07 -5.76779e-24 0)
(-2.5e-07 1.23136e-23 0)
(-2.5e-07 1.90839e-23 0)
(-2.5e-07 -1.92561e-20 0)
(-2.5e-07 3.99795e-21 0)
(-2.5e-07 -1.00148e-21 0)
(-2.5e-07 2.06223e-22 0)
(-2.5e-07 -4.42265e-23 0)
(-2.5e-07 8.41736e-24 0)
(-2.5e-07 2.29632e-24 0)
(-2.5e-07 -2.67932e-23 0)
(-2.5e-07 -1.36224e-23 0)
(-2.5e-07 -9.18381e-24 0)
(-2.5e-07 3.37014e-25 0)
(-2.5e-07 -1.31809e-24 0)
(-2.5e-07 -6.4227e-24 0)
(-2.5e-07 -3.15972e-23 0)
(-2.5e-07 -2.92225e-23 0)
(-2.5e-07 -1.60748e-23 0)
(-2.5e-07 -1.76846e-23 0)
(-2.5e-07 2.01107e-24 0)
(-2.5e-07 1.57239e-23 0)
(-2.5e-07 1.13413e-23 0)
)
;

boundaryField
{
    movingWall
    {
        type            calculated;
        value           uniform (0 0 0);
    }
    fixedWalls
    {
        type            calculated;
        value           uniform (0 0 0);
    }
    frontAndBack
    {
        type            empty;
    }
}


// ************************************************************************* //
