/*--------------------------------*- C++ -*----------------------------------*\
| =========                 |                                                 |
| \\      /  F ield         | OpenFOAM: The Open Source CFD Toolbox           |
|  \\    /   O peration     | Version:  2312                                  |
|   \\  /    A nd           | Website:  www.openfoam.com                      |
|    \\/     M anipulation  |                                                 |
\*---------------------------------------------------------------------------*/
FoamFile
{
    version     2.0;
    format      ascii;
    arch        "LSB;label=32;scalar=64";
    class       volVectorField;
    location    "9";
    object      norm_U_composite;
}
// * * * * * * * * * * * * * * * * * * * * * * * * * * * * * * * * * * * * * //

dimensions      [0 0 0 0 0 0 0];

internalField   nonuniform List<vector> 
400
(
(-0.5 6.47354e-14 0)
(-0.5 -1.35665e-14 0)
(-0.5 3.27053e-15 0)
(-0.5 -5.86763e-16 0)
(-0.5 2.54806e-16 0)
(-0.5 2.46741e-17 0)
(-0.5 3.98268e-17 0)
(-0.5 1.60617e-17 0)
(-0.5 1.33854e-17 0)
(-0.5 1.8494e-17 0)
(-0.5 1.5268e-17 0)
(-0.5 1.53182e-17 0)
(-0.5 -9.388e-18 0)
(-0.5 6.32192e-17 0)
(-0.5 8.15229e-17 0)
(-0.5 7.59115e-17 0)
(-0.5 2.07531e-17 0)
(-0.5 -4.35012e-17 0)
(-0.5 -3.6879e-17 0)
(-0.5 3.18813e-18 0)
(-0.5 1.05577e-14 0)
(-0.5 -1.9169e-15 0)
(-0.5 5.57899e-16 0)
(-0.5 -5.3612e-17 0)
(-0.5 2.52163e-17 0)
(-0.5 -6.55377e-17 0)
(-0.5 -7.76546e-17 0)
(-0.5 -1.96227e-17 0)
(-0.5 5.0032e-17 0)
(-0.5 4.43577e-17 0)
(-0.5 1.44146e-17 0)
(-0.5 7.05431e-18 0)
(-0.5 7.28122e-18 0)
(-0.5 7.94953e-17 0)
(-0.5 6.03839e-17 0)
(-0.5 5.60783e-17 0)
(-0.5 1.53602e-17 0)
(-0.5 -5.83669e-17 0)
(-0.5 -8.49216e-17 0)
(-0.5 -3.19489e-17 0)
(-0.5 -5.28952e-14 0)
(-0.5 1.087e-14 0)
(-0.5 -2.67984e-15 0)
(-0.5 4.48218e-16 0)
(-0.5 -2.37686e-16 0)
(-0.5 -5.09958e-17 0)
(-0.5 -3.10378e-17 0)
(-0.5 1.55984e-17 0)
(-0.5 1.10117e-17 0)
(-0.5 9.39053e-18 0)
(-0.5 -1.83577e-17 0)
(-0.5 -3.96208e-17 0)
(-0.5 -3.25983e-17 0)
(-0.5 -6.88409e-17 0)
(-0.5 -6.16387e-17 0)
(-0.5 -2.50244e-17 0)
(-0.5 6.18431e-18 0)
(-0.5 -4.59684e-18 0)
(-0.5 -4.50897e-17 0)
(-0.5 -4.72844e-17 0)
(-0.5 2.31692e-14 0)
(-0.5 -5.21556e-15 0)
(-0.5 9.50319e-16 0)
(-0.5 -3.49059e-16 0)
(-0.5 5.56853e-18 0)
(-0.5 1.70642e-17 0)
(-0.5 7.49841e-17 0)
(-0.5 5.84631e-17 0)
(-0.5 2.40455e-17 0)
(-0.5 4.69542e-17 0)
(-0.5 1.77752e-17 0)
(-0.5 1.28322e-17 0)
(-0.5 8.89032e-18 0)
(-0.5 -7.24261e-17 0)
(-0.5 -6.85587e-17 0)
(-0.5 -4.93733e-17 0)
(-0.5 -3.44841e-17 0)
(-0.5 -1.55788e-17 0)
(-0.5 2.16825e-18 0)
(-0.5 -2.72502e-17 0)
(-0.5 1.45682e-14 0)
(-0.5 -3.4818e-15 0)
(-0.5 6.77818e-16 0)
(-0.5 -2.54733e-16 0)
(-0.5 5.74207e-18 0)
(-0.5 -2.1916e-17 0)
(-0.5 -2.99907e-17 0)
(-0.5 -1.46469e-17 0)
(-0.5 1.05504e-16 0)
(-0.5 1.45682e-16 0)
(-0.5 8.20813e-17 0)
(-0.5 4.38281e-17 0)
(-0.5 5.92937e-17 0)
(-0.5 4.72601e-17 0)
(-0.5 -6.42632e-18 0)
(-0.5 -5.71228e-17 0)
(-0.5 -7.45034e-17 0)
(-0.5 -5.80398e-17 0)
(-0.5 -4.415e-17 0)
(-0.5 -3.69528e-17 0)
(-0.5 -4.55152e-14 0)
(-0.5 9.78288e-15 0)
(-0.5 -2.29058e-15 0)
(-0.5 4.62145e-16 0)
(-0.5 -1.34783e-16 0)
(-0.5 2.15851e-17 0)
(-0.5 -1.67088e-17 0)
(-0.5 -2.24845e-17 0)
(-0.5 2.34777e-17 0)
(-0.5 3.72645e-17 0)
(-0.5 4.67695e-17 0)
(-0.5 4.31808e-17 0)
(-0.5 1.54444e-17 0)
(-0.5 4.80893e-17 0)
(-0.5 6.74992e-17 0)
(-0.5 8.06729e-18 0)
(-0.5 -1.93889e-17 0)
(-0.5 -3.50374e-17 0)
(-0.5 -5.63349e-17 0)
(-0.5 -3.11188e-17 0)
(-0.5 5.37469e-14 0)
(-0.5 -1.12191e-14 0)
(-0.5 2.63542e-15 0)
(-0.5 -6.14014e-16 0)
(-0.5 1.04929e-16 0)
(-0.5 1.48935e-17 0)
(-0.5 5.13103e-17 0)
(-0.5 6.26774e-17 0)
(-0.5 4.90738e-17 0)
(-0.5 3.10652e-17 0)
(-0.5 6.87321e-17 0)
(-0.5 9.44183e-17 0)
(-0.5 4.40028e-17 0)
(-0.5 5.5849e-18 0)
(-0.5 7.21422e-18 0)
(-0.5 -1.11734e-17 0)
(-0.5 -3.1367e-17 0)
(-0.5 -5.57547e-17 0)
(-0.5 -3.74977e-17 0)
(-0.5 -2.63599e-17 0)
(-0.5 -1.29402e-14 0)
(-0.5 2.36728e-15 0)
(-0.5 -6.65577e-16 0)
(-0.5 7.88344e-17 0)
(-0.5 -1.62963e-17 0)
(-0.5 -4.47643e-18 0)
(-0.5 -2.30806e-18 0)
(-0.5 4.80074e-17 0)
(-0.5 6.95268e-17 0)
(-0.5 4.60763e-17 0)
(-0.5 5.62154e-17 0)
(-0.5 5.96923e-17 0)
(-0.5 6.11916e-17 0)
(-0.5 -2.98619e-18 0)
(-0.5 -4.46754e-17 0)
(-0.5 -2.06516e-17 0)
(-0.5 -2.04486e-17 0)
(-0.5 -5.49993e-17 0)
(-0.5 -2.17064e-17 0)
(-0.5 -3.85328e-19 0)
(-0.5 -4.93555e-14 0)
(-0.5 1.04975e-14 0)
(-0.5 -2.5166e-15 0)
(-0.5 5.47804e-16 0)
(-0.5 -1.40422e-16 0)
(-0.5 -5.12063e-17 0)
(-0.5 -6.96071e-17 0)
(-0.5 -6.9445e-17 0)
(-0.5 -9.93737e-17 0)
(-0.5 -9.52702e-17 0)
(-0.5 -5.66222e-17 0)
(-0.5 3.96234e-18 0)
(-0.5 6.9047e-17 0)
(-0.5 8.04359e-17 0)
(-0.5 2.49161e-17 0)
(-0.5 -3.60811e-17 0)
(-0.5 -5.86803e-18 0)
(-0.5 1.38949e-17 0)
(-0.5 1.82307e-17 0)
(-0.5 2.06927e-17 0)
(-0.5 7.98132e-14 0)
(-0.5 -1.70713e-14 0)
(-0.5 4.07083e-15 0)
(-0.5 -8.02105e-16 0)
(-0.5 2.77815e-16 0)
(-0.5 4.75279e-17 0)
(-0.5 6.64998e-17 0)
(-0.5 -1.78856e-17 0)
(-0.5 -9.34533e-17 0)
(-0.5 -1.12892e-16 0)
(-0.5 -9.0768e-17 0)
(-0.5 -7.4984e-17 0)
(-0.5 -5.81803e-17 0)
(-0.5 1.17283e-17 0)
(-0.5 4.96234e-17 0)
(-0.5 -5.76066e-18 0)
(-0.5 -6.32036e-17 0)
(-0.5 -2.505e-17 0)
(-0.5 9.73466e-18 0)
(-0.5 -5.75676e-18 0)
(-0.5 -6.58529e-14 0)
(-0.5 1.44021e-14 0)
(-0.5 -3.38554e-15 0)
(-0.5 7.14677e-16 0)
(-0.5 -1.57506e-16 0)
(-0.5 5.12345e-17 0)
(-0.5 3.98379e-17 0)
(-0.5 7.03848e-17 0)
(-0.5 4.4794e-17 0)
(-0.5 -2.18542e-17 0)
(-0.5 -4.1804e-17 0)
(-0.5 -5.12256e-17 0)
(-0.5 -2.85882e-17 0)
(-0.5 -3.03096e-17 0)
(-0.5 2.33937e-17 0)
(-0.5 4.20853e-17 0)
(-0.5 -2.55868e-17 0)
(-0.5 -1.72963e-17 0)
(-0.5 -1.63275e-18 0)
(-0.5 -2.16616e-17 0)
(-0.5 2.36359e-14 0)
(-0.5 -5.07038e-15 0)
(-0.5 1.18657e-15 0)
(-0.5 -2.63452e-16 0)
(-0.5 -5.54265e-18 0)
(-0.5 -3.67725e-17 0)
(-0.5 -2.65437e-17 0)
(-0.5 -4.07072e-17 0)
(-0.5 -4.7692e-17 0)
(-0.5 -5.65867e-17 0)
(-0.5 -7.27562e-17 0)
(-0.5 -9.82222e-18 0)
(-0.5 1.65405e-17 0)
(-0.5 -2.65544e-17 0)
(-0.5 -3.66746e-17 0)
(-0.5 -1.18265e-17 0)
(-0.5 3.15404e-17 0)
(-0.5 5.35762e-17 0)
(-0.5 3.0388e-17 0)
(-0.5 -1.71349e-17 0)
(-0.5 2.24326e-14 0)
(-0.5 -4.96762e-15 0)
(-0.5 1.24067e-15 0)
(-0.5 -1.99976e-16 0)
(-0.5 9.71302e-17 0)
(-0.5 3.51929e-17 0)
(-0.5 7.21343e-18 0)
(-0.5 -7.69373e-17 0)
(-0.5 -1.19273e-16 0)
(-0.5 -1.16464e-16 0)
(-0.5 -1.13192e-16 0)
(-0.5 -1.29412e-16 0)
(-0.5 -1.95224e-16 0)
(-0.5 -1.89733e-16 0)
(-0.5 -1.16988e-16 0)
(-0.5 -3.26636e-17 0)
(-0.5 -1.44857e-17 0)
(-0.5 -2.38413e-17 0)
(-0.5 -2.76406e-17 0)
(-0.5 -3.3347e-17 0)
(-0.5 -4.69679e-14 0)
(-0.5 9.98278e-15 0)
(-0.5 -2.30848e-15 0)
(-0.5 5.2555e-16 0)
(-0.5 -1.31543e-16 0)
(-0.5 -7.44464e-17 0)
(-0.5 -6.02733e-17 0)
(-0.5 -4.03569e-17 0)
(-0.5 -8.26076e-17 0)
(-0.5 -8.55053e-17 0)
(-0.5 -4.08345e-17 0)
(-0.5 -6.85524e-17 0)
(-0.5 -1.01552e-16 0)
(-0.5 -1.06465e-16 0)
(-0.5 -5.60896e-17 0)
(-0.5 2.67786e-17 0)
(-0.5 1.72253e-18 0)
(-0.5 -7.56452e-17 0)
(-0.5 -1.14933e-16 0)
(-0.5 -5.944e-17 0)
(-0.5 5.29558e-14 0)
(-0.5 -1.12613e-14 0)
(-0.5 2.64075e-15 0)
(-0.5 -5.68755e-16 0)
(-0.5 9.44502e-17 0)
(-0.5 -1.22671e-16 0)
(-0.5 -1.49479e-16 0)
(-0.5 -1.71047e-16 0)
(-0.5 -1.14788e-16 0)
(-0.5 -3.39248e-17 0)
(-0.5 -1.87089e-17 0)
(-0.5 -2.76949e-17 0)
(-0.5 -2.27341e-17 0)
(-0.5 -1.76791e-18 0)
(-0.5 -2.17734e-17 0)
(-0.5 -1.72891e-17 0)
(-0.5 -3.05786e-18 0)
(-0.5 -1.03453e-18 0)
(-0.5 -5.0864e-17 0)
(-0.5 -2.12324e-17 0)
(-0.5 -3.14977e-14 0)
(-0.5 6.83846e-15 0)
(-0.5 -1.60577e-15 0)
(-0.5 2.79334e-16 0)
(-0.5 -1.44026e-16 0)
(-0.5 -6.11418e-17 0)
(-0.5 -6.50234e-17 0)
(-0.5 1.00475e-18 0)
(-0.5 2.63809e-17 0)
(-0.5 3.99185e-17 0)
(-0.5 -1.23226e-17 0)
(-0.5 -5.93215e-17 0)
(-0.5 -5.38826e-17 0)
(-0.5 -5.49129e-17 0)
(-0.5 -1.37628e-16 0)
(-0.5 -1.43064e-16 0)
(-0.5 -7.87518e-17 0)
(-0.5 -2.62189e-17 0)
(-0.5 -2.08348e-17 0)
(-0.5 -8.19579e-18 0)
(-0.5 -1.31785e-14 0)
(-0.5 3.01901e-15 0)
(-0.5 -6.20059e-16 0)
(-0.5 1.63806e-16 0)
(-0.5 -4.78489e-17 0)
(-0.5 -2.61799e-18 0)
(-0.5 1.52647e-17 0)
(-0.5 6.54416e-17 0)
(-0.5 4.6657e-17 0)
(-0.5 1.2529e-17 0)
(-0.5 7.86151e-20 0)
(-0.5 1.41208e-17 0)
(-0.5 -7.21711e-18 0)
(-0.5 -1.00752e-16 0)
(-0.5 -1.56037e-16 0)
(-0.5 -1.55403e-16 0)
(-0.5 -1.03616e-16 0)
(-0.5 -6.07917e-17 0)
(-0.5 6.77733e-18 0)
(-0.5 4.63425e-18 0)
(-0.5 4.81774e-14 0)
(-0.5 -1.00636e-14 0)
(-0.5 2.45557e-15 0)
(-0.5 -5.1681e-16 0)
(-0.5 8.67878e-17 0)
(-0.5 -4.12804e-17 0)
(-0.5 -6.08801e-17 0)
(-0.5 -4.72784e-17 0)
(-0.5 -2.62188e-17 0)
(-0.5 -3.96435e-17 0)
(-0.5 -5.84424e-17 0)
(-0.5 -7.29615e-17 0)
(-0.5 -1.0287e-16 0)
(-0.5 -4.15347e-17 0)
(-0.5 2.32349e-17 0)
(-0.5 1.53209e-17 0)
(-0.5 -3.12392e-17 0)
(-0.5 -2.90393e-17 0)
(-0.5 3.12149e-17 0)
(-0.5 3.83942e-17 0)
(-0.5 -1.83957e-14 0)
(-0.5 3.61034e-15 0)
(-0.5 -9.84491e-16 0)
(-0.5 1.36682e-16 0)
(-0.5 -1.04414e-16 0)
(-0.5 -5.78067e-17 0)
(-0.5 -3.85554e-17 0)
(-0.5 -3.51705e-17 0)
(-0.5 -2.28468e-17 0)
(-0.5 -4.93619e-17 0)
(-0.5 -5.77669e-17 0)
(-0.5 -8.96177e-17 0)
(-0.5 -9.62175e-17 0)
(-0.5 -3.41564e-17 0)
(-0.5 2.36888e-17 0)
(-0.5 5.93614e-17 0)
(-0.5 -3.10709e-18 0)
(-0.5 -1.15356e-17 0)
(-0.5 2.46273e-17 0)
(-0.5 3.81677e-17 0)
(-0.5 -3.85121e-14 0)
(-0.5 7.9959e-15 0)
(-0.5 -2.00296e-15 0)
(-0.5 4.12446e-16 0)
(-0.5 -8.8453e-17 0)
(-0.5 1.68347e-17 0)
(-0.5 4.59264e-18 0)
(-0.5 -5.35863e-17 0)
(-0.5 -2.72447e-17 0)
(-0.5 -1.83676e-17 0)
(-0.5 6.74029e-19 0)
(-0.5 -2.63618e-18 0)
(-0.5 -1.28454e-17 0)
(-0.5 -6.31944e-17 0)
(-0.5 -5.8445e-17 0)
(-0.5 -3.21497e-17 0)
(-0.5 -3.53692e-17 0)
(-0.5 4.02213e-18 0)
(-0.5 3.14478e-17 0)
(-0.5 2.26826e-17 0)
)
;

boundaryField
{
    movingWall
    {
        type            calculated;
        value           uniform (-0.5 -0 -0);
    }
    fixedWalls
    {
        type            calculated;
        value           uniform (-0.5 -0 -0);
    }
    frontAndBack
    {
        type            empty;
    }
}


// ************************************************************************* //
