/*--------------------------------*- C++ -*----------------------------------*\
| =========                 |                                                 |
| \\      /  F ield         | OpenFOAM: The Open Source CFD Toolbox           |
|  \\    /   O peration     | Version:  2312                                  |
|   \\  /    A nd           | Website:  www.openfoam.com                      |
|    \\/     M anipulation  |                                                 |
\*---------------------------------------------------------------------------*/
FoamFile
{
    version     2.0;
    format      ascii;
    arch        "LSB;label=32;scalar=64";
    class       volScalarField;
    location    "9";
    object      norm_k_field;
}
// * * * * * * * * * * * * * * * * * * * * * * * * * * * * * * * * * * * * * //

dimensions      [0 0 0 0 0 0 0];

internalField   nonuniform List<scalar> 
400
(
1.91333e+09
5.34296e+08
7.87402e+08
6.87607e+08
6.43103e+08
6.29941e+08
6.23731e+08
6.1321e+08
6.29923e+08
6.37284e+08
6.31387e+08
6.2225e+08
6.42847e+08
6.42867e+08
6.30627e+08
6.0833e+08
6.15281e+08
6.42553e+08
6.78666e+08
6.44389e+08
6.35132e+08
3.1096e+09
7.5518e+08
7.52509e+08
6.77329e+08
6.44935e+08
6.44008e+08
6.24457e+08
6.3014e+08
6.44209e+08
6.39174e+08
6.28062e+08
6.23845e+08
6.6908e+08
6.55943e+08
6.26479e+08
6.30737e+08
6.34745e+08
6.60832e+08
6.58536e+08
6.91397e+08
6.88759e+08
7.41239e+08
6.90003e+08
6.76396e+08
6.51831e+08
6.44101e+08
6.37999e+08
6.47923e+08
6.47412e+08
6.60972e+08
6.46243e+08
6.3945e+08
6.76748e+08
6.46959e+08
6.39886e+08
6.62492e+08
6.71764e+08
6.60987e+08
6.39536e+08
8.10504e+08
5.55905e+08
6.91533e+08
6.55316e+08
6.39453e+08
6.41882e+08
6.47452e+08
6.73429e+08
6.51116e+08
6.59286e+08
6.77811e+08
6.723e+08
6.62699e+08
6.66761e+08
6.44164e+08
6.50994e+08
6.73293e+08
6.89848e+08
6.73959e+08
6.3696e+08
6.94066e+08
8.86048e+08
6.33359e+08
6.40882e+08
6.2326e+08
6.38365e+08
6.37181e+08
6.50646e+08
6.46164e+08
6.89719e+08
6.93753e+08
6.89659e+08
7.03609e+08
6.83003e+08
6.70677e+08
6.59757e+08
6.64579e+08
6.72851e+08
6.65618e+08
6.31405e+08
7.3926e+08
5.50821e+08
6.32505e+08
6.17009e+08
6.07979e+08
6.33017e+08
6.36324e+08
6.22218e+08
6.52058e+08
7.02941e+08
7.08427e+08
6.96383e+08
7.20449e+08
7.14927e+08
6.85232e+08
6.64796e+08
6.6665e+08
6.70724e+08
6.48756e+08
6.23111e+08
6.21126e+08
4.7692e+08
6.22124e+08
6.01698e+08
6.00872e+08
6.2345e+08
6.29404e+08
6.13415e+08
6.22401e+08
6.7518e+08
7.19197e+08
7.14814e+08
6.9862e+08
7.15632e+08
7.16432e+08
6.80304e+08
6.66995e+08
6.645e+08
6.5268e+08
6.18728e+08
5.25466e+08
1.65012e+09
5.99105e+08
6.08102e+08
5.79123e+08
6.10233e+08
6.07658e+08
6.00376e+08
6.07203e+08
6.46742e+08
7.0694e+08
7.2751e+08
7.1264e+08
7.15682e+08
6.97263e+08
6.76414e+08
6.65951e+08
6.48226e+08
6.47664e+08
6.10652e+08
6.47674e+08
3.74879e+08
5.68613e+08
5.67319e+08
5.95158e+08
5.97132e+08
5.84382e+08
5.90379e+08
6.00739e+08
6.31506e+08
6.70959e+08
6.88446e+08
6.87581e+08
6.95499e+08
6.79824e+08
6.69125e+08
6.60105e+08
6.38453e+08
6.40149e+08
6.25731e+08
5.78079e+08
5.9748e+08
5.56185e+08
5.55874e+08
5.70411e+08
5.84035e+08
5.87535e+08
5.8065e+08
5.78863e+08
6.08446e+08
6.38355e+08
6.5739e+08
6.66468e+08
6.8427e+08
6.78256e+08
6.45638e+08
6.41747e+08
6.32404e+08
6.34428e+08
6.26178e+08
5.21202e+08
8.08247e+08
5.41359e+08
5.56159e+08
5.62393e+08
5.63717e+08
5.55696e+08
5.64526e+08
5.8178e+08
6.00239e+08
6.27269e+08
6.3671e+08
6.27448e+08
6.40802e+08
6.45714e+08
6.3212e+08
6.30589e+08
6.173e+08
6.24967e+08
6.1818e+08
5.45914e+08
3.72514e+08
5.49213e+08
5.2265e+08
5.42065e+08
5.35011e+08
5.51073e+08
5.60222e+08
5.80668e+08
5.88562e+08
6.00898e+08
5.91743e+08
6.11698e+08
6.2267e+08
6.35229e+08
6.14438e+08
6.15802e+08
6.27771e+08
6.2197e+08
6.03793e+08
4.88384e+08
1.24156e+09
5.23764e+08
5.52984e+08
5.2363e+08
5.4273e+08
5.41762e+08
5.60394e+08
5.7171e+08
5.75025e+08
5.60973e+08
5.85993e+08
5.89801e+08
5.85186e+08
6.13551e+08
6.11634e+08
6.11099e+08
6.12882e+08
6.20334e+08
6.00642e+08
5.48456e+08
3.99236e+08
5.31171e+08
5.09863e+08
5.10989e+08
5.21299e+08
5.4324e+08
5.6293e+08
5.71764e+08
5.67764e+08
5.74148e+08
5.74505e+08
5.61186e+08
5.567e+08
5.8825e+08
6.06636e+08
6.04037e+08
6.04331e+08
6.06997e+08
5.79327e+08
5.46135e+08
5.42418e+08
5.02956e+08
5.14566e+08
5.09847e+08
5.13708e+08
5.42721e+08
5.53309e+08
5.52688e+08
5.39162e+08
5.52653e+08
5.60869e+08
5.66886e+08
5.52798e+08
5.7164e+08
6.09445e+08
6.11319e+08
5.97609e+08
5.83435e+08
5.59384e+08
5.2436e+08
6.55879e+08
5.04473e+08
5.09591e+08
5.06047e+08
5.2841e+08
5.32918e+08
5.25011e+08
5.28517e+08
5.48025e+08
5.67158e+08
5.57397e+08
5.55739e+08
5.48676e+08
5.57809e+08
5.76308e+08
5.87765e+08
6.02891e+08
5.82763e+08
5.65882e+08
5.93057e+08
4.04696e+08
5.15147e+08
5.00034e+08
5.01819e+08
5.0544e+08
5.19446e+08
5.37828e+08
5.31013e+08
5.52146e+08
5.60963e+08
5.51013e+08
5.61728e+08
5.58019e+08
5.55867e+08
5.75215e+08
5.84782e+08
6.00638e+08
5.83401e+08
5.56234e+08
5.1928e+08
5.6777e+08
5.07764e+08
5.14203e+08
5.08416e+08
5.18535e+08
5.19227e+08
5.26555e+08
5.27702e+08
5.48566e+08
5.54598e+08
5.68827e+08
5.79377e+08
5.6643e+08
5.63499e+08
5.56584e+08
5.73989e+08
5.99407e+08
5.96058e+08
5.6888e+08
4.9565e+08
6.97802e+08
5.19916e+08
5.216e+08
5.07323e+08
5.15273e+08
5.04096e+08
5.29363e+08
5.33114e+08
5.51943e+08
5.64596e+08
5.7541e+08
5.61365e+08
5.59165e+08
5.62072e+08
5.73253e+08
5.72319e+08
5.89153e+08
6.03153e+08
5.80774e+08
6.64782e+08
4.31255e+08
5.10786e+08
5.1528e+08
5.1317e+08
5.16584e+08
5.20945e+08
5.21409e+08
5.34873e+08
5.50429e+08
5.64814e+08
5.79679e+08
5.7292e+08
5.52958e+08
5.50617e+08
5.85325e+08
5.56364e+08
5.85823e+08
6.1432e+08
5.97357e+08
)
;

boundaryField
{
    movingWall
    {
        type            calculated;
        value           nonuniform List<scalar> 
20
(
6.64782e+08
4.31255e+08
5.10786e+08
5.1528e+08
5.1317e+08
5.16584e+08
5.20945e+08
5.21409e+08
5.34873e+08
5.50429e+08
5.64814e+08
5.79679e+08
5.7292e+08
5.52958e+08
5.50617e+08
5.85325e+08
5.56364e+08
5.85823e+08
6.1432e+08
5.97357e+08
)
;
    }
    fixedWalls
    {
        type            calculated;
        value           nonuniform List<scalar> 
60
(
1.91333e+09
6.35132e+08
6.91397e+08
8.10504e+08
6.94066e+08
7.3926e+08
6.21126e+08
5.25466e+08
6.47674e+08
5.78079e+08
5.21202e+08
5.45914e+08
4.88384e+08
5.48456e+08
5.46135e+08
5.2436e+08
5.93057e+08
5.1928e+08
4.9565e+08
6.64782e+08
6.44389e+08
6.58536e+08
6.39536e+08
6.3696e+08
6.31405e+08
6.23111e+08
6.18728e+08
6.10652e+08
6.25731e+08
6.26178e+08
6.1818e+08
6.03793e+08
6.00642e+08
5.79327e+08
5.59384e+08
5.65882e+08
5.56234e+08
5.6888e+08
5.80774e+08
5.97357e+08
1.91333e+09
5.34296e+08
7.87402e+08
6.87607e+08
6.43103e+08
6.29941e+08
6.23731e+08
6.1321e+08
6.29923e+08
6.37284e+08
6.31387e+08
6.2225e+08
6.42847e+08
6.42867e+08
6.30627e+08
6.0833e+08
6.15281e+08
6.42553e+08
6.78666e+08
6.44389e+08
)
;
    }
    frontAndBack
    {
        type            empty;
    }
}


// ************************************************************************* //
