/*--------------------------------*- C++ -*----------------------------------*\
| =========                 |                                                 |
| \\      /  F ield         | OpenFOAM: The Open Source CFD Toolbox           |
|  \\    /   O peration     | Version:  2312                                  |
|   \\  /    A nd           | Website:  www.openfoam.com                      |
|    \\/     M anipulation  |                                                 |
\*---------------------------------------------------------------------------*/
FoamFile
{
    version     2.0;
    format      ascii;
    arch        "LSB;label=32;scalar=64";
    class       volVectorField;
    location    "9";
    object      norm_U_L1;
}
// * * * * * * * * * * * * * * * * * * * * * * * * * * * * * * * * * * * * * //

dimensions      [0 0 0 0 0 0 0];

internalField   nonuniform List<vector> 
400
(
(-0.0025 3.23677e-16 0)
(-0.0025 -6.78324e-17 0)
(-0.0025 1.63526e-17 0)
(-0.0025 -2.93381e-18 0)
(-0.0025 1.27403e-18 0)
(-0.0025 1.23371e-19 0)
(-0.0025 1.99134e-19 0)
(-0.0025 8.03084e-20 0)
(-0.0025 6.69272e-20 0)
(-0.0025 9.247e-20 0)
(-0.0025 7.63399e-20 0)
(-0.0025 7.65909e-20 0)
(-0.0025 -4.694e-20 0)
(-0.0025 3.16096e-19 0)
(-0.0025 4.07615e-19 0)
(-0.0025 3.79558e-19 0)
(-0.0025 1.03766e-19 0)
(-0.0025 -2.17506e-19 0)
(-0.0025 -1.84395e-19 0)
(-0.0025 1.59406e-20 0)
(-0.0025 5.27883e-17 0)
(-0.0025 -9.5845e-18 0)
(-0.0025 2.7895e-18 0)
(-0.0025 -2.6806e-19 0)
(-0.0025 1.26082e-19 0)
(-0.0025 -3.27689e-19 0)
(-0.0025 -3.88273e-19 0)
(-0.0025 -9.81134e-20 0)
(-0.0025 2.5016e-19 0)
(-0.0025 2.21788e-19 0)
(-0.0025 7.20731e-20 0)
(-0.0025 3.52716e-20 0)
(-0.0025 3.64061e-20 0)
(-0.0025 3.97476e-19 0)
(-0.0025 3.0192e-19 0)
(-0.0025 2.80391e-19 0)
(-0.0025 7.68011e-20 0)
(-0.0025 -2.91835e-19 0)
(-0.0025 -4.24608e-19 0)
(-0.0025 -1.59745e-19 0)
(-0.0025 -2.64476e-16 0)
(-0.0025 5.43499e-17 0)
(-0.0025 -1.33992e-17 0)
(-0.0025 2.24109e-18 0)
(-0.0025 -1.18843e-18 0)
(-0.0025 -2.54979e-19 0)
(-0.0025 -1.55189e-19 0)
(-0.0025 7.79921e-20 0)
(-0.0025 5.50587e-20 0)
(-0.0025 4.69527e-20 0)
(-0.0025 -9.17883e-20 0)
(-0.0025 -1.98104e-19 0)
(-0.0025 -1.62991e-19 0)
(-0.0025 -3.44204e-19 0)
(-0.0025 -3.08193e-19 0)
(-0.0025 -1.25122e-19 0)
(-0.0025 3.09215e-20 0)
(-0.0025 -2.29842e-20 0)
(-0.0025 -2.25448e-19 0)
(-0.0025 -2.36422e-19 0)
(-0.0025 1.15846e-16 0)
(-0.0025 -2.60778e-17 0)
(-0.0025 4.75159e-18 0)
(-0.0025 -1.74529e-18 0)
(-0.0025 2.78426e-20 0)
(-0.0025 8.53211e-20 0)
(-0.0025 3.74921e-19 0)
(-0.0025 2.92315e-19 0)
(-0.0025 1.20228e-19 0)
(-0.0025 2.34771e-19 0)
(-0.0025 8.88761e-20 0)
(-0.0025 6.4161e-20 0)
(-0.0025 4.44516e-20 0)
(-0.0025 -3.62131e-19 0)
(-0.0025 -3.42793e-19 0)
(-0.0025 -2.46867e-19 0)
(-0.0025 -1.72421e-19 0)
(-0.0025 -7.78941e-20 0)
(-0.0025 1.08412e-20 0)
(-0.0025 -1.36251e-19 0)
(-0.0025 7.28412e-17 0)
(-0.0025 -1.7409e-17 0)
(-0.0025 3.38909e-18 0)
(-0.0025 -1.27366e-18 0)
(-0.0025 2.87104e-20 0)
(-0.0025 -1.0958e-19 0)
(-0.0025 -1.49953e-19 0)
(-0.0025 -7.32346e-20 0)
(-0.0025 5.27518e-19 0)
(-0.0025 7.28411e-19 0)
(-0.0025 4.10406e-19 0)
(-0.0025 2.19141e-19 0)
(-0.0025 2.96469e-19 0)
(-0.0025 2.363e-19 0)
(-0.0025 -3.21316e-20 0)
(-0.0025 -2.85614e-19 0)
(-0.0025 -3.72517e-19 0)
(-0.0025 -2.90199e-19 0)
(-0.0025 -2.2075e-19 0)
(-0.0025 -1.84764e-19 0)
(-0.0025 -2.27576e-16 0)
(-0.0025 4.89144e-17 0)
(-0.0025 -1.14529e-17 0)
(-0.0025 2.31073e-18 0)
(-0.0025 -6.73917e-19 0)
(-0.0025 1.07926e-19 0)
(-0.0025 -8.35441e-20 0)
(-0.0025 -1.12423e-19 0)
(-0.0025 1.17389e-19 0)
(-0.0025 1.86322e-19 0)
(-0.0025 2.33847e-19 0)
(-0.0025 2.15904e-19 0)
(-0.0025 7.72222e-20 0)
(-0.0025 2.40447e-19 0)
(-0.0025 3.37496e-19 0)
(-0.0025 4.03364e-20 0)
(-0.0025 -9.69443e-20 0)
(-0.0025 -1.75187e-19 0)
(-0.0025 -2.81674e-19 0)
(-0.0025 -1.55594e-19 0)
(-0.0025 2.68734e-16 0)
(-0.0025 -5.60954e-17 0)
(-0.0025 1.31771e-17 0)
(-0.0025 -3.07007e-18 0)
(-0.0025 5.24646e-19 0)
(-0.0025 7.44675e-20 0)
(-0.0025 2.56552e-19 0)
(-0.0025 3.13387e-19 0)
(-0.0025 2.45369e-19 0)
(-0.0025 1.55326e-19 0)
(-0.0025 3.4366e-19 0)
(-0.0025 4.72091e-19 0)
(-0.0025 2.20014e-19 0)
(-0.0025 2.79245e-20 0)
(-0.0025 3.60711e-20 0)
(-0.0025 -5.58671e-20 0)
(-0.0025 -1.56835e-19 0)
(-0.0025 -2.78773e-19 0)
(-0.0025 -1.87489e-19 0)
(-0.0025 -1.31799e-19 0)
(-0.0025 -6.4701e-17 0)
(-0.0025 1.18364e-17 0)
(-0.0025 -3.32788e-18 0)
(-0.0025 3.94172e-19 0)
(-0.0025 -8.14813e-20 0)
(-0.0025 -2.23822e-20 0)
(-0.0025 -1.15403e-20 0)
(-0.0025 2.40037e-19 0)
(-0.0025 3.47634e-19 0)
(-0.0025 2.30382e-19 0)
(-0.0025 2.81077e-19 0)
(-0.0025 2.98462e-19 0)
(-0.0025 3.05958e-19 0)
(-0.0025 -1.4931e-20 0)
(-0.0025 -2.23377e-19 0)
(-0.0025 -1.03258e-19 0)
(-0.0025 -1.02243e-19 0)
(-0.0025 -2.74997e-19 0)
(-0.0025 -1.08532e-19 0)
(-0.0025 -1.92664e-21 0)
(-0.0025 -2.46778e-16 0)
(-0.0025 5.24877e-17 0)
(-0.0025 -1.2583e-17 0)
(-0.0025 2.73902e-18 0)
(-0.0025 -7.02108e-19 0)
(-0.0025 -2.56031e-19 0)
(-0.0025 -3.48036e-19 0)
(-0.0025 -3.47225e-19 0)
(-0.0025 -4.96869e-19 0)
(-0.0025 -4.76351e-19 0)
(-0.0025 -2.83111e-19 0)
(-0.0025 1.98117e-20 0)
(-0.0025 3.45235e-19 0)
(-0.0025 4.0218e-19 0)
(-0.0025 1.24581e-19 0)
(-0.0025 -1.80406e-19 0)
(-0.0025 -2.93401e-20 0)
(-0.0025 6.94745e-20 0)
(-0.0025 9.11536e-20 0)
(-0.0025 1.03464e-19 0)
(-0.0025 3.99066e-16 0)
(-0.0025 -8.53565e-17 0)
(-0.0025 2.03541e-17 0)
(-0.0025 -4.01053e-18 0)
(-0.0025 1.38907e-18 0)
(-0.0025 2.3764e-19 0)
(-0.0025 3.32499e-19 0)
(-0.0025 -8.94278e-20 0)
(-0.0025 -4.67267e-19 0)
(-0.0025 -5.64462e-19 0)
(-0.0025 -4.5384e-19 0)
(-0.0025 -3.7492e-19 0)
(-0.0025 -2.90902e-19 0)
(-0.0025 5.86413e-20 0)
(-0.0025 2.48117e-19 0)
(-0.0025 -2.88033e-20 0)
(-0.0025 -3.16018e-19 0)
(-0.0025 -1.2525e-19 0)
(-0.0025 4.86733e-20 0)
(-0.0025 -2.87838e-20 0)
(-0.0025 -3.29264e-16 0)
(-0.0025 7.20105e-17 0)
(-0.0025 -1.69277e-17 0)
(-0.0025 3.57338e-18 0)
(-0.0025 -7.87528e-19 0)
(-0.0025 2.56172e-19 0)
(-0.0025 1.9919e-19 0)
(-0.0025 3.51924e-19 0)
(-0.0025 2.2397e-19 0)
(-0.0025 -1.09271e-19 0)
(-0.0025 -2.0902e-19 0)
(-0.0025 -2.56128e-19 0)
(-0.0025 -1.42941e-19 0)
(-0.0025 -1.51548e-19 0)
(-0.0025 1.16968e-19 0)
(-0.0025 2.10426e-19 0)
(-0.0025 -1.27934e-19 0)
(-0.0025 -8.64816e-20 0)
(-0.0025 -8.16377e-21 0)
(-0.0025 -1.08308e-19 0)
(-0.0025 1.1818e-16 0)
(-0.0025 -2.53519e-17 0)
(-0.0025 5.93285e-18 0)
(-0.0025 -1.31726e-18 0)
(-0.0025 -2.77133e-20 0)
(-0.0025 -1.83862e-19 0)
(-0.0025 -1.32719e-19 0)
(-0.0025 -2.03536e-19 0)
(-0.0025 -2.3846e-19 0)
(-0.0025 -2.82934e-19 0)
(-0.0025 -3.63781e-19 0)
(-0.0025 -4.91111e-20 0)
(-0.0025 8.27027e-20 0)
(-0.0025 -1.32772e-19 0)
(-0.0025 -1.83373e-19 0)
(-0.0025 -5.91323e-20 0)
(-0.0025 1.57702e-19 0)
(-0.0025 2.67881e-19 0)
(-0.0025 1.5194e-19 0)
(-0.0025 -8.56747e-20 0)
(-0.0025 1.12163e-16 0)
(-0.0025 -2.48381e-17 0)
(-0.0025 6.20336e-18 0)
(-0.0025 -9.9988e-19 0)
(-0.0025 4.85651e-19 0)
(-0.0025 1.75964e-19 0)
(-0.0025 3.60671e-20 0)
(-0.0025 -3.84687e-19 0)
(-0.0025 -5.96366e-19 0)
(-0.0025 -5.82319e-19 0)
(-0.0025 -5.65961e-19 0)
(-0.0025 -6.47059e-19 0)
(-0.0025 -9.76118e-19 0)
(-0.0025 -9.48664e-19 0)
(-0.0025 -5.84942e-19 0)
(-0.0025 -1.63318e-19 0)
(-0.0025 -7.24283e-20 0)
(-0.0025 -1.19207e-19 0)
(-0.0025 -1.38203e-19 0)
(-0.0025 -1.66735e-19 0)
(-0.0025 -2.34839e-16 0)
(-0.0025 4.99139e-17 0)
(-0.0025 -1.15424e-17 0)
(-0.0025 2.62775e-18 0)
(-0.0025 -6.57715e-19 0)
(-0.0025 -3.72232e-19 0)
(-0.0025 -3.01366e-19 0)
(-0.0025 -2.01785e-19 0)
(-0.0025 -4.13038e-19 0)
(-0.0025 -4.27527e-19 0)
(-0.0025 -2.04172e-19 0)
(-0.0025 -3.42762e-19 0)
(-0.0025 -5.0776e-19 0)
(-0.0025 -5.32327e-19 0)
(-0.0025 -2.80448e-19 0)
(-0.0025 1.33893e-19 0)
(-0.0025 8.61267e-21 0)
(-0.0025 -3.78226e-19 0)
(-0.0025 -5.74666e-19 0)
(-0.0025 -2.972e-19 0)
(-0.0025 2.64779e-16 0)
(-0.0025 -5.63063e-17 0)
(-0.0025 1.32038e-17 0)
(-0.0025 -2.84378e-18 0)
(-0.0025 4.72251e-19 0)
(-0.0025 -6.13357e-19 0)
(-0.0025 -7.47397e-19 0)
(-0.0025 -8.55236e-19 0)
(-0.0025 -5.73942e-19 0)
(-0.0025 -1.69624e-19 0)
(-0.0025 -9.35444e-20 0)
(-0.0025 -1.38475e-19 0)
(-0.0025 -1.13671e-19 0)
(-0.0025 -8.83957e-21 0)
(-0.0025 -1.08867e-19 0)
(-0.0025 -8.64457e-20 0)
(-0.0025 -1.52893e-20 0)
(-0.0025 -5.17267e-21 0)
(-0.0025 -2.5432e-19 0)
(-0.0025 -1.06162e-19 0)
(-0.0025 -1.57489e-16 0)
(-0.0025 3.41923e-17 0)
(-0.0025 -8.02884e-18 0)
(-0.0025 1.39667e-18 0)
(-0.0025 -7.20131e-19 0)
(-0.0025 -3.05709e-19 0)
(-0.0025 -3.25117e-19 0)
(-0.0025 5.02374e-21 0)
(-0.0025 1.31905e-19 0)
(-0.0025 1.99593e-19 0)
(-0.0025 -6.16132e-20 0)
(-0.0025 -2.96607e-19 0)
(-0.0025 -2.69413e-19 0)
(-0.0025 -2.74564e-19 0)
(-0.0025 -6.88141e-19 0)
(-0.0025 -7.15321e-19 0)
(-0.0025 -3.93759e-19 0)
(-0.0025 -1.31095e-19 0)
(-0.0025 -1.04174e-19 0)
(-0.0025 -4.09789e-20 0)
(-0.0025 -6.58927e-17 0)
(-0.0025 1.50951e-17 0)
(-0.0025 -3.10029e-18 0)
(-0.0025 8.1903e-19 0)
(-0.0025 -2.39245e-19 0)
(-0.0025 -1.30899e-20 0)
(-0.0025 7.63236e-20 0)
(-0.0025 3.27208e-19 0)
(-0.0025 2.33285e-19 0)
(-0.0025 6.2645e-20 0)
(-0.0025 3.93075e-22 0)
(-0.0025 7.06041e-20 0)
(-0.0025 -3.60856e-20 0)
(-0.0025 -5.03759e-19 0)
(-0.0025 -7.80184e-19 0)
(-0.0025 -7.77017e-19 0)
(-0.0025 -5.1808e-19 0)
(-0.0025 -3.03958e-19 0)
(-0.0025 3.38866e-20 0)
(-0.0025 2.31713e-20 0)
(-0.0025 2.40887e-16 0)
(-0.0025 -5.03179e-17 0)
(-0.0025 1.22779e-17 0)
(-0.0025 -2.58405e-18 0)
(-0.0025 4.33939e-19 0)
(-0.0025 -2.06402e-19 0)
(-0.0025 -3.04401e-19 0)
(-0.0025 -2.36392e-19 0)
(-0.0025 -1.31094e-19 0)
(-0.0025 -1.98218e-19 0)
(-0.0025 -2.92212e-19 0)
(-0.0025 -3.64807e-19 0)
(-0.0025 -5.14351e-19 0)
(-0.0025 -2.07673e-19 0)
(-0.0025 1.16174e-19 0)
(-0.0025 7.66047e-20 0)
(-0.0025 -1.56196e-19 0)
(-0.0025 -1.45197e-19 0)
(-0.0025 1.56074e-19 0)
(-0.0025 1.91971e-19 0)
(-0.0025 -9.19784e-17 0)
(-0.0025 1.80517e-17 0)
(-0.0025 -4.92246e-18 0)
(-0.0025 6.83411e-19 0)
(-0.0025 -5.22072e-19 0)
(-0.0025 -2.89034e-19 0)
(-0.0025 -1.92777e-19 0)
(-0.0025 -1.75853e-19 0)
(-0.0025 -1.14234e-19 0)
(-0.0025 -2.4681e-19 0)
(-0.0025 -2.88835e-19 0)
(-0.0025 -4.48088e-19 0)
(-0.0025 -4.81088e-19 0)
(-0.0025 -1.70782e-19 0)
(-0.0025 1.18444e-19 0)
(-0.0025 2.96807e-19 0)
(-0.0025 -1.55355e-20 0)
(-0.0025 -5.76779e-20 0)
(-0.0025 1.23136e-19 0)
(-0.0025 1.90839e-19 0)
(-0.0025 -1.92561e-16 0)
(-0.0025 3.99795e-17 0)
(-0.0025 -1.00148e-17 0)
(-0.0025 2.06223e-18 0)
(-0.0025 -4.42265e-19 0)
(-0.0025 8.41736e-20 0)
(-0.0025 2.29632e-20 0)
(-0.0025 -2.67932e-19 0)
(-0.0025 -1.36224e-19 0)
(-0.0025 -9.18381e-20 0)
(-0.0025 3.37014e-21 0)
(-0.0025 -1.31809e-20 0)
(-0.0025 -6.4227e-20 0)
(-0.0025 -3.15972e-19 0)
(-0.0025 -2.92225e-19 0)
(-0.0025 -1.60748e-19 0)
(-0.0025 -1.76846e-19 0)
(-0.0025 2.01107e-20 0)
(-0.0025 1.57239e-19 0)
(-0.0025 1.13413e-19 0)
)
;

boundaryField
{
    movingWall
    {
        type            calculated;
        value           uniform (-0.0025 -0 -0);
    }
    fixedWalls
    {
        type            calculated;
        value           uniform (-0.0025 -0 -0);
    }
    frontAndBack
    {
        type            empty;
    }
}


// ************************************************************************* //
