/*--------------------------------*- C++ -*----------------------------------*\
| =========                 |                                                 |
| \\      /  F ield         | OpenFOAM: The Open Source CFD Toolbox           |
|  \\    /   O peration     | Version:  2312                                  |
|   \\  /    A nd           | Website:  www.openfoam.com                      |
|    \\/     M anipulation  |                                                 |
\*---------------------------------------------------------------------------*/
FoamFile
{
    version     2.0;
    format      ascii;
    arch        "LSB;label=32;scalar=64";
    class       volScalarField;
    location    "9";
    object      P_A;
}
// * * * * * * * * * * * * * * * * * * * * * * * * * * * * * * * * * * * * * //

dimensions      [1 -1 -3 0 0 0 0];

internalField   nonuniform List<scalar> 
400
(
1.76121e-33
1.76121e-33
1.76121e-33
1.7612e-33
1.7612e-33
1.7612e-33
1.7612e-33
1.7612e-33
1.7612e-33
1.7612e-33
1.7612e-33
1.7612e-33
1.7612e-33
1.7612e-33
1.7612e-33
1.76119e-33
1.76119e-33
1.76119e-33
1.76119e-33
1.76119e-33
1.87008e-33
1.85047e-33
1.85204e-33
1.85268e-33
1.854e-33
1.85466e-33
1.85598e-33
1.85667e-33
1.85801e-33
1.85873e-33
1.86007e-33
1.86081e-33
1.86216e-33
1.86293e-33
1.86429e-33
1.86509e-33
1.86646e-33
1.86728e-33
1.86797e-33
1.86907e-33
2.05542e-33
2.03322e-33
2.03505e-33
2.03577e-33
2.03728e-33
2.03803e-33
2.03955e-33
2.04032e-33
2.04185e-33
2.04265e-33
2.04418e-33
2.04501e-33
2.04654e-33
2.04739e-33
2.04893e-33
2.04981e-33
2.05136e-33
2.05225e-33
2.05303e-33
2.05426e-33
2.26974e-33
2.24493e-33
2.24696e-33
2.24776e-33
2.24946e-33
2.25029e-33
2.25199e-33
2.25286e-33
2.25456e-33
2.25546e-33
2.25716e-33
2.2581e-33
2.25979e-33
2.26076e-33
2.26247e-33
2.26346e-33
2.26518e-33
2.26618e-33
2.26705e-33
2.26843e-33
2.46811e-33
2.44085e-33
2.44304e-33
2.44396e-33
2.44579e-33
2.44674e-33
2.44858e-33
2.44956e-33
2.45139e-33
2.45241e-33
2.45425e-33
2.4553e-33
2.45715e-33
2.45823e-33
2.46009e-33
2.46119e-33
2.46307e-33
2.46419e-33
2.46513e-33
2.46665e-33
2.62514e-33
2.5959e-33
2.59827e-33
2.59924e-33
2.60121e-33
2.60221e-33
2.60419e-33
2.60523e-33
2.6072e-33
2.6083e-33
2.61027e-33
2.6114e-33
2.61337e-33
2.61453e-33
2.61653e-33
2.61771e-33
2.61972e-33
2.62092e-33
2.62194e-33
2.62356e-33
2.73662e-33
2.70597e-33
2.70844e-33
2.70947e-33
2.71154e-33
2.71257e-33
2.71467e-33
2.71574e-33
2.71783e-33
2.71895e-33
2.72103e-33
2.7222e-33
2.72428e-33
2.7255e-33
2.72758e-33
2.72882e-33
2.73093e-33
2.73219e-33
2.73325e-33
2.73496e-33
2.811e-33
2.77939e-33
2.78197e-33
2.783e-33
2.78514e-33
2.78622e-33
2.78836e-33
2.78947e-33
2.79162e-33
2.79277e-33
2.79494e-33
2.79612e-33
2.79829e-33
2.79951e-33
2.8017e-33
2.80295e-33
2.80514e-33
2.80642e-33
2.80753e-33
2.80928e-33
2.86024e-33
2.82801e-33
2.83061e-33
2.83169e-33
2.83386e-33
2.83495e-33
2.83715e-33
2.83828e-33
2.84046e-33
2.84166e-33
2.84383e-33
2.84508e-33
2.84725e-33
2.84853e-33
2.85073e-33
2.85203e-33
2.85425e-33
2.85557e-33
2.85669e-33
2.85848e-33
2.89466e-33
2.862e-33
2.86463e-33
2.86572e-33
2.86793e-33
2.86904e-33
2.87126e-33
2.87241e-33
2.87463e-33
2.87582e-33
2.87805e-33
2.87928e-33
2.88152e-33
2.88278e-33
2.88503e-33
2.88633e-33
2.8886e-33
2.88993e-33
2.89107e-33
2.89288e-33
2.92156e-33
2.88855e-33
2.89121e-33
2.89231e-33
2.89453e-33
2.89565e-33
2.8979e-33
2.89906e-33
2.90131e-33
2.90251e-33
2.90477e-33
2.906e-33
2.90827e-33
2.90954e-33
2.91183e-33
2.91313e-33
2.91543e-33
2.91676e-33
2.91792e-33
2.91975e-33
2.94549e-33
2.91218e-33
2.91485e-33
2.91598e-33
2.91821e-33
2.91936e-33
2.92161e-33
2.92279e-33
2.92504e-33
2.92628e-33
2.92853e-33
2.92981e-33
2.93207e-33
2.93338e-33
2.93566e-33
2.93699e-33
2.93929e-33
2.94066e-33
2.94181e-33
2.94367e-33
2.9692e-33
2.93558e-33
2.93829e-33
2.93942e-33
2.94167e-33
2.94282e-33
2.9451e-33
2.94629e-33
2.94855e-33
2.94982e-33
2.95207e-33
2.95338e-33
2.95564e-33
2.95698e-33
2.95926e-33
2.96063e-33
2.96294e-33
2.96432e-33
2.96549e-33
2.96736e-33
2.9942e-33
2.96027e-33
2.96301e-33
2.96413e-33
2.96642e-33
2.96757e-33
2.96988e-33
2.97107e-33
2.97338e-33
2.97462e-33
2.97694e-33
2.97821e-33
2.98054e-33
2.98185e-33
2.98419e-33
2.98553e-33
2.9879e-33
2.98927e-33
2.99046e-33
2.99234e-33
3.02114e-33
2.98686e-33
2.98964e-33
2.99076e-33
2.99309e-33
2.99424e-33
2.99658e-33
2.99777e-33
3.00011e-33
3.00135e-33
3.0037e-33
3.00499e-33
3.00734e-33
3.00866e-33
3.01103e-33
3.01239e-33
3.01477e-33
3.01616e-33
3.01736e-33
3.01926e-33
3.04975e-33
3.01511e-33
3.0179e-33
3.01905e-33
3.02138e-33
3.02256e-33
3.02491e-33
3.02613e-33
3.02849e-33
3.02975e-33
3.03212e-33
3.03342e-33
3.0358e-33
3.03713e-33
3.03953e-33
3.04089e-33
3.04331e-33
3.04471e-33
3.04592e-33
3.04785e-33
3.07863e-33
3.04362e-33
3.04644e-33
3.0476e-33
3.04996e-33
3.05115e-33
3.05353e-33
3.05475e-33
3.05715e-33
3.05842e-33
3.06081e-33
3.06212e-33
3.06453e-33
3.06588e-33
3.0683e-33
3.06968e-33
3.07212e-33
3.07354e-33
3.07476e-33
3.0767e-33
3.10519e-33
3.06984e-33
3.07269e-33
3.07387e-33
3.07624e-33
3.07746e-33
3.07984e-33
3.0811e-33
3.08348e-33
3.0848e-33
3.08717e-33
3.08854e-33
3.09093e-33
3.09233e-33
3.09474e-33
3.09616e-33
3.0986e-33
3.10005e-33
3.10127e-33
3.10324e-33
3.12588e-33
3.09094e-33
3.09371e-33
3.09485e-33
3.09718e-33
3.09835e-33
3.1007e-33
3.10192e-33
3.10429e-33
3.10557e-33
3.10794e-33
3.10927e-33
3.11166e-33
3.11303e-33
3.11544e-33
3.11687e-33
3.1193e-33
3.12077e-33
3.12199e-33
3.12397e-33
3.13545e-33
3.13544e-33
3.13544e-33
3.13544e-33
3.13543e-33
3.13543e-33
3.13543e-33
3.13543e-33
3.13543e-33
3.13543e-33
3.13542e-33
3.13542e-33
3.13542e-33
3.13542e-33
3.13542e-33
3.13542e-33
3.13542e-33
3.13542e-33
3.13542e-33
3.13542e-33
)
;

boundaryField
{
    movingWall
    {
        type            calculated;
        value           nonuniform List<scalar> 
20
(
3.13545e-33
3.13544e-33
3.13544e-33
3.13544e-33
3.13543e-33
3.13543e-33
3.13543e-33
3.13543e-33
3.13543e-33
3.13543e-33
3.13542e-33
3.13542e-33
3.13542e-33
3.13542e-33
3.13542e-33
3.13542e-33
3.13542e-33
3.13542e-33
3.13542e-33
3.13542e-33
)
;
    }
    fixedWalls
    {
        type            calculated;
        value           nonuniform List<scalar> 
60
(
1.76121e-33
1.87008e-33
2.05542e-33
2.26974e-33
2.46811e-33
2.62514e-33
2.73662e-33
2.811e-33
2.86024e-33
2.89466e-33
2.92156e-33
2.94549e-33
2.9692e-33
2.9942e-33
3.02114e-33
3.04975e-33
3.07863e-33
3.10519e-33
3.12588e-33
3.13545e-33
1.76119e-33
1.86907e-33
2.05426e-33
2.26843e-33
2.46665e-33
2.62356e-33
2.73496e-33
2.80928e-33
2.85848e-33
2.89288e-33
2.91975e-33
2.94367e-33
2.96736e-33
2.99234e-33
3.01926e-33
3.04785e-33
3.0767e-33
3.10324e-33
3.12397e-33
3.13542e-33
1.76121e-33
1.76121e-33
1.76121e-33
1.7612e-33
1.7612e-33
1.7612e-33
1.7612e-33
1.7612e-33
1.7612e-33
1.7612e-33
1.7612e-33
1.7612e-33
1.7612e-33
1.7612e-33
1.7612e-33
1.76119e-33
1.76119e-33
1.76119e-33
1.76119e-33
1.76119e-33
)
;
    }
    frontAndBack
    {
        type            empty;
    }
}


// ************************************************************************* //
