/*--------------------------------*- C++ -*----------------------------------*\
| =========                 |                                                 |
| \\      /  F ield         | OpenFOAM: The Open Source CFD Toolbox           |
|  \\    /   O peration     | Version:  2312                                  |
|   \\  /    A nd           | Website:  www.openfoam.com                      |
|    \\/     M anipulation  |                                                 |
\*---------------------------------------------------------------------------*/
FoamFile
{
    version     2.0;
    format      ascii;
    arch        "LSB;label=32;scalar=64";
    class       surfaceScalarField;
    location    "9";
    object      PecletNoField;
}
// * * * * * * * * * * * * * * * * * * * * * * * * * * * * * * * * * * * * * //

dimensions      [0 0 0 0 0 0 0];

oriented        oriented;

internalField   nonuniform List<scalar> 
760
(
455.349
3.05565e-12
455.349
5.38952e-12
455.349
1.71646e-12
455.349
1.81338e-13
455.349
1.37754e-13
455.349
1.1564e-14
455.349
8.11185e-15
455.349
1.26046e-14
455.349
1.72863e-14
455.349
2.28755e-14
455.349
5.96448e-15
455.349
9.85004e-15
455.349
2.601e-14
455.349
8.26522e-14
455.349
8.10523e-14
455.349
7.01869e-14
455.349
2.67263e-14
455.349
7.12782e-14
455.349
7.3303e-14
8.05651e-15
454.828
2.09512e-12
454.631
2.7072e-12
454.659
9.16317e-13
454.683
1.11865e-13
454.707
7.41438e-14
454.731
4.11937e-14
454.755
7.17508e-14
454.779
4.06825e-14
454.804
3.12572e-14
454.828
2.85373e-14
454.852
7.99152e-15
454.877
1.81396e-14
454.901
1.00816e-14
454.925
8.12789e-16
454.95
5.62994e-15
454.974
2.00227e-14
454.998
1.16961e-14
455.015
4.71002e-15
455.035
5.74067e-14
7.32081e-14
454.336
1.91748e-12
454.132
2.50624e-12
454.161
8.16826e-13
454.186
2.45394e-14
454.212
1.30173e-13
454.237
4.10679e-14
454.262
3.30574e-14
454.288
9.26762e-14
454.313
2.28543e-14
454.338
1.73221e-14
454.363
3.05603e-15
454.389
7.48183e-15
454.414
1.10737e-14
454.439
8.65541e-14
454.464
7.75119e-14
454.489
5.34183e-14
454.514
1.00879e-14
454.531
6.94689e-15
454.552
6.11442e-15
2.17072e-14
453.818
2.09777e-12
453.609
3.06817e-12
453.639
7.14606e-13
453.665
2.36532e-13
453.691
1.07469e-15
453.717
1.07578e-14
453.743
5.36767e-15
453.769
9.05003e-15
453.795
4.91597e-14
453.82
9.90592e-14
453.846
3.98746e-14
453.872
2.32464e-14
453.898
5.10575e-14
453.923
2.57306e-15
453.949
2.21152e-14
453.975
3.40374e-14
454
5.96518e-14
454.018
6.96236e-14
454.039
2.90204e-14
1.62184e-14
453.376
1.98652e-12
453.163
2.20817e-12
453.194
7.20259e-13
453.22
5.887e-14
453.247
5.5171e-14
453.273
5.50249e-18
453.299
7.95055e-15
453.326
2.98028e-14
453.352
7.00124e-14
453.379
9.38107e-14
453.405
7.67203e-14
453.431
3.83419e-14
453.457
3.4909e-14
453.484
5.28658e-14
453.51
2.02976e-14
453.536
3.54305e-14
453.562
4.34244e-14
453.58
2.40744e-14
453.601
4.94987e-14
5.01204e-14
453.048
5.54652e-13
452.832
1.18187e-12
452.863
1.89104e-13
452.889
7.61986e-14
452.916
5.25989e-15
452.943
1.49826e-14
452.97
1.35266e-14
452.997
2.9309e-14
453.024
2.54226e-14
453.05
1.87917e-14
453.077
3.30101e-14
453.104
6.12904e-14
453.13
7.82794e-15
453.157
9.47733e-15
453.184
5.61528e-14
453.21
1.50347e-14
453.237
1.77532e-14
453.255
3.68712e-14
453.276
3.74835e-14
7.81457e-15
452.825
7.31557e-13
452.607
1.96574e-12
452.638
8.76871e-13
452.665
1.46319e-13
452.693
1.4945e-14
452.72
3.48349e-15
452.747
1.77684e-14
452.774
4.20677e-14
452.801
3.6877e-14
452.828
3.18753e-14
452.855
8.14842e-14
452.882
9.68772e-14
452.909
8.83998e-14
452.935
1.49288e-14
452.962
2.70315e-14
452.989
2.00974e-14
453.016
2.96268e-14
453.034
6.73702e-14
453.056
2.27459e-14
4.19457e-14
452.681
2.24682e-12
452.461
3.28775e-12
452.493
1.45161e-12
452.52
1.49237e-13
452.548
5.19088e-15
452.575
2.29358e-14
452.602
4.22224e-14
452.629
4.58275e-15
452.657
1.95951e-14
452.684
2.08773e-14
452.711
1.61406e-14
452.738
3.61936e-15
452.765
4.89007e-14
452.792
2.61036e-14
452.819
3.13502e-14
452.846
3.04535e-14
452.873
4.24212e-15
452.891
6.57102e-15
452.913
6.96721e-15
3.43868e-14
452.587
8.78902e-13
452.367
1.59876e-12
452.399
6.96854e-13
452.426
4.23295e-14
452.453
2.89867e-14
452.481
7.51194e-16
452.508
2.40525e-14
452.536
3.68037e-14
452.563
1.21088e-13
452.59
1.04974e-13
452.617
8.2138e-14
452.645
3.44943e-14
452.672
2.4622e-15
452.699
6.37541e-14
452.726
8.17069e-14
452.753
1.99579e-14
452.78
5.26606e-14
452.799
5.52028e-15
452.821
1.19407e-14
1.35614e-14
452.523
5.62065e-14
452.302
6.61275e-13
452.333
2.98067e-13
452.361
7.75039e-15
452.389
6.56451e-14
452.416
5.20381e-14
452.443
2.69149e-14
452.471
2.35861e-14
452.498
1.39244e-16
452.526
4.51137e-14
452.553
3.82204e-14
452.58
3.7749e-14
452.608
5.36954e-14
452.635
4.2505e-14
452.662
1.93547e-14
452.689
2.58549e-14
452.716
2.67455e-14
452.735
3.72941e-14
452.757
5.50874e-15
2.58656e-14
452.473
1.48387e-12
452.251
2.16394e-12
452.283
9.25344e-13
452.311
8.16205e-14
452.338
7.16875e-14
452.366
2.80885e-14
452.393
1.1313e-15
452.421
5.98519e-16
452.448
3.41181e-15
452.476
3.538e-14
452.503
4.81295e-14
452.53
6.60924e-14
452.558
2.7198e-15
452.585
2.21993e-15
452.612
3.58608e-14
452.639
9.5277e-15
452.667
6.83689e-16
452.685
4.72292e-14
452.707
7.78354e-15
2.20771e-14
452.429
1.1995e-12
452.207
1.83222e-12
452.239
1.01277e-12
452.266
3.57291e-14
452.294
1.76979e-14
452.322
4.46006e-14
452.349
4.7829e-15
452.377
3.95719e-14
452.404
9.67431e-14
452.432
9.91571e-14
452.459
1.32484e-13
452.486
3.69599e-14
452.514
7.53955e-14
452.541
1.01795e-13
452.568
7.84752e-14
452.596
2.15474e-14
452.623
7.46268e-15
452.642
6.77255e-15
452.664
1.76995e-14
7.94774e-15
452.386
1.10184e-12
452.163
6.35576e-14
452.195
4.06022e-13
452.223
6.78785e-15
452.25
2.51145e-15
452.278
4.92512e-14
452.306
1.68572e-14
452.333
4.32188e-14
452.361
6.53611e-14
452.388
5.32739e-14
452.416
5.81015e-15
452.443
8.71771e-14
452.471
1.53717e-13
452.498
1.56018e-13
452.525
1.0271e-13
452.553
1.13272e-14
452.58
1.72414e-14
452.599
4.46076e-14
452.621
7.15851e-14
6.78459e-14
452.34
1.45724e-13
452.117
4.94557e-13
452.149
7.93572e-14
452.177
5.63744e-14
452.205
6.12425e-15
452.232
9.32045e-14
452.26
1.11353e-13
452.288
9.01042e-14
452.315
9.40342e-14
452.343
1.06796e-13
452.371
7.87671e-14
452.398
5.75989e-14
452.426
3.08064e-14
452.453
3.62478e-14
452.48
2.26006e-14
452.508
3.28648e-14
452.535
3.73318e-14
452.554
2.59669e-14
452.576
8.55369e-14
5.83631e-14
452.292
1.72279e-12
452.068
1.65022e-12
452.101
4.99086e-13
452.128
1.23552e-13
452.156
3.27296e-14
452.184
3.49428e-14
452.212
7.29108e-14
452.239
1.20649e-13
452.267
7.77904e-14
452.295
3.54891e-14
452.322
1.95741e-14
452.35
3.04871e-14
452.377
6.11903e-14
452.405
3.44209e-14
452.432
8.05823e-14
452.46
9.91586e-14
452.487
7.63931e-14
452.506
1.51493e-14
452.528
2.93763e-14
3.11719e-14
452.241
2.03973e-12
452.017
3.32843e-12
452.049
9.89079e-13
452.077
1.30498e-13
452.105
9.22703e-14
452.133
9.11399e-14
452.16
5.64857e-14
452.188
7.10833e-14
452.216
7.17711e-14
452.244
2.48495e-14
452.271
1.62247e-14
452.299
3.22895e-14
452.326
1.71794e-14
452.354
5.60462e-14
452.381
1.2079e-13
452.409
1.20239e-13
452.436
6.19176e-14
452.455
3.50391e-14
452.477
9.59581e-15
4.62797e-14
452.19
2.00286e-12
451.965
2.40771e-12
451.998
8.01478e-13
452.025
8.55258e-14
452.053
3.87158e-14
452.081
1.98716e-14
452.109
9.33257e-15
452.137
1.90541e-14
452.165
1.12472e-14
452.192
1.93109e-14
452.22
3.19259e-14
452.248
1.15033e-14
452.276
1.26112e-14
452.303
4.43758e-14
452.331
6.17888e-14
452.358
1.03021e-13
452.386
8.46073e-14
452.405
5.58309e-14
452.427
2.56427e-14
4.90106e-14
452.143
2.40097e-12
451.919
2.57116e-12
451.951
7.08168e-13
451.979
1.67507e-13
452.007
3.0899e-14
452.035
5.77819e-14
452.063
8.44117e-14
452.09
1.679e-14
452.118
5.26663e-15
452.146
3.22665e-14
452.174
3.93465e-14
452.201
7.01163e-14
452.229
1.48292e-13
452.257
6.72679e-14
452.284
2.65356e-14
452.312
7.38607e-14
452.34
1.74363e-14
452.358
7.05831e-16
452.381
2.09198e-14
2.31597e-14
452.112
2.841e-12
451.891
4.40726e-12
451.922
1.40272e-12
451.949
1.89787e-13
451.976
7.30921e-14
452.003
1.51109e-14
452.031
2.57158e-14
452.058
5.22886e-14
452.085
2.75427e-14
452.112
3.62058e-14
452.14
3.24413e-14
452.167
4.78035e-14
452.194
1.40942e-14
452.222
3.35273e-14
452.249
2.61907e-14
452.276
7.79435e-15
452.304
4.83541e-14
452.323
1.69408e-14
452.345
3.43802e-14
4.50295e-14
452.339
452.339
452.339
452.339
452.339
452.339
452.339
452.339
452.339
452.339
452.339
452.339
452.339
452.339
452.339
452.339
452.339
452.339
452.339
)
;

boundaryField
{
    movingWall
    {
        type            calculated;
        value           uniform 0;
    }
    fixedWalls
    {
        type            calculated;
        value           nonuniform List<scalar> 
60
(
250
250
250
250
250
250
250
250
250
250
250
250
250
250
250
250
250
250
250
250
250
250
250
250
250
250
250
250
250
250
250
250
250
250
250
250
250
250
250
250
0
0
0
0
0
0
0
0
0
0
0
0
0
0
0
0
0
0
0
0
)
;
    }
    frontAndBack
    {
        type            empty;
        value           nonuniform List<scalar> 0();
    }
}


// ************************************************************************* //
