/*--------------------------------*- C++ -*----------------------------------*\
| =========                 |                                                 |
| \\      /  F ield         | OpenFOAM: The Open Source CFD Toolbox           |
|  \\    /   O peration     | Version:  2312                                  |
|   \\  /    A nd           | Website:  www.openfoam.com                      |
|    \\/     M anipulation  |                                                 |
\*---------------------------------------------------------------------------*/
FoamFile
{
    version     2.0;
    format      ascii;
    arch        "LSB;label=32;scalar=64";
    class       surfaceScalarField;
    location    "9";
    object      phi;
}
// * * * * * * * * * * * * * * * * * * * * * * * * * * * * * * * * * * * * * //

dimensions      [0 3 -1 0 0 0 0];

oriented        oriented;

internalField   nonuniform List<scalar> 
760
(
-5e-05
3.35641e-19
-5e-05
-5.92281e-19
-5e-05
1.88622e-19
-5e-05
-1.99269e-20
-5e-05
1.5137e-20
-5e-05
-1.27068e-21
-5e-05
8.91318e-22
-5e-05
1.38495e-21
-5e-05
1.89929e-21
-5e-05
2.51334e-21
-5e-05
6.55299e-22
-5e-05
1.08217e-21
-5e-05
-2.85748e-21
-5e-05
9.08009e-21
-5e-05
8.90401e-21
-5e-05
7.71024e-21
-5e-05
2.93586e-21
-5e-05
-7.82971e-21
-5e-05
-8.05198e-21
8.84945e-22
-5e-05
-2.30333e-19
-5e-05
2.97914e-19
-5e-05
-1.00827e-19
-5e-05
1.23086e-20
-5e-05
-8.15752e-21
-5e-05
-4.53208e-21
-5e-05
-7.89338e-21
-5e-05
-4.47535e-21
-5e-05
3.43826e-21
-5e-05
3.13895e-21
-5e-05
8.78964e-22
-5e-05
-1.99505e-21
-5e-05
-1.10872e-21
-5e-05
8.9383e-23
-5e-05
-6.19086e-22
-5e-05
2.20167e-21
-5e-05
1.286e-21
-5e-05
-5.17851e-22
-5e-05
-6.31146e-21
-8.04828e-21
-5e-05
-2.11034e-19
-5e-05
2.76109e-19
-5e-05
-8.99803e-20
-5e-05
2.70312e-21
-5e-05
-1.4338e-20
-5e-05
-4.5233e-21
-5e-05
3.64074e-21
-5e-05
1.02064e-20
-5e-05
2.51674e-21
-5e-05
1.90746e-21
-5e-05
-3.36496e-22
-5e-05
-8.23784e-22
-5e-05
-1.21918e-21
-5e-05
-9.52893e-21
-5e-05
-8.53285e-21
-5e-05
-5.88028e-21
-5e-05
-1.11039e-21
-5e-05
7.64628e-22
-5e-05
-6.72975e-22
-2.38905e-21
-5e-05
2.31119e-19
-5e-05
-3.38378e-19
-5e-05
7.88039e-20
-5e-05
-2.60828e-20
-5e-05
1.18499e-22
-5e-05
1.18615e-21
-5e-05
5.91789e-22
-5e-05
-9.97733e-22
-5e-05
5.41927e-21
-5e-05
1.09196e-20
-5e-05
4.39519e-21
-5e-05
2.56224e-21
-5e-05
5.62719e-21
-5e-05
2.83572e-22
-5e-05
-2.4371e-21
-5e-05
-3.75077e-21
-5e-05
-6.57288e-21
-5e-05
-7.67134e-21
-5e-05
-3.19744e-21
-1.78682e-21
-5e-05
-2.19046e-19
-5e-05
2.43741e-19
-5e-05
-7.94954e-20
-5e-05
6.49727e-21
-5e-05
-6.08854e-21
-5e-05
-6.07218e-25
-5e-05
-8.77301e-22
-5e-05
-3.28845e-21
-5e-05
7.72459e-21
-5e-05
1.03499e-20
-5e-05
8.46369e-21
-5e-05
4.22966e-21
-5e-05
3.85067e-21
-5e-05
5.83118e-21
-5e-05
2.23869e-21
-5e-05
-3.90758e-21
-5e-05
-4.78886e-21
-5e-05
-2.65483e-21
-5e-05
-5.45831e-21
-5.52654e-21
-5e-05
6.1196e-20
-5e-05
-1.30537e-19
-5e-05
2.08844e-20
-5e-05
-8.41491e-21
-5e-05
5.80825e-22
-5e-05
1.65439e-21
-5e-05
1.4935e-21
-5e-05
3.23594e-21
-5e-05
2.80663e-21
-5e-05
2.0745e-21
-5e-05
3.64385e-21
-5e-05
6.76532e-21
-5e-05
-8.63992e-22
-5e-05
1.046e-21
-5e-05
6.19701e-21
-5e-05
1.65916e-21
-5e-05
-1.95901e-21
-5e-05
-4.06845e-21
-5e-05
-4.13586e-21
-8.62194e-22
-5e-05
8.07468e-20
-5e-05
-2.17203e-19
-5e-05
9.68797e-20
-5e-05
-1.61652e-20
-5e-05
-1.65097e-21
-5e-05
3.84807e-22
-5e-05
1.96265e-21
-5e-05
4.64648e-21
-5e-05
4.07284e-21
-5e-05
3.52028e-21
-5e-05
8.99835e-21
-5e-05
1.06977e-20
-5e-05
9.76087e-21
-5e-05
1.64832e-21
-5e-05
-2.98439e-21
-5e-05
-2.21875e-21
-5e-05
-3.27054e-21
-5e-05
-7.43676e-21
-5e-05
-2.51074e-21
-4.62979e-21
-5e-05
-2.48061e-19
-5e-05
3.63375e-19
-5e-05
-1.60421e-19
-5e-05
1.64919e-20
-5e-05
-5.73589e-22
-5e-05
-2.53429e-21
-5e-05
-4.66499e-21
-5e-05
-5.06309e-22
-5e-05
2.16473e-21
-5e-05
-2.30628e-21
-5e-05
-1.78288e-21
-5e-05
3.99775e-22
-5e-05
5.40091e-21
-5e-05
2.88292e-21
-5e-05
-3.4621e-21
-5e-05
-3.36293e-21
-5e-05
4.68414e-22
-5e-05
-7.2554e-22
-5e-05
-7.69256e-22
3.79646e-21
-5e-05
9.70521e-20
-5e-05
-1.76732e-19
-5e-05
7.70248e-20
-5e-05
-4.67858e-21
-5e-05
3.20357e-21
-5e-05
-8.30176e-23
-5e-05
2.65794e-21
-5e-05
-4.06684e-21
-5e-05
-1.33792e-20
-5e-05
-1.15983e-20
-5e-05
-9.07451e-21
-5e-05
-3.81073e-21
-5e-05
2.71988e-22
-5e-05
7.04233e-21
-5e-05
9.02471e-21
-5e-05
-2.20429e-21
-5e-05
-5.81579e-21
-5e-05
-6.09628e-22
-5e-05
1.31862e-21
1.4975e-21
-5e-05
6.20735e-21
-5e-05
-7.31089e-20
-5e-05
3.29502e-20
-5e-05
-8.56743e-22
-5e-05
7.25594e-21
-5e-05
5.75168e-21
-5e-05
2.97462e-21
-5e-05
2.60661e-21
-5e-05
-1.53873e-23
-5e-05
-4.98513e-21
-5e-05
-4.22308e-21
-5e-05
-4.17081e-21
-5e-05
-5.93223e-21
-5e-05
-4.69572e-21
-5e-05
-2.13804e-21
-5e-05
2.85597e-21
-5e-05
-2.95412e-21
-5e-05
-4.11907e-21
-5e-05
6.08407e-22
-2.85653e-21
-5e-05
-1.63893e-19
-5e-05
2.39265e-19
-5e-05
-1.02304e-19
-5e-05
9.02343e-21
-5e-05
-7.92465e-21
-5e-05
-3.1049e-21
-5e-05
1.25044e-22
-5e-05
6.61522e-23
-5e-05
3.77065e-22
-5e-05
-3.90994e-21
-5e-05
-5.31852e-21
-5e-05
-7.30317e-21
-5e-05
3.00513e-22
-5e-05
-2.45272e-22
-5e-05
3.96181e-21
-5e-05
1.05255e-21
-5e-05
-7.55232e-23
-5e-05
5.21691e-21
-5e-05
8.59733e-22
-2.43838e-21
-5e-05
1.32497e-19
-5e-05
-2.02607e-19
-5e-05
1.1198e-19
-5e-05
-3.95036e-21
-5e-05
1.95659e-21
-5e-05
4.93062e-21
-5e-05
5.2871e-22
-5e-05
-4.37416e-21
-5e-05
-1.06929e-20
-5e-05
-1.09592e-20
-5e-05
-1.46415e-20
-5e-05
-4.08444e-21
-5e-05
-8.33131e-21
-5e-05
-1.1248e-20
-5e-05
-8.67059e-21
-5e-05
-2.38063e-21
-5e-05
8.24438e-22
-5e-05
-7.48164e-22
-5e-05
1.95519e-21
8.77902e-22
-5e-05
1.21721e-19
-5e-05
-7.02888e-21
-5e-05
-4.48978e-20
-5e-05
-7.50567e-22
-5e-05
-2.77681e-22
-5e-05
-5.44528e-21
-5e-05
-1.86361e-21
-5e-05
-4.77775e-21
-5e-05
-7.22496e-21
-5e-05
-5.8886e-21
-5e-05
-6.42171e-22
-5e-05
-9.63489e-21
-5e-05
-1.69877e-20
-5e-05
-1.72412e-20
-5e-05
-1.13494e-20
-5e-05
-1.25159e-21
-5e-05
-1.90493e-21
-5e-05
-4.92828e-21
-5e-05
-7.90848e-21
-7.49494e-21
-5e-05
-1.60999e-20
-5e-05
5.46992e-20
-5e-05
8.77621e-21
-5e-05
6.23426e-21
-5e-05
-6.77205e-22
-5e-05
-1.03059e-20
-5e-05
-1.23116e-20
-5e-05
-9.96187e-21
-5e-05
-1.03955e-20
-5e-05
-1.18059e-20
-5e-05
-8.70669e-21
-5e-05
-6.36654e-21
-5e-05
-3.40484e-21
-5e-05
-4.00606e-21
-5e-05
-2.4976e-21
-5e-05
3.63175e-21
-5e-05
4.12505e-21
-5e-05
-2.86914e-21
-5e-05
-9.4508e-21
-6.44803e-21
-5e-05
1.90358e-19
-5e-05
-1.82539e-19
-5e-05
5.52006e-20
-5e-05
-1.36648e-20
-5e-05
-3.61956e-21
-5e-05
-3.86416e-21
-5e-05
-8.06221e-21
-5e-05
-1.33404e-20
-5e-05
-8.60072e-21
-5e-05
3.92361e-21
-5e-05
2.16391e-21
-5e-05
-3.37018e-21
-5e-05
-6.76372e-21
-5e-05
-3.80457e-21
-5e-05
-8.90616e-21
-5e-05
-1.09588e-20
-5e-05
-8.44213e-21
-5e-05
-1.67406e-21
-5e-05
-3.24608e-21
3.44429e-21
-5e-05
-2.25404e-19
-5e-05
3.68215e-19
-5e-05
-1.09408e-19
-5e-05
1.44346e-20
-5e-05
-1.02053e-20
-5e-05
-1.00799e-20
-5e-05
-6.24668e-21
-5e-05
7.86069e-21
-5e-05
7.93611e-21
-5e-05
2.74762e-21
-5e-05
-1.79383e-21
-5e-05
-3.56983e-21
-5e-05
-1.89915e-21
-5e-05
-6.19554e-21
-5e-05
-1.33515e-20
-5e-05
-1.329e-20
-5e-05
-6.84322e-21
-5e-05
-3.8724e-21
-5e-05
-1.06045e-21
-5.11417e-21
-5e-05
2.21353e-19
-5e-05
-2.66387e-19
-5e-05
8.86659e-20
-5e-05
-9.46117e-21
-5e-05
4.28252e-21
-5e-05
2.198e-21
-5e-05
1.03219e-21
-5e-05
-2.10731e-21
-5e-05
-1.2438e-21
-5e-05
-2.13545e-21
-5e-05
-3.53017e-21
-5e-05
-1.2719e-21
-5e-05
-1.39429e-21
-5e-05
-4.90598e-21
-5e-05
-6.83055e-21
-5e-05
-1.13881e-20
-5e-05
-9.35192e-21
-5e-05
-6.17089e-21
-5e-05
2.83414e-21
5.41652e-21
-5e-05
2.65375e-19
-5e-05
-2.84495e-19
-5e-05
7.83498e-20
-5e-05
-1.85317e-20
-5e-05
-3.41817e-21
-5e-05
-6.39179e-21
-5e-05
-9.33681e-21
-5e-05
-1.85707e-21
-5e-05
-5.82473e-22
-5e-05
-3.56843e-21
-5e-05
-4.35107e-21
-5e-05
-7.75337e-21
-5e-05
-1.63967e-20
-5e-05
-7.4375e-21
-5e-05
2.93369e-21
-5e-05
8.16543e-21
-5e-05
1.92746e-21
-5e-05
-7.80213e-23
-5e-05
2.31235e-21
2.55978e-21
-5e-05
-3.14029e-19
-5e-05
4.87417e-19
-5e-05
-1.55125e-19
-5e-05
2.09879e-20
-5e-05
-8.08267e-21
-5e-05
-1.67096e-21
-5e-05
2.84353e-21
-5e-05
-5.78171e-21
-5e-05
-3.04536e-21
-5e-05
-4.00314e-21
-5e-05
-3.58678e-21
-5e-05
-5.28514e-21
-5e-05
-1.55819e-21
-5e-05
-3.70655e-21
-5e-05
-2.89535e-21
-5e-05
8.61636e-22
-5e-05
-5.34517e-21
-5e-05
-1.87263e-21
-5e-05
3.8003e-21
4.97729e-21
-5e-05
-5e-05
-5e-05
-5e-05
-5e-05
-5e-05
-5e-05
-5e-05
-5e-05
-5e-05
-5e-05
-5e-05
-5e-05
-5e-05
-5e-05
-5e-05
-5e-05
-5e-05
-5e-05
)
;

boundaryField
{
    movingWall
    {
        type            calculated;
        value           uniform 0;
    }
    fixedWalls
    {
        type            calculated;
        value           nonuniform List<scalar> 
60
(
5e-05
5e-05
5e-05
5e-05
5e-05
5e-05
5e-05
5e-05
5e-05
5e-05
5e-05
5e-05
5e-05
5e-05
5e-05
5e-05
5e-05
5e-05
5e-05
5e-05
-5e-05
-5e-05
-5e-05
-5e-05
-5e-05
-5e-05
-5e-05
-5e-05
-5e-05
-5e-05
-5e-05
-5e-05
-5e-05
-5e-05
-5e-05
-5e-05
-5e-05
-5e-05
-5e-05
-5e-05
0
0
0
0
0
0
0
0
0
0
0
0
0
0
0
0
0
0
0
0
)
;
    }
    frontAndBack
    {
        type            empty;
        value           nonuniform List<scalar> 0();
    }
}


// ************************************************************************* //
