/*--------------------------------*- C++ -*----------------------------------*\
| =========                 |                                                 |
| \\      /  F ield         | OpenFOAM: The Open Source CFD Toolbox           |
|  \\    /   O peration     | Version:  2312                                  |
|   \\  /    A nd           | Website:  www.openfoam.com                      |
|    \\/     M anipulation  |                                                 |
\*---------------------------------------------------------------------------*/
FoamFile
{
    version     2.0;
    format      ascii;
    arch        "LSB;label=32;scalar=64";
    class       volScalarField;
    location    "9";
    object      QField;
}
// * * * * * * * * * * * * * * * * * * * * * * * * * * * * * * * * * * * * * //

dimensions      [0 0 -2 0 0 0 0];

internalField   nonuniform List<scalar> 
400
(
-1.14245e-23
-5.84755e-24
-4.6059e-26
-9.4053e-27
1.7966e-27
0
4.66882e-29
1.93043e-29
-1.31856e-29
0
0
-3.88602e-28
5.07923e-28
-7.73656e-28
-7.69278e-28
-1.43104e-27
-1.49045e-27
-1.65668e-27
-6.60282e-28
1.55913e-28
-1.8201e-23
-7.85811e-24
-5.30122e-25
8.33361e-27
-2.73446e-27
-1.93574e-27
-5.19409e-28
2.07657e-27
1.04051e-27
-5.79247e-28
-6.06666e-28
-3.86702e-29
6.44349e-28
-1.57196e-27
-1.55216e-27
2.44074e-28
2.40266e-27
8.76357e-28
8.90202e-29
-5.47224e-28
-2.45818e-23
-1.09066e-23
3.9973e-25
-6.61947e-26
1.6131e-26
-4.03319e-27
-2.37693e-27
-2.18171e-27
1.34612e-28
4.77636e-28
8.1529e-28
2.31595e-28
1.4968e-28
-8.23568e-28
-1.398e-27
-4.03005e-29
2.21476e-28
-5.09912e-28
0
-5.26233e-28
-2.18812e-23
-6.35435e-24
-3.62195e-25
-6.31061e-27
-6.54497e-28
-1.57642e-28
5.6761e-30
5.00495e-28
-3.87463e-28
-1.40969e-27
3.69952e-28
4.81652e-29
8.88411e-28
2.10319e-28
-5.98614e-28
1.74006e-28
-4.37409e-28
1.66491e-29
0
1.3597e-28
-1.99274e-23
-5.72472e-24
-2.4604e-25
-8.04088e-27
1.2621e-27
-1.692e-28
3.94057e-29
1.76473e-27
2.61052e-27
-2.53946e-28
0
-2.88052e-28
-1.86045e-29
0
3.9415e-28
7.38093e-28
0
-3.29092e-28
0
-4.39659e-28
-1.28268e-23
-4.15406e-24
-4.49819e-26
-3.89534e-27
-5.37694e-28
-8.39628e-28
-2.38902e-28
-6.205e-28
-6.11814e-28
0
-7.23663e-29
-2.7425e-28
5.32181e-29
-2.25922e-28
-4.3392e-28
-2.49092e-28
-4.67342e-28
2.00285e-28
3.60622e-29
-5.74245e-29
-3.0853e-24
-4.14316e-24
2.47579e-25
-1.91239e-26
1.42796e-26
-1.30395e-27
0
-3.82138e-28
7.82625e-29
0
2.92231e-28
4.45483e-29
-1.44254e-29
0
-1.2162e-27
0
9.66702e-28
-1.08214e-28
-1.87721e-28
0
3.8124e-24
-1.1875e-24
-2.35839e-25
3.85306e-26
3.99015e-27
-4.89165e-28
1.98052e-28
1.16825e-27
-2.09368e-29
-1.51405e-27
-1.28528e-27
-2.69761e-29
3.39781e-28
1.14781e-27
1.91529e-28
0
0
-7.55142e-28
3.02105e-28
-3.74832e-28
3.24126e-24
-3.339e-24
2.00416e-25
-1.47659e-26
9.74172e-27
-1.15166e-27
-6.47144e-28
1.61365e-28
-2.65055e-27
-1.72354e-27
1.07588e-27
1.99493e-27
1.82012e-28
-4.78468e-28
-1.65403e-27
-4.9521e-28
7.82908e-29
0
0
-2.11004e-28
-1.32388e-24
-5.98124e-24
6.91432e-25
2.14666e-26
-9.02652e-27
4.58216e-27
1.41843e-27
3.57752e-27
1.2786e-27
-8.39649e-28
-4.91334e-28
-5.29974e-28
-9.9935e-28
-1.20071e-27
0
9.87428e-28
-1.09224e-28
3.95399e-28
0
-2.15642e-29
-1.97509e-24
-2.24034e-24
-4.69067e-26
1.31255e-25
-2.10548e-26
4.43502e-27
1.46796e-29
1.61201e-28
-2.50014e-27
-1.40835e-27
9.76424e-29
7.16433e-29
-4.69968e-28
5.63589e-28
3.92453e-28
0
3.21908e-28
-8.52467e-28
2.36642e-29
0
5.83735e-24
7.08659e-25
-4.32998e-26
2.47917e-26
4.91533e-27
-2.81464e-28
-8.53202e-29
-4.58581e-28
-2.12315e-27
-9.20498e-28
4.93561e-28
4.23624e-27
-2.07878e-27
-2.59391e-27
-2.12336e-27
3.69794e-28
7.09097e-28
-3.54807e-29
-3.83326e-28
6.33468e-29
1.5473e-23
2.63503e-24
-6.72377e-26
5.2815e-26
-5.00816e-27
2.02874e-27
4.86287e-27
5.48548e-27
1.71419e-27
-2.30752e-28
-2.71045e-28
2.47609e-27
1.00865e-27
-2.54468e-27
-1.8082e-27
0
0
-1.42626e-28
-1.57558e-27
-3.30614e-28
1.30152e-23
1.11607e-24
4.27183e-25
-3.72091e-26
1.30104e-26
-1.54542e-27
-2.7331e-27
1.21075e-28
5.13812e-28
0
4.20293e-28
6.58301e-28
-9.35067e-28
-3.30333e-27
-1.03232e-27
0
4.9329e-28
1.26478e-27
-1.25894e-28
-6.56735e-29
-9.59289e-25
-2.04561e-24
3.135e-25
-5.33898e-27
2.41823e-27
-7.21244e-29
-2.36496e-28
4.12283e-28
2.23003e-27
5.64467e-28
1.42972e-29
-1.09105e-28
9.6117e-28
2.60397e-29
-2.52422e-28
-1.63852e-27
-7.84388e-28
-2.6794e-28
0
1.1304e-28
-1.53189e-23
-5.15982e-24
-1.22925e-25
-7.94245e-27
-3.38853e-27
0
1.01069e-27
-4.63253e-27
-4.53293e-28
2.09812e-28
1.61394e-27
2.25297e-28
-7.16979e-29
1.36196e-27
4.77869e-28
-7.48719e-28
0
-6.47888e-28
-9.77037e-29
-1.57375e-28
-1.86507e-23
-5.89837e-24
-4.29656e-25
-4.3159e-27
-4.30686e-27
1.26802e-28
-7.60364e-28
-9.55408e-28
8.62215e-28
1.01001e-27
-2.75904e-28
2.32143e-28
1.60261e-27
3.22701e-27
3.3524e-29
-8.52522e-28
-7.68217e-28
0
2.82161e-28
-5.0513e-28
-2.66424e-23
-9.86625e-24
-2.01086e-25
-1.32823e-26
-7.73356e-27
2.02152e-28
-2.59244e-28
0
0
-3.35511e-28
-1.80617e-28
-3.21524e-28
-7.94579e-28
1.36723e-27
-3.57864e-28
-4.65697e-27
-1.57067e-27
0
3.65558e-28
-3.77352e-28
-2.75082e-23
-8.28641e-24
-4.1875e-25
-2.43877e-26
3.16298e-27
-3.57022e-28
-1.54243e-27
-1.53547e-28
-5.56177e-30
-1.15337e-28
-4.36454e-28
1.72793e-28
-8.62764e-28
2.71747e-27
1.58505e-27
-9.5046e-28
-2.23888e-29
-1.50348e-28
5.37621e-28
0
-1.32298e-23
-3.80377e-24
-4.1733e-25
4.44911e-26
-9.62398e-27
1.5132e-27
-5.79394e-28
-8.26333e-28
3.81842e-28
-6.44669e-29
-3.09501e-28
-6.46687e-28
-5.91231e-28
4.94392e-28
-7.13416e-28
-5.45219e-28
0
2.80755e-28
-8.10285e-28
0
)
;

boundaryField
{
    movingWall
    {
        type            calculated;
        value           nonuniform List<scalar> 
20
(
4.81999e-24
3.72708e-24
-8.86295e-25
1.10969e-25
-2.30004e-26
4.13206e-27
-3.85238e-27
-2.8586e-27
1.56403e-27
8.41557e-28
2.94062e-28
-1.7724e-28
-2.7854e-28
0
-3.08612e-27
9.8436e-28
0
1.74432e-28
-1.69531e-27
0
)
;
    }
    fixedWalls
    {
        type            calculated;
        value           nonuniform List<scalar> 
60
(
-7.1205e-23
-1.24956e-22
-1.22951e-22
-1.21144e-22
-1.06452e-22
-6.76073e-23
-1.84802e-23
-6.86701e-24
7.31894e-25
-6.27297e-24
-1.87178e-23
2.03167e-23
6.52349e-23
6.33423e-23
-4.82866e-24
-8.43656e-23
-1.11155e-22
-1.34907e-22
-1.51422e-22
-7.57735e-23
0
-8.96571e-28
-1.06705e-27
5.90895e-28
-7.66926e-28
-9.40843e-29
0
-8.44177e-28
-4.00994e-28
1.2483e-28
1.01059e-28
0
-7.23098e-28
-1.076e-28
5.26373e-30
-1.77718e-28
-8.27605e-28
-8.32542e-28
0
0
9.10048e-24
7.09121e-24
-1.67581e-24
1.86157e-25
-2.72478e-26
7.63761e-27
3.8247e-28
3.56258e-28
-6.481e-29
-3.34406e-29
8.46206e-29
-1.13171e-28
-6.29016e-28
-3.7932e-27
-1.76775e-27
-4.37163e-27
-4.6924e-27
-3.8536e-27
-1.62906e-27
-6.91314e-29
)
;
    }
    frontAndBack
    {
        type            empty;
    }
}


// ************************************************************************* //
