/*--------------------------------*- C++ -*----------------------------------*\
| =========                 |                                                 |
| \\      /  F ield         | OpenFOAM: The Open Source CFD Toolbox           |
|  \\    /   O peration     | Version:  2312                                  |
|   \\  /    A nd           | Website:  www.openfoam.com                      |
|    \\/     M anipulation  |                                                 |
\*---------------------------------------------------------------------------*/
FoamFile
{
    version     2.0;
    format      ascii;
    arch        "LSB;label=32;scalar=64";
    class       surfaceScalarField;
    location    "9";
    object      surfaceK;
}
// * * * * * * * * * * * * * * * * * * * * * * * * * * * * * * * * * * * * * //

dimensions      [0 2 -2 0 0 0 0];

internalField   nonuniform List<scalar> 
760
(
3.06334e-06
3.08647e-06
3.06334e-06
3.08647e-06
3.06334e-06
3.08643e-06
3.06334e-06
3.08642e-06
3.06334e-06
3.08639e-06
3.06333e-06
3.08638e-06
3.06333e-06
3.08635e-06
3.06333e-06
3.08634e-06
3.06333e-06
3.08633e-06
3.06333e-06
3.08631e-06
3.06333e-06
3.0863e-06
3.06333e-06
3.08629e-06
3.06333e-06
3.08628e-06
3.06333e-06
3.08627e-06
3.06333e-06
3.08627e-06
3.06333e-06
3.08626e-06
3.06333e-06
3.08626e-06
3.06333e-06
3.08626e-06
3.06333e-06
3.08625e-06
3.08625e-06
3.1096e-06
3.14674e-06
3.10956e-06
3.14674e-06
3.10951e-06
3.14667e-06
3.10947e-06
3.14664e-06
3.10943e-06
3.14659e-06
3.1094e-06
3.14656e-06
3.10936e-06
3.14652e-06
3.10933e-06
3.14649e-06
3.10931e-06
3.14646e-06
3.10928e-06
3.14643e-06
3.10926e-06
3.14641e-06
3.10924e-06
3.14639e-06
3.10922e-06
3.14637e-06
3.10921e-06
3.14635e-06
3.1092e-06
3.14634e-06
3.10919e-06
3.14633e-06
3.10918e-06
3.14632e-06
3.10918e-06
3.14631e-06
3.10918e-06
3.14631e-06
3.14631e-06
3.18389e-06
3.22384e-06
3.18385e-06
3.22384e-06
3.1838e-06
3.22376e-06
3.18376e-06
3.22373e-06
3.18372e-06
3.22368e-06
3.18368e-06
3.22364e-06
3.18364e-06
3.2236e-06
3.18361e-06
3.22357e-06
3.18358e-06
3.22354e-06
3.18356e-06
3.22351e-06
3.18354e-06
3.22349e-06
3.18351e-06
3.22347e-06
3.1835e-06
3.22344e-06
3.18348e-06
3.22343e-06
3.18347e-06
3.22341e-06
3.18346e-06
3.22341e-06
3.18345e-06
3.22339e-06
3.18345e-06
3.22339e-06
3.18344e-06
3.22338e-06
3.22338e-06
3.26379e-06
3.29832e-06
3.26375e-06
3.29832e-06
3.26369e-06
3.29824e-06
3.26365e-06
3.29821e-06
3.26361e-06
3.29815e-06
3.26357e-06
3.29812e-06
3.26353e-06
3.29807e-06
3.2635e-06
3.29804e-06
3.26347e-06
3.298e-06
3.26344e-06
3.29798e-06
3.26342e-06
3.29795e-06
3.2634e-06
3.29794e-06
3.26338e-06
3.2979e-06
3.26336e-06
3.2979e-06
3.26335e-06
3.29787e-06
3.26334e-06
3.29787e-06
3.26333e-06
3.29785e-06
3.26332e-06
3.29785e-06
3.26332e-06
3.29784e-06
3.29784e-06
3.33286e-06
3.35874e-06
3.33281e-06
3.35875e-06
3.33275e-06
3.35865e-06
3.33271e-06
3.35863e-06
3.33266e-06
3.35856e-06
3.33262e-06
3.35853e-06
3.33258e-06
3.35848e-06
3.33255e-06
3.35846e-06
3.33252e-06
3.35841e-06
3.33249e-06
3.35839e-06
3.33246e-06
3.35835e-06
3.33244e-06
3.35834e-06
3.33242e-06
3.3583e-06
3.3324e-06
3.3583e-06
3.33239e-06
3.35827e-06
3.33238e-06
3.35827e-06
3.33237e-06
3.35825e-06
3.33237e-06
3.35825e-06
3.33236e-06
3.35824e-06
3.35824e-06
3.38463e-06
3.40232e-06
3.38459e-06
3.40232e-06
3.38453e-06
3.40222e-06
3.38448e-06
3.4022e-06
3.38443e-06
3.40213e-06
3.38439e-06
3.4021e-06
3.38435e-06
3.40205e-06
3.38432e-06
3.40202e-06
3.38428e-06
3.40197e-06
3.38425e-06
3.40196e-06
3.38423e-06
3.40191e-06
3.3842e-06
3.4019e-06
3.38418e-06
3.40186e-06
3.38417e-06
3.40186e-06
3.38415e-06
3.40183e-06
3.38414e-06
3.40183e-06
3.38413e-06
3.40181e-06
3.38413e-06
3.40181e-06
3.38413e-06
3.4018e-06
3.4018e-06
3.42e-06
3.4315e-06
3.41995e-06
3.4315e-06
3.41989e-06
3.43141e-06
3.41985e-06
3.43138e-06
3.4198e-06
3.43132e-06
3.41976e-06
3.43128e-06
3.41972e-06
3.43123e-06
3.41968e-06
3.4312e-06
3.41965e-06
3.43116e-06
3.41961e-06
3.43113e-06
3.41959e-06
3.4311e-06
3.41956e-06
3.43108e-06
3.41954e-06
3.43105e-06
3.41953e-06
3.43104e-06
3.41951e-06
3.43101e-06
3.4195e-06
3.43101e-06
3.41949e-06
3.43099e-06
3.41949e-06
3.43099e-06
3.41948e-06
3.43098e-06
3.43098e-06
3.443e-06
3.45049e-06
3.44296e-06
3.45049e-06
3.44289e-06
3.4504e-06
3.44285e-06
3.45037e-06
3.4428e-06
3.4503e-06
3.44276e-06
3.45027e-06
3.44271e-06
3.45022e-06
3.44268e-06
3.45019e-06
3.44264e-06
3.45014e-06
3.44261e-06
3.45012e-06
3.44258e-06
3.45008e-06
3.44256e-06
3.45006e-06
3.44254e-06
3.45003e-06
3.44252e-06
3.45002e-06
3.44251e-06
3.45e-06
3.4425e-06
3.44999e-06
3.44249e-06
3.44998e-06
3.44248e-06
3.44997e-06
3.44248e-06
3.44997e-06
3.44996e-06
3.45798e-06
3.46316e-06
3.45793e-06
3.46316e-06
3.45787e-06
3.46306e-06
3.45782e-06
3.46303e-06
3.45777e-06
3.46297e-06
3.45773e-06
3.46293e-06
3.45769e-06
3.46288e-06
3.45765e-06
3.46285e-06
3.45762e-06
3.46281e-06
3.45759e-06
3.46279e-06
3.45756e-06
3.46274e-06
3.45753e-06
3.46273e-06
3.45751e-06
3.46269e-06
3.4575e-06
3.46269e-06
3.45748e-06
3.46266e-06
3.45747e-06
3.46265e-06
3.45746e-06
3.46264e-06
3.45746e-06
3.46264e-06
3.45745e-06
3.46263e-06
3.46263e-06
3.46834e-06
3.47235e-06
3.46829e-06
3.47236e-06
3.46823e-06
3.47225e-06
3.46818e-06
3.47222e-06
3.46813e-06
3.47216e-06
3.46809e-06
3.47212e-06
3.46805e-06
3.47207e-06
3.46801e-06
3.47204e-06
3.46797e-06
3.472e-06
3.46794e-06
3.47197e-06
3.46791e-06
3.47194e-06
3.46789e-06
3.47191e-06
3.46787e-06
3.47189e-06
3.46785e-06
3.47187e-06
3.46783e-06
3.47185e-06
3.46782e-06
3.47184e-06
3.46781e-06
3.47183e-06
3.46781e-06
3.47182e-06
3.46781e-06
3.47182e-06
3.47182e-06
3.47637e-06
3.47991e-06
3.47632e-06
3.47992e-06
3.47625e-06
3.47981e-06
3.4762e-06
3.47979e-06
3.47615e-06
3.47972e-06
3.47611e-06
3.47969e-06
3.47607e-06
3.47963e-06
3.47603e-06
3.4796e-06
3.476e-06
3.47956e-06
3.47597e-06
3.47953e-06
3.47594e-06
3.47949e-06
3.47591e-06
3.47948e-06
3.47589e-06
3.47945e-06
3.47587e-06
3.47943e-06
3.47586e-06
3.47941e-06
3.47585e-06
3.4794e-06
3.47584e-06
3.47939e-06
3.47583e-06
3.47938e-06
3.47583e-06
3.47938e-06
3.47938e-06
3.48346e-06
3.48696e-06
3.48341e-06
3.48696e-06
3.48335e-06
3.48685e-06
3.4833e-06
3.48683e-06
3.48325e-06
3.48676e-06
3.48321e-06
3.48673e-06
3.48317e-06
3.48667e-06
3.48313e-06
3.48665e-06
3.48309e-06
3.48659e-06
3.48306e-06
3.48658e-06
3.48303e-06
3.48653e-06
3.48301e-06
3.48652e-06
3.48299e-06
3.48648e-06
3.48297e-06
3.48648e-06
3.48295e-06
3.48644e-06
3.48294e-06
3.48645e-06
3.48293e-06
3.48642e-06
3.48293e-06
3.48642e-06
3.48292e-06
3.48642e-06
3.48642e-06
3.49045e-06
3.49411e-06
3.4904e-06
3.49411e-06
3.49034e-06
3.49401e-06
3.49029e-06
3.49398e-06
3.49024e-06
3.49392e-06
3.49019e-06
3.49388e-06
3.49015e-06
3.49383e-06
3.49011e-06
3.4938e-06
3.49008e-06
3.49375e-06
3.49005e-06
3.49373e-06
3.49002e-06
3.49368e-06
3.48999e-06
3.49367e-06
3.48997e-06
3.49363e-06
3.48995e-06
3.49363e-06
3.48994e-06
3.4936e-06
3.48993e-06
3.4936e-06
3.48992e-06
3.49358e-06
3.48991e-06
3.49358e-06
3.48991e-06
3.49357e-06
3.49357e-06
3.49777e-06
3.50169e-06
3.49772e-06
3.5017e-06
3.49766e-06
3.50159e-06
3.49761e-06
3.50156e-06
3.49756e-06
3.5015e-06
3.49752e-06
3.50146e-06
3.49747e-06
3.50141e-06
3.49743e-06
3.50137e-06
3.4974e-06
3.50133e-06
3.49737e-06
3.5013e-06
3.49734e-06
3.50127e-06
3.49731e-06
3.50125e-06
3.49729e-06
3.50122e-06
3.49727e-06
3.5012e-06
3.49726e-06
3.50118e-06
3.49725e-06
3.50117e-06
3.49724e-06
3.50116e-06
3.49723e-06
3.50115e-06
3.49723e-06
3.50115e-06
3.50115e-06
3.50561e-06
3.50975e-06
3.50556e-06
3.50975e-06
3.5055e-06
3.50965e-06
3.50545e-06
3.50961e-06
3.5054e-06
3.50955e-06
3.50535e-06
3.50951e-06
3.50531e-06
3.50946e-06
3.50527e-06
3.50943e-06
3.50524e-06
3.50938e-06
3.50521e-06
3.50935e-06
3.50518e-06
3.50932e-06
3.50515e-06
3.5093e-06
3.50513e-06
3.50927e-06
3.50511e-06
3.50925e-06
3.5051e-06
3.50923e-06
3.50508e-06
3.50922e-06
3.50508e-06
3.50921e-06
3.50507e-06
3.5092e-06
3.50507e-06
3.5092e-06
3.5092e-06
3.51388e-06
3.51802e-06
3.51383e-06
3.51803e-06
3.51376e-06
3.51792e-06
3.51371e-06
3.51789e-06
3.51366e-06
3.51782e-06
3.51362e-06
3.51779e-06
3.51357e-06
3.51773e-06
3.51354e-06
3.5177e-06
3.5135e-06
3.51766e-06
3.51347e-06
3.51763e-06
3.51344e-06
3.5176e-06
3.51342e-06
3.51757e-06
3.51339e-06
3.51755e-06
3.51338e-06
3.51753e-06
3.51336e-06
3.51751e-06
3.51335e-06
3.5175e-06
3.51334e-06
3.51748e-06
3.51333e-06
3.51748e-06
3.51333e-06
3.51747e-06
3.51747e-06
3.52217e-06
3.52595e-06
3.52212e-06
3.52595e-06
3.52205e-06
3.52585e-06
3.522e-06
3.52582e-06
3.52195e-06
3.52575e-06
3.5219e-06
3.52572e-06
3.52186e-06
3.52566e-06
3.52182e-06
3.52563e-06
3.52179e-06
3.52558e-06
3.52176e-06
3.52556e-06
3.52173e-06
3.52552e-06
3.5217e-06
3.5255e-06
3.52168e-06
3.52547e-06
3.52166e-06
3.52546e-06
3.52164e-06
3.52543e-06
3.52163e-06
3.52542e-06
3.52162e-06
3.52541e-06
3.52162e-06
3.5254e-06
3.52162e-06
3.5254e-06
3.5254e-06
3.52973e-06
3.53267e-06
3.52968e-06
3.53267e-06
3.52962e-06
3.53256e-06
3.52957e-06
3.53253e-06
3.52952e-06
3.53247e-06
3.52947e-06
3.53243e-06
3.52943e-06
3.53238e-06
3.52939e-06
3.53235e-06
3.52935e-06
3.5323e-06
3.52932e-06
3.53228e-06
3.52929e-06
3.53224e-06
3.52927e-06
3.53222e-06
3.52924e-06
3.53219e-06
3.52923e-06
3.53218e-06
3.52921e-06
3.53215e-06
3.5292e-06
3.53215e-06
3.52919e-06
3.53213e-06
3.52919e-06
3.53213e-06
3.52918e-06
3.53212e-06
3.53212e-06
3.5356e-06
3.53695e-06
3.53555e-06
3.53695e-06
3.53548e-06
3.5369e-06
3.53544e-06
3.53688e-06
3.53539e-06
3.53685e-06
3.53534e-06
3.53683e-06
3.5353e-06
3.5368e-06
3.53526e-06
3.53679e-06
3.53523e-06
3.53677e-06
3.5352e-06
3.53675e-06
3.53517e-06
3.53674e-06
3.53514e-06
3.53672e-06
3.53512e-06
3.53671e-06
3.5351e-06
3.5367e-06
3.53509e-06
3.53669e-06
3.53507e-06
3.53669e-06
3.53507e-06
3.53668e-06
3.53506e-06
3.53668e-06
3.53506e-06
3.53667e-06
3.53667e-06
3.5383e-06
3.5383e-06
3.5383e-06
3.53829e-06
3.53829e-06
3.53829e-06
3.53829e-06
3.53829e-06
3.53829e-06
3.53829e-06
3.53829e-06
3.53829e-06
3.53829e-06
3.53829e-06
3.53829e-06
3.53829e-06
3.53829e-06
3.53829e-06
3.53829e-06
)
;

boundaryField
{
    movingWall
    {
        type            calculated;
        value           nonuniform List<scalar> 
20
(
3.5383e-06
3.5383e-06
3.5383e-06
3.5383e-06
3.53829e-06
3.53829e-06
3.53829e-06
3.53829e-06
3.53829e-06
3.53829e-06
3.53829e-06
3.53829e-06
3.53829e-06
3.53829e-06
3.53829e-06
3.53829e-06
3.53829e-06
3.53829e-06
3.53829e-06
3.53829e-06
)
;
    }
    fixedWalls
    {
        type            calculated;
        value           nonuniform List<scalar> 
60
(
3.06334e-06
3.10959e-06
3.18389e-06
3.26379e-06
3.33285e-06
3.38463e-06
3.42e-06
3.443e-06
3.45798e-06
3.46834e-06
3.47637e-06
3.48346e-06
3.49045e-06
3.49777e-06
3.50561e-06
3.51388e-06
3.52217e-06
3.52973e-06
3.5356e-06
3.5383e-06
3.06333e-06
3.10918e-06
3.18344e-06
3.26332e-06
3.33236e-06
3.38413e-06
3.41948e-06
3.44248e-06
3.45745e-06
3.46781e-06
3.47583e-06
3.48292e-06
3.48991e-06
3.49723e-06
3.50507e-06
3.51333e-06
3.52161e-06
3.52918e-06
3.53506e-06
3.53829e-06
3.06334e-06
3.06334e-06
3.06334e-06
3.06334e-06
3.06334e-06
3.06333e-06
3.06333e-06
3.06333e-06
3.06333e-06
3.06333e-06
3.06333e-06
3.06333e-06
3.06333e-06
3.06333e-06
3.06333e-06
3.06333e-06
3.06333e-06
3.06333e-06
3.06333e-06
3.06333e-06
)
;
    }
    frontAndBack
    {
        type            empty;
        value           nonuniform List<scalar> 0();
    }
}


// ************************************************************************* //
