/*--------------------------------*- C++ -*----------------------------------*\
| =========                 |                                                 |
| \\      /  F ield         | OpenFOAM: The Open Source CFD Toolbox           |
|  \\    /   O peration     | Version:  2312                                  |
|   \\  /    A nd           | Website:  www.openfoam.com                      |
|    \\/     M anipulation  |                                                 |
\*---------------------------------------------------------------------------*/
FoamFile
{
    version     2.0;
    format      ascii;
    arch        "LSB;label=32;scalar=64";
    class       surfaceScalarField;
    location    "9";
    object      surfaceP;
}
// * * * * * * * * * * * * * * * * * * * * * * * * * * * * * * * * * * * * * //

dimensions      [0 2 -2 0 0 0 0];

internalField   nonuniform List<scalar> 
760
(
2.66723e-15
2.24852e-15
3.81192e-15
2.3667e-15
3.17275e-15
3.00401e-15
3.60922e-15
3.29362e-15
3.81313e-15
3.67706e-15
3.8871e-15
3.84209e-15
3.95344e-15
3.86974e-15
3.9293e-15
3.98743e-15
3.83494e-15
3.89868e-15
3.8293e-15
3.8167e-15
3.88737e-15
3.85813e-15
3.84413e-15
3.93677e-15
3.76519e-15
3.87462e-15
3.81135e-15
3.70606e-15
3.94662e-15
3.79882e-15
4.0072e-15
3.9993e-15
3.8731e-15
3.9541e-15
3.6406e-15
3.83288e-15
3.63381e-15
3.60935e-15
3.7376e-15
1.94799e-15
3.7505e-15
1.55879e-15
1.81132e-15
3.12488e-15
3.20643e-15
3.36146e-15
3.37316e-15
3.70602e-15
3.64883e-15
3.82473e-15
3.85277e-15
3.90372e-15
3.88548e-15
3.95681e-15
3.98465e-15
3.88043e-15
3.92394e-15
3.84552e-15
3.87196e-15
3.90753e-15
3.84048e-15
3.96727e-15
3.93838e-15
3.81549e-15
3.98124e-15
3.69353e-15
3.67555e-15
3.85151e-15
3.83036e-15
3.94621e-15
3.96901e-15
3.91388e-15
3.86736e-15
3.80163e-15
3.81863e-15
3.71314e-15
3.76057e-15
3.84954e-15
3.61383e-15
3.31594e-15
3.45896e-15
4.24689e-15
3.45471e-15
3.5074e-15
3.66053e-15
3.79723e-15
3.79557e-15
3.90534e-15
3.91352e-15
3.98432e-15
3.96641e-15
3.9917e-15
3.95178e-15
3.91807e-15
3.91546e-15
3.96284e-15
3.86692e-15
3.93368e-15
3.87133e-15
3.81556e-15
3.95235e-15
3.89015e-15
3.8413e-15
3.95144e-15
3.81238e-15
3.79923e-15
3.94786e-15
3.99335e-15
3.89016e-15
3.99396e-15
3.7721e-15
3.82605e-15
3.77757e-15
3.73472e-15
3.89697e-15
3.82911e-15
4.05051e-15
3.949e-15
3.4144e-15
4.29533e-15
3.81631e-15
3.84992e-15
3.99079e-15
4.04204e-15
4.09027e-15
4.09409e-15
4.22547e-15
4.0625e-15
4.1525e-15
3.94336e-15
4.13541e-15
3.92913e-15
3.98403e-15
3.98106e-15
4.08476e-15
3.88232e-15
3.89084e-15
3.83438e-15
3.80909e-15
3.88924e-15
3.84307e-15
3.90937e-15
3.83028e-15
3.98019e-15
3.88672e-15
4.03944e-15
4.01736e-15
3.92984e-15
4.0319e-15
3.78866e-15
3.93054e-15
3.78626e-15
3.84156e-15
3.98265e-15
3.92422e-15
4.20048e-15
3.28171e-15
3.69017e-15
3.51176e-15
3.9531e-15
4.23114e-15
4.30653e-15
4.2737e-15
4.34279e-15
4.28388e-15
4.45694e-15
4.22541e-15
4.28355e-15
4.17608e-15
4.27442e-15
4.13967e-15
4.28055e-15
3.99454e-15
4.17378e-15
3.81761e-15
3.82308e-15
3.81779e-15
3.79032e-15
3.78411e-15
3.84588e-15
3.80763e-15
3.71675e-15
3.92388e-15
3.80634e-15
4.00982e-15
3.9537e-15
4.0326e-15
4.07073e-15
3.98343e-15
4.04529e-15
3.97952e-15
3.99905e-15
4.14206e-15
4.11138e-15
4.35436e-15
4.36156e-15
4.04227e-15
4.74786e-15
5.65787e-15
4.41818e-15
4.42408e-15
4.52604e-15
4.58453e-15
4.45661e-15
4.62907e-15
4.33256e-15
4.41587e-15
4.37889e-15
4.37595e-15
4.31466e-15
4.507e-15
4.00231e-15
4.34223e-15
3.79578e-15
3.93961e-15
3.81841e-15
3.76592e-15
3.77852e-15
3.8218e-15
3.71547e-15
3.79602e-15
3.83615e-15
3.75598e-15
4.01461e-15
3.85583e-15
4.08342e-15
4.05848e-15
4.06091e-15
4.10152e-15
4.13091e-15
4.09573e-15
4.32368e-15
4.22774e-15
4.47883e-15
5.33858e-15
5.02921e-15
5.33408e-15
3.62877e-15
4.59042e-15
4.62195e-15
4.68756e-15
4.67269e-15
4.58833e-15
4.81815e-15
4.45927e-15
4.5635e-15
4.50407e-15
4.54943e-15
4.53458e-15
4.65454e-15
4.27954e-15
4.582e-15
3.90976e-15
4.1939e-15
3.76931e-15
3.81223e-15
3.83929e-15
3.75793e-15
3.83653e-15
3.86271e-15
3.77566e-15
3.79425e-15
3.89971e-15
3.85508e-15
4.07658e-15
4.05789e-15
4.13634e-15
4.148e-15
4.19255e-15
4.22829e-15
4.38289e-15
4.27718e-15
4.58201e-15
3.3194e-15
4.94568e-15
2.91664e-15
4.6554e-15
4.70422e-15
4.91401e-15
4.80327e-15
4.87838e-15
4.79331e-15
4.87737e-15
4.65366e-15
4.71618e-15
4.6999e-15
4.79121e-15
4.70197e-15
4.79547e-15
4.49636e-15
4.71266e-15
4.09637e-15
4.39911e-15
3.80086e-15
4.01144e-15
3.78135e-15
3.87713e-15
3.82042e-15
3.92961e-15
3.87366e-15
3.8907e-15
4.01326e-15
4.01151e-15
4.12931e-15
4.12825e-15
4.23995e-15
4.20351e-15
4.31292e-15
4.363e-15
4.4763e-15
4.35812e-15
4.58142e-15
6.28168e-15
4.66942e-15
6.65277e-15
6.51461e-15
5.08817e-15
5.15851e-15
4.95248e-15
5.16714e-15
4.80024e-15
4.94498e-15
4.85373e-15
4.8644e-15
4.88678e-15
4.9098e-15
4.80616e-15
4.91469e-15
4.6154e-15
4.87333e-15
4.31418e-15
4.58744e-15
4.08771e-15
4.29288e-15
4.02539e-15
4.14876e-15
3.99989e-15
4.11594e-15
4.02855e-15
4.01962e-15
4.1265e-15
4.09936e-15
4.20245e-15
4.26916e-15
4.32656e-15
4.32073e-15
4.40819e-15
4.44945e-15
4.46324e-15
4.43352e-15
4.53176e-15
4.90236e-15
5.33484e-15
5.02036e-15
4.05304e-15
5.23749e-15
5.32857e-15
5.15964e-15
5.24482e-15
5.00914e-15
5.13056e-15
4.92047e-15
5.05232e-15
4.9377e-15
5.07906e-15
4.98185e-15
5.06507e-15
4.84537e-15
4.98291e-15
4.56615e-15
4.74535e-15
4.35393e-15
4.487e-15
4.23931e-15
4.36723e-15
4.13567e-15
4.37156e-15
4.09043e-15
4.24612e-15
4.24202e-15
4.24793e-15
4.38744e-15
4.43494e-15
4.44362e-15
4.45788e-15
4.47479e-15
4.55712e-15
4.50205e-15
4.51383e-15
4.58037e-15
4.48551e-15
5.52544e-15
4.36124e-15
5.82619e-15
5.3359e-15
5.38191e-15
5.21574e-15
5.4576e-15
5.17374e-15
5.30348e-15
5.21091e-15
5.33852e-15
5.20643e-15
5.28805e-15
5.06613e-15
5.18746e-15
4.88289e-15
4.98661e-15
4.6662e-15
4.85448e-15
4.5003e-15
4.6689e-15
4.49947e-15
4.67262e-15
4.48201e-15
4.61686e-15
4.40362e-15
4.50895e-15
4.44085e-15
4.43299e-15
4.50539e-15
4.58362e-15
4.57138e-15
4.58399e-15
4.59616e-15
4.5894e-15
4.59215e-15
4.58072e-15
4.69555e-15
6.86611e-15
5.76396e-15
6.84685e-15
5.08129e-15
5.5036e-15
5.50321e-15
5.54534e-15
5.48827e-15
5.46825e-15
5.54571e-15
5.41565e-15
5.47072e-15
5.26909e-15
5.38148e-15
5.10795e-15
5.22273e-15
4.9582e-15
5.05153e-15
4.85717e-15
4.99369e-15
4.84122e-15
5.00888e-15
4.79001e-15
4.92089e-15
4.6438e-15
4.80558e-15
4.53831e-15
4.77875e-15
4.57575e-15
4.58554e-15
4.66222e-15
4.68722e-15
4.60201e-15
4.68341e-15
4.57396e-15
4.62118e-15
4.68412e-15
4.61284e-15
4.78935e-15
3.97914e-15
5.76221e-15
3.73766e-15
4.78626e-15
5.48788e-15
5.62441e-15
5.48864e-15
5.58588e-15
5.54818e-15
5.75511e-15
5.43655e-15
5.57007e-15
5.33512e-15
5.44022e-15
5.16632e-15
5.22048e-15
5.08703e-15
5.11076e-15
5.1454e-15
5.11468e-15
5.08855e-15
5.15637e-15
4.93647e-15
5.02164e-15
4.94053e-15
5.07459e-15
4.82598e-15
5.12302e-15
4.69701e-15
4.81664e-15
4.70841e-15
4.73546e-15
4.70258e-15
4.75034e-15
4.66007e-15
4.74062e-15
4.71808e-15
4.69369e-15
4.92351e-15
6.56933e-15
5.39822e-15
6.67301e-15
6.61206e-15
5.7224e-15
5.77733e-15
5.85235e-15
5.83623e-15
5.77701e-15
5.86009e-15
5.57374e-15
5.76648e-15
5.32557e-15
5.44851e-15
5.16492e-15
5.27404e-15
5.13841e-15
5.22954e-15
5.12565e-15
5.33058e-15
5.08946e-15
5.21693e-15
5.15976e-15
5.16854e-15
5.25707e-15
5.20757e-15
5.11368e-15
5.31143e-15
4.8551e-15
5.03843e-15
4.77739e-15
4.75814e-15
4.78837e-15
4.76171e-15
4.77425e-15
4.82606e-15
4.89912e-15
4.88459e-15
5.15133e-15
5.44094e-15
5.56011e-15
5.71638e-15
4.91023e-15
5.89116e-15
5.96754e-15
5.84397e-15
5.85386e-15
5.84956e-15
5.90941e-15
5.64124e-15
5.73657e-15
5.39697e-15
5.52596e-15
5.33866e-15
5.51375e-15
5.42171e-15
5.49503e-15
5.42186e-15
5.45621e-15
5.296e-15
5.26866e-15
5.21634e-15
5.2764e-15
5.26192e-15
5.25259e-15
5.23618e-15
5.37204e-15
4.94147e-15
5.21509e-15
4.74246e-15
4.9238e-15
4.7994e-15
4.85555e-15
4.93641e-15
4.84632e-15
5.13679e-15
5.0182e-15
5.23727e-15
5.02939e-15
5.32014e-15
5.16138e-15
6.03039e-15
5.93024e-15
5.90113e-15
5.91931e-15
5.96941e-15
5.79643e-15
5.98089e-15
5.62129e-15
5.80876e-15
5.64273e-15
5.68659e-15
5.67011e-15
5.62031e-15
5.52953e-15
5.64005e-15
5.30301e-15
5.39476e-15
5.24905e-15
5.23643e-15
5.31265e-15
5.34731e-15
5.36271e-15
5.29571e-15
5.35095e-15
5.3572e-15
5.19741e-15
5.31696e-15
5.03689e-15
5.10931e-15
4.90247e-15
4.99979e-15
4.92812e-15
4.84531e-15
5.11867e-15
5.03255e-15
5.26989e-15
6.32113e-15
5.36818e-15
6.77013e-15
6.46005e-15
5.94029e-15
5.89416e-15
6.03099e-15
5.9539e-15
5.99322e-15
5.9803e-15
5.87406e-15
5.88736e-15
5.66417e-15
5.78878e-15
5.59025e-15
5.62556e-15
5.50528e-15
5.6602e-15
5.32818e-15
5.40605e-15
5.33469e-15
5.32087e-15
5.33037e-15
5.29792e-15
5.2902e-15
5.18042e-15
5.32322e-15
5.27085e-15
5.22886e-15
5.29922e-15
5.07221e-15
5.23157e-15
4.94262e-15
5.08532e-15
4.94974e-15
4.87547e-15
5.18377e-15
4.97861e-15
5.26746e-15
5.5071e-15
5.96531e-15
5.58408e-15
4.64181e-15
5.90777e-15
5.87573e-15
5.90321e-15
5.82117e-15
5.87444e-15
5.95548e-15
5.80208e-15
5.83392e-15
5.75017e-15
5.90533e-15
5.6955e-15
5.69061e-15
5.56097e-15
5.65974e-15
5.39874e-15
5.4194e-15
5.2841e-15
5.31257e-15
5.14797e-15
5.17411e-15
5.16107e-15
5.19441e-15
5.24685e-15
5.2764e-15
5.30193e-15
5.27621e-15
5.24468e-15
5.25377e-15
5.01816e-15
5.16263e-15
4.90434e-15
4.94403e-15
5.06231e-15
4.89092e-15
5.14527e-15
5.10001e-15
5.22787e-15
4.93345e-15
5.63571e-15
5.78913e-15
5.86365e-15
5.87343e-15
5.82243e-15
5.91495e-15
5.93186e-15
5.93717e-15
5.85528e-15
5.84577e-15
5.90262e-15
5.65484e-15
5.7322e-15
5.51817e-15
5.62325e-15
5.33323e-15
5.41664e-15
5.20258e-15
5.26298e-15
5.22055e-15
5.1238e-15
5.30975e-15
5.23663e-15
5.30576e-15
5.36048e-15
5.22805e-15
5.35772e-15
5.17172e-15
5.10585e-15
5.08849e-15
5.2682e-15
4.9306e-15
5.02005e-15
4.97388e-15
4.81032e-15
5.00502e-15
5.76357e-15
6.5659e-15
5.89695e-15
5.88086e-15
5.87219e-15
5.82073e-15
5.78905e-15
5.70061e-15
5.52172e-15
5.34638e-15
5.1842e-15
5.13989e-15
5.28736e-15
5.41245e-15
5.23552e-15
5.20233e-15
5.19976e-15
4.89977e-15
4.84146e-15
)
;

boundaryField
{
    movingWall
    {
        type            calculated;
        value           nonuniform List<scalar> 
20
(
4.3225e-15
7.20464e-15
5.92717e-15
5.86674e-15
5.89497e-15
5.8494e-15
5.79207e-15
5.78603e-15
5.61519e-15
5.42825e-15
5.26452e-15
5.10388e-15
5.17589e-15
5.39884e-15
5.42605e-15
5.045e-15
5.35966e-15
5.03986e-15
4.75968e-15
4.92324e-15
)
;
    }
    fixedWalls
    {
        type            calculated;
        value           nonuniform List<scalar> 
60
(
6.01051e-16
3.89598e-15
3.60501e-15
3.02686e-15
3.80193e-15
3.57841e-15
4.50614e-15
5.55229e-15
4.33908e-15
4.99977e-15
5.6699e-15
5.38098e-15
6.14693e-15
5.37749e-15
5.41895e-15
5.70127e-15
4.939e-15
5.79736e-15
6.13325e-15
4.3225e-15
3.75386e-15
3.72134e-15
3.97774e-15
4.12327e-15
4.27769e-15
4.43102e-15
4.52664e-15
4.63739e-15
4.52546e-15
4.53805e-15
4.62268e-15
4.76841e-15
4.8103e-15
5.03671e-15
5.26594e-15
5.2086e-15
5.33118e-15
5.20374e-15
5.0868e-15
4.92324e-15
6.01051e-16
4.73341e-15
2.89044e-15
3.45507e-15
3.76337e-15
3.86289e-15
3.91131e-15
3.99557e-15
3.86303e-15
3.80686e-15
3.85175e-15
3.92299e-15
3.76526e-15
3.76511e-15
3.8576e-15
4.03564e-15
3.97876e-15
3.76744e-15
3.51376e-15
3.75386e-15
)
;
    }
    frontAndBack
    {
        type            empty;
        value           nonuniform List<scalar> 0();
    }
}


// ************************************************************************* //
