/*--------------------------------*- C++ -*----------------------------------*\
| =========                 |                                                 |
| \\      /  F ield         | OpenFOAM: The Open Source CFD Toolbox           |
|  \\    /   O peration     | Version:  2312                                  |
|   \\  /    A nd           | Website:  www.openfoam.com                      |
|    \\/     M anipulation  |                                                 |
\*---------------------------------------------------------------------------*/
FoamFile
{
    version     2.0;
    format      ascii;
    arch        "LSB;label=32;scalar=64";
    class       surfaceVectorField;
    location    "9";
    object      surfaceU;
}
// * * * * * * * * * * * * * * * * * * * * * * * * * * * * * * * * * * * * * //

dimensions      [0 1 -1 0 0 0 0];

internalField   nonuniform List<vector> 
760
(
(-1 5.1169e-14 0)
(-1 7.52931e-14 0)
(-1 -1.0296e-14 0)
(-1 -1.54834e-14 0)
(-1 2.68376e-15 0)
(-1 3.82843e-15 0)
(-1 -3.31956e-16 0)
(-1 -6.40375e-16 0)
(-1 2.79481e-16 0)
(-1 2.80023e-16 0)
(-1 6.4501e-17 0)
(-1 -4.08636e-17 0)
(-1 5.58885e-17 0)
(-1 -3.78278e-17 0)
(-1 2.94471e-17 0)
(-1 -3.56101e-18 0)
(-1 3.18794e-17 0)
(-1 6.34175e-17 0)
(-1 3.3762e-17 0)
(-1 6.28517e-17 0)
(-1 3.05862e-17 0)
(-1 2.96826e-17 0)
(-1 5.93018e-18 0)
(-1 2.23725e-17 0)
(-1 5.38311e-17 0)
(-1 -2.10678e-18 0)
(-1 1.44742e-16 0)
(-1 1.42714e-16 0)
(-1 1.57434e-16 0)
(-1 1.41907e-16 0)
(-1 9.66646e-17 0)
(-1 1.3199e-16 0)
(-1 -2.27481e-17 0)
(-1 3.61134e-17 0)
(-1 -8.03802e-17 0)
(-1 -1.01868e-16 0)
(-1 -3.36909e-17 0)
(-1 -1.21801e-16 0)
(-1 -2.87608e-17 0)
(-1 8.64077e-15 0)
(-1 -4.23375e-14 0)
(-1 -1.359e-15 0)
(-1 8.95307e-15 0)
(-1 5.04287e-16 0)
(-1 -2.12194e-15 0)
(-1 -2.83957e-17 0)
(-1 3.94606e-16 0)
(-1 -4.03214e-17 0)
(-1 -2.1247e-16 0)
(-1 -1.43192e-16 0)
(-1 -1.16534e-16 0)
(-1 -9.72773e-17 0)
(-1 -1.08692e-16 0)
(-1 3.04094e-17 0)
(-1 -4.02426e-18 0)
(-1 9.43897e-17 0)
(-1 6.10438e-17 0)
(-1 5.87723e-17 0)
(-1 5.37482e-17 0)
(-1 2.14689e-17 0)
(-1 -3.94304e-18 0)
(-1 1.43355e-17 0)
(-1 -3.25664e-17 0)
(-1 8.67765e-17 0)
(-1 -2.5317e-17 0)
(-1 1.39879e-16 0)
(-1 1.06544e-17 0)
(-1 1.16462e-16 0)
(-1 -1.25479e-18 0)
(-1 7.14385e-17 0)
(-1 3.10539e-17 0)
(-1 -4.30067e-17 0)
(-1 2.15445e-17 0)
(-1 -1.43289e-16 0)
(-1 -6.29638e-17 0)
(-1 -1.16871e-16 0)
(-1 -1.30011e-16 0)
(-1 -7.92333e-17 0)
(-1 -4.20252e-14 0)
(-1 -2.9726e-14 0)
(-1 8.19013e-15 0)
(-1 5.65441e-15 0)
(-1 -2.23162e-15 0)
(-1 -1.72952e-15 0)
(-1 2.10532e-16 0)
(-1 9.91595e-17 0)
(-1 -2.88682e-16 0)
(-1 -2.32118e-16 0)
(-1 -8.20336e-17 0)
(-1 -3.39316e-17 0)
(-1 -1.54393e-17 0)
(-1 4.39464e-17 0)
(-1 2.66102e-17 0)
(-1 7.40615e-17 0)
(-1 2.04023e-17 0)
(-1 3.50573e-17 0)
(-1 -8.96713e-18 0)
(-1 5.63448e-17 0)
(-1 -5.79784e-17 0)
(-1 -5.82442e-19 0)
(-1 -7.2219e-17 0)
(-1 -2.67886e-17 0)
(-1 -1.01439e-16 0)
(-1 -2.37079e-17 0)
(-1 -1.3048e-16 0)
(-1 -1.41267e-16 0)
(-1 -8.66631e-17 0)
(-1 -1.30197e-16 0)
(-1 -1.884e-17 0)
(-1 -7.43977e-17 0)
(-1 1.58746e-18 0)
(-1 -2.82998e-17 0)
(-1 -4.96865e-17 0)
(-1 -2.01757e-17 0)
(-1 -9.23741e-17 0)
(-1 -4.29214e-17 0)
(-1 -7.45346e-17 0)
(-1 1.79537e-14 0)
(-1 3.77375e-14 0)
(-1 -4.26524e-15 0)
(-1 -8.69736e-15 0)
(-1 6.0126e-16 0)
(-1 1.62814e-15 0)
(-1 -3.4349e-16 0)
(-1 -6.03791e-16 0)
(-1 2.26327e-17 0)
(-1 1.13106e-17 0)
(-1 9.20483e-17 0)
(-1 -4.85178e-18 0)
(-1 1.33447e-16 0)
(-1 4.49934e-17 0)
(-1 8.25086e-17 0)
(-1 4.38162e-17 0)
(-1 7.09998e-17 0)
(-1 1.29549e-16 0)
(-1 6.47295e-17 0)
(-1 1.92636e-16 0)
(-1 3.06074e-17 0)
(-1 9.98565e-17 0)
(-1 2.17225e-17 0)
(-1 5.66603e-17 0)
(-1 -6.35358e-17 0)
(-1 6.8184e-17 0)
(-1 -1.40985e-16 0)
(-1 -2.51661e-17 0)
(-1 -1.17932e-16 0)
(-1 -7.4985e-17 0)
(-1 -8.38574e-17 0)
(-1 -1.06496e-16 0)
(-1 -5.00629e-17 0)
(-1 -1.08988e-16 0)
(-1 -1.34106e-17 0)
(-1 -7.36186e-17 0)
(-1 -2.5082e-17 0)
(-1 -4.19818e-17 0)
(-1 -6.4203e-17 0)
(-1 1.10864e-14 0)
(-1 -3.0947e-14 0)
(-1 -2.80398e-15 0)
(-1 6.30108e-15 0)
(-1 4.23086e-16 0)
(-1 -1.61276e-15 0)
(-1 -2.48991e-16 0)
(-1 2.07413e-16 0)
(-1 -1.61739e-17 0)
(-1 -1.29041e-16 0)
(-1 -5.19067e-17 0)
(-1 -3.30869e-19 0)
(-1 -4.46376e-17 0)
(-1 -4.66995e-17 0)
(-1 9.08567e-17 0)
(-1 -3.71315e-17 0)
(-1 2.51186e-16 0)
(-1 1.28981e-16 0)
(-1 2.27764e-16 0)
(-1 1.82947e-16 0)
(-1 1.25909e-16 0)
(-1 1.28851e-16 0)
(-1 1.03122e-16 0)
(-1 8.7009e-17 0)
(-1 1.06554e-16 0)
(-1 7.47381e-17 0)
(-1 4.08337e-17 0)
(-1 9.53494e-17 0)
(-1 -6.35491e-17 0)
(-1 6.10729e-17 0)
(-1 -1.31626e-16 0)
(-1 -4.90555e-17 0)
(-1 -1.32543e-16 0)
(-1 -9.38923e-17 0)
(-1 -1.0219e-16 0)
(-1 -9.30771e-17 0)
(-1 -8.11028e-17 0)
(-1 -1.00485e-16 0)
(-1 -6.80716e-17 0)
(-1 -3.57323e-14 0)
(-1 8.23167e-15 0)
(-1 7.4923e-15 0)
(-1 -1.43619e-15 0)
(-1 -1.82844e-15 0)
(-1 3.44842e-16 0)
(-1 3.27362e-16 0)
(-1 -1.51869e-16 0)
(-1 -1.13198e-16 0)
(-1 -2.98542e-17 0)
(-1 4.87631e-18 0)
(-1 3.64786e-17 0)
(-1 -3.91934e-17 0)
(-1 3.46015e-17 0)
(-1 9.93216e-19 0)
(-1 4.01929e-17 0)
(-1 6.07422e-17 0)
(-1 7.25516e-17 0)
(-1 8.40339e-17 0)
(-1 6.83296e-17 0)
(-1 8.99503e-17 0)
(-1 1.15502e-16 0)
(-1 5.86252e-17 0)
(-1 1.37599e-16 0)
(-1 6.35337e-17 0)
(-1 5.94473e-17 0)
(-1 1.15589e-16 0)
(-1 5.36742e-17 0)
(-1 7.55665e-17 0)
(-1 7.47135e-17 0)
(-1 -1.13216e-17 0)
(-1 -3.10614e-18 0)
(-1 -5.44262e-17 0)
(-1 -5.07559e-17 0)
(-1 -9.13723e-17 0)
(-1 -9.0792e-17 0)
(-1 -8.74537e-17 0)
(-1 -9.38326e-17 0)
(-1 -5.74787e-17 0)
(-1 4.25278e-14 0)
(-1 4.08067e-14 0)
(-1 -8.58365e-15 0)
(-1 -8.85179e-15 0)
(-1 2.02141e-15 0)
(-1 1.96985e-15 0)
(-1 -5.09085e-16 0)
(-1 -5.3518e-16 0)
(-1 1.19823e-16 0)
(-1 8.86329e-17 0)
(-1 6.62038e-17 0)
(-1 1.04171e-17 0)
(-1 1.13988e-16 0)
(-1 4.90023e-17 0)
(-1 1.11751e-16 0)
(-1 1.10685e-16 0)
(-1 8.0139e-17 0)
(-1 1.18601e-16 0)
(-1 9.97972e-17 0)
(-1 7.71415e-17 0)
(-1 1.6315e-16 0)
(-1 1.24947e-16 0)
(-1 1.38421e-16 0)
(-1 1.54111e-16 0)
(-1 4.95877e-17 0)
(-1 1.05194e-16 0)
(-1 1.27991e-17 0)
(-1 2.59871e-18 0)
(-1 -3.95921e-18 0)
(-1 -3.74612e-17 0)
(-1 -4.25405e-17 0)
(-1 -3.1825e-17 0)
(-1 -8.71217e-17 0)
(-1 -5.18157e-17 0)
(-1 -9.32524e-17 0)
(-1 -1.10754e-16 0)
(-1 -6.38576e-17 0)
(-1 -5.92042e-17 0)
(-1 -2.67452e-17 0)
(-1 -1.05729e-14 0)
(-1 -6.22957e-14 0)
(-1 1.70171e-15 0)
(-1 1.28648e-14 0)
(-1 -5.86742e-16 0)
(-1 -3.18217e-15 0)
(-1 6.25381e-17 0)
(-1 6.26638e-16 0)
(-1 -2.07727e-17 0)
(-1 -1.56718e-16 0)
(-1 -6.78449e-18 0)
(-1 -5.56827e-17 0)
(-1 4.56994e-17 0)
(-1 -7.19152e-17 0)
(-1 1.17534e-16 0)
(-1 -2.14376e-17 0)
(-1 1.15603e-16 0)
(-1 -2.98469e-17 0)
(-1 1.02292e-16 0)
(-1 -4.91939e-17 0)
(-1 1.15908e-16 0)
(-1 -4.06805e-19 0)
(-1 1.20884e-16 0)
(-1 6.36547e-17 0)
(-1 5.82054e-17 0)
(-1 1.30239e-16 0)
(-1 -4.76616e-17 0)
(-1 7.74498e-17 0)
(-1 -6.5327e-17 0)
(-1 -1.97593e-17 0)
(-1 -4.11002e-17 0)
(-1 -5.67327e-17 0)
(-1 -7.5448e-17 0)
(-1 -2.63166e-17 0)
(-1 -7.67058e-17 0)
(-1 -4.11044e-17 0)
(-1 -2.20918e-17 0)
(-1 -3.47571e-18 0)
(-1 2.03074e-17 0)
(-1 -3.8858e-14 0)
(-1 3.04577e-14 0)
(-1 7.98095e-15 0)
(-1 -6.57375e-15 0)
(-1 -1.96879e-15 0)
(-1 1.55423e-15 0)
(-1 4.07382e-16 0)
(-1 -2.54302e-16 0)
(-1 -1.91628e-16 0)
(-1 1.37393e-16 0)
(-1 -1.20813e-16 0)
(-1 -3.67835e-18 0)
(-1 -1.39052e-16 0)
(-1 -3.10732e-18 0)
(-1 -1.68819e-16 0)
(-1 -8.73306e-17 0)
(-1 -1.94644e-16 0)
(-1 -1.92827e-16 0)
(-1 -1.51892e-16 0)
(-1 -2.08163e-16 0)
(-1 -5.26599e-17 0)
(-1 -1.4739e-16 0)
(-1 7.30093e-17 0)
(-1 -7.10217e-17 0)
(-1 1.49483e-16 0)
(-1 1.08667e-17 0)
(-1 1.05352e-16 0)
(-1 9.21642e-17 0)
(-1 -1.1165e-17 0)
(-1 7.45396e-17 0)
(-1 -4.19491e-17 0)
(-1 -4.18418e-17 0)
(-1 8.02688e-18 0)
(-1 -6.90716e-17 0)
(-1 3.21256e-17 0)
(-1 -1.11551e-17 0)
(-1 3.89234e-17 0)
(-1 2.79654e-17 0)
(-1 1.4936e-17 0)
(-1 6.27419e-14 0)
(-1 1.39604e-14 0)
(-1 -1.30005e-14 0)
(-1 -2.6692e-15 0)
(-1 3.26872e-15 0)
(-1 6.85283e-16 0)
(-1 -5.24291e-16 0)
(-1 -8.74286e-17 0)
(-1 3.25343e-16 0)
(-1 1.20309e-16 0)
(-1 1.14028e-16 0)
(-1 9.87624e-17 0)
(-1 4.86142e-17 0)
(-1 1.06338e-16 0)
(-1 -1.11339e-16 0)
(-1 5.24992e-17 0)
(-1 -2.06346e-16 0)
(-1 -4.86594e-17 0)
(-1 -2.03661e-16 0)
(-1 -1.34747e-16 0)
(-1 -1.65752e-16 0)
(-1 -1.32572e-16 0)
(-1 -1.33164e-16 0)
(-1 -1.2621e-16 0)
(-1 -4.64521e-17 0)
(-1 -8.67685e-17 0)
(-1 6.13517e-17 0)
(-1 -1.85813e-17 0)
(-1 4.38628e-17 0)
(-1 7.30171e-17 0)
(-1 -6.89642e-17 0)
(-1 3.63246e-17 0)
(-1 -8.82536e-17 0)
(-1 -8.87904e-17 0)
(-1 -1.53153e-17 0)
(-1 -4.23463e-17 0)
(-1 3.9779e-18 0)
(-1 8.1019e-18 0)
(-1 -2.74184e-17 0)
(-1 -5.14508e-14 0)
(-1 -4.22169e-14 0)
(-1 1.10166e-14 0)
(-1 9.33171e-15 0)
(-1 -2.67087e-15 0)
(-1 -2.19897e-15 0)
(-1 5.57171e-16 0)
(-1 4.51225e-16 0)
(-1 -1.06271e-16 0)
(-1 -1.63048e-16 0)
(-1 9.10724e-17 0)
(-1 1.4462e-17 0)
(-1 1.10223e-16 0)
(-1 1.32942e-17 0)
(-1 1.15179e-16 0)
(-1 2.96776e-17 0)
(-1 2.29397e-17 0)
(-1 -2.89806e-18 0)
(-1 -6.36582e-17 0)
(-1 -7.84409e-17 0)
(-1 -9.30296e-17 0)
(-1 -1.1456e-16 0)
(-1 -7.98138e-17 0)
(-1 -6.10478e-17 0)
(-1 -5.88978e-17 0)
(-1 -1.20476e-17 0)
(-1 -6.91591e-18 0)
(-1 -5.6864e-17 0)
(-1 6.5479e-17 0)
(-1 -1.32809e-17 0)
(-1 1.64985e-17 0)
(-1 3.02588e-17 0)
(-1 -4.28831e-17 0)
(-1 5.95356e-18 0)
(-1 -1.89291e-17 0)
(-1 3.62799e-17 0)
(-1 -2.32943e-17 0)
(-1 2.87552e-17 0)
(-1 -3.87965e-17 0)
(-1 1.85655e-14 0)
(-1 4.60685e-14 0)
(-1 -3.88381e-15 0)
(-1 -1.0038e-14 0)
(-1 9.23118e-16 0)
(-1 2.42724e-15 0)
(-1 -2.68995e-16 0)
(-1 -4.63428e-16 0)
(-1 -4.23151e-17 0)
(-1 9.15875e-17 0)
(-1 -6.33162e-17 0)
(-1 -1.5796e-18 0)
(-1 -6.72509e-17 0)
(-1 -1.93303e-17 0)
(-1 -8.83992e-17 0)
(-1 -1.17644e-16 0)
(-1 -1.04279e-16 0)
(-1 -1.66965e-16 0)
(-1 -1.29343e-16 0)
(-1 -1.7305e-16 0)
(-1 -8.25784e-17 0)
(-1 -1.85948e-16 0)
(-1 6.71831e-18 0)
(-1 -1.39234e-16 0)
(-1 -1.00138e-17 0)
(-1 -1.78683e-16 0)
(-1 -6.32289e-17 0)
(-1 -2.16287e-16 0)
(-1 -4.8501e-17 0)
(-1 -1.53663e-16 0)
(-1 1.97139e-17 0)
(-1 -4.44901e-17 0)
(-1 8.51165e-17 0)
(-1 1.70547e-17 0)
(-1 8.39642e-17 0)
(-1 2.97348e-17 0)
(-1 1.3253e-17 0)
(-1 2.74738e-18 0)
(-1 -5.04819e-17 0)
(-1 1.74649e-14 0)
(-1 -2.45353e-14 0)
(-1 -3.72695e-15 0)
(-1 5.01516e-15 0)
(-1 1.0407e-15 0)
(-1 -1.06781e-15 0)
(-1 -1.02846e-16 0)
(-1 3.25575e-16 0)
(-1 1.32323e-16 0)
(-1 -3.44129e-17 0)
(-1 4.24063e-17 0)
(-1 -3.92535e-17 0)
(-1 -6.97239e-17 0)
(-1 -5.30598e-17 0)
(-1 -1.9621e-16 0)
(-1 -1.17294e-16 0)
(-1 -2.35737e-16 0)
(-1 -2.01881e-16 0)
(-1 -2.29656e-16 0)
(-1 -2.01969e-16 0)
(-1 -2.42604e-16 0)
(-1 -1.54027e-16 0)
(-1 -3.24635e-16 0)
(-1 -1.97964e-16 0)
(-1 -3.84956e-16 0)
(-1 -2.96776e-16 0)
(-1 -3.06721e-16 0)
(-1 -2.96198e-16 0)
(-1 -1.49652e-16 0)
(-1 -1.73078e-16 0)
(-1 -4.71493e-17 0)
(-1 -5.88507e-18 0)
(-1 -3.8327e-17 0)
(-1 -1.27631e-17 0)
(-1 -5.14819e-17 0)
(-1 -9.94865e-17 0)
(-1 -6.09876e-17 0)
(-1 -1.42574e-16 0)
(-1 -9.2787e-17 0)
(-1 -3.69851e-14 0)
(-1 5.98799e-15 0)
(-1 7.67429e-15 0)
(-1 -1.27849e-15 0)
(-1 -1.78293e-15 0)
(-1 3.32267e-16 0)
(-1 3.94007e-16 0)
(-1 -4.32049e-17 0)
(-1 -2.05989e-16 0)
(-1 -3.70929e-17 0)
(-1 -1.3472e-16 0)
(-1 -1.97118e-16 0)
(-1 -1.0063e-16 0)
(-1 -2.09753e-16 0)
(-1 -1.22965e-16 0)
(-1 -2.11404e-16 0)
(-1 -1.68113e-16 0)
(-1 -1.97396e-16 0)
(-1 -1.2634e-16 0)
(-1 -1.1943e-16 0)
(-1 -1.09387e-16 0)
(-1 -5.95433e-17 0)
(-1 -1.70104e-16 0)
(-1 -9.62473e-17 0)
(-1 -2.08017e-16 0)
(-1 -1.24286e-16 0)
(-1 -1.62555e-16 0)
(-1 -1.08233e-16 0)
(-1 -2.9311e-17 0)
(-1 -7.7863e-17 0)
(-1 2.85011e-17 0)
(-1 9.48944e-18 0)
(-1 -7.39227e-17 0)
(-1 -1.33532e-18 0)
(-1 -1.90578e-16 0)
(-1 -7.66797e-17 0)
(-1 -1.74373e-16 0)
(-1 -1.65797e-16 0)
(-1 -8.06724e-17 0)
(-1 4.16946e-14 0)
(-1 2.14581e-14 0)
(-1 -8.62051e-15 0)
(-1 -4.4228e-15 0)
(-1 2.072e-15 0)
(-1 1.03498e-15 0)
(-1 -4.74305e-16 0)
(-1 -2.89422e-16 0)
(-1 -2.82211e-17 0)
(-1 -4.95761e-17 0)
(-1 -2.72151e-16 0)
(-1 -1.83813e-16 0)
(-1 -3.20527e-16 0)
(-1 -2.14503e-16 0)
(-1 -2.85836e-16 0)
(-1 -1.70042e-16 0)
(-1 -1.48713e-16 0)
(-1 -8.84074e-17 0)
(-1 -5.26337e-17 0)
(-1 5.99374e-18 0)
(-1 -4.64038e-17 0)
(-1 -3.10315e-17 0)
(-1 -5.04291e-17 0)
(-1 -8.70164e-17 0)
(-1 -2.4502e-17 0)
(-1 -7.66167e-17 0)
(-1 -2.35413e-17 0)
(-1 -5.66808e-17 0)
(-1 -3.90626e-17 0)
(-1 -1.59402e-16 0)
(-1 -2.0347e-17 0)
(-1 -1.60353e-16 0)
(-1 -4.09239e-18 0)
(-1 -8.18097e-17 0)
(-1 -5.18985e-17 0)
(-1 -2.72535e-17 0)
(-1 -7.20964e-17 0)
(-1 -7.16987e-17 0)
(-1 -2.94282e-17 0)
(-1 -2.46593e-14 0)
(-1 -4.46763e-14 0)
(-1 5.2327e-15 0)
(-1 9.85748e-15 0)
(-1 -1.32643e-15 0)
(-1 -2.22583e-15 0)
(-1 1.35307e-16 0)
(-1 4.43139e-16 0)
(-1 -2.05168e-16 0)
(-1 -1.91875e-16 0)
(-1 -1.26165e-16 0)
(-1 -6.37598e-17 0)
(-1 -6.40186e-17 0)
(-1 -4.97587e-17 0)
(-1 2.73857e-17 0)
(-1 6.64463e-17 0)
(-1 6.62994e-17 0)
(-1 7.30379e-17 0)
(-1 2.75959e-17 0)
(-1 5.24475e-17 0)
(-1 -7.16441e-17 0)
(-1 -1.2244e-17 0)
(-1 -1.13204e-16 0)
(-1 -4.52007e-17 0)
(-1 -1.08795e-16 0)
(-1 -6.10997e-17 0)
(-1 -1.92541e-16 0)
(-1 -1.55665e-16 0)
(-1 -2.80692e-16 0)
(-1 -2.93665e-16 0)
(-1 -2.21816e-16 0)
(-1 -2.98468e-16 0)
(-1 -1.04971e-16 0)
(-1 -1.82368e-16 0)
(-1 -4.70537e-17 0)
(-1 -8.70106e-17 0)
(-1 -2.90305e-17 0)
(-1 -1.40574e-17 0)
(-1 -3.56153e-18 0)
(-1 -1.01595e-14 0)
(-1 3.49988e-14 0)
(-1 2.39896e-15 0)
(-1 -7.04458e-15 0)
(-1 -4.56253e-16 0)
(-1 1.83551e-15 0)
(-1 1.15957e-16 0)
(-1 -3.53004e-16 0)
(-1 -5.04669e-17 0)
(-1 3.89389e-17 0)
(-1 1.26467e-17 0)
(-1 -4.38984e-17 0)
(-1 8.07063e-17 0)
(-1 -4.56154e-17 0)
(-1 1.12099e-16 0)
(-1 1.81632e-17 0)
(-1 5.9186e-17 0)
(-1 2.04382e-17 0)
(-1 1.26076e-17 0)
(-1 -2.71145e-17 0)
(-1 1.41994e-17 0)
(-1 -5.83638e-17 0)
(-1 6.90372e-18 0)
(-1 -5.88407e-17 0)
(-1 -1.07969e-16 0)
(-1 -1.10087e-16 0)
(-1 -2.56788e-16 0)
(-1 -1.42286e-16 0)
(-1 -3.1144e-16 0)
(-1 -1.32802e-16 0)
(-1 -2.59019e-16 0)
(-1 -1.40083e-16 0)
(-1 -1.64408e-16 0)
(-1 -1.34855e-16 0)
(-1 -5.40144e-17 0)
(-1 -8.9831e-17 0)
(-1 1.14116e-17 0)
(-1 3.79922e-17 0)
(-1 4.30285e-17 0)
(-1 3.81138e-14 0)
(-1 2.97817e-14 0)
(-1 -7.60802e-15 0)
(-1 -6.45325e-15 0)
(-1 1.93876e-15 0)
(-1 1.47108e-15 0)
(-1 -4.30023e-16 0)
(-1 -3.80128e-16 0)
(-1 4.55074e-17 0)
(-1 -1.76265e-17 0)
(-1 -1.02161e-16 0)
(-1 -9.90871e-17 0)
(-1 -1.08159e-16 0)
(-1 -9.94355e-17 0)
(-1 -7.34971e-17 0)
(-1 -8.24489e-17 0)
(-1 -6.58623e-17 0)
(-1 -4.90656e-17 0)
(-1 -9.8086e-17 0)
(-1 -8.90055e-17 0)
(-1 -1.31404e-16 0)
(-1 -1.16209e-16 0)
(-1 -1.75832e-16 0)
(-1 -1.62579e-16 0)
(-1 -1.44405e-16 0)
(-1 -1.99088e-16 0)
(-1 -1.82998e-17 0)
(-1 -7.5691e-17 0)
(-1 3.85558e-17 0)
(-1 4.69237e-17 0)
(-1 -1.59183e-17 0)
(-1 7.46823e-17 0)
(-1 -6.02785e-17 0)
(-1 -3.43463e-17 0)
(-1 2.17555e-18 0)
(-1 -4.05749e-17 0)
(-1 6.96091e-17 0)
(-1 5.58421e-17 0)
(-1 7.65619e-17 0)
(-1 -1.47854e-14 0)
(-1 -5.69078e-14 0)
(-1 2.62584e-15 0)
(-1 1.16062e-14 0)
(-1 -8.47809e-16 0)
(-1 -2.98745e-15 0)
(-1 3.22677e-17 0)
(-1 5.49128e-16 0)
(-1 -1.62221e-16 0)
(-1 -1.92867e-16 0)
(-1 -9.63621e-17 0)
(-1 -4.0972e-17 0)
(-1 -7.37259e-17 0)
(-1 -3.39627e-17 0)
(-1 -5.80174e-17 0)
(-1 -8.87569e-17 0)
(-1 -7.22088e-17 0)
(-1 -5.00916e-17 0)
(-1 -1.07129e-16 0)
(-1 -6.77295e-17 0)
(-1 -1.47385e-16 0)
(-1 -5.70929e-17 0)
(-1 -1.85835e-16 0)
(-1 -9.22538e-17 0)
(-1 -1.30374e-16 0)
(-1 -1.09063e-16 0)
(-1 -1.04675e-17 0)
(-1 -9.73508e-17 0)
(-1 8.30502e-17 0)
(-1 -3.47562e-17 0)
(-1 5.62543e-17 0)
(-1 2.72117e-17 0)
(-1 -1.46427e-17 0)
(-1 -3.84763e-17 0)
(-1 1.30917e-17 0)
(-1 -7.51344e-18 0)
(-1 6.2795e-17 0)
(-1 5.60751e-17 0)
(-1 6.08504e-17 0)
(-1 -3.05162e-14 0)
(-1 5.99294e-15 0)
(-1 -1.59051e-15 0)
(-1 3.23993e-16 0)
(-1 -7.16183e-17 0)
(-1 2.14274e-17 0)
(-1 -4.89937e-17 0)
(-1 -8.08311e-17 0)
(-1 -4.56123e-17 0)
(-1 -1.76936e-17 0)
(-1 -1.96215e-18 0)
(-1 -1.54816e-17 0)
(-1 -7.60398e-17 0)
(-1 -1.21639e-16 0)
(-1 -9.05947e-17 0)
(-1 -6.75189e-17 0)
(-1 -3.13471e-17 0)
(-1 3.54699e-17 0)
(-1 5.41304e-17 0)
)
;

boundaryField
{
    movingWall
    {
        type            calculated;
        value           uniform (-1 -0 -0);
    }
    fixedWalls
    {
        type            calculated;
        value           uniform (-1 -0 -0);
    }
    frontAndBack
    {
        type            empty;
        value           nonuniform List<vector> 0();
    }
}


// ************************************************************************* //
