/*--------------------------------*- C++ -*----------------------------------*\
| =========                 |                                                 |
| \\      /  F ield         | OpenFOAM: The Open Source CFD Toolbox           |
|  \\    /   O peration     | Version:  2312                                  |
|   \\  /    A nd           | Website:  www.openfoam.com                      |
|    \\/     M anipulation  |                                                 |
\*---------------------------------------------------------------------------*/
FoamFile
{
    version     2.0;
    format      ascii;
    arch        "LSB;label=32;scalar=64";
    class       surfaceScalarField;
    location    "9";
    object      surfaceDivU;
}
// * * * * * * * * * * * * * * * * * * * * * * * * * * * * * * * * * * * * * //

dimensions      [0 0 -1 0 0 0 0];

internalField   nonuniform List<scalar> 
760
(
6.19015e-12
-4.01155e-12
-9.35103e-13
5.12486e-13
1.69727e-13
-8.68496e-14
-7.66928e-14
4.31858e-14
1.03634e-14
-2.03498e-14
-7.86914e-15
1.13653e-14
-1.76914e-14
1.2453e-14
-7.56688e-15
-1.43111e-14
1.26269e-14
1.24461e-14
9.25343e-15
1.166e-14
-8.34702e-15
2.57395e-15
2.02657e-15
-1.45719e-14
1.40608e-14
-1.62949e-14
1.35707e-15
2.88894e-14
-1.32679e-14
1.40652e-14
-2.38473e-14
-2.43532e-14
2.05296e-14
5.76579e-15
3.18432e-14
2.41744e-14
-1.21801e-14
-2.51812e-14
0
-9.68922e-12
-1.01779e-11
1.36074e-12
1.39299e-12
-2.13391e-13
-2.76726e-13
9.95288e-14
1.03587e-13
-1.93478e-14
-1.73537e-14
3.16875e-14
3.91636e-14
1.58334e-14
7.07793e-15
5.70195e-15
-3.36539e-14
1.14792e-14
9.61011e-15
4.98052e-15
1.10093e-14
-3.65095e-15
1.31e-14
-3.28934e-14
-5.9355e-15
-1.46627e-15
-4.55601e-14
4.15975e-14
2.75963e-14
2.97991e-15
2.75124e-14
5.25984e-15
9.21815e-15
9.4106e-15
1.2877e-14
-3.285e-14
-2.18665e-14
-1.30011e-14
-1.72933e-14
-3.15544e-29
9.04254e-13
7.38613e-12
-2.4448e-13
-9.41264e-13
4.02516e-14
1.79597e-13
-1.32958e-14
-6.40157e-14
4.11577e-14
1.85769e-14
1.4554e-14
9.67419e-15
-4.24093e-14
8.89398e-15
-2.97457e-14
-1.53173e-14
9.14021e-15
2.90812e-15
1.91288e-14
-2.20693e-15
1.08154e-14
2.34799e-14
-1.86022e-14
2.98718e-15
-1.64975e-14
-2.26574e-14
1.35111e-14
-3.09078e-15
3.37506e-14
-6.96571e-15
1.68353e-14
9.01568e-15
-1.84001e-14
-1.76204e-16
-6.30971e-15
4.1731e-15
-4.29214e-15
5.0622e-15
-2.8399e-29
5.54061e-12
-2.71051e-14
-5.17187e-13
1.78696e-14
7.53295e-14
-1.20151e-14
-3.2143e-14
2.81247e-14
-1.29066e-14
-1.17731e-14
4.01416e-15
-5.18265e-16
3.5986e-14
1.33819e-14
1.73365e-14
2.77735e-14
-8.43901e-15
-1.48045e-14
2.14424e-15
-3.09927e-15
1.56517e-14
9.3182e-15
-1.06809e-15
8.14403e-16
-9.25073e-15
-1.28128e-14
-2.35676e-14
7.01833e-15
-3.17006e-14
-1.49437e-14
-7.99583e-15
-2.00263e-15
2.2397e-14
6.81708e-15
1.5545e-14
2.3988e-14
9.35435e-15
-1.42467e-14
2.52435e-29
-5.54984e-12
-2.58853e-12
5.23042e-13
3.10306e-13
-5.92198e-14
-4.54769e-14
4.84947e-14
4.6212e-14
6.15309e-16
-1.58896e-14
8.84949e-15
3.61478e-15
5.16943e-15
-1.2098e-15
-4.36753e-15
-1.32464e-14
-9.46477e-15
6.60077e-15
4.07469e-15
-1.97742e-15
-5.51908e-15
1.08827e-14
-1.09303e-14
-1.81968e-14
3.45623e-15
-1.36865e-14
1.56422e-14
1.49024e-14
1.47543e-14
1.35786e-14
1.28103e-14
-5.21616e-15
8.40812e-15
1.26402e-14
-5.80368e-15
8.71814e-15
-2.3601e-14
7.6733e-15
-1.35525e-14
3.27162e-12
7.16929e-12
-2.58213e-13
-1.35406e-12
5.99549e-14
2.58574e-13
-1.81723e-14
-1.09362e-13
-1.28901e-14
1.94304e-14
-6.44452e-15
4.68957e-15
-1.96256e-14
8.36037e-15
-2.27808e-15
-2.55698e-14
1.40881e-14
3.26678e-14
4.83059e-15
-1.25579e-14
-1.79499e-15
-3.06015e-15
-2.09529e-14
-2.50391e-14
-2.24038e-15
-2.41934e-14
1.28388e-14
5.62729e-15
-6.39179e-15
1.72778e-14
-5.3862e-15
-1.70456e-14
1.29503e-14
3.29537e-15
2.21951e-14
2.0503e-14
1.77218e-14
1.18014e-14
0
2.54361e-12
-6.88468e-12
-8.37272e-13
1.07893e-12
8.92565e-14
-2.29653e-13
-7.17597e-14
9.0461e-14
3.70101e-14
-4.74661e-14
1.94945e-14
3.6131e-14
2.41618e-15
1.12612e-14
9.37602e-15
-1.81803e-14
6.02169e-15
-4.67715e-15
-2.04487e-14
2.79476e-15
-2.63043e-14
-1.09846e-15
-2.82796e-14
-1.88811e-14
-1.63257e-14
-1.71143e-14
1.00663e-14
8.00485e-15
6.6239e-15
7.83048e-15
-8.36407e-15
-8.85577e-15
1.08481e-14
-7.81323e-15
1.01092e-14
-1.63332e-15
-5.92042e-15
7.28454e-15
-1.35525e-14
-8.34936e-12
-1.15196e-12
1.68655e-12
2.90294e-13
-2.28449e-13
-6.79268e-14
1.14755e-13
2.36811e-14
-4.83451e-14
-4.259e-14
2.78978e-14
2.11689e-14
-9.33528e-15
-7.50225e-15
-3.22335e-14
-2.44293e-14
-7.90408e-15
4.83766e-15
2.2145e-14
1.49219e-14
6.32479e-15
-1.22718e-15
-7.71573e-15
-7.36702e-16
7.21631e-15
5.58003e-16
5.76905e-15
3.40887e-15
-7.6492e-15
-2.1627e-14
-8.30493e-15
-3.69625e-14
-2.02946e-14
1.75662e-14
-4.45801e-15
-1.87785e-14
-3.47571e-16
1.60015e-14
-1.35525e-14
7.48769e-12
7.7927e-12
-1.46418e-12
-1.56126e-12
1.84203e-13
3.05266e-13
-1.33664e-13
-1.29041e-13
2.6924e-14
-1.33481e-15
-1.42311e-14
9.50841e-15
-2.25963e-14
-3.22949e-15
1.26418e-14
-3.48314e-15
2.76637e-14
1.65089e-14
-8.45024e-15
-7.18589e-15
-8.28866e-15
-2.79962e-14
7.53703e-15
7.38193e-15
-3.24944e-15
5.96234e-15
-2.39872e-14
7.35828e-15
-5.09403e-14
-2.59019e-14
-1.10913e-14
-5.47618e-14
1.90824e-14
5.19764e-14
1.68103e-15
-5.35014e-15
2.79654e-15
3.60673e-15
0
-1.25625e-12
-7.26415e-12
2.08184e-13
1.4794e-12
-7.97718e-15
-2.86894e-13
3.28806e-15
1.31247e-13
-1.87504e-14
-3.13789e-14
2.051e-14
2.4875e-14
1.58837e-14
1.19632e-14
3.83986e-16
8.21768e-15
-1.83406e-14
-5.15574e-15
-2.67319e-14
-7.76624e-15
-1.23256e-14
2.39183e-15
5.80724e-15
8.37931e-15
1.65701e-14
-9.88162e-15
5.44358e-15
6.008e-15
-2.97234e-14
-2.11314e-14
8.30595e-15
-2.04467e-14
2.75439e-14
4.59264e-14
-3.42444e-15
-2.77117e-14
8.1019e-16
3.68571e-15
0
-4.5285e-12
3.07642e-12
9.84324e-13
-6.26283e-13
-1.4767e-13
9.05897e-14
9.65803e-14
-5.54304e-14
1.22464e-14
1.9959e-14
1.63282e-14
-1.22643e-14
4.29718e-15
-6.0361e-16
2.67796e-15
-8.79669e-15
5.41863e-15
1.01187e-14
2.13575e-14
1.55084e-14
2.30968e-14
3.77118e-14
-7.30955e-15
-3.35807e-14
-2.04437e-14
-5.52054e-15
-2.0567e-14
-2.10062e-16
-1.18547e-14
1.04107e-14
1.71738e-14
-1.42313e-15
-9.32918e-15
1.58534e-14
-2.06015e-14
-6.95105e-15
2.87552e-15
3.15026e-15
-1.35525e-14
6.97864e-12
1.00289e-12
-1.52002e-12
3.51525e-13
1.82829e-13
-9.44498e-14
-1.32052e-13
2.68722e-14
-4.55173e-15
-2.13876e-14
-2.9196e-14
-4.08331e-15
-1.36975e-14
-7.23901e-15
-1.35591e-15
-9.94135e-15
2.02085e-14
3.77299e-15
3.18627e-14
3.15563e-15
-1.89657e-14
-3.39975e-14
-3.17917e-14
-2.01673e-14
1.47131e-14
2.02168e-14
3.07676e-14
2.96157e-15
2.08423e-14
3.50885e-14
-2.74354e-15
-5.03752e-15
1.82315e-14
4.29156e-16
1.68008e-14
6.57736e-15
-1.32778e-14
1.31224e-14
-2.71051e-14
-5.62423e-12
-4.07931e-12
1.77709e-12
8.48006e-13
-2.50407e-13
-1.68422e-13
1.37536e-13
8.24471e-14
-2.09192e-14
-4.78082e-14
1.78737e-14
3.46793e-15
-3.48288e-15
1.43763e-14
-4.81245e-15
-5.76479e-15
-1.32799e-14
7.29911e-16
-6.27046e-14
-5.03486e-15
-3.51991e-14
-3.49095e-14
3.18412e-14
2.4789e-14
8.46525e-15
1.21039e-14
7.28248e-15
-2.68906e-14
9.20874e-15
-1.15416e-14
-1.86482e-15
3.60436e-16
-1.1225e-14
-1.49624e-14
2.89902e-15
-4.0641e-15
-7.0485e-16
2.3373e-14
-2.71051e-14
2.39292e-12
4.8518e-12
-1.09751e-12
-1.13933e-12
1.64431e-13
2.1804e-13
-1.02897e-13
-7.39203e-14
-2.34211e-14
-8.66689e-15
-2.94538e-17
-3.80931e-14
1.20944e-14
1.17846e-14
-2.22428e-16
1.60654e-14
8.97498e-15
1.20772e-14
2.27602e-14
-2.48962e-14
2.50785e-14
4.49504e-15
5.05171e-15
8.77868e-15
-2.3252e-14
2.05673e-14
-4.57147e-14
-1.64914e-14
-2.03899e-14
-2.37265e-14
-1.27371e-14
1.20187e-14
-7.80151e-15
5.23803e-15
1.64099e-14
3.15921e-15
-3.02719e-15
1.6908e-14
-1.35525e-14
1.31955e-12
-4.98733e-12
1.76214e-13
9.50044e-13
-2.03116e-14
-1.73294e-13
2.03103e-14
6.95819e-14
-2.33389e-14
2.95993e-15
-2.62791e-14
-1.12048e-14
1.57556e-14
1.42314e-14
2.83651e-14
-1.03596e-14
-2.17939e-14
1.20156e-14
-4.31614e-14
-2.12609e-14
-1.18048e-14
-1.78801e-14
2.42943e-14
1.38833e-14
2.73278e-14
2.68859e-14
5.49681e-15
-7.68201e-15
8.68209e-15
-1.82016e-14
2.99938e-14
8.32803e-15
1.61987e-14
1.42398e-14
3.65731e-15
1.56786e-14
6.38265e-15
1.85294e-14
0
-5.35683e-12
1.42302e-12
6.00535e-13
-2.74363e-13
-8.3401e-14
5.58362e-14
5.22315e-14
-1.80915e-14
1.50941e-14
-1.7411e-15
2.93057e-14
-2.43183e-14
-1.18838e-14
4.01512e-15
-2.67092e-14
8.46095e-15
1.25485e-14
9.34762e-15
4.02035e-15
2.5333e-15
7.80806e-15
6.49174e-15
1.6475e-14
-1.04041e-14
-8.1239e-15
9.98635e-15
-3.13804e-14
-1.62426e-14
-1.85557e-14
-2.90942e-14
-7.42595e-15
1.03551e-14
1.37197e-14
8.9353e-15
3.05508e-14
2.29734e-14
1.21468e-14
2.94985e-14
-2.71051e-14
6.50549e-12
6.78982e-12
-8.19062e-13
-7.39919e-13
1.21146e-13
1.00266e-13
-7.20641e-14
-1.91032e-14
-4.11535e-14
-1.14213e-14
-4.9609e-14
-1.42985e-14
2.43598e-14
-1.45051e-14
4.45177e-14
3.4229e-14
-6.67628e-16
-2.86273e-15
5.00469e-15
1.94053e-15
-1.17204e-14
-3.90479e-15
-1.68928e-14
-2.2142e-14
1.86768e-15
2.32926e-14
-1.39563e-14
5.30731e-15
-1.83385e-16
-8.58782e-15
2.67163e-14
-2.00925e-14
1.8189e-14
-3.36762e-15
2.19212e-14
1.40645e-14
-9.75331e-15
2.2936e-14
-1.35525e-14
-4.5559e-13
-8.61941e-12
1.79409e-13
1.0574e-12
-3.99827e-14
-2.32952e-13
4.15397e-14
1.11768e-13
1.54337e-14
-2.10494e-14
2.08053e-14
2.66517e-14
-4.63592e-15
-4.04449e-14
-1.31515e-14
2.3537e-14
-2.54577e-16
3.63681e-15
-6.96895e-15
-2.12097e-15
-1.43263e-14
-3.7777e-15
1.80434e-14
1.51743e-14
2.67322e-14
-1.72625e-14
1.06758e-14
-3.75165e-15
-2.8497e-14
1.47693e-14
-5.01765e-14
-1.69157e-14
-7.49212e-15
-7.28226e-15
1.50793e-14
8.7437e-15
1.91367e-14
-2.36081e-15
-6.62643e-29
-7.10642e-12
-2.41235e-12
6.45038e-13
2.22109e-14
-8.12019e-14
4.00681e-14
4.91786e-14
7.02683e-16
-9.83141e-15
-1.92867e-14
-3.45985e-14
9.45533e-15
-1.2272e-14
-3.05013e-14
4.03253e-14
3.17819e-14
1.77042e-15
8.54337e-15
1.07028e-15
-2.03255e-14
2.57229e-14
-5.70929e-15
-2.01317e-14
1.78797e-14
-4.77464e-14
-3.80113e-14
3.41829e-16
3.81745e-15
2.63506e-14
-1.70281e-14
2.59786e-14
4.33788e-14
8.95355e-15
9.7049e-15
-8.69636e-15
-2.78564e-14
-2.14975e-14
1.916e-14
-1.35525e-14
4.71628e-12
-5.82759e-13
1.21973e-13
-6.77626e-14
0
1.35525e-14
1.35525e-14
0
-1.35525e-14
-2.71051e-14
-1.35525e-14
0
1.35525e-14
-1.35525e-14
-1.89327e-29
2.71051e-14
-2.71051e-14
4.2914e-28
2.71051e-14
)
;

boundaryField
{
    movingWall
    {
        type            calculated;
        value           nonuniform List<scalar> 
20
(
1.09775e-11
-1.54499e-12
3.79471e-13
-1.35525e-13
0
0
2.71051e-14
0
0
-2.71051e-14
-2.71051e-14
0
0
2.71051e-14
-5.42101e-14
5.42101e-14
0
-5.42101e-14
5.42101e-14
0
)
;
    }
    fixedWalls
    {
        type            calculated;
        value           nonuniform List<scalar> 
60
(
1.47723e-11
-2.27954e-11
2.43945e-12
1.23328e-11
-1.2387e-11
7.20994e-12
7.12863e-12
-2.0898e-11
1.85941e-11
-3.00866e-12
-1.15196e-11
1.76725e-11
-1.56667e-11
7.5081e-12
2.19551e-12
-1.21702e-11
1.50162e-11
-1.43657e-12
-1.58022e-11
1.09775e-11
-2.71051e-14
2.71051e-14
-2.71051e-14
2.71051e-14
-2.71051e-14
0
0
-2.71051e-14
0
0
0
-2.71051e-14
-2.71051e-14
-2.71051e-14
0
0
-5.42101e-14
2.71051e-14
-2.71051e-14
0
1.47723e-11
-2.39195e-12
5.2174e-13
-1.82285e-13
2.88995e-14
-8.17272e-15
-7.56556e-15
-2.78173e-14
1.26835e-14
1.25703e-14
5.93652e-15
-2.26306e-14
2.66837e-14
1.43783e-15
1.27631e-15
-2.78122e-14
-1.98824e-14
6.09415e-14
2.74493e-15
-2.71051e-14
)
;
    }
    frontAndBack
    {
        type            empty;
        value           nonuniform List<scalar> 0();
    }
}


// ************************************************************************* //
