/*--------------------------------*- C++ -*----------------------------------*\
| =========                 |                                                 |
| \\      /  F ield         | OpenFOAM: The Open Source CFD Toolbox           |
|  \\    /   O peration     | Version:  2312                                  |
|   \\  /    A nd           | Website:  www.openfoam.com                      |
|    \\/     M anipulation  |                                                 |
\*---------------------------------------------------------------------------*/
FoamFile
{
    version     2.0;
    format      ascii;
    arch        "LSB;label=32;scalar=64";
    class       volScalarField;
    location    "9";
    object      turbulenceProperties:nuEff;
}
// * * * * * * * * * * * * * * * * * * * * * * * * * * * * * * * * * * * * * //

dimensions      [0 2 -1 0 0 0 0];

internalField   nonuniform List<scalar> 
400
(
1.09806e-05
1.09806e-05
1.09806e-05
1.09806e-05
1.09806e-05
1.09806e-05
1.09806e-05
1.09806e-05
1.09806e-05
1.09806e-05
1.09806e-05
1.09806e-05
1.09806e-05
1.09806e-05
1.09806e-05
1.09806e-05
1.09806e-05
1.09806e-05
1.09806e-05
1.09806e-05
1.09879e-05
1.09984e-05
1.09975e-05
1.09971e-05
1.09963e-05
1.09959e-05
1.09951e-05
1.09947e-05
1.0994e-05
1.09935e-05
1.09928e-05
1.09924e-05
1.09916e-05
1.09912e-05
1.09904e-05
1.099e-05
1.09893e-05
1.09888e-05
1.09885e-05
1.09879e-05
1.09996e-05
1.10105e-05
1.10095e-05
1.10091e-05
1.10083e-05
1.10079e-05
1.10071e-05
1.10066e-05
1.10058e-05
1.10054e-05
1.10046e-05
1.10042e-05
1.10034e-05
1.1003e-05
1.10022e-05
1.10018e-05
1.1001e-05
1.10005e-05
1.10002e-05
1.09995e-05
1.1012e-05
1.10232e-05
1.10222e-05
1.10218e-05
1.10209e-05
1.10205e-05
1.10197e-05
1.10192e-05
1.10184e-05
1.1018e-05
1.10172e-05
1.10167e-05
1.10159e-05
1.10155e-05
1.10147e-05
1.10142e-05
1.10134e-05
1.1013e-05
1.10126e-05
1.1012e-05
1.10227e-05
1.10341e-05
1.1033e-05
1.10326e-05
1.10317e-05
1.10313e-05
1.10305e-05
1.103e-05
1.10292e-05
1.10287e-05
1.10279e-05
1.10274e-05
1.10266e-05
1.10262e-05
1.10253e-05
1.10249e-05
1.10241e-05
1.10236e-05
1.10232e-05
1.10226e-05
1.10306e-05
1.10422e-05
1.10411e-05
1.10407e-05
1.10398e-05
1.10393e-05
1.10385e-05
1.1038e-05
1.10372e-05
1.10367e-05
1.10359e-05
1.10354e-05
1.10346e-05
1.10341e-05
1.10333e-05
1.10328e-05
1.1032e-05
1.10315e-05
1.10311e-05
1.10305e-05
1.10359e-05
1.10477e-05
1.10466e-05
1.10461e-05
1.10452e-05
1.10448e-05
1.10439e-05
1.10435e-05
1.10426e-05
1.10421e-05
1.10413e-05
1.10408e-05
1.104e-05
1.10395e-05
1.10387e-05
1.10382e-05
1.10374e-05
1.10369e-05
1.10365e-05
1.10358e-05
1.10394e-05
1.10512e-05
1.10501e-05
1.10497e-05
1.10488e-05
1.10483e-05
1.10475e-05
1.1047e-05
1.10461e-05
1.10457e-05
1.10448e-05
1.10443e-05
1.10435e-05
1.1043e-05
1.10422e-05
1.10417e-05
1.10409e-05
1.10404e-05
1.104e-05
1.10393e-05
1.10417e-05
1.10535e-05
1.10524e-05
1.1052e-05
1.10511e-05
1.10506e-05
1.10498e-05
1.10493e-05
1.10484e-05
1.1048e-05
1.10471e-05
1.10466e-05
1.10458e-05
1.10453e-05
1.10444e-05
1.1044e-05
1.10431e-05
1.10426e-05
1.10422e-05
1.10416e-05
1.10432e-05
1.10551e-05
1.1054e-05
1.10536e-05
1.10527e-05
1.10522e-05
1.10513e-05
1.10509e-05
1.105e-05
1.10495e-05
1.10487e-05
1.10482e-05
1.10473e-05
1.10469e-05
1.1046e-05
1.10455e-05
1.10447e-05
1.10442e-05
1.10438e-05
1.10431e-05
1.10444e-05
1.10564e-05
1.10552e-05
1.10548e-05
1.10539e-05
1.10534e-05
1.10526e-05
1.10521e-05
1.10512e-05
1.10507e-05
1.10499e-05
1.10494e-05
1.10486e-05
1.10481e-05
1.10472e-05
1.10467e-05
1.10459e-05
1.10454e-05
1.1045e-05
1.10443e-05
1.10455e-05
1.10574e-05
1.10563e-05
1.10559e-05
1.1055e-05
1.10545e-05
1.10536e-05
1.10532e-05
1.10523e-05
1.10518e-05
1.1051e-05
1.10505e-05
1.10496e-05
1.10491e-05
1.10483e-05
1.10478e-05
1.1047e-05
1.10465e-05
1.10461e-05
1.10454e-05
1.10465e-05
1.10585e-05
1.10574e-05
1.1057e-05
1.1056e-05
1.10556e-05
1.10547e-05
1.10542e-05
1.10534e-05
1.10529e-05
1.1052e-05
1.10515e-05
1.10507e-05
1.10502e-05
1.10493e-05
1.10489e-05
1.1048e-05
1.10475e-05
1.10471e-05
1.10464e-05
1.10476e-05
1.10596e-05
1.10585e-05
1.10581e-05
1.10572e-05
1.10567e-05
1.10558e-05
1.10553e-05
1.10545e-05
1.1054e-05
1.10531e-05
1.10526e-05
1.10518e-05
1.10513e-05
1.10504e-05
1.105e-05
1.10491e-05
1.10486e-05
1.10482e-05
1.10475e-05
1.10488e-05
1.10608e-05
1.10597e-05
1.10593e-05
1.10584e-05
1.10579e-05
1.1057e-05
1.10565e-05
1.10557e-05
1.10552e-05
1.10543e-05
1.10538e-05
1.1053e-05
1.10525e-05
1.10516e-05
1.10511e-05
1.10503e-05
1.10498e-05
1.10494e-05
1.10487e-05
1.105e-05
1.10621e-05
1.1061e-05
1.10605e-05
1.10596e-05
1.10592e-05
1.10583e-05
1.10578e-05
1.10569e-05
1.10564e-05
1.10556e-05
1.10551e-05
1.10542e-05
1.10537e-05
1.10529e-05
1.10524e-05
1.10515e-05
1.1051e-05
1.10506e-05
1.10499e-05
1.10513e-05
1.10634e-05
1.10622e-05
1.10618e-05
1.10609e-05
1.10604e-05
1.10595e-05
1.1059e-05
1.10582e-05
1.10577e-05
1.10568e-05
1.10563e-05
1.10555e-05
1.1055e-05
1.10541e-05
1.10536e-05
1.10528e-05
1.10523e-05
1.10518e-05
1.10512e-05
1.10524e-05
1.10645e-05
1.10634e-05
1.10629e-05
1.1062e-05
1.10616e-05
1.10606e-05
1.10602e-05
1.10593e-05
1.10588e-05
1.10579e-05
1.10575e-05
1.10566e-05
1.10561e-05
1.10552e-05
1.10547e-05
1.10539e-05
1.10534e-05
1.1053e-05
1.10523e-05
1.10533e-05
1.10652e-05
1.10641e-05
1.10636e-05
1.10628e-05
1.10623e-05
1.10614e-05
1.1061e-05
1.10601e-05
1.10596e-05
1.10588e-05
1.10583e-05
1.10574e-05
1.10569e-05
1.10561e-05
1.10556e-05
1.10548e-05
1.10543e-05
1.10538e-05
1.10532e-05
1.10537e-05
1.10537e-05
1.10537e-05
1.10537e-05
1.10537e-05
1.10537e-05
1.10537e-05
1.10537e-05
1.10537e-05
1.10537e-05
1.10537e-05
1.10537e-05
1.10537e-05
1.10537e-05
1.10537e-05
1.10537e-05
1.10537e-05
1.10537e-05
1.10537e-05
1.10537e-05
)
;

boundaryField
{
    movingWall
    {
        type            calculated;
        value           uniform 1e-05;
    }
    fixedWalls
    {
        type            calculated;
        value           uniform 1e-05;
    }
    frontAndBack
    {
        type            empty;
    }
}


// ************************************************************************* //
