/*--------------------------------*- C++ -*----------------------------------*\
| =========                 |                                                 |
| \\      /  F ield         | OpenFOAM: The Open Source CFD Toolbox           |
|  \\    /   O peration     | Version:  2312                                  |
|   \\  /    A nd           | Website:  www.openfoam.com                      |
|    \\/     M anipulation  |                                                 |
\*---------------------------------------------------------------------------*/
FoamFile
{
    version     2.0;
    format      ascii;
    arch        "LSB;label=32;scalar=64";
    class       volSymmTensorField;
    location    "9";
    object      turbulenceProperties:devReff;
}
// * * * * * * * * * * * * * * * * * * * * * * * * * * * * * * * * * * * * * //

dimensions      [0 2 -2 0 0 0 0];

internalField   nonuniform List<symmTensor> 
400
(
(1.146e-16 -1.19814e-16 -0 -2.22653e-16 -0 1.08052e-16)
(-3.29867e-17 1.38258e-16 -0 5.04967e-17 -0 -1.751e-17)
(9.17667e-18 -2.79098e-17 -0 -1.2996e-17 -0 3.81934e-18)
(-1.43881e-19 6.92051e-18 -0 1.47828e-18 -0 -1.3344e-18)
(8.06815e-19 -1.04516e-18 -0 -1.01837e-18 -0 2.11556e-19)
(-5.98275e-20 4.72121e-19 -0 1.19655e-19 -0 -5.98275e-20)
(-5.53829e-20 -2.78716e-19 -0 1.10766e-19 -0 -5.53829e-20)
(3.91626e-19 5.80684e-20 -0 -1.87993e-19 -0 -2.03633e-19)
(9.28482e-20 -3.02971e-19 -0 -1.85696e-19 -0 9.28482e-20)
(9.20198e-20 -4.13427e-21 -0 -1.8404e-19 -0 9.20198e-20)
(4.34577e-20 6.97446e-21 -0 -8.69153e-20 -0 4.34577e-20)
(4.29595e-19 6.49407e-19 -0 -2.6393e-19 -0 -1.65665e-19)
(-3.99924e-19 4.90063e-19 -0 2.04589e-19 -0 1.95335e-19)
(6.05785e-19 -1.99651e-19 -0 -6.1631e-19 -0 1.05255e-20)
(6.04602e-19 -2.78739e-20 -0 -6.13945e-19 -0 9.34308e-21)
(9.86922e-19 1.33458e-19 -0 -7.83326e-19 -0 -2.03596e-19)
(4.49712e-19 8.57504e-19 -0 -3.04165e-19 -0 -1.45547e-19)
(-1.33966e-18 1.26567e-19 -0 8.93545e-19 -0 4.46116e-19)
(-5.75165e-19 -1.02535e-19 -0 5.55071e-19 -0 2.0094e-20)
(3.54731e-19 -7.39892e-20 -0 -1.14203e-19 -0 -2.40528e-19)
(-1.83058e-16 -2.52432e-17 -0 3.50032e-16 -0 -1.66975e-16)
(5.72991e-17 2.58718e-17 -0 -8.2402e-17 -0 2.51029e-17)
(-1.58793e-17 -2.60785e-18 -0 2.10274e-17 -0 -5.14815e-18)
(7.22698e-19 1.46967e-18 -0 -2.6377e-18 -0 1.915e-18)
(-1.11949e-18 3.24283e-19 -0 1.64286e-18 -0 -5.23376e-19)
(-9.05726e-19 8.2232e-19 -0 6.19275e-19 -0 2.86451e-19)
(-8.98618e-19 1.97055e-19 -0 6.05142e-19 -0 2.93476e-19)
(-6.79101e-22 6.13262e-19 -0 1.3582e-21 -0 -6.79101e-22)
(-3.47951e-21 7.53296e-19 -0 6.95902e-21 -0 -3.47951e-21)
(-1.33439e-20 9.72254e-19 -0 2.66878e-20 -0 -1.33439e-20)
(-4.92853e-20 9.75894e-19 -0 9.85706e-20 -0 -4.92853e-20)
(-8.05212e-20 3.13631e-19 -0 1.61042e-19 -0 -8.05212e-20)
(7.6046e-19 1.3868e-19 -0 -3.29206e-19 -0 -4.31254e-19)
(-1.3852e-18 4.79101e-19 -0 9.82899e-19 -0 4.02301e-19)
(-1.00418e-18 5.14727e-20 -0 8.16771e-19 -0 1.87408e-19)
(-1.47905e-19 -1.98923e-19 -0 2.9581e-19 -0 -1.47905e-19)
(-4.185e-19 -9.39925e-19 -0 2.4127e-19 -0 1.7723e-19)
(4.54139e-19 -3.7531e-19 -0 -3.12572e-19 -0 -1.41567e-19)
(7.82218e-19 -5.80586e-20 -0 -3.73064e-19 -0 -4.09153e-19)
(-8.68149e-19 -2.56832e-19 -0 5.44992e-19 -0 3.23158e-19)
(1.96889e-17 1.24354e-16 -0 -3.75889e-17 -0 1.79e-17)
(-5.24059e-18 -1.22517e-16 -0 9.88429e-18 -0 -4.64371e-18)
(-2.19723e-19 2.08588e-17 -0 -7.54208e-19 -0 9.73932e-19)
(-4.33681e-19 -6.8692e-18 -0 8.67362e-19 -0 -4.33681e-19)
(-4.26679e-19 -6.91183e-19 -0 2.56597e-19 -0 1.70082e-19)
(-2.76589e-19 -1.64843e-18 -0 -4.35598e-20 -0 3.20149e-19)
(1.01961e-18 -7.43296e-19 -0 -8.45824e-19 -0 -1.73782e-19)
(1.30794e-18 -1.28591e-18 -0 -8.25861e-19 -0 -4.82076e-19)
(-3.81338e-20 -1.17959e-18 -0 7.62676e-20 -0 -3.81338e-20)
(3.81018e-21 -8.30262e-19 -0 -7.62036e-21 -0 3.81018e-21)
(-3.92777e-19 -7.86973e-19 -0 1.88992e-19 -0 2.03785e-19)
(8.47746e-21 -8.63466e-19 -0 -1.69549e-20 -0 8.47746e-21)
(4.00025e-19 -2.33944e-19 -0 -2.03553e-19 -0 -1.96471e-19)
(-6.20526e-19 6.39062e-20 -0 6.4458e-19 -0 -2.40541e-20)
(-9.84393e-19 -9.64156e-20 -0 7.75927e-19 -0 2.08467e-19)
(-9.49895e-19 7.45375e-19 -0 7.06978e-19 -0 2.42917e-19)
(-7.31115e-20 5.5142e-19 -0 1.46223e-19 -0 -7.31115e-20)
(4.60319e-19 4.10978e-19 -0 -3.24298e-19 -0 -1.36021e-19)
(1.27733e-19 9.39138e-20 -0 -2.55467e-19 -0 1.27733e-19)
(4.04416e-19 -5.01358e-19 -0 -2.12545e-19 -0 -1.91871e-19)
(1.1577e-16 -5.95396e-17 -0 -2.06467e-16 -0 9.06972e-17)
(-4.49965e-17 5.31678e-17 -0 5.41388e-17 -0 -9.1423e-18)
(1.17063e-17 -1.13254e-17 -0 -1.32549e-17 -0 1.54859e-18)
(-2.22802e-18 1.78382e-18 -0 2.66356e-18 -0 -4.35544e-19)
(1.1543e-18 -5.0828e-19 -0 -1.11371e-18 -0 -4.05899e-20)
(4.41012e-19 -1.52999e-19 -0 -2.84601e-19 -0 -1.56411e-19)
(-3.96713e-19 -9.12404e-20 -0 1.96049e-19 -0 2.00664e-19)
(-8.40909e-19 -7.8377e-19 -0 4.87111e-19 -0 3.53799e-19)
(5.37027e-19 -5.71948e-19 -0 -4.76744e-19 -0 -6.0283e-20)
(9.96602e-19 -5.83468e-19 -0 -7.98633e-19 -0 -1.97969e-19)
(1.4754e-19 -5.22056e-19 -0 -2.95081e-19 -0 1.4754e-19)
(1.22578e-19 -2.79032e-19 -0 -2.45156e-19 -0 1.22578e-19)
(5.33086e-19 -7.07921e-19 -0 -4.68998e-19 -0 -6.40881e-20)
(5.68621e-19 -4.26523e-19 -0 -5.40092e-19 -0 -2.85291e-20)
(8.77228e-19 -5.07839e-20 -0 -5.60244e-19 -0 -3.16985e-19)
(3.50916e-19 -7.5061e-20 -0 -1.0475e-19 -0 -2.46166e-19)
(-5.16513e-19 -7.44387e-20 -0 4.35986e-19 -0 8.05266e-20)
(-8.74495e-19 8.14792e-19 -0 5.54961e-19 -0 3.19534e-19)
(1.37974e-21 2.57064e-20 -0 -2.75947e-21 -0 1.37974e-21)
(1.51694e-20 2.4324e-19 -0 -3.03389e-20 -0 1.51694e-20)
(-1.20464e-16 -3.2806e-17 -0 2.11649e-16 -0 -9.11849e-17)
(4.71886e-17 3.30463e-17 -0 -5.66931e-17 -0 9.50454e-18)
(-1.07486e-17 -6.82182e-18 -0 1.25257e-17 -0 -1.77708e-18)
(1.59201e-18 1.78199e-18 -0 -2.58594e-18 -0 9.93933e-19)
(-2.06443e-19 -2.14659e-19 -0 4.12887e-19 -0 -2.06443e-19)
(-3.92023e-19 3.7784e-19 -0 1.86037e-19 -0 2.05986e-19)
(-1.34855e-19 2.82945e-19 -0 2.69711e-19 -0 -1.34855e-19)
(-5.17673e-19 5.98007e-19 -0 4.37407e-19 -0 8.02657e-20)
(3.9776e-19 5.43179e-19 -0 -1.97628e-19 -0 -2.00133e-19)
(-1.42488e-20 6.49532e-19 -0 2.84976e-20 -0 -1.42488e-20)
(4.26328e-20 2.24647e-19 -0 -8.52655e-20 -0 4.26328e-20)
(4.43155e-19 3.49157e-19 -0 -2.88511e-19 -0 -1.54644e-19)
(9.63596e-21 -3.06446e-19 -0 -1.92719e-20 -0 9.63596e-21)
(1.77176e-19 1.44928e-19 -0 -3.54353e-19 -0 1.77176e-19)
(5.98468e-19 -3.67514e-19 -0 -5.99251e-19 -0 7.82996e-22)
(8.44369e-20 -4.47552e-19 -0 -1.68874e-19 -0 8.44369e-20)
(2.21882e-20 2.02177e-21 -0 -4.43763e-20 -0 2.21882e-20)
(-2.86005e-20 -6.64512e-19 -0 5.72009e-20 -0 -2.86005e-20)
(-8.59857e-20 -4.64892e-20 -0 1.71971e-19 -0 -8.59857e-20)
(-5.68564e-21 -4.7756e-19 -0 1.13713e-20 -0 -5.68564e-21)
(6.67905e-17 9.10879e-17 -0 -1.19828e-16 -0 5.30372e-17)
(-2.41616e-17 -9.90503e-17 -0 2.9168e-17 -0 -5.00646e-18)
(6.47311e-18 2.02829e-17 -0 -7.55937e-18 -0 1.08626e-18)
(-1.32691e-18 -4.76029e-18 -0 1.4568e-18 -0 -1.29883e-19)
(5.44979e-19 9.72737e-19 -0 -4.9149e-19 -0 -5.34888e-20)
(4.53143e-19 -5.59915e-19 -0 -3.07842e-19 -0 -1.45301e-19)
(1.19659e-19 3.96491e-19 -0 -2.39317e-19 -0 1.19659e-19)
(9.11632e-19 2.1047e-19 -0 -6.26517e-19 -0 -2.85114e-19)
(-8.80812e-19 -1.31892e-19 -0 5.64971e-19 -0 3.15841e-19)
(-1.68666e-19 -5.14129e-20 -0 3.37332e-19 -0 -1.68666e-19)
(-4.1848e-19 -1.30584e-20 -0 2.38704e-19 -0 1.79776e-19)
(4.73259e-19 6.9137e-20 -0 -3.48286e-19 -0 -1.24973e-19)
(-2.24971e-20 5.87353e-19 -0 4.49942e-20 -0 -2.24971e-20)
(-4.60087e-19 -1.14876e-19 -0 3.22013e-19 -0 1.38074e-19)
(2.00667e-20 6.86431e-19 -0 -4.01333e-20 -0 2.00667e-20)
(4.66321e-19 1.91724e-19 -0 -3.34551e-19 -0 -1.3177e-19)
(6.34507e-20 6.93152e-19 -0 -1.26901e-19 -0 6.34507e-20)
(3.36107e-21 -2.17496e-19 -0 -6.72214e-21 -0 3.36107e-21)
(-3.88881e-19 -8.64515e-21 -0 1.79764e-19 -0 2.09117e-19)
(4.14222e-19 -1.92931e-19 -0 -2.3048e-19 -0 -1.83742e-19)
(3.87594e-17 -1.0314e-16 -0 -9.12788e-17 -0 5.25194e-17)
(-2.53881e-18 1.18322e-16 -0 1.76544e-17 -0 -1.51156e-17)
(1.59498e-18 -2.22322e-17 -0 -4.38763e-18 -0 2.79265e-18)
(1.03229e-18 6.18925e-18 -0 3.30678e-19 -0 -1.36296e-18)
(-2.2468e-19 -1.91759e-19 -0 -1.49404e-19 -0 3.74084e-19)
(-4.37539e-19 1.31592e-18 -0 2.76338e-19 -0 1.61201e-19)
(2.12055e-20 -1.05544e-19 -0 -4.2411e-20 -0 2.12055e-20)
(5.02909e-19 4.9397e-21 -0 -4.0715e-19 -0 -9.57592e-20)
(-3.31281e-19 3.69127e-19 -0 6.39398e-20 -0 2.67341e-19)
(1.29736e-20 -4.34138e-20 -0 -2.59473e-20 -0 1.29736e-20)
(4.12939e-19 1.59375e-19 -0 -2.27329e-19 -0 -1.85611e-19)
(4.23323e-19 -2.44656e-19 -0 -2.48122e-19 -0 -1.75201e-19)
(8.65312e-19 -1.03096e-19 -0 -5.33665e-19 -0 -3.31646e-19)
(-7.51799e-20 8.12258e-20 -0 1.5036e-19 -0 -7.51799e-20)
(-9.62979e-19 3.6998e-20 -0 7.29141e-19 -0 2.33837e-19)
(-4.22673e-20 8.51736e-20 -0 8.45347e-20 -0 -4.22673e-20)
(-1.55961e-21 -1.09826e-18 -0 3.11922e-21 -0 -1.55961e-21)
(-4.2825e-19 1.35328e-20 -0 2.58189e-19 -0 1.70061e-19)
(4.49816e-19 -6.48831e-20 -0 -3.01344e-19 -0 -1.48473e-19)
(4.52227e-20 -1.40944e-19 -0 -9.04454e-20 -0 4.52227e-20)
(-1.47769e-16 3.26197e-17 -0 3.01522e-16 -0 -1.53753e-16)
(3.39963e-17 -2.98258e-17 -0 -6.49971e-17 -0 3.10008e-17)
(-1.07855e-17 5.35704e-18 -0 1.67789e-17 -0 -5.99332e-18)
(-2.84986e-19 -8.35864e-19 -0 -2.42505e-18 -0 2.71003e-18)
(8.36468e-19 1.84097e-19 -0 1.23932e-19 -0 -9.604e-19)
(-8.95948e-19 8.67488e-19 -0 5.94032e-19 -0 3.01915e-19)
(-5.77367e-19 7.82363e-19 -0 5.55849e-19 -0 2.15173e-20)
(-1.94607e-19 7.39577e-19 -0 3.89215e-19 -0 -1.94607e-19)
(-2.18636e-19 6.03078e-19 -0 4.37272e-19 -0 -2.18636e-19)
(-9.84444e-19 6.28194e-19 -0 7.71314e-19 -0 2.1313e-19)
(-9.82923e-19 2.69293e-19 -0 7.68364e-19 -0 2.14558e-19)
(-1.33203e-19 -3.10349e-19 -0 2.66407e-19 -0 -1.33203e-19)
(3.68767e-20 -1.60897e-19 -0 -7.37534e-20 -0 3.68767e-20)
(1.10211e-19 -3.64825e-19 -0 -2.20422e-19 -0 1.10211e-19)
(2.60624e-20 -5.59585e-19 -0 -5.21248e-20 -0 2.60624e-20)
(-3.66698e-20 -5.35011e-20 -0 7.33395e-20 -0 -3.66698e-20)
(3.75375e-20 7.58458e-20 -0 -7.5075e-20 -0 3.75375e-20)
(9.00528e-19 2.77734e-21 -0 -6.04056e-19 -0 -2.96473e-19)
(-3.16953e-19 -1.20587e-19 -0 3.54285e-20 -0 2.81525e-19)
(4.68219e-19 -3.47997e-19 -0 -3.37995e-19 -0 -1.30224e-19)
(1.36154e-16 8.19205e-17 -0 -2.72907e-16 -0 1.36753e-16)
(-3.26434e-17 -1.06243e-16 -0 5.92947e-17 -0 -2.66513e-17)
(1.05747e-17 1.95971e-17 -0 -1.57571e-17 -0 5.18237e-18)
(6.98947e-19 -6.15098e-18 -0 1.59775e-18 -0 -2.2967e-18)
(4.33366e-19 4.25322e-19 -0 -8.66732e-19 -0 4.33366e-19)
(7.66242e-20 -1.05509e-18 -0 -1.53248e-19 -0 7.66242e-20)
(9.00052e-19 -2.59197e-19 -0 -6.02088e-19 -0 -2.97964e-19)
(-9.70761e-20 -2.33712e-19 -0 1.94152e-19 -0 -9.70761e-20)
(-1.43796e-18 5.70656e-20 -0 1.07912e-18 -0 3.58846e-19)
(-1.03272e-18 -9.44634e-20 -0 8.67615e-19 -0 1.65103e-19)
(-2.16499e-19 3.79618e-19 -0 4.32997e-19 -0 -2.16499e-19)
(-5.97588e-19 9.20033e-19 -0 5.96338e-19 -0 1.25039e-21)
(-5.75002e-19 4.2985e-19 -0 5.51212e-19 -0 2.37901e-20)
(2.167e-20 6.96254e-19 -0 -4.33401e-20 -0 2.167e-20)
(9.37158e-19 5.56733e-19 -0 -6.76875e-19 -0 -2.60283e-19)
(8.20187e-19 6.66691e-19 -0 -4.42984e-19 -0 -3.77203e-19)
(-8.61152e-19 4.88271e-19 -0 5.25006e-19 -0 3.36146e-19)
(4.4096e-20 -5.32228e-20 -0 -8.8192e-20 -0 4.4096e-20)
(4.62906e-20 -1.50126e-20 -0 -9.25813e-20 -0 4.62906e-20)
(-7.90787e-21 3.85238e-19 -0 1.58157e-20 -0 -7.90787e-21)
(-2.86813e-17 -1.38874e-16 -0 5.07774e-17 -0 -2.20961e-17)
(1.01502e-17 1.71663e-16 -0 -1.37082e-17 -0 3.55794e-18)
(-2.47919e-18 -3.3571e-17 -0 3.16066e-18 -0 -6.81472e-19)
(-1.53538e-19 8.08566e-18 -0 -2.92139e-19 -0 4.45677e-19)
(7.73713e-19 -2.47731e-18 -0 -3.49092e-19 -0 -4.24621e-19)
(1.5096e-19 -7.31184e-19 -0 -3.01919e-19 -0 1.5096e-19)
(1.61268e-19 -1.05361e-18 -0 -3.22537e-19 -0 1.61268e-19)
(6.05411e-19 -1.14415e-18 -0 -6.11754e-19 -0 6.34249e-21)
(6.11755e-19 -9.88078e-19 -0 -6.24488e-19 -0 1.27331e-20)
(9.06823e-19 -9.04429e-19 -0 -6.15654e-19 -0 -2.91169e-19)
(4.21129e-19 -6.82717e-19 -0 -2.43309e-19 -0 -1.7782e-19)
(-8.12969e-20 -9.70392e-19 -0 1.62594e-19 -0 -8.12969e-20)
(-5.43066e-19 -4.91027e-19 -0 4.87255e-19 -0 5.58113e-20)
(-9.61587e-19 -2.38179e-19 -0 7.25472e-19 -0 2.36116e-19)
(-2.24228e-21 3.86365e-20 -0 4.48456e-21 -0 -2.24228e-21)
(9.13491e-19 -6.48922e-19 -0 -6.29423e-19 -0 -2.84068e-19)
(-8.2735e-19 -2.56758e-19 -0 4.57233e-19 -0 3.70118e-19)
(-4.5931e-20 1.38245e-19 -0 9.18619e-20 -0 -4.5931e-20)
(-2.92491e-20 -4.26141e-20 -0 5.84981e-20 -0 -2.92491e-20)
(-6.23632e-20 3.0811e-19 -0 1.24726e-19 -0 -6.23632e-20)
(-7.87346e-17 1.19037e-16 -0 1.63456e-16 -0 -8.47218e-17)
(1.68924e-17 -1.4023e-16 -0 -3.49834e-17 -0 1.80911e-17)
(-5.4501e-18 3.02635e-17 -0 9.10228e-18 -0 -3.65218e-18)
(-4.04603e-19 -5.03957e-18 -0 -9.88639e-19 -0 1.39324e-18)
(-1.2166e-18 2.96481e-18 -0 1.23474e-18 -0 -1.81385e-20)
(-9.23186e-19 1.06176e-18 -0 6.47955e-19 -0 2.75231e-19)
(-5.36556e-19 1.45557e-18 -0 4.73952e-19 -0 6.26043e-20)
(-3.36302e-20 1.78645e-18 -0 6.72604e-20 -0 -3.36302e-20)
(6.74291e-20 1.70159e-18 -0 -1.34858e-19 -0 6.74291e-20)
(8.29628e-20 1.08999e-18 -0 -1.65926e-19 -0 8.29628e-20)
(-3.72807e-19 6.49101e-20 -0 1.46598e-19 -0 2.26209e-19)
(9.59999e-20 2.70289e-19 -0 -1.92e-19 -0 9.59999e-20)
(9.08666e-19 8.52197e-19 -0 -6.19444e-19 -0 -2.89221e-19)
(-5.63932e-20 4.84057e-19 -0 1.12786e-19 -0 -5.63932e-20)
(-1.27114e-19 1.39483e-19 -0 2.54228e-19 -0 -1.27114e-19)
(-8.93431e-21 1.08215e-19 -0 1.78686e-20 -0 -8.93431e-21)
(1.39538e-19 -1.68215e-19 -0 -2.79075e-19 -0 1.39538e-19)
(9.14159e-19 -5.29165e-20 -0 -6.30771e-19 -0 -2.83388e-19)
(3.04154e-20 -2.89732e-19 -0 -6.08309e-20 -0 3.04154e-20)
(-1.67553e-20 -5.14541e-20 -0 3.35105e-20 -0 -1.67553e-20)
(1.30021e-16 -2.36485e-17 -0 -2.60041e-16 -0 1.30021e-16)
(-3.0955e-17 4.63496e-17 -0 5.83134e-17 -0 -2.73584e-17)
(1.0416e-17 -8.53163e-18 -0 -1.54378e-17 -0 5.02177e-18)
(6.49497e-19 2.63597e-18 -0 1.69771e-18 -0 -2.34721e-18)
(3.75332e-19 6.97396e-19 -0 -7.50665e-19 -0 3.75332e-19)
(7.75379e-19 1.24497e-18 -0 -3.52223e-19 -0 -4.23156e-19)
(-4.80826e-20 1.20714e-18 -0 9.61651e-20 -0 -4.80826e-20)
(-2.17117e-19 1.24514e-18 -0 4.34234e-19 -0 -2.17117e-19)
(-1.04064e-18 1.23339e-18 -0 8.82982e-19 -0 1.57655e-19)
(-5.38828e-19 9.54082e-19 -0 4.78536e-19 -0 6.02925e-20)
(-9.03953e-19 1.39433e-18 -0 6.09758e-19 -0 2.94195e-19)
(6.83531e-19 1.89931e-18 -0 -1.68967e-19 -0 -5.14565e-19)
(-1.04417e-18 9.35479e-19 -0 8.90336e-19 -0 1.53833e-19)
(-1.0335e-18 1.01606e-18 -0 8.69048e-19 -0 1.64452e-19)
(-1.40466e-18 5.66385e-19 -0 1.01252e-18 -0 3.92131e-19)
(-1.10108e-19 1.48726e-19 -0 2.20216e-19 -0 -1.10108e-19)
(1.63512e-20 4.54357e-19 -0 -3.27023e-20 -0 1.63512e-20)
(-4.08861e-19 2.54595e-21 -0 2.1889e-19 -0 1.8997e-19)
(-3.83045e-20 4.5562e-19 -0 7.66091e-20 -0 -3.83045e-20)
(3.81972e-19 2.9277e-20 -0 -1.65172e-19 -0 -2.168e-19)
(-8.12345e-17 -5.86463e-17 -0 1.96603e-16 -0 -1.15368e-16)
(1.41333e-18 5.10665e-17 -0 -3.39998e-17 -0 3.25865e-17)
(-2.75514e-18 -1.26415e-17 -0 9.10681e-18 -0 -6.35167e-18)
(-2.0336e-18 1.62972e-18 -0 -7.27994e-19 -0 2.76159e-18)
(6.13391e-19 -2.01838e-18 -0 -2.8082e-20 -0 -5.85309e-19)
(-8.54634e-19 -1.2995e-18 -0 5.10619e-19 -0 3.44016e-19)
(-4.9716e-20 -2.14919e-18 -0 9.9432e-20 -0 -4.9716e-20)
(5.16198e-22 -2.11736e-18 -0 -1.0324e-21 -0 5.16198e-22)
(-5.14579e-20 -2.30943e-18 -0 1.02916e-19 -0 -5.14579e-20)
(-4.26179e-20 -2.11057e-18 -0 8.52357e-20 -0 -4.26179e-20)
(1.64472e-18 -1.76877e-18 -0 -8.92921e-19 -0 -7.51801e-19)
(-8.85348e-19 -1.91555e-18 -0 5.72486e-19 -0 3.12862e-19)
(-9.72745e-19 -1.96339e-18 -0 7.47373e-19 -0 2.25372e-19)
(-1.17738e-19 -1.97e-18 -0 2.35476e-19 -0 -1.17738e-19)
(-4.27927e-19 -9.46088e-19 -0 2.56868e-19 -0 1.71059e-19)
(5.68722e-20 -2.26508e-19 -0 -1.13744e-19 -0 5.68722e-20)
(-4.39237e-20 -1.94938e-20 -0 8.78474e-20 -0 -4.39237e-20)
(-1.90344e-19 6.27954e-19 -0 3.80687e-19 -0 -1.90344e-19)
(-1.01254e-18 2.1002e-20 -0 8.27344e-19 -0 1.85193e-19)
(-6.23094e-20 -4.34154e-19 -0 1.24619e-19 -0 -6.23094e-20)
(2.41997e-17 7.51316e-17 -0 -7.95418e-17 -0 5.53421e-17)
(1.23029e-17 -9.96826e-17 -0 7.76965e-18 -0 -2.00725e-17)
(-1.53253e-18 1.88184e-17 -0 -2.33029e-18 -0 3.86282e-18)
(1.45447e-18 -6.01347e-18 -0 8.83651e-20 -0 -1.54283e-18)
(-3.95109e-21 1.28033e-19 -0 7.90218e-21 -0 -3.95109e-21)
(-2.32728e-19 -1.35637e-18 -0 4.65455e-19 -0 -2.32728e-19)
(-1.42966e-18 -3.75046e-19 -0 1.0613e-18 -0 3.68355e-19)
(-1.38722e-19 -2.50273e-19 -0 2.77445e-19 -0 -1.38722e-19)
(-3.92899e-19 -4.99446e-19 -0 1.86534e-19 -0 2.06365e-19)
(1.21651e-19 -9.2352e-20 -0 -2.43303e-19 -0 1.21651e-19)
(-2.60216e-19 -3.37072e-19 -0 -7.87594e-20 -0 3.38975e-19)
(1.49899e-19 -4.64947e-19 -0 -2.99797e-19 -0 1.49899e-19)
(6.53588e-19 8.38014e-20 -0 -7.08057e-19 -0 5.44693e-20)
(1.47515e-18 -4.0003e-19 -0 -1.15303e-18 -0 -3.22125e-19)
(9.39017e-19 -2.94481e-19 -0 -6.79942e-19 -0 -2.59075e-19)
(2.26517e-20 -1.27764e-19 -0 -4.53034e-20 -0 2.26517e-20)
(4.16151e-19 -7.31485e-20 -0 -2.33329e-19 -0 -1.82822e-19)
(3.35979e-20 -3.4117e-19 -0 -6.71957e-20 -0 3.35979e-20)
(-4.33493e-19 -3.58076e-20 -0 2.68062e-19 -0 1.65431e-19)
(4.17104e-19 -3.85279e-19 -0 -2.35319e-19 -0 -1.81785e-19)
(3.59672e-17 -8.97391e-17 -0 -5.21689e-17 -0 1.62016e-17)
(-2.06267e-17 1.12804e-16 -0 1.72691e-17 -0 3.35762e-18)
(4.63353e-18 -2.18526e-17 -0 -3.87114e-18 -0 -7.62399e-19)
(-1.96179e-18 5.63204e-18 -0 1.52549e-18 -0 4.36301e-19)
(-1.84059e-20 -6.86854e-19 -0 3.68117e-20 -0 -1.84059e-20)
(4.19249e-19 5.39469e-19 -0 -2.39049e-19 -0 -1.802e-19)
(3.92598e-19 4.06679e-19 -0 -1.85795e-19 -0 -2.06803e-19)
(-3.38608e-19 2.22975e-19 -0 7.78408e-20 -0 2.60768e-19)
(1.60659e-19 5.95797e-19 -0 -3.21317e-19 -0 1.60659e-19)
(1.38348e-18 1.28582e-18 -0 -9.69058e-19 -0 -4.14425e-19)
(4.41527e-19 1.48436e-18 -0 -2.83799e-19 -0 -1.57728e-19)
(1.36048e-20 1.50697e-18 -0 -2.72097e-20 -0 1.36048e-20)
(-3.29203e-19 1.44064e-18 -0 5.92237e-20 -0 2.69979e-19)
(7.59711e-20 1.49577e-18 -0 -1.51942e-19 -0 7.59711e-20)
(-1.20151e-19 9.32972e-19 -0 2.40303e-19 -0 -1.20151e-19)
(-1.04904e-18 5.57718e-19 -0 8.9991e-19 -0 1.49128e-19)
(-9.17285e-19 2.63595e-19 -0 6.36496e-19 -0 2.8079e-19)
(4.7216e-19 1.0565e-19 -0 -3.4531e-19 -0 -1.2685e-19)
(1.38631e-19 4.46347e-20 -0 -2.77261e-19 -0 1.38631e-19)
(4.74792e-19 1.40162e-19 -0 -3.50633e-19 -0 -1.2416e-19)
(-1.13013e-16 5.74922e-17 -0 2.02664e-16 -0 -8.96509e-17)
(4.18514e-17 -6.82324e-17 -0 -5.25197e-17 -0 1.06682e-17)
(-1.08052e-17 1.33108e-17 -0 1.26161e-17 -0 -1.81095e-18)
(1.87979e-18 -3.23352e-18 -0 -2.5604e-18 -0 6.80607e-19)
(-1.00923e-18 1.05288e-18 -0 8.19368e-19 -0 1.89859e-19)
(1.77025e-19 -1.74741e-19 -0 -3.5405e-19 -0 1.77025e-19)
(2.42904e-19 7.61757e-19 -0 -4.85809e-19 -0 2.42904e-19)
(1.94719e-18 9.75761e-20 -0 -1.4966e-18 -0 -4.50586e-19)
(6.37609e-19 5.13343e-19 -0 -6.75821e-19 -0 3.82127e-20)
(6.84817e-20 -2.141e-19 -0 -1.36963e-19 -0 6.84817e-20)
(2.76942e-20 -6.79554e-19 -0 -5.53883e-20 -0 2.76942e-20)
(6.16368e-20 -2.07759e-19 -0 -1.23274e-19 -0 6.16368e-20)
(2.28704e-20 -9.08622e-19 -0 -4.57409e-20 -0 2.28704e-20)
(-1.45885e-19 -7.13695e-19 -0 2.9177e-19 -0 -1.45885e-19)
(-1.97866e-19 -1.04724e-19 -0 3.95732e-19 -0 -1.97866e-19)
(-6.02966e-19 -1.30145e-19 -0 6.06781e-19 -0 -3.81535e-21)
(-1.48176e-19 -2.58263e-19 -0 2.96352e-19 -0 -1.48176e-19)
(-8.86821e-19 -1.28009e-19 -0 5.75486e-19 -0 3.11335e-19)
(8.49295e-20 -3.39361e-19 -0 -1.69859e-19 -0 8.49295e-20)
(3.811e-20 -3.63666e-19 -0 -7.62199e-20 -0 3.811e-20)
(1.30981e-16 4.40224e-17 -0 -2.41592e-16 -0 1.10612e-16)
(-4.53238e-17 -3.31855e-17 -0 6.00606e-17 -0 -1.47368e-17)
(1.2387e-17 7.81621e-18 -0 -1.5179e-17 -0 2.79201e-18)
(-1.57401e-18 -1.26593e-18 -0 2.54836e-18 -0 -9.74349e-19)
(1.13988e-18 9.6777e-19 -0 -1.08054e-18 -0 -5.934e-20)
(8.28738e-19 1.6018e-19 -0 -4.58304e-19 -0 -3.70434e-19)
(4.05801e-19 -7.50078e-19 -0 -2.12065e-19 -0 -1.93736e-19)
(-1.27022e-18 -3.69189e-19 -0 7.41902e-19 -0 5.28316e-19)
(-4.77197e-19 -1.0819e-18 -0 3.54929e-19 -0 1.22267e-19)
(-1.17303e-19 -1.09587e-18 -0 2.34606e-19 -0 -1.17303e-19)
(-4.67585e-19 -9.02606e-19 -0 3.3578e-19 -0 1.31805e-19)
(3.79468e-19 -1.1826e-18 -0 -1.59573e-19 -0 -2.19896e-19)
(-4.71756e-19 -6.44982e-19 -0 3.44194e-19 -0 1.27562e-19)
(1.97194e-20 -8.69542e-19 -0 -3.94387e-20 -0 1.97194e-20)
(1.03609e-18 -1.67691e-18 -0 -8.73682e-19 -0 -1.62403e-19)
(2.3343e-19 -1.01471e-18 -0 -4.66861e-19 -0 2.3343e-19)
(-3.29428e-19 -8.08316e-19 -0 5.9685e-20 -0 2.69743e-19)
(-4.15621e-21 -2.44019e-19 -0 8.31241e-21 -0 -4.15621e-21)
(-3.22715e-19 -1.44615e-19 -0 4.63088e-20 -0 2.76406e-19)
(8.6743e-19 2.52223e-20 -0 -5.3669e-19 -0 -3.3074e-19)
(-1.69674e-18 -1.23494e-16 -0 1.23808e-17 -0 -1.0684e-17)
(-5.12572e-18 1.13174e-16 -0 1.25433e-18 -0 3.8714e-18)
(6.61913e-19 -2.23234e-17 -0 4.75415e-19 -0 -1.13733e-18)
(-1.23945e-18 5.541e-18 -0 6.79741e-19 -0 5.59713e-19)
(-8.34304e-20 -1.95157e-18 -0 1.66861e-19 -0 -8.34304e-20)
(-8.80927e-19 2.68634e-20 -0 5.62558e-19 -0 3.18369e-19)
(-4.79104e-19 -2.86531e-19 -0 3.58609e-19 -0 1.20495e-19)
(-1.48372e-19 -7.66723e-20 -0 2.96744e-19 -0 -1.48372e-19)
(-1.02488e-19 -1.68872e-20 -0 2.04977e-19 -0 -1.02488e-19)
(-4.90925e-19 7.12711e-20 -0 3.82351e-19 -0 1.08575e-19)
(-8.5287e-20 3.73411e-19 -0 1.70574e-19 -0 -8.5287e-20)
(-5.52562e-19 -2.01461e-19 -0 5.05698e-19 -0 4.68641e-20)
(-9.30377e-19 2.30195e-19 -0 6.61996e-19 -0 2.6838e-19)
(9.81713e-20 3.20506e-19 -0 -1.96343e-19 -0 9.81713e-20)
(6.64458e-19 4.73595e-19 -0 -7.29611e-19 -0 6.51526e-20)
(1.91463e-18 1.20439e-19 -0 -1.43215e-18 -0 -4.82483e-19)
(9.47112e-19 6.97303e-19 -0 -6.95759e-19 -0 -2.51353e-19)
(7.2593e-20 -1.38066e-19 -0 -1.45186e-19 -0 7.2593e-20)
(2.6306e-20 1.50523e-19 -0 -5.2612e-20 -0 2.6306e-20)
(4.94163e-20 4.53441e-19 -0 -9.88325e-20 -0 4.94163e-20)
(-1.5053e-16 3.53816e-17 -0 2.66905e-16 -0 -1.16375e-16)
(5.66363e-17 -4.15308e-17 -0 -6.82844e-17 -0 1.16481e-17)
(-1.53741e-17 5.8872e-18 -0 1.7553e-17 -0 -2.17885e-18)
(2.17048e-18 -2.84701e-18 -0 -3.14143e-18 -0 9.70953e-19)
(-2.58486e-19 -4.69253e-19 -0 5.16972e-19 -0 -2.58486e-19)
(8.57183e-20 -4.45555e-19 -0 -1.71437e-19 -0 8.57183e-20)
(1.69561e-18 -3.49898e-19 -0 -9.92648e-19 -0 -7.02959e-19)
(-8.08791e-19 -3.34558e-19 -0 4.1835e-19 -0 3.90441e-19)
(-4.01226e-19 3.13916e-20 -0 2.02882e-19 -0 1.98343e-19)
(4.31069e-19 7.72407e-20 -0 -2.62595e-19 -0 -1.68474e-19)
(8.71674e-20 6.88533e-19 -0 -1.74335e-19 -0 8.71674e-20)
(-2.95957e-19 3.84775e-19 -0 -7.55699e-21 -0 3.03514e-19)
(1.33158e-18 4.76773e-19 -0 -8.64877e-19 -0 -4.66699e-19)
(3.67667e-19 9.33637e-19 -0 -1.35935e-19 -0 -2.31731e-19)
(-5.19977e-19 9.91917e-19 -0 4.40601e-19 -0 7.9376e-20)
(-8.69076e-19 9.58237e-19 -0 5.39501e-19 -0 3.29575e-19)
(-4.05608e-19 1.5675e-19 -0 2.11935e-19 -0 1.93673e-19)
(4.87293e-20 -3.60943e-19 -0 -9.74586e-20 -0 4.87293e-20)
(3.9983e-19 4.89348e-19 -0 -2.0043e-19 -0 -1.994e-19)
(-2.31551e-20 1.38817e-19 -0 4.63101e-20 -0 -2.31551e-20)
(8.98641e-17 8.30429e-17 -0 -1.7074e-16 -0 8.08758e-17)
(-2.86904e-17 -8.3708e-17 -0 4.00035e-17 -0 -1.1313e-17)
(7.59881e-18 1.88622e-17 -0 -1.04039e-17 -0 2.80505e-18)
(-4.09836e-19 -3.03402e-18 -0 1.41889e-18 -0 -1.00906e-18)
(6.83732e-19 2.07303e-18 -0 -7.68244e-19 -0 8.4512e-20)
(6.03854e-20 6.93131e-19 -0 -1.20771e-19 -0 6.03854e-20)
(-3.49425e-19 7.54902e-19 -0 9.963e-20 -0 2.49795e-19)
(5.30292e-19 6.69604e-19 -0 -4.61363e-19 -0 -6.89282e-20)
(7.3826e-20 5.21361e-19 -0 -1.47652e-19 -0 7.3826e-20)
(4.99301e-19 5.37499e-19 -0 -3.99382e-19 -0 -9.99187e-20)
(4.83625e-19 -3.4778e-20 -0 -3.68029e-19 -0 -1.15595e-19)
(5.35445e-19 6.29108e-19 -0 -4.71671e-19 -0 -6.37743e-20)
(5.60219e-19 1.33878e-19 -0 -5.21218e-19 -0 -3.90008e-20)
(1.43478e-19 -4.98411e-19 -0 -2.86955e-19 -0 1.43478e-19)
(8.50184e-19 -6.67851e-19 -0 -5.01929e-19 -0 -3.48255e-19)
(-8.39065e-19 -6.50234e-19 -0 4.7969e-19 -0 3.59375e-19)
(5.67072e-20 -7.99661e-20 -0 -1.13414e-19 -0 5.67072e-20)
(8.10033e-19 1.51895e-19 -0 -4.21627e-19 -0 -3.88406e-19)
(-8.81604e-19 -6.40473e-19 -0 5.64769e-19 -0 3.16835e-19)
(-8.96825e-20 1.19668e-19 -0 1.79365e-19 -0 -8.96825e-20)
)
;

boundaryField
{
    movingWall
    {
        type            calculated;
        value           nonuniform List<symmTensor> 
20
(
(2.10819e-16 3.26107e-17 -0 -4.13506e-16 -0 2.02687e-16)
(-5.31254e-17 -6.10279e-17 -0 9.05299e-17 -0 -3.74045e-17)
(1.35737e-17 1.87196e-17 -0 -2.28105e-17 -0 9.23685e-18)
(-1.83831e-18 -1.16448e-18 -0 4.21872e-18 -0 -2.38041e-18)
(8.3315e-19 3.45576e-18 -0 -1.1242e-18 -0 2.91049e-19)
(-8.97852e-20 2.03435e-18 -0 1.7957e-19 -0 -8.97852e-20)
(-3.85895e-19 2.80538e-18 -0 2.29689e-19 -0 1.56206e-19)
(6.47195e-19 2.72821e-18 -0 -7.52288e-19 -0 1.05093e-19)
(1.45305e-19 2.15001e-18 -0 -2.9061e-19 -0 1.45305e-19)
(4.59361e-19 2.16461e-18 -0 -3.76622e-19 -0 -8.27398e-20)
(3.57806e-19 8.56716e-19 -0 -1.73511e-19 -0 -1.84295e-19)
(3.7546e-19 4.71128e-19 -0 -2.0882e-19 -0 -1.66641e-19)
(4.29909e-19 1.21116e-19 -0 -3.17718e-19 -0 -1.12192e-19)
(3.37037e-19 9.11993e-20 -0 -6.74074e-19 -0 3.37037e-19)
(1.03451e-18 -9.50268e-19 -0 -9.84815e-19 -0 -4.96938e-20)
(-5.51337e-19 -9.3433e-19 -0 1.84711e-20 -0 5.32866e-19)
(1.88636e-19 -7.23436e-20 -0 -3.77272e-19 -0 1.88636e-19)
(7.0135e-19 -1.33634e-19 -0 -3.18498e-19 -0 -3.82852e-19)
(-8.90523e-19 -9.25499e-19 -0 6.96844e-19 -0 1.93679e-19)
(-1.20974e-19 1.08261e-19 -0 2.41948e-19 -0 -1.20974e-19)
)
;
    }
    fixedWalls
    {
        type            calculated;
        value           nonuniform List<symmTensor> 
60
(
(1.32365e-16 -5.2466e-16 -0 -2.16769e-16 -0 8.44036e-17)
(-2.24935e-16 -9.01534e-17 -0 3.47729e-16 -0 -1.22794e-16)
(1.79997e-17 4.52164e-16 -0 -3.4223e-17 -0 1.62233e-17)
(1.76401e-16 -2.03514e-16 -0 -2.23127e-16 -0 4.67266e-17)
(-1.86318e-16 -1.24135e-16 -0 2.30528e-16 -0 -4.42098e-17)
(9.84235e-17 3.75235e-16 -0 -1.27569e-16 -0 2.91456e-17)
(7.3141e-18 -4.38378e-16 -0 -6.88071e-17 -0 6.1493e-17)
(-1.36286e-16 1.11924e-16 -0 2.74348e-16 -0 -1.38062e-16)
(1.33145e-16 3.9132e-16 -0 -2.52079e-16 -0 1.18934e-16)
(-4.03521e-17 -6.38777e-16 -0 5.31708e-17 -0 -1.28186e-17)
(-6.66134e-17 5.31702e-16 -0 1.45661e-16 -0 -7.90479e-17)
(1.24819e-16 -1.73366e-16 -0 -2.3898e-16 -0 1.14161e-16)
(-1.76781e-18 -1.97621e-16 -0 1.42091e-16 -0 -1.40324e-16)
(-4.87123e-17 3.6978e-16 -0 -3.66904e-17 -0 8.54027e-17)
(8.1023e-17 -4.21478e-16 -0 -7.14517e-17 -0 -9.57123e-18)
(-1.66339e-16 2.54692e-16 -0 2.15438e-16 -0 -4.90993e-17)
(1.82025e-16 1.24944e-16 -0 -2.50363e-16 -0 6.83379e-17)
(1.79128e-17 -4.20927e-16 -0 1.47789e-18 -0 -1.93907e-17)
(-2.29273e-16 1.49605e-16 -0 2.88015e-16 -0 -5.87426e-17)
(1.13773e-16 3.22192e-16 -0 -1.70702e-16 -0 5.69293e-17)
(-3.83478e-20 2.5505e-20 -0 7.66955e-20 -0 -3.83478e-20)
(-1.25153e-18 -2.55592e-19 -0 7.26712e-19 -0 5.24822e-19)
(5.98384e-19 -6.49325e-19 -0 -3.08589e-19 -0 -2.89794e-19)
(1.37754e-20 5.30489e-20 -0 -2.75508e-20 -0 1.37754e-20)
(5.86961e-19 -5.66673e-19 -0 -2.85743e-19 -0 -3.01218e-19)
(6.06243e-19 -2.48951e-19 -0 -3.24307e-19 -0 -2.81936e-19)
(4.0978e-20 -2.10879e-19 -0 -8.1956e-20 -0 4.0978e-20)
(1.24697e-18 -2.74133e-19 -0 -7.17593e-19 -0 -5.29382e-19)
(5.84957e-19 4.36592e-19 -0 -2.81736e-19 -0 -3.03221e-19)
(-5.64724e-20 2.24996e-19 -0 1.12945e-19 -0 -5.64724e-20)
(5.76948e-19 -1.73293e-19 -0 -2.65718e-19 -0 -3.1123e-19)
(-1.55806e-20 -1.3708e-19 -0 3.11611e-20 -0 -1.55806e-20)
(-5.64068e-20 -5.37827e-19 -0 1.12814e-19 -0 -5.64068e-20)
(6.08272e-19 -4.7552e-19 -0 -3.28365e-19 -0 -2.79907e-19)
(6.60445e-19 1.01192e-19 -0 -4.32711e-19 -0 -2.27734e-19)
(3.44888e-20 -3.36617e-19 -0 -6.89777e-20 -0 3.44888e-20)
(1.24636e-18 3.7074e-20 -0 -7.16359e-19 -0 -5.29999e-19)
(4.47113e-20 5.78204e-19 -0 -8.94226e-20 -0 4.47113e-20)
(-2.09488e-20 3.05342e-19 -0 4.18976e-20 -0 -2.09488e-20)
(-8.11338e-20 1.81461e-19 -0 1.62268e-19 -0 -8.11338e-20)
(3.49231e-16 -7.83571e-17 -0 -6.92499e-16 -0 3.43268e-16)
(-8.1751e-17 1.10939e-16 -0 1.49407e-16 -0 -6.76564e-17)
(2.06954e-17 -2.99562e-17 -0 -3.65119e-17 -0 1.58165e-17)
(-2.4066e-18 3.36691e-18 -0 5.8974e-18 -0 -3.4908e-18)
(1.72037e-18 -2.99923e-18 -0 -2.89864e-18 -0 1.17827e-18)
(1.31595e-19 -1.3464e-18 -0 -2.63191e-19 -0 1.31595e-19)
(2.1241e-19 -2.20322e-18 -0 -4.24819e-19 -0 2.1241e-19)
(4.47063e-19 -1.27938e-18 -0 -3.52025e-19 -0 -9.50381e-20)
(7.1389e-20 -1.33713e-18 -0 -1.42778e-19 -0 7.1389e-20)
(9.86346e-20 -8.91943e-19 -0 -1.97269e-19 -0 9.86346e-20)
(8.14292e-20 -1.32592e-18 -0 -1.62858e-19 -0 8.14292e-20)
(4.43098e-19 -3.94777e-19 -0 -3.44094e-19 -0 -9.90034e-20)
(-4.1147e-19 -5.39891e-19 -0 2.80839e-19 -0 1.30631e-19)
(6.9857e-19 -1.51409e-18 -0 -8.55038e-19 -0 1.56468e-19)
(7.9619e-19 -2.53847e-20 -0 -1.05028e-18 -0 2.54088e-19)
(1.12766e-18 1.00972e-18 -0 -1.17112e-18 -0 4.34607e-20)
(4.72084e-19 2.01518e-18 -0 -4.02067e-19 -0 -7.0017e-20)
(-1.31621e-18 1.00344e-18 -0 1.00611e-18 -0 3.10095e-19)
(-5.58089e-19 -9.81557e-19 -0 5.74077e-19 -0 -1.59878e-20)
(3.78404e-19 -6.73818e-20 -0 -2.14707e-19 -0 -1.63697e-19)
)
;
    }
    frontAndBack
    {
        type            empty;
    }
}


// ************************************************************************* //
