/*--------------------------------*- C++ -*----------------------------------*\
| =========                 |                                                 |
| \\      /  F ield         | OpenFOAM: The Open Source CFD Toolbox           |
|  \\    /   O peration     | Version:  2312                                  |
|   \\  /    A nd           | Website:  www.openfoam.com                      |
|    \\/     M anipulation  |                                                 |
\*---------------------------------------------------------------------------*/
FoamFile
{
    version     2.0;
    format      ascii;
    arch        "LSB;label=32;scalar=64";
    class       volScalarField;
    location    "9";
    object      turbulenceProperties:I;
}
// * * * * * * * * * * * * * * * * * * * * * * * * * * * * * * * * * * * * * //

dimensions      [0 0 0 0 0 0 0];

internalField   nonuniform List<scalar> 
400
(
0.00142906
0.00142906
0.00142906
0.00142906
0.00142906
0.00142906
0.00142906
0.00142906
0.00142906
0.00142906
0.00142906
0.00142906
0.00142906
0.00142906
0.00142906
0.00142906
0.00142906
0.00142906
0.00142906
0.00142906
0.00143981
0.00143981
0.0014398
0.00143979
0.00143978
0.00143977
0.00143976
0.00143976
0.00143975
0.00143974
0.00143974
0.00143973
0.00143973
0.00143973
0.00143972
0.00143972
0.00143972
0.00143972
0.00143972
0.00143972
0.00145691
0.00145691
0.0014569
0.00145689
0.00145688
0.00145687
0.00145686
0.00145685
0.00145685
0.00145684
0.00145683
0.00145683
0.00145682
0.00145682
0.00145682
0.00145682
0.00145681
0.00145681
0.00145681
0.00145681
0.00147508
0.00147508
0.00147506
0.00147505
0.00147504
0.00147503
0.00147502
0.00147502
0.00147501
0.001475
0.001475
0.00147499
0.00147499
0.00147499
0.00147498
0.00147498
0.00147498
0.00147497
0.00147497
0.00147497
0.0014906
0.00149061
0.00149058
0.00149058
0.00149056
0.00149056
0.00149055
0.00149054
0.00149053
0.00149053
0.00149052
0.00149052
0.00149051
0.00149051
0.0014905
0.0014905
0.0014905
0.0014905
0.0014905
0.00149049
0.00150214
0.00150214
0.00150212
0.00150211
0.0015021
0.00150209
0.00150208
0.00150207
0.00150206
0.00150206
0.00150205
0.00150205
0.00150204
0.00150204
0.00150203
0.00150203
0.00150203
0.00150203
0.00150203
0.00150203
0.00150997
0.00150997
0.00150995
0.00150994
0.00150993
0.00150992
0.00150991
0.0015099
0.00150989
0.00150989
0.00150988
0.00150987
0.00150987
0.00150987
0.00150986
0.00150986
0.00150985
0.00150985
0.00150985
0.00150985
0.00151504
0.00151504
0.00151502
0.00151501
0.001515
0.00151499
0.00151498
0.00151497
0.00151496
0.00151495
0.00151495
0.00151494
0.00151494
0.00151493
0.00151493
0.00151493
0.00151492
0.00151492
0.00151492
0.00151492
0.00151833
0.00151833
0.00151831
0.0015183
0.00151829
0.00151828
0.00151827
0.00151826
0.00151825
0.00151825
0.00151824
0.00151824
0.00151823
0.00151823
0.00151822
0.00151822
0.00151821
0.00151821
0.00151821
0.00151821
0.0015206
0.0015206
0.00152058
0.00152057
0.00152056
0.00152055
0.00152054
0.00152053
0.00152052
0.00152052
0.00152051
0.00152051
0.0015205
0.0015205
0.00152049
0.00152049
0.00152049
0.00152049
0.00152048
0.00152048
0.00152236
0.00152236
0.00152234
0.00152233
0.00152232
0.00152231
0.0015223
0.00152229
0.00152228
0.00152227
0.00152227
0.00152226
0.00152226
0.00152225
0.00152225
0.00152225
0.00152224
0.00152224
0.00152224
0.00152224
0.00152391
0.00152391
0.00152389
0.00152388
0.00152387
0.00152386
0.00152385
0.00152384
0.00152383
0.00152383
0.00152382
0.00152382
0.00152381
0.00152381
0.0015238
0.0015238
0.0015238
0.0015238
0.00152379
0.00152379
0.00152544
0.00152544
0.00152542
0.00152541
0.0015254
0.00152539
0.00152538
0.00152537
0.00152536
0.00152536
0.00152535
0.00152535
0.00152533
0.00152534
0.00152533
0.00152533
0.00152532
0.00152532
0.00152532
0.00152532
0.00152704
0.00152704
0.00152702
0.00152701
0.001527
0.00152699
0.00152698
0.00152697
0.00152696
0.00152695
0.00152695
0.00152694
0.00152694
0.00152693
0.00152693
0.00152693
0.00152692
0.00152692
0.00152692
0.00152692
0.00152875
0.00152875
0.00152873
0.00152872
0.00152871
0.0015287
0.00152869
0.00152868
0.00152867
0.00152866
0.00152866
0.00152865
0.00152865
0.00152864
0.00152864
0.00152864
0.00152863
0.00152863
0.00152863
0.00152863
0.00153055
0.00153055
0.00153053
0.00153052
0.00153051
0.0015305
0.00153049
0.00153048
0.00153047
0.00153047
0.00153046
0.00153045
0.00153045
0.00153044
0.00153044
0.00153044
0.00153043
0.00153043
0.00153043
0.00153043
0.00153235
0.00153236
0.00153233
0.00153233
0.00153231
0.0015323
0.00153229
0.00153228
0.00153228
0.00153227
0.00153226
0.00153226
0.00153225
0.00153225
0.00153224
0.00153224
0.00153224
0.00153224
0.00153224
0.00153223
0.001534
0.001534
0.00153398
0.00153397
0.00153396
0.00153395
0.00153394
0.00153393
0.00153392
0.00153392
0.0015339
0.0015339
0.00153389
0.00153389
0.00153389
0.00153389
0.00153388
0.00153388
0.00153388
0.00153388
0.00153527
0.00153527
0.00153525
0.00153525
0.00153523
0.00153522
0.00153521
0.00153521
0.0015352
0.00153519
0.00153518
0.00153518
0.00153517
0.00153517
0.00153516
0.00153516
0.00153516
0.00153516
0.00153516
0.00153516
0.00153586
0.00153586
0.00153586
0.00153586
0.00153586
0.00153586
0.00153586
0.00153586
0.00153586
0.00153586
0.00153586
0.00153586
0.00153586
0.00153586
0.00153586
0.00153586
0.00153586
0.00153586
0.00153586
0.00153586
)
;

boundaryField
{
    movingWall
    {
        type            calculated;
        value           nonuniform List<scalar> 
20
(
0.00153586
0.00153586
0.00153586
0.00153586
0.00153586
0.00153586
0.00153586
0.00153586
0.00153586
0.00153586
0.00153586
0.00153586
0.00153586
0.00153586
0.00153586
0.00153586
0.00153586
0.00153586
0.00153586
0.00153586
)
;
    }
    fixedWalls
    {
        type            calculated;
        value           nonuniform List<scalar> 
60
(
0.00142906
0.00143981
0.00145691
0.00147508
0.0014906
0.00150214
0.00150997
0.00151504
0.00151833
0.0015206
0.00152236
0.00152391
0.00152544
0.00152704
0.00152875
0.00153055
0.00153235
0.001534
0.00153527
0.00153586
0.00142906
0.00143972
0.00145681
0.00147497
0.00149049
0.00150203
0.00150985
0.00151492
0.00151821
0.00152048
0.00152224
0.00152379
0.00152532
0.00152692
0.00152863
0.00153043
0.00153223
0.00153388
0.00153516
0.00153586
0.00142906
0.00142906
0.00142906
0.00142906
0.00142906
0.00142906
0.00142906
0.00142906
0.00142906
0.00142906
0.00142906
0.00142906
0.00142906
0.00142906
0.00142906
0.00142906
0.00142906
0.00142906
0.00142906
0.00142906
)
;
    }
    frontAndBack
    {
        type            empty;
    }
}


// ************************************************************************* //
