/*--------------------------------*- C++ -*----------------------------------*\
| =========                 |                                                 |
| \\      /  F ield         | OpenFOAM: The Open Source CFD Toolbox           |
|  \\    /   O peration     | Version:  2312                                  |
|   \\  /    A nd           | Website:  www.openfoam.com                      |
|    \\/     M anipulation  |                                                 |
\*---------------------------------------------------------------------------*/
FoamFile
{
    version     2.0;
    format      ascii;
    arch        "LSB;label=32;scalar=64";
    class       volScalarField;
    location    "9";
    object      turbulenceProperties:nuTilda;
}
// * * * * * * * * * * * * * * * * * * * * * * * * * * * * * * * * * * * * * //

dimensions      [0 2 -1 0 0 0 0];

internalField   nonuniform List<scalar> 
400
(
9.80595e-07
9.80595e-07
9.80594e-07
9.80594e-07
9.80594e-07
9.80594e-07
9.80594e-07
9.80594e-07
9.80594e-07
9.80594e-07
9.80594e-07
9.80594e-07
9.80594e-07
9.80594e-07
9.80594e-07
9.80594e-07
9.80594e-07
9.80594e-07
9.80594e-07
9.80594e-07
9.87937e-07
9.98411e-07
9.97453e-07
9.9707e-07
9.96294e-07
9.95895e-07
9.95126e-07
9.94719e-07
9.93961e-07
9.93543e-07
9.92791e-07
9.92366e-07
9.91619e-07
9.91188e-07
9.90445e-07
9.90008e-07
9.89269e-07
9.88828e-07
9.88458e-07
9.87869e-07
9.99619e-07
1.01053e-06
1.00952e-06
1.00911e-06
1.00829e-06
1.00787e-06
1.00707e-06
1.00664e-06
1.00584e-06
1.00541e-06
1.00462e-06
1.00419e-06
1.00341e-06
1.00297e-06
1.00219e-06
1.00175e-06
1.00098e-06
1.00054e-06
1.00015e-06
9.99549e-07
1.01204e-06
1.02322e-06
1.02219e-06
1.02177e-06
1.02093e-06
1.0205e-06
1.01967e-06
1.01924e-06
1.01842e-06
1.01798e-06
1.01717e-06
1.01672e-06
1.01592e-06
1.01547e-06
1.01467e-06
1.01422e-06
1.01343e-06
1.01298e-06
1.01258e-06
1.01197e-06
1.02266e-06
1.03409e-06
1.03302e-06
1.0326e-06
1.03174e-06
1.03131e-06
1.03046e-06
1.03002e-06
1.02917e-06
1.02873e-06
1.0279e-06
1.02745e-06
1.02662e-06
1.02617e-06
1.02535e-06
1.02489e-06
1.02408e-06
1.02362e-06
1.02322e-06
1.02259e-06
1.03056e-06
1.04217e-06
1.04109e-06
1.04066e-06
1.03978e-06
1.03934e-06
1.03848e-06
1.03803e-06
1.03717e-06
1.03672e-06
1.03588e-06
1.03542e-06
1.03458e-06
1.03412e-06
1.03329e-06
1.03282e-06
1.032e-06
1.03153e-06
1.03112e-06
1.03048e-06
1.03592e-06
1.04766e-06
1.04656e-06
1.04613e-06
1.04525e-06
1.0448e-06
1.04393e-06
1.04347e-06
1.04261e-06
1.04215e-06
1.0413e-06
1.04083e-06
1.03999e-06
1.03952e-06
1.03868e-06
1.03821e-06
1.03738e-06
1.0369e-06
1.03649e-06
1.03584e-06
1.0394e-06
1.05121e-06
1.05012e-06
1.04968e-06
1.04879e-06
1.04834e-06
1.04746e-06
1.047e-06
1.04613e-06
1.04567e-06
1.04481e-06
1.04434e-06
1.0435e-06
1.04302e-06
1.04218e-06
1.0417e-06
1.04087e-06
1.04038e-06
1.03997e-06
1.03932e-06
1.04165e-06
1.05353e-06
1.05242e-06
1.05198e-06
1.05109e-06
1.05063e-06
1.04975e-06
1.04929e-06
1.04842e-06
1.04796e-06
1.04709e-06
1.04662e-06
1.04576e-06
1.04529e-06
1.04444e-06
1.04397e-06
1.04313e-06
1.04265e-06
1.04223e-06
1.04157e-06
1.04321e-06
1.05512e-06
1.05401e-06
1.05357e-06
1.05267e-06
1.05222e-06
1.05134e-06
1.05087e-06
1.05e-06
1.04953e-06
1.04867e-06
1.04819e-06
1.04734e-06
1.04686e-06
1.04601e-06
1.04553e-06
1.04469e-06
1.04421e-06
1.04379e-06
1.04313e-06
1.04442e-06
1.05635e-06
1.05524e-06
1.0548e-06
1.0539e-06
1.05344e-06
1.05256e-06
1.05209e-06
1.05122e-06
1.05075e-06
1.04989e-06
1.04941e-06
1.04856e-06
1.04807e-06
1.04723e-06
1.04674e-06
1.0459e-06
1.04541e-06
1.04499e-06
1.04433e-06
1.04548e-06
1.05744e-06
1.05633e-06
1.05589e-06
1.05498e-06
1.05453e-06
1.05364e-06
1.05318e-06
1.0523e-06
1.05183e-06
1.05096e-06
1.05049e-06
1.04962e-06
1.04915e-06
1.04829e-06
1.04781e-06
1.04697e-06
1.04648e-06
1.04606e-06
1.0454e-06
1.04653e-06
1.05851e-06
1.0574e-06
1.05696e-06
1.05605e-06
1.05559e-06
1.0547e-06
1.05424e-06
1.05335e-06
1.05289e-06
1.05201e-06
1.05155e-06
1.05067e-06
1.0502e-06
1.04934e-06
1.04886e-06
1.04801e-06
1.04753e-06
1.04711e-06
1.04644e-06
1.04762e-06
1.05963e-06
1.05852e-06
1.05807e-06
1.05717e-06
1.05671e-06
1.05582e-06
1.05535e-06
1.05447e-06
1.05399e-06
1.05313e-06
1.05264e-06
1.05178e-06
1.0513e-06
1.05045e-06
1.04996e-06
1.04912e-06
1.04862e-06
1.0482e-06
1.04754e-06
1.04879e-06
1.06083e-06
1.05971e-06
1.05926e-06
1.05836e-06
1.05789e-06
1.05701e-06
1.05653e-06
1.05565e-06
1.05518e-06
1.05431e-06
1.05382e-06
1.05297e-06
1.05248e-06
1.05163e-06
1.05114e-06
1.05029e-06
1.0498e-06
1.04937e-06
1.04871e-06
1.05003e-06
1.06209e-06
1.06097e-06
1.06052e-06
1.05961e-06
1.05915e-06
1.05826e-06
1.05779e-06
1.0569e-06
1.05643e-06
1.05555e-06
1.05507e-06
1.05421e-06
1.05372e-06
1.05286e-06
1.05237e-06
1.05153e-06
1.05103e-06
1.05061e-06
1.04994e-06
1.05126e-06
1.06336e-06
1.06223e-06
1.06178e-06
1.06087e-06
1.06041e-06
1.05951e-06
1.05904e-06
1.05816e-06
1.05767e-06
1.0568e-06
1.05631e-06
1.05545e-06
1.05496e-06
1.05411e-06
1.05361e-06
1.05276e-06
1.05227e-06
1.05184e-06
1.05118e-06
1.05238e-06
1.0645e-06
1.06337e-06
1.06293e-06
1.06201e-06
1.06155e-06
1.06065e-06
1.06018e-06
1.05929e-06
1.05882e-06
1.05793e-06
1.05746e-06
1.05658e-06
1.0561e-06
1.05523e-06
1.05475e-06
1.05389e-06
1.0534e-06
1.05297e-06
1.0523e-06
1.05325e-06
1.06516e-06
1.06407e-06
1.06364e-06
1.06275e-06
1.0623e-06
1.06143e-06
1.06096e-06
1.0601e-06
1.05963e-06
1.05877e-06
1.05829e-06
1.05744e-06
1.05695e-06
1.0561e-06
1.0556e-06
1.05477e-06
1.05426e-06
1.05384e-06
1.05317e-06
1.05365e-06
1.05365e-06
1.05365e-06
1.05365e-06
1.05365e-06
1.05365e-06
1.05365e-06
1.05365e-06
1.05365e-06
1.05365e-06
1.05365e-06
1.05365e-06
1.05365e-06
1.05365e-06
1.05365e-06
1.05365e-06
1.05365e-06
1.05365e-06
1.05365e-06
1.05365e-06
)
;

boundaryField
{
    movingWall
    {
        type            calculated;
        value           nonuniform List<scalar> 
20
(
1.05365e-06
1.05365e-06
1.05365e-06
1.05365e-06
1.05365e-06
1.05365e-06
1.05365e-06
1.05365e-06
1.05365e-06
1.05365e-06
1.05365e-06
1.05365e-06
1.05365e-06
1.05365e-06
1.05365e-06
1.05365e-06
1.05365e-06
1.05365e-06
1.05365e-06
1.05365e-06
)
;
    }
    fixedWalls
    {
        type            calculated;
        value           nonuniform List<scalar> 
60
(
9.80595e-07
9.87937e-07
9.99619e-07
1.01204e-06
1.02266e-06
1.03056e-06
1.03592e-06
1.0394e-06
1.04165e-06
1.04321e-06
1.04442e-06
1.04548e-06
1.04653e-06
1.04762e-06
1.04879e-06
1.05003e-06
1.05126e-06
1.05238e-06
1.05325e-06
1.05365e-06
9.80594e-07
9.87869e-07
9.99549e-07
1.01197e-06
1.02259e-06
1.03048e-06
1.03584e-06
1.03932e-06
1.04157e-06
1.04313e-06
1.04433e-06
1.0454e-06
1.04644e-06
1.04754e-06
1.04871e-06
1.04994e-06
1.05118e-06
1.0523e-06
1.05317e-06
1.05365e-06
9.80595e-07
9.80595e-07
9.80594e-07
9.80594e-07
9.80594e-07
9.80594e-07
9.80594e-07
9.80594e-07
9.80594e-07
9.80594e-07
9.80594e-07
9.80594e-07
9.80594e-07
9.80594e-07
9.80594e-07
9.80594e-07
9.80594e-07
9.80594e-07
9.80594e-07
9.80594e-07
)
;
    }
    frontAndBack
    {
        type            empty;
    }
}


// ************************************************************************* //
