/*--------------------------------*- C++ -*----------------------------------*\
| =========                 |                                                 |
| \\      /  F ield         | OpenFOAM: The Open Source CFD Toolbox           |
|  \\    /   O peration     | Version:  2312                                  |
|   \\  /    A nd           | Website:  www.openfoam.com                      |
|    \\/     M anipulation  |                                                 |
\*---------------------------------------------------------------------------*/
FoamFile
{
    version     2.0;
    format      ascii;
    arch        "LSB;label=32;scalar=64";
    class       volSymmTensorField;
    location    "9";
    object      turbulenceProperties:R;
}
// * * * * * * * * * * * * * * * * * * * * * * * * * * * * * * * * * * * * * //

dimensions      [0 2 -2 0 0 0 0];

internalField   nonuniform List<symmTensor> 
400
(
(2.04223e-06 -1.06997e-17 -0 2.04223e-06 -0 2.04223e-06)
(2.04223e-06 1.23468e-17 -0 2.04223e-06 -0 2.04223e-06)
(2.04222e-06 -2.49241e-18 -0 2.04222e-06 -0 2.04222e-06)
(2.04222e-06 6.18019e-19 -0 2.04222e-06 -0 2.04222e-06)
(2.04222e-06 -9.33352e-20 -0 2.04222e-06 -0 2.04222e-06)
(2.04222e-06 4.21616e-20 -0 2.04222e-06 -0 2.04222e-06)
(2.04222e-06 -2.489e-20 -0 2.04222e-06 -0 2.04222e-06)
(2.04222e-06 5.18565e-21 -0 2.04222e-06 -0 2.04222e-06)
(2.04222e-06 -2.70561e-20 -0 2.04222e-06 -0 2.04222e-06)
(2.04222e-06 -3.69201e-22 -0 2.04222e-06 -0 2.04222e-06)
(2.04222e-06 6.22836e-22 -0 2.04222e-06 -0 2.04222e-06)
(2.04222e-06 5.79936e-20 -0 2.04222e-06 -0 2.04222e-06)
(2.04222e-06 4.37638e-20 -0 2.04222e-06 -0 2.04222e-06)
(2.04222e-06 -1.78293e-20 -0 2.04222e-06 -0 2.04222e-06)
(2.04222e-06 -2.48921e-21 -0 2.04222e-06 -0 2.04222e-06)
(2.04222e-06 1.19181e-20 -0 2.04222e-06 -0 2.04222e-06)
(2.04222e-06 7.65772e-20 -0 2.04222e-06 -0 2.04222e-06)
(2.04222e-06 1.13027e-20 -0 2.04222e-06 -0 2.04222e-06)
(2.04222e-06 -9.15665e-21 -0 2.04222e-06 -0 2.04222e-06)
(2.04222e-06 -6.60742e-21 -0 2.04222e-06 -0 2.04222e-06)
(2.07306e-06 -2.26965e-18 -0 2.07306e-06 -0 2.07306e-06)
(2.07307e-06 2.34858e-18 -0 2.07307e-06 -0 2.07307e-06)
(2.07301e-06 -2.36528e-19 -0 2.07301e-06 -0 2.07301e-06)
(2.073e-06 1.3325e-19 -0 2.073e-06 -0 2.073e-06)
(2.07296e-06 2.93809e-20 -0 2.07296e-06 -0 2.07296e-06)
(2.07294e-06 7.44773e-20 -0 2.07294e-06 -0 2.07294e-06)
(2.07292e-06 1.78347e-20 -0 2.07292e-06 -0 2.07292e-06)
(2.0729e-06 5.54832e-20 -0 2.0729e-06 -0 2.0729e-06)
(2.07288e-06 6.81053e-20 -0 2.07288e-06 -0 2.07288e-06)
(2.07286e-06 8.78676e-20 -0 2.07286e-06 -0 2.07286e-06)
(2.07285e-06 8.81358e-20 -0 2.07285e-06 -0 2.07285e-06)
(2.07283e-06 2.83139e-20 -0 2.07283e-06 -0 2.07283e-06)
(2.07282e-06 1.25111e-20 -0 2.07282e-06 -0 2.07282e-06)
(2.07281e-06 4.32054e-20 -0 2.07281e-06 -0 2.07281e-06)
(2.0728e-06 4.63865e-21 -0 2.0728e-06 -0 2.0728e-06)
(2.0728e-06 -1.79195e-20 -0 2.0728e-06 -0 2.0728e-06)
(2.07279e-06 -8.46134e-20 -0 2.07279e-06 -0 2.07279e-06)
(2.07279e-06 -3.37722e-20 -0 2.07279e-06 -0 2.07279e-06)
(2.07278e-06 -5.22261e-21 -0 2.07278e-06 -0 2.07278e-06)
(2.07278e-06 -2.30906e-20 -0 2.07278e-06 -0 2.07278e-06)
(2.1226e-06 1.1301e-17 -0 2.1226e-06 -0 2.1226e-06)
(2.12259e-06 -1.12444e-17 -0 2.12259e-06 -0 2.12259e-06)
(2.12254e-06 1.91265e-18 -0 2.12254e-06 -0 2.12254e-06)
(2.12252e-06 -6.29641e-19 -0 2.12252e-06 -0 2.12252e-06)
(2.12249e-06 -6.33082e-20 -0 2.12249e-06 -0 2.12249e-06)
(2.12247e-06 -1.50929e-19 -0 2.12247e-06 -0 2.12247e-06)
(2.12244e-06 -6.80063e-20 -0 2.12244e-06 -0 2.12244e-06)
(2.12242e-06 -1.17606e-19 -0 2.12242e-06 -0 2.12242e-06)
(2.1224e-06 -1.07805e-19 -0 2.1224e-06 -0 2.1224e-06)
(2.12238e-06 -7.58495e-20 -0 2.12238e-06 -0 2.12238e-06)
(2.12236e-06 -7.18437e-20 -0 2.12236e-06 -0 2.12236e-06)
(2.12235e-06 -7.87955e-20 -0 2.12235e-06 -0 2.12235e-06)
(2.12234e-06 -2.13335e-20 -0 2.12234e-06 -0 2.12234e-06)
(2.12233e-06 5.82531e-21 -0 2.12233e-06 -0 2.12233e-06)
(2.12232e-06 -8.78251e-21 -0 2.12232e-06 -0 2.12232e-06)
(2.12231e-06 6.78692e-20 -0 2.12231e-06 -0 2.12231e-06)
(2.1223e-06 5.01738e-20 -0 2.1223e-06 -0 2.1223e-06)
(2.1223e-06 3.73798e-20 -0 2.1223e-06 -0 2.1223e-06)
(2.1223e-06 8.5388e-21 -0 2.1223e-06 -0 2.1223e-06)
(2.1223e-06 -4.55593e-20 -0 2.1223e-06 -0 2.1223e-06)
(2.17586e-06 -5.47187e-18 -0 2.17586e-06 -0 2.17586e-06)
(2.17586e-06 4.93527e-18 -0 2.17586e-06 -0 2.17586e-06)
(2.17581e-06 -1.05031e-18 -0 2.17581e-06 -0 2.17581e-06)
(2.17578e-06 1.65368e-19 -0 2.17578e-06 -0 2.17578e-06)
(2.17575e-06 -4.70849e-20 -0 2.17575e-06 -0 2.17575e-06)
(2.17573e-06 -1.41677e-20 -0 2.17573e-06 -0 2.17573e-06)
(2.1757e-06 -8.44267e-21 -0 2.1757e-06 -0 2.1757e-06)
(2.17568e-06 -7.24956e-20 -0 2.17568e-06 -0 2.17568e-06)
(2.17565e-06 -5.28645e-20 -0 2.17565e-06 -0 2.17565e-06)
(2.17564e-06 -5.3908e-20 -0 2.17564e-06 -0 2.17564e-06)
(2.17562e-06 -4.81993e-20 -0 2.17562e-06 -0 2.17562e-06)
(2.17561e-06 -2.57516e-20 -0 2.17561e-06 -0 2.17561e-06)
(2.17559e-06 -6.52865e-20 -0 2.17559e-06 -0 2.17559e-06)
(2.17558e-06 -3.93194e-20 -0 2.17558e-06 -0 2.17558e-06)
(2.17557e-06 -4.67822e-21 -0 2.17557e-06 -0 2.17557e-06)
(2.17556e-06 -6.91184e-21 -0 2.17556e-06 -0 2.17556e-06)
(2.17555e-06 -6.84969e-21 -0 2.17555e-06 -0 2.17555e-06)
(2.17555e-06 7.49448e-20 -0 2.17555e-06 -0 2.17555e-06)
(2.17555e-06 2.36365e-21 -0 2.17555e-06 -0 2.17555e-06)
(2.17555e-06 2.2353e-20 -0 2.17555e-06 -0 2.17555e-06)
(2.2219e-06 -3.04368e-18 -0 2.2219e-06 -0 2.2219e-06)
(2.22191e-06 3.09702e-18 -0 2.22191e-06 -0 2.22191e-06)
(2.22184e-06 -6.38727e-19 -0 2.22184e-06 -0 2.22184e-06)
(2.22183e-06 1.66787e-19 -0 2.22183e-06 -0 2.22183e-06)
(2.22178e-06 -2.00759e-20 -0 2.22178e-06 -0 2.22178e-06)
(2.22177e-06 3.53239e-20 -0 2.22177e-06 -0 2.22177e-06)
(2.22173e-06 2.64325e-20 -0 2.22173e-06 -0 2.22173e-06)
(2.22172e-06 5.58437e-20 -0 2.22172e-06 -0 2.22172e-06)
(2.22168e-06 5.06861e-20 -0 2.22168e-06 -0 2.22168e-06)
(2.22167e-06 6.05866e-20 -0 2.22167e-06 -0 2.22167e-06)
(2.22164e-06 2.09391e-20 -0 2.22164e-06 -0 2.22164e-06)
(2.22164e-06 3.25316e-20 -0 2.22164e-06 -0 2.22164e-06)
(2.22161e-06 -2.85313e-20 -0 2.22161e-06 -0 2.22161e-06)
(2.22161e-06 1.3488e-20 -0 2.22161e-06 -0 2.22161e-06)
(2.22159e-06 -3.41785e-20 -0 2.22159e-06 -0 2.22159e-06)
(2.22159e-06 -4.16052e-20 -0 2.22159e-06 -0 2.22159e-06)
(2.22158e-06 1.87813e-22 -0 2.22158e-06 -0 2.22158e-06)
(2.22158e-06 -6.17046e-20 -0 2.22158e-06 -0 2.22158e-06)
(2.22158e-06 -4.31531e-21 -0 2.22158e-06 -0 2.22158e-06)
(2.22157e-06 -4.43042e-20 -0 2.22157e-06 -0 2.22157e-06)
(2.25642e-06 8.51012e-18 -0 2.25642e-06 -0 2.25642e-06)
(2.25642e-06 -9.34845e-18 -0 2.25642e-06 -0 2.25642e-06)
(2.25636e-06 1.91253e-18 -0 2.25636e-06 -0 2.25636e-06)
(2.25634e-06 -4.4869e-19 -0 2.25634e-06 -0 2.25634e-06)
(2.2563e-06 9.16175e-20 -0 2.2563e-06 -0 2.2563e-06)
(2.25628e-06 -5.27154e-20 -0 2.25628e-06 -0 2.25628e-06)
(2.25624e-06 3.73011e-20 -0 2.25624e-06 -0 2.25624e-06)
(2.25623e-06 1.97929e-20 -0 2.25623e-06 -0 2.25623e-06)
(2.25619e-06 -1.2394e-20 -0 2.25619e-06 -0 2.25619e-06)
(2.25619e-06 -4.82942e-21 -0 2.25619e-06 -0 2.25619e-06)
(2.25615e-06 -1.22572e-21 -0 2.25615e-06 -0 2.25615e-06)
(2.25615e-06 6.48692e-21 -0 2.25615e-06 -0 2.25615e-06)
(2.25612e-06 5.50691e-20 -0 2.25612e-06 -0 2.25612e-06)
(2.25612e-06 -1.07662e-20 -0 2.25612e-06 -0 2.25612e-06)
(2.2561e-06 6.42856e-20 -0 2.2561e-06 -0 2.2561e-06)
(2.2561e-06 1.7948e-20 -0 2.2561e-06 -0 2.2561e-06)
(2.25609e-06 6.48418e-20 -0 2.25609e-06 -0 2.25609e-06)
(2.25609e-06 -2.03375e-20 -0 2.25609e-06 -0 2.25609e-06)
(2.25608e-06 -8.08096e-22 -0 2.25608e-06 -0 2.25608e-06)
(2.25608e-06 -1.80239e-20 -0 2.25608e-06 -0 2.25608e-06)
(2.28e-06 -9.68153e-18 -0 2.28e-06 -0 2.28e-06)
(2.28e-06 1.12206e-17 -0 2.28e-06 -0 2.28e-06)
(2.27993e-06 -2.1063e-18 -0 2.27993e-06 -0 2.27993e-06)
(2.27992e-06 5.86157e-19 -0 2.27992e-06 -0 2.27992e-06)
(2.27988e-06 -1.81468e-20 -0 2.27988e-06 -0 2.27988e-06)
(2.27985e-06 1.24481e-19 -0 2.27985e-06 -0 2.27985e-06)
(2.27982e-06 -9.97662e-21 -0 2.27982e-06 -0 2.27982e-06)
(2.2798e-06 4.66741e-22 -0 2.2798e-06 -0 2.2798e-06)
(2.27977e-06 3.4852e-20 -0 2.27977e-06 -0 2.27977e-06)
(2.27976e-06 -4.09737e-21 -0 2.27976e-06 -0 2.27976e-06)
(2.27973e-06 1.50306e-20 -0 2.27973e-06 -0 2.27973e-06)
(2.27972e-06 -2.30641e-20 -0 2.27972e-06 -0 2.27972e-06)
(2.2797e-06 -9.71179e-21 -0 2.2797e-06 -0 2.2797e-06)
(2.2797e-06 7.64852e-21 -0 2.2797e-06 -0 2.2797e-06)
(2.27967e-06 3.48131e-21 -0 2.27967e-06 -0 2.27967e-06)
(2.27967e-06 8.01111e-21 -0 2.27967e-06 -0 2.27967e-06)
(2.27966e-06 -1.03223e-19 -0 2.27966e-06 -0 2.27966e-06)
(2.27966e-06 1.27139e-21 -0 2.27966e-06 -0 2.27966e-06)
(2.27966e-06 -6.09349e-21 -0 2.27966e-06 -0 2.27966e-06)
(2.27966e-06 -1.32293e-20 -0 2.27966e-06 -0 2.27966e-06)
(2.29534e-06 3.07125e-18 -0 2.29534e-06 -0 2.29534e-06)
(2.29533e-06 -2.83709e-18 -0 2.29533e-06 -0 2.29533e-06)
(2.29528e-06 5.09092e-19 -0 2.29528e-06 -0 2.29528e-06)
(2.29525e-06 -7.94038e-20 -0 2.29525e-06 -0 2.29525e-06)
(2.29521e-06 1.74751e-20 -0 2.29521e-06 -0 2.29521e-06)
(2.29519e-06 8.23128e-20 -0 2.29519e-06 -0 2.29519e-06)
(2.29515e-06 7.41794e-20 -0 2.29515e-06 -0 2.29515e-06)
(2.29513e-06 7.00948e-20 -0 2.29513e-06 -0 2.29513e-06)
(2.2951e-06 5.71151e-20 -0 2.2951e-06 -0 2.2951e-06)
(2.29509e-06 5.94696e-20 -0 2.29509e-06 -0 2.29509e-06)
(2.29506e-06 2.54745e-20 -0 2.29506e-06 -0 2.29506e-06)
(2.29505e-06 -2.93462e-20 -0 2.29505e-06 -0 2.29505e-06)
(2.29503e-06 -1.52031e-20 -0 2.29503e-06 -0 2.29503e-06)
(2.29502e-06 -3.44578e-20 -0 2.29502e-06 -0 2.29502e-06)
(2.29501e-06 -5.28146e-20 -0 2.29501e-06 -0 2.29501e-06)
(2.295e-06 -5.04741e-21 -0 2.295e-06 -0 2.295e-06)
(2.29499e-06 7.15029e-21 -0 2.29499e-06 -0 2.29499e-06)
(2.29499e-06 2.61721e-22 -0 2.29499e-06 -0 2.29499e-06)
(2.29499e-06 -1.13594e-20 -0 2.29499e-06 -0 2.29499e-06)
(2.29499e-06 -3.27628e-20 -0 2.29499e-06 -0 2.29499e-06)
(2.30532e-06 7.72826e-18 -0 2.30532e-06 -0 2.30532e-06)
(2.30532e-06 -1.01262e-17 -0 2.30532e-06 -0 2.30532e-06)
(2.30526e-06 1.86605e-18 -0 2.30526e-06 -0 2.30526e-06)
(2.30524e-06 -5.85481e-19 -0 2.30524e-06 -0 2.30524e-06)
(2.30519e-06 4.04531e-20 -0 2.30519e-06 -0 2.30519e-06)
(2.30517e-06 -1.00312e-19 -0 2.30517e-06 -0 2.30517e-06)
(2.30514e-06 -2.46244e-20 -0 2.30514e-06 -0 2.30514e-06)
(2.30512e-06 -2.21943e-20 -0 2.30512e-06 -0 2.30512e-06)
(2.30508e-06 5.41513e-21 -0 2.30508e-06 -0 2.30508e-06)
(2.30507e-06 -8.96034e-21 -0 2.30507e-06 -0 2.30507e-06)
(2.30504e-06 3.59818e-20 -0 2.30504e-06 -0 2.30504e-06)
(2.30504e-06 8.71695e-20 -0 2.30504e-06 -0 2.30504e-06)
(2.30501e-06 4.06963e-20 -0 2.30501e-06 -0 2.30501e-06)
(2.30501e-06 6.58915e-20 -0 2.30501e-06 -0 2.30501e-06)
(2.30499e-06 5.26488e-20 -0 2.30499e-06 -0 2.30499e-06)
(2.30499e-06 6.30212e-20 -0 2.30499e-06 -0 2.30499e-06)
(2.30497e-06 4.61218e-20 -0 2.30497e-06 -0 2.30497e-06)
(2.30497e-06 -5.02529e-21 -0 2.30497e-06 -0 2.30497e-06)
(2.30497e-06 -1.41698e-21 -0 2.30497e-06 -0 2.30497e-06)
(2.30497e-06 3.63402e-20 -0 2.30497e-06 -0 2.30497e-06)
(2.31223e-06 -1.31189e-17 -0 2.31223e-06 -0 2.31223e-06)
(2.31223e-06 1.63839e-17 -0 2.31223e-06 -0 2.31223e-06)
(2.31216e-06 -3.20103e-18 -0 2.31216e-06 -0 2.31216e-06)
(2.31214e-06 7.70684e-19 -0 2.31214e-06 -0 2.31214e-06)
(2.3121e-06 -2.35943e-19 -0 2.3121e-06 -0 2.3121e-06)
(2.31208e-06 -6.96119e-20 -0 2.31208e-06 -0 2.31208e-06)
(2.31204e-06 -1.00232e-19 -0 2.31204e-06 -0 2.31204e-06)
(2.31202e-06 -1.08802e-19 -0 2.31202e-06 -0 2.31202e-06)
(2.31199e-06 -9.38899e-20 -0 2.31199e-06 -0 2.31199e-06)
(2.31197e-06 -8.59063e-20 -0 2.31197e-06 -0 2.31197e-06)
(2.31195e-06 -6.47992e-20 -0 2.31195e-06 -0 2.31195e-06)
(2.31194e-06 -9.20655e-20 -0 2.31194e-06 -0 2.31194e-06)
(2.31192e-06 -4.65516e-20 -0 2.31192e-06 -0 2.31192e-06)
(2.31191e-06 -2.25711e-20 -0 2.31191e-06 -0 2.31191e-06)
(2.31189e-06 3.65872e-21 -0 2.31189e-06 -0 2.31189e-06)
(2.31189e-06 -6.14247e-20 -0 2.31189e-06 -0 2.31189e-06)
(2.31188e-06 -2.42861e-20 -0 2.31188e-06 -0 2.31188e-06)
(2.31187e-06 1.30707e-20 -0 2.31187e-06 -0 2.31187e-06)
(2.31187e-06 -4.02761e-21 -0 2.31187e-06 -0 2.31187e-06)
(2.31187e-06 2.9104e-20 -0 2.31187e-06 -0 2.31187e-06)
(2.31758e-06 1.12568e-17 -0 2.31758e-06 -0 2.31758e-06)
(2.31758e-06 -1.3398e-17 -0 2.31758e-06 -0 2.31758e-06)
(2.31751e-06 2.88871e-18 -0 2.31751e-06 -0 2.31751e-06)
(2.31749e-06 -4.80854e-19 -0 2.31749e-06 -0 2.31749e-06)
(2.31745e-06 2.8267e-19 -0 2.31745e-06 -0 2.31745e-06)
(2.31742e-06 1.0119e-19 -0 2.31742e-06 -0 2.31742e-06)
(2.31739e-06 1.38617e-19 -0 2.31739e-06 -0 2.31739e-06)
(2.31737e-06 1.7006e-19 -0 2.31737e-06 -0 2.31737e-06)
(2.31734e-06 1.6186e-19 -0 2.31734e-06 -0 2.31734e-06)
(2.31732e-06 1.0364e-19 -0 2.31732e-06 -0 2.31732e-06)
(2.3173e-06 6.16734e-21 -0 2.3173e-06 -0 2.3173e-06)
(2.31728e-06 2.56705e-20 -0 2.31728e-06 -0 2.31728e-06)
(2.31727e-06 8.08772e-20 -0 2.31727e-06 -0 2.31727e-06)
(2.31726e-06 4.59199e-20 -0 2.31726e-06 -0 2.31726e-06)
(2.31724e-06 1.32224e-20 -0 2.31724e-06 -0 2.31724e-06)
(2.31723e-06 1.0254e-20 -0 2.31723e-06 -0 2.31723e-06)
(2.31723e-06 -1.59278e-20 -0 2.31723e-06 -0 2.31723e-06)
(2.31722e-06 -5.00837e-21 -0 2.31722e-06 -0 2.31722e-06)
(2.31722e-06 -2.74123e-20 -0 2.31722e-06 -0 2.31722e-06)
(2.31722e-06 -4.86542e-21 -0 2.31722e-06 -0 2.31722e-06)
(2.32231e-06 -2.23839e-18 -0 2.32231e-06 -0 2.32231e-06)
(2.32231e-06 4.4325e-18 -0 2.32231e-06 -0 2.32231e-06)
(2.32224e-06 -8.15115e-19 -0 2.32224e-06 -0 2.32224e-06)
(2.32222e-06 2.51747e-19 -0 2.32222e-06 -0 2.32222e-06)
(2.32218e-06 6.65529e-20 -0 2.32218e-06 -0 2.32218e-06)
(2.32216e-06 1.18762e-19 -0 2.32216e-06 -0 2.32216e-06)
(2.32212e-06 1.15065e-19 -0 2.32212e-06 -0 2.32212e-06)
(2.3221e-06 1.1864e-19 -0 2.3221e-06 -0 2.3221e-06)
(2.32207e-06 1.17432e-19 -0 2.32207e-06 -0 2.32207e-06)
(2.32206e-06 9.08024e-20 -0 2.32206e-06 -0 2.32206e-06)
(2.32203e-06 1.32602e-19 -0 2.32203e-06 -0 2.32203e-06)
(2.32202e-06 1.80553e-19 -0 2.32202e-06 -0 2.32202e-06)
(2.32199e-06 8.88628e-20 -0 2.32199e-06 -0 2.32199e-06)
(2.32199e-06 9.64777e-20 -0 2.32199e-06 -0 2.32199e-06)
(2.32197e-06 5.37402e-20 -0 2.32197e-06 -0 2.32197e-06)
(2.32197e-06 1.41057e-20 -0 2.32197e-06 -0 2.32197e-06)
(2.32196e-06 4.30613e-20 -0 2.32196e-06 -0 2.32196e-06)
(2.32195e-06 2.41189e-22 -0 2.32195e-06 -0 2.32195e-06)
(2.32195e-06 4.31471e-20 -0 2.32195e-06 -0 2.32195e-06)
(2.32195e-06 2.77094e-21 -0 2.32195e-06 -0 2.32195e-06)
(2.32697e-06 -5.55603e-18 -0 2.32697e-06 -0 2.32697e-06)
(2.32697e-06 4.88806e-18 -0 2.32697e-06 -0 2.32697e-06)
(2.3269e-06 -1.20888e-18 -0 2.3269e-06 -0 2.3269e-06)
(2.32688e-06 1.55788e-19 -0 2.32688e-06 -0 2.32688e-06)
(2.32684e-06 -1.92791e-19 -0 2.32684e-06 -0 2.32684e-06)
(2.32681e-06 -1.24077e-19 -0 2.32681e-06 -0 2.32681e-06)
(2.32678e-06 -2.05049e-19 -0 2.32678e-06 -0 2.32678e-06)
(2.32676e-06 -2.01932e-19 -0 2.32676e-06 -0 2.32676e-06)
(2.32672e-06 -2.20083e-19 -0 2.32672e-06 -0 2.32672e-06)
(2.32672e-06 -2.01051e-19 -0 2.32672e-06 -0 2.32672e-06)
(2.32668e-06 -1.68365e-19 -0 2.32668e-06 -0 2.32668e-06)
(2.32668e-06 -1.82263e-19 -0 2.32668e-06 -0 2.32668e-06)
(2.32665e-06 -1.86675e-19 -0 2.32665e-06 -0 2.32665e-06)
(2.32665e-06 -1.87227e-19 -0 2.32665e-06 -0 2.32665e-06)
(2.32662e-06 -8.98488e-20 -0 2.32662e-06 -0 2.32662e-06)
(2.32663e-06 -2.15023e-20 -0 2.32663e-06 -0 2.32663e-06)
(2.32661e-06 -1.84918e-21 -0 2.32661e-06 -0 2.32661e-06)
(2.32661e-06 5.95427e-20 -0 2.32661e-06 -0 2.32661e-06)
(2.32661e-06 1.99069e-21 -0 2.32661e-06 -0 2.32661e-06)
(2.32661e-06 -4.1128e-20 -0 2.32661e-06 -0 2.32661e-06)
(2.33185e-06 7.12457e-18 -0 2.33185e-06 -0 2.33185e-06)
(2.33185e-06 -9.55068e-18 -0 2.33185e-06 -0 2.33185e-06)
(2.33178e-06 1.80129e-18 -0 2.33178e-06 -0 2.33178e-06)
(2.33176e-06 -5.75387e-19 -0 2.33176e-06 -0 2.33176e-06)
(2.33172e-06 1.22411e-20 -0 2.33172e-06 -0 2.33172e-06)
(2.33169e-06 -1.2963e-19 -0 2.33169e-06 -0 2.33169e-06)
(2.33166e-06 -3.58164e-20 -0 2.33166e-06 -0 2.33166e-06)
(2.33164e-06 -2.38911e-20 -0 2.33164e-06 -0 2.33164e-06)
(2.33161e-06 -4.76414e-20 -0 2.33161e-06 -0 2.33161e-06)
(2.33159e-06 -8.80572e-21 -0 2.33159e-06 -0 2.33159e-06)
(2.33157e-06 -3.21157e-20 -0 2.33157e-06 -0 2.33157e-06)
(2.33155e-06 -4.42811e-20 -0 2.33155e-06 -0 2.33155e-06)
(2.33153e-06 7.97527e-21 -0 2.33153e-06 -0 2.33153e-06)
(2.33152e-06 -3.80545e-20 -0 2.33152e-06 -0 2.33152e-06)
(2.33151e-06 -2.79932e-20 -0 2.33151e-06 -0 2.33151e-06)
(2.3315e-06 -1.21401e-20 -0 2.3315e-06 -0 2.3315e-06)
(2.33149e-06 -6.94546e-21 -0 2.33149e-06 -0 2.33149e-06)
(2.33149e-06 -3.23804e-20 -0 2.33149e-06 -0 2.33149e-06)
(2.33149e-06 -3.39726e-21 -0 2.33149e-06 -0 2.33149e-06)
(2.33149e-06 -3.65326e-20 -0 2.33149e-06 -0 2.33149e-06)
(2.33708e-06 -8.51838e-18 -0 2.33708e-06 -0 2.33708e-06)
(2.33708e-06 1.08189e-17 -0 2.33708e-06 -0 2.33708e-06)
(2.33701e-06 -2.09385e-18 -0 2.33701e-06 -0 2.33701e-06)
(2.33698e-06 5.3944e-19 -0 2.33698e-06 -0 2.33698e-06)
(2.33695e-06 -6.57367e-20 -0 2.33695e-06 -0 2.33695e-06)
(2.33692e-06 5.16104e-20 -0 2.33692e-06 -0 2.33692e-06)
(2.33689e-06 3.8877e-20 -0 2.33689e-06 -0 2.33689e-06)
(2.33686e-06 2.1307e-20 -0 2.33686e-06 -0 2.33686e-06)
(2.33683e-06 5.68899e-20 -0 2.33683e-06 -0 2.33683e-06)
(2.33681e-06 1.22727e-19 -0 2.33681e-06 -0 2.33681e-06)
(2.33679e-06 1.41572e-19 -0 2.33679e-06 -0 2.33679e-06)
(2.33678e-06 1.43668e-19 -0 2.33678e-06 -0 2.33678e-06)
(2.33676e-06 1.37243e-19 -0 2.33676e-06 -0 2.33676e-06)
(2.33675e-06 1.42435e-19 -0 2.33675e-06 -0 2.33675e-06)
(2.33674e-06 8.87776e-20 -0 2.33674e-06 -0 2.33674e-06)
(2.33673e-06 5.30476e-20 -0 2.33673e-06 -0 2.33673e-06)
(2.33672e-06 2.50537e-20 -0 2.33672e-06 -0 2.33672e-06)
(2.33672e-06 1.00373e-20 -0 2.33672e-06 -0 2.33672e-06)
(2.33671e-06 4.23902e-21 -0 2.33671e-06 -0 2.33671e-06)
(2.33671e-06 1.33037e-20 -0 2.33671e-06 -0 2.33671e-06)
(2.34259e-06 5.46318e-18 -0 2.34259e-06 -0 2.34259e-06)
(2.34259e-06 -6.55113e-18 -0 2.34259e-06 -0 2.34259e-06)
(2.34252e-06 1.27678e-18 -0 2.34252e-06 -0 2.34252e-06)
(2.3425e-06 -3.10042e-19 -0 2.3425e-06 -0 2.3425e-06)
(2.34245e-06 1.00875e-19 -0 2.34245e-06 -0 2.34245e-06)
(2.34243e-06 -1.67352e-20 -0 2.34243e-06 -0 2.34243e-06)
(2.34239e-06 7.28989e-20 -0 2.34239e-06 -0 2.34239e-06)
(2.34237e-06 9.33411e-21 -0 2.34237e-06 -0 2.34237e-06)
(2.34234e-06 4.90692e-20 -0 2.34234e-06 -0 2.34234e-06)
(2.34232e-06 -2.0457e-20 -0 2.34232e-06 -0 2.34232e-06)
(2.3423e-06 -6.48819e-20 -0 2.3423e-06 -0 2.3423e-06)
(2.34229e-06 -1.9828e-20 -0 2.34229e-06 -0 2.34229e-06)
(2.34227e-06 -8.66526e-20 -0 2.34227e-06 -0 2.34227e-06)
(2.34226e-06 -6.80344e-20 -0 2.34226e-06 -0 2.34226e-06)
(2.34224e-06 -9.97568e-21 -0 2.34224e-06 -0 2.34224e-06)
(2.34224e-06 -1.2392e-20 -0 2.34224e-06 -0 2.34224e-06)
(2.34223e-06 -2.45731e-20 -0 2.34223e-06 -0 2.34223e-06)
(2.34222e-06 -1.21745e-20 -0 2.34222e-06 -0 2.34222e-06)
(2.34222e-06 -3.22638e-20 -0 2.34222e-06 -0 2.34222e-06)
(2.34222e-06 -3.45548e-20 -0 2.34222e-06 -0 2.34222e-06)
(2.34811e-06 4.18766e-18 -0 2.34811e-06 -0 2.34811e-06)
(2.34811e-06 -3.18963e-18 -0 2.34811e-06 -0 2.34811e-06)
(2.34804e-06 7.50535e-19 -0 2.34804e-06 -0 2.34804e-06)
(2.34802e-06 -1.21512e-19 -0 2.34802e-06 -0 2.34802e-06)
(2.34798e-06 9.28207e-20 -0 2.34798e-06 -0 2.34798e-06)
(2.34795e-06 1.53571e-20 -0 2.34795e-06 -0 2.34795e-06)
(2.34792e-06 -7.1858e-20 -0 2.34792e-06 -0 2.34792e-06)
(2.34789e-06 -3.53544e-20 -0 2.34789e-06 -0 2.34789e-06)
(2.34787e-06 -1.03527e-19 -0 2.34787e-06 -0 2.34787e-06)
(2.34785e-06 -1.0482e-19 -0 2.34785e-06 -0 2.34785e-06)
(2.34783e-06 -8.62705e-20 -0 2.34783e-06 -0 2.34783e-06)
(2.34781e-06 -1.12985e-19 -0 2.34781e-06 -0 2.34781e-06)
(2.34779e-06 -6.15758e-20 -0 2.34779e-06 -0 2.34779e-06)
(2.34778e-06 -8.29794e-20 -0 2.34778e-06 -0 2.34778e-06)
(2.34777e-06 -1.59908e-19 -0 2.34777e-06 -0 2.34777e-06)
(2.34776e-06 -9.67209e-20 -0 2.34776e-06 -0 2.34776e-06)
(2.34775e-06 -7.69911e-20 -0 2.34775e-06 -0 2.34775e-06)
(2.34775e-06 -2.32326e-20 -0 2.34775e-06 -0 2.34775e-06)
(2.34774e-06 -1.37636e-20 -0 2.34774e-06 -0 2.34774e-06)
(2.34774e-06 2.39911e-21 -0 2.34774e-06 -0 2.34774e-06)
(2.35316e-06 -1.17588e-17 -0 2.35316e-06 -0 2.35316e-06)
(2.35316e-06 1.08883e-17 -0 2.35316e-06 -0 2.35316e-06)
(2.35309e-06 -2.14565e-18 -0 2.35309e-06 -0 2.35309e-06)
(2.35307e-06 5.32379e-19 -0 2.35307e-06 -0 2.35307e-06)
(2.35302e-06 -1.87361e-19 -0 2.35302e-06 -0 2.35302e-06)
(2.353e-06 2.57802e-21 -0 2.353e-06 -0 2.353e-06)
(2.35296e-06 -2.74766e-20 -0 2.35296e-06 -0 2.35296e-06)
(2.35295e-06 -7.34949e-21 -0 2.35295e-06 -0 2.35295e-06)
(2.35291e-06 -1.6175e-21 -0 2.35291e-06 -0 2.35291e-06)
(2.3529e-06 6.8238e-21 -0 2.3529e-06 -0 2.3529e-06)
(2.35286e-06 3.57249e-20 -0 2.35286e-06 -0 2.35286e-06)
(2.35286e-06 -1.92663e-20 -0 2.35286e-06 -0 2.35286e-06)
(2.35283e-06 2.19977e-20 -0 2.35283e-06 -0 2.35283e-06)
(2.35283e-06 3.06154e-20 -0 2.35283e-06 -0 2.35283e-06)
(2.35281e-06 4.52051e-20 -0 2.35281e-06 -0 2.35281e-06)
(2.35281e-06 1.14913e-20 -0 2.35281e-06 -0 2.35281e-06)
(2.35279e-06 6.64816e-20 -0 2.35279e-06 -0 2.35279e-06)
(2.35279e-06 -1.31578e-20 -0 2.35279e-06 -0 2.35279e-06)
(2.35279e-06 1.43397e-20 -0 2.35279e-06 -0 2.35279e-06)
(2.35279e-06 4.31726e-20 -0 2.35279e-06 -0 2.35279e-06)
(2.35706e-06 3.37149e-18 -0 2.35706e-06 -0 2.35706e-06)
(2.35707e-06 -3.99787e-18 -0 2.35707e-06 -0 2.35707e-06)
(2.357e-06 5.66193e-19 -0 2.357e-06 -0 2.357e-06)
(2.35698e-06 -2.73707e-19 -0 2.35698e-06 -0 2.35698e-06)
(2.35694e-06 -4.50793e-20 -0 2.35694e-06 -0 2.35694e-06)
(2.35691e-06 -4.27862e-20 -0 2.35691e-06 -0 2.35691e-06)
(2.35688e-06 -3.35754e-20 -0 2.35688e-06 -0 2.35688e-06)
(2.35685e-06 -3.20907e-20 -0 2.35685e-06 -0 2.35685e-06)
(2.35683e-06 3.00886e-21 -0 2.35683e-06 -0 2.35683e-06)
(2.35681e-06 7.40045e-21 -0 2.35681e-06 -0 2.35681e-06)
(2.35679e-06 6.59205e-20 -0 2.35679e-06 -0 2.35679e-06)
(2.35677e-06 3.68232e-20 -0 2.35677e-06 -0 2.35677e-06)
(2.35675e-06 4.55945e-20 -0 2.35675e-06 -0 2.35675e-06)
(2.35674e-06 8.92474e-20 -0 2.35674e-06 -0 2.35674e-06)
(2.35673e-06 9.47501e-20 -0 2.35673e-06 -0 2.35673e-06)
(2.35672e-06 9.14938e-20 -0 2.35672e-06 -0 2.35672e-06)
(2.35671e-06 1.49559e-20 -0 2.35671e-06 -0 2.35671e-06)
(2.35671e-06 -3.44237e-20 -0 2.35671e-06 -0 2.35671e-06)
(2.35671e-06 4.6653e-20 -0 2.35671e-06 -0 2.35671e-06)
(2.3567e-06 1.32268e-20 -0 2.3567e-06 -0 2.3567e-06)
(2.35887e-06 7.9158e-18 -0 2.35887e-06 -0 2.35887e-06)
(2.35886e-06 -7.9792e-18 -0 2.35886e-06 -0 2.35886e-06)
(2.35886e-06 1.79798e-18 -0 2.35886e-06 -0 2.35886e-06)
(2.35886e-06 -2.89208e-19 -0 2.35886e-06 -0 2.35886e-06)
(2.35886e-06 1.97605e-19 -0 2.35886e-06 -0 2.35886e-06)
(2.35886e-06 6.60704e-20 -0 2.35886e-06 -0 2.35886e-06)
(2.35886e-06 7.19586e-20 -0 2.35886e-06 -0 2.35886e-06)
(2.35886e-06 6.38278e-20 -0 2.35886e-06 -0 2.35886e-06)
(2.35886e-06 4.9697e-20 -0 2.35886e-06 -0 2.35886e-06)
(2.35886e-06 5.12353e-20 -0 2.35886e-06 -0 2.35886e-06)
(2.35886e-06 -3.3151e-21 -0 2.35886e-06 -0 2.35886e-06)
(2.35886e-06 5.99676e-20 -0 2.35886e-06 -0 2.35886e-06)
(2.35886e-06 1.27615e-20 -0 2.35886e-06 -0 2.35886e-06)
(2.35886e-06 -4.75094e-20 -0 2.35886e-06 -0 2.35886e-06)
(2.35886e-06 -6.36607e-20 -0 2.35886e-06 -0 2.35886e-06)
(2.35886e-06 -6.19814e-20 -0 2.35886e-06 -0 2.35886e-06)
(2.35886e-06 -7.6225e-21 -0 2.35886e-06 -0 2.35886e-06)
(2.35886e-06 1.44789e-20 -0 2.35886e-06 -0 2.35886e-06)
(2.35886e-06 -6.1051e-20 -0 2.35886e-06 -0 2.35886e-06)
(2.35886e-06 1.14069e-20 -0 2.35886e-06 -0 2.35886e-06)
)
;

boundaryField
{
    movingWall
    {
        type            kqRWallFunction;
        value           nonuniform List<symmTensor> 
20
(
(2.35887e-06 0 -0 2.35887e-06 -0 2.35887e-06)
(2.35886e-06 -0 -0 2.35886e-06 -0 2.35886e-06)
(2.35886e-06 0 -0 2.35886e-06 -0 2.35886e-06)
(2.35886e-06 -0 -0 2.35886e-06 -0 2.35886e-06)
(2.35886e-06 0 -0 2.35886e-06 -0 2.35886e-06)
(2.35886e-06 0 -0 2.35886e-06 -0 2.35886e-06)
(2.35886e-06 0 -0 2.35886e-06 -0 2.35886e-06)
(2.35886e-06 0 -0 2.35886e-06 -0 2.35886e-06)
(2.35886e-06 0 -0 2.35886e-06 -0 2.35886e-06)
(2.35886e-06 0 -0 2.35886e-06 -0 2.35886e-06)
(2.35886e-06 0 -0 2.35886e-06 -0 2.35886e-06)
(2.35886e-06 0 -0 2.35886e-06 -0 2.35886e-06)
(2.35886e-06 0 -0 2.35886e-06 -0 2.35886e-06)
(2.35886e-06 0 -0 2.35886e-06 -0 2.35886e-06)
(2.35886e-06 -0 -0 2.35886e-06 -0 2.35886e-06)
(2.35886e-06 -0 -0 2.35886e-06 -0 2.35886e-06)
(2.35886e-06 -0 -0 2.35886e-06 -0 2.35886e-06)
(2.35886e-06 -0 -0 2.35886e-06 -0 2.35886e-06)
(2.35886e-06 -0 -0 2.35886e-06 -0 2.35886e-06)
(2.35886e-06 0 -0 2.35886e-06 -0 2.35886e-06)
)
;
    }
    fixedWalls
    {
        type            kqRWallFunction;
        value           nonuniform List<symmTensor> 
60
(
(2.04223e-06 -0 -0 2.04223e-06 -0 2.04223e-06)
(2.07306e-06 -0 -0 2.07306e-06 -0 2.07306e-06)
(2.1226e-06 0 -0 2.1226e-06 -0 2.1226e-06)
(2.17586e-06 -0 -0 2.17586e-06 -0 2.17586e-06)
(2.2219e-06 -0 -0 2.2219e-06 -0 2.2219e-06)
(2.25642e-06 0 -0 2.25642e-06 -0 2.25642e-06)
(2.28e-06 -0 -0 2.28e-06 -0 2.28e-06)
(2.29534e-06 0 -0 2.29534e-06 -0 2.29534e-06)
(2.30532e-06 0 -0 2.30532e-06 -0 2.30532e-06)
(2.31223e-06 -0 -0 2.31223e-06 -0 2.31223e-06)
(2.31758e-06 0 -0 2.31758e-06 -0 2.31758e-06)
(2.32231e-06 -0 -0 2.32231e-06 -0 2.32231e-06)
(2.32697e-06 -0 -0 2.32697e-06 -0 2.32697e-06)
(2.33185e-06 0 -0 2.33185e-06 -0 2.33185e-06)
(2.33708e-06 -0 -0 2.33708e-06 -0 2.33708e-06)
(2.34259e-06 0 -0 2.34259e-06 -0 2.34259e-06)
(2.34811e-06 0 -0 2.34811e-06 -0 2.34811e-06)
(2.35316e-06 -0 -0 2.35316e-06 -0 2.35316e-06)
(2.35706e-06 0 -0 2.35706e-06 -0 2.35706e-06)
(2.35887e-06 0 -0 2.35887e-06 -0 2.35887e-06)
(2.04222e-06 0 -0 2.04222e-06 -0 2.04222e-06)
(2.07278e-06 -0 -0 2.07278e-06 -0 2.07278e-06)
(2.1223e-06 -0 -0 2.1223e-06 -0 2.1223e-06)
(2.17555e-06 0 -0 2.17555e-06 -0 2.17555e-06)
(2.22157e-06 -0 -0 2.22157e-06 -0 2.22157e-06)
(2.25608e-06 -0 -0 2.25608e-06 -0 2.25608e-06)
(2.27966e-06 -0 -0 2.27966e-06 -0 2.27966e-06)
(2.29499e-06 -0 -0 2.29499e-06 -0 2.29499e-06)
(2.30497e-06 0 -0 2.30497e-06 -0 2.30497e-06)
(2.31187e-06 0 -0 2.31187e-06 -0 2.31187e-06)
(2.31722e-06 -0 -0 2.31722e-06 -0 2.31722e-06)
(2.32195e-06 -0 -0 2.32195e-06 -0 2.32195e-06)
(2.32661e-06 -0 -0 2.32661e-06 -0 2.32661e-06)
(2.33149e-06 -0 -0 2.33149e-06 -0 2.33149e-06)
(2.33671e-06 0 -0 2.33671e-06 -0 2.33671e-06)
(2.34222e-06 -0 -0 2.34222e-06 -0 2.34222e-06)
(2.34774e-06 0 -0 2.34774e-06 -0 2.34774e-06)
(2.35279e-06 0 -0 2.35279e-06 -0 2.35279e-06)
(2.3567e-06 0 -0 2.3567e-06 -0 2.3567e-06)
(2.35886e-06 0 -0 2.35886e-06 -0 2.35886e-06)
(2.04223e-06 -0 -0 2.04223e-06 -0 2.04223e-06)
(2.04223e-06 0 -0 2.04223e-06 -0 2.04223e-06)
(2.04222e-06 -0 -0 2.04222e-06 -0 2.04222e-06)
(2.04222e-06 0 -0 2.04222e-06 -0 2.04222e-06)
(2.04222e-06 -0 -0 2.04222e-06 -0 2.04222e-06)
(2.04222e-06 -0 -0 2.04222e-06 -0 2.04222e-06)
(2.04222e-06 -0 -0 2.04222e-06 -0 2.04222e-06)
(2.04222e-06 -0 -0 2.04222e-06 -0 2.04222e-06)
(2.04222e-06 -0 -0 2.04222e-06 -0 2.04222e-06)
(2.04222e-06 -0 -0 2.04222e-06 -0 2.04222e-06)
(2.04222e-06 -0 -0 2.04222e-06 -0 2.04222e-06)
(2.04222e-06 -0 -0 2.04222e-06 -0 2.04222e-06)
(2.04222e-06 -0 -0 2.04222e-06 -0 2.04222e-06)
(2.04222e-06 -0 -0 2.04222e-06 -0 2.04222e-06)
(2.04222e-06 -0 -0 2.04222e-06 -0 2.04222e-06)
(2.04222e-06 0 -0 2.04222e-06 -0 2.04222e-06)
(2.04222e-06 0 -0 2.04222e-06 -0 2.04222e-06)
(2.04222e-06 0 -0 2.04222e-06 -0 2.04222e-06)
(2.04222e-06 -0 -0 2.04222e-06 -0 2.04222e-06)
(2.04222e-06 -0 -0 2.04222e-06 -0 2.04222e-06)
)
;
    }
    frontAndBack
    {
        type            empty;
    }
}


// ************************************************************************* //
