/*--------------------------------*- C++ -*----------------------------------*\
| =========                 |                                                 |
| \\      /  F ield         | OpenFOAM: The Open Source CFD Toolbox           |
|  \\    /   O peration     | Version:  2312                                  |
|   \\  /    A nd           | Website:  www.openfoam.com                      |
|    \\/     M anipulation  |                                                 |
\*---------------------------------------------------------------------------*/
FoamFile
{
    version     2.0;
    format      ascii;
    arch        "LSB;label=32;scalar=64";
    class       volScalarField;
    location    "9";
    object      turbulenceProperties:omega;
}
// * * * * * * * * * * * * * * * * * * * * * * * * * * * * * * * * * * * * * //

dimensions      [0 0 -1 0 0 0 0];

internalField   nonuniform List<scalar> 
400
(
3.12396
3.12396
3.12396
3.12396
3.12396
3.12396
3.12396
3.12396
3.12396
3.12396
3.12396
3.12396
3.12396
3.12396
3.12396
3.12396
3.12396
3.12396
3.12396
3.12396
3.14756
3.11455
3.11746
3.11863
3.12101
3.12223
3.1246
3.12586
3.12821
3.1295
3.13185
3.13317
3.13551
3.13686
3.1392
3.14057
3.14291
3.14431
3.14548
3.14735
3.18511
3.15072
3.15379
3.15504
3.15755
3.15883
3.16132
3.16263
3.1651
3.16644
3.16889
3.17025
3.17269
3.17408
3.17651
3.1779
3.18033
3.18175
3.18296
3.18488
3.22496
3.18971
3.19286
3.19415
3.19671
3.19803
3.20058
3.20192
3.20446
3.20583
3.20834
3.20973
3.21225
3.21365
3.21615
3.21758
3.22007
3.22152
3.22276
3.22473
3.259
3.22299
3.22622
3.22751
3.23015
3.23148
3.2341
3.23545
3.23806
3.23944
3.24203
3.24344
3.24601
3.24744
3.25
3.25145
3.254
3.25548
3.25675
3.25876
3.28427
3.24768
3.25096
3.25227
3.25495
3.25631
3.25897
3.26035
3.26299
3.2644
3.26702
3.26846
3.27107
3.27252
3.27513
3.2766
3.27919
3.28069
3.28198
3.28402
3.30141
3.26443
3.26774
3.26907
3.27177
3.27315
3.27582
3.27723
3.27989
3.28133
3.28397
3.28543
3.28807
3.28953
3.29217
3.29365
3.29628
3.29779
3.2991
3.30116
3.3125
3.27527
3.27859
3.27994
3.28266
3.28404
3.28674
3.28816
3.29084
3.29228
3.29494
3.29641
3.29906
3.30055
3.30319
3.3047
3.30733
3.30886
3.31017
3.31225
3.31971
3.28229
3.28565
3.28699
3.28973
3.29112
3.29383
3.29525
3.29794
3.29938
3.30207
3.30353
3.30621
3.30769
3.31035
3.31186
3.31451
3.31604
3.31737
3.31945
3.32468
3.28715
3.29052
3.29186
3.29461
3.296
3.29872
3.30014
3.30284
3.3043
3.30698
3.30846
3.31113
3.31263
3.31529
3.31681
3.31946
3.321
3.32233
3.32442
3.32853
3.29091
3.29428
3.29563
3.29839
3.29978
3.30251
3.30394
3.30664
3.3081
3.31078
3.31227
3.31494
3.31645
3.31911
3.32064
3.3233
3.32484
3.32617
3.32827
3.33193
3.29423
3.29762
3.29896
3.30172
3.30312
3.30586
3.30728
3.31
3.31145
3.31416
3.31563
3.31832
3.31982
3.3225
3.32402
3.32669
3.32824
3.32957
3.33167
3.33528
3.2975
3.30089
3.30224
3.30501
3.30641
3.30915
3.31058
3.31331
3.31475
3.31747
3.31894
3.32165
3.32314
3.32583
3.32735
3.33003
3.33157
3.33291
3.33502
3.33878
3.30093
3.30432
3.30568
3.30845
3.30985
3.31259
3.31403
3.31675
3.31822
3.32093
3.32242
3.32511
3.32663
3.32931
3.33085
3.33352
3.33507
3.33641
3.33852
3.34252
3.30459
3.30799
3.30936
3.31212
3.31354
3.31628
3.31773
3.32045
3.32193
3.32463
3.32614
3.32883
3.33035
3.33303
3.33458
3.33725
3.33881
3.34015
3.34227
3.34647
3.30845
3.31186
3.31322
3.316
3.31742
3.32017
3.32162
3.32435
3.32583
3.32854
3.33004
3.33274
3.33427
3.33696
3.33851
3.34119
3.34275
3.34409
3.34621
3.35043
3.31232
3.31573
3.3171
3.31989
3.3213
3.32407
3.32551
3.32825
3.32973
3.33245
3.33396
3.33666
3.3382
3.34089
3.34244
3.34513
3.3467
3.34804
3.35017
3.35404
3.31586
3.31928
3.32065
3.32344
3.32485
3.32762
3.32906
3.33182
3.33329
3.33603
3.33753
3.34025
3.34177
3.34449
3.34603
3.34873
3.3503
3.35165
3.35378
3.35683
3.3193
3.32261
3.32394
3.32664
3.32803
3.33072
3.33214
3.33481
3.33629
3.33894
3.34045
3.3431
3.34465
3.3473
3.34887
3.35152
3.35312
3.35445
3.35658
3.35812
3.35812
3.35812
3.35812
3.35812
3.35812
3.35812
3.35812
3.35812
3.35812
3.35812
3.35812
3.35812
3.35812
3.35812
3.35812
3.35812
3.35812
3.35812
3.35812
)
;

boundaryField
{
    movingWall
    {
        type            calculated;
        value           nonuniform List<scalar> 
20
(
3.35812
3.35812
3.35812
3.35812
3.35812
3.35812
3.35812
3.35812
3.35812
3.35812
3.35812
3.35812
3.35812
3.35812
3.35812
3.35812
3.35812
3.35812
3.35812
3.35812
)
;
    }
    fixedWalls
    {
        type            calculated;
        value           nonuniform List<scalar> 
60
(
3.12396
3.14756
3.18511
3.22496
3.259
3.28427
3.30141
3.3125
3.31971
3.32468
3.32853
3.33193
3.33528
3.33878
3.34252
3.34647
3.35043
3.35404
3.35683
3.35812
3.12396
3.14735
3.18488
3.22473
3.25876
3.28402
3.30116
3.31225
3.31945
3.32442
3.32827
3.33167
3.33502
3.33852
3.34227
3.34621
3.35017
3.35378
3.35658
3.35812
3.12396
3.12396
3.12396
3.12396
3.12396
3.12396
3.12396
3.12396
3.12396
3.12396
3.12396
3.12396
3.12396
3.12396
3.12396
3.12396
3.12396
3.12396
3.12396
3.12396
)
;
    }
    frontAndBack
    {
        type            empty;
    }
}


// ************************************************************************* //
