/*--------------------------------*- C++ -*----------------------------------*\
| =========                 |                                                 |
| \\      /  F ield         | OpenFOAM: The Open Source CFD Toolbox           |
|  \\    /   O peration     | Version:  2312                                  |
|   \\  /    A nd           | Website:  www.openfoam.com                      |
|    \\/     M anipulation  |                                                 |
\*---------------------------------------------------------------------------*/
FoamFile
{
    version     2.0;
    format      ascii;
    arch        "LSB;label=32;scalar=64";
    class       volScalarField;
    location    "9";
    object      turbulenceProperties:L;
}
// * * * * * * * * * * * * * * * * * * * * * * * * * * * * * * * * * * * * * //

dimensions      [0 1 0 0 0 0 0];

internalField   nonuniform List<scalar> 
400
(
0.0010229
0.0010229
0.0010229
0.0010229
0.0010229
0.0010229
0.0010229
0.0010229
0.0010229
0.0010229
0.0010229
0.0010229
0.0010229
0.0010229
0.0010229
0.0010229
0.0010229
0.0010229
0.0010229
0.0010229
0.00102286
0.0010337
0.00103273
0.00103233
0.00103154
0.00103113
0.00103034
0.00102992
0.00102914
0.00102871
0.00102794
0.0010275
0.00102673
0.00102629
0.00102552
0.00102507
0.00102431
0.00102385
0.00102347
0.00102286
0.00102281
0.00103397
0.00103295
0.00103254
0.00103171
0.00103129
0.00103047
0.00103004
0.00102923
0.00102879
0.00102799
0.00102754
0.00102675
0.0010263
0.00102551
0.00102506
0.00102427
0.00102382
0.00102343
0.00102281
0.00102276
0.00103407
0.00103303
0.00103261
0.00103178
0.00103135
0.00103052
0.00103008
0.00102926
0.00102882
0.00102801
0.00102756
0.00102675
0.0010263
0.0010255
0.00102504
0.00102425
0.00102379
0.00102339
0.00102277
0.00102274
0.00103416
0.00103311
0.0010327
0.00103184
0.00103141
0.00103057
0.00103013
0.0010293
0.00102886
0.00102803
0.00102758
0.00102676
0.00102631
0.0010255
0.00102504
0.00102423
0.00102377
0.00102337
0.00102274
0.00102272
0.00103424
0.00103318
0.00103276
0.0010319
0.00103147
0.00103062
0.00103018
0.00102934
0.00102889
0.00102806
0.00102761
0.00102678
0.00102632
0.0010255
0.00102504
0.00102423
0.00102376
0.00102335
0.00102272
0.00102271
0.0010343
0.00103323
0.00103281
0.00103195
0.00103151
0.00103066
0.00103021
0.00102937
0.00102892
0.00102808
0.00102762
0.00102679
0.00102634
0.00102551
0.00102505
0.00102423
0.00102376
0.00102335
0.00102271
0.00102271
0.00103434
0.00103327
0.00103284
0.00103198
0.00103154
0.00103068
0.00103024
0.00102939
0.00102893
0.0010281
0.00102764
0.00102681
0.00102634
0.00102552
0.00102505
0.00102423
0.00102376
0.00102335
0.00102271
0.00102271
0.00103436
0.00103329
0.00103287
0.001032
0.00103156
0.0010307
0.00103025
0.0010294
0.00102895
0.00102811
0.00102765
0.00102681
0.00102635
0.00102552
0.00102505
0.00102423
0.00102376
0.00102335
0.00102271
0.00102271
0.00103438
0.00103331
0.00103288
0.00103201
0.00103157
0.00103071
0.00103026
0.00102941
0.00102896
0.00102812
0.00102765
0.00102682
0.00102635
0.00102553
0.00102506
0.00102423
0.00102376
0.00102335
0.00102271
0.0010227
0.00103439
0.00103332
0.00103289
0.00103202
0.00103158
0.00103072
0.00103027
0.00102942
0.00102896
0.00102812
0.00102766
0.00102683
0.00102636
0.00102553
0.00102506
0.00102424
0.00102376
0.00102335
0.0010227
0.0010227
0.00103441
0.00103333
0.0010329
0.00103203
0.00103159
0.00103073
0.00103028
0.00102942
0.00102897
0.00102812
0.00102766
0.00102683
0.00102636
0.00102553
0.00102506
0.00102423
0.00102376
0.00102335
0.0010227
0.0010227
0.00103442
0.00103334
0.00103291
0.00103204
0.0010316
0.00103073
0.00103028
0.00102943
0.00102898
0.00102813
0.00102767
0.00102683
0.00102636
0.00102553
0.00102506
0.00102423
0.00102376
0.00102335
0.0010227
0.0010227
0.00103443
0.00103335
0.00103292
0.00103205
0.0010316
0.00103074
0.00103029
0.00102944
0.00102898
0.00102813
0.00102767
0.00102683
0.00102636
0.00102553
0.00102506
0.00102424
0.00102376
0.00102335
0.0010227
0.0010227
0.00103444
0.00103336
0.00103293
0.00103206
0.00103161
0.00103075
0.00103029
0.00102944
0.00102898
0.00102814
0.00102767
0.00102684
0.00102636
0.00102553
0.00102506
0.00102423
0.00102376
0.00102334
0.0010227
0.00102269
0.00103445
0.00103337
0.00103294
0.00103206
0.00103162
0.00103075
0.0010303
0.00102945
0.00102898
0.00102814
0.00102767
0.00102684
0.00102636
0.00102553
0.00102506
0.00102423
0.00102375
0.00102334
0.00102269
0.00102269
0.00103446
0.00103338
0.00103294
0.00103207
0.00103162
0.00103076
0.0010303
0.00102945
0.00102899
0.00102815
0.00102767
0.00102684
0.00102636
0.00102553
0.00102506
0.00102423
0.00102375
0.00102334
0.00102269
0.00102269
0.00103446
0.00103338
0.00103295
0.00103207
0.00103163
0.00103076
0.00103031
0.00102945
0.001029
0.00102814
0.00102768
0.00102684
0.00102637
0.00102553
0.00102506
0.00102423
0.00102375
0.00102334
0.00102269
0.00102268
0.00103425
0.0010332
0.00103279
0.00103194
0.0010315
0.00103066
0.00103021
0.00102938
0.00102893
0.0010281
0.00102763
0.00102681
0.00102634
0.00102552
0.00102504
0.00102423
0.00102374
0.00102333
0.00102268
0.00102268
0.00102268
0.00102268
0.00102268
0.00102268
0.00102268
0.00102268
0.00102268
0.00102268
0.00102268
0.00102268
0.00102268
0.00102268
0.00102268
0.00102268
0.00102268
0.00102268
0.00102268
0.00102268
0.00102268
)
;

boundaryField
{
    movingWall
    {
        type            calculated;
        value           nonuniform List<scalar> 
20
(
0.00102268
0.00102268
0.00102268
0.00102268
0.00102268
0.00102268
0.00102268
0.00102268
0.00102268
0.00102268
0.00102268
0.00102268
0.00102268
0.00102268
0.00102268
0.00102268
0.00102268
0.00102268
0.00102268
0.00102268
)
;
    }
    fixedWalls
    {
        type            calculated;
        value           nonuniform List<scalar> 
60
(
0.0010229
0.00102286
0.00102281
0.00102276
0.00102274
0.00102272
0.00102271
0.00102271
0.00102271
0.00102271
0.0010227
0.0010227
0.0010227
0.0010227
0.0010227
0.00102269
0.00102269
0.00102269
0.00102268
0.00102268
0.0010229
0.00102286
0.00102281
0.00102277
0.00102274
0.00102272
0.00102271
0.00102271
0.00102271
0.00102271
0.0010227
0.0010227
0.0010227
0.0010227
0.0010227
0.00102269
0.00102269
0.00102269
0.00102268
0.00102268
0.0010229
0.0010229
0.0010229
0.0010229
0.0010229
0.0010229
0.0010229
0.0010229
0.0010229
0.0010229
0.0010229
0.0010229
0.0010229
0.0010229
0.0010229
0.0010229
0.0010229
0.0010229
0.0010229
0.0010229
)
;
    }
    frontAndBack
    {
        type            empty;
    }
}


// ************************************************************************* //
