/*--------------------------------*- C++ -*----------------------------------*\
| =========                 |                                                 |
| \\      /  F ield         | OpenFOAM: The Open Source CFD Toolbox           |
|  \\    /   O peration     | Version:  2312                                  |
|   \\  /    A nd           | Website:  www.openfoam.com                      |
|    \\/     M anipulation  |                                                 |
\*---------------------------------------------------------------------------*/
FoamFile
{
    version     2.0;
    format      ascii;
    arch        "LSB;label=32;scalar=64";
    class       volScalarField;
    location    "9";
    object      turbulenceProperties:k;
}
// * * * * * * * * * * * * * * * * * * * * * * * * * * * * * * * * * * * * * //

dimensions      [0 2 -2 0 0 0 0];

internalField   nonuniform List<scalar> 
400
(
3.06334e-06
3.06334e-06
3.06334e-06
3.06334e-06
3.06334e-06
3.06333e-06
3.06333e-06
3.06333e-06
3.06333e-06
3.06333e-06
3.06333e-06
3.06333e-06
3.06333e-06
3.06333e-06
3.06333e-06
3.06333e-06
3.06333e-06
3.06333e-06
3.06333e-06
3.06333e-06
3.10959e-06
3.1096e-06
3.10952e-06
3.10949e-06
3.10945e-06
3.10942e-06
3.10937e-06
3.10935e-06
3.10932e-06
3.1093e-06
3.10927e-06
3.10925e-06
3.10923e-06
3.10922e-06
3.1092e-06
3.10919e-06
3.10918e-06
3.10918e-06
3.10918e-06
3.10918e-06
3.18389e-06
3.18389e-06
3.18382e-06
3.18378e-06
3.18373e-06
3.1837e-06
3.18366e-06
3.18363e-06
3.1836e-06
3.18357e-06
3.18355e-06
3.18352e-06
3.18351e-06
3.18349e-06
3.18347e-06
3.18347e-06
3.18345e-06
3.18345e-06
3.18345e-06
3.18344e-06
3.26379e-06
3.26379e-06
3.26371e-06
3.26367e-06
3.26363e-06
3.26359e-06
3.26355e-06
3.26352e-06
3.26348e-06
3.26346e-06
3.26343e-06
3.26341e-06
3.26338e-06
3.26337e-06
3.26335e-06
3.26334e-06
3.26333e-06
3.26333e-06
3.26332e-06
3.26332e-06
3.33285e-06
3.33286e-06
3.33276e-06
3.33274e-06
3.33267e-06
3.33265e-06
3.33259e-06
3.33257e-06
3.33252e-06
3.33251e-06
3.33246e-06
3.33246e-06
3.33242e-06
3.33242e-06
3.33239e-06
3.33239e-06
3.33237e-06
3.33237e-06
3.33236e-06
3.33236e-06
3.38463e-06
3.38463e-06
3.38454e-06
3.38451e-06
3.38445e-06
3.38442e-06
3.38436e-06
3.38434e-06
3.38429e-06
3.38428e-06
3.38423e-06
3.38423e-06
3.38418e-06
3.38418e-06
3.38415e-06
3.38415e-06
3.38413e-06
3.38413e-06
3.38413e-06
3.38413e-06
3.42e-06
3.42e-06
3.4199e-06
3.41988e-06
3.41982e-06
3.41978e-06
3.41973e-06
3.4197e-06
3.41966e-06
3.41963e-06
3.41959e-06
3.41958e-06
3.41954e-06
3.41954e-06
3.41951e-06
3.41951e-06
3.41949e-06
3.41949e-06
3.41948e-06
3.41948e-06
3.443e-06
3.443e-06
3.44291e-06
3.44287e-06
3.44282e-06
3.44278e-06
3.44273e-06
3.4427e-06
3.44266e-06
3.44263e-06
3.4426e-06
3.44257e-06
3.44255e-06
3.44253e-06
3.44252e-06
3.4425e-06
3.44249e-06
3.44249e-06
3.44248e-06
3.44248e-06
3.45798e-06
3.45798e-06
3.45788e-06
3.45786e-06
3.45779e-06
3.45776e-06
3.45771e-06
3.45767e-06
3.45763e-06
3.45761e-06
3.45756e-06
3.45756e-06
3.45751e-06
3.45751e-06
3.45748e-06
3.45748e-06
3.45746e-06
3.45746e-06
3.45745e-06
3.45745e-06
3.46834e-06
3.46834e-06
3.46824e-06
3.46821e-06
3.46815e-06
3.46811e-06
3.46806e-06
3.46803e-06
3.46799e-06
3.46796e-06
3.46793e-06
3.4679e-06
3.46787e-06
3.46786e-06
3.46784e-06
3.46783e-06
3.46782e-06
3.46781e-06
3.46781e-06
3.46781e-06
3.47637e-06
3.47637e-06
3.47626e-06
3.47624e-06
3.47617e-06
3.47614e-06
3.47609e-06
3.47605e-06
3.47601e-06
3.47598e-06
3.47595e-06
3.47593e-06
3.4759e-06
3.47588e-06
3.47587e-06
3.47585e-06
3.47584e-06
3.47584e-06
3.47583e-06
3.47583e-06
3.48346e-06
3.48347e-06
3.48336e-06
3.48333e-06
3.48327e-06
3.48324e-06
3.48318e-06
3.48315e-06
3.4831e-06
3.48309e-06
3.48304e-06
3.48303e-06
3.48299e-06
3.48298e-06
3.48295e-06
3.48295e-06
3.48293e-06
3.48293e-06
3.48293e-06
3.48292e-06
3.49045e-06
3.49045e-06
3.49035e-06
3.49032e-06
3.49025e-06
3.49022e-06
3.49016e-06
3.49014e-06
3.49008e-06
3.49007e-06
3.49002e-06
3.49002e-06
3.48997e-06
3.48997e-06
3.48993e-06
3.48994e-06
3.48992e-06
3.48992e-06
3.48991e-06
3.48991e-06
3.49777e-06
3.49778e-06
3.49767e-06
3.49764e-06
3.49758e-06
3.49754e-06
3.49749e-06
3.49745e-06
3.49741e-06
3.49739e-06
3.49735e-06
3.49733e-06
3.4973e-06
3.49728e-06
3.49727e-06
3.49725e-06
3.49724e-06
3.49724e-06
3.49723e-06
3.49723e-06
3.50561e-06
3.50561e-06
3.50552e-06
3.50548e-06
3.50542e-06
3.50538e-06
3.50533e-06
3.50529e-06
3.50525e-06
3.50522e-06
3.50519e-06
3.50516e-06
3.50514e-06
3.50512e-06
3.5051e-06
3.50509e-06
3.50508e-06
3.50507e-06
3.50507e-06
3.50507e-06
3.51388e-06
3.51388e-06
3.51378e-06
3.51375e-06
3.51368e-06
3.51364e-06
3.51359e-06
3.51356e-06
3.51352e-06
3.51349e-06
3.51345e-06
3.51343e-06
3.5134e-06
3.51338e-06
3.51337e-06
3.51335e-06
3.51334e-06
3.51334e-06
3.51333e-06
3.51333e-06
3.52217e-06
3.52217e-06
3.52206e-06
3.52203e-06
3.52197e-06
3.52193e-06
3.52188e-06
3.52184e-06
3.5218e-06
3.52177e-06
3.52174e-06
3.52171e-06
3.52169e-06
3.52167e-06
3.52165e-06
3.52164e-06
3.52163e-06
3.52162e-06
3.52162e-06
3.52161e-06
3.52973e-06
3.52974e-06
3.52963e-06
3.5296e-06
3.52953e-06
3.5295e-06
3.52944e-06
3.52942e-06
3.52936e-06
3.52935e-06
3.5293e-06
3.52929e-06
3.52925e-06
3.52924e-06
3.52921e-06
3.52921e-06
3.52919e-06
3.52919e-06
3.52918e-06
3.52918e-06
3.5356e-06
3.5356e-06
3.5355e-06
3.53547e-06
3.5354e-06
3.53537e-06
3.53532e-06
3.53528e-06
3.53524e-06
3.53521e-06
3.53518e-06
3.53516e-06
3.53513e-06
3.53511e-06
3.53509e-06
3.53508e-06
3.53507e-06
3.53506e-06
3.53506e-06
3.53506e-06
3.5383e-06
3.5383e-06
3.5383e-06
3.5383e-06
3.53829e-06
3.53829e-06
3.53829e-06
3.53829e-06
3.53829e-06
3.53829e-06
3.53829e-06
3.53829e-06
3.53829e-06
3.53829e-06
3.53829e-06
3.53829e-06
3.53829e-06
3.53829e-06
3.53829e-06
3.53829e-06
)
;

boundaryField
{
    movingWall
    {
        type            kqRWallFunction;
        value           nonuniform List<scalar> 
20
(
3.5383e-06
3.5383e-06
3.5383e-06
3.5383e-06
3.53829e-06
3.53829e-06
3.53829e-06
3.53829e-06
3.53829e-06
3.53829e-06
3.53829e-06
3.53829e-06
3.53829e-06
3.53829e-06
3.53829e-06
3.53829e-06
3.53829e-06
3.53829e-06
3.53829e-06
3.53829e-06
)
;
    }
    fixedWalls
    {
        type            kqRWallFunction;
        value           nonuniform List<scalar> 
60
(
3.06334e-06
3.10959e-06
3.18389e-06
3.26379e-06
3.33285e-06
3.38463e-06
3.42e-06
3.443e-06
3.45798e-06
3.46834e-06
3.47637e-06
3.48346e-06
3.49045e-06
3.49777e-06
3.50561e-06
3.51388e-06
3.52217e-06
3.52973e-06
3.5356e-06
3.5383e-06
3.06333e-06
3.10918e-06
3.18344e-06
3.26332e-06
3.33236e-06
3.38413e-06
3.41948e-06
3.44248e-06
3.45745e-06
3.46781e-06
3.47583e-06
3.48292e-06
3.48991e-06
3.49723e-06
3.50507e-06
3.51333e-06
3.52161e-06
3.52918e-06
3.53506e-06
3.53829e-06
3.06334e-06
3.06334e-06
3.06334e-06
3.06334e-06
3.06334e-06
3.06333e-06
3.06333e-06
3.06333e-06
3.06333e-06
3.06333e-06
3.06333e-06
3.06333e-06
3.06333e-06
3.06333e-06
3.06333e-06
3.06333e-06
3.06333e-06
3.06333e-06
3.06333e-06
3.06333e-06
)
;
    }
    frontAndBack
    {
        type            empty;
    }
}


// ************************************************************************* //
