/*--------------------------------*- C++ -*----------------------------------*\
| =========                 |                                                 |
| \\      /  F ield         | OpenFOAM: The Open Source CFD Toolbox           |
|  \\    /   O peration     | Version:  2312                                  |
|   \\  /    A nd           | Website:  www.openfoam.com                      |
|    \\/     M anipulation  |                                                 |
\*---------------------------------------------------------------------------*/
FoamFile
{
    version     2.0;
    format      ascii;
    arch        "LSB;label=32;scalar=64";
    class       volTensorField;
    location    "9";
    object      U2;
}
// * * * * * * * * * * * * * * * * * * * * * * * * * * * * * * * * * * * * * //

dimensions      [0 2 -2 0 0 0 0];

internalField   nonuniform List<tensor> 
400
(
(1 -1.29276e-13 -0 -1.29471e-13 1.67375e-26 0 -0 0 0)
(1 2.69648e-14 -0 2.7133e-14 7.31635e-28 -0 -0 -0 0)
(1 -6.55199e-15 -0 -6.54105e-15 4.28569e-29 0 -0 0 0)
(1 1.17549e-15 -0 1.17353e-15 1.37947e-30 -0 -0 -0 0)
(1 -4.58971e-16 -0 -5.09613e-16 2.33898e-31 0 -0 0 0)
(1 -4.05876e-17 -0 -4.93483e-17 2.00293e-33 0 -0 0 0)
(1 -5.64193e-17 -0 -7.96536e-17 4.494e-33 0 -0 0 0)
(1 -4.80175e-17 -0 -3.21233e-17 1.54248e-33 0 -0 0 0)
(1 -4.27395e-17 -0 -2.67709e-17 1.14417e-33 0 -0 0 0)
(1 -4.24893e-17 -0 -3.6988e-17 1.57159e-33 0 -0 0 0)
(1 -3.90624e-17 -0 -3.05359e-17 1.19281e-33 0 -0 0 0)
(1 -5.37495e-17 -0 -3.06364e-17 1.64669e-33 0 -0 0 0)
(1 -2.40776e-17 -0 1.8776e-17 -4.52082e-34 -0 -0 0 0)
(1 -3.38351e-17 -0 -1.26438e-16 4.27806e-33 0 -0 0 0)
(1 -7.47968e-17 -0 -1.63046e-16 1.21953e-32 0 -0 0 0)
(1 -1.59366e-16 -0 -1.51823e-16 2.41954e-32 0 -0 0 0)
(1 -1.31108e-16 -0 -4.15063e-17 5.44179e-33 0 -0 0 0)
(1 9.10266e-19 -0 8.70024e-17 7.91953e-35 -0 -0 -0 0)
(1 4.8294e-17 -0 7.37581e-17 3.56207e-33 -0 -0 -0 0)
(1 2.01108e-17 -0 -6.37625e-18 -1.28231e-34 0 -0 -0 0)
(1 -2.14346e-14 -0 -2.11153e-14 4.52599e-28 0 -0 0 0)
(1 3.60203e-15 -0 3.8338e-15 1.38094e-29 -0 -0 -0 0)
(1 -1.26962e-15 -0 -1.1158e-15 1.41664e-30 0 -0 0 0)
(1 -4.2797e-17 -0 1.07224e-16 -4.58886e-33 -0 -0 0 0)
(1 -1.33038e-16 -0 -5.04327e-17 6.70947e-33 0 -0 0 0)
(1 9.28571e-17 -0 1.31075e-16 1.21713e-32 -0 -0 -0 0)
(1 2.1115e-16 -0 1.55309e-16 3.27936e-32 -0 -0 -0 0)
(1 1.77718e-16 -0 3.92454e-17 6.97461e-33 -0 -0 -0 0)
(1 -4.22271e-17 -0 -1.00064e-16 4.22542e-33 0 -0 0 0)
(1 -1.60097e-16 -0 -8.87153e-17 1.42031e-32 0 -0 0 0)
(1 -6.58038e-17 -0 -2.88292e-17 1.89707e-33 0 -0 0 0)
(1 -2.21665e-17 -0 -1.41086e-17 3.12738e-34 0 -0 0 0)
(1 -2.08765e-17 -0 -1.45624e-17 3.04013e-34 0 -0 0 0)
(1 -8.27043e-17 -0 -1.58991e-16 1.31492e-32 0 -0 0 0)
(1 -1.11093e-16 -0 -1.20768e-16 1.34164e-32 0 -0 0 0)
(1 -1.16482e-16 -0 -1.12157e-16 1.30643e-32 0 -0 0 0)
(1 -7.65348e-17 -0 -3.07205e-17 2.35118e-33 0 -0 0 0)
(1 4.37321e-17 -0 1.16734e-16 5.10502e-33 -0 -0 -0 0)
(1 1.08201e-16 -0 1.69843e-16 1.83772e-32 -0 -0 -0 0)
(1 5.75598e-17 -0 6.38979e-17 3.67795e-33 -0 -0 -0 0)
(1 1.04687e-13 -0 1.0579e-13 1.10748e-26 -0 -0 -0 0)
(1 -2.17873e-14 -0 -2.17399e-14 4.73654e-28 0 -0 0 0)
(1 5.15842e-15 -0 5.35968e-15 2.76475e-29 -0 -0 -0 0)
(1 -1.0774e-15 -0 -8.96437e-16 9.65817e-31 0 -0 0 0)
(1 2.98773e-16 -0 4.75372e-16 1.42028e-31 -0 -0 -0 0)
(1 9.53405e-17 -0 1.01992e-16 9.72394e-33 -0 -0 -0 0)
(1 8.93655e-17 -0 6.20755e-17 5.54741e-33 -0 -0 -0 0)
(1 1.0015e-16 -0 -3.11969e-17 -3.12437e-33 0 -0 -0 0)
(1 -2.83577e-18 -0 -2.20235e-17 6.24536e-35 0 -0 0 0)
(1 -1.04503e-16 -0 -1.87811e-17 1.96268e-33 0 -0 0 0)
(1 -4.32516e-18 -0 3.67153e-17 -1.588e-34 -0 -0 0 0)
(1 1.07175e-16 -0 7.92415e-17 8.49271e-33 -0 -0 -0 0)
(1 1.00349e-16 -0 6.51965e-17 6.54238e-33 -0 -0 -0 0)
(1 6.95624e-17 -0 1.37682e-16 9.57748e-33 -0 -0 -0 0)
(1 6.49378e-17 -0 1.23277e-16 8.00536e-33 -0 -0 -0 0)
(1 1.04474e-16 -0 5.00487e-17 5.22879e-33 -0 -0 -0 0)
(1 4.27329e-17 -0 -1.23686e-17 -5.28547e-34 0 -0 -0 0)
(1 4.37545e-17 -0 9.19368e-18 4.02265e-34 -0 -0 -0 0)
(1 6.58767e-17 -0 9.01794e-17 5.94072e-33 -0 -0 -0 0)
(1 7.70832e-18 -0 9.45687e-17 7.28966e-34 -0 -0 -0 0)
(1 -4.62915e-14 -0 -4.63385e-14 2.14508e-27 0 -0 0 0)
(1 1.01396e-14 -0 1.04311e-14 1.05768e-28 -0 -0 -0 0)
(1 -2.06969e-15 -0 -1.90064e-15 3.93373e-30 0 -0 0 0)
(1 5.88921e-16 -0 6.98118e-16 4.11136e-31 -0 -0 -0 0)
(1 -8.95089e-17 -0 -1.11371e-17 9.96866e-34 0 -0 0 0)
(1 -1.40453e-17 -0 -3.41284e-17 4.79345e-34 0 -0 0 0)
(1 -1.79214e-16 -0 -1.49968e-16 2.68763e-32 0 -0 0 0)
(1 -1.69189e-16 -0 -1.16926e-16 1.97827e-32 0 -0 0 0)
(1 -7.80597e-17 -0 -4.80911e-17 3.75397e-33 0 -0 0 0)
(1 -7.60314e-17 -0 -9.39085e-17 7.14e-33 0 -0 0 0)
(1 -4.72283e-17 -0 -3.55504e-17 1.67899e-33 0 -0 0 0)
(1 3.79429e-17 -0 -2.56644e-17 -9.73783e-34 0 -0 -0 0)
(1 1.28507e-17 -0 -1.77806e-17 -2.28494e-34 0 -0 -0 0)
(1 4.3355e-17 -0 1.44852e-16 6.28007e-33 -0 -0 -0 0)
(1 1.58206e-16 -0 1.37117e-16 2.16928e-32 -0 -0 -0 0)
(1 1.38932e-16 -0 9.87466e-17 1.3719e-32 -0 -0 -0 0)
(1 9.1696e-17 -0 6.89682e-17 6.32411e-33 -0 -0 -0 0)
(1 3.88435e-17 -0 3.11576e-17 1.21027e-33 -0 -0 -0 0)
(1 -5.08594e-17 -0 -4.33649e-18 2.20552e-34 0 -0 0 0)
(1 -7.10852e-17 -0 5.45004e-17 -3.87417e-33 -0 -0 0 0)
(1 -2.96067e-14 -0 -2.91365e-14 8.62636e-28 0 -0 0 0)
(1 6.81219e-15 -0 6.9636e-15 4.74374e-29 -0 -0 -0 0)
(1 -1.52476e-15 -0 -1.35564e-15 2.06702e-30 0 -0 0 0)
(1 4.1989e-16 -0 5.09465e-16 2.13919e-31 -0 -0 -0 0)
(1 -1.07462e-16 -0 -1.14841e-17 1.23411e-33 0 -0 0 0)
(1 -3.2757e-17 -0 4.3832e-17 -1.4358e-33 -0 -0 0 0)
(1 1.25452e-18 -0 5.99814e-17 7.5248e-35 -0 -0 -0 0)
(1 -1.50191e-18 -0 2.92939e-17 -4.39968e-35 -0 -0 0 0)
(1 -8.76079e-17 -0 -2.11007e-16 1.84859e-32 0 -0 0 0)
(1 -2.3313e-16 -0 -2.91364e-16 6.79257e-32 0 -0 0 0)
(1 -1.98963e-16 -0 -1.64163e-16 3.26622e-32 0 -0 0 0)
(1 -6.4604e-17 -0 -8.76563e-17 5.66295e-33 0 -0 0 0)
(1 -2.35342e-17 -0 -1.18587e-16 2.79086e-33 0 -0 0 0)
(1 -5.64444e-17 -0 -9.45201e-17 5.33513e-33 0 -0 0 0)
(1 3.80757e-18 -0 1.28526e-17 4.89372e-35 -0 -0 -0 0)
(1 7.0892e-17 -0 1.14246e-16 8.0991e-33 -0 -0 -0 0)
(1 1.59754e-16 -0 1.49007e-16 2.38044e-32 -0 -0 -0 0)
(1 7.58559e-17 -0 1.1608e-16 8.80531e-33 -0 -0 -0 0)
(1 -4.74945e-17 -0 8.83001e-17 -4.19377e-33 -0 -0 0 0)
(1 -2.2906e-17 -0 7.39056e-17 -1.69288e-33 -0 -0 0 0)
(1 9.02542e-14 -0 9.10304e-14 8.21588e-27 -0 -0 -0 0)
(1 -1.96276e-14 -0 -1.95658e-14 3.8403e-28 0 -0 0 0)
(1 4.42587e-15 -0 4.58116e-15 2.02756e-29 -0 -0 -0 0)
(1 -1.0045e-15 -0 -9.2429e-16 9.28453e-31 0 -0 0 0)
(1 1.94604e-16 -0 2.69567e-16 5.24588e-32 -0 -0 -0 0)
(1 -1.31954e-16 -0 -4.31703e-17 5.6965e-33 0 -0 0 0)
(1 -8.5352e-18 -0 3.34176e-17 -2.85226e-34 -0 -0 0 0)
(1 1.47731e-17 -0 4.49691e-17 6.64334e-34 -0 -0 -0 0)
(1 -7.58214e-17 -0 -4.69555e-17 3.56023e-33 0 -0 0 0)
(1 -9.45525e-17 -0 -7.45289e-17 7.04689e-33 0 -0 0 0)
(1 -1.34331e-17 -0 -9.3539e-17 1.25652e-33 0 -0 0 0)
(1 -5.53362e-17 -0 -8.63616e-17 4.77892e-33 0 -0 0 0)
(1 -1.92765e-17 -0 -3.08889e-17 5.9543e-34 0 -0 0 0)
(1 -3.05859e-18 -0 -9.61786e-17 2.94171e-34 0 -0 0 0)
(1 -7.00257e-17 -0 -1.34998e-16 9.45337e-33 0 -0 0 0)
(1 -1.57289e-17 -0 -1.61346e-17 2.53779e-34 0 -0 0 0)
(1 2.33869e-17 -0 3.87777e-17 9.06888e-34 -0 -0 -0 0)
(1 -8.33229e-18 -0 7.00747e-17 -5.83883e-34 -0 -0 0 0)
(1 2.26901e-17 -0 1.1267e-16 2.55649e-33 -0 -0 -0 0)
(1 7.97318e-18 -0 6.22377e-17 4.96232e-34 -0 -0 -0 0)
(1 -1.06911e-13 -0 -1.07494e-13 1.14923e-26 0 -0 0 0)
(1 2.21669e-14 -0 2.24381e-14 4.97384e-28 -0 -0 -0 0)
(1 -5.38276e-15 -0 -5.27085e-15 2.83717e-29 0 -0 0 0)
(1 1.09223e-15 -0 1.22803e-15 1.34129e-30 -0 -0 -0 0)
(1 -1.8769e-16 -0 -2.09858e-16 3.93883e-32 0 -0 0 0)
(1 -8.82343e-17 -0 -2.9787e-17 2.62823e-33 0 -0 0 0)
(1 -1.65086e-16 -0 -1.02621e-16 1.69412e-32 0 -0 0 0)
(1 -1.66568e-16 -0 -1.25355e-16 2.08801e-32 0 -0 0 0)
(1 -2.47412e-16 -0 -9.81477e-17 2.42829e-32 0 -0 0 0)
(1 -1.60651e-16 -0 -6.21303e-17 9.98133e-33 0 -0 0 0)
(1 -7.29516e-17 -0 -1.37464e-16 1.00282e-32 0 -0 0 0)
(1 -1.25374e-16 -0 -1.88837e-16 2.36752e-32 0 -0 0 0)
(1 -1.42214e-16 -0 -8.80057e-17 1.25157e-32 0 -0 0 0)
(1 -2.87289e-17 -0 -1.11698e-17 3.20897e-34 0 -0 0 0)
(1 -5.48119e-18 -0 -1.44284e-17 7.90849e-35 0 -0 0 0)
(1 2.45985e-17 -0 2.23468e-17 5.49698e-34 -0 -0 -0 0)
(1 2.61154e-17 -0 6.27341e-17 1.63832e-33 -0 -0 -0 0)
(1 5.15003e-17 -0 1.11509e-16 5.74277e-33 -0 -0 -0 0)
(1 5.71861e-17 -0 7.49955e-17 4.2887e-33 -0 -0 -0 0)
(1 2.25333e-17 -0 5.27197e-17 1.18795e-33 -0 -0 -0 0)
(1 2.52111e-14 -0 2.58804e-14 6.52474e-28 -0 -0 -0 0)
(1 -4.67909e-15 -0 -4.73456e-15 2.21535e-29 0 -0 0 0)
(1 1.25769e-15 -0 1.33115e-15 1.67418e-30 -0 -0 -0 0)
(1 -1.78884e-16 -0 -1.57669e-16 2.82044e-32 0 -0 0 0)
(1 4.35291e-17 -0 3.25925e-17 1.41872e-33 -0 -0 -0 0)
(1 -3.34572e-17 -0 8.95287e-18 -2.99538e-34 -0 -0 0 0)
(1 -6.84501e-17 -0 4.61611e-18 -3.15973e-34 -0 -0 0 0)
(1 -1.25304e-16 -0 -9.60148e-17 1.2031e-32 0 -0 0 0)
(1 -1.89269e-16 -0 -1.39054e-16 2.63186e-32 0 -0 0 0)
(1 -1.37613e-16 -0 -9.21527e-17 1.26814e-32 0 -0 0 0)
(1 -1.82507e-16 -0 -1.12431e-16 2.05194e-32 0 -0 0 0)
(1 -1.44727e-16 -0 -1.19385e-16 1.72781e-32 0 -0 0 0)
(1 -1.75286e-16 -0 -1.22383e-16 2.14521e-32 0 -0 0 0)
(1 -7.83207e-17 -0 5.97238e-18 -4.67761e-34 -0 -0 0 0)
(1 -3.9988e-18 -0 8.93509e-17 -3.57296e-34 -0 -0 0 0)
(1 2.57327e-17 -0 4.13032e-17 1.06284e-33 -0 -0 -0 0)
(1 -2.57864e-17 -0 4.08972e-17 -1.05459e-33 -0 -0 0 0)
(1 5.5478e-17 -0 1.09999e-16 6.10251e-33 -0 -0 -0 0)
(1 4.77366e-17 -0 4.34129e-17 2.07238e-33 -0 -0 -0 0)
(1 1.91467e-17 -0 7.70656e-19 1.47555e-35 -0 -0 -0 0)
(1 9.82237e-14 -0 9.8711e-14 9.69576e-27 -0 -0 -0 0)
(1 -2.09538e-14 -0 -2.09951e-14 4.39928e-28 0 -0 0 0)
(1 5.0082e-15 -0 5.03319e-15 2.52072e-29 -0 -0 -0 0)
(1 -1.21181e-15 -0 -1.09561e-15 1.32767e-30 0 -0 0 0)
(1 1.57719e-16 -0 2.80843e-16 4.42942e-32 -0 -0 -0 0)
(1 6.89894e-17 -0 1.02413e-16 7.06538e-33 -0 -0 -0 0)
(1 1.40076e-16 -0 1.39214e-16 1.95005e-32 -0 -0 -0 0)
(1 8.8688e-17 -0 1.3889e-16 1.23179e-32 -0 -0 -0 0)
(1 1.33963e-16 -0 1.98747e-16 2.66248e-32 -0 -0 -0 0)
(1 1.86789e-16 -0 1.9054e-16 3.55909e-32 -0 -0 -0 0)
(1 6.85801e-17 -0 1.13244e-16 7.76631e-33 -0 -0 -0 0)
(1 -2.76764e-17 -0 -7.92468e-18 2.19326e-34 0 -0 0 0)
(1 -1.32864e-16 -0 -1.38094e-16 1.83478e-32 0 -0 0 0)
(1 -2.2851e-16 -0 -1.60872e-16 3.67608e-32 0 -0 0 0)
(1 -1.8826e-16 -0 -4.98323e-17 9.38143e-33 0 -0 0 0)
(1 -4.47871e-17 -0 7.21622e-17 -3.23193e-33 -0 -0 0 0)
(1 -2.02683e-17 -0 1.17361e-17 -2.3787e-34 -0 -0 0 0)
(1 -5.37377e-17 -0 -2.77898e-17 1.49336e-33 0 -0 0 0)
(1 -2.44225e-17 -0 -3.64614e-17 8.90479e-34 0 -0 0 0)
(1 -5.26002e-17 -0 -4.13855e-17 2.17688e-33 0 -0 0 0)
(1 -1.58977e-13 -0 -1.59626e-13 2.53769e-26 0 -0 0 0)
(1 3.39666e-14 -0 3.41426e-14 1.15971e-27 -0 -0 -0 0)
(1 -8.08977e-15 -0 -8.14165e-15 6.58641e-29 0 -0 0 0)
(1 1.51895e-15 -0 1.60421e-15 2.43672e-30 -0 -0 -0 0)
(1 -5.82302e-16 -0 -5.55629e-16 3.23544e-31 0 -0 0 0)
(1 -1.50669e-16 -0 -9.50559e-17 1.4322e-32 0 -0 0 0)
(1 -2.70445e-16 -0 -1.33e-16 3.5969e-32 0 -0 0 0)
(1 -1.34884e-16 -0 3.57711e-17 -4.82494e-33 -0 -0 0 0)
(1 1.06707e-16 -0 1.86907e-16 1.99443e-32 -0 -0 -0 0)
(1 1.86099e-16 -0 2.25785e-16 4.20184e-32 -0 -0 -0 0)
(1 1.47921e-16 -0 1.81536e-16 2.6853e-32 -0 -0 -0 0)
(1 8.25416e-17 -0 1.49968e-16 1.23786e-32 -0 -0 -0 0)
(1 8.87238e-17 -0 1.16361e-16 1.0324e-32 -0 -0 -0 0)
(1 -3.14359e-17 -0 -2.34565e-17 7.37376e-34 0 -0 0 0)
(1 -1.67657e-16 -0 -9.92469e-17 1.66395e-32 0 -0 0 0)
(1 -1.90172e-16 -0 1.15213e-17 -2.19103e-33 -0 -0 0 0)
(1 4.69612e-17 -0 1.26407e-16 5.93623e-33 -0 -0 -0 0)
(1 6.58227e-17 -0 5.01e-17 3.29772e-33 -0 -0 -0 0)
(1 -1.66535e-17 -0 -1.94693e-17 3.24232e-34 0 -0 0 0)
(1 -3.85204e-17 -0 1.15135e-17 -4.43506e-34 -0 -0 0 0)
(1 1.31226e-13 -0 1.31706e-13 1.72832e-26 -0 -0 -0 0)
(1 -2.87523e-14 -0 -2.88042e-14 8.28187e-28 0 -0 0 0)
(1 6.73773e-15 -0 6.77109e-15 4.56217e-29 -0 -0 -0 0)
(1 -1.35197e-15 -0 -1.42935e-15 1.93244e-30 0 -0 0 0)
(1 2.90298e-16 -0 3.15011e-16 9.1447e-32 -0 -0 -0 0)
(1 -1.94738e-16 -0 -1.02469e-16 1.99546e-32 0 -0 0 0)
(1 -1.37496e-16 -0 -7.96758e-17 1.09551e-32 0 -0 0 0)
(1 -1.90787e-16 -0 -1.4077e-16 2.6857e-32 0 -0 0 0)
(1 -9.9273e-17 -0 -8.95879e-17 8.89366e-33 0 -0 0 0)
(1 -1.91666e-17 -0 4.37084e-17 -8.3774e-34 -0 -0 0 0)
(1 -1.63272e-17 -0 8.36081e-17 -1.36509e-33 -0 -0 0 0)
(1 -2.49419e-17 -0 1.02451e-16 -2.55533e-33 -0 -0 0 0)
(1 -6.12653e-17 -0 5.71764e-17 -3.50293e-33 -0 -0 0 0)
(1 -3.4824e-17 -0 6.06192e-17 -2.111e-33 -0 -0 0 0)
(1 -6.63169e-17 -0 -4.67874e-17 3.10279e-33 0 -0 0 0)
(1 -1.64006e-16 -0 -8.41705e-17 1.38044e-32 0 -0 0 0)
(1 -7.16951e-17 -0 5.11736e-17 -3.6689e-33 -0 -0 0 0)
(1 5.55338e-17 -0 3.45926e-17 1.92106e-33 -0 -0 -0 0)
(1 1.36814e-17 -0 3.26551e-18 4.46766e-35 -0 -0 -0 0)
(1 -3.26198e-17 -0 4.33232e-17 -1.4132e-33 -0 -0 0 0)
(1 -4.7112e-14 -0 -4.72718e-14 2.22707e-27 0 -0 0 0)
(1 1.01271e-14 -0 1.01408e-14 1.02696e-28 -0 -0 -0 0)
(1 -2.35887e-15 -0 -2.37314e-15 5.59793e-30 0 -0 0 0)
(1 4.9444e-16 -0 5.26904e-16 2.60523e-31 -0 -0 -0 0)
(1 -7.6486e-17 -0 1.10853e-17 -8.47871e-34 -0 -0 0 0)
(1 2.27791e-17 -0 7.35449e-17 1.67529e-33 -0 -0 -0 0)
(1 4.0112e-18 -0 5.30874e-17 2.12944e-34 -0 -0 -0 0)
(1 7.84762e-17 -0 8.14143e-17 6.38909e-33 -0 -0 -0 0)
(1 1.12177e-16 -0 9.5384e-17 1.06999e-32 -0 -0 -0 0)
(1 5.9775e-17 -0 1.13173e-16 6.76494e-33 -0 -0 -0 0)
(1 -1.06988e-17 -0 1.45512e-16 -1.55681e-33 -0 -0 0 0)
(1 -1.85434e-17 -0 1.96444e-17 -3.64275e-34 -0 -0 0 0)
(1 -1.39202e-16 -0 -3.30811e-17 4.60497e-33 0 -0 0 0)
(1 -1.48959e-16 -0 5.31087e-17 -7.91105e-33 -0 -0 0 0)
(1 -1.59923e-17 -0 7.33491e-17 -1.17302e-33 -0 -0 0 0)
(1 4.57401e-17 -0 2.36529e-17 1.08189e-33 -0 -0 -0 0)
(1 -5.64222e-17 -0 -6.30807e-17 3.55915e-33 0 -0 0 0)
(1 -9.5449e-17 -0 -1.07152e-16 1.02276e-32 0 -0 0 0)
(1 -9.25235e-17 -0 -6.07759e-17 5.6232e-33 0 -0 0 0)
(1 -6.3717e-17 -0 3.42699e-17 -2.18357e-33 -0 -0 0 0)
(1 -4.48121e-14 -0 -4.48651e-14 2.0105e-27 0 -0 0 0)
(1 9.95078e-15 -0 9.93524e-15 9.88634e-29 -0 -0 -0 0)
(1 -2.47149e-15 -0 -2.48135e-15 6.13263e-30 0 -0 0 0)
(1 3.31143e-16 -0 3.99952e-16 1.32441e-31 -0 -0 -0 0)
(1 -2.75895e-16 -0 -1.9426e-16 5.35955e-32 0 -0 0 0)
(1 -1.28666e-16 -0 -7.03857e-17 9.05623e-33 0 -0 0 0)
(1 -1.33399e-16 -0 -1.44269e-17 1.92453e-33 0 -0 0 0)
(1 7.17355e-17 -0 1.53875e-16 1.10383e-32 -0 -0 -0 0)
(1 2.11575e-16 -0 2.38546e-16 5.04705e-32 -0 -0 -0 0)
(1 1.53582e-16 -0 2.32928e-16 3.57735e-32 -0 -0 -0 0)
(1 1.59995e-16 -0 2.26385e-16 3.62204e-32 -0 -0 -0 0)
(1 1.81207e-16 -0 2.58823e-16 4.69005e-32 -0 -0 -0 0)
(1 1.91071e-16 -0 3.90447e-16 7.46029e-32 -0 -0 -0 0)
(1 2.23647e-16 -0 3.79466e-16 8.48665e-32 -0 -0 -0 0)
(1 2.17696e-16 -0 2.33977e-16 5.09358e-32 -0 -0 -0 0)
(1 1.25276e-16 -0 6.53273e-17 8.18393e-33 -0 -0 -0 0)
(1 4.68607e-17 -0 2.89713e-17 1.35762e-33 -0 -0 -0 0)
(1 6.38376e-18 -0 4.76827e-17 3.04395e-34 -0 -0 -0 0)
(1 5.42012e-18 -0 5.52812e-17 2.99631e-34 -0 -0 -0 0)
(1 1.73156e-18 -0 6.6694e-17 1.15485e-34 -0 -0 -0 0)
(1 9.35429e-14 -0 9.39357e-14 8.78702e-27 -0 -0 -0 0)
(1 -1.98269e-14 -0 -1.99656e-14 3.95856e-28 0 -0 0 0)
(1 4.54423e-15 -0 4.61697e-15 2.09806e-29 -0 -0 -0 0)
(1 -1.15408e-15 -0 -1.0511e-15 1.21305e-30 0 -0 0 0)
(1 7.61142e-17 -0 2.63086e-16 2.00246e-32 -0 -0 -0 0)
(1 3.59395e-17 -0 1.48893e-16 5.35113e-33 -0 -0 -0 0)
(1 2.09479e-16 -0 1.20547e-16 2.52519e-32 -0 -0 -0 0)
(1 7.82175e-17 -0 8.07139e-17 6.31324e-33 -0 -0 -0 0)
(1 6.85027e-17 -0 1.65215e-16 1.13177e-32 -0 -0 -0 0)
(1 5.67237e-17 -0 1.71011e-16 9.70036e-33 -0 -0 -0 0)
(1 5.95921e-17 -0 8.16689e-17 4.86682e-33 -0 -0 -0 0)
(1 1.07079e-17 -0 1.37105e-16 1.4681e-33 -0 -0 -0 0)
(1 8.45712e-17 -0 2.03104e-16 1.71768e-32 -0 -0 -0 0)
(1 1.59433e-16 -0 2.12931e-16 3.39483e-32 -0 -0 -0 0)
(1 9.88499e-17 -0 1.12179e-16 1.10889e-32 -0 -0 -0 0)
(1 -2.15602e-18 -0 -5.35571e-17 1.1547e-34 0 -0 0 0)
(1 -4.15789e-17 -0 -3.44507e-18 1.43242e-34 0 -0 0 0)
(1 4.14667e-17 -0 1.5129e-16 6.27351e-33 -0 -0 -0 0)
(1 1.56258e-16 -0 2.29866e-16 3.59184e-32 -0 -0 -0 0)
(1 6.69688e-17 -0 1.1888e-16 7.96125e-33 -0 -0 -0 0)
(1 -1.05082e-13 -0 -1.05912e-13 1.11294e-26 0 -0 0 0)
(1 2.2369e-14 -0 2.25225e-14 5.03807e-28 -0 -0 -0 0)
(1 -5.35177e-15 -0 -5.2815e-15 2.82654e-29 0 -0 0 0)
(1 1.03803e-15 -0 1.13751e-15 1.18078e-30 -0 -0 -0 0)
(1 -2.52735e-16 -0 -1.889e-16 4.77417e-32 0 -0 0 0)
(1 1.67412e-16 -0 2.45343e-16 4.10733e-32 -0 -0 -0 0)
(1 2.45708e-16 -0 2.98959e-16 7.34565e-32 -0 -0 -0 0)
(1 2.65891e-16 -0 3.42094e-16 9.096e-32 -0 -0 -0 0)
(1 1.63698e-16 -0 2.29577e-16 3.75812e-32 -0 -0 -0 0)
(1 5.45955e-17 -0 6.78496e-17 3.70428e-33 -0 -0 -0 0)
(1 -1.49943e-18 -0 3.74178e-17 -5.61053e-35 -0 -0 0 0)
(1 -2.63498e-17 -0 5.53899e-17 -1.45951e-33 -0 -0 0 0)
(1 6.22871e-17 -0 4.54683e-17 2.83209e-33 -0 -0 -0 0)
(1 1.00144e-17 -0 3.53583e-18 3.54091e-35 -0 -0 -0 0)
(1 -4.28863e-17 -0 4.35469e-17 -1.86756e-33 -0 -0 0 0)
(1 -6.38802e-17 -0 3.45783e-17 -2.20887e-33 -0 -0 0 0)
(1 -3.20994e-17 -0 6.11571e-18 -1.9631e-34 -0 -0 0 0)
(1 -3.355e-17 -0 2.06907e-18 -6.94172e-35 -0 -0 0 0)
(1 6.22243e-17 -0 1.01728e-16 6.32995e-33 -0 -0 -0 0)
(1 1.98742e-17 -0 4.24648e-17 8.43951e-34 -0 -0 -0 0)
(1 6.29263e-14 -0 6.29955e-14 3.96407e-27 -0 -0 -0 0)
(1 -1.37542e-14 -0 -1.36769e-14 1.88115e-28 0 -0 0 0)
(1 3.14787e-15 -0 3.21154e-15 1.01095e-29 -0 -0 -0 0)
(1 -5.52473e-16 -0 -5.58667e-16 3.08648e-31 0 -0 0 0)
(1 3.01642e-16 -0 2.88053e-16 8.68888e-32 -0 -0 -0 0)
(1 8.96027e-17 -0 1.22284e-16 1.09569e-32 -0 -0 -0 0)
(1 7.60848e-17 -0 1.30047e-16 9.89458e-33 -0 -0 -0 0)
(1 4.11224e-18 -0 -2.0095e-18 -8.26354e-36 0 -0 -0 0)
(1 -9.95975e-17 -0 -5.27618e-17 5.25495e-33 0 -0 0 0)
(1 -6.24916e-17 -0 -7.9837e-17 4.98914e-33 0 -0 0 0)
(1 -1.64855e-18 -0 2.46453e-17 -4.0629e-35 -0 -0 0 0)
(1 4.13113e-17 -0 1.18643e-16 4.90129e-33 -0 -0 -0 0)
(1 8.06986e-17 -0 1.07765e-16 8.6965e-33 -0 -0 -0 0)
(1 5.41146e-17 -0 1.09826e-16 5.94318e-33 -0 -0 -0 0)
(1 1.43145e-16 -0 2.75257e-16 3.94017e-32 -0 -0 -0 0)
(1 2.25067e-16 -0 2.86128e-16 6.43979e-32 -0 -0 -0 0)
(1 1.59099e-16 -0 1.57504e-16 2.50587e-32 -0 -0 -0 0)
(1 7.65681e-17 -0 5.24379e-17 4.01507e-33 -0 -0 -0 0)
(1 7.37978e-17 -0 4.16695e-17 3.07512e-33 -0 -0 -0 0)
(1 2.48806e-17 -0 1.63916e-17 4.07832e-34 -0 -0 -0 0)
(1 2.64906e-14 -0 2.63571e-14 6.98214e-28 -0 -0 -0 0)
(1 -6.07898e-15 -0 -6.03803e-15 3.67051e-29 0 -0 0 0)
(1 1.16267e-15 -0 1.24012e-15 1.44184e-30 -0 -0 -0 0)
(1 -3.4237e-16 -0 -3.27612e-16 1.12165e-31 0 -0 0 0)
(1 9.25491e-17 -0 9.56979e-17 8.85675e-33 -0 -0 -0 0)
(1 9.3289e-19 -0 5.23597e-18 4.88459e-36 -0 -0 -0 0)
(1 -6.47e-17 -0 -3.05294e-17 1.97526e-33 0 -0 0 0)
(1 -1.20419e-16 -0 -1.30883e-16 1.57608e-32 0 -0 0 0)
(1 -1.33586e-16 -0 -9.3314e-17 1.24654e-32 0 -0 0 0)
(1 -4.46448e-17 -0 -2.5058e-17 1.11871e-33 0 -0 0 0)
(1 -3.08984e-17 -0 -1.5723e-19 4.85816e-36 0 -0 0 0)
(1 -3.72924e-17 -0 -2.82417e-17 1.0532e-33 0 -0 0 0)
(1 -2.77401e-17 -0 1.44342e-17 -4.00406e-34 -0 -0 0 0)
(1 1.12462e-16 -0 2.01503e-16 2.26615e-32 -0 -0 -0 0)
(1 2.83897e-16 -0 3.12073e-16 8.85966e-32 -0 -0 -0 0)
(1 2.90498e-16 -0 3.10807e-16 9.02889e-32 -0 -0 -0 0)
(1 1.78826e-16 -0 2.07232e-16 3.70585e-32 -0 -0 -0 0)
(1 1.62714e-16 -0 1.21583e-16 1.97833e-32 -0 -0 -0 0)
(1 6.98356e-17 -0 -1.35547e-17 -9.46597e-34 0 -0 -0 0)
(1 1.97225e-18 -0 -9.2685e-18 -1.82798e-35 0 -0 -0 0)
(1 -9.56946e-14 -0 -9.63547e-14 9.22063e-27 0 -0 0 0)
(1 2.00242e-14 -0 2.01272e-14 4.03031e-28 -0 -0 -0 0)
(1 -4.98269e-15 -0 -4.91114e-15 2.44707e-29 0 -0 0 0)
(1 9.45214e-16 -0 1.03362e-15 9.76993e-31 -0 -0 -0 0)
(1 -1.76166e-16 -0 -1.73576e-16 3.05782e-32 0 -0 0 0)
(1 9.52925e-17 -0 8.25608e-17 7.86742e-33 -0 -0 -0 0)
(1 2.0452e-17 -0 1.2176e-16 2.49025e-33 -0 -0 -0 0)
(1 6.95452e-17 -0 9.45568e-17 6.57597e-33 -0 -0 -0 0)
(1 3.15434e-17 -0 5.24375e-17 1.65406e-33 -0 -0 -0 0)
(1 2.97222e-17 -0 7.92871e-17 2.35659e-33 -0 -0 -0 0)
(1 8.09086e-17 -0 1.16885e-16 9.45699e-33 -0 -0 -0 0)
(1 1.36504e-16 -0 1.45923e-16 1.99191e-32 -0 -0 -0 0)
(1 2.22873e-16 -0 2.0574e-16 4.58539e-32 -0 -0 -0 0)
(1 1.86413e-16 -0 8.30694e-17 1.54852e-32 -0 -0 -0 0)
(1 4.83314e-17 -0 -4.64697e-17 -2.24595e-33 0 -0 -0 0)
(1 -7.97232e-17 -0 -3.06419e-17 2.44287e-33 0 -0 0 0)
(1 -5.96428e-17 -0 6.24784e-17 -3.72639e-33 -0 -0 0 0)
(1 3.05513e-17 -0 5.80786e-17 1.77438e-33 -0 -0 -0 0)
(1 3.35383e-17 -0 -6.24297e-17 -2.09379e-33 0 -0 -0 0)
(1 -3.17468e-17 -0 -7.67884e-17 2.43779e-33 0 -0 0 0)
(1 3.65532e-14 -0 3.67914e-14 1.34484e-27 -0 -0 -0 0)
(1 -7.1849e-15 -0 -7.22067e-15 5.18798e-29 0 -0 0 0)
(1 2.00655e-15 -0 1.96898e-15 3.95086e-30 -0 -0 -0 0)
(1 -2.13525e-16 -0 -2.73364e-16 5.83701e-32 0 -0 0 0)
(1 2.11022e-16 -0 2.08829e-16 4.40675e-32 -0 -0 -0 0)
(1 1.2355e-16 -0 1.15613e-16 1.4284e-32 -0 -0 -0 0)
(1 9.84771e-17 -0 7.71107e-17 7.59364e-33 -0 -0 -0 0)
(1 5.69477e-17 -0 7.03411e-17 4.00576e-33 -0 -0 -0 0)
(1 -2.84021e-18 -0 4.56937e-17 -1.2978e-34 -0 -0 0 0)
(1 5.31027e-17 -0 9.87238e-17 5.2425e-33 -0 -0 -0 0)
(1 1.05024e-16 -0 1.15534e-16 1.21338e-32 -0 -0 -0 0)
(1 1.32648e-16 -0 1.79235e-16 2.37753e-32 -0 -0 -0 0)
(1 1.8828e-16 -0 1.92435e-16 3.62317e-32 -0 -0 -0 0)
(1 1.234e-16 -0 6.83127e-17 8.42976e-33 -0 -0 -0 0)
(1 -2.83247e-18 -0 -4.73777e-17 1.34196e-34 0 -0 0 0)
(1 -4.73085e-17 -0 -1.18723e-16 5.6166e-33 0 -0 0 0)
(1 -8.2856e-17 -0 6.21419e-18 -5.14883e-34 -0 -0 0 0)
(1 -3.62131e-17 -0 2.30711e-17 -8.35479e-34 -0 -0 0 0)
(1 1.16575e-17 -0 -4.92546e-17 -5.74186e-34 0 -0 -0 0)
(1 -1.34309e-17 -0 -7.63354e-17 1.02525e-33 0 -0 0 0)
(1 7.67744e-14 -0 7.70242e-14 5.91349e-27 -0 -0 -0 0)
(1 -1.59243e-14 -0 -1.59918e-14 2.54658e-28 0 -0 0 0)
(1 4.04868e-15 -0 4.00592e-15 1.62187e-29 -0 -0 -0 0)
(1 -7.27973e-16 -0 -8.24892e-16 6.00499e-31 0 -0 0 0)
(1 1.98297e-16 -0 1.76906e-16 3.50799e-32 -0 -0 -0 0)
(1 -3.68728e-17 -0 -3.36694e-17 1.24149e-33 0 -0 0 0)
(1 2.04028e-17 -0 -9.18528e-18 -1.87405e-34 0 -0 -0 0)
(1 5.85027e-17 -0 1.07173e-16 6.2699e-33 -0 -0 -0 0)
(1 5.39121e-17 -0 5.44894e-17 2.93764e-33 -0 -0 -0 0)
(1 3.91104e-17 -0 3.67352e-17 1.43673e-33 -0 -0 -0 0)
(1 2.34131e-19 -0 -1.34806e-18 -3.15622e-37 0 -0 -0 0)
(1 -8.27656e-18 -0 5.27235e-18 -4.3637e-35 -0 -0 0 0)
(1 -3.83087e-18 -0 2.56908e-17 -9.84181e-35 -0 -0 0 0)
(1 5.76844e-17 -0 1.26389e-16 7.29066e-33 -0 -0 -0 0)
(1 1.08516e-16 -0 1.1689e-16 1.26844e-32 -0 -0 -0 0)
(1 1.04076e-16 -0 6.42993e-17 6.69202e-33 -0 -0 -0 0)
(1 5.35756e-17 -0 7.07384e-17 3.78986e-33 -0 -0 -0 0)
(1 2.35261e-17 -0 -8.04426e-18 -1.8925e-34 0 -0 -0 0)
(1 -2.03279e-17 -0 -6.28956e-17 1.27853e-33 0 -0 0 0)
(1 -1.93613e-17 -0 -4.53653e-17 8.7833e-34 0 -0 0 0)
)
;

boundaryField
{
    movingWall
    {
        type            calculated;
        value           uniform (1 0 0 0 0 0 0 0 0);
    }
    fixedWalls
    {
        type            calculated;
        value           uniform (1 0 0 0 0 0 0 0 0);
    }
    frontAndBack
    {
        type            empty;
    }
}


// ************************************************************************* //
