/*--------------------------------*- C++ -*----------------------------------*\
| =========                 |                                                 |
| \\      /  F ield         | OpenFOAM: The Open Source CFD Toolbox           |
|  \\    /   O peration     | Version:  2312                                  |
|   \\  /    A nd           | Website:  www.openfoam.com                      |
|    \\/     M anipulation  |                                                 |
\*---------------------------------------------------------------------------*/
FoamFile
{
    version     2.0;
    format      ascii;
    arch        "LSB;label=32;scalar=64";
    class       volVectorField;
    location    "9";
    object      UMean;
}
// * * * * * * * * * * * * * * * * * * * * * * * * * * * * * * * * * * * * * //

dimensions      [0 1 -1 0 0 0 0];

internalField   nonuniform List<vector> 
400
(
(-0.722274 4.16186e-05 0)
(-0.722613 0.000187996 0)
(-0.723242 0.000282793 0)
(-0.723968 0.000330429 0)
(-0.72477 0.000374363 0)
(-0.725667 0.00043243 0)
(-0.726686 0.000508572 0)
(-0.727835 0.000590253 0)
(-0.729064 0.000633961 0)
(-0.730251 0.00059486 0)
(-0.731213 0.000449905 0)
(-0.731763 0.000207132 0)
(-0.731754 -0.00012352 0)
(-0.731063 -0.000475508 0)
(-0.729705 -0.000801359 0)
(-0.727836 -0.0010156 0)
(-0.725734 -0.00102121 0)
(-0.723732 -0.000745539 0)
(-0.7224 -0.00029988 0)
(-0.722081 7.32131e-05 0)
(-0.722454 0.000408918 0)
(-0.723131 0.000878991 0)
(-0.724056 0.00113568 0)
(-0.725092 0.00126898 0)
(-0.726208 0.00139889 0)
(-0.727424 0.00156358 0)
(-0.728759 0.00173859 0)
(-0.730178 0.00186053 0)
(-0.731608 0.00184702 0)
(-0.732929 0.00162398 0)
(-0.733993 0.00115375 0)
(-0.734639 0.000442584 0)
(-0.734712 -0.000464882 0)
(-0.7341 -0.00147085 0)
(-0.73274 -0.00241838 0)
(-0.730698 -0.00308398 0)
(-0.728183 -0.00322352 0)
(-0.72553 -0.00261864 0)
(-0.723224 -0.00136261 0)
(-0.72222 -7.79098e-05 0)
(-0.722626 0.00113444 0)
(-0.723497 0.00182197 0)
(-0.724533 0.00219496 0)
(-0.725692 0.00242758 0)
(-0.72695 0.00266153 0)
(-0.728319 0.00293597 0)
(-0.729808 0.00320247 0)
(-0.731395 0.00336313 0)
(-0.73301 0.00329991 0)
(-0.734545 0.0029094 0)
(-0.735853 0.00212762 0)
(-0.736763 0.000939511 0)
(-0.73711 -0.000597176 0)
(-0.736776 -0.00235404 0)
(-0.735676 -0.00411054 0)
(-0.733745 -0.00552708 0)
(-0.731027 -0.00615572 0)
(-0.727754 -0.00552035 0)
(-0.724437 -0.00344155 0)
(-0.722384 -0.000803993 0)
(-0.722726 0.00203021 0)
(-0.723713 0.00286368 0)
(-0.724803 0.00332206 0)
(-0.726004 0.00365789 0)
(-0.727309 0.00400943 0)
(-0.728745 0.00440963 0)
(-0.73033 0.00479482 0)
(-0.732046 0.00503257 0)
(-0.733827 0.00496007 0)
(-0.735552 0.00442956 0)
(-0.737065 0.0033468 0)
(-0.738193 0.00169575 0)
(-0.738787 -0.000457578 0)
(-0.738731 -0.00295435 0)
(-0.73796 -0.00554709 0)
(-0.736376 -0.00788014 0)
(-0.733846 -0.0093939 0)
(-0.730322 -0.00929693 0)
(-0.726172 -0.00680181 0)
(-0.722788 -0.00220089 0)
(-0.72276 0.00301648 0)
(-0.723791 0.00396438 0)
(-0.724882 0.00447959 0)
(-0.726067 0.00490542 0)
(-0.727359 0.00537987 0)
(-0.728792 0.00592885 0)
(-0.730394 0.00646433 0)
(-0.732152 0.00681113 0)
(-0.733989 0.00675221 0)
(-0.735769 0.00609162 0)
(-0.737324 0.00471851 0)
(-0.738506 0.00263773 0)
(-0.739206 -5.60227e-05 0)
(-0.739357 -0.00317914 0)
(-0.738887 -0.00649396 0)
(-0.737756 -0.00970476 0)
(-0.735748 -0.0123085 0)
(-0.732518 -0.0133482 0)
(-0.728041 -0.0112857 0)
(-0.72362 -0.00494988 0)
(-0.722742 0.00401396 0)
(-0.723751 0.00505869 0)
(-0.724794 0.00561307 0)
(-0.725913 0.0061192 0)
(-0.727129 0.00671687 0)
(-0.728478 0.0074223 0)
(-0.729995 0.00811813 0)
(-0.731667 0.00857996 0)
(-0.733417 0.00853024 0)
(-0.735116 0.00773574 0)
(-0.736631 0.00608942 0)
(-0.737848 0.00362093 0)
(-0.738655 0.000461461 0)
(-0.738947 -0.00320249 0)
(-0.738678 -0.00710891 0)
(-0.73786 -0.0110019 0)
(-0.736383 -0.0145647 0)
(-0.733787 -0.0170167 0)
(-0.729526 -0.0163188 0)
(-0.724507 -0.0091053 0)
(-0.722686 0.00495657 0)
(-0.723619 0.00609042 0)
(-0.724571 0.00667134 0)
(-0.725575 0.00723937 0)
(-0.726651 0.00794074 0)
(-0.727831 0.00878577 0)
(-0.729149 0.00962573 0)
(-0.730602 0.0101931 0)
(-0.732139 0.0101659 0)
(-0.733679 0.00928955 0)
(-0.735142 0.00745466 0)
(-0.736424 0.004682 0)
(-0.737375 0.00109175 0)
(-0.737834 -0.0030977 0)
(-0.737741 -0.00757171 0)
(-0.737128 -0.0120165 0)
(-0.736009 -0.0162719 0)
(-0.734061 -0.0199769 0)
(-0.730357 -0.0211997 0)
(-0.725186 -0.0144076 0)
(-0.722607 0.00578966 0)
(-0.723421 0.00701351 0)
(-0.724246 0.00760744 0)
(-0.725095 0.00820904 0)
(-0.725977 0.00897451 0)
(-0.726912 0.00991424 0)
(-0.727924 0.0108606 0)
(-0.729038 0.0115341 0)
(-0.730251 0.0115773 0)
(-0.731544 0.0107083 0)
(-0.732893 0.00880704 0)
(-0.734207 0.00584386 0)
(-0.735297 0.00188887 0)
(-0.73598 -0.00281237 0)
(-0.73614 -0.00785569 0)
(-0.735793 -0.0128222 0)
(-0.734987 -0.0176213 0)
(-0.73359 -0.0222694 0)
(-0.730569 -0.0255327 0)
(-0.725575 -0.0203577 0)
(-0.722515 0.00647601 0)
(-0.723181 0.00779201 0)
(-0.723855 0.00838573 0)
(-0.724522 0.00898658 0)
(-0.725175 0.00976345 0)
(-0.725812 0.0107327 0)
(-0.726453 0.0117285 0)
(-0.727139 0.0124854 0)
(-0.727912 0.012643 0)
(-0.72882 0.0119086 0)
(-0.729911 0.0100985 0)
(-0.731132 0.00708685 0)
(-0.732325 0.00288646 0)
(-0.733257 -0.00225527 0)
(-0.733766 -0.00780244 0)
(-0.733839 -0.013281 0)
(-0.73347 -0.0185853 0)
(-0.732624 -0.0239879 0)
(-0.730344 -0.0292089 0)
(-0.72575 -0.0264653 0)
(-0.72242 0.00699581 0)
(-0.722926 0.00840569 0)
(-0.723435 0.00898673 0)
(-0.723912 0.00954943 0)
(-0.724326 0.0102765 0)
(-0.724653 0.0111973 0)
(-0.724901 0.0121766 0)
(-0.725113 0.0129714 0)
(-0.725365 0.0132534 0)
(-0.725749 0.0127124 0)
(-0.726366 0.0111282 0)
(-0.727272 0.00830336 0)
(-0.728416 0.00411422 0)
(-0.729566 -0.00124829 0)
(-0.730555 -0.00719782 0)
(-0.731234 -0.0131812 0)
(-0.731477 -0.0189901 0)
(-0.731289 -0.0251011 0)
(-0.729817 -0.0321379 0)
(-0.725856 -0.0324315 0)
(-0.722332 0.00734705 0)
(-0.72268 0.00884993 0)
(-0.723029 0.0094062 0)
(-0.723323 0.00989677 0)
(-0.723512 0.0105186 0)
(-0.723555 0.0113159 0)
(-0.723443 0.012193 0)
(-0.723206 0.0129431 0)
(-0.722924 0.0132929 0)
(-0.722712 0.0129535 0)
(-0.72272 0.0116868 0)
(-0.723067 0.009252 0)
(-0.72389 0.00539167 0)
(-0.725175 0.000148387 0)
(-0.726684 -0.00596092 0)
(-0.728067 -0.0123229 0)
(-0.729056 -0.0186509 0)
(-0.729647 -0.0254545 0)
(-0.729074 -0.0342562 0)
(-0.725971 -0.0381104 0)
(-0.722263 0.00754523 0)
(-0.722474 0.00913675 0)
(-0.722677 0.00965654 0)
(-0.722806 0.0100477 0)
(-0.722801 0.0105219 0)
(-0.72261 0.0111355 0)
(-0.722214 0.0118296 0)
(-0.721623 0.0124426 0)
(-0.720905 0.0127566 0)
(-0.720173 0.0125348 0)
(-0.719582 0.011557 0)
(-0.71931 0.00959463 0)
(-0.719603 0.00640676 0)
(-0.720694 0.00179941 0)
(-0.722521 -0.00407459 0)
(-0.724575 -0.0106127 0)
(-0.72635 -0.0174487 0)
(-0.727772 -0.0249325 0)
(-0.728187 -0.0354897 0)
(-0.726119 -0.0434576 0)
(-0.722227 0.00762726 0)
(-0.722333 0.00929038 0)
(-0.722414 0.0097601 0)
(-0.722402 0.010031 0)
(-0.722236 0.0103321 0)
(-0.721868 0.0107302 0)
(-0.721271 0.0111948 0)
(-0.720452 0.0116081 0)
(-0.71946 0.0118041 0)
(-0.718398 0.0115976 0)
(-0.717408 0.0108116 0)
(-0.716681 0.00927823 0)
(-0.716467 0.00679734 0)
(-0.717115 0.0031509 0)
(-0.718792 -0.00192192 0)
(-0.721158 -0.00828301 0)
(-0.723584 -0.0153925 0)
(-0.725777 -0.023482 0)
(-0.727235 -0.03577 0)
(-0.72632 -0.0484621 0)
(-0.722234 0.00766494 0)
(-0.722285 0.00935359 0)
(-0.722272 0.00974492 0)
(-0.72214 0.00987464 0)
(-0.721836 0.00998992 0)
(-0.72133 0.0101677 0)
(-0.7206 0.0103968 0)
(-0.719653 0.0105982 0)
(-0.718533 0.0106491 0)
(-0.717324 0.0104101 0)
(-0.716154 0.00975033 0)
(-0.715196 0.00855993 0)
(-0.714653 0.00671179 0)
(-0.714807 0.00396657 0)
(-0.71601 -3.14679e-05 0)
(-0.718217 -0.0056773 0)
(-0.720971 -0.0126401 0)
(-0.723778 -0.0211474 0)
(-0.726244 -0.0349502 0)
(-0.726566 -0.0529645 0)
(-0.722304 0.0076634 0)
(-0.722373 0.00934347 0)
(-0.722287 0.00961922 0)
(-0.722042 0.00958564 0)
(-0.721607 0.00951216 0)
(-0.720976 0.00948229 0)
(-0.720143 0.00949837 0)
(-0.719123 0.00950946 0)
(-0.717951 0.00942973 0)
(-0.716702 0.00915834 0)
(-0.715483 0.00860149 0)
(-0.714425 0.00768105 0)
(-0.713685 0.00630808 0)
(-0.713465 0.00430474 0)
(-0.714091 0.00130697 0)
(-0.715821 -0.00320447 0)
(-0.718538 -0.00949618 0)
(-0.721755 -0.0181117 0)
(-0.72499 -0.0328152 0)
(-0.726754 -0.0567507 0)
(-0.722473 0.00804072 0)
(-0.722604 0.00942782 0)
(-0.722468 0.00944465 0)
(-0.722107 0.00918774 0)
(-0.721533 0.00891299 0)
(-0.720769 0.00869085 0)
(-0.719829 0.00852652 0)
(-0.718738 0.00838371 0)
(-0.71753 0.00820241 0)
(-0.716266 0.0079117 0)
(-0.715027 0.00744224 0)
(-0.713917 0.00673175 0)
(-0.713055 0.00571459 0)
(-0.712582 0.0042724 0)
(-0.712744 0.00211154 0)
(-0.713856 -0.00126966 0)
(-0.716336 -0.00643789 0)
(-0.719368 -0.014795 0)
(-0.722956 -0.0294524 0)
(-0.726671 -0.0601687 0)
(-0.722848 0.0075281 0)
(-0.723245 0.00883893 0)
(-0.722933 0.00879194 0)
(-0.722347 0.00845921 0)
(-0.721566 0.00808201 0)
(-0.720625 0.00773714 0)
(-0.719539 0.00745183 0)
(-0.718336 0.00720778 0)
(-0.717052 0.00696358 0)
(-0.715732 0.00666897 0)
(-0.714439 0.00627272 0)
(-0.713247 0.00572584 0)
(-0.712259 0.00498549 0)
(-0.71159 0.00396629 0)
(-0.711436 0.00247872 0)
(-0.71197 4.8028e-05 0)
(-0.714121 -0.0038016 0)
(-0.715938 -0.0117583 0)
(-0.720216 -0.0255605 0)
(-0.726057 -0.0642111 0)
(-0.723365 0.0121658 0)
(-0.723783 0.0117075 0)
(-0.723145 0.0101662 0)
(-0.722268 0.00881012 0)
(-0.721229 0.0078427 0)
(-0.720018 0.00712742 0)
(-0.718664 0.00659181 0)
(-0.717219 0.00617689 0)
(-0.715724 0.00582374 0)
(-0.714218 0.00548439 0)
(-0.712749 0.00512091 0)
(-0.711387 0.00470386 0)
(-0.710215 0.00419768 0)
(-0.70931 0.00354376 0)
(-0.708876 0.00263854 0)
(-0.708842 0.00102615 0)
(-0.710757 -0.00175782 0)
(-0.709873 -0.00884799 0)
(-0.718331 -0.0202815 0)
(-0.723247 -0.0674249 0)
(-0.724082 0.00454541 0)
(-0.724806 0.0027992 0)
(-0.722564 0.00289809 0)
(-0.720071 0.00365808 0)
(-0.7175 0.00384039 0)
(-0.714997 0.00370776 0)
(-0.712628 0.00354497 0)
(-0.71039 0.00341308 0)
(-0.708265 0.00328951 0)
(-0.706239 0.00315317 0)
(-0.704318 0.00299547 0)
(-0.702526 0.00280829 0)
(-0.700906 0.00258118 0)
(-0.699464 0.00226878 0)
(-0.698448 0.00184158 0)
(-0.697401 0.000952335 0)
(-0.699217 -0.000289579 0)
(-0.695699 -0.00467487 0)
(-0.715716 -0.0105379 0)
(-0.706182 -0.0589014 0)
(-0.711134 0.0255357 0)
(-0.705337 0.0186783 0)
(-0.698574 0.0114494 0)
(-0.692853 0.00748069 0)
(-0.688511 0.00543013 0)
(-0.684897 0.00424099 0)
(-0.681625 0.00346421 0)
(-0.6786 0.00291698 0)
(-0.675799 0.00250843 0)
(-0.673193 0.00219214 0)
(-0.670766 0.00193671 0)
(-0.668511 0.00172168 0)
(-0.666454 0.00153269 0)
(-0.664576 0.00135269 0)
(-0.663141 0.00115777 0)
(-0.661535 0.000886195 0)
(-0.663032 0.000562302 0)
(-0.656859 -0.000610971 0)
(-0.690062 0.00157692 0)
(-0.621541 -0.0266267 0)
)
;

boundaryField
{
    movingWall
    {
        type            calculated;
        value           uniform (-0.444444 0 0);
    }
    fixedWalls
    {
        type            calculated;
        value           uniform (-0.722222 0 0);
    }
    frontAndBack
    {
        type            empty;
    }
}


// ************************************************************************* //
