/*--------------------------------*- C++ -*----------------------------------*\
| =========                 |                                                 |
| \\      /  F ield         | OpenFOAM: The Open Source CFD Toolbox           |
|  \\    /   O peration     | Version:  2312                                  |
|   \\  /    A nd           | Website:  www.openfoam.com                      |
|    \\/     M anipulation  |                                                 |
\*---------------------------------------------------------------------------*/
FoamFile
{
    version     2.0;
    format      ascii;
    arch        "LSB;label=32;scalar=64";
    class       volSymmTensorField;
    location    "9";
    object      UPrime2Mean;
}
// * * * * * * * * * * * * * * * * * * * * * * * * * * * * * * * * * * * * * //

dimensions      [0 2 -2 0 0 0 0];

internalField   nonuniform List<symmTensor> 
400
(
(0.200545 2.98683e-05 0 1.27857e-08 0 0)
(0.200054 0.00013556 0 1.22041e-07 0 0)
(0.199148 0.00020322 0 2.78386e-07 0 0)
(0.198107 0.000236564 0 3.86822e-07 0 0)
(0.196962 0.000266762 0 5.31366e-07 0 0)
(0.195688 0.00030623 0 8.15088e-07 0 0)
(0.194252 0.000357031 0 1.36989e-06 0 0)
(0.19265 0.000409328 0 2.27894e-06 0 0)
(0.190958 0.000432931 0 3.07175e-06 0 0)
(0.189351 0.000399515 0 3.00969e-06 0 0)
(0.188068 0.00029725 0 1.92849e-06 0 0)
(0.187347 0.000133787 0 5.88521e-07 0 0)
(0.187372 -8.63276e-05 0 1.06789e-07 0 0)
(0.188304 -0.00032192 0 1.12666e-06 0 0)
(0.190137 -0.000545543 0 3.50188e-06 0 0)
(0.192691 -0.000700937 0 5.91943e-06 0 0)
(0.195613 -0.00071723 0 6.10425e-06 0 0)
(0.198448 -0.000532847 0 3.07342e-06 0 0)
(0.200361 -0.000216509 0 3.55731e-07 0 0)
(0.200821 5.31426e-05 0 1.69311e-07 0 0)
(0.200284 0.000294818 0 5.86007e-07 0 0)
(0.199308 0.000631759 0 2.97469e-06 0 0)
(0.197983 0.000811789 0 5.11699e-06 0 0)
(0.196508 0.000901314 0 6.57649e-06 0 0)
(0.194931 0.000985852 0 8.58729e-06 0 0)
(0.193226 0.00109067 0 1.22891e-05 0 0)
(0.19138 0.0011963 0 1.794e-05 0 0)
(0.189445 0.00125877 0 2.37432e-05 0 0)
(0.18753 0.00122636 0 2.60144e-05 0 0)
(0.185791 0.00105789 0 2.1911e-05 0 0)
(0.184414 0.000736933 0 1.25849e-05 0 0)
(0.183593 0.000271272 0 3.31814e-06 0 0)
(0.183517 -0.000313841 0 1.14678e-06 0 0)
(0.184328 -0.00096522 0 1.14763e-05 0 0)
(0.18612 -0.00159422 0 3.3985e-05 0 0)
(0.188837 -0.00206357 0 5.84701e-05 0 0)
(0.192242 -0.00220347 0 6.65954e-05 0 0)
(0.195913 -0.00183504 0 4.38354e-05 0 0)
(0.199176 -0.000976855 0 9.93904e-06 0 0)
(0.200621 -5.5808e-05 0 7.16864e-07 0 0)
(0.200037 0.000816993 0 4.90037e-06 0 0)
(0.198782 0.00130622 0 1.3741e-05 0 0)
(0.197304 0.00156313 0 2.06035e-05 0 0)
(0.195661 0.0017153 0 2.60921e-05 0 0)
(0.193895 0.00186225 0 3.38853e-05 0 0)
(0.191995 0.00202818 0 4.68338e-05 0 0)
(0.189957 0.00217652 0 6.39978e-05 0 0)
(0.187823 0.00224219 0 7.89786e-05 0 0)
(0.18569 0.0021552 0 8.21946e-05 0 0)
(0.183696 0.00186167 0 6.79042e-05 0 0)
(0.182021 0.00133363 0 3.98732e-05 0 0)
(0.18087 0.000568183 0 1.1531e-05 0 0)
(0.18044 -0.000402524 0 2.19466e-06 0 0)
(0.180882 -0.00151187 0 2.8978e-05 0 0)
(0.182313 -0.00263953 0 9.73589e-05 0 0)
(0.184837 -0.00358987 0 0.000188226 0 0)
(0.188437 -0.00408113 0 0.000248521 0 0)
(0.192859 -0.00376666 0 0.000210682 0 0)
(0.197461 -0.00242749 0 8.00965e-05 0 0)
(0.200383 -0.000579702 0 2.98142e-06 0 0)
(0.199894 0.00146133 0 1.66306e-05 0 0)
(0.198474 0.00204963 0 3.52584e-05 0 0)
(0.196921 0.00236038 0 4.91596e-05 0 0)
(0.195223 0.00257679 0 6.22014e-05 0 0)
(0.193397 0.00279431 0 8.09756e-05 0 0)
(0.191412 0.00303097 0 0.000109873 0 0)
(0.189255 0.00323955 0 0.00014555 0 0)
(0.186957 0.00333443 0 0.000174036 0 0)
(0.18461 0.00322123 0 0.00017702 0 0)
(0.182366 0.00282289 0 0.000145068 0 0)
(0.18042 0.00209555 0 8.67752e-05 0 0)
(0.178979 0.00103649 0 2.78767e-05 0 0)
(0.178224 -0.000317281 0 2.9357e-06 0 0)
(0.1783 -0.00188237 0 4.40558e-05 0 0)
(0.179302 -0.0035247 0 0.000166723 0 0)
(0.181367 -0.00504224 0 0.000356153 0 0)
(0.184695 -0.00610156 0 0.000541511 0 0)
(0.189393 -0.00619308 0 0.000577376 0 0)
(0.195053 -0.00469658 0 0.000335253 0 0)
(0.199806 -0.00157695 0 3.14251e-05 0 0)
(0.199843 0.00217064 0 3.8092e-05 0 0)
(0.198363 0.00283557 0 6.91208e-05 0 0)
(0.196809 0.00318044 0 9.14317e-05 0 0)
(0.195134 0.00345308 0 0.000114873 0 0)
(0.193327 0.00374691 0 0.000149528 0 0)
(0.191345 0.0040739 0 0.000201048 0 0)
(0.189159 0.00437033 0 0.000261223 0 0)
(0.186795 0.00452398 0 0.000305466 0 0)
(0.184356 0.00440767 0 0.000305196 0 0)
(0.182018 0.00391494 0 0.000248372 0 0)
(0.179991 0.00299099 0 0.000151516 0 0)
(0.17846 0.0016449 0 5.45911e-05 0 0)
(0.177557 -6.71352e-05 0 5.99368e-06 0 0)
(0.177367 -0.00204221 0 4.9921e-05 0 0)
(0.177982 -0.00415072 0 0.000212144 0 0)
(0.179467 -0.00622435 0 0.00049166 0 0)
(0.182117 -0.007967 0 0.000837307 0 0)
(0.186419 -0.00879588 0 0.00108011 0 0)
(0.192479 -0.00767115 0 0.00088096 0 0)
(0.198625 -0.00350287 0 0.000198195 0 0)
(0.199866 0.00288921 0 6.88532e-05 0 0)
(0.19842 0.00361923 0 0.000113623 0 0)
(0.196932 0.0039882 0 0.000144731 0 0)
(0.195348 0.00431357 0 0.000180418 0 0)
(0.193642 0.00468946 0 0.000234289 0 0)
(0.191767 0.005121 0 0.000312186 0 0)
(0.189682 0.00552459 0 0.000398961 0 0)
(0.187411 0.0057548 0 0.000457927 0 0)
(0.185058 0.00564276 0 0.000450304 0 0)
(0.182792 0.00505379 0 0.000364842 0 0)
(0.18079 0.00393196 0 0.000228694 0 0)
(0.179198 0.00230415 0 9.37655e-05 0 0)
(0.178157 0.000256881 0 1.89895e-05 0 0)
(0.177791 -0.0020977 0 5.70308e-05 0 0)
(0.178156 -0.00461134 0 0.000242083 0 0)
(0.179238 -0.00714079 0 0.000581737 0 0)
(0.181191 -0.00950597 0 0.00105681 0 0)
(0.184655 -0.0112393 0 0.00156162 0 0)
(0.190423 -0.0110372 0 0.00166205 0 0)
(0.197372 -0.0063923 0 0.00065605 0 0)
(0.199944 0.0035694 0 0.000105578 0 0)
(0.198609 0.00436202 0 0.000164327 0 0)
(0.197248 0.00474952 0 0.000203515 0 0)
(0.195821 0.00511959 0 0.000250947 0 0)
(0.194303 0.00557174 0 0.000323292 0 0)
(0.192651 0.0061081 0 0.000426204 0 0)
(0.190821 0.00662317 0 0.000536873 0 0)
(0.18882 0.00693854 0 0.000608089 0 0)
(0.18672 0.00684799 0 0.000594266 0 0)
(0.184635 0.00619383 0 0.000486845 0 0)
(0.182676 0.0049153 0 0.000319969 0 0)
(0.180983 0.00303925 0 0.000151684 0 0)
(0.179751 0.000655594 0 4.92893e-05 0 0)
(0.179178 -0.00209184 0 7.61776e-05 0 0)
(0.179333 -0.00501219 0 0.000274266 0 0)
(0.180164 -0.00792565 0 0.000652798 0 0)
(0.181646 -0.0107585 0 0.00121086 0 0)
(0.184234 -0.0133167 0 0.00192905 0 0)
(0.18925 -0.0143892 0 0.0024832 0 0)
(0.19641 -0.0100953 0 0.00148783 0 0)
(0.200058 0.00417252 0 0.000142902 0 0)
(0.198892 0.00503126 0 0.000215114 0 0)
(0.197709 0.00543143 0 0.000260411 0 0)
(0.196499 0.0058312 0 0.000316313 0 0)
(0.195246 0.00633947 0 0.000401695 0 0)
(0.193925 0.00696054 0 0.000522173 0 0)
(0.192503 0.0075756 0 0.000649762 0 0)
(0.190946 0.00799043 0 0.000733471 0 0)
(0.189263 0.00796222 0 0.000721994 0 0)
(0.187484 0.00730369 0 0.000605942 0 0)
(0.185649 0.00594292 0 0.000422417 0 0)
(0.183891 0.0038775 0 0.000229598 0 0)
(0.182463 0.00117575 0 0.000100712 0 0)
(0.181603 -0.00198476 0 0.000111889 0 0)
(0.181444 -0.00533474 0 0.00031258 0 0)
(0.181942 -0.00861973 0 0.000714496 0 0)
(0.183021 -0.0118219 0 0.0013269 0 0)
(0.184859 -0.0150111 0 0.00218905 0 0)
(0.188935 -0.0174589 0 0.00320355 0 0)
(0.195855 -0.0142949 0 0.00262148 0 0)
(0.200192 0.00467084 0 0.000175072 0 0)
(0.199235 0.00560065 0 0.000259513 0 0)
(0.198267 0.00600699 0 0.000308239 0 0)
(0.197311 0.00641577 0 0.000367485 0 0)
(0.19638 0.00694798 0 0.00045726 0 0)
(0.195472 0.00761524 0 0.000583327 0 0)
(0.194563 0.00829913 0 0.000717201 0 0)
(0.193593 0.00880836 0 0.000810378 0 0)
(0.192506 0.00888444 0 0.000810514 0 0)
(0.191239 0.00831927 0 0.000706309 0 0)
(0.189733 0.00698764 0 0.000526537 0 0)
(0.188071 0.0048205 0 0.000321932 0 0)
(0.186483 0.00185593 0 0.000171576 0 0)
(0.185285 -0.00170302 0 0.000161864 0 0)
(0.184665 -0.00546743 0 0.000348078 0 0)
(0.184611 -0.00912711 0 0.000751362 0 0)
(0.185111 -0.0126664 0 0.0013967 0 0)
(0.186195 -0.0163517 0 0.00236082 0 0)
(0.18924 -0.0201318 0 0.00378536 0 0)
(0.195603 -0.01865 0 0.00390223 0 0)
(0.200329 0.00504979 0 0.000197667 0 0)
(0.199603 0.00605392 0 0.000292459 0 0)
(0.198869 0.00645939 0 0.000341901 0 0)
(0.198184 0.00685199 0 0.000398687 0 0)
(0.197591 0.00736564 0 0.00048281 0 0)
(0.197124 0.00802439 0 0.000600566 0 0)
(0.196774 0.0087316 0 0.000729032 0 0)
(0.196479 0.00930724 0 0.000824634 0 0)
(0.196131 0.0095045 0 0.000840244 0 0)
(0.1956 0.00908966 0 0.000759331 0 0)
(0.194744 0.00790009 0 0.000603645 0 0)
(0.193495 0.00580299 0 0.000414358 0 0)
(0.191942 0.00274197 0 0.000255662 0 0)
(0.190416 -0.00109339 0 0.000216812 0 0)
(0.189126 -0.00523577 0 0.000364519 0 0)
(0.188235 -0.00928484 0 0.000739655 0 0)
(0.187895 -0.0131633 0 0.0013913 0 0)
(0.18807 -0.0173017 0 0.00243465 0 0)
(0.189982 -0.0223122 0 0.0042085 0 0)
(0.195448 -0.0229266 0 0.00521077 0 0)
(0.200456 0.00530681 0 0.000208469 0 0)
(0.199957 0.0063857 0 0.000311262 0 0)
(0.199454 0.00678188 0 0.000359048 0 0)
(0.199032 0.00713331 0 0.000408548 0 0)
(0.198763 0.00758624 0 0.000479001 0 0)
(0.198709 0.00817734 0 0.000576813 0 0)
(0.198882 0.00883916 0 0.000686184 0 0)
(0.199247 0.00941645 0 0.000771877 0 0)
(0.199683 0.00969573 0 0.000796336 0 0)
(0.200024 0.00944905 0 0.000742404 0 0)
(0.200049 0.00848894 0 0.00062503 0 0)
(0.199588 0.0066381 0 0.000475099 0 0)
(0.198457 0.00372625 0 0.000333495 0 0)
(0.196691 -0.000150956 0 0.000266433 0 0)
(0.194623 -0.00452544 0 0.000351467 0 0)
(0.192712 -0.00891255 0 0.000664039 0 0)
(0.19131 -0.0131606 0 0.00128823 0 0)
(0.19039 -0.017741 0 0.00237921 0 0)
(0.191038 -0.0239358 0 0.00446038 0 0)
(0.195282 -0.0270016 0 0.00647551 0 0)
(0.200555 0.00545294 0 0.000207954 0 0)
(0.200256 0.00660237 0 0.000315963 0 0)
(0.199964 0.00698003 0 0.000360432 0 0)
(0.199781 0.0072685 0 0.000399709 0 0)
(0.199795 0.00762558 0 0.000452052 0 0)
(0.200083 0.00809707 0 0.000523282 0 0)
(0.20068 0.00864264 0 0.000603702 0 0)
(0.201573 0.00913985 0 0.000668029 0 0)
(0.202665 0.00941488 0 0.000688945 0 0)
(0.203788 0.00927385 0 0.000653336 0 0)
(0.204708 0.00853686 0 0.000572066 0 0)
(0.205158 0.00702608 0 0.000470135 0 0)
(0.204775 0.0045688 0 0.000373897 0 0)
(0.203232 0.00106648 0 0.000304306 0 0)
(0.200633 -0.00326391 0 0.000320791 0 0)
(0.197711 -0.00788558 0 0.00053685 0 0)
(0.19516 -0.0125353 0 0.00108949 0 0)
(0.193047 -0.0175718 0 0.00218162 0 0)
(0.192301 -0.0249382 0 0.00452364 0 0)
(0.195067 -0.0308301 0 0.00767651 0 0)
(0.200607 0.00551355 0 0.000199079 0 0)
(0.20046 0.00671989 0 0.000308815 0 0)
(0.200346 0.0070674 0 0.00034882 0 0)
(0.20037 0.00727528 0 0.000376843 0 0)
(0.200621 0.00751352 0 0.000410476 0 0)
(0.201171 0.00783451 0 0.000454963 0 0)
(0.202066 0.00821811 0 0.00050483 0 0)
(0.203304 0.00857414 0 0.000543818 0 0)
(0.204811 0.00876872 0 0.000554017 0 0)
(0.206438 0.00864736 0 0.000526617 0 0)
(0.207963 0.00806211 0 0.000470069 0 0)
(0.209092 0.00687873 0 0.000406179 0 0)
(0.209445 0.00495121 0 0.000352648 0 0)
(0.208511 0.00213785 0 0.000311922 0 0)
(0.206071 -0.00168865 0 0.000289588 0 0)
(0.202643 -0.00630856 0 0.000397768 0 0)
(0.199117 -0.0112475 0 0.000828973 0 0)
(0.19588 -0.016733 0 0.00185508 0 0)
(0.193656 -0.0252625 0 0.00438546 0 0)
(0.19478 -0.0343967 0 0.00881654 0 0)
(0.200596 0.00554113 0 0.000187119 0 0)
(0.200531 0.00676778 0 0.000294071 0 0)
(0.200554 0.00706271 0 0.000328004 0 0)
(0.200754 0.00717253 0 0.000344739 0 0)
(0.201208 0.00727949 0 0.000361559 0 0)
(0.201964 0.00744151 0 0.000383561 0 0)
(0.203057 0.00765142 0 0.000407933 0 0)
(0.204484 0.00784795 0 0.000425452 0 0)
(0.206184 0.00793164 0 0.000425306 0 0)
(0.20803 0.0077859 0 0.000402137 0 0)
(0.209823 0.00730053 0 0.000361639 0 0)
(0.211293 0.00638708 0 0.000319624 0 0)
(0.21213 0.00495309 0 0.000290934 0 0)
(0.211909 0.00282978 0 0.000273587 0 0)
(0.210132 -0.000225755 0 0.000258246 0 0)
(0.206899 -0.00441964 0 0.000285651 0 0)
(0.202869 -0.00937752 0 0.000562733 0 0)
(0.198724 -0.0152307 0 0.00144326 0 0)
(0.195061 -0.0248036 0 0.00402161 0 0)
(0.194429 -0.0375906 0 0.0098582 0 0)
(0.200492 0.00553799 0 0.000174315 0 0)
(0.200406 0.00675744 0 0.000274745 0 0)
(0.200535 0.0069708 0 0.000300695 0 0)
(0.200903 0.00696508 0 0.000306488 0 0)
(0.201548 0.00693681 0 0.00030945 0 0)
(0.202488 0.00694703 0 0.000314622 0 0)
(0.203733 0.0069972 0 0.000320953 0 0)
(0.205267 0.00704721 0 0.000323648 0 0)
(0.207038 0.00702755 0 0.000316848 0 0)
(0.208936 0.00685454 0 0.000297426 0 0)
(0.210794 0.00644991 0 0.000268332 0 0)
(0.212405 0.00575118 0 0.000238468 0 0)
(0.213527 0.00469313 0 0.000218296 0 0)
(0.213857 0.00314806 0 0.000211368 0 0)
(0.212917 0.000851047 0 0.000207837 0 0)
(0.210358 -0.00254995 0 0.000211423 0 0)
(0.206362 -0.00713575 0 0.000344998 0 0)
(0.20161 -0.0131815 0 0.00101631 0 0)
(0.196839 -0.0234285 0 0.00341744 0 0)
(0.19416 -0.0402866 0 0.0107298 0 0)
(0.200247 0.00580675 0 0.000181154 0 0)
(0.200072 0.00681003 0 0.000263257 0 0)
(0.200276 0.0068369 0 0.000273662 0 0)
(0.200812 0.0066711 0 0.000266496 0 0)
(0.201662 0.00649777 0 0.000257519 0 0)
(0.202796 0.00636695 0 0.000250635 0 0)
(0.204197 0.00628147 0 0.000245494 0 0)
(0.205832 0.00621246 0 0.000239472 0 0)
(0.20765 0.0061118 0 0.000229465 0 0)
(0.209563 0.00592157 0 0.000213584 0 0)
(0.211439 0.005585 0 0.0001927 0 0)
(0.21312 0.00505277 0 0.000170704 0 0)
(0.21442 0.00427616 0 0.00015334 0 0)
(0.215123 0.00316943 0 0.000145432 0 0)
(0.214865 0.00151641 0 0.000143722 0 0)
(0.213199 -0.00104925 0 0.000145522 0 0)
(0.20953 -0.00488491 0 0.000198477 0 0)
(0.205045 -0.0108933 0 0.000657342 0 0)
(0.199747 -0.021225 0 0.00265702 0 0)
(0.19428 -0.0427857 0 0.0115328 0 0)
(0.199699 0.00542903 0 0.000153437 0 0)
(0.199149 0.00636542 0 0.000219104 0 0)
(0.199603 0.00634784 0 0.000224655 0 0)
(0.200465 0.00613018 0 0.000214515 0 0)
(0.201613 0.00588407 0 0.000201429 0 0)
(0.203003 0.00566332 0 0.000189239 0 0)
(0.204617 0.00548676 0 0.000178975 0 0)
(0.206413 0.00533937 0 0.000169549 0 0)
(0.20834 0.00518834 0 0.000159235 0 0)
(0.21033 0.0049935 0 0.000146741 0 0)
(0.212284 0.00471373 0 0.000131916 0 0)
(0.214085 0.0043105 0 0.000115946 0 0)
(0.215571 0.00375143 0 0.000101188 0 0)
(0.216566 0.00297351 0 9.00959e-05 0 0)
(0.216778 0.001836 0 8.40295e-05 0 0)
(0.215956 -1.30278e-05 0 8.14015e-05 0 0)
(0.212734 -0.00290934 0 0.000107762 0 0)
(0.210049 -0.00878651 0 0.000417555 0 0)
(0.203708 -0.0186454 0 0.00192814 0 0)
(0.19517 -0.0458618 0 0.0125621 0 0)
(0.198948 0.00875668 0 0.000395238 0 0)
(0.198374 0.008409 0 0.000374448 0 0)
(0.199292 0.00732759 0 0.000290269 0 0)
(0.20057 0.00637729 0 0.000223673 0 0)
(0.202089 0.00570652 0 0.000181708 0 0)
(0.20387 0.00521738 0 0.000153636 0 0)
(0.205875 0.00485757 0 0.000134148 0 0)
(0.208028 0.00458323 0 0.000119669 0 0)
(0.21027 0.00435026 0 0.000107549 0 0)
(0.21254 0.00412203 0 9.61967e-05 0 0)
(0.214764 0.00386905 0 8.49041e-05 0 0)
(0.216828 0.00356825 0 7.36236e-05 0 0)
(0.218603 0.00319217 0 6.24161e-05 0 0)
(0.219966 0.00269639 0 5.12228e-05 0 0)
(0.220607 0.00200119 0 4.04733e-05 0 0)
(0.220636 0.00076204 0 3.02205e-05 0 0)
(0.217714 -0.00136554 0 4.22225e-05 0 0)
(0.219082 -0.00676962 0 0.000256436 0 0)
(0.206428 -0.0149158 0 0.00117256 0 0)
(0.199268 -0.0487938 0 0.0131117 0 0)
(0.197943 0.00326679 0 5.73182e-05 0 0)
(0.196903 0.00200031 0 2.16783e-05 0 0)
(0.200128 0.00209266 0 2.36499e-05 0 0)
(0.203747 0.00266717 0 3.82906e-05 0 0)
(0.207518 0.00282973 0 4.2933e-05 0 0)
(0.211228 0.00276057 0 4.08219e-05 0 0)
(0.214777 0.0026659 0 3.79593e-05 0 0)
(0.218163 0.00259106 0 3.56587e-05 0 0)
(0.221409 0.00251956 0 3.34848e-05 0 0)
(0.224529 0.00243526 0 3.10494e-05 0 0)
(0.227509 0.00233114 0 2.82827e-05 0 0)
(0.230309 0.00220044 0 2.51855e-05 0 0)
(0.232853 0.00203437 0 2.17453e-05 0 0)
(0.235128 0.00179659 0 1.74433e-05 0 0)
(0.236735 0.00146065 0 1.22978e-05 0 0)
(0.238389 0.000749974 0 5.1479e-06 0 0)
(0.235513 -0.000256419 0 6.6296e-06 0 0)
(0.241067 -0.00378577 0 8.75931e-05 0 0)
(0.210235 -0.00784649 0 0.0003343 0 0)
(0.224843 -0.0453845 0 0.00956563 0 0)
(0.217031 0.0191938 0 0.00170956 0 0)
(0.225753 0.0143275 0 0.000941493 0 0)
(0.23628 0.00900116 0 0.000365534 0 0)
(0.245361 0.00600343 0 0.000160746 0 0)
(0.252388 0.0044273 0 8.66147e-05 0 0)
(0.258319 0.00350328 0 5.36813e-05 0 0)
(0.263755 0.00289563 0 3.62558e-05 0 0)
(0.268839 0.00246498 0 2.59594e-05 0 0)
(0.273598 0.00214136 0 1.9362e-05 0 0)
(0.278068 0.00188919 0 1.49056e-05 0 0)
(0.28227 0.00168395 0 1.17241e-05 0 0)
(0.286208 0.00150943 0 9.33444e-06 0 0)
(0.28983 0.00135396 0 7.44792e-06 0 0)
(0.293158 0.00120304 0 5.827e-06 0 0)
(0.295718 0.00103446 0 4.25938e-06 0 0)
(0.29858 0.000793641 0 2.42257e-06 0 0)
(0.295915 0.000495121 0 9.66543e-07 0 0)
(0.306828 -0.000578136 0 3.82533e-06 0 0)
(0.249986 0.00121867 0 3.01106e-05 0 0)
(0.373416 -0.026314 0 0.00186417 0 0)
)
;

boundaryField
{
    movingWall
    {
        type            calculated;
        value           uniform (0.802469 0 0 0 0 0);
    }
    fixedWalls
    {
        type            calculated;
        value           uniform (0.200617 0 0 0 0 0);
    }
    frontAndBack
    {
        type            empty;
    }
}


// ************************************************************************* //
