/*--------------------------------*- C++ -*----------------------------------*\
| =========                 |                                                 |
| \\      /  F ield         | OpenFOAM: The Open Source CFD Toolbox           |
|  \\    /   O peration     | Version:  2312                                  |
|   \\  /    A nd           | Website:  www.openfoam.com                      |
|    \\/     M anipulation  |                                                 |
\*---------------------------------------------------------------------------*/
FoamFile
{
    version     2.0;
    format      ascii;
    arch        "LSB;label=32;scalar=64";
    class       volVectorField;
    location    "9";
    object      vorticityField;
}
// * * * * * * * * * * * * * * * * * * * * * * * * * * * * * * * * * * * * * //

dimensions      [0 0 -1 0 0 0 0];

internalField   nonuniform List<vector> 
400
(
(0 -0 9.55617e-12)
(0 -0 -1.19948e-11)
(0 -0 2.65015e-12)
(0 -0 -5.76039e-13)
(0 -0 1.49392e-13)
(0 -0 -4.29959e-14)
(0 -0 -2.88275e-14)
(0 -0 -5.28828e-15)
(0 -0 -2.66186e-14)
(0 -0 3.76507e-16)
(0 -0 -6.35162e-16)
(0 -0 4.92789e-14)
(0 -0 6.37903e-14)
(0 -0 1.81822e-14)
(0 -0 2.53847e-15)
(0 -0 -1.2154e-14)
(0 -0 3.03276e-14)
(0 -0 -1.15264e-14)
(0 -0 9.33787e-15)
(0 -0 6.73818e-15)
(0 -0 1.15895e-12)
(0 -0 -1.64759e-12)
(0 -0 5.08183e-13)
(0 -0 -7.94315e-14)
(0 -0 2.47199e-14)
(0 -0 3.36359e-14)
(0 -0 3.62881e-14)
(0 -0 1.06852e-13)
(0 -0 9.41112e-14)
(0 -0 7.41917e-14)
(0 -0 7.38545e-14)
(0 -0 2.56784e-14)
(0 -0 4.15932e-14)
(0 -0 6.48306e-14)
(0 -0 -4.6834e-15)
(0 -0 -3.61098e-14)
(0 -0 -1.31309e-13)
(0 -0 -7.42665e-14)
(0 -0 5.2836e-15)
(0 -0 2.33741e-14)
(0 -0 -5.50481e-12)
(0 -0 8.95887e-12)
(0 -0 -2.27409e-12)
(0 -0 3.52906e-13)
(0 -0 -2.62473e-13)
(0 -0 -6.70905e-14)
(0 -0 -4.08913e-14)
(0 -0 -1.0001e-13)
(0 -0 -1.09662e-13)
(0 -0 -8.7189e-14)
(0 -0 -9.11174e-14)
(0 -0 -8.41633e-14)
(0 -0 -3.29491e-14)
(0 -0 -5.80809e-15)
(0 -0 8.76331e-15)
(0 -0 9.48798e-14)
(0 -0 5.82956e-14)
(0 -0 1.68503e-14)
(0 -0 -8.5375e-15)
(0 -0 -8.63024e-15)
(0 -0 1.7747e-12)
(0 -0 -4.06431e-12)
(0 -0 9.1909e-13)
(0 -0 -2.16055e-13)
(0 -0 1.0033e-13)
(0 -0 1.38831e-14)
(0 -0 8.27977e-15)
(0 -0 -9.15029e-14)
(0 -0 -5.65119e-14)
(0 -0 -5.54642e-14)
(0 -0 -6.10345e-14)
(0 -0 -2.8882e-14)
(0 -0 -9.83668e-14)
(0 -0 -6.96999e-14)
(0 -0 4.61056e-15)
(0 -0 6.81491e-15)
(0 -0 6.7589e-15)
(0 -0 8.86456e-14)
(0 -0 -2.33428e-15)
(0 -0 3.21214e-14)
(0 -0 1.45835e-12)
(0 -0 -2.56124e-12)
(0 -0 6.72519e-13)
(0 -0 -1.0731e-13)
(0 -0 7.36684e-14)
(0 -0 1.99585e-14)
(0 -0 2.85589e-14)
(0 -0 1.08414e-13)
(0 -0 1.13381e-13)
(0 -0 4.95256e-14)
(0 -0 -2.03708e-14)
(0 -0 2.25475e-14)
(0 -0 -2.64187e-14)
(0 -0 -1.3144e-14)
(0 -0 -7.50867e-14)
(0 -0 -6.78255e-14)
(0 -0 -1.83396e-16)
(0 -0 -4.81394e-14)
(0 -0 4.21739e-15)
(0 -0 -1.08845e-14)
(0 -0 -6.03516e-12)
(0 -0 8.31967e-12)
(0 -0 -1.89125e-12)
(0 -0 4.3116e-13)
(0 -0 -8.8112e-14)
(0 -0 -3.49014e-15)
(0 -0 1.82911e-14)
(0 -0 3.51424e-14)
(0 -0 1.19498e-14)
(0 -0 4.65835e-15)
(0 -0 1.18327e-15)
(0 -0 -6.26501e-15)
(0 -0 5.51918e-14)
(0 -0 1.0411e-14)
(0 -0 4.62057e-14)
(0 -0 -1.73776e-14)
(0 -0 4.55892e-14)
(0 -0 -3.44943e-14)
(0 -0 7.83705e-16)
(0 -0 1.74907e-14)
(0 -0 7.66531e-12)
(0 -0 -9.7344e-12)
(0 -0 2.22943e-12)
(0 -0 -4.51889e-13)
(0 -0 2.34202e-13)
(0 -0 9.76964e-14)
(0 -0 9.55678e-15)
(0 -0 -4.47296e-16)
(0 -0 2.07826e-14)
(0 -0 3.93165e-15)
(0 -0 3.97757e-14)
(0 -0 -3.20509e-14)
(0 -0 -4.48717e-14)
(0 -0 -7.35773e-15)
(0 -0 -3.35166e-15)
(0 -0 -7.71625e-15)
(0 -0 -1.17336e-13)
(0 -0 -1.22614e-15)
(0 -0 5.87896e-15)
(0 -0 1.27715e-14)
(0 -0 -1.27433e-12)
(0 -0 2.21098e-12)
(0 -0 -4.30584e-13)
(0 -0 1.84066e-13)
(0 -0 -1.66622e-14)
(0 -0 8.41128e-14)
(0 -0 9.18119e-14)
(0 -0 9.56821e-14)
(0 -0 5.38239e-14)
(0 -0 5.15478e-14)
(0 -0 2.98282e-14)
(0 -0 -2.61098e-14)
(0 -0 -3.96408e-14)
(0 -0 -7.53835e-14)
(0 -0 -5.77432e-14)
(0 -0 4.84536e-15)
(0 -0 -6.86955e-15)
(0 -0 -2.51562e-16)
(0 -0 1.09228e-14)
(0 -0 -2.26867e-14)
(0 -0 -8.12396e-12)
(0 -0 9.12384e-12)
(0 -0 -2.20679e-12)
(0 -0 3.9392e-13)
(0 -0 -2.01117e-13)
(0 -0 -6.71523e-14)
(0 -0 -3.07528e-14)
(0 -0 -3.30584e-14)
(0 -0 -5.16504e-15)
(0 -0 8.5503e-15)
(0 -0 7.40566e-14)
(0 -0 1.33554e-13)
(0 -0 6.95048e-14)
(0 -0 4.53839e-14)
(0 -0 3.80164e-15)
(0 -0 4.80533e-14)
(0 -0 6.42053e-14)
(0 -0 4.81975e-15)
(0 -0 1.35957e-15)
(0 -0 1.93204e-14)
(0 -0 1.25213e-11)
(0 -0 -1.4769e-11)
(0 -0 3.47068e-12)
(0 -0 -7.85707e-13)
(0 -0 1.15717e-13)
(0 -0 -1.50683e-13)
(0 -0 -1.21503e-13)
(0 -0 -1.67516e-13)
(0 -0 -1.27422e-13)
(0 -0 -8.07781e-14)
(0 -0 -4.66284e-14)
(0 -0 -7.47976e-14)
(0 -0 -9.7626e-15)
(0 -0 2.15608e-14)
(0 -0 -3.49778e-15)
(0 -0 -1.03881e-13)
(0 -0 -3.09629e-14)
(0 -0 4.16927e-14)
(0 -0 3.85865e-15)
(0 -0 2.63095e-14)
(0 -0 -9.80226e-12)
(0 -0 1.23037e-11)
(0 -0 -2.73748e-12)
(0 -0 8.35343e-13)
(0 -0 2.83683e-15)
(0 -0 1.74994e-13)
(0 -0 1.39355e-13)
(0 -0 1.63622e-13)
(0 -0 1.17077e-13)
(0 -0 6.39956e-14)
(0 -0 -5.87428e-15)
(0 -0 2.97482e-14)
(0 -0 8.54984e-14)
(0 -0 6.46065e-14)
(0 -0 4.1584e-14)
(0 -0 -9.7961e-15)
(0 -0 -3.89814e-14)
(0 -0 4.79081e-15)
(0 -0 -2.79781e-14)
(0 -0 4.65887e-15)
(0 -0 5.2852e-12)
(0 -0 -4.78802e-12)
(0 -0 1.15112e-12)
(0 -0 -2.38423e-13)
(0 -0 1.53756e-13)
(0 -0 1.0422e-13)
(0 -0 1.07633e-13)
(0 -0 1.04191e-13)
(0 -0 1.05244e-13)
(0 -0 7.63023e-14)
(0 -0 1.44878e-13)
(0 -0 2.07595e-13)
(0 -0 7.79687e-14)
(0 -0 7.06721e-14)
(0 -0 5.71557e-14)
(0 -0 4.0748e-14)
(0 -0 6.72906e-14)
(0 -0 -2.30476e-16)
(0 -0 1.29628e-14)
(0 -0 -2.65061e-15)
(0 -0 1.67695e-12)
(0 -0 -3.85891e-12)
(0 -0 7.63793e-13)
(0 -0 -3.10024e-13)
(0 -0 -8.84915e-14)
(0 -0 -1.53509e-13)
(0 -0 -2.39266e-13)
(0 -0 -2.42138e-13)
(0 -0 -2.24746e-13)
(0 -0 -1.88519e-13)
(0 -0 -1.6522e-13)
(0 -0 -2.06142e-13)
(0 -0 -2.018e-13)
(0 -0 -1.46983e-13)
(0 -0 -2.27963e-14)
(0 -0 2.05006e-14)
(0 -0 1.76446e-15)
(0 -0 5.15791e-14)
(0 -0 -1.90113e-15)
(0 -0 -1.49075e-14)
(0 -0 -7.99333e-12)
(0 -0 8.85056e-12)
(0 -0 -2.08118e-12)
(0 -0 3.26968e-13)
(0 -0 -2.2842e-13)
(0 -0 -9.41663e-14)
(0 -0 -2.02872e-14)
(0 -0 -3.15719e-14)
(0 -0 -6.32398e-14)
(0 -0 8.35463e-15)
(0 -0 -2.37145e-14)
(0 -0 -6.63536e-14)
(0 -0 -7.58261e-15)
(0 -0 -1.80126e-14)
(0 -0 2.66488e-14)
(0 -0 1.15624e-14)
(0 -0 -4.75898e-14)
(0 -0 -7.75413e-14)
(0 -0 3.24104e-15)
(0 -0 3.48746e-14)
(0 -0 8.55576e-12)
(0 -0 -9.92749e-12)
(0 -0 2.30113e-12)
(0 -0 -5.0926e-13)
(0 -0 1.16322e-13)
(0 -0 -4.87859e-14)
(0 -0 1.74299e-14)
(0 -0 3.40433e-14)
(0 -0 1.0874e-13)
(0 -0 1.54741e-13)
(0 -0 1.36771e-13)
(0 -0 1.3472e-13)
(0 -0 1.40711e-13)
(0 -0 1.35717e-13)
(0 -0 7.82109e-14)
(0 -0 5.79532e-14)
(0 -0 3.0356e-14)
(0 -0 -9.56122e-15)
(0 -0 -4.03957e-15)
(0 -0 4.15243e-14)
(0 -0 -4.6608e-12)
(0 -0 5.78866e-12)
(0 -0 -1.42025e-12)
(0 -0 2.92348e-13)
(0 -0 -4.099e-14)
(0 -0 1.58006e-14)
(0 -0 9.37445e-14)
(0 -0 4.53859e-14)
(0 -0 6.19929e-14)
(0 -0 -3.48458e-14)
(0 -0 -1.01163e-13)
(0 -0 -3.5417e-14)
(0 -0 -8.04334e-14)
(0 -0 -9.80643e-14)
(0 -0 -4.47353e-14)
(0 -0 1.17753e-14)
(0 -0 2.3369e-14)
(0 -0 1.15834e-14)
(0 -0 -2.35004e-14)
(0 -0 -2.12989e-14)
(0 -0 -8.03416e-14)
(0 -0 2.02381e-12)
(0 -0 -4.35516e-13)
(0 -0 1.14442e-13)
(0 -0 2.09253e-14)
(0 -0 3.97278e-14)
(0 -0 -4.05982e-14)
(0 -0 -2.08266e-14)
(0 -0 -1.19003e-13)
(0 -0 -1.17736e-13)
(0 -0 -8.09968e-14)
(0 -0 -1.09879e-13)
(0 -0 -1.0429e-13)
(0 -0 -1.38184e-13)
(0 -0 -1.73561e-13)
(0 -0 -7.0831e-14)
(0 -0 -3.52878e-14)
(0 -0 2.20786e-14)
(0 -0 1.30852e-14)
(0 -0 -2.28232e-15)
(0 -0 4.07199e-12)
(0 -0 -8.06016e-12)
(0 -0 1.80094e-12)
(0 -0 -4.46652e-13)
(0 -0 1.37908e-14)
(0 -0 -5.66386e-14)
(0 -0 -2.83047e-14)
(0 -0 6.93228e-15)
(0 -0 1.52697e-15)
(0 -0 -6.44473e-15)
(0 -0 2.04415e-14)
(0 -0 -3.59906e-14)
(0 -0 3.33904e-14)
(0 -0 7.94311e-14)
(0 -0 6.55812e-14)
(0 -0 -1.08948e-14)
(0 -0 4.53381e-14)
(0 -0 1.24908e-14)
(0 -0 4.05918e-14)
(0 -0 1.31832e-14)
(0 -0 -2.71313e-12)
(0 -0 3.21119e-12)
(0 -0 -8.57361e-13)
(0 -0 9.47002e-14)
(0 -0 -1.20213e-13)
(0 -0 -1.39333e-14)
(0 -0 -2.25778e-14)
(0 -0 -2.39633e-14)
(0 -0 -2.83828e-15)
(0 -0 -6.98402e-15)
(0 -0 4.6159e-14)
(0 -0 1.94149e-14)
(0 -0 6.53024e-14)
(0 -0 1.32401e-13)
(0 -0 1.27124e-13)
(0 -0 7.5956e-14)
(0 -0 -1.41794e-14)
(0 -0 -2.15582e-14)
(0 -0 6.41508e-14)
(0 -0 -1.2559e-14)
(0 -0 -4.69378e-12)
(0 -0 7.03078e-12)
(0 -0 -1.32695e-12)
(0 -0 4.91321e-13)
(0 -0 2.9298e-14)
(0 -0 9.99243e-14)
(0 -0 4.01259e-14)
(0 -0 4.78426e-14)
(0 -0 6.12539e-14)
(0 -0 5.97939e-14)
(0 -0 3.14629e-15)
(0 -0 5.15062e-14)
(0 -0 -1.21116e-14)
(0 -0 -6.333e-14)
(0 -0 -4.80012e-14)
(0 -0 -4.95949e-14)
(0 -0 7.23436e-15)
(0 -0 4.04685e-14)
(0 -0 -5.0478e-14)
(0 -0 -1.08261e-14)
)
;

boundaryField
{
    movingWall
    {
        type            calculated;
        value           nonuniform List<vector> 
20
(
(0 -0 -8.94542e-12)
(0 -0 8.50087e-12)
(0 -0 -1.16142e-12)
(0 -0 6.49355e-13)
(0 -0 1.87331e-13)
(0 -0 2.40654e-13)
(0 -0 2.52369e-13)
(0 -0 2.60086e-13)
(0 -0 2.29088e-13)
(0 -0 2.27628e-13)
(0 -0 9.19641e-14)
(0 -0 4.1705e-14)
(0 -0 -1.21116e-14)
(0 -0 -9.11993e-15)
(0 -0 -8.26089e-14)
(0 -0 -8.42027e-14)
(0 -0 7.23436e-15)
(0 -0 1.33634e-14)
(0 -0 -8.50857e-14)
(0 -0 -1.08261e-14)
)
;
    }
    fixedWalls
    {
        type            calculated;
        value           nonuniform List<vector> 
60
(
(0 -0 5.11107e-11)
(0 -0 7.87693e-12)
(0 -0 -3.94159e-11)
(0 -0 1.67194e-11)
(0 -0 1.08957e-11)
(0 -0 -3.53009e-11)
(0 -0 4.21573e-11)
(0 -0 -9.5119e-12)
(0 -0 -3.98368e-11)
(0 -0 6.38235e-11)
(0 -0 -5.21944e-11)
(0 -0 2.04808e-11)
(0 -0 1.613e-11)
(0 -0 -3.81706e-11)
(0 -0 4.25815e-11)
(0 -0 -2.49271e-11)
(0 -0 -8.59127e-12)
(0 -0 3.49911e-11)
(0 -0 -1.44726e-11)
(0 -0 -2.94002e-11)
(0 -0 -2.5505e-15)
(0 -0 2.55592e-14)
(0 -0 1.07224e-14)
(0 -0 4.89052e-14)
(0 -0 2.45719e-15)
(0 -0 2.48951e-14)
(0 -0 2.10879e-14)
(0 -0 -2.67968e-14)
(0 -0 1.05509e-14)
(0 -0 3.17105e-14)
(0 -0 1.73293e-14)
(0 -0 1.3708e-14)
(0 -0 -4.27448e-16)
(0 -0 4.7552e-14)
(0 -0 4.4091e-14)
(0 -0 -2.05484e-14)
(0 -0 -3.7074e-15)
(0 -0 -3.61032e-15)
(0 -0 -3.05342e-14)
(0 -0 -1.81461e-14)
(0 -0 1.26319e-11)
(0 -0 -1.3492e-11)
(0 -0 2.19626e-12)
(0 -0 -8.69598e-13)
(0 -0 -5.53483e-14)
(0 -0 -2.20632e-13)
(0 -0 -2.23767e-13)
(0 -0 -1.38515e-13)
(0 -0 -1.3274e-13)
(0 -0 -8.84413e-14)
(0 -0 -1.33862e-13)
(0 -0 -4.93401e-14)
(0 -0 -3.48287e-14)
(0 -0 -1.15045e-13)
(0 -0 2.53847e-15)
(0 -0 7.66639e-14)
(0 -0 1.53753e-13)
(0 -0 7.72914e-14)
(0 -0 -7.948e-14)
(0 -0 6.73818e-15)
)
;
    }
    frontAndBack
    {
        type            empty;
    }
}


// ************************************************************************* //
