/*--------------------------------*- C++ -*----------------------------------*\
| =========                 |                                                 |
| \\      /  F ield         | OpenFOAM: The Open Source CFD Toolbox           |
|  \\    /   O peration     | Version:  2312                                  |
|   \\  /    A nd           | Website:  www.openfoam.com                      |
|    \\/     M anipulation  |                                                 |
\*---------------------------------------------------------------------------*/
FoamFile
{
    version     2.0;
    format      ascii;
    arch        "LSB;label=32;scalar=64";
    class       volVectorField;
    location    "9";
    object      wallShearStress;
}
// * * * * * * * * * * * * * * * * * * * * * * * * * * * * * * * * * * * * * //

dimensions      [0 2 -2 0 0 0 0];

internalField   uniform (0 0 0);

boundaryField
{
    movingWall
    {
        type            calculated;
        value           uniform (0 0 0);
    }
    fixedWalls
    {
        type            calculated;
        value           nonuniform List<vector> 
60
(
(1.32365e-16 -5.2466e-16 0)
(-2.24935e-16 -9.01534e-17 0)
(1.79997e-17 4.52164e-16 0)
(1.76401e-16 -2.03514e-16 0)
(-1.86318e-16 -1.24135e-16 0)
(9.84235e-17 3.75235e-16 0)
(7.3141e-18 -4.38378e-16 0)
(-1.36286e-16 1.11924e-16 0)
(1.33145e-16 3.9132e-16 0)
(-4.03521e-17 -6.38777e-16 0)
(-6.66134e-17 5.31702e-16 0)
(1.24819e-16 -1.73366e-16 0)
(-1.76781e-18 -1.97621e-16 0)
(-4.87123e-17 3.6978e-16 0)
(8.1023e-17 -4.21478e-16 0)
(-1.66339e-16 2.54692e-16 0)
(1.82025e-16 1.24944e-16 0)
(1.79128e-17 -4.20927e-16 0)
(-2.29273e-16 1.49605e-16 0)
(1.13773e-16 3.22192e-16 0)
(3.83478e-20 -2.5505e-20 0)
(1.25153e-18 2.55592e-19 0)
(-5.98384e-19 6.49325e-19 0)
(-1.37754e-20 -5.30489e-20 0)
(-5.86961e-19 5.66673e-19 0)
(-6.06243e-19 2.48951e-19 0)
(-4.0978e-20 2.10879e-19 0)
(-1.24697e-18 2.74133e-19 0)
(-5.84957e-19 -4.36592e-19 0)
(5.64724e-20 -2.24996e-19 0)
(-5.76948e-19 1.73293e-19 0)
(1.55806e-20 1.3708e-19 0)
(5.64068e-20 5.37827e-19 0)
(-6.08272e-19 4.7552e-19 0)
(-6.60445e-19 -1.01192e-19 0)
(-3.44888e-20 3.36617e-19 0)
(-1.24636e-18 -3.7074e-20 0)
(-4.47113e-20 -5.78204e-19 0)
(2.09488e-20 -3.05342e-19 0)
(8.11338e-20 -1.81461e-19 0)
(-7.83571e-17 -6.92499e-16 0)
(1.10939e-16 1.49407e-16 0)
(-2.99562e-17 -3.65119e-17 0)
(3.36691e-18 5.8974e-18 0)
(-2.99923e-18 -2.89864e-18 0)
(-1.3464e-18 -2.63191e-19 0)
(-2.20322e-18 -4.24819e-19 0)
(-1.27938e-18 -3.52025e-19 0)
(-1.33713e-18 -1.42778e-19 0)
(-8.91943e-19 -1.97269e-19 0)
(-1.32592e-18 -1.62858e-19 0)
(-3.94777e-19 -3.44094e-19 0)
(-5.39891e-19 2.80839e-19 0)
(-1.51409e-18 -8.55038e-19 0)
(-2.53847e-20 -1.05028e-18 0)
(1.00972e-18 -1.17112e-18 0)
(2.01518e-18 -4.02067e-19 0)
(1.00344e-18 1.00611e-18 0)
(-9.81557e-19 5.74077e-19 0)
(-6.73818e-20 -2.14707e-19 0)
)
;
    }
    frontAndBack
    {
        type            empty;
    }
}


// ************************************************************************* //
