/*--------------------------------*- C++ -*----------------------------------*\
| =========                 |                                                 |
| \\      /  F ield         | OpenFOAM: The Open Source CFD Toolbox           |
|  \\    /   O peration     | Version:  2312                                  |
|   \\  /    A nd           | Website:  www.openfoam.com                      |
|    \\/     M anipulation  |                                                 |
\*---------------------------------------------------------------------------*/
FoamFile
{
    version     2.0;
    format      ascii;
    arch        "LSB;label=32;scalar=64";
    class       volScalarField;
    location    "9";
    object      yPlus;
}
// * * * * * * * * * * * * * * * * * * * * * * * * * * * * * * * * * * * * * //

dimensions      [0 0 0 0 0 0 0];

internalField   uniform 0;

boundaryField
{
    movingWall
    {
        type            calculated;
        value           nonuniform List<scalar> 
20
(
4.39748e-06
2.01682e-06
1.01282e-06
5.14848e-07
4.15098e-07
3.72871e-07
4.08105e-07
4.10701e-07
3.73423e-07
3.72936e-07
2.3561e-07
1.66694e-07
8.01417e-08
1.77756e-07
2.50466e-07
2.40399e-07
1.32983e-07
4.48449e-08
2.40198e-07
1.06496e-07
)
;
    }
    fixedWalls
    {
        type            calculated;
        value           nonuniform List<scalar> 
60
(
5.69231e-06
2.48371e-06
5.14273e-06
3.50327e-06
2.92081e-06
4.78125e-06
5.1891e-06
2.54369e-06
4.96807e-06
6.3179e-06
5.73836e-06
3.43841e-06
3.46742e-06
4.88416e-06
5.16031e-06
4.02112e-06
2.73606e-06
4.91089e-06
3.26039e-06
4.39748e-06
3.99257e-08
2.40341e-07
1.90945e-07
1.16727e-07
1.826e-07
1.7838e-07
1.14804e-07
2.35609e-07
1.72108e-07
5.36505e-08
1.72609e-07
9.25606e-08
1.29126e-07
2.01656e-07
1.72385e-07
6.40148e-08
2.35711e-07
1.38554e-07
1.38144e-07
1.06496e-07
5.69231e-06
2.61238e-06
1.28617e-06
5.8082e-07
4.11084e-07
3.34224e-07
3.74432e-07
2.89228e-07
2.89025e-07
2.37226e-07
2.89164e-07
1.69685e-07
1.67779e-07
2.98437e-07
2.01895e-07
2.5932e-07
3.33925e-07
2.44173e-07
2.41855e-07
3.99257e-08
)
;
    }
    frontAndBack
    {
        type            empty;
    }
}


// ************************************************************************* //
