/*--------------------------------*- C++ -*----------------------------------*\
| =========                 |                                                 |
| \\      /  F ield         | OpenFOAM: The Open Source CFD Toolbox           |
|  \\    /   O peration     | Version:  2312                                  |
|   \\  /    A nd           | Website:  www.openfoam.com                      |
|    \\/     M anipulation  |                                                 |
\*---------------------------------------------------------------------------*/
FoamFile
{
    version     2.0;
    format      ascii;
    arch        "LSB;label=32;scalar=64";
    class       volScalarField;
    location    "9";
    object      zeroGradient(p);
}
// * * * * * * * * * * * * * * * * * * * * * * * * * * * * * * * * * * * * * //

dimensions      [0 2 -2 0 0 0 0];

internalField   nonuniform List<scalar> 
400
(
6.01051e-16
4.73341e-15
2.89044e-15
3.45507e-15
3.76337e-15
3.86289e-15
3.91131e-15
3.99557e-15
3.86303e-15
3.80686e-15
3.85175e-15
3.92299e-15
3.76526e-15
3.76511e-15
3.8576e-15
4.03564e-15
3.97876e-15
3.76744e-15
3.51376e-15
3.75386e-15
3.89598e-15
0
3.11759e-15
3.13217e-15
3.59075e-15
3.82129e-15
3.82816e-15
3.97929e-15
3.93433e-15
3.82653e-15
3.86451e-15
3.95055e-15
3.98398e-15
3.64701e-15
3.74005e-15
3.96297e-15
3.92945e-15
3.89831e-15
3.70494e-15
3.72134e-15
3.60501e-15
3.62265e-15
3.29527e-15
3.61416e-15
3.7069e-15
3.88424e-15
3.9428e-15
3.99002e-15
3.91354e-15
3.91738e-15
3.81646e-15
3.9262e-15
3.9785e-15
3.7041e-15
3.92067e-15
3.97505e-15
3.80527e-15
3.73894e-15
3.8162e-15
3.97774e-15
3.02686e-15
4.87113e-15
3.71954e-15
3.9803e-15
4.10378e-15
4.0844e-15
4.0406e-15
3.84612e-15
4.01214e-15
3.94998e-15
3.81465e-15
3.8541e-15
3.92438e-15
3.89437e-15
4.06602e-15
4.01286e-15
3.84682e-15
3.7305e-15
3.84202e-15
4.12327e-15
3.80193e-15
2.76149e-15
4.26204e-15
4.20024e-15
4.34716e-15
4.2206e-15
4.23021e-15
4.12195e-15
4.15739e-15
3.8317e-15
3.80353e-15
3.83204e-15
3.73618e-15
3.87907e-15
3.9687e-15
4.05094e-15
4.01426e-15
3.95261e-15
4.00642e-15
4.27769e-15
3.57841e-15
5.14471e-15
4.35101e-15
4.48535e-15
4.56672e-15
4.34649e-15
4.31862e-15
4.43915e-15
4.19016e-15
3.81446e-15
3.7771e-15
3.85972e-15
3.69733e-15
3.73361e-15
3.9387e-15
4.09052e-15
4.07632e-15
4.04549e-15
4.21633e-15
4.43102e-15
4.50614e-15
6.17102e-15
4.49714e-15
4.68371e-15
4.69142e-15
4.48525e-15
4.43329e-15
4.57485e-15
4.4943e-15
4.06477e-15
3.75474e-15
3.78388e-15
3.89471e-15
3.77836e-15
3.77297e-15
4.02645e-15
4.12671e-15
4.14596e-15
4.23914e-15
4.52664e-15
5.55229e-15
1.08652e-15
4.74676e-15
4.66167e-15
4.94488e-15
4.64175e-15
4.66557e-15
4.73424e-15
4.6697e-15
4.32303e-15
3.86972e-15
3.73199e-15
3.8307e-15
3.81014e-15
3.93718e-15
4.08934e-15
4.16928e-15
4.31062e-15
4.31522e-15
4.63739e-15
4.33908e-15
8.22428e-15
5.08126e-15
5.09509e-15
4.80987e-15
4.79061e-15
4.91686e-15
4.8567e-15
4.75562e-15
4.47519e-15
4.15317e-15
4.02226e-15
4.02852e-15
3.97127e-15
4.08584e-15
4.16716e-15
4.23774e-15
4.41537e-15
4.40101e-15
4.52546e-15
4.99977e-15
4.80495e-15
5.23577e-15
5.2392e-15
5.08008e-15
4.9382e-15
4.90274e-15
4.97267e-15
4.99104e-15
4.6997e-15
4.4326e-15
4.27526e-15
4.20336e-15
4.06797e-15
4.11288e-15
4.37117e-15
4.40371e-15
4.48354e-15
4.46604e-15
4.53805e-15
5.6699e-15
3.30112e-15
5.42136e-15
5.25044e-15
5.18104e-15
5.16645e-15
5.25538e-15
5.15747e-15
4.97478e-15
4.79099e-15
4.54141e-15
4.4592e-15
4.53975e-15
4.42427e-15
4.38298e-15
4.49872e-15
4.51206e-15
4.6307e-15
4.56162e-15
4.62268e-15
5.38098e-15
8.35125e-15
5.34245e-15
5.66476e-15
5.42592e-15
5.51058e-15
5.32072e-15
5.21746e-15
4.99843e-15
4.91796e-15
4.79639e-15
4.88605e-15
4.69397e-15
4.59363e-15
4.48299e-15
4.66851e-15
4.65593e-15
4.54809e-15
4.59983e-15
4.76841e-15
6.14693e-15
1.81134e-15
5.66398e-15
5.31179e-15
5.66549e-15
5.43086e-15
5.44224e-15
5.22801e-15
5.10463e-15
5.06943e-15
5.22137e-15
4.95574e-15
4.9172e-15
4.96387e-15
4.68809e-15
4.70592e-15
4.71089e-15
4.69428e-15
4.62585e-15
4.8103e-15
5.37749e-15
7.76118e-15
5.58484e-15
5.85996e-15
5.84473e-15
5.70928e-15
5.4382e-15
5.21295e-15
5.11689e-15
5.15992e-15
5.09138e-15
5.08755e-15
5.23198e-15
5.28217e-15
4.9452e-15
4.765e-15
4.78979e-15
4.78696e-15
4.76153e-15
5.03671e-15
5.41895e-15
5.46294e-15
5.96983e-15
5.81249e-15
5.87544e-15
5.82368e-15
5.45881e-15
5.33514e-15
5.34219e-15
5.50123e-15
5.34248e-15
5.24953e-15
5.18315e-15
5.34069e-15
5.13166e-15
4.75128e-15
4.73364e-15
4.86516e-15
5.00765e-15
5.26594e-15
5.70127e-15
4.35752e-15
5.96525e-15
5.89523e-15
5.94338e-15
5.64947e-15
5.59312e-15
5.69235e-15
5.64787e-15
5.41118e-15
5.19484e-15
5.30327e-15
5.32204e-15
5.40339e-15
5.29851e-15
5.09632e-15
4.97746e-15
4.82748e-15
5.02875e-15
5.2086e-15
4.939e-15
7.70325e-15
5.837e-15
6.04358e-15
6.0184e-15
5.96804e-15
5.78007e-15
5.54827e-15
5.63223e-15
5.37833e-15
5.27803e-15
5.39135e-15
5.26939e-15
5.31102e-15
5.33542e-15
5.1223e-15
5.02212e-15
4.86313e-15
5.03635e-15
5.33118e-15
5.79736e-15
5.21685e-15
5.95132e-15
5.86422e-15
5.94221e-15
5.80668e-15
5.79749e-15
5.70284e-15
5.68817e-15
5.43377e-15
5.3637e-15
5.2045e-15
5.09145e-15
5.23068e-15
5.26303e-15
5.34084e-15
5.14853e-15
4.8878e-15
4.92087e-15
5.20374e-15
6.13325e-15
4.06677e-15
5.80014e-15
5.77812e-15
5.96874e-15
5.86116e-15
6.01317e-15
5.67837e-15
5.63131e-15
5.40503e-15
5.26144e-15
5.14372e-15
5.29738e-15
5.32212e-15
5.28939e-15
5.1667e-15
5.17674e-15
5.00025e-15
4.86096e-15
5.0868e-15
4.3225e-15
7.20464e-15
5.92717e-15
5.86674e-15
5.89497e-15
5.8494e-15
5.79207e-15
5.78603e-15
5.61519e-15
5.42825e-15
5.26452e-15
5.10388e-15
5.17589e-15
5.39884e-15
5.42605e-15
5.045e-15
5.35966e-15
5.03986e-15
4.75968e-15
4.92324e-15
)
;

boundaryField
{
    movingWall
    {
        type            zeroGradient;
    }
    fixedWalls
    {
        type            zeroGradient;
    }
    frontAndBack
    {
        type            empty;
    }
}


// ************************************************************************* //
