/*--------------------------------*- C++ -*----------------------------------*\
| =========                 |                                                 |
| \\      /  F ield         | OpenFOAM: The Open Source CFD Toolbox           |
|  \\    /   O peration     | Version:  2312                                  |
|   \\  /    A nd           | Website:  www.openfoam.com                      |
|    \\/     M anipulation  |                                                 |
\*---------------------------------------------------------------------------*/
FoamFile
{
    version     2.0;
    format      ascii;
    arch        "LSB;label=32;scalar=64";
    class       volVectorField;
    location    "9";
    object      zeroGradient(U);
}
// * * * * * * * * * * * * * * * * * * * * * * * * * * * * * * * * * * * * * //

dimensions      [0 1 -1 0 0 0 0];

internalField   nonuniform List<vector> 
400
(
(-1 1.29471e-13 0)
(-1 -2.7133e-14 0)
(-1 6.54105e-15 0)
(-1 -1.17353e-15 0)
(-1 5.09613e-16 0)
(-1 4.93483e-17 0)
(-1 7.96536e-17 0)
(-1 3.21233e-17 0)
(-1 2.67709e-17 0)
(-1 3.6988e-17 0)
(-1 3.05359e-17 0)
(-1 3.06364e-17 0)
(-1 -1.8776e-17 0)
(-1 1.26438e-16 0)
(-1 1.63046e-16 0)
(-1 1.51823e-16 0)
(-1 4.15063e-17 0)
(-1 -8.70024e-17 0)
(-1 -7.37581e-17 0)
(-1 6.37625e-18 0)
(-1 2.11153e-14 0)
(-1 -3.8338e-15 0)
(-1 1.1158e-15 0)
(-1 -1.07224e-16 0)
(-1 5.04327e-17 0)
(-1 -1.31075e-16 0)
(-1 -1.55309e-16 0)
(-1 -3.92454e-17 0)
(-1 1.00064e-16 0)
(-1 8.87153e-17 0)
(-1 2.88292e-17 0)
(-1 1.41086e-17 0)
(-1 1.45624e-17 0)
(-1 1.58991e-16 0)
(-1 1.20768e-16 0)
(-1 1.12157e-16 0)
(-1 3.07205e-17 0)
(-1 -1.16734e-16 0)
(-1 -1.69843e-16 0)
(-1 -6.38979e-17 0)
(-1 -1.0579e-13 0)
(-1 2.17399e-14 0)
(-1 -5.35968e-15 0)
(-1 8.96437e-16 0)
(-1 -4.75372e-16 0)
(-1 -1.01992e-16 0)
(-1 -6.20755e-17 0)
(-1 3.11969e-17 0)
(-1 2.20235e-17 0)
(-1 1.87811e-17 0)
(-1 -3.67153e-17 0)
(-1 -7.92415e-17 0)
(-1 -6.51965e-17 0)
(-1 -1.37682e-16 0)
(-1 -1.23277e-16 0)
(-1 -5.00487e-17 0)
(-1 1.23686e-17 0)
(-1 -9.19368e-18 0)
(-1 -9.01794e-17 0)
(-1 -9.45687e-17 0)
(-1 4.63385e-14 0)
(-1 -1.04311e-14 0)
(-1 1.90064e-15 0)
(-1 -6.98118e-16 0)
(-1 1.11371e-17 0)
(-1 3.41284e-17 0)
(-1 1.49968e-16 0)
(-1 1.16926e-16 0)
(-1 4.80911e-17 0)
(-1 9.39085e-17 0)
(-1 3.55504e-17 0)
(-1 2.56644e-17 0)
(-1 1.77806e-17 0)
(-1 -1.44852e-16 0)
(-1 -1.37117e-16 0)
(-1 -9.87466e-17 0)
(-1 -6.89682e-17 0)
(-1 -3.11576e-17 0)
(-1 4.33649e-18 0)
(-1 -5.45004e-17 0)
(-1 2.91365e-14 0)
(-1 -6.9636e-15 0)
(-1 1.35564e-15 0)
(-1 -5.09465e-16 0)
(-1 1.14841e-17 0)
(-1 -4.3832e-17 0)
(-1 -5.99814e-17 0)
(-1 -2.92939e-17 0)
(-1 2.11007e-16 0)
(-1 2.91364e-16 0)
(-1 1.64163e-16 0)
(-1 8.76563e-17 0)
(-1 1.18587e-16 0)
(-1 9.45201e-17 0)
(-1 -1.28526e-17 0)
(-1 -1.14246e-16 0)
(-1 -1.49007e-16 0)
(-1 -1.1608e-16 0)
(-1 -8.83001e-17 0)
(-1 -7.39056e-17 0)
(-1 -9.10304e-14 0)
(-1 1.95658e-14 0)
(-1 -4.58116e-15 0)
(-1 9.2429e-16 0)
(-1 -2.69567e-16 0)
(-1 4.31703e-17 0)
(-1 -3.34176e-17 0)
(-1 -4.49691e-17 0)
(-1 4.69555e-17 0)
(-1 7.45289e-17 0)
(-1 9.3539e-17 0)
(-1 8.63616e-17 0)
(-1 3.08889e-17 0)
(-1 9.61786e-17 0)
(-1 1.34998e-16 0)
(-1 1.61346e-17 0)
(-1 -3.87777e-17 0)
(-1 -7.00747e-17 0)
(-1 -1.1267e-16 0)
(-1 -6.22377e-17 0)
(-1 1.07494e-13 0)
(-1 -2.24381e-14 0)
(-1 5.27085e-15 0)
(-1 -1.22803e-15 0)
(-1 2.09858e-16 0)
(-1 2.9787e-17 0)
(-1 1.02621e-16 0)
(-1 1.25355e-16 0)
(-1 9.81477e-17 0)
(-1 6.21303e-17 0)
(-1 1.37464e-16 0)
(-1 1.88837e-16 0)
(-1 8.80057e-17 0)
(-1 1.11698e-17 0)
(-1 1.44284e-17 0)
(-1 -2.23468e-17 0)
(-1 -6.27341e-17 0)
(-1 -1.11509e-16 0)
(-1 -7.49955e-17 0)
(-1 -5.27197e-17 0)
(-1 -2.58804e-14 0)
(-1 4.73456e-15 0)
(-1 -1.33115e-15 0)
(-1 1.57669e-16 0)
(-1 -3.25925e-17 0)
(-1 -8.95287e-18 0)
(-1 -4.61611e-18 0)
(-1 9.60148e-17 0)
(-1 1.39054e-16 0)
(-1 9.21527e-17 0)
(-1 1.12431e-16 0)
(-1 1.19385e-16 0)
(-1 1.22383e-16 0)
(-1 -5.97238e-18 0)
(-1 -8.93509e-17 0)
(-1 -4.13032e-17 0)
(-1 -4.08972e-17 0)
(-1 -1.09999e-16 0)
(-1 -4.34129e-17 0)
(-1 -7.70656e-19 0)
(-1 -9.8711e-14 0)
(-1 2.09951e-14 0)
(-1 -5.03319e-15 0)
(-1 1.09561e-15 0)
(-1 -2.80843e-16 0)
(-1 -1.02413e-16 0)
(-1 -1.39214e-16 0)
(-1 -1.3889e-16 0)
(-1 -1.98747e-16 0)
(-1 -1.9054e-16 0)
(-1 -1.13244e-16 0)
(-1 7.92468e-18 0)
(-1 1.38094e-16 0)
(-1 1.60872e-16 0)
(-1 4.98323e-17 0)
(-1 -7.21622e-17 0)
(-1 -1.17361e-17 0)
(-1 2.77898e-17 0)
(-1 3.64614e-17 0)
(-1 4.13855e-17 0)
(-1 1.59626e-13 0)
(-1 -3.41426e-14 0)
(-1 8.14165e-15 0)
(-1 -1.60421e-15 0)
(-1 5.55629e-16 0)
(-1 9.50559e-17 0)
(-1 1.33e-16 0)
(-1 -3.57711e-17 0)
(-1 -1.86907e-16 0)
(-1 -2.25785e-16 0)
(-1 -1.81536e-16 0)
(-1 -1.49968e-16 0)
(-1 -1.16361e-16 0)
(-1 2.34565e-17 0)
(-1 9.92469e-17 0)
(-1 -1.15213e-17 0)
(-1 -1.26407e-16 0)
(-1 -5.01e-17 0)
(-1 1.94693e-17 0)
(-1 -1.15135e-17 0)
(-1 -1.31706e-13 0)
(-1 2.88042e-14 0)
(-1 -6.77109e-15 0)
(-1 1.42935e-15 0)
(-1 -3.15011e-16 0)
(-1 1.02469e-16 0)
(-1 7.96758e-17 0)
(-1 1.4077e-16 0)
(-1 8.95879e-17 0)
(-1 -4.37084e-17 0)
(-1 -8.36081e-17 0)
(-1 -1.02451e-16 0)
(-1 -5.71764e-17 0)
(-1 -6.06192e-17 0)
(-1 4.67874e-17 0)
(-1 8.41705e-17 0)
(-1 -5.11736e-17 0)
(-1 -3.45926e-17 0)
(-1 -3.26551e-18 0)
(-1 -4.33232e-17 0)
(-1 4.72718e-14 0)
(-1 -1.01408e-14 0)
(-1 2.37314e-15 0)
(-1 -5.26904e-16 0)
(-1 -1.10853e-17 0)
(-1 -7.35449e-17 0)
(-1 -5.30874e-17 0)
(-1 -8.14143e-17 0)
(-1 -9.5384e-17 0)
(-1 -1.13173e-16 0)
(-1 -1.45512e-16 0)
(-1 -1.96444e-17 0)
(-1 3.30811e-17 0)
(-1 -5.31087e-17 0)
(-1 -7.33491e-17 0)
(-1 -2.36529e-17 0)
(-1 6.30807e-17 0)
(-1 1.07152e-16 0)
(-1 6.07759e-17 0)
(-1 -3.42699e-17 0)
(-1 4.48651e-14 0)
(-1 -9.93524e-15 0)
(-1 2.48135e-15 0)
(-1 -3.99952e-16 0)
(-1 1.9426e-16 0)
(-1 7.03857e-17 0)
(-1 1.44269e-17 0)
(-1 -1.53875e-16 0)
(-1 -2.38546e-16 0)
(-1 -2.32928e-16 0)
(-1 -2.26385e-16 0)
(-1 -2.58823e-16 0)
(-1 -3.90447e-16 0)
(-1 -3.79466e-16 0)
(-1 -2.33977e-16 0)
(-1 -6.53273e-17 0)
(-1 -2.89713e-17 0)
(-1 -4.76827e-17 0)
(-1 -5.52812e-17 0)
(-1 -6.6694e-17 0)
(-1 -9.39357e-14 0)
(-1 1.99656e-14 0)
(-1 -4.61697e-15 0)
(-1 1.0511e-15 0)
(-1 -2.63086e-16 0)
(-1 -1.48893e-16 0)
(-1 -1.20547e-16 0)
(-1 -8.07139e-17 0)
(-1 -1.65215e-16 0)
(-1 -1.71011e-16 0)
(-1 -8.16689e-17 0)
(-1 -1.37105e-16 0)
(-1 -2.03104e-16 0)
(-1 -2.12931e-16 0)
(-1 -1.12179e-16 0)
(-1 5.35571e-17 0)
(-1 3.44507e-18 0)
(-1 -1.5129e-16 0)
(-1 -2.29866e-16 0)
(-1 -1.1888e-16 0)
(-1 1.05912e-13 0)
(-1 -2.25225e-14 0)
(-1 5.2815e-15 0)
(-1 -1.13751e-15 0)
(-1 1.889e-16 0)
(-1 -2.45343e-16 0)
(-1 -2.98959e-16 0)
(-1 -3.42094e-16 0)
(-1 -2.29577e-16 0)
(-1 -6.78496e-17 0)
(-1 -3.74178e-17 0)
(-1 -5.53899e-17 0)
(-1 -4.54683e-17 0)
(-1 -3.53583e-18 0)
(-1 -4.35469e-17 0)
(-1 -3.45783e-17 0)
(-1 -6.11571e-18 0)
(-1 -2.06907e-18 0)
(-1 -1.01728e-16 0)
(-1 -4.24648e-17 0)
(-1 -6.29955e-14 0)
(-1 1.36769e-14 0)
(-1 -3.21154e-15 0)
(-1 5.58667e-16 0)
(-1 -2.88053e-16 0)
(-1 -1.22284e-16 0)
(-1 -1.30047e-16 0)
(-1 2.0095e-18 0)
(-1 5.27618e-17 0)
(-1 7.9837e-17 0)
(-1 -2.46453e-17 0)
(-1 -1.18643e-16 0)
(-1 -1.07765e-16 0)
(-1 -1.09826e-16 0)
(-1 -2.75257e-16 0)
(-1 -2.86128e-16 0)
(-1 -1.57504e-16 0)
(-1 -5.24379e-17 0)
(-1 -4.16695e-17 0)
(-1 -1.63916e-17 0)
(-1 -2.63571e-14 0)
(-1 6.03803e-15 0)
(-1 -1.24012e-15 0)
(-1 3.27612e-16 0)
(-1 -9.56979e-17 0)
(-1 -5.23597e-18 0)
(-1 3.05294e-17 0)
(-1 1.30883e-16 0)
(-1 9.3314e-17 0)
(-1 2.5058e-17 0)
(-1 1.5723e-19 0)
(-1 2.82417e-17 0)
(-1 -1.44342e-17 0)
(-1 -2.01503e-16 0)
(-1 -3.12073e-16 0)
(-1 -3.10807e-16 0)
(-1 -2.07232e-16 0)
(-1 -1.21583e-16 0)
(-1 1.35547e-17 0)
(-1 9.2685e-18 0)
(-1 9.63547e-14 0)
(-1 -2.01272e-14 0)
(-1 4.91114e-15 0)
(-1 -1.03362e-15 0)
(-1 1.73576e-16 0)
(-1 -8.25608e-17 0)
(-1 -1.2176e-16 0)
(-1 -9.45568e-17 0)
(-1 -5.24375e-17 0)
(-1 -7.92871e-17 0)
(-1 -1.16885e-16 0)
(-1 -1.45923e-16 0)
(-1 -2.0574e-16 0)
(-1 -8.30694e-17 0)
(-1 4.64697e-17 0)
(-1 3.06419e-17 0)
(-1 -6.24784e-17 0)
(-1 -5.80786e-17 0)
(-1 6.24297e-17 0)
(-1 7.67884e-17 0)
(-1 -3.67914e-14 0)
(-1 7.22067e-15 0)
(-1 -1.96898e-15 0)
(-1 2.73364e-16 0)
(-1 -2.08829e-16 0)
(-1 -1.15613e-16 0)
(-1 -7.71107e-17 0)
(-1 -7.03411e-17 0)
(-1 -4.56937e-17 0)
(-1 -9.87238e-17 0)
(-1 -1.15534e-16 0)
(-1 -1.79235e-16 0)
(-1 -1.92435e-16 0)
(-1 -6.83127e-17 0)
(-1 4.73777e-17 0)
(-1 1.18723e-16 0)
(-1 -6.21419e-18 0)
(-1 -2.30711e-17 0)
(-1 4.92546e-17 0)
(-1 7.63354e-17 0)
(-1 -7.70242e-14 0)
(-1 1.59918e-14 0)
(-1 -4.00592e-15 0)
(-1 8.24892e-16 0)
(-1 -1.76906e-16 0)
(-1 3.36694e-17 0)
(-1 9.18528e-18 0)
(-1 -1.07173e-16 0)
(-1 -5.44894e-17 0)
(-1 -3.67352e-17 0)
(-1 1.34806e-18 0)
(-1 -5.27235e-18 0)
(-1 -2.56908e-17 0)
(-1 -1.26389e-16 0)
(-1 -1.1689e-16 0)
(-1 -6.42993e-17 0)
(-1 -7.07384e-17 0)
(-1 8.04426e-18 0)
(-1 6.28956e-17 0)
(-1 4.53653e-17 0)
)
;

boundaryField
{
    movingWall
    {
        type            zeroGradient;
    }
    fixedWalls
    {
        type            zeroGradient;
    }
    frontAndBack
    {
        type            empty;
    }
}


// ************************************************************************* //
