/*--------------------------------*- C++ -*----------------------------------*\
| =========                 |                                                 |
| \\      /  F ield         | OpenFOAM: The Open Source CFD Toolbox           |
|  \\    /   O peration     | Version:  2312                                  |
|   \\  /    A nd           | Website:  www.openfoam.com                      |
|    \\/     M anipulation  |                                                 |
\*---------------------------------------------------------------------------*/
FoamFile
{
    version     2.0;
    format      ascii;
    arch        "LSB;label=32;scalar=64";
    class       volScalarField;
    location    "0.875";
    object      diffP;
}
// * * * * * * * * * * * * * * * * * * * * * * * * * * * * * * * * * * * * * //

dimensions      [0 2 -2 0 0 0 0];

internalField   nonuniform List<scalar> 
400
(
-3
-3
-3.00001
-3.00006
-3.00013
-3.00025
-3.00039
-3.00057
-3.00079
-3.00104
-3.00132
-3.00164
-3.00197
-3.0023
-3.00262
-3.0029
-3.00312
-3.00327
-3.00333
-3.00333
-3.00001
-3
-3.00002
-3.00007
-3.00015
-3.00026
-3.0004
-3.00058
-3.00079
-3.00103
-3.00131
-3.00162
-3.00194
-3.00227
-3.00259
-3.00287
-3.0031
-3.00325
-3.00333
-3.00333
-3
-3
-3
-3.00003
-3.00011
-3.00022
-3.00037
-3.00054
-3.00075
-3.00099
-3.00127
-3.00158
-3.00191
-3.00225
-3.00258
-3.00289
-3.00314
-3.0033
-3.00338
-3.00336
-3
-3
-3
-3
-3.00003
-3.00013
-3.00027
-3.00044
-3.00065
-3.0009
-3.00118
-3.00151
-3.00186
-3.00224
-3.00261
-3.00296
-3.00324
-3.00342
-3.00348
-3.00344
-3
-3
-3
-3
-3
-3
-3.00012
-3.00029
-3.0005
-3.00075
-3.00105
-3.00139
-3.00179
-3.00222
-3.00266
-3.00308
-3.00341
-3.0036
-3.00364
-3.00356
-3
-3
-3
-3
-3
-3
-3
-3.00008
-3.00028
-3.00053
-3.00084
-3.00122
-3.00166
-3.00216
-3.0027
-3.00323
-3.00364
-3.00384
-3.00383
-3.00369
-3
-3
-3
-3
-3
-3
-3
-3
-3
-3.00023
-3.00055
-3.00094
-3.00143
-3.00202
-3.0027
-3.0034
-3.00395
-3.00416
-3.00406
-3.00379
-3
-3
-3
-3
-3
-3
-3
-3
-3
-3
-3.00013
-3.00052
-3.00105
-3.00172
-3.00258
-3.00357
-3.00437
-3.00458
-3.00428
-3.00378
-3
-3
-3
-3
-3
-3
-3
-3
-3
-3
-3
-3
-3.00042
-3.00117
-3.0022
-3.00362
-3.00485
-3.00501
-3.0042
-3.00338
-3
-3
-3
-3
-3
-3
-3
-3
-3
-3
-3
-3
-3
-3.00003
-3.00108
-3.00268
-3.00426
-3.00474
-3.00366
-3.00273
-3
-3
-3
-3
-3
-3
-3
-3
-3
-3
-3
-3
-3
-3
-3
-3
-3
-3.00093
-3.00257
-3.00231
-3
-3
-3
-3
-3
-3
-3
-3
-3
-3
-3
-3
-3
-3
-3
-3
-3
-3
-3
-3.00083
-3
-3
-3
-3
-3
-3
-3
-3
-3
-3
-3
-3
-3
-3
-3
-3
-3
-3
-3
-3
-3
-3
-3
-3
-3
-3
-3
-3
-3
-3
-3
-3
-3
-3
-3
-3
-3
-3
-3
-3
-3
-3
-3
-3
-3
-3
-3
-3
-3
-3
-3
-3
-3
-3
-3
-3
-3
-3
-3
-3
-3
-3
-3
-3
-3
-3
-3
-3
-3
-3
-3
-3
-3
-3
-3
-3
-3
-3
-3
-3
-3
-3
-3
-3
-3
-3
-3
-3
-3
-3
-3
-3
-3
-3
-3
-3
-3
-3
-3
-3
-3
-3
-3
-3
-3
-3
-3
-3
-3
-3
-3
-3
-3
-3
-3
-3
-3
-3
-3
-3
-3
-3
-3
-3
-3
-3
-3
-3
-3
-3
-3
-3
-3
-3
-3
-3
-3
-3
-3
-3.02555
-3.00021
-3.00337
-3.00164
-3
-3
-3
-3
-3
-3
-3
-3
-3
-3
-3
-3
-3
-3
-3
-3.00457
-3.11268
)
;

boundaryField
{
    movingWall
    {
        type            calculated;
        value           nonuniform List<scalar> 
20
(
-3.00021
-3.00337
-3.00164
-3
-3
-3
-3
-3
-3
-3
-3
-3
-3
-3
-3
-3
-3
-3
-3.00457
-3.11268
)
;
    }
    fixedWalls
    {
        type            calculated;
        value           nonuniform List<scalar> 
60
(
-3
-3.00001
-3
-3
-3
-3
-3
-3
-3
-3
-3
-3
-3
-3
-3
-3
-3
-3
-3
-3.00021
-3.00333
-3.00333
-3.00336
-3.00344
-3.00356
-3.00369
-3.00379
-3.00378
-3.00338
-3.00273
-3.00231
-3.00083
-3
-3
-3
-3
-3
-3
-3.02555
-3.11268
-3
-3
-3.00001
-3.00006
-3.00013
-3.00025
-3.00039
-3.00057
-3.00079
-3.00104
-3.00132
-3.00164
-3.00197
-3.0023
-3.00262
-3.0029
-3.00312
-3.00327
-3.00333
-3.00333
)
;
    }
    frontAndBack
    {
        type            empty;
    }
}


// ************************************************************************* //
