/*--------------------------------*- C++ -*----------------------------------*\
| =========                 |                                                 |
| \\      /  F ield         | OpenFOAM: The Open Source CFD Toolbox           |
|  \\    /   O peration     | Version:  2312                                  |
|   \\  /    A nd           | Website:  www.openfoam.com                      |
|    \\/     M anipulation  |                                                 |
\*---------------------------------------------------------------------------*/
FoamFile
{
    version     2.0;
    format      ascii;
    arch        "LSB;label=32;scalar=64";
    class       volVectorField;
    location    "0.875";
    object      diffU;
}
// * * * * * * * * * * * * * * * * * * * * * * * * * * * * * * * * * * * * * //

dimensions      [0 1 -1 0 0 0 0];

internalField   nonuniform List<vector> 
400
(
(0 0 0)
(-0.000806308 0.000398991 0)
(-0.00224063 0.000644838 0)
(-0.00383288 0.000721672 0)
(-0.00546322 0.000713402 0)
(-0.00704707 0.000668677 0)
(-0.00853672 0.000604885 0)
(-0.00989511 0.000524671 0)
(-0.0110821 0.00042225 0)
(-0.0120516 0.000285633 0)
(-0.0127322 0.00010374 0)
(-0.0130211 -9.01106e-05 0)
(-0.0128975 -0.000375109 0)
(-0.0122188 -0.000686657 0)
(-0.01097 -0.00101478 0)
(-0.009156 -0.00131607 0)
(-0.00687979 -0.00152172 0)
(-0.00436761 -0.00152554 0)
(-0.00192355 -0.00119875 0)
(-0.000308177 -0.000618363 0)
(-0.000393558 0.000807473 0)
(-0.00168918 0.00171407 0)
(-0.00332302 0.00218923 0)
(-0.00506642 0.00235908 0)
(-0.00683761 0.00235468 0)
(-0.00857642 0.0022508 0)
(-0.0102322 0.0020788 0)
(-0.0117547 0.001844 0)
(-0.0130895 0.00153567 0)
(-0.0141756 0.0011333 0)
(-0.0149405 0.000616799 0)
(-0.0152979 -1.93446e-05 0)
(-0.0151663 -0.000781122 0)
(-0.0144697 -0.0016429 0)
(-0.0131669 -0.00253322 0)
(-0.0112678 -0.00334177 0)
(-0.00886045 -0.00391051 0)
(-0.00613897 -0.00403935 0)
(-0.00334059 -0.00352445 0)
(-0.000905552 -0.00223086 0)
(-0.000658825 0.00222444 0)
(-0.0021879 0.00333718 0)
(-0.00387379 0.00386952 0)
(-0.00562772 0.00407819 0)
(-0.0073988 0.00407553 0)
(-0.00915033 0.00392727 0)
(-0.0108425 0.0036615 0)
(-0.0124271 0.00327952 0)
(-0.0138489 0.00276432 0)
(-0.0150438 0.00208786 0)
(-0.0159357 0.00122182 0)
(-0.0164354 0.000149875 0)
(-0.0164489 -0.00112797 0)
(-0.0158846 -0.00256607 0)
(-0.014672 -0.0040593 0)
(-0.0127886 -0.00543546 0)
(-0.0102932 -0.00645892 0)
(-0.00736928 -0.00686987 0)
(-0.00424701 -0.00645497 0)
(-0.00129494 -0.00482305 0)
(-0.000767465 0.00383134 0)
(-0.00242549 0.00508201 0)
(-0.00417487 0.00562037 0)
(-0.00596583 0.00584039 0)
(-0.00776378 0.00583721 0)
(-0.00955018 0.00565921 0)
(-0.0113009 0.00532404 0)
(-0.0129787 0.00482458 0)
(-0.0145353 0.00413424 0)
(-0.01591 0.00321305 0)
(-0.0170243 0.00201774 0)
(-0.0177799 0.00051683 0)
(-0.0180582 -0.00129468 0)
(-0.0177248 -0.00336903 0)
(-0.0166448 -0.00557287 0)
(-0.0147241 -0.00766759 0)
(-0.0119769 -0.00930978 0)
(-0.00861777 -0.0101334 0)
(-0.00494866 -0.00986718 0)
(-0.00150209 -0.00782498 0)
(-0.000798075 0.00553299 0)
(-0.00252788 0.00691281 0)
(-0.00434428 0.00744046 0)
(-0.00619542 0.00765821 0)
(-0.00805305 0.00765574 0)
(-0.00991033 0.00746541 0)
(-0.0117595 0.00709227 0)
(-0.0135793 0.0065179 0)
(-0.0153353 0.00570273 0)
(-0.0169762 0.00458958 0)
(-0.0184262 0.00311142 0)
(-0.0195748 0.00120834 0)
(-0.0202704 -0.00115218 0)
(-0.0203092 -0.0039456 0)
(-0.0194437 -0.00703185 0)
(-0.0174467 -0.0100978 0)
(-0.0142512 -0.0126232 0)
(-0.010154 -0.0140229 0)
(-0.00562981 -0.013887 0)
(-0.00160735 -0.0111825 0)
(-0.000798848 0.00726809 0)
(-0.00256918 0.00880211 0)
(-0.00444765 0.00932617 0)
(-0.00636702 0.00954238 0)
(-0.00830253 0.00954887 0)
(-0.0102555 0.00936912 0)
(-0.0122349 0.00899819 0)
(-0.01424 0.00840663 0)
(-0.0162577 0.00753993 0)
(-0.0182563 0.00631772 0)
(-0.0201725 0.0046375 0)
(-0.0218899 0.00238767 0)
(-0.023221 -0.000526654 0)
(-0.0238673 -0.00413885 0)
(-0.023399 -0.00837006 0)
(-0.0213327 -0.0128322 0)
(-0.0174253 -0.0166957 0)
(-0.0121099 -0.0189143 0)
(-0.00623891 -0.0187851 0)
(-0.00155327 -0.014844 0)
(-0.000789727 0.00900988 0)
(-0.00258421 0.0107367 0)
(-0.00451643 0.0112765 0)
(-0.00650114 0.0115023 0)
(-0.00851703 0.0115332 0)
(-0.0105731 0.0113933 0)
(-0.0126968 0.0110741 0)
(-0.0149132 0.0105394 0)
(-0.0172414 0.00972111 0)
(-0.0196852 0.00851316 0)
(-0.0222142 0.00676575 0)
(-0.0247261 0.00428793 0)
(-0.0269981 0.000871658 0)
(-0.0286369 -0.00366926 0)
(-0.0289389 -0.0094322 0)
(-0.026905 -0.0160086 0)
(-0.0218639 -0.0220396 0)
(-0.0143973 -0.0254541 0)
(-0.00620409 -0.0248676 0)
(-0.000997383 -0.0185259 0)
(-0.000778403 0.0107479 0)
(-0.00258793 0.0127059 0)
(-0.00456332 0.0132827 0)
(-0.00660128 0.0135324 0)
(-0.00868432 0.0136062 0)
(-0.0108297 0.0135395 0)
(-0.0130856 0.0133297 0)
(-0.0155101 0.012943 0)
(-0.0181673 0.0123057 0)
(-0.0211187 0.0112896 0)
(-0.0243994 0.00969116 0)
(-0.0279633 0.00721126 0)
(-0.0316116 0.00345073 0)
(-0.0348979 -0.00208078 0)
(-0.0367587 -0.00982532 0)
(-0.0352797 -0.0196969 0)
(-0.0287367 -0.0294853 0)
(-0.0175279 -0.0348486 0)
(-0.0046409 -0.0321938 0)
(0.000969768 -0.0210468 0)
(-0.000768466 0.0124792 0)
(-0.0025881 0.0147006 0)
(-0.00459395 0.0153306 0)
(-0.00666411 0.015614 0)
(-0.00878406 0.0157449 0)
(-0.0109794 0.0157816 0)
(-0.013321 0.0157406 0)
(-0.0159051 0.0156048 0)
(-0.0188545 0.0153123 0)
(-0.0223156 0.0147304 0)
(-0.0264381 0.0136122 0)
(-0.0313145 0.0115357 0)
(-0.0369058 0.00786424 0)
(-0.0428992 0.00166837 0)
(-0.0481442 -0.0083281 0)
(-0.0496037 -0.0228825 0)
(-0.0435262 -0.0391174 0)
(-0.0282418 -0.0491753 0)
(-0.00659248 -0.043254 0)
(0.00465014 -0.0220701 0)
(-0.000763544 0.0142066 0)
(-0.00259318 0.0167131 0)
(-0.00461591 0.0174006 0)
(-0.0066887 0.0177148 0)
(-0.00879735 0.0179032 0)
(-0.0109742 0.0180601 0)
(-0.0133113 0.018236 0)
(-0.0159441 0.0184509 0)
(-0.0190592 0.0186818 0)
(-0.022908 0.0188299 0)
(-0.0278054 0.0186508 0)
(-0.0340777 0.0176521 0)
(-0.042088 0.0150468 0)
(-0.0524377 0.00952044 0)
(-0.0646454 -0.00141921 0)
(-0.0748055 -0.0211938 0)
(-0.0749118 -0.0489892 0)
(-0.057794 -0.0704186 0)
(-0.0269795 -0.0649522 0)
(0.0050993 -0.0245545 0)
(-0.000770642 0.0159392 0)
(-0.00261937 0.0187396 0)
(-0.00464659 0.01947 0)
(-0.00668534 0.0197898 0)
(-0.00871731 0.0200115 0)
(-0.0107775 0.0202774 0)
(-0.0129731 0.0206873 0)
(-0.0154679 0.0213195 0)
(-0.0184998 0.0222244 0)
(-0.0224152 0.023393 0)
(-0.0277076 0.024687 0)
(-0.0349816 0.025764 0)
(-0.045201 0.0261257 0)
(-0.0609143 0.0243991 0)
(-0.082944 0.0150786 0)
(-0.103219 -0.0123912 0)
(-0.109501 -0.0583423 0)
(-0.0955144 -0.0995987 0)
(-0.0603491 -0.101544 0)
(-0.00930488 -0.0393692 0)
(-0.000804394 0.0177079 0)
(-0.00269485 0.0207849 0)
(-0.00471986 0.0215149 0)
(-0.00668306 0.0217828 0)
(-0.0085591 0.0219777 0)
(-0.0103809 0.0222992 0)
(-0.0122581 0.0229047 0)
(-0.0143587 0.0239449 0)
(-0.0169295 0.025568 0)
(-0.0203425 0.0279042 0)
(-0.0251595 0.0310464 0)
(-0.0320439 0.0351248 0)
(-0.0421466 0.0404325 0)
(-0.0593429 0.0450089 0)
(-0.0842585 0.0377301 0)
(-0.106216 0.00126672 0)
(-0.114889 -0.0631707 0)
(-0.11029 -0.127558 0)
(-0.0854181 -0.154725 0)
(-0.0333013 -0.0899462 0)
(-0.00089119 0.0195445 0)
(-0.00287091 0.022862 0)
(-0.00489076 0.0235116 0)
(-0.00673212 0.0236297 0)
(-0.00836451 0.0236949 0)
(-0.00981678 0.0239668 0)
(-0.0111864 0.0246546 0)
(-0.0126121 0.0259763 0)
(-0.014288 0.0281717 0)
(-0.0164971 0.0315034 0)
(-0.0196506 0.0362901 0)
(-0.0241267 0.0430848 0)
(-0.0303281 0.0527159 0)
(-0.0405915 0.0624199 0)
(-0.0564372 0.0558332 0)
(-0.0704271 0.0154135 0)
(-0.0762605 -0.0547776 0)
(-0.0821533 -0.133336 0)
(-0.0814549 -0.196489 0)
(-0.0431745 -0.161798 0)
(-0.00106579 0.0216393 0)
(-0.00320173 0.0250308 0)
(-0.00522284 0.0254457 0)
(-0.00689019 0.0252644 0)
(-0.00818803 0.0250546 0)
(-0.00914883 0.0251232 0)
(-0.00985413 0.0257103 0)
(-0.0103859 0.0270704 0)
(-0.0108367 0.0294905 0)
(-0.0113174 0.0332955 0)
(-0.0119461 0.0388787 0)
(-0.0127072 0.0468387 0)
(-0.0130287 0.0578646 0)
(-0.0128126 0.0680224 0)
(-0.0144522 0.0642959 0)
(-0.0156203 0.027121 0)
(-0.015061 -0.0373132 0)
(-0.0246916 -0.110844 0)
(-0.0503312 -0.197079 0)
(-0.0369092 -0.223476 0)
(-0.00142363 0.0237574 0)
(-0.003819 0.0272319 0)
(-0.00578669 0.027241 0)
(-0.00719193 0.0265853 0)
(-0.00805785 0.0259341 0)
(-0.00841838 0.0256424 0)
(-0.00837602 0.025915 0)
(-0.00792702 0.0270109 0)
(-0.00705047 0.0292028 0)
(-0.00568313 0.0327888 0)
(-0.00366767 0.0380421 0)
(-0.000772953 0.0452744 0)
(0.00411487 0.0545259 0)
(0.0121014 0.0628767 0)
(0.0213989 0.0584953 0)
(0.0287118 0.0276031 0)
(0.0302552 -0.0287148 0)
(0.0208857 -0.087651 0)
(-0.0141191 -0.164076 0)
(-0.0242601 -0.258536 0)
(-0.00185432 0.0274643 0)
(-0.00458227 0.0298646 0)
(-0.00648855 0.0289044 0)
(-0.00750747 0.0274891 0)
(-0.00778933 0.0262398 0)
(-0.00753756 0.0254528 0)
(-0.00674154 0.0252489 0)
(-0.00536436 0.025809 0)
(-0.00329998 0.0273559 0)
(-0.00037363 0.0301101 0)
(0.00373217 0.0342177 0)
(0.00941258 0.0396164 0)
(0.0174116 0.0458827 0)
(0.0285133 0.0503884 0)
(0.0415946 0.0448186 0)
(0.0510661 0.0195653 0)
(0.0511919 -0.023216 0)
(0.0401538 -0.0730195 0)
(0.0103323 -0.133674 0)
(-0.0141097 -0.267499 0)
(-0.00317644 0.0276495 0)
(-0.00641354 0.0303977 0)
(-0.00745458 0.0291047 0)
(-0.00749265 0.0273001 0)
(-0.00699535 0.025664 0)
(-0.00596385 0.0244125 0)
(-0.00438098 0.0236935 0)
(-0.00218387 0.0236284 0)
(0.000790144 0.0243357 0)
(0.00486266 0.0259467 0)
(0.0103653 0.0285626 0)
(0.0176192 0.0319338 0)
(0.0268894 0.0353201 0)
(0.0384289 0.0366723 0)
(0.0508513 0.0312599 0)
(0.0597293 0.0135586 0)
(0.0587093 -0.0161356 0)
(0.0502056 -0.0575947 0)
(0.0241055 -0.109418 0)
(-0.00735724 -0.272767 0)
(-0.00452016 0.045933 0)
(-0.00719361 0.0423465 0)
(-0.00650429 0.0358543 0)
(-0.00500883 0.0306327 0)
(-0.00323387 0.0271805 0)
(-0.000943036 0.0246477 0)
(0.00197542 0.0228492 0)
(0.00548904 0.0217243 0)
(0.00968481 0.021216 0)
(0.0147818 0.0213609 0)
(0.0211179 0.0221973 0)
(0.0290084 0.0236034 0)
(0.0385147 0.0249735 0)
(0.0494398 0.0248402 0)
(0.0602174 0.0209094 0)
(0.0684878 0.00965896 0)
(0.0653629 -0.00923098 0)
(0.0666931 -0.0422872 0)
(0.0279212 -0.0833149 0)
(0.00649078 -0.272179 0)
(-0.00593077 0.0187743 0)
(-0.00798368 0.0110566 0)
(-0.000819557 0.0105357 0)
(0.00667795 0.0132116 0)
(0.0150178 0.0139502 0)
(0.0231616 0.0134171 0)
(0.0309371 0.0128258 0)
(0.0384123 0.0124482 0)
(0.0457786 0.0122389 0)
(0.0532735 0.0121728 0)
(0.0611632 0.0122774 0)
(0.0697298 0.0125408 0)
(0.0790618 0.0128359 0)
(0.0891773 0.0125407 0)
(0.0983936 0.0107886 0)
(0.106864 0.00548998 0)
(0.102312 -0.00284388 0)
(0.113241 -0.0225983 0)
(0.0321536 -0.0450555 0)
(0.0727597 -0.228589 0)
(0.0409467 0.0922821 0)
(0.063207 0.0696251 0)
(0.0886544 0.0437282 0)
(0.110456 0.0291719 0)
(0.127116 0.0214626 0)
(0.14095 0.0168985 0)
(0.153432 0.0138715 0)
(0.164973 0.0117233 0)
(0.175747 0.0101118 0)
(0.185942 0.0088642 0)
(0.195759 0.0078852 0)
(0.205366 0.00707806 0)
(0.214782 0.00638041 0)
(0.224071 0.00568071 0)
(0.231917 0.00485096 0)
(0.239997 0.00355878 0)
(0.23512 0.00186821 0)
(0.255554 -0.00334591 0)
(0.129365 0.00284795 0)
(0.379875 -0.0988604 0)
)
;

boundaryField
{
    movingWall
    {
        type            calculated;
        value           uniform (1.00016 -0.000161214 0);
    }
    fixedWalls
    {
        type            calculated;
        value           uniform (0.00015981 -0.000161214 0);
    }
    frontAndBack
    {
        type            empty;
    }
}


// ************************************************************************* //
