/*--------------------------------*- C++ -*----------------------------------*\
| =========                 |                                                 |
| \\      /  F ield         | OpenFOAM: The Open Source CFD Toolbox           |
|  \\    /   O peration     | Version:  2312                                  |
|   \\  /    A nd           | Website:  www.openfoam.com                      |
|    \\/     M anipulation  |                                                 |
\*---------------------------------------------------------------------------*/
FoamFile
{
    version     2.0;
    format      ascii;
    arch        "LSB;label=32;scalar=64";
    class       volScalarField;
    location    "0.875";
    object      divU;
}
// * * * * * * * * * * * * * * * * * * * * * * * * * * * * * * * * * * * * * //

dimensions      [0 0 -1 0 0 0 0];

internalField   nonuniform List<scalar> 
400
(
0.000397421
0.0194852
0.0129924
0.0180599
0.0176314
0.0168403
0.0158077
0.0145686
0.0123817
0.00913208
0.00734965
0.00476744
-0.00314794
-0.00796219
-0.0162794
-0.0245231
-0.0321416
-0.0286216
-0.0341331
0.00245471
-0.017792
0.00087277
-0.0152561
-0.0158075
-0.0147869
-0.0136046
-0.0121698
-0.0102397
-0.00787956
-0.00488227
-0.000421749
0.00142332
0.00752946
0.0120011
0.0157422
0.0187024
0.0191624
0.017552
-0.00228113
0.0361082
-0.0142486
0.0152979
-0.000868271
-0.00437092
-0.00400655
-0.0035295
-0.0031569
-0.00258183
-0.00180924
-0.000707902
0.000935254
0.00230433
0.00372029
0.00507023
0.00564255
0.00530469
0.00200133
-0.00478987
-0.0268397
0.0267452
-0.0204021
0.0168223
0.00306091
-0.000888455
-0.00041461
0.000100226
0.000224851
0.000397248
0.000715842
0.00127139
0.00196958
0.00246453
0.00308838
0.00338299
0.00281072
0.000556852
-0.00578951
-0.0124748
-0.0316377
0.0410959
-0.0208824
0.0173905
0.00382667
-0.000678282
-0.000325178
0.000343778
0.000520733
0.000627354
0.000874303
0.00137973
0.00211449
0.00265925
0.00336903
0.00568568
0.00652338
0.00279527
-0.00932232
-0.0159502
-0.037123
0.0537744
-0.0210755
0.0175073
0.00381592
-0.0010836
-0.0011064
-0.000445218
-0.000258267
-0.000127307
0.000202064
0.000878601
0.00207005
0.00310517
0.00464986
0.00983723
0.0134231
0.00628493
-0.019363
-0.0244797
-0.0423897
0.0768311
-0.021378
0.0177116
0.00396283
-0.00105516
-0.00146488
-0.000938181
-0.000849008
-0.000827823
-0.000628338
-9.49656e-05
0.00127656
0.00397473
0.00665742
0.0117277
0.0276684
0.0210243
-0.0281992
-0.0274499
-0.000881085
0.131826
-0.0216618
0.0178977
0.00407663
-0.000924542
-0.00167158
-0.00130592
-0.00139871
-0.00162598
-0.0017496
-0.0014828
0.000188717
0.00354524
0.00580146
0.0190619
0.0722273
0.114807
0.0673987
0.0374624
0.0111238
0.0446546
-0.0217479
0.0181667
0.00418928
-0.000773352
-0.00182574
-0.00163121
-0.00194444
-0.00256123
-0.00343619
-0.00433279
-0.00392602
-0.00268867
0.00113466
0.0362823
0.170164
0.312115
0.185802
0.136369
0.0133615
-0.124567
-0.0216385
0.0186671
0.00439093
-0.000569517
-0.00188065
-0.00181325
-0.00232226
-0.00332436
-0.00517415
-0.00835987
-0.00949182
-0.00542172
-0.00985541
0.0173252
0.103896
0.0224896
-0.221347
-0.249119
0.460374
0.49008
-0.0208341
0.0195847
0.00482964
-0.000272378
-0.00177408
-0.00166691
-0.00216493
-0.00327334
-0.00610883
-0.0133421
-0.0170732
-0.0020644
-0.0547033
-0.225455
-0.315487
-0.409644
-0.647744
-0.798807
-0.356379
0.458193
-0.0213512
0.0206935
0.00533533
7.12639e-05
-0.00144799
-0.000969999
-0.00103982
-0.00145744
-0.00365623
-0.0119515
-0.0098238
0.0333683
-0.0708796
-0.409109
-0.611851
-0.282531
-0.0509726
-0.426695
-1.79561
-0.338992
-0.0150266
0.0246351
0.00695314
0.000780651
-0.000776097
0.000203614
0.00103085
0.00238884
0.00374029
0.00287483
0.0202647
0.103633
0.0967327
-0.309563
-0.32699
0.603099
1.41314
1.15197
-0.337448
-0.858126
-0.0374263
0.0212792
0.00409713
-0.000957928
-0.00194423
0.000957846
0.0023323
0.00520408
0.00995846
0.0175994
0.0362218
0.110705
0.170465
-0.096672
-0.0145667
1.15808
1.69915
1.04149
2.01951
-0.917788
0.0262703
0.0470753
0.00857761
-0.00464544
-0.00412785
0.00114913
0.00299439
0.00641495
0.0109313
0.0197396
0.0249167
0.0560261
0.0892459
-0.0349928
-0.286694
0.130067
0.62711
-0.654944
1.82588
-0.532352
-0.286411
-0.146842
-0.106154
-0.058602
-0.0300209
-0.0182105
-0.00482574
0.00590369
0.0123569
0.0189993
0.0306716
0.0338869
-0.0105046
-0.202143
-0.468261
-0.444729
0.166696
-1.08033
0.0394568
-1.01339
0.855916
0.820373
0.587079
0.360288
0.246954
0.180926
0.138023
0.108642
0.0906643
0.0825995
0.0736132
0.0511176
-0.00995668
-0.158626
-0.260871
-0.204843
0.446131
-0.387157
-0.720356
-2.11088
-2.09086
-2.13252
-1.63842
-1.08181
-0.764803
-0.578618
-0.443565
-0.347078
-0.280398
-0.234081
-0.205864
-0.19962
-0.205292
-0.242892
-0.142324
-0.292313
1.14969
-0.244521
0.416024
1.00854
3.2115
3.23898
2.25356
1.43765
1.07657
0.817018
0.627307
0.48405
0.375689
0.288787
0.214424
0.137327
0.0854489
0.0172237
0.162813
-0.218183
1.7476
-3.1217
4.56819
6.87248
-0.754465
-3.32965
-0.733693
-0.424457
-0.524181
-0.432223
-0.299626
-0.217851
-0.170404
-0.134748
-0.106185
-0.0918084
-0.0832743
-0.140864
-0.00369211
-0.616898
1.62107
-8.01325
16.6206
-18.1794
)
;

boundaryField
{
    movingWall
    {
        type            extrapolatedCalculated;
        value           nonuniform List<scalar> 
20
(
-0.754465
-3.32965
-0.733693
-0.424457
-0.524181
-0.432223
-0.299626
-0.217851
-0.170404
-0.134748
-0.106185
-0.0918084
-0.0832743
-0.140864
-0.00369211
-0.616898
1.62107
-8.01325
16.6206
-18.1794
)
;
    }
    fixedWalls
    {
        type            extrapolatedCalculated;
        value           nonuniform List<scalar> 
60
(
0.000397421
-0.017792
-0.0142486
-0.0204021
-0.0208824
-0.0210755
-0.021378
-0.0216618
-0.0217479
-0.0216385
-0.0208341
-0.0213512
-0.0150266
-0.0374263
0.0262703
-0.286411
0.855916
-2.09086
3.2115
-0.754465
0.00245471
0.0361082
0.0267452
0.0410959
0.0537744
0.0768311
0.131826
0.0446546
-0.124567
0.49008
0.458193
-0.338992
-0.858126
-0.917788
-0.532352
-1.01339
-2.11088
1.00854
6.87248
-18.1794
0.000397421
0.0194852
0.0129924
0.0180599
0.0176314
0.0168403
0.0158077
0.0145686
0.0123817
0.00913208
0.00734965
0.00476744
-0.00314794
-0.00796219
-0.0162794
-0.0245231
-0.0321416
-0.0286216
-0.0341331
0.00245471
)
;
    }
    frontAndBack
    {
        type            empty;
    }
}


// ************************************************************************* //
