/*--------------------------------*- C++ -*----------------------------------*\
| =========                 |                                                 |
| \\      /  F ield         | OpenFOAM: The Open Source CFD Toolbox           |
|  \\    /   O peration     | Version:  2312                                  |
|   \\  /    A nd           | Website:  www.openfoam.com                      |
|    \\/     M anipulation  |                                                 |
\*---------------------------------------------------------------------------*/
FoamFile
{
    version     2.0;
    format      ascii;
    arch        "LSB;label=32;scalar=64";
    class       volScalarField;
    location    "0.875";
    object      enstrophyField;
}
// * * * * * * * * * * * * * * * * * * * * * * * * * * * * * * * * * * * * * //

dimensions      [0 0 -2 0 0 0 0];

internalField   nonuniform List<scalar> 
400
(
0.0102903
0.0598561
0.192569
0.431287
0.789704
1.25367
1.79449
2.37333
2.94085
3.43963
3.81338
3.96486
3.86054
3.47648
2.83864
2.04758
1.25617
0.62152
0.210662
0.0458449
0.0613477
0.0381807
0.0259504
0.0192136
0.0166953
0.0166964
0.0180306
0.0197788
0.0211369
0.021493
0.0210308
0.0203287
0.0185825
0.0183124
0.0200634
0.0254309
0.0368776
0.0573835
0.0853646
0.206059
0.19581
0.0283552
0.012686
0.00610967
0.00300505
0.00156651
0.000885925
0.000533967
0.000323036
0.000184075
0.000106319
8.73606e-05
0.000154742
0.000523911
0.0018517
0.00558316
0.0141466
0.0308202
0.0667913
0.667258
0.439455
0.0226634
0.00755072
0.00307753
0.00111892
0.00030463
3.39438e-05
7.09431e-06
7.82685e-05
0.000169463
0.000211713
0.000149598
2.06627e-05
0.000107062
0.00111938
0.00424384
0.0111342
0.024806
0.0681252
1.56329
0.819151
0.0210364
0.0051834
0.00190021
0.000598425
0.000100596
9.1578e-07
8.22726e-05
0.000212108
0.000300028
0.000271658
0.000117822
3.99002e-07
0.000345426
0.00181191
0.00517411
0.011603
0.0248257
0.0853119
3.07476
1.34222
0.0223537
0.00416255
0.00139612
0.000422603
6.28501e-05
3.1818e-06
7.73367e-05
0.000167032
0.000187104
0.000100823
8.30977e-07
0.000202231
0.00117289
0.00321427
0.00641355
0.0117125
0.0231953
0.107861
5.34538
2.00972
0.0261137
0.00388279
0.0012051
0.000372318
6.63442e-05
5.17469e-08
3.43521e-05
6.80573e-05
4.31884e-05
1.34188e-08
0.000160673
0.000939293
0.00264064
0.00520524
0.00897238
0.0174073
0.0335429
0.142052
8.22072
2.82149
0.0322267
0.00408634
0.00118321
0.000375594
8.41936e-05
3.83107e-06
5.15387e-06
8.15418e-06
1.26604e-06
0.000105979
0.000605468
0.00189561
0.00486348
0.0126284
0.0461686
0.211945
0.620056
1.0068
11.1726
3.77778
0.0408014
0.00466603
0.00125853
0.000393647
9.82155e-05
1.19801e-05
1.62302e-07
1.54591e-06
3.97667e-05
0.000223203
0.000671568
0.00185437
0.00907907
0.0556407
0.381632
1.97653
6.52669
12.2234
18.5271
4.88102
0.0520146
0.00555841
0.00137189
0.000387904
8.57162e-05
9.2288e-06
3.67957e-07
2.94627e-06
2.34668e-05
4.20119e-05
1.98654e-05
0.000133666
0.0119991
0.0834566
0.182704
1.40279
13.1633
49.6215
53.1885
6.13974
0.0659748
0.00665964
0.00143577
0.000311028
3.40755e-05
6.22419e-07
1.16366e-05
1.5794e-05
5.29675e-05
0.000377516
0.00177112
0.0085323
0.0857786
1.47527
8.82432
11.1537
0.431984
70.4106
160.189
7.57995
0.0823611
0.00771388
0.00129827
0.000133814
5.68587e-06
9.93404e-05
0.00018523
0.000318807
0.000966413
0.00349721
0.0107876
0.124444
2.6508
24.6746
89.3681
131.326
55.0367
17.2391
387.029
9.24086
0.10008
0.00807283
0.000762363
5.78575e-06
0.000370954
0.0007779
0.00103867
0.00160011
0.00410957
0.0133184
0.0423686
0.478515
9.42342
68.226
202.42
308.953
258.349
20.1924
653.673
11.2931
0.113023
0.00637866
2.36226e-05
0.00100292
0.00275778
0.00372509
0.00409414
0.00512603
0.0101649
0.0297602
0.0953903
0.879036
10.7006
70.4929
201.499
298.855
345.331
161.942
805.282
13.5722
0.1183
0.00191673
0.00237792
0.00899936
0.0132906
0.015209
0.015028
0.0154678
0.0221452
0.0509658
0.158824
0.824088
6.97755
41.6971
118.42
164.724
200.414
268.074
797.962
17.6442
0.0813917
0.00250395
0.0279398
0.0480108
0.0593531
0.0662056
0.0661075
0.0626431
0.0678606
0.102451
0.226271
0.720299
3.75149
18.1657
49.0566
73.252
97.6896
270.755
737.079
18.6266
0.0826819
0.0474889
0.176377
0.276993
0.366793
0.451351
0.521351
0.568873
0.597157
0.649639
0.824119
1.33901
3.12167
8.70965
21.0063
36.4011
71.7861
270.889
652.551
41.7298
0.361984
1.68339
2.60933
3.91947
5.59679
7.31205
8.91659
10.284
11.2478
11.7882
12.1694
12.9722
15.0221
19.6712
29.8571
45.6479
94.0082
283.077
378.275
1.17253
30.9206
43.2484
62.7769
84.6876
102.27
116.167
128.114
138.341
146.414
151.855
154.526
155.351
156.077
159.759
171.386
195.713
266.973
472.581
50.0624
16255.4
19873.2
19069.8
18153.7
17493.1
16998
16582.5
16212.5
15871.4
15546.7
15228.3
14908
14584.1
14256.9
13980.1
13719
13941
13293.4
18707.9
10541.4
)
;

boundaryField
{
    movingWall
    {
        type            calculated;
        value           nonuniform List<scalar> 
20
(
67514.3
72061.9
67950.5
64120.6
61405.8
59320.5
57531.3
55928.6
54466.8
53108.5
51822.3
50583.7
49389.3
48232.5
47280.9
46318.6
47034.5
44325.8
64035.2
28451.8
)
;
    }
    fixedWalls
    {
        type            calculated;
        value           nonuniform List<scalar> 
60
(
0.00922127
0.102766
0.491686
1.29757
2.60107
4.41308
6.72122
9.51136
12.7749
16.5159
20.7641
25.6305
31.2717
38.4867
46.5255
63.0056
64.876
175.091
4.58288
12728.6
0.0565133
0.429235
1.85163
4.79492
9.74
16.8904
25.1595
30.3382
34.8664
62.1926
190.579
772.282
2113.51
3822.41
5107.57
5538.23
5722.6
5079.85
1459.77
6645.75
0.00925693
0.101669
0.492473
1.2863
2.51757
4.12391
6.00038
8.01482
10.0033
11.7745
13.1032
13.6476
13.3296
11.9437
9.63155
6.75513
3.90572
1.69881
0.426945
0.056671
)
;
    }
    frontAndBack
    {
        type            empty;
    }
}


// ************************************************************************* //
