/*--------------------------------*- C++ -*----------------------------------*\
| =========                 |                                                 |
| \\      /  F ield         | OpenFOAM: The Open Source CFD Toolbox           |
|  \\    /   O peration     | Version:  2312                                  |
|   \\  /    A nd           | Website:  www.openfoam.com                      |
|    \\/     M anipulation  |                                                 |
\*---------------------------------------------------------------------------*/
FoamFile
{
    version     2.0;
    format      ascii;
    arch        "LSB;label=32;scalar=64";
    class       volScalarField;
    location    "0.875";
    object      epsilonzeroGrad;
}
// * * * * * * * * * * * * * * * * * * * * * * * * * * * * * * * * * * * * * //

dimensions      [0 2 -3 0 0 0 0];

internalField   nonuniform List<scalar> 
400
(
0.000362781
0.000582865
0.000794268
0.000950021
0.00106078
0.0011419
0.00120504
0.00125735
0.00130214
0.00133998
0.00136936
0.00138517
0.00138942
0.00137155
0.00131952
0.00122371
0.00107442
0.000865114
0.000598773
0.000373633
0.000583893
0.000584432
0.000685743
0.000762016
0.000810903
0.000841088
0.000860326
0.000873594
0.000883498
0.000891069
0.000896179
0.000898091
0.000898124
0.000891525
0.000872924
0.000836853
0.000777055
0.000688017
0.000591738
0.000605641
0.000828615
0.00068577
0.000745912
0.000802484
0.000839978
0.000862515
0.000875909
0.000884228
0.000889968
0.000894386
0.000897801
0.000899391
0.000899384
0.000894618
0.000881516
0.000855772
0.000813016
0.000751864
0.000700119
0.000834302
0.00102392
0.000774731
0.000810082
0.000856688
0.000889636
0.000909779
0.000921358
0.000928259
0.00093299
0.00093692
0.000940466
0.000942883
0.000943568
0.000940125
0.000929223
0.000906797
0.000869063
0.000816928
0.000784338
0.00100937
0.00117434
0.000839072
0.000858194
0.000899491
0.000930566
0.000950213
0.000961887
0.000969029
0.000974087
0.00097848
0.000982717
0.000986531
0.000988748
0.000987727
0.000979668
0.000959842
0.000923427
0.000871595
0.000845501
0.001145
0.00129161
0.000884824
0.000892328
0.000930585
0.000960955
0.000980752
0.000992953
0.00100087
0.00100701
0.00101297
0.00101956
0.001027
0.00103468
0.00104047
0.00104188
0.00103112
0.000998741
0.000940541
0.000905437
0.00126771
0.00138703
0.000918084
0.00091643
0.000952718
0.000982892
0.00100312
0.00101613
0.0010253
0.00103341
0.00104252
0.00105425
0.00107002
0.00109111
0.00111856
0.0011512
0.00117574
0.0011708
0.00110316
0.00101491
0.00140362
0.0014699
0.000943599
0.000934122
0.000968708
0.000998778
0.00101948
0.00103346
0.00104438
0.00105561
0.00107031
0.00109207
0.00112582
0.00117925
0.00126342
0.00139055
0.00156035
0.0016769
0.00164449
0.00136673
0.00158978
0.0015474
0.000965165
0.000948033
0.00098075
0.00101049
0.00103148
0.00104647
0.00105962
0.00107546
0.00109942
0.00113962
0.00121008
0.00133616
0.00156185
0.00195347
0.00257223
0.00321069
0.00341174
0.00268486
0.00200798
0.00162477
0.000985389
0.000960032
0.000990333
0.00101922
0.0010401
0.00105591
0.00107171
0.00109394
0.00113231
0.00120426
0.00134405
0.00162026
0.00215932
0.00316369
0.00484963
0.00687652
0.0077412
0.00678284
0.00359906
0.00170609
0.00100603
0.000971348
0.000998352
0.00102562
0.00104572
0.00106193
0.00108052
0.00111087
0.00116958
0.0012901
0.00154391
0.00208154
0.00315545
0.00499138
0.00741232
0.0100652
0.0128511
0.0148163
0.00996454
0.00179519
0.00102832
0.000982752
0.0010053
0.00102998
0.00104849
0.00106449
0.0010856
0.00112476
0.00120717
0.00138617
0.00177657
0.0026001
0.00405973
0.00585045
0.00776366
0.010097
0.0138918
0.0217916
0.0251995
0.0018953
0.00105316
0.000994743
0.00101159
0.00103288
0.00104931
0.00106465
0.00108738
0.00113365
0.00123524
0.0014573
0.00192191
0.00278736
0.00401488
0.00528396
0.00623169
0.00729555
0.0110496
0.0238675
0.0413981
0.00201511
0.00108138
0.00100784
0.00101838
0.00103679
0.00105173
0.00106657
0.00109048
0.00113999
0.00124848
0.0014797
0.0019302
0.00269625
0.00367971
0.0042519
0.00433404
0.00418797
0.00712583
0.0224664
0.050899
0.00214317
0.00111252
0.00102407
0.00103136
0.00104909
0.00106457
0.00108079
0.0011066
0.00115803
0.00126484
0.00147962
0.00187807
0.00250355
0.00317452
0.00345647
0.0032488
0.00305115
0.00491966
0.0191221
0.058281
0.00233773
0.00115232
0.00105871
0.00107116
0.00109658
0.0011203
0.00114462
0.00117731
0.00123239
0.00133479
0.00152522
0.00186072
0.0023402
0.00282968
0.00300029
0.0028335
0.00291432
0.00457172
0.0177393
0.066504
0.00244868
0.00124812
0.00118673
0.00123921
0.00130185
0.00136074
0.00141801
0.00147971
0.00155701
0.00166874
0.00184324
0.00211456
0.00250158
0.00289867
0.00303844
0.00292621
0.00316254
0.0052296
0.0200235
0.0776215
0.00286589
0.0016916
0.00194783
0.00224058
0.00249764
0.00273578
0.00295926
0.00316971
0.00337602
0.00358914
0.00382706
0.00410377
0.00441179
0.00469168
0.00473461
0.00471698
0.00521165
0.00908224
0.0277692
0.0956028
0.00422472
0.00651151
0.0100013
0.0125837
0.0144267
0.0159288
0.0172058
0.0182672
0.0191536
0.019865
0.0204479
0.0209011
0.0211648
0.0214311
0.0214632
0.0217943
0.0230154
0.0328898
0.0507107
0.127306
0.0444757
0.0850763
0.124792
0.150064
0.165521
0.175299
0.181397
0.184729
0.186209
0.186025
0.185234
0.183544
0.181037
0.178366
0.175515
0.17452
0.176498
0.177175
0.192046
0.166965
)
;

boundaryField
{
    movingWall
    {
        type            zeroGradient;
    }
    fixedWalls
    {
        type            zeroGradient;
    }
    frontAndBack
    {
        type            empty;
    }
}


// ************************************************************************* //
