/*--------------------------------*- C++ -*----------------------------------*\
| =========                 |                                                 |
| \\      /  F ield         | OpenFOAM: The Open Source CFD Toolbox           |
|  \\    /   O peration     | Version:  2312                                  |
|   \\  /    A nd           | Website:  www.openfoam.com                      |
|    \\/     M anipulation  |                                                 |
\*---------------------------------------------------------------------------*/
FoamFile
{
    version     2.0;
    format      ascii;
    arch        "LSB;label=32;scalar=64";
    class       surfaceScalarField;
    location    "0.875";
    object      fluxField;
}
// * * * * * * * * * * * * * * * * * * * * * * * * * * * * * * * * * * * * * //

dimensions      [0 3 -1 0 0 0 0];

oriented        oriented;

internalField   nonuniform List<scalar> 
760
(
-2.81482e-08
2.82475e-08
-8.4164e-08
6.08871e-08
-1.59828e-07
7.89125e-08
-2.40393e-07
8.50796e-08
-3.20748e-07
8.47626e-08
-3.97585e-07
8.10477e-08
-4.68786e-07
7.51527e-08
-5.32422e-07
6.72776e-08
-5.86335e-07
5.70086e-08
-6.27586e-07
4.35341e-08
-6.51823e-07
2.60742e-08
-6.55955e-07
5.32432e-09
-6.35897e-07
-2.08451e-08
-5.87709e-07
-5.01781e-08
-5.1114e-07
-8.06393e-08
-4.08885e-07
-1.08385e-07
-2.89176e-07
-1.27745e-07
-1.6527e-07
-1.31061e-07
-6.37837e-08
-1.10019e-07
-6.317e-08
-6.00589e-08
8.38585e-08
-1.33296e-07
1.34342e-07
-2.17727e-07
1.5953e-07
-3.05591e-07
1.68992e-07
-3.93341e-07
1.68816e-07
-4.78207e-07
1.62512e-07
-5.57665e-07
1.51568e-07
-6.29096e-07
1.36149e-07
-6.89618e-07
1.1556e-07
-7.35894e-07
8.85897e-08
-7.63951e-07
5.40262e-08
-7.69595e-07
1.1324e-08
-7.48891e-07
-3.96666e-08
-6.98905e-07
-9.71636e-08
-6.18857e-07
-1.56752e-07
-5.11196e-07
-2.1137e-07
-3.82976e-07
-2.51175e-07
-2.4498e-07
-2.6467e-07
-1.14144e-07
-2.41425e-07
-1.68287e-07
-7.91587e-08
1.59455e-07
-1.59533e-07
2.1854e-07
-2.45528e-07
2.45308e-07
-3.33654e-07
2.56025e-07
-4.21719e-07
2.55879e-07
-5.07811e-07
2.47723e-07
-5.89732e-07
2.32699e-07
-6.64891e-07
2.10663e-07
-7.30308e-07
1.80525e-07
-7.82479e-07
1.40583e-07
-8.17268e-07
8.90496e-08
-8.30097e-07
2.47283e-08
-8.16328e-07
-5.25054e-08
-7.71907e-07
-1.40317e-07
-6.94505e-07
-2.32744e-07
-5.85033e-07
-3.19516e-07
-4.49551e-07
-3.86157e-07
-2.98398e-07
-4.17021e-07
-1.46539e-07
-3.99993e-07
-3.0814e-07
-8.78144e-08
2.42169e-07
-1.73e-07
3.07931e-07
-2.61508e-07
3.34582e-07
-3.51231e-07
3.45526e-07
-4.4084e-07
3.45385e-07
-5.29268e-07
3.36176e-07
-6.14981e-07
3.18468e-07
-6.95841e-07
2.91623e-07
-7.69123e-07
2.53985e-07
-8.31348e-07
2.03127e-07
-8.78096e-07
1.3629e-07
-9.03941e-07
5.119e-08
-9.02564e-07
-5.31106e-08
-8.6723e-07
-1.74805e-07
-7.92214e-07
-3.07057e-07
-6.75516e-07
-4.36074e-07
-5.22857e-07
-5.40263e-07
-3.47151e-07
-5.95846e-07
-1.69259e-07
-5.85795e-07
-4.67125e-07
-9.11394e-08
3.28088e-07
-1.79794e-07
4.00934e-07
-2.71483e-07
4.27227e-07
-3.64202e-07
4.38075e-07
-4.57075e-07
4.38176e-07
-5.49737e-07
4.28924e-07
-6.4146e-07
4.10322e-07
-7.30855e-07
3.81174e-07
-8.15778e-07
3.39127e-07
-8.9305e-07
2.80743e-07
-9.58016e-07
2.01784e-07
-1.00412e-06
9.7961e-08
-1.02248e-06
-3.391e-08
-1.00181e-06
-1.9405e-07
-9.30253e-07
-3.76987e-07
-8.00439e-07
-5.65189e-07
-6.18122e-07
-7.24911e-07
-4.02587e-07
-8.15369e-07
-1.88919e-07
-8.08743e-07
-6.42601e-07
-9.21912e-08
4.1501e-07
-1.83411e-07
4.96531e-07
-2.78357e-07
5.23127e-07
-3.74729e-07
5.34177e-07
-4.71941e-07
5.35111e-07
-5.70251e-07
5.27122e-07
-6.69862e-07
5.09869e-07
-7.70432e-07
4.81712e-07
-8.70841e-07
4.39587e-07
-9.68711e-07
3.78833e-07
-1.05955e-06
2.93142e-07
-1.13576e-06
1.74951e-07
-1.1852e-06
1.66858e-08
-1.18965e-06
-1.87142e-07
-1.12628e-06
-4.36996e-07
-9.76941e-07
-7.12959e-07
-7.46371e-07
-9.60322e-07
-4.66711e-07
-1.10115e-06
-2.02795e-07
-1.08326e-06
-8.26188e-07
-9.23388e-08
5.02004e-07
-1.85506e-07
5.94126e-07
-2.8343e-07
6.22041e-07
-3.83445e-07
6.33928e-07
-4.85245e-07
6.36545e-07
-5.89738e-07
6.31381e-07
-6.98239e-07
6.18158e-07
-8.11855e-07
5.95121e-07
-9.31156e-07
5.5873e-07
-1.05548e-06
5.03129e-07
-1.1815e-06
4.19483e-07
-1.30109e-06
2.9554e-07
-1.39886e-06
1.1612e-07
-1.44738e-06
-1.3569e-07
-1.40409e-06
-4.73377e-07
-1.22721e-06
-8.84577e-07
-9.1452e-07
-1.28006e-06
-5.23025e-07
-1.49951e-06
-1.88027e-07
-1.41847e-06
-9.81259e-07
-9.21488e-08
5.88738e-07
-1.86772e-07
6.93224e-07
-2.87105e-07
7.23394e-07
-3.9013e-07
7.36722e-07
-4.95841e-07
7.41838e-07
-6.05873e-07
7.41087e-07
-7.22883e-07
7.34818e-07
-8.49925e-07
7.21756e-07
-9.90141e-07
6.98509e-07
-1.14594e-06
6.5856e-07
-1.31706e-06
5.90644e-07
-1.49736e-06
4.76734e-07
-1.67073e-06
2.90935e-07
-1.7994e-06
-2.24965e-09
-1.80895e-06
-4.45775e-07
-1.6084e-06
-1.05642e-06
-1.16461e-06
-1.70701e-06
-5.62212e-07
-2.09254e-06
-9.97689e-08
-1.87814e-06
-1.06986e-06
-9.19045e-08
6.75205e-07
-1.87542e-07
7.93402e-07
-2.89442e-07
8.26341e-07
-3.94195e-07
8.41281e-07
-5.02076e-07
8.49263e-07
-6.15499e-07
8.54102e-07
-7.38642e-07
8.57475e-07
-8.76981e-07
8.59454e-07
-1.03724e-06
8.57913e-07
-1.22683e-06
8.47068e-07
-1.45181e-06
8.14635e-07
-1.7135e-06
7.37755e-07
-2.00312e-06
5.80836e-07
-2.28408e-06
2.87781e-07
-2.45169e-06
-2.35622e-07
-2.33624e-06
-1.09385e-06
-1.80219e-06
-2.1946e-06
-8.78848e-07
-2.98179e-06
-5.6549e-08
-2.69709e-06
-1.15756e-06
-9.19087e-08
7.61704e-07
-1.88218e-07
8.94378e-07
-2.90606e-07
9.29827e-07
-3.95142e-07
9.45675e-07
-5.02278e-07
9.55929e-07
-6.15128e-07
9.66498e-07
-7.39376e-07
9.81143e-07
-8.83074e-07
1.00232e-06
-1.05717e-06
1.03072e-06
-1.27583e-06
1.06363e-06
-1.55507e-06
1.09151e-06
-1.91213e-06
1.09346e-06
-2.37113e-06
1.03737e-06
-2.93507e-06
8.56048e-07
-3.49426e-06
3.49545e-07
-3.75092e-06
-8.31564e-07
-3.32564e-06
-2.67522e-06
-2.12733e-06
-4.24237e-06
-5.54997e-07
-4.15433e-06
-1.59003e-06
-9.27408e-08
8.49236e-07
-1.8964e-07
9.96173e-07
-2.91289e-07
1.03268e-06
-3.93057e-07
1.04737e-06
-4.95362e-07
1.05779e-06
-6.01756e-07
1.07248e-06
-7.19015e-07
1.09786e-06
-8.57183e-07
1.13967e-06
-1.03087e-06
1.20287e-06
-1.26106e-06
1.29049e-06
-1.57522e-06
1.4014e-06
-2.01255e-06
1.53028e-06
-2.66087e-06
1.67201e-06
-3.60445e-06
1.74326e-06
-4.66205e-06
1.32828e-06
-5.32598e-06
-2.70051e-07
-5.13337e-06
-3.02976e-06
-3.90458e-06
-5.67087e-06
-1.74934e-06
-6.39867e-06
-3.22482e-06
-9.54715e-08
9.3937e-07
-1.93358e-07
1.09923e-06
-2.93064e-07
1.13372e-06
-3.89044e-07
1.14337e-06
-4.81491e-07
1.14988e-06
-5.73967e-07
1.16471e-06
-6.73411e-07
1.19704e-06
-7.90197e-07
1.25609e-06
-9.39792e-07
1.35155e-06
-1.14554e-06
1.49325e-06
-1.43808e-06
1.69148e-06
-1.86275e-06
1.9633e-06
-2.54523e-06
2.33677e-06
-3.59803e-06
2.69378e-06
-4.76985e-06
2.34714e-06
-5.53561e-06
4.25067e-07
-5.63746e-06
-2.94065e-06
-4.9007e-06
-6.5143e-06
-2.97598e-06
-8.7723e-06
-6.28555e-06
-1.02043e-07
1.03766e-06
-2.02032e-07
1.20538e-06
-2.98563e-07
1.23199e-06
-3.85406e-07
1.23041e-06
-4.62523e-07
1.2268e-06
-5.33071e-07
1.23531e-06
-6.02953e-07
1.26718e-06
-6.80493e-07
1.33423e-06
-7.7762e-07
1.44961e-06
-9.11683e-07
1.62803e-06
-1.10242e-06
1.88728e-06
-1.36936e-06
2.25615e-06
-1.78098e-06
2.77257e-06
-2.43371e-06
3.26912e-06
-3.1796e-06
3.01129e-06
-3.67518e-06
1.07142e-06
-3.96834e-06
-2.29421e-06
-4.0982e-06
-6.09645e-06
-3.12373e-06
-9.83113e-06
-9.62381e-06
-1.14678e-07
1.14298e-06
-2.18605e-07
1.31463e-06
-3.10816e-07
1.32523e-06
-3.84946e-07
1.3043e-06
-4.41412e-07
1.28278e-06
-4.83064e-07
1.2772e-06
-5.13991e-07
1.29869e-06
-5.38555e-07
1.36009e-06
-5.61845e-07
1.47539e-06
-5.89579e-07
1.66017e-06
-6.24324e-07
1.93108e-06
-6.51389e-07
2.31089e-06
-6.54023e-07
2.81782e-06
-6.89611e-07
3.28054e-06
-7.59803e-07
3.07784e-06
-7.75022e-07
1.37616e-06
-1.00181e-06
-1.64264e-06
-1.88356e-06
-4.95432e-06
-2.189e-06
-9.02081e-06
-1.20423e-05
-1.39056e-07
1.2886e-06
-2.48133e-07
1.43547e-06
-3.32456e-07
1.41169e-06
-3.89235e-07
1.35992e-06
-4.19896e-07
1.31241e-06
-4.2785e-07
1.28544e-06
-4.15566e-07
1.28716e-06
-3.82428e-07
1.32856e-06
-3.2633e-07
1.42203e-06
-2.4176e-07
1.58053e-06
-1.19006e-07
1.81456e-06
7.55576e-08
2.13033e-06
3.97416e-07
2.51828e-06
8.29517e-07
2.83969e-06
1.24478e-06
2.59091e-06
1.46619e-06
1.18727e-06
1.27053e-06
-1.29021e-06
1.61175e-07
-4.0087e-06
-9.67468e-07
-7.4357e-06
-1.31428e-05
-1.68905e-07
1.3859e-06
-2.84761e-07
1.51462e-06
-3.57891e-07
1.45829e-06
-3.9041e-07
1.37779e-06
-3.91163e-07
1.30565e-06
-3.64968e-07
1.25469e-06
-3.10638e-07
1.23162e-06
-2.24599e-07
1.244e-06
-9.98306e-08
1.30035e-06
7.5973e-08
1.40948e-06
3.20628e-07
1.57757e-06
6.62615e-07
1.79682e-06
1.14013e-06
2.03813e-06
1.74471e-06
2.18458e-06
2.30853e-06
1.91002e-06
2.54846e-06
8.36159e-07
2.27565e-06
-9.75729e-07
1.25416e-06
-3.25729e-06
-1.02425e-07
-6.06924e-06
-1.34986e-05
-2.4774e-07
1.84762e-06
-3.54694e-07
1.82666e-06
-3.81671e-07
1.63203e-06
-3.70191e-07
1.45638e-06
-3.31971e-07
1.32917e-06
-2.66611e-07
1.23457e-06
-1.72112e-07
1.17163e-06
-4.28337e-08
1.14188e-06
1.3333e-07
1.14685e-06
3.72708e-07
1.19075e-06
6.91621e-07
1.27706e-06
1.10472e-06
1.39649e-06
1.62497e-06
1.5154e-06
2.22401e-06
1.54587e-06
2.75653e-06
1.31229e-06
2.95297e-06
5.88499e-07
2.71488e-06
-6.26103e-07
1.84979e-06
-2.48899e-06
4.10715e-07
-4.81026e-06
-1.36156e-05
-3.00835e-07
1.62574e-06
-3.50438e-07
1.34314e-06
-2.95818e-07
1.16781e-06
-2.14058e-07
1.10417e-06
-1.12413e-07
1.03633e-06
1.78191e-08
9.5968e-07
1.78621e-07
8.99935e-07
3.71356e-07
8.62375e-07
6.03675e-07
8.44434e-07
8.89502e-07
8.46403e-07
1.24517e-06
8.69926e-07
1.68009e-06
9.11666e-07
2.19087e-06
9.53294e-07
2.73344e-06
9.42584e-07
3.20964e-06
8.0051e-07
3.33828e-06
3.86784e-07
3.29341e-06
-2.93811e-07
2.35737e-06
-1.61408e-06
8.5231e-07
-3.2012e-06
-1.25111e-05
-3.55852e-07
2.78447e-06
-2.28071e-07
2.0251e-06
1.38469e-07
1.36466e-06
5.34402e-07
1.06765e-06
9.46494e-07
8.93379e-07
1.34448e-06
7.65951e-07
1.72575e-06
6.75493e-07
2.09678e-06
6.1235e-07
2.46831e-06
5.66828e-07
2.85293e-06
5.33985e-07
3.26433e-06
5.12125e-07
3.7118e-06
4.98532e-07
4.19799e-06
4.88468e-07
4.68128e-06
4.63595e-07
5.12345e-06
3.9905e-07
5.22141e-06
2.3428e-07
5.38083e-06
-1.63311e-08
3.62687e-06
-6.40544e-07
2.61484e-06
-1.04713e-06
-8.17818e-06
2.59585e-06
3.78855e-06
4.96978e-06
5.93132e-06
6.69365e-06
7.35154e-06
7.95213e-06
8.51002e-06
9.03425e-06
9.53454e-06
1.00201e-05
1.04957e-05
1.09634e-05
1.13917e-05
1.17899e-05
1.18699e-05
1.22588e-05
9.61499e-06
1.2723e-05
)
;

boundaryField
{
    movingWall
    {
        type            calculated;
        value           uniform 0;
    }
    fixedWalls
    {
        type            calculated;
        value           uniform 0;
    }
    frontAndBack
    {
        type            empty;
        value           nonuniform List<scalar> 0();
    }
}


// ************************************************************************* //
