/*--------------------------------*- C++ -*----------------------------------*\
| =========                 |                                                 |
| \\      /  F ield         | OpenFOAM: The Open Source CFD Toolbox           |
|  \\    /   O peration     | Version:  2312                                  |
|   \\  /    A nd           | Website:  www.openfoam.com                      |
|    \\/     M anipulation  |                                                 |
\*---------------------------------------------------------------------------*/
FoamFile
{
    version     2.0;
    format      ascii;
    arch        "LSB;label=32;scalar=64";
    class       volTensorField;
    location    "0.875";
    object      gradU;
}
// * * * * * * * * * * * * * * * * * * * * * * * * * * * * * * * * * * * * * //

dimensions      [0 0 -1 0 0 0 0];

internalField   nonuniform List<tensor> 
400
(
(-0.112593 0.0721419 0 -0.0713177 0.11299 0 0 0 0)
(-0.224063 0.0644838 0 -0.281511 0.243548 0 0 0 0)
(-0.302657 0.0322682 0 -0.588327 0.31565 0 0 0 0)
(-0.322259 0.00685639 0 -0.921892 0.340318 0 0 0 0)
(-0.321419 -0.00529952 0 -1.26204 0.339051 0 0 0 0)
(-0.307351 -0.0108516 0 -1.59431 0.324191 0 0 0 0)
(-0.284803 -0.0144006 0 -1.90886 0.300611 0 0 0 0)
(-0.254542 -0.0182635 0 -2.19695 0.26911 0 0 0 0)
(-0.215653 -0.0239038 0 -2.44913 0.228034 0 0 0 0)
(-0.165004 -0.031851 0 -2.65468 0.174137 0 0 0 0)
(-0.0969471 -0.0375743 0 -2.79923 0.104297 0 0 0 0)
(-0.0165298 -0.0478849 0 -2.86386 0.0212973 0 0 0 0)
(0.0802323 -0.0596546 0 -2.83834 -0.0833803 0 0 0 0)
(0.19275 -0.0639675 0 -2.70081 -0.200713 0 0 0 0)
(0.306278 -0.0629414 0 -2.44565 -0.322557 0 0 0 0)
(0.409019 -0.0506935 0 -2.07434 -0.433542 0 0 0 0)
(0.478839 -0.020947 0 -1.60599 -0.51098 0 0 0 0)
(0.495624 0.032297 0 -1.08262 -0.524246 0 0 0 0)
(0.405944 0.0907178 0 -0.558376 -0.440077 0 0 0 0)
(0.255135 0.149468 0 -0.153335 -0.25268 0 0 0 0)
(-0.240236 0.284397 0 -0.0658825 0.222444 0 0 0 0)
(-0.292946 0.138176 0 -0.13816 0.293819 0 0 0 0)
(-0.337724 0.0645019 0 -0.163315 0.322468 0 0 0 0)
(-0.351459 0.0165443 0 -0.179484 0.335652 0 0 0 0)
(-0.351 -0.010828 0 -0.193559 0.336213 0 0 0 0)
(-0.339463 -0.0275881 0 -0.210325 0.325859 0 0 0 0)
(-0.317831 -0.04068 0 -0.230578 0.305661 0 0 0 0)
(-0.285725 -0.0543128 0 -0.253204 0.275485 0 0 0 0)
(-0.242086 -0.0710699 0 -0.276676 0.234207 0 0 0 0)
(-0.185105 -0.0918868 0 -0.299218 0.180222 0 0 0 0)
(-0.11223 -0.115265 0 -0.320354 0.111808 0 0 0 0)
(-0.0225752 -0.139792 0 -0.341429 0.0239986 0 0 0 0)
(0.0828155 -0.162355 0 -0.355137 -0.075286 0 0 0 0)
(0.199943 -0.17521 0 -0.366586 -0.187942 0 0 0 0)
(0.320194 -0.169888 0 -0.370204 -0.304452 0 0 0 0)
(0.430642 -0.13773 0 -0.363255 -0.411939 0 0 0 0)
(0.512883 -0.0697572 0 -0.341336 -0.49372 0 0 0 0)
(0.551985 0.0386066 0 -0.300166 -0.534433 0 0 0 0)
(0.523341 0.180848 0 -0.232346 -0.525623 0 0 0 0)
(0.456577 0.543288 0 -0.0986765 -0.420468 0 0 0 0)
(-0.316635 0.588405 0 -0.0373907 0.302386 0 0 0 0)
(-0.321496 0.164508 0 -0.073631 0.336794 0 0 0 0)
(-0.343982 0.0741006 0 -0.0851853 0.343114 0 0 0 0)
(-0.352502 0.0206009 0 -0.0899402 0.348131 0 0 0 0)
(-0.35226 -0.0150921 0 -0.0926169 0.348254 0 0 0 0)
(-0.34437 -0.0414031 0 -0.0973764 0.34084 0 0 0 0)
(-0.327681 -0.0647747 0 -0.106868 0.324525 0 0 0 0)
(-0.300639 -0.0897181 0 -0.122397 0.298057 0 0 0 0)
(-0.261667 -0.119166 0 -0.144584 0.259858 0 0 0 0)
(-0.208683 -0.15425 0 -0.173437 0.207975 0 0 0 0)
(-0.139158 -0.193798 0 -0.20838 0.140094 0 0 0 0)
(-0.0513131 -0.234979 0 -0.248197 0.0536175 0 0 0 0)
(0.0550757 -0.271595 0 -0.289187 -0.0513554 0 0 0 0)
(0.177683 -0.293133 0 -0.325504 -0.172613 0 0 0 0)
(0.309608 -0.286939 0 -0.347795 -0.303966 0 0 0 0)
(0.437887 -0.239962 0 -0.345633 -0.432582 0 0 0 0)
(0.541928 -0.143441 0 -0.311646 -0.539927 0 0 0 0)
(0.604615 0.000394763 0 -0.24788 -0.609405 0 0 0 0)
(0.607433 0.204683 0 -0.160807 -0.634273 0 0 0 0)
(0.586157 1.09556 0 -0.0596535 -0.559412 0 0 0 0)
(-0.351257 0.923577 0 -0.013925 0.330855 0 0 0 0)
(-0.340741 0.178903 0 -0.0339977 0.357563 0 0 0 0)
(-0.354033 0.0758388 0 -0.0470491 0.357094 0 0 0 0)
(-0.358891 0.0216845 0 -0.0567697 0.358002 0 0 0 0)
(-0.358436 -0.0181186 0 -0.0654245 0.358021 0 0 0 0)
(-0.353715 -0.0513173 0 -0.0760005 0.353815 0 0 0 0)
(-0.342852 -0.0834629 0 -0.0917023 0.343077 0 0 0 0)
(-0.323441 -0.11898 0 -0.115213 0.323838 0 0 0 0)
(-0.293126 -0.161152 0 -0.148641 0.293842 0 0 0 0)
(-0.248901 -0.211651 0 -0.193241 0.250172 0 0 0 0)
(-0.18699 -0.269622 0 -0.249045 0.18896 0 0 0 0)
(-0.103382 -0.331241 0 -0.313944 0.105847 0 0 0 0)
(0.00550907 -0.388586 0 -0.382157 -0.00242069 0 0 0 0)
(0.141335 -0.42782 0 -0.442453 -0.137952 0 0 0 0)
(0.300065 -0.429857 0 -0.477172 -0.297254 0 0 0 0)
(0.46679 -0.37369 0 -0.465819 -0.466233 0 0 0 0)
(0.610635 -0.24658 0 -0.395806 -0.616425 0 0 0 0)
(0.702825 -0.0557399 0 -0.278477 -0.7153 0 0 0 0)
(0.711568 0.230841 0 -0.13828 -0.743206 0 0 0 0)
(0.677037 1.73697 0 -0.0312409 -0.635941 0 0 0 0)
(-0.364558 1.27682 0 -0.00313825 0.343675 0 0 0 0)
(-0.35462 0.190747 0 -0.014369 0.372011 0 0 0 0)
(-0.366754 0.0745396 0 -0.0272778 0.370581 0 0 0 0)
(-0.370877 0.0215277 0 -0.0401198 0.370199 0 0 0 0)
(-0.371491 -0.0192795 0 -0.053875 0.371166 0 0 0 0)
(-0.370648 -0.0563474 0 -0.0705316 0.370991 0 0 0 0)
(-0.366894 -0.0947514 0 -0.0933981 0.367415 0 0 0 0)
(-0.357578 -0.138953 0 -0.126126 0.358205 0 0 0 0)
(-0.339694 -0.192832 0 -0.172236 0.340569 0 0 0 0)
(-0.309087 -0.259132 0 -0.234636 0.310467 0 0 0 0)
(-0.259862 -0.338124 0 -0.314815 0.261976 0 0 0 0)
(-0.184425 -0.426359 0 -0.411009 0.187084 0 0 0 0)
(-0.0734331 -0.515394 0 -0.516287 0.0768022 0 0 0 0)
(0.082668 -0.587967 0 -0.614251 -0.0769823 0 0 0 0)
(0.286242 -0.61522 0 -0.675418 -0.279718 0 0 0 0)
(0.519253 -0.559132 0 -0.660858 -0.516458 0 0 0 0)
(0.72927 -0.392507 0 -0.544843 -0.738592 0 0 0 0)
(0.862141 -0.126387 0 -0.349212 -0.878091 0 0 0 0)
(0.85467 0.284041 0 -0.129025 -0.891793 0 0 0 0)
(0.755678 2.47471 0 -0.0051179 -0.701903 0 0 0 0)
(-0.368765 1.63926 0 0.000834792 0.347689 0 0 0 0)
(-0.36488 0.205809 0 -0.00563237 0.382388 0 0 0 0)
(-0.379784 0.0740269 0 -0.0172151 0.3836 0 0 0 0)
(-0.385488 0.0222698 0 -0.0305718 0.384404 0 0 0 0)
(-0.388848 -0.0173261 0 -0.0463986 0.387741 0 0 0 0)
(-0.393238 -0.0550685 0 -0.0662801 0.392792 0 0 0 0)
(-0.398446 -0.096249 0 -0.0937264 0.398188 0 0 0 0)
(-0.402278 -0.145826 0 -0.133389 0.402151 0 0 0 0)
(-0.401636 -0.208891 0 -0.190613 0.401838 0 0 0 0)
(-0.39148 -0.290243 0 -0.270898 0.392358 0 0 0 0)
(-0.363363 -0.393005 0 -0.378805 0.365433 0 0 0 0)
(-0.304854 -0.516415 0 -0.515126 0.307959 0 0 0 0)
(-0.197734 -0.652652 0 -0.672763 0.202383 0 0 0 0)
(-0.0177963 -0.78434 0 -0.832774 0.0276336 0 0 0 0)
(0.253458 -0.869332 0 -0.949511 -0.240035 0 0 0 0)
(0.597366 -0.832564 0 -0.945821 -0.591081 0 0 0 0)
(0.922281 -0.608213 0 -0.761265 -0.941644 0 0 0 0)
(1.11864 -0.208941 0 -0.424326 -1.14312 0 0 0 0)
(1.05566 0.407029 0 -0.0574288 -1.09805 0 0 0 0)
(0.81118 3.33067 0 0.0609968 -0.734348 0 0 0 0)
(-0.369355 2.0069 0 0.00204446 0.347977 0 0 0 0)
(-0.37267 0.226658 0 -0.00187487 0.390382 0 0 0 0)
(-0.391693 0.0765561 0 -0.0115664 0.395656 0 0 0 0)
(-0.400061 0.0256686 0 -0.0234252 0.399005 0 0 0 0)
(-0.407199 -0.0108913 0 -0.0381793 0.405735 0 0 0 0)
(-0.417975 -0.0459009 0 -0.0574199 0.417037 0 0 0 0)
(-0.434003 -0.0853927 0 -0.085071 0.433154 0 0 0 0)
(-0.454465 -0.135303 0 -0.127014 0.453637 0 0 0 0)
(-0.477203 -0.202625 0 -0.190958 0.476575 0 0 0 0)
(-0.497279 -0.295537 0 -0.286243 0.497184 0 0 0 0)
(-0.50409 -0.422523 0 -0.422687 0.505366 0 0 0 0)
(-0.478384 -0.589409 0 -0.607335 0.482358 0 0 0 0)
(-0.391081 -0.795719 0 -0.839062 0.397738 0 0 0 0)
(-0.194079 -1.03039 0 -1.10306 0.205807 0 0 0 0)
(0.173195 -1.23393 0 -1.33597 -0.145526 0 0 0 0)
(0.707499 -1.26074 0 -1.3947 -0.686474 0 0 0 0)
(1.25076 -0.944549 0 -1.13114 -1.27896 0 0 0 0)
(1.56598 -0.282795 0 -0.541804 -1.59343 0 0 0 0)
(1.33999 0.692815 0 0.159801 -1.34087 0 0 0 0)
(0.75211 4.30711 0 0.252303 -0.620283 0 0 0 0)
(-0.368595 2.37762 0 0.00212617 0.346933 0 0 0 0)
(-0.378491 0.253488 0 -0.000389144 0.396389 0 0 0 0)
(-0.401335 0.0826506 0 -0.00775233 0.405411 0 0 0 0)
(-0.412101 0.0323483 0 -0.0162976 0.411176 0 0 0 0)
(-0.422842 0.000705657 0 -0.0267022 0.421171 0 0 0 0)
(-0.440129 -0.0276488 0 -0.0406252 0.438823 0 0 0 0)
(-0.46804 -0.0596492 0 -0.0624173 0.466642 0 0 0 0)
(-0.508165 -0.102405 0 -0.0991948 0.506539 0 0 0 0)
(-0.560865 -0.165344 0 -0.161305 0.559115 0 0 0 0)
(-0.623209 -0.261452 0 -0.263043 0.621726 0 0 0 0)
(-0.684455 -0.40783 0 -0.422389 0.684644 0 0 0 0)
(-0.721229 -0.624043 0 -0.658842 0.724774 0 0 0 0)
(-0.693457 -0.929204 0 -0.990777 0.699258 0 0 0 0)
(-0.514701 -1.3276 0 -1.42623 0.533762 0 0 0 0)
(-0.0381824 -1.76161 0 -1.92054 0.11041 0 0 0 0)
(0.802196 -1.966 0 -2.26987 -0.687388 0 0 0 0)
(1.77518 -1.51517 0 -2.16623 -1.70778 0 0 0 0)
(2.40958 -0.27085 0 -1.38445 -2.37212 0 0 0 0)
(1.84977 1.38017 0 -0.0388382 -1.83865 0 0 0 0)
(0.399076 5.29183 0 0.564752 -0.354421 0 0 0 0)
(-0.367618 2.75022 0 0.00148595 0.34587 0 0 0 0)
(-0.382549 0.285136 0 -0.000525547 0.400715 0 0 0 0)
(-0.407602 0.0913431 0 -0.00525941 0.411791 0 0 0 0)
(-0.41901 0.041428 0 -0.00874219 0.418237 0 0 0 0)
(-0.431527 0.016756 0 -0.0113028 0.429701 0 0 0 0)
(-0.453691 -0.000430057 0 -0.0144454 0.452059 0 0 0 0)
(-0.492573 -0.0176767 0 -0.0225716 0.490628 0 0 0 0)
(-0.553353 -0.0428295 0 -0.0433993 0.550792 0 0 0 0)
(-0.641051 -0.0874386 0 -0.089197 0.637615 0 0 0 0)
(-0.758363 -0.170008 0 -0.178926 0.75403 0 0 0 0)
(-0.899889 -0.319474 0 -0.340603 0.895963 0 0 0 0)
(-1.04677 -0.574795 0 -0.611444 1.04408 0 0 0 0)
(-1.15847 -0.986731 0 -1.04763 1.1596 0 0 0 0)
(-1.12384 -1.61923 0 -1.75399 1.16012 0 0 0 0)
(-0.670447 -2.45509 0 -2.78867 0.840611 0 0 0 0)
(0.461802 -3.07893 0 -3.95258 -0.149687 0 0 0 0)
(2.13618 -2.62928 0 -4.61751 -1.95038 0 0 0 0)
(3.69337 -0.413665 0 -4.02661 -3.557 0 0 0 0)
(3.2892 2.71051 0 -2.23386 -3.27584 0 0 0 0)
(0.226196 6.50017 0 0.412953 -0.350763 0 0 0 0)
(-0.367635 3.12421 0 -0.000217637 0.345996 0 0 0 0)
(-0.385237 0.319408 0 -0.00312737 0.403904 0 0 0 0)
(-0.409551 0.100172 0 -0.00526409 0.413942 0 0 0 0)
(-0.418144 0.0502586 0 -0.00212244 0.417575 0 0 0 0)
(-0.428546 0.0345279 0 0.00667455 0.426665 0 0 0 0)
(-0.451398 0.0332784 0 0.0201852 0.449585 0 0 0 0)
(-0.496994 0.0390831 0 0.0347869 0.494672 0 0 0 0)
(-0.574791 0.0445813 0 0.0437234 0.571466 0 0 0 0)
(-0.696391 0.0378945 0 0.035467 0.691217 0 0 0 0)
(-0.874614 -0.00310416 0 -0.00995497 0.866254 0 0 0 0)
(-1.11697 -0.117778 0 -0.126944 1.10748 0 0 0 0)
(-1.42826 -0.360402 0 -0.366706 1.42284 0 0 0 0)
(-1.836 -0.813164 0 -0.829514 1.82614 0 0 0 0)
(-2.25574 -1.6466 0 -1.80151 2.27307 0 0 0 0)
(-2.23677 -3.07142 0 -3.47997 2.34067 0 0 0 0)
(-1.02664 -4.75699 0 -5.36148 1.04913 0 0 0 0)
(1.70114 -4.92248 0 -6.59747 -1.92249 0 0 0 0)
(4.79323 -1.5963 0 -6.72726 -5.04234 0 0 0 0)
(6.28933 4.58641 0 -5.37566 -5.82896 0 0 0 0)
(2.21999 8.91842 0 -1.3955 -1.72991 0 0 0 0)
(-0.370963 3.50012 0 -0.00408504 0.350129 0 0 0 0)
(-0.387595 0.353082 0 -0.0101662 0.40718 0 0 0 0)
(-0.406597 0.105014 0 -0.0103954 0.411426 0 0 0 0)
(-0.407072 0.0541507 0 0.000563928 0.406799 0 0 0 0)
(-0.409219 0.0487664 0 0.0238253 0.407445 0 0 0 0)
(-0.425578 0.0675768 0 0.0593215 0.423911 0 0 0 0)
(-0.469035 0.104205 0 0.105321 0.46687 0 0 0 0)
(-0.552673 0.153716 0 0.15854 0.549399 0 0 0 0)
(-0.69473 0.207349 0 0.21297 0.688621 0 0 0 0)
(-0.920774 0.246257 0 0.25655 0.907432 0 0 0 0)
(-1.25664 0.237107 0 0.264584 1.23957 0 0 0 0)
(-1.74934 0.143868 0 0.203384 1.74728 0 0 0 0)
(-2.59327 -0.136497 0 -0.00586586 2.53857 0 0 0 0)
(-3.7743 -1.10471 0 -0.690515 3.54884 0 0 0 0)
(-4.23042 -3.67902 0 -1.96131 3.91493 0 0 0 0)
(-2.65569 -7.34208 0 -3.14106 2.24605 0 0 0 0)
(0.770413 -8.72075 0 -3.99768 -1.41816 0 0 0 0)
(4.91518 -4.32014 0 -5.24964 -5.71399 0 0 0 0)
(8.62095 6.02295 0 -5.84386 -8.97733 0 0 0 0)
(6.99736 14.059 0 -3.84006 -6.53917 0 0 0 0)
(-0.381886 3.88152 0 -0.0120548 0.360535 0 0 0 0)
(-0.391547 0.380706 0 -0.0251543 0.412241 0 0 0 0)
(-0.398821 0.0997919 0 -0.0244166 0.404156 0 0 0 0)
(-0.383923 0.0462775 0 -0.00467866 0.383995 0 0 0 0)
(-0.369788 0.0516397 0 0.0352803 0.36834 0 0 0 0)
(-0.369903 0.0927027 0 0.0960749 0.368933 0 0 0 0)
(-0.397776 0.164571 0 0.178667 0.396736 0 0 0 0)
(-0.467142 0.266333 0 0.28558 0.465684 0 0 0 0)
(-0.598381 0.395927 0 0.421178 0.594725 0 0 0 0)
(-0.822999 0.547841 0 0.591805 0.811048 0 0 0 0)
(-1.17014 0.722067 0 0.805699 1.16031 0 0 0 0)
(-1.69871 0.938602 0 1.08549 1.73208 0 0 0 0)
(-2.7299 0.988404 0 1.48729 2.65902 0 0 0 0)
(-4.21119 -0.270234 0 2.03228 3.80208 0 0 0 0)
(-4.68732 -4.37422 0 2.65068 4.07546 0 0 0 0)
(-3.063 -10.0901 0 3.27914 2.78047 0 0 0 0)
(-0.407437 -12.8825 0 3.32404 0.356464 0 0 0 0)
(2.94704 -9.15548 0 1.33611 -3.37374 0 0 0 0)
(7.69891 3.76123 0 -2.11058 -9.49451 0 0 0 0)
(11.9039 24.4349 0 -3.38696 -12.2429 0 0 0 0)
(-0.408172 4.2729 0 -0.0261393 0.393146 0 0 0 0)
(-0.399957 0.396704 0 -0.0506883 0.424592 0 0 0 0)
(-0.386121 0.0767679 0 -0.0502977 0.393074 0 0 0 0)
(-0.347375 0.0183342 0 -0.0207136 0.348155 0 0 0 0)
(-0.308466 0.0337048 0 0.0371064 0.30769 0 0 0 0)
(-0.282192 0.0959728 0 0.123211 0.282395 0 0 0 0)
(-0.27953 0.200956 0 0.2404 0.280561 0 0 0 0)
(-0.310161 0.351705 0 0.397283 0.31255 0 0 0 0)
(-0.388505 0.552713 0 0.609283 0.392245 0 0 0 0)
(-0.536253 0.811847 0 0.902506 0.539128 0 0 0 0)
(-0.762957 1.15813 0 1.32134 0.783222 0 0 0 0)
(-1.06775 1.64257 0 1.93367 1.17138 0 0 0 0)
(-1.64648 1.93351 0 2.91179 1.74321 0 0 0 0)
(-2.61091 0.311736 0 4.65303 2.30135 0 0 0 0)
(-2.98357 -4.70063 0 6.98063 2.65658 0 0 0 0)
(-1.98233 -11.0611 0 9.05958 2.58543 0 0 0 0)
(-1.17261 -14.875 0 9.98276 2.58575 0 0 0 0)
(-0.519443 -14.1711 0 8.55988 1.67141 0 0 0 0)
(3.89788 -2.84621 0 3.50869 -4.23532 0 0 0 0)
(12.4949 35.7965 0 -0.36079 -13.353 0 0 0 0)
(-0.458714 4.69925 0 -0.0532439 0.421287 0 0 0 0)
(-0.415705 0.380634 0 -0.0948084 0.436985 0 0 0 0)
(-0.368846 0.0233554 0 -0.0895929 0.372944 0 0 0 0)
(-0.296519 -0.039107 0 -0.0459805 0.295561 0 0 0 0)
(-0.225864 -0.0141204 0 0.0306662 0.223919 0 0 0 0)
(-0.16661 0.0655736 0 0.13984 0.167567 0 0 0 0)
(-0.123704 0.194726 0 0.281041 0.126036 0 0 0 0)
(-0.0982586 0.378017 0 0.468506 0.103463 0 0 0 0)
(-0.0931575 0.622504 0 0.723757 0.103116 0 0 0 0)
(-0.11094 0.938818 0 1.0814 0.128539 0 0 0 0)
(-0.138976 1.35432 0 1.59829 0.175198 0 0 0 0)
(-0.108261 1.89859 0 2.33537 0.218966 0 0 0 0)
(-0.0105371 2.11837 0 3.44429 0.181002 0 0 0 0)
(-0.142352 0.643134 0 5.26929 0.0456799 0 0 0 0)
(-0.280769 -4.09013 0 7.78361 0.266203 0 0 0 0)
(-0.0608752 -10.1609 0 9.91389 1.21896 0 0 0 0)
(-0.907132 -13.7965 0 10.6516 2.60628 0 0 0 0)
(-3.52702 -15.9766 0 10.3039 4.56851 0 0 0 0)
(-1.22176 -11.2632 0 6.73359 3.24127 0 0 0 0)
(8.756 42.0233 0 1.89145 -9.67379 0 0 0 0)
(-0.556225 5.13117 0 -0.0788538 0.582495 0 0 0 0)
(-0.436306 0.34836 0 -0.138054 0.483381 0 0 0 0)
(-0.337293 -0.0646555 0 -0.12657 0.345871 0 0 0 0)
(-0.227116 -0.13069 0 -0.0617273 0.22247 0 0 0 0)
(-0.122645 -0.0942891 0 0.0398702 0.118517 0 0 0 0)
(-0.0318172 -0.0019102 0 0.161127 0.0329663 0 0 0 0)
(0.049136 0.136851 0 0.311259 -0.0461416 0 0 0 0)
(0.132555 0.328784 0 0.502151 -0.12614 0 0 0 0)
(0.224389 0.577789 0 0.753674 -0.213458 0 0 0 0)
(0.33828 0.883929 0 1.09438 -0.31854 0 0 0 0)
(0.491017 1.24856 0 1.56783 -0.466101 0 0 0 0)
(0.778255 1.64838 0 2.21198 -0.722229 0 0 0 0)
(1.28743 1.76022 0 3.04404 -1.19819 0 0 0 0)
(1.7284 0.396936 0 4.13259 -1.76339 0 0 0 0)
(1.66104 -3.52735 0 5.60469 -1.94773 0 0 0 0)
(0.885635 -8.721 0 6.66863 -0.755569 0 0 0 0)
(-0.782611 -11.5254 0 6.62529 1.40972 0 0 0 0)
(-4.43743 -13.5361 0 6.48454 3.78249 0 0 0 0)
(-4.51457 -17.0885 0 6.06635 6.34045 0 0 0 0)
(3.86987 42.229 0 2.27995 -4.40223 0 0 0 0)
(-0.675622 5.76513 0 -0.175281 0.389211 0 0 0 0)
(-0.463422 0.14401 0 -0.259454 0.31658 0 0 0 0)
(-0.29252 -0.237556 0 -0.166789 0.186366 0 0 0 0)
(-0.130079 -0.266461 0 -0.0300722 0.0714766 0 0 0 0)
(-0.00300921 -0.203624 0 0.106249 -0.0270117 0 0 0 0)
(0.104779 -0.0990851 0 0.245453 -0.12299 0 0 0 0)
(0.217319 0.0356204 0 0.399504 -0.222145 0 0 0 0)
(0.344156 0.210701 0 0.574314 -0.338252 0 0 0 0)
(0.499073 0.430104 0 0.784062 -0.486717 0 0 0 0)
(0.703214 0.686175 0 1.05458 -0.684215 0 0 0 0)
(0.978621 0.950633 0 1.40329 -0.947949 0 0 0 0)
(1.36795 1.1665 0 1.83921 -1.33406 0 0 0 0)
(1.91007 1.0772 0 2.27745 -1.92058 0 0 0 0)
(2.4183 -0.106412 0 2.63275 -2.62044 0 0 0 0)
(2.25528 -3.08231 0 2.94524 -2.72354 0 0 0 0)
(0.959727 -6.80346 0 3.10175 -1.40446 0 0 0 0)
(-1.09123 -9.25848 0 2.8454 1.25792 0 0 0 0)
(-4.08596 -11.0458 0 2.93199 3.00563 0 0 0 0)
(-5.42635 -19.4479 0 3.82245 5.46581 0 0 0 0)
(0.409702 40.0851 0 1.69028 -1.42309 0 0 0 0)
(-0.99096 5.83696 0 -0.266583 1.84688 0 0 0 0)
(-0.427814 0.145516 0 -0.261134 1.24819 0 0 0 0)
(-0.107911 -0.309759 0 -0.00157429 0.69499 0 0 0 0)
(0.0459226 -0.344067 0 0.249864 0.314365 0 0 0 0)
(0.15288 -0.288756 0 0.455547 0.0940745 0 0 0 0)
(0.261438 -0.197044 0 0.659452 -0.0805115 0 0 0 0)
(0.377998 -0.0784111 0 0.871696 -0.239975 0 0 0 0)
(0.517112 0.0642127 0 1.08534 -0.40847 0 0 0 0)
(0.704653 0.231826 0 1.29848 -0.613989 0 0 0 0)
(0.957512 0.422696 0 1.51554 -0.874912 0 0 0 0)
(1.27565 0.598715 0 1.73857 -1.20204 0 0 0 0)
(1.65241 0.675748 0 1.95959 -1.6013 0 0 0 0)
(2.08097 0.473842 0 2.11031 -2.09092 0 0 0 0)
(2.39619 -0.406023 0 2.09265 -2.55482 0 0 0 0)
(2.13005 -2.31137 0 1.86228 -2.39092 0 0 0 0)
(0.785795 -4.73954 0 1.74217 -0.990638 0 0 0 0)
(-0.952372 -7.11533 0 1.41709 1.3985 0 0 0 0)
(-3.46038 -9.32824 0 2.65393 3.07322 0 0 0 0)
(-5.75628 -21.5172 0 1.75889 5.03593 0 0 0 0)
(-1.64286 38.1863 0 2.06005 -0.468016 0 0 0 0)
(-1.20334 8.86019 0 -0.275433 -0.887524 0 0 0 0)
(-0.198413 -1.00788 0 -0.157014 -1.93411 0 0 0 0)
(0.218478 -1.17138 0 0.663502 -1.8569 0 0 0 0)
(0.327042 -0.867376 0 1.41706 -1.40885 0 0 0 0)
(0.406579 -0.598501 0 2.20131 -1.17138 0 0 0 0)
(0.520928 -0.433134 0 2.91255 -1.09955 0 0 0 0)
(0.643208 -0.292338 0 3.53181 -1.08677 0 0 0 0)
(0.770939 -0.163314 0 4.05962 -1.11802 0 0 0 0)
(0.929276 -0.0363385 0 4.49885 -1.20967 0 0 0 0)
(1.14331 0.0981241 0 4.84108 -1.37739 0 0 0 0)
(1.42266 0.224248 0 5.0798 -1.62853 0 0 0 0)
(1.73968 0.277619 0 5.21106 -1.9393 0 0 0 0)
(2.04313 0.123683 0 5.21724 -2.24842 0 0 0 0)
(2.17027 -0.406408 0 5.07485 -2.41316 0 0 0 0)
(1.9048 -1.51813 0 4.75423 -2.04713 0 0 0 0)
(0.514546 -3.01404 0 4.71345 -0.806859 0 0 0 0)
(-0.179474 -5.19462 0 4.36027 1.32917 0 0 0 0)
(-3.74416 -7.40839 0 6.30351 3.49964 0 0 0 0)
(-6.02023 -22.9892 0 0.804815 6.43625 0 0 0 0)
(-3.40924 35.5171 0 8.0117 4.41778 0 0 0 0)
(-1.42341 3.01533 0 4.54669 4.63491 0 0 0 0)
(0.511121 -0.823856 0 7.04006 2.72786 0 0 0 0)
(1.46616 0.2155 0 9.51587 0.787398 0 0 0 0)
(1.58373 0.341446 0 11.5465 -0.146078 0 0 0 0)
(1.64837 0.0205466 0 13.035 -0.571794 0 0 0 0)
(1.59194 -0.112435 0 14.1893 -0.774917 0 0 0 0)
(1.52507 -0.0968825 0 15.1456 -0.897766 0 0 0 0)
(1.48415 -0.0586882 0 15.9484 -1.0001 0 0 0 0)
(1.48612 -0.0275467 0 16.6062 -1.11043 0 0 0 0)
(1.53846 0.00384404 0 17.1161 -1.24967 0 0 0 0)
(1.64563 0.0368035 0 17.4641 -1.43121 0 0 0 0)
(1.78986 0.0558499 0 17.6357 -1.65254 0 0 0 0)
(1.94475 -1.34674e-05 0 17.6267 -1.8593 0 0 0 0)
(1.93318 -0.204727 0 17.4632 -1.91595 0 0 0 0)
(1.76865 -0.70507 0 17.17 -1.60584 0 0 0 0)
(0.391836 -1.36325 0 17.1509 -0.610019 0 0 0 0)
(0.637686 -2.80883 0 16.9757 1.10992 0 0 0 0)
(-7.01584 -4.22116 0 18.8861 3.89413 0 0 0 0)
(-4.0481 -20.5991 0 10.1444 8.61629 0 0 0 0)
(-10.4594 27.3322 0 37.3385 17.3319 0 0 0 0)
(10.3834 16.223 0 196.53 -11.1379 0 0 0 0)
(4.77077 -4.85539 0 194.51 -8.10041 0 0 0 0)
(4.72494 -4.04532 0 191.248 -5.45864 0 0 0 0)
(3.84614 -2.22657 0 188.319 -4.2706 0 0 0 0)
(3.04933 -1.22734 0 185.819 -3.57351 0 0 0 0)
(2.63158 -0.759106 0 183.621 -3.0638 0 0 0 0)
(2.40235 -0.517521 0 181.595 -2.70197 0 0 0 0)
(2.23155 -0.375974 0 179.693 -2.4494 0 0 0 0)
(2.09691 -0.285912 0 177.879 -2.26731 0 0 0 0)
(2.00119 -0.222655 0 176.11 -2.13594 0 0 0 0)
(1.94231 -0.178614 0 174.34 -2.0485 0 0 0 0)
(1.90232 -0.150479 0 172.522 -1.99413 0 0 0 0)
(1.8706 -0.139734 0 170.648 -1.95387 0 0 0 0)
(1.71352 -0.152945 0 168.707 -1.85438 0 0 0 0)
(1.59251 -0.212194 0 167.001 -1.5962 0 0 0 0)
(0.32022 -0.298276 0 165.346 -0.937118 0 0 0 0)
(1.55575 -0.690468 0 166.289 0.0653245 0 0 0 0)
(-10.5754 0.0979746 0 163.152 2.56218 0 0 0 0)
(12.4321 -9.55144 0 183.88 4.18851 0 0 0 0)
(-50.8921 9.569 0 154.768 32.7127 0 0 0 0)
)
;

boundaryField
{
    movingWall
    {
        type            extrapolatedCalculated;
        value           nonuniform List<tensor> 
20
(
(10.3834 16.223 0 383.685 -36.9773 0 0 0 0)
(4.77077 -4.85539 0 374.781 -27.9145 0 0 0 0)
(4.72494 -4.04532 0 364.602 -17.5558 0 0 0 0)
(3.84614 -2.22657 0 355.881 -11.7333 0 0 0 0)
(3.04933 -1.22734 0 349.218 -8.64951 0 0 0 0)
(2.63158 -0.759106 0 343.684 -6.8239 0 0 0 0)
(2.40235 -0.517521 0 338.691 -5.61308 0 0 0 0)
(2.23155 -0.375974 0 334.075 -4.75381 0 0 0 0)
(2.09691 -0.285912 0 329.765 -4.10919 0 0 0 0)
(2.00119 -0.222655 0 325.687 -3.61017 0 0 0 0)
(1.94231 -0.178614 0 321.76 -3.21857 0 0 0 0)
(1.90232 -0.150479 0 317.918 -2.89571 0 0 0 0)
(1.8706 -0.139734 0 314.151 -2.61665 0 0 0 0)
(1.71352 -0.152945 0 310.435 -2.33677 0 0 0 0)
(1.59251 -0.212194 0 307.297 -2.00487 0 0 0 0)
(0.32022 -0.298276 0 304.065 -1.488 0 0 0 0)
(1.55575 -0.690468 0 306.016 -0.811768 0 0 0 0)
(-10.5754 0.0979746 0 297.842 1.27388 0 0 0 0)
(12.4321 -9.55144 0 348.318 -1.20367 0 0 0 0)
(-50.8921 9.569 0 248.114 39.4797 0 0 0 0)
)
;
    }
    fixedWalls
    {
        type            extrapolatedCalculated;
        value           nonuniform List<tensor> 
60
(
(-0.0639238 0.0644856 0 -0.0713177 0.11299 0 0 0 0)
(-0.221347 0.387475 0 -0.0658825 0.222444 0 0 0 0)
(-0.327454 0.954261 0 -0.0373907 0.302386 0 0 0 0)
(-0.37091 1.59702 0 -0.013925 0.330855 0 0 0 0)
(-0.383154 2.27768 0 -0.00313825 0.343675 0 0 0 0)
(-0.383463 2.97172 0 0.000834792 0.347689 0 0 0 0)
(-0.379815 3.66844 0 0.00204446 0.347977 0 0 0 0)
(-0.375285 4.36363 0 0.00212617 0.346933 0 0 0 0)
(-0.37131 5.05617 0 0.00148595 0.34587 0 0 0 0)
(-0.369341 5.74711 0 -0.000217637 0.345996 0 0 0 0)
(-0.372181 6.44016 0 -0.00408504 0.350129 0 0 0 0)
(-0.385681 7.14763 0 -0.0120548 0.360535 0 0 0 0)
(-0.4204 7.8823 0 -0.0261393 0.393146 0 0 0 0)
(-0.490238 8.72021 0 -0.0532439 0.421287 0 0 0 0)
(-0.633375 9.56744 0 -0.0788538 0.582495 0 0 0 0)
(-0.805654 11.0502 0 -0.175281 0.389211 0 0 0 0)
(-1.3345 11.1243 0 -0.266583 1.84688 0 0 0 0)
(-1.87199 18.4377 0 -0.275433 -0.887524 0 0 0 0)
(-2.43623 7.57419 0 4.54669 4.63491 0 0 0 0)
(16.3148 36.9773 0 196.53 -11.1379 0 0 0 0)
(0.187195 0.182859 0 -0.153335 -0.25268 0 0 0 0)
(0.426145 0.82786 0 -0.0986765 -0.420468 0 0 0 0)
(0.581901 1.86473 0 -0.0596535 -0.559412 0 0 0 0)
(0.664759 3.06551 0 -0.0312409 -0.635941 0 0 0 0)
(0.706864 4.4085 0 -0.0051179 -0.701903 0 0 0 0)
(0.68523 5.87312 0 0.0609968 -0.734348 0 0 0 0)
(0.462877 7.34589 0 0.252303 -0.620283 0 0 0 0)
(-0.323983 8.35425 0 0.564752 -0.354421 0 0 0 0)
(-1.79613 8.76357 0 0.412953 -0.350763 0 0 0 0)
(-1.97579 9.75731 0 -1.3955 -1.72991 0 0 0 0)
(3.78587 15.6832 0 -3.84006 -6.53917 0 0 0 0)
(13.3844 35.914 0 -3.38696 -12.2429 0 0 0 0)
(17.3337 64.6548 0 -0.36079 -13.353 0 0 0 0)
(14.8276 89.3261 0 1.89145 -9.67379 0 0 0 0)
(9.76795 103.35 0 2.27995 -4.40223 0 0 0 0)
(5.70782 106.935 0 1.69028 -1.42309 0 0 0 0)
(3.00682 109.042 0 2.06005 -0.468016 0 0 0 0)
(-2.53239 108.807 0 8.0117 4.41778 0 0 0 0)
(-29.04 91.3712 0 37.3385 17.3319 0 0 0 0)
(-151.886 39.4797 0 154.768 32.7127 0 0 0 0)
(-0.112593 0.0721419 0 -0.0639238 0.0644856 0 0 0 0)
(-0.224063 0.0644838 0 -0.386447 0.224082 0 0 0 0)
(-0.302657 0.0322682 0 -0.960176 0.322421 0 0 0 0)
(-0.322259 0.00685639 0 -1.59708 0.353155 0 0 0 0)
(-0.321419 -0.00529952 0 -2.24921 0.349846 0 0 0 0)
(-0.307351 -0.0108516 0 -2.88275 0.331956 0 0 0 0)
(-0.284803 -0.0144006 0 -3.47861 0.30644 0 0 0 0)
(-0.254542 -0.0182635 0 -4.02197 0.274354 0 0 0 0)
(-0.215653 -0.0239038 0 -4.49678 0.233386 0 0 0 0)
(-0.165004 -0.031851 0 -4.88458 0.178739 0 0 0 0)
(-0.0969471 -0.0375743 0 -5.1568 0.105982 0 0 0 0)
(-0.0165298 -0.0478849 0 -5.27237 0.0284413 0 0 0 0)
(0.0802323 -0.0596546 0 -5.22292 -0.0855581 0 0 0 0)
(0.19275 -0.0639675 0 -4.95144 -0.210177 0 0 0 0)
(0.306278 -0.0629414 0 -4.45192 -0.341428 0 0 0 0)
(0.409019 -0.0506935 0 -3.72632 -0.461943 0 0 0 0)
(0.478839 -0.020947 0 -2.81584 -0.544202 0 0 0 0)
(0.495624 0.032297 0 -1.81097 -0.545731 0 0 0 0)
(0.405944 0.0907178 0 -0.833344 -0.415014 0 0 0 0)
(0.255135 0.149468 0 -0.187195 -0.182859 0 0 0 0)
)
;
    }
    frontAndBack
    {
        type            empty;
    }
}


// ************************************************************************* //
