/*--------------------------------*- C++ -*----------------------------------*\
| =========                 |                                                 |
| \\      /  F ield         | OpenFOAM: The Open Source CFD Toolbox           |
|  \\    /   O peration     | Version:  2312                                  |
|   \\  /    A nd           | Website:  www.openfoam.com                      |
|    \\/     M anipulation  |                                                 |
\*---------------------------------------------------------------------------*/
FoamFile
{
    version     2.0;
    format      ascii;
    arch        "LSB;label=32;scalar=64";
    class       volVectorField;
    location    "0.875";
    object      LambVectorField;
}
// * * * * * * * * * * * * * * * * * * * * * * * * * * * * * * * * * * * * * //

dimensions      [0 1 -2 0 0 0 0];

internalField   nonuniform List<vector> 
400
(
(-2.31277e-05 -2.29262e-05 -3.66383e-09)
(-0.000193828 -0.000334271 0)
(-0.000500232 -0.0014897 -3.57594e-06)
(-0.00081998 -0.00370821 0)
(-0.00109917 -0.00706671 -3.97363e-05)
(-0.0013141 -0.0114118 0)
(-0.00145134 -0.0164752 -0.000143277)
(-0.00149432 -0.0219065 0)
(-0.00141503 -0.0272642 -0.000306503)
(-0.001172 -0.0320286 0)
(-0.000731713 -0.0356033 -0.000458998)
(-0.000200225 -0.0371171 0)
(0.000594347 -0.0362821 -0.000473746)
(0.00138551 -0.0326404 -0)
(0.00203381 -0.026519 -0.000295151)
(0.00233702 -0.0188519 -0)
(0.00215645 -0.011158 -7.85482e-05)
(0.00152111 -0.0050477 -0)
(0.000673458 -0.0013523 -2.81732e-06)
(0.000138426 -0.000141708 -0)
(-0.000339311 -0.000193833 -1.07261e-07)
(-0.000518207 -0.000510942 0)
(-0.000535472 -0.000793449 -2.76345e-06)
(-0.00049405 -0.00102449 0)
(-0.00045973 -0.00127864 -8.94721e-06)
(-0.000440765 -0.00159643 0)
(-0.000425373 -0.00197343 -2.0508e-05)
(-0.000398819 -0.00236969 0)
(-0.000348888 -0.00272413 -3.60928e-05)
(-0.000268394 -0.00297217 0)
(-0.000159562 -0.00309692 -4.67645e-05)
(-2.86061e-05 -0.00311684 0)
(0.000119507 -0.0029546 -4.52825e-05)
(0.000283559 -0.00279974 -0)
(0.000475152 -0.00266956 -3.55763e-05)
(0.000717298 -0.00257722 -0)
(0.00101823 -0.00244971 -2.2097e-05)
(0.00131381 -0.00213385 -0)
(0.00138967 -0.00144635 -5.06279e-06)
(0.00132864 -0.000683924 -0)
(-0.00149293 -0.000512297 -4.19384e-07)
(-0.000833105 -0.000559083 0)
(-0.000642039 -0.000642495 -2.59156e-06)
(-0.000468628 -0.00063976 0)
(-0.000328453 -0.00058598 -4.4292e-06)
(-0.000228846 -0.000521119 0)
(-0.000160911 -0.000463124 -5.09543e-06)
(-0.000112441 -0.000411332 0)
(-7.4361e-05 -0.000356072 -4.98811e-06)
(-4.31535e-05 -0.000291716 0)
(-2.01675e-05 -0.000234707 -3.77773e-06)
(-4.11204e-06 -0.000219359 0)
(1.70073e-05 -0.000292182 -4.85275e-06)
(7.78455e-05 -0.00051936 -0)
(0.000237221 -0.0009026 -1.33872e-05)
(0.000557334 -0.00136826 -0)
(0.00105931 -0.00175825 -1.83789e-05)
(0.00166559 -0.00186928 -0)
(0.0023003 -0.00161064 -7.09782e-06)
(0.00538541 -0.00168055 -0)
(-0.00374302 -0.000869322 -8.061e-07)
(-0.00111629 -0.000550413 0)
(-0.000710487 -0.00053268 -2.309e-06)
(-0.000470851 -0.000480582 0)
(-0.000283761 -0.000374832 -2.97002e-06)
(-0.000143667 -0.000239674 0)
(-4.51951e-05 -9.44294e-05 -1.08223e-06)
(1.87804e-05 4.94899e-05 0)
(5.37425e-05 0.000183858 2.70182e-06)
(6.21201e-05 0.000295844 0)
(4.48369e-05 0.000353604 6.07638e-06)
(1.17283e-05 0.000310308 0)
(-7.28644e-06 0.000117114 2.13358e-06)
(4.69399e-05 -0.000261705 -0)
(0.000256055 -0.000795119 -1.33617e-05)
(0.000691552 -0.00137124 -0)
(0.0013652 -0.00181111 -2.1981e-05)
(0.00222118 -0.0019551 -0)
(0.00358268 -0.00188564 -9.63276e-06)
(0.0135512 -0.00293859 -0)
(-0.00728836 -0.00122606 -1.17442e-06)
(-0.001451 -0.000551289 0)
(-0.000773983 -0.000458595 -2.06555e-06)
(-0.000482048 -0.000391784 0)
(-0.000270432 -0.000284128 -2.3335e-06)
(-0.000108178 -0.000142837 0)
(9.81651e-06 1.6131e-05 1.92271e-07)
(8.56764e-05 0.000176238 0)
(0.000120777 0.000319145 4.94519e-06)
(0.000116376 0.000419764 0)
(7.62822e-05 0.000433223 8.05188e-06)
(2.10236e-05 0.00030294 0)
(8.85237e-07 -1.82505e-05 -3.72863e-07)
(9.94688e-05 -0.000538007 -0)
(0.0004136 -0.0011801 -2.31341e-05)
(0.00101081 -0.00179105 -0)
(0.0018984 -0.00219531 -3.16367e-05)
(0.00308873 -0.00229819 -0)
(0.00566967 -0.00239149 -1.38458e-05)
(0.0273307 -0.00438225 -0)
(-0.0121724 -0.00157069 -1.50575e-06)
(-0.00189522 -0.000577021 0)
(-0.000865648 -0.000420394 -1.93695e-06)
(-0.000512754 -0.000344888 0)
(-0.000282296 -0.000246021 -2.08191e-06)
(-0.00010685 -0.000116772 0)
(2.31057e-05 3.12671e-05 3.87547e-07)
(0.000106556 0.000179087 0)
(0.000140757 0.00030007 4.9264e-06)
(0.000125332 0.00035625 0)
(6.81428e-05 0.000288723 5.87041e-06)
(3.28594e-06 2.84258e-05 0)
(7.34945e-06 -0.000470218 -1.09941e-05)
(0.00019265 -0.00116371 -0)
(0.00065817 -0.0018889 -4.45003e-05)
(0.00143507 -0.00243417 -0)
(0.00253064 -0.00269144 -4.73295e-05)
(0.00403913 -0.00264271 -0)
(0.00865001 -0.00297194 -1.90166e-05)
(0.0480079 -0.00560119 -0)
(-0.0183867 -0.00190368 -1.80762e-06)
(-0.00249053 -0.000627099 0)
(-0.00100792 -0.000412082 -1.92699e-06)
(-0.000572604 -0.000327011 0)
(-0.000319116 -0.000236774 -2.05445e-06)
(-0.000133097 -0.000123633 0)
(3.61446e-06 4.13602e-06 5.31752e-08)
(8.86953e-05 0.000124937 0)
(0.000115295 0.000203017 3.53275e-06)
(8.06189e-05 0.000184438 0)
(-1.13479e-06 -3.66536e-06 -8.20089e-08)
(-7.9756e-05 -0.000446108 0)
(-4.47674e-05 -0.00117709 -3.19674e-05)
(0.000254938 -0.00209273 -0)
(0.000945935 -0.00296899 -8.63935e-05)
(0.00212289 -0.00362554 -0)
(0.00408222 -0.00410933 -9.05025e-05)
(0.00655109 -0.00377043 -0)
(0.0131688 -0.00339205 -2.15867e-05)
(0.0744654 -0.00469219 -0)
(-0.0259145 -0.00222872 -2.09101e-06)
(-0.00326667 -0.000697587 0)
(-0.00121537 -0.000426984 -2.0167e-06)
(-0.00066614 -0.000328899 0)
(-0.000377335 -0.000242398 -2.1438e-06)
(-0.000177786 -0.000142604 0)
(-3.73437e-05 -3.66641e-05 -4.85632e-07)
(4.20719e-05 5.03093e-05 0)
(5.03458e-05 7.40114e-05 1.35641e-06)
(-1.82211e-05 -3.38595e-05 0)
(-0.000143438 -0.000357551 -8.78116e-06)
(-0.000256551 -0.000978642 0)
(-0.000222398 -0.00195626 -6.21533e-05)
(0.000189318 -0.00345758 -0)
(0.00153585 -0.00586721 -0.000216609)
(0.00593632 -0.010769 -0)
(0.019092 -0.0188136 -0.000543648)
(0.0386279 -0.0196971 -0)
(0.0454546 -0.00681227 -3.27037e-05)
(0.0987279 0.00382873 0)
(-0.0347452 -0.00255158 -2.36857e-06)
(-0.00424545 -0.000784972 0)
(-0.00149655 -0.000459225 -2.18305e-06)
(-0.000791447 -0.000342358 0)
(-0.000446305 -0.000250954 -2.2445e-06)
(-0.000223444 -0.00015612 0)
(-7.7838e-05 -6.59874e-05 -8.89561e-07)
(-8.98254e-06 -9.15284e-06 0)
(-2.72079e-05 -3.34339e-05 -6.35722e-07)
(-0.000132806 -0.000200439 0)
(-0.000291009 -0.000561969 -1.49472e-05)
(-0.000428677 -0.0011535 0)
(-0.000488745 -0.00225727 -8.36673e-05)
(-0.00024654 -0.00580229 0)
(0.00272438 -0.0161137 -0.000778356)
(0.0198504 -0.0434759 -0)
(0.0774539 -0.0868579 -0.00379448)
(0.177085 -0.102614 -0)
(0.213067 -0.0333858 -0.000225431)
(0.133365 0.0273336 0)
(-0.044891 -0.00288495 -2.66383e-06)
(-0.00544256 -0.000887939 0)
(-0.00185166 -0.000503535 -2.40474e-06)
(-0.000936364 -0.000358732 0)
(-0.000503155 -0.000249487 -2.23469e-06)
(-0.000238575 -0.000145779 0)
(-7.90387e-05 -5.78751e-05 -7.79644e-07)
(-1.59665e-05 -1.38148e-05 0)
(-4.57406e-05 -4.66534e-05 -8.96634e-07)
(-0.000130104 -0.000158033 0)
(-0.000172439 -0.000256342 -7.16864e-06)
(-0.000112281 -0.000215807 0)
(-0.000248655 -0.000690764 -2.91832e-05)
(-0.00149982 -0.00814807 0)
(0.000513954 -0.0264762 -0.00171579)
(0.012714 -0.0453157 -0)
(0.0817862 -0.125744 -0.0094398)
(0.360487 -0.297358 -0)
(0.645453 -0.270364 -0.00733751)
(0.25159 0.0509455 0)
(-0.0564191 -0.0032605 -3.03373e-06)
(-0.0068657 -0.00100953 0)
(-0.00226562 -0.000554703 -2.66613e-06)
(-0.00106911 -0.000366809 0)
(-0.000503129 -0.000221405 -1.96544e-06)
(-0.000168728 -9.02918e-05 0)
(2.32611e-05 1.46527e-05 1.92432e-07)
(0.000103628 7.53914e-05 0)
(0.000125815 0.000104873 1.9569e-06)
(0.000242431 0.000232352 0)
(0.000682776 0.000765736 2.1339e-05)
(0.00154299 0.0020915 0)
(0.0034339 0.00592555 0.000268788)
(0.0101727 0.0252966 0)
(0.0261776 0.142748 0.0118629)
(-0.0513785 0.434295 -0)
(-0.274793 0.517936 0.0567972)
(0.0924271 -0.0889291 -0)
(1.20309 -0.718048 -0.0434483)
(0.701788 -0.169409 -0)
(-0.0695745 -0.00375419 -3.61981e-06)
(-0.00850118 -0.00115859 0)
(-0.00269236 -0.000606097 -2.95756e-06)
(-0.00111818 -0.000348686 0)
(-0.000362178 -0.000142636 -1.24363e-06)
(7.5741e-05 3.55455e-05 0)
(0.000325124 0.000175036 2.17359e-06)
(0.000463979 0.000279443 0)
(0.00064969 0.000431524 7.37446e-06)
(0.00123386 0.000901362 0)
(0.00260998 0.00211753 5.36144e-05)
(0.00518298 0.00473023 0)
(0.0202517 0.0211061 0.000892925)
(0.104005 0.137006 0)
(0.266183 0.59303 0.0500626)
(0.0190904 1.42216 0)
(-1.02117 1.86454 0.214512)
(-1.3366 1.1588 -0)
(0.907572 -0.502497 -0.0430027)
(2.49799 -0.930951 -0)
(-0.0847157 -0.00451828 -4.74871e-06)
(-0.0103004 -0.00135592 0)
(-0.00300799 -0.000641753 -3.24122e-06)
(-0.000928982 -0.000269115 0)
(8.11511e-05 2.89971e-05 2.4718e-07)
(0.000657197 0.000271742 0)
(0.000978828 0.000447537 5.07786e-06)
(0.0011913 0.000582117 0)
(0.0016028 0.000817321 1.18085e-05)
(0.0028707 0.00151011 0)
(0.00594916 0.00323321 6.40512e-05)
(0.0125888 0.00706972 0)
(0.0517286 0.0298257 0.000909321)
(0.271683 0.176913 0)
(0.654086 0.661124 0.0374177)
(0.313374 1.42026 0)
(-1.35764 1.89963 0.145171)
(-3.0272 1.87106 -0)
(-1.24764 0.518654 0.0423298)
(5.84435 -1.56685 -0)
(-0.103607 -0.00582464 -7.13866e-06)
(-0.0119774 -0.00159822 0)
(-0.00289225 -0.000607961 -3.27244e-06)
(-0.000174763 -4.84583e-05 0)
(0.00112933 0.000373872 3.12102e-06)
(0.00187779 0.000691324 0)
(0.00223309 0.000864348 8.65553e-06)
(0.00246417 0.00095427 0)
(0.00300231 0.00111343 1.22438e-05)
(0.00477033 0.00163645 0)
(0.00952449 0.00295346 3.57544e-05)
(0.0205288 0.00562011 0)
(0.0769377 0.017487 0.000230628)
(0.315428 0.0600122 0)
(0.765347 0.1735 0.00253519)
(0.547686 0.316782 0)
(-0.908297 0.37212 0.00566396)
(-2.9088 0.653106 -0)
(-3.54389 0.908677 0.04588)
(8.96205 -1.48765 -0)
(-0.124617 -0.00824975 -1.3063e-05)
(-0.0133244 -0.00193535 0)
(-0.00169661 -0.000368177 -2.18936e-06)
(0.00184451 0.000506995 0)
(0.00350093 0.00110247 9.05976e-06)
(0.00420696 0.00139856 0)
(0.0045479 0.00148871 1.27074e-05)
(0.00471074 0.00140199 0)
(0.00516469 0.00126818 9.14393e-06)
(0.00693443 0.00122966 0)
(0.0121971 0.00122199 4.67714e-06)
(0.0256076 0.000525707 0)
(0.070208 -0.00507756 2.00821e-05)
(0.235488 -0.0446096 0)
(0.535653 -0.193956 0.00411945)
(0.427283 -0.439405 0)
(-0.518267 -0.546253 0.0164397)
(-1.7516 -0.414946 0)
(-3.79543 0.330625 0.00472095)
(10.3218 -0.97555 -0)
(-0.164107 -0.0119648 -2.40987e-05)
(-0.0121144 -0.00191326 0)
(0.00205687 0.000470481 3.12792e-06)
(0.00653621 0.00181246 0)
(0.00818096 0.00246323 1.95806e-05)
(0.008825 0.00265203 0)
(0.00924632 0.00251129 1.73313e-05)
(0.00944313 0.00200867 0)
(0.0097399 0.00122462 4.23692e-06)
(0.011152 0.000196521 0)
(0.015562 -0.00161706 5.77673e-06)
(0.0267589 -0.00622445 0)
(0.0552641 -0.0207065 0.000357225)
(0.138463 -0.0776647 0)
(0.271118 -0.249751 0.0103484)
(0.195396 -0.504237 0)
(-0.279053 -0.617687 0.0315218)
(-1.0184 -0.559029 0)
(-3.1069 -0.236719 0.00240803)
(10.2644 -0.547876 -0)
(-0.169744 -0.0203629 -6.79359e-05)
(-0.0124268 -0.00267305 0)
(0.00901929 0.00234664 1.78682e-05)
(0.0163101 0.00454504 0)
(0.0192218 0.0053256 3.81056e-05)
(0.0210473 0.00524489 0)
(0.0226646 0.00431423 1.959e-05)
(0.0242923 0.0023932 0)
(0.0261297 -0.000672348 4.23804e-07)
(0.0285319 -0.0051395 0)
(0.0327411 -0.0116328 0.000118718)
(0.0412048 -0.022415 0)
(0.058064 -0.0437421 0.00116921)
(0.0920346 -0.0956217 0)
(0.13114 -0.211568 0.0107247)
(0.0889278 -0.386113 0)
(-0.1363 -0.499569 0.0292495)
(-0.688178 -0.599657 0)
(-2.54307 -0.557362 0.0133464)
(9.84821 -0.271562 -0)
(-0.4211 -0.0427544 -0.000200089)
(0.0361682 0.00625675 0)
(0.0660841 0.0122278 8.14874e-05)
(0.0703468 0.0118074 0)
(0.0765517 0.00950166 3.22456e-05)
(0.0830027 0.00368977 0)
(0.087995 -0.00694315 1.2606e-05)
(0.0924212 -0.022505 0)
(0.0969497 -0.0431976 0.000411457)
(0.102079 -0.0693515 0)
(0.108563 -0.101763 0.00213276)
(0.117241 -0.142323 0)
(0.128025 -0.195363 0.00749314)
(0.137039 -0.270116 0)
(0.132162 -0.376703 0.0226239)
(0.0758853 -0.528004 0)
(-0.0866606 -0.623008 0.040622)
(-0.577628 -0.912298 0)
(-1.97856 -0.660555 0.0183379)
(7.48197 0.174136 0)
(0.0289971 0.00932688 5.68061e-05)
(0.088216 0.0640397 0)
(0.0994853 0.00910847 8.92053e-06)
(0.149843 -0.0730363 0)
(0.183651 -0.193368 0.00287305)
(0.194193 -0.328965 0)
(0.197955 -0.469123 0.0144383)
(0.201841 -0.612313 0)
(0.206261 -0.758813 0.0346161)
(0.211062 -0.908893 0)
(0.216771 -1.06312 0.0648542)
(0.2233 -1.22303 0)
(0.229097 -1.39079 0.109736)
(0.224416 -1.57275 0)
(0.195729 -1.75594 0.172492)
(0.104627 -1.97553 0)
(-0.0530752 -2.02103 0.206453)
(-0.518459 -2.61299 0)
(-1.38021 -0.983602 0.0314692)
(-2.2857 -0.726452 0)
(16.6682 -7.35419 0.299955)
(13.9129 -12.5694 0)
(8.57134 -17.2824 1.5294)
(5.58929 -21.0165 0)
(4.04464 -23.7466 3.01477)
(3.14547 -25.9588 0)
(2.55553 -27.9127 4.27823)
(2.14004 -29.6779 0)
(1.83029 -31.2836 5.49299)
(1.59148 -32.7596 0)
(1.40425 -34.1356 6.6769)
(1.25003 -35.4335 0)
(1.11723 -36.6548 7.86694)
(0.986468 -37.8097 0)
(0.838101 -38.7529 8.98128)
(0.616195 -39.7276 0)
(0.338871 -39.2334 9.21827)
(-0.519279 -41.6432 0)
(0.582068 -24.9924 3.22916)
(-14.3311 -55.1345 0)
)
;

boundaryField
{
    movingWall
    {
        type            calculated;
        value           nonuniform List<vector> 
20
(
(0 -367.462 0)
(0 -379.637 0)
(0 -368.647 0)
(0 -358.108 0)
(0 -350.445 0)
(0 -344.443 0)
(0 -339.209 0)
(0 -334.451 0)
(0 -330.051 0)
(0 -325.91 0)
(0 -321.939 0)
(0 -318.068 0)
(0 -314.291 0)
(0 -310.588 0)
(0 -307.509 0)
(0 -304.364 0)
(0 -306.707 0)
(0 -297.744 0)
(0 -357.869 0)
(0 -238.545 0)
)
;
    }
    fixedWalls
    {
        type            calculated;
        value           uniform (-0 0 0);
    }
    frontAndBack
    {
        type            empty;
    }
}


// ************************************************************************* //
