/*--------------------------------*- C++ -*----------------------------------*\
| =========                 |                                                 |
| \\      /  F ield         | OpenFOAM: The Open Source CFD Toolbox           |
|  \\    /   O peration     | Version:  2312                                  |
|   \\  /    A nd           | Website:  www.openfoam.com                      |
|    \\/     M anipulation  |                                                 |
\*---------------------------------------------------------------------------*/
FoamFile
{
    version     2.0;
    format      ascii;
    arch        "LSB;label=32;scalar=64";
    class       volScalarField;
    location    "0.875";
    object      Lambda2Field;
}
// * * * * * * * * * * * * * * * * * * * * * * * * * * * * * * * * * * * * * //

dimensions      [0 0 -2 0 0 0 0];

internalField   nonuniform List<scalar> 
400
(
0.00753212
0.0315847
0.0724924
0.0933113
0.109692
0.102559
0.108347
0.0921489
0.104891
0.100965
0.114521
0.130558
0.175746
0.200366
0.247447
0.254753
0.261893
0.204322
0.113662
0.0409285
0.0388093
0.0667272
0.10334
0.109542
0.122627
0.111706
0.109312
0.089241
0.078004
0.0595596
0.0495211
0.0479278
0.0640726
0.0978805
0.161264
0.218437
0.282473
0.273758
0.231867
0.121265
0.0780841
0.0911991
0.112011
0.119342
0.124146
0.120179
0.112637
0.0997724
0.08485
0.0700062
0.0596609
0.0605054
0.0803605
0.124297
0.192191
0.269592
0.338347
0.365402
0.336056
0.242253
0.110103
0.109897
0.121772
0.126935
0.129662
0.129014
0.125201
0.118322
0.109877
0.10276
0.101873
0.114101
0.147334
0.207247
0.293203
0.391356
0.470206
0.509243
0.474382
0.332905
0.128448
0.122831
0.132475
0.136184
0.139044
0.141354
0.143461
0.145388
0.148605
0.156217
0.173667
0.208526
0.26998
0.364092
0.491638
0.635447
0.744754
0.786914
0.693735
0.44209
0.136901
0.131748
0.142962
0.147086
0.151358
0.157936
0.167576
0.181177
0.201129
0.231804
0.280568
0.358044
0.475926
0.645761
0.874711
1.13385
1.30977
1.33896
1.09067
0.658617
0.140061
0.138171
0.152538
0.158604
0.165222
0.176556
0.194887
0.222972
0.265851
0.331787
0.432505
0.585679
0.817314
1.16386
1.63969
2.21273
2.62327
2.60405
1.90629
1.24806
0.140442
0.142797
0.160429
0.168539
0.177554
0.193689
0.221479
0.26674
0.339244
0.455237
0.640742
0.930454
1.39886
2.14029
3.25998
4.76283
6.22929
5.9967
3.36793
2.99917
0.138752
0.145738
0.165653
0.17456
0.184651
0.204364
0.241121
0.30523
0.414332
0.598894
0.91144
1.44114
2.37544
4.07066
6.97006
11.1861
16.1356
14.2326
4.7639
2.33929
0.134004
0.146839
0.167198
0.174262
0.182467
0.202798
0.246064
0.328523
0.479121
0.750427
1.24142
2.15637
4.00766
8.04467
15.5228
26.4657
34.6415
33.3339
14.899
-6.40315
0.122881
0.145947
0.164222
0.165516
0.167329
0.183709
0.228917
0.326139
0.518175
0.886157
1.59902
3.08222
6.44935
13.3327
22.9191
26.7403
33.55
45.371
39.1235
-4.24002
0.098594
0.142955
0.156617
0.147181
0.137563
0.145018
0.186813
0.292811
0.520136
0.979873
1.92745
3.89523
8.58015
13.8675
10.3367
-23.2625
0
-0.0540115
51.2793
57.6061
0.0546933
0.138999
0.145228
0.12029
0.0959265
0.0914571
0.126396
0.235507
0.486694
1.0189
2.0999
4.21367
8.25655
6.42603
0
-93.3978
0
-116.302
5.206
135.479
0
0.136228
0.133955
0.0891547
0.0502083
0.0369286
0.0699087
0.185019
0.454405
1.01175
2.14198
4.22869
7.00284
3.1141
0
-99.2347
0
-142.817
0
142.755
0
0.141712
0.121853
0.0574685
0.0112824
0.000704547
0.0449496
0.179049
0.479864
1.05473
2.16435
4.0938
6.87625
4.58878
0
-57.3087
0
-67.23
0
101.407
0
0.062235
0.0676071
0.00852192
0
-0.00880286
0.061427
0.234367
0.583712
1.18381
2.25147
3.90247
6.10089
5.50759
0
-18.6792
0
-13.701
0
47.6638
0
0.143392
0
0
0
-0.040499
0.0557065
0.206648
0.772254
1.37161
2.62774
3.86448
5.33014
4.86991
0.232078
-7.10082
0
-12.239
0
37.6291
0
0
0
0
0
0
0
0
0.632691
1.42819
3.11772
4.18088
4.77911
2.4097
0
-13.434
0
-32.6699
17.5961
277.82
10.0132
0
0
0
1.78487
0
0.467328
0
1.60917
0
3.30409
2.71465
3.7745
0
0
-21.3923
0
-18.9987
0
983.564
3295.33
-583.764
0
-363.257
0
-91.6939
0
-42.5315
0
-23.0749
0
-14.2487
0
-10.7412
0
0
0
0
0
1635.07
)
;

boundaryField
{
    movingWall
    {
        type            calculated;
        value           nonuniform List<scalar> 
20
(
5542.62
0
0
0
0
0
0
0
0
0
0
0
0
0
0
0
0
0
0
2890.32
)
;
    }
    fixedWalls
    {
        type            calculated;
        value           nonuniform List<scalar> 
60
(
0
0.0234096
0.0709728
0.0666006
0.138076
0.0816922
0.150737
0.0771491
0.144735
0.059214
0.111724
0
0
0
0
0
0
0
33.2574
6853.7
0.0069868
0.0943349
0.226913
0.279825
0.47707
0.712797
2.03966
1.80801
1.82935
0
0
19.2409
259.927
82.2845
299.046
0
226.718
774.375
3589.21
2212.38
0.00416526
0.0252847
0.0602937
0.0766445
0.114427
0.097154
0.130733
0.103121
0.153676
0.151322
0.203078
0.221321
0.317979
0.313553
0.372715
0.276673
0.284023
0.161607
0.0891397
0.00539927
)
;
    }
    frontAndBack
    {
        type            empty;
    }
}


// ************************************************************************* //
