/*--------------------------------*- C++ -*----------------------------------*\
| =========                 |                                                 |
| \\      /  F ield         | OpenFOAM: The Open Source CFD Toolbox           |
|  \\    /   O peration     | Version:  2312                                  |
|   \\  /    A nd           | Website:  www.openfoam.com                      |
|    \\/     M anipulation  |                                                 |
\*---------------------------------------------------------------------------*/
FoamFile
{
    version     2.0;
    format      ascii;
    arch        "LSB;label=32;scalar=64";
    class       volScalarField;
    location    "0.875";
    object      magSqrU;
}
// * * * * * * * * * * * * * * * * * * * * * * * * * * * * * * * * * * * * * //

dimensions      [0 2 -2 0 0 0 0];

internalField   nonuniform List<scalar> 
400
(
5.1529e-08
1.24721e-06
6.41184e-06
1.67211e-05
3.23834e-05
5.26279e-05
7.62166e-05
0.000101572
0.000126722
0.000149319
0.000166274
0.000173742
0.000170539
0.000153506
0.000124601
8.8118e-05
5.1407e-05
2.23589e-05
5.41687e-06
4.27997e-07
1.24457e-06
6.93544e-06
1.76547e-05
3.36654e-05
5.52936e-05
8.21395e-05
0.000113012
0.000145977
0.000178423
0.00020718
0.000228626
0.000238961
0.000235274
0.000216219
0.000183227
0.000140706
9.54223e-05
5.47145e-05
2.35642e-05
5.41845e-06
6.36149e-06
1.77505e-05
3.25167e-05
5.14681e-05
7.50826e-05
0.000103394
0.000135664
0.00017027
0.000204803
0.000236208
0.000260979
0.000275498
0.000276782
0.000263208
0.000235178
0.000195478
0.000148926
0.000101693
5.90315e-05
2.3849e-05
1.68003e-05
3.41751e-05
5.22162e-05
7.35427e-05
9.87644e-05
0.000128161
0.000161436
0.000197479
0.000234398
0.000269623
0.000300043
0.000322292
0.000333179
0.000330148
0.000311681
0.000277877
0.000230996
0.00017649
0.000120302
6.14952e-05
3.33415e-05
5.72655e-05
7.80723e-05
0.000101532
0.000128556
0.000159573
0.000194684
0.000233373
0.000274484
0.000316213
0.000356149
0.000391332
0.000418377
0.0004333
0.000431505
0.000408726
0.000362978
0.000298521
0.000221918
0.000124591
5.61135e-05
8.77886e-05
0.000111239
0.000136759
0.000165897
0.000199306
0.000237524
0.000280761
0.000328842
0.00038113
0.00043643
0.000492689
0.000546797
0.000593123
0.000622402
0.000622481
0.000582627
0.000502224
0.000387793
0.000218519
8.50106e-05
0.000126294
0.000152688
0.000180405
0.000212046
0.000248704
0.000291525
0.000341698
0.000400464
0.000469069
0.00054858
0.000639103
0.000738617
0.000841557
0.000932683
0.000983641
0.000963706
0.000851639
0.000650903
0.000338602
0.000119888
0.000173113
0.000203048
0.000233228
0.000267761
0.000308479
0.000357447
0.000417267
0.000491305
0.000583897
0.000700222
0.000845263
0.00102247
0.00123273
0.00145637
0.0016376
0.00169491
0.00151607
0.00104914
0.000436866
0.000160642
0.000228424
0.000262594
0.000295424
0.000332996
0.000378254
0.000434598
0.000506649
0.000600972
0.000726906
0.000897156
0.00112745
0.00143827
0.00185743
0.00239998
0.00299266
0.00342605
0.00320903
0.00190258
0.000500164
0.000207286
0.000292321
0.000331226
0.000366454
0.000406555
0.000455981
0.00051993
0.000605747
0.000724432
0.000892785
0.00113594
0.00148952
0.00201616
0.00286024
0.0042013
0.00606216
0.00801991
0.00829475
0.00493442
0.00061943
0.000260088
0.000364965
0.000408486
0.000444897
0.000485742
0.000537363
0.000607133
0.000705644
0.000849299
0.00106443
0.00139402
0.00190703
0.0027486
0.00433325
0.00713849
0.0108366
0.0154105
0.0190414
0.0139397
0.00162685
0.000320233
0.000446888
0.000493666
0.000528365
0.00056615
0.000615577
0.000686242
0.000791892
0.00095404
0.00120801
0.00161499
0.00228218
0.00343768
0.00558091
0.00856221
0.0113179
0.0172063
0.0284293
0.0312137
0.00918098
0.000389421
0.000539255
0.000585909
0.000613507
0.000641779
0.000681691
0.000744563
0.000846292
0.00101149
0.0012801
0.00172115
0.00246005
0.0037255
0.00557706
0.0063386
0.00522509
0.00882302
0.024511
0.0452055
0.0280044
0.000476765
0.000645938
0.000684684
0.000696162
0.000705523
0.00072595
0.000769615
0.000852773
0.00100015
0.00125108
0.00167067
0.00237455
0.00354093
0.00481728
0.00436823
0.000993332
0.00161195
0.0128683
0.0413259
0.0512438
0.000574607
0.000766212
0.000786242
0.000769425
0.000748495
0.000739413
0.000752829
0.000803723
0.000914236
0.00111985
0.00147415
0.00206527
0.00300632
0.00411638
0.00389168
0.00158607
0.00172104
0.00808403
0.027072
0.0673539
0.000767224
0.000924038
0.000889008
0.000823325
0.0007602
0.000715328
0.000693303
0.000704969
0.000769162
0.000916634
0.00119467
0.00166787
0.00241767
0.00335919
0.00374003
0.00298058
0.0031358
0.00690784
0.0179292
0.071673
0.000784567
0.000977055
0.00091447
0.000812683
0.000718137
0.000641368
0.000589668
0.000571439
0.000600495
0.000703739
0.000929211
0.00133492
0.0019734
0.00282122
0.00355692
0.00373676
0.00368322
0.00580319
0.0125104
0.0743704
0.00214658
0.00186098
0.00134152
0.000974981
0.000759086
0.000616698
0.000532773
0.000507377
0.000547712
0.000677006
0.000939143
0.001397
0.00210285
0.00305359
0.00405088
0.00476515
0.0043337
0.00620127
0.00768524
0.0740337
0.000395647
0.000192156
0.000115383
0.000221318
0.00041989
0.000713453
0.00111591
0.00162226
0.00223484
0.00297319
0.00387613
0.00500132
0.00639446
0.00808546
0.00976978
0.0114177
0.0104423
0.0132907
0.0030391
0.0574501
0.0102093
0.00884508
0.00975758
0.0130258
0.0165854
0.0201129
0.0236892
0.0273047
0.0309364
0.0345966
0.0383238
0.0421618
0.0461056
0.0501706
0.0537367
0.0575355
0.0552102
0.0652364
0.0167031
0.153925
)
;

boundaryField
{
    movingWall
    {
        type            calculated;
        value           uniform 1;
    }
    fixedWalls
    {
        type            calculated;
        value           uniform 0;
    }
    frontAndBack
    {
        type            empty;
    }
}


// ************************************************************************* //
