/*--------------------------------*- C++ -*----------------------------------*\
| =========                 |                                                 |
| \\      /  F ield         | OpenFOAM: The Open Source CFD Toolbox           |
|  \\    /   O peration     | Version:  2312                                  |
|   \\  /    A nd           | Website:  www.openfoam.com                      |
|    \\/     M anipulation  |                                                 |
\*---------------------------------------------------------------------------*/
FoamFile
{
    version     2.0;
    format      ascii;
    arch        "LSB;label=32;scalar=64";
    class       volScalarField;
    location    "0.875";
    object      magU;
}
// * * * * * * * * * * * * * * * * * * * * * * * * * * * * * * * * * * * * * //

dimensions      [0 1 -1 0 0 0 0];

internalField   nonuniform List<scalar> 
400
(
0.000227
0.00111679
0.00253216
0.00408914
0.00569064
0.00725451
0.00873021
0.0100783
0.0112571
0.0122196
0.0128947
0.0131811
0.013059
0.0123897
0.0111625
0.00938712
0.00716987
0.00472852
0.00232742
0.000654215
0.0011156
0.00263352
0.00420175
0.00580219
0.00743597
0.00906309
0.0106307
0.0120821
0.0133575
0.0143937
0.0151204
0.0154584
0.0153386
0.0147044
0.0135361
0.011862
0.00976843
0.00739692
0.00485429
0.00232776
0.0025222
0.00421314
0.00570234
0.00717412
0.00866502
0.0101683
0.0116475
0.0130488
0.0143109
0.0153691
0.0161548
0.0165981
0.0166368
0.0162237
0.0153355
0.0139813
0.0122035
0.0100843
0.00768319
0.00488354
0.00409882
0.00584595
0.00722608
0.0085757
0.00993803
0.0113208
0.0127058
0.0140527
0.0153101
0.0164202
0.0173217
0.0179525
0.0182532
0.01817
0.0176545
0.0166696
0.0151986
0.013285
0.0109682
0.00784189
0.00577421
0.0075674
0.00883585
0.0100763
0.0113382
0.0126322
0.0139529
0.0152765
0.0165676
0.0177824
0.0188719
0.0197821
0.0204543
0.0208159
0.0207727
0.020217
0.019052
0.0172778
0.0148969
0.011162
0.0074909
0.00936956
0.010547
0.0116944
0.0128801
0.0141176
0.0154118
0.0167559
0.018134
0.0195226
0.0208909
0.0221966
0.0233837
0.0243541
0.024948
0.0249496
0.0241377
0.0224104
0.0196925
0.0147824
0.00922012
0.0112381
0.0123567
0.0134315
0.0145618
0.0157703
0.0170741
0.0184851
0.0200116
0.021658
0.0234218
0.0252805
0.0271775
0.0290096
0.0305399
0.0313631
0.0310436
0.0291829
0.0255128
0.0184011
0.0109493
0.0131573
0.0142495
0.0152718
0.0163634
0.0175636
0.0189063
0.0204271
0.0221654
0.024164
0.0264617
0.0290734
0.0319761
0.0351102
0.0381624
0.0404673
0.0411693
0.0389367
0.0323904
0.0209013
0.0126745
0.0151137
0.0162047
0.0171879
0.0182482
0.0194488
0.020847
0.0225089
0.0245147
0.0269612
0.0299526
0.0335775
0.0379245
0.0430979
0.0489896
0.0547052
0.0585325
0.0566483
0.0436186
0.0223644
0.0143974
0.0170974
0.0181996
0.019143
0.0201632
0.0213537
0.022802
0.0246119
0.0269153
0.0298795
0.0337038
0.0385943
0.0449016
0.0534812
0.0648174
0.0778599
0.089554
0.0910755
0.0702454
0.0248883
0.0161273
0.0191041
0.020211
0.0210926
0.0220396
0.0231811
0.0246401
0.026564
0.0291427
0.0326256
0.0373366
0.0436696
0.0524271
0.0658275
0.0844896
0.104099
0.124139
0.13799
0.118067
0.0403342
0.0178951
0.0211397
0.0222186
0.0229862
0.0237939
0.0248108
0.0261962
0.0281406
0.0308875
0.0347565
0.0401869
0.0477722
0.0586317
0.0747055
0.0925322
0.106385
0.131173
0.16861
0.176674
0.0958175
0.0197337
0.0232219
0.0242056
0.0247691
0.0253333
0.0261092
0.0272867
0.0290911
0.031804
0.0357785
0.0414868
0.0495989
0.0610368
0.0746797
0.0796153
0.0722848
0.0939309
0.15656
0.212616
0.167345
0.0218349
0.0254153
0.0261665
0.0263849
0.0265617
0.0269435
0.0277419
0.0292023
0.0316251
0.0353706
0.0408738
0.0487293
0.0595057
0.0694067
0.0660926
0.0315172
0.040149
0.113439
0.203288
0.226371
0.023971
0.0276805
0.02804
0.0277385
0.0273586
0.0271922
0.0274377
0.02835
0.0302363
0.0334641
0.0383946
0.0454452
0.0548299
0.064159
0.0623833
0.0398255
0.0414854
0.0899112
0.164536
0.259526
0.0276988
0.030398
0.0298162
0.0286936
0.0275717
0.0267456
0.0263306
0.0265513
0.0277338
0.030276
0.034564
0.0408396
0.0491698
0.0579585
0.0611557
0.0545947
0.0559982
0.0831134
0.1339
0.267718
0.0280101
0.0312579
0.0302402
0.0285076
0.0267981
0.0253252
0.0242831
0.0239048
0.024505
0.0265281
0.030483
0.0365366
0.0444229
0.0531152
0.0596399
0.061129
0.0606895
0.0761787
0.11185
0.272709
0.0463312
0.043139
0.0366268
0.0312247
0.0275515
0.0248334
0.0230819
0.022525
0.0234032
0.0260193
0.0306454
0.0373765
0.0458569
0.0552593
0.0636465
0.0690301
0.0658308
0.0787482
0.0876655
0.272091
0.0198909
0.013862
0.0107417
0.0148768
0.0204912
0.0267105
0.0334052
0.0402772
0.0472741
0.054527
0.0622586
0.07072
0.0799653
0.0899192
0.0988422
0.106854
0.102187
0.115285
0.055128
0.239687
0.101041
0.0940483
0.0987805
0.114131
0.128784
0.14182
0.153913
0.165241
0.175888
0.186002
0.195765
0.205333
0.214722
0.223988
0.231812
0.239866
0.234969
0.255414
0.129241
0.392333
)
;

boundaryField
{
    movingWall
    {
        type            calculated;
        value           uniform 1;
    }
    fixedWalls
    {
        type            calculated;
        value           uniform 0;
    }
    frontAndBack
    {
        type            empty;
    }
}


// ************************************************************************* //
