/*--------------------------------*- C++ -*----------------------------------*\
| =========                 |                                                 |
| \\      /  F ield         | OpenFOAM: The Open Source CFD Toolbox           |
|  \\    /   O peration     | Version:  2312                                  |
|   \\  /    A nd           | Website:  www.openfoam.com                      |
|    \\/     M anipulation  |                                                 |
\*---------------------------------------------------------------------------*/
FoamFile
{
    version     2.0;
    format      ascii;
    arch        "LSB;label=32;scalar=64";
    class       volScalarField;
    location    "0.875";
    object      p;
}
// * * * * * * * * * * * * * * * * * * * * * * * * * * * * * * * * * * * * * //

dimensions      [0 2 -2 0 0 0 0];

internalField   nonuniform List<scalar> 
400
(
4.55652e-08
0
5.69626e-06
2.87169e-05
6.73394e-05
0.00012261
0.000195226
0.000285659
0.000394068
0.000519967
0.000661847
0.00081793
0.000983801
0.00115111
0.00131085
0.00145138
0.00156126
0.00163277
0.00166606
0.00166551
3.14048e-06
0
9.29846e-06
3.44301e-05
7.42039e-05
0.000129385
0.000200829
0.000289186
0.000394776
0.000517345
0.000655925
0.000808706
0.000970702
0.00113551
0.00129416
0.00143575
0.00154934
0.00162619
0.00166307
0.00166269
0
0
0
1.71451e-05
5.73714e-05
0.000112299
0.000182792
0.000269751
0.000373872
0.000495426
0.000634029
0.000788116
0.000953767
0.0011249
0.00129244
0.00144461
0.0015684
0.00165162
0.0016882
0.00168227
0
0
0
0
1.33761e-05
6.69828e-05
0.000136158
0.000222068
0.00032596
0.000448925
0.000591554
0.000753191
0.000930903
0.00111899
0.00130735
0.00148108
0.00162144
0.00171013
0.00174076
0.00172254
0
0
0
0
0
0
6.14089e-05
0.000145499
0.000249109
0.00037444
0.000523483
0.000697114
0.000893822
0.00110891
0.00133086
0.00153939
0.00170526
0.00179973
0.00181858
0.00177992
0
0
0
0
0
0
0
3.90762e-05
0.000140356
0.000266546
0.00042158
0.000608778
0.000829183
0.00108062
0.00135147
0.0016142
0.00182068
0.0019216
0.00191712
0.00184394
0
0
0
0
0
0
0
0
0
0.000116932
0.000273569
0.000471763
0.000717278
0.00101081
0.00134998
0.00169898
0.00197408
0.00208172
0.00203065
0.00189606
0
0
0
0
0
0
0
0
0
0
6.32397e-05
0.000262129
0.00052418
0.000858058
0.0012918
0.00178337
0.00218328
0.00228993
0.00213888
0.00188902
0
0
0
0
0
0
0
0
0
0
0
0
0.000208593
0.00058274
0.00110203
0.00180857
0.00242727
0.00250542
0.00210244
0.00168805
0
0
0
0
0
0
0
0
0
0
0
0
0
1.38455e-05
0.000540518
0.00133826
0.00212823
0.00236983
0.00183209
0.00136573
0
0
0
0
0
0
0
0
0
0
0
0
0
0
0
0
0
0.000467472
0.00128738
0.00115387
0
0
0
0
0
0
0
0
0
0
0
0
0
0
0
0
0
0
0
0.000417446
0
0
0
0
0
0
0
0
0
0
0
0
0
0
0
0
0
0
0
0
0
0
0
0
0
0
0
0
0
0
0
0
0
0
0
0
0
0
0
0
0
0
0
0
0
0
0
0
0
0
0
0
0
0
0
0
0
0
0
0
0
0
0
0
0
0
0
0
0
0
0
0
0
0
0
0
0
0
0
0
0
0
0
0
0
0
0
0
0
0
0
0
0
0
0
0
0
0
0
0
0
0
0
0
0
0
0
0
0
0
0
0
0
0
0
0
0
0
0
0
0
0
0
0
0
0
0
0
0
0
0
0
0
0
0
0
0
0
0
0.0127744
0.000102661
0.00168404
0.000821356
0
0
0
0
0
0
0
0
0
0
0
0
0
0
0
0.00228291
0.0563414
)
;

boundaryField
{
    movingWall
    {
        type            zeroGradient;
    }
    fixedWalls
    {
        type            zeroGradient;
    }
    frontAndBack
    {
        type            empty;
    }
}


// ************************************************************************* //
