/*--------------------------------*- C++ -*----------------------------------*\
| =========                 |                                                 |
| \\      /  F ield         | OpenFOAM: The Open Source CFD Toolbox           |
|  \\    /   O peration     | Version:  2312                                  |
|   \\  /    A nd           | Website:  www.openfoam.com                      |
|    \\/     M anipulation  |                                                 |
\*---------------------------------------------------------------------------*/
FoamFile
{
    version     2.0;
    format      ascii;
    arch        "LSB;label=32;scalar=64";
    class       volScalarField;
    location    "0.875";
    object      staticP;
}
// * * * * * * * * * * * * * * * * * * * * * * * * * * * * * * * * * * * * * //

dimensions      [1 -1 -2 0 0 0 0];

internalField   nonuniform List<scalar> 
400
(
1
1
1.00001
1.00003
1.00007
1.00012
1.0002
1.00029
1.00039
1.00052
1.00066
1.00082
1.00098
1.00115
1.00131
1.00145
1.00156
1.00163
1.00167
1.00167
1
1
1.00001
1.00003
1.00007
1.00013
1.0002
1.00029
1.00039
1.00052
1.00066
1.00081
1.00097
1.00114
1.00129
1.00144
1.00155
1.00163
1.00166
1.00166
1
1
1
1.00002
1.00006
1.00011
1.00018
1.00027
1.00037
1.0005
1.00063
1.00079
1.00095
1.00112
1.00129
1.00144
1.00157
1.00165
1.00169
1.00168
1
1
1
1
1.00001
1.00007
1.00014
1.00022
1.00033
1.00045
1.00059
1.00075
1.00093
1.00112
1.00131
1.00148
1.00162
1.00171
1.00174
1.00172
1
1
1
1
1
1
1.00006
1.00015
1.00025
1.00037
1.00052
1.0007
1.00089
1.00111
1.00133
1.00154
1.00171
1.0018
1.00182
1.00178
1
1
1
1
1
1
1
1.00004
1.00014
1.00027
1.00042
1.00061
1.00083
1.00108
1.00135
1.00161
1.00182
1.00192
1.00192
1.00184
1
1
1
1
1
1
1
1
1
1.00012
1.00027
1.00047
1.00072
1.00101
1.00135
1.0017
1.00197
1.00208
1.00203
1.0019
1
1
1
1
1
1
1
1
1
1
1.00006
1.00026
1.00052
1.00086
1.00129
1.00178
1.00218
1.00229
1.00214
1.00189
1
1
1
1
1
1
1
1
1
1
1
1
1.00021
1.00058
1.0011
1.00181
1.00243
1.00251
1.0021
1.00169
1
1
1
1
1
1
1
1
1
1
1
1
1
1.00001
1.00054
1.00134
1.00213
1.00237
1.00183
1.00137
1
1
1
1
1
1
1
1
1
1
1
1
1
1
1
1
1
1.00047
1.00129
1.00115
1
1
1
1
1
1
1
1
1
1
1
1
1
1
1
1
1
1
1
1.00042
1
1
1
1
1
1
1
1
1
1
1
1
1
1
1
1
1
1
1
1
1
1
1
1
1
1
1
1
1
1
1
1
1
1
1
1
1
1
1
1
1
1
1
1
1
1
1
1
1
1
1
1
1
1
1
1
1
1
1
1
1
1
1
1
1
1
1
1
1
1
1
1
1
1
1
1
1
1
1
1
1
1
1
1
1
1
1
1
1
1
1
1
1
1
1
1
1
1
1
1
1
1
1
1
1
1
1
1
1
1
1
1
1
1
1
1
1
1
1
1
1
1
1
1
1
1
1
1
1
1
1
1
1
1
1
1
1
1
1
1.01277
1.0001
1.00168
1.00082
1
1
1
1
1
1
1
1
1
1
1
1
1
1
1
1.00228
1.05634
)
;

boundaryField
{
    movingWall
    {
        type            calculated;
        value           nonuniform List<scalar> 
20
(
1.0001
1.00168
1.00082
1
1
1
1
1
1
1
1
1
1
1
1
1
1
1
1.00228
1.05634
)
;
    }
    fixedWalls
    {
        type            calculated;
        value           nonuniform List<scalar> 
60
(
1
1
1
1
1
1
1
1
1
1
1
1
1
1
1
1
1
1
1
1.0001
1.00167
1.00166
1.00168
1.00172
1.00178
1.00184
1.0019
1.00189
1.00169
1.00137
1.00115
1.00042
1
1
1
1
1
1
1.01277
1.05634
1
1
1.00001
1.00003
1.00007
1.00012
1.0002
1.00029
1.00039
1.00052
1.00066
1.00082
1.00098
1.00115
1.00131
1.00145
1.00156
1.00163
1.00167
1.00167
)
;
    }
    frontAndBack
    {
        type            empty;
    }
}


// ************************************************************************* //
