/*--------------------------------*- C++ -*----------------------------------*\
| =========                 |                                                 |
| \\      /  F ield         | OpenFOAM: The Open Source CFD Toolbox           |
|  \\    /   O peration     | Version:  2312                                  |
|   \\  /    A nd           | Website:  www.openfoam.com                      |
|    \\/     M anipulation  |                                                 |
\*---------------------------------------------------------------------------*/
FoamFile
{
    version     2.0;
    format      ascii;
    arch        "LSB;label=32;scalar=64";
    class       volVectorField;
    location    "0.875";
    object      UNear;
}
// * * * * * * * * * * * * * * * * * * * * * * * * * * * * * * * * * * * * * //

dimensions      [0 1 -1 0 0 0 0];

internalField   nonuniform List<vector> 
400
(
(-0.00015981 0.000161214 0)
(-0.000966117 0.000560205 0)
(-0.00240044 0.000806052 0)
(-0.00399269 0.000882886 0)
(-0.00562303 0.000874616 0)
(-0.00720688 0.000829891 0)
(-0.00869653 0.000766099 0)
(-0.0100549 0.000685885 0)
(-0.0112419 0.000583464 0)
(-0.0122114 0.000446847 0)
(-0.012892 0.000264954 0)
(-0.0131809 7.11033e-05 0)
(-0.0130573 -0.000213895 0)
(-0.0123786 -0.000525443 0)
(-0.0111298 -0.00085357 0)
(-0.00931581 -0.00115486 0)
(-0.0070396 -0.00136051 0)
(-0.00452742 -0.00136433 0)
(-0.00208336 -0.00103753 0)
(-0.000467987 -0.000457149 0)
(-0.000553368 0.000968687 0)
(-0.00184899 0.00187528 0)
(-0.00348283 0.00235045 0)
(-0.00522623 0.0025203 0)
(-0.00699742 0.00251589 0)
(-0.00873623 0.00241202 0)
(-0.0103921 0.00224001 0)
(-0.0119145 0.00200522 0)
(-0.0132493 0.00169688 0)
(-0.0143354 0.00129452 0)
(-0.0151003 0.000778013 0)
(-0.0154577 0.000141869 0)
(-0.0153261 -0.000619908 0)
(-0.0146295 -0.00148168 0)
(-0.0133267 -0.002372 0)
(-0.0114276 -0.00318056 0)
(-0.00902026 -0.0037493 0)
(-0.00629878 -0.00387813 0)
(-0.0035004 -0.00336323 0)
(-0.00106536 -0.00206965 0)
(-0.000818634 0.00238565 0)
(-0.00234771 0.0034984 0)
(-0.0040336 0.00403073 0)
(-0.00578753 0.0042394 0)
(-0.00755861 0.00423674 0)
(-0.00931014 0.00408848 0)
(-0.0110023 0.00382271 0)
(-0.012587 0.00344073 0)
(-0.0140087 0.00292553 0)
(-0.0152036 0.00224907 0)
(-0.0160955 0.00138303 0)
(-0.0165952 0.000311089 0)
(-0.0166087 -0.000966755 0)
(-0.0160444 -0.00240486 0)
(-0.0148318 -0.00389809 0)
(-0.0129484 -0.00527425 0)
(-0.010453 -0.00629771 0)
(-0.00752909 -0.00670866 0)
(-0.00440682 -0.00629376 0)
(-0.00145475 -0.00466183 0)
(-0.000927275 0.00399255 0)
(-0.0025853 0.00524322 0)
(-0.00433468 0.00578158 0)
(-0.00612563 0.00600161 0)
(-0.00792359 0.00599843 0)
(-0.00970999 0.00582042 0)
(-0.0114607 0.00548525 0)
(-0.0131385 0.00498579 0)
(-0.0146951 0.00429546 0)
(-0.0160698 0.00337427 0)
(-0.0171842 0.00217895 0)
(-0.0179397 0.000678044 0)
(-0.018218 -0.00113346 0)
(-0.0178846 -0.00320781 0)
(-0.0168046 -0.00541166 0)
(-0.0148839 -0.00750638 0)
(-0.0121367 -0.00914856 0)
(-0.00877758 -0.00997218 0)
(-0.00510847 -0.00970596 0)
(-0.0016619 -0.00766377 0)
(-0.000957885 0.0056942 0)
(-0.00268769 0.00707403 0)
(-0.00450409 0.00760168 0)
(-0.00635523 0.00781942 0)
(-0.00821286 0.00781695 0)
(-0.0100701 0.00762663 0)
(-0.0119193 0.00725348 0)
(-0.0137391 0.00667911 0)
(-0.0154951 0.00586395 0)
(-0.017136 0.00475079 0)
(-0.018586 0.00327263 0)
(-0.0197346 0.00136955 0)
(-0.0204302 -0.000990962 0)
(-0.020469 -0.00378438 0)
(-0.0196036 -0.00687063 0)
(-0.0176066 -0.00993658 0)
(-0.014411 -0.012462 0)
(-0.0103139 -0.0138617 0)
(-0.00578962 -0.0137258 0)
(-0.00176716 -0.0110212 0)
(-0.000958657 0.0074293 0)
(-0.00272899 0.00896333 0)
(-0.00460746 0.00948739 0)
(-0.00652683 0.0097036 0)
(-0.00846234 0.00971009 0)
(-0.0104153 0.00953033 0)
(-0.0123947 0.0091594 0)
(-0.0143998 0.00856784 0)
(-0.0164175 0.00770114 0)
(-0.0184161 0.00647894 0)
(-0.0203323 0.00479871 0)
(-0.0220498 0.00254889 0)
(-0.0233808 -0.00036544 0)
(-0.0240271 -0.00397763 0)
(-0.0235588 -0.00820884 0)
(-0.0214925 -0.012671 0)
(-0.0175851 -0.0165345 0)
(-0.0122697 -0.0187531 0)
(-0.00639872 -0.0186239 0)
(-0.00171308 -0.0146828 0)
(-0.000949537 0.0091711 0)
(-0.00274402 0.0108979 0)
(-0.00467624 0.0114377 0)
(-0.00666095 0.0116635 0)
(-0.00867684 0.0116944 0)
(-0.0107329 0.0115546 0)
(-0.0128566 0.0112354 0)
(-0.015073 0.0107006 0)
(-0.0174012 0.00988233 0)
(-0.019845 0.00867438 0)
(-0.022374 0.00692696 0)
(-0.0248859 0.00444915 0)
(-0.0271579 0.00103287 0)
(-0.0287967 -0.00350805 0)
(-0.0290987 -0.00927099 0)
(-0.0270648 -0.0158474 0)
(-0.0220237 -0.0218784 0)
(-0.0145571 -0.0252929 0)
(-0.0063639 -0.0247063 0)
(-0.00115719 -0.0183647 0)
(-0.000938213 0.0109091 0)
(-0.00274774 0.0128671 0)
(-0.00472313 0.0134439 0)
(-0.00676109 0.0136937 0)
(-0.00884413 0.0137674 0)
(-0.0109895 0.0137007 0)
(-0.0132454 0.0134909 0)
(-0.0156699 0.0131042 0)
(-0.0183271 0.0124669 0)
(-0.0212786 0.0114508 0)
(-0.0245592 0.00985237 0)
(-0.0281231 0.00737247 0)
(-0.0317715 0.00361194 0)
(-0.0350577 -0.00191957 0)
(-0.0369185 -0.00966411 0)
(-0.0354395 -0.0195357 0)
(-0.0288965 -0.0293241 0)
(-0.0176877 -0.0346874 0)
(-0.00480071 -0.0320326 0)
(0.000809958 -0.0208856 0)
(-0.000928275 0.0126404 0)
(-0.00274791 0.0148618 0)
(-0.00475376 0.0154918 0)
(-0.00682392 0.0157752 0)
(-0.00894387 0.0159061 0)
(-0.0111392 0.0159428 0)
(-0.0134808 0.0159018 0)
(-0.0160649 0.015766 0)
(-0.0190143 0.0154735 0)
(-0.0224754 0.0148916 0)
(-0.0265979 0.0137734 0)
(-0.0314743 0.0116969 0)
(-0.0370656 0.00802545 0)
(-0.043059 0.00182958 0)
(-0.048304 -0.00816689 0)
(-0.0497635 -0.0227213 0)
(-0.043686 -0.0389562 0)
(-0.0284016 -0.049014 0)
(-0.00675228 -0.0430928 0)
(0.00449033 -0.0219089 0)
(-0.000923353 0.0143678 0)
(-0.00275299 0.0168743 0)
(-0.00477572 0.0175619 0)
(-0.00684851 0.017876 0)
(-0.00895716 0.0180644 0)
(-0.011134 0.0182213 0)
(-0.0134711 0.0183972 0)
(-0.0161039 0.0186121 0)
(-0.0192191 0.018843 0)
(-0.0230678 0.0189911 0)
(-0.0279652 0.018812 0)
(-0.0342375 0.0178133 0)
(-0.0422478 0.015208 0)
(-0.0525975 0.00968166 0)
(-0.0648052 -0.00125799 0)
(-0.0749653 -0.0210326 0)
(-0.0750716 -0.0488279 0)
(-0.0579539 -0.0702574 0)
(-0.0271393 -0.064791 0)
(0.00493949 -0.0243933 0)
(-0.000930451 0.0161004 0)
(-0.00277918 0.0189008 0)
(-0.0048064 0.0196312 0)
(-0.00684515 0.019951 0)
(-0.00887712 0.0201727 0)
(-0.0109373 0.0204386 0)
(-0.0131329 0.0208485 0)
(-0.0156277 0.0214807 0)
(-0.0186596 0.0223856 0)
(-0.022575 0.0235542 0)
(-0.0278674 0.0248482 0)
(-0.0351414 0.0259252 0)
(-0.0453608 0.0262869 0)
(-0.0610741 0.0245603 0)
(-0.0831038 0.0152398 0)
(-0.103378 -0.01223 0)
(-0.109661 -0.058181 0)
(-0.0956742 -0.0994375 0)
(-0.0605089 -0.101382 0)
(-0.00946469 -0.039208 0)
(-0.000964203 0.0178691 0)
(-0.00285466 0.0209461 0)
(-0.00487967 0.0216761 0)
(-0.00684287 0.021944 0)
(-0.00871891 0.0221389 0)
(-0.0105407 0.0224604 0)
(-0.0124179 0.0230659 0)
(-0.0145185 0.0241061 0)
(-0.0170894 0.0257293 0)
(-0.0205023 0.0280654 0)
(-0.0253193 0.0312077 0)
(-0.0322037 0.0352861 0)
(-0.0423064 0.0405937 0)
(-0.0595027 0.0451701 0)
(-0.0844183 0.0378913 0)
(-0.106376 0.00142793 0)
(-0.115048 -0.0630095 0)
(-0.11045 -0.127397 0)
(-0.0855779 -0.154564 0)
(-0.0334611 -0.089785 0)
(-0.001051 0.0197057 0)
(-0.00303072 0.0230232 0)
(-0.00505057 0.0236728 0)
(-0.00689193 0.0237909 0)
(-0.00852432 0.0238561 0)
(-0.00997659 0.024128 0)
(-0.0113462 0.0248159 0)
(-0.0127719 0.0261375 0)
(-0.0144478 0.0283329 0)
(-0.0166569 0.0316647 0)
(-0.0198104 0.0364514 0)
(-0.0242865 0.043246 0)
(-0.0304879 0.0528771 0)
(-0.0407513 0.0625811 0)
(-0.056597 0.0559944 0)
(-0.0705869 0.0155748 0)
(-0.0764203 -0.0546164 0)
(-0.0823131 -0.133175 0)
(-0.0816147 -0.196328 0)
(-0.0433343 -0.161637 0)
(-0.0012256 0.0218005 0)
(-0.00336154 0.025192 0)
(-0.00538265 0.0256069 0)
(-0.00705 0.0254256 0)
(-0.00834784 0.0252158 0)
(-0.00930864 0.0252844 0)
(-0.0100139 0.0258715 0)
(-0.0105457 0.0272316 0)
(-0.0109965 0.0296517 0)
(-0.0114773 0.0334567 0)
(-0.0121059 0.0390399 0)
(-0.012867 0.0469999 0)
(-0.0131885 0.0580258 0)
(-0.0129724 0.0681836 0)
(-0.0146121 0.0644571 0)
(-0.0157801 0.0272822 0)
(-0.0152208 -0.037152 0)
(-0.0248514 -0.110683 0)
(-0.050491 -0.196918 0)
(-0.037069 -0.223315 0)
(-0.00158344 0.0239186 0)
(-0.00397881 0.0273931 0)
(-0.0059465 0.0274022 0)
(-0.00735174 0.0267465 0)
(-0.00821765 0.0260953 0)
(-0.00857819 0.0258036 0)
(-0.00853583 0.0260762 0)
(-0.00808683 0.0271722 0)
(-0.00721028 0.0293641 0)
(-0.00584294 0.03295 0)
(-0.00382748 0.0382033 0)
(-0.000932762 0.0454357 0)
(0.00395506 0.0546871 0)
(0.0119416 0.0630379 0)
(0.0212391 0.0586565 0)
(0.028552 0.0277643 0)
(0.0300954 -0.0285536 0)
(0.0207259 -0.0874898 0)
(-0.0142789 -0.163915 0)
(-0.0244199 -0.258375 0)
(-0.00201413 0.0276255 0)
(-0.00474208 0.0300258 0)
(-0.00664836 0.0290656 0)
(-0.00766728 0.0276503 0)
(-0.00794914 0.026401 0)
(-0.00769737 0.025614 0)
(-0.00690135 0.0254101 0)
(-0.00552417 0.0259702 0)
(-0.00345979 0.0275171 0)
(-0.00053344 0.0302713 0)
(0.00357236 0.0343789 0)
(0.00925277 0.0397776 0)
(0.0172518 0.0460439 0)
(0.0283535 0.0505496 0)
(0.0414348 0.0449798 0)
(0.0509063 0.0197266 0)
(0.0510321 -0.0230548 0)
(0.039994 -0.0728583 0)
(0.0101725 -0.133513 0)
(-0.0142696 -0.267338 0)
(-0.00333625 0.0278107 0)
(-0.00657335 0.0305589 0)
(-0.00761439 0.0292659 0)
(-0.00765246 0.0274613 0)
(-0.00715516 0.0258252 0)
(-0.00612366 0.0245737 0)
(-0.00454079 0.0238548 0)
(-0.00234368 0.0237896 0)
(0.000630335 0.0244969 0)
(0.00470285 0.0261079 0)
(0.0102055 0.0287239 0)
(0.0174594 0.032095 0)
(0.0267296 0.0354813 0)
(0.038269 0.0368335 0)
(0.0506915 0.0314211 0)
(0.0595695 0.0137198 0)
(0.0585495 -0.0159743 0)
(0.0500458 -0.0574335 0)
(0.0239457 -0.109257 0)
(-0.00751705 -0.272606 0)
(-0.00467997 0.0460942 0)
(-0.00735342 0.0425077 0)
(-0.0066641 0.0360155 0)
(-0.00516864 0.0307939 0)
(-0.00339368 0.0273417 0)
(-0.00110285 0.0248089 0)
(0.00181561 0.0230104 0)
(0.00532923 0.0218855 0)
(0.009525 0.0213772 0)
(0.014622 0.0215221 0)
(0.0209581 0.0223585 0)
(0.0288486 0.0237646 0)
(0.0383549 0.0251347 0)
(0.04928 0.0250015 0)
(0.0600576 0.0210706 0)
(0.068328 0.00982017 0)
(0.065203 -0.00906977 0)
(0.0665332 -0.042126 0)
(0.0277614 -0.0831537 0)
(0.00633097 -0.272018 0)
(-0.00609058 0.0189355 0)
(-0.00814349 0.0112178 0)
(-0.000979366 0.0106969 0)
(0.00651814 0.0133728 0)
(0.0148579 0.0141114 0)
(0.0230018 0.0135783 0)
(0.0307773 0.012987 0)
(0.0382525 0.0126095 0)
(0.0456188 0.0124001 0)
(0.0531137 0.012334 0)
(0.0610034 0.0124386 0)
(0.06957 0.012702 0)
(0.078902 0.0129971 0)
(0.0890175 0.0127019 0)
(0.0982338 0.0109498 0)
(0.106704 0.00565119 0)
(0.102152 -0.00268266 0)
(0.113081 -0.0224371 0)
(0.0319938 -0.0448942 0)
(0.0725999 -0.228428 0)
(0.0407869 0.0924433 0)
(0.0630472 0.0697863 0)
(0.0884946 0.0438895 0)
(0.110297 0.0293331 0)
(0.126956 0.0216238 0)
(0.14079 0.0170597 0)
(0.153272 0.0140327 0)
(0.164813 0.0118845 0)
(0.175587 0.010273 0)
(0.185783 0.00902541 0)
(0.195599 0.00804641 0)
(0.205206 0.00723927 0)
(0.214622 0.00654162 0)
(0.223912 0.00584193 0)
(0.231758 0.00501218 0)
(0.239837 0.00371999 0)
(0.23496 0.00202942 0)
(0.255394 -0.0031847 0)
(0.129205 0.00300917 0)
(0.379716 -0.0986991 0)
)
;

boundaryField
{
    movingWall
    {
        type            fixedValue;
        value           uniform (1 0 0);
    }
    fixedWalls
    {
        type            calculated;
        value           nonuniform List<vector> 
60
(
(-6.39238e-05 6.44856e-05 0)
(-0.000221347 0.000387475 0)
(-0.000327454 0.000954261 0)
(-0.00037091 0.00159702 0)
(-0.000383154 0.00227768 0)
(-0.000383463 0.00297172 0)
(-0.000379815 0.00366844 0)
(-0.000375285 0.00436363 0)
(-0.00037131 0.00505617 0)
(-0.000369341 0.00574711 0)
(-0.000372181 0.00644016 0)
(-0.000385681 0.00714763 0)
(-0.0004204 0.0078823 0)
(-0.000490238 0.00872021 0)
(-0.000633375 0.00956744 0)
(-0.000805654 0.0110502 0)
(-0.0013345 0.0111243 0)
(-0.00187199 0.0184377 0)
(-0.00243623 0.00757419 0)
(0.166315 0.0369773 0)
(-0.000187195 -0.000182859 0)
(-0.000426145 -0.00082786 0)
(-0.000581901 -0.00186473 0)
(-0.000664759 -0.00306551 0)
(-0.000706864 -0.0044085 0)
(-0.00068523 -0.00587312 0)
(-0.000462877 -0.00734589 0)
(0.000323983 -0.00835425 0)
(0.00179613 -0.00876357 0)
(0.00197579 -0.00975731 0)
(-0.00378587 -0.0156832 0)
(-0.0133844 -0.035914 0)
(-0.0173337 -0.0646548 0)
(-0.0148276 -0.0893261 0)
(-0.00976795 -0.10335 0)
(-0.00570782 -0.106935 0)
(-0.00300682 -0.109042 0)
(0.00253239 -0.108807 0)
(0.02904 -0.0913712 0)
(0.301886 -0.0394797 0)
(-6.39238e-05 6.44856e-05 0)
(-0.000386447 0.000224082 0)
(-0.000960176 0.000322421 0)
(-0.00159708 0.000353155 0)
(-0.00224921 0.000349846 0)
(-0.00288275 0.000331956 0)
(-0.00347861 0.00030644 0)
(-0.00402197 0.000274354 0)
(-0.00449678 0.000233386 0)
(-0.00488458 0.000178739 0)
(-0.0051568 0.000105982 0)
(-0.00527237 2.84413e-05 0)
(-0.00522292 -8.55581e-05 0)
(-0.00495144 -0.000210177 0)
(-0.00445192 -0.000341428 0)
(-0.00372632 -0.000461943 0)
(-0.00281584 -0.000544202 0)
(-0.00181097 -0.000545731 0)
(-0.000833344 -0.000415014 0)
(-0.000187195 -0.000182859 0)
)
;
    }
    frontAndBack
    {
        type            empty;
    }
}


// ************************************************************************* //
