/*--------------------------------*- C++ -*----------------------------------*\
| =========                 |                                                 |
| \\      /  F ield         | OpenFOAM: The Open Source CFD Toolbox           |
|  \\    /   O peration     | Version:  2312                                  |
|   \\  /    A nd           | Website:  www.openfoam.com                      |
|    \\/     M anipulation  |                                                 |
\*---------------------------------------------------------------------------*/
FoamFile
{
    version     2.0;
    format      ascii;
    arch        "LSB;label=32;scalar=64";
    class       volVectorField;
    location    "0.875";
    object      URandom;
}
// * * * * * * * * * * * * * * * * * * * * * * * * * * * * * * * * * * * * * //

dimensions      [0 1 -1 0 0 0 0];

internalField   nonuniform List<vector> 
400
(
(0.0907888 -0.00177103 -0.0415285)
(0.0696941 -0.036846 -0.0600658)
(0.0113506 0.0493183 -0.0863566)
(-0.0789758 0.0303845 -0.0592215)
(-0.0736852 -0.0417078 0.0596178)
(-0.0956883 0.0196701 0.0426155)
(0.0313746 0.0199734 0.0895845)
(0.0698414 0.060037 0.00969639)
(-0.0903605 0.0111489 0.060238)
(-0.0980436 0.0339982 -0.0388219)
(0.00503503 -0.098114 0.000458146)
(0.0136393 -0.0680627 -0.0681063)
(-0.0690939 -0.0686323 -0.0466777)
(-0.0962915 0.0415145 0.0345147)
(0.0356849 -0.0884423 0.0116875)
(-0.0775861 -0.0678846 -0.029771)
(0.0443912 0.0276084 -0.0807197)
(-0.0386666 -0.0681836 0.0661037)
(-0.0767568 -0.0622825 0.0259411)
(-0.0622388 -0.0523934 0.0590508)
(0.0388093 -0.0621284 0.0668531)
(0.0514197 -0.0261594 0.079853)
(0.0356642 -0.0813772 0.0381731)
(0.0660762 0.0572239 -0.0438576)
(-0.066342 0.0627001 -0.0534423)
(-0.0393141 -0.0288002 0.0899488)
(-0.0706546 0.0819134 0.00453629)
(0.0290155 0.0809409 -0.045759)
(-0.0684129 -0.0767523 -0.028332)
(-0.0725978 0.0825447 -0.0019737)
(-0.0842266 -0.0180674 0.0697597)
(0.00638907 0.0237284 -0.0946911)
(0.0149421 0.0926885 -0.0194262)
(-0.0457613 0.0206684 -0.0924131)
(-0.0852195 -0.0659712 -0.0280459)
(-0.0127247 0.0962858 0.0102352)
(0.0889213 0.0162992 -0.00234655)
(-0.0147134 -0.077576 0.0670657)
(0.00472449 -0.0693051 0.0747263)
(-0.00207858 0.093329 -0.0299677)
(0.0240754 -0.0407997 -0.0866909)
(0.0541143 0.0740574 0.042819)
(-0.0484355 -0.0749389 -0.0423353)
(0.0243602 0.0936036 0.0332439)
(-0.0364579 -0.0279895 0.090146)
(0.0829897 -0.0317682 0.0139653)
(-0.0723841 0.0041408 -0.0789441)
(-0.0700214 -0.0197634 0.0785039)
(-0.0916116 -0.0498381 0.0345514)
(0.0323514 -0.0840579 -0.0170183)
(-0.0725374 0.0748011 -0.0377373)
(0.00658736 -0.0870085 0.0428702)
(0.0177323 0.0802723 -0.0471265)
(-0.0819591 -0.000119271 0.0751667)
(-0.081863 -0.0278799 0.070226)
(0.0265606 0.0323757 -0.0837945)
(0.0254654 -0.0695534 -0.0686192)
(0.0336602 -0.0438607 0.0832056)
(0.0628656 -0.0796676 0.00952383)
(-0.0274179 -0.082024 0.0578014)
(-0.0753254 0.0257475 0.0631794)
(-0.0635866 -0.00345611 0.0787601)
(-0.0466476 0.0904734 -0.0322011)
(-0.0507384 0.023467 -0.0877762)
(0.0842664 0.0367688 0.0235414)
(0.0641145 -0.0367053 0.0523594)
(-0.0258551 -0.0744369 -0.0583546)
(0.00588666 -0.0224688 0.0942565)
(0.0709524 -0.0059816 0.0505854)
(0.0548317 -0.0635459 0.0222414)
(-0.0190706 0.0330536 0.0950957)
(0.0450831 -0.033177 -0.0698711)
(0.00140049 -0.054182 0.082468)
(0.0211561 -0.0700648 -0.0632927)
(-0.0846252 -0.0264448 -0.0704129)
(-0.0399697 0.0889134 0.00859801)
(-0.104779 -0.0416018 -0.0190843)
(0.0478841 0.0494058 -0.0571289)
(-0.0260328 -0.104597 0.0236179)
(-0.00263574 -0.105788 0.0192512)
(-0.051608 0.0457431 0.0763587)
(-0.0992483 -0.018898 -0.00122472)
(0.0405316 0.0723459 0.0614815)
(-0.102612 -0.0120793 -0.0184048)
(-0.0883711 0.00948944 -0.0597651)
(0.00554393 -0.0861805 0.0309262)
(0.0744704 -0.0306811 -0.0331328)
(-0.0627686 0.0733918 -0.0560849)
(-0.0809435 0.0805399 0.0118332)
(0.000539251 0.0641214 0.078503)
(0.00613741 0.0410546 0.089226)
(0.0683917 0.0420558 -0.0240495)
(-0.00233381 0.0549371 0.0808986)
(0.0321829 0.0269777 -0.0792558)
(0.0211091 0.0618015 -0.0602214)
(-0.093863 0.00924889 0.0617809)
(0.0831214 -0.000709626 -0.0186896)
(0.0100675 0.0500974 0.0741205)
(0.0533124 -0.0682438 -0.0594537)
(0.0585601 0.0173482 -0.0745373)
(-0.0468267 -0.0412303 -0.074353)
(0.0258657 0.0861472 0.056789)
(-0.0924265 0.0117146 0.0477793)
(0.0635617 0.0472612 -0.0606385)
(-0.02219 0.0526185 -0.0892772)
(0.00821356 -0.0270055 -0.0912036)
(-0.0643556 0.0943401 -0.00665653)
(0.0211952 -0.00392757 0.0926114)
(0.0588361 0.0569564 0.0437129)
(0.0241413 0.0174785 0.0898214)
(-0.0973253 -0.0096915 -0.0621458)
(0.0114447 0.040284 0.0863376)
(0.0510693 -0.0593797 0.031217)
(-0.0319214 0.095171 -0.0103555)
(-0.0845703 0.0442783 -0.0593523)
(0.00351553 -0.043777 0.0916898)
(0.0463432 -0.0825478 0.0394386)
(0.00210098 -0.0921034 0.0664321)
(-0.00902222 -0.0819827 -0.0773226)
(0.0691537 0.0337984 -0.0512589)
(0.0311668 0.0868219 -0.0542116)
(0.0903377 -0.0196864 0.0200098)
(-0.0667987 0.0578022 -0.0631754)
(0.0735995 -0.0479478 0.00218348)
(0.0324401 -0.0239187 0.0839113)
(-0.0595857 0.0940323 -0.028475)
(0.0759685 -0.0275637 0.0245913)
(0.0304917 0.0984183 -0.0151481)
(-0.0114117 -0.0167524 0.0962014)
(0.0152658 0.0735054 0.0675587)
(0.0698204 0.00256428 0.0384858)
(-0.0703508 -0.0813885 -0.0237666)
(0.058604 -0.0327725 -0.0387568)
(-0.084155 0.0151437 0.0811638)
(-0.0160169 -0.0252348 0.0978469)
(0.0265647 -0.100247 -0.000748011)
(0.0170469 -0.113351 0.0103098)
(0.0191861 0.0287843 0.0770523)
(0.060814 -0.0478634 -0.0703625)
(0.0754679 0.0227354 -0.04939)
(0.0574171 0.0575965 0.066445)
(0.0626375 -0.0477675 0.0452572)
(0.000128114 0.0697069 -0.0825285)
(0.0332607 -0.0471723 0.0685098)
(-0.0659931 -0.0513995 -0.0498725)
(0.0139529 0.0632641 -0.0831947)
(-0.0198381 -0.0767406 -0.0426004)
(-0.002035 -0.079084 -0.0362688)
(-0.0419798 0.0122197 0.0971622)
(0.0509541 -0.0520087 0.0274835)
(0.018508 0.0405893 0.0848555)
(-0.0151088 -0.0546318 -0.0773699)
(-0.106174 0.0243525 0.0635143)
(-0.0567578 0.0437193 -0.0862913)
(-0.087505 -0.0908219 -0.0292302)
(0.0432632 -0.0812066 -0.00160806)
(-0.0987603 -0.0569745 0.0659887)
(-0.0429262 0.0618915 0.00596221)
(-0.0875769 -0.0648264 0.0455266)
(-0.0647898 0.0456282 -0.0356733)
(-0.0718964 0.0798605 0.0210946)
(0.0597208 0.0733616 0.0517247)
(-0.0707356 0.034255 0.0727622)
(0.0620365 0.0143168 -0.0724991)
(-0.0616591 0.0521774 -0.0768473)
(0.0222266 -0.0536124 0.0636301)
(0.0596933 0.00789957 -0.0676869)
(-0.0332576 -0.0800757 -0.0227766)
(-0.0536809 0.00517596 -0.0932319)
(0.0483828 0.0836804 -0.0157232)
(-0.0221527 0.0796915 0.0750669)
(-0.0829219 0.0974461 0.00047712)
(-0.105712 -0.000232724 -0.0722462)
(-0.0272669 0.0869108 -0.0501178)
(0.0276612 -0.0537091 -0.046424)
(-0.107927 0.0452071 0.044752)
(-0.021514 -0.113025 0.0634209)
(0.0707751 -0.05512 0.0112557)
(-0.0509186 0.00340173 -0.0767306)
(0.0350686 0.031773 0.0786334)
(-0.0208 0.0572792 0.0881109)
(-0.0608804 0.0980273 0.00594933)
(0.0830093 -0.0247346 -0.0224676)
(-0.0504406 -0.0499305 -0.0591777)
(-0.0349256 0.113773 0.0128667)
(0.0105109 0.102703 0.0489324)
(0.060712 -0.022301 -0.0532965)
(-0.101104 -0.0146704 0.0408321)
(0.0215768 0.08842 -0.0591164)
(-0.0898405 0.0769478 -0.0467164)
(-0.0945521 -0.00535276 -0.070585)
(0.030083 -0.0217221 0.065573)
(0.0148634 -0.0625321 -0.0263591)
(-0.109208 -0.0175447 0.077807)
(-0.0552335 0.0415404 0.0898704)
(-0.0869078 0.0229236 -0.0890238)
(0.000645625 -0.112196 0.0158541)
(-0.154253 -0.0849394 0.0226038)
(0.0543742 -0.118743 -0.0210883)
(0.0196063 -0.117343 -0.0338405)
(0.037085 -0.0762922 0.00429423)
(-0.0629581 0.0461601 -0.0750695)
(0.0672675 -0.0252479 0.052832)
(-0.056728 0.0722259 -0.0691305)
(-0.0133523 -0.0122954 -0.0944764)
(0.0622446 -0.0118301 0.060026)
(0.0508353 -0.0520595 -0.0243413)
(0.0118064 -0.0314802 0.0802653)
(0.0307538 0.103798 0.030501)
(-0.064888 -0.0381782 0.0663228)
(-0.0965855 0.0942795 -0.0213801)
(-0.0189769 -0.0532181 0.0589494)
(0.0406318 0.0751037 0.014906)
(-0.116284 0.055575 -0.0773949)
(-0.138264 0.0280031 -0.0824286)
(-0.133051 0.054657 -0.0681591)
(-0.14012 -0.0424794 -0.0939453)
(-0.00740527 -0.0867413 -0.0452482)
(-0.113734 -0.0428385 -0.0611532)
(0.0484816 -0.0475178 0.0810751)
(0.0764777 -0.00339261 -0.0595877)
(0.0429198 -0.0678897 0.00359207)
(-0.0654905 -0.0574483 0.008103)
(-0.0100181 0.105058 -0.0555153)
(0.0214073 0.0567702 -0.088843)
(-0.0790523 0.0561531 -0.064583)
(-0.0524081 0.0828787 0.0694494)
(-0.0842688 -0.0320119 0.0445608)
(-0.0564595 0.031346 0.0917521)
(-0.0902284 0.0420594 -0.0703025)
(-0.0329397 -0.0224454 0.0840433)
(0.0533152 -0.007115 0.0298106)
(0.00914823 0.106395 -0.0549779)
(-0.0800312 0.104431 0.077889)
(-0.0868107 -0.0266534 -0.076343)
(-0.0471527 0.0309596 0.07497)
(-0.0903149 0.0224335 0.0456919)
(-0.101659 -0.0292598 0.0170807)
(-0.00307303 -0.181457 -0.0496963)
(-0.00925897 -0.142698 -0.0813293)
(-0.0779117 -0.03801 0.0275923)
(0.0673604 0.0572711 0.0622268)
(-0.00147842 0.113903 -0.0429611)
(-0.0729033 -0.0492581 -0.0175027)
(0.0600544 0.0617572 -0.0621327)
(0.000617051 0.11892 0.0300375)
(0.0747197 0.0144622 -0.0498543)
(-0.0710998 -0.0543746 0.0107543)
(-0.0474448 -0.0177747 -0.0823729)
(-0.0500155 0.0207138 -0.0936338)
(0.045357 0.00892089 0.0706773)
(-0.000657239 -0.0515323 0.0214179)
(0.0143653 0.0777189 0.085855)
(-0.0697788 0.14585 0.0471559)
(0.0120026 -0.013207 -0.0224779)
(-0.0247437 0.0735464 0.0673623)
(-0.0496085 -0.0449497 0.0958524)
(-0.165649 -0.080326 0.0161895)
(0.00407929 -0.147773 -0.0172915)
(0.00205713 -0.243846 -0.0343705)
(-0.0515627 0.0772098 -0.0663022)
(-0.0507418 0.0553915 -0.082723)
(0.0675762 0.0935492 -0.00780053)
(0.0608437 0.0964539 -0.0185856)
(-0.0229712 -0.0431399 -0.0715098)
(-0.0859514 0.0286935 -0.0641425)
(0.0563509 0.0284342 0.0747606)
(-0.101387 0.0356234 0.0409564)
(0.064814 0.0833368 0.0370226)
(0.0805118 0.0641144 0.0244564)
(0.0204618 0.132955 0.0109224)
(-0.00249947 0.0575269 0.0989025)
(-0.0997856 0.104764 0.0177907)
(0.0625158 0.0651581 0.0655163)
(-0.00630053 0.158807 -0.0320773)
(0.0541462 -0.0211028 0.0526232)
(-0.00328485 0.0496699 -0.0481611)
(0.0516607 -0.0642756 0.0446345)
(0.0180038 -0.226168 0.06673)
(-0.101627 -0.206706 -0.0745416)
(0.0655425 -0.049359 -0.0111575)
(-0.0563504 -0.0231027 0.0686104)
(0.0758585 0.0561941 0.0497892)
(-0.0442769 0.0943915 0.0637236)
(0.057739 0.0919413 -0.0362495)
(0.0344259 -0.0355382 0.0662407)
(-0.0442997 -0.0533793 -0.049069)
(-0.0359892 0.0565003 0.0914402)
(-0.0453135 0.0819761 0.0760271)
(-0.0324322 0.117597 0.0461292)
(0.05579 -0.0169589 0.0583342)
(-0.052724 0.00299333 -0.0742719)
(0.0686264 0.10061 -0.0608991)
(0.0489065 0.126047 -0.0682897)
(-0.060884 0.115268 -0.00713378)
(0.104519 0.00702417 0.0616343)
(0.0577018 -0.0466216 -0.0944004)
(-0.0656414 -0.103862 -0.0476723)
(-0.0878185 -0.110324 0.0414724)
(-0.0160506 -0.357663 -0.00847581)
(0.0294456 0.116679 0.0328597)
(0.0376095 0.101435 -0.055741)
(-0.0272458 -0.00189957 0.0928273)
(-0.0652939 0.0775929 0.0646909)
(0.0860981 0.0533316 0.0207332)
(-0.0959474 0.0466608 0.0420591)
(-0.0180324 -0.0737949 0.00587075)
(0.059111 0.0462125 -0.07357)
(-0.0214268 -0.0687745 -0.0201272)
(0.0713349 -0.0118194 -0.0553473)
(-0.0482006 -0.0451774 0.0314698)
(-0.0557219 -0.0318839 0.0253558)
(-0.0359398 0.0561642 0.0840728)
(0.0440401 0.131587 0.0564531)
(0.00132728 0.136405 0.00572339)
(0.0830464 0.0474359 -0.0905495)
(0.0426872 0.0475353 -0.0703378)
(0.0849268 -0.0897375 -0.0877276)
(-0.00283887 -0.111384 0.096649)
(0.0207727 -0.286566 -0.0916641)
(0.0554169 -0.0148814 -0.0687419)
(0.0828566 0.0682205 -0.0241639)
(-0.0597117 -0.0553734 -0.0110481)
(-0.0797043 0.0218721 -0.069118)
(-0.0556354 -0.0573406 -0.027076)
(-0.0531771 -0.00610954 0.0827316)
(0.0192583 0.119362 0.0176644)
(0.0531799 -0.0180679 -0.0718684)
(0.0781939 0.0700929 0.0436451)
(0.0820395 0.000295491 0.057903)
(0.0545668 -0.044905 0.0510965)
(0.05939 -0.0461011 -0.0461214)
(0.0114565 0.134259 -0.00310715)
(-0.0370841 0.102574 0.000373853)
(-0.0223388 0.098167 0.0145446)
(0.116507 0.0565902 0.0701443)
(0.0486775 -0.104717 -0.0450248)
(0.0330546 -0.0978734 0.0898661)
(-0.0192876 -0.049427 -0.0674632)
(-0.028596 -0.367875 0.0218948)
(0.0171851 0.136694 -0.0362429)
(0.0763744 0.0199288 0.0497981)
(0.0395759 -0.0312007 -0.057826)
(0.0539343 -0.0492208 -0.0102219)
(0.0815986 0.0606169 -0.0408544)
(-0.0445807 -0.0359005 -0.0665135)
(-0.0314916 0.0643723 0.0847338)
(0.0857883 -0.0331351 0.0223397)
(-0.0425758 0.102528 0.0264579)
(0.0640889 0.0578863 -0.0789346)
(0.0905628 -0.00796994 -0.0650797)
(0.0771861 0.099251 -0.0443317)
(0.0925172 -0.0579516 0.0127719)
(-0.0213142 -0.0372767 -0.0337328)
(0.0390191 0.000917569 0.0956621)
(0.00153888 -0.0479748 -0.046893)
(-0.018212 -0.0550884 -0.0304008)
(0.0755335 0.0131218 -0.0828654)
(0.0841769 -0.160854 0.0279268)
(-0.0682653 -0.33191 -0.0291251)
(-0.0488091 -0.0478276 0.0609739)
(-0.0304668 -0.0378582 0.0842212)
(0.032233 -0.025836 -0.0869614)
(0.0792336 0.0232575 -0.067932)
(0.0302767 -0.0397336 -0.0828431)
(0.0370914 -0.0313715 -0.08821)
(-0.0596894 -0.0291469 -0.00636465)
(0.0390766 0.0454143 -0.0944625)
(0.0187115 0.0862396 -0.0618363)
(0.117961 0.0841414 0.0252689)
(0.0370114 -0.0537016 0.0710624)
(0.0753177 0.0806424 0.073151)
(0.0660346 0.0565519 0.0890921)
(0.108787 -0.00507269 0.0964014)
(0.182772 -0.0216055 -0.0423493)
(0.172332 -0.0385759 0.0611307)
(0.0707619 0.0695754 0.0615907)
(0.182552 -0.0763093 0.0476604)
(-0.0560975 -0.0384968 0.0468934)
(0.10364 -0.168564 -0.0738433)
(0.0822629 0.144544 0.0746004)
(-0.000607949 0.0122894 -0.0514017)
(0.0230948 0.0224241 -0.0725404)
(0.174847 0.00182993 -0.0712521)
(0.112013 -0.0417091 0.0759319)
(0.216865 0.0816566 0.00630887)
(0.102282 -0.0501756 -0.0572481)
(0.140583 0.0740096 -0.0745208)
(0.0956836 0.0356077 0.0545303)
(0.0980432 -0.0285243 0.0298635)
(0.164926 -0.0721207 -0.0513068)
(0.243059 0.0838158 0.0519923)
(0.179634 -0.0552029 -0.0704514)
(0.168444 -0.0189472 0.0794284)
(0.271561 0.00889606 -0.0916547)
(0.266432 0.0801594 -0.0587342)
(0.185173 0.0523116 -0.0706607)
(0.352504 0.0206809 -0.000365736)
(0.195444 -0.0282176 0.0680984)
(0.316853 -0.175863 -0.0096982)
)
;

boundaryField
{
    movingWall
    {
        type            fixedValue;
        value           uniform (1 0 0);
    }
    fixedWalls
    {
        type            noSlip;
    }
    frontAndBack
    {
        type            empty;
    }
}


// ************************************************************************* //
