/*--------------------------------*- C++ -*----------------------------------*\
| =========                 |                                                 |
| \\      /  F ield         | OpenFOAM: The Open Source CFD Toolbox           |
|  \\    /   O peration     | Version:  2312                                  |
|   \\  /    A nd           | Website:  www.openfoam.com                      |
|    \\/     M anipulation  |                                                 |
\*---------------------------------------------------------------------------*/
FoamFile
{
    version     2.0;
    format      ascii;
    arch        "LSB;label=32;scalar=64";
    class       volScalarField;
    location    "0.875";
    object      Ux;
}
// * * * * * * * * * * * * * * * * * * * * * * * * * * * * * * * * * * * * * //

dimensions      [0 1 -1 0 0 0 0];

internalField   nonuniform List<scalar> 
400
(
-0.00015981
-0.000966117
-0.00240044
-0.00399269
-0.00562303
-0.00720688
-0.00869653
-0.0100549
-0.0112419
-0.0122114
-0.012892
-0.0131809
-0.0130573
-0.0123786
-0.0111298
-0.00931581
-0.0070396
-0.00452742
-0.00208336
-0.000467987
-0.000553368
-0.00184899
-0.00348283
-0.00522623
-0.00699742
-0.00873623
-0.0103921
-0.0119145
-0.0132493
-0.0143354
-0.0151003
-0.0154577
-0.0153261
-0.0146295
-0.0133267
-0.0114276
-0.00902026
-0.00629878
-0.0035004
-0.00106536
-0.000818634
-0.00234771
-0.0040336
-0.00578753
-0.00755861
-0.00931014
-0.0110023
-0.012587
-0.0140087
-0.0152036
-0.0160955
-0.0165952
-0.0166087
-0.0160444
-0.0148318
-0.0129484
-0.010453
-0.00752909
-0.00440682
-0.00145475
-0.000927275
-0.0025853
-0.00433468
-0.00612563
-0.00792359
-0.00970999
-0.0114607
-0.0131385
-0.0146951
-0.0160698
-0.0171842
-0.0179397
-0.018218
-0.0178846
-0.0168046
-0.0148839
-0.0121367
-0.00877758
-0.00510847
-0.0016619
-0.000957885
-0.00268769
-0.00450409
-0.00635523
-0.00821286
-0.0100701
-0.0119193
-0.0137391
-0.0154951
-0.017136
-0.018586
-0.0197346
-0.0204302
-0.020469
-0.0196036
-0.0176066
-0.014411
-0.0103139
-0.00578962
-0.00176716
-0.000958657
-0.00272899
-0.00460746
-0.00652683
-0.00846234
-0.0104153
-0.0123947
-0.0143998
-0.0164175
-0.0184161
-0.0203323
-0.0220498
-0.0233808
-0.0240271
-0.0235588
-0.0214925
-0.0175851
-0.0122697
-0.00639872
-0.00171308
-0.000949537
-0.00274402
-0.00467624
-0.00666095
-0.00867684
-0.0107329
-0.0128566
-0.015073
-0.0174012
-0.019845
-0.022374
-0.0248859
-0.0271579
-0.0287967
-0.0290987
-0.0270648
-0.0220237
-0.0145571
-0.0063639
-0.00115719
-0.000938213
-0.00274774
-0.00472313
-0.00676109
-0.00884413
-0.0109895
-0.0132454
-0.0156699
-0.0183271
-0.0212786
-0.0245592
-0.0281231
-0.0317715
-0.0350577
-0.0369185
-0.0354395
-0.0288965
-0.0176877
-0.00480071
0.000809958
-0.000928275
-0.00274791
-0.00475376
-0.00682392
-0.00894387
-0.0111392
-0.0134808
-0.0160649
-0.0190143
-0.0224754
-0.0265979
-0.0314743
-0.0370656
-0.043059
-0.048304
-0.0497635
-0.043686
-0.0284016
-0.00675228
0.00449033
-0.000923353
-0.00275299
-0.00477572
-0.00684851
-0.00895716
-0.011134
-0.0134711
-0.0161039
-0.0192191
-0.0230678
-0.0279652
-0.0342375
-0.0422478
-0.0525975
-0.0648052
-0.0749653
-0.0750716
-0.0579539
-0.0271393
0.00493949
-0.000930451
-0.00277918
-0.0048064
-0.00684515
-0.00887712
-0.0109373
-0.0131329
-0.0156277
-0.0186596
-0.022575
-0.0278674
-0.0351414
-0.0453608
-0.0610741
-0.0831038
-0.103378
-0.109661
-0.0956742
-0.0605089
-0.00946469
-0.000964203
-0.00285466
-0.00487967
-0.00684287
-0.00871891
-0.0105407
-0.0124179
-0.0145185
-0.0170894
-0.0205023
-0.0253193
-0.0322037
-0.0423064
-0.0595027
-0.0844183
-0.106376
-0.115048
-0.11045
-0.0855779
-0.0334611
-0.001051
-0.00303072
-0.00505057
-0.00689193
-0.00852432
-0.00997659
-0.0113462
-0.0127719
-0.0144478
-0.0166569
-0.0198104
-0.0242865
-0.0304879
-0.0407513
-0.056597
-0.0705869
-0.0764203
-0.0823131
-0.0816147
-0.0433343
-0.0012256
-0.00336154
-0.00538265
-0.00705
-0.00834784
-0.00930864
-0.0100139
-0.0105457
-0.0109965
-0.0114773
-0.0121059
-0.012867
-0.0131885
-0.0129724
-0.0146121
-0.0157801
-0.0152208
-0.0248514
-0.050491
-0.037069
-0.00158344
-0.00397881
-0.0059465
-0.00735174
-0.00821765
-0.00857819
-0.00853583
-0.00808683
-0.00721028
-0.00584294
-0.00382748
-0.000932762
0.00395506
0.0119416
0.0212391
0.028552
0.0300954
0.0207259
-0.0142789
-0.0244199
-0.00201413
-0.00474208
-0.00664836
-0.00766728
-0.00794914
-0.00769737
-0.00690135
-0.00552417
-0.00345979
-0.00053344
0.00357236
0.00925277
0.0172518
0.0283535
0.0414348
0.0509063
0.0510321
0.039994
0.0101725
-0.0142696
-0.00333625
-0.00657335
-0.00761439
-0.00765246
-0.00715516
-0.00612366
-0.00454079
-0.00234368
0.000630335
0.00470285
0.0102055
0.0174594
0.0267296
0.038269
0.0506915
0.0595695
0.0585495
0.0500458
0.0239457
-0.00751705
-0.00467997
-0.00735342
-0.0066641
-0.00516864
-0.00339368
-0.00110285
0.00181561
0.00532923
0.009525
0.014622
0.0209581
0.0288486
0.0383549
0.04928
0.0600576
0.068328
0.065203
0.0665332
0.0277614
0.00633097
-0.00609058
-0.00814349
-0.000979366
0.00651814
0.0148579
0.0230018
0.0307773
0.0382525
0.0456188
0.0531137
0.0610034
0.06957
0.078902
0.0890175
0.0982338
0.106704
0.102152
0.113081
0.0319938
0.0725999
0.0407869
0.0630472
0.0884946
0.110297
0.126956
0.14079
0.153272
0.164813
0.175587
0.185783
0.195599
0.205206
0.214622
0.223912
0.231758
0.239837
0.23496
0.255394
0.129205
0.379716
)
;

boundaryField
{
    movingWall
    {
        type            calculated;
        value           uniform 1;
    }
    fixedWalls
    {
        type            calculated;
        value           uniform 0;
    }
    frontAndBack
    {
        type            empty;
    }
}


// ************************************************************************* //
