/*--------------------------------*- C++ -*----------------------------------*\
| =========                 |                                                 |
| \\      /  F ield         | OpenFOAM: The Open Source CFD Toolbox           |
|  \\    /   O peration     | Version:  2312                                  |
|   \\  /    A nd           | Website:  www.openfoam.com                      |
|    \\/     M anipulation  |                                                 |
\*---------------------------------------------------------------------------*/
FoamFile
{
    version     2.0;
    format      ascii;
    arch        "LSB;label=32;scalar=64";
    class       volScalarField;
    location    "0.875";
    object      Uy;
}
// * * * * * * * * * * * * * * * * * * * * * * * * * * * * * * * * * * * * * //

dimensions      [0 1 -1 0 0 0 0];

internalField   nonuniform List<scalar> 
400
(
0.000161214
0.000560205
0.000806052
0.000882886
0.000874616
0.000829891
0.000766099
0.000685885
0.000583464
0.000446847
0.000264954
7.11033e-05
-0.000213895
-0.000525443
-0.00085357
-0.00115486
-0.00136051
-0.00136433
-0.00103753
-0.000457149
0.000968687
0.00187528
0.00235045
0.0025203
0.00251589
0.00241202
0.00224001
0.00200522
0.00169688
0.00129452
0.000778013
0.000141869
-0.000619908
-0.00148168
-0.002372
-0.00318056
-0.0037493
-0.00387813
-0.00336323
-0.00206965
0.00238565
0.0034984
0.00403073
0.0042394
0.00423674
0.00408848
0.00382271
0.00344073
0.00292553
0.00224907
0.00138303
0.000311089
-0.000966755
-0.00240486
-0.00389809
-0.00527425
-0.00629771
-0.00670866
-0.00629376
-0.00466183
0.00399255
0.00524322
0.00578158
0.00600161
0.00599843
0.00582042
0.00548525
0.00498579
0.00429546
0.00337427
0.00217895
0.000678044
-0.00113346
-0.00320781
-0.00541166
-0.00750638
-0.00914856
-0.00997218
-0.00970596
-0.00766377
0.0056942
0.00707403
0.00760168
0.00781942
0.00781695
0.00762663
0.00725348
0.00667911
0.00586395
0.00475079
0.00327263
0.00136955
-0.000990962
-0.00378438
-0.00687063
-0.00993658
-0.012462
-0.0138617
-0.0137258
-0.0110212
0.0074293
0.00896333
0.00948739
0.0097036
0.00971009
0.00953033
0.0091594
0.00856784
0.00770114
0.00647894
0.00479871
0.00254889
-0.00036544
-0.00397763
-0.00820884
-0.012671
-0.0165345
-0.0187531
-0.0186239
-0.0146828
0.0091711
0.0108979
0.0114377
0.0116635
0.0116944
0.0115546
0.0112354
0.0107006
0.00988233
0.00867438
0.00692696
0.00444915
0.00103287
-0.00350805
-0.00927099
-0.0158474
-0.0218784
-0.0252929
-0.0247063
-0.0183647
0.0109091
0.0128671
0.0134439
0.0136937
0.0137674
0.0137007
0.0134909
0.0131042
0.0124669
0.0114508
0.00985237
0.00737247
0.00361194
-0.00191957
-0.00966411
-0.0195357
-0.0293241
-0.0346874
-0.0320326
-0.0208856
0.0126404
0.0148618
0.0154918
0.0157752
0.0159061
0.0159428
0.0159018
0.015766
0.0154735
0.0148916
0.0137734
0.0116969
0.00802545
0.00182958
-0.00816689
-0.0227213
-0.0389562
-0.049014
-0.0430928
-0.0219089
0.0143678
0.0168743
0.0175619
0.017876
0.0180644
0.0182213
0.0183972
0.0186121
0.018843
0.0189911
0.018812
0.0178133
0.015208
0.00968166
-0.00125799
-0.0210326
-0.0488279
-0.0702574
-0.064791
-0.0243933
0.0161004
0.0189008
0.0196312
0.019951
0.0201727
0.0204386
0.0208485
0.0214807
0.0223856
0.0235542
0.0248482
0.0259252
0.0262869
0.0245603
0.0152398
-0.01223
-0.058181
-0.0994375
-0.101382
-0.039208
0.0178691
0.0209461
0.0216761
0.021944
0.0221389
0.0224604
0.0230659
0.0241061
0.0257293
0.0280654
0.0312077
0.0352861
0.0405937
0.0451701
0.0378913
0.00142793
-0.0630095
-0.127397
-0.154564
-0.089785
0.0197057
0.0230232
0.0236728
0.0237909
0.0238561
0.024128
0.0248159
0.0261375
0.0283329
0.0316647
0.0364514
0.043246
0.0528771
0.0625811
0.0559944
0.0155748
-0.0546164
-0.133175
-0.196328
-0.161637
0.0218005
0.025192
0.0256069
0.0254256
0.0252158
0.0252844
0.0258715
0.0272316
0.0296517
0.0334567
0.0390399
0.0469999
0.0580258
0.0681836
0.0644571
0.0272822
-0.037152
-0.110683
-0.196918
-0.223315
0.0239186
0.0273931
0.0274022
0.0267465
0.0260953
0.0258036
0.0260762
0.0271722
0.0293641
0.03295
0.0382033
0.0454357
0.0546871
0.0630379
0.0586565
0.0277643
-0.0285536
-0.0874898
-0.163915
-0.258375
0.0276255
0.0300258
0.0290656
0.0276503
0.026401
0.025614
0.0254101
0.0259702
0.0275171
0.0302713
0.0343789
0.0397776
0.0460439
0.0505496
0.0449798
0.0197266
-0.0230548
-0.0728583
-0.133513
-0.267338
0.0278107
0.0305589
0.0292659
0.0274613
0.0258252
0.0245737
0.0238548
0.0237896
0.0244969
0.0261079
0.0287239
0.032095
0.0354813
0.0368335
0.0314211
0.0137198
-0.0159743
-0.0574335
-0.109257
-0.272606
0.0460942
0.0425077
0.0360155
0.0307939
0.0273417
0.0248089
0.0230104
0.0218855
0.0213772
0.0215221
0.0223585
0.0237646
0.0251347
0.0250015
0.0210706
0.00982017
-0.00906977
-0.042126
-0.0831537
-0.272018
0.0189355
0.0112178
0.0106969
0.0133728
0.0141114
0.0135783
0.012987
0.0126095
0.0124001
0.012334
0.0124386
0.012702
0.0129971
0.0127019
0.0109498
0.00565119
-0.00268266
-0.0224371
-0.0448942
-0.228428
0.0924433
0.0697863
0.0438895
0.0293331
0.0216238
0.0170597
0.0140327
0.0118845
0.010273
0.00902541
0.00804641
0.00723927
0.00654162
0.00584193
0.00501218
0.00371999
0.00202942
-0.0031847
0.00300917
-0.0986991
)
;

boundaryField
{
    movingWall
    {
        type            calculated;
        value           uniform 0;
    }
    fixedWalls
    {
        type            calculated;
        value           uniform 0;
    }
    frontAndBack
    {
        type            empty;
    }
}


// ************************************************************************* //
