/*--------------------------------*- C++ -*----------------------------------*\
| =========                 |                                                 |
| \\      /  F ield         | OpenFOAM: The Open Source CFD Toolbox           |
|  \\    /   O peration     | Version:  2312                                  |
|   \\  /    A nd           | Website:  www.openfoam.com                      |
|    \\/     M anipulation  |                                                 |
\*---------------------------------------------------------------------------*/
FoamFile
{
    version     2.0;
    format      ascii;
    arch        "LSB;label=32;scalar=64";
    class       volVectorField;
    location    "0.875";
    object      vorticityField;
}
// * * * * * * * * * * * * * * * * * * * * * * * * * * * * * * * * * * * * * //

dimensions      [0 0 -1 0 0 0 0];

internalField   nonuniform List<vector> 
400
(
(0 -0 0.14346)
(0 -0 0.345994)
(0 -0 0.620595)
(0 -0 0.928749)
(0 -0 1.25675)
(0 -0 1.58346)
(0 -0 1.89446)
(0 -0 2.17868)
(0 -0 2.42522)
(0 -0 2.62283)
(0 -0 2.76166)
(0 -0 2.81598)
(0 -0 2.77868)
(0 -0 2.63685)
(0 -0 2.3827)
(0 -0 2.02365)
(0 -0 1.58504)
(0 -0 1.11492)
(0 -0 0.649094)
(0 -0 0.302803)
(0 -0 0.350279)
(0 -0 0.276336)
(0 -0 0.227817)
(0 -0 0.196028)
(0 -0 0.182731)
(0 -0 0.182737)
(0 -0 0.189898)
(0 -0 0.198891)
(0 -0 0.205606)
(0 -0 0.207331)
(0 -0 0.205089)
(0 -0 0.201637)
(0 -0 0.192782)
(0 -0 0.191376)
(0 -0 0.200317)
(0 -0 0.225526)
(0 -0 0.271579)
(0 -0 0.338773)
(0 -0 0.413194)
(0 -0 0.641965)
(0 -0 0.625795)
(0 -0 0.238139)
(0 -0 0.159286)
(0 -0 0.110541)
(0 -0 0.0775248)
(0 -0 0.0559733)
(0 -0 0.0420933)
(0 -0 0.0326793)
(0 -0 0.0254179)
(0 -0 0.0191872)
(0 -0 0.0145821)
(0 -0 0.0132182)
(0 -0 0.0175921)
(0 -0 0.0323701)
(0 -0 0.0608556)
(0 -0 0.105671)
(0 -0 0.168206)
(0 -0 0.248275)
(0 -0 0.365489)
(0 -0 1.15521)
(0 -0 0.937502)
(0 -0 0.212901)
(0 -0 0.122888)
(0 -0 0.0784542)
(0 -0 0.0473059)
(0 -0 0.0246832)
(0 -0 0.00823939)
(0 -0 -0.00376678)
(0 -0 -0.0125115)
(0 -0 -0.01841)
(0 -0 -0.0205773)
(0 -0 -0.0172973)
(0 -0 -0.00642848)
(0 -0 0.014633)
(0 -0 0.0473155)
(0 -0 0.0921286)
(0 -0 0.149226)
(0 -0 0.222737)
(0 -0 0.369121)
(0 -0 1.76821)
(0 -0 1.27996)
(0 -0 0.205116)
(0 -0 0.101817)
(0 -0 0.0616475)
(0 -0 0.0345955)
(0 -0 0.0141842)
(0 -0 -0.00135335)
(0 -0 -0.0128275)
(0 -0 -0.0205965)
(0 -0 -0.024496)
(0 -0 -0.0233091)
(0 -0 -0.0153507)
(0 -0 0.00089331)
(0 -0 0.026284)
(0 -0 0.0601982)
(0 -0 0.101726)
(0 -0 0.152335)
(0 -0 0.222826)
(0 -0 0.413066)
(0 -0 2.47982)
(0 -0 1.63843)
(0 -0 0.211441)
(0 -0 0.091242)
(0 -0 0.0528416)
(0 -0 0.0290724)
(0 -0 0.0112116)
(0 -0 -0.00252262)
(0 -0 -0.0124368)
(0 -0 -0.0182774)
(0 -0 -0.0193445)
(0 -0 -0.0142002)
(0 -0 -0.00128917)
(0 -0 0.0201113)
(0 -0 0.0484333)
(0 -0 0.0801782)
(0 -0 0.113257)
(0 -0 0.153052)
(0 -0 0.215385)
(0 -0 0.464458)
(0 -0 3.26967)
(0 -0 2.00486)
(0 -0 0.228533)
(0 -0 0.0881225)
(0 -0 0.0490938)
(0 -0 0.027288)
(0 -0 0.011519)
(0 -0 -0.000321704)
(0 -0 -0.0082888)
(0 -0 -0.0116668)
(0 -0 -0.00929392)
(0 -0 0.000163822)
(0 -0 0.0179261)
(0 -0 0.0433427)
(0 -0 0.0726725)
(0 -0 0.102032)
(0 -0 0.133958)
(0 -0 0.186587)
(0 -0 0.259009)
(0 -0 0.533015)
(0 -0 4.0548)
(0 -0 2.3755)
(0 -0 0.253877)
(0 -0 0.0904029)
(0 -0 0.0486459)
(0 -0 0.0274078)
(0 -0 0.0129764)
(0 -0 0.00276806)
(0 -0 -0.00321057)
(0 -0 -0.00403836)
(0 -0 0.00159125)
(0 -0 0.0145588)
(0 -0 0.0347985)
(0 -0 0.0615729)
(0 -0 0.0986254)
(0 -0 0.158924)
(0 -0 0.30387)
(0 -0 0.651069)
(0 -0 1.1136)
(0 -0 1.41901)
(0 -0 4.72707)
(0 -0 2.74874)
(0 -0 0.285662)
(0 -0 0.0966026)
(0 -0 0.0501702)
(0 -0 0.0280588)
(0 -0 0.0140154)
(0 -0 0.00489493)
(0 -0 0.00056974)
(0 -0 0.00175835)
(0 -0 0.00891815)
(0 -0 0.0211283)
(0 -0 0.0366488)
(0 -0 0.0608994)
(0 -0 0.134752)
(0 -0 0.333589)
(0 -0 0.87365)
(0 -0 1.98823)
(0 -0 3.61295)
(0 -0 4.94438)
(0 -0 6.08722)
(0 -0 3.12443)
(0 -0 0.322536)
(0 -0 0.105436)
(0 -0 0.052381)
(0 -0 0.0278533)
(0 -0 0.0130932)
(0 -0 0.00429623)
(0 -0 0.000857854)
(0 -0 0.00242746)
(0 -0 0.00685081)
(0 -0 0.00916645)
(0 -0 0.00630324)
(0 -0 0.0163503)
(0 -0 0.154914)
(0 -0 0.40855)
(0 -0 0.604489)
(0 -0 1.67499)
(0 -0 5.13095)
(0 -0 9.96208)
(0 -0 10.3139)
(0 -0 3.50421)
(0 -0 0.363249)
(0 -0 0.115409)
(0 -0 0.0535868)
(0 -0 0.0249411)
(0 -0 0.00825537)
(0 -0 -0.00111572)
(0 -0 -0.00482422)
(0 -0 -0.00562033)
(0 -0 -0.0102925)
(0 -0 -0.0274779)
(0 -0 -0.0595167)
(0 -0 -0.130632)
(0 -0 -0.414195)
(0 -0 -1.71771)
(0 -0 -4.20103)
(0 -0 -4.72307)
(0 -0 0.929499)
(0 -0 11.8668)
(0 -0 17.8991)
(0 -0 3.89357)
(0 -0 0.40586)
(0 -0 0.124209)
(0 -0 0.0509562)
(0 -0 0.0163594)
(0 -0 -0.0033722)
(0 -0 -0.0140954)
(0 -0 -0.0192473)
(0 -0 -0.025251)
(0 -0 -0.0439639)
(0 -0 -0.0836327)
(0 -0 -0.146885)
(0 -0 -0.498887)
(0 -0 -2.30252)
(0 -0 -7.02489)
(0 -0 -13.3692)
(0 -0 -16.2066)
(0 -0 -10.4916)
(0 -0 5.87181)
(0 -0 27.8219)
(0 -0 4.29904)
(0 -0 0.447392)
(0 -0 0.127066)
(0 -0 0.0390478)
(0 -0 -0.00340169)
(0 -0 -0.027238)
(0 -0 -0.0394436)
(0 -0 -0.045578)
(0 -0 -0.0565705)
(0 -0 -0.0906595)
(0 -0 -0.163208)
(0 -0 -0.291097)
(0 -0 -0.97828)
(0 -0 -4.34129)
(0 -0 -11.6813)
(0 -0 -20.1207)
(0 -0 -24.8577)
(0 -0 -22.731)
(0 -0 -6.3549)
(0 -0 36.1572)
(0 -0 4.7525)
(0 -0 0.475442)
(0 -0 0.112948)
(0 -0 0.00687351)
(0 -0 -0.0447867)
(0 -0 -0.0742669)
(0 -0 -0.0863145)
(0 -0 -0.0904891)
(0 -0 -0.101252)
(0 -0 -0.142582)
(0 -0 -0.243968)
(0 -0 -0.436784)
(0 -0 -1.32592)
(0 -0 -4.62615)
(0 -0 -11.8737)
(0 -0 -20.0748)
(0 -0 -24.4481)
(0 -0 -26.2804)
(0 -0 -17.9968)
(0 -0 40.1318)
(0 -0 5.21002)
(0 -0 0.486415)
(0 -0 0.061915)
(0 -0 -0.0689626)
(0 -0 -0.134159)
(0 -0 -0.163037)
(0 -0 -0.174408)
(0 -0 -0.173367)
(0 -0 -0.175885)
(0 -0 -0.210453)
(0 -0 -0.319267)
(0 -0 -0.563602)
(0 -0 -1.28381)
(0 -0 -3.73565)
(0 -0 -9.13204)
(0 -0 -15.3896)
(0 -0 -18.1507)
(0 -0 -20.0207)
(0 -0 -23.1549)
(0 -0 39.949)
(0 -0 5.94041)
(0 -0 0.403464)
(0 -0 -0.0707665)
(0 -0 -0.236389)
(0 -0 -0.309874)
(0 -0 -0.344538)
(0 -0 -0.363884)
(0 -0 -0.363614)
(0 -0 -0.353958)
(0 -0 -0.368404)
(0 -0 -0.45266)
(0 -0 -0.672712)
(0 -0 -1.20025)
(0 -0 -2.73916)
(0 -0 -6.02755)
(0 -0 -9.90521)
(0 -0 -12.1039)
(0 -0 -13.9778)
(0 -0 -23.2704)
(0 -0 38.3948)
(0 -0 6.10354)
(0 -0 0.406649)
(0 -0 -0.308185)
(0 -0 -0.593931)
(0 -0 -0.744302)
(0 -0 -0.856496)
(0 -0 -0.950107)
(0 -0 -1.02113)
(0 -0 -1.06665)
(0 -0 -1.09285)
(0 -0 -1.13986)
(0 -0 -1.28384)
(0 -0 -1.63647)
(0 -0 -2.49867)
(0 -0 -4.17364)
(0 -0 -6.48172)
(0 -0 -8.53242)
(0 -0 -11.9822)
(0 -0 -23.2761)
(0 -0 36.1262)
(0 -0 9.13563)
(0 -0 -0.850863)
(0 -0 -1.83488)
(0 -0 -2.28444)
(0 -0 -2.79981)
(0 -0 -3.34568)
(0 -0 -3.82415)
(0 -0 -4.22294)
(0 -0 -4.53519)
(0 -0 -4.74296)
(0 -0 -4.85555)
(0 -0 -4.93344)
(0 -0 -5.09356)
(0 -0 -5.48126)
(0 -0 -6.27236)
(0 -0 -7.72749)
(0 -0 -9.55489)
(0 -0 -13.7119)
(0 -0 -23.794)
(0 -0 27.5054)
(0 -0 -1.53136)
(0 -0 -7.86392)
(0 -0 -9.30037)
(0 -0 -11.2051)
(0 -0 -13.0144)
(0 -0 -14.3017)
(0 -0 -15.2425)
(0 -0 -16.0071)
(0 -0 -16.6338)
(0 -0 -17.1122)
(0 -0 -17.4273)
(0 -0 -17.5799)
(0 -0 -17.6268)
(0 -0 -17.6679)
(0 -0 -17.8751)
(0 -0 -18.5141)
(0 -0 -19.7845)
(0 -0 -23.1073)
(0 -0 -30.7435)
(0 -0 -10.0062)
(0 -0 -180.307)
(0 -0 -199.365)
(0 -0 -195.294)
(0 -0 -190.545)
(0 -0 -187.046)
(0 -0 -184.38)
(0 -0 -182.113)
(0 -0 -180.069)
(0 -0 -178.165)
(0 -0 -176.333)
(0 -0 -174.518)
(0 -0 -172.673)
(0 -0 -170.787)
(0 -0 -168.86)
(0 -0 -167.213)
(0 -0 -165.644)
(0 -0 -166.979)
(0 -0 -163.055)
(0 -0 -193.432)
(0 -0 -145.199)
)
;

boundaryField
{
    movingWall
    {
        type            calculated;
        value           nonuniform List<vector> 
20
(
(0 -0 -367.462)
(0 -0 -379.637)
(0 -0 -368.647)
(0 -0 -358.108)
(0 -0 -350.445)
(0 -0 -344.443)
(0 -0 -339.209)
(0 -0 -334.451)
(0 -0 -330.051)
(0 -0 -325.91)
(0 -0 -321.939)
(0 -0 -318.068)
(0 -0 -314.291)
(0 -0 -310.588)
(0 -0 -307.509)
(0 -0 -304.364)
(0 -0 -306.707)
(0 -0 -297.744)
(0 -0 -357.869)
(0 -0 -238.545)
)
;
    }
    fixedWalls
    {
        type            calculated;
        value           nonuniform List<vector> 
60
(
(0 -0 0.135803)
(0 -0 0.453357)
(0 -0 0.991651)
(0 -0 1.61094)
(0 -0 2.28082)
(0 -0 2.97089)
(0 -0 3.66639)
(0 -0 4.3615)
(0 -0 5.05469)
(0 -0 5.74733)
(0 -0 6.44424)
(0 -0 7.15968)
(0 -0 7.90843)
(0 -0 8.77345)
(0 -0 9.6463)
(0 -0 11.2255)
(0 -0 11.3909)
(0 -0 18.7131)
(0 -0 3.0275)
(0 -0 -159.553)
(0 -0 0.336194)
(0 -0 0.926537)
(0 -0 1.92439)
(0 -0 3.09675)
(0 -0 4.41361)
(0 -0 5.81212)
(0 -0 7.09359)
(0 -0 7.7895)
(0 -0 8.35062)
(0 -0 11.1528)
(0 -0 19.5233)
(0 -0 39.3009)
(0 -0 65.0156)
(0 -0 87.4347)
(0 -0 101.07)
(0 -0 105.245)
(0 -0 106.982)
(0 -0 100.795)
(0 -0 54.0327)
(0 -0 -115.289)
(0 -0 0.136066)
(0 -0 0.450931)
(0 -0 0.992445)
(0 -0 1.60393)
(0 -0 2.24391)
(0 -0 2.8719)
(0 -0 3.46421)
(0 -0 4.0037)
(0 -0 4.47288)
(0 -0 4.85273)
(0 -0 5.11922)
(0 -0 5.22448)
(0 -0 5.16326)
(0 -0 4.88747)
(0 -0 4.38897)
(0 -0 3.67563)
(0 -0 2.79489)
(0 -0 1.84327)
(0 -0 0.924062)
(0 -0 0.336663)
)
;
    }
    frontAndBack
    {
        type            empty;
    }
}


// ************************************************************************* //
