/*--------------------------------*- C++ -*----------------------------------*\
| =========                 |                                                 |
| \\      /  F ield         | OpenFOAM: The Open Source CFD Toolbox           |
|  \\    /   O peration     | Version:  2312                                  |
|   \\  /    A nd           | Website:  www.openfoam.com                      |
|    \\/     M anipulation  |                                                 |
\*---------------------------------------------------------------------------*/
FoamFile
{
    version     2.0;
    format      ascii;
    arch        "LSB;label=32;scalar=64";
    class       volScalarField;
    location    "200";
    object      epsilon;
}
// * * * * * * * * * * * * * * * * * * * * * * * * * * * * * * * * * * * * * //

dimensions      [0 2 -3 0 0 0 0];

internalField   nonuniform List<scalar> 
12225
(
1085.71
2467.78
3645.44
4414.75
4812.15
4980.52
4975.34
4926.52
4840.75
4729.17
4620.77
4517.28
4425.61
4339.65
4269.15
4198.67
4151.03
4085.88
81.2301
262.52
438.553
584.501
691.163
762.811
805.026
829.609
846.945
856.777
866.695
873.587
883.058
890.843
900.538
910.27
917.45
934.233
20.5775
51.1734
83.4743
112.528
136.935
156.179
170.174
179.869
186.396
190.765
193.503
195.599
196.873
198.351
199.397
200.69
202.744
205.998
14.7579
21.8682
30.0216
38.4982
46.2199
53.0338
58.6264
63.2585
66.7585
69.6426
71.6141
73.3294
74.3188
75.3356
75.7347
76.4079
76.6243
77.3503
14.361
16.3337
18.4571
21.486
24.4397
27.2608
29.7372
31.9822
33.8192
35.4786
36.745
37.9266
38.7443
39.5742
40.0542
40.6533
40.8451
41.4587
14.6446
14.9541
15.4277
16.4559
17.6093
18.8286
19.9699
21.0767
22.0337
22.9481
23.6895
24.4155
24.956
25.527
25.8915
26.3521
26.547
27.0004
14.7184
14.6387
14.6738
14.8757
15.2176
15.6833
16.1628
16.6724
17.1383
17.6108
18.0103
18.4207
18.7383
19.0877
19.3211
19.6228
19.7665
20.0791
14.7545
14.5907
14.4691
14.4209
14.4418
14.5153
14.6476
14.8246
15.0023
15.2023
15.3792
15.576
15.7326
15.9148
16.0402
16.2071
16.292
16.4756
14.7641
14.5919
14.4345
14.3029
14.2031
14.1371
14.0973
14.0987
14.1107
14.1415
14.1783
14.2346
14.2793
14.3426
14.3853
14.4496
14.4818
14.5626
14.7656
14.5942
14.4321
14.2828
14.1466
14.0296
13.9256
13.8437
13.7744
13.7224
13.6772
13.6482
13.6204
13.6063
13.5892
13.5837
13.5723
13.582
14.7657
14.5945
14.4323
14.2806
14.137
14.0051
13.8816
13.7705
13.6679
13.5777
13.4939
13.4219
13.3537
13.2972
13.2407
13.1973
13.1473
13.1179
14.7657
14.5944
14.4323
14.2801
14.1357
14.0007
13.8728
13.754
13.6417
13.5386
13.441
13.3523
13.2677
13.1923
13.1185
13.055
12.9896
12.9369
14.7657
14.5941
14.4321
14.2797
14.1353
13.9995
13.8707
13.7497
13.6347
13.5271
13.4248
13.3294
13.2384
13.1542
13.0732
12.9991
12.9267
12.8616
14.7657
14.594
14.4319
14.2792
14.1349
13.9987
13.8698
13.7481
13.6327
13.5237
13.4201
13.3224
13.2294
13.1418
13.0582
12.9796
12.9043
12.8337
14.7657
14.5938
14.4317
14.2789
14.1345
13.9981
13.8691
13.7471
13.6316
13.5222
13.4183
13.32
13.2265
13.1379
13.0536
12.9737
12.8975
12.8253
14.7657
14.5938
14.4316
14.2786
14.1341
13.9976
13.8685
13.7463
13.6307
13.5211
13.4171
13.3185
13.2249
13.1361
13.0516
12.9713
12.8949
12.8222
14.7657
14.5937
14.4315
14.2784
14.1338
13.9972
13.868
13.7457
13.6299
13.5202
13.4162
13.3175
13.2237
13.1347
13.0501
12.9697
12.8931
12.8203
14.7657
14.5937
14.4314
14.2783
14.1336
13.9969
13.8677
13.7453
13.6294
13.5196
13.4155
13.3167
13.2228
13.1337
13.049
12.9685
12.8919
12.819
14.7657
14.5937
14.4314
14.2782
14.1336
13.9969
13.8675
13.7452
13.6292
13.5194
13.4152
13.3163
13.2224
13.1333
13.0485
12.968
12.8913
12.8184
14.7657
14.5937
14.4315
14.2783
14.1337
13.997
13.8677
13.7453
13.6294
13.5196
13.4154
13.3166
13.2227
13.1336
13.0489
12.9683
12.8917
12.8188
14.7657
14.5937
14.4316
14.2785
14.1339
13.9973
13.8681
13.7457
13.63
13.5202
13.4163
13.3176
13.2241
13.1352
13.051
12.9708
12.8948
12.8224
14.7657
14.5938
14.4317
14.2786
14.1343
13.9978
13.869
13.7473
13.6325
13.524
13.4219
13.3252
13.2344
13.1483
13.0676
12.9907
12.9192
12.8504
14.7657
14.5937
14.4319
14.2789
14.1361
14.0021
13.8782
13.7629
13.6573
13.5595
13.4707
13.3883
13.3141
13.2446
13.1829
13.1237
13.0729
13.0213
14.7644
14.5922
14.4335
14.2871
14.1628
14.0551
13.9689
13.8978
13.8459
13.8048
13.7783
13.758
13.7482
13.7416
13.7423
13.7434
13.7529
13.7517
14.7478
14.5944
14.4764
14.4102
14.4234
14.4613
14.5554
14.6706
14.817
14.9613
15.1238
15.2712
15.432
15.5684
15.7197
15.8374
15.9783
16.0722
14.6504
14.7821
14.9369
15.3416
15.9227
16.5509
17.2339
17.8781
18.5378
19.1218
19.7129
20.2098
20.7203
21.1251
21.5592
21.8761
22.2459
22.4813
14.572
16.1273
17.9726
20.4197
22.9236
25.2655
27.5469
29.5528
31.4909
33.103
34.6861
35.9145
37.1765
38.0667
39.0621
39.674
40.4626
40.8543
16.5442
25.8796
36.721
46.5548
55.8661
64.2738
72.1021
78.742
84.8032
89.592
94.0149
97.1772
100.316
102.193
104.456
105.419
107.138
107.496
45.7966
105.211
164.44
217.234
267.845
313.452
353.663
386.108
413.225
433.658
450.598
462.706
472.895
479.777
486.818
490.31
496.156
497.493
632.343
1081.16
1534.74
1880.99
2183.47
2431.76
2631.52
2773.01
2876.12
2932.17
2969.03
2970.11
2963.09
2946.14
2918.21
2884.94
2849.13
2811.79
0.44258
0.434908
0.728346
1.02084
1.28077
1.4989
1.68962
1.8704
2.04029
2.20664
2.378
2.56392
2.77809
3.04393
3.37311
3.75506
4.18173
4.65379
5.17533
5.75319
6.39364
7.10409
7.88998
8.75807
9.71306
10.7624
11.9124
13.16
14.5033
15.945
17.4847
19.126
20.8688
22.7172
24.671
26.7353
28.9107
31.2053
33.6276
36.1963
38.9321
41.8732
44.9452
48.1732
51.5484
55.0844
58.7798
62.6444
66.6787
70.892
75.2847
79.8663
84.637
89.6065
94.7744
100.151
105.734
111.535
117.552
123.794
130.257
136.954
143.878
151.041
158.436
166.073
173.944
182.059
190.409
199.002
207.829
216.897
226.193
235.724
245.477
255.457
265.647
276.053
286.658
297.463
308.45
319.621
330.953
342.447
354.077
365.842
377.715
389.69
401.741
413.853
425.999
438.15
450.275
462.344
474.321
486.178
497.899
509.507
521.102
532.508
543.769
554.84
565.709
576.348
586.732
596.837
606.636
616.106
625.219
633.951
642.278
650.175
657.619
664.587
671.059
677.015
682.437
687.307
691.612
695.338
698.478
701.025
702.981
704.343
705.113
705.258
704.642
703.474
701.906
699.714
696.891
693.531
689.636
685.23
680.341
674.994
669.219
663.048
656.516
649.664
642.553
635.22
627.706
620.049
612.29
604.469
596.624
588.792
581.014
573.324
565.76
558.354
551.139
544.142
537.392
530.91
524.72
518.837
513.277
508.047
503.16
498.611
494.401
490.523
486.965
483.694
480.719
478.353
479.109
480.781
482.735
484.957
487.389
489.94
492.379
494.577
496.464
497.373
495.897
474.068
1.73271
0.962085
0.854242
0.887185
0.972132
1.08547
1.22033
1.3747
1.54585
1.73374
1.94016
2.16815
2.4217
2.70514
3.0208
3.36855
3.74821
4.16074
4.60774
5.09121
5.61288
6.17437
6.77676
7.42113
8.10812
8.83846
9.61218
10.4286
11.2881
12.1929
13.1434
14.1405
15.1835
16.2728
17.4098
18.5969
19.8361
21.1303
22.4827
23.8971
25.3757
26.9194
28.5234
30.192
31.9256
33.7268
35.5967
37.5377
39.5509
41.6384
43.8016
46.0423
48.3616
50.7616
53.243
55.8078
58.4564
61.1906
64.0107
66.9183
69.9133
72.9971
76.1693
79.4311
82.7816
86.2217
89.7502
93.3675
97.0722
100.864
104.741
108.704
112.748
116.875
121.079
125.361
129.717
134.144
138.639
143.199
147.819
152.497
157.226
162.003
166.822
171.677
176.561
181.47
186.393
191.324
196.252
201.169
206.065
210.931
215.762
220.557
225.327
230.1
234.936
239.733
244.467
249.13
253.713
258.207
262.602
266.888
271.056
275.096
278.998
282.753
286.351
289.782
293.037
296.108
298.986
301.663
304.13
306.382
308.412
310.214
311.785
313.121
314.219
315.076
315.687
316.034
316.1
315.956
315.606
315.007
314.153
313.07
311.763
310.242
308.516
306.595
304.493
302.22
299.792
297.226
294.541
291.751
288.874
285.925
282.92
279.876
276.81
273.737
270.673
267.634
264.635
261.69
258.815
256.021
253.322
250.728
248.25
245.897
243.677
241.595
239.658
237.867
236.227
234.735
233.395
232.2
231.167
230.4
230.39
230.631
231.003
231.508
232.096
232.733
233.356
233.926
234.403
234.903
234.976
233.958
3.35345
1.59496
1.28435
1.23588
1.27716
1.36666
1.49102
1.64573
1.82861
2.03857
2.27506
2.53793
2.82727
3.14329
3.48595
3.85496
4.25023
4.67209
5.12127
5.5987
6.10535
6.64217
7.21001
7.80981
8.44256
9.10957
9.8127
10.5495
11.3172
12.1117
12.9401
13.8061
14.7111
15.6563
16.6432
17.6733
18.748
19.8687
21.0366
22.253
23.5185
24.8339
26.1997
27.618
29.0902
30.6168
32.199
33.838
35.5349
37.291
39.1072
40.9847
42.9244
44.9273
46.9941
49.1259
51.3231
53.5866
55.9168
58.3144
60.7797
63.313
65.9145
68.5843
71.3224
74.1287
77.0028
79.9444
82.9527
86.0273
89.1671
92.3712
95.6382
98.9669
102.356
105.803
109.306
112.863
116.472
120.131
123.835
127.584
131.372
135.196
139.053
142.938
146.848
150.777
154.721
158.674
162.632
166.59
170.542
174.487
178.422
182.347
186.267
190.184
194.096
197.972
201.801
205.576
209.29
212.936
216.505
219.991
223.385
226.68
229.868
232.941
235.891
238.711
241.393
243.93
246.314
248.54
250.6
252.488
254.2
255.731
257.076
258.232
259.197
259.968
260.543
260.898
261.027
261.012
260.797
260.388
259.783
258.993
258.024
256.881
255.573
254.108
252.495
250.744
248.866
246.875
244.783
242.603
240.348
238.03
235.663
233.259
230.831
228.392
225.955
223.533
221.136
218.777
216.466
214.215
212.033
209.929
207.911
205.987
204.162
202.443
200.832
199.335
197.952
196.683
195.532
194.496
193.58
192.827
192.379
192.088
191.9
191.794
191.732
191.691
191.643
191.572
191.483
191.514
191.647
192.288
4.88317
2.21426
1.75016
1.6487
1.66585
1.74736
1.87348
2.03645
2.23277
2.46044
2.71789
3.00362
3.31615
3.65411
4.01631
4.40188
4.8104
5.24191
5.69687
6.17602
6.68026
7.21052
7.76773
8.35272
8.96615
9.60833
10.2789
10.9802
11.715
12.4876
13.2972
14.1438
15.0284
15.952
16.916
17.9216
18.9704
20.0634
21.2006
22.3828
23.6106
24.8842
26.2037
27.5685
28.9834
30.4493
31.9674
33.5388
35.1646
36.8457
38.5831
40.378
42.2313
44.1438
46.1164
48.1499
50.2449
52.402
54.622
56.9053
59.2524
61.6637
64.1395
66.6801
69.2854
71.9557
74.6906
77.49
80.3534
83.2805
86.2705
89.3226
92.4357
95.6089
98.8407
102.13
105.474
108.872
112.321
115.82
119.365
122.954
126.585
130.253
133.955
137.689
141.45
145.234
149.038
152.857
156.687
160.524
164.365
168.207
172.046
175.882
179.711
183.531
187.33
191.095
194.817
198.49
202.105
205.657
209.138
212.539
215.854
219.075
222.195
225.205
228.098
230.866
233.503
236
238.351
240.55
242.589
244.463
246.166
247.694
249.042
250.206
251.185
251.974
252.573
252.965
253.137
253.158
252.983
252.621
252.073
251.344
250.441
249.37
248.136
246.748
245.215
243.546
241.752
239.844
237.834
235.735
233.557
231.314
229.018
226.68
224.314
221.931
219.544
217.163
214.8
212.467
210.172
207.927
205.739
203.619
201.572
199.607
197.729
195.942
194.251
192.659
191.167
189.776
188.483
187.288
186.192
185.213
184.398
183.7
183.083
182.528
181.992
181.468
180.943
180.419
179.917
179.566
179.447
179.923
6.21783
2.82053
2.22075
2.07416
2.07105
2.14469
2.26998
2.43626
2.63846
2.87364
3.13955
3.43414
3.75544
4.10164
4.47126
4.86326
5.27712
5.71284
6.17083
6.65186
7.15686
7.68689
8.24301
8.82632
9.43785
10.0787
10.7499
11.4532
12.1904
12.9628
13.7714
14.6168
15.4999
16.4217
17.383
18.3848
19.4277
20.5124
21.6404
22.8127
24.0304
25.2946
26.6067
27.969
29.3814
30.845
32.3608
33.9299
35.5534
37.2326
38.9686
40.7624
42.6152
44.5283
46.5029
48.5395
50.6388
52.8018
55.0292
57.3217
59.6802
62.1052
64.5972
67.1568
69.7843
72.4799
75.2437
78.0758
80.9761
83.9443
86.9799
90.0824
93.251
96.4848
99.7826
103.143
106.565
110.046
113.585
117.179
120.825
124.523
128.267
132.056
135.886
139.754
143.655
147.587
151.545
155.525
159.523
163.534
167.556
171.582
175.61
179.633
183.647
187.644
191.615
195.553
199.448
203.294
207.082
210.806
214.458
218.029
221.512
224.899
228.181
231.35
234.4
237.32
240.105
242.745
245.234
247.564
249.729
251.722
253.538
255.171
256.615
257.868
258.926
259.786
260.446
260.898
261.12
261.167
261.013
260.663
260.119
259.386
258.469
257.374
256.108
254.678
253.093
251.363
249.499
247.511
245.411
243.212
240.926
238.564
236.141
233.667
231.156
228.619
226.07
223.519
220.979
218.459
215.97
213.523
211.126
208.787
206.514
204.315
202.194
200.157
198.207
196.346
194.576
192.897
191.308
189.805
188.389
187.065
185.85
184.725
183.67
182.67
181.696
180.74
179.796
178.873
178.001
177.295
176.812
176.828
7.37357
3.38987
2.67387
2.48462
2.4626
2.52642
2.6473
2.81195
3.01385
3.24925
3.51546
3.81025
4.13162
4.4778
4.8474
5.23946
5.65349
6.08952
6.54795
7.02953
7.53519
8.06602
8.62318
9.20785
9.82124
10.4646
11.1391
11.8463
12.5873
13.3634
14.1755
15.0247
15.9118
16.838
17.8041
18.8111
19.8601
20.9521
22.0883
23.27
24.4983
25.7745
27.1
28.4762
29.904
31.3848
32.9198
34.5103
36.1575
37.8629
39.6278
41.4534
43.3411
45.2921
47.3073
49.3883
51.5365
53.7532
56.0394
58.3963
60.8249
63.3262
65.9012
68.5505
71.2749
74.075
76.9513
79.904
82.9333
86.0392
89.2216
92.48
95.814
99.2226
102.705
106.26
109.885
113.581
117.343
121.17
125.06
129.01
133.016
137.077
141.187
145.343
149.541
153.777
158.047
162.346
166.669
171.011
175.367
179.732
184.098
188.46
192.81
197.141
201.445
205.713
209.937
214.11
218.222
222.266
226.233
230.114
233.902
237.586
241.158
244.61
247.932
251.116
254.154
257.037
259.757
262.306
264.676
266.861
268.855
270.65
272.243
273.628
274.801
275.759
276.5
277.022
277.296
277.367
277.223
276.865
276.298
275.524
274.55
273.381
272.024
270.487
268.779
266.91
264.89
262.732
260.447
258.048
255.548
252.96
250.296
247.571
244.797
241.987
239.153
236.309
233.465
230.634
227.825
225.05
222.317
219.636
217.013
214.457
211.972
209.564
207.237
204.993
202.833
200.758
198.767
196.858
195.028
193.279
191.616
190.031
188.51
187.04
185.608
184.205
182.83
181.499
180.243
179.16
178.278
177.735
8.96909
4.02194
3.12638
2.87511
2.82644
2.87522
2.98735
3.14613
3.34334
3.57432
3.83602
4.12614
4.44277
4.78436
5.14971
5.538
5.94888
6.38236
6.83885
7.31903
7.8238
8.35421
8.91139
9.49653
10.1108
10.7556
11.432
12.1413
12.8847
13.6634
14.4786
15.3312
16.2225
17.1534
18.1253
19.1391
20.1962
21.2978
22.4451
23.6397
24.8828
26.1759
27.5205
28.9181
30.37
31.8778
33.4431
35.0673
36.7522
38.4993
40.3103
42.1868
44.1305
46.143
48.2259
50.381
52.6099
54.9144
57.2959
59.756
62.2962
64.9178
67.6222
70.4105
73.2838
76.2432
79.2893
82.4229
85.6444
88.9541
92.3521
95.8382
99.4119
103.073
106.82
110.652
114.567
118.564
122.641
126.794
131.023
135.322
139.69
144.122
148.614
153.163
157.763
162.41
167.098
171.823
176.577
181.356
186.153
190.96
195.771
200.578
205.372
210.146
214.889
219.594
224.252
228.854
233.389
237.85
242.227
246.509
250.689
254.754
258.697
262.508
266.176
269.693
273.048
276.233
279.239
282.057
284.68
287.098
289.306
291.296
293.062
294.6
295.905
296.974
297.803
298.392
298.713
298.802
298.655
298.272
297.656
296.813
295.747
294.465
292.974
291.282
289.398
287.333
285.099
282.706
280.169
277.499
274.712
271.819
268.837
265.778
262.656
259.485
256.28
253.052
249.814
246.579
243.357
240.16
236.997
233.878
230.81
227.801
224.858
221.985
219.188
216.468
213.829
211.271
208.794
206.397
204.078
201.836
199.673
197.585
195.562
193.599
191.685
189.818
188
186.248
184.593
183.114
181.814
180.742
11.0157
4.71532
3.5721
3.23706
3.1525
3.18071
3.28018
3.4299
3.61956
3.84345
4.09808
4.38102
4.69048
5.02507
5.3838
5.76601
6.17143
6.60013
7.05248
7.52911
8.03086
8.5587
9.11372
9.69706
10.3099
10.9535
11.6291
12.3379
13.0812
13.8602
14.6762
15.5304
16.424
17.3583
18.3347
19.3545
20.4191
21.5299
22.6886
23.8967
25.1558
26.4677
27.8341
29.2567
30.7373
32.2777
33.8799
35.5457
37.2772
39.0763
40.9451
42.8857
44.9001
46.9906
49.1592
51.4081
53.7395
56.1554
58.6579
61.2491
63.9309
66.7052
69.5738
72.5383
75.6002
78.761
82.0219
85.3838
88.8476
92.4138
96.0828
99.8546
103.729
107.705
111.783
115.96
120.236
124.608
129.074
133.632
138.277
143.008
147.82
152.708
157.668
162.696
167.785
172.929
178.124
183.362
188.636
193.939
199.263
204.599
209.941
215.277
220.6
225.899
231.164
236.386
241.555
246.66
251.692
256.639
261.492
266.239
270.87
275.374
279.741
283.96
288.02
291.91
295.622
299.144
302.466
305.58
308.477
311.148
313.585
315.781
317.729
319.425
320.862
322.037
322.948
323.593
323.947
324.04
323.869
323.436
322.746
321.802
320.611
319.179
317.514
315.624
313.519
311.211
308.71
306.03
303.184
300.186
297.051
293.793
290.426
286.967
283.43
279.83
276.181
272.497
268.791
265.077
261.366
257.67
253.998
250.362
246.77
243.229
239.748
236.331
232.985
229.714
226.519
223.405
220.37
217.417
214.543
211.749
209.036
206.401
203.842
201.354
198.933
196.58
194.3
192.11
190.037
188.147
186.417
184.849
13.0184
5.37265
3.97813
3.55524
3.43148
3.43653
3.52113
3.65992
3.84043
4.05589
4.30224
4.57689
4.87806
5.20448
5.5553
5.92999
6.32836
6.75051
7.19681
7.66784
8.16441
8.68743
9.23793
9.817
10.4258
11.0656
11.7376
12.4432
13.1838
13.9606
14.7751
15.6286
16.5226
17.4586
18.438
19.4625
20.5336
21.6531
22.8228
24.0445
25.3203
26.6523
28.0425
29.493
31.0061
32.5839
34.2287
35.9429
37.729
39.5894
41.5267
43.5434
45.6423
47.8259
50.097
52.4583
54.9124
57.4621
60.1101
62.8588
65.7109
68.6687
71.7346
74.9108
78.1993
81.6019
85.1202
88.7558
92.5096
96.3826
100.375
104.488
108.72
113.072
117.542
122.129
126.831
131.646
136.572
141.605
146.741
151.977
157.308
162.729
168.234
173.817
179.473
185.193
190.971
196.798
202.668
208.57
214.495
220.434
226.377
232.314
238.233
244.123
249.974
255.775
261.513
267.178
272.758
278.241
283.615
288.869
293.991
298.969
303.79
308.445
312.92
317.205
321.288
325.159
328.807
332.223
335.396
338.318
340.98
343.374
345.495
347.334
348.888
350.152
351.123
351.799
352.16
352.231
352.008
351.494
350.694
349.615
348.261
346.639
344.759
342.629
340.259
337.661
334.847
331.831
328.627
325.249
321.714
318.036
314.231
310.316
306.306
302.217
298.064
293.862
289.626
285.369
281.104
276.843
272.597
268.378
264.194
260.055
255.969
251.943
247.982
244.093
240.279
236.545
232.893
229.324
225.841
222.444
219.134
215.913
212.782
209.739
206.786
203.925
201.163
198.517
196.01
193.695
191.53
189.493
14.8732
5.96361
4.33087
3.82316
3.6588
3.64137
3.70994
3.83687
4.0075
4.21394
4.45157
4.71756
5.01004
5.3278
5.67006
6.03639
6.42667
6.841
7.27974
7.7435
8.23307
8.74944
9.29371
9.86643
10.4689
11.1026
11.7688
12.469
13.2048
13.9775
14.7888
15.6402
16.5334
17.47
18.4518
19.4808
20.5586
21.6872
22.8686
24.1045
25.3985
26.7529
28.1702
29.6529
31.2036
32.8251
34.52
36.2913
38.1419
40.075
42.0936
44.201
46.4003
48.6949
51.0881
53.5833
56.1838
58.893
61.7141
64.6505
67.7052
70.8812
74.1816
77.609
81.166
84.8548
88.6776
92.636
96.7316
100.965
105.338
109.85
114.501
119.291
124.218
129.281
134.478
139.806
145.261
150.841
156.54
162.355
168.278
174.305
180.428
186.64
192.934
199.302
205.733
212.22
218.752
225.318
231.909
238.512
245.116
251.709
258.279
264.812
271.297
277.721
284.07
290.332
296.493
302.541
308.463
314.245
319.875
325.339
330.625
335.72
340.611
345.287
349.736
353.947
357.907
361.608
365.038
368.188
371.05
373.615
375.877
377.829
379.466
380.783
381.778
382.446
382.777
382.786
382.47
381.833
380.881
379.622
378.061
376.206
374.066
371.65
368.969
366.035
362.862
359.463
355.854
352.05
348.066
343.92
339.628
335.206
330.673
326.044
321.335
316.563
311.743
306.89
302.017
297.137
292.262
287.405
282.575
277.782
273.036
268.344
263.715
259.154
254.668
250.263
245.942
241.711
237.571
233.527
229.583
225.741
222.007
218.382
214.872
211.482
208.22
205.102
202.147
199.396
196.796
194.313
16.5251
6.47552
4.62551
4.03909
3.83548
3.79626
3.84914
3.96411
4.1247
4.32202
4.55092
4.80826
5.09208
5.40114
5.73466
6.0923
6.474
6.87998
7.31018
7.76537
8.24654
8.75484
9.29174
9.85757
10.4536
11.081
11.7414
12.4363
13.1673
13.936
14.7442
15.5936
16.4861
17.4236
18.4083
19.4422
20.5276
21.6667
22.8619
24.1149
25.4314
26.8136
28.2643
29.7867
31.3839
33.0593
34.8161
36.6578
38.588
40.6104
42.7289
44.9473
47.2696
49.6998
52.2419
54.9001
57.6784
60.5809
63.6115
66.7743
70.0731
73.5115
77.0929
80.8208
84.6981
88.7275
92.9115
97.2522
101.751
106.409
111.228
116.207
121.346
126.645
132.101
137.713
143.479
149.394
155.455
161.656
167.994
174.461
181.051
187.757
194.569
201.481
208.482
215.562
222.711
229.918
237.171
244.458
251.766
259.082
266.392
273.683
280.941
288.151
295.299
302.371
309.351
316.226
322.98
329.601
336.072
342.38
348.51
354.449
360.183
365.699
370.983
376.022
380.805
385.32
389.555
393.498
397.141
400.474
403.487
406.173
408.525
410.537
412.203
413.52
414.483
415.09
415.337
415.23
414.766
413.95
412.794
411.303
409.483
407.343
404.893
402.142
399.102
395.785
392.205
388.378
384.318
380.041
375.565
370.906
366.082
361.111
356.009
350.796
345.488
340.102
334.654
329.161
323.635
318.092
312.545
307.005
301.484
295.994
290.544
285.144
279.803
274.529
269.329
264.212
259.183
254.25
249.418
244.693
240.082
235.592
231.228
227
222.913
218.976
215.199
211.595
208.181
204.989
201.955
199.048
17.9396
6.90274
4.86193
4.20522
3.96558
3.90571
3.94358
4.0469
4.19765
4.38607
4.60649
4.85553
5.13109
5.43192
5.75688
6.10581
6.47895
6.87696
7.29953
7.74732
8.22109
8.72176
9.25014
9.80705
10.3944
11.0138
11.6668
12.3553
13.0811
13.8459
14.652
15.5014
16.3963
17.3388
18.3315
19.3769
20.4781
21.6371
22.8566
24.1369
25.4855
26.9058
28.4017
29.9771
31.6366
33.3836
35.222
37.156
39.1899
41.3281
43.5754
45.9363
48.4156
51.0182
53.7489
56.6126
59.6141
62.7583
66.05
69.4937
73.0939
76.855
80.7808
84.8752
89.1415
93.5829
98.2018
103
107.98
113.143
118.489
124.017
129.728
135.619
141.689
147.935
154.352
160.938
167.686
174.59
181.645
188.842
196.173
203.629
211.2
218.876
226.646
234.497
242.417
250.394
258.413
266.46
274.521
282.58
290.623
298.632
306.593
314.49
322.305
330.024
337.629
345.106
352.437
359.607
366.6
373.402
379.996
386.368
392.505
398.39
404.013
409.358
414.413
419.168
423.609
427.727
431.511
434.952
438.042
440.774
443.14
445.135
446.755
447.996
448.854
449.328
449.416
449.127
448.441
447.382
445.957
444.172
442.034
439.551
436.734
433.594
430.143
426.392
422.358
418.055
413.499
408.707
403.696
398.484
393.089
387.529
381.822
375.988
370.044
364.008
357.898
351.729
345.517
339.277
333.023
326.768
320.524
314.304
308.118
301.979
295.895
289.877
283.934
278.075
272.311
266.649
261.099
255.669
250.368
245.207
240.197
235.347
230.668
226.172
221.868
217.771
213.891
210.256
206.796
203.487
19.0991
7.24418
5.04254
4.32552
4.05412
3.97533
3.99932
4.0917
4.2332
4.41341
4.62589
4.86715
5.13518
5.42899
5.74715
6.08928
6.45521
6.84476
7.25826
7.69694
8.16184
8.65409
9.17502
9.72598
10.3084
10.9239
11.5742
12.2614
12.9875
13.7548
14.5658
15.4233
16.3292
17.2859
18.2964
19.3636
20.4899
21.6772
22.9308
24.2555
25.6561
27.137
28.7027
30.3578
32.1073
33.9567
35.9104
37.9733
40.1506
42.4478
44.8704
47.424
50.1143
52.9468
55.9274
59.0617
62.3553
65.8139
69.4428
73.2472
77.2323
81.4026
85.7624
90.3159
95.0664
100.017
105.17
110.528
116.091
121.86
127.836
134.017
140.401
146.986
153.769
160.746
167.911
175.26
182.784
190.476
198.328
206.331
214.474
222.747
231.137
239.632
248.218
256.882
265.609
274.384
283.192
292.015
300.838
309.643
318.412
327.13
335.776
344.335
352.787
361.116
369.303
377.331
385.184
392.844
400.294
407.518
414.501
421.227
427.681
433.849
439.718
445.275
450.506
455.401
459.948
464.137
467.959
471.406
474.469
477.142
479.419
481.297
482.771
483.839
484.499
484.748
484.593
484.022
483.035
481.656
479.887
477.736
475.211
472.321
469.076
465.488
461.569
457.334
452.795
447.97
442.875
437.527
431.943
426.141
420.14
413.958
407.615
401.13
394.523
387.81
381.011
374.143
367.221
360.261
353.278
346.286
339.298
332.327
325.386
318.487
311.642
304.861
298.157
291.541
285.024
278.618
272.334
266.184
260.181
254.339
248.671
243.191
237.913
232.85
228.016
223.422
219.076
215.003
211.127
207.44
19.996
7.50089
5.17067
4.40456
4.10655
4.01133
4.0233
4.10587
4.23911
4.41236
4.61883
4.85445
5.11662
5.40357
5.71441
6.04928
6.40833
6.79207
7.20081
7.63535
8.09674
8.5863
9.10552
9.65612
10.2402
10.8589
11.5145
12.2091
12.9455
13.7261
14.5537
15.4305
16.358
17.3406
18.3823
19.4871
20.6592
21.903
23.223
24.6246
26.1128
27.693
29.3707
31.1517
33.0422
35.0477
37.1743
39.4281
41.8157
44.3436
47.0185
49.847
52.8354
55.9905
59.3185
62.826
66.5191
70.404
74.4865
78.7721
83.266
87.9728
92.8969
98.0418
103.411
109.006
114.829
120.88
127.161
133.671
140.407
147.368
154.551
161.95
169.561
177.379
185.395
193.603
201.993
210.555
219.279
228.154
237.166
246.303
255.551
264.895
274.319
283.807
293.343
302.909
312.489
322.063
331.613
341.12
350.566
359.931
369.196
378.341
387.349
396.199
404.873
413.353
421.621
429.658
437.448
444.975
452.221
459.172
465.813
472.13
478.11
483.74
489.008
493.904
498.418
502.539
506.26
509.574
512.475
514.956
517.015
518.646
519.85
520.626
520.972
520.889
520.378
519.417
518.039
516.248
514.051
511.455
508.467
505.098
501.359
497.263
492.82
488.046
482.955
477.564
471.889
465.947
459.756
453.333
446.699
439.871
432.869
425.712
418.422
411.015
403.512
395.929
388.284
380.593
372.87
365.131
357.39
349.66
341.956
334.291
326.677
319.128
311.658
304.278
297.004
289.85
282.829
275.958
269.251
262.726
256.399
250.289
244.413
238.788
233.426
228.34
223.537
219.036
214.762
210.726
20.6229
7.67129
5.24856
4.44649
4.12828
4.02008
4.02289
4.09867
4.22619
4.39369
4.59438
4.82475
5.08255
5.36643
5.67542
6.00933
6.36848
6.75291
7.16329
7.6007
8.06645
8.5621
9.08936
9.65006
10.2459
10.8781
11.5499
12.2645
13.0249
13.8344
14.6965
15.6151
16.5939
17.6371
18.7492
19.9352
21.2004
22.5503
23.9907
25.5276
27.1673
28.9164
30.7815
32.7696
34.8881
37.1435
39.5434
42.0957
44.8083
47.6895
50.7472
53.9887
57.4211
61.0512
64.8859
68.932
73.1956
77.6829
82.3994
87.3502
92.5397
97.9717
103.649
109.575
115.75
122.176
128.851
135.776
142.948
150.364
158.02
165.912
174.034
182.38
190.941
199.709
208.674
217.827
227.155
236.647
246.29
256.069
265.97
275.977
286.075
296.247
306.474
316.74
327.026
337.313
347.582
357.813
367.986
378.082
388.081
397.961
407.704
417.29
426.698
435.909
444.903
453.663
462.17
470.406
478.354
485.997
493.32
500.307
506.945
513.22
519.122
524.637
529.756
534.468
538.765
542.638
546.082
549.091
551.66
553.787
555.467
556.7
557.485
557.83
557.727
557.183
556.17
554.723
552.847
550.547
547.829
544.702
541.173
537.253
532.953
528.287
523.266
517.904
512.216
506.219
499.929
493.364
486.539
479.474
472.187
464.696
457.022
449.184
441.202
433.095
424.883
416.583
408.214
399.791
391.331
382.847
374.356
365.872
357.409
348.983
340.608
332.298
324.067
315.933
307.91
300.016
292.268
284.683
277.282
270.085
263.112
256.384
249.922
243.746
237.872
232.31
227.066
222.16
217.511
213.163
21.0727
7.78577
5.29094
4.46092
4.12791
4.01132
4.00761
4.07752
4.20122
4.36748
4.56897
4.80143
5.06249
5.35078
5.66557
6.00659
6.37374
6.76713
7.18832
7.63885
8.12044
8.63512
9.18515
9.77307
10.4018
11.0743
11.7939
12.5642
13.3895
14.274
15.2225
16.2401
17.332
18.5039
19.7616
21.1117
22.561
24.1165
25.7858
27.5767
29.4971
31.555
33.7585
36.1157
38.6339
41.3223
44.1902
47.2473
50.5033
53.9698
57.6558
61.5677
65.7116
70.0938
74.7201
79.5961
84.7269
90.117
95.7699
101.689
107.875
114.33
121.055
128.047
135.307
142.83
150.613
158.653
166.942
175.476
184.246
193.244
202.462
211.889
221.516
231.329
241.318
251.468
261.767
272.199
282.75
293.402
304.141
314.949
325.808
336.701
347.608
358.511
369.39
380.226
390.999
401.689
412.277
422.741
433.061
443.219
453.193
462.965
472.514
481.822
490.869
499.637
508.11
516.269
524.099
531.584
538.708
545.458
551.821
557.787
563.345
568.486
573.199
577.476
581.312
584.7
587.634
590.113
592.134
593.695
594.797
595.437
595.616
595.361
594.632
593.442
591.808
589.737
587.234
584.304
580.956
577.197
573.035
568.478
563.542
558.236
552.572
546.566
540.231
533.583
526.64
519.416
511.929
504.197
496.236
488.065
479.704
471.173
462.492
453.679
444.755
435.737
426.644
417.491
408.296
399.073
389.838
380.606
371.394
362.216
353.089
344.028
335.05
326.173
317.416
308.797
300.336
292.055
283.978
276.129
268.53
261.205
254.18
247.478
241.103
235.077
229.406
224.113
219.112
214.492
21.3029
7.81978
5.29061
4.45156
4.11378
3.99331
3.99089
4.06544
4.19553
4.36935
4.57903
4.82141
5.09446
5.39711
5.72903
6.0905
6.48241
6.90588
7.36258
7.85467
8.38472
8.9557
9.57096
10.2343
10.9499
11.7224
12.5566
13.4579
14.4321
15.4855
16.6249
17.8576
19.1911
20.6335
22.1934
23.8797
25.7019
27.6695
29.7926
32.081
34.5448
37.194
40.0385
43.0879
46.3512
49.8382
53.5588
57.5222
61.7378
66.2144
70.9654
75.9933
81.3005
86.889
92.7608
98.9172
105.359
112.085
119.095
126.385
133.953
141.795
149.905
158.277
166.904
175.779
184.893
194.236
203.799
213.572
223.544
233.703
244.036
254.533
265.179
275.96
286.864
297.875
308.978
320.158
331.399
342.684
353.996
365.32
376.637
387.93
399.18
410.369
421.478
432.489
443.384
454.142
464.746
475.176
485.413
495.44
505.237
514.786
524.07
533.07
541.77
550.151
558.199
565.898
573.234
580.191
586.757
592.919
598.666
603.991
608.886
613.342
617.352
620.909
624.011
626.653
628.828
630.544
631.794
632.581
632.907
632.77
632.19
631.124
629.624
627.683
625.306
622.5
619.272
615.629
611.576
607.121
602.271
597.035
591.425
585.451
579.125
572.46
565.471
558.172
550.58
542.708
534.574
526.192
517.579
508.755
499.736
490.543
481.195
471.712
462.112
452.414
442.636
432.794
422.905
412.984
403.046
393.108
383.187
373.299
363.462
353.691
344.007
334.432
324.983
315.681
306.551
297.617
288.904
280.429
272.228
264.33
256.769
249.57
242.772
236.364
230.348
224.747
219.469
214.652
21.3526
7.79837
5.26582
4.42799
4.09737
3.9881
3.99745
4.08469
4.22992
4.42215
4.65516
4.92542
5.23126
5.57223
5.94879
6.36216
6.81432
7.30767
7.84526
8.43078
9.06849
9.76325
10.5205
11.3463
12.2472
13.2308
14.305
15.4782
16.7596
18.1591
19.6873
21.3552
23.1746
25.1574
27.3157
29.6621
32.2092
34.9697
37.9557
41.1789
44.6504
48.381
52.3808
56.6582
61.2206
66.0751
71.2289
76.6871
82.454
88.5356
94.9347
101.65
108.672
115.994
123.609
131.51
139.69
148.14
156.85
165.811
175.012
184.443
194.092
203.947
213.997
224.23
234.634
245.195
255.902
266.743
277.704
288.775
299.941
311.19
322.51
333.887
345.307
356.759
368.227
379.697
391.156
402.589
413.98
425.316
436.58
447.758
458.833
469.789
480.611
491.281
501.783