/*--------------------------------*- C++ -*----------------------------------*\
| =========                 |                                                 |
| \\      /  F ield         | OpenFOAM: The Open Source CFD Toolbox           |
|  \\    /   O peration     | Version:  2312                                  |
|   \\  /    A nd           | Website:  www.openfoam.com                      |
|    \\/     M anipulation  |                                                 |
\*---------------------------------------------------------------------------*/
FoamFile
{
    version     2.0;
    format      ascii;
    arch        "LSB;label=32;scalar=64";
    class       volScalarField;
    location    "200";
    object      nut;
}
// * * * * * * * * * * * * * * * * * * * * * * * * * * * * * * * * * * * * * //

dimensions      [0 2 -1 0 0 0 0];

internalField   nonuniform List<scalar> 
12225
(
2.70743e-05
3.55746e-05
4.0523e-05
4.31923e-05
4.44515e-05
4.49642e-05
4.49108e-05
4.48716e-05
4.45032e-05
4.41848e-05
4.38515e-05
4.35233e-05
4.32275e-05
4.29456e-05
4.27124e-05
4.24747e-05
4.23163e-05
4.20883e-05
0.000212993
8.46414e-05
5.59082e-05
4.40573e-05
3.83761e-05
3.53558e-05
3.38462e-05
3.30828e-05
3.28588e-05
3.28676e-05
3.32216e-05
3.35953e-05
3.42373e-05
3.47889e-05
3.55943e-05
3.62168e-05
3.71383e-05
3.76483e-05
0.000656975
0.000306545
0.000194002
0.000142115
0.00011322
9.45009e-05
8.2023e-05
7.33167e-05
6.68027e-05
6.19618e-05
5.80448e-05
5.51117e-05
5.25362e-05
5.07144e-05
4.88941e-05
4.78622e-05
4.63272e-05
4.5393e-05
0.000862999
0.000609449
0.000451595
0.000350881
0.00028928
0.000246514
0.000216673
0.000194306
0.000177761
0.000164297
0.000154048
0.00014507
0.000138203
0.00013173
0.000126898
0.000121886
0.000118155
0.000113788
0.000877433
0.000776402
0.00069083
0.000591969
0.000517301
0.000458111
0.000413471
0.00037724
0.000349672
0.000325973
0.000307904
0.000291309
0.000278929
0.0002666
0.000257908
0.000248183
0.000242299
0.000233331
0.000858412
0.00083529
0.000807272
0.000753115
0.000699375
0.000648257
0.00060483
0.00056587
0.000534208
0.000505366
0.000482499
0.00046073
0.000444093
0.000427091
0.000414986
0.000401108
0.000392714
0.000379967
0.000854258
0.000849542
0.00084071
0.000823039
0.000798596
0.000768469
0.00073918
0.000709554
0.00068336
0.000657727
0.000636212
0.000614802
0.000597714
0.000579797
0.000566544
0.000551215
0.000541476
0.000526814
0.000852389
0.000851592
0.000849792
0.000844527
0.000835946
0.00082452
0.000810177
0.000793465
0.000777244
0.000760015
0.000744564
0.000728292
0.000714574
0.000699773
0.000688175
0.000674779
0.000665559
0.000652166
0.000851903
0.00085148
0.000851079
0.000849881
0.000847545
0.000843617
0.000838592
0.000831272
0.000823647
0.000814991
0.0008063
0.000796552
0.000787799
0.000778073
0.000769848
0.000760494
0.000753271
0.000743479
0.000851815
0.000851374
0.000851074
0.000850609
0.000850035
0.000848809
0.000847331
0.000844858
0.000841998
0.000838304
0.000834503
0.000829863
0.000825424
0.000820274
0.000815571
0.000810272
0.000805604
0.000799747
0.000851799
0.000851357
0.000851021
0.000850624
0.000850325
0.000849824
0.000849338
0.000848518
0.000847605
0.000846261
0.000844873
0.000843009
0.000841201
0.000838883
0.000836819
0.000834105
0.000832046
0.000828846
0.000851792
0.000851359
0.000851001
0.000850611
0.000850306
0.000849938
0.000849631
0.00084921
0.000848815
0.000848234
0.000847676
0.000846876
0.000846139
0.000845093
0.000844214
0.000842917
0.000841977
0.000840426
0.000851787
0.000851362
0.000850989
0.000850608
0.00085028
0.000849936
0.000849645
0.000849319
0.000849041
0.000848698
0.000848399
0.000848002
0.00084766
0.00084718
0.000846787
0.000846212
0.000845772
0.000845102
0.000851783
0.000851364
0.00085098
0.000850605
0.000850263
0.000849926
0.000849622
0.000849316
0.000849043
0.000848759
0.000848507
0.000848233
0.000847991
0.000847715
0.000847473
0.000847186
0.000846937
0.000846636
0.000851781
0.000851364
0.000850974
0.0008506
0.000850251
0.000849916
0.000849603
0.0008493
0.000849018
0.000848744
0.000848489
0.000848238
0.000848005
0.000847773
0.000847557
0.000847341
0.000847137
0.000846933
0.00085178
0.000851363
0.00085097
0.000850596
0.000850243
0.000849907
0.000849589
0.000849286
0.000848999
0.000848724
0.000848464
0.000848214
0.000847977
0.000847749
0.000847532
0.000847323
0.000847124
0.000846932
0.000851779
0.000851362
0.000850967
0.000850592
0.000850236
0.000849899
0.000849579
0.000849274
0.000848984
0.000848707
0.000848444
0.000848192
0.000847952
0.000847722
0.000847503
0.000847292
0.000847091
0.000846898
0.000851779
0.000851362
0.000850966
0.00085059
0.000850233
0.000849894
0.000849572
0.000849266
0.000848974
0.000848696
0.00084843
0.000848177
0.000847935
0.000847703
0.000847482
0.00084727
0.000847066
0.000846872
0.000851779
0.000851362
0.000850965
0.000850589
0.000850232
0.000849892
0.00084957
0.000849263
0.00084897
0.000848691
0.000848425
0.00084817
0.000847927
0.000847694
0.000847472
0.000847258
0.000847054
0.000846859
0.000851779
0.000851363
0.000850966
0.000850591
0.000850234
0.000849895
0.000849573
0.000849266
0.000848974
0.000848695
0.000848428
0.000848174
0.00084793
0.000847697
0.000847473
0.000847259
0.000847052
0.000846855
0.000851779
0.000851364
0.000850968
0.000850595
0.000850238
0.000849902
0.000849579
0.000849274
0.000848979
0.0008487
0.000848427
0.000848168
0.000847911
0.000847667
0.00084742
0.000847187
0.000846947
0.000846723
0.000851778
0.000851368
0.000850969
0.000850603
0.000850243
0.000849911
0.000849573
0.000849254
0.000848916
0.000848587
0.000848223
0.000847865
0.000847456
0.00084706
0.000846596
0.00084616
0.000845637
0.00084517
0.000851779
0.000851382
0.000850972
0.000850624
0.000850209
0.000849789
0.000849234
0.000848616
0.000847803
0.000846896
0.000845768
0.00084456
0.000843125
0.000841663
0.000839958
0.000838331
0.000836384
0.000834696
0.000851855
0.000851468
0.000850931
0.000850395
0.000849126
0.000847458
0.000844947
0.00084194
0.000838072
0.000833847
0.000828959
0.000823928
0.000818451
0.000812995
0.000807274
0.000801722
0.000795836
0.000790767
0.000852785
0.000851382
0.000849188
0.000845095
0.000836885
0.000827817
0.000815748
0.000802822
0.000788372
0.000774367
0.00075966
0.000746074
0.000732114
0.000719677
0.000706812
0.000695833
0.000684076
0.000674682
0.000858211
0.000842301
0.000828961
0.000803013
0.000769258
0.000735474
0.000700802
0.000669703
0.000639496
0.000613589
0.000588608
0.000567739
0.000547308
0.000530649
0.000513855
0.000500597
0.000486553
0.00047605
0.000864338
0.000785615
0.000712709
0.000628298
0.000558282
0.000503081
0.000455745
0.000418865
0.000386621
0.000361589
0.000338759
0.000321221
0.000304408
0.000291763
0.000278902
0.000269538
0.000259357
0.00025229
0.000775957
0.000540064
0.00039794
0.000312963
0.000258156
0.000219633
0.000190504
0.000169563
0.00015255
0.00013999
0.000129092
0.000121014
0.000113524
0.000108072
0.000102629
9.88067e-05
9.46825e-05
9.19092e-05
0.000323582
0.000164841
0.000111417
8.60758e-05
7.08264e-05
6.13545e-05
5.50182e-05
5.08855e-05
4.79531e-05
4.60097e-05
4.45905e-05
4.36882e-05
4.30395e-05
4.26951e-05
4.24555e-05
4.24397e-05
4.24365e-05
4.26233e-05
3.26574e-05
3.90519e-05
4.3892e-05
4.69716e-05
4.93654e-05
5.11698e-05
5.25343e-05
5.34594e-05
5.4114e-05
5.44632e-05
5.46905e-05
5.46971e-05
5.4654e-05
5.45496e-05
5.43767e-05
5.41693e-05
5.39442e-05
5.37075e-05
3.86173e-06
1.0559e-05
1.25399e-05
1.40367e-05
1.51424e-05
1.59591e-05
1.65971e-05
1.716e-05
1.76542e-05
1.81083e-05
1.8549e-05
1.89984e-05
1.94808e-05
2.00389e-05
2.07015e-05
2.14325e-05
2.21983e-05
2.29885e-05
2.38023e-05
2.46428e-05
2.5512e-05
2.64118e-05
2.73414e-05
2.83001e-05
2.92853e-05
3.0296e-05
3.13307e-05
3.2384e-05
3.34461e-05
3.4515e-05
3.55869e-05
3.66612e-05
3.77353e-05
3.8809e-05
3.98802e-05
4.09494e-05
4.20152e-05
4.30797e-05
4.41447e-05
4.52152e-05
4.62959e-05
4.73955e-05
4.85094e-05
4.96159e-05
5.07215e-05
5.18258e-05
5.29283e-05
5.40304e-05
5.51311e-05
5.62318e-05
5.73314e-05
5.84312e-05
5.95301e-05
6.06292e-05
6.17276e-05
6.28261e-05
6.39236e-05
6.50211e-05
6.61174e-05
6.72133e-05
6.83075e-05
6.94009e-05
7.0492e-05
7.15817e-05
7.26685e-05
7.37532e-05
7.48341e-05
7.59121e-05
7.69854e-05
7.80549e-05
7.91188e-05
8.01778e-05
8.12302e-05
8.22767e-05
8.33154e-05
8.4347e-05
8.53698e-05
8.63843e-05
8.73887e-05
8.83837e-05
8.93675e-05
9.03405e-05
9.13011e-05
9.22496e-05
9.31842e-05
9.41054e-05
9.50113e-05
9.59023e-05
9.67766e-05
9.7634e-05
9.84732e-05
9.92929e-05
0.000100092
0.000100868
0.000101621
0.000102349
0.000103051
0.000103727
0.000104382
0.00010502
0.000105632
0.000106221
0.000106786
0.000107325
0.000107839
0.000108327
0.000108788
0.000109221
0.000109626
0.000110002
0.000110349
0.000110666
0.000110952
0.000111206
0.000111429
0.000111619
0.000111776
0.0001119
0.00011199
0.000112046
0.000112068
0.000112055
0.000112007
0.000111925
0.000111809
0.000111657
0.000111464
0.00011123
0.000110973
0.000110691
0.000110362
0.000110002
0.000109608
0.000109182
0.000108724
0.000108235
0.000107716
0.000107168
0.000106592
0.000105989
0.000105363
0.000104714
0.000104046
0.00010336
0.000102657
0.000101941
0.000101213
0.000100476
9.97321e-05
9.89829e-05
9.82303e-05
9.74767e-05
9.67246e-05
9.59767e-05
9.5235e-05
9.45023e-05
9.37806e-05
9.30726e-05
9.23801e-05
9.17057e-05
9.1051e-05
9.04174e-05
8.98078e-05
8.92246e-05
8.86675e-05
8.81409e-05
8.76763e-05
8.76369e-05
8.75699e-05
8.73343e-05
8.71462e-05
8.69885e-05
8.68555e-05
8.67452e-05
8.66814e-05
8.66371e-05
8.65612e-05
8.64349e-05
8.61709e-05
8.48777e-05
6.08632e-06
2.93655e-05
6.27086e-05
8.85596e-05
0.000105902
0.000116915
0.000123453
0.000127181
0.000129824
0.000132219
0.000134669
0.00013719
0.000139666
0.000141953
0.000144036
0.000146027
0.000148015
0.000150066
0.000152235
0.000154577
0.000157146
0.000159983
0.000163121
0.000166579
0.000170366
0.000174484
0.000178935
0.00018373
0.000188846
0.000194235
0.000199872
0.000205748
0.000211872
0.000218246
0.000224847
0.000231661
0.000238644
0.000245724
0.000252877
0.00026008
0.00026732
0.0002746
0.000281957
0.000289371
0.000296856
0.00030441
0.000312038
0.000319739
0.000327518
0.000335375
0.000343313
0.000351334
0.000359441
0.000367636
0.000375922
0.0003843
0.000392774
0.000401345
0.000410015
0.000418785
0.000427656
0.00043663
0.000445708
0.000454889
0.000464175
0.000473563
0.000483056
0.000492649
0.000502344
0.000512138
0.00052203
0.000532017
0.000542097
0.000552267
0.000562524
0.000572864
0.000583284
0.000593779
0.000604346
0.00061498
0.000625679
0.000636436
0.000647248
0.00065811
0.000669018
0.000679966
0.000690952
0.00070197
0.000713018
0.000724092
0.000735188
0.000746296
0.000757405
0.000768491
0.00077952
0.000790426
0.000801095
0.00081134
0.000820847
0.000830144
0.000839333
0.000848407
0.000857355
0.000866169
0.000874838
0.000883353
0.000891701
0.000899872
0.000907852
0.000915631
0.000923196
0.000930535
0.000937634
0.000944481
0.000951064
0.00095737
0.000963386
0.000969101
0.000974503
0.00097958
0.000984323
0.000988723
0.000992774
0.000996478
0.000999855
0.00100298
0.00100556
0.0010075
0.00100923
0.00101086
0.00101195
0.00101264
0.00101296
0.00101289
0.00101246
0.00101167
0.00101052
0.00100904
0.00100722
0.0010051
0.00100267
0.000999967
0.000996998
0.000993788
0.000990358
0.000986729
0.000982925
0.000978969
0.000974886
0.000970701
0.000966437
0.000962122
0.000957782
0.000953443
0.000949129
0.00094487
0.000940689
0.000936611
0.00093266
0.000928859
0.000925227
0.00092178
0.000918534
0.000915501
0.000912679
0.00091007
0.000907642
0.000905267
0.000900907
0.000896401
0.000892067
0.000887741
0.000883423
0.000879013
0.000874536
0.000869887
0.00086479
0.000858682
0.000850017
0.000826564
7.596e-06
4.65325e-05
9.98647e-05
0.000144447
0.000177966
0.000202173
0.000219296
0.000231351
0.000240106
0.000246884
0.00025256
0.000257651
0.000262444
0.000267099
0.000271742
0.00027649
0.000281442
0.000286677
0.000292266
0.000298272
0.000304749
0.000311744
0.000319287
0.000327393
0.000336059
0.000345264
0.000354961
0.000365248
0.000376213
0.000387955
0.000400209
0.000412857
0.000425862
0.000439187
0.000452793
0.000466643
0.000480698
0.000494931
0.000509323
0.000523864
0.000538547
0.000553376
0.000568352
0.000583458
0.000598694
0.000614076
0.000629608
0.000645293
0.000661134
0.000677134
0.000693298
0.000709628
0.000726128
0.000742801
0.000759652
0.000776683
0.000793898
0.000811298
0.000828885
0.00084666
0.000864623
0.000882775
0.000901114
0.00091964
0.00093835
0.000957243
0.000976316
0.000995564
0.00101498
0.00103457
0.00105432
0.00107422
0.00109428
0.00111447
0.0011348
0.00115526
0.00117584
0.00119652
0.00121731
0.00123819
0.00125915
0.00128018
0.00130128
0.00132243
0.00134361
0.00136483
0.00138606
0.0014073
0.00142853
0.00144974
0.00147091
0.00149201
0.00151301
0.00153387
0.00155454
0.00157492
0.00159494
0.00161451
0.0016336
0.00165244
0.00167105
0.00168941
0.00170751
0.00172532
0.00174283
0.00176001
0.00177683
0.00179328
0.00180934
0.00182497
0.00184016
0.00185488
0.0018691
0.0018828
0.00189596
0.00190855
0.00192054
0.00193192
0.00194265
0.00195273
0.00196212
0.00197081
0.0019788
0.00198606
0.00199259
0.00199857
0.00200397
0.0020078
0.00201098
0.00201392
0.0020159
0.00201708
0.00201747
0.0020171
0.00201597
0.00201411
0.00201152
0.00200824
0.00200429
0.0019997
0.0019945
0.00198873
0.00198242
0.00197562
0.00196836
0.00196071
0.00195269
0.00194436
0.00193576
0.00192696
0.00191799
0.00190891
0.00189977
0.00189063
0.00188153
0.00187253
0.00186367
0.00185501
0.00184658
0.00183843
0.00183059
0.00182309
0.00181596
0.0018092
0.00180282
0.0017968
0.00179105
0.00178521
0.0017779
0.00177039
0.00176287
0.00175532
0.00174773
0.00173997
0.00173198
0.00172359
0.0017144
0.0017033
0.00168676
0.00164788
8.61561e-06
6.2861e-05
0.000131955
0.000189659
0.000234435
0.000267901
0.000292584
0.000310802
0.000324516
0.000335285
0.000344273
0.000352299
0.00035991
0.000367462
0.000375191
0.000383255
0.000391767
0.000400812
0.000410456
0.000420753
0.000431747
0.00044347
0.000455945
0.000469183
0.000483192
0.000497981
0.000513574
0.000529844
0.000546649
0.000563817
0.00058141
0.000599441
0.000617879
0.000636683
0.000655813
0.000675226
0.00069488
0.000714752
0.00073486
0.000755203
0.000775781
0.000796606
0.000817702
0.000839119
0.000860735
0.000882557
0.000904591
0.000926841
0.000949309
0.000972001
0.00099492
0.00101807
0.00104145
0.00106508
0.00108894
0.00111305
0.00113741
0.00116202
0.00118688
0.001212
0.00123737
0.00126298
0.00128885
0.00131496
0.00134131
0.0013679
0.00139472
0.00142176
0.00144902
0.00147649
0.00150416
0.00153202
0.00156006
0.00158827
0.00161664
0.00164516
0.00167381
0.00170259
0.00173147
0.00176044
0.00178949
0.00181861
0.00184777
0.00187697
0.00190618
0.00193538
0.00196457
0.00199371
0.00202279
0.00205178
0.00208066
0.00210939
0.00213794
0.00216625
0.00219428
0.00222197
0.00224926
0.00227609
0.00230254
0.00232866
0.00235445
0.0023799
0.00240497
0.00242964
0.00245388
0.00247766
0.00250096
0.00252373
0.00254596
0.00256761
0.00258865
0.00260905
0.00262877
0.00264778
0.00266605
0.00268355
0.00270024
0.00271608
0.00273106
0.00274514
0.0027583
0.0027705
0.00278173
0.00279198
0.00280122
0.00280961
0.0028173
0.00282319
0.00282783
0.00283201
0.00283499
0.00283685
0.00283762
0.00283731
0.00283594
0.00283354
0.00283012
0.00282573
0.00282038
0.00281413
0.00280701
0.00279908
0.00279037
0.00278096
0.0027709
0.00276025
0.00274906
0.00273742
0.00272539
0.00271303
0.00270041
0.00268762
0.00267472
0.00266178
0.00264889
0.00263609
0.00262348
0.0026111
0.00259903
0.00258732
0.00257602
0.00256517
0.00255481
0.00254494
0.00253558
0.00252669
0.0025182
0.00250977
0.00250066
0.00249138
0.00248206
0.00247268
0.00246346
0.0024541
0.00244448
0.00243436
0.0024233
0.00241
0.00239004
0.00234867
9.3404e-06
7.68748e-05
0.000159726
0.000228576
0.000282844
0.000324314
0.000355718
0.0003796
0.000398098
0.00041295
0.000425506
0.000436774
0.000447471
0.000458089
0.000468955
0.000480284
0.000492216
0.000504843
0.000518227
0.000532411
0.00054742
0.000563267
0.000579954
0.000597471
0.000615796
0.000634896
0.000654724
0.000675202
0.000696252
0.000717811
0.000739859
0.000762375
0.000785327
0.000808684
0.000832416
0.000856503
0.000880937
0.000905702
0.000930758
0.000956089
0.000981686
0.00100754
0.00103363
0.00105992
0.00108645
0.00111324
0.0011403
0.00116763
0.00119522
0.0012231
0.00125126
0.0012797
0.00130842
0.00133742
0.0013667
0.00139627
0.00142614
0.00145631
0.00148678
0.00151755
0.0015486
0.00157995
0.00161158
0.00164349
0.00167567
0.00170812
0.00174082
0.00177378
0.00180696
0.00184038
0.00187401
0.00190784
0.00194186
0.00197605
0.0020104
0.0020449
0.00207952
0.00211425
0.00214907
0.00218397
0.00221893
0.00225392
0.00228893
0.00232393
0.00235891
0.00239385
0.00242872
0.00246349
0.00249814
0.00253265
0.00256698
0.0026011
0.00263498
0.00266857
0.00270184
0.00273476
0.0027673
0.00279945
0.00283121
0.00286259
0.00289358
0.00292415
0.00295428
0.00298393
0.00301307
0.00304167
0.0030697
0.00309712
0.00312391
0.00315002
0.00317542
0.00320007
0.00322394
0.00324698
0.00326917
0.00329045
0.0033108
0.00333018
0.00334855
0.00336588
0.00338212
0.00339726
0.00341126
0.00342411
0.00343577
0.00344631
0.00345605
0.00346408
0.00347041
0.00347592
0.00348013
0.00348302
0.00348458
0.00348484
0.00348381
0.00348151
0.00347799
0.00347326
0.00346738
0.00346037
0.00345229
0.0034432
0.00343315
0.00342221
0.00341044
0.00339793
0.00338474
0.00337094
0.00335664
0.00334189
0.0033268
0.00331145
0.00329592
0.00328031
0.0032647
0.00324919
0.00323385
0.00321877
0.00320402
0.00318967
0.0031758
0.00316245
0.00314967
0.00313748
0.0031259
0.00311491
0.00310444
0.00309428
0.00308401
0.00307376
0.00306357
0.00305335
0.00304325
0.00303309
0.00302272
0.00301191
0.00300023
0.00298642
0.00296656
0.00292842
9.8831e-06
8.88918e-05
0.000183377
0.000262166
0.000324909
0.000373859
0.000411725
0.000441191
0.000464526
0.000483598
0.000499892
0.000514549
0.00052841
0.000542075
0.000555955
0.000570321
0.000585347
0.000601142
0.00061777
0.000635265
0.00065364
0.000672895
0.000693013
0.00071397
0.000735729
0.000758247
0.000781472
0.000805347
0.000829817
0.000854839
0.000880377
0.000906402
0.000932882
0.000959788
0.000987094
0.00101478
0.00104282
0.00107121
0.00109991
0.00112891
0.00115821
0.00118779
0.00121765
0.00124778
0.00127819
0.00130889
0.0013399
0.0013712
0.0014028
0.00143471
0.00146694
0.00149948
0.00153233
0.00156551
0.00159902
0.00163285
0.001667
0.00170145
0.00173622
0.00177129
0.00180667
0.00184233
0.00187829
0.00191453
0.00195103
0.0019878
0.00202483
0.00206209
0.00209958
0.00213729
0.0021752
0.0022133
0.00225157
0.00229
0.00232856
0.00236725
0.00240605
0.00244493
0.00248388
0.00252288
0.0025619
0.00260094
0.00263996
0.00267895
0.00271788
0.00275673
0.00279548
0.0028341
0.00287256
0.00291085
0.00294892
0.00298676
0.00302434
0.00306161
0.00309857
0.00313517
0.00317142
0.00320728
0.00324275
0.00327781
0.00331244
0.00334662
0.00338031
0.00341349
0.00344613
0.00347819
0.00350965
0.00354045
0.00357058
0.00359999
0.00362865
0.00365652
0.00368355
0.00370972
0.00373497
0.00375927
0.00378257
0.00380483
0.00382602
0.00384609
0.003865
0.00388272
0.00389922
0.00391445
0.00392841
0.00394106
0.00395279
0.00396295
0.00397125
0.00397831
0.00398404
0.0039883
0.00399107
0.00399236
0.0039922
0.00399059
0.00398759
0.0039832
0.00397749
0.00397048
0.00396223
0.00395279
0.00394224
0.00393063
0.00391804
0.00390455
0.00389024
0.00387519
0.0038595
0.00384325
0.00382655
0.00380949
0.00379217
0.00377469
0.00375716
0.00373967
0.00372232
0.00370522
0.00368844
0.00367207
0.0036562
0.00364088
0.00362619
0.00361215
0.0035988
0.00358615
0.00357413
0.00356263
0.00355141
0.00354044
0.00352971
0.00351917
0.00350882
0.00349855
0.00348822
0.00347763
0.00346639
0.00345339
0.0034354
0.00340356
1.05201e-05
9.67797e-05
0.000201352
0.000289657
0.000360616
0.00041696
0.000461288
0.000496409
0.000524703
0.000548136
0.000568296
0.000586426
0.000603466
0.000620104
0.000636826
0.000653961
0.000671724
0.000690247
0.000709605
0.000729838
0.000750954
0.000772947
0.000795794
0.000819465
0.00084392
0.000869116
0.000895004
0.000921537
0.000948671
0.000976365
0.00100458
0.0010333
0.00106247
0.00109208
0.00112211
0.00115252
0.0011833
0.00121443
0.0012459
0.00127768
0.00130978
0.00134219
0.0013749
0.00140791
0.00144122
0.00147485
0.00150878
0.00154303
0.0015776
0.00161249
0.00164771
0.00168324
0.0017191
0.00175529
0.00179181
0.00182864
0.00186579
0.00190326
0.00194103
0.0019791
0.00201748
0.00205614
0.00209508
0.00213429
0.00217377
0.0022135
0.00225347
0.00229368
0.00233409
0.00237471
0.00241552
0.0024565
0.00249763
0.00253891
0.00258031
0.00262181
0.00266341
0.00270507
0.00274678
0.00278852
0.00283027
0.00287201
0.00291371
0.00295537
0.00299694
0.00303842
0.00307978
0.00312099
0.00316204
0.00320289
0.00324352
0.00328391
0.00332403
0.00336385
0.00340336
0.00344253
0.00348134
0.00351978
0.00355783
0.00359546
0.00363266
0.0036694
0.00370565
0.00374139
0.00377658
0.00381119
0.00384519
0.00387855
0.00391122
0.00394318
0.00397439
0.00400481
0.00403439
0.0040631
0.0040909
0.00411773
0.00414356
0.00416835
0.00419203
0.00421458
0.00423595
0.0042561
0.00427498
0.00429255
0.00430879
0.00432364
0.00433747
0.00434976
0.00436025
0.00436916
0.00437672
0.00438269
0.00438704
0.00438978
0.00439091
0.00439047
0.00438849
0.00438498
0.00437999
0.00437355
0.00436572
0.00435655
0.00434611
0.00433445
0.00432166
0.00430781
0.004293
0.00427731
0.00426083
0.00424366
0.00422592
0.0042077
0.00418911
0.00417026
0.00415127
0.00413225
0.00411331
0.00409456
0.00407609
0.00405802
0.00404043
0.0040234
0.00400702
0.00399134
0.00397641
0.00396224
0.00394884
0.00393612
0.00392395
0.00391229
0.00390108
0.00389027
0.00387984
0.00386969
0.00385972
0.00384977
0.00383951
0.00382802
0.00381271
0.00378734
1.12736e-05
0.000100934
0.000213861
0.000311135
0.000390063
0.000453715
0.0005045
0.000545324
0.000578654
0.00060654
0.000630644
0.000652288
0.000672488
0.000692008
0.000711399
0.000731049
0.000751214
0.00077206
0.000793685
0.000816138
0.000839436
0.000863577
0.000888539
0.000914295
0.000940808
0.000968036
0.000995937
0.00102447
0.00105359
0.00108326
0.00111346
0.00114414
0.00117529
0.00120687
0.00123886
0.00127124
0.001304
0.00133711
0.00137057
0.00140435
0.00143846
0.00147287
0.0015076
0.00154263
0.00157797
0.00161362
0.00164959
0.00168587
0.00172247
0.00175939
0.00179662
0.00183417
0.00187203
0.00191022
0.00194872
0.00198752
0.00202663
0.00206605
0.00210576
0.00214575
0.00218603
0.00222659
0.00226741
0.00230849
0.00234982
0.00239139
0.00243318
0.00247519
0.0025174
0.0025598
0.00260238
0.00264511
0.00268799
0.002731
0.00277412
0.00281733
0.00286062
0.00290398
0.00294737
0.00299079
0.00303421
0.00307762
0.00312099
0.0031643
0.00320754
0.00325068
0.0032937
0.00333657
0.00337928
0.00342181
0.00346412
0.0035062
0.00354803
0.00358959
0.00363085
0.00367179
0.00371239
0.00375264
0.00379251
0.00383199
0.00387105
0.00390967
0.00394782
0.00398547
0.0040226
0.00405918
0.00409518
0.00413056
0.00416529
0.00419933
0.00423266
0.00426523
0.00429699
0.00432792
0.00435796
0.00438707
0.00441521
0.00444232
0.00446836
0.00449328
0.00451703
0.00453956
0.00456083
0.00458079
0.00459939
0.00461658
0.00463266
0.00464719
0.00466005
0.00467114
0.00468081
0.00468881
0.00469508
0.00469962
0.00470244
0.00470356
0.004703
0.00470079
0.00469696
0.00469155
0.00468459
0.00467614
0.00466625
0.004655
0.00464245
0.00462869
0.00461379
0.00459786
0.00458099
0.00456329
0.00454485
0.0045258
0.00450624
0.00448631
0.00446611
0.00444578
0.00442543
0.00440518
0.00438516
0.00436547
0.00434623
0.00432754
0.0043095
0.00429218
0.00427564
0.00425995
0.00424511
0.00423112
0.0042179
0.00420542
0.00419364
0.00418251
0.00417199
0.00416203
0.00415255
0.00414344
0.00413445
0.00412483
0.00411253
0.00409314
1.19293e-05
0.000103241
0.000222532
0.00032756
0.000413798
0.000484373
0.000541422
0.000587861
0.000626201
0.000658538
0.00068659
0.00071173
0.000735036
0.00075733
0.000779223
0.000801152
0.000823422
0.000846234
0.000869713
0.000893932
0.00091892
0.000944685
0.000971216
0.000998498
0.0010265
0.00105518
0.00108451
0.00111444
0.00114493
0.00117596
0.00120749
0.00123949
0.00127195
0.00130482
0.0013381
0.00137176
0.00140579
0.00144018
0.00147491
0.00150997
0.00154533
0.001581
0.00161696
0.00165322
0.00168977
0.00172662
0.00176377
0.00180123
0.00183898
0.00187703
0.00191538
0.00195403
0.00199299
0.00203223
0.00207178
0.00211161
0.00215173
0.00219213
0.00223282
0.00227377
0.00231499
0.00235647
0.0023982
0.00244018
0.00248239
0.00252484
0.0025675
0.00261036
0.00265342
0.00269667
0.00274009
0.00278367
0.00282739
0.00287124
0.00291521
0.00295928
0.00300344
0.00304766
0.00309194
0.00313625
0.00318058
0.00322491
0.00326921
0.00331347
0.00335768
0.00340181
0.00344583
0.00348974
0.0035335
0.0035771
0.00362052
0.00366374
0.00370674
0.00374948
0.00379197
0.00383417
0.00387606
0.00391764
0.00395887
0.00399973
0.00404021
0.00408029
0.00411993
0.00415911
0.00419782
0.00423601
0.00427367
0.00431076
0.00434725
0.00438311
0.0044183
0.00445278
0.00448652
0.00451948
0.00455161
0.00458287
0.0046132
0.00464257
0.00467091
0.00469817
0.00472431
0.00474927
0.00477299
0.00479542
0.00481651
0.0048362
0.0048547
0.00487164
0.00488702
0.00490061
0.00491267
0.004923
0.00493151
0.00493816
0.00494299
0.00494601
0.00494723
0.00494668
0.00494438
0.00494034
0.00493462
0.00492724
0.00491827
0.00490777
0.0048958
0.00488244
0.00486778
0.0048519
0.00483491
0.00481691
0.00479802
0.00477833
0.00475799
0.0047371
0.00471582
0.00469426
0.00467256
0.00465085
0.00462927
0.00460794
0.004587
0.00456657
0.00454676
0.00452768
0.00450941
0.00449205
0.00447564
0.00446021
0.00444575
0.00443227
0.00441973
0.00440813
0.00439743
0.00438761
0.00437862
0.00437041
0.0043628
0.00435519
0.00434598
0.00433208
1.24804e-05
0.00010424
0.000228132
0.000339563
0.000432406
0.00050916
0.00057214
0.000623964
0.000667158
0.000703837
0.000735744
0.00076429
0.000790593
0.000815522
0.000839735
0.000863715
0.000887811
0.000912261
0.000937229
0.000962805
0.000989038
0.00101594
0.00104351
0.0010718
0.00110077
0.00113038
0.00116059
0.00119135
0.00122265
0.00125444
0.00128669
0.00131939
0.00135251
0.00138603
0.00141993
0.00145419
0.00148881
0.00152377
0.00155908
0.00159474
0.00163066
0.00166685
0.00170329
0.00174
0.00177698
0.00181422
0.00185173
0.00188952
0.00192757
0.00196591
0.00200451
0.0020434
0.00208255
0.00212198
0.00216168
0.00220166
0.0022419
0.0022824
0.00232317
0.0023642
0.00240548
0.00244702
0.0024888
0.00253083
0.00257309
0.00261559
0.0026583
0.00270124
0.00274437
0.00278771
0.00283124
0.00287494
0.00291881
0.00296283
0.003007
0.00305129
0.0030957
0.00314021
0.0031848
0.00322946
0.00327417
0.00331891
0.00336367
0.00340843
0.00345316
0.00349785
0.00354248
0.00358703
0.00363148
0.0036758
0.00371998
0.003764
0.00380784
0.00385147
0.00389488
0.00393805
0.00398095
0.00402357
0.00406589
0.00410789
0.00414954
0.00419083
0.00423174
0.00427223
0.0043123
0.00435191
0.00439104
0.00442966
0.00446774
0.00450525
0.00454217
0.00457844
0.00461405
0.00464894
0.00468308
0.00471642
0.00474891
0.0047805
0.00481114
0.00484077
0.00486933
0.00489676
0.00492302
0.00494802
0.00497173
0.00499409
0.00501517
0.00503473
0.00505276
0.00506912
0.00508385
0.00509682
0.00510785
0.0051169
0.00512403
0.00512925
0.00513257
0.00513399
0.00513353
0.00513119
0.00512702
0.00512103
0.00511328
0.00510381
0.00509271
0.00508002
0.00506584
0.00505026
0.00503336
0.00501526
0.00499607
0.0049759
0.00495488
0.00493314
0.00491083
0.00488808
0.00486503
0.00484184
0.00481865
0.0047956
0.00477286
0.00475055
0.00472883
0.00470782
0.00468764
0.00466841
0.00465023
0.00463315
0.00461723
0.00460252
0.00458902
0.00457675
0.00456571
0.00455591
0.00454734
0.00453999
0.00453375
0.00452815
0.00452197
0.00451312
1.29351e-05
0.000104219
0.00023118
0.000347711
0.000446263
0.000528484
0.000596828
0.000653639
0.000701387
0.000742169
0.00077773
0.000809497
0.000838612
0.000865978
0.000892292
0.000918072
0.000943697
0.000969439
0.000995551
0.00102213
0.00104921
0.00107682
0.00110492
0.00113363
0.00116294
0.00119282
0.00122325
0.00125421
0.00128565
0.00131756
0.00134992
0.00138269
0.00141587
0.00144944
0.00148336
0.00151763
0.00155223
0.00158716
0.00162241
0.00165802
0.00169378
0.00172975
0.00176592
0.0018023
0.00183889
0.00187571
0.00191275
0.00195002
0.00198753
0.00202528
0.00206328
0.00210153
0.00214003
0.00217878
0.00221778
0.00225704
0.00229656
0.00233634
0.00237638
0.00241668
0.00245724
0.00249806
0.00253915
0.0025805
0.0026221
0.00266396
0.00270608
0.00274844
0.00279105
0.0028339
0.00287698
0.00292028
0.0029638
0.00300752
0.00305144
0.00309554
0.00313981
0.00318423
0.0032288
0.00327348
0.00331828
0.00336316
0.00340811
0.00345312
0.00349816
0.00354321
0.00358825
0.00363326
0.00367822
0.0037231
0.0037679
0.00381258
0.00385712
0.0039015
0.00394571
0.00398971
0.0040335
0.00407705
0.00412034
0.00416335
0.00420606
0.00424846
0.00429052
0.00433222
0.00437355
0.00441447
0.00445497
0.00449503
0.00453461
0.0045737
0.00461225
0.00465025
0.00468765
0.00472442
0.00476052
0.00479591
0.00483053
0.00486434
0.00489728
0.00492929
0.00496032
0.00499029
0.00501915
0.00504682
0.00507326
0.0050984
0.00512223
0.00514458
0.00516549
0.00518482
0.00520246
0.00521835
0.00523218
0.00524387
0.00525356
0.00526127
0.00526697
0.00527066
0.00527233
0.00527199
0.00526965
0.00526534
0.00525909
0.00525094
0.00524096
0.0052292
0.00521574
0.00520066
0.00518407
0.00516605
0.00514672
0.00512621
0.00510463
0.00508213
0.00505884
0.00503493
0.00501055
0.00498585
0.00496101
0.00493617
0.00491152
0.00488723
0.00486344
0.00484034
0.00481807
0.00479678
0.00477661
0.00475767
0.00474007
0.00472389
0.00470919
0.00469605
0.00468448
0.00467454
0.00466626
0.00465966
0.00465471
0.00465105
0.00464773
0.00464346
1.33021e-05
0.000103387
0.000232065
0.000352424
0.000455661
0.00054257
0.000615618
0.000676885
0.000728747
0.000773257
0.000812145
0.00084683
0.000878462
0.000907959
0.000936101
0.000963405
0.000990243
0.00101686
0.00104359
0.00107058
0.00109794
0.00112573
0.00115402
0.00118289
0.00121225
0.00124208
0.00127237
0.00130307
0.00133419
0.00136568
0.00139754
0.00142973
0.00146224
0.00149507
0.00152819
0.00156158
0.0015952
0.00162911
0.00166331
0.00169798
0.00173279
0.00176777