/*--------------------------------*- C++ -*----------------------------------*\
| =========                 |                                                 |
| \\      /  F ield         | OpenFOAM: The Open Source CFD Toolbox           |
|  \\    /   O peration     | Version:  2312                                  |
|   \\  /    A nd           | Website:  www.openfoam.com                      |
|    \\/     M anipulation  |                                                 |
\*---------------------------------------------------------------------------*/
FoamFile
{
    version     2.0;
    format      ascii;
    arch        "LSB;label=32;scalar=64";
    class       volScalarField;
    location    "200";
    object      p;
}
// * * * * * * * * * * * * * * * * * * * * * * * * * * * * * * * * * * * * * //

dimensions      [0 2 -2 0 0 0 0];

internalField   nonuniform List<scalar> 
12225
(
497.372
495.215
494.122
493.808
493.631
493.453
493.305
493.193
493.101
493.018
492.941
492.868
492.798
492.728
492.657
492.585
492.497
492.443
494.242
493.454
493.249
493.337
493.362
493.298
493.215
493.14
493.071
493.001
492.933
492.865
492.799
492.733
492.665
492.593
492.514
492.411
493.862
493.928
493.808
493.721
493.613
493.47
493.335
493.225
493.131
493.045
492.965
492.89
492.819
492.749
492.679
492.608
492.53
492.447
493.989
494.076
493.817
493.625
493.502
493.381
493.268
493.173
493.092
493.017
492.945
492.877
492.81
492.745
492.679
492.613
492.543
492.477
493.997
493.983
493.736
493.571
493.478
493.379
493.277
493.186
493.106
493.031
492.959
492.89
492.824
492.759
492.694
492.63
492.566
492.507
493.936
493.891
493.705
493.565
493.475
493.378
493.278
493.187
493.107
493.032
492.961
492.893
492.827
492.764
492.702
492.641
492.583
492.529
493.874
493.831
493.687
493.557
493.463
493.369
493.273
493.185
493.107
493.033
492.964
492.897
492.833
492.772
492.712
492.655
492.601
492.552
493.818
493.781
493.664
493.543
493.449
493.36
493.269
493.185
493.108
493.036
492.968
492.903
492.841
492.781
492.724
492.669
492.619
492.574
493.766
493.733
493.635
493.526
493.436
493.351
493.266
493.185
493.11
493.039
492.973
492.909
492.849
492.791
492.736
492.685
492.637
492.595
493.717
493.687
493.605
493.509
493.423
493.343
493.262
493.184
493.111
493.043
492.978
492.916
492.858
492.802
492.749
492.7
492.655
492.615
493.671
493.644
493.576
493.49
493.41
493.333
493.257
493.183
493.113
493.047
492.984
492.924
492.867
492.814
492.763
492.716
492.674
492.635
493.632
493.608
493.549
493.473
493.397
493.325
493.253
493.182
493.114
493.05
492.989
492.931
492.876
492.825
492.776
492.731
492.69
492.653
493.595
493.574
493.523
493.455
493.385
493.317
493.248
493.181
493.116
493.054
492.995
492.939
492.886
492.836
492.789
492.745
492.706
492.67
493.558
493.539
493.495
493.435
493.371
493.307
493.243
493.179
493.117
493.058
493.001
492.947
492.896
492.848
492.803
492.762
492.723
492.689
493.52
493.504
493.466
493.414
493.356
493.297
493.237
493.178
493.119
493.063
493.009
492.957
492.908
492.862
492.819
492.779
492.742
492.709
493.485
493.471
493.439
493.394
493.342
493.288
493.232
493.177
493.122
493.068
493.017
492.968
492.921
492.878
492.836
492.798
492.763
492.73
493.455
493.443
493.416
493.376
493.33
493.28
493.229
493.177
493.126
493.075
493.027
492.98
492.936
492.894
492.855
492.818
492.784
492.752
493.436
493.426
493.401
493.366
493.323
493.278
493.23
493.181
493.133
493.085
493.039
492.994
492.952
492.911
492.874
492.838
492.805
492.774
493.436
493.426
493.403
493.369
493.329
493.284
493.238
493.191
493.144
493.098
493.053
493.01
492.969
492.929
492.892
492.858
492.825
492.794
493.46
493.45
493.426
493.39
493.347
493.302
493.255
493.207
493.159
493.112
493.067
493.024
492.983
492.943
492.907
492.872
492.839
492.808
493.495
493.483
493.456
493.417
493.371
493.322
493.273
493.223
493.173
493.125
493.079
493.034
492.992
492.953
492.915
492.88
492.847
492.816
493.537
493.525
493.494
493.448
493.396
493.344
493.291
493.238
493.186
493.136
493.088
493.042
492.999
492.959
492.921
492.886
492.852
492.821
493.584
493.572
493.537
493.481
493.422
493.365
493.309
493.253
493.198
493.145
493.096
493.048
493.004
492.963
492.924
492.888
492.854
492.822
493.633
493.624
493.582
493.515
493.448
493.387
493.326
493.265
493.207
493.152
493.101
493.053
493.008
492.966
492.927
492.89
492.856
492.825
493.684
493.683
493.62
493.538
493.474
493.413
493.346
493.278
493.215
493.158
493.104
493.053
493.006
492.963
492.923
492.886
492.852
492.819
493.73
493.779
493.663
493.541
493.479
493.426
493.361
493.294
493.232
493.174
493.12
493.068
493.02
492.976
492.935
492.897
492.862
492.829
493.713
493.911
493.778
493.6
493.494
493.413
493.334
493.261
493.198
493.141
493.087
493.038
492.992
492.951
492.912
492.877
492.843
492.812
493.572
493.82
493.843
493.788
493.705
493.596
493.485
493.387
493.302
493.226
493.156
493.093
493.037
492.986
492.941
492.9
492.862
492.827
493.844
493.214
493.095
493.235
493.323
493.315
493.273
493.228
493.182
493.134
493.085
493.038
492.993
492.952
492.914
492.879
492.846
492.815
496.899
495.132
494.118
493.837
493.71
493.568
493.438
493.337
493.255
493.182
493.115
493.056
493.004
492.957
492.915
492.878
492.845
492.818
492.017
492.017
492.017
492.016
492.014
492.012
492.01
492.008
492.006
492.004
492.001
491.999
491.996
491.993
491.99
491.986
491.982
491.977
491.972
491.966
491.96
491.954
491.946
491.938
491.929
491.919
491.909
491.897
491.885
491.872
491.858
491.842
491.826
491.809
491.791
491.772
491.753
491.732
491.711
491.689
491.666
491.642
491.618
491.594
491.569
491.543
491.518
491.491
491.465
491.439
491.412
491.385
491.358
491.331
491.305
491.278
491.252
491.226
491.201
491.176
491.152
491.129
491.107
491.086
491.066
491.047
491.03
491.015
491.001
490.99
490.981
490.974
490.97
490.968
490.97
490.975
490.983
490.995
491.011
491.032
491.056
491.085
491.119
491.158
491.203
491.253
491.308
491.37
491.438
491.513
491.594
491.682
491.777
491.88
491.989
492.106
492.23
492.362
492.503
492.651
492.808
492.973
493.146
493.327
493.517
493.714
493.919
494.132
494.352
494.58
494.815
495.057
495.305
495.56
495.82
496.086
496.358
496.634
496.914
497.197
497.485
497.774
498.066
498.36
498.655
498.95
499.246
499.541
499.836
500.129
500.42
500.709
500.996
501.28
501.56
501.837
502.11
502.378
502.643
502.903
503.158
503.409
503.655
503.897
504.133
504.366
504.594
504.818
505.037
505.253
505.466
505.676
505.882
506.086
506.289
506.489
506.689
506.888
507.086
507.285
507.485
507.686
507.889
508.094
508.301
508.512
508.726
508.945
509.167
509.393
509.622
509.854
510.09
510.328
510.568
510.811
511.054
511.299
511.555
511.812
492.017
492.017
492.017
492.016
492.014
492.013
492.012
492.011
492.01
492.008
492.007
492.005
492.002
492
491.997
491.994
491.991
491.987
491.982
491.977
491.972
491.965
491.959
491.951
491.943
491.933
491.923
491.912
491.9
491.887
491.873
491.858
491.842
491.826
491.808
491.789
491.77
491.749
491.728
491.707
491.684
491.661
491.637
491.613
491.589
491.564
491.538
491.512
491.486
491.46
491.434
491.407
491.381
491.354
491.328
491.302
491.276
491.25
491.225
491.2
491.176
491.153
491.131
491.11
491.09
491.071
491.054
491.039
491.025
491.013
491.004
490.997
490.992
490.99
490.991
490.996
491.003
491.015
491.03
491.049
491.073
491.101
491.134
491.172
491.215
491.264
491.318
491.379
491.445
491.518
491.598
491.684
491.777
491.878
491.985
492.101
492.224
492.355
492.494
492.641
492.795
492.958
493.129
493.308
493.495
493.69
493.893
494.103
494.322
494.547
494.78
495.02
495.266
495.519
495.778
496.042
496.312
496.586
496.865
497.147
497.433
497.722
498.013
498.306
498.6
498.895
499.19
499.485
499.779
500.073
500.364
500.654
500.941
501.225
501.506
501.783
502.057
502.327
502.592
502.854
503.11
503.362
503.609
503.852
504.09
504.324
504.553
504.778
504.999
505.216
505.43
505.64
505.847
506.052
506.255
506.457
506.656
506.856
507.054
507.253
507.453
507.653
507.856
508.06
508.267
508.477
508.69
508.907
509.128
509.352
509.58
509.81
510.044
510.281
510.521
510.762
511.006
511.251
511.511
511.762
492.021
492.02
492.019
492.017
492.016
492.015
492.015
492.015
492.014
492.013
492.013
492.012
492.01
492.008
492.006
492.004
492
491.997
491.993
491.988
491.983
491.977
491.97
491.962
491.954
491.944
491.934
491.923
491.911
491.898
491.884
491.87
491.854
491.837
491.82
491.802
491.783
491.763
491.742
491.721
491.699
491.677
491.654
491.63
491.606
491.582
491.557
491.532
491.506
491.481
491.455
491.429
491.403
491.377
491.351
491.325
491.3
491.274
491.25
491.225
491.202
491.179
491.157
491.136
491.116
491.098
491.081
491.065
491.051
491.04
491.03
491.023
491.018
491.016
491.016
491.02
491.027
491.038
491.052
491.071
491.094
491.121
491.153
491.19
491.232
491.279
491.332
491.391
491.456
491.527
491.605
491.69
491.781
491.879
491.985
492.098
492.219
492.348
492.484
492.629
492.781
492.941
493.11
493.286
493.47
493.663
493.863
494.071
494.286
494.509
494.74
494.977
495.221
495.471
495.727
495.99
496.257
496.529
496.806
497.087
497.371
497.658
497.948
498.239
498.533
498.827
499.121
499.415
499.709
500.002
500.294
500.583
500.87
501.155
501.436
501.714
501.989
502.259
502.526
502.788
503.045
503.298
503.547
503.791
504.03
504.264
504.495
504.721
504.943
505.161
505.376
505.587
505.795
506.001
506.204
506.405
506.605
506.805
507.003
507.202
507.4
507.6
507.802
508.005
508.21
508.419
508.63
508.846
509.064
509.286
509.512
509.741
509.973
510.209
510.447
510.688
510.933
511.179
511.442
511.68
492.028
492.027
492.024
492.022
492.02
492.019
492.018
492.018
492.018
492.017
492.016
492.016
492.014
492.013
492.011
492.008
492.005
492.002
491.998
491.993
491.988
491.982
491.975
491.967
491.959
491.949
491.939
491.928
491.916
491.903
491.889
491.875
491.859
491.843
491.826
491.808
491.789
491.77
491.75
491.729
491.708
491.686
491.663
491.64
491.617
491.593
491.569
491.544
491.519
491.494
491.468
491.443
491.417
491.392
491.366
491.341
491.315
491.29
491.266
491.242
491.218
491.196
491.174
491.153
491.133
491.115
491.097
491.082
491.068
491.056
491.046
491.038
491.033
491.031
491.031
491.034
491.041
491.051
491.065
491.083
491.105
491.131
491.162
491.198
491.239
491.285
491.337
491.395
491.458
491.528
491.605
491.688
491.778
491.875
491.979
492.09
492.21
492.336
492.471
492.614
492.764
492.922
493.089
493.263
493.446
493.636
493.834
494.04
494.254
494.475
494.703
494.938
495.18
495.429
495.684
495.944
496.21
496.481
496.756
497.035
497.318
497.605
497.893
498.184
498.476
498.77
499.064
499.358
499.651
499.944
500.235
500.525
500.812
501.097
501.379
501.658
501.933
502.204
502.471
502.734
502.992
503.246
503.496
503.741
503.981
504.217
504.448
504.675
504.898
505.117
505.333
505.545
505.754
505.96
506.164
506.366
506.566
506.765
506.964
507.162
507.361
507.56
507.761
507.963
508.167
508.374
508.584
508.797
509.014
509.234
509.457
509.684
509.914
510.148
510.385
510.624
510.868
511.113
511.374
511.599
492.038
492.035
492.031
492.027
492.025
492.023
492.022
492.021
492.02
492.02
492.019
492.018
492.017
492.015
492.013
492.01
492.007
492.004
491.999
491.994
491.989
491.982
491.975
491.967
491.959
491.949
491.939
491.928
491.916
491.903
491.889
491.874
491.859
491.843
491.826
491.809
491.79
491.771
491.752
491.731
491.71
491.689
491.667
491.644
491.621
491.597
491.573
491.549
491.525
491.5
491.475
491.449
491.424
491.399
491.373
491.348
491.323
491.298
491.274
491.25
491.227
491.204
491.182
491.161
491.141
491.123
491.106
491.09
491.076
491.064
491.053
491.045
491.04
491.037
491.037
491.04
491.046
491.056
491.069
491.086
491.107
491.133
491.163
491.198
491.238
491.284
491.335
491.392
491.454
491.523
491.599
491.681
491.769
491.865
491.968
492.079
492.197
492.322
492.456
492.597
492.746
492.903
493.068
493.241
493.422
493.611
493.808
494.013
494.225
494.445
494.672
494.906
495.147
495.395
495.648
495.908
496.173
496.443
496.717
496.996
497.278
497.564
497.852
498.143
498.435
498.728
499.022
499.315
499.609
499.902
500.193
500.483
500.77
501.056
501.338
501.617
501.892
502.164
502.432
502.695
502.954
503.209
503.459
503.704
503.945
504.182
504.414
504.641
504.865
505.084
505.3
505.513
505.722
505.929
506.133
506.335
506.535
506.735
506.933
507.131
507.329
507.528
507.727
507.929
508.132
508.338
508.546
508.757
508.972
509.19
509.412
509.637
509.866
510.098
510.333
510.571
510.813
511.056
511.313
511.525
492.048
492.045
492.038
492.033
492.029
492.027
492.025
492.024
492.023
492.022
492.021
492.019
492.018
492.016
492.013
492.01
492.007
492.003
491.998
491.993
491.987
491.98
491.973
491.965
491.956
491.946
491.935
491.924
491.912
491.899
491.885
491.871
491.856
491.84
491.823
491.806
491.788
491.769
491.749
491.729
491.709
491.687
491.666
491.643
491.621
491.597
491.574
491.55
491.525
491.501
491.476
491.451
491.426
491.4
491.375
491.35
491.325
491.301
491.276
491.252
491.229
491.206
491.184
491.163
491.143
491.125
491.107
491.091
491.077
491.065
491.054
491.046
491.04
491.037
491.036
491.039
491.045
491.054
491.066
491.083
491.104
491.129
491.159
491.193
491.233
491.277
491.328
491.384
491.446
491.514
491.588
491.67
491.758
491.852
491.955
492.064
492.181
492.306
492.438
492.579
492.727
492.883
493.047
493.219
493.399
493.588
493.784
493.988
494.199
494.418
494.645
494.879
495.119
495.366
495.619
495.878
496.143
496.412
496.687
496.965
497.247
497.533
497.821
498.111
498.403
498.696
498.99
499.284
499.578
499.871
500.163
500.453
500.74
501.026
501.308
501.588
501.863
502.135
502.403
502.667
502.926
503.181
503.432
503.677
503.918
504.155
504.387
504.615
504.839
505.058
505.274
505.487
505.696
505.902
506.106
506.308
506.508
506.706
506.904
507.101
507.299
507.497
507.695
507.896
508.098
508.302
508.509
508.719
508.932
509.149
509.369
509.593
509.82
510.051
510.285
510.522
510.762
511.003
511.256
511.456
492.057
492.053
492.045
492.038
492.034
492.03
492.028
492.026
492.024
492.022
492.021
492.019
492.017
492.014
492.012
492.008
492.004
492
491.995
491.989
491.983
491.976
491.968
491.96
491.951
491.941
491.93
491.918
491.906
491.893
491.88
491.865
491.85
491.834
491.818
491.8
491.782
491.764
491.744
491.725
491.704
491.683
491.662
491.64
491.617
491.594
491.57
491.547
491.522
491.498
491.473
491.448
491.423
491.398
491.373
491.348
491.323
491.298
491.274
491.25
491.227
491.204
491.182
491.161
491.141
491.122
491.104
491.088
491.073
491.061
491.05
491.041
491.035
491.032
491.031
491.033
491.038
491.047
491.059
491.075
491.096
491.12
491.149
491.183
491.222
491.267
491.316
491.372
491.433
491.501
491.575
491.655
491.743
491.837
491.939
492.047
492.164
492.288
492.42
492.559
492.707
492.863
493.026
493.198
493.378
493.565
493.761
493.965
494.176
494.395
494.621
494.854
495.095
495.341
495.595
495.854
496.118
496.388
496.662
496.941
497.223
497.509
497.797
498.088
498.38
498.673
498.967
499.262
499.556
499.849
500.141
500.431
500.719
501.005
501.288
501.567
501.843
502.115
502.383
502.647
502.907
503.162
503.412
503.658
503.899
504.135
504.367
504.595
504.818
505.038
505.253
505.465
505.674
505.88
506.083
506.284
506.483
506.681
506.877
507.074
507.27
507.466
507.664
507.863
508.064
508.267
508.472
508.681
508.893
509.108
509.327
509.55
509.776
510.006
510.239
510.475
510.714
510.952
511.201
511.393
492.064
492.058
492.049
492.042
492.036
492.032
492.029
492.026
492.024
492.022
492.02
492.017
492.015
492.012
492.009
492.005
492.001
491.996
491.99
491.984
491.978
491.97
491.962
491.953
491.944
491.934
491.923
491.911
491.899
491.886
491.872
491.858
491.843
491.827
491.81
491.793
491.775
491.757
491.738
491.718
491.698
491.677
491.655
491.634
491.611
491.588
491.565
491.541
491.517
491.493
491.468
491.443
491.418
491.393
491.368
491.342
491.317
491.293
491.268
491.244
491.221
491.198
491.175
491.154
491.134
491.115
491.097
491.08
491.066
491.053
491.042
491.033
491.026
491.022
491.021
491.023
491.028
491.036
491.048
491.064
491.084
491.108
491.137
491.17
491.209
491.253
491.302
491.357
491.418
491.485
491.559
491.639
491.726
491.82
491.921
492.03
492.146
492.269
492.401
492.54
492.687
492.843
493.006
493.178
493.357
493.545
493.74
493.944
494.155
494.374
494.6
494.834
495.074
495.321
495.574
495.834
496.098
496.368
496.643
496.922
497.205
497.491
497.779
498.07
498.363
498.657
498.951
499.246
499.54
499.834
500.126
500.417
500.705
500.991
501.274
501.554
501.83
502.102
502.37
502.634
502.894
503.149
503.399
503.644
503.885
504.121
504.353
504.58
504.803
505.022
505.237
505.448
505.656
505.861
506.063
506.263
506.461
506.658
506.853
507.048
507.243
507.438
507.635
507.832
508.031
508.233
508.437
508.644
508.855
509.069
509.287
509.508
509.733
509.962
510.195
510.43
510.667
510.903
511.149
511.334
492.067
492.061
492.052
492.043
492.037
492.033
492.029
492.025
492.023
492.02
492.017
492.014
492.012
492.008
492.004
492
491.996
491.99
491.985
491.978
491.971
491.964
491.955
491.947
491.937
491.927
491.916
491.904
491.891
491.878
491.865
491.85
491.835
491.819
491.803
491.785
491.768
491.749
491.73
491.71
491.69
491.669
491.648
491.626
491.604
491.581
491.557
491.534
491.51
491.485
491.46
491.435
491.41
491.385
491.36
491.335
491.309
491.284
491.26
491.235
491.212
491.189
491.166
491.145
491.124
491.105
491.086
491.07
491.055
491.041
491.03
491.021
491.014
491.01
491.008
491.01
491.014
491.023
491.034
491.05
491.069
491.093
491.122
491.155
491.193
491.237
491.286
491.34
491.401
491.468
491.541
491.621
491.708
491.802
491.903
492.011
492.127
492.251
492.382
492.521
492.669
492.824
492.987
493.159
493.338
493.526
493.722
493.926
494.137
494.356
494.583
494.816
495.057
495.304
495.558
495.818
496.083
496.354
496.629
496.908
497.191
497.478
497.767
498.059
498.352
498.646
498.941
499.236
499.531
499.825
500.117
500.408
500.697
500.983
501.266
501.546
501.822
502.094
502.362
502.626
502.886
503.14
503.39
503.636
503.876
504.112
504.343
504.569
504.792
505.01
505.224
505.434
505.641
505.845
506.046
506.245
506.442
506.637
506.831
507.025
507.218
507.412
507.607
507.803
508.001
508.201
508.403
508.609
508.818
509.031
509.248
509.468
509.693
509.921
510.153
510.387
510.623
510.857
511.101
511.28
492.067
492.061
492.052
492.043
492.037
492.031
492.027
492.023
492.02
492.017
492.014
492.011
492.007
492.004
492
491.995
491.99
491.985
491.979
491.972
491.965
491.957
491.948
491.939
491.929
491.919
491.908
491.896
491.884
491.87
491.856
491.842
491.827
491.811
491.794
491.777
491.759
491.741
491.722
491.702
491.682
491.661
491.64
491.618
491.595
491.572
491.549
491.525
491.501
491.476
491.451
491.426
491.401
491.376
491.35
491.325
491.299
491.274
491.249
491.225
491.201
491.178
491.155
491.133
491.112
491.092
491.074
491.057
491.042
491.028
491.017
491.007
491
490.996
490.994
490.995
491
491.007
491.019
491.034
491.053
491.077
491.105
491.139
491.177
491.22
491.269
491.324
491.384
491.451
491.524
491.604
491.691
491.784
491.885
491.994
492.11
492.233
492.365
492.504
492.651
492.807
492.97
493.142
493.322
493.51
493.706
493.91
494.122
494.342
494.569
494.803
495.044
495.292
495.546
495.807
496.073
496.344
496.619
496.9
497.183
497.471
497.76
498.052
498.346
498.641
498.936
499.232
499.527
499.821
500.114
500.405
500.694
500.98
501.263
501.543
501.819
502.091
502.359
502.623
502.882
503.136
503.386
503.63
503.87
504.105
504.336
504.562
504.783
505
505.213
505.423
505.628
505.831
506.031
506.229
506.424
506.618
506.811
507.003
507.195
507.387
507.58
507.775
507.971
508.17
508.371
508.575
508.783
508.995
509.211
509.43
509.654
509.881
510.112
510.345
510.581
510.812
511.054
511.229
492.064
492.059
492.05
492.041
492.034
492.029
492.024
492.02
492.017
492.013
492.01
492.006
492.003
491.999
491.994
491.99
491.984
491.979
491.972
491.965
491.958
491.95
491.941
491.932
491.922
491.912
491.9
491.888
491.876
491.863
491.849
491.834
491.819
491.803
491.786
491.769
491.751
491.733
491.714
491.694
491.673
491.653
491.631
491.609
491.586
491.563
491.54
491.516
491.492
491.467
491.442
491.417
491.391
491.365
491.34
491.314
491.289
491.263
491.238
491.213
491.189
491.165
491.142
491.12
491.099
491.079
491.061
491.043
491.028
491.014
491.002
490.993
490.986
490.981
490.979
490.98
490.984
490.992
491.003
491.018
491.038
491.061
491.09
491.123
491.161
491.204
491.253
491.307
491.368
491.435
491.508
491.588
491.675
491.769
491.87
491.978
492.094
492.218
492.35
492.489
492.637
492.793
492.957
493.129
493.309
493.498
493.694
493.899
494.111
494.331
494.559
494.794
495.036
495.284
495.539
495.8
496.067
496.339
496.615
496.896
497.18
497.468
497.759
498.051
498.346
498.641
498.937
499.233
499.528
499.822
500.115
500.407
500.695
500.982
501.265
501.545
501.821
502.093
502.36
502.623
502.882
503.136
503.384
503.628
503.868
504.102
504.331
504.556
504.776
504.992
505.204
505.412
505.617
505.819
506.017
506.213
506.407
506.6
506.791
506.982
507.172
507.363
507.555
507.748
507.942
508.139
508.339
508.543
508.749
508.96
509.175
509.394
509.617
509.844
510.074
510.306
510.54
510.771
511.011
511.183
492.059
492.054
492.045
492.037
492.031
492.025
492.021
492.016
492.013
492.009
492.005
492.002
491.998
491.994
491.989
491.984
491.979
491.973
491.966
491.959
491.952
491.944
491.935
491.925
491.915
491.905
491.893
491.881
491.869
491.855
491.841
491.827
491.811
491.795
491.779
491.761
491.743
491.725
491.706
491.686
491.665
491.644
491.623
491.6
491.578
491.554
491.531
491.507
491.482
491.457
491.432
491.406
491.381
491.355
491.329
491.303
491.277
491.252
491.226
491.201
491.177
491.153
491.13
491.107
491.086
491.066
491.047
491.03
491.014
491
490.988
490.979
490.971
490.967
490.965
490.966
490.97
490.978
490.989
491.004
491.023
491.047
491.075
491.108
491.147
491.19
491.239
491.294
491.354
491.421
491.495
491.575
491.662
491.756
491.857
491.966
492.082
492.206
492.338
492.478
492.626
492.783
492.947
493.12
493.3
493.489
493.686
493.892
494.105
494.325
494.554
494.789
495.032
495.281
495.537
495.799
496.066
496.339
496.616
496.897
497.183
497.471
497.762
498.056
498.35
498.646
498.942
499.239
499.534
499.829
500.122
500.413
500.702
500.988
501.271
501.551
501.826
502.098
502.365
502.627
502.885
503.138
503.386
503.629
503.867
504.1
504.329
504.552
504.772
504.986
505.197
505.404
505.607
505.807
506.004
506.199
506.391
506.582
506.772
506.961
507.15
507.339
507.529
507.721
507.914
508.11
508.309
508.511
508.717
508.926
509.14
509.359
509.581
509.807
510.037
510.269
510.502
510.731
510.97
511.139
492.052
492.047
492.04
492.032
492.026
492.021
492.016
492.012
492.008
492.004
492.001
491.997
491.993
491.989
491.984
491.979
491.973
491.967
491.961
491.954
491.946
491.938
491.929
491.919
491.909
491.898
491.887
491.875
491.862
491.849
491.835
491.82
491.805
491.788
491.772
491.754
491.736
491.718
491.698
491.678
491.658
491.636
491.615
491.592
491.569
491.546
491.522
491.498
491.473
491.448
491.422
491.397
491.371
491.345
491.319
491.292
491.266
491.241
491.215
491.19
491.165
491.141
491.118
491.096
491.074
491.054
491.035
491.018
491.002
490.988
490.976
490.967
490.959
490.955
490.953
490.954
490.958
490.966
490.977
490.993
491.012
491.036
491.065
491.098
491.136
491.18
491.229
491.284
491.345
491.412
491.486
491.566
491.654
491.748
491.85
491.959
492.075
492.2
492.332
492.473
492.621
492.778
492.943
493.116
493.297
493.487
493.684
493.89
494.104
494.325
494.554
494.79
495.034
495.284
495.54
495.803
496.071
496.344
496.622
496.905
497.191
497.48
497.771
498.065
498.36
498.657
498.953
499.25
499.545
499.84
500.133
500.424
500.713
500.999
501.281
501.56
501.835
502.106
502.372
502.634
502.891
503.143
503.39
503.632
503.869
504.101
504.328
504.55
504.768
504.981
505.191
505.396
505.598
505.796
505.992
506.185
506.376
506.565
506.753
506.941
507.128
507.316
507.505
507.695
507.887
508.081
508.279
508.48
508.685
508.894
509.107
509.325
509.547
509.773
510.002
510.233
510.466
510.694
510.932
511.1
492.044
492.04
492.033
492.026
492.021
492.016
492.011
492.007
492.004
492
491.996
491.992
491.988
491.984
491.979
491.974
491.969
491.963
491.956
491.949
491.941
491.933
491.924
491.914
491.904
491.893
491.882
491.87
491.857
491.843
491.829
491.814
491.799
491.783
491.766
491.748
491.73
491.711
491.692
491.672
491.651
491.629
491.608
491.585
491.562
491.538
491.514
491.49
491.465
491.44
491.414
491.388
491.362
491.336
491.31
491.283
491.257
491.231
491.206
491.181
491.156
491.132
491.109
491.086
491.065
491.045
491.026
491.009
490.993
490.98
490.968
490.959
490.951
490.947
490.945
490.947
490.951
490.959
490.971
490.987
491.006
491.031
491.059
491.093
491.132
491.175
491.225
491.28
491.342
491.409
491.483
491.564
491.651
491.746
491.848
491.958
492.075
492.2
492.332
492.473
492.622
492.779
492.945
493.118
493.3
493.49
493.689
493.895
494.109
494.331
494.561
494.798
495.042
495.293
495.55
495.813
496.082
496.356
496.635
496.918
497.204
497.494
497.786
498.08
498.376
498.672
498.969
499.266
499.562
499.856
500.149
500.44
500.728
501.013
501.295
501.574
501.848
502.118
502.383
502.644
502.9
503.15
503.396
503.637
503.872
504.103
504.329
504.549
504.766
504.977
505.185
505.389
505.589
505.785
505.979
506.171
506.36
506.548
506.735
506.921
507.107
507.293
507.48
507.669
507.86
508.053
508.25
508.45
508.654
508.862
509.075
509.293
509.514
509.74
509.969
510.2
510.432
510.659
510.896
511.063
492.035
492.031
492.026
492.02
492.015
492.01
492.006
492.003
491.999
491.996
491.992
491.988
491.985
491.98
491.976
491.97
491.965
491.959
491.952
491.945
491.937
491.929
491.92
491.91
491.9
491.889
491.878
491.866
491.853
491.839
491.825
491.81
491.795
491.778
491.761
491.744
491.725
491.706
491.687
491.667
491.646
491.624
491.602
491.579
491.556
491.533
491.508
491.484
491.459
491.434
491.408
491.382
491.356
491.33
491.304
491.278
491.252
491.226
491.2
491.175
491.151
491.127
491.104
491.082
491.061
491.041
491.023
491.006
490.99
490.977
490.966
490.957
490.95
490.946
490.945
490.946
490.951
490.96
490.972
490.988
491.008
491.032
491.062
491.095
491.134
491.179
491.229
491.284
491.346
491.414
491.488
491.569
491.657
491.752
491.855
491.964
492.082
492.207
492.34
492.481
492.631
492.788
492.954
493.128
493.311
493.501
493.7
493.907
494.122
494.345
494.575
494.813
495.057
495.309
495.567
495.831
496.1
496.375
496.654
496.937
497.224
497.514
497.807
498.101
498.397
498.694
498.99
499.287
499.582
499.877
500.169
500.459
500.747
501.032
501.313
501.59
501.863
502.132
502.396
502.656
502.91
503.16
503.404
503.643
503.877
504.106
504.33
504.549
504.764
504.974
505.18
505.382
505.58
505.775
505.967
506.157
506.345
506.531
506.716
506.901
507.085
507.27
507.456
507.644
507.834
508.026
508.222
508.421
508.625
508.833
509.045
509.262
509.484
509.709
509.938
510.169
510.4
510.627
510.863
511.03
492.025
492.022
492.017
492.013
492.008
492.005
492.001
491.998
491.995
491.992
491.989
491.985
491.981
491.977
491.973
491.968
491.962
491.956
491.95
491.943
491.935
491.927
491.918
491.908
491.898
491.887
491.875
491.863
491.85
491.837
491.823
491.808
491.792
491.776
491.759
491.741
491.723
491.704
491.684
491.664
491.643
491.622
491.6
491.577
491.554
491.53
491.506
491.482
491.457
491.432
491.407
491.381
491.355
491.329
491.303
491.278
491.252
491.227
491.201
491.177
491.153
491.129
491.107
491.085
491.065
491.045
491.027
491.011
490.996
490.983
490.973
490.964
490.958
490.954
490.953
490.956
490.961
490.97
490.983
490.999
491.02
491.044
491.074
491.108
491.148
491.192
491.243
491.299
491.361
491.429
491.503
491.585
491.673
491.768
491.871
491.981
492.099
492.224
492.358
492.5
492.649
492.807
492.973
493.148
493.331
493.522
493.721
493.928
494.144
494.367
494.598
494.836
495.081
495.333
495.591
495.856
496.125
496.4
496.68
496.964
497.251
497.541
497.834
498.128
498.424
498.72
499.017
499.313
499.608
499.902
500.193
500.483
500.77
501.053
501.333
501.609
501.881
502.149
502.412
502.67
502.922
503.17
503.413
503.651
503.883
504.11
504.332
504.55
504.762
504.971
505.175
505.375
505.572
505.765
505.956
506.144
506.33
506.515
506.698
506.881
507.065
507.248
507.433
507.62
507.809
508
508.195
508.394
508.597
508.805
509.017
509.234
509.455
509.681
509.909
510.14
510.371
510.597
510.832
511.001
492.015
492.013
492.009
492.005
492.002
491.999
491.996
491.994
491.992
491.989
491.986
491.983
491.98
491.976
491.972
491.967
491.961
491.955
491.949
491.942
491.934
491.926
491.917
491.908
491.898
491.887
491.875
491.863
491.851
491.837
491.823
491.808
491.793
491.777
491.76
491.743
491.724
491.706
491.686
491.666
491.646
491.624
491.603
491.581
491.558
491.535
491.511
491.487
491.463
491.438
491.413
491.388
491.363
491.337
491.312
491.287
491.262
491.237
491.213
491.189
491.165
491.143
491.121
491.1
491.08
491.061
491.044
491.028
491.014
491.002
490.992
490.984
490.978
490.975
490.975
490.978
490.984
490.993
491.006
491.023
491.044
491.069
491.099
491.134
491.173
491.218
491.269
491.325
491.387
491.456
491.531
491.612
491.701
491.796
491.899
492.009
492.127
492.253
492.387
492.528
492.678
492.837
493.003
493.178
493.361
493.552
493.751
493.959
494.175
494.398
494.629
494.868
495.113
495.365
495.624
495.888
496.158
496.433
496.713
496.997
497.284
497.574
497.867
498.161
498.456
498.752
499.049
499.344
499.638
499.931
500.222
500.51
500.796
501.078
501.357
501.632
501.902
502.168
502.429
502.685
502.937
503.183
503.424
503.659
503.89
504.115
504.335
504.551
504.762
504.968
505.17
505.369
505.563
505.755
505.944
506.131
506.315
506.498
506.681
506.862
507.044
507.227
507.411
507.596
507.784
507.975
508.17
508.368
508.571
508.778
508.99
509.207
509.429
509.654
509.883
510.113
510.345
510.571
510.805
510.975
492.006
492.004
492.001
491.998
491.996
491.994
491.992
491.991
491.989
491.987
491.985
491.983
491.98
491.976
491.972
491.967
491.962
491.957
491.95
491.943
491.936
491.928
491.919
491.91
491.9
491.89
491.879
491.867
491.855
491.842
491.828
491.813
491.798
491.783
491.766
491.749
491.732
491.713
491.695
491.675
491.655
491.635
491.614
491.592
491.57
491.547
491.524
491.501
491.477
491.453
491.429
491.405
491.38
491.356
491.331
491.307
491.283
491.259
491.235
491.212
491.189
491.167
491.146
491.126
491.107
491.089
491.072
491.057
491.044
491.032
491.023
491.015
491.01
491.008
491.008
491.011
491.017
491.027
491.041
491.058
491.079
491.105
491.135
491.17
491.21
491.255
491.306
491.362
491.424
491.493
491.568