/*--------------------------------*- C++ -*----------------------------------*\
| =========                 |                                                 |
| \\      /  F ield         | OpenFOAM: The Open Source CFD Toolbox           |
|  \\    /   O peration     | Version:  2312                                  |
|   \\  /    A nd           | Website:  www.openfoam.com                      |
|    \\/     M anipulation  |                                                 |
\*---------------------------------------------------------------------------*/
FoamFile
{
    version     2.0;
    format      ascii;
    arch        "LSB;label=32;scalar=64";
    class       volVectorField;
    location    "200";
    object      U;
}
// * * * * * * * * * * * * * * * * * * * * * * * * * * * * * * * * * * * * * //

dimensions      [0 1 -1 0 0 0 0];

internalField   nonuniform List<vector> 
12225
(
(9.84118 -0.956372 0)
(9.59253 -0.887946 0)
(9.31755 -0.594492 0)
(9.01472 -0.370011 0)
(8.72578 -0.225977 0)
(8.46714 -0.137869 0)
(8.24003 -0.0844855 0)
(8.04174 -0.0516297 0)
(7.86979 -0.0312317 0)
(7.72075 -0.0185984 0)
(7.59163 -0.0106568 0)
(7.47931 -0.00571958 0)
(7.38162 -0.00271793 0)
(7.29657 -0.00100876 0)
(7.22251 -0.000128851 0)
(7.1604 -0.000498071 0)
(7.10073 0.00256689 0)
(7.07272 -0.0177092 0)
(10.0722 0.255857 0)
(10.1867 0.418355 0)
(10.2285 0.384144 0)
(10.2296 0.310408 0)
(10.2114 0.245686 0)
(10.1794 0.195439 0)
(10.1334 0.157682 0)
(10.0759 0.129674 0)
(10.0105 0.108824 0)
(9.94087 0.0930926 0)
(9.86926 0.0809179 0)
(9.79746 0.0713057 0)
(9.72653 0.0635074 0)
(9.65761 0.0570503 0)
(9.59111 0.0512912 0)
(9.52795 0.0466782 0)
(9.46874 0.0401808 0)
(9.41543 0.0402558 0)
(10.0032 0.0599583 0)
(10.0309 0.0482996 0)
(10.0614 0.0100052 0)
(10.0897 5.02721e-06 0)
(10.1151 0.0081706 0)
(10.1376 0.0194274 0)
(10.1547 0.0290167 0)
(10.1657 0.0365013 0)
(10.1715 0.042061 0)
(10.173 0.0459152 0)
(10.1711 0.0483775 0)
(10.1663 0.0497435 0)
(10.1591 0.0502497 0)
(10.1503 0.0500463 0)
(10.1401 0.0491673 0)
(10.1292 0.0476233 0)
(10.1183 0.045125 0)
(10.1063 0.0403298 0)
(9.99715 0.00991884 0)
(10.009 0.0260983 0)
(10.0342 0.0383081 0)
(10.0554 0.0533954 0)
(10.0721 0.0649253 0)
(10.0875 0.0702652 0)
(10.1015 0.0714165 0)
(10.1134 0.0706598 0)
(10.1236 0.0690798 0)
(10.1326 0.0671033 0)
(10.1404 0.0649296 0)
(10.1473 0.0626812 0)
(10.1532 0.0603786 0)
(10.1585 0.0580012 0)
(10.1632 0.0554121 0)
(10.1675 0.0524717 0)
(10.1713 0.0486963 0)
(10.1743 0.0429885 0)
(9.99907 0.00681094 0)
(10.0082 0.0343072 0)
(10.0279 0.048358 0)
(10.0436 0.0548997 0)
(10.0558 0.0583659 0)
(10.0678 0.0595457 0)
(10.0793 0.0593132 0)
(10.0897 0.0585686 0)
(10.0991 0.0576726 0)
(10.1077 0.05666 0)
(10.1157 0.0555224 0)
(10.1232 0.0542547 0)
(10.1303 0.0528334 0)
(10.137 0.0512019 0)
(10.1434 0.049241 0)
(10.1496 0.0467948 0)
(10.1554 0.0435391 0)
(10.1605 0.0391674 0)
(10.0002 0.00924484 0)
(10.008 0.0334136 0)
(10.0236 0.0440798 0)
(10.0369 0.0484066 0)
(10.0478 0.0518661 0)
(10.0585 0.0542617 0)
(10.069 0.0552912 0)
(10.0785 0.0554517 0)
(10.0871 0.055136 0)
(10.0951 0.0544748 0)
(10.1026 0.0535218 0)
(10.1098 0.0523197 0)
(10.1166 0.0508793 0)
(10.1231 0.0491711 0)
(10.1294 0.0471101 0)
(10.1355 0.0445783 0)
(10.1412 0.0414062 0)
(10.1463 0.0374732 0)
(10.0003 0.00912702 0)
(10.007 0.0287614 0)
(10.0201 0.0388981 0)
(10.0322 0.0440315 0)
(10.0425 0.048132 0)
(10.0525 0.0509328 0)
(10.0622 0.0521751 0)
(10.0711 0.0524067 0)
(10.0793 0.0520913 0)
(10.0869 0.0514038 0)
(10.094 0.050414 0)
(10.1009 0.0491667 0)
(10.1074 0.0476775 0)
(10.1136 0.0459204 0)
(10.1197 0.0438322 0)
(10.1254 0.041327 0)
(10.1307 0.0383153 0)
(10.1354 0.0347605 0)
(10.0004 0.00814593 0)
(10.006 0.0247141 0)
(10.0171 0.0348878 0)
(10.0283 0.0405332 0)
(10.0381 0.0446096 0)
(10.0475 0.0473212 0)
(10.0567 0.0485976 0)
(10.0652 0.0489102 0)
(10.073 0.0486718 0)
(10.0804 0.0480491 0)
(10.0873 0.0471104 0)
(10.0939 0.0458978 0)
(10.1002 0.0444296 0)
(10.1062 0.0426885 0)
(10.112 0.0406339 0)
(10.1174 0.0382129 0)
(10.1223 0.0353885 0)
(10.1268 0.0321798 0)
(10.0004 0.00721081 0)
(10.0052 0.0215207 0)
(10.0146 0.0312721 0)
(10.0248 0.0369511 0)
(10.0341 0.040847 0)
(10.0429 0.043473 0)
(10.0516 0.0448336 0)
(10.0598 0.0452715 0)
(10.0675 0.0451346 0)
(10.0746 0.0445885 0)
(10.0814 0.0437065 0)
(10.0878 0.0425333 0)
(10.0939 0.0410934 0)
(10.0997 0.0393824 0)
(10.1052 0.0373809 0)
(10.1104 0.0350649 0)
(10.1151 0.0324314 0)
(10.1193 0.029529 0)
(10.0004 0.00637208 0)
(10.0045 0.0187472 0)
(10.0125 0.0277499 0)
(10.0216 0.033289 0)
(10.0303 0.0370342 0)
(10.0387 0.0395845 0)
(10.0469 0.040998 0)
(10.0548 0.0415257 0)
(10.0622 0.041464 0)
(10.0692 0.0409783 0)
(10.0758 0.0401467 0)
(10.0821 0.0390165 0)
(10.088 0.0376176 0)
(10.0936 0.0359577 0)
(10.0989 0.0340345 0)
(10.1038 0.0318467 0)
(10.1083 0.0294105 0)
(10.1123 0.0267871 0)
(10.0004 0.00558246 0)
(10.0039 0.01625 0)
(10.0107 0.0243873 0)
(10.0189 0.0296781 0)
(10.0269 0.0332525 0)
(10.0348 0.035685 0)
(10.0426 0.0370894 0)
(10.0501 0.0376616 0)
(10.0573 0.0376497 0)
(10.064 0.0372113 0)
(10.0704 0.0364267 0)
(10.0765 0.0353451 0)
(10.0823 0.0340001 0)
(10.0877 0.0324097 0)
(10.0928 0.0305848 0)
(10.0975 0.0285394 0)
(10.1018 0.0263003 0)
(10.1057 0.0239321 0)
(10.0003 0.00487787 0)
(10.0034 0.0141496 0)
(10.0093 0.0214621 0)
(10.0167 0.0264303 0)
(10.0242 0.0298034 0)
(10.0316 0.032091 0)
(10.039 0.0334437 0)
(10.0462 0.034024 0)
(10.053 0.034038 0)
(10.0595 0.0336318 0)
(10.0658 0.0328858 0)
(10.0717 0.0318503 0)
(10.0772 0.0305622 0)
(10.0825 0.0290465 0)
(10.0874 0.0273233 0)
(10.092 0.0254152 0)
(10.0961 0.0233535 0)
(10.0999 0.0212019 0)
(10.0003 0.00421708 0)
(10.003 0.012224 0)
(10.0082 0.0186995 0)
(10.0148 0.0232631 0)
(10.0217 0.0263958 0)
(10.0287 0.0285153 0)
(10.0357 0.0297863 0)
(10.0425 0.0303487 0)
(10.0491 0.0303727 0)
(10.0554 0.0299894 0)
(10.0614 0.0292777 0)
(10.0671 0.0282888 0)
(10.0725 0.0270619 0)
(10.0775 0.0256268 0)
(10.0823 0.0240096 0)
(10.0867 0.0222385 0)
(10.0907 0.0203452 0)
(10.0944 0.0183924 0)
(10.0003 0.00352868 0)
(10.0026 0.0102169 0)
(10.0071 0.0157355 0)
(10.0129 0.0197563 0)
(10.0193 0.0225541 0)
(10.0258 0.0244412 0)
(10.0323 0.0255776 0)
(10.0387 0.026084 0)
(10.045 0.0260952 0)
(10.051 0.0257237 0)
(10.0568 0.0250442 0)
(10.0622 0.0241076 0)
(10.0674 0.0229538 0)
(10.0723 0.0216157 0)
(10.0768 0.0201229 0)
(10.081 0.0185063 0)
(10.0849 0.0167961 0)
(10.0885 0.0150511 0)
(10.0002 0.00280892 0)
(10.0022 0.0081243 0)
(10.006 0.0125807 0)
(10.0112 0.0159179 0)
(10.0169 0.0182683 0)
(10.0229 0.0198427 0)
(10.0289 0.0207793 0)
(10.035 0.0211791 0)
(10.0409 0.0211449 0)
(10.0466 0.0207679 0)
(10.0521 0.020115 0)
(10.0573 0.0192342 0)
(10.0622 0.0181643 0)
(10.0669 0.0169383 0)
(10.0712 0.0155868 0)
(10.0753 0.0141398 0)
(10.079 0.0126245 0)
(10.0824 0.0110934 0)
(10.0002 0.00205814 0)
(10.0019 0.00594918 0)
(10.0052 0.00924562 0)
(10.0097 0.0117567 0)
(10.0148 0.0135312 0)
(10.0202 0.0146954 0)
(10.0258 0.015353 0)
(10.0314 0.0155824 0)
(10.037 0.0154582 0)
(10.0424 0.0150493 0)
(10.0475 0.0144104 0)
(10.0525 0.0135837 0)
(10.0572 0.0126037 0)
(10.0616 0.0115007 0)
(10.0658 0.0103024 0)
(10.0696 0.00903564 0)
(10.0732 0.00772254 0)
(10.0765 0.0064082 0)
(10.0002 0.00127484 0)
(10.0016 0.00367983 0)
(10.0045 0.00571637 0)
(10.0084 0.00725978 0)
(10.013 0.00831976 0)
(10.018 0.00896104 0)
(10.0231 0.00924777 0)
(10.0283 0.00923216 0)
(10.0335 0.00896298 0)
(10.0386 0.00848629 0)
(10.0435 0.00784119 0)
(10.0482 0.00705975 0)
(10.0526 0.00616884 0)
(10.0568 0.00519265 0)
(10.0608 0.00415293 0)
(10.0645 0.00307074 0)
(10.068 0.00196187 0)
(10.0712 0.000863209 0)
(10.0002 0.000443689 0)
(10.0014 0.0012657 0)
(10.004 0.00192085 0)
(10.0075 0.0023469 0)
(10.0117 0.00254315 0)
(10.0163 0.00253304 0)
(10.0211 0.00234263 0)
(10.026 0.00199562 0)
(10.0309 0.00151555 0)
(10.0357 0.000925252 0)
(10.0403 0.000244923 0)
(10.0448 -0.000507901 0)
(10.0491 -0.00131761 0)
(10.0531 -0.00216964 0)
(10.0569 -0.00305053 0)
(10.0605 -0.00394715 0)
(10.0639 -0.0048504 0)
(10.067 -0.00573252 0)
(10.0001 -0.00047816 0)
(10.0014 -0.00141582 0)
(10.0038 -0.00231819 0)
(10.0071 -0.00318203 0)
(10.0112 -0.00400347 0)
(10.0156 -0.00479323 0)
(10.0202 -0.00556549 0)
(10.0249 -0.00632778 0)
(10.0297 -0.00708282 0)
(10.0343 -0.00783249 0)
(10.0388 -0.00857874 0)
(10.0432 -0.00932216 0)
(10.0473 -0.0100621 0)
(10.0513 -0.0107966 0)
(10.055 -0.0115233 0)
(10.0585 -0.0122386 0)
(10.0618 -0.0129412 0)
(10.0649 -0.0136135 0)
(10.0002 -0.00135104 0)
(10.0014 -0.00396466 0)
(10.004 -0.00636024 0)
(10.0075 -0.00845299 0)
(10.0117 -0.0102303 0)
(10.0163 -0.0117468 0)
(10.021 -0.0130585 0)
(10.0258 -0.0142002 0)
(10.0306 -0.0152 0)
(10.0353 -0.0160872 0)
(10.0399 -0.0168868 0)
(10.0442 -0.0176174 0)
(10.0484 -0.0182916 0)
(10.0523 -0.0189196 0)
(10.056 -0.0195087 0)
(10.0596 -0.020064 0)
(10.0628 -0.0205902 0)
(10.0659 -0.0210782 0)
(10.0002 -0.00209086 0)
(10.0016 -0.00615989 0)
(10.0043 -0.00985822 0)
(10.0083 -0.0129578 0)
(10.0129 -0.0154656 0)
(10.0177 -0.0175315 0)
(10.0227 -0.0192538 0)
(10.0277 -0.0206724 0)
(10.0327 -0.0218325 0)
(10.0376 -0.0227917 0)
(10.0422 -0.0235993 0)
(10.0467 -0.0242898 0)
(10.0509 -0.0248884 0)
(10.0549 -0.0254154 0)
(10.0587 -0.0258858 0)
(10.0622 -0.0263109 0)
(10.0656 -0.0266995 0)
(10.0687 -0.0270486 0)
(10.0002 -0.00277467 0)
(10.0017 -0.00829284 0)
(10.0049 -0.0133241 0)
(10.0094 -0.0173398 0)
(10.0145 -0.020421 0)
(10.0198 -0.0228997 0)
(10.0251 -0.0249292 0)
(10.0304 -0.0265498 0)
(10.0357 -0.0278223 0)
(10.0408 -0.0288248 0)
(10.0456 -0.0296199 0)
(10.0502 -0.0302522 0)
(10.0545 -0.0307586 0)
(10.0586 -0.0311694 0)
(10.0624 -0.0315084 0)
(10.066 -0.031792 0)
(10.0694 -0.0320335 0)
(10.0725 -0.0322321 0)
(10.0001 -0.00338313 0)
(10.0017 -0.0104013 0)
(10.0055 -0.0167747 0)
(10.0109 -0.0216188 0)
(10.0166 -0.0252434 0)
(10.0223 -0.0281041 0)
(10.028 -0.0303286 0)
(10.0337 -0.0320015 0)
(10.0392 -0.0332666 0)
(10.0445 -0.0342419 0)
(10.0495 -0.0349928 0)
(10.0543 -0.0355635 0)
(10.0587 -0.0359948 0)
(10.0629 -0.0363219 0)
(10.0668 -0.0365711 0)
(10.0705 -0.0367614 0)
(10.0739 -0.0369074 0)
(10.0771 -0.0370146 0)
(10.0001 -0.0038718 0)
(10.0016 -0.0128927 0)
(10.0061 -0.0203223 0)
(10.0124 -0.0253856 0)
(10.0188 -0.029444 0)
(10.025 -0.0329075 0)
(10.0312 -0.0355084 0)
(10.0373 -0.0372769 0)
(10.0431 -0.0384782 0)
(10.0486 -0.0393135 0)
(10.0538 -0.0398804 0)
(10.0587 -0.0402444 0)
(10.0632 -0.040464 0)
(10.0675 -0.0405873 0)
(10.0715 -0.0406464 0)
(10.0753 -0.0406636 0)
(10.0788 -0.0406517 0)
(10.082 -0.0406076 0)
(9.9998 -0.00354921 0)
(10.0011 -0.0165512 0)
(10.007 -0.0255222 0)
(10.0141 -0.0296962 0)
(10.0207 -0.0330177 0)
(10.0273 -0.0364728 0)
(10.0341 -0.0394047 0)
(10.0409 -0.0415816 0)
(10.0472 -0.0431628 0)
(10.0532 -0.0442952 0)
(10.0587 -0.0450594 0)
(10.0639 -0.04553 0)
(10.0688 -0.0457837 0)
(10.0733 -0.0458851 0)
(10.0775 -0.0458818 0)
(10.0814 -0.0458071 0)
(10.0851 -0.0456868 0)
(10.0885 -0.0455306 0)
(9.99829 1.8215e-07 0)
(9.99797 -0.0176201 0)
(10.0068 -0.0315039 0)
(10.0162 -0.0375889 0)
(10.0233 -0.0402861 0)
(10.0303 -0.0418374 0)
(10.0379 -0.0427931 0)
(10.0455 -0.0434877 0)
(10.0526 -0.0440878 0)
(10.0593 -0.0446013 0)
(10.0656 -0.0449951 0)
(10.0715 -0.045281 0)
(10.077 -0.0454809 0)
(10.082 -0.0456225 0)
(10.0867 -0.0457202 0)
(10.091 -0.0457904 0)
(10.095 -0.0458382 0)
(10.0986 -0.0458316 0)
(9.99413 0.00277647 0)
(9.98996 -0.00760092 0)
(10.0032 -0.0228601 0)
(10.0185 -0.0396807 0)
(10.0302 -0.0530718 0)
(10.0403 -0.0608432 0)
(10.0501 -0.0643794 0)
(10.0593 -0.0656269 0)
(10.0677 -0.0657144 0)
(10.0756 -0.0650892 0)
(10.0829 -0.0640339 0)
(10.0897 -0.0627386 0)
(10.0959 -0.061366 0)
(10.1015 -0.0599963 0)
(10.1066 -0.0586949 0)
(10.1113 -0.057491 0)
(10.1156 -0.0564103 0)
(10.1195 -0.0554055 0)
(9.9942 -0.0305074 0)
(9.99526 -0.0134574 0)
(10.0086 0.0215189 0)
(10.0272 0.0320169 0)
(10.047 0.0241423 0)
(10.0668 0.0116 0)
(10.085 -0.000118111 0)
(10.1007 -0.010334 0)
(10.1139 -0.018974 0)
(10.125 -0.0260469 0)
(10.1343 -0.0316478 0)
(10.1417 -0.0360195 0)
(10.1476 -0.0393932 0)
(10.1519 -0.0419863 0)
(10.1549 -0.0439624 0)
(10.1568 -0.0454905 0)
(10.1578 -0.0467001 0)
(10.1578 -0.0477367 0)
(10.0368 -0.209413 0)
(10.1083 -0.3659 0)
(10.1423 -0.352748 0)
(10.1567 -0.298036 0)
(10.1697 -0.247624 0)
(10.182 -0.206793 0)
(10.1884 -0.174356 0)
(10.1867 -0.148993 0)
(10.1774 -0.129276 0)
(10.1619 -0.113752 0)
(10.1413 -0.101355 0)
(10.1168 -0.0913255 0)
(10.0893 -0.083132 0)
(10.0597 -0.076369 0)
(10.0287 -0.0707558 0)
(9.99681 -0.0661125 0)
(9.96459 -0.0622888 0)
(9.9327 -0.0595859 0)
(9.92866 0.765531 0)
(9.83924 0.742069 0)
(9.70533 0.52443 0)
(9.52634 0.348782 0)
(9.33184 0.227689 0)
(9.14059 0.146985 0)
(8.95878 0.0935809 0)
(8.78887 0.0579869 0)
(8.63226 0.0341219 0)
(8.48958 0.0181048 0)
(8.36021 0.00743998 0)
(8.24333 0.000461906 0)
(8.13777 -0.00408598 0)
(8.04246 -0.00693969 0)
(7.95629 -0.00861774 0)
(7.87829 -0.0095559 0)
(7.8071 -0.010038 0)
(7.74235 -0.0106497 0)
(0.0058699 -0.0117688 5.28253e-17)
(0.0192497 -0.0211381 -4.20724e-17)
(0.0337271 -0.0228564 0)
(0.0466624 -0.0197877 0)
(0.0557221 -0.0142361 0)
(0.060413 -0.00784594 2.57657e-17)
(0.060813 -0.00169475 0)
(0.057378 0.00349042 0)
(0.0510479 0.0074028 0)
(0.0425241 0.0101512 0)
(0.0323937 0.0120463 -2.74423e-17)
(0.0210962 0.013404 0)
(0.00889043 0.0144153 0)
(-0.00408019 0.0150693 0)
(-0.0178362 0.015459 0)
(-0.0324682 0.0158452 -2.5284e-17)
(-0.0480538 0.0163603 0)
(-0.0646967 0.0170426 0)
(-0.082504 0.0178917 0)
(-0.101573 0.0188914 0)
(-0.121983 0.0200186 0)
(-0.143795 0.0212451 0)
(-0.16704 0.0225393 0)
(-0.19173 0.0238672 -1.3004e-17)
(-0.217846 0.0251964 1.20647e-17)
(-0.24535 0.0264975 -1.12154e-17)
(-0.274184 0.0277463 -1.04484e-17)
(-0.304276 0.0289186 0)
(-0.335541 0.0299917 0)
(-0.36788 0.0309484 8.56348e-18)
(-0.401187 0.0317812 8.05226e-18)
(-0.435353 0.0324858 0)
(-0.470268 0.0330626 0)
(-0.505825 0.0335103 6.78873e-18)
(-0.541921 0.0338306 0)
(-0.57846 0.0340268 0)
(-0.615356 0.0341083 -5.83788e-18)
(-0.652531 0.0340888 0)
(-0.689917 0.0339911 -5.33218e-18)
(-0.727456 0.0338393 -1.02196e-17)
(-0.765092 0.0336625 0)
(-0.802773 0.0334854 0)
(-0.840538 0.0333217 0)
(-0.878393 0.033164 0)
(-0.91633 0.0330077 0)
(-0.954344 0.0328498 -8.15542e-18)
(-0.992434 0.0326912 -7.88804e-18)
(-1.03059 0.03253 -7.63723e-18)
(-1.06882 0.0323669 0)
(-1.1071 0.0322005 7.17976e-18)
(-1.14544 0.0320312 0)
(-1.18382 0.0318571 -6.77309e-18)
(-1.22224 0.0316787 -6.58633e-18)
(-1.26069 0.0314939 0)
(-1.29915 0.0313027 0)
(-1.3376 0.0311021 0)
(-1.37605 0.0308925 -5.93146e-18)
(-1.41446 0.030671 0)
(-1.45281 0.0304376 0)
(-1.4911 0.0301893 0)
(-1.52929 0.0299263 0)
(-1.56736 0.0296459 0)
(-1.60528 0.0293483 0)
(-1.64302 0.0290303 0)
(-1.68056 0.0286927 0)
(-1.71786 0.0283325 4.85616e-18)
(-1.75488 0.0279506 0)
(-1.79159 0.0275446 0)
(-1.82796 0.0271154 -4.58709e-18)
(-1.86394 0.0266607 -4.5053e-18)
(-1.89949 0.0261816 0)
(-1.93458 0.0256757 4.35262e-18)
(-1.96915 0.0251444 -4.28143e-18)
(-2.00316 0.0245855 0)
(-2.03658 0.0240006 4.14866e-18)
(-2.06934 0.0233877 0)
(-2.10141 0.022749 0)
(-2.13274 0.0220827 -3.9719e-18)
(-2.16326 0.0213904 0)
(-2.19294 0.02067 3.86788e-18)
(-2.22173 0.0199235 0)
(-2.24956 0.0191489 -3.77416e-18)
(-2.2764 0.0183478 -3.73099e-18)
(-2.30218 0.0175173 -3.69018e-18)
(-2.32685 0.0166589 -7.3034e-18)
(-2.35037 0.0157694 7.23098e-18)
(-2.37266 0.0148486 0)
(-2.39368 0.013891 0)
(-2.41336 0.0128929 0)
(-2.43164 0.011847 6.98538e-18)
(-2.44847 0.0107442 6.93471e-18)
(-2.46377 0.00957642 -6.88831e-18)
(-2.47747 0.00833666 0)
(-2.48948 0.00702293 6.80847e-18)
(-2.49971 0.00564439 6.77525e-18)
(-2.50805 0.00423096 6.74675e-18)
(-2.51438 0.00282947 0)
(-2.51854 0.00148882 0)
(-2.52044 0.000283013 0)
(-2.52058 -0.000811866 6.67445e-18)
(-2.51892 -0.00188156 0)
(-2.51549 -0.00294628 0)
(-2.51027 -0.00401546 -6.65763e-18)
(-2.50323 -0.00508971 0)
(-2.49437 -0.00616761 0)
(-2.48366 -0.00724872 -6.67516e-18)
(-2.47109 -0.00833125 0)
(-2.45665 -0.00941411 0)
(-2.44034 -0.010495 6.72839e-18)
(-2.42215 -0.0115721 6.75437e-18)
(-2.40209 -0.0126431 0)
(-2.38017 -0.0137055 -6.81919e-18)
(-2.3564 -0.0147566 0)
(-2.3308 -0.0157938 6.90176e-18)
(-2.3034 -0.0168143 0)
(-2.27423 -0.0178148 7.00288e-18)
(-2.24333 -0.0187926 7.06067e-18)
(-2.21073 -0.0197436 0)
(-2.17648 -0.0206652 0)
(-2.14064 -0.0215533 0)
(-2.10327 -0.022406 0)
(-2.06441 -0.0232194 0)
(-2.02416 -0.0239932 0)
(-1.98258 -0.0247237 0)
(-1.93975 -0.0254123 7.71288e-18)
(-1.89575 -0.0260557 -7.81982e-18)
(-1.85067 -0.0266566 0)
(-1.80457 -0.0272082 0)
(-1.75755 -0.0277079 0)
(-1.7097 -0.0281504 0)
(-1.66113 -0.02854 -1.69051e-17)
(-1.61191 -0.0288724 0)
(-1.56214 -0.0291457 1.75066e-17)
(-1.51193 -0.0293571 -1.78291e-17)
(-1.46136 -0.0295065 0)
(-1.41055 -0.0295919 0)
(-1.35958 -0.0296123 0)
(-1.30855 -0.0295672 1.92705e-17)
(-1.25756 -0.0294567 1.96699e-17)
(-1.20669 -0.0292851 0)
(-1.15603 -0.0290547 2.05162e-17)
(-1.10567 -0.0287697 2.09632e-17)
(-1.0557 -0.028432 -2.1426e-17)
(-1.00617 -0.028044 0)
(-0.957157 -0.0276068 0)
(-0.908714 -0.0271244 -2.29094e-17)
(-0.860894 -0.0265992 0)
(-0.81374 -0.0260365 0)
(-0.767286 -0.0254397 0)
(-0.721555 -0.024815 0)
(-0.676562 -0.024166 2.5693e-17)
(-0.632311 -0.0235003 2.62956e-17)
(-0.588796 -0.0228234 0)
(-0.546 -0.0221447 2.7547e-17)
(-0.50389 -0.0214692 0)
(-0.462426 -0.0208059 0)
(-0.421556 -0.0201628 2.95452e-17)
(-0.381208 -0.0195517 0)
(-0.341305 -0.018979 3.09685e-17)
(-0.301753 -0.0184573 0)
(-0.262446 -0.0179999 0)
(-0.223264 -0.0176177 3.32798e-17)
(-0.184082 -0.0173202 0)
(-0.144734 -0.01714 3.49806e-17)
(-0.105055 -0.0171148 0)
(-0.0649348 -0.0172515 0)
(-0.0242731 -0.017491 0)
(0.0169205 -0.0176274 -3.86566e-17)
(0.0579277 -0.0174044 0)
(0.0992201 -0.0171211 3.66937e-17)
(0.141906 -0.0171239 0)
(0.18623 -0.0173791 0)
(0.232582 -0.0178279 0)
(0.28124 -0.0184042 0)
(0.332375 -0.0190352 0)
(0.38571 -0.0195901 0)
(0.441383 -0.0197978 0)
(0.494739 -0.0191015 -5.45675e-17)
(0.554453 -0.016206 0)
(0.563303 0.00135725 0)
(0.00767618 -0.0404757 -1.19638e-16)
(0.0180221 -0.0472111 6.71482e-17)
(0.0227751 -0.0385067 0)
(0.0237833 -0.026596 -2.14972e-17)
(0.0218495 -0.0140936 0)
(0.0173784 -0.00208685 -8.66273e-18)
(0.0107879 0.00872211 1.66179e-17)
(0.00224135 0.0178837 1.62026e-17)
(-0.00829869 0.0252537 0)
(-0.0207776 0.0310001 1.51759e-17)
(-0.0351122 0.0354604 7.31719e-18)
(-0.0511995 0.0390166 0)
(-0.0689555 0.042008 0)
(-0.088277 0.0446935 0)
(-0.109027 0.0472742 0)
(-0.131131 0.0499032 6.09411e-18)
(-0.154572 0.0526678 0)
(-0.179333 0.0555934 -1.13221e-17)
(-0.205391 0.0586608 0)
(-0.232708 0.0618243 0)
(-0.261237 0.0650262 1.00871e-17)
(-0.290914 0.0682039 0)
(-0.32166 0.0712962 -9.31121e-18)
(-0.353387 0.0742456 4.47044e-18)
(-0.385995 0.0770025 -4.29225e-18)
(-0.419382 0.0795267 4.12144e-18)
(-0.453439 0.0817909 3.95835e-18)
(-0.488063 0.083781 0)
(-0.52315 0.0854883 0)
(-0.558608 0.0869044 -3.51599e-18)
(-0.594348 0.0880251 3.38472e-18)
(-0.630295 0.0888609 0)
(-0.666378 0.0894327 0)
(-0.702539 0.089764 -3.03452e-18)
(-0.738731 0.0898802 0)
(-0.774917 0.0898059 0)
(-0.811075 0.0895675 2.74222e-18)
(-0.847192 0.0891903 0)
(-0.883264 0.0887027 -2.57556e-18)
(-0.919292 0.0881354 4.99884e-18)
(-0.955275 0.0875222 0)
(-0.991209 0.086893 0)
(-1.02709 0.086264 9.18534e-18)
(-1.0629 0.0856343 8.94272e-18)
(-1.09863 0.0850035 8.7124e-18)
(-1.13429 0.0843695 -4.24687e-18)
(-1.16987 0.0837319 4.14232e-18)
(-1.20536 0.0830887 1.21292e-17)
(-1.24077 0.082439 -7.89659e-18)
(-1.27609 0.0817803 -3.85753e-18)
(-1.31131 0.0811114 0)
(-1.34643 0.0804291 3.68789e-18)
(-1.38143 0.0797323 -3.60869e-18)
(-1.4163 0.0790173 0)
(-1.45104 0.0782825 0)
(-1.48563 0.0775235 0)
(-1.52005 0.0767387 3.32095e-18)
(-1.55428 0.075924 0)
(-1.58831 0.0750776 -6.38699e-18)
(-1.62211 0.0741954 0)
(-1.65566 0.0732762 -6.1504e-18)
(-1.68895 0.0723161 0)
(-1.72193 0.0713142 5.93075e-18)
(-1.75458 0.0702665 0)
(-1.78689 0.0691724 -5.72657e-18)
(-1.81881 0.0680286 2.81508e-18)
(-1.85032 0.0668351 0)
(-1.88138 0.0655891 5.44664e-18)
(-1.91196 0.0642912 2.67978e-18)
(-1.94204 0.0629387 2.63791e-18)
(-1.97156 0.0615326 0)
(-2.0005 0.0600705 2.5588e-18)
(-2.02882 0.0585535 2.52095e-18)
(-2.05648 0.0569797 0)
(-2.08345 0.0553507 -2.44974e-18)
(-2.10969 0.0536651 4.83232e-18)
(-2.13515 0.0519252 0)
(-2.15979 0.0501302 2.35228e-18)
(-2.18358 0.0482822 0)
(-2.20647 0.0463797 -6.87963e-18)
(-2.22843 0.0444253 0)
(-2.2494 0.0424178 6.71534e-18)
(-2.26934 0.0403597 2.21258e-18)
(-2.28822 0.0382499 -2.18795e-18)
(-2.30599 0.0360916 -4.32829e-18)
(-2.32261 0.0338839 4.28261e-18)
(-2.33803 0.0316299 0)
(-2.35221 0.029328 0)
(-2.36511 0.0269792 0)
(-2.37669 0.0245813 -1.23549e-17)
(-2.38691 0.0221309 -4.08167e-18)
(-2.39574 0.0196249 4.04681e-18)
(-2.40315 0.017059 0)
(-2.40913 0.0144279 3.98223e-18)
(-2.41367 0.0117268 -3.95248e-18)
(-2.41679 0.0089635 -3.92459e-18)
(-2.41856 0.00617127 0)
(-2.41906 0.00341505 0)
(-2.41842 0.000784869 0)
(-2.41621 -0.00173339 -3.8251e-18)
(-2.41235 -0.00421392 0)
(-2.40677 -0.00667359 7.56625e-18)
(-2.39945 -0.00912085 1.12936e-17)
(-2.39036 -0.0115557 -7.49477e-18)
(-2.37948 -0.0139744 0)
(-2.36679 -0.016373 -3.71758e-18)
(-2.35228 -0.0187462 0)
(-2.33594 -0.0210894 -7.38841e-18)
(-2.31778 -0.0233968 3.68447e-18)
(-2.29778 -0.0256637 3.67646e-18)
(-2.27596 -0.0278842 0)
(-2.25233 -0.0300528 1.09962e-17)
(-2.2269 -0.0321636 -7.32371e-18)
(-2.1997 -0.0342108 -3.66028e-18)
(-2.17075 -0.0361888 0)
(-2.14009 -0.0380919 -3.66106e-18)
(-2.10775 -0.039915 -1.09904e-17)
(-2.07377 -0.0416523 0)
(-2.03822 -0.0432986 -7.34651e-18)
(-2.00113 -0.044848 -7.36102e-18)
(-1.96257 -0.046296 -7.3786e-18)
(-1.9226 -0.0476377 0)
(-1.8813 -0.0488717 0)
(-1.83874 -0.0499949 0)
(-1.79501 -0.0510107 3.73895e-18)
(-1.75018 -0.051923 3.75604e-18)
(-1.70434 -0.0527334 0)
(-1.65758 -0.0534195 7.58602e-18)
(-1.60998 -0.0539874 7.62767e-18)
(-1.56162 -0.0544481 0)
(-1.51261 -0.0548002 7.71953e-18)
(-1.46304 -0.055036 1.55364e-17)
(-1.41299 -0.0551595 -7.82211e-18)
(-1.36257 -0.0551689 -7.87503e-18)
(-1.31186 -0.0550672 0)
(-1.26098 -0.0548554 0)
(-1.21 -0.0545368 0)
(-1.15902 -0.0541137 -8.12486e-18)
(-1.10813 -0.0535909 8.19018e-18)
(-1.05741 -0.0529758 1.65227e-17)
(-1.00694 -0.0522785 -8.33453e-18)
(-0.956817 -0.0515082 8.40589e-18)
(-0.907101 -0.0506738 8.48367e-18)
(-0.857859 -0.0497809 0)
(-0.80915 -0.0488377 0)
(-0.761021 -0.0478509 -8.71568e-18)
(-0.713516 -0.0468303 0)
(-0.666667 -0.0457832 0)
(-0.620499 -0.0447206 1.79176e-17)
(-0.575025 -0.043651 0)
(-0.530248 -0.0425863 9.12063e-18)
(-0.48616 -0.0415339 -9.20356e-18)
(-0.442742 -0.0405074 0)
(-0.399963 -0.0395159 9.36243e-18)
(-0.357778 -0.0385729 0)
(-0.31613 -0.0376853 0)
(-0.274947 -0.0368688 -9.59721e-18)
(-0.234142 -0.0361322 1.93432e-17)
(-0.193616 -0.0354878 -9.74563e-18)
(-0.153248 -0.034944 0)
(-0.112905 -0.034521 0)
(-0.0724403 -0.0342237 9.95519e-18)
(-0.0316902 -0.0340624 0)
(0.00951479 -0.0340394 1.0082e-17)
(0.0511629 -0.0340906 0)
(0.0934987 -0.0342114 0)
(0.136926 -0.0344339 0)
(0.181803 -0.0346751 9.68185e-18)
(0.228534 -0.034979 0)
(0.277369 -0.0355574 -9.44853e-18)
(0.328382 -0.0364893 0)
(0.381714 -0.0377068 0)
(0.437531 -0.0391231 1.81975e-17)
(0.495927 -0.0406241 -1.79602e-17)
(0.556884 -0.0420641 0)
(0.620015 -0.0432124 0)
(0.685063 -0.043547 0)
(0.748768 -0.0422275 5.13332e-17)
(0.815728 -0.0361845 0)
(0.855758 -0.0149946 -3.44323e-17)
(0.00327472 -0.0596213 -7.4046e-22)
(0.00456631 -0.0522518 -6.75007e-17)
(0.00110562 -0.0341918 0)
(-0.00499965 -0.0164102 2.87614e-17)
(-0.0130264 0.000127813 0)
(-0.0225828 0.01525 0)
(-0.0334863 0.0288317 5.58151e-23)
(-0.0457135 0.0407818 -8.89891e-18)
(-0.0593247 0.0510821 -8.50014e-18)
(-0.074396 0.0598342 -8.19162e-18)
(-0.0909819 0.0672589 0)
(-0.109098 0.0736492 0)
(-0.128722 0.0793098 7.48103e-18)
(-0.1498 0.0845168 1.45452e-17)
(-0.172251 0.0894846 -1.41402e-17)
(-0.195984 0.0943498 0)
(-0.220905 0.0991848 -1.33493e-17)
(-0.246911 0.104006 6.47992e-18)
(-0.273899 0.108789 0)
(-0.301766 0.113481 -1.21936e-17)
(-0.330406 0.118019 -5.90873e-18)
(-0.359718 0.122335 1.14478e-17)
(-0.389601 0.126366 5.5426e-18)
(-0.419962 0.130058 0)
(-0.450712 0.13337 -1.03875e-17)
(-0.481772 0.136271 -1.00547e-17)
(-0.513072 0.138741 0)
(-0.544549 0.140774 -9.42317e-18)
(-0.576144 0.142375 0)
(-0.607806 0.143565 -8.83232e-18)
(-0.639503 0.144369 -4.2771e-18)
(-0.671217 0.144819 0)
(-0.702935 0.14495 0)
(-0.734647 0.144798 0)
(-0.76635 0.144404 0)
(-0.798044 0.143804 0)
(-0.829731 0.143035 0)
(-0.861418 0.142133 -6.95693e-18)
(-0.893109 0.14113 1.01583e-17)
(-0.924809 0.140056 0)
(-0.956517 0.138938 0)
(-0.988229 0.137796 0)
(-1.01994 0.136643 1.49517e-22)
(-1.05163 0.135485 -5.97193e-18)
(-1.08331 0.134323 -1.16657e-17)
(-1.11497 0.133157 1.13992e-17)
(-1.1466 0.131986 5.57192e-18)
(-1.1782 0.130809 -5.44915e-18)
(-1.20976 0.129623 -1.68377e-22)
(-1.24128 0.128425 -5.21834e-18)
(-1.27275 0.127211 0)
(-1.30416 0.125977 -5.00449e-18)
(-1.3355 0.124719 -1.75553e-22)
(-1.36677 0.123432 0)
(-1.39794 0.122113 0)
(-1.429 0.120757 4.62097e-18)
(-1.45994 0.119358 0)
(-1.49073 0.117914 0)
(-1.52137 0.116418 -4.36652e-18)
(-1.55183 0.114868 -8.57398e-18)
(-1.5821 0.113259 4.21002e-18)
(-1.61213 0.111588 0)
(-1.64193 0.109852 -4.06372e-18)
(-1.67145 0.108046 0)
(-1.70067 0.10617 -3.92686e-18)
(-1.72956 0.104218 -3.86111e-18)
(-1.7581 0.102191 7.59584e-18)
(-1.78626 0.100085 3.73668e-18)
(-1.814 0.0979006 0)
(-1.84129 0.0956349 -7.23876e-18)
(-1.8681 0.0932879 0)
(-1.89439 0.0908582 -1.0528e-17)
(-1.92013 0.0883459 -6.91388e-18)
(-1.94529 0.0857503 -6.81226e-18)
(-1.96982 0.0830721 6.71382e-18)
(-1.99369 0.0803111 -9.92758e-18)
(-2.01686 0.077469 0)
(-2.03929 0.0745461 0)
(-2.06094 0.0715438 6.35019e-18)
(-2.08177 0.0684626 9.39954e-18)
(-2.10174 0.0653044 0)
(-2.12082 0.0620699 -3.0534e-18)
(-2.13894 0.058761 0)
(-2.15609 0.0553788 8.93678e-18)
(-2.17221 0.051926 -1.6297e-22)
(-2.18727 0.0484039 1.48603e-22)
(-2.20123 0.0448155 -5.75263e-18)
(-2.21403 0.0411621 0)
(-2.22565 0.0374462 5.62738e-18)
(-2.23604 0.0336694 -8.57549e-23)
(-2.24519 0.0298341 0)
(-2.25305 0.0259446 0)
(-2.25961 0.0220084 0)
(-2.26484 0.0180365 -5.35258e-18)
(-2.26873 0.014045 0)
(-2.27127 0.0100559 0)
(-2.27243 0.0060922 0)
(-2.27216 0.00216629 0)
(-2.27042 -0.00174805 0)
(-2.26709 -0.0056702 -5.08209e-18)
(-2.26216 -0.00958824 0)
(-2.25557 -0.0134952 -5.0042e-18)
(-2.24729 -0.0173858 -4.96801e-18)
(-2.23731 -0.0212536 4.93365e-18)
(-2.2256 -0.0250914 0)
(-2.21214 -0.028891 4.87042e-18)
(-2.19693 -0.0326443 0)
(-2.17995 -0.0363428 4.81438e-18)
(-2.16121 -0.0399777 -4.78904e-18)
(-2.14069 -0.0435403 -1.42957e-17)
(-2.11842 -0.0470213 0)
(-2.09441 -0.0504116 -1.41699e-17)
(-2.06866 -0.0537018 -4.7044e-18)
(-2.0412 -0.0568828 0)
(-2.01207 -0.0599452 -9.34663e-18)
(-1.98128 -0.0628803 -9.32029e-18)
(-1.94888 -0.0656793 1.39466e-17)
(-1.91492 -0.0683339 0)
(-1.87944 -0.0708357 4.63147e-18)
(-1.8425 -0.0731765 4.62515e-18)
(-1.80415 -0.075349 1.38603e-17)
(-1.76446 -0.0773473 0)
(-1.72351 -0.0791671 0)
(-1.68135 -0.0808057 0)
(-1.63809 -0.0822623 4.61692e-18)
(-1.5938 -0.0835422 0)
(-1.54856 -0.0846541 0)
(-1.50246 -0.0855794 -4.63297e-18)
(-1.45557 -0.0863104 -4.64135e-18)
(-1.408 -0.0868644 0)
(-1.35983 -0.087244 0)
(-1.31114 -0.0874439 -9.34783e-18)
(-1.26202 -0.0874658 0)
(-1.21258 -0.0873109 9.40601e-18)
(-1.16288 -0.086983 9.43767e-18)
(-1.11304 -0.086486 0)
(-1.06313 -0.085826 0)
(-1.01325 -0.0850089 -9.55231e-18)
(-0.963461 -0.0840438 -1.49477e-21)
(-0.913855 -0.0829425 -1.48003e-21)
(-0.864506 -0.0817198 0)
(-0.815487 -0.0803897 -1.94727e-17)
(-0.766864 -0.0789663 0)
(-0.718694 -0.0774607 0)
(-0.671027 -0.0758864 0)
(-0.623903 -0.0742556 9.94481e-18)
(-0.577356 -0.0725834 0)
(-0.531411 -0.0708823 -2.0105e-17)
(-0.486081 -0.0691691 -1.01086e-17)
(-0.44137 -0.0674578 0)
(-0.397273 -0.0657662 -1.02181e-17)
(-0.353772 -0.0641069 0)
(-0.310836 -0.0624989 0)
(-0.268425 -0.0609574 -3.11305e-17)
(-0.226485 -0.0595012 2.08548e-17)
(-0.184947 -0.0581426 0)
(-0.143728 -0.0569031 2.10484e-17)
(-0.102732 -0.0557973 -1.05704e-17)
(-0.0618473 -0.0548434 0)
(-0.0209432 -0.0540529 0)
(0.0201089 -0.0534423 0)
(0.0614287 -0.0530109 -3.19387e-17)
(0.103215 -0.0527781 0)
(0.145695 -0.0527477 -1.0508e-17)
(0.189092 -0.0529341 0)
(0.23366 -0.0533663 0)
(0.279639 -0.0540394 0)
(0.327323 -0.0549185 0)
(0.377052 -0.0560411 0)
(0.429089 -0.0574943 0)
(0.483546 -0.0593083 -1.99013e-17)
(0.540532 -0.0614354 0)
(0.600134 -0.0637734 -9.78829e-18)
(0.662374 -0.0661698 2.91186e-17)
(0.727166 -0.0684094 0)
(0.794126 -0.0701446 0)
(0.862971 -0.0707065 -1.89589e-17)
(0.931304 -0.068947 -1.88509e-17)
(1.00301 -0.0617575 1.88203e-17)
(1.05981 -0.0411121 1.89891e-17)
(-0.00292901 -0.0588017 1.81035e-16)
(-0.00894021 -0.0399157 8.10431e-17)
(-0.0178092 -0.0172047 3.04939e-17)
(-0.028597 0.00361998 1.08623e-17)
(-0.0405595 0.0225549 0)
(-0.0533768 0.0398068 -1.53541e-17)
(-0.0670272 0.0554587 6.99794e-18)
(-0.0815719 0.0695352 0)
(-0.0970976 0.0820791 6.24129e-18)
(-0.113696 0.0931916 0)
(-0.131441 0.103039 -1.16231e-17)
(-0.150371 0.111834 0)
(-0.170483 0.119801 -5.48827e-18)
(-0.191737 0.127147 -1.06821e-17)
(-0.214061 0.134037 1.03959e-17)
(-0.237362 0.140586 0)
(-0.261532 0.146857 9.83667e-18)
(-0.286461 0.152866 0)
(-0.312036 0.158597 0)
(-0.33815 0.164014 9.02146e-18)
(-0.364706 0.169069 0)
(-0.391615 0.173713 5.03313e-23)
(-0.418798 0.177906 0)
(-0.446188 0.181615 0)
(-0.473729 0.184822 -3.70478e-23)
(-0.501374 0.187517 7.52117e-18)
(-0.529089 0.189702 7.29418e-18)
(-0.556845 0.19139 7.07539e-18)
(-0.58463 0.192603 0)
(-0.612436 0.193376 1.33321e-17)
(-0.640262 0.193753 0)
(-0.668109 0.193775 6.29285e-18)
(-0.695981 0.193485 0)
(-0.723885 0.192926 0)
(-0.751826 0.192137 -5.79327e-18)
(-0.779812 0.191159 0)
(-0.807852 0.190027 5.49699e-18)
(-0.835949 0.188774 -3.69652e-23)
(-0.864109 0.187429 -1.04536e-17)
(-0.892331 0.186017 1.02009e-17)
(-0.920614 0.184559 0)
(-0.948952 0.183071 0)
(-0.977339 0.181564 4.75155e-18)
(-1.00577 0.180044 0)
(-1.03423 0.178513 4.54094e-18)
(-1.06273 0.176975 -4.44178e-18)