/*--------------------------------*- C++ -*----------------------------------*\
| =========                 |                                                 |
| \\      /  F ield         | OpenFOAM: The Open Source CFD Toolbox           |
|  \\    /   O peration     | Version:  2312                                  |
|   \\  /    A nd           | Website:  www.openfoam.com                      |
|    \\/     M anipulation  |                                                 |
\*---------------------------------------------------------------------------*/
FoamFile
{
    version     2.0;
    format      ascii;
    arch        "LSB;label=32;scalar=64";
    class       volScalarField;
    location    "50";
    object      nut;
}
// * * * * * * * * * * * * * * * * * * * * * * * * * * * * * * * * * * * * * //

dimensions      [0 2 -1 0 0 0 0];

internalField   nonuniform List<scalar> 
12225
(
2.70754e-05
3.55737e-05
4.05235e-05
4.31885e-05
4.44465e-05
4.49495e-05
4.48844e-05
4.48431e-05
4.44651e-05
4.41304e-05
4.37813e-05
4.34328e-05
4.31168e-05
4.28043e-05
4.25489e-05
4.22639e-05
4.20813e-05
4.17856e-05
0.000212896
8.46581e-05
5.58777e-05
4.40308e-05
3.8359e-05
3.53366e-05
3.38378e-05
3.30887e-05
3.28757e-05
3.29131e-05
3.33019e-05
3.3681e-05
3.43673e-05
3.50155e-05
3.57988e-05
3.66158e-05
3.74739e-05
3.83202e-05
0.000656166
0.00030684
0.000193662
0.000142096
0.000113018
9.4214e-05
8.17809e-05
7.29492e-05
6.64879e-05
6.14913e-05
5.76251e-05
5.4518e-05
5.19653e-05
4.9981e-05
4.81153e-05
4.68979e-05
4.54095e-05
4.43283e-05
0.000862579
0.000609393
0.000450926
0.000351142
0.000288586
0.000246087
0.000216046
0.000193548
0.000176921
0.00016317
0.000152872
0.000143524
0.00013655
0.00012968
0.000124536
0.000119221
0.00011502
0.000110091
0.000877382
0.000776199
0.000690039
0.000592398
0.000516449
0.000457643
0.000412613
0.000376187
0.000348458
0.000324293
0.000306133
0.000288914
0.000276392
0.000263314
0.000254276
0.000243769
0.000236848
0.000227616
0.000858413
0.000835201
0.000806958
0.000753327
0.000698795
0.000647804
0.000604079
0.000564807
0.000532989
0.000503583
0.000480573
0.000458073
0.00044123
0.000423323
0.000410854
0.000395896
0.000386697
0.000372729
0.000854279
0.00084949
0.000840708
0.000822862
0.000798415
0.000768166
0.000738711
0.000708739
0.000682416
0.000656253
0.000634555
0.000612461
0.000595099
0.000576312
0.000562654
0.000546194
0.00053582
0.000519764
0.000852408
0.000851562
0.000849824
0.000844426
0.000835935
0.000824319
0.000809928
0.000792965
0.000776648
0.000759029
0.0007434
0.000726601
0.000712599
0.000697098
0.000685102
0.000670735
0.00066102
0.000646422
0.000851916
0.000851463
0.000851101
0.000849844
0.000847534
0.000843537
0.00083847
0.000831032
0.000823319
0.000814448
0.000805615
0.000795532
0.000786541
0.000776347
0.000767781
0.000757759
0.00075011
0.00073934
0.000851821
0.000851367
0.000851083
0.000850594
0.000850027
0.000848769
0.00084728
0.000844742
0.000841839
0.000838034
0.00083414
0.000829332
0.000824721
0.00081933
0.000814345
0.000808741
0.000803545
0.000797319
0.0008518
0.000851358
0.000851024
0.000850618
0.000850319
0.000849801
0.000849309
0.000848457
0.000847521
0.000846127
0.000844687
0.000842745
0.000840842
0.000838405
0.000836191
0.000833295
0.00083103
0.000827529
0.000851791
0.000851364
0.000851001
0.00085061
0.0008503
0.000849922
0.000849608
0.000849169
0.00084876
0.000848152
0.000847566
0.000846725
0.000845941
0.00084483
0.000843883
0.000842483
0.000841453
0.000839748
0.000851785
0.000851369
0.000850989
0.000850609
0.000850275
0.000849925
0.000849627
0.000849288
0.000849
0.000848639
0.000848324
0.000847902
0.000847537
0.000847023
0.000846598
0.000845974
0.000845495
0.000844758
0.000851781
0.000851371
0.00085098
0.000850608
0.00085026
0.000849919
0.000849609
0.000849293
0.000849013
0.000848715
0.000848453
0.000848162
0.000847907
0.000847613
0.000847356
0.00084705
0.000846784
0.000846462
0.000851778
0.00085137
0.000850974
0.000850604
0.00085025
0.000849912
0.000849595
0.000849285
0.000848998
0.000848713
0.000848452
0.000848189
0.000847949
0.000847707
0.000847485
0.00084726
0.000847054
0.000846846
0.000851777
0.000851369
0.00085097
0.0008506
0.000850243
0.000849906
0.000849585
0.000849278
0.000848987
0.000848707
0.000848442
0.000848187
0.000847946
0.000847715
0.000847498
0.000847288
0.000847094
0.000846905
0.000851778
0.000851366
0.000850967
0.000850595
0.000850237
0.000849899
0.000849578
0.00084927
0.000848982
0.000848701
0.000848439
0.000848186
0.000847948
0.00084772
0.000847505
0.0008473
0.000847109
0.000846924
0.00085178
0.000851361
0.000850966
0.000850589
0.000850234
0.000849893
0.000849575
0.000849267
0.00084898
0.000848701
0.000848442
0.00084819
0.000847957
0.00084773
0.00084752
0.000847318
0.000847129
0.000846949
0.000851781
0.000851359
0.000850966
0.000850588
0.000850234
0.000849895
0.000849577
0.000849272
0.000848985
0.000848712
0.000848452
0.000848207
0.000847973
0.000847753
0.000847543
0.000847346
0.000847159
0.000846981
0.000851779
0.000851362
0.000850967
0.000850591
0.000850238
0.000849899
0.000849583
0.00084928
0.000848996
0.000848724
0.000848468
0.000848224
0.000847994
0.000847774
0.000847568
0.000847369
0.000847184
0.000847004
0.000851778
0.000851364
0.000850967
0.000850596
0.000850241
0.000849908
0.000849591
0.000849292
0.000849006
0.000848737
0.000848475
0.000848231
0.000847987
0.000847763
0.000847533
0.000847324
0.000847104
0.000846907
0.000851777
0.000851367
0.000850968
0.000850604
0.000850247
0.000849918
0.000849589
0.000849277
0.000848952
0.000848633
0.000848287
0.000847946
0.000847561
0.000847189
0.000846755
0.000846352
0.000845867
0.000845441
0.000851777
0.000851382
0.000850969
0.000850627
0.000850213
0.000849803
0.000849255
0.000848652
0.000847858
0.000846976
0.000845883
0.000844714
0.000843331
0.000841925
0.000840294
0.000838737
0.000836888
0.000835299
0.000851854
0.000851468
0.000850927
0.000850403
0.000849131
0.000847497
0.000844988
0.000842037
0.00083821
0.000834066
0.000829264
0.000824344
0.00081899
0.000813694
0.000808155
0.000802707
0.000797211
0.000792275
0.000852785
0.000851379
0.000849181
0.000845124
0.000836926
0.000827928
0.00081588
0.000803125
0.000788773
0.000774959
0.000760434
0.00074706
0.000733345
0.000721152
0.000708567
0.000697871
0.000686402
0.000677335
0.000858222
0.000842297
0.000828958
0.000803172
0.000769333
0.000735841
0.000701178
0.000670408
0.000640317
0.000614713
0.00058995
0.00056934
0.000549215
0.000532798
0.000516335
0.000503342
0.000489598
0.000479411
0.000864405
0.000785611
0.000712714
0.000628585
0.000558473
0.000503619
0.000456284
0.000419736
0.000387552
0.000362802
0.000340093
0.000322774
0.000306162
0.000293675
0.000281075
0.000271825
0.000261941
0.00025496
0.000776206
0.000539984
0.00039816
0.000313205
0.000258463
0.00022
0.000191
0.000170062
0.000153199
0.000140601
0.000129881
0.000121745
0.000114437
0.000108944
0.000103658
9.98145e-05
9.58443e-05
9.30229e-05
0.000323767
0.000164772
0.000111513
8.6128e-05
7.09265e-05
6.14237e-05
5.51098e-05
5.0951e-05
4.80312e-05
4.60649e-05
4.46455e-05
4.37239e-05
4.3061e-05
4.27021e-05
4.24391e-05
4.24167e-05
4.239e-05
4.25452e-05
3.26556e-05
3.90541e-05
4.38905e-05
4.69753e-05
4.93659e-05
5.11799e-05
5.25439e-05
5.34837e-05
5.41398e-05
5.45096e-05
5.47399e-05
5.47741e-05
5.47399e-05
5.46533e-05
5.45006e-05
5.43136e-05
5.41101e-05
5.38963e-05
1.01667e-05
2.99267e-05
3.61561e-05
4.0054e-05
4.26054e-05
4.41151e-05
4.50743e-05
4.51577e-05
4.51043e-05
4.46871e-05
4.40516e-05
4.32837e-05
4.21061e-05
4.12184e-05
4.13828e-05
4.16243e-05
4.33287e-05
4.46861e-05
4.60668e-05
4.68474e-05
4.8021e-05
4.99504e-05
5.44987e-05
5.94213e-05
6.47651e-05
7.02192e-05
7.54035e-05
7.99302e-05
8.41979e-05
8.79504e-05
9.14466e-05
9.46024e-05
9.75443e-05
0.00010025
0.000102782
0.000105144
0.000107363
0.000109461
0.00011144
0.000113334
0.000115127
0.000116859
0.0001185
0.000120093
0.000121598
0.000123064
0.000124445
0.000125799
0.000127079
0.000128351
0.000129555
0.000130756
0.000131879
0.000132989
0.000133963
0.000134883
0.000135674
0.000136498
0.000137312
0.000138138
0.00013885
0.000139497
0.000140039
0.000140599
0.000141252
0.000141807
0.000142247
0.000143465
0.00014415
0.000144196
0.000143428
0.00014678
0.000145198
0.000142931
0.000147591
0.00014536
0.000141583
0.000147223
0.000144339
0.000139373
0.000145623
0.000138397
0.0001393
0.000144103
0.000135715
0.000142466
0.000133381
0.000133775
0.000138013
0.000129161
0.000133892
0.000127495
0.000128073
0.000126492
0.000125018
0.00012361
0.000122136
0.000120676
0.000119201
0.000117726
0.000116248
0.000114769
0.000113298
0.000111835
0.000110393
0.000108964
0.000107493
0.000106065
0.000104661
0.000103286
0.000101937
0.000100618
9.93191e-05
9.80435e-05
9.67894e-05
9.55616e-05
9.43659e-05
9.32773e-05
9.23909e-05
9.16198e-05
9.08639e-05
9.012e-05
8.93756e-05
8.86408e-05
8.79035e-05
8.71804e-05
8.64496e-05
8.57417e-05
8.50309e-05
8.43223e-05
8.36385e-05
8.29098e-05
8.22317e-05
8.16239e-05
8.09324e-05
8.02232e-05
7.94821e-05
7.87524e-05
7.80177e-05
7.73104e-05
7.66268e-05
7.5946e-05
7.52488e-05
7.45432e-05
7.38328e-05
7.31377e-05
7.24571e-05
7.17923e-05
7.11408e-05
7.05154e-05
6.99209e-05
6.9371e-05
6.88682e-05
6.84298e-05
6.80758e-05
6.78459e-05
6.77793e-05
6.79096e-05
6.82103e-05
6.8579e-05
6.87561e-05
6.84102e-05
6.7167e-05
6.48649e-05
6.16454e-05
5.81005e-05
5.48679e-05
5.20329e-05
4.96487e-05
4.77154e-05
4.63478e-05
4.49659e-05
4.50097e-05
4.43342e-05
4.39624e-05
4.38946e-05
4.35356e-05
4.29598e-05
4.28411e-05
4.19849e-05
1.77708e-05
5.07619e-05
0.000114019
0.000172003
0.000216343
0.000244043
0.000257696
0.000261166
0.000253038
0.000234947
0.000212174
0.000194245
0.00018357
0.000184752
0.000197924
0.00021119
0.00021559
0.000211759
0.000207966
0.000208705
0.000214564
0.000224272
0.000238399
0.000254323
0.000270762
0.000287835
0.000305511
0.000323571
0.00034403
0.00036608
0.000388543
0.000411296
0.000434177
0.00045697
0.000479576
0.00050186
0.000523784
0.000545284
0.000566377
0.000587046
0.000607345
0.000627288
0.000646953
0.000666376
0.000685648
0.000704808
0.000723934
0.000743048
0.000762197
0.000781369
0.000800574
0.000819774
0.000838934
0.00085801
0.000877009
0.000896007
0.000914897
0.000933528
0.000951362
0.000967988
0.000983079
0.000996504
0.00100884
0.00102143
0.00103516
0.00104918
0.00106288
0.00107584
0.00108813
0.00110565
0.00111429
0.00112912
0.00113286
0.00114486
0.00116398
0.0011613
0.00116273
0.00118539
0.00118643
0.00119002
0.00119748
0.00119286
0.00119247
0.00119578
0.00118701
0.00119004
0.00117693
0.00117178
0.00117183
0.00115711
0.00115666
0.00114088
0.00113528
0.00112295
0.00111287
0.00110217
0.00109139
0.00108048
0.00106954
0.00105858
0.00104765
0.00103678
0.00102601
0.00101537
0.00100497
0.000994985
0.000985446
0.000976066
0.000966766
0.000957587
0.000948524
0.000939613
0.000930785
0.000922043
0.000913346
0.000904685
0.000896028
0.000887246
0.000877221
0.000866167
0.000854637
0.000842968
0.00083125
0.000819573
0.000807921
0.000796376
0.000784878
0.000773507
0.000762222
0.000751025
0.000739938
0.000728891
0.000718139
0.000707517
0.000696887
0.000686463
0.000676153
0.000666179
0.000656487
0.000647058
0.000637817
0.000628534
0.000619293
0.000610221
0.000601384
0.000592842
0.000584563
0.00057648
0.00056863
0.000561083
0.00055384
0.000546879
0.000540132
0.000533595
0.000527292
0.000521302
0.000515665
0.000510343
0.000504975
0.000498854
0.000490498
0.000478034
0.000459496
0.000433853
0.000402135
0.000367053
0.000331957
0.000299719
0.000271745
0.000248367
0.000229983
0.000215626
0.000202285
0.00019038
0.000189221
0.000188942
0.000187335
0.000181163
0.000177556
0.000156151
2.34505e-05
9.43487e-05
0.000198046
0.000280028
0.000337608
0.000374103
0.000393578
0.000400445
0.000400107
0.000394165
0.000385199
0.000375122
0.000366959
0.000363538
0.000364635
0.000368704
0.000375854
0.000386044
0.000400667
0.000418247
0.000439559
0.000465171
0.000494805
0.000528394
0.0005695
0.00061462
0.000663747
0.000716624
0.000769219
0.000819144
0.000869102
0.000918379
0.000966546
0.00101331
0.00105855
0.0011022
0.00114429
0.00118487
0.00122403
0.00126189
0.00129857
0.0013342
0.00136891
0.00140284
0.00143609
0.00146877
0.00150097
0.00153276
0.0015642
0.00159533
0.00162617
0.00165675
0.00168708
0.00171717
0.00174704
0.00177665
0.00180589
0.00183463
0.00186268
0.00189
0.00191659
0.00194256
0.00196828
0.00199404
0.00201963
0.00204457
0.00206873
0.00209195
0.00211438
0.00213643
0.00215537
0.00217464
0.0021907
0.00220179
0.00221573
0.00222333
0.00223974
0.0022526
0.0022574
0.0022614
0.00226323
0.00225998
0.00225647
0.00225219
0.00224312
0.00223542
0.00222209
0.00221027
0.00219903
0.00218281
0.00216949
0.00215074
0.0021343
0.00211503
0.00209601
0.00207648
0.00205667
0.00203664
0.00201649
0.00199627
0.00197606
0.00195591
0.00193588
0.00191602
0.00189643
0.00187722
0.00185847
0.00184019
0.00182187
0.00180365
0.0017856
0.00176774
0.00175
0.00173238
0.00171485
0.00169737
0.0016799
0.00166229
0.0016439
0.00162471
0.00160502
0.0015851
0.00156509
0.00154506
0.00152505
0.00150511
0.00148524
0.00146547
0.00144582
0.00142627
0.00140685
0.00138753
0.00136837
0.00134958
0.00133109
0.00131295
0.00129508
0.00127809
0.00126206
0.0012466
0.00123161
0.00121619
0.00120093
0.00118616
0.00117206
0.00115873
0.00114612
0.00113389
0.00112227
0.00111143
0.00110144
0.00109223
0.00108362
0.00107559
0.00106826
0.00106167
0.00105582
0.00105041
0.00104468
0.00103714
0.0010251
0.00100493
0.000972749
0.000926088
0.000865754
0.00079589
0.000722471
0.000651607
0.000587825
0.000532882
0.000488982
0.000451731
0.000424704
0.000394204
0.000382943
0.0003791
0.000376329
0.000369222
0.000362445
0.000335076
2.70085e-05
0.000156289
0.000293035
0.000388813
0.000448975
0.000481346
0.000494356
0.000493299
0.000484745
0.000474579
0.000467446
0.00046599
0.000470806
0.000481009
0.000495425
0.000513728
0.000533798
0.000556515
0.000583638
0.000621028
0.000667708
0.000722299
0.00078455
0.000851688
0.00091917
0.000989019
0.00106009
0.00113112
0.00120072
0.00126838
0.00133447
0.00139867
0.00146079
0.00152072
0.00157845
0.001634
0.00168748
0.00173898
0.00178865
0.00183663
0.00188304
0.00192804
0.00197176
0.00201433
0.00205586
0.00209647
0.00213624
0.00217528
0.00221363
0.00225139
0.00228859
0.00232529
0.00236153
0.00239734
0.00243275
0.00246773
0.00250229
0.00253637
0.00256998
0.0026031
0.00263576
0.00266792
0.00269976
0.00273121
0.00276209
0.00279215
0.00282124
0.0028492
0.00287596
0.0029013
0.0029247
0.00294645
0.00296585
0.00298381
0.00299342
0.0030032
0.00301985
0.00303089
0.00303692
0.00304004
0.00304021
0.00303723
0.00303217
0.00302492
0.00301493
0.00300332
0.00298914
0.00297389
0.00295739
0.00293873
0.00291934
0.00289787
0.00287591
0.00285265
0.00282881
0.0028044
0.00277955
0.00275437
0.00272895
0.00270338
0.00267773
0.00265207
0.00262646
0.00260095
0.00257563
0.00255057
0.00252585
0.00250164
0.00247722
0.00245291
0.00242875
0.00240476
0.00238089
0.00235713
0.00233347
0.00230987
0.00228627
0.00226254
0.00223841
0.00221379
0.00218881
0.00216362
0.0021383
0.00211295
0.0020876
0.00206228
0.00203702
0.00201184
0.00198676
0.0019618
0.00193695
0.00191223
0.00188767
0.00186341
0.00183947
0.00181592
0.00179271
0.00177009
0.0017482
0.00172697
0.00170635
0.00168668
0.00166807
0.00165036
0.00163389
0.00161871
0.00160483
0.00159118
0.0015786
0.0015674
0.00155767
0.00154926
0.00154176
0.00153519
0.00152994
0.00152589
0.00152302
0.00152084
0.0015184
0.00151381
0.00150359
0.00148273
0.00144562
0.00138815
0.0013101
0.00121568
0.00111235
0.00100855
0.000911846
0.000826351
0.000756076
0.000694649
0.000649339
0.000601483
0.000575339
0.00056451
0.000560306
0.000551925
0.000546273
0.00051838
2.95407e-05
0.000206418
0.000372369
0.000481621
0.00054452
0.00057438
0.000583248
0.000578102
0.000568469
0.000561525
0.000561188
0.00056848
0.000582899
0.000603294
0.000626295
0.000655088
0.000695034
0.000745369
0.000805394
0.000871389
0.000942738
0.00101936
0.00109973
0.00118198
0.00126459
0.00134734
0.00142941
0.00151002
0.00158888
0.00166571
0.00174043
0.00181288
0.00188298
0.0019507
0.00201611
0.00207931
0.00214012
0.00219868
0.00225512
0.00230957
0.00236214
0.00241296
0.00246215
0.00250982
0.00255608
0.00260103
0.00264477
0.00268739
0.00272898
0.0027696
0.00280935
0.00284828
0.00288647
0.00292397
0.00296082
0.00299708
0.00303275
0.00306789
0.00310252
0.00313669
0.00317043
0.00320378
0.00323664
0.00326889
0.00330038
0.00333095
0.00336045
0.0033887
0.00341558
0.0034409
0.00346444
0.00348609
0.00350567
0.00352274
0.00353836
0.00354436
0.00355607
0.00356912
0.00357563
0.00357859
0.00357849
0.00357556
0.0035701
0.00356219
0.00355187
0.00353938
0.00352477
0.0035084
0.00349035
0.00347058
0.00344943
0.00342682
0.00340314
0.00337842
0.00335289
0.00332667
0.0032999
0.00327268
0.00324512
0.00321729
0.00318927
0.00316113
0.00313293
0.00310473
0.00307658
0.00304853
0.00302063
0.00299286
0.00296514
0.00293748
0.00290992
0.00288246
0.00285508
0.00282777
0.00280051
0.00277328
0.00274603
0.0027187
0.00269114
0.0026633
0.00263522
0.00260694
0.00257855
0.00255009
0.00252159
0.00249309
0.00246463
0.00243621
0.00240787
0.00237961
0.00235147
0.00232345
0.00229559
0.00226797
0.00224064
0.00221366
0.00218705
0.00216092
0.0021354
0.0021105
0.00208623
0.00206276
0.00204024
0.00201877
0.00199937
0.00198185
0.00196642
0.00195274
0.00194102
0.00193137
0.00192375
0.00191798
0.00191307
0.00190932
0.00190726
0.00190666
0.00190767
0.00190967
0.00191166
0.00191179
0.00190622
0.00188884
0.00185254
0.00179155
0.00170436
0.00159461
0.00147044
0.00134162
0.0012183
0.00110671
0.00101214
0.000927811
0.000861541
0.000809488
0.000764062
0.000734557
0.000726173
0.000719335
0.000714798
0.000687846
3.15115e-05
0.00024529
0.000439456
0.000563146
0.000632227
0.000664298
0.000674839
0.000671803
0.000665756
0.000664073
0.00067055
0.000686177
0.000709241
0.000741806
0.000786736
0.000841822
0.000904244
0.000974843
0.0010521
0.00113406
0.0012196
0.00130775
0.00139733
0.00148726
0.00157672
0.0016656
0.00175349
0.00184021
0.0019249
0.00200734
0.00208745
0.00216512
0.00224027
0.00231287
0.00238292
0.00245036
0.00251531
0.00257785
0.00263806
0.00269605
0.00275189
0.00280568
0.00285751
0.00290747
0.00295566
0.00300218
0.00304711
0.00309057
0.00313264
0.00317342
0.00321301
0.0032515
0.003289
0.00332558
0.00336134
0.00339634
0.00343067
0.00346438
0.00349754
0.00353018
0.00356232
0.00359395
0.00362501
0.00365541
0.00368507
0.00371386
0.00374166
0.00376834
0.00379377
0.00381779
0.00384024
0.00386099
0.00387985
0.00389663
0.00391096
0.00392448
0.00393009
0.00394133
0.00394822
0.00395158
0.00395192
0.0039495
0.00394451
0.00393705
0.00392723
0.00391519
0.00390105
0.00388501
0.00386718
0.00384769
0.00382672
0.00380437
0.00378085
0.00375628
0.00373081
0.00370458
0.0036777
0.00365027
0.00362239
0.00359414
0.00356559
0.00353681
0.00350785
0.00347876
0.0034496
0.00342038
0.00339116
0.00336194
0.0033327
0.00330346
0.00327423
0.00324501
0.0032158
0.0031866
0.00315739
0.00312817
0.00309889
0.00306953
0.00304002
0.00301032
0.00298043
0.00295038
0.0029202
0.00288993
0.00285961
0.00282925
0.00279889
0.00276855
0.00273826
0.00270805
0.00267793
0.00264793
0.00261808
0.00258845
0.00255908
0.00253003
0.00250135
0.00247312
0.00244543
0.00241834
0.00239189
0.0023662
0.00234141
0.00231766
0.00229545
0.00227507
0.00225766
0.00224306
0.00223141
0.00222258
0.0022164
0.00221256
0.00221054
0.00221019
0.00221165
0.00221494
0.00222014
0.0022265
0.00223301
0.00223836
0.00223887
0.0022272
0.00219511
0.00213509
0.00204441
0.00192604
0.00178839
0.00164189
0.00149866
0.00136606
0.0012505
0.00114564
0.00106211
0.00100089
0.000930789
0.000888337
0.000864667
0.000876866
0.000865662
0.00084135
3.29194e-05
0.000277235
0.000495005
0.000633619
0.000712717
0.0007522
0.000768007
0.000773426
0.000776017
0.000782752
0.000799604
0.000825823
0.000865531
0.000916188
0.000976923
0.00104645
0.00112301
0.00120547
0.00129238
0.00138235
0.00147438
0.00156757
0.00166111
0.00175475
0.00184823
0.00194049
0.00203101
0.00211947
0.00220597
0.00229038
0.00237257
0.00245244
0.00252992
0.00260495
0.00267746
0.00274741
0.00281481
0.00287971
0.00294215
0.00300218
0.00305985
0.00311524
0.00316842
0.00321945
0.00326841
0.0033154
0.0033605
0.00340381
0.00344541
0.00348542
0.00352394
0.00356107
0.00359692
0.0036316
0.00366521
0.00369787
0.00372966
0.00376067
0.003791
0.0038207
0.00384982
0.00387839
0.00390639
0.00393382
0.00396061
0.00398671
0.00401202
0.00403646
0.0040599
0.00408221
0.00410325
0.00412286
0.00414088
0.00415713
0.00417146
0.00418362
0.00419343
0.00419995
0.0042085
0.00421267
0.00421386
0.00421236
0.00420833
0.00420187
0.00419309
0.00418211
0.00416905
0.00415406
0.00413728
0.00411884
0.00409891
0.00407762
0.00405513
0.00403157
0.00400707
0.00398175
0.00395571
0.00392906
0.00390187
0.00387422
0.00384618
0.00381781
0.00378916
0.00376027
0.00373118
0.00370192
0.00367254
0.00364303
0.00361342
0.00358372
0.00355393
0.00352407
0.00349413
0.00346413
0.00343405
0.0034039
0.00337366
0.00334331
0.00331282
0.00328217
0.00325135
0.00322037
0.00318926
0.00315804
0.00312673
0.00309537
0.00306398
0.0030326
0.00300124
0.00296993
0.00293871
0.00290761
0.00287666
0.00284591
0.00281541
0.00278522
0.00275539
0.002726
0.00269713
0.00266884
0.00264122
0.00261436
0.0025884
0.00256349
0.00253994
0.00251811
0.0024987
0.00248276
0.0024708
0.00246242
0.0024572
0.00245475
0.00245462
0.00245652
0.00246039
0.00246619
0.00247392
0.00248327
0.00249363
0.00250405
0.0025115
0.00250687
0.00248107
0.0024245
0.00233353
0.00221077
0.00206464
0.00190621
0.00174835
0.00159998
0.00146783
0.00134649
0.00124847
0.00117491
0.00109966
0.0010332
0.000997735
0.000998358
0.000995446
0.00098496
3.36994e-05
0.000299716
0.000535941
0.000689328
0.00078143
0.000833716
0.000862374
0.00087956
0.000893575
0.000913312
0.000941243
0.000981894
0.00103369
0.00109582
0.00116684
0.0012451
0.00132901
0.00141721
0.00150849
0.00160184
0.00169643
0.00179163
0.00188692
0.00198171
0.00207535
0.00216782
0.00225889
0.00234826
0.00243577
0.00252129
0.00260469
0.00268585
0.00276469
0.00284111
0.00291504
0.00298644
0.00305528
0.00312156
0.00318528
0.00324647
0.00330515
0.00336136
0.00341514
0.00346656
0.00351566
0.00356251
0.0036072
0.0036498
0.0036904
0.00372911
0.00376602
0.00380125
0.00383491
0.00386712
0.00389801
0.0039277
0.00395631
0.00398398
0.00401081
0.00403692
0.0040624
0.00408732
0.00411174
0.00413569
0.00415918
0.00418219
0.00420468
0.00422658
0.00424781
0.00426824
0.00428775
0.00430617
0.00432333
0.00433904
0.00435311
0.00436531
0.00437772
0.0043847
0.00439147
0.00439643
0.00439868
0.00439835
0.00439554
0.00439036
0.0043829
0.00437326
0.00436155
0.00434792
0.0043325
0.00431544
0.00429689
0.004277
0.00425591
0.00423375
0.00421063
0.00418667
0.00416197
0.00413659
0.00411064
0.00408416
0.00405723
0.00402988
0.00400218
0.00397415
0.00394583
0.00391725
0.00388843
0.0038594
0.00383017
0.00380074
0.00377115
0.00374139
0.00371148
0.00368142
0.00365121
0.00362087
0.00359039
0.00355975
0.00352896
0.003498
0.00346687
0.00343557
0.00340412
0.00337255
0.00334087
0.00330911
0.00327731
0.00324548
0.00321367
0.0031819
0.00315021
0.00311862
0.00308719
0.00305596
0.00302497
0.00299429
0.00296398
0.00293411
0.00290475
0.00287598
0.00284791
0.00282061
0.00279424
0.00276896
0.00274501
0.00272274
0.0027027
0.00268578
0.00267357
0.00266552
0.00266104
0.0026596
0.00266075
0.00266415
0.00266961
0.002677
0.00268626
0.00269716
0.00270931
0.00272193
0.00273291
0.00273601
0.00271803
0.00266594
0.00257616
0.0024514
0.00230014
0.00213402
0.00196585
0.00180676
0.00166159
0.00152892
0.00141715
0.00133216
0.00124403
0.00116583
0.00113482
0.00110278
0.00111071
0.00106897
3.39125e-05
0.000310284
0.000559962
0.000728099
0.000835525
0.000903711
0.0009486
0.000980578
0.00100805
0.00103904
0.00108057
0.00113185
0.00119264
0.00126216
0.00133906
0.00142181
0.00150905
0.00159957
0.0016924
0.00178675
0.00188198
0.00197744
0.00207251
0.00216689
0.00226037
0.00235274
0.00244374
0.0025332
0.00262094
0.00270683
0.00279072
0.00287249
0.00295202
0.00302921
0.00310399
0.00317628
0.00324602
0.00331319
0.00337776
0.00343971
0.00349904
0.00355578
0.00360992
0.00366151
0.00371058
0.00375717
0.00380135
0.00384318
0.00388273
0.00392009
0.00395536
0.00398864
0.00402005
0.00404972
0.00407778
0.00410438
0.00412966
0.00415379
0.00417691
0.00419919
0.00422076
0.00424176
0.00426231
0.00428249
0.00430238
0.00432201
0.00434139
0.0043605
0.00437927
0.00439763
0.00441544
0.00443255
0.0044488
0.00446399
0.00447796
0.00449055
0.00450156
0.00451083
0.00451696
0.00452379
0.00452734
0.00452834
0.00452694
0.0045232
0.0045172
0.00450903
0.00449879
0.00448663
0.00447268
0.0044571
0.00444004
0.00442165
0.00440207
0.00438144
0.00435987
0.00433746
0.00431431
0.00429048
0.00426606
0.00424109
0.00421563
0.00418972
0.00416339
0.00413667
0.0041096
0.00408218
0.00405444
0.0040264
0.00399807
0.00396947
0.00394062
0.00391151
0.00388216
0.00385259
0.00382281
0.00379282
0.00376263
0.00373225
0.00370167
0.00367089
0.00363992
0.00360877
0.00357746
0.003546
0.00351441
0.00348273
0.00345098
0.0034192
0.00338741
0.00335566
0.00332397
0.0032924
0.00326098
0.00322975
0.00319878
0.00316813
0.00313784
0.00310801
0.0030787
0.00305
0.00302202
0.00299486
0.00296866
0.00294361
0.00291993
0.00289796
0.00287821
0.0028615
0.00284946
0.00284191
0.00283809
0.00283742
0.00283946
0.00284382
0.00285025
0.00285855
0.00286859
0.00288014
0.00289288
0.00290608
0.002918
0.00292411
0.00291344
0.00286548
0.00277696
0.00265118
0.00249681
0.00232593
0.00215093
0.00198494
0.00183031
0.00169057
0.00156961
0.0014735
0.00137832
0.00128491
0.00125003
0.0012158
0.00118974
0.00115548
3.42933e-05
0.000307593
0.000562781
0.000740476
0.000861796
0.000946807
0.001009
0.00105828
0.00110383
0.00114983
0.0012026
0.00126252
0.00132985
0.00140409
0.00148422
0.00156907
0.00165752
0.00174859
0.00184149
0.00193554
0.00203021
0.00212508
0.00221989
0.00231415
0.00240742
0.00249927
0.00258978
0.00267883
0.00276635
0.00285221
0.0029362
0.0030182
0.00309808
0.00317574
0.00325107
0.00332399
0.0033944
0.00346226
0.00352752
0.00359012
0.00365005
0.00370729
0.00376182
0.00381365
0.0038628
0.00390928
0.00395313
0.00399439
0.00403311
0.00406936
0.00410323
0.0041348
0.00416419
0.00419152
0.00421693
0.00424057
0.00426261
0.00428323
0.00430263
0.00432099
0.00433852
0.0043554
0.00437182
0.00438794
0.00440389
0.00441978
0.00443567
0.0044516
0.00446756
0.00448348
0.00449928
0.00451482
0.00452992
0.00454439
0.00455802
0.00457057
0.00458175
0.00459267
0.00460044
0.00460732
0.00461205
0.00461451
0.00461469
0.00461258
0.00460821
0.00460164
0.00459297
0.00458235
0.00456991
0.00455583
0.00454027
0.00452339
0.00450535
0.00448629
0.00446633
0.00444557
0.00442409
0.00440197
0.00437927
0.00435604
0.00433231
0.00430811
0.00428347
0.0042584
0.00423291
0.00420702
0.00418075
0.00415411
0.00412711
0.00409976
0.00407206
0.00404404
0.0040157
0.00398706
0.00395814
0.00392894
0.00389948
0.00386977
0.00383982
0.00380964
0.00377924
0.00374864
0.00371785
0.0036869
0.00365581
0.0036246
0.00359331
0.00356197
0.00353062
0.0034993
0.00346804
0.00343689
0.0034059
0.00337512
0.0033446
0.0033144
0.00328459
0.00325524
0.00322643
0.00319827
0.00317085
0.00314431
0.00311878
0.00309447
0.00307162
0.00305055
0.00303178
0.00301614
0.00300511
0.00299837
0.00299526
0.00299524
0.00299787
0.00300279
0.0030097
0.00301837
0.00302858
0.00304009
0.00305254
0.00306521
0.00307642
0.0030826
0.00307385
0.00302862
0.00294034
0.00281352
0.00265715
0.0024835
0.00230451
0.00213434
0.00197412
0.00183077
0.00170556
0.00160027
0.00150457
0.00139424
0.00132846
0.00128946
0.00128281
0.00124886
3.4396e-05
0.000299377
0.000558042
0.000745935
0.000879066
0.000976258
0.00105194
0.00111753
0.00117781
0.00123688
0.00129954
0.00136673
0.00143915
0.00151669
0.00159874
0.0016845
0.00177314
0.00186392
0.00195617
0.00204933
0.00214288
0.00223653
0.00233014
0.00242351
0.00251626
0.00260822
0.00269908
0.00278856
0.00287622
0.00296195
0.00304583
0.00312779
0.00320776
0.00328572
0.00336146
0.00343486
0.00350585
0.00357435
0.00364029
0.00370358
0.00376417
0.003822
0.00387706
0.00392933
0.00397879
0.00402543
0.00406925
0.00411027
0.00414852
0.00418404
0.00421688
0.00424711
0.00427484
0.00430017
0.00432322
0.00434416
0.00436316
0.00438042
0.00439614
0.00441057
0.00442395
0.00443652
0.00444854
0.00446024
0.00447183
0.00448349
0.00449537
0.00450758
0.00452018
0.00453316
0.00454647
0.00455998
0.00457355
0.00458699
0.00460009
0.00461262
0.00462436
0.00463551
0.00464483
0.00465293
0.00465917
0.00466339
0.00466546
0.00466529
0.00466283
0.00465809
0.00465117
0.00464222
0.00463141
0.00461892
0.00460492
0.0045896
0.00457315
0.00455571
0.00453741
0.00451837
0.00449867
0.00447838
0.00445754
0.0044362
0.0044144
0.00439213
0.00436941
0.00434625
0.00432263
0.00429858
0.00427409
0.00424917
0.00422384
0.00419809
0.00417193
0.00414537
0.00411841
0.00409108
0.00406338
0.00403535
0.00400699
0.00397833
0.00394938
0.00392016
0.00389069
0.00386099
0.00383108
0.003801
0.00377076
0.00374039
0.00370993
0.0036794
0.00364886
0.00361835
0.0035879
0.00355757
0.00352741
0.00349747
0.0034678
0.00343847
0.00340955
0.00338111
0.00335324
0.00332605
0.00329964
0.00327416
0.00324977
0.00322668
0.00320516
0.00318555
0.0031684
0.00315464
0.00314519
0.00313954
0.00313719
0.00313771
0.00314073
0.00314587
0.00315285
0.0031614
0.00317125
0.0031821
0.00319351
0.0032047
0.0032139
0.00321779
0.0032069
0.00316032
0.00307019
0.0029417
0.00278388
0.00260889
0.00242835
0.00225584
0.00209428
0.00194994
0.00182359
0.00171432
0.00161345
0.00151814
0.00145101
0.00138767
0.00137529
0.00134872
3.41859e-05
0.00028508
0.000541735
0.000736376
0.000882105
0.000994176
0.00108419
0.00115984
0.00122813
0.00129671
0.00136745
0.00144116
0.0015182
0.00159861
0.00168215
0.00176839
0.00185683
0.00194697
0.00203832
0.00213046
0.002223
0.00231565
0.00240812
0.00250011
0.00259155
0.00268236
0.00277237
0.0028614
0.0029493
0.00303581
0.00312071
0.00320374
0.00328445
0.00336278
0.00343885
0.00351262
0.00358396
0.00365311
0.00371978
0.00378383
0.00384516
0.0039037
0.00395943
0.00401233
0.00406234
0.00410941
0.00415353
0.00419468
0.00423283
0.00426801
0.00430024
0.00432955
0.00435602
0.00437973
0.00440079
0.00441933
0.00443554