/*--------------------------------*- C++ -*----------------------------------*\
| =========                 |                                                 |
| \\      /  F ield         | OpenFOAM: The Open Source CFD Toolbox           |
|  \\    /   O peration     | Version:  2312                                  |
|   \\  /    A nd           | Website:  www.openfoam.com                      |
|    \\/     M anipulation  |                                                 |
\*---------------------------------------------------------------------------*/
FoamFile
{
    version     2.0;
    format      ascii;
    arch        "LSB;label=32;scalar=64";
    class       surfaceScalarField;
    location    "50";
    object      phi;
}
// * * * * * * * * * * * * * * * * * * * * * * * * * * * * * * * * * * * * * //

dimensions      [0 3 -1 0 0 0 0];

oriented        oriented;

internalField   nonuniform List<scalar> 
24170
(
3.11499e-06
7.34125e-08
3.01249e-06
1.02506e-07
2.91645e-06
9.604e-08
2.82452e-06
9.19325e-08
2.73748e-06
8.70505e-08
2.65861e-06
7.88772e-08
2.58918e-06
6.94329e-08
2.52851e-06
6.06695e-08
2.47535e-06
5.31653e-08
2.42852e-06
4.68325e-08
2.38703e-06
4.14935e-08
2.35003e-06
3.70122e-08
2.31676e-06
3.32735e-08
2.28651e-06
3.02546e-08
2.25871e-06
2.78016e-08
2.23261e-06
2.60989e-08
2.20714e-06
2.54612e-08
2.34324e-08
2.18369e-06
3.46861e-06
2.20512e-08
3.48671e-06
8.43989e-08
3.49324e-06
8.95126e-08
3.49181e-06
9.33703e-08
3.48338e-06
9.54922e-08
3.4692e-06
9.30679e-08
3.45051e-06
8.81428e-08
3.42844e-06
8.27585e-08
3.4041e-06
7.75205e-08
3.37845e-06
7.25012e-08
3.35219e-06
6.77732e-08
3.32575e-06
6.34798e-08
3.29937e-06
5.96656e-08
3.27328e-06
5.63743e-08
3.24756e-06
5.35356e-08
3.22235e-06
5.13312e-08
3.19829e-06
4.95253e-08
4.65166e-08
3.17522e-06
3.66797e-06
1.65956e-08
3.68013e-06
7.22462e-08
3.68955e-06
8.0094e-08
3.69919e-06
8.37177e-08
3.70784e-06
8.68539e-08
3.71439e-06
8.65168e-08
3.71868e-06
8.38441e-08
3.72087e-06
8.05676e-08
3.72118e-06
7.72134e-08
3.71987e-06
7.38064e-08
3.71719e-06
7.04542e-08
3.71331e-06
6.73582e-08
3.70835e-06
6.46246e-08
3.70244e-06
6.22872e-08
3.69565e-06
6.03279e-08
3.68822e-06
5.87494e-08
3.68022e-06
5.75152e-08
5.58331e-08
3.6709e-06
3.9249e-06
1.70844e-08
3.93529e-06
6.18587e-08
3.94254e-06
7.2855e-08
3.94912e-06
7.71477e-08
3.95526e-06
8.07238e-08
3.96039e-06
8.13925e-08
3.96454e-06
7.97097e-08
3.96788e-06
7.72366e-08
3.97052e-06
7.45859e-08
3.97251e-06
7.18294e-08
3.9739e-06
6.9088e-08
3.97469e-06
6.65751e-08
3.97492e-06
6.44159e-08
3.97458e-06
6.26382e-08
3.9737e-06
6.12213e-08
3.97232e-06
6.014e-08
3.97032e-06
5.95199e-08
5.90903e-08
3.96707e-06
4.20764e-06
1.65764e-08
4.21579e-06
5.37108e-08
4.22162e-06
6.70153e-08
4.22662e-06
7.21482e-08
4.23146e-06
7.58846e-08
4.23574e-06
7.7112e-08
4.23935e-06
7.60971e-08
4.2424e-06
7.41803e-08
4.24496e-06
7.20179e-08
4.24706e-06
6.97288e-08
4.2487e-06
6.74435e-08
4.24991e-06
6.53609e-08
4.25071e-06
6.36187e-08
4.25109e-06
6.22508e-08
4.25107e-06
6.12424e-08
4.25061e-06
6.05943e-08
4.24969e-06
6.04327e-08
6.05806e-08
4.2482e-06
4.51033e-06
1.5339e-08
4.51681e-06
4.72403e-08
4.52214e-06
6.16947e-08
4.52674e-06
6.75527e-08
4.53123e-06
7.14095e-08
4.53528e-06
7.30663e-08
4.53874e-06
7.26517e-08
4.54166e-06
7.12651e-08
4.54413e-06
6.95598e-08
4.54615e-06
6.77099e-08
4.54776e-06
6.58493e-08
4.54896e-06
6.4165e-08
4.5498e-06
6.27957e-08
4.55027e-06
6.17861e-08
4.55038e-06
6.11339e-08
4.55013e-06
6.08513e-08
4.54953e-06
6.10335e-08
6.15944e-08
4.54851e-06
4.83406e-06
1.40044e-08
4.83957e-06
4.17247e-08
4.8448e-06
5.64701e-08
4.84937e-06
6.29764e-08
4.85374e-06
6.70379e-08
4.85772e-06
6.90863e-08
4.86114e-06
6.92256e-08
4.86405e-06
6.83511e-08
4.86651e-06
6.70902e-08
4.86855e-06
6.56657e-08
4.87018e-06
6.42206e-08
4.87142e-06
6.29255e-08
4.8723e-06
6.19148e-08
4.87284e-06
6.12419e-08
4.87306e-06
6.09157e-08
4.87295e-06
6.09552e-08
4.87253e-06
6.14426e-08
6.23601e-08
4.87176e-06
5.18086e-06
1.27246e-08
5.1857e-06
3.69001e-08
5.19081e-06
5.13755e-08
5.19538e-06
5.84123e-08
5.19971e-06
6.27192e-08
5.20369e-06
6.51113e-08
5.20717e-06
6.57516e-08
5.21016e-06
6.5368e-08
5.21271e-06
6.45464e-08
5.21484e-06
6.35393e-08
5.21657e-06
6.25033e-08
5.21791e-06
6.15925e-08
5.2189e-06
6.09348e-08
5.21956e-06
6.05846e-08
5.21991e-06
6.0562e-08
5.21998e-06
6.08908e-08
5.21977e-06
6.16462e-08
6.28017e-08
5.21933e-06
5.55258e-06
1.14876e-08
5.55685e-06
3.26303e-08
5.56173e-06
4.64852e-08
5.56627e-06
5.38682e-08
5.57059e-06
5.84017e-08
5.57462e-06
6.10792e-08
5.57821e-06
6.2159e-08
5.58133e-06
6.22459e-08
5.58402e-06
6.18585e-08
5.58629e-06
6.12621e-08
5.58817e-06
6.06237e-08
5.58967e-06
6.00916e-08
5.59083e-06
5.97808e-08
5.59167e-06
5.97435e-08
5.59222e-06
6.0006e-08
5.59252e-06
6.05962e-08
5.59259e-06
6.15688e-08
6.28847e-08
5.59251e-06
5.95097e-06
1.02955e-08
5.95475e-06
2.88602e-08
5.95938e-06
4.18737e-08
5.96386e-06
4.94018e-08
5.96817e-06
5.4102e-08
5.97225e-06
5.70032e-08
5.97596e-06
5.84609e-08
5.97923e-06
5.89893e-08
5.98207e-06
5.90216e-08
5.98453e-06
5.88171e-08
5.9866e-06
5.85541e-08
5.98832e-06
5.83845e-08
5.9897e-06
5.84058e-08
5.99078e-06
5.86677e-08
5.99159e-06
5.9192e-08
5.99218e-06
6.00072e-08
5.9926e-06
6.11518e-08
6.2586e-08
5.99291e-06
6.37794e-06
9.16705e-09
6.38132e-06
2.54809e-08
6.38568e-06
3.7519e-08
6.39007e-06
4.50069e-08
6.39438e-06
4.98015e-08
6.39851e-06
5.28709e-08
6.40233e-06
5.46471e-08
6.40575e-06
5.5574e-08
6.40877e-06
5.60015e-08
6.41143e-06
5.61638e-08
6.41374e-06
5.6253e-08
6.4157e-06
5.64184e-08
6.41736e-06
5.67556e-08
6.41874e-06
5.72896e-08
6.41987e-06
5.80525e-08
6.42082e-06
5.90573e-08
6.42164e-06
6.03367e-08
6.18449e-08
6.42239e-06
5.74174e-06
8.26249e-09
5.74432e-06
2.29022e-08
5.74781e-06
3.40454e-08
5.75146e-06
4.13585e-08
5.75509e-06
4.61797e-08
5.75861e-06
4.93568e-08
5.76191e-06
5.13491e-08
5.76493e-06
5.25583e-08
5.76765e-06
5.32862e-08
5.77007e-06
5.3743e-08
5.77221e-06
5.41113e-08
5.77409e-06
5.45451e-08
5.77573e-06
5.51074e-08
5.77716e-06
5.58546e-08
5.77843e-06
5.67799e-08
5.77956e-06
5.79228e-08
5.7806e-06
5.92819e-08
6.08341e-08
5.78163e-06
6.99913e-06
7.2953e-09
7.00186e-06
2.0165e-08
7.00564e-06
3.02719e-08
7.00973e-06
3.72706e-08
7.01388e-06
4.20387e-08
7.01796e-06
4.52813e-08
7.02185e-06
4.74649e-08
7.02546e-06
4.89553e-08
7.02876e-06
4.99893e-08
7.03175e-06
5.07477e-08
7.03446e-06
5.14075e-08
7.0369e-06
5.21019e-08
7.03909e-06
5.29157e-08
7.04107e-06
5.38602e-08
7.04289e-06
5.49624e-08
7.04458e-06
5.62152e-08
7.04622e-06
5.7648e-08
5.91912e-08
7.04786e-06
8.53187e-06
6.27113e-09
8.53475e-06
1.7284e-08
8.5388e-06
2.62242e-08
8.54335e-06
3.27176e-08
8.54807e-06
3.73306e-08
8.55278e-06
4.0572e-08
8.55734e-06
4.29006e-08
8.56166e-06
4.46342e-08
8.56569e-06
4.5965e-08
8.56941e-06
4.702e-08
8.57286e-06
4.7967e-08
8.57604e-06
4.89198e-08
8.57899e-06
4.99655e-08
8.58174e-06
5.11089e-08
8.58432e-06
5.23632e-08
8.58682e-06
5.37166e-08
8.58927e-06
5.51741e-08
5.66851e-08
8.5918e-06
1.04003e-05
5.20594e-09
1.04033e-05
1.42602e-08
1.04076e-05
2.18972e-08
1.04127e-05
2.76733e-08
1.0418e-05
3.1976e-08
1.04235e-05
3.51444e-08
1.04288e-05
3.75288e-08
1.0434e-05
3.944e-08
1.0439e-05
4.10122e-08
1.04436e-05
4.2354e-08
1.0448e-05
4.3552e-08
1.04522e-05
4.47529e-08
1.04562e-05
4.59883e-08
1.046e-05
4.73139e-08
1.04637e-05
4.86817e-08
1.04673e-05
5.01102e-08
1.04709e-05
5.15613e-08
5.30135e-08
1.04745e-05
1.26779e-05
4.07769e-09
1.26811e-05
1.10729e-08
1.26858e-05
1.72472e-08
1.26913e-05
2.20806e-08
1.26975e-05
2.58724e-08
1.27038e-05
2.88245e-08
1.27101e-05
3.11646e-08
1.27164e-05
3.31352e-08
1.27226e-05
3.48779e-08
1.27285e-05
3.64276e-08
1.27342e-05
3.786e-08
1.27397e-05
3.92394e-08
1.27451e-05
4.06508e-08
1.27503e-05
4.20858e-08
1.27554e-05
4.35517e-08
1.27605e-05
4.49992e-08
1.27657e-05
4.64401e-08
4.77974e-08
1.27708e-05
1.54544e-05
2.86494e-09
1.54578e-05
7.63922e-09
1.5463e-05
1.21175e-08
1.54693e-05
1.57754e-08
1.54763e-05
1.88085e-08
1.54838e-05
2.13469e-08
1.54915e-05
2.34916e-08
1.54992e-05
2.53948e-08
1.55069e-05
2.71716e-08
1.55145e-05
2.88438e-08
1.5522e-05
3.04237e-08
1.55293e-05
3.19455e-08
1.55365e-05
3.34593e-08
1.55436e-05
3.49733e-08
1.55507e-05
3.64751e-08
1.55577e-05
3.79266e-08
1.55648e-05
3.93179e-08
4.06132e-08
1.55721e-05
1.8839e-05
1.50324e-09
1.88429e-05
3.75849e-09
1.88488e-05
6.20934e-09
1.88562e-05
8.38623e-09
1.88646e-05
1.03749e-08
1.88738e-05
1.22418e-08
1.88832e-05
1.40006e-08
1.8893e-05
1.56853e-08
1.89028e-05
1.73502e-08
1.89126e-05
1.90035e-08
1.89224e-05
2.06348e-08
1.89322e-05
2.22361e-08
1.89418e-05
2.38169e-08
1.89514e-05
2.53697e-08
1.8961e-05
2.68818e-08
1.89706e-05
2.83271e-08
1.89802e-05
2.96902e-08
3.09542e-08
1.89899e-05
2.2965e-05
-1.84758e-10
2.29697e-05
-9.54485e-10
2.2977e-05
-1.06371e-09
2.29862e-05
-8.15677e-10
2.29969e-05
-2.20983e-10
2.30084e-05
6.70059e-10
2.30206e-05
1.81362e-09
2.30332e-05
3.11585e-09
2.3046e-05
4.53648e-09
2.3059e-05
6.05073e-09
2.3072e-05
7.65439e-09
2.3085e-05
9.29257e-09
2.30978e-05
1.09346e-08
2.31107e-05
1.25315e-08
2.31235e-05
1.40724e-08
2.31363e-05
1.5534e-08
2.3149e-05
1.69117e-08
1.82033e-08
2.31618e-05
1.68121e-05
-1.54028e-09
1.68158e-05
-4.70721e-09
1.68217e-05
-6.89135e-09
1.6829e-05
-8.17783e-09
1.68375e-05
-8.66131e-09
1.68467e-05
-8.49652e-09
1.68563e-05
-7.84022e-09
1.68663e-05
-6.81192e-09
1.68764e-05
-5.57369e-09
1.68866e-05
-4.1314e-09
1.68968e-05
-2.56625e-09
1.6907e-05
-8.82444e-10
1.69171e-05
7.94861e-10
1.69272e-05
2.46735e-09
1.69372e-05
4.05373e-09
1.69472e-05
5.59325e-09
1.6957e-05
7.02846e-09
8.41754e-09
1.69669e-05
1.46359e-05
-2.83842e-09
1.46395e-05
-8.36892e-09
1.46453e-05
-1.26095e-08
1.46524e-05
-1.53059e-08
1.46604e-05
-1.66835e-08
1.46691e-05
-1.71508e-08
1.46782e-05
-1.6898e-08
1.46875e-05
-1.61217e-08
1.46969e-05
-1.49772e-08
1.47064e-05
-1.35789e-08
1.47158e-05
-1.19652e-08
1.47251e-05
-1.02374e-08
1.47344e-05
-8.46231e-09
1.47436e-05
-6.72252e-09
1.47527e-05
-5.03067e-09
1.47617e-05
-3.41756e-09
1.47706e-05
-1.87483e-09
-4.10665e-10
1.47794e-05
1.27413e-05
-4.02555e-09
1.2745e-05
-1.20195e-08
1.27508e-05
-1.84193e-08
1.27578e-05
-2.22982e-08
1.27655e-05
-2.43334e-08
1.27736e-05
-2.53034e-08
1.27821e-05
-2.53991e-08
1.27908e-05
-2.47913e-08
1.27995e-05
-2.37029e-08
1.28083e-05
-2.22712e-08
1.28169e-05
-2.05827e-08
1.28254e-05
-1.87498e-08
1.28338e-05
-1.68578e-08
1.28421e-05
-1.49997e-08
1.28502e-05
-1.31849e-08
1.28583e-05
-1.14524e-08
1.28662e-05
-9.78799e-09
-8.19522e-09
1.2874e-05
1.10919e-05
-4.96533e-09
1.10955e-05
-1.56692e-08
1.11016e-05
-2.44745e-08
1.11085e-05
-2.92144e-08
1.11158e-05
-3.16528e-08
1.11235e-05
-3.29956e-08
1.11314e-05
-3.33135e-08
1.11394e-05
-3.27737e-08
1.11474e-05
-3.16742e-08
1.11553e-05
-3.01853e-08
1.11632e-05
-2.84063e-08
1.11709e-05
-2.64422e-08
1.11785e-05
-2.44262e-08
1.11859e-05
-2.24189e-08
1.11932e-05
-2.04844e-08
1.12004e-05
-1.86108e-08
1.12074e-05
-1.68375e-08
-1.51268e-08
1.12143e-05
9.65579e-06
-5.54501e-09
9.65957e-06
-1.94445e-08
9.66575e-06
-3.06475e-08
9.67238e-06
-3.58393e-08
9.67937e-06
-3.86456e-08
9.68672e-06
-4.03376e-08
9.69413e-06
-4.07244e-08
9.70147e-06
-4.01087e-08
9.70872e-06
-3.89153e-08
9.71586e-06
-3.73291e-08
9.72289e-06
-3.54268e-08
9.72978e-06
-3.33249e-08
9.73653e-06
-3.11596e-08
9.74313e-06
-2.90213e-08
9.74961e-06
-2.69508e-08
9.75596e-06
-2.49626e-08
9.76219e-06
-2.30652e-08
-2.12134e-08
9.76828e-06
8.40507e-06
-5.25805e-09
8.40982e-06
-2.4198e-08
8.4158e-06
-3.6632e-08
8.42165e-06
-4.16784e-08
8.42813e-06
-4.51313e-08
8.43512e-06
-4.73196e-08
8.44215e-06
-4.77522e-08
8.44906e-06
-4.70168e-08
8.45583e-06
-4.56889e-08
8.46246e-06
-4.3955e-08
8.46891e-06
-4.18785e-08
8.47518e-06
-3.95866e-08
8.48127e-06
-3.72384e-08
8.48719e-06
-3.49387e-08
8.49297e-06
-3.27252e-08
8.49861e-06
-3.06115e-08
8.50417e-06
-2.86085e-08
-2.67014e-08
8.50966e-06
7.31375e-06
-1.72023e-09
7.32111e-06
-3.1559e-08
7.32745e-06
-4.29743e-08
7.33296e-06
-4.71856e-08
7.33916e-06
-5.1324e-08
7.34577e-06
-5.39384e-08
7.35241e-06
-5.4383e-08
7.35896e-06
-5.35763e-08
7.36544e-06
-5.21642e-08
7.37177e-06
-5.02871e-08
7.37792e-06
-4.80278e-08
7.38386e-06
-4.55176e-08
7.38959e-06
-4.29624e-08
7.39512e-06
-4.04678e-08
7.40047e-06
-3.80767e-08
7.40566e-06
-3.57939e-08
7.41068e-06
-3.36223e-08
-3.14719e-08
7.41547e-06
6.36061e-06
7.73356e-09
6.37064e-06
-4.15888e-08
6.37892e-06
-5.12592e-08
6.3866e-06
-5.48437e-08
6.39446e-06
-5.91986e-08
6.40194e-06
-6.14186e-08
6.4089e-06
-6.13403e-08
6.41551e-06
-6.01867e-08
6.42188e-06
-5.85343e-08
6.42801e-06
-5.64213e-08
6.43389e-06
-5.38955e-08
6.43951e-06
-5.11467e-08
6.44489e-06
-4.83341e-08
6.45002e-06
-4.55922e-08
6.4549e-06
-4.29618e-08
6.45957e-06
-4.04605e-08
6.46406e-06
-3.81151e-08
-3.58929e-08
6.46852e-06
5.53927e-06
1.39312e-08
5.54783e-06
-5.01527e-08
5.55644e-06
-5.9862e-08
5.56712e-06
-6.55205e-08
5.57885e-06
-7.09324e-08
5.59e-06
-7.258e-08
5.60002e-06
-7.13591e-08
5.60886e-06
-6.90308e-08
5.61657e-06
-6.62422e-08
5.62323e-06
-6.30692e-08
5.62894e-06
-5.96033e-08
5.63381e-06
-5.60156e-08
5.63792e-06
-5.24544e-08
5.64136e-06
-4.90275e-08
5.64418e-06
-4.57814e-08
5.64649e-06
-4.27747e-08
5.64839e-06
-3.99879e-08
-3.75254e-08
5.65003e-06
4.87149e-06
-2.99535e-08
4.88654e-06
-6.51998e-08
4.89745e-06
-7.07729e-08
4.9065e-06
-7.45611e-08
4.91387e-06
-7.83062e-08
4.9186e-06
-7.73199e-08
4.92006e-06
-7.28152e-08
4.91806e-06
-6.70415e-08
4.91291e-06
-6.10848e-08
4.90513e-06
-5.52814e-08
4.89532e-06
-4.9789e-08
4.884e-06
-4.46991e-08
4.8716e-06
-4.00585e-08
4.85845e-06
-3.58814e-08
4.84483e-06
-3.21651e-08
4.83099e-06
-2.89297e-08
4.81721e-06
-2.61921e-08
-2.44635e-08
4.80417e-06
4.17272e-06
4.10752e-06
4.03675e-06
3.96219e-06
3.88388e-06
3.80656e-06
3.73375e-06
3.66671e-06
3.60562e-06
3.55034e-06
3.50055e-06
3.45585e-06
3.41579e-06
3.37991e-06
3.34775e-06
3.31882e-06
3.29263e-06
3.26817e-06
7.43268e-08
-7.42381e-08
2.46215e-07
-1.71591e-07
4.19951e-07
-1.73791e-07
5.7153e-07
-1.51517e-07
6.9373e-07
-1.22311e-07
7.84285e-07
-9.05269e-08
8.41898e-07
-5.77653e-08
8.66564e-07
-2.4508e-08
8.58217e-07
8.18542e-09
8.21432e-07
3.71337e-08
7.62826e-07
5.84249e-08
6.93553e-07
6.97329e-08
6.22183e-07
7.11127e-08
5.56502e-07
6.60607e-08
4.95117e-07
6.09403e-08
4.35115e-07
6.02218e-08
3.70391e-07
6.39645e-08
2.98705e-07
7.20801e-08
2.12165e-07
8.55628e-08
1.0945e-07
1.03871e-07
-1.61964e-08
1.24761e-07
-1.6474e-07
1.50158e-07
-3.39936e-07
1.74626e-07
-5.328e-07
1.94178e-07
-7.41605e-07
2.08452e-07
-9.58894e-07
2.18102e-07
-1.18263e-06
2.23361e-07
-1.40707e-06
2.24809e-07
-1.63034e-06
2.22978e-07
-1.84876e-06
2.18511e-07
-2.061e-06
2.12e-07
-2.26519e-06
2.04129e-07
-2.46069e-06
1.95389e-07
-2.64705e-06
1.86226e-07
-2.82401e-06
1.76965e-07
-2.99201e-06
1.67848e-07
-3.15097e-06
1.59056e-07
-3.30181e-06
1.50669e-07
-3.44442e-06
1.4277e-07
-3.57996e-06
1.35334e-07
-3.70816e-06
1.28392e-07
-3.83023e-06
1.21855e-07
-3.94573e-06
1.15731e-07
-4.05584e-06
1.09897e-07
-4.15989e-06
1.04359e-07
-4.25905e-06
9.89696e-08
-4.35247e-06
9.37508e-08
-4.44123e-06
8.85442e-08
-4.52425e-06
8.33796e-08
-4.60265e-06
7.80994e-08
-4.67512e-06
7.27722e-08
-4.74276e-06
6.72158e-08
-4.80406e-06
6.1528e-08
-4.86007e-06
5.5543e-08
-4.90909e-06
4.93534e-08
-4.95227e-06
4.2709e-08
-4.98768e-06
3.57326e-08
-5.0164e-06
2.82575e-08
-5.03652e-06
2.05727e-08
-5.04958e-06
1.26367e-08
-5.05414e-06
4.99323e-09
-5.05218e-06
-2.24556e-09
-5.04258e-06
-8.98861e-09
-5.02693e-06
-1.57664e-08
-5.00382e-06
-2.24315e-08
-4.97464e-06
-2.92377e-08
-4.93802e-06
-3.59954e-08
-4.8952e-06
-4.29026e-08
-4.84485e-06
-4.9847e-08
-4.78834e-06
-5.66148e-08
-4.72488e-06
-6.30476e-08
-4.6547e-06
-7.02463e-08
-4.57788e-06
-7.64903e-08
-4.49603e-06
-8.1815e-08
-4.40739e-06
-8.83529e-08
-4.31307e-06
-9.41231e-08
-4.21446e-06
-9.83375e-08
-4.11006e-06
-1.04049e-07
-4.00133e-06
-1.08518e-07
-3.88959e-06
-1.11195e-07
-3.77413e-06
-1.15213e-07
-3.65457e-06
-1.18864e-07
-3.53389e-06
-1.2054e-07
-3.4106e-06
-1.22392e-07
-3.28632e-06
-1.24027e-07
-3.16075e-06
-1.24644e-07
-3.03476e-06
-1.25944e-07
-2.90919e-06
-1.25478e-07
-2.78443e-06
-1.25358e-07
-2.66062e-06
-1.25083e-07
-2.53761e-06
-1.23971e-07
-2.41517e-06
-1.23139e-07
-2.2943e-06
-1.21313e-07
-2.17492e-06
-1.19779e-07
-2.05746e-06
-1.17731e-07
-1.94208e-06
-1.15624e-07
-1.82882e-06
-1.13372e-07
-1.71785e-06
-1.11025e-07
-1.60916e-06
-1.08611e-07
-1.50287e-06
-1.06147e-07
-1.39889e-06
-1.03669e-07
-1.29725e-06
-1.01149e-07
-1.19791e-06
-9.86449e-08
-1.1009e-06
-9.61054e-08
-1.00632e-06
-9.36525e-08
-9.14153e-07
-9.12211e-08
-8.24459e-07
-8.89348e-08
-7.37082e-07
-8.67156e-08
-6.52005e-07
-8.46391e-08
-5.69054e-07
-8.26088e-08
-4.88182e-07
-8.07068e-08
-4.09218e-07
-7.88615e-08
-3.32113e-07
-7.71344e-08
-2.5675e-07
-7.54418e-08
-1.83038e-07
-7.38764e-08
-1.10869e-07
-7.23562e-08
-4.03274e-08
-7.07856e-08
2.8546e-08
-6.91669e-08
9.60957e-08
-6.79232e-08
1.62409e-07
-6.66454e-08
2.27284e-07
-6.51118e-08
2.90709e-07
-6.35148e-08
3.52624e-07
-6.19554e-08
4.13024e-07
-6.04126e-08
4.71874e-07
-5.89368e-08
5.2926e-07
-5.74898e-08
5.85196e-07
-5.61085e-08
6.39801e-07
-5.47731e-08
6.93065e-07
-5.34787e-08
7.45046e-07
-5.2181e-08
7.95718e-07
-5.09073e-08
8.45134e-07
-4.96326e-08
8.93301e-07
-4.84105e-08
9.40305e-07
-4.72283e-08
9.86126e-07
-4.60631e-08
1.03079e-06
-4.48866e-08
1.07429e-06
-4.3731e-08
1.11668e-06
-4.26293e-08
1.15798e-06
-4.15722e-08
1.19822e-06
-4.0533e-08
1.23741e-06
-3.94858e-08
1.27555e-06
-3.84472e-08
1.31268e-06
-3.74093e-08
1.34877e-06
-3.63788e-08
1.38387e-06
-3.53639e-08
1.41798e-06
-3.43652e-08
1.45108e-06
-3.33399e-08
1.48316e-06
-3.23021e-08
1.51427e-06
-3.13009e-08
1.54446e-06
-3.03659e-08
1.57373e-06
-2.94144e-08
1.60199e-06
-2.83746e-08
1.62913e-06
-2.72153e-08
1.65495e-06
-2.58648e-08
1.67911e-06
-2.41733e-08
1.70119e-06
-2.20725e-08
1.72083e-06
-1.96149e-08
1.73782e-06
-1.6943e-08
1.75214e-06
-1.42832e-08
1.76416e-06
-1.19776e-08
1.77461e-06
-1.04157e-08
1.78444e-06
-9.82021e-09
1.79447e-06
-1.00482e-08
1.80502e-06
-1.05928e-08
1.81587e-06
-1.09251e-08
1.82658e-06
-1.08265e-08
1.83677e-06
-1.03163e-08
1.84613e-06
-9.54256e-09
1.85445e-06
-8.50325e-09
1.86147e-06
-7.24782e-09
1.86726e-06
-6.01091e-09
1.87183e-06
-4.81107e-09
1.875e-06
-3.39062e-09
1.87631e-06
-1.54643e-09
1.87465e-06
1.46116e-09
1.86782e-06
6.62529e-09
1.85223e-06
1.54297e-08
1.82169e-06
3.03728e-08
1.76036e-06
6.12077e-08
1.07658e-07
1.65257e-06
1.75574e-07
-2.49684e-07
3.18062e-07
-3.13906e-07
4.17131e-07
-2.72851e-07
4.83871e-07
-2.1822e-07
5.26119e-07
-1.64596e-07
5.48855e-07
-1.13243e-07
5.55044e-07
-6.40073e-08
5.47676e-07
-1.70396e-08
5.2845e-07
2.73614e-08
4.9743e-07
6.83763e-08
4.52099e-07
1.03702e-07
3.91419e-07
1.30704e-07
3.13659e-07
1.48764e-07
2.18883e-07
1.61053e-07
1.05031e-07
1.7457e-07
-2.99735e-08
1.95266e-07
-1.9059e-07
2.24294e-07
-3.7745e-07
2.58937e-07
-5.87911e-07
2.95836e-07
-8.15888e-07
3.31996e-07
-1.05631e-06
3.65108e-07
-1.29937e-06
3.93494e-07
-1.53984e-06
4.15087e-07
-1.77404e-06
4.28685e-07
-1.99992e-06
4.34341e-07
-2.21451e-06
4.32906e-07
-2.41673e-06
4.25548e-07
-2.60532e-06
4.13503e-07
-2.7805e-06
3.98097e-07
-2.94259e-06
3.80614e-07
-3.09261e-06
3.61961e-07
-3.23143e-06
3.42919e-07
-3.36014e-06
3.2406e-07
-3.47976e-06
3.058e-07
-3.5912e-06
2.88406e-07
-3.69543e-06
2.72023e-07
-3.79306e-06
2.56715e-07
-3.88492e-06
2.42464e-07
-3.97132e-06
2.29221e-07
-4.05295e-06
2.1689e-07
-4.12988e-06
2.05377e-07
-4.20266e-06
1.94553e-07
-4.27117e-06
1.84312e-07
-4.33585e-06
1.74519e-07
-4.39647e-06
1.65078e-07
-4.45339e-06
1.55862e-07
-4.50631e-06
1.46792e-07
-4.55556e-06
1.37756e-07
-4.60075e-06
1.28703e-07
-4.64223e-06
1.19533e-07
-4.67958e-06
1.10217e-07
-4.71318e-06
1.00686e-07
-4.74252e-06
9.09416e-08
-4.76799e-06
8.09146e-08
-4.78916e-06
7.06149e-08
-4.80656e-06
5.9977e-08
-4.81979e-06
4.90534e-08
-4.82943e-06
3.78138e-08
-4.8351e-06
2.63476e-08
-4.83717e-06
1.46161e-08
-4.83472e-06
2.65994e-09
-4.82731e-06
-9.67886e-09
-4.81375e-06
-2.23448e-08
-4.79413e-06
-3.53242e-08
-4.76781e-06
-4.85003e-08
-4.73503e-06
-6.19236e-08
-4.69533e-06
-7.54703e-08
-4.64903e-06
-8.91289e-08
-4.59591e-06
-1.02779e-07
-4.5361e-06
-1.16356e-07
-4.46928e-06
-1.29713e-07
-4.39654e-06
-1.42911e-07
-4.31734e-06
-1.55551e-07
-4.23144e-06
-1.67612e-07
-4.14038e-06
-1.79261e-07
-4.04407e-06
-1.90264e-07
-3.9419e-06
-2.00344e-07
-3.83592e-06
-2.0984e-07
-3.72588e-06
-2.18371e-07
-3.61114e-06
-2.25674e-07
-3.49379e-06
-2.32357e-07
-3.3743e-06
-2.38068e-07
-3.2521e-06
-2.42516e-07
-3.12805e-06
-2.46068e-07
-3.00308e-06
-2.48706e-07
-2.87695e-06
-2.50402e-07
-2.75141e-06
-2.51318e-07
-2.62559e-06
-2.51237e-07
-2.50077e-06
-2.50637e-07
-2.37713e-06
-2.49281e-07
-2.25431e-06
-2.47282e-07
-2.13304e-06
-2.44687e-07
-2.01302e-06
-2.41469e-07
-1.89506e-06
-2.37827e-07
-1.77904e-06
-2.33776e-07
-1.66521e-06
-2.29462e-07
-1.5536e-06
-2.24906e-07
-1.44434e-06
-2.20201e-07
-1.3374e-06
-2.15368e-07
-1.23287e-06
-2.10488e-07
-1.13066e-06
-2.05567e-07
-1.03081e-06
-2.00646e-07
-9.33198e-07
-1.95735e-07
-8.37903e-07
-1.90868e-07
-7.44866e-07
-1.86096e-07
-6.54146e-07
-1.81456e-07
-5.65629e-07
-1.77008e-07
-4.79305e-07
-1.72737e-07
-3.95031e-07
-1.6866e-07
-3.12749e-07
-1.64753e-07
-2.32324e-07
-1.61022e-07
-1.53699e-07
-1.57459e-07
-7.67369e-08
-1.54082e-07
-1.38707e-09
-1.50838e-07
7.2432e-08
-1.47741e-07
1.44709e-07
-1.44714e-07
2.15567e-07
-1.41724e-07
2.85023e-07
-1.38754e-07
3.52777e-07
-1.3582e-07
4.1885e-07
-1.3286e-07
4.83521e-07
-1.29869e-07
5.46849e-07
-1.26879e-07
6.08826e-07
-1.23931e-07
6.69423e-07
-1.21023e-07
7.28639e-07
-1.18182e-07
7.86486e-07
-1.15396e-07
8.42983e-07
-1.1268e-07
8.98142e-07
-1.10026e-07
9.51993e-07
-1.0743e-07
1.00456e-06
-1.04856e-07
1.05584e-06
-1.02309e-07
1.10587e-06
-9.97802e-08
1.15464e-06
-9.73161e-08
1.2022e-06
-9.49191e-08
1.24857e-06
-9.25594e-08
1.29376e-06
-9.02172e-08
1.33781e-06
-8.79146e-08
1.38072e-06
-8.5693e-08
1.42252e-06
-8.35358e-08
1.46322e-06
-8.14182e-08
1.50287e-06
-7.9316e-08
1.5415e-06
-7.72576e-08
1.57913e-06
-7.52181e-08
1.61578e-06
-7.32001e-08
1.65145e-06
-7.11991e-08
1.68615e-06
-6.92288e-08
1.71987e-06
-6.72216e-08
1.75261e-06
-6.51918e-08
1.78439e-06
-6.32113e-08
1.81521e-06
-6.13006e-08
1.84502e-06
-5.9322e-08
1.87372e-06
-5.71576e-08
1.9012e-06
-5.47558e-08
1.92729e-06
-5.19867e-08
1.95175e-06
-4.86495e-08
1.97439e-06
-4.46924e-08
1.99509e-06
-4.02842e-08
2.01389e-06
-3.56894e-08
2.031e-06
-3.13347e-08
2.04682e-06
-2.77366e-08
2.06188e-06
-2.54267e-08
2.07672e-06
-2.46155e-08
2.0917e-06
-2.50098e-08
2.10695e-06
-2.58458e-08
2.12238e-06
-2.63951e-08
2.13774e-06
-2.62701e-08
2.1527e-06
-2.53986e-08
2.16687e-06
-2.38796e-08
2.17994e-06
-2.1768e-08
2.19163e-06
-1.91885e-08
2.20195e-06
-1.65877e-08
2.21083e-06
-1.39767e-08
2.21811e-06
-1.09557e-08
2.22368e-06
-7.40655e-09
2.22757e-06
-2.6809e-09
2.22948e-06
4.46061e-09
2.22836e-06
1.63455e-08
2.22253e-06
3.59965e-08
2.21051e-06
7.30719e-08
1.38612e-07
2.17939e-06
1.31915e-07
-3.81504e-07
1.82123e-07
-3.63969e-07
2.05264e-07
-2.95992e-07
2.1511e-07
-2.2802e-07
2.13428e-07
-1.62941e-07
2.00357e-07
-1.0013e-07
1.7574e-07
-3.94286e-08
1.39862e-07
1.89412e-08
9.23122e-08
7.48831e-08
3.28892e-08
1.27965e-07
-4.06582e-08
1.77228e-07
-1.31639e-07
2.21847e-07
-2.45343e-07
2.62429e-07
-3.85633e-07
3.01433e-07
-5.53276e-07
3.4213e-07
-7.43966e-07
3.85973e-07
-9.51137e-07
4.31345e-07
-1.16697e-06
4.74776e-07
-1.38442e-06
5.13169e-07
-1.59681e-06
5.4447e-07
-1.79934e-06
5.67567e-07
-1.98778e-06
5.82062e-07
-2.16073e-06
5.88017e-07
-2.31791e-06
5.86027e-07
-2.4608e-06
5.77217e-07
-2.59068e-06
5.629e-07
-2.70958e-06
5.44436e-07
-2.81916e-06
5.23143e-07
-2.92125e-06
5.00169e-07
-3.01706e-06
4.76445e-07
-3.10781e-06
4.52687e-07
-3.19433e-06
4.29436e-07
-3.27733e-06
4.07059e-07
-3.35733e-06
3.85783e-07
-3.43465e-06
3.65727e-07
-3.50957e-06
3.46922e-07
-3.58217e-06
3.29337e-07
-3.65264e-06
3.12896e-07
-3.72089e-06
2.97501e-07
-3.78707e-06
2.83028e-07
-3.85103e-06
2.6935e-07
-3.91285e-06
2.56331e-07
-3.97235e-06
2.43839e-07
-4.02961e-06
2.31742e-07
-4.0844e-06
2.1992e-07
-4.13681e-06
2.08252e-07
-4.18657e-06
1.96634e-07
-4.23378e-06
1.84964e-07
-4.27815e-06
1.73156e-07
-4.31975e-06
1.6113e-07
-4.35827e-06
1.48819e-07
-4.39377e-06
1.36159e-07
-4.42587e-06
1.23114e-07
-4.45459e-06
1.0963e-07
-4.47957e-06
9.56724e-08
-4.5008e-06
8.11972e-08
-4.51787e-06
6.61901e-08
-4.53068e-06
5.06199e-08
-4.53876e-06
3.44772e-08
-4.54189e-06
1.77244e-08
-4.53955e-06
3.56541e-10
-4.53157e-06
-1.76542e-08
-4.5176e-06
-3.62503e-08
-4.49752e-06
-5.53602e-08
-4.47103e-06
-7.49003e-08
-4.43808e-06
-9.48188e-08
-4.39847e-06
-1.14995e-07
-4.35221e-06
-1.35322e-07
-4.29923e-06
-1.55673e-07
-4.23959e-06
-1.75928e-07
-4.1733e-06
-1.95914e-07
-4.10063e-06
-2.15492e-07
-4.02165e-06
-2.34433e-07
-3.93662e-06
-2.52543e-07
-3.84607e-06
-2.69709e-07
-3.7503e-06
-2.85915e-07
-3.64948e-06
-3.01039e-07
-3.54432e-06
-3.14885e-07
-3.43513e-06
-3.27432e-07
-3.32219e-06
-3.3847e-07
-3.20635e-06
-3.48057e-07
-3.08812e-06
-3.56149e-07
-2.96777e-06
-3.62705e-07
-2.84585e-06
-3.67788e-07
-2.72294e-06
-3.71413e-07
-2.59945e-06
-3.73681e-07
-2.47601e-06
-3.74595e-07
-2.35293e-06
-3.74316e-07
-2.23073e-06
-3.72979e-07
-2.10973e-06
-3.70633e-07
-1.98988e-06
-3.67342e-07
-1.87144e-06
-3.63134e-07
-1.75465e-06
-3.58213e-07
-1.63977e-06
-3.52595e-07
-1.52694e-06
-3.46481e-07
-1.41627e-06
-3.39959e-07
-1.30785e-06
-3.33143e-07
-1.20173e-06
-3.26106e-07
-1.09793e-06
-3.18936e-07
-9.96447e-07
-3.11696e-07
-8.9725e-07
-3.04436e-07
-8.00322e-07
-2.97202e-07
-7.05585e-07
-2.90012e-07
-6.13075e-07
-2.82939e-07
-5.22715e-07
-2.75998e-07
-4.34542e-07
-2.69283e-07
-3.48432e-07
-2.62805e-07
-2.6437e-07
-2.56601e-07
-1.82214e-07
-2.50644e-07
-1.01914e-07
-2.44969e-07
-2.33239e-08
-2.39535e-07
5.3569e-08
-2.34339e-07
1.28837e-07
-2.29333e-07
2.02479e-07
-2.24509e-07
2.74546e-07
-2.19828e-07
3.45048e-07
-2.15269e-07
4.1407e-07
-2.10799e-07
4.81614e-07
-2.06389e-07
5.47697e-07
-2.01996e-07
6.1236e-07
-1.97613e-07
6.757e-07
-1.9325e-07
7.37731e-07
-1.88924e-07
7.9846e-07
-1.84644e-07
8.57859e-07
-1.80424e-07
9.15939e-07
-1.76271e-07
9.72694e-07
-1.72187e-07
1.02815e-06
-1.68173e-07
1.08229e-06
-1.64229e-07
1.13515e-06
-1.60345e-07
1.18673e-06
-1.56504e-07
1.23705e-06
-1.52698e-07
1.28613e-06
-1.48932e-07
1.33397e-06
-1.45231e-07
1.38057e-06
-1.41607e-07
1.42597e-06
-1.3804e-07
1.47019e-06
-1.34519e-07
1.51325e-06
-1.31058e-07
1.55515e-06
-1.27684e-07
1.59591e-06
-1.24402e-07
1.63558e-06
-1.21195e-07
1.67422e-06
-1.18057e-07
1.71186e-06
-1.1499e-07
1.74853e-06
-1.11974e-07
1.78423e-06
-1.08986e-07
1.81898e-06
-1.06022e-07
1.85275e-06
-1.03078e-07
1.88558e-06
-1.00118e-07
1.91747e-06
-9.71397e-08
1.9484e-06
-9.42001e-08
1.97835e-06
-9.12917e-08
2.00727e-06
-8.8279e-08
2.0351e-06
-8.50173e-08
2.06174e-06
-8.14179e-08
2.08708e-06
-7.73475e-08
2.11106e-06
-7.26288e-08
2.13361e-06
-6.72466e-08
2.15475e-06
-6.14273e-08
2.17461e-06
-5.55373e-08
2.19339e-06
-5.01068e-08
2.21142e-06
-4.57608e-08
2.22903e-06
-4.30284e-08
2.24646e-06
-4.20395e-08
2.26382e-06
-4.23599e-08
2.28108e-06
-4.31028e-08
2.29813e-06
-4.34513e-08
2.31479e-06
-4.29276e-08
2.33078e-06
-4.14125e-08
2.34584e-06
-3.89559e-08
2.35973e-06
-3.56923e-08
2.37233e-06
-3.18274e-08
2.38364e-06
-2.79389e-08
2.39352e-06
-2.39089e-08
2.40182e-06
-1.93198e-08
2.40856e-06
-1.41979e-08
2.41354e-06
-7.72161e-09
2.41627e-06
1.6642e-09
2.41618e-06
1.63796e-08
2.41239e-06
3.97354e-08
2.40641e-06
7.90123e-08
1.45322e-07
2.39966e-06
3.28741e-08
-4.14342e-07
1.46772e-08
-3.45677e-07
-9.94536e-09
-2.71394e-07
-4.01912e-08
-1.97729e-07
-7.78763e-08
-1.25291e-07
-1.2421e-07
-5.37484e-08
-1.80652e-07
1.69873e-08
-2.48394e-07
8.67661e-08
-3.28842e-07
1.55312e-07
-4.22873e-07
2.2211e-07
-5.32262e-07
2.86598e-07
-6.58636e-07
3.48332e-07
-8.03451e-07
4.07209e-07
-9.65278e-07
4.63334e-07
-1.13977e-06
5.16561e-07
-1.31965e-06
5.65885e-07
-1.49775e-06
6.09357e-07
-1.66786e-06
6.44913e-07
-1.82608e-06
6.71291e-07
-1.96987e-06
6.88305e-07
-2.09886e-06
6.96481e-07
-2.21338e-06
6.96652e-07
-2.31529e-06
6.89874e-07
-2.40651e-06
6.77329e-07
-2.48956e-06
6.6023e-07
-2.56635e-06
6.39749e-07
-2.63889e-06
6.16957e-07
-2.7085e-06
5.92791e-07
-2.77637e-06
5.68023e-07
-2.84314e-06
5.43231e-07
-2.90932e-06
5.18863e-07
-2.97513e-06
4.95249e-07
-3.04067e-06
4.72599e-07
-3.10593e-06
4.51038e-07
-3.1708e-06
4.30611e-07
-3.2352e-06
4.11308e-07
-3.29892e-06
3.93078e-07
-3.36189e-06
3.75837e-07
-3.42385e-06
3.59485e-07
-3.48476e-06
3.43903e-07
-3.54437e-06
3.28969e-07
-3.60264e-06
3.14552e-07
-3.65931e-06
3.00526e-07
-3.71437e-06
2.86763e-07
-3.76756e-06
2.7314e-07
-3.81886e-06
2.59538e-07
-3.86802e-06
2.45845e-07
-3.91501e-06
2.31955e-07
-3.95955e-06
2.17773e-07
-4.00161e-06
2.03204e-07
-4.04088e-06
1.88164e-07
-4.07728e-06
1.72584e-07
-4.11048e-06
1.56394e-07
-4.14034e-06
1.39529e-07
-4.16652e-06
1.21935e-07
-4.18884e-06
1.03556e-07
-4.20693e-06
8.43498e-08
-4.22057e-06
6.42774e-08
-4.22936e-06
4.33125e-08
-4.23308e-06
2.14357e-08
-4.23136e-06
-1.34255e-09
-4.22403e-06
-2.49981e-08
-4.2108e-06
-4.94661e-08
-4.19149e-06
-7.46674e-08
-4.16588e-06
-1.00502e-07
-4.13382e-06
-1.26863e-07
-4.09518e-06
-1.53606e-07
-4.04989e-06
-1.80575e-07
-3.99792e-06
-2.07595e-07
-3.93931e-06
-2.34481e-07
-3.87414e-06
-2.61019e-07
-3.80257e-06
-2.86976e-07
-3.7248e-06
-3.12113e-07
-3.64107e-06
-3.36191e-07
-3.55171e-06
-3.58971e-07
-3.45714e-06
-3.80388e-07
-3.35771e-06
-4.00366e-07
-3.25386e-06
-4.18635e-07
-3.14611e-06
-4.3509e-07
-3.0349e-06
-4.49582e-07
-2.92079e-06
-4.6206e-07
-2.80433e-06
-4.72512e-07
-2.68598e-06
-4.80938e-07
-2.56625e-06
-4.87371e-07
-2.44565e-06
-4.91853e-07
-2.32468e-06
-4.9449e-07
-2.20379e-06
-4.95362e-07
-2.08339e-06
-4.94637e-07
-1.96402e-06
-4.92504e-07
-1.84581e-06
-4.88972e-07
-1.72892e-06
-4.84275e-07
-1.61351e-06
-4.78448e-07
-1.49985e-06
-4.71689e-07
-1.38812e-06
-4.64111e-07
-1.27846e-06
-4.55896e-07
-1.17097e-06
-4.4719e-07
-1.06572e-06
-4.38118e-07
-9.62741e-07
-4.288e-07
-8.62043e-07
-4.19326e-07
-7.63617e-07
-4.09796e-07
-6.67424e-07
-4.00258e-07
-5.73422e-07
-3.90791e-07
-4.81577e-07
-3.81413e-07
-3.91858e-07
-3.72219e-07
-3.04238e-07
-3.63229e-07
-2.18674e-07
-3.54532e-07
-1.35099e-07
-3.46139e-07
-5.34209e-08
-3.38106e-07