/*--------------------------------*- C++ -*----------------------------------*\
| =========                 |                                                 |
| \\      /  F ield         | OpenFOAM: The Open Source CFD Toolbox           |
|  \\    /   O peration     | Version:  2312                                  |
|   \\  /    A nd           | Website:  www.openfoam.com                      |
|    \\/     M anipulation  |                                                 |
\*---------------------------------------------------------------------------*/
FoamFile
{
    version     2.0;
    format      ascii;
    arch        "LSB;label=32;scalar=64";
    class       volVectorField;
    location    "5";
    object      ddtU;
}
// * * * * * * * * * * * * * * * * * * * * * * * * * * * * * * * * * * * * * //

dimensions      [0 1 -2 0 0 0 0];

internalField   nonuniform List<vector> 
400
(
(1.10134e-11 -8.87006e-09 0)
(-8.4821e-12 2.10566e-09 0)
(3.19744e-12 -5.00565e-10 0)
(-1.64313e-12 1.18719e-10 0)
(3.55271e-13 -2.8279e-11 0)
(-2.22045e-13 6.707e-12 0)
(0 -1.58744e-12 0)
(-6.66134e-14 3.77204e-13 0)
(2.22045e-14 -1.0096e-13 0)
(0 1.8095e-14 0)
(-2.22045e-14 -9.11449e-15 0)
(-2.22045e-14 5.31824e-15 0)
(-2.22045e-14 -3.20741e-18 0)
(0 -4.24854e-16 0)
(0 -4.56035e-15 0)
(0 -6.38583e-15 0)
(0 1.5131e-15 0)
(0 2.86305e-15 0)
(0 -2.37242e-15 0)
(-2.22045e-14 3.83973e-15 0)
(-1.80744e-11 8.87444e-09 0)
(4.35207e-12 -2.10908e-09 0)
(-1.39888e-12 4.99889e-10 0)
(2.44249e-13 -1.18963e-10 0)
(-1.77636e-13 2.80735e-11 0)
(0 -6.73947e-12 0)
(2.22045e-14 1.56663e-12 0)
(0 -3.84387e-13 0)
(0 7.734e-14 0)
(4.44089e-14 -1.13584e-14 0)
(-2.22045e-14 1.2848e-14 0)
(0 2.00119e-15 0)
(0 1.80742e-15 0)
(-2.22045e-14 -7.04987e-15 0)
(2.22045e-14 -1.34071e-14 0)
(4.44089e-14 -2.59969e-15 0)
(4.44089e-14 3.49405e-15 0)
(0 8.15619e-15 0)
(0 5.23252e-15 0)
(0 3.95712e-15 0)
(5.48006e-11 -8.86217e-09 0)
(-1.1191e-11 2.10462e-09 0)
(4.35207e-12 -4.99662e-10 0)
(-9.10383e-13 1.18475e-10 0)
(3.10862e-13 -2.82788e-11 0)
(-1.77636e-13 6.61497e-12 0)
(4.44089e-14 -1.61903e-12 0)
(-4.44089e-14 3.68545e-13 0)
(2.22045e-14 -1.02645e-13 0)
(-4.44089e-14 1.8475e-14 0)
(2.22045e-14 5.67211e-15 0)
(0 7.16618e-15 0)
(2.22045e-14 8.73373e-16 0)
(6.66134e-14 -1.1319e-14 0)
(-2.22045e-14 -4.22973e-15 0)
(0 1.05477e-14 0)
(-2.22045e-14 4.49548e-15 0)
(0 -1.21206e-15 0)
(-4.44089e-14 1.61947e-14 0)
(0 2.10713e-15 0)
(-6.37046e-11 8.83744e-09 0)
(1.34115e-11 -2.09705e-09 0)
(-4.84057e-12 4.97562e-10 0)
(1.19904e-12 -1.18155e-10 0)
(-2.88658e-13 2.79506e-11 0)
(4.44089e-14 -6.68707e-12 0)
(-2.22045e-14 1.55692e-12 0)
(-2.22045e-14 -3.81328e-13 0)
(0 8.28249e-14 0)
(-4.44089e-14 -3.7485e-14 0)
(-8.88178e-14 -1.59487e-15 0)
(0 -1.30236e-14 0)
(2.22045e-14 -1.11879e-14 0)
(-2.22045e-14 3.69212e-15 0)
(-4.44089e-14 1.36635e-14 0)
(2.22045e-14 1.26959e-15 0)
(2.22045e-14 4.16786e-15 0)
(0 1.09629e-14 0)
(0 1.10148e-14 0)
(-2.22045e-14 -1.28731e-14 0)
(6.47482e-11 -8.80633e-09 0)
(-1.31228e-11 2.08944e-09 0)
(4.9738e-12 -4.95769e-10 0)
(-1.06581e-12 1.1756e-10 0)
(3.10862e-13 -2.79428e-11 0)
(-6.66134e-14 6.60639e-12 0)
(0 -1.5756e-12 0)
(0 3.74705e-13 0)
(-4.44089e-14 -7.1546e-14 0)
(-4.44089e-14 9.50455e-15 0)
(-6.66134e-14 -4.1729e-14 0)
(-6.66134e-14 -4.39902e-14 0)
(-4.44089e-14 -1.44512e-14 0)
(-4.44089e-14 3.84069e-15 0)
(2.22045e-14 1.1563e-14 0)
(-4.44089e-14 -2.34064e-16 0)
(0 7.88855e-15 0)
(2.22045e-14 1.53393e-14 0)
(-4.44089e-14 2.40154e-15 0)
(0 -2.01131e-14 0)
(-6.33715e-11 8.77984e-09 0)
(1.3145e-11 -2.08296e-09 0)
(-4.77396e-12 4.94118e-10 0)
(1.11022e-12 -1.17254e-10 0)
(-2.44249e-13 2.77897e-11 0)
(4.44089e-14 -6.59006e-12 0)
(-2.22045e-14 1.57318e-12 0)
(4.44089e-14 -3.75828e-13 0)
(4.44089e-14 9.61153e-14 0)
(8.88178e-14 -2.99584e-14 0)
(8.88178e-14 -3.0168e-14 0)
(0 -2.28338e-14 0)
(4.44089e-14 1.31701e-14 0)
(-4.44089e-14 -5.24547e-15 0)
(0 -1.2447e-14 0)
(0 -2.65042e-15 0)
(0 1.73994e-15 0)
(0 -1.05731e-14 0)
(4.44089e-14 4.08356e-15 0)
(0 -4.30453e-16 0)
(5.94191e-11 -8.75347e-09 0)
(-1.20126e-11 2.07636e-09 0)
(4.35207e-12 -4.92594e-10 0)
(-1.08802e-12 1.16837e-10 0)
(2.22045e-13 -2.77326e-11 0)
(-1.33227e-13 6.56496e-12 0)
(-4.44089e-14 -1.57895e-12 0)
(-4.44089e-14 3.52294e-13 0)
(-4.44089e-14 -1.11124e-13 0)
(0 2.4315e-14 0)
(4.44089e-14 -6.17704e-15 0)
(0 4.68849e-15 0)
(0 -1.25643e-15 0)
(4.44089e-14 -2.63274e-15 0)
(6.66134e-14 -5.46667e-15 0)
(-4.44089e-14 -4.12148e-15 0)
(0 -2.8837e-15 0)
(-2.22045e-14 -1.8653e-14 0)
(-4.44089e-14 -5.10354e-15 0)
(-2.22045e-14 -1.29396e-15 0)
(-5.44453e-11 8.72844e-09 0)
(1.12799e-11 -2.07038e-09 0)
(-4.10783e-12 4.91156e-10 0)
(1.02141e-12 -1.165e-10 0)
(-2.66454e-13 2.76183e-11 0)
(4.44089e-14 -6.57584e-12 0)
(0 1.54656e-12 0)
(4.44089e-14 -3.72185e-13 0)
(0 5.95722e-14 0)
(-4.44089e-14 -2.74691e-14 0)
(0 1.87652e-14 0)
(-4.44089e-14 8.9225e-15 0)
(0 -3.03868e-14 0)
(-8.88178e-14 -2.83561e-14 0)
(4.44089e-14 -6.77747e-16 0)
(8.88178e-14 1.29437e-14 0)
(0 3.47281e-15 0)
(4.44089e-14 -3.3387e-15 0)
(0 -1.02696e-14 0)
(-2.22045e-14 -1.91024e-14 0)
(4.85834e-11 -8.70365e-09 0)
(-9.76996e-12 2.0644e-09 0)
(3.5083e-12 -4.89716e-10 0)
(-7.77156e-13 1.16167e-10 0)
(1.77636e-13 -2.75599e-11 0)
(-4.44089e-14 6.51774e-12 0)
(4.44089e-14 -1.55796e-12 0)
(4.44089e-14 3.42921e-13 0)
(4.44089e-14 -1.11663e-13 0)
(4.44089e-14 2.08547e-14 0)
(4.44089e-14 1.85377e-14 0)
(0 5.42544e-15 0)
(4.44089e-14 -1.66788e-14 0)
(0 -1.36571e-14 0)
(0 -4.87626e-15 0)
(-4.44089e-14 -1.00188e-14 0)
(0 -1.77423e-14 0)
(0 2.65743e-16 0)
(2.22045e-14 7.74733e-15 0)
(-2.22045e-14 -1.5254e-14 0)
(-4.25437e-11 8.68062e-09 0)
(8.79297e-12 -2.05901e-09 0)
(-3.13083e-12 4.88437e-10 0)
(7.54952e-13 -1.15849e-10 0)
(-2.22045e-13 2.74772e-11 0)
(8.88178e-14 -6.54175e-12 0)
(0 1.51854e-12 0)
(4.44089e-14 -4.10044e-13 0)
(0 4.97556e-14 0)
(0 -3.74064e-14 0)
(4.44089e-14 -7.2494e-18 0)
(4.44089e-14 -1.15046e-14 0)
(8.88178e-14 -3.59743e-15 0)
(0 1.69488e-14 0)
(4.44089e-14 5.80265e-16 0)
(2.22045e-14 -1.723e-14 0)
(2.22045e-14 -1.15337e-14 0)
(-4.44089e-14 -2.27167e-15 0)
(4.44089e-14 6.24955e-15 0)
(0 -1.26963e-14 0)
(3.73923e-11 -8.6589e-09 0)
(-7.39409e-12 2.05383e-09 0)
(2.66454e-12 -4.87249e-10 0)
(-5.77316e-13 1.1556e-10 0)
(2.66454e-13 -2.74325e-11 0)
(4.44089e-14 6.46738e-12 0)
(8.88178e-14 -1.56544e-12 0)
(8.88178e-14 3.65851e-13 0)
(8.88178e-14 -9.5325e-14 0)
(-4.44089e-14 3.02011e-15 0)
(0 -2.10529e-14 0)
(-4.44089e-14 -8.96381e-15 0)
(-4.44089e-14 -1.53988e-14 0)
(-8.88178e-14 -2.74015e-15 0)
(-4.44089e-14 -3.99855e-15 0)
(-4.44089e-14 1.05736e-14 0)
(0 -1.46197e-15 0)
(4.44089e-14 -1.03086e-14 0)
(2.22045e-14 7.17245e-16 0)
(0 -8.54149e-15 0)
(-3.18856e-11 8.63912e-09 0)
(6.61693e-12 -2.04928e-09 0)
(-2.30926e-12 4.86098e-10 0)
(6.21725e-13 -1.15349e-10 0)
(-8.88178e-14 2.73397e-11 0)
(1.33227e-13 -6.50669e-12 0)
(-4.44089e-14 1.50893e-12 0)
(4.44089e-14 -3.78665e-13 0)
(4.44089e-14 9.50909e-14 0)
(4.44089e-14 -2.2519e-14 0)
(0 -4.7625e-15 0)
(0 -9.7061e-15 0)
(0 -2.09067e-14 0)
(-4.44089e-14 -1.38122e-14 0)
(4.44089e-14 2.82499e-15 0)
(4.44089e-14 1.19527e-14 0)
(4.44089e-14 -8.73498e-15 0)
(0 -1.38889e-14 0)
(2.22045e-14 1.17648e-14 0)
(0 -1.55829e-15 0)
(2.81997e-11 -8.62122e-09 0)
(-5.55112e-12 2.04502e-09 0)
(2.04281e-12 -4.85176e-10 0)
(-3.9968e-13 1.15058e-10 0)
(1.77636e-13 -2.73092e-11 0)
(2.22045e-14 6.48063e-12 0)
(8.88178e-14 -1.54336e-12 0)
(8.88178e-14 3.56384e-13 0)
(-4.44089e-14 -8.95692e-14 0)
(4.44089e-14 1.04063e-14 0)
(0 -1.05592e-14 0)
(4.44089e-14 -2.21416e-15 0)
(0 -2.12875e-14 0)
(8.88178e-14 -7.98946e-15 0)
(0 4.49448e-15 0)
(0 1.91709e-14 0)
(-4.44089e-14 7.23814e-15 0)
(0 6.89675e-15 0)
(-8.88178e-14 4.73399e-15 0)
(0 -1.95469e-14 0)
(-2.38254e-11 8.60474e-09 0)
(4.9738e-12 -2.04123e-09 0)
(-1.73195e-12 4.84216e-10 0)
(4.88498e-13 -1.14891e-10 0)
(-6.66134e-14 2.72384e-11 0)
(0 -6.45632e-12 0)
(-4.44089e-14 1.5413e-12 0)
(4.44089e-14 -3.4267e-13 0)
(0 1.00594e-13 0)
(0 -9.88622e-15 0)
(0 1.17705e-14 0)
(0 -1.91115e-14 0)
(0 -1.82374e-14 0)
(0 7.77808e-15 0)
(2.22045e-14 9.08681e-15 0)
(0 6.59553e-15 0)
(4.44089e-14 7.08271e-15 0)
(0 3.60268e-15 0)
(0 1.4996e-15 0)
(2.22045e-14 -1.687e-14 0)
(2.20712e-11 -8.59026e-09 0)
(-4.30767e-12 2.03779e-09 0)
(1.55431e-12 -4.83427e-10 0)
(-2.88658e-13 1.14694e-10 0)
(8.88178e-14 -2.71945e-11 0)
(4.44089e-14 6.46894e-12 0)
(4.44089e-14 -1.50899e-12 0)
(0 3.87816e-13 0)
(-4.44089e-14 -5.95338e-14 0)
(4.44089e-14 2.15878e-14 0)
(4.44089e-14 -2.38825e-14 0)
(4.44089e-14 -1.9198e-14 0)
(8.88178e-14 6.48376e-15 0)
(0 1.00599e-14 0)
(0 3.07251e-15 0)
(0 -2.71777e-14 0)
(4.44089e-14 -4.9513e-15 0)
(0 9.44545e-15 0)
(0 9.52313e-15 0)
(0 -3.80149e-15 0)
(-1.803e-11 8.5762e-09 0)
(3.86358e-12 -2.03452e-09 0)
(-1.24345e-12 4.827e-10 0)
(3.10862e-13 -1.1446e-10 0)
(-4.44089e-14 2.71949e-11 0)
(0 -6.41522e-12 0)
(0 1.57082e-12 0)
(0 -3.43883e-13 0)
(0 9.52303e-14 0)
(8.88178e-14 -3.38035e-14 0)
(-4.44089e-14 -1.75059e-14 0)
(0 5.07591e-15 0)
(0 2.47881e-14 0)
(-4.44089e-14 6.69636e-15 0)
(0 2.58002e-15 0)
(-2.22045e-14 -3.08829e-14 0)
(2.22045e-14 -1.39227e-14 0)
(-4.44089e-14 4.87098e-15 0)
(4.44089e-14 1.07862e-14 0)
(-2.22045e-14 -9.88944e-15 0)
(1.85185e-11 -8.56455e-09 0)
(-3.57492e-12 2.03179e-09 0)
(1.33227e-12 -4.81919e-10 0)
(-2.22045e-13 1.14408e-10 0)
(8.88178e-14 -2.70534e-11 0)
(-6.66134e-14 6.47874e-12 0)
(4.44089e-14 -1.5068e-12 0)
(0 3.65657e-13 0)
(0 -8.71137e-14 0)
(2.22045e-14 2.10191e-14 0)
(-2.22045e-14 8.40297e-15 0)
(-4.44089e-14 2.02649e-14 0)
(0 2.03352e-14 0)
(-4.44089e-14 -7.00351e-15 0)
(0 -1.6143e-14 0)
(4.44089e-14 -1.34819e-14 0)
(0 -1.32327e-14 0)
(0 4.34826e-15 0)
(-2.22045e-14 1.27966e-14 0)
(0 -1.20592e-14 0)
(-1.29896e-11 8.55113e-09 0)
(2.88658e-12 -2.02866e-09 0)
(-8.65974e-13 4.81471e-10 0)
(2.22045e-13 -1.14087e-10 0)
(-6.66134e-14 2.7186e-11 0)
(4.44089e-14 -6.383e-12 0)
(-4.44089e-14 1.54771e-12 0)
(-4.44089e-14 -3.48381e-13 0)
(-6.66134e-14 8.60379e-14 0)
(-6.66134e-14 -5.87742e-15 0)
(0 1.74197e-14 0)
(0 -3.06132e-15 0)
(2.22045e-14 7.59366e-15 0)
(4.44089e-14 -5.75948e-15 0)
(-2.22045e-14 -2.7545e-14 0)
(2.22045e-14 9.15119e-15 0)
(-2.22045e-14 7.41685e-15 0)
(-4.44089e-14 4.39179e-15 0)
(0 -5.57531e-15 0)
(0 -6.90644e-15 0)
(1.82077e-11 -8.54231e-09 0)
(-3.33067e-12 2.02694e-09 0)
(1.33227e-12 -4.80253e-10 0)
(-3.55271e-13 1.14074e-10 0)
(0 -2.69334e-11 0)
(-1.11022e-13 6.43772e-12 0)
(0 -1.49291e-12 0)
(-4.44089e-14 3.73329e-13 0)
(2.22045e-14 -7.88791e-14 0)
(-6.66134e-14 2.84071e-14 0)
(2.22045e-14 -1.29961e-14 0)
(-2.22045e-14 -7.56245e-15 0)
(-2.22045e-14 -2.36938e-15 0)
(0 -1.03078e-14 0)
(6.66134e-14 -9.74244e-15 0)
(-2.22045e-14 1.50921e-14 0)
(4.44089e-14 1.17396e-14 0)
(8.88178e-14 -7.83724e-15 0)
(2.22045e-14 2.10953e-15 0)
(0 -2.48621e-15 0)
(3.90799e-12 8.53049e-09 0)
(-6.52811e-12 -2.02296e-09 0)
(2.70894e-12 4.80386e-10 0)
(-1.46549e-12 -1.13887e-10 0)
(2.66454e-13 2.70807e-11 0)
(-2.22045e-13 -6.41111e-12 0)
(-2.22045e-14 1.53088e-12 0)
(-2.22045e-14 -3.52691e-13 0)
(-4.44089e-14 9.3952e-14 0)
(-2.22045e-14 -2.24529e-14 0)
(-4.44089e-14 -1.3554e-15 0)
(0 7.19041e-16 0)
(-6.66134e-14 -1.34168e-15 0)
(4.44089e-14 -1.84284e-14 0)
(-4.44089e-14 -3.98755e-15 0)
(0 5.64979e-15 0)
(2.22045e-14 -9.03491e-16 0)
(-2.22045e-14 -9.38747e-16 0)
(2.22045e-14 1.41408e-14 0)
(0 -7.63756e-16 0)
)
;

boundaryField
{
    movingWall
    {
        type            calculated;
        value           uniform (0 0 0);
    }
    fixedWalls
    {
        type            calculated;
        value           uniform (0 0 0);
    }
    frontAndBack
    {
        type            empty;
    }
}


// ************************************************************************* //
