/*--------------------------------*- C++ -*----------------------------------*\
| =========                 |                                                 |
| \\      /  F ield         | OpenFOAM: The Open Source CFD Toolbox           |
|  \\    /   O peration     | Version:  2312                                  |
|   \\  /    A nd           | Website:  www.openfoam.com                      |
|    \\/     M anipulation  |                                                 |
\*---------------------------------------------------------------------------*/
FoamFile
{
    version     2.0;
    format      ascii;
    arch        "LSB;label=32;scalar=64";
    class       volScalarField;
    location    "5";
    object      divPhi;
}
// * * * * * * * * * * * * * * * * * * * * * * * * * * * * * * * * * * * * * //

dimensions      [0 0 -1 0 0 0 0];

internalField   nonuniform List<scalar> 
400
(
-1.6263e-13
1.52939e-14
-6.34902e-15
-1.38335e-14
2.00105e-14
-1.30107e-14
1.42812e-14
-1.20368e-14
-7.62775e-15
1.01601e-14
4.55634e-15
-4.58738e-15
1.75828e-15
1.542e-15
5.26514e-16
-1.02352e-14
2.32147e-15
8.5128e-15
-5.42786e-15
0
0
-2.91246e-15
-3.92246e-14
2.63419e-16
1.15466e-14
-1.08577e-14
-5.11071e-15
1.40626e-14
-3.66025e-14
3.15798e-15
2.25977e-14
-1.04498e-14
1.78228e-14
-1.57806e-14
1.16808e-14
-9.92458e-15
-1.60964e-14
2.04287e-14
-1.7337e-14
0
2.71051e-14
-7.16097e-16
-1.20964e-14
-2.17947e-14
2.9974e-14
5.35944e-15
-1.94485e-14
1.52473e-14
-1.63961e-14
5.25176e-15
-7.22415e-15
-2.62445e-14
9.63148e-15
1.65129e-14
1.88204e-14
-2.96425e-14
5.18763e-15
-4.92699e-15
-7.41112e-15
2.71051e-14
-2.71051e-14
2.33182e-14
3.13182e-15
-2.53862e-15
2.52392e-15
-1.114e-14
1.8032e-14
-3.37915e-14
8.22617e-15
1.61085e-14
-1.9248e-14
-1.14656e-14
2.99139e-14
6.15393e-15
-2.62088e-14
6.66409e-15
1.28877e-14
-7.26022e-17
-1.89025e-14
-2.71051e-14
0
2.34266e-14
-1.09996e-14
1.06048e-15
-6.22324e-15
1.94081e-15
7.42329e-15
-9.52499e-16
-2.78525e-15
-5.40563e-15
-6.60816e-15
-2.5561e-14
1.64033e-14
1.36179e-15
-5.11155e-16
-3.77268e-16
3.18359e-14
-7.56598e-15
-4.81588e-15
0
0
1.89031e-14
-2.31857e-14
4.95855e-15
-2.71758e-16
3.12044e-17
-5.35268e-15
1.53787e-14
-1.29372e-14
7.82193e-15
-2.19178e-15
1.42177e-15
-1.69534e-14
-9.21518e-15
-1.72302e-14
1.54591e-14
-6.64155e-15
-1.03498e-15
-2.01054e-14
0
-2.71051e-14
1.94672e-15
-6.66646e-17
-7.28538e-15
2.47614e-14
-1.11485e-14
-2.31654e-15
-1.85135e-14
-1.73748e-16
1.74138e-14
-2.25835e-14
-6.51764e-16
1.36219e-14
1.2352e-14
-6.33477e-15
1.05676e-15
-2.03781e-14
-1.34526e-14
-8.03637e-15
2.71051e-14
0
8.33542e-15
4.76895e-15
-2.59712e-15
-1.98269e-14
1.12769e-14
-5.74965e-15
-1.28027e-14
6.82682e-15
-8.86896e-15
-2.03916e-14
1.8475e-14
-1.24391e-14
1.98152e-14
-9.03325e-15
6.63304e-15
1.00855e-14
-1.68017e-14
2.16327e-14
0
0
-4.93908e-15
-4.93015e-15
1.69826e-14
1.36669e-14
1.53268e-14
1.85295e-15
-4.79435e-14
2.35624e-14
-8.21086e-15
-5.08269e-15
-3.35578e-14
1.34752e-14
-2.42473e-14
-2.63418e-14
2.00224e-15
-1.78343e-15
1.88214e-14
2.04012e-15
0
2.71051e-14
-3.70566e-14
-6.61896e-15
-1.762e-14
-2.38602e-14
-1.03086e-14
-1.20121e-15
6.21055e-15
1.54984e-15
-4.70138e-15
-5.97616e-15
-4.63946e-16
5.21549e-16
-6.1831e-15
3.22183e-15
1.05169e-14
-4.30976e-15
-1.02267e-14
-7.83079e-15
0
-2.71051e-14
-5.30423e-15
-3.50499e-15
1.05796e-14
3.90657e-15
3.46982e-16
-2.18252e-14
3.31722e-14
-1.76685e-14
-1.60198e-14
-1.3287e-14
-3.18966e-15
-7.60857e-15
1.0077e-14
1.50056e-14
1.95132e-14
1.35577e-15
-1.26256e-14
5.12613e-15
-2.71051e-14
0
-3.35097e-14
-3.88362e-15
2.05931e-14
1.63781e-14
1.37444e-15
-2.8058e-15
1.70559e-14
-2.60447e-15
6.65683e-15
-5.94788e-15
-3.56933e-16
-1.89165e-14
4.98567e-15
1.84039e-14
-1.50206e-14
9.6377e-15
-2.92497e-14
1.01228e-15
0
2.71051e-14
-2.17308e-14
-2.66968e-15
4.53718e-15
-2.60367e-14
-2.62823e-15
2.73305e-14
-1.23783e-14
1.75117e-14
2.12148e-14
-7.06029e-15
-1.36301e-15
-3.6849e-15
2.45381e-14
-5.16898e-16
6.11697e-16
3.08989e-14
9.32032e-15
-2.00906e-14
2.71051e-14
0
3.30173e-14
-6.90869e-15
1.18725e-14
-1.25565e-14
2.07565e-14
-2.92458e-14
-9.55892e-15
-1.16745e-14
-3.20346e-15
1.43137e-14
-3.36788e-14
3.0084e-14
-3.98257e-15
1.44822e-14
-1.95364e-14
1.65049e-14
-9.76003e-15
3.32361e-14
-2.71051e-14
0
1.17382e-16
1.32533e-15
3.08731e-14
-1.99402e-14
-1.54045e-15
1.02885e-14
1.18354e-14
-3.72597e-14
2.59632e-14
-1.9996e-14
3.02701e-15
-1.62894e-14
3.08622e-15
-1.41531e-14
-1.60085e-16
-7.52844e-15
-1.00921e-14
-1.2564e-14
2.71051e-14
0
3.52421e-15
-6.82741e-15
9.40202e-15
1.49391e-14
-7.02089e-15
2.48054e-14
-2.24177e-14
-2.80656e-15
-1.1062e-15
1.25922e-14
1.87986e-14
1.13783e-14
1.2232e-14
1.92661e-14
-8.538e-15
-1.33552e-14
-1.53625e-14
-1.26682e-14
0
0
1.35684e-14
-1.49005e-14
-7.51928e-16
-1.48351e-14
-1.12746e-14
-7.7692e-15
-2.9146e-15
1.5267e-14
-1.17831e-14
1.93217e-14
3.33128e-15
9.08698e-16
9.43093e-15
-1.66412e-14
4.80733e-15
4.79767e-15
-8.44373e-15
-3.72004e-15
2.71051e-14
0
-1.15885e-14
3.12354e-14
7.18261e-16
1.10973e-14
-2.72061e-14
-7.78009e-15
1.20033e-14
-1.77521e-14
1.15352e-14
-3.80255e-15
1.05898e-14
-2.12332e-14
8.68686e-15
1.24298e-14
1.38911e-14
2.98497e-15
8.00167e-15
-1.17587e-14
-2.71051e-14
0
-2.42586e-15
1.50399e-14
2.19188e-15
1.16239e-14
-2.30929e-15
-2.69951e-14
1.71523e-14
6.72109e-15
2.76381e-14
-1.71054e-15
1.09564e-14
-3.19574e-15
1.93251e-14
1.70434e-14
-2.46468e-14
1.07762e-14
7.13162e-15
-3.46898e-14
2.71051e-14
-2.71051e-14
0
0
0
2.71051e-14
0
0
-2.71051e-14
0
0
0
0
2.71051e-14
-2.71051e-14
0
-2.71051e-14
2.71051e-14
2.71051e-14
-2.71051e-14
0
)
;

boundaryField
{
    movingWall
    {
        type            extrapolatedCalculated;
        value           nonuniform List<scalar> 
20
(
-2.71051e-14
0
0
0
2.71051e-14
0
0
-2.71051e-14
0
0
0
0
2.71051e-14
-2.71051e-14
0
-2.71051e-14
2.71051e-14
2.71051e-14
-2.71051e-14
0
)
;
    }
    fixedWalls
    {
        type            extrapolatedCalculated;
        value           nonuniform List<scalar> 
60
(
-1.6263e-13
0
2.71051e-14
-2.71051e-14
0
0
-2.71051e-14
0
0
2.71051e-14
-2.71051e-14
0
2.71051e-14
0
0
0
0
0
0
-2.71051e-14
0
0
2.71051e-14
-2.71051e-14
0
0
2.71051e-14
0
0
0
-2.71051e-14
0
2.71051e-14
-2.71051e-14
2.71051e-14
0
2.71051e-14
-2.71051e-14
2.71051e-14
0
-1.6263e-13
1.52939e-14
-6.34902e-15
-1.38335e-14
2.00105e-14
-1.30107e-14
1.42812e-14
-1.20368e-14
-7.62775e-15
1.01601e-14
4.55634e-15
-4.58738e-15
1.75828e-15
1.542e-15
5.26514e-16
-1.02352e-14
2.32147e-15
8.5128e-15
-5.42786e-15
0
)
;
    }
    frontAndBack
    {
        type            empty;
    }
}


// ************************************************************************* //
