/*--------------------------------*- C++ -*----------------------------------*\
| =========                 |                                                 |
| \\      /  F ield         | OpenFOAM: The Open Source CFD Toolbox           |
|  \\    /   O peration     | Version:  2312                                  |
|   \\  /    A nd           | Website:  www.openfoam.com                      |
|    \\/     M anipulation  |                                                 |
\*---------------------------------------------------------------------------*/
FoamFile
{
    version     2.0;
    format      ascii;
    arch        "LSB;label=32;scalar=64";
    class       volScalarField;
    location    "5";
    object      divU;
}
// * * * * * * * * * * * * * * * * * * * * * * * * * * * * * * * * * * * * * //

dimensions      [0 0 -1 0 0 0 0];

internalField   nonuniform List<scalar> 
400
(
-2.91949e-10
1.82065e-10
-1.66744e-10
8.88873e-11
-3.86473e-11
1.16359e-11
-4.52472e-12
1.18945e-12
-4.44221e-13
8.19676e-14
-6.31958e-14
-9.41074e-15
-1.49862e-15
4.78461e-15
-1.91566e-15
-8.23803e-15
9.37453e-15
1.57468e-14
4.40292e-15
0
4.835e-10
-2.04748e-10
4.51929e-11
-5.86702e-12
4.58288e-12
3.88508e-13
9.5699e-14
2.27182e-14
-3.40924e-14
1.21601e-14
-1.4523e-14
-2.33105e-14
-1.47272e-14
-2.68014e-14
1.67701e-14
1.782e-14
-9.37499e-15
-1.97524e-14
-6.77845e-15
0
-8.86986e-10
1.06632e-09
-2.2989e-10
9.09383e-11
-2.04359e-11
7.06853e-12
-1.67445e-12
6.43104e-13
-1.99913e-13
4.36522e-14
6.92982e-15
2.06529e-14
3.37051e-14
-5.54606e-16
-1.72528e-14
-6.19171e-15
-3.59094e-14
4.3475e-15
-5.20264e-15
0
5.6056e-10
-1.35527e-09
2.52421e-10
-1.09457e-10
2.2945e-11
-6.80067e-12
2.09741e-12
-4.2563e-13
2.02185e-13
-2.90033e-14
3.41426e-14
-7.93191e-15
2.73566e-14
-3.4723e-14
2.6983e-14
1.32299e-15
1.57377e-14
-6.91586e-16
-2.82938e-14
-2.71051e-14
-2.11528e-10
1.5645e-09
-2.99087e-10
1.2567e-10
-2.82696e-11
8.01923e-12
-2.44538e-12
7.06812e-13
-1.71391e-13
2.94171e-14
-1.54394e-14
-2.81543e-14
1.5928e-14
9.023e-15
-4.44622e-15
-5.0429e-16
1.86799e-15
-1.15674e-14
-8.96818e-14
8.13152e-14
-1.27936e-11
-1.53395e-09
2.89165e-10
-1.22792e-10
2.74213e-11
-7.93492e-12
2.40251e-12
-5.92494e-13
2.03357e-13
-5.33558e-14
6.22871e-14
-6.76082e-15
2.42361e-14
-5.43302e-14
-1.73467e-14
-2.36992e-15
8.62653e-16
-2.92975e-14
5.22081e-14
-2.71051e-14
9.73343e-11
1.50935e-09
-2.87456e-10
1.20722e-10
-2.73231e-11
7.76899e-12
-2.41719e-12
6.35659e-13
-1.94866e-13
8.23333e-14
1.8075e-14
-5.5265e-14
4.91313e-14
3.45739e-14
3.08111e-14
-4.82883e-14
-3.72366e-14
-1.09697e-14
-9.95457e-15
0
-2.01499e-10
-1.39178e-09
2.62467e-10
-1.11144e-10
2.50288e-11
-7.1744e-12
2.21612e-12
-5.73457e-13
1.18609e-13
-5.50213e-14
4.27789e-14
-2.83032e-14
-1.03457e-14
-9.81678e-15
-2.36147e-14
5.95607e-14
2.59265e-14
-3.37094e-14
-1.10108e-14
0
2.57715e-10
1.30506e-09
-2.47264e-10
1.03942e-10
-2.35638e-11
6.75575e-12
-2.06685e-12
4.50651e-13
-1.34707e-13
6.0466e-14
7.34751e-15
-1.65253e-14
-5.56019e-14
-5.55073e-15
2.75498e-14
7.67124e-15
-6.16112e-14
4.76363e-14
1.26992e-14
-2.71051e-14
-3.38569e-10
-1.16855e-09
2.18929e-10
-9.27531e-11
2.09022e-11
-5.98102e-12
1.81042e-12
-4.46504e-13
1.12727e-13
-6.40074e-14
3.43549e-14
8.66226e-15
7.81141e-14
-8.52081e-14
3.40026e-14
5.11821e-14
-5.50795e-15
-3.53351e-14
-1.74922e-14
0
3.77031e-10
1.0759e-09
-2.02651e-10
8.53141e-11
-1.93434e-11
5.54279e-12
-1.71101e-12
4.85753e-13
-1.64197e-13
-6.36406e-15
-1.77554e-14
8.95962e-15
-5.39441e-14
-2.52312e-14
-3.3554e-14
1.34058e-14
5.36215e-14
5.1912e-14
7.01461e-15
0
-4.3837e-10
-9.47815e-10
1.76018e-10
-7.48148e-11
1.6862e-11
-4.75779e-12
1.34806e-12
-3.2048e-13
1.32011e-13
-7.41915e-14
5.37032e-17
6.54498e-14
-7.62993e-15
1.69088e-14
4.30711e-14
-1.42372e-14
4.26977e-14
-2.19439e-14
1.54167e-15
-2.71051e-14
4.54498e-10
8.77312e-10
-1.64291e-10
6.91424e-11
-1.57196e-11
4.5074e-12
-1.31678e-12
3.1683e-13
-1.59169e-13
4.66266e-14
1.78332e-14
2.97768e-14
-6.77878e-15
-6.60703e-14
-4.98753e-15
2.88143e-14
-2.77554e-14
6.43871e-15
-1.59273e-14
5.42101e-14
-5.0288e-10
-7.69883e-10
1.41208e-10
-6.0398e-11
1.3519e-11
-3.90676e-12
1.18278e-12
-2.57386e-13
1.21303e-13
-1.99538e-14
1.23774e-14
-4.30409e-15
3.41388e-14
-3.18993e-14
2.44647e-14
-2.27432e-14
-1.62758e-14
7.06747e-15
3.20105e-14
-5.42101e-14
5.012e-10
7.38733e-10
-1.38143e-10
5.80797e-11
-1.3208e-11
3.75956e-12
-1.19616e-12
2.24725e-13
-3.01487e-14
4.37993e-14
-9.91689e-15
3.14943e-15
1.27053e-14
1.58499e-14
-2.42621e-14
4.70485e-15
3.71941e-14
2.28497e-14
1.15795e-14
0
-5.57714e-10
-6.4806e-10
1.1637e-10
-5.05363e-11
1.10331e-11
-3.15605e-12
8.91069e-13
-1.88634e-13
8.03748e-14
2.72927e-14
-9.34234e-15
-7.22744e-15
1.40391e-14
-4.52697e-14
6.02807e-14
2.43049e-14
-3.31968e-14
-1.95198e-14
1.77525e-14
0
5.32425e-10
6.83079e-10
-1.30764e-10
5.34246e-11
-1.27315e-11
3.64279e-12
-1.07838e-12
3.34945e-13
-3.77556e-14
3.95823e-14
-3.66806e-14
-1.64979e-14
-6.4809e-15
1.06499e-14
1.2496e-14
4.83448e-15
4.19506e-15
1.06833e-14
1.67488e-14
-2.71051e-14
-5.90809e-10
-5.77521e-10
8.52695e-11
-4.03661e-11
8.30434e-12
-1.55229e-12
7.22667e-13
1.37634e-14
2.51747e-14
5.05844e-14
-1.46484e-14
1.45764e-14
2.63184e-14
1.20662e-14
2.42481e-15
5.15623e-15
-6.75881e-14
-5.48828e-15
5.67133e-14
0
3.48246e-10
7.16753e-10
-1.29413e-10
6.54201e-11
-1.24584e-11
4.855e-12
-1.33282e-12
4.05568e-13
-1.53978e-13
1.33231e-15
5.55648e-15
-1.17393e-14
-1.05159e-14
-1.08445e-14
2.32621e-14
1.40079e-14
1.40769e-14
7.76289e-15
-1.85682e-14
-2.71051e-14
-3.26833e-10
-3.26345e-11
-1.27719e-10
7.03376e-11
-3.28784e-11
1.04897e-11
-3.90313e-12
1.0571e-12
-4.33681e-13
8.13152e-14
-5.42101e-14
0
0
2.71051e-14
-5.42101e-14
0
-2.71051e-14
2.71051e-14
2.71051e-14
-2.71051e-14
)
;

boundaryField
{
    movingWall
    {
        type            extrapolatedCalculated;
        value           nonuniform List<scalar> 
20
(
-3.26833e-10
-3.26345e-11
-1.27719e-10
7.03376e-11
-3.28784e-11
1.04897e-11
-3.90313e-12
1.0571e-12
-4.33681e-13
8.13152e-14
-5.42101e-14
0
0
2.71051e-14
-5.42101e-14
0
-2.71051e-14
2.71051e-14
2.71051e-14
-2.71051e-14
)
;
    }
    fixedWalls
    {
        type            extrapolatedCalculated;
        value           nonuniform List<scalar> 
60
(
-2.91949e-10
4.835e-10
-8.86986e-10
5.6056e-10
-2.11528e-10
-1.27936e-11
9.73343e-11
-2.01499e-10
2.57715e-10
-3.38569e-10
3.77031e-10
-4.3837e-10
4.54498e-10
-5.0288e-10
5.012e-10
-5.57714e-10
5.32425e-10
-5.90809e-10
3.48246e-10
-3.26833e-10
0
0
0
-2.71051e-14
8.13152e-14
-2.71051e-14
0
0
-2.71051e-14
0
0
-2.71051e-14
5.42101e-14
-5.42101e-14
0
0
-2.71051e-14
0
-2.71051e-14
-2.71051e-14
-2.91949e-10
1.82065e-10
-1.66744e-10
8.88873e-11
-3.86473e-11
1.16359e-11
-4.52472e-12
1.18945e-12
-4.44221e-13
8.19676e-14
-6.31958e-14
-9.41074e-15
-1.49862e-15
4.78461e-15
-1.91566e-15
-8.23803e-15
9.37453e-15
1.57468e-14
4.40292e-15
0
)
;
    }
    frontAndBack
    {
        type            empty;
    }
}


// ************************************************************************* //
