/*--------------------------------*- C++ -*----------------------------------*\
| =========                 |                                                 |
| \\      /  F ield         | OpenFOAM: The Open Source CFD Toolbox           |
|  \\    /   O peration     | Version:  2312                                  |
|   \\  /    A nd           | Website:  www.openfoam.com                      |
|    \\/     M anipulation  |                                                 |
\*---------------------------------------------------------------------------*/
FoamFile
{
    version     2.0;
    format      ascii;
    arch        "LSB;label=32;scalar=64";
    class       volScalarField;
    location    "5";
    object      dpdt2;
}
// * * * * * * * * * * * * * * * * * * * * * * * * * * * * * * * * * * * * * //

dimensions      [0 4 -6 0 0 0 0];

internalField   nonuniform List<scalar> 
400
(
1.27385e-28
2.11943e-24
5.80299e-32
2.17884e-24
2.67302e-24
4.44345e-24
5.54888e-24
6.60536e-24
7.38105e-24
8.31746e-24
9.02473e-24
9.47119e-24
1.00605e-23
1.06407e-23
1.11781e-23
1.19719e-23
1.22729e-23
1.22593e-23
1.23043e-23
1.26419e-23
3.50343e-25
2.88932e-26
1.60343e-24
2.37445e-24
3.27758e-24
4.5391e-24
5.75802e-24
6.82231e-24
7.54513e-24
8.36253e-24
9.07717e-24
9.35529e-24
1.01475e-23
1.07436e-23
1.14127e-23
1.21063e-23
1.2235e-23
1.2294e-23
1.25597e-23
1.2594e-23
8.34333e-25
2.12769e-23
2.12055e-24
3.5162e-24
3.91585e-24
5.20031e-24
6.13165e-24
6.89471e-24
7.72888e-24
8.37832e-24
9.18182e-24
9.75472e-24
1.02027e-23
1.07171e-23
1.1747e-23
1.21849e-23
1.24889e-23
1.23881e-23
1.25871e-23
1.25804e-23
1.24147e-24
4.47269e-24
3.01591e-24
2.9967e-24
4.82496e-24
5.59438e-24
6.53062e-24
7.20873e-24
8.16137e-24
8.99738e-24
9.66329e-24
9.93479e-24
1.02467e-23
1.10591e-23
1.17208e-23
1.21788e-23
1.25924e-23
1.28538e-23
1.28015e-23
1.25602e-23
3.22235e-24
2.9688e-23
3.34379e-24
4.92025e-24
4.98829e-24
6.24607e-24
7.21184e-24
7.79305e-24
8.6783e-24
9.65618e-24
1.01958e-23
1.07266e-23
1.08496e-23
1.11717e-23
1.18846e-23
1.24517e-23
1.25593e-23
1.26867e-23
1.30469e-23
1.30776e-23
2.72107e-24
3.11296e-24
4.93407e-24
4.42906e-24
6.19725e-24
6.73232e-24
7.54493e-24
8.50196e-24
9.13528e-24
1.02919e-23
1.1055e-23
1.13758e-23
1.11696e-23
1.16051e-23
1.2133e-23
1.26502e-23
1.28598e-23
1.29052e-23
1.29341e-23
1.3237e-23
5.61574e-24
3.2234e-23
5.30958e-24
6.69609e-24
6.58691e-24
7.49842e-24
8.11752e-24
9.05644e-24
9.57493e-24
1.07319e-23
1.16568e-23
1.18737e-23
1.12351e-23
1.20744e-23
1.27469e-23
1.2928e-23
1.31035e-23
1.32534e-23
1.31134e-23
1.3305e-23
4.34616e-24
5.38555e-25
6.96539e-24
6.46971e-24
7.99326e-24
8.22014e-24
9.0543e-24
9.58825e-24
1.04845e-23
1.1157e-23
1.19087e-23
1.23246e-23
1.21058e-23
1.25521e-23
1.28486e-23
1.32249e-23
1.32283e-23
1.35985e-23
1.36773e-23
1.35668e-23
8.75174e-24
2.9281e-23
7.18862e-24
8.87709e-24
8.66492e-24
9.1873e-24
9.68407e-24
1.05644e-23
1.13007e-23
1.15899e-23
1.22813e-23
1.26521e-23
1.2661e-23
1.30317e-23
1.30585e-23
1.33015e-23
1.36649e-23
1.37996e-23
1.3963e-23
1.41269e-23
6.16086e-24
2.49221e-25
9.01862e-24
8.86881e-24
1.03182e-23
1.03479e-23
1.07265e-23
1.15554e-23
1.22864e-23
1.21868e-23
1.23268e-23
1.29228e-23
1.32135e-23
1.35775e-23
1.34901e-23
1.41545e-23
1.4013e-23
1.41682e-23
1.43205e-23
1.4449e-23
1.16541e-23
2.69781e-23
1.00331e-23
1.12216e-23
1.12461e-23
1.16554e-23
1.18431e-23
1.27211e-23
1.33971e-23
1.327e-23
1.33703e-23
1.35573e-23
1.37816e-23
1.39264e-23
1.42589e-23
1.44401e-23
1.4357e-23
1.45517e-23
1.48336e-23
1.49055e-23
8.71908e-24
2.78652e-24
1.2051e-23
1.17466e-23
1.27805e-23
1.31482e-23
1.31264e-23
1.33991e-23
1.43178e-23
1.41656e-23
1.43452e-23
1.44631e-23
1.45992e-23
1.47622e-23
1.50682e-23
1.46708e-23
1.46524e-23
1.49424e-23
1.51642e-23
1.50168e-23
1.4538e-23
2.58603e-23
1.32491e-23
1.41939e-23
1.3931e-23
1.4066e-23
1.43597e-23
1.47509e-23
1.4844e-23
1.5067e-23
1.53335e-23
1.50927e-23
1.54269e-23
1.5386e-23
1.52575e-23
1.50443e-23
1.51576e-23
1.53843e-23
1.53178e-23
1.54065e-23
1.07449e-23
6.28118e-24
1.46961e-23
1.46361e-23
1.55171e-23
1.51023e-23
1.51046e-23
1.54519e-23
1.60472e-23
1.60112e-23
1.55139e-23
1.56486e-23
1.6351e-23
1.56752e-23
1.54496e-23
1.50726e-23
1.5756e-23
1.59174e-23
1.58059e-23
1.58914e-23
1.60679e-23
2.50725e-23
1.51979e-23
1.6112e-23
1.59871e-23
1.58832e-23
1.63596e-23
1.66024e-23
1.65943e-23
1.63003e-23
1.60405e-23
1.65584e-23
1.69226e-23
1.60118e-23
1.59691e-23
1.59889e-23
1.59896e-23
1.63256e-23
1.60193e-23
1.60314e-23
1.26001e-23
9.44295e-24
1.62007e-23
1.58586e-23
1.6912e-23
1.67958e-23
1.65076e-23
1.65713e-23
1.66e-23
1.70499e-23
1.73038e-23
1.74127e-23
1.69675e-23
1.6522e-23
1.66713e-23
1.71199e-23
1.68138e-23
1.64028e-23
1.64139e-23
1.61844e-23
1.7552e-23
2.54043e-23
1.62825e-23
1.67675e-23
1.68451e-23
1.68385e-23
1.68449e-23
1.72797e-23
1.71491e-23
1.75018e-23
1.78814e-23
1.74217e-23
1.71525e-23
1.69566e-23
1.69857e-23
1.81503e-23
1.72794e-23
1.70296e-23
1.66219e-23
1.65499e-23
1.32608e-23
1.26378e-23
1.67161e-23
1.64657e-23
1.67325e-23
1.69171e-23
1.72525e-23
1.78394e-23
1.79746e-23
1.81296e-23
1.78471e-23
1.75854e-23
1.72391e-23
1.76789e-23
1.78725e-23
1.82193e-23
1.79108e-23
1.72877e-23
1.70127e-23
1.6847e-23
1.76454e-23
2.8994e-23
1.56864e-23
1.71186e-23
1.64157e-23
1.7087e-23
1.71702e-23
1.78688e-23
1.83193e-23
1.83157e-23
1.80519e-23
1.81799e-23
1.79754e-23
1.81284e-23
1.83996e-23
1.82233e-23
1.78682e-23
1.74604e-23
1.74673e-23
1.69804e-23
1.47634e-23
2.19055e-23
9.95438e-24
1.72247e-23
1.61055e-23
1.73453e-23
1.75054e-23
1.80064e-23
1.86546e-23
1.87035e-23
1.8671e-23
1.83222e-23
1.81185e-23
1.85253e-23
1.83953e-23
1.77984e-23
1.8166e-23
1.7906e-23
1.71802e-23
1.70802e-23
)
;

boundaryField
{
    movingWall
    {
        type            calculated;
        value           nonuniform List<scalar> 
20
(
1.47634e-23
2.19055e-23
9.95438e-24
1.72247e-23
1.61055e-23
1.73453e-23
1.75054e-23
1.80064e-23
1.86546e-23
1.87035e-23
1.8671e-23
1.83222e-23
1.81185e-23
1.85253e-23
1.83953e-23
1.77984e-23
1.8166e-23
1.7906e-23
1.71802e-23
1.70802e-23
)
;
    }
    fixedWalls
    {
        type            calculated;
        value           nonuniform List<scalar> 
60
(
1.27385e-28
3.50343e-25
8.34333e-25
1.24147e-24
3.22235e-24
2.72107e-24
5.61574e-24
4.34616e-24
8.75174e-24
6.16086e-24
1.16541e-23
8.71908e-24
1.4538e-23
1.07449e-23
1.60679e-23
1.26001e-23
1.7552e-23
1.32608e-23
1.76454e-23
1.47634e-23
1.26419e-23
1.2594e-23
1.25804e-23
1.25602e-23
1.30776e-23
1.3237e-23
1.3305e-23
1.35668e-23
1.41269e-23
1.4449e-23
1.49055e-23
1.50168e-23
1.54065e-23
1.58914e-23
1.60314e-23
1.61844e-23
1.65499e-23
1.6847e-23
1.69804e-23
1.70802e-23
1.27385e-28
2.11943e-24
5.80299e-32
2.17884e-24
2.67302e-24
4.44345e-24
5.54888e-24
6.60536e-24
7.38105e-24
8.31746e-24
9.02473e-24
9.47119e-24
1.00605e-23
1.06407e-23
1.11781e-23
1.19719e-23
1.22729e-23
1.22593e-23
1.23043e-23
1.26419e-23
)
;
    }
    frontAndBack
    {
        type            empty;
    }
}


// ************************************************************************* //
