/*--------------------------------*- C++ -*----------------------------------*\
| =========                 |                                                 |
| \\      /  F ield         | OpenFOAM: The Open Source CFD Toolbox           |
|  \\    /   O peration     | Version:  2312                                  |
|   \\  /    A nd           | Website:  www.openfoam.com                      |
|    \\/     M anipulation  |                                                 |
\*---------------------------------------------------------------------------*/
FoamFile
{
    version     2.0;
    format      ascii;
    arch        "LSB;label=32;scalar=64";
    class       volScalarField;
    location    "5";
    object      dUdt2;
}
// * * * * * * * * * * * * * * * * * * * * * * * * * * * * * * * * * * * * * //

dimensions      [0 2 -4 0 0 0 0];

internalField   nonuniform List<scalar> 
400
(
7.86781e-17
4.43386e-18
2.50576e-19
1.40969e-20
7.99826e-22
4.50331e-23
2.51995e-24
1.4672e-25
1.06861e-26
3.27428e-28
5.76112e-28
5.21322e-28
4.93038e-28
1.80501e-31
2.07968e-29
4.07788e-29
2.28947e-30
8.19703e-30
5.62836e-30
5.07782e-28
7.87561e-17
4.44826e-18
2.49891e-19
1.41522e-20
7.88155e-22
4.54204e-23
2.45481e-24
1.47753e-25
5.98148e-27
2.10117e-27
6.58108e-28
4.00477e-30
3.26675e-30
5.42739e-28
6.72788e-28
1.97891e-27
1.98436e-27
6.65234e-29
2.73792e-29
1.56588e-29
7.8541e-17
4.42955e-18
2.49681e-19
1.40371e-20
7.99789e-22
4.37893e-23
2.62324e-24
1.37797e-25
1.10291e-26
2.31348e-27
5.25211e-28
5.13542e-29
4.93801e-28
4.56546e-27
5.10929e-28
1.11254e-28
5.13247e-28
1.4691e-30
2.23442e-27
4.44e-30
7.81044e-17
4.3978e-18
2.47591e-19
1.39621e-20
7.8132e-22
4.47189e-23
2.4245e-24
1.45904e-25
6.85997e-27
3.37727e-27
7.89115e-27
1.69614e-28
6.18208e-28
5.0667e-28
2.15884e-27
4.9465e-28
5.10409e-28
1.20184e-28
1.21325e-28
6.58756e-28
7.75556e-17
4.36592e-18
2.45812e-19
1.38215e-20
7.80895e-22
4.36488e-23
2.48252e-24
1.40404e-25
7.09099e-27
2.06249e-27
6.17865e-27
6.37248e-27
2.18099e-27
1.9869e-27
6.2674e-28
1.97221e-27
6.22293e-29
7.28332e-28
1.97792e-27
4.04537e-28
7.70896e-17
4.33891e-18
2.44175e-19
1.37497e-20
7.72326e-22
4.34308e-23
2.47539e-24
1.43219e-25
1.12103e-26
8.78611e-27
8.79872e-27
5.2138e-28
2.1456e-27
1.99967e-27
1.54928e-28
7.02471e-30
3.0274e-30
1.11791e-28
1.98883e-27
1.8529e-31
7.66267e-17
4.31142e-18
2.42668e-19
1.36521e-20
7.69144e-22
4.31165e-23
2.49506e-24
1.26083e-25
1.43207e-26
5.9122e-28
2.01031e-27
2.19819e-29
1.57862e-30
1.97908e-27
4.46723e-27
1.98914e-27
8.31574e-30
8.40974e-28
1.9982e-27
4.94712e-28
7.61887e-17
4.2866e-18
2.41251e-19
1.35733e-20
7.6284e-22
4.32437e-23
2.39186e-24
1.40494e-25
3.54884e-27
2.7267e-27
3.52133e-28
2.05176e-27
9.23357e-28
8.69268e-27
1.97261e-27
8.05615e-27
1.20604e-29
1.9833e-27
1.05464e-28
8.5794e-28
7.57558e-17
4.26183e-18
2.39834e-19
1.34953e-20
7.59577e-22
4.24829e-23
2.42921e-24
1.19567e-25
1.44407e-26
2.40707e-27
2.3158e-27
2.94354e-29
2.25033e-27
1.86517e-28
2.37779e-29
2.07253e-27
3.14791e-28
7.06195e-32
5.53059e-28
7.25723e-28
7.5355e-17
4.23962e-18
2.38581e-19
1.34216e-20
7.55044e-22
4.28023e-23
2.30597e-24
1.70108e-25
2.47562e-27
1.39924e-27
1.97215e-27
2.10451e-27
7.90155e-27
2.87263e-28
1.97249e-27
7.89909e-28
6.26064e-28
1.97731e-27
2.01121e-27
1.61197e-28
7.49779e-17
4.21829e-18
2.37419e-19
1.33544e-20
7.52612e-22
4.1829e-23
2.45849e-24
1.41736e-25
1.69755e-26
1.98127e-27
4.43226e-28
2.0525e-27
2.20928e-27
7.89612e-27
1.98814e-27
2.08395e-27
2.13735e-30
2.07842e-27
4.93553e-28
7.29571e-29
7.46354e-17
4.19959e-18
2.36297e-19
1.33057e-20
7.47466e-22
4.23548e-23
2.27885e-24
1.45359e-25
1.10144e-26
2.47926e-27
2.26814e-29
9.42084e-29
4.37091e-28
2.16293e-27
1.98013e-27
2.11502e-27
2.04845e-27
1.92901e-28
6.31448e-28
2.42828e-30
7.43262e-17
4.18216e-18
2.354e-19
1.32386e-20
7.45822e-22
4.1999e-23
2.38986e-24
1.34898e-25
9.99479e-27
2.08044e-27
1.11496e-28
1.97705e-27
4.53157e-28
7.95244e-27
2.02003e-29
3.67525e-28
2.02454e-27
4.75651e-29
7.91102e-27
3.8208e-28
7.40421e-17
4.16664e-18
2.34468e-19
1.32001e-20
7.41933e-22
4.16841e-23
2.37759e-24
1.19395e-25
1.01192e-26
9.77373e-29
1.38545e-28
3.65249e-28
3.32604e-28
6.04985e-29
5.75608e-28
4.3501e-29
2.02232e-27
1.29793e-29
2.2488e-30
7.77634e-28
7.3793e-17
4.15262e-18
2.33704e-19
1.31548e-20
7.39548e-22
4.18492e-23
2.27901e-24
1.50401e-25
5.51643e-27
2.43818e-27
2.54252e-27
2.34072e-27
7.93065e-27
1.01201e-28
9.44034e-30
7.38626e-28
1.99667e-27
8.92166e-29
9.06899e-29
1.44513e-29
7.35515e-17
4.13928e-18
2.33001e-19
1.31011e-20
7.39563e-22
4.11551e-23
2.46746e-24
1.18256e-25
9.06881e-27
9.03129e-27
2.27861e-27
2.57649e-29
6.14448e-28
2.01699e-27
6.65651e-30
1.44679e-27
6.8688e-28
1.99588e-27
2.0885e-27
5.90839e-28
7.33518e-17
4.1282e-18
2.32247e-19
1.30893e-20
7.31894e-22
4.19785e-23
2.2724e-24
1.33705e-25
7.58879e-27
9.3484e-28
5.63648e-28
2.38282e-27
4.1352e-28
2.0212e-27
2.60596e-28
2.15391e-27
1.75104e-28
1.89073e-29
6.56792e-28
1.45425e-28
7.3122e-17
4.11545e-18
2.31815e-19
1.3016e-20
7.39085e-22
4.07447e-23
2.39739e-24
1.23342e-25
1.18399e-26
4.47189e-27
3.03447e-28
9.37166e-30
5.50702e-28
2.00532e-27
1.25176e-27
5.76782e-28
5.48048e-28
1.99144e-27
3.10841e-29
4.76989e-29
7.29714e-17
4.10848e-18
2.30645e-19
1.3013e-20
7.25406e-22
4.14566e-23
2.22877e-24
1.41347e-25
6.71495e-27
5.24431e-27
6.61938e-28
5.50229e-28
4.98652e-28
1.0625e-28
4.53226e-27
7.20809e-28
2.10997e-27
7.95003e-27
4.97488e-28
6.18123e-30
7.27692e-17
4.09242e-18
2.30778e-19
1.29725e-20
7.33435e-22
4.11516e-23
2.34408e-24
1.24884e-25
1.07991e-26
9.97171e-28
1.97399e-27
5.17019e-31
4.43914e-27
2.31176e-27
1.98805e-27
3.19201e-29
4.93854e-28
4.93919e-28
6.93001e-28
5.83323e-31
)
;

boundaryField
{
    movingWall
    {
        type            calculated;
        value           uniform 0;
    }
    fixedWalls
    {
        type            calculated;
        value           uniform 0;
    }
    frontAndBack
    {
        type            empty;
    }
}


// ************************************************************************* //
