/*--------------------------------*- C++ -*----------------------------------*\
| =========                 |                                                 |
| \\      /  F ield         | OpenFOAM: The Open Source CFD Toolbox           |
|  \\    /   O peration     | Version:  2312                                  |
|   \\  /    A nd           | Website:  www.openfoam.com                      |
|    \\/     M anipulation  |                                                 |
\*---------------------------------------------------------------------------*/
FoamFile
{
    version     2.0;
    format      ascii;
    arch        "LSB;label=32;scalar=64";
    class       volScalarField;
    location    "5";
    object      enstrophyField;
}
// * * * * * * * * * * * * * * * * * * * * * * * * * * * * * * * * * * * * * //

dimensions      [0 0 -2 0 0 0 0];

internalField   nonuniform List<scalar> 
400
(
2.52551e-14
3.87105e-14
2.18169e-15
1.23831e-16
6.93528e-18
4.01717e-19
2.15073e-20
1.41758e-21
5.13474e-23
8.93232e-24
2.76882e-26
3.24708e-25
7.96399e-26
5.25409e-26
2.08334e-26
1.11089e-26
5.95365e-27
1.49472e-27
1.59604e-27
1.4249e-28
2.50251e-14
3.87769e-14
2.1891e-15
1.23574e-16
6.97613e-18
3.93833e-19
2.22295e-20
1.25313e-21
7.10308e-23
4.28416e-24
2.2392e-25
5.899e-27
1.12774e-27
1.14665e-30
3.31235e-28
2.60826e-30
1.34111e-27
1.23525e-27
4.88821e-28
5.19945e-28
2.49362e-14
3.86842e-14
2.17972e-15
1.22813e-16
6.91923e-18
3.89911e-19
2.19588e-20
1.24201e-21
6.93003e-23
3.91771e-24
2.5565e-25
5.92121e-27
6.96178e-28
1.16661e-27
6.00086e-29
2.84676e-28
6.17849e-28
2.00052e-28
2.53956e-28
4.88824e-28
2.51238e-14
3.87032e-14
2.17995e-15
1.22775e-16
6.91522e-18
3.89365e-19
2.19478e-20
1.23176e-21
7.02982e-23
3.66628e-24
2.52723e-25
9.19343e-27
7.25931e-28
1.32899e-27
2.37335e-28
1.20077e-27
6.34515e-28
3.59687e-27
6.96e-28
6.79338e-28
2.51133e-14
3.85496e-14
2.17069e-15
1.22223e-16
6.88203e-18
3.87481e-19
2.18185e-20
1.22763e-21
6.95395e-23
3.981e-24
1.62101e-25
1.43633e-26
6.39831e-29
1.34832e-27
2.75708e-28
1.353e-28
5.64778e-28
2.30449e-27
1.30774e-27
4.13061e-28
2.50652e-14
3.83659e-14
2.16005e-15
1.21605e-16
6.84603e-18
3.85426e-19
2.16816e-20
1.22346e-21
6.85811e-23
3.81104e-24
2.50826e-25
7.14509e-27
3.40768e-27
2.56628e-28
4.46184e-27
9.42189e-30
4.88884e-27
1.30147e-27
5.17938e-27
8.96732e-28
2.49429e-14
3.81388e-14
2.1471e-15
1.20868e-16
6.80382e-18
3.83074e-19
2.15401e-20
1.21561e-21
6.75976e-23
3.67787e-24
2.45462e-25
1.70566e-26
3.97795e-27
3.34346e-29
5.94083e-29
1.72665e-27
2.02062e-27
6.55236e-27
4.3887e-28
1.17322e-28
2.48152e-14
3.7918e-14
2.13458e-15
1.20158e-16
6.76361e-18
3.80797e-19
2.14343e-20
1.20892e-21
6.8044e-23
3.59426e-24
2.10291e-25
1.30482e-26
3.254e-27
1.43662e-27
8.72066e-28
4.30857e-29
1.91574e-28
1.15092e-27
7.65555e-28
2.41714e-29
2.46708e-14
3.76887e-14
2.12163e-15
1.19427e-16
6.72238e-18
3.78497e-19
2.13028e-20
1.20278e-21
6.68249e-23
3.87554e-24
1.31385e-25
4.38031e-26
6.92451e-27
1.11605e-26
1.79032e-26
8.56888e-27
3.6756e-27
1.29041e-28
6.34407e-28
6.55489e-28
2.45299e-14
3.74696e-14
2.10929e-15
1.18731e-16
6.68354e-18
3.76121e-19
2.12112e-20
1.18461e-21
6.85262e-23
3.52473e-24
2.43617e-25
4.75397e-27
5.77112e-28
2.44463e-27
2.23931e-27
1.07241e-28
6.8177e-28
1.01926e-27
2.06876e-28
3.91477e-29
2.43876e-14
3.72539e-14
2.09715e-15
1.18048e-16
6.64478e-18
3.74087e-19
2.10618e-20
1.18545e-21
6.66705e-23
3.73588e-24
2.56673e-25
5.82764e-27
5.27712e-27
2.30923e-28
1.16398e-28
3.68816e-28
2.52811e-28
1.83655e-29
1.87789e-27
1.68251e-29
2.4247e-14
3.70461e-14
2.08546e-15
1.1739e-16
6.60778e-18
3.71969e-19
2.09483e-20
1.17895e-21
6.51629e-23
3.91602e-24
1.5997e-25
1.62344e-26
1.5462e-27
3.3812e-28
2.73297e-28
1.68546e-29
2.06513e-28
1.1899e-30
8.74373e-27
6.54804e-29
2.41132e-14
3.68486e-14
2.07436e-15
1.16766e-16
6.57281e-18
3.69923e-19
2.08359e-20
1.17482e-21
6.51897e-23
3.90604e-24
1.62306e-25
1.76484e-26
2.49811e-29
1.60284e-27
1.48651e-27
1.90921e-29
2.23289e-27
6.62564e-29
7.03214e-29
7.3797e-32
2.39761e-14
3.66532e-14
2.06338e-15
1.1615e-16
6.53813e-18
3.68092e-19
2.06901e-20
1.17444e-21
6.48709e-23
3.79549e-24
2.23054e-25
2.36472e-26
2.33288e-28
8.81957e-30
8.40083e-28
1.3759e-28
6.12221e-28
5.01561e-32
1.44424e-27
5.18573e-30
2.38538e-14
3.64732e-14
2.05328e-15
1.15583e-16
6.50633e-18
3.66283e-19
2.0622e-20
1.15503e-21
6.63487e-23
3.57611e-24
2.52524e-25
1.42141e-26
1.16236e-27
2.27415e-27
2.93274e-27
4.51747e-28
7.10556e-28
2.17663e-28
1.77911e-29
7.61555e-28
2.37144e-14
3.62836e-14
2.04265e-15
1.14984e-16
6.47303e-18
3.64341e-19
2.05198e-20
1.14985e-21
6.53146e-23
3.48581e-24
2.4298e-25
9.38703e-27
3.53617e-29
1.69489e-27
2.1401e-28
4.92915e-28
6.00566e-28
6.06777e-28
1.44164e-28
1.13799e-28
2.36111e-14
3.6118e-14
2.03337e-15
1.14466e-16
6.44371e-18
3.6275e-19
2.04018e-20
1.15233e-21
6.43781e-23
3.43661e-24
2.37838e-25
1.40863e-26
1.33555e-27
4.35201e-27
5.25828e-28
5.67099e-29
4.4815e-28
4.74615e-27
2.71877e-28
6.69739e-30
2.34482e-14
3.59185e-14
2.02216e-15
1.13838e-16
6.40811e-18
3.60788e-19
2.03036e-20
1.14245e-21
6.43465e-23
3.72966e-24
2.20752e-25
1.03445e-26
3.00978e-28
1.26797e-27
3.80776e-28
1.79566e-28
2.90149e-28
4.70157e-28
1.1376e-28
6.98656e-29
2.35228e-14
3.58719e-14
2.02263e-15
1.14037e-16
6.42957e-18
3.62465e-19
2.04446e-20
1.15249e-21
6.50737e-23
3.69047e-24
2.33012e-25
8.44675e-27
5.33956e-27
3.50186e-28
2.06005e-29
1.64498e-27
9.03823e-29
6.04459e-28
2.18841e-28
2.9056e-28
2.34751e-14
3.56991e-14
2.00966e-15
1.13827e-16
6.38131e-18
3.67152e-19
1.99064e-20
1.26643e-21
5.16031e-23
6.50941e-24
2.61474e-27
1.81078e-25
1.42139e-26
1.94141e-26
6.33785e-27
2.37926e-27
1.89884e-27
4.27182e-28
4.57062e-28
4.99131e-28
)
;

boundaryField
{
    movingWall
    {
        type            calculated;
        value           nonuniform List<scalar> 
20
(
2.30827e-14
3.57631e-14
2.01615e-15
1.15504e-16
6.4564e-18
3.8234e-19
1.99392e-20
1.44838e-21
4.18267e-23
1.07327e-23
9.42188e-26
4.94593e-25
7.16502e-26
1.01882e-25
3.66175e-26
1.09518e-26
4.6304e-27
2.25665e-30
1.12995e-27
1.19556e-27
)
;
    }
    fixedWalls
    {
        type            calculated;
        value           nonuniform List<scalar> 
60
(
6.94634e-13
6.95417e-13
6.94842e-13
6.95245e-13
6.92544e-13
6.89278e-13
6.85212e-13
6.81253e-13
6.77136e-13
6.73202e-13
6.69328e-13
6.65592e-13
6.6204e-13
6.58525e-13
6.55286e-13
6.51875e-13
6.48892e-13
6.45301e-13
6.43512e-13
6.40615e-13
5.54758e-28
6.90932e-28
3.68797e-28
1.21632e-27
5.0312e-31
1.74364e-28
6.00818e-29
4.78803e-29
6.74721e-28
6.47182e-29
3.84487e-29
2.40152e-28
1.75273e-29
7.41951e-29
8.92367e-28
3.68575e-29
2.30182e-29
9.40217e-29
4.98917e-28
6.34769e-28
2.52782e-14
3.88974e-14
2.19759e-15
1.26329e-16
7.03802e-18
4.22738e-19
2.14357e-20
1.67124e-21
3.58204e-23
1.71499e-23
6.86115e-25
9.92067e-25
3.49693e-25
2.09779e-25
8.57268e-26
2.77479e-26
2.48077e-26
8.93684e-27
4.15016e-27
1.4249e-28
)
;
    }
    frontAndBack
    {
        type            empty;
    }
}


// ************************************************************************* //
