/*--------------------------------*- C++ -*----------------------------------*\
| =========                 |                                                 |
| \\      /  F ield         | OpenFOAM: The Open Source CFD Toolbox           |
|  \\    /   O peration     | Version:  2312                                  |
|   \\  /    A nd           | Website:  www.openfoam.com                      |
|    \\/     M anipulation  |                                                 |
\*---------------------------------------------------------------------------*/
FoamFile
{
    version     2.0;
    format      ascii;
    arch        "LSB;label=32;scalar=64";
    class       volScalarField;
    location    "5";
    object      flowTypeField;
}
// * * * * * * * * * * * * * * * * * * * * * * * * * * * * * * * * * * * * * //

dimensions      [0 0 0 0 0 0 0];

internalField   nonuniform List<scalar> 
400
(
1.54784e-05
-0.000719247
-0.00114261
-0.00343181
-0.00142092
-0.0119088
0.0107395
-0.0590857
0.139464
-0.395351
0.747042
-0.133943
0.136601
0.0396735
0.0760915
0.0292228
0.0691459
0.239781
0.160836
0.475229
0.00568049
0.000159518
0.000458707
-0.00189837
-0.000297139
-0.00642166
0.0022078
-0.0218765
0.0283361
-0.123497
0.255907
0.590159
0.773354
0.983441
0.703641
0.943165
0.347473
0.200239
0.474654
0.00110998
0.00765227
0.00123491
0.00196373
0.00218539
0.00147737
0.00558888
-0.00358969
0.0208081
-0.0418433
0.122637
-0.325587
0.687582
0.722861
0.643505
0.888237
0.695631
0.446378
0.0106653
0.00235879
0.00457049
0.00362602
0.000607948
0.000816288
0.000802942
0.00117782
-0.000303101
0.00575236
-0.0132283
0.0417093
-0.120177
0.236962
0.231545
0.783368
0.662362
0.739436
0.418287
0.45508
-0.213045
0.36484
0.0149754
0.00164931
0.000282264
0.00035621
0.000392794
0.000229709
0.00130241
-0.00266917
0.0121183
-0.0405848
0.103476
-0.491108
0.528075
0.890458
0.511293
0.691739
0.75964
0.585043
0.38974
0.420103
0.608481
-1.91732e-05
1.59704e-05
-5.64689e-05
-3.53508e-06
8.76755e-06
-0.000506745
0.00233947
-0.00880591
0.0300931
-0.106301
0.221198
0.153131
0.513417
0.792341
0.00908742
0.914835
-0.811705
0.0533361
0.0769462
-0.0221789
-0.000616389
-8.87058e-05
-0.000174746
-0.000168866
-0.00020263
-8.92515e-05
-0.000985204
0.00464063
-0.0163569
0.0959047
-0.304134
0.385474
0.530765
0.930806
0.87695
0.120342
0.0871518
-0.776126
0.0328848
0.423836
-0.00101455
-0.000152268
-0.000284564
-0.000240969
-0.000301161
-0.00057872
0.000241245
-0.00494915
0.0145998
-0.0269701
0.202183
0.105052
0.514176
0.50967
0.643455
0.896928
0.774375
0.0912817
0.000357571
0.0236713
-0.00114716
-0.000177906
-0.000306953
-0.000292627
-0.000330753
-0.000511067
-0.000873863
0.000206369
-0.00434147
0.0276072
0.166995
0.0729493
0.296451
0.030896
-0.222998
-0.362608
-0.13744
0.759959
0.0907492
0.0843114
-0.00121225
-0.000188512
-0.000326194
-0.000298421
-0.000394862
-0.000374902
-0.000972844
0.00113377
-0.00605
0.0252274
0.073141
0.494762
0.80625
0.258032
0.418211
0.777705
0.00128624
-0.0661675
0.424073
0.000273576
-0.00118955
-0.000186738
-0.000316909
-0.000299185
-0.000356731
-0.00049663
-0.00063019
-0.000911958
0.000258666
0.00611701
-0.0284765
0.476931
0.120443
0.719753
0.735549
0.557159
0.680542
0.900248
-0.12735
0.729986
-0.00108655
-0.000172015
-0.000285006
-0.000275365
-0.000315882
-0.000387957
-0.000876208
0.000571164
0.00327825
0.00378276
0.109161
0.348982
0.505428
0.699936
0.760152
0.861143
0.720167
0.85383
-0.216308
0.654302
-0.000982375
-0.000154759
-0.000261947
-0.00023737
-0.000290917
-0.00038291
1.65476e-05
-0.00380145
0.0142122
-0.0554369
0.248255
0.150787
0.935989
0.397374
0.460832
0.878127
-0.166826
0.00573333
0.382143
0.981956
-0.000761414
-0.000122143
-0.000192793
-0.00019936
-0.000225551
-0.00014454
-0.000751797
0.00113357
-0.0113173
0.0401158
-0.174512
0.190788
0.800306
0.930881
0.387371
0.702132
0.368646
0.234482
0.111136
0.885924
-0.000660117
-0.000102734
-0.000183523
-0.00016263
-0.000154103
-0.00064375
0.00134541
-0.00499449
0.0164456
-0.0594241
0.113564
0.0491013
0.655775
0.248877
-0.333898
0.339512
0.423277
0.372613
0.280424
0.0346382
-0.000274088
-4.62886e-05
-6.7084e-05
-5.39072e-05
-0.000206824
0.000643102
-0.00291759
0.0111839
-0.0339658
0.110413
-0.526104
0.541636
0.888857
0.340928
0.738172
0.230889
0.236092
0.0795819
0.0563591
0.433273
-0.000430312
-6.61781e-05
-0.000126096
-0.00015916
0.000130032
-0.00144553
0.00415527
-0.0142716
0.039032
-0.102397
0.195058
0.0518114
0.620314
0.331088
0.596786
0.708109
0.051787
-0.773393
0.309836
0.799763
0.000413464
4.58886e-05
0.00012431
0.000370945
-0.000435957
0.00255487
-0.00485305
0.0156887
-0.039529
0.0924965
-0.358689
0.511969
0.737655
0.593475
0.638774
0.685836
0.761576
0.477739
0.764696
0.10366
-0.00334634
-0.00130027
-0.00196961
-0.00397703
-0.00337517
-0.00897918
-0.00287334
-0.0236178
0.0181434
-0.0956211
0.149965
0.35495
0.381445
0.683897
0.856351
0.052229
0.494103
-0.122926
0.414009
0.299449
-0.00445296
-0.00144593
-0.00237171
-0.00439355
-0.00336246
-0.0121119
0.00432502
-0.0501907
0.0963906
-0.28413
0.887756
-0.259869
0.235723
0.0266392
0.284716
0.0676954
0.0127436
0.115451
0.0792134
0.189611
)
;

boundaryField
{
    movingWall
    {
        type            calculated;
        value           nonuniform List<scalar> 
20
(
0.765033
0.267966
0.267593
0.262092
0.264827
0.248445
0.275045
0.188209
0.403483
-0.141632
0.654746
-0.221005
0.0984753
-0.00301307
0.087649
-0.0147495
-0.0143914
0.830314
-0.0450074
0.0723875
)
;
    }
    fixedWalls
    {
        type            calculated;
        value           nonuniform List<scalar> 
60
(
2.52576e-06
0.00108223
0.00146635
0.000704189
0.000331548
1.23582e-05
-0.000102101
-0.000180498
-0.000207376
-0.000222212
-0.000219306
-0.000201552
-0.000182551
-0.000141738
-0.000122698
-5.01037e-05
-7.9475e-05
8.0265e-05
-0.000634056
-0.000850168
0.108615
0.553291
0.00601988
0.00851605
0.973623
0.742843
0.580455
0.0125775
0.278345
0.000168289
0.861457
0.629205
0.903173
0.755175
0.204671
0.666444
0.790111
0.0816529
0.374885
0.301581
0.764164
0.267837
0.267388
0.261196
0.265668
0.245178
0.281628
0.170669
0.469764
-0.270561
0.41753
-0.144389
0.0495505
-0.0122119
0.00927664
-0.00934717
0.0167553
0.0594037
0.0763875
0.567481
)
;
    }
    frontAndBack
    {
        type            empty;
    }
}


// ************************************************************************* //
