/*--------------------------------*- C++ -*----------------------------------*\
| =========                 |                                                 |
| \\      /  F ield         | OpenFOAM: The Open Source CFD Toolbox           |
|  \\    /   O peration     | Version:  2312                                  |
|   \\  /    A nd           | Website:  www.openfoam.com                      |
|    \\/     M anipulation  |                                                 |
\*---------------------------------------------------------------------------*/
FoamFile
{
    version     2.0;
    format      ascii;
    arch        "LSB;label=32;scalar=64";
    class       surfaceScalarField;
    location    "5";
    object      fluxField;
}
// * * * * * * * * * * * * * * * * * * * * * * * * * * * * * * * * * * * * * //

dimensions      [0 3 -1 0 0 0 0];

oriented        oriented;

internalField   nonuniform List<scalar> 
760
(
-5e-05
-1.21201e-16
-5e-05
5.90282e-17
-5e-05
-4.93026e-19
-5e-05
4.54254e-18
-5e-05
1.47835e-18
-5e-05
6.93125e-19
-5e-05
5.01899e-19
-5e-05
2.49929e-19
-5e-05
1.80324e-19
-5e-05
1.1536e-19
-5e-05
8.5845e-20
-5e-05
5.86337e-20
-5e-05
4.02829e-20
-5e-05
2.83012e-20
-5e-05
1.98499e-20
-5e-05
1.1493e-20
-5e-05
9.1199e-21
-5e-05
1.0713e-20
-5e-05
7.87699e-21
4.40518e-21
-5e-05
-2.87022e-18
-5e-05
1.39464e-17
-5e-05
6.14826e-18
-5e-05
3.24952e-18
-5e-05
2.33157e-18
-5e-05
1.07291e-18
-5e-05
7.89643e-19
-5e-05
4.46137e-19
-5e-05
3.09961e-19
-5e-05
2.06328e-19
-5e-05
1.52223e-19
-5e-05
1.09369e-19
-5e-05
7.76334e-20
-5e-05
5.4286e-20
-5e-05
3.80738e-20
-5e-05
2.47838e-20
-5e-05
1.7985e-20
-5e-05
1.53907e-20
-5e-05
1.18579e-20
4.02076e-21
-5e-05
3.54754e-17
-5e-05
-1.77645e-17
-5e-05
8.40636e-18
-5e-05
4.40663e-19
-5e-05
2.32459e-18
-5e-05
1.00819e-18
-5e-05
8.62101e-19
-5e-05
5.33471e-19
-5e-05
3.83703e-19
-5e-05
2.61635e-19
-5e-05
1.91468e-19
-5e-05
1.40688e-19
-5e-05
1.03294e-19
-5e-05
7.44002e-20
-5e-05
5.66732e-20
-5e-05
3.91097e-20
-5e-05
2.4904e-20
-5e-05
1.46394e-20
-5e-05
1.22519e-20
4.78003e-21
-5e-05
-1.71493e-16
-5e-05
4.70632e-17
-5e-05
-9.98355e-18
-5e-05
4.26742e-18
-5e-05
4.98191e-19
-5e-05
1.14586e-18
-5e-05
6.86983e-19
-5e-05
5.5089e-19
-5e-05
3.96136e-19
-5e-05
2.90905e-19
-5e-05
2.11824e-19
-5e-05
1.53871e-19
-5e-05
1.15259e-19
-5e-05
8.61869e-20
-5e-05
6.77321e-20
-5e-05
4.77646e-20
-5e-05
3.10395e-20
-5e-05
2.01559e-20
-5e-05
1.32553e-20
3.1453e-21
-5e-05
1.97116e-16
-5e-05
-4.93264e-17
-5e-05
1.30689e-17
-5e-05
-2.07751e-18
-5e-05
1.63333e-18
-5e-05
5.61463e-19
-5e-05
6.55816e-19
-5e-05
4.68082e-19
-5e-05
3.77281e-19
-5e-05
2.85181e-19
-5e-05
2.12981e-19
-5e-05
1.55592e-19
-5e-05
1.19178e-19
-5e-05
9.03472e-20
-5e-05
6.66511e-20
-5e-05
4.73078e-20
-5e-05
3.43483e-20
-5e-05
2.42132e-20
-5e-05
1.14609e-20
-4.6423e-22
-5e-05
-2.25164e-16
-5e-05
5.50577e-17
-5e-05
-1.26153e-17
-5e-05
3.7931e-18
-5e-05
-1.44551e-19
-5e-05
7.47104e-19
-5e-05
4.37998e-19
-5e-05
4.0753e-19
-5e-05
3.15113e-19
-5e-05
2.50935e-19
-5e-05
1.91755e-19
-5e-05
1.47388e-19
-5e-05
1.14479e-19
-5e-05
8.80614e-20
-5e-05
6.3426e-20
-5e-05
4.68414e-20
-5e-05
3.4097e-20
-5e-05
1.97807e-20
-5e-05
6.27577e-21
4.82022e-22
-5e-05
2.17116e-16
-5e-05
-5.21343e-17
-5e-05
1.2846e-17
-5e-05
-2.58262e-18
-5e-05
1.15844e-18
-5e-05
2.34629e-19
-5e-05
4.05366e-19
-5e-05
3.01216e-19
-5e-05
2.56215e-19
-5e-05
2.03542e-19
-5e-05
1.60373e-19
-5e-05
1.28485e-19
-5e-05
1.00374e-19
-5e-05
7.64061e-20
-5e-05
5.51366e-20
-5e-05
4.2138e-20
-5e-05
3.13484e-20
-5e-05
1.75864e-20
-5e-05
4.28762e-21
3.97338e-22
-5e-05
-2.22519e-16
-5e-05
5.3229e-17
-5e-05
-1.24323e-17
-5e-05
3.27631e-18
-5e-05
-4.30963e-19
-5e-05
4.49344e-19
-5e-05
2.15217e-19
-5e-05
2.36107e-19
-5e-05
1.85506e-19
-5e-05
1.55651e-19
-5e-05
1.25891e-19
-5e-05
1.01344e-19
-5e-05
7.87287e-20
-5e-05
5.85322e-20
-5e-05
4.15302e-20
-5e-05
2.84427e-20
-5e-05
2.00342e-20
-5e-05
1.19014e-20
-5e-05
4.02357e-21
-9.75162e-24
-5e-05
2.12352e-16
-5e-05
-5.04012e-17
-5e-05
1.21062e-17
-5e-05
-2.69832e-18
-5e-05
8.44651e-19
-5e-05
8.42433e-21
-5e-05
1.94795e-19
-5e-05
1.26215e-19
-5e-05
1.15401e-19
-5e-05
9.64317e-20
-5e-05
8.3152e-20
-5e-05
6.36313e-20
-5e-05
4.70859e-20
-5e-05
3.92699e-20
-5e-05
3.39925e-20
-5e-05
2.22466e-20
-5e-05
1.17022e-20
-5e-05
5.1328e-21
-5e-05
3.17479e-21
1.31292e-21
-5e-05
-2.08604e-16
-5e-05
4.94334e-17
-5e-05
-1.16818e-17
-5e-05
2.83257e-18
-5e-05
-5.95252e-19
-5e-05
2.19141e-19
-5e-05
1.8923e-20
-5e-05
5.77806e-20
-5e-05
4.17342e-20
-5e-05
3.82083e-20
-5e-05
3.56938e-20
-5e-05
2.92706e-20
-5e-05
1.95285e-20
-5e-05
1.93555e-20
-5e-05
2.20532e-20
-5e-05
1.95718e-20
-5e-05
1.21755e-20
-5e-05
4.71875e-21
-5e-05
2.4032e-21
1.25913e-21
-5e-05
2.00531e-16
-5e-05
-4.7321e-17
-5e-05
1.11774e-17
-5e-05
-2.69334e-18
-5e-05
5.78381e-19
-5e-05
-1.93173e-19
-5e-05
-7.62453e-21
-5e-05
-4.1192e-20
-5e-05
-2.07204e-20
-5e-05
-1.51435e-20
-5e-05
-4.43885e-21
-5e-05
2.23991e-21
-5e-05
6.64902e-23
-5e-05
4.68475e-22
-5e-05
5.16403e-21
-5e-05
1.01277e-20
-5e-05
6.6291e-21
-5e-05
-5.74538e-22
-5e-05
1.75365e-21
3.61188e-21
-5e-05
-1.91168e-16
-5e-05
4.50067e-17
-5e-05
-1.08019e-17
-5e-05
2.37048e-18
-5e-05
-7.58279e-19
-5e-05
-1.03765e-20
-5e-05
-1.64429e-19
-5e-05
-1.00449e-19
-5e-05
-8.89701e-20
-5e-05
-6.59817e-20
-5e-05
-4.74204e-20
-5e-05
-3.10714e-20
-5e-05
-2.22363e-20
-5e-05
-1.61016e-20
-5e-05
-9.56102e-21
-5e-05
-3.55931e-21
-5e-05
-2.8781e-21
-5e-05
-5.48596e-21
-5e-05
3.85417e-22
3.43385e-21
-5e-05
1.88028e-16
-5e-05
-4.4262e-17
-5e-05
1.02032e-17
-5e-05
-2.74502e-18
-5e-05
2.78159e-19
-5e-05
-4.11361e-19
-5e-05
-2.00447e-19
-5e-05
-1.91843e-19
-5e-05
-1.41436e-19
-5e-05
-1.10316e-19
-5e-05
-8.36331e-20
-5e-05
-6.03184e-20
-5e-05
-4.23523e-20
-5e-05
-3.00701e-20
-5e-05
-2.15757e-20
-5e-05
-1.31252e-20
-5e-05
-6.93885e-21
-5e-05
-5.16659e-21
-5e-05
-3.98182e-21
-2.08537e-21
-5e-05
-1.75207e-16
-5e-05
4.10393e-17
-5e-05
-1.01804e-17
-5e-05
1.84794e-18
-5e-05
-1.01127e-18
-5e-05
-2.8551e-19
-5e-05
-3.75156e-19
-5e-05
-2.60858e-19
-5e-05
-2.00067e-19
-5e-05
-1.4729e-19
-5e-05
-1.12102e-19
-5e-05
-8.23912e-20
-5e-05
-5.92279e-20
-5e-05
-4.18561e-20
-5e-05
-2.77651e-20
-5e-05
-1.92383e-20
-5e-05
-1.08452e-20
-5e-05
-5.00939e-21
-5e-05
-5.54991e-21
-3.40173e-21
-5e-05
1.81164e-16
-5e-05
-4.27011e-17
-5e-05
9.2998e-18
-5e-05
-3.05092e-18
-5e-05
-1.30714e-19
-5e-05
-6.93189e-19
-5e-05
-4.21012e-19
-5e-05
-3.50395e-19
-5e-05
-2.51483e-19
-5e-05
-1.85562e-19
-5e-05
-1.38004e-19
-5e-05
-1.00857e-19
-5e-05
-7.13626e-20
-5e-05
-5.02476e-20
-5e-05
-3.31706e-20
-5e-05
-2.59288e-20
-5e-05
-1.78065e-20
-5e-05
-7.8401e-21
-5e-05
-3.8814e-21
-2.10377e-21
-5e-05
-1.65622e-16
-5e-05
3.84134e-17
-5e-05
-1.04537e-17
-5e-05
1.12851e-18
-5e-05
-1.49722e-18
-5e-05
-6.06052e-19
-5e-05
-5.83608e-19
-5e-05
-3.92748e-19
-5e-05
-2.91614e-19
-5e-05
-2.03241e-19
-5e-05
-1.44637e-19
-5e-05
-1.03451e-19
-5e-05
-7.10291e-20
-5e-05
-5.1975e-20
-5e-05
-3.91399e-20
-5e-05
-2.78051e-20
-5e-05
-2.18517e-20
-5e-05
-1.16562e-20
-5e-05
-2.33813e-21
-1.58152e-21
-5e-05
1.8574e-16
-5e-05
-4.39632e-17
-5e-05
7.49892e-18
-5e-05
-3.98431e-18
-5e-05
-8.72158e-19
-5e-05
-9.93433e-19
-5e-05
-5.94856e-19
-5e-05
-4.17707e-19
-5e-05
-2.87266e-19
-5e-05
-1.93392e-19
-5e-05
-1.31143e-19
-5e-05
-9.22159e-20
-5e-05
-6.26066e-20
-5e-05
-4.47714e-20
-5e-05
-3.75336e-20
-5e-05
-2.58964e-20
-5e-05
-1.928e-20
-5e-05
-1.08817e-20
-5e-05
-2.58905e-21
-1.28112e-21
-5e-05
-1.49355e-16
-5e-05
3.19517e-17
-5e-05
-1.57081e-17
-5e-05
5.40421e-19
-5e-05
-2.60631e-18
-5e-05
-5.91361e-19
-5e-05
-6.5959e-19
-5e-05
-3.2182e-19
-5e-05
-2.44428e-19
-5e-05
-1.49984e-19
-5e-05
-1.05306e-19
-5e-05
-7.08948e-20
-5e-05
-4.76305e-20
-5e-05
-3.08648e-20
-5e-05
-2.64989e-20
-5e-05
-1.90397e-20
-5e-05
-1.01208e-20
-5e-05
-8.14833e-21
-5e-05
-6.15047e-21
-2.83134e-21
-5e-05
1.74327e-16
-5e-05
-6.11455e-17
-5e-05
3.89301e-18
-5e-05
-3.89244e-18
-5e-05
-1.0885e-18
-5e-05
-5.0742e-19
-5e-05
-3.94191e-19
-5e-05
-1.83211e-19
-5e-05
-1.40139e-19
-5e-05
-8.09821e-20
-5e-05
-5.95973e-20
-5e-05
-3.68161e-20
-5e-05
-2.29578e-20
-5e-05
-1.62637e-20
-5e-05
-1.45133e-20
-5e-05
-1.00506e-20
-5e-05
-3.25704e-21
-5e-05
-4.83554e-21
-5e-05
-4.64204e-21
-2.50713e-21
-5e-05
-5e-05
-5e-05
-5e-05
-5e-05
-5e-05
-5e-05
-5e-05
-5e-05
-5e-05
-5e-05
-5e-05
-5e-05
-5e-05
-5e-05
-5e-05
-5e-05
-5e-05
-5e-05
)
;

boundaryField
{
    movingWall
    {
        type            calculated;
        value           uniform -0;
    }
    fixedWalls
    {
        type            calculated;
        value           nonuniform List<scalar> 
60
(
5e-05
5e-05
5e-05
5e-05
5e-05
5e-05
5e-05
5e-05
5e-05
5e-05
5e-05
5e-05
5e-05
5e-05
5e-05
5e-05
5e-05
5e-05
5e-05
5e-05
-5e-05
-5e-05
-5e-05
-5e-05
-5e-05
-5e-05
-5e-05
-5e-05
-5e-05
-5e-05
-5e-05
-5e-05
-5e-05
-5e-05
-5e-05
-5e-05
-5e-05
-5e-05
-5e-05
-5e-05
0
0
0
0
0
0
0
0
0
0
0
0
0
0
0
0
0
0
0
0
)
;
    }
    frontAndBack
    {
        type            empty;
        value           nonuniform List<scalar> 0();
    }
}


// ************************************************************************* //
