/*--------------------------------*- C++ -*----------------------------------*\
| =========                 |                                                 |
| \\      /  F ield         | OpenFOAM: The Open Source CFD Toolbox           |
|  \\    /   O peration     | Version:  2312                                  |
|   \\  /    A nd           | Website:  www.openfoam.com                      |
|    \\/     M anipulation  |                                                 |
\*---------------------------------------------------------------------------*/
FoamFile
{
    version     2.0;
    format      ascii;
    arch        "LSB;label=32;scalar=64";
    class       volTensorField;
    location    "5";
    object      gradU;
}
// * * * * * * * * * * * * * * * * * * * * * * * * * * * * * * * * * * * * * //

dimensions      [0 0 -1 0 0 0 0];

internalField   nonuniform List<tensor> 
400
(
(1.92852e-10 2.24748e-07 0 2.87314e-12 -4.84804e-10 0 0 0 0)
(-5.40475e-11 -2.78046e-07 0 2.0009e-10 2.36113e-10 0 0 0 0)
(-1.64772e-10 6.59803e-08 0 -7.5596e-11 -1.9721e-12 0 0 0 0)
(7.07171e-11 -1.56833e-08 0 5.39933e-11 1.81702e-11 0 0 0 0)
(-4.45607e-11 3.71876e-09 0 -5.55654e-12 5.91342e-12 0 0 0 0)
(8.86335e-12 -8.85747e-10 0 1.05981e-11 2.7725e-12 0 0 0 0)
(-6.53232e-12 2.09541e-10 0 2.1413e-12 2.0076e-12 0 0 0 0)
(1.89735e-13 -5.02646e-11 0 2.98156e-12 9.99718e-13 0 0 0 0)
(-1.16552e-12 1.17059e-11 0 1.57209e-12 7.21297e-13 0 0 0 0)
(-3.79471e-13 -2.92562e-12 0 1.30104e-12 4.61438e-13 0 0 0 0)
(-4.06576e-13 6.04935e-13 0 8.40257e-13 3.4338e-13 0 0 0 0)
(-2.43945e-13 -2.09552e-13 0 5.96311e-13 2.34535e-13 0 0 0 0)
(-1.6263e-13 7.47707e-15 0 4.06576e-13 1.61132e-13 0 0 0 0)
(-1.0842e-13 -2.60077e-14 0 2.98156e-13 1.13205e-13 0 0 0 0)
(-8.13152e-14 -1.43892e-14 0 1.89735e-13 7.93995e-14 0 0 0 0)
(-5.42101e-14 -1.35309e-14 0 1.35525e-13 4.59721e-14 0 0 0 0)
(-2.71051e-14 -7.00357e-16 0 1.0842e-13 3.64796e-14 0 0 0 0)
(-2.71051e-14 -4.65688e-16 0 5.42101e-14 4.28518e-14 0 0 0 0)
(-2.71051e-14 -2.2883e-15 0 5.42101e-14 3.1508e-14 0 0 0 0)
(-2.71051e-14 -1.68814e-14 0 0 1.76207e-14 0 0 0 0)
(1.01915e-11 -2.24996e-07 0 -1.2776e-09 4.73323e-10 0 0 0 0)
(-2.44217e-11 2.78529e-07 0 4.4371e-11 -1.80327e-10 0 0 0 0)
(1.86212e-11 -6.61983e-08 0 -3.03577e-11 2.65651e-11 0 0 0 0)
(-7.04731e-13 1.56912e-08 0 -2.97885e-11 -5.17207e-12 0 0 0 0)
(1.16552e-12 -3.73416e-09 0 1.11131e-12 3.41285e-12 0 0 0 0)
(-1.13841e-12 8.81841e-10 0 -5.66496e-12 1.51914e-12 0 0 0 0)
(-1.0571e-12 -2.11314e-10 0 -4.60786e-13 1.15097e-12 0 0 0 0)
(-7.58942e-13 4.89783e-11 0 -1.0842e-12 7.84829e-13 0 0 0 0)
(-5.42101e-13 -1.22442e-11 0 -3.25261e-13 5.18548e-13 0 0 0 0)
(-3.52366e-13 2.5477e-12 0 -3.79471e-13 3.63873e-13 0 0 0 0)
(-2.71051e-13 -8.31838e-13 0 -1.6263e-13 2.65513e-13 0 0 0 0)
(-2.1684e-13 2.73034e-14 0 -8.13152e-14 2.02941e-13 0 0 0 0)
(-1.6263e-13 -1.28807e-13 0 -8.13152e-14 1.49402e-13 0 0 0 0)
(-1.35525e-13 -5.57245e-14 0 -5.42101e-14 1.03939e-13 0 0 0 0)
(-5.42101e-14 -5.28436e-14 0 -2.71051e-14 7.28958e-14 0 0 0 0)
(-2.71051e-14 -2.9389e-14 0 -2.71051e-14 5.31631e-14 0 0 0 0)
(-5.42101e-14 -2.41987e-15 0 -5.42101e-14 3.54606e-14 0 0 0 0)
(-2.71051e-14 -4.50592e-15 0 -5.42101e-14 1.87109e-14 0 0 0 0)
(-2.71051e-14 -2.29428e-14 0 -5.42101e-14 1.59237e-14 0 0 0 0)
(0 -3.22473e-14 0 0 -1.53768e-15 0 0 0 0)
(-1.04037e-09 2.25041e-07 0 1.71965e-09 1.53382e-10 0 0 0 0)
(1.19316e-09 -2.78493e-07 0 -3.41334e-10 -1.26844e-10 0 0 0 0)
(-2.38931e-10 6.61555e-08 0 1.29481e-10 9.03239e-12 0 0 0 0)
(1.02186e-10 -1.57064e-08 0 -3.39897e-11 -1.12354e-11 0 0 0 0)
(-2.04101e-11 3.72546e-09 0 5.44812e-12 -2.79162e-14 0 0 0 0)
(7.31836e-12 -8.88009e-10 0 -4.93312e-12 -2.58869e-13 0 0 0 0)
(-1.95156e-12 2.08807e-10 0 -7.58942e-13 2.89834e-13 0 0 0 0)
(2.98156e-13 -5.0897e-11 0 -1.0571e-12 3.49335e-13 0 0 0 0)
(-4.87891e-13 1.1285e-11 0 -4.87891e-13 2.94965e-13 0 0 0 0)
(-1.89735e-13 -3.17865e-12 0 -3.79471e-13 2.21227e-13 0 0 0 0)
(-1.6263e-13 4.44002e-13 0 -2.71051e-13 1.56978e-13 0 0 0 0)
(-1.0842e-13 -3.25663e-13 0 -2.1684e-13 1.25279e-13 0 0 0 0)
(-8.13152e-14 -9.15244e-14 0 -5.42101e-14 1.02642e-13 0 0 0 0)
(-8.13152e-14 -1.02514e-13 0 -5.42101e-14 8.04569e-14 0 0 0 0)
(-8.13152e-14 -6.51653e-14 0 -5.42101e-14 7.43973e-14 0 0 0 0)
(-5.42101e-14 -5.09661e-14 0 -2.71051e-14 5.73035e-14 0 0 0 0)
(-5.42101e-14 -3.51525e-14 0 0 2.76757e-14 0 0 0 0)
(0 -2.00026e-14 0 0 -3.00518e-15 0 0 0 0)
(0 -2.25369e-14 0 0 1.57581e-15 0 0 0 0)
(0 -3.12674e-14 0 0 3.03707e-15 0 0 0 0)
(1.38843e-09 -2.2497e-07 0 -8.0998e-10 -8.27874e-10 0 0 0 0)
(-1.61459e-09 2.78385e-07 0 1.64446e-10 2.59311e-10 0 0 0 0)
(3.25992e-10 -6.60826e-08 0 -5.30988e-11 -7.35596e-11 0 0 0 0)
(-1.24765e-10 1.56821e-08 0 1.20889e-11 1.5307e-11 0 0 0 0)
(3.02492e-11 -3.72319e-09 0 -4.25549e-12 -7.30559e-12 0 0 0 0)
(-7.34547e-12 8.82159e-10 0 -2.98156e-13 5.50683e-13 0 0 0 0)
(2.79182e-12 -2.10705e-10 0 -1.19262e-12 -7.00471e-13 0 0 0 0)
(-4.87891e-13 4.89834e-11 0 -6.50521e-13 6.96784e-14 0 0 0 0)
(1.6263e-13 -1.23723e-11 0 -5.14996e-13 4.97326e-14 0 0 0 0)
(-1.35525e-13 2.40971e-12 0 -2.98156e-13 1.1708e-13 0 0 0 0)
(-5.42101e-14 -9.27787e-13 0 -2.1684e-13 8.14229e-14 0 0 0 0)
(-5.42101e-14 -2.70322e-14 0 -1.6263e-13 5.27304e-14 0 0 0 0)
(-2.71051e-14 -1.73629e-13 0 -1.35525e-13 4.78616e-14 0 0 0 0)
(-8.13152e-14 -8.39696e-14 0 -1.35525e-13 4.71468e-14 0 0 0 0)
(-2.71051e-14 -7.5997e-14 0 -5.42101e-14 4.42359e-14 0 0 0 0)
(-2.71051e-14 -7.61106e-14 0 -2.71051e-14 3.46197e-14 0 0 0 0)
(0 -6.27285e-14 0 -2.71051e-14 2.4542e-14 0 0 0 0)
(-2.71051e-14 -3.06058e-14 0 5.42101e-14 2.2066e-14 0 0 0 0)
(-2.71051e-14 -1.69006e-14 0 -5.42101e-14 4.01388e-15 0 0 0 0)
(0 -3.68602e-14 0 0 -6.53889e-15 0 0 0 0)
(-1.68596e-09 2.24472e-07 0 3.59088e-10 1.47444e-09 0 0 0 0)
(1.95005e-09 -2.77739e-07 0 -7.12863e-11 -3.85558e-10 0 0 0 0)
(-3.91289e-10 6.59115e-08 0 2.22532e-11 9.22096e-11 0 0 0 0)
(1.51056e-10 -1.56402e-08 0 -5.39391e-12 -2.53797e-11 0 0 0 0)
(-3.27971e-11 3.7107e-09 0 7.04731e-13 4.54057e-12 0 0 0 0)
(1.03541e-11 -8.81403e-10 0 -1.0842e-12 -2.3376e-12 0 0 0 0)
(-2.33103e-12 2.08326e-10 0 -5.69206e-13 -1.24669e-13 0 0 0 0)
(1.02999e-12 -5.01468e-11 0 -5.96311e-13 -3.31231e-13 0 0 0 0)
(-1.0842e-13 1.13324e-11 0 -4.60786e-13 -7.54203e-14 0 0 0 0)
(5.42101e-14 -3.14696e-12 0 -3.25261e-13 -2.28947e-14 0 0 0 0)
(-2.71051e-14 3.79653e-13 0 -1.89735e-13 4.6281e-15 0 0 0 0)
(-2.71051e-14 -3.59225e-13 0 -1.89735e-13 6.88269e-15 0 0 0 0)
(0 -9.7108e-14 0 -1.0842e-13 1.56765e-14 0 0 0 0)
(0 -1.06139e-13 0 -5.42101e-14 1.6641e-14 0 0 0 0)
(0 -7.76924e-14 0 -5.42101e-14 -4.32419e-15 0 0 0 0)
(0 -7.066e-14 0 -5.42101e-14 -1.82728e-15 0 0 0 0)
(0 -4.77063e-14 0 -8.13152e-14 1.32354e-14 0 0 0 0)
(-2.71051e-14 -4.05307e-14 0 -1.0842e-13 1.62292e-14 0 0 0 0)
(-8.13152e-14 -5.11418e-14 0 0 -7.17784e-15 0 0 0 0)
(8.13152e-14 -2.87423e-14 0 0 -1.44381e-14 0 0 0 0)
(1.67631e-09 -2.23881e-07 0 1.69407e-11 -1.68912e-09 0 0 0 0)
(-1.95148e-09 2.77002e-07 0 -2.76472e-12 4.17536e-10 0 0 0 0)
(3.91912e-10 -6.57225e-08 0 4.96022e-12 -1.02737e-10 0 0 0 0)
(-1.46286e-10 1.55944e-08 0 -7.58942e-13 2.34825e-11 0 0 0 0)
(3.45318e-11 -3.70014e-09 0 1.35525e-13 -7.11154e-12 0 0 0 0)
(-8.67362e-12 8.77493e-10 0 -4.87891e-13 7.42565e-13 0 0 0 0)
(3.27971e-12 -2.08699e-10 0 -4.60786e-13 -8.7127e-13 0 0 0 0)
(-3.52366e-13 4.90327e-11 0 -4.33681e-13 -2.42209e-13 0 0 0 0)
(4.60786e-13 -1.2064e-11 0 -3.52366e-13 -2.48668e-13 0 0 0 0)
(8.13152e-14 2.48976e-12 0 -2.71051e-13 -1.36983e-13 0 0 0 0)
(1.35525e-13 -8.9801e-13 0 -1.89735e-13 -8.49039e-14 0 0 0 0)
(2.71051e-14 -1.59838e-14 0 -1.35525e-13 -3.28167e-14 0 0 0 0)
(5.42101e-14 -1.6387e-13 0 -8.13152e-14 -1.8797e-14 0 0 0 0)
(-5.42101e-14 -1.0397e-13 0 -8.13152e-14 -9.14313e-15 0 0 0 0)
(0 -9.44653e-14 0 0 -1.29005e-14 0 0 0 0)
(0 -5.85511e-14 0 -5.42101e-14 -1.86563e-15 0 0 0 0)
(0 -4.4672e-14 0 5.42101e-14 -1.00534e-15 0 0 0 0)
(0 -5.10191e-14 0 0 -1.77301e-14 0 0 0 0)
(8.13152e-14 -4.75679e-14 0 5.42101e-14 -2.07404e-14 0 0 0 0)
(-2.71051e-14 -1.52442e-14 0 2.71051e-14 3.78501e-15 0 0 0 0)
(-1.67179e-09 2.23201e-07 0 -1.50867e-10 1.76912e-09 0 0 0 0)
(1.93812e-09 -2.76152e-07 0 3.16316e-11 -4.28768e-10 0 0 0 0)
(-3.8931e-10 6.55174e-08 0 -1.26852e-11 1.01845e-10 0 0 0 0)
(1.46232e-10 -1.55446e-08 0 3.33392e-12 -2.55029e-11 0 0 0 0)
(-3.25261e-11 3.68796e-09 0 -8.94467e-13 5.21198e-12 0 0 0 0)
(9.81203e-12 -8.75163e-10 0 1.35525e-13 -2.0499e-12 0 0 0 0)
(-2.27682e-12 2.07341e-10 0 -2.1684e-13 -1.30528e-13 0 0 0 0)
(1.0571e-12 -4.95242e-11 0 -2.1684e-13 -4.25256e-13 0 0 0 0)
(5.42101e-14 1.14376e-11 0 -1.89735e-13 -2.35593e-13 0 0 0 0)
(2.71051e-13 -2.9832e-12 0 -2.71051e-13 -1.89572e-13 0 0 0 0)
(1.35525e-13 4.83819e-13 0 -2.1684e-13 -1.25527e-13 0 0 0 0)
(2.71051e-14 -2.93118e-13 0 -1.0842e-13 -7.56092e-14 0 0 0 0)
(1.0842e-13 -7.34345e-14 0 -1.6263e-13 -5.642e-14 0 0 0 0)
(8.13152e-14 -1.00243e-13 0 -1.0842e-13 -4.66212e-14 0 0 0 0)
(5.42101e-14 -7.04149e-14 0 -8.13152e-14 -3.31573e-14 0 0 0 0)
(-2.71051e-14 -5.87649e-14 0 0 -1.88133e-14 0 0 0 0)
(-2.71051e-14 -6.35708e-14 0 0 -1.09942e-14 0 0 0 0)
(0 -6.02658e-14 0 5.42101e-14 -8.77725e-15 0 0 0 0)
(0 -2.96267e-14 0 0 -7.9526e-15 0 0 0 0)
(0 -1.17869e-14 0 -2.71051e-14 -3.38736e-16 0 0 0 0)
(1.55705e-09 -2.22541e-07 0 2.38199e-10 -1.75854e-09 0 0 0 0)
(-1.81325e-09 2.75335e-07 0 -4.82199e-11 4.21453e-10 0 0 0 0)
(3.63587e-10 -6.53192e-08 0 1.96783e-11 -1.01113e-10 0 0 0 0)
(-1.34577e-10 1.54978e-08 0 -4.33681e-12 2.34357e-11 0 0 0 0)
(3.13877e-11 -3.67669e-09 0 1.24683e-12 -6.35763e-12 0 0 0 0)
(-8.0231e-12 8.72151e-10 0 -5.42101e-13 8.58859e-13 0 0 0 0)
(2.98156e-12 -2.07074e-10 0 -2.71051e-14 -7.60596e-13 0 0 0 0)
(-3.25261e-13 4.89276e-11 0 -2.43945e-13 -2.60439e-13 0 0 0 0)
(4.06576e-13 -1.18283e-11 0 -1.6263e-13 -2.82836e-13 0 0 0 0)
(1.35525e-13 2.59983e-12 0 -8.13152e-14 -1.91565e-13 0 0 0 0)
(1.89735e-13 -7.84047e-13 0 -1.35525e-13 -1.37926e-13 0 0 0 0)
(8.13152e-14 5.31235e-14 0 -1.0842e-13 -1.08563e-13 0 0 0 0)
(8.13152e-14 -1.34882e-13 0 -5.42101e-14 -8.6582e-14 0 0 0 0)
(5.42101e-14 -8.07076e-14 0 -2.71051e-14 -7.14957e-14 0 0 0 0)
(2.71051e-14 -6.66574e-14 0 -1.0842e-13 -5.44258e-14 0 0 0 0)
(1.0842e-13 -3.63879e-14 0 -2.71051e-14 -5.47814e-14 0 0 0 0)
(8.13152e-14 -3.4636e-14 0 -5.42101e-14 -4.52571e-14 0 0 0 0)
(0 -4.79775e-14 0 0 -2.27396e-14 0 0 0 0)
(0 -3.91294e-14 0 0 -1.0562e-15 0 0 0 0)
(0 -6.9529e-15 0 0 -1.62836e-15 0 0 0 0)
(-1.48178e-09 2.21864e-07 0 -2.66307e-10 1.73949e-09 0 0 0 0)
(1.71957e-09 -2.74495e-07 0 5.45354e-11 -4.14521e-10 0 0 0 0)
(-3.45427e-10 6.51194e-08 0 -2.09793e-11 9.81538e-11 0 0 0 0)
(1.27827e-10 -1.54498e-08 0 5.06865e-12 -2.38985e-11 0 0 0 0)
(-2.86771e-11 3.66538e-09 0 -1.32815e-12 5.10245e-12 0 0 0 0)
(8.51099e-12 -8.69566e-10 0 4.87891e-13 -1.76368e-12 0 0 0 0)
(-1.97867e-12 2.06221e-10 0 -1.89735e-13 -8.16912e-14 0 0 0 0)
(8.94467e-13 -4.90465e-11 0 0 -4.39565e-13 0 0 0 0)
(1.35525e-13 1.15065e-11 0 -5.42101e-14 -2.80421e-13 0 0 0 0)
(2.98156e-13 -2.83829e-12 0 -5.42101e-14 -2.36878e-13 0 0 0 0)
(1.89735e-13 5.6682e-13 0 5.42101e-14 -1.70957e-13 0 0 0 0)
(1.35525e-13 -2.41773e-13 0 5.42101e-14 -1.50852e-13 0 0 0 0)
(8.13152e-14 -3.63667e-14 0 8.13152e-14 -1.26571e-13 0 0 0 0)
(8.13152e-14 -6.80867e-14 0 8.13152e-14 -7.70491e-14 0 0 0 0)
(5.42101e-14 -5.37005e-14 0 1.35525e-13 -3.01507e-14 0 0 0 0)
(2.71051e-14 -4.95961e-14 0 8.13152e-14 -2.47844e-14 0 0 0 0)
(-2.71051e-14 -3.1529e-14 0 5.42101e-14 -3.33277e-14 0 0 0 0)
(8.13152e-14 -1.60649e-14 0 0 -2.70746e-14 0 0 0 0)
(2.71051e-14 -8.51537e-15 0 2.71051e-14 -3.39513e-15 0 0 0 0)
(-2.71051e-14 -9.10238e-15 0 2.71051e-14 5.29069e-15 0 0 0 0)
(1.34528e-09 -2.21216e-07 0 2.78694e-10 -1.68382e-09 0 0 0 0)
(-1.56789e-09 2.73694e-07 0 -5.63785e-11 3.99338e-10 0 0 0 0)
(3.14093e-10 -6.49286e-08 0 2.20093e-11 -9.5152e-11 0 0 0 0)
(-1.14871e-10 1.54048e-08 0 -5.04154e-12 2.21236e-11 0 0 0 0)
(2.66714e-11 -3.65456e-09 0 1.54499e-12 -5.75961e-12 0 0 0 0)
(-6.83047e-12 8.66967e-10 0 -3.52366e-13 8.42866e-13 0 0 0 0)
(2.52077e-12 -2.0575e-10 0 2.1684e-13 -7.03486e-13 0 0 0 0)
(-1.6263e-13 4.87289e-11 0 5.42101e-14 -2.73739e-13 0 0 0 0)
(4.06576e-13 -1.16256e-11 0 8.13152e-14 -2.94667e-13 0 0 0 0)
(1.6263e-13 2.70929e-12 0 5.42101e-14 -2.32894e-13 0 0 0 0)
(2.1684e-13 -6.98022e-13 0 0 -1.89833e-13 0 0 0 0)
(1.35525e-13 9.75087e-14 0 0 -1.37443e-13 0 0 0 0)
(1.89735e-13 -6.10789e-14 0 -2.71051e-14 -1.10229e-13 0 0 0 0)
(0 1.57131e-14 0 -5.42101e-14 -7.96574e-14 0 0 0 0)
(8.13152e-14 -1.43927e-14 0 -8.13152e-14 -4.77572e-14 0 0 0 0)
(5.42101e-14 -3.95649e-14 0 -5.42101e-14 -1.06992e-14 0 0 0 0)
(0 -3.69261e-14 0 0 1.89318e-15 0 0 0 0)
(-2.71051e-14 -1.80449e-14 0 2.71051e-14 -1.65621e-15 0 0 0 0)
(-2.71051e-14 -6.76416e-15 0 -2.71051e-14 -3.08636e-15 0 0 0 0)
(0 -8.84846e-15 0 0 -2.15149e-16 0 0 0 0)
(-1.25952e-09 2.20579e-07 0 -2.72081e-10 1.63654e-09 0 0 0 0)
(1.46291e-09 -2.72906e-07 0 5.51588e-11 -3.87017e-10 0 0 0 0)
(-2.9409e-10 6.47422e-08 0 -2.12504e-11 9.14368e-11 0 0 0 0)
(1.07417e-10 -1.53604e-08 0 4.98733e-12 -2.21036e-11 0 0 0 0)
(-2.40422e-11 3.6441e-09 0 -1.38236e-12 4.69453e-12 0 0 0 0)
(7.18284e-12 -8.6451e-10 0 4.60786e-13 -1.64926e-12 0 0 0 0)
(-1.5992e-12 2.05105e-10 0 -1.35525e-13 -1.0619e-13 0 0 0 0)
(8.94467e-13 -4.86376e-11 0 5.42101e-14 -3.9589e-13 0 0 0 0)
(8.13152e-14 1.15473e-11 0 0 -2.49819e-13 0 0 0 0)
(2.1684e-13 -2.73345e-12 0 0 -2.13407e-13 0 0 0 0)
(1.35525e-13 6.62271e-13 0 -5.42101e-14 -1.60531e-13 0 0 0 0)
(1.0842e-13 -1.6217e-13 0 -5.42101e-14 -1.08123e-13 0 0 0 0)
(2.71051e-14 2.14186e-14 0 -8.13152e-14 -7.78482e-14 0 0 0 0)
(5.42101e-14 -5.61445e-15 0 -2.71051e-14 -7.55483e-14 0 0 0 0)
(2.71051e-14 1.52577e-14 0 0 -6.75566e-14 0 0 0 0)
(5.42101e-14 5.43177e-17 0 -2.71051e-14 -3.77763e-14 0 0 0 0)
(8.13152e-14 -2.2486e-14 0 0 -2.21858e-14 0 0 0 0)
(8.13152e-14 -2.10444e-14 0 -2.71051e-14 -2.11732e-14 0 0 0 0)
(0 -7.07431e-15 0 5.42101e-14 -2.59819e-15 0 0 0 0)
(-2.71051e-14 -5.80087e-15 0 0 9.41097e-15 0 0 0 0)
(1.12841e-09 -2.19966e-07 0 2.47496e-10 -1.56679e-09 0 0 0 0)
(-1.31712e-09 2.72149e-07 0 -5.02528e-11 3.69311e-10 0 0 0 0)
(2.63922e-10 -6.45637e-08 0 1.90006e-11 -8.79169e-11 0 0 0 0)
(-9.50574e-11 1.5318e-08 0 -4.52654e-12 2.02552e-11 0 0 0 0)
(2.2199e-11 -3.6341e-09 0 1.21973e-12 -5.34664e-12 0 0 0 0)
(-5.50233e-12 8.62166e-10 0 -3.52366e-13 7.31187e-13 0 0 0 0)
(1.97867e-12 -2.04497e-10 0 1.89735e-13 -6.27218e-13 0 0 0 0)
(-8.13152e-14 4.85853e-11 0 2.71051e-14 -2.37027e-13 0 0 0 0)
(4.06576e-13 -1.14431e-11 0 -2.71051e-14 -2.72999e-13 0 0 0 0)
(1.35525e-13 2.79858e-12 0 0 -2.03353e-13 0 0 0 0)
(1.6263e-13 -5.92737e-13 0 -2.71051e-14 -1.71926e-13 0 0 0 0)
(1.89735e-13 1.80191e-13 0 0 -1.33245e-13 0 0 0 0)
(8.13152e-14 -2.85044e-14 0 2.71051e-14 -8.92111e-14 0 0 0 0)
(8.13152e-14 2.60046e-14 0 0 -6.62802e-14 0 0 0 0)
(1.0842e-13 2.33794e-14 0 0 -5.89002e-14 0 0 0 0)
(2.71051e-14 5.80596e-15 0 0 -5.47481e-14 0 0 0 0)
(8.13152e-14 -2.0323e-14 0 0 -3.80288e-14 0 0 0 0)
(0 1.54266e-15 0 0 -1.96457e-14 0 0 0 0)
(0 2.382e-14 0 -1.0842e-13 -5.47294e-15 0 0 0 0)
(-2.71051e-14 -1.56612e-14 0 -2.71051e-14 -7.12107e-16 0 0 0 0)
(-1.06227e-09 2.19382e-07 0 -2.23346e-10 1.51678e-09 0 0 0 0)
(1.23439e-09 -2.71427e-07 0 4.50486e-11 -3.57075e-10 0 0 0 0)
(-2.48309e-10 6.43931e-08 0 -1.74014e-11 8.40203e-11 0 0 0 0)
(8.96093e-11 -1.52778e-08 0 3.90313e-12 -2.0462e-11 0 0 0 0)
(-1.9868e-11 3.62458e-09 0 -1.11131e-12 4.14575e-12 0 0 0 0)
(6.09864e-12 -8.59791e-10 0 3.52366e-13 -1.60394e-12 0 0 0 0)
(-1.16552e-12 2.04137e-10 0 0 -1.44071e-13 0 0 0 0)
(6.77626e-13 -4.82834e-11 0 1.89735e-13 -3.65578e-13 0 0 0 0)
(5.42101e-14 1.1581e-11 0 1.6263e-13 -2.09865e-13 0 0 0 0)
(2.1684e-13 -2.63238e-12 0 1.6263e-13 -1.77337e-13 0 0 0 0)
(1.6263e-13 7.32378e-13 0 1.6263e-13 -1.44851e-13 0 0 0 0)
(1.35525e-13 -7.94545e-14 0 1.0842e-13 -1.16988e-13 0 0 0 0)
(8.13152e-14 8.83836e-14 0 8.13152e-14 -8.0464e-14 0 0 0 0)
(0 2.46964e-14 0 8.13152e-14 -5.58741e-14 0 0 0 0)
(5.42101e-14 2.67898e-14 0 8.13152e-14 -4.80586e-14 0 0 0 0)
(5.42101e-14 2.09257e-14 0 2.71051e-14 -3.82636e-14 0 0 0 0)
(0 1.26164e-14 0 -5.42101e-14 -1.6243e-14 0 0 0 0)
(0 1.15114e-14 0 0 1.27751e-15 0 0 0 0)
(0 1.18593e-14 0 0 -1.74689e-14 0 0 0 0)
(8.13152e-14 3.8418e-16 0 0 -2.20769e-14 0 0 0 0)
(9.50059e-10 -2.18806e-07 0 1.73499e-10 -1.45294e-09 0 0 0 0)
(-1.11109e-09 2.70716e-07 0 -3.55618e-11 3.41205e-10 0 0 0 0)
(2.22749e-10 -6.42271e-08 0 1.28207e-11 -8.15345e-11 0 0 0 0)
(-7.87673e-11 1.52381e-08 0 -3.25261e-12 1.83718e-11 0 0 0 0)
(1.86754e-11 -3.61524e-09 0 8.67362e-13 -5.1577e-12 0 0 0 0)
(-4.41812e-12 8.57876e-10 0 -1.35525e-13 5.03402e-13 0 0 0 0)
(1.87025e-12 -2.03259e-10 0 1.6263e-13 -6.98838e-13 0 0 0 0)
(2.71051e-14 4.85195e-11 0 5.42101e-14 -2.7606e-13 0 0 0 0)
(3.52366e-13 -1.12549e-11 0 1.35525e-13 -2.34524e-13 0 0 0 0)
(1.35525e-13 2.86359e-12 0 1.0842e-13 -1.47896e-13 0 0 0 0)
(1.35525e-13 -5.32388e-13 0 1.35525e-13 -1.13876e-13 0 0 0 0)
(8.13152e-14 2.44578e-13 0 2.71051e-14 -8.8291e-14 0 0 0 0)
(1.0842e-13 3.26097e-14 0 5.42101e-14 -6.75026e-14 0 0 0 0)
(2.71051e-14 5.841e-14 0 5.42101e-14 -4.71441e-14 0 0 0 0)
(5.42101e-14 4.09898e-14 0 0 -2.47579e-14 0 0 0 0)
(0 3.76216e-14 0 5.42101e-14 -2.44525e-14 0 0 0 0)
(0 1.92181e-14 0 5.42101e-14 -1.56254e-14 0 0 0 0)
(0 3.16721e-16 0 0 6.28764e-16 0 0 0 0)
(2.71051e-14 4.65573e-16 0 5.42101e-14 -6.27236e-15 0 0 0 0)
(-2.71051e-14 2.38846e-14 0 2.71051e-14 -5.26544e-15 0 0 0 0)
(-9.24282e-10 2.1827e-07 0 -1.50704e-10 1.42548e-09 0 0 0 0)
(1.07369e-09 -2.70056e-07 0 3.00866e-11 -3.34962e-10 0 0 0 0)
(-2.16054e-10 6.40703e-08 0 -1.21702e-11 7.79208e-11 0 0 0 0)
(7.76831e-11 -1.52015e-08 0 2.6834e-12 -1.95954e-11 0 0 0 0)
(-1.67238e-11 3.60671e-09 0 -5.96311e-13 3.5222e-12 0 0 0 0)
(5.39391e-12 -8.55332e-10 0 5.69206e-13 -1.63072e-12 0 0 0 0)
(-1.00289e-12 2.03357e-10 0 2.71051e-13 -1.83424e-13 0 0 0 0)
(5.96311e-13 -4.78191e-11 0 2.43945e-13 -3.58146e-13 0 0 0 0)
(1.6263e-13 1.17092e-11 0 1.89735e-13 -2.05661e-13 0 0 0 0)
(1.89735e-13 -2.51173e-12 0 1.6263e-13 -1.53087e-13 0 0 0 0)
(8.13152e-14 7.91983e-13 0 8.13152e-14 -1.03609e-13 0 0 0 0)
(8.13152e-14 -3.30811e-14 0 1.35525e-13 -7.38617e-14 0 0 0 0)
(5.42101e-14 1.2953e-13 0 8.13152e-14 -4.85386e-14 0 0 0 0)
(5.42101e-14 6.74411e-14 0 0 -3.35659e-14 0 0 0 0)
(0 4.94814e-14 0 -2.71051e-14 -2.16217e-14 0 0 0 0)
(2.71051e-14 3.00582e-14 0 0 -2.67621e-14 0 0 0 0)
(5.42101e-14 3.76976e-14 0 0 -2.78453e-14 0 0 0 0)
(2.71051e-14 2.08645e-14 0 0 -1.13228e-14 0 0 0 0)
(0 5.96509e-15 0 0 6.67406e-15 0 0 0 0)
(-2.71051e-14 1.1922e-14 0 -2.71051e-14 5.19183e-15 0 0 0 0)
(8.29442e-10 -2.17716e-07 0 6.56755e-11 -1.38714e-09 0 0 0 0)
(-9.72529e-10 2.69368e-07 0 -1.44199e-11 3.24458e-10 0 0 0 0)
(1.95373e-10 -6.39117e-08 0 4.63496e-12 -7.90138e-11 0 0 0 0)
(-6.72476e-11 1.51637e-08 0 -9.75782e-13 1.67177e-11 0 0 0 0)
(1.6507e-11 -3.59728e-09 0 7.86047e-13 -5.46604e-12 0 0 0 0)
(-3.49655e-12 8.54171e-10 0 5.42101e-13 3.48549e-13 0 0 0 0)
(1.54499e-12 -2.01986e-10 0 5.96311e-13 -6.50383e-13 0 0 0 0)
(-2.71051e-14 4.84972e-11 0 5.42101e-13 -1.69413e-13 0 0 0 0)
(2.43945e-13 -1.10498e-11 0 3.79471e-13 -1.60527e-13 0 0 0 0)
(1.0842e-13 2.96564e-12 0 3.25261e-13 -7.07167e-14 0 0 0 0)
(2.71051e-14 -4.53162e-13 0 2.43945e-13 -2.65305e-14 0 0 0 0)
(0 2.99649e-13 0 1.6263e-13 -1.03769e-14 0 0 0 0)
(0 7.29054e-14 0 8.13152e-14 1.33375e-15 0 0 0 0)
(-2.71051e-14 8.53269e-14 0 2.71051e-14 -6.90954e-15 0 0 0 0)
(8.13152e-14 4.77937e-14 0 2.71051e-14 -2.38775e-14 0 0 0 0)
(2.71051e-14 3.13979e-14 0 0 -7.50505e-15 0 0 0 0)
(-2.71051e-14 3.46573e-14 0 0 -1.61808e-14 0 0 0 0)
(0 3.48361e-14 0 0 -1.52644e-14 0 0 0 0)
(0 1.69802e-14 0 0 6.17308e-15 0 0 0 0)
(0 1.20187e-14 0 2.71051e-14 2.08901e-15 0 0 0 0)
(-8.73027e-10 2.17207e-07 0 -9.97737e-11 1.40545e-09 0 0 0 0)
(1.01259e-09 -2.68748e-07 0 1.98951e-11 -3.29507e-10 0 0 0 0)
(-2.02583e-10 6.37626e-08 0 -8.40257e-12 7.18103e-11 0 0 0 0)
(7.38884e-11 -1.51279e-08 0 2.60209e-12 -2.04513e-11 0 0 0 0)
(-1.5233e-11 3.59034e-09 0 4.33681e-13 2.50027e-12 0 0 0 0)
(5.20417e-12 -8.50516e-10 0 1.24683e-12 -1.54952e-12 0 0 0 0)
(-1.02999e-12 2.02839e-10 0 8.40257e-13 -4.49925e-14 0 0 0 0)
(4.33681e-13 -4.73293e-11 0 6.77626e-13 -9.98367e-14 0 0 0 0)
(-5.42101e-14 1.18079e-11 0 4.60786e-13 1.73949e-14 0 0 0 0)
(0 -2.37774e-12 0 2.43945e-13 3.93946e-14 0 0 0 0)
(-8.13152e-14 8.52323e-13 0 1.6263e-13 5.39769e-14 0 0 0 0)
(-5.42101e-14 -5.21683e-15 0 1.6263e-13 4.49396e-14 0 0 0 0)
(-2.71051e-14 1.32998e-13 0 8.13152e-14 3.36901e-14 0 0 0 0)
(-2.71051e-14 4.22299e-14 0 1.35525e-13 2.88145e-14 0 0 0 0)
(0 4.88859e-14 0 8.13152e-14 6.42539e-15 0 0 0 0)
(0 3.77549e-14 0 2.71051e-14 7.63468e-15 0 0 0 0)
(0 2.99383e-14 0 0 1.02868e-14 0 0 0 0)
(0 4.32183e-14 0 -5.42101e-14 3.09806e-15 0 0 0 0)
(2.71051e-14 2.33185e-14 0 0 -1.0037e-15 0 0 0 0)
(-2.71051e-14 3.65989e-15 0 0 1.2016e-15 0 0 0 0)
(7.49563e-10 -2.1664e-07 0 -8.41341e-11 -1.34038e-09 0 0 0 0)
(-8.81185e-10 2.68035e-07 0 1.06794e-11 3.0366e-10 0 0 0 0)
(1.78107e-10 -6.36026e-08 0 -7.58942e-12 -9.28282e-11 0 0 0 0)
(-5.84656e-11 1.50944e-08 0 5.47522e-12 1.80989e-11 0 0 0 0)
(1.5233e-11 -3.57838e-09 0 1.5992e-12 -6.93662e-12 0 0 0 0)
(-3.17129e-12 8.51625e-10 0 2.1684e-12 1.60829e-12 0 0 0 0)
(9.75782e-13 -2.00536e-10 0 9.75782e-13 -2.58935e-13 0 0 0 0)
(-3.79471e-13 4.85596e-11 0 7.58942e-13 3.83549e-13 0 0 0 0)
(-1.35525e-13 -1.09106e-11 0 4.33681e-13 1.71351e-13 0 0 0 0)
(-1.35525e-13 3.00223e-12 0 2.71051e-13 1.73632e-13 0 0 0 0)
(-1.0842e-13 -4.47617e-13 0 2.1684e-13 1.03347e-13 0 0 0 0)
(-8.13152e-14 2.79362e-13 0 1.35525e-13 8.52844e-14 0 0 0 0)
(-2.71051e-14 5.67804e-14 0 8.13152e-14 5.99043e-14 0 0 0 0)
(-5.42101e-14 5.80621e-14 0 1.0842e-13 5.56265e-14 0 0 0 0)
(-5.42101e-14 2.66139e-14 0 5.42101e-14 4.4139e-14 0 0 0 0)
(-2.71051e-14 3.52593e-14 0 5.42101e-14 2.74268e-14 0 0 0 0)
(-1.0842e-13 3.01207e-14 0 5.42101e-14 3.66371e-14 0 0 0 0)
(-2.71051e-14 2.35456e-14 0 5.42101e-14 1.09334e-14 0 0 0 0)
(8.13152e-14 1.50838e-14 0 0 -1.42457e-14 0 0 0 0)
(0 1.18208e-14 0 0 -6.20088e-15 0 0 0 0)
(-9.46481e-10 2.1617e-07 0 -7.2937e-10 1.29473e-09 0 0 0 0)
(1.08914e-09 -2.675e-07 0 3.50306e-10 -3.72389e-10 0 0 0 0)
(-2.07814e-10 6.3477e-08 0 -1.25415e-10 7.84046e-11 0 0 0 0)
(8.31583e-11 -1.5042e-08 0 6.00648e-11 -1.77314e-11 0 0 0 0)
(-1.85399e-11 3.57385e-09 0 -1.2116e-11 6.07124e-12 0 0 0 0)
(4.52654e-12 -8.43838e-10 0 7.58942e-12 3.35765e-13 0 0 0 0)
(-2.38524e-12 2.01614e-10 0 -5.96311e-13 1.06159e-12 0 0 0 0)
(-1.35525e-13 -4.6899e-11 0 1.11131e-12 5.54435e-13 0 0 0 0)
(-5.69206e-13 1.1598e-11 0 1.89735e-13 4.17158e-13 0 0 0 0)
(-2.71051e-13 -2.44574e-12 0 2.71051e-13 2.76009e-13 0 0 0 0)
(-1.89735e-13 7.63975e-13 0 8.13152e-14 1.82835e-13 0 0 0 0)
(-1.35525e-13 -4.86599e-14 0 8.13152e-14 1.36315e-13 0 0 0 0)
(-1.0842e-13 1.0334e-13 0 0 9.8691e-14 0 0 0 0)
(-8.13152e-14 2.64645e-14 0 0 5.84044e-14 0 0 0 0)
(-2.71051e-14 2.06863e-14 0 2.71051e-14 4.79423e-14 0 0 0 0)
(-2.71051e-14 3.02531e-14 0 -2.71051e-14 3.59567e-14 0 0 0 0)
(0 1.34449e-14 0 0 2.74549e-14 0 0 0 0)
(0 -7.66446e-15 0 2.71051e-14 1.32512e-14 0 0 0 0)
(-2.71051e-14 6.18422e-15 0 2.71051e-14 6.03373e-15 0 0 0 0)
(-2.71051e-14 2.41064e-14 0 0 1.29684e-15 0 0 0 0)
(3.70472e-10 -2.15718e-07 0 9.6204e-10 -6.97309e-10 0 0 0 0)
(-2.77203e-10 2.66818e-07 0 -3.86057e-10 2.44582e-10 0 0 0 0)
(-1.12134e-10 -6.3248e-08 0 1.50108e-10 -1.5572e-11 0 0 0 0)
(5.47793e-11 1.50221e-08 0 -6.61092e-11 1.55698e-11 0 0 0 0)
(-3.72423e-11 -3.56031e-09 0 1.21702e-11 4.35402e-12 0 0 0 0)
(8.45678e-12 8.46616e-10 0 -1.02999e-11 2.02968e-12 0 0 0 0)
(-5.47522e-12 -2.00318e-10 0 -7.86047e-13 1.57677e-12 0 0 0 0)
(3.25261e-13 4.79152e-11 0 -2.41235e-12 7.32844e-13 0 0 0 0)
(-1.00289e-12 -1.1189e-11 0 -1.02999e-12 5.60554e-13 0 0 0 0)
(-2.43945e-13 2.7679e-12 0 -8.40257e-13 3.23928e-13 0 0 0 0)
(-2.98156e-13 -5.87311e-13 0 -5.14996e-13 2.38389e-13 0 0 0 0)
(-1.35525e-13 1.95218e-13 0 -4.06576e-13 1.47265e-13 0 0 0 0)
(-8.13152e-14 -2.11299e-14 0 -1.89735e-13 9.18311e-14 0 0 0 0)
(-2.71051e-14 7.31348e-15 0 -1.89735e-13 6.50547e-14 0 0 0 0)
(-1.0842e-13 4.16618e-15 0 -1.0842e-13 5.80531e-14 0 0 0 0)
(-2.71051e-14 1.47719e-14 0 -5.42101e-14 4.02022e-14 0 0 0 0)
(-2.71051e-14 7.41518e-15 0 -5.42101e-14 1.30282e-14 0 0 0 0)
(0 2.12445e-15 0 -2.71051e-14 1.93422e-14 0 0 0 0)
(0 3.12943e-15 0 -2.71051e-14 1.85682e-14 0 0 0 0)
(-2.71051e-14 4.49023e-15 0 -2.71051e-14 1.00285e-14 0 0 0 0)
)
;

boundaryField
{
    movingWall
    {
        type            extrapolatedCalculated;
        value           nonuniform List<tensor> 
20
(
(3.70472e-10 -2.15718e-07 0 -8.56426e-10 1.13095e-06 0 0 0 0)
(-2.77203e-10 2.66818e-07 0 -6.255e-10 -2.68082e-07 0 0 0 0)
(-1.12134e-10 -6.3248e-08 0 2.5242e-10 6.36785e-08 0 0 0 0)
(5.47793e-11 1.50221e-08 0 -1.76881e-10 -1.50896e-08 0 0 0 0)
(-3.72423e-11 -3.56031e-09 0 3.31291e-11 3.59008e-09 0 0 0 0)
(8.45678e-12 8.46616e-10 0 -2.78444e-11 -8.48393e-10 0 0 0 0)
(-5.47522e-12 -2.00318e-10 0 -6.21725e-13 2.03619e-10 0 0 0 0)
(3.25261e-13 4.79152e-11 0 -5.90639e-12 -4.71225e-11 0 0 0 0)
(-1.00289e-12 -1.1189e-11 0 -2.04281e-12 1.19588e-11 0 0 0 0)
(-2.43945e-13 2.7679e-12 0 -1.86517e-12 -2.3664e-12 0 0 0 0)
(-2.98156e-13 -5.87311e-13 0 -1.02141e-12 8.87146e-13 0 0 0 0)
(-1.35525e-13 1.95218e-13 0 -7.99361e-13 -1.71509e-14 0 0 0 0)
(-8.13152e-14 -2.11299e-14 0 -3.9968e-13 1.06275e-13 0 0 0 0)
(-2.71051e-14 7.31348e-15 0 -4.44089e-13 6.73687e-14 0 0 0 0)
(-1.0842e-13 4.16618e-15 0 -2.66454e-13 7.70207e-14 0 0 0 0)
(-2.71051e-14 1.47719e-14 0 -1.33227e-13 5.0704e-14 0 0 0 0)
(-2.71051e-14 7.41518e-15 0 -8.88178e-14 1.79332e-14 0 0 0 0)
(0 2.12445e-15 0 0 2.10433e-14 0 0 0 0)
(0 3.12943e-15 0 -4.44089e-14 9.43537e-15 0 0 0 0)
(-2.71051e-14 4.49023e-15 0 -4.44089e-14 8.52554e-15 0 0 0 0)
)
;
    }
    fixedWalls
    {
        type            extrapolatedCalculated;
        value           nonuniform List<tensor> 
60
(
(-9.96536e-11 1.17867e-06 0 2.87314e-12 -4.84804e-10 0 0 0 0)
(1.11244e-10 -1.18061e-06 0 -1.2776e-09 4.73323e-10 0 0 0 0)
(-5.21005e-09 1.18057e-06 0 1.71965e-09 1.53382e-10 0 0 0 0)
(6.98979e-09 -1.18e-06 0 -8.0998e-10 -8.27874e-10 0 0 0 0)
(-8.45004e-09 1.17726e-06 0 3.59088e-10 1.47444e-09 0 0 0 0)
(8.42619e-09 -1.1741e-06 0 1.69407e-11 -1.68912e-09 0 0 0 0)
(-8.38236e-09 1.1705e-06 0 -1.50867e-10 1.76912e-09 0 0 0 0)
(7.82281e-09 -1.16703e-06 0 2.38199e-10 -1.75854e-09 0 0 0 0)
(-7.42961e-09 1.16347e-06 0 -2.66307e-10 1.73949e-09 0 0 0 0)
(6.75757e-09 -1.16007e-06 0 2.78694e-10 -1.68382e-09 0 0 0 0)
(-6.31486e-09 1.15673e-06 0 -2.72081e-10 1.63654e-09 0 0 0 0)
(5.66929e-09 -1.15352e-06 0 2.47496e-10 -1.56679e-09 0 0 0 0)
(-5.32481e-09 1.15046e-06 0 -2.23346e-10 1.51678e-09 0 0 0 0)
(4.77582e-09 -1.14745e-06 0 1.73499e-10 -1.45294e-09 0 0 0 0)
(-4.63078e-09 1.14465e-06 0 -1.50704e-10 1.42548e-09 0 0 0 0)
(4.17302e-09 -1.14175e-06 0 6.56755e-11 -1.38714e-09 0 0 0 0)
(-4.36806e-09 1.1391e-06 0 -9.97737e-11 1.40545e-09 0 0 0 0)
(3.77391e-09 -1.13613e-06 0 -8.41341e-11 -1.34038e-09 0 0 0 0)
(-4.70459e-09 1.13374e-06 0 -7.2937e-10 1.29473e-09 0 0 0 0)
(8.56426e-10 -1.13095e-06 0 9.6204e-10 -6.97309e-10 0 0 0 0)
(0 -3.33094e-14 0 0 1.76207e-14 0 0 0 0)
(8.88178e-14 -3.71734e-14 0 0 -1.53768e-15 0 0 0 0)
(0 -2.71587e-14 0 0 3.03707e-15 0 0 0 0)
(0 -4.93217e-14 0 0 -6.53889e-15 0 0 0 0)
(8.88178e-14 -1.00312e-15 0 0 -1.44381e-14 0 0 0 0)
(-8.88178e-14 8.43079e-15 0 2.71051e-14 3.78501e-15 0 0 0 0)
(0 -1.61431e-14 0 -2.71051e-14 -3.38736e-16 0 0 0 0)
(0 9.78574e-15 0 0 -1.62836e-15 0 0 0 0)
(-4.44089e-14 -9.62971e-15 0 2.71051e-14 5.29069e-15 0 0 0 0)
(0 -1.1377e-14 0 0 -2.15149e-16 0 0 0 0)
(-8.88178e-14 -8.76911e-15 0 0 9.41097e-15 0 0 0 0)
(-4.44089e-14 -4.90209e-14 0 -2.71051e-14 -7.12107e-16 0 0 0 0)
(8.88178e-14 -5.92069e-15 0 0 -2.20769e-14 0 0 0 0)
(-4.44089e-14 3.92866e-14 0 2.71051e-14 -5.26544e-15 0 0 0 0)
(-4.44089e-14 1.51411e-14 0 -2.71051e-14 5.19183e-15 0 0 0 0)
(0 1.85193e-14 0 2.71051e-14 2.08901e-15 0 0 0 0)
(-4.44089e-14 6.78501e-15 0 0 1.2016e-15 0 0 0 0)
(0 1.37129e-14 0 0 -6.20088e-15 0 0 0 0)
(-4.44089e-14 3.15885e-14 0 0 1.29684e-15 0 0 0 0)
(-4.44089e-14 8.52554e-15 0 -2.71051e-14 1.00285e-14 0 0 0 0)
(1.92852e-10 2.24748e-07 0 -9.96536e-11 1.17867e-06 0 0 0 0)
(-5.40475e-11 -2.78046e-07 0 8.71037e-10 -2.79684e-07 0 0 0 0)
(-1.64772e-10 6.59803e-08 0 -3.15836e-10 6.64899e-08 0 0 0 0)
(7.07171e-11 -1.56833e-08 0 2.11964e-10 -1.57624e-08 0 0 0 0)
(-4.45607e-11 3.71876e-09 0 -3.30402e-11 3.75678e-09 0 0 0 0)
(8.86335e-12 -8.85747e-10 0 3.37508e-11 -8.87334e-10 0 0 0 0)
(-6.53232e-12 2.09541e-10 0 2.4869e-12 2.13793e-10 0 0 0 0)
(1.89735e-13 -5.02646e-11 0 7.54952e-12 -4.91706e-11 0 0 0 0)
(-1.16552e-12 1.17059e-11 0 3.24185e-12 1.27349e-11 0 0 0 0)
(-3.79471e-13 -2.92562e-12 0 2.93099e-12 -2.34683e-12 0 0 0 0)
(-4.06576e-13 6.04935e-13 0 1.77636e-12 1.03244e-12 0 0 0 0)
(-2.43945e-13 -2.09552e-13 0 1.19904e-12 7.29125e-14 0 0 0 0)
(-1.6263e-13 7.47707e-15 0 8.43769e-13 1.94233e-13 0 0 0 0)
(-1.0842e-13 -2.60077e-14 0 6.21725e-13 1.02821e-13 0 0 0 0)
(-8.13152e-14 -1.43892e-14 0 3.9968e-13 9.02024e-14 0 0 0 0)
(-5.42101e-14 -1.35309e-14 0 2.22045e-13 4.5264e-14 0 0 0 0)
(-2.71051e-14 -7.00357e-16 0 2.22045e-13 3.60788e-14 0 0 0 0)
(-2.71051e-14 -4.65688e-16 0 1.33227e-13 4.24626e-14 0 0 0 0)
(-2.71051e-14 -2.2883e-15 0 8.88178e-14 3.4216e-14 0 0 0 0)
(-2.71051e-14 -1.68814e-14 0 0 3.33094e-14 0 0 0 0)
)
;
    }
    frontAndBack
    {
        type            empty;
    }
}


// ************************************************************************* //
