/*--------------------------------*- C++ -*----------------------------------*\
| =========                 |                                                 |
| \\      /  F ield         | OpenFOAM: The Open Source CFD Toolbox           |
|  \\    /   O peration     | Version:  2312                                  |
|   \\  /    A nd           | Website:  www.openfoam.com                      |
|    \\/     M anipulation  |                                                 |
\*---------------------------------------------------------------------------*/
FoamFile
{
    version     2.0;
    format      ascii;
    arch        "LSB;label=32;scalar=64";
    class       volVectorField;
    location    "5";
    object      gradPhi;
}
// * * * * * * * * * * * * * * * * * * * * * * * * * * * * * * * * * * * * * //

dimensions      [0 2 -1 0 0 0 0];

internalField   nonuniform List<vector> 
400
(
(-0.02 -1.32413e-14 0)
(-9.6714e-15 9.67185e-15 0)
(-1.7834e-15 1.7832e-15 0)
(-8.33798e-16 8.34144e-16 0)
(-5.27741e-16 5.28194e-16 0)
(-1.27386e-16 1.26743e-16 0)
(-1.20768e-16 1.21332e-16 0)
(-4.96308e-17 4.95425e-17 0)
(-3.97047e-17 3.89209e-17 0)
(-2.31611e-17 2.35473e-17 0)
(-1.8198e-17 1.78461e-17 0)
(-1.15805e-17 1.19679e-17 0)
(-8.27181e-18 8.21943e-18 0)
(-4.96308e-18 5.49811e-18 0)
(-4.96308e-18 4.09208e-18 0)
(-1.65436e-18 2.19874e-18 0)
(-1.65436e-18 1.47133e-18 0)
(-1.65436e-18 1.78089e-18 0)
(-1.65436e-18 1.08386e-18 0)
(0 1.89144e-18 0)
(-0.02 -9.82442e-16 0)
(-2.10766e-15 2.10922e-15 0)
(1.54517e-15 -1.54799e-15 0)
(-3.14329e-16 3.13768e-16 0)
(2.03486e-16 -2.02356e-16 0)
(-1.37312e-16 1.38343e-16 0)
(-3.30872e-17 3.29117e-17 0)
(-4.63221e-17 4.73836e-17 0)
(-2.48154e-17 2.29458e-17 0)
(-1.8198e-17 1.86234e-17 0)
(-1.32349e-17 1.30993e-17 0)
(-9.92617e-18 1.05489e-17 0)
(-6.61744e-18 7.57949e-18 0)
(-6.61744e-18 5.91013e-18 0)
(-3.30872e-18 3.26822e-18 0)
(-3.30872e-18 2.72604e-18 0)
(-1.65436e-18 1.78961e-18 0)
(-1.65436e-18 1.95105e-18 0)
(-3.30872e-18 2.11505e-18 0)
(1.65436e-18 -1.67804e-18 0)
(-0.02 3.18012e-14 0)
(3.20483e-14 -3.20476e-14 0)
(-1.79167e-15 1.79165e-15 0)
(1.86943e-15 -1.87e-15 0)
(-3.20946e-16 3.22116e-16 0)
(9.92617e-17 -9.94778e-17 0)
(-3.63959e-17 3.58749e-17 0)
(-6.61744e-18 8.19075e-18 0)
(-1.8198e-17 1.86286e-17 0)
(-1.15805e-17 1.09467e-17 0)
(-8.27181e-18 7.99568e-18 0)
(-6.61744e-18 5.98653e-18 0)
(-3.30872e-18 5.01145e-18 0)
(-3.30872e-18 2.96993e-18 0)
(-4.96308e-18 4.42274e-18 0)
(-3.30872e-18 3.07986e-18 0)
(-3.30872e-18 2.41945e-18 0)
(1.65436e-18 -1.26778e-18 0)
(0 -8.58961e-19 0)
(0 7.11678e-19 0)
(-0.02 -4.76341e-14 0)
(-5.05407e-14 5.05413e-14 0)
(4.63056e-15 -4.63014e-15 0)
(-2.49312e-15 2.49327e-15 0)
(8.23872e-16 -8.24011e-16 0)
(-1.00916e-16 9.94637e-17 0)
(7.61006e-17 -7.53754e-17 0)
(-9.92617e-18 9.74534e-18 0)
(1.65436e-18 -2.83464e-18 0)
(-4.96308e-18 5.96385e-18 0)
(-4.96308e-18 3.46457e-18 0)
(-1.65436e-18 2.0942e-18 0)
(-1.65436e-18 2.36937e-18 0)
(-3.30872e-18 3.54781e-18 0)
(-1.65436e-18 1.8143e-18 0)
(-1.65436e-18 1.81533e-18 0)
(0 3.85002e-19 0)
(-1.65436e-18 1.59797e-18 0)
(0 -5.74571e-19 0)
(-1.65436e-18 6.15853e-19 0)
(-0.02 5.87575e-14 0)
(6.21312e-14 -6.21302e-14 0)
(-5.91765e-15 5.91768e-15 0)
(3.14329e-15 -3.14401e-15 0)
(-7.87476e-16 7.86964e-16 0)
(1.98523e-16 -1.97213e-16 0)
(-3.63959e-17 3.74166e-17 0)
(2.64698e-17 -2.68184e-17 0)
(0 -5.50571e-19 0)
(3.30872e-18 -2.43096e-18 0)
(-1.65436e-18 6.31991e-19 0)
(-1.65436e-18 6.50483e-19 0)
(0 6.79726e-19 0)
(0 -2.39607e-19 0)
(0 -7.037e-20 0)
(0 -3.52068e-19 0)
(0 9.47409e-19 0)
(-1.65436e-18 9.80584e-19 0)
(-1.65436e-18 2.05959e-18 0)
(1.65436e-18 -2.75377e-18 0)
(-0.02 -6.01805e-14 0)
(-6.46144e-14 6.46155e-14 0)
(6.57443e-15 -6.57494e-15 0)
(-3.06553e-15 3.06578e-15 0)
(9.28097e-16 -9.26695e-16 0)
(-1.24077e-16 1.23233e-16 0)
(8.76811e-17 -8.7375e-17 0)
(1.65436e-18 -1.89395e-18 0)
(1.48893e-17 -1.54154e-17 0)
(6.61744e-18 -6.11489e-18 0)
(6.61744e-18 -5.20019e-18 0)
(0 -1.36137e-18 0)
(0 -3.12584e-19 0)
(0 8.26404e-19 0)
(0 -8.35951e-19 0)
(0 -5.63433e-19 0)
(0 -5.68618e-19 0)
(1.65436e-18 -1.0287e-18 0)
(3.30872e-18 -3.47498e-18 0)
(-1.65436e-18 1.83563e-18 0)
(-0.02 5.98996e-14 0)
(6.3951e-14 -6.39512e-14 0)
(-6.54796e-15 6.54838e-15 0)
(3.09531e-15 -3.09601e-15 0)
(-8.17254e-16 8.18469e-16 0)
(1.85288e-16 -1.86229e-16 0)
(-3.63959e-17 3.67436e-17 0)
(3.14329e-17 -3.15102e-17 0)
(1.15805e-17 -1.02038e-17 0)
(9.92617e-18 -1.03624e-17 0)
(4.96308e-18 -5.08534e-18 0)
(3.30872e-18 -4.16943e-18 0)
(3.30872e-18 -3.89224e-18 0)
(6.61744e-18 -4.34265e-18 0)
(1.65436e-18 -2.16573e-18 0)
(0 6.35135e-19 0)
(-1.65436e-18 6.68425e-19 0)
(0 -6.20881e-19 0)
(-1.65436e-18 6.03453e-19 0)
(1.65436e-18 -4.84484e-19 0)
(-0.02 -5.68421e-14 0)
(-6.12676e-14 6.12686e-14 0)
(6.45035e-15 -6.45076e-15 0)
(-2.87859e-15 2.87879e-15 0)
(8.4207e-16 -8.42486e-16 0)
(-1.22423e-16 1.23094e-16 0)
(7.94093e-17 -7.87763e-17 0)
(0 -2.42496e-18 0)
(1.48893e-17 -1.45578e-17 0)
(8.27181e-18 -8.0904e-18 0)
(6.61744e-18 -8.02192e-18 0)
(6.61744e-18 -5.81992e-18 0)
(4.96308e-18 -4.01356e-18 0)
(1.65436e-18 -9.82095e-19 0)
(1.65436e-18 -1.49018e-18 0)
(4.96308e-18 -5.1422e-18 0)
(3.30872e-18 -3.89783e-18 0)
(0 -1.67453e-19 0)
(1.65436e-18 1.28201e-19 0)
(0 -5.68593e-19 0)
(-0.02 5.41044e-14 0)
(5.8073e-14 -5.80732e-14 0)
(-6.20882e-15 6.20793e-15 0)
(2.76444e-15 -2.76374e-15 0)
(-7.39499e-16 7.40287e-16 0)
(1.62127e-16 -1.62428e-16 0)
(-3.30872e-17 3.42614e-17 0)
(2.97785e-17 -3.15726e-17 0)
(1.48893e-17 -1.4071e-17 0)
(1.32349e-17 -1.35196e-17 0)
(6.61744e-18 -7.36607e-18 0)
(4.96308e-18 -6.6674e-18 0)
(6.61744e-18 -5.48055e-18 0)
(6.61744e-18 -6.26888e-18 0)
(0 -2.22068e-18 0)
(0 1.12371e-18 0)
(0 -5.93446e-19 0)
(3.30872e-18 -3.63985e-18 0)
(1.65436e-18 -9.79629e-19 0)
(-1.65436e-18 1.21539e-18 0)
(-0.02 -5.00759e-14 0)
(-5.42432e-14 5.42424e-14 0)
(5.94743e-15 -5.94829e-15 0)
(-2.52952e-15 2.52988e-15 0)
(7.27919e-16 -7.29647e-16 0)
(-1.10842e-16 1.11204e-16 0)
(6.94832e-17 -6.92706e-17 0)
(4.96308e-18 -5.42381e-18 0)
(1.48893e-17 -1.46532e-17 0)
(1.15805e-17 -1.06665e-17 0)
(9.92617e-18 -1.08867e-17 0)
(8.27181e-18 -7.83208e-18 0)
(6.61744e-18 -7.42394e-18 0)
(3.30872e-18 -3.16255e-18 0)
(3.30872e-18 -2.58758e-18 0)
(1.65436e-18 -2.28477e-18 0)
(0 -1.26317e-19 0)
(-1.65436e-18 2.61335e-18 0)
(-1.65436e-18 8.61707e-19 0)
(1.65436e-18 -1.00363e-18 0)
(-0.02 4.68599e-14 0)
(5.05622e-14 -5.05629e-14 0)
(-5.64964e-15 5.6502e-15 0)
(2.38724e-15 -2.38655e-15 0)
(-6.35275e-16 6.34291e-16 0)
(1.45584e-16 -1.44479e-16 0)
(-2.64698e-17 2.47186e-17 0)
(2.81241e-17 -2.71122e-17 0)
(1.15805e-17 -1.18029e-17 0)
(1.15805e-17 -1.14079e-17 0)
(6.61744e-18 -7.14181e-18 0)
(3.30872e-18 -4.20204e-18 0)
(1.65436e-18 -1.76176e-18 0)
(3.30872e-18 -3.25275e-18 0)
(4.96308e-18 -3.47657e-18 0)
(1.65436e-18 -9.05439e-19 0)
(0 -1.07198e-18 0)
(3.30872e-18 -2.83045e-18 0)
(1.65436e-18 -7.07407e-19 0)
(-1.65436e-18 8.77371e-19 0)
(-0.02 -4.29178e-14 0)
(-4.6782e-14 4.67792e-14 0)
(5.36675e-15 -5.36682e-15 0)
(-2.1606e-15 2.16213e-15 0)
(6.27003e-16 -6.26858e-16 0)
(-9.26442e-17 9.22086e-17 0)
(5.79026e-17 -5.73249e-17 0)
(4.96308e-18 -4.87157e-18 0)
(1.48893e-17 -1.55098e-17 0)
(9.92617e-18 -9.70819e-18 0)
(9.92617e-18 -9.11981e-18 0)
(6.61744e-18 -7.98988e-18 0)
(6.61744e-18 -5.98641e-18 0)
(3.30872e-18 -4.32033e-18 0)
(4.96308e-18 -2.54059e-18 0)
(1.65436e-18 -3.08194e-18 0)
(3.30872e-18 -2.29641e-18 0)
(0 -8.31203e-19 0)
(0 -2.05692e-19 0)
(-1.65436e-18 1.19896e-18 0)
(-0.02 4.0198e-14 0)
(4.35643e-14 -4.3564e-14 0)
(-5.07393e-15 5.07277e-15 0)
(2.05637e-15 -2.05537e-15 0)
(-5.32704e-16 5.31849e-16 0)
(1.30695e-16 -1.30304e-16 0)
(-1.48893e-17 1.64146e-17 0)
(2.31611e-17 -2.31558e-17 0)
(8.27181e-18 -7.12571e-18 0)
(8.27181e-18 -8.75887e-18 0)
(6.61744e-18 -6.83188e-18 0)
(6.61744e-18 -5.47131e-18 0)
(1.65436e-18 -3.30418e-18 0)
(3.30872e-18 -1.73288e-18 0)
(3.30872e-18 -2.30129e-18 0)
(0 -1.92889e-18 0)
(1.65436e-18 -2.92191e-19 0)
(0 5.73246e-19 0)
(0 -1.05514e-18 0)
(4.96308e-18 -3.31158e-18 0)
(-0.02 -3.69424e-14 0)
(-4.05368e-14 4.05383e-14 0)
(4.86051e-15 -4.86015e-15 0)
(-1.85288e-15 1.853e-15 0)
(5.50902e-16 -5.50914e-16 0)
(-7.11375e-17 7.16424e-17 0)
(5.62483e-17 -5.70389e-17 0)
(9.92617e-18 -1.07011e-17 0)
(1.48893e-17 -1.50118e-17 0)
(6.61744e-18 -6.64192e-18 0)
(8.27181e-18 -5.70756e-18 0)
(1.65436e-18 -4.32629e-18 0)
(4.96308e-18 -3.73257e-18 0)
(3.30872e-18 -2.78129e-18 0)
(3.30872e-18 -1.96055e-18 0)
(0 -1.00741e-18 0)
(1.65436e-18 -7.19701e-19 0)
(-1.65436e-18 4.01235e-19 0)
(1.65436e-18 -4.41714e-20 0)
(-1.65436e-18 7.22053e-19 0)
(-0.02 3.5386e-14 0)
(3.84407e-14 -3.84407e-14 0)
(-4.6107e-15 4.61098e-15 0)
(1.83469e-15 -1.83406e-15 0)
(-4.46678e-16 4.46864e-16 0)
(1.22423e-16 -1.23088e-16 0)
(-1.15805e-17 1.28187e-17 0)
(2.15067e-17 -2.06143e-17 0)
(6.61744e-18 -8.05553e-18 0)
(1.15805e-17 -9.38369e-18 0)
(4.96308e-18 -5.78124e-18 0)
(4.96308e-18 -3.58572e-18 0)
(0 -2.31867e-18 0)
(3.30872e-18 -2.35707e-18 0)
(0 -7.65142e-20 0)
(1.65436e-18 -1.74169e-18 0)
(1.65436e-18 -2.55692e-18 0)
(1.65436e-18 -1.37186e-18 0)
(-1.65436e-18 4.20498e-19 0)
(0 7.47925e-19 0)
(-0.02 -3.30881e-14 0)
(-3.65961e-14 3.65974e-14 0)
(4.60409e-15 -4.60556e-15 0)
(-1.63451e-15 1.63472e-15 0)
(5.21124e-16 -5.20028e-16 0)
(-5.79026e-17 5.80018e-17 0)
(5.29396e-17 -5.2129e-17 0)
(3.30872e-18 -5.77841e-18 0)
(1.15805e-17 -1.04746e-17 0)
(1.65436e-18 -2.70872e-18 0)
(1.65436e-18 -1.0811e-18 0)
(1.65436e-18 -5.66672e-19 0)
(0 2.81324e-20 0)
(0 4.57287e-19 0)
(3.30872e-18 -2.3948e-18 0)
(0 -4.18896e-19 0)
(-1.65436e-18 1.06391e-18 0)
(0 -2.6352e-19 0)
(0 -5.21005e-21 0)
(1.65436e-18 -1.0735e-18 0)
(-0.02 3.34438e-14 0)
(3.6252e-14 -3.62512e-14 0)
(-4.2881e-15 4.28762e-15 0)
(1.75693e-15 -1.75692e-15 0)
(-3.77194e-16 3.76627e-16 0)
(1.15805e-16 -1.15409e-16 0)
(-1.32349e-17 1.32791e-17 0)
(8.27181e-18 -9.86687e-18 0)
(-1.65436e-18 2.25893e-18 0)
(0 8.21406e-19 0)
(-3.30872e-18 3.04698e-18 0)
(-1.65436e-18 1.93714e-18 0)
(-1.65436e-18 2.18703e-18 0)
(-1.65436e-18 1.2152e-18 0)
(-1.65436e-18 9.15142e-19 0)
(0 6.67267e-19 0)
(3.30872e-18 -1.80286e-18 0)
(0 -1.00931e-18 0)
(0 4.4741e-19 0)
(-1.65436e-18 1.84254e-18 0)
(-0.02 -3.10072e-14 0)
(-3.46324e-14 3.46322e-14 0)
(4.69508e-15 -4.69364e-15 0)
(-1.53028e-15 1.53015e-15 0)
(5.70755e-16 -5.7062e-16 0)
(-8.76811e-17 8.59396e-17 0)
(3.14329e-17 -3.11714e-17 0)
(-1.8198e-17 1.97194e-17 0)
(-6.61744e-18 6.48056e-18 0)
(-8.27181e-18 9.29743e-18 0)
(-4.96308e-18 4.2648e-18 0)
(-3.30872e-18 4.42868e-18 0)
(-3.30872e-18 1.60341e-18 0)
(-1.65436e-18 2.6733e-18 0)
(-3.30872e-18 2.8088e-18 0)
(-1.65436e-18 1.80944e-18 0)
(-3.30872e-18 3.97512e-18 0)
(-1.65436e-18 2.17752e-18 0)
(1.65436e-18 -1.75718e-18 0)
(0 -2.0968e-18 0)
(-0.02 3.32869e-14 0)
(3.46556e-14 -3.46561e-14 0)
(-2.26813e-15 2.26924e-15 0)
(1.37808e-15 -1.37822e-15 0)
(-2.99439e-16 2.99537e-16 0)
(-2.81241e-17 2.83499e-17 0)
(-5.45939e-17 5.32494e-17 0)
(-2.97785e-17 3.0073e-17 0)
(-2.15067e-17 2.15525e-17 0)
(-1.32349e-17 1.43577e-17 0)
(-9.92617e-18 9.59137e-18 0)
(-6.61744e-18 6.7946e-18 0)
(-6.61744e-18 6.32288e-18 0)
(-3.30872e-18 3.24242e-18 0)
(-1.65436e-18 1.58593e-18 0)
(-1.65436e-18 7.83607e-19 0)
(0 3.89559e-19 0)
(0 -4.35027e-20 0)
(-1.65436e-18 1.56395e-18 0)
(0 7.66254e-19 0)
(-0.02 -2.08256e-14 0)
(-1.8681e-14 1.86809e-14 0)
(-5.39322e-16 5.38639e-16 0)
(-9.89308e-16 9.89225e-16 0)
(-3.07711e-16 3.08416e-16 0)
(-9.92617e-17 1.00404e-16 0)
(-8.93355e-17 8.94412e-17 0)
(-3.80503e-17 3.70895e-17 0)
(-2.97785e-17 2.94795e-17 0)
(-1.65436e-17 1.62364e-17 0)
(-1.15805e-17 1.22828e-17 0)
(-8.27181e-18 7.58369e-18 0)
(-3.30872e-18 4.22555e-18 0)
(-3.30872e-18 3.0995e-18 0)
(-3.30872e-18 3.21359e-18 0)
(-3.30872e-18 2.58759e-18 0)
(0 8.16445e-19 0)
(0 9.98672e-19 0)
(-1.65436e-18 3.79239e-19 0)
(0 5.45307e-19 0)
)
;

boundaryField
{
    movingWall
    {
        type            extrapolatedCalculated;
        value           nonuniform List<vector> 
20
(
(-0.02 -2.08256e-14 0)
(-1.8681e-14 1.86809e-14 0)
(-5.39322e-16 5.38639e-16 0)
(-9.89308e-16 9.89225e-16 0)
(-3.07711e-16 3.08416e-16 0)
(-9.92617e-17 1.00404e-16 0)
(-8.93355e-17 8.94412e-17 0)
(-3.80503e-17 3.70895e-17 0)
(-2.97785e-17 2.94795e-17 0)
(-1.65436e-17 1.62364e-17 0)
(-1.15805e-17 1.22828e-17 0)
(-8.27181e-18 7.58369e-18 0)
(-3.30872e-18 4.22555e-18 0)
(-3.30872e-18 3.0995e-18 0)
(-3.30872e-18 3.21359e-18 0)
(-3.30872e-18 2.58759e-18 0)
(0 8.16445e-19 0)
(0 9.98672e-19 0)
(-1.65436e-18 3.79239e-19 0)
(0 5.45307e-19 0)
)
;
    }
    fixedWalls
    {
        type            extrapolatedCalculated;
        value           nonuniform List<vector> 
60
(
(-0.02 -1.32413e-14 0)
(-0.02 -9.82442e-16 0)
(-0.02 3.18012e-14 0)
(-0.02 -4.76341e-14 0)
(-0.02 5.87575e-14 0)
(-0.02 -6.01805e-14 0)
(-0.02 5.98996e-14 0)
(-0.02 -5.68421e-14 0)
(-0.02 5.41044e-14 0)
(-0.02 -5.00759e-14 0)
(-0.02 4.68599e-14 0)
(-0.02 -4.29178e-14 0)
(-0.02 4.0198e-14 0)
(-0.02 -3.69424e-14 0)
(-0.02 3.5386e-14 0)
(-0.02 -3.30881e-14 0)
(-0.02 3.34438e-14 0)
(-0.02 -3.10072e-14 0)
(-0.02 3.32869e-14 0)
(-0.02 -2.08256e-14 0)
(0 1.89144e-18 0)
(1.65436e-18 -1.67804e-18 0)
(0 7.11678e-19 0)
(-1.65436e-18 6.15853e-19 0)
(1.65436e-18 -2.75377e-18 0)
(-1.65436e-18 1.83563e-18 0)
(1.65436e-18 -4.84484e-19 0)
(0 -5.68593e-19 0)
(-1.65436e-18 1.21539e-18 0)
(1.65436e-18 -1.00363e-18 0)
(-1.65436e-18 8.77371e-19 0)
(-1.65436e-18 1.19896e-18 0)
(4.96308e-18 -3.31158e-18 0)
(-1.65436e-18 7.22053e-19 0)
(0 7.47925e-19 0)
(1.65436e-18 -1.0735e-18 0)
(-1.65436e-18 1.84254e-18 0)
(0 -2.0968e-18 0)
(0 7.66254e-19 0)
(0 5.45307e-19 0)
(-0.02 -1.32413e-14 0)
(-9.6714e-15 9.67185e-15 0)
(-1.7834e-15 1.7832e-15 0)
(-8.33798e-16 8.34144e-16 0)
(-5.27741e-16 5.28194e-16 0)
(-1.27386e-16 1.26743e-16 0)
(-1.20768e-16 1.21332e-16 0)
(-4.96308e-17 4.95425e-17 0)
(-3.97047e-17 3.89209e-17 0)
(-2.31611e-17 2.35473e-17 0)
(-1.8198e-17 1.78461e-17 0)
(-1.15805e-17 1.19679e-17 0)
(-8.27181e-18 8.21943e-18 0)
(-4.96308e-18 5.49811e-18 0)
(-4.96308e-18 4.09208e-18 0)
(-1.65436e-18 2.19874e-18 0)
(-1.65436e-18 1.47133e-18 0)
(-1.65436e-18 1.78089e-18 0)
(-1.65436e-18 1.08386e-18 0)
(0 1.89144e-18 0)
)
;
    }
    frontAndBack
    {
        type            empty;
    }
}


// ************************************************************************* //
