/*--------------------------------*- C++ -*----------------------------------*\
| =========                 |                                                 |
| \\      /  F ield         | OpenFOAM: The Open Source CFD Toolbox           |
|  \\    /   O peration     | Version:  2312                                  |
|   \\  /    A nd           | Website:  www.openfoam.com                      |
|    \\/     M anipulation  |                                                 |
\*---------------------------------------------------------------------------*/
FoamFile
{
    version     2.0;
    format      ascii;
    arch        "LSB;label=32;scalar=64";
    class       volScalarField;
    location    "5";
    object      initialResidual:Uy;
}
// * * * * * * * * * * * * * * * * * * * * * * * * * * * * * * * * * * * * * //

dimensions      [0 0 0 0 0 0 0];

internalField   nonuniform List<scalar> 
400
(
-2.77912e-15
1.19072e-15
-2.82875e-16
6.71668e-17
-1.59668e-17
3.79386e-18
-8.93592e-19
2.20752e-19
-5.03705e-20
1.3475e-20
-4.30492e-21
-1.41994e-21
1.1029e-21
3.68679e-21
2.09448e-21
-1.7766e-21
-2.38822e-21
1.72459e-21
3.73209e-21
1.08457e-21
2.78324e-15
-1.19264e-15
2.83067e-16
-6.7212e-17
1.59453e-17
-3.77978e-18
9.05531e-19
-2.10288e-19
5.17421e-20
-7.1205e-21
9.01619e-21
3.3426e-21
2.7762e-21
1.91301e-21
5.56526e-22
-4.69997e-22
3.2698e-21
5.50368e-21
5.9479e-21
8.97261e-22
-2.77917e-15
1.19056e-15
-2.82628e-16
6.71007e-17
-1.59256e-17
3.78925e-18
-8.9272e-19
2.18116e-19
-4.34163e-20
2.07213e-20
1.14721e-20
1.28914e-20
1.90861e-21
6.77818e-22
-7.1781e-22
2.34275e-21
7.13629e-21
6.42073e-21
8.68701e-21
4.55398e-22
2.77136e-15
-1.18649e-15
2.81622e-16
-6.67884e-17
1.58656e-17
-3.74932e-18
9.08429e-19
-1.94353e-19
6.79972e-20
4.6741e-21
1.86399e-20
1.35113e-20
5.05243e-21
7.23118e-21
8.88483e-21
2.01578e-21
-3.53095e-21
3.73091e-21
1.5061e-20
2.18076e-21
-2.76152e-15
1.18243e-15
-2.80462e-16
6.65896e-17
-1.57641e-17
3.76917e-18
-8.66937e-19
2.35301e-19
-2.37663e-20
3.50822e-20
1.02041e-20
7.92953e-21
8.54204e-21
1.02383e-20
1.16491e-20
5.18439e-21
3.86705e-21
3.62939e-21
5.78193e-21
1.64767e-21
2.75343e-15
-1.17867e-15
2.79696e-16
-6.6296e-17
1.57724e-17
-3.70021e-18
9.13024e-19
-1.86942e-19
7.07065e-20
8.1266e-21
1.56291e-20
4.65994e-21
1.2764e-20
1.42437e-20
7.46388e-21
5.02996e-21
1.18159e-20
2.43542e-21
-6.3226e-22
3.6902e-21
-2.74495e-15
1.17516e-15
-2.78695e-16
6.61822e-17
-1.56467e-17
3.75616e-18
-8.53466e-19
2.28432e-19
-3.64497e-20
2.53492e-20
1.14537e-20
1.65677e-20
1.53114e-20
1.18513e-20
8.4954e-21
7.93624e-21
5.23193e-21
1.23181e-21
7.03215e-21
4.9699e-21
2.73729e-15
-1.17167e-15
2.78003e-16
-6.58698e-17
1.56825e-17
-3.68238e-18
9.09665e-19
-1.7533e-19
6.9765e-20
-4.21582e-21
1.60715e-20
2.1601e-20
1.58747e-20
7.0983e-22
-4.01568e-22
1.01977e-20
1.04774e-20
6.74785e-21
1.05244e-20
4.25956e-21
-2.72935e-15
1.16843e-15
-2.77089e-16
6.57973e-17
-1.55427e-17
3.73253e-18
-8.45437e-19
2.37006e-19
-2.80796e-20
2.5962e-20
1.00755e-20
1.37627e-20
1.094e-20
8.32878e-21
7.50559e-21
1.02639e-20
2.88385e-21
4.48386e-21
1.64644e-20
7.05694e-21
2.7223e-15
-1.16525e-15
2.76475e-16
-6.55138e-17
1.56065e-17
-3.64883e-18
9.04107e-19
-1.85924e-19
6.8404e-20
7.94119e-21
1.76223e-20
6.45485e-21
7.51073e-21
1.71779e-20
1.99023e-20
8.76525e-21
2.75572e-21
4.52475e-21
1.891e-20
6.38136e-21
-2.71537e-15
1.16246e-15
-2.75679e-16
6.54569e-17
-1.54744e-17
3.71462e-18
-8.47917e-19
2.32501e-19
-2.25264e-20
3.39992e-20
2.23482e-20
1.86592e-20
8.44288e-21
1.46759e-20
1.68266e-20
9.11477e-21
7.95279e-21
4.13509e-21
1.60111e-20
4.95217e-21
2.70932e-15
-1.15973e-15
2.75163e-16
-6.52218e-17
1.55195e-17
-3.63677e-18
8.99421e-19
-1.88214e-19
6.68775e-20
1.21243e-20
2.70304e-20
1.67356e-20
1.32802e-20
1.16558e-20
1.03776e-20
1.25931e-20
4.92116e-21
1.74312e-21
1.63119e-20
7.262e-21
-2.70363e-15
1.15744e-15
-2.74525e-16
6.51671e-17
-1.54134e-17
3.69803e-18
-8.39996e-19
2.31937e-19
-2.74473e-20
3.105e-20
9.01246e-21
1.58912e-20
1.54373e-20
5.65169e-21
-3.14725e-22
8.97816e-21
1.3714e-20
1.32605e-20
1.62487e-20
4.06834e-21
2.69857e-15
-1.15519e-15
2.74073e-16
-6.49872e-17
1.54435e-17
-3.63164e-18
8.95196e-19
-1.72162e-19
7.97149e-20
7.2276e-21
1.48462e-20
1.35915e-20
8.92171e-21
6.90298e-21
9.78485e-21
1.35956e-20
1.12687e-20
1.16813e-20
1.18768e-20
1.35845e-21
-2.69398e-15
1.15333e-15
-2.73568e-16
6.49271e-17
-1.53722e-17
3.67722e-18
-8.42047e-19
2.28857e-19
-3.25358e-20
2.82634e-20
1.42865e-20
1.20503e-20
6.1111e-21
1.31786e-20
1.8699e-20
1.69257e-20
8.49909e-21
6.2832e-21
1.13508e-20
2.64533e-21
2.68968e-15
-1.15141e-15
2.7319e-16
-6.47732e-17
1.53971e-17
-3.62466e-18
8.87471e-19
-1.91286e-19
6.14004e-20
1.99454e-21
1.28959e-20
7.78726e-21
1.20041e-20
1.24515e-20
1.65534e-20
1.35738e-20
9.59544e-21
7.2154e-21
1.41426e-20
3.03508e-21
-2.68599e-15
1.14993e-15
-2.72745e-16
6.47406e-17
-1.53281e-17
3.66194e-18
-8.46365e-19
2.21219e-19
-2.89742e-20
2.42846e-20
3.36049e-21
6.09716e-21
1.2044e-20
1.20902e-20
1.21256e-20
6.47313e-21
4.86044e-21
8.64173e-21
1.63088e-20
4.10708e-21
2.68187e-15
-1.14812e-15
2.72457e-16
-6.45885e-17
1.53637e-17
-3.61644e-18
8.76658e-19
-1.93207e-19
6.22156e-20
1.94653e-21
1.05302e-20
5.97162e-21
1.24502e-20
1.73651e-20
7.54676e-21
3.1124e-21
5.3046e-21
7.90991e-21
1.02032e-20
3.09671e-21
-2.67914e-15
1.14712e-15
-2.71948e-16
6.4543e-17
-1.5266e-17
3.64197e-18
-8.45035e-19
2.10841e-19
-3.79661e-20
2.46717e-20
8.01766e-21
8.53345e-21
1.17961e-20
9.22198e-21
1.40997e-22
7.66458e-22
8.31315e-21
2.88641e-21
2.97577e-21
2.28167e-21
2.67289e-15
-1.14453e-15
2.71621e-16
-6.44363e-17
1.53085e-17
-3.62635e-18
8.67715e-19
-1.99105e-19
5.69789e-20
-4.08784e-21
9.29982e-21
4.05714e-21
4.11511e-21
-8.76981e-22
-3.93697e-21
-2.01314e-21
4.07277e-21
1.08401e-21
2.32938e-21
1.11211e-21
)
;

boundaryField
{
    movingWall
    {
        type            zeroGradient;
    }
    fixedWalls
    {
        type            zeroGradient;
    }
    frontAndBack
    {
        type            empty;
    }
}


// ************************************************************************* //
