/*--------------------------------*- C++ -*----------------------------------*\
| =========                 |                                                 |
| \\      /  F ield         | OpenFOAM: The Open Source CFD Toolbox           |
|  \\    /   O peration     | Version:  2312                                  |
|   \\  /    A nd           | Website:  www.openfoam.com                      |
|    \\/     M anipulation  |                                                 |
\*---------------------------------------------------------------------------*/
FoamFile
{
    version     2.0;
    format      ascii;
    arch        "LSB;label=32;scalar=64";
    class       volScalarField;
    location    "5";
    object      initialResidual:Ux;
}
// * * * * * * * * * * * * * * * * * * * * * * * * * * * * * * * * * * * * * //

dimensions      [0 0 0 0 0 0 0];

internalField   nonuniform List<scalar> 
400
(
5.02322e-18
-5.12286e-18
2.04643e-18
-7.18284e-19
2.91379e-19
-3.38813e-20
8.13152e-20
1.35525e-20
6.77626e-20
4.06576e-20
1.35525e-20
2.71051e-20
2.03288e-20
-6.77626e-21
4.06576e-20
3.38813e-20
1.35525e-20
2.03288e-20
0
-1.35525e-20
-5.81737e-18
2.64952e-18
-6.23416e-19
2.64274e-19
-6.77626e-21
6.09864e-20
4.06576e-20
6.09864e-20
3.38813e-20
5.42101e-20
2.71051e-20
2.71051e-20
4.06576e-20
-6.77626e-21
0
2.71051e-20
2.03288e-20
-6.77626e-21
-1.35525e-20
4.06576e-20
1.72763e-17
-6.68817e-18
2.07354e-18
-4.67562e-19
2.23617e-19
-2.71051e-20
6.77626e-20
1.35525e-20
3.38813e-20
6.77626e-21
4.06576e-20
1.35525e-20
-6.77626e-21
5.42101e-20
0
2.03288e-20
-6.77626e-21
2.71051e-20
-2.03288e-20
1.35525e-20
-2.00606e-17
8.08408e-18
-2.27682e-18
7.38613e-19
-1.01644e-19
8.13152e-20
2.71051e-20
2.03288e-20
4.74338e-20
3.38813e-20
-1.35525e-20
0
1.35525e-20
1.35525e-20
1.35525e-20
2.71051e-20
2.71051e-20
-1.35525e-20
6.77626e-21
0
2.0306e-17
-7.91468e-18
2.39202e-18
-5.69206e-19
1.89735e-19
0
4.74338e-20
3.38813e-20
6.77626e-21
1.35525e-20
-6.77626e-21
6.77626e-21
-6.77626e-21
6.77626e-21
2.71051e-20
0
0
1.35525e-20
-6.77626e-21
2.71051e-20
-1.994e-17
7.94178e-18
-2.2565e-18
6.7085e-19
-9.48677e-20
6.77626e-20
1.35525e-20
2.71051e-20
2.03288e-20
3.38813e-20
4.06576e-20
-2.03288e-20
2.03288e-20
6.77626e-21
1.35525e-20
0
-6.77626e-21
-1.35525e-20
3.38813e-20
0
1.8608e-17
-7.20994e-18
2.08031e-18
-5.75982e-19
1.6263e-19
-6.09864e-20
4.74338e-20
3.38813e-20
1.35525e-20
2.71051e-20
1.35525e-20
6.77626e-21
-2.03288e-20
3.38813e-20
3.38813e-20
-2.03288e-20
0
0
-1.35525e-20
-1.35525e-20
-1.71109e-17
6.79659e-18
-1.93801e-18
5.69206e-19
-1.21973e-19
6.09864e-20
1.35525e-20
2.03288e-20
6.77626e-21
-6.77626e-21
2.03288e-20
-1.35525e-20
2.71051e-20
-2.71051e-20
-6.77626e-21
5.42101e-20
-1.35525e-20
1.35525e-20
1.35525e-20
-1.35525e-20
1.51568e-17
-5.88857e-18
1.66018e-18
-4.47233e-19
1.15196e-19
-6.77626e-21
2.03288e-20
2.71051e-20
1.35525e-20
2.71051e-20
1.35525e-20
0
3.38813e-20
3.38813e-20
1.35525e-20
-6.77626e-21
2.03288e-20
1.35525e-20
0
-1.35525e-20
-1.33538e-17
5.27871e-18
-1.51788e-18
4.5401e-19
-1.01644e-19
4.74338e-20
2.03288e-20
4.06576e-20
6.77626e-21
-6.77626e-21
2.03288e-20
1.35525e-20
3.38813e-20
-6.77626e-21
0
2.03288e-20
1.35525e-20
-4.06576e-20
2.03288e-20
2.71051e-20
1.16261e-17
-4.49944e-18
1.24683e-18
-3.59142e-19
1.15196e-19
-1.35525e-20
2.03288e-20
2.71051e-20
3.38813e-20
-1.35525e-20
-6.77626e-21
-6.77626e-21
-6.77626e-21
-1.35525e-20
0
-6.77626e-21
0
2.71051e-20
6.77626e-21
-2.71051e-20
-9.99695e-18
3.95734e-18
-1.12486e-18
2.98156e-19
-9.48677e-20
3.38813e-20
-2.71051e-20
-6.77626e-21
1.35525e-20
6.77626e-21
6.77626e-21
0
3.38813e-20
6.77626e-21
-6.77626e-21
0
2.03288e-20
2.03288e-20
0
-1.35525e-20
8.7562e-18
-3.38813e-18
9.28348e-19
-2.71051e-19
6.77626e-20
-2.03288e-20
1.35525e-20
6.77626e-21
-3.38813e-20
2.71051e-20
-1.35525e-20
3.38813e-20
-3.38813e-20
2.71051e-20
-6.77626e-21
6.77626e-21
-6.77626e-21
-1.35525e-20
-2.03288e-20
2.71051e-20
-7.47668e-18
3.00188e-18
-8.74138e-19
2.43945e-19
-6.09864e-20
-6.77626e-21
-6.77626e-21
4.06576e-20
-1.35525e-20
0
-6.77626e-21
6.77626e-21
0
-6.77626e-21
6.77626e-21
-1.35525e-20
1.35525e-20
0
0
2.71051e-20
6.82449e-18
-2.6563e-18
7.11508e-19
-1.96512e-19
2.03288e-20
-2.03288e-20
-6.77626e-21
1.35525e-20
-2.71051e-20
-6.77626e-21
6.77626e-21
0
2.03288e-20
-6.77626e-21
-6.77626e-21
6.77626e-21
6.77626e-21
0
0
0
-5.64823e-18
2.2836e-18
-6.23416e-19
1.42302e-19
-2.03288e-20
-4.06576e-20
-1.35525e-20
-6.77626e-21
-1.35525e-20
4.74338e-20
-6.77626e-21
-2.03288e-20
-1.35525e-20
-4.06576e-20
4.06576e-20
-2.71051e-20
-6.77626e-21
-3.38813e-20
2.03288e-20
-1.35525e-20
5.69542e-18
-2.22261e-18
5.82759e-19
-1.69407e-19
2.03288e-20
-5.42101e-20
-6.77626e-21
-6.77626e-21
-6.77626e-21
-6.77626e-21
-2.03288e-20
-1.35525e-20
6.77626e-21
-2.03288e-20
0
1.35525e-20
-1.35525e-20
0
-6.77626e-21
0
-4.06602e-18
1.69407e-18
-4.87891e-19
8.80914e-20
-8.13152e-20
-6.77626e-21
-1.35525e-20
-6.77626e-21
-2.03288e-20
-3.38813e-20
-6.77626e-21
-3.38813e-20
6.77626e-21
2.71051e-20
-1.35525e-20
6.77626e-21
-2.71051e-20
-2.71051e-20
2.71051e-20
0
5.59013e-18
-2.10064e-18
5.55654e-19
-1.89735e-19
2.03288e-20
-5.42101e-20
6.77626e-21
-2.71051e-20
1.35525e-20
-3.38813e-20
2.03288e-20
-3.38813e-20
6.77626e-21
-1.35525e-20
3.38813e-20
-2.71051e-20
-6.77626e-21
6.77626e-21
-6.77626e-21
0
2.70373e-18
-4.13352e-18
1.61275e-18
-7.58942e-19
1.82959e-19
-1.0842e-19
1.35525e-20
0
-2.03288e-20
0
-1.35525e-20
0
0
4.74338e-20
-5.42101e-20
0
2.71051e-20
0
-6.77626e-21
0
)
;

boundaryField
{
    movingWall
    {
        type            zeroGradient;
    }
    fixedWalls
    {
        type            zeroGradient;
    }
    frontAndBack
    {
        type            empty;
    }
}


// ************************************************************************* //
