/*--------------------------------*- C++ -*----------------------------------*\
| =========                 |                                                 |
| \\      /  F ield         | OpenFOAM: The Open Source CFD Toolbox           |
|  \\    /   O peration     | Version:  2312                                  |
|   \\  /    A nd           | Website:  www.openfoam.com                      |
|    \\/     M anipulation  |                                                 |
\*---------------------------------------------------------------------------*/
FoamFile
{
    version     2.0;
    format      ascii;
    arch        "LSB;label=32;scalar=64";
    class       volScalarField;
    location    "5";
    object      initialResidual:epsilon;
}
// * * * * * * * * * * * * * * * * * * * * * * * * * * * * * * * * * * * * * //

dimensions      [0 0 0 0 0 0 0];

internalField   nonuniform List<scalar> 
400
(
0
0
0
0
0
0
0
0
0
0
0
0
0
0
0
0
0
0
0
0
0
-2.2942e-12
-2.28812e-12
-2.29418e-12
-2.29718e-12
-2.30183e-12
-2.3045e-12
-2.3091e-12
-2.31223e-12
-2.31637e-12
-2.3202e-12
-2.32376e-12
-2.32833e-12
-2.33129e-12
-2.33664e-12
-2.33898e-12
-2.34507e-12
-2.34705e-12
-4.6958e-12
0
0
-2.92851e-12
-2.92023e-12
-2.92884e-12
-2.93289e-12
-2.93943e-12
-2.94298e-12
-2.94945e-12
-2.95362e-12
-2.95941e-12
-2.96457e-12
-2.96949e-12
-2.97573e-12
-2.97973e-12
-2.9871e-12
-2.99016e-12
-2.99861e-12
-3.00109e-12
-6.00945e-12
0
0
-3.46722e-12
-3.45829e-12
-3.46855e-12
-3.47361e-12
-3.48162e-12
-3.48613e-12
-3.49406e-12
-3.49932e-12
-3.50645e-12
-3.51289e-12
-3.51901e-12
-3.52675e-12
-3.53177e-12
-3.54087e-12
-3.54477e-12
-3.55516e-12
-3.55841e-12
-7.12539e-12
0
0
-3.82809e-12
-3.81869e-12
-3.8301e-12
-3.83591e-12
-3.84492e-12
-3.85015e-12
-3.85907e-12
-3.86516e-12
-3.8732e-12
-3.88059e-12
-3.88753e-12
-3.89633e-12
-3.9021e-12
-3.91239e-12
-3.91694e-12
-3.92866e-12
-3.93248e-12
-7.87468e-12
0
0
-4.04282e-12
-4.03341e-12
-4.04544e-12
-4.05168e-12
-4.0613e-12
-4.067e-12
-4.07653e-12
-4.08309e-12
-4.09173e-12
-4.09965e-12
-4.10714e-12
-4.11657e-12
-4.1228e-12
-4.13384e-12
-4.13875e-12
-4.15133e-12
-4.15547e-12
-8.32145e-12
0
0
-4.16614e-12
-4.15661e-12
-4.16904e-12
-4.17554e-12
-4.18551e-12
-4.19147e-12
-4.20134e-12
-4.20822e-12
-4.21714e-12
-4.22544e-12
-4.23319e-12
-4.24302e-12
-4.24952e-12
-4.26097e-12
-4.26615e-12
-4.27916e-12
-4.28355e-12
-8.57803e-12
0
0
-4.24019e-12
-4.23007e-12
-4.24291e-12
-4.24962e-12
-4.2598e-12
-4.2659e-12
-4.276e-12
-4.28301e-12
-4.29219e-12
-4.30064e-12
-4.30861e-12
-4.31864e-12
-4.32531e-12
-4.33702e-12
-4.34232e-12
-4.35564e-12
-4.36012e-12
-8.73148e-12
0
0
-4.29039e-12
-4.27914e-12
-4.29245e-12
-4.29939e-12
-4.30969e-12
-4.31588e-12
-4.32616e-12
-4.3333e-12
-4.34255e-12
-4.35121e-12
-4.35921e-12
-4.36948e-12
-4.37616e-12
-4.38812e-12
-4.39345e-12
-4.40702e-12
-4.41155e-12
-8.83453e-12
0
0
-4.32883e-12
-4.31854e-12
-4.33166e-12
-4.33859e-12
-4.349e-12
-4.35529e-12
-4.36562e-12
-4.37288e-12
-4.38224e-12
-4.39098e-12
-4.39912e-12
-4.40945e-12
-4.41628e-12
-4.4283e-12
-4.43378e-12
-4.44743e-12
-4.45207e-12
-8.91566e-12
0
0
-4.36466e-12
-4.35401e-12
-4.36733e-12
-4.37436e-12
-4.3849e-12
-4.39125e-12
-4.40169e-12
-4.40902e-12
-4.41848e-12
-4.42733e-12
-4.43552e-12
-4.44601e-12
-4.45284e-12
-4.46508e-12
-4.47051e-12
-4.4844e-12
-4.48901e-12
-8.98972e-12
0
0
-4.40099e-12
-4.38993e-12
-4.40347e-12
-4.41064e-12
-4.42122e-12
-4.42772e-12
-4.43821e-12
-4.44569e-12
-4.45518e-12
-4.46417e-12
-4.4724e-12
-4.48303e-12
-4.48991e-12
-4.5023e-12
-4.50776e-12
-4.52183e-12
-4.52646e-12
-9.06474e-12
0
0
-4.43978e-12
-4.42893e-12
-4.44251e-12
-4.44973e-12
-4.46044e-12
-4.46698e-12
-4.47763e-12
-4.48515e-12
-4.49476e-12
-4.50385e-12
-4.51216e-12
-4.52292e-12
-4.52987e-12
-4.54239e-12
-4.54794e-12
-4.56212e-12
-4.56686e-12
-9.14561e-12
0
0
-4.48317e-12
-4.47246e-12
-4.48613e-12
-4.49343e-12
-4.50425e-12
-4.51087e-12
-4.52165e-12
-4.52927e-12
-4.53899e-12
-4.54819e-12
-4.55659e-12
-4.5675e-12
-4.57452e-12
-4.58721e-12
-4.59282e-12
-4.60718e-12
-4.61199e-12
-9.23598e-12
0
0
-4.53275e-12
-4.52221e-12
-4.53594e-12
-4.54333e-12
-4.55431e-12
-4.56102e-12
-4.57193e-12
-4.57966e-12
-4.58954e-12
-4.59884e-12
-4.60741e-12
-4.61841e-12
-4.62559e-12
-4.63838e-12
-4.64414e-12
-4.65864e-12
-4.66355e-12
-9.33924e-12
0
0
-4.59051e-12
-4.57933e-12
-4.59338e-12
-4.60101e-12
-4.61208e-12
-4.619e-12
-4.62998e-12
-4.63793e-12
-4.64786e-12
-4.65737e-12
-4.66603e-12
-4.67725e-12
-4.6845e-12
-4.69754e-12
-4.70336e-12
-4.71809e-12
-4.7231e-12
-9.45848e-12
0
0
-4.65588e-12
-4.64455e-12
-4.65888e-12
-4.66663e-12
-4.67786e-12
-4.68491e-12
-4.69609e-12
-4.70416e-12
-4.71429e-12
-4.72396e-12
-4.73277e-12
-4.74418e-12
-4.75158e-12
-4.76482e-12
-4.77078e-12
-4.78575e-12
-4.79087e-12
-9.59416e-12
0
0
-4.72456e-12
-4.71437e-12
-4.72844e-12
-4.7363e-12
-4.74766e-12
-4.75493e-12
-4.76619e-12
-4.77451e-12
-4.78474e-12
-4.79463e-12
-4.8036e-12
-4.81516e-12
-4.82279e-12
-4.83615e-12
-4.84236e-12
-4.85746e-12
-4.8628e-12
-9.73808e-12
0
0
-4.80433e-12
-4.7899e-12
-4.80579e-12
-4.81258e-12
-4.82494e-12
-4.83079e-12
-4.84317e-12
-4.85021e-12
-4.86137e-12
-4.87035e-12
-4.87992e-12
-4.89105e-12
-4.89888e-12
-4.9123e-12
-4.91833e-12
-4.93394e-12
-4.93892e-12
-9.87879e-12
0
0
0
0
0
0
0
0
0
0
0
0
0
0
0
0
0
0
0
0
0
)
;

boundaryField
{
    movingWall
    {
        type            zeroGradient;
    }
    fixedWalls
    {
        type            zeroGradient;
    }
    frontAndBack
    {
        type            empty;
    }
}


// ************************************************************************* //
