/*--------------------------------*- C++ -*----------------------------------*\
| =========                 |                                                 |
| \\      /  F ield         | OpenFOAM: The Open Source CFD Toolbox           |
|  \\    /   O peration     | Version:  2312                                  |
|   \\  /    A nd           | Website:  www.openfoam.com                      |
|    \\/     M anipulation  |                                                 |
\*---------------------------------------------------------------------------*/
FoamFile
{
    version     2.0;
    format      ascii;
    arch        "LSB;label=32;scalar=64";
    class       volScalarField;
    location    "5";
    object      initialResidual:p;
}
// * * * * * * * * * * * * * * * * * * * * * * * * * * * * * * * * * * * * * //

dimensions      [0 0 0 0 0 0 0];

internalField   nonuniform List<scalar> 
400
(
4.26931e-19
-5.11331e-19
5.38462e-19
-1.58343e-19
6.61014e-20
-2.10379e-20
3.3584e-21
-1.98408e-21
-5.6813e-21
2.98114e-21
-4.39892e-21
-1.47413e-22
-5.16639e-21
2.66005e-21
1.48626e-20
-2.03762e-20
-5.91552e-21
2.68203e-21
9.57313e-21
-6.78065e-21
-1.35605e-19
9.20636e-19
-2.40957e-19
2.94931e-20
9.21226e-21
1.04468e-20
7.19152e-21
-3.64186e-21
-1.52685e-20
-7.80635e-21
-6.88197e-21
1.30472e-20
-4.74566e-21
-6.50409e-21
1.45926e-21
-1.05806e-20
5.41787e-21
1.2461e-20
-2.49005e-21
-1.35607e-20
6.0325e-19
-2.50603e-18
5.14689e-19
-1.07657e-19
3.70124e-20
-1.85038e-20
-1.28916e-20
5.55857e-21
1.32437e-20
6.29429e-21
-1.40075e-21
-5.84326e-21
8.7666e-21
1.02637e-20
-1.75465e-20
2.74056e-21
-9.07485e-21
-1.11211e-21
-5.6182e-22
-2.44446e-24
-2.84727e-19
2.83923e-18
-5.34054e-19
1.28002e-19
-6.5275e-20
1.28441e-20
-5.01942e-21
2.59265e-20
-8.67111e-21
-1.82136e-20
-8.96956e-21
1.6897e-20
2.28676e-20
1.04204e-21
4.51306e-22
-3.1368e-21
-5.70892e-21
-9.89659e-21
-8.15367e-21
1.3545e-20
4.33849e-19
-2.95755e-18
5.95206e-19
-1.2879e-19
6.03386e-20
-1.67035e-20
-7.01235e-21
9.22071e-21
-7.58792e-21
-1.0425e-20
-2.30266e-21
-6.77903e-21
2.2618e-21
9.38911e-21
-6.49893e-21
-1.46219e-21
1.33689e-20
9.95087e-21
-4.85227e-21
-1.35527e-20
-3.05034e-19
2.93378e-18
-6.02664e-19
1.43504e-19
-6.14611e-20
4.34728e-21
4.80638e-21
-3.08599e-21
1.78563e-21
-1.37054e-20
-1.46448e-20
4.52679e-21
-2.11848e-21
4.5364e-21
-1.21978e-20
-1.92501e-21
-2.31367e-21
2.4117e-21
9.09489e-21
-6.78221e-21
2.84738e-19
-2.75814e-18
5.34108e-19
-9.55778e-20
6.28429e-20
-1.58407e-20
1.81221e-20
-7.35948e-21
6.4237e-21
-8.0503e-21
-2.07763e-20
-4.55837e-21
3.20143e-20
-8.87086e-21
-1.57254e-20
2.64508e-21
-2.6476e-22
-2.85388e-21
1.28637e-20
2.23686e-24
-1.83036e-19
2.4934e-18
-5.09521e-19
1.08284e-19
-4.51106e-20
1.01252e-20
-1.50037e-20
1.15625e-20
-7.95464e-21
-1.68366e-21
6.22287e-21
-2.17471e-20
2.74229e-21
-1.18577e-21
5.7057e-21
-7.60441e-21
8.18776e-22
8.69122e-21
-5.78021e-21
6.77259e-21
4.75384e-20
-2.16249e-18
4.49375e-19
-8.79055e-20
4.54643e-20
8.55783e-21
1.93591e-20
-2.08044e-20
-5.71212e-21
7.2847e-21
-1.5623e-20
-9.84254e-21
9.11093e-21
-9.0912e-21
3.80997e-21
1.0316e-20
-9.60858e-21
-8.05487e-21
3.63356e-21
4.41649e-24
-4.40824e-23
1.84854e-18
-3.58258e-19
8.50135e-20
-4.06936e-20
9.25849e-22
4.49267e-21
-4.34911e-21
-1.23012e-20
5.27646e-21
2.3468e-20
1.13729e-20
-9.51421e-21
-7.45289e-21
1.30586e-20
-2.14923e-20
7.20153e-21
2.64356e-21
-2.44232e-21
-1.01043e-24
-9.47888e-20
-1.57871e-18
3.27956e-19
-5.44313e-20
1.84101e-20
-1.01093e-20
1.6147e-20
-6.54499e-21
-2.44935e-20
7.74687e-22
-1.20951e-21
1.98121e-21
5.89417e-21
7.264e-21
-1.61396e-21
-4.04078e-21
-1.31506e-21
-9.32343e-21
9.76518e-21
6.16116e-24
7.45266e-20
1.33405e-18
-2.8761e-19
6.01068e-20
-1.38598e-20
-5.5136e-21
6.35099e-21
2.07303e-20
-1.24953e-20
-1.00339e-20
-3.3942e-21
-7.44087e-21
-3.96827e-21
-5.35088e-22
-2.05695e-20
1.02724e-20
9.77207e-21
-4.98395e-21
-1.25323e-20
6.77794e-21
-1.62571e-19
-1.15875e-18
2.21548e-19
-4.77531e-20
1.04404e-20
1.46802e-21
3.14266e-21
-8.39103e-21
1.12821e-20
1.75176e-20
-2.38681e-20
-1.72432e-21
1.03069e-20
-5.97276e-21
6.18711e-22
2.35835e-21
4.93679e-21
4.67694e-21
2.5726e-21
-6.76918e-21
1.55867e-19
9.46903e-19
-2.03743e-19
3.59999e-20
-3.56497e-20
1.02306e-20
1.87882e-22
-3.54733e-21
-8.76782e-21
-1.30267e-20
1.96716e-20
-3.02196e-21
-1.09193e-20
1.10571e-20
6.68888e-21
2.02038e-20
-6.18717e-21
-5.85365e-21
-8.23879e-21
-6.7724e-21
-1.76139e-19
-8.48832e-19
1.83576e-19
-4.03856e-20
1.5711e-20
9.48798e-21
-1.01207e-20
-2.52932e-20
-1.45694e-20
1.36173e-20
1.25519e-20
-8.26045e-21
-9.931e-21
1.36208e-20
8.85847e-21
-1.4445e-21
2.00308e-21
-9.37819e-22
7.55917e-21
7.05111e-24
1.69439e-19
6.84195e-19
-1.35966e-19
3.88783e-20
-4.10974e-20
-1.03283e-20
2.62415e-20
7.75703e-21
6.02541e-21
2.77457e-21
-1.89409e-20
-1.88969e-20
1.29893e-20
4.75891e-21
-1.70081e-20
2.33723e-21
-1.19617e-20
1.58214e-20
-5.65502e-21
6.78172e-21
-1.89703e-19
-6.90331e-19
1.59304e-19
-2.20675e-20
-1.18858e-20
5.73825e-21
-1.06115e-21
1.99658e-22
8.28157e-21
-2.54401e-21
-1.95999e-20
1.49556e-20
-3.25647e-21
-2.08081e-21
1.51671e-20
-2.22161e-20
1.24147e-20
-1.3028e-20
8.99118e-21
6.83182e-24
2.30441e-19
4.70265e-19
-9.22427e-20
2.38011e-20
5.27791e-21
6.8747e-21
2.40815e-23
-1.0593e-20
-3.24211e-21
-9.78286e-21
1.75796e-21
2.30171e-20
1.77817e-20
-4.86411e-21
-8.73218e-21
-1.52182e-20
-9.21452e-22
5.02729e-21
3.10392e-21
6.43368e-24
-1.35466e-19
-6.83998e-19
1.3345e-19
-2.77314e-20
8.97482e-21
1.21998e-21
4.20788e-21
-5.36766e-21
1.02133e-20
-3.18064e-21
1.53484e-20
-8.36683e-21
-8.7281e-21
-4.84921e-21
-7.77587e-21
-2.02562e-20
1.15794e-20
1.59594e-20
-2.50959e-20
6.78238e-21
1.4233e-19
-1.69379e-19
4.33727e-19
-1.62636e-19
4.74464e-20
5.35154e-24
7.54526e-24
-6.76971e-21
-1.35458e-20
-1.35461e-20
-2.03225e-20
6.18767e-24
-6.77013e-21
5.968e-24
-6.77065e-21
6.78127e-21
-2.0324e-20
6.782e-21
1.35586e-20
1.69922e-26
)
;

boundaryField
{
    movingWall
    {
        type            zeroGradient;
    }
    fixedWalls
    {
        type            zeroGradient;
    }
    frontAndBack
    {
        type            empty;
    }
}


// ************************************************************************* //
