/*--------------------------------*- C++ -*----------------------------------*\
| =========                 |                                                 |
| \\      /  F ield         | OpenFOAM: The Open Source CFD Toolbox           |
|  \\    /   O peration     | Version:  2312                                  |
|   \\  /    A nd           | Website:  www.openfoam.com                      |
|    \\/     M anipulation  |                                                 |
\*---------------------------------------------------------------------------*/
FoamFile
{
    version     2.0;
    format      ascii;
    arch        "LSB;label=32;scalar=64";
    class       volScalarField;
    location    "5";
    object      initialResidual:k;
}
// * * * * * * * * * * * * * * * * * * * * * * * * * * * * * * * * * * * * * //

dimensions      [0 0 0 0 0 0 0];

internalField   nonuniform List<scalar> 
400
(
-2.03007e-12
-2.0306e-12
-2.03059e-12
-2.03017e-12
-2.03113e-12
-2.02978e-12
-2.03127e-12
-2.02947e-12
-2.03119e-12
-2.02948e-12
-2.03116e-12
-2.02955e-12
-2.03103e-12
-2.02976e-12
-2.03081e-12
-2.03e-12
-2.03056e-12
-2.03025e-12
-2.03036e-12
-2.03035e-12
-2.45107e-12
-2.44727e-12
-2.45258e-12
-2.44833e-12
-2.45165e-12
-2.44735e-12
-2.45041e-12
-2.44691e-12
-2.44969e-12
-2.44666e-12
-2.44909e-12
-2.44696e-12
-2.44826e-12
-2.44736e-12
-2.4484e-12
-2.44674e-12
-2.4484e-12
-2.44635e-12
-2.44716e-12
-2.44713e-12
-2.975e-12
-2.97757e-12
-2.97319e-12
-2.97097e-12
-2.9765e-12
-2.97206e-12
-2.97435e-12
-2.97097e-12
-2.97302e-12
-2.97107e-12
-2.97277e-12
-2.97019e-12
-2.97232e-12
-2.97003e-12
-2.97165e-12
-2.97056e-12
-2.97114e-12
-2.97055e-12
-2.97072e-12
-2.97052e-12
-3.38722e-12
-3.37969e-12
-3.38956e-12
-3.38322e-12
-3.38747e-12
-3.38138e-12
-3.38562e-12
-3.38055e-12
-3.38429e-12
-3.37972e-12
-3.38339e-12
-3.38004e-12
-3.38213e-12
-3.3807e-12
-3.38109e-12
-3.38095e-12
-3.38171e-12
-3.3796e-12
-3.38045e-12
-3.38029e-12
-3.64639e-12
-3.65199e-12
-3.64335e-12
-3.64177e-12
-3.64749e-12
-3.64152e-12
-3.64537e-12
-3.63969e-12
-3.64468e-12
-3.63899e-12
-3.64388e-12
-3.63917e-12
-3.64237e-12
-3.64008e-12
-3.6413e-12
-3.63979e-12
-3.63938e-12
-3.64088e-12
-3.63956e-12
-3.63979e-12
-3.7957e-12
-3.80284e-12
-3.79121e-12
-3.79055e-12
-3.79707e-12
-3.7892e-12
-3.79648e-12
-3.78802e-12
-3.79401e-12
-3.78827e-12
-3.79194e-12
-3.78861e-12
-3.79111e-12
-3.78877e-12
-3.78825e-12
-3.78937e-12
-3.78906e-12
-3.78934e-12
-3.78851e-12
-3.78859e-12
-3.87872e-12
-3.89334e-12
-3.86993e-12
-3.87368e-12
-3.88047e-12
-3.8736e-12
-3.87885e-12
-3.87163e-12
-3.87856e-12
-3.87055e-12
-3.87676e-12
-3.871e-12
-3.87793e-12
-3.86914e-12
-3.87583e-12
-3.8703e-12
-3.87412e-12
-3.87073e-12
-3.87225e-12
-3.8721e-12
-3.92962e-12
-3.93287e-12
-3.92749e-12
-3.92458e-12
-3.93044e-12
-3.92249e-12
-3.92949e-12
-3.92097e-12
-3.92742e-12
-3.92104e-12
-3.92564e-12
-3.9213e-12
-3.92824e-12
-3.91795e-12
-3.92746e-12
-3.91774e-12
-3.92273e-12
-3.92067e-12
-3.92168e-12
-3.92162e-12
-3.96263e-12
-3.96846e-12
-3.95898e-12
-3.95655e-12
-3.96408e-12
-3.95628e-12
-3.96104e-12
-3.95762e-12
-3.95897e-12
-3.95518e-12
-3.9592e-12
-3.95442e-12
-3.95779e-12
-3.95458e-12
-3.95656e-12
-3.95511e-12
-3.95586e-12
-3.95507e-12
-3.9553e-12
-3.95499e-12
-3.98933e-12
-3.9979e-12
-3.98391e-12
-3.98442e-12
-3.99028e-12
-3.98273e-12
-3.98845e-12
-3.981e-12
-3.98784e-12
-3.98018e-12
-3.98645e-12
-3.98079e-12
-3.98554e-12
-3.97997e-12
-3.98635e-12
-3.97899e-12
-3.98358e-12
-3.97999e-12
-3.98163e-12
-3.9815e-12
-4.01349e-12
-4.02158e-12
-4.00813e-12
-4.00649e-12
-4.01574e-12
-4.00851e-12
-4.01202e-12
-4.00718e-12
-4.00994e-12
-4.00677e-12
-4.00959e-12
-4.00559e-12
-4.00867e-12
-4.00527e-12
-4.00768e-12
-4.00586e-12
-4.00691e-12
-4.00595e-12
-4.00618e-12
-4.0059e-12
-4.03848e-12
-4.0448e-12
-4.0332e-12
-4.03898e-12
-4.03347e-12
-4.03435e-12
-4.03649e-12
-4.03122e-12
-4.03685e-12
-4.03085e-12
-4.03501e-12
-4.03072e-12
-4.03285e-12
-4.03098e-12
-4.0322e-12
-4.03072e-12
-4.03111e-12
-4.03075e-12
-4.03077e-12
-4.03071e-12
-4.06533e-12
-4.07224e-12
-4.06062e-12
-4.0595e-12
-4.06609e-12
-4.0599e-12
-4.0637e-12
-4.05942e-12
-4.06236e-12
-4.05829e-12
-4.06127e-12
-4.05693e-12
-4.06046e-12
-4.05656e-12
-4.0595e-12
-4.05729e-12
-4.05872e-12
-4.05749e-12
-4.05764e-12
-4.05747e-12
-4.09514e-12
-4.10268e-12
-4.09042e-12
-4.08898e-12
-4.09669e-12
-4.0892e-12
-4.09394e-12
-4.09019e-12
-4.09175e-12
-4.08799e-12
-4.09162e-12
-4.08611e-12
-4.09065e-12
-4.08651e-12
-4.08913e-12
-4.08769e-12
-4.08826e-12
-4.08748e-12
-4.08767e-12
-4.08736e-12
-4.12926e-12
-4.13914e-12
-4.12331e-12
-4.12175e-12
-4.13163e-12
-4.12299e-12
-4.12779e-12
-4.12375e-12
-4.12625e-12
-4.12194e-12
-4.12573e-12
-4.12092e-12
-4.12442e-12
-4.12091e-12
-4.12313e-12
-4.1218e-12
-4.12274e-12
-4.12113e-12
-4.12183e-12
-4.12147e-12
-4.16759e-12
-4.18834e-12
-4.15331e-12
-4.16296e-12
-4.16923e-12
-4.1659e-12
-4.16585e-12
-4.16568e-12
-4.16303e-12
-4.16206e-12
-4.16364e-12
-4.16612e-12
-4.15943e-12
-4.16086e-12
-4.1622e-12
-4.15927e-12
-4.16259e-12
-4.16099e-12
-4.16124e-12
-4.16089e-12
-4.21462e-12
-4.21369e-12
-4.21478e-12
-4.21243e-12
-4.21263e-12
-4.20819e-12
-4.21298e-12
-4.20713e-12
-4.2116e-12
-4.20589e-12
-4.21044e-12
-4.20518e-12
-4.20898e-12
-4.2052e-12
-4.20774e-12
-4.20602e-12
-4.20696e-12
-4.20601e-12
-4.20613e-12
-4.20588e-12
-4.26198e-12
-4.2757e-12
-4.25351e-12
-4.25661e-12
-4.26283e-12
-4.25584e-12
-4.26159e-12
-4.25331e-12
-4.26148e-12
-4.25218e-12
-4.25963e-12
-4.25277e-12
-4.26037e-12
-4.25037e-12
-4.25864e-12
-4.25121e-12
-4.25628e-12
-4.25213e-12
-4.25397e-12
-4.25384e-12
-4.30636e-12
-4.30095e-12
-4.30787e-12
-4.3005e-12
-4.30702e-12
-4.29837e-12
-4.305e-12
-4.29831e-12
-4.30224e-12
-4.29702e-12
-4.30128e-12
-4.29665e-12
-4.29982e-12
-4.29723e-12
-4.29947e-12
-4.29656e-12
-4.29979e-12
-4.29526e-12
-4.29698e-12
-4.29696e-12
-4.32477e-12
-4.32246e-12
-4.32229e-12
-4.32509e-12
-4.32185e-12
-4.3249e-12
-4.32171e-12
-4.32451e-12
-4.32215e-12
-4.32374e-12
-4.3229e-12
-4.32356e-12
-4.32328e-12
-4.32326e-12
-4.32328e-12
-4.32328e-12
-4.32328e-12
-4.32328e-12
-4.32326e-12
-4.32327e-12
)
;

boundaryField
{
    movingWall
    {
        type            zeroGradient;
    }
    fixedWalls
    {
        type            zeroGradient;
    }
    frontAndBack
    {
        type            empty;
    }
}


// ************************************************************************* //
