/*--------------------------------*- C++ -*----------------------------------*\
| =========                 |                                                 |
| \\      /  F ield         | OpenFOAM: The Open Source CFD Toolbox           |
|  \\    /   O peration     | Version:  2312                                  |
|   \\  /    A nd           | Website:  www.openfoam.com                      |
|    \\/     M anipulation  |                                                 |
\*---------------------------------------------------------------------------*/
FoamFile
{
    version     2.0;
    format      ascii;
    arch        "LSB;label=32;scalar=64";
    class       volScalarField;
    location    "5";
    object      k;
}
// * * * * * * * * * * * * * * * * * * * * * * * * * * * * * * * * * * * * * //

dimensions      [0 2 -2 0 0 0 0];

internalField   nonuniform List<scalar> 
400
(
1.437e-05
1.43699e-05
1.43699e-05
1.43699e-05
1.43699e-05
1.43698e-05
1.43698e-05
1.43698e-05
1.43698e-05
1.43698e-05
1.43698e-05
1.43697e-05
1.43697e-05
1.43697e-05
1.43697e-05
1.43697e-05
1.43697e-05
1.43697e-05
1.43697e-05
1.43697e-05
1.57032e-05
1.57032e-05
1.57013e-05
1.57005e-05
1.56993e-05
1.56986e-05
1.56976e-05
1.56968e-05
1.56961e-05
1.56954e-05
1.56949e-05
1.56942e-05
1.56939e-05
1.56934e-05
1.56931e-05
1.56928e-05
1.56926e-05
1.56925e-05
1.56924e-05
1.56924e-05
1.74694e-05
1.74693e-05
1.7467e-05
1.74661e-05
1.74645e-05
1.74636e-05
1.74623e-05
1.74614e-05
1.74605e-05
1.74597e-05
1.74589e-05
1.74582e-05
1.74577e-05
1.74572e-05
1.74568e-05
1.74564e-05
1.74562e-05
1.7456e-05
1.74559e-05
1.74559e-05
1.89575e-05
1.89574e-05
1.89546e-05
1.89536e-05
1.89517e-05
1.89506e-05
1.89491e-05
1.89481e-05
1.8947e-05
1.89459e-05
1.89452e-05
1.89442e-05
1.89437e-05
1.89429e-05
1.89426e-05
1.89421e-05
1.89419e-05
1.89416e-05
1.89415e-05
1.89415e-05
1.99665e-05
1.99664e-05
1.99634e-05
1.99621e-05
1.996e-05
1.99589e-05
1.99571e-05
1.99561e-05
1.99547e-05
1.99537e-05
1.99527e-05
1.99518e-05
1.99511e-05
1.99503e-05
1.99499e-05
1.99494e-05
1.99491e-05
1.99488e-05
1.99487e-05
1.99487e-05
2.05778e-05
2.05777e-05
2.05744e-05
2.05731e-05
2.05708e-05
2.05696e-05
2.05678e-05
2.05666e-05
2.05652e-05
2.0564e-05
2.05631e-05
2.0562e-05
2.05614e-05
2.05605e-05
2.05601e-05
2.05595e-05
2.05593e-05
2.0559e-05
2.05589e-05
2.05588e-05
2.09326e-05
2.09324e-05
2.09291e-05
2.09277e-05
2.09253e-05
2.09241e-05
2.09221e-05
2.0921e-05
2.09195e-05
2.09184e-05
2.09173e-05
2.09162e-05
2.09155e-05
2.09147e-05
2.09142e-05
2.09136e-05
2.09133e-05
2.09131e-05
2.09129e-05
2.09129e-05
2.11435e-05
2.11434e-05
2.11399e-05
2.11385e-05
2.11361e-05
2.11348e-05
2.11329e-05
2.11317e-05
2.11302e-05
2.1129e-05
2.11279e-05
2.11268e-05
2.11261e-05
2.11253e-05
2.11247e-05
2.11242e-05
2.11238e-05
2.11236e-05
2.11234e-05
2.11234e-05
2.12814e-05
2.12813e-05
2.12778e-05
2.12764e-05
2.1274e-05
2.12727e-05
2.12707e-05
2.12694e-05
2.12679e-05
2.12668e-05
2.12656e-05
2.12646e-05
2.12638e-05
2.1263e-05
2.12624e-05
2.12618e-05
2.12615e-05
2.12612e-05
2.12611e-05
2.1261e-05
2.13861e-05
2.13859e-05
2.13824e-05
2.13809e-05
2.13785e-05
2.13772e-05
2.13752e-05
2.1374e-05
2.13724e-05
2.13712e-05
2.13701e-05
2.1369e-05
2.13683e-05
2.13673e-05
2.13668e-05
2.13663e-05
2.13659e-05
2.13657e-05
2.13655e-05
2.13654e-05
2.14784e-05
2.14783e-05
2.14748e-05
2.14733e-05
2.14708e-05
2.14694e-05
2.14675e-05
2.14662e-05
2.14647e-05
2.14635e-05
2.14623e-05
2.14613e-05
2.14604e-05
2.14596e-05
2.1459e-05
2.14584e-05
2.14581e-05
2.14578e-05
2.14577e-05
2.14576e-05
2.15699e-05
2.15698e-05
2.15662e-05
2.15648e-05
2.15623e-05
2.1561e-05
2.15588e-05
2.15578e-05
2.15559e-05
2.1555e-05
2.15536e-05
2.15527e-05
2.15517e-05
2.1551e-05
2.15503e-05
2.15499e-05
2.15494e-05
2.15492e-05
2.15491e-05
2.1549e-05
2.16673e-05
2.16672e-05
2.16636e-05
2.16621e-05
2.16596e-05
2.16583e-05
2.16562e-05
2.1655e-05
2.16532e-05
2.16522e-05
2.16508e-05
2.165e-05
2.16489e-05
2.16482e-05
2.16475e-05
2.1647e-05
2.16466e-05
2.16464e-05
2.16462e-05
2.16462e-05
2.17751e-05
2.1775e-05
2.17714e-05
2.17699e-05
2.17673e-05
2.1766e-05
2.17639e-05
2.17626e-05
2.17609e-05
2.17598e-05
2.17585e-05
2.17576e-05
2.17566e-05
2.17558e-05
2.17552e-05
2.17546e-05
2.17543e-05
2.1754e-05
2.17538e-05
2.17538e-05
2.18971e-05
2.18969e-05
2.18933e-05
2.18917e-05
2.18892e-05
2.18877e-05
2.18858e-05
2.18843e-05
2.18828e-05
2.18815e-05
2.18803e-05
2.18792e-05
2.18784e-05
2.18775e-05
2.1877e-05
2.18763e-05
2.1876e-05
2.18757e-05
2.18755e-05
2.18755e-05
2.20355e-05
2.20354e-05
2.20317e-05
2.20302e-05
2.20275e-05
2.20262e-05
2.20239e-05
2.20228e-05
2.20209e-05
2.202e-05
2.20184e-05
2.20176e-05
2.20165e-05
2.20159e-05
2.2015e-05
2.20146e-05
2.20141e-05
2.20139e-05
2.20137e-05
2.20137e-05
2.21889e-05
2.21888e-05
2.21849e-05
2.21834e-05
2.21807e-05
2.21794e-05
2.21771e-05
2.21759e-05
2.21741e-05
2.2173e-05
2.21716e-05
2.21706e-05
2.21696e-05
2.21688e-05
2.21682e-05
2.21676e-05
2.21672e-05
2.21669e-05
2.21668e-05
2.21667e-05
2.23459e-05
2.23457e-05
2.23419e-05
2.23403e-05
2.23376e-05
2.23362e-05
2.2334e-05
2.23327e-05
2.23309e-05
2.23297e-05
2.23284e-05
2.23272e-05
2.23264e-05
2.23255e-05
2.23249e-05
2.23243e-05
2.23239e-05
2.23236e-05
2.23234e-05
2.23234e-05
2.24807e-05
2.24807e-05
2.24769e-05
2.24754e-05
2.24728e-05
2.24714e-05
2.24693e-05
2.24678e-05
2.24663e-05
2.24649e-05
2.24638e-05
2.24626e-05
2.24618e-05
2.24608e-05
2.24603e-05
2.24596e-05
2.24592e-05
2.24589e-05
2.24588e-05
2.24587e-05
2.25394e-05
2.25393e-05
2.25392e-05
2.25392e-05
2.25392e-05
2.25391e-05
2.25391e-05
2.25391e-05
2.2539e-05
2.2539e-05
2.2539e-05
2.2539e-05
2.2539e-05
2.2539e-05
2.2539e-05
2.2539e-05
2.2539e-05
2.2539e-05
2.2539e-05
2.2539e-05
)
;

boundaryField
{
    movingWall
    {
        type            kqRWallFunction;
        value           nonuniform List<scalar> 
20
(
2.25394e-05
2.25393e-05
2.25392e-05
2.25392e-05
2.25392e-05
2.25391e-05
2.25391e-05
2.25391e-05
2.2539e-05
2.2539e-05
2.2539e-05
2.2539e-05
2.2539e-05
2.2539e-05
2.2539e-05
2.2539e-05
2.2539e-05
2.2539e-05
2.2539e-05
2.2539e-05
)
;
    }
    fixedWalls
    {
        type            kqRWallFunction;
        value           nonuniform List<scalar> 
60
(
1.437e-05
1.57032e-05
1.74694e-05
1.89575e-05
1.99665e-05
2.05778e-05
2.09326e-05
2.11435e-05
2.12814e-05
2.13861e-05
2.14784e-05
2.15699e-05
2.16673e-05
2.17751e-05
2.18971e-05
2.20355e-05
2.21889e-05
2.23459e-05
2.24807e-05
2.25394e-05
1.43697e-05
1.56924e-05
1.74559e-05
1.89415e-05
1.99487e-05
2.05588e-05
2.09129e-05
2.11234e-05
2.1261e-05
2.13654e-05
2.14576e-05
2.1549e-05
2.16462e-05
2.17538e-05
2.18755e-05
2.20137e-05
2.21667e-05
2.23234e-05
2.24587e-05
2.2539e-05
1.437e-05
1.43699e-05
1.43699e-05
1.43699e-05
1.43699e-05
1.43698e-05
1.43698e-05
1.43698e-05
1.43698e-05
1.43698e-05
1.43698e-05
1.43697e-05
1.43697e-05
1.43697e-05
1.43697e-05
1.43697e-05
1.43697e-05
1.43697e-05
1.43697e-05
1.43697e-05
)
;
    }
    frontAndBack
    {
        type            empty;
    }
}


// ************************************************************************* //
