/*--------------------------------*- C++ -*----------------------------------*\
| =========                 |                                                 |
| \\      /  F ield         | OpenFOAM: The Open Source CFD Toolbox           |
|  \\    /   O peration     | Version:  2312                                  |
|   \\  /    A nd           | Website:  www.openfoam.com                      |
|    \\/     M anipulation  |                                                 |
\*---------------------------------------------------------------------------*/
FoamFile
{
    version     2.0;
    format      ascii;
    arch        "LSB;label=32;scalar=64";
    class       volScalarField;
    location    "5";
    object      k2;
}
// * * * * * * * * * * * * * * * * * * * * * * * * * * * * * * * * * * * * * //

dimensions      [0 4 -4 0 0 0 0];

internalField   nonuniform List<scalar> 
400
(
2.07078e-10
2.07077e-10
2.07076e-10
2.07075e-10
2.07075e-10
2.07074e-10
2.07074e-10
2.07073e-10
2.07073e-10
2.07072e-10
2.07072e-10
2.07072e-10
2.07072e-10
2.07071e-10
2.07071e-10
2.07071e-10
2.07071e-10
2.07071e-10
2.07071e-10
2.07071e-10
2.47357e-10
2.47356e-10
2.47297e-10
2.47274e-10
2.47234e-10
2.47211e-10
2.4718e-10
2.47157e-10
2.47134e-10
2.47112e-10
2.47095e-10
2.47076e-10
2.47064e-10
2.47048e-10
2.4704e-10
2.47029e-10
2.47024e-10
2.47019e-10
2.47017e-10
2.47016e-10
3.06216e-10
3.06214e-10
3.06131e-10
3.06099e-10
3.06043e-10
3.06011e-10
3.05966e-10
3.05937e-10
3.05901e-10
3.05875e-10
3.05847e-10
3.05825e-10
3.05804e-10
3.05786e-10
3.05773e-10
3.0576e-10
3.05752e-10
3.05746e-10
3.05742e-10
3.05741e-10
3.60666e-10
3.60662e-10
3.60557e-10
3.60516e-10
3.60444e-10
3.60403e-10
3.60346e-10
3.60307e-10
3.60263e-10
3.60226e-10
3.60195e-10
3.60161e-10
3.6014e-10
3.60112e-10
3.60099e-10
3.60079e-10
3.60071e-10
3.60062e-10
3.60058e-10
3.60056e-10
4.00114e-10
4.0011e-10
3.99984e-10
3.99936e-10
3.99851e-10
3.99805e-10
3.99735e-10
3.99693e-10
3.99638e-10
3.99598e-10
3.99558e-10
3.99521e-10
3.99495e-10
3.99462e-10
3.99447e-10
3.99424e-10
3.99414e-10
3.99404e-10
3.99399e-10
3.99397e-10
4.25002e-10
4.24998e-10
4.24861e-10
4.24808e-10
4.24714e-10
4.24664e-10
4.24588e-10
4.24538e-10
4.24483e-10
4.24433e-10
4.24395e-10
4.24349e-10
4.24324e-10
4.24287e-10
4.24271e-10
4.24246e-10
4.24235e-10
4.24223e-10
4.24218e-10
4.24216e-10
4.39791e-10
4.39787e-10
4.39641e-10
4.39585e-10
4.39486e-10
4.39435e-10
4.39352e-10
4.39304e-10
4.3924e-10
4.39193e-10
4.39149e-10
4.39103e-10
4.39075e-10
4.39038e-10
4.39019e-10
4.38993e-10
4.38981e-10
4.38969e-10
4.38964e-10
4.38961e-10
4.48704e-10
4.48699e-10
4.4855e-10
4.48491e-10
4.4839e-10
4.48335e-10
4.48253e-10
4.48199e-10
4.48138e-10
4.48085e-10
4.48042e-10
4.47994e-10
4.47965e-10
4.47926e-10
4.47906e-10
4.4788e-10
4.47868e-10
4.47856e-10
4.4785e-10
4.47848e-10
4.5458e-10
4.54576e-10
4.54423e-10
4.54364e-10
4.54262e-10
4.54204e-10
4.54122e-10
4.54067e-10
4.54e-10
4.53954e-10
4.53901e-10
4.53861e-10
4.53823e-10
4.5379e-10
4.53766e-10
4.53742e-10
4.53727e-10
4.53716e-10
4.5371e-10
4.53708e-10
4.59064e-10
4.59059e-10
4.58904e-10
4.58844e-10
4.58737e-10
4.58682e-10
4.58595e-10
4.58543e-10
4.58476e-10
4.58425e-10
4.58377e-10
4.58329e-10
4.58299e-10
4.58259e-10
4.58238e-10
4.58211e-10
4.58198e-10
4.58186e-10
4.5818e-10
4.58177e-10
4.6304e-10
4.63036e-10
4.62879e-10
4.62818e-10
4.62713e-10
4.62653e-10
4.62568e-10
4.62512e-10
4.62445e-10
4.62396e-10
4.62342e-10
4.62301e-10
4.62262e-10
4.62229e-10
4.62202e-10
4.62179e-10
4.62163e-10
4.62152e-10
4.62146e-10
4.62143e-10
4.66999e-10
4.66995e-10
4.66836e-10
4.66775e-10
4.66666e-10
4.66612e-10
4.66517e-10
4.6647e-10
4.66392e-10
4.66349e-10
4.66289e-10
4.66252e-10
4.66208e-10
4.66179e-10
4.66146e-10
4.66128e-10
4.66109e-10
4.661e-10
4.66093e-10
4.6609e-10
4.71229e-10
4.71224e-10
4.71063e-10
4.71001e-10
4.70891e-10
4.70834e-10
4.70742e-10
4.7069e-10
4.70614e-10
4.70569e-10
4.70509e-10
4.70472e-10
4.70427e-10
4.70397e-10
4.70367e-10
4.70345e-10
4.70327e-10
4.70317e-10
4.7031e-10
4.70307e-10
4.75934e-10
4.7593e-10
4.75766e-10
4.75703e-10
4.75592e-10
4.75532e-10
4.75442e-10
4.75385e-10
4.75311e-10
4.75264e-10
4.75204e-10
4.75164e-10
4.75122e-10
4.75088e-10
4.75061e-10
4.75035e-10
4.7502e-10
4.75007e-10
4.75001e-10
4.74998e-10
4.81283e-10
4.81279e-10
4.81112e-10
4.81048e-10
4.80937e-10
4.80873e-10
4.80786e-10
4.80724e-10
4.80653e-10
4.80599e-10
4.80545e-10
4.80498e-10
4.8046e-10
4.80421e-10
4.80397e-10
4.80369e-10
4.80355e-10
4.80341e-10
4.80335e-10
4.80332e-10
4.87395e-10
4.87391e-10
4.87222e-10
4.87158e-10
4.8704e-10
4.86982e-10
4.8688e-10
4.86831e-10
4.86746e-10
4.86705e-10
4.86636e-10
4.86602e-10
4.86549e-10
4.86524e-10
4.86486e-10
4.86468e-10
4.86446e-10
4.86437e-10
4.86429e-10
4.86426e-10
4.9421e-10
4.94205e-10
4.94032e-10
4.93965e-10
4.93846e-10
4.93787e-10
4.93685e-10
4.93632e-10
4.93549e-10
4.93501e-10
4.93438e-10
4.93395e-10
4.9335e-10
4.93315e-10
4.93285e-10
4.9326e-10
4.93242e-10
4.9323e-10
4.93223e-10
4.9322e-10
5.01236e-10
5.01231e-10
5.01054e-10
5.00986e-10
5.00864e-10
5.00803e-10
5.00701e-10
5.00644e-10
5.00565e-10
5.00508e-10
5.00453e-10
5.00398e-10
5.00364e-10
5.00318e-10
5.00295e-10
5.00264e-10
5.00249e-10
5.00235e-10
5.00228e-10
5.00225e-10
5.07312e-10
5.07312e-10
5.07139e-10
5.07071e-10
5.06955e-10
5.06888e-10
5.06796e-10
5.0673e-10
5.06659e-10
5.06599e-10
5.06546e-10
5.06492e-10
5.06455e-10
5.0641e-10
5.06386e-10
5.06355e-10
5.0634e-10
5.06326e-10
5.06319e-10
5.06316e-10
5.09964e-10
5.0996e-10
5.09958e-10
5.09957e-10
5.09954e-10
5.09954e-10
5.09951e-10
5.09951e-10
5.0995e-10
5.09949e-10
5.09948e-10
5.09948e-10
5.09947e-10
5.09947e-10
5.09947e-10
5.09947e-10
5.09947e-10
5.09947e-10
5.09947e-10
5.09947e-10
)
;

boundaryField
{
    movingWall
    {
        type            calculated;
        value           nonuniform List<scalar> 
20
(
5.09964e-10
5.0996e-10
5.09958e-10
5.09957e-10
5.09954e-10
5.09954e-10
5.09951e-10
5.09951e-10
5.0995e-10
5.09949e-10
5.09948e-10
5.09948e-10
5.09947e-10
5.09947e-10
5.09947e-10
5.09947e-10
5.09947e-10
5.09947e-10
5.09947e-10
5.09947e-10
)
;
    }
    fixedWalls
    {
        type            calculated;
        value           nonuniform List<scalar> 
60
(
2.07078e-10
2.47357e-10
3.06216e-10
3.60666e-10
4.00114e-10
4.25002e-10
4.39791e-10
4.48704e-10
4.5458e-10
4.59064e-10
4.6304e-10
4.66999e-10
4.71229e-10
4.75934e-10
4.81283e-10
4.87395e-10
4.9421e-10
5.01236e-10
5.07312e-10
5.09964e-10
2.07071e-10
2.47016e-10
3.05741e-10
3.60056e-10
3.99397e-10
4.24216e-10
4.38961e-10
4.47848e-10
4.53708e-10
4.58177e-10
4.62143e-10
4.6609e-10
4.70307e-10
4.74998e-10
4.80332e-10
4.86426e-10
4.9322e-10
5.00225e-10
5.06316e-10
5.09947e-10
2.07078e-10
2.07077e-10
2.07076e-10
2.07075e-10
2.07075e-10
2.07074e-10
2.07074e-10
2.07073e-10
2.07073e-10
2.07072e-10
2.07072e-10
2.07072e-10
2.07072e-10
2.07071e-10
2.07071e-10
2.07071e-10
2.07071e-10
2.07071e-10
2.07071e-10
2.07071e-10
)
;
    }
    frontAndBack
    {
        type            empty;
    }
}


// ************************************************************************* //
