/*--------------------------------*- C++ -*----------------------------------*\
| =========                 |                                                 |
| \\      /  F ield         | OpenFOAM: The Open Source CFD Toolbox           |
|  \\    /   O peration     | Version:  2312                                  |
|   \\  /    A nd           | Website:  www.openfoam.com                      |
|    \\/     M anipulation  |                                                 |
\*---------------------------------------------------------------------------*/
FoamFile
{
    version     2.0;
    format      ascii;
    arch        "LSB;label=32;scalar=64";
    class       volScalarField;
    location    "5";
    object      kDiff;
}
// * * * * * * * * * * * * * * * * * * * * * * * * * * * * * * * * * * * * * //

dimensions      [0 2 -2 0 0 0 0];

internalField   nonuniform List<scalar> 
400
(
-4.05027e-08
-4.05102e-08
-4.05061e-08
-4.05032e-08
-4.05126e-08
-4.04981e-08
-4.05143e-08
-4.04978e-08
-4.05095e-08
-4.04979e-08
-4.05094e-08
-4.04983e-08
-4.05087e-08
-4.04997e-08
-4.05072e-08
-4.05013e-08
-4.05056e-08
-4.0503e-08
-4.05041e-08
-4.0504e-08
-4.88517e-08
-4.88346e-08
-4.88759e-08
-4.88368e-08
-4.88425e-08
-4.88302e-08
-4.88136e-08
-4.88305e-08
-4.87975e-08
-4.88263e-08
-4.87931e-08
-4.88216e-08
-4.87906e-08
-4.88184e-08
-4.87966e-08
-4.87953e-08
-4.88043e-08
-4.87788e-08
-4.8798e-08
-4.87928e-08
-5.92985e-08
-5.9323e-08
-5.92303e-08
-5.92787e-08
-5.92802e-08
-5.92663e-08
-5.92289e-08
-5.92657e-08
-5.92006e-08
-5.92752e-08
-5.91847e-08
-5.92591e-08
-5.91863e-08
-5.92434e-08
-5.91926e-08
-5.92337e-08
-5.91975e-08
-5.92157e-08
-5.92064e-08
-5.92065e-08
-6.7464e-08
-6.742e-08
-6.75179e-08
-6.74414e-08
-6.74467e-08
-6.74348e-08
-6.73968e-08
-6.74356e-08
-6.7361e-08
-6.74298e-08
-6.73496e-08
-6.74245e-08
-6.73412e-08
-6.74191e-08
-6.73405e-08
-6.74059e-08
-6.73577e-08
-6.73576e-08
-6.73673e-08
-6.73631e-08
-7.26748e-08
-7.27219e-08
-7.25634e-08
-7.2642e-08
-7.26234e-08
-7.26012e-08
-7.25807e-08
-7.2585e-08
-7.25646e-08
-7.25723e-08
-7.25559e-08
-7.25626e-08
-7.25441e-08
-7.25613e-08
-7.25303e-08
-7.25409e-08
-7.25213e-08
-7.2552e-08
-7.25221e-08
-7.25301e-08
-7.5652e-08
-7.57058e-08
-7.551e-08
-7.56177e-08
-7.55929e-08
-7.55611e-08
-7.55803e-08
-7.5534e-08
-7.55409e-08
-7.55395e-08
-7.55045e-08
-7.55455e-08
-7.5489e-08
-7.55266e-08
-7.54645e-08
-7.55394e-08
-7.54805e-08
-7.5514e-08
-7.54872e-08
-7.54936e-08
-7.73284e-08
-7.74338e-08
-7.70884e-08
-7.73136e-08
-7.72423e-08
-7.72388e-08
-7.72242e-08
-7.72065e-08
-7.72223e-08
-7.71708e-08
-7.72173e-08
-7.71664e-08
-7.72261e-08
-7.71154e-08
-7.72204e-08
-7.71212e-08
-7.71915e-08
-7.71284e-08
-7.71686e-08
-7.7157e-08
-7.83046e-08
-7.8342e-08
-7.82113e-08
-7.82732e-08
-7.82419e-08
-7.82192e-08
-7.82271e-08
-7.81821e-08
-7.82081e-08
-7.81706e-08
-7.81963e-08
-7.81698e-08
-7.82172e-08
-7.80926e-08
-7.82245e-08
-7.80707e-08
-7.81817e-08
-7.81182e-08
-7.81526e-08
-7.81432e-08
-7.89711e-08
-7.90191e-08
-7.88408e-08
-7.89296e-08
-7.89142e-08
-7.88874e-08
-7.88684e-08
-7.89151e-08
-7.87977e-08
-7.89032e-08
-7.87962e-08
-7.88754e-08
-7.87888e-08
-7.88609e-08
-7.87879e-08
-7.88476e-08
-7.87946e-08
-7.88219e-08
-7.88076e-08
-7.88076e-08
-7.95105e-08
-7.95807e-08
-7.93429e-08
-7.949e-08
-7.94227e-08
-7.94194e-08
-7.93994e-08
-7.93924e-08
-7.93922e-08
-7.93646e-08
-7.93892e-08
-7.93529e-08
-7.9383e-08
-7.93287e-08
-7.93961e-08
-7.92909e-08
-7.93729e-08
-7.93042e-08
-7.93478e-08
-7.93354e-08
-7.99888e-08
-8.00519e-08
-7.98191e-08
-7.99542e-08
-7.99377e-08
-7.99222e-08
-7.9859e-08
-7.9925e-08
-7.98099e-08
-7.99326e-08
-7.97898e-08
-7.99064e-08
-7.97888e-08
-7.98814e-08
-7.97982e-08
-7.98627e-08
-7.98083e-08
-7.9835e-08
-7.98209e-08
-7.9821e-08
-8.04867e-08
-8.05257e-08
-8.03655e-08
-8.04807e-08
-8.03436e-08
-8.04294e-08
-8.03835e-08
-8.03627e-08
-8.04035e-08
-8.0333e-08
-8.03771e-08
-8.03238e-08
-8.03456e-08
-8.03295e-08
-8.03308e-08
-8.03177e-08
-8.03197e-08
-8.03154e-08
-8.03158e-08
-8.03148e-08
-8.10194e-08
-8.10676e-08
-8.08745e-08
-8.09724e-08
-8.09635e-08
-8.09312e-08
-8.09218e-08
-8.09313e-08
-8.08811e-08
-8.09175e-08
-8.08559e-08
-8.08932e-08
-8.08523e-08
-8.08738e-08
-8.08553e-08
-8.08663e-08
-8.08539e-08
-8.08499e-08
-8.08493e-08
-8.08476e-08
-8.16145e-08
-8.16719e-08
-8.14614e-08
-8.15733e-08
-8.15583e-08
-8.15293e-08
-8.15157e-08
-8.15484e-08
-8.14464e-08
-8.15347e-08
-8.14334e-08
-8.1497e-08
-8.14382e-08
-8.14818e-08
-8.14355e-08
-8.14794e-08
-8.14324e-08
-8.14556e-08
-8.14426e-08
-8.14423e-08
-8.22981e-08
-8.23777e-08
-8.2102e-08
-8.2263e-08
-8.22267e-08
-8.22237e-08
-8.21601e-08
-8.22574e-08
-8.20961e-08
-8.22473e-08
-8.20815e-08
-8.22175e-08
-8.20796e-08
-8.21933e-08
-8.20899e-08
-8.21751e-08
-8.21048e-08
-8.21303e-08
-8.21234e-08
-8.21212e-08
-8.30996e-08
-8.32171e-08
-8.27801e-08
-8.30789e-08
-8.30388e-08
-8.29925e-08
-8.30026e-08
-8.29752e-08
-8.29406e-08
-8.29492e-08
-8.29679e-08
-8.29603e-08
-8.287e-08
-8.29305e-08
-8.29135e-08
-8.28911e-08
-8.29419e-08
-8.2896e-08
-8.29129e-08
-8.29057e-08
-8.39683e-08
-8.39693e-08
-8.39507e-08
-8.39358e-08
-8.38872e-08
-8.38975e-08
-8.38838e-08
-8.38732e-08
-8.38502e-08
-8.38569e-08
-8.38261e-08
-8.38405e-08
-8.38093e-08
-8.38315e-08
-8.38039e-08
-8.3828e-08
-8.38007e-08
-8.38089e-08
-8.38021e-08
-8.38009e-08
-8.49528e-08
-8.50529e-08
-8.47164e-08
-8.49285e-08
-8.48512e-08
-8.48509e-08
-8.4837e-08
-8.48079e-08
-8.48423e-08
-8.47669e-08
-8.4838e-08
-8.47592e-08
-8.48368e-08
-8.47052e-08
-8.48331e-08
-8.47044e-08
-8.4799e-08
-8.47192e-08
-8.47688e-08
-8.4755e-08
-8.57674e-08
-8.5748e-08
-8.57752e-08
-8.57374e-08
-8.57246e-08
-8.57203e-08
-8.56748e-08
-8.57214e-08
-8.56133e-08
-8.57113e-08
-8.5602e-08
-8.56867e-08
-8.56044e-08
-8.56696e-08
-8.56167e-08
-8.56288e-08
-8.56334e-08
-8.55833e-08
-8.56227e-08
-8.56125e-08
-8.6146e-08
-8.61206e-08
-8.61325e-08
-8.61534e-08
-8.61218e-08
-8.61546e-08
-8.61239e-08
-8.61436e-08
-8.6126e-08
-8.61395e-08
-8.61317e-08
-8.61424e-08
-8.61339e-08
-8.61373e-08
-8.61346e-08
-8.61368e-08
-8.61353e-08
-8.61357e-08
-8.61356e-08
-8.61356e-08
)
;

boundaryField
{
    movingWall
    {
        type            calculated;
        value           nonuniform List<scalar> 
20
(
-8.6146e-08
-8.61206e-08
-8.61325e-08
-8.61534e-08
-8.61218e-08
-8.61546e-08
-8.61239e-08
-8.61436e-08
-8.6126e-08
-8.61395e-08
-8.61317e-08
-8.61424e-08
-8.61339e-08
-8.61373e-08
-8.61346e-08
-8.61368e-08
-8.61353e-08
-8.61357e-08
-8.61356e-08
-8.61356e-08
)
;
    }
    fixedWalls
    {
        type            calculated;
        value           nonuniform List<scalar> 
60
(
-4.05027e-08
-4.88517e-08
-5.92985e-08
-6.7464e-08
-7.26748e-08
-7.5652e-08
-7.73284e-08
-7.83046e-08
-7.89711e-08
-7.95105e-08
-7.99888e-08
-8.04867e-08
-8.10194e-08
-8.16145e-08
-8.22981e-08
-8.30996e-08
-8.39683e-08
-8.49528e-08
-8.57674e-08
-8.6146e-08
-4.0504e-08
-4.87928e-08
-5.92065e-08
-6.73631e-08
-7.25301e-08
-7.54936e-08
-7.7157e-08
-7.81432e-08
-7.88076e-08
-7.93354e-08
-7.9821e-08
-8.03148e-08
-8.08476e-08
-8.14423e-08
-8.21212e-08
-8.29057e-08
-8.38009e-08
-8.4755e-08
-8.56125e-08
-8.61356e-08
-4.05027e-08
-4.05102e-08
-4.05061e-08
-4.05032e-08
-4.05126e-08
-4.04981e-08
-4.05143e-08
-4.04978e-08
-4.05095e-08
-4.04979e-08
-4.05094e-08
-4.04983e-08
-4.05087e-08
-4.04997e-08
-4.05072e-08
-4.05013e-08
-4.05056e-08
-4.0503e-08
-4.05041e-08
-4.0504e-08
)
;
    }
    frontAndBack
    {
        type            empty;
    }
}


// ************************************************************************* //
