/*--------------------------------*- C++ -*----------------------------------*\
| =========                 |                                                 |
| \\      /  F ield         | OpenFOAM: The Open Source CFD Toolbox           |
|  \\    /   O peration     | Version:  2312                                  |
|   \\  /    A nd           | Website:  www.openfoam.com                      |
|    \\/     M anipulation  |                                                 |
\*---------------------------------------------------------------------------*/
FoamFile
{
    version     2.0;
    format      ascii;
    arch        "LSB;label=32;scalar=64";
    class       volScalarField;
    location    "5";
    object      kTotal;
}
// * * * * * * * * * * * * * * * * * * * * * * * * * * * * * * * * * * * * * //

dimensions      [0 2 -2 0 0 0 0];

internalField   nonuniform List<scalar> 
400
(
2.87805e-05
2.87804e-05
2.87803e-05
2.87803e-05
2.87802e-05
2.87802e-05
2.87801e-05
2.87801e-05
2.87801e-05
2.878e-05
2.878e-05
2.878e-05
2.878e-05
2.878e-05
2.878e-05
2.878e-05
2.878e-05
2.878e-05
2.878e-05
2.878e-05
3.14552e-05
3.14552e-05
3.14514e-05
3.14499e-05
3.14474e-05
3.14459e-05
3.1444e-05
3.14425e-05
3.1441e-05
3.14396e-05
3.14385e-05
3.14373e-05
3.14366e-05
3.14355e-05
3.14351e-05
3.14344e-05
3.14341e-05
3.14337e-05
3.14336e-05
3.14335e-05
3.49981e-05
3.4998e-05
3.49933e-05
3.49914e-05
3.49882e-05
3.49864e-05
3.49838e-05
3.49822e-05
3.49801e-05
3.49786e-05
3.4977e-05
3.49757e-05
3.49746e-05
3.49735e-05
3.49728e-05
3.4972e-05
3.49716e-05
3.49712e-05
3.4971e-05
3.4971e-05
3.79825e-05
3.79823e-05
3.79767e-05
3.79746e-05
3.79708e-05
3.79686e-05
3.79656e-05
3.79635e-05
3.79613e-05
3.79593e-05
3.79577e-05
3.79559e-05
3.79548e-05
3.79533e-05
3.79526e-05
3.79516e-05
3.79511e-05
3.79507e-05
3.79505e-05
3.79504e-05
4.00057e-05
4.00056e-05
3.99993e-05
3.99969e-05
3.99926e-05
3.99903e-05
3.99868e-05
3.99847e-05
3.9982e-05
3.998e-05
3.9978e-05
3.99761e-05
3.99748e-05
3.99732e-05
3.99724e-05
3.99713e-05
3.99708e-05
3.99702e-05
3.997e-05
3.99699e-05
4.12312e-05
4.1231e-05
4.12244e-05
4.12218e-05
4.12172e-05
4.12148e-05
4.12112e-05
4.12087e-05
4.1206e-05
4.12036e-05
4.12018e-05
4.11996e-05
4.11983e-05
4.11965e-05
4.11957e-05
4.11945e-05
4.1194e-05
4.11934e-05
4.11932e-05
4.11931e-05
4.19424e-05
4.19422e-05
4.19353e-05
4.19327e-05
4.19279e-05
4.19255e-05
4.19215e-05
4.19192e-05
4.19162e-05
4.19139e-05
4.19118e-05
4.19097e-05
4.19083e-05
4.19065e-05
4.19056e-05
4.19044e-05
4.19038e-05
4.19033e-05
4.1903e-05
4.19029e-05
4.23653e-05
4.23651e-05
4.23581e-05
4.23553e-05
4.23505e-05
4.23479e-05
4.2344e-05
4.23415e-05
4.23386e-05
4.23361e-05
4.23341e-05
4.23318e-05
4.23304e-05
4.23286e-05
4.23277e-05
4.23264e-05
4.23258e-05
4.23253e-05
4.2325e-05
4.23249e-05
4.26418e-05
4.26416e-05
4.26345e-05
4.26317e-05
4.26269e-05
4.26242e-05
4.26204e-05
4.26178e-05
4.26146e-05
4.26125e-05
4.261e-05
4.26081e-05
4.26063e-05
4.26048e-05
4.26036e-05
4.26025e-05
4.26018e-05
4.26013e-05
4.2601e-05
4.26009e-05
4.28516e-05
4.28514e-05
4.28442e-05
4.28413e-05
4.28364e-05
4.28338e-05
4.28297e-05
4.28273e-05
4.28242e-05
4.28218e-05
4.28196e-05
4.28173e-05
4.28159e-05
4.2814e-05
4.28131e-05
4.28118e-05
4.28112e-05
4.28106e-05
4.28103e-05
4.28102e-05
4.30368e-05
4.30366e-05
4.30293e-05
4.30265e-05
4.30216e-05
4.30188e-05
4.30149e-05
4.30123e-05
4.30091e-05
4.30069e-05
4.30044e-05
4.30025e-05
4.30006e-05
4.29991e-05
4.29979e-05
4.29968e-05
4.2996e-05
4.29955e-05
4.29952e-05
4.29951e-05
4.32204e-05
4.32202e-05
4.32128e-05
4.321e-05
4.3205e-05
4.32025e-05
4.31981e-05
4.31959e-05
4.31923e-05
4.31903e-05
4.31875e-05
4.31858e-05
4.31838e-05
4.31824e-05
4.31809e-05
4.31801e-05
4.31792e-05
4.31788e-05
4.31784e-05
4.31783e-05
4.34157e-05
4.34155e-05
4.34081e-05
4.34052e-05
4.34001e-05
4.33975e-05
4.33933e-05
4.33909e-05
4.33874e-05
4.33853e-05
4.33825e-05
4.33808e-05
4.33787e-05
4.33773e-05
4.33759e-05
4.3375e-05
4.33741e-05
4.33736e-05
4.33733e-05
4.33732e-05
4.36319e-05
4.36317e-05
4.36242e-05
4.36213e-05
4.36162e-05
4.36135e-05
4.36093e-05
4.36067e-05
4.36033e-05
4.36012e-05
4.35984e-05
4.35966e-05
4.35947e-05
4.35931e-05
4.35919e-05
4.35907e-05
4.359e-05
4.35894e-05
4.35891e-05
4.3589e-05
4.38764e-05
4.38762e-05
4.38686e-05
4.38657e-05
4.38607e-05
4.38577e-05
4.38537e-05
4.38509e-05
4.38477e-05
4.38452e-05
4.38428e-05
4.38406e-05
4.38389e-05
4.38371e-05
4.3836e-05
4.38347e-05
4.38341e-05
4.38335e-05
4.38332e-05
4.38331e-05
4.41541e-05
4.4154e-05
4.41463e-05
4.41434e-05
4.4138e-05
4.41354e-05
4.41308e-05
4.41286e-05
4.41247e-05
4.41229e-05
4.41197e-05
4.41182e-05
4.41158e-05
4.41146e-05
4.41129e-05
4.41121e-05
4.41111e-05
4.41107e-05
4.41104e-05
4.41102e-05
4.44617e-05
4.44615e-05
4.44538e-05
4.44507e-05
4.44454e-05
4.44427e-05
4.44381e-05
4.44357e-05
4.4432e-05
4.44299e-05
4.4427e-05
4.44251e-05
4.4423e-05
4.44215e-05
4.44201e-05
4.4419e-05
4.44182e-05
4.44176e-05
4.44173e-05
4.44172e-05
4.47767e-05
4.47765e-05
4.47685e-05
4.47655e-05
4.47601e-05
4.47573e-05
4.47528e-05
4.47502e-05
4.47467e-05
4.47442e-05
4.47417e-05
4.47392e-05
4.47377e-05
4.47357e-05
4.47346e-05
4.47332e-05
4.47326e-05
4.47319e-05
4.47316e-05
4.47315e-05
4.50473e-05
4.50472e-05
4.50396e-05
4.50366e-05
4.50314e-05
4.50284e-05
4.50244e-05
4.50214e-05
4.50183e-05
4.50156e-05
4.50132e-05
4.50108e-05
4.50092e-05
4.50072e-05
4.50061e-05
4.50047e-05
4.50041e-05
4.50035e-05
4.50032e-05
4.5003e-05
4.51649e-05
4.51647e-05
4.51646e-05
4.51645e-05
4.51644e-05
4.51644e-05
4.51643e-05
4.51643e-05
4.51642e-05
4.51642e-05
4.51642e-05
4.51641e-05
4.51641e-05
4.51641e-05
4.51641e-05
4.51641e-05
4.51641e-05
4.51641e-05
4.51641e-05
4.51641e-05
)
;

boundaryField
{
    movingWall
    {
        type            calculated;
        value           nonuniform List<scalar> 
20
(
4.51649e-05
4.51647e-05
4.51646e-05
4.51645e-05
4.51644e-05
4.51644e-05
4.51643e-05
4.51643e-05
4.51642e-05
4.51642e-05
4.51642e-05
4.51641e-05
4.51641e-05
4.51641e-05
4.51641e-05
4.51641e-05
4.51641e-05
4.51641e-05
4.51641e-05
4.51641e-05
)
;
    }
    fixedWalls
    {
        type            calculated;
        value           nonuniform List<scalar> 
60
(
2.87805e-05
3.14552e-05
3.49981e-05
3.79825e-05
4.00057e-05
4.12312e-05
4.19424e-05
4.23653e-05
4.26418e-05
4.28516e-05
4.30368e-05
4.32204e-05
4.34157e-05
4.36319e-05
4.38764e-05
4.41541e-05
4.44617e-05
4.47767e-05
4.50473e-05
4.51649e-05
2.878e-05
3.14335e-05
3.4971e-05
3.79504e-05
3.99699e-05
4.11931e-05
4.19029e-05
4.23249e-05
4.26009e-05
4.28102e-05
4.29951e-05
4.31783e-05
4.33732e-05
4.3589e-05
4.38331e-05
4.41102e-05
4.44172e-05
4.47315e-05
4.5003e-05
4.51641e-05
2.87805e-05
2.87804e-05
2.87803e-05
2.87803e-05
2.87802e-05
2.87802e-05
2.87801e-05
2.87801e-05
2.87801e-05
2.878e-05
2.878e-05
2.878e-05
2.878e-05
2.878e-05
2.878e-05
2.878e-05
2.878e-05
2.878e-05
2.878e-05
2.878e-05
)
;
    }
    frontAndBack
    {
        type            empty;
    }
}


// ************************************************************************* //
