/*--------------------------------*- C++ -*----------------------------------*\
| =========                 |                                                 |
| \\      /  F ield         | OpenFOAM: The Open Source CFD Toolbox           |
|  \\    /   O peration     | Version:  2312                                  |
|   \\  /    A nd           | Website:  www.openfoam.com                      |
|    \\/     M anipulation  |                                                 |
\*---------------------------------------------------------------------------*/
FoamFile
{
    version     2.0;
    format      ascii;
    arch        "LSB;label=32;scalar=64";
    class       volVectorField;
    location    "5";
    object      kU;
}
// * * * * * * * * * * * * * * * * * * * * * * * * * * * * * * * * * * * * * //

dimensions      [0 3 -3 0 0 0 0];

internalField   nonuniform List<vector> 
400
(
(-1.437e-05 4.23438e-14 0)
(-1.43699e-05 -1.00476e-14 0)
(-1.43699e-05 2.38863e-15 0)
(-1.43699e-05 -5.66259e-16 0)
(-1.43699e-05 1.34961e-16 0)
(-1.43698e-05 -3.18771e-17 0)
(-1.43698e-05 7.68042e-18 0)
(-1.43698e-05 -1.76643e-18 0)
(-1.43698e-05 4.57495e-19 0)
(-1.43698e-05 -8.43084e-20 0)
(-1.43698e-05 3.70898e-20 0)
(-1.43697e-05 2.61934e-21 0)
(-1.43697e-05 6.97771e-21 0)
(-1.43697e-05 3.69377e-21 0)
(-1.43697e-05 3.24046e-21 0)
(-1.43697e-05 1.62608e-21 0)
(-1.43697e-05 1.29611e-21 0)
(-1.43697e-05 1.52544e-21 0)
(-1.43697e-05 1.22919e-21 0)
(-1.43697e-05 1.19662e-21 0)
(-1.57032e-05 -4.63484e-14 0)
(-1.57032e-05 1.10169e-14 0)
(-1.57013e-05 -2.61025e-15 0)
(-1.57005e-05 6.21548e-16 0)
(-1.56993e-05 -1.46519e-16 0)
(-1.56986e-05 3.52599e-17 0)
(-1.56976e-05 -8.07494e-18 0)
(-1.56968e-05 2.08648e-18 0)
(-1.56961e-05 -3.86505e-19 0)
(-1.56954e-05 1.64511e-19 0)
(-1.56949e-05 1.3383e-20 0)
(-1.56942e-05 3.39477e-20 0)
(-1.56939e-05 1.76671e-20 0)
(-1.56934e-05 1.37316e-20 0)
(-1.56931e-05 8.92137e-21 0)
(-1.56928e-05 5.4385e-21 0)
(-1.56926e-05 4.30918e-21 0)
(-1.56925e-05 5.05866e-21 0)
(-1.56924e-05 3.60203e-21 0)
(-1.56924e-05 1.45835e-21 0)
(-1.74694e-05 5.15595e-14 0)
(-1.74693e-05 -1.22462e-14 0)
(-1.7467e-05 2.90809e-15 0)
(-1.74661e-05 -6.89171e-16 0)
(-1.74645e-05 1.64622e-16 0)
(-1.74636e-05 -3.84748e-17 0)
(-1.74623e-05 9.5343e-18 0)
(-1.74614e-05 -2.00943e-18 0)
(-1.74605e-05 6.46434e-19 0)
(-1.74597e-05 -3.89059e-20 0)
(-1.74589e-05 9.14189e-20 0)
(-1.74582e-05 3.86122e-20 0)
(-1.74577e-05 3.45592e-20 0)
(-1.74572e-05 2.26322e-20 0)
(-1.74568e-05 1.66619e-20 0)
(-1.74564e-05 1.12557e-20 0)
(-1.74562e-05 7.76456e-21 0)
(-1.7456e-05 5.11925e-21 0)
(-1.74559e-05 4.2728e-21 0)
(-1.74559e-05 1.1852e-21 0)
(-1.89575e-05 -5.59246e-14 0)
(-1.89574e-05 1.32759e-14 0)
(-1.89546e-05 -3.14939e-15 0)
(-1.89536e-05 7.48198e-16 0)
(-1.89517e-05 -1.76878e-16 0)
(-1.89506e-05 4.25151e-17 0)
(-1.89491e-05 -9.69264e-18 0)
(-1.89481e-05 2.58484e-18 0)
(-1.8947e-05 -4.10668e-19 0)
(-1.89459e-05 2.40495e-19 0)
(-1.89452e-05 4.58943e-20 0)
(-1.89442e-05 6.47107e-20 0)
(-1.89437e-05 4.07699e-20 0)
(-1.89429e-05 3.18159e-20 0)
(-1.89426e-05 2.48615e-20 0)
(-1.89421e-05 1.7419e-20 0)
(-1.89419e-05 1.04437e-20 0)
(-1.89416e-05 5.53684e-21 0)
(-1.89415e-05 4.64632e-21 0)
(-1.89415e-05 2.33557e-21 0)
(-1.99665e-05 5.87643e-14 0)
(-1.99664e-05 -1.39449e-14 0)
(-1.99634e-05 3.30902e-15 0)
(-1.99621e-05 -7.84603e-16 0)
(-1.996e-05 1.86686e-16 0)
(-1.99589e-05 -4.38623e-17 0)
(-1.99571e-05 1.07567e-17 0)
(-1.99561e-05 -2.2826e-18 0)
(-1.99547e-05 7.48702e-19 0)
(-1.99537e-05 -2.11017e-20 0)
(-1.99527e-05 1.20723e-19 0)
(-1.99518e-05 5.46477e-20 0)
(-1.99511e-05 4.90442e-20 0)
(-1.99503e-05 3.52704e-20 0)
(-1.99499e-05 2.78665e-20 0)
(-1.99494e-05 1.97696e-20 0)
(-1.99491e-05 1.37693e-20 0)
(-1.99488e-05 1.02522e-20 0)
(-1.99487e-05 5.68371e-21 0)
(-1.99487e-05 5.00271e-23 0)
(-2.05778e-05 -6.04011e-14 0)
(-2.05777e-05 1.43312e-14 0)
(-2.05744e-05 -3.39956e-15 0)
(-2.05731e-05 8.06908e-16 0)
(-2.05708e-05 -1.91055e-16 0)
(-2.05696e-05 4.56665e-17 0)
(-2.05678e-05 -1.05462e-17 0)
(-2.05666e-05 2.73751e-18 0)
(-2.05652e-05 -4.61255e-19 0)
(-2.0564e-05 2.56326e-19 0)
(-2.05631e-05 5.07655e-20 0)
(-2.0562e-05 7.1652e-20 0)
(-2.05614e-05 4.74747e-20 0)
(-2.05605e-05 3.79542e-20 0)
(-2.05601e-05 2.60953e-20 0)
(-2.05595e-05 1.85307e-20 0)
(-2.05593e-05 1.40566e-20 0)
(-2.0559e-05 9.34615e-21 0)
(-2.05589e-05 3.56736e-21 0)
(-2.05588e-05 -4.33317e-22 0)
(-2.09326e-05 6.12539e-14 0)
(-2.09324e-05 -1.45322e-14 0)
(-2.09291e-05 3.4476e-15 0)
(-2.09277e-05 -8.1764e-16 0)
(-2.09253e-05 1.94227e-16 0)
(-2.09241e-05 -4.58282e-17 0)
(-2.09221e-05 1.10945e-17 0)
(-2.0921e-05 -2.44365e-18 0)
(-2.09195e-05 7.3288e-19 0)
(-2.09184e-05 -5.07765e-20 0)
(-2.09173e-05 1.088e-19 0)
(-2.09162e-05 5.04254e-20 0)
(-2.09155e-05 4.74834e-20 0)
(-2.09147e-05 3.50631e-20 0)
(-2.09142e-05 2.65154e-20 0)
(-2.09136e-05 2.0335e-20 0)
(-2.09133e-05 1.42246e-20 0)
(-2.09131e-05 7.03985e-21 0)
(-2.09129e-05 1.62099e-21 0)
(-2.09129e-05 8.43998e-22 0)
(-2.11435e-05 -6.16876e-14 0)
(-2.11434e-05 1.46346e-14 0)
(-2.11399e-05 -3.47146e-15 0)
(-2.11385e-05 8.23694e-16 0)
(-2.11361e-05 -1.95204e-16 0)
(-2.11348e-05 4.64881e-17 0)
(-2.11329e-05 -1.08636e-17 0)
(-2.11317e-05 2.72286e-18 0)
(-2.11302e-05 -5.23707e-19 0)
(-2.1129e-05 2.23313e-19 0)
(-2.11279e-05 2.56385e-20 0)
(-2.11268e-05 5.76463e-20 0)
(-2.11261e-05 3.68592e-20 0)
(-2.11253e-05 2.91479e-20 0)
(-2.11247e-05 1.98075e-20 0)
(-2.11242e-05 1.50655e-20 0)
(-2.11238e-05 1.21202e-20 0)
(-2.11236e-05 7.74876e-21 0)
(-2.11234e-05 1.98546e-21 0)
(-2.11234e-05 -5.1677e-22 0)
(-2.12814e-05 6.19006e-14 0)
(-2.12813e-05 -1.46847e-14 0)
(-2.12778e-05 3.48353e-15 0)
(-2.12764e-05 -8.26278e-16 0)
(-2.1274e-05 1.96111e-16 0)
(-2.12727e-05 -4.64089e-17 0)
(-2.12707e-05 1.11176e-17 0)
(-2.12694e-05 -2.53974e-18 0)
(-2.12679e-05 6.84934e-19 0)
(-2.12668e-05 -9.23619e-20 0)
(-2.12656e-05 8.12805e-20 0)
(-2.12646e-05 2.81797e-20 0)
(-2.12638e-05 2.98634e-20 0)
(-2.1263e-05 2.04448e-20 0)
(-2.12624e-05 1.53846e-20 0)
(-2.12618e-05 9.02604e-21 0)
(-2.12615e-05 4.83909e-21 0)
(-2.12612e-05 2.32232e-21 0)
(-2.12611e-05 1.42342e-21 0)
(-2.1261e-05 5.11844e-22 0)
(-2.13861e-05 -6.20232e-14 0)
(-2.13859e-05 1.47138e-14 0)
(-2.13824e-05 -3.4903e-15 0)
(-2.13809e-05 8.2803e-16 0)
(-2.13785e-05 -1.96352e-16 0)
(-2.13772e-05 4.66442e-17 0)
(-2.13752e-05 -1.10056e-17 0)
(-2.1374e-05 2.66013e-18 0)
(-2.13724e-05 -5.89642e-19 0)
(-2.13712e-05 1.7525e-19 0)
(-2.13701e-05 -1.06012e-20 0)
(-2.1369e-05 2.60715e-20 0)
(-2.13683e-05 1.02356e-20 0)
(-2.13673e-05 1.30185e-20 0)
(-2.13668e-05 1.35923e-20 0)
(-2.13663e-05 9.94269e-21 0)
(-2.13659e-05 5.13831e-21 0)
(-2.13657e-05 2.0529e-21 0)
(-2.13655e-05 1.28283e-21 0)
(-2.13654e-05 6.07687e-22 0)
(-2.14784e-05 6.21118e-14 0)
(-2.14783e-05 -1.47349e-14 0)
(-2.14748e-05 3.49533e-15 0)
(-2.14733e-05 -8.29174e-16 0)
(-2.14708e-05 1.96689e-16 0)
(-2.14694e-05 -4.66573e-17 0)
(-2.14675e-05 1.10694e-17 0)
(-2.14662e-05 -2.62199e-18 0)
(-2.14647e-05 6.28021e-19 0)
(-2.14635e-05 -1.43203e-19 0)
(-2.14623e-05 4.12898e-20 0)
(-2.14613e-05 -1.05669e-21 0)
(-2.14604e-05 6.48387e-21 0)
(-2.14596e-05 3.53975e-21 0)
(-2.1459e-05 5.27865e-21 0)
(-2.14584e-05 6.81362e-21 0)
(-2.14581e-05 5.29008e-21 0)
(-2.14578e-05 1.98841e-21 0)
(-2.14577e-05 7.74321e-22 0)
(-2.14576e-05 4.70411e-22 0)
(-2.15699e-05 -6.22035e-14 0)
(-2.15698e-05 1.47569e-14 0)
(-2.15662e-05 -3.50058e-15 0)
(-2.15648e-05 8.30383e-16 0)
(-2.15623e-05 -1.97028e-16 0)
(-2.1561e-05 4.66897e-17 0)
(-2.15588e-05 -1.11231e-17 0)
(-2.15578e-05 2.59766e-18 0)
(-2.15559e-05 -6.48557e-19 0)
(-2.1555e-05 1.30757e-19 0)
(-2.15536e-05 -4.52923e-20 0)
(-2.15527e-05 2.99223e-21 0)
(-2.15517e-05 -6.45413e-21 0)
(-2.1551e-05 -3.15099e-21 0)
(-2.15503e-05 -8.49642e-22 0)
(-2.15499e-05 1.8874e-21 0)
(-2.15494e-05 4.01544e-22 0)
(-2.15492e-05 -2.49211e-21 0)
(-2.15491e-05 7.33965e-22 0)
(-2.1549e-05 2.64088e-21 0)
(-2.16673e-05 6.23187e-14 0)
(-2.16672e-05 -1.47845e-14 0)
(-2.16636e-05 3.50703e-15 0)
(-2.16621e-05 -8.32078e-16 0)
(-2.16596e-05 1.9726e-16 0)
(-2.16583e-05 -4.69093e-17 0)
(-2.16562e-05 1.10308e-17 0)
(-2.1655e-05 -2.69638e-18 0)
(-2.16532e-05 5.74425e-19 0)
(-2.16522e-05 -1.88493e-19 0)
(-2.16508e-05 4.42902e-21 0)
(-2.165e-05 -2.99135e-20 0)
(-2.16489e-05 -1.27724e-20 0)
(-2.16482e-05 -1.07776e-20 0)
(-2.16475e-05 -7.42543e-21 0)
(-2.1647e-05 -4.97785e-21 0)
(-2.16466e-05 -2.8954e-21 0)
(-2.16464e-05 -2.24671e-21 0)
(-2.16462e-05 -4.03562e-22 0)
(-2.16462e-05 3.20401e-22 0)
(-2.17751e-05 -6.2465e-14 0)
(-2.1775e-05 1.48195e-14 0)
(-2.17714e-05 -3.51559e-15 0)
(-2.17699e-05 8.33827e-16 0)
(-2.17673e-05 -1.97999e-16 0)
(-2.1766e-05 4.67844e-17 0)
(-2.17639e-05 -1.12602e-17 0)
(-2.17626e-05 2.54278e-18 0)
(-2.17609e-05 -7.00394e-19 0)
(-2.17598e-05 9.34112e-20 0)
(-2.17585e-05 -7.72403e-20 0)
(-2.17576e-05 -2.24331e-20 0)
(-2.17566e-05 -2.40217e-20 0)
(-2.17558e-05 -1.53368e-20 0)
(-2.17552e-05 -1.1313e-20 0)
(-2.17546e-05 -6.41876e-21 0)
(-2.17543e-05 -3.12819e-21 0)
(-2.1754e-05 -2.23788e-21 0)
(-2.17538e-05 -3.05923e-21 0)
(-2.17538e-05 -2.13658e-21 0)
(-2.18971e-05 6.26613e-14 0)
(-2.18969e-05 -1.48665e-14 0)
(-2.18933e-05 3.52635e-15 0)
(-2.18917e-05 -8.36875e-16 0)
(-2.18892e-05 1.98222e-16 0)
(-2.18877e-05 -4.72961e-17 0)
(-2.18858e-05 1.09949e-17 0)
(-2.18843e-05 -2.78535e-18 0)
(-2.18828e-05 5.29195e-19 0)
(-2.18815e-05 -2.22851e-19 0)
(-2.18803e-05 -2.04405e-20 0)
(-2.18792e-05 -4.95476e-20 0)
(-2.18784e-05 -2.76763e-20 0)
(-2.18775e-05 -2.12057e-20 0)
(-2.1877e-05 -1.29204e-20 0)
(-2.18763e-05 -1.03799e-20 0)
(-2.1876e-05 -6.3443e-21 0)
(-2.18757e-05 -2.13295e-21 0)
(-2.18755e-05 -1.77995e-21 0)
(-2.18755e-05 -8.28045e-22 0)
(-2.20355e-05 -6.28978e-14 0)
(-2.20354e-05 1.49229e-14 0)
(-2.20317e-05 -3.54046e-15 0)
(-2.20302e-05 8.39479e-16 0)
(-2.20275e-05 -1.99589e-16 0)
(-2.20262e-05 4.69846e-17 0)
(-2.20239e-05 -1.14351e-17 0)
(-2.20228e-05 2.49431e-18 0)
(-2.20209e-05 -7.54049e-19 0)
(-2.202e-05 6.08182e-20 0)
(-2.20184e-05 -1.00976e-19 0)
(-2.20176e-05 -3.89638e-20 0)
(-2.20165e-05 -3.49951e-20 0)
(-2.20159e-05 -2.29099e-20 0)
(-2.2015e-05 -1.62081e-20 0)
(-2.20146e-05 -1.2387e-20 0)
(-2.20141e-05 -9.29544e-21 0)
(-2.20139e-05 -4.75721e-21 0)
(-2.20137e-05 -1.62657e-21 0)
(-2.20137e-05 -1.01919e-21 0)
(-2.21889e-05 6.31886e-14 0)
(-2.21888e-05 -1.49927e-14 0)
(-2.21849e-05 3.5558e-15 0)
(-2.21834e-05 -8.44317e-16 0)
(-2.21807e-05 1.9965e-16 0)
(-2.21794e-05 -4.7849e-17 0)
(-2.21771e-05 1.0997e-17 0)
(-2.21759e-05 -2.86004e-18 0)
(-2.21741e-05 5.00643e-19 0)
(-2.2173e-05 -2.41499e-19 0)
(-2.21716e-05 -2.65948e-20 0)
(-2.21706e-05 -5.25082e-20 0)
(-2.21696e-05 -2.7749e-20 0)
(-2.21688e-05 -2.30199e-20 0)
(-2.21682e-05 -1.83856e-20 0)
(-2.21676e-05 -1.21818e-20 0)
(-2.21672e-05 -1.00156e-20 0)
(-2.21669e-05 -5.545e-21 0)
(-2.21668e-05 -4.35274e-22 0)
(-2.21667e-05 -3.76003e-22 0)
(-2.23459e-05 -6.34696e-14 0)
(-2.23457e-05 1.50594e-14 0)
(-2.23419e-05 -3.57427e-15 0)
(-2.23403e-05 8.46728e-16 0)
(-2.23376e-05 -2.01841e-16 0)
(-2.23362e-05 4.72998e-17 0)
(-2.2334e-05 -1.16062e-17 0)
(-2.23327e-05 2.50712e-18 0)
(-2.23309e-05 -7.60781e-19 0)
(-2.23297e-05 7.04704e-20 0)
(-2.23284e-05 -9.03457e-20 0)
(-2.23272e-05 -2.9478e-20 0)
(-2.23264e-05 -2.7966e-20 0)
(-2.23255e-05 -1.67992e-20 0)
(-2.23249e-05 -1.50018e-20 0)
(-2.23243e-05 -1.08569e-20 0)
(-2.23239e-05 -7.12984e-21 0)
(-2.23236e-05 -4.13254e-21 0)
(-2.23234e-05 -1.87351e-21 0)
(-2.23234e-05 -7.65295e-22 0)
(-2.24807e-05 6.37184e-14 0)
(-2.24807e-05 -1.51217e-14 0)
(-2.24769e-05 3.58174e-15 0)
(-2.24754e-05 -8.51364e-16 0)
(-2.24728e-05 2.0072e-16 0)
(-2.24714e-05 -4.81175e-17 0)
(-2.24693e-05 1.10837e-17 0)
(-2.24678e-05 -2.81151e-18 0)
(-2.24663e-05 5.45738e-19 0)
(-2.24649e-05 -2.05673e-19 0)
(-2.24638e-05 -3.72957e-21 0)
(-2.24626e-05 -3.40425e-20 0)
(-2.24618e-05 -1.46591e-20 0)
(-2.24608e-05 -1.08289e-20 0)
(-2.24603e-05 -8.71411e-21 0)
(-2.24596e-05 -6.18227e-21 0)
(-2.24592e-05 -1.91911e-21 0)
(-2.24589e-05 -3.16252e-21 0)
(-2.24588e-05 -3.64041e-21 0)
(-2.24587e-05 -1.77359e-21 0)
(-2.25394e-05 -6.37273e-14 0)
(-2.25393e-05 1.51059e-14 0)
(-2.25392e-05 -3.58816e-15 0)
(-2.25392e-05 8.5027e-16 0)
(-2.25392e-05 -2.02294e-16 0)
(-2.25391e-05 4.78051e-17 0)
(-2.25391e-05 -1.14735e-17 0)
(-2.25391e-05 2.65525e-18 0)
(-2.2539e-05 -6.73848e-19 0)
(-2.2539e-05 1.33341e-19 0)
(-2.2539e-05 -4.99885e-20 0)
(-2.2539e-05 9.66409e-22 0)
(-2.2539e-05 -5.9883e-21 0)
(-2.2539e-05 -3.79605e-21 0)
(-2.2539e-05 -4.33992e-21 0)
(-2.2539e-05 -2.85704e-21 0)
(-2.2539e-05 -1.01049e-21 0)
(-2.2539e-05 -1.18573e-21 0)
(-2.2539e-05 -5.31659e-22 0)
(-2.2539e-05 -4.80392e-22 0)
)
;

boundaryField
{
    movingWall
    {
        type            calculated;
        value           nonuniform List<vector> 
20
(
(-2.25394e-05 -0 -0)
(-2.25393e-05 -0 -0)
(-2.25392e-05 -0 -0)
(-2.25392e-05 -0 -0)
(-2.25392e-05 -0 -0)
(-2.25391e-05 -0 -0)
(-2.25391e-05 -0 -0)
(-2.25391e-05 -0 -0)
(-2.2539e-05 -0 -0)
(-2.2539e-05 -0 -0)
(-2.2539e-05 -0 -0)
(-2.2539e-05 -0 -0)
(-2.2539e-05 -0 -0)
(-2.2539e-05 -0 -0)
(-2.2539e-05 -0 -0)
(-2.2539e-05 -0 -0)
(-2.2539e-05 -0 -0)
(-2.2539e-05 -0 -0)
(-2.2539e-05 -0 -0)
(-2.2539e-05 -0 -0)
)
;
    }
    fixedWalls
    {
        type            calculated;
        value           nonuniform List<vector> 
60
(
(-1.437e-05 -0 -0)
(-1.57032e-05 -0 -0)
(-1.74694e-05 -0 -0)
(-1.89575e-05 -0 -0)
(-1.99665e-05 -0 -0)
(-2.05778e-05 -0 -0)
(-2.09326e-05 -0 -0)
(-2.11435e-05 -0 -0)
(-2.12814e-05 -0 -0)
(-2.13861e-05 -0 -0)
(-2.14784e-05 -0 -0)
(-2.15699e-05 -0 -0)
(-2.16673e-05 -0 -0)
(-2.17751e-05 -0 -0)
(-2.18971e-05 -0 -0)
(-2.20355e-05 -0 -0)
(-2.21889e-05 -0 -0)
(-2.23459e-05 -0 -0)
(-2.24807e-05 -0 -0)
(-2.25394e-05 -0 -0)
(-1.43697e-05 -0 -0)
(-1.56924e-05 -0 -0)
(-1.74559e-05 -0 -0)
(-1.89415e-05 -0 -0)
(-1.99487e-05 -0 -0)
(-2.05588e-05 -0 -0)
(-2.09129e-05 -0 -0)
(-2.11234e-05 -0 -0)
(-2.1261e-05 -0 -0)
(-2.13654e-05 -0 -0)
(-2.14576e-05 -0 -0)
(-2.1549e-05 -0 -0)
(-2.16462e-05 -0 -0)
(-2.17538e-05 -0 -0)
(-2.18755e-05 -0 -0)
(-2.20137e-05 -0 -0)
(-2.21667e-05 -0 -0)
(-2.23234e-05 -0 -0)
(-2.24587e-05 -0 -0)
(-2.2539e-05 -0 -0)
(-1.437e-05 -0 -0)
(-1.43699e-05 -0 -0)
(-1.43699e-05 -0 -0)
(-1.43699e-05 -0 -0)
(-1.43699e-05 -0 -0)
(-1.43698e-05 -0 -0)
(-1.43698e-05 -0 -0)
(-1.43698e-05 -0 -0)
(-1.43698e-05 -0 -0)
(-1.43698e-05 -0 -0)
(-1.43698e-05 -0 -0)
(-1.43697e-05 -0 -0)
(-1.43697e-05 -0 -0)
(-1.43697e-05 -0 -0)
(-1.43697e-05 -0 -0)
(-1.43697e-05 -0 -0)
(-1.43697e-05 -0 -0)
(-1.43697e-05 -0 -0)
(-1.43697e-05 -0 -0)
(-1.43697e-05 -0 -0)
)
;
    }
    frontAndBack
    {
        type            empty;
    }
}


// ************************************************************************* //
