/*--------------------------------*- C++ -*----------------------------------*\
| =========                 |                                                 |
| \\      /  F ield         | OpenFOAM: The Open Source CFD Toolbox           |
|  \\    /   O peration     | Version:  2312                                  |
|   \\  /    A nd           | Website:  www.openfoam.com                      |
|    \\/     M anipulation  |                                                 |
\*---------------------------------------------------------------------------*/
FoamFile
{
    version     2.0;
    format      ascii;
    arch        "LSB;label=32;scalar=64";
    class       volTensorField;
    location    "5";
    object      kU2;
}
// * * * * * * * * * * * * * * * * * * * * * * * * * * * * * * * * * * * * * //

dimensions      [0 4 -4 0 0 0 0];

internalField   nonuniform List<tensor> 
400
(
(1.437e-05 -4.29811e-14 -0 -4.23438e-14 1.26652e-22 0 -0 0 0)
(1.43699e-05 1.01989e-14 -0 1.00476e-14 7.13115e-24 -0 -0 -0 0)
(1.43699e-05 -2.4246e-15 -0 -2.38863e-15 4.03029e-25 0 -0 0 0)
(1.43699e-05 5.74789e-16 -0 5.66259e-16 2.26501e-26 -0 -0 -0 0)
(1.43699e-05 -1.36993e-16 -0 -1.34961e-16 1.28663e-27 0 -0 0 0)
(1.43698e-05 3.2359e-17 -0 3.18771e-17 7.17831e-29 -0 -0 -0 0)
(1.43698e-05 -7.79448e-18 -0 -7.68042e-18 4.16602e-30 0 -0 0 0)
(1.43698e-05 1.79353e-18 -0 1.76643e-18 2.20472e-31 -0 -0 -0 0)
(1.43698e-05 -4.64749e-19 -0 -4.57495e-19 1.47963e-32 0 -0 0 0)
(1.43698e-05 8.56085e-20 -0 8.43084e-20 5.02271e-34 -0 -0 -0 0)
(1.43698e-05 -3.77447e-20 -0 -3.70898e-20 9.74228e-35 0 -0 0 0)
(1.43697e-05 -2.23723e-21 -0 -2.61934e-21 4.07805e-37 0 -0 0 0)
(1.43697e-05 -6.97794e-21 -0 -6.97771e-21 3.38837e-36 0 -0 0 0)
(1.43697e-05 -3.72429e-21 -0 -3.69377e-21 9.57338e-37 0 -0 0 0)
(1.43697e-05 -3.56812e-21 -0 -3.24046e-21 8.04631e-37 0 -0 0 0)
(1.43697e-05 -2.08489e-21 -0 -1.62608e-21 2.35926e-37 0 -0 0 0)
(1.43697e-05 -1.18739e-21 -0 -1.29611e-21 1.07099e-37 0 -0 0 0)
(1.43697e-05 -1.31973e-21 -0 -1.52544e-21 1.40098e-37 0 -0 0 0)
(1.43697e-05 -1.39964e-21 -0 -1.22919e-21 1.19725e-37 0 -0 0 0)
(1.43697e-05 -9.20738e-22 -0 -1.19662e-21 7.6673e-38 0 -0 0 0)
(1.57032e-05 4.70452e-14 -0 4.63484e-14 1.38856e-22 -0 -0 -0 0)
(1.57032e-05 -1.11825e-14 -0 -1.10169e-14 7.84529e-24 0 -0 0 0)
(1.57013e-05 2.64949e-15 -0 2.61025e-15 4.40464e-25 -0 -0 -0 0)
(1.57005e-05 -6.30887e-16 -0 -6.21548e-16 2.49754e-26 0 -0 0 0)
(1.56993e-05 1.48722e-16 -0 1.46519e-16 1.388e-27 -0 -0 -0 0)
(1.56986e-05 -3.57889e-17 -0 -3.52599e-17 8.0384e-29 0 -0 0 0)
(1.56976e-05 8.19791e-18 -0 8.07494e-18 4.21706e-30 -0 -0 -0 0)
(1.56968e-05 -2.11665e-18 -0 -2.08648e-18 2.81353e-31 0 -0 0 0)
(1.56961e-05 3.92575e-19 -0 3.86505e-19 9.66689e-33 -0 -0 -0 0)
(1.56954e-05 -1.65402e-19 -0 -1.64511e-19 1.73365e-33 0 -0 0 0)
(1.56949e-05 -1.23748e-20 -0 -1.3383e-20 1.0552e-35 0 -0 0 0)
(1.56942e-05 -3.37907e-20 -0 -3.39477e-20 7.30914e-35 0 -0 0 0)
(1.56939e-05 -1.75253e-20 -0 -1.76671e-20 1.97288e-35 0 -0 0 0)
(1.56934e-05 -1.42848e-20 -0 -1.37316e-20 1.24992e-35 0 -0 0 0)
(1.56931e-05 -9.97337e-21 -0 -8.92137e-21 5.66975e-36 0 -0 0 0)
(1.56928e-05 -5.64249e-21 -0 -5.4385e-21 1.95546e-36 0 -0 0 0)
(1.56926e-05 -4.03502e-21 -0 -4.30918e-21 1.10801e-36 0 -0 0 0)
(1.56925e-05 -4.41871e-21 -0 -5.05866e-21 1.42442e-36 0 -0 0 0)
(1.56924e-05 -3.19148e-21 -0 -3.60203e-21 7.3257e-37 0 -0 0 0)
(1.56924e-05 -1.14786e-21 -0 -1.45835e-21 1.06675e-37 0 -0 0 0)
(1.74694e-05 -5.23336e-14 -0 -5.15595e-14 1.54459e-22 0 -0 0 0)
(1.74693e-05 1.24301e-14 -0 1.22462e-14 8.71362e-24 -0 -0 -0 0)
(1.7467e-05 -2.95173e-15 -0 -2.90809e-15 4.91435e-25 0 -0 0 0)
(1.74661e-05 6.99517e-16 -0 6.89171e-16 2.76014e-26 -0 -0 -0 0)
(1.74645e-05 -1.67091e-16 -0 -1.64622e-16 1.57501e-27 0 -0 0 0)
(1.74636e-05 3.90524e-17 -0 3.84748e-17 8.6038e-29 -0 -0 -0 0)
(1.74623e-05 -9.67566e-18 -0 -9.5343e-18 5.28284e-30 0 -0 0 0)
(1.74614e-05 2.04161e-18 -0 2.00943e-18 2.34945e-31 -0 -0 -0 0)
(1.74605e-05 -6.55395e-19 -0 -6.46434e-19 2.42645e-32 0 -0 0 0)
(1.74597e-05 4.05188e-20 -0 3.89059e-20 9.02893e-35 -0 -0 -0 0)
(1.74589e-05 -9.09238e-20 -0 -9.14189e-20 4.76098e-34 0 -0 0 0)
(1.74582e-05 -3.79867e-20 -0 -3.86122e-20 8.40146e-35 0 -0 0 0)
(1.74577e-05 -3.4483e-20 -0 -3.45592e-20 6.82625e-35 0 -0 0 0)
(1.74572e-05 -2.36202e-20 -0 -2.26322e-20 3.06223e-35 0 -0 0 0)
(1.74568e-05 -1.70311e-20 -0 -1.66619e-20 1.62555e-35 0 -0 0 0)
(1.74564e-05 -1.03351e-20 -0 -1.12557e-20 6.66398e-36 0 -0 0 0)
(1.74562e-05 -7.37219e-21 -0 -7.76456e-21 3.27917e-36 0 -0 0 0)
(1.7456e-05 -5.22504e-21 -0 -5.11925e-21 1.53233e-36 0 -0 0 0)
(1.74559e-05 -2.85934e-21 -0 -4.2728e-21 6.99899e-37 0 -0 0 0)
(1.74559e-05 -1.00129e-21 -0 -1.1852e-21 6.79841e-38 0 -0 0 0)
(1.89575e-05 5.67623e-14 -0 5.59246e-14 1.67449e-22 -0 -0 -0 0)
(1.89574e-05 -1.34747e-14 -0 -1.32759e-14 9.43636e-24 0 -0 0 0)
(1.89546e-05 3.19654e-15 -0 3.14939e-15 5.31119e-25 -0 -0 -0 0)
(1.89536e-05 -7.59395e-16 -0 -7.48198e-16 2.99774e-26 0 -0 0 0)
(1.89517e-05 1.79526e-16 -0 1.76878e-16 1.67554e-27 -0 -0 -0 0)
(1.89506e-05 -4.31487e-17 -0 -4.25151e-17 9.6803e-29 0 -0 0 0)
(1.89491e-05 9.84016e-18 -0 9.69264e-18 5.03333e-30 -0 -0 -0 0)
(1.89481e-05 -2.62096e-18 -0 -2.58484e-18 3.57544e-31 0 -0 0 0)
(1.8947e-05 4.18515e-19 -0 4.10668e-19 9.07116e-33 -0 -0 -0 0)
(1.89459e-05 -2.44045e-19 -0 -2.40495e-19 3.09785e-33 0 -0 0 0)
(1.89452e-05 -4.60453e-20 -0 -4.58943e-20 1.11544e-34 0 -0 0 0)
(1.89442e-05 -6.59443e-20 -0 -6.47107e-20 2.25256e-34 0 -0 0 0)
(1.89437e-05 -4.18296e-20 -0 -4.07699e-20 9.00239e-35 0 -0 0 0)
(1.89429e-05 -3.14662e-20 -0 -3.18159e-20 5.28496e-35 0 -0 0 0)
(1.89426e-05 -2.35674e-20 -0 -2.48615e-20 3.09313e-35 0 -0 0 0)
(1.89421e-05 -1.72988e-20 -0 -1.7419e-20 1.59079e-35 0 -0 0 0)
(1.89419e-05 -1.0049e-20 -0 -1.04437e-20 5.54057e-36 0 -0 0 0)
(1.89416e-05 -4.49857e-21 -0 -5.53684e-21 1.31498e-36 0 -0 0 0)
(1.89415e-05 -3.60314e-21 -0 -4.64632e-21 8.83842e-37 0 -0 0 0)
(1.89415e-05 -3.55475e-21 -0 -2.33557e-21 4.38316e-37 0 -0 0 0)
(1.99665e-05 -5.96435e-14 -0 -5.87643e-14 1.75539e-22 0 -0 0 0)
(1.99664e-05 1.41535e-14 -0 1.39449e-14 9.8851e-24 -0 -0 -0 0)
(1.99634e-05 -3.35851e-15 -0 -3.30902e-15 5.56689e-25 0 -0 0 0)
(1.99621e-05 7.96337e-16 -0 7.84603e-16 3.12997e-26 -0 -0 -0 0)
(1.996e-05 -1.89475e-16 -0 -1.86686e-16 1.77216e-27 0 -0 0 0)
(1.99589e-05 4.45216e-17 -0 4.38623e-17 9.78423e-29 -0 -0 -0 0)
(1.99571e-05 -1.09139e-17 -0 -1.07567e-17 5.88245e-30 0 -0 0 0)
(1.99561e-05 2.31999e-18 -0 2.2826e-18 2.65364e-31 -0 -0 -0 0)
(1.99547e-05 -7.5584e-19 -0 -7.48702e-19 2.83592e-32 0 -0 0 0)
(1.99537e-05 2.205e-20 -0 2.11017e-20 2.33186e-35 -0 -0 -0 0)
(1.99527e-05 -1.24886e-19 -0 -1.20723e-19 7.55619e-34 0 -0 0 0)
(1.99518e-05 -5.90361e-20 -0 -5.46477e-20 1.617e-34 0 -0 0 0)
(1.99511e-05 -5.04858e-20 -0 -4.90442e-20 1.24105e-34 0 -0 0 0)
(1.99503e-05 -3.48873e-20 -0 -3.52704e-20 6.16776e-35 0 -0 0 0)
(1.99499e-05 -2.67131e-20 -0 -2.78665e-20 3.73135e-35 0 -0 0 0)
(1.99494e-05 -1.97929e-20 -0 -1.97696e-20 1.96146e-35 0 -0 0 0)
(1.99491e-05 -1.29825e-20 -0 -1.37693e-20 8.96081e-36 0 -0 0 0)
(1.99488e-05 -8.72222e-21 -0 -1.02522e-20 4.48257e-36 0 -0 0 0)
(1.99487e-05 -5.44417e-21 -0 -5.68371e-21 1.55113e-36 0 -0 0 0)
(1.99487e-05 -2.05618e-21 -0 -5.00271e-23 5.15646e-39 0 -0 0 0)
(2.05778e-05 6.13045e-14 -0 6.04011e-14 1.79944e-22 -0 -0 -0 0)
(2.05777e-05 -1.45456e-14 -0 -1.43312e-14 1.01302e-23 0 -0 0 0)
(2.05744e-05 3.45039e-15 -0 3.39956e-15 5.70115e-25 -0 -0 -0 0)
(2.05731e-05 -8.18969e-16 -0 -8.06908e-16 3.21212e-26 0 -0 0 0)
(2.05708e-05 1.93914e-16 -0 1.91055e-16 1.80101e-27 -0 -0 -0 0)
(2.05696e-05 -4.63443e-17 -0 -4.56665e-17 1.02889e-28 0 -0 0 0)
(2.05678e-05 1.0708e-17 -0 1.05462e-17 5.49061e-30 -0 -0 -0 0)
(2.05666e-05 -2.77616e-18 -0 -2.73751e-18 3.69519e-31 0 -0 0 0)
(2.05652e-05 4.71138e-19 -0 4.61255e-19 1.05671e-32 -0 -0 -0 0)
(2.0564e-05 -2.59406e-19 -0 -2.56326e-19 3.23344e-33 0 -0 0 0)
(2.05631e-05 -5.38672e-20 -0 -5.07655e-20 1.32985e-34 0 -0 0 0)
(2.0562e-05 -7.39995e-20 -0 -7.1652e-20 2.57865e-34 0 -0 0 0)
(2.05614e-05 -4.61208e-20 -0 -4.74747e-20 1.06489e-34 0 -0 0 0)
(2.05605e-05 -3.84934e-20 -0 -3.79542e-20 7.10579e-35 0 -0 0 0)
(2.05601e-05 -2.73749e-20 -0 -2.60953e-20 3.47448e-35 0 -0 0 0)
(2.05595e-05 -1.88032e-20 -0 -1.85307e-20 1.69477e-35 0 -0 0 0)
(2.05593e-05 -1.38777e-20 -0 -1.40566e-20 9.48833e-36 0 -0 0 0)
(2.0559e-05 -1.0433e-20 -0 -9.34615e-21 4.74287e-36 0 -0 0 0)
(2.05589e-05 -3.14759e-21 -0 -3.56736e-21 5.46169e-37 0 -0 0 0)
(2.05588e-05 3.89069e-22 -0 4.33317e-22 8.20041e-39 -0 -0 -0 0)
(2.09326e-05 -6.21701e-14 -0 -6.12539e-14 1.81925e-22 0 -0 0 0)
(2.09324e-05 1.47495e-14 -0 1.45322e-14 1.02398e-23 -0 -0 -0 0)
(2.09291e-05 -3.49915e-15 -0 -3.4476e-15 5.76406e-25 0 -0 0 0)
(2.09277e-05 8.29866e-16 -0 8.1764e-16 3.24227e-26 -0 -0 -0 0)
(2.09253e-05 -1.97128e-16 -0 -1.94227e-16 1.82973e-27 0 -0 0 0)
(2.09241e-05 4.65151e-17 -0 4.58282e-17 1.01878e-28 -0 -0 -0 0)
(2.09221e-05 -1.12597e-17 -0 -1.10945e-17 5.97073e-30 0 -0 0 0)
(2.0921e-05 2.4805e-18 -0 2.44365e-18 2.89731e-31 -0 -0 -0 0)
(2.09195e-05 -7.44504e-19 -0 -7.3288e-19 2.60825e-32 0 -0 0 0)
(2.09184e-05 5.33197e-20 -0 5.07765e-20 1.29426e-34 -0 -0 -0 0)
(2.09173e-05 -1.09446e-19 -0 -1.088e-19 5.69274e-34 0 -0 0 0)
(2.09162e-05 -4.99351e-20 -0 -5.04254e-20 1.20385e-34 0 -0 0 0)
(2.09155e-05 -4.76148e-20 -0 -4.74834e-20 1.08097e-34 0 -0 0 0)
(2.09147e-05 -3.53384e-20 -0 -3.50631e-20 5.92442e-35 0 -0 0 0)
(2.09142e-05 -2.7087e-20 -0 -2.65154e-20 3.43414e-35 0 -0 0 0)
(2.09136e-05 -2.0766e-20 -0 -2.0335e-20 2.01914e-35 0 -0 0 0)
(2.09133e-05 -1.45261e-20 -0 -1.42246e-20 9.88023e-36 0 -0 0 0)
(2.09131e-05 -8.99031e-21 -0 -7.03985e-21 3.02636e-36 0 -0 0 0)
(2.09129e-05 -2.15464e-21 -0 -1.62099e-21 1.67009e-37 0 -0 0 0)
(2.09129e-05 -9.793e-22 -0 -8.43998e-22 3.95224e-38 0 -0 0 0)
(2.11435e-05 6.26103e-14 -0 6.16876e-14 1.8267e-22 -0 -0 -0 0)
(2.11434e-05 -1.48534e-14 -0 -1.46346e-14 1.02809e-23 0 -0 0 0)
(2.11399e-05 3.52338e-15 -0 3.47146e-15 5.78587e-25 -0 -0 -0 0)
(2.11385e-05 -8.36007e-16 -0 -8.23694e-16 3.25763e-26 0 -0 0 0)
(2.11361e-05 1.98123e-16 -0 1.95204e-16 1.82978e-27 -0 -0 -0 0)
(2.11348e-05 -4.7183e-17 -0 -4.64881e-17 1.03784e-28 0 -0 0 0)
(2.11329e-05 1.1027e-17 -0 1.08636e-17 5.66856e-30 -0 -0 -0 0)
(2.11317e-05 -2.76218e-18 -0 -2.72286e-18 3.55913e-31 0 -0 0 0)
(2.11302e-05 5.30001e-19 -0 5.23707e-19 1.3136e-32 -0 -0 -0 0)
(2.1129e-05 -2.26215e-19 -0 -2.23313e-19 2.39088e-33 0 -0 0 0)
(2.11279e-05 -2.36562e-20 -0 -2.56385e-20 2.87065e-35 0 -0 0 0)
(2.11268e-05 -5.67038e-20 -0 -5.76463e-20 1.54721e-34 0 -0 0 0)
(2.11261e-05 -4.0069e-20 -0 -3.68592e-20 6.99093e-35 0 -0 0 0)
(2.11253e-05 -3.2143e-20 -0 -2.91479e-20 4.43497e-35 0 -0 0 0)
(2.11247e-05 -1.98791e-20 -0 -1.98075e-20 1.86396e-35 0 -0 0 0)
(2.11242e-05 -1.36984e-20 -0 -1.50655e-20 9.76957e-36 0 -0 0 0)
(2.11238e-05 -1.17534e-20 -0 -1.21202e-20 6.74371e-36 0 -0 0 0)
(2.11236e-05 -8.10139e-21 -0 -7.74876e-21 2.97183e-36 0 -0 0 0)
(2.11234e-05 -3.07011e-21 -0 -1.98546e-21 2.8857e-37 0 -0 0 0)
(2.11234e-05 -1.50077e-21 -0 5.1677e-22 -3.67153e-38 -0 -0 0 0)
(2.12814e-05 -6.28267e-14 -0 -6.19006e-14 1.82742e-22 0 -0 0 0)
(2.12813e-05 1.49044e-14 -0 1.46847e-14 1.02845e-23 -0 -0 -0 0)
(2.12778e-05 -3.53563e-15 -0 -3.48353e-15 5.7884e-25 0 -0 0 0)
(2.12764e-05 8.38636e-16 -0 8.26278e-16 3.25688e-26 -0 -0 -0 0)
(2.1274e-05 -1.99042e-16 -0 -1.96111e-16 1.83484e-27 0 -0 0 0)
(2.12727e-05 4.71022e-17 -0 4.64089e-17 1.02759e-28 -0 -0 -0 0)
(2.12707e-05 -1.12833e-17 -0 -1.11176e-17 5.89742e-30 0 -0 0 0)
(2.12694e-05 2.57621e-18 -0 2.53974e-18 3.07619e-31 -0 -0 -0 0)
(2.12679e-05 -6.96808e-19 -0 -6.84934e-19 2.24407e-32 0 -0 0 0)
(2.12668e-05 9.45795e-20 -0 9.23619e-20 4.1076e-34 -0 -0 -0 0)
(2.12656e-05 -7.93094e-20 -0 -8.12805e-20 3.03133e-34 0 -0 0 0)
(2.12646e-05 -2.76028e-20 -0 -2.81797e-20 3.6579e-35 0 -0 0 0)
(2.12638e-05 -3.16367e-20 -0 -2.98634e-20 4.44314e-35 0 -0 0 0)
(2.1263e-05 -2.18968e-20 -0 -2.04448e-20 2.10543e-35 0 -0 0 0)
(2.12624e-05 -1.5903e-20 -0 -1.53846e-20 1.15068e-35 0 -0 0 0)
(2.12618e-05 -1.00911e-20 -0 -9.02604e-21 4.28387e-36 0 -0 0 0)
(2.12615e-05 -6.72524e-21 -0 -4.83909e-21 1.53065e-36 0 -0 0 0)
(2.12612e-05 -2.29407e-21 -0 -2.32232e-21 2.50577e-37 0 -0 0 0)
(2.12611e-05 -5.99837e-22 -0 -1.42342e-21 4.01588e-38 0 -0 0 0)
(2.1261e-05 -2.13343e-21 -0 -5.11844e-22 5.13607e-38 0 -0 0 0)
(2.13861e-05 6.29514e-14 -0 6.20232e-14 1.8257e-22 -0 -0 -0 0)
(2.13859e-05 -1.4934e-14 -0 -1.47138e-14 1.02748e-23 0 -0 0 0)
(2.13824e-05 3.54251e-15 -0 3.4903e-15 5.78252e-25 -0 -0 -0 0)
(2.13809e-05 -8.40415e-16 -0 -8.2803e-16 3.25472e-26 0 -0 0 0)
(2.13785e-05 1.99289e-16 -0 1.96352e-16 1.83038e-27 -0 -0 -0 0)
(2.13772e-05 -4.73434e-17 -0 -4.66442e-17 1.03301e-28 0 -0 0 0)
(2.13752e-05 1.11679e-17 -0 1.10056e-17 5.7501e-30 -0 -0 -0 0)
(2.1374e-05 -2.70395e-18 -0 -2.66013e-18 3.36524e-31 0 -0 0 0)
(2.13724e-05 5.94959e-19 -0 5.89642e-19 1.64143e-32 -0 -0 -0 0)
(2.13712e-05 -1.79247e-19 -0 -1.7525e-19 1.46987e-33 0 -0 0 0)
(2.13701e-05 1.06004e-20 -0 1.06012e-20 5.25864e-36 -0 -0 -0 0)
(2.1369e-05 -2.73007e-20 -0 -2.60715e-20 3.33085e-35 0 -0 0 0)
(2.13683e-05 -1.06199e-20 -0 -1.02356e-20 5.08706e-36 0 -0 0 0)
(2.13673e-05 -1.12078e-20 -0 -1.30185e-20 6.82859e-36 0 -0 0 0)
(2.13668e-05 -1.35303e-20 -0 -1.35923e-20 8.60717e-36 0 -0 0 0)
(2.13663e-05 -1.17834e-20 -0 -9.94269e-21 5.48335e-36 0 -0 0 0)
(2.13659e-05 -6.37045e-21 -0 -5.13831e-21 1.53204e-36 0 -0 0 0)
(2.13657e-05 -2.29558e-21 -0 -2.0529e-21 2.20569e-37 0 -0 0 0)
(2.13655e-05 -6.15206e-22 -0 -1.28283e-21 3.69383e-38 0 -0 0 0)
(2.13654e-05 -1.964e-21 -0 -6.07687e-22 5.58611e-38 0 -0 0 0)
(2.14784e-05 -6.30417e-14 -0 -6.21118e-14 1.82306e-22 0 -0 0 0)
(2.14783e-05 1.49554e-14 -0 1.47349e-14 1.026e-23 -0 -0 -0 0)
(2.14748e-05 -3.54765e-15 -0 -3.49533e-15 5.77433e-25 0 -0 0 0)
(2.14733e-05 8.41581e-16 -0 8.29174e-16 3.2497e-26 -0 -0 -0 0)
(2.14708e-05 -1.99634e-16 -0 -1.96689e-16 1.82879e-27 0 -0 0 0)
(2.14694e-05 4.73515e-17 -0 4.66573e-17 1.02904e-28 -0 -0 -0 0)
(2.14675e-05 -1.12374e-17 -0 -1.10694e-17 5.79441e-30 0 -0 0 0)
(2.14662e-05 2.66126e-18 -0 2.62199e-18 3.2506e-31 -0 -0 -0 0)
(2.14647e-05 -6.38251e-19 -0 -6.28021e-19 1.86742e-32 0 -0 0 0)
(2.14635e-05 1.43527e-19 -0 1.43203e-19 9.57606e-34 -0 -0 -0 0)
(2.14623e-05 -4.3549e-20 -0 -4.12898e-20 8.37808e-35 0 -0 0 0)
(2.14613e-05 9.48113e-23 -0 1.05669e-21 4.66821e-39 -0 -0 -0 0)
(2.14604e-05 -8.1362e-21 -0 -6.48387e-21 2.4582e-36 0 -0 0 0)
(2.14596e-05 -3.83376e-21 -0 -3.53975e-21 6.32378e-37 0 -0 0 0)
(2.1459e-05 -5.70767e-21 -0 -5.27865e-21 1.40401e-36 0 -0 0 0)
(2.14584e-05 -5.67915e-21 -0 -6.81362e-21 1.80328e-36 0 -0 0 0)
(2.14581e-05 -5.44693e-21 -0 -5.29008e-21 1.34283e-36 0 -0 0 0)
(2.14578e-05 -3.09441e-21 -0 -1.98841e-21 2.86746e-37 0 -0 0 0)
(2.14577e-05 -6.97369e-22 -0 -7.74321e-22 2.51652e-38 0 -0 0 0)
(2.14576e-05 -1.38681e-21 -0 -4.70411e-22 3.04028e-38 0 -0 0 0)
(2.15699e-05 6.31353e-14 -0 6.22035e-14 1.8207e-22 -0 -0 -0 0)
(2.15698e-05 -1.49779e-14 -0 -1.47569e-14 1.0247e-23 0 -0 0 0)
(2.15662e-05 3.553e-15 -0 3.50058e-15 5.76715e-25 -0 -0 -0 0)
(2.15648e-05 -8.42821e-16 -0 -8.30383e-16 3.24541e-26 0 -0 0 0)
(2.15623e-05 1.99975e-16 -0 1.97028e-16 1.82729e-27 -0 -0 -0 0)
(2.1561e-05 -4.73911e-17 -0 -4.66897e-17 1.02624e-28 0 -0 0 0)
(2.15588e-05 1.12857e-17 -0 1.11231e-17 5.82275e-30 -0 -0 -0 0)
(2.15578e-05 -2.63848e-18 -0 -2.59766e-18 3.1793e-31 0 -0 0 0)
(2.15559e-05 6.58806e-19 -0 6.48557e-19 1.98216e-32 -0 -0 -0 0)
(2.1555e-05 -1.33184e-19 -0 -1.30757e-19 8.07921e-34 0 -0 0 0)
(2.15536e-05 4.47791e-20 -0 4.52923e-20 9.40979e-35 -0 -0 -0 0)
(2.15527e-05 -4.0382e-21 -0 -2.99223e-21 5.60635e-37 0 -0 0 0)
(2.15517e-05 4.20126e-21 -0 6.45413e-21 1.25816e-36 -0 -0 -0 0)
(2.1551e-05 1.66266e-21 -0 3.15099e-21 2.43098e-37 -0 -0 -0 0)
(2.15503e-05 1.15404e-21 -0 8.49642e-22 4.54991e-38 -0 -0 -0 0)
(2.15499e-05 -5.99502e-22 -0 -1.8874e-21 5.25062e-38 0 -0 0 0)
(2.15494e-05 -1.34271e-21 -0 -4.01544e-22 2.50196e-38 0 -0 0 0)
(2.15492e-05 9.9564e-22 -0 2.49211e-21 1.15143e-37 -0 -0 -0 0)
(2.15491e-05 5.33633e-22 -0 -7.33965e-22 -1.81756e-38 0 -0 -0 0)
(2.1549e-05 -2.80878e-21 -0 -2.64088e-21 3.44222e-37 0 -0 0 0)
(2.16673e-05 -6.32527e-14 -0 -6.23187e-14 1.81925e-22 0 -0 0 0)
(2.16672e-05 1.5006e-14 -0 1.47845e-14 1.02392e-23 -0 -0 -0 0)
(2.16636e-05 -3.55958e-15 -0 -3.50703e-15 5.76245e-25 0 -0 0 0)
(2.16621e-05 8.4454e-16 -0 8.32078e-16 3.24402e-26 -0 -0 -0 0)
(2.16596e-05 -2.00217e-16 -0 -1.9726e-16 1.82343e-27 0 -0 0 0)
(2.16583e-05 4.76111e-17 -0 4.69093e-17 1.0312e-28 -0 -0 -0 0)
(2.16562e-05 -1.1198e-17 -0 -1.10308e-17 5.70382e-30 0 -0 0 0)
(2.1655e-05 2.73497e-18 -0 2.69638e-18 3.40546e-31 -0 -0 -0 0)
(2.16532e-05 -5.84123e-19 -0 -5.74425e-19 1.54958e-32 0 -0 0 0)
(2.16522e-05 1.89619e-19 -0 1.88493e-19 1.65072e-33 -0 -0 -0 0)
(2.16508e-05 -5.57209e-21 -0 -4.42902e-21 1.13986e-36 0 -0 0 0)
(2.165e-05 2.96738e-20 -0 2.99135e-20 4.1e-35 -0 -0 -0 0)
(2.16489e-05 1.04682e-20 -0 1.27724e-20 6.17599e-36 -0 -0 -0 0)
(2.16482e-05 9.91285e-21 -0 1.07776e-20 4.93514e-36 -0 -0 -0 0)
(2.16475e-05 7.9119e-21 -0 7.42543e-21 2.7139e-36 -0 -0 -0 0)
(2.1647e-05 7.05282e-21 -0 4.97785e-21 1.62183e-36 -0 -0 -0 0)
(2.16466e-05 3.67881e-21 -0 2.8954e-21 4.92069e-37 -0 -0 -0 0)
(2.16464e-05 2.99315e-21 -0 2.24671e-21 3.10663e-37 -0 -0 -0 0)
(2.16462e-05 9.15927e-22 -0 4.03562e-22 1.70761e-38 -0 -0 -0 0)
(2.16462e-05 -2.43597e-21 -0 -3.20401e-22 3.60566e-38 0 -0 0 0)
(2.17751e-05 6.34018e-14 -0 6.2465e-14 1.81877e-22 -0 -0 -0 0)
(2.1775e-05 -1.50417e-14 -0 -1.48195e-14 1.0237e-23 0 -0 0 0)
(2.17714e-05 3.5683e-15 -0 3.51559e-15 5.762e-25 -0 -0 -0 0)
(2.17699e-05 -8.46332e-16 -0 -8.33827e-16 3.24161e-26 0 -0 0 0)
(2.17673e-05 2.00963e-16 -0 1.97999e-16 1.82799e-27 -0 -0 -0 0)
(2.1766e-05 -4.7487e-17 -0 -4.67844e-17 1.0207e-28 0 -0 0 0)
(2.17639e-05 1.14279e-17 -0 1.12602e-17 5.9126e-30 -0 -0 -0 0)
(2.17626e-05 -2.58007e-18 -0 -2.54278e-18 3.0146e-31 0 -0 0 0)
(2.17609e-05 7.11339e-19 -0 7.00394e-19 2.2895e-32 -0 -0 -0 0)
(2.17598e-05 -9.44868e-20 -0 -9.34112e-20 4.05616e-34 0 -0 0 0)
(2.17585e-05 7.85209e-20 -0 7.72403e-20 2.78741e-34 -0 -0 -0 0)
(2.17576e-05 2.0354e-20 -0 2.24331e-20 2.0986e-35 -0 -0 -0 0)
(2.17566e-05 2.20378e-20 -0 2.40217e-20 2.43322e-35 -0 -0 -0 0)
(2.17558e-05 1.61829e-20 -0 1.53368e-20 1.14081e-35 -0 -0 -0 0)
(2.17552e-05 1.23014e-20 -0 1.1313e-20 6.39688e-36 -0 -0 -0 0)
(2.17546e-05 7.13618e-21 -0 6.41876e-21 2.10555e-36 -0 -0 -0 0)
(2.17543e-05 3.89858e-21 -0 3.12819e-21 5.60603e-37 -0 -0 -0 0)
(2.1754e-05 2.62974e-21 -0 2.23788e-21 2.70528e-37 -0 -0 -0 0)
(2.17538e-05 3.22234e-21 -0 3.05923e-21 4.53155e-37 -0 -0 -0 0)
(2.17538e-05 3.01653e-22 -0 2.13658e-21 2.96273e-38 -0 -0 -0 0)
(2.18971e-05 -6.36018e-14 -0 -6.26613e-14 1.82005e-22 0 -0 0 0)
(2.18969e-05 1.50896e-14 -0 1.48665e-14 1.02448e-23 -0 -0 -0 0)
(2.18933e-05 -3.57927e-15 -0 -3.52635e-15 5.76515e-25 0 -0 0 0)
(2.18917e-05 8.49429e-16 -0 8.36875e-16 3.24719e-26 -0 -0 -0 0)
(2.18892e-05 -2.01198e-16 -0 -1.98222e-16 1.82199e-27 0 -0 0 0)
(2.18877e-05 4.8004e-17 -0 4.72961e-17 1.03729e-28 -0 -0 -0 0)
(2.18858e-05 -1.116e-17 -0 -1.09949e-17 5.60649e-30 0 -0 0 0)
(2.18843e-05 2.82779e-18 -0 2.78535e-18 3.5991e-31 -0 -0 -0 0)
(2.18828e-05 -5.35708e-19 -0 -5.29195e-19 1.29551e-32 0 -0 0 0)
(2.18815e-05 2.25212e-19 -0 2.22851e-19 2.29366e-33 -0 -0 -0 0)
(2.18803e-05 1.78277e-20 -0 2.04405e-20 1.66545e-35 -0 -0 -0 0)
(2.18792e-05 4.74474e-20 -0 4.95476e-20 1.07449e-34 -0 -0 -0 0)
(2.18784e-05 2.83856e-20 -0 2.76763e-20 3.59079e-35 -0 -0 -0 0)
(2.18775e-05 2.23061e-20 -0 2.12057e-20 2.16212e-35 -0 -0 -0 0)
(2.1877e-05 1.32565e-20 -0 1.29204e-20 7.8292e-36 -0 -0 -0 0)
(2.18763e-05 7.40712e-21 -0 1.03799e-20 3.51453e-36 -0 -0 -0 0)
(2.1876e-05 5.80272e-21 -0 6.3443e-21 1.68286e-36 -0 -0 -0 0)
(2.18757e-05 3.16608e-21 -0 2.13295e-21 3.08704e-37 -0 -0 -0 0)
(2.18755e-05 2.82157e-21 -0 1.77995e-21 2.29583e-37 -0 -0 -0 0)
(2.18755e-05 4.12248e-22 -0 8.28045e-22 1.56047e-38 -0 -0 -0 0)
(2.20355e-05 6.38427e-14 -0 6.28978e-14 1.82231e-22 -0 -0 -0 0)
(2.20354e-05 -1.5147e-14 -0 -1.49229e-14 1.02579e-23 0 -0 0 0)
(2.20317e-05 3.59364e-15 -0 3.54046e-15 5.77492e-25 -0 -0 -0 0)
(2.20302e-05 -8.52087e-16 -0 -8.39479e-16 3.24696e-26 0 -0 0 0)
(2.20275e-05 2.02585e-16 -0 1.99589e-16 1.8356e-27 -0 -0 -0 0)
(2.20262e-05 -4.76911e-17 -0 -4.69846e-17 1.01731e-28 0 -0 0 0)
(2.20239e-05 1.16081e-17 -0 1.14351e-17 6.0271e-30 -0 -0 -0 0)
(2.20228e-05 -2.53218e-18 -0 -2.49431e-18 2.86795e-31 0 -0 0 0)
(2.20209e-05 7.64534e-19 -0 7.54049e-19 2.61795e-32 -0 -0 -0 0)
(2.202e-05 -6.45399e-20 -0 -6.08182e-20 1.78257e-34 0 -0 0 0)
(2.20184e-05 9.90487e-20 -0 1.00976e-19 4.54236e-34 -0 -0 -0 0)
(2.20176e-05 3.95226e-20 -0 3.89638e-20 6.99418e-35 -0 -0 -0 0)
(2.20165e-05 3.77238e-20 -0 3.49951e-20 5.99619e-35 -0 -0 -0 0)
(2.20159e-05 2.36471e-20 -0 2.29099e-20 2.46074e-35 -0 -0 -0 0)
(2.2015e-05 1.64921e-20 -0 1.62081e-20 1.21419e-35 -0 -0 -0 0)
(2.20146e-05 8.98767e-21 -0 1.2387e-20 5.05713e-36 -0 -0 -0 0)
(2.20141e-05 7.76296e-21 -0 9.29544e-21 3.27791e-36 -0 -0 -0 0)
(2.20139e-05 5.29336e-21 -0 4.75721e-21 1.1439e-36 -0 -0 -0 0)
(2.20137e-05 2.81379e-21 -0 1.62657e-21 2.07907e-37 -0 -0 -0 0)
(2.20137e-05 -6.932e-23 -0 1.01919e-21 -3.20939e-39 -0 -0 0 0)
(2.21889e-05 -6.41387e-14 -0 -6.31886e-14 1.82652e-22 0 -0 0 0)
(2.21888e-05 1.52181e-14 -0 1.49927e-14 1.02826e-23 -0 -0 -0 0)
(2.21849e-05 -3.60926e-15 -0 -3.5558e-15 5.78492e-25 0 -0 0 0)
(2.21834e-05 8.57007e-16 -0 8.44317e-16 3.26183e-26 -0 -0 -0 0)
(2.21807e-05 -2.0265e-16 -0 -1.9965e-16 1.82406e-27 0 -0 0 0)
(2.21794e-05 4.85675e-17 -0 4.7849e-17 1.04778e-28 -0 -0 -0 0)
(2.21771e-05 -1.11641e-17 -0 -1.0997e-17 5.53593e-30 0 -0 0 0)
(2.21759e-05 2.90058e-18 -0 2.86004e-18 3.74089e-31 -0 -0 -0 0)
(2.21741e-05 -5.10302e-19 -0 -5.00643e-19 1.15215e-32 0 -0 0 0)
(2.2173e-05 2.4383e-19 -0 2.41499e-19 2.65569e-33 -0 -0 -0 0)
(2.21716e-05 2.75263e-20 -0 2.65948e-20 3.30178e-35 -0 -0 -0 0)
(2.21706e-05 5.47546e-20 -0 5.25082e-20 1.29679e-34 -0 -0 -0 0)
(2.21696e-05 3.00031e-20 -0 2.7749e-20 3.75539e-35 -0 -0 -0 0)
(2.21688e-05 2.22436e-20 -0 2.30199e-20 2.30975e-35 -0 -0 -0 0)
(2.21682e-05 1.65963e-20 -0 1.83856e-20 1.37644e-35 -0 -0 -0 0)
(2.21676e-05 1.06874e-20 -0 1.21818e-20 5.87308e-36 -0 -0 -0 0)
(2.21672e-05 8.54891e-21 -0 1.00156e-20 3.86256e-36 -0 -0 -0 0)
(2.21669e-05 6.02694e-21 -0 5.545e-21 1.50763e-36 -0 -0 -0 0)
(2.21668e-05 1.85357e-21 -0 4.35274e-22 3.63974e-38 -0 -0 -0 0)
(2.21667e-05 -9.60563e-22 -0 3.76003e-22 -1.62936e-38 -0 -0 0 0)
(2.23459e-05 6.4425e-14 -0 6.34696e-14 1.82988e-22 -0 -0 -0 0)
(2.23457e-05 -1.5286e-14 -0 -1.50594e-14 1.03017e-23 0 -0 0 0)
(2.23419e-05 3.62805e-15 -0 3.57427e-15 5.80416e-25 -0 -0 -0 0)
(2.23403e-05 -8.59472e-16 -0 -8.46728e-16 3.25752e-26 0 -0 0 0)
(2.23376e-05 2.04877e-16 -0 2.01841e-16 1.85125e-27 -0 -0 -0 0)
(2.23362e-05 -4.80127e-17 -0 -4.72998e-17 1.01673e-28 0 -0 0 0)
(2.2334e-05 1.1779e-17 -0 1.16062e-17 6.12114e-30 -0 -0 -0 0)
(2.23327e-05 -2.54602e-18 -0 -2.50712e-18 2.85821e-31 0 -0 0 0)
(2.23309e-05 7.70387e-19 -0 7.60781e-19 2.62459e-32 -0 -0 -0 0)
(2.23297e-05 -7.11266e-20 -0 -7.04704e-20 2.24469e-34 0 -0 0 0)
(2.23284e-05 9.22904e-20 -0 9.03457e-20 3.73427e-34 -0 -0 -0 0)
(2.23272e-05 2.91362e-20 -0 2.9478e-20 3.84677e-35 -0 -0 -0 0)
(2.23264e-05 2.88137e-20 -0 2.7966e-20 3.60919e-35 -0 -0 -0 0)
(2.23255e-05 1.61562e-20 -0 1.67992e-20 1.2157e-35 -0 -0 -0 0)
(2.23249e-05 1.19271e-20 -0 1.50018e-20 8.0147e-36 -0 -0 -0 0)
(2.23243e-05 1.18784e-20 -0 1.08569e-20 5.77677e-36 -0 -0 -0 0)
(2.23239e-05 7.9577e-21 -0 7.12984e-21 2.54154e-36 -0 -0 -0 0)
(2.23236e-05 4.62275e-21 -0 4.13254e-21 8.55762e-37 -0 -0 -0 0)
(2.23234e-05 1.25121e-21 -0 1.87351e-21 1.05009e-37 -0 -0 -0 0)
(2.23234e-05 -5.58021e-24 -0 7.65295e-22 -1.91302e-40 -0 -0 0 0)
(2.24807e-05 -6.46786e-14 -0 -6.37184e-14 1.83322e-22 0 -0 0 0)
(2.24807e-05 1.53495e-14 -0 1.51217e-14 1.03248e-23 -0 -0 -0 0)
(2.24769e-05 -3.63571e-15 -0 -3.58174e-15 5.79357e-25 0 -0 0 0)
(2.24754e-05 8.64183e-16 -0 8.51364e-16 3.27351e-26 -0 -0 -0 0)
(2.24728e-05 -2.03746e-16 -0 -2.0072e-16 1.81979e-27 0 -0 0 0)
(2.24714e-05 4.88408e-17 -0 4.81175e-17 1.04582e-28 -0 -0 -0 0)
(2.24693e-05 -1.12514e-17 -0 -1.10837e-17 5.55011e-30 0 -0 0 0)
(2.24678e-05 2.85345e-18 -0 2.81151e-18 3.57066e-31 -0 -0 -0 0)
(2.24663e-05 -5.54598e-19 -0 -5.45738e-19 1.34719e-32 0 -0 0 0)
(2.24649e-05 2.08863e-19 -0 2.05673e-19 1.9122e-33 -0 -0 -0 0)
(2.24638e-05 2.26986e-21 -0 3.72957e-21 3.76856e-37 -0 -0 -0 0)
(2.24626e-05 3.31932e-20 -0 3.40425e-20 5.0305e-35 -0 -0 -0 0)
(2.24618e-05 1.4393e-20 -0 1.46591e-20 9.39323e-36 -0 -0 -0 0)
(2.24608e-05 9.67129e-21 -0 1.08289e-20 4.66277e-36 -0 -0 -0 0)
(2.24603e-05 7.62002e-21 -0 8.71411e-21 2.95641e-36 -0 -0 -0 0)
(2.24596e-05 7.87708e-21 -0 6.18227e-21 2.16826e-36 -0 -0 -0 0)
(2.24592e-05 3.23743e-21 -0 1.91911e-21 2.76633e-37 -0 -0 -0 0)
(2.24589e-05 2.28244e-21 -0 3.16252e-21 3.21399e-37 -0 -0 -0 0)
(2.24588e-05 3.8773e-21 -0 3.64041e-21 6.28484e-37 -0 -0 -0 0)
(2.24587e-05 1.49441e-21 -0 1.77359e-21 1.18015e-37 -0 -0 -0 0)
(2.25394e-05 6.46887e-14 -0 6.37273e-14 1.829e-22 -0 -0 -0 0)
(2.25393e-05 -1.53339e-14 -0 -1.51059e-14 1.02768e-23 0 -0 0 0)
(2.25392e-05 3.6423e-15 -0 3.58816e-15 5.7984e-25 -0 -0 -0 0)
(2.25392e-05 -8.63105e-16 -0 -8.5027e-16 3.25598e-26 0 -0 0 0)
(2.25392e-05 2.05345e-16 -0 2.02294e-16 1.84302e-27 -0 -0 -0 0)
(2.25391e-05 -4.85276e-17 -0 -4.78051e-17 1.02926e-28 0 -0 0 0)
(2.25391e-05 1.1646e-17 -0 1.14735e-17 5.92839e-30 -0 -0 -0 0)
(2.25391e-05 -2.69499e-18 -0 -2.65525e-18 3.17487e-31 0 -0 0 0)
(2.2539e-05 6.84435e-19 -0 6.73848e-19 2.04625e-32 -0 -0 -0 0)
(2.2539e-05 -1.35871e-19 -0 -1.33341e-19 8.03811e-34 0 -0 0 0)
(2.2539e-05 4.98357e-20 -0 4.99885e-20 1.10529e-34 -0 -0 -0 0)
(2.2539e-05 -8.85376e-22 -0 -9.66409e-22 3.79624e-38 0 -0 0 0)
(2.2539e-05 5.8371e-21 -0 5.9883e-21 1.55084e-36 -0 -0 -0 0)
(2.2539e-05 1.71926e-21 -0 3.79605e-21 2.89561e-37 -0 -0 -0 0)
(2.2539e-05 3.89054e-21 -0 4.33992e-21 7.4913e-37 -0 -0 -0 0)
(2.2539e-05 3.49374e-21 -0 2.85704e-21 4.42866e-37 -0 -0 -0 0)
(2.2539e-05 9.0867e-22 -0 1.01049e-21 4.07384e-38 -0 -0 -0 0)
(2.2539e-05 1.07994e-21 -0 1.18573e-21 5.68137e-38 -0 -0 -0 0)
(2.2539e-05 2.12526e-21 -0 5.31659e-22 5.01315e-38 -0 -0 -0 0)
(2.2539e-05 3.94321e-22 -0 4.80392e-22 8.40449e-39 -0 -0 -0 0)
)
;

boundaryField
{
    movingWall
    {
        type            calculated;
        value           nonuniform List<tensor> 
20
(
(2.25394e-05 0 0 0 0 0 0 0 0)
(2.25393e-05 0 0 0 0 0 0 0 0)
(2.25392e-05 0 0 0 0 0 0 0 0)
(2.25392e-05 0 0 0 0 0 0 0 0)
(2.25392e-05 0 0 0 0 0 0 0 0)
(2.25391e-05 0 0 0 0 0 0 0 0)
(2.25391e-05 0 0 0 0 0 0 0 0)
(2.25391e-05 0 0 0 0 0 0 0 0)
(2.2539e-05 0 0 0 0 0 0 0 0)
(2.2539e-05 0 0 0 0 0 0 0 0)
(2.2539e-05 0 0 0 0 0 0 0 0)
(2.2539e-05 0 0 0 0 0 0 0 0)
(2.2539e-05 0 0 0 0 0 0 0 0)
(2.2539e-05 0 0 0 0 0 0 0 0)
(2.2539e-05 0 0 0 0 0 0 0 0)
(2.2539e-05 0 0 0 0 0 0 0 0)
(2.2539e-05 0 0 0 0 0 0 0 0)
(2.2539e-05 0 0 0 0 0 0 0 0)
(2.2539e-05 0 0 0 0 0 0 0 0)
(2.2539e-05 0 0 0 0 0 0 0 0)
)
;
    }
    fixedWalls
    {
        type            calculated;
        value           nonuniform List<tensor> 
60
(
(1.437e-05 0 0 0 0 0 0 0 0)
(1.57032e-05 0 0 0 0 0 0 0 0)
(1.74694e-05 0 0 0 0 0 0 0 0)
(1.89575e-05 0 0 0 0 0 0 0 0)
(1.99665e-05 0 0 0 0 0 0 0 0)
(2.05778e-05 0 0 0 0 0 0 0 0)
(2.09326e-05 0 0 0 0 0 0 0 0)
(2.11435e-05 0 0 0 0 0 0 0 0)
(2.12814e-05 0 0 0 0 0 0 0 0)
(2.13861e-05 0 0 0 0 0 0 0 0)
(2.14784e-05 0 0 0 0 0 0 0 0)
(2.15699e-05 0 0 0 0 0 0 0 0)
(2.16673e-05 0 0 0 0 0 0 0 0)
(2.17751e-05 0 0 0 0 0 0 0 0)
(2.18971e-05 0 0 0 0 0 0 0 0)
(2.20355e-05 0 0 0 0 0 0 0 0)
(2.21889e-05 0 0 0 0 0 0 0 0)
(2.23459e-05 0 0 0 0 0 0 0 0)
(2.24807e-05 0 0 0 0 0 0 0 0)
(2.25394e-05 0 0 0 0 0 0 0 0)
(1.43697e-05 0 0 0 0 0 0 0 0)
(1.56924e-05 0 0 0 0 0 0 0 0)
(1.74559e-05 0 0 0 0 0 0 0 0)
(1.89415e-05 0 0 0 0 0 0 0 0)
(1.99487e-05 0 0 0 0 0 0 0 0)
(2.05588e-05 0 0 0 0 0 0 0 0)
(2.09129e-05 0 0 0 0 0 0 0 0)
(2.11234e-05 0 0 0 0 0 0 0 0)
(2.1261e-05 0 0 0 0 0 0 0 0)
(2.13654e-05 0 0 0 0 0 0 0 0)
(2.14576e-05 0 0 0 0 0 0 0 0)
(2.1549e-05 0 0 0 0 0 0 0 0)
(2.16462e-05 0 0 0 0 0 0 0 0)
(2.17538e-05 0 0 0 0 0 0 0 0)
(2.18755e-05 0 0 0 0 0 0 0 0)
(2.20137e-05 0 0 0 0 0 0 0 0)
(2.21667e-05 0 0 0 0 0 0 0 0)
(2.23234e-05 0 0 0 0 0 0 0 0)
(2.24587e-05 0 0 0 0 0 0 0 0)
(2.2539e-05 0 0 0 0 0 0 0 0)
(1.437e-05 0 0 0 0 0 0 0 0)
(1.43699e-05 0 0 0 0 0 0 0 0)
(1.43699e-05 0 0 0 0 0 0 0 0)
(1.43699e-05 0 0 0 0 0 0 0 0)
(1.43699e-05 0 0 0 0 0 0 0 0)
(1.43698e-05 0 0 0 0 0 0 0 0)
(1.43698e-05 0 0 0 0 0 0 0 0)
(1.43698e-05 0 0 0 0 0 0 0 0)
(1.43698e-05 0 0 0 0 0 0 0 0)
(1.43698e-05 0 0 0 0 0 0 0 0)
(1.43698e-05 0 0 0 0 0 0 0 0)
(1.43697e-05 0 0 0 0 0 0 0 0)
(1.43697e-05 0 0 0 0 0 0 0 0)
(1.43697e-05 0 0 0 0 0 0 0 0)
(1.43697e-05 0 0 0 0 0 0 0 0)
(1.43697e-05 0 0 0 0 0 0 0 0)
(1.43697e-05 0 0 0 0 0 0 0 0)
(1.43697e-05 0 0 0 0 0 0 0 0)
(1.43697e-05 0 0 0 0 0 0 0 0)
(1.43697e-05 0 0 0 0 0 0 0 0)
)
;
    }
    frontAndBack
    {
        type            empty;
    }
}


// ************************************************************************* //
