/*--------------------------------*- C++ -*----------------------------------*\
| =========                 |                                                 |
| \\      /  F ield         | OpenFOAM: The Open Source CFD Toolbox           |
|  \\    /   O peration     | Version:  2312                                  |
|   \\  /    A nd           | Website:  www.openfoam.com                      |
|    \\/     M anipulation  |                                                 |
\*---------------------------------------------------------------------------*/
FoamFile
{
    version     2.0;
    format      ascii;
    arch        "LSB;label=32;scalar=64";
    class       volScalarField;
    location    "5";
    object      L_P;
}
// * * * * * * * * * * * * * * * * * * * * * * * * * * * * * * * * * * * * * //

dimensions      [0 0 0 0 0 0 0];

internalField   nonuniform List<scalar> 
400
(
-180.682
-180.682
-180.682
-180.682
-180.682
-180.682
-180.682
-180.682
-180.682
-180.682
-180.682
-180.682
-180.682
-180.682
-180.682
-180.682
-180.682
-180.682
-180.682
-180.682
-179.139
-179.242
-179.235
-179.232
-179.226
-179.223
-179.216
-179.213
-179.207
-179.203
-179.197
-179.193
-179.186
-179.182
-179.175
-179.171
-179.164
-179.16
-179.157
-179.151
-177.285
-177.396
-177.388
-177.385
-177.378
-177.375
-177.368
-177.365
-177.358
-177.354
-177.347
-177.343
-177.336
-177.332
-177.325
-177.321
-177.313
-177.309
-177.305
-177.299
-175.864
-175.98
-175.972
-175.969
-175.962
-175.958
-175.951
-175.948
-175.941
-175.937
-175.929
-175.925
-175.918
-175.914
-175.906
-175.902
-175.894
-175.889
-175.885
-175.879
-174.963
-175.082
-175.074
-175.071
-175.064
-175.06
-175.053
-175.049
-175.042
-175.038
-175.03
-175.026
-175.019
-175.014
-175.006
-175.002
-174.994
-174.989
-174.985
-174.978
-174.439
-174.56
-174.552
-174.548
-174.541
-174.538
-174.531
-174.527
-174.519
-174.515
-174.508
-174.503
-174.496
-174.491
-174.483
-174.479
-174.471
-174.466
-174.461
-174.455
-174.142
-174.264
-174.256
-174.252
-174.245
-174.242
-174.235
-174.231
-174.223
-174.219
-174.211
-174.207
-174.199
-174.195
-174.187
-174.182
-174.174
-174.169
-174.165
-174.158
-173.967
-174.091
-174.082
-174.079
-174.072
-174.068
-174.061
-174.057
-174.049
-174.045
-174.038
-174.033
-174.025
-174.021
-174.013
-174.008
-174
-173.995
-173.991
-173.984
-173.854
-173.978
-173.97
-173.966
-173.959
-173.955
-173.948
-173.944
-173.937
-173.933
-173.925
-173.92
-173.913
-173.908
-173.9
-173.895
-173.887
-173.882
-173.878
-173.871
-173.769
-173.893
-173.885
-173.881
-173.874
-173.87
-173.863
-173.859
-173.852
-173.848
-173.84
-173.836
-173.828
-173.823
-173.815
-173.81
-173.802
-173.797
-173.793
-173.786
-173.694
-173.819
-173.81
-173.807
-173.8
-173.796
-173.789
-173.785
-173.777
-173.773
-173.765
-173.761
-173.753
-173.748
-173.74
-173.735
-173.727
-173.722
-173.718
-173.711
-173.62
-173.745
-173.736
-173.733
-173.726
-173.722
-173.715
-173.711
-173.703
-173.699
-173.692
-173.687
-173.679
-173.674
-173.667
-173.662
-173.653
-173.648
-173.644
-173.637
-173.542
-173.667
-173.658
-173.655
-173.648
-173.644
-173.637
-173.633
-173.625
-173.621
-173.613
-173.609
-173.601
-173.596
-173.588
-173.583
-173.575
-173.57
-173.566
-173.559
-173.456
-173.581
-173.572
-173.569
-173.562
-173.558
-173.551
-173.547
-173.539
-173.535
-173.527
-173.523
-173.515
-173.51
-173.502
-173.497
-173.489
-173.484
-173.48
-173.473
-173.359
-173.484
-173.476
-173.472
-173.465
-173.461
-173.454
-173.45
-173.442
-173.438
-173.43
-173.426
-173.418
-173.413
-173.405
-173.4
-173.392
-173.387
-173.383
-173.376
-173.249
-173.375
-173.367
-173.363
-173.356
-173.352
-173.345
-173.341
-173.333
-173.329
-173.321
-173.317
-173.309
-173.304
-173.296
-173.291
-173.283
-173.277
-173.273
-173.266
-173.129
-173.255
-173.246
-173.243
-173.236
-173.232
-173.225
-173.22
-173.213
-173.209
-173.201
-173.196
-173.188
-173.184
-173.176
-173.171
-173.162
-173.157
-173.153
-173.146
-173.006
-173.133
-173.124
-173.121
-173.114
-173.11
-173.102
-173.098
-173.091
-173.086
-173.079
-173.074
-173.066
-173.061
-173.053
-173.048
-173.04
-173.035
-173.03
-173.024
-172.901
-173.026
-173.018
-173.014
-173.007
-173.003
-172.996
-172.992
-172.985
-172.981
-172.973
-172.969
-172.961
-172.956
-172.948
-172.943
-172.935
-172.93
-172.925
-172.918
-172.856
-172.856
-172.856
-172.856
-172.856
-172.856
-172.856
-172.856
-172.856
-172.856
-172.856
-172.856
-172.856
-172.856
-172.856
-172.856
-172.856
-172.856
-172.856
-172.856
)
;

boundaryField
{
    movingWall
    {
        type            calculated;
        value           nonuniform List<scalar> 
20
(
-172.856
-172.856
-172.856
-172.856
-172.856
-172.856
-172.856
-172.856
-172.856
-172.856
-172.856
-172.856
-172.856
-172.856
-172.856
-172.856
-172.856
-172.856
-172.856
-172.856
)
;
    }
    fixedWalls
    {
        type            calculated;
        value           nonuniform List<scalar> 
60
(
-180.682
-179.139
-177.285
-175.864
-174.963
-174.439
-174.142
-173.967
-173.854
-173.769
-173.694
-173.62
-173.542
-173.456
-173.359
-173.249
-173.129
-173.006
-172.901
-172.856
-180.682
-179.151
-177.299
-175.879
-174.978
-174.455
-174.158
-173.984
-173.871
-173.786
-173.711
-173.637
-173.559
-173.473
-173.376
-173.266
-173.146
-173.024
-172.918
-172.856
-180.682
-180.682
-180.682
-180.682
-180.682
-180.682
-180.682
-180.682
-180.682
-180.682
-180.682
-180.682
-180.682
-180.682
-180.682
-180.682
-180.682
-180.682
-180.682
-180.682
)
;
    }
    frontAndBack
    {
        type            empty;
    }
}


// ************************************************************************* //
