/*--------------------------------*- C++ -*----------------------------------*\
| =========                 |                                                 |
| \\      /  F ield         | OpenFOAM: The Open Source CFD Toolbox           |
|  \\    /   O peration     | Version:  2312                                  |
|   \\  /    A nd           | Website:  www.openfoam.com                      |
|    \\/     M anipulation  |                                                 |
\*---------------------------------------------------------------------------*/
FoamFile
{
    version     2.0;
    format      ascii;
    arch        "LSB;label=32;scalar=64";
    class       volVectorField;
    location    "5";
    object      LambVectorField;
}
// * * * * * * * * * * * * * * * * * * * * * * * * * * * * * * * * * * * * * //

dimensions      [0 1 -2 0 0 0 0];

internalField   nonuniform List<vector> 
400
(
(-6.62253e-16 -2.24745e-07 -2.24745e-07)
(-1.94552e-16 2.78246e-07 -0)
(-1.09801e-17 -6.60559e-08 -6.60559e-08)
(-6.20143e-19 1.57373e-08 -0)
(-3.49786e-20 -3.72432e-09 -3.72432e-09)
(-1.98839e-21 8.96345e-10 -0)
(-1.10852e-22 -2.074e-10 -2.074e-10)
(-6.54536e-24 5.32462e-11 -0)
(-3.22634e-25 -1.01338e-11 -1.01338e-11)
(-2.47981e-26 4.22666e-12 -0)
(6.0739e-28 2.35322e-13 2.35322e-13)
(1.46894e-28 8.05863e-13 0)
(1.93796e-28 3.99099e-13 3.99099e-13)
(8.33268e-29 3.24163e-13 0)
(4.60313e-29 2.04125e-13 2.04125e-13)
(1.68672e-29 1.49056e-13 0)
(9.84234e-30 1.09121e-13 1.09121e-13)
(5.80419e-30 5.46758e-14 0)
(4.83288e-30 5.64984e-14 5.64984e-14)
(1.40577e-30 1.68814e-14 0)
(-6.60314e-16 2.23719e-07 2.23719e-07)
(-1.95377e-16 -2.78485e-07 0)
(-1.10001e-17 6.61679e-08 6.61679e-08)
(-6.22356e-19 -1.5721e-08 0)
(-3.48606e-20 3.73527e-09 3.73527e-09)
(-1.99339e-21 -8.87506e-10 0)
(-1.08464e-22 2.10853e-10 2.10853e-10)
(-6.65449e-24 -5.00625e-11 0)
(-2.93496e-25 1.1919e-11 1.1919e-11)
(-3.0681e-26 -2.92717e-12 0)
(5.70633e-28 6.69208e-13 6.69208e-13)
(-2.34949e-28 -1.08619e-13 0)
(5.34632e-29 4.74918e-14 4.74918e-14)
(1.32506e-30 1.51437e-15 0)
(1.46321e-29 2.57385e-14 2.57385e-14)
(7.91534e-31 2.28397e-15 0)
(-1.42215e-29 -5.17902e-14 -5.17902e-14)
(-1.60227e-29 -4.97042e-14 0)
(-7.17708e-30 -3.12673e-14 -3.12673e-14)
(2.99686e-30 3.22473e-14 0)
(-6.59114e-16 -2.23321e-07 -2.23321e-07)
(-1.94988e-16 2.78152e-07 -0)
(-1.09927e-17 -6.6026e-08 -6.6026e-08)
(-6.18399e-19 1.56724e-08 -0)
(-3.50651e-20 -3.72001e-09 -3.72001e-09)
(-1.94554e-21 8.83075e-10 -0)
(-1.14421e-22 -2.09565e-10 -2.09565e-10)
(-5.73549e-24 4.98399e-11 -0)
(-4.35864e-25 -1.17729e-11 -1.17729e-11)
(-6.2375e-27 2.79918e-12 -0)
(-3.74418e-27 -7.15053e-13 -7.15053e-13)
(2.40682e-28 1.08823e-13 0)
(7.38674e-29 3.73143e-14 3.73143e-14)
(6.26228e-29 4.83035e-14 0)
(1.04564e-29 1.09552e-14 1.09552e-14)
(1.53854e-29 2.38611e-14 0)
(1.56359e-29 3.51525e-14 3.51525e-14)
(5.86608e-30 2.00026e-14 0)
(5.51652e-30 2.25369e-14 2.25369e-14)
(2.12295e-30 3.12674e-14 0)
(-6.61272e-16 2.2416e-07 2.2416e-07)
(-1.94838e-16 -2.7822e-07 0)
(-1.09711e-17 6.60296e-08 6.60296e-08)
(-6.18579e-19 -1.567e-08 0)
(-3.47091e-20 3.71893e-09 3.71893e-09)
(-1.97977e-21 -8.82457e-10 0)
(-1.07168e-22 2.09513e-10 2.09513e-10)
(-6.77092e-24 -4.9634e-11 0)
(-2.57004e-25 1.18573e-11 1.18573e-11)
(-3.43729e-26 -2.70787e-12 0)
(1.72225e-27 7.10947e-13 7.10947e-13)
(-4.63183e-28 -1.35598e-13 0)
(8.20044e-29 3.81033e-14 3.81033e-14)
(-8.65911e-29 -5.15557e-14 0)
(2.85945e-29 2.17869e-14 2.17869e-14)
(4.50653e-29 4.90056e-14 0)
(1.96412e-29 3.56235e-14 3.56235e-14)
(2.47926e-29 8.48159e-14 0)
(-9.15194e-30 -3.73095e-14 -3.73095e-14)
(4.54502e-30 3.68602e-14 0)
(-6.59597e-16 -2.24113e-07 -2.24113e-07)
(-1.93928e-16 2.77667e-07 -0)
(-1.09215e-17 -6.58892e-08 -6.58892e-08)
(-6.1452e-19 1.56348e-08 -0)
(-3.46997e-20 -3.70999e-09 -3.70999e-09)
(-1.93462e-21 8.80319e-10 -0)
(-1.12592e-22 -2.08895e-10 -2.08895e-10)
(-5.66766e-24 4.95505e-11 -0)
(-4.42481e-25 -1.17932e-11 -1.17932e-11)
(-2.98404e-27 2.8217e-12 -0)
(-3.44506e-27 -5.69388e-13 -5.69388e-13)
(4.6423e-28 1.69489e-13 0)
(-2.78079e-29 -1.13122e-14 -1.13122e-14)
(9.18063e-29 5.19292e-14 0)
(3.28005e-29 2.34822e-14 2.34822e-14)
(1.63017e-29 1.64499e-14 0)
(-2.31976e-29 -3.36089e-14 -3.36089e-14)
(-3.48902e-29 -6.78895e-14 0)
(1.45711e-29 5.11418e-14 5.11418e-14)
(7.20797e-32 2.87423e-14 0)
(-6.57198e-16 2.23898e-07 2.23898e-07)
(-1.92919e-16 -2.77005e-07 0)
(-1.08603e-17 6.57274e-08 6.57274e-08)
(-6.11668e-19 -1.55952e-08 0)
(-3.4367e-20 3.70028e-09 3.70028e-09)
(-1.9492e-21 -8.77981e-10 0)
(-1.06775e-22 2.08238e-10 2.08238e-10)
(-6.58421e-24 -4.94664e-11 0)
(-2.62678e-25 1.17116e-11 1.17116e-11)
(-3.44129e-26 -2.76081e-12 0)
(1.74856e-27 7.08274e-13 7.08274e-13)
(-4.16564e-28 -1.19542e-13 0)
(1.90614e-28 8.25552e-14 8.25552e-14)
(4.18208e-29 2.26551e-14 0)
(1.19897e-28 9.44653e-14 9.44653e-14)
(3.91259e-30 4.34094e-15 0)
(6.76067e-29 9.88821e-14 9.88821e-14)
(2.31934e-29 5.10191e-14 0)
(1.76605e-29 1.01778e-13 1.01778e-13)
(-8.92596e-31 4.23493e-14 -0)
(-6.53582e-16 -2.23351e-07 -2.23351e-07)
(-1.91739e-16 2.76184e-07 -0)
(-1.07946e-17 -6.55301e-08 -6.55301e-08)
(-6.07453e-19 1.55479e-08 -0)
(-3.42396e-20 -3.68885e-09 -3.68885e-09)
(-1.91709e-21 8.75299e-10 -0)
(-1.10063e-22 -2.07558e-10 -2.07558e-10)
(-5.75927e-24 4.93074e-11 -0)
(-4.07345e-25 -1.16273e-11 -1.16273e-11)
(-6.58336e-27 2.71215e-12 -0)
(-3.64443e-27 -7.00659e-13 -7.00659e-13)
(4.45273e-28 1.84698e-13 0)
(-2.02497e-28 -8.91959e-14 -8.91959e-14)
(-1.37092e-29 -8.17736e-15 0)
(-1.38196e-29 -1.09003e-14 -1.09003e-14)
(5.7139e-29 5.87649e-14 0)
(4.32389e-29 6.35708e-14 6.35708e-14)
(3.85354e-29 1.14476e-13 0)
(2.29641e-30 2.96267e-14 2.96267e-14)
(-6.18206e-31 -1.53181e-14 0)
(-6.49972e-16 2.22779e-07 2.22779e-07)
(-1.90609e-16 -2.75383e-07 0)
(-1.07295e-17 6.53389e-08 6.53389e-08)
(-6.04064e-19 -1.55021e-08 0)
(-3.39678e-20 3.67794e-09 3.67794e-09)
(-1.91957e-21 -8.72693e-10 0)
(-1.06435e-22 2.07047e-10 2.07047e-10)
(-6.33586e-24 -4.91716e-11 0)
(-2.89131e-25 1.16657e-11 1.16657e-11)
(-2.83372e-26 -2.68114e-12 0)
(7.86975e-28 6.48522e-13 6.48522e-13)
(-4.40786e-28 -1.61544e-13 0)
(1.40751e-28 8.06722e-14 8.06722e-14)
(7.39589e-29 5.36026e-14 0)
(-3.91588e-29 -4.17628e-14 -4.17628e-14)
(6.62043e-30 9.28286e-15 0)
(-1.1231e-29 -1.95742e-14 -1.95742e-14)
(1.75996e-29 4.79775e-14 0)
(3.67791e-30 3.91294e-14 3.91294e-14)
(-1.70098e-31 6.9529e-15 -0)
(-6.46101e-16 -2.2213e-07 -2.2213e-07)
(-1.89447e-16 2.74549e-07 -0)
(-1.06645e-17 -6.51404e-08 -6.51404e-08)
(-6.00197e-19 1.54549e-08 -0)
(-3.3801e-20 -3.66671e-09 -3.66671e-09)
(-1.89813e-21 8.70054e-10 -0)
(-1.07885e-22 -2.06411e-10 -2.06411e-10)
(-5.85653e-24 4.90465e-11 -0)
(-3.72313e-25 -1.15607e-11 -1.15607e-11)
(-1.20913e-26 2.78408e-12 -0)
(-1.95928e-27 -5.1261e-13 -5.1261e-13)
(3.92234e-28 2.95983e-13 0)
(1.65276e-28 1.17682e-13 1.17682e-13)
(1.43653e-28 1.49402e-13 0)
(1.36916e-28 1.89226e-13 1.89226e-13)
(5.55743e-29 1.30911e-13 0)
(1.95141e-29 8.57392e-14 8.57392e-14)
(1.75474e-30 1.60649e-14 0)
(2.38477e-30 3.56204e-14 3.56204e-14)
(8.71668e-31 3.62074e-14 0)
(-6.42372e-16 2.21494e-07 2.21494e-07)
(-1.88344e-16 -2.7375e-07 0)
(-1.0602e-17 6.49506e-08 6.49506e-08)
(-5.96783e-19 -1.54098e-08 0)
(-3.35796e-20 3.6561e-09 3.6561e-09)
(-1.89246e-21 -8.67319e-10 0)
(-1.06048e-22 2.05967e-10 2.05967e-10)
(-6.05788e-24 -4.86747e-11 0)
(-3.22983e-25 1.17069e-11 1.17069e-11)
(-2.17724e-26 -2.65508e-12 0)
(-3.46273e-28 6.98022e-13 6.98022e-13)
(-1.18967e-28 -9.75087e-14 0)
(1.62738e-29 3.39739e-14 3.39739e-14)
(-4.26023e-29 -6.99232e-14 0)
(-4.25721e-29 -6.69225e-14 -6.69225e-14)
(-6.81508e-30 -1.46452e-14 0)
(8.88041e-30 3.69261e-14 3.69261e-14)
(4.3382e-30 4.515e-14 0)
(-1.22131e-30 -2.03409e-14 -2.03409e-14)
(2.51673e-31 8.84846e-15 0)
(-6.38663e-16 -2.20851e-07 -2.20851e-07)
(-1.87261e-16 2.72961e-07 -0)
(-1.05412e-17 -6.47634e-08 -6.47634e-08)
(-5.93323e-19 1.53654e-08 -0)
(-3.33953e-20 -3.64548e-09 -3.64548e-09)
(-1.87975e-21 8.64971e-10 -0)
(-1.05829e-22 -2.0524e-10 -2.0524e-10)
(-5.94748e-24 4.86919e-11 -0)
(-3.37856e-25 -1.15473e-11 -1.15473e-11)
(-1.82374e-26 2.73345e-12 -0)
(-1.37839e-27 -7.16481e-13 -7.16481e-13)
(-5.31559e-30 1.0796e-13 -0)
(-3.10391e-29 -1.02734e-13 -1.02734e-13)
(-3.54487e-30 -2.14906e-14 0)
(-3.75319e-30 -1.52577e-14 -1.52577e-14)
(-8.62381e-30 -2.71594e-14 0)
(5.54349e-30 2.2486e-14 2.2486e-14)
(-5.61611e-31 -6.06061e-15 0)
(2.2115e-30 6.12844e-14 6.12844e-14)
(1.27171e-31 5.80087e-15 0)
(-6.35053e-16 2.20214e-07 2.20214e-07)
(-1.86223e-16 -2.72199e-07 0)
(-1.04829e-17 6.45827e-08 6.45827e-08)
(-5.90017e-19 -1.53225e-08 0)
(-3.32181e-20 3.63532e-09 3.63532e-09)
(-1.86776e-21 -8.62518e-10 0)
(-1.05606e-22 2.04687e-10 2.04687e-10)
(-5.85114e-24 -4.85582e-11 0)
(-3.43476e-25 1.1416e-11 1.1416e-11)
(-1.69768e-26 -2.79858e-12 0)
(-1.18861e-27 5.65632e-13 5.65632e-13)
(-2.50165e-29 -1.80191e-13 0)
(-1.66535e-29 5.56094e-14 5.56094e-14)
(3.80215e-30 -2.60046e-14 -0)
(9.21754e-31 -2.33794e-14 -2.33794e-14)
(-5.08503e-31 -5.80596e-15 0)
(3.78691e-31 2.0323e-14 2.0323e-14)
(1.78404e-31 -1.54266e-15 -0)
(-4.50413e-30 -1.3224e-13 -1.3224e-13)
(-1.40246e-30 -1.14438e-14 0)
(-6.31618e-16 -2.19605e-07 -2.19605e-07)
(-1.85237e-16 2.71472e-07 -0)
(-1.04271e-17 -6.44105e-08 -6.44105e-08)
(-5.86997e-19 1.52817e-08 -0)
(-3.30201e-20 -3.62569e-09 -3.62569e-09)
(-1.86297e-21 8.60143e-10 -0)
(-1.0398e-22 -2.04137e-10 -2.04137e-10)
(-6.03566e-24 4.84732e-11 -0)
(-3.02911e-25 -1.14184e-11 -1.14184e-11)
(-2.43319e-26 2.79501e-12 -0)
(-1.16551e-28 -5.69748e-13 -5.69748e-13)
(-2.59584e-28 1.87875e-13 -0)
(4.17021e-30 -7.0684e-15 -7.0684e-15)
(-2.81878e-29 5.66188e-14 -0)
(-1.8703e-29 5.45254e-14 5.45254e-14)
(-1.42097e-30 6.17934e-15 -0)
(8.93856e-30 -6.68265e-14 -6.68265e-14)
(1.19478e-30 -1.15114e-14 -0)
(2.21099e-31 -1.18593e-14 -1.18593e-14)
(-5.68652e-33 -3.8418e-16 0)
(-6.28174e-16 2.1898e-07 2.1898e-07)
(-1.84266e-16 -2.70752e-07 0)
(-1.03733e-17 6.42399e-08 6.42399e-08)
(-5.83774e-19 -1.52414e-08 0)
(-3.28927e-20 3.61611e-09 3.61611e-09)
(-1.84423e-21 -8.58012e-10 0)
(-1.05246e-22 2.03421e-10 2.03421e-10)
(-5.66277e-24 -4.84653e-11 0)
(-3.6661e-25 1.13904e-11 1.13904e-11)
(-1.18275e-26 -2.75517e-12 0)
(-2.37102e-27 6.67913e-13 6.67913e-13)
(2.24225e-28 -2.17473e-13 -0)
(-2.38492e-29 2.16004e-14 2.16004e-14)
(2.96072e-30 -4.1999e-15 -0)
(2.13152e-29 -4.09898e-14 -4.09898e-14)
(-4.8945e-30 1.65885e-14 -0)
(-5.03173e-30 3.4992e-14 3.4992e-14)
(3.25818e-32 -3.16721e-16 -0)
(-7.55806e-30 5.37445e-14 5.37445e-14)
(-3.16304e-31 3.22047e-15 -0)
(-6.25038e-16 -2.18421e-07 -2.18421e-07)
(-1.8337e-16 2.70086e-07 -0)
(-1.03218e-17 -6.40825e-08 -6.40825e-08)
(-5.81223e-19 1.52041e-08 -0)
(-3.26666e-20 -3.60731e-09 -3.60731e-09)
(-1.84947e-21 8.55901e-10 -0)
(-1.02025e-22 -2.03086e-10 -2.03086e-10)
(-6.11728e-24 4.80631e-11 -0)
(-2.78576e-25 -1.15194e-11 -1.15194e-11)
(-2.72369e-26 2.67436e-12 -0)
(6.63902e-28 -7.10668e-13 -7.10668e-13)
(-3.81826e-28 1.68606e-13 -0)
(6.09926e-29 -4.82153e-14 -4.82153e-14)
(6.53703e-29 -6.74411e-14 -0)
(4.52315e-29 -7.65865e-14 -7.65865e-14)
(1.4262e-29 -3.00582e-14 -0)
(1.09328e-29 -3.76976e-14 -3.76976e-14)
(2.03436e-30 -2.08645e-14 -0)
(4.85362e-31 -5.96509e-15 -5.96509e-15)
(1.47728e-30 -3.9027e-14 -0)
(-6.21632e-16 2.17782e-07 2.17782e-07)
(-1.82432e-16 -2.69383e-07 0)
(-1.02712e-17 6.39163e-08 6.39163e-08)
(-5.77865e-19 -1.51647e-08 0)
(-3.26018e-20 3.59806e-09 3.59806e-09)
(-1.82089e-21 -8.53628e-10 0)
(-1.05184e-22 2.02582e-10 2.02582e-10)
(-5.43142e-24 -4.79551e-11 0)
(-3.91367e-25 1.14293e-11 1.14293e-11)
(-7.29263e-27 -2.64038e-12 0)
(-3.19693e-27 6.97108e-13 6.97108e-13)
(2.42477e-28 -1.37018e-13 -0)
(-1.33672e-29 8.40972e-15 8.40972e-15)
(6.05863e-29 -5.82218e-14 -0)
(1.52316e-29 -2.06887e-14 -2.06887e-14)
(1.76668e-29 -3.13979e-14 -0)
(1.46341e-29 -3.46573e-14 -3.46573e-14)
(7.52809e-30 -3.48361e-14 -0)
(1.25465e-30 -1.69802e-14 -1.69802e-14)
(-6.98472e-31 1.50864e-14 -0)
(-6.18837e-16 -2.17307e-07 -2.17307e-07)
(-1.81603e-16 2.68768e-07 -0)
(-1.02212e-17 -6.3771e-08 -6.3771e-08)
(-5.75879e-19 1.51305e-08 -0)
(-3.23129e-20 -3.58991e-09 -3.58991e-09)
(-1.83756e-21 8.51763e-10 -0)
(-1.00165e-22 -2.01999e-10 -2.01999e-10)
(-6.19146e-24 4.80069e-11 -0)
(-2.56193e-25 -1.13471e-11 -1.13471e-11)
(-2.85543e-26 2.62168e-12 -0)
(8.27286e-28 -6.89693e-13 -6.89693e-13)
(-3.97524e-28 1.67847e-13 -0)
(6.46895e-29 -5.16826e-14 -5.16826e-14)
(-9.68769e-29 9.32954e-14 -0)
(-2.68958e-29 3.24293e-14 3.24293e-14)
(5.85243e-30 -1.06499e-14 -0)
(1.35267e-29 -2.99383e-14 -2.99383e-14)
(2.43715e-29 -9.74284e-14 -0)
(4.57891e-31 -2.33185e-14 -2.33185e-14)
(6.20809e-32 -3.65989e-15 -0)
(-6.1509e-16 2.16556e-07 2.16556e-07)
(-1.80629e-16 -2.68024e-07 0)
(-1.0174e-17 6.3595e-08 6.3595e-08)
(-5.71892e-19 -1.5089e-08 0)
(-3.23484e-20 3.57998e-09 3.57998e-09)
(-1.79883e-21 -8.49457e-10 0)
(-1.04719e-22 2.01512e-10 2.01512e-10)
(-5.3662e-24 -4.78007e-11 0)
(-3.86483e-25 1.13443e-11 1.13443e-11)
(-8.61933e-27 -2.73118e-12 0)
(-2.68854e-27 6.64458e-13 6.64458e-13)
(1.89903e-28 -1.43837e-13 -0)
(-3.07322e-29 2.45348e-14 2.45348e-14)
(-3.78927e-29 5.03581e-14 -0)
(-1.8544e-29 2.75962e-14 2.75962e-14)
(-9.21627e-30 1.89508e-14 -0)
(-7.69371e-30 2.40894e-14 2.40894e-14)
(-5.67661e-30 3.06645e-14 -0)
(1.26592e-30 -1.50838e-14 -1.50838e-14)
(4.05243e-31 -1.18208e-14 -0)
(-6.14771e-16 -2.169e-07 -2.169e-07)
(-1.8017e-16 2.6785e-07 -0)
(-1.01352e-17 -6.36024e-08 -6.36024e-08)
(-5.72064e-19 1.51021e-08 -0)
(-3.20286e-20 -3.58597e-09 -3.58597e-09)
(-1.82315e-21 8.51428e-10 -0)
(-9.97468e-23 -2.02211e-10 -2.02211e-10)
(-6.00776e-24 4.80103e-11 -0)
(-2.77121e-25 -1.14082e-11 -1.14082e-11)
(-2.48729e-26 2.71679e-12 -0)
(1.13339e-28 -6.8266e-13 -6.8266e-13)
(-1.9698e-28 1.29975e-13 -0)
(6.74421e-29 -1.0334e-13 -1.0334e-13)
(1.27592e-29 -2.64645e-14 -0)
(-2.49036e-30 6.4188e-15 6.4188e-15)
(1.57885e-29 -5.73581e-14 -0)
(1.14885e-30 -1.34449e-14 -1.34449e-14)
(-4.89602e-30 3.47695e-14 -0)
(-3.39112e-30 2.09208e-14 2.09208e-14)
(1.90372e-30 -2.41064e-14 -0)
(-6.12636e-16 2.1668e-07 2.1668e-07)
(-1.79081e-16 -2.67205e-07 0)
(-1.00927e-17 6.33981e-08 6.33981e-08)
(-5.69189e-19 -1.50882e-08 0)
(-3.20637e-20 3.57248e-09 3.57248e-09)
(-1.8175e-21 -8.56916e-10 0)
(-1.01571e-22 1.99532e-10 1.99532e-10)
(-5.9289e-24 -5.03275e-11 0)
(-3.03724e-25 1.0159e-11 1.0159e-11)
(-2.13458e-26 -3.60816e-12 0)
(-1.60385e-28 7.23152e-14 7.23152e-14)
(-2.58032e-29 -6.01794e-13 0)
(4.47962e-29 -1.68605e-13 -1.68605e-13)
(3.31873e-29 -1.97049e-13 -0)
(2.16787e-29 -1.12586e-13 -1.12586e-13)
(8.74415e-30 -6.8982e-14 -0)
(2.76284e-30 -6.16253e-14 -6.16253e-14)
(1.53771e-30 -2.92295e-14 -0)
(7.13184e-31 -3.02345e-14 -3.02345e-14)
(6.73417e-31 -3.15953e-14 -0)
)
;

boundaryField
{
    movingWall
    {
        type            calculated;
        value           nonuniform List<vector> 
20
(
(0 2.14861e-07 -0)
(0 -2.67444e-07 -0)
(0 6.35004e-08 -0)
(0 -1.5199e-08 -0)
(0 3.59344e-09 -0)
(0 -8.7446e-10 -0)
(0 1.99696e-10 -0)
(0 -5.38216e-11 -0)
(0 9.14623e-12 -0)
(0 -4.63308e-12 -0)
(0 -4.34094e-13 -0)
(0 -9.94578e-13 -0)
(0 -3.7855e-13 -0)
(0 -4.51403e-13 -0)
(0 -2.7062e-13 -0)
(0 -1.47999e-13 -0)
(0 -9.6233e-14 -0)
(0 -2.12445e-15 -0)
(0 -4.75384e-14 -0)
(0 -4.88991e-14 -0)
)
;
    }
    fixedWalls
    {
        type            calculated;
        value           nonuniform List<vector> 
60
(
(0 -1.17867e-06 -0)
(0 1.17934e-06 -0)
(0 -1.17885e-06 -0)
(0 1.17919e-06 -0)
(0 -1.1769e-06 -0)
(0 1.17412e-06 -0)
(0 -1.17065e-06 -0)
(0 1.16726e-06 -0)
(0 -1.16373e-06 -0)
(0 1.16035e-06 -0)
(0 -1.157e-06 -0)
(0 1.15377e-06 -0)
(0 -1.15069e-06 -0)
(0 1.14763e-06 -0)
(0 -1.1448e-06 -0)
(0 1.14182e-06 -0)
(0 -1.1392e-06 -0)
(0 1.13605e-06 -0)
(0 -1.13447e-06 -0)
(0 1.13191e-06 -0)
(0 3.33094e-14 -0)
(0 3.71734e-14 -0)
(0 2.71587e-14 -0)
(0 4.93217e-14 -0)
(0 1.00312e-15 -0)
(0 1.86743e-14 -0)
(0 -1.09619e-14 -0)
(0 -9.78574e-15 -0)
(0 3.67348e-14 -0)
(0 1.1377e-14 -0)
(0 8.76911e-15 -0)
(0 2.19158e-14 -0)
(0 5.92069e-15 -0)
(0 -1.21816e-14 -0)
(0 -4.22461e-14 -0)
(0 8.58575e-15 -0)
(0 -6.78501e-15 -0)
(0 -1.37129e-14 -0)
(0 -3.15885e-14 -0)
(0 -3.56306e-14 -0)
(0 -2.24847e-07 -0)
(0 2.78917e-07 -0)
(0 -6.62962e-08 -0)
(0 1.58952e-08 -0)
(0 -3.7518e-09 -0)
(0 9.19497e-10 -0)
(0 -2.07054e-10 -0)
(0 5.78141e-11 -0)
(0 -8.46409e-12 -0)
(0 5.85661e-12 -0)
(0 1.17142e-12 -0)
(0 1.40859e-12 -0)
(0 8.36292e-13 -0)
(0 6.47733e-13 -0)
(0 4.14069e-13 -0)
(0 2.35576e-13 -0)
(0 2.22745e-13 -0)
(0 1.33692e-13 -0)
(0 9.11061e-14 -0)
(0 1.68814e-14 -0)
)
;
    }
    frontAndBack
    {
        type            empty;
    }
}


// ************************************************************************* //
