/*--------------------------------*- C++ -*----------------------------------*\
| =========                 |                                                 |
| \\      /  F ield         | OpenFOAM: The Open Source CFD Toolbox           |
|  \\    /   O peration     | Version:  2312                                  |
|   \\  /    A nd           | Website:  www.openfoam.com                      |
|    \\/     M anipulation  |                                                 |
\*---------------------------------------------------------------------------*/
FoamFile
{
    version     2.0;
    format      ascii;
    arch        "LSB;label=32;scalar=64";
    class       volScalarField;
    location    "5";
    object      Lambda2Field;
}
// * * * * * * * * * * * * * * * * * * * * * * * * * * * * * * * * * * * * * //

dimensions      [0 0 -2 0 0 0 0];

internalField   nonuniform List<scalar> 
400
(
6.82923e-19
-5.55784e-17
0
-8.41791e-19
0
-9.30865e-21
4.91361e-22
-1.48867e-22
1.97613e-23
-3.59343e-24
6.40054e-25
-6.54487e-26
2.94886e-26
4.0006e-27
3.88202e-27
2.79653e-28
6.58751e-28
7.09439e-28
6.10635e-28
3.10489e-28
2.87455e-16
1.23592e-17
2.00997e-18
-4.67389e-19
0
-4.99328e-21
9.84878e-23
-5.24864e-23
4.27644e-24
-8.34374e-25
2.08751e-25
3.89647e-26
3.33587e-26
1.38242e-26
4.37106e-27
1.53128e-27
2.05919e-27
5.94366e-28
1.74171e-27
0
3.88074e-16
9.50752e-17
8.62295e-18
5.33984e-19
2.07133e-20
4.38072e-21
0
5.3892e-23
0
1.2422e-24
0
8.23719e-26
1.15737e-26
1.20306e-26
9.09759e-27
4.32018e-27
1.07487e-27
0
0
0
1.84149e-16
4.58466e-17
3.61518e-18
1.89813e-19
1.6759e-20
-2.09065e-22
2.59086e-22
-3.16267e-23
6.39815e-24
-7.00102e-25
2.04121e-25
7.17674e-27
2.42657e-26
1.36028e-26
4.85449e-27
2.79767e-27
1.70026e-27
-9.24462e-28
1.28029e-27
0
8.34477e-17
1.99476e-17
1.61985e-18
8.50058e-20
3.6907e-21
9.61084e-22
0
3.00128e-23
0
1.02411e-24
0
6.8205e-26
1.05285e-26
5.75382e-27
4.21171e-27
3.83049e-27
3.87924e-27
4.65773e-27
7.05392e-28
2.0846e-28
0
0
0
0
6.90985e-22
-3.52889e-22
1.06922e-22
-2.11404e-23
4.46326e-24
-6.56087e-25
1.88751e-25
2.90089e-27
1.53823e-26
8.53796e-27
0
3.17406e-27
0
0
4.41194e-28
0
0
-4.97883e-18
0
-3.04406e-20
0
-2.23308e-23
0
1.09197e-23
0
8.44534e-25
0
3.25146e-26
1.71149e-26
1.30419e-26
6.85491e-27
3.53941e-28
7.34684e-28
-3.18997e-27
0
3.19485e-28
0
-9.98877e-18
0
-4.91002e-20
0
-4.08424e-22
1.45024e-23
-1.18299e-23
2.08895e-24
-1.74708e-25
1.42258e-25
8.52498e-28
1.39241e-26
5.12632e-27
7.9617e-27
3.98729e-27
4.02161e-27
0
0
0
0
-1.20127e-17
0
-6.19697e-20
0
-3.51817e-22
0
1.93217e-25
0
2.09975e-25
6.67269e-26
5.26054e-27
3.65499e-27
4.00089e-28
0
-3.29823e-27
0
7.33032e-28
9.7921e-29
0
0
-1.29722e-17
0
-6.44683e-20
0
-2.58834e-22
0
2.66805e-24
0
1.7332e-25
4.70198e-26
1.83671e-26
1.40946e-26
0
4.57075e-27
2.25929e-27
0
0
2.96307e-28
0
0
-1.29131e-17
0
-6.5069e-20
0
-3.46761e-22
0
-1.83658e-24
6.61216e-27
4.55427e-26
0
2.04818e-26
0
3.09092e-27
7.34684e-28
1.42557e-27
6.18613e-28
1.01871e-27
0
8.85664e-29
0
-1.19414e-17
0
-6.03018e-20
0
-2.73522e-22
0
1.32352e-24
4.75471e-25
1.83671e-26
4.25148e-26
1.77543e-26
5.83954e-27
4.39307e-27
3.60588e-27
7.34684e-28
1.54945e-27
0
0
4.25006e-28
0
-1.07037e-17
0
-5.16015e-20
0
-2.65767e-22
1.35843e-24
-8.7019e-24
1.88636e-24
-3.81085e-25
1.45556e-25
5.07177e-27
1.36739e-26
2.00819e-27
5.11715e-27
2.0313e-27
0
0
0
4.87389e-28
0
-8.39263e-18
0
-4.33594e-20
0
-9.67441e-23
0
2.63098e-24
0
3.28838e-25
0
1.32415e-26
6.44103e-27
3.9011e-27
1.033e-27
2.03947e-27
1.04181e-27
0
7.59923e-28
6.75118e-28
0
-6.97227e-18
0
-3.4757e-20
0
-4.57766e-22
5.61259e-23
-1.13097e-23
2.24809e-24
-3.72484e-25
7.10124e-26
9.72221e-28
1.347e-26
1.12667e-27
0
7.16208e-28
1.13064e-27
1.28206e-28
0
0
0
-2.93845e-18
0
-1.02743e-20
0
4.63168e-22
0
2.62911e-23
0
9.69608e-25
0
4.8732e-26
5.92832e-27
2.36053e-27
1.97259e-27
5.63257e-29
5.621e-28
0
0
3.25767e-28
0
-4.32143e-18
0
-3.39046e-20
1.78911e-21
-1.03337e-21
1.71498e-22
-3.18835e-23
5.44384e-24
-5.78486e-25
1.45226e-25
1.17115e-27
1.15494e-26
6.4579e-27
3.97517e-27
1.02335e-27
0
-2.33327e-27
1.36946e-28
1.44385e-30
1.87887e-17
2.95466e-18
5.14429e-19
8.29729e-20
0
1.84925e-21
0
3.69979e-23
0
8.32122e-25
0
4.44728e-26
5.35179e-27
9.23384e-27
3.58138e-27
2.6461e-27
3.1202e-27
1.39595e-27
2.59819e-28
0
0
-9.25206e-17
0
-8.96581e-19
0
-6.38375e-21
0
-5.18118e-23
2.52454e-24
-5.86738e-25
9.81223e-26
1.44103e-26
1.17549e-26
3.41107e-27
1.29539e-27
0
0
-3.21521e-29
3.1345e-28
1.68179e-30
0
-1.0293e-16
0
-9.90099e-19
0
-8.64856e-21
1.87437e-22
-1.15051e-22
1.25304e-23
-2.22082e-24
3.606e-25
-5.7684e-26
1.06212e-26
0
6.08738e-27
0
3.32706e-28
0
0
0
)
;

boundaryField
{
    movingWall
    {
        type            calculated;
        value           nonuniform List<scalar> 
20
(
1.84883e-16
0
0
0
0
0
1.54521e-22
0
2.38629e-23
0
6.88779e-25
-1.37682e-25
1.50574e-26
0
1.06449e-26
0
7.60838e-29
0
0
0
)
;
    }
    fixedWalls
    {
        type            calculated;
        value           nonuniform List<scalar> 
60
(
3.39642e-18
1.50836e-15
2.05731e-15
9.56462e-16
4.94142e-16
0
0
-2.16788e-16
0
-2.77639e-16
0
-2.53352e-16
0
-1.76274e-16
0
-5.75712e-17
0
9.7384e-17
0
-1.08729e-15
0
2.36445e-30
0
0
2.08711e-28
2.42843e-28
4.37561e-28
0
1.04338e-28
0
1.07791e-28
1.32922e-27
4.96152e-28
1.09259e-27
6.27393e-29
5.01967e-28
1.29529e-29
0
2.5114e-28
0
0
0
0
0
0
0
5.63778e-22
0
3.93074e-23
-3.06736e-24
1.23988e-24
-1.91752e-25
3.27576e-26
-4.41471e-27
8.61075e-28
-6.57272e-29
5.79173e-28
6.72642e-28
5.31442e-28
7.34684e-28
)
;
    }
    frontAndBack
    {
        type            empty;
    }
}


// ************************************************************************* //
