/*--------------------------------*- C++ -*----------------------------------*\
| =========                 |                                                 |
| \\      /  F ield         | OpenFOAM: The Open Source CFD Toolbox           |
|  \\    /   O peration     | Version:  2312                                  |
|   \\  /    A nd           | Website:  www.openfoam.com                      |
|    \\/     M anipulation  |                                                 |
\*---------------------------------------------------------------------------*/
FoamFile
{
    version     2.0;
    format      ascii;
    arch        "LSB;label=32;scalar=64";
    class       volVectorField;
    location    "5";
    object      momentum1:momentum;
}
// * * * * * * * * * * * * * * * * * * * * * * * * * * * * * * * * * * * * * //

dimensions      [1 1 -1 0 0 0 0];

internalField   nonuniform List<vector> 
400
(
(-2.5e-07 7.36672e-16 0)
(-2.5e-07 -1.74802e-16 0)
(-2.5e-07 4.15562e-17 0)
(-2.5e-07 -9.85149e-18 0)
(-2.5e-07 2.34799e-18 0)
(-2.5e-07 -5.54584e-19 0)
(-2.5e-07 1.33621e-19 0)
(-2.5e-07 -3.07316e-20 0)
(-2.5e-07 7.95932e-21 0)
(-2.5e-07 -1.46677e-21 0)
(-2.5e-07 6.45275e-22 0)
(-2.5e-07 4.55703e-23 0)
(-2.5e-07 1.21396e-22 0)
(-2.5e-07 6.4263e-23 0)
(-2.5e-07 5.63765e-23 0)
(-2.5e-07 2.829e-23 0)
(-2.5e-07 2.25492e-23 0)
(-2.5e-07 2.65391e-23 0)
(-2.5e-07 2.1385e-23 0)
(-2.5e-07 2.08184e-23 0)
(-2.5e-07 -7.37884e-16 0)
(-2.5e-07 1.75393e-16 0)
(-2.5e-07 -4.15611e-17 0)
(-2.5e-07 9.89692e-18 0)
(-2.5e-07 -2.3332e-18 0)
(-2.5e-07 5.61515e-19 0)
(-2.5e-07 -1.28602e-19 0)
(-2.5e-07 3.32309e-20 0)
(-2.5e-07 -6.15607e-21 0)
(-2.5e-07 2.62036e-21 0)
(-2.5e-07 2.13175e-22 0)
(-2.5e-07 5.40767e-22 0)
(-2.5e-07 2.81433e-22 0)
(-2.5e-07 2.18749e-22 0)
(-2.5e-07 1.42122e-22 0)
(-2.5e-07 8.66402e-23 0)
(-2.5e-07 6.86497e-23 0)
(-2.5e-07 8.05905e-23 0)
(-2.5e-07 5.73849e-23 0)
(-2.5e-07 2.32334e-23 0)
(-2.5e-07 7.37855e-16 0)
(-2.5e-07 -1.75253e-16 0)
(-2.5e-07 4.16226e-17 0)
(-2.5e-07 -9.86443e-18 0)
(-2.5e-07 2.35652e-18 0)
(-2.5e-07 -5.50786e-19 0)
(-2.5e-07 1.36498e-19 0)
(-2.5e-07 -2.87695e-20 0)
(-2.5e-07 9.25569e-21 0)
(-2.5e-07 -5.57083e-22 0)
(-2.5e-07 1.30906e-21 0)
(-2.5e-07 5.52922e-22 0)
(-2.5e-07 4.949e-22 0)
(-2.5e-07 3.24111e-22 0)
(-2.5e-07 2.38616e-22 0)
(-2.5e-07 1.61198e-22 0)
(-2.5e-07 1.11201e-22 0)
(-2.5e-07 7.33165e-23 0)
(-2.5e-07 6.11942e-23 0)
(-2.5e-07 1.69742e-23 0)
(-2.5e-07 -7.375e-16 0)
(-2.5e-07 1.75075e-16 0)
(-2.5e-07 -4.15386e-17 0)
(-2.5e-07 9.86883e-18 0)
(-2.5e-07 -2.33327e-18 0)
(-2.5e-07 5.60868e-19 0)
(-2.5e-07 -1.27877e-19 0)
(-2.5e-07 3.41043e-20 0)
(-2.5e-07 -5.41866e-21 0)
(-2.5e-07 3.17343e-21 0)
(-2.5e-07 6.0562e-22 0)
(-2.5e-07 8.53963e-22 0)
(-2.5e-07 5.3804e-22 0)
(-2.5e-07 4.19891e-22 0)
(-2.5e-07 3.28116e-22 0)
(-2.5e-07 2.29899e-22 0)
(-2.5e-07 1.37839e-22 0)
(-2.5e-07 7.30776e-23 0)
(-2.5e-07 6.13245e-23 0)
(-2.5e-07 3.08261e-23 0)
(-2.5e-07 7.35785e-16 0)
(-2.5e-07 -1.74605e-16 0)
(-2.5e-07 4.14387e-17 0)
(-2.5e-07 -9.82616e-18 0)
(-2.5e-07 2.33826e-18 0)
(-2.5e-07 -5.49409e-19 0)
(-2.5e-07 1.34747e-19 0)
(-2.5e-07 -2.85954e-20 0)
(-2.5e-07 9.38002e-21 0)
(-2.5e-07 -2.64383e-22 0)
(-2.5e-07 1.51262e-21 0)
(-2.5e-07 6.84748e-22 0)
(-2.5e-07 6.14554e-22 0)
(-2.5e-07 4.41978e-22 0)
(-2.5e-07 3.49206e-22 0)
(-2.5e-07 2.47747e-22 0)
(-2.5e-07 1.72556e-22 0)
(-2.5e-07 1.28481e-22 0)
(-2.5e-07 7.12289e-23 0)
(-2.5e-07 6.26947e-25 0)
(-2.5e-07 -7.33814e-16 0)
(-2.5e-07 1.74112e-16 0)
(-2.5e-07 -4.1308e-17 0)
(-2.5e-07 9.80538e-18 0)
(-2.5e-07 -2.32192e-18 0)
(-2.5e-07 5.55024e-19 0)
(-2.5e-07 -1.28189e-19 0)
(-2.5e-07 3.32762e-20 0)
(-2.5e-07 -5.60721e-21 0)
(-2.5e-07 3.11619e-21 0)
(-2.5e-07 6.1719e-22 0)
(-2.5e-07 8.7117e-22 0)
(-2.5e-07 5.77231e-22 0)
(-2.5e-07 4.61494e-22 0)
(-2.5e-07 3.17305e-22 0)
(-2.5e-07 2.25331e-22 0)
(-2.5e-07 1.70927e-22 0)
(-2.5e-07 1.13651e-22 0)
(-2.5e-07 4.33799e-23 0)
(-2.5e-07 -5.26925e-24 0)
(-2.5e-07 7.31563e-16 0)
(-2.5e-07 -1.73561e-16 0)
(-2.5e-07 4.11819e-17 0)
(-2.5e-07 -9.76745e-18 0)
(-2.5e-07 2.32048e-18 0)
(-2.5e-07 -5.47553e-19 0)
(-2.5e-07 1.32569e-19 0)
(-2.5e-07 -2.92009e-20 0)
(-2.5e-07 8.75835e-21 0)
(-2.5e-07 -6.06841e-22 0)
(-2.5e-07 1.30036e-21 0)
(-2.5e-07 6.02706e-22 0)
(-2.5e-07 5.67562e-22 0)
(-2.5e-07 4.1912e-22 0)
(-2.5e-07 3.16954e-22 0)
(-2.5e-07 2.43083e-22 0)
(-2.5e-07 1.70042e-22 0)
(-2.5e-07 8.41561e-23 0)
(-2.5e-07 1.93779e-23 0)
(-2.5e-07 1.00895e-23 0)
(-2.5e-07 -7.29391e-16 0)
(-2.5e-07 1.7304e-16 0)
(-2.5e-07 -4.10534e-17 0)
(-2.5e-07 9.74163e-18 0)
(-2.5e-07 -2.30889e-18 0)
(-2.5e-07 5.49899e-19 0)
(-2.5e-07 -1.28515e-19 0)
(-2.5e-07 3.2213e-20 0)
(-2.5e-07 -6.19619e-21 0)
(-2.5e-07 2.64227e-21 0)
(-2.5e-07 3.03372e-22 0)
(-2.5e-07 6.82147e-22 0)
(-2.5e-07 4.36181e-22 0)
(-2.5e-07 3.44941e-22 0)
(-2.5e-07 2.34412e-22 0)
(-2.5e-07 1.78297e-22 0)
(-2.5e-07 1.43442e-22 0)
(-2.5e-07 9.17074e-23 0)
(-2.5e-07 2.34983e-23 0)
(-2.5e-07 -6.11609e-24 0)
(-2.5e-07 7.27166e-16 0)
(-2.5e-07 -1.72507e-16 0)
(-2.5e-07 4.09291e-17 0)
(-2.5e-07 -9.70886e-18 0)
(-2.5e-07 2.30458e-18 0)
(-2.5e-07 -5.45406e-19 0)
(-2.5e-07 1.30667e-19 0)
(-2.5e-07 -2.9852e-20 0)
(-2.5e-07 8.05126e-21 0)
(-2.5e-07 -1.08575e-21 0)
(-2.5e-07 9.5554e-22 0)
(-2.5e-07 3.31298e-22 0)
(-2.5e-07 3.51107e-22 0)
(-2.5e-07 2.40381e-22 0)
(-2.5e-07 1.8089e-22 0)
(-2.5e-07 1.0613e-22 0)
(-2.5e-07 5.68996e-23 0)
(-2.5e-07 2.7307e-23 0)
(-2.5e-07 1.67374e-23 0)
(-2.5e-07 6.01857e-24 0)
(-2.5e-07 -7.25043e-16 0)
(-2.5e-07 1.72003e-16 0)
(-2.5e-07 -4.0808e-17 0)
(-2.5e-07 9.68188e-18 0)
(-2.5e-07 -2.29614e-18 0)
(-2.5e-07 5.4549e-19 0)
(-2.5e-07 -1.28719e-19 0)
(-2.5e-07 3.11141e-20 0)
(-2.5e-07 -6.89725e-21 0)
(-2.5e-07 2.05007e-21 0)
(-2.5e-07 -1.24019e-22 0)
(-2.5e-07 3.05015e-22 0)
(-2.5e-07 1.19752e-22 0)
(-2.5e-07 1.52318e-22 0)
(-2.5e-07 1.59035e-22 0)
(-2.5e-07 1.16336e-22 0)
(-2.5e-07 6.01228e-23 0)
(-2.5e-07 2.4021e-23 0)
(-2.5e-07 1.50105e-23 0)
(-2.5e-07 7.11063e-24 0)
(-2.5e-07 7.22957e-16 0)
(-2.5e-07 -1.71509e-16 0)
(-2.5e-07 4.06912e-17 0)
(-2.5e-07 -9.65355e-18 0)
(-2.5e-07 2.29018e-18 0)
(-2.5e-07 -5.43299e-19 0)
(-2.5e-07 1.28909e-19 0)
(-2.5e-07 -3.05363e-20 0)
(-2.5e-07 7.31459e-21 0)
(-2.5e-07 -1.66799e-21 0)
(-2.5e-07 4.80957e-22 0)
(-2.5e-07 -1.23092e-23 0)
(-2.5e-07 7.55329e-23 0)
(-2.5e-07 4.12374e-23 0)
(-2.5e-07 6.14968e-23 0)
(-2.5e-07 7.93815e-23 0)
(-2.5e-07 6.16326e-23 0)
(-2.5e-07 2.31665e-23 0)
(-2.5e-07 9.02148e-24 0)
(-2.5e-07 5.4807e-24 0)
(-2.5e-07 -7.20951e-16 0)
(-2.5e-07 1.71036e-16 0)
(-2.5e-07 -4.05794e-17 0)
(-2.5e-07 9.62662e-18 0)
(-2.5e-07 -2.2844e-18 0)
(-2.5e-07 5.41367e-19 0)
(-2.5e-07 -1.28985e-19 0)
(-2.5e-07 3.01244e-20 0)
(-2.5e-07 -7.52179e-21 0)
(-2.5e-07 1.51655e-21 0)
(-2.5e-07 -5.25346e-22 0)
(-2.5e-07 3.47083e-23 0)
(-2.5e-07 -7.4868e-23 0)
(-2.5e-07 -3.65526e-23 0)
(-2.5e-07 -9.8565e-24 0)
(-2.5e-07 2.18957e-23 0)
(-2.5e-07 4.6584e-24 0)
(-2.5e-07 -2.89118e-23 0)
(-2.5e-07 8.51505e-24 0)
(-2.5e-07 3.06381e-23 0)
(-2.5e-07 7.1904e-16 0)
(-2.5e-07 -1.70586e-16 0)
(-2.5e-07 4.04714e-17 0)
(-2.5e-07 -9.60291e-18 0)
(-2.5e-07 2.27682e-18 0)
(-2.5e-07 -5.41471e-19 0)
(-2.5e-07 1.27341e-19 0)
(-2.5e-07 -3.11289e-20 0)
(-2.5e-07 6.63209e-21 0)
(-2.5e-07 -2.17637e-21 0)
(-2.5e-07 5.11415e-23 0)
(-2.5e-07 -3.45422e-22 0)
(-2.5e-07 -1.47495e-22 0)
(-2.5e-07 -1.24463e-22 0)
(-2.5e-07 -8.57537e-23 0)
(-2.5e-07 -5.74888e-23 0)
(-2.5e-07 -3.34394e-23 0)
(-2.5e-07 -2.59478e-23 0)
(-2.5e-07 -4.66088e-24 0)
(-2.5e-07 3.70043e-24 0)
(-2.5e-07 -7.17159e-16 0)
(-2.5e-07 1.70143e-16 0)
(-2.5e-07 -4.03694e-17 0)
(-2.5e-07 9.57546e-18 0)
(-2.5e-07 -2.27404e-18 0)
(-2.5e-07 5.37357e-19 0)
(-2.5e-07 -1.29345e-19 0)
(-2.5e-07 2.92105e-20 0)
(-2.5e-07 -8.04645e-21 0)
(-2.5e-07 1.07321e-21 0)
(-2.5e-07 -8.87473e-22 0)
(-2.5e-07 -2.57762e-22 0)
(-2.5e-07 -2.76028e-22 0)
(-2.5e-07 -1.76238e-22 0)
(-2.5e-07 -1.30003e-22 0)
(-2.5e-07 -7.37633e-23 0)
(-2.5e-07 -3.59491e-23 0)
(-2.5e-07 -2.57181e-23 0)
(-2.5e-07 -3.51573e-23 0)
(-2.5e-07 -2.45541e-23 0)
(-2.5e-07 7.15407e-16 0)
(-2.5e-07 -1.69733e-16 0)
(-2.5e-07 4.02676e-17 0)
(-2.5e-07 -9.55699e-18 0)
(-2.5e-07 2.26392e-18 0)
(-2.5e-07 -5.40212e-19 0)
(-2.5e-07 1.25594e-19 0)
(-2.5e-07 -3.1819e-20 0)
(-2.5e-07 6.04578e-21 0)
(-2.5e-07 -2.54611e-21 0)
(-2.5e-07 -2.33549e-22 0)
(-2.5e-07 -5.6615e-22 0)
(-2.5e-07 -3.16251e-22 0)
(-2.5e-07 -2.42324e-22 0)
(-2.5e-07 -1.47648e-22 0)
(-2.5e-07 -1.1862e-22 0)
(-2.5e-07 -7.2503e-23 0)
(-2.5e-07 -2.43759e-23 0)
(-2.5e-07 -2.03418e-23 0)
(-2.5e-07 -9.46317e-24 0)
(-2.5e-07 -7.13596e-16 0)
(-2.5e-07 1.69306e-16 0)
(-2.5e-07 -4.01746e-17 0)
(-2.5e-07 9.52648e-18 0)
(-2.5e-07 -2.26523e-18 0)
(-2.5e-07 5.3328e-19 0)
(-2.5e-07 -1.29804e-19 0)
(-2.5e-07 2.83151e-20 0)
(-2.5e-07 -8.56061e-21 0)
(-2.5e-07 6.90489e-22 0)
(-2.5e-07 -1.1465e-21 0)
(-2.5e-07 -4.42416e-22 0)
(-2.5e-07 -3.97374e-22 0)
(-2.5e-07 -2.60153e-22 0)
(-2.5e-07 -1.84057e-22 0)
(-2.5e-07 -1.40668e-22 0)
(-2.5e-07 -1.05562e-22 0)
(-2.5e-07 -5.40251e-23 0)
(-2.5e-07 -1.84722e-23 0)
(-2.5e-07 -1.15746e-23 0)
(-2.5e-07 7.11939e-16 0)
(-2.5e-07 -1.68922e-16 0)
(-2.5e-07 4.007e-17 0)
(-2.5e-07 -9.51519e-18 0)
(-2.5e-07 2.25026e-18 0)
(-2.5e-07 -5.39341e-19 0)
(-2.5e-07 1.23968e-19 0)
(-2.5e-07 -3.22426e-20 0)
(-2.5e-07 5.64446e-21 0)
(-2.5e-07 -2.7229e-21 0)
(-2.5e-07 -2.99875e-22 0)
(-2.5e-07 -5.92092e-22 0)
(-2.5e-07 -3.12917e-22 0)
(-2.5e-07 -2.59597e-22 0)
(-2.5e-07 -2.07342e-22 0)
(-2.5e-07 -1.37383e-22 0)
(-2.5e-07 -1.12955e-22 0)
(-2.5e-07 -6.25369e-23 0)
(-2.5e-07 -4.90909e-24 0)
(-2.5e-07 -4.24063e-24 0)
(-2.5e-07 -7.10082e-16 0)
(-2.5e-07 1.68482e-16 0)
(-2.5e-07 -3.99951e-17 0)
(-2.5e-07 9.47535e-18 0)
(-2.5e-07 -2.25898e-18 0)
(-2.5e-07 5.29406e-19 0)
(-2.5e-07 -1.29916e-19 0)
(-2.5e-07 2.80655e-20 0)
(-2.5e-07 -8.51712e-21 0)
(-2.5e-07 7.88976e-22 0)
(-2.5e-07 -1.01155e-21 0)
(-2.5e-07 -3.30067e-22 0)
(-2.5e-07 -3.13149e-22 0)
(-2.5e-07 -1.88116e-22 0)
(-2.5e-07 -1.67994e-22 0)
(-2.5e-07 -1.21582e-22 0)
(-2.5e-07 -7.98454e-23 0)
(-2.5e-07 -4.628e-23 0)
(-2.5e-07 -2.09814e-23 0)
(-2.5e-07 -8.57056e-24 0)
(-2.5e-07 7.08588e-16 0)
(-2.5e-07 -1.68162e-16 0)
(-2.5e-07 3.9838e-17 0)
(-2.5e-07 -9.46994e-18 0)
(-2.5e-07 2.23292e-18 0)
(-2.5e-07 -5.3532e-19 0)
(-2.5e-07 1.2332e-19 0)
(-2.5e-07 -3.12837e-20 0)
(-2.5e-07 6.07284e-21 0)
(-2.5e-07 -2.28882e-21 0)
(-2.5e-07 -4.15065e-23 0)
(-2.5e-07 -3.78881e-22 0)
(-2.5e-07 -1.63156e-22 0)
(-2.5e-07 -1.20531e-22 0)
(-2.5e-07 -9.69948e-23 0)
(-2.5e-07 -6.88156e-23 0)
(-2.5e-07 -2.13621e-23 0)
(-2.5e-07 -3.52034e-23 0)
(-2.5e-07 -4.05233e-23 0)
(-2.5e-07 -1.97428e-23 0)
(-2.5e-07 -7.06845e-16 0)
(-2.5e-07 1.67551e-16 0)
(-2.5e-07 -3.9799e-17 0)
(-2.5e-07 9.43102e-18 0)
(-2.5e-07 -2.2438e-18 0)
(-2.5e-07 5.30246e-19 0)
(-2.5e-07 -1.27262e-19 0)
(-2.5e-07 2.94516e-20 0)
(-2.5e-07 -7.47423e-21 0)
(-2.5e-07 1.479e-21 0)
(-2.5e-07 -5.54466e-22 0)
(-2.5e-07 1.07193e-23 0)
(-2.5e-07 -6.64216e-23 0)
(-2.5e-07 -4.21054e-23 0)
(-2.5e-07 -4.81379e-23 0)
(-2.5e-07 -3.169e-23 0)
(-2.5e-07 -1.12082e-23 0)
(-2.5e-07 -1.3152e-23 0)
(-2.5e-07 -5.8971e-24 0)
(-2.5e-07 -5.32846e-24 0)
)
;

boundaryField
{
    movingWall
    {
        type            calculated;
        value           uniform (0 0 0);
    }
    fixedWalls
    {
        type            calculated;
        value           uniform (0 0 0);
    }
    frontAndBack
    {
        type            empty;
    }
}


// ************************************************************************* //
