/*--------------------------------*- C++ -*----------------------------------*\
| =========                 |                                                 |
| \\      /  F ield         | OpenFOAM: The Open Source CFD Toolbox           |
|  \\    /   O peration     | Version:  2312                                  |
|   \\  /    A nd           | Website:  www.openfoam.com                      |
|    \\/     M anipulation  |                                                 |
\*---------------------------------------------------------------------------*/
FoamFile
{
    version     2.0;
    format      ascii;
    arch        "LSB;label=32;scalar=64";
    class       volScalarField;
    location    "5";
    object      norm_k_field;
}
// * * * * * * * * * * * * * * * * * * * * * * * * * * * * * * * * * * * * * //

dimensions      [0 0 0 0 0 0 0];

internalField   nonuniform List<scalar> 
400
(
9.92446e+09
1.43699e+10
3.81817e+07
1.08162e+09
2.39344e+08
7.0087e+09
1.43698e+10
1.43698e+10
1.43698e+10
1.43698e+10
1.43698e+10
1.43697e+10
1.43697e+10
1.43697e+10
1.43697e+10
1.43697e+10
1.43697e+10
1.43697e+10
1.43697e+10
1.43697e+10
1.57032e+10
1.57032e+10
1.57013e+10
1.57005e+10
2.60268e+09
1.56986e+10
1.56976e+10
1.56968e+10
1.56961e+10
1.56954e+10
1.56949e+10
1.56942e+10
1.56939e+10
1.56934e+10
1.56931e+10
1.56928e+10
1.56926e+10
1.56925e+10
1.56924e+10
1.56924e+10
3.54904e+08
1.74693e+10
1.7467e+10
1.74661e+10
1.74645e+10
1.74636e+10
1.74623e+10
1.74614e+10
1.74605e+10
1.74597e+10
1.74589e+10
1.74582e+10
1.74577e+10
1.74572e+10
1.74568e+10
1.74564e+10
1.74562e+10
1.7456e+10
1.74559e+10
1.74559e+10
1.89575e+10
1.85862e+07
1.89546e+10
5.44583e+09
1.89517e+10
1.89506e+10
1.89491e+10
1.89481e+10
1.8947e+10
1.89459e+10
1.89452e+10
1.89442e+10
1.89437e+10
1.89429e+10
1.89426e+10
1.89421e+10
1.89419e+10
1.89416e+10
1.89415e+10
1.89415e+10
1.99665e+10
1.99664e+10
1.99634e+10
1.99621e+10
1.996e+10
1.99589e+10
1.99571e+10
1.99561e+10
1.99547e+10
1.99537e+10
1.99527e+10
1.99518e+10
1.99511e+10
1.99503e+10
1.99499e+10
1.99494e+10
1.99491e+10
1.99488e+10
1.99487e+10
1.99487e+10
2.32484e+09
1.78196e+07
2.05744e+10
3.35043e+09
2.05708e+10
2.05696e+10
2.05678e+10
2.05666e+10
2.05652e+10
2.0564e+10
2.05631e+10
2.0562e+10
2.05614e+10
2.05605e+10
2.05601e+10
2.05595e+10
2.05593e+10
2.0559e+10
2.05589e+10
2.05588e+10
2.09326e+10
2.09324e+10
2.09291e+10
2.09277e+10
2.09253e+10
2.09241e+10
2.09221e+10
2.0921e+10
2.09195e+10
2.09184e+10
2.09173e+10
2.09162e+10
2.09155e+10
2.09147e+10
2.09142e+10
2.09136e+10
2.09133e+10
2.09131e+10
2.09129e+10
2.09129e+10
7.84409e+08
2.02358e+07
2.11399e+10
7.14233e+09
2.11361e+10
2.11348e+10
2.11329e+10
2.11317e+10
2.11302e+10
2.1129e+10
2.11279e+10
2.11268e+10
2.11261e+10
2.11253e+10
2.11247e+10
2.11242e+10
2.11238e+10
2.11236e+10
2.11234e+10
2.11234e+10
2.12814e+10
2.12813e+10
2.12778e+10
2.12764e+10
2.1274e+10
2.12727e+10
2.12707e+10
2.12694e+10
2.12679e+10
2.12668e+10
2.12656e+10
2.12646e+10
2.12638e+10
2.1263e+10
2.12624e+10
2.12618e+10
2.12615e+10
2.12612e+10
2.12611e+10
2.1261e+10
5.40776e+08
2.45487e+07
2.13824e+10
2.13809e+10
2.13785e+10
2.13772e+10
2.13752e+10
2.1374e+10
2.13724e+10
2.13712e+10
2.13701e+10
2.1369e+10
2.13683e+10
2.13673e+10
2.13668e+10
2.13663e+10
2.13659e+10
2.13657e+10
2.13655e+10
2.13654e+10
2.14784e+10
2.14783e+10
2.14748e+10
2.14733e+10
2.14708e+10
2.14694e+10
2.14675e+10
2.14662e+10
2.14647e+10
2.14635e+10
2.14623e+10
2.14613e+10
2.14604e+10
2.14596e+10
2.1459e+10
2.14584e+10
2.14581e+10
2.14578e+10
2.14577e+10
2.14576e+10
4.51308e+08
3.08804e+07
2.15662e+10
2.15648e+10
2.15623e+10
2.1561e+10
2.15588e+10
2.15578e+10
2.15559e+10
2.1555e+10
2.15536e+10
2.15527e+10
2.15517e+10
2.1551e+10
2.15503e+10
2.15499e+10
2.15494e+10
2.15492e+10
2.15491e+10
2.1549e+10
2.16673e+10
2.16672e+10
2.16636e+10
2.16621e+10
2.16596e+10
2.16583e+10
2.16562e+10
2.1655e+10
2.16532e+10
2.16522e+10
2.16508e+10
2.165e+10
2.16489e+10
2.16482e+10
2.16475e+10
2.1647e+10
2.16466e+10
2.16464e+10
2.16462e+10
2.16462e+10
4.23927e+08
3.91108e+07
2.17714e+10
2.17699e+10
2.17673e+10
2.1766e+10
2.17639e+10
2.17626e+10
2.17609e+10
2.17598e+10
2.17585e+10
2.17576e+10
2.17566e+10
2.17558e+10
2.17552e+10
2.17546e+10
2.17543e+10
2.1754e+10
2.17538e+10
2.17538e+10
2.18971e+10
2.18969e+10
2.18933e+10
2.18917e+10
2.18892e+10
2.18877e+10
2.18858e+10
2.18843e+10
2.18828e+10
2.18815e+10
2.18803e+10
2.18792e+10
2.18784e+10
2.18775e+10
2.1877e+10
2.18763e+10
2.1876e+10
2.18757e+10
2.18755e+10
2.18755e+10
3.92334e+08
4.87114e+07
2.20317e+10
2.20302e+10
2.20275e+10
2.20262e+10
2.20239e+10
2.20228e+10
2.20209e+10
2.202e+10
2.20184e+10
2.20176e+10
2.20165e+10
2.20159e+10
2.2015e+10
2.20146e+10
2.20141e+10
2.20139e+10
2.20137e+10
2.20137e+10
2.21889e+10
2.21888e+10
2.21849e+10
2.21834e+10
2.21807e+10
2.21794e+10
2.21771e+10
2.21759e+10
2.21741e+10
2.2173e+10
2.21716e+10
2.21706e+10
2.21696e+10
2.21688e+10
2.21682e+10
2.21676e+10
2.21672e+10
2.21669e+10
2.21668e+10
2.21667e+10
3.28353e+08
6.05348e+07
2.23419e+10
2.23403e+10
2.23376e+10
2.23362e+10
2.2334e+10
2.23327e+10
2.23309e+10
2.23297e+10
2.23284e+10
2.23272e+10
2.23264e+10
2.23255e+10
2.23249e+10
2.23243e+10
2.23239e+10
2.23236e+10
2.23234e+10
2.23234e+10
2.24807e+10
2.24807e+10
1.73803e+09
2.24754e+10
3.15863e+09
2.24714e+10
2.24693e+10
2.24678e+10
2.24663e+10
2.24649e+10
2.24638e+10
2.24626e+10
2.24618e+10
2.24608e+10
2.24603e+10
2.24596e+10
2.24592e+10
2.24589e+10
2.24588e+10
2.24587e+10
1.04143e+09
2.25393e+10
7.22052e+07
2.25392e+10
5.39637e+08
2.25391e+10
2.25391e+10
2.25391e+10
2.2539e+10
2.2539e+10
2.2539e+10
2.2539e+10
2.2539e+10
2.2539e+10
2.2539e+10
2.2539e+10
2.2539e+10
2.2539e+10
2.2539e+10
2.2539e+10
)
;

boundaryField
{
    movingWall
    {
        type            calculated;
        value           nonuniform List<scalar> 
20
(
1.04143e+09
2.25393e+10
7.22052e+07
2.25392e+10
5.39637e+08
2.25391e+10
2.25391e+10
2.25391e+10
2.2539e+10
2.2539e+10
2.2539e+10
2.2539e+10
2.2539e+10
2.2539e+10
2.2539e+10
2.2539e+10
2.2539e+10
2.2539e+10
2.2539e+10
2.2539e+10
)
;
    }
    fixedWalls
    {
        type            calculated;
        value           nonuniform List<scalar> 
60
(
9.92446e+09
1.57032e+10
3.54904e+08
1.89575e+10
1.99665e+10
2.32484e+09
2.09326e+10
7.84409e+08
2.12814e+10
5.40776e+08
2.14784e+10
4.51308e+08
2.16673e+10
4.23927e+08
2.18971e+10
3.92334e+08
2.21889e+10
3.28353e+08
2.24807e+10
1.04143e+09
1.43697e+10
1.56924e+10
1.74559e+10
1.89415e+10
1.99487e+10
2.05588e+10
2.09129e+10
2.11234e+10
2.1261e+10
2.13654e+10
2.14576e+10
2.1549e+10
2.16462e+10
2.17538e+10
2.18755e+10
2.20137e+10
2.21667e+10
2.23234e+10
2.24587e+10
2.2539e+10
9.92446e+09
1.43699e+10
3.81817e+07
1.08162e+09
2.39344e+08
7.0087e+09
1.43698e+10
1.43698e+10
1.43698e+10
1.43698e+10
1.43698e+10
1.43697e+10
1.43697e+10
1.43697e+10
1.43697e+10
1.43697e+10
1.43697e+10
1.43697e+10
1.43697e+10
1.43697e+10
)
;
    }
    frontAndBack
    {
        type            empty;
    }
}


// ************************************************************************* //
