/*--------------------------------*- C++ -*----------------------------------*\
| =========                 |                                                 |
| \\      /  F ield         | OpenFOAM: The Open Source CFD Toolbox           |
|  \\    /   O peration     | Version:  2312                                  |
|   \\  /    A nd           | Website:  www.openfoam.com                      |
|    \\/     M anipulation  |                                                 |
\*---------------------------------------------------------------------------*/
FoamFile
{
    version     2.0;
    format      ascii;
    arch        "LSB;label=32;scalar=64";
    class       volScalarField;
    location    "5";
    object      P_A;
}
// * * * * * * * * * * * * * * * * * * * * * * * * * * * * * * * * * * * * * //

dimensions      [1 -1 -3 0 0 0 0];

internalField   nonuniform List<scalar> 
400
(
8.54666e-31
8.54656e-31
8.54648e-31
8.54642e-31
8.54637e-31
8.54631e-31
8.54627e-31
8.54622e-31
8.54621e-31
8.54615e-31
8.54615e-31
8.54611e-31
8.54611e-31
8.54608e-31
8.54608e-31
8.54606e-31
8.54607e-31
8.54606e-31
8.54606e-31
8.54606e-31
1.2193e-30
1.19073e-30
1.19267e-30
1.19349e-30
1.19516e-30
1.19604e-30
1.19775e-30
1.19868e-30
1.20044e-30
1.20142e-30
1.20322e-30
1.20425e-30
1.2061e-30
1.20719e-30
1.20907e-30
1.21023e-30
1.21214e-30
1.21337e-30
1.21434e-30
1.21595e-30
1.86835e-30
1.82146e-30
1.82468e-30
1.82601e-30
1.82876e-30
1.83019e-30
1.833e-30
1.83452e-30
1.83739e-30
1.839e-30
1.84192e-30
1.84362e-30
1.8466e-30
1.84839e-30
1.85144e-30
1.85331e-30
1.85642e-30
1.85838e-30
1.85996e-30
1.86256e-30
2.59165e-30
2.52359e-30
2.52817e-30
2.53011e-30
2.53405e-30
2.53611e-30
2.54016e-30
2.54233e-30
2.54648e-30
2.54878e-30
2.55304e-30
2.55545e-30
2.55981e-30
2.56235e-30
2.56679e-30
2.56948e-30
2.574e-30
2.57685e-30
2.57913e-30
2.5829e-30
3.18945e-30
3.10313e-30
3.10892e-30
3.11133e-30
3.11628e-30
3.1189e-30
3.12396e-30
3.12675e-30
3.13195e-30
3.13489e-30
3.14022e-30
3.14331e-30
3.14878e-30
3.15202e-30
3.15763e-30
3.16105e-30
3.16676e-30
3.17037e-30
3.17327e-30
3.17805e-30
3.59852e-30
3.49943e-30
3.50605e-30
3.5088e-30
3.51446e-30
3.51745e-30
3.52325e-30
3.52641e-30
3.5324e-30
3.53571e-30
3.54188e-30
3.54536e-30
3.55167e-30
3.55537e-30
3.56181e-30
3.56572e-30
3.57227e-30
3.57642e-30
3.57974e-30
3.58523e-30
3.85327e-30
3.74613e-30
3.75329e-30
3.75623e-30
3.76234e-30
3.76558e-30
3.77181e-30
3.77527e-30
3.78166e-30
3.78531e-30
3.7919e-30
3.79571e-30
3.80249e-30
3.80653e-30
3.81343e-30
3.81771e-30
3.82474e-30
3.82926e-30
3.83283e-30
3.83876e-30
4.01102e-30
3.89888e-30
3.90632e-30
3.90942e-30
3.91581e-30
3.91917e-30
3.92572e-30
3.92929e-30
3.93603e-30
3.93979e-30
3.94672e-30
3.95068e-30
3.95777e-30
3.96201e-30
3.96922e-30
3.97371e-30
3.98107e-30
3.98579e-30
3.98953e-30
3.99574e-30
4.11676e-30
4.00127e-30
4.00893e-30
4.01212e-30
4.01869e-30
4.02214e-30
4.0289e-30
4.03256e-30
4.03947e-30
4.0434e-30
4.05046e-30
4.05462e-30
4.06186e-30
4.06624e-30
4.07367e-30
4.07827e-30
4.08587e-30
4.09072e-30
4.09458e-30
4.10098e-30
4.19835e-30
4.08025e-30
4.08809e-30
4.09133e-30
4.09803e-30
4.10159e-30
4.10845e-30
4.11224e-30
4.11929e-30
4.12329e-30
4.13054e-30
4.13473e-30
4.1422e-30
4.14663e-30
4.15424e-30
4.15896e-30
4.16671e-30
4.17168e-30
4.17561e-30
4.18216e-30
4.27138e-30
4.15097e-30
4.15897e-30
4.16227e-30
4.16913e-30
4.1727e-30
4.17974e-30
4.18356e-30
4.19077e-30
4.19484e-30
4.20221e-30
4.20654e-30
4.21409e-30
4.21866e-30
4.22639e-30
4.23119e-30
4.2391e-30
4.24417e-30
4.24819e-30
4.25486e-30
4.34471e-30
4.22198e-30
4.2301e-30
4.23348e-30
4.24046e-30
4.24416e-30
4.25122e-30
4.25524e-30
4.26245e-30
4.26672e-30
4.27412e-30
4.27862e-30
4.28623e-30
4.29097e-30
4.29876e-30
4.30375e-30
4.31175e-30
4.31695e-30
4.32103e-30
4.32783e-30
4.42376e-30
4.2985e-30
4.30679e-30
4.31024e-30
4.31733e-30
4.3211e-30
4.32835e-30
4.33238e-30
4.3398e-30
4.34411e-30
4.35169e-30
4.35627e-30
4.36404e-30
4.36886e-30
4.37684e-30
4.38189e-30
4.39008e-30
4.39537e-30
4.39955e-30
4.40648e-30
4.51252e-30
4.38443e-30
4.3929e-30
4.39642e-30
4.40368e-30
4.40751e-30
4.41495e-30
4.41903e-30
4.42665e-30
4.43102e-30
4.43881e-30
4.44345e-30
4.45144e-30
4.45632e-30
4.46453e-30
4.46964e-30
4.47806e-30
4.48344e-30
4.48772e-30
4.49481e-30
4.61451e-30
4.48315e-30
4.49184e-30
4.49543e-30
4.5029e-30
4.50677e-30
4.51447e-30
4.51858e-30
4.52647e-30
4.53087e-30
4.53893e-30
4.5436e-30
4.55187e-30
4.55681e-30
4.56527e-30
4.57048e-30
4.57913e-30
4.58464e-30
4.58903e-30
4.5963e-30
4.73241e-30
4.59728e-30
4.60625e-30
4.60993e-30
4.61754e-30
4.62163e-30
4.62937e-30
4.6338e-30
4.64171e-30
4.64644e-30
4.65451e-30
4.65952e-30
4.66784e-30
4.6731e-30
4.68163e-30
4.68715e-30
4.69592e-30
4.70167e-30
4.70615e-30
4.71363e-30
4.86565e-30
4.72625e-30
4.73539e-30
4.73924e-30
4.7471e-30
4.7513e-30
4.75931e-30
4.76383e-30
4.77203e-30
4.77683e-30
4.78526e-30
4.79033e-30
4.799e-30
4.80432e-30
4.81323e-30
4.81881e-30
4.82794e-30
4.83382e-30
4.83847e-30
4.84618e-30
5.00494e-30
4.86107e-30
4.87055e-30
4.87446e-30
4.88257e-30
4.88689e-30
4.89517e-30
4.8998e-30
4.90831e-30
4.91319e-30
4.92198e-30
4.92708e-30
4.93614e-30
4.94155e-30
4.95079e-30
4.95654e-30
4.96596e-30
4.97203e-30
4.97682e-30
4.98479e-30
5.12698e-30
4.9824e-30
4.99165e-30
4.99557e-30
5.00361e-30
5.00786e-30
5.01617e-30
5.02071e-30
5.02928e-30
5.03417e-30
5.04297e-30
5.04819e-30
5.05724e-30
5.0628e-30
5.07209e-30
5.07804e-30
5.08754e-30
5.09388e-30
5.09871e-30
5.10688e-30
5.18071e-30
5.18063e-30
5.1806e-30
5.18056e-30
5.18052e-30
5.18049e-30
5.18046e-30
5.18045e-30
5.18042e-30
5.18041e-30
5.18039e-30
5.18038e-30
5.18037e-30
5.18036e-30
5.18036e-30
5.18036e-30
5.18035e-30
5.18035e-30
5.18035e-30
5.18035e-30
)
;

boundaryField
{
    movingWall
    {
        type            calculated;
        value           nonuniform List<scalar> 
20
(
5.18071e-30
5.18063e-30
5.1806e-30
5.18056e-30
5.18052e-30
5.18049e-30
5.18046e-30
5.18045e-30
5.18042e-30
5.18041e-30
5.18039e-30
5.18038e-30
5.18037e-30
5.18036e-30
5.18036e-30
5.18036e-30
5.18035e-30
5.18035e-30
5.18035e-30
5.18035e-30
)
;
    }
    fixedWalls
    {
        type            calculated;
        value           nonuniform List<scalar> 
60
(
8.54666e-31
1.2193e-30
1.86835e-30
2.59165e-30
3.18945e-30
3.59852e-30
3.85327e-30
4.01102e-30
4.11676e-30
4.19835e-30
4.27138e-30
4.34471e-30
4.42376e-30
4.51252e-30
4.61451e-30
4.73241e-30
4.86565e-30
5.00494e-30
5.12698e-30
5.18071e-30
8.54606e-31
1.21595e-30
1.86256e-30
2.5829e-30
3.17805e-30
3.58523e-30
3.83876e-30
3.99574e-30
4.10098e-30
4.18216e-30
4.25486e-30
4.32783e-30
4.40648e-30
4.49481e-30
4.5963e-30
4.71363e-30
4.84618e-30
4.98479e-30
5.10688e-30
5.18035e-30
8.54666e-31
8.54656e-31
8.54648e-31
8.54642e-31
8.54637e-31
8.54631e-31
8.54627e-31
8.54622e-31
8.54621e-31
8.54615e-31
8.54615e-31
8.54611e-31
8.54611e-31
8.54608e-31
8.54608e-31
8.54606e-31
8.54607e-31
8.54606e-31
8.54606e-31
8.54606e-31
)
;
    }
    frontAndBack
    {
        type            empty;
    }
}


// ************************************************************************* //
