/*--------------------------------*- C++ -*----------------------------------*\
| =========                 |                                                 |
| \\      /  F ield         | OpenFOAM: The Open Source CFD Toolbox           |
|  \\    /   O peration     | Version:  2312                                  |
|   \\  /    A nd           | Website:  www.openfoam.com                      |
|    \\/     M anipulation  |                                                 |
\*---------------------------------------------------------------------------*/
FoamFile
{
    version     2.0;
    format      ascii;
    arch        "LSB;label=32;scalar=64";
    class       surfaceScalarField;
    location    "5";
    object      PecletNoField;
}
// * * * * * * * * * * * * * * * * * * * * * * * * * * * * * * * * * * * * * //

dimensions      [0 0 0 0 0 0 0];

oriented        oriented;

internalField   nonuniform List<scalar> 
760
(
412.567
5.44155e-10
412.568
3.96602e-10
412.568
7.31362e-11
412.568
3.42145e-11
412.568
2.16688e-11
412.568
5.2e-12
412.568
4.97876e-12
412.568
2.03313e-12
412.568
1.59749e-12
412.568
9.66575e-13
412.568
7.32662e-13
412.568
4.91383e-13
412.568
3.37527e-13
412.568
2.25799e-13
412.568
1.68081e-13
412.568
9.03213e-14
412.568
6.0449e-14
412.568
7.31745e-14
412.568
4.45377e-14
7.7732e-14
408.465
5.79401e-10
407.662
4.77697e-10
407.777
9.54127e-12
407.877
4.65736e-11
407.979
1.32246e-11
408.078
1.07609e-11
408.179
6.26345e-12
408.279
3.93669e-12
408.38
2.51357e-12
408.48
1.71368e-12
408.58
1.25793e-12
408.68
9.15486e-13
408.78
6.42554e-13
408.88
4.64076e-13
408.98
2.99504e-13
409.08
2.00438e-13
409.179
1.32761e-13
409.249
1.51968e-13
409.329
1.30283e-13
8.69332e-15
404.379
7.09741e-10
403.491
8.14188e-10
403.621
8.14658e-11
403.733
2.90286e-11
403.847
2.60585e-11
403.959
6.66157e-12
404.071
7.6503e-12
404.182
4.23076e-12
404.295
3.24096e-12
404.405
2.13912e-12
404.517
1.56877e-12
404.627
1.14853e-12
404.737
8.38836e-13
404.847
5.79692e-13
404.957
4.75226e-13
405.066
3.2291e-13
405.175
2.29227e-13
405.251
9.94604e-14
405.339
9.44633e-14
3.73555e-14
401.149
1.20581e-09
400.196
1.20803e-09
400.336
1.03929e-10
400.457
7.0725e-11
400.579
7.03297e-12
400.699
1.05912e-11
400.82
4.58647e-12
400.94
4.59227e-12
401.06
3.10613e-12
401.179
2.36357e-12
401.299
1.6971e-12
401.417
1.22482e-12
401.536
9.28226e-13
401.654
7.18012e-13
401.772
5.4483e-13
401.889
3.93568e-13
402.006
2.43179e-13
402.088
1.62901e-13
402.181
7.08087e-14
6.18244e-14
399.053
1.14676e-09
398.055
1.26567e-09
398.202
1.31757e-10
398.329
5.45853e-11
398.457
2.4301e-11
398.582
2.69997e-12
398.71
6.05656e-12
398.835
3.50531e-12
398.961
3.07124e-12
399.085
2.25689e-12
399.211
1.71525e-12
399.335
1.24568e-12
399.459
9.51507e-13
399.583
7.05502e-13
399.706
5.39789e-13
399.829
3.77907e-13
399.951
2.80019e-13
400.037
2.01403e-13
400.135
1.52796e-13
4.84642e-14
397.817
1.25481e-09
396.793
1.29837e-09
396.944
1.29293e-10
397.074
6.71476e-11
397.205
1.25305e-11
397.334
7.58432e-12
397.465
2.57235e-12
397.594
3.4215e-12
397.723
2.45126e-12
397.851
2.00837e-12
397.98
1.50434e-12
398.107
1.18853e-12
398.235
9.36776e-13
398.362
7.36689e-13
398.488
5.05217e-13
398.615
3.54568e-13
398.74
2.56701e-13
398.828
1.59936e-13
398.929
1.39475e-14
2.48273e-14
397.112
1.13129e-09
396.072
1.23439e-09
396.225
1.30188e-10
396.357
5.5569e-11
396.491
1.99179e-11
396.622
1.92757e-13
396.754
4.02556e-12
396.885
2.16697e-12
397.017
2.04295e-12
397.146
1.5943e-12
397.277
1.30032e-12
397.406
1.02128e-12
397.536
7.80837e-13
397.664
5.63093e-13
397.793
4.1842e-13
397.921
3.79332e-13
398.049
2.82936e-13
398.138
1.35011e-13
398.24
3.79442e-14
5.50592e-15
396.696
1.13043e-09
395.648
1.18927e-09
395.802
1.25131e-10
395.935
5.83964e-11
396.07
1.34524e-11
396.202
5.06686e-12
396.336
9.01316e-13
396.467
2.069e-12
396.6
1.46409e-12
396.731
1.27212e-12
396.863
9.80993e-13
396.993
7.89483e-13
397.124
6.20856e-13
397.254
5.23619e-13
397.384
3.58874e-13
397.513
1.7471e-13
397.642
1.27774e-13
397.731
1.2824e-13
397.835
4.301e-14
1.71154e-14
396.426
1.02087e-09
395.372
1.10627e-09
395.527
1.20393e-10
395.661
5.09362e-11
395.796
1.5845e-11
395.929
1.36413e-12
396.064
2.25723e-12
396.196
8.17448e-13
396.33
9.05748e-13
396.461
7.3561e-13
396.594
6.88387e-13
396.725
5.24623e-13
396.857
4.03072e-13
396.987
2.74557e-13
397.118
2.70509e-13
397.247
2.19226e-13
397.377
1.04126e-13
397.467
1.64565e-14
397.571
4.0538e-15
3.12106e-14
396.222
9.69181e-10
395.164
1.03664e-09
395.319
1.14733e-10
395.454
4.90885e-11
395.59
1.30169e-11
395.724
3.03519e-12
395.859
4.85047e-13
395.991
6.02367e-13
396.126
3.25065e-13
396.258
3.12767e-13
396.391
2.5667e-13
396.523
2.13944e-13
396.655
1.08509e-13
396.786
1.48993e-13
396.917
1.67712e-13
397.047
1.28444e-13
397.177
9.90617e-14
397.268
8.73378e-14
397.372
3.82806e-14
8.68331e-15
396.043
8.92218e-10
394.981
9.59955e-10
395.137
1.08504e-10
395.272
4.52247e-11
395.409
1.20608e-11
395.543
2.67842e-12
395.678
4.92893e-13
395.812
4.70568e-13
395.946
1.42251e-13
396.079
1.39023e-13
396.212
2.63132e-14
396.345
4.73734e-14
396.477
3.8636e-14
396.609
1.99747e-14
396.74
2.97561e-14
396.871
9.24682e-14
397.001
5.64753e-14
397.093
2.50597e-14
397.197
1.01765e-14
2.61675e-14
395.866
8.11841e-10
394.8
8.86375e-10
394.957
1.03438e-10
395.092
4.01806e-11
395.229
1.27112e-11
395.364
9.66744e-13
395.5
1.77371e-12
395.634
6.62998e-13
395.769
7.55793e-13
395.902
5.23136e-13
396.036
3.87347e-13
396.169
2.69042e-13
396.302
1.98538e-13
396.434
1.51232e-13
396.566
7.09718e-14
396.697
2.97803e-14
396.828
3.46452e-14
396.919
5.80295e-14
397.024
2.00871e-15
7.37543e-14
395.678
7.83472e-10
394.609
8.32206e-10
394.766
9.6794e-11
394.902
4.09665e-11
395.04
8.29727e-12
395.175
4.18054e-12
395.311
1.12419e-12
395.446
1.57791e-12
395.581
1.03718e-12
395.715
8.69313e-13
395.849
6.57489e-13
395.982
4.85462e-13
396.116
3.29272e-13
396.248
2.19791e-13
396.381
1.6212e-13
396.512
1.06213e-13
396.644
4.62133e-14
396.736
3.52666e-14
396.841
3.98471e-14
5.76866e-14
395.471
6.81904e-10
394.397
7.66155e-10
394.555
9.49406e-11
394.692
3.21543e-11
394.83
1.345e-11
394.966
1.35003e-12
395.103
3.37622e-12
395.238
1.99976e-12
395.374
1.62988e-12
395.508
1.13139e-12
395.643
8.82843e-13
395.777
6.56333e-13
395.911
4.76804e-13
396.044
3.29766e-13
396.177
2.39671e-13
396.309
1.4606e-13
396.441
7.47081e-14
396.533
1.93433e-14
396.639
4.15767e-14
2.90195e-14
395.238
7.20888e-10
394.16
7.48566e-10
394.318
8.68563e-11
394.455
4.01706e-11
394.594
4.18345e-12
394.73
6.20508e-12
394.868
2.86815e-12
395.004
2.81232e-12
395.14
1.94702e-12
395.275
1.50139e-12
395.411
1.11078e-12
395.545
7.97677e-13
395.68
5.6821e-13
395.813
4.22807e-13
395.947
2.42551e-13
396.08
2.14918e-13
396.212
1.75924e-13
396.305
7.36756e-14
396.411
2.48904e-14
6.42036e-16
394.975
5.90014e-10
393.89
6.92554e-10
394.05
9.45981e-11
394.188
2.42576e-11
394.327
1.63155e-11
394.464
3.91408e-12
394.603
4.92213e-12
394.739
3.03829e-12
394.876
2.35906e-12
395.012
1.60727e-12
395.148
1.15271e-12
395.283
8.19507e-13
395.418
5.66704e-13
395.552
4.04436e-13
395.687
3.37096e-13
395.82
2.31341e-13
395.954
1.33698e-13
396.047
8.40569e-14
396.153
2.50797e-14
4.18774e-14
394.684
7.33953e-10
393.594
7.33839e-10
393.755
7.42157e-11
393.893
4.4922e-11
394.033
1.47033e-12
394.171
8.45748e-12
394.31
4.3951e-12
394.447
3.42498e-12
394.586
2.26821e-12
394.722
1.57367e-12
394.859
1.0316e-12
394.994
7.42432e-13
395.131
4.79914e-13
395.265
3.56135e-13
395.401
3.00682e-13
395.535
2.04795e-13
395.669
2.04899e-13
395.762
1.23922e-13
395.869
7.35933e-15
3.10789e-14
394.389
4.92824e-10
393.293
6.27944e-10
393.454
1.10434e-10
393.594
1.53027e-11
393.735
2.39275e-11
393.873
5.06867e-12
394.013
5.61982e-12
394.151
2.64585e-12
394.29
2.01127e-12
394.426
1.20609e-12
394.565
8.62695e-13
394.701
5.67219e-13
394.837
4.16305e-13
394.973
2.50359e-13
395.109
1.89548e-13
395.244
1.33176e-13
395.379
4.76614e-14
395.473
3.77586e-14
395.581
7.68316e-14
5.18753e-14
394.162
8.23249e-10
393.083
7.36232e-10
393.239
2.12342e-11
393.373
3.90018e-11
393.51
1.21626e-11
393.645
3.95998e-12
393.781
3.52837e-12
393.916
1.46333e-12
394.052
1.16334e-12
394.186
6.40814e-13
394.322
4.84876e-13
394.457
2.99415e-13
394.592
1.66865e-13
394.727
1.22415e-13
394.861
1.26946e-13
394.996
1.02232e-13
395.13
3.2263e-14
395.225
3.94694e-14
395.333
1.49898e-14
2.15574e-14
395.252
395.252
395.253
395.253
395.253
395.253
395.253
395.253
395.253
395.253
395.253
395.253
395.253
395.253
395.253
395.253
395.253
395.253
395.253
)
;

boundaryField
{
    movingWall
    {
        type            calculated;
        value           uniform 0;
    }
    fixedWalls
    {
        type            calculated;
        value           nonuniform List<scalar> 
60
(
250
250
250
250
250
250
250
250
250
250
250
250
250
250
250
250
250
250
250
250
250
250
250
250
250
250
250
250
250
250
250
250
250
250
250
250
250
250
250
250
0
0
0
0
0
0
0
0
0
0
0
0
0
0
0
0
0
0
0
0
)
;
    }
    frontAndBack
    {
        type            empty;
        value           nonuniform List<scalar> 0();
    }
}


// ************************************************************************* //
