/*--------------------------------*- C++ -*----------------------------------*\
| =========                 |                                                 |
| \\      /  F ield         | OpenFOAM: The Open Source CFD Toolbox           |
|  \\    /   O peration     | Version:  2312                                  |
|   \\  /    A nd           | Website:  www.openfoam.com                      |
|    \\/     M anipulation  |                                                 |
\*---------------------------------------------------------------------------*/
FoamFile
{
    version     2.0;
    format      ascii;
    arch        "LSB;label=32;scalar=64";
    class       volScalarField;
    location    "5";
    object      QField;
}
// * * * * * * * * * * * * * * * * * * * * * * * * * * * * * * * * * * * * * //

dimensions      [0 0 -2 0 0 0 0];

internalField   nonuniform List<scalar> 
400
(
-7.39227e-19
5.56214e-17
4.98817e-18
8.48077e-19
2.03999e-20
9.41178e-21
-4.61804e-22
1.50056e-22
-1.92435e-23
3.63125e-24
-6.4791e-25
6.77444e-26
-2.92449e-26
-4.51934e-27
-3.72624e-27
-6.58372e-28
-9.12848e-28
-1.13626e-27
-7.29977e-28
-4.7761e-28
-2.8745e-16
-1.23542e-17
-2.00913e-18
4.67419e-19
4.15378e-21
4.99386e-21
-9.8587e-23
5.25067e-23
-4.26367e-24
8.38561e-25
-2.0725e-25
-4.17856e-26
-3.47712e-26
-1.71072e-26
-5.38402e-27
-2.23758e-27
-2.0535e-27
-7.51427e-28
-1.67535e-27
0
-3.87152e-16
-9.52104e-17
-8.56802e-18
-5.35006e-19
-2.02961e-20
-4.38255e-21
1.57906e-22
-5.36989e-23
5.36193e-24
-1.24818e-24
9.48176e-26
-8.41997e-26
-1.33079e-26
-1.20996e-26
-9.58225e-27
-4.48787e-27
-1.5003e-27
0
0
0
-1.83371e-16
-4.6198e-17
-3.53289e-18
-1.91489e-19
-1.6065e-20
2.58976e-22
-2.53248e-22
3.18308e-23
-6.36361e-24
7.02602e-25
-2.05596e-25
-7.25477e-27
-2.48284e-26
-1.52137e-26
-5.31882e-27
-3.00135e-27
-1.70026e-27
1.06105e-27
-1.02498e-27
0
-8.30911e-17
-2.05508e-17
-1.50282e-18
-8.81954e-20
-2.76396e-21
-9.79823e-22
1.18871e-22
-3.02443e-23
5.22998e-24
-1.02482e-24
7.19081e-26
-6.83442e-26
-1.05285e-26
-5.75382e-27
-4.21171e-27
-3.83049e-27
-3.87924e-27
-4.83424e-27
5.83667e-28
-1.17404e-27
9.61202e-19
-4.89819e-20
2.85734e-19
8.40012e-21
2.55888e-22
4.2168e-22
-9.90231e-23
2.13499e-23
-4.36552e-24
6.63712e-25
-1.81891e-25
-3.0557e-27
-1.43441e-26
-7.95871e-27
0
-3.17406e-27
2.42168e-27
0
8.92152e-28
3.10603e-28
3.0716e-17
7.90413e-18
7.9145e-19
4.8095e-20
3.12923e-21
9.84931e-23
4.52571e-23
-1.11884e-23
2.15735e-24
-8.59981e-25
8.78994e-26
-3.38293e-26
-1.80597e-26
-1.46594e-26
-7.52326e-27
5.09936e-28
2.97999e-28
3.26701e-27
0
-3.19485e-28
5.02709e-17
1.25124e-17
1.24861e-18
6.40571e-20
4.38467e-21
4.65903e-22
-7.88052e-24
1.20204e-23
-2.03864e-24
1.85443e-25
-1.32428e-25
-3.0682e-27
-1.43524e-26
-6.06338e-27
-8.70223e-27
-6.9257e-27
-5.5577e-27
0
0
0
5.65063e-17
1.42569e-17
1.33226e-18
7.52547e-20
4.72185e-21
4.09243e-22
3.92892e-23
-3.93176e-25
5.85764e-25
-2.2449e-25
-6.31639e-26
-7.33777e-27
-7.33501e-27
-7.28784e-28
5.6433e-27
3.36113e-27
2.61254e-27
-2.20157e-27
1.38785e-28
1.03316e-28
5.93863e-17
1.48043e-17
1.39915e-18
7.51223e-20
5.49263e-21
2.99732e-22
4.28417e-23
-2.59708e-24
8.25535e-25
-1.84747e-25
-4.11635e-26
-1.8627e-26
-2.257e-26
8.51807e-28
-5.05373e-27
-2.72482e-27
0
5.34e-28
-9.96871e-29
0
5.7954e-17
1.4487e-17
1.3489e-18
7.42331e-20
4.92459e-21
3.86508e-22
2.79667e-23
2.28254e-24
-2.0314e-26
-4.62753e-26
1.41458e-26
-2.05139e-26
-3.68418e-28
-4.24766e-27
-1.83113e-27
-2.04638e-27
-1.80404e-27
-2.29211e-27
3.83499e-28
-2.55085e-28
5.26728e-17
1.31898e-17
1.20355e-18
6.74123e-20
4.31392e-21
2.99775e-22
3.75592e-23
-1.29763e-24
-4.21162e-25
-2.75594e-26
-4.40266e-26
-2.52813e-26
-6.4816e-27
-5.38959e-27
-6.38597e-27
-1.48395e-27
-3.09232e-27
0
2.58257e-27
-4.05197e-28
4.73867e-17
1.17866e-17
1.09967e-18
5.77978e-20
3.94565e-21
2.93179e-22
1.67917e-25
8.91335e-24
-1.8948e-24
3.89651e-25
-1.42664e-25
-7.24038e-27
-1.37299e-26
-2.00819e-27
-4.78368e-27
-2.64147e-27
6.83937e-28
0
0
-1.79518e-27
3.65824e-17
9.24805e-18
8.05273e-19
4.81166e-20
3.0394e-21
1.1404e-22
3.1749e-23
-2.63773e-24
1.44269e-24
-3.30515e-25
5.67189e-26
-1.38087e-26
-9.08643e-27
-4.44426e-27
-1.34213e-27
-2.03947e-27
-1.04181e-27
0
-1.95251e-28
-5.04673e-28
3.15766e-17
7.76542e-18
7.62911e-19
3.92694e-20
2.09182e-21
4.78064e-22
-5.49361e-23
1.14517e-23
-2.25509e-24
3.79438e-25
-7.28253e-26
-1.52275e-27
-1.31641e-26
-1.81961e-27
1.3412e-27
-7.25387e-28
-1.5095e-27
-3.06905e-28
0
1.82421e-28
1.31481e-17
3.56872e-18
2.80791e-19
1.36723e-20
2.7374e-21
-4.64266e-22
1.19442e-22
-2.62858e-23
4.15393e-24
-9.72275e-25
1.09828e-25
-4.8732e-26
-5.92832e-27
-2.12551e-27
-3.23705e-27
-2.03425e-28
4.3858e-28
0
0
-3.25767e-28
2.04446e-17
5.01311e-18
5.21222e-19
3.7853e-20
-1.59515e-21
1.05239e-21
-1.70391e-22
3.20283e-23
-5.44184e-24
5.80038e-25
-1.43003e-25
-1.58777e-27
-1.17279e-26
-6.50424e-27
-3.97517e-27
-1.02335e-27
0
2.34287e-27
-2.72055e-29
-3.25695e-29
-1.92315e-17
-3.13003e-18
-4.9924e-19
-8.37035e-20
5.61687e-21
-1.85177e-21
1.95427e-22
-3.69995e-23
4.7085e-24
-8.37287e-25
8.58566e-26
-4.47955e-26
-6.24082e-27
-9.31062e-27
-3.83552e-27
-2.65482e-27
-5.60505e-27
-1.57276e-27
-1.15839e-27
0
1.56443e-16
9.33013e-17
7.94468e-18
9.02022e-19
4.31881e-20
6.40576e-21
1.17693e-22
5.2044e-23
-2.43799e-24
5.88107e-25
-9.68131e-26
-1.45173e-26
-1.07001e-26
-4.74916e-27
-1.86018e-27
-1.54598e-28
0
2.07746e-28
-3.31168e-28
-3.51509e-29
2.07271e-16
1.02939e-16
9.49576e-18
9.93952e-19
4.31674e-20
8.73724e-21
-1.66092e-22
1.15827e-22
-1.20868e-23
2.24673e-24
-3.7354e-25
5.94128e-26
-1.14763e-26
-3.75684e-28
-5.84243e-27
-2.88899e-28
4.88489e-29
5.75835e-29
8.48234e-29
-1.50116e-28
)
;

boundaryField
{
    movingWall
    {
        type            calculated;
        value           nonuniform List<scalar> 
20
(
2.3424e-16
2.41208e-16
8.82458e-18
1.83052e-18
-1.57534e-20
1.63988e-20
-1.2394e-21
2.67678e-22
-3.48504e-23
5.7399e-24
-8.6439e-25
1.58374e-25
-1.70869e-26
1.42181e-27
-7.2405e-27
5.93674e-28
1.7252e-28
0
1.38975e-28
-3.1679e-29
)
;
    }
    fixedWalls
    {
        type            calculated;
        value           nonuniform List<scalar> 
60
(
-3.33818e-18
-1.5083e-15
-2.03097e-15
-9.61564e-16
-4.35197e-16
5.65723e-18
1.6176e-16
2.64228e-16
2.96916e-16
3.11926e-16
3.04389e-16
2.7661e-16
2.48874e-16
1.92144e-16
1.65903e-16
6.91967e-17
1.07513e-16
-1.00646e-16
8.20826e-16
1.08742e-15
0
-1.36573e-28
0
0
-1.28236e-27
-5.64693e-28
-4.37561e-28
0
2.60602e-29
0
-8.35862e-28
-1.29709e-27
-1.96082e-27
-8.31033e-28
1.79836e-28
-5.01967e-28
-5.33619e-29
0
-5.75912e-29
-2.1427e-28
2.49707e-16
2.57305e-16
9.88332e-18
2.20962e-18
-4.45359e-20
2.20299e-20
-1.91767e-21
3.70144e-22
-5.27917e-23
9.4655e-24
-1.49435e-24
2.33474e-25
-3.78971e-26
5.02179e-27
-1.58374e-27
5.50696e-28
-8.22407e-28
-1.08891e-27
-7.24185e-28
-9.02853e-28
)
;
    }
    frontAndBack
    {
        type            empty;
    }
}


// ************************************************************************* //
