/*--------------------------------*- C++ -*----------------------------------*\
| =========                 |                                                 |
| \\      /  F ield         | OpenFOAM: The Open Source CFD Toolbox           |
|  \\    /   O peration     | Version:  2312                                  |
|   \\  /    A nd           | Website:  www.openfoam.com                      |
|    \\/     M anipulation  |                                                 |
\*---------------------------------------------------------------------------*/
FoamFile
{
    version     2.0;
    format      ascii;
    arch        "LSB;label=32;scalar=64";
    class       surfaceScalarField;
    location    "5";
    object      surfaceDivU;
}
// * * * * * * * * * * * * * * * * * * * * * * * * * * * * * * * * * * * * * //

dimensions      [0 0 -1 0 0 0 0];

internalField   nonuniform List<scalar> 
760
(
-5.49417e-11
9.57757e-11
7.6607e-12
-1.13415e-11
-3.89282e-11
-6.07754e-11
2.512e-11
4.15101e-11
-1.35057e-11
-1.70322e-11
3.55556e-12
6.01218e-12
-1.66763e-12
-2.21451e-12
3.72616e-13
6.06086e-13
-1.81126e-13
-2.39156e-13
9.38592e-15
4.70639e-14
-3.63033e-14
-3.88594e-14
-5.45468e-15
-1.63606e-14
1.64299e-15
-8.11293e-15
1.43448e-15
-1.10084e-14
-5.07685e-15
7.4272e-15
5.68247e-16
4.79098e-15
1.25607e-14
-2.30648e-19
1.00749e-14
-2.00279e-15
2.20146e-15
-1.18776e-15
0
1.39376e-10
-2.01743e-10
-7.97776e-11
4.30788e-10
1.96629e-11
-9.23485e-11
-6.42069e-13
4.25356e-11
2.4857e-12
-7.9265e-12
2.42104e-13
3.72852e-12
5.92086e-14
-7.89376e-13
-5.68711e-15
3.32911e-13
-1.09661e-14
-1.17003e-13
-1.18143e-15
2.79062e-14
-1.89167e-14
-3.79658e-15
-1.90189e-14
-1.32879e-15
-2.07643e-14
9.48892e-15
-5.01569e-15
-1.3678e-14
1.7295e-14
-2.41386e-16
4.2225e-15
5.81415e-15
-1.45637e-14
-2.26422e-14
-1.32654e-14
-7.70243e-15
-3.38923e-15
-5.99055e-15
0
8.96693e-11
-1.63213e-10
4.18217e-10
-1.44474e-10
-6.94758e-11
1.12655e-11
3.52512e-11
-9.25922e-12
-6.68368e-12
1.25454e-12
2.69704e-12
1.33931e-13
-5.15674e-13
2.1148e-13
2.21595e-13
1.08737e-13
-7.81306e-14
1.13567e-15
2.5291e-14
7.32443e-15
1.37914e-14
2.05362e-14
2.7179e-14
6.36049e-15
1.65752e-14
3.05308e-14
-8.90372e-15
-1.76388e-14
-1.17223e-14
4.8651e-15
-2.10505e-14
-2.43436e-15
-1.57809e-14
-1.00858e-14
-4.27569e-16
1.82796e-15
-2.60132e-15
-1.67482e-14
-1.35525e-14
-3.97356e-10
1.74516e-10
-5.51425e-10
1.04612e-10
7.14821e-11
-2.33332e-11
-4.32559e-11
8.10676e-12
8.07215e-12
-2.66229e-12
-2.35163e-12
6.09278e-13
8.35891e-13
-1.73985e-13
-1.11722e-13
1.40591e-13
8.65907e-14
1.53969e-14
2.56966e-15
2.06893e-16
1.31054e-14
9.35164e-15
9.71233e-15
-1.80431e-14
-3.68322e-15
2.16423e-14
-3.86999e-15
-1.285e-14
1.4153e-14
1.12684e-14
8.53033e-15
4.09349e-16
7.52304e-15
8.80283e-15
-1.44927e-14
-6.12951e-15
-2.76994e-14
-5.89878e-14
2.71051e-14
6.76484e-10
-1.12161e-10
6.32704e-10
1.52709e-11
-8.67086e-11
-4.96121e-12
4.87003e-11
1.43896e-12
-1.01252e-11
-4.2412e-13
2.78692e-12
4.21542e-14
-8.69284e-13
-2.14331e-14
2.67711e-13
5.71592e-14
-7.0987e-14
1.59829e-14
6.98888e-15
-1.19693e-14
-2.17968e-14
2.34239e-14
-6.11311e-15
-1.74575e-14
1.24755e-14
2.00821e-14
2.28839e-15
-2.26536e-14
-2.47525e-15
-1.08965e-14
6.8185e-16
-1.43711e-15
-4.84972e-15
1.36532e-15
-5.06246e-14
-2.04325e-14
-4.1833e-15
-1.87368e-14
2.71051e-14
-7.73374e-10
4.22703e-11
-6.22395e-10
-1.23e-11
8.31863e-11
8.54285e-13
-4.76855e-11
-1.03492e-12
9.7432e-12
4.91166e-14
-2.7662e-12
-8.29642e-14
9.05011e-13
-7.33623e-15
-1.94568e-13
2.15826e-14
7.50005e-14
4.24527e-15
4.46566e-15
1.44888e-14
2.77631e-14
4.0181e-14
8.73765e-15
-3.10129e-14
-1.50471e-14
3.66837e-14
-3.58385e-14
-9.87818e-15
-9.85832e-15
6.7322e-15
-7.53634e-16
-2.53291e-14
-1.42174e-14
-1.8187e-14
1.14553e-14
-2.01336e-14
1.25515e-14
2.11268e-14
-1.35525e-14
8.03344e-10
-5.20824e-11
6.10949e-10
5.87849e-11
-8.3367e-11
-1.24948e-11
4.66997e-11
4.78908e-12
-9.77705e-12
-1.14712e-12
2.6759e-12
2.97298e-13
-8.90764e-13
-1.00533e-13
2.20396e-13
3.11011e-14
-5.62665e-14
-3.81287e-14
5.02042e-14
1.3656e-14
-1.8595e-14
3.04269e-14
-3.06685e-15
-4.17841e-14
4.18526e-14
1.93928e-14
3.26925e-14
1.23786e-14
-8.73859e-15
3.5982e-15
-4.27625e-14
5.63619e-15
-2.41032e-14
-5.65503e-15
-1.04622e-14
-2.23396e-14
-4.97728e-15
-1.04827e-14
0
-7.96642e-10
2.81079e-11
-5.64659e-10
-4.33638e-11
7.56613e-11
7.60127e-12
-4.30577e-11
-3.60096e-12
8.92722e-12
7.32508e-13
-2.47914e-12
-2.09323e-13
8.21333e-13
7.46348e-14
-2.27424e-13
-6.14027e-14
3.17938e-14
-8.04899e-15
-6.1212e-15
2.72237e-15
7.23785e-15
2.50632e-14
-1.93244e-14
-2.24142e-14
-1.00812e-14
-3.29738e-14
-1.67157e-14
-7.68375e-15
1.7973e-14
1.96753e-15
4.27436e-14
3.3616e-14
-3.89142e-15
-1.78423e-14
-2.23601e-14
6.96344e-15
-5.50538e-15
8.44198e-16
-1.35525e-14
7.81386e-10
-4.04272e-11
5.28896e-10
6.82529e-11
-7.1661e-11
-1.41675e-11
4.01893e-11
5.59464e-12
-8.40404e-12
-1.33079e-12
2.34445e-12
3.87368e-13
-8.08101e-13
-1.28219e-13
1.57972e-13
2.07378e-15
-3.71204e-14
-1.09901e-14
3.39067e-14
-1.77069e-15
-4.5889e-15
2.08512e-14
-3.60636e-14
-3.93152e-15
-3.05763e-14
1.12561e-14
1.09995e-14
-4.53794e-14
1.76105e-14
3.07762e-14
-2.697e-14
2.94267e-14
-6.98749e-15
-3.35596e-14
3.01677e-14
6.15058e-15
-7.20295e-15
-2.39654e-15
-1.35525e-14
-7.5356e-10
1.9231e-11
-4.74811e-10
-4.63262e-11
6.30881e-11
8.13902e-12
-3.59254e-11
-3.71952e-12
7.46061e-12
7.7941e-13
-2.0853e-12
-2.19115e-13
6.81956e-13
4.97019e-14
-1.66889e-13
1.96248e-14
2.43597e-14
-2.57351e-14
-1.48262e-14
-3.51857e-14
2.15086e-14
8.29977e-15
4.33882e-14
8.81094e-15
-3.54701e-15
1.2085e-14
-2.56027e-14
-5.52196e-14
4.25924e-14
2.24325e-16
2.28371e-14
3.2294e-14
-2.04215e-14
2.40568e-14
-2.64137e-14
8.28842e-15
-8.74612e-15
-5.23882e-15
0
7.26465e-10
-3.06694e-11
4.36624e-10
6.40421e-11
-5.86686e-11
-1.33165e-11
3.29853e-11
5.24963e-12
-6.90031e-12
-1.24071e-12
1.91589e-12
3.925e-13
-6.12629e-13
-1.81477e-13
1.60778e-13
8.2637e-14
-8.52805e-14
-1.60932e-14
-1.20597e-14
-4.02778e-14
-4.39788e-15
-8.85084e-15
-2.24923e-14
3.72047e-14
-3.95877e-14
-3.0787e-14
-2.93926e-14
-4.16117e-15
-1.00741e-14
4.75855e-15
3.35137e-14
-4.15688e-16
5.27667e-14
4.81596e-14
2.94633e-14
1.4984e-14
3.50731e-15
4.27814e-15
-1.35525e-14
-6.93092e-10
8.06375e-12
-3.85898e-10
-3.52514e-11
5.06017e-11
5.86361e-12
-2.89764e-11
-2.83619e-12
6.0521e-12
5.71195e-13
-1.70486e-12
-1.25191e-13
5.13789e-13
1.5637e-14
-9.42345e-14
-1.8248e-15
2.89095e-14
-1.35793e-14
-3.70689e-14
-1.37824e-14
3.27518e-14
8.94345e-15
2.891e-14
4.76133e-14
4.63944e-15
-7.20436e-15
2.999e-14
-2.45807e-14
1.44169e-14
1.90418e-14
1.42302e-14
7.28855e-15
1.03769e-14
7.47114e-15
-1.02011e-14
-7.75257e-15
-1.27817e-14
-7.19281e-15
1.35525e-14
6.65905e-10
-2.41913e-11
3.5651e-10
5.37144e-11
-4.75743e-11
-1.15418e-11
2.67114e-11
4.37223e-12
-5.6061e-12
-1.10029e-12
1.59531e-12
3.00323e-13
-4.99977e-13
-6.70042e-14
7.88304e-14
2.97222e-14
-5.62713e-14
-1.89333e-14
3.22299e-14
1.33364e-14
2.3805e-14
1.51053e-14
1.1499e-14
1.27364e-14
-3.64245e-14
1.368e-14
-3.55289e-14
-4.89848e-14
1.19134e-14
9.73857e-15
5.29458e-16
3.03557e-15
-1.06584e-14
-2.20156e-14
-4.74428e-15
6.75309e-15
1.91414e-14
8.04159e-15
-2.65057e-28
-6.36381e-10
-8.40257e-13
-3.14338e-10
-1.5575e-11
4.04048e-11
1.53205e-12
-2.34395e-11
-1.15913e-12
4.80613e-12
1.55495e-13
-1.36199e-12
-7.35986e-14
4.62695e-13
-6.69161e-15
-6.80415e-14
-1.63303e-14
5.06744e-14
4.55769e-14
-3.78822e-15
1.19227e-14
4.03665e-15
1.23025e-15
1.49174e-14
-5.7733e-16
1.11976e-15
2.34221e-14
-3.7173e-15
-8.02467e-15
8.60746e-16
1.01312e-16
-1.95095e-14
-9.01917e-15
-4.60416e-15
1.04591e-14
1.9539e-14
1.49586e-14
-1.10998e-14
2.1795e-14
-2.71051e-14
6.19966e-10
-2.8257e-11
3.00295e-10
4.53366e-11
-4.00318e-11
-1.08865e-11
2.24359e-11
3.7717e-12
-4.72423e-12
-1.08747e-12
1.2817e-12
3.01757e-13
-4.85717e-13
-1.52545e-13
9.72881e-14
1.80454e-14
6.82528e-15
2.5113e-14
1.69412e-14
3.5546e-14
-3.38373e-15
-9.62962e-15
7.92737e-15
-2.03901e-15
1.42776e-14
1.33722e-14
-4.20606e-15
-1.47099e-14
-9.7786e-15
1.80093e-14
2.09495e-14
1.45049e-14
3.00219e-14
1.99863e-15
1.72146e-14
1.66498e-15
5.78974e-15
1.4666e-14
0
-6.02887e-10
-1.26445e-11
-2.65845e-10
1.75097e-11
3.29171e-11
-7.19698e-12
-1.97516e-11
1.44413e-12
3.93852e-12
-8.4919e-13
-1.13249e-12
2.43372e-13
3.51218e-13
-9.36565e-14
-5.41296e-14
7.31557e-14
5.38338e-14
2.13096e-14
8.97518e-15
3.34375e-14
-8.28489e-15
-2.30115e-14
3.40581e-15
-1.18627e-14
-1.56153e-14
3.77908e-15
7.50548e-15
-1.73099e-14
4.22928e-14
3.63883e-14
-4.44597e-15
1.45697e-14
-2.63583e-14
-1.45009e-14
-8.83606e-16
-4.41821e-15
8.87627e-15
1.72507e-14
-1.35525e-14
6.07752e-10
-2.91921e-11
2.76157e-10
5.2779e-11
-3.86699e-11
-2.27475e-11
2.03466e-11
6.52922e-12
-4.54433e-12
-2.21356e-12
1.2822e-12
1.04525e-12
-3.71718e-13
-1.77857e-13
1.48595e-13
1.74354e-13
9.13363e-16
-6.29041e-15
1.45082e-15
4.50833e-14
-2.65893e-14
-2.56645e-14
-1.14894e-14
-9.60797e-16
2.08448e-15
9.91873e-15
1.15729e-14
1.1358e-14
8.66522e-15
7.46038e-15
4.51477e-15
4.99536e-15
7.4392e-15
-3.16965e-14
1.37161e-14
2.59754e-15
-5.17811e-15
3.67311e-14
-1.35525e-14
-5.84165e-10
-1.21282e-10
-2.46126e-10
6.96159e-11
2.24517e-11
-2.20717e-11
-1.60309e-11
1.2527e-11
3.37602e-12
-2.07705e-12
-4.14813e-13
1.65136e-12
3.68215e-13
-3.05076e-13
1.94691e-14
2.09666e-13
3.78795e-14
-6.44018e-14
1.7968e-14
2.59583e-14
-3.60451e-17
-4.54598e-15
2.04474e-14
1.41852e-15
1.91923e-14
7.90122e-15
7.24552e-15
6.10841e-16
3.79052e-15
1.28435e-14
-3.12159e-14
9.58206e-15
-3.65382e-14
-2.67556e-14
2.56125e-14
1.13731e-15
2.83566e-14
1.90726e-14
-1.35525e-14
5.32499e-10
1.07065e-11
2.9367e-10
3.42059e-10
-3.19964e-11
-1.28566e-10
2.64809e-11
6.78789e-11
-3.80171e-12
-2.26684e-11
1.76109e-12
7.67233e-12
-4.63626e-13
-2.61797e-12
1.25795e-13
7.31333e-13
-7.63231e-14
-2.9383e-13
3.44439e-15
4.13237e-14
-3.09142e-15
-2.43268e-14
-1.11276e-14
-5.86966e-15
-1.06802e-14
-5.25796e-15
6.20878e-15
8.13026e-15
1.8635e-14
-1.5474e-14
1.40424e-14
7.00394e-15
1.09199e-14
-6.51408e-15
-5.40263e-15
1.7434e-14
-2.28366e-14
4.26845e-15
-2.71051e-14
-1.79734e-10
-8.01768e-11
-2.86907e-11
1.87296e-11
-1.11944e-11
3.29326e-12
-1.42302e-12
3.11708e-13
-1.76183e-13
1.35525e-14
-2.71051e-14
0
1.35525e-14
-1.35525e-14
-2.71051e-14
-1.35525e-14
7.57306e-29
2.71051e-14
-1.67239e-28
)
;

boundaryField
{
    movingWall
    {
        type            calculated;
        value           nonuniform List<scalar> 
20
(
-3.26833e-10
-3.26345e-11
-1.27719e-10
7.03376e-11
-3.28784e-11
1.04897e-11
-3.90313e-12
1.0571e-12
-4.33681e-13
8.13152e-14
-5.42101e-14
0
0
2.71051e-14
-5.42101e-14
0
-2.71051e-14
2.71051e-14
2.71051e-14
-2.71051e-14
)
;
    }
    fixedWalls
    {
        type            calculated;
        value           nonuniform List<scalar> 
60
(
-2.91949e-10
4.835e-10
-8.86986e-10
5.6056e-10
-2.11528e-10
-1.27936e-11
9.73343e-11
-2.01499e-10
2.57715e-10
-3.38569e-10
3.77031e-10
-4.3837e-10
4.54498e-10
-5.0288e-10
5.012e-10
-5.57714e-10
5.32425e-10
-5.90809e-10
3.48246e-10
-3.26833e-10
0
0
0
-2.71051e-14
8.13152e-14
-2.71051e-14
0
0
-2.71051e-14
0
0
-2.71051e-14
5.42101e-14
-5.42101e-14
0
0
-2.71051e-14
0
-2.71051e-14
-2.71051e-14
-2.91949e-10
1.82065e-10
-1.66744e-10
8.88873e-11
-3.86473e-11
1.16359e-11
-4.52472e-12
1.18945e-12
-4.44221e-13
8.19676e-14
-6.31958e-14
-9.41074e-15
-1.49862e-15
4.78461e-15
-1.91566e-15
-8.23803e-15
9.37453e-15
1.57468e-14
4.40292e-15
0
)
;
    }
    frontAndBack
    {
        type            empty;
        value           nonuniform List<scalar> 0();
    }
}


// ************************************************************************* //
