/*--------------------------------*- C++ -*----------------------------------*\
| =========                 |                                                 |
| \\      /  F ield         | OpenFOAM: The Open Source CFD Toolbox           |
|  \\    /   O peration     | Version:  2312                                  |
|   \\  /    A nd           | Website:  www.openfoam.com                      |
|    \\/     M anipulation  |                                                 |
\*---------------------------------------------------------------------------*/
FoamFile
{
    version     2.0;
    format      ascii;
    arch        "LSB;label=32;scalar=64";
    class       surfaceScalarField;
    location    "5";
    object      surfaceK;
}
// * * * * * * * * * * * * * * * * * * * * * * * * * * * * * * * * * * * * * //

dimensions      [0 2 -2 0 0 0 0];

internalField   nonuniform List<scalar> 
760
(
1.437e-05
1.50366e-05
1.43699e-05
1.50366e-05
1.43699e-05
1.50356e-05
1.43699e-05
1.50352e-05
1.43698e-05
1.50346e-05
1.43698e-05
1.50342e-05
1.43698e-05
1.50337e-05
1.43698e-05
1.50333e-05
1.43698e-05
1.50329e-05
1.43698e-05
1.50326e-05
1.43698e-05
1.50323e-05
1.43697e-05
1.5032e-05
1.43697e-05
1.50318e-05
1.43697e-05
1.50315e-05
1.43697e-05
1.50314e-05
1.43697e-05
1.50313e-05
1.43697e-05
1.50312e-05
1.43697e-05
1.50311e-05
1.43697e-05
1.50311e-05
1.5031e-05
1.57032e-05
1.65863e-05
1.57022e-05
1.65863e-05
1.57009e-05
1.65841e-05
1.56999e-05
1.65833e-05
1.56989e-05
1.65819e-05
1.56981e-05
1.65811e-05
1.56972e-05
1.65799e-05
1.56965e-05
1.65791e-05
1.56958e-05
1.65783e-05
1.56951e-05
1.65775e-05
1.56946e-05
1.65769e-05
1.56941e-05
1.65762e-05
1.56936e-05
1.65758e-05
1.56932e-05
1.65753e-05
1.5693e-05
1.6575e-05
1.56927e-05
1.65746e-05
1.56926e-05
1.65744e-05
1.56924e-05
1.65742e-05
1.56924e-05
1.65742e-05
1.65741e-05
1.74694e-05
1.82134e-05
1.74682e-05
1.82134e-05
1.74665e-05
1.82108e-05
1.74653e-05
1.82098e-05
1.7464e-05
1.82081e-05
1.74629e-05
1.82071e-05
1.74619e-05
1.82057e-05
1.7461e-05
1.82048e-05
1.74601e-05
1.82037e-05
1.74593e-05
1.82028e-05
1.74586e-05
1.8202e-05
1.7458e-05
1.82012e-05
1.74574e-05
1.82007e-05
1.7457e-05
1.82e-05
1.74566e-05
1.81997e-05
1.74563e-05
1.81992e-05
1.74561e-05
1.8199e-05
1.7456e-05
1.81988e-05
1.74559e-05
1.81987e-05
1.81987e-05
1.89575e-05
1.9462e-05
1.8956e-05
1.94619e-05
1.89541e-05
1.9459e-05
1.89526e-05
1.94578e-05
1.89511e-05
1.94558e-05
1.89499e-05
1.94547e-05
1.89486e-05
1.94531e-05
1.89475e-05
1.94521e-05
1.89464e-05
1.94508e-05
1.89456e-05
1.94498e-05
1.89447e-05
1.94489e-05
1.8944e-05
1.9448e-05
1.89433e-05
1.94474e-05
1.89428e-05
1.94466e-05
1.89424e-05
1.94463e-05
1.8942e-05
1.94457e-05
1.89418e-05
1.94455e-05
1.89416e-05
1.94452e-05
1.89415e-05
1.94451e-05
1.94451e-05
1.99665e-05
2.02722e-05
1.99649e-05
2.0272e-05
1.99627e-05
2.02689e-05
1.9961e-05
2.02676e-05
1.99594e-05
2.02654e-05
1.9958e-05
2.02642e-05
1.99566e-05
2.02625e-05
1.99554e-05
2.02613e-05
1.99542e-05
2.026e-05
1.99532e-05
2.02589e-05
1.99522e-05
2.02579e-05
1.99514e-05
2.02569e-05
1.99507e-05
2.02563e-05
1.99501e-05
2.02554e-05
1.99496e-05
2.0255e-05
1.99492e-05
2.02544e-05
1.9949e-05
2.02542e-05
1.99488e-05
2.02539e-05
1.99487e-05
2.02538e-05
2.02537e-05
2.05777e-05
2.07552e-05
2.05761e-05
2.0755e-05
2.05738e-05
2.07518e-05
2.0572e-05
2.07504e-05
2.05702e-05
2.07481e-05
2.05687e-05
2.07469e-05
2.05672e-05
2.0745e-05
2.05659e-05
2.07438e-05
2.05646e-05
2.07424e-05
2.05636e-05
2.07412e-05
2.05626e-05
2.07402e-05
2.05617e-05
2.07391e-05
2.0561e-05
2.07385e-05
2.05603e-05
2.07376e-05
2.05598e-05
2.07372e-05
2.05594e-05
2.07366e-05
2.05591e-05
2.07363e-05
2.05589e-05
2.0736e-05
2.05588e-05
2.07359e-05
2.07358e-05
2.09325e-05
2.1038e-05
2.09308e-05
2.10379e-05
2.09284e-05
2.10345e-05
2.09265e-05
2.10331e-05
2.09247e-05
2.10307e-05
2.09231e-05
2.10295e-05
2.09216e-05
2.10275e-05
2.09202e-05
2.10263e-05
2.09189e-05
2.10248e-05
2.09178e-05
2.10237e-05
2.09168e-05
2.10226e-05
2.09159e-05
2.10215e-05
2.09151e-05
2.10208e-05
2.09145e-05
2.102e-05
2.09139e-05
2.10195e-05
2.09135e-05
2.10189e-05
2.09132e-05
2.10186e-05
2.0913e-05
2.10183e-05
2.09129e-05
2.10182e-05
2.10181e-05
2.11434e-05
2.12125e-05
2.11417e-05
2.12123e-05
2.11392e-05
2.12089e-05
2.11373e-05
2.12075e-05
2.11355e-05
2.12051e-05
2.11339e-05
2.12038e-05
2.11323e-05
2.12018e-05
2.11309e-05
2.12005e-05
2.11296e-05
2.11991e-05
2.11285e-05
2.11979e-05
2.11274e-05
2.11968e-05
2.11265e-05
2.11957e-05
2.11257e-05
2.11949e-05
2.1125e-05
2.11941e-05
2.11245e-05
2.11936e-05
2.1124e-05
2.1193e-05
2.11237e-05
2.11927e-05
2.11235e-05
2.11924e-05
2.11234e-05
2.11923e-05
2.11922e-05
2.12814e-05
2.13337e-05
2.12796e-05
2.13336e-05
2.12771e-05
2.13301e-05
2.12752e-05
2.13287e-05
2.12733e-05
2.13262e-05
2.12717e-05
2.13249e-05
2.12701e-05
2.1323e-05
2.12687e-05
2.13217e-05
2.12674e-05
2.13202e-05
2.12662e-05
2.1319e-05
2.12651e-05
2.13178e-05
2.12642e-05
2.13168e-05
2.12634e-05
2.1316e-05
2.12627e-05
2.13152e-05
2.12621e-05
2.13146e-05
2.12617e-05
2.1314e-05
2.12614e-05
2.13137e-05
2.12612e-05
2.13134e-05
2.12611e-05
2.13133e-05
2.13132e-05
2.1386e-05
2.14322e-05
2.13842e-05
2.14321e-05
2.13817e-05
2.14286e-05
2.13797e-05
2.14271e-05
2.13778e-05
2.14247e-05
2.13762e-05
2.14233e-05
2.13746e-05
2.14213e-05
2.13732e-05
2.14201e-05
2.13718e-05
2.14185e-05
2.13707e-05
2.14173e-05
2.13695e-05
2.14162e-05
2.13686e-05
2.14151e-05
2.13678e-05
2.14143e-05
2.13671e-05
2.14135e-05
2.13665e-05
2.14129e-05
2.13661e-05
2.14124e-05
2.13658e-05
2.1412e-05
2.13656e-05
2.14117e-05
2.13655e-05
2.14116e-05
2.14115e-05
2.14783e-05
2.15242e-05
2.14765e-05
2.15241e-05
2.1474e-05
2.15205e-05
2.14721e-05
2.1519e-05
2.14701e-05
2.15166e-05
2.14685e-05
2.15152e-05
2.14668e-05
2.15132e-05
2.14654e-05
2.1512e-05
2.14641e-05
2.15103e-05
2.14629e-05
2.15092e-05
2.14618e-05
2.15079e-05
2.14608e-05
2.1507e-05
2.146e-05
2.15061e-05
2.14593e-05
2.15053e-05
2.14587e-05
2.15047e-05
2.14583e-05
2.15042e-05
2.1458e-05
2.15038e-05
2.14578e-05
2.15035e-05
2.14577e-05
2.15034e-05
2.15033e-05
2.15699e-05
2.16186e-05
2.1568e-05
2.16185e-05
2.15655e-05
2.16149e-05
2.15635e-05
2.16134e-05
2.15617e-05
2.1611e-05
2.15599e-05
2.16096e-05
2.15583e-05
2.16075e-05
2.15569e-05
2.16064e-05
2.15555e-05
2.16046e-05
2.15543e-05
2.16036e-05
2.15532e-05
2.16022e-05
2.15522e-05
2.16013e-05
2.15514e-05
2.16003e-05
2.15507e-05
2.15996e-05
2.15501e-05
2.15989e-05
2.15497e-05
2.15985e-05
2.15493e-05
2.1598e-05
2.15491e-05
2.15978e-05
2.1549e-05
2.15977e-05
2.15976e-05
2.16673e-05
2.17212e-05
2.16654e-05
2.17211e-05
2.16629e-05
2.17175e-05
2.16609e-05
2.1716e-05
2.16589e-05
2.17135e-05
2.16572e-05
2.17121e-05
2.16556e-05
2.171e-05
2.16541e-05
2.17088e-05
2.16527e-05
2.17071e-05
2.16515e-05
2.1706e-05
2.16504e-05
2.17047e-05
2.16494e-05
2.17038e-05
2.16486e-05
2.17028e-05
2.16479e-05
2.1702e-05
2.16473e-05
2.17014e-05
2.16468e-05
2.17008e-05
2.16465e-05
2.17004e-05
2.16463e-05
2.17002e-05
2.16462e-05
2.17e-05
2.17e-05
2.17751e-05
2.18361e-05
2.17732e-05
2.1836e-05
2.17706e-05
2.18323e-05
2.17686e-05
2.18308e-05
2.17667e-05
2.18283e-05
2.17649e-05
2.18269e-05
2.17633e-05
2.18248e-05
2.17618e-05
2.18235e-05
2.17604e-05
2.18219e-05
2.17592e-05
2.18207e-05
2.1758e-05
2.18194e-05
2.17571e-05
2.18184e-05
2.17562e-05
2.18175e-05
2.17555e-05
2.18166e-05
2.17549e-05
2.18161e-05
2.17544e-05
2.18154e-05
2.17541e-05
2.18151e-05
2.17539e-05
2.18148e-05
2.17538e-05
2.18147e-05
2.18146e-05
2.1897e-05
2.19663e-05
2.18951e-05
2.19661e-05
2.18925e-05
2.19625e-05
2.18905e-05
2.19609e-05
2.18885e-05
2.19584e-05
2.18868e-05
2.1957e-05
2.1885e-05
2.19548e-05
2.18836e-05
2.19536e-05
2.18821e-05
2.19518e-05
2.18809e-05
2.19507e-05
2.18798e-05
2.19494e-05
2.18788e-05
2.19484e-05
2.18779e-05
2.19474e-05
2.18772e-05
2.19467e-05
2.18766e-05
2.1946e-05
2.18761e-05
2.19454e-05
2.18758e-05
2.1945e-05
2.18756e-05
2.19448e-05
2.18755e-05
2.19446e-05
2.19446e-05
2.20354e-05
2.21122e-05
2.20336e-05
2.21121e-05
2.2031e-05
2.21083e-05
2.20288e-05
2.21068e-05
2.20269e-05
2.21041e-05
2.20251e-05
2.21028e-05
2.20234e-05
2.21005e-05
2.20218e-05
2.20994e-05
2.20204e-05
2.20975e-05
2.20192e-05
2.20965e-05
2.2018e-05
2.2095e-05
2.2017e-05
2.20941e-05
2.20162e-05
2.2093e-05
2.20154e-05
2.20923e-05
2.20148e-05
2.20916e-05
2.20144e-05
2.20911e-05
2.2014e-05
2.20906e-05
2.20138e-05
2.20904e-05
2.20137e-05
2.20902e-05
2.20902e-05
2.21888e-05
2.22674e-05
2.21868e-05
2.22672e-05
2.21842e-05
2.22634e-05
2.21821e-05
2.22618e-05
2.21801e-05
2.22592e-05
2.21783e-05
2.22578e-05
2.21765e-05
2.22556e-05
2.2175e-05
2.22543e-05
2.21735e-05
2.22525e-05
2.21723e-05
2.22514e-05
2.21711e-05
2.225e-05
2.21701e-05
2.22489e-05
2.21692e-05
2.2248e-05
2.21685e-05
2.22471e-05
2.21679e-05
2.22465e-05
2.21674e-05
2.22459e-05
2.2167e-05
2.22455e-05
2.21668e-05
2.22453e-05
2.21667e-05
2.22451e-05
2.2245e-05
2.23458e-05
2.24133e-05
2.23438e-05
2.24132e-05
2.23411e-05
2.24094e-05
2.2339e-05
2.24079e-05
2.23369e-05
2.24052e-05
2.23351e-05
2.24038e-05
2.23333e-05
2.24017e-05
2.23318e-05
2.24003e-05
2.23303e-05
2.23986e-05
2.23291e-05
2.23973e-05
2.23278e-05
2.23961e-05
2.23268e-05
2.23949e-05
2.2326e-05
2.23941e-05
2.23252e-05
2.23931e-05
2.23246e-05
2.23926e-05
2.23241e-05
2.23919e-05
2.23237e-05
2.23916e-05
2.23235e-05
2.23913e-05
2.23234e-05
2.23911e-05
2.2391e-05
2.24807e-05
2.251e-05
2.24788e-05
2.251e-05
2.24762e-05
2.25081e-05
2.24741e-05
2.25073e-05
2.24721e-05
2.2506e-05
2.24704e-05
2.25052e-05
2.24686e-05
2.25042e-05
2.24671e-05
2.25035e-05
2.24656e-05
2.25027e-05
2.24644e-05
2.2502e-05
2.24632e-05
2.25014e-05
2.24622e-05
2.25008e-05
2.24613e-05
2.25004e-05
2.24605e-05
2.24999e-05
2.24599e-05
2.24996e-05
2.24594e-05
2.24993e-05
2.24591e-05
2.24991e-05
2.24589e-05
2.2499e-05
2.24587e-05
2.24989e-05
2.24988e-05
2.25393e-05
2.25393e-05
2.25392e-05
2.25392e-05
2.25391e-05
2.25391e-05
2.25391e-05
2.25391e-05
2.2539e-05
2.2539e-05
2.2539e-05
2.2539e-05
2.2539e-05
2.2539e-05
2.2539e-05
2.2539e-05
2.2539e-05
2.2539e-05
2.2539e-05
)
;

boundaryField
{
    movingWall
    {
        type            calculated;
        value           nonuniform List<scalar> 
20
(
2.25394e-05
2.25393e-05
2.25392e-05
2.25392e-05
2.25392e-05
2.25391e-05
2.25391e-05
2.25391e-05
2.2539e-05
2.2539e-05
2.2539e-05
2.2539e-05
2.2539e-05
2.2539e-05
2.2539e-05
2.2539e-05
2.2539e-05
2.2539e-05
2.2539e-05
2.2539e-05
)
;
    }
    fixedWalls
    {
        type            calculated;
        value           nonuniform List<scalar> 
60
(
1.437e-05
1.57032e-05
1.74694e-05
1.89575e-05
1.99665e-05
2.05778e-05
2.09326e-05
2.11435e-05
2.12814e-05
2.13861e-05
2.14784e-05
2.15699e-05
2.16673e-05
2.17751e-05
2.18971e-05
2.20355e-05
2.21889e-05
2.23459e-05
2.24807e-05
2.25394e-05
1.43697e-05
1.56924e-05
1.74559e-05
1.89415e-05
1.99487e-05
2.05588e-05
2.09129e-05
2.11234e-05
2.1261e-05
2.13654e-05
2.14576e-05
2.1549e-05
2.16462e-05
2.17538e-05
2.18755e-05
2.20137e-05
2.21667e-05
2.23234e-05
2.24587e-05
2.2539e-05
1.437e-05
1.43699e-05
1.43699e-05
1.43699e-05
1.43699e-05
1.43698e-05
1.43698e-05
1.43698e-05
1.43698e-05
1.43698e-05
1.43698e-05
1.43697e-05
1.43697e-05
1.43697e-05
1.43697e-05
1.43697e-05
1.43697e-05
1.43697e-05
1.43697e-05
1.43697e-05
)
;
    }
    frontAndBack
    {
        type            empty;
        value           nonuniform List<scalar> 0();
    }
}


// ************************************************************************* //
