/*--------------------------------*- C++ -*----------------------------------*\
| =========                 |                                                 |
| \\      /  F ield         | OpenFOAM: The Open Source CFD Toolbox           |
|  \\    /   O peration     | Version:  2312                                  |
|   \\  /    A nd           | Website:  www.openfoam.com                      |
|    \\/     M anipulation  |                                                 |
\*---------------------------------------------------------------------------*/
FoamFile
{
    version     2.0;
    format      ascii;
    arch        "LSB;label=32;scalar=64";
    class       volSymmTensorField;
    location    "5";
    object      turbulenceProperties:R;
}
// * * * * * * * * * * * * * * * * * * * * * * * * * * * * * * * * * * * * * //

dimensions      [0 2 -2 0 0 0 0];

internalField   nonuniform List<symmTensor> 
400
(
(9.57999e-06 -0 -0 9.57999e-06 -0 9.57999e-06)
(9.57996e-06 5.74418e-20 -0 9.57996e-06 -0 9.57996e-06)
(9.57993e-06 -0 -0 9.57993e-06 -0 9.57993e-06)
(9.57992e-06 -5.74418e-20 -0 9.57992e-06 -0 9.57992e-06)
(9.5799e-06 -5.74417e-20 -0 9.5799e-06 -0 9.5799e-06)
(9.57989e-06 -0 -0 9.57989e-06 -0 9.57989e-06)
(9.57987e-06 -0 -0 9.57987e-06 -0 9.57987e-06)
(9.57986e-06 -0 -0 9.57986e-06 -0 9.57986e-06)
(9.57986e-06 -0 -0 9.57986e-06 -0 9.57986e-06)
(9.57984e-06 -0 -0 9.57984e-06 -0 9.57984e-06)
(9.57984e-06 -0 -0 9.57984e-06 -0 9.57984e-06)
(9.57983e-06 -0 -0 9.57983e-06 -0 9.57983e-06)
(9.57983e-06 -0 -0 9.57983e-06 -0 9.57983e-06)
(9.57982e-06 -0 -0 9.57982e-06 -0 9.57982e-06)
(9.57982e-06 -0 -0 9.57982e-06 -0 9.57982e-06)
(9.57982e-06 -0 -0 9.57982e-06 -0 9.57982e-06)
(9.57982e-06 -0 -0 9.57982e-06 -0 9.57982e-06)
(9.57982e-06 -0 -0 9.57982e-06 -0 9.57982e-06)
(9.57982e-06 -0 -0 9.57982e-06 -0 9.57982e-06)
(9.57982e-06 -0 -0 9.57982e-06 -0 9.57982e-06)
(1.04688e-05 -0 -0 1.04688e-05 -0 1.04688e-05)
(1.04688e-05 -0 -0 1.04688e-05 -0 1.04688e-05)
(1.04675e-05 -0 -0 1.04675e-05 -0 1.04675e-05)
(1.0467e-05 -0 -0 1.0467e-05 -0 1.0467e-05)
(1.04662e-05 -0 -0 1.04662e-05 -0 1.04662e-05)
(1.04657e-05 -0 -0 1.04657e-05 -0 1.04657e-05)
(1.0465e-05 -0 -0 1.0465e-05 -0 1.0465e-05)
(1.04646e-05 -0 -0 1.04646e-05 -0 1.04646e-05)
(1.04641e-05 -0 -0 1.04641e-05 -0 1.04641e-05)
(1.04636e-05 -0 -0 1.04636e-05 -0 1.04636e-05)
(1.04633e-05 -0 -0 1.04633e-05 -0 1.04633e-05)
(1.04628e-05 -0 -0 1.04628e-05 -0 1.04628e-05)
(1.04626e-05 -0 -0 1.04626e-05 -0 1.04626e-05)
(1.04622e-05 -0 -0 1.04622e-05 -0 1.04622e-05)
(1.04621e-05 -0 -0 1.04621e-05 -0 1.04621e-05)
(1.04619e-05 -0 -0 1.04619e-05 -0 1.04619e-05)
(1.04617e-05 -0 -0 1.04617e-05 -0 1.04617e-05)
(1.04617e-05 -0 -0 1.04617e-05 -0 1.04617e-05)
(1.04616e-05 -0 -0 1.04616e-05 -0 1.04616e-05)
(1.04616e-05 -0 -0 1.04616e-05 -0 1.04616e-05)
(1.16463e-05 -0 -0 1.16463e-05 -0 1.16463e-05)
(1.16462e-05 -0 -0 1.16462e-05 -0 1.16462e-05)
(1.16447e-05 -0 -0 1.16447e-05 -0 1.16447e-05)
(1.1644e-05 -0 -0 1.1644e-05 -0 1.1644e-05)
(1.1643e-05 -0 -0 1.1643e-05 -0 1.1643e-05)
(1.16424e-05 -0 -0 1.16424e-05 -0 1.16424e-05)
(1.16415e-05 -0 -0 1.16415e-05 -0 1.16415e-05)
(1.1641e-05 -0 -0 1.1641e-05 -0 1.1641e-05)
(1.16403e-05 -0 -0 1.16403e-05 -0 1.16403e-05)
(1.16398e-05 -0 -0 1.16398e-05 -0 1.16398e-05)
(1.16393e-05 -0 -0 1.16393e-05 -0 1.16393e-05)
(1.16388e-05 -0 -0 1.16388e-05 -0 1.16388e-05)
(1.16385e-05 -0 -0 1.16385e-05 -0 1.16385e-05)
(1.16381e-05 -0 -0 1.16381e-05 -0 1.16381e-05)
(1.16379e-05 -0 -0 1.16379e-05 -0 1.16379e-05)
(1.16376e-05 -0 -0 1.16376e-05 -0 1.16376e-05)
(1.16375e-05 -0 -0 1.16375e-05 -0 1.16375e-05)
(1.16373e-05 -0 -0 1.16373e-05 -0 1.16373e-05)
(1.16373e-05 -0 -0 1.16373e-05 -0 1.16373e-05)
(1.16372e-05 -0 -0 1.16372e-05 -0 1.16372e-05)
(1.26383e-05 -0 -0 1.26383e-05 -0 1.26383e-05)
(1.26383e-05 -0 -0 1.26383e-05 -0 1.26383e-05)
(1.26364e-05 -0 -0 1.26364e-05 -0 1.26364e-05)
(1.26357e-05 -0 -0 1.26357e-05 -0 1.26357e-05)
(1.26344e-05 -0 -0 1.26344e-05 -0 1.26344e-05)
(1.26337e-05 -0 -0 1.26337e-05 -0 1.26337e-05)
(1.26327e-05 -0 -0 1.26327e-05 -0 1.26327e-05)
(1.2632e-05 -0 -0 1.2632e-05 -0 1.2632e-05)
(1.26313e-05 -0 -0 1.26313e-05 -0 1.26313e-05)
(1.26306e-05 -0 -0 1.26306e-05 -0 1.26306e-05)
(1.26301e-05 -0 -0 1.26301e-05 -0 1.26301e-05)
(1.26295e-05 -0 -0 1.26295e-05 -0 1.26295e-05)
(1.26291e-05 -0 -0 1.26291e-05 -0 1.26291e-05)
(1.26286e-05 -0 -0 1.26286e-05 -0 1.26286e-05)
(1.26284e-05 -0 -0 1.26284e-05 -0 1.26284e-05)
(1.26281e-05 -0 -0 1.26281e-05 -0 1.26281e-05)
(1.26279e-05 -0 -0 1.26279e-05 -0 1.26279e-05)
(1.26278e-05 -0 -0 1.26278e-05 -0 1.26278e-05)
(1.26277e-05 -0 -0 1.26277e-05 -0 1.26277e-05)
(1.26277e-05 -0 -0 1.26277e-05 -0 1.26277e-05)
(1.3311e-05 -0 -0 1.3311e-05 -0 1.3311e-05)
(1.33109e-05 -0 -0 1.33109e-05 -0 1.33109e-05)
(1.33089e-05 -0 -0 1.33089e-05 -0 1.33089e-05)
(1.33081e-05 -0 -0 1.33081e-05 -0 1.33081e-05)
(1.33067e-05 -0 -0 1.33067e-05 -0 1.33067e-05)
(1.33059e-05 -0 -0 1.33059e-05 -0 1.33059e-05)
(1.33047e-05 -0 -0 1.33047e-05 -0 1.33047e-05)
(1.3304e-05 -0 -0 1.3304e-05 -0 1.3304e-05)
(1.33031e-05 -0 -0 1.33031e-05 -0 1.33031e-05)
(1.33025e-05 -0 -0 1.33025e-05 -0 1.33025e-05)
(1.33018e-05 -0 -0 1.33018e-05 -0 1.33018e-05)
(1.33012e-05 -0 -0 1.33012e-05 -0 1.33012e-05)
(1.33008e-05 -0 -0 1.33008e-05 -0 1.33008e-05)
(1.33002e-05 -0 -0 1.33002e-05 -0 1.33002e-05)
(1.33e-05 -0 -0 1.33e-05 -0 1.33e-05)
(1.32996e-05 -0 -0 1.32996e-05 -0 1.32996e-05)
(1.32994e-05 -0 -0 1.32994e-05 -0 1.32994e-05)
(1.32992e-05 -0 -0 1.32992e-05 -0 1.32992e-05)
(1.32992e-05 -0 -0 1.32992e-05 -0 1.32992e-05)
(1.32991e-05 -0 -0 1.32991e-05 -0 1.32991e-05)
(1.37185e-05 -0 -0 1.37185e-05 -0 1.37185e-05)
(1.37184e-05 -0 -0 1.37184e-05 -0 1.37184e-05)
(1.37163e-05 -0 -0 1.37163e-05 -0 1.37163e-05)
(1.37154e-05 -0 -0 1.37154e-05 -0 1.37154e-05)
(1.37139e-05 -0 -0 1.37139e-05 -0 1.37139e-05)
(1.37131e-05 -0 -0 1.37131e-05 -0 1.37131e-05)
(1.37119e-05 -0 -0 1.37119e-05 -0 1.37119e-05)
(1.37111e-05 -0 -0 1.37111e-05 -0 1.37111e-05)
(1.37102e-05 -0 -0 1.37102e-05 -0 1.37102e-05)
(1.37094e-05 -0 -0 1.37094e-05 -0 1.37094e-05)
(1.37088e-05 -0 -0 1.37088e-05 -0 1.37088e-05)
(1.3708e-05 -0 -0 1.3708e-05 -0 1.3708e-05)
(1.37076e-05 -0 -0 1.37076e-05 -0 1.37076e-05)
(1.3707e-05 -0 -0 1.3707e-05 -0 1.3707e-05)
(1.37068e-05 -0 -0 1.37068e-05 -0 1.37068e-05)
(1.37063e-05 -0 -0 1.37063e-05 -0 1.37063e-05)
(1.37062e-05 -0 -0 1.37062e-05 -0 1.37062e-05)
(1.3706e-05 -0 -0 1.3706e-05 -0 1.3706e-05)
(1.37059e-05 -0 -0 1.37059e-05 -0 1.37059e-05)
(1.37059e-05 -0 -0 1.37059e-05 -0 1.37059e-05)
(1.3955e-05 -0 -0 1.3955e-05 -0 1.3955e-05)
(1.39549e-05 -0 -0 1.39549e-05 -0 1.39549e-05)
(1.39527e-05 -0 -0 1.39527e-05 -0 1.39527e-05)
(1.39518e-05 -0 -0 1.39518e-05 -0 1.39518e-05)
(1.39502e-05 -0 -0 1.39502e-05 -0 1.39502e-05)
(1.39494e-05 -0 -0 1.39494e-05 -0 1.39494e-05)
(1.39481e-05 -0 -0 1.39481e-05 -0 1.39481e-05)
(1.39473e-05 -0 -0 1.39473e-05 -0 1.39473e-05)
(1.39463e-05 -0 -0 1.39463e-05 -0 1.39463e-05)
(1.39456e-05 -0 -0 1.39456e-05 -0 1.39456e-05)
(1.39449e-05 -0 -0 1.39449e-05 -0 1.39449e-05)
(1.39442e-05 -0 -0 1.39442e-05 -0 1.39442e-05)
(1.39437e-05 -0 -0 1.39437e-05 -0 1.39437e-05)
(1.39431e-05 -0 -0 1.39431e-05 -0 1.39431e-05)
(1.39428e-05 -0 -0 1.39428e-05 -0 1.39428e-05)
(1.39424e-05 -0 -0 1.39424e-05 -0 1.39424e-05)
(1.39422e-05 -0 -0 1.39422e-05 -0 1.39422e-05)
(1.3942e-05 -0 -0 1.3942e-05 -0 1.3942e-05)
(1.39419e-05 -0 -0 1.39419e-05 -0 1.39419e-05)
(1.39419e-05 -0 -0 1.39419e-05 -0 1.39419e-05)
(1.40957e-05 -0 -0 1.40957e-05 -0 1.40957e-05)
(1.40956e-05 -0 -0 1.40956e-05 -0 1.40956e-05)
(1.40933e-05 -0 -0 1.40933e-05 -0 1.40933e-05)
(1.40923e-05 -0 -0 1.40923e-05 -0 1.40923e-05)
(1.40908e-05 -0 -0 1.40908e-05 -0 1.40908e-05)
(1.40899e-05 -0 -0 1.40899e-05 -0 1.40899e-05)
(1.40886e-05 -0 -0 1.40886e-05 -0 1.40886e-05)
(1.40878e-05 -0 -0 1.40878e-05 -0 1.40878e-05)
(1.40868e-05 -0 -0 1.40868e-05 -0 1.40868e-05)
(1.4086e-05 -0 -0 1.4086e-05 -0 1.4086e-05)
(1.40853e-05 -0 -0 1.40853e-05 -0 1.40853e-05)
(1.40845e-05 -0 -0 1.40845e-05 -0 1.40845e-05)
(1.40841e-05 -0 -0 1.40841e-05 -0 1.40841e-05)
(1.40835e-05 -0 -0 1.40835e-05 -0 1.40835e-05)
(1.40831e-05 -0 -0 1.40831e-05 -0 1.40831e-05)
(1.40828e-05 -0 -0 1.40828e-05 -0 1.40828e-05)
(1.40826e-05 -0 -0 1.40826e-05 -0 1.40826e-05)
(1.40824e-05 -0 -0 1.40824e-05 -0 1.40824e-05)
(1.40823e-05 -0 -0 1.40823e-05 -0 1.40823e-05)
(1.40823e-05 -0 -0 1.40823e-05 -0 1.40823e-05)
(1.41876e-05 -0 -0 1.41876e-05 -0 1.41876e-05)
(1.41875e-05 -0 -0 1.41875e-05 -0 1.41875e-05)
(1.41852e-05 -0 -0 1.41852e-05 -0 1.41852e-05)
(1.41843e-05 -0 -0 1.41843e-05 -0 1.41843e-05)
(1.41827e-05 -0 -0 1.41827e-05 -0 1.41827e-05)
(1.41818e-05 -0 -0 1.41818e-05 -0 1.41818e-05)
(1.41805e-05 -0 -0 1.41805e-05 -0 1.41805e-05)
(1.41796e-05 -0 -0 1.41796e-05 -0 1.41796e-05)
(1.41786e-05 -0 -0 1.41786e-05 -0 1.41786e-05)
(1.41779e-05 -0 -0 1.41779e-05 -0 1.41779e-05)
(1.41771e-05 -0 -0 1.41771e-05 -0 1.41771e-05)
(1.41764e-05 -0 -0 1.41764e-05 -0 1.41764e-05)
(1.41758e-05 -0 -0 1.41758e-05 -0 1.41758e-05)
(1.41753e-05 -0 -0 1.41753e-05 -0 1.41753e-05)
(1.41749e-05 -0 -0 1.41749e-05 -0 1.41749e-05)
(1.41746e-05 -0 -0 1.41746e-05 -0 1.41746e-05)
(1.41743e-05 -0 -0 1.41743e-05 -0 1.41743e-05)
(1.41742e-05 -0 -0 1.41742e-05 -0 1.41742e-05)
(1.41741e-05 -0 -0 1.41741e-05 -0 1.41741e-05)
(1.4174e-05 -0 -0 1.4174e-05 -0 1.4174e-05)
(1.42574e-05 -0 -0 1.42574e-05 -0 1.42574e-05)
(1.42573e-05 -0 -0 1.42573e-05 -0 1.42573e-05)
(1.42549e-05 -0 -0 1.42549e-05 -0 1.42549e-05)
(1.42539e-05 -0 -0 1.42539e-05 -0 1.42539e-05)
(1.42523e-05 -0 -0 1.42523e-05 -0 1.42523e-05)
(1.42515e-05 -0 -0 1.42515e-05 -0 1.42515e-05)
(1.42501e-05 -0 -0 1.42501e-05 -0 1.42501e-05)
(1.42493e-05 -0 -0 1.42493e-05 -0 1.42493e-05)
(1.42483e-05 -0 -0 1.42483e-05 -0 1.42483e-05)
(1.42475e-05 -0 -0 1.42475e-05 -0 1.42475e-05)
(1.42467e-05 -0 -0 1.42467e-05 -0 1.42467e-05)
(1.4246e-05 -0 -0 1.4246e-05 -0 1.4246e-05)
(1.42455e-05 -0 -0 1.42455e-05 -0 1.42455e-05)
(1.42449e-05 -0 -0 1.42449e-05 -0 1.42449e-05)
(1.42446e-05 -0 -0 1.42446e-05 -0 1.42446e-05)
(1.42442e-05 -0 -0 1.42442e-05 -0 1.42442e-05)
(1.42439e-05 -0 -0 1.42439e-05 -0 1.42439e-05)
(1.42438e-05 -0 -0 1.42438e-05 -0 1.42438e-05)
(1.42437e-05 -0 -0 1.42437e-05 -0 1.42437e-05)
(1.42436e-05 -0 -0 1.42436e-05 -0 1.42436e-05)
(1.43189e-05 -0 -0 1.43189e-05 -0 1.43189e-05)
(1.43188e-05 -0 -0 1.43188e-05 -0 1.43188e-05)
(1.43165e-05 -0 -0 1.43165e-05 -0 1.43165e-05)
(1.43155e-05 -0 -0 1.43155e-05 -0 1.43155e-05)
(1.43139e-05 -0 -0 1.43139e-05 -0 1.43139e-05)
(1.4313e-05 -0 -0 1.4313e-05 -0 1.4313e-05)
(1.43117e-05 -0 -0 1.43117e-05 -0 1.43117e-05)
(1.43108e-05 -0 -0 1.43108e-05 -0 1.43108e-05)
(1.43098e-05 -0 -0 1.43098e-05 -0 1.43098e-05)
(1.4309e-05 -0 -0 1.4309e-05 -0 1.4309e-05)
(1.43082e-05 -0 -0 1.43082e-05 -0 1.43082e-05)
(1.43075e-05 -0 -0 1.43075e-05 -0 1.43075e-05)
(1.43069e-05 -0 -0 1.43069e-05 -0 1.43069e-05)
(1.43064e-05 -0 -0 1.43064e-05 -0 1.43064e-05)
(1.4306e-05 -0 -0 1.4306e-05 -0 1.4306e-05)
(1.43056e-05 -0 -0 1.43056e-05 -0 1.43056e-05)
(1.43054e-05 -0 -0 1.43054e-05 -0 1.43054e-05)
(1.43052e-05 -0 -0 1.43052e-05 -0 1.43052e-05)
(1.43051e-05 -0 -0 1.43051e-05 -0 1.43051e-05)
(1.43051e-05 -0 -0 1.43051e-05 -0 1.43051e-05)
(1.438e-05 -0 -0 1.438e-05 -0 1.438e-05)
(1.43799e-05 -0 -0 1.43799e-05 -0 1.43799e-05)
(1.43775e-05 -0 -0 1.43775e-05 -0 1.43775e-05)
(1.43765e-05 -0 -0 1.43765e-05 -0 1.43765e-05)
(1.43749e-05 -0 -0 1.43749e-05 -0 1.43749e-05)
(1.4374e-05 -0 -0 1.4374e-05 -0 1.4374e-05)
(1.43726e-05 -0 -0 1.43726e-05 -0 1.43726e-05)
(1.43718e-05 -0 -0 1.43718e-05 -0 1.43718e-05)
(1.43706e-05 -0 -0 1.43706e-05 -0 1.43706e-05)
(1.437e-05 -0 -0 1.437e-05 -0 1.437e-05)
(1.43691e-05 -0 -0 1.43691e-05 -0 1.43691e-05)
(1.43685e-05 -0 -0 1.43685e-05 -0 1.43685e-05)
(1.43678e-05 -0 -0 1.43678e-05 -0 1.43678e-05)
(1.43674e-05 -0 -0 1.43674e-05 -0 1.43674e-05)
(1.43669e-05 -0 -0 1.43669e-05 -0 1.43669e-05)
(1.43666e-05 -0 -0 1.43666e-05 -0 1.43666e-05)
(1.43663e-05 -0 -0 1.43663e-05 -0 1.43663e-05)
(1.43662e-05 -0 -0 1.43662e-05 -0 1.43662e-05)
(1.4366e-05 -0 -0 1.4366e-05 -0 1.4366e-05)
(1.4366e-05 -0 -0 1.4366e-05 -0 1.4366e-05)
(1.44449e-05 -0 -0 1.44449e-05 -0 1.44449e-05)
(1.44448e-05 -0 -0 1.44448e-05 -0 1.44448e-05)
(1.44424e-05 -0 -0 1.44424e-05 -0 1.44424e-05)
(1.44414e-05 -0 -0 1.44414e-05 -0 1.44414e-05)
(1.44397e-05 -0 -0 1.44397e-05 -0 1.44397e-05)
(1.44389e-05 -0 -0 1.44389e-05 -0 1.44389e-05)
(1.44374e-05 -0 -0 1.44374e-05 -0 1.44374e-05)
(1.44366e-05 -0 -0 1.44366e-05 -0 1.44366e-05)
(1.44355e-05 -0 -0 1.44355e-05 -0 1.44355e-05)
(1.44348e-05 -0 -0 1.44348e-05 -0 1.44348e-05)
(1.44339e-05 -0 -0 1.44339e-05 -0 1.44339e-05)
(1.44333e-05 -0 -0 1.44333e-05 -0 1.44333e-05)
(1.44326e-05 -0 -0 1.44326e-05 -0 1.44326e-05)
(1.44322e-05 -0 -0 1.44322e-05 -0 1.44322e-05)
(1.44317e-05 -0 -0 1.44317e-05 -0 1.44317e-05)
(1.44314e-05 -0 -0 1.44314e-05 -0 1.44314e-05)
(1.44311e-05 -0 -0 1.44311e-05 -0 1.44311e-05)
(1.44309e-05 -0 -0 1.44309e-05 -0 1.44309e-05)
(1.44308e-05 -0 -0 1.44308e-05 -0 1.44308e-05)
(1.44308e-05 -0 -0 1.44308e-05 -0 1.44308e-05)
(1.45168e-05 -0 -0 1.45168e-05 -0 1.45168e-05)
(1.45167e-05 -0 -0 1.45167e-05 -0 1.45167e-05)
(1.45142e-05 -0 -0 1.45142e-05 -0 1.45142e-05)
(1.45132e-05 -0 -0 1.45132e-05 -0 1.45132e-05)
(1.45116e-05 -0 -0 1.45116e-05 -0 1.45116e-05)
(1.45106e-05 -0 -0 1.45106e-05 -0 1.45106e-05)
(1.45093e-05 -0 -0 1.45093e-05 -0 1.45093e-05)
(1.45084e-05 -0 -0 1.45084e-05 -0 1.45084e-05)
(1.45073e-05 -0 -0 1.45073e-05 -0 1.45073e-05)
(1.45065e-05 -0 -0 1.45065e-05 -0 1.45065e-05)
(1.45057e-05 -0 -0 1.45057e-05 -0 1.45057e-05)
(1.4505e-05 -0 -0 1.4505e-05 -0 1.4505e-05)
(1.45044e-05 -0 -0 1.45044e-05 -0 1.45044e-05)
(1.45039e-05 -0 -0 1.45039e-05 -0 1.45039e-05)
(1.45035e-05 -0 -0 1.45035e-05 -0 1.45035e-05)
(1.45031e-05 -0 -0 1.45031e-05 -0 1.45031e-05)
(1.45028e-05 -0 -0 1.45028e-05 -0 1.45028e-05)
(1.45026e-05 -0 -0 1.45026e-05 -0 1.45026e-05)
(1.45026e-05 -0 -0 1.45026e-05 -0 1.45026e-05)
(1.45025e-05 -0 -0 1.45025e-05 -0 1.45025e-05)
(1.4598e-05 -0 -0 1.4598e-05 -0 1.4598e-05)
(1.45979e-05 -0 -0 1.45979e-05 -0 1.45979e-05)
(1.45955e-05 -0 -0 1.45955e-05 -0 1.45955e-05)
(1.45945e-05 -0 -0 1.45945e-05 -0 1.45945e-05)
(1.45928e-05 -0 -0 1.45928e-05 -0 1.45928e-05)
(1.45918e-05 -0 -0 1.45918e-05 -0 1.45918e-05)
(1.45905e-05 -0 -0 1.45905e-05 -0 1.45905e-05)
(1.45895e-05 -0 -0 1.45895e-05 -0 1.45895e-05)
(1.45885e-05 -0 -0 1.45885e-05 -0 1.45885e-05)
(1.45877e-05 -0 -0 1.45877e-05 -0 1.45877e-05)
(1.45869e-05 -0 -0 1.45869e-05 -0 1.45869e-05)
(1.45861e-05 -0 -0 1.45861e-05 -0 1.45861e-05)
(1.45856e-05 -0 -0 1.45856e-05 -0 1.45856e-05)
(1.4585e-05 -0 -0 1.4585e-05 -0 1.4585e-05)
(1.45846e-05 -0 -0 1.45846e-05 -0 1.45846e-05)
(1.45842e-05 -0 -0 1.45842e-05 -0 1.45842e-05)
(1.4584e-05 -0 -0 1.4584e-05 -0 1.4584e-05)
(1.45838e-05 -0 -0 1.45838e-05 -0 1.45838e-05)
(1.45837e-05 -0 -0 1.45837e-05 -0 1.45837e-05)
(1.45836e-05 -0 -0 1.45836e-05 -0 1.45836e-05)
(1.46903e-05 -0 -0 1.46903e-05 -0 1.46903e-05)
(1.46902e-05 -0 -0 1.46902e-05 -0 1.46902e-05)
(1.46878e-05 -0 -0 1.46878e-05 -0 1.46878e-05)
(1.46868e-05 -0 -0 1.46868e-05 -0 1.46868e-05)
(1.4685e-05 -0 -0 1.4685e-05 -0 1.4685e-05)
(1.46841e-05 -0 -0 1.46841e-05 -0 1.46841e-05)
(1.46826e-05 -0 -0 1.46826e-05 -0 1.46826e-05)
(1.46819e-05 -0 -0 1.46819e-05 -0 1.46819e-05)
(1.46806e-05 -0 -0 1.46806e-05 -0 1.46806e-05)
(1.468e-05 -0 -0 1.468e-05 -0 1.468e-05)
(1.46789e-05 -0 -0 1.46789e-05 -0 1.46789e-05)
(1.46784e-05 -0 -0 1.46784e-05 -0 1.46784e-05)
(1.46776e-05 -0 -0 1.46776e-05 -0 1.46776e-05)
(1.46772e-05 -0 -0 1.46772e-05 -0 1.46772e-05)
(1.46767e-05 -0 -0 1.46767e-05 -0 1.46767e-05)
(1.46764e-05 -0 -0 1.46764e-05 -0 1.46764e-05)
(1.46761e-05 -0 -0 1.46761e-05 -0 1.46761e-05)
(1.46759e-05 -0 -0 1.46759e-05 -0 1.46759e-05)
(1.46758e-05 -0 -0 1.46758e-05 -0 1.46758e-05)
(1.46758e-05 -0 -0 1.46758e-05 -0 1.46758e-05)
(1.47926e-05 -0 -0 1.47926e-05 -0 1.47926e-05)
(1.47925e-05 -0 -0 1.47925e-05 -0 1.47925e-05)
(1.47899e-05 -0 -0 1.47899e-05 -0 1.47899e-05)
(1.47889e-05 -0 -0 1.47889e-05 -0 1.47889e-05)
(1.47872e-05 -0 -0 1.47872e-05 -0 1.47872e-05)
(1.47863e-05 -0 -0 1.47863e-05 -0 1.47863e-05)
(1.47848e-05 -0 -0 1.47848e-05 -0 1.47848e-05)
(1.4784e-05 -0 -0 1.4784e-05 -0 1.4784e-05)
(1.47827e-05 -0 -0 1.47827e-05 -0 1.47827e-05)
(1.4782e-05 -0 -0 1.4782e-05 -0 1.4782e-05)
(1.47811e-05 -0 -0 1.47811e-05 -0 1.47811e-05)
(1.47804e-05 -0 -0 1.47804e-05 -0 1.47804e-05)
(1.47797e-05 -0 -0 1.47797e-05 -0 1.47797e-05)
(1.47792e-05 -0 -0 1.47792e-05 -0 1.47792e-05)
(1.47788e-05 -0 -0 1.47788e-05 -0 1.47788e-05)
(1.47784e-05 -0 -0 1.47784e-05 -0 1.47784e-05)
(1.47781e-05 -0 -0 1.47781e-05 -0 1.47781e-05)
(1.47779e-05 -0 -0 1.47779e-05 -0 1.47779e-05)
(1.47778e-05 -0 -0 1.47778e-05 -0 1.47778e-05)
(1.47778e-05 -0 -0 1.47778e-05 -0 1.47778e-05)
(1.48972e-05 -0 -0 1.48972e-05 -0 1.48972e-05)
(1.48971e-05 -0 -0 1.48971e-05 -0 1.48971e-05)
(1.48946e-05 -0 -0 1.48946e-05 -0 1.48946e-05)
(1.48935e-05 -0 -0 1.48935e-05 -0 1.48935e-05)
(1.48917e-05 -0 -0 1.48917e-05 -0 1.48917e-05)
(1.48908e-05 -0 -0 1.48908e-05 -0 1.48908e-05)
(1.48893e-05 -0 -0 1.48893e-05 -0 1.48893e-05)
(1.48885e-05 -0 -0 1.48885e-05 -0 1.48885e-05)
(1.48873e-05 -0 -0 1.48873e-05 -0 1.48873e-05)
(1.48865e-05 -0 -0 1.48865e-05 -0 1.48865e-05)
(1.48856e-05 -0 -0 1.48856e-05 -0 1.48856e-05)
(1.48848e-05 -0 -0 1.48848e-05 -0 1.48848e-05)
(1.48843e-05 -0 -0 1.48843e-05 -0 1.48843e-05)
(1.48837e-05 -0 -0 1.48837e-05 -0 1.48837e-05)
(1.48833e-05 -0 -0 1.48833e-05 -0 1.48833e-05)
(1.48828e-05 -0 -0 1.48828e-05 -0 1.48828e-05)
(1.48826e-05 -0 -0 1.48826e-05 -0 1.48826e-05)
(1.48824e-05 -0 -0 1.48824e-05 -0 1.48824e-05)
(1.48823e-05 -0 -0 1.48823e-05 -0 1.48823e-05)
(1.48823e-05 -0 -0 1.48823e-05 -0 1.48823e-05)
(1.49872e-05 -0 -0 1.49872e-05 -0 1.49872e-05)
(1.49872e-05 -0 -0 1.49872e-05 -0 1.49872e-05)
(1.49846e-05 -0 -0 1.49846e-05 -0 1.49846e-05)
(1.49836e-05 -0 -0 1.49836e-05 -0 1.49836e-05)
(1.49819e-05 -0 -0 1.49819e-05 -0 1.49819e-05)
(1.49809e-05 -0 -0 1.49809e-05 -0 1.49809e-05)
(1.49796e-05 -0 -0 1.49796e-05 -0 1.49796e-05)
(1.49786e-05 -0 -0 1.49786e-05 -0 1.49786e-05)
(1.49776e-05 -0 -0 1.49776e-05 -0 1.49776e-05)
(1.49766e-05 -0 -0 1.49766e-05 -0 1.49766e-05)
(1.49759e-05 -0 -0 1.49759e-05 -0 1.49759e-05)
(1.4975e-05 -0 -0 1.4975e-05 -0 1.4975e-05)
(1.49745e-05 -0 -0 1.49745e-05 -0 1.49745e-05)
(1.49738e-05 -0 -0 1.49738e-05 -0 1.49738e-05)
(1.49735e-05 -0 -0 1.49735e-05 -0 1.49735e-05)
(1.4973e-05 -0 -0 1.4973e-05 -0 1.4973e-05)
(1.49728e-05 -0 -0 1.49728e-05 -0 1.49728e-05)
(1.49726e-05 -0 -0 1.49726e-05 -0 1.49726e-05)
(1.49725e-05 -0 -0 1.49725e-05 -0 1.49725e-05)
(1.49725e-05 -0 -0 1.49725e-05 -0 1.49725e-05)
(1.50262e-05 -0 -0 1.50262e-05 -0 1.50262e-05)
(1.50262e-05 -0 -0 1.50262e-05 -0 1.50262e-05)
(1.50262e-05 -0 -0 1.50262e-05 -0 1.50262e-05)
(1.50261e-05 -0 -0 1.50261e-05 -0 1.50261e-05)
(1.50261e-05 -0 -0 1.50261e-05 -0 1.50261e-05)
(1.50261e-05 -0 -0 1.50261e-05 -0 1.50261e-05)
(1.50261e-05 -0 -0 1.50261e-05 -0 1.50261e-05)
(1.5026e-05 -0 -0 1.5026e-05 -0 1.5026e-05)
(1.5026e-05 -0 -0 1.5026e-05 -0 1.5026e-05)
(1.5026e-05 -0 -0 1.5026e-05 -0 1.5026e-05)
(1.5026e-05 -0 -0 1.5026e-05 -0 1.5026e-05)
(1.5026e-05 -0 -0 1.5026e-05 -0 1.5026e-05)
(1.5026e-05 -0 -0 1.5026e-05 -0 1.5026e-05)
(1.5026e-05 -0 -0 1.5026e-05 -0 1.5026e-05)
(1.5026e-05 -0 -0 1.5026e-05 -0 1.5026e-05)
(1.5026e-05 -0 -0 1.5026e-05 -0 1.5026e-05)
(1.5026e-05 -0 -0 1.5026e-05 -0 1.5026e-05)
(1.5026e-05 -0 -0 1.5026e-05 -0 1.5026e-05)
(1.5026e-05 -0 -0 1.5026e-05 -0 1.5026e-05)
(1.5026e-05 -0 -0 1.5026e-05 -0 1.5026e-05)
)
;

boundaryField
{
    movingWall
    {
        type            kqRWallFunction;
        value           nonuniform List<symmTensor> 
20
(
(1.50262e-05 -0 -0 1.50262e-05 -0 1.50262e-05)
(1.50262e-05 -0 -0 1.50262e-05 -0 1.50262e-05)
(1.50262e-05 -0 -0 1.50262e-05 -0 1.50262e-05)
(1.50261e-05 -0 -0 1.50261e-05 -0 1.50261e-05)
(1.50261e-05 -0 -0 1.50261e-05 -0 1.50261e-05)
(1.50261e-05 -0 -0 1.50261e-05 -0 1.50261e-05)
(1.50261e-05 -0 -0 1.50261e-05 -0 1.50261e-05)
(1.5026e-05 -0 -0 1.5026e-05 -0 1.5026e-05)
(1.5026e-05 -0 -0 1.5026e-05 -0 1.5026e-05)
(1.5026e-05 -0 -0 1.5026e-05 -0 1.5026e-05)
(1.5026e-05 -0 -0 1.5026e-05 -0 1.5026e-05)
(1.5026e-05 -0 -0 1.5026e-05 -0 1.5026e-05)
(1.5026e-05 -0 -0 1.5026e-05 -0 1.5026e-05)
(1.5026e-05 -0 -0 1.5026e-05 -0 1.5026e-05)
(1.5026e-05 -0 -0 1.5026e-05 -0 1.5026e-05)
(1.5026e-05 -0 -0 1.5026e-05 -0 1.5026e-05)
(1.5026e-05 -0 -0 1.5026e-05 -0 1.5026e-05)
(1.5026e-05 -0 -0 1.5026e-05 -0 1.5026e-05)
(1.5026e-05 -0 -0 1.5026e-05 -0 1.5026e-05)
(1.5026e-05 -0 -0 1.5026e-05 -0 1.5026e-05)
)
;
    }
    fixedWalls
    {
        type            kqRWallFunction;
        value           nonuniform List<symmTensor> 
60
(
(9.57999e-06 -0 -0 9.57999e-06 -0 9.57999e-06)
(1.04688e-05 -0 -0 1.04688e-05 -0 1.04688e-05)
(1.16463e-05 -0 -0 1.16463e-05 -0 1.16463e-05)
(1.26383e-05 -0 -0 1.26383e-05 -0 1.26383e-05)
(1.3311e-05 -0 -0 1.3311e-05 -0 1.3311e-05)
(1.37185e-05 -0 -0 1.37185e-05 -0 1.37185e-05)
(1.3955e-05 -0 -0 1.3955e-05 -0 1.3955e-05)
(1.40957e-05 -0 -0 1.40957e-05 -0 1.40957e-05)
(1.41876e-05 -0 -0 1.41876e-05 -0 1.41876e-05)
(1.42574e-05 -0 -0 1.42574e-05 -0 1.42574e-05)
(1.43189e-05 -0 -0 1.43189e-05 -0 1.43189e-05)
(1.438e-05 -0 -0 1.438e-05 -0 1.438e-05)
(1.44449e-05 -0 -0 1.44449e-05 -0 1.44449e-05)
(1.45168e-05 -0 -0 1.45168e-05 -0 1.45168e-05)
(1.4598e-05 -0 -0 1.4598e-05 -0 1.4598e-05)
(1.46903e-05 -0 -0 1.46903e-05 -0 1.46903e-05)
(1.47926e-05 -0 -0 1.47926e-05 -0 1.47926e-05)
(1.48972e-05 -0 -0 1.48972e-05 -0 1.48972e-05)
(1.49872e-05 -0 -0 1.49872e-05 -0 1.49872e-05)
(1.50262e-05 -0 -0 1.50262e-05 -0 1.50262e-05)
(9.57982e-06 -0 -0 9.57982e-06 -0 9.57982e-06)
(1.04616e-05 -0 -0 1.04616e-05 -0 1.04616e-05)
(1.16372e-05 -0 -0 1.16372e-05 -0 1.16372e-05)
(1.26277e-05 -0 -0 1.26277e-05 -0 1.26277e-05)
(1.32991e-05 -0 -0 1.32991e-05 -0 1.32991e-05)
(1.37059e-05 -0 -0 1.37059e-05 -0 1.37059e-05)
(1.39419e-05 -0 -0 1.39419e-05 -0 1.39419e-05)
(1.40823e-05 -0 -0 1.40823e-05 -0 1.40823e-05)
(1.4174e-05 -0 -0 1.4174e-05 -0 1.4174e-05)
(1.42436e-05 -0 -0 1.42436e-05 -0 1.42436e-05)
(1.43051e-05 -0 -0 1.43051e-05 -0 1.43051e-05)
(1.4366e-05 -0 -0 1.4366e-05 -0 1.4366e-05)
(1.44308e-05 -0 -0 1.44308e-05 -0 1.44308e-05)
(1.45025e-05 -0 -0 1.45025e-05 -0 1.45025e-05)
(1.45836e-05 -0 -0 1.45836e-05 -0 1.45836e-05)
(1.46758e-05 -0 -0 1.46758e-05 -0 1.46758e-05)
(1.47778e-05 -0 -0 1.47778e-05 -0 1.47778e-05)
(1.48823e-05 -0 -0 1.48823e-05 -0 1.48823e-05)
(1.49725e-05 -0 -0 1.49725e-05 -0 1.49725e-05)
(1.5026e-05 -0 -0 1.5026e-05 -0 1.5026e-05)
(9.57999e-06 -0 -0 9.57999e-06 -0 9.57999e-06)
(9.57996e-06 -0 -0 9.57996e-06 -0 9.57996e-06)
(9.57993e-06 -0 -0 9.57993e-06 -0 9.57993e-06)
(9.57992e-06 -0 -0 9.57992e-06 -0 9.57992e-06)
(9.5799e-06 -0 -0 9.5799e-06 -0 9.5799e-06)
(9.57989e-06 -0 -0 9.57989e-06 -0 9.57989e-06)
(9.57987e-06 -0 -0 9.57987e-06 -0 9.57987e-06)
(9.57986e-06 -0 -0 9.57986e-06 -0 9.57986e-06)
(9.57986e-06 -0 -0 9.57986e-06 -0 9.57986e-06)
(9.57984e-06 -0 -0 9.57984e-06 -0 9.57984e-06)
(9.57984e-06 -0 -0 9.57984e-06 -0 9.57984e-06)
(9.57983e-06 -0 -0 9.57983e-06 -0 9.57983e-06)
(9.57983e-06 -0 -0 9.57983e-06 -0 9.57983e-06)
(9.57982e-06 -0 -0 9.57982e-06 -0 9.57982e-06)
(9.57982e-06 -0 -0 9.57982e-06 -0 9.57982e-06)
(9.57982e-06 -0 -0 9.57982e-06 -0 9.57982e-06)
(9.57982e-06 -0 -0 9.57982e-06 -0 9.57982e-06)
(9.57982e-06 -0 -0 9.57982e-06 -0 9.57982e-06)
(9.57982e-06 -0 -0 9.57982e-06 -0 9.57982e-06)
(9.57982e-06 -0 -0 9.57982e-06 -0 9.57982e-06)
)
;
    }
    frontAndBack
    {
        type            empty;
    }
}


// ************************************************************************* //
