/*--------------------------------*- C++ -*----------------------------------*\
| =========                 |                                                 |
| \\      /  F ield         | OpenFOAM: The Open Source CFD Toolbox           |
|  \\    /   O peration     | Version:  2312                                  |
|   \\  /    A nd           | Website:  www.openfoam.com                      |
|    \\/     M anipulation  |                                                 |
\*---------------------------------------------------------------------------*/
FoamFile
{
    version     2.0;
    format      ascii;
    arch        "LSB;label=32;scalar=64";
    class       volScalarField;
    location    "5";
    object      turbulenceProperties:L;
}
// * * * * * * * * * * * * * * * * * * * * * * * * * * * * * * * * * * * * * //

dimensions      [0 1 0 0 0 0 0];

internalField   nonuniform List<scalar> 
400
(
0.00102068
0.00102068
0.00102068
0.00102068
0.00102068
0.00102068
0.00102068
0.00102068
0.00102068
0.00102068
0.00102068
0.00102068
0.00102068
0.00102068
0.00102068
0.00102068
0.00102068
0.00102068
0.00102068
0.00102068
0.00102024
0.00104472
0.00104251
0.0010416
0.00103981
0.00103886
0.00103711
0.00103612
0.0010344
0.00103338
0.00103169
0.00103064
0.00102897
0.0010279
0.00102624
0.00102517
0.00102351
0.00102244
0.0010216
0.00102024
0.0010198
0.00104604
0.00104364
0.00104265
0.00104071
0.00103968
0.00103778
0.00103672
0.00103487
0.00103377
0.00103195
0.00103084
0.00102905
0.00102792
0.00102615
0.00102502
0.00102325
0.00102213
0.00102124
0.00101981
0.00101955
0.00104704
0.00104452
0.00104348
0.00104145
0.00104037
0.00103838
0.00103726
0.00103533
0.00103418
0.00103228
0.0010311
0.00102924
0.00102805
0.0010262
0.00102501
0.00102317
0.00102198
0.00102106
0.00101956
0.00101943
0.00104777
0.00104517
0.0010441
0.001042
0.00104089
0.00103884
0.00103769
0.00103569
0.00103451
0.00103255
0.00103134
0.00102941
0.00102819
0.00102628
0.00102505
0.00102316
0.00102194
0.00102098
0.00101944
0.00101937
0.00104821
0.00104557
0.00104448
0.00104234
0.00104121
0.00103913
0.00103795
0.00103593
0.00103471
0.00103273
0.00103149
0.00102954
0.00102828
0.00102635
0.0010251
0.00102317
0.00102192
0.00102095
0.00101938
0.00101935
0.00104847
0.00104581
0.0010447
0.00104254
0.0010414
0.00103929
0.00103812
0.00103606
0.00103484
0.00103283
0.00103158
0.00102961
0.00102835
0.00102639
0.00102513
0.00102318
0.00102192
0.00102094
0.00101935
0.00101933
0.00104862
0.00104594
0.00104483
0.00104266
0.00104151
0.00103939
0.0010382
0.00103614
0.00103491
0.00103289
0.00103163
0.00102965
0.00102838
0.00102641
0.00102515
0.00102318
0.00102192
0.00102094
0.00101934
0.00101932
0.00104872
0.00104603
0.00104491
0.00104273
0.00104158
0.00103946
0.00103826
0.00103619
0.00103496
0.00103292
0.00103167
0.00102967
0.00102841
0.00102643
0.00102515
0.00102319
0.00102192
0.00102093
0.00101933
0.00101931
0.00104878
0.00104609
0.00104497
0.00104278
0.00104163
0.0010395
0.0010383
0.00103622
0.00103499
0.00103295
0.00103169
0.00102969
0.00102842
0.00102643
0.00102516
0.00102319
0.00102192
0.00102093
0.00101932
0.0010193
0.00104884
0.00104614
0.00104502
0.00104283
0.00104167
0.00103954
0.00103833
0.00103625
0.00103501
0.00103297
0.00103171
0.0010297
0.00102843
0.00102644
0.00102516
0.00102319
0.00102191
0.00102092
0.00101931
0.00101929
0.0010489
0.00104619
0.00104507
0.00104287
0.00104171
0.00103956
0.00103837
0.00103627
0.00103505
0.00103298
0.00103174
0.00102971
0.00102844
0.00102644
0.00102517
0.00102318
0.00102191
0.00102091
0.0010193
0.00101928
0.00104895
0.00104624
0.00104512
0.00104291
0.00104175
0.0010396
0.0010384
0.0010363
0.00103507
0.001033
0.00103175
0.00102972
0.00102845
0.00102645
0.00102517
0.00102318
0.0010219
0.0010209
0.00101928
0.00101926
0.00104902
0.00104629
0.00104517
0.00104296
0.00104179
0.00103964
0.00103843
0.00103633
0.00103509
0.00103303
0.00103177
0.00102974
0.00102846
0.00102645
0.00102517
0.00102318
0.00102189
0.00102089
0.00101927
0.00101925
0.00104909
0.00104636
0.00104523
0.00104301
0.00104184
0.00103969
0.00103847
0.00103637
0.00103512
0.00103306
0.00103178
0.00102976
0.00102846
0.00102646
0.00102517
0.00102317
0.00102188
0.00102088
0.00101926
0.00101923
0.00104916
0.00104643
0.00104529
0.00104307
0.0010419
0.00103972
0.00103852
0.00103639
0.00103516
0.00103307
0.00103182
0.00102976
0.00102849
0.00102646
0.00102518
0.00102316
0.00102188
0.00102087
0.00101924
0.00101921
0.00104925
0.00104649
0.00104536
0.00104313
0.00104196
0.00103978
0.00103857
0.00103643
0.00103519
0.0010331
0.00103183
0.00102978
0.00102849
0.00102647
0.00102517
0.00102316
0.00102186
0.00102085
0.00101921
0.00101918
0.00104932
0.00104656
0.00104542
0.00104318
0.00104201
0.00103982
0.0010386
0.00103647
0.00103521
0.00103313
0.00103184
0.0010298
0.0010285
0.00102647
0.00102516
0.00102315
0.00102185
0.00102083
0.00101919
0.00101916
0.00104874
0.00104608
0.00104498
0.00104282
0.00104166
0.00103957
0.00103835
0.0010363
0.00103503
0.00103302
0.00103172
0.00102974
0.00102842
0.00102644
0.00102511
0.00102314
0.00102181
0.00102081
0.00101917
0.00101915
0.00101915
0.00101915
0.00101915
0.00101915
0.00101915
0.00101915
0.00101915
0.00101915
0.00101915
0.00101915
0.00101915
0.00101915
0.00101915
0.00101915
0.00101915
0.00101915
0.00101915
0.00101915
0.00101915
)
;

boundaryField
{
    movingWall
    {
        type            calculated;
        value           nonuniform List<scalar> 
20
(
0.00101915
0.00101915
0.00101915
0.00101915
0.00101915
0.00101915
0.00101915
0.00101915
0.00101915
0.00101915
0.00101915
0.00101915
0.00101915
0.00101915
0.00101915
0.00101915
0.00101915
0.00101915
0.00101915
0.00101915
)
;
    }
    fixedWalls
    {
        type            calculated;
        value           nonuniform List<scalar> 
60
(
0.00102068
0.00102024
0.0010198
0.00101955
0.00101943
0.00101937
0.00101935
0.00101933
0.00101932
0.00101931
0.0010193
0.00101929
0.00101928
0.00101926
0.00101925
0.00101923
0.00101921
0.00101918
0.00101916
0.00101915
0.00102068
0.00102024
0.00101981
0.00101956
0.00101944
0.00101938
0.00101935
0.00101934
0.00101933
0.00101932
0.00101931
0.0010193
0.00101928
0.00101927
0.00101926
0.00101924
0.00101921
0.00101919
0.00101917
0.00101915
0.00102068
0.00102068
0.00102068
0.00102068
0.00102068
0.00102068
0.00102068
0.00102068
0.00102068
0.00102068
0.00102068
0.00102068
0.00102068
0.00102068
0.00102068
0.00102068
0.00102068
0.00102068
0.00102068
0.00102068
)
;
    }
    frontAndBack
    {
        type            empty;
    }
}


// ************************************************************************* //
