/*--------------------------------*- C++ -*----------------------------------*\
| =========                 |                                                 |
| \\      /  F ield         | OpenFOAM: The Open Source CFD Toolbox           |
|  \\    /   O peration     | Version:  2312                                  |
|   \\  /    A nd           | Website:  www.openfoam.com                      |
|    \\/     M anipulation  |                                                 |
\*---------------------------------------------------------------------------*/
FoamFile
{
    version     2.0;
    format      ascii;
    arch        "LSB;label=32;scalar=64";
    class       volScalarField;
    location    "5";
    object      turbulenceProperties:nuEff;
}
// * * * * * * * * * * * * * * * * * * * * * * * * * * * * * * * * * * * * * //

dimensions      [0 2 -1 0 0 0 0];

internalField   nonuniform List<scalar> 
400
(
1.21192e-05
1.21192e-05
1.21192e-05
1.21192e-05
1.21192e-05
1.21192e-05
1.21192e-05
1.21192e-05
1.21192e-05
1.21192e-05
1.21192e-05
1.21192e-05
1.21192e-05
1.21192e-05
1.21192e-05
1.21192e-05
1.21192e-05
1.21192e-05
1.21192e-05
1.21192e-05
1.22144e-05
1.22675e-05
1.22626e-05
1.22606e-05
1.22566e-05
1.22545e-05
1.22506e-05
1.22484e-05
1.22446e-05
1.22424e-05
1.22387e-05
1.22363e-05
1.22327e-05
1.22303e-05
1.22267e-05
1.22244e-05
1.22208e-05
1.22184e-05
1.22166e-05
1.22136e-05
1.23346e-05
1.23947e-05
1.2389e-05
1.23867e-05
1.23821e-05
1.23797e-05
1.23753e-05
1.23728e-05
1.23685e-05
1.23659e-05
1.23617e-05
1.23591e-05
1.2355e-05
1.23524e-05
1.23483e-05
1.23457e-05
1.23416e-05
1.2339e-05
1.2337e-05
1.23337e-05
1.24314e-05
1.2497e-05
1.24908e-05
1.24882e-05
1.24833e-05
1.24806e-05
1.24758e-05
1.2473e-05
1.24684e-05
1.24655e-05
1.2461e-05
1.24581e-05
1.24536e-05
1.24507e-05
1.24463e-05
1.24434e-05
1.2439e-05
1.24362e-05
1.2434e-05
1.24304e-05
1.2495e-05
1.25643e-05
1.25578e-05
1.25551e-05
1.25498e-05
1.2547e-05
1.25419e-05
1.2539e-05
1.2534e-05
1.25311e-05
1.25262e-05
1.25232e-05
1.25185e-05
1.25154e-05
1.25107e-05
1.25077e-05
1.2503e-05
1.25e-05
1.24977e-05
1.24939e-05
1.25328e-05
1.26044e-05
1.25976e-05
1.25948e-05
1.25894e-05
1.25865e-05
1.25812e-05
1.25782e-05
1.25731e-05
1.257e-05
1.2565e-05
1.25619e-05
1.2557e-05
1.25538e-05
1.2549e-05
1.25458e-05
1.2541e-05
1.25379e-05
1.25355e-05
1.25316e-05
1.25544e-05
1.26274e-05
1.26205e-05
1.26177e-05
1.26121e-05
1.26092e-05
1.26038e-05
1.26007e-05
1.25955e-05
1.25924e-05
1.25873e-05
1.25841e-05
1.25791e-05
1.25759e-05
1.25709e-05
1.25678e-05
1.25628e-05
1.25597e-05
1.25572e-05
1.25532e-05
1.25672e-05
1.2641e-05
1.2634e-05
1.26311e-05
1.26255e-05
1.26226e-05
1.26171e-05
1.2614e-05
1.26087e-05
1.26056e-05
1.26004e-05
1.25972e-05
1.25921e-05
1.25889e-05
1.25839e-05
1.25807e-05
1.25757e-05
1.25725e-05
1.257e-05
1.2566e-05
1.25756e-05
1.26498e-05
1.26428e-05
1.26399e-05
1.26343e-05
1.26313e-05
1.26258e-05
1.26227e-05
1.26173e-05
1.26142e-05
1.2609e-05
1.26057e-05
1.26006e-05
1.25974e-05
1.25924e-05
1.25891e-05
1.25841e-05
1.25809e-05
1.25784e-05
1.25743e-05
1.25819e-05
1.26565e-05
1.26495e-05
1.26465e-05
1.26408e-05
1.26378e-05
1.26323e-05
1.26292e-05
1.26239e-05
1.26207e-05
1.26154e-05
1.26122e-05
1.26071e-05
1.26038e-05
1.25987e-05
1.25955e-05
1.25905e-05
1.25872e-05
1.25847e-05
1.25806e-05
1.25874e-05
1.26624e-05
1.26553e-05
1.26524e-05
1.26467e-05
1.26436e-05
1.26381e-05
1.2635e-05
1.26296e-05
1.26264e-05
1.26211e-05
1.26179e-05
1.26127e-05
1.26094e-05
1.26043e-05
1.26011e-05
1.2596e-05
1.25928e-05
1.25903e-05
1.25862e-05
1.25929e-05
1.26682e-05
1.26611e-05
1.26581e-05
1.26524e-05
1.26494e-05
1.26438e-05
1.26407e-05
1.26352e-05
1.2632e-05
1.26267e-05
1.26235e-05
1.26183e-05
1.2615e-05
1.26099e-05
1.26066e-05
1.26015e-05
1.25983e-05
1.25958e-05
1.25916e-05
1.25987e-05
1.26744e-05
1.26672e-05
1.26643e-05
1.26585e-05
1.26554e-05
1.26498e-05
1.26467e-05
1.26412e-05
1.2638e-05
1.26327e-05
1.26294e-05
1.26242e-05
1.26209e-05
1.26158e-05
1.26125e-05
1.26074e-05
1.26041e-05
1.26016e-05
1.25974e-05
1.26051e-05
1.26812e-05
1.2674e-05
1.2671e-05
1.26652e-05
1.26621e-05
1.26565e-05
1.26533e-05
1.26479e-05
1.26446e-05
1.26393e-05
1.2636e-05
1.26308e-05
1.26275e-05
1.26223e-05
1.2619e-05
1.26139e-05
1.26106e-05
1.2608e-05
1.26039e-05
1.26124e-05
1.26888e-05
1.26816e-05
1.26786e-05
1.26728e-05
1.26697e-05
1.26641e-05
1.26608e-05
1.26554e-05
1.26521e-05
1.26467e-05
1.26434e-05
1.26382e-05
1.26348e-05
1.26296e-05
1.26263e-05
1.26212e-05
1.26178e-05
1.26153e-05
1.26111e-05
1.26206e-05
1.26975e-05
1.26903e-05
1.26873e-05
1.26814e-05
1.26783e-05
1.26725e-05
1.26694e-05
1.26638e-05
1.26606e-05
1.26551e-05
1.26518e-05
1.26465e-05
1.26432e-05
1.26379e-05
1.26346e-05
1.26294e-05
1.26261e-05
1.26235e-05
1.26193e-05
1.26296e-05
1.27071e-05
1.26998e-05
1.26968e-05
1.26908e-05
1.26877e-05
1.2682e-05
1.26788e-05
1.26732e-05
1.26699e-05
1.26644e-05
1.26611e-05
1.26557e-05
1.26524e-05
1.26471e-05
1.26437e-05
1.26385e-05
1.26352e-05
1.26325e-05
1.26283e-05
1.26388e-05
1.27168e-05
1.27095e-05
1.27064e-05
1.27005e-05
1.26973e-05
1.26915e-05
1.26883e-05
1.26827e-05
1.26794e-05
1.26739e-05
1.26705e-05
1.26652e-05
1.26617e-05
1.26564e-05
1.2653e-05
1.26478e-05
1.26444e-05
1.26418e-05
1.26375e-05
1.26467e-05
1.27235e-05
1.27164e-05
1.27135e-05
1.27077e-05
1.27046e-05
1.2699e-05
1.26958e-05
1.26904e-05
1.2687e-05
1.26817e-05
1.26783e-05
1.26731e-05
1.26696e-05
1.26644e-05
1.26609e-05
1.26558e-05
1.26523e-05
1.26497e-05
1.26454e-05
1.26501e-05
1.26501e-05
1.26501e-05
1.26501e-05
1.26501e-05
1.26501e-05
1.26501e-05
1.26501e-05
1.26501e-05
1.26501e-05
1.26501e-05
1.26501e-05
1.26501e-05
1.26501e-05
1.26501e-05
1.26501e-05
1.26501e-05
1.26501e-05
1.26501e-05
1.26501e-05
)
;

boundaryField
{
    movingWall
    {
        type            calculated;
        value           uniform 1e-05;
    }
    fixedWalls
    {
        type            calculated;
        value           uniform 1e-05;
    }
    frontAndBack
    {
        type            empty;
    }
}


// ************************************************************************* //
