/*--------------------------------*- C++ -*----------------------------------*\
| =========                 |                                                 |
| \\      /  F ield         | OpenFOAM: The Open Source CFD Toolbox           |
|  \\    /   O peration     | Version:  2312                                  |
|   \\  /    A nd           | Website:  www.openfoam.com                      |
|    \\/     M anipulation  |                                                 |
\*---------------------------------------------------------------------------*/
FoamFile
{
    version     2.0;
    format      ascii;
    arch        "LSB;label=32;scalar=64";
    class       volScalarField;
    location    "5";
    object      turbulenceProperties:nuTilda;
}
// * * * * * * * * * * * * * * * * * * * * * * * * * * * * * * * * * * * * * //

dimensions      [0 2 -1 0 0 0 0];

internalField   nonuniform List<scalar> 
400
(
2.11923e-06
2.11923e-06
2.11923e-06
2.11923e-06
2.11922e-06
2.11922e-06
2.11922e-06
2.11922e-06
2.11922e-06
2.11922e-06
2.11922e-06
2.11922e-06
2.11922e-06
2.11922e-06
2.11922e-06
2.11922e-06
2.11922e-06
2.11922e-06
2.11922e-06
2.11922e-06
2.21439e-06
2.26753e-06
2.2626e-06
2.26058e-06
2.2566e-06
2.25448e-06
2.25062e-06
2.24841e-06
2.24464e-06
2.24236e-06
2.23866e-06
2.23634e-06
2.23269e-06
2.23034e-06
2.22672e-06
2.22436e-06
2.22075e-06
2.21841e-06
2.21659e-06
2.21364e-06
2.33462e-06
2.39468e-06
2.38903e-06
2.3867e-06
2.38214e-06
2.37972e-06
2.3753e-06
2.3728e-06
2.3685e-06
2.36594e-06
2.36173e-06
2.35914e-06
2.35499e-06
2.35239e-06
2.3483e-06
2.34569e-06
2.34163e-06
2.33904e-06
2.33701e-06
2.33372e-06
2.43142e-06
2.49697e-06
2.49077e-06
2.48824e-06
2.48325e-06
2.48061e-06
2.47578e-06
2.47304e-06
2.46836e-06
2.46555e-06
2.46098e-06
2.45811e-06
2.45363e-06
2.45074e-06
2.44632e-06
2.44344e-06
2.43904e-06
2.43621e-06
2.43399e-06
2.43041e-06
2.49499e-06
2.56433e-06
2.55779e-06
2.55509e-06
2.54981e-06
2.54702e-06
2.54189e-06
2.53902e-06
2.53404e-06
2.53108e-06
2.52622e-06
2.5232e-06
2.51845e-06
2.5154e-06
2.51072e-06
2.50768e-06
2.50302e-06
2.50002e-06
2.49768e-06
2.49389e-06
2.53276e-06
2.6044e-06
2.59764e-06
2.59485e-06
2.58939e-06
2.58651e-06
2.58121e-06
2.57822e-06
2.5731e-06
2.57e-06
2.56502e-06
2.56187e-06
2.55699e-06
2.55382e-06
2.54899e-06
2.54584e-06
2.54104e-06
2.53793e-06
2.53552e-06
2.5316e-06
2.55443e-06
2.6274e-06
2.62053e-06
2.61767e-06
2.6121e-06
2.60918e-06
2.60377e-06
2.60075e-06
2.59549e-06
2.59238e-06
2.58727e-06
2.58408e-06
2.57909e-06
2.57589e-06
2.57094e-06
2.56776e-06
2.56285e-06
2.55969e-06
2.55723e-06
2.55324e-06
2.56723e-06
2.641e-06
2.63402e-06
2.63115e-06
2.62552e-06
2.62255e-06
2.6171e-06
2.61402e-06
2.60874e-06
2.60557e-06
2.60042e-06
2.59719e-06
2.59214e-06
2.58891e-06
2.58391e-06
2.58069e-06
2.57573e-06
2.57254e-06
2.57005e-06
2.56602e-06
2.57556e-06
2.64983e-06
2.64282e-06
2.63992e-06
2.63426e-06
2.63126e-06
2.62578e-06
2.62267e-06
2.61734e-06
2.61418e-06
2.60896e-06
2.60574e-06
2.60063e-06
2.59739e-06
2.59236e-06
2.58911e-06
2.58412e-06
2.5809e-06
2.5784e-06
2.57434e-06
2.58186e-06
2.65651e-06
2.64946e-06
2.64654e-06
2.64085e-06
2.63785e-06
2.63232e-06
2.62922e-06
2.62385e-06
2.62066e-06
2.61544e-06
2.61217e-06
2.60707e-06
2.60378e-06
2.59874e-06
2.59547e-06
2.59046e-06
2.58723e-06
2.58471e-06
2.58063e-06
2.5874e-06
2.66238e-06
2.6553e-06
2.65237e-06
2.64666e-06
2.64362e-06
2.6381e-06
2.63496e-06
2.62959e-06
2.62637e-06
2.62112e-06
2.61787e-06
2.61271e-06
2.60943e-06
2.60435e-06
2.60107e-06
2.59604e-06
2.59279e-06
2.59026e-06
2.58617e-06
2.59288e-06
2.66819e-06
2.66107e-06
2.65813e-06
2.6524e-06
2.64937e-06
2.64377e-06
2.64068e-06
2.63521e-06
2.63205e-06
2.62672e-06
2.62349e-06
2.61827e-06
2.61502e-06
2.60987e-06
2.60663e-06
2.60154e-06
2.5983e-06
2.59575e-06
2.59164e-06
2.5987e-06
2.67435e-06
2.66721e-06
2.66425e-06
2.65848e-06
2.65544e-06
2.64983e-06
2.6467e-06
2.64123e-06
2.63803e-06
2.63269e-06
2.62945e-06
2.62421e-06
2.62093e-06
2.61578e-06
2.61249e-06
2.6074e-06
2.60413e-06
2.60158e-06
2.59745e-06
2.60512e-06
2.68116e-06
2.67398e-06
2.67101e-06
2.66521e-06
2.66214e-06
2.65652e-06
2.65335e-06
2.64788e-06
2.64464e-06
2.63929e-06
2.63601e-06
2.63077e-06
2.62745e-06
2.6223e-06
2.61897e-06
2.61387e-06
2.61057e-06
2.60801e-06
2.60386e-06
2.61236e-06
2.68883e-06
2.68161e-06
2.67862e-06
2.6728e-06
2.66969e-06
2.66407e-06
2.66085e-06
2.65538e-06
2.65209e-06
2.64675e-06
2.64341e-06
2.63817e-06
2.63481e-06
2.62964e-06
2.62628e-06
2.62116e-06
2.61784e-06
2.61527e-06
2.61109e-06
2.62056e-06
2.69751e-06
2.69027e-06
2.68725e-06
2.68136e-06
2.67828e-06
2.67255e-06
2.6694e-06
2.6638e-06
2.66059e-06
2.65511e-06
2.65184e-06
2.64649e-06
2.64319e-06
2.63791e-06
2.6346e-06
2.62939e-06
2.62608e-06
2.62348e-06
2.61928e-06
2.62961e-06
2.70712e-06
2.69977e-06
2.69675e-06
2.69084e-06
2.68773e-06
2.68196e-06
2.67877e-06
2.67316e-06
2.66989e-06
2.66442e-06
2.66108e-06
2.65573e-06
2.65236e-06
2.6471e-06
2.64372e-06
2.63851e-06
2.63515e-06
2.63254e-06
2.62831e-06
2.63883e-06
2.71684e-06
2.70949e-06
2.70643e-06
2.70047e-06
2.69734e-06
2.69155e-06
2.68832e-06
2.68269e-06
2.67937e-06
2.6739e-06
2.67049e-06
2.66515e-06
2.66173e-06
2.65644e-06
2.65303e-06
2.64779e-06
2.64441e-06
2.64178e-06
2.63752e-06
2.64673e-06
2.72353e-06
2.71639e-06
2.71345e-06
2.7077e-06
2.7046e-06
2.69903e-06
2.69578e-06
2.69037e-06
2.687e-06
2.68171e-06
2.67827e-06
2.67307e-06
2.66957e-06
2.66442e-06
2.66092e-06
2.65578e-06
2.65232e-06
2.64971e-06
2.64544e-06
2.65015e-06
2.65015e-06
2.65014e-06
2.65014e-06
2.65014e-06
2.65013e-06
2.65014e-06
2.65013e-06
2.65013e-06
2.65013e-06
2.65013e-06
2.65013e-06
2.65013e-06
2.65013e-06
2.65013e-06
2.65013e-06
2.65013e-06
2.65013e-06
2.65013e-06
2.65013e-06
)
;

boundaryField
{
    movingWall
    {
        type            calculated;
        value           nonuniform List<scalar> 
20
(
2.65015e-06
2.65015e-06
2.65014e-06
2.65014e-06
2.65014e-06
2.65013e-06
2.65014e-06
2.65013e-06
2.65013e-06
2.65013e-06
2.65013e-06
2.65013e-06
2.65013e-06
2.65013e-06
2.65013e-06
2.65013e-06
2.65013e-06
2.65013e-06
2.65013e-06
2.65013e-06
)
;
    }
    fixedWalls
    {
        type            calculated;
        value           nonuniform List<scalar> 
60
(
2.11923e-06
2.21439e-06
2.33462e-06
2.43142e-06
2.49499e-06
2.53276e-06
2.55443e-06
2.56723e-06
2.57556e-06
2.58186e-06
2.5874e-06
2.59288e-06
2.5987e-06
2.60512e-06
2.61236e-06
2.62056e-06
2.62961e-06
2.63883e-06
2.64673e-06
2.65015e-06
2.11922e-06
2.21364e-06
2.33372e-06
2.43041e-06
2.49389e-06
2.5316e-06
2.55324e-06
2.56602e-06
2.57434e-06
2.58063e-06
2.58617e-06
2.59164e-06
2.59745e-06
2.60386e-06
2.61109e-06
2.61928e-06
2.62831e-06
2.63752e-06
2.64544e-06
2.65013e-06
2.11923e-06
2.11923e-06
2.11923e-06
2.11923e-06
2.11922e-06
2.11922e-06
2.11922e-06
2.11922e-06
2.11922e-06
2.11922e-06
2.11922e-06
2.11922e-06
2.11922e-06
2.11922e-06
2.11922e-06
2.11922e-06
2.11922e-06
2.11922e-06
2.11922e-06
2.11922e-06
)
;
    }
    frontAndBack
    {
        type            empty;
    }
}


// ************************************************************************* //
