/*--------------------------------*- C++ -*----------------------------------*\
| =========                 |                                                 |
| \\      /  F ield         | OpenFOAM: The Open Source CFD Toolbox           |
|  \\    /   O peration     | Version:  2312                                  |
|   \\  /    A nd           | Website:  www.openfoam.com                      |
|    \\/     M anipulation  |                                                 |
\*---------------------------------------------------------------------------*/
FoamFile
{
    version     2.0;
    format      ascii;
    arch        "LSB;label=32;scalar=64";
    class       volScalarField;
    location    "5";
    object      turbulenceProperties:I;
}
// * * * * * * * * * * * * * * * * * * * * * * * * * * * * * * * * * * * * * //

dimensions      [0 0 0 0 0 0 0];

internalField   nonuniform List<scalar> 
400
(
0.00309516
0.00309515
0.00309515
0.00309514
0.00309514
0.00309514
0.00309514
0.00309514
0.00309513
0.00309513
0.00309513
0.00309513
0.00309513
0.00309513
0.00309513
0.00309513
0.00309513
0.00309513
0.00309513
0.00309513
0.00323555
0.00323555
0.00323535
0.00323528
0.00323515
0.00323507
0.00323497
0.0032349
0.00323482
0.00323475
0.00323469
0.00323463
0.00323459
0.00323454
0.00323452
0.00323448
0.00323446
0.00323445
0.00323444
0.00323444
0.00341266
0.00341266
0.00341243
0.00341234
0.00341218
0.00341209
0.00341197
0.00341189
0.00341179
0.00341171
0.00341164
0.00341157
0.00341152
0.00341147
0.00341143
0.00341139
0.00341137
0.00341135
0.00341135
0.00341134
0.00355504
0.00355504
0.00355477
0.00355467
0.0035545
0.0035544
0.00355426
0.00355416
0.00355405
0.00355396
0.00355389
0.0035538
0.00355375
0.00355368
0.00355365
0.0035536
0.00355358
0.00355356
0.00355355
0.00355354
0.00364843
0.00364842
0.00364814
0.00364802
0.00364783
0.00364773
0.00364757
0.00364747
0.00364735
0.00364725
0.00364716
0.00364708
0.00364702
0.00364694
0.00364691
0.00364686
0.00364684
0.00364681
0.0036468
0.0036468
0.00370385
0.00370384
0.00370355
0.00370343
0.00370323
0.00370312
0.00370295
0.00370284
0.00370272
0.00370261
0.00370253
0.00370243
0.00370238
0.0037023
0.00370226
0.00370221
0.00370218
0.00370216
0.00370215
0.00370214
0.00373564
0.00373563
0.00373534
0.00373521
0.003735
0.00373489
0.00373472
0.00373461
0.00373448
0.00373438
0.00373428
0.00373419
0.00373413
0.00373405
0.00373401
0.00373396
0.00373393
0.0037339
0.00373389
0.00373389
0.00375442
0.00375441
0.0037541
0.00375398
0.00375376
0.00375365
0.00375348
0.00375337
0.00375324
0.00375313
0.00375304
0.00375294
0.00375287
0.0037528
0.00375275
0.0037527
0.00375267
0.00375265
0.00375264
0.00375263
0.00376665
0.00376664
0.00376633
0.0037662
0.00376599
0.00376587
0.0037657
0.00376558
0.00376545
0.00376535
0.00376524
0.00376516
0.00376508
0.00376501
0.00376496
0.00376491
0.00376488
0.00376486
0.00376485
0.00376484
0.00377589
0.00377588
0.00377557
0.00377544
0.00377522
0.00377511
0.00377493
0.00377483
0.00377469
0.00377458
0.00377448
0.00377439
0.00377432
0.00377424
0.0037742
0.00377415
0.00377411
0.00377409
0.00377408
0.00377407
0.00378404
0.00378403
0.00378372
0.00378359
0.00378337
0.00378325
0.00378308
0.00378296
0.00378283
0.00378272
0.00378262
0.00378253
0.00378245
0.00378238
0.00378233
0.00378228
0.00378225
0.00378222
0.00378221
0.00378221
0.00379209
0.00379208
0.00379177
0.00379164
0.00379142
0.00379131
0.00379112
0.00379102
0.00379086
0.00379078
0.00379065
0.00379058
0.00379049
0.00379043
0.00379036
0.00379033
0.00379029
0.00379027
0.00379026
0.00379025
0.00380064
0.00380063
0.00380031
0.00380019
0.00379996
0.00379985
0.00379966
0.00379956
0.00379941
0.00379931
0.0037992
0.00379912
0.00379903
0.00379897
0.00379891
0.00379886
0.00379883
0.00379881
0.00379879
0.00379879
0.00381009
0.00381008
0.00380976
0.00380963
0.0038094
0.00380928
0.0038091
0.00380899
0.00380884
0.00380875
0.00380863
0.00380855
0.00380847
0.00380839
0.00380834
0.00380829
0.00380826
0.00380823
0.00380822
0.00380822
0.00382074
0.00382073
0.00382041
0.00382027
0.00382005
0.00381992
0.00381975
0.00381963
0.00381949
0.00381938
0.00381928
0.00381918
0.00381911
0.00381903
0.00381898
0.00381892
0.0038189
0.00381887
0.00381886
0.00381885
0.0038328
0.00383279
0.00383247
0.00383233
0.0038321
0.00383199
0.00383179
0.00383169
0.00383153
0.00383145
0.00383131
0.00383124
0.00383114
0.00383109
0.00383101
0.00383098
0.00383093
0.00383092
0.0038309
0.0038309
0.00384611
0.00384611
0.00384577
0.00384564
0.00384541
0.00384529
0.00384509
0.00384499
0.00384483
0.00384474
0.00384461
0.00384453
0.00384444
0.00384437
0.00384432
0.00384427
0.00384423
0.00384421
0.0038442
0.00384419
0.00385969
0.00385968
0.00385935
0.00385921
0.00385898
0.00385886
0.00385867
0.00385856
0.0038584
0.0038583
0.00385819
0.00385809
0.00385802
0.00385793
0.00385788
0.00385783
0.0038578
0.00385777
0.00385776
0.00385775
0.00387133
0.00387133
0.00387099
0.00387087
0.00387065
0.00387052
0.00387034
0.00387021
0.00387008
0.00386996
0.00386987
0.00386976
0.00386969
0.0038696
0.00386956
0.0038695
0.00386947
0.00386945
0.00386943
0.00386943
0.00387637
0.00387636
0.00387636
0.00387635
0.00387635
0.00387635
0.00387635
0.00387634
0.00387634
0.00387634
0.00387634
0.00387634
0.00387634
0.00387634
0.00387634
0.00387634
0.00387634
0.00387634
0.00387634
0.00387634
)
;

boundaryField
{
    movingWall
    {
        type            calculated;
        value           nonuniform List<scalar> 
20
(
0.00387637
0.00387636
0.00387636
0.00387635
0.00387635
0.00387635
0.00387635
0.00387634
0.00387634
0.00387634
0.00387634
0.00387634
0.00387634
0.00387634
0.00387634
0.00387634
0.00387634
0.00387634
0.00387634
0.00387634
)
;
    }
    fixedWalls
    {
        type            calculated;
        value           nonuniform List<scalar> 
60
(
0.00309516
0.00323555
0.00341266
0.00355504
0.00364843
0.00370385
0.00373564
0.00375442
0.00376665
0.00377589
0.00378404
0.00379209
0.00380064
0.00381009
0.00382074
0.0038328
0.00384611
0.00385969
0.00387133
0.00387637
0.00309513
0.00323444
0.00341134
0.00355354
0.0036468
0.00370214
0.00373389
0.00375263
0.00376484
0.00377407
0.00378221
0.00379025
0.00379879
0.00380822
0.00381885
0.0038309
0.00384419
0.00385775
0.00386943
0.00387634
0.00309516
0.00309515
0.00309515
0.00309514
0.00309514
0.00309514
0.00309514
0.00309514
0.00309513
0.00309513
0.00309513
0.00309513
0.00309513
0.00309513
0.00309513
0.00309513
0.00309513
0.00309513
0.00309513
0.00309513
)
;
    }
    frontAndBack
    {
        type            empty;
    }
}


// ************************************************************************* //
