/*--------------------------------*- C++ -*----------------------------------*\
| =========                 |                                                 |
| \\      /  F ield         | OpenFOAM: The Open Source CFD Toolbox           |
|  \\    /   O peration     | Version:  2312                                  |
|   \\  /    A nd           | Website:  www.openfoam.com                      |
|    \\/     M anipulation  |                                                 |
\*---------------------------------------------------------------------------*/
FoamFile
{
    version     2.0;
    format      ascii;
    arch        "LSB;label=32;scalar=64";
    class       volScalarField;
    location    "5";
    object      turbulenceProperties:omega;
}
// * * * * * * * * * * * * * * * * * * * * * * * * * * * * * * * * * * * * * //

dimensions      [0 0 -1 0 0 0 0];

internalField   nonuniform List<scalar> 
400
(
6.78074
6.78074
6.78072
6.78072
6.78072
6.7807
6.78071
6.78069
6.7807
6.78069
6.78069
6.78068
6.78069
6.78068
6.78069
6.78068
6.78068
6.78068
6.78068
6.78068
7.09141
6.92522
6.93947
6.94535
6.95704
6.96326
6.97479
6.9813
6.99272
6.9995
7.01083
7.01784
7.02914
7.03633
7.04765
7.05495
7.06635
7.07374
7.07952
7.08895
7.48276
7.29506
7.31135
7.31809
7.33143
7.3385
7.35163
7.35899
7.37196
7.37958
7.39243
7.40026
7.41305
7.42104
7.4338
7.44191
7.4547
7.46288
7.46934
7.47984
7.79687
7.59218
7.60994
7.61727
7.63179
7.6395
7.65378
7.66184
7.67592
7.68428
7.69822
7.70683
7.72068
7.72947
7.74332
7.75222
7.76612
7.77506
7.7821
7.79355
8.00265
7.7862
7.80492
7.81269
7.82803
7.83616
7.85128
7.85975
7.87468
7.88348
7.89824
7.90732
7.92198
7.93127
7.9459
7.95531
7.97001
7.97948
7.98691
7.99902
8.12467
7.90111
7.92042
7.92844
7.94428
7.95267
7.96827
7.97706
7.99241
8.00156
8.01674
8.02617
8.04127
8.05089
8.06598
8.07572
8.09088
8.10068
8.10835
8.12086
8.19462
7.96696
7.9866
7.99478
8.01091
8.01944
8.03534
8.04424
8.05994
8.06919
8.0847
8.09426
8.10966
8.11942
8.13483
8.14471
8.16018
8.17015
8.17797
8.1907
8.23592
8.00584
8.02571
8.03396
8.05025
8.05888
8.07493
8.08396
8.09977
8.10916
8.12481
8.13449
8.15005
8.15991
8.17549
8.18547
8.2011
8.21117
8.21908
8.23195
8.26283
8.03119
8.05119
8.05949
8.07589
8.08459
8.10073
8.10983
8.12576
8.13518
8.15098
8.16067
8.17638
8.18629
8.20197
8.21204
8.22776
8.23791
8.24586
8.25882
8.2832
8.05039
8.07048
8.07883
8.09532
8.10404
8.12029
8.1294
8.14543
8.1549
8.17075
8.18053
8.19627
8.20626
8.22201
8.23212
8.24793
8.25813
8.26613
8.27915
8.30115
8.06732
8.08749
8.09588
8.11242
8.12122
8.1375
8.14669
8.16276
8.17228
8.18822
8.198
8.21386
8.22386
8.23969
8.24985
8.26572
8.27597
8.28399
8.29708
8.31891
8.08406
8.10434
8.11275
8.12936
8.13816
8.15459
8.16371
8.17997
8.18943
8.20552
8.21528
8.23127
8.24125
8.25722
8.26735
8.28334
8.2936
8.30167
8.31481
8.33776
8.10185
8.12221
8.13065
8.14736
8.1562
8.17267
8.18188
8.19816
8.2077
8.22384
8.23365
8.2497
8.25974
8.27576
8.28597
8.30201
8.31234
8.32044
8.33364
8.35859
8.12149
8.14195
8.15044
8.16722
8.17612
8.19264
8.20194
8.21826
8.22788
8.24407
8.25396
8.27006
8.28019
8.29624
8.30655
8.32264
8.33304
8.34117
8.35444
8.38209
8.14367
8.16422
8.17277
8.18962
8.1986
8.21517
8.22457
8.24093
8.25066
8.26688
8.27689
8.29302
8.30325
8.31936
8.32975
8.34591
8.35638
8.36455
8.3779
8.40871
8.16877
8.18943
8.19803
8.21504
8.224
8.24079
8.25011
8.26671
8.27636
8.29283
8.30276
8.31912
8.32929
8.34562
8.35596
8.37231
8.3828
8.39104
8.40447
8.43808
8.19647
8.21734
8.22597
8.24307
8.2521
8.26899
8.2784
8.29508
8.30484
8.32136
8.33143
8.34784
8.35815
8.37452
8.38501
8.40141
8.41201
8.42029
8.43381
8.4681
8.22488
8.24581
8.25454
8.27174
8.28084
8.29782
8.3073
8.32407
8.33394
8.35051
8.36072
8.37717
8.3876
8.40405
8.41463
8.43114
8.44181
8.45016
8.46377
8.49379
8.25426
8.27455
8.28295
8.29961
8.30857
8.32497
8.33446
8.35065
8.36059
8.37666
8.38698
8.40301
8.41362
8.4297
8.44051
8.45673
8.46767
8.47592
8.48958
8.50494
8.50491
8.50491
8.50491
8.50489
8.5049
8.50488
8.50489
8.50487
8.50488
8.50487
8.50487
8.50487
8.50487
8.50486
8.50486
8.50486
8.50486
8.50486
8.50486
)
;

boundaryField
{
    movingWall
    {
        type            calculated;
        value           nonuniform List<scalar> 
20
(
8.50494
8.50491
8.50491
8.50491
8.50489
8.5049
8.50488
8.50489
8.50487
8.50488
8.50487
8.50487
8.50487
8.50487
8.50486
8.50486
8.50486
8.50486
8.50486
8.50486
)
;
    }
    fixedWalls
    {
        type            calculated;
        value           nonuniform List<scalar> 
60
(
6.78074
7.09141
7.48276
7.79687
8.00265
8.12467
8.19462
8.23592
8.26283
8.2832
8.30115
8.31891
8.33776
8.35859
8.38209
8.40871
8.43808
8.4681
8.49379
8.50494
6.78068
7.08895
7.47984
7.79355
7.99902
8.12086
8.1907
8.23195
8.25882
8.27915
8.29708
8.31481
8.33364
8.35444
8.3779
8.40447
8.43381
8.46377
8.48958
8.50486
6.78074
6.78074
6.78072
6.78072
6.78072
6.7807
6.78071
6.78069
6.7807
6.78069
6.78069
6.78068
6.78069
6.78068
6.78069
6.78068
6.78068
6.78068
6.78068
6.78068
)
;
    }
    frontAndBack
    {
        type            empty;
    }
}


// ************************************************************************* //
