/*--------------------------------*- C++ -*----------------------------------*\
| =========                 |                                                 |
| \\      /  F ield         | OpenFOAM: The Open Source CFD Toolbox           |
|  \\    /   O peration     | Version:  2312                                  |
|   \\  /    A nd           | Website:  www.openfoam.com                      |
|    \\/     M anipulation  |                                                 |
\*---------------------------------------------------------------------------*/
FoamFile
{
    version     2.0;
    format      ascii;
    arch        "LSB;label=32;scalar=64";
    class       volTensorField;
    location    "5";
    object      U2;
}
// * * * * * * * * * * * * * * * * * * * * * * * * * * * * * * * * * * * * * //

dimensions      [0 2 -2 0 0 0 0];

internalField   nonuniform List<tensor> 
400
(
(1 -2.99104e-09 -0 -2.94669e-09 8.81365e-18 0 -0 0 0)
(1 7.09737e-10 -0 6.99209e-10 4.96255e-19 -0 -0 -0 0)
(1 -1.68728e-10 -0 -1.66225e-10 2.80467e-20 0 -0 0 0)
(1 3.99996e-11 -0 3.9406e-11 1.57622e-21 -0 -0 -0 0)
(1 -9.53334e-12 -0 -9.39195e-12 8.95367e-23 0 -0 0 0)
(1 2.25187e-12 -0 2.21834e-12 4.9954e-24 -0 -0 -0 0)
(1 -5.4242e-13 -0 -5.34483e-13 2.89915e-25 0 -0 0 0)
(1 1.24813e-13 -0 1.22926e-13 1.53428e-26 -0 -0 -0 0)
(1 -3.23421e-14 -0 -3.18373e-14 1.02968e-27 0 -0 0 0)
(1 5.95754e-15 -0 5.86707e-15 3.49533e-29 -0 -0 -0 0)
(1 -2.62667e-15 -0 -2.5811e-15 6.77971e-30 0 -0 0 0)
(1 -1.5569e-16 -0 -1.82281e-16 2.83794e-32 0 -0 0 0)
(1 -4.85599e-16 -0 -4.85583e-16 2.35799e-31 0 -0 0 0)
(1 -2.59176e-16 -0 -2.57052e-16 6.66218e-32 0 -0 0 0)
(1 -2.48308e-16 -0 -2.25506e-16 5.59949e-32 0 -0 0 0)
(1 -1.45089e-16 -0 -1.1316e-16 1.64183e-32 0 -0 0 0)
(1 -8.26314e-17 -0 -9.01969e-17 7.4531e-33 0 -0 0 0)
(1 -9.18412e-17 -0 -1.06156e-16 9.74954e-33 0 -0 0 0)
(1 -9.74021e-17 -0 -8.55401e-17 8.33178e-33 0 -0 0 0)
(1 -6.40748e-17 -0 -8.32735e-17 5.33573e-33 0 -0 0 0)
(1 2.99591e-09 -0 2.95153e-09 8.84252e-18 -0 -0 -0 0)
(1 -7.12116e-10 -0 -7.0157e-10 4.99599e-19 0 -0 0 0)
(1 1.68744e-10 -0 1.66245e-10 2.80528e-20 -0 -0 -0 0)
(1 -4.01825e-11 -0 -3.95877e-11 1.59073e-21 0 -0 0 0)
(1 9.47318e-12 -0 9.33282e-12 8.84115e-23 -0 -0 -0 0)
(1 -2.27976e-12 -0 -2.24606e-12 5.12047e-24 0 -0 0 0)
(1 5.2224e-13 -0 5.14407e-13 2.68644e-25 -0 -0 -0 0)
(1 -1.34846e-13 -0 -1.32924e-13 1.79242e-26 0 -0 0 0)
(1 2.5011e-14 -0 2.46243e-14 6.15878e-28 -0 -0 -0 0)
(1 -1.05382e-14 -0 -1.04814e-14 1.10456e-28 0 -0 0 0)
(1 -7.8846e-16 -0 -8.52699e-16 6.72319e-31 0 -0 0 0)
(1 -2.15306e-15 -0 -2.16307e-15 4.65721e-30 0 -0 0 0)
(1 -1.1167e-15 -0 -1.12573e-15 1.2571e-30 0 -0 0 0)
(1 -9.10246e-16 -0 -8.74996e-16 7.96461e-31 0 -0 0 0)
(1 -6.35525e-16 -0 -5.68489e-16 3.61289e-31 0 -0 0 0)
(1 -3.59559e-16 -0 -3.46561e-16 1.24609e-31 0 -0 0 0)
(1 -2.57129e-16 -0 -2.74599e-16 7.06072e-32 0 -0 0 0)
(1 -2.81581e-16 -0 -3.22362e-16 9.07711e-32 0 -0 0 0)
(1 -2.03377e-16 -0 -2.2954e-16 4.66831e-32 0 -0 0 0)
(1 -7.31479e-17 -0 -9.29336e-17 6.7979e-33 0 -0 0 0)
(1 -2.99573e-09 -0 -2.95142e-09 8.84166e-18 0 -0 0 0)
(1 7.11535e-10 -0 7.01012e-10 4.98795e-19 -0 -0 -0 0)
(1 -1.68989e-10 -0 -1.6649e-10 2.8135e-20 0 -0 0 0)
(1 4.00501e-11 -0 3.94577e-11 1.58028e-21 -0 -0 -0 0)
(1 -9.56747e-12 -0 -9.42608e-12 9.01838e-23 0 -0 0 0)
(1 2.23622e-12 -0 2.20314e-12 4.92671e-24 -0 -0 -0 0)
(1 -5.54088e-13 -0 -5.45993e-13 3.02528e-25 0 -0 0 0)
(1 1.16921e-13 -0 1.15078e-13 1.3455e-26 -0 -0 -0 0)
(1 -3.7536e-14 -0 -3.70227e-14 1.38968e-27 0 -0 0 0)
(1 2.32071e-15 -0 2.22833e-15 5.17131e-30 -0 -0 -0 0)
(1 -5.20787e-15 -0 -5.23623e-15 2.72696e-29 0 -0 0 0)
(1 -2.17586e-15 -0 -2.21169e-15 4.81232e-30 0 -0 0 0)
(1 -1.97523e-15 -0 -1.9796e-15 3.91017e-30 0 -0 0 0)
(1 -1.35304e-15 -0 -1.29644e-15 1.75414e-30 0 -0 0 0)
(1 -9.75613e-16 -0 -9.54464e-16 9.31188e-31 0 -0 0 0)
(1 -5.92052e-16 -0 -6.44791e-16 3.8175e-31 0 -0 0 0)
(1 -4.22325e-16 -0 -4.44803e-16 1.87852e-31 0 -0 0 0)
(1 -2.99326e-16 -0 -2.93266e-16 8.77822e-32 0 -0 0 0)
(1 -1.63803e-16 -0 -2.44777e-16 4.00953e-32 0 -0 0 0)
(1 -5.73611e-17 -0 -6.78967e-17 3.89463e-33 0 -0 0 0)
(1 2.99419e-09 -0 2.95e-09 8.83286e-18 -0 -0 -0 0)
(1 -7.10787e-10 -0 -7.00302e-10 4.97765e-19 0 -0 0 0)
(1 1.68642e-10 -0 1.66154e-10 2.80206e-20 -0 -0 -0 0)
(1 -4.00661e-11 -0 -3.94753e-11 1.58162e-21 0 -0 0 0)
(1 9.47285e-12 -0 9.3331e-12 8.8411e-23 -0 -0 -0 0)
(1 -2.27691e-12 -0 -2.24347e-12 5.10818e-24 0 -0 0 0)
(1 5.19294e-13 -0 5.11509e-13 2.65623e-25 -0 -0 -0 0)
(1 -1.38324e-13 -0 -1.36417e-13 1.88697e-26 0 -0 0 0)
(1 2.20888e-14 -0 2.16746e-14 4.78766e-28 -0 -0 -0 0)
(1 -1.28811e-14 -0 -1.26937e-14 1.6351e-28 0 -0 0 0)
(1 -2.43045e-15 -0 -2.42248e-15 5.88773e-30 0 -0 0 0)
(1 -3.48097e-15 -0 -3.41585e-15 1.18905e-29 0 -0 0 0)
(1 -2.2081e-15 -0 -2.15216e-15 4.75218e-30 0 -0 0 0)
(1 -1.6611e-15 -0 -1.67957e-15 2.78993e-30 0 -0 0 0)
(1 -1.24414e-15 -0 -1.31246e-15 1.63289e-30 0 -0 0 0)
(1 -9.13247e-16 -0 -9.19595e-16 8.39818e-31 0 -0 0 0)
(1 -5.30517e-16 -0 -5.51356e-16 2.92504e-31 0 -0 0 0)
(1 -2.37496e-16 -0 -2.9231e-16 6.94225e-32 0 -0 0 0)
(1 -1.90224e-16 -0 -2.45298e-16 4.66615e-32 0 -0 0 0)
(1 -1.8767e-16 -0 -1.23304e-16 2.31405e-32 0 -0 0 0)
(1 -2.98717e-09 -0 -2.94314e-09 8.79167e-18 0 -0 0 0)
(1 7.08866e-10 -0 6.98419e-10 4.95086e-19 -0 -0 -0 0)
(1 -1.68234e-10 -0 -1.65755e-10 2.78856e-20 0 -0 0 0)
(1 3.98924e-11 -0 3.93046e-11 1.56796e-21 -0 -0 -0 0)
(1 -9.49274e-12 -0 -9.35302e-12 8.87858e-23 0 -0 0 0)
(1 2.23067e-12 -0 2.19764e-12 4.9022e-24 -0 -0 -0 0)
(1 -5.46866e-13 -0 -5.38988e-13 2.94755e-25 0 -0 0 0)
(1 1.16255e-13 -0 1.14381e-13 1.32974e-26 -0 -0 -0 0)
(1 -3.78778e-14 -0 -3.75201e-14 1.42118e-27 0 -0 0 0)
(1 1.10506e-15 -0 1.05753e-15 1.16863e-30 -0 -0 -0 0)
(1 -6.25911e-15 -0 -6.05046e-15 3.78705e-29 0 -0 0 0)
(1 -2.95894e-15 -0 -2.73899e-15 8.10452e-30 0 -0 0 0)
(1 -2.53047e-15 -0 -2.45822e-15 6.22045e-30 0 -0 0 0)
(1 -1.74871e-15 -0 -1.76791e-15 3.09156e-30 0 -0 0 0)
(1 -1.33901e-15 -0 -1.39682e-15 1.87036e-30 0 -0 0 0)
(1 -9.92159e-16 -0 -9.90988e-16 9.83218e-31 0 -0 0 0)
(1 -6.5078e-16 -0 -6.90223e-16 4.49183e-31 0 -0 0 0)
(1 -4.37229e-16 -0 -5.13926e-16 2.24703e-31 0 -0 0 0)
(1 -2.72908e-16 -0 -2.84916e-16 7.77557e-32 0 -0 0 0)
(1 -1.03073e-16 -0 -2.50779e-18 2.58486e-34 0 -0 0 0)
(1 2.97916e-09 -0 2.93526e-09 8.74459e-18 -0 -0 -0 0)
(1 -7.06861e-10 -0 -6.96446e-10 4.92291e-19 0 -0 0 0)
(1 1.67703e-10 -0 1.65232e-10 2.77099e-20 -0 -0 -0 0)
(1 -3.98078e-11 -0 -3.92215e-11 1.56132e-21 0 -0 0 0)
(1 9.42664e-12 -0 9.28769e-12 8.75517e-23 -0 -0 -0 0)
(1 -2.25305e-12 -0 -2.2201e-12 5.00198e-24 0 -0 0 0)
(1 5.20622e-13 -0 5.12756e-13 2.66952e-25 -0 -0 -0 0)
(1 -1.34984e-13 -0 -1.33105e-13 1.7967e-26 0 -0 0 0)
(1 2.29094e-14 -0 2.24289e-14 5.13832e-28 -0 -0 -0 0)
(1 -1.26146e-14 -0 -1.24648e-14 1.57238e-28 0 -0 0 0)
(1 -2.6196e-15 -0 -2.46876e-15 6.46717e-30 0 -0 0 0)
(1 -3.59885e-15 -0 -3.48468e-15 1.25408e-29 0 -0 0 0)
(1 -2.24307e-15 -0 -2.30892e-15 5.17908e-30 0 -0 0 0)
(1 -1.8722e-15 -0 -1.84598e-15 3.45604e-30 0 -0 0 0)
(1 -1.33146e-15 -0 -1.26922e-15 1.68991e-30 0 -0 0 0)
(1 -9.14575e-16 -0 -9.01323e-16 8.24327e-31 0 -0 0 0)
(1 -6.7501e-16 -0 -6.8371e-16 4.61511e-31 0 -0 0 0)
(1 -5.07468e-16 -0 -4.54602e-16 2.30696e-31 0 -0 0 0)
(1 -1.53102e-16 -0 -1.73519e-16 2.65661e-32 0 -0 0 0)
(1 1.89247e-17 -0 2.1077e-17 3.98876e-34 -0 -0 -0 0)
(1 -2.97002e-09 -0 -2.92625e-09 8.69101e-18 0 -0 0 0)
(1 7.04626e-10 -0 6.94244e-10 4.89182e-19 -0 -0 -0 0)
(1 -1.6719e-10 -0 -1.64727e-10 2.75409e-20 0 -0 0 0)
(1 3.9654e-11 -0 3.90698e-11 1.54927e-21 -0 -0 -0 0)
(1 -9.42057e-12 -0 -9.28191e-12 8.74409e-23 0 -0 0 0)
(1 2.22304e-12 -0 2.19021e-12 4.86892e-24 -0 -0 -0 0)
(1 -5.3817e-13 -0 -5.30276e-13 2.85379e-25 0 -0 0 0)
(1 1.18565e-13 -0 1.16804e-13 1.38488e-26 -0 -0 -0 0)
(1 -3.5589e-14 -0 -3.50334e-14 1.2468e-27 0 -0 0 0)
(1 2.54894e-15 -0 2.42736e-15 6.1872e-30 -0 -0 -0 0)
(1 -5.23231e-15 -0 -5.20142e-15 2.72155e-29 0 -0 0 0)
(1 -2.38738e-15 -0 -2.41083e-15 5.75556e-30 0 -0 0 0)
(1 -2.27653e-15 -0 -2.27025e-15 5.16828e-30 0 -0 0 0)
(1 -1.68964e-15 -0 -1.67648e-15 2.83266e-30 0 -0 0 0)
(1 -1.29515e-15 -0 -1.26782e-15 1.64202e-30 0 -0 0 0)
(1 -9.92939e-16 -0 -9.72332e-16 9.65467e-31 0 -0 0 0)
(1 -6.94588e-16 -0 -6.80169e-16 4.72437e-31 0 -0 0 0)
(1 -4.2989e-16 -0 -3.36624e-16 1.44711e-31 0 -0 0 0)
(1 -1.03029e-16 -0 -7.75115e-17 7.98594e-33 0 -0 0 0)
(1 -4.68277e-17 -0 -4.03579e-17 1.88986e-33 0 -0 0 0)
(1 2.96121e-09 -0 2.91757e-09 8.63952e-18 -0 -0 -0 0)
(1 -7.0251e-10 -0 -6.92159e-10 4.86249e-19 0 -0 0 0)
(1 1.66669e-10 -0 1.64214e-10 2.73694e-20 -0 -0 -0 0)
(1 -3.9549e-11 -0 -3.89665e-11 1.54109e-21 0 -0 0 0)
(1 9.37366e-12 -0 9.23557e-12 8.65711e-23 -0 -0 -0 0)
(1 -2.23248e-12 -0 -2.1996e-12 4.91055e-24 0 -0 0 0)
(1 5.21794e-13 -0 5.14061e-13 2.68234e-25 -0 -0 -0 0)
(1 -1.30713e-13 -0 -1.28852e-13 1.68427e-26 0 -0 0 0)
(1 2.50826e-14 -0 2.47848e-14 6.21668e-28 -0 -0 -0 0)
(1 -1.07064e-14 -0 -1.05691e-14 1.13157e-28 0 -0 0 0)
(1 -1.11966e-15 -0 -1.21349e-15 1.3587e-30 0 -0 0 0)
(1 -2.68397e-15 -0 -2.72859e-15 7.32345e-30 0 -0 0 0)
(1 -1.89666e-15 -0 -1.74472e-15 3.30914e-30 0 -0 0 0)
(1 -1.52154e-15 -0 -1.37976e-15 2.09937e-30 0 -0 0 0)
(1 -9.41036e-16 -0 -9.37647e-16 8.82359e-31 0 -0 0 0)
(1 -6.48471e-16 -0 -7.13189e-16 4.62483e-31 0 -0 0 0)
(1 -5.56404e-16 -0 -5.73768e-16 3.19247e-31 0 -0 0 0)
(1 -3.83523e-16 -0 -3.6683e-16 1.40688e-31 0 -0 0 0)
(1 -1.45341e-16 -0 -9.39934e-17 1.36611e-32 0 -0 0 0)
(1 -7.10477e-17 -0 2.44643e-17 -1.73814e-33 -0 -0 0 0)
(1 -2.95218e-09 -0 -2.90866e-09 8.58691e-18 0 -0 0 0)
(1 7.00351e-10 -0 6.90029e-10 4.83263e-19 -0 -0 -0 0)
(1 -1.66165e-10 -0 -1.63716e-10 2.72039e-20 0 -0 0 0)
(1 3.94163e-11 -0 3.88354e-11 1.53075e-21 -0 -0 -0 0)
(1 -9.35613e-12 -0 -9.21833e-12 8.62479e-23 0 -0 0 0)
(1 2.21421e-12 -0 2.18162e-12 4.83057e-24 -0 -0 -0 0)
(1 -5.30459e-13 -0 -5.2267e-13 2.77255e-25 0 -0 0 0)
(1 1.21122e-13 -0 1.19408e-13 1.4463e-26 -0 -0 -0 0)
(1 -3.27633e-14 -0 -3.2205e-14 1.05514e-27 0 -0 0 0)
(1 4.44728e-15 -0 4.34301e-15 1.93146e-29 -0 -0 -0 0)
(1 -3.72947e-15 -0 -3.82216e-15 1.42546e-29 0 -0 0 0)
(1 -1.29806e-15 -0 -1.32519e-15 1.72018e-30 0 -0 0 0)
(1 -1.48782e-15 -0 -1.40443e-15 2.08953e-30 0 -0 0 0)
(1 -1.02981e-15 -0 -9.61524e-16 9.90186e-31 0 -0 0 0)
(1 -7.47941e-16 -0 -7.2356e-16 5.4118e-31 0 -0 0 0)
(1 -4.74612e-16 -0 -4.24518e-16 2.01482e-31 0 -0 0 0)
(1 -3.1631e-16 -0 -2.27599e-16 7.19918e-32 0 -0 0 0)
(1 -1.07899e-16 -0 -1.09228e-16 1.17856e-32 0 -0 0 0)
(1 -2.82129e-17 -0 -6.69495e-17 1.88884e-33 0 -0 0 0)
(1 -1.00344e-16 -0 -2.40743e-17 2.41572e-33 0 -0 0 0)
(1 2.94357e-09 -0 2.90017e-09 8.53687e-18 -0 -0 -0 0)
(1 -6.98308e-10 -0 -6.88013e-10 4.80446e-19 0 -0 0 0)
(1 1.65674e-10 -0 1.63232e-10 2.70434e-20 -0 -0 -0 0)
(1 -3.93068e-11 -0 -3.87275e-11 1.52225e-21 0 -0 0 0)
(1 9.32193e-12 -0 9.18455e-12 8.56177e-23 -0 -0 -0 0)
(1 -2.21467e-12 -0 -2.18196e-12 4.83232e-24 0 -0 0 0)
(1 5.22471e-13 -0 5.14878e-13 2.69009e-25 -0 -0 -0 0)
(1 -1.26507e-13 -0 -1.24457e-13 1.57446e-26 0 -0 0 0)
(1 2.78378e-14 -0 2.7589e-14 7.68016e-28 -0 -0 -0 0)
(1 -8.38731e-15 -0 -8.20028e-15 6.87783e-29 0 -0 0 0)
(1 4.96041e-16 -0 4.96077e-16 2.46075e-31 -0 -0 -0 0)
(1 -1.27758e-15 -0 -1.22006e-15 1.55873e-30 0 -0 0 0)
(1 -4.96997e-16 -0 -4.79009e-16 2.38066e-31 0 -0 0 0)
(1 -5.24528e-16 -0 -6.09272e-16 3.19581e-31 0 -0 0 0)
(1 -6.33239e-16 -0 -6.3614e-16 4.02829e-31 0 -0 0 0)
(1 -5.51495e-16 -0 -4.65345e-16 2.56636e-31 0 -0 0 0)
(1 -2.9816e-16 -0 -2.40491e-16 7.17048e-32 0 -0 0 0)
(1 -1.07443e-16 -0 -9.60841e-17 1.03235e-32 0 -0 0 0)
(1 -2.87944e-17 -0 -6.00421e-17 1.72888e-33 0 -0 0 0)
(1 -9.19242e-17 -0 -2.84425e-17 2.61456e-33 0 -0 0 0)
(1 -2.93512e-09 -0 -2.89183e-09 8.48786e-18 0 -0 0 0)
(1 6.96305e-10 -0 6.86036e-10 4.7769e-19 -0 -0 -0 0)
(1 -1.65201e-10 -0 -1.62765e-10 2.68889e-20 0 -0 0 0)
(1 3.9192e-11 -0 3.86142e-11 1.51337e-21 -0 -0 -0 0)
(1 -9.2979e-12 -0 -9.16074e-12 8.51756e-23 0 -0 0 0)
(1 2.20553e-12 -0 2.17319e-12 4.79305e-24 -0 -0 -0 0)
(1 -5.23462e-13 -0 -5.15635e-13 2.69915e-25 0 -0 0 0)
(1 1.23975e-13 -0 1.22145e-13 1.51429e-26 -0 -0 -0 0)
(1 -2.9735e-14 -0 -2.92584e-14 8.69997e-28 0 -0 0 0)
(1 6.68705e-15 -0 6.67195e-15 4.46156e-29 -0 -0 -0 0)
(1 -2.02909e-15 -0 -1.92383e-15 3.90363e-30 0 -0 0 0)
(1 4.41778e-18 -0 4.92368e-17 2.17518e-34 -0 -0 -0 0)
(1 -3.79126e-16 -0 -3.02132e-16 1.14546e-31 0 -0 0 0)
(1 -1.7865e-16 -0 -1.6495e-16 2.94683e-32 0 -0 0 0)
(1 -2.6598e-16 -0 -2.45987e-16 6.54277e-32 0 -0 0 0)
(1 -2.64658e-16 -0 -3.17526e-16 8.40359e-32 0 -0 0 0)
(1 -2.5384e-16 -0 -2.4653e-16 6.25793e-32 0 -0 0 0)
(1 -1.44209e-16 -0 -9.26659e-17 1.33632e-32 0 -0 0 0)
(1 -3.24997e-17 -0 -3.60859e-17 1.17278e-33 0 -0 0 0)
(1 -6.46302e-17 -0 -2.19228e-17 1.41687e-33 0 -0 0 0)
(1 2.927e-09 -0 2.88381e-09 8.4409e-18 -0 -0 -0 0)
(1 -6.9439e-10 -0 -6.84143e-10 4.75062e-19 0 -0 0 0)
(1 1.64748e-10 -0 1.62318e-10 2.67416e-20 -0 -0 -0 0)
(1 -3.90832e-11 -0 -3.85065e-11 1.50496e-21 0 -0 0 0)
(1 9.2743e-12 -0 9.1376e-12 8.47448e-23 -0 -0 -0 0)
(1 -2.198e-12 -0 -2.16547e-12 4.7597e-24 0 -0 0 0)
(1 5.23484e-13 -0 5.1594e-13 2.70086e-25 -0 -0 -0 0)
(1 -1.22391e-13 -0 -1.20498e-13 1.47478e-26 0 -0 0 0)
(1 3.05626e-14 -0 3.00872e-14 9.19543e-28 -0 -0 -0 0)
(1 -6.1788e-15 -0 -6.0662e-15 3.74819e-29 0 -0 0 0)
(1 2.07757e-15 -0 2.10138e-15 4.36577e-30 -0 -0 -0 0)
(1 -1.87364e-16 -0 -1.38833e-16 2.60123e-32 0 -0 0 0)
(1 1.94939e-16 -0 2.99472e-16 5.83787e-32 -0 -0 -0 0)
(1 7.71497e-17 -0 1.46211e-16 1.12801e-32 -0 -0 -0 0)
(1 5.35509e-17 -0 3.9426e-17 2.1113e-33 -0 -0 -0 0)
(1 -2.78193e-17 -0 -8.75829e-17 2.4365e-33 0 -0 0 0)
(1 -6.23085e-17 -0 -1.86336e-17 1.16103e-33 0 -0 0 0)
(1 4.62031e-17 -0 1.15647e-16 5.34326e-33 -0 -0 -0 0)
(1 2.47636e-17 -0 -3.40602e-17 -8.43454e-34 0 -0 -0 0)
(1 -1.30344e-16 -0 -1.22552e-16 1.59739e-32 0 -0 0 0)
(1 -2.91926e-09 -0 -2.87616e-09 8.39627e-18 0 -0 0 0)
(1 6.92568e-10 -0 6.82343e-10 4.72569e-19 -0 -0 -0 0)
(1 -1.64312e-10 -0 -1.61886e-10 2.65997e-20 0 -0 0 0)
(1 3.8987e-11 -0 3.84117e-11 1.49755e-21 -0 -0 -0 0)
(1 -9.24381e-12 -0 -9.10727e-12 8.41859e-23 0 -0 0 0)
(1 2.19829e-12 -0 2.16588e-12 4.76123e-24 -0 -0 -0 0)
(1 -5.17079e-13 -0 -5.09363e-13 2.63381e-25 0 -0 0 0)
(1 1.26297e-13 -0 1.24516e-13 1.5726e-26 -0 -0 -0 0)
(1 -2.69762e-14 -0 -2.65284e-14 7.15635e-28 0 -0 0 0)
(1 8.7575e-15 -0 8.70547e-15 7.62382e-29 -0 -0 -0 0)
(1 -2.57362e-16 -0 -2.04566e-16 5.26474e-32 0 -0 0 0)
(1 1.37062e-15 -0 1.38169e-15 1.89377e-30 -0 -0 -0 0)
(1 4.83541e-16 -0 5.89979e-16 2.85279e-31 -0 -0 -0 0)
(1 4.57906e-16 -0 4.97853e-16 2.2797e-31 -0 -0 -0 0)
(1 3.65487e-16 -0 3.43015e-16 1.25368e-31 -0 -0 -0 0)
(1 3.2581e-16 -0 2.29955e-16 7.49217e-32 -0 -0 -0 0)
(1 1.69948e-16 -0 1.33758e-16 2.27319e-32 -0 -0 -0 0)
(1 1.38275e-16 -0 1.03791e-16 1.43517e-32 -0 -0 -0 0)
(1 4.23135e-17 -0 1.86435e-17 7.88872e-34 -0 -0 -0 0)
(1 -1.12536e-16 -0 -1.48017e-17 1.66573e-33 0 -0 0 0)
(1 2.91166e-09 -0 2.86864e-09 8.3525e-18 -0 -0 -0 0)
(1 -6.90779e-10 -0 -6.80572e-10 4.70125e-19 0 -0 0 0)
(1 1.63899e-10 -0 1.61478e-10 2.64659e-20 -0 -0 -0 0)
(1 -3.88763e-11 -0 -3.83019e-11 1.48904e-21 0 -0 0 0)
(1 9.23233e-12 -0 9.09614e-12 8.39786e-23 -0 -0 -0 0)
(1 -2.18171e-12 -0 -2.14943e-12 4.68943e-24 0 -0 0 0)
(1 5.25087e-13 -0 5.1738e-13 2.7167e-25 -0 -0 -0 0)
(1 -1.18555e-13 -0 -1.16842e-13 1.38522e-26 0 -0 0 0)
(1 3.26888e-14 -0 3.21858e-14 1.05212e-27 -0 -0 -0 0)
(1 -4.34226e-15 -0 -4.29283e-15 1.86406e-29 0 -0 0 0)
(1 3.60874e-15 -0 3.54989e-15 1.28106e-29 -0 -0 -0 0)
(1 9.35491e-16 -0 1.03105e-15 9.64537e-31 -0 -0 -0 0)
(1 1.01293e-15 -0 1.10411e-15 1.11838e-30 -0 -0 -0 0)
(1 7.43842e-16 -0 7.04951e-16 5.24372e-31 -0 -0 -0 0)
(1 5.65446e-16 -0 5.20012e-16 2.94039e-31 -0 -0 -0 0)
(1 3.28031e-16 -0 2.95053e-16 9.67865e-32 -0 -0 -0 0)
(1 1.7921e-16 -0 1.43796e-16 2.57698e-32 -0 -0 -0 0)
(1 1.20886e-16 -0 1.02872e-16 1.24358e-32 -0 -0 -0 0)
(1 1.48127e-16 -0 1.40629e-16 2.0831e-32 -0 -0 -0 0)
(1 1.38667e-17 -0 9.82165e-17 1.36194e-33 -0 -0 -0 0)
(1 -2.90458e-09 -0 -2.86163e-09 8.31183e-18 0 -0 0 0)
(1 6.8912e-10 -0 6.78931e-10 4.67865e-19 -0 -0 -0 0)
(1 -1.63487e-10 -0 -1.6107e-10 2.6333e-20 0 -0 0 0)
(1 3.88014e-11 -0 3.82279e-11 1.4833e-21 -0 -0 -0 0)
(1 -9.19166e-12 -0 -9.05569e-12 8.32369e-23 0 -0 0 0)
(1 2.19319e-12 -0 2.16085e-12 4.73916e-24 -0 -0 -0 0)
(1 -5.09919e-13 -0 -5.02374e-13 2.5617e-25 0 -0 0 0)
(1 1.29215e-13 -0 1.27276e-13 1.6446e-26 -0 -0 -0 0)
(1 -2.44808e-14 -0 -2.41831e-14 5.92022e-28 0 -0 0 0)
(1 1.02924e-14 -0 1.01844e-14 1.04822e-28 -0 -0 -0 0)
(1 8.14782e-16 -0 9.34194e-16 7.61165e-31 -0 -0 -0 0)
(1 2.16861e-15 -0 2.2646e-15 4.91103e-30 -0 -0 -0 0)
(1 1.29742e-15 -0 1.26501e-15 1.64125e-30 -0 -0 -0 0)
(1 1.01959e-15 -0 9.69294e-16 9.88286e-31 -0 -0 -0 0)
(1 6.05956e-16 -0 5.90594e-16 3.57874e-31 -0 -0 -0 0)
(1 3.38591e-16 -0 4.7448e-16 1.60655e-31 -0 -0 -0 0)
(1 2.65255e-16 -0 2.90012e-16 7.69272e-32 -0 -0 -0 0)
(1 1.44731e-16 -0 9.75035e-17 1.41118e-32 -0 -0 -0 0)
(1 1.28983e-16 -0 8.13671e-17 1.0495e-32 -0 -0 -0 0)
(1 1.88452e-17 -0 3.78527e-17 7.13342e-34 -0 -0 -0 0)
(1 2.89726e-09 -0 2.85438e-09 8.2699e-18 -0 -0 -0 0)
(1 -6.87395e-10 -0 -6.77223e-10 4.6552e-19 0 -0 0 0)
(1 1.63112e-10 -0 1.60698e-10 2.62118e-20 -0 -0 -0 0)
(1 -3.86782e-11 -0 -3.81059e-11 1.47387e-21 0 -0 0 0)
(1 9.19689e-12 -0 9.06092e-12 8.33323e-23 -0 -0 -0 0)
(1 -2.1652e-12 -0 -2.13312e-12 4.61863e-24 0 -0 0 0)
(1 5.27069e-13 -0 5.19215e-13 2.73662e-25 -0 -0 -0 0)
(1 -1.1498e-13 -0 -1.1326e-13 1.30227e-26 0 -0 0 0)
(1 3.47186e-14 -0 3.42424e-14 1.18885e-27 -0 -0 -0 0)
(1 -2.93097e-15 -0 -2.76196e-15 8.09523e-30 0 -0 0 0)
(1 4.49846e-15 -0 4.58599e-15 2.06299e-29 -0 -0 -0 0)
(1 1.79504e-15 -0 1.76967e-15 3.17663e-30 -0 -0 -0 0)
(1 1.71344e-15 -0 1.5895e-15 2.72351e-30 -0 -0 -0 0)
(1 1.07409e-15 -0 1.04061e-15 1.11771e-30 -0 -0 -0 0)
(1 7.49129e-16 -0 7.36229e-16 5.5153e-31 -0 -0 -0 0)
(1 4.08259e-16 -0 5.62674e-16 2.29717e-31 -0 -0 -0 0)
(1 3.52636e-16 -0 4.2225e-16 1.489e-31 -0 -0 -0 0)
(1 2.40455e-16 -0 2.161e-16 5.19625e-32 -0 -0 -0 0)
(1 1.2782e-16 -0 7.38887e-17 9.44444e-33 -0 -0 -0 0)
(1 -3.14895e-18 -0 4.62983e-17 -1.45791e-34 -0 -0 0 0)
(1 -2.89058e-09 -0 -2.84776e-09 8.23167e-18 0 -0 0 0)
(1 6.85845e-10 -0 6.75686e-10 4.63416e-19 -0 -0 -0 0)
(1 -1.6269e-10 -0 -1.6028e-10 2.6076e-20 0 -0 0 0)
(1 3.86328e-11 -0 3.80608e-11 1.47039e-21 -0 -0 -0 0)
(1 -9.1363e-12 -0 -9.00103e-12 8.22361e-23 0 -0 0 0)
(1 2.18976e-12 -0 2.15736e-12 4.7241e-24 -0 -0 -0 0)
(1 -5.03404e-13 -0 -4.9587e-13 2.49623e-25 0 -0 0 0)
(1 1.30799e-13 -0 1.2897e-13 1.68691e-26 -0 -0 -0 0)
(1 -2.30134e-14 -0 -2.25779e-14 5.19594e-28 0 -0 0 0)
(1 1.09967e-14 -0 1.08916e-14 1.19772e-28 -0 -0 -0 0)
(1 1.24151e-15 -0 1.1995e-15 1.4892e-30 -0 -0 -0 0)
(1 2.46969e-15 -0 2.36837e-15 5.84914e-30 -0 -0 -0 0)
(1 1.35334e-15 -0 1.25167e-15 1.69394e-30 -0 -0 -0 0)
(1 1.00337e-15 -0 1.03839e-15 1.04189e-30 -0 -0 -0 0)
(1 7.48654e-16 -0 8.29369e-16 6.2091e-31 -0 -0 -0 0)
(1 4.82121e-16 -0 5.4953e-16 2.6494e-31 -0 -0 -0 0)
(1 3.85656e-16 -0 4.51819e-16 1.74247e-31 -0 -0 -0 0)
(1 2.71889e-16 -0 2.50148e-16 6.80125e-32 -0 -0 -0 0)
(1 8.36195e-17 -0 1.96364e-17 1.64198e-33 -0 -0 -0 0)
(1 -4.33336e-17 -0 1.69625e-17 -7.35048e-34 -0 -0 0 0)
(1 2.88308e-09 -0 2.84033e-09 8.1889e-18 -0 -0 -0 0)
(1 -6.84071e-10 -0 -6.73928e-10 4.61014e-19 0 -0 0 0)
(1 1.62388e-10 -0 1.5998e-10 2.59788e-20 -0 -0 -0 0)
(1 -3.84718e-11 -0 -3.79014e-11 1.45814e-21 0 -0 0 0)
(1 9.17185e-12 -0 9.03592e-12 8.28761e-23 -0 -0 -0 0)
(1 -2.14954e-12 -0 -2.11763e-12 4.55192e-24 0 -0 0 0)
(1 5.27403e-13 -0 5.19665e-13 2.74073e-25 -0 -0 -0 0)
(1 -1.14004e-13 -0 -1.12262e-13 1.27983e-26 0 -0 0 0)
(1 3.44987e-14 -0 3.40685e-14 1.17532e-27 -0 -0 -0 0)
(1 -3.18529e-15 -0 -3.1559e-15 1.00525e-29 0 -0 0 0)
(1 4.13332e-15 -0 4.04622e-15 1.67243e-29 -0 -0 -0 0)
(1 1.30496e-15 -0 1.32027e-15 1.7229e-30 -0 -0 -0 0)
(1 1.29056e-15 -0 1.2526e-15 1.61656e-30 -0 -0 -0 0)
(1 7.23668e-16 -0 7.52466e-16 5.44536e-31 -0 -0 -0 0)
(1 5.3425e-16 -0 6.71975e-16 3.59003e-31 -0 -0 -0 0)
(1 5.32083e-16 -0 4.86327e-16 2.58766e-31 -0 -0 -0 0)
(1 3.56466e-16 -0 3.19382e-16 1.13849e-31 -0 -0 -0 0)
(1 2.07079e-16 -0 1.8512e-16 3.83344e-32 -0 -0 -0 0)
(1 5.60492e-17 -0 8.39257e-17 4.70397e-33 -0 -0 -0 0)
(1 -2.49972e-19 -0 3.42822e-17 -8.56959e-36 -0 -0 0 0)
(1 -2.87707e-09 -0 -2.83435e-09 8.15462e-18 0 -0 0 0)
(1 6.82784e-10 -0 6.7265e-10 4.59275e-19 -0 -0 -0 0)
(1 -1.61753e-10 -0 -1.59352e-10 2.57757e-20 0 -0 0 0)
(1 3.84501e-11 -0 3.78798e-11 1.45648e-21 -0 -0 -0 0)
(1 -9.06633e-12 -0 -8.93166e-12 8.09774e-23 0 -0 0 0)
(1 2.17347e-12 -0 2.14128e-12 4.654e-24 -0 -0 -0 0)
(1 -5.00746e-13 -0 -4.93281e-13 2.47008e-25 0 -0 0 0)
(1 1.27001e-13 -0 1.25135e-13 1.58923e-26 -0 -0 -0 0)
(1 -2.46858e-14 -0 -2.42914e-14 5.99651e-28 0 -0 0 0)
(1 9.29731e-15 -0 9.15527e-15 8.51194e-29 -0 -0 -0 0)
(1 1.01045e-16 -0 1.66026e-16 1.67761e-32 -0 -0 -0 0)
(1 1.47771e-15 -0 1.51552e-15 2.2395e-30 -0 -0 -0 0)
(1 6.40778e-16 -0 6.52624e-16 4.18187e-31 -0 -0 -0 0)
(1 4.30586e-16 -0 4.82125e-16 2.07596e-31 -0 -0 -0 0)
(1 3.39267e-16 -0 3.87979e-16 1.31628e-31 -0 -0 -0 0)
(1 3.50723e-16 -0 2.75262e-16 9.65407e-32 -0 -0 -0 0)
(1 1.44147e-16 -0 8.54485e-17 1.23171e-32 -0 -0 -0 0)
(1 1.01627e-16 -0 1.40814e-16 1.43105e-32 -0 -0 -0 0)
(1 1.72641e-16 -0 1.62093e-16 2.79839e-32 -0 -0 -0 0)
(1 6.65403e-17 -0 7.89713e-17 5.25477e-33 -0 -0 -0 0)
(1 2.87003e-09 -0 2.82738e-09 8.11468e-18 -0 -0 -0 0)
(1 -6.80319e-10 -0 -6.70204e-10 4.55952e-19 0 -0 0 0)
(1 1.61598e-10 -0 1.59196e-10 2.57258e-20 -0 -0 -0 0)
(1 -3.82935e-11 -0 -3.77241e-11 1.44459e-21 0 -0 0 0)
(1 9.11061e-12 -0 8.97521e-12 8.17696e-23 -0 -0 -0 0)
(1 -2.15304e-12 -0 -2.12098e-12 4.56656e-24 0 -0 0 0)
(1 5.16703e-13 -0 5.09049e-13 2.63027e-25 -0 -0 -0 0)
(1 -1.1957e-13 -0 -1.17806e-13 1.40861e-26 0 -0 0 0)
(1 3.03667e-14 -0 2.98969e-14 9.07869e-28 -0 -0 -0 0)
(1 -6.02825e-15 -0 -5.91599e-15 3.56631e-29 0 -0 0 0)
(1 2.21109e-15 -0 2.21786e-15 4.90389e-30 -0 -0 -0 0)
(1 -3.9282e-17 -0 -4.28772e-17 1.6843e-33 0 -0 0 0)
(1 2.58978e-16 -0 2.65686e-16 6.8807e-32 -0 -0 -0 0)
(1 7.62796e-17 -0 1.68422e-16 1.28471e-32 -0 -0 -0 0)
(1 1.72614e-16 -0 1.92552e-16 3.32371e-32 -0 -0 -0 0)
(1 1.55009e-16 -0 1.2676e-16 1.96489e-32 -0 -0 -0 0)
(1 4.03155e-17 -0 4.4833e-17 1.80746e-33 -0 -0 -0 0)
(1 4.79144e-17 -0 5.26081e-17 2.52069e-33 -0 -0 -0 0)
(1 9.42926e-17 -0 2.35884e-17 2.22421e-33 -0 -0 -0 0)
(1 1.74951e-17 -0 2.13138e-17 3.72887e-34 -0 -0 -0 0)
)
;

boundaryField
{
    movingWall
    {
        type            calculated;
        value           uniform (1 0 0 0 0 0 0 0 0);
    }
    fixedWalls
    {
        type            calculated;
        value           uniform (1 0 0 0 0 0 0 0 0);
    }
    frontAndBack
    {
        type            empty;
    }
}


// ************************************************************************* //
