/*--------------------------------*- C++ -*----------------------------------*\
| =========                 |                                                 |
| \\      /  F ield         | OpenFOAM: The Open Source CFD Toolbox           |
|  \\    /   O peration     | Version:  2312                                  |
|   \\  /    A nd           | Website:  www.openfoam.com                      |
|    \\/     M anipulation  |                                                 |
\*---------------------------------------------------------------------------*/
FoamFile
{
    version     2.0;
    format      ascii;
    arch        "LSB;label=32;scalar=64";
    class       volVectorField;
    location    "5";
    object      UMean;
}
// * * * * * * * * * * * * * * * * * * * * * * * * * * * * * * * * * * * * * //

dimensions      [0 1 -1 0 0 0 0];

internalField   nonuniform List<vector> 
400
(
(-0.500093 7.49134e-05 0)
(-0.500703 0.000338393 0)
(-0.501836 0.000509027 0)
(-0.503143 0.000594773 0)
(-0.504586 0.000673854 0)
(-0.506201 0.000778374 0)
(-0.508034 0.000915429 0)
(-0.510103 0.00106246 0)
(-0.512315 0.00114113 0)
(-0.514451 0.00107075 0)
(-0.516184 0.00080983 0)
(-0.517174 0.000372838 0)
(-0.517157 -0.000222337 0)
(-0.515914 -0.000855914 0)
(-0.51347 -0.00144245 0)
(-0.510105 -0.00182809 0)
(-0.506322 -0.00183818 0)
(-0.502717 -0.00134197 0)
(-0.50032 -0.000539783 0)
(-0.499746 0.000131783 0)
(-0.500418 0.000736052 0)
(-0.501635 0.00158218 0)
(-0.503301 0.00204423 0)
(-0.505165 0.00228417 0)
(-0.507174 0.002518 0)
(-0.509364 0.00281444 0)
(-0.511766 0.00312947 0)
(-0.514321 0.00334895 0)
(-0.516895 0.00332464 0)
(-0.519272 0.00292317 0)
(-0.521187 0.00207675 0)
(-0.52235 0.000796651 0)
(-0.522481 -0.000836788 0)
(-0.52138 -0.00264752 0)
(-0.518933 -0.00435309 0)
(-0.515257 -0.00555117 0)
(-0.51073 -0.00580234 0)
(-0.505954 -0.00471356 0)
(-0.501802 -0.00245271 0)
(-0.499996 -0.000140238 0)
(-0.500727 0.00204199 0)
(-0.502295 0.00327955 0)
(-0.504159 0.00395092 0)
(-0.506246 0.00436965 0)
(-0.50851 0.00479075 0)
(-0.510974 0.00528475 0)
(-0.513655 0.00576444 0)
(-0.516511 0.00605364 0)
(-0.519418 0.00593984 0)
(-0.522181 0.00523691 0)
(-0.524535 0.00382971 0)
(-0.526174 0.00169112 0)
(-0.526798 -0.00107492 0)
(-0.526196 -0.00423728 0)
(-0.524216 -0.00739898 0)
(-0.520741 -0.00994874 0)
(-0.515849 -0.0110803 0)
(-0.509957 -0.00993662 0)
(-0.503987 -0.00619478 0)
(-0.500292 -0.00144719 0)
(-0.500906 0.00365437 0)
(-0.502683 0.00515462 0)
(-0.504645 0.00597971 0)
(-0.506807 0.00658419 0)
(-0.509157 0.00721698 0)
(-0.511741 0.00793734 0)
(-0.514594 0.00863067 0)
(-0.517683 0.00905862 0)
(-0.520888 0.00892813 0)
(-0.523994 0.0079732 0)
(-0.526717 0.00602424 0)
(-0.528747 0.00305234 0)
(-0.529816 -0.00082364 0)
(-0.529715 -0.00531782 0)
(-0.528328 -0.00998476 0)
(-0.525478 -0.0141843 0)
(-0.520923 -0.016909 0)
(-0.514579 -0.0167345 0)
(-0.50711 -0.0122433 0)
(-0.501018 -0.00396161 0)
(-0.500968 0.00542967 0)
(-0.502823 0.00713589 0)
(-0.504787 0.00806326 0)
(-0.50692 0.00882975 0)
(-0.509246 0.00968377 0)
(-0.511825 0.0106719 0)
(-0.51471 0.0116358 0)
(-0.517874 0.01226 0)
(-0.521181 0.012154 0)
(-0.524384 0.0109649 0)
(-0.527183 0.00849332 0)
(-0.52931 0.00474792 0)
(-0.530572 -0.000100841 0)
(-0.530842 -0.00572245 0)
(-0.529997 -0.0116891 0)
(-0.52796 -0.0174686 0)
(-0.524347 -0.0221553 0)
(-0.518533 -0.0240267 0)
(-0.510474 -0.0203142 0)
(-0.502516 -0.00890979 0)
(-0.500935 0.00722514 0)
(-0.502752 0.00910563 0)
(-0.504629 0.0101035 0)
(-0.506643 0.0110146 0)
(-0.508832 0.0120904 0)
(-0.511261 0.0133601 0)
(-0.513992 0.0146126 0)
(-0.517001 0.0154439 0)
(-0.52015 0.0153544 0)
(-0.523209 0.0139243 0)
(-0.525936 0.010961 0)
(-0.528127 0.00651767 0)
(-0.529578 0.000830629 0)
(-0.530104 -0.00576448 0)
(-0.52962 -0.012796 0)
(-0.528148 -0.0198035 0)
(-0.52549 -0.0262164 0)
(-0.520817 -0.0306301 0)
(-0.513146 -0.0293738 0)
(-0.504112 -0.0163895 0)
(-0.500835 0.00892183 0)
(-0.502514 0.0109628 0)
(-0.504227 0.0120084 0)
(-0.506035 0.0130309 0)
(-0.507972 0.0142933 0)
(-0.510096 0.0158144 0)
(-0.512467 0.0173263 0)
(-0.515083 0.0183475 0)
(-0.517849 0.0182987 0)
(-0.520621 0.0167212 0)
(-0.523256 0.0134184 0)
(-0.525563 0.00842759 0)
(-0.527274 0.00196516 0)
(-0.528102 -0.00557586 0)
(-0.527934 -0.0136291 0)
(-0.52683 -0.0216296 0)
(-0.524817 -0.0292895 0)
(-0.52131 -0.0359584 0)
(-0.514643 -0.0381595 0)
(-0.505334 -0.0259337 0)
(-0.500693 0.0104214 0)
(-0.502158 0.0126243 0)
(-0.503643 0.0136934 0)
(-0.505171 0.0147763 0)
(-0.506758 0.0161541 0)
(-0.508441 0.0178456 0)
(-0.510263 0.0195491 0)
(-0.512269 0.0207614 0)
(-0.514452 0.0208392 0)
(-0.516779 0.0192749 0)
(-0.519208 0.0158527 0)
(-0.521572 0.0105189 0)
(-0.523534 0.00339997 0)
(-0.524764 -0.00506227 0)
(-0.525053 -0.0141402 0)
(-0.524428 -0.02308 0)
(-0.522977 -0.0317184 0)
(-0.520462 -0.040085 0)
(-0.515024 -0.0459589 0)
(-0.506035 -0.0366439 0)
(-0.500527 0.0116568 0)
(-0.501727 0.0140256 0)
(-0.502938 0.0150943 0)
(-0.50414 0.0161758 0)
(-0.505314 0.0175742 0)
(-0.506461 0.0193189 0)
(-0.507615 0.0211113 0)
(-0.508849 0.0224738 0)
(-0.510242 0.0227574 0)
(-0.511876 0.0214354 0)
(-0.513839 0.0181772 0)
(-0.516038 0.0127563 0)
(-0.518185 0.00519563 0)
(-0.519862 -0.00405948 0)
(-0.520779 -0.0140444 0)
(-0.520911 -0.0239058 0)
(-0.520247 -0.0334535 0)
(-0.518724 -0.0431782 0)
(-0.514619 -0.052576 0)
(-0.50635 -0.0476376 0)
(-0.500356 0.0125925 0)
(-0.501266 0.0151302 0)
(-0.502183 0.0161761 0)
(-0.503042 0.017189 0)
(-0.503787 0.0184976 0)
(-0.504375 0.0201551 0)
(-0.504822 0.0219179 0)
(-0.505204 0.0233485 0)
(-0.505658 0.0238561 0)
(-0.506349 0.0228824 0)
(-0.507459 0.0200307 0)
(-0.50909 0.014946 0)
(-0.511149 0.0074056 0)
(-0.513219 -0.00224692 0)
(-0.515 -0.0129561 0)
(-0.516222 -0.0237262 0)
(-0.516658 -0.0341822 0)
(-0.516319 -0.045182 0)
(-0.513671 -0.0578481 0)
(-0.506541 -0.0583766 0)
(-0.500198 0.0132247 0)
(-0.500825 0.0159299 0)
(-0.501453 0.0169312 0)
(-0.501981 0.0178142 0)
(-0.502322 0.0189335 0)
(-0.502398 0.0203686 0)
(-0.502198 0.0219474 0)
(-0.50177 0.0232977 0)
(-0.501263 0.0239272 0)
(-0.500882 0.0233164 0)
(-0.500896 0.0210362 0)
(-0.50152 0.0166536 0)
(-0.503002 0.009705 0)
(-0.505315 0.000267096 0)
(-0.50803 -0.0107296 0)
(-0.510521 -0.0221813 0)
(-0.512302 -0.0335716 0)
(-0.513364 -0.0458181 0)
(-0.512333 -0.0616612 0)
(-0.506747 -0.0685987 0)
(-0.500074 0.0135814 0)
(-0.500453 0.0164461 0)
(-0.500818 0.0173818 0)
(-0.501051 0.0180858 0)
(-0.501042 0.0189395 0)
(-0.500699 0.0200438 0)
(-0.499985 0.0212932 0)
(-0.498921 0.0223966 0)
(-0.497629 0.0229619 0)
(-0.496312 0.0225626 0)
(-0.495248 0.0208026 0)
(-0.494758 0.0172703 0)
(-0.495285 0.0115322 0)
(-0.49725 0.00323894 0)
(-0.500538 -0.00733427 0)
(-0.504235 -0.0191029 0)
(-0.50743 -0.0314077 0)
(-0.50999 -0.0448785 0)
(-0.510737 -0.0638814 0)
(-0.507015 -0.0782237 0)
(-0.500008 0.0137291 0)
(-0.5002 0.0167227 0)
(-0.500344 0.0175682 0)
(-0.500324 0.0180558 0)
(-0.500025 0.0185977 0)
(-0.499362 0.0193143 0)
(-0.498288 0.0201506 0)
(-0.496813 0.0208945 0)
(-0.495029 0.0212474 0)
(-0.493116 0.0208757 0)
(-0.491334 0.019461 0)
(-0.490026 0.0167008 0)
(-0.489641 0.0122352 0)
(-0.490808 0.00567162 0)
(-0.493826 -0.00345946 0)
(-0.498084 -0.0149094 0)
(-0.502451 -0.0277065 0)
(-0.506399 -0.0422676 0)
(-0.509023 -0.0643861 0)
(-0.507376 -0.0872317 0)
(-0.500021 0.0137969 0)
(-0.500112 0.0168365 0)
(-0.500089 0.0175409 0)
(-0.499853 0.0177744 0)
(-0.499306 0.0179819 0)
(-0.498393 0.0183019 0)
(-0.49708 0.0187143 0)
(-0.495376 0.0190767 0)
(-0.49336 0.0191684 0)
(-0.491183 0.0187382 0)
(-0.489077 0.0175506 0)
(-0.487353 0.0154079 0)
(-0.486375 0.0120812 0)
(-0.486652 0.00713982 0)
(-0.488819 -5.66421e-05 0)
(-0.492791 -0.0102191 0)
(-0.497748 -0.0227521 0)
(-0.5028 -0.0380654 0)
(-0.507239 -0.0629104 0)
(-0.507819 -0.0953361 0)
(-0.500148 0.0137941 0)
(-0.500271 0.0168183 0)
(-0.500117 0.0173146 0)
(-0.499675 0.0172541 0)
(-0.498893 0.0171219 0)
(-0.497757 0.0170681 0)
(-0.496258 0.0170971 0)
(-0.494421 0.017117 0)
(-0.492313 0.0169735 0)
(-0.490064 0.016485 0)
(-0.487869 0.0154827 0)
(-0.485964 0.0138259 0)
(-0.484634 0.0113545 0)
(-0.484237 0.00774853 0)
(-0.485364 0.00235255 0)
(-0.488477 -0.00576805 0)
(-0.493368 -0.0170931 0)
(-0.49916 -0.0326011 0)
(-0.504981 -0.0590674 0)
(-0.508158 -0.102151 0)
(-0.500451 0.0144733 0)
(-0.500688 0.0169701 0)
(-0.500442 0.0170004 0)
(-0.499793 0.0165379 0)
(-0.498759 0.0160434 0)
(-0.497383 0.0156435 0)
(-0.495692 0.0153477 0)
(-0.493728 0.0150907 0)
(-0.491554 0.0147643 0)
(-0.489278 0.0142411 0)
(-0.487049 0.013396 0)
(-0.485051 0.0121171 0)
(-0.483498 0.0102863 0)
(-0.482648 0.00769032 0)
(-0.48294 0.00380077 0)
(-0.48494 -0.00228538 0)
(-0.489404 -0.0115882 0)
(-0.494862 -0.026631 0)
(-0.501322 -0.0530144 0)
(-0.508008 -0.108304 0)
(-0.501127 0.0135506 0)
(-0.501842 0.0159101 0)
(-0.501279 0.0158255 0)
(-0.500224 0.0152266 0)
(-0.498819 0.0145476 0)
(-0.497126 0.0139269 0)
(-0.49517 0.0134133 0)
(-0.493005 0.012974 0)
(-0.490694 0.0125344 0)
(-0.488318 0.0120041 0)
(-0.48599 0.0112909 0)
(-0.483844 0.0103065 0)
(-0.482066 0.00897388 0)
(-0.480863 0.00713933 0)
(-0.480584 0.0044617 0)
(-0.481545 8.64503e-05 0)
(-0.485419 -0.00684289 0)
(-0.488689 -0.0211649 0)
(-0.496389 -0.046009 0)
(-0.506903 -0.11558 0)
(-0.502058 0.0218985 0)
(-0.50281 0.0210735 0)
(-0.501662 0.0182991 0)
(-0.500082 0.0158582 0)
(-0.498213 0.0141169 0)
(-0.496033 0.0128294 0)
(-0.493595 0.0118653 0)
(-0.490994 0.0111184 0)
(-0.488303 0.0104827 0)
(-0.485592 0.0098719 0)
(-0.482948 0.00921764 0)
(-0.480496 0.00846694 0)
(-0.478387 0.00755582 0)
(-0.476759 0.00637877 0)
(-0.475976 0.00474936 0)
(-0.475916 0.00184707 0)
(-0.479362 -0.00316408 0)
(-0.477771 -0.0159264 0)
(-0.492995 -0.0365068 0)
(-0.501845 -0.121365 0)
(-0.503348 0.00818173 0)
(-0.504651 0.00503857 0)
(-0.500615 0.00521656 0)
(-0.496128 0.00658455 0)
(-0.4915 0.00691269 0)
(-0.486994 0.00667397 0)
(-0.482731 0.00638095 0)
(-0.478702 0.00614355 0)
(-0.474876 0.00592113 0)
(-0.471229 0.0056757 0)
(-0.467773 0.00539184 0)
(-0.464546 0.00505493 0)
(-0.461631 0.00464613 0)
(-0.459035 0.00408381 0)
(-0.457206 0.00331485 0)
(-0.455322 0.0017142 0)
(-0.45859 -0.000521241 0)
(-0.452258 -0.00841476 0)
(-0.488289 -0.0189682 0)
(-0.471127 -0.106023 0)
(-0.480042 0.0459643 0)
(-0.469607 0.0336209 0)
(-0.457434 0.0206088 0)
(-0.447136 0.0134652 0)
(-0.43932 0.00977423 0)
(-0.432814 0.00763378 0)
(-0.426925 0.00623558 0)
(-0.421481 0.00525056 0)
(-0.416438 0.00451518 0)
(-0.411748 0.00394585 0)
(-0.407379 0.00348608 0)
(-0.403321 0.00309902 0)
(-0.399617 0.00275884 0)
(-0.396237 0.00243484 0)
(-0.393653 0.00208398 0)
(-0.390764 0.00159515 0)
(-0.393458 0.00101214 0)
(-0.382347 -0.00109975 0)
(-0.442112 0.00283846 0)
(-0.318773 -0.047928 0)
)
;

boundaryField
{
    movingWall
    {
        type            calculated;
        value           uniform (-1.01199e-14 0 0);
    }
    fixedWalls
    {
        type            calculated;
        value           uniform (-0.5 0 0);
    }
    frontAndBack
    {
        type            empty;
    }
}


// ************************************************************************* //
