/*--------------------------------*- C++ -*----------------------------------*\
| =========                 |                                                 |
| \\      /  F ield         | OpenFOAM: The Open Source CFD Toolbox           |
|  \\    /   O peration     | Version:  2312                                  |
|   \\  /    A nd           | Website:  www.openfoam.com                      |
|    \\/     M anipulation  |                                                 |
\*---------------------------------------------------------------------------*/
FoamFile
{
    version     2.0;
    format      ascii;
    arch        "LSB;label=32;scalar=64";
    class       volSymmTensorField;
    location    "5";
    object      UPrime2Mean;
}
// * * * * * * * * * * * * * * * * * * * * * * * * * * * * * * * * * * * * * //

dimensions      [0 2 -2 0 0 0 0];

internalField   nonuniform List<symmTensor> 
400
(
(0.249911 3.71186e-05 0 2.05199e-08 0 0)
(0.249298 0.000168915 0 1.6878e-07 0 0)
(0.24817 0.000253094 0 3.85935e-07 0 0)
(0.246873 0.000294475 0 5.39055e-07 0 0)
(0.245449 0.0003318 0 7.54646e-07 0 0)
(0.243867 0.000380386 0 1.19789e-06 0 0)
(0.242085 0.000442496 0 2.09335e-06 0 0)
(0.240103 0.000505461 0 3.6004e-06 0 0)
(0.23802 0.000531938 0 4.9504e-06 0 0)
(0.23605 0.00048806 0 4.90788e-06 0 0)
(0.234487 0.000360913 0 3.1798e-06 0 0)
(0.233615 0.00016081 0 9.97556e-07 0 0)
(0.233652 -0.000107677 0 1.70249e-07 0 0)
(0.234795 -0.000395306 0 1.70239e-06 0 0)
(0.237041 -0.000670068 0 5.37865e-06 0 0)
(0.240179 -0.000863655 0 9.16968e-06 0 0)
(0.243784 -0.000887694 0 9.48591e-06 0 0)
(0.247299 -0.000662529 0 4.73176e-06 0 0)
(0.24968 -0.000269841 0 5.1082e-07 0 0)
(0.250254 6.63565e-05 0 2.97042e-07 0 0)
(0.249587 0.000367243 0 8.14025e-07 0 0)
(0.248369 0.00078672 0 4.24187e-06 0 0)
(0.24672 0.00100994 0 7.3533e-06 0 0)
(0.244887 0.00112001 0 9.51882e-06 0 0)
(0.24293 0.001223 0 1.26392e-05 0 0)
(0.240819 0.00134949 0 1.86e-05 0 0)
(0.238541 0.00147426 0 2.79392e-05 0 0)
(0.236164 0.00154289 0 3.7753e-05 0 0)
(0.233824 0.0014936 0 4.19133e-05 0 0)
(0.231713 0.00127965 0 3.56421e-05 0 0)
(0.230051 0.000884534 0 2.07361e-05 0 0)
(0.229068 0.000319169 0 5.69058e-06 0 0)
(0.228987 -0.000387321 0 1.753e-06 0 0)
(0.229979 -0.00117422 0 1.75421e-05 0 0)
(0.23216 -0.00193887 0 5.27511e-05 0 0)
(0.235473 -0.00251847 0 9.15504e-05 0 0)
(0.239642 -0.0027045 0 0.000104908 0 0)
(0.244162 -0.00226808 0 6.90292e-05 0 0)
(0.248206 -0.00121526 0 1.52166e-05 0 0)
(0.250005 -6.92902e-05 0 1.28161e-06 0 0)
(0.249278 0.00101747 0 6.96745e-06 0 0)
(0.247714 0.00162575 0 1.99536e-05 0 0)
(0.245877 0.00194295 0 3.01487e-05 0 0)
(0.243837 0.00212863 0 3.84797e-05 0 0)
(0.241649 0.00230557 0 5.07929e-05 0 0)
(0.239303 0.00250211 0 7.18881e-05 0 0)
(0.236798 0.00267174 0 0.000100428 0 0)
(0.234188 0.0027351 0 0.000125874 0 0)
(0.231593 0.00261066 0 0.00013227 0 0)
(0.229181 0.00223888 0 0.000110039 0 0)
(0.227164 0.00159124 0 6.52533e-05 0 0)
(0.225783 0.000666597 0 1.94847e-05 0 0)
(0.225272 -0.000498476 0 3.43686e-06 0 0)
(0.225814 -0.00182908 0 4.41806e-05 0 0)
(0.227555 -0.00318658 0 0.000150915 0 0)
(0.230623 -0.00434264 0 0.000294817 0 0)
(0.235008 -0.0049618 0 0.000392772 0 0)
(0.240416 -0.00461582 0 0.000335345 0 0)
(0.246084 -0.00300384 0 0.000127118 0 0)
(0.249709 -0.000722054 0 4.43573e-06 0 0)
(0.2491 0.00181978 0 2.39998e-05 0 0)
(0.247331 0.00255001 0 5.16561e-05 0 0)
(0.245402 0.0029322 0 7.25953e-05 0 0)
(0.243295 0.00319499 0 9.26951e-05 0 0)
(0.241035 0.00345536 0 0.000122607 0 0)
(0.238588 0.00373331 0 0.00016977 0 0)
(0.235939 0.00396924 0 0.000228884 0 0)
(0.233131 0.00406014 0 0.000276794 0 0)
(0.230276 0.00389707 0 0.000283209 0 0)
(0.227557 0.0033944 0 0.000232868 0 0)
(0.225201 0.00250479 0 0.000140066 0 0)
(0.22346 0.00122639 0 4.60373e-05 0 0)
(0.222549 -0.000398989 0 4.98276e-06 0 0)
(0.222643 -0.00227677 0 6.67318e-05 0 0)
(0.223865 -0.00425133 0 0.000255792 0 0)
(0.226385 -0.00608458 0 0.000551655 0 0)
(0.230445 -0.0073825 0 0.000847647 0 0)
(0.236181 -0.0075372 0 0.000914814 0 0)
(0.243122 -0.00577182 0 0.000536835 0 0)
(0.248992 -0.00195994 0 4.959e-05 0 0)
(0.249036 0.00270289 0 5.54628e-05 0 0)
(0.247193 0.00352723 0 0.000101786 0 0)
(0.245262 0.00395011 0 0.000135681 0 0)
(0.243185 0.00428053 0 0.000172121 0 0)
(0.240948 0.00463228 0 0.000227473 0 0)
(0.238504 0.00501757 0 0.000311269 0 0)
(0.235817 0.00535693 0 0.000410028 0 0)
(0.232923 0.00551611 0 0.000483035 0 0)
(0.229944 0.00534734 0 0.0004837 0 0)
(0.227094 0.00472908 0 0.000393634 0 0)
(0.224625 0.00359899 0 0.000240669 0 0)
(0.222761 0.00196757 0 8.82449e-05 0 0)
(0.221663 -9.98044e-05 0 1.07841e-05 0 0)
(0.221434 -0.00248276 0 7.53038e-05 0 0)
(0.222188 -0.00502954 0 0.000321133 0 0)
(0.224008 -0.007539 0 0.000749365 0 0)
(0.227257 -0.00965693 0 0.00128899 0 0)
(0.232526 -0.0106912 0 0.00168763 0 0)
(0.239958 -0.00938838 0 0.00140232 0 0)
(0.24753 -0.00433517 0 0.000321469 0 0)
(0.249063 0.00359799 0 0.000100735 0 0)
(0.247264 0.00450228 0 0.000167671 0 0)
(0.245415 0.00495431 0 0.000215146 0 0)
(0.243449 0.00534927 0 0.000270833 0 0)
(0.241335 0.00580174 0 0.000356753 0 0)
(0.239018 0.00631574 0 0.000482604 0 0)
(0.236449 0.00678787 0 0.000623229 0 0)
(0.233656 0.00704335 0 0.000718262 0 0)
(0.230768 0.00688239 0 0.000705765 0 0)
(0.22799 0.00614615 0 0.000570544 0 0)
(0.225539 0.00476811 0 0.000358252 0 0)
(0.223595 0.00278058 0 0.000149898 0 0)
(0.222329 0.00028872 0 3.38744e-05 0 0)
(0.22189 -0.002572 0 8.7887e-05 0 0)
(0.222345 -0.00562529 0 0.000362977 0 0)
(0.223676 -0.0087004 0 0.000872826 0 0)
(0.226073 -0.0115819 0 0.00159679 0 0)
(0.230327 -0.0137074 0 0.00239394 0 0)
(0.237417 -0.0135111 0 0.00260822 0 0)
(0.245979 -0.00789397 0 0.00106151 0 0)
(0.249159 0.00444559 0 0.000154663 0 0)
(0.247499 0.00542772 0 0.000242374 0 0)
(0.245805 0.00590316 0 0.000302237 0 0)
(0.244034 0.00635447 0 0.000376236 0 0)
(0.242149 0.00690348 0 0.000491126 0 0)
(0.240102 0.00755123 0 0.000656014 0 0)
(0.237839 0.00816742 0 0.000832949 0 0)
(0.235367 0.00853514 0 0.000944946 0 0)
(0.232777 0.00840517 0 0.00092086 0 0)
(0.230209 0.00758633 0 0.000752056 0 0)
(0.227801 0.00600436 0 0.00049592 0 0)
(0.225729 0.00369361 0 0.000241464 0 0)
(0.224232 0.00076719 0 8.70044e-05 0 0)
(0.223548 -0.00259588 0 0.000123302 0 0)
(0.223757 -0.00616247 0 0.000411123 0 0)
(0.224788 -0.0097175 0 0.000967107 0 0)
(0.226607 -0.0131796 0 0.00179827 0 0)
(0.22978 -0.0163198 0 0.00289763 0 0)
(0.235952 -0.017669 0 0.00382258 0 0)
(0.244786 -0.01247 0 0.00237919 0 0)
(0.249302 0.00519789 0 0.000208954 0 0)
(0.247851 0.00626297 0 0.000316373 0 0)
(0.246378 0.00675577 0 0.000385402 0 0)
(0.244873 0.0072465 0 0.000472324 0 0)
(0.243315 0.00786976 0 0.000607071 0 0)
(0.241674 0.00863022 0 0.00079837 0 0)
(0.239908 0.00938101 0 0.00099972 0 0)
(0.237977 0.00988233 0 0.00112868 0 0)
(0.235892 0.00983491 0 0.00110658 0 0)
(0.233692 0.00900708 0 0.000925575 0 0)
(0.23143 0.00730977 0 0.000648659 0 0)
(0.229273 0.0047428 0 0.000364099 0 0)
(0.227535 0.00139637 0 0.000176144 0 0)
(0.226508 -0.00250333 0 0.000190011 0 0)
(0.226343 -0.00661771 0 0.00047378 0 0)
(0.226977 -0.0106372 0 0.00104934 0 0)
(0.228303 -0.0145548 0 0.00194129 0 0)
(0.230543 -0.0184767 0 0.00322615 0 0)
(0.235549 -0.0215198 0 0.00482763 0 0)
(0.244094 -0.0176861 0 0.00412188 0 0)
(0.249468 0.00581983 0 0.000254737 0 0)
(0.248278 0.00697513 0 0.000379693 0 0)
(0.247072 0.007478 0 0.000453568 0 0)
(0.245882 0.00798352 0 0.00054518 0 0)
(0.244722 0.0086425 0 0.0006858 0 0)
(0.243592 0.00946983 0 0.000884113 0 0)
(0.24246 0.0103185 0 0.00109288 0 0)
(0.241255 0.0109493 0 0.0012342 0 0)
(0.239904 0.0110384 0 0.00122875 0 0)
(0.238335 0.0103244 0 0.00106714 0 0)
(0.236473 0.00865018 0 0.000800916 0 0)
(0.23443 0.00593308 0 0.000507156 0 0)
(0.232493 0.00222808 0 0.000296839 0 0)
(0.231054 -0.00219916 0 0.000284031 0 0)
(0.23033 -0.00685011 0 0.000538875 0 0)
(0.230288 -0.0113386 0 0.00109846 0 0)
(0.230904 -0.0156665 0 0.00201667 0 0)
(0.232206 -0.0201973 0 0.00342088 0 0)
(0.235924 -0.0248953 0 0.00558509 0 0)
(0.243778 -0.0231183 0 0.00601542 0 0)
(0.249639 0.00629328 0 0.000285325 0 0)
(0.248736 0.0075433 0 0.000424682 0 0)
(0.247821 0.0080479 0 0.000499126 0 0)
(0.246967 0.00853705 0 0.000586321 0 0)
(0.246229 0.0091787 0 0.000716985 0 0)
(0.245649 0.0100042 0 0.000900474 0 0)
(0.245215 0.0108932 0 0.00109875 0 0)
(0.244852 0.0116185 0 0.00124205 0 0)
(0.244425 0.0118667 0 0.0012595 0 0)
(0.243772 0.011341 0 0.00113408 0 0)
(0.242719 0.00983529 0 0.000908236 0 0)
(0.241183 0.00718443 0 0.000646563 0 0)
(0.239285 0.00332656 0 0.000435817 0 0)
(0.237435 -0.00148199 0 0.000388018 0 0)
(0.235882 -0.00663164 0 0.00058153 0 0)
(0.234805 -0.0116113 0 0.00108119 0 0)
(0.234381 -0.0163509 0 0.00198505 0 0)
(0.23455 -0.0214303 0 0.00347508 0 0)
(0.236849 -0.0276582 0 0.006088 0 0)
(0.243584 -0.0284649 0 0.0078648 0 0)
(0.249797 0.0066146 0 0.000297515 0 0)
(0.249177 0.00796013 0 0.000447489 0 0)
(0.24855 0.00845583 0 0.00051888 0 0)
(0.248026 0.00889693 0 0.000594344 0 0)
(0.247692 0.00946731 0 0.000702878 0 0)
(0.247628 0.0102146 0 0.000853872 0 0)
(0.247852 0.0110547 0 0.00102105 0 0)
(0.248319 0.0117907 0 0.00114814 0 0)
(0.248879 0.0121486 0 0.00117896 0 0)
(0.249323 0.011836 0 0.0010947 0 0)
(0.249374 0.0106137 0 0.000928377 0 0)
(0.248822 0.00825902 0 0.000731915 0 0)
(0.247441 0.00456353 0 0.000558429 0 0)
(0.245282 -0.000330445 0 0.000479549 0 0)
(0.24275 -0.00579971 0 0.000581474 0 0)
(0.240398 -0.0112171 0 0.000976599 0 0)
(0.238648 -0.0164123 0 0.00181791 0 0)
(0.237451 -0.0220241 0 0.00334956 0 0)
(0.238171 -0.0297199 0 0.00633885 0 0)
(0.243375 -0.0335644 0 0.00956447 0 0)
(0.24992 0.00679765 0 0.000292338 0 0)
(0.24955 0.00823287 0 0.000448523 0 0)
(0.249187 0.00870776 0 0.000514499 0 0)
(0.248962 0.00907267 0 0.0005741 0 0)
(0.248983 0.00952604 0 0.000654269 0 0)
(0.249349 0.0101268 0 0.00076335 0 0)
(0.250105 0.0108248 0 0.000885153 0 0)
(0.251239 0.011464 0 0.000979515 0 0)
(0.252629 0.0118199 0 0.00100577 0 0)
(0.254062 0.011642 0 0.000949752 0 0)
(0.255242 0.0106996 0 0.000837386 0 0)
(0.255832 0.00876885 0 0.000713681 0 0)
(0.255378 0.00563697 0 0.000613908 0 0)
(0.25348 0.00119594 0 0.000543089 0 0)
(0.250267 -0.00424695 0 0.000553517 0 0)
(0.246643 -0.0099849 0 0.000804142 0 0)
(0.243454 -0.0156879 0 0.00152266 0 0)
(0.240769 -0.0218554 0 0.00303177 0 0)
(0.239751 -0.0309977 0 0.00632885 0 0)
(0.243106 -0.038355 0 0.0110982 0 0)
(0.249985 0.00687354 0 0.00027457 0 0)
(0.249805 0.00838114 0 0.000431579 0 0)
(0.249666 0.00881998 0 0.000490702 0 0)
(0.249698 0.0090857 0 0.000533424 0 0)
(0.250017 0.00939171 0 0.000585134 0 0)
(0.250714 0.00980457 0 0.000653137 0 0)
(0.251846 0.0102993 0 0.000728229 0 0)
(0.253414 0.0107606 0 0.000784837 0 0)
(0.255328 0.0110151 0 0.000796585 0 0)
(0.257396 0.0108623 0 0.000754224 0 0)
(0.259337 0.0101122 0 0.000677801 0 0)
(0.260777 0.00859639 0 0.00060716 0 0)
(0.261239 0.00613692 0 0.000568232 0 0)
(0.260085 0.0025646 0 0.000547163 0 0)
(0.257056 -0.00226131 0 0.000515939 0 0)
(0.252793 -0.00802951 0 0.000617187 0 0)
(0.248386 -0.0141188 0 0.00115097 0 0)
(0.244299 -0.0208468 0 0.00254513 0 0)
(0.241443 -0.0314227 0 0.00605136 0 0)
(0.242748 -0.0428152 0 0.0124878 0 0)
(0.249971 0.00690819 0 0.000252213 0 0)
(0.249895 0.00844141 0 0.000403342 0 0)
(0.249926 0.0088156 0 0.000453659 0 0)
(0.250181 0.00895954 0 0.000480117 0 0)
(0.250755 0.00910156 0 0.000507096 0 0)
(0.251709 0.00931457 0 0.000541539 0 0)
(0.253091 0.00958954 0 0.000578625 0 0)
(0.254896 0.00984784 0 0.000604071 0 0)
(0.25705 0.00996075 0 0.000602251 0 0)
(0.25939 0.00977714 0 0.000567793 0 0)
(0.261662 0.00915562 0 0.000514052 0 0)
(0.263524 0.00798618 0 0.000469811 0 0)
(0.264584 0.00615769 0 0.000458811 0 0)
(0.264314 0.00346461 0 0.0004698 0 0)
(0.262101 -0.00039349 0 0.000464842 0 0)
(0.258081 -0.00565169 0 0.000467758 0 0)
(0.25305 -0.0118007 0 0.000782848 0 0)
(0.247834 -0.0190036 0 0.00195388 0 0)
(0.243193 -0.0308688 0 0.00547991 0 0)
(0.242308 -0.0468086 0 0.0137052 0 0)
(0.24984 0.00690393 0 0.000229199 0 0)
(0.249739 0.00842803 0 0.000368827 0 0)
(0.249904 0.00870065 0 0.000408008 0 0)
(0.250369 0.00870039 0 0.000419365 0 0)
(0.251184 0.00867297 0 0.000426718 0 0)
(0.252369 0.00869471 0 0.000436844 0 0)
(0.253939 0.00876718 0 0.0004478 0 0)
(0.255876 0.00883874 0 0.000452347 0 0)
(0.258114 0.0088197 0 0.000442282 0 0)
(0.260514 0.00860204 0 0.000414587 0 0)
(0.262861 0.00808576 0 0.000376458 0 0)
(0.264893 0.00719346 0 0.000344284 0 0)
(0.266303 0.00584687 0 0.000335632 0 0)
(0.266716 0.00389032 0 0.000353779 0 0)
(0.265539 0.000993794 0 0.000371648 0 0)
(0.262353 -0.00327858 0 0.000365774 0 0)
(0.257374 -0.0089955 0 0.000491141 0 0)
(0.251414 -0.0164699 0 0.00135699 0 0)
(0.245402 -0.0291759 0 0.00460074 0 0)
(0.241973 -0.050186 0 0.0146758 0 0)
(0.249534 0.00723876 0 0.000232976 0 0)
(0.249324 0.00849212 0 0.000345869 0 0)
(0.249583 0.0085319 0 0.000364142 0 0)
(0.250259 0.00833137 0 0.000358136 0 0)
(0.251328 0.00812195 0 0.000349139 0 0)
(0.252756 0.00796597 0 0.000342378 0 0)
(0.25452 0.00786665 0 0.0003372 0 0)
(0.256581 0.00778688 0 0.000329837 0 0)
(0.258874 0.00766485 0 0.000316155 0 0)
(0.261286 0.00742628 0 0.000294314 0 0)
(0.263649 0.006999 0 0.000267102 0 0)
(0.265762 0.00632178 0 0.000242012 0 0)
(0.26739 0.00533582 0 0.000228987 0 0)
(0.268264 0.00393671 0 0.000235493 0 0)
(0.267934 0.0018561 0 0.00025228 0 0)
(0.265853 -0.00136549 0 0.000259618 0 0)
(0.261284 -0.0061631 0 0.000297576 0 0)
(0.255674 -0.0136291 0 0.00086801 0 0)
(0.24902 -0.0264551 0 0.00353352 0 0)
(0.242123 -0.0533323 0 0.0155459 0 0)
(0.248848 0.0067678 0 0.000194579 0 0)
(0.248174 0.0079352 0 0.000281884 0 0)
(0.248743 0.00791834 0 0.00029307 0 0)
(0.249825 0.00765216 0 0.000283083 0 0)
(0.251266 0.00735089 0 0.000268513 0 0)
(0.253013 0.00708132 0 0.000254427 0 0)
(0.255043 0.00686665 0 0.000242193 0 0)
(0.257302 0.00668742 0 0.000230377 0 0)
(0.259727 0.00650174 0 0.000216795 0 0)
(0.262231 0.00625839 0 0.00020009 0 0)
(0.264686 0.00590532 0 0.00018079 0 0)
(0.266945 0.00539455 0 0.000161491 0 0)
(0.268803 0.00468685 0 0.000146347 0 0)
(0.270039 0.00370508 0 0.000139519 0 0)
(0.270292 0.00227481 0 0.000142406 0 0)
(0.269257 -4.33703e-05 0 0.000146519 0 0)
(0.265235 -0.00367183 0 0.00017316 0 0)
(0.261893 -0.011006 0 0.000552509 0 0)
(0.253953 -0.0232636 0 0.00252983 0 0)
(0.243242 -0.0572213 0 0.0166745 0 0)
(0.247907 0.0109157 0 0.000498297 0 0)
(0.247207 0.0104795 0 0.000476631 0 0)
(0.248351 0.0091367 0 0.000373659 0 0)
(0.249951 0.00795565 0 0.000290841 0 0)
(0.251852 0.00712344 0 0.000238503 0 0)
(0.254085 0.0065177 0 0.000203394 0 0)
(0.2566 0.00607312 0 0.000178895 0 0)
(0.259301 0.00573455 0 0.000160463 0 0)
(0.262115 0.00544648 0 0.000144749 0 0)
(0.264966 0.00516268 0 0.000129841 0 0)
(0.267755 0.00484607 0 0.000115065 0 0)
(0.270342 0.00446791 0 0.000100661 0 0)
(0.272561 0.00399425 0 8.69755e-05 0 0)
(0.274258 0.0033701 0 7.41172e-05 0 0)
(0.275048 0.00249602 0 6.28268e-05 0 0)
(0.275071 0.000941439 0 5.28806e-05 0 0)
(0.271412 -0.00172581 0 7.1551e-05 0 0)
(0.273138 -0.00848878 0 0.000348851 0 0)
(0.257325 -0.0186222 0 0.00151828 0 0)
(0.24839 -0.0609584 0 0.0170547 0 0)
(0.246669 0.00407423 0 7.34213e-05 0 0)
(0.245373 0.0024913 0 2.77378e-05 0 0)
(0.249393 0.00260897 0 3.04754e-05 0 0)
(0.253906 0.00332635 0 4.96535e-05 0 0)
(0.258611 0.00353125 0 5.60415e-05 0 0)
(0.263245 0.00344735 0 5.3683e-05 0 0)
(0.26768 0.00333166 0 5.02305e-05 0 0)
(0.271915 0.00324052 0 4.7411e-05 0 0)
(0.275978 0.00315329 0 4.46906e-05 0 0)
(0.279887 0.00304963 0 4.15719e-05 0 0)
(0.28362 0.00292064 0 3.79879e-05 0 0)
(0.287129 0.00275781 0 3.39774e-05 0 0)
(0.290317 0.00255016 0 2.95475e-05 0 0)
(0.293167 0.002252 0 2.39858e-05 0 0)
(0.295178 0.00182948 0 1.72525e-05 0 0)
(0.297244 0.00093498 0 7.96023e-06 0 0)
(0.293646 -0.000336131 0 1.18125e-05 0 0)
(0.300577 -0.00476589 0 0.000126197 0 0)
(0.262047 -0.00980981 0 0.000441833 0 0)
(0.280403 -0.056771 0 0.0122222 0 0)
(0.270497 0.0239269 0 0.00213823 0 0)
(0.281326 0.017864 0 0.0011923 0 0)
(0.29447 0.0112325 0 0.000469194 0 0)
(0.305802 0.00749752 0 0.000208759 0 0)
(0.314582 0.00553348 0 0.000113446 0 0)
(0.321997 0.00438156 0 7.07265e-05 0 0)
(0.328798 0.00362393 0 4.79793e-05 0 0)
(0.335162 0.00308694 0 3.44743e-05 0 0)
(0.341123 0.00268339 0 2.57907e-05 0 0)
(0.346726 0.00236891 0 1.99103e-05 0 0)
(0.351998 0.00211292 0 1.57022e-05 0 0)
(0.356941 0.00189515 0 1.25336e-05 0 0)
(0.36149 0.00170096 0 1.00235e-05 0 0)
(0.365671 0.00151211 0 7.85374e-06 0 0)
(0.368889 0.00130042 0 5.73667e-06 0 0)
(0.372481 0.000996633 0 3.22973e-06 0 0)
(0.369138 0.000618371 0 1.28447e-06 0 0)
(0.382736 -0.00073875 0 6.34806e-06 0 0)
(0.311647 0.00148981 0 5.06183e-05 0 0)
(0.465895 -0.0328542 0 0.00233457 0 0)
)
;

boundaryField
{
    movingWall
    {
        type            calculated;
        value           uniform (1 0 0 0 0 0);
    }
    fixedWalls
    {
        type            calculated;
        value           uniform (0.25 0 0 0 0 0);
    }
    frontAndBack
    {
        type            empty;
    }
}


// ************************************************************************* //
