/*--------------------------------*- C++ -*----------------------------------*\
| =========                 |                                                 |
| \\      /  F ield         | OpenFOAM: The Open Source CFD Toolbox           |
|  \\    /   O peration     | Version:  2312                                  |
|   \\  /    A nd           | Website:  www.openfoam.com                      |
|    \\/     M anipulation  |                                                 |
\*---------------------------------------------------------------------------*/
FoamFile
{
    version     2.0;
    format      ascii;
    arch        "LSB;label=32;scalar=64";
    class       volScalarField;
    location    "5";
    object      Uy;
}
// * * * * * * * * * * * * * * * * * * * * * * * * * * * * * * * * * * * * * //

dimensions      [0 1 -1 0 0 0 0];

internalField   nonuniform List<scalar> 
400
(
2.94669e-09
-6.99209e-10
1.66225e-10
-3.9406e-11
9.39195e-12
-2.21834e-12
5.34483e-13
-1.22926e-13
3.18373e-14
-5.86707e-15
2.5811e-15
1.82281e-16
4.85583e-16
2.57052e-16
2.25506e-16
1.1316e-16
9.01969e-17
1.06156e-16
8.55401e-17
8.32735e-17
-2.95153e-09
7.0157e-10
-1.66245e-10
3.95877e-11
-9.33282e-12
2.24606e-12
-5.14407e-13
1.32924e-13
-2.46243e-14
1.04814e-14
8.52699e-16
2.16307e-15
1.12573e-15
8.74996e-16
5.68489e-16
3.46561e-16
2.74599e-16
3.22362e-16
2.2954e-16
9.29336e-17
2.95142e-09
-7.01012e-10
1.6649e-10
-3.94577e-11
9.42608e-12
-2.20314e-12
5.45993e-13
-1.15078e-13
3.70227e-14
-2.22833e-15
5.23623e-15
2.21169e-15
1.9796e-15
1.29644e-15
9.54464e-16
6.44791e-16
4.44803e-16
2.93266e-16
2.44777e-16
6.78967e-17
-2.95e-09
7.00302e-10
-1.66154e-10
3.94753e-11
-9.3331e-12
2.24347e-12
-5.11509e-13
1.36417e-13
-2.16746e-14
1.26937e-14
2.42248e-15
3.41585e-15
2.15216e-15
1.67957e-15
1.31246e-15
9.19595e-16
5.51356e-16
2.9231e-16
2.45298e-16
1.23304e-16
2.94314e-09
-6.98419e-10
1.65755e-10
-3.93046e-11
9.35302e-12
-2.19764e-12
5.38988e-13
-1.14381e-13
3.75201e-14
-1.05753e-15
6.05046e-15
2.73899e-15
2.45822e-15
1.76791e-15
1.39682e-15
9.90988e-16
6.90223e-16
5.13926e-16
2.84916e-16
2.50779e-18
-2.93526e-09
6.96446e-10
-1.65232e-10
3.92215e-11
-9.28769e-12
2.2201e-12
-5.12756e-13
1.33105e-13
-2.24289e-14
1.24648e-14
2.46876e-15
3.48468e-15
2.30892e-15
1.84598e-15
1.26922e-15
9.01323e-16
6.8371e-16
4.54602e-16
1.73519e-16
-2.1077e-17
2.92625e-09
-6.94244e-10
1.64727e-10
-3.90698e-11
9.28191e-12
-2.19021e-12
5.30276e-13
-1.16804e-13
3.50334e-14
-2.42736e-15
5.20142e-15
2.41083e-15
2.27025e-15
1.67648e-15
1.26782e-15
9.72332e-16
6.80169e-16
3.36624e-16
7.75115e-17
4.03579e-17
-2.91757e-09
6.92159e-10
-1.64214e-10
3.89665e-11
-9.23557e-12
2.1996e-12
-5.14061e-13
1.28852e-13
-2.47848e-14
1.05691e-14
1.21349e-15
2.72859e-15
1.74472e-15
1.37976e-15
9.37647e-16
7.13189e-16
5.73768e-16
3.6683e-16
9.39934e-17
-2.44643e-17
2.90866e-09
-6.90029e-10
1.63716e-10
-3.88354e-11
9.21833e-12
-2.18162e-12
5.2267e-13
-1.19408e-13
3.2205e-14
-4.34301e-15
3.82216e-15
1.32519e-15
1.40443e-15
9.61524e-16
7.2356e-16
4.24518e-16
2.27599e-16
1.09228e-16
6.69495e-17
2.40743e-17
-2.90017e-09
6.88013e-10
-1.63232e-10
3.87275e-11
-9.18455e-12
2.18196e-12
-5.14878e-13
1.24457e-13
-2.7589e-14
8.20028e-15
-4.96077e-16
1.22006e-15
4.79009e-16
6.09272e-16
6.3614e-16
4.65345e-16
2.40491e-16
9.60841e-17
6.00421e-17
2.84425e-17
2.89183e-09
-6.86036e-10
1.62765e-10
-3.86142e-11
9.16074e-12
-2.17319e-12
5.15635e-13
-1.22145e-13
2.92584e-14
-6.67195e-15
1.92383e-15
-4.92368e-17
3.02132e-16
1.6495e-16
2.45987e-16
3.17526e-16
2.4653e-16
9.26659e-17
3.60859e-17
2.19228e-17
-2.88381e-09
6.84143e-10
-1.62318e-10
3.85065e-11
-9.1376e-12
2.16547e-12
-5.1594e-13
1.20498e-13
-3.00872e-14
6.0662e-15
-2.10138e-15
1.38833e-16
-2.99472e-16
-1.46211e-16
-3.9426e-17
8.75829e-17
1.86336e-17
-1.15647e-16
3.40602e-17
1.22552e-16
2.87616e-09
-6.82343e-10
1.61886e-10
-3.84117e-11
9.10727e-12
-2.16588e-12
5.09363e-13
-1.24516e-13
2.65284e-14
-8.70547e-15
2.04566e-16
-1.38169e-15
-5.89979e-16
-4.97853e-16
-3.43015e-16
-2.29955e-16
-1.33758e-16
-1.03791e-16
-1.86435e-17
1.48017e-17
-2.86864e-09
6.80572e-10
-1.61478e-10
3.83019e-11
-9.09614e-12
2.14943e-12
-5.1738e-13
1.16842e-13
-3.21858e-14
4.29283e-15
-3.54989e-15
-1.03105e-15
-1.10411e-15
-7.04951e-16
-5.20012e-16
-2.95053e-16
-1.43796e-16
-1.02872e-16
-1.40629e-16
-9.82165e-17
2.86163e-09
-6.78931e-10
1.6107e-10
-3.82279e-11
9.05569e-12
-2.16085e-12
5.02374e-13
-1.27276e-13
2.41831e-14
-1.01844e-14
-9.34194e-16
-2.2646e-15
-1.26501e-15
-9.69294e-16
-5.90594e-16
-4.7448e-16
-2.90012e-16
-9.75035e-17
-8.13671e-17
-3.78527e-17
-2.85438e-09
6.77223e-10
-1.60698e-10
3.81059e-11
-9.06092e-12
2.13312e-12
-5.19215e-13
1.1326e-13
-3.42424e-14
2.76196e-15
-4.58599e-15
-1.76967e-15
-1.5895e-15
-1.04061e-15
-7.36229e-16
-5.62674e-16
-4.2225e-16
-2.161e-16
-7.38887e-17
-4.62983e-17
2.84776e-09
-6.75686e-10
1.6028e-10
-3.80608e-11
9.00103e-12
-2.15736e-12
4.9587e-13
-1.2897e-13
2.25779e-14
-1.08916e-14
-1.1995e-15
-2.36837e-15
-1.25167e-15
-1.03839e-15
-8.29369e-16
-5.4953e-16
-4.51819e-16
-2.50148e-16
-1.96364e-17
-1.69625e-17
-2.84033e-09
6.73928e-10
-1.5998e-10
3.79014e-11
-9.03592e-12
2.11763e-12
-5.19665e-13
1.12262e-13
-3.40685e-14
3.1559e-15
-4.04622e-15
-1.32027e-15
-1.2526e-15
-7.52466e-16
-6.71975e-16
-4.86327e-16
-3.19382e-16
-1.8512e-16
-8.39257e-17
-3.42822e-17
2.83435e-09
-6.7265e-10
1.59352e-10
-3.78798e-11
8.93166e-12
-2.14128e-12
4.93281e-13
-1.25135e-13
2.42914e-14
-9.15527e-15
-1.66026e-16
-1.51552e-15
-6.52624e-16
-4.82125e-16
-3.87979e-16
-2.75262e-16
-8.54485e-17
-1.40814e-16
-1.62093e-16
-7.89713e-17
-2.82738e-09
6.70204e-10
-1.59196e-10
3.77241e-11
-8.97521e-12
2.12098e-12
-5.09049e-13
1.17806e-13
-2.98969e-14
5.91599e-15
-2.21786e-15
4.28772e-17
-2.65686e-16
-1.68422e-16
-1.92552e-16
-1.2676e-16
-4.4833e-17
-5.26081e-17
-2.35884e-17
-2.13138e-17
)
;

boundaryField
{
    movingWall
    {
        type            calculated;
        value           uniform -0;
    }
    fixedWalls
    {
        type            calculated;
        value           uniform -0;
    }
    frontAndBack
    {
        type            empty;
    }
}


// ************************************************************************* //
