/*--------------------------------*- C++ -*----------------------------------*\
| =========                 |                                                 |
| \\      /  F ield         | OpenFOAM: The Open Source CFD Toolbox           |
|  \\    /   O peration     | Version:  2312                                  |
|   \\  /    A nd           | Website:  www.openfoam.com                      |
|    \\/     M anipulation  |                                                 |
\*---------------------------------------------------------------------------*/
FoamFile
{
    version     2.0;
    format      ascii;
    arch        "LSB;label=32;scalar=64";
    class       volScalarField;
    location    "5";
    object      zeroGradient(epsilon);
}
// * * * * * * * * * * * * * * * * * * * * * * * * * * * * * * * * * * * * * //

dimensions      [0 2 -3 0 0 0 0];

internalField   nonuniform List<scalar> 
400
(
8.76952e-06
8.76948e-06
8.76945e-06
8.76943e-06
8.76941e-06
8.76938e-06
8.76937e-06
8.76935e-06
8.76935e-06
8.76932e-06
8.76933e-06
8.7693e-06
8.76931e-06
8.76929e-06
8.7693e-06
8.76929e-06
8.76929e-06
8.76929e-06
8.76929e-06
8.76929e-06
1.00222e-05
9.78732e-06
9.80626e-06
9.81413e-06
9.82985e-06
9.83817e-06
9.85385e-06
9.8626e-06
9.87825e-06
9.8874e-06
9.90307e-06
9.91257e-06
9.92831e-06
9.93813e-06
9.95397e-06
9.96407e-06
9.98007e-06
9.99041e-06
9.99851e-06
1.00118e-05
1.17647e-05
1.14696e-05
1.14937e-05
1.15036e-05
1.15236e-05
1.15341e-05
1.15539e-05
1.15649e-05
1.15846e-05
1.15961e-05
1.16157e-05
1.16276e-05
1.16473e-05
1.16595e-05
1.16793e-05
1.16918e-05
1.17118e-05
1.17245e-05
1.17346e-05
1.1751e-05
1.33028e-05
1.29535e-05
1.29819e-05
1.29937e-05
1.30172e-05
1.30296e-05
1.30529e-05
1.30659e-05
1.30892e-05
1.31027e-05
1.3126e-05
1.314e-05
1.31633e-05
1.31777e-05
1.32011e-05
1.32159e-05
1.32394e-05
1.32545e-05
1.32664e-05
1.32859e-05
1.43807e-05
1.39916e-05
1.40231e-05
1.40362e-05
1.40623e-05
1.40761e-05
1.4102e-05
1.41165e-05
1.41423e-05
1.41574e-05
1.41832e-05
1.41988e-05
1.42247e-05
1.42408e-05
1.42668e-05
1.42833e-05
1.43095e-05
1.43263e-05
1.43396e-05
1.43613e-05
1.50469e-05
1.46328e-05
1.46662e-05
1.46801e-05
1.47078e-05
1.47225e-05
1.47501e-05
1.47655e-05
1.47929e-05
1.4809e-05
1.48364e-05
1.48531e-05
1.48806e-05
1.48977e-05
1.49254e-05
1.49429e-05
1.49708e-05
1.49887e-05
1.50029e-05
1.5026e-05
1.54381e-05
1.50091e-05
1.50437e-05
1.50581e-05
1.50868e-05
1.5102e-05
1.51305e-05
1.51464e-05
1.51749e-05
1.51915e-05
1.52199e-05
1.52371e-05
1.52656e-05
1.52834e-05
1.5312e-05
1.53302e-05
1.53591e-05
1.53777e-05
1.53923e-05
1.54162e-05
1.56723e-05
1.52343e-05
1.52697e-05
1.52843e-05
1.53136e-05
1.53291e-05
1.53582e-05
1.53745e-05
1.54035e-05
1.54204e-05
1.54494e-05
1.5467e-05
1.54961e-05
1.55142e-05
1.55434e-05
1.5562e-05
1.55915e-05
1.56104e-05
1.56254e-05
1.56498e-05
1.5826e-05
1.53823e-05
1.54181e-05
1.54329e-05
1.54626e-05
1.54783e-05
1.55078e-05
1.55242e-05
1.55536e-05
1.55708e-05
1.56002e-05
1.5618e-05
1.56475e-05
1.56658e-05
1.56954e-05
1.57143e-05
1.57441e-05
1.57633e-05
1.57784e-05
1.58032e-05
1.59431e-05
1.54948e-05
1.5531e-05
1.5546e-05
1.55759e-05
1.55917e-05
1.56215e-05
1.56382e-05
1.56678e-05
1.56852e-05
1.57149e-05
1.57329e-05
1.57626e-05
1.57811e-05
1.58111e-05
1.58301e-05
1.58602e-05
1.58796e-05
1.58949e-05
1.59199e-05
1.60466e-05
1.55945e-05
1.56309e-05
1.5646e-05
1.56762e-05
1.56922e-05
1.57223e-05
1.5739e-05
1.5769e-05
1.57865e-05
1.58164e-05
1.58346e-05
1.58645e-05
1.58833e-05
1.59134e-05
1.59326e-05
1.5963e-05
1.59826e-05
1.5998e-05
1.60232e-05
1.61495e-05
1.56935e-05
1.57302e-05
1.57455e-05
1.57759e-05
1.5792e-05
1.58223e-05
1.58392e-05
1.58694e-05
1.58871e-05
1.59173e-05
1.59356e-05
1.59658e-05
1.59847e-05
1.60151e-05
1.60344e-05
1.60651e-05
1.60849e-05
1.61004e-05
1.61258e-05
1.62591e-05
1.5799e-05
1.58361e-05
1.58514e-05
1.58822e-05
1.58984e-05
1.5929e-05
1.59461e-05
1.59765e-05
1.59943e-05
1.60248e-05
1.60432e-05
1.60738e-05
1.60928e-05
1.61235e-05
1.6143e-05
1.6174e-05
1.61939e-05
1.62096e-05
1.62352e-05
1.63809e-05
1.59161e-05
1.59535e-05
1.59691e-05
1.60001e-05
1.60165e-05
1.60474e-05
1.60646e-05
1.60954e-05
1.61133e-05
1.61441e-05
1.61627e-05
1.61936e-05
1.62128e-05
1.62438e-05
1.62635e-05
1.62948e-05
1.63149e-05
1.63307e-05
1.63566e-05
1.65189e-05
1.60489e-05
1.60867e-05
1.61024e-05
1.61338e-05
1.61504e-05
1.61816e-05
1.6199e-05
1.62301e-05
1.62483e-05
1.62794e-05
1.62983e-05
1.63294e-05
1.63489e-05
1.63802e-05
1.64002e-05
1.64317e-05
1.64521e-05
1.64681e-05
1.64943e-05
1.66761e-05
1.62002e-05
1.62385e-05
1.62544e-05
1.62861e-05
1.63029e-05
1.63345e-05
1.63521e-05
1.63836e-05
1.64021e-05
1.64335e-05
1.64526e-05
1.64842e-05
1.65039e-05
1.65356e-05
1.65558e-05
1.65878e-05
1.66084e-05
1.66246e-05
1.66512e-05
1.68508e-05
1.63683e-05
1.64071e-05
1.64232e-05
1.64554e-05
1.64724e-05
1.65044e-05
1.65223e-05
1.65542e-05
1.65729e-05
1.66048e-05
1.66242e-05
1.66562e-05
1.66761e-05
1.67083e-05
1.67288e-05
1.67612e-05
1.67821e-05
1.67986e-05
1.68255e-05
1.70304e-05
1.65412e-05
1.65805e-05
1.65968e-05
1.66294e-05
1.66466e-05
1.66791e-05
1.66972e-05
1.67296e-05
1.67485e-05
1.67808e-05
1.68005e-05
1.68329e-05
1.68531e-05
1.68858e-05
1.69065e-05
1.69394e-05
1.69607e-05
1.69773e-05
1.70046e-05
1.71852e-05
1.67006e-05
1.67388e-05
1.67546e-05
1.67864e-05
1.68034e-05
1.68351e-05
1.68532e-05
1.68848e-05
1.69038e-05
1.69355e-05
1.69554e-05
1.69872e-05
1.70079e-05
1.704e-05
1.70613e-05
1.70938e-05
1.71157e-05
1.71323e-05
1.71599e-05
1.72526e-05
1.72525e-05
1.72525e-05
1.72524e-05
1.72524e-05
1.72524e-05
1.72523e-05
1.72523e-05
1.72522e-05
1.72523e-05
1.72522e-05
1.72522e-05
1.72522e-05
1.72522e-05
1.72522e-05
1.72522e-05
1.72522e-05
1.72522e-05
1.72522e-05
1.72522e-05
)
;

boundaryField
{
    movingWall
    {
        type            zeroGradient;
    }
    fixedWalls
    {
        type            zeroGradient;
    }
    frontAndBack
    {
        type            empty;
    }
}


// ************************************************************************* //
