/*--------------------------------*- C++ -*----------------------------------*\
| =========                 |                                                 |
| \\      /  F ield         | OpenFOAM: The Open Source CFD Toolbox           |
|  \\    /   O peration     | Version:  2312                                  |
|   \\  /    A nd           | Website:  www.openfoam.com                      |
|    \\/     M anipulation  |                                                 |
\*---------------------------------------------------------------------------*/
FoamFile
{
    version     2.0;
    format      ascii;
    arch        "LSB;label=32;scalar=64";
    class       volVectorField;
    location    "4.375";
    object      diffU;
}
// * * * * * * * * * * * * * * * * * * * * * * * * * * * * * * * * * * * * * //

dimensions      [0 1 -1 0 0 0 0];

internalField   nonuniform List<vector> 
400
(
(0 0 0)
(5.22734e-11 -2.41687e-08 0)
(2.42564e-11 -1.84291e-08 0)
(3.5858e-11 -1.97927e-08 0)
(3.12499e-11 -1.94689e-08 0)
(3.25655e-11 -1.9546e-08 0)
(3.20142e-11 -1.95277e-08 0)
(3.21189e-11 -1.95321e-08 0)
(3.20465e-11 -1.9531e-08 0)
(3.2043e-11 -1.95313e-08 0)
(3.20273e-11 -1.95312e-08 0)
(3.20204e-11 -1.95312e-08 0)
(3.20142e-11 -1.95312e-08 0)
(3.20103e-11 -1.95312e-08 0)
(3.20068e-11 -1.95312e-08 0)
(3.20044e-11 -1.95312e-08 0)
(3.2003e-11 -1.95312e-08 0)
(3.20015e-11 -1.95312e-08 0)
(3.20012e-11 -1.95312e-08 0)
(3.20008e-11 -1.95312e-08 0)
(8.18383e-11 -3.90556e-08 0)
(2.14364e-11 -1.48919e-08 0)
(3.57884e-11 -2.06305e-08 0)
(3.13838e-11 -1.92697e-08 0)
(3.236e-11 -1.95929e-08 0)
(3.20776e-11 -1.95164e-08 0)
(3.21025e-11 -1.95346e-08 0)
(3.20646e-11 -1.95304e-08 0)
(3.20477e-11 -1.95314e-08 0)
(3.20338e-11 -1.95312e-08 0)
(3.20242e-11 -1.95312e-08 0)
(3.20173e-11 -1.95312e-08 0)
(3.20121e-11 -1.95312e-08 0)
(3.20084e-11 -1.95312e-08 0)
(3.20055e-11 -1.95312e-08 0)
(3.2004e-11 -1.95312e-08 0)
(3.20024e-11 -1.95312e-08 0)
(3.20017e-11 -1.95312e-08 0)
(3.20011e-11 -1.95312e-08 0)
(3.20008e-11 -1.95312e-08 0)
(-7.66496e-11 -5.18764e-11 0)
(5.31858e-11 -2.41552e-08 0)
(2.3358e-11 -1.84335e-08 0)
(3.37309e-11 -1.97913e-08 0)
(3.14881e-11 -1.94692e-08 0)
(3.21969e-11 -1.95458e-08 0)
(3.20101e-11 -1.95277e-08 0)
(3.20522e-11 -1.9532e-08 0)
(3.20294e-11 -1.9531e-08 0)
(3.20258e-11 -1.95313e-08 0)
(3.20186e-11 -1.95312e-08 0)
(3.20139e-11 -1.95312e-08 0)
(3.20104e-11 -1.95312e-08 0)
(3.20075e-11 -1.95312e-08 0)
(3.20052e-11 -1.95312e-08 0)
(3.20033e-11 -1.95312e-08 0)
(3.20022e-11 -1.95312e-08 0)
(3.20016e-11 -1.95312e-08 0)
(3.20012e-11 -1.95312e-08 0)
(3.20006e-11 -1.95312e-08 0)
(1.39099e-10 -3.89645e-08 0)
(1.12992e-11 -1.4921e-08 0)
(3.99901e-11 -2.06247e-08 0)
(3.02331e-11 -1.92716e-08 0)
(3.24438e-11 -1.95926e-08 0)
(3.18623e-11 -1.95165e-08 0)
(3.20439e-11 -1.95346e-08 0)
(3.20081e-11 -1.95304e-08 0)
(3.20194e-11 -1.95314e-08 0)
(3.20145e-11 -1.95312e-08 0)
(3.20124e-11 -1.95312e-08 0)
(3.20094e-11 -1.95312e-08 0)
(3.20075e-11 -1.95312e-08 0)
(3.20054e-11 -1.95312e-08 0)
(3.20041e-11 -1.95312e-08 0)
(3.20028e-11 -1.95312e-08 0)
(3.2002e-11 -1.95312e-08 0)
(3.20014e-11 -1.95312e-08 0)
(3.20013e-11 -1.95312e-08 0)
(3.2001e-11 -1.95312e-08 0)
(-6.79738e-11 -1.53841e-10 0)
(5.05554e-11 -2.41265e-08 0)
(2.44265e-11 -1.84411e-08 0)
(3.34253e-11 -1.97896e-08 0)
(3.15152e-11 -1.94698e-08 0)
(3.20949e-11 -1.95457e-08 0)
(3.19607e-11 -1.95277e-08 0)
(3.20068e-11 -1.9532e-08 0)
(3.2001e-11 -1.9531e-08 0)
(3.20054e-11 -1.95312e-08 0)
(3.20047e-11 -1.95312e-08 0)
(3.20048e-11 -1.95312e-08 0)
(3.20043e-11 -1.95312e-08 0)
(3.20036e-11 -1.95312e-08 0)
(3.20028e-11 -1.95312e-08 0)
(3.20022e-11 -1.95312e-08 0)
(3.20017e-11 -1.95312e-08 0)
(3.20012e-11 -1.95312e-08 0)
(3.20008e-11 -1.95312e-08 0)
(3.20008e-11 -1.95312e-08 0)
(1.07152e-10 -3.88607e-08 0)
(1.8437e-11 -1.49479e-08 0)
(3.7223e-11 -2.06183e-08 0)
(3.08571e-11 -1.92734e-08 0)
(3.22193e-11 -1.95923e-08 0)
(3.18792e-11 -1.95167e-08 0)
(3.19929e-11 -1.95346e-08 0)
(3.19818e-11 -1.95304e-08 0)
(3.19946e-11 -1.95314e-08 0)
(3.19971e-11 -1.95312e-08 0)
(3.19997e-11 -1.95312e-08 0)
(3.20004e-11 -1.95312e-08 0)
(3.20011e-11 -1.95312e-08 0)
(3.20013e-11 -1.95312e-08 0)
(3.20016e-11 -1.95312e-08 0)
(3.20014e-11 -1.95312e-08 0)
(3.20012e-11 -1.95312e-08 0)
(3.20008e-11 -1.95312e-08 0)
(3.20008e-11 -1.95312e-08 0)
(3.2001e-11 -1.95312e-08 0)
(-2.34783e-11 -2.48392e-10 0)
(4.13404e-11 -2.41035e-08 0)
(2.81579e-11 -1.84467e-08 0)
(3.26105e-11 -1.97883e-08 0)
(3.17515e-11 -1.94702e-08 0)
(3.20025e-11 -1.95456e-08 0)
(3.19573e-11 -1.95278e-08 0)
(3.19809e-11 -1.9532e-08 0)
(3.19855e-11 -1.9531e-08 0)
(3.19913e-11 -1.95313e-08 0)
(3.19946e-11 -1.95312e-08 0)
(3.19971e-11 -1.95312e-08 0)
(3.19988e-11 -1.95312e-08 0)
(3.19995e-11 -1.95312e-08 0)
(3.2e-11 -1.95312e-08 0)
(3.20004e-11 -1.95312e-08 0)
(3.20008e-11 -1.95312e-08 0)
(3.20011e-11 -1.95312e-08 0)
(3.20008e-11 -1.95312e-08 0)
(3.20008e-11 -1.95312e-08 0)
(6.50452e-11 -3.87771e-08 0)
(2.70319e-11 -1.49674e-08 0)
(3.38694e-11 -2.06137e-08 0)
(3.16227e-11 -1.92745e-08 0)
(3.20006e-11 -1.95921e-08 0)
(3.19353e-11 -1.95168e-08 0)
(3.19653e-11 -1.95346e-08 0)
(3.19738e-11 -1.95304e-08 0)
(3.19818e-11 -1.95314e-08 0)
(3.19877e-11 -1.95312e-08 0)
(3.1992e-11 -1.95312e-08 0)
(3.19946e-11 -1.95312e-08 0)
(3.19964e-11 -1.95312e-08 0)
(3.1998e-11 -1.95312e-08 0)
(3.19986e-11 -1.95312e-08 0)
(3.19997e-11 -1.95312e-08 0)
(3.2e-11 -1.95312e-08 0)
(3.20004e-11 -1.95312e-08 0)
(3.2001e-11 -1.95312e-08 0)
(3.20008e-11 -1.95312e-08 0)
(1.26459e-11 -3.18857e-10 0)
(3.41233e-11 -2.40876e-08 0)
(3.09943e-11 -1.84505e-08 0)
(3.19913e-11 -1.97875e-08 0)
(3.19365e-11 -1.94704e-08 0)
(3.19471e-11 -1.95456e-08 0)
(3.19649e-11 -1.95278e-08 0)
(3.19698e-11 -1.9532e-08 0)
(3.19791e-11 -1.9531e-08 0)
(3.19842e-11 -1.95313e-08 0)
(3.19893e-11 -1.95312e-08 0)
(3.19931e-11 -1.95312e-08 0)
(3.19953e-11 -1.95312e-08 0)
(3.19973e-11 -1.95312e-08 0)
(3.19986e-11 -1.95312e-08 0)
(3.19993e-11 -1.95312e-08 0)
(3.20002e-11 -1.95312e-08 0)
(3.20006e-11 -1.95312e-08 0)
(3.20006e-11 -1.95312e-08 0)
(3.2001e-11 -1.95312e-08 0)
(3.8162e-11 -3.87169e-08 0)
(3.24031e-11 -1.49808e-08 0)
(3.1863e-11 -2.06105e-08 0)
(3.20995e-11 -1.92752e-08 0)
(3.18763e-11 -1.95919e-08 0)
(3.19742e-11 -1.95168e-08 0)
(3.19529e-11 -1.95346e-08 0)
(3.19729e-11 -1.95304e-08 0)
(3.19766e-11 -1.95314e-08 0)
(3.19837e-11 -1.95312e-08 0)
(3.19877e-11 -1.95312e-08 0)
(3.19915e-11 -1.95312e-08 0)
(3.19944e-11 -1.95312e-08 0)
(3.19966e-11 -1.95312e-08 0)
(3.19984e-11 -1.95312e-08 0)
(3.19993e-11 -1.95312e-08 0)
(3.2e-11 -1.95312e-08 0)
(3.20006e-11 -1.95312e-08 0)
(3.20008e-11 -1.95312e-08 0)
(3.20008e-11 -1.95312e-08 0)
(3.23084e-11 -3.70108e-10 0)
(3.01548e-11 -2.40761e-08 0)
(3.24548e-11 -1.84532e-08 0)
(3.16458e-11 -1.97869e-08 0)
(3.2038e-11 -1.94706e-08 0)
(3.192e-11 -1.95456e-08 0)
(3.19731e-11 -1.95278e-08 0)
(3.19664e-11 -1.9532e-08 0)
(3.19784e-11 -1.9531e-08 0)
(3.19826e-11 -1.95313e-08 0)
(3.19875e-11 -1.95312e-08 0)
(3.19913e-11 -1.95312e-08 0)
(3.19937e-11 -1.95312e-08 0)
(3.19964e-11 -1.95312e-08 0)
(3.1998e-11 -1.95312e-08 0)
(3.19993e-11 -1.95312e-08 0)
(3.19997e-11 -1.95312e-08 0)
(3.20002e-11 -1.95312e-08 0)
(3.20008e-11 -1.95312e-08 0)
(3.2001e-11 -1.95312e-08 0)
(2.48452e-11 -3.86706e-08 0)
(3.51693e-11 -1.49914e-08 0)
(3.08882e-11 -2.06081e-08 0)
(3.23575e-11 -1.92758e-08 0)
(3.18114e-11 -1.95918e-08 0)
(3.19986e-11 -1.95169e-08 0)
(3.19493e-11 -1.95346e-08 0)
(3.19755e-11 -1.95304e-08 0)
(3.19766e-11 -1.95314e-08 0)
(3.19833e-11 -1.95312e-08 0)
(3.19873e-11 -1.95312e-08 0)
(3.19909e-11 -1.95312e-08 0)
(3.19935e-11 -1.95312e-08 0)
(3.1996e-11 -1.95312e-08 0)
(3.19975e-11 -1.95312e-08 0)
(3.19988e-11 -1.95312e-08 0)
(3.19997e-11 -1.95312e-08 0)
(3.20004e-11 -1.95312e-08 0)
(3.20006e-11 -1.95312e-08 0)
(3.20008e-11 -1.95312e-08 0)
(4.156e-11 -4.12543e-10 0)
(2.81908e-11 -2.40663e-08 0)
(3.31589e-11 -1.84556e-08 0)
(3.14675e-11 -1.97864e-08 0)
(3.20936e-11 -1.94707e-08 0)
(3.19083e-11 -1.95456e-08 0)
(3.19809e-11 -1.95278e-08 0)
(3.19684e-11 -1.95321e-08 0)
(3.19811e-11 -1.9531e-08 0)
(3.19846e-11 -1.95313e-08 0)
(3.19895e-11 -1.95312e-08 0)
(3.1992e-11 -1.95312e-08 0)
(3.19946e-11 -1.95312e-08 0)
(3.19964e-11 -1.95312e-08 0)
(3.1998e-11 -1.95312e-08 0)
(3.19995e-11 -1.95312e-08 0)
(3.19997e-11 -1.95312e-08 0)
(3.20002e-11 -1.95312e-08 0)
(3.20004e-11 -1.95312e-08 0)
(3.20006e-11 -1.95312e-08 0)
(1.86298e-11 -3.86297e-08 0)
(3.64825e-11 -1.5001e-08 0)
(3.04041e-11 -2.06058e-08 0)
(3.24792e-11 -1.92764e-08 0)
(3.17792e-11 -1.95917e-08 0)
(3.20137e-11 -1.95169e-08 0)
(3.19518e-11 -1.95347e-08 0)
(3.1982e-11 -1.95304e-08 0)
(3.19813e-11 -1.95314e-08 0)
(3.19877e-11 -1.95312e-08 0)
(3.19909e-11 -1.95313e-08 0)
(3.19933e-11 -1.95312e-08 0)
(3.19955e-11 -1.95312e-08 0)
(3.19973e-11 -1.95312e-08 0)
(3.19984e-11 -1.95312e-08 0)
(3.19991e-11 -1.95312e-08 0)
(3.2e-11 -1.95312e-08 0)
(3.20004e-11 -1.95312e-08 0)
(3.20006e-11 -1.95312e-08 0)
(3.2001e-11 -1.95312e-08 0)
(4.49966e-11 -4.51367e-10 0)
(2.75273e-11 -2.40571e-08 0)
(3.33932e-11 -1.84578e-08 0)
(3.14075e-11 -1.97859e-08 0)
(3.21101e-11 -1.94709e-08 0)
(3.19109e-11 -1.95456e-08 0)
(3.19904e-11 -1.95279e-08 0)
(3.19764e-11 -1.95321e-08 0)
(3.19884e-11 -1.95311e-08 0)
(3.19904e-11 -1.95313e-08 0)
(3.19933e-11 -1.95312e-08 0)
(3.19953e-11 -1.95312e-08 0)
(3.19971e-11 -1.95312e-08 0)
(3.19977e-11 -1.95312e-08 0)
(3.19986e-11 -1.95312e-08 0)
(3.19993e-11 -1.95312e-08 0)
(3.19997e-11 -1.95312e-08 0)
(3.20006e-11 -1.95312e-08 0)
(3.2001e-11 -1.95312e-08 0)
(3.20011e-11 -1.95312e-08 0)
(1.61913e-11 -3.8592e-08 0)
(3.67608e-11 -1.501e-08 0)
(3.02296e-11 -2.06037e-08 0)
(3.24915e-11 -1.92769e-08 0)
(3.17812e-11 -1.95916e-08 0)
(3.20257e-11 -1.9517e-08 0)
(3.19644e-11 -1.95347e-08 0)
(3.19933e-11 -1.95305e-08 0)
(3.19906e-11 -1.95314e-08 0)
(3.19953e-11 -1.95312e-08 0)
(3.19966e-11 -1.95313e-08 0)
(3.19975e-11 -1.95312e-08 0)
(3.19982e-11 -1.95312e-08 0)
(3.19993e-11 -1.95312e-08 0)
(3.19997e-11 -1.95312e-08 0)
(3.20002e-11 -1.95312e-08 0)
(3.20002e-11 -1.95312e-08 0)
(3.20006e-11 -1.95312e-08 0)
(3.20008e-11 -1.95312e-08 0)
(3.20008e-11 -1.95312e-08 0)
(4.44785e-11 -4.8667e-10 0)
(2.79163e-11 -2.40486e-08 0)
(3.3254e-11 -1.84599e-08 0)
(3.14677e-11 -1.97855e-08 0)
(3.21055e-11 -1.9471e-08 0)
(3.194e-11 -1.95456e-08 0)
(3.20081e-11 -1.95279e-08 0)
(3.1994e-11 -1.95321e-08 0)
(3.20012e-11 -1.95311e-08 0)
(3.19997e-11 -1.95313e-08 0)
(3.20004e-11 -1.95312e-08 0)
(3.20002e-11 -1.95312e-08 0)
(3.20002e-11 -1.95312e-08 0)
(3.20002e-11 -1.95312e-08 0)
(3.20004e-11 -1.95312e-08 0)
(3.20006e-11 -1.95312e-08 0)
(3.20006e-11 -1.95312e-08 0)
(3.20006e-11 -1.95312e-08 0)
(3.20008e-11 -1.95312e-08 0)
(3.20008e-11 -1.95312e-08 0)
(1.39257e-11 -3.85584e-08 0)
(3.66772e-11 -1.5018e-08 0)
(3.0119e-11 -2.06021e-08 0)
(3.25018e-11 -1.92774e-08 0)
(3.18297e-11 -1.95916e-08 0)
(3.20671e-11 -1.9517e-08 0)
(3.19968e-11 -1.95347e-08 0)
(3.20167e-11 -1.95305e-08 0)
(3.20066e-11 -1.95314e-08 0)
(3.20063e-11 -1.95312e-08 0)
(3.2004e-11 -1.95313e-08 0)
(3.20028e-11 -1.95312e-08 0)
(3.20021e-11 -1.95312e-08 0)
(3.20018e-11 -1.95312e-08 0)
(3.20014e-11 -1.95312e-08 0)
(3.20006e-11 -1.95312e-08 0)
(3.20008e-11 -1.95312e-08 0)
(3.20008e-11 -1.95312e-08 0)
(3.20006e-11 -1.95312e-08 0)
(3.20008e-11 -1.95312e-08 0)
(4.03411e-11 -5.14946e-10 0)
(2.89533e-11 -2.40423e-08 0)
(3.28559e-11 -1.84623e-08 0)
(3.18281e-11 -1.9785e-08 0)
(3.21271e-11 -1.94713e-08 0)
(3.20419e-11 -1.95455e-08 0)
(3.20393e-11 -1.95279e-08 0)
(3.20249e-11 -1.95321e-08 0)
(3.20161e-11 -1.95311e-08 0)
(3.20104e-11 -1.95313e-08 0)
(3.20065e-11 -1.95312e-08 0)
(3.20043e-11 -1.95312e-08 0)
(3.2003e-11 -1.95312e-08 0)
(3.20016e-11 -1.95312e-08 0)
(3.20013e-11 -1.95312e-08 0)
(3.20014e-11 -1.95312e-08 0)
(3.20013e-11 -1.95312e-08 0)
(3.20011e-11 -1.95312e-08 0)
(3.20008e-11 -1.95312e-08 0)
(3.2001e-11 -1.95312e-08 0)
(-4.47931e-12 -3.85352e-08 0)
(5.26239e-11 -1.50222e-08 0)
(2.33533e-11 -2.06018e-08 0)
(3.56096e-11 -1.92773e-08 0)
(3.10303e-11 -1.95916e-08 0)
(3.24599e-11 -1.95169e-08 0)
(3.19387e-11 -1.95347e-08 0)
(3.20699e-11 -1.95304e-08 0)
(3.20107e-11 -1.95314e-08 0)
(3.20172e-11 -1.95312e-08 0)
(3.20081e-11 -1.95313e-08 0)
(3.20063e-11 -1.95312e-08 0)
(3.20037e-11 -1.95312e-08 0)
(3.20027e-11 -1.95312e-08 0)
(3.20017e-11 -1.95312e-08 0)
(3.20012e-11 -1.95312e-08 0)
(3.20011e-11 -1.95312e-08 0)
(3.20008e-11 -1.95312e-08 0)
(3.2001e-11 -1.95312e-08 0)
(3.20011e-11 -1.95312e-08 0)
)
;

boundaryField
{
    movingWall
    {
        type            calculated;
        value           uniform (3.20008e-11 -1.95312e-08 0);
    }
    fixedWalls
    {
        type            calculated;
        value           uniform (3.20008e-11 -1.95312e-08 0);
    }
    frontAndBack
    {
        type            empty;
    }
}


// ************************************************************************* //
