/*--------------------------------*- C++ -*----------------------------------*\
| =========                 |                                                 |
| \\      /  F ield         | OpenFOAM: The Open Source CFD Toolbox           |
|  \\    /   O peration     | Version:  2312                                  |
|   \\  /    A nd           | Website:  www.openfoam.com                      |
|    \\/     M anipulation  |                                                 |
\*---------------------------------------------------------------------------*/
FoamFile
{
    version     2.0;
    format      ascii;
    arch        "LSB;label=32;scalar=64";
    class       volScalarField;
    location    "4.375";
    object      enstrophyField;
}
// * * * * * * * * * * * * * * * * * * * * * * * * * * * * * * * * * * * * * //

dimensions      [0 0 -2 0 0 0 0];

internalField   nonuniform List<scalar> 
400
(
1.10647e-12
1.69995e-12
9.59214e-14
5.44003e-15
3.05313e-16
1.76372e-17
9.51345e-19
6.17722e-20
2.35563e-21
3.61101e-22
3.8895e-25
1.2037e-23
2.73937e-24
1.76525e-24
6.48084e-25
2.8363e-25
9.29378e-26
2.2528e-26
4.64682e-27
3.74601e-28
1.09644e-12
1.69724e-12
9.57846e-14
5.40513e-15
3.05027e-16
1.72119e-17
9.71533e-19
5.47703e-20
3.10315e-21
1.73063e-22
1.01749e-23
4.96384e-25
5.81696e-26
3.30069e-28
7.17188e-27
1.16518e-27
3.11922e-27
1.36842e-26
6.83021e-27
3.39691e-28
1.09492e-12
1.68756e-12
9.5034e-14
5.35131e-15
3.01318e-16
1.6969e-17
9.5515e-19
5.38726e-20
3.0108e-21
1.75725e-22
8.71482e-24
7.77613e-25
4.56872e-28
4.76668e-26
2.01233e-26
1.63361e-26
1.70581e-26
1.15351e-26
1.61929e-26
1.58632e-26
1.09989e-12
1.68223e-12
9.4687e-14
5.32901e-15
2.99927e-16
1.68782e-17
9.50295e-19
5.33944e-20
3.02733e-21
1.65895e-22
1.03067e-23
3.20112e-25
1.12987e-25
1.27317e-26
3.94433e-26
3.66846e-26
3.40749e-26
2.06969e-26
2.21025e-26
1.8313e-26
1.09729e-12
1.67342e-12
9.41617e-14
5.29783e-15
2.98063e-16
1.67717e-17
9.43224e-19
5.31622e-20
2.96925e-21
1.72187e-22
8.3377e-24
7.73868e-25
8.33748e-28
3.99208e-26
2.7443e-26
4.12627e-26
3.78056e-26
2.67622e-26
1.66066e-26
1.6552e-26
1.09382e-12
1.66562e-12
9.37093e-14
5.27154e-15
2.96556e-16
1.66809e-17
9.38937e-19
5.26923e-20
2.99275e-21
1.624e-22
1.07857e-23
2.82934e-25
1.20079e-25
1.94304e-26
2.94708e-26
2.93426e-26
4.79615e-26
4.89753e-26
3.48781e-26
3.12336e-26
1.08822e-12
1.65746e-12
9.32457e-14
5.2453e-15
2.95053e-16
1.65999e-17
9.33194e-19
5.26197e-20
2.93431e-21
1.714e-22
8.17371e-24
9.57404e-25
5.01578e-29
3.65209e-26
1.00558e-26
1.55178e-26
2.45096e-26
2.70012e-26
4.28516e-26
1.91818e-26
1.08312e-12
1.65086e-12
9.28767e-14
5.2246e-15
2.93915e-16
1.65324e-17
9.3054e-19
5.22333e-20
2.96392e-21
1.61317e-22
1.06538e-23
2.57063e-25
1.13789e-25
1.79399e-26
4.38697e-26
4.14864e-26
2.56876e-26
3.06663e-26
2.34842e-26
2.26135e-26
1.07794e-12
1.64476e-12
9.25381e-14
5.20591e-15
2.92866e-16
1.6478e-17
9.26759e-19
5.22317e-20
2.91866e-21
1.68426e-22
8.58607e-24
6.95436e-25
8.43367e-28
5.73248e-26
4.47135e-26
4.94969e-26
6.0057e-26
3.58976e-26
1.15239e-26
2.40709e-26
1.07383e-12
1.63991e-12
9.22714e-14
5.19117e-15
2.92068e-16
1.64311e-17
9.24796e-19
5.1957e-20
2.94436e-21
1.60271e-22
9.93128e-24
3.94311e-25
5.54674e-26
7.43752e-27
3.18729e-26
3.43755e-26
1.58669e-26
1.43962e-26
2.8662e-26
1.14782e-26
1.07012e-12
1.6355e-12
9.20269e-14
5.1777e-15
2.91313e-16
1.63918e-17
9.21992e-19
5.1909e-20
2.9098e-21
1.66468e-22
8.71451e-24
6.19244e-25
1.28606e-26
2.11706e-26
3.05227e-27
7.66268e-27
1.25038e-26
6.08364e-27
4.65533e-27
1.15159e-26
1.06708e-12
1.63163e-12
9.18114e-14
5.16562e-15
2.90647e-16
1.63527e-17
9.2018e-19
5.1732e-20
2.91949e-21
1.62272e-22
9.76762e-24
4.42058e-25
8.36205e-26
3.68511e-31
4.33493e-27
6.23362e-27
8.44819e-27
1.47423e-26
6.08448e-27
6.91359e-27
1.06432e-12
1.62799e-12
9.16071e-14
5.15415e-15
2.89991e-16
1.63166e-17
9.18016e-19
5.16741e-20
2.90091e-21
1.66528e-22
8.60165e-24
5.89775e-25
1.3578e-26
1.21436e-26
2.44164e-27
4.89051e-27
4.13478e-27
3.05657e-27
3.8767e-27
2.49956e-27
1.06167e-12
1.62443e-12
9.14056e-14
5.14271e-15
2.89342e-16
1.62791e-17
9.16087e-19
5.15178e-20
2.90605e-21
1.6284e-22
8.90477e-24
4.59578e-25
4.92053e-26
2.4631e-27
5.11414e-29
4.39955e-27
2.10144e-28
1.70945e-27
6.99821e-27
1.80943e-27
1.05946e-12
1.6212e-12
9.12214e-14
5.13217e-15
2.88744e-16
1.62452e-17
9.14054e-19
5.14191e-20
2.89853e-21
1.62704e-22
8.88639e-24
5.502e-25
2.56903e-26
7.02806e-27
2.18531e-28
3.53617e-27
1.68295e-28
5.94156e-28
2.28137e-28
1.41751e-28
1.0569e-12
1.61781e-12
9.10288e-14
5.12124e-15
2.8812e-16
1.621e-17
9.1194e-19
5.13198e-20
2.88681e-21
1.63435e-22
9.33827e-24
5.18987e-25
1.60481e-26
1.57566e-27
1.03439e-27
1.87819e-27
2.20291e-27
3.29644e-28
1.63497e-29
3.69152e-28
1.05552e-12
1.61516e-12
9.08764e-14
5.11251e-15
2.87618e-16
1.61817e-17
9.10345e-19
5.1215e-20
2.88453e-21
1.61618e-22
9.4281e-24
5.46864e-25
1.19898e-26
3.5094e-27
1.24644e-28
2.88103e-27
2.20312e-28
1.97157e-28
7.45835e-29
1.15252e-28
1.05268e-12
1.61195e-12
9.06949e-14
5.10221e-15
2.87037e-16
1.61481e-17
9.08517e-19
5.11001e-20
2.8725e-21
1.62979e-22
8.74702e-24
5.7436e-25
2.32929e-26
5.06233e-27
1.06509e-27
3.59076e-28
3.27175e-27
1.88543e-27
2.54255e-28
3.62477e-29
1.05468e-12
1.61339e-12
9.09111e-14
5.12198e-15
2.88581e-16
1.62587e-17
9.16165e-19
5.16299e-20
2.90428e-21
1.64031e-22
9.3144e-24
5.21263e-25
3.31027e-26
1.05617e-28
2.38564e-27
3.0811e-28
1.84614e-28
7.52957e-29
1.30734e-28
9.21161e-29
1.0546e-12
1.61119e-12
9.08579e-14
5.13712e-15
2.89214e-16
1.65134e-17
9.15145e-19
5.49575e-20
2.69172e-21
2.21761e-22
4.06117e-24
2.07464e-24
5.79166e-26
7.08104e-26
1.45633e-26
7.46715e-27
2.22973e-27
3.79085e-28
3.16475e-28
1.73853e-27
)
;

boundaryField
{
    movingWall
    {
        type            calculated;
        value           nonuniform List<scalar> 
20
(
1.07178e-12
1.62286e-12
9.20038e-14
5.24921e-15
2.96567e-16
1.72903e-17
9.45816e-19
6.11914e-20
2.5877e-21
3.12149e-22
7.99398e-25
5.50639e-24
4.80179e-25
3.69995e-25
7.62106e-26
1.51585e-26
5.13966e-27
9.23729e-32
9.01525e-28
4.37808e-27
)
;
    }
    fixedWalls
    {
        type            calculated;
        value           nonuniform List<scalar> 
60
(
3.05036e-11
3.04361e-11
3.0311e-11
3.02189e-11
3.00634e-11
2.99247e-11
2.97787e-11
2.966e-11
2.95499e-11
2.94621e-11
2.93821e-11
2.93123e-11
2.92467e-11
2.91828e-11
2.91252e-11
2.90646e-11
2.90174e-11
2.89595e-11
2.89436e-11
2.89135e-11
1.81064e-28
5.08437e-30
8.33635e-27
1.29987e-26
1.27568e-26
2.52488e-26
1.46425e-26
1.55145e-26
2.15804e-26
8.73983e-27
9.48744e-27
7.25252e-27
1.11918e-27
4.03561e-28
2.08704e-29
3.92249e-28
3.0858e-28
6.08209e-30
5.40405e-29
1.80837e-27
1.12827e-12
1.71314e-12
9.71086e-14
5.56791e-15
3.11803e-16
1.86107e-17
9.59866e-19
7.23932e-20
1.77784e-21
6.55726e-22
2.08915e-23
4.15646e-23
1.36779e-23
7.78586e-24
3.07391e-24
1.11994e-24
4.00899e-25
4.99555e-26
1.53861e-26
3.74601e-28
)
;
    }
    frontAndBack
    {
        type            empty;
    }
}


// ************************************************************************* //
