/*--------------------------------*- C++ -*----------------------------------*\
| =========                 |                                                 |
| \\      /  F ield         | OpenFOAM: The Open Source CFD Toolbox           |
|  \\    /   O peration     | Version:  2312                                  |
|   \\  /    A nd           | Website:  www.openfoam.com                      |
|    \\/     M anipulation  |                                                 |
\*---------------------------------------------------------------------------*/
FoamFile
{
    version     2.0;
    format      ascii;
    arch        "LSB;label=32;scalar=64";
    class       volScalarField;
    location    "4.375";
    object      epsilonzeroGrad;
}
// * * * * * * * * * * * * * * * * * * * * * * * * * * * * * * * * * * * * * //

dimensions      [0 2 -3 0 0 0 0];

internalField   nonuniform List<scalar> 
400
(
1.55395e-05
1.55393e-05
1.55393e-05
1.55391e-05
1.55391e-05
1.5539e-05
1.5539e-05
1.55389e-05
1.55389e-05
1.55388e-05
1.55388e-05
1.55388e-05
1.55387e-05
1.55387e-05
1.55387e-05
1.55387e-05
1.55387e-05
1.55387e-05
1.55387e-05
1.55387e-05
1.91484e-05
1.85956e-05
1.86393e-05
1.86572e-05
1.86936e-05
1.87127e-05
1.87491e-05
1.8769e-05
1.88058e-05
1.88264e-05
1.88636e-05
1.8885e-05
1.89225e-05
1.89446e-05
1.89824e-05
1.90054e-05
1.90434e-05
1.90674e-05
1.90865e-05
1.91178e-05
2.4087e-05
2.3324e-05
2.33847e-05
2.34096e-05
2.34599e-05
2.34863e-05
2.35368e-05
2.35642e-05
2.3615e-05
2.36432e-05
2.36945e-05
2.37236e-05
2.37753e-05
2.38054e-05
2.38574e-05
2.38885e-05
2.39407e-05
2.3973e-05
2.39992e-05
2.40418e-05
2.831e-05
2.73556e-05
2.7431e-05
2.74619e-05
2.75245e-05
2.75573e-05
2.76201e-05
2.76542e-05
2.77175e-05
2.77528e-05
2.78166e-05
2.7853e-05
2.79174e-05
2.79551e-05
2.80198e-05
2.80589e-05
2.8124e-05
2.81646e-05
2.81973e-05
2.82505e-05
3.1173e-05
3.00816e-05
3.01673e-05
3.02025e-05
3.02738e-05
3.03112e-05
3.03827e-05
3.04216e-05
3.04937e-05
3.0534e-05
3.06068e-05
3.06484e-05
3.07218e-05
3.07649e-05
3.08388e-05
3.08836e-05
3.09578e-05
3.10043e-05
3.10416e-05
3.11025e-05
3.28951e-05
3.17194e-05
3.18114e-05
3.18492e-05
3.19258e-05
3.19661e-05
3.20429e-05
3.20848e-05
3.21623e-05
3.22057e-05
3.22839e-05
3.23288e-05
3.24077e-05
3.24542e-05
3.25336e-05
3.25819e-05
3.26617e-05
3.27119e-05
3.27521e-05
3.28177e-05
3.38914e-05
3.26663e-05
3.27621e-05
3.28014e-05
3.28811e-05
3.2923e-05
3.30029e-05
3.30466e-05
3.31272e-05
3.31724e-05
3.32538e-05
3.33005e-05
3.33827e-05
3.34311e-05
3.35138e-05
3.35642e-05
3.36473e-05
3.36996e-05
3.37415e-05
3.38098e-05
3.44899e-05
3.32351e-05
3.3333e-05
3.33733e-05
3.34548e-05
3.34977e-05
3.35795e-05
3.36242e-05
3.37068e-05
3.3753e-05
3.38364e-05
3.38842e-05
3.39683e-05
3.40179e-05
3.41026e-05
3.41542e-05
3.42393e-05
3.42929e-05
3.43357e-05
3.44058e-05
3.48919e-05
3.36172e-05
3.37166e-05
3.37575e-05
3.38402e-05
3.38838e-05
3.39669e-05
3.40122e-05
3.40961e-05
3.4143e-05
3.42277e-05
3.42763e-05
3.43617e-05
3.44121e-05
3.44981e-05
3.45505e-05
3.46369e-05
3.46914e-05
3.47349e-05
3.4806e-05
3.52074e-05
3.39172e-05
3.40178e-05
3.40591e-05
3.41429e-05
3.4187e-05
3.4271e-05
3.43169e-05
3.44017e-05
3.44493e-05
3.45349e-05
3.45841e-05
3.46705e-05
3.47216e-05
3.48086e-05
3.48616e-05
3.49491e-05
3.50043e-05
3.50483e-05
3.51203e-05
3.54946e-05
3.41902e-05
3.42919e-05
3.43337e-05
3.44183e-05
3.44628e-05
3.45478e-05
3.45942e-05
3.46799e-05
3.47279e-05
3.48145e-05
3.48643e-05
3.49516e-05
3.50032e-05
3.50911e-05
3.51448e-05
3.52332e-05
3.5289e-05
3.53335e-05
3.54063e-05
3.57849e-05
3.44662e-05
3.4569e-05
3.46112e-05
3.46967e-05
3.47417e-05
3.48276e-05
3.48745e-05
3.49611e-05
3.50097e-05
3.50972e-05
3.51474e-05
3.52357e-05
3.52879e-05
3.53768e-05
3.5431e-05
3.55204e-05
3.55768e-05
3.56218e-05
3.56954e-05
3.60975e-05
3.47634e-05
3.48673e-05
3.491e-05
3.49965e-05
3.5042e-05
3.51289e-05
3.51763e-05
3.52639e-05
3.5313e-05
3.54015e-05
3.54524e-05
3.55417e-05
3.55945e-05
3.56844e-05
3.57393e-05
3.58296e-05
3.58867e-05
3.59322e-05
3.60067e-05
3.64466e-05
3.50953e-05
3.52005e-05
3.52437e-05
3.53313e-05
3.53774e-05
3.54653e-05
3.55134e-05
3.56021e-05
3.56518e-05
3.57414e-05
3.5793e-05
3.58834e-05
3.59369e-05
3.60279e-05
3.60835e-05
3.6175e-05
3.62329e-05
3.6279e-05
3.63544e-05
3.68454e-05
3.54742e-05
3.55809e-05
3.56247e-05
3.57135e-05
3.57603e-05
3.58494e-05
3.58982e-05
3.59881e-05
3.60386e-05
3.61295e-05
3.61818e-05
3.62735e-05
3.63278e-05
3.64201e-05
3.64765e-05
3.65694e-05
3.66281e-05
3.66748e-05
3.67513e-05
3.73054e-05
3.59113e-05
3.60197e-05
3.60642e-05
3.61544e-05
3.6202e-05
3.62926e-05
3.63421e-05
3.64335e-05
3.64849e-05
3.65772e-05
3.66304e-05
3.67235e-05
3.67787e-05
3.68726e-05
3.693e-05
3.70243e-05
3.70841e-05
3.71316e-05
3.72094e-05
3.7829e-05
3.6409e-05
3.65193e-05
3.65646e-05
3.66564e-05
3.67048e-05
3.67971e-05
3.68475e-05
3.69406e-05
3.69929e-05
3.70869e-05
3.71411e-05
3.72359e-05
3.72922e-05
3.73877e-05
3.74462e-05
3.75423e-05
3.76032e-05
3.76516e-05
3.77308e-05
3.83865e-05
3.69391e-05
3.70513e-05
3.70975e-05
3.7191e-05
3.72403e-05
3.73342e-05
3.73856e-05
3.74804e-05
3.75337e-05
3.76295e-05
3.76847e-05
3.77814e-05
3.78387e-05
3.7936e-05
3.79958e-05
3.80936e-05
3.81558e-05
3.82051e-05
3.82859e-05
3.88847e-05
3.74453e-05
3.75547e-05
3.75996e-05
3.76911e-05
3.77398e-05
3.78319e-05
3.7883e-05
3.79763e-05
3.80297e-05
3.81243e-05
3.818e-05
3.82759e-05
3.83341e-05
3.8431e-05
3.84921e-05
3.85899e-05
3.86538e-05
3.87033e-05
3.87852e-05
3.90925e-05
3.90921e-05
3.90919e-05
3.90917e-05
3.90915e-05
3.90913e-05
3.90912e-05
3.9091e-05
3.9091e-05
3.90909e-05
3.90909e-05
3.90908e-05
3.90907e-05
3.90907e-05
3.90907e-05
3.90907e-05
3.90906e-05
3.90906e-05
3.90906e-05
3.90906e-05
)
;

boundaryField
{
    movingWall
    {
        type            zeroGradient;
    }
    fixedWalls
    {
        type            zeroGradient;
    }
    frontAndBack
    {
        type            empty;
    }
}


// ************************************************************************* //
