/*--------------------------------*- C++ -*----------------------------------*\
| =========                 |                                                 |
| \\      /  F ield         | OpenFOAM: The Open Source CFD Toolbox           |
|  \\    /   O peration     | Version:  2312                                  |
|   \\  /    A nd           | Website:  www.openfoam.com                      |
|    \\/     M anipulation  |                                                 |
\*---------------------------------------------------------------------------*/
FoamFile
{
    version     2.0;
    format      ascii;
    arch        "LSB;label=32;scalar=64";
    class       volScalarField;
    location    "4.375";
    object      flowTypeField;
}
// * * * * * * * * * * * * * * * * * * * * * * * * * * * * * * * * * * * * * //

dimensions      [0 0 0 0 0 0 0];

internalField   nonuniform List<scalar> 
400
(
0.00119802
-0.0005259
-0.000896941
-0.00309351
-0.00149433
-0.0108328
0.00881455
-0.0543797
0.123625
-0.359276
0.838016
-0.163103
0.158364
0.059634
0.135938
0.128726
0.194428
0.286834
0.280431
0.315171
0.00515892
5.28937e-05
0.000208333
-0.00204354
-0.000959999
-0.00631142
0.000275802
-0.0202659
0.0222113
-0.0800743
0.218001
0.417005
0.714143
0.963499
0.778959
0.875499
0.732947
0.300927
0.264142
0.682625
0.00389038
0.000567508
0.000973623
0.00114374
0.000362642
0.0037214
-0.00421422
0.0169926
-0.0370707
0.0961368
-0.18067
0.448918
0.962041
0.623402
0.656098
0.585472
0.438155
0.36482
0.167696
-0.401607
-0.000544603
-0.000127599
-0.000234599
-0.000267838
-8.53291e-05
-0.00173224
0.00362723
-0.0140128
0.0353171
-0.125288
0.238011
0.275724
0.58976
0.76382
0.515779
0.418702
0.259215
0.286594
0.041447
-0.0826686
-0.00212119
-0.000376459
-0.000629147
-0.000581072
-0.000904234
-0.00025737
-0.00370303
0.00817112
-0.0334244
0.0856561
-0.438096
0.426072
0.937576
0.615124
0.554216
0.353875
0.27485
0.219669
0.253662
0.131424
-0.00298797
-0.000496969
-0.000857777
-0.00078147
-0.000961365
-0.00159014
0.000290773
-0.00798705
0.0198527
-0.0835425
0.179674
0.074522
0.539505
0.659667
0.526838
0.406111
0.154927
0.0194183
0.00605419
-0.111907
-0.00284112
-0.000467677
-0.000774584
-0.000741374
-0.000898862
-0.000962237
-0.00202612
0.00256071
-0.0170512
0.0506229
-0.20016
0.302829
0.980447
0.574032
0.682744
0.559433
0.393278
0.260586
-0.0952757
0.121405
-0.00244703
-0.000395494
-0.000657558
-0.000603994
-0.000761746
-0.000967021
-0.000549557
-0.00342482
0.00835956
-0.0373148
0.115611
0.142483
0.481082
0.617552
0.363553
0.301779
0.349894
0.150237
0.134001
0.000212915
-0.00182512
-0.000295443
-0.000466191
-0.00046678
-0.000514151
-0.00067966
-0.000914815
0.000278381
-0.00644537
0.024542
-0.0460392
0.305206
0.911564
0.430651
0.329543
0.204807
-0.00719867
-0.0661306
0.28692
-0.140114
-0.00133728
-0.000218899
-0.000339938
-0.000338845
-0.000420373
-0.000467408
-0.000596342
-0.000888022
0.000962429
-0.00537892
0.0678262
0.220975
0.578856
0.739888
0.439956
0.261114
0.31592
0.290438
-0.268981
0.152469
-0.000906065
-0.000152779
-0.000227085
-0.000253117
-0.000267701
-0.000425202
-0.000233379
-0.000658373
0.000367822
0.00280738
0.0305924
0.231567
0.722834
0.627609
0.768812
0.543632
0.31469
0.479057
0.408063
0.0020331
-0.000629399
-0.000108516
-0.000163934
-0.000174952
-0.000229228
-0.000210408
-0.000556766
0.000716465
-0.00336756
0.0120106
-0.00483135
0.27844
0.436335
0.995726
0.72349
0.61174
0.375163
0.0882049
0.23761
0.0177269
-0.000422188
-7.252e-05
-0.00011268
-0.000119184
-0.00013106
-0.000263472
0.000170244
-0.0019305
0.00599405
-0.0232826
0.0999244
0.0598418
0.722846
0.63681
0.780454
0.581204
0.299881
0.441494
0.165911
0.226284
-0.00023218
-3.64702e-05
-5.42676e-05
-5.80325e-05
-6.55516e-05
5.20842e-05
-0.00071696
0.00249157
-0.00990811
0.0326539
-0.0645586
0.314914
0.427946
0.790662
0.952451
0.516729
0.844991
0.482304
-0.0886322
-0.576984
-0.00016402
-1.51422e-05
-4.03371e-05
-1.13623e-05
1.01482e-05
-0.000216155
0.000933358
-0.0036376
0.012176
-0.0427706
0.136224
-0.148347
0.616474
0.610272
0.892811
0.588973
0.860601
0.721622
0.615295
0.637311
3.88807e-05
2.20375e-05
3.32732e-05
6.04473e-05
2.01834e-05
0.0005095
-0.00132189
0.0055885
-0.0173744
0.0490823
-0.197495
0.328798
0.464855
0.819335
0.758563
0.596976
0.466853
0.667427
0.692728
0.0353622
-0.000153086
4.95638e-06
-2.55223e-05
-9.67616e-06
0.000203068
-0.000727751
0.00239288
-0.00724745
0.0203074
-0.0658581
0.139794
-0.841147
0.723274
0.655256
0.915284
0.28209
0.558395
0.614266
0.272451
0.0590126
0.000287399
5.82378e-05
9.40555e-05
0.000358031
-8.95376e-05
0.00179501
-0.00233046
0.00958678
-0.0199439
0.0570691
-0.163741
0.285763
0.283215
0.631765
0.706574
0.76899
0.253562
0.243213
0.000139771
0.668973
-0.00126753
-0.0008884
-0.00158897
-0.00307982
-0.00333902
-0.00693297
-0.00432203
-0.0168366
0.00596839
-0.0602301
0.0990349
-0.115181
0.509134
0.91634
0.496255
0.618328
0.501047
0.634746
0.416884
0.598866
-0.00194041
-0.000978828
-0.00182326
-0.00337237
-0.00343448
-0.00864886
-0.0013279
-0.0286563
0.0358478
-0.138691
0.338969
-0.365975
0.485349
0.0644445
0.230561
0.0620089
0.00149932
0.0994741
0.33575
0.214625
)
;

boundaryField
{
    movingWall
    {
        type            calculated;
        value           nonuniform List<scalar> 
20
(
0.762124
0.266881
0.264927
0.260911
0.26047
0.249642
0.260768
0.214498
0.3131
0.0384745
0.780524
-0.406073
0.258979
-0.0670688
0.0712218
-0.034059
-0.0708555
0.495286
0.191697
0.098078
)
;
    }
    fixedWalls
    {
        type            calculated;
        value           nonuniform List<scalar> 
60
(
0.000229656
0.000984937
0.000751101
-9.55608e-05
-0.000397949
-0.000567171
-0.000541176
-0.000467353
-0.000349003
-0.000255944
-0.000173564
-0.000120617
-8.10069e-05
-4.46152e-05
-3.15987e-05
7.2485e-06
-2.94233e-05
5.48844e-05
-0.000241826
-0.000368332
0.236151
0.930226
0.00584449
-0.105796
0.147197
-0.105341
0.136524
0.000310065
-0.1113
0.170978
0.0489882
0.0169285
0.492945
0.4132
0.892738
0.00749785
0.0241702
0.849393
0.749479
0.380251
0.762482
0.267263
0.265887
0.2606
0.263575
0.245284
0.276247
0.177339
0.439165
-0.221956
0.462588
-0.145918
0.0596057
-0.00781028
0.0243525
0.0182555
0.0400764
0.158441
0.0516831
0.32368
)
;
    }
    frontAndBack
    {
        type            empty;
    }
}


// ************************************************************************* //
