/*--------------------------------*- C++ -*----------------------------------*\
| =========                 |                                                 |
| \\      /  F ield         | OpenFOAM: The Open Source CFD Toolbox           |
|  \\    /   O peration     | Version:  2312                                  |
|   \\  /    A nd           | Website:  www.openfoam.com                      |
|    \\/     M anipulation  |                                                 |
\*---------------------------------------------------------------------------*/
FoamFile
{
    version     2.0;
    format      ascii;
    arch        "LSB;label=32;scalar=64";
    class       surfaceScalarField;
    location    "4.375";
    object      fluxField;
}
// * * * * * * * * * * * * * * * * * * * * * * * * * * * * * * * * * * * * * //

dimensions      [0 3 -1 0 0 0 0];

oriented        oriented;

internalField   nonuniform List<scalar> 
760
(
-5e-05
1.7258e-16
-5e-05
4.63465e-17
-5e-05
7.049e-17
-5e-05
3.09807e-18
-5e-05
1.45454e-17
-5e-05
2.16117e-18
-5e-05
3.35147e-18
-5e-05
1.29981e-18
-5e-05
1.10145e-18
-5e-05
6.55025e-19
-5e-05
4.84235e-19
-5e-05
3.36751e-19
-5e-05
2.45311e-19
-5e-05
1.81308e-19
-5e-05
1.34359e-19
-5e-05
9.71363e-20
-5e-05
6.95241e-20
-5e-05
4.4146e-20
-5e-05
2.25335e-20
4.37818e-21
-5e-05
-1.12433e-15
-5e-05
3.83767e-16
-5e-05
-3.93362e-17
-5e-05
3.67831e-17
-5e-05
8.45051e-18
-5e-05
7.17476e-18
-5e-05
4.23518e-18
-5e-05
2.65861e-18
-5e-05
1.83285e-18
-5e-05
1.23168e-18
-5e-05
8.82414e-19
-5e-05
6.32635e-19
-5e-05
4.60594e-19
-5e-05
3.36518e-19
-5e-05
2.47526e-19
-5e-05
1.81884e-19
-5e-05
1.29282e-19
-5e-05
8.20805e-20
-5e-05
4.31752e-20
7.87087e-21
-5e-05
1.15249e-15
-5e-05
-3.43022e-16
-5e-05
1.07404e-16
-5e-05
-1.20742e-17
-5e-05
1.70326e-17
-5e-05
4.88403e-18
-5e-05
5.20239e-18
-5e-05
3.05957e-18
-5e-05
2.28948e-18
-5e-05
1.58337e-18
-5e-05
1.16039e-18
-5e-05
8.48298e-19
-5e-05
6.28527e-19
-5e-05
4.64402e-19
-5e-05
3.42037e-19
-5e-05
2.49163e-19
-5e-05
1.74921e-19
-5e-05
1.10618e-19
-5e-05
5.89806e-20
1.30653e-20
-5e-05
-1.39663e-15
-5e-05
3.75705e-16
-5e-05
-8.20757e-17
-5e-05
3.10505e-17
-5e-05
1.48656e-18
-5e-05
7.05637e-18
-5e-05
3.94727e-18
-5e-05
3.2646e-18
-5e-05
2.32943e-18
-5e-05
1.74218e-18
-5e-05
1.29519e-18
-5e-05
9.70725e-19
-5e-05
7.30197e-19
-5e-05
5.50384e-19
-5e-05
4.09599e-19
-5e-05
2.99625e-19
-5e-05
2.09078e-19
-5e-05
1.31737e-19
-5e-05
7.32708e-20
2.00604e-20
-5e-05
1.19785e-15
-5e-05
-2.9742e-16
-5e-05
7.84276e-17
-5e-05
-1.23716e-17
-5e-05
9.71164e-18
-5e-05
3.37049e-18
-5e-05
3.90227e-18
-5e-05
2.78966e-18
-5e-05
2.23339e-18
-5e-05
1.70392e-18
-5e-05
1.31357e-18
-5e-05
1.00125e-18
-5e-05
7.63706e-19
-5e-05
5.84013e-19
-5e-05
4.40495e-19
-5e-05
3.29224e-19
-5e-05
2.33576e-19
-5e-05
1.4917e-19
-5e-05
8.3942e-20
2.40279e-20
-5e-05
-1.16591e-15
-5e-05
2.77895e-16
-5e-05
-6.25953e-17
-5e-05
1.93139e-17
-5e-05
1.34282e-19
-5e-05
4.29431e-18
-5e-05
2.73637e-18
-5e-05
2.46573e-18
-5e-05
1.94527e-18
-5e-05
1.56446e-18
-5e-05
1.23258e-18
-5e-05
9.60129e-19
-5e-05
7.42657e-19
-5e-05
5.75843e-19
-5e-05
4.4285e-19
-5e-05
3.37393e-19
-5e-05
2.43377e-19
-5e-05
1.5718e-19
-5e-05
8.67098e-20
2.47403e-20
-5e-05
9.25296e-16
-5e-05
-2.09858e-16
-5e-05
5.22669e-17
-5e-05
-8.93015e-18
-5e-05
5.34935e-18
-5e-05
1.9367e-18
-5e-05
2.42206e-18
-5e-05
1.92126e-18
-5e-05
1.64264e-18
-5e-05
1.34376e-18
-5e-05
1.09107e-18
-5e-05
8.68519e-19
-5e-05
6.87217e-19
-5e-05
5.41696e-19
-5e-05
4.23219e-19
-5e-05
3.23769e-19
-5e-05
2.32625e-19
-5e-05
1.50767e-19
-5e-05
8.55104e-20
2.3399e-20
-5e-05
-8.36342e-16
-5e-05
1.87466e-16
-5e-05
-4.25554e-17
-5e-05
1.16524e-17
-5e-05
-3.69207e-19
-5e-05
2.34235e-18
-5e-05
1.58361e-18
-5e-05
1.52672e-18
-5e-05
1.28673e-18
-5e-05
1.09456e-18
-5e-05
9.11033e-19
-5e-05
7.4615e-19
-5e-05
6.05716e-19
-5e-05
4.87871e-19
-5e-05
3.85619e-19
-5e-05
2.91624e-19
-5e-05
2.07844e-19
-5e-05
1.34763e-19
-5e-05
7.89435e-20
2.22998e-20
-5e-05
6.69089e-16
-5e-05
-1.48324e-16
-5e-05
3.58597e-17
-5e-05
-6.88641e-18
-5e-05
3.00451e-18
-5e-05
7.98133e-19
-5e-05
1.26513e-18
-5e-05
1.05037e-18
-5e-05
9.5756e-19
-5e-05
8.2413e-19
-5e-05
7.02804e-19
-5e-05
5.96848e-19
-5e-05
5.01227e-19
-5e-05
4.15222e-19
-5e-05
3.31877e-19
-5e-05
2.50236e-19
-5e-05
1.80891e-19
-5e-05
1.19058e-19
-5e-05
7.14838e-20
2.12477e-20
-5e-05
-6.12168e-16
-5e-05
1.38241e-16
-5e-05
-3.19335e-17
-5e-05
7.97567e-18
-5e-05
-1.05493e-18
-5e-05
1.07948e-18
-5e-05
6.00108e-19
-5e-05
6.85608e-19
-5e-05
6.1701e-19
-5e-05
5.59107e-19
-5e-05
4.90639e-19
-5e-05
4.34413e-19
-5e-05
3.80222e-19
-5e-05
3.23478e-19
-5e-05
2.64407e-19
-5e-05
2.06944e-19
-5e-05
1.54355e-19
-5e-05
1.02546e-19
-5e-05
6.40286e-20
1.85666e-20
-5e-05
5.44387e-16
-5e-05
-1.25732e-16
-5e-05
2.94458e-17
-5e-05
-6.85123e-18
-5e-05
1.73633e-18
-5e-05
-1.78933e-19
-5e-05
3.34783e-19
-5e-05
2.63285e-19
-5e-05
3.05704e-19
-5e-05
2.99312e-19
-5e-05
2.88498e-19
-5e-05
2.71928e-19
-5e-05
2.52125e-19
-5e-05
2.23337e-19
-5e-05
1.94121e-19
-5e-05
1.60198e-19
-5e-05
1.21705e-19
-5e-05
8.13903e-20
-5e-05
5.12012e-20
1.61366e-20
-5e-05
-5.165e-16
-5e-05
1.20056e-16
-5e-05
-2.8735e-17
-5e-05
6.31135e-18
-5e-05
-1.91649e-18
-5e-05
9.45186e-20
-5e-05
-2.60845e-19
-5e-05
-6.05514e-20
-5e-05
-5.79703e-21
-5e-05
5.47478e-20
-5e-05
9.13725e-20
-5e-05
1.15451e-19
-5e-05
1.29462e-19
-5e-05
1.2895e-19
-5e-05
1.24597e-19
-5e-05
1.0853e-19
-5e-05
8.55109e-20
-5e-05
6.00759e-20
-5e-05
3.65891e-20
1.04843e-20
-5e-05
5.0494e-16
-5e-05
-1.18963e-16
-5e-05
2.72997e-17
-5e-05
-7.45877e-18
-5e-05
6.7011e-19
-5e-05
-1.11477e-18
-5e-05
-5.22316e-19
-5e-05
-4.60572e-19
-5e-05
-2.9162e-19
-5e-05
-1.79266e-19
-5e-05
-8.49224e-20
-5e-05
-2.11958e-20
-5e-05
1.87667e-20
-5e-05
4.32196e-20
-5e-05
5.83389e-20
-5e-05
6.21592e-20
-5e-05
5.7065e-20
-5e-05
4.1076e-20
-5e-05
2.29006e-20
3.03851e-21
-5e-05
-4.65655e-16
-5e-05
1.1112e-16
-5e-05
-2.78143e-17
-5e-05
4.81319e-18
-5e-05
-3.00107e-18
-5e-05
-9.54293e-19
-5e-05
-1.13619e-18
-5e-05
-7.74434e-19
-5e-05
-5.71404e-19
-5e-05
-3.78971e-19
-5e-05
-2.37474e-19
-5e-05
-1.36115e-19
-5e-05
-7.03074e-20
-5e-05
-2.23475e-20
-5e-05
5.69117e-21
-5e-05
2.23882e-20
-5e-05
2.84465e-20
-5e-05
2.18496e-20
-5e-05
1.1987e-20
4.85347e-22
-5e-05
4.78227e-16
-5e-05
-1.13633e-16
-5e-05
2.42482e-17
-5e-05
-8.70699e-18
-5e-05
-9.31598e-19
-5e-05
-2.27937e-18
-5e-05
-1.44602e-18
-5e-05
-1.12947e-18
-5e-05
-7.84835e-19
-5e-05
-5.3531e-19
-5e-05
-3.54585e-19
-5e-05
-2.22962e-19
-5e-05
-1.31739e-19
-5e-05
-6.87811e-20
-5e-05
-3.21481e-20
-5e-05
-1.08397e-20
-5e-05
-7.32042e-22
-5e-05
4.25786e-21
-5e-05
3.8454e-21
3.47304e-22
-5e-05
-4.04361e-16
-5e-05
9.74293e-17
-5e-05
-2.84004e-17
-5e-05
1.83407e-18
-5e-05
-5.05566e-18
-5e-05
-2.29804e-18
-5e-05
-2.0554e-18
-5e-05
-1.33983e-18
-5e-05
-9.50347e-19
-5e-05
-6.29058e-19
-5e-05
-4.16932e-19
-5e-05
-2.64732e-19
-5e-05
-1.66185e-19
-5e-05
-1.014e-19
-5e-05
-5.78989e-20
-5e-05
-2.86271e-20
-5e-05
-1.35866e-20
-5e-05
-6.09209e-21
-5e-05
-2.20311e-21
-1.60916e-21
-5e-05
4.35261e-16
-5e-05
-1.04912e-16
-5e-05
1.1861e-17
-5e-05
-1.11884e-17
-5e-05
-4.34348e-18
-5e-05
-3.36895e-18
-5e-05
-2.23742e-18
-5e-05
-1.4375e-18
-5e-05
-9.78789e-19
-5e-05
-6.32124e-19
-5e-05
-4.11031e-19
-5e-05
-2.6014e-19
-5e-05
-1.67369e-19
-5e-05
-1.0598e-19
-5e-05
-6.15146e-20
-5e-05
-3.06257e-20
-5e-05
-1.53558e-20
-5e-05
-1.17196e-20
-5e-05
-5.4145e-21
-3.02875e-21
-5e-05
-2.71622e-16
-5e-05
5.37852e-17
-5e-05
-4.78922e-17
-5e-05
1.5161e-18
-5e-05
-1.00681e-17
-5e-05
-1.83212e-18
-5e-05
-2.56083e-18
-5e-05
-1.08736e-18
-5e-05
-8.66689e-19
-5e-05
-5.01708e-19
-5e-05
-3.39139e-19
-5e-05
-2.10829e-19
-5e-05
-1.36718e-19
-5e-05
-8.5266e-20
-5e-05
-4.69428e-20
-5e-05
-2.25776e-20
-5e-05
-1.35551e-20
-5e-05
-1.08917e-20
-5e-05
-5.51023e-21
-2.52039e-21
-5e-05
3.08158e-16
-5e-05
-5.11973e-17
-5e-05
-3.97229e-17
-5e-05
5.68583e-18
-5e-05
-1.05484e-17
-5e-05
2.21222e-19
-5e-05
-2.10798e-18
-5e-05
-4.5095e-19
-5e-05
-5.5567e-19
-5e-05
-2.62228e-19
-5e-05
-1.98278e-19
-5e-05
-1.19311e-19
-5e-05
-7.98184e-20
-5e-05
-5.12143e-20
-5e-05
-2.95375e-20
-5e-05
-1.16081e-20
-5e-05
-6.33256e-21
-5e-05
-3.66201e-21
-5e-05
-3.15721e-21
-1.41488e-21
-5e-05
-5e-05
-5e-05
-5e-05
-5e-05
-5e-05
-5e-05
-5e-05
-5e-05
-5e-05
-5e-05
-5e-05
-5e-05
-5e-05
-5e-05
-5e-05
-5e-05
-5e-05
-5e-05
)
;

boundaryField
{
    movingWall
    {
        type            calculated;
        value           uniform -0;
    }
    fixedWalls
    {
        type            calculated;
        value           nonuniform List<scalar> 
60
(
5e-05
5e-05
5e-05
5e-05
5e-05
5e-05
5e-05
5e-05
5e-05
5e-05
5e-05
5e-05
5e-05
5e-05
5e-05
5e-05
5e-05
5e-05
5e-05
5e-05
-5e-05
-5e-05
-5e-05
-5e-05
-5e-05
-5e-05
-5e-05
-5e-05
-5e-05
-5e-05
-5e-05
-5e-05
-5e-05
-5e-05
-5e-05
-5e-05
-5e-05
-5e-05
-5e-05
-5e-05
0
0
0
0
0
0
0
0
0
0
0
0
0
0
0
0
0
0
0
0
)
;
    }
    frontAndBack
    {
        type            empty;
        value           nonuniform List<scalar> 0();
    }
}


// ************************************************************************* //
