/*--------------------------------*- C++ -*----------------------------------*\
| =========                 |                                                 |
| \\      /  F ield         | OpenFOAM: The Open Source CFD Toolbox           |
|  \\    /   O peration     | Version:  2312                                  |
|   \\  /    A nd           | Website:  www.openfoam.com                      |
|    \\/     M anipulation  |                                                 |
\*---------------------------------------------------------------------------*/
FoamFile
{
    version     2.0;
    format      ascii;
    arch        "LSB;label=32;scalar=64";
    class       volScalarField;
    location    "4.375";
    object      Lambda2Field;
}
// * * * * * * * * * * * * * * * * * * * * * * * * * * * * * * * * * * * * * //

dimensions      [0 0 -2 0 0 0 0];

internalField   nonuniform List<scalar> 
400
(
2.65794e-15
-1.7832e-15
0
-3.32058e-17
0
-3.71097e-19
1.79776e-20
-6.03489e-21
7.77444e-22
-1.38855e-22
2.44209e-23
-2.87763e-24
1.24676e-24
2.33371e-25
2.69543e-25
9.28097e-26
5.38641e-26
2.311e-26
4.32485e-27
3.06696e-28
1.14248e-14
1.69874e-16
4.03251e-17
-2.19515e-17
0
-2.14416e-19
5.30796e-22
-2.13241e-21
1.44596e-22
-2.35749e-23
7.30991e-24
1.17577e-24
1.02575e-24
4.66679e-25
2.22677e-25
1.30704e-25
6.00545e-26
1.46177e-26
6.61216e-27
4.5469e-27
8.58277e-15
1.8718e-15
1.87136e-16
1.19577e-17
2.29878e-19
1.25923e-19
0
1.89416e-21
0
4.09569e-23
0
2.25935e-24
6.24366e-25
4.18824e-25
2.12055e-25
1.03776e-25
4.89512e-26
1.77848e-26
1.17549e-26
-6.28542e-27
0
-3.84212e-16
0
-2.58324e-18
0
-5.75106e-20
7.03788e-21
-1.45264e-21
2.29977e-22
-3.27826e-23
8.42511e-24
3.24187e-25
7.83052e-25
3.48471e-25
1.67433e-25
8.18655e-26
2.88455e-26
2.1104e-26
7.34684e-28
-1.51393e-27
0
-1.21994e-15
0
-5.9135e-18
0
-7.74451e-21
0
8.76814e-22
0
3.52245e-23
0
1.99654e-24
4.14981e-25
3.28715e-25
1.55337e-25
6.90547e-26
4.07267e-26
1.84192e-26
1.5757e-26
5.66632e-27
0
-1.63208e-15
0
-8.10907e-18
0
-5.26326e-20
5.87965e-22
-8.27606e-22
1.24139e-22
-2.31039e-23
5.75258e-24
4.49391e-26
6.14696e-25
2.19872e-25
1.39274e-25
6.69138e-26
2.04631e-26
1.0266e-27
7.34684e-28
-5.30511e-27
0
-1.53744e-15
0
-7.70774e-18
0
-3.1717e-20
0
2.69196e-22
0
1.9244e-23
0
1.17829e-24
2.82354e-25
2.26005e-25
1.37792e-25
8.81901e-26
5.49849e-26
2.55085e-26
0
6.04365e-27
0
-1.30118e-15
0
-6.28956e-18
0
-3.19075e-20
0
-3.5522e-22
5.03736e-23
-1.11682e-23
3.1391e-24
8.61023e-26
4.1642e-25
1.52071e-25
7.68779e-26
4.6568e-26
3.92683e-26
1.15456e-26
9.54768e-27
0
0
-9.7051e-16
0
-4.85381e-18
0
-2.23534e-20
0
2.82749e-23
0
8.57955e-24
0
8.63721e-25
1.98432e-25
1.32912e-25
6.61697e-26
2.76299e-26
2.51798e-27
-2.5815e-27
1.41074e-26
-5.19478e-27
0
-7.17178e-16
0
-3.51385e-18
0
-1.53171e-20
0
-9.03343e-23
5.33841e-24
-1.65023e-24
1.49947e-24
2.70674e-25
3.61207e-25
1.5965e-25
9.00941e-26
2.99877e-26
1.92079e-26
9.69628e-27
0
4.84147e-27
0
-4.99028e-16
0
-2.61891e-18
0
-1.39193e-20
0
-6.6967e-23
2.73376e-24
8.00071e-25
5.93608e-25
4.85691e-25
2.31609e-25
1.66762e-25
8.64338e-26
3.60983e-26
1.16332e-26
1.60791e-26
1.11083e-26
0
0
-3.53738e-16
0
-1.80396e-18
0
-6.78437e-21
0
7.14734e-23
0
3.91323e-24
0
4.71719e-25
2.45492e-25
1.24162e-25
7.95037e-26
4.2712e-26
1.17549e-26
8.99199e-28
6.45844e-27
0
0
-2.35985e-16
0
-1.22414e-18
0
-8.54152e-21
3.30401e-22
-1.97466e-22
3.58663e-23
-7.32074e-24
2.16166e-24
4.95533e-26
2.56094e-25
1.14841e-25
7.23935e-26
3.1982e-26
0
5.77594e-27
7.34684e-28
8.87028e-28
0
-1.18208e-16
0
-5.88575e-19
0
1.54709e-21
0
2.54508e-22
0
1.12344e-23
0
6.05709e-25
1.34532e-25
8.81494e-26
4.78611e-26
1.62207e-26
1.32094e-26
5.91445e-27
0
-7.91573e-28
0
-4.88266e-17
0
-1.09854e-19
7.09308e-21
-6.96256e-21
1.73004e-21
-3.70387e-22
7.29272e-23
-1.27235e-23
3.25487e-24
-1.01548e-25
2.1599e-25
4.89547e-26
3.39009e-26
2.46353e-26
1.37064e-26
4.75182e-27
1.17464e-27
3.04894e-31
7.65716e-17
7.06793e-17
6.127e-18
6.08054e-19
1.25791e-20
1.63675e-20
0
5.77037e-22
0
1.76515e-23
0
7.53473e-25
5.19169e-26
7.62167e-26
2.56637e-26
1.29996e-26
7.49714e-27
1.71394e-27
0
0
0
1.57084e-17
0
-9.36959e-20
1.17971e-19
-2.34798e-20
4.39206e-21
-7.31522e-22
1.22234e-22
-1.87332e-23
3.56861e-24
-2.70125e-25
2.28264e-25
3.90721e-26
3.32753e-26
2.85609e-27
1.30365e-27
5.06708e-28
0
0
6.02323e-16
1.86665e-16
1.71225e-17
3.64277e-18
0
5.80596e-20
0
9.98327e-22
0
2.08235e-23
0
6.39971e-25
2.15778e-26
4.57514e-26
1.42951e-26
9.88582e-27
2.98462e-27
1.61881e-27
0
5.039e-28
0
-2.8614e-15
0
-3.13536e-17
0
-2.22344e-19
0
-1.68087e-21
3.53829e-23
-1.75445e-23
2.30878e-24
-9.16204e-26
1.44329e-25
2.63463e-26
7.41795e-27
2.14222e-27
7.34684e-28
7.34684e-28
2.96396e-28
3.86336e-28
0
-3.14413e-15
0
-3.41217e-17
0
-2.7664e-19
0
-2.95235e-21
2.18958e-22
-4.69287e-23
6.57614e-24
-7.94178e-25
2.2084e-25
7.46474e-27
1.36047e-26
0
5.33093e-29
0
3.70487e-28
0
)
;

boundaryField
{
    movingWall
    {
        type            calculated;
        value           nonuniform List<scalar> 
20
(
0
0
0
0
0
0
0
0
3.27608e-22
0
1.31577e-23
-2.22642e-24
3.45658e-25
-4.34778e-26
5.8828e-27
0
0
0
7.08735e-28
0
)
;
    }
    fixedWalls
    {
        type            calculated;
        value           nonuniform List<scalar> 
60
(
1.40988e-14
5.98884e-14
4.65047e-14
-4.90876e-15
0
-3.34993e-14
0
-2.7635e-14
0
-1.50635e-14
0
-7.06449e-15
0
-2.597e-15
0
4.07592e-16
0
3.15706e-15
0
-2.11781e-14
0
2.76587e-27
5.38861e-28
-1.6635e-27
5.06416e-27
-3.38412e-27
5.37314e-27
0
0
4.31826e-27
1.97215e-27
0
1.44662e-27
6.89307e-29
1.07401e-29
0
0
6.40149e-28
4.99469e-28
0
0
0
0
0
0
0
9.40497e-21
0
1.4791e-21
-6.725e-23
4.84519e-23
-8.40891e-24
1.53221e-24
-1.112e-25
1.6039e-25
3.66483e-26
2.98774e-26
2.20451e-26
9.90865e-28
3.62129e-28
)
;
    }
    frontAndBack
    {
        type            empty;
    }
}


// ************************************************************************* //
