/*--------------------------------*- C++ -*----------------------------------*\
| =========                 |                                                 |
| \\      /  F ield         | OpenFOAM: The Open Source CFD Toolbox           |
|  \\    /   O peration     | Version:  2312                                  |
|   \\  /    A nd           | Website:  www.openfoam.com                      |
|    \\/     M anipulation  |                                                 |
\*---------------------------------------------------------------------------*/
FoamFile
{
    version     2.0;
    format      ascii;
    arch        "LSB;label=32;scalar=64";
    class       volScalarField;
    location    "4.375";
    object      p;
}
// * * * * * * * * * * * * * * * * * * * * * * * * * * * * * * * * * * * * * //

dimensions      [0 2 -2 0 0 0 0];

internalField   nonuniform List<scalar> 
400
(
2.37731e-16
0
2.51825e-12
2.05969e-13
6.5936e-13
2.90388e-13
2.98251e-13
2.35813e-13
2.19872e-13
2.02733e-13
1.93718e-13
1.86831e-13
1.82205e-13
1.79211e-13
1.76962e-13
1.75119e-13
1.73786e-13
1.72822e-13
1.72296e-13
1.7159e-13
4.9921e-13
2.28091e-12
4.41077e-13
3.4858e-13
3.15744e-13
2.74012e-13
2.50653e-13
2.25103e-13
2.09775e-13
1.97948e-13
1.90241e-13
1.84749e-13
1.81e-13
1.78299e-13
1.76109e-13
1.74506e-13
1.73303e-13
1.72526e-13
1.72043e-13
1.71429e-13
0
0
0
0
2.48607e-13
1.93436e-13
2.14168e-13
2.00619e-13
1.95549e-13
1.89109e-13
1.84697e-13
1.80942e-13
1.78322e-13
1.76484e-13
1.74859e-13
1.73458e-13
1.72435e-13
1.71905e-13
1.7153e-13
1.712e-13
1.37959e-12
6.72782e-12
1.78423e-13
3.2218e-13
6.78611e-14
1.63937e-13
1.68942e-13
1.79676e-13
1.79734e-13
1.79387e-13
1.77791e-13
1.76248e-13
1.74889e-13
1.74024e-13
1.72973e-13
1.7211e-13
1.71383e-13
1.70967e-13
1.70803e-13
1.70914e-13
0
0
0
0
1.62179e-13
1.27037e-13
1.56291e-13
1.60657e-13
1.67344e-13
1.69855e-13
1.71045e-13
1.71258e-13
1.71305e-13
1.71384e-13
1.71073e-13
1.70634e-13
1.7032e-13
1.70199e-13
1.70133e-13
1.70193e-13
2.0779e-12
4.74259e-12
1.90057e-13
2.164e-13
5.60006e-14
1.23317e-13
1.35134e-13
1.49812e-13
1.56989e-13
1.62145e-13
1.65083e-13
1.66904e-13
1.67824e-13
1.68542e-13
1.69095e-13
1.69135e-13
1.69063e-13
1.69209e-13
1.69323e-13
1.69532e-13
0
0
0
0
1.2126e-13
1.13116e-13
1.31938e-13
1.41221e-13
1.50145e-13
1.56069e-13
1.59982e-13
1.62942e-13
1.64902e-13
1.66209e-13
1.67387e-13
1.6779e-13
1.67833e-13
1.6835e-13
1.68709e-13
1.68808e-13
2.23623e-12
2.0345e-12
2.3107e-13
1.17586e-13
8.64726e-14
1.11295e-13
1.25858e-13
1.36961e-13
1.45448e-13
1.51851e-13
1.5644e-13
1.6e-13
1.62601e-13
1.64417e-13
1.65872e-13
1.66682e-13
1.67026e-13
1.67559e-13
1.67935e-13
1.68182e-13
0
0
0
7.68514e-14
1.00871e-13
1.15483e-13
1.2451e-13
1.34921e-13
1.42851e-13
1.49291e-13
1.53893e-13
1.57987e-13
1.60895e-13
1.62939e-13
1.64609e-13
1.65638e-13
1.66439e-13
1.6713e-13
1.67493e-13
1.67804e-13
2.09492e-12
4.19768e-13
2.92562e-13
6.94367e-14
1.12165e-13
1.10051e-13
1.25712e-13
1.33603e-13
1.41896e-13
1.48002e-13
1.52856e-13
1.56716e-13
1.59798e-13
1.62009e-13
1.6363e-13
1.65024e-13
1.6592e-13
1.66563e-13
1.67081e-13
1.67193e-13
0
1.04112e-13
0
1.27755e-13
9.17296e-14
1.20894e-13
1.24262e-13
1.34814e-13
1.41412e-13
1.4776e-13
1.52524e-13
1.56335e-13
1.59375e-13
1.61522e-13
1.63305e-13
1.64723e-13
1.65486e-13
1.66378e-13
1.66599e-13
1.66967e-13
2.06875e-12
0
3.56053e-13
4.82374e-14
1.27768e-13
1.11654e-13
1.28836e-13
1.34798e-13
1.42745e-13
1.48415e-13
1.53109e-13
1.56708e-13
1.59592e-13
1.61835e-13
1.63296e-13
1.64569e-13
1.65456e-13
1.66313e-13
1.66462e-13
1.66563e-13
0
6.02695e-13
0
1.50658e-13
8.74106e-14
1.26191e-13
1.27549e-13
1.38176e-13
1.44145e-13
1.49945e-13
1.54391e-13
1.57956e-13
1.60332e-13
1.62361e-13
1.63657e-13
1.64858e-13
1.65807e-13
1.66264e-13
1.66483e-13
1.66535e-13
2.09927e-12
0
3.75445e-13
3.03566e-14
1.34912e-13
1.1482e-13
1.34629e-13
1.40159e-13
1.47437e-13
1.52352e-13
1.56316e-13
1.59328e-13
1.6139e-13
1.63159e-13
1.64404e-13
1.65429e-13
1.65941e-13
1.66325e-13
1.66536e-13
1.66832e-13
0
7.88216e-13
0
1.51223e-13
8.67553e-14
1.32599e-13
1.35508e-13
1.46295e-13
1.51161e-13
1.55943e-13
1.58708e-13
1.61168e-13
1.62972e-13
1.64272e-13
1.65378e-13
1.66172e-13
1.66371e-13
1.6663e-13
1.66773e-13
1.67155e-13
1.96607e-12
0
3.38971e-13
1.66866e-14
1.41624e-13
1.25581e-13
1.47325e-13
1.5181e-13
1.57329e-13
1.59984e-13
1.62027e-13
1.63735e-13
1.64677e-13
1.65421e-13
1.66294e-13
1.67118e-13
1.67015e-13
1.66962e-13
1.67219e-13
1.67314e-13
0
7.41853e-13
0
1.40469e-13
1.0629e-13
1.51604e-13
1.556e-13
1.62462e-13
1.64108e-13
1.65233e-13
1.65757e-13
1.66173e-13
1.66539e-13
1.66918e-13
1.67301e-13
1.67617e-13
1.67506e-13
1.67291e-13
1.67537e-13
1.67568e-13
1.53111e-12
0
2.98851e-13
2.49751e-14
1.91417e-13
1.6285e-13
1.78263e-13
1.72842e-13
1.72529e-13
1.70417e-13
1.69524e-13
1.68676e-13
1.68224e-13
1.68094e-13
1.68252e-13
1.68233e-13
1.67863e-13
1.67548e-13
1.67717e-13
1.67854e-13
0
0
2.249e-13
1.83104e-13
2.4185e-13
2.03659e-13
1.98823e-13
1.85324e-13
1.79855e-13
1.75093e-13
1.72288e-13
1.70463e-13
1.69602e-13
1.69091e-13
1.68636e-13
1.68535e-13
1.68111e-13
1.67926e-13
1.67822e-13
1.68006e-13
5.94452e-13
0
2.04437e-12
0
4.88257e-13
1.84561e-13
2.30437e-13
1.88227e-13
1.85734e-13
1.77124e-13
1.74091e-13
1.71499e-13
1.70217e-13
1.69549e-13
1.69067e-13
1.68746e-13
1.68362e-13
1.67958e-13
1.67859e-13
1.68069e-13
)
;

boundaryField
{
    movingWall
    {
        type            zeroGradient;
    }
    fixedWalls
    {
        type            zeroGradient;
    }
    frontAndBack
    {
        type            empty;
    }
}


// ************************************************************************* //
