/*--------------------------------*- C++ -*----------------------------------*\
| =========                 |                                                 |
| \\      /  F ield         | OpenFOAM: The Open Source CFD Toolbox           |
|  \\    /   O peration     | Version:  2312                                  |
|   \\  /    A nd           | Website:  www.openfoam.com                      |
|    \\/     M anipulation  |                                                 |
\*---------------------------------------------------------------------------*/
FoamFile
{
    version     2.0;
    format      ascii;
    arch        "LSB;label=32;scalar=64";
    class       volScalarField;
    location    "4.375";
    object      QField;
}
// * * * * * * * * * * * * * * * * * * * * * * * * * * * * * * * * * * * * * //

dimensions      [0 0 -2 0 0 0 0];

internalField   nonuniform List<scalar> 
400
(
-2.65737e-15
1.78954e-15
1.72688e-16
3.37036e-17
9.46489e-19
3.77591e-19
-1.65831e-20
6.07869e-21
-7.53282e-22
1.40678e-22
-2.48323e-23
2.90303e-24
-1.22506e-24
-2.38161e-25
-2.34435e-25
-9.62532e-26
-5.57739e-26
-2.54323e-26
-5.04194e-27
-4.74684e-28
-1.14297e-14
-1.74267e-16
-3.97726e-17
2.20228e-17
5.85541e-19
2.14563e-19
-5.33702e-22
2.13263e-21
-1.44176e-22
2.37625e-23
-7.25529e-24
-1.2186e-24
-1.02034e-24
-5.01934e-25
-2.30911e-25
-1.3517e-25
-6.48666e-26
-1.68149e-26
-6.71393e-27
-4.7304e-27
-8.58593e-15
-1.89242e-15
-1.84493e-16
-1.20784e-17
-2.11609e-19
-1.26317e-19
8.03895e-21
-1.8885e-21
2.07897e-22
-4.13066e-23
2.26075e-24
-2.29961e-24
-6.38164e-25
-4.20596e-25
-2.23026e-25
-1.11591e-25
-4.75892e-26
-2.04547e-26
-6.8545e-27
6.71713e-27
1.19792e-15
4.53945e-16
4.50507e-17
3.02254e-18
5.62482e-20
5.87616e-20
-6.89844e-21
1.4567e-21
-2.2945e-22
3.28316e-23
-8.45015e-24
-3.3657e-25
-7.93377e-25
-3.51372e-25
-1.73849e-25
-9.03626e-26
-3.19035e-26
-2.31268e-26
-1.54934e-27
2.93584e-27
4.63794e-15
1.28044e-15
1.18908e-16
6.29292e-18
5.43079e-19
9.07318e-21
6.97453e-21
-8.80878e-22
1.8601e-22
-3.52592e-23
3.53293e-24
-1.99911e-24
-4.14779e-25
-3.32497e-25
-1.53718e-25
-7.0136e-26
-3.9596e-26
-1.92607e-26
-1.51322e-26
-5.66632e-27
6.50313e-15
1.66488e-15
1.60718e-16
8.29604e-18
5.71145e-19
5.30612e-20
-5.30772e-22
8.29039e-22
-1.23635e-22
2.31127e-23
-5.76028e-24
-4.88645e-26
-6.12069e-25
-2.21461e-25
-1.39274e-25
-6.76174e-26
-2.07911e-26
-1.73692e-27
3.0009e-28
5.96255e-27
6.15555e-15
1.55403e-15
1.44315e-16
7.7963e-18
5.3027e-19
3.19471e-20
3.77212e-21
-2.70651e-22
9.67622e-23
-1.92543e-23
2.27365e-24
-1.193e-24
-2.9326e-25
-2.305e-25
-1.37565e-25
-8.96517e-26
-5.187e-26
-2.55085e-26
7.33039e-27
-6.04365e-27
5.28398e-15
1.30595e-15
1.21986e-16
6.30909e-18
4.47131e-19
3.19145e-20
1.02178e-21
3.55345e-22
-5.03936e-23
1.11891e-23
-3.14996e-24
-9.93209e-26
-4.07131e-25
-1.52403e-25
-7.88934e-26
-5.09461e-26
-4.17032e-26
-1.26529e-26
-8.03291e-27
0
3.92966e-15
9.71412e-16
8.62056e-17
4.8557e-18
3.00887e-19
2.2374e-20
1.69303e-21
-2.89739e-23
3.71545e-23
-8.68294e-24
7.29348e-25
-8.7966e-25
-2.03057e-25
-1.50862e-25
-6.57643e-26
-3.16993e-26
1.23814e-27
4.82524e-27
-1.27862e-26
5.2125e-27
2.87433e-15
7.1777e-16
6.27359e-17
3.51747e-18
2.45762e-19
1.53841e-20
1.10558e-21
9.25435e-23
-5.63982e-24
1.70715e-24
-1.54869e-24
-2.87084e-25
-3.61584e-25
-1.64235e-25
-8.97764e-26
-3.28564e-26
-2.1227e-26
-1.42851e-26
1.00405e-26
-4.84147e-27
1.94569e-15
5.00127e-16
4.18547e-17
2.6249e-18
1.5663e-19
1.39944e-20
4.36629e-22
6.89508e-23
-2.05886e-24
-9.29513e-25
-5.66976e-25
-4.86068e-25
-2.4356e-25
-1.90886e-25
-8.91699e-26
-4.00592e-26
-1.56406e-26
-2.03867e-26
-1.09511e-26
0
1.35233e-15
3.55299e-16
3.02243e-17
1.81735e-18
1.34461e-19
6.98903e-21
1.03449e-21
-7.32714e-23
1.96252e-23
-3.99036e-24
9.39279e-26
-4.73272e-25
-2.28926e-25
-1.33036e-25
-8.29153e-26
-5.04159e-26
-1.56968e-26
-2.87397e-27
-4.75273e-27
0
9.08791e-16
2.37702e-16
2.07921e-17
1.24135e-18
7.74718e-20
8.7232e-21
-3.00188e-22
2.00026e-22
-3.50808e-23
7.41041e-24
-2.12085e-24
-7.81906e-26
-2.57276e-25
-1.1808e-25
-7.99511e-26
-3.27704e-26
-1.35393e-27
-8.23989e-27
-1.48411e-27
-1.61454e-27
5.0415e-16
1.20678e-16
1.01123e-17
6.14223e-19
3.98029e-20
-1.5356e-21
1.3277e-21
-2.56607e-22
5.65858e-23
-1.13541e-23
1.01553e-24
-6.16983e-25
-1.27844e-25
-9.04526e-26
-4.91516e-26
-1.94135e-26
-1.55141e-26
-6.25358e-27
1.10817e-27
8.95872e-28
3.58139e-16
5.12162e-17
7.53639e-18
1.33258e-19
-4.1429e-21
7.1688e-21
-1.69546e-21
3.72674e-22
-7.21965e-23
1.28095e-23
-3.24538e-24
1.25612e-25
-2.16425e-25
-5.57593e-26
-3.60465e-26
-2.49827e-26
-1.58177e-26
-9.33682e-27
-1.76543e-27
2.99333e-29
-7.14495e-17
-6.87814e-17
-5.85482e-18
-5.99734e-19
-9.64253e-21
-1.63689e-20
2.42064e-21
-5.78518e-22
9.70047e-23
-1.77243e-23
2.57307e-24
-7.57749e-25
-5.1051e-26
-8.0412e-26
-2.74273e-26
-1.39179e-26
-7.34579e-27
-3.36643e-27
0
1.80801e-30
3.31884e-16
-1.41449e-17
4.77174e-18
1.12875e-19
-1.15605e-19
2.36168e-20
-4.36662e-21
7.32343e-22
-1.21947e-22
1.87462e-23
-3.55429e-24
2.72068e-25
-2.28264e-25
-3.90721e-26
-3.37878e-26
-3.00887e-27
-1.30365e-27
-1.22028e-27
0
0
-5.9674e-16
-1.85234e-16
-1.68484e-17
-3.6315e-18
5.35948e-20
-5.7919e-20
4.23492e-21
-9.96008e-22
1.1031e-22
-2.08914e-23
2.11752e-24
-6.43836e-25
-2.49353e-26
-4.73043e-26
-1.66847e-26
-1.05946e-26
-2.98462e-27
-1.61881e-27
0
-5.039e-28
2.67098e-15
2.86227e-15
2.88045e-16
3.13577e-17
1.91454e-18
2.22349e-19
7.85138e-21
1.68148e-21
-3.50615e-23
1.75793e-23
-2.27139e-24
9.67044e-26
-1.40341e-25
-2.99453e-26
-8.57035e-27
-2.59685e-27
-7.83069e-28
-7.83844e-28
-2.96396e-28
-4.8664e-28
4.08087e-15
3.15245e-15
3.31299e-16
3.46935e-17
2.01022e-18
2.84814e-19
2.89216e-21
3.01734e-21
-2.02996e-22
4.77446e-23
-6.26054e-24
8.14968e-25
-2.11101e-25
-1.03339e-26
-1.12499e-26
-4.50617e-28
-5.20239e-30
1.16503e-29
2.89543e-28
-4.89522e-29
)
;

boundaryField
{
    movingWall
    {
        type            calculated;
        value           nonuniform List<scalar> 
20
(
9.09732e-15
9.77379e-15
7.43223e-16
6.78359e-17
1.69618e-18
5.26185e-19
-1.98031e-20
6.58809e-21
-7.15375e-22
1.25134e-22
-1.75871e-23
2.70717e-24
-4.29145e-25
4.36211e-26
-1.16906e-26
1.51051e-27
7.14773e-28
0
2.68545e-28
1.01038e-28
)
;
    }
    fixedWalls
    {
        type            calculated;
        value           nonuniform List<scalar> 
60
(
-1.39438e-14
-5.99649e-14
-4.50117e-14
6.30714e-15
2.43468e-14
3.41187e-14
3.22918e-14
2.77165e-14
2.06131e-14
1.50771e-14
1.02071e-14
7.09465e-15
4.76888e-15
2.64637e-15
1.88079e-15
-3.72803e-16
1.74233e-15
-3.12862e-15
1.40078e-14
2.1409e-14
0
-2.76587e-27
5.90645e-27
2.39307e-27
-5.06416e-27
5.22972e-27
-5.37314e-27
0
5.08334e-27
-4.31826e-27
4.31641e-28
0
-2.64526e-27
4.88901e-28
4.90427e-29
2.44988e-29
0
-6.40149e-28
-6.49272e-28
-1.81242e-28
9.90175e-15
1.04446e-14
6.31928e-16
8.72961e-17
-7.92293e-19
8.76991e-19
-7.06717e-20
1.46773e-20
-2.05777e-21
3.57323e-22
-5.7975e-23
9.74136e-24
-1.80664e-24
1.19833e-25
-1.57315e-25
-4.23334e-26
-3.474e-26
-2.24079e-26
-1.7342e-27
-5.15801e-28
)
;
    }
    frontAndBack
    {
        type            empty;
    }
}


// ************************************************************************* //
