/*--------------------------------*- C++ -*----------------------------------*\
| =========                 |                                                 |
| \\      /  F ield         | OpenFOAM: The Open Source CFD Toolbox           |
|  \\    /   O peration     | Version:  2312                                  |
|   \\  /    A nd           | Website:  www.openfoam.com                      |
|    \\/     M anipulation  |                                                 |
\*---------------------------------------------------------------------------*/
FoamFile
{
    version     2.0;
    format      ascii;
    arch        "LSB;label=32;scalar=64";
    class       volVectorField;
    location    "4.375";
    object      U;
}
// * * * * * * * * * * * * * * * * * * * * * * * * * * * * * * * * * * * * * //

dimensions      [0 1 -1 0 0 0 0];

internalField   nonuniform List<vector> 
400
(
(-1 1.95312e-08 0)
(-1 -4.63748e-09 0)
(-1 1.10213e-09 0)
(-1 -2.61445e-10 0)
(-1 6.22933e-11 0)
(-1 -1.47278e-11 0)
(-1 3.54261e-12 0)
(-1 -8.19056e-13 0)
(-1 2.09593e-13 0)
(-1 -4.02412e-14 0)
(-1 1.62068e-14 0)
(-1 8.12261e-16 0)
(-1 3.19133e-15 0)
(-1 1.8001e-15 0)
(-1 1.47788e-15 0)
(-1 9.86131e-16 0)
(-1 7.22476e-16 0)
(-1 4.69508e-16 0)
(-1 2.26141e-16 0)
(-1 4.75742e-17 0)
(-1 -1.95243e-08 0)
(-1 4.63933e-09 0)
(-1 -1.09931e-09 0)
(-1 2.61569e-10 0)
(-1 -6.17115e-11 0)
(-1 1.48142e-11 0)
(-1 -3.40855e-12 0)
(-1 8.71049e-13 0)
(-1 -1.65535e-13 0)
(-1 6.64422e-14 0)
(-1 3.16255e-15 0)
(-1 1.26578e-14 0)
(-1 6.6211e-15 0)
(-1 5.45223e-15 0)
(-1 3.89648e-15 0)
(-1 2.89932e-15 0)
(-1 2.05849e-15 0)
(-1 1.29633e-15 0)
(-1 6.75198e-16 0)
(-1 1.27553e-16 0)
(-1 1.94794e-08 0)
(-1 -4.62398e-09 0)
(-1 1.09774e-09 0)
(-1 -2.60098e-10 0)
(-1 6.20495e-11 0)
(-1 -1.45272e-11 0)
(-1 3.57796e-12 0)
(-1 -7.64704e-13 0)
(-1 2.38849e-13 0)
(-1 -1.7175e-14 0)
(-1 3.2134e-14 0)
(-1 1.26476e-14 0)
(-1 1.18027e-14 0)
(-1 8.00851e-15 0)
(-1 6.00454e-15 0)
(-1 4.37605e-15 0)
(-1 3.1128e-15 0)
(-1 1.98689e-15 0)
(-1 1.05181e-15 0)
(-1 1.87282e-16 0)
(-1 -1.94333e-08 0)
(-1 4.61026e-09 0)
(-1 -1.09344e-09 0)
(-1 2.59615e-10 0)
(-1 -6.13682e-11 0)
(-1 1.47226e-11 0)
(-1 -3.36986e-12 0)
(-1 8.87087e-13 0)
(-1 -1.47269e-13 0)
(-1 8.05098e-14 0)
(-1 1.42817e-14 0)
(-1 2.12843e-14 0)
(-1 1.33384e-14 0)
(-1 1.05676e-14 0)
(-1 7.67694e-15 0)
(-1 5.59048e-15 0)
(-1 3.88406e-15 0)
(-1 2.43783e-15 0)
(-1 1.30741e-15 0)
(-1 3.3533e-16 0)
(-1 1.93774e-08 0)
(-1 -4.59523e-09 0)
(-1 1.09016e-09 0)
(-1 -2.58373e-10 0)
(-1 6.14277e-11 0)
(-1 -1.44403e-11 0)
(-1 3.52775e-12 0)
(-1 -7.56503e-13 0)
(-1 2.40446e-13 0)
(-1 -1.08225e-14 0)
(-1 3.7526e-14 0)
(-1 1.75447e-14 0)
(-1 1.58695e-14 0)
(-1 1.14478e-14 0)
(-1 8.70703e-15 0)
(-1 6.39454e-15 0)
(-1 4.47905e-15 0)
(-1 2.83164e-15 0)
(-1 1.62342e-15 0)
(-1 4.67087e-16 0)
(-1 -1.93295e-08 0)
(-1 4.58333e-09 0)
(-1 -1.08702e-09 0)
(-1 2.57878e-10 0)
(-1 -6.10392e-11 0)
(-1 1.45752e-11 0)
(-1 -3.37166e-12 0)
(-1 8.68089e-13 0)
(-1 -1.51111e-13 0)
(-1 7.89792e-14 0)
(-1 1.50168e-14 0)
(-1 2.25054e-14 0)
(-1 1.46788e-14 0)
(-1 1.19127e-14 0)
(-1 8.91278e-15 0)
(-1 6.77441e-15 0)
(-1 4.86397e-15 0)
(-1 3.13517e-15 0)
(-1 1.73426e-15 0)
(-1 4.94029e-16 0)
(-1 1.92828e-08 0)
(-1 -4.57222e-09 0)
(-1 1.08452e-09 0)
(-1 -2.57105e-10 0)
(-1 6.10446e-11 0)
(-1 -1.44034e-11 0)
(-1 3.48112e-12 0)
(-1 -7.6946e-13 0)
(-1 2.28922e-13 0)
(-1 -1.64006e-14 0)
(-1 3.42862e-14 0)
(-1 1.58998e-14 0)
(-1 1.50275e-14 0)
(-1 1.1121e-14 0)
(-1 8.80122e-15 0)
(-1 6.72132e-15 0)
(-1 4.87112e-15 0)
(-1 3.15204e-15 0)
(-1 1.73413e-15 0)
(-1 4.95584e-16 0)
(-1 -1.92458e-08 0)
(-1 4.56382e-09 0)
(-1 -1.08242e-09 0)
(-1 2.56748e-10 0)
(-1 -6.08306e-11 0)
(-1 1.44809e-11 0)
(-1 -3.38423e-12 0)
(-1 8.4631e-13 0)
(-1 -1.63216e-13 0)
(-1 7.0151e-14 0)
(-1 9.35669e-15 0)
(-1 1.8841e-14 0)
(-1 1.24612e-14 0)
(-1 1.05468e-14 0)
(-1 8.12753e-15 0)
(-1 6.22946e-15 0)
(-1 4.43388e-15 0)
(-1 2.87865e-15 0)
(-1 1.68629e-15 0)
(-1 4.40376e-16 0)
(-1 1.92124e-08 0)
(-1 -4.55632e-09 0)
(-1 1.08072e-09 0)
(-1 -2.56282e-10 0)
(-1 6.08159e-11 0)
(-1 -1.43872e-11 0)
(-1 3.44758e-12 0)
(-1 -7.85242e-13 0)
(-1 2.14685e-13 0)
(-1 -2.63685e-14 0)
(-1 2.70846e-14 0)
(-1 1.10051e-14 0)
(-1 1.17674e-14 0)
(-1 8.96805e-15 0)
(-1 7.29725e-15 0)
(-1 5.43552e-15 0)
(-1 3.87987e-15 0)
(-1 2.51187e-15 0)
(-1 1.47145e-15 0)
(-1 4.51617e-16 0)
(-1 -1.91856e-08 0)
(-1 4.55039e-09 0)
(-1 -1.07929e-09 0)
(-1 2.56006e-10 0)
(-1 -6.06957e-11 0)
(-1 1.44191e-11 0)
(-1 -3.39697e-12 0)
(-1 8.27256e-13 0)
(-1 -1.76383e-13 0)
(-1 5.93337e-14 0)
(-1 1.02752e-15 0)
(-1 1.28689e-14 0)
(-1 8.28166e-15 0)
(-1 7.64083e-15 0)
(-1 5.97782e-15 0)
(-1 4.57393e-15 0)
(-1 3.35578e-15 0)
(-1 2.25043e-15 0)
(-1 1.3879e-15 0)
(-1 3.98289e-16 0)
(-1 1.91611e-08 0)
(-1 -4.54486e-09 0)
(-1 1.07801e-09 0)
(-1 -2.55687e-10 0)
(-1 6.06535e-11 0)
(-1 -1.43759e-11 0)
(-1 3.42098e-12 0)
(-1 -7.99832e-13 0)
(-1 2.01063e-13 0)
(-1 -3.69694e-14 0)
(-1 1.8598e-14 0)
(-1 4.50766e-15 0)
(-1 6.92721e-15 0)
(-1 5.29829e-15 0)
(-1 4.59846e-15 0)
(-1 3.70382e-15 0)
(-1 2.8184e-15 0)
(-1 1.85139e-15 0)
(-1 1.17325e-15 0)
(-1 3.44373e-16 0)
(-1 -1.91394e-08 0)
(-1 4.53983e-09 0)
(-1 -1.07683e-09 0)
(-1 2.55413e-10 0)
(-1 -6.0584e-11 0)
(-1 1.43688e-11 0)
(-1 -3.40759e-12 0)
(-1 8.10363e-13 0)
(-1 -1.88835e-13 0)
(-1 4.89418e-14 0)
(-1 -7.05811e-15 0)
(-1 6.36946e-15 0)
(-1 3.15779e-15 0)
(-1 3.6352e-15 0)
(-1 3.16637e-15 0)
(-1 2.70408e-15 0)
(-1 2.0498e-15 0)
(-1 1.40422e-15 0)
(-1 8.74798e-16 0)
(-1 3.01092e-16 0)
(-1 1.91187e-08 0)
(-1 -4.53503e-09 0)
(-1 1.07568e-09 0)
(-1 -2.55161e-10 0)
(-1 6.05074e-11 0)
(-1 -1.4365e-11 0)
(-1 3.39715e-12 0)
(-1 -8.12786e-13 0)
(-1 1.88603e-13 0)
(-1 -4.67519e-14 0)
(-1 1.0713e-14 0)
(-1 -1.75142e-15 0)
(-1 2.0207e-15 0)
(-1 1.52279e-15 0)
(-1 1.81752e-15 0)
(-1 1.63713e-15 0)
(-1 1.37063e-15 0)
(-1 9.98812e-16 0)
(-1 5.88766e-16 0)
(-1 1.18278e-16 0)
(-1 -1.90985e-08 0)
(-1 4.53027e-09 0)
(-1 -1.07459e-09 0)
(-1 2.54863e-10 0)
(-1 -6.04806e-11 0)
(-1 1.43204e-11 0)
(-1 -3.41804e-12 0)
(-1 7.94363e-13 0)
(-1 -2.00268e-13 0)
(-1 3.95813e-14 0)
(-1 -1.41099e-14 0)
(-1 9.03591e-16 0)
(-1 -1.27004e-15 0)
(-1 2.05999e-16 0)
(-1 5.16036e-16 0)
(-1 8.49235e-16 0)
(-1 9.1197e-16 0)
(-1 6.44226e-16 0)
(-1 3.27256e-16 0)
(-1 3.2621e-18 0)
(-1 1.90799e-08 0)
(-1 -4.52583e-09 0)
(-1 1.07348e-09 0)
(-1 -2.5467e-10 0)
(-1 6.03605e-11 0)
(-1 -1.43586e-11 0)
(-1 3.3726e-12 0)
(-1 -8.2534e-13 0)
(-1 1.77412e-13 0)
(-1 -5.47401e-14 0)
(-1 4.61093e-15 0)
(-1 -6.34818e-15 0)
(-1 -1.54226e-15 0)
(-1 -1.0999e-15 0)
(-1 -2.88389e-16 0)
(-1 4.62936e-17 0)
(-1 2.25892e-16 0)
(-1 2.29757e-16 0)
(-1 1.52223e-16 0)
(-1 1.61518e-17 0)
(-1 -1.90607e-08 0)
(-1 4.52128e-09 0)
(-1 -1.07251e-09 0)
(-1 2.54322e-10 0)
(-1 -6.03978e-11 0)
(-1 1.42674e-11 0)
(-1 -3.43044e-12 0)
(-1 7.80161e-13 0)
(-1 -2.08805e-13 0)
(-1 3.33277e-14 0)
(-1 -1.87943e-14 0)
(-1 -2.57031e-15 0)
(-1 -3.7273e-15 0)
(-1 -1.65135e-15 0)
(-1 -9.97533e-16 0)
(-1 -4.79882e-16 0)
(-1 -2.55173e-16 0)
(-1 -5.9443e-17 0)
(-1 1.59258e-18 0)
(-1 -2.25962e-18 0)
(-1 1.90446e-08 0)
(-1 -4.51738e-09 0)
(-1 1.07137e-09 0)
(-1 -2.54248e-10 0)
(-1 6.01956e-11 0)
(-1 -1.43593e-11 0)
(-1 3.34822e-12 0)
(-1 -8.33755e-13 0)
(-1 1.70792e-13 0)
(-1 -5.849e-14 0)
(-1 2.11704e-15 0)
(-1 -8.01896e-15 0)
(-1 -2.9201e-15 0)
(-1 -2.40467e-15 0)
(-1 -1.31842e-15 0)
(-1 -6.65202e-16 0)
(-1 -2.8829e-16 0)
(-1 -1.84241e-16 0)
(-1 -8.97168e-17 0)
(-1 -6.21068e-17 0)
(-1 -1.90272e-08 0)
(-1 4.51319e-09 0)
(-1 -1.0709e-09 0)
(-1 2.53801e-10 0)
(-1 -6.03693e-11 0)
(-1 1.42245e-11 0)
(-1 -3.43772e-12 0)
(-1 7.76254e-13 0)
(-1 -2.09943e-13 0)
(-1 3.32051e-14 0)
(-1 -1.85583e-14 0)
(-1 -2.38665e-15 0)
(-1 -3.77468e-15 0)
(-1 -1.83452e-15 0)
(-1 -1.14216e-15 0)
(-1 -5.59828e-16 0)
(-1 -3.25942e-16 0)
(-1 -2.84545e-16 0)
(-1 -1.26863e-16 0)
(-1 -5.90433e-17 0)
(-1 1.90163e-08 0)
(-1 -4.51104e-09 0)
(-1 1.06898e-09 0)
(-1 -2.5374e-10 0)
(-1 5.99666e-11 0)
(-1 -1.42978e-11 0)
(-1 3.33528e-12 0)
(-1 -8.19749e-13 0)
(-1 1.75276e-13 0)
(-1 -5.32734e-14 0)
(-1 4.99272e-15 0)
(-1 -6.04651e-15 0)
(-1 -1.69404e-15 0)
(-1 -1.57612e-15 0)
(-1 -7.3555e-16 0)
(-1 -3.43276e-16 0)
(-1 -2.16262e-16 0)
(-1 -1.51123e-16 0)
(-1 -9.35463e-17 0)
(-1 -4.17721e-17 0)
(-1 -1.9004e-08 0)
(-1 4.50899e-09 0)
(-1 -1.07057e-09 0)
(-1 2.53968e-10 0)
(-1 -6.03885e-11 0)
(-1 1.43067e-11 0)
(-1 -3.4196e-12 0)
(-1 8.01711e-13 0)
(-1 -1.97502e-13 0)
(-1 4.27842e-14 0)
(-1 -1.29238e-14 0)
(-1 1.27408e-15 0)
(-1 -1.4987e-15 0)
(-1 -4.72451e-16 0)
(-1 -4.45949e-16 0)
(-1 -1.21049e-16 0)
(-1 -3.70403e-17 0)
(-1 4.64262e-18 0)
(-1 -3.27421e-17 0)
(-1 -1.48231e-17 0)
)
;

boundaryField
{
    movingWall
    {
        type            fixedValue;
        value           uniform (-1 -0 -0);
    }
    fixedWalls
    {
        type            noSlip;
    }
    frontAndBack
    {
        type            empty;
    }
}


// ************************************************************************* //
