/*--------------------------------*- C++ -*----------------------------------*\
| =========                 |                                                 |
| \\      /  F ield         | OpenFOAM: The Open Source CFD Toolbox           |
|  \\    /   O peration     | Version:  2312                                  |
|   \\  /    A nd           | Website:  www.openfoam.com                      |
|    \\/     M anipulation  |                                                 |
\*---------------------------------------------------------------------------*/
FoamFile
{
    version     2.0;
    format      ascii;
    arch        "LSB;label=32;scalar=64";
    class       volVectorField;
    location    "9.375";
    object      diffU;
}
// * * * * * * * * * * * * * * * * * * * * * * * * * * * * * * * * * * * * * //

dimensions      [0 1 -1 0 0 0 0];

internalField   nonuniform List<vector> 
400
(
(0 0 0)
(2.88658e-14 -1.80196e-13 0)
(2.19824e-14 -1.39901e-13 0)
(2.27596e-14 -1.49288e-13 0)
(2.25375e-14 -1.47171e-13 0)
(2.25375e-14 -1.47649e-13 0)
(2.24265e-14 -1.47586e-13 0)
(2.26485e-14 -1.47624e-13 0)
(2.23155e-14 -1.47652e-13 0)
(2.26485e-14 -1.47704e-13 0)
(2.22045e-14 -1.47703e-13 0)
(2.24265e-14 -1.47733e-13 0)
(2.24265e-14 -1.47609e-13 0)
(2.24265e-14 -1.47529e-13 0)
(2.19824e-14 -1.47537e-13 0)
(2.19824e-14 -1.47591e-13 0)
(2.19824e-14 -1.47572e-13 0)
(2.17604e-14 -1.47708e-13 0)
(2.19824e-14 -1.47754e-13 0)
(2.17604e-14 -1.47706e-13 0)
(6.05072e-14 -1.28391e-13 0)
(1.17684e-14 -1.51248e-13 0)
(2.28706e-14 -1.46673e-13 0)
(2.13163e-14 -1.4785e-13 0)
(2.17604e-14 -1.47656e-13 0)
(2.17604e-14 -1.47733e-13 0)
(2.17604e-14 -1.47786e-13 0)
(2.15383e-14 -1.47784e-13 0)
(2.17604e-14 -1.47755e-13 0)
(2.15383e-14 -1.47666e-13 0)
(2.15383e-14 -1.47535e-13 0)
(2.13163e-14 -1.47538e-13 0)
(2.13163e-14 -1.47487e-13 0)
(2.10942e-14 -1.47518e-13 0)
(2.13163e-14 -1.47568e-13 0)
(2.17604e-14 -1.47674e-13 0)
(2.19824e-14 -1.47625e-13 0)
(2.19824e-14 -1.47715e-13 0)
(2.19824e-14 -1.47867e-13 0)
(2.17604e-14 -1.47816e-13 0)
(1.73195e-14 -2.79298e-13 0)
(2.45359e-14 -1.18228e-13 0)
(2.27596e-14 -1.54353e-13 0)
(2.25375e-14 -1.46075e-13 0)
(2.26485e-14 -1.47991e-13 0)
(2.25375e-14 -1.47472e-13 0)
(2.25375e-14 -1.47487e-13 0)
(2.23155e-14 -1.47457e-13 0)
(2.19824e-14 -1.47497e-13 0)
(2.15383e-14 -1.47472e-13 0)
(2.15383e-14 -1.47461e-13 0)
(2.15383e-14 -1.47545e-13 0)
(2.19824e-14 -1.4767e-13 0)
(2.19824e-14 -1.47765e-13 0)
(2.20934e-14 -1.47852e-13 0)
(2.22045e-14 -1.47812e-13 0)
(2.24265e-14 -1.4764e-13 0)
(2.22045e-14 -1.47593e-13 0)
(2.24265e-14 -1.47812e-13 0)
(2.22045e-14 -1.47809e-13 0)
(-3.10862e-15 -6.96914e-14 0)
(2.80886e-14 -1.64297e-13 0)
(2.02061e-14 -1.4342e-13 0)
(2.17604e-14 -1.48374e-13 0)
(2.10942e-14 -1.47303e-13 0)
(2.13163e-14 -1.4753e-13 0)
(2.13163e-14 -1.47448e-13 0)
(2.15383e-14 -1.47436e-13 0)
(2.15383e-14 -1.47447e-13 0)
(2.17604e-14 -1.47534e-13 0)
(2.20934e-14 -1.47605e-13 0)
(2.22045e-14 -1.47664e-13 0)
(2.20934e-14 -1.47742e-13 0)
(2.20934e-14 -1.47774e-13 0)
(2.22045e-14 -1.47826e-13 0)
(2.19824e-14 -1.47738e-13 0)
(2.15383e-14 -1.47671e-13 0)
(2.19824e-14 -1.47686e-13 0)
(2.19824e-14 -1.47755e-13 0)
(2.19824e-14 -1.47687e-13 0)
(4.78506e-14 -1.25752e-13 0)
(1.55431e-14 -1.52415e-13 0)
(2.30926e-14 -1.46358e-13 0)
(2.25375e-14 -1.478e-13 0)
(2.26485e-14 -1.47427e-13 0)
(2.24265e-14 -1.47621e-13 0)
(2.23155e-14 -1.47756e-13 0)
(2.23155e-14 -1.47677e-13 0)
(2.23155e-14 -1.47513e-13 0)
(2.23155e-14 -1.47591e-13 0)
(2.23155e-14 -1.47681e-13 0)
(2.22045e-14 -1.47634e-13 0)
(2.25375e-14 -1.47626e-13 0)
(2.23155e-14 -1.47691e-13 0)
(2.22045e-14 -1.47658e-13 0)
(2.22045e-14 -1.47614e-13 0)
(2.23155e-14 -1.47682e-13 0)
(2.23155e-14 -1.47713e-13 0)
(2.19824e-14 -1.4768e-13 0)
(2.20934e-14 -1.47664e-13 0)
(3.9968e-15 -2.62756e-13 0)
(2.69784e-14 -1.22465e-13 0)
(2.17604e-14 -1.53473e-13 0)
(2.24265e-14 -1.46206e-13 0)
(2.19824e-14 -1.47722e-13 0)
(2.20934e-14 -1.47379e-13 0)
(2.22045e-14 -1.4755e-13 0)
(2.19824e-14 -1.47505e-13 0)
(2.17604e-14 -1.47507e-13 0)
(2.20934e-14 -1.47628e-13 0)
(2.19824e-14 -1.47697e-13 0)
(2.19824e-14 -1.47667e-13 0)
(2.17604e-14 -1.47698e-13 0)
(2.17604e-14 -1.4774e-13 0)
(2.15383e-14 -1.47729e-13 0)
(2.17604e-14 -1.47654e-13 0)
(2.17604e-14 -1.47642e-13 0)
(2.17604e-14 -1.47706e-13 0)
(2.19824e-14 -1.47643e-13 0)
(2.20934e-14 -1.47636e-13 0)
(2.52021e-14 -7.54159e-15 0)
(2.26485e-14 -1.77567e-13 0)
(2.29816e-14 -1.40489e-13 0)
(2.23155e-14 -1.49009e-13 0)
(2.23155e-14 -1.47046e-13 0)
(2.24265e-14 -1.47505e-13 0)
(2.25375e-14 -1.47461e-13 0)
(2.22045e-14 -1.47581e-13 0)
(2.24265e-14 -1.47688e-13 0)
(2.26485e-14 -1.47668e-13 0)
(2.25375e-14 -1.47611e-13 0)
(2.26485e-14 -1.47488e-13 0)
(2.26485e-14 -1.47511e-13 0)
(2.24265e-14 -1.47599e-13 0)
(2.23155e-14 -1.47665e-13 0)
(2.23155e-14 -1.47662e-13 0)
(2.22045e-14 -1.47656e-13 0)
(2.23155e-14 -1.47714e-13 0)
(2.17604e-14 -1.47706e-13 0)
(2.20934e-14 -1.47636e-13 0)
(3.07532e-14 -1.82732e-13 0)
(1.75415e-14 -1.39977e-13 0)
(2.04281e-14 -1.49269e-13 0)
(2.13163e-14 -1.47095e-13 0)
(2.10942e-14 -1.47626e-13 0)
(2.15383e-14 -1.4766e-13 0)
(2.15383e-14 -1.47702e-13 0)
(2.17604e-14 -1.47687e-13 0)
(2.15383e-14 -1.47734e-13 0)
(2.15383e-14 -1.47702e-13 0)
(2.13163e-14 -1.47622e-13 0)
(2.15383e-14 -1.47481e-13 0)
(2.13163e-14 -1.47458e-13 0)
(2.15383e-14 -1.476e-13 0)
(2.17604e-14 -1.4761e-13 0)
(2.17604e-14 -1.47597e-13 0)
(2.17604e-14 -1.47633e-13 0)
(2.17604e-14 -1.47607e-13 0)
(2.22045e-14 -1.4766e-13 0)
(2.20934e-14 -1.47626e-13 0)
(9.32587e-15 -2.54669e-13 0)
(2.68674e-14 -1.24105e-13 0)
(2.24265e-14 -1.53027e-13 0)
(2.24265e-14 -1.4636e-13 0)
(2.23155e-14 -1.4796e-13 0)
(2.25375e-14 -1.47736e-13 0)
(2.24265e-14 -1.47751e-13 0)
(2.24265e-14 -1.47526e-13 0)
(2.20934e-14 -1.47486e-13 0)
(2.20934e-14 -1.47495e-13 0)
(2.17604e-14 -1.47509e-13 0)
(2.15383e-14 -1.47638e-13 0)
(2.19824e-14 -1.47765e-13 0)
(2.19824e-14 -1.4778e-13 0)
(2.17604e-14 -1.47667e-13 0)
(2.19824e-14 -1.47635e-13 0)
(2.17604e-14 -1.47693e-13 0)
(2.19824e-14 -1.47666e-13 0)
(2.17604e-14 -1.47684e-13 0)
(2.19824e-14 -1.47677e-13 0)
(2.02061e-14 2.4391e-14 0)
(2.17604e-14 -1.85775e-13 0)
(2.15383e-14 -1.38811e-13 0)
(2.23155e-14 -1.49716e-13 0)
(2.23155e-14 -1.47168e-13 0)
(2.20934e-14 -1.47692e-13 0)
(2.17604e-14 -1.47596e-13 0)
(2.17604e-14 -1.47649e-13 0)
(2.19824e-14 -1.47517e-13 0)
(2.22045e-14 -1.47413e-13 0)
(2.22045e-14 -1.47395e-13 0)
(2.23155e-14 -1.47572e-13 0)
(2.20934e-14 -1.47705e-13 0)
(2.19824e-14 -1.47618e-13 0)
(2.15383e-14 -1.47648e-13 0)
(2.20934e-14 -1.47711e-13 0)
(2.19824e-14 -1.47713e-13 0)
(2.20934e-14 -1.47722e-13 0)
(2.22045e-14 -1.47672e-13 0)
(2.20934e-14 -1.47686e-13 0)
(3.19744e-14 -2.89117e-13 0)
(2.04281e-14 -1.16805e-13 0)
(2.28706e-14 -1.55026e-13 0)
(2.25375e-14 -1.46153e-13 0)
(2.22045e-14 -1.48027e-13 0)
(2.20934e-14 -1.4753e-13 0)
(2.23155e-14 -1.47682e-13 0)
(2.22045e-14 -1.47846e-13 0)
(2.23155e-14 -1.477e-13 0)
(2.25375e-14 -1.4747e-13 0)
(2.20934e-14 -1.47331e-13 0)
(2.22045e-14 -1.47458e-13 0)
(2.19824e-14 -1.47585e-13 0)
(2.17604e-14 -1.47589e-13 0)
(2.20934e-14 -1.47711e-13 0)
(2.20934e-14 -1.4781e-13 0)
(2.19824e-14 -1.47754e-13 0)
(2.17604e-14 -1.47742e-13 0)
(2.17604e-14 -1.47695e-13 0)
(2.20934e-14 -1.47674e-13 0)
(2.08722e-14 -8.16352e-14 0)
(2.42029e-14 -1.61787e-13 0)
(2.33147e-14 -1.4419e-13 0)
(2.17604e-14 -1.48224e-13 0)
(2.22045e-14 -1.4732e-13 0)
(2.17604e-14 -1.47481e-13 0)
(2.15383e-14 -1.47465e-13 0)
(2.13163e-14 -1.4759e-13 0)
(2.10942e-14 -1.47651e-13 0)
(2.13163e-14 -1.47644e-13 0)
(2.15383e-14 -1.47626e-13 0)
(2.22045e-14 -1.47602e-13 0)
(2.23155e-14 -1.4759e-13 0)
(2.22045e-14 -1.47652e-13 0)
(2.23155e-14 -1.47689e-13 0)
(2.23155e-14 -1.47718e-13 0)
(2.20934e-14 -1.47666e-13 0)
(2.23155e-14 -1.47599e-13 0)
(2.20934e-14 -1.47638e-13 0)
(2.19824e-14 -1.47753e-13 0)
(1.93179e-14 -1.17475e-13 0)
(2.06501e-14 -1.54431e-13 0)
(2.02061e-14 -1.45877e-13 0)
(2.20934e-14 -1.47881e-13 0)
(2.15383e-14 -1.47322e-13 0)
(2.17604e-14 -1.47345e-13 0)
(2.17604e-14 -1.47428e-13 0)
(2.15383e-14 -1.47566e-13 0)
(2.15383e-14 -1.47746e-13 0)
(2.15383e-14 -1.47783e-13 0)
(2.13163e-14 -1.47849e-13 0)
(2.15383e-14 -1.47747e-13 0)
(2.17604e-14 -1.47673e-13 0)
(2.17604e-14 -1.47717e-13 0)
(2.17604e-14 -1.47721e-13 0)
(2.17604e-14 -1.47663e-13 0)
(2.17604e-14 -1.47585e-13 0)
(2.15383e-14 -1.47629e-13 0)
(2.19824e-14 -1.47707e-13 0)
(2.19824e-14 -1.47752e-13 0)
(2.78666e-14 -2.64722e-13 0)
(2.13163e-14 -1.21764e-13 0)
(2.29816e-14 -1.53429e-13 0)
(2.17604e-14 -1.46063e-13 0)
(2.17604e-14 -1.47736e-13 0)
(2.17604e-14 -1.47328e-13 0)
(2.20934e-14 -1.47426e-13 0)
(2.20934e-14 -1.47447e-13 0)
(2.20934e-14 -1.47581e-13 0)
(2.17604e-14 -1.47717e-13 0)
(2.20934e-14 -1.47802e-13 0)
(2.19824e-14 -1.47827e-13 0)
(2.22045e-14 -1.47845e-13 0)
(2.23155e-14 -1.47814e-13 0)
(2.22045e-14 -1.47764e-13 0)
(2.20934e-14 -1.47659e-13 0)
(2.19824e-14 -1.47617e-13 0)
(2.23155e-14 -1.47677e-13 0)
(2.19824e-14 -1.47825e-13 0)
(2.19824e-14 -1.47787e-13 0)
(2.66454e-15 -8.49604e-15 0)
(2.54241e-14 -1.78257e-13 0)
(1.9762e-14 -1.40435e-13 0)
(2.17604e-14 -1.49117e-13 0)
(2.13163e-14 -1.47322e-13 0)
(2.20934e-14 -1.47814e-13 0)
(2.17604e-14 -1.47657e-13 0)
(2.24265e-14 -1.47522e-13 0)
(2.25375e-14 -1.47444e-13 0)
(2.23155e-14 -1.47764e-13 0)
(2.22045e-14 -1.47832e-13 0)
(2.23155e-14 -1.47763e-13 0)
(2.22045e-14 -1.47757e-13 0)
(2.23155e-14 -1.47739e-13 0)
(2.20934e-14 -1.47602e-13 0)
(2.22045e-14 -1.47532e-13 0)
(2.17604e-14 -1.47685e-13 0)
(2.19824e-14 -1.4764e-13 0)
(2.19824e-14 -1.47717e-13 0)
(2.20934e-14 -1.47761e-13 0)
(4.85167e-14 -2.21621e-13 0)
(1.55431e-14 -1.31453e-13 0)
(2.26485e-14 -1.51465e-13 0)
(2.19824e-14 -1.4681e-13 0)
(2.17604e-14 -1.47908e-13 0)
(2.19824e-14 -1.47792e-13 0)
(2.19824e-14 -1.4779e-13 0)
(2.13163e-14 -1.4766e-13 0)
(2.15383e-14 -1.47575e-13 0)
(2.20934e-14 -1.47658e-13 0)
(2.17604e-14 -1.47716e-13 0)
(2.15383e-14 -1.47685e-13 0)
(2.17604e-14 -1.47707e-13 0)
(2.15383e-14 -1.47735e-13 0)
(2.15383e-14 -1.47686e-13 0)
(2.17604e-14 -1.47694e-13 0)
(2.19824e-14 -1.47768e-13 0)
(2.19824e-14 -1.47782e-13 0)
(2.19824e-14 -1.47756e-13 0)
(2.20934e-14 -1.47675e-13 0)
(-5.55112e-15 -1.9142e-13 0)
(2.87548e-14 -1.38189e-13 0)
(2.10942e-14 -1.49878e-13 0)
(2.24265e-14 -1.47193e-13 0)
(2.22045e-14 -1.47761e-13 0)
(2.23155e-14 -1.47595e-13 0)
(2.23155e-14 -1.47524e-13 0)
(2.25375e-14 -1.47492e-13 0)
(2.24265e-14 -1.47618e-13 0)
(2.24265e-14 -1.47717e-13 0)
(2.20934e-14 -1.47777e-13 0)
(2.24265e-14 -1.4779e-13 0)
(2.25375e-14 -1.47748e-13 0)
(2.23155e-14 -1.47695e-13 0)
(2.22045e-14 -1.47758e-13 0)
(2.24265e-14 -1.47759e-13 0)
(2.20934e-14 -1.47694e-13 0)
(2.19824e-14 -1.4779e-13 0)
(2.19824e-14 -1.47762e-13 0)
(2.19824e-14 -1.47642e-13 0)
(2.08722e-14 -2.80376e-14 0)
(2.15383e-14 -1.7392e-13 0)
(2.13163e-14 -1.41721e-13 0)
(2.15383e-14 -1.49324e-13 0)
(2.15383e-14 -1.47568e-13 0)
(2.15383e-14 -1.47857e-13 0)
(2.17604e-14 -1.47701e-13 0)
(2.17604e-14 -1.47614e-13 0)
(2.17604e-14 -1.47666e-13 0)
(2.23155e-14 -1.47707e-13 0)
(2.22045e-14 -1.47679e-13 0)
(2.20934e-14 -1.47682e-13 0)
(2.20934e-14 -1.47642e-13 0)
(2.22045e-14 -1.47571e-13 0)
(2.19824e-14 -1.47609e-13 0)
(2.19824e-14 -1.47663e-13 0)
(2.17604e-14 -1.47687e-13 0)
(2.20934e-14 -1.47696e-13 0)
(2.19824e-14 -1.47642e-13 0)
(2.17604e-14 -1.477e-13 0)
(5.11813e-14 -1.86517e-13 0)
(1.46549e-14 -1.39264e-13 0)
(2.27596e-14 -1.49786e-13 0)
(2.15383e-14 -1.47424e-13 0)
(2.13163e-14 -1.47887e-13 0)
(2.17604e-14 -1.47768e-13 0)
(2.15383e-14 -1.47804e-13 0)
(2.13163e-14 -1.47879e-13 0)
(2.15383e-14 -1.47897e-13 0)
(2.17604e-14 -1.4773e-13 0)
(2.13163e-14 -1.47684e-13 0)
(2.17604e-14 -1.47728e-13 0)
(2.17604e-14 -1.47643e-13 0)
(2.19824e-14 -1.47602e-13 0)
(2.17604e-14 -1.47697e-13 0)
(2.19824e-14 -1.47766e-13 0)
(2.19824e-14 -1.47758e-13 0)
(2.17604e-14 -1.47665e-13 0)
(2.22045e-14 -1.47674e-13 0)
(2.19824e-14 -1.47765e-13 0)
(1.02141e-14 -2.42022e-13 0)
(2.60902e-14 -1.27523e-13 0)
(2.27596e-14 -1.52489e-13 0)
(2.28706e-14 -1.46681e-13 0)
(2.28706e-14 -1.47892e-13 0)
(2.27596e-14 -1.47587e-13 0)
(2.27596e-14 -1.47668e-13 0)
(2.26485e-14 -1.47795e-13 0)
(2.26485e-14 -1.47806e-13 0)
(2.23155e-14 -1.47724e-13 0)
(2.25375e-14 -1.4776e-13 0)
(2.23155e-14 -1.47805e-13 0)
(2.23155e-14 -1.47715e-13 0)
(2.20934e-14 -1.47685e-13 0)
(2.23155e-14 -1.47738e-13 0)
(2.22045e-14 -1.47735e-13 0)
(2.19824e-14 -1.47693e-13 0)
(2.19824e-14 -1.47671e-13 0)
(2.20934e-14 -1.47734e-13 0)
(2.20934e-14 -1.47718e-13 0)
)
;

boundaryField
{
    movingWall
    {
        type            calculated;
        value           uniform (2.19824e-14 -1.47682e-13 0);
    }
    fixedWalls
    {
        type            calculated;
        value           uniform (2.19824e-14 -1.47682e-13 0);
    }
    frontAndBack
    {
        type            empty;
    }
}


// ************************************************************************* //
