/*--------------------------------*- C++ -*----------------------------------*\
| =========                 |                                                 |
| \\      /  F ield         | OpenFOAM: The Open Source CFD Toolbox           |
|  \\    /   O peration     | Version:  2312                                  |
|   \\  /    A nd           | Website:  www.openfoam.com                      |
|    \\/     M anipulation  |                                                 |
\*---------------------------------------------------------------------------*/
FoamFile
{
    version     2.0;
    format      ascii;
    arch        "LSB;label=32;scalar=64";
    class       volScalarField;
    location    "9.375";
    object      divU;
}
// * * * * * * * * * * * * * * * * * * * * * * * * * * * * * * * * * * * * * //

dimensions      [0 0 -1 0 0 0 0];

internalField   nonuniform List<scalar> 
400
(
1.51788e-11
-1.41249e-12
2.82558e-13
-1.23257e-13
2.65573e-14
-2.89947e-14
2.62464e-14
-4.48116e-15
-3.14627e-14
-6.98297e-16
-1.46097e-14
3.62884e-14
2.67492e-14
4.56732e-15
-2.83618e-14
9.83327e-15
1.67115e-14
-6.0148e-14
-2.57279e-14
2.71051e-14
-2.50451e-11
2.42613e-12
-4.84951e-13
2.25165e-13
-5.54799e-14
1.5822e-14
9.10133e-15
-1.49418e-14
1.11616e-14
2.25257e-14
3.67123e-14
-2.61767e-14
-6.46885e-15
-1.90585e-14
2.15114e-14
1.49235e-14
3.70018e-14
5.5399e-15
-5.86449e-14
5.42101e-14
5.63785e-12
-7.76163e-13
1.3856e-13
-7.12018e-14
3.40182e-14
9.05166e-15
1.57345e-14
1.98631e-14
-6.65099e-14
-1.84052e-14
2.56622e-15
1.54138e-14
2.22391e-14
-1.76015e-14
2.27918e-14
-1.8633e-14
5.22825e-15
8.41847e-15
6.76648e-15
-2.71051e-14
1.34441e-11
-1.07778e-12
1.79061e-13
-5.39826e-14
9.09733e-15
-5.86052e-15
-3.82866e-14
2.50306e-14
-1.39212e-14
7.80699e-14
7.67168e-15
6.47962e-15
-2.75383e-14
1.68818e-14
1.50686e-14
-5.31101e-14
9.70837e-16
5.06819e-14
1.99316e-14
0
-1.74014e-11
1.696e-12
-2.84212e-13
1.35724e-13
-3.27667e-14
-1.79046e-14
-4.84786e-14
-8.93431e-15
7.19209e-15
-1.26749e-14
-1.53529e-15
3.33154e-14
3.98013e-15
-3.38746e-14
-2.33811e-15
9.50925e-15
3.87625e-15
-5.52766e-15
-5.01697e-14
0
1.05168e-11
-7.37896e-13
1.12985e-13
-9.36451e-14
5.35547e-15
4.79705e-14
8.114e-15
-2.64267e-14
-1.02502e-14
6.78233e-15
-2.16353e-14
2.07964e-14
-3.8742e-14
-2.46692e-14
2.40013e-14
4.67746e-15
6.54655e-15
4.85535e-14
2.85184e-14
-2.71051e-14
8.42967e-12
-1.97411e-12
3.70782e-13
-1.82475e-13
4.20803e-14
-3.4339e-14
-3.41584e-14
-1.75643e-14
2.13181e-14
2.6514e-14
1.30133e-14
1.22506e-14
-1.47813e-14
-1.0709e-14
-1.83557e-14
1.03546e-14
7.48409e-15
-5.00254e-14
-3.60428e-16
0
-2.42861e-11
4.29371e-12
-8.55869e-13
3.5348e-13
-1.03525e-13
2.3804e-14
-3.60821e-14
4.2135e-14
-1.27627e-14
1.6646e-14
2.32815e-14
-5.68886e-14
4.11788e-14
-1.67729e-15
8.6199e-15
1.30907e-14
3.72062e-15
6.32474e-14
2.90421e-14
-2.71051e-14
1.99222e-11
-3.24057e-12
5.965e-13
-2.61073e-13
5.06245e-14
2.06079e-14
-2.54748e-14
-3.5331e-14
-1.81819e-14
-8.69164e-15
-6.24573e-14
1.54078e-14
1.65154e-14
-3.51681e-15
4.87539e-15
1.71121e-15
-4.30432e-15
-5.66694e-14
8.21326e-16
5.42101e-14
-3.63208e-12
8.50457e-13
-1.18433e-13
8.49065e-14
-1.03467e-14
-4.00924e-14
-4.56474e-14
1.39519e-14
1.46661e-14
2.09652e-14
9.48007e-15
6.30811e-15
-4.68698e-14
-3.86528e-14
4.55996e-16
3.84497e-14
-1.03563e-14
4.40778e-14
-2.74064e-14
-2.71051e-14
-9.75782e-12
1.48744e-12
-3.31024e-13
9.86692e-14
-5.26462e-14
8.04912e-15
2.16526e-14
-7.29966e-15
1.2375e-15
-5.63536e-14
-1.36297e-14
-2.38556e-14
-8.29995e-15
-1.49378e-14
2.34251e-14
1.06189e-14
-3.27162e-14
-5.20546e-14
5.72916e-14
0
1.72659e-11
-3.52202e-12
6.65134e-13
-2.90978e-13
7.2106e-14
-5.47754e-14
1.99264e-14
-8.76594e-14
5.08557e-14
2.07154e-14
-1.12356e-14
8.273e-14
-1.71161e-14
-5.68501e-16
-4.64913e-15
2.52815e-14
1.12975e-14
1.34454e-14
-5.2313e-14
-2.71051e-14
-1.87025e-11
4.11233e-12
-8.27987e-13
3.58734e-13
-5.07756e-14
1.48023e-14
-3.29591e-15
-1.9177e-14
3.70152e-15
-1.36564e-14
-2.88567e-14
-2.11064e-14
1.15624e-14
-1.67537e-14
-1.20887e-14
4.11512e-15
1.61789e-14
5.69834e-15
3.74063e-14
0
1.14383e-11
-2.87811e-12
5.83581e-13
-2.52727e-13
3.45979e-15
-4.96192e-15
8.74211e-16
1.22332e-14
6.80166e-15
1.53411e-14
2.54171e-17
3.14562e-14
3.03035e-14
8.08576e-15
-2.72884e-14
-9.82573e-15
6.14287e-15
4.62995e-15
-1.78305e-14
0
2.71051e-12
7.60906e-13
-2.22914e-13
1.06314e-13
1.33724e-14
2.847e-15
-8.40792e-15
4.51454e-14
7.34474e-15
-3.30034e-14
8.62902e-15
1.8606e-14
1.70685e-14
1.6017e-14
-1.95766e-14
-4.03968e-14
-9.01154e-15
-5.87041e-15
4.32947e-14
0
-1.62901e-11
1.43371e-12
-3.26894e-13
1.36069e-13
-3.05707e-14
2.47231e-14
-7.63663e-14
-6.064e-15
1.70299e-14
5.30649e-14
-6.72346e-14
-1.11591e-14
1.79733e-14
-3.3803e-14
-8.15846e-15
4.52869e-14
-9.87999e-15
-2.08741e-14
1.16742e-14
-2.71051e-14
1.72659e-11
-1.59333e-12
3.49377e-13
-1.42441e-13
3.05046e-14
-8.8492e-15
4.09181e-14
-1.44169e-15
-1.91233e-14
-3.31568e-14
-9.27798e-15
1.62397e-14
-2.63647e-15
-1.74589e-14
-3.98604e-16
-5.81768e-15
-5.59863e-14
1.48442e-14
2.302e-14
0
3.52366e-13
-4.7388e-14
-4.79837e-14
2.4158e-14
-9.17942e-15
-2.61293e-14
-1.4161e-14
-4.00913e-14
3.42896e-14
4.68076e-14
2.8089e-17
-3.17201e-14
3.50075e-14
-8.15189e-15
-2.13884e-14
-6.52825e-15
-8.19611e-15
2.08551e-16
-4.95421e-14
5.42101e-14
-1.92175e-11
1.8005e-12
-3.3877e-13
7.15938e-14
1.26649e-14
2.79495e-14
-3.79685e-14
2.31856e-14
2.02195e-14
-3.62485e-14
-8.02768e-15
1.01426e-14
5.74154e-16
3.47281e-14
-7.19737e-15
-1.38215e-14
-8.80272e-15
2.67776e-15
2.25956e-14
-2.71051e-14
1.25496e-11
-1.5992e-12
3.52366e-13
-1.0842e-13
2.71051e-14
0
-2.71051e-14
2.71051e-14
-2.71051e-14
0
0
0
0
0
0
0
-2.71051e-14
2.71051e-14
0
-2.71051e-14
)
;

boundaryField
{
    movingWall
    {
        type            extrapolatedCalculated;
        value           nonuniform List<scalar> 
20
(
1.25496e-11
-1.5992e-12
3.52366e-13
-1.0842e-13
2.71051e-14
0
-2.71051e-14
2.71051e-14
-2.71051e-14
0
0
0
0
0
0
0
-2.71051e-14
2.71051e-14
0
-2.71051e-14
)
;
    }
    fixedWalls
    {
        type            extrapolatedCalculated;
        value           nonuniform List<scalar> 
60
(
1.51788e-11
-2.50451e-11
5.63785e-12
1.34441e-11
-1.74014e-11
1.05168e-11
8.42967e-12
-2.42861e-11
1.99222e-11
-3.63208e-12
-9.75782e-12
1.72659e-11
-1.87025e-11
1.14383e-11
2.71051e-12
-1.62901e-11
1.72659e-11
3.52366e-13
-1.92175e-11
1.25496e-11
2.71051e-14
5.42101e-14
-2.71051e-14
0
0
-2.71051e-14
0
-2.71051e-14
5.42101e-14
-2.71051e-14
0
-2.71051e-14
0
0
0
-2.71051e-14
0
5.42101e-14
-2.71051e-14
-2.71051e-14
1.51788e-11
-1.41249e-12
2.82558e-13
-1.23257e-13
2.65573e-14
-2.89947e-14
2.62464e-14
-4.48116e-15
-3.14627e-14
-6.98297e-16
-1.46097e-14
3.62884e-14
2.67492e-14
4.56732e-15
-2.83618e-14
9.83327e-15
1.67115e-14
-6.0148e-14
-2.57279e-14
2.71051e-14
)
;
    }
    frontAndBack
    {
        type            empty;
    }
}


// ************************************************************************* //
