/*--------------------------------*- C++ -*----------------------------------*\
| =========                 |                                                 |
| \\      /  F ield         | OpenFOAM: The Open Source CFD Toolbox           |
|  \\    /   O peration     | Version:  2312                                  |
|   \\  /    A nd           | Website:  www.openfoam.com                      |
|    \\/     M anipulation  |                                                 |
\*---------------------------------------------------------------------------*/
FoamFile
{
    version     2.0;
    format      ascii;
    arch        "LSB;label=32;scalar=64";
    class       volScalarField;
    location    "9.375";
    object      enstrophyField;
}
// * * * * * * * * * * * * * * * * * * * * * * * * * * * * * * * * * * * * * //

dimensions      [0 0 -2 0 0 0 0];

internalField   nonuniform List<scalar> 
400
(
4.8643e-23
9.33644e-23
4.52842e-24
2.84277e-25
3.406e-27
4.58703e-27
3.01595e-28
5.67411e-28
6.16217e-28
5.19697e-28
4.32939e-30
4.45327e-29
2.08877e-28
1.88455e-27
2.81791e-27
5.90531e-30
6.81333e-29
1.65916e-28
2.54049e-32
2.03768e-27
1.31632e-26
9.34964e-25
2.67592e-26
4.83021e-27
6.87628e-29
1.00185e-28
5.19764e-28
4.55662e-28
4.33371e-27
8.5031e-27
4.43111e-27
9.8479e-27
1.5826e-27
1.80906e-28
9.11692e-28
1.6246e-29
1.69991e-27
1.31729e-27
2.07244e-27
2.47033e-28
7.39819e-24
5.90595e-23
3.15914e-24
1.85485e-25
4.90946e-28
3.00553e-27
1.55058e-27
5.23018e-31
1.01023e-30
6.34787e-30
5.92424e-28
5.22321e-27
2.90679e-27
4.94627e-27
3.69347e-27
1.74908e-29
2.89023e-27
1.4815e-28
2.32696e-28
9.03295e-31
4.81031e-24
2.08094e-23
1.26767e-24
7.54095e-26
4.5824e-28
7.88463e-28
2.01889e-27
4.37155e-33
2.04493e-27
4.71589e-27
7.3805e-27
7.44992e-27
2.12478e-27
1.9604e-27
2.7623e-28
1.19444e-28
1.36881e-29
6.28652e-28
1.46474e-27
6.09791e-28
4.87871e-25
1.95883e-24
4.46644e-26
1.77068e-26
6.61076e-28
9.98349e-27
6.49431e-27
4.0133e-30
3.67315e-29
2.52229e-27
9.26906e-30
5.32843e-28
1.63844e-29
1.30117e-27
1.91784e-27
3.03967e-28
4.86149e-29
1.48073e-27
1.20489e-29
4.21789e-28
2.26871e-23
5.22604e-23
2.75431e-24
1.81359e-25
4.06458e-27
1.47445e-28
7.87744e-28
9.21817e-30
7.76837e-28
1.06364e-27
7.6605e-30
3.68003e-28
2.63215e-29
4.56813e-28
3.66037e-29
3.75244e-29
1.33975e-29
1.01206e-33
2.40125e-29
3.53839e-29
3.50215e-23
7.65476e-23
4.39322e-24
1.3528e-25
2.68604e-26
8.05332e-29
2.71698e-27
9.88849e-30
1.69567e-28
1.91224e-27
2.60197e-27
6.89235e-28
9.29024e-28
6.79118e-29
1.99363e-29
4.87359e-31
1.33008e-29
1.29452e-29
3.0387e-29
2.1427e-30
6.4453e-25
4.32099e-24
1.9874e-25
6.06518e-27
1.59819e-27
2.89918e-29
3.72805e-30
4.58615e-28
1.39221e-27
4.27658e-27
5.33892e-27
7.78914e-27
8.96994e-28
7.59774e-28
1.48421e-27
2.53701e-30
1.41501e-27
1.32375e-27
1.64763e-30
2.99127e-29
2.6528e-23
4.76064e-23
2.78738e-24
9.04677e-26
3.02665e-26
5.56517e-28
1.82619e-29
3.5113e-28
1.30824e-27
6.12162e-27
4.5652e-27
5.71549e-27
4.56627e-27
9.87243e-28
8.6528e-28
3.50255e-30
4.62456e-30
1.41711e-27
6.98312e-31
3.60796e-28
6.18393e-23
1.2277e-22
6.30716e-24
3.4921e-25
2.0494e-26
1.22181e-28
4.93599e-28
6.12598e-28
4.69076e-28
1.11623e-28
2.4558e-27
3.62628e-27
2.51545e-28
1.61885e-29
6.61461e-28
5.65759e-28
1.53122e-27
8.62359e-30
6.42635e-30
3.81649e-28
6.20184e-23
8.66614e-23
4.79721e-24
2.64236e-25
9.4832e-27
1.90015e-27
4.98824e-28
1.3737e-27
1.06672e-26
6.98274e-27
6.01001e-27
3.22528e-28
2.27075e-27
7.90576e-29
8.51134e-27
4.92488e-28
2.28304e-29
1.74165e-29
2.31431e-29
3.82898e-28
2.07429e-23
1.97353e-23
1.32421e-24
3.35011e-26
8.24503e-27
7.90318e-28
2.48138e-27
3.59926e-29
2.88297e-27
9.52307e-27
4.89294e-28
1.67231e-27
1.21049e-27
4.91109e-29
1.13323e-27
1.59942e-27
7.06201e-29
3.89386e-30
9.00048e-28
3.6832e-30
1.39133e-24
3.23113e-24
2.3261e-25
1.04322e-26
9.09826e-27
5.64098e-29
5.33864e-27
1.73286e-27
5.31318e-27
4.2025e-27
2.75605e-28
2.57848e-27
4.57033e-30
5.06651e-28
1.42991e-29
9.24596e-29
5.72738e-30
7.43103e-29
1.10176e-28
4.53784e-29
2.78177e-23
5.662e-23
2.82192e-24
1.94377e-25
7.99613e-27
2.6944e-28
7.15631e-29
7.67159e-27
9.15855e-27
2.91884e-27
7.13981e-27
6.35155e-27
1.39819e-27
1.79053e-28
7.48419e-28
7.73267e-29
1.6223e-30
2.81264e-27
6.0354e-29
3.08175e-28
3.89685e-23
7.96919e-23
4.40506e-24
2.37103e-25
8.48646e-27
5.63872e-28
4.25114e-28
2.85654e-27
4.50848e-28
4.32467e-27
1.47411e-27
1.90166e-27
1.60265e-27
2.43266e-27
8.34603e-27
1.76011e-28
5.88406e-29
1.30195e-27
7.33852e-29
1.22137e-28
1.24252e-23
2.23804e-23
1.48854e-24
3.05751e-26
1.61167e-26
8.99243e-28
8.43389e-28
2.30757e-28
2.95718e-32
9.98867e-29
3.61272e-30
4.78829e-31
1.75258e-27
2.04665e-30
1.25431e-27
6.23124e-28
6.45867e-28
8.1636e-31
5.68119e-29
5.73607e-28
2.00194e-25
6.23322e-24
2.92488e-25
3.53457e-26
9.77307e-29
3.03639e-27
2.0797e-27
2.02324e-27
1.22683e-27
9.25591e-28
5.92744e-28
1.31564e-27
4.47025e-29
1.52683e-27
5.59592e-28
2.12786e-28
2.87755e-28
2.33149e-29
1.1038e-28
8.08833e-30
6.75495e-24
4.95893e-23
2.63819e-24
1.26724e-25
2.59991e-26
2.31273e-27
5.56982e-27
9.67381e-27
2.59412e-27
3.19806e-27
3.51352e-27
1.67838e-27
2.12984e-27
4.61861e-28
2.60645e-27
1.07448e-27
5.53737e-30
1.02141e-29
3.80147e-28
2.13362e-30
1.96954e-24
5.1597e-24
4.52727e-25
1.4769e-27
1.94051e-26
8.09024e-27
1.07475e-26
4.10827e-27
2.20752e-27
1.69187e-29
1.45449e-27
8.59865e-30
1.06477e-28
1.49796e-29
4.77088e-27
5.49945e-28
5.06488e-29
3.4814e-29
4.93206e-29
1.9043e-28
1.61512e-23
3.74561e-23
1.53674e-24
1.3206e-25
2.01495e-27
2.93141e-27
5.58696e-28
9.51808e-29
5.81971e-28
5.04981e-28
3.27578e-29
9.92295e-30
7.67476e-28
3.07694e-28
2.42599e-28
4.97993e-28
2.07022e-29
8.20542e-30
2.50531e-28
6.47993e-28
)
;

boundaryField
{
    movingWall
    {
        type            calculated;
        value           nonuniform List<scalar> 
20
(
7.35149e-23
5.61425e-23
1.28785e-24
3.32103e-25
3.5029e-26
5.55182e-26
4.20731e-26
3.19176e-26
3.73916e-26
9.50843e-27
2.28874e-26
9.47812e-27
1.05561e-26
8.86664e-28
8.21107e-27
4.34984e-27
2.07022e-29
8.20542e-30
7.87579e-28
1.42064e-27
)
;
    }
    fixedWalls
    {
        type            calculated;
        value           nonuniform List<scalar> 
60
(
1.64849e-21
1.78897e-23
1.07078e-21
3.96502e-22
3.23209e-23
9.58349e-22
1.42577e-21
7.71408e-23
8.71028e-22
2.2146e-21
1.60493e-21
3.82687e-22
6.50378e-23
1.01984e-21
1.4387e-21
4.14425e-22
1.08095e-22
8.9011e-22
1.04794e-22
6.48057e-22
2.04073e-27
6.26782e-32
2.84495e-28
4.23577e-28
5.87807e-28
1.63136e-28
1.65869e-28
2.51941e-28
3.22362e-28
3.16702e-28
2.9144e-28
4.03744e-28
3.95795e-28
8.84591e-28
1.11387e-29
3.02173e-28
1.28827e-28
2.83993e-29
1.87584e-29
8.72526e-28
2.06243e-22
1.40172e-22
4.77644e-24
5.38496e-25
1.6933e-27
3.47466e-26
1.53284e-26
3.72742e-26
9.97264e-27
3.688e-26
4.20999e-27
1.41453e-26
1.23554e-26
1.45271e-26
1.94879e-29
5.90531e-30
6.81333e-29
2.49229e-27
2.54049e-32
4.84583e-27
)
;
    }
    frontAndBack
    {
        type            empty;
    }
}


// ************************************************************************* //
