/*--------------------------------*- C++ -*----------------------------------*\
| =========                 |                                                 |
| \\      /  F ield         | OpenFOAM: The Open Source CFD Toolbox           |
|  \\    /   O peration     | Version:  2312                                  |
|   \\  /    A nd           | Website:  www.openfoam.com                      |
|    \\/     M anipulation  |                                                 |
\*---------------------------------------------------------------------------*/
FoamFile
{
    version     2.0;
    format      ascii;
    arch        "LSB;label=32;scalar=64";
    class       surfaceScalarField;
    location    "9.375";
    object      fluxField;
}
// * * * * * * * * * * * * * * * * * * * * * * * * * * * * * * * * * * * * * //

dimensions      [0 3 -1 0 0 0 0];

oriented        oriented;

internalField   nonuniform List<scalar> 
760
(
-5e-05
4.17431e-18
-5e-05
-9.02e-19
-5e-05
2.19717e-19
-5e-05
-4.43667e-20
-5e-05
1.34156e-20
-5e-05
-4.72408e-22
-5e-05
-2.1467e-22
-5e-05
-1.12029e-21
-5e-05
-1.08942e-21
-5e-05
-1.74574e-22
-5e-05
3.12383e-21
-5e-05
2.29583e-21
-5e-05
6.6873e-21
-5e-05
7.91809e-21
-5e-05
6.46208e-21
-5e-05
2.45832e-21
-5e-05
4.17787e-21
-5e-05
-1.48447e-21
-5e-05
-6.43198e-21
-3.97076e-21
-5e-05
-2.80815e-18
-5e-05
6.4719e-19
-5e-05
-1.41566e-19
-5e-05
3.59626e-20
-5e-05
-7.09371e-21
-5e-05
3.95549e-21
-5e-05
2.27533e-21
-5e-05
3.04083e-21
-5e-05
2.79041e-21
-5e-05
5.63143e-21
-5e-05
9.17808e-21
-5e-05
7.00834e-21
-5e-05
5.15905e-21
-5e-05
2.01165e-21
-5e-05
-1.39841e-21
-5e-05
-3.04539e-21
-5e-05
2.47418e-21
-5e-05
1.38497e-21
-5e-05
-7.88496e-21
-6.55091e-21
-5e-05
-1.34066e-18
-5e-05
3.20955e-19
-5e-05
-6.02278e-20
-5e-05
2.28571e-20
-5e-05
1.72829e-21
-5e-05
9.03918e-21
-5e-05
1.07099e-20
-5e-05
1.1742e-20
-5e-05
1.04776e-20
-5e-05
8.95123e-21
-5e-05
7.41782e-21
-5e-05
3.85344e-21
-5e-05
-1.2165e-21
-5e-05
-4.40038e-21
-5e-05
-7.85457e-21
-5e-05
-4.65826e-21
-5e-05
1.30706e-21
-5e-05
2.10462e-21
-5e-05
-5.08464e-21
-3.30996e-21
-5e-05
2.498e-18
-5e-05
-5.33718e-19
-5e-05
1.39633e-19
-5e-05
-2.02719e-20
-5e-05
1.58269e-20
-5e-05
5.31113e-21
-5e-05
3.98088e-21
-5e-05
6.25765e-21
-5e-05
1.00722e-20
-5e-05
5.96496e-21
-5e-05
1.91792e-21
-5e-05
1.6199e-21
-5e-05
-1.08307e-22
-5e-05
-2.55581e-21
-5e-05
-3.00911e-21
-5e-05
2.75008e-22
-5e-05
2.42709e-22
-5e-05
-8.82064e-22
-5e-05
-1.79336e-21
3.23834e-22
-5e-05
-2.32862e-18
-5e-05
5.12091e-19
-5e-05
-1.11711e-19
-5e-05
3.39309e-20
-5e-05
5.36086e-21
-5e-05
9.07638e-21
-5e-05
1.43287e-21
-5e-05
4.54269e-21
-5e-05
8.57429e-21
-5e-05
3.60754e-21
-5e-05
-3.83823e-22
-5e-05
1.55259e-21
-5e-05
9.95032e-22
-5e-05
-1.69239e-21
-5e-05
-5.84527e-22
-5e-05
2.37731e-21
-5e-05
9.69062e-22
-5e-05
-1.38192e-21
-5e-05
1.01011e-21
1.57783e-21
-5e-05
6.26638e-19
-5e-05
-1.16711e-19
-5e-05
3.50225e-20
-5e-05
3.69378e-21
-5e-05
1.48914e-20
-5e-05
1.19926e-20
-5e-05
8.80476e-21
-5e-05
6.94585e-21
-5e-05
4.21372e-21
-5e-05
1.69558e-21
-5e-05
1.36744e-21
-5e-05
5.19909e-21
-5e-05
3.86702e-21
-5e-05
6.08951e-22
-5e-05
-7.7595e-22
-5e-05
1.16936e-21
-5e-05
1.63664e-21
-5e-05
-1.41415e-21
-5e-05
3.53327e-22
2.26729e-21
-5e-05
2.62724e-18
-5e-05
-5.54513e-19
-5e-05
1.40129e-19
-5e-05
-1.85137e-20
-5e-05
1.72963e-20
-5e-05
4.96779e-21
-5e-05
5.01293e-21
-5e-05
2.3852e-21
-5e-05
-1.44674e-21
-5e-05
-1.47769e-22
-5e-05
3.25333e-21
-5e-05
9.83892e-21
-5e-05
9.8572e-21
-5e-05
4.09901e-21
-5e-05
2.18734e-21
-5e-05
2.58865e-21
-5e-05
1.87102e-21
-5e-05
1.04619e-21
-5e-05
-9.01069e-23
2.54131e-21
-5e-05
-3.55095e-18
-5e-05
7.82049e-19
-5e-05
-1.7331e-19
-5e-05
4.77125e-20
-5e-05
-5.55257e-21
-5e-05
-8.25271e-22
-5e-05
-2.24426e-21
-5e-05
3.75747e-21
-5e-05
3.5856e-21
-5e-05
4.16151e-21
-5e-05
5.82038e-21
-5e-05
6.10663e-21
-5e-05
3.51842e-21
-5e-05
-4.19322e-22
-5e-05
2.15497e-21
-5e-05
3.27268e-21
-5e-05
9.30155e-22
-5e-05
2.25933e-21
-5e-05
4.84258e-22
1.51006e-21
-5e-05
1.62713e-18
-5e-05
-3.6291e-19
-5e-05
8.81387e-20
-5e-05
-1.78344e-20
-5e-05
5.87986e-21
-5e-05
-1.62428e-21
-5e-05
4.07559e-22
-5e-05
4.71977e-21
-5e-05
9.00705e-21
-5e-05
1.13796e-20
-5e-05
1.14907e-20
-5e-05
3.85194e-21
-5e-05
-2.6474e-21
-5e-05
-8.79203e-22
-5e-05
1.21885e-21
-5e-05
4.27803e-22
-5e-05
-1.07608e-21
-5e-05
-6.14813e-22
-5e-05
2.05331e-22
-1.39932e-23
-5e-05
7.6592e-19
-5e-05
-1.80409e-19
-5e-05
3.81545e-20
-5e-05
-1.26547e-20
-5e-05
4.18958e-21
-5e-05
3.52943e-21
-5e-05
2.14068e-21
-5e-05
-3.2883e-21
-5e-05
3.66651e-21
-5e-05
1.20176e-20
-5e-05
1.59225e-20
-5e-05
8.35329e-21
-5e-05
1.83508e-21
-5e-05
3.88933e-21
-5e-05
1.13999e-22
-5e-05
-3.94009e-21
-5e-05
-2.58907e-21
-5e-05
-2.53308e-21
-5e-05
-7.5334e-23
6.40397e-23
-5e-05
-1.88474e-18
-5e-05
4.19295e-19
-5e-05
-9.63085e-20
-5e-05
2.46673e-20
-5e-05
3.90971e-22
-5e-05
8.78854e-21
-5e-05
5.41314e-21
-5e-05
-1.82492e-21
-5e-05
3.09374e-22
-5e-05
6.24038e-21
-5e-05
1.01451e-20
-5e-05
7.58862e-21
-5e-05
4.70128e-21
-5e-05
3.04182e-21
-5e-05
-9.19996e-22
-5e-05
-4.12155e-21
-5e-05
-1.40278e-21
-5e-05
5.38886e-22
-5e-05
7.7037e-22
-1.59089e-21
-5e-05
2.40633e-18
-5e-05
-5.21362e-19
-5e-05
1.32402e-19
-5e-05
-1.85345e-20
-5e-05
1.80265e-20
-5e-05
1.34112e-20
-5e-05
1.17579e-20
-5e-05
5.19021e-21
-5e-05
-8.38611e-22
-5e-05
-1.59741e-21
-5e-05
-2.80889e-21
-5e-05
3.5372e-22
-5e-05
2.49723e-21
-5e-05
-1.42125e-22
-5e-05
-1.16228e-21
-5e-05
-4.55877e-22
-5e-05
2.82437e-21
-5e-05
3.36136e-21
-5e-05
4.74285e-22
-3.53447e-21
-5e-05
-2.17084e-18
-5e-05
4.79204e-19
-5e-05
-9.85765e-20
-5e-05
3.54734e-20
-5e-05
7.63488e-21
-5e-05
1.72531e-20
-5e-05
1.27285e-20
-5e-05
8.75828e-21
-5e-05
9.2538e-22
-5e-05
-3.4141e-21
-5e-05
-7.21418e-21
-5e-05
-5.2766e-21
-5e-05
-3.88568e-21
-5e-05
-4.18843e-21
-5e-05
-3.02217e-21
-5e-05
1.02878e-21
-5e-05
4.04473e-21
-5e-05
1.42458e-21
-5e-05
-4.20095e-21
-4.3873e-21
-5e-05
5.53628e-19
-5e-05
-1.16441e-19
-5e-05
3.7475e-20
-5e-05
4.58088e-21
-5e-05
7.64121e-21
-5e-05
5.53578e-21
-5e-05
6.99482e-21
-5e-05
9.83457e-21
-5e-05
8.47668e-21
-5e-05
-2.941e-21
-5e-05
-6.76991e-21
-5e-05
-5.68847e-21
-5e-05
-5.97664e-21
-5e-05
-4.75482e-21
-5e-05
-4.58488e-23
-5e-05
4.31983e-21
-5e-05
1.53572e-21
-5e-05
1.15749e-21
-5e-05
-4.45762e-21
-4.61791e-21
-5e-05
1.63115e-18
-5e-05
-3.58651e-19
-5e-05
8.6573e-20
-5e-05
-1.40792e-20
-5e-05
3.34311e-21
-5e-05
-6.06451e-21
-5e-05
-2.10198e-21
-5e-05
4.51009e-21
-5e-05
8.61245e-21
-5e-05
-1.47458e-21
-5e-05
-4.61901e-21
-5e-05
-2.12475e-21
-5e-05
-2.50913e-21
-5e-05
-2.77201e-21
-5e-05
1.88211e-21
-5e-05
3.45333e-21
-5e-05
-2.25288e-21
-5e-05
-1.4676e-21
-5e-05
-2.72886e-21
-1.83146e-21
-5e-05
-2.94194e-18
-5e-05
6.4303e-19
-5e-05
-1.49486e-19
-5e-05
3.40172e-20
-5e-05
-7.64267e-21
-5e-05
-5.9548e-22
-5e-05
1.23721e-21
-5e-05
5.26026e-21
-5e-05
4.25748e-21
-5e-05
-2.86304e-22
-5e-05
-3.25612e-21
-5e-05
-2.78977e-21
-5e-05
-2.28294e-21
-5e-05
-1.67449e-21
-5e-05
-2.03961e-21
-5e-05
-2.23081e-21
-5e-05
-2.47e-21
-5e-05
-5.21854e-21
-5e-05
-3.8577e-21
1.16082e-21
-5e-05
1.89765e-18
-5e-05
-4.1866e-19
-5e-05
9.41205e-20
-5e-05
-2.88339e-20
-5e-05
8.49877e-22
-5e-05
-2.2123e-21
-5e-05
3.45327e-21
-5e-05
6.41584e-21
-5e-05
1.99545e-21
-5e-05
-1.51294e-21
-5e-05
-2.3195e-21
-5e-05
-2.71635e-21
-5e-05
-6.59117e-22
-5e-05
2.41154e-21
-5e-05
-9.9651e-23
-5e-05
-1.45442e-21
-5e-05
-4.44056e-22
-5e-05
-3.06521e-21
-5e-05
-1.02127e-21
5.32194e-22
-5e-05
2.02021e-18
-5e-05
-4.45528e-19
-5e-05
9.64243e-20
-5e-05
-3.46181e-20
-5e-05
-2.29485e-21
-5e-05
-6.53233e-21
-5e-05
-3.54026e-21
-5e-05
-3.24656e-21
-5e-05
-4.98013e-21
-5e-05
-1.85062e-21
-5e-05
7.02224e-24
-5e-05
-1.15377e-21
-5e-05
1.97561e-21
-5e-05
4.73829e-21
-5e-05
1.42917e-21
-5e-05
-1.63206e-21
-5e-05
-2.04903e-21
-5e-05
5.21376e-23
-5e-05
1.167e-21
-2.54791e-21
-5e-05
-3.32941e-18
-5e-05
7.14399e-19
-5e-05
-1.72784e-19
-5e-05
3.1451e-20
-5e-05
-1.03863e-20
-5e-05
2.11114e-22
-5e-05
-2.71587e-21
-5e-05
-7.75612e-21
-5e-05
-8.49765e-21
-5e-05
-2.28587e-21
-5e-05
-2.00692e-21
-5e-05
-4.24062e-21
-5e-05
1.43539e-22
-5e-05
1.90576e-21
-5e-05
-1.79934e-21
-5e-05
-3.45538e-21
-5e-05
-2.20068e-21
-5e-05
6.69439e-22
-5e-05
-1.12735e-21
-2.99368e-21
-5e-05
-5e-05
-5e-05
-5e-05
-5e-05
-5e-05
-5e-05
-5e-05
-5e-05
-5e-05
-5e-05
-5e-05
-5e-05
-5e-05
-5e-05
-5e-05
-5e-05
-5e-05
-5e-05
)
;

boundaryField
{
    movingWall
    {
        type            calculated;
        value           uniform -0;
    }
    fixedWalls
    {
        type            calculated;
        value           nonuniform List<scalar> 
60
(
5e-05
5e-05
5e-05
5e-05
5e-05
5e-05
5e-05
5e-05
5e-05
5e-05
5e-05
5e-05
5e-05
5e-05
5e-05
5e-05
5e-05
5e-05
5e-05
5e-05
-5e-05
-5e-05
-5e-05
-5e-05
-5e-05
-5e-05
-5e-05
-5e-05
-5e-05
-5e-05
-5e-05
-5e-05
-5e-05
-5e-05
-5e-05
-5e-05
-5e-05
-5e-05
-5e-05
-5e-05
0
0
0
0
0
0
0
0
0
0
0
0
0
0
0
0
0
0
0
0
)
;
    }
    frontAndBack
    {
        type            empty;
        value           nonuniform List<scalar> 0();
    }
}


// ************************************************************************* //
