/*--------------------------------*- C++ -*----------------------------------*\
| =========                 |                                                 |
| \\      /  F ield         | OpenFOAM: The Open Source CFD Toolbox           |
|  \\    /   O peration     | Version:  2312                                  |
|   \\  /    A nd           | Website:  www.openfoam.com                      |
|    \\/     M anipulation  |                                                 |
\*---------------------------------------------------------------------------*/
FoamFile
{
    version     2.0;
    format      ascii;
    arch        "LSB;label=32;scalar=64";
    class       volTensorField;
    location    "9.375";
    object      gradU;
}
// * * * * * * * * * * * * * * * * * * * * * * * * * * * * * * * * * * * * * //

dimensions      [0 0 -1 0 0 0 0];

internalField   nonuniform List<tensor> 
400
(
(-1.51788e-12 1.15168e-11 0 1.65341e-12 1.66972e-11 0 0 0 0)
(2.19551e-12 -1.39901e-11 0 -3.25261e-13 -3.608e-12 0 0 0 0)
(-5.96311e-13 3.09077e-12 0 8.13152e-14 8.7887e-13 0 0 0 0)
(5.42101e-14 -7.2692e-13 0 2.71051e-14 -1.77467e-13 0 0 0 0)
(-2.71051e-14 1.6385e-13 0 8.13152e-14 5.36623e-14 0 0 0 0)
(-2.71051e-14 -4.15712e-14 0 5.42101e-14 -1.88963e-15 0 0 0 0)
(2.71051e-14 2.54513e-15 0 2.71051e-14 -8.58681e-16 0 0 0 0)
(0 -6.58208e-15 0 2.71051e-14 -4.48116e-15 0 0 0 0)
(-2.71051e-14 -8.001e-15 0 2.71051e-14 -4.35768e-15 0 0 0 0)
(0 -5.13457e-15 0 2.71051e-14 -6.98297e-16 0 0 0 0)
(-2.71051e-14 -2.94258e-15 0 0 1.24953e-14 0 0 0 0)
(2.71051e-14 9.43745e-15 0 0 9.18331e-15 0 0 0 0)
(0 2.04391e-14 0 0 2.67492e-14 0 0 0 0)
(-2.71051e-14 7.18284e-15 0 -5.42101e-14 3.16724e-14 0 0 0 0)
(-5.42101e-14 -6.24307e-15 0 -8.13152e-14 2.58483e-14 0 0 0 0)
(0 -3.43666e-15 0 0 9.83327e-15 0 0 0 0)
(0 -1.16733e-14 0 0 1.67115e-14 0 0 0 0)
(-5.42101e-14 -1.82162e-14 0 0 -5.93787e-15 0 0 0 0)
(0 2.2541e-16 0 0 -2.57279e-14 0 0 0 0)
(5.42101e-14 9.62843e-15 0 -5.42101e-14 -1.5883e-14 0 0 0 0)
(2.87314e-12 1.57247e-12 0 1.73472e-12 -2.79298e-11 0 0 0 0)
(-3.7676e-12 -1.82824e-12 0 -4.60786e-13 6.19676e-12 0 0 0 0)
(9.48677e-13 3.3976e-13 0 1.0842e-13 -1.44514e-12 0 0 0 0)
(-1.0842e-13 -9.82875e-14 0 0 3.21317e-13 0 0 0 0)
(2.71051e-14 1.17271e-14 0 0 -8.20372e-14 0 0 0 0)
(0 -1.29498e-14 0 -2.71051e-14 1.77116e-14 0 0 0 0)
(0 -5.13665e-15 0 2.71051e-14 9.96001e-15 0 0 0 0)
(-2.71051e-14 3.08308e-15 0 -2.71051e-14 1.66445e-14 0 0 0 0)
(0 1.17839e-14 0 -8.13152e-14 1.55193e-14 0 0 0 0)
(0 2.19876e-14 0 -1.0842e-13 2.3224e-14 0 0 0 0)
(0 1.28242e-14 0 -8.13152e-14 2.4217e-14 0 0 0 0)
(-5.42101e-14 4.81645e-15 0 -1.35525e-13 1.88501e-14 0 0 0 0)
(0 2.05001e-15 0 -5.42101e-14 -6.113e-15 0 0 0 0)
(0 -8.08372e-15 0 -2.71051e-14 -2.36258e-14 0 0 0 0)
(5.42101e-14 -1.5596e-14 0 2.71051e-14 -3.1442e-14 0 0 0 0)
(2.71051e-14 -5.70017e-15 0 0 -2.20148e-14 0 0 0 0)
(5.42101e-14 -4.0978e-15 0 5.42101e-14 -6.81478e-15 0 0 0 0)
(0 -2.42232e-14 0 2.71051e-14 1.14778e-14 0 0 0 0)
(-5.42101e-14 -1.01706e-14 0 5.42101e-14 -5.81192e-15 0 0 0 0)
(5.42101e-14 3.19825e-14 0 5.42101e-14 -1.03206e-14 0 0 0 0)
(-2.1684e-13 -1.02163e-11 0 -6.36969e-12 5.86995e-12 0 0 0 0)
(5.42101e-13 1.24946e-11 0 1.6263e-12 -1.30494e-12 0 0 0 0)
(-1.89735e-13 -2.78467e-12 0 -2.71051e-13 3.25355e-13 0 0 0 0)
(-2.71051e-14 6.36178e-13 0 2.71051e-14 -5.24216e-14 0 0 0 0)
(0 -1.39755e-13 0 -1.0842e-13 3.5288e-14 0 0 0 0)
(0 5.0426e-14 0 -2.71051e-14 2.03348e-14 0 0 0 0)
(-2.71051e-14 1.478e-15 0 -5.42101e-14 3.37383e-14 0 0 0 0)
(-2.71051e-14 -1.02276e-15 0 0 3.48049e-14 0 0 0 0)
(-1.0842e-13 -1.42143e-15 0 0 3.07487e-14 0 0 0 0)
(-2.71051e-14 3.56311e-15 0 0 1.32792e-14 0 0 0 0)
(0 -7.31656e-15 0 2.71051e-14 -7.04105e-15 0 0 0 0)
(2.71051e-14 -2.08926e-14 0 8.13152e-14 -1.26196e-14 0 0 0 0)
(5.42101e-14 -2.20368e-14 0 5.42101e-14 -2.55022e-14 0 0 0 0)
(0 -1.81461e-14 0 8.13152e-14 -2.56481e-14 0 0 0 0)
(5.42101e-14 -4.63212e-15 0 8.13152e-14 -2.58246e-14 0 0 0 0)
(0 2.11905e-14 0 2.71051e-14 -6.45146e-15 0 0 0 0)
(0 2.18193e-14 0 -5.42101e-14 -4.66847e-15 0 0 0 0)
(0 -1.72134e-14 0 0 2.87858e-15 0 0 0 0)
(0 -2.1573e-14 0 0 1.12013e-14 0 0 0 0)
(-5.42101e-14 2.5761e-14 0 2.71051e-14 1.29638e-14 0 0 0 0)
(-1.92446e-12 6.13748e-12 0 3.03577e-12 1.53546e-11 0 0 0 0)
(2.33103e-12 -7.37283e-12 0 -9.21572e-13 -3.41869e-12 0 0 0 0)
(-6.23416e-13 1.59228e-12 0 0 7.99442e-13 0 0 0 0)
(1.0842e-13 -3.88354e-13 0 0 -1.72516e-13 0 0 0 0)
(-5.42101e-14 8.44835e-14 0 5.42101e-14 5.63943e-14 0 0 0 0)
(0 -1.44996e-14 0 -5.42101e-14 -1.49122e-14 0 0 0 0)
(0 9.33348e-15 0 -5.42101e-14 -2.69161e-14 0 0 0 0)
(5.42101e-14 9.35045e-17 0 0 -2.19376e-14 0 0 0 0)
(0 -9.74183e-15 0 5.42101e-14 -1.62139e-15 0 0 0 0)
(8.13152e-14 -1.58022e-14 0 8.13152e-14 -1.19451e-14 0 0 0 0)
(2.71051e-14 -1.30746e-14 0 1.0842e-13 -2.19996e-14 0 0 0 0)
(2.71051e-14 -1.36447e-14 0 1.0842e-13 -8.93413e-15 0 0 0 0)
(-2.71051e-14 -1.09785e-14 0 5.42101e-14 4.43277e-15 0 0 0 0)
(0 -8.40614e-15 0 5.42101e-14 7.37825e-15 0 0 0 0)
(0 3.60059e-15 0 2.71051e-14 1.93818e-14 0 0 0 0)
(-8.13152e-14 1.5456e-14 0 0 1.97331e-14 0 0 0 0)
(0 5.23223e-15 0 0 -4.25741e-15 0 0 0 0)
(5.42101e-14 -8.35344e-15 0 2.71051e-14 -1.19467e-14 0 0 0 0)
(0 -8.53623e-17 0 -5.42101e-14 1.31651e-14 0 0 0 0)
(0 7.81747e-15 0 -2.71051e-14 1.45352e-14 0 0 0 0)
(1.92446e-12 1.71963e-12 0 7.31836e-13 -1.93065e-11 0 0 0 0)
(-2.49366e-12 -2.06062e-12 0 -8.13152e-14 4.18324e-12 0 0 0 0)
(7.31836e-13 4.6151e-13 0 1.6263e-13 -1.00537e-12 0 0 0 0)
(-8.13152e-14 -1.0687e-13 0 8.13152e-14 2.16811e-13 0 0 0 0)
(0 1.78487e-14 0 5.42101e-14 -4.1864e-14 0 0 0 0)
(-2.71051e-14 -3.28843e-14 0 1.0842e-13 1.5061e-14 0 0 0 0)
(-2.71051e-14 -5.54741e-15 0 1.0842e-13 -1.0192e-14 0 0 0 0)
(0 2.42719e-14 0 2.71051e-14 -6.85986e-15 0 0 0 0)
(0 8.57106e-15 0 0 -5.99179e-15 0 0 0 0)
(0 -1.68151e-14 0 5.42101e-14 -9.42966e-15 0 0 0 0)
(0 -4.30559e-15 0 0 -9.20697e-15 0 0 0 0)
(2.71051e-14 5.5398e-15 0 -2.71051e-14 -2.69239e-16 0 0 0 0)
(0 -5.72441e-15 0 0 4.41336e-15 0 0 0 0)
(-2.71051e-14 -3.19706e-15 0 -5.42101e-14 3.45368e-15 0 0 0 0)
(0 7.7227e-15 0 -5.42101e-14 9.69832e-15 0 0 0 0)
(0 -2.44872e-15 0 -2.71051e-14 8.40922e-15 0 0 0 0)
(0 -9.86052e-15 0 0 2.90541e-15 0 0 0 0)
(0 2.09173e-16 0 -5.42101e-14 -1.99941e-15 0 0 0 0)
(-5.42101e-14 4.90895e-15 0 0 1.12139e-14 0 0 0 0)
(0 -1.93938e-15 0 2.71051e-14 5.01597e-15 0 0 0 0)
(-1.30104e-12 -8.98576e-12 0 -2.24972e-12 1.1821e-11 0 0 0 0)
(1.78893e-12 1.09283e-11 0 7.04731e-13 -2.51521e-12 0 0 0 0)
(-4.60786e-13 -2.37415e-12 0 -2.71051e-14 5.86932e-13 0 0 0 0)
(2.71051e-14 5.75155e-13 0 -2.71051e-14 -1.20949e-13 0 0 0 0)
(-2.71051e-14 -1.17267e-13 0 -2.71051e-14 3.81222e-14 0 0 0 0)
(2.71051e-14 1.71724e-14 0 0 1.1665e-14 0 0 0 0)
(-2.71051e-14 -1.25874e-14 0 2.71051e-14 2.94876e-14 0 0 0 0)
(-2.71051e-14 4.29376e-15 0 0 9.61267e-15 0 0 0 0)
(0 -1.23116e-14 0 2.71051e-14 -1.74423e-14 0 0 0 0)
(2.71051e-14 -1.90173e-14 0 2.71051e-14 -7.64784e-15 0 0 0 0)
(-2.71051e-14 -3.9142e-15 0 0 7.00505e-15 0 0 0 0)
(0 -2.43752e-17 0 2.71051e-14 1.4586e-14 0 0 0 0)
(-5.42101e-14 -7.25554e-15 0 0 1.1488e-14 0 0 0 0)
(-2.71051e-14 -3.12118e-15 0 2.71051e-14 9.20538e-15 0 0 0 0)
(2.71051e-14 8.55613e-15 0 0 -7.65692e-16 0 0 0 0)
(0 8.66307e-15 0 0 -4.83179e-15 0 0 0 0)
(0 -5.17639e-15 0 0 2.67031e-15 0 0 0 0)
(5.42101e-14 -4.49903e-17 0 0 -1.28943e-16 0 0 0 0)
(2.71051e-14 6.93001e-15 0 0 -2.62712e-15 0 0 0 0)
(-2.71051e-14 -8.41236e-15 0 0 2.75787e-15 0 0 0 0)
(4.06576e-13 1.10255e-11 0 2.6563e-12 8.0024e-12 0 0 0 0)
(-2.1684e-13 -1.32947e-11 0 -9.21572e-13 -1.75121e-12 0 0 0 0)
(-5.42101e-14 2.85577e-12 0 -1.0842e-13 4.20427e-13 0 0 0 0)
(-8.13152e-14 -6.5568e-13 0 -1.35525e-13 -8.88297e-14 0 0 0 0)
(2.71051e-14 1.50462e-13 0 -8.13152e-14 9.61975e-15 0 0 0 0)
(0 -4.15189e-14 0 -5.42101e-14 -2.80994e-14 0 0 0 0)
(-2.71051e-14 -7.59977e-15 0 -8.13152e-14 -1.51673e-14 0 0 0 0)
(0 -2.26579e-14 0 -2.71051e-14 -1.82426e-14 0 0 0 0)
(5.42101e-14 -8.68945e-15 0 -2.71051e-14 -2.26419e-14 0 0 0 0)
(2.71051e-14 7.63221e-15 0 -5.42101e-14 -7.3734e-15 0 0 0 0)
(0 1.79282e-14 0 -5.42101e-14 7.54358e-15 0 0 0 0)
(0 1.00227e-14 0 -2.71051e-14 1.85593e-14 0 0 0 0)
(-2.71051e-14 -1.1105e-14 0 -5.42101e-14 2.39607e-14 0 0 0 0)
(-2.71051e-14 -1.54507e-14 0 -2.71051e-14 1.39602e-14 0 0 0 0)
(-2.71051e-14 -6.31447e-15 0 0 1.18532e-14 0 0 0 0)
(0 9.87278e-16 0 0 5.67716e-15 0 0 0 0)
(0 -5.15767e-15 0 0 9.37533e-16 0 0 0 0)
(-5.42101e-14 -5.08826e-15 0 0 9.84136e-15 0 0 0 0)
(0 7.79576e-15 0 0 -1.77374e-15 0 0 0 0)
(0 -2.07012e-15 0 0 1.09607e-15 0 0 0 0)
(4.33681e-13 -2.73457e-12 0 -1.5992e-12 -2.47128e-11 0 0 0 0)
(-1.0571e-12 3.3463e-12 0 4.06576e-13 5.34625e-12 0 0 0 0)
(4.06576e-13 -7.11776e-13 0 -8.13152e-14 -1.25376e-12 0 0 0 0)
(8.13152e-14 1.64348e-13 0 5.42101e-14 2.64905e-13 0 0 0 0)
(0 -5.65366e-14 0 0 -9.13956e-14 0 0 0 0)
(5.42101e-14 -7.6147e-15 0 0 -2.31722e-14 0 0 0 0)
(0 -2.73058e-15 0 0 -2.90288e-14 0 0 0 0)
(2.71051e-14 -3.18076e-15 0 2.71051e-14 5.4891e-15 0 0 0 0)
(-2.71051e-14 -1.44242e-15 0 -5.42101e-14 2.01294e-14 0 0 0 0)
(0 1.11681e-14 0 -8.13152e-14 1.72371e-14 0 0 0 0)
(0 2.20185e-14 0 -8.13152e-14 1.02682e-14 0 0 0 0)
(-5.42101e-14 1.63928e-14 0 -1.0842e-13 -1.49291e-14 0 0 0 0)
(5.42101e-14 -1.18546e-14 0 -5.42101e-14 -2.53551e-14 0 0 0 0)
(2.71051e-14 -1.52287e-14 0 -5.42101e-14 -1.80733e-14 0 0 0 0)
(0 2.73059e-16 0 -5.42101e-14 -1.29472e-16 0 0 0 0)
(0 -2.25256e-15 0 0 2.73611e-15 0 0 0 0)
(0 -1.01219e-15 0 -5.42101e-14 -3.76347e-15 0 0 0 0)
(5.42101e-14 -2.75626e-15 0 -5.42101e-14 4.85255e-15 0 0 0 0)
(2.71051e-14 -1.81528e-15 0 0 2.29746e-15 0 0 0 0)
(-2.71051e-14 -7.73469e-15 0 0 -4.12501e-15 0 0 0 0)
(-7.86047e-13 -8.34105e-12 0 -1.0571e-12 2.07123e-11 0 0 0 0)
(1.32815e-12 1.01643e-11 0 4.06576e-13 -4.57984e-12 0 0 0 0)
(-4.60786e-13 -2.22557e-12 0 1.35525e-13 1.04579e-12 0 0 0 0)
(0 5.0668e-13 0 8.13152e-14 -2.62188e-13 0 0 0 0)
(0 -1.37615e-13 0 1.0842e-13 4.57298e-14 0 0 0 0)
(2.71051e-14 2.08479e-14 0 5.42101e-14 -3.19605e-15 0 0 0 0)
(-2.71051e-14 2.10616e-14 0 2.71051e-14 1.06073e-14 0 0 0 0)
(-2.71051e-14 2.65002e-14 0 0 3.84919e-15 0 0 0 0)
(-2.71051e-14 3.05856e-15 0 5.42101e-14 2.16858e-14 0 0 0 0)
(-2.71051e-14 -2.22894e-15 0 1.0842e-13 2.88724e-14 0 0 0 0)
(-8.13152e-14 -1.4238e-14 0 8.13152e-14 2.26814e-14 0 0 0 0)
(2.71051e-14 -2.56006e-14 0 8.13152e-14 -9.01875e-15 0 0 0 0)
(5.42101e-14 -1.42492e-14 0 8.13152e-14 -2.46633e-14 0 0 0 0)
(0 9.77492e-15 0 5.42101e-14 -1.83953e-15 0 0 0 0)
(0 1.4495e-14 0 -2.71051e-14 -3.7445e-15 0 0 0 0)
(0 -2.64672e-15 0 0 -1.13795e-14 0 0 0 0)
(0 -3.04124e-15 0 0 -8.02494e-15 0 0 0 0)
(-5.42101e-14 9.72672e-16 0 5.42101e-14 -1.14966e-14 0 0 0 0)
(0 -1.18179e-15 0 0 -1.11571e-15 0 0 0 0)
(5.42101e-14 -2.42577e-16 0 -2.71051e-14 -6.0962e-15 0 0 0 0)
(-1.89735e-13 1.33979e-11 0 2.27682e-12 -3.44482e-12 0 0 0 0)
(1.0842e-13 -1.63202e-11 0 -6.50521e-13 7.30005e-13 0 0 0 0)
(8.13152e-14 3.60587e-12 0 5.42101e-14 -1.99937e-13 0 0 0 0)
(5.42101e-14 -8.35715e-13 0 0 2.07189e-14 0 0 0 0)
(0 2.02455e-13 0 0 -6.76112e-15 0 0 0 0)
(-5.42101e-14 -4.27372e-14 0 -2.71051e-14 2.06149e-14 0 0 0 0)
(-5.42101e-14 4.31465e-15 0 -2.71051e-14 6.9325e-15 0 0 0 0)
(5.42101e-14 7.89775e-15 0 -2.71051e-14 -3.20323e-14 0 0 0 0)
(2.71051e-14 2.35808e-14 0 5.42101e-14 -2.13621e-14 0 0 0 0)
(2.71051e-14 1.21637e-14 0 2.71051e-14 2.55175e-15 0 0 0 0)
(0 -1.58727e-14 0 5.42101e-14 1.77273e-14 0 0 0 0)
(0 -3.09519e-14 0 5.42101e-14 1.80054e-14 0 0 0 0)
(-5.42101e-14 -4.67538e-15 0 -2.71051e-14 1.79299e-14 0 0 0 0)
(-5.42101e-14 5.69008e-15 0 0 1.90741e-14 0 0 0 0)
(0 -9.26693e-15 0 2.71051e-14 -4.4194e-15 0 0 0 0)
(5.42101e-14 -6.533e-15 0 2.71051e-14 -1.74716e-14 0 0 0 0)
(0 -1.12923e-15 0 5.42101e-14 -6.05195e-15 0 0 0 0)
(5.42101e-14 4.15297e-15 0 0 -7.67306e-15 0 0 0 0)
(-2.71051e-14 3.58507e-15 0 0 -1.12266e-15 0 0 0 0)
(-2.71051e-14 -5.22777e-16 0 2.71051e-14 3.12132e-16 0 0 0 0)
(8.40257e-13 -1.10559e-11 0 8.13152e-14 -1.06026e-11 0 0 0 0)
(-9.21572e-13 1.34092e-11 0 2.43945e-13 2.39882e-12 0 0 0 0)
(2.1684e-13 -2.93486e-12 0 1.6263e-13 -5.37852e-13 0 0 0 0)
(-5.42101e-14 6.99856e-13 0 -2.71051e-14 1.49288e-13 0 0 0 0)
(-2.71051e-14 -1.37719e-13 0 0 -1.51945e-14 0 0 0 0)
(0 3.45416e-14 0 -2.71051e-14 2.10365e-14 0 0 0 0)
(0 -3.15856e-14 0 0 1.30898e-14 0 0 0 0)
(0 -1.79443e-15 0 -5.42101e-14 5.85353e-15 0 0 0 0)
(2.71051e-14 3.76426e-14 0 -1.0842e-13 -1.34286e-14 0 0 0 0)
(-2.71051e-14 3.68605e-14 0 -8.13152e-14 -2.31087e-14 0 0 0 0)
(0 1.21564e-15 0 -1.0842e-13 -2.31098e-14 0 0 0 0)
(-2.71051e-14 -2.5398e-14 0 0 -3.05868e-15 0 0 0 0)
(-2.71051e-14 -1.31805e-14 0 5.42101e-14 1.14648e-14 0 0 0 0)
(0 -1.25744e-14 0 0 -3.39003e-15 0 0 0 0)
(2.71051e-14 -2.20507e-14 0 1.0842e-13 -4.13598e-15 0 0 0 0)
(0 -4.27926e-15 0 2.71051e-14 -7.25825e-16 0 0 0 0)
(-2.71051e-14 6.75728e-15 0 0 4.74514e-15 0 0 0 0)
(-5.42101e-14 5.90196e-15 0 0 1.22879e-14 0 0 0 0)
(5.42101e-14 6.8034e-15 0 0 3.38281e-15 0 0 0 0)
(0 5.67954e-16 0 -2.71051e-14 -6.6197e-15 0 0 0 0)
(1.0842e-13 5.19411e-12 0 -1.24683e-12 1.71643e-11 0 0 0 0)
(2.43945e-13 -6.25545e-12 0 2.71051e-14 -3.76263e-12 0 0 0 0)
(-2.43945e-13 1.35635e-12 0 -2.71051e-13 9.14843e-13 0 0 0 0)
(-1.0842e-13 -3.13058e-13 0 -5.42101e-14 -1.72807e-13 0 0 0 0)
(0 7.42035e-14 0 -5.42101e-14 7.05421e-14 0 0 0 0)
(-8.13152e-14 -1.44529e-14 0 -5.42101e-14 1.84907e-14 0 0 0 0)
(0 -1.08683e-14 0 -8.13152e-14 2.53789e-14 0 0 0 0)
(-1.0842e-13 -1.86206e-14 0 -2.71051e-14 2.80605e-14 0 0 0 0)
(5.42101e-14 -5.38141e-15 0 -8.13152e-14 -4.59194e-15 0 0 0 0)
(5.42101e-14 2.48246e-15 0 -1.35525e-13 -3.13512e-14 0 0 0 0)
(2.71051e-14 4.17733e-15 0 -2.71051e-14 -5.1816e-14 0 0 0 0)
(1.0842e-13 3.62265e-15 0 -5.42101e-14 -2.89396e-14 0 0 0 0)
(0 -5.00673e-15 0 -5.42101e-14 -8.81617e-15 0 0 0 0)
(0 -9.9107e-15 0 0 -1.27358e-14 0 0 0 0)
(0 -6.60273e-15 0 -5.42101e-14 -9.69143e-16 0 0 0 0)
(0 2.34812e-15 0 -5.42101e-14 1.46627e-14 0 0 0 0)
(0 1.18845e-14 0 0 1.69086e-14 0 0 0 0)
(0 2.79065e-15 0 0 1.12899e-14 0 0 0 0)
(-5.42101e-14 -1.53225e-14 0 2.71051e-14 -1.18434e-15 0 0 0 0)
(0 2.71411e-15 0 0 -7.77434e-15 0 0 0 0)
(-4.06576e-13 2.34576e-12 0 6.77626e-13 -1.83087e-11 0 0 0 0)
(1.0842e-13 -2.84025e-12 0 -2.98156e-13 4.00226e-12 0 0 0 0)
(1.0842e-13 6.54965e-13 0 -2.71051e-14 -9.23915e-13 0 0 0 0)
(1.35525e-13 -1.44445e-13 0 0 2.16032e-13 0 0 0 0)
(0 5.35793e-14 0 -8.13152e-14 -4.15665e-14 0 0 0 0)
(0 -1.06217e-14 0 0 1.53675e-14 0 0 0 0)
(0 -2.20157e-14 0 8.13152e-14 3.88272e-15 0 0 0 0)
(-2.71051e-14 -3.17653e-14 0 2.71051e-14 1.42723e-14 0 0 0 0)
(0 -2.17691e-14 0 8.13152e-14 7.05596e-15 0 0 0 0)
(0 -1.03636e-14 0 8.13152e-14 -7.26675e-15 0 0 0 0)
(0 3.6272e-15 0 2.71051e-14 -1.76211e-14 0 0 0 0)
(0 1.76019e-14 0 -5.42101e-14 -2.25213e-14 0 0 0 0)
(2.71051e-14 3.02335e-15 0 0 -2.55316e-14 0 0 0 0)
(0 -4.72736e-15 0 2.71051e-14 -1.61852e-14 0 0 0 0)
(0 5.34772e-15 0 0 -7.43955e-15 0 0 0 0)
(0 1.35985e-14 0 0 5.93863e-15 0 0 0 0)
(0 3.38449e-15 0 0 4.88141e-15 0 0 0 0)
(0 -1.2191e-14 0 0 -7.7471e-15 0 0 0 0)
(5.42101e-14 -1.22608e-14 0 -2.71051e-14 -1.87009e-14 0 0 0 0)
(0 9.52663e-15 0 0 -3.41133e-15 0 0 0 0)
(5.42101e-13 -9.11232e-12 0 -1.65341e-12 1.08979e-11 0 0 0 0)
(-4.87891e-13 1.11293e-11 0 4.87891e-13 -2.38258e-12 0 0 0 0)
(2.71051e-14 -2.42989e-12 0 -5.42101e-14 5.44206e-13 0 0 0 0)
(-1.35525e-13 5.69291e-13 0 -5.42101e-14 -1.2357e-13 0 0 0 0)
(0 -1.26461e-13 0 0 2.53191e-17 0 0 0 0)
(5.42101e-14 3.09963e-14 0 5.42101e-14 -4.68693e-14 0 0 0 0)
(2.71051e-14 -1.19635e-14 0 0 -2.29349e-14 0 0 0 0)
(0 -1.54474e-14 0 1.0842e-13 4.30516e-15 0 0 0 0)
(-2.71051e-14 -2.69204e-14 0 1.0842e-13 3.02052e-14 0 0 0 0)
(0 -2.21946e-14 0 5.42101e-14 1.8924e-15 0 0 0 0)
(0 -1.10772e-14 0 1.0842e-13 1.77707e-15 0 0 0 0)
(2.71051e-14 -4.28784e-15 0 1.0842e-13 -1.64748e-15 0 0 0 0)
(2.71051e-14 1.32932e-15 0 5.42101e-14 -8.36387e-15 0 0 0 0)
(0 8.18139e-15 0 2.71051e-14 -2.26559e-15 0 0 0 0)
(-2.71051e-14 1.55211e-14 0 5.42101e-14 1.19053e-14 0 0 0 0)
(-2.71051e-14 1.46691e-14 0 2.71051e-14 1.31642e-14 0 0 0 0)
(2.71051e-14 -1.80128e-15 0 0 -1.0036e-14 0 0 0 0)
(0 -2.07917e-14 0 5.42101e-14 -1.06838e-15 0 0 0 0)
(-2.71051e-14 -1.09867e-14 0 0 -1.0267e-15 0 0 0 0)
(0 2.48264e-14 0 0 -9.22435e-16 0 0 0 0)
(-1.5992e-12 1.08611e-11 0 2.03288e-12 4.3101e-12 0 0 0 0)
(1.73472e-12 -1.31939e-11 0 -5.69206e-13 -9.68841e-13 0 0 0 0)
(-4.06576e-13 2.91397e-12 0 -5.42101e-14 1.96392e-13 0 0 0 0)
(1.89735e-13 -6.88626e-13 0 0 -7.46403e-14 0 0 0 0)
(2.71051e-14 1.3028e-13 0 0 -1.71924e-14 0 0 0 0)
(5.42101e-14 -3.35819e-14 0 0 -4.64012e-14 0 0 0 0)
(2.71051e-14 2.91587e-14 0 0 -3.63872e-14 0 0 0 0)
(5.42101e-14 2.13748e-14 0 -5.42101e-14 -2.12979e-14 0 0 0 0)
(0 -2.41818e-14 0 -5.42101e-14 5.43078e-16 0 0 0 0)
(-2.71051e-14 -3.87917e-14 0 5.42101e-14 5.86569e-15 0 0 0 0)
(0 8.73167e-17 0 -5.42101e-14 8.6036e-15 0 0 0 0)
(0 7.46091e-15 0 -5.42101e-14 1.42549e-14 0 0 0 0)
(0 2.40524e-15 0 -5.42101e-14 1.387e-14 0 0 0 0)
(0 1.55418e-14 0 -5.42101e-14 7.93124e-15 0 0 0 0)
(-2.71051e-14 2.07775e-14 0 -1.0842e-13 7.71185e-15 0 0 0 0)
(-2.71051e-14 -8.34281e-15 0 -2.71051e-14 -3.46599e-15 0 0 0 0)
(0 -1.08481e-14 0 0 -1.51544e-14 0 0 0 0)
(0 -3.18166e-15 0 -5.42101e-14 -1.05004e-14 0 0 0 0)
(2.71051e-14 -1.21149e-14 0 0 6.91507e-15 0 0 0 0)
(-2.71051e-14 1.14758e-14 0 2.71051e-14 1.11458e-14 0 0 0 0)
(2.00577e-12 -5.77106e-12 0 -7.86047e-13 -1.82924e-11 0 0 0 0)
(-2.57498e-12 7.01561e-12 0 3.25261e-13 4.00672e-12 0 0 0 0)
(6.23416e-13 -1.53569e-12 0 1.89735e-13 -9.44237e-13 0 0 0 0)
(-5.42101e-14 3.55706e-13 0 1.0842e-13 1.92386e-13 0 0 0 0)
(0 -9.82214e-14 0 8.13152e-14 -4.39431e-14 0 0 0 0)
(0 1.18015e-14 0 5.42101e-14 2.18761e-14 0 0 0 0)
(-8.13152e-14 1.31397e-14 0 5.42101e-14 1.33568e-14 0 0 0 0)
(0 2.14829e-14 0 0 3.00071e-15 0 0 0 0)
(2.71051e-14 2.43195e-16 0 0 -1.74199e-14 0 0 0 0)
(5.42101e-14 -1.41341e-14 0 0 4.75309e-15 0 0 0 0)
(-8.13152e-14 -2.68802e-15 0 0 5.45155e-15 0 0 0 0)
(0 9.786e-16 0 0 -2.66008e-15 0 0 0 0)
(2.71051e-14 -4.99429e-15 0 5.42101e-14 9.04757e-16 0 0 0 0)
(-2.71051e-14 2.02319e-15 0 0 4.39011e-15 0 0 0 0)
(0 4.12389e-15 0 5.42101e-14 -1.56869e-14 0 0 0 0)
(8.13152e-14 -8.19718e-15 0 2.71051e-14 -2.27366e-14 0 0 0 0)
(0 -8.83565e-15 0 2.71051e-14 -8.68451e-16 0 0 0 0)
(0 1.27778e-15 0 0 -1.50037e-14 0 0 0 0)
(2.71051e-14 1.06595e-14 0 0 -4.51539e-15 0 0 0 0)
(-2.71051e-14 6.7655e-15 0 -2.71051e-14 1.19691e-14 0 0 0 0)
(-2.08709e-12 -3.42458e-12 0 -2.79182e-12 1.93584e-11 0 0 0 0)
(2.6563e-12 4.1542e-12 0 6.23416e-13 -4.24676e-12 0 0 0 0)
(-6.23416e-13 -9.00362e-13 0 -1.35525e-13 9.74427e-13 0 0 0 0)
(1.0842e-13 2.11668e-13 0 -5.42101e-14 -2.51405e-13 0 0 0 0)
(0 -4.02294e-14 0 -5.42101e-14 3.39702e-14 0 0 0 0)
(0 2.3718e-14 0 -5.42101e-14 -6.46728e-15 0 0 0 0)
(2.71051e-14 1.02833e-14 0 -5.42101e-14 8.86424e-15 0 0 0 0)
(0 -9.40177e-15 0 5.42101e-14 4.62231e-15 0 0 0 0)
(0 -2.24295e-14 0 2.71051e-14 -9.04815e-15 0 0 0 0)
(-2.71051e-14 -1.59203e-14 0 2.71051e-14 -4.90655e-15 0 0 0 0)
(0 -7.32585e-15 0 2.71051e-14 3.74651e-15 0 0 0 0)
(2.71051e-14 2.91412e-15 0 5.42101e-14 2.93701e-16 0 0 0 0)
(0 9.45543e-15 0 0 6.4953e-15 0 0 0 0)
(-2.71051e-14 -1.04988e-15 0 5.42101e-14 1.63441e-14 0 0 0 0)
(0 -6.34916e-15 0 2.71051e-14 7.75985e-15 0 0 0 0)
(0 6.47565e-15 0 2.71051e-14 3.10554e-15 0 0 0 0)
(-5.42101e-14 -3.11528e-15 0 -2.71051e-14 8.10376e-15 0 0 0 0)
(0 -6.82861e-15 0 0 8.61332e-15 0 0 0 0)
(0 1.4858e-14 0 0 1.13457e-14 0 0 0 0)
(0 4.02202e-15 0 0 -2.51452e-15 0 0 0 0)
(-1.35525e-13 9.34054e-12 0 5.66496e-12 4.90248e-13 0 0 0 0)
(5.42101e-14 -1.13683e-11 0 -1.40946e-12 -1.07471e-13 0 0 0 0)
(-5.42101e-14 2.45967e-12 0 1.6263e-13 9.21514e-15 0 0 0 0)
(5.42101e-14 -5.84751e-13 0 -8.13152e-14 -2.31365e-14 0 0 0 0)
(0 1.46716e-13 0 -8.13152e-14 -1.25789e-14 0 0 0 0)
(0 -1.33044e-14 0 -8.13152e-14 -1.72801e-14 0 0 0 0)
(2.71051e-14 2.42293e-14 0 -8.13152e-14 -2.79741e-14 0 0 0 0)
(0 3.57048e-15 0 -1.35525e-13 -3.86496e-14 0 0 0 0)
(5.42101e-14 -9.28567e-15 0 -8.13152e-14 -2.79023e-14 0 0 0 0)
(5.42101e-14 -1.33947e-15 0 -8.13152e-14 -1.3507e-15 0 0 0 0)
(0 2.51223e-15 0 -8.13152e-14 9.30607e-15 0 0 0 0)
(-2.71051e-14 3.7274e-15 0 -5.42101e-14 6.25032e-15 0 0 0 0)
(2.71051e-14 1.10561e-14 0 -5.42101e-14 1.05389e-14 0 0 0 0)
(-2.71051e-14 3.28774e-15 0 -2.71051e-14 9.307e-15 0 0 0 0)
(-2.71051e-14 -9.11468e-15 0 -8.13152e-14 6.11529e-15 0 0 0 0)
(0 -7.85327e-15 0 -5.42101e-14 -7.10565e-16 0 0 0 0)
(0 -3.32787e-15 0 0 -6.41989e-15 0 0 0 0)
(0 4.51976e-15 0 0 1.24694e-14 0 0 0 0)
(-5.42101e-14 -4.68385e-16 0 2.71051e-14 8.75305e-15 0 0 0 0)
(5.42101e-14 -2.06573e-15 0 0 -1.23204e-14 0 0 0 0)
(2.1684e-12 -3.04181e-12 0 -1.0571e-12 -2.13985e-11 0 0 0 0)
(-2.84603e-12 3.67317e-12 0 4.60786e-13 4.63971e-12 0 0 0 0)
(7.31836e-13 -8.16028e-13 0 1.35525e-13 -1.07683e-12 0 0 0 0)
(-1.89735e-13 1.89874e-13 0 1.35525e-13 2.64276e-13 0 0 0 0)
(5.42101e-14 -3.43729e-14 0 1.6263e-13 -3.23658e-14 0 0 0 0)
(0 8.32278e-15 0 1.35525e-13 2.69738e-14 0 0 0 0)
(-5.42101e-14 -1.10862e-14 0 1.35525e-13 3.29756e-15 0 0 0 0)
(5.42101e-14 -9.32996e-15 0 8.13152e-14 -1.80382e-14 0 0 0 0)
(2.71051e-14 1.48695e-14 0 8.13152e-14 -1.40701e-14 0 0 0 0)
(-2.71051e-14 2.12881e-14 0 2.71051e-14 -1.74102e-15 0 0 0 0)
(0 2.7517e-16 0 5.42101e-14 -8.05577e-15 0 0 0 0)
(2.71051e-14 4.14696e-15 0 0 -1.23474e-14 0 0 0 0)
(0 1.25121e-14 0 2.71051e-14 -7.32829e-15 0 0 0 0)
(5.42101e-14 -5.4735e-15 0 0 -1.13301e-14 0 0 0 0)
(0 -1.63667e-14 0 8.13152e-14 -1.29141e-14 0 0 0 0)
(0 -6.05954e-15 0 2.71051e-14 -7.29329e-15 0 0 0 0)
(0 1.00647e-14 0 0 -6.06607e-16 0 0 0 0)
(0 8.34434e-15 0 0 2.46921e-15 0 0 0 0)
(2.71051e-14 -9.93182e-15 0 0 -9.1774e-15 0 0 0 0)
(-2.71051e-14 7.5894e-15 0 2.71051e-14 -1.78307e-15 0 0 0 0)
(-7.58942e-13 -7.41824e-12 0 -1.73472e-12 1.33176e-11 0 0 0 0)
(1.24683e-12 8.95334e-12 0 2.98156e-13 -2.85759e-12 0 0 0 0)
(-3.25261e-13 -1.91576e-12 0 -1.6263e-13 6.91136e-13 0 0 0 0)
(2.71051e-14 4.59717e-13 0 -5.42101e-14 -1.25804e-13 0 0 0 0)
(-2.71051e-14 -9.05865e-14 0 -2.71051e-14 4.15452e-14 0 0 0 0)
(0 2.23589e-14 0 -5.42101e-14 -8.44455e-16 0 0 0 0)
(-2.71051e-14 -2.07827e-14 0 -5.42101e-14 1.08635e-14 0 0 0 0)
(0 -1.37972e-14 0 0 3.10245e-14 0 0 0 0)
(-5.42101e-14 7.01153e-15 0 -2.71051e-14 3.39906e-14 0 0 0 0)
(0 4.67484e-15 0 -2.71051e-14 9.14349e-15 0 0 0 0)
(0 -8.09418e-15 0 0 8.02768e-15 0 0 0 0)
(-2.71051e-14 4.45487e-15 0 0 1.69625e-14 0 0 0 0)
(0 1.20734e-14 0 -2.71051e-14 -5.74154e-16 0 0 0 0)
(0 -2.29802e-15 0 -2.71051e-14 -7.62303e-15 0 0 0 0)
(0 -5.07784e-15 0 -2.71051e-14 7.19737e-15 0 0 0 0)
(-2.71051e-14 4.45418e-15 0 -2.71051e-14 1.38215e-14 0 0 0 0)
(-2.71051e-14 6.43462e-15 0 0 8.80272e-15 0 0 0 0)
(2.71051e-14 -4.05103e-15 0 0 -2.67776e-15 0 0 0 0)
(0 -4.72066e-15 0 -2.71051e-14 4.50941e-15 0 0 0 0)
(-2.71051e-14 8.89474e-15 0 -2.71051e-14 1.19747e-14 0 0 0 0)
)
;

boundaryField
{
    movingWall
    {
        type            extrapolatedCalculated;
        value           nonuniform List<tensor> 
20
(
(-7.58942e-13 -7.41824e-12 0 4.70735e-12 3.77363e-11 0 0 0 0)
(1.24683e-12 8.95334e-12 0 -1.64313e-12 -8.06335e-12 0 0 0 0)
(-3.25261e-13 -1.91576e-12 0 -3.10862e-13 1.92296e-12 0 0 0 0)
(2.71051e-14 4.59717e-13 0 -3.55271e-13 -4.00301e-13 0 0 0 0)
(-2.71051e-14 -9.05865e-14 0 -3.55271e-13 8.40967e-14 0 0 0 0)
(0 2.23589e-14 0 -3.10862e-13 -3.79545e-14 0 0 0 0)
(-2.71051e-14 -2.07827e-14 0 -3.10862e-13 -5.33906e-15 0 0 0 0)
(0 -1.37972e-14 0 -2.66454e-13 4.51763e-14 0 0 0 0)
(-5.42101e-14 7.01153e-15 0 -2.66454e-13 4.98496e-14 0 0 0 0)
(0 4.67484e-15 0 -1.33227e-13 1.71302e-14 0 0 0 0)
(0 -8.09418e-15 0 -2.22045e-13 3.11502e-14 0 0 0 0)
(-2.71051e-14 4.45487e-15 0 -1.33227e-13 4.95069e-14 0 0 0 0)
(0 1.20734e-14 0 -1.33227e-13 1.33307e-14 0 0 0 0)
(0 -2.29802e-15 0 -4.44089e-14 1.21324e-15 0 0 0 0)
(0 -5.07784e-15 0 -1.33227e-13 2.25228e-14 0 0 0 0)
(-2.71051e-14 4.45418e-15 0 -8.88178e-14 2.15246e-14 0 0 0 0)
(-2.71051e-14 6.43462e-15 0 0 4.70607e-15 0 0 0 0)
(2.71051e-14 -4.05103e-15 0 0 -4.21387e-15 0 0 0 0)
(0 -4.72066e-15 0 -4.44089e-14 2.09102e-14 0 0 0 0)
(-2.71051e-14 8.89474e-15 0 -4.44089e-14 1.46688e-14 0 0 0 0)
)
;
    }
    fixedWalls
    {
        type            extrapolatedCalculated;
        value           nonuniform List<tensor> 
60
(
(-8.79297e-12 5.90727e-11 0 1.65341e-12 1.66972e-11 0 0 0 0)
(1.54099e-11 7.71631e-12 0 1.73472e-12 -2.79298e-11 0 0 0 0)
(-1.86517e-12 -5.26466e-11 0 -6.36969e-12 5.86995e-12 0 0 0 0)
(-1.00364e-11 3.11961e-11 0 3.03577e-12 1.53546e-11 0 0 0 0)
(1.03473e-11 8.77184e-12 0 7.31836e-13 -1.93065e-11 0 0 0 0)
(-7.19425e-12 -4.60298e-11 0 -2.24972e-12 1.1821e-11 0 0 0 0)
(1.28786e-12 5.6056e-11 0 2.6563e-12 8.0024e-12 0 0 0 0)
(3.5083e-12 -1.40202e-11 0 -1.5992e-12 -2.47128e-11 0 0 0 0)
(-5.06262e-12 -4.2795e-11 0 -1.0571e-12 2.07123e-11 0 0 0 0)
(-7.10543e-13 6.8829e-11 0 2.27682e-12 -3.44482e-12 0 0 0 0)
(3.9968e-12 -5.65743e-11 0 8.13152e-14 -1.06026e-11 0 0 0 0)
(-4.44089e-13 2.64186e-11 0 -1.24683e-12 1.71643e-11 0 0 0 0)
(-1.06581e-12 1.20827e-11 0 6.77626e-13 -1.83087e-11 0 0 0 0)
(2.35367e-12 -4.68162e-11 0 -1.65341e-12 1.08979e-11 0 0 0 0)
(-7.72715e-12 5.56742e-11 0 2.03288e-12 4.3101e-12 0 0 0 0)
(1.06137e-11 -2.95758e-11 0 -7.86047e-13 -1.82924e-11 0 0 0 0)
(-1.10134e-11 -1.74952e-11 0 -2.79182e-12 1.93584e-11 0 0 0 0)
(-4.44089e-13 4.78576e-11 0 5.66496e-12 4.90248e-13 0 0 0 0)
(1.16795e-11 -1.55343e-11 0 -1.0571e-12 -2.13985e-11 0 0 0 0)
(-4.70735e-12 -3.77363e-11 0 -1.73472e-12 1.33176e-11 0 0 0 0)
(8.88178e-14 9.67612e-15 0 -5.42101e-14 -1.5883e-14 0 0 0 0)
(8.88178e-14 5.38561e-14 0 5.42101e-14 -1.03206e-14 0 0 0 0)
(-8.88178e-14 5.09586e-14 0 2.71051e-14 1.29638e-14 0 0 0 0)
(0 2.00085e-15 0 -2.71051e-14 1.45352e-14 0 0 0 0)
(-4.44089e-14 -7.18219e-15 0 2.71051e-14 5.01597e-15 0 0 0 0)
(-4.44089e-14 -1.8063e-14 0 0 2.75787e-15 0 0 0 0)
(-4.44089e-14 -1.82137e-14 0 0 1.09607e-15 0 0 0 0)
(-4.44089e-14 -2.24473e-14 0 0 -4.12501e-15 0 0 0 0)
(0 -1.71363e-15 0 -2.71051e-14 -6.0962e-15 0 0 0 0)
(-4.44089e-14 1.93752e-15 0 2.71051e-14 3.12132e-16 0 0 0 0)
(-4.44089e-14 -2.96216e-15 0 -2.71051e-14 -6.6197e-15 0 0 0 0)
(0 2.84163e-14 0 0 -7.77434e-15 0 0 0 0)
(0 2.81352e-14 0 0 -3.41133e-15 0 0 0 0)
(0 4.20616e-14 0 0 -9.22435e-16 0 0 0 0)
(-4.44089e-14 3.18249e-14 0 2.71051e-14 1.11458e-14 0 0 0 0)
(-4.44089e-14 -2.52159e-15 0 -2.71051e-14 1.19691e-14 0 0 0 0)
(0 -1.60516e-14 0 0 -2.51452e-15 0 0 0 0)
(8.88178e-14 7.53649e-15 0 0 -1.23204e-14 0 0 0 0)
(0 3.32301e-14 0 2.71051e-14 -1.78307e-15 0 0 0 0)
(-4.44089e-14 1.46688e-14 0 -2.71051e-14 1.19747e-14 0 0 0 0)
(-1.51788e-12 1.15168e-11 0 -8.79297e-12 5.90727e-11 0 0 0 0)
(2.19551e-12 -1.39901e-11 0 2.75335e-12 -1.30056e-11 0 0 0 0)
(-5.96311e-13 3.09077e-12 0 0 3.11212e-12 0 0 0 0)
(5.42101e-14 -7.2692e-13 0 3.10862e-13 -6.42475e-13 0 0 0 0)
(-2.71051e-14 1.6385e-13 0 2.22045e-13 2.04444e-13 0 0 0 0)
(-2.71051e-14 -4.15712e-14 0 2.22045e-13 1.29254e-14 0 0 0 0)
(2.71051e-14 2.54513e-15 0 1.77636e-13 3.81595e-14 0 0 0 0)
(0 -6.58208e-15 0 2.66454e-13 2.31059e-14 0 0 0 0)
(-2.71051e-14 -8.001e-15 0 1.33227e-13 1.18312e-14 0 0 0 0)
(0 -5.13457e-15 0 2.66454e-13 -8.89805e-15 0 0 0 0)
(-2.71051e-14 -2.94258e-15 0 8.88178e-14 -8.70709e-15 0 0 0 0)
(2.71051e-14 9.43745e-15 0 1.77636e-13 -2.06684e-14 0 0 0 0)
(0 2.04391e-14 0 1.77636e-13 2.90427e-14 0 0 0 0)
(-2.71051e-14 7.18284e-15 0 1.77636e-13 6.10878e-14 0 0 0 0)
(-5.42101e-14 -6.24307e-15 0 0 5.7774e-14 0 0 0 0)
(0 -3.43666e-15 0 0 3.61156e-14 0 0 0 0)
(0 -1.16733e-14 0 0 4.40274e-14 0 0 0 0)
(-5.42101e-14 -1.82162e-14 0 -8.88178e-14 -1.05778e-14 0 0 0 0)
(0 2.2541e-16 0 0 -2.88376e-14 0 0 0 0)
(5.42101e-14 9.62843e-15 0 -8.88178e-14 -9.67612e-15 0 0 0 0)
)
;
    }
    frontAndBack
    {
        type            empty;
    }
}


// ************************************************************************* //
