/*--------------------------------*- C++ -*----------------------------------*\
| =========                 |                                                 |
| \\      /  F ield         | OpenFOAM: The Open Source CFD Toolbox           |
|  \\    /   O peration     | Version:  2312                                  |
|   \\  /    A nd           | Website:  www.openfoam.com                      |
|    \\/     M anipulation  |                                                 |
\*---------------------------------------------------------------------------*/
FoamFile
{
    version     2.0;
    format      ascii;
    arch        "LSB;label=32;scalar=64";
    class       volScalarField;
    location    "9.375";
    object      Lambda2Field;
}
// * * * * * * * * * * * * * * * * * * * * * * * * * * * * * * * * * * * * * //

dimensions      [0 0 -2 0 0 0 0];

internalField   nonuniform List<scalar> 
400
(
2.13459e-23
9.3707e-24
6.06914e-25
0
1.40582e-26
-1.51889e-27
2.20521e-28
-1.58327e-28
1.10231e-28
-1.38685e-28
1.58298e-28
8.43332e-29
0
3.45302e-28
2.58475e-27
0
0
3.52583e-29
0
0
1.09827e-23
1.50373e-23
9.36825e-25
1.17549e-26
7.34684e-28
3.51006e-28
0
1.93471e-28
0
-1.84454e-27
0
0
0
2.1911e-28
1.02171e-27
4.84653e-28
6.74252e-28
-5.24831e-28
5.18648e-28
1.84029e-27
6.51216e-23
2.06138e-23
7.90786e-25
1.79783e-26
1.51523e-26
-9.53297e-28
6.54561e-28
7.34684e-28
9.45986e-28
1.76337e-28
0
-9.64199e-28
9.09143e-28
-8.17731e-28
2.13698e-27
5.7437e-28
0
0
0
8.66312e-28
2.23355e-23
1.22283e-23
3.88648e-25
1.17549e-26
7.5186e-27
7.86024e-28
0
4.81258e-28
0
0
0
-7.44677e-28
1.3954e-28
-4.01259e-28
9.75943e-29
3.89394e-28
0
0
4.6275e-30
-6.21219e-31
4.96203e-24
6.38593e-24
6.1064e-25
0
9.67579e-28
-2.83064e-27
1.33233e-28
6.57892e-28
0
-8.2263e-28
0
0
0
1.85241e-28
0
6.63727e-29
0
-7.34167e-30
1.31775e-28
-2.7407e-29
2.19082e-23
1.09018e-23
2.76675e-25
-9.61044e-28
3.91321e-27
1.36073e-28
3.93503e-28
9.24033e-29
0
0
5.2901e-29
0
1.45134e-28
1.39333e-31
1.88881e-29
0
0
1.66264e-32
1.8908e-29
7.60583e-30
2.94522e-23
1.22991e-23
0
9.54733e-26
0
2.25074e-27
1.35266e-27
6.14144e-28
8.32965e-28
0
0
0
1.33669e-27
6.1368e-28
1.50466e-28
0
0
9.68524e-29
0
0
4.56119e-24
2.47798e-24
2.23182e-25
1.55215e-26
0
5.36952e-28
0
0
8.12878e-28
-6.11017e-28
0
0
1.73402e-27
1.1522e-27
0
0
5.48709e-29
1.72964e-28
6.10214e-30
1.70157e-29
9.43517e-24
5.89653e-24
0
4.12008e-26
0
1.14038e-27
6.9252e-28
1.48163e-29
9.00489e-28
4.93021e-28
1.63928e-27
-1.34703e-27
1.73274e-27
5.299e-28
0
0
0
1.84899e-28
0
4.37388e-29
3.05407e-23
1.06284e-23
2.02087e-25
4.29272e-28
0
1.58337e-27
1.7791e-28
8.11998e-28
1.9692e-27
3.36208e-28
0
-1.35371e-27
5.73981e-28
3.63822e-28
0
1.28179e-28
0
5.88758e-29
4.47355e-30
0
0
4.1204e-24
0
0
7.34684e-28
-4.93718e-28
0
9.72761e-29
0
-2.26263e-27
0
9.35551e-30
2.01691e-29
0
0
-1.15463e-28
3.39315e-29
1.50991e-28
2.3015e-29
0
0
0
0
2.87258e-26
0
1.1254e-27
8.83755e-28
1.29211e-27
1.90016e-27
6.4646e-28
6.21457e-28
6.41117e-28
2.71416e-28
0
3.57935e-28
0
0
0
3.61099e-29
0
1.75485e-24
8.58592e-25
0
1.83671e-26
0
0
0
-1.26316e-28
0
-7.89911e-28
9.83153e-29
-4.46991e-28
6.54149e-28
0
0
0
0
0
7.37143e-28
0
1.53603e-23
5.66793e-24
1.32459e-25
-1.24942e-26
0
3.87704e-27
5.61793e-28
-1.65628e-27
0
-1.19959e-27
0
0
8.06747e-28
2.21757e-28
1.35735e-27
5.70902e-28
1.01533e-28
-1.12598e-27
3.12311e-29
0
2.46367e-23
8.44872e-24
7.33706e-27
5.57117e-27
7.34684e-28
2.15307e-27
7.34684e-28
0
1.3109e-27
-1.36822e-27
0
-2.01256e-28
0
-7.79618e-28
0
2.38145e-28
0
1.72478e-28
8.45108e-29
4.3528e-28
8.55945e-24
8.91243e-24
9.72736e-26
4.15045e-26
0
6.39763e-28
1.3124e-27
0
3.03466e-28
2.25919e-29
3.15257e-29
0
4.63943e-28
1.92731e-29
2.23556e-28
2.94766e-28
0
0
4.87947e-29
0
1.39168e-23
9.6457e-24
5.1067e-25
2.80384e-28
2.18084e-27
-1.24393e-27
1.77227e-28
-4.88305e-28
0
0
0
1.58061e-28
0
2.10216e-28
0
1.75523e-28
2.93988e-28
0
0
0
5.29321e-23
1.60262e-23
4.02955e-25
4.80844e-26
0
1.08185e-27
0
0
2.83067e-27
1.10743e-28
0
0
1.35331e-28
0
1.47585e-27
4.25726e-28
0
0
2.53994e-28
1.51793e-28
7.91746e-24
9.79243e-24
4.24992e-25
6.17323e-26
0
1.12795e-27
1.43627e-27
0
1.9438e-27
5.80045e-28
1.4917e-29
1.52459e-28
3.39142e-28
1.28372e-28
0
-1.11052e-28
0
0
1.08885e-28
2.08891e-28
1.34446e-23
4.22408e-24
4.17356e-25
-9.09466e-27
3.19004e-27
-1.21137e-27
1.524e-27
0
1.2563e-27
-4.31084e-29
0
2.87726e-28
0
6.2288e-29
1.37635e-28
7.0304e-29
8.7839e-29
7.17038e-30
1.27954e-28
0
)
;

boundaryField
{
    movingWall
    {
        type            calculated;
        value           nonuniform List<scalar> 
20
(
0
0
7.01333e-25
-3.08356e-27
3.29175e-26
-5.51001e-27
7.19524e-27
3.6763e-27
1.07049e-27
-3.2937e-28
1.79727e-27
1.41175e-28
0
1.02053e-28
6.76504e-28
6.76977e-29
3.24982e-29
1.77567e-29
2.09639e-28
0
)
;
    }
    fixedWalls
    {
        type            calculated;
        value           nonuniform List<scalar> 
60
(
1.74987e-22
2.50851e-22
3.38822e-22
1.95434e-22
1.13486e-22
1.55311e-22
1.5056e-22
3.47293e-23
7.08686e-23
1.57217e-22
1.13741e-23
0
9.32351e-24
8.29461e-23
1.72888e-22
1.35899e-22
1.70139e-22
2.71309e-22
1.52833e-22
8.76212e-23
7.4809e-28
3.02606e-27
1.69154e-27
0
1.2439e-28
7.60583e-30
8.41357e-29
1.70157e-29
4.64481e-29
5.26141e-29
2.6983e-28
0
0
0
9.92415e-28
2.11608e-28
0
1.51793e-28
9.00705e-28
0
0
0
3.55587e-25
0
3.71167e-26
-8.49597e-27
1.18679e-27
-1.21993e-27
0
-1.28895e-27
4.7333e-28
2.10361e-27
3.6307e-27
2.01061e-27
2.93874e-27
0
0
1.72982e-27
0
0
)
;
    }
    frontAndBack
    {
        type            empty;
    }
}


// ************************************************************************* //
