/*--------------------------------*- C++ -*----------------------------------*\
| =========                 |                                                 |
| \\      /  F ield         | OpenFOAM: The Open Source CFD Toolbox           |
|  \\    /   O peration     | Version:  2312                                  |
|   \\  /    A nd           | Website:  www.openfoam.com                      |
|    \\/     M anipulation  |                                                 |
\*---------------------------------------------------------------------------*/
FoamFile
{
    version     2.0;
    format      ascii;
    arch        "LSB;label=32;scalar=64";
    class       volVectorField;
    location    "9.375";
    object      LambVectorField;
}
// * * * * * * * * * * * * * * * * * * * * * * * * * * * * * * * * * * * * * //

dimensions      [0 1 -2 0 0 0 0];

internalField   nonuniform List<vector> 
400
(
(-1.45664e-24 -9.86336e-12 -9.86336e-12)
(-4.44299e-25 1.36649e-11 -0)
(-2.34145e-26 -3.00946e-12 -3.00946e-12)
(-1.2111e-27 7.54025e-13 -0)
(-4.21844e-29 -8.25349e-14 -8.25349e-14)
(3.09504e-30 9.57813e-14 0)
(2.34299e-30 2.45599e-14 2.45599e-14)
(1.94593e-30 3.36871e-14 0)
(1.03837e-30 3.51061e-14 3.51061e-14)
(-7.17175e-31 3.22396e-14 -0)
(-6.40533e-32 2.94258e-15 2.94258e-15)
(4.87642e-31 -9.43745e-15 -0)
(-1.48401e-30 -2.04391e-14 -2.04391e-14)
(-9.3759e-30 -6.13929e-14 0)
(-1.0843e-29 -7.50721e-14 -7.50721e-14)
(3.10292e-31 3.43666e-15 0)
(1.28487e-30 1.16733e-14 1.16733e-14)
(-4.81718e-31 1.82162e-14 -0)
(1.62507e-32 -2.2541e-16 -2.2541e-16)
(1.54427e-30 -6.38385e-14 -0)
(3.13001e-27 1.62254e-13 1.62254e-13)
(-4.87646e-27 1.36745e-12 -0)
(-2.33281e-28 -2.3134e-13 -2.3134e-13)
(-1.65596e-29 9.82875e-14 -0)
(-2.99191e-31 -1.17271e-14 -1.17271e-14)
(7.24888e-31 -1.41552e-14 -0)
(-3.35267e-30 3.22417e-14 3.22417e-14)
(3.09659e-30 -3.01881e-14 -0)
(6.81064e-30 -9.3099e-14 -9.3099e-14)
(-1.9903e-30 -1.30408e-13 0)
(-1.38122e-29 -9.41393e-14 -9.41393e-14)
(-2.01396e-29 -1.40342e-13 0)
(-1.09643e-29 -5.62601e-14 -5.62601e-14)
(-3.11958e-30 -1.90213e-14 0)
(4.86998e-30 4.27011e-14 4.27011e-14)
(4.58508e-32 5.70017e-15 0)
(3.32626e-30 5.83079e-14 5.83079e-14)
(-1.69046e-30 5.13282e-14 -0)
(-1.19223e-29 6.43807e-14 6.43807e-14)
(-2.99272e-30 2.22276e-14 -0)
(-5.06277e-25 3.84661e-12 3.84661e-12)
(-3.2011e-25 -1.08683e-11 0)
(-1.67685e-26 2.51362e-12 2.51362e-12)
(-9.78771e-28 -6.09073e-13 0)
(-9.69075e-30 3.13352e-14 3.13352e-14)
(-1.62373e-29 -7.75311e-14 0)
(-1.08591e-29 -5.56881e-14 -5.56881e-14)
(2.29312e-31 1.02276e-15 0)
(2.62639e-31 1.42143e-15 1.42143e-15)
(-7.48236e-31 -3.56311e-15 0)
(7.58661e-30 3.44216e-14 3.44216e-14)
(1.3985e-29 1.02208e-13 0)
(8.75063e-31 7.62469e-14 7.62469e-14)
(-8.30883e-30 9.94613e-14 -0)
(-1.46097e-29 8.59473e-14 8.59473e-14)
(-7.68058e-31 5.91453e-15 -0)
(-3.1872e-30 -7.60294e-14 -7.60294e-14)
(1.52051e-30 1.72134e-14 0)
(-2.80908e-30 2.1573e-14 2.1573e-14)
(-1.71233e-31 1.34409e-15 -0)
(-2.41903e-25 -3.10171e-12 -3.10171e-12)
(-1.07191e-25 6.45126e-12 -0)
(-6.78618e-27 -1.59228e-12 -1.59228e-12)
(-2.69012e-28 3.88354e-13 -0)
(-1.14552e-29 -3.02734e-14 -3.02734e-14)
(-6.04147e-30 -3.97105e-14 0)
(-1.48309e-29 -6.35436e-14 -6.35436e-14)
(-2.29528e-32 -9.35045e-17 0)
(1.4986e-29 6.39519e-14 6.39519e-14)
(1.43786e-29 9.71173e-14 0)
(9.27132e-30 1.21495e-13 1.21495e-13)
(2.11269e-30 1.22065e-13 0)
(-3.92022e-30 6.51886e-14 6.51886e-14)
(-5.79055e-30 6.26163e-14 -0)
(-3.3893e-30 2.35045e-14 2.35045e-14)
(8.72812e-31 -1.5456e-14 -0)
(-5.42154e-32 -5.23223e-15 -5.23223e-15)
(-1.471e-31 3.54585e-14 -0)
(3.96045e-30 -5.41247e-14 -5.41247e-14)
(1.74687e-31 -3.49225e-14 -0)
(-2.1662e-26 -9.87797e-13 -9.87797e-13)
(-9.36861e-27 1.97931e-12 -0)
(-3.9553e-28 -2.98879e-13 -2.98879e-13)
(-2.22395e-29 1.88185e-13 -0)
(9.26058e-30 3.63614e-14 3.63614e-14)
(8.52174e-30 1.41305e-13 0)
(-8.45206e-30 1.13968e-13 1.13968e-13)
(1.36941e-32 2.83312e-15 0)
(-1.44472e-30 -8.57106e-15 -8.57106e-15)
(6.43092e-30 7.10252e-14 0)
(1.74972e-33 4.30559e-15 4.30559e-15)
(-1.55025e-30 -3.26449e-14 0)
(3.19447e-31 5.72441e-15 5.72441e-15)
(4.97675e-31 -5.1013e-14 -0)
(-1.47609e-30 -6.19328e-14 -6.19328e-14)
(-1.66359e-30 -2.46563e-14 0)
(-6.44323e-33 9.86052e-15 9.86052e-15)
(1.69429e-30 -5.44193e-14 -0)
(-7.06052e-33 -4.90895e-15 -4.90895e-15)
(5.21506e-31 2.90444e-14 0)
(-7.75147e-25 6.73604e-12 6.73604e-12)
(-2.57806e-25 -1.02235e-11 0)
(-1.35936e-26 2.34705e-12 2.34705e-12)
(-8.88585e-28 -6.02261e-13 0)
(-3.62877e-30 9.01619e-14 9.01619e-14)
(-5.1989e-30 -1.71724e-14 0)
(5.21862e-30 3.96924e-14 3.96924e-14)
(-7.59453e-31 -4.29376e-15 0)
(6.87482e-30 3.94167e-14 3.94167e-14)
(2.47943e-30 4.61224e-14 0)
(-6.16852e-32 3.9142e-15 3.9142e-15)
(3.96511e-31 2.71294e-14 0)
(-1.16111e-31 7.25554e-15 7.25554e-15)
(-1.75131e-30 3.02262e-14 -0)
(4.03976e-31 -8.55613e-15 -8.55613e-15)
(-2.39286e-31 -8.66307e-15 0)
(2.04032e-31 5.17639e-15 5.17639e-15)
(-1.08618e-33 4.49903e-17 -0)
(-2.70035e-31 -6.93001e-15 -6.93001e-15)
(3.79881e-31 8.41236e-15 0)
(-1.17286e-24 -8.36917e-12 -8.36917e-12)
(-3.69777e-25 1.23732e-11 -0)
(-2.13206e-26 -2.96419e-12 -2.96419e-12)
(-6.90591e-28 5.20155e-13 -0)
(-1.47388e-28 -2.31778e-13 -2.31778e-13)
(-2.24581e-30 -1.26912e-14 0)
(-1.627e-29 -7.37154e-14 -7.37154e-14)
(-4.48983e-31 -4.44713e-15 0)
(1.08012e-31 -1.84156e-14 -1.84156e-14)
(-8.69856e-31 -6.18423e-14 0)
(-5.08264e-30 -7.21384e-14 -7.21384e-14)
(-7.17859e-30 -3.71278e-14 0)
(-7.35735e-30 -4.31051e-14 -4.31051e-14)
(-9.59129e-31 -1.16543e-14 0)
(1.02148e-31 6.31447e-15 6.31447e-15)
(-1.89096e-32 -9.87278e-16 0)
(1.34355e-31 5.15767e-15 5.15767e-15)
(-1.64979e-31 5.08826e-15 -0)
(1.93592e-31 -7.79576e-15 -7.79576e-15)
(9.42612e-32 2.07012e-15 0)
(-3.97952e-26 1.13537e-12 1.13537e-12)
(-2.26502e-26 -2.93972e-12 0)
(-1.00088e-27 6.30461e-13 6.30461e-13)
(-6.46641e-29 -1.10138e-13 0)
(3.16323e-30 5.65366e-14 5.65366e-14)
(1.65647e-31 7.6147e-15 0)
(-5.51492e-32 2.73058e-15 2.73058e-15)
(-1.68155e-31 3.02858e-14 -0)
(2.74415e-30 -5.27677e-14 -5.27677e-14)
(1.84749e-30 -9.24833e-14 -0)
(-6.16659e-30 -1.03334e-13 -1.03334e-13)
(-2.49886e-29 -1.24813e-13 0)
(-9.47086e-30 -4.23555e-14 -4.23555e-14)
(-3.18331e-30 -3.89814e-14 0)
(-3.88557e-30 -5.44832e-14 -5.44832e-14)
(1.901e-31 2.25256e-15 0)
(-2.59559e-30 -5.31979e-14 -5.31979e-14)
(-3.82153e-30 -5.14538e-14 0)
(3.8536e-32 1.81528e-15 1.81528e-15)
(4.34057e-31 7.73469e-15 0)
(-7.79293e-25 7.28396e-12 7.28396e-12)
(-2.30058e-25 -9.7577e-12 0)
(-1.26197e-26 2.36109e-12 2.36109e-12)
(-5.62069e-28 -4.25365e-13 0)
(-6.84107e-29 2.46035e-13 2.46035e-13)
(-1.82706e-30 3.33622e-14 -0)
(-4.20468e-31 6.04349e-15 6.04349e-15)
(-4.13009e-30 -2.65002e-14 0)
(9.99646e-30 5.11515e-14 5.11515e-14)
(2.06291e-29 1.10649e-13 0)
(1.6544e-29 9.55532e-14 9.55532e-14)
(4.71037e-30 1.06916e-13 0)
(-7.91914e-30 9.55644e-14 9.55644e-14)
(-4.37399e-30 4.44352e-14 -0)
(-6.19097e-31 -4.16e-14 -4.16e-14)
(1.2311e-31 2.64672e-15 0)
(-3.52328e-32 3.04124e-15 3.04124e-15)
(8.57227e-31 5.32374e-14 0)
(-2.19613e-33 1.18179e-15 1.18179e-15)
(-1.15081e-31 -2.68625e-14 0)
(-1.91363e-24 -1.11211e-11 -1.11211e-11)
(-5.96914e-25 1.56697e-11 -0)
(-3.15047e-26 -3.55166e-12 -3.55166e-12)
(-1.70048e-27 8.35715e-13 -0)
(-1.0391e-28 -2.02455e-13 -2.02455e-13)
(-1.59556e-31 1.56321e-14 -0)
(-2.6982e-30 -3.14197e-14 -3.14197e-14)
(-1.15298e-30 -3.50028e-14 0)
(5.04935e-30 3.06293e-14 3.06293e-14)
(4.01547e-30 1.49414e-14 0)
(2.0078e-29 7.00828e-14 7.00828e-14)
(9.36961e-30 8.5162e-14 0)
(5.16532e-31 -2.24297e-14 -2.24297e-14)
(-3.59995e-31 -5.69008e-15 0)
(1.23199e-30 3.6372e-14 3.6372e-14)
(-9.89033e-31 3.3638e-14 -0)
(-1.74087e-30 5.53393e-14 5.53393e-14)
(1.69003e-31 -4.15297e-15 -0)
(-3.61073e-32 -3.58507e-15 -3.58507e-15)
(-1.33824e-31 2.76278e-14 -0)
(-1.5752e-24 1.11372e-11 1.11372e-11)
(-4.06504e-25 -1.31652e-11 0)
(-2.27486e-26 3.09749e-12 3.09749e-12)
(-1.11121e-27 -7.26961e-13 0)
(-4.76044e-29 1.37719e-13 1.37719e-13)
(-9.33232e-30 -6.16466e-14 0)
(-7.85502e-33 3.15856e-14 3.15856e-14)
(8.62089e-30 -5.24157e-14 -0)
(2.65732e-30 -1.46063e-13 -1.46063e-13)
(-2.50478e-29 -1.18176e-13 0)
(-3.84177e-29 -1.09636e-13 -1.09636e-13)
(5.69195e-30 2.5398e-14 0)
(6.49861e-30 6.73906e-14 6.73906e-14)
(1.16069e-30 1.25744e-14 0)
(-3.82435e-30 1.30471e-13 1.30471e-13)
(-4.02352e-30 3.13843e-14 -0)
(4.8723e-31 -6.75728e-15 -6.75728e-15)
(3.57827e-31 -5.90196e-15 -0)
(8.90221e-32 -6.8034e-15 -6.8034e-15)
(-2.0493e-31 -2.7673e-14 0)
(-4.25401e-25 -6.44094e-12 -6.44094e-12)
(-8.86175e-26 6.28256e-12 -0)
(-5.68267e-27 -1.6274e-12 -1.6274e-12)
(-1.40264e-28 2.58848e-13 -0)
(-4.63962e-29 -1.28414e-13 -1.28414e-13)
(-7.95771e-30 -3.97572e-14 0)
(-1.52711e-29 -7.04469e-14 -7.04469e-14)
(-7.76111e-31 -8.48441e-15 0)
(-2.32114e-30 -7.59338e-14 -7.59338e-14)
(-5.19749e-30 -1.38008e-13 0)
(-1.73281e-30 -3.12824e-14 -3.12824e-14)
(-4.5939e-30 -5.78328e-14 0)
(-4.50796e-30 -4.92034e-14 -4.92034e-14)
(2.91046e-31 9.9107e-15 0)
(3.56483e-31 -4.76074e-14 -4.76074e-14)
(2.07345e-30 -5.65582e-14 -0)
(-1.90071e-31 -1.18845e-14 -1.18845e-14)
(-2.29347e-31 -2.79065e-15 0)
(1.86256e-30 4.24275e-14 4.24275e-14)
(1.92813e-31 -2.71411e-15 -0)
(-5.03888e-26 -1.66813e-12 -1.66813e-12)
(-1.7157e-26 2.5421e-12 -0)
(-1.2306e-27 -6.8207e-13 -6.8207e-13)
(-2.88171e-29 1.44445e-13 -0)
(-4.85292e-29 -1.34894e-13 -1.34894e-13)
(3.57197e-30 1.06217e-14 0)
(2.61986e-29 1.03331e-13 1.03331e-13)
(6.83682e-30 5.88703e-14 0)
(-6.60897e-30 1.03084e-13 1.03084e-13)
(-9.31065e-30 9.16787e-14 -0)
(-3.93837e-30 2.34779e-14 2.34779e-14)
(4.68827e-30 -7.1812e-14 -0)
(-2.5004e-32 -3.02335e-15 -3.02335e-15)
(-1.11578e-30 3.18324e-14 -0)
(2.08579e-31 -5.34772e-15 -5.34772e-15)
(-2.50558e-31 -1.35985e-14 0)
(-3.28234e-31 -3.38449e-15 -3.38449e-15)
(6.37227e-31 1.2191e-14 0)
(3.70042e-31 -1.48442e-14 -1.48442e-14)
(6.70084e-31 -9.52663e-15 -0)
(-8.72994e-25 7.45891e-12 7.45891e-12)
(-2.75797e-25 -1.06414e-11 0)
(-1.36537e-26 2.37568e-12 2.37568e-12)
(-1.0091e-27 -6.23501e-13 0)
(-6.87462e-30 1.26461e-13 1.26461e-13)
(8.2138e-30 2.32138e-14 0)
(3.0579e-30 1.19635e-14 1.19635e-14)
(2.90095e-29 1.23868e-13 0)
(1.36867e-29 1.35341e-13 1.35341e-13)
(-2.67468e-30 7.64048e-14 -0)
(-1.44375e-29 1.19497e-13 1.19497e-13)
(-1.64304e-29 1.12708e-13 -0)
(-8.65644e-30 5.28808e-14 5.28808e-14)
(-2.50711e-30 1.89237e-14 -0)
(-3.16799e-30 3.8689e-14 3.8689e-14)
(2.82618e-31 1.2436e-14 0)
(1.16736e-31 1.80128e-15 1.80128e-15)
(3.5349e-31 7.50018e-14 0)
(-1.57231e-30 1.09867e-14 1.09867e-14)
(2.6106e-30 -2.48264e-14 -0)
(-1.22876e-24 -8.82819e-12 -8.82819e-12)
(-3.86e-25 1.26247e-11 -0)
(-2.15083e-26 -2.96818e-12 -2.96818e-12)
(-9.88318e-28 6.88626e-13 -0)
(-4.69022e-29 -1.3028e-13 -1.3028e-13)
(-4.4463e-30 3.35819e-14 -0)
(-7.05382e-31 -2.91587e-14 -2.91587e-14)
(-1.2032e-29 -7.5585e-14 0)
(-7.14491e-30 -3.00283e-14 -3.00283e-14)
(-7.68505e-30 9.30018e-14 -0)
(8.14339e-30 -5.42974e-14 -5.42974e-14)
(5.04223e-30 -6.1671e-14 -0)
(4.26701e-30 -5.66154e-14 -5.66154e-14)
(4.02522e-30 -6.97519e-14 -0)
(-1.03422e-29 -1.29198e-13 -1.29198e-13)
(-2.8156e-30 -1.87622e-14 0)
(-3.66517e-32 1.08481e-14 1.08481e-14)
(-2.12209e-30 -5.10284e-14 0)
(-4.26387e-31 1.21149e-14 1.21149e-14)
(-1.2435e-30 1.56293e-14 -0)
(-3.68589e-25 4.98501e-12 4.98501e-12)
(-1.08577e-25 -6.69035e-12 0)
(-6.52787e-27 1.72542e-12 1.72542e-12)
(-2.15642e-28 -2.47286e-13 0)
(-4.06266e-29 1.79537e-13 1.79537e-13)
(-4.67253e-30 4.24086e-14 -0)
(-4.44671e-30 4.10704e-14 4.10704e-14)
(-4.55829e-31 -2.14829e-14 0)
(-2.59144e-32 -2.43195e-16 -2.43195e-16)
(3.34275e-31 1.41341e-14 0)
(-9.3497e-32 2.68802e-15 2.68802e-15)
(3.16083e-33 -9.786e-16 -0)
(-1.47993e-30 5.92044e-14 5.92044e-14)
(1.07579e-31 -2.02319e-15 -0)
(-2.38659e-31 5.00862e-14 5.00862e-14)
(-4.21298e-31 3.53022e-14 -0)
(-3.11738e-30 3.59407e-14 3.59407e-14)
(1.28149e-31 -1.27778e-15 -0)
(7.88362e-31 -1.06595e-14 -1.06595e-14)
(-2.13519e-31 -3.38706e-14 0)
(-2.76759e-26 6.32763e-13 6.32763e-13)
(-3.35152e-26 -3.53078e-12 0)
(-1.67966e-27 7.64837e-13 7.64837e-13)
(-1.29922e-28 -2.65878e-13 0)
(1.11036e-30 -1.39808e-14 -1.39808e-14)
(-6.72984e-30 -7.79281e-14 0)
(-1.01744e-29 -6.44934e-14 -6.44934e-14)
(1.20349e-29 6.36119e-14 0)
(3.15738e-30 4.95345e-14 4.95345e-14)
(-1.51029e-30 4.30254e-14 -0)
(-3.28684e-30 3.44309e-14 3.44309e-14)
(-5.55848e-30 5.1296e-14 -0)
(6.27092e-31 -9.45543e-15 -9.45543e-15)
(-7.62953e-31 5.526e-14 -0)
(-2.56994e-30 3.34542e-14 3.34542e-14)
(-1.59462e-30 2.06294e-14 -0)
(2.89392e-31 -2.39898e-14 -2.39898e-14)
(-7.40569e-31 6.82861e-15 -0)
(1.19383e-30 -1.4858e-14 -1.4858e-14)
(-1.614e-31 -4.02202e-15 0)
(-4.39761e-25 -3.67558e-12 -3.67558e-12)
(-2.61307e-25 9.95885e-12 -0)
(-1.36925e-26 -2.29704e-12 -2.29704e-12)
(-8.26647e-28 5.03436e-13 -0)
(-2.58624e-29 -2.28031e-13 -2.28031e-13)
(1.18918e-29 -6.80108e-14 -0)
(2.07162e-30 -1.05544e-13 -1.05544e-13)
(-9.38081e-30 -1.39096e-13 0)
(-1.15801e-30 -7.20295e-14 -7.20295e-14)
(2.0326e-30 -7.99757e-14 -0)
(-2.2484e-31 -8.38274e-14 -8.38274e-14)
(1.69723e-32 -5.79375e-14 -0)
(-2.60779e-30 -6.52662e-14 -6.52662e-14)
(-3.35136e-30 -3.03928e-14 0)
(-5.25862e-30 -7.22005e-14 -7.22005e-14)
(-8.86406e-31 -4.63568e-14 0)
(-1.89659e-32 3.32787e-15 3.32787e-15)
(6.39879e-32 -4.51976e-15 -0)
(1.08911e-30 2.75734e-14 2.75734e-14)
(-3.89208e-32 2.06573e-15 -0)
(-7.70775e-26 1.98471e-12 1.98471e-12)
(-2.70404e-26 -3.21238e-12 0)
(-2.00202e-27 9.51553e-13 9.51553e-13)
(-1.39833e-29 -5.43489e-14 0)
(-4.04271e-29 1.97003e-13 1.97003e-13)
(-1.09956e-29 1.27202e-13 -0)
(-1.7884e-29 1.46612e-13 1.46612e-13)
(-1.78846e-29 9.06451e-14 -0)
(-1.43046e-29 6.64457e-14 6.64457e-14)
(-2.8276e-31 5.81698e-15 -0)
(-1.29513e-31 5.39349e-14 5.39349e-14)
(1.9017e-31 -4.14696e-15 -0)
(5.70122e-31 1.45929e-14 1.45929e-14)
(4.33848e-31 5.4735e-15 0)
(-1.53035e-30 9.76819e-14 9.76819e-14)
(-2.79922e-30 3.31646e-14 -0)
(7.67552e-31 -1.00647e-14 -1.00647e-14)
(-1.35536e-31 -8.34434e-15 0)
(7.13238e-32 9.93182e-15 9.93182e-15)
(-1.62127e-30 1.95157e-14 -0)
(-5.36187e-25 5.68352e-12 5.68352e-12)
(-1.74474e-25 -8.65518e-12 0)
(-8.42802e-27 1.75313e-12 1.75313e-12)
(-5.14313e-28 -5.13927e-13 0)
(-1.33465e-29 6.34815e-14 6.34815e-14)
(-7.26534e-30 -7.6569e-14 0)
(-4.46178e-31 -3.34274e-14 -3.34274e-14)
(-1.55826e-30 1.37972e-14 -0)
(4.25174e-30 -3.41166e-14 -3.41166e-14)
(1.36099e-30 -3.17799e-14 -0)
(-6.30338e-31 8.09418e-15 8.09418e-15)
(5.51368e-31 -4.45487e-15 -0)
(1.30569e-30 -3.91785e-14 -3.91785e-14)
(7.52422e-32 -2.4807e-14 -0)
(1.24029e-30 -2.20272e-14 -2.20272e-14)
(1.69825e-30 -3.15592e-14 -0)
(7.57044e-32 -6.43462e-15 -6.43462e-15)
(4.26763e-32 4.05103e-15 0)
(1.17015e-30 -2.23844e-14 -2.23844e-14)
(1.32018e-30 -3.59998e-14 -0)
)
;

boundaryField
{
    movingWall
    {
        type            calculated;
        value           nonuniform List<vector> 
20
(
(0 1.21256e-11 -0)
(0 -1.05965e-11 -0)
(0 1.6049e-12 -0)
(0 -8.14988e-13 -0)
(0 -2.64685e-13 -0)
(0 -3.33221e-13 -0)
(0 -2.9008e-13 -0)
(0 -2.52656e-13 -0)
(0 -2.73465e-13 -0)
(0 -1.37902e-13 -0)
(0 -2.1395e-13 -0)
(0 -1.37682e-13 -0)
(0 -1.453e-13 -0)
(0 -4.21109e-14 -0)
(0 -1.28149e-13 -0)
(0 -9.3272e-14 -0)
(0 -6.43462e-15 -0)
(0 4.05103e-15 -0)
(0 -3.96883e-14 -0)
(0 -5.33037e-14 -0)
)
;
    }
    fixedWalls
    {
        type            calculated;
        value           nonuniform List<vector> 
60
(
(0 -5.74193e-11 -0)
(0 -5.98159e-12 -0)
(0 4.6277e-11 -0)
(0 -2.81603e-11 -0)
(0 -8.04001e-12 -0)
(0 4.37801e-11 -0)
(0 -5.33997e-11 -0)
(0 1.2421e-11 -0)
(0 4.1738e-11 -0)
(0 -6.65522e-11 -0)
(0 5.66556e-11 -0)
(0 -2.76654e-11 -0)
(0 -1.14051e-11 -0)
(0 4.51628e-11 -0)
(0 -5.36414e-11 -0)
(0 2.87897e-11 -0)
(0 1.47034e-11 -0)
(0 -4.21927e-11 -0)
(0 1.44772e-11 -0)
(0 3.60016e-11 -0)
(0 -6.38862e-14 -0)
(0 3.54057e-16 -0)
(0 -2.38535e-14 -0)
(0 -2.91059e-14 -0)
(0 3.42872e-14 -0)
(0 1.8063e-14 -0)
(0 1.82137e-14 -0)
(0 2.24473e-14 -0)
(0 -2.53914e-14 -0)
(0 2.51675e-14 -0)
(0 -2.41429e-14 -0)
(0 -2.84163e-14 -0)
(0 -2.81352e-14 -0)
(0 -4.20616e-14 -0)
(0 -4.71989e-15 -0)
(0 -2.45835e-14 -0)
(0 1.60516e-14 -0)
(0 -7.53649e-15 -0)
(0 -6.12509e-15 -0)
(0 -4.17738e-14 -0)
(0 -2.03097e-11 -0)
(0 1.67435e-11 -0)
(0 -3.09077e-12 -0)
(0 1.03778e-12 -0)
(0 5.81946e-14 -0)
(0 2.63616e-13 -0)
(0 1.75091e-13 -0)
(0 2.73036e-13 -0)
(0 1.41228e-13 -0)
(0 2.71588e-13 -0)
(0 9.17604e-14 -0)
(0 1.68198e-13 -0)
(0 1.57197e-13 -0)
(0 1.70453e-13 -0)
(0 6.24307e-15 -0)
(0 3.43666e-15 -0)
(0 1.16733e-14 -0)
(0 -7.06016e-14 -0)
(0 -2.2541e-16 -0)
(0 -9.84463e-14 -0)
)
;
    }
    frontAndBack
    {
        type            empty;
    }
}


// ************************************************************************* //
