/*--------------------------------*- C++ -*----------------------------------*\
| =========                 |                                                 |
| \\      /  F ield         | OpenFOAM: The Open Source CFD Toolbox           |
|  \\    /   O peration     | Version:  2312                                  |
|   \\  /    A nd           | Website:  www.openfoam.com                      |
|    \\/     M anipulation  |                                                 |
\*---------------------------------------------------------------------------*/
FoamFile
{
    version     2.0;
    format      ascii;
    arch        "LSB;label=32;scalar=64";
    class       volScalarField;
    location    "9.375";
    object      QField;
}
// * * * * * * * * * * * * * * * * * * * * * * * * * * * * * * * * * * * * * //

dimensions      [0 0 -2 0 0 0 0];

internalField   nonuniform List<scalar> 
400
(
-4.43864e-23
-1.24718e-23
-7.75407e-25
1.00827e-26
-1.4778e-26
2.3048e-27
-9.22604e-29
1.78408e-28
3.34983e-28
1.39173e-28
-3.38686e-28
2.48914e-28
0
-4.69099e-28
-1.9089e-27
0
0
3.21892e-28
0
-3.39063e-28
-8.2974e-23
-2.41894e-23
-1.4078e-24
-3.48373e-26
-2.22362e-27
-3.51006e-28
1.39229e-28
-3.67582e-28
9.58207e-28
2.3839e-27
1.0428e-27
-3.69113e-28
1.11132e-28
-2.1911e-28
-1.28174e-27
-5.96714e-28
-1.47288e-28
6.5657e-28
8.66413e-28
-2.29326e-27
-6.63474e-23
-2.10273e-23
-8.16517e-25
-1.58228e-26
-1.51523e-26
1.3668e-27
-8.34355e-28
-9.43388e-28
-3.33378e-27
-3.59933e-28
1.98316e-28
1.35683e-27
-1.8786e-28
1.47556e-27
-1.02329e-27
-5.7437e-28
1.18283e-27
0
0
-1.40102e-27
-4.81813e-23
-1.47637e-23
-4.98385e-25
-1.87042e-26
-7.637e-27
-7.86024e-28
5.05969e-28
-1.18924e-27
5.28106e-28
3.13637e-28
8.21253e-28
1.2372e-27
4.74993e-28
4.55698e-28
-9.75943e-29
-1.6046e-27
0
-4.21213e-28
-4.6275e-30
2.11893e-28
-3.8413e-23
-1.05992e-23
-8.10825e-25
-8.93993e-27
-9.67579e-28
3.1571e-27
8.77707e-28
-6.57892e-28
0
9.11548e-28
0
1.42859e-28
0
-2.66925e-28
4.18648e-28
-6.63727e-29
0
1.13393e-29
-6.07904e-28
5.25669e-29
-3.55951e-23
-1.2201e-23
-3.34802e-25
1.23113e-26
-4.21183e-27
3.16181e-28
-4.58082e-28
-2.60552e-28
3.33707e-28
3.08171e-28
-1.89872e-28
6.60691e-31
-6.22764e-28
-1.64913e-28
-2.07541e-29
0
0
-6.99003e-30
-7.12083e-29
-7.47521e-29
-2.60333e-23
-1.18723e-23
2.86832e-25
-8.1638e-26
1.24956e-26
-2.25074e-27
-2.06865e-28
-6.14144e-28
-1.46295e-27
2.13886e-28
9.71892e-28
2.71666e-28
-1.25146e-27
-7.97185e-28
-3.21281e-28
0
0
-5.33501e-28
0
0
-1.50906e-23
-7.01203e-24
-5.67625e-25
1.26314e-26
0
-1.25617e-27
0
2.34997e-28
-6.23801e-28
9.08135e-28
1.79044e-27
2.58662e-27
-2.01714e-27
-1.31543e-27
1.48026e-29
0
-5.48709e-29
1.1364e-28
6.22728e-29
1.11808e-28
-2.50981e-23
-1.02152e-23
-1.80266e-25
-4.12008e-26
1.49202e-26
-1.2168e-27
-8.58386e-28
-1.04332e-28
-7.536e-28
-5.40926e-28
-6.86573e-28
1.83726e-27
-1.78324e-28
-5.299e-28
3.92887e-28
0
0
5.70501e-28
0
-3.37051e-28
-2.98511e-23
-1.05375e-23
-2.11733e-25
1.12317e-27
0
-2.27593e-27
-2.58863e-28
-1.5224e-27
-1.85734e-27
-2.60531e-28
8.6046e-28
1.67791e-27
-1.09871e-27
-1.03401e-27
2.51181e-28
-7.70059e-28
6.12155e-29
-4.15957e-28
3.04298e-29
5.70954e-30
-8.00991e-24
-5.48179e-24
3.60669e-25
1.08767e-26
4.11846e-28
9.36251e-28
0
-9.72761e-29
3.71724e-27
3.62368e-27
1.318e-28
8.29056e-29
4.03761e-28
0
2.27864e-27
1.1599e-28
-1.28617e-28
-6.66126e-28
1.83383e-28
1.53944e-29
8.33713e-24
-7.48322e-25
1.44466e-25
1.76489e-27
4.02258e-27
-2.28706e-27
-8.83755e-28
-3.54704e-27
-6.8652e-28
-1.36311e-27
-1.29125e-27
-2.94125e-27
-2.71416e-28
0
-3.57935e-28
1.27292e-28
0
0
4.7952e-28
0
5.85432e-24
-4.12911e-25
-8.24182e-26
2.92777e-26
4.35681e-27
0
1.79021e-27
4.74149e-28
1.77016e-27
8.42717e-28
-9.83153e-29
9.54198e-28
-6.92036e-28
1.28135e-28
0
0
0
0
-1.34611e-27
0
-9.15862e-24
-4.26746e-24
-1.16974e-25
4.76082e-26
0
-4.2211e-27
-6.21653e-28
1.67481e-27
2.10001e-27
1.20317e-27
1.20099e-27
4.20234e-28
-2.98766e-28
-2.21757e-28
-1.16409e-27
-7.54423e-28
-2.72027e-28
1.12712e-27
2.78286e-29
0
-2.89719e-23
-9.19074e-24
7.81185e-26
-1.41619e-26
-4.66001e-28
-2.51541e-27
-9.86277e-28
4.16837e-30
-1.3109e-27
1.94391e-27
4.73345e-30
4.04457e-28
1.30388e-28
8.42522e-28
2.04367e-27
-1.32187e-28
0
-1.72478e-28
1.87433e-28
-6.13159e-28
-4.12267e-23
-1.25991e-23
-2.97278e-25
-4.8995e-26
7.98689e-27
-6.39763e-28
-1.79841e-27
0
-4.72166e-28
2.57666e-28
-4.43293e-28
0
2.95265e-28
-1.18994e-28
-2.23556e-28
-1.62664e-27
2.39491e-28
0
-1.2239e-28
-1.41045e-28
-4.99634e-23
-1.38704e-23
-7.29495e-25
-1.57828e-26
-2.18084e-27
1.28575e-27
7.97722e-28
5.09671e-28
6.07952e-28
5.64513e-28
1.98568e-28
-1.50014e-28
0
-3.86094e-28
1.72094e-28
-1.75523e-28
-5.23746e-28
0
0
0
-5.29802e-23
-1.6029e-23
-4.00516e-25
-4.88033e-26
1.19302e-26
-1.08185e-27
1.21197e-27
4.83891e-28
-2.26765e-27
-1.82141e-28
2.04283e-28
3.26474e-29
8.85011e-28
-1.63152e-28
-9.06917e-28
-4.25726e-28
0
0
-4.61808e-28
-6.67892e-28
-4.9616e-23
-1.48973e-23
-6.77473e-25
-7.58753e-26
3.83553e-27
-1.12795e-27
1.3237e-27
-2.19187e-28
-1.59048e-27
-5.29824e-28
-1.4917e-29
-3.34678e-28
-3.39142e-28
-6.14208e-28
1.33086e-27
1.64244e-28
0
0
-2.48754e-28
-1.57381e-28
-2.29759e-23
-6.23243e-24
-5.3636e-25
2.15114e-26
-3.58144e-27
1.21208e-27
-1.42109e-27
0
-1.65259e-27
1.26712e-28
0
-4.59769e-28
3.27251e-28
-6.2288e-29
-1.37635e-28
-2.53903e-28
-2.38598e-28
-7.25807e-29
-1.27954e-28
-8.34833e-29
)
;

boundaryField
{
    movingWall
    {
        type            calculated;
        value           nonuniform List<scalar> 
20
(
6.28056e-24
4.65785e-24
-1.221e-24
1.52474e-25
-3.44622e-26
6.95055e-27
-6.31585e-27
-3.6763e-27
-8.34103e-28
6.22814e-28
-1.79727e-27
-7.48379e-28
1.6085e-27
-1.02053e-28
-6.76504e-28
-1.87815e-28
-1.27558e-28
-1.14217e-28
-2.09639e-28
-2.59208e-30
)
;
    }
    fixedWalls
    {
        type            calculated;
        value           nonuniform List<scalar> 
60
(
-2.4449e-22
-4.43781e-22
-3.46291e-22
-2.48809e-22
-2.06189e-22
-1.88598e-22
-1.38595e-22
-1.09121e-22
-1.50097e-22
-1.54264e-22
-3.77762e-23
2.53171e-23
1.13261e-23
-5.17562e-23
-1.46484e-22
-2.17398e-22
-2.62045e-22
-2.71329e-22
-2.66346e-22
-1.28153e-22
-8.86154e-28
-3.8362e-27
-2.53265e-27
5.42331e-29
-2.80801e-29
-1.22474e-28
-4.86753e-29
1.83187e-28
-4.64481e-29
-6.63781e-29
2.13684e-28
0
0
0
-1.35759e-27
-5.99884e-28
0
-1.09427e-27
-9.00705e-28
-1.34187e-28
1.16012e-23
9.96593e-24
-1.85579e-24
1.91143e-25
-4.19235e-26
8.88031e-27
5.8221e-28
1.75382e-27
7.45262e-28
1.36813e-27
4.9736e-28
-2.23664e-27
-3.6307e-27
-2.93172e-27
-3.13194e-27
0
0
-1.04451e-27
0
3.30633e-28
)
;
    }
    frontAndBack
    {
        type            empty;
    }
}


// ************************************************************************* //
