/*--------------------------------*- C++ -*----------------------------------*\
| =========                 |                                                 |
| \\      /  F ield         | OpenFOAM: The Open Source CFD Toolbox           |
|  \\    /   O peration     | Version:  2312                                  |
|   \\  /    A nd           | Website:  www.openfoam.com                      |
|    \\/     M anipulation  |                                                 |
\*---------------------------------------------------------------------------*/
FoamFile
{
    version     2.0;
    format      ascii;
    arch        "LSB;label=32;scalar=64";
    class       volScalarField;
    location    "9.375";
    object      Uy;
}
// * * * * * * * * * * * * * * * * * * * * * * * * * * * * * * * * * * * * * //

dimensions      [0 1 -1 0 0 0 0];

internalField   nonuniform List<scalar> 
400
(
1.47682e-13
-3.25139e-14
7.78031e-15
-1.60619e-15
5.11111e-16
3.23136e-17
9.53988e-17
5.77649e-17
2.9578e-17
-2.22451e-17
-2.17677e-17
-5.16709e-17
7.26067e-17
1.5272e-16
1.44435e-16
9.02889e-17
1.10069e-16
-2.64444e-17
-7.2094e-17
-2.41903e-17
1.92908e-14
-3.56609e-15
1.00839e-15
-1.68481e-16
2.55127e-17
-5.12099e-17
-1.03986e-16
-1.02576e-16
-7.31548e-17
1.52622e-17
1.46721e-16
1.43504e-16
1.94885e-16
1.64004e-16
1.14048e-16
8.04376e-18
5.70465e-17
-3.29343e-17
-1.85185e-16
-1.3464e-16
-1.31617e-13
2.94537e-14
-6.67105e-15
1.60698e-15
-3.09261e-16
2.09429e-16
1.94999e-16
2.24209e-16
1.84771e-16
2.09995e-16
2.20402e-16
1.3683e-16
1.14767e-17
-8.35383e-17
-1.69985e-16
-1.2986e-16
4.19207e-17
8.83332e-17
-1.30213e-16
-1.27396e-16
7.79903e-14
-1.66155e-14
4.26194e-15
-6.92698e-16
3.78393e-16
1.52138e-16
2.33397e-16
2.45472e-16
2.34332e-16
1.48054e-16
7.63104e-17
1.73079e-17
-6.01366e-17
-9.24767e-17
-1.44198e-16
-5.64708e-17
1.03618e-17
-4.1485e-18
-7.31726e-17
-5.00212e-18
2.19296e-14
-4.73328e-15
1.32338e-15
-1.18179e-16
2.54682e-16
6.03076e-17
-7.41619e-17
4.83357e-18
1.68557e-16
9.05442e-17
4.06383e-19
4.74882e-17
5.58044e-17
-9.75584e-18
2.38338e-17
6.74711e-17
-6.53437e-19
-3.11341e-17
1.43829e-18
1.79555e-17
-1.15075e-13
2.52169e-14
-5.7918e-15
1.47542e-15
-4.02473e-17
3.02747e-16
1.31477e-16
1.76874e-16
1.74414e-16
5.37576e-17
-1.57593e-17
1.46155e-17
-1.60031e-17
-5.79399e-17
-4.72148e-17
2.76214e-17
3.94159e-17
-2.41426e-17
3.8966e-17
4.51575e-17
1.4014e-13
-2.98854e-14
7.1927e-15
-1.32767e-15
6.35903e-16
1.76958e-16
2.20714e-16
1.0096e-16
-5.86523e-18
1.40657e-17
7.04569e-17
1.93348e-16
1.70684e-16
8.2298e-17
1.61768e-17
1.91532e-17
2.60496e-17
-3.24235e-17
-2.48329e-17
4.55341e-17
-3.50505e-14
7.70488e-15
-1.58753e-15
5.87119e-16
5.59501e-17
2.17536e-17
-2.01968e-17
-5.55228e-18
-5.20044e-17
-1.99765e-17
5.96765e-17
2.00208e-16
2.23604e-16
8.16624e-17
7.13168e-17
8.4393e-17
4.87912e-17
7.42711e-17
2.12286e-17
5.61182e-17
-1.06988e-13
2.35771e-14
-5.34486e-15
1.32138e-15
-2.78053e-16
-5.47644e-17
-6.95737e-17
1.55851e-16
1.95428e-16
1.86437e-16
1.73139e-16
4.40568e-17
-8.28671e-17
-9.84352e-17
1.48821e-17
4.65143e-17
-1.1585e-17
1.6102e-17
-1.85831e-18
4.28408e-18
1.72073e-13
-3.80935e-14
8.8704e-15
-2.03476e-15
5.13248e-16
-1.02069e-17
8.58761e-17
3.29396e-17
1.64854e-16
2.68748e-16
2.8649e-16
1.10021e-16
-2.3029e-17
6.32671e-17
3.38718e-17
-2.94022e-17
-3.14581e-17
-4.06945e-17
1.00716e-17
-4.84381e-18
-1.41436e-13
3.08771e-14
-7.34422e-15
1.52857e-15
-3.45664e-16
1.51384e-16
-2.4869e-19
-1.64472e-16
-1.8193e-17
2.11954e-16
3.50412e-16
2.24111e-16
9.6432e-17
9.2306e-17
-2.93118e-17
-1.28201e-16
-7.21045e-17
-6.06286e-17
-1.30849e-17
7.4054e-18
6.60464e-14
-1.41053e-14
3.49188e-15
-5.41878e-16
3.61303e-16
2.00158e-16
2.16774e-16
9.14749e-17
3.05679e-17
3.76608e-17
5.53925e-17
7.94342e-17
9.1619e-17
2.93668e-17
-7.48797e-18
-3.66605e-17
1.59932e-17
8.21841e-17
4.38997e-17
-7.10408e-17
3.02067e-14
-6.74916e-15
1.80421e-15
-1.99502e-16
3.59757e-16
3.36291e-16
2.5354e-16
1.16134e-16
-6.41124e-17
-1.01557e-16
-1.67748e-16
-6.52854e-17
8.2703e-18
-3.50518e-17
-3.90033e-17
1.84254e-17
9.69817e-17
5.22703e-17
-2.49283e-17
-7.0338e-17
-1.1704e-13
2.59173e-14
-5.74727e-15
1.61844e-15
-5.43618e-17
3.53833e-16
2.55601e-16
2.34198e-16
1.01128e-16
-3.50067e-17
-1.20819e-16
-1.45778e-16
-1.63697e-16
-1.32485e-16
-8.18835e-17
2.27258e-17
6.48073e-17
4.71308e-18
-1.4311e-16
-1.05154e-16
1.39186e-13
-3.05749e-14
7.24627e-15
-1.4352e-15
3.6001e-16
-1.32402e-16
2.41912e-17
1.59185e-16
2.3794e-16
-8.26333e-17
-1.49977e-16
-8.17601e-17
-7.53684e-17
-5.77077e-17
8.00495e-17
1.50067e-16
-3.37863e-18
4.15864e-17
-3.51953e-17
-7.95624e-17
-7.39395e-14
1.62289e-14
-3.78335e-15
8.72036e-16
-2.26286e-16
-1.10179e-16
-1.0827e-16
2.12183e-17
1.06558e-16
2.36502e-17
-3.47829e-17
-3.22995e-18
-2.49969e-17
-5.31729e-17
-4.76497e-18
-1.1934e-17
-8.67367e-17
-1.00291e-16
-7.3959e-17
6.30398e-18
-4.37381e-14
9.49227e-15
-2.1961e-15
4.88653e-16
-7.94209e-17
8.63596e-17
1.57759e-16
1.89192e-16
6.3741e-17
-3.51024e-17
-9.5462e-17
-1.08361e-16
-6.63208e-17
-1.38066e-17
-7.68196e-17
-7.72982e-17
-1.20631e-17
-1.08451e-16
-8.03492e-17
4.0129e-17
1.19644e-13
-2.62387e-14
5.96092e-15
-1.64201e-15
1.13416e-16
-1.74852e-16
-1.9628e-17
6.74414e-17
1.60769e-17
-2.54153e-17
2.68218e-18
-2.92942e-19
3.99562e-17
1.10268e-16
7.28336e-17
1.91214e-17
-5.6991e-18
-1.41574e-17
3.94985e-17
-1.88412e-17
-3.88356e-14
8.41757e-15
-2.10395e-15
2.57288e-16
-2.0521e-16
-8.64416e-17
-1.21982e-16
-1.97304e-16
-2.15282e-16
-4.86094e-17
-2.40129e-18
-4.58577e-17
3.90683e-17
7.92634e-17
-1.56667e-17
-8.44038e-17
-7.6262e-17
1.62429e-17
7.18134e-18
-8.30754e-17
-9.43408e-14
2.01584e-14
-4.80741e-15
1.00075e-15
-2.10242e-16
9.48862e-17
1.33477e-17
-1.12941e-16
-1.24624e-16
-4.28255e-17
-7.78755e-17
-1.23767e-16
-3.33268e-17
-3.0331e-18
-5.6307e-17
-5.38115e-17
-1.17652e-17
1.05347e-17
-5.22755e-17
-3.66719e-17
)
;

boundaryField
{
    movingWall
    {
        type            calculated;
        value           uniform -0;
    }
    fixedWalls
    {
        type            calculated;
        value           uniform -0;
    }
    frontAndBack
    {
        type            empty;
    }
}


// ************************************************************************* //
