/*--------------------------------*- C++ -*----------------------------------*\
| =========                 |                                                 |
| \\      /  F ield         | OpenFOAM: The Open Source CFD Toolbox           |
|  \\    /   O peration     | Version:  2312                                  |
|   \\  /    A nd           | Website:  www.openfoam.com                      |
|    \\/     M anipulation  |                                                 |
\*---------------------------------------------------------------------------*/
FoamFile
{
    version     2.0;
    format      ascii;
    arch        "LSB;label=32;scalar=64";
    class       volScalarField;
    location    "9.375";
    object      zeroGradient(epsilon);
}
// * * * * * * * * * * * * * * * * * * * * * * * * * * * * * * * * * * * * * //

dimensions      [0 2 -3 0 0 0 0];

internalField   nonuniform List<scalar> 
400
(
7.4096e-07
7.40959e-07
7.40959e-07
7.40959e-07
7.40958e-07
7.40958e-07
7.40958e-07
7.40958e-07
7.40958e-07
7.40958e-07
7.40958e-07
7.40957e-07
7.40957e-07
7.40957e-07
7.40957e-07
7.40957e-07
7.40957e-07
7.40957e-07
7.40957e-07
7.40957e-07
7.55994e-07
7.4846e-07
7.49103e-07
7.49369e-07
7.49902e-07
7.50173e-07
7.50708e-07
7.50985e-07
7.51522e-07
7.51804e-07
7.52342e-07
7.52631e-07
7.5317e-07
7.53466e-07
7.54005e-07
7.5431e-07
7.54846e-07
7.55161e-07
7.55429e-07
7.55856e-07
7.80588e-07
7.72589e-07
7.73282e-07
7.73569e-07
7.74143e-07
7.74432e-07
7.75006e-07
7.75299e-07
7.75875e-07
7.76171e-07
7.76747e-07
7.77048e-07
7.77623e-07
7.77931e-07
7.78503e-07
7.78818e-07
7.79387e-07
7.7971e-07
7.79993e-07
7.80439e-07
8.07702e-07
7.99331e-07
8.00057e-07
8.00357e-07
8.00957e-07
8.01259e-07
8.01861e-07
8.02167e-07
8.02769e-07
8.03079e-07
8.03681e-07
8.03997e-07
8.04598e-07
8.0492e-07
8.05519e-07
8.05848e-07
8.06443e-07
8.06781e-07
8.07078e-07
8.07544e-07
8.31766e-07
8.23058e-07
8.23813e-07
8.24125e-07
8.24749e-07
8.25063e-07
8.25689e-07
8.26007e-07
8.26633e-07
8.26956e-07
8.27582e-07
8.2791e-07
8.28536e-07
8.2887e-07
8.29493e-07
8.29836e-07
8.30455e-07
8.30806e-07
8.31115e-07
8.316e-07
8.50257e-07
8.41287e-07
8.42064e-07
8.42385e-07
8.43028e-07
8.43352e-07
8.43996e-07
8.44324e-07
8.44968e-07
8.45301e-07
8.45946e-07
8.46284e-07
8.46928e-07
8.47273e-07
8.47914e-07
8.48267e-07
8.48905e-07
8.49267e-07
8.49585e-07
8.50085e-07
8.63154e-07
8.53998e-07
8.54791e-07
8.55119e-07
8.55775e-07
8.56105e-07
8.56763e-07
8.57097e-07
8.57755e-07
8.58095e-07
8.58753e-07
8.59098e-07
8.59755e-07
8.60107e-07
8.60762e-07
8.61122e-07
8.61773e-07
8.62143e-07
8.62467e-07
8.62977e-07
8.71673e-07
8.62395e-07
8.63199e-07
8.63531e-07
8.64195e-07
8.6453e-07
8.65196e-07
8.65535e-07
8.66202e-07
8.66546e-07
8.67213e-07
8.67562e-07
8.68229e-07
8.68585e-07
8.69249e-07
8.69614e-07
8.70273e-07
8.70648e-07
8.70976e-07
8.71493e-07
8.7727e-07
8.67911e-07
8.68721e-07
8.69057e-07
8.69727e-07
8.70065e-07
8.70736e-07
8.71078e-07
8.71751e-07
8.72098e-07
8.72771e-07
8.73123e-07
8.73795e-07
8.74154e-07
8.74824e-07
8.75192e-07
8.75857e-07
8.76236e-07
8.76567e-07
8.77088e-07
8.81144e-07
8.71729e-07
8.72545e-07
8.72882e-07
8.73556e-07
8.73896e-07
8.74571e-07
8.74915e-07
8.75592e-07
8.75941e-07
8.76618e-07
8.76972e-07
8.77648e-07
8.7801e-07
8.78683e-07
8.79054e-07
8.79723e-07
8.80103e-07
8.80437e-07
8.80961e-07
8.84128e-07
8.7467e-07
8.75489e-07
8.75828e-07
8.76505e-07
8.76847e-07
8.77525e-07
8.77871e-07
8.7855e-07
8.78901e-07
8.79581e-07
8.79937e-07
8.80616e-07
8.80979e-07
8.81656e-07
8.82028e-07
8.827e-07
8.83083e-07
8.83417e-07
8.83944e-07
8.86744e-07
8.77249e-07
8.78071e-07
8.78411e-07
8.79091e-07
8.79434e-07
8.80115e-07
8.80462e-07
8.81144e-07
8.81496e-07
8.82179e-07
8.82536e-07
8.83218e-07
8.83583e-07
8.84262e-07
8.84635e-07
8.85311e-07
8.85694e-07
8.8603e-07
8.86559e-07
8.893e-07
8.79768e-07
8.80593e-07
8.80935e-07
8.81617e-07
8.81961e-07
8.82645e-07
8.82993e-07
8.83678e-07
8.84031e-07
8.84717e-07
8.85076e-07
8.8576e-07
8.86126e-07
8.86808e-07
8.87183e-07
8.87861e-07
8.88246e-07
8.88583e-07
8.89114e-07
8.91964e-07
8.82393e-07
8.83222e-07
8.83565e-07
8.8425e-07
8.84595e-07
8.85282e-07
8.85632e-07
8.86319e-07
8.86674e-07
8.87362e-07
8.87722e-07
8.88409e-07
8.88777e-07
8.89461e-07
8.89838e-07
8.90518e-07
8.90905e-07
8.91244e-07
8.91777e-07
8.94801e-07
8.8519e-07
8.86022e-07
8.86366e-07
8.87054e-07
8.87401e-07
8.8809e-07
8.88442e-07
8.89132e-07
8.89488e-07
8.90179e-07
8.90541e-07
8.91231e-07
8.916e-07
8.92288e-07
8.92666e-07
8.93349e-07
8.93737e-07
8.94077e-07
8.94613e-07
8.97776e-07
8.88123e-07
8.88959e-07
8.89304e-07
8.89995e-07
8.90344e-07
8.91036e-07
8.91389e-07
8.92083e-07
8.9244e-07
8.93134e-07
8.93498e-07
8.94191e-07
8.94561e-07
8.95252e-07
8.95632e-07
8.96318e-07
8.96708e-07
8.9705e-07
8.97587e-07
9.00743e-07
8.91047e-07
8.91887e-07
8.92234e-07
8.92928e-07
8.93278e-07
8.93973e-07
8.94328e-07
8.95024e-07
8.95384e-07
8.9608e-07
8.96446e-07
8.97142e-07
8.97514e-07
8.98207e-07
8.98589e-07
8.99278e-07
8.9967e-07
9.00013e-07
9.00553e-07
9.03438e-07
8.93706e-07
8.94548e-07
8.94897e-07
8.95593e-07
8.95944e-07
8.96642e-07
8.96998e-07
8.97697e-07
8.98058e-07
8.98757e-07
8.99124e-07
8.99822e-07
9.00196e-07
9.00892e-07
9.01276e-07
9.01967e-07
9.02361e-07
9.02705e-07
9.03248e-07
9.05517e-07
8.95939e-07
8.96753e-07
8.9709e-07
8.97768e-07
8.9811e-07
8.9879e-07
8.99139e-07
8.99823e-07
9.00179e-07
9.00865e-07
9.0123e-07
9.01916e-07
9.02291e-07
9.02977e-07
9.03364e-07
9.04046e-07
9.04447e-07
9.04787e-07
9.0533e-07
9.06476e-07
9.06476e-07
9.06475e-07
9.06475e-07
9.06474e-07
9.06475e-07
9.06474e-07
9.06474e-07
9.06474e-07
9.06474e-07
9.06474e-07
9.06474e-07
9.06474e-07
9.06473e-07
9.06473e-07
9.06473e-07
9.06473e-07
9.06473e-07
9.06473e-07
9.06473e-07
)
;

boundaryField
{
    movingWall
    {
        type            zeroGradient;
    }
    fixedWalls
    {
        type            zeroGradient;
    }
    frontAndBack
    {
        type            empty;
    }
}


// ************************************************************************* //
