/*--------------------------------*- C++ -*----------------------------------*\
| =========                 |                                                 |
| \\      /  F ield         | OpenFOAM: The Open Source CFD Toolbox           |
|  \\    /   O peration     | Version:  2312                                  |
|   \\  /    A nd           | Website:  www.openfoam.com                      |
|    \\/     M anipulation  |                                                 |
\*---------------------------------------------------------------------------*/
FoamFile
{
    version     2.0;
    format      ascii;
    arch        "LSB;label=32;scalar=64";
    class       volVectorField;
    location    "1.625";
    object      diffU;
}
// * * * * * * * * * * * * * * * * * * * * * * * * * * * * * * * * * * * * * //

dimensions      [0 1 -1 0 0 0 0];

internalField   nonuniform List<vector> 
400
(
(0 0 0)
(-0.00188994 0.000787232 0)
(-0.00529104 0.00131548 0)
(-0.00923246 0.00153381 0)
(-0.0134618 0.00163364 0)
(-0.0178861 0.00172551 0)
(-0.0224756 0.00183362 0)
(-0.0271165 0.00190692 0)
(-0.0315542 0.00182395 0)
(-0.0353329 0.00146098 0)
(-0.0377171 0.000781237 0)
(-0.038361 -0.000262563 0)
(-0.036623 -0.00171605 0)
(-0.0323395 -0.00311388 0)
(-0.0259425 -0.00420564 0)
(-0.018282 -0.00460005 0)
(-0.0106113 -0.0041546 0)
(-0.00415905 -0.00292656 0)
(-0.000100498 -0.00126619 0)
(0.000886801 5.60273e-05 0)
(-0.000846288 0.00195268 0)
(-0.00421604 0.00431052 0)
(-0.0087105 0.0056835 0)
(-0.0137685 0.00635116 0)
(-0.0191837 0.00672448 0)
(-0.0248364 0.00698392 0)
(-0.0305797 0.00708248 0)
(-0.0361255 0.0068218 0)
(-0.0410508 0.00593851 0)
(-0.0448832 0.00427259 0)
(-0.0472056 0.00184519 0)
(-0.0476768 -0.00125743 0)
(-0.0458668 -0.0048861 0)
(-0.0414205 -0.00852991 0)
(-0.0344417 -0.011392 0)
(-0.0255107 -0.0125636 0)
(-0.0160146 -0.0115684 0)
(-0.0077861 -0.00858108 0)
(-0.00211173 -0.00439363 0)
(0.000260638 -0.000563401 0)
(-0.00160283 0.00547025 0)
(-0.00575978 0.0087543 0)
(-0.0105302 0.0106284 0)
(-0.0158053 0.011736 0)
(-0.0214716 0.0124464 0)
(-0.0274168 0.0128884 0)
(-0.0334857 0.0129121 0)
(-0.039378 0.012186 0)
(-0.0447164 0.0104155 0)
(-0.0492111 0.00753675 0)
(-0.0527049 0.00362551 0)
(-0.0550024 -0.0012962 0)
(-0.0554532 -0.00718659 0)
(-0.0529075 -0.0136483 0)
(-0.0464936 -0.0191615 0)
(-0.0360939 -0.0221845 0)
(-0.0230084 -0.0212183 0)
(-0.0104882 -0.0159676 0)
(-0.00219904 -0.00876122 0)
(0.000410207 -0.00204734 0)
(-0.00197122 0.00964888 0)
(-0.00653912 0.0135288 0)
(-0.011422 0.0156871 0)
(-0.0167051 0.017149 0)
(-0.0223802 0.018206 0)
(-0.0284065 0.0188893 0)
(-0.0346919 0.018945 0)
(-0.0410321 0.0179676 0)
(-0.0472667 0.0157313 0)
(-0.0535473 0.0123227 0)
(-0.06028 0.00779304 0)
(-0.0675554 0.0017915 0)
(-0.0743017 -0.0061045 0)
(-0.0776128 -0.0158383 0)
(-0.0743369 -0.0263436 0)
(-0.0630832 -0.0345137 0)
(-0.0445862 -0.0362059 0)
(-0.0222578 -0.0291329 0)
(-0.00338556 -0.015176 0)
(0.00138016 -0.00269894 0)
(-0.00204695 0.0141224 0)
(-0.0067167 0.0184855 0)
(-0.0115673 0.0208141 0)
(-0.016752 0.0225799 0)
(-0.0223473 0.0240231 0)
(-0.0283868 0.0250763 0)
(-0.034909 0.0254192 0)
(-0.0419369 0.0246907 0)
(-0.0497862 0.0229369 0)
(-0.0595542 0.0207233 0)
(-0.072691 0.0181884 0)
(-0.088977 0.013683 0)
(-0.10459 0.003751 0)
(-0.114278 -0.0129707 0)
(-0.114359 -0.0335286 0)
(-0.103837 -0.0518534 0)
(-0.0827834 -0.0615449 0)
(-0.0522093 -0.055667 0)
(-0.0168164 -0.0320206 0)
(0.00195787 -0.00503864 0)
(-0.00193321 0.0185564 0)
(-0.00644378 0.0233635 0)
(-0.0111003 0.0258269 0)
(-0.0160507 0.027889 0)
(-0.0214283 0.0297787 0)
(-0.0273539 0.0313902 0)
(-0.0340505 0.0324643 0)
(-0.0418702 0.032925 0)
(-0.0517754 0.033472 0)
(-0.0657368 0.0351763 0)
(-0.0852622 0.0368047 0)
(-0.107532 0.0325942 0)
(-0.125419 0.0171954 0)
(-0.134462 -0.00864519 0)
(-0.136219 -0.0392192 0)
(-0.130731 -0.0690645 0)
(-0.11487 -0.0908399 0)
(-0.0859584 -0.094841 0)
(-0.0447076 -0.0693167 0)
(-0.002234 -0.0163461 0)
(-0.00168675 0.0226977 0)
(-0.00582391 0.0279498 0)
(-0.0101056 0.0305427 0)
(-0.0146371 0.0328881 0)
(-0.0195796 0.0352688 0)
(-0.0251181 0.0376248 0)
(-0.0316192 0.0398956 0)
(-0.0396156 0.0424768 0)
(-0.0503272 0.0466881 0)
(-0.0659541 0.0532076 0)
(-0.0863348 0.0576835 0)
(-0.106444 0.0513351 0)
(-0.120267 0.0297663 0)
(-0.12645 -0.00335996 0)
(-0.126751 -0.0405453 0)
(-0.12461 -0.0768352 0)
(-0.119176 -0.109736 0)
(-0.102679 -0.130599 0)
(-0.0677135 -0.117799 0)
(-0.0187311 -0.0470725 0)
(-0.00133992 0.0263402 0)
(-0.00492113 0.0320506 0)
(-0.00864416 0.0347652 0)
(-0.0125484 0.0373553 0)
(-0.0167865 0.0402068 0)
(-0.0215534 0.0433617 0)
(-0.027242 0.0469981 0)
(-0.0343197 0.0519154 0)
(-0.0438115 0.059781 0)
(-0.0571761 0.0700275 0)
(-0.0732568 0.0749932 0)
(-0.0870783 0.0649648 0)
(-0.0938207 0.0373863 0)
(-0.0935992 -0.000147594 0)
(-0.0911996 -0.0388778 0)
(-0.0899095 -0.0749018 0)
(-0.0919138 -0.110937 0)
(-0.0911373 -0.147472 0)
(-0.0735522 -0.163164 0)
(-0.032195 -0.100123 0)
(-0.00092147 0.0293189 0)
(-0.00379906 0.0354896 0)
(-0.00680039 0.0382976 0)
(-0.00988509 0.0410484 0)
(-0.0131582 0.0442522 0)
(-0.0167602 0.0480613 0)
(-0.0209876 0.0528326 0)
(-0.026047 0.0595089 0)
(-0.0323246 0.0696885 0)
(-0.0404658 0.0817218 0)
(-0.0496189 0.0858663 0)
(-0.0568143 0.0720993 0)
(-0.0585646 0.0393988 0)
(-0.0560584 -0.0020657 0)
(-0.0529004 -0.0410174 0)
(-0.0510398 -0.0739712 0)
(-0.0532484 -0.104477 0)
(-0.0604589 -0.143748 0)
(-0.060085 -0.186688 0)
(-0.0334258 -0.155619 0)
(-0.000467019 0.0315171 0)
(-0.00254314 0.0381278 0)
(-0.00470823 0.0409786 0)
(-0.00684031 0.0437615 0)
(-0.00896824 0.0471093 0)
(-0.011136 0.0512494 0)
(-0.0134508 0.0565696 0)
(-0.0158489 0.0639074 0)
(-0.0180154 0.0745839 0)
(-0.0199576 0.0863025 0)
(-0.0214588 0.0895387 0)
(-0.0229821 0.0749842 0)
(-0.0227768 0.0404738 0)
(-0.0215785 -0.00324993 0)
(-0.0207273 -0.044139 0)
(-0.0208807 -0.0761956 0)
(-0.0226582 -0.101489 0)
(-0.0297982 -0.133266 0)
(-0.0383163 -0.187084 0)
(-0.0266411 -0.201549 0)
(-1.71191e-05 0.0328817 0)
(-0.00125642 0.0398832 0)
(-0.00253568 0.0427111 0)
(-0.00365891 0.0453708 0)
(-0.00457217 0.0486025 0)
(-0.00521857 0.0526517 0)
(-0.00552479 0.0578256 0)
(-0.00523998 0.0647288 0)
(-0.0035678 0.0741601 0)
(-0.000127874 0.0843806 0)
(0.00512326 0.0870193 0)
(0.00938837 0.0739662 0)
(0.0121639 0.0415773 0)
(0.0120949 -0.00119927 0)
(0.00949387 -0.0418113 0)
(0.00455485 -0.073703 0)
(-0.00108021 -0.0978759 0)
(-0.00858723 -0.1247 0)
(-0.0194337 -0.178994 0)
(-0.018102 -0.228999 0)
(0.000385863 0.0334377 0)
(-6.23964e-05 0.0407579 0)
(-0.000477405 0.0434766 0)
(-0.000614917 0.0458586 0)
(-0.000353708 0.0487254 0)
(0.000423541 0.0523082 0)
(0.00190589 0.0567919 0)
(0.00443154 0.0624686 0)
(0.00885336 0.0696717 0)
(0.0159191 0.0772227 0)
(0.0255329 0.0788257 0)
(0.034493 0.0678896 0)
(0.040395 0.0409231 0)
(0.0412467 0.00344378 0)
(0.0363307 -0.0347457 0)
(0.0262335 -0.0657512 0)
(0.015715 -0.08959 0)
(0.0050121 -0.115464 0)
(-0.00672585 -0.16904 0)
(-0.0130734 -0.243666 0)
(0.000683714 0.0332486 0)
(0.000901401 0.0408142 0)
(0.00126638 0.04333 0)
(0.00202427 0.045297 0)
(0.00333627 0.0476039 0)
(0.00533813 0.050466 0)
(0.00822435 0.0539512 0)
(0.0123199 0.0580854 0)
(0.0182648 0.0628053 0)
(0.0268778 0.0671686 0)
(0.0379323 0.067203 0)
(0.0489602 0.0577061 0)
(0.0567052 0.0364416 0)
(0.0584191 0.00639483 0)
(0.0528572 -0.0258504 0)
(0.0408449 -0.0542803 0)
(0.0274378 -0.0776913 0)
(0.0137548 -0.10283 0)
(0.000542257 -0.157743 0)
(-0.0113822 -0.251652 0)
(0.00081043 0.0326367 0)
(0.00150919 0.0402101 0)
(0.00251104 0.0423985 0)
(0.0040372 0.0438234 0)
(0.00624419 0.0454348 0)
(0.0092436 0.0474489 0)
(0.0131721 0.0498502 0)
(0.0182459 0.0524975 0)
(0.0248296 0.0550914 0)
(0.0334638 0.0567919 0)
(0.044026 0.0552878 0)
(0.0546604 0.0472059 0)
(0.0621424 0.0308404 0)
(0.063945 0.00795183 0)
(0.0588501 -0.0175835 0)
(0.0476937 -0.0419069 0)
(0.0338163 -0.0637366 0)
(0.0186065 -0.0883475 0)
(0.00420759 -0.144184 0)
(-0.0115184 -0.255988 0)
(0.000670737 0.0316607 0)
(0.0015738 0.039073 0)
(0.00304347 0.0407873 0)
(0.00521241 0.0415444 0)
(0.00817806 0.0423734 0)
(0.0119915 0.0435086 0)
(0.0167045 0.0449009 0)
(0.0224028 0.0463308 0)
(0.0292199 0.04741 0)
(0.037311 0.0474171 0)
(0.046504 0.0449929 0)
(0.0555303 0.038383 0)
(0.061932 0.026278 0)
(0.0636089 0.00943138 0)
(0.0594751 -0.0100574 0)
(0.0499679 -0.0300769 0)
(0.0369004 -0.0494788 0)
(0.0213448 -0.0731704 0)
(0.00689454 -0.128494 0)
(-0.0119778 -0.257986 0)
(0.000170053 0.0317054 0)
(0.000928652 0.0381189 0)
(0.00269528 0.0388594 0)
(0.00537521 0.0387173 0)
(0.00899369 0.038644 0)
(0.0134997 0.0388795 0)
(0.0188621 0.0393654 0)
(0.0250521 0.0398706 0)
(0.032026 0.0400133 0)
(0.0396671 0.0392196 0)
(0.0476352 0.0366379 0)
(0.0550716 0.0313997 0)
(0.0603985 0.022721 0)
(0.0619862 0.0106965 0)
(0.0587952 -0.00371576 0)
(0.051033 -0.0194811 0)
(0.0389781 -0.0359076 0)
(0.0248136 -0.0591304 0)
(0.0120196 -0.111131 0)
(-0.0112685 -0.260107 0)
(-0.000954446 0.0284309 0)
(-0.00146833 0.0342524 0)
(0.000758467 0.0349122 0)
(0.0041679 0.0344335 0)
(0.00857186 0.0338845 0)
(0.0138309 0.0335082 0)
(0.0198731 0.0333292 0)
(0.0265996 0.0332006 0)
(0.0338647 0.0328341 0)
(0.0414328 0.0318127 0)
(0.0488728 0.0295902 0)
(0.0555045 0.0256718 0)
(0.0603417 0.019595 0)
(0.0621963 0.0114081 0)
(0.0598071 0.00133266 0)
(0.0534924 -0.0106091 0)
(0.0418661 -0.0238913 0)
(0.0332186 -0.0481929 0)
(0.0197127 -0.0951161 0)
(-0.00774219 -0.265605 0)
(-0.00319184 0.0444276 0)
(-0.00396524 0.0448131 0)
(-0.000616547 0.0398042 0)
(0.00365569 0.0350422 0)
(0.00870552 0.0317359 0)
(0.0147267 0.0295403 0)
(0.0216265 0.0280986 0)
(0.0291712 0.0270851 0)
(0.0371295 0.0261648 0)
(0.0452243 0.0249975 0)
(0.0530319 0.0232313 0)
(0.0599626 0.0205518 0)
(0.0651562 0.0168481 0)
(0.0677128 0.0119264 0)
(0.0667411 0.00593908 0)
(0.0626579 -0.00213011 0)
(0.0510788 -0.0129923 0)
(0.0529525 -0.0381554 0)
(0.0232842 -0.075915 0)
(0.00530565 -0.267273 0)
(-0.00597745 0.0158751 0)
(-0.00921657 0.00933888 0)
(-6.15297e-05 0.0104096 0)
(0.0101085 0.0138232 0)
(0.0204916 0.0148099 0)
(0.0309491 0.0146036 0)
(0.0411672 0.0142783 0)
(0.0511602 0.014071 0)
(0.0609678 0.0138776 0)
(0.0705496 0.0135472 0)
(0.0796944 0.0129554 0)
(0.088059 0.0119743 0)
(0.0951401 0.0105378 0)
(0.100599 0.00849938 0)
(0.103328 0.00588646 0)
(0.105087 0.00153894 0)
(0.0952933 -0.00403602 0)
(0.105829 -0.0214519 0)
(0.0299088 -0.0420252 0)
(0.0713302 -0.22564 0)
(0.0409251 0.0925407 0)
(0.0619649 0.0696 0)
(0.087423 0.043619 0)
(0.10941 0.0289416 0)
(0.126572 0.0212292 0)
(0.141103 0.0166935 0)
(0.154427 0.0136974 0)
(0.166941 0.0115593 0)
(0.178733 0.00995027 0)
(0.189882 0.00870802 0)
(0.20039 0.00768692 0)
(0.210164 0.00681149 0)
(0.218957 0.00601356 0)
(0.226661 0.00522464 0)
(0.232112 0.00435086 0)
(0.237614 0.00309069 0)
(0.230708 0.00168414 0)
(0.251598 -0.0034545 0)
(0.124985 0.00325911 0)
(0.378296 -0.0983494 0)
)
;

boundaryField
{
    movingWall
    {
        type            calculated;
        value           uniform (1.00033 -0.000322347 0);
    }
    fixedWalls
    {
        type            calculated;
        value           uniform (0.000333224 -0.000322347 0);
    }
    frontAndBack
    {
        type            empty;
    }
}


// ************************************************************************* //
