/*--------------------------------*- C++ -*----------------------------------*\
| =========                 |                                                 |
| \\      /  F ield         | OpenFOAM: The Open Source CFD Toolbox           |
|  \\    /   O peration     | Version:  2312                                  |
|   \\  /    A nd           | Website:  www.openfoam.com                      |
|    \\/     M anipulation  |                                                 |
\*---------------------------------------------------------------------------*/
FoamFile
{
    version     2.0;
    format      ascii;
    arch        "LSB;label=32;scalar=64";
    class       volScalarField;
    location    "1.625";
    object      divU;
}
// * * * * * * * * * * * * * * * * * * * * * * * * * * * * * * * * * * * * * //

dimensions      [0 0 -1 0 0 0 0];

internalField   nonuniform List<scalar> 
400
(
0.00409832
0.0451404
0.030115
0.0358885
0.0349165
0.0340369
0.0330369
0.0294773
0.0190815
0.0215368
0.0242953
0.0218839
0.00641168
-0.0318618
-0.0895405
-0.118772
-0.0955359
-0.0352194
0.00307207
0.00174643
-0.0258523
0.0102853
-0.0239473
-0.0271011
-0.0255182
-0.0233193
-0.0210598
-0.0191917
-0.01661
-0.00791198
0.00506553
0.0305243
0.0785723
0.0890667
0.0953912
0.0842631
0.0660856
0.0861814
0.0551708
0.0414163
-0.0332849
0.0290914
-0.00418936
-0.0143686
-0.0130033
-0.0108676
-0.00986189
-0.00849316
-0.00403366
0.00615933
0.0156513
0.0300635
0.0876558
0.165131
0.186201
0.153499
0.0968134
0.0257577
0.0116067
0.0319738
-0.052464
0.0280356
0.0019618
-0.0114266
-0.0124778
-0.0123841
-0.0118434
-0.00701241
0.000621849
0.0173268
0.0554788
0.0957485
0.0880163
0.0642361
0.0162516
0.00818204
0.0498846
0.150124
0.0378597
-0.0319454
-0.0522582
0.031437
0.0104461
-0.00399396
-0.00621285
-0.00607875
-0.0030906
0.00800743
0.0123516
-0.00512189
-0.0411169
-0.109599
-0.20014
-0.257607
-0.243382
-0.297531
-0.30068
0.0258814
0.00265102
0.187784
-0.0468131
0.0297215
0.012173
-0.00197604
-0.00575842
-0.0073662
-0.00398088
0.0061208
-0.0115478
-0.100242
-0.23003
-0.250461
-0.0914205
-0.118898
-0.328576
-0.363311
-0.341885
-0.477007
-0.205434
0.557428
-0.0393315
0.0268279
0.0125107
-0.000768473
-0.00529506
-0.00681717
0.00363412
0.0282479
-0.00295283
-0.115643
-0.230181
-0.156139
0.0185238
0.201347
0.218176
0.173801
0.18328
-0.116839
-0.989914
0.333436
-0.0306274
0.0235591
0.0127662
0.00179775
-0.00215525
-0.00190343
0.017059
0.0462586
0.0144076
-0.0931074
-0.171942
0.0200286
0.311161
0.391534
0.321771
0.214985
0.403137
0.521339
-0.99464
-0.213255
-0.0210086
0.0198286
0.0127428
0.00483777
0.00274111
0.00583977
0.0284629
0.0654924
0.0384108
-0.101931
-0.180292
0.107368
0.384339
0.256189
-0.024253
-0.164193
0.00290002
0.736919
0.311348
-0.724876
-0.0113841
0.0152325
0.0116384
0.00623769
0.00545201
0.0107867
0.0280174
0.0655324
0.036282
-0.0784547
-0.187144
0.0549017
0.358214
0.291587
-0.0096084
-0.166267
-0.231652
0.338938
1.08509
-0.775611
-0.00193159
0.0111582
0.00954793
0.00605884
0.0056437
0.0106147
0.0200944
0.0518253
0.0199874
-0.0388674
-0.119682
-0.00539791
0.315582
0.402371
0.185312
-0.0129649
-0.124279
-0.0551961
0.852861
-0.391552
0.00239493
0.00677608
0.00664021
0.00498976
0.00398515
0.0073856
0.0133619
0.030401
0.0132707
-0.0532455
-0.124245
-0.139813
0.161795
0.352978
0.0947681
-0.119305
-0.103687
-0.0570954
0.316592
-0.218742
0.0117598
0.00348192
0.00448126
0.00347218
0.00232422
0.00288119
0.00400996
0.00692406
-0.00224576
-0.0763319
-0.145547
-0.191077
-0.0623742
0.0660042
-0.0412005
-0.157507
-0.123668
0.022135
-0.0281124
-0.0815162
0.0065282
-0.00405982
-0.00147367
-0.00194206
-0.00240742
-0.0029427
-0.00480404
-0.00971695
-0.0177346
-0.055508
-0.101343
-0.120669
-0.0879012
-0.0255668
-0.0458339
-0.0830401
-0.0874662
0.00510925
-0.0875665
0.16425
0.0646857
0.0281513
0.00994669
0.00285231
-0.00117054
-0.0042972
-0.00735151
-0.0111393
-0.0169864
-0.0288229
-0.0430534
-0.0378184
-0.00408662
0.0287727
0.0226792
-0.0148994
-0.0794155
-0.0788765
-0.0268968
0.163028
-0.279758
-0.229542
-0.142855
-0.0812498
-0.0364372
-0.0131966
-0.00192837
0.00336912
0.00390624
0.000485564
0.000187255
0.00520591
0.0231683
0.0373353
0.0436902
-0.0349367
-0.0631993
-0.198096
-0.270454
-0.770299
0.963295
0.840719
0.65811
0.413826
0.275492
0.196211
0.150192
0.120593
0.0984743
0.0786093
0.0665017
0.0620853
0.0819001
0.0695372
0.0950923
-0.0589993
0.264155
-0.117831
-0.574491
-1.847
-2.03793
-2.23382
-1.68817
-1.12882
-0.800359
-0.59836
-0.460642
-0.362661
-0.290343
-0.236308
-0.189664
-0.157321
-0.130703
-0.132381
-0.050114
-0.351421
1.01499
-0.105357
0.5444
1.2041
3.22526
3.07028
2.31398
1.44525
1.03338
0.782887
0.58099
0.427478
0.317484
0.243711
0.19651
0.170547
0.170573
0.148586
0.289894
-0.281364
1.54189
-3.06836
4.46754
6.83513
-0.683695
-3.30857
-0.722861
-0.426027
-0.498988
-0.408663
-0.278237
-0.196908
-0.153233
-0.124306
-0.10042
-0.0863686
-0.0698997
-0.121414
0.0070898
-0.667753
1.5691
-8.14614
16.482
-17.927
)
;

boundaryField
{
    movingWall
    {
        type            extrapolatedCalculated;
        value           nonuniform List<scalar> 
20
(
-0.683695
-3.30857
-0.722861
-0.426027
-0.498988
-0.408663
-0.278237
-0.196908
-0.153233
-0.124306
-0.10042
-0.0863686
-0.0698997
-0.121414
0.0070898
-0.667753
1.5691
-8.14614
16.482
-17.927
)
;
    }
    fixedWalls
    {
        type            extrapolatedCalculated;
        value           nonuniform List<scalar> 
60
(
0.00409832
-0.0258523
-0.0332849
-0.052464
-0.0522582
-0.0468131
-0.0393315
-0.0306274
-0.0210086
-0.0113841
-0.00193159
0.00239493
0.0117598
0.0065282
0.0646857
-0.279758
0.963295
-2.03793
3.22526
-0.683695
0.00174643
0.0414163
0.0319738
-0.0319454
0.187784
0.557428
0.333436
-0.213255
-0.724876
-0.775611
-0.391552
-0.218742
-0.0815162
0.16425
0.163028
-0.770299
-1.847
1.2041
6.83513
-17.927
0.00409832
0.0451404
0.030115
0.0358885
0.0349165
0.0340369
0.0330369
0.0294773
0.0190815
0.0215368
0.0242953
0.0218839
0.00641168
-0.0318618
-0.0895405
-0.118772
-0.0955359
-0.0352194
0.00307207
0.00174643
)
;
    }
    frontAndBack
    {
        type            empty;
    }
}


// ************************************************************************* //
