/*--------------------------------*- C++ -*----------------------------------*\
| =========                 |                                                 |
| \\      /  F ield         | OpenFOAM: The Open Source CFD Toolbox           |
|  \\    /   O peration     | Version:  2312                                  |
|   \\  /    A nd           | Website:  www.openfoam.com                      |
|    \\/     M anipulation  |                                                 |
\*---------------------------------------------------------------------------*/
FoamFile
{
    version     2.0;
    format      ascii;
    arch        "LSB;label=32;scalar=64";
    class       volScalarField;
    location    "1.625";
    object      enstrophyField;
}
// * * * * * * * * * * * * * * * * * * * * * * * * * * * * * * * * * * * * * //

dimensions      [0 0 -2 0 0 0 0];

internalField   nonuniform List<scalar> 
400
(
0.0433551
0.327071
1.18804
2.87653
5.61247
9.5
14.5278
20.4153
26.5177
31.8719
35.1672
35.4541
32.2443
25.8745
17.7396
9.90577
4.19508
1.20125
0.171772
3.56809e-05
0.362162
0.28885
0.264974
0.28985
0.373471
0.488935
0.588396
0.617996
0.563181
0.478723
0.44725
0.491052
0.667914
0.98872
1.36413
1.55505
1.34147
0.911782
0.51169
0.114669
1.27907
0.279847
0.162064
0.113032
0.0945643
0.0814375
0.0581355
0.0290388
0.0122728
0.017562
0.089947
0.411011
1.29328
2.93241
4.91698
6.30684
6.05119
3.6258
1.1543
0.409001
2.9443
0.24466
0.108454
0.0600535
0.0342161
0.0146029
0.00125829
0.00214434
0.00165378
0.0289165
0.446977
2.01543
4.96338
8.45911
12.0982
16.7507
21.2264
19.6884
8.42607
1.22972
5.51603
0.217558
0.0711673
0.0326279
0.0119265
0.000590103
0.00527376
0.0135182
0.00146475
0.276853
1.60957
3.26129
2.9923
1.91477
2.64476
7.85317
22.0913
43.4545
42.2744
8.01148
8.90605
0.203376
0.0469322
0.016869
0.00269089
0.00169962
0.0154011
0.0086279
0.0389828
0.473618
0.611811
0.0229371
3.26716
9.78717
11.5331
4.7579
0.563478
25.9151
83.7114
55.8699
12.8519
0.199859
0.0308032
0.00748849
4.51273e-05
0.00688785
0.0191388
0.00287314
0.0382796
0.0296407
0.962986
11.6988
37.2326
61.7983
70.2045
60.5133
29.4299
0.0415941
63.1367
188.545
16.9771
0.204808
0.0199912
0.00237806
0.000861333
0.0122728
0.0215879
0.00308539
5.99853e-05
0.528001
8.72725
38.0515
80.4098
107.539
110.417
106.04
95.9073
44.6015
7.88853
384.579
20.8531
0.217843
0.0131678
0.000304085
0.00324278
0.0168721
0.0274643
0.0130395
0.0641967
2.21357
18.8623
61.1216
105.428
116.185
101.357
87.7657
96.6495
103.033
11.0954
564.843
24.0715
0.239356
0.00937097
4.5629e-05
0.0060295
0.0216587
0.0393354
0.0389973
0.202356
3.2215
21.8199
66.4331
110.949
116.688
91.5845
63.7829
59.6652
94.4846
59.3333
694.392
26.3224
0.270016
0.00789725
0.000557933
0.00889203
0.0272963
0.0537783
0.077847
0.260425
2.64903
16.4774
52.9597
95.6859
106.892
83.9312
53.2293
39.9352
67.1973
92.3291
775.315
27.4834
0.310553
0.00843158
0.00094349
0.0106412
0.0310042
0.0643931
0.10952
0.250524
1.5934
8.87982
30.0114
59.3909
74.4115
63.3468
41.5273
30.6005
51.8084
109.784
821.512
27.5898
0.362087
0.0111649
0.000715534
0.0102084
0.0305724
0.0664973
0.123019
0.237566
0.864226
3.90758
12.9687
26.6878
36.1167
34.6068
26.8652
22.2119
43.8477
127.608
829.038
27.0145
0.41309
0.016859
0.000115356
0.00739687
0.0250412
0.0588793
0.117208
0.221823
0.523962
1.64851
4.81045
9.8928
14.3722
15.9481
15.2773
15.6258
38.7533
151.367
800.494
25.9335
0.471139
0.0261559
0.000307743
0.00308322
0.0149415
0.0411237
0.0923238
0.186669
0.37155
0.799262
1.82906
3.70133
5.90877
7.78282
9.14236
11.6429
36.3139
185.528
743.381
25.9879
0.5198
0.041572
0.00343703
0.000268257
0.00624902
0.0237081
0.0629771
0.140225
0.281035
0.519048
0.964814
1.82651
3.13105
4.65419
6.37828
9.95249
37.9296
228.542
671.091
22.2377
0.646974
0.061004
0.00239316
0.00202939
0.0158824
0.0471878
0.106451
0.210695
0.387304
0.66557
1.10799
1.80907
2.87735
4.48893
6.78917
12.3427
49.3657
261.465
589.968
45.0381
0.0488245
0.400596
0.981253
1.51756
2.15396
2.82016
3.5098
4.26048
5.13609
6.21891
7.58073
9.42812
12.1584
16.5757
24.8692
40.0088
91.846
286.356
347.086
1.66682
25.4867
34.9074
51.3627
68.5459
80.5287
88.8892
95.456
101.001
105.967
110.903
116.463
123.678
133.825
148.49
170.901
205.275
279.98
467.842
56.148
16252.8
19936.8
19089.9
18117.3
17407
16857.2
16384.2
15954.6
15555.2
15181.5
14834.7
14520.1
14249.4
14029.3
13900.5
13788.5
14132.3
13475.3
18830.9
10608.3
)
;

boundaryField
{
    movingWall
    {
        type            calculated;
        value           nonuniform List<scalar> 
20
(
67522.5
72291
68165.4
64300
61505.5
59321.2
57418.4
55688.3
54095.9
52619.9
51253.4
50002.3
48893.5
47936.9
47278.8
46620.6
47587.5
44801.2
64666.4
28649
)
;
    }
    fixedWalls
    {
        type            calculated;
        value           nonuniform List<scalar> 
60
(
0.0392594
0.572763
2.95132
8.13216
16.6701
28.2412
41.8493
56.058
69.2573
79.9522
87.0715
90.2355
89.5916
86.9209
82.6547
84.1576
70.0631
169.322
2.13683
12708.4
0.0198899
0.0103797
0.167069
0.316706
2.52661
35.9417
235.361
856.551
1895.01
3117.2
4060.24
4672.13
5037.7
5235.29
5308.69
5355.14
5455.48
4887.95
1395.41
6715.61
0.0382212
0.52103
2.70133
7.44243
15.3302
26.7015
41.7849
60.2685
80.7768
100.284
113.218
115.946
105.086
82.1777
53.682
27.7601
10.3292
2.17517
0.111273
0.0135934
)
;
    }
    frontAndBack
    {
        type            empty;
    }
}


// ************************************************************************* //
