/*--------------------------------*- C++ -*----------------------------------*\
| =========                 |                                                 |
| \\      /  F ield         | OpenFOAM: The Open Source CFD Toolbox           |
|  \\    /   O peration     | Version:  2312                                  |
|   \\  /    A nd           | Website:  www.openfoam.com                      |
|    \\/     M anipulation  |                                                 |
\*---------------------------------------------------------------------------*/
FoamFile
{
    version     2.0;
    format      ascii;
    arch        "LSB;label=32;scalar=64";
    class       volScalarField;
    location    "1.625";
    object      epsilonzeroGrad;
}
// * * * * * * * * * * * * * * * * * * * * * * * * * * * * * * * * * * * * * //

dimensions      [0 2 -3 0 0 0 0];

internalField   nonuniform List<scalar> 
400
(
0.000115599
0.000215376
0.000351059
0.000495244
0.000646817
0.000809679
0.000986424
0.00117206
0.00135233
0.00149003
0.00154912
0.00155977
0.00149403
0.00134595
0.0011472
0.000891866
0.000628713
0.000391419
0.000204828
0.00011627
0.000204302
0.000204319
0.000270726
0.000336081
0.000395565
0.000451663
0.000505385
0.000553204
0.000588958
0.000610404
0.000628178
0.000663649
0.000727125
0.000762082
0.000768544
0.000696794
0.00054232
0.000357284
0.000226672
0.000195283
0.000357312
0.000249548
0.000289845
0.000340262
0.000381852
0.000416345
0.000448113
0.000481207
0.000523899
0.000590399
0.000697939
0.000871807
0.00112295
0.00137873
0.00149693
0.00150468
0.00122055
0.000753595
0.000380545
0.000300181
0.000523194
0.000308052
0.00032485
0.000364079
0.000401717
0.000437915
0.00047786
0.000533419
0.000629346
0.000807739
0.00112468
0.00161629
0.00224344
0.0029143
0.0033676
0.00356979
0.00318891
0.00218283
0.000887743
0.000406077
0.000692139
0.000361736
0.000359941
0.000397147
0.000439172
0.000486844
0.000553196
0.000667947
0.000889375
0.00130888
0.00200076
0.00287002
0.00360826
0.00412347
0.00470314
0.00551044
0.00607993
0.00558535
0.00289779
0.000738277
0.000858197
0.00040813
0.000391772
0.000428848
0.000480393
0.00055123
0.000667572
0.000887844
0.00131717
0.00205215
0.00294935
0.00345793
0.0036871
0.0040127
0.00456952
0.00558137
0.00719642
0.00856137
0.00811146
0.00297419
0.00101589
0.000448188
0.000418242
0.000456583
0.000520571
0.000620596
0.000798366
0.00113798
0.00174965
0.00259867
0.00302172
0.00310192
0.00295098
0.00289684
0.00329248
0.00430017
0.00623109
0.00971563
0.0130698
0.0107212
0.00116
0.000481931
0.000438431
0.000477993
0.000554054
0.000681541
0.000912702
0.00134016
0.00204398
0.00264895
0.00277847
0.00238681
0.00199461
0.00185384
0.00189478
0.00266856
0.0044281
0.00805966
0.0153263
0.0219507
0.00128555
0.000509467
0.000452062
0.000491262
0.000575538
0.000721021
0.000980943
0.00143402
0.00210617
0.00252076
0.00240717
0.00185072
0.0014126
0.00124808
0.00124281
0.00173369
0.00304342
0.00662358
0.0154497
0.0296823
0.00138838
0.000531233
0.000459506
0.000495236
0.000580907
0.000729407
0.000985813
0.00141616
0.00203093
0.00233341
0.00215187
0.00156575
0.00115098
0.00100512
0.00102544
0.00139246
0.00239452
0.00527613
0.0143085
0.0345226
0.00146457
0.000547529
0.000461724
0.000492457
0.00057512
0.000718192
0.000960049
0.00135016
0.00187198
0.00218811
0.0020399
0.00154521
0.00114217
0.000958159
0.000999392
0.00132233
0.0022034
0.00468589
0.0137485
0.0382367
0.00151517
0.000559473
0.00046086
0.000485258
0.000560716
0.000690658
0.00090198
0.00122907
0.00166936
0.00202927
0.00198441
0.00164297
0.00124295
0.00108034
0.00116157
0.00147822
0.00222548
0.00447603
0.0136014
0.0416261
0.00153955
0.000569729
0.000458684
0.000475056
0.000540284
0.00065318
0.000830397
0.00109595
0.00145498
0.00181675
0.00192452
0.00179095
0.00149494
0.00133108
0.00142124
0.00171698
0.00235023
0.0044381
0.0139846
0.0455157
0.00154597
0.000577193
0.000455845
0.00046526
0.00052014
0.000616775
0.00076272
0.000972938
0.0012536
0.00156598
0.00178045
0.00176704
0.00167023
0.00156238
0.00161336
0.00181644
0.00236909
0.00435833
0.0147287
0.0501848
0.00153928
0.00057684
0.00045504
0.000462063
0.000509956
0.000593132
0.000712227
0.000876848
0.00108989
0.00133289
0.00154181
0.00163954
0.00162173
0.00158114
0.00162337
0.00178384
0.0022468
0.00401702
0.0153781
0.056327
0.0015531
0.000575425
0.000461954
0.000473203
0.000522664
0.000603113
0.000712612
0.000849233
0.00101209
0.00119039
0.00135208
0.00145315
0.00148185
0.00148539
0.00152757
0.00168315
0.00212723
0.00382031
0.0159205
0.0646003
0.00153983
0.000594329
0.000513956
0.000550654
0.000621433
0.000715099
0.000829052
0.000964216
0.0011165
0.00127603
0.00142154
0.00152117
0.00156476
0.00158536
0.00164181
0.00182139
0.00231828
0.00431899
0.0185167
0.0761502
0.0017914
0.000873211
0.00101882
0.00121228
0.00141271
0.00162262
0.00183634
0.00205203
0.00226308
0.00246523
0.00264931
0.00280095
0.00291271
0.0030354
0.00320137
0.0035291
0.0043862
0.00815354
0.0253259
0.0945707
0.00304112
0.0051025
0.00799458
0.0100725
0.0115789
0.0127962
0.0137762
0.0145758
0.0151891
0.0157154
0.0161735
0.0166128
0.0170396
0.0176043
0.0182743
0.0195431
0.0217048
0.032481
0.0488126
0.127128
0.0434081
0.0839777
0.12281
0.147177
0.161781
0.170802
0.175917
0.178635
0.178942
0.178504
0.177443
0.175782
0.174422
0.172988
0.172985
0.173687
0.176841
0.17788
0.193734
0.167973
)
;

boundaryField
{
    movingWall
    {
        type            zeroGradient;
    }
    fixedWalls
    {
        type            zeroGradient;
    }
    frontAndBack
    {
        type            empty;
    }
}


// ************************************************************************* //
