/*--------------------------------*- C++ -*----------------------------------*\
| =========                 |                                                 |
| \\      /  F ield         | OpenFOAM: The Open Source CFD Toolbox           |
|  \\    /   O peration     | Version:  2312                                  |
|   \\  /    A nd           | Website:  www.openfoam.com                      |
|    \\/     M anipulation  |                                                 |
\*---------------------------------------------------------------------------*/
FoamFile
{
    version     2.0;
    format      ascii;
    arch        "LSB;label=32;scalar=64";
    class       volScalarField;
    location    "1.625";
    object      flowTypeField;
}
// * * * * * * * * * * * * * * * * * * * * * * * * * * * * * * * * * * * * * //

dimensions      [0 0 0 0 0 0 0];

internalField   nonuniform List<scalar> 
400
(
0.272853
0.207276
0.140565
0.0896422
0.0567395
0.0369505
0.0256674
0.0201651
0.0184859
0.0186828
0.0214367
0.0289256
0.0390856
0.0525302
0.0729868
0.102365
0.145852
0.204803
0.263791
0.85463
0.185788
0.351283
0.448835
0.475238
0.455326
0.422426
0.394836
0.379291
0.376065
0.379201
0.384583
0.406667
0.424764
0.425254
0.409977
0.390815
0.372154
0.332725
0.243821
0.113872
0.132683
0.421163
0.557708
0.641473
0.684092
0.713328
0.753938
0.814475
0.869438
0.844771
0.708457
0.550064
0.435826
0.35493
0.297733
0.258737
0.225105
0.211915
0.245837
0.14797
0.0957502
0.478766
0.629962
0.726302
0.798077
0.869594
0.961027
0.95037
0.958637
0.859991
0.631122
0.47205
0.379188
0.329814
0.299428
0.256136
0.199818
0.141976
0.0817885
0.11143
0.0673362
0.513353
0.691086
0.790772
0.876478
0.973083
0.926897
0.89614
0.970665
0.73535
0.575724
0.529519
0.578919
0.6604
0.63625
0.491787
0.321906
0.186743
0.0835082
0.0465398
0.0473774
0.522649
0.737079
0.842648
0.939215
0.955912
0.887303
0.928956
0.889287
0.743144
0.764613
0.951525
0.505096
0.235951
0.210733
0.472122
0.826686
0.345587
0.140651
0.0220606
0.0341709
0.510412
0.771369
0.888106
0.991743
0.914176
0.882289
0.963107
0.905622
0.935886
0.702318
0.159572
-0.301034
-0.541127
-0.611362
-0.555595
-0.190729
0.9465
0.247469
0.0562817
0.0254788
0.478712
0.796253
0.930748
0.962741
0.88553
0.878317
0.963875
0.996254
0.746595
0.225969
-0.339234
-0.766038
-0.906633
-0.930653
-0.940837
-0.863784
-0.476705
0.55676
0.0839388
0.0195997
0.428314
0.810873
0.971875
0.923479
0.861327
0.86153
0.92652
0.880135
0.499749
-0.0800939
-0.620231
-0.927362
-0.849485
-0.864074
-0.91497
-0.760943
-0.649142
0.0874949
0.0850413
0.0154379
0.362513
0.811884
0.987381
0.886497
0.833227
0.827685
0.8696
0.781496
0.37339
-0.20411
-0.737169
-0.89381
-0.802299
-0.854013
-0.943751
-0.738402
-0.478322
-0.567796
0.0675573
0.0122928
0.289731
0.792976
0.949143
0.847968
0.798721
0.786452
0.806205
0.736634
0.385328
-0.157127
-0.69438
-0.832973
-0.72866
-0.698545
-0.637447
-0.521957
-0.327313
-0.269333
0.0422568
0.00938647
0.220054
0.747315
0.923578
0.817195
0.769822
0.750478
0.753789
0.718048
0.47039
0.0329765
-0.425831
-0.648465
-0.586742
-0.472299
-0.347354
-0.254124
-0.169507
-0.125225
0.01895
0.00581461
0.158175
0.678057
0.925847
0.808495
0.758782
0.730962
0.718154
0.695841
0.553298
0.249351
-0.109228
-0.346669
-0.354842
-0.234383
-0.117387
-0.0435568
-0.0446638
-0.0426974
0.00464707
0.000309547
0.0945312
0.60241
0.969275
0.83402
0.776155
0.735939
0.704984
0.673994
0.595487
0.41035
0.144623
-0.0630733
-0.101923
-0.0240676
0.0542171
0.0990935
0.0323287
-0.00613229
-0.00116486
-0.00863633
-0.00316939
0.539854
0.954471
0.896338
0.828175
0.77446
0.723748
0.671673
0.605323
0.493376
0.308656
0.121123
0.0584779
0.0996579
0.148538
0.169958
0.0482139
-0.00939974
0.000815387
-0.0219452
-0.0777088
0.570884
0.88422
0.972521
0.894292
0.830363
0.765632
0.695283
0.612749
0.508676
0.352874
0.154804
0.0575606
0.0999403
0.15314
0.165788
-0.0304992
-0.0318709
0.0116356
-0.0303641
-0.0693265
0.425509
0.895242
0.927104
0.841764
0.774771
0.708541
0.633558
0.5384
0.408848
0.212114
-0.0932402
-0.308461
-0.128262
0.0130874
0.00532283
-0.23943
-0.0196864
0.0466588
-0.0411662
0.846231
0.617106
0.391838
0.292739
0.25651
0.239463
0.221002
0.192704
0.147164
0.0755433
-0.0282354
-0.164859
-0.277477
-0.300113
-0.242
-0.428667
-0.419697
0.00361111
0.237075
0.691597
-0.00709331
0.0725452
0.0598193
0.0252516
0.0138323
0.0129983
0.0133272
0.0118551
0.00810591
0.0019007
-0.00649918
-0.0165917
-0.026925
-0.0416397
-0.0550394
-0.123697
-0.10477
-0.314722
0.736316
0.0852487
-0.0239404
-0.0205047
-0.0114082
-0.00626137
-0.00384818
-0.00261503
-0.00189974
-0.00143719
-0.00113621
-0.000955966
-0.000858096
-0.000840891
-0.00092572
-0.00123839
-0.00160299
-0.0038727
0.00312357
-0.0485801
0.118938
)
;

boundaryField
{
    movingWall
    {
        type            calculated;
        value           nonuniform List<scalar> 
20
(
0.0470039
-0.0101223
-0.0098667
-0.00567611
-0.00315691
-0.00196159
-0.00135045
-0.000995593
-0.000764902
-0.000613681
-0.000522421
-0.000471365
-0.000460863
-0.000502507
-0.000669557
-0.000863947
-0.00211232
0.00115623
-0.026403
0.0666233
)
;
    }
    fixedWalls
    {
        type            calculated;
        value           nonuniform List<scalar> 
60
(
0.192103
0.0842335
0.0511529
0.0355709
0.0248672
0.0179395
0.0136651
0.0109869
0.00917766
0.00779706
0.00657966
0.00519466
0.00323354
7.88918e-05
-0.0049226
-0.0123467
-0.0217915
-0.022245
0.731447
0.192316
0.247013
0.357206
0.19497
0.248951
0.0775545
-0.0610701
0.0167215
0.0451803
0.0428148
0.0313741
0.0189816
0.00866127
0.00270209
0.000510142
0.00138867
0.00508974
0.0160901
0.0748036
0.439646
0.43246
0.188624
0.0954008
0.0525389
0.0307787
0.0180732
0.0109179
0.00745432
0.00671426
0.00776913
0.00945104
0.011928
0.0161601
0.0207666
0.0256875
0.0327349
0.0429153
0.061391
0.105843
0.312152
0.361073
)
;
    }
    frontAndBack
    {
        type            empty;
    }
}


// ************************************************************************* //
