/*--------------------------------*- C++ -*----------------------------------*\
| =========                 |                                                 |
| \\      /  F ield         | OpenFOAM: The Open Source CFD Toolbox           |
|  \\    /   O peration     | Version:  2312                                  |
|   \\  /    A nd           | Website:  www.openfoam.com                      |
|    \\/     M anipulation  |                                                 |
\*---------------------------------------------------------------------------*/
FoamFile
{
    version     2.0;
    format      ascii;
    arch        "LSB;label=32;scalar=64";
    class       surfaceScalarField;
    location    "1.625";
    object      fluxField;
}
// * * * * * * * * * * * * * * * * * * * * * * * * * * * * * * * * * * * * * //

dimensions      [0 3 -1 0 0 0 0];

oriented        oriented;

internalField   nonuniform List<scalar> 
760
(
-6.39097e-08
6.49343e-08
-1.96186e-07
1.43561e-07
-3.79749e-07
1.91092e-07
-5.84018e-07
2.13241e-07
-8.00359e-07
2.2507e-07
-1.0257e-06
2.33853e-07
-1.25646e-06
2.3902e-07
-1.48343e-06
2.34335e-07
-1.68884e-06
2.10179e-07
-1.84291e-06
1.59457e-07
-1.91861e-06
8.1778e-08
-1.89126e-06
-2.18826e-08
-1.74072e-06
-1.48936e-07
-1.47371e-06
-2.74978e-07
-1.12227e-06
-3.73823e-07
-7.38992e-07
-4.12973e-07
-3.85919e-07
-3.76957e-07
-1.2315e-07
-2.71574e-07
2.99638e-09
-1.25378e-07
3.43299e-09
-1.43219e-07
2.01691e-07
-3.39825e-07
3.42738e-07
-5.78636e-07
4.23916e-07
-8.40465e-07
4.68296e-07
-1.11716e-06
4.9539e-07
-1.40207e-06
5.12924e-07
-1.68429e-06
5.15982e-07
-1.94607e-06
4.91313e-07
-2.16501e-06
4.24967e-07
-2.31888e-06
3.11351e-07
-2.38872e-06
1.52885e-07
-2.35525e-06
-4.77235e-08
-2.19884e-06
-2.857e-07
-1.91322e-06
-5.38339e-07
-1.51547e-06
-7.4772e-07
-1.05479e-06
-8.52584e-07
-6.11678e-07
-8.03551e-07
-2.64107e-07
-5.976e-07
-6.29384e-08
-3.12754e-07
-4.91513e-08
-2.00726e-07
3.94096e-07
-4.23909e-07
5.73194e-07
-6.75047e-07
6.74006e-07
-9.48584e-07
7.38241e-07
-1.23887e-06
7.82428e-07
-1.53922e-06
8.10558e-07
-1.83825e-06
8.12546e-07
-2.11902e-06
7.69958e-07
-2.36485e-06
6.69786e-07
-2.56456e-06
5.12603e-07
-2.70935e-06
3.01581e-07
-2.77805e-06
2.84999e-08
-2.72568e-06
-3.1616e-07
-2.50169e-06
-7.21047e-07
-2.08135e-06
-1.12151e-06
-1.49422e-06
-1.40134e-06
-8.54078e-07
-1.41949e-06
-3.33843e-07
-1.1114e-06
-6.1382e-08
-5.82313e-07
-1.0254e-07
-2.2942e-07
6.10399e-07
-4.6569e-07
8.16473e-07
-7.1984e-07
9.28647e-07
-9.93794e-07
1.00934e-06
-1.28633e-06
1.07184e-06
-1.59412e-06
1.11526e-06
-1.90976e-06
1.12522e-06
-2.22413e-06
1.08258e-06
-2.53701e-06
9.8282e-07
-2.86234e-06
8.42266e-07
-3.21255e-06
6.65654e-07
-3.56309e-06
4.0298e-07
-3.81452e-06
-4.27201e-08
-3.81541e-06
-7.04107e-07
-3.45217e-06
-1.48069e-06
-2.7084e-06
-2.14306e-06
-1.68776e-06
-2.42765e-06
-6.57745e-07
-2.10388e-06
-6.67962e-08
-1.1638e-06
-1.77322e-07
-2.35752e-07
8.33087e-07
-4.73761e-07
1.06234e-06
-7.24645e-07
1.18214e-06
-9.94143e-07
1.27784e-06
-1.28501e-06
1.36116e-06
-1.59906e-06
1.42778e-06
-1.93781e-06
1.4632e-06
-2.30974e-06
1.45651e-06
-2.75017e-06
1.42634e-06
-3.32279e-06
1.41361e-06
-4.05836e-06
1.39095e-06
-4.85583e-06
1.17305e-06
-5.48836e-06
5.39778e-07
-5.73259e-06
-5.2428e-07
-5.47155e-06
-1.80258e-06
-4.68216e-06
-3.00683e-06
-3.39148e-06
-3.7935e-06
-1.74231e-06
-3.74658e-06
-3.88126e-07
-2.51731e-06
-5.18502e-07
-2.26086e-07
1.04747e-06
-4.55264e-07
1.29895e-06
-6.95436e-07
1.42536e-06
-9.53634e-07
1.53554e-06
-1.23622e-06
1.6423e-06
-1.55177e-06
1.74149e-06
-1.91468e-06
1.82512e-06
-2.3578e-06
1.90116e-06
-2.95447e-06
2.02012e-06
-3.79164e-06
2.22571e-06
-4.83652e-06
2.37832e-06
-5.84044e-06
2.11435e-06
-6.51367e-06
1.19016e-06
-6.78367e-06
-2.84011e-07
-6.69039e-06
-1.978e-06
-6.15668e-06
-3.63138e-06
-5.03737e-06
-4.99828e-06
-3.28331e-06
-5.61989e-06
-1.1902e-06
-4.66178e-06
-1.56935e-06
-2.04428e-07
1.24206e-06
-4.14898e-07
1.51613e-06
-6.35227e-07
1.64881e-06
-8.72078e-07
1.7722e-06
-1.1341e-06
1.90301e-06
-1.43509e-06
2.04078e-06
-1.79753e-06
2.18846e-06
-2.26523e-06
2.37592e-06
-2.92369e-06
2.67784e-06
-3.82389e-06
3.09699e-06
-4.83614e-06
3.33303e-06
-5.68444e-06
2.92361e-06
-6.18458e-06
1.69493e-06
-6.34669e-06
-7.15714e-08
-6.30068e-06
-1.96946e-06
-6.11129e-06
-3.77731e-06
-5.56304e-06
-5.50072e-06
-4.27648e-06
-6.93566e-06
-2.17778e-06
-7.00797e-06
-3.66376e-06
-1.73187e-07
1.4076e-06
-3.55793e-07
1.70462e-06
-5.46474e-07
1.84269e-06
-7.50033e-07
1.97621e-06
-9.75158e-07
2.12759e-06
-1.23655e-06
2.30169e-06
-1.55571e-06
2.51188e-06
-1.96994e-06
2.80172e-06
-2.54135e-06
3.25286e-06
-3.27748e-06
3.80985e-06
-4.02504e-06
4.0376e-06
-4.53914e-06
3.44272e-06
-4.70216e-06
1.93575e-06
-4.63663e-06
-3.92151e-08
-4.54439e-06
-1.98126e-06
-4.56224e-06
-3.70571e-06
-4.59294e-06
-5.36924e-06
-4.1339e-06
-7.26436e-06
-2.66034e-06
-8.73019e-06
-6.37742e-06
-1.34674e-07
1.53702e-06
-2.81647e-07
1.85655e-06
-4.33798e-07
1.99802e-06
-5.92744e-07
2.13636e-06
-7.6462e-07
2.30015e-06
-9.60355e-07
2.49889e-06
-1.19253e-06
2.75117e-06
-1.47595e-06
3.10152e-06
-1.83642e-06
3.62293e-06
-2.26878e-06
4.21672e-06
-2.67749e-06
4.40124e-06
-2.90113e-06
3.6932e-06
-2.88224e-06
2.01293e-06
-2.74063e-06
-1.16774e-07
-2.61517e-06
-2.11279e-06
-2.62387e-06
-3.73805e-06
-2.85934e-06
-5.13304e-06
-3.03026e-06
-6.90922e-06
-2.35443e-06
-9.32818e-06
-8.91307e-06
-9.19152e-08
1.62609e-06
-1.97946e-07
1.96639e-06
-3.05375e-07
2.10836e-06
-4.11875e-07
2.24442e-06
-5.19268e-07
2.40891e-06
-6.31332e-07
2.61365e-06
-7.49152e-07
2.876e-06
-8.63268e-07
3.23202e-06
-9.65988e-07
3.73472e-06
-1.05207e-06
4.2832e-06
-1.12769e-06
4.43007e-06
-1.16063e-06
3.73988e-06
-1.12554e-06
2.0674e-06
-1.07431e-06
-9.51126e-08
-1.05686e-06
-2.13264e-06
-1.10513e-06
-3.73135e-06
-1.32807e-06
-4.96801e-06
-1.71952e-06
-6.43303e-06
-1.6406e-06
-9.13583e-06
-1.07476e-05
-4.84996e-08
1.6741e-06
-1.11464e-07
2.03215e-06
-1.71526e-07
2.17081e-06
-2.22438e-07
2.29685e-06
-2.6143e-07
2.44931e-06
-2.85245e-07
2.64012e-06
-2.8578e-07
2.88155e-06
-2.36856e-07
3.19605e-06
-1.09053e-07
3.61191e-06
1.08223e-07
4.0562e-06
3.4613e-07
4.16224e-06
5.22145e-07
3.56251e-06
5.89809e-07
2.07863e-06
5.23059e-07
7.22303e-08
3.34557e-07
-1.89781e-06
7.02048e-08
-3.47024e-06
-2.58347e-07
-4.67053e-06
-7.17185e-07
-5.98799e-06
-9.55054e-07
-8.68475e-06
-1.18005e-05
-8.57451e-09
1.68328e-06
-3.01562e-08
2.05542e-06
-4.39692e-08
2.18628e-06
-4.08768e-08
2.29501e-06
-1.49154e-08
2.42435e-06
4.15746e-08
2.58547e-06
1.41774e-07
2.78469e-06
3.15461e-07
3.02997e-06
6.0265e-07
3.32804e-06
1.01964e-06
3.6259e-06
1.48399e-06
3.66683e-06
1.85554e-06
3.15601e-06
2.02438e-06
1.95023e-06
1.92277e-06
2.62083e-07
1.54744e-06
-1.49879e-06
1.03205e-06
-2.98467e-06
5.01515e-07
-4.16592e-06
-5.95051e-08
-5.44125e-06
-5.11643e-07
-8.15346e-06
-1.23668e-05
2.29667e-08
1.66325e-06
3.75334e-08
2.04172e-06
6.56052e-08
2.15933e-06
1.17353e-07
2.24413e-06
2.00199e-07
2.34208e-06
3.22401e-07
2.46399e-06
4.96946e-07
2.61115e-06
7.47957e-07
2.78069e-06
1.1119e-06
2.96353e-06
1.60359e-06
3.11513e-06
2.15565e-06
3.07839e-06
2.62497e-06
2.63892e-06
2.86145e-06
1.69817e-06
2.76525e-06
3.74784e-07
2.32589e-06
-1.06973e-06
1.6904e-06
-2.38856e-06
1.01315e-06
-3.51958e-06
3.40765e-07
-4.76332e-06
-2.8766e-07
-7.53206e-06
-1.26749e-05
4.13292e-08
1.62355e-06
8.38446e-08
1.99819e-06
1.47045e-07
2.09576e-06
2.40373e-07
2.15031e-06
3.70533e-07
2.21132e-06
5.43732e-07
2.29006e-06
7.68789e-07
2.38489e-06
1.06022e-06
2.48682e-06
1.44067e-06
2.57865e-06
1.92058e-06
2.62134e-06
2.4505e-06
2.52314e-06
2.90341e-06
2.15584e-06
3.13552e-06
1.44408e-06
3.05322e-06
4.50698e-07
2.64693e-06
-6.74907e-07
2.02109e-06
-1.78348e-06
1.29391e-06
-2.81427e-06
5.53691e-07
-4.02183e-06
-1.99431e-07
-6.80083e-06
-1.28332e-05
3.94523e-08
1.60027e-06
9.87706e-08
1.94591e-06
1.89736e-07
2.00728e-06
3.18101e-07
2.02266e-06
4.87577e-07
2.04155e-06
7.00738e-07
2.07582e-06
9.6102e-07
2.12277e-06
1.27391e-06
2.17115e-06
1.64661e-06
2.2017e-06
2.07871e-06
2.18203e-06
2.5342e-06
2.05689e-06
2.9199e-06
1.76069e-06
3.12186e-06
1.24109e-06
3.06044e-06
5.19314e-07
2.71941e-06
-3.28213e-07
2.15505e-06
-1.22283e-06
1.43947e-06
-2.11854e-06
6.89322e-07
-3.2914e-06
-1.43741e-07
-5.9745e-06
-1.29362e-05
1.08064e-08
1.51953e-06
7.39371e-08
1.8254e-06
1.85101e-07
1.86041e-06
3.42561e-07
1.84489e-06
5.45674e-07
1.82933e-06
7.92385e-07
1.82581e-06
1.08119e-06
1.83348e-06
1.41029e-06
1.8429e-06
1.77566e-06
1.8373e-06
2.1659e-06
1.79192e-06
2.55101e-06
1.67182e-06
2.87009e-06
1.44291e-06
3.04296e-06
1.07402e-06
3.00287e-06
5.68731e-07
2.72904e-06
-4.34603e-08
2.23362e-06
-7.3614e-07
1.57813e-06
-1.47886e-06
9.04168e-07
-2.66697e-06
2.11604e-09
-5.14006e-06
-1.31267e-05
-7.72306e-08
1.83758e-06
-3.44078e-08
1.99275e-06
1.06498e-07
1.88403e-06
3.01833e-07
1.75301e-06
5.43407e-07
1.65663e-06
8.25939e-07
1.59233e-06
1.14516e-06
1.55181e-06
1.49494e-06
1.52326e-06
1.86578e-06
1.49109e-06
2.24098e-06
1.43637e-06
2.59277e-06
1.33666e-06
2.87949e-06
1.17171e-06
3.04679e-06
9.27197e-07
3.03342e-06
5.9948e-07
2.81583e-06
1.97911e-07
2.3673e-06
-3.02364e-07
1.86046e-06
-9.05972e-07
1.30662e-06
-2.14259e-06
2.82602e-07
-4.25966e-06
-1.33058e-05
-1.95588e-07
1.52368e-06
-1.31206e-07
1.36992e-06
5.93173e-08
1.27146e-06
2.92369e-07
1.23775e-06
5.69144e-07
1.17976e-06
8.92169e-07
1.11972e-06
1.25328e-06
1.07554e-06
1.64086e-06
1.04502e-06
2.04219e-06
1.01718e-06
2.43974e-06
9.79735e-07
2.8082e-06
9.20783e-07
3.11131e-06
8.29268e-07
3.30506e-06
7.00766e-07
3.34469e-06
5.26763e-07
3.21831e-06
3.11756e-07
2.82675e-06
1.33809e-09
2.58412e-06
-4.0959e-07
1.88926e-06
-1.47406e-06
6.98086e-07
-2.93239e-06
-1.23067e-05
-3.96512e-07
2.72651e-06
-2.48614e-07
1.98959e-06
2.34514e-07
1.36683e-06
7.48341e-07
1.08524e-06
1.26936e-06
9.17094e-07
1.78625e-06
7.98547e-07
2.29153e-06
7.15509e-07
2.78654e-06
6.56874e-07
3.27127e-06
6.11813e-07
3.73944e-06
5.72498e-07
4.17717e-06
5.32174e-07
4.56332e-06
4.85761e-07
4.87683e-06
4.29902e-07
5.08152e-06
3.59218e-07
5.1937e-06
2.7205e-07
4.99284e-06
1.31858e-07
5.0114e-06
-4.26796e-08
3.37678e-06
-6.06542e-07
2.51431e-06
-9.53036e-07
-8.08363e-06
2.55559e-06
3.71804e-06
4.90415e-06
5.88288e-06
6.67523e-06
7.37161e-06
8.01756e-06
8.62521e-06
9.19871e-06
9.74013e-06
1.02472e-05
1.07114e-05
1.11238e-05
1.14527e-05
1.17265e-05
1.16914e-05
1.2041e-05
9.39792e-06
1.25654e-05
)
;

boundaryField
{
    movingWall
    {
        type            calculated;
        value           uniform 0;
    }
    fixedWalls
    {
        type            calculated;
        value           uniform 0;
    }
    frontAndBack
    {
        type            empty;
        value           nonuniform List<scalar> 0();
    }
}


// ************************************************************************* //
