/*--------------------------------*- C++ -*----------------------------------*\
| =========                 |                                                 |
| \\      /  F ield         | OpenFOAM: The Open Source CFD Toolbox           |
|  \\    /   O peration     | Version:  2312                                  |
|   \\  /    A nd           | Website:  www.openfoam.com                      |
|    \\/     M anipulation  |                                                 |
\*---------------------------------------------------------------------------*/
FoamFile
{
    version     2.0;
    format      ascii;
    arch        "LSB;label=32;scalar=64";
    class       volTensorField;
    location    "1.625";
    object      gradU;
}
// * * * * * * * * * * * * * * * * * * * * * * * * * * * * * * * * * * * * * //

dimensions      [0 0 -1 0 0 0 0];

internalField   nonuniform List<tensor> 
400
(
(-0.255639 0.143193 0 -0.151274 0.259737 0 0 0 0)
(-0.529104 0.131548 0 -0.677243 0.574244 0 0 0 0)
(-0.734252 0.0746577 0 -1.4668 0.764367 0 0 0 0)
(-0.817077 0.0318161 0 -2.36674 0.852966 0 0 0 0)
(-0.865365 0.0191699 0 -3.33119 0.900282 0 0 0 0)
(-0.901375 0.0199982 0 -4.3389 0.935412 0 0 0 0)
(-0.923043 0.0181412 0 -5.37217 0.956079 0 0 0 0)
(-0.907864 -0.000966939 0 -6.39085 0.937341 0 0 0 0)
(-0.821634 -0.0445939 0 -7.32714 0.840716 0 0 0 0)
(-0.61629 -0.104272 0 -8.08825 0.637827 0 0 0 0)
(-0.302817 -0.172354 0 -8.55892 0.327112 0 0 0 0)
(0.109414 -0.249729 0 -8.67043 -0.0875304 0 0 0 0)
(0.602157 -0.285132 0 -8.31562 -0.595746 0 0 0 0)
(1.06805 -0.248959 0 -7.44264 -1.09991 0 0 0 0)
(1.40575 -0.148617 0 -6.10506 -1.49529 0 0 0 0)
(1.53312 0.0051038 0 -4.44591 -1.65189 0 0 0 0)
(1.41229 0.167349 0 -2.72923 -1.50783 0 0 0 0)
(1.05108 0.288841 0 -1.26116 -1.0863 0 0 0 0)
(0.504585 0.298259 0 -0.287867 -0.501513 0 0 0 0)
(-0.0119855 0.0565468 0 0.0480992 0.013732 0 0 0 0)
(-0.572878 0.690789 0 -0.160283 0.547025 0 0 0 0)
(-0.786421 0.373082 0 -0.386984 0.796706 0 0 0 0)
(-0.955244 0.204064 0 -0.523911 0.931297 0 0 0 0)
(-1.04732 0.104099 0 -0.657282 1.02022 0 0 0 0)
(-1.1068 0.063276 0 -0.800982 1.08128 0 0 0 0)
(-1.1396 0.0357996 0 -0.953074 1.11629 0 0 0 0)
(-1.12891 -0.0162114 0 -1.10101 1.10785 0 0 0 0)
(-1.0471 -0.114397 0 -1.22615 1.02791 0 0 0 0)
(-0.875762 -0.254921 0 -1.31622 0.859152 0 0 0 0)
(-0.615489 -0.409332 0 -1.38782 0.607577 0 0 0 0)
(-0.279362 -0.553003 0 -1.49878 0.284427 0 0 0 0)
(0.133888 -0.673129 0 -1.66414 -0.103363 0 0 0 0)
(0.625627 -0.727248 0 -1.88303 -0.547054 0 0 0 0)
(1.14251 -0.650586 0 -2.0568 -1.05344 0 0 0 0)
(1.59098 -0.403367 0 -2.05511 -1.49559 0 0 0 0)
(1.84271 -0.0176414 0 -1.78119 -1.75844 0 0 0 0)
(1.77246 0.398249 0 -1.23972 -1.70637 0 0 0 0)
(1.39029 0.717475 0 -0.632919 -1.30411 0 0 0 0)
(0.804674 0.801768 0 -0.209854 -0.749503 0 0 0 0)
(0.251753 0.431234 0 -0.0476594 -0.210337 0 0 0 0)
(-0.802905 1.48692 0 -0.112494 0.769621 0 0 0 0)
(-0.892732 0.515819 0 -0.232308 0.921824 0 0 0 0)
(-1.00455 0.298169 0 -0.271154 1.00036 0 0 0 0)
(-1.09415 0.181798 0 -0.293665 1.07978 0 0 0 0)
(-1.16116 0.115238 0 -0.319651 1.14815 0 0 0 0)
(-1.2014 0.046568 0 -0.35701 1.19054 0 0 0 0)
(-1.19612 -0.0702346 0 -0.41122 1.18626 0 0 0 0)
(-1.12308 -0.249663 0 -0.490656 1.11458 0 0 0 0)
(-0.983308 -0.464927 0 -0.621598 0.979275 0 0 0 0)
(-0.79885 -0.678997 0 -0.866411 0.80501 0 0 0 0)
(-0.579133 -0.883294 0 -1.30743 0.594785 0 0 0 0)
(-0.27483 -1.08121 0 -1.98786 0.304894 0 0 0 0)
(0.209496 -1.23521 0 -2.84349 -0.12184 0 0 0 0)
(0.895967 -1.19749 0 -3.61923 -0.730836 0 0 0 0)
(1.68136 -0.853616 0 -3.98953 -1.49516 0 0 0 0)
(2.34851 -0.20568 0 -3.75725 -2.19502 0 0 0 0)
(2.56056 0.621687 0 -2.85716 -2.46375 0 0 0 0)
(2.08094 1.24571 0 -1.44717 -2.05518 0 0 0 0)
(1.08984 1.39203 0 -0.127384 -1.07824 0 0 0 0)
(0.245528 1.01639 0 0.111952 -0.213554 0 0 0 0)
(-0.917679 2.38223 0 -0.044412 0.865215 0 0 0 0)
(-0.945081 0.603823 0 -0.0956921 0.973117 0 0 0 0)
(-1.0166 0.362019 0 -0.103715 1.01856 0 0 0 0)
(-1.09582 0.25189 0 -0.0946742 1.08439 0 0 0 0)
(-1.17014 0.174033 0 -0.0875624 1.15766 0 0 0 0)
(-1.23117 0.0739025 0 -0.0969943 1.21879 0 0 0 0)
(-1.26255 -0.0921658 0 -0.142331 1.25071 0 0 0 0)
(-1.25748 -0.321378 0 -0.25589 1.25047 0 0 0 0)
(-1.25152 -0.564493 0 -0.506982 1.25214 0 0 0 0)
(-1.30132 -0.793822 0 -1.03431 1.31865 0 0 0 0)
(-1.40082 -1.05312 0 -1.99861 1.45629 0 0 0 0)
(-1.40217 -1.38975 0 -3.39746 1.49792 0 0 0 0)
(-1.00574 -1.76298 0 -4.91365 1.09376 0 0 0 0)
(-0.00352512 -2.02391 0 -6.13708 0.0677612 0 0 0 0)
(1.45296 -1.86755 0 -6.78653 -1.43671 0 0 0 0)
(2.97507 -0.986228 0 -6.77427 -2.96689 0 0 0 0)
(4.08254 0.538084 0 -5.9775 -4.03266 0 0 0 0)
(4.12006 2.10299 0 -4.17211 -3.96994 0 0 0 0)
(2.36379 2.64339 0 -1.46174 -2.32593 0 0 0 0)
(0.267185 1.72303 0 0.154766 -0.29913 0 0 0 0)
(-0.94301 3.32526 0 0.00380174 0.890751 0 0 0 0)
(-0.952036 0.669167 0 0.0095337 0.983473 0 0 0 0)
(-1.00353 0.409442 0 0.0321696 1.01398 0 0 0 0)
(-1.078 0.3209 0 0.0654475 1.074 0 0 0 0)
(-1.16348 0.249637 0 0.0951929 1.15726 0 0 0 0)
(-1.25617 0.139615 0 0.105261 1.25009 0 0 0 0)
(-1.35501 -0.0385571 0 0.064144 1.35192 0 0 0 0)
(-1.48773 -0.248235 0 -0.0838077 1.49573 0 0 0 0)
(-1.76172 -0.396743 0 -0.450868 1.77408 0 0 0 0)
(-2.29048 -0.474842 0 -1.21896 2.28536 0 0 0 0)
(-2.94228 -0.704025 0 -2.49822 2.90117 0 0 0 0)
(-3.18987 -1.44374 0 -3.99768 3.08027 0 0 0 0)
(-2.53013 -2.66537 0 -5.11172 2.32999 0 0 0 0)
(-0.976915 -3.72796 0 -5.68488 0.719308 0 0 0 0)
(1.04418 -3.88827 0 -6.18817 -1.28756 0 0 0 0)
(3.15755 -2.80163 0 -6.76475 -3.45508 0 0 0 0)
(5.16272 -0.381362 0 -7.02837 -5.4634 0 0 0 0)
(6.5967 2.95244 0 -6.37006 -6.57081 0 0 0 0)
(5.41672 5.06284 0 -4.13221 -5.41407 0 0 0 0)
(1.5525 3.64145 0 -0.361416 -1.36472 0 0 0 0)
(-0.904343 4.25646 0 0.0360203 0.85753 0 0 0 0)
(-0.916713 0.72705 0 0.0892789 0.946435 0 0 0 0)
(-0.960687 0.452547 0 0.146175 0.97286 0 0 0 0)
(-1.03279 0.395175 0 0.211497 1.03082 0 0 0 0)
(-1.13033 0.350126 0 0.276766 1.12457 0 0 0 0)
(-1.26222 0.268562 0 0.326865 1.25486 0 0 0 0)
(-1.45162 0.153473 0 0.328979 1.44764 0 0 0 0)
(-1.77249 0.100774 0 0.232136 1.77861 0 0 0 0)
(-2.38667 0.225131 0 -0.0540924 2.37512 0 0 0 0)
(-3.34868 0.333267 0 -0.639994 3.24844 0 0 0 0)
(-4.17954 -0.258205 0 -1.36438 3.94951 0 0 0 0)
(-4.01567 -1.96092 0 -1.74674 3.76521 0 0 0 0)
(-2.69295 -4.12394 0 -1.56771 2.60153 0 0 0 0)
(-1.07997 -5.64146 0 -1.21717 0.961076 0 0 0 0)
(0.373094 -6.04194 0 -1.23921 -0.70167 0 0 0 0)
(2.13487 -5.16207 0 -2.07731 -2.49818 0 0 0 0)
(4.47723 -2.57765 0 -3.63923 -4.81912 0 0 0 0)
(7.01622 2.15232 0 -5.047 -7.49323 0 0 0 0)
(8.37244 7.84949 0 -5.0897 -8.57787 0 0 0 0)
(4.76081 8.50182 0 -2.06889 -4.20338 0 0 0 0)
(-0.81771 5.12922 0 0.0593285 0.778379 0 0 0 0)
(-0.841882 0.784497 0 0.152265 0.86871 0 0 0 0)
(-0.881315 0.493825 0 0.245618 0.893826 0 0 0 0)
(-0.947404 0.47261 0 0.350229 0.946635 0 0 0 0)
(-1.04811 0.473676 0 0.464176 1.04281 0 0 0 0)
(-1.20396 0.462687 0 0.580057 1.19714 0 0 0 0)
(-1.44974 0.485198 0 0.680845 1.45338 0 0 0 0)
(-1.8708 0.679241 0 0.755045 1.89904 0 0 0 0)
(-2.63385 1.07308 0 0.796387 2.6309 0 0 0 0)
(-3.60077 1.09955 0 0.856069 3.48512 0 0 0 0)
(-4.04903 -0.187253 0 1.20054 3.81885 0 0 0 0)
(-3.3932 -2.79173 0 2.04539 3.23706 0 0 0 0)
(-2.00056 -5.4695 0 3.15982 2.01909 0 0 0 0)
(-0.648412 -7.03116 0 4.08624 0.849759 0 0 0 0)
(0.18404 -7.34753 0 4.5019 0.0341357 0 0 0 0)
(0.757525 -6.91908 0 4.08213 -0.583724 0 0 0 0)
(2.19303 -5.37641 0 2.29561 -2.00975 0 0 0 0)
(5.14622 -0.806317 0 -0.517894 -5.26306 0 0 0 0)
(8.39483 8.35269 0 -2.88445 -9.38475 0 0 0 0)
(8.7111 16.4227 0 -2.9961 -8.37766 0 0 0 0)
(-0.69275 5.90355 0 0.0765276 0.662122 0 0 0 0)
(-0.730424 0.842497 0 0.202485 0.753983 0 0 0 0)
(-0.762723 0.530473 0 0.330517 0.775489 0 0 0 0)
(-0.814235 0.544162 0 0.475198 0.816033 0 0 0 0)
(-0.900501 0.600634 0 0.642139 0.898345 0 0 0 0)
(-1.04555 0.679127 0 0.835798 1.04365 0 0 0 0)
(-1.27663 0.855375 0 1.06316 1.29369 0 0 0 0)
(-1.65695 1.2783 0 1.35685 1.70321 0 0 0 0)
(-2.28564 1.81121 0 1.80026 2.30005 0 0 0 0)
(-2.94452 1.52121 0 2.54883 2.85142 0 0 0 0)
(-2.99022 -0.506267 0 3.67159 2.81827 0 0 0 0)
(-2.05639 -3.76069 0 4.96301 2.07642 0 0 0 0)
(-0.652095 -6.51124 0 6.17022 0.963256 0 0 0 0)
(0.262109 -7.62641 0 7.03916 0.129425 0 0 0 0)
(0.368978 -7.47542 0 7.38506 -0.0472074 0 0 0 0)
(-0.0714214 -7.20595 0 7.35698 0.286406 0 0 0 0)
(-0.122787 -7.25699 0 6.59273 0.525924 0 0 0 0)
(1.83616 -5.22268 0 4.22205 -1.31482 0 0 0 0)
(5.89423 4.73489 0 0.762851 -6.88887 0 0 0 0)
(10.6414 26.2642 0 -1.46948 -10.8546 0 0 0 0)
(-0.538697 6.54533 0 0.0872902 0.517689 0 0 0 0)
(-0.587892 0.897864 0 0.237799 0.607721 0 0 0 0)
(-0.608603 0.555875 0 0.393592 0.621346 0 0 0 0)
(-0.635782 0.595466 0 0.570805 0.64062 0 0 0 0)
(-0.687507 0.701293 0 0.781826 0.690249 0 0 0 0)
(-0.782936 0.858036 0 1.04173 0.788776 0 0 0 0)
(-0.928689 1.14476 0 1.37912 0.957152 0 0 0 0)
(-1.1337 1.6856 0 1.84709 1.1992 0 0 0 0)
(-1.44187 2.22129 0 2.57961 1.48029 0 0 0 0)
(-1.72943 1.61777 0 3.72185 1.6275 0 0 0 0)
(-1.63485 -0.962248 0 5.17979 1.45456 0 0 0 0)
(-0.894567 -4.64674 0 6.40962 1.00194 0 0 0 0)
(0.0755847 -7.4165 0 7.10439 0.308754 0 0 0 0)
(0.566423 -8.04162 0 7.20208 -0.310234 0 0 0 0)
(0.501863 -7.19055 0 7.04723 -0.526116 0 0 0 0)
(-0.0348062 -6.34595 0 6.90288 -0.129386 0 0 0 0)
(-0.941904 -6.97764 0 6.92556 0.944804 0 0 0 0)
(-0.683656 -8.22112 0 6.13391 1.42058 0 0 0 0)
(2.7033 -1.18711 0 3.52359 -2.39195 0 0 0 0)
(9.41773 34.1662 0 0.555388 -10.1426 0 0 0 0)
(-0.367661 7.02896 0 0.0904351 0.356277 0 0 0 0)
(-0.424122 0.946154 0 0.254264 0.439354 0 0 0 0)
(-0.429717 0.563372 0 0.426471 0.441356 0 0 0 0)
(-0.426001 0.613065 0 0.622618 0.432239 0 0 0 0)
(-0.429573 0.748791 0 0.858604 0.435025 0 0 0 0)
(-0.448255 0.94603 0 1.15416 0.459042 0 0 0 0)
(-0.47128 1.2658 0 1.54628 0.499298 0 0 0 0)
(-0.456464 1.80143 0 2.08071 0.521996 0 0 0 0)
(-0.410877 2.23951 0 2.87568 0.447159 0 0 0 0)
(-0.344341 1.49549 0 4.03379 0.265887 0 0 0 0)
(-0.302449 -1.13183 0 5.47422 0.115305 0 0 0 0)
(-0.131791 -4.90649 0 6.62027 0.186692 0 0 0 0)
(0.140366 -7.82341 0 7.07285 0.217848 0 0 0 0)
(0.204944 -8.46128 0 6.81534 0.0866436 0 0 0 0)
(0.0697765 -7.29457 0 6.23942 -0.0793849 0 0 0 0)
(-0.193085 -5.73504 0 5.55947 0.026818 0 0 0 0)
(-0.891755 -5.70702 0 5.21682 0.660103 0 0 0 0)
(-1.56581 -8.55944 0 5.18716 1.90475 0 0 0 0)
(0.315712 -6.82829 0 4.06513 0.769382 0 0 0 0)
(6.56238 38.7988 0 1.53239 -7.338 0 0 0 0)
(-0.193998 7.34096 0 0.0852882 0.192067 0 0 0 0)
(-0.251856 0.982943 0 0.248074 0.263015 0 0 0 0)
(-0.240249 0.548759 0 0.423083 0.249797 0 0 0 0)
(-0.203649 0.589135 0 0.62254 0.209707 0 0 0 0)
(-0.155967 0.728097 0 0.861454 0.16161 0 0 0 0)
(-0.0952616 0.922308 0 1.15596 0.105876 0 0 0 0)
(-0.00214051 1.20771 0 1.53567 0.0222349 0 0 0 0)
(0.195698 1.63346 0 2.02804 -0.143873 0 0 0 0)
(0.51121 1.96518 0 2.68688 -0.491223 0 0 0 0)
(0.869106 1.28592 0 3.58767 -0.907974 0 0 0 0)
(0.951625 -1.04144 0 4.69918 -1.07131 0 0 0 0)
(0.704061 -4.5442 0 5.74751 -0.709459 0 0 0 0)
(0.270657 -7.51655 0 6.31717 0.0449247 0 0 0 0)
(-0.267 -8.33886 0 6.28252 0.669372 0 0 0 0)
(-0.754009 -7.25037 0 5.7058 0.939321 0 0 0 0)
(-1.05741 -5.60646 0 4.71142 1.04444 0 0 0 0)
(-1.31421 -5.09971 0 3.83731 1.18993 0 0 0 0)
(-1.83535 -8.11184 0 3.48103 1.78016 0 0 0 0)
(-0.951474 -10.4299 0 3.15904 1.80434 0 0 0 0)
(3.82021 40.7348 0 1.35677 -4.21177 0 0 0 0)
(-0.034298 7.48404 0 0.0700833 0.036693 0 0 0 0)
(-0.0863269 1.00388 0 0.215782 0.0931029 0 0 0 0)
(-0.0552521 0.510065 0 0.380207 0.0618923 0 0 0 0)
(0.0123697 0.524879 0 0.568318 -0.00737993 0 0 0 0)
(0.103846 0.644959 0 0.790844 -0.0998607 0 0 0 0)
(0.22596 0.806655 0 1.05567 -0.218574 0 0 0 0)
(0.4008 1.01605 0 1.37491 -0.387438 0 0 0 0)
(0.694747 1.28797 0 1.75599 -0.664346 0 0 0 0)
(1.14876 1.47541 0 2.18326 -1.13548 0 0 0 0)
(1.66796 0.915402 0 2.70056 -1.7212 0 0 0 0)
(1.85739 -0.933316 0 3.2809 -1.98164 0 0 0 0)
(1.4862 -3.79026 0 3.95718 -1.62602 0 0 0 0)
(0.675369 -6.44458 0 4.45413 -0.513574 0 0 0 0)
(-0.406431 -7.56688 0 4.63242 0.75941 0 0 0 0)
(-1.50132 -6.9195 0 4.33633 1.59608 0 0 0 0)
(-2.06157 -5.48443 0 3.629 1.94226 0 0 0 0)
(-2.12214 -4.97131 0 2.8518 2.01846 0 0 0 0)
(-2.24408 -7.94503 0 2.2342 2.18699 0 0 0 0)
(-1.80855 -12.8202 0 1.9976 2.12514 0 0 0 0)
(2.04657 41.2062 0 0.671977 -2.26531 0 0 0 0)
(0.0918667 7.47075 0 0.0424567 -0.0801069 0 0 0 0)
(0.0582669 1.00814 0 0.157158 -0.054785 0 0 0 0)
(0.112287 0.448276 0 0.298845 -0.107806 0 0 0 0)
(0.206989 0.427382 0 0.465212 -0.203517 0 0 0 0)
(0.331385 0.516902 0 0.65979 -0.329061 0 0 0 0)
(0.488808 0.634731 0 0.882006 -0.485927 0 0 0 0)
(0.698181 0.761938 0 1.12662 -0.694171 0 0 0 0)
(1.00404 0.885411 0 1.38143 -0.997119 0 0 0 0)
(1.45578 0.908322 0 1.59762 -1.45803 0 0 0 0)
(1.96675 0.439766 0 1.75447 -2.04308 0 0 0 0)
(2.20824 -0.946254 0 1.84931 -2.35379 0 0 0 0)
(1.87729 -3.07614 0 2.01674 -2.06836 0 0 0 0)
(0.945894 -5.13112 0 2.17474 -1.00827 0 0 0 0)
(-0.3848 -6.2292 0 2.26983 0.450804 0 0 0 0)
(-1.75742 -6.06752 0 2.25195 1.71622 0 0 0 0)
(-2.54194 -5.18409 0 2.14601 2.38443 0 0 0 0)
(-2.70901 -4.85499 0 1.81013 2.58534 0 0 0 0)
(-2.68955 -8.00515 0 1.35944 2.71168 0 0 0 0)
(-2.5137 -14.8822 0 1.09334 2.48559 0 0 0 0)
(1.15064 40.875 0 0.155504 -1.23216 0 0 0 0)
(0.165317 7.34915 0 -0.00129768 -0.158789 0 0 0 0)
(0.170061 0.976185 0 0.0672402 -0.174121 0 0 0 0)
(0.252801 0.361333 0 0.177708 -0.254275 0 0 0 0)
(0.373314 0.303624 0 0.318813 -0.375256 0 0 0 0)
(0.52064 0.36255 0 0.484179 -0.523047 0 0 0 0)
(0.692793 0.441545 0 0.665336 -0.695735 0 0 0 0)
(0.900228 0.504854 0 0.848014 -0.905032 0 0 0 0)
(1.16574 0.524116 0 1.00828 -1.17546 0 0 0 0)
(1.52179 0.429446 0 1.09551 -1.53953 0 0 0 0)
(1.91965 0.0196426 0 1.04332 -1.97515 0 0 0 0)
(2.11966 -0.958597 0 0.857172 -2.221 0 0 0 0)
(1.81163 -2.44474 0 0.657017 -1.9323 0 0 0 0)
(0.92846 -3.92541 0 0.522688 -1.01636 0 0 0 0)
(-0.329222 -4.84239 0 0.518979 0.303655 0 0 0 0)
(-1.62513 -4.98587 0 0.661794 1.5793 0 0 0 0)
(-2.50339 -4.61531 0 0.912304 2.42035 0 0 0 0)
(-2.90872 -4.64406 0 0.946261 2.82125 0 0 0 0)
(-2.96087 -8.04479 0 0.758997 2.96598 0 0 0 0)
(-3.01249 -16.7641 0 0.635229 2.92492 0 0 0 0)
(0.797723 39.9528 0 -0.0595557 -0.633473 0 0 0 0)
(0.157809 7.13784 0 -0.0640377 -0.0931235 0 0 0 0)
(0.237273 0.912656 0 -0.0580534 -0.209122 0 0 0 0)
(0.36386 0.247141 0 0.0184234 -0.353914 0 0 0 0)
(0.51346 0.15861 0 0.133801 -0.510607 0 0 0 0)
(0.677908 0.196424 0 0.27495 -0.679078 0 0 0 0)
(0.852643 0.252746 0 0.425613 -0.85694 0 0 0 0)
(1.04113 0.282213 0 0.569001 -1.04848 0 0 0 0)
(1.25154 0.250917 0 0.680623 -1.26268 0 0 0 0)
(1.49083 0.10863 0 0.719643 -1.50781 0 0 0 0)
(1.72841 -0.241708 0 0.620324 -1.75723 0 0 0 0)
(1.82193 -0.903404 0 0.360924 -1.86499 0 0 0 0)
(1.5428 -1.8715 0 0.0411226 -1.58062 0 0 0 0)
(0.807856 -2.89516 0 -0.174382 -0.811943 0 0 0 0)
(-0.245694 -3.63354 0 -0.195877 0.274467 0 0 0 0)
(-1.3641 -3.95083 0 -0.00549303 1.38678 0 0 0 0)
(-2.25747 -3.94213 0 0.333934 2.24257 0 0 0 0)
(-2.86232 -4.30936 0 0.516185 2.7829 0 0 0 0)
(-3.00058 -7.90148 0 0.620708 2.92171 0 0 0 0)
(-3.33225 -18.4816 0 0.781199 3.30536 0 0 0 0)
(0.574966 38.5835 0 0.024988 -0.411938 0 0 0 0)
(0.0432258 7.0469 0 -0.162518 -0.322984 0 0 0 0)
(0.252522 0.715395 0 -0.304213 -0.482064 0 0 0 0)
(0.444656 0.059847 0 -0.2285 -0.58751 0 0 0 0)
(0.629841 -0.0215404 0 -0.10445 -0.711091 0 0 0 0)
(0.812452 0.0162166 0 0.0393793 -0.848889 0 0 0 0)
(0.986843 0.0721445 0 0.183939 -1.00004 0 0 0 0)
(1.15524 0.0991126 0 0.316865 -1.15717 0 0 0 0)
(1.31639 0.0647832 0 0.419683 -1.31302 0 0 0 0)
(1.46149 -0.0651028 0 0.464473 -1.45759 0 0 0 0)
(1.56093 -0.337532 0 0.412181 -1.56044 0 0 0 0)
(1.54046 -0.781987 0 0.236883 -1.54027 0 0 0 0)
(1.27633 -1.3917 0 -0.00258502 -1.27112 0 0 0 0)
(0.691461 -2.07032 0 -0.159037 -0.668292 0 0 0 0)
(-0.160333 -2.64367 0 -0.141256 0.197668 0 0 0 0)
(-1.09532 -3.01776 0 0.0332006 1.13901 0 0 0 0)
(-1.98171 -3.21918 0 0.352449 1.94677 0 0 0 0)
(-2.62195 -3.96493 0 0.496572 2.55875 0 0 0 0)
(-2.69585 -7.52233 0 1.18739 2.49776 0 0 0 0)
(-3.60821 -20.0977 0 1.28182 3.33775 0 0 0 0)
(-0.00846417 37.0594 0 0.423557 -0.761835 0 0 0 0)
(-0.308922 6.33279 0 -0.336189 1.27222 0 0 0 0)
(0.171291 0.648129 0 -0.489389 0.669428 0 0 0 0)
(0.563623 0.018114 0 -0.331182 0.0944866 0 0 0 0)
(0.781339 -0.102769 0 -0.171952 -0.367513 0 0 0 0)
(0.966297 -0.0925254 0 -0.0288168 -0.690805 0 0 0 0)
(1.13013 -0.0555314 0 0.122695 -0.933918 0 0 0 0)
(1.27687 -0.030765 0 0.276441 -1.12668 0 0 0 0)
(1.39915 -0.0495047 0 0.411908 -1.27856 0 0 0 0)
(1.48332 -0.138793 0 0.510352 -1.38485 0 0 0 0)
(1.50082 -0.324389 0 0.555728 -1.42221 0 0 0 0)
(1.40717 -0.614087 0 0.539664 -1.34067 0 0 0 0)
(1.14688 -0.999521 0 0.489098 -1.0848 0 0 0 0)
(0.669185 -1.42637 0 0.475767 -0.587285 0 0 0 0)
(-0.0534567 -1.82624 0 0.572657 0.122994 0 0 0 0)
(-0.870392 -2.20172 0 0.794587 0.965485 0 0 0 0)
(-1.7941 -2.5224 0 1.16248 1.7351 0 0 0 0)
(-2.02738 -3.75837 0 1.21007 2.29153 0 0 0 0)
(-2.21534 -7.12248 0 2.81389 2.09751 0 0 0 0)
(-4.09608 -21.7412 0 1.12646 3.52159 0 0 0 0)
(-1.13041 36.0076 0 1.65741 -0.716593 0 0 0 0)
(-0.782353 8.98854 0 -0.5023 -1.25558 0 0 0 0)
(0.257529 -0.462336 0 -0.774824 -2.49135 0 0 0 0)
(0.762093 -0.977093 0 -0.0819996 -2.45026 0 0 0 0)
(0.932207 -0.806832 0 0.594063 -2.06103 0 0 0 0)
(1.1071 -0.550189 0 1.19197 -1.90746 0 0 0 0)
(1.2921 -0.363729 0 1.71182 -1.89046 0 0 0 0)
(1.44445 -0.245528 0 2.12941 -1.90509 0 0 0 0)
(1.5503 -0.193387 0 2.45607 -1.91296 0 0 0 0)
(1.60531 -0.208754 0 2.71031 -1.89566 0 0 0 0)
(1.59024 -0.293348 0 2.91168 -1.82655 0 0 0 0)
(1.47383 -0.444576 0 3.08215 -1.66349 0 0 0 0)
(1.21243 -0.638315 0 3.25546 -1.36975 0 0 0 0)
(0.77502 -0.862532 0 3.47985 -0.905722 0 0 0 0)
(0.158488 -1.0909 0 3.8403 -0.290868 0 0 0 0)
(-0.505494 -1.40565 0 4.35207 0.45538 0 0 0 0)
(-1.56623 -1.89314 0 5.15941 1.21481 0 0 0 0)
(-0.970536 -3.60253 0 5.34273 1.98553 0 0 0 0)
(-2.77946 -6.29227 0 7.26103 2.6741 0 0 0 0)
(-4.76468 -22.9118 0 1.01961 5.30908 0 0 0 0)
(-2.79234 34.2544 0 7.90724 3.99644 0 0 0 0)
(-1.58605 2.58587 0 4.41169 4.81131 0 0 0 0)
(0.591592 -0.546553 0 6.59302 2.47869 0 0 0 0)
(1.93251 0.448432 0 8.80395 0.381472 0 0 0 0)
(2.05531 0.440035 0 10.5754 -0.610062 0 0 0 0)
(2.08406 0.0780432 0 11.7867 -1.05068 0 0 0 0)
(2.06757 -0.0531651 0 12.6377 -1.28468 0 0 0 0)
(2.02111 -0.0532632 0 13.2801 -1.44012 0 0 0 0)
(1.98006 -0.0400693 0 13.777 -1.55258 0 0 0 0)
(1.93893 -0.0523795 0 14.1604 -1.62145 0 0 0 0)
(1.87266 -0.0922219 0 14.4657 -1.62895 0 0 0 0)
(1.75095 -0.157294 0 14.7358 -1.55444 0 0 0 0)
(1.54457 -0.241753 0 15.0202 -1.37403 0 0 0 0)
(1.25403 -0.34749 0 15.3801 -1.08346 0 0 0 0)
(0.818766 -0.465136 0 15.8949 -0.67018 0 0 0 0)
(0.448717 -0.696044 0 16.537 -0.158823 0 0 0 0)
(-0.803444 -0.992247 0 17.4956 0.52208 0 0 0 0)
(0.0742424 -2.29908 0 17.963 1.46764 0 0 0 0)
(-6.53845 -3.79892 0 19.8646 3.47009 0 0 0 0)
(-3.44987 -20.4189 0 10.1701 7.91741 0 0 0 0)
(-10.0573 26.7021 0 37.2991 16.8924 0 0 0 0)
(10.2224 16.2785 0 196.572 -10.9061 0 0 0 0)
(4.64979 -4.89217 0 194.792 -7.95836 0 0 0 0)
(4.74446 -4.06584 0 191.33 -5.46732 0 0 0 0)
(3.91492 -2.23898 0 188.115 -4.34095 0 0 0 0)
(3.16939 -1.2248 0 185.36 -3.66838 0 0 0 0)
(2.78553 -0.753177 0 182.861 -3.19419 0 0 0 0)
(2.5838 -0.513429 0 180.507 -2.86203 0 0 0 0)
(2.43059 -0.374713 0 178.256 -2.6275 0 0 0 0)
(2.29402 -0.285124 0 176.097 -2.44725 0 0 0 0)
(2.16569 -0.226335 0 174.024 -2.28999 0 0 0 0)
(2.02828 -0.189653 0 172.058 -2.1287 0 0 0 0)
(1.85668 -0.167335 0 170.244 -1.94305 0 0 0 0)
(1.64971 -0.158685 0 168.657 -1.71961 0 0 0 0)
(1.31546 -0.166271 0 167.341 -1.43687 0 0 0 0)
(1.09529 -0.213395 0 166.523 -1.0882 0 0 0 0)
(-0.140321 -0.266672 0 165.797 -0.527432 0 0 0 0)
(1.39838 -0.654519 0 167.466 0.170718 0 0 0 0)
(-10.5723 0.157497 0 164.324 2.42617 0 0 0 0)
(12.6698 -9.48949 0 184.577 3.81214 0 0 0 0)
(-50.2615 9.44456 0 155.104 32.3345 0 0 0 0)
)
;

boundaryField
{
    movingWall
    {
        type            extrapolatedCalculated;
        value           nonuniform List<tensor> 
20
(
(10.2224 16.2785 0 383.763 -37.1452 0 0 0 0)
(4.64979 -4.89217 0 375.347 -27.969 0 0 0 0)
(4.74446 -4.06584 0 365.164 -17.5765 0 0 0 0)
(3.91492 -2.23898 0 356.369 -11.7056 0 0 0 0)
(3.16939 -1.2248 0 349.504 -8.6206 0 0 0 0)
(2.78553 -0.753177 0 343.692 -6.80636 0 0 0 0)
(2.5838 -0.513429 0 338.362 -5.6079 0 0 0 0)
(2.43059 -0.374713 0 333.357 -4.75264 0 0 0 0)
(2.29402 -0.285124 0 328.64 -4.10904 0 0 0 0)
(2.16569 -0.226335 0 324.181 -3.61215 0 0 0 0)
(2.02828 -0.189653 0 319.977 -3.2037 0 0 0 0)
(1.85668 -0.167335 0 316.068 -2.85354 0 0 0 0)
(1.64971 -0.158685 0 312.551 -2.53436 0 0 0 0)
(1.31546 -0.166271 0 309.469 -2.21879 0 0 0 0)
(1.09529 -0.213395 0 307.289 -1.86928 0 0 0 0)
(-0.140321 -0.266672 0 305.088 -1.36521 0 0 0 0)
(1.39838 -0.654519 0 307.85 -0.802594 0 0 0 0)
(-10.5723 0.157497 0 299.494 1.25286 0 0 0 0)
(12.6698 -9.48949 0 350.139 -1.43258 0 0 0 0)
(-50.2615 9.44456 0 248.815 39.2108 0 0 0 0)
)
;
    }
    fixedWalls
    {
        type            extrapolatedCalculated;
        value           nonuniform List<tensor> 
60
(
(-0.133289 0.128939 0 -0.151274 0.259737 0 0 0 0)
(-0.471805 0.91001 0 -0.160283 0.547025 0 0 0 0)
(-0.774421 2.31704 0 -0.112494 0.769621 0 0 0 0)
(-0.921779 3.98849 0 -0.044412 0.865215 0 0 0 0)
(-0.952069 5.7779 0 0.00380174 0.890751 0 0 0 0)
(-0.906572 7.5515 0 0.0360203 0.85753 0 0 0 0)
(-0.807988 9.20802 0 0.0593285 0.778379 0 0 0 0)
(-0.669258 10.665 0 0.0765276 0.662122 0 0 0 0)
(-0.501877 11.8565 0 0.0872902 0.517689 0 0 0 0)
(-0.320097 12.7358 0 0.0904351 0.356277 0 0 0 0)
(-0.140137 13.2816 0 0.0852882 0.192067 0 0 0 0)
(0.0210559 13.504 0 0.0700833 0.036693 0 0 0 0)
(0.140196 13.4284 0 0.0424567 -0.0801069 0 0 0 0)
(0.190883 13.1836 0 -0.00129768 -0.158789 0 0 0 0)
(0.135005 12.7932 0 -0.0640377 -0.0931235 0 0 0 0)
(-0.0652681 12.8111 0 -0.162518 -0.322984 0 0 0 0)
(-0.515068 11.5013 0 -0.336189 1.27222 0 0 0 0)
(-1.41003 17.9 0 -0.5023 -1.25558 0 0 0 0)
(-2.52427 6.47898 0 4.41169 4.81131 0 0 0 0)
(16.2367 37.1452 0 196.572 -10.9061 0 0 0 0)
(-0.221431 -0.15135 0 0.0480992 0.013732 0 0 0 0)
(0.0290341 0.0964217 0 -0.0476594 -0.210337 0 0 0 0)
(-0.0307933 0.689999 0 0.111952 -0.213554 0 0 0 0)
(-0.418776 0.950639 0 0.154766 -0.29913 0 0 0 0)
(-0.649858 1.88652 0 -0.361416 -1.36472 0 0 0 0)
(1.02689 6.40951 0 -2.06889 -4.20338 0 0 0 0)
(7.62572 18.7 0 -2.9961 -8.37766 0 0 0 0)
(13.0113 39.9202 0 -1.46948 -10.8546 0 0 0 0)
(13.5036 62.1185 0 0.555388 -10.1426 0 0 0 0)
(10.7897 80.4906 0 1.53239 -7.338 0 0 0 0)
(7.37408 91.4705 0 1.35677 -4.21177 0 0 0 0)
(5.36266 97.3376 0 0.671977 -2.26531 0 0 0 0)
(4.68617 100.532 0 0.155504 -1.23216 0 0 0 0)
(4.74064 102.266 0 -0.0595557 -0.633473 0 0 0 0)
(4.92439 103.066 0 0.024988 -0.411938 0 0 0 0)
(4.64069 103.914 0 0.423557 -0.761835 0 0 0 0)
(3.23016 106.113 0 1.65741 -0.716593 0 0 0 0)
(-1.98897 106.78 0 7.90724 3.99644 0 0 0 0)
(-28.3988 90.1272 0 37.2991 16.8924 0 0 0 0)
(-151.185 39.2108 0 155.104 32.3345 0 0 0 0)
(-0.255639 0.143193 0 -0.133289 0.128939 0 0 0 0)
(-0.529104 0.131548 0 -0.889266 0.443832 0 0 0 0)
(-0.734252 0.0746577 0 -2.24971 0.65513 0 0 0 0)
(-0.817077 0.0318161 0 -3.82627 0.742462 0 0 0 0)
(-0.865365 0.0191699 0 -5.51801 0.782395 0 0 0 0)
(-0.901375 0.0199982 0 -7.28773 0.819142 0 0 0 0)
(-0.923043 0.0181412 0 -9.12351 0.862387 0 0 0 0)
(-0.907864 -0.000966939 0 -10.9799 0.891707 0 0 0 0)
(-0.821634 -0.0445939 0 -12.755 0.85852 0 0 0 0)
(-0.61629 -0.104272 0 -14.2664 0.713331 0 0 0 0)
(-0.302817 -0.172354 0 -15.2201 0.441433 0 0 0 0)
(0.109414 -0.249729 0 -15.4777 0.0239133 0 0 0 0)
(0.602157 -0.285132 0 -14.7825 -0.557482 0 0 0 0)
(1.06805 -0.248959 0 -13.0691 -1.11662 0 0 0 0)
(1.40575 -0.148617 0 -10.5103 -1.55332 0 0 0 0)
(1.53312 0.0051038 0 -7.44608 -1.71108 0 0 0 0)
(1.41229 0.167349 0 -4.37779 -1.5329 0 0 0 0)
(1.05108 0.288841 0 -1.79691 -1.04169 0 0 0 0)
(0.504585 0.298259 0 -0.173489 -0.377537 0 0 0 0)
(-0.0119855 0.0565468 0 0.221431 0.15135 0 0 0 0)
)
;
    }
    frontAndBack
    {
        type            empty;
    }
}


// ************************************************************************* //
