/*--------------------------------*- C++ -*----------------------------------*\
| =========                 |                                                 |
| \\      /  F ield         | OpenFOAM: The Open Source CFD Toolbox           |
|  \\    /   O peration     | Version:  2312                                  |
|   \\  /    A nd           | Website:  www.openfoam.com                      |
|    \\/     M anipulation  |                                                 |
\*---------------------------------------------------------------------------*/
FoamFile
{
    version     2.0;
    format      ascii;
    arch        "LSB;label=32;scalar=64";
    class       volVectorField;
    location    "1.625";
    object      LambVectorField;
}
// * * * * * * * * * * * * * * * * * * * * * * * * * * * * * * * * * * * * * //

dimensions      [0 1 -2 0 0 0 0];

internalField   nonuniform List<vector> 
400
(
(-9.49201e-05 -9.81231e-05 -3.26969e-08)
(-0.000897417 -0.00179808 0)
(-0.00252464 -0.00866956 -4.87599e-05)
(-0.00445209 -0.0229438 0)
(-0.00655327 -0.0462184 -0.000637585)
(-0.00892639 -0.0794162 0)
(-0.0116214 -0.122947 -0.00280426)
(-0.0142448 -0.175401 0)
(-0.0156305 -0.232222 -0.00740495)
(-0.014238 -0.284757 0)
(-0.00925527 -0.319112 -0.0121423)
(-0.000503416 -0.325833 0)
(0.0111921 -0.296776 -0.0109677)
(0.0200814 -0.235037 -0)
(0.0231306 -0.15651 -0.0041124)
(0.0190401 -0.0828565 -0)
(0.0111004 -0.0317016 -0.000346957)
(0.00403654 -0.00696302 -0)
(0.00055321 -0.000254216 -1.10259e-07)
(-3.19635e-06 4.67639e-06 0)
(-0.00193621 -0.00100385 -1.18405e-06)
(-0.00352128 -0.00345774 0)
(-0.0043721 -0.0065836 -5.95403e-05)
(-0.00508108 -0.0107368 0)
(-0.00609028 -0.0168676 -0.000329204)
(-0.00722497 -0.0248896 0)
(-0.00803276 -0.0335344 -0.00103665)
(-0.00794252 -0.0405331 0)
(-0.00664466 -0.0439209 -0.00181762)
(-0.00449611 -0.0442438 0)
(-0.00205001 -0.0449613 -0.00213741)
(0.000926682 -0.0475785 -0)
(0.00527469 -0.053397 -0.00246694)
(0.0115416 -0.0587147 -0)
(0.0182841 -0.0574391 -0.00199744)
(0.021588 -0.045577 -0)
(0.0184206 -0.0267772 -0.000437748)
(0.0111525 -0.0109643 -0)
(0.0041186 -0.00247337 -6.04725e-06)
(0.000115439 -3.47606e-05 -0)
(-0.00926479 -0.00309656 -5.9951e-06)
(-0.00679048 -0.00455834 0)
(-0.00623453 -0.00618476 -6.71874e-05)
(-0.00573329 -0.00767326 0)
(-0.005553 -0.0094827 -0.000206769)
(-0.00533155 -0.0111993 0)
(-0.00451275 -0.0115317 -0.000389991)
(-0.00301443 -0.00957013 0)
(-0.0016823 -0.00705795 -0.000317958)
(-0.0014729 -0.0092853 0)
(-0.00167444 -0.0224956 -0.00119312)
(0.000882946 -0.0501703 -0)
(0.0110396 -0.0897203 -0.00500518)
(0.032272 -0.128935 -0)
(0.0590781 -0.146845 -0.00687627)
(0.077645 -0.129373 -0)
(0.072694 -0.0812021 -0.00189539)
(0.0421308 -0.0291409 -0)
(0.0128221 -0.00384755 -9.74301e-06)
(0.00156015 6.96263e-05 0)
(-0.0241966 -0.00559208 -1.28866e-05)
(-0.00968905 -0.0048073 0)
(-0.00745616 -0.00547483 -6.43581e-05)
(-0.00605493 -0.00590489 0)
(-0.00484694 -0.00594173 -0.000134957)
(-0.00328321 -0.00491154 0)
(-0.000966559 -0.00175706 -6.15412e-05)
(0.00119777 0.00270893 0)
(0.000923266 0.00273754 0.000130307)
(-0.00304094 -0.0129574 0)
(-0.00767303 -0.0573093 -0.0034737)
(-0.00424398 -0.1363 0)
(0.0182177 -0.23515 -0.0175504)
(0.0638197 -0.320606 -0)
(0.127998 -0.367302 -0.0274265)
(0.197901 -0.367057 -0)
(0.233802 -0.292676 -0.0131468)
(0.180789 -0.141761 -0)
(0.0609763 -0.0152661 -5.67714e-05)
(0.00372712 0.00164187 0)
(-0.0479776 -0.00790563 -1.88168e-05)
(-0.0124063 -0.00465036 0)
(-0.00797419 -0.00448974 -5.34303e-05)
(-0.00585042 -0.00436446 0)
(-0.00376001 -0.00350287 -7.94468e-05)
(-0.000872547 -0.000986651 0)
(0.00264369 0.00361941 0.000127556)
(0.00411282 0.00695036 0)
(-0.0012589 -0.00271271 -0.00013596)
(-0.0156603 -0.0445631 0)
(-0.033212 -0.13102 -0.00956763)
(-0.0357688 -0.228092 0)
(-0.00996481 -0.256678 -0.0269314)
(0.0247518 -0.224286 -0)
(0.0763711 -0.26378 -0.0302535)
(0.204224 -0.412838 -0)
(0.406947 -0.552477 -0.04592)
(0.515951 -0.489828 -0)
(0.291467 -0.157692 -0.00270437)
(0.0188787 0.00650324 0)
(-0.0796766 -0.00956533 -2.16791e-05)
(-0.0151061 -0.00432218 0)
(-0.00801142 -0.00350293 -4.0051e-05)
(-0.00518182 -0.00300937 0)
(-0.00220823 -0.00159644 -3.47409e-05)
(0.00184894 0.00161424 0)
(0.00575424 0.00603454 0.00020749)
(0.00436741 0.00554389 0)
(-0.00943617 -0.0145499 -0.000758177)
(-0.0345494 -0.0643034 0)
(-0.041069 -0.0946835 -0.00810447)
(0.00705016 0.0231029 0)
(0.0447795 0.321451 0.0404232)
(-0.0368227 0.596372 -0)
(-0.186811 0.655821 0.0895536)
(-0.212054 0.404302 -0)
(0.0960918 -0.122297 -0.014089)
(0.68047 -0.621241 -0)
(0.892732 -0.582793 -0.0262495)
(0.169383 -0.0271374 -0)
(-0.116709 -0.010241 -2.06866e-05)
(-0.0178746 -0.00389274 0)
(-0.0076609 -0.00259098 -2.70466e-05)
(-0.00406431 -0.00183207 0)
(-0.000338124 -0.000189177 -3.76704e-06)
(0.00445386 0.00298723 0)
(0.00786852 0.00625139 0.000199747)
(0.00324436 0.00302829 0)
(-0.0130075 -0.0140174 -0.000710127)
(-0.0130334 -0.0161395 0)
(0.0805002 0.120277 0.0104242)
(0.249873 0.516496 0)
(0.259644 1.0407 0.125508)
(-0.0337703 1.4095 -0)
(-0.476619 1.50587 0.191373)
(-0.841734 1.37452 -0)
(-0.839424 0.916874 0.109575)
(-0.037575 0.0297113 -0)
(1.3201 -0.76465 -0.0520319)
(0.907831 -0.370206 -0)
(-0.155363 -0.00974945 -1.63122e-05)
(-0.0207191 -0.00336285 0)
(-0.00701596 -0.00179508 -1.61151e-05)
(-0.00259843 -0.000888374 0)
(0.00168216 0.000710555 1.21645e-05)
(0.006844 0.00342899 0)
(0.00983261 0.00572981 0.000158001)
(0.0041035 0.00272214 0)
(-0.000658319 -0.000483522 -2.1345e-05)
(0.0722929 0.0590977 0)
(0.314658 0.307449 0.0226251)
(0.569546 0.762552 0)
(0.478201 1.19401 0.112421)
(0.00256285 1.37757 0)
(-0.572953 1.36022 0.124505)
(-1.0861 1.3142 -0)
(-1.53199 1.2776 0.117854)
(-1.38979 0.863915 -0)
(0.646813 -0.293475 -0.0216836)
(2.76784 -0.902128 -0)
(-0.191424 -0.00810285 -1.01666e-05)
(-0.0236383 -0.00272758 0)
(-0.00626733 -0.00115766 -8.2583e-06)
(-0.00102025 -0.000251995 0)
(0.00358972 0.00108651 1.46585e-05)
(0.00888789 0.00313999 0)
(0.0124578 0.00499692 0.000106538)
(0.00966214 0.00426015 0)
(0.0250863 0.011702 0.000382161)
(0.172627 0.0858443 0)
(0.529374 0.306808 0.0153257)
(0.80072 0.631844 0)
(0.576787 0.855249 0.0503723)
(-0.0265752 0.859618 -0)
(-0.579407 0.757928 0.0403472)
(-0.97576 0.680632 -0)
(-1.44808 0.744956 0.039916)
(-2.05887 0.872672 -0)
(-0.877913 0.284612 0.0171958)
(5.21963 -1.13467 -0)
(-0.220918 -0.0055525 -4.44335e-06)
(-0.0266033 -0.00199013 0)
(-0.00565415 -0.000690182 -3.47952e-06)
(0.000421129 6.85281e-05 0)
(0.00520863 0.00102143 9.50077e-06)
(0.0107336 0.00238708 0)
(0.0159572 0.00386619 5.32916e-05)
(0.0179378 0.00451925 0)
(0.0476531 0.0116729 0.000214181)
(0.21988 0.0515044 0)
(0.593627 0.143959 0.00313717)
(0.86804 0.26875 0)
(0.60771 0.344252 0.00795566)
(-0.0447236 0.334736 -0)
(-0.593014 0.285033 0.00600295)
(-0.856951 0.239601 -0)
(-1.10513 0.251154 0.00577439)
(-1.82752 0.414205 -0)
(-2.03447 0.421025 0.0162724)
(7.49898 -1.00524 -0)
(-0.240917 -0.00254197 -8.90561e-07)
(-0.0295458 -0.00116818 0)
(-0.00540828 -0.000360553 -1.03439e-06)
(0.00152636 0.000133355 0)
(0.00652446 0.000654168 3.20895e-06)
(0.0123774 0.00129718 0)
(0.0190701 0.00192118 1.12543e-05)
(0.0256679 0.00219908 0)
(0.0537539 0.00281537 1.09828e-05)
(0.194965 0.00106133 0)
(0.501395 -0.0274978 0.000131715)
(0.764557 -0.093193 0)
(0.579628 -0.163662 0.00193623)
(-0.0128218 -0.171972 0)
(-0.537537 -0.118687 0.00108725)
(-0.757133 -0.0435582 0)
(-0.871838 0.0126319 1.78543e-05)
(-1.44189 0.103414 -0)
(-2.42795 0.268611 0.00530962)
(9.00482 -0.725942 -0)
(-0.250296 0.000390268 -2.05436e-08)
(-0.0323755 -0.000311789 0)
(-0.00568765 -0.000105267 -8.53323e-08)
(0.00200607 4.11866e-05 0)
(0.00715533 0.000100213 6.88396e-08)
(0.0131058 -2.24904e-05 0)
(0.0204965 -0.000564379 8.8758e-07)
(0.0293872 -0.00191808 0)
(0.0495451 -0.00603096 5.13846e-05)
(0.138431 -0.0278233 0)
(0.333547 -0.106197 0.00267614)
(0.528468 -0.264651 0)
(0.449522 -0.436621 0.0174918)
(0.0459442 -0.499116 0)
(-0.387464 -0.405181 0.0145855)
(-0.596282 -0.236041 0)
(-0.698351 -0.120333 0.00185093)
(-1.17206 -0.0476274 0)
(-2.50003 0.1046 0.00073838)
(9.86377 -0.543428 -0)
(-0.249375 0.00260354 -9.12516e-07)
(-0.0350066 0.00048351 0)
(-0.00652304 0.000139443 -1.30123e-07)
(0.00172575 -6.39715e-05 0)
(0.00684804 -0.000429097 1.2886e-06)
(0.0125587 -0.00123758 0)
(0.0197927 -0.00287777 2.27089e-05)
(0.0289716 -0.00594568 0)
(0.0435137 -0.0123602 0.000221637)
(0.0887308 -0.0348983 0)
(0.188771 -0.10511 0.00395206)
(0.295531 -0.247651 0)
(0.268592 -0.411846 0.0232165)
(0.0570895 -0.493674 0)
(-0.21238 -0.436971 0.0229514)
(-0.395518 -0.296955 0)
(-0.515673 -0.180655 0.00489657)
(-0.959944 -0.125688 0)
(-2.51487 -0.00333941 6.98049e-07)
(10.234 -0.477046 -0)
(-0.242263 0.00350768 -1.67389e-06)
(-0.0368417 0.00106888 0)
(-0.00784459 0.000399901 -8.70912e-07)
(0.000670539 -5.62604e-05 0)
(0.00556541 -0.000718948 4.24967e-06)
(0.0106908 -0.00199406 0)
(0.0172172 -0.00440579 5.65655e-05)
(0.0255735 -0.0086727 0)
(0.0369093 -0.0163162 0.000399688)
(0.0584668 -0.0339152 0)
(0.100975 -0.079336 0.00346641)
(0.147421 -0.16851 0)
(0.138615 -0.274933 0.0169934)
(0.0443609 -0.341046 0)
(-0.0974854 -0.330484 0.0193389)
(-0.229863 -0.26179 0)
(-0.354506 -0.187181 0.00626739)
(-0.774954 -0.160874 0)
(-2.5031 -0.0674113 0.000261176)
(10.2298 -0.47421 -0)
(-0.230338 0.00243073 -8.20403e-07)
(-0.0382414 0.00120424 0)
(-0.0094025 0.00061988 -1.68003e-06)
(-0.00103867 0.000121048 0)
(0.00335275 -0.000616029 4.83265e-06)
(0.00757693 -0.00201533 0)
(0.0129695 -0.00469509 7.68646e-05)
(0.0200471 -0.00948342 0)
(0.0291651 -0.0176502 0.000509855)
(0.0411529 -0.0318761 0)
(0.0572934 -0.058375 0.00269522)
(0.0740286 -0.105571 0)
(0.0723736 -0.167597 0.0103238)
(0.0335301 -0.217521 0)
(-0.0384082 -0.233334 0.0137998)
(-0.127232 -0.212241 0)
(-0.237206 -0.176456 0.0064525)
(-0.620825 -0.179064 0)
(-2.46894 -0.126389 0.000829282)
(9.93515 -0.474694 -0)
(-0.230902 -0.00117636 -1.91947e-07)
(-0.039195 0.000607103 0)
(-0.0112979 0.000681091 -1.60877e-06)
(-0.00323678 0.000418031 0)
(0.000902568 -0.0002006 1.73729e-06)
(0.00438256 -0.00147194 0)
(0.00864212 -0.00403472 7.47589e-05)
(0.0142645 -0.00877274 0)
(0.0213608 -0.0167837 0.000531923)
(0.0296451 -0.0294891 0)
(0.0376577 -0.0481946 0.0022797)
(0.0440655 -0.0760377 0)
(0.0440424 -0.114802 0.00689562)
(0.0275738 -0.154282 0)
(-0.0103532 -0.178365 0.0104276)
(-0.0684282 -0.181081 0)
(-0.158764 -0.172414 0.00666293)
(-0.512202 -0.213217 0)
(-2.36903 -0.249849 0.00291982)
(9.51743 -0.425038 -0)
(-0.191755 -0.00858745 -1.10578e-05)
(-0.0393294 -0.0020493 0)
(-0.0123073 0.000148536 -6.31638e-08)
(-0.00240452 0.000265295 0)
(0.00217927 -0.000524872 4.32423e-06)
(0.00602952 -0.00240564 0)
(0.010338 -0.00600278 0.000117294)
(0.0154679 -0.0121196 0)
(0.0215234 -0.0217668 0.000729871)
(0.0282826 -0.0361725 0)
(0.0345117 -0.0560026 0.00271834)
(0.0386954 -0.082129 0)
(0.0378857 -0.114144 0.00684963)
(0.02814 -0.148403 0)
(0.00495891 -0.178202 0.0105984)
(-0.0379056 -0.195885 0)
(-0.117101 -0.206353 0.00857045)
(-0.475659 -0.326762 0)
(-2.16771 -0.443163 0.00858828)
(9.11251 -0.277392 -0)
(-0.424715 -0.0334558 -0.000117934)
(-0.0141043 -0.00134322 0)
(0.0359171 0.000850134 8.07432e-07)
(0.049542 -0.00465442 0)
(0.0558506 -0.0145859 0.000122117)
(0.0619815 -0.0298744 0)
(0.067498 -0.0505702 0.00107681)
(0.0726146 -0.0764048 0)
(0.0773176 -0.107411 0.00395232)
(0.0811508 -0.143877 0)
(0.0830673 -0.185854 0.00979426)
(0.081279 -0.232183 0)
(0.0745607 -0.281486 0.0182467)
(0.0604013 -0.332262 0)
(0.0360516 -0.382358 0.0253916)
(-0.0127493 -0.439547 0)
(-0.113336 -0.453932 0.023035)
(-0.512762 -0.713165 0)
(-1.80904 -0.54925 0.0126058)
(7.03339 0.131009 0)
(0.0295737 0.0115222 7.27127e-05)
(0.068977 0.0681814 0)
(0.0896707 0.00329837 1.30204e-06)
(0.14337 -0.0990762 0)
(0.177178 -0.236026 0.0047579)
(0.189423 -0.388541 0)
(0.194675 -0.544454 0.0222322)
(0.198874 -0.702281 0)
(0.20182 -0.861785 0.0522539)
(0.201912 -1.02221 0)
(0.197746 -1.18194 0.0937998)
(0.18767 -1.33887 0)
(0.170804 -1.49108 0.141365)
(0.144323 -1.64035 0)
(0.106997 -1.77491 0.182807)
(0.0344112 -1.93667 0)
(-0.0752465 -1.92409 0.182711)
(-0.499998 -2.4964 0)
(-1.27565 -0.904687 0.0267567)
(-2.38769 -0.752353 0)
(16.7426 -7.31844 0.297069)
(13.9624 -12.3069 0)
(8.58597 -17.017 1.48201)
(5.5705 -20.7631 0)
(4.02119 -23.5543 2.97347)
(3.12437 -25.8475 0)
(2.53786 -27.8942 4.29834)
(2.12243 -29.7614 0)
(1.8119 -31.4665 5.61363)
(1.57354 -33.0288 0)
(1.37958 -34.4594 6.89384)
(1.21569 -35.7577 0)
(1.0696 -36.9071 8.06877)
(0.929158 -37.9115 0)
(0.779192 -38.6458 8.95726)
(0.56678 -39.4037 0)
(0.337332 -38.7309 8.92263)
(-0.514194 -41.2493 0)
(0.695041 -24.1908 3.01543)
(-14.2786 -55.0539 0)
)
;

boundaryField
{
    movingWall
    {
        type            calculated;
        value           nonuniform List<vector> 
20
(
(0 -367.485 0)
(0 -380.239 0)
(0 -369.23 0)
(0 -358.608 0)
(0 -350.729 0)
(0 -344.445 0)
(0 -338.876 0)
(0 -333.731 0)
(0 -328.925 0)
(0 -324.407 0)
(0 -320.167 0)
(0 -316.235 0)
(0 -312.709 0)
(0 -309.635 0)
(0 -307.502 0)
(0 -305.354 0)
(0 -308.504 0)
(0 -299.337 0)
(0 -359.629 0)
(0 -239.37 0)
)
;
    }
    fixedWalls
    {
        type            calculated;
        value           uniform (-0 0 0);
    }
    frontAndBack
    {
        type            empty;
    }
}


// ************************************************************************* //
