/*--------------------------------*- C++ -*----------------------------------*\
| =========                 |                                                 |
| \\      /  F ield         | OpenFOAM: The Open Source CFD Toolbox           |
|  \\    /   O peration     | Version:  2312                                  |
|   \\  /    A nd           | Website:  www.openfoam.com                      |
|    \\/     M anipulation  |                                                 |
\*---------------------------------------------------------------------------*/
FoamFile
{
    version     2.0;
    format      ascii;
    arch        "LSB;label=32;scalar=64";
    class       volScalarField;
    location    "1.625";
    object      magSqrU;
}
// * * * * * * * * * * * * * * * * * * * * * * * * * * * * * * * * * * * * * //

dimensions      [0 2 -2 0 0 0 0];

internalField   nonuniform List<scalar> 
400
(
2.14945e-07
6.17363e-06
3.43148e-05
9.49476e-05
0.000194129
0.000336138
0.000524889
0.000758459
0.00102141
0.00127525
0.00144905
0.00149725
0.0013677
0.0010753
0.000705492
0.000364824
0.000134468
2.69624e-05
1.07895e-06
4.49615e-07
6.56699e-06
4.21592e-05
0.000117859
0.000243394
0.000430568
0.000686894
0.00101044
0.00138028
0.00175183
0.00206563
0.00226464
0.00230583
0.00215527
0.00181074
0.00133183
0.000817756
0.000393724
0.00013413
2.25531e-05
6.33758e-08
3.73025e-05
0.00011951
0.000237933
0.000405855
0.000638493
0.000944589
0.00131887
0.00173344
0.00214477
0.00251641
0.00282863
0.00306298
0.00315925
0.00301216
0.00254766
0.00180489
0.000981475
0.000361878
7.76269e-05
2.98154e-06
0.000104736
0.000239082
0.000394489
0.000595552
0.0008592
0.00119506
0.00159799
0.00204561
0.00252347
0.003063
0.00373982
0.00461334
0.0056038
0.00631633
0.00625274
0.0051907
0.00330538
0.0013404
0.000234461
6.74429e-06
0.000214316
0.000403435
0.000588371
0.000816418
0.0011071
0.00146993
0.00190464
0.00241242
0.00305295
0.00402942
0.00567519
0.00817247
0.0110254
0.0132958
0.0142569
0.0135068
0.0106566
0.00582375
0.00129889
2.48829e-05
0.000361544
0.000606946
0.000814509
0.00106431
0.00137963
0.00177227
0.0022572
0.00288651
0.00385737
0.0056254
0.00870499
0.0127185
0.0161205
0.0182389
0.0201594
0.0219033
0.0214652
0.01638
0.0067889
0.000263352
0.000534003
0.000837225
0.00106162
0.00132704
0.00166325
0.00208776
0.00263844
0.00342767
0.00477645
0.00725947
0.010876
0.01407
0.0154497
0.0160832
0.0177683
0.0214649
0.0262538
0.0275837
0.0184312
0.00254902
0.00071369
0.00107561
0.00131173
0.00158554
0.0019357
0.00238731
0.00299962
0.00392961
0.00556118
0.00825643
0.0110879
0.0119032
0.0102869
0.00882334
0.00986478
0.0137058
0.0207452
0.0300198
0.0319765
0.0110182
0.000880179
0.00129957
0.00154239
0.00181595
0.00216891
0.00263316
0.00328002
0.00427569
0.00596806
0.0083958
0.00992369
0.00851073
0.00504672
0.00318306
0.0044899
0.00806334
0.0137192
0.0242665
0.0383825
0.0252566
0.00101439
0.00148669
0.00173119
0.00199485
0.00233628
0.00279119
0.00342669
0.00438732
0.00594762
0.00791558
0.00854991
0.00621468
0.0021984
0.000488692
0.00236344
0.00620679
0.0107634
0.0185819
0.0363736
0.0412197
0.00110263
0.00161901
0.00186011
0.0021038
0.0024177
0.00283708
0.0034155
0.00426272
0.00556286
0.00717481
0.00765151
0.00560079
0.00189555
0.000139107
0.00180525
0.00540254
0.00951869
0.0155494
0.0323144
0.0526327
0.00113975
0.00168775
0.001919
0.00213358
0.00240615
0.00276998
0.00326451
0.0039595
0.00497175
0.00625616
0.00689944
0.00581976
0.00330613
0.0016881
0.00248079
0.00495176
0.00820532
0.0132796
0.0285156
0.0593961
0.00112713
0.00169254
0.0019064
0.00208398
0.00230594
0.0026045
0.00300789
0.00355514
0.00430664
0.00525964
0.00597336
0.00573188
0.00452938
0.00341909
0.00341045
0.00455266
0.00672061
0.010688
0.0247812
0.0633037
0.00108652
0.00164426
0.00182982
0.00196257
0.00212865
0.00236149
0.00268212
0.00311079
0.00367075
0.00435967
0.00500155
0.00521038
0.00479149
0.00411492
0.00372218
0.00397229
0.00514248
0.00808234
0.0207113
0.0655054
0.00102303
0.00155353
0.00169735
0.00177663
0.00188447
0.00205707
0.00231316
0.00266358
0.00311282
0.00364641
0.00418522
0.00454483
0.00450199
0.00409895
0.00359253
0.00334894
0.00375351
0.00574833
0.0164709
0.0665424
0.00102581
0.00147808
0.00154079
0.00154952
0.00159338
0.00171014
0.00191844
0.0022265
0.00263139
0.00311072
0.00360354
0.00400258
0.00413884
0.00392251
0.00342932
0.00293753
0.00275974
0.00405768
0.0124151
0.0676229
0.000828407
0.00119866
0.00124165
0.00122267
0.00123798
0.0013267
0.00151423
0.00181371
0.00222371
0.00272184
0.00325086
0.00371956
0.00399772
0.00396465
0.00353988
0.00293172
0.00228047
0.00337304
0.00936141
0.07044
0.00201498
0.00205569
0.00161105
0.00126169
0.00109783
0.00109895
0.00126116
0.00158279
0.00205553
0.00265631
0.00333192
0.00399139
0.00449684
0.00469004
0.00444921
0.00388763
0.00273564
0.00420013
0.006241
0.0712875
0.000302182
0.000184538
0.00011533
0.000295653
0.000635344
0.00116012
0.00188059
0.00279055
0.00387819
0.0051227
0.00647449
0.00784703
0.00910629
0.0101311
0.0106464
0.0109767
0.00903121
0.0115758
0.00261385
0.0558088
0.0102712
0.00868761
0.00951547
0.012754
0.0164007
0.0201058
0.0239416
0.0278995
0.0319321
0.0360101
0.0400869
0.04408
0.0478365
0.0512552
0.053743
0.056314
0.0530767
0.0631439
0.0155509
0.152465
)
;

boundaryField
{
    movingWall
    {
        type            calculated;
        value           uniform 1;
    }
    fixedWalls
    {
        type            calculated;
        value           uniform 0;
    }
    frontAndBack
    {
        type            empty;
    }
}


// ************************************************************************* //
