/*--------------------------------*- C++ -*----------------------------------*\
| =========                 |                                                 |
| \\      /  F ield         | OpenFOAM: The Open Source CFD Toolbox           |
|  \\    /   O peration     | Version:  2312                                  |
|   \\  /    A nd           | Website:  www.openfoam.com                      |
|    \\/     M anipulation  |                                                 |
\*---------------------------------------------------------------------------*/
FoamFile
{
    version     2.0;
    format      ascii;
    arch        "LSB;label=32;scalar=64";
    class       volScalarField;
    location    "1.625";
    object      magU;
}
// * * * * * * * * * * * * * * * * * * * * * * * * * * * * * * * * * * * * * //

dimensions      [0 1 -1 0 0 0 0];

internalField   nonuniform List<scalar> 
400
(
0.000463622
0.00248468
0.00585789
0.00974411
0.013933
0.0183341
0.0229105
0.0275401
0.0319596
0.0357107
0.0380663
0.0386943
0.0369825
0.0327917
0.0265611
0.0191004
0.011596
0.00519254
0.00103873
0.000670533
0.00256261
0.00649302
0.0108563
0.0156011
0.0207501
0.0262087
0.0317875
0.0371521
0.0418549
0.0454493
0.0475882
0.0480191
0.0464248
0.0425528
0.0364942
0.0285964
0.0198425
0.0115815
0.00474901
0.000251745
0.00610758
0.0109321
0.0154251
0.0201458
0.0252684
0.0307342
0.0363162
0.0416346
0.0463117
0.0501638
0.0531849
0.0553442
0.0562072
0.0548831
0.0504744
0.0424839
0.0313285
0.0190231
0.00881061
0.00172671
0.0102341
0.0154623
0.0198617
0.0244039
0.0293121
0.0345697
0.0399749
0.0452284
0.0502342
0.0553444
0.0611541
0.0679215
0.0748586
0.0794754
0.0790743
0.0720465
0.0574925
0.0366115
0.0153121
0.00259698
0.0146395
0.0200857
0.0242564
0.028573
0.0332732
0.0383396
0.0436422
0.0491164
0.0552535
0.0634777
0.0753339
0.0904017
0.105002
0.115307
0.119402
0.116219
0.103231
0.0763135
0.0360401
0.00498828
0.0190143
0.0246363
0.0285396
0.0326238
0.0371434
0.0420983
0.04751
0.0537262
0.0621077
0.0750027
0.0933005
0.112776
0.126966
0.135052
0.141984
0.147997
0.14651
0.127984
0.0823948
0.0162281
0.0231085
0.0289348
0.0325825
0.0364286
0.0407829
0.045692
0.0513658
0.0585463
0.0691119
0.0852025
0.104288
0.118617
0.124297
0.12682
0.133298
0.146509
0.16203
0.166083
0.135762
0.0504878
0.026715
0.0327966
0.0362178
0.0398189
0.0439965
0.0488602
0.0547687
0.0626866
0.0745733
0.0908649
0.105299
0.109102
0.101424
0.0939326
0.0993216
0.117072
0.144032
0.173262
0.17882
0.104968
0.0296678
0.0360496
0.0392732
0.042614
0.0465716
0.0513144
0.0572715
0.0653888
0.0772532
0.0916286
0.0996177
0.0922536
0.0710403
0.0564186
0.0670067
0.0897961
0.117129
0.155777
0.195915
0.158923
0.0318495
0.0385576
0.0416075
0.0446637
0.048335
0.0528317
0.0585379
0.0662368
0.0771208
0.0889695
0.0924657
0.0788332
0.0468871
0.0221064
0.0486152
0.0787832
0.103747
0.136315
0.190719
0.203026
0.0332059
0.0402369
0.043129
0.0458672
0.0491701
0.0532642
0.0584422
0.0652895
0.0745846
0.0847042
0.0874729
0.0748384
0.0435379
0.0117944
0.0424882
0.073502
0.0975638
0.124697
0.179762
0.229418
0.0337601
0.0410822
0.0438064
0.0461907
0.0490525
0.0526306
0.0571359
0.0629246
0.0705107
0.0790959
0.0830628
0.0762873
0.057499
0.0410864
0.0498075
0.0703688
0.0905832
0.115237
0.168866
0.243713
0.0335728
0.0411405
0.0436624
0.0456506
0.0480202
0.0510343
0.0548442
0.059625
0.065625
0.0725234
0.0772875
0.0757092
0.0673007
0.058473
0.058399
0.0674734
0.0819793
0.103383
0.157421
0.251602
0.0329625
0.0405495
0.0427763
0.0443009
0.0461373
0.0485951
0.0517892
0.0557745
0.0605867
0.0660278
0.0707216
0.072183
0.0692206
0.0641476
0.0610097
0.0630261
0.0717111
0.0899018
0.143914
0.25594
0.0319849
0.0394149
0.0411989
0.0421501
0.0434105
0.0453549
0.0480953
0.0516099
0.0557927
0.0603855
0.0646932
0.0674153
0.0670969
0.064023
0.0599377
0.05787
0.0612659
0.0758177
0.128339
0.257958
0.0320282
0.0384458
0.0392529
0.0393639
0.0399171
0.0413539
0.0438
0.0471858
0.0512971
0.0557738
0.0600295
0.063266
0.0643338
0.0626299
0.0585604
0.054199
0.0525332
0.0636999
0.111423
0.260044
0.0287821
0.0346216
0.0352371
0.0349667
0.035185
0.0364238
0.0389132
0.0425877
0.0471562
0.0521712
0.0570163
0.0609882
0.0632275
0.0629654
0.0594969
0.0541453
0.0477543
0.0580779
0.0967544
0.265405
0.0448886
0.0453397
0.0401378
0.0355203
0.0331335
0.0331504
0.0355128
0.0397843
0.045338
0.0515394
0.0577228
0.0631774
0.0670585
0.0684839
0.0667024
0.0623508
0.0523033
0.0648084
0.079
0.266997
0.0173834
0.0135845
0.0107392
0.0171946
0.025206
0.0340605
0.0433658
0.0528257
0.0622751
0.071573
0.0804642
0.0885834
0.0954269
0.100653
0.103182
0.10477
0.0950327
0.107591
0.0511258
0.236239
0.101347
0.0932073
0.0975472
0.112934
0.128065
0.141795
0.154731
0.167031
0.178696
0.189763
0.200217
0.209952
0.218716
0.226396
0.231825
0.237306
0.230384
0.251284
0.124703
0.390468
)
;

boundaryField
{
    movingWall
    {
        type            calculated;
        value           uniform 1;
    }
    fixedWalls
    {
        type            calculated;
        value           uniform 0;
    }
    frontAndBack
    {
        type            empty;
    }
}


// ************************************************************************* //
