/*--------------------------------*- C++ -*----------------------------------*\
| =========                 |                                                 |
| \\      /  F ield         | OpenFOAM: The Open Source CFD Toolbox           |
|  \\    /   O peration     | Version:  2312                                  |
|   \\  /    A nd           | Website:  www.openfoam.com                      |
|    \\/     M anipulation  |                                                 |
\*---------------------------------------------------------------------------*/
FoamFile
{
    version     2.0;
    format      ascii;
    arch        "LSB;label=32;scalar=64";
    class       volScalarField;
    location    "1.625";
    object      pNear;
}
// * * * * * * * * * * * * * * * * * * * * * * * * * * * * * * * * * * * * * //

dimensions      [0 2 -2 0 0 0 0];

internalField   nonuniform List<scalar> 
400
(
0
0
0
1.91463e-06
2.30777e-05
5.44542e-05
9.88355e-05
0.000161564
0.000250528
0.000377826
0.000563588
0.000825808
0.0011662
0.00155528
0.001927
0.00221036
0.00237182
0.00241882
0.00239721
0.00236599
9.05287e-06
0
0
7.48359e-06
2.73715e-05
5.45803e-05
9.09794e-05
0.000141065
0.000212868
0.000319931
0.000481335
0.000715383
0.00103457
0.00142165
0.00181174
0.00212783
0.0023192
0.00238648
0.00237471
0.00233956
0
0
0
0
0
4.91502e-07
2.30118e-05
5.25312e-05
9.72237e-05
0.000172367
0.000299623
0.0005011
0.000806476
0.00122064
0.00168098
0.00207276
0.00230625
0.00238458
0.00236037
0.00230711
0
0
0
0
0
0
0
0
0
0
0
0.000128923
0.000382092
0.000839905
0.0013965
0.00192033
0.00225774
0.0023591
0.00234075
0.00225062
0
0
0
0
0
0
0
0
0
0
0
0
0
0
7.44563e-05
0.000876677
0.00169543
0.0021872
0.00231159
0.00214168
0
0
0
0
0
0
0
0
0
0
0
0
0
0
0
0
0
0.00125438
0.00216685
0.00214776
0
0
0
0
0
0
0
0
0
0
0
0
0
0
0
0
0
0
0.00149014
0.00207805
0
0
0
0
0
0
0
0
0
0
0
0
0
0
0
0
0
0
0
0.00133777
0
0
0
0
0
0
0
0
0
0
0
0
0
0
0
0
0
0
0
0
0
0
0
0
0
0
0
0
0
0
0
0
0
0
0
0
0
0
0
0
0
0
0
0
0
0
0
0
0
0
0
0
0
0
0
0
0
0
0
0
0
0
0
0
0
0
0
0
0
0
0
0
0
0
0
0
0
0
0
0
0
0
0
0
0
0
0
0
0
0
0
0
0
0
0
0
0
0
0
0
0
0
0
0
0
0
0
0
0
0
0
0
0
0
0
0
0
0
0
0
0
0
0
0
0
0
0
0
0
0
0
0
0
0
0
0
0
0
0
0
0
0
0
0
0
0
0
0
0
0
0
0
0
0
0
0
0
0
0
0
0
0
0
0
0
0
0
0
0
0
0
0
0
0
0
0
0
0
0
0
0
0
0
0
0
0
0
0
0
0
0
0
0
0
0
0
0
0
0
0
0
0
0
0
0
0
0
0
0
0
0
0
0
0
0
0
0
0.000483882
0.00201447
0.014783
0
0.00119458
0.000475969
0
0
0
0
0
0
0
0
0
0
0
0
0
0
0.00306602
0.00468786
0.057234
)
;

boundaryField
{
    movingWall
    {
        type            zeroGradient;
    }
    fixedWalls
    {
        type            calculated;
        value           nonuniform List<scalar> 
60
(
1.35793e-06
6.33701e-06
1.35793e-06
0
0
0
0
0
0
0
0
0
0
0
0
0
0
0
0
0
0.00236203
0.00233866
0.00230351
0.00224275
0.00215893
0.00213639
0.00197746
0.00124814
0.000200665
0
0
0
0
0
0
0
0
0.00221746
0.0189332
0.0508663
0
0
2.87195e-07
4.80189e-06
2.46097e-05
5.64049e-05
0.000101588
0.000165499
0.000256278
0.000386596
0.000575056
0.000837533
0.0011735
0.00155267
0.00191375
0.00219207
0.00235465
0.00240853
0.00239577
0.00237068
)
;
    }
    frontAndBack
    {
        type            empty;
    }
}


// ************************************************************************* //
