/*--------------------------------*- C++ -*----------------------------------*\
| =========                 |                                                 |
| \\      /  F ield         | OpenFOAM: The Open Source CFD Toolbox           |
|  \\    /   O peration     | Version:  2312                                  |
|   \\  /    A nd           | Website:  www.openfoam.com                      |
|    \\/     M anipulation  |                                                 |
\*---------------------------------------------------------------------------*/
FoamFile
{
    version     2.0;
    format      ascii;
    arch        "LSB;label=32;scalar=64";
    class       volScalarField;
    location    "1.625";
    object      QField;
}
// * * * * * * * * * * * * * * * * * * * * * * * * * * * * * * * * * * * * * //

dimensions      [0 0 -2 0 0 0 0];

internalField   nonuniform List<scalar> 
400
(
-0.0447377
-0.214745
-0.45173
-0.621638
-0.715214
-0.756386
-0.785045
-0.857158
-1.01751
-1.23646
-1.57422
-2.17483
-2.72978
-3.02767
-3.00932
-2.50986
-1.67276
-0.777504
-0.167197
-0.00288444
-0.202657
-0.48217
-0.782704
-1.00007
-1.14607
-1.238
-1.26851
-1.21659
-1.08795
-0.942037
-0.908289
-1.13402
-1.71168
-2.5417
-3.20842
-3.27172
-2.53076
-1.35898
-0.434851
-0.0324007
-0.450663
-0.703113
-0.924064
-1.12805
-1.29635
-1.41369
-1.44778
-1.37426
-1.25193
-1.23137
-1.49931
-2.23309
-3.53784
-4.98882
-5.91944
-5.92781
-4.53232
-2.47395
-0.99779
-0.166221
-0.688189
-0.861893
-0.997925
-1.16444
-1.33939
-1.49337
-1.59221
-1.65467
-1.85326
-2.53705
-4.14477
-6.82197
-9.76269
-12.4211
-14.7617
-15.5077
-13.2471
-7.58252
-1.63407
-0.346589
-0.852629
-0.942681
-1.03073
-1.17877
-1.37021
-1.58503
-1.8294
-2.24604
-3.30431
-5.81337
-10.2949
-15.5973
-19.5198
-21.8957
-25.4057
-29.8619
-30.8864
-24.5384
-8.40582
-0.802649
-0.928821
-0.932519
-1.00077
-1.1482
-1.36804
-1.67169
-2.15192
-3.17597
-5.65644
-10.6647
-16.8594
-18.5451
-13.4709
-7.90455
-7.74899
-16.0565
-30.957
-41.7114
-31.8661
-2.42215
-0.940798
-0.850802
-0.909035
-1.06237
-1.31285
-1.7097
-2.43737
-4.06559
-7.784
-13.4904
-15.2378
-5.27382
13.2433
28.18
33.0841
27.8024
7.9347
-27.5025
-54.6904
-23.7746
-0.910469
-0.72132
-0.766814
-0.923027
-1.19465
-1.6588
-2.56098
-4.55659
-8.51773
-12.2734
-6.56844
14.3944
39.5477
53.7174
55.189
52.9936
47.7788
19.6362
-44.2166
-76.9133
-0.85022
-0.570785
-0.596941
-0.747189
-1.02284
-1.5114
-2.46766
-4.47298
-7.86445
-8.83575
2.60627
28.8876
52.7131
57.7407
50.4094
43.8098
47.4342
49.4564
-2.28329
-114.496
-0.766653
-0.426912
-0.42992
-0.565839
-0.82979
-1.29764
-2.19258
-3.98652
-6.62385
-6.12403
6.16102
32.4577
55.3644
57.6842
45.5084
31.8786
29.1839
41.4167
28.0008
-107.609
-0.663358
-0.310085
-0.292184
-0.409467
-0.652427
-1.07624
-1.85469
-3.34087
-5.53132
-5.40258
3.87445
25.6183
47.4955
52.2103
40.6609
25.31
18.0054
24.9704
31.2316
-71.3576
-0.525764
-0.224657
-0.19735
-0.298389
-0.520433
-0.90095
-1.55226
-2.72322
-4.5256
-5.343
-0.618556
12.5822
28.3581
34.7443
27.609
15.8989
9.89371
12.843
21.7662
-32.3257
-0.324543
-0.16163
-0.14607
-0.240949
-0.450093
-0.797361
-1.34307
-2.22429
-3.57373
-4.78979
-3.44782
2.32085
10.2051
13.9657
10.6476
5.06404
1.78445
3.5893
10.0233
-7.77399
-0.0167136
-0.0952502
-0.128493
-0.236888
-0.447858
-0.775776
-1.24286
-1.89874
-2.81331
-3.81209
-3.88608
-1.89439
1.10812
2.41313
0.733055
-1.8485
-3.81174
-2.6759
1.83773
1.87408
0.442395
0.00336385
-0.133328
-0.283399
-0.514359
-0.838236
-1.25218
-1.75108
-2.32606
-2.88728
-3.07182
-2.36163
-1.1608
-0.779161
-1.9134
-3.74614
-5.74112
-3.8623
3.42353
-1.20098
1.13129
0.0959005
-0.247565
-0.450124
-0.69032
-1.00015
-1.36821
-1.75563
-2.10002
-2.29661
-2.18748
-1.62597
-0.791356
-0.405128
-1.14739
-2.72334
-4.74002
2.19834
13.7183
-15.6903
1.736
0.431855
0.0592539
-0.304823
-0.670189
-1.04863
-1.43012
-1.7685
-1.98335
-1.95421
-1.55514
-0.755273
0.285619
1.03923
0.909108
-0.180709
-0.0979173
15.3952
10.066
-58.8695
5.49725
-0.999824
-1.94745
-1.442
-1.45594
-1.82003
-2.22898
-2.49068
-2.47734
-2.05051
-1.08144
0.417276
2.29952
4.1433
5.88731
7.8648
17.3203
38.2558
-1.93496
-282.017
-19.039
5.06981
-3.21078
-5.90741
-3.10954
-1.98427
-2.20332
-2.52216
-2.40217
-1.71641
-0.403885
1.50889
3.98573
6.84456
11.4392
16.9405
41.4073
52.7749
180.348
-1165.85
-3311.39
915.951
751.98
404.191
215.404
128.829
85.2827
60.4086
44.5952
34.4282
28.3138
24.8802
23.9265
25.9337
34.3432
44.2873
109.849
-51.5307
1799.84
-3090.07
)
;

boundaryField
{
    movingWall
    {
        type            calculated;
        value           nonuniform List<scalar> 
20
(
-6626.82
1706.22
1401.31
752.078
400.753
239.901
159.235
113.361
84.2768
65.5506
54.1866
47.5911
45.4162
48.5369
63.5265
81.5498
200.371
-60.415
3304.49
-4320.74
)
;
    }
    fixedWalls
    {
        type            calculated;
        value           nonuniform List<scalar> 
60
(
-0.0151152
-0.11223
-0.335358
-0.6204
-0.870023
-1.04942
-1.17522
-1.2593
-1.29477
-1.2658
-1.15968
-0.945634
-0.581356
-0.0132018
0.806677
2.10312
3.21134
10.7616
-40.7283
-7478.79
0.00423911
-0.00151156
-0.070671
-0.0218585
1.56869
8.94419
-7.85848
-82.5708
-171.462
-202.518
-155.162
-77.5567
-21.4072
3.08748
-4.60395
-47.5489
-178.188
-852.287
-3841.39
-10970.3
-0.0138757
-0.117852
-0.313073
-0.484912
-0.571277
-0.592613
-0.630509
-0.820165
-1.27418
-1.9272
-2.75693
-3.86261
-4.55065
-4.44626
-3.74558
-2.58529
-1.43229
-0.575871
-0.138755
-0.0143352
)
;
    }
    frontAndBack
    {
        type            empty;
    }
}


// ************************************************************************* //
