/*--------------------------------*- C++ -*----------------------------------*\
| =========                 |                                                 |
| \\      /  F ield         | OpenFOAM: The Open Source CFD Toolbox           |
|  \\    /   O peration     | Version:  2312                                  |
|   \\  /    A nd           | Website:  www.openfoam.com                      |
|    \\/     M anipulation  |                                                 |
\*---------------------------------------------------------------------------*/
FoamFile
{
    version     2.0;
    format      ascii;
    arch        "LSB;label=32;scalar=64";
    class       volVectorField;
    location    "1.625";
    object      URandom;
}
// * * * * * * * * * * * * * * * * * * * * * * * * * * * * * * * * * * * * * //

dimensions      [0 1 -1 0 0 0 0];

internalField   nonuniform List<vector> 
400
(
(0.0906154 -0.0016099 -0.0415285)
(0.0684371 -0.0362966 -0.0600658)
(0.00812673 0.0501501 -0.0863566)
(-0.0845488 0.0313577 -0.0592215)
(-0.0818572 -0.0406264 0.0596178)
(-0.106701 0.0208881 0.0426155)
(0.0172623 0.0213633 0.0895845)
(0.0524466 0.0615804 0.00969639)
(-0.111006 0.0127117 0.060238)
(-0.121498 0.0353346 -0.0388219)
(-0.0201233 -0.0972753 0.000458146)
(-0.0118741 -0.068074 -0.0681063)
(-0.0929928 -0.0698122 -0.0466777)
(-0.116586 0.0392484 0.0345147)
(0.020539 -0.091472 0.0116875)
(-0.0868855 -0.0710074 -0.029771)
(0.0404863 0.0251366 -0.0807197)
(-0.0386314 -0.0694235 0.0661037)
(-0.0751071 -0.0621888 0.0259411)
(-0.0612172 -0.0515578 0.0590508)
(0.0381831 -0.0608221 0.0668531)
(0.0487194 -0.0234018 0.079853)
(0.0301033 -0.0777218 0.0381731)
(0.0572007 0.0613771 -0.0438576)
(-0.0788615 0.067231 -0.0534423)
(-0.0557475 -0.0239059 0.0899488)
(-0.0911756 0.0870782 0.00453629)
(0.00447133 0.0860798 -0.045759)
(-0.0965476 -0.0721883 -0.028332)
(-0.103479 0.0858451 -0.0019737)
(-0.116665 -0.0166779 0.0697597)
(-0.0261632 0.0226514 -0.0946911)
(-0.0159317 0.0887447 -0.0194262)
(-0.0728855 0.0139425 -0.0924131)
(-0.106668 -0.0746688 -0.0280459)
(-0.027141 0.0872251 0.0102352)
(0.0815938 0.00880243 -0.00234655)
(-0.0165339 -0.0819566 0.0670657)
(0.00577995 -0.0700132 0.0747263)
(-0.00108581 0.0951576 -0.0299677)
(0.022958 -0.0373928 -0.0866909)
(0.050369 0.0796357 0.042819)
(-0.0552652 -0.0680188 -0.0423353)
(0.0140093 0.101423 0.0332439)
(-0.0507041 -0.0194575 0.090146)
(0.0645498 -0.022646 0.0139653)
(-0.0952007 0.0135525 -0.0789441)
(-0.0971457 -0.0106957 0.0785039)
(-0.122653 -0.0420258 0.0345514)
(-0.00198933 -0.0784479 -0.0170183)
(-0.10948 0.0773659 -0.0377373)
(-0.0321531 -0.0882934 0.0428702)
(-0.0214455 0.0743748 -0.0471265)
(-0.119155 -0.0110404 0.0751667)
(-0.113858 -0.042821 0.070226)
(0.00308192 0.0157878 -0.0837945)
(0.0125767 -0.0841517 -0.0686192)
(0.0303678 -0.0527973 0.0832056)
(0.0647401 -0.0818127 0.00952383)
(-0.0258862 -0.0790872 0.0578014)
(-0.0767026 0.0317262 0.0631794)
(-0.0678737 0.00515177 0.0787601)
(-0.0540681 0.100701 -0.0322011)
(-0.0616511 0.0349366 -0.0877762)
(0.0694765 0.0492987 0.0235414)
(0.0450847 -0.0233141 0.0523594)
(-0.0494195 -0.0606547 -0.0583546)
(-0.0223401 -0.00916458 0.0942565)
(0.0380476 0.00577654 0.0505854)
(0.0170209 -0.0542751 0.0222414)
(-0.0624996 0.03899 0.0950957)
(-0.00486591 -0.0317412 -0.0698711)
(-0.0550165 -0.0588307 0.082468)
(-0.0389054 -0.0823729 -0.0632927)
(-0.142491 -0.0470544 -0.0704129)
(-0.0885022 0.0622284 0.00859801)
(-0.137562 -0.0683368 -0.0190843)
(0.0340707 0.0305674 -0.0571289)
(-0.0246431 -0.109745 0.0236179)
(7.30909e-05 -0.100501 0.0192512)
(-0.0530303 0.0544936 0.0763587)
(-0.103611 -0.00716421 -0.00122472)
(0.0331351 0.0858806 0.0614815)
(-0.113342 0.00300352 -0.0184048)
(-0.102839 0.0260179 -0.0597651)
(-0.0131059 -0.0684085 0.0309262)
(0.0511475 -0.0121931 -0.0331328)
(-0.0912997 0.0917258 -0.0560849)
(-0.115568 0.0979351 0.0118332)
(-0.0422121 0.0804162 0.078503)
(-0.0483009 0.0562928 0.089226)
(-0.00118386 0.0546916 -0.0240495)
(-0.0868265 0.0600014 0.0808986)
(-0.0619597 0.0181137 -0.0792558)
(-0.0739795 0.0354658 -0.0602214)
(-0.180426 -0.0323456 0.0617809)
(0.0144159 -0.0494703 -0.0186896)
(-0.0321612 0.00861434 0.0741205)
(0.0419523 -0.0862162 -0.0594537)
(0.0619519 0.0236531 -0.0745373)
(-0.0481344 -0.0297809 -0.074353)
(0.0218177 0.10087 0.056789)
(-0.0992526 0.0283764 0.0477793)
(0.0537046 0.0657689 -0.0606385)
(-0.0354891 0.0730095 -0.0892772)
(-0.00905829 -0.00482331 -0.0912036)
(-0.0863446 0.117967 -0.00665653)
(-0.00660847 0.0207519 0.0926114)
(0.023145 0.0830496 0.0437129)
(-0.0235127 0.0464982 0.0898214)
(-0.162588 0.0226368 -0.0621458)
(-0.074371 0.0706517 0.0863376)
(-0.051302 -0.0414964 0.031217)
(-0.142689 0.0908258 -0.0103555)
(-0.197563 0.0135904 -0.0593523)
(-0.106056 -0.0998483 0.0916898)
(-0.0512748 -0.156531 0.0394386)
(-0.0719209 -0.167869 0.0664321)
(-0.0476644 -0.132353 -0.0773226)
(0.0682996 0.0324574 -0.0512589)
(0.0300964 0.100671 -0.0542116)
(0.0869246 -0.00231217 0.0200098)
(-0.0725613 0.0772296 -0.0631754)
(0.0652901 -0.0264008 0.00218348)
(0.0212041 -2.19428e-05 0.0839113)
(-0.0743042 0.120425 -0.028475)
(0.0568727 0.00141895 0.0245913)
(0.00561589 0.130517 -0.0151481)
(-0.0446708 0.0203757 0.0962014)
(-0.0311765 0.118361 0.0675587)
(0.00552634 0.0536432 0.0384858)
(-0.152243 -0.0341802 -0.0237666)
(-0.0348381 -0.00371675 -0.0387568)
(-0.182142 0.0156142 0.0811638)
(-0.114002 -0.0561868 0.0978469)
(-0.0713134 -0.160913 -0.000748011)
(-0.0804384 -0.200886 0.0103098)
(-0.0692694 -0.0761998 0.0770523)
(-0.000868806 -0.140634 -0.0703625)
(0.0575608 -0.00564994 -0.04939)
(0.0566822 0.07335 0.066445)
(0.0601309 -0.0282617 0.0452572)
(-0.00412614 0.0913504 -0.0825285)
(0.0271402 -0.0231883 0.0685098)
(-0.0742687 -0.0246378 -0.0498725)
(0.0030558 0.0932474 -0.0831947)
(-0.0341679 -0.0429112 -0.0426004)
(-0.021018 -0.0399504 -0.0362688)
(-0.0677975 0.0598561 0.0971622)
(0.0147233 0.0068904 0.0274835)
(-0.0305229 0.106052 0.0848555)
(-0.0743972 0.00328287 -0.0773699)
(-0.168557 0.0584492 0.0635143)
(-0.115633 0.0458136 -0.0862913)
(-0.142119 -0.119713 -0.0292302)
(-0.01154 -0.13625 -0.00160806)
(-0.162111 -0.138265 0.0659887)
(-0.116709 -0.0505705 0.00596221)
(-0.156662 -0.195636 0.0455266)
(-0.0981279 -0.0332866 -0.0356733)
(-0.0722228 0.0968614 0.0210946)
(0.0583364 0.0943118 0.0517247)
(-0.0731155 0.0573831 0.0727622)
(0.0586421 0.0399123 -0.0724991)
(-0.0662066 0.0808459 -0.0768473)
(0.0162724 -0.0211715 0.0636301)
(0.0518533 0.0451527 -0.0676869)
(-0.043573 -0.0360105 -0.0227766)
(-0.0673244 0.0597134 -0.0932319)
(0.0300592 0.150833 -0.0157232)
(-0.0455069 0.152107 0.0750669)
(-0.108595 0.158171 0.00047712)
(-0.127544 0.031463 -0.0722462)
(-0.0405995 0.0833379 -0.0501178)
(0.0227317 -0.0862373 -0.046424)
(-0.109537 -0.00572044 0.044752)
(-0.0314096 -0.178223 0.0634209)
(0.0383847 -0.149531 0.0112557)
(-0.104585 -0.139871 -0.0767306)
(-0.00318079 -0.101614 0.0786334)
(-0.0206768 0.0747508 0.0881109)
(-0.0610038 0.119603 0.00594933)
(0.0827436 -0.000995471 -0.0224676)
(-0.0507657 -0.0237227 -0.0591777)
(-0.0352699 0.14314 0.0128667)
(0.0101756 0.136053 0.0489324)
(0.0603992 0.0161937 -0.0532965)
(-0.101182 0.0309472 0.0408321)
(0.0224472 0.144483 -0.0591164)
(-0.0870636 0.144582 -0.0467164)
(-0.088379 0.0656963 -0.070585)
(0.0410052 0.0357711 0.065573)
(0.0340011 -0.0369439 -0.0263591)
(-0.0785226 -0.0301539 0.077807)
(-0.0114888 -0.00101824 0.0898704)
(-0.0331564 -0.0319171 -0.0890238)
(0.0527258 -0.164535 0.0158541)
(-0.12643 -0.147626 0.0226038)
(0.0428641 -0.240713 -0.0210883)
(-0.0123075 -0.294176 -0.0338405)
(0.0376651 -0.0591885 0.00429423)
(-0.0617686 0.0674648 -0.0750695)
(0.069205 -0.00184562 0.052832)
(-0.053875 0.0979681 -0.0691305)
(-0.00938054 0.0164567 -0.0944764)
(0.0676302 0.0207053 0.060026)
(0.0581102 -0.0147601 -0.0243413)
(0.0218609 0.0120903 0.0802653)
(0.0455124 0.155895 0.030501)
(-0.0427742 0.0229706 0.0663228)
(-0.0639281 0.156773 -0.0213801)
(0.0252196 -0.00485482 0.0589494)
(0.0978233 0.0907165 0.014906)
(-0.043448 0.0301378 -0.0773949)
(-0.0459993 -0.0287256 -0.0824286)
(-0.0254511 -0.00649365 -0.0681591)
(-0.0318723 -0.0818519 -0.0939453)
(0.0793485 -0.111682 -0.0452482)
(-0.0729919 -0.120128 -0.0611532)
(0.0395111 -0.236986 0.0810751)
(0.0774945 0.0124984 -0.0595877)
(0.0453788 -0.0477555 0.00359207)
(-0.0614215 -0.0353254 0.008103)
(-0.00412337 0.129295 -0.0555153)
(0.0294393 0.0836791 -0.088843)
(-0.0684213 0.0863232 -0.064583)
(-0.0384175 0.116927 0.0694494)
(-0.065652 0.00667301 0.0445608)
(-0.03085 0.0756108 0.0917521)
(-0.0541402 0.0915391 -0.0703025)
(0.0175793 0.025495 0.0840433)
(0.119679 0.0258109 0.0298106)
(0.0915164 0.107047 -0.0549779)
(0.0203849 0.0630272 0.077889)
(0.033605 -0.0989682 -0.076343)
(0.0851235 -0.0358972 0.07497)
(0.0401152 -0.00382467 0.0456919)
(0.0134706 -0.0170045 0.0170807)
(0.0754458 -0.195611 -0.0496963)
(0.0107955 -0.296257 -0.0813293)
(-0.0765102 -0.0241447 0.0275923)
(0.0709593 0.0753844 0.0622268)
(0.00450531 0.133883 -0.0429611)
(-0.0643203 -0.0274297 -0.0175027)
(0.0715818 0.0858273 -0.0621327)
(0.0155985 0.14558 0.0300375)
(0.0939571 0.0439199 -0.0498543)
(-0.0463412 -0.0221044 0.0107543)
(-0.0150654 0.01702 -0.0823729)
(-0.00681398 0.0565401 -0.0936338)
(0.102766 0.0399948 0.0706773)
(0.0722562 -0.0367499 0.0214179)
(0.101225 0.0616057 0.085855)
(0.0290584 0.0899862 0.0471559)
(0.121124 -0.0947295 -0.0224779)
(0.0863549 0.00401368 0.0673623)
(0.0539163 -0.0677023 0.0958524)
(-0.0699144 -0.0496589 0.0161895)
(0.0859031 -0.108866 -0.0172915)
(0.033676 -0.333538 -0.0343705)
(-0.0498599 0.0883683 -0.0663022)
(-0.0462043 0.070732 -0.082723)
(0.0751367 0.110663 -0.00780053)
(0.0715976 0.115174 -0.0185856)
(-0.00871236 -0.0225986 -0.0715098)
(-0.0677324 0.0511804 -0.0641425)
(0.0792037 0.0527353 0.0747606)
(-0.0729287 0.0612116 0.0409564)
(0.100307 0.109099 0.0370226)
(0.12512 0.087772 0.0244564)
(0.0762605 0.149525 0.0109224)
(0.0646947 0.0580553 0.0989025)
(-0.0247879 0.0779008 0.0177907)
(0.1391 0.0052487 0.0655163)
(0.0668284 0.0770891 -0.0320773)
(0.117287 -0.0899695 0.0526232)
(0.045419 0.0234076 -0.0481611)
(0.0947853 -0.0416176 0.0446345)
(0.0723691 -0.173112 0.06673)
(-0.0764092 -0.239056 -0.0745416)
(0.0674635 -0.0412946 -0.0111575)
(-0.051131 -0.0111004 0.0686104)
(0.0845153 0.0699015 0.0497892)
(-0.032046 0.109512 0.0637236)
(0.0738015 0.108542 -0.0362495)
(0.0546623 -0.0175108 0.0662407)
(-0.0193926 -0.0342323 -0.049069)
(-0.00583282 0.0759813 0.0914402)
(-0.00921655 0.100344 0.0760271)
(0.0103886 0.132386 0.0461292)
(0.105788 -0.00984698 0.0583342)
(0.00340589 -0.00373696 -0.0742719)
(0.12627 0.0725232 -0.0608991)
(0.100241 0.0727625 -0.0682897)
(-0.0229812 0.0468768 -0.00713378)
(0.125602 -0.0504947 0.0616343)
(0.0641735 -0.0672244 -0.0944004)
(-0.0653557 -0.0892204 -0.0476723)
(-0.0669783 -0.0745805 0.0414724)
(-0.00394175 -0.356952 -0.00847581)
(0.0312965 0.121081 0.0328597)
(0.042947 0.109851 -0.055741)
(-0.0182354 0.00821659 0.0928273)
(-0.0525847 0.0889823 0.0646909)
(0.102708 0.065897 0.0207332)
(-0.0750835 0.0602486 0.0420591)
(0.00739784 -0.0595172 0.00587075)
(0.0893541 0.0604352 -0.07357)
(0.0137257 -0.055956 -0.0201272)
(0.111202 -0.0025487 -0.0553473)
(-0.00447098 -0.042596 0.0314698)
(-0.0102363 -0.0399394 0.0253558)
(0.00687367 0.0331636 0.0840728)
(0.0773396 0.0920557 0.0564531)
(0.0183544 0.0880321 0.00572339)
(0.08284 0.00855051 -0.0905495)
(0.0303 0.0350048 -0.0703378)
(0.0694131 -0.0756874 -0.0877276)
(-0.00132504 -0.0886799 0.096649)
(0.0234406 -0.279014 -0.0916641)
(0.0574655 -0.0139389 -0.0687419)
(0.0876284 0.0722363 -0.0241639)
(-0.051672 -0.0494048 -0.0110481)
(-0.0682171 0.0291667 -0.069118)
(-0.0402416 -0.048959 -0.027076)
(-0.0335557 0.0031473 0.0827316)
(0.043339 0.129158 0.0176644)
(0.08179 -0.00833461 -0.0718684)
(0.111095 0.0787525 0.0436451)
(0.118436 0.0063226 0.057903)
(0.092901 -0.0437163 0.0510965)
(0.0971019 -0.052202 -0.0461214)
(0.0447353 0.118695 -0.00310715)
(-0.01349 0.0774705 0.000373853)
(-0.0135565 0.068401 0.0145446)
(0.110097 0.0325836 0.0701443)
(0.0316609 -0.112312 -0.0450248)
(0.0158943 -0.0883104 0.0898661)
(-0.0238538 -0.034964 -0.0674632)
(-0.0291544 -0.360552 0.0218948)
(0.01834 0.13535 -0.0362429)
(0.0794293 0.0225566 0.0497981)
(0.0452902 -0.0270896 -0.057826)
(0.0624254 -0.0446502 -0.0102219)
(0.0933645 0.0653335 -0.0408544)
(-0.0290844 -0.0308468 -0.0665135)
(-0.0120139 0.0697829 0.0847338)
(0.109297 -0.0276133 0.0223397)
(-0.0153045 0.107638 0.0264579)
(0.094358 0.061684 -0.0789346)
(0.122303 -0.00677478 -0.0650797)
(0.107967 0.0963604 -0.0443317)
(0.118985 -0.0659158 0.0127719)
(-0.00321456 -0.0500293 -0.0337328)
(0.0453694 -0.0138916 0.0956621)
(-0.00446447 -0.0596027 -0.046893)
(-0.0326695 -0.0586886 -0.0304008)
(0.0616195 0.0174148 -0.0828654)
(0.0793665 -0.153293 0.0279268)
(-0.0696238 -0.326844 -0.0291251)
(-0.0490292 -0.0505657 0.0609739)
(-0.0318731 -0.0394147 0.0842212)
(0.0328176 -0.025801 -0.0869614)
(0.0824908 0.0240302 -0.067932)
(0.0355771 -0.0387127 -0.0828431)
(0.0447055 -0.0300238 -0.08821)
(-0.0496327 -0.0275333 -0.00636465)
(0.0516511 0.0471982 -0.0944625)
(0.0337273 0.0880394 -0.0618363)
(0.135064 0.085677 0.0252689)
(0.0553692 -0.0528625 0.0710624)
(0.0934736 0.080237 0.073151)
(0.0819394 0.0544149 0.0890921)
(0.120036 -0.00895285 0.0964014)
(0.187533 -0.0263465 -0.0423493)
(0.170381 -0.0423658 0.0611307)
(0.0635698 0.0685444 0.0615907)
(0.174967 -0.0750017 0.0476604)
(-0.0585157 -0.0353054 0.0468934)
(0.102037 -0.165454 -0.0738433)
(0.0820678 0.144964 0.0746004)
(-0.00202347 0.0124255 -0.0514017)
(0.02169 0.022476 -0.0725404)
(0.173626 0.00176073 -0.0712521)
(0.111296 -0.0417814 0.0759319)
(0.216845 0.0816127 0.00630887)
(0.103104 -0.0501885 -0.0572481)
(0.142378 0.0740067 -0.0745208)
(0.0984964 0.0356074 0.0545303)
(0.101809 -0.0285194 0.0298635)
(0.169384 -0.0721579 -0.0513068)
(0.247684 0.0837103 0.0519923)
(0.183635 -0.0554086 -0.0704514)
(0.170861 -0.0192422 0.0794284)
(0.271582 0.00855708 -0.0916547)
(0.263876 0.0798525 -0.0587342)
(0.180588 0.0522887 -0.0706607)
(0.348375 0.0207334 -0.000365736)
(0.19089 -0.0276453 0.0680984)
(0.315101 -0.175191 -0.0096982)
)
;

boundaryField
{
    movingWall
    {
        type            fixedValue;
        value           uniform (1 0 0);
    }
    fixedWalls
    {
        type            noSlip;
    }
    frontAndBack
    {
        type            empty;
    }
}


// ************************************************************************* //
