/*--------------------------------*- C++ -*----------------------------------*\
| =========                 |                                                 |
| \\      /  F ield         | OpenFOAM: The Open Source CFD Toolbox           |
|  \\    /   O peration     | Version:  2312                                  |
|   \\  /    A nd           | Website:  www.openfoam.com                      |
|    \\/     M anipulation  |                                                 |
\*---------------------------------------------------------------------------*/
FoamFile
{
    version     2.0;
    format      ascii;
    arch        "LSB;label=32;scalar=64";
    class       volScalarField;
    location    "1.625";
    object      Ux;
}
// * * * * * * * * * * * * * * * * * * * * * * * * * * * * * * * * * * * * * //

dimensions      [0 1 -1 0 0 0 0];

internalField   nonuniform List<scalar> 
400
(
-0.000333224
-0.00222316
-0.00562426
-0.00956568
-0.013795
-0.0182193
-0.0228088
-0.0274498
-0.0318874
-0.0356661
-0.0380503
-0.0386943
-0.0369562
-0.0326727
-0.0262757
-0.0186152
-0.0109445
-0.00449227
-0.000433722
0.000553577
-0.00117951
-0.00454926
-0.00904372
-0.0141017
-0.0195169
-0.0251697
-0.030913
-0.0364588
-0.041384
-0.0452164
-0.0475389
-0.04801
-0.0462
-0.0417537
-0.0347749
-0.0258439
-0.0163478
-0.00811932
-0.00244495
-7.25854e-05
-0.00193605
-0.006093
-0.0108634
-0.0161385
-0.0218049
-0.0277501
-0.0338189
-0.0397113
-0.0450497
-0.0495443
-0.0530382
-0.0553357
-0.0557865
-0.0532407
-0.0468268
-0.0364271
-0.0233416
-0.0108215
-0.00253226
7.69832e-05
-0.00230445
-0.00687234
-0.0117553
-0.0170383
-0.0227134
-0.0287398
-0.0350252
-0.0413653
-0.0476
-0.0538805
-0.0606132
-0.0678886
-0.0746349
-0.0779461
-0.0746702
-0.0634165
-0.0449194
-0.022591
-0.00371879
0.00104694
-0.00238017
-0.00704992
-0.0119005
-0.0170853
-0.0226805
-0.02872
-0.0352422
-0.0422702
-0.0501195
-0.0598874
-0.0730243
-0.0893102
-0.104923
-0.114612
-0.114692
-0.10417
-0.0831166
-0.0525426
-0.0171497
0.00162465
-0.00226643
-0.006777
-0.0114336
-0.0163839
-0.0217615
-0.0276872
-0.0343837
-0.0422034
-0.0521086
-0.0660701
-0.0855954
-0.107865
-0.125752
-0.134795
-0.136552
-0.131064
-0.115203
-0.0862916
-0.0450409
-0.00256722
-0.00201997
-0.00615713
-0.0104388
-0.0149703
-0.0199128
-0.0254514
-0.0319524
-0.0399488
-0.0506604
-0.0662873
-0.0866681
-0.106778
-0.1206
-0.126783
-0.127084
-0.124943
-0.119509
-0.103013
-0.0680467
-0.0190643
-0.00167314
-0.00525435
-0.00897738
-0.0128816
-0.0171197
-0.0218866
-0.0275753
-0.0346529
-0.0441448
-0.0575094
-0.07359
-0.0874115
-0.0941539
-0.0939325
-0.0915328
-0.0902427
-0.092247
-0.0914706
-0.0738854
-0.0325282
-0.00125469
-0.00413228
-0.00713362
-0.0102183
-0.0134914
-0.0170934
-0.0213208
-0.0263803
-0.0326578
-0.040799
-0.0499521
-0.0571475
-0.0588978
-0.0563917
-0.0532336
-0.051373
-0.0535816
-0.0607921
-0.0604182
-0.0337591
-0.000800243
-0.00287636
-0.00504146
-0.00717354
-0.00930147
-0.0114693
-0.013784
-0.0161821
-0.0183487
-0.0202908
-0.0217921
-0.0233153
-0.02311
-0.0219117
-0.0210605
-0.0212139
-0.0229914
-0.0301315
-0.0386495
-0.0269743
-0.000350343
-0.00158964
-0.00286891
-0.00399213
-0.00490539
-0.0055518
-0.00585801
-0.0055732
-0.00390103
-0.000461098
0.00479004
0.00905515
0.0118306
0.0117617
0.00916064
0.00422163
-0.00141343
-0.00892045
-0.019767
-0.0184352
5.26396e-05
-0.00039562
-0.000810629
-0.000948141
-0.000686932
9.03176e-05
0.00157267
0.00409831
0.00852014
0.0155859
0.0251997
0.0341598
0.0400617
0.0409135
0.0359974
0.0259003
0.0153817
0.00467887
-0.00705908
-0.0134066
0.00035049
0.000568177
0.000933159
0.00169105
0.00300305
0.0050049
0.00789113
0.0119867
0.0179316
0.0265445
0.0375991
0.0486269
0.0563719
0.0580859
0.0525239
0.0405117
0.0271045
0.0134216
0.000209033
-0.0117154
0.000477207
0.00117596
0.00217782
0.00370398
0.00591096
0.00891037
0.0128389
0.0179127
0.0244963
0.0331306
0.0436928
0.0543272
0.0618091
0.0636118
0.0585169
0.0473605
0.033483
0.0182733
0.00387437
-0.0118516
0.000337513
0.00124058
0.00271024
0.00487918
0.00784484
0.0116583
0.0163713
0.0220695
0.0288867
0.0369778
0.0461708
0.0551971
0.0615988
0.0632757
0.0591419
0.0496347
0.0365671
0.0210115
0.00656132
-0.012311
-0.00016317
0.000595428
0.00236205
0.00504198
0.00866047
0.0131665
0.0185289
0.0247189
0.0316928
0.0393338
0.047302
0.0547384
0.0600653
0.061653
0.058462
0.0506998
0.0386449
0.0244803
0.0116864
-0.0116017
-0.00128767
-0.00180155
0.000425243
0.00383468
0.00823863
0.0134977
0.0195399
0.0262664
0.0335314
0.0410996
0.0485396
0.0551713
0.0600084
0.0618631
0.0594739
0.0531592
0.0415329
0.0328854
0.0193795
-0.00807541
-0.00352506
-0.00429846
-0.000949771
0.00332246
0.0083723
0.0143935
0.0212933
0.028838
0.0367963
0.0448911
0.0526987
0.0596294
0.064823
0.0673796
0.0664079
0.0623246
0.0507456
0.0526193
0.022951
0.00497243
-0.00631067
-0.00954979
-0.000394753
0.00977531
0.0201583
0.0306159
0.040834
0.050827
0.0606346
0.0702164
0.0793612
0.0877258
0.0948069
0.100266
0.102995
0.104753
0.0949601
0.105496
0.0295756
0.070997
0.0405919
0.0616317
0.0870898
0.109076
0.126239
0.14077
0.154094
0.166608
0.1784
0.189548
0.200057
0.209831
0.218624
0.226328
0.231778
0.237281
0.230375
0.251265
0.124652
0.377963
)
;

boundaryField
{
    movingWall
    {
        type            calculated;
        value           uniform 1;
    }
    fixedWalls
    {
        type            calculated;
        value           uniform 0;
    }
    frontAndBack
    {
        type            empty;
    }
}


// ************************************************************************* //
