/*--------------------------------*- C++ -*----------------------------------*\
| =========                 |                                                 |
| \\      /  F ield         | OpenFOAM: The Open Source CFD Toolbox           |
|  \\    /   O peration     | Version:  2312                                  |
|   \\  /    A nd           | Website:  www.openfoam.com                      |
|    \\/     M anipulation  |                                                 |
\*---------------------------------------------------------------------------*/
FoamFile
{
    version     2.0;
    format      ascii;
    arch        "LSB;label=32;scalar=64";
    class       volScalarField;
    location    "1.625";
    object      Uy;
}
// * * * * * * * * * * * * * * * * * * * * * * * * * * * * * * * * * * * * * //

dimensions      [0 1 -1 0 0 0 0];

internalField   nonuniform List<scalar> 
400
(
0.000322347
0.00110958
0.00163783
0.00185616
0.00195599
0.00204785
0.00215597
0.00222927
0.0021463
0.00178333
0.00110358
5.97831e-05
-0.0013937
-0.00279154
-0.00388329
-0.0042777
-0.00383225
-0.00260422
-0.000943842
0.000378374
0.00227503
0.00463287
0.00600584
0.0066735
0.00704683
0.00730626
0.00740483
0.00714415
0.00626086
0.00459494
0.00216754
-0.000935088
-0.00456375
-0.00820756
-0.0110696
-0.0122412
-0.011246
-0.00825874
-0.00407128
-0.000241054
0.0057926
0.00907664
0.0109508
0.0120583
0.0127688
0.0132107
0.0132345
0.0125084
0.0107378
0.00785909
0.00394786
-0.000973851
-0.00686425
-0.013326
-0.0188392
-0.0218621
-0.020896
-0.0156453
-0.00843887
-0.001725
0.00997123
0.0138511
0.0160095
0.0174713
0.0185284
0.0192116
0.0192674
0.01829
0.0160536
0.012645
0.00811538
0.00211385
-0.00578215
-0.0155159
-0.0260212
-0.0341914
-0.0358835
-0.0288105
-0.0148537
-0.0023766
0.0144447
0.0188078
0.0211364
0.0229022
0.0243454
0.0253986
0.0257416
0.025013
0.0232592
0.0210456
0.0185108
0.0140054
0.00407335
-0.0126484
-0.0332063
-0.0515311
-0.0612226
-0.0553447
-0.0316982
-0.0047163
0.0188787
0.0236858
0.0261492
0.0282113
0.030101
0.0317126
0.0327866
0.0332473
0.0337944
0.0354986
0.037127
0.0329166
0.0175178
-0.00832284
-0.0388968
-0.0687422
-0.0905176
-0.0945187
-0.0689944
-0.0160238
0.02302
0.0282722
0.030865
0.0332104
0.0355911
0.0379472
0.040218
0.0427992
0.0470104
0.05353
0.0580059
0.0516574
0.0300886
-0.00303761
-0.040223
-0.0765129
-0.109414
-0.130277
-0.117477
-0.0467501
0.0266625
0.0323729
0.0350875
0.0376777
0.0405291
0.043684
0.0473204
0.0522378
0.0601034
0.0703498
0.0753155
0.0652872
0.0377086
0.000174753
-0.0385555
-0.0745794
-0.110615
-0.147149
-0.162842
-0.0998004
0.0296413
0.035812
0.0386199
0.0413707
0.0445746
0.0483837
0.0531549
0.0598312
0.0700109
0.0820441
0.0861886
0.0724216
0.0397212
-0.00174336
-0.0406951
-0.0736488
-0.104155
-0.143425
-0.186366
-0.155296
0.0318394
0.0384501
0.041301
0.0440839
0.0474316
0.0515718
0.0568919
0.0642297
0.0749062
0.0866248
0.0898611
0.0753065
0.0407962
-0.00292758
-0.0438166
-0.0758733
-0.101167
-0.132944
-0.186761
-0.201226
0.033204
0.0402055
0.0430335
0.0456931
0.0489248
0.0529741
0.0581479
0.0650512
0.0744825
0.084703
0.0873417
0.0742886
0.0418997
-0.000876919
-0.0414889
-0.0733806
-0.0975535
-0.124378
-0.178672
-0.228676
0.0337601
0.0410803
0.0437989
0.0461809
0.0490477
0.0526305
0.0571143
0.062791
0.069994
0.0775451
0.079148
0.0682119
0.0412454
0.00376613
-0.0344234
-0.0654289
-0.0892677
-0.115142
-0.168718
-0.243344
0.033571
0.0411366
0.0436524
0.0456193
0.0479262
0.0507883
0.0542735
0.0584077
0.0631276
0.0674909
0.0675253
0.0580284
0.0367639
0.00671718
-0.0255281
-0.053958
-0.0773689
-0.102508
-0.15742
-0.251329
0.032959
0.0405324
0.0427209
0.0441458
0.0457571
0.0477713
0.0501726
0.0528198
0.0554137
0.0571143
0.0556101
0.0475283
0.0311628
0.00827417
-0.0172612
-0.0415845
-0.0634143
-0.0880251
-0.143862
-0.255666
0.0319831
0.0393953
0.0411096
0.0418668
0.0426957
0.043831
0.0452232
0.0466531
0.0477324
0.0477394
0.0453153
0.0387054
0.0266003
0.00975373
-0.0097351
-0.0297545
-0.0491564
-0.0728481
-0.128171
-0.257664
0.0320278
0.0384412
0.0391817
0.0390397
0.0389663
0.0392019
0.0396878
0.040193
0.0403356
0.039542
0.0369603
0.0317221
0.0230433
0.0110188
-0.00339342
-0.0191588
-0.0355853
-0.0588081
-0.110809
-0.259785
0.0287532
0.0345747
0.0352345
0.0347558
0.0342069
0.0338306
0.0336515
0.0335229
0.0331565
0.032135
0.0299126
0.0259941
0.0199174
0.0117304
0.00165501
-0.0102868
-0.023569
-0.0478705
-0.0947937
-0.265282
0.04475
0.0451355
0.0401266
0.0353646
0.0320583
0.0298627
0.028421
0.0274074
0.0264871
0.0253199
0.0235536
0.0208741
0.0171705
0.0122488
0.00626143
-0.00180776
-0.0126699
-0.037833
-0.0755927
-0.266951
0.0161974
0.00966123
0.0107319
0.0141455
0.0151323
0.014926
0.0146006
0.0143933
0.0141999
0.0138696
0.0132777
0.0122966
0.0108602
0.00882172
0.0062088
0.00186128
-0.00371367
-0.0211295
-0.0417029
-0.225318
0.0928631
0.0699224
0.0439413
0.0292639
0.0215515
0.0170159
0.0140197
0.0118816
0.0102726
0.00903037
0.00800926
0.00713384
0.00633591
0.00554699
0.0046732
0.00341304
0.00200648
-0.00313215
0.00358145
-0.0980271
)
;

boundaryField
{
    movingWall
    {
        type            calculated;
        value           uniform 0;
    }
    fixedWalls
    {
        type            calculated;
        value           uniform 0;
    }
    frontAndBack
    {
        type            empty;
    }
}


// ************************************************************************* //
