/*--------------------------------*- C++ -*----------------------------------*\
| =========                 |                                                 |
| \\      /  F ield         | OpenFOAM: The Open Source CFD Toolbox           |
|  \\    /   O peration     | Version:  2312                                  |
|   \\  /    A nd           | Website:  www.openfoam.com                      |
|    \\/     M anipulation  |                                                 |
\*---------------------------------------------------------------------------*/
FoamFile
{
    version     2.0;
    format      ascii;
    arch        "LSB;label=32;scalar=64";
    class       volVectorField;
    location    "1.625";
    object      vorticityField;
}
// * * * * * * * * * * * * * * * * * * * * * * * * * * * * * * * * * * * * * //

dimensions      [0 0 -1 0 0 0 0];

internalField   nonuniform List<vector> 
400
(
(0 -0 0.294466)
(0 -0 0.808791)
(0 -0 1.54146)
(0 -0 2.39855)
(0 -0 3.35036)
(0 -0 4.3589)
(0 -0 5.39032)
(0 -0 6.38988)
(0 -0 7.28255)
(0 -0 7.98398)
(0 -0 8.38656)
(0 -0 8.4207)
(0 -0 8.03048)
(0 -0 7.19368)
(0 -0 5.95644)
(0 -0 4.45101)
(0 -0 2.89658)
(0 -0 1.55)
(0 -0 0.586126)
(0 -0 0.00844759)
(0 -0 0.851072)
(0 -0 0.760066)
(0 -0 0.727975)
(0 -0 0.761381)
(0 -0 0.864258)
(0 -0 0.988873)
(0 -0 1.0848)
(0 -0 1.11175)
(0 -0 1.0613)
(0 -0 0.978491)
(0 -0 0.94578)
(0 -0 0.991011)
(0 -0 1.15578)
(0 -0 1.40622)
(0 -0 1.65174)
(0 -0 1.76355)
(0 -0 1.63797)
(0 -0 1.35039)
(0 -0 1.01162)
(0 -0 0.478893)
(0 -0 1.59942)
(0 -0 0.748127)
(0 -0 0.569322)
(0 -0 0.475463)
(0 -0 0.434889)
(0 -0 0.403578)
(0 -0 0.340985)
(0 -0 0.240993)
(0 -0 0.15667)
(0 -0 0.187414)
(0 -0 0.424139)
(0 -0 0.906654)
(0 -0 1.60828)
(0 -0 2.42174)
(0 -0 3.13591)
(0 -0 3.55157)
(0 -0 3.47885)
(0 -0 2.69288)
(0 -0 1.51941)
(0 -0 0.904435)
(0 -0 2.42665)
(0 -0 0.699515)
(0 -0 0.465735)
(0 -0 0.346565)
(0 -0 0.261596)
(0 -0 0.170897)
(0 -0 0.0501656)
(0 -0 -0.065488)
(0 -0 -0.0575114)
(0 -0 0.240485)
(0 -0 0.945491)
(0 -0 2.0077)
(0 -0 3.15067)
(0 -0 4.11318)
(0 -0 4.91899)
(0 -0 5.78804)
(0 -0 6.51558)
(0 -0 6.2751)
(0 -0 4.10514)
(0 -0 1.56826)
(0 -0 3.32145)
(0 -0 0.659633)
(0 -0 0.377273)
(0 -0 0.255452)
(0 -0 0.154444)
(0 -0 0.0343541)
(0 -0 -0.102701)
(0 -0 -0.164427)
(0 -0 0.0541249)
(0 -0 0.744114)
(0 -0 1.7942)
(0 -0 2.55393)
(0 -0 2.44635)
(0 -0 1.95692)
(0 -0 2.2999)
(0 -0 3.96312)
(0 -0 6.647)
(0 -0 9.3225)
(0 -0 9.19505)
(0 -0 4.00287)
(0 -0 4.22044)
(0 -0 0.637771)
(0 -0 0.306373)
(0 -0 0.183679)
(0 -0 0.0733607)
(0 -0 -0.058303)
(0 -0 -0.175506)
(0 -0 -0.131361)
(0 -0 0.279223)
(0 -0 0.973261)
(0 -0 1.10617)
(0 -0 -0.214183)
(0 -0 -2.55623)
(0 -0 -4.42429)
(0 -0 -4.80273)
(0 -0 -3.08477)
(0 -0 1.06158)
(0 -0 7.19932)
(0 -0 12.9392)
(0 -0 10.5707)
(0 -0 5.06989)
(0 -0 0.632232)
(0 -0 0.248207)
(0 -0 0.12238)
(0 -0 0.00950024)
(0 -0 -0.11737)
(0 -0 -0.195647)
(0 -0 -0.0758042)
(0 -0 0.276693)
(0 -0 0.243478)
(0 -0 -1.38779)
(0 -0 -4.83712)
(0 -0 -8.62932)
(0 -0 -11.1174)
(0 -0 -11.8494)
(0 -0 -11.0012)
(0 -0 -7.67202)
(0 -0 -0.288424)
(0 -0 11.2371)
(0 -0 19.4188)
(0 -0 5.82702)
(0 -0 0.640012)
(0 -0 0.199956)
(0 -0 0.0689646)
(0 -0 -0.041505)
(0 -0 -0.156671)
(0 -0 -0.207788)
(0 -0 -0.0785543)
(0 -0 0.0109531)
(0 -0 -1.02762)
(0 -0 -4.17786)
(0 -0 -8.7237)
(0 -0 -12.6815)
(0 -0 -14.6656)
(0 -0 -14.8605)
(0 -0 -14.5629)
(0 -0 -13.8497)
(0 -0 -9.44474)
(0 -0 3.97204)
(0 -0 27.7337)
(0 -0 6.45804)
(0 -0 0.660065)
(0 -0 0.162282)
(0 -0 0.0246611)
(0 -0 -0.080533)
(0 -0 -0.183696)
(0 -0 -0.234369)
(0 -0 -0.16149)
(0 -0 -0.35832)
(0 -0 -2.10408)
(0 -0 -6.14204)
(0 -0 -11.0564)
(0 -0 -14.5209)
(0 -0 -15.2437)
(0 -0 -14.2378)
(0 -0 -13.2488)
(0 -0 -13.9032)
(0 -0 -14.355)
(0 -0 -4.7107)
(0 -0 33.6108)
(0 -0 6.93852)
(0 -0 0.691891)
(0 -0 0.136901)
(0 -0 -0.0095529)
(0 -0 -0.109813)
(0 -0 -0.208128)
(0 -0 -0.280483)
(0 -0 -0.279275)
(0 -0 -0.63617)
(0 -0 -2.53831)
(0 -0 -6.60605)
(0 -0 -11.5268)
(0 -0 -14.8963)
(0 -0 -15.2766)
(0 -0 -13.534)
(0 -0 -11.2945)
(0 -0 -10.9238)
(0 -0 -13.7466)
(0 -0 -10.8934)
(0 -0 37.2664)
(0 -0 7.25567)
(0 -0 0.734869)
(0 -0 0.125676)
(0 -0 -0.0334046)
(0 -0 -0.133357)
(0 -0 -0.233651)
(0 -0 -0.327958)
(0 -0 -0.394581)
(0 -0 -0.721699)
(0 -0 -2.30175)
(0 -0 -5.74062)
(0 -0 -10.2917)
(0 -0 -13.8337)
(0 -0 -14.6214)
(0 -0 -12.9562)
(0 -0 -10.3179)
(0 -0 -8.93702)
(0 -0 -11.5929)
(0 -0 -13.5889)
(0 -0 39.378)
(0 -0 7.41395)
(0 -0 0.788102)
(0 -0 0.129858)
(0 -0 -0.0434394)
(0 -0 -0.145885)
(0 -0 -0.249015)
(0 -0 -0.358868)
(0 -0 -0.468017)
(0 -0 -0.707848)
(0 -0 -1.78516)
(0 -0 -4.21422)
(0 -0 -7.74744)
(0 -0 -10.8987)
(0 -0 -12.1993)
(0 -0 -11.2558)
(0 -0 -9.11343)
(0 -0 -7.82311)
(0 -0 -10.1792)
(0 -0 -14.8178)
(0 -0 40.5342)
(0 -0 7.4283)
(0 -0 0.850984)
(0 -0 0.149431)
(0 -0 -0.0378295)
(0 -0 -0.142887)
(0 -0 -0.247275)
(0 -0 -0.364684)
(0 -0 -0.496023)
(0 -0 -0.689298)
(0 -0 -1.31471)
(0 -0 -2.79556)
(0 -0 -5.09288)
(0 -0 -7.30586)
(0 -0 -8.49903)
(0 -0 -8.31947)
(0 -0 -7.3301)
(0 -0 -6.66512)
(0 -0 -9.36459)
(0 -0 -15.9755)
(0 -0 40.7195)
(0 -0 7.35044)
(0 -0 0.908945)
(0 -0 0.183624)
(0 -0 -0.0151892)
(0 -0 -0.12163)
(0 -0 -0.223791)
(0 -0 -0.34316)
(0 -0 -0.484166)
(0 -0 -0.666068)
(0 -0 -1.02368)
(0 -0 -1.81577)
(0 -0 -3.10176)
(0 -0 -4.4481)
(0 -0 -5.36137)
(0 -0 -5.64766)
(0 -0 -5.52761)
(0 -0 -5.59032)
(0 -0 -8.80378)
(0 -0 -17.3993)
(0 -0 40.0123)
(0 -0 7.20188)
(0 -0 0.97071)
(0 -0 0.228718)
(0 -0 0.024809)
(0 -0 -0.0785266)
(0 -0 -0.172867)
(0 -0 -0.286788)
(0 -0 -0.429706)
(0 -0 -0.611014)
(0 -0 -0.862033)
(0 -0 -1.26433)
(0 -0 -1.91262)
(0 -0 -2.72078)
(0 -0 -3.43767)
(0 -0 -3.94533)
(0 -0 -4.27606)
(0 -0 -4.82554)
(0 -0 -8.52219)
(0 -0 -19.2628)
(0 -0 38.5585)
(0 -0 7.20942)
(0 -0 1.01961)
(0 -0 0.288347)
(0 -0 0.08291)
(0 -0 -0.0231628)
(0 -0 -0.111795)
(0 -0 -0.217753)
(0 -0 -0.3549)
(0 -0 -0.529576)
(0 -0 -0.749713)
(0 -0 -1.01887)
(0 -0 -1.38911)
(0 -0 -1.91129)
(0 -0 -2.50242)
(0 -0 -3.05096)
(0 -0 -3.57163)
(0 -0 -4.4615)
(0 -0 -8.70972)
(0 -0 -21.3795)
(0 -0 36.6358)
(0 -0 6.66898)
(0 -0 1.13752)
(0 -0 0.349296)
(0 -0 0.0691832)
(0 -0 -0.0637086)
(0 -0 -0.178227)
(0 -0 -0.307206)
(0 -0 -0.461413)
(0 -0 -0.649145)
(0 -0 -0.880118)
(0 -0 -1.15375)
(0 -0 -1.48862)
(0 -0 -1.90214)
(0 -0 -2.3989)
(0 -0 -2.99631)
(0 -0 -3.68488)
(0 -0 -4.96844)
(0 -0 -9.93637)
(0 -0 -22.8677)
(0 -0 34.3502)
(0 -0 9.49084)
(0 -0 0.312488)
(0 -0 -0.895094)
(0 -0 -1.40089)
(0 -0 -1.74216)
(0 -0 -2.07555)
(0 -0 -2.37493)
(0 -0 -2.64945)
(0 -0 -2.91907)
(0 -0 -3.20502)
(0 -0 -3.52673)
(0 -0 -3.89377)
(0 -0 -4.34238)
(0 -0 -4.93121)
(0 -0 -5.75772)
(0 -0 -7.05255)
(0 -0 -8.94525)
(0 -0 -13.5533)
(0 -0 -23.9314)
(0 -0 26.3471)
(0 -0 -1.82583)
(0 -0 -7.13957)
(0 -0 -8.35552)
(0 -0 -10.1353)
(0 -0 -11.7086)
(0 -0 -12.6908)
(0 -0 -13.3334)
(0 -0 -13.8171)
(0 -0 -14.2128)
(0 -0 -14.5579)
(0 -0 -14.8931)
(0 -0 -15.2619)
(0 -0 -15.7276)
(0 -0 -16.36)
(0 -0 -17.2331)
(0 -0 -18.4879)
(0 -0 -20.262)
(0 -0 -23.6635)
(0 -0 -30.589)
(0 -0 -10.597)
(0 -0 -180.293)
(0 -0 -199.684)
(0 -0 -195.396)
(0 -0 -190.354)
(0 -0 -186.585)
(0 -0 -183.615)
(0 -0 -181.021)
(0 -0 -178.631)
(0 -0 -176.382)
(0 -0 -174.25)
(0 -0 -172.248)
(0 -0 -170.412)
(0 -0 -168.816)
(0 -0 -167.507)
(0 -0 -166.736)
(0 -0 -166.063)
(0 -0 -168.121)
(0 -0 -164.166)
(0 -0 -194.067)
(0 -0 -145.659)
)
;

boundaryField
{
    movingWall
    {
        type            calculated;
        value           nonuniform List<vector> 
20
(
(0 -0 -367.485)
(0 -0 -380.239)
(0 -0 -369.23)
(0 -0 -358.608)
(0 -0 -350.729)
(0 -0 -344.445)
(0 -0 -338.876)
(0 -0 -333.731)
(0 -0 -328.925)
(0 -0 -324.407)
(0 -0 -320.167)
(0 -0 -316.235)
(0 -0 -312.709)
(0 -0 -309.635)
(0 -0 -307.502)
(0 -0 -305.354)
(0 -0 -308.504)
(0 -0 -299.337)
(0 -0 -359.629)
(0 -0 -239.37)
)
;
    }
    fixedWalls
    {
        type            calculated;
        value           nonuniform List<vector> 
60
(
(0 -0 0.280212)
(0 -0 1.07029)
(0 -0 2.42953)
(0 -0 4.0329)
(0 -0 5.7741)
(0 -0 7.51548)
(0 -0 9.14869)
(0 -0 10.5885)
(0 -0 11.7692)
(0 -0 12.6453)
(0 -0 13.1963)
(0 -0 13.434)
(0 -0 13.3859)
(0 -0 13.1849)
(0 -0 12.8573)
(0 -0 12.9736)
(0 -0 11.8375)
(0 -0 18.4023)
(0 -0 2.06728)
(0 -0 -159.427)
(0 -0 -0.199449)
(0 -0 0.144081)
(0 -0 0.578047)
(0 -0 0.795872)
(0 -0 2.24794)
(0 -0 8.47841)
(0 -0 21.6961)
(0 -0 41.3896)
(0 -0 61.5631)
(0 -0 78.9582)
(0 -0 90.1137)
(0 -0 96.6657)
(0 -0 100.376)
(0 -0 102.326)
(0 -0 103.041)
(0 -0 103.49)
(0 -0 104.456)
(0 -0 98.8732)
(0 -0 52.8282)
(0 -0 -115.893)
(0 -0 0.276482)
(0 -0 1.02081)
(0 -0 2.32436)
(0 -0 3.85809)
(0 -0 5.53718)
(0 -0 7.30773)
(0 -0 9.14165)
(0 -0 10.9789)
(0 -0 12.7104)
(0 -0 14.1622)
(0 -0 15.0478)
(0 -0 15.228)
(0 -0 14.4973)
(0 -0 12.8201)
(0 -0 10.3617)
(0 -0 7.45118)
(0 -0 4.54514)
(0 -0 2.08575)
(0 -0 0.471748)
(0 -0 -0.164884)
)
;
    }
    frontAndBack
    {
        type            empty;
    }
}


// ************************************************************************* //
