/*--------------------------------*- C++ -*----------------------------------*\
| =========                 |                                                 |
| \\      /  F ield         | OpenFOAM: The Open Source CFD Toolbox           |
|  \\    /   O peration     | Version:  2312                                  |
|   \\  /    A nd           | Website:  www.openfoam.com                      |
|    \\/     M anipulation  |                                                 |
\*---------------------------------------------------------------------------*/
FoamFile
{
    version     2.0;
    format      ascii;
    arch        "LSB;label=32;scalar=64";
    class       volVectorField;
    location    "1.625";
    object      zeroGradient(U);
}
// * * * * * * * * * * * * * * * * * * * * * * * * * * * * * * * * * * * * * //

dimensions      [0 1 -1 0 0 0 0];

internalField   nonuniform List<vector> 
400
(
(-0.000333224 0.000322347 0)
(-0.00222316 0.00110958 0)
(-0.00562426 0.00163783 0)
(-0.00956568 0.00185616 0)
(-0.013795 0.00195599 0)
(-0.0182193 0.00204785 0)
(-0.0228088 0.00215597 0)
(-0.0274498 0.00222927 0)
(-0.0318874 0.0021463 0)
(-0.0356661 0.00178333 0)
(-0.0380503 0.00110358 0)
(-0.0386943 5.97831e-05 0)
(-0.0369562 -0.0013937 0)
(-0.0326727 -0.00279154 0)
(-0.0262757 -0.00388329 0)
(-0.0186152 -0.0042777 0)
(-0.0109445 -0.00383225 0)
(-0.00449227 -0.00260422 0)
(-0.000433722 -0.000943842 0)
(0.000553577 0.000378374 0)
(-0.00117951 0.00227503 0)
(-0.00454926 0.00463287 0)
(-0.00904372 0.00600584 0)
(-0.0141017 0.0066735 0)
(-0.0195169 0.00704683 0)
(-0.0251697 0.00730626 0)
(-0.030913 0.00740483 0)
(-0.0364588 0.00714415 0)
(-0.041384 0.00626086 0)
(-0.0452164 0.00459494 0)
(-0.0475389 0.00216754 0)
(-0.04801 -0.000935088 0)
(-0.0462 -0.00456375 0)
(-0.0417537 -0.00820756 0)
(-0.0347749 -0.0110696 0)
(-0.0258439 -0.0122412 0)
(-0.0163478 -0.011246 0)
(-0.00811932 -0.00825874 0)
(-0.00244495 -0.00407128 0)
(-7.25854e-05 -0.000241054 0)
(-0.00193605 0.0057926 0)
(-0.006093 0.00907664 0)
(-0.0108634 0.0109508 0)
(-0.0161385 0.0120583 0)
(-0.0218049 0.0127688 0)
(-0.0277501 0.0132107 0)
(-0.0338189 0.0132345 0)
(-0.0397113 0.0125084 0)
(-0.0450497 0.0107378 0)
(-0.0495443 0.00785909 0)
(-0.0530382 0.00394786 0)
(-0.0553357 -0.000973851 0)
(-0.0557865 -0.00686425 0)
(-0.0532407 -0.013326 0)
(-0.0468268 -0.0188392 0)
(-0.0364271 -0.0218621 0)
(-0.0233416 -0.020896 0)
(-0.0108215 -0.0156453 0)
(-0.00253226 -0.00843887 0)
(7.69832e-05 -0.001725 0)
(-0.00230445 0.00997123 0)
(-0.00687234 0.0138511 0)
(-0.0117553 0.0160095 0)
(-0.0170383 0.0174713 0)
(-0.0227134 0.0185284 0)
(-0.0287398 0.0192116 0)
(-0.0350252 0.0192674 0)
(-0.0413653 0.01829 0)
(-0.0476 0.0160536 0)
(-0.0538805 0.012645 0)
(-0.0606132 0.00811538 0)
(-0.0678886 0.00211385 0)
(-0.0746349 -0.00578215 0)
(-0.0779461 -0.0155159 0)
(-0.0746702 -0.0260212 0)
(-0.0634165 -0.0341914 0)
(-0.0449194 -0.0358835 0)
(-0.022591 -0.0288105 0)
(-0.00371879 -0.0148537 0)
(0.00104694 -0.0023766 0)
(-0.00238017 0.0144447 0)
(-0.00704992 0.0188078 0)
(-0.0119005 0.0211364 0)
(-0.0170853 0.0229022 0)
(-0.0226805 0.0243454 0)
(-0.02872 0.0253986 0)
(-0.0352422 0.0257416 0)
(-0.0422702 0.025013 0)
(-0.0501195 0.0232592 0)
(-0.0598874 0.0210456 0)
(-0.0730243 0.0185108 0)
(-0.0893102 0.0140054 0)
(-0.104923 0.00407335 0)
(-0.114612 -0.0126484 0)
(-0.114692 -0.0332063 0)
(-0.10417 -0.0515311 0)
(-0.0831166 -0.0612226 0)
(-0.0525426 -0.0553447 0)
(-0.0171497 -0.0316982 0)
(0.00162465 -0.0047163 0)
(-0.00226643 0.0188787 0)
(-0.006777 0.0236858 0)
(-0.0114336 0.0261492 0)
(-0.0163839 0.0282113 0)
(-0.0217615 0.030101 0)
(-0.0276872 0.0317126 0)
(-0.0343837 0.0327866 0)
(-0.0422034 0.0332473 0)
(-0.0521086 0.0337944 0)
(-0.0660701 0.0354986 0)
(-0.0855954 0.037127 0)
(-0.107865 0.0329166 0)
(-0.125752 0.0175178 0)
(-0.134795 -0.00832284 0)
(-0.136552 -0.0388968 0)
(-0.131064 -0.0687422 0)
(-0.115203 -0.0905176 0)
(-0.0862916 -0.0945187 0)
(-0.0450409 -0.0689944 0)
(-0.00256722 -0.0160238 0)
(-0.00201997 0.02302 0)
(-0.00615713 0.0282722 0)
(-0.0104388 0.030865 0)
(-0.0149703 0.0332104 0)
(-0.0199128 0.0355911 0)
(-0.0254514 0.0379472 0)
(-0.0319524 0.040218 0)
(-0.0399488 0.0427992 0)
(-0.0506604 0.0470104 0)
(-0.0662873 0.05353 0)
(-0.0866681 0.0580059 0)
(-0.106778 0.0516574 0)
(-0.1206 0.0300886 0)
(-0.126783 -0.00303761 0)
(-0.127084 -0.040223 0)
(-0.124943 -0.0765129 0)
(-0.119509 -0.109414 0)
(-0.103013 -0.130277 0)
(-0.0680467 -0.117477 0)
(-0.0190643 -0.0467501 0)
(-0.00167314 0.0266625 0)
(-0.00525435 0.0323729 0)
(-0.00897738 0.0350875 0)
(-0.0128816 0.0376777 0)
(-0.0171197 0.0405291 0)
(-0.0218866 0.043684 0)
(-0.0275753 0.0473204 0)
(-0.0346529 0.0522378 0)
(-0.0441448 0.0601034 0)
(-0.0575094 0.0703498 0)
(-0.07359 0.0753155 0)
(-0.0874115 0.0652872 0)
(-0.0941539 0.0377086 0)
(-0.0939325 0.000174753 0)
(-0.0915328 -0.0385555 0)
(-0.0902427 -0.0745794 0)
(-0.092247 -0.110615 0)
(-0.0914706 -0.147149 0)
(-0.0738854 -0.162842 0)
(-0.0325282 -0.0998004 0)
(-0.00125469 0.0296413 0)
(-0.00413228 0.035812 0)
(-0.00713362 0.0386199 0)
(-0.0102183 0.0413707 0)
(-0.0134914 0.0445746 0)
(-0.0170934 0.0483837 0)
(-0.0213208 0.0531549 0)
(-0.0263803 0.0598312 0)
(-0.0326578 0.0700109 0)
(-0.040799 0.0820441 0)
(-0.0499521 0.0861886 0)
(-0.0571475 0.0724216 0)
(-0.0588978 0.0397212 0)
(-0.0563917 -0.00174336 0)
(-0.0532336 -0.0406951 0)
(-0.051373 -0.0736488 0)
(-0.0535816 -0.104155 0)
(-0.0607921 -0.143425 0)
(-0.0604182 -0.186366 0)
(-0.0337591 -0.155296 0)
(-0.000800243 0.0318394 0)
(-0.00287636 0.0384501 0)
(-0.00504146 0.041301 0)
(-0.00717354 0.0440839 0)
(-0.00930147 0.0474316 0)
(-0.0114693 0.0515718 0)
(-0.013784 0.0568919 0)
(-0.0161821 0.0642297 0)
(-0.0183487 0.0749062 0)
(-0.0202908 0.0866248 0)
(-0.0217921 0.0898611 0)
(-0.0233153 0.0753065 0)
(-0.02311 0.0407962 0)
(-0.0219117 -0.00292758 0)
(-0.0210605 -0.0438166 0)
(-0.0212139 -0.0758733 0)
(-0.0229914 -0.101167 0)
(-0.0301315 -0.132944 0)
(-0.0386495 -0.186761 0)
(-0.0269743 -0.201226 0)
(-0.000350343 0.033204 0)
(-0.00158964 0.0402055 0)
(-0.00286891 0.0430335 0)
(-0.00399213 0.0456931 0)
(-0.00490539 0.0489248 0)
(-0.0055518 0.0529741 0)
(-0.00585801 0.0581479 0)
(-0.0055732 0.0650512 0)
(-0.00390103 0.0744825 0)
(-0.000461098 0.084703 0)
(0.00479004 0.0873417 0)
(0.00905515 0.0742886 0)
(0.0118306 0.0418997 0)
(0.0117617 -0.000876919 0)
(0.00916064 -0.0414889 0)
(0.00422163 -0.0733806 0)
(-0.00141343 -0.0975535 0)
(-0.00892045 -0.124378 0)
(-0.019767 -0.178672 0)
(-0.0184352 -0.228676 0)
(5.26396e-05 0.0337601 0)
(-0.00039562 0.0410803 0)
(-0.000810629 0.0437989 0)
(-0.000948141 0.0461809 0)
(-0.000686932 0.0490477 0)
(9.03176e-05 0.0526305 0)
(0.00157267 0.0571143 0)
(0.00409831 0.062791 0)
(0.00852014 0.069994 0)
(0.0155859 0.0775451 0)
(0.0251997 0.079148 0)
(0.0341598 0.0682119 0)
(0.0400617 0.0412454 0)
(0.0409135 0.00376613 0)
(0.0359974 -0.0344234 0)
(0.0259003 -0.0654289 0)
(0.0153817 -0.0892677 0)
(0.00467887 -0.115142 0)
(-0.00705908 -0.168718 0)
(-0.0134066 -0.243344 0)
(0.00035049 0.033571 0)
(0.000568177 0.0411366 0)
(0.000933159 0.0436524 0)
(0.00169105 0.0456193 0)
(0.00300305 0.0479262 0)
(0.0050049 0.0507883 0)
(0.00789113 0.0542735 0)
(0.0119867 0.0584077 0)
(0.0179316 0.0631276 0)
(0.0265445 0.0674909 0)
(0.0375991 0.0675253 0)
(0.0486269 0.0580284 0)
(0.0563719 0.0367639 0)
(0.0580859 0.00671718 0)
(0.0525239 -0.0255281 0)
(0.0405117 -0.053958 0)
(0.0271045 -0.0773689 0)
(0.0134216 -0.102508 0)
(0.000209033 -0.15742 0)
(-0.0117154 -0.251329 0)
(0.000477207 0.032959 0)
(0.00117596 0.0405324 0)
(0.00217782 0.0427209 0)
(0.00370398 0.0441458 0)
(0.00591096 0.0457571 0)
(0.00891037 0.0477713 0)
(0.0128389 0.0501726 0)
(0.0179127 0.0528198 0)
(0.0244963 0.0554137 0)
(0.0331306 0.0571143 0)
(0.0436928 0.0556101 0)
(0.0543272 0.0475283 0)
(0.0618091 0.0311628 0)
(0.0636118 0.00827417 0)
(0.0585169 -0.0172612 0)
(0.0473605 -0.0415845 0)
(0.033483 -0.0634143 0)
(0.0182733 -0.0880251 0)
(0.00387437 -0.143862 0)
(-0.0118516 -0.255666 0)
(0.000337513 0.0319831 0)
(0.00124058 0.0393953 0)
(0.00271024 0.0411096 0)
(0.00487918 0.0418668 0)
(0.00784484 0.0426957 0)
(0.0116583 0.043831 0)
(0.0163713 0.0452232 0)
(0.0220695 0.0466531 0)
(0.0288867 0.0477324 0)
(0.0369778 0.0477394 0)
(0.0461708 0.0453153 0)
(0.0551971 0.0387054 0)
(0.0615988 0.0266003 0)
(0.0632757 0.00975373 0)
(0.0591419 -0.0097351 0)
(0.0496347 -0.0297545 0)
(0.0365671 -0.0491564 0)
(0.0210115 -0.0728481 0)
(0.00656132 -0.128171 0)
(-0.012311 -0.257664 0)
(-0.00016317 0.0320278 0)
(0.000595428 0.0384412 0)
(0.00236205 0.0391817 0)
(0.00504198 0.0390397 0)
(0.00866047 0.0389663 0)
(0.0131665 0.0392019 0)
(0.0185289 0.0396878 0)
(0.0247189 0.040193 0)
(0.0316928 0.0403356 0)
(0.0393338 0.039542 0)
(0.047302 0.0369603 0)
(0.0547384 0.0317221 0)
(0.0600653 0.0230433 0)
(0.061653 0.0110188 0)
(0.058462 -0.00339342 0)
(0.0506998 -0.0191588 0)
(0.0386449 -0.0355853 0)
(0.0244803 -0.0588081 0)
(0.0116864 -0.110809 0)
(-0.0116017 -0.259785 0)
(-0.00128767 0.0287532 0)
(-0.00180155 0.0345747 0)
(0.000425243 0.0352345 0)
(0.00383468 0.0347558 0)
(0.00823863 0.0342069 0)
(0.0134977 0.0338306 0)
(0.0195399 0.0336515 0)
(0.0262664 0.0335229 0)
(0.0335314 0.0331565 0)
(0.0410996 0.032135 0)
(0.0485396 0.0299126 0)
(0.0551713 0.0259941 0)
(0.0600084 0.0199174 0)
(0.0618631 0.0117304 0)
(0.0594739 0.00165501 0)
(0.0531592 -0.0102868 0)
(0.0415329 -0.023569 0)
(0.0328854 -0.0478705 0)
(0.0193795 -0.0947937 0)
(-0.00807541 -0.265282 0)
(-0.00352506 0.04475 0)
(-0.00429846 0.0451355 0)
(-0.000949771 0.0401266 0)
(0.00332246 0.0353646 0)
(0.0083723 0.0320583 0)
(0.0143935 0.0298627 0)
(0.0212933 0.028421 0)
(0.028838 0.0274074 0)
(0.0367963 0.0264871 0)
(0.0448911 0.0253199 0)
(0.0526987 0.0235536 0)
(0.0596294 0.0208741 0)
(0.064823 0.0171705 0)
(0.0673796 0.0122488 0)
(0.0664079 0.00626143 0)
(0.0623246 -0.00180776 0)
(0.0507456 -0.0126699 0)
(0.0526193 -0.037833 0)
(0.022951 -0.0755927 0)
(0.00497243 -0.266951 0)
(-0.00631067 0.0161974 0)
(-0.00954979 0.00966123 0)
(-0.000394753 0.0107319 0)
(0.00977531 0.0141455 0)
(0.0201583 0.0151323 0)
(0.0306159 0.014926 0)
(0.040834 0.0146006 0)
(0.050827 0.0143933 0)
(0.0606346 0.0141999 0)
(0.0702164 0.0138696 0)
(0.0793612 0.0132777 0)
(0.0877258 0.0122966 0)
(0.0948069 0.0108602 0)
(0.100266 0.00882172 0)
(0.102995 0.0062088 0)
(0.104753 0.00186128 0)
(0.0949601 -0.00371367 0)
(0.105496 -0.0211295 0)
(0.0295756 -0.0417029 0)
(0.070997 -0.225318 0)
(0.0405919 0.0928631 0)
(0.0616317 0.0699224 0)
(0.0870898 0.0439413 0)
(0.109076 0.0292639 0)
(0.126239 0.0215515 0)
(0.14077 0.0170159 0)
(0.154094 0.0140197 0)
(0.166608 0.0118816 0)
(0.1784 0.0102726 0)
(0.189548 0.00903037 0)
(0.200057 0.00800926 0)
(0.209831 0.00713384 0)
(0.218624 0.00633591 0)
(0.226328 0.00554699 0)
(0.231778 0.0046732 0)
(0.237281 0.00341304 0)
(0.230375 0.00200648 0)
(0.251265 -0.00313215 0)
(0.124652 0.00358145 0)
(0.377963 -0.0980271 0)
)
;

boundaryField
{
    movingWall
    {
        type            zeroGradient;
    }
    fixedWalls
    {
        type            zeroGradient;
    }
    frontAndBack
    {
        type            empty;
    }
}


// ************************************************************************* //
