/*--------------------------------*- C++ -*----------------------------------*\
| =========                 |                                                 |
| \\      /  F ield         | OpenFOAM: The Open Source CFD Toolbox           |
|  \\    /   O peration     | Version:  2312                                  |
|   \\  /    A nd           | Website:  www.openfoam.com                      |
|    \\/     M anipulation  |                                                 |
\*---------------------------------------------------------------------------*/
FoamFile
{
    version     2.0;
    format      ascii;
    arch        "LSB;label=32;scalar=64";
    class       volVectorField;
    location    "6.5";
    object      ddtU;
}
// * * * * * * * * * * * * * * * * * * * * * * * * * * * * * * * * * * * * * //

dimensions      [0 1 -2 0 0 0 0];

internalField   nonuniform List<vector> 
400
(
(-4.44089e-14 5.66729e-14 0)
(1.33227e-13 1.49513e-14 0)
(6.66134e-14 4.17183e-14 0)
(2.22045e-14 2.92171e-14 0)
(0 4.00809e-15 0)
(-2.22045e-14 6.49212e-16 0)
(2.22045e-14 2.65387e-15 0)
(0 3.11366e-15 0)
(-2.22045e-14 6.08433e-15 0)
(-6.66134e-14 1.27102e-15 0)
(-2.22045e-14 9.32156e-16 0)
(-2.22045e-14 -5.11097e-15 0)
(-4.44089e-14 -1.85379e-14 0)
(0 -1.46416e-14 0)
(0 -4.12134e-15 0)
(0 -4.10835e-15 0)
(0 1.01547e-14 0)
(0 5.39533e-15 0)
(6.66134e-14 -5.02231e-16 0)
(0 -1.11873e-15 0)
(-4.44089e-14 -2.9238e-14 0)
(0 4.5834e-14 0)
(0 5.03688e-14 0)
(0 4.37055e-14 0)
(8.88178e-14 1.914e-14 0)
(0 1.14817e-14 0)
(0 1.54192e-15 0)
(0 -2.43095e-15 0)
(4.44089e-14 -1.268e-14 0)
(8.88178e-14 -6.80763e-15 0)
(4.44089e-14 7.12269e-15 0)
(4.44089e-14 2.12255e-14 0)
(0 1.36485e-14 0)
(-4.44089e-14 -1.42138e-14 0)
(2.22045e-14 -1.82349e-14 0)
(0 -6.94208e-15 0)
(-4.44089e-14 1.59408e-14 0)
(-4.44089e-14 -5.03789e-15 0)
(-4.44089e-14 -1.23932e-14 0)
(0 5.64594e-15 0)
(-4.44089e-14 -4.79304e-14 0)
(0 5.81267e-14 0)
(4.44089e-14 1.37374e-14 0)
(4.44089e-14 1.44634e-14 0)
(4.44089e-14 3.26542e-14 0)
(4.44089e-14 3.68131e-14 0)
(0 1.87151e-14 0)
(0 1.49627e-14 0)
(-2.22045e-14 -1.67112e-15 0)
(-4.44089e-14 -1.82307e-14 0)
(-4.44089e-14 -1.47133e-14 0)
(-4.44089e-14 1.64585e-14 0)
(4.44089e-14 2.6523e-14 0)
(2.22045e-14 1.92388e-14 0)
(0 -4.6474e-15 0)
(-6.66134e-14 -1.54297e-14 0)
(4.44089e-14 -1.97092e-15 0)
(4.44089e-14 -6.09534e-15 0)
(2.22045e-14 -1.33459e-14 0)
(0 4.83112e-15 0)
(-1.77636e-13 2.20049e-14 0)
(2.22045e-14 2.95133e-14 0)
(-4.44089e-14 1.1854e-14 0)
(0 1.28166e-14 0)
(0 3.25372e-14 0)
(-4.44089e-14 3.05983e-14 0)
(4.44089e-14 2.85878e-14 0)
(0 3.78931e-14 0)
(0 3.24345e-14 0)
(0 6.17191e-15 0)
(-4.44089e-14 -1.28362e-14 0)
(-4.44089e-14 -1.3452e-14 0)
(0 -7.14649e-15 0)
(-4.44089e-14 -1.13416e-15 0)
(8.88178e-14 2.27159e-15 0)
(0 -1.13789e-14 0)
(0 -8.89335e-15 0)
(0 1.37095e-15 0)
(0 2.83093e-15 0)
(2.22045e-14 2.67459e-15 0)
(2.22045e-14 8.83996e-14 0)
(-4.44089e-14 -1.1284e-14 0)
(2.22045e-14 2.68175e-14 0)
(0 3.96932e-14 0)
(-2.22045e-14 4.34902e-14 0)
(-4.44089e-14 1.4798e-14 0)
(-4.44089e-14 1.07298e-14 0)
(-4.44089e-14 1.0038e-14 0)
(4.44089e-14 1.02519e-14 0)
(0 2.59998e-15 0)
(4.44089e-14 7.14837e-15 0)
(4.44089e-14 -1.04805e-14 0)
(0 -2.3269e-14 0)
(2.22045e-14 -2.68348e-14 0)
(4.44089e-14 4.28017e-15 0)
(2.22045e-14 1.38196e-14 0)
(2.22045e-14 1.09113e-14 0)
(0 -9.97371e-16 0)
(0 2.37745e-15 0)
(0 4.60683e-15 0)
(1.33227e-13 6.58018e-14 0)
(4.44089e-14 1.61809e-14 0)
(0 3.15236e-14 0)
(0 3.65369e-14 0)
(8.88178e-14 4.32396e-14 0)
(6.66134e-14 3.3871e-14 0)
(4.44089e-14 -1.02492e-15 0)
(2.22045e-14 -2.48569e-14 0)
(2.22045e-14 -2.78011e-14 0)
(2.22045e-14 -2.0387e-14 0)
(0 3.88667e-15 0)
(4.44089e-14 3.58327e-15 0)
(0 2.62884e-15 0)
(0 1.56996e-14 0)
(-6.66134e-14 5.99257e-15 0)
(-2.22045e-14 -3.56154e-15 0)
(0 -1.16425e-15 0)
(0 -6.65579e-16 0)
(0 -7.63429e-15 0)
(2.22045e-14 5.77373e-15 0)
(0 -1.78917e-14 0)
(4.44089e-14 2.88274e-14 0)
(4.44089e-14 2.85424e-14 0)
(0 1.83213e-14 0)
(0 6.51277e-15 0)
(8.88178e-14 8.36195e-15 0)
(4.44089e-14 -2.84406e-15 0)
(0 -1.11625e-14 0)
(4.44089e-14 -1.78177e-14 0)
(-6.66134e-14 1.75964e-14 0)
(-2.22045e-14 2.49405e-14 0)
(-6.66134e-14 5.25834e-15 0)
(0 3.5175e-15 0)
(-4.44089e-14 -8.30013e-15 0)
(8.88178e-14 -1.77462e-14 0)
(0 -8.22956e-15 0)
(2.22045e-14 -8.2067e-15 0)
(0 -5.18396e-15 0)
(2.22045e-14 9.50061e-15 0)
(0 1.27717e-14 0)
(-4.44089e-14 -6.8098e-15 0)
(0 -3.89893e-14 0)
(0 3.52499e-15 0)
(4.44089e-14 3.35294e-14 0)
(0 2.10567e-14 0)
(0 1.56468e-15 0)
(-4.44089e-14 1.3373e-14 0)
(0 3.41158e-15 0)
(-4.44089e-14 -8.10754e-15 0)
(-4.44089e-14 4.88272e-15 0)
(4.44089e-14 1.18727e-14 0)
(4.44089e-14 -1.09809e-14 0)
(4.44089e-14 -2.1831e-14 0)
(0 -1.93769e-14 0)
(0 -6.68585e-16 0)
(-2.22045e-14 1.83678e-14 0)
(-4.44089e-14 2.97262e-15 0)
(4.44089e-14 -5.04064e-15 0)
(-4.44089e-14 1.17941e-14 0)
(4.44089e-14 1.42322e-14 0)
(1.77636e-13 7.39376e-14 0)
(-2.22045e-14 -2.85398e-14 0)
(0 -3.55618e-15 0)
(-4.44089e-14 1.29166e-14 0)
(2.22045e-14 2.0877e-14 0)
(0 2.85435e-14 0)
(-2.22045e-14 2.5617e-14 0)
(-4.44089e-14 4.91029e-15 0)
(-2.22045e-14 -2.89528e-15 0)
(-4.44089e-14 -1.45141e-14 0)
(-6.66134e-14 -1.53868e-14 0)
(4.44089e-14 1.51722e-15 0)
(-6.66134e-14 9.51798e-15 0)
(-2.22045e-14 8.58493e-15 0)
(-4.44089e-14 8.32512e-15 0)
(0 1.09326e-14 0)
(4.44089e-14 -5.99186e-15 0)
(0 -1.40305e-14 0)
(0 -1.21096e-14 0)
(0 1.62477e-14 0)
(4.44089e-14 1.5255e-14 0)
(-2.22045e-14 3.81278e-14 0)
(2.22045e-14 2.55123e-14 0)
(0 6.48275e-15 0)
(0 8.71909e-16 0)
(-2.22045e-14 1.81082e-14 0)
(0 1.63707e-14 0)
(4.44089e-14 2.05949e-14 0)
(-4.44089e-14 2.62104e-14 0)
(-2.22045e-14 -6.03255e-15 0)
(2.22045e-14 -3.60455e-14 0)
(0 -1.09763e-14 0)
(0 1.49022e-14 0)
(4.44089e-14 1.25499e-14 0)
(2.22045e-14 4.24951e-15 0)
(4.44089e-14 4.15888e-15 0)
(0 9.74347e-15 0)
(0 4.18429e-15 0)
(-2.22045e-14 -7.52462e-15 0)
(-2.22045e-14 6.32979e-15 0)
(8.88178e-14 -1.15137e-13 0)
(-4.44089e-14 7.79875e-14 0)
(0 2.30424e-14 0)
(2.22045e-14 2.98948e-14 0)
(2.22045e-14 5.64057e-15 0)
(0 5.87402e-15 0)
(-2.22045e-14 7.32433e-15 0)
(0 1.57612e-14 0)
(-2.22045e-14 1.75597e-14 0)
(4.44089e-14 -6.44296e-15 0)
(0 -1.86262e-14 0)
(-4.44089e-14 -9.35906e-15 0)
(-6.66134e-14 7.72375e-15 0)
(-4.44089e-14 1.99286e-14 0)
(-6.66134e-14 2.48057e-14 0)
(-4.44089e-14 2.55263e-16 0)
(0 3.81082e-15 0)
(0 1.53188e-14 0)
(0 4.08074e-15 0)
(-4.44089e-14 2.27821e-15 0)
(-1.55431e-13 7.71849e-14 0)
(4.44089e-14 2.68534e-14 0)
(0 1.21252e-14 0)
(0 -7.30318e-16 0)
(4.44089e-14 1.09853e-14 0)
(4.44089e-14 2.24569e-14 0)
(2.22045e-14 2.83988e-14 0)
(-4.44089e-14 2.0256e-14 0)
(0 1.33714e-14 0)
(-4.44089e-14 1.67603e-14 0)
(-4.44089e-14 6.47785e-15 0)
(0 9.26649e-16 0)
(0 -9.62365e-15 0)
(-4.44089e-14 5.61403e-16 0)
(0 2.21553e-15 0)
(0 -1.47193e-14 0)
(0 -1.25934e-14 0)
(0 6.07712e-15 0)
(2.22045e-14 8.37483e-15 0)
(0 9.21078e-15 0)
(0 -1.03089e-14 0)
(2.22045e-14 2.17525e-14 0)
(0 1.06177e-14 0)
(0 -1.38028e-14 0)
(0 9.11792e-15 0)
(0 2.60022e-14 0)
(0 3.0031e-14 0)
(4.44089e-14 2.54128e-14 0)
(4.44089e-14 2.11499e-14 0)
(4.44089e-14 1.56738e-14 0)
(4.44089e-14 -1.06015e-14 0)
(0 -1.14763e-14 0)
(0 -1.85695e-14 0)
(-4.44089e-14 -1.21571e-14 0)
(0 -7.84339e-15 0)
(0 2.8048e-15 0)
(-4.44089e-14 -3.50276e-15 0)
(-4.44089e-14 -1.35137e-14 0)
(4.44089e-14 1.52463e-15 0)
(0 1.11757e-14 0)
(-2.22045e-14 -1.19869e-14 0)
(0 5.79731e-15 0)
(-4.44089e-14 1.11451e-14 0)
(0 5.78632e-15 0)
(-4.44089e-14 -9.48494e-15 0)
(-4.44089e-14 -1.59367e-14 0)
(0 8.29177e-15 0)
(0 9.15405e-15 0)
(0 5.37065e-15 0)
(4.44089e-14 3.00949e-15 0)
(0 7.32074e-15 0)
(-2.22045e-14 3.09417e-15 0)
(-2.22045e-14 -2.66229e-15 0)
(0 -2.09934e-14 0)
(-2.22045e-14 -5.5982e-15 0)
(0 1.83279e-14 0)
(0 4.85828e-16 0)
(2.22045e-14 -1.6249e-14 0)
(0 -2.94354e-15 0)
(0 1.18209e-14 0)
(8.88178e-14 8.44538e-14 0)
(2.22045e-14 -1.68866e-14 0)
(4.44089e-14 2.06908e-14 0)
(-4.44089e-14 1.44856e-14 0)
(0 -1.86297e-15 0)
(-8.88178e-14 -3.88269e-16 0)
(-4.44089e-14 -7.67784e-15 0)
(0 -2.30697e-14 0)
(4.44089e-14 -1.87184e-14 0)
(4.44089e-14 -6.70064e-15 0)
(0 1.68822e-14 0)
(-4.44089e-14 1.2609e-14 0)
(4.44089e-14 1.3452e-14 0)
(0 -3.30729e-15 0)
(0 -2.37014e-14 0)
(0 -8.29566e-15 0)
(4.44089e-14 5.76834e-16 0)
(4.44089e-14 4.51056e-15 0)
(4.44089e-14 4.21198e-15 0)
(0 1.59786e-14 0)
(-2.22045e-14 -4.91415e-14 0)
(0 1.10771e-14 0)
(-2.22045e-14 -2.94022e-15 0)
(4.44089e-14 -7.88563e-16 0)
(0 4.62005e-15 0)
(0 8.00437e-15 0)
(8.88178e-14 -3.03522e-14 0)
(2.22045e-14 -2.68762e-14 0)
(0 -2.54764e-15 0)
(-2.22045e-14 2.87609e-15 0)
(4.44089e-14 1.45274e-14 0)
(2.22045e-14 2.21219e-14 0)
(-2.22045e-14 1.58849e-14 0)
(0 4.39071e-15 0)
(2.22045e-14 -1.33043e-14 0)
(0 -2.04152e-14 0)
(-2.22045e-14 -9.10568e-15 0)
(2.22045e-14 6.25994e-15 0)
(-2.22045e-14 1.58142e-14 0)
(0 1.55535e-14 0)
(8.88178e-14 6.63214e-14 0)
(4.44089e-14 -1.13489e-14 0)
(0 -7.06365e-15 0)
(-2.22045e-14 -2.07541e-14 0)
(4.44089e-14 -1.5039e-14 0)
(4.44089e-14 -1.62515e-14 0)
(2.22045e-14 -8.90931e-15 0)
(-2.22045e-14 1.33128e-14 0)
(-4.44089e-14 6.52167e-15 0)
(-2.22045e-14 -5.64352e-15 0)
(2.22045e-14 4.22823e-15 0)
(-2.22045e-14 1.41202e-14 0)
(6.66134e-14 -8.75895e-16 0)
(2.22045e-14 -4.35379e-15 0)
(0 2.72185e-15 0)
(2.22045e-14 -8.08176e-15 0)
(0 -1.58935e-16 0)
(0 1.11375e-14 0)
(-4.44089e-14 1.11001e-14 0)
(0 5.28563e-15 0)
(0 6.45345e-14 0)
(2.22045e-14 9.14902e-16 0)
(-4.44089e-14 -1.99776e-15 0)
(0 -1.54357e-14 0)
(-2.22045e-14 -1.74877e-14 0)
(0 -1.22386e-14 0)
(-4.44089e-14 4.29499e-15 0)
(0 1.15349e-14 0)
(4.44089e-14 -4.64925e-15 0)
(-2.22045e-14 -5.08238e-15 0)
(0 -2.04019e-15 0)
(2.22045e-14 -1.41236e-15 0)
(0 -1.25791e-14 0)
(2.22045e-14 -2.66191e-15 0)
(-2.22045e-14 6.78696e-15 0)
(-2.22045e-14 9.81341e-15 0)
(-4.44089e-14 1.97418e-14 0)
(4.44089e-14 3.4614e-15 0)
(0 -1.1738e-15 0)
(0 1.19189e-15 0)
(2.22045e-14 -4.45936e-14 0)
(4.44089e-14 -1.03836e-14 0)
(4.44089e-14 -1.67007e-14 0)
(4.44089e-14 -1.40489e-15 0)
(2.22045e-14 1.01553e-14 0)
(0 -2.27095e-15 0)
(-4.44089e-14 -1.3545e-15 0)
(0 4.45725e-15 0)
(-2.22045e-14 1.88467e-14 0)
(0 2.50473e-14 0)
(-4.44089e-14 8.17878e-15 0)
(-4.44089e-14 -1.52032e-14 0)
(0 -1.88714e-14 0)
(0 -1.10194e-14 0)
(0 -1.21561e-16 0)
(0 1.9776e-14 0)
(4.44089e-14 1.9619e-14 0)
(2.22045e-14 -1.12798e-15 0)
(0 -6.5698e-15 0)
(0 -7.21017e-16 0)
(8.88178e-14 -8.88462e-15 0)
(-2.22045e-14 -1.28677e-14 0)
(-2.22045e-14 -2.87731e-15 0)
(-2.22045e-14 1.4211e-15 0)
(-2.22045e-14 1.01417e-14 0)
(2.22045e-14 3.78893e-15 0)
(-6.66134e-14 4.63042e-15 0)
(2.22045e-14 9.09608e-15 0)
(-2.22045e-14 1.75085e-14 0)
(2.22045e-14 1.51603e-14 0)
(2.22045e-14 2.68676e-15 0)
(0 -1.57838e-14 0)
(0 -1.22052e-14 0)
(-2.22045e-14 -7.53346e-15 0)
(-4.44089e-14 -2.06636e-15 0)
(-2.22045e-14 9.61968e-15 0)
(0 8.18789e-15 0)
(4.44089e-14 1.13417e-15 0)
(0 -6.84281e-15 0)
(-4.44089e-14 -1.0984e-15 0)
)
;

boundaryField
{
    movingWall
    {
        type            calculated;
        value           uniform (0 0 0);
    }
    fixedWalls
    {
        type            calculated;
        value           uniform (0 0 0);
    }
    frontAndBack
    {
        type            empty;
    }
}


// ************************************************************************* //
