/*--------------------------------*- C++ -*----------------------------------*\
| =========                 |                                                 |
| \\      /  F ield         | OpenFOAM: The Open Source CFD Toolbox           |
|  \\    /   O peration     | Version:  2312                                  |
|   \\  /    A nd           | Website:  www.openfoam.com                      |
|    \\/     M anipulation  |                                                 |
\*---------------------------------------------------------------------------*/
FoamFile
{
    version     2.0;
    format      ascii;
    arch        "LSB;label=32;scalar=64";
    class       volScalarField;
    location    "6.5";
    object      divPhi;
}
// * * * * * * * * * * * * * * * * * * * * * * * * * * * * * * * * * * * * * //

dimensions      [0 0 -1 0 0 0 0];

internalField   nonuniform List<scalar> 
400
(
-8.13152e-14
-1.71952e-17
1.27662e-14
-2.11588e-16
-6.56211e-15
1.25983e-14
-7.35314e-15
-1.0591e-14
-2.56883e-15
-7.98529e-16
9.16986e-15
-2.65871e-15
-5.30337e-15
1.79828e-15
1.5787e-14
-1.41168e-14
1.6458e-14
-2.04854e-14
8.97677e-15
0
0
6.87428e-15
1.92604e-14
5.1625e-15
-1.83935e-14
1.15995e-15
7.73666e-15
-2.72273e-14
3.70621e-15
2.11045e-14
1.02305e-14
-1.07649e-15
1.17439e-14
3.31488e-16
-2.00391e-14
6.7302e-15
-1.28839e-14
2.46717e-14
-1.63084e-14
2.71051e-14
0
2.74866e-14
-1.7778e-14
2.18566e-14
8.83568e-15
7.95306e-15
-4.87482e-15
2.16917e-14
3.05875e-15
-2.21631e-14
1.3635e-15
-4.83682e-16
1.01241e-14
7.51155e-15
-1.93699e-15
1.02788e-15
-4.6047e-15
-7.86147e-16
2.00066e-15
-2.71051e-14
0
1.04881e-14
2.92251e-14
5.52779e-15
1.37962e-14
-4.22333e-15
-1.88817e-14
-1.66011e-14
2.60804e-15
3.73847e-14
-1.9096e-14
-5.11713e-15
3.11707e-14
4.0541e-15
7.70879e-15
-7.40676e-15
-1.6379e-14
-1.2618e-14
-4.62232e-16
0
0
2.33742e-14
8.11852e-15
5.84227e-15
-1.77091e-14
-8.77356e-15
2.46429e-14
-1.72557e-14
2.65852e-14
9.8697e-15
-9.77474e-15
2.37399e-15
-7.21477e-16
-1.23842e-14
3.17644e-14
-2.20049e-15
4.01615e-15
-3.42648e-14
3.18491e-15
2.71051e-14
-2.71051e-14
6.9518e-15
-4.09053e-15
4.52575e-16
1.98652e-14
-3.92607e-15
-9.75553e-15
6.01942e-15
-2.01675e-14
4.08482e-15
-2.18305e-14
1.09845e-14
1.18857e-14
2.97415e-15
-1.00122e-14
2.07575e-14
-1.27777e-14
-3.74789e-16
-5.32797e-15
0
0
-8.1991e-15
-4.00466e-15
9.19604e-15
-2.38947e-14
-1.49431e-14
-2.76919e-14
1.55076e-14
-4.15891e-15
-2.57504e-14
1.70991e-14
-4.76305e-15
2.838e-14
-1.81491e-14
3.23726e-15
-1.91058e-15
-1.16208e-14
1.90562e-14
-1.4495e-14
0
2.71051e-14
-2.0684e-14
-1.49694e-14
3.54373e-14
4.92075e-15
8.27628e-15
-1.04698e-14
8.00423e-15
7.23954e-15
1.14827e-14
-1.57157e-14
-2.36619e-14
6.34042e-15
9.38372e-15
1.91873e-14
7.63119e-15
-7.25913e-15
-1.34861e-14
1.29512e-14
0
-2.71051e-14
1.14938e-14
1.4938e-14
-1.98706e-15
-4.4022e-15
1.30679e-14
4.43363e-15
-1.3185e-15
8.696e-15
8.81472e-15
2.22876e-14
-5.39928e-15
2.45286e-14
1.45805e-14
1.63555e-14
-7.39162e-15
3.0577e-15
-1.08246e-14
1.51862e-14
-2.71051e-14
0
2.45223e-14
-5.35061e-15
4.83842e-16
3.07354e-15
1.67946e-14
-4.88666e-15
-2.80943e-14
2.2107e-14
-5.46106e-15
1.32086e-14
-2.88991e-14
2.61915e-14
-4.20915e-15
-1.98785e-14
6.65231e-15
-1.48812e-16
-1.52093e-14
-2.73864e-16
2.71051e-14
2.71051e-14
-1.05855e-14
-2.46823e-14
2.17748e-14
-1.21498e-14
8.40257e-16
-2.37953e-14
9.9533e-15
-8.19386e-15
2.12401e-14
2.23967e-15
-2.04889e-14
6.08566e-15
-6.26864e-15
1.77681e-15
2.01973e-14
1.31746e-14
2.42092e-14
-1.02888e-14
0
-2.71051e-14
-3.23801e-14
1.76526e-15
-1.34003e-14
-6.39466e-15
2.16435e-14
-4.17599e-15
2.08196e-14
-2.04709e-15
-4.32704e-15
6.0564e-15
-1.58782e-16
9.40001e-15
-1.76537e-14
-3.92678e-15
-2.78999e-14
1.14091e-14
-2.64658e-15
-7.83958e-15
0
0
1.52392e-14
-2.26874e-14
-2.00514e-14
5.90404e-15
-5.96038e-15
-2.35882e-14
-7.54692e-15
-4.10315e-15
-1.83891e-15
9.56605e-15
-2.01139e-14
3.97509e-15
8.80623e-15
1.03307e-14
-1.23543e-14
2.50795e-14
1.00074e-14
-1.06517e-14
-2.71051e-14
0
3.60208e-15
-2.98178e-15
-1.36803e-14
-1.01897e-14
2.0252e-14
-6.72245e-15
-1.31968e-14
-3.81799e-15
6.10319e-15
1.94995e-14
-4.59495e-15
6.18296e-15
4.59222e-14
-1.04587e-14
-2.69265e-14
2.38208e-14
-6.44541e-15
1.925e-15
0
0
-1.62324e-14
-2.40402e-14
1.82821e-14
-1.81758e-14
-1.71258e-14
1.59007e-14
-1.86175e-14
2.58941e-14
1.34478e-14
-1.47134e-14
-1.09255e-14
1.32139e-14
-1.44221e-14
-9.39468e-15
-7.06855e-15
-3.13158e-15
1.05059e-14
-1.06796e-14
0
2.71051e-14
1.61804e-14
2.26643e-15
-3.96196e-14
2.93619e-14
-4.43011e-15
1.08544e-14
8.0162e-15
-2.30015e-14
1.08699e-14
5.98971e-15
9.9717e-15
3.90631e-14
-1.00438e-14
2.98327e-15
-5.01461e-15
-1.03684e-14
8.3742e-15
1.04562e-14
0
-2.71051e-14
-6.68333e-15
-5.18554e-15
-2.14175e-14
1.3954e-14
-2.02594e-14
-5.92038e-15
2.25459e-14
7.14418e-15
1.24485e-16
1.20827e-15
1.24104e-14
3.04136e-14
-2.10385e-14
8.23549e-15
-1.73018e-14
-5.36793e-15
-3.94832e-15
2.19282e-14
0
2.71051e-14
-1.63119e-14
4.08305e-16
-4.20876e-15
-1.01131e-14
1.85333e-14
-5.68165e-15
-8.25696e-16
-2.84425e-15
5.46117e-15
1.71476e-14
1.80016e-14
5.42442e-15
-6.31213e-16
-2.642e-15
1.70744e-14
6.26815e-15
-1.18238e-14
1.52865e-14
0
2.71051e-14
1.98868e-17
1.88129e-14
-6.29361e-15
-2.32656e-14
-2.80705e-14
2.70706e-15
1.15266e-14
3.85657e-15
8.28848e-15
-6.93758e-15
-2.13532e-14
3.54911e-14
-3.10782e-15
2.72219e-15
-1.70674e-14
1.03723e-14
-1.37753e-14
-4.04332e-14
2.71051e-14
-2.71051e-14
0
-2.71051e-14
0
2.71051e-14
-2.71051e-14
2.71051e-14
0
-2.71051e-14
2.71051e-14
-2.71051e-14
2.71051e-14
0
0
0
0
2.71051e-14
0
-2.71051e-14
0
)
;

boundaryField
{
    movingWall
    {
        type            extrapolatedCalculated;
        value           nonuniform List<scalar> 
20
(
-2.71051e-14
0
-2.71051e-14
0
2.71051e-14
-2.71051e-14
2.71051e-14
0
-2.71051e-14
2.71051e-14
-2.71051e-14
2.71051e-14
0
0
0
0
2.71051e-14
0
-2.71051e-14
0
)
;
    }
    fixedWalls
    {
        type            extrapolatedCalculated;
        value           nonuniform List<scalar> 
60
(
-8.13152e-14
0
0
0
0
-2.71051e-14
0
2.71051e-14
-2.71051e-14
0
2.71051e-14
-2.71051e-14
0
0
0
2.71051e-14
-2.71051e-14
2.71051e-14
2.71051e-14
-2.71051e-14
0
2.71051e-14
-2.71051e-14
0
2.71051e-14
0
0
0
-2.71051e-14
2.71051e-14
0
0
-2.71051e-14
0
0
0
0
0
2.71051e-14
0
-8.13152e-14
-1.71952e-17
1.27662e-14
-2.11588e-16
-6.56211e-15
1.25983e-14
-7.35314e-15
-1.0591e-14
-2.56883e-15
-7.98529e-16
9.16986e-15
-2.65871e-15
-5.30337e-15
1.79828e-15
1.5787e-14
-1.41168e-14
1.6458e-14
-2.04854e-14
8.97677e-15
0
)
;
    }
    frontAndBack
    {
        type            empty;
    }
}


// ************************************************************************* //
