/*--------------------------------*- C++ -*----------------------------------*\
| =========                 |                                                 |
| \\      /  F ield         | OpenFOAM: The Open Source CFD Toolbox           |
|  \\    /   O peration     | Version:  2312                                  |
|   \\  /    A nd           | Website:  www.openfoam.com                      |
|    \\/     M anipulation  |                                                 |
\*---------------------------------------------------------------------------*/
FoamFile
{
    version     2.0;
    format      ascii;
    arch        "LSB;label=32;scalar=64";
    class       volScalarField;
    location    "6.5";
    object      divU;
}
// * * * * * * * * * * * * * * * * * * * * * * * * * * * * * * * * * * * * * //

dimensions      [0 0 -1 0 0 0 0];

internalField   nonuniform List<scalar> 
400
(
1.49078e-11
-2.12509e-12
4.45801e-13
-1.43919e-13
2.59207e-14
-2.75399e-14
-4.14585e-15
1.80046e-14
-3.3653e-14
-7.53766e-15
1.87344e-14
3.50259e-14
-3.89335e-14
-1.21423e-14
-1.56511e-14
2.22495e-15
5.54899e-14
5.69644e-15
-1.61663e-14
0
-2.67798e-11
3.52951e-12
-7.39093e-13
3.23783e-13
-8.65811e-14
1.1012e-14
5.94753e-16
-6.2435e-16
2.04381e-14
3.27488e-14
-2.46702e-14
-9.58855e-15
-2.1548e-14
3.24966e-14
1.35727e-14
-3.17075e-14
-2.38807e-14
-1.05084e-14
1.66351e-14
2.71051e-14
9.73071e-12
-1.34958e-12
2.20075e-13
-1.11424e-13
2.10468e-14
-2.06735e-14
3.05696e-14
1.87167e-14
-7.41285e-14
-7.91084e-15
4.68519e-15
5.69472e-16
2.98213e-14
1.46378e-14
-4.01262e-14
-1.7418e-15
1.97943e-14
4.40964e-15
-3.35197e-14
-2.71051e-14
1.11673e-11
-9.82676e-13
1.99172e-13
-4.51259e-14
8.27712e-15
-6.3039e-15
-1.91519e-14
-5.30642e-15
4.60314e-14
4.31601e-14
-4.45433e-14
5.10122e-14
-7.24801e-14
-1.03379e-14
1.4552e-14
-2.79006e-14
1.24505e-14
-1.44057e-14
3.65219e-14
-2.71051e-14
-1.81333e-11
1.68234e-12
-2.86764e-13
1.10228e-13
3.43679e-14
-1.05909e-14
1.697e-14
-5.07181e-14
-4.22952e-14
1.14317e-15
-1.79033e-14
-1.53713e-16
4.05587e-14
3.25832e-14
-1.74712e-14
-1.8148e-15
1.0402e-14
-3.88582e-15
-7.58015e-15
2.71051e-14
1.12215e-11
-9.44652e-13
1.74297e-13
-9.51431e-14
5.26286e-14
-2.82899e-14
-9.35208e-15
-3.1827e-14
3.90177e-14
1.68867e-14
9.88268e-15
3.90266e-14
-1.51849e-14
-9.42333e-15
-1.64718e-14
-1.78521e-14
9.27558e-15
-2.17868e-15
2.95103e-14
-2.71051e-14
5.99022e-12
-7.055e-13
1.33151e-13
-5.68197e-14
-3.00343e-16
1.12864e-14
-4.36101e-14
2.94095e-14
1.36675e-14
-5.17421e-14
1.56431e-14
1.89995e-14
-3.52417e-14
3.54361e-14
6.16767e-16
4.19349e-14
2.47355e-14
-5.7918e-15
3.38956e-14
-5.42101e-14
-1.69949e-11
2.13904e-12
-4.64018e-13
1.78055e-13
2.86481e-14
3.43758e-14
-4.63116e-14
3.1691e-14
-9.08896e-14
1.78354e-15
1.66648e-14
1.39505e-14
-1.09312e-14
4.44111e-14
6.40596e-15
-5.54104e-14
2.6321e-15
-1.46692e-14
4.62622e-14
0
1.16281e-11
-1.75807e-12
3.32444e-13
-2.18829e-13
2.72751e-14
-1.22428e-14
4.32331e-15
2.61278e-14
4.14286e-14
-1.22821e-14
-1.06833e-14
-1.78271e-14
-3.39838e-14
1.04758e-14
-5.37472e-14
2.259e-14
4.49246e-14
1.89093e-14
-1.39919e-14
0
-2.22261e-12
4.58061e-13
-5.38014e-14
3.13295e-14
1.18651e-14
-1.04306e-14
-3.28126e-14
2.01008e-14
-3.69098e-14
-3.43933e-14
1.91905e-14
9.26106e-15
2.38136e-14
2.05556e-14
1.52832e-14
4.46207e-15
-2.82615e-14
-1.52526e-14
2.68961e-14
0
-2.38524e-12
1.28318e-12
-2.07684e-13
1.04384e-13
-2.96119e-14
9.52576e-17
-1.94787e-14
1.64599e-14
-1.00383e-14
2.8734e-14
-2.66678e-14
-3.4765e-14
6.61868e-15
3.31021e-15
-3.03943e-14
1.79852e-14
4.08383e-15
-1.44104e-14
1.07135e-14
0
8.37546e-12
-3.12677e-12
5.69891e-13
-2.91674e-13
6.63508e-14
2.0044e-14
-7.35989e-15
-1.40535e-14
2.44929e-15
-4.63172e-14
2.94689e-14
4.34448e-14
-7.21484e-15
-5.56119e-14
2.56672e-14
-2.68991e-14
2.01614e-14
4.18916e-14
2.21626e-14
-2.71051e-14
-1.71033e-11
4.3667e-12
-8.3626e-13
3.42869e-13
-4.84742e-14
-3.36085e-15
-2.21545e-14
2.69803e-14
-4.15126e-15
5.43945e-14
-4.32418e-14
-2.68192e-14
-5.84927e-14
3.79614e-14
1.0337e-14
-5.30044e-15
-4.44073e-15
-3.18373e-14
2.05102e-14
0
1.76725e-11
-4.03139e-12
7.64437e-13
-3.22902e-13
1.2059e-13
-3.28023e-14
-2.86872e-17
-8.37817e-15
-1.04533e-14
1.15081e-14
2.13835e-14
-6.15962e-15
2.74883e-14
-6.29309e-16
2.01049e-14
-3.75961e-14
1.73016e-14
2.77018e-14
-2.68575e-14
-2.71051e-14
-3.06287e-12
1.83933e-12
-4.0432e-13
1.5061e-13
-1.4666e-14
-4.21645e-14
3.67508e-15
-3.63853e-14
3.28452e-14
3.94055e-14
-1.01736e-13
1.83442e-14
5.49388e-14
7.7708e-15
-1.35541e-14
-3.13525e-14
2.60026e-15
1.3028e-14
2.08517e-14
-2.71051e-14
-1.56125e-11
1.17925e-12
-2.0324e-13
1.09611e-13
-4.08619e-14
-1.05814e-14
3.82551e-14
2.34297e-14
-1.96142e-14
1.60043e-14
3.57637e-14
8.78918e-15
-5.23107e-14
4.05341e-14
2.80919e-15
-2.87067e-15
-1.36605e-14
4.4377e-15
6.15259e-15
0
1.92717e-11
-2.14722e-12
4.26369e-13
-1.96035e-13
5.15466e-14
-4.3481e-14
2.924e-14
-3.68084e-14
2.79204e-14
-4.49062e-15
6.00805e-15
-2.04152e-14
2.3567e-14
5.14429e-15
1.31681e-14
-7.49881e-15
3.6001e-14
2.06882e-14
-8.42836e-15
0
-1.92446e-12
8.87206e-13
-1.91579e-13
9.65975e-14
-6.57583e-14
3.89545e-14
-9.73324e-15
-5.68451e-17
3.12955e-15
3.39512e-14
-9.08812e-15
2.6184e-14
2.16146e-14
1.19011e-14
1.80299e-14
-5.27781e-14
-4.30655e-14
4.61949e-14
-7.57464e-15
0
-1.81875e-11
1.55767e-12
-3.32643e-13
1.3888e-13
-5.48e-14
3.41354e-14
4.91962e-15
-1.3977e-14
-3.46883e-15
3.36975e-14
-3.95202e-14
4.49505e-15
-2.9676e-14
-4.3211e-14
3.30386e-14
1.71842e-14
5.32807e-14
-1.42038e-14
-1.71782e-14
0
1.24141e-11
-1.70762e-12
3.79471e-13
-1.6263e-13
2.71051e-14
0
0
0
0
2.71051e-14
-2.71051e-14
0
2.71051e-14
2.71051e-14
0
-2.71051e-14
0
0
0
0
)
;

boundaryField
{
    movingWall
    {
        type            extrapolatedCalculated;
        value           nonuniform List<scalar> 
20
(
1.24141e-11
-1.70762e-12
3.79471e-13
-1.6263e-13
2.71051e-14
0
0
0
0
2.71051e-14
-2.71051e-14
0
2.71051e-14
2.71051e-14
0
-2.71051e-14
0
0
0
0
)
;
    }
    fixedWalls
    {
        type            extrapolatedCalculated;
        value           nonuniform List<scalar> 
60
(
1.49078e-11
-2.67798e-11
9.73071e-12
1.11673e-11
-1.81333e-11
1.12215e-11
5.99022e-12
-1.69949e-11
1.16281e-11
-2.22261e-12
-2.38524e-12
8.37546e-12
-1.71033e-11
1.76725e-11
-3.06287e-12
-1.56125e-11
1.92717e-11
-1.92446e-12
-1.81875e-11
1.24141e-11
0
2.71051e-14
-2.71051e-14
-2.71051e-14
2.71051e-14
-2.71051e-14
-5.42101e-14
0
0
0
0
-2.71051e-14
0
-2.71051e-14
-2.71051e-14
0
0
0
0
0
1.49078e-11
-2.12509e-12
4.45801e-13
-1.43919e-13
2.59207e-14
-2.75399e-14
-4.14585e-15
1.80046e-14
-3.3653e-14
-7.53766e-15
1.87344e-14
3.50259e-14
-3.89335e-14
-1.21423e-14
-1.56511e-14
2.22495e-15
5.54899e-14
5.69644e-15
-1.61663e-14
0
)
;
    }
    frontAndBack
    {
        type            empty;
    }
}


// ************************************************************************* //
