/*--------------------------------*- C++ -*----------------------------------*\
| =========                 |                                                 |
| \\      /  F ield         | OpenFOAM: The Open Source CFD Toolbox           |
|  \\    /   O peration     | Version:  2312                                  |
|   \\  /    A nd           | Website:  www.openfoam.com                      |
|    \\/     M anipulation  |                                                 |
\*---------------------------------------------------------------------------*/
FoamFile
{
    version     2.0;
    format      ascii;
    arch        "LSB;label=32;scalar=64";
    class       volScalarField;
    location    "6.5";
    object      enstrophyField;
}
// * * * * * * * * * * * * * * * * * * * * * * * * * * * * * * * * * * * * * //

dimensions      [0 0 -2 0 0 0 0];

internalField   nonuniform List<scalar> 
400
(
5.06759e-23
9.37548e-23
4.26129e-24
2.85402e-25
6.0385e-28
2.66838e-27
3.52841e-28
2.43728e-28
2.0147e-28
3.24625e-30
3.70806e-33
1.38333e-30
1.16238e-28
2.96234e-28
7.98786e-28
2.03703e-27
2.70324e-27
3.39242e-27
1.23259e-27
1.75477e-31
1.90202e-25
6.14332e-26
5.63696e-26
1.06433e-26
9.22585e-27
4.72359e-27
4.92174e-27
2.7296e-27
2.87633e-27
1.50895e-27
2.43286e-27
2.90277e-27
1.15972e-29
1.84814e-27
5.71568e-27
2.67374e-29
6.33705e-29
1.03996e-27
1.94221e-27
2.81719e-28
2.01496e-23
7.12246e-23
3.432e-24
2.23943e-25
7.4152e-29
4.84123e-27
1.34057e-27
3.71885e-28
6.88787e-29
3.50823e-29
2.74556e-28
6.24751e-28
2.73846e-27
7.56732e-27
1.21811e-28
1.55955e-28
2.54713e-27
8.54366e-27
1.67774e-27
6.54425e-28
1.11481e-23
4.70809e-23
2.25431e-24
1.4743e-25
2.96769e-28
6.00883e-28
1.08274e-28
9.67167e-27
2.4539e-27
5.91648e-29
7.70567e-28
5.21444e-29
2.28493e-28
5.23283e-30
1.74599e-27
3.61665e-27
1.68199e-27
7.64652e-30
1.55575e-27
1.2115e-29
2.60285e-25
2.20666e-25
6.94341e-26
3.32637e-27
1.09773e-26
2.19667e-26
2.06967e-26
1.66198e-26
8.45121e-27
3.17578e-27
1.39329e-26
1.17428e-26
1.3455e-26
1.63413e-26
1.04044e-28
4.12914e-28
9.85218e-28
3.91497e-28
9.87139e-30
7.9556e-28
5.44879e-24
2.99186e-23
1.51651e-24
1.04382e-25
3.60666e-28
4.37334e-28
3.48721e-28
4.39813e-27
6.7611e-27
3.66769e-27
1.31107e-27
1.31502e-29
2.01224e-28
8.58565e-28
1.45091e-29
3.44296e-28
6.0742e-28
6.24845e-28
4.4902e-30
2.2014e-28
1.32773e-23
4.79081e-23
2.8832e-24
1.10523e-25
1.53171e-26
1.4221e-28
5.42748e-27
3.86743e-27
9.50733e-27
3.03188e-26
1.65196e-26
6.68007e-27
9.0104e-27
4.30593e-27
8.15856e-28
1.2183e-31
1.93032e-27
7.18663e-29
3.0026e-29
6.16206e-29
2.03225e-24
2.08185e-24
2.05662e-25
2.15509e-27
5.71594e-27
1.81049e-27
1.73808e-27
6.35625e-30
2.43064e-30
1.4871e-27
3.39333e-30
7.37465e-30
4.4036e-29
1.62117e-27
2.06337e-28
3.10649e-27
1.03755e-30
4.00094e-30
6.59599e-29
1.61509e-28
5.45116e-24
1.6935e-23
1.09856e-24
4.2483e-26
6.97081e-27
7.77165e-28
3.13526e-28
4.53368e-27
9.26472e-27
9.25683e-27
4.38499e-27
3.03932e-27
2.35126e-27
2.47555e-29
6.86288e-29
1.53964e-27
2.19377e-27
3.00411e-29
1.39962e-29
7.35928e-29
2.9395e-23
3.88891e-23
2.37892e-24
1.32789e-25
9.10248e-27
3.3347e-29
1.60268e-28
1.64781e-27
5.73227e-29
1.32984e-27
2.77716e-27
3.55113e-28
6.66121e-29
8.09888e-29
4.61481e-28
1.96422e-27
1.75919e-28
4.63566e-30
3.69813e-29
7.07971e-28
3.93481e-23
4.04146e-23
1.86313e-24
1.53405e-25
8.47095e-28
1.0037e-27
1.66764e-29
3.43357e-28
1.39141e-28
3.87889e-28
4.76419e-29
4.89006e-28
2.96811e-27
9.7611e-27
7.5285e-27
5.04488e-27
3.41851e-28
2.19956e-30
9.15494e-28
3.12184e-28
2.10681e-23
2.7823e-23
1.53904e-24
5.17203e-26
8.01475e-27
5.0858e-27
8.52296e-27
7.05203e-27
6.07985e-27
4.28168e-27
3.9935e-27
3.47181e-27
4.66129e-27
4.44773e-27
3.77941e-28
6.91437e-29
1.24385e-27
1.98054e-27
2.56217e-30
2.87064e-29
7.68139e-26
1.31608e-24
8.41037e-26
3.05559e-29
5.03395e-28
1.15069e-28
1.36153e-27
3.53087e-28
1.11395e-27
2.14636e-27
5.83505e-27
2.16495e-27
5.43835e-28
3.91955e-27
3.35031e-28
2.81711e-27
1.94697e-27
1.8566e-27
8.16122e-29
8.58264e-28
1.70929e-23
2.62987e-23
1.38135e-24
9.1422e-26
4.76872e-27
6.21535e-29
1.76854e-27
4.98497e-27
2.6781e-29
2.28995e-31
4.21679e-32
1.27771e-27
4.2297e-27
3.7478e-27
9.89296e-28
5.50412e-28
1.03288e-27
1.23198e-27
8.79158e-29
3.02343e-28
4.58452e-23
9.17102e-23
5.0407e-24
2.58541e-25
1.46067e-26
4.76241e-28
1.93158e-27
6.08019e-27
4.59385e-27
1.46257e-29
4.73142e-29
9.87739e-28
9.37236e-28
3.12091e-28
2.72326e-27
3.93996e-29
3.06945e-28
5.30866e-28
8.18937e-28
1.22453e-30
2.36292e-23
3.92677e-23
2.37717e-24
7.10272e-26
1.51308e-26
7.31342e-27
1.54901e-26
1.25946e-26
1.02139e-27
4.98301e-28
4.7398e-28
9.16981e-28
5.83086e-32
2.20259e-27
1.90767e-28
1.58394e-27
8.84197e-28
8.5855e-28
5.91764e-28
1.80024e-30
1.35312e-24
1.32195e-24
7.21909e-26
4.32827e-28
3.34232e-27
2.51994e-27
2.32381e-29
1.08727e-27
7.1335e-28
1.58581e-29
2.77864e-28
6.50363e-28
1.24559e-27
9.84755e-29
5.2266e-30
8.07619e-29
1.08444e-27
5.82971e-28
2.42553e-29
4.07273e-29
6.4018e-24
4.22607e-23
2.29285e-24
1.45675e-25
4.87953e-27
5.32349e-28
8.23976e-28
5.56566e-28
2.34386e-28
1.44566e-27
2.3751e-27
6.3737e-28
2.84795e-27
6.27818e-27
7.15794e-27
7.02633e-27
1.98015e-27
3.75344e-30
2.51398e-29
1.32583e-28
4.71704e-24
5.30311e-24
4.28979e-25
1.57885e-26
1.15252e-27
1.95336e-28
1.46013e-30
2.18078e-29
7.63468e-29
6.93681e-29
1.07007e-29
1.2504e-29
1.96245e-27
2.60621e-29
1.46184e-29
5.09653e-29
3.99353e-29
5.36314e-28
1.99724e-29
3.98309e-29
1.3367e-23
3.41987e-23
1.32999e-24
1.28383e-25
3.18389e-30
5.68072e-27
4.95931e-28
7.69005e-28
3.37233e-29
4.48123e-28
2.26032e-29
7.5154e-29
7.39581e-29
2.15109e-27
1.42749e-27
9.70822e-28
8.13057e-28
1.35734e-29
2.98544e-29
1.046e-32
)
;

boundaryField
{
    movingWall
    {
        type            calculated;
        value           nonuniform List<scalar> 
20
(
5.56654e-23
5.13343e-23
9.85181e-25
2.58454e-25
9.55045e-27
2.05863e-26
1.19061e-27
1.59733e-27
3.37233e-29
1.11587e-27
7.10093e-28
5.16776e-28
2.93805e-27
2.99824e-27
1.02093e-27
1.48812e-27
2.80747e-27
1.35734e-29
2.98544e-29
1.046e-32
)
;
    }
    fixedWalls
    {
        type            calculated;
        value           nonuniform List<scalar> 
60
(
1.65638e-21
3.73557e-24
1.27703e-21
8.35e-22
7.97113e-24
5.31267e-22
8.98909e-22
4.74088e-23
3.19223e-22
7.40604e-22
7.19086e-22
5.16313e-22
2.50292e-23
4.96061e-22
1.68267e-21
7.304e-22
2.217e-23
7.84486e-22
1.12138e-22
5.92172e-22
3.2364e-30
4.63804e-28
1.73478e-27
8.91931e-29
1.5544e-27
5.4636e-29
3.63081e-28
3.91419e-32
3.79207e-29
1.49763e-27
1.24915e-29
5.94614e-31
6.27316e-28
7.8751e-29
1.17945e-28
6.03358e-29
3.27681e-29
1.69913e-28
9.16379e-30
3.92986e-29
1.2044e-22
1.26148e-22
3.00236e-24
7.07816e-25
4.52755e-26
4.87974e-26
3.53549e-26
2.35484e-26
1.45529e-26
1.10248e-27
9.89904e-28
3.79795e-27
1.16238e-28
2.07865e-27
1.3349e-26
4.84483e-27
1.86604e-28
4.03856e-27
1.19895e-27
1.75477e-31
)
;
    }
    frontAndBack
    {
        type            empty;
    }
}


// ************************************************************************* //
