/*--------------------------------*- C++ -*----------------------------------*\
| =========                 |                                                 |
| \\      /  F ield         | OpenFOAM: The Open Source CFD Toolbox           |
|  \\    /   O peration     | Version:  2312                                  |
|   \\  /    A nd           | Website:  www.openfoam.com                      |
|    \\/     M anipulation  |                                                 |
\*---------------------------------------------------------------------------*/
FoamFile
{
    version     2.0;
    format      ascii;
    arch        "LSB;label=32;scalar=64";
    class       volScalarField;
    location    "6.5";
    object      epsilonzeroGrad;
}
// * * * * * * * * * * * * * * * * * * * * * * * * * * * * * * * * * * * * * //

dimensions      [0 2 -3 0 0 0 0];

internalField   nonuniform List<scalar> 
400
(
2.99381e-06
2.99381e-06
2.99381e-06
2.9938e-06
2.9938e-06
2.99379e-06
2.99379e-06
2.99379e-06
2.99379e-06
2.99379e-06
2.99379e-06
2.99379e-06
2.99379e-06
2.99379e-06
2.99379e-06
2.99378e-06
2.99378e-06
2.99378e-06
2.99378e-06
2.99378e-06
3.17329e-06
3.12234e-06
3.12658e-06
3.12834e-06
3.13185e-06
3.13368e-06
3.13719e-06
3.13909e-06
3.1426e-06
3.14456e-06
3.14806e-06
3.1501e-06
3.1536e-06
3.1557e-06
3.15922e-06
3.16137e-06
3.1649e-06
3.1671e-06
3.16889e-06
3.17178e-06
3.44121e-06
3.38355e-06
3.38842e-06
3.39044e-06
3.39445e-06
3.39654e-06
3.40055e-06
3.40269e-06
3.40669e-06
3.4089e-06
3.41288e-06
3.41516e-06
3.41912e-06
3.42147e-06
3.42543e-06
3.42782e-06
3.43179e-06
3.43422e-06
3.43622e-06
3.43944e-06
3.7008e-06
3.63722e-06
3.64259e-06
3.64482e-06
3.64924e-06
3.65154e-06
3.65595e-06
3.65832e-06
3.66272e-06
3.66516e-06
3.66954e-06
3.67205e-06
3.67642e-06
3.679e-06
3.68337e-06
3.68601e-06
3.69039e-06
3.69306e-06
3.69527e-06
3.69882e-06
3.90051e-06
3.8322e-06
3.83795e-06
3.84034e-06
3.84509e-06
3.84755e-06
3.85229e-06
3.85483e-06
3.85955e-06
3.86217e-06
3.86687e-06
3.86958e-06
3.87426e-06
3.87704e-06
3.88173e-06
3.88456e-06
3.88927e-06
3.89214e-06
3.89451e-06
3.89832e-06
4.03411e-06
3.96258e-06
3.9686e-06
3.9711e-06
3.97607e-06
3.97865e-06
3.98361e-06
3.98626e-06
3.99121e-06
3.99395e-06
3.99887e-06
4.0017e-06
4.00661e-06
4.00952e-06
4.01442e-06
4.01739e-06
4.02232e-06
4.02533e-06
4.02781e-06
4.0318e-06
4.11695e-06
4.04339e-06
4.04958e-06
4.05215e-06
4.05725e-06
4.05991e-06
4.065e-06
4.06774e-06
4.07281e-06
4.07564e-06
4.08069e-06
4.08361e-06
4.08865e-06
4.09164e-06
4.09668e-06
4.09973e-06
4.1048e-06
4.10789e-06
4.11045e-06
4.11455e-06
4.16745e-06
4.09267e-06
4.09896e-06
4.10157e-06
4.10676e-06
4.10946e-06
4.11464e-06
4.11741e-06
4.12258e-06
4.12545e-06
4.13059e-06
4.13355e-06
4.13867e-06
4.14172e-06
4.14684e-06
4.14995e-06
4.15509e-06
4.15824e-06
4.16084e-06
4.16501e-06
4.19984e-06
4.12426e-06
4.13062e-06
4.13326e-06
4.1385e-06
4.14123e-06
4.14646e-06
4.14927e-06
4.15448e-06
4.15738e-06
4.16258e-06
4.16557e-06
4.17075e-06
4.17382e-06
4.179e-06
4.18214e-06
4.18734e-06
4.19052e-06
4.19315e-06
4.19736e-06
4.22314e-06
4.147e-06
4.1534e-06
4.15606e-06
4.16134e-06
4.16408e-06
4.16936e-06
4.17218e-06
4.17744e-06
4.18036e-06
4.18559e-06
4.18861e-06
4.19383e-06
4.19692e-06
4.20214e-06
4.2053e-06
4.21054e-06
4.21375e-06
4.21639e-06
4.22064e-06
4.24258e-06
4.16596e-06
4.1724e-06
4.17508e-06
4.18039e-06
4.18315e-06
4.18846e-06
4.1913e-06
4.19659e-06
4.19953e-06
4.20479e-06
4.20783e-06
4.21308e-06
4.21619e-06
4.22144e-06
4.22463e-06
4.2299e-06
4.23312e-06
4.23578e-06
4.24006e-06
4.26107e-06
4.184e-06
4.19048e-06
4.19317e-06
4.19851e-06
4.20129e-06
4.20663e-06
4.20949e-06
4.21481e-06
4.21776e-06
4.22306e-06
4.22611e-06
4.23139e-06
4.23453e-06
4.23981e-06
4.24301e-06
4.24831e-06
4.25155e-06
4.25423e-06
4.25853e-06
4.28027e-06
4.20275e-06
4.20927e-06
4.21197e-06
4.21735e-06
4.22014e-06
4.22551e-06
4.22839e-06
4.23374e-06
4.23671e-06
4.24204e-06
4.24511e-06
4.25042e-06
4.25357e-06
4.25889e-06
4.26211e-06
4.26744e-06
4.27071e-06
4.2734e-06
4.27772e-06
4.30125e-06
4.22321e-06
4.22977e-06
4.23249e-06
4.2379e-06
4.24071e-06
4.24612e-06
4.24901e-06
4.2544e-06
4.25739e-06
4.26275e-06
4.26584e-06
4.27119e-06
4.27436e-06
4.27971e-06
4.28295e-06
4.28832e-06
4.29161e-06
4.29431e-06
4.29867e-06
4.32459e-06
4.24598e-06
4.25259e-06
4.25533e-06
4.26078e-06
4.26361e-06
4.26905e-06
4.27197e-06
4.27739e-06
4.28041e-06
4.28581e-06
4.28892e-06
4.29431e-06
4.2975e-06
4.30289e-06
4.30615e-06
4.31156e-06
4.31487e-06
4.3176e-06
4.32198e-06
4.35038e-06
4.27116e-06
4.27781e-06
4.28058e-06
4.28607e-06
4.28893e-06
4.29441e-06
4.29735e-06
4.30281e-06
4.30585e-06
4.3113e-06
4.31443e-06
4.31986e-06
4.32308e-06
4.32851e-06
4.3318e-06
4.33725e-06
4.34059e-06
4.34334e-06
4.34776e-06
4.37776e-06
4.29786e-06
4.30458e-06
4.30737e-06
4.3129e-06
4.31578e-06
4.32131e-06
4.32427e-06
4.32978e-06
4.33285e-06
4.33833e-06
4.3415e-06
4.34697e-06
4.35022e-06
4.35569e-06
4.35901e-06
4.3645e-06
4.36787e-06
4.37064e-06
4.3751e-06
4.4043e-06
4.32379e-06
4.33054e-06
4.33335e-06
4.33893e-06
4.34183e-06
4.3474e-06
4.35039e-06
4.35594e-06
4.35903e-06
4.36456e-06
4.36775e-06
4.37326e-06
4.37654e-06
4.38205e-06
4.3854e-06
4.39093e-06
4.39433e-06
4.39712e-06
4.40161e-06
4.42596e-06
4.34652e-06
4.35307e-06
4.3558e-06
4.36122e-06
4.36406e-06
4.36949e-06
4.37245e-06
4.37786e-06
4.38095e-06
4.38635e-06
4.38956e-06
4.39496e-06
4.39828e-06
4.4037e-06
4.40711e-06
4.41257e-06
4.41605e-06
4.41882e-06
4.42333e-06
4.43577e-06
4.43575e-06
4.43576e-06
4.43574e-06
4.43575e-06
4.43573e-06
4.43574e-06
4.43573e-06
4.43573e-06
4.43573e-06
4.43573e-06
4.43572e-06
4.43572e-06
4.43572e-06
4.43572e-06
4.43572e-06
4.43572e-06
4.43572e-06
4.43572e-06
4.43572e-06
)
;

boundaryField
{
    movingWall
    {
        type            zeroGradient;
    }
    fixedWalls
    {
        type            zeroGradient;
    }
    frontAndBack
    {
        type            empty;
    }
}


// ************************************************************************* //
