/*--------------------------------*- C++ -*----------------------------------*\
| =========                 |                                                 |
| \\      /  F ield         | OpenFOAM: The Open Source CFD Toolbox           |
|  \\    /   O peration     | Version:  2312                                  |
|   \\  /    A nd           | Website:  www.openfoam.com                      |
|    \\/     M anipulation  |                                                 |
\*---------------------------------------------------------------------------*/
FoamFile
{
    version     2.0;
    format      ascii;
    arch        "LSB;label=32;scalar=64";
    class       volScalarField;
    location    "6.5";
    object      flowTypeField;
}
// * * * * * * * * * * * * * * * * * * * * * * * * * * * * * * * * * * * * * //

dimensions      [0 0 0 0 0 0 0];

internalField   nonuniform List<scalar> 
400
(
0.433926
0.0511473
0.0716643
-0.0607111
0.780136
0.0891602
0.36071
0.293362
0.623207
0.873114
0.943331
0.909937
0.78328
0.339551
0.282116
0.0351196
0.0673512
-0.0103782
0.117498
0.781464
0.969903
0.92816
0.743653
0.499767
0.142705
0.107308
0.0851599
0.0950162
0.110534
0.267277
-0.212934
-0.300663
0.468803
-0.135418
-0.147465
0.823558
0.546074
-0.295486
0.0369528
0.548566
0.541852
0.100905
0.086898
0.0312752
0.906389
-0.360134
0.320503
0.271439
0.818727
0.749553
0.134578
0.159034
0.118546
-0.0811636
0.543165
0.0122983
-0.125042
-0.153044
0.0465698
0.184134
0.648945
0.123879
0.133212
0.0344913
0.818952
0.0585452
0.399161
-0.196766
0.114963
0.74213
0.445569
0.75504
0.603208
0.928977
0.421971
0.00522842
0.0500273
0.797468
0.103749
0.83843
0.951234
0.839387
0.654551
0.718449
0.00674831
-0.0251307
-0.0413338
0.0747748
0.0679389
0.229586
-0.011678
-0.0875255
-0.0951181
-0.0474651
0.049891
0.000613163
-0.609369
0.265956
0.780877
-0.401912
0.727154
0.158845
0.157286
0.0550602
0.678034
0.131503
0.000427633
-0.371038
-0.0875834
0.010543
0.0547571
0.760933
0.63197
0.391
0.869402
0.305653
-0.277134
-0.292909
0.836733
0.435167
0.512375
0.116212
0.0219333
0.197324
-0.445943
0.768007
0.0808057
0.2673
-0.0172985
-0.0952358
-0.11637
-0.0632606
0.0782118
0.222822
0.261385
0.941494
-0.0953816
0.0394731
0.653141
0.741863
0.85665
0.541989
0.425681
0.699136
0.159245
-0.015999
0.372683
0.816986
0.964292
-0.00585945
0.925682
0.903728
0.705944
0.252256
0.0363906
0.0295087
0.573599
0.586745
0.738278
0.366916
0.696229
0.160877
0.0877762
0.216079
-0.511811
0.171386
0.394163
-0.124556
-0.174143
-0.195714
-0.150355
0.0423401
0.193068
0.756703
0.821674
0.0819134
0.145906
0.200572
0.284152
0.570733
0.0174858
0.0278525
-0.0946714
-0.0528506
-0.24017
0.0216479
0.496924
0.0565672
0.562191
-0.135851
-0.182387
0.0163597
0.652688
0.536795
0.0213318
-0.136293
0.471333
0.856341
0.405654
-0.377111
-0.200384
-0.0371391
-0.0558324
-0.287076
0.577779
0.0119867
0.528611
0.285865
9.39684e-05
0.270495
0.705308
0.43892
-0.378342
-0.279505
-0.0898745
0.0796376
0.0508381
0.866196
-0.371845
0.103748
0.287351
0.0529079
-0.0499301
0.278672
-0.0360329
0.185889
-0.188909
-0.0941609
-0.0102332
0.308634
0.198258
0.0617687
-0.101291
0.0432258
0.52041
0.390852
0.177391
0.205712
0.876224
0.657453
0.966162
0.546989
0.506265
0.955889
0.36311
0.0268806
-0.417624
0.302412
-0.589289
0.147995
-0.064221
-0.0504522
0.40927
0.101328
0.332353
0.0781864
-0.147736
-0.0512596
0.735392
-0.491508
0.622808
0.130625
0.0994684
0.067211
0.212977
0.757005
0.0776115
-0.21798
0.770729
0.972281
0.9573
0.0726511
-0.0650462
0.00800097
0.188058
0.141346
-0.0621959
-0.114018
0.609823
0.300297
0.199951
0.058018
-0.0193567
0.0172856
0.012219
0.562082
-0.141586
-0.25163
0.197688
0.86736
0.837473
0.250753
0.279529
0.113293
-0.341832
0.533628
0.353219
-0.0761932
-0.111407
0.89241
0.587639
0.13983
0.0462534
0.244906
-0.388449
0.11797
-0.037699
-0.064604
0.238664
0.41323
0.469886
0.238773
0.973263
0.163273
0.114066
-0.0374192
0.0114095
0.322145
-0.127525
0.199158
0.896825
0.657711
0.666472
0.850723
-0.146853
-0.0853719
0.694126
0.27533
-0.062557
0.294097
0.00606169
0.0806069
-0.116704
0.125939
0.598948
0.590449
-0.170445
-0.0550648
0.700171
0.0189725
0.596908
0.137244
0.0609957
0.0737519
0.119037
0.210106
0.0617691
-0.141563
0.198462
0.120157
-0.0884834
0.101233
0.114933
-0.0312551
-0.10167
0.0275324
0.17109
0.914785
0.00650097
0.0016378
0.808669
0.431331
0.34204
0.323688
0.121452
0.396693
0.797958
0.714144
0.587891
0.643952
0.881329
0.266455
-0.0226298
0.814899
0.857073
0.601931
0.78425
-0.166998
0.381249
0.179719
0.594787
0.0850822
0.174185
-0.0800355
0.966057
-0.181707
0.263168
0.0746632
0.0705263
0.210912
0.504182
0.0563989
0.522973
-0.147875
0.155788
0.264164
0.252921
0.537686
0.329713
0.465343
)
;

boundaryField
{
    movingWall
    {
        type            calculated;
        value           nonuniform List<scalar> 
20
(
0.660718
0.127323
0.437505
-0.172139
0.434333
-0.124124
0.11127
-0.0520642
0.663243
0.248361
0.342931
0.291397
0.170888
0.184449
0.351673
0.121982
0.162224
0.690437
0.272251
0.879163
)
;
    }
    fixedWalls
    {
        type            calculated;
        value           nonuniform List<scalar> 
60
(
0.0583783
0.88012
0.0984109
0.130994
0.786297
0.162012
0.0941744
0.507121
0.148063
-0.00323892
-0.0416
0.037816
0.564489
0.124881
0.042332
0.12731
0.683188
0.119393
0.414173
0.108194
0.540443
0.617461
0.000889222
0.738687
-0.71806
0.754433
0.649374
0.965944
0.790832
-0.926405
0.798611
0.945116
-0.284928
0.0872715
0.0615984
0.0125066
0.0231734
0.00128515
0.386224
0.00761697
0.6879
0.154586
0.392568
-0.198593
0.379668
-0.135512
0.0167788
0.0332869
0.117307
0.375252
0.286995
0.178986
0.795369
0.296704
0.103351
0.0933315
0.599638
0.0145805
-0.101052
0.540243
)
;
    }
    frontAndBack
    {
        type            empty;
    }
}


// ************************************************************************* //
