/*--------------------------------*- C++ -*----------------------------------*\
| =========                 |                                                 |
| \\      /  F ield         | OpenFOAM: The Open Source CFD Toolbox           |
|  \\    /   O peration     | Version:  2312                                  |
|   \\  /    A nd           | Website:  www.openfoam.com                      |
|    \\/     M anipulation  |                                                 |
\*---------------------------------------------------------------------------*/
FoamFile
{
    version     2.0;
    format      ascii;
    arch        "LSB;label=32;scalar=64";
    class       surfaceScalarField;
    location    "6.5";
    object      fluxField;
}
// * * * * * * * * * * * * * * * * * * * * * * * * * * * * * * * * * * * * * //

dimensions      [0 3 -1 0 0 0 0];

oriented        oriented;

internalField   nonuniform List<scalar> 
760
(
-5e-05
3.8596e-18
-5e-05
-8.22653e-19
-5e-05
1.99542e-19
-5e-05
-2.92034e-20
-5e-05
2.00327e-20
-5e-05
6.66754e-21
-5e-05
5.7398e-21
-5e-05
4.50115e-21
-5e-05
5.13927e-21
-5e-05
4.89185e-21
-5e-05
4.6836e-21
-5e-05
8.75648e-21
-5e-05
1.05954e-20
-5e-05
3.74068e-21
-5e-05
-3.91276e-21
-5e-05
-6.22003e-21
-5e-05
3.19955e-22
-5e-05
1.42411e-21
-5e-05
-4.04158e-21
-1.74453e-21
-5e-05
-3.27068e-18
-5e-05
7.06195e-19
-5e-05
-1.64445e-19
-5e-05
4.02882e-20
-5e-05
-1.31648e-21
-5e-05
9.52928e-21
-5e-05
6.92495e-21
-5e-05
6.62018e-21
-5e-05
5.10953e-21
-5e-05
1.41095e-21
-5e-05
6.08715e-22
-5e-05
4.37912e-21
-5e-05
8.16552e-21
-5e-05
8.12415e-21
-5e-05
3.39319e-21
-5e-05
-1.1506e-21
-5e-05
8.061e-22
-5e-05
-2.62711e-21
-5e-05
-9.39374e-21
-5.58497e-21
-5e-05
-6.31609e-19
-5e-05
1.16615e-19
-5e-05
-3.30727e-20
-5e-05
-7.51007e-22
-5e-05
-1.51458e-21
-5e-05
1.60789e-21
-5e-05
8.66141e-22
-5e-05
4.67918e-21
-5e-05
8.57294e-21
-5e-05
4.79855e-21
-5e-05
1.1713e-21
-5e-05
1.42368e-22
-5e-05
6.79062e-22
-5e-05
3.65946e-21
-5e-05
3.52098e-21
-5e-05
-4.35449e-22
-5e-05
-1.82769e-21
-5e-05
-5.67385e-21
-5e-05
-8.37991e-21
-6.21026e-21
-5e-05
2.55358e-18
-5e-05
-5.57377e-19
-5e-05
1.24332e-19
-5e-05
-3.16103e-20
-5e-05
8.84554e-21
-5e-05
-1.57597e-21
-5e-05
-4.78799e-21
-5e-05
-1.32661e-21
-5e-05
4.73158e-21
-5e-05
4.01377e-21
-5e-05
2.41671e-21
-5e-05
-7.99477e-22
-5e-05
-4.56751e-21
-5e-05
-9.36073e-21
-5e-05
-9.91453e-21
-5e-05
-6.97514e-21
-5e-05
-3.66364e-21
-5e-05
-3.60142e-21
-5e-05
-4.42206e-21
-4.31955e-21
-5e-05
-2.524e-18
-5e-05
5.69662e-19
-5e-05
-1.32677e-19
-5e-05
3.43332e-20
-5e-05
1.81572e-21
-5e-05
1.09048e-20
-5e-05
4.24251e-21
-5e-05
8.72998e-22
-5e-05
-3.79753e-21
-5e-05
-6.49047e-21
-5e-05
-4.47583e-21
-5e-05
-6.81469e-21
-5e-05
-1.01891e-20
-5e-05
-1.2183e-20
-5e-05
-1.11441e-20
-5e-05
-7.22996e-21
-5e-05
-4.17576e-21
-5e-05
-9.71456e-22
-5e-05
-1.89504e-21
-2.83146e-21
-5e-05
6.17841e-19
-5e-05
-1.34519e-19
-5e-05
3.6798e-20
-5e-05
-3.45699e-21
-5e-05
6.38088e-21
-5e-05
6.48006e-21
-5e-05
4.43824e-21
-5e-05
-1.18049e-21
-5e-05
-1.05744e-20
-5e-05
-9.33086e-21
-5e-05
-4.30559e-21
-5e-05
-3.79589e-21
-5e-05
-3.79623e-21
-5e-05
-2.35583e-21
-5e-05
-4.11796e-21
-5e-05
-4.46303e-21
-5e-05
-4.45737e-21
-5e-05
-5.44669e-22
-5e-05
6.01322e-22
6.43479e-22
-5e-05
2.28879e-18
-5e-05
-5.15188e-19
-5e-05
1.14603e-19
-5e-05
-2.77574e-20
-5e-05
6.70118e-21
-5e-05
-3.95467e-21
-5e-05
-4.12626e-21
-5e-05
-6.20015e-21
-5e-05
-1.01357e-20
-5e-05
-6.15926e-21
-5e-05
-2.8655e-21
-5e-05
-2.02639e-21
-5e-05
-2.03416e-21
-5e-05
-4.69349e-21
-5e-05
-6.62207e-21
-5e-05
-3.06881e-21
-5e-05
-5.92377e-22
-5e-05
-1.44795e-21
-5e-05
1.69765e-21
3.36079e-21
-5e-05
-2.3047e-18
-5e-05
5.07654e-19
-5e-05
-1.29557e-19
-5e-05
2.4185e-20
-5e-05
-6.39051e-21
-5e-05
1.81769e-21
-5e-05
1.97464e-21
-5e-05
1.14649e-21
-5e-05
-2.3936e-21
-5e-05
-6.33038e-21
-5e-05
-9.38632e-21
-5e-05
-1.00649e-20
-5e-05
-9.50906e-21
-5e-05
-9.22602e-21
-5e-05
-5.17477e-21
-5e-05
-3.00078e-22
-5e-05
6.58025e-22
-5e-05
-3.6673e-21
-5e-05
-1.98698e-21
5.26806e-22
-5e-05
6.9066e-19
-5e-05
-1.41361e-19
-5e-05
3.56771e-20
-5e-05
-7.27348e-21
-5e-05
4.25019e-23
-5e-05
3.71557e-21
-5e-05
7.85709e-21
-5e-05
6.53196e-21
-5e-05
3.58088e-21
-5e-05
-3.07052e-21
-5e-05
-9.44708e-21
-5e-05
-1.1233e-20
-5e-05
-8.49594e-21
-5e-05
-4.1573e-21
-5e-05
1.1572e-22
-5e-05
-1.12877e-21
-5e-05
-2.32138e-21
-5e-05
-2.04893e-21
-5e-05
-3.49798e-21
-2.87627e-21
-5e-05
1.33458e-19
-5e-05
-4.13389e-20
-5e-05
2.0431e-20
-5e-05
1.05612e-21
-5e-05
2.96627e-21
-5e-05
4.16862e-21
-5e-05
5.34937e-21
-5e-05
5.0252e-21
-5e-05
4.32508e-21
-5e-05
-1.82205e-21
-5e-05
-8.7549e-21
-5e-05
-1.12373e-20
-5e-05
-7.59912e-21
-5e-05
-1.63737e-21
-5e-05
3.82079e-21
-5e-05
1.11552e-21
-5e-05
-2.89111e-22
-5e-05
2.96311e-21
-5e-05
-5.22417e-23
-3.10817e-21
-5e-05
-2.65235e-19
-5e-05
5.65203e-20
-5e-05
-4.48723e-21
-5e-05
5.76708e-21
-5e-05
-6.26721e-22
-5e-05
2.38144e-23
-5e-05
1.90659e-21
-5e-05
4.11496e-21
-5e-05
4.2667e-21
-5e-05
4.07233e-22
-5e-05
-6.66694e-21
-5e-05
-8.69124e-21
-5e-05
-5.12159e-21
-5e-05
8.27553e-22
-5e-05
5.95395e-21
-5e-05
4.49631e-21
-5e-05
1.02096e-21
-5e-05
3.17366e-21
-5e-05
2.67837e-21
-1.31351e-21
-5e-05
1.47303e-18
-5e-05
-3.20906e-19
-5e-05
7.471e-20
-5e-05
-1.87084e-20
-5e-05
-3.7411e-21
-5e-05
-8.54153e-21
-5e-05
-1.83997e-21
-5e-05
3.2629e-21
-5e-05
7.38859e-21
-5e-05
8.74948e-21
-5e-05
5.90953e-22
-5e-05
-2.69134e-21
-5e-05
-1.80371e-21
-5e-05
-3.50444e-22
-5e-05
-3.59455e-22
-5e-05
5.15005e-23
-5e-05
-1.73591e-21
-5e-05
-3.07963e-21
-5e-05
-1.23563e-21
-4.51576e-22
-5e-05
-2.51586e-18
-5e-05
5.36022e-19
-5e-05
-1.34526e-19
-5e-05
2.4731e-20
-5e-05
-1.21185e-20
-5e-05
-7.61647e-21
-5e-05
-5.53863e-21
-5e-05
-3.11767e-23
-5e-05
5.73845e-21
-5e-05
6.82235e-21
-5e-05
2.74207e-21
-5e-05
7.14755e-23
-5e-05
-1.07065e-21
-5e-05
-4.06217e-21
-5e-05
-4.19203e-21
-5e-05
-1.32511e-21
-5e-05
-1.11018e-21
-5e-05
-7.95932e-21
-5e-05
-8.42497e-21
-1.30411e-21
-5e-05
1.7706e-18
-5e-05
-3.84432e-19
-5e-05
8.2689e-20
-5e-05
-1.97392e-20
-5e-05
3.04245e-21
-5e-05
-1.4243e-21
-5e-05
-7.17181e-24
-5e-05
-2.09454e-21
-5e-05
-2.61332e-21
-5e-05
-3.89923e-21
-5e-05
-1.43039e-21
-5e-05
-1.53991e-21
-5e-05
9.5808e-23
-5e-05
-1.57327e-22
-5e-05
-1.75005e-21
-5e-05
-2.62276e-21
-5e-05
-2.45087e-21
-5e-05
-6.62708e-21
-5e-05
-6.71438e-21
1.75547e-22
-5e-05
1.32673e-18
-5e-05
-2.92332e-19
-5e-05
6.83267e-20
-5e-05
-1.65577e-20
-5e-05
3.10977e-21
-5e-05
3.0114e-21
-5e-05
9.1877e-22
-5e-05
-9.09631e-21
-5e-05
-1.21175e-20
-5e-05
-1.04774e-20
-5e-05
-5.10509e-21
-5e-05
-2.1902e-21
-5e-05
1.8218e-22
-5e-05
1.9427e-21
-5e-05
-3.38852e-21
-5e-05
-7.83813e-21
-5e-05
-6.1262e-21
-5e-05
-3.51926e-21
-5e-05
-1.56335e-21
1.64649e-21
-5e-05
-3.07939e-18
-5e-05
6.74284e-19
-5e-05
-1.52454e-19
-5e-05
3.41791e-20
-5e-05
-1.02155e-20
-5e-05
-2.64536e-21
-5e-05
-1.0765e-20
-5e-05
-1.44714e-20
-5e-05
-1.16798e-20
-5e-05
-9.55146e-21
-5e-05
-4.61161e-21
-5e-05
2.1973e-21
-5e-05
4.74858e-22
-5e-05
-3.419e-21
-5e-05
-6.07396e-21
-5e-05
-7.49393e-21
-5e-05
-3.41512e-21
-5e-05
1.10942e-21
-5e-05
1.53815e-21
1.19253e-21
-5e-05
2.16111e-18
-5e-05
-4.48713e-19
-5e-05
1.13368e-19
-5e-05
-2.19036e-20
-5e-05
-6.65865e-22
-5e-05
-1.08702e-20
-5e-05
-1.30188e-20
-5e-05
-9.2021e-21
-5e-05
-6.57242e-21
-5e-05
-7.89892e-21
-5e-05
-5.27425e-21
-5e-05
1.67246e-21
-5e-05
-8.84505e-22
-5e-05
-5.49019e-21
-5e-05
-3.48424e-21
-5e-05
-1.8747e-21
-5e-05
2.22399e-21
-5e-05
5.17205e-21
-5e-05
4.66917e-21
1.65811e-21
-5e-05
1.86999e-18
-5e-05
-4.21944e-19
-5e-05
9.44067e-20
-5e-05
-3.00607e-20
-5e-05
-2.88706e-21
-5e-05
-1.05902e-20
-5e-05
-9.20957e-21
-5e-05
-6.79047e-21
-5e-05
-5.99388e-21
-5e-05
-5.06472e-21
-5e-05
-2.27203e-21
-5e-05
-2.30274e-22
-5e-05
-1.37262e-21
-5e-05
-3.80098e-21
-5e-05
-2.2688e-21
-5e-05
3.57996e-22
-5e-05
2.78615e-21
-5e-05
4.77247e-21
-5e-05
4.8826e-21
1.41971e-21
-5e-05
-3.20886e-18
-5e-05
6.60469e-19
-5e-05
-1.71252e-19
-5e-05
2.11674e-20
-5e-05
-1.37e-20
-5e-05
-5.01868e-21
-5e-05
-5.54636e-21
-5e-05
-3.49426e-21
-5e-05
-8.67207e-22
-5e-05
1.64812e-21
-5e-05
3.67248e-21
-5e-05
1.12376e-21
-5e-05
-6.42726e-22
-5e-05
-4.02648e-21
-5e-05
-5.29287e-21
-5e-05
-2.4802e-21
-5e-05
-2.32344e-22
-5e-05
3.22531e-21
-5e-05
2.48171e-21
-2.86527e-22
-5e-05
-5e-05
-5e-05
-5e-05
-5e-05
-5e-05
-5e-05
-5e-05
-5e-05
-5e-05
-5e-05
-5e-05
-5e-05
-5e-05
-5e-05
-5e-05
-5e-05
-5e-05
-5e-05
)
;

boundaryField
{
    movingWall
    {
        type            calculated;
        value           uniform -0;
    }
    fixedWalls
    {
        type            calculated;
        value           nonuniform List<scalar> 
60
(
5e-05
5e-05
5e-05
5e-05
5e-05
5e-05
5e-05
5e-05
5e-05
5e-05
5e-05
5e-05
5e-05
5e-05
5e-05
5e-05
5e-05
5e-05
5e-05
5e-05
-5e-05
-5e-05
-5e-05
-5e-05
-5e-05
-5e-05
-5e-05
-5e-05
-5e-05
-5e-05
-5e-05
-5e-05
-5e-05
-5e-05
-5e-05
-5e-05
-5e-05
-5e-05
-5e-05
-5e-05
0
0
0
0
0
0
0
0
0
0
0
0
0
0
0
0
0
0
0
0
)
;
    }
    frontAndBack
    {
        type            empty;
        value           nonuniform List<scalar> 0();
    }
}


// ************************************************************************* //
