/*--------------------------------*- C++ -*----------------------------------*\
| =========                 |                                                 |
| \\      /  F ield         | OpenFOAM: The Open Source CFD Toolbox           |
|  \\    /   O peration     | Version:  2312                                  |
|   \\  /    A nd           | Website:  www.openfoam.com                      |
|    \\/     M anipulation  |                                                 |
\*---------------------------------------------------------------------------*/
FoamFile
{
    version     2.0;
    format      ascii;
    arch        "LSB;label=32;scalar=64";
    class       volVectorField;
    location    "6.5";
    object      gradPhi;
}
// * * * * * * * * * * * * * * * * * * * * * * * * * * * * * * * * * * * * * //

dimensions      [0 2 -1 0 0 0 0];

internalField   nonuniform List<vector> 
400
(
(-0.02 7.45385e-17 0)
(1.27386e-16 -1.27395e-16 0)
(-3.97047e-17 3.99406e-17 0)
(3.30872e-18 -2.72108e-18 0)
(-4.96308e-18 3.73765e-18 0)
(0 1.98517e-18 0)
(-1.65436e-18 9.87596e-19 0)
(-1.65436e-18 8.25703e-19 0)
(-1.65436e-18 1.22681e-18 0)
(-1.65436e-18 1.31533e-18 0)
(0 4.58493e-19 0)
(0 1.22232e-18 0)
(-3.30872e-18 2.44534e-18 0)
(-1.65436e-18 1.44517e-18 0)
(1.65436e-18 -5.65902e-19 0)
(1.65436e-18 -2.06109e-18 0)
(1.65436e-18 -5.32351e-19 0)
(-1.65436e-18 3.30982e-19 0)
(1.65436e-18 -9.06414e-19 0)
(0 3.53662e-19 0)
(-0.02 -1.64317e-16 0)
(-2.31611e-16 2.33448e-16 0)
(7.27919e-17 -7.28589e-17 0)
(-8.27181e-18 8.40022e-18 0)
(3.30872e-18 -3.30208e-18 0)
(0 -5.71917e-19 0)
(0 7.5449e-19 0)
(-1.65436e-18 5.23438e-19 0)
(1.65436e-18 -1.0415e-18 0)
(1.65436e-18 -1.61535e-18 0)
(0 5.30321e-20 0)
(0 7.91111e-20 0)
(1.65436e-18 -5.0289e-19 0)
(0 -7.33396e-20 0)
(-1.65436e-18 9.19201e-19 0)
(-1.65436e-18 2.3976e-18 0)
(-1.65436e-18 1.24341e-18 0)
(1.65436e-18 -4.52648e-19 0)
(0 -1.26426e-18 0)
(1.65436e-18 -2.24339e-18 0)
(-0.02 6.26102e-17 0)
(7.7755e-17 -7.7574e-17 0)
(-2.64698e-17 2.66084e-17 0)
(6.61744e-18 -5.94156e-18 0)
(1.65436e-18 -1.34904e-18 0)
(0 -1.0156e-18 0)
(1.65436e-18 -1.98583e-18 0)
(1.65436e-18 -2.64557e-19 0)
(-3.30872e-18 2.67813e-18 0)
(-1.65436e-18 1.90238e-18 0)
(0 -4.4335e-19 0)
(1.65436e-18 -1.32561e-18 0)
(1.65436e-18 -2.79149e-18 0)
(1.65436e-18 -9.9625e-19 0)
(-1.65436e-18 9.05104e-19 0)
(0 -2.85116e-19 0)
(1.65436e-18 -9.41292e-19 0)
(1.65436e-18 -1.27289e-18 0)
(-1.65436e-18 9.15453e-19 0)
(-1.65436e-18 6.26733e-19 0)
(-0.02 1.06648e-16 0)
(1.22423e-16 -1.21467e-16 0)
(-2.97785e-17 3.08105e-17 0)
(4.96308e-18 -4.8822e-18 0)
(-1.65436e-18 2.95853e-18 0)
(0 -6.0882e-19 0)
(0 -7.00342e-19 0)
(1.65436e-18 -1.91464e-18 0)
(1.65436e-18 -2.73304e-18 0)
(3.30872e-18 -1.08837e-18 0)
(-1.65436e-18 3.32275e-19 0)
(0 -2.31672e-19 0)
(0 1.05233e-18 0)
(1.65436e-18 -1.52813e-18 0)
(3.30872e-18 -3.58347e-18 0)
(1.65436e-18 -1.77698e-18 0)
(0 -5.88717e-19 0)
(-1.65436e-18 7.6366e-19 0)
(0 -1.23144e-19 0)
(0 4.22822e-19 0)
(-0.02 -1.43316e-16 0)
(-1.86943e-16 1.87669e-16 0)
(5.12852e-17 -5.11997e-17 0)
(-1.15805e-17 1.08577e-17 0)
(1.65436e-18 -1.57526e-18 0)
(-1.65436e-18 2.48299e-18 0)
(-1.65436e-18 2.17623e-18 0)
(-3.30872e-18 1.32252e-18 0)
(1.65436e-18 -1.56395e-19 0)
(1.65436e-18 -1.37575e-18 0)
(0 -8.89187e-19 0)
(1.65436e-18 -9.80697e-19 0)
(1.65436e-18 -2.94986e-18 0)
(1.65436e-18 -2.17717e-18 0)
(1.65436e-18 -1.5247e-19 0)
(0 2.60314e-19 0)
(0 -3.35494e-19 0)
(-1.65436e-18 2.72912e-19 0)
(-1.65436e-18 1.53761e-18 0)
(0 2.76829e-19 0)
(-0.02 8.54899e-17 0)
(1.20768e-16 -1.20083e-16 0)
(-3.63959e-17 3.46261e-17 0)
(6.61744e-18 -5.6905e-18 0)
(0 5.23461e-19 0)
(0 -1.11288e-18 0)
(0 -3.64667e-19 0)
(0 -1.91499e-19 0)
(1.65436e-18 -2.33763e-18 0)
(1.65436e-18 -1.6445e-18 0)
(0 -6.02788e-19 0)
(0 4.30526e-19 0)
(-1.65436e-18 1.98561e-18 0)
(-1.65436e-18 3.47842e-18 0)
(-3.30872e-18 1.97692e-18 0)
(0 1.1479e-18 0)
(-1.65436e-18 5.15562e-19 0)
(0 3.39249e-19 0)
(0 -4.25644e-19 0)
(0 3.46313e-19 0)
(-0.02 4.88318e-17 0)
(5.79026e-17 -5.76782e-17 0)
(-1.48893e-17 1.49121e-17 0)
(4.96308e-18 -4.98384e-18 0)
(-1.65436e-18 5.22513e-19 0)
(1.65436e-18 -1.9061e-18 0)
(1.65436e-18 -2.25207e-18 0)
(1.65436e-18 -2.2361e-18 0)
(0 -5.54824e-19 0)
(-1.65436e-18 1.21875e-18 0)
(0 5.91228e-19 0)
(-1.65436e-18 5.67875e-19 0)
(0 8.24713e-19 0)
(0 -1.05616e-18 0)
(1.65436e-18 -6.92779e-19 0)
(1.65436e-18 -1.1334e-18 0)
(0 5.78434e-20 0)
(0 -3.83705e-19 0)
(0 8.96902e-19 0)
(-1.65436e-18 1.92992e-18 0)
(-0.02 -1.11375e-16 0)
(-1.57164e-16 1.56585e-16 0)
(4.96308e-17 -4.93373e-17 0)
(-8.27181e-18 8.08833e-18 0)
(3.30872e-18 -2.62499e-18 0)
(-1.65436e-18 1.16097e-18 0)
(-1.65436e-18 2.21636e-18 0)
(-1.65436e-18 2.33534e-18 0)
(-3.30872e-18 3.28043e-18 0)
(0 5.06401e-19 0)
(1.65436e-18 -1.64074e-18 0)
(1.65436e-18 -2.3002e-18 0)
(1.65436e-18 -2.45723e-18 0)
(1.65436e-18 -1.33386e-18 0)
(1.65436e-18 -5.57752e-19 0)
(-1.65436e-18 1.83234e-18 0)
(-1.65436e-18 1.57334e-18 0)
(0 -2.71858e-19 0)
(1.65436e-18 -1.3382e-18 0)
(1.65436e-18 -2.05941e-18 0)
(-0.02 4.94273e-17 0)
(8.43724e-17 -8.51273e-17 0)
(-3.30872e-17 3.40214e-17 0)
(3.30872e-18 -3.22647e-18 0)
(-1.65436e-18 8.89105e-19 0)
(0 2.3958e-19 0)
(0 7.45173e-19 0)
(-1.65436e-18 8.89116e-19 0)
(0 7.28225e-20 0)
(0 -1.33399e-19 0)
(0 5.44908e-19 0)
(-1.65436e-18 9.13131e-19 0)
(0 9.09407e-19 0)
(-1.65436e-18 1.61509e-18 0)
(-1.65436e-18 2.56892e-18 0)
(0 -7.5114e-19 0)
(3.30872e-18 -2.19466e-18 0)
(0 1.33073e-19 0)
(0 1.11753e-19 0)
(0 -4.45334e-19 0)
(-0.02 -9.19885e-18 0)
(-9.92617e-18 1.01382e-17 0)
(3.30872e-18 -3.72493e-18 0)
(0 1.23545e-19 0)
(0 3.73787e-19 0)
(0 1.86337e-19 0)
(0 -4.66015e-19 0)
(0 1.64642e-20 0)
(0 6.70548e-19 0)
(-1.65436e-18 6.41464e-19 0)
(1.65436e-18 -4.53946e-19 0)
(0 -1.17499e-18 0)
(0 8.3149e-20 0)
(0 4.15771e-19 0)
(0 -4.56448e-19 0)
(0 7.02196e-19 0)
(0 1.19493e-18 0)
(-1.65436e-18 1.13602e-18 0)
(0 5.82248e-19 0)
(0 2.53624e-19 0)
(-0.02 2.19105e-17 0)
(1.98523e-17 -2.07289e-17 0)
(3.30872e-18 -3.67709e-18 0)
(1.65436e-18 -2.90703e-19 0)
(-1.65436e-18 5.94086e-19 0)
(1.65436e-18 -7.97719e-19 0)
(0 -9.4543e-19 0)
(0 -8.08127e-19 0)
(0 -1.59788e-19 0)
(1.65436e-18 -2.01964e-20 0)
(-1.65436e-18 8.06804e-19 0)
(-1.65436e-18 1.77576e-18 0)
(0 3.49959e-19 0)
(0 -1.02975e-19 0)
(-1.65436e-18 1.08277e-18 0)
(0 6.77252e-19 0)
(0 6.66173e-19 0)
(0 6.15673e-19 0)
(-1.65436e-18 8.54504e-19 0)
(0 -2.5079e-20 0)
(-0.02 -2.35514e-17 0)
(-1.48893e-17 1.38181e-17 0)
(-1.32349e-17 1.35197e-17 0)
(0 -4.03502e-19 0)
(1.65436e-18 -2.42275e-18 0)
(3.30872e-18 -1.67034e-18 0)
(0 -3.74289e-19 0)
(0 5.43313e-19 0)
(0 3.07339e-19 0)
(-3.30872e-18 2.7874e-18 0)
(0 1.54609e-18 0)
(0 -3.38745e-19 0)
(0 1.65717e-19 0)
(-1.65436e-18 7.86e-19 0)
(1.65436e-18 -1.64043e-18 0)
(0 -1.04961e-18 0)
(0 -1.44353e-18 0)
(3.30872e-18 -2.69804e-18 0)
(1.65436e-18 -1.23279e-18 0)
(-1.65436e-18 1.45903e-18 0)
(-0.02 -1.43864e-17 0)
(-5.29396e-17 5.38806e-17 0)
(3.80503e-17 -3.91697e-17 0)
(-3.30872e-18 2.37795e-18 0)
(0 6.14935e-19 0)
(0 -2.49429e-20 0)
(0 -9.70612e-19 0)
(1.65436e-18 -1.41832e-18 0)
(0 -1.02803e-19 0)
(1.65436e-18 -1.23085e-18 0)
(0 1.75483e-19 0)
(-3.30872e-18 1.71275e-18 0)
(-1.65436e-18 1.08401e-18 0)
(1.65436e-18 -1.38751e-18 0)
(1.65436e-18 -6.42381e-19 0)
(0 -5.77971e-19 0)
(0 6.83519e-19 0)
(0 6.327e-19 0)
(1.65436e-18 -1.49586e-18 0)
(1.65436e-18 -2.32248e-18 0)
(-0.02 4.47127e-17 0)
(8.10637e-17 -8.05418e-17 0)
(-4.1359e-17 4.02876e-17 0)
(3.30872e-18 -3.74721e-18 0)
(-1.65436e-18 5.50568e-19 0)
(0 1.31062e-18 0)
(-1.65436e-18 8.43289e-19 0)
(0 -2.82495e-19 0)
(1.65436e-18 -1.34099e-18 0)
(3.30872e-18 -2.3134e-18 0)
(1.65436e-18 -8.58579e-19 0)
(0 -5.79305e-19 0)
(0 1.10393e-19 0)
(0 5.00548e-19 0)
(0 3.15785e-19 0)
(-1.65436e-18 6.26641e-19 0)
(1.65436e-18 -6.29345e-20 0)
(0 -8.22642e-19 0)
(0 6.28834e-19 0)
(-1.65436e-18 1.96646e-18 0)
(-0.02 3.16687e-17 0)
(2.64698e-17 -2.80968e-17 0)
(-1.65436e-18 3.02333e-19 0)
(1.65436e-18 -1.11238e-18 0)
(-1.65436e-18 9.55946e-19 0)
(-1.65436e-18 8.41615e-19 0)
(0 1.13116e-18 0)
(0 -2.71032e-19 0)
(4.96308e-18 -2.58016e-18 0)
(1.65436e-18 -9.88024e-19 0)
(0 -3.55394e-19 0)
(0 -3.16526e-19 0)
(0 -1.0037e-18 0)
(0 1.04854e-18 0)
(0 5.32012e-20 0)
(0 -1.71761e-18 0)
(1.65436e-18 -1.34762e-18 0)
(0 8.47564e-19 0)
(-1.65436e-18 7.25024e-19 0)
(0 -1.2622e-19 0)
(-0.02 -1.30534e-16 0)
(-1.73708e-16 1.75093e-16 0)
(4.46678e-17 -4.61185e-17 0)
(-8.27181e-18 7.94694e-18 0)
(1.65436e-18 -1.68887e-18 0)
(0 -7.20469e-19 0)
(4.96308e-18 -2.96282e-18 0)
(1.65436e-18 -2.73407e-18 0)
(0 2.65727e-19 0)
(0 -1.28892e-19 0)
(0 -3.20097e-19 0)
(0 1.04486e-18 0)
(0 1.29246e-18 0)
(0 -1.13634e-18 0)
(0 -7.36355e-19 0)
(0 1.02697e-19 0)
(0 9.93414e-19 0)
(-1.65436e-18 1.24867e-18 0)
(0 1.05679e-18 0)
(0 -4.59441e-19 0)
(-0.02 1.29737e-16 0)
(1.8198e-16 -1.81392e-16 0)
(-5.45939e-17 5.38375e-17 0)
(6.61744e-18 -7.22141e-18 0)
(0 5.84859e-19 0)
(1.65436e-18 -2.14672e-18 0)
(0 -8.3874e-19 0)
(-1.65436e-18 2.08174e-18 0)
(-1.65436e-18 1.50728e-18 0)
(0 8.17981e-19 0)
(0 -2.39072e-19 0)
(0 1.21932e-19 0)
(0 -4.32475e-19 0)
(0 -5.49735e-19 0)
(0 2.62611e-19 0)
(0 7.40891e-19 0)
(0 2.50021e-19 0)
(-1.65436e-18 7.39127e-19 0)
(0 5.73597e-19 0)
(0 4.82323e-19 0)
(-0.02 1.57348e-17 0)
(9.92617e-18 -9.9682e-18 0)
(4.96308e-18 -3.78607e-18 0)
(1.65436e-18 -3.20532e-18 0)
(0 1.51894e-19 0)
(0 5.84381e-19 0)
(-1.65436e-18 1.36719e-18 0)
(0 1.86671e-19 0)
(0 -4.99422e-19 0)
(0 2.66834e-19 0)
(0 7.96966e-19 0)
(1.65436e-18 -1.07569e-18 0)
(1.65436e-18 -1.24946e-18 0)
(0 -3.3489e-19 0)
(-1.65436e-18 8.11378e-19 0)
(-1.65436e-18 1.71881e-18 0)
(0 1.93706e-18 0)
(0 -3.93772e-19 0)
(0 -3.32085e-19 0)
(0 2.23594e-19 0)
(-0.02 -1.48295e-16 0)
(-1.9356e-16 1.93262e-16 0)
(5.29396e-17 -5.32899e-17 0)
(-6.61744e-18 8.02727e-18 0)
(0 -2.01288e-18 0)
(0 3.80316e-19 0)
(0 4.19435e-19 0)
(0 6.17615e-19 0)
(-1.65436e-18 1.69029e-18 0)
(-1.65436e-18 1.49662e-18 0)
(-1.65436e-18 1.50625e-18 0)
(-1.65436e-18 7.42768e-19 0)
(0 1.50334e-18 0)
(-1.65436e-18 1.23142e-18 0)
(1.65436e-18 -1.08704e-18 0)
(1.65436e-18 -1.70709e-18 0)
(3.30872e-18 -2.5053e-18 0)
(0 -9.75753e-20 0)
(-1.65436e-18 -7.54791e-20 0)
(1.65436e-18 -1.05402e-18 0)
(-0.02 7.36654e-17 0)
(1.12497e-16 -1.13842e-16 0)
(-3.47416e-17 3.42959e-17 0)
(3.30872e-18 -2.39582e-18 0)
(-1.65436e-18 2.51853e-18 0)
(-3.30872e-18 1.40352e-18 0)
(0 1.2199e-18 0)
(0 7.78922e-19 0)
(-1.65436e-18 -1.92828e-19 0)
(1.65436e-18 -4.14424e-19 0)
(0 -1.00837e-18 0)
(0 -2.87594e-19 0)
(0 -4.19303e-19 0)
(0 1.55391e-19 0)
(0 1.21914e-18 0)
(-1.65436e-18 8.53372e-19 0)
(0 8.36638e-19 0)
(0 -6.66489e-19 0)
(0 -6.88845e-19 0)
(0 3.94058e-19 0)
)
;

boundaryField
{
    movingWall
    {
        type            extrapolatedCalculated;
        value           nonuniform List<vector> 
20
(
(-0.02 7.36654e-17 0)
(1.12497e-16 -1.13842e-16 0)
(-3.47416e-17 3.42959e-17 0)
(3.30872e-18 -2.39582e-18 0)
(-1.65436e-18 2.51853e-18 0)
(-3.30872e-18 1.40352e-18 0)
(0 1.2199e-18 0)
(0 7.78922e-19 0)
(-1.65436e-18 -1.92828e-19 0)
(1.65436e-18 -4.14424e-19 0)
(0 -1.00837e-18 0)
(0 -2.87594e-19 0)
(0 -4.19303e-19 0)
(0 1.55391e-19 0)
(0 1.21914e-18 0)
(-1.65436e-18 8.53372e-19 0)
(0 8.36638e-19 0)
(0 -6.66489e-19 0)
(0 -6.88845e-19 0)
(0 3.94058e-19 0)
)
;
    }
    fixedWalls
    {
        type            extrapolatedCalculated;
        value           nonuniform List<vector> 
60
(
(-0.02 7.45385e-17 0)
(-0.02 -1.64317e-16 0)
(-0.02 6.26102e-17 0)
(-0.02 1.06648e-16 0)
(-0.02 -1.43316e-16 0)
(-0.02 8.54899e-17 0)
(-0.02 4.88318e-17 0)
(-0.02 -1.11375e-16 0)
(-0.02 4.94273e-17 0)
(-0.02 -9.19885e-18 0)
(-0.02 2.19105e-17 0)
(-0.02 -2.35514e-17 0)
(-0.02 -1.43864e-17 0)
(-0.02 4.47127e-17 0)
(-0.02 3.16687e-17 0)
(-0.02 -1.30534e-16 0)
(-0.02 1.29737e-16 0)
(-0.02 1.57348e-17 0)
(-0.02 -1.48295e-16 0)
(-0.02 7.36654e-17 0)
(0 3.53662e-19 0)
(1.65436e-18 -2.24339e-18 0)
(-1.65436e-18 6.26733e-19 0)
(0 4.22822e-19 0)
(0 2.76829e-19 0)
(0 3.46313e-19 0)
(-1.65436e-18 1.92992e-18 0)
(1.65436e-18 -2.05941e-18 0)
(0 -4.45334e-19 0)
(0 2.53624e-19 0)
(0 -2.5079e-20 0)
(-1.65436e-18 1.45903e-18 0)
(1.65436e-18 -2.32248e-18 0)
(-1.65436e-18 1.96646e-18 0)
(0 -1.2622e-19 0)
(0 -4.59441e-19 0)
(0 4.82323e-19 0)
(0 2.23594e-19 0)
(1.65436e-18 -1.05402e-18 0)
(0 3.94058e-19 0)
(-0.02 7.45385e-17 0)
(1.27386e-16 -1.27395e-16 0)
(-3.97047e-17 3.99406e-17 0)
(3.30872e-18 -2.72108e-18 0)
(-4.96308e-18 3.73765e-18 0)
(0 1.98517e-18 0)
(-1.65436e-18 9.87596e-19 0)
(-1.65436e-18 8.25703e-19 0)
(-1.65436e-18 1.22681e-18 0)
(-1.65436e-18 1.31533e-18 0)
(0 4.58493e-19 0)
(0 1.22232e-18 0)
(-3.30872e-18 2.44534e-18 0)
(-1.65436e-18 1.44517e-18 0)
(1.65436e-18 -5.65902e-19 0)
(1.65436e-18 -2.06109e-18 0)
(1.65436e-18 -5.32351e-19 0)
(-1.65436e-18 3.30982e-19 0)
(1.65436e-18 -9.06414e-19 0)
(0 3.53662e-19 0)
)
;
    }
    frontAndBack
    {
        type            empty;
    }
}


// ************************************************************************* //
