/*--------------------------------*- C++ -*----------------------------------*\
| =========                 |                                                 |
| \\      /  F ield         | OpenFOAM: The Open Source CFD Toolbox           |
|  \\    /   O peration     | Version:  2312                                  |
|   \\  /    A nd           | Website:  www.openfoam.com                      |
|    \\/     M anipulation  |                                                 |
\*---------------------------------------------------------------------------*/
FoamFile
{
    version     2.0;
    format      ascii;
    arch        "LSB;label=32;scalar=64";
    class       volScalarField;
    location    "6.5";
    object      initialResidual:Uy;
}
// * * * * * * * * * * * * * * * * * * * * * * * * * * * * * * * * * * * * * //

dimensions      [0 0 0 0 0 0 0];

internalField   nonuniform List<scalar> 
400
(
-2.09245e-20
-1.67507e-20
4.15306e-21
6.39817e-21
1.66485e-21
-7.40015e-21
-5.70783e-21
2.4814e-23
1.42075e-21
3.07025e-22
4.02705e-22
4.53e-21
1.4263e-21
-5.26963e-21
-6.43978e-21
-3.15168e-21
2.5873e-21
2.20105e-21
-3.88426e-21
-1.12273e-21
-7.32045e-20
-1.56024e-20
-7.05962e-21
-1.49192e-21
-2.59683e-21
-7.17238e-21
-8.22042e-21
-2.74558e-21
-4.05942e-21
-7.03419e-22
-1.91419e-22
5.17256e-21
5.88408e-21
-1.44223e-21
-8.38658e-21
-5.36587e-21
7.12281e-21
-2.57292e-21
-1.30599e-20
-2.76846e-21
-7.17779e-20
4.99504e-22
-1.32665e-20
-1.96989e-20
-1.4963e-20
-7.46888e-21
-9.53618e-21
-4.0975e-21
3.05598e-23
6.38958e-22
-4.23366e-21
-6.74667e-21
-2.69392e-21
5.01764e-21
2.68836e-21
-8.11555e-22
-3.8767e-21
-6.12712e-21
-1.13722e-20
-3.28013e-21
-4.04581e-20
-1.98081e-20
-1.61763e-20
-1.59757e-20
-1.59518e-20
-1.79095e-20
-1.59817e-20
-5.08419e-21
6.04551e-21
2.82916e-21
-1.4091e-22
-5.77563e-21
-7.50365e-21
-5.6235e-21
-7.68568e-22
8.9302e-22
-1.11441e-20
-8.03378e-21
-1.03234e-20
-2.79151e-21
-7.19975e-21
-4.43162e-20
-2.56206e-20
-1.14014e-20
-6.97582e-21
-1.5499e-20
-1.06177e-20
-6.35461e-21
-1.59381e-21
-3.59934e-21
-3.41033e-22
-2.39614e-21
-6.62831e-21
-1.56188e-20
-8.8416e-21
-2.07695e-22
-3.74101e-21
-1.13538e-20
-1.53914e-20
-3.93836e-21
-1.77609e-20
-2.34424e-20
-1.73069e-20
-1.14007e-20
-4.71115e-21
-1.55129e-21
1.19182e-21
-1.34536e-20
-2.07465e-20
-1.53887e-20
-7.7137e-21
-6.79276e-21
-8.34498e-21
-6.88021e-21
-2.61088e-21
-6.1272e-21
-5.45258e-21
-5.64469e-21
-1.48896e-20
-5.1813e-21
-3.56511e-20
-6.91844e-21
-7.51724e-21
-6.21676e-21
-7.27677e-21
-7.11364e-21
-1.00582e-20
-1.53416e-20
-1.9661e-20
-1.23615e-20
-3.19713e-21
-2.48865e-21
-5.10184e-21
-3.37407e-21
-8.14369e-21
-8.4602e-21
-5.14127e-21
-6.53697e-21
-1.28186e-20
-1.86149e-21
-2.4511e-21
-3.17906e-20
-1.70773e-20
-1.04568e-20
-4.32045e-21
-8.55405e-21
-1.11468e-20
-7.52905e-21
-7.76613e-21
-1.08388e-20
-9.74563e-21
-5.5237e-21
-8.69386e-21
-7.21807e-21
-7.75535e-21
-1.73942e-21
-4.03948e-21
-1.12893e-20
-5.88475e-21
-2.32198e-21
1.94465e-20
-2.82938e-20
-1.7936e-20
-1.86094e-20
-1.07401e-20
-9.79576e-22
-1.22242e-21
-7.16117e-21
-1.18692e-20
-9.85074e-21
-1.4596e-20
-1.25314e-20
-8.17406e-21
-3.02903e-21
-1.75442e-21
-4.89804e-21
-6.12367e-21
-7.70313e-21
-7.78447e-21
-5.17248e-21
-1.83984e-20
4.50407e-21
-6.1847e-21
-1.30459e-20
-1.12575e-20
-8.68244e-21
-1.15026e-20
-1.23885e-20
-9.25753e-21
-2.79692e-21
-1.05868e-20
-1.38483e-20
-6.89842e-21
-5.1632e-21
-9.60822e-21
-1.31444e-20
-9.96944e-21
-4.82173e-21
-1.13326e-20
-4.46545e-21
-6.25918e-20
2.01996e-20
-1.03601e-20
-6.18475e-21
-3.73453e-21
-1.16124e-20
-1.63845e-20
-1.55851e-20
-1.07753e-20
-1.18735e-20
-1.33442e-20
-9.59596e-21
-7.82184e-21
-5.66888e-21
-4.57247e-21
-1.12925e-20
-1.08098e-20
-7.52121e-21
-1.33235e-20
-4.02424e-21
-1.26664e-21
-9.53054e-21
-3.58968e-21
-1.16568e-20
-1.66501e-20
-1.17491e-20
-6.57208e-21
-2.14844e-21
-4.31999e-21
-1.28274e-20
-1.3495e-20
-8.16878e-21
-7.78861e-21
-6.87417e-21
-4.29975e-21
-8.95544e-21
-9.65866e-21
-5.86976e-21
-1.24694e-20
-3.53232e-21
-2.79119e-20
-7.57446e-21
4.63296e-22
-7.65643e-21
-1.95498e-20
-1.33752e-20
8.34497e-22
4.97005e-21
4.11115e-21
-3.58948e-21
-9.45599e-21
-1.25066e-20
-1.06048e-20
-1.10752e-20
-9.77633e-21
-6.85755e-21
-8.1744e-21
-1.01164e-20
-1.07661e-20
-1.82594e-21
-2.17662e-20
-1.24292e-20
-5.68367e-21
-4.80734e-21
-6.33754e-21
-1.19427e-20
-3.12758e-21
1.42699e-21
-1.40925e-21
-7.73956e-21
-7.11691e-21
-4.26577e-21
2.59542e-22
-3.6863e-21
-9.84001e-21
-6.89463e-21
-7.88623e-21
-1.36418e-20
-9.45706e-21
1.82487e-22
1.71479e-20
-1.79029e-20
-8.29108e-21
-7.24848e-21
-3.01709e-21
1.73109e-21
4.5079e-22
-5.41579e-21
-1.15731e-20
-1.23248e-20
-6.98267e-21
-8.31517e-22
6.13138e-21
2.71028e-21
-9.91154e-21
-8.31015e-21
-6.72766e-21
-5.93377e-21
-5.49769e-21
-8.17459e-22
-2.50862e-20
5.90226e-21
-1.34938e-20
-7.38277e-21
-5.14634e-21
2.66366e-21
-4.94474e-21
-1.51508e-20
-1.15435e-20
-6.24465e-21
-3.72466e-21
-5.22844e-21
-2.3402e-21
-3.27509e-21
-5.56282e-21
-2.69101e-21
-3.72857e-21
-3.70302e-21
-3.26127e-21
-9.57127e-22
1.94688e-20
-1.17494e-20
-2.40711e-21
-8.83416e-21
-1.06982e-20
-1.12596e-20
-1.00619e-20
-5.25679e-21
-3.81002e-21
-7.13009e-21
-6.18403e-21
-3.74605e-21
-1.03613e-20
-9.45682e-21
-3.48463e-21
-2.00681e-21
-2.58969e-21
-8.82361e-22
-7.08221e-22
-4.94657e-22
1.57957e-20
-6.28796e-21
1.26609e-21
-4.36566e-21
-8.42558e-21
-1.01969e-20
-8.48765e-21
-3.68032e-21
-3.89709e-21
-4.51031e-21
-2.66619e-21
-4.47688e-21
-1.24981e-20
-1.02388e-20
-2.06903e-21
-4.27079e-21
1.23094e-21
4.53975e-21
-1.55564e-21
-1.70124e-21
-1.36518e-20
2.90897e-21
-8.38603e-21
-3.94661e-21
-3.60556e-21
-5.01046e-21
-9.4419e-21
-9.29684e-21
-4.98803e-21
2.0971e-21
3.57755e-21
-2.9217e-21
-9.52351e-21
-7.48649e-21
-2.94929e-21
-1.8231e-21
5.10121e-21
3.97024e-21
-5.56319e-21
-2.64872e-21
2.32974e-21
-1.90222e-21
-3.73731e-21
-2.67732e-21
-3.35898e-21
-3.0694e-21
-3.05425e-21
-2.68255e-21
-1.82664e-21
4.84332e-22
1.01454e-21
-4.11869e-22
-5.25762e-21
-2.7061e-21
-2.39821e-21
3.79305e-22
4.04e-21
1.06714e-21
-4.85742e-21
-1.64778e-21
)
;

boundaryField
{
    movingWall
    {
        type            zeroGradient;
    }
    fixedWalls
    {
        type            zeroGradient;
    }
    frontAndBack
    {
        type            empty;
    }
}


// ************************************************************************* //
