/*--------------------------------*- C++ -*----------------------------------*\
| =========                 |                                                 |
| \\      /  F ield         | OpenFOAM: The Open Source CFD Toolbox           |
|  \\    /   O peration     | Version:  2312                                  |
|   \\  /    A nd           | Website:  www.openfoam.com                      |
|    \\/     M anipulation  |                                                 |
\*---------------------------------------------------------------------------*/
FoamFile
{
    version     2.0;
    format      ascii;
    arch        "LSB;label=32;scalar=64";
    class       volScalarField;
    location    "6.5";
    object      initialResidual:p;
}
// * * * * * * * * * * * * * * * * * * * * * * * * * * * * * * * * * * * * * //

dimensions      [0 0 0 0 0 0 0];

internalField   nonuniform List<scalar> 
400
(
-1.55854e-19
5.74628e-20
-2.13951e-21
-1.28431e-20
5.15101e-21
-1.24316e-20
-1.15903e-20
-1.39272e-21
6.6016e-21
7.83566e-21
7.71568e-21
-4.01057e-21
1.8104e-21
1.59244e-20
-6.02499e-21
-9.46623e-21
4.2745e-22
-8.54606e-22
-4.88392e-21
1.88584e-26
-4.74334e-20
3.80041e-20
9.90237e-21
-1.72099e-20
-1.38247e-21
7.066e-22
-1.18291e-20
4.97721e-21
4.53957e-21
-1.1709e-21
1.91068e-20
-6.64562e-21
-3.35107e-20
8.12089e-21
1.83574e-20
3.92071e-21
-6.83005e-21
-6.75595e-21
5.84325e-21
-6.77624e-21
-3.38816e-20
1.6579e-20
1.49019e-20
-1.61918e-21
-7.7594e-21
-1.15009e-20
-2.07372e-20
-8.28136e-21
2.09788e-21
6.62577e-21
1.03971e-20
-5.26118e-21
2.08295e-21
-2.66038e-21
6.09047e-21
-2.14983e-21
-8.39684e-21
7.42357e-21
-5.03088e-21
6.77628e-21
-1.35526e-20
-5.47609e-21
-5.24807e-21
1.11988e-21
1.01927e-20
-4.44398e-21
-2.65063e-21
9.4127e-21
-3.07933e-22
-1.90423e-21
-1.57588e-20
2.17049e-20
4.16734e-22
7.59462e-21
-1.1383e-20
-4.312e-21
-1.13453e-21
-1.59673e-21
-8.1542e-21
3.54476e-26
-6.77632e-21
2.57901e-21
4.03937e-21
-1.03294e-20
1.26016e-20
-1.88167e-21
2.05633e-20
-8.53057e-21
6.2279e-21
6.77383e-21
-5.96926e-21
-1.28469e-20
-2.52325e-22
-2.81265e-21
7.44742e-21
-4.96705e-21
-6.30525e-21
-9.99208e-21
5.48781e-21
6.77627e-21
-6.7763e-21
6.95431e-21
1.80577e-20
7.02056e-22
2.06096e-20
7.21741e-21
-7.51636e-21
-1.44046e-20
-1.1204e-20
-4.32214e-21
-1.20006e-20
1.48191e-20
-1.41356e-20
7.62093e-21
2.16501e-21
7.31232e-21
-6.86566e-21
2.14961e-20
1.22178e-20
-6.77623e-21
-2.0564e-25
7.63636e-21
-8.59785e-21
5.50253e-21
-6.36176e-23
3.73108e-21
-1.40282e-20
1.25653e-21
1.08535e-20
-7.75984e-21
-1.92114e-20
1.79832e-21
1.44684e-20
2.97262e-20
-1.31714e-21
-6.82486e-21
-1.26231e-20
1.05288e-22
3.67892e-22
-2.24596e-28
2.0329e-20
-1.098e-20
-1.01147e-20
8.69921e-21
3.77088e-22
8.42213e-21
1.22053e-21
1.21616e-20
-1.67689e-20
9.76568e-21
9.21395e-21
-8.39475e-21
-6.99797e-21
-6.20292e-21
2.4532e-21
-1.01966e-20
1.57145e-20
-1.53492e-20
3.11997e-20
-1.35525e-20
-1.35528e-20
-3.50248e-21
-4.07506e-21
8.5057e-21
9.9276e-21
-6.79669e-21
-1.21054e-21
4.64236e-21
-1.01753e-20
-1.83383e-21
1.00754e-20
3.88036e-21
-2.01259e-20
8.50693e-21
1.43393e-20
-1.14873e-21
-2.14095e-20
2.90062e-20
4.48911e-22
-1.74464e-26
-2.7105e-20
1.49103e-20
-1.42012e-21
1.0636e-20
-2.05084e-21
-5.41075e-21
3.28401e-22
-1.26228e-20
-3.05266e-21
-1.78036e-21
1.68103e-20
3.93272e-21
6.88467e-21
-7.4716e-21
-1.68726e-20
-4.62277e-21
-2.42046e-21
-1.41569e-20
-7.31115e-21
1.35525e-20
6.77615e-21
-2.20757e-20
-1.63444e-20
2.38984e-20
4.47677e-21
3.56069e-21
2.58561e-21
3.16462e-21
1.07225e-20
-1.29399e-20
-1.88734e-20
-7.2594e-21
6.09612e-21
1.39678e-20
9.64481e-22
1.14285e-20
5.51623e-21
2.03587e-20
-7.79921e-21
-1.98255e-26
-2.71052e-20
2.05453e-20
-1.19043e-20
2.31137e-20
-1.56755e-20
-1.05989e-21
1.14892e-20
1.40869e-20
9.83791e-21
-8.07372e-21
1.04316e-20
-3.97266e-21
-2.50683e-21
-1.64956e-21
1.21303e-20
-1.21564e-21
-1.4618e-21
-1.37099e-20
1.50844e-20
1.99579e-27
-1.35524e-20
-2.00958e-21
-1.27996e-20
1.30345e-20
3.33653e-20
-7.98853e-21
1.38764e-20
-8.11232e-21
3.17836e-21
6.86202e-21
6.47657e-21
-4.40424e-22
-2.06573e-20
1.83152e-20
-2.25684e-21
-1.42306e-20
-1.37566e-21
4.79363e-21
-6.65272e-21
1.35525e-20
6.77597e-21
1.62494e-20
-5.79092e-21
-6.57821e-21
-5.47496e-21
3.18705e-20
-4.34244e-21
-3.59395e-21
1.17722e-21
5.64149e-21
-5.69605e-21
-8.92713e-22
1.47452e-20
1.02218e-20
5.68351e-21
-1.33721e-21
6.28102e-21
-7.34906e-21
-3.88385e-21
6.77626e-21
6.77621e-21
-5.98344e-21
5.16169e-21
2.74959e-21
-9.43387e-21
-9.86405e-21
2.292e-20
-2.04863e-21
-2.91293e-21
8.66674e-22
1.80583e-20
-2.29389e-21
-2.95254e-20
-3.54473e-21
3.82832e-22
2.96384e-20
-4.30102e-21
1.71898e-20
-1.99829e-21
-6.77629e-21
6.77633e-21
-5.56753e-21
1.23403e-20
1.14965e-20
-2.03697e-20
8.43312e-21
-1.63242e-21
-1.69873e-20
-8.09085e-21
7.19777e-21
1.36683e-21
-5.23778e-21
-3.7435e-21
2.19384e-21
3.19652e-21
4.6151e-21
4.35541e-21
-2.20179e-21
-1.17635e-21
6.77625e-21
2.71047e-20
-2.10626e-20
2.91694e-21
6.69827e-21
3.87775e-21
-2.57332e-21
-6.87284e-21
-3.56282e-21
3.87381e-21
7.66583e-21
6.64084e-21
7.95485e-21
-3.58764e-21
3.59021e-22
-2.60006e-21
4.46793e-21
-1.37048e-20
1.05763e-21
1.30895e-20
-2.2375e-26
-2.03288e-20
1.11697e-20
2.52585e-21
1.44206e-21
-5.85312e-21
6.53709e-21
-6.30153e-22
8.17881e-21
-4.07919e-21
-1.14168e-21
1.22458e-20
-9.48648e-22
6.24467e-21
1.06107e-21
-7.9287e-22
-1.27307e-22
-5.08882e-21
1.45978e-20
4.5842e-21
-2.05443e-26
-6.77617e-21
1.82283e-20
-5.32923e-21
2.42273e-21
-5.29394e-21
-5.36116e-21
-5.60377e-21
2.96071e-21
-1.54294e-21
-2.37939e-22
-7.61605e-21
1.83565e-20
6.36666e-22
4.01327e-21
-1.58887e-21
7.98238e-22
-3.95872e-21
-6.60452e-22
2.79228e-21
-2.32916e-26
-2.25126e-25
-1.35524e-20
1.35525e-20
-1.82243e-26
2.03288e-20
-2.21327e-26
-2.59164e-26
6.77624e-21
1.35525e-20
6.77624e-21
6.77624e-21
-6.77629e-21
-2.37032e-26
-2.35184e-26
-6.77629e-21
6.77625e-21
6.77625e-21
-6.77629e-21
6.77624e-21
3.44781e-27
)
;

boundaryField
{
    movingWall
    {
        type            zeroGradient;
    }
    fixedWalls
    {
        type            zeroGradient;
    }
    frontAndBack
    {
        type            empty;
    }
}


// ************************************************************************* //
