/*--------------------------------*- C++ -*----------------------------------*\
| =========                 |                                                 |
| \\      /  F ield         | OpenFOAM: The Open Source CFD Toolbox           |
|  \\    /   O peration     | Version:  2312                                  |
|   \\  /    A nd           | Website:  www.openfoam.com                      |
|    \\/     M anipulation  |                                                 |
\*---------------------------------------------------------------------------*/
FoamFile
{
    version     2.0;
    format      ascii;
    arch        "LSB;label=32;scalar=64";
    class       volScalarField;
    location    "6.5";
    object      initialResidual:epsilon;
}
// * * * * * * * * * * * * * * * * * * * * * * * * * * * * * * * * * * * * * //

dimensions      [0 0 0 0 0 0 0];

internalField   nonuniform List<scalar> 
400
(
0
0
0
0
0
0
0
0
0
0
0
0
0
0
0
0
0
0
0
0
0
-4.99787e-13
-4.99554e-13
-5.0004e-13
-5.00772e-13
-5.01177e-13
-5.0174e-13
-5.02465e-13
-5.028e-13
-5.03652e-13
-5.03998e-13
-5.04756e-13
-5.05286e-13
-5.05825e-13
-5.06603e-13
-5.06892e-13
-5.07892e-13
-5.08006e-13
-1.01646e-12
0
0
-5.67709e-13
-5.67427e-13
-5.68042e-13
-5.68936e-13
-5.69419e-13
-5.70071e-13
-5.70979e-13
-5.71323e-13
-5.72397e-13
-5.7275e-13
-5.73698e-13
-5.74292e-13
-5.74939e-13
-5.75866e-13
-5.76171e-13
-5.77395e-13
-5.77457e-13
-1.15661e-12
0
0
-6.3078e-13
-6.30507e-13
-6.31206e-13
-6.32218e-13
-6.32773e-13
-6.33519e-13
-6.34546e-13
-6.34948e-13
-6.36161e-13
-6.36575e-13
-6.37644e-13
-6.38332e-13
-6.39064e-13
-6.40125e-13
-6.40473e-13
-6.41867e-13
-6.41943e-13
-1.28576e-12
0
0
-6.76202e-13
-6.7603e-13
-6.76754e-13
-6.77852e-13
-6.78461e-13
-6.79281e-13
-6.80392e-13
-6.80844e-13
-6.82162e-13
-6.82621e-13
-6.83787e-13
-6.8454e-13
-6.85341e-13
-6.86499e-13
-6.86886e-13
-6.88402e-13
-6.88497e-13
-1.37902e-12
0
0
-7.04866e-13
-7.04632e-13
-7.05421e-13
-7.06584e-13
-7.07224e-13
-7.0809e-13
-7.09264e-13
-7.09743e-13
-7.11127e-13
-7.11619e-13
-7.12845e-13
-7.13641e-13
-7.14489e-13
-7.15709e-13
-7.16122e-13
-7.17718e-13
-7.17825e-13
-1.43778e-12
0
0
-7.21715e-13
-7.21582e-13
-7.2236e-13
-7.23551e-13
-7.24216e-13
-7.2511e-13
-7.26316e-13
-7.26814e-13
-7.28241e-13
-7.28749e-13
-7.30013e-13
-7.30837e-13
-7.31709e-13
-7.32969e-13
-7.33396e-13
-7.35041e-13
-7.35155e-13
-1.47251e-12
0
0
-7.31809e-13
-7.31601e-13
-7.32423e-13
-7.33639e-13
-7.34313e-13
-7.35226e-13
-7.36454e-13
-7.36962e-13
-7.38413e-13
-7.38933e-13
-7.40216e-13
-7.4106e-13
-7.41944e-13
-7.4323e-13
-7.43664e-13
-7.4534e-13
-7.45457e-13
-1.49316e-12
0
0
-7.38277e-13
-7.38092e-13
-7.38915e-13
-7.40146e-13
-7.40826e-13
-7.41753e-13
-7.42992e-13
-7.43512e-13
-7.44973e-13
-7.45503e-13
-7.46799e-13
-7.47651e-13
-7.48551e-13
-7.49845e-13
-7.50291e-13
-7.51981e-13
-7.52104e-13
-1.50647e-12
0
0
-7.43111e-13
-7.42918e-13
-7.43751e-13
-7.4499e-13
-7.45678e-13
-7.46609e-13
-7.4786e-13
-7.48382e-13
-7.49858e-13
-7.50392e-13
-7.51698e-13
-7.5256e-13
-7.53462e-13
-7.54775e-13
-7.55218e-13
-7.56927e-13
-7.57049e-13
-1.51638e-12
0
0
-7.47311e-13
-7.47121e-13
-7.47953e-13
-7.49212e-13
-7.49897e-13
-7.50841e-13
-7.52097e-13
-7.52622e-13
-7.54112e-13
-7.54645e-13
-7.55967e-13
-7.56828e-13
-7.57744e-13
-7.59059e-13
-7.59512e-13
-7.61228e-13
-7.61355e-13
-1.52501e-12
0
0
-7.51398e-13
-7.51283e-13
-7.52097e-13
-7.53351e-13
-7.54051e-13
-7.54997e-13
-7.56262e-13
-7.56794e-13
-7.58289e-13
-7.58832e-13
-7.60158e-13
-7.6103e-13
-7.61948e-13
-7.63275e-13
-7.63729e-13
-7.65458e-13
-7.65587e-13
-1.53348e-12
0
0
-7.55835e-13
-7.55626e-13
-7.56482e-13
-7.57749e-13
-7.58453e-13
-7.59404e-13
-7.6068e-13
-7.61217e-13
-7.6272e-13
-7.63271e-13
-7.646e-13
-7.65485e-13
-7.66406e-13
-7.67745e-13
-7.68202e-13
-7.69944e-13
-7.70074e-13
-1.54247e-12
0
0
-7.60662e-13
-7.60493e-13
-7.61335e-13
-7.62613e-13
-7.63321e-13
-7.64281e-13
-7.65569e-13
-7.66111e-13
-7.67624e-13
-7.68181e-13
-7.69523e-13
-7.70412e-13
-7.71341e-13
-7.72689e-13
-7.73152e-13
-7.74905e-13
-7.75039e-13
-1.55242e-12
0
0
-7.66125e-13
-7.65974e-13
-7.66824e-13
-7.68108e-13
-7.68823e-13
-7.69793e-13
-7.71087e-13
-7.71636e-13
-7.73162e-13
-7.73725e-13
-7.75076e-13
-7.75977e-13
-7.76911e-13
-7.78276e-13
-7.78739e-13
-7.80511e-13
-7.80645e-13
-1.56365e-12
0
0
-7.72354e-13
-7.72111e-13
-7.72998e-13
-7.74311e-13
-7.75024e-13
-7.76013e-13
-7.7731e-13
-7.77875e-13
-7.79408e-13
-7.7998e-13
-7.81345e-13
-7.82248e-13
-7.83205e-13
-7.84566e-13
-7.85052e-13
-7.86825e-13
-7.86976e-13
-1.57632e-12
0
0
-7.79031e-13
-7.78889e-13
-7.79749e-13
-7.81066e-13
-7.81791e-13
-7.82787e-13
-7.84101e-13
-7.8467e-13
-7.86221e-13
-7.86796e-13
-7.88179e-13
-7.89093e-13
-7.90055e-13
-7.9144e-13
-7.9192e-13
-7.93723e-13
-7.93866e-13
-1.59012e-12
0
0
-7.85751e-13
-7.85645e-13
-7.86497e-13
-7.87826e-13
-7.88557e-13
-7.89567e-13
-7.90888e-13
-7.91468e-13
-7.93028e-13
-7.93619e-13
-7.95005e-13
-7.95938e-13
-7.96904e-13
-7.98306e-13
-7.98794e-13
-8.00611e-13
-8.00764e-13
-1.60393e-12
0
0
-7.93632e-13
-7.93417e-13
-7.94307e-13
-7.95596e-13
-7.9633e-13
-7.97235e-13
-7.98675e-13
-7.9907e-13
-8.00797e-13
-8.01206e-13
-8.02732e-13
-8.03545e-13
-8.04575e-13
-8.05945e-13
-8.06412e-13
-8.08278e-13
-8.08346e-13
-1.61738e-12
0
0
0
0
0
0
0
0
0
0
0
0
0
0
0
0
0
0
0
0
0
)
;

boundaryField
{
    movingWall
    {
        type            zeroGradient;
    }
    fixedWalls
    {
        type            zeroGradient;
    }
    frontAndBack
    {
        type            empty;
    }
}


// ************************************************************************* //
