/*--------------------------------*- C++ -*----------------------------------*\
| =========                 |                                                 |
| \\      /  F ield         | OpenFOAM: The Open Source CFD Toolbox           |
|  \\    /   O peration     | Version:  2312                                  |
|   \\  /    A nd           | Website:  www.openfoam.com                      |
|    \\/     M anipulation  |                                                 |
\*---------------------------------------------------------------------------*/
FoamFile
{
    version     2.0;
    format      ascii;
    arch        "LSB;label=32;scalar=64";
    class       volScalarField;
    location    "6.5";
    object      initialResidual:k;
}
// * * * * * * * * * * * * * * * * * * * * * * * * * * * * * * * * * * * * * //

dimensions      [0 0 0 0 0 0 0];

internalField   nonuniform List<scalar> 
400
(
-7.16925e-13
-7.16463e-13
-7.16904e-13
-7.16436e-13
-7.16868e-13
-7.16521e-13
-7.16689e-13
-7.1666e-13
-7.16655e-13
-7.16664e-13
-7.16715e-13
-7.16643e-13
-7.16716e-13
-7.16642e-13
-7.16695e-13
-7.1666e-13
-7.16676e-13
-7.16678e-13
-7.16674e-13
-7.16673e-13
-7.78406e-13
-7.76322e-13
-7.8044e-13
-7.77524e-13
-7.7829e-13
-7.7802e-13
-7.7826e-13
-7.78038e-13
-7.78162e-13
-7.78108e-13
-7.7828e-13
-7.77554e-13
-7.7827e-13
-7.77826e-13
-7.78055e-13
-7.77938e-13
-7.78021e-13
-7.77901e-13
-7.77943e-13
-7.77891e-13
-8.62947e-13
-8.62224e-13
-8.63466e-13
-8.62288e-13
-8.63183e-13
-8.61965e-13
-8.63156e-13
-8.62223e-13
-8.62899e-13
-8.62281e-13
-8.62683e-13
-8.62221e-13
-8.62882e-13
-8.61897e-13
-8.62859e-13
-8.61899e-13
-8.62612e-13
-8.62114e-13
-8.62333e-13
-8.62303e-13
-9.36278e-13
-9.32216e-13
-9.39228e-13
-9.3559e-13
-9.36374e-13
-9.35747e-13
-9.36215e-13
-9.35764e-13
-9.3588e-13
-9.35698e-13
-9.3581e-13
-9.35721e-13
-9.35853e-13
-9.35373e-13
-9.35888e-13
-9.35461e-13
-9.35773e-13
-9.3561e-13
-9.35551e-13
-9.35555e-13
-9.86019e-13
-9.89315e-13
-9.85288e-13
-9.84786e-13
-9.87474e-13
-9.86548e-13
-9.8654e-13
-9.85893e-13
-9.86695e-13
-9.8579e-13
-9.86419e-13
-9.85906e-13
-9.8591e-13
-9.8602e-13
-9.86136e-13
-9.86001e-13
-9.86072e-13
-9.86162e-13
-9.85874e-13
-9.85952e-13
-1.01719e-12
-1.01476e-12
-1.01966e-12
-1.01619e-12
-1.01742e-12
-1.01663e-12
-1.01702e-12
-1.01682e-12
-1.01694e-12
-1.01663e-12
-1.01712e-12
-1.01601e-12
-1.01689e-12
-1.01643e-12
-1.01667e-12
-1.01653e-12
-1.01668e-12
-1.01645e-12
-1.01655e-12
-1.01648e-12
-1.03413e-12
-1.03755e-12
-1.03343e-12
-1.0326e-12
-1.03566e-12
-1.03436e-12
-1.03475e-12
-1.03412e-12
-1.03456e-12
-1.03388e-12
-1.03473e-12
-1.03392e-12
-1.03386e-12
-1.03414e-12
-1.03412e-12
-1.03408e-12
-1.03409e-12
-1.03421e-12
-1.03392e-12
-1.03399e-12
-1.04499e-12
-1.04218e-12
-1.04776e-12
-1.04398e-12
-1.04511e-12
-1.04443e-12
-1.04497e-12
-1.04441e-12
-1.04476e-12
-1.04436e-12
-1.04447e-12
-1.04442e-12
-1.04447e-12
-1.04427e-12
-1.04453e-12
-1.04439e-12
-1.04424e-12
-1.04432e-12
-1.04417e-12
-1.04424e-12
-1.05153e-12
-1.04893e-12
-1.05388e-12
-1.05064e-12
-1.05172e-12
-1.05118e-12
-1.0516e-12
-1.05126e-12
-1.05156e-12
-1.05059e-12
-1.05144e-12
-1.05061e-12
-1.05124e-12
-1.05071e-12
-1.05106e-12
-1.05088e-12
-1.05105e-12
-1.05079e-12
-1.0509e-12
-1.05083e-12
-1.05654e-12
-1.05466e-12
-1.05884e-12
-1.05529e-12
-1.05677e-12
-1.0559e-12
-1.05637e-12
-1.05604e-12
-1.05632e-12
-1.05596e-12
-1.05615e-12
-1.05585e-12
-1.05594e-12
-1.05634e-12
-1.05573e-12
-1.05621e-12
-1.05556e-12
-1.05586e-12
-1.05572e-12
-1.05579e-12
-1.0604e-12
-1.06298e-12
-1.05958e-12
-1.06022e-12
-1.06144e-12
-1.06014e-12
-1.06137e-12
-1.05958e-12
-1.06116e-12
-1.05987e-12
-1.06066e-12
-1.06011e-12
-1.06037e-12
-1.06026e-12
-1.06039e-12
-1.06022e-12
-1.06046e-12
-1.06009e-12
-1.06025e-12
-1.06017e-12
-1.06467e-12
-1.06812e-12
-1.06402e-12
-1.06301e-12
-1.06627e-12
-1.06489e-12
-1.06535e-12
-1.06472e-12
-1.06514e-12
-1.06439e-12
-1.06526e-12
-1.06447e-12
-1.06434e-12
-1.06468e-12
-1.06465e-12
-1.06461e-12
-1.06461e-12
-1.06475e-12
-1.06444e-12
-1.06452e-12
-1.06992e-12
-1.06699e-12
-1.07305e-12
-1.06875e-12
-1.07021e-12
-1.06922e-12
-1.0696e-12
-1.06946e-12
-1.06966e-12
-1.06942e-12
-1.0694e-12
-1.06932e-12
-1.06958e-12
-1.06894e-12
-1.06952e-12
-1.06904e-12
-1.0694e-12
-1.06922e-12
-1.06914e-12
-1.06915e-12
-1.07458e-12
-1.07818e-12
-1.07375e-12
-1.07278e-12
-1.07596e-12
-1.07413e-12
-1.07514e-12
-1.07492e-12
-1.07479e-12
-1.07421e-12
-1.07506e-12
-1.07416e-12
-1.07419e-12
-1.0744e-12
-1.07441e-12
-1.07438e-12
-1.07438e-12
-1.07452e-12
-1.07421e-12
-1.07429e-12
-1.0808e-12
-1.08001e-12
-1.08243e-12
-1.07954e-12
-1.08113e-12
-1.0802e-12
-1.08079e-12
-1.08028e-12
-1.08061e-12
-1.08024e-12
-1.08048e-12
-1.08022e-12
-1.08029e-12
-1.08054e-12
-1.08017e-12
-1.08034e-12
-1.08002e-12
-1.08019e-12
-1.08003e-12
-1.0801e-12
-1.08759e-12
-1.0836e-12
-1.09048e-12
-1.08729e-12
-1.08778e-12
-1.08705e-12
-1.08765e-12
-1.08674e-12
-1.08755e-12
-1.08648e-12
-1.08725e-12
-1.08638e-12
-1.08709e-12
-1.08661e-12
-1.08689e-12
-1.08677e-12
-1.08695e-12
-1.08662e-12
-1.08676e-12
-1.08669e-12
-1.09432e-12
-1.09622e-12
-1.09397e-12
-1.09378e-12
-1.0952e-12
-1.09391e-12
-1.09477e-12
-1.09394e-12
-1.09489e-12
-1.09334e-12
-1.09462e-12
-1.09375e-12
-1.09423e-12
-1.09395e-12
-1.09419e-12
-1.09391e-12
-1.09422e-12
-1.09381e-12
-1.09399e-12
-1.09391e-12
-1.10118e-12
-1.10664e-12
-1.09909e-12
-1.10039e-12
-1.10293e-12
-1.10082e-12
-1.10235e-12
-1.10091e-12
-1.10198e-12
-1.10104e-12
-1.10164e-12
-1.10113e-12
-1.10182e-12
-1.10087e-12
-1.10173e-12
-1.10093e-12
-1.10155e-12
-1.10103e-12
-1.10125e-12
-1.10118e-12
-1.10708e-12
-1.11367e-12
-1.10513e-12
-1.10586e-12
-1.10921e-12
-1.10688e-12
-1.10841e-12
-1.10722e-12
-1.10805e-12
-1.10727e-12
-1.10835e-12
-1.10714e-12
-1.10839e-12
-1.10646e-12
-1.10886e-12
-1.10614e-12
-1.108e-12
-1.10677e-12
-1.10729e-12
-1.10733e-12
-1.11173e-12
-1.10995e-12
-1.11197e-12
-1.10977e-12
-1.11202e-12
-1.10997e-12
-1.11166e-12
-1.11042e-12
-1.11115e-12
-1.11083e-12
-1.11094e-12
-1.11091e-12
-1.11095e-12
-1.11092e-12
-1.11093e-12
-1.11092e-12
-1.11093e-12
-1.11092e-12
-1.11092e-12
-1.11092e-12
)
;

boundaryField
{
    movingWall
    {
        type            zeroGradient;
    }
    fixedWalls
    {
        type            zeroGradient;
    }
    frontAndBack
    {
        type            empty;
    }
}


// ************************************************************************* //
