/*--------------------------------*- C++ -*----------------------------------*\
| =========                 |                                                 |
| \\      /  F ield         | OpenFOAM: The Open Source CFD Toolbox           |
|  \\    /   O peration     | Version:  2312                                  |
|   \\  /    A nd           | Website:  www.openfoam.com                      |
|    \\/     M anipulation  |                                                 |
\*---------------------------------------------------------------------------*/
FoamFile
{
    version     2.0;
    format      ascii;
    arch        "LSB;label=32;scalar=64";
    class       volScalarField;
    location    "6.5";
    object      k;
}
// * * * * * * * * * * * * * * * * * * * * * * * * * * * * * * * * * * * * * //

dimensions      [0 2 -2 0 0 0 0];

internalField   nonuniform List<scalar> 
400
(
7.02469e-06
7.02469e-06
7.02468e-06
7.02468e-06
7.02467e-06
7.02467e-06
7.02467e-06
7.02466e-06
7.02466e-06
7.02466e-06
7.02466e-06
7.02466e-06
7.02465e-06
7.02465e-06
7.02465e-06
7.02465e-06
7.02465e-06
7.02465e-06
7.02465e-06
7.02465e-06
7.30206e-06
7.30207e-06
7.30162e-06
7.30151e-06
7.30122e-06
7.30109e-06
7.30084e-06
7.30073e-06
7.30051e-06
7.30043e-06
7.30023e-06
7.30018e-06
7.30003e-06
7.29998e-06
7.29988e-06
7.29984e-06
7.29978e-06
7.29976e-06
7.29974e-06
7.29973e-06
7.70665e-06
7.70666e-06
7.70617e-06
7.70602e-06
7.70568e-06
7.70555e-06
7.70526e-06
7.70512e-06
7.7049e-06
7.70477e-06
7.70461e-06
7.70448e-06
7.70437e-06
7.70427e-06
7.7042e-06
7.70413e-06
7.70408e-06
7.70405e-06
7.70403e-06
7.70402e-06
8.08893e-06
8.08895e-06
8.08837e-06
8.08824e-06
8.08787e-06
8.0877e-06
8.0874e-06
8.08725e-06
8.08699e-06
8.08687e-06
8.08665e-06
8.08657e-06
8.08638e-06
8.08633e-06
8.08619e-06
8.08616e-06
8.08608e-06
8.08606e-06
8.08603e-06
8.08602e-06
8.37701e-06
8.37701e-06
8.37647e-06
8.37626e-06
8.37588e-06
8.37567e-06
8.37537e-06
8.37519e-06
8.37494e-06
8.37478e-06
8.37458e-06
8.37445e-06
8.37431e-06
8.3742e-06
8.37409e-06
8.37403e-06
8.37396e-06
8.37393e-06
8.3739e-06
8.37389e-06
8.56707e-06
8.56709e-06
8.56645e-06
8.56629e-06
8.56588e-06
8.56569e-06
8.56534e-06
8.56518e-06
8.56488e-06
8.56476e-06
8.5645e-06
8.56442e-06
8.56421e-06
8.56414e-06
8.56401e-06
8.56395e-06
8.56387e-06
8.56384e-06
8.56381e-06
8.5638e-06
8.68387e-06
8.68386e-06
8.68328e-06
8.68306e-06
8.68265e-06
8.68243e-06
8.68211e-06
8.68191e-06
8.68163e-06
8.68147e-06
8.68125e-06
8.68111e-06
8.68095e-06
8.68084e-06
8.68072e-06
8.68065e-06
8.68058e-06
8.68055e-06
8.68052e-06
8.68051e-06
8.75472e-06
8.75473e-06
8.75408e-06
8.75389e-06
8.75349e-06
8.75325e-06
8.75294e-06
8.75271e-06
8.75246e-06
8.75227e-06
8.75206e-06
8.75191e-06
8.75174e-06
8.75164e-06
8.75151e-06
8.75145e-06
8.75137e-06
8.75134e-06
8.75131e-06
8.7513e-06
8.79999e-06
8.80001e-06
8.79935e-06
8.79918e-06
8.79873e-06
8.79854e-06
8.79816e-06
8.798e-06
8.79766e-06
8.79756e-06
8.79727e-06
8.79718e-06
8.79697e-06
8.79689e-06
8.79675e-06
8.79669e-06
8.79661e-06
8.79658e-06
8.79655e-06
8.79654e-06
8.83249e-06
8.83249e-06
8.83184e-06
8.83163e-06
8.83124e-06
8.83098e-06
8.83069e-06
8.83044e-06
8.8302e-06
8.82999e-06
8.82979e-06
8.82963e-06
8.82947e-06
8.82935e-06
8.82923e-06
8.82916e-06
8.82908e-06
8.82904e-06
8.82902e-06
8.82901e-06
8.85954e-06
8.85954e-06
8.85893e-06
8.8587e-06
8.85824e-06
8.85808e-06
8.85767e-06
8.85753e-06
8.8572e-06
8.85705e-06
8.85682e-06
8.85667e-06
8.85651e-06
8.85638e-06
8.85627e-06
8.85619e-06
8.85612e-06
8.85608e-06
8.85605e-06
8.85604e-06
8.88524e-06
8.88524e-06
8.88462e-06
8.88439e-06
8.88397e-06
8.88373e-06
8.8834e-06
8.88318e-06
8.8829e-06
8.88272e-06
8.8825e-06
8.88234e-06
8.88219e-06
8.88206e-06
8.88194e-06
8.88187e-06
8.88179e-06
8.88176e-06
8.88173e-06
8.88172e-06
8.9119e-06
8.91192e-06
8.91122e-06
8.91105e-06
8.91061e-06
8.91039e-06
8.91005e-06
8.90984e-06
8.90954e-06
8.90938e-06
8.90913e-06
8.90901e-06
8.9088e-06
8.90873e-06
8.90857e-06
8.90852e-06
8.90842e-06
8.9084e-06
8.90836e-06
8.90836e-06
8.94095e-06
8.94094e-06
8.94032e-06
8.94009e-06
8.93966e-06
8.93942e-06
8.93909e-06
8.93885e-06
8.93858e-06
8.9384e-06
8.93816e-06
8.93801e-06
8.93785e-06
8.93773e-06
8.93761e-06
8.93753e-06
8.93745e-06
8.93742e-06
8.93739e-06
8.93738e-06
8.97323e-06
8.97322e-06
8.97257e-06
8.97234e-06
8.97193e-06
8.97168e-06
8.97136e-06
8.97111e-06
8.97086e-06
8.97065e-06
8.97044e-06
8.97027e-06
8.9701e-06
8.96999e-06
8.96986e-06
8.96978e-06
8.96971e-06
8.96967e-06
8.96964e-06
8.96963e-06
9.00884e-06
9.00886e-06
9.00815e-06
9.00797e-06
9.00749e-06
9.0073e-06
9.0069e-06
9.00674e-06
9.00639e-06
9.00626e-06
9.00599e-06
9.00587e-06
9.00567e-06
9.00557e-06
9.00544e-06
9.00536e-06
9.00528e-06
9.00525e-06
9.00522e-06
9.00521e-06
9.04652e-06
9.04652e-06
9.04587e-06
9.04564e-06
9.04517e-06
9.04499e-06
9.04457e-06
9.04442e-06
9.04406e-06
9.04394e-06
9.04366e-06
9.04354e-06
9.04335e-06
9.04323e-06
9.04311e-06
9.04302e-06
9.04295e-06
9.04291e-06
9.04288e-06
9.04287e-06
9.08299e-06
9.08298e-06
9.08235e-06
9.0821e-06
9.08163e-06
9.08144e-06
9.08105e-06
9.08085e-06
9.08055e-06
9.08036e-06
9.08014e-06
9.07996e-06
9.07981e-06
9.07967e-06
9.07956e-06
9.07946e-06
9.0794e-06
9.07935e-06
9.07932e-06
9.07931e-06
9.11269e-06
9.11269e-06
9.11208e-06
9.11184e-06
9.1114e-06
9.11118e-06
9.11083e-06
9.1106e-06
9.11035e-06
9.11011e-06
9.10993e-06
9.10973e-06
9.10959e-06
9.10944e-06
9.10934e-06
9.10925e-06
9.10918e-06
9.10914e-06
9.10911e-06
9.1091e-06
9.12613e-06
9.12612e-06
9.12612e-06
9.1261e-06
9.12611e-06
9.12609e-06
9.1261e-06
9.12609e-06
9.12609e-06
9.12608e-06
9.12608e-06
9.12608e-06
9.12608e-06
9.12608e-06
9.12608e-06
9.12607e-06
9.12607e-06
9.12607e-06
9.12607e-06
9.12607e-06
)
;

boundaryField
{
    movingWall
    {
        type            kqRWallFunction;
        value           nonuniform List<scalar> 
20
(
9.12613e-06
9.12612e-06
9.12612e-06
9.1261e-06
9.12611e-06
9.12609e-06
9.1261e-06
9.12609e-06
9.12609e-06
9.12608e-06
9.12608e-06
9.12608e-06
9.12608e-06
9.12608e-06
9.12608e-06
9.12607e-06
9.12607e-06
9.12607e-06
9.12607e-06
9.12607e-06
)
;
    }
    fixedWalls
    {
        type            kqRWallFunction;
        value           nonuniform List<scalar> 
60
(
7.02469e-06
7.30206e-06
7.70665e-06
8.08893e-06
8.37701e-06
8.56707e-06
8.68387e-06
8.75472e-06
8.79999e-06
8.83249e-06
8.85954e-06
8.88524e-06
8.9119e-06
8.94095e-06
8.97323e-06
9.00884e-06
9.04652e-06
9.08299e-06
9.11269e-06
9.12613e-06
7.02465e-06
7.29973e-06
7.70402e-06
8.08602e-06
8.37389e-06
8.5638e-06
8.68051e-06
8.7513e-06
8.79654e-06
8.82901e-06
8.85604e-06
8.88172e-06
8.90836e-06
8.93738e-06
8.96963e-06
9.00521e-06
9.04287e-06
9.07931e-06
9.1091e-06
9.12607e-06
7.02469e-06
7.02469e-06
7.02468e-06
7.02468e-06
7.02467e-06
7.02467e-06
7.02467e-06
7.02466e-06
7.02466e-06
7.02466e-06
7.02466e-06
7.02466e-06
7.02465e-06
7.02465e-06
7.02465e-06
7.02465e-06
7.02465e-06
7.02465e-06
7.02465e-06
7.02465e-06
)
;
    }
    frontAndBack
    {
        type            empty;
    }
}


// ************************************************************************* //
