/*--------------------------------*- C++ -*----------------------------------*\
| =========                 |                                                 |
| \\      /  F ield         | OpenFOAM: The Open Source CFD Toolbox           |
|  \\    /   O peration     | Version:  2312                                  |
|   \\  /    A nd           | Website:  www.openfoam.com                      |
|    \\/     M anipulation  |                                                 |
\*---------------------------------------------------------------------------*/
FoamFile
{
    version     2.0;
    format      ascii;
    arch        "LSB;label=32;scalar=64";
    class       volScalarField;
    location    "6.5";
    object      L_P;
}
// * * * * * * * * * * * * * * * * * * * * * * * * * * * * * * * * * * * * * //

dimensions      [0 0 0 0 0 0 0];

internalField   nonuniform List<scalar> 
400
(
-193.12
-193.12
-193.12
-193.12
-193.12
-193.12
-193.12
-193.12
-193.12
-193.12
-193.12
-193.12
-193.12
-193.12
-193.12
-193.12
-193.12
-193.12
-193.12
-193.12
-192.447
-192.517
-192.512
-192.51
-192.505
-192.503
-192.498
-192.496
-192.491
-192.489
-192.484
-192.482
-192.477
-192.474
-192.47
-192.467
-192.462
-192.459
-192.456
-192.452
-191.509
-191.583
-191.577
-191.575
-191.57
-191.568
-191.563
-191.56
-191.556
-191.553
-191.548
-191.545
-191.541
-191.538
-191.533
-191.53
-191.525
-191.522
-191.519
-191.515
-190.668
-190.743
-190.738
-190.735
-190.73
-190.728
-190.723
-190.72
-190.715
-190.713
-190.708
-190.705
-190.7
-190.697
-190.692
-190.689
-190.684
-190.681
-190.678
-190.674
-190.06
-190.136
-190.131
-190.128
-190.123
-190.121
-190.116
-190.113
-190.108
-190.106
-190.101
-190.098
-190.093
-190.09
-190.084
-190.081
-190.076
-190.073
-190.07
-190.066
-189.67
-189.748
-189.742
-189.739
-189.734
-189.732
-189.727
-189.724
-189.719
-189.716
-189.711
-189.708
-189.703
-189.7
-189.695
-189.692
-189.687
-189.683
-189.681
-189.677
-189.435
-189.513
-189.507
-189.505
-189.5
-189.497
-189.492
-189.489
-189.484
-189.481
-189.476
-189.473
-189.468
-189.465
-189.46
-189.457
-189.452
-189.448
-189.446
-189.441
-189.293
-189.372
-189.366
-189.364
-189.359
-189.356
-189.351
-189.348
-189.343
-189.34
-189.335
-189.332
-189.327
-189.324
-189.319
-189.316
-189.31
-189.307
-189.305
-189.3
-189.204
-189.283
-189.277
-189.274
-189.269
-189.267
-189.262
-189.259
-189.254
-189.251
-189.246
-189.243
-189.238
-189.235
-189.229
-189.226
-189.221
-189.218
-189.215
-189.211
-189.14
-189.219
-189.213
-189.21
-189.205
-189.203
-189.198
-189.195
-189.19
-189.187
-189.182
-189.179
-189.174
-189.171
-189.165
-189.162
-189.157
-189.154
-189.151
-189.147
-189.087
-189.166
-189.16
-189.157
-189.152
-189.15
-189.145
-189.142
-189.137
-189.134
-189.129
-189.126
-189.121
-189.118
-189.112
-189.109
-189.104
-189.101
-189.098
-189.093
-189.036
-189.116
-189.11
-189.107
-189.102
-189.099
-189.094
-189.092
-189.087
-189.084
-189.079
-189.076
-189.07
-189.067
-189.062
-189.059
-189.054
-189.05
-189.048
-189.043
-188.984
-189.064
-189.058
-189.055
-189.05
-189.048
-189.042
-189.04
-189.035
-189.032
-189.027
-189.024
-189.018
-189.015
-189.01
-189.007
-189.002
-188.998
-188.996
-188.991
-188.928
-189.007
-189.001
-188.999
-188.994
-188.991
-188.986
-188.983
-188.978
-188.975
-188.97
-188.967
-188.962
-188.959
-188.954
-188.95
-188.945
-188.942
-188.939
-188.935
-188.865
-188.945
-188.939
-188.936
-188.931
-188.929
-188.923
-188.921
-188.916
-188.913
-188.908
-188.905
-188.899
-188.896
-188.891
-188.888
-188.882
-188.879
-188.876
-188.872
-188.796
-188.876
-188.87
-188.867
-188.863
-188.86
-188.855
-188.852
-188.847
-188.844
-188.839
-188.836
-188.831
-188.827
-188.822
-188.819
-188.814
-188.81
-188.808
-188.803
-188.724
-188.804
-188.798
-188.795
-188.79
-188.787
-188.782
-188.78
-188.774
-188.772
-188.766
-188.763
-188.758
-188.755
-188.75
-188.746
-188.741
-188.738
-188.735
-188.731
-188.654
-188.734
-188.728
-188.725
-188.72
-188.718
-188.713
-188.71
-188.705
-188.702
-188.696
-188.694
-188.688
-188.685
-188.68
-188.677
-188.671
-188.668
-188.665
-188.661
-188.597
-188.676
-188.67
-188.667
-188.662
-188.66
-188.655
-188.652
-188.647
-188.644
-188.639
-188.636
-188.631
-188.628
-188.623
-188.62
-188.614
-188.611
-188.608
-188.604
-188.571
-188.571
-188.571
-188.571
-188.571
-188.571
-188.571
-188.571
-188.571
-188.571
-188.571
-188.571
-188.571
-188.571
-188.571
-188.571
-188.571
-188.571
-188.571
-188.571
)
;

boundaryField
{
    movingWall
    {
        type            calculated;
        value           nonuniform List<scalar> 
20
(
-188.571
-188.571
-188.571
-188.571
-188.571
-188.571
-188.571
-188.571
-188.571
-188.571
-188.571
-188.571
-188.571
-188.571
-188.571
-188.571
-188.571
-188.571
-188.571
-188.571
)
;
    }
    fixedWalls
    {
        type            calculated;
        value           nonuniform List<scalar> 
60
(
-193.12
-192.447
-191.509
-190.668
-190.06
-189.67
-189.435
-189.293
-189.204
-189.14
-189.087
-189.036
-188.984
-188.928
-188.865
-188.796
-188.724
-188.654
-188.597
-188.571
-193.12
-192.452
-191.515
-190.674
-190.066
-189.677
-189.441
-189.3
-189.211
-189.147
-189.093
-189.043
-188.991
-188.935
-188.872
-188.803
-188.731
-188.661
-188.604
-188.571
-193.12
-193.12
-193.12
-193.12
-193.12
-193.12
-193.12
-193.12
-193.12
-193.12
-193.12
-193.12
-193.12
-193.12
-193.12
-193.12
-193.12
-193.12
-193.12
-193.12
)
;
    }
    frontAndBack
    {
        type            empty;
    }
}


// ************************************************************************* //
