/*--------------------------------*- C++ -*----------------------------------*\
| =========                 |                                                 |
| \\      /  F ield         | OpenFOAM: The Open Source CFD Toolbox           |
|  \\    /   O peration     | Version:  2312                                  |
|   \\  /    A nd           | Website:  www.openfoam.com                      |
|    \\/     M anipulation  |                                                 |
\*---------------------------------------------------------------------------*/
FoamFile
{
    version     2.0;
    format      ascii;
    arch        "LSB;label=32;scalar=64";
    class       volVectorField;
    location    "6.5";
    object      momentum1:momentum;
}
// * * * * * * * * * * * * * * * * * * * * * * * * * * * * * * * * * * * * * //

dimensions      [1 1 -1 0 0 0 0];

internalField   nonuniform List<vector> 
400
(
(-2.5e-07 3.69385e-20 0)
(-2.5e-07 -7.90765e-21 0)
(-2.5e-07 1.89184e-21 0)
(-2.5e-07 -3.38234e-22 0)
(-2.5e-07 1.38575e-22 0)
(-2.5e-07 1.96965e-23 0)
(-2.5e-07 2.37048e-23 0)
(-2.5e-07 2.10475e-23 0)
(-2.5e-07 3.62714e-23 0)
(-2.5e-07 3.86266e-23 0)
(-2.5e-07 2.99013e-23 0)
(-2.5e-07 3.84113e-23 0)
(-2.5e-07 3.40596e-23 0)
(-2.5e-07 2.93495e-25 0)
(-2.5e-07 -2.67921e-23 0)
(-2.5e-07 -3.53077e-23 0)
(-2.5e-07 -2.74652e-24 0)
(-2.5e-07 1.29888e-23 0)
(-2.5e-07 -1.09072e-25 0)
(-2.5e-07 1.5901e-24 0)
(-2.5e-07 1.65751e-21 0)
(-2.5e-07 -3.18878e-22 0)
(-2.5e-07 1.0358e-22 0)
(-2.5e-07 4.61995e-23 0)
(-2.5e-07 6.17522e-23 0)
(-2.5e-07 4.69789e-23 0)
(-2.5e-07 3.36932e-23 0)
(-2.5e-07 2.3964e-23 0)
(-2.5e-07 1.51213e-23 0)
(-2.5e-07 1.02919e-23 0)
(-2.5e-07 1.69347e-23 0)
(-2.5e-07 4.91534e-23 0)
(-2.5e-07 7.18946e-23 0)
(-2.5e-07 3.71133e-23 0)
(-2.5e-07 -1.23356e-23 0)
(-2.5e-07 -2.68926e-23 0)
(-2.5e-07 5.94607e-24 0)
(-2.5e-07 1.25227e-24 0)
(-2.5e-07 -4.03067e-23 0)
(-2.5e-07 -1.90354e-23 0)
(-2.5e-07 -3.43643e-20 0)
(-2.5e-07 7.38083e-21 0)
(-2.5e-07 -1.74803e-21 0)
(-2.5e-07 3.56682e-22 0)
(-2.5e-07 -7.49171e-23 0)
(-2.5e-07 4.83138e-23 0)
(-2.5e-07 3.55563e-23 0)
(-2.5e-07 4.22377e-23 0)
(-2.5e-07 3.5974e-23 0)
(-2.5e-07 3.81761e-24 0)
(-2.5e-07 -1.08475e-23 0)
(-2.5e-07 -5.36216e-24 0)
(-2.5e-07 9.76059e-24 0)
(-2.5e-07 4.41282e-23 0)
(-2.5e-07 4.62674e-23 0)
(-2.5e-07 1.53866e-23 0)
(-2.5e-07 2.11493e-24 0)
(-2.5e-07 -2.75234e-23 0)
(-2.5e-07 -5.36307e-23 0)
(-2.5e-07 -3.68143e-23 0)
(-2.5e-07 2.80482e-20 0)
(-2.5e-07 -6.21467e-21 0)
(-2.5e-07 1.4173e-21 0)
(-2.5e-07 -3.64192e-22 0)
(-2.5e-07 5.97713e-23 0)
(-2.5e-07 -3.22349e-23 0)
(-2.5e-07 -2.68949e-23 0)
(-2.5e-07 4.55406e-24 0)
(-2.5e-07 4.97554e-23 0)
(-2.5e-07 4.41679e-23 0)
(-2.5e-07 2.25605e-23 0)
(-2.5e-07 6.78584e-24 0)
(-2.5e-07 -2.96997e-24 0)
(-2.5e-07 -7.53368e-24 0)
(-2.5e-07 -1.10576e-23 0)
(-2.5e-07 -1.9741e-23 0)
(-2.5e-07 -2.03918e-23 0)
(-2.5e-07 -2.92152e-23 0)
(-2.5e-07 -3.01684e-23 0)
(-2.5e-07 -2.52882e-23 0)
(-2.5e-07 -2.51243e-21 0)
(-2.5e-07 6.40902e-22 0)
(-2.5e-07 -1.73981e-22 0)
(-2.5e-07 4.80895e-23 0)
(-2.5e-07 2.86841e-23 0)
(-2.5e-07 1.64752e-23 0)
(-2.5e-07 -2.0985e-23 0)
(-2.5e-07 -1.78201e-23 0)
(-2.5e-07 -2.43953e-24 0)
(-2.5e-07 -4.0302e-24 0)
(-2.5e-07 1.60663e-24 0)
(-2.5e-07 -1.47806e-23 0)
(-2.5e-07 -4.27051e-23 0)
(-2.5e-07 -8.60736e-23 0)
(-2.5e-07 -8.80877e-23 0)
(-2.5e-07 -5.00104e-23 0)
(-2.5e-07 -1.62446e-23 0)
(-2.5e-07 -6.79906e-24 0)
(-2.5e-07 -1.40522e-23 0)
(-2.5e-07 -1.79073e-23 0)
(-2.5e-07 -2.27276e-20 0)
(-2.5e-07 5.05571e-21 0)
(-2.5e-07 -1.15279e-21 0)
(-2.5e-07 2.95242e-22 0)
(-2.5e-07 -1.0527e-23 0)
(-2.5e-07 9.25729e-23 0)
(-2.5e-07 6.341e-23 0)
(-2.5e-07 2.65501e-23 0)
(-2.5e-07 -3.55358e-23 0)
(-2.5e-07 -6.08745e-23 0)
(-2.5e-07 -4.6365e-23 0)
(-2.5e-07 -5.33663e-23 0)
(-2.5e-07 -5.9186e-23 0)
(-2.5e-07 -3.57564e-23 0)
(-2.5e-07 -2.33529e-23 0)
(-2.5e-07 -2.22893e-23 0)
(-2.5e-07 -2.5513e-23 0)
(-2.5e-07 -2.9155e-24 0)
(-2.5e-07 -4.89818e-24 0)
(-2.5e-07 -1.04073e-23 0)
(-2.5e-07 2.8906e-20 0)
(-2.5e-07 -6.40091e-21 0)
(-2.5e-07 1.52077e-21 0)
(-2.5e-07 -3.29812e-22 0)
(-2.5e-07 7.43357e-23 0)
(-2.5e-07 -2.77723e-23 0)
(-2.5e-07 -1.90276e-23 0)
(-2.5e-07 -3.8355e-23 0)
(-2.5e-07 -7.0208e-23 0)
(-2.5e-07 -3.24341e-23 0)
(-2.5e-07 3.30904e-24 0)
(-2.5e-07 1.54074e-23 0)
(-2.5e-07 2.12237e-23 0)
(-2.5e-07 1.21981e-23 0)
(-2.5e-07 -1.78267e-23 0)
(-2.5e-07 -2.23411e-23 0)
(-2.5e-07 -1.90607e-23 0)
(-2.5e-07 -2.53119e-24 0)
(-2.5e-07 1.09114e-23 0)
(-2.5e-07 1.68421e-23 0)
(-2.5e-07 -6.01813e-21 0)
(-2.5e-07 1.24902e-21 0)
(-2.5e-07 -3.74742e-22 0)
(-2.5e-07 5.22377e-23 0)
(-2.5e-07 -7.32395e-24 0)
(-2.5e-07 -1.17744e-23 0)
(-2.5e-07 -2.2235e-23 0)
(-2.5e-07 -2.36465e-23 0)
(-2.5e-07 -3.11486e-23 0)
(-2.5e-07 -2.91585e-23 0)
(-2.5e-07 -3.1964e-23 0)
(-2.5e-07 -3.56714e-23 0)
(-2.5e-07 -4.15652e-23 0)
(-2.5e-07 -5.9133e-23 0)
(-2.5e-07 -4.8394e-23 0)
(-2.5e-07 -8.34701e-24 0)
(-2.5e-07 1.3137e-23 0)
(-2.5e-07 -1.19483e-23 0)
(-2.5e-07 6.06506e-24 0)
(-2.5e-07 1.67658e-23 0)
(-2.5e-07 -1.70289e-20 0)
(-2.5e-07 3.82752e-21 0)
(-2.5e-07 -9.20829e-22 0)
(-2.5e-07 1.89613e-22 0)
(-2.5e-07 -5.65811e-23 0)
(-2.5e-07 2.99513e-23 0)
(-2.5e-07 4.19814e-23 0)
(-2.5e-07 3.51114e-23 0)
(-2.5e-07 7.21261e-24 0)
(-2.5e-07 -3.41452e-23 0)
(-2.5e-07 -6.18992e-23 0)
(-2.5e-07 -6.49776e-23 0)
(-2.5e-07 -5.35253e-23 0)
(-2.5e-07 -3.31272e-23 0)
(-2.5e-07 -3.35371e-24 0)
(-2.5e-07 5.34623e-24 0)
(-2.5e-07 -6.5567e-24 0)
(-2.5e-07 -2.47247e-23 0)
(-2.5e-07 -2.59349e-23 0)
(-2.5e-07 -1.14977e-23 0)
(-2.5e-07 2.39355e-20 0)
(-2.5e-07 -5.24113e-21 0)
(-2.5e-07 1.2776e-21 0)
(-2.5e-07 -2.62347e-22 0)
(-2.5e-07 5.70061e-23 0)
(-2.5e-07 7.20441e-24 0)
(-2.5e-07 3.65895e-23 0)
(-2.5e-07 3.02082e-23 0)
(-2.5e-07 2.85962e-23 0)
(-2.5e-07 3.44005e-24 0)
(-2.5e-07 -3.25716e-23 0)
(-2.5e-07 -4.73528e-23 0)
(-2.5e-07 -3.14341e-23 0)
(-2.5e-07 -8.44585e-24 0)
(-2.5e-07 4.51091e-24 0)
(-2.5e-07 -1.66339e-23 0)
(-2.5e-07 -1.66571e-23 0)
(-2.5e-07 4.23539e-24 0)
(-2.5e-07 -9.04487e-24 0)
(-2.5e-07 -1.7265e-23 0)
(-2.5e-07 -2.26009e-20 0)
(-2.5e-07 4.82774e-21 0)
(-2.5e-07 -1.07329e-21 0)
(-2.5e-07 2.72908e-22 0)
(-2.5e-07 -2.73435e-23 0)
(-2.5e-07 3.44818e-23 0)
(-2.5e-07 1.69042e-23 0)
(-2.5e-07 2.00438e-23 0)
(-2.5e-07 1.46546e-23 0)
(-2.5e-07 -2.16606e-23 0)
(-2.5e-07 -5.49774e-23 0)
(-2.5e-07 -6.50198e-23 0)
(-2.5e-07 -4.45571e-23 0)
(-2.5e-07 -7.92782e-24 0)
(-2.5e-07 3.3697e-23 0)
(-2.5e-07 2.77891e-23 0)
(-2.5e-07 1.3766e-23 0)
(-2.5e-07 2.53957e-23 0)
(-2.5e-07 8.52246e-24 0)
(-2.5e-07 -1.38167e-23 0)
(-2.5e-07 1.99485e-20 0)
(-2.5e-07 -4.26254e-21 0)
(-2.5e-07 1.02842e-21 0)
(-2.5e-07 -2.15238e-22 0)
(-2.5e-07 2.10763e-23 0)
(-2.5e-07 -3.42437e-23 0)
(-2.5e-07 2.16172e-24 0)
(-2.5e-07 2.11058e-23 0)
(-2.5e-07 2.80124e-23 0)
(-2.5e-07 2.57329e-23 0)
(-2.5e-07 -1.1692e-23 0)
(-2.5e-07 -2.18926e-23 0)
(-2.5e-07 -6.65885e-24 0)
(-2.5e-07 1.62033e-23 0)
(-2.5e-07 2.58425e-23 0)
(-2.5e-07 1.7174e-23 0)
(-2.5e-07 -3.55641e-24 0)
(-2.5e-07 6.34082e-24 0)
(-2.5e-07 1.82612e-23 0)
(-2.5e-07 6.81573e-25 0)
(-2.5e-07 -5.21821e-21 0)
(-2.5e-07 1.05348e-21 0)
(-2.5e-07 -2.81319e-22 0)
(-2.5e-07 2.81533e-23 0)
(-2.5e-07 -5.84873e-23 0)
(-2.5e-07 -5.11716e-23 0)
(-2.5e-07 -2.05614e-23 0)
(-2.5e-07 1.15232e-23 0)
(-2.5e-07 4.58734e-23 0)
(-2.5e-07 6.17619e-23 0)
(-2.5e-07 1.76016e-23 0)
(-2.5e-07 -5.02081e-24 0)
(-2.5e-07 -1.13782e-23 0)
(-2.5e-07 -1.97078e-23 0)
(-2.5e-07 -2.94371e-23 0)
(-2.5e-07 -1.6659e-23 0)
(-2.5e-07 -1.38027e-23 0)
(-2.5e-07 -3.71372e-23 0)
(-2.5e-07 -3.06175e-23 0)
(-2.5e-07 -5.19734e-24 0)
(-2.5e-07 -1.99403e-20 0)
(-2.5e-07 4.30674e-21 0)
(-2.5e-07 -1.06394e-21 0)
(-2.5e-07 2.19156e-22 0)
(-2.5e-07 -6.26981e-23 0)
(-2.5e-07 -2.49931e-23 0)
(-2.5e-07 -3.48249e-23 0)
(-2.5e-07 -1.18349e-23 0)
(-2.5e-07 1.15111e-23 0)
(-2.5e-07 6.46158e-24 0)
(-2.5e-07 9.81918e-24 0)
(-2.5e-07 5.73557e-24 0)
(-2.5e-07 6.71781e-25 0)
(-2.5e-07 -2.0914e-23 0)
(-2.5e-07 -1.24832e-23 0)
(-2.5e-07 3.40789e-24 0)
(-2.5e-07 2.70086e-24 0)
(-2.5e-07 -4.2456e-23 0)
(-2.5e-07 -5.36322e-23 0)
(-2.5e-07 -7.84374e-24 0)
(-2.5e-07 3.76464e-20 0)
(-2.5e-07 -8.15106e-21 0)
(-2.5e-07 1.89083e-21 0)
(-2.5e-07 -4.16549e-22 0)
(-2.5e-07 9.31227e-23 0)
(-2.5e-07 1.07501e-23 0)
(-2.5e-07 3.47532e-23 0)
(-2.5e-07 -9.11048e-24 0)
(-2.5e-07 -3.76442e-23 0)
(-2.5e-07 -4.54539e-23 0)
(-2.5e-07 -2.41231e-23 0)
(-2.5e-07 -2.11346e-23 0)
(-2.5e-07 2.86299e-25 0)
(-2.5e-07 1.93407e-23 0)
(-2.5e-07 -5.0173e-24 0)
(-2.5e-07 -2.96355e-23 0)
(-2.5e-07 -2.72095e-23 0)
(-2.5e-07 -2.38148e-23 0)
(-2.5e-07 -1.35116e-23 0)
(-2.5e-07 9.5992e-24 0)
(-2.5e-07 -2.4379e-20 0)
(-2.5e-07 5.22775e-21 0)
(-2.5e-07 -1.20757e-21 0)
(-2.5e-07 2.50972e-22 0)
(-2.5e-07 -6.2025e-23 0)
(-2.5e-07 1.93639e-23 0)
(-2.5e-07 -2.55655e-23 0)
(-2.5e-07 -8.18527e-23 0)
(-2.5e-07 -8.35306e-23 0)
(-2.5e-07 -5.93203e-23 0)
(-2.5e-07 -2.69278e-23 0)
(-2.5e-07 -7.67409e-25 0)
(-2.5e-07 1.5355e-24 0)
(-2.5e-07 8.63229e-26 0)
(-2.5e-07 -2.88679e-23 0)
(-2.5e-07 -4.87459e-23 0)
(-2.5e-07 -3.40525e-23 0)
(-2.5e-07 -1.13778e-23 0)
(-2.5e-07 -2.12193e-24 0)
(-2.5e-07 6.86566e-24 0)
(-2.5e-07 -6.41487e-21 0)
(-2.5e-07 1.5151e-21 0)
(-2.5e-07 -3.16973e-22 0)
(-2.5e-07 9.0819e-23 0)
(-2.5e-07 -4.01298e-23 0)
(-2.5e-07 -4.58175e-23 0)
(-2.5e-07 -8.20847e-23 0)
(-2.5e-07 -6.28609e-23 0)
(-2.5e-07 -3.32675e-23 0)
(-2.5e-07 -3.61943e-23 0)
(-2.5e-07 -1.91882e-23 0)
(-2.5e-07 2.27404e-23 0)
(-2.5e-07 3.21308e-24 0)
(-2.5e-07 -3.42763e-23 0)
(-2.5e-07 -3.18717e-23 0)
(-2.5e-07 -2.61934e-23 0)
(-2.5e-07 -9.87172e-26 0)
(-2.5e-07 2.2472e-23 0)
(-2.5e-07 1.75034e-23 0)
(-2.5e-07 5.05965e-24 0)
(-2.5e-07 2.80259e-20 0)
(-2.5e-07 -6.00223e-21 0)
(-2.5e-07 1.45066e-21 0)
(-2.5e-07 -3.09855e-22 0)
(-2.5e-07 3.34711e-23 0)
(-2.5e-07 -6.28849e-23 0)
(-2.5e-07 -4.81032e-23 0)
(-2.5e-07 -2.91601e-23 0)
(-2.5e-07 -3.24567e-23 0)
(-2.5e-07 -4.27948e-23 0)
(-2.5e-07 -3.35543e-23 0)
(-2.5e-07 -6.01575e-24 0)
(-2.5e-07 -1.20581e-23 0)
(-2.5e-07 -2.06256e-23 0)
(-2.5e-07 -2.97068e-24 0)
(-2.5e-07 7.4464e-24 0)
(-2.5e-07 2.23387e-23 0)
(-2.5e-07 2.92485e-23 0)
(-2.5e-07 2.91883e-23 0)
(-2.5e-07 1.15215e-23 0)
(-2.5e-07 -9.32601e-21 0)
(-2.5e-07 1.7828e-21 0)
(-2.5e-07 -5.0659e-22 0)
(-2.5e-07 9.24755e-24 0)
(-2.5e-07 -6.23417e-23 0)
(-2.5e-07 -4.30169e-23 0)
(-2.5e-07 -4.39926e-23 0)
(-2.5e-07 -3.87447e-23 0)
(-2.5e-07 -2.74821e-23 0)
(-2.5e-07 -7.85237e-24 0)
(-2.5e-07 1.0834e-23 0)
(-2.5e-07 3.71301e-24 0)
(-2.5e-07 -1.66804e-24 0)
(-2.5e-07 -1.73842e-23 0)
(-2.5e-07 -1.97173e-23 0)
(-2.5e-07 -3.86644e-24 0)
(-2.5e-07 5.52288e-24 0)
(-2.5e-07 1.84761e-23 0)
(-2.5e-07 1.96377e-23 0)
(-2.5e-07 2.67567e-24 0)
(-2.5e-07 -2.27625e-20 0)
(-2.5e-07 4.82189e-21 0)
(-2.5e-07 -1.20593e-21 0)
(-2.5e-07 2.02427e-22 0)
(-2.5e-07 -7.46582e-23 0)
(-2.5e-07 -7.16988e-24 0)
(-2.5e-07 -1.1471e-23 0)
(-2.5e-07 3.80208e-24 0)
(-2.5e-07 1.881e-23 0)
(-2.5e-07 2.43335e-23 0)
(-2.5e-07 2.58908e-23 0)
(-2.5e-07 7.52461e-24 0)
(-2.5e-07 -4.75922e-24 0)
(-2.5e-07 -2.28806e-23 0)
(-2.5e-07 -3.32114e-23 0)
(-2.5e-07 -2.09356e-23 0)
(-2.5e-07 -7.84632e-24 0)
(-2.5e-07 1.37769e-23 0)
(-2.5e-07 5.17935e-24 0)
(-2.5e-07 -5.54094e-24 0)
)
;

boundaryField
{
    movingWall
    {
        type            calculated;
        value           uniform (0 0 0);
    }
    fixedWalls
    {
        type            calculated;
        value           uniform (0 0 0);
    }
    frontAndBack
    {
        type            empty;
    }
}


// ************************************************************************* //
