/*--------------------------------*- C++ -*----------------------------------*\
| =========                 |                                                 |
| \\      /  F ield         | OpenFOAM: The Open Source CFD Toolbox           |
|  \\    /   O peration     | Version:  2312                                  |
|   \\  /    A nd           | Website:  www.openfoam.com                      |
|    \\/     M anipulation  |                                                 |
\*---------------------------------------------------------------------------*/
FoamFile
{
    version     2.0;
    format      ascii;
    arch        "LSB;label=32;scalar=64";
    class       volVectorField;
    location    "6.5";
    object      norm_U_L1;
}
// * * * * * * * * * * * * * * * * * * * * * * * * * * * * * * * * * * * * * //

dimensions      [0 0 0 0 0 0 0];

internalField   nonuniform List<vector> 
400
(
(-0.0025 3.69385e-16 0)
(-0.0025 -7.90765e-17 0)
(-0.0025 1.89184e-17 0)
(-0.0025 -3.38234e-18 0)
(-0.0025 1.38575e-18 0)
(-0.0025 1.96965e-19 0)
(-0.0025 2.37048e-19 0)
(-0.0025 2.10475e-19 0)
(-0.0025 3.62714e-19 0)
(-0.0025 3.86266e-19 0)
(-0.0025 2.99013e-19 0)
(-0.0025 3.84113e-19 0)
(-0.0025 3.40596e-19 0)
(-0.0025 2.93495e-21 0)
(-0.0025 -2.67921e-19 0)
(-0.0025 -3.53077e-19 0)
(-0.0025 -2.74652e-20 0)
(-0.0025 1.29888e-19 0)
(-0.0025 -1.09072e-21 0)
(-0.0025 1.5901e-20 0)
(-0.0025 1.65751e-17 0)
(-0.0025 -3.18878e-18 0)
(-0.0025 1.0358e-18 0)
(-0.0025 4.61995e-19 0)
(-0.0025 6.17522e-19 0)
(-0.0025 4.69789e-19 0)
(-0.0025 3.36932e-19 0)
(-0.0025 2.3964e-19 0)
(-0.0025 1.51213e-19 0)
(-0.0025 1.02919e-19 0)
(-0.0025 1.69347e-19 0)
(-0.0025 4.91534e-19 0)
(-0.0025 7.18946e-19 0)
(-0.0025 3.71133e-19 0)
(-0.0025 -1.23356e-19 0)
(-0.0025 -2.68926e-19 0)
(-0.0025 5.94607e-20 0)
(-0.0025 1.25227e-20 0)
(-0.0025 -4.03067e-19 0)
(-0.0025 -1.90354e-19 0)
(-0.0025 -3.43643e-16 0)
(-0.0025 7.38083e-17 0)
(-0.0025 -1.74803e-17 0)
(-0.0025 3.56682e-18 0)
(-0.0025 -7.49171e-19 0)
(-0.0025 4.83138e-19 0)
(-0.0025 3.55563e-19 0)
(-0.0025 4.22377e-19 0)
(-0.0025 3.5974e-19 0)
(-0.0025 3.81761e-20 0)
(-0.0025 -1.08475e-19 0)
(-0.0025 -5.36216e-20 0)
(-0.0025 9.76059e-20 0)
(-0.0025 4.41282e-19 0)
(-0.0025 4.62674e-19 0)
(-0.0025 1.53866e-19 0)
(-0.0025 2.11493e-20 0)
(-0.0025 -2.75234e-19 0)
(-0.0025 -5.36307e-19 0)
(-0.0025 -3.68143e-19 0)
(-0.0025 2.80482e-16 0)
(-0.0025 -6.21467e-17 0)
(-0.0025 1.4173e-17 0)
(-0.0025 -3.64192e-18 0)
(-0.0025 5.97713e-19 0)
(-0.0025 -3.22349e-19 0)
(-0.0025 -2.68949e-19 0)
(-0.0025 4.55406e-20 0)
(-0.0025 4.97554e-19 0)
(-0.0025 4.41679e-19 0)
(-0.0025 2.25605e-19 0)
(-0.0025 6.78584e-20 0)
(-0.0025 -2.96997e-20 0)
(-0.0025 -7.53368e-20 0)
(-0.0025 -1.10576e-19 0)
(-0.0025 -1.9741e-19 0)
(-0.0025 -2.03918e-19 0)
(-0.0025 -2.92152e-19 0)
(-0.0025 -3.01684e-19 0)
(-0.0025 -2.52882e-19 0)
(-0.0025 -2.51243e-17 0)
(-0.0025 6.40902e-18 0)
(-0.0025 -1.73981e-18 0)
(-0.0025 4.80895e-19 0)
(-0.0025 2.86841e-19 0)
(-0.0025 1.64752e-19 0)
(-0.0025 -2.0985e-19 0)
(-0.0025 -1.78201e-19 0)
(-0.0025 -2.43953e-20 0)
(-0.0025 -4.0302e-20 0)
(-0.0025 1.60663e-20 0)
(-0.0025 -1.47806e-19 0)
(-0.0025 -4.27051e-19 0)
(-0.0025 -8.60736e-19 0)
(-0.0025 -8.80877e-19 0)
(-0.0025 -5.00104e-19 0)
(-0.0025 -1.62446e-19 0)
(-0.0025 -6.79906e-20 0)
(-0.0025 -1.40522e-19 0)
(-0.0025 -1.79073e-19 0)
(-0.0025 -2.27276e-16 0)
(-0.0025 5.05571e-17 0)
(-0.0025 -1.15279e-17 0)
(-0.0025 2.95242e-18 0)
(-0.0025 -1.0527e-19 0)
(-0.0025 9.25729e-19 0)
(-0.0025 6.341e-19 0)
(-0.0025 2.65501e-19 0)
(-0.0025 -3.55358e-19 0)
(-0.0025 -6.08745e-19 0)
(-0.0025 -4.6365e-19 0)
(-0.0025 -5.33663e-19 0)
(-0.0025 -5.9186e-19 0)
(-0.0025 -3.57564e-19 0)
(-0.0025 -2.33529e-19 0)
(-0.0025 -2.22893e-19 0)
(-0.0025 -2.5513e-19 0)
(-0.0025 -2.9155e-20 0)
(-0.0025 -4.89818e-20 0)
(-0.0025 -1.04073e-19 0)
(-0.0025 2.8906e-16 0)
(-0.0025 -6.40091e-17 0)
(-0.0025 1.52077e-17 0)
(-0.0025 -3.29812e-18 0)
(-0.0025 7.43357e-19 0)
(-0.0025 -2.77723e-19 0)
(-0.0025 -1.90276e-19 0)
(-0.0025 -3.8355e-19 0)
(-0.0025 -7.0208e-19 0)
(-0.0025 -3.24341e-19 0)
(-0.0025 3.30904e-20 0)
(-0.0025 1.54074e-19 0)
(-0.0025 2.12237e-19 0)
(-0.0025 1.21981e-19 0)
(-0.0025 -1.78267e-19 0)
(-0.0025 -2.23411e-19 0)
(-0.0025 -1.90607e-19 0)
(-0.0025 -2.53119e-20 0)
(-0.0025 1.09114e-19 0)
(-0.0025 1.68421e-19 0)
(-0.0025 -6.01813e-17 0)
(-0.0025 1.24902e-17 0)
(-0.0025 -3.74742e-18 0)
(-0.0025 5.22377e-19 0)
(-0.0025 -7.32395e-20 0)
(-0.0025 -1.17744e-19 0)
(-0.0025 -2.2235e-19 0)
(-0.0025 -2.36465e-19 0)
(-0.0025 -3.11486e-19 0)
(-0.0025 -2.91585e-19 0)
(-0.0025 -3.1964e-19 0)
(-0.0025 -3.56714e-19 0)
(-0.0025 -4.15652e-19 0)
(-0.0025 -5.9133e-19 0)
(-0.0025 -4.8394e-19 0)
(-0.0025 -8.34701e-20 0)
(-0.0025 1.3137e-19 0)
(-0.0025 -1.19483e-19 0)
(-0.0025 6.06506e-20 0)
(-0.0025 1.67658e-19 0)
(-0.0025 -1.70289e-16 0)
(-0.0025 3.82752e-17 0)
(-0.0025 -9.20829e-18 0)
(-0.0025 1.89613e-18 0)
(-0.0025 -5.65811e-19 0)
(-0.0025 2.99513e-19 0)
(-0.0025 4.19814e-19 0)
(-0.0025 3.51114e-19 0)
(-0.0025 7.21261e-20 0)
(-0.0025 -3.41452e-19 0)
(-0.0025 -6.18992e-19 0)
(-0.0025 -6.49776e-19 0)
(-0.0025 -5.35253e-19 0)
(-0.0025 -3.31272e-19 0)
(-0.0025 -3.35371e-20 0)
(-0.0025 5.34623e-20 0)
(-0.0025 -6.5567e-20 0)
(-0.0025 -2.47247e-19 0)
(-0.0025 -2.59349e-19 0)
(-0.0025 -1.14977e-19 0)
(-0.0025 2.39355e-16 0)
(-0.0025 -5.24113e-17 0)
(-0.0025 1.2776e-17 0)
(-0.0025 -2.62347e-18 0)
(-0.0025 5.70061e-19 0)
(-0.0025 7.20441e-20 0)
(-0.0025 3.65895e-19 0)
(-0.0025 3.02082e-19 0)
(-0.0025 2.85962e-19 0)
(-0.0025 3.44005e-20 0)
(-0.0025 -3.25716e-19 0)
(-0.0025 -4.73528e-19 0)
(-0.0025 -3.14341e-19 0)
(-0.0025 -8.44585e-20 0)
(-0.0025 4.51091e-20 0)
(-0.0025 -1.66339e-19 0)
(-0.0025 -1.66571e-19 0)
(-0.0025 4.23539e-20 0)
(-0.0025 -9.04487e-20 0)
(-0.0025 -1.7265e-19 0)
(-0.0025 -2.26009e-16 0)
(-0.0025 4.82774e-17 0)
(-0.0025 -1.07329e-17 0)
(-0.0025 2.72908e-18 0)
(-0.0025 -2.73435e-19 0)
(-0.0025 3.44818e-19 0)
(-0.0025 1.69042e-19 0)
(-0.0025 2.00438e-19 0)
(-0.0025 1.46546e-19 0)
(-0.0025 -2.16606e-19 0)
(-0.0025 -5.49774e-19 0)
(-0.0025 -6.50198e-19 0)
(-0.0025 -4.45571e-19 0)
(-0.0025 -7.92782e-20 0)
(-0.0025 3.3697e-19 0)
(-0.0025 2.77891e-19 0)
(-0.0025 1.3766e-19 0)
(-0.0025 2.53957e-19 0)
(-0.0025 8.52246e-20 0)
(-0.0025 -1.38167e-19 0)
(-0.0025 1.99485e-16 0)
(-0.0025 -4.26254e-17 0)
(-0.0025 1.02842e-17 0)
(-0.0025 -2.15238e-18 0)
(-0.0025 2.10763e-19 0)
(-0.0025 -3.42437e-19 0)
(-0.0025 2.16172e-20 0)
(-0.0025 2.11058e-19 0)
(-0.0025 2.80124e-19 0)
(-0.0025 2.57329e-19 0)
(-0.0025 -1.1692e-19 0)
(-0.0025 -2.18926e-19 0)
(-0.0025 -6.65885e-20 0)
(-0.0025 1.62033e-19 0)
(-0.0025 2.58425e-19 0)
(-0.0025 1.7174e-19 0)
(-0.0025 -3.55641e-20 0)
(-0.0025 6.34082e-20 0)
(-0.0025 1.82612e-19 0)
(-0.0025 6.81573e-21 0)
(-0.0025 -5.21821e-17 0)
(-0.0025 1.05348e-17 0)
(-0.0025 -2.81319e-18 0)
(-0.0025 2.81533e-19 0)
(-0.0025 -5.84873e-19 0)
(-0.0025 -5.11716e-19 0)
(-0.0025 -2.05614e-19 0)
(-0.0025 1.15232e-19 0)
(-0.0025 4.58734e-19 0)
(-0.0025 6.17619e-19 0)
(-0.0025 1.76016e-19 0)
(-0.0025 -5.02081e-20 0)
(-0.0025 -1.13782e-19 0)
(-0.0025 -1.97078e-19 0)
(-0.0025 -2.94371e-19 0)
(-0.0025 -1.6659e-19 0)
(-0.0025 -1.38027e-19 0)
(-0.0025 -3.71372e-19 0)
(-0.0025 -3.06175e-19 0)
(-0.0025 -5.19734e-20 0)
(-0.0025 -1.99403e-16 0)
(-0.0025 4.30674e-17 0)
(-0.0025 -1.06394e-17 0)
(-0.0025 2.19156e-18 0)
(-0.0025 -6.26981e-19 0)
(-0.0025 -2.49931e-19 0)
(-0.0025 -3.48249e-19 0)
(-0.0025 -1.18349e-19 0)
(-0.0025 1.15111e-19 0)
(-0.0025 6.46158e-20 0)
(-0.0025 9.81918e-20 0)
(-0.0025 5.73557e-20 0)
(-0.0025 6.71781e-21 0)
(-0.0025 -2.0914e-19 0)
(-0.0025 -1.24832e-19 0)
(-0.0025 3.40789e-20 0)
(-0.0025 2.70086e-20 0)
(-0.0025 -4.2456e-19 0)
(-0.0025 -5.36322e-19 0)
(-0.0025 -7.84374e-20 0)
(-0.0025 3.76464e-16 0)
(-0.0025 -8.15106e-17 0)
(-0.0025 1.89083e-17 0)
(-0.0025 -4.16549e-18 0)
(-0.0025 9.31227e-19 0)
(-0.0025 1.07501e-19 0)
(-0.0025 3.47532e-19 0)
(-0.0025 -9.11048e-20 0)
(-0.0025 -3.76442e-19 0)
(-0.0025 -4.54539e-19 0)
(-0.0025 -2.41231e-19 0)
(-0.0025 -2.11346e-19 0)
(-0.0025 2.86299e-21 0)
(-0.0025 1.93407e-19 0)
(-0.0025 -5.0173e-20 0)
(-0.0025 -2.96355e-19 0)
(-0.0025 -2.72095e-19 0)
(-0.0025 -2.38148e-19 0)
(-0.0025 -1.35116e-19 0)
(-0.0025 9.5992e-20 0)
(-0.0025 -2.4379e-16 0)
(-0.0025 5.22775e-17 0)
(-0.0025 -1.20757e-17 0)
(-0.0025 2.50972e-18 0)
(-0.0025 -6.2025e-19 0)
(-0.0025 1.93639e-19 0)
(-0.0025 -2.55655e-19 0)
(-0.0025 -8.18527e-19 0)
(-0.0025 -8.35306e-19 0)
(-0.0025 -5.93203e-19 0)
(-0.0025 -2.69278e-19 0)
(-0.0025 -7.67409e-21 0)
(-0.0025 1.5355e-20 0)
(-0.0025 8.63229e-22 0)
(-0.0025 -2.88679e-19 0)
(-0.0025 -4.87459e-19 0)
(-0.0025 -3.40525e-19 0)
(-0.0025 -1.13778e-19 0)
(-0.0025 -2.12193e-20 0)
(-0.0025 6.86566e-20 0)
(-0.0025 -6.41487e-17 0)
(-0.0025 1.5151e-17 0)
(-0.0025 -3.16973e-18 0)
(-0.0025 9.0819e-19 0)
(-0.0025 -4.01298e-19 0)
(-0.0025 -4.58175e-19 0)
(-0.0025 -8.20847e-19 0)
(-0.0025 -6.28609e-19 0)
(-0.0025 -3.32675e-19 0)
(-0.0025 -3.61943e-19 0)
(-0.0025 -1.91882e-19 0)
(-0.0025 2.27404e-19 0)
(-0.0025 3.21308e-20 0)
(-0.0025 -3.42763e-19 0)
(-0.0025 -3.18717e-19 0)
(-0.0025 -2.61934e-19 0)
(-0.0025 -9.87172e-22 0)
(-0.0025 2.2472e-19 0)
(-0.0025 1.75034e-19 0)
(-0.0025 5.05965e-20 0)
(-0.0025 2.80259e-16 0)
(-0.0025 -6.00223e-17 0)
(-0.0025 1.45066e-17 0)
(-0.0025 -3.09855e-18 0)
(-0.0025 3.34711e-19 0)
(-0.0025 -6.28849e-19 0)
(-0.0025 -4.81032e-19 0)
(-0.0025 -2.91601e-19 0)
(-0.0025 -3.24567e-19 0)
(-0.0025 -4.27948e-19 0)
(-0.0025 -3.35543e-19 0)
(-0.0025 -6.01575e-20 0)
(-0.0025 -1.20581e-19 0)
(-0.0025 -2.06256e-19 0)
(-0.0025 -2.97068e-20 0)
(-0.0025 7.4464e-20 0)
(-0.0025 2.23387e-19 0)
(-0.0025 2.92485e-19 0)
(-0.0025 2.91883e-19 0)
(-0.0025 1.15215e-19 0)
(-0.0025 -9.32601e-17 0)
(-0.0025 1.7828e-17 0)
(-0.0025 -5.0659e-18 0)
(-0.0025 9.24755e-20 0)
(-0.0025 -6.23417e-19 0)
(-0.0025 -4.30169e-19 0)
(-0.0025 -4.39926e-19 0)
(-0.0025 -3.87447e-19 0)
(-0.0025 -2.74821e-19 0)
(-0.0025 -7.85237e-20 0)
(-0.0025 1.0834e-19 0)
(-0.0025 3.71301e-20 0)
(-0.0025 -1.66804e-20 0)
(-0.0025 -1.73842e-19 0)
(-0.0025 -1.97173e-19 0)
(-0.0025 -3.86644e-20 0)
(-0.0025 5.52288e-20 0)
(-0.0025 1.84761e-19 0)
(-0.0025 1.96377e-19 0)
(-0.0025 2.67567e-20 0)
(-0.0025 -2.27625e-16 0)
(-0.0025 4.82189e-17 0)
(-0.0025 -1.20593e-17 0)
(-0.0025 2.02427e-18 0)
(-0.0025 -7.46582e-19 0)
(-0.0025 -7.16988e-20 0)
(-0.0025 -1.1471e-19 0)
(-0.0025 3.80208e-20 0)
(-0.0025 1.881e-19 0)
(-0.0025 2.43335e-19 0)
(-0.0025 2.58908e-19 0)
(-0.0025 7.52461e-20 0)
(-0.0025 -4.75922e-20 0)
(-0.0025 -2.28806e-19 0)
(-0.0025 -3.32114e-19 0)
(-0.0025 -2.09356e-19 0)
(-0.0025 -7.84632e-20 0)
(-0.0025 1.37769e-19 0)
(-0.0025 5.17935e-20 0)
(-0.0025 -5.54094e-20 0)
)
;

boundaryField
{
    movingWall
    {
        type            calculated;
        value           uniform (-0.0025 -0 -0);
    }
    fixedWalls
    {
        type            calculated;
        value           uniform (-0.0025 -0 -0);
    }
    frontAndBack
    {
        type            empty;
    }
}


// ************************************************************************* //
