/*--------------------------------*- C++ -*----------------------------------*\
| =========                 |                                                 |
| \\      /  F ield         | OpenFOAM: The Open Source CFD Toolbox           |
|  \\    /   O peration     | Version:  2312                                  |
|   \\  /    A nd           | Website:  www.openfoam.com                      |
|    \\/     M anipulation  |                                                 |
\*---------------------------------------------------------------------------*/
FoamFile
{
    version     2.0;
    format      ascii;
    arch        "LSB;label=32;scalar=64";
    class       volVectorField;
    location    "6.5";
    object      norm_U_composite;
}
// * * * * * * * * * * * * * * * * * * * * * * * * * * * * * * * * * * * * * //

dimensions      [0 0 0 0 0 0 0];

internalField   nonuniform List<vector> 
400
(
(-0.5 7.38771e-14 0)
(-0.5 -1.58153e-14 0)
(-0.5 3.78367e-15 0)
(-0.5 -6.76468e-16 0)
(-0.5 2.7715e-16 0)
(-0.5 3.9393e-17 0)
(-0.5 4.74095e-17 0)
(-0.5 4.20949e-17 0)
(-0.5 7.25428e-17 0)
(-0.5 7.72533e-17 0)
(-0.5 5.98026e-17 0)
(-0.5 7.68227e-17 0)
(-0.5 6.81193e-17 0)
(-0.5 5.8699e-19 0)
(-0.5 -5.35841e-17 0)
(-0.5 -7.06154e-17 0)
(-0.5 -5.49304e-18 0)
(-0.5 2.59777e-17 0)
(-0.5 -2.18144e-19 0)
(-0.5 3.18021e-18 0)
(-0.5 3.31503e-15 0)
(-0.5 -6.37757e-16 0)
(-0.5 2.07161e-16 0)
(-0.5 9.23991e-17 0)
(-0.5 1.23504e-16 0)
(-0.5 9.39578e-17 0)
(-0.5 6.73865e-17 0)
(-0.5 4.79281e-17 0)
(-0.5 3.02426e-17 0)
(-0.5 2.05837e-17 0)
(-0.5 3.38694e-17 0)
(-0.5 9.83068e-17 0)
(-0.5 1.43789e-16 0)
(-0.5 7.42265e-17 0)
(-0.5 -2.46711e-17 0)
(-0.5 -5.37851e-17 0)
(-0.5 1.18921e-17 0)
(-0.5 2.50453e-18 0)
(-0.5 -8.06134e-17 0)
(-0.5 -3.80708e-17 0)
(-0.5 -6.87286e-14 0)
(-0.5 1.47617e-14 0)
(-0.5 -3.49605e-15 0)
(-0.5 7.13364e-16 0)
(-0.5 -1.49834e-16 0)
(-0.5 9.66277e-17 0)
(-0.5 7.11126e-17 0)
(-0.5 8.44755e-17 0)
(-0.5 7.1948e-17 0)
(-0.5 7.63521e-18 0)
(-0.5 -2.16951e-17 0)
(-0.5 -1.07243e-17 0)
(-0.5 1.95212e-17 0)
(-0.5 8.82565e-17 0)
(-0.5 9.25349e-17 0)
(-0.5 3.07731e-17 0)
(-0.5 4.22986e-18 0)
(-0.5 -5.50468e-17 0)
(-0.5 -1.07261e-16 0)
(-0.5 -7.36287e-17 0)
(-0.5 5.60965e-14 0)
(-0.5 -1.24293e-14 0)
(-0.5 2.8346e-15 0)
(-0.5 -7.28384e-16 0)
(-0.5 1.19543e-16 0)
(-0.5 -6.44698e-17 0)
(-0.5 -5.37898e-17 0)
(-0.5 9.10811e-18 0)
(-0.5 9.95107e-17 0)
(-0.5 8.83359e-17 0)
(-0.5 4.5121e-17 0)
(-0.5 1.35717e-17 0)
(-0.5 -5.93994e-18 0)
(-0.5 -1.50674e-17 0)
(-0.5 -2.21153e-17 0)
(-0.5 -3.94821e-17 0)
(-0.5 -4.07836e-17 0)
(-0.5 -5.84303e-17 0)
(-0.5 -6.03368e-17 0)
(-0.5 -5.05765e-17 0)
(-0.5 -5.02485e-15 0)
(-0.5 1.2818e-15 0)
(-0.5 -3.47962e-16 0)
(-0.5 9.6179e-17 0)
(-0.5 5.73682e-17 0)
(-0.5 3.29503e-17 0)
(-0.5 -4.19699e-17 0)
(-0.5 -3.56402e-17 0)
(-0.5 -4.87906e-18 0)
(-0.5 -8.0604e-18 0)
(-0.5 3.21327e-18 0)
(-0.5 -2.95612e-17 0)
(-0.5 -8.54102e-17 0)
(-0.5 -1.72147e-16 0)
(-0.5 -1.76175e-16 0)
(-0.5 -1.00021e-16 0)
(-0.5 -3.24892e-17 0)
(-0.5 -1.35981e-17 0)
(-0.5 -2.81044e-17 0)
(-0.5 -3.58145e-17 0)
(-0.5 -4.54552e-14 0)
(-0.5 1.01114e-14 0)
(-0.5 -2.30558e-15 0)
(-0.5 5.90484e-16 0)
(-0.5 -2.10539e-17 0)
(-0.5 1.85146e-16 0)
(-0.5 1.2682e-16 0)
(-0.5 5.31002e-17 0)
(-0.5 -7.10715e-17 0)
(-0.5 -1.21749e-16 0)
(-0.5 -9.27299e-17 0)
(-0.5 -1.06733e-16 0)
(-0.5 -1.18372e-16 0)
(-0.5 -7.15128e-17 0)
(-0.5 -4.67058e-17 0)
(-0.5 -4.45785e-17 0)
(-0.5 -5.10259e-17 0)
(-0.5 -5.83101e-18 0)
(-0.5 -9.79637e-18 0)
(-0.5 -2.08147e-17 0)
(-0.5 5.7812e-14 0)
(-0.5 -1.28018e-14 0)
(-0.5 3.04154e-15 0)
(-0.5 -6.59624e-16 0)
(-0.5 1.48671e-16 0)
(-0.5 -5.55446e-17 0)
(-0.5 -3.80552e-17 0)
(-0.5 -7.67101e-17 0)
(-0.5 -1.40416e-16 0)
(-0.5 -6.48682e-17 0)
(-0.5 6.61808e-18 0)
(-0.5 3.08148e-17 0)
(-0.5 4.24473e-17 0)
(-0.5 2.43962e-17 0)
(-0.5 -3.56534e-17 0)
(-0.5 -4.46822e-17 0)
(-0.5 -3.81215e-17 0)
(-0.5 -5.06237e-18 0)
(-0.5 2.18228e-17 0)
(-0.5 3.36842e-17 0)
(-0.5 -1.20363e-14 0)
(-0.5 2.49805e-15 0)
(-0.5 -7.49484e-16 0)
(-0.5 1.04475e-16 0)
(-0.5 -1.46479e-17 0)
(-0.5 -2.35488e-17 0)
(-0.5 -4.447e-17 0)
(-0.5 -4.72929e-17 0)
(-0.5 -6.22973e-17 0)
(-0.5 -5.83171e-17 0)
(-0.5 -6.39281e-17 0)
(-0.5 -7.13427e-17 0)
(-0.5 -8.31305e-17 0)
(-0.5 -1.18266e-16 0)
(-0.5 -9.67881e-17 0)
(-0.5 -1.6694e-17 0)
(-0.5 2.62739e-17 0)
(-0.5 -2.38966e-17 0)
(-0.5 1.21301e-17 0)
(-0.5 3.35316e-17 0)
(-0.5 -3.40577e-14 0)
(-0.5 7.65503e-15 0)
(-0.5 -1.84166e-15 0)
(-0.5 3.79225e-16 0)
(-0.5 -1.13162e-16 0)
(-0.5 5.99026e-17 0)
(-0.5 8.39628e-17 0)
(-0.5 7.02228e-17 0)
(-0.5 1.44252e-17 0)
(-0.5 -6.82905e-17 0)
(-0.5 -1.23798e-16 0)
(-0.5 -1.29955e-16 0)
(-0.5 -1.07051e-16 0)
(-0.5 -6.62543e-17 0)
(-0.5 -6.70741e-18 0)
(-0.5 1.06925e-17 0)
(-0.5 -1.31134e-17 0)
(-0.5 -4.94494e-17 0)
(-0.5 -5.18698e-17 0)
(-0.5 -2.29955e-17 0)
(-0.5 4.78709e-14 0)
(-0.5 -1.04823e-14 0)
(-0.5 2.5552e-15 0)
(-0.5 -5.24695e-16 0)
(-0.5 1.14012e-16 0)
(-0.5 1.44088e-17 0)
(-0.5 7.31791e-17 0)
(-0.5 6.04164e-17 0)
(-0.5 5.71924e-17 0)
(-0.5 6.8801e-18 0)
(-0.5 -6.51432e-17 0)
(-0.5 -9.47056e-17 0)
(-0.5 -6.28682e-17 0)
(-0.5 -1.68917e-17 0)
(-0.5 9.02182e-18 0)
(-0.5 -3.32679e-17 0)
(-0.5 -3.33142e-17 0)
(-0.5 8.47078e-18 0)
(-0.5 -1.80897e-17 0)
(-0.5 -3.453e-17 0)
(-0.5 -4.52018e-14 0)
(-0.5 9.65548e-15 0)
(-0.5 -2.14658e-15 0)
(-0.5 5.45817e-16 0)
(-0.5 -5.4687e-17 0)
(-0.5 6.89636e-17 0)
(-0.5 3.38084e-17 0)
(-0.5 4.00877e-17 0)
(-0.5 2.93091e-17 0)
(-0.5 -4.33211e-17 0)
(-0.5 -1.09955e-16 0)
(-0.5 -1.3004e-16 0)
(-0.5 -8.91142e-17 0)
(-0.5 -1.58556e-17 0)
(-0.5 6.7394e-17 0)
(-0.5 5.55782e-17 0)
(-0.5 2.75319e-17 0)
(-0.5 5.07915e-17 0)
(-0.5 1.70449e-17 0)
(-0.5 -2.76334e-17 0)
(-0.5 3.98971e-14 0)
(-0.5 -8.52508e-15 0)
(-0.5 2.05684e-15 0)
(-0.5 -4.30475e-16 0)
(-0.5 4.21525e-17 0)
(-0.5 -6.84873e-17 0)
(-0.5 4.32344e-18 0)
(-0.5 4.22116e-17 0)
(-0.5 5.60249e-17 0)
(-0.5 5.14658e-17 0)
(-0.5 -2.3384e-17 0)
(-0.5 -4.37851e-17 0)
(-0.5 -1.33177e-17 0)
(-0.5 3.24067e-17 0)
(-0.5 5.1685e-17 0)
(-0.5 3.4348e-17 0)
(-0.5 -7.11282e-18 0)
(-0.5 1.26816e-17 0)
(-0.5 3.65225e-17 0)
(-0.5 1.36315e-18 0)
(-0.5 -1.04364e-14 0)
(-0.5 2.10696e-15 0)
(-0.5 -5.62637e-16 0)
(-0.5 5.63065e-17 0)
(-0.5 -1.16975e-16 0)
(-0.5 -1.02343e-16 0)
(-0.5 -4.11229e-17 0)
(-0.5 2.30463e-17 0)
(-0.5 9.17468e-17 0)
(-0.5 1.23524e-16 0)
(-0.5 3.52031e-17 0)
(-0.5 -1.00416e-17 0)
(-0.5 -2.27565e-17 0)
(-0.5 -3.94156e-17 0)
(-0.5 -5.88741e-17 0)
(-0.5 -3.3318e-17 0)
(-0.5 -2.76054e-17 0)
(-0.5 -7.42743e-17 0)
(-0.5 -6.1235e-17 0)
(-0.5 -1.03947e-17 0)
(-0.5 -3.98807e-14 0)
(-0.5 8.61348e-15 0)
(-0.5 -2.12788e-15 0)
(-0.5 4.38313e-16 0)
(-0.5 -1.25396e-16 0)
(-0.5 -4.99862e-17 0)
(-0.5 -6.96498e-17 0)
(-0.5 -2.36699e-17 0)
(-0.5 2.30221e-17 0)
(-0.5 1.29232e-17 0)
(-0.5 1.96384e-17 0)
(-0.5 1.14711e-17 0)
(-0.5 1.34356e-18 0)
(-0.5 -4.18279e-17 0)
(-0.5 -2.49664e-17 0)
(-0.5 6.81578e-18 0)
(-0.5 5.40172e-18 0)
(-0.5 -8.4912e-17 0)
(-0.5 -1.07264e-16 0)
(-0.5 -1.56875e-17 0)
(-0.5 7.52928e-14 0)
(-0.5 -1.63021e-14 0)
(-0.5 3.78167e-15 0)
(-0.5 -8.33097e-16 0)
(-0.5 1.86245e-16 0)
(-0.5 2.15002e-17 0)
(-0.5 6.95063e-17 0)
(-0.5 -1.8221e-17 0)
(-0.5 -7.52885e-17 0)
(-0.5 -9.09078e-17 0)
(-0.5 -4.82462e-17 0)
(-0.5 -4.22692e-17 0)
(-0.5 5.72599e-19 0)
(-0.5 3.86814e-17 0)
(-0.5 -1.00346e-17 0)
(-0.5 -5.92709e-17 0)
(-0.5 -5.44191e-17 0)
(-0.5 -4.76296e-17 0)
(-0.5 -2.70231e-17 0)
(-0.5 1.91984e-17 0)
(-0.5 -4.87581e-14 0)
(-0.5 1.04555e-14 0)
(-0.5 -2.41513e-15 0)
(-0.5 5.01944e-16 0)
(-0.5 -1.2405e-16 0)
(-0.5 3.87278e-17 0)
(-0.5 -5.11309e-17 0)
(-0.5 -1.63705e-16 0)
(-0.5 -1.67061e-16 0)
(-0.5 -1.18641e-16 0)
(-0.5 -5.38557e-17 0)
(-0.5 -1.53482e-18 0)
(-0.5 3.071e-18 0)
(-0.5 1.72646e-19 0)
(-0.5 -5.77359e-17 0)
(-0.5 -9.74918e-17 0)
(-0.5 -6.81049e-17 0)
(-0.5 -2.27556e-17 0)
(-0.5 -4.24386e-18 0)
(-0.5 1.37313e-17 0)
(-0.5 -1.28297e-14 0)
(-0.5 3.0302e-15 0)
(-0.5 -6.33945e-16 0)
(-0.5 1.81638e-16 0)
(-0.5 -8.02595e-17 0)
(-0.5 -9.16351e-17 0)
(-0.5 -1.64169e-16 0)
(-0.5 -1.25722e-16 0)
(-0.5 -6.6535e-17 0)
(-0.5 -7.23887e-17 0)
(-0.5 -3.83765e-17 0)
(-0.5 4.54807e-17 0)
(-0.5 6.42617e-18 0)
(-0.5 -6.85526e-17 0)
(-0.5 -6.37434e-17 0)
(-0.5 -5.23869e-17 0)
(-0.5 -1.97434e-19 0)
(-0.5 4.49441e-17 0)
(-0.5 3.50068e-17 0)
(-0.5 1.01193e-17 0)
(-0.5 5.60519e-14 0)
(-0.5 -1.20045e-14 0)
(-0.5 2.90131e-15 0)
(-0.5 -6.1971e-16 0)
(-0.5 6.69422e-17 0)
(-0.5 -1.2577e-16 0)
(-0.5 -9.62063e-17 0)
(-0.5 -5.83201e-17 0)
(-0.5 -6.49134e-17 0)
(-0.5 -8.55897e-17 0)
(-0.5 -6.71085e-17 0)
(-0.5 -1.20315e-17 0)
(-0.5 -2.41163e-17 0)
(-0.5 -4.12512e-17 0)
(-0.5 -5.94136e-18 0)
(-0.5 1.48928e-17 0)
(-0.5 4.46773e-17 0)
(-0.5 5.8497e-17 0)
(-0.5 5.83766e-17 0)
(-0.5 2.3043e-17 0)
(-0.5 -1.8652e-14 0)
(-0.5 3.56559e-15 0)
(-0.5 -1.01318e-15 0)
(-0.5 1.84951e-17 0)
(-0.5 -1.24683e-16 0)
(-0.5 -8.60337e-17 0)
(-0.5 -8.79852e-17 0)
(-0.5 -7.74894e-17 0)
(-0.5 -5.49642e-17 0)
(-0.5 -1.57047e-17 0)
(-0.5 2.16679e-17 0)
(-0.5 7.42602e-18 0)
(-0.5 -3.33608e-18 0)
(-0.5 -3.47684e-17 0)
(-0.5 -3.94346e-17 0)
(-0.5 -7.73288e-18 0)
(-0.5 1.10458e-17 0)
(-0.5 3.69523e-17 0)
(-0.5 3.92754e-17 0)
(-0.5 5.35134e-18 0)
(-0.5 -4.55251e-14 0)
(-0.5 9.64378e-15 0)
(-0.5 -2.41187e-15 0)
(-0.5 4.04853e-16 0)
(-0.5 -1.49316e-16 0)
(-0.5 -1.43398e-17 0)
(-0.5 -2.2942e-17 0)
(-0.5 7.60415e-18 0)
(-0.5 3.762e-17 0)
(-0.5 4.86671e-17 0)
(-0.5 5.17816e-17 0)
(-0.5 1.50492e-17 0)
(-0.5 -9.51844e-18 0)
(-0.5 -4.57612e-17 0)
(-0.5 -6.64228e-17 0)
(-0.5 -4.18712e-17 0)
(-0.5 -1.56926e-17 0)
(-0.5 2.75539e-17 0)
(-0.5 1.03587e-17 0)
(-0.5 -1.10819e-17 0)
)
;

boundaryField
{
    movingWall
    {
        type            calculated;
        value           uniform (-0.5 -0 -0);
    }
    fixedWalls
    {
        type            calculated;
        value           uniform (-0.5 -0 -0);
    }
    frontAndBack
    {
        type            empty;
    }
}


// ************************************************************************* //
