/*--------------------------------*- C++ -*----------------------------------*\
| =========                 |                                                 |
| \\      /  F ield         | OpenFOAM: The Open Source CFD Toolbox           |
|  \\    /   O peration     | Version:  2312                                  |
|   \\  /    A nd           | Website:  www.openfoam.com                      |
|    \\/     M anipulation  |                                                 |
\*---------------------------------------------------------------------------*/
FoamFile
{
    version     2.0;
    format      ascii;
    arch        "LSB;label=32;scalar=64";
    class       volScalarField;
    location    "6.5";
    object      norm_k_field;
}
// * * * * * * * * * * * * * * * * * * * * * * * * * * * * * * * * * * * * * //

dimensions      [0 0 0 0 0 0 0];

internalField   nonuniform List<scalar> 
400
(
5.68998e+09
1.87931e+09
4.74815e+09
4.59256e+09
5.38274e+09
5.45799e+09
7.02467e+09
7.02466e+09
7.02466e+09
7.02466e+09
7.02466e+09
7.02466e+09
7.02465e+09
7.02465e+09
7.02465e+09
7.02465e+09
7.02465e+09
7.02465e+09
7.02465e+09
7.02465e+09
2.50183e+09
7.30207e+09
5.56127e+09
7.30151e+09
5.99295e+09
7.2258e+09
7.30084e+09
7.30073e+09
7.30051e+09
7.30043e+09
7.30023e+09
7.30018e+09
7.30003e+09
7.29998e+09
7.29988e+09
7.29984e+09
7.29978e+09
7.29976e+09
7.29974e+09
7.29973e+09
4.57212e+09
3.22204e+09
7.15761e+09
7.70602e+09
7.70568e+09
7.70555e+09
7.70526e+09
7.70512e+09
7.7049e+09
7.70477e+09
7.70461e+09
7.70448e+09
7.70437e+09
7.70427e+09
7.7042e+09
7.70413e+09
7.70408e+09
7.70405e+09
7.70403e+09
7.70402e+09
8.08893e+09
4.08477e+09
8.08837e+09
8.08824e+09
8.08787e+09
8.0877e+09
8.0874e+09
8.08725e+09
8.08699e+09
8.08687e+09
8.08665e+09
8.08657e+09
8.08638e+09
8.08633e+09
8.08619e+09
8.08616e+09
8.08608e+09
8.08606e+09
8.08603e+09
8.08602e+09
7.17513e+09
8.37701e+09
8.37647e+09
8.37626e+09
8.37588e+09
8.37567e+09
8.37537e+09
8.37519e+09
8.37494e+09
8.37478e+09
8.37458e+09
8.37445e+09
8.37431e+09
8.3742e+09
8.37409e+09
8.37403e+09
8.37396e+09
8.37393e+09
8.3739e+09
8.37389e+09
8.56707e+09
6.5641e+09
8.56645e+09
8.56629e+09
8.56588e+09
8.56569e+09
8.56534e+09
8.56518e+09
8.56488e+09
8.56476e+09
8.5645e+09
8.56442e+09
8.56421e+09
8.56414e+09
8.56401e+09
8.56395e+09
8.56387e+09
8.56384e+09
8.56381e+09
8.5638e+09
8.68387e+09
8.68386e+09
8.68328e+09
8.68306e+09
8.68265e+09
8.68243e+09
8.68211e+09
8.68191e+09
8.68163e+09
8.68147e+09
8.68125e+09
8.68111e+09
8.68095e+09
8.68084e+09
8.68072e+09
8.68065e+09
8.68058e+09
8.68055e+09
8.68052e+09
8.68051e+09
8.75472e+09
8.75473e+09
8.75408e+09
8.75389e+09
8.75349e+09
8.75325e+09
8.75294e+09
8.75271e+09
8.75246e+09
8.75227e+09
8.75206e+09
8.75191e+09
8.75174e+09
8.75164e+09
8.75151e+09
8.75145e+09
8.75137e+09
8.75134e+09
8.75131e+09
8.7513e+09
8.79999e+09
5.35514e+09
8.79935e+09
8.79918e+09
8.79873e+09
8.79854e+09
8.79816e+09
8.798e+09
8.79766e+09
8.79756e+09
8.79727e+09
8.79718e+09
8.79697e+09
8.79689e+09
8.79675e+09
8.79669e+09
8.79661e+09
8.79658e+09
8.79655e+09
8.79654e+09
8.83249e+09
8.83249e+09
8.83184e+09
8.83163e+09
8.83124e+09
8.83098e+09
8.83069e+09
8.83044e+09
8.8302e+09
8.82999e+09
8.82979e+09
8.82963e+09
8.82947e+09
8.82935e+09
8.82923e+09
8.82916e+09
8.82908e+09
8.82904e+09
8.82902e+09
8.82901e+09
8.85954e+09
8.85954e+09
8.85893e+09
8.8587e+09
8.85824e+09
8.85808e+09
8.85767e+09
8.85753e+09
8.8572e+09
8.85705e+09
8.85682e+09
8.85667e+09
8.85651e+09
8.85638e+09
8.85627e+09
8.85619e+09
8.85612e+09
8.85608e+09
8.85605e+09
8.85604e+09
8.88524e+09
4.47965e+09
8.88462e+09
8.88439e+09
8.88397e+09
8.88373e+09
8.8834e+09
8.88318e+09
8.8829e+09
8.88272e+09
8.8825e+09
8.88234e+09
8.88219e+09
8.88206e+09
8.88194e+09
8.88187e+09
8.88179e+09
8.88176e+09
8.88173e+09
8.88172e+09
8.9119e+09
8.91192e+09
8.91122e+09
8.91105e+09
8.91061e+09
8.91039e+09
8.91005e+09
8.90984e+09
8.90954e+09
8.90938e+09
8.90913e+09
8.90901e+09
8.9088e+09
8.90873e+09
8.90857e+09
8.90852e+09
8.90842e+09
8.9084e+09
8.90836e+09
8.90836e+09
8.94095e+09
3.21839e+09
8.94032e+09
8.94009e+09
8.93966e+09
8.93942e+09
8.93909e+09
8.93885e+09
8.93858e+09
8.9384e+09
8.93816e+09
8.93801e+09
8.93785e+09
8.93773e+09
8.93761e+09
8.93753e+09
8.93745e+09
8.93742e+09
8.93739e+09
8.93738e+09
8.97323e+09
8.97322e+09
8.97257e+09
8.97234e+09
8.97193e+09
8.97168e+09
8.97136e+09
8.97111e+09
8.97086e+09
8.97065e+09
8.97044e+09
8.97027e+09
8.9701e+09
8.96999e+09
8.96986e+09
8.96978e+09
8.96971e+09
8.96967e+09
8.96964e+09
8.96963e+09
9.00884e+09
9.00886e+09
9.00815e+09
9.00797e+09
9.00749e+09
9.0073e+09
9.0069e+09
9.00674e+09
9.00639e+09
9.00626e+09
9.00599e+09
9.00587e+09
9.00567e+09
9.00557e+09
9.00544e+09
9.00536e+09
9.00528e+09
9.00525e+09
9.00522e+09
9.00521e+09
9.04652e+09
6.96142e+09
9.04587e+09
9.04564e+09
9.04517e+09
9.04499e+09
9.04457e+09
9.04442e+09
9.04406e+09
9.04394e+09
9.04366e+09
9.04354e+09
9.04335e+09
9.04323e+09
9.04311e+09
9.04302e+09
9.04295e+09
9.04291e+09
9.04288e+09
9.04287e+09
9.08299e+09
9.08298e+09
9.08235e+09
9.0821e+09
9.08163e+09
9.08144e+09
9.08105e+09
9.08085e+09
9.08055e+09
9.08036e+09
9.08014e+09
9.07996e+09
9.07981e+09
9.07967e+09
9.07956e+09
9.07946e+09
9.0794e+09
9.07935e+09
9.07932e+09
9.07931e+09
9.11269e+09
9.11269e+09
9.11208e+09
9.11184e+09
9.1114e+09
9.11118e+09
9.11083e+09
9.1106e+09
9.11035e+09
9.11011e+09
9.10993e+09
9.10973e+09
9.10959e+09
9.10944e+09
9.10934e+09
9.10925e+09
9.10918e+09
9.10914e+09
9.10911e+09
9.1091e+09
9.12613e+09
9.12612e+09
9.12612e+09
9.1261e+09
9.12611e+09
9.12609e+09
9.1261e+09
9.12609e+09
9.12609e+09
9.12608e+09
9.12608e+09
9.12608e+09
9.12608e+09
9.12608e+09
9.12608e+09
9.12607e+09
9.12607e+09
9.12607e+09
9.12607e+09
9.12607e+09
)
;

boundaryField
{
    movingWall
    {
        type            calculated;
        value           nonuniform List<scalar> 
20
(
9.12613e+09
9.12612e+09
9.12612e+09
9.1261e+09
9.12611e+09
9.12609e+09
9.1261e+09
9.12609e+09
9.12609e+09
9.12608e+09
9.12608e+09
9.12608e+09
9.12608e+09
9.12608e+09
9.12608e+09
9.12607e+09
9.12607e+09
9.12607e+09
9.12607e+09
9.12607e+09
)
;
    }
    fixedWalls
    {
        type            calculated;
        value           nonuniform List<scalar> 
60
(
5.68998e+09
2.50183e+09
4.57212e+09
8.08893e+09
7.17513e+09
8.56707e+09
8.68387e+09
8.75472e+09
8.79999e+09
8.83249e+09
8.85954e+09
8.88524e+09
8.9119e+09
8.94095e+09
8.97323e+09
9.00884e+09
9.04652e+09
9.08299e+09
9.11269e+09
9.12613e+09
7.02465e+09
7.29973e+09
7.70402e+09
8.08602e+09
8.37389e+09
8.5638e+09
8.68051e+09
8.7513e+09
8.79654e+09
8.82901e+09
8.85604e+09
8.88172e+09
8.90836e+09
8.93738e+09
8.96963e+09
9.00521e+09
9.04287e+09
9.07931e+09
9.1091e+09
9.12607e+09
5.68998e+09
1.87931e+09
4.74815e+09
4.59256e+09
5.38274e+09
5.45799e+09
7.02467e+09
7.02466e+09
7.02466e+09
7.02466e+09
7.02466e+09
7.02466e+09
7.02465e+09
7.02465e+09
7.02465e+09
7.02465e+09
7.02465e+09
7.02465e+09
7.02465e+09
7.02465e+09
)
;
    }
    frontAndBack
    {
        type            empty;
    }
}


// ************************************************************************* //
