/*--------------------------------*- C++ -*----------------------------------*\
| =========                 |                                                 |
| \\      /  F ield         | OpenFOAM: The Open Source CFD Toolbox           |
|  \\    /   O peration     | Version:  2312                                  |
|   \\  /    A nd           | Website:  www.openfoam.com                      |
|    \\/     M anipulation  |                                                 |
\*---------------------------------------------------------------------------*/
FoamFile
{
    version     2.0;
    format      ascii;
    arch        "LSB;label=32;scalar=64";
    class       volScalarField;
    location    "6.5";
    object      nut;
}
// * * * * * * * * * * * * * * * * * * * * * * * * * * * * * * * * * * * * * //

dimensions      [0 2 -1 0 0 0 0];

internalField   nonuniform List<scalar> 
400
(
1.48345e-06
1.48345e-06
1.48345e-06
1.48345e-06
1.48345e-06
1.48345e-06
1.48345e-06
1.48345e-06
1.48345e-06
1.48345e-06
1.48345e-06
1.48345e-06
1.48345e-06
1.48345e-06
1.48345e-06
1.48345e-06
1.48345e-06
1.48345e-06
1.48345e-06
1.48345e-06
1.51225e-06
1.53693e-06
1.53466e-06
1.53375e-06
1.53191e-06
1.53096e-06
1.52914e-06
1.52817e-06
1.52637e-06
1.52538e-06
1.5236e-06
1.5226e-06
1.52084e-06
1.51981e-06
1.51808e-06
1.51703e-06
1.51531e-06
1.51425e-06
1.51339e-06
1.51201e-06
1.55333e-06
1.5798e-06
1.57733e-06
1.57633e-06
1.57433e-06
1.5733e-06
1.57133e-06
1.57029e-06
1.56836e-06
1.56728e-06
1.56539e-06
1.56429e-06
1.56244e-06
1.56133e-06
1.55949e-06
1.55837e-06
1.55655e-06
1.55544e-06
1.55452e-06
1.55307e-06
1.59121e-06
1.61904e-06
1.61642e-06
1.61538e-06
1.61327e-06
1.61219e-06
1.61013e-06
1.60902e-06
1.60699e-06
1.60587e-06
1.60387e-06
1.60274e-06
1.60076e-06
1.59961e-06
1.59766e-06
1.59651e-06
1.59458e-06
1.59342e-06
1.59245e-06
1.59093e-06
1.6192e-06
1.64806e-06
1.64538e-06
1.64427e-06
1.64209e-06
1.64096e-06
1.63882e-06
1.63767e-06
1.63557e-06
1.6344e-06
1.63233e-06
1.63114e-06
1.62911e-06
1.6279e-06
1.6259e-06
1.62469e-06
1.62269e-06
1.62148e-06
1.62049e-06
1.6189e-06
1.63742e-06
1.66698e-06
1.66421e-06
1.66309e-06
1.66086e-06
1.65971e-06
1.65751e-06
1.65634e-06
1.65417e-06
1.65299e-06
1.65085e-06
1.64965e-06
1.64756e-06
1.64633e-06
1.64427e-06
1.64303e-06
1.64099e-06
1.63975e-06
1.63873e-06
1.63711e-06
1.64852e-06
1.67851e-06
1.67571e-06
1.67457e-06
1.6723e-06
1.67112e-06
1.66891e-06
1.66771e-06
1.66552e-06
1.66431e-06
1.66216e-06
1.66092e-06
1.65881e-06
1.65756e-06
1.65547e-06
1.65421e-06
1.65214e-06
1.65089e-06
1.64985e-06
1.6482e-06
1.65522e-06
1.68547e-06
1.68263e-06
1.68149e-06
1.67921e-06
1.67802e-06
1.67579e-06
1.67457e-06
1.67238e-06
1.67114e-06
1.66898e-06
1.66773e-06
1.6656e-06
1.66434e-06
1.66223e-06
1.66096e-06
1.65888e-06
1.65761e-06
1.65656e-06
1.6549e-06
1.65949e-06
1.68991e-06
1.68705e-06
1.68591e-06
1.6836e-06
1.68242e-06
1.68015e-06
1.67896e-06
1.67672e-06
1.67551e-06
1.67331e-06
1.67207e-06
1.66992e-06
1.66866e-06
1.66653e-06
1.66526e-06
1.66316e-06
1.66189e-06
1.66084e-06
1.65916e-06
1.66255e-06
1.69307e-06
1.69021e-06
1.68905e-06
1.68676e-06
1.68555e-06
1.6833e-06
1.68207e-06
1.67986e-06
1.67861e-06
1.67643e-06
1.67516e-06
1.67302e-06
1.67174e-06
1.66962e-06
1.66834e-06
1.66623e-06
1.66495e-06
1.6639e-06
1.66222e-06
1.66508e-06
1.6957e-06
1.69285e-06
1.69168e-06
1.68935e-06
1.68818e-06
1.68588e-06
1.68468e-06
1.68244e-06
1.6812e-06
1.67901e-06
1.67774e-06
1.67559e-06
1.67431e-06
1.67218e-06
1.67089e-06
1.66878e-06
1.6675e-06
1.66644e-06
1.66475e-06
1.66749e-06
1.6982e-06
1.69534e-06
1.69416e-06
1.69185e-06
1.69064e-06
1.68837e-06
1.68713e-06
1.6849e-06
1.68365e-06
1.68146e-06
1.68018e-06
1.67803e-06
1.67674e-06
1.67461e-06
1.67331e-06
1.6712e-06
1.66991e-06
1.66885e-06
1.66716e-06
1.66998e-06
1.70079e-06
1.69789e-06
1.69674e-06
1.69441e-06
1.6932e-06
1.69092e-06
1.68969e-06
1.68744e-06
1.6862e-06
1.68398e-06
1.68272e-06
1.68054e-06
1.67927e-06
1.67711e-06
1.67583e-06
1.6737e-06
1.67241e-06
1.67134e-06
1.66965e-06
1.67269e-06
1.7036e-06
1.70072e-06
1.69953e-06
1.6972e-06
1.69599e-06
1.6937e-06
1.69246e-06
1.69021e-06
1.68896e-06
1.68674e-06
1.68547e-06
1.68329e-06
1.682e-06
1.67985e-06
1.67855e-06
1.67642e-06
1.67512e-06
1.67406e-06
1.67236e-06
1.6757e-06
1.70672e-06
1.70382e-06
1.70263e-06
1.7003e-06
1.69907e-06
1.69679e-06
1.69554e-06
1.69329e-06
1.69202e-06
1.68981e-06
1.68852e-06
1.68634e-06
1.68504e-06
1.68288e-06
1.68158e-06
1.67944e-06
1.67814e-06
1.67707e-06
1.67536e-06
1.67901e-06
1.71016e-06
1.70723e-06
1.70606e-06
1.70369e-06
1.70249e-06
1.70016e-06
1.69894e-06
1.69665e-06
1.6954e-06
1.69316e-06
1.69188e-06
1.68968e-06
1.68839e-06
1.68622e-06
1.68491e-06
1.68276e-06
1.68145e-06
1.68038e-06
1.67867e-06
1.6825e-06
1.71377e-06
1.71086e-06
1.70966e-06
1.70729e-06
1.70608e-06
1.70374e-06
1.70251e-06
1.70021e-06
1.69896e-06
1.69671e-06
1.69543e-06
1.69322e-06
1.69191e-06
1.68974e-06
1.68843e-06
1.68627e-06
1.68496e-06
1.68388e-06
1.68216e-06
1.68587e-06
1.71726e-06
1.71434e-06
1.71313e-06
1.71075e-06
1.70954e-06
1.7072e-06
1.70596e-06
1.70367e-06
1.70239e-06
1.70015e-06
1.69884e-06
1.69664e-06
1.69532e-06
1.69315e-06
1.69182e-06
1.68966e-06
1.68834e-06
1.68726e-06
1.68553e-06
1.68861e-06
1.71947e-06
1.71665e-06
1.71548e-06
1.71319e-06
1.71199e-06
1.70973e-06
1.70849e-06
1.70628e-06
1.70499e-06
1.70282e-06
1.7015e-06
1.69936e-06
1.69802e-06
1.69589e-06
1.69455e-06
1.69242e-06
1.69107e-06
1.69001e-06
1.68828e-06
1.68985e-06
1.68985e-06
1.68984e-06
1.68985e-06
1.68984e-06
1.68985e-06
1.68984e-06
1.68984e-06
1.68984e-06
1.68984e-06
1.68984e-06
1.68984e-06
1.68984e-06
1.68984e-06
1.68984e-06
1.68984e-06
1.68984e-06
1.68984e-06
1.68984e-06
1.68984e-06
)
;

boundaryField
{
    movingWall
    {
        type            nutkWallFunction;
        blending        stepwise;
        value           uniform 0;
    }
    fixedWalls
    {
        type            nutkWallFunction;
        blending        stepwise;
        value           uniform 0;
    }
    frontAndBack
    {
        type            empty;
    }
}


// ************************************************************************* //
