/*--------------------------------*- C++ -*----------------------------------*\
| =========                 |                                                 |
| \\      /  F ield         | OpenFOAM: The Open Source CFD Toolbox           |
|  \\    /   O peration     | Version:  2312                                  |
|   \\  /    A nd           | Website:  www.openfoam.com                      |
|    \\/     M anipulation  |                                                 |
\*---------------------------------------------------------------------------*/
FoamFile
{
    version     2.0;
    format      ascii;
    arch        "LSB;label=32;scalar=64";
    class       volScalarField;
    location    "6.5";
    object      P_A;
}
// * * * * * * * * * * * * * * * * * * * * * * * * * * * * * * * * * * * * * //

dimensions      [1 -1 -3 0 0 0 0];

internalField   nonuniform List<scalar> 
400
(
4.87499e-32
4.87497e-32
4.87495e-32
4.87494e-32
4.87493e-32
4.87492e-32
4.87491e-32
4.8749e-32
4.87489e-32
4.87489e-32
4.87488e-32
4.87488e-32
4.87488e-32
4.87487e-32
4.87487e-32
4.87487e-32
4.87487e-32
4.87487e-32
4.87487e-32
4.87487e-32
5.6925e-32
5.60112e-32
5.60786e-32
5.61082e-32
5.61656e-32
5.61958e-32
5.6254e-32
5.62858e-32
5.63446e-32
5.63782e-32
5.64372e-32
5.64728e-32
5.65326e-32
5.65693e-32
5.66303e-32
5.66682e-32
5.67304e-32
5.67694e-32
5.6801e-32
5.68526e-32
7.06408e-32
6.94572e-32
6.95464e-32
6.95845e-32
6.96592e-32
6.96989e-32
6.97747e-32
6.98156e-32
6.98925e-32
6.99349e-32
7.00128e-32
7.00568e-32
7.01356e-32
7.01814e-32
7.02609e-32
7.03084e-32
7.03888e-32
7.04378e-32
7.04784e-32
7.05442e-32
8.5744e-32
8.42716e-32
8.43806e-32
8.4429e-32
8.45216e-32
8.45704e-32
8.46648e-32
8.47156e-32
8.48107e-32
8.48642e-32
8.49597e-32
8.50158e-32
8.5112e-32
8.51706e-32
8.52679e-32
8.53281e-32
8.54273e-32
8.54888e-32
8.55392e-32
8.56211e-32
9.86336e-32
9.6906e-32
9.70359e-32
9.70904e-32
9.71993e-32
9.72556e-32
9.73665e-32
9.74256e-32
9.75374e-32
9.75992e-32
9.77121e-32
9.77766e-32
9.78908e-32
9.7958e-32
9.80731e-32
9.81428e-32
9.82596e-32
9.83314e-32
9.83906e-32
9.84865e-32
1.07897e-31
1.05984e-31
1.06126e-31
1.06188e-31
1.06307e-31
1.06371e-31
1.06492e-31
1.06559e-31
1.06681e-31
1.06751e-31
1.06874e-31
1.06947e-31
1.07072e-31
1.07147e-31
1.07274e-31
1.07352e-31
1.07481e-31
1.07561e-31
1.07626e-31
1.07732e-31
1.13904e-31
1.11869e-31
1.12021e-31
1.12085e-31
1.12213e-31
1.12279e-31
1.1241e-31
1.12479e-31
1.1261e-31
1.12683e-31
1.12816e-31
1.12892e-31
1.13026e-31
1.13105e-31
1.13241e-31
1.13323e-31
1.1346e-31
1.13545e-31
1.13614e-31
1.13728e-31
1.17667e-31
1.15556e-31
1.15712e-31
1.1578e-31
1.15913e-31
1.15981e-31
1.16117e-31
1.16188e-31
1.16325e-31
1.164e-31
1.16538e-31
1.16617e-31
1.16756e-31
1.16838e-31
1.16978e-31
1.17064e-31
1.17206e-31
1.17294e-31
1.17366e-31
1.17484e-31
1.20121e-31
1.1796e-31
1.18119e-31
1.18189e-31
1.18324e-31
1.18396e-31
1.18532e-31
1.18608e-31
1.18745e-31
1.18824e-31
1.18963e-31
1.19046e-31
1.19187e-31
1.19272e-31
1.19415e-31
1.19503e-31
1.19648e-31
1.19738e-31
1.19812e-31
1.19932e-31
1.21906e-31
1.19708e-31
1.19871e-31
1.1994e-31
1.20079e-31
1.2015e-31
1.20292e-31
1.20365e-31
1.20508e-31
1.20585e-31
1.20729e-31
1.20811e-31
1.20956e-31
1.21041e-31
1.21187e-31
1.21276e-31
1.21425e-31
1.21516e-31
1.21591e-31
1.21713e-31
1.23407e-31
1.21178e-31
1.21344e-31
1.21414e-31
1.21553e-31
1.21628e-31
1.21768e-31
1.21846e-31
1.21988e-31
1.22069e-31
1.22214e-31
1.22297e-31
1.22444e-31
1.2253e-31
1.22679e-31
1.22768e-31
1.22919e-31
1.23011e-31
1.23088e-31
1.23211e-31
1.24845e-31
1.22587e-31
1.22756e-31
1.22827e-31
1.22968e-31
1.23041e-31
1.23186e-31
1.23262e-31
1.23409e-31
1.23489e-31
1.23636e-31
1.2372e-31
1.23869e-31
1.23957e-31
1.24107e-31
1.24198e-31
1.24351e-31
1.24444e-31
1.24522e-31
1.24647e-31
1.26351e-31
1.24063e-31
1.24231e-31
1.24305e-31
1.24448e-31
1.24523e-31
1.24669e-31
1.24747e-31
1.24894e-31
1.24977e-31
1.25125e-31
1.25211e-31
1.2536e-31
1.25451e-31
1.25602e-31
1.25695e-31
1.25849e-31
1.25944e-31
1.26023e-31
1.2615e-31
1.28007e-31
1.25684e-31
1.25858e-31
1.25931e-31
1.26076e-31
1.26152e-31
1.26301e-31
1.26378e-31
1.26529e-31
1.26612e-31
1.26763e-31
1.26849e-31
1.27002e-31
1.27093e-31
1.27247e-31
1.27341e-31
1.27498e-31
1.27594e-31
1.27674e-31
1.27803e-31
1.29866e-31
1.27506e-31
1.27681e-31
1.27755e-31
1.27904e-31
1.2798e-31
1.28132e-31
1.28211e-31
1.28364e-31
1.28447e-31
1.28602e-31
1.28689e-31
1.28845e-31
1.28937e-31
1.29093e-31
1.29189e-31
1.29348e-31
1.29446e-31
1.29527e-31
1.29658e-31
1.31941e-31
1.29539e-31
1.29715e-31
1.29793e-31
1.29942e-31
1.30022e-31
1.30173e-31
1.30257e-31
1.3041e-31
1.30497e-31
1.30652e-31
1.30743e-31
1.309e-31
1.30994e-31
1.31154e-31
1.31251e-31
1.31413e-31
1.31513e-31
1.31595e-31
1.31728e-31
1.34164e-31
1.31716e-31
1.31898e-31
1.31975e-31
1.32127e-31
1.32209e-31
1.32363e-31
1.32448e-31
1.32604e-31
1.32693e-31
1.32851e-31
1.32943e-31
1.33104e-31
1.33199e-31
1.33362e-31
1.3346e-31
1.33626e-31
1.33727e-31
1.33811e-31
1.33947e-31
1.36342e-31
1.33849e-31
1.34035e-31
1.34113e-31
1.34268e-31
1.34351e-31
1.34508e-31
1.34594e-31
1.34754e-31
1.34843e-31
1.35006e-31
1.35098e-31
1.35263e-31
1.35359e-31
1.35525e-31
1.35625e-31
1.35794e-31
1.35897e-31
1.35982e-31
1.36121e-31
1.38135e-31
1.35656e-31
1.35838e-31
1.35914e-31
1.36066e-31
1.36147e-31
1.36303e-31
1.36387e-31
1.36546e-31
1.36634e-31
1.36795e-31
1.36888e-31
1.37051e-31
1.37149e-31
1.37314e-31
1.37417e-31
1.37585e-31
1.37692e-31
1.37777e-31
1.37917e-31
1.38952e-31
1.38951e-31
1.38952e-31
1.3895e-31
1.38951e-31
1.3895e-31
1.3895e-31
1.38949e-31
1.3895e-31
1.38949e-31
1.38949e-31
1.38949e-31
1.38949e-31
1.38949e-31
1.38949e-31
1.38949e-31
1.38949e-31
1.38949e-31
1.38949e-31
1.38949e-31
)
;

boundaryField
{
    movingWall
    {
        type            calculated;
        value           nonuniform List<scalar> 
20
(
1.38952e-31
1.38951e-31
1.38952e-31
1.3895e-31
1.38951e-31
1.3895e-31
1.3895e-31
1.38949e-31
1.3895e-31
1.38949e-31
1.38949e-31
1.38949e-31
1.38949e-31
1.38949e-31
1.38949e-31
1.38949e-31
1.38949e-31
1.38949e-31
1.38949e-31
1.38949e-31
)
;
    }
    fixedWalls
    {
        type            calculated;
        value           nonuniform List<scalar> 
60
(
4.87499e-32
5.6925e-32
7.06408e-32
8.5744e-32
9.86336e-32
1.07897e-31
1.13904e-31
1.17667e-31
1.20121e-31
1.21906e-31
1.23407e-31
1.24845e-31
1.26351e-31
1.28007e-31
1.29866e-31
1.31941e-31
1.34164e-31
1.36342e-31
1.38135e-31
1.38952e-31
4.87487e-32
5.68526e-32
7.05442e-32
8.56211e-32
9.84865e-32
1.07732e-31
1.13728e-31
1.17484e-31
1.19932e-31
1.21713e-31
1.23211e-31
1.24647e-31
1.2615e-31
1.27803e-31
1.29658e-31
1.31728e-31
1.33947e-31
1.36121e-31
1.37917e-31
1.38949e-31
4.87499e-32
4.87497e-32
4.87495e-32
4.87494e-32
4.87493e-32
4.87492e-32
4.87491e-32
4.8749e-32
4.87489e-32
4.87489e-32
4.87488e-32
4.87488e-32
4.87488e-32
4.87487e-32
4.87487e-32
4.87487e-32
4.87487e-32
4.87487e-32
4.87487e-32
4.87487e-32
)
;
    }
    frontAndBack
    {
        type            empty;
    }
}


// ************************************************************************* //
