/*--------------------------------*- C++ -*----------------------------------*\
| =========                 |                                                 |
| \\      /  F ield         | OpenFOAM: The Open Source CFD Toolbox           |
|  \\    /   O peration     | Version:  2312                                  |
|   \\  /    A nd           | Website:  www.openfoam.com                      |
|    \\/     M anipulation  |                                                 |
\*---------------------------------------------------------------------------*/
FoamFile
{
    version     2.0;
    format      ascii;
    arch        "LSB;label=32;scalar=64";
    class       surfaceScalarField;
    location    "6.5";
    object      PecletNoField;
}
// * * * * * * * * * * * * * * * * * * * * * * * * * * * * * * * * * * * * * //

dimensions      [0 0 0 0 0 0 0];

oriented        oriented;

internalField   nonuniform List<scalar> 
760
(
435.409
3.24141e-12
435.409
5.53399e-12
435.409
1.73518e-12
435.409
1.1822e-13
435.409
1.62398e-13
435.409
8.62576e-14
435.409
4.29155e-14
435.409
3.5882e-14
435.409
5.33168e-14
435.409
5.71662e-14
435.409
1.99284e-14
435.409
5.31303e-14
435.409
1.06299e-13
435.409
6.28244e-14
435.409
2.46028e-14
435.409
8.9611e-14
435.409
2.31469e-14
435.409
1.4392e-14
435.409
3.94147e-14
1.53796e-14
433.855
3.89232e-12
433.434
4.58773e-12
433.493
1.4243e-12
433.545
2.45743e-13
433.598
1.8851e-14
433.65
6.11684e-14
433.702
7.54134e-14
433.754
5.84083e-14
433.806
8.02392e-15
433.859
1.29922e-14
433.911
2.21545e-14
433.963
5.63709e-14
434.015
8.41495e-14
434.068
5.9435e-14
434.12
1.53092e-14
434.172
1.45831e-14
434.225
3.08192e-14
434.261
5.27382e-15
434.303
9.40993e-14
8.19303e-14
432.28
1.17386e-12
431.832
1.22762e-12
431.897
2.72052e-13
431.953
1.13154e-14
432.01
3.93947e-14
432.066
1.71509e-14
432.122
1.05145e-14
432.177
4.6791e-14
432.234
1.23556e-13
432.289
6.91469e-14
432.345
2.94247e-15
432.4
1.0439e-15
432.456
3.6655e-14
432.511
1.6216e-14
432.566
5.43419e-14
432.621
2.21956e-15
432.676
9.94487e-15
432.714
6.02432e-14
432.758
5.42282e-14
5.45712e-14
430.844
3.4243e-12
430.377
3.99655e-12
430.444
1.05325e-12
430.503
2.21182e-13
430.562
8.79393e-14
430.62
9.0812e-15
430.679
4.06076e-14
430.737
3.57063e-14
430.796
5.61049e-15
430.854
2.21159e-14
430.912
1.72339e-14
430.97
1.10122e-14
431.028
8.75096e-15
431.085
4.96199e-14
431.143
1.00117e-13
431.2
7.4311e-14
431.258
3.52734e-14
431.297
2.71765e-14
431.343
5.93791e-14
3.61991e-14
429.789
2.74489e-12
429.306
4.06095e-12
429.375
1.14541e-12
429.436
2.45121e-13
429.497
2.01604e-14
429.557
9.75005e-14
429.618
5.289e-14
429.678
2.11415e-14
429.738
1.11607e-15
429.798
3.70058e-14
429.858
2.0991e-14
429.918
5.31147e-14
429.978
1.17997e-13
430.037
1.43064e-13
430.097
1.06468e-13
430.156
6.29747e-14
430.215
4.96244e-14
430.256
1.53899e-14
430.304
6.84656e-15
2.42236e-14
429.104
9.29874e-13
428.611
1.0881e-12
428.682
3.39632e-13
428.744
9.69624e-16
428.806
4.25685e-14
428.868
4.96746e-14
428.93
3.71886e-14
428.991
1.29039e-14
429.053
1.01358e-13
429.114
1.07485e-13
429.175
4.68204e-14
429.236
3.45778e-14
429.297
3.26507e-14
429.358
6.38123e-15
429.419
2.14857e-14
429.479
1.3623e-14
429.54
2.7428e-14
429.581
8.04591e-16
429.63
1.1439e-14
9.32053e-15
428.687
3.02461e-12
428.188
3.55592e-12
428.26
9.77769e-13
428.323
2.12416e-13
428.386
6.4911e-14
428.448
3.19992e-14
428.511
5.93109e-14
428.573
8.29022e-14
428.636
1.25052e-13
428.698
5.51744e-14
428.76
2.14433e-14
428.821
1.02086e-14
428.883
2.73297e-15
428.945
3.891e-14
429.006
5.11796e-14
429.067
6.22248e-14
429.129
2.49255e-14
429.171
1.7266e-14
429.22
2.70528e-14
7.35049e-14
428.436
1.75382e-12
427.934
3.14454e-12
428.007
1.13387e-12
428.069
1.33824e-13
428.133
4.74778e-14
428.196
1.77143e-14
428.259
3.56124e-14
428.322
1.71371e-14
428.384
1.55028e-14
428.447
3.34574e-14
428.509
9.17234e-14
428.572
1.08756e-13
428.634
1.02568e-13
428.696
9.60579e-14
428.758
7.50637e-14
428.819
1.63575e-14
428.881
4.25476e-14
428.924
2.89159e-14
428.974
3.03505e-14
1.48631e-14
428.277
3.66068e-13
427.772
4.97053e-13
427.845
3.21815e-13
427.908
4.2504e-15
427.972
9.41833e-15
428.035
2.79611e-14
428.099
6.74958e-14
428.161
5.51914e-14
428.225
1.86157e-14
428.287
3.91587e-14
428.35
6.83574e-14
428.412
6.96107e-14
428.475
6.35772e-14
428.537
2.68302e-14
428.6
3.50433e-14
428.662
1.5839e-14
428.724
5.15387e-14
428.766
2.32021e-14
428.816
2.55497e-14
3.3954e-14
428.163
2.83528e-14
427.656
6.34659e-14
427.729
1.62435e-13
427.793
1.0347e-15
427.857
6.5741e-15
427.92
3.59263e-14
427.984
4.75378e-14
428.047
5.58825e-14
428.11
4.73133e-14
428.173
1.1689e-14
428.236
8.77771e-14
428.299
1.19908e-13
428.362
6.00005e-14
428.424
9.01469e-15
428.487
1.54798e-14
428.549
1.42514e-14
428.611
3.18861e-16
428.654
2.54918e-14
428.704
5.86926e-16
2.30732e-14
428.068
9.10703e-13
427.56
9.49535e-13
427.633
5.1795e-15
427.697
1.13962e-14
427.761
3.19814e-14
427.825
1.79705e-15
427.889
7.07999e-15
427.952
2.12934e-14
428.015
4.0465e-14
428.078
1.25509e-14
428.142
5.32211e-14
428.204
4.38587e-14
428.267
4.50024e-14
428.33
1.34226e-14
428.393
6.18541e-14
428.455
4.32599e-14
428.517
2.82233e-14
428.56
5.18678e-14
428.611
3.60318e-14
2.41432e-14
427.978
9.8654e-14
427.468
3.58788e-13
427.542
5.83108e-13
427.606
2.86442e-14
427.671
7.16227e-14
427.734
6.96348e-14
427.798
8.93096e-15
427.862
4.45303e-14
427.926
5.3606e-14
427.989
1.06725e-13
428.052
1.29602e-14
428.115
5.83486e-14
428.178
3.78984e-14
428.241
2.02333e-14
428.304
8.40791e-15
428.366
1.70216e-15
428.429
3.36175e-14
428.472
6.3729e-14
428.522
1.67942e-14
3.83825e-14
427.885
7.14944e-13
427.374
1.94345e-12
427.448
1.09104e-12
427.512
7.30004e-14
427.577
4.53176e-14
427.641
7.06853e-14
427.705
5.04354e-14
427.768
1.61382e-14
427.832
4.91963e-14
427.896
5.40449e-14
427.959
2.04659e-14
428.022
1.49587e-14
428.086
8.50693e-15
428.149
3.91649e-14
428.212
3.59088e-14
428.274
2.64496e-14
428.337
4.33729e-15
428.38
3.66155e-14
428.431
8.08655e-14
6.11238e-14
427.784
1.20025e-12
427.272
1.49748e-12
427.346
6.30591e-13
427.41
8.71402e-14
427.475
2.17751e-14
427.539
1.46463e-14
427.603
1.437e-14
427.667
2.82128e-14
427.731
8.16385e-15
427.795
4.49123e-14
427.859
1.62674e-14
427.922
9.8292e-15
427.985
1.32286e-14
428.048
1.77341e-14
428.111
2.23833e-14
428.174
3.8211e-16
428.237
7.03082e-15
428.281
7.18325e-14
428.331
5.39161e-14
2.31162e-14
427.672
2.55592e-12
427.158
2.69691e-12
427.233
6.4333e-13
427.297
1.34636e-13
427.362
1.90764e-14
427.426
2.13218e-14
427.491
3.39802e-14
427.555
3.97903e-14
427.619
1.18472e-13
427.683
8.71459e-14
427.747
3.14618e-14
427.81
2.33646e-14
427.874
2.97123e-14
427.937
2.71312e-14
428
2.01006e-14
428.064
7.31253e-14
428.127
6.47127e-14
428.17
3.55297e-14
428.221
2.28612e-14
1.77053e-14
427.548
3.03241e-12
427.033
4.77886e-12
427.108
1.32622e-12
427.172
2.04789e-13
427.238
5.30695e-14
427.302
9.46258e-15
427.367
9.26249e-14
427.431
1.56612e-13
427.496
1.0708e-13
427.559
9.26295e-14
427.624
4.51378e-14
427.687
2.13186e-14
427.751
2.557e-14
427.815
2.14791e-14
427.878
5.15953e-14
427.942
6.87101e-14
428.005
2.2184e-14
428.049
1.79193e-14
428.1
2.23766e-14
1.96701e-15
427.419
2.52029e-12
426.901
2.96411e-12
426.976
9.72458e-13
427.041
1.0358e-13
427.106
2.80788e-14
427.171
1.01139e-13
427.236
1.28424e-13
427.301
6.7634e-14
427.365
4.26444e-14
427.429
5.76475e-14
427.494
5.53424e-14
427.558
2.65243e-14
427.622
7.07252e-15
427.686
4.49785e-14
427.749
4.03491e-14
427.813
3.7001e-14
427.876
1.14817e-14
427.92
4.95367e-14
427.972
4.69129e-14
1.86742e-14
427.293
3.19279e-12
426.774
3.38871e-12
426.849
8.10634e-13
426.915
2.40366e-13
426.98
2.15872e-14
427.045
7.61624e-14
427.11
7.00064e-14
427.175
5.96443e-14
427.24
6.39671e-14
427.304
4.6233e-14
427.369
2.12739e-14
427.433
1.94516e-14
427.497
4.63341e-14
427.561
5.92824e-14
427.625
5.64794e-15
427.689
3.65051e-14
427.753
7.13649e-14
427.797
3.26811e-14
427.848
3.26952e-14
2.82353e-14
427.203
3.151e-12
426.692
4.86312e-12
426.764
1.46523e-12
426.827
1.02362e-13
426.891
1.07616e-13
426.954
5.9975e-14
427.018
5.21334e-14
427.081
3.32896e-14
427.145
8.24189e-15
427.208
1.77143e-14
427.271
4.31064e-14
427.335
1.22949e-14
427.398
1.79272e-14
427.462
6.64409e-15
427.525
5.21319e-14
427.589
3.64932e-14
427.652
3.57809e-14
427.696
2.85057e-14
427.747
2.94632e-14
1.68558e-14
427.722
427.722
427.722
427.722
427.722
427.722
427.722
427.722
427.722
427.722
427.722
427.722
427.722
427.722
427.722
427.722
427.722
427.722
427.722
)
;

boundaryField
{
    movingWall
    {
        type            calculated;
        value           uniform 0;
    }
    fixedWalls
    {
        type            calculated;
        value           nonuniform List<scalar> 
60
(
250
250
250
250
250
250
250
250
250
250
250
250
250
250
250
250
250
250
250
250
250
250
250
250
250
250
250
250
250
250
250
250
250
250
250
250
250
250
250
250
0
0
0
0
0
0
0
0
0
0
0
0
0
0
0
0
0
0
0
0
)
;
    }
    frontAndBack
    {
        type            empty;
        value           nonuniform List<scalar> 0();
    }
}


// ************************************************************************* //
