/*--------------------------------*- C++ -*----------------------------------*\
| =========                 |                                                 |
| \\      /  F ield         | OpenFOAM: The Open Source CFD Toolbox           |
|  \\    /   O peration     | Version:  2312                                  |
|   \\  /    A nd           | Website:  www.openfoam.com                      |
|    \\/     M anipulation  |                                                 |
\*---------------------------------------------------------------------------*/
FoamFile
{
    version     2.0;
    format      ascii;
    arch        "LSB;label=32;scalar=64";
    class       surfaceScalarField;
    location    "6.5";
    object      phi;
}
// * * * * * * * * * * * * * * * * * * * * * * * * * * * * * * * * * * * * * //

dimensions      [0 3 -1 0 0 0 0];

oriented        oriented;

internalField   nonuniform List<scalar> 
760
(
-5e-05
3.72692e-19
-5e-05
-6.36973e-19
-5e-05
1.99703e-19
-5e-05
-1.36054e-20
-5e-05
1.86883e-20
-5e-05
9.92584e-21
-5e-05
4.93798e-21
-5e-05
4.12852e-21
-5e-05
6.13405e-21
-5e-05
6.57663e-21
-5e-05
2.29246e-21
-5e-05
6.11159e-21
-5e-05
1.22267e-20
-5e-05
7.22583e-21
-5e-05
-2.82951e-21
-5e-05
-1.03055e-20
-5e-05
-2.66175e-21
-5e-05
1.65491e-21
-5e-05
-4.53207e-21
1.76831e-21
-5e-05
-4.48893e-19
-5e-05
5.30267e-19
-5e-05
-1.64591e-19
-5e-05
2.83957e-20
-5e-05
2.17788e-21
-5e-05
7.06625e-21
-5e-05
8.71043e-21
-5e-05
6.74571e-21
-5e-05
9.26552e-22
-5e-05
-1.50013e-21
-5e-05
2.55762e-21
-5e-05
6.50714e-21
-5e-05
9.71223e-21
-5e-05
6.85914e-21
-5e-05
1.7665e-21
-5e-05
1.68255e-21
-5e-05
3.55528e-21
-5e-05
-6.08327e-22
-5e-05
-1.08534e-20
-9.44864e-21
-5e-05
-1.35842e-19
-5e-05
1.42397e-19
-5e-05
-3.15495e-20
-5e-05
-1.31211e-21
-5e-05
-4.56734e-21
-5e-05
1.98827e-21
-5e-05
-1.21871e-21
-5e-05
5.42292e-21
-5e-05
1.43172e-20
-5e-05
8.01176e-21
-5e-05
3.40874e-22
-5e-05
-1.20921e-22
-5e-05
-4.24524e-21
-5e-05
1.87789e-21
-5e-05
6.29202e-21
-5e-05
2.56969e-22
-5e-05
-1.15117e-21
-5e-05
-6.9728e-21
-5e-05
-6.2761e-21
-6.31498e-21
-5e-05
3.97397e-19
-5e-05
-4.6494e-19
-5e-05
1.22503e-19
-5e-05
-2.57231e-20
-5e-05
1.02253e-20
-5e-05
-1.05583e-21
-5e-05
-4.72041e-21
-5e-05
-4.15026e-21
-5e-05
6.52011e-22
-5e-05
2.5699e-21
-5e-05
2.00225e-21
-5e-05
-1.27928e-21
-5e-05
1.01642e-21
-5e-05
-5.76274e-21
-5e-05
-1.16253e-20
-5e-05
-8.62795e-21
-5e-05
-4.09476e-21
-5e-05
-3.1545e-21
-5e-05
-6.89182e-21
-4.20087e-21
-5e-05
-3.19185e-19
-5e-05
4.73406e-19
-5e-05
-1.33496e-19
-5e-05
2.85656e-20
-5e-05
2.34899e-21
-5e-05
1.13591e-20
-5e-05
6.16072e-21
-5e-05
2.46235e-21
-5e-05
-1.29965e-22
-5e-05
-4.30884e-21
-5e-05
-2.44369e-21
-5e-05
-6.18277e-21
-5e-05
-1.37329e-20
-5e-05
-1.66486e-20
-5e-05
-1.23877e-20
-5e-05
-7.32639e-21
-5e-05
-5.77223e-21
-5e-05
-1.78994e-21
-5e-05
7.96229e-22
-2.81672e-21
-5e-05
1.08265e-19
-5e-05
-1.27011e-19
-5e-05
3.96349e-20
-5e-05
1.13144e-22
-5e-05
4.96629e-21
-5e-05
5.79475e-21
-5e-05
4.33738e-21
-5e-05
1.50486e-21
-5e-05
-1.18181e-20
-5e-05
-1.25313e-20
-5e-05
-5.45762e-21
-5e-05
-4.03014e-21
-5e-05
-3.80484e-21
-5e-05
7.43537e-22
-5e-05
-2.50306e-21
-5e-05
-1.5869e-21
-5e-05
-3.19442e-21
-5e-05
-9.36972e-23
-5e-05
-1.33199e-21
-1.08516e-21
-5e-05
3.52424e-19
-5e-05
-4.15402e-19
-5e-05
1.14195e-19
-5e-05
-2.4806e-20
-5e-05
7.57886e-21
-5e-05
-3.73576e-21
-5e-05
-6.92297e-21
-5e-05
-9.67564e-21
-5e-05
-1.45923e-20
-5e-05
-6.43759e-21
-5e-05
-2.50148e-21
-5e-05
-1.19076e-21
-5e-05
3.18724e-22
-5e-05
-4.53727e-21
-5e-05
-5.96695e-21
-5e-05
-7.25391e-21
-5e-05
-2.9052e-21
-5e-05
-2.01222e-21
-5e-05
3.15252e-21
8.56446e-21
-5e-05
-2.04449e-19
-5e-05
3.67524e-19
-5e-05
-1.32491e-19
-5e-05
1.56356e-20
-5e-05
-5.54607e-21
-5e-05
2.06907e-21
-5e-05
4.15881e-21
-5e-05
2.00106e-21
-5e-05
1.80989e-21
-5e-05
-3.90559e-21
-5e-05
-1.07052e-20
-5e-05
-1.26917e-20
-5e-05
-1.19674e-20
-5e-05
-1.12066e-20
-5e-05
-8.75571e-21
-5e-05
1.9078e-21
-5e-05
4.96148e-21
-5e-05
-3.37152e-21
-5e-05
-3.53847e-21
-1.7326e-21
-5e-05
4.26872e-20
-5e-05
-5.81129e-20
-5e-05
3.76158e-20
-5e-05
-4.96765e-22
-5e-05
-1.10055e-21
-5e-05
3.26697e-21
-5e-05
7.88467e-21
-5e-05
6.44664e-21
-5e-05
2.174e-21
-5e-05
-4.57258e-21
-5e-05
-7.98064e-21
-5e-05
-8.12608e-21
-5e-05
-7.42039e-21
-5e-05
-3.13114e-21
-5e-05
4.08887e-21
-5e-05
-1.8479e-21
-5e-05
-6.01184e-21
-5e-05
-2.70615e-21
-5e-05
-2.9797e-21
-3.95927e-21
-5e-05
-3.30701e-21
-5e-05
-7.42195e-21
-5e-05
1.89911e-20
-5e-05
1.20961e-22
-5e-05
7.68385e-22
-5e-05
4.19866e-21
-5e-05
5.5546e-21
-5e-05
6.52896e-21
-5e-05
5.52674e-21
-5e-05
-1.36527e-21
-5e-05
-1.02504e-20
-5e-05
-1.4001e-20
-5e-05
-7.00464e-21
-5e-05
-1.05229e-21
-5e-05
1.80664e-21
-5e-05
1.66308e-21
-5e-05
-3.72031e-23
-5e-05
2.97393e-21
-5e-05
-6.8466e-23
-2.69114e-21
-5e-05
1.06245e-19
-5e-05
-1.11067e-19
-5e-05
6.05696e-22
-5e-05
-1.33255e-21
-5e-05
3.73881e-21
-5e-05
2.10064e-22
-5e-05
8.27447e-22
-5e-05
2.48833e-21
-5e-05
4.7278e-21
-5e-05
-1.46625e-21
-5e-05
-6.21635e-21
-5e-05
-5.12224e-21
-5e-05
-5.25485e-21
-5e-05
-1.56716e-21
-5e-05
7.22047e-21
-5e-05
5.04934e-21
-5e-05
3.29366e-21
-5e-05
6.0523e-21
-5e-05
4.20406e-21
-2.81654e-21
-5e-05
-1.15117e-20
-5e-05
-4.19763e-20
-5e-05
6.8204e-20
-5e-05
-3.35007e-21
-5e-05
-8.37493e-21
-5e-05
-8.14164e-21
-5e-05
-1.044e-21
-5e-05
5.20489e-21
-5e-05
6.26449e-21
-5e-05
1.24708e-20
-5e-05
1.5141e-21
-5e-05
-6.81596e-21
-5e-05
-4.42626e-21
-5e-05
2.36284e-21
-5e-05
-9.81696e-22
-5e-05
-1.9872e-22
-5e-05
-3.92398e-21
-5e-05
-7.43791e-21
-5e-05
-1.9599e-21
4.47862e-21
-5e-05
-8.34435e-20
-5e-05
2.27426e-19
-5e-05
-1.27645e-19
-5e-05
8.53968e-21
-5e-05
-5.30025e-21
-5e-05
-8.26636e-21
-5e-05
-5.89706e-21
-5e-05
-1.88673e-21
-5e-05
5.75048e-21
-5e-05
6.31654e-21
-5e-05
2.39151e-21
-5e-05
1.74779e-21
-5e-05
9.93773e-22
-5e-05
-4.57471e-21
-5e-05
-4.1936e-21
-5e-05
-3.08857e-21
-5e-05
-5.06382e-22
-5e-05
-4.27441e-21
-5e-05
-9.43918e-21
-7.13376e-21
-5e-05
1.4012e-19
-5e-05
-1.75282e-19
-5e-05
7.37935e-20
-5e-05
-1.01963e-20
-5e-05
-2.54741e-21
-5e-05
-1.71326e-21
-5e-05
-1.68061e-21
-5e-05
-3.29921e-21
-5e-05
-9.54497e-22
-5e-05
-5.25047e-21
-5e-05
-1.90138e-21
-5e-05
-1.14874e-21
-5e-05
1.54574e-21
-5e-05
-2.07197e-21
-5e-05
-2.61468e-21
-5e-05
4.46308e-23
-5e-05
-8.21054e-22
-5e-05
-8.38762e-21
-5e-05
-6.29501e-21
2.69855e-21
-5e-05
2.98463e-19
-5e-05
-3.15766e-19
-5e-05
7.53051e-20
-5e-05
-1.57583e-20
-5e-05
2.23232e-21
-5e-05
2.49482e-21
-5e-05
3.97517e-21
-5e-05
-4.65437e-21
-5e-05
-1.38553e-20
-5e-05
-1.01906e-20
-5e-05
-3.67835e-21
-5e-05
-2.73137e-21
-5e-05
-3.47278e-21
-5e-05
3.17075e-21
-5e-05
-2.34867e-21
-5e-05
-8.5434e-21
-5e-05
-7.55916e-21
-5e-05
-4.1498e-21
-5e-05
-2.66989e-21
2.06745e-21
-5e-05
-3.54208e-19
-5e-05
5.59699e-19
-5e-05
-1.55287e-19
-5e-05
2.39764e-20
-5e-05
-6.21205e-21
-5e-05
-1.10753e-21
-5e-05
-1.08389e-20
-5e-05
-1.83247e-20
-5e-05
-1.25266e-20
-5e-05
-1.0835e-20
-5e-05
-5.27884e-21
-5e-05
2.49293e-21
-5e-05
2.9895e-21
-5e-05
-2.51094e-21
-5e-05
-6.03044e-21
-5e-05
-8.02992e-21
-5e-05
-2.59209e-21
-5e-05
2.09355e-21
-5e-05
2.61406e-21
-2.29755e-22
-5e-05
2.94475e-19
-5e-05
-3.4726e-19
-5e-05
1.139e-19
-5e-05
-1.21307e-20
-5e-05
-3.28775e-21
-5e-05
-1.18411e-20
-5e-05
-1.50326e-20
-5e-05
-7.91604e-21
-5e-05
-4.99022e-21
-5e-05
-6.74514e-21
-5e-05
-6.4742e-21
-5e-05
3.10259e-21
-5e-05
8.27127e-22
-5e-05
-5.25962e-21
-5e-05
-4.71739e-21
-5e-05
-4.32546e-21
-5e-05
-1.34198e-21
-5e-05
5.78918e-21
-5e-05
5.48204e-21
2.18186e-21
-5e-05
3.73149e-19
-5e-05
-3.97101e-19
-5e-05
9.49698e-20
-5e-05
-2.81572e-20
-5e-05
-2.52828e-21
-5e-05
-8.9192e-21
-5e-05
-8.19668e-21
-5e-05
-6.98269e-21
-5e-05
-7.48733e-21
-5e-05
-5.41097e-21
-5e-05
-2.48937e-21
-5e-05
-2.27587e-21
-5e-05
-5.42016e-21
-5e-05
-6.93407e-21
-5e-05
-6.60499e-22
-5e-05
4.26861e-21
-5e-05
8.3433e-21
-5e-05
3.82032e-21
-5e-05
3.82162e-21
3.29983e-21
-5e-05
-3.68327e-19
-5e-05
5.69211e-19
-5e-05
-1.7148e-19
-5e-05
1.19791e-20
-5e-05
-1.25927e-20
-5e-05
-7.01762e-21
-5e-05
-6.0995e-21
-5e-05
-3.89461e-21
-5e-05
9.64142e-22
-5e-05
2.07212e-21
-5e-05
5.04187e-21
-5e-05
1.43797e-21
-5e-05
2.09652e-21
-5e-05
-7.76956e-22
-5e-05
-6.09572e-21
-5e-05
-4.26686e-21
-5e-05
-4.18319e-21
-5e-05
3.33245e-21
-5e-05
3.44422e-21
-1.97029e-21
-5e-05
-5e-05
-5e-05
-5e-05
-5e-05
-5e-05
-5e-05
-5e-05
-5e-05
-5e-05
-5e-05
-5e-05
-5e-05
-5e-05
-5e-05
-5e-05
-5e-05
-5e-05
-5e-05
)
;

boundaryField
{
    movingWall
    {
        type            calculated;
        value           uniform 0;
    }
    fixedWalls
    {
        type            calculated;
        value           nonuniform List<scalar> 
60
(
5e-05
5e-05
5e-05
5e-05
5e-05
5e-05
5e-05
5e-05
5e-05
5e-05
5e-05
5e-05
5e-05
5e-05
5e-05
5e-05
5e-05
5e-05
5e-05
5e-05
-5e-05
-5e-05
-5e-05
-5e-05
-5e-05
-5e-05
-5e-05
-5e-05
-5e-05
-5e-05
-5e-05
-5e-05
-5e-05
-5e-05
-5e-05
-5e-05
-5e-05
-5e-05
-5e-05
-5e-05
0
0
0
0
0
0
0
0
0
0
0
0
0
0
0
0
0
0
0
0
)
;
    }
    frontAndBack
    {
        type            empty;
        value           nonuniform List<scalar> 0();
    }
}


// ************************************************************************* //
