/*--------------------------------*- C++ -*----------------------------------*\
| =========                 |                                                 |
| \\      /  F ield         | OpenFOAM: The Open Source CFD Toolbox           |
|  \\    /   O peration     | Version:  2312                                  |
|   \\  /    A nd           | Website:  www.openfoam.com                      |
|    \\/     M anipulation  |                                                 |
\*---------------------------------------------------------------------------*/
FoamFile
{
    version     2.0;
    format      ascii;
    arch        "LSB;label=32;scalar=64";
    class       volScalarField;
    location    "6.5";
    object      QField;
}
// * * * * * * * * * * * * * * * * * * * * * * * * * * * * * * * * * * * * * //

dimensions      [0 0 -2 0 0 0 0];

internalField   nonuniform List<scalar> 
400
(
-2.63101e-23
-8.39499e-24
-6.09518e-25
4.11841e-26
-1.98667e-26
-2.00368e-28
-6.36957e-28
-1.36248e-28
-1.305e-27
-5.30375e-28
0
0
-3.44627e-27
-4.05565e-28
-7.71978e-28
-1.52972e-28
1.11664e-27
8.57858e-29
-2.4717e-28
0
-5.02058e-23
-1.59155e-23
-9.98343e-25
1.23476e-26
4.22508e-29
-1.21687e-27
-9.98112e-28
-6.04072e-28
-4.47926e-28
-7.15479e-28
8.42676e-28
1.19175e-27
0
1.38848e-27
1.28975e-27
-1.09926e-27
-5.2708e-29
5.01474e-28
-1.40364e-28
-8.32763e-28
-5.68491e-23
-1.68638e-23
-6.89769e-25
-8.89895e-27
-1.67381e-26
2.39551e-27
-1.44555e-27
-2.05914e-28
-1.54306e-27
-8.74925e-28
-9.95273e-29
-2.35916e-28
-5.50214e-28
1.09917e-27
-3.25473e-28
0
6.44905e-28
2.08725e-27
9.15456e-29
6.77934e-29
-5.50642e-23
-1.47093e-23
-7.80502e-25
-1.00373e-26
-1.55196e-26
0
0
2.67303e-27
2.60278e-29
-1.70172e-28
-1.08065e-27
-2.0423e-28
9.82416e-28
-2.8233e-27
-4.10534e-27
3.03604e-28
6.3825e-30
-2.24694e-28
5.14263e-28
-8.06253e-28
-4.40613e-23
-1.29617e-23
-7.20218e-25
-5.60814e-26
1.89466e-28
1.06325e-27
1.62372e-27
-1.88445e-27
-7.47553e-28
-2.40935e-27
6.99337e-28
1.74997e-27
2.64581e-27
2.34025e-27
0
0
4.68498e-28
-2.61371e-28
-2.7398e-28
3.46505e-28
-4.33236e-23
-1.29871e-23
-6.58795e-25
-8.19444e-27
-3.89973e-27
0
0
2.36818e-27
1.37408e-27
4.42761e-29
-1.62808e-28
3.27299e-28
-1.57716e-27
-1.74242e-27
-1.52354e-27
-3.23411e-28
2.10051e-28
2.23506e-28
2.70656e-28
-5.42696e-28
-3.93584e-23
-1.40053e-23
-1.24872e-25
-6.53638e-26
6.54945e-27
-4.28717e-27
-4.58952e-28
-3.30806e-27
3.20974e-28
5.68885e-27
3.11219e-27
7.76923e-28
-5.56067e-28
-2.20044e-27
-7.48949e-28
1.51162e-28
4.29558e-28
0
1.18864e-28
-5.89223e-28
-2.51925e-23
-8.47405e-24
-4.25112e-25
-1.75823e-26
-2.17615e-27
3.23332e-28
-1.72695e-27
0
-3.35758e-27
1.7681e-29
-1.41398e-27
-1.74307e-27
-8.1043e-28
-8.34759e-28
0
7.33868e-28
0
0
-7.98976e-28
-2.47533e-28
-1.46703e-23
-6.19816e-24
-1.75535e-25
-8.50818e-27
3.4621e-27
-2.05768e-28
-6.93723e-28
1.13089e-27
3.65128e-27
2.64381e-27
1.00286e-27
-2.72368e-28
-1.14581e-27
-5.43962e-28
-2.13792e-27
-2.03932e-29
6.00379e-30
0
0
-4.05845e-28
1.41879e-24
-2.18922e-24
3.7786e-25
1.32337e-26
2.92249e-27
0
2.248e-29
9.96465e-30
-8.06858e-29
5.27824e-28
1.17644e-27
-1.23327e-29
-3.24596e-28
-3.89717e-28
8.87755e-29
4.59008e-28
-4.46605e-28
-5.43407e-28
0
2.85252e-28
1.37789e-23
3.61776e-24
2.08341e-25
5.82332e-26
-4.7805e-27
3.03531e-29
0
-1.23079e-28
0
2.41699e-28
-6.96479e-28
-4.39104e-28
1.23799e-27
3.39373e-27
1.3177e-27
-8.64371e-28
-2.59488e-29
-2.28271e-29
4.25142e-28
-5.74005e-29
1.13491e-23
1.63471e-24
2.96684e-25
-1.41894e-26
2.9117e-27
-2.6776e-27
2.4004e-27
1.1211e-27
2.00668e-28
-4.43531e-27
-2.06542e-27
8.1422e-28
8.79384e-28
1.31258e-27
-1.35848e-27
0
-5.33807e-28
-8.82871e-28
-4.24356e-28
-9.34515e-29
1.64742e-23
2.55595e-24
0
2.10104e-26
9.08284e-28
0
6.79739e-28
-3.57144e-28
5.4469e-28
1.95168e-28
1.70573e-27
3.28854e-28
2.78814e-31
-2.17471e-28
-4.48583e-28
-5.08524e-28
4.44049e-28
3.64613e-28
-1.55894e-27
3.88305e-28
6.75228e-24
-9.53896e-25
-4.98844e-26
3.49629e-26
3.28752e-27
-1.34271e-27
-3.144e-28
1.50713e-27
-9.055e-28
-2.32487e-27
-4.5238e-28
-1.98353e-28
9.93271e-28
4.51513e-30
-5.27396e-28
3.05317e-28
3.519e-28
7.55206e-28
-5.6073e-28
-1.60424e-28
-2.39127e-23
-1.03153e-23
2.71817e-25
1.72473e-27
-7.29812e-30
-2.22753e-27
4.30658e-28
2.3548e-27
-1.90922e-27
-1.42642e-27
1.19524e-27
-5.998e-28
4.57563e-28
-5.75017e-29
1.062e-27
0
-4.61588e-28
1.48514e-28
3.62275e-28
-1.5948e-28
-4.13723e-23
-1.41437e-23
-2.20719e-25
-5.37626e-26
7.5333e-27
-1.97648e-27
1.68669e-27
1.97677e-27
-5.36046e-28
-1.22738e-27
-1.21616e-27
-6.172e-28
-6.34645e-29
-5.03364e-28
0
1.12421e-28
1.1121e-28
-1.19423e-27
1.97796e-28
0
-4.22923e-23
-1.25761e-23
-7.70966e-25
-1.50851e-26
1.48142e-27
9.09753e-28
-2.44354e-28
-6.13311e-28
2.8912e-28
0
0
2.99778e-28
4.70793e-28
0
0
-6.09238e-28
5.27632e-28
1.90843e-28
-3.39466e-28
0
-4.52011e-23
-1.51867e-23
-3.00361e-25
-1.97872e-26
4.81645e-28
3.03649e-29
-4.73506e-29
1.69639e-28
-1.47829e-28
2.83484e-28
4.72018e-28
2.67667e-29
-5.28123e-28
3.94105e-28
1.21743e-27
6.13478e-28
3.50859e-28
-8.66471e-29
0
0
-4.33378e-23
-1.29264e-23
-6.23845e-25
-1.11083e-26
5.66652e-28
-1.98942e-28
0
-3.57376e-28
-5.55835e-28
-4.15423e-28
-1.28901e-27
0
3.78338e-28
4.88972e-29
-6.55741e-28
-3.07718e-28
-6.54532e-28
1.53033e-28
0
0
-1.99604e-23
-5.473e-24
-6.04914e-25
3.14155e-26
-8.30271e-27
1.5111e-27
-4.82379e-28
-5.05411e-29
0
-1.01919e-28
0
0
6.96845e-29
6.16958e-28
-6.1603e-28
-8.18921e-28
-7.52708e-28
0
0
0
)
;

boundaryField
{
    movingWall
    {
        type            calculated;
        value           nonuniform List<scalar> 
20
(
8.42575e-24
5.90941e-24
-1.39587e-24
1.46909e-25
-2.18537e-26
4.17878e-27
-3.02574e-28
7.02788e-28
0
-9.29518e-28
-2.98586e-28
-5.44454e-28
-8.73812e-28
-1.01082e-27
-1.40576e-27
-4.57362e-28
-1.23324e-27
0
0
0
)
;
    }
    fixedWalls
    {
        type            calculated;
        value           nonuniform List<scalar> 
60
(
-1.51644e-22
-2.88568e-22
-2.89416e-22
-2.76213e-22
-2.37324e-22
-2.32999e-22
-2.01163e-22
-1.4175e-22
-9.00928e-23
7.66216e-24
6.98009e-23
5.60168e-23
6.4472e-23
1.97698e-23
-1.22681e-22
-2.20853e-22
-2.36213e-22
-2.30441e-22
-2.31053e-22
-1.16371e-22
0
-1.3644e-27
0
-1.43256e-27
7.76604e-28
-1.06862e-27
-9.65383e-28
-7.271e-28
1.05874e-28
7.4875e-28
-5.99205e-28
-1.53111e-28
2.25399e-28
0
0
0
0
0
0
0
1.33418e-23
1.14009e-23
-2.81457e-24
3.57255e-25
-7.56007e-26
1.05346e-26
-1.17202e-27
-1.11614e-27
-4.39512e-27
-1.56201e-27
3.82436e-30
-1.47733e-28
-4.4313e-27
-2.17462e-27
-2.52962e-27
-6.76958e-28
-2.38223e-28
9.3701e-29
2.02482e-28
0
)
;
    }
    frontAndBack
    {
        type            empty;
    }
}


// ************************************************************************* //
