/*--------------------------------*- C++ -*----------------------------------*\
| =========                 |                                                 |
| \\      /  F ield         | OpenFOAM: The Open Source CFD Toolbox           |
|  \\    /   O peration     | Version:  2312                                  |
|   \\  /    A nd           | Website:  www.openfoam.com                      |
|    \\/     M anipulation  |                                                 |
\*---------------------------------------------------------------------------*/
FoamFile
{
    version     2.0;
    format      ascii;
    arch        "LSB;label=32;scalar=64";
    class       surfaceScalarField;
    location    "6.5";
    object      surfaceK;
}
// * * * * * * * * * * * * * * * * * * * * * * * * * * * * * * * * * * * * * //

dimensions      [0 2 -2 0 0 0 0];

internalField   nonuniform List<scalar> 
760
(
7.02469e-06
7.16338e-06
7.02468e-06
7.16338e-06
7.02468e-06
7.16315e-06
7.02468e-06
7.16309e-06
7.02467e-06
7.16295e-06
7.02467e-06
7.16288e-06
7.02466e-06
7.16275e-06
7.02466e-06
7.1627e-06
7.02466e-06
7.16259e-06
7.02466e-06
7.16254e-06
7.02466e-06
7.16245e-06
7.02465e-06
7.16242e-06
7.02465e-06
7.16234e-06
7.02465e-06
7.16232e-06
7.02465e-06
7.16227e-06
7.02465e-06
7.16225e-06
7.02465e-06
7.16222e-06
7.02465e-06
7.16221e-06
7.02465e-06
7.1622e-06
7.16219e-06
7.30206e-06
7.50435e-06
7.30184e-06
7.50436e-06
7.30156e-06
7.5039e-06
7.30137e-06
7.50377e-06
7.30115e-06
7.50345e-06
7.30096e-06
7.50332e-06
7.30079e-06
7.50305e-06
7.30062e-06
7.50293e-06
7.30047e-06
7.50271e-06
7.30033e-06
7.5026e-06
7.30021e-06
7.50242e-06
7.30011e-06
7.50233e-06
7.3e-06
7.5022e-06
7.29993e-06
7.50213e-06
7.29986e-06
7.50204e-06
7.29981e-06
7.50198e-06
7.29977e-06
7.50193e-06
7.29975e-06
7.50191e-06
7.29974e-06
7.50188e-06
7.50188e-06
7.70666e-06
7.89779e-06
7.70642e-06
7.8978e-06
7.7061e-06
7.89727e-06
7.70585e-06
7.89713e-06
7.70561e-06
7.89678e-06
7.7054e-06
7.89662e-06
7.70519e-06
7.89633e-06
7.70501e-06
7.89618e-06
7.70484e-06
7.89595e-06
7.70469e-06
7.89582e-06
7.70455e-06
7.89563e-06
7.70443e-06
7.89553e-06
7.70432e-06
7.89538e-06
7.70423e-06
7.8953e-06
7.70416e-06
7.89519e-06
7.7041e-06
7.89514e-06
7.70406e-06
7.89508e-06
7.70404e-06
7.89505e-06
7.70402e-06
7.89503e-06
7.89502e-06
8.08894e-06
8.23297e-06
8.08866e-06
8.23298e-06
8.0883e-06
8.23242e-06
8.08806e-06
8.23225e-06
8.08778e-06
8.23188e-06
8.08755e-06
8.23169e-06
8.08732e-06
8.23138e-06
8.08712e-06
8.23122e-06
8.08693e-06
8.23096e-06
8.08676e-06
8.23083e-06
8.08661e-06
8.23062e-06
8.08647e-06
8.23051e-06
8.08636e-06
8.23034e-06
8.08626e-06
8.23027e-06
8.08618e-06
8.23014e-06
8.08612e-06
8.23009e-06
8.08607e-06
8.23002e-06
8.08604e-06
8.22999e-06
8.08603e-06
8.22997e-06
8.22996e-06
8.37701e-06
8.47204e-06
8.37674e-06
8.47205e-06
8.37637e-06
8.47146e-06
8.37607e-06
8.47128e-06
8.37578e-06
8.47088e-06
8.37552e-06
8.47068e-06
8.37528e-06
8.47036e-06
8.37507e-06
8.47019e-06
8.37486e-06
8.46991e-06
8.37468e-06
8.46977e-06
8.37452e-06
8.46954e-06
8.37438e-06
8.46943e-06
8.37426e-06
8.46926e-06
8.37415e-06
8.46917e-06
8.37406e-06
8.46905e-06
8.37399e-06
8.46899e-06
8.37394e-06
8.46891e-06
8.37392e-06
8.46888e-06
8.3739e-06
8.46886e-06
8.46885e-06
8.56708e-06
8.62547e-06
8.56677e-06
8.62548e-06
8.56637e-06
8.62487e-06
8.56608e-06
8.62468e-06
8.56578e-06
8.62426e-06
8.56552e-06
8.62406e-06
8.56526e-06
8.62372e-06
8.56503e-06
8.62355e-06
8.56482e-06
8.62326e-06
8.56463e-06
8.62312e-06
8.56446e-06
8.62287e-06
8.56432e-06
8.62276e-06
8.56418e-06
8.62258e-06
8.56407e-06
8.62249e-06
8.56398e-06
8.62236e-06
8.56391e-06
8.6223e-06
8.56386e-06
8.62222e-06
8.56383e-06
8.62219e-06
8.56381e-06
8.62217e-06
8.62216e-06
8.68387e-06
8.71929e-06
8.68357e-06
8.7193e-06
8.68317e-06
8.71868e-06
8.68286e-06
8.71848e-06
8.68254e-06
8.71807e-06
8.68227e-06
8.71784e-06
8.68201e-06
8.71752e-06
8.68177e-06
8.71731e-06
8.68155e-06
8.71705e-06
8.68136e-06
8.71687e-06
8.68118e-06
8.71666e-06
8.68103e-06
8.71651e-06
8.6809e-06
8.71635e-06
8.68078e-06
8.71624e-06
8.68069e-06
8.71612e-06
8.68062e-06
8.71605e-06
8.68056e-06
8.71597e-06
8.68053e-06
8.71594e-06
8.68051e-06
8.71591e-06
8.7159e-06
8.75472e-06
8.77736e-06
8.7544e-06
8.77737e-06
8.75398e-06
8.77671e-06
8.75369e-06
8.77653e-06
8.75337e-06
8.77611e-06
8.75309e-06
8.7759e-06
8.75283e-06
8.77555e-06
8.75259e-06
8.77536e-06
8.75237e-06
8.77506e-06
8.75217e-06
8.77491e-06
8.75199e-06
8.77467e-06
8.75183e-06
8.77455e-06
8.75169e-06
8.77436e-06
8.75158e-06
8.77427e-06
8.75148e-06
8.77413e-06
8.75141e-06
8.77407e-06
8.75135e-06
8.77399e-06
8.75132e-06
8.77396e-06
8.75131e-06
8.77393e-06
8.77392e-06
8.8e-06
8.81624e-06
8.79968e-06
8.81625e-06
8.79926e-06
8.81559e-06
8.79895e-06
8.81541e-06
8.79864e-06
8.81499e-06
8.79835e-06
8.81476e-06
8.79808e-06
8.81442e-06
8.79783e-06
8.81422e-06
8.79761e-06
8.81393e-06
8.79741e-06
8.81377e-06
8.79723e-06
8.81353e-06
8.79708e-06
8.81341e-06
8.79693e-06
8.81322e-06
8.79682e-06
8.81312e-06
8.79672e-06
8.81299e-06
8.79665e-06
8.81292e-06
8.79659e-06
8.81284e-06
8.79656e-06
8.81281e-06
8.79654e-06
8.81278e-06
8.81277e-06
8.83249e-06
8.84602e-06
8.83217e-06
8.84602e-06
8.83174e-06
8.84539e-06
8.83144e-06
8.84517e-06
8.83111e-06
8.84474e-06
8.83084e-06
8.84453e-06
8.83056e-06
8.84418e-06
8.83032e-06
8.84398e-06
8.83009e-06
8.8437e-06
8.82989e-06
8.84352e-06
8.82971e-06
8.8433e-06
8.82955e-06
8.84315e-06
8.82941e-06
8.84299e-06
8.82929e-06
8.84287e-06
8.82919e-06
8.84275e-06
8.82912e-06
8.84267e-06
8.82906e-06
8.8426e-06
8.82903e-06
8.84256e-06
8.82901e-06
8.84253e-06
8.84252e-06
8.85954e-06
8.87239e-06
8.85924e-06
8.87239e-06
8.85882e-06
8.87178e-06
8.85847e-06
8.87155e-06
8.85816e-06
8.87111e-06
8.85787e-06
8.8709e-06
8.8576e-06
8.87053e-06
8.85736e-06
8.87035e-06
8.85713e-06
8.87005e-06
8.85693e-06
8.86989e-06
8.85674e-06
8.86966e-06
8.85659e-06
8.86951e-06
8.85645e-06
8.86935e-06
8.85633e-06
8.86922e-06
8.85623e-06
8.86911e-06
8.85615e-06
8.86903e-06
8.8561e-06
8.86895e-06
8.85607e-06
8.86892e-06
8.85605e-06
8.86889e-06
8.86888e-06
8.88524e-06
8.89857e-06
8.88493e-06
8.89858e-06
8.88451e-06
8.89792e-06
8.88418e-06
8.89772e-06
8.88385e-06
8.89729e-06
8.88356e-06
8.89706e-06
8.88329e-06
8.89672e-06
8.88304e-06
8.89651e-06
8.88281e-06
8.89622e-06
8.88261e-06
8.89605e-06
8.88242e-06
8.89581e-06
8.88226e-06
8.89568e-06
8.88212e-06
8.89549e-06
8.882e-06
8.89539e-06
8.88191e-06
8.89525e-06
8.88183e-06
8.89519e-06
8.88177e-06
8.89511e-06
8.88174e-06
8.89508e-06
8.88172e-06
8.89505e-06
8.89504e-06
8.91191e-06
8.92642e-06
8.91157e-06
8.92643e-06
8.91114e-06
8.92577e-06
8.91083e-06
8.92557e-06
8.9105e-06
8.92513e-06
8.91022e-06
8.9249e-06
8.90994e-06
8.92457e-06
8.90969e-06
8.92435e-06
8.90946e-06
8.92406e-06
8.90925e-06
8.92389e-06
8.90907e-06
8.92364e-06
8.90891e-06
8.92351e-06
8.90876e-06
8.92332e-06
8.90865e-06
8.92323e-06
8.90854e-06
8.92309e-06
8.90847e-06
8.92303e-06
8.90841e-06
8.92294e-06
8.90838e-06
8.92291e-06
8.90836e-06
8.92288e-06
8.92287e-06
8.94094e-06
8.95709e-06
8.94063e-06
8.95708e-06
8.9402e-06
8.95644e-06
8.93987e-06
8.95622e-06
8.93954e-06
8.9558e-06
8.93925e-06
8.95555e-06
8.93897e-06
8.95522e-06
8.93872e-06
8.95498e-06
8.93849e-06
8.95472e-06
8.93828e-06
8.95452e-06
8.93809e-06
8.9543e-06
8.93793e-06
8.95414e-06
8.93779e-06
8.95398e-06
8.93767e-06
8.95386e-06
8.93757e-06
8.95373e-06
8.93749e-06
8.95366e-06
8.93744e-06
8.95358e-06
8.9374e-06
8.95354e-06
8.93738e-06
8.95352e-06
8.9535e-06
8.97322e-06
8.99103e-06
8.9729e-06
8.99104e-06
8.97246e-06
8.99036e-06
8.97214e-06
8.99016e-06
8.9718e-06
8.98971e-06
8.97152e-06
8.98949e-06
8.97124e-06
8.98913e-06
8.97099e-06
8.98893e-06
8.97075e-06
8.98863e-06
8.97054e-06
8.98845e-06
8.97036e-06
8.98821e-06
8.97019e-06
8.98807e-06
8.97004e-06
8.98789e-06
8.96992e-06
8.98778e-06
8.96982e-06
8.98765e-06
8.96975e-06
8.98757e-06
8.96969e-06
8.98749e-06
8.96965e-06
8.98746e-06
8.96964e-06
8.98743e-06
8.98742e-06
9.00885e-06
9.02768e-06
9.0085e-06
9.02769e-06
9.00806e-06
9.02701e-06
9.00773e-06
9.02681e-06
9.0074e-06
9.02633e-06
9.0071e-06
9.02615e-06
9.00682e-06
9.02574e-06
9.00657e-06
9.02558e-06
9.00633e-06
9.02523e-06
9.00612e-06
9.0251e-06
9.00593e-06
9.02483e-06
9.00577e-06
9.0247e-06
9.00562e-06
9.02451e-06
9.0055e-06
9.0244e-06
9.0054e-06
9.02427e-06
9.00532e-06
9.02419e-06
9.00526e-06
9.02412e-06
9.00523e-06
9.02408e-06
9.00521e-06
9.02405e-06
9.02404e-06
9.04652e-06
9.06475e-06
9.0462e-06
9.06475e-06
9.04576e-06
9.06411e-06
9.04541e-06
9.06387e-06
9.04508e-06
9.0634e-06
9.04478e-06
9.06321e-06
9.0445e-06
9.06281e-06
9.04424e-06
9.06264e-06
9.044e-06
9.06231e-06
9.0438e-06
9.06215e-06
9.0436e-06
9.0619e-06
9.04344e-06
9.06175e-06
9.04329e-06
9.06158e-06
9.04317e-06
9.06145e-06
9.04306e-06
9.06133e-06
9.04299e-06
9.06124e-06
9.04293e-06
9.06117e-06
9.04289e-06
9.06113e-06
9.04287e-06
9.0611e-06
9.06109e-06
9.08298e-06
9.09784e-06
9.08267e-06
9.09783e-06
9.08223e-06
9.09722e-06
9.08187e-06
9.09697e-06
9.08154e-06
9.09652e-06
9.08124e-06
9.09631e-06
9.08095e-06
9.09594e-06
9.0807e-06
9.09573e-06
9.08046e-06
9.09545e-06
9.08025e-06
9.09524e-06
9.08005e-06
9.09504e-06
9.07989e-06
9.09485e-06
9.07974e-06
9.0947e-06
9.07961e-06
9.09456e-06
9.07951e-06
9.09445e-06
9.07943e-06
9.09436e-06
9.07937e-06
9.09429e-06
9.07934e-06
9.09424e-06
9.07932e-06
9.09421e-06
9.0942e-06
9.11269e-06
9.11941e-06
9.11238e-06
9.1194e-06
9.11196e-06
9.1191e-06
9.11162e-06
9.11897e-06
9.11129e-06
9.11875e-06
9.11101e-06
9.11863e-06
9.11072e-06
9.11846e-06
9.11047e-06
9.11834e-06
9.11023e-06
9.11822e-06
9.11002e-06
9.1181e-06
9.10983e-06
9.11801e-06
9.10966e-06
9.1179e-06
9.10952e-06
9.11783e-06
9.10939e-06
9.11776e-06
9.10929e-06
9.11771e-06
9.10921e-06
9.11766e-06
9.10916e-06
9.11763e-06
9.10912e-06
9.11761e-06
9.1091e-06
9.11759e-06
9.11759e-06
9.12613e-06
9.12612e-06
9.12611e-06
9.12611e-06
9.1261e-06
9.12609e-06
9.12609e-06
9.12609e-06
9.12608e-06
9.12608e-06
9.12608e-06
9.12608e-06
9.12608e-06
9.12608e-06
9.12607e-06
9.12607e-06
9.12607e-06
9.12607e-06
9.12607e-06
)
;

boundaryField
{
    movingWall
    {
        type            calculated;
        value           nonuniform List<scalar> 
20
(
9.12613e-06
9.12612e-06
9.12612e-06
9.1261e-06
9.12611e-06
9.12609e-06
9.1261e-06
9.12609e-06
9.12609e-06
9.12608e-06
9.12608e-06
9.12608e-06
9.12608e-06
9.12608e-06
9.12608e-06
9.12607e-06
9.12607e-06
9.12607e-06
9.12607e-06
9.12607e-06
)
;
    }
    fixedWalls
    {
        type            calculated;
        value           nonuniform List<scalar> 
60
(
7.02469e-06
7.30206e-06
7.70665e-06
8.08893e-06
8.37701e-06
8.56707e-06
8.68387e-06
8.75472e-06
8.79999e-06
8.83249e-06
8.85954e-06
8.88524e-06
8.9119e-06
8.94095e-06
8.97323e-06
9.00884e-06
9.04652e-06
9.08299e-06
9.11269e-06
9.12613e-06
7.02465e-06
7.29973e-06
7.70402e-06
8.08602e-06
8.37389e-06
8.5638e-06
8.68051e-06
8.7513e-06
8.79654e-06
8.82901e-06
8.85604e-06
8.88172e-06
8.90836e-06
8.93738e-06
8.96963e-06
9.00521e-06
9.04287e-06
9.07931e-06
9.1091e-06
9.12607e-06
7.02469e-06
7.02469e-06
7.02468e-06
7.02468e-06
7.02467e-06
7.02467e-06
7.02467e-06
7.02466e-06
7.02466e-06
7.02466e-06
7.02466e-06
7.02466e-06
7.02465e-06
7.02465e-06
7.02465e-06
7.02465e-06
7.02465e-06
7.02465e-06
7.02465e-06
7.02465e-06
)
;
    }
    frontAndBack
    {
        type            empty;
        value           nonuniform List<scalar> 0();
    }
}


// ************************************************************************* //
