/*--------------------------------*- C++ -*----------------------------------*\
| =========                 |                                                 |
| \\      /  F ield         | OpenFOAM: The Open Source CFD Toolbox           |
|  \\    /   O peration     | Version:  2312                                  |
|   \\  /    A nd           | Website:  www.openfoam.com                      |
|    \\/     M anipulation  |                                                 |
\*---------------------------------------------------------------------------*/
FoamFile
{
    version     2.0;
    format      ascii;
    arch        "LSB;label=32;scalar=64";
    class       surfaceVectorField;
    location    "6.5";
    object      surfaceU;
}
// * * * * * * * * * * * * * * * * * * * * * * * * * * * * * * * * * * * * * //

dimensions      [0 1 -1 0 0 0 0];

internalField   nonuniform List<vector> 
760
(
(-1 5.80618e-14 0)
(-1 7.71921e-14 0)
(-1 -1.20316e-14 0)
(-1 -1.64531e-14 0)
(-1 3.10721e-15 0)
(-1 3.99084e-15 0)
(-1 -3.99318e-16 0)
(-1 -5.84069e-16 0)
(-1 3.16543e-16 0)
(-1 4.00654e-16 0)
(-1 8.68026e-17 0)
(-1 1.33351e-16 0)
(-1 8.95045e-17 0)
(-1 1.14796e-16 0)
(-1 1.14638e-16 0)
(-1 9.0023e-17 0)
(-1 1.49796e-16 0)
(-1 1.02785e-16 0)
(-1 1.37056e-16 0)
(-1 9.7837e-17 0)
(-1 1.36625e-16 0)
(-1 9.3672e-17 0)
(-1 1.44942e-16 0)
(-1 1.7513e-16 0)
(-1 6.87063e-17 0)
(-1 2.11908e-16 0)
(-1 -5.29972e-17 0)
(-1 7.48135e-17 0)
(-1 -1.242e-16 0)
(-1 -7.82553e-17 0)
(-1 -7.61085e-17 0)
(-1 -1.24401e-16 0)
(-1 2.04846e-17 0)
(-1 6.3991e-18 0)
(-1 2.57595e-17 0)
(-1 2.84822e-17 0)
(-1 2.96207e-18 0)
(-1 -8.08316e-17 0)
(-1 -3.48906e-17 0)
(-1 2.67727e-15 0)
(-1 -6.54136e-14 0)
(-1 -4.30596e-16 0)
(-1 1.41239e-14 0)
(-1 2.9956e-16 0)
(-1 -3.28889e-15 0)
(-1 2.15904e-16 0)
(-1 8.05763e-16 0)
(-1 2.17462e-16 0)
(-1 -2.63297e-17 0)
(-1 1.61344e-16 0)
(-1 1.90586e-16 0)
(-1 1.15315e-16 0)
(-1 1.38499e-16 0)
(-1 7.81706e-17 0)
(-1 1.32404e-16 0)
(-1 5.08263e-17 0)
(-1 1.02191e-16 0)
(-1 5.44531e-17 0)
(-1 2.82189e-17 0)
(-1 1.32176e-16 0)
(-1 1.21743e-17 0)
(-1 2.42096e-16 0)
(-1 8.75825e-17 0)
(-1 2.18016e-16 0)
(-1 1.6331e-16 0)
(-1 4.95554e-17 0)
(-1 1.62483e-16 0)
(-1 -7.84562e-17 0)
(-1 6.78637e-17 0)
(-1 -4.1893e-17 0)
(-1 -2.3012e-17 0)
(-1 1.43967e-17 0)
(-1 1.6122e-17 0)
(-1 -7.81089e-17 0)
(-1 -5.25422e-17 0)
(-1 -1.18684e-16 0)
(-1 -1.87875e-16 0)
(-1 -1.11699e-16 0)
(-1 -5.3967e-14 0)
(-1 -1.26322e-14 0)
(-1 1.12656e-14 0)
(-1 2.33231e-15 0)
(-1 -2.78269e-15 0)
(-1 -6.61453e-16 0)
(-1 5.6353e-16 0)
(-1 -1.50201e-17 0)
(-1 -5.32065e-17 0)
(-1 -3.02915e-17 0)
(-1 1.6774e-16 0)
(-1 3.21579e-17 0)
(-1 1.55588e-16 0)
(-1 1.73228e-17 0)
(-1 1.56423e-16 0)
(-1 9.35836e-17 0)
(-1 7.95832e-17 0)
(-1 1.71459e-16 0)
(-1 -1.40599e-17 0)
(-1 9.59711e-17 0)
(-1 -3.24194e-17 0)
(-1 2.34259e-17 0)
(-1 8.79686e-18 0)
(-1 2.84736e-18 0)
(-1 1.07778e-16 0)
(-1 1.35812e-17 0)
(-1 1.80791e-16 0)
(-1 7.31891e-17 0)
(-1 1.23308e-16 0)
(-1 7.04196e-17 0)
(-1 3.5003e-17 0)
(-1 -8.70898e-18 0)
(-1 -5.08169e-17 0)
(-1 -3.65538e-17 0)
(-1 -1.62308e-16 0)
(-1 -1.13477e-16 0)
(-1 -1.8089e-16 0)
(-1 -1.67598e-16 0)
(-1 -1.24205e-16 0)
(-1 4.36671e-14 0)
(-1 5.10716e-14 0)
(-1 -9.59475e-15 0)
(-1 -1.11475e-14 0)
(-1 2.10621e-15 0)
(-1 2.48664e-15 0)
(-1 -6.08841e-16 0)
(-1 -6.32205e-16 0)
(-1 5.50728e-17 0)
(-1 1.76911e-16 0)
(-1 -1.1826e-16 0)
(-1 -3.15195e-17 0)
(-1 -4.46817e-17 0)
(-1 -9.57597e-17 0)
(-1 1.08619e-16 0)
(-1 -2.65321e-17 0)
(-1 1.87847e-16 0)
(-1 9.46317e-17 0)
(-1 1.33457e-16 0)
(-1 8.02754e-17 0)
(-1 5.86927e-17 0)
(-1 4.83343e-17 0)
(-1 7.63174e-18 0)
(-1 -1.59895e-17 0)
(-1 -2.10073e-17 0)
(-1 -9.13502e-17 0)
(-1 -3.71826e-17 0)
(-1 -1.87215e-16 0)
(-1 -6.15974e-17 0)
(-1 -1.98291e-16 0)
(-1 -8.02657e-17 0)
(-1 -1.39503e-16 0)
(-1 -9.92139e-17 0)
(-1 -7.32729e-17 0)
(-1 -1.18767e-16 0)
(-1 -7.20284e-17 0)
(-1 -1.10913e-16 0)
(-1 -8.84412e-17 0)
(-1 -8.6391e-17 0)
(-1 -3.74305e-15 0)
(-1 -5.048e-14 0)
(-1 9.33842e-16 0)
(-1 1.13932e-14 0)
(-1 -2.51783e-16 0)
(-1 -2.65355e-15 0)
(-1 1.53547e-16 0)
(-1 6.86664e-16 0)
(-1 9.03186e-17 0)
(-1 3.63143e-17 0)
(-1 -9.0196e-18 0)
(-1 2.18096e-16 0)
(-1 -7.76102e-17 0)
(-1 8.48502e-17 0)
(-1 -4.05193e-17 0)
(-1 1.746e-17 0)
(-1 -1.29395e-17 0)
(-1 -7.59506e-17 0)
(-1 -4.84714e-18 0)
(-1 -1.29809e-16 0)
(-1 -2.6348e-17 0)
(-1 -8.95167e-17 0)
(-1 -1.14971e-16 0)
(-1 -1.36294e-16 0)
(-1 -2.57557e-16 0)
(-1 -2.03782e-16 0)
(-1 -3.48323e-16 0)
(-1 -2.4366e-16 0)
(-1 -2.76196e-16 0)
(-1 -2.22881e-16 0)
(-1 -1.3251e-16 0)
(-1 -1.44599e-16 0)
(-1 -4.60873e-17 0)
(-1 -8.35152e-17 0)
(-1 -4.17025e-17 0)
(-1 -1.94291e-17 0)
(-1 -6.39189e-17 0)
(-1 -3.79007e-17 0)
(-1 -5.66292e-17 0)
(-1 -3.53438e-14 0)
(-1 1.23568e-14 0)
(-1 7.80584e-15 0)
(-1 -2.69038e-15 0)
(-1 -1.7151e-15 0)
(-1 7.35959e-16 0)
(-1 5.69431e-16 0)
(-1 -6.91398e-17 0)
(-1 1.64092e-16 0)
(-1 1.27618e-16 0)
(-1 3.11966e-16 0)
(-1 1.29601e-16 0)
(-1 1.7992e-16 0)
(-1 8.87649e-17 0)
(-1 -1.79713e-17 0)
(-1 -2.36099e-17 0)
(-1 -1.92821e-16 0)
(-1 -2.11487e-16 0)
(-1 -2.14479e-16 0)
(-1 -1.86617e-16 0)
(-1 -1.99463e-16 0)
(-1 -8.61119e-17 0)
(-1 -2.25105e-16 0)
(-1 -7.59178e-17 0)
(-1 -1.89885e-16 0)
(-1 -7.59246e-17 0)
(-1 -1.18219e-16 0)
(-1 -4.71166e-17 0)
(-1 -9.12844e-17 0)
(-1 -8.23592e-17 0)
(-1 -9.56044e-17 0)
(-1 -8.92607e-17 0)
(-1 -5.68569e-17 0)
(-1 -8.91474e-17 0)
(-1 -1.56274e-17 0)
(-1 -1.08934e-17 0)
(-1 -3.0611e-17 0)
(-1 1.20264e-17 0)
(-1 1.28696e-17 0)
(-1 4.50102e-14 0)
(-1 4.57757e-14 0)
(-1 -9.76027e-15 0)
(-1 -1.03038e-14 0)
(-1 2.38192e-15 0)
(-1 2.29206e-15 0)
(-1 -5.10953e-16 0)
(-1 -5.55149e-16 0)
(-1 9.31268e-17 0)
(-1 1.34024e-16 0)
(-1 -9.35998e-17 0)
(-1 -7.90934e-17 0)
(-1 -1.14765e-16 0)
(-1 -8.25252e-17 0)
(-1 -2.17126e-16 0)
(-1 -1.24003e-16 0)
(-1 -2.05284e-16 0)
(-1 -2.02713e-16 0)
(-1 -5.82501e-17 0)
(-1 -1.23185e-16 0)
(-1 3.74329e-17 0)
(-1 -5.731e-17 0)
(-1 7.32622e-17 0)
(-1 -4.05279e-17 0)
(-1 6.68435e-17 0)
(-1 -4.06831e-17 0)
(-1 -1.12572e-17 0)
(-1 -9.38699e-17 0)
(-1 -8.03355e-17 0)
(-1 -1.32441e-16 0)
(-1 -8.28036e-17 0)
(-1 -6.13762e-17 0)
(-1 -4.31838e-17 0)
(-1 -1.18475e-17 0)
(-1 1.67604e-17 0)
(-1 -2.8959e-17 0)
(-1 5.5507e-17 0)
(-1 3.39529e-17 0)
(-1 6.72158e-17 0)
(-1 -9.53821e-15 0)
(-1 -4.6094e-14 0)
(-1 1.74856e-15 0)
(-1 1.01531e-14 0)
(-1 -6.45008e-16 0)
(-1 -2.59114e-15 0)
(-1 8.98275e-17 0)
(-1 4.837e-16 0)
(-1 -3.81967e-17 0)
(-1 -1.2781e-16 0)
(-1 -6.80188e-17 0)
(-1 3.63538e-17 0)
(-1 -9.17629e-17 0)
(-1 3.94928e-17 0)
(-1 -1.0959e-16 0)
(-1 2.29299e-17 0)
(-1 -1.20614e-16 0)
(-1 -4.78721e-17 0)
(-1 -1.22245e-16 0)
(-1 -1.26608e-16 0)
(-1 -1.35271e-16 0)
(-1 -1.87726e-16 0)
(-1 -1.54473e-16 0)
(-1 -2.01298e-16 0)
(-1 -2.01397e-16 0)
(-1 -1.90181e-16 0)
(-1 -2.15054e-16 0)
(-1 -1.8452e-16 0)
(-1 -1.13482e-16 0)
(-1 -1.03495e-16 0)
(-1 9.5799e-18 0)
(-1 -6.00156e-18 0)
(-1 2.3773e-18 0)
(-1 1.31605e-17 0)
(-1 -1.17665e-17 0)
(-1 -7.3346e-17 0)
(-1 4.56617e-17 0)
(-1 -3.97397e-17 0)
(-1 1.05361e-17 0)
(-1 -2.64027e-14 0)
(-1 1.38132e-14 0)
(-1 5.81337e-15 0)
(-1 -2.82723e-15 0)
(-1 -1.46243e-15 0)
(-1 7.13543e-16 0)
(-1 2.66063e-16 0)
(-1 -1.4547e-16 0)
(-1 -5.32597e-17 0)
(-1 8.50038e-19 0)
(-1 1.43865e-16 0)
(-1 7.43114e-17 0)
(-1 1.54186e-16 0)
(-1 1.57142e-16 0)
(-1 8.4648e-17 0)
(-1 1.30639e-16 0)
(-1 -5.38653e-17 0)
(-1 7.16176e-17 0)
(-1 -1.92089e-16 0)
(-1 -6.14104e-17 0)
(-1 -2.53754e-16 0)
(-1 -1.88942e-16 0)
(-1 -2.37006e-16 0)
(-1 -2.24661e-16 0)
(-1 -1.73305e-16 0)
(-1 -1.69919e-16 0)
(-1 -7.29618e-17 0)
(-1 -8.3146e-17 0)
(-1 3.98504e-18 0)
(-1 2.31441e-18 0)
(-1 -2.42096e-18 0)
(-1 -2.25754e-17 0)
(-1 -6.25628e-17 0)
(-1 -4.64276e-17 0)
(-1 -1.01319e-16 0)
(-1 -4.09786e-17 0)
(-1 -7.48652e-17 0)
(-1 -6.99595e-17 0)
(-1 -5.75254e-17 0)
(-1 3.73886e-14 0)
(-1 2.66915e-15 0)
(-1 -7.92706e-15 0)
(-1 -8.26778e-16 0)
(-1 2.03051e-15 0)
(-1 4.08619e-16 0)
(-1 -4.10682e-16 0)
(-1 2.11223e-17 0)
(-1 1.28421e-16 0)
(-1 5.93253e-17 0)
(-1 8.75879e-17 0)
(-1 8.33724e-17 0)
(-1 1.33595e-16 0)
(-1 1.06987e-16 0)
(-1 1.17609e-16 0)
(-1 1.00504e-16 0)
(-1 6.40725e-17 0)
(-1 8.65015e-17 0)
(-1 -5.82631e-17 0)
(-1 -3.6441e-17 0)
(-1 -1.59849e-16 0)
(-1 -1.75098e-16 0)
(-1 -1.57574e-16 0)
(-1 -2.24745e-16 0)
(-1 -7.97599e-17 0)
(-1 -1.51982e-16 0)
(-1 -7.86987e-18 0)
(-1 -3.27473e-17 0)
(-1 -2.42461e-17 0)
(-1 7.64159e-17 0)
(-1 -6.65821e-17 0)
(-1 2.23103e-17 0)
(-1 -2.48434e-17 0)
(-1 -5.78222e-18 0)
(-1 -9.61896e-18 0)
(-1 5.92623e-17 0)
(-1 -5.26197e-17 0)
(-1 -1.04483e-18 0)
(-1 -6.21634e-17 0)
(-1 -3.55463e-14 0)
(-1 -5.30469e-15 0)
(-1 7.5089e-15 0)
(-1 1.13041e-15 0)
(-1 -1.60076e-15 0)
(-1 -8.97446e-17 0)
(-1 4.9113e-16 0)
(-1 1.15342e-16 0)
(-1 1.42767e-17 0)
(-1 -1.25344e-17 0)
(-1 1.02772e-16 0)
(-1 4.76288e-19 0)
(-1 7.3896e-17 0)
(-1 3.81318e-17 0)
(-1 6.93968e-17 0)
(-1 8.22993e-17 0)
(-1 -1.4012e-17 0)
(-1 8.5334e-17 0)
(-1 -1.53276e-16 0)
(-1 8.14467e-18 0)
(-1 -2.39995e-16 0)
(-1 -1.33339e-16 0)
(-1 -2.19154e-16 0)
(-1 -1.73825e-16 0)
(-1 -1.0497e-16 0)
(-1 -1.02432e-16 0)
(-1 5.15384e-17 0)
(-1 1.65511e-17 0)
(-1 1.22972e-16 0)
(-1 1.19079e-16 0)
(-1 8.31102e-17 0)
(-1 8.99262e-17 0)
(-1 7.83234e-17 0)
(-1 2.04191e-17 0)
(-1 6.78364e-17 0)
(-1 6.34731e-17 0)
(-1 -1.05885e-17 0)
(-1 5.35674e-17 0)
(-1 -2.62703e-17 0)
(-1 3.1372e-14 0)
(-1 2.94606e-14 0)
(-1 -6.46824e-15 0)
(-1 -6.41811e-15 0)
(-1 1.62636e-15 0)
(-1 1.4942e-15 0)
(-1 -3.88323e-16 0)
(-1 -3.74169e-16 0)
(-1 -2.63348e-17 0)
(-1 -7.4822e-17 0)
(-1 -6.41639e-17 0)
(-1 -1.70831e-16 0)
(-1 4.65351e-17 0)
(-1 -3.67995e-17 0)
(-1 9.82365e-17 0)
(-1 6.52579e-17 0)
(-1 1.07491e-16 0)
(-1 1.47772e-16 0)
(-1 2.80818e-17 0)
(-1 1.7499e-16 0)
(-1 -6.71691e-17 0)
(-1 1.18191e-17 0)
(-1 -5.71028e-17 0)
(-1 -5.38267e-17 0)
(-1 1.9089e-17 0)
(-1 -3.60742e-17 0)
(-1 8.40917e-17 0)
(-1 -7.00887e-18 0)
(-1 8.6033e-17 0)
(-1 -7.18911e-18 0)
(-1 2.72352e-17 0)
(-1 1.03001e-18 0)
(-1 5.56882e-18 0)
(-1 -3.47182e-17 0)
(-1 4.92041e-17 0)
(-1 -6.15927e-17 0)
(-1 3.78856e-17 0)
(-1 -2.47125e-17 0)
(-1 -9.03153e-18 0)
(-1 -8.32946e-15 0)
(-1 -5.03171e-14 0)
(-1 1.54432e-15 0)
(-1 1.07204e-14 0)
(-1 -5.06331e-16 0)
(-1 -2.69052e-15 0)
(-1 -6.0668e-17 0)
(-1 4.94619e-16 0)
(-1 -2.19318e-16 0)
(-1 -2.42371e-16 0)
(-1 -1.43466e-16 0)
(-1 -1.52329e-16 0)
(-1 -1.80766e-17 0)
(-1 -1.10773e-16 0)
(-1 1.14793e-16 0)
(-1 -6.23534e-19 0)
(-1 2.15271e-16 0)
(-1 1.14769e-16 0)
(-1 1.58727e-16 0)
(-1 1.36447e-16 0)
(-1 2.51615e-17 0)
(-1 5.48415e-17 0)
(-1 -3.27981e-17 0)
(-1 1.42951e-18 0)
(-1 -6.2172e-17 0)
(-1 -2.14129e-17 0)
(-1 -9.82897e-17 0)
(-1 -8.12435e-17 0)
(-1 -9.21921e-17 0)
(-1 -8.38405e-17 0)
(-1 -6.09234e-17 0)
(-1 -2.65022e-17 0)
(-1 -1.0188e-16 0)
(-1 -2.22037e-17 0)
(-1 -1.35509e-16 0)
(-1 -1.59186e-16 0)
(-1 -7.16297e-17 0)
(-1 -1.68499e-16 0)
(-1 -2.60821e-17 0)
(-1 -3.12672e-14 0)
(-1 3.54121e-14 0)
(-1 6.48559e-15 0)
(-1 -7.68865e-15 0)
(-1 -1.68957e-15 0)
(-1 1.65378e-15 0)
(-1 3.12917e-16 0)
(-1 -3.94784e-16 0)
(-1 -1.75383e-16 0)
(-1 6.0849e-17 0)
(-1 -1.19636e-16 0)
(-1 -2.8486e-17 0)
(-1 -9.33197e-17 0)
(-1 -1.43436e-19 0)
(-1 -6.47752e-19 0)
(-1 -4.18908e-17 0)
(-1 3.59453e-17 0)
(-1 -5.22664e-17 0)
(-1 3.25615e-17 0)
(-1 -7.79846e-17 0)
(-1 3.11095e-17 0)
(-1 -2.86079e-17 0)
(-1 1.28147e-17 0)
(-1 -3.07981e-17 0)
(-1 -4.04844e-17 0)
(-1 1.91616e-18 0)
(-1 -6.67943e-17 0)
(-1 -3.14654e-18 0)
(-1 -1.81506e-17 0)
(-1 -3.5001e-17 0)
(-1 1.22175e-17 0)
(-1 -5.24552e-17 0)
(-1 -7.95103e-17 0)
(-1 -4.90173e-17 0)
(-1 -1.92176e-16 0)
(-1 -1.32542e-16 0)
(-1 -1.22952e-16 0)
(-1 -1.34288e-16 0)
(-1 3.51093e-18 0)
(-1 5.89906e-14 0)
(-1 2.65347e-14 0)
(-1 -1.25205e-14 0)
(-1 -5.84663e-15 0)
(-1 2.94857e-15 0)
(-1 1.36653e-15 0)
(-1 -6.46852e-16 0)
(-1 -3.31153e-16 0)
(-1 2.07746e-16 0)
(-1 6.21953e-17 0)
(-1 9.10065e-17 0)
(-1 6.0228e-17 0)
(-1 5.12854e-17 0)
(-1 1.83754e-17 0)
(-1 -9.35095e-17 0)
(-1 -1.81926e-16 0)
(-1 -1.66196e-16 0)
(-1 -2.4235e-16 0)
(-1 -1.39154e-16 0)
(-1 -2.09548e-16 0)
(-1 -9.05155e-17 0)
(-1 -1.02102e-16 0)
(-1 -4.16966e-17 0)
(-1 -4.38041e-17 0)
(-1 3.9254e-17 0)
(-1 3.6436e-18 0)
(-1 2.86468e-17 0)
(-1 3.8854e-17 0)
(-1 -6.93055e-17 0)
(-1 -6.77705e-17 0)
(-1 -1.1369e-16 0)
(-1 -1.56763e-16 0)
(-1 -1.02049e-16 0)
(-1 -1.22524e-16 0)
(-1 -7.46527e-17 0)
(-1 -7.03852e-17 0)
(-1 -7.82473e-18 0)
(-1 -3.1267e-17 0)
(-1 3.29297e-17 0)
(-1 -3.83026e-14 0)
(-1 -6.15878e-14 0)
(-1 8.04036e-15 0)
(-1 1.34857e-14 0)
(-1 -1.91319e-15 0)
(-1 -3.04908e-15 0)
(-1 3.77894e-16 0)
(-1 6.83582e-16 0)
(-1 -8.53222e-17 0)
(-1 -2.0431e-16 0)
(-1 -1.24031e-17 0)
(-1 -5.29072e-17 0)
(-1 -2.14836e-16 0)
(-1 -2.153e-16 0)
(-1 -3.30767e-16 0)
(-1 -2.89427e-16 0)
(-1 -2.85702e-16 0)
(-1 -2.33596e-16 0)
(-1 -1.72496e-16 0)
(-1 -1.91029e-16 0)
(-1 -5.53905e-17 0)
(-1 -9.22321e-17 0)
(-1 1.53618e-18 0)
(-1 4.39459e-17 0)
(-1 3.24365e-18 0)
(-1 9.49717e-18 0)
(-1 -5.75632e-17 0)
(-1 -6.83799e-17 0)
(-1 -1.55228e-16 0)
(-1 -1.21479e-16 0)
(-1 -1.65597e-16 0)
(-1 -1.49879e-16 0)
(-1 -9.08605e-17 0)
(-1 -6.83023e-17 0)
(-1 -2.69995e-17 0)
(-1 2.21885e-17 0)
(-1 9.48747e-18 0)
(-1 3.0763e-17 0)
(-1 2.38506e-17 0)
(-1 -9.79955e-15 0)
(-1 4.32222e-14 0)
(-1 2.39625e-15 0)
(-1 -8.97427e-15 0)
(-1 -4.52307e-16 0)
(-1 2.26737e-15 0)
(-1 1.01379e-16 0)
(-1 -4.38072e-16 0)
(-1 -1.71895e-16 0)
(-1 -1.33173e-17 0)
(-1 -2.55805e-16 0)
(-1 -2.17405e-16 0)
(-1 -2.89891e-16 0)
(-1 -2.60376e-16 0)
(-1 -1.92257e-16 0)
(-1 -1.84042e-16 0)
(-1 -1.38924e-16 0)
(-1 -1.31448e-16 0)
(-1 -1.10765e-16 0)
(-1 -1.57978e-16 0)
(-1 7.10428e-18 0)
(-1 -1.05485e-16 0)
(-1 5.19069e-17 0)
(-1 3.34492e-17 0)
(-1 -6.21264e-17 0)
(-1 -1.76901e-17 0)
(-1 -1.32296e-16 0)
(-1 -1.09804e-16 0)
(-1 -1.1613e-16 0)
(-1 -6.96848e-17 0)
(-1 -5.25843e-17 0)
(-1 -3.74941e-17 0)
(-1 4.47466e-17 0)
(-1 4.44799e-17 0)
(-1 7.99509e-17 0)
(-1 1.03441e-16 0)
(-1 4.51261e-17 0)
(-1 9.33835e-17 0)
(-1 3.31623e-17 0)
(-1 4.40474e-14 0)
(-1 3.73999e-14 0)
(-1 -9.10315e-15 0)
(-1 -8.43887e-15 0)
(-1 2.2816e-15 0)
(-1 1.88813e-15 0)
(-1 -5.52767e-16 0)
(-1 -6.01215e-16 0)
(-1 -5.88275e-17 0)
(-1 -5.77412e-17 0)
(-1 -2.21976e-16 0)
(-1 -2.11804e-16 0)
(-1 -1.54526e-16 0)
(-1 -1.84191e-16 0)
(-1 -1.23234e-16 0)
(-1 -1.35809e-16 0)
(-1 -1.50503e-16 0)
(-1 -1.19878e-16 0)
(-1 -1.52698e-16 0)
(-1 -1.01294e-16 0)
(-1 -7.914e-17 0)
(-1 -4.54406e-17 0)
(-1 -3.61478e-17 0)
(-1 -4.60547e-18 0)
(-1 -6.53675e-17 0)
(-1 -2.74523e-17 0)
(-1 -4.71926e-17 0)
(-1 -7.60196e-17 0)
(-1 8.95145e-18 0)
(-1 -4.5376e-17 0)
(-1 5.95701e-17 0)
(-1 7.15993e-18 0)
(-1 1.03174e-16 0)
(-1 5.57231e-17 0)
(-1 1.16874e-16 0)
(-1 9.54493e-17 0)
(-1 8.14196e-17 0)
(-1 9.76521e-17 0)
(-1 2.83943e-17 0)
(-1 -1.50864e-14 0)
(-1 -6.41771e-14 0)
(-1 2.55241e-15 0)
(-1 1.32094e-14 0)
(-1 -9.94684e-16 0)
(-1 -3.42504e-15 0)
(-1 -1.06188e-16 0)
(-1 4.23348e-16 0)
(-1 -2.10717e-16 0)
(-1 -2.74e-16 0)
(-1 -1.74019e-16 0)
(-1 -1.00374e-16 0)
(-1 -1.65475e-16 0)
(-1 -1.10927e-16 0)
(-1 -1.32454e-16 0)
(-1 -6.98852e-17 0)
(-1 -7.06689e-17 0)
(-1 -1.73441e-17 0)
(-1 5.96319e-18 0)
(-1 3.29623e-17 0)
(-1 2.9094e-17 0)
(-1 7.34496e-17 0)
(-1 4.08994e-18 0)
(-1 2.24752e-17 0)
(-1 -3.81045e-17 0)
(-1 -1.28545e-17 0)
(-1 -7.4203e-17 0)
(-1 -8.05296e-17 0)
(-1 -4.71675e-17 0)
(-1 -1.05857e-16 0)
(-1 3.31287e-18 0)
(-1 -4.9604e-17 0)
(-1 4.79981e-17 0)
(-1 -4.64688e-18 0)
(-1 7.62277e-17 0)
(-1 6.45062e-17 0)
(-1 4.46268e-17 0)
(-1 4.96341e-17 0)
(-1 -5.73054e-18 0)
(-1 -3.58813e-14 0)
(-1 7.23191e-15 0)
(-1 -2.00701e-15 0)
(-1 2.55537e-16 0)
(-1 -1.63656e-16 0)
(-1 -3.72818e-17 0)
(-1 -1.53379e-17 0)
(-1 4.52242e-17 0)
(-1 8.62871e-17 0)
(-1 1.00449e-16 0)
(-1 6.68309e-17 0)
(-1 5.53077e-18 0)
(-1 -5.52796e-17 0)
(-1 -1.12184e-16 0)
(-1 -1.08294e-16 0)
(-1 -5.75638e-17 0)
(-1 1.18612e-17 0)
(-1 3.79126e-17 0)
(-1 -7.23187e-19 0)
)
;

boundaryField
{
    movingWall
    {
        type            calculated;
        value           uniform (-1 -0 -0);
    }
    fixedWalls
    {
        type            calculated;
        value           uniform (-1 -0 -0);
    }
    frontAndBack
    {
        type            empty;
        value           nonuniform List<vector> 0();
    }
}


// ************************************************************************* //
