/*--------------------------------*- C++ -*----------------------------------*\
| =========                 |                                                 |
| \\      /  F ield         | OpenFOAM: The Open Source CFD Toolbox           |
|  \\    /   O peration     | Version:  2312                                  |
|   \\  /    A nd           | Website:  www.openfoam.com                      |
|    \\/     M anipulation  |                                                 |
\*---------------------------------------------------------------------------*/
FoamFile
{
    version     2.0;
    format      ascii;
    arch        "LSB;label=32;scalar=64";
    class       surfaceScalarField;
    location    "6.5";
    object      surfaceDivU;
}
// * * * * * * * * * * * * * * * * * * * * * * * * * * * * * * * * * * * * * //

dimensions      [0 0 -1 0 0 0 0];

internalField   nonuniform List<scalar> 
760
(
6.39134e-12
-5.93601e-12
-8.39647e-13
7.02208e-13
1.50941e-13
-1.46646e-13
-5.8999e-14
8.9932e-14
-8.09596e-16
-3.03302e-14
-1.58429e-14
-8.26395e-15
6.92937e-15
-1.77555e-15
-7.82422e-15
8.69012e-15
-2.05953e-14
-6.60746e-15
5.59837e-15
1.26056e-14
2.68801e-14
-2.9679e-15
-1.95379e-15
1.27187e-14
-2.55379e-14
-3.02408e-14
-1.38967e-14
1.01771e-14
-6.71305e-15
-1.03915e-15
2.88574e-14
-1.47413e-14
3.05932e-14
1.58046e-14
-5.23494e-15
-2.406e-15
-8.08316e-15
2.34411e-16
1.35525e-14
-1.16251e-11
-8.52454e-12
1.39521e-12
1.08997e-12
-2.07655e-13
-2.59509e-13
1.18601e-13
1.06179e-13
-3.77845e-14
-3.27672e-14
5.8034e-15
-4.83072e-15
-1.47984e-17
1.55822e-14
9.90689e-15
9.04618e-15
2.65935e-14
-2.68452e-14
4.03932e-15
1.2419e-14
-1.71294e-14
-9.9925e-15
-1.55683e-14
-4.50954e-15
5.47428e-15
4.13663e-15
2.30347e-14
2.35672e-14
-9.06736e-15
-1.32767e-14
-2.77941e-14
-1.67246e-14
-1.71945e-14
-2.04318e-15
3.06334e-15
-3.0494e-15
2.18701e-14
-8.44226e-15
-3.15544e-29
4.19057e-12
1.0449e-11
-5.64751e-13
-1.16613e-12
5.43254e-14
2.09623e-13
-4.51887e-14
-7.8275e-14
1.86635e-16
1.46619e-14
4.94807e-15
-1.34887e-14
2.46432e-14
5.70884e-15
-2.77059e-14
6.70514e-15
-4.10197e-14
-1.40485e-14
-1.61283e-15
1.76247e-14
2.62733e-15
-1.9929e-14
1.51954e-14
2.57908e-14
2.22296e-14
-2.13294e-14
-1.27442e-14
2.14999e-15
-2.0934e-14
-1.27871e-14
9.02625e-15
-1.48212e-14
1.2102e-14
1.61224e-14
-1.4555e-14
-4.99802e-15
-3.03124e-14
1.50111e-15
-2.71051e-14
5.0923e-12
-3.483e-12
-3.91752e-13
3.4983e-13
7.70228e-14
-4.37962e-14
-1.84244e-14
3.25509e-14
9.86614e-16
2.13225e-14
-1.27279e-14
-8.44738e-15
-1.22292e-14
-1.09095e-15
2.03625e-14
-2.80123e-14
4.45958e-14
1.86811e-15
-6.91555e-16
2.21517e-14
3.23447e-15
-3.12233e-14
-1.0734e-14
2.54292e-14
-4.1409e-14
-1.59607e-14
2.10706e-15
1.11227e-14
-6.6743e-15
-1.45961e-15
-7.72504e-15
-1.48577e-14
-9.77601e-16
1.14263e-14
1.10581e-14
-9.14575e-15
4.70841e-15
1.44709e-14
-2.52435e-29
-8.22547e-12
-3.45589e-12
6.97786e-13
3.68842e-13
-8.82681e-14
-5.62335e-14
7.22978e-14
7.54226e-15
1.18885e-14
4.34982e-14
3.18958e-15
-1.94404e-14
-1.6874e-14
3.80898e-15
-4.65066e-14
-4.12726e-14
-2.0576e-14
-1.63875e-15
-8.38008e-15
9.01492e-15
-9.02852e-15
-4.01033e-15
2.02025e-14
1.94364e-14
3.6571e-14
1.26869e-14
7.55599e-15
1.15799e-14
-9.643e-15
-1.69715e-14
4.29361e-15
-9.83347e-15
3.2581e-15
9.8388e-15
-5.73299e-15
-3.03225e-15
9.76245e-15
1.09651e-14
-1.26218e-29
5.13842e-12
8.60585e-12
-3.85178e-13
-8.25076e-13
3.95769e-14
1.53724e-13
-2.12573e-14
-7.59814e-14
1.21694e-14
2.61641e-14
-1.8821e-14
-8.50174e-15
-2.05896e-14
-2.64811e-14
3.59533e-15
-1.20876e-15
2.79522e-14
2.63426e-14
1.33847e-14
-1.74277e-14
2.44546e-14
1.27629e-14
1.19208e-14
2.9013e-14
-1.23041e-14
-2.52133e-14
-1.29476e-14
1.30064e-14
-1.7162e-14
-7.92754e-15
-4.28828e-15
1.20414e-14
3.54845e-15
1.70056e-14
1.36658e-14
-3.98524e-15
1.20264e-15
3.1703e-14
-4.06576e-14
2.64236e-12
-5.50233e-12
-2.86174e-13
7.16768e-13
3.81658e-14
-1.65433e-13
-2.856e-14
6.06178e-14
5.49302e-15
1.41739e-14
-1.61619e-14
2.28311e-14
-7.10029e-15
-4.49608e-14
2.15385e-14
3.05503e-14
-1.90373e-14
-3.86111e-14
-1.80495e-14
-2.49793e-14
1.73213e-14
1.61539e-14
-8.1211e-15
1.6475e-14
9.72279e-17
-2.30864e-14
1.80265e-14
3.99236e-14
2.12758e-14
3.51136e-15
3.33352e-14
-6.73777e-15
9.47187e-15
1.36838e-14
1.40519e-14
-1.02305e-14
-1.01572e-14
4.00789e-14
-2.71051e-14
-7.42792e-12
-2.6834e-12
8.37509e-13
1.90484e-13
-1.42982e-13
-6.57872e-14
1.03352e-13
-2.0387e-14
3.15119e-14
2.79616e-14
-5.96787e-15
1.10665e-14
-7.31026e-15
-2.09941e-14
-2.95993e-14
2.89094e-14
-4.4553e-14
-2.47305e-14
9.22418e-15
-5.24927e-15
1.53077e-14
2.99079e-15
1.50967e-15
-1.9383e-15
1.674e-14
-2.24575e-14
2.54085e-14
2.74435e-14
-2.45022e-14
-2.36706e-14
-2.63892e-14
-1.64102e-14
-6.01855e-15
2.37783e-14
1.57965e-14
2.12007e-15
2.31311e-14
1.61351e-14
0
4.935e-12
4.70273e-12
-7.12812e-13
-6.50004e-13
5.68073e-14
1.39321e-13
-9.57771e-14
-9.37499e-14
7.51614e-15
1.95701e-14
-3.95973e-15
-1.13367e-14
1.52256e-14
-1.42447e-14
3.37782e-14
2.31143e-14
1.45733e-14
2.25939e-15
-1.14827e-14
-2.33377e-14
-1.42552e-14
4.25362e-15
-2.59054e-14
-4.28303e-15
-1.1754e-14
-5.08508e-15
-2.16357e-14
1.55157e-14
-1.55786e-14
-1.9232e-14
3.37573e-14
1.3526e-14
3.1917e-14
8.33155e-15
2.45872e-15
1.82837e-15
-6.99595e-15
6.45209e-15
0
-8.82277e-13
-2.30393e-12
2.0213e-13
8.70619e-13
-1.1236e-14
-1.30743e-13
2.15973e-14
6.78565e-14
7.17249e-16
-8.87344e-15
-2.16216e-14
-5.16765e-15
-6.35591e-15
-2.61457e-14
-8.40449e-15
1.82803e-14
-3.56515e-14
-2.3474e-14
-7.60138e-15
-2.82963e-15
1.42258e-14
-3.73864e-15
1.65373e-14
-1.27519e-14
2.21846e-14
1.52161e-14
1.79194e-14
1.19329e-14
9.87262e-15
-7.55556e-15
-1.18997e-14
1.12237e-14
-2.1757e-14
-1.20888e-14
5.82174e-15
-1.48315e-14
1.3448e-14
1.88048e-14
0
-5.51033e-13
2.99511e-12
5.37747e-13
-9.21794e-13
-5.16504e-14
1.81103e-13
3.73858e-14
-9.36453e-14
-1.47583e-14
1.83694e-14
-9.69172e-15
1.00696e-14
-1.50942e-15
-1.34193e-14
3.2108e-15
1.2032e-15
9.34787e-15
-3.79448e-15
1.03311e-15
-8.79162e-15
-3.07164e-14
1.40055e-15
-1.40731e-14
4.3399e-15
4.96444e-15
-2.9808e-16
-1.3542e-14
-2.61508e-14
-6.20453e-15
-2.36353e-15
1.10345e-14
-4.4569e-15
-5.1633e-15
1.21226e-14
-1.84847e-15
1.37406e-14
5.35674e-15
1.6438e-14
-1.35525e-14
2.62435e-12
-4.36391e-12
-1.27844e-12
6.19968e-13
1.39108e-13
-1.33185e-13
-1.12662e-13
2.55976e-14
4.31974e-14
8.9383e-15
6.34205e-15
8.34157e-15
-1.07067e-14
-1.47572e-14
-5.80209e-15
6.46344e-15
-2.1934e-14
-8.50986e-16
-8.42418e-15
4.03861e-15
3.64568e-14
-6.88647e-15
1.8115e-14
8.31281e-15
-3.14134e-14
-3.28538e-14
-1.49723e-14
-8.82524e-15
-6.1591e-16
1.80021e-14
-3.36882e-15
-1.60997e-14
3.10265e-14
7.86034e-15
3.20271e-14
5.02716e-15
-2.47125e-15
2.13364e-14
-1.35525e-14
-6.36829e-12
2.84603e-13
1.76522e-12
1.67654e-13
-2.46695e-13
-3.59115e-14
1.47198e-13
9.9835e-15
-2.59175e-14
3.60579e-14
-1.27577e-14
-1.80816e-14
2.41291e-15
-1.10916e-14
1.14145e-14
9.30109e-15
2.51216e-14
-7.30227e-15
5.57632e-15
3.29513e-14
-3.50305e-14
-1.09292e-14
-4.26559e-14
-1.64894e-14
-1.02656e-14
-1.55022e-14
2.41492e-14
1.86661e-14
2.51825e-15
1.52209e-14
-4.87059e-15
-2.14483e-14
-1.8139e-14
6.43043e-15
-5.66352e-15
-2.06773e-15
1.02551e-14
-3.17365e-15
-1.35525e-14
6.82055e-12
7.30481e-12
-1.63348e-12
-1.09603e-12
2.20767e-13
1.80059e-13
-1.01156e-13
-8.61463e-14
4.38939e-14
5.2962e-14
-1.64155e-14
-3.74834e-14
-4.20343e-15
1.8232e-15
-9.41572e-15
-2.23817e-14
5.27427e-16
1.1196e-14
1.64458e-14
2.54568e-14
7.61193e-15
-4.0176e-14
1.06643e-14
6.09231e-15
1.34295e-14
4.12136e-14
9.73777e-15
3.57075e-15
-8.74561e-15
3.27538e-15
-1.01472e-14
-3.44743e-14
2.25017e-14
9.95092e-15
4.22141e-16
2.03649e-14
-2.69813e-14
-3.00293e-15
-2.71051e-14
-6.11768e-13
-9.33769e-12
7.17507e-13
1.50929e-12
-1.26855e-13
-3.0378e-13
6.79719e-14
1.30111e-13
-2.84152e-14
-2.7764e-14
-1.92447e-14
-2.6373e-14
-1.63551e-14
2.09651e-14
-1.77002e-15
-6.47776e-15
3.61254e-14
6.61551e-15
-3.1165e-14
2.77049e-14
-4.16956e-14
-3.29859e-14
3.66415e-14
1.35667e-14
3.13548e-14
1.31408e-15
-2.89164e-15
2.41525e-14
-2.24533e-14
-5.37245e-15
-1.43761e-14
-1.71116e-14
7.81414e-15
-5.5301e-15
1.69398e-14
8.73286e-15
-3.1267e-15
1.35021e-14
-1.35525e-14
-7.21663e-12
1.82959e-12
4.88008e-13
-4.83982e-13
-4.68141e-14
1.11564e-13
3.43747e-14
-4.32116e-14
-2.57217e-14
5.34237e-15
1.38368e-14
-2.70312e-14
3.08424e-14
3.37475e-14
1.90777e-15
-6.68933e-15
-1.80497e-15
4.15312e-15
2.5884e-14
5.75682e-15
2.22764e-14
2.08859e-14
-2.17607e-14
-5.81301e-15
-5.88828e-15
-1.43718e-14
2.16717e-14
2.28392e-14
-3.07397e-17
7.98864e-15
-8.26557e-15
-5.18474e-15
-4.61139e-15
1.11703e-14
5.29515e-15
1.2563e-14
3.0763e-15
-1.13788e-15
0
8.56224e-12
8.67362e-12
-8.60425e-13
-6.30007e-13
1.15167e-13
1.17395e-13
-7.22439e-14
-4.97185e-14
4.03284e-15
-7.10585e-15
-7.12048e-15
-2.26326e-15
-3.78419e-15
9.75338e-15
-4.44398e-15
-1.84326e-14
1.17149e-14
1.5525e-14
7.58717e-16
1.47303e-14
-7.20358e-15
-1.54003e-15
1.57591e-15
2.88438e-15
1.43557e-14
2.25908e-14
9.15619e-15
8.52271e-15
2.83464e-15
1.5599e-14
1.42511e-14
-3.01385e-14
2.83446e-14
-3.53223e-15
6.12993e-15
3.34416e-14
-4.21418e-15
-8.0015e-15
0
-5.18626e-13
-1.0056e-11
3.47813e-13
1.22244e-12
-4.74909e-14
-2.62111e-13
1.54196e-14
1.17739e-13
-1.34019e-14
-6.02792e-14
1.46106e-14
3.65449e-14
-4.89504e-15
-2.40681e-15
1.53635e-15
-7.01694e-15
1.85404e-14
-1.69639e-16
1.24315e-14
3.38244e-14
8.54792e-15
-2.43042e-14
2.38993e-14
1.53395e-14
1.67579e-14
-4.03069e-15
1.49655e-14
-1.56549e-14
-1.73741e-14
2.55342e-14
-4.79218e-14
-1.77969e-14
1.56471e-15
5.10762e-15
1.93101e-14
1.59955e-14
-3.78732e-15
-1.23764e-14
0
-8.31491e-12
-2.88669e-12
6.12514e-13
-7.49732e-14
-9.68817e-14
2.34138e-14
4.20399e-14
-1.18753e-14
-1.03323e-14
-1.38475e-14
1.95275e-14
1.70677e-14
-4.52871e-15
2.45981e-15
-8.72293e-15
-6.98852e-15
1.51143e-14
-1.73441e-15
-2.91134e-15
3.04013e-14
-1.75126e-14
-3.33126e-14
-1.25905e-14
2.24752e-15
-3.64435e-14
-1.28545e-15
-5.08617e-15
-8.05296e-15
2.51114e-14
1.65193e-14
3.52325e-14
-4.9604e-15
1.95385e-14
2.66404e-14
-1.5691e-14
-7.10191e-15
-8.58912e-15
-8.58912e-15
0
5.35325e-12
-6.64074e-13
1.0842e-13
-6.77626e-14
1.35525e-14
0
0
0
1.35525e-14
7.25752e-29
-1.35525e-14
1.35525e-14
2.71051e-14
1.35525e-14
-1.35525e-14
-1.35525e-14
0
0
0
)
;

boundaryField
{
    movingWall
    {
        type            calculated;
        value           nonuniform List<scalar> 
20
(
1.24141e-11
-1.70762e-12
3.79471e-13
-1.6263e-13
2.71051e-14
0
0
0
0
2.71051e-14
-2.71051e-14
0
2.71051e-14
2.71051e-14
0
-2.71051e-14
0
0
0
0
)
;
    }
    fixedWalls
    {
        type            calculated;
        value           nonuniform List<scalar> 
60
(
1.49078e-11
-2.67798e-11
9.73071e-12
1.11673e-11
-1.81333e-11
1.12215e-11
5.99022e-12
-1.69949e-11
1.16281e-11
-2.22261e-12
-2.38524e-12
8.37546e-12
-1.71033e-11
1.76725e-11
-3.06287e-12
-1.56125e-11
1.92717e-11
-1.92446e-12
-1.81875e-11
1.24141e-11
0
2.71051e-14
-2.71051e-14
-2.71051e-14
2.71051e-14
-2.71051e-14
-5.42101e-14
0
0
0
0
-2.71051e-14
0
-2.71051e-14
-2.71051e-14
0
0
0
0
0
1.49078e-11
-2.12509e-12
4.45801e-13
-1.43919e-13
2.59207e-14
-2.75399e-14
-4.14585e-15
1.80046e-14
-3.3653e-14
-7.53766e-15
1.87344e-14
3.50259e-14
-3.89335e-14
-1.21423e-14
-1.56511e-14
2.22495e-15
5.54899e-14
5.69644e-15
-1.61663e-14
0
)
;
    }
    frontAndBack
    {
        type            empty;
        value           nonuniform List<scalar> 0();
    }
}


// ************************************************************************* //
