/*--------------------------------*- C++ -*----------------------------------*\
| =========                 |                                                 |
| \\      /  F ield         | OpenFOAM: The Open Source CFD Toolbox           |
|  \\    /   O peration     | Version:  2312                                  |
|   \\  /    A nd           | Website:  www.openfoam.com                      |
|    \\/     M anipulation  |                                                 |
\*---------------------------------------------------------------------------*/
FoamFile
{
    version     2.0;
    format      ascii;
    arch        "LSB;label=32;scalar=64";
    class       volScalarField;
    location    "6.5";
    object      turbulenceProperties:L;
}
// * * * * * * * * * * * * * * * * * * * * * * * * * * * * * * * * * * * * * //

dimensions      [0 1 0 0 0 0 0];

internalField   nonuniform List<scalar> 
400
(
0.00102188
0.00102188
0.00102188
0.00102188
0.00102188
0.00102188
0.00102188
0.00102188
0.00102188
0.00102188
0.00102188
0.00102188
0.00102188
0.00102188
0.00102188
0.00102188
0.00102188
0.00102188
0.00102188
0.00102188
0.00102174
0.00103841
0.00103691
0.0010363
0.00103508
0.00103445
0.00103324
0.00103259
0.00103139
0.00103073
0.00102954
0.00102886
0.00102769
0.00102699
0.00102583
0.00102512
0.00102397
0.00102325
0.00102267
0.00102174
0.00102157
0.00103898
0.00103739
0.00103674
0.00103545
0.00103479
0.00103351
0.00103283
0.00103157
0.00103088
0.00102964
0.00102893
0.00102772
0.00102699
0.00102579
0.00102506
0.00102386
0.00102313
0.00102253
0.00102158
0.00102146
0.00103932
0.00103768
0.00103702
0.00103569
0.00103501
0.0010337
0.001033
0.00103171
0.001031
0.00102973
0.00102901
0.00102775
0.00102702
0.00102578
0.00102504
0.0010238
0.00102306
0.00102244
0.00102146
0.0010214
0.0010396
0.00103794
0.00103726
0.00103591
0.00103521
0.00103388
0.00103316
0.00103185
0.00103112
0.00102983
0.00102909
0.00102782
0.00102706
0.0010258
0.00102504
0.00102379
0.00102303
0.0010224
0.0010214
0.00102137
0.00103981
0.00103812
0.00103743
0.00103606
0.00103536
0.00103401
0.00103329
0.00103195
0.00103122
0.00102991
0.00102916
0.00102787
0.00102711
0.00102583
0.00102506
0.00102379
0.00102302
0.00102238
0.00102137
0.00102135
0.00103993
0.00103824
0.00103754
0.00103616
0.00103545
0.00103409
0.00103336
0.00103202
0.00103128
0.00102996
0.0010292
0.00102791
0.00102713
0.00102585
0.00102507
0.0010238
0.00102302
0.00102238
0.00102136
0.00102135
0.00104001
0.0010383
0.00103761
0.00103623
0.0010355
0.00103414
0.00103341
0.00103207
0.00103132
0.00103
0.00102923
0.00102793
0.00102715
0.00102586
0.00102508
0.0010238
0.00102302
0.00102238
0.00102135
0.00102135
0.00104006
0.00103835
0.00103765
0.00103626
0.00103554
0.00103417
0.00103344
0.00103209
0.00103135
0.00103001
0.00102925
0.00102794
0.00102717
0.00102587
0.00102509
0.0010238
0.00102302
0.00102237
0.00102135
0.00102134
0.0010401
0.00103838
0.00103768
0.00103629
0.00103556
0.0010342
0.00103346
0.00103211
0.00103136
0.00103003
0.00102926
0.00102795
0.00102717
0.00102588
0.00102509
0.0010238
0.00102302
0.00102237
0.00102134
0.00102134
0.00104012
0.00103841
0.0010377
0.0010363
0.00103559
0.00103421
0.00103348
0.00103212
0.00103137
0.00103004
0.00102927
0.00102796
0.00102718
0.00102588
0.00102509
0.00102381
0.00102302
0.00102237
0.00102134
0.00102133
0.00104014
0.00103843
0.00103772
0.00103633
0.0010356
0.00103423
0.00103349
0.00103213
0.00103138
0.00103005
0.00102928
0.00102797
0.00102718
0.00102588
0.0010251
0.0010238
0.00102302
0.00102237
0.00102133
0.00102133
0.00104017
0.00103844
0.00103774
0.00103634
0.00103562
0.00103424
0.0010335
0.00103215
0.00103139
0.00103005
0.00102929
0.00102797
0.00102719
0.00102588
0.0010251
0.0010238
0.00102301
0.00102236
0.00102133
0.00102132
0.00104019
0.00103847
0.00103776
0.00103636
0.00103564
0.00103426
0.00103351
0.00103216
0.0010314
0.00103006
0.00102929
0.00102798
0.00102719
0.00102589
0.0010251
0.0010238
0.00102301
0.00102236
0.00102132
0.00102132
0.00104022
0.00103849
0.00103778
0.00103639
0.00103565
0.00103428
0.00103353
0.00103218
0.00103141
0.00103008
0.0010293
0.00102798
0.0010272
0.00102589
0.0010251
0.0010238
0.00102301
0.00102236
0.00102132
0.00102131
0.00104026
0.00103852
0.00103781
0.0010364
0.00103568
0.00103429
0.00103355
0.00103218
0.00103143
0.00103008
0.00102931
0.00102798
0.0010272
0.00102589
0.0010251
0.0010238
0.001023
0.00102235
0.00102131
0.0010213
0.00104028
0.00103855
0.00103784
0.00103642
0.0010357
0.00103431
0.00103357
0.00103219
0.00103144
0.00103009
0.00102932
0.00102799
0.0010272
0.00102589
0.0010251
0.00102379
0.001023
0.00102234
0.0010213
0.00102129
0.0010403
0.00103857
0.00103786
0.00103644
0.00103572
0.00103432
0.00103358
0.00103221
0.00103145
0.0010301
0.00102932
0.001028
0.0010272
0.00102589
0.00102509
0.00102379
0.00102299
0.00102234
0.00102129
0.00102128
0.00103994
0.00103828
0.00103758
0.00103622
0.00103551
0.00103416
0.00103342
0.0010321
0.00103133
0.00103003
0.00102924
0.00102796
0.00102716
0.00102588
0.00102507
0.00102379
0.00102297
0.00102233
0.00102128
0.00102128
0.00102128
0.00102128
0.00102128
0.00102128
0.00102128
0.00102128
0.00102128
0.00102128
0.00102128
0.00102128
0.00102128
0.00102128
0.00102128
0.00102128
0.00102128
0.00102128
0.00102128
0.00102128
0.00102128
)
;

boundaryField
{
    movingWall
    {
        type            calculated;
        value           nonuniform List<scalar> 
20
(
0.00102128
0.00102128
0.00102128
0.00102128
0.00102128
0.00102128
0.00102128
0.00102128
0.00102128
0.00102128
0.00102128
0.00102128
0.00102128
0.00102128
0.00102128
0.00102128
0.00102128
0.00102128
0.00102128
0.00102128
)
;
    }
    fixedWalls
    {
        type            calculated;
        value           nonuniform List<scalar> 
60
(
0.00102188
0.00102174
0.00102157
0.00102146
0.0010214
0.00102137
0.00102135
0.00102135
0.00102135
0.00102134
0.00102134
0.00102133
0.00102133
0.00102132
0.00102132
0.00102131
0.0010213
0.00102129
0.00102128
0.00102128
0.00102188
0.00102174
0.00102158
0.00102146
0.0010214
0.00102137
0.00102136
0.00102135
0.00102135
0.00102134
0.00102134
0.00102133
0.00102133
0.00102132
0.00102132
0.00102131
0.0010213
0.00102129
0.00102128
0.00102128
0.00102188
0.00102188
0.00102188
0.00102188
0.00102188
0.00102188
0.00102188
0.00102188
0.00102188
0.00102188
0.00102188
0.00102188
0.00102188
0.00102188
0.00102188
0.00102188
0.00102188
0.00102188
0.00102188
0.00102188
)
;
    }
    frontAndBack
    {
        type            empty;
    }
}


// ************************************************************************* //
