/*--------------------------------*- C++ -*----------------------------------*\
| =========                 |                                                 |
| \\      /  F ield         | OpenFOAM: The Open Source CFD Toolbox           |
|  \\    /   O peration     | Version:  2312                                  |
|   \\  /    A nd           | Website:  www.openfoam.com                      |
|    \\/     M anipulation  |                                                 |
\*---------------------------------------------------------------------------*/
FoamFile
{
    version     2.0;
    format      ascii;
    arch        "LSB;label=32;scalar=64";
    class       volScalarField;
    location    "6.5";
    object      turbulenceProperties:I;
}
// * * * * * * * * * * * * * * * * * * * * * * * * * * * * * * * * * * * * * //

dimensions      [0 0 0 0 0 0 0];

internalField   nonuniform List<scalar> 
400
(
0.00216405
0.00216405
0.00216405
0.00216405
0.00216405
0.00216405
0.00216405
0.00216405
0.00216405
0.00216405
0.00216405
0.00216405
0.00216405
0.00216405
0.00216405
0.00216405
0.00216405
0.00216405
0.00216405
0.00216405
0.00220636
0.00220636
0.0022063
0.00220628
0.00220624
0.00220622
0.00220618
0.00220616
0.00220613
0.00220612
0.00220609
0.00220608
0.00220606
0.00220605
0.00220603
0.00220603
0.00220602
0.00220602
0.00220601
0.00220601
0.00226666
0.00226667
0.00226659
0.00226657
0.00226652
0.0022665
0.00226646
0.00226644
0.00226641
0.00226639
0.00226636
0.00226635
0.00226633
0.00226631
0.0022663
0.00226629
0.00226629
0.00226628
0.00226628
0.00226628
0.0023222
0.0023222
0.00232212
0.0023221
0.00232205
0.00232202
0.00232198
0.00232196
0.00232192
0.00232191
0.00232187
0.00232186
0.00232184
0.00232183
0.00232181
0.0023218
0.00232179
0.00232179
0.00232179
0.00232178
0.00236319
0.00236319
0.00236312
0.00236309
0.00236303
0.002363
0.00236296
0.00236294
0.0023629
0.00236288
0.00236285
0.00236283
0.00236281
0.0023628
0.00236278
0.00236277
0.00236276
0.00236276
0.00236275
0.00236275
0.00238985
0.00238985
0.00238976
0.00238974
0.00238968
0.00238966
0.00238961
0.00238959
0.00238954
0.00238953
0.00238949
0.00238948
0.00238945
0.00238944
0.00238942
0.00238941
0.0023894
0.0023894
0.00238939
0.00238939
0.00240609
0.00240608
0.002406
0.00240597
0.00240592
0.00240589
0.00240584
0.00240581
0.00240578
0.00240575
0.00240572
0.0024057
0.00240568
0.00240567
0.00240565
0.00240564
0.00240563
0.00240562
0.00240562
0.00240562
0.00241588
0.00241588
0.00241579
0.00241577
0.00241571
0.00241568
0.00241563
0.0024156
0.00241557
0.00241554
0.00241551
0.00241549
0.00241547
0.00241546
0.00241544
0.00241543
0.00241542
0.00241541
0.00241541
0.00241541
0.00242212
0.00242212
0.00242203
0.00242201
0.00242195
0.00242192
0.00242187
0.00242185
0.0024218
0.00242178
0.00242174
0.00242173
0.0024217
0.00242169
0.00242167
0.00242166
0.00242165
0.00242165
0.00242164
0.00242164
0.00242659
0.00242659
0.0024265
0.00242647
0.00242642
0.00242638
0.00242634
0.00242631
0.00242627
0.00242624
0.00242622
0.00242619
0.00242617
0.00242616
0.00242614
0.00242613
0.00242612
0.00242611
0.00242611
0.00242611
0.0024303
0.0024303
0.00243022
0.00243019
0.00243012
0.0024301
0.00243004
0.00243002
0.00242998
0.00242996
0.00242993
0.00242991
0.00242988
0.00242987
0.00242985
0.00242984
0.00242983
0.00242983
0.00242982
0.00242982
0.00243382
0.00243382
0.00243374
0.00243371
0.00243365
0.00243362
0.00243357
0.00243354
0.0024335
0.00243348
0.00243345
0.00243343
0.0024334
0.00243339
0.00243337
0.00243336
0.00243335
0.00243335
0.00243334
0.00243334
0.00243747
0.00243747
0.00243738
0.00243735
0.0024373
0.00243726
0.00243722
0.00243719
0.00243715
0.00243713
0.00243709
0.00243708
0.00243705
0.00243704
0.00243702
0.00243701
0.002437
0.00243699
0.00243699
0.00243699
0.00244144
0.00244144
0.00244135
0.00244132
0.00244126
0.00244123
0.00244119
0.00244115
0.00244112
0.00244109
0.00244106
0.00244104
0.00244102
0.002441
0.00244098
0.00244097
0.00244096
0.00244096
0.00244095
0.00244095
0.00244584
0.00244584
0.00244575
0.00244572
0.00244567
0.00244563
0.00244559
0.00244556
0.00244552
0.00244549
0.00244546
0.00244544
0.00244542
0.0024454
0.00244538
0.00244537
0.00244536
0.00244536
0.00244535
0.00244535
0.00245069
0.0024507
0.0024506
0.00245057
0.00245051
0.00245048
0.00245043
0.00245041
0.00245036
0.00245034
0.0024503
0.00245029
0.00245026
0.00245025
0.00245023
0.00245022
0.00245021
0.0024502
0.0024502
0.0024502
0.00245581
0.00245581
0.00245572
0.00245569
0.00245563
0.0024556
0.00245555
0.00245553
0.00245548
0.00245546
0.00245542
0.00245541
0.00245538
0.00245537
0.00245535
0.00245534
0.00245533
0.00245532
0.00245532
0.00245532
0.00246076
0.00246076
0.00246067
0.00246064
0.00246057
0.00246055
0.00246049
0.00246047
0.00246043
0.0024604
0.00246037
0.00246035
0.00246033
0.00246031
0.00246029
0.00246028
0.00246027
0.00246026
0.00246026
0.00246026
0.00246478
0.00246478
0.00246469
0.00246466
0.0024646
0.00246457
0.00246453
0.00246449
0.00246446
0.00246443
0.0024644
0.00246438
0.00246436
0.00246434
0.00246432
0.00246431
0.0024643
0.0024643
0.00246429
0.00246429
0.00246659
0.00246659
0.00246659
0.00246659
0.00246659
0.00246659
0.00246659
0.00246659
0.00246659
0.00246659
0.00246659
0.00246659
0.00246659
0.00246659
0.00246659
0.00246659
0.00246659
0.00246659
0.00246659
0.00246659
)
;

boundaryField
{
    movingWall
    {
        type            calculated;
        value           nonuniform List<scalar> 
20
(
0.00246659
0.00246659
0.00246659
0.00246659
0.00246659
0.00246659
0.00246659
0.00246659
0.00246659
0.00246659
0.00246659
0.00246659
0.00246659
0.00246659
0.00246659
0.00246659
0.00246659
0.00246659
0.00246659
0.00246659
)
;
    }
    fixedWalls
    {
        type            calculated;
        value           nonuniform List<scalar> 
60
(
0.00216405
0.00220636
0.00226666
0.0023222
0.00236319
0.00238985
0.00240609
0.00241588
0.00242212
0.00242659
0.0024303
0.00243382
0.00243747
0.00244144
0.00244584
0.00245069
0.00245581
0.00246076
0.00246478
0.00246659
0.00216405
0.00220601
0.00226628
0.00232178
0.00236275
0.00238939
0.00240562
0.00241541
0.00242164
0.00242611
0.00242982
0.00243334
0.00243699
0.00244095
0.00244535
0.0024502
0.00245532
0.00246026
0.00246429
0.00246659
0.00216405
0.00216405
0.00216405
0.00216405
0.00216405
0.00216405
0.00216405
0.00216405
0.00216405
0.00216405
0.00216405
0.00216405
0.00216405
0.00216405
0.00216405
0.00216405
0.00216405
0.00216405
0.00216405
0.00216405
)
;
    }
    frontAndBack
    {
        type            empty;
    }
}


// ************************************************************************* //
