/*--------------------------------*- C++ -*----------------------------------*\
| =========                 |                                                 |
| \\      /  F ield         | OpenFOAM: The Open Source CFD Toolbox           |
|  \\    /   O peration     | Version:  2312                                  |
|   \\  /    A nd           | Website:  www.openfoam.com                      |
|    \\/     M anipulation  |                                                 |
\*---------------------------------------------------------------------------*/
FoamFile
{
    version     2.0;
    format      ascii;
    arch        "LSB;label=32;scalar=64";
    class       volSymmTensorField;
    location    "6.5";
    object      turbulenceProperties:devReff;
}
// * * * * * * * * * * * * * * * * * * * * * * * * * * * * * * * * * * * * * //

dimensions      [0 2 -2 0 0 0 0];

internalField   nonuniform List<symmTensor> 
400
(
(1.26491e-16 -1.51092e-16 -0 -2.40532e-16 -0 1.14041e-16)
(-4.30373e-17 1.64718e-16 -0 5.93062e-17 -0 -1.62689e-17)
(1.15056e-17 -3.60142e-17 -0 -1.49185e-17 -0 3.41289e-18)
(-4.79271e-19 7.43088e-18 -0 1.58106e-18 -0 -1.10179e-18)
(1.44348e-18 -2.88915e-18 -0 -1.64192e-18 -0 1.9844e-19)
(1.0342e-18 2.16383e-19 -0 -8.23367e-19 -0 -2.10836e-19)
(5.9078e-19 -3.17465e-19 -0 -5.59041e-19 -0 -3.17391e-20)
(1.37837e-19 -3.68983e-19 -0 -2.75673e-19 -0 1.37837e-19)
(9.87403e-19 -3.92007e-19 -0 -7.29767e-19 -0 -2.57635e-19)
(5.64813e-19 2.92603e-20 -0 -5.07108e-19 -0 -5.77055e-20)
(1.43424e-19 9.88918e-22 -0 -2.86847e-19 -0 1.43424e-19)
(2.68145e-19 -1.91008e-20 -0 -5.36291e-19 -0 2.68145e-19)
(1.5695e-18 1.7509e-19 -0 -1.27144e-18 -0 -2.9806e-19)
(5.29562e-19 2.79515e-19 -0 -4.36604e-19 -0 -9.29573e-20)
(-1.19819e-19 7.86049e-19 -0 2.39637e-19 -0 -1.19819e-19)
(-6.05485e-19 5.12069e-19 -0 5.88452e-19 -0 1.70334e-20)
(-8.20227e-19 4.00675e-19 -0 3.95417e-19 -0 4.2481e-19)
(4.36098e-20 9.21663e-19 -0 -8.72196e-20 -0 4.36098e-20)
(-1.23763e-19 6.74877e-19 -0 2.47527e-19 -0 -1.23763e-19)
(-5.34219e-20 6.80295e-21 -0 1.06844e-19 -0 -5.34219e-20)
(-2.45938e-16 -5.22816e-18 -0 4.51312e-16 -0 -2.05373e-16)
(8.66451e-17 1.02981e-17 -0 -1.13875e-16 -0 2.72303e-17)
(-2.20343e-17 5.04113e-19 -0 2.7811e-17 -0 -5.77666e-18)
(1.30367e-18 2.06871e-18 -0 -3.85783e-18 -0 2.55416e-18)
(-6.56525e-19 1.55927e-18 -0 1.31305e-18 -0 -6.56525e-19)
(8.7996e-20 1.37961e-18 -0 -1.75992e-19 -0 8.7996e-20)
(3.64368e-20 1.35613e-18 -0 -7.28735e-20 -0 3.64368e-20)
(6.51427e-20 1.02306e-18 -0 -1.30285e-19 -0 6.51427e-20)
(-4.17478e-19 1.00031e-18 -0 2.1011e-19 -0 2.07368e-19)
(-9.4004e-19 6.16432e-19 -0 6.30495e-19 -0 3.09545e-19)
(-1.2522e-19 4.45566e-19 -0 2.50439e-19 -0 -1.2522e-19)
(-1.34503e-19 3.71329e-19 -0 2.69005e-19 -0 -1.34503e-19)
(-7.46521e-20 5.5485e-20 -0 1.49304e-19 -0 -7.46521e-20)
(-2.81669e-19 7.5881e-20 -0 -6.11529e-20 -0 3.42822e-19)
(6.40666e-19 -6.41705e-19 -0 -6.56935e-19 -0 1.62693e-20)
(9.88145e-19 -8.422e-20 -0 -7.27611e-19 -0 -2.60534e-19)
(4.31092e-19 -1.29639e-19 -0 -2.37939e-19 -0 -1.93154e-19)
(-1.24391e-19 -9.9068e-20 -0 2.48783e-19 -0 -1.24391e-19)
(-5.80419e-19 -5.3071e-19 -0 5.36696e-19 -0 4.37232e-20)
(-9.49986e-19 -2.73259e-19 -0 6.51838e-19 -0 2.98148e-19)
(9.42505e-17 1.76057e-16 -0 -1.69086e-16 -0 7.4835e-17)
(-3.36902e-17 -1.63945e-16 -0 4.4154e-17 -0 -1.04637e-17)
(8.65829e-18 3.4725e-17 -0 -1.04129e-17 -0 1.7546e-18)
(-2.10363e-18 -7.74738e-18 -0 2.95214e-18 -0 -8.48518e-19)
(-4.24411e-19 2.99628e-18 -0 2.21377e-19 -0 2.03034e-19)
(-2.44471e-19 1.15973e-19 -0 4.88942e-19 -0 -2.44471e-19)
(-1.02333e-18 6.55407e-19 -0 7.92101e-19 -0 2.31233e-19)
(-4.78039e-19 3.1168e-19 -0 3.28851e-19 -0 1.49188e-19)
(1.36109e-18 4.91344e-19 -0 -8.40807e-19 -0 -5.20279e-19)
(5.22537e-19 5.30171e-19 -0 -4.1801e-19 -0 -1.04527e-19)
(1.73506e-20 3.55948e-19 -0 -3.47013e-20 -0 1.73506e-20)
(-5.48588e-19 2.18123e-19 -0 4.70274e-19 -0 7.83136e-20)
(-1.06657e-18 3.97909e-19 -0 8.79529e-19 -0 1.87036e-19)
(-5.55475e-19 1.08465e-18 -0 4.84208e-19 -0 7.12661e-20)
(4.217e-19 4.46216e-19 -0 -2.16759e-19 -0 -2.04941e-19)
(2.20427e-20 2.04132e-19 -0 -4.40853e-20 -0 2.20427e-20)
(-4.98821e-19 -4.28126e-19 -0 3.71161e-19 -0 1.27661e-19)
(-5.11498e-19 -9.95177e-19 -0 3.96575e-19 -0 1.14923e-19)
(4.48819e-19 -5.83431e-19 -0 -2.71267e-19 -0 -1.77552e-19)
(3.98265e-19 -4.17967e-19 -0 -1.70237e-19 -0 -2.28028e-19)
(1.22751e-16 -1.4773e-16 -0 -2.09056e-16 -0 8.63056e-17)
(-4.73376e-17 1.34793e-16 -0 5.49934e-17 -0 -7.6558e-18)
(1.1593e-17 -2.97036e-17 -0 -1.31104e-17 -0 1.51739e-18)
(-2.21519e-18 6.30728e-18 -0 2.54136e-18 -0 -3.26174e-19)
(7.40544e-19 -2.80116e-18 -0 -8.51532e-19 -0 1.10987e-19)
(-9.85911e-20 4.02554e-19 -0 1.97182e-19 -0 -9.85911e-20)
(-1.75054e-19 -1.7085e-19 -0 3.50107e-19 -0 -1.75054e-19)
(-6.05474e-19 9.02719e-19 -0 5.81622e-19 -0 2.3852e-20)
(-9.57852e-19 4.45297e-19 -0 6.57272e-19 -0 3.0058e-19)
(-8.63162e-19 1.26248e-19 -0 4.68013e-19 -0 3.95149e-19)
(8.77267e-19 8.02558e-19 -0 -4.9644e-19 -0 -3.80827e-19)
(-8.67789e-19 1.18489e-19 -0 4.77606e-19 -0 3.90182e-19)
(6.762e-19 3.80886e-19 -0 -9.46432e-20 -0 -5.81557e-19)
(-1.24117e-18 3.75255e-20 -0 1.2247e-18 -0 1.64667e-20)
(-1.67294e-18 -5.7208e-19 -0 1.45975e-18 -0 2.13189e-19)
(-2.02234e-19 -8.99674e-19 -0 4.04467e-19 -0 -2.02234e-19)
(-4.75795e-19 -5.84604e-19 -0 3.23046e-19 -0 1.52749e-19)
(4.83058e-19 4.53376e-20 -0 -3.37635e-19 -0 -1.45423e-19)
(-2.96602e-19 6.10219e-19 -0 -3.52239e-20 -0 3.31826e-19)
(4.77337e-19 -5.7129e-19 -0 -3.26329e-19 -0 -1.51008e-19)
(-1.9092e-16 9.01318e-18 -0 3.3145e-16 -0 -1.4053e-16)
(7.87875e-17 -1.40526e-17 -0 -9.1905e-17 -0 1.31175e-17)
(-1.93446e-17 1.18317e-18 -0 2.16442e-17 -0 -2.29957e-18)
(4.57258e-18 -2.83767e-18 -0 -5.35774e-18 -0 7.85161e-19)
(-1.05974e-18 -1.43057e-18 -0 8.57236e-19 -0 2.02501e-19)
(1.22885e-18 -1.97742e-18 -0 -1.19558e-18 -0 -3.32696e-20)
(7.00906e-19 -2.04863e-18 -0 -7.7087e-19 -0 6.99642e-20)
(9.09435e-19 -2.29441e-18 -0 -5.5711e-19 -0 -3.52324e-19)
(-2.64643e-19 -1.64109e-18 -0 5.29286e-19 -0 -2.64643e-19)
(-1.16683e-18 -9.64883e-19 -0 1.07226e-18 -0 9.45732e-20)
(-2.13804e-19 -1.84175e-18 -0 4.27608e-19 -0 -2.13804e-19)
(-6.0692e-19 -1.37015e-18 -0 5.83315e-19 -0 2.3605e-20)
(-1.01489e-18 -1.24441e-18 -0 7.68939e-19 -0 2.45946e-19)
(-9.27979e-19 -1.67997e-18 -0 5.95258e-19 -0 3.32721e-19)
(-3.81183e-20 -1.67707e-19 -0 7.62366e-20 -0 -3.81183e-20)
(-7.89925e-21 -3.34061e-19 -0 1.57985e-20 -0 -7.89925e-21)
(-1.58724e-20 1.14141e-19 -0 3.17449e-20 -0 -1.58724e-20)
(5.01505e-19 3.04809e-19 -0 -3.73009e-19 -0 -1.28496e-19)
(4.98272e-19 5.16331e-20 -0 -3.66597e-19 -0 -1.31675e-19)
(4.61066e-20 1.66397e-19 -0 -9.22132e-20 -0 4.61066e-20)
(1.18109e-16 1.26107e-16 -0 -2.05306e-16 -0 8.7197e-17)
(-5.1002e-17 -1.11121e-16 -0 5.83636e-17 -0 -7.36166e-18)
(1.32808e-17 2.41078e-17 -0 -1.45476e-17 -0 1.26677e-18)
(-2.01834e-18 -5.32894e-18 -0 2.77217e-18 -0 -7.53829e-19)
(-2.79468e-19 1.57746e-18 -0 -7.32009e-20 -0 3.52669e-19)
(-1.37577e-19 -3.44834e-19 -0 2.75153e-19 -0 -1.37577e-19)
(6.08478e-21 3.07865e-19 -0 -1.21696e-20 -0 6.08478e-21)
(3.57431e-19 -1.70553e-19 -0 -8.29708e-20 -0 -2.7446e-19)
(-1.05297e-18 -5.40116e-19 -0 8.42401e-19 -0 2.10573e-19)
(-5.09404e-19 -8.97088e-19 -0 3.87098e-19 -0 1.22306e-19)
(5.28919e-21 -6.66585e-19 -0 -1.05784e-20 -0 5.28919e-21)
(-3.27238e-19 5.9744e-20 -0 2.2947e-20 -0 3.04291e-19)
(1.04045e-18 -3.97753e-19 -0 -8.18071e-19 -0 -2.2238e-19)
(1.147e-18 1.48745e-19 -0 -1.0313e-18 -0 -1.15698e-19)
(1.05982e-18 -6.2726e-20 -0 -8.57165e-19 -0 -2.02655e-19)
(5.06688e-19 3.25645e-19 -0 -3.82206e-19 -0 -1.24482e-19)
(-8.74195e-21 2.25318e-19 -0 1.74839e-20 -0 -8.74195e-21)
(1.32472e-20 2.19516e-19 -0 -2.64944e-20 -0 1.32472e-20)
(-3.43146e-19 3.48782e-20 -0 5.53552e-20 -0 2.87791e-19)
(5.28401e-19 -3.86669e-19 -0 -4.25954e-19 -0 -1.02448e-19)
(6.28496e-17 -1.49695e-16 -0 -1.09281e-16 -0 4.64314e-17)
(-2.45169e-17 1.41539e-16 -0 3.0041e-17 -0 -5.52413e-18)
(5.37621e-18 -2.86702e-17 -0 -6.32182e-18 -0 9.45614e-19)
(-1.17845e-18 8.02037e-18 -0 1.72401e-18 -0 -5.45566e-19)
(9.96973e-21 -7.77443e-19 -0 -1.99395e-20 -0 9.96973e-21)
(-1.16835e-18 1.06855e-18 -0 1.07132e-18 -0 9.70352e-20)
(-2.66502e-19 1.31454e-18 -0 5.33005e-19 -0 -2.66502e-19)
(-9.99525e-19 1.50388e-18 -0 7.34034e-19 -0 2.65491e-19)
(1.36475e-20 1.55334e-18 -0 -2.72949e-20 -0 1.36475e-20)
(9.4175e-19 2.18628e-18 -0 -6.18853e-19 -0 -3.22897e-19)
(4.47856e-20 1.67345e-18 -0 -8.95712e-20 -0 4.47856e-20)
(5.50239e-20 1.18072e-18 -0 -1.10048e-19 -0 5.50239e-20)
(8.97484e-19 1.59503e-18 -0 -5.30917e-19 -0 -3.66567e-19)
(-9.1528e-19 1.44601e-18 -0 5.66646e-19 -0 3.48635e-19)
(-7.78309e-20 7.92873e-19 -0 1.55662e-19 -0 -7.78309e-20)
(-3.77855e-19 5.75275e-21 -0 1.23933e-19 -0 2.53922e-19)
(1.20095e-19 5.39333e-19 -0 -2.40189e-19 -0 1.20095e-19)
(-2.8064e-20 -1.39681e-19 -0 5.61281e-20 -0 -2.8064e-20)
(-3.86968e-19 -9.02785e-20 -0 1.42396e-19 -0 2.44572e-19)
(9.26339e-19 1.29311e-19 -0 -5.89777e-19 -0 -3.36562e-19)
(-1.64251e-16 2.09703e-17 -0 2.96278e-16 -0 -1.32027e-16)
(6.22796e-17 -2.89121e-17 -0 -7.89494e-17 -0 1.66698e-17)
(-1.56285e-17 3.69269e-18 -0 1.9224e-17 -0 -3.59548e-18)
(2.04021e-18 -2.66668e-18 -0 -3.44717e-18 -0 1.40696e-18)
(-1.674e-18 -6.50653e-19 -0 1.4486e-18 -0 2.25397e-19)
(1.79759e-19 -5.63414e-19 -0 -3.59518e-19 -0 1.79759e-19)
(1.45585e-18 -5.77499e-19 -0 -1.01285e-18 -0 -4.42992e-19)
(2.28717e-19 4.16252e-20 -0 -4.57434e-19 -0 2.28717e-19)
(1.92834e-18 2.57356e-20 -0 -1.32564e-18 -0 -6.02699e-19)
(-5.32558e-21 -6.28887e-19 -0 1.06512e-20 -0 -5.32558e-21)
(-1.04635e-18 3.03991e-20 -0 8.27538e-19 -0 2.18808e-19)
(-1.09345e-18 4.48097e-20 -0 9.21892e-19 -0 1.71563e-19)
(-6.54127e-19 1.09478e-19 -0 6.7586e-19 -0 -2.17334e-20)
(-9.84084e-19 -6.00464e-19 -0 7.03517e-19 -0 2.80566e-19)
(4.50099e-20 -2.36911e-19 -0 -9.00198e-20 -0 4.50099e-20)
(9.28952e-19 3.45138e-19 -0 -5.9362e-19 -0 -3.35332e-19)
(3.88754e-20 1.67948e-20 -0 -7.77509e-20 -0 3.88754e-20)
(-6.89928e-20 3.29766e-20 -0 1.37986e-19 -0 -6.89928e-20)
(-9.57072e-19 -1.33883e-19 -0 6.50336e-19 -0 3.06735e-19)
(-8.80795e-20 4.22343e-19 -0 1.76159e-19 -0 -8.80795e-20)
(9.86095e-17 8.46386e-17 -0 -1.89002e-16 -0 9.03927e-17)
(-3.33285e-17 -8.26082e-17 -0 4.7012e-17 -0 -1.36835e-17)
(1.02181e-17 1.66898e-17 -0 -1.28334e-17 -0 2.61538e-18)
(2.86666e-19 -4.6733e-18 -0 1.32715e-18 -0 -1.61382e-18)
(2.00429e-19 1.12798e-19 -0 -4.00857e-19 -0 2.00429e-19)
(4.81328e-19 -4.60579e-19 -0 -3.29352e-19 -0 -1.51977e-19)
(6.05343e-19 -3.407e-19 -0 -5.77503e-19 -0 -2.78396e-20)
(1.67724e-19 -7.87251e-19 -0 -3.35449e-19 -0 1.67724e-19)
(-2.35964e-19 -9.42516e-19 -0 -1.61067e-19 -0 3.97032e-19)
(5.23448e-19 -9.43095e-19 -0 -4.13966e-19 -0 -1.09482e-19)
(-1.89129e-21 -8.05251e-19 -0 3.78258e-21 -0 -1.89129e-21)
(-3.63591e-20 -9.88213e-19 -0 7.27182e-20 -0 -3.63591e-20)
(4.53279e-19 -1.09762e-18 -0 -2.73931e-19 -0 -1.79348e-19)
(1.5772e-19 -5.50454e-19 -0 -3.15441e-19 -0 1.5772e-19)
(1.42948e-18 -4.95763e-19 -0 -9.61627e-19 -0 -4.67853e-19)
(-4.47362e-19 -6.1743e-19 -0 2.62349e-19 -0 1.85013e-19)
(-9.3568e-19 -4.91973e-19 -0 6.06837e-19 -0 3.28843e-19)
(5.03286e-20 9.03945e-20 -0 -1.00657e-19 -0 5.03286e-20)
(-4.69852e-20 -6.1695e-20 -0 9.39704e-20 -0 -4.69852e-20)
(-1.05805e-19 -4.90595e-19 -0 2.11611e-19 -0 -1.05805e-19)
(-1.73291e-17 -8.49966e-17 -0 3.46581e-17 -0 -1.73291e-17)
(2.27368e-18 1.08828e-16 -0 -5.81512e-18 -0 3.54144e-18)
(-4.75283e-19 -2.10632e-17 -0 9.50565e-19 -0 -4.75283e-19)
(2.5964e-19 5.3902e-18 -0 -5.1928e-19 -0 2.5964e-19)
(9.11182e-20 -9.43304e-19 -0 -1.82236e-19 -0 9.11182e-20)
(1.41178e-20 9.54317e-20 -0 -2.82356e-20 -0 1.41178e-20)
(3.44106e-19 -4.24181e-19 -0 -5.48592e-20 -0 -2.89247e-19)
(-4.6913e-19 -5.95935e-19 -0 3.04973e-19 -0 1.64157e-19)
(4.4529e-19 1.25059e-19 -0 -2.57413e-19 -0 -1.87877e-19)
(4.60947e-19 -3.08073e-20 -0 -2.88795e-19 -0 -1.72152e-19)
(-4.00435e-19 -3.95749e-19 -0 1.67889e-19 -0 2.32546e-19)
(-1.31389e-22 -3.21768e-19 -0 2.62777e-22 -0 -1.31389e-22)
(-3.93947e-19 -4.98062e-19 -0 1.55099e-19 -0 2.38848e-19)
(7.84321e-20 -4.8418e-19 -0 -1.56864e-19 -0 7.84321e-20)
(1.15298e-19 -2.78085e-19 -0 -2.30596e-19 -0 1.15298e-19)
(6.98323e-20 -5.33744e-19 -0 -1.39665e-19 -0 6.98323e-20)
(4.84842e-19 -4.136e-19 -0 -3.37257e-19 -0 -1.47585e-19)
(5.77479e-19 -3.55184e-20 -0 -5.22601e-19 -0 -5.48788e-20)
(1.07175e-19 1.00311e-19 -0 -2.1435e-19 -0 1.07175e-19)
(-7.2119e-21 1.93373e-19 -0 1.44238e-20 -0 -7.2119e-21)
(-1.76343e-19 6.23782e-17 -0 1.86913e-17 -0 -1.85149e-17)
(-1.08965e-17 -9.62739e-17 -0 8.70109e-19 -0 1.00264e-17)
(9.1335e-19 2.00359e-17 -0 7.08784e-19 -0 -1.62213e-18)
(-1.12074e-18 -3.30703e-18 -0 3.40052e-19 -0 7.80685e-19)
(3.10455e-19 1.7485e-18 -0 1.27713e-20 -0 -3.23226e-19)
(-5.51599e-19 1.09939e-19 -0 4.6958e-19 -0 8.20184e-20)
(-1.07285e-19 6.74882e-20 -0 2.1457e-19 -0 -1.07285e-19)
(-4.50648e-19 3.27228e-19 -0 2.67867e-19 -0 1.8278e-19)
(-1.81864e-21 1.94884e-19 -0 3.63728e-21 -0 -1.81864e-21)
(-3.52718e-19 3.25354e-19 -0 7.21959e-20 -0 2.80522e-19)
(4.87108e-19 5.19118e-19 -0 -3.41095e-19 -0 -1.46013e-19)
(9.23354e-19 2.67852e-19 -0 -5.80604e-19 -0 -3.4275e-19)
(7.71376e-20 3.66302e-19 -0 -1.54275e-19 -0 7.71376e-20)
(7.67366e-20 9.00306e-19 -0 -1.53473e-19 -0 7.67366e-20)
(4.8823e-19 1.09874e-18 -0 -3.43709e-19 -0 -1.4452e-19)
(1.05218e-19 1.35841e-18 -0 -2.10437e-19 -0 1.05218e-19)
(4.0765e-20 3.27454e-19 -0 -8.15301e-20 -0 4.0765e-20)
(4.28215e-19 2.44715e-20 -0 -2.23933e-19 -0 -2.04281e-19)
(8.49507e-20 -1.33231e-19 -0 -1.69901e-19 -0 8.49507e-20)
(5.58246e-20 -3.40876e-19 -0 -1.11649e-19 -0 5.58246e-20)
(3.1735e-17 -7.06765e-17 -0 -9.69923e-17 -0 6.52573e-17)
(1.35925e-17 8.98008e-17 -0 1.08645e-17 -0 -2.44571e-17)
(-1.33406e-18 -1.73488e-17 -0 -3.03792e-18 -0 4.37199e-18)
(2.19514e-18 5.66292e-18 -0 4.73128e-20 -0 -2.24245e-18)
(-1.36473e-18 -2.12645e-19 -0 8.28018e-19 -0 5.36715e-19)
(-1.11203e-18 1.35595e-18 -0 9.5655e-19 -0 1.55476e-19)
(-1.16777e-19 1.00848e-18 -0 2.33553e-19 -0 -1.16777e-19)
(-2.65553e-20 1.14627e-18 -0 5.31105e-20 -0 -2.65553e-20)
(9.72771e-20 1.24525e-18 -0 -1.94554e-19 -0 9.72771e-20)
(1.52666e-18 1.4523e-18 -0 -1.1532e-18 -0 -3.73458e-19)
(2.26087e-19 1.48904e-18 -0 -4.52175e-19 -0 2.26087e-19)
(-2.35243e-19 9.26261e-19 -0 -1.62698e-19 -0 3.97941e-19)
(5.25368e-19 7.71647e-19 -0 -4.1767e-19 -0 -1.07699e-19)
(8.07316e-19 7.97692e-19 -0 -3.48637e-19 -0 -4.58679e-19)
(-1.04039e-18 3.11908e-19 -0 8.15023e-19 -0 2.2537e-19)
(-1.38362e-19 1.37273e-19 -0 2.76724e-19 -0 -1.38362e-19)
(-5.076e-19 6.83271e-19 -0 3.82504e-19 -0 1.25096e-19)
(-1.0381e-18 5.30783e-19 -0 8.10953e-19 -0 2.2715e-19)
(-5.43505e-19 2.64148e-20 -0 4.5444e-19 -0 8.9065e-20)
(4.48469e-19 8.84036e-20 -0 -2.6446e-19 -0 -1.84009e-19)
(-1.05999e-16 3.43077e-17 -0 2.392e-16 -0 -1.33202e-16)
(1.19376e-17 -2.72292e-17 -0 -4.60757e-17 -0 3.41381e-17)
(-6.52699e-18 4.79767e-18 -0 1.3054e-17 -0 -6.52699e-18)
(-1.18139e-18 -1.99368e-18 -0 -1.4417e-18 -0 2.62309e-18)
(1.61386e-19 3.71063e-19 -0 3.11184e-19 -0 -4.7257e-19)
(2.8845e-20 -1.7739e-19 -0 -5.769e-20 -0 2.8845e-20)
(-1.15309e-19 2.3699e-20 -0 2.30617e-19 -0 -1.15309e-19)
(-5.25151e-19 -3.10641e-19 -0 4.16602e-19 -0 1.08549e-19)
(-5.14291e-20 8.19237e-20 -0 1.02858e-19 -0 -5.14291e-20)
(-9.04736e-19 -5.01354e-19 -0 5.42451e-19 -0 3.62284e-19)
(9.11543e-19 -6.3797e-19 -0 -5.56306e-19 -0 -3.55237e-19)
(5.08287e-19 -4.97897e-19 -0 -3.83252e-19 -0 -1.25035e-19)
(8.67105e-19 -2.47981e-19 -0 -4.67803e-19 -0 -3.99302e-19)
(-9.5978e-19 -8.65336e-19 -0 6.53291e-19 -0 3.06489e-19)
(-5.41354e-19 -3.30749e-19 -0 4.4969e-19 -0 9.16636e-20)
(-4.28615e-20 -1.02244e-18 -0 8.57231e-20 -0 -4.28615e-20)
(1.94788e-20 -5.3721e-19 -0 -3.89576e-20 -0 1.94788e-20)
(-1.51887e-19 -5.54255e-19 -0 3.03774e-19 -0 -1.51887e-19)
(-1.06736e-18 -1.49112e-19 -0 8.6932e-19 -0 1.98045e-19)
(-2.653e-20 1.49128e-19 -0 5.30599e-20 -0 -2.653e-20)
(1.24988e-16 7.77403e-17 -0 -2.62632e-16 -0 1.37644e-16)
(-2.32284e-17 -9.18582e-17 -0 5.47047e-17 -0 -3.14763e-17)
(8.46899e-18 1.88139e-17 -0 -1.44008e-17 -0 5.9318e-18)
(7.26695e-19 -4.36852e-18 -0 1.71777e-18 -0 -2.44447e-18)
(-3.72566e-19 1.14235e-18 -0 -5.23082e-19 -0 8.95648e-19)
(1.03852e-18 -1.30402e-19 -0 -8.08953e-19 -0 -2.29564e-19)
(5.951e-19 5.7237e-19 -0 -5.56283e-19 -0 -3.88169e-20)
(-6.43355e-20 7.34062e-19 -0 1.28671e-19 -0 -6.43355e-20)
(-6.82842e-19 -8.55561e-20 -0 7.31957e-19 -0 -4.91146e-20)
(-1.17908e-18 7.9105e-21 -0 1.09083e-18 -0 8.82421e-20)
(-5.52393e-19 3.3939e-21 -0 4.71247e-19 -0 8.11464e-20)
(-5.02126e-20 6.76227e-19 -0 1.00425e-19 -0 -5.02126e-20)
(-3.85894e-19 -8.25487e-19 -0 1.38435e-19 -0 2.47459e-19)
(5.43832e-19 -8.88453e-19 -0 -4.54382e-19 -0 -8.94504e-20)
(7.60585e-20 -7.46796e-19 -0 -1.52117e-19 -0 7.60585e-20)
(3.81651e-19 2.45617e-19 -0 -1.30207e-19 -0 -2.51444e-19)
(-4.63732e-19 -1.0228e-19 -0 2.94483e-19 -0 1.69248e-19)
(-3.80462e-19 -5.33766e-20 -0 1.28015e-19 -0 2.52447e-19)
(4.75153e-19 -4.78052e-19 -0 -3.17455e-19 -0 -1.57698e-19)
(4.67896e-19 -2.87028e-19 -0 -3.03032e-19 -0 -1.64864e-19)
(6.43413e-18 -1.63702e-16 -0 1.75129e-17 -0 -2.3947e-17)
(-1.99712e-17 1.76317e-16 -0 5.67281e-18 -0 1.42984e-17)
(5.05045e-18 -3.52576e-17 -0 -1.85285e-18 -0 -3.1976e-18)
(-2.01538e-18 8.41517e-18 -0 8.58761e-19 -0 1.15662e-18)
(4.2495e-19 -1.99981e-18 -0 -2.15625e-19 -0 -2.09325e-19)
(9.83994e-19 9.07356e-19 -0 -6.99571e-19 -0 -2.84422e-19)
(2.88814e-20 -5.41162e-19 -0 -5.77629e-20 -0 2.88814e-20)
(-2.18372e-19 -6.12334e-19 -0 4.36744e-19 -0 -2.18372e-19)
(-1.56415e-18 -7.80852e-19 -0 1.22661e-18 -0 3.37535e-19)
(-1.0502e-18 -6.32357e-20 -0 8.32749e-19 -0 2.17451e-19)
(1.15286e-18 -1.13715e-19 -0 -4.04604e-19 -0 -7.48256e-19)
(-4.42693e-19 -7.4776e-19 -0 2.51751e-19 -0 1.90943e-19)
(-8.41998e-19 1.27556e-19 -0 4.16962e-19 -0 4.25037e-19)
(6.54371e-20 3.41513e-19 -0 -1.30874e-19 -0 6.54371e-20)
(-5.10456e-20 -4.04457e-19 -0 1.02091e-19 -0 -5.10456e-20)
(-1.62464e-19 1.03696e-19 -0 3.24927e-19 -0 -1.62464e-19)
(-5.36565e-19 -3.43765e-19 -0 4.39986e-19 -0 9.65791e-20)
(9.67828e-20 2.5255e-19 -0 -1.93566e-19 -0 9.67828e-20)
(1.60397e-19 1.60437e-19 -0 -3.20794e-19 -0 1.60397e-19)
(4.67745e-19 -1.82713e-20 -0 -3.02568e-19 -0 -1.65178e-19)
(-1.68458e-16 9.86475e-17 -0 2.90066e-16 -0 -1.21607e-16)
(7.2082e-17 -1.13298e-16 -0 -8.13179e-17 -0 9.23591e-18)
(-1.74701e-17 2.10844e-17 -0 1.9074e-17 -0 -1.60386e-18)
(2.85298e-18 -6.31579e-18 -0 -3.8022e-18 -0 9.4922e-19)
(-4.15879e-19 1.32581e-19 -0 8.31758e-19 -0 -4.15879e-19)
(-1.76529e-19 -1.75665e-18 -0 3.53057e-19 -0 -1.76529e-19)
(-1.63307e-18 -1.11197e-18 -0 1.36335e-18 -0 2.69728e-19)
(-1.01329e-18 -1.31425e-18 -0 7.58173e-19 -0 2.55114e-19)
(4.36369e-19 -7.39498e-19 -0 -2.38662e-19 -0 -1.97707e-19)
(2.88785e-20 -8.98806e-19 -0 -5.77569e-20 -0 2.88785e-20)
(-4.07204e-19 -9.07755e-19 -0 1.8052e-19 -0 2.26684e-19)
(1.36795e-19 -7.66934e-19 -0 -2.7359e-19 -0 1.36795e-19)
(8.54055e-19 -3.99194e-21 -0 -4.40713e-19 -0 -4.13342e-19)
(-1.01196e-18 -4.91482e-19 -0 7.56657e-19 -0 2.553e-19)
(-8.36871e-20 2.28266e-19 -0 1.67374e-19 -0 -8.36871e-20)
(1.07253e-20 -6.09208e-19 -0 -2.14506e-20 -0 1.07253e-20)
(5.06677e-19 1.42037e-19 -0 -3.8003e-19 -0 -1.26647e-19)
(5.66355e-19 -7.82451e-19 -0 -4.99456e-19 -0 -6.68983e-20)
(9.66045e-20 2.31361e-19 -0 -1.93209e-19 -0 9.66045e-20)
(-1.41376e-20 2.21602e-20 -0 2.82752e-20 -0 -1.41376e-20)
(1.89436e-16 6.50117e-17 -0 -3.39606e-16 -0 1.50171e-16)
(-7.19091e-17 -3.80968e-17 -0 8.85727e-17 -0 -1.66636e-17)
(1.80357e-17 8.89377e-18 -0 -2.14699e-17 -0 3.43419e-18)
(-2.17441e-18 -2.24887e-18 -0 3.71404e-18 -0 -1.53963e-18)
(2.98133e-19 3.22531e-19 -0 -5.96267e-19 -0 2.98133e-19)
(-2.5675e-19 -4.38137e-19 -0 5.13499e-19 -0 -2.5675e-19)
(-4.93314e-19 7.97885e-20 -0 3.52167e-19 -0 1.41147e-19)
(1.0103e-18 8.86836e-20 -0 -7.51802e-19 -0 -2.58494e-19)
(1.59354e-19 1.92333e-19 -0 -3.18707e-19 -0 1.59354e-19)
(5.15548e-20 -6.58852e-20 -0 -1.0311e-19 -0 5.15548e-20)
(-2.06687e-20 -2.75737e-19 -0 4.13374e-20 -0 -2.06687e-20)
(4.06305e-19 2.12208e-19 -0 -1.786e-19 -0 -2.27705e-19)
(-4.64982e-19 -5.02621e-20 -0 2.96072e-19 -0 1.68909e-19)
(-6.45766e-20 1.64083e-19 -0 1.29153e-19 -0 -6.45766e-20)
(8.07286e-20 -3.77946e-20 -0 -1.61457e-19 -0 8.07286e-20)
(5.97567e-19 -1.48551e-19 -0 -5.61503e-19 -0 -3.60638e-20)
(1.75734e-19 8.92698e-20 -0 -3.51468e-19 -0 1.75734e-19)
(1.26591e-19 2.34449e-19 -0 -2.53182e-19 -0 1.26591e-19)
(5.1981e-19 8.13777e-20 -0 -4.06235e-19 -0 -1.13575e-19)
(1.4504e-20 1.05434e-19 -0 -2.9008e-20 -0 1.4504e-20)
(2.75341e-18 -1.64078e-16 -0 1.2231e-17 -0 -1.49844e-17)
(-1.1444e-17 1.41388e-16 -0 4.46731e-18 -0 6.97666e-18)
(1.1011e-18 -2.82606e-17 -0 3.37946e-19 -0 -1.43904e-18)
(-2.37136e-18 6.95736e-18 -0 1.56786e-18 -0 8.03495e-19)
(7.7709e-19 -1.15688e-18 -0 -2.84498e-19 -0 -4.92593e-19)
(-4.14438e-19 3.82079e-19 -0 1.94101e-19 -0 2.20337e-19)
(5.4202e-19 1.59395e-19 -0 -4.49391e-19 -0 -9.26289e-20)
(7.5281e-20 2.44028e-19 -0 -1.50562e-19 -0 7.5281e-20)
(1.80562e-20 3.81059e-19 -0 -3.61124e-20 -0 1.80562e-20)
(-3.3448e-19 6.39526e-19 -0 3.45726e-20 -0 2.99908e-19)
(5.16515e-19 4.62138e-19 -0 -3.98763e-19 -0 -1.17752e-19)
(-4.82157e-19 2.16506e-19 -0 3.30117e-19 -0 1.52039e-19)
(-4.37942e-19 1.01947e-18 -0 2.41808e-19 -0 1.96134e-19)
(5.26822e-20 1.2255e-18 -0 -1.05364e-19 -0 5.26822e-20)
(3.78996e-20 1.13647e-18 -0 -7.57992e-20 -0 3.78996e-20)
(9.14698e-19 1.14926e-18 -0 -5.61766e-19 -0 -3.52932e-19)
(8.62454e-19 5.31754e-19 -0 -4.57513e-19 -0 -4.04941e-19)
(-8.5729e-19 -3.20245e-20 -0 4.47327e-19 -0 4.09963e-19)
(6.65175e-21 8.28721e-20 -0 -1.33035e-20 -0 6.65175e-21)
(-7.42882e-21 1.90286e-19 -0 1.48576e-20 -0 -7.42882e-21)
(-1.91678e-16 3.46342e-17 -0 3.33297e-16 -0 -1.4162e-16)
(7.70288e-17 -4.45201e-17 -0 -8.92556e-17 -0 1.22268e-17)
(-1.97333e-17 5.77138e-18 -0 2.23172e-17 -0 -2.58391e-18)
(2.44723e-18 -2.08183e-18 -0 -3.62427e-18 -0 1.17703e-18)
(-3.37744e-19 -7.26134e-20 -0 6.75487e-19 -0 -3.37744e-19)
(1.74009e-19 -4.03416e-19 -0 -3.48018e-19 -0 1.74009e-19)
(1.14387e-19 -2.00105e-20 -0 -2.28775e-19 -0 1.14387e-19)
(5.26062e-19 -7.73252e-20 -0 -4.17406e-19 -0 -1.08656e-19)
(5.83104e-19 -1.44654e-19 -0 -5.31609e-19 -0 -5.1495e-20)
(2.0953e-19 -4.9666e-19 -0 -4.1906e-19 -0 2.0953e-19)
(1.0314e-18 -5.41391e-20 -0 -7.93968e-19 -0 -2.37427e-19)
(4.22513e-20 5.85169e-20 -0 -8.45027e-20 -0 4.22513e-20)
(4.45587e-19 -5.35494e-19 -0 -2.56951e-19 -0 -1.88637e-19)
(8.385e-19 8.44562e-20 -0 -4.08699e-19 -0 -4.29802e-19)
(-9.39699e-19 -6.32409e-20 -0 6.11326e-19 -0 3.28373e-19)
(-5.11152e-19 -1.18069e-19 -0 3.88342e-19 -0 1.2281e-19)
(-9.39246e-19 -1.04496e-19 -0 6.10797e-19 -0 3.28449e-19)
(-4.82345e-20 2.5088e-19 -0 9.6469e-20 -0 -4.82345e-20)
(-7.4844e-20 7.38831e-20 -0 1.49688e-19 -0 -7.4844e-20)
(-5.31814e-20 1.04322e-19 -0 1.06363e-19 -0 -5.31814e-20)
(1.06789e-16 1.07337e-16 -0 -2.03439e-16 -0 9.66496e-17)
(-3.49528e-17 -1.04916e-16 -0 4.83595e-17 -0 -1.34067e-17)
(9.98562e-18 2.41352e-17 -0 -1.30005e-17 -0 3.01484e-18)
(6.07565e-19 -4.65606e-18 -0 6.85993e-19 -0 -1.29356e-18)
(8.4954e-19 1.93062e-18 -0 -1.06537e-18 -0 2.15833e-19)
(5.78919e-19 6.55102e-19 -0 -5.24129e-19 -0 -5.47892e-20)
(5.95368e-19 2.6555e-19 -0 -5.57028e-19 -0 -3.83397e-20)
(5.31398e-19 1.75262e-19 -0 -4.29089e-19 -0 -1.0231e-19)
(2.70334e-20 -9.60038e-20 -0 -5.40667e-20 -0 2.70334e-20)
(-4.73848e-19 2.83744e-19 -0 3.13989e-19 -0 1.59859e-19)
(-1.14482e-19 7.85975e-20 -0 2.28964e-19 -0 -1.14482e-19)
(-3.50309e-20 1.43318e-19 -0 7.00619e-20 -0 -3.50309e-20)
(-4.02436e-19 1.42173e-19 -0 1.71165e-19 -0 2.31272e-19)
(1.25517e-19 -5.00667e-19 -0 -2.51034e-19 -0 1.25517e-19)
(5.87466e-19 -6.42802e-19 -0 -5.41224e-19 -0 -4.62418e-20)
(4.99787e-19 -7.52313e-19 -0 -3.65866e-19 -0 -1.33921e-19)
(7.24284e-21 -7.96021e-19 -0 -1.44857e-20 -0 7.24284e-21)
(-1.00542e-19 -6.09072e-20 -0 2.01085e-19 -0 -1.00542e-19)
(-7.7362e-20 9.03292e-20 -0 1.54724e-19 -0 -7.7362e-20)
(8.93189e-21 -1.69079e-21 -0 -1.78638e-20 -0 8.93189e-21)
)
;

boundaryField
{
    movingWall
    {
        type            calculated;
        value           nonuniform List<symmTensor> 
20
(
(2.48583e-16 3.80118e-17 -0 -4.88492e-16 -0 2.39909e-16)
(-6.37211e-17 -7.11274e-17 -0 1.09011e-16 -0 -4.52897e-17)
(1.68387e-17 2.29187e-17 -0 -2.77143e-17 -0 1.08756e-17)
(-1.07502e-18 -1.86056e-18 -0 3.77633e-18 -0 -2.70132e-18)
(1.15775e-18 3.05883e-18 -0 -1.77341e-18 -0 6.15654e-19)
(4.37879e-19 1.52361e-18 -0 -3.33658e-19 -0 -1.04222e-19)
(4.83758e-19 4.00201e-19 -0 -4.25415e-19 -0 -5.8343e-20)
(3.20845e-19 3.22965e-19 -0 -9.95894e-20 -0 -2.21256e-19)
(-2.0064e-19 -8.21258e-20 -0 4.0128e-19 -0 -2.0064e-19)
(-6.20958e-19 4.15766e-19 -0 6.99816e-19 -0 -7.88573e-20)
(-2.76169e-19 5.11325e-19 -0 5.52337e-19 -0 -2.76169e-19)
(-8.02625e-20 5.66689e-19 -0 1.60525e-19 -0 -8.02625e-20)
(-3.10636e-19 1.0098e-18 -0 7.91703e-20 -0 2.31465e-19)
(2.4406e-19 1.00199e-18 -0 -4.88119e-19 -0 2.4406e-19)
(7.15655e-19 4.36309e-19 -0 -8.8921e-19 -0 1.73554e-19)
(5.84714e-19 3.42629e-19 -0 -6.27326e-19 -0 4.26125e-20)
(8.3694e-20 -1.02703e-18 -0 -1.67388e-19 -0 8.3694e-20)
(-1.46954e-19 -5.21027e-20 -0 2.93908e-19 -0 -1.46954e-19)
(-5.52464e-20 7.72715e-20 -0 1.10493e-19 -0 -5.52464e-20)
(5.91034e-20 -1.44637e-21 -0 -1.18207e-19 -0 5.91034e-20)
)
;
    }
    fixedWalls
    {
        type            calculated;
        value           nonuniform List<symmTensor> 
60
(
(1.55029e-16 -6.06466e-16 -0 -2.31899e-16 -0 7.68695e-17)
(-3.25144e-16 -2.57071e-17 -0 4.47783e-16 -0 -1.22639e-16)
(1.27219e-16 5.94281e-16 -0 -1.69172e-16 -0 4.19535e-17)
(1.85599e-16 -4.88887e-16 -0 -2.20207e-16 -0 3.46083e-17)
(-2.91129e-16 4.04699e-17 -0 3.48668e-16 -0 -5.75386e-17)
(1.85627e-16 4.01317e-16 -0 -2.18487e-16 -0 3.28602e-17)
(9.07438e-17 -5.00985e-16 -0 -1.1221e-16 -0 2.14659e-17)
(-2.26114e-16 9.52059e-17 -0 2.96796e-16 -0 -7.06825e-17)
(1.2014e-16 2.92248e-16 -0 -1.79884e-16 -0 5.97442e-17)
(-1.24903e-17 -3.8107e-16 -0 2.85332e-17 -0 -1.6043e-17)
(4.02904e-17 3.43996e-16 -0 -4.19753e-18 -0 -3.60929e-17)
(-4.77931e-17 -3.17008e-16 -0 -4.56341e-17 -0 9.34272e-17)
(-4.36057e-17 9.62307e-17 -0 1.81358e-16 -0 -1.37753e-16)
(8.88445e-17 3.23111e-16 -0 -2.15881e-16 -0 1.27036e-16)
(7.22444e-17 -6.24568e-16 -0 -1.83674e-17 -0 -5.3877e-17)
(-2.61382e-16 3.97925e-16 -0 3.06936e-16 -0 -4.55542e-17)
(2.6646e-16 1.38688e-16 -0 -3.4285e-16 -0 7.63899e-17)
(3.96065e-17 -5.00728e-16 -0 -8.15869e-18 -0 -3.14478e-17)
(-2.87611e-16 1.48674e-16 -0 3.46959e-16 -0 -5.93487e-17)
(1.30571e-16 3.84258e-16 -0 -1.93639e-16 -0 6.30689e-17)
(-4.65208e-20 2.54417e-20 -0 9.30416e-20 -0 -4.65208e-20)
(-1.28665e-18 -3.04567e-19 -0 7.96943e-19 -0 4.89707e-19)
(-1.66742e-20 -5.89029e-19 -0 3.33484e-20 -0 -1.66742e-20)
(6.42538e-19 -6.75662e-19 -0 -3.96897e-19 -0 -2.45641e-19)
(3.96824e-20 -1.54658e-20 -0 -7.93648e-20 -0 3.96824e-20)
(6.84784e-19 -4.37568e-19 -0 -4.8139e-19 -0 -2.03394e-19)
(1.2567e-18 2.69474e-19 -0 -7.37042e-19 -0 -5.19657e-19)
(-7.55729e-20 5.39303e-19 -0 1.51146e-19 -0 -7.55729e-20)
(5.0137e-19 -4.55014e-19 -0 -1.14562e-19 -0 -3.86808e-19)
(-6.18398e-21 -5.18928e-21 -0 1.2368e-20 -0 -6.18398e-21)
(4.78575e-20 -4.92118e-19 -0 -9.5715e-20 -0 4.78575e-20)
(6.15104e-19 1.09052e-20 -0 -3.4203e-19 -0 -2.73074e-19)
(-2.27342e-20 1.87893e-19 -0 4.54683e-20 -0 -2.27342e-20)
(3.94574e-20 -1.255e-19 -0 -7.89149e-20 -0 3.94574e-20)
(3.92251e-20 1.53587e-19 -0 -7.84501e-20 -0 3.92251e-20)
(-1.21055e-20 1.09851e-19 -0 2.4211e-20 -0 -1.21055e-20)
(1.24155e-20 8.09544e-20 -0 -2.4831e-20 -0 1.24155e-20)
(-6.35728e-21 1.84344e-19 -0 1.27146e-20 -0 -6.35728e-21)
(-4.54998e-20 4.28107e-20 -0 9.09996e-20 -0 -4.54998e-20)
(7.64072e-21 -8.86551e-20 -0 -1.52814e-20 -0 7.64072e-21)
(4.01239e-16 -7.70437e-17 -0 -7.91636e-16 -0 3.90397e-16)
(-9.98885e-17 1.21535e-16 -0 1.76467e-16 -0 -7.65782e-17)
(2.48778e-17 -3.60508e-17 -0 -4.27083e-17 -0 1.78305e-17)
(-3.24643e-18 2.12807e-18 -0 7.03496e-18 -0 -3.78853e-18)
(2.20093e-18 -5.87261e-18 -0 -3.31767e-18 -0 1.11673e-18)
(9.32898e-19 -2.20505e-18 -0 -7.81593e-19 -0 -1.51305e-19)
(6.14252e-19 -2.66994e-18 -0 -6.86402e-19 -0 7.21506e-20)
(2.24506e-19 -2.27071e-18 -0 -4.49012e-19 -0 2.24506e-19)
(1.1097e-18 -1.84667e-18 -0 -1.13519e-18 -0 2.54942e-20)
(7.73418e-19 -4.18609e-19 -0 -1.00474e-18 -0 2.31317e-19)
(3.18947e-19 -4.43228e-19 -0 -6.37895e-19 -0 3.18947e-19)
(4.09721e-19 -9.04812e-19 -0 -8.19442e-19 -0 4.09721e-19)
(1.4475e-18 1.52471e-19 -0 -1.26871e-18 -0 -1.78798e-19)
(3.64531e-19 1.13159e-18 -0 -1.86962e-19 -0 -1.7757e-19)
(-2.85782e-19 1.91876e-18 -0 5.71564e-19 -0 -2.85782e-19)
(-7.38016e-19 7.91996e-19 -0 9.33931e-19 -0 -1.95915e-19)
(-7.52098e-19 -1.93186e-19 -0 4.19993e-19 -0 3.32104e-19)
(1.38548e-19 8.77629e-19 -0 -2.77095e-19 -0 1.38548e-19)
(-1.16343e-21 -3.98494e-19 -0 2.32686e-21 -0 -1.16343e-21)
(1.69611e-20 5.92413e-21 -0 -3.39222e-20 -0 1.69611e-20)
)
;
    }
    frontAndBack
    {
        type            empty;
    }
}


// ************************************************************************* //
