/*--------------------------------*- C++ -*----------------------------------*\
| =========                 |                                                 |
| \\      /  F ield         | OpenFOAM: The Open Source CFD Toolbox           |
|  \\    /   O peration     | Version:  2312                                  |
|   \\  /    A nd           | Website:  www.openfoam.com                      |
|    \\/     M anipulation  |                                                 |
\*---------------------------------------------------------------------------*/
FoamFile
{
    version     2.0;
    format      ascii;
    arch        "LSB;label=32;scalar=64";
    class       volScalarField;
    location    "6.5";
    object      turbulenceProperties:omega;
}
// * * * * * * * * * * * * * * * * * * * * * * * * * * * * * * * * * * * * * //

dimensions      [0 0 -1 0 0 0 0];

internalField   nonuniform List<scalar> 
400
(
4.73538
4.73537
4.73538
4.73537
4.73537
4.73537
4.73537
4.73537
4.73537
4.73537
4.73536
4.73536
4.73536
4.73536
4.73536
4.73536
4.73536
4.73536
4.73536
4.73536
4.82861
4.75107
4.75781
4.76057
4.7661
4.76897
4.77447
4.77743
4.78292
4.78596
4.79142
4.79455
4.79999
4.80322
4.80863
4.81193
4.81735
4.82071
4.82344
4.82784
4.96138
4.87824
4.88557
4.88859
4.89459
4.89768
4.90364
4.90683
4.91273
4.916
4.92184
4.92521
4.931
4.93444
4.94021
4.9437
4.94946
4.95298
4.95588
4.96052
5.0835
4.99615
5.00388
5.00702
5.01332
5.01659
5.02284
5.02618
5.03238
5.03581
5.04197
5.04548
5.05159
5.05518
5.06126
5.0649
5.07098
5.07466
5.07771
5.08259
5.17356
5.08295
5.09092
5.09422
5.10074
5.10414
5.11061
5.11408
5.12051
5.12408
5.13044
5.13411
5.14041
5.14416
5.15045
5.15425
5.16053
5.16436
5.16753
5.17259
5.23206
5.13928
5.14747
5.15081
5.1575
5.16096
5.1676
5.17115
5.17774
5.18137
5.18792
5.19164
5.19813
5.20195
5.20839
5.21228
5.21871
5.22264
5.22588
5.23106
5.26768
5.17357
5.18184
5.18526
5.19203
5.19556
5.20228
5.20589
5.21256
5.21627
5.22287
5.22668
5.23323
5.23713
5.24365
5.2476
5.25413
5.25811
5.26139
5.26665
5.28915
5.19423
5.2026
5.20603
5.21286
5.21642
5.22318
5.22684
5.23355
5.2373
5.24395
5.2478
5.25441
5.25833
5.26492
5.2689
5.27548
5.2795
5.28281
5.28812
5.30283
5.2074
5.21582
5.21925
5.22613
5.22969
5.23652
5.24016
5.24695
5.25068
5.25741
5.26124
5.26791
5.27184
5.27847
5.28247
5.28909
5.29313
5.29646
5.30179
5.31263
5.21684
5.22528
5.22875
5.23563
5.23924
5.24604
5.24975
5.25651
5.26031
5.26701
5.2709
5.27756
5.28153
5.28817
5.29219
5.29883
5.30289
5.30623
5.31158
5.32079
5.2247
5.23314
5.23663
5.24357
5.24713
5.25402
5.25768
5.2645
5.26828
5.27503
5.27892
5.2856
5.28959
5.29624
5.30028
5.30693
5.31101
5.31436
5.31973
5.32852
5.23215
5.24061
5.24412
5.25105
5.25467
5.26154
5.26524
5.27206
5.27587
5.28262
5.28653
5.29323
5.29722
5.3039
5.30795
5.31463
5.31871
5.32207
5.32746
5.33653
5.23986
5.24839
5.25188
5.25883
5.26245
5.26934
5.27306
5.2799
5.28371
5.2905
5.2944
5.30115
5.30513
5.31185
5.31589
5.3226
5.32669
5.33007
5.33547
5.34526
5.24828
5.25679
5.26032
5.26729
5.27093
5.27784
5.28158
5.28844
5.29226
5.29907
5.303
5.30974
5.31376
5.32048
5.32455
5.33127
5.33538
5.33876
5.34418
5.35492
5.2576
5.26616
5.26969
5.27668
5.28034
5.28726
5.29102
5.29789
5.30175
5.30856
5.31251
5.31928
5.32331
5.33006
5.33415
5.34089
5.34502
5.34841
5.35385
5.36558
5.26785
5.27647
5.27999
5.28704
5.29068
5.29768
5.3014
5.30835
5.31217
5.31905
5.32299
5.3298
5.33384
5.34061
5.34472
5.35149
5.35563
5.35904
5.3645
5.37684
5.27872
5.28734
5.2909
5.29798
5.30162
5.30865
5.31239
5.31937
5.32321
5.33011
5.33407
5.3409
5.34497
5.35176
5.35589
5.36268
5.36685
5.37027
5.37575
5.38773
5.28924
5.29787
5.30146
5.30855
5.31222
5.31926
5.32303
5.33
5.33389
5.34079
5.34479
5.35163
5.35572
5.36253
5.36669
5.3735
5.37768
5.38112
5.38662
5.39657
5.29972
5.30805
5.31153
5.31839
5.32199
5.32881
5.33255
5.33931
5.3432
5.3499
5.35394
5.3606
5.36474
5.37141
5.37563
5.38232
5.3866
5.38999
5.39549
5.40057
5.40055
5.40057
5.40055
5.40056
5.40055
5.40056
5.40055
5.40055
5.40055
5.40055
5.40055
5.40055
5.40055
5.40055
5.40055
5.40055
5.40055
5.40055
5.40055
)
;

boundaryField
{
    movingWall
    {
        type            calculated;
        value           nonuniform List<scalar> 
20
(
5.40057
5.40055
5.40057
5.40055
5.40056
5.40055
5.40056
5.40055
5.40055
5.40055
5.40055
5.40055
5.40055
5.40055
5.40055
5.40055
5.40055
5.40055
5.40055
5.40055
)
;
    }
    fixedWalls
    {
        type            calculated;
        value           nonuniform List<scalar> 
60
(
4.73538
4.82861
4.96138
5.0835
5.17356
5.23206
5.26768
5.28915
5.30283
5.31263
5.32079
5.32852
5.33653
5.34526
5.35492
5.36558
5.37684
5.38773
5.39657
5.40057
4.73536
4.82784
4.96052
5.08259
5.17259
5.23106
5.26665
5.28812
5.30179
5.31158
5.31973
5.32746
5.33547
5.34418
5.35385
5.3645
5.37575
5.38662
5.39549
5.40055
4.73538
4.73537
4.73538
4.73537
4.73537
4.73537
4.73537
4.73537
4.73537
4.73537
4.73536
4.73536
4.73536
4.73536
4.73536
4.73536
4.73536
4.73536
4.73536
4.73536
)
;
    }
    frontAndBack
    {
        type            empty;
    }
}


// ************************************************************************* //
