/*--------------------------------*- C++ -*----------------------------------*\
| =========                 |                                                 |
| \\      /  F ield         | OpenFOAM: The Open Source CFD Toolbox           |
|  \\    /   O peration     | Version:  2312                                  |
|   \\  /    A nd           | Website:  www.openfoam.com                      |
|    \\/     M anipulation  |                                                 |
\*---------------------------------------------------------------------------*/
FoamFile
{
    version     2.0;
    format      ascii;
    arch        "LSB;label=32;scalar=64";
    class       volSymmTensorField;
    location    "6.5";
    object      turbulenceProperties:R;
}
// * * * * * * * * * * * * * * * * * * * * * * * * * * * * * * * * * * * * * //

dimensions      [0 2 -2 0 0 0 0];

internalField   nonuniform List<symmTensor> 
400
(
(4.68313e-06 -1.95182e-17 -0 4.68313e-06 -0 4.68313e-06)
(4.68312e-06 2.12785e-17 -0 4.68312e-06 -0 4.68312e-06)
(4.68312e-06 -4.65237e-18 -0 4.68312e-06 -0 4.68312e-06)
(4.68312e-06 9.59932e-19 -0 4.68312e-06 -0 4.68312e-06)
(4.68312e-06 -3.73224e-19 -0 4.68312e-06 -0 4.68312e-06)
(4.68311e-06 2.79526e-20 -0 4.68311e-06 -0 4.68311e-06)
(4.68311e-06 -4.10105e-20 -0 4.68311e-06 -0 4.68311e-06)
(4.68311e-06 -4.76657e-20 -0 4.68311e-06 -0 4.68311e-06)
(4.68311e-06 -5.064e-20 -0 4.68311e-06 -0 4.68311e-06)
(4.68311e-06 3.77988e-21 -0 4.68311e-06 -0 4.68311e-06)
(4.6831e-06 1.2775e-22 -0 4.6831e-06 -0 4.6831e-06)
(4.6831e-06 -2.46746e-21 -0 4.6831e-06 -0 4.6831e-06)
(4.6831e-06 2.26183e-20 -0 4.6831e-06 -0 4.6831e-06)
(4.6831e-06 3.61081e-20 -0 4.6831e-06 -0 4.6831e-06)
(4.6831e-06 1.01543e-19 -0 4.6831e-06 -0 4.6831e-06)
(4.6831e-06 6.61496e-20 -0 4.6831e-06 -0 4.6831e-06)
(4.6831e-06 5.17596e-20 -0 4.6831e-06 -0 4.6831e-06)
(4.6831e-06 1.19062e-19 -0 4.6831e-06 -0 4.6831e-06)
(4.6831e-06 8.71815e-20 -0 4.6831e-06 -0 4.6831e-06)
(4.6831e-06 8.78813e-22 -0 4.6831e-06 -0 4.6831e-06)
(4.86804e-06 -6.86771e-19 -0 4.86804e-06 -0 4.86804e-06)
(4.86804e-06 1.3719e-18 -0 4.86804e-06 -0 4.86804e-06)
(4.86775e-06 6.70711e-20 -0 4.86775e-06 -0 4.86775e-06)
(4.86767e-06 2.75095e-19 -0 4.86767e-06 -0 4.86767e-06)
(4.86748e-06 2.07135e-19 -0 4.86748e-06 -0 4.86748e-06)
(4.86739e-06 1.83169e-19 -0 4.86739e-06 -0 4.86739e-06)
(4.86723e-06 1.79867e-19 -0 4.86723e-06 -0 4.86723e-06)
(4.86715e-06 1.35616e-19 -0 4.86715e-06 -0 4.86715e-06)
(4.86701e-06 1.32465e-19 -0 4.86701e-06 -0 4.86701e-06)
(4.86695e-06 8.15848e-20 -0 4.86695e-06 -0 4.86695e-06)
(4.86682e-06 5.89109e-20 -0 4.86682e-06 -0 4.86682e-06)
(4.86679e-06 4.90675e-20 -0 4.86679e-06 -0 4.86679e-06)
(4.86669e-06 7.32447e-21 -0 4.86669e-06 -0 4.86669e-06)
(4.86665e-06 1.0011e-20 -0 4.86665e-06 -0 4.86665e-06)
(4.86659e-06 -8.45765e-20 -0 4.86659e-06 -0 4.86659e-06)
(4.86656e-06 -1.10935e-20 -0 4.86656e-06 -0 4.86656e-06)
(4.86652e-06 -1.70593e-20 -0 4.86652e-06 -0 4.86652e-06)
(4.86651e-06 -1.30285e-20 -0 4.86651e-06 -0 4.86651e-06)
(4.86649e-06 -6.97597e-20 -0 4.86649e-06 -0 4.86649e-06)
(4.86649e-06 -3.58903e-20 -0 4.86649e-06 -0 4.86649e-06)
(5.13777e-06 2.36706e-17 -0 5.13777e-06 -0 5.13777e-06)
(5.13777e-06 -2.23666e-17 -0 5.13777e-06 -0 5.13777e-06)
(5.13745e-06 4.73104e-18 -0 5.13745e-06 -0 5.13745e-06)
(5.13735e-06 -1.05495e-18 -0 5.13735e-06 -0 5.13735e-06)
(5.13712e-06 4.0755e-19 -0 5.13712e-06 -0 5.13712e-06)
(5.13703e-06 1.57657e-20 -0 5.13703e-06 -0 5.13703e-06)
(5.13684e-06 8.90012e-20 -0 5.13684e-06 -0 5.13684e-06)
(5.13675e-06 4.23003e-20 -0 5.13675e-06 -0 5.13675e-06)
(5.1366e-06 6.6613e-20 -0 5.1366e-06 -0 5.1366e-06)
(5.13651e-06 7.18343e-20 -0 5.13651e-06 -0 5.13651e-06)
(5.1364e-06 4.8178e-20 -0 5.1364e-06 -0 5.1364e-06)
(5.13632e-06 2.95054e-20 -0 5.13632e-06 -0 5.13632e-06)
(5.13625e-06 5.37696e-20 -0 5.13625e-06 -0 5.13625e-06)
(5.13618e-06 1.4648e-19 -0 5.13618e-06 -0 5.13618e-06)
(5.13613e-06 6.0199e-20 -0 5.13613e-06 -0 5.13613e-06)
(5.13609e-06 2.75225e-20 -0 5.13609e-06 -0 5.13609e-06)
(5.13605e-06 -5.76641e-20 -0 5.13605e-06 -0 5.13605e-06)
(5.13603e-06 -1.33957e-19 -0 5.13603e-06 -0 5.13603e-06)
(5.13602e-06 -7.84936e-20 -0 5.13602e-06 -0 5.13602e-06)
(5.13601e-06 -5.61868e-20 -0 5.13601e-06 -0 5.13601e-06)
(5.39262e-06 -2.028e-17 -0 5.39262e-06 -0 5.39262e-06)
(5.39263e-06 1.87825e-17 -0 5.39263e-06 -0 5.39263e-06)
(5.39224e-06 -4.13323e-18 -0 5.39224e-06 -0 5.39224e-06)
(5.39216e-06 8.7717e-19 -0 5.39216e-06 -0 5.39216e-06)
(5.39191e-06 -3.89127e-19 -0 5.39191e-06 -0 5.39191e-06)
(5.3918e-06 5.5889e-20 -0 5.3918e-06 -0 5.3918e-06)
(5.3916e-06 -2.36939e-20 -0 5.3916e-06 -0 5.3916e-06)
(5.3915e-06 1.25118e-19 -0 5.3915e-06 -0 5.3915e-06)
(5.39133e-06 6.16515e-20 -0 5.39133e-06 -0 5.39133e-06)
(5.39125e-06 1.74686e-20 -0 5.39125e-06 -0 5.39125e-06)
(5.3911e-06 1.10928e-19 -0 5.3911e-06 -0 5.3911e-06)
(5.39104e-06 1.63674e-20 -0 5.39104e-06 -0 5.39104e-06)
(5.39092e-06 5.25575e-20 -0 5.39092e-06 -0 5.39092e-06)
(5.39089e-06 5.17486e-21 -0 5.39089e-06 -0 5.39089e-06)
(5.3908e-06 -7.88083e-20 -0 5.3908e-06 -0 5.3908e-06)
(5.39077e-06 -1.23859e-19 -0 5.39077e-06 -0 5.39077e-06)
(5.39072e-06 -8.03995e-20 -0 5.39072e-06 -0 5.39072e-06)
(5.39071e-06 6.23127e-21 -0 5.39071e-06 -0 5.39071e-06)
(5.39069e-06 8.38258e-20 -0 5.39069e-06 -0 5.39069e-06)
(5.39068e-06 -7.84131e-20 -0 5.39068e-06 -0 5.39068e-06)
(5.58468e-06 1.25604e-18 -0 5.58468e-06 -0 5.58468e-06)
(5.58467e-06 -1.98827e-18 -0 5.58467e-06 -0 5.58467e-06)
(5.58431e-06 1.6717e-19 -0 5.58431e-06 -0 5.58431e-06)
(5.58418e-06 -4.00702e-19 -0 5.58418e-06 -0 5.58418e-06)
(5.58392e-06 -2.0178e-19 -0 5.58392e-06 -0 5.58392e-06)
(5.58378e-06 -2.78746e-19 -0 5.58378e-06 -0 5.58378e-06)
(5.58358e-06 -2.88461e-19 -0 5.58358e-06 -0 5.58358e-06)
(5.58346e-06 -3.22873e-19 -0 5.58346e-06 -0 5.58346e-06)
(5.58329e-06 -2.30683e-19 -0 5.58329e-06 -0 5.58329e-06)
(5.58319e-06 -1.35547e-19 -0 5.58319e-06 -0 5.58319e-06)
(5.58306e-06 -2.58448e-19 -0 5.58306e-06 -0 5.58306e-06)
(5.58297e-06 -1.92149e-19 -0 5.58297e-06 -0 5.58297e-06)
(5.58287e-06 -1.74328e-19 -0 5.58287e-06 -0 5.58287e-06)
(5.5828e-06 -2.35195e-19 -0 5.5828e-06 -0 5.5828e-06)
(5.58273e-06 -2.3454e-20 -0 5.58273e-06 -0 5.58273e-06)
(5.58269e-06 -4.6689e-20 -0 5.58269e-06 -0 5.58269e-06)
(5.58264e-06 1.59357e-20 -0 5.58264e-06 -0 5.58264e-06)
(5.58262e-06 4.25284e-20 -0 5.58262e-06 -0 5.58262e-06)
(5.5826e-06 7.20028e-21 -0 5.5826e-06 -0 5.5826e-06)
(5.5826e-06 2.31847e-20 -0 5.5826e-06 -0 5.5826e-06)
(5.71138e-06 1.77436e-17 -0 5.71138e-06 -0 5.71138e-06)
(5.71139e-06 -1.5877e-17 -0 5.71139e-06 -0 5.71139e-06)
(5.71097e-06 3.43961e-18 -0 5.71097e-06 -0 5.71097e-06)
(5.71086e-06 -7.59878e-19 -0 5.71086e-06 -0 5.71086e-06)
(5.71058e-06 2.24677e-19 -0 5.71058e-06 -0 5.71058e-06)
(5.71046e-06 -4.90855e-20 -0 5.71046e-06 -0 5.71046e-06)
(5.71023e-06 4.37734e-20 -0 5.71023e-06 -0 5.71023e-06)
(5.71012e-06 -2.42352e-20 -0 5.71012e-06 -0 5.71012e-06)
(5.70992e-06 -7.66632e-20 -0 5.70992e-06 -0 5.70992e-06)
(5.70984e-06 -1.27253e-19 -0 5.70984e-06 -0 5.70984e-06)
(5.70966e-06 -9.4451e-20 -0 5.70966e-06 -0 5.70966e-06)
(5.70961e-06 8.46008e-21 -0 5.70961e-06 -0 5.70961e-06)
(5.70948e-06 -5.62625e-20 -0 5.70948e-06 -0 5.70948e-06)
(5.70943e-06 2.10267e-20 -0 5.70943e-06 -0 5.70943e-06)
(5.70934e-06 -8.85745e-21 -0 5.70934e-06 -0 5.70934e-06)
(5.7093e-06 4.59541e-20 -0 5.7093e-06 -0 5.7093e-06)
(5.70925e-06 3.17623e-20 -0 5.70925e-06 -0 5.70925e-06)
(5.70923e-06 3.09243e-20 -0 5.70923e-06 -0 5.70923e-06)
(5.70921e-06 4.91084e-21 -0 5.70921e-06 -0 5.70921e-06)
(5.7092e-06 -5.43966e-20 -0 5.7092e-06 -0 5.7092e-06)
(5.78925e-06 -2.1185e-17 -0 5.78925e-06 -0 5.78925e-06)
(5.78924e-06 2.03428e-17 -0 5.78924e-06 -0 5.78924e-06)
(5.78885e-06 -4.11479e-18 -0 5.78885e-06 -0 5.78885e-06)
(5.78871e-06 1.15042e-18 -0 5.78871e-06 -0 5.78871e-06)
(5.78844e-06 -1.11385e-19 -0 5.78844e-06 -0 5.78844e-06)
(5.78829e-06 1.53001e-19 -0 5.78829e-06 -0 5.78829e-06)
(5.78807e-06 1.88008e-19 -0 5.78807e-06 -0 5.78807e-06)
(5.78794e-06 2.14955e-19 -0 5.78794e-06 -0 5.78794e-06)
(5.78776e-06 2.21776e-19 -0 5.78776e-06 -0 5.78776e-06)
(5.78765e-06 3.11947e-19 -0 5.78765e-06 -0 5.78765e-06)
(5.7875e-06 2.3851e-19 -0 5.7875e-06 -0 5.7875e-06)
(5.78741e-06 1.68175e-19 -0 5.78741e-06 -0 5.78741e-06)
(5.7873e-06 2.26941e-19 -0 5.7873e-06 -0 5.7873e-06)
(5.78723e-06 2.05604e-19 -0 5.78723e-06 -0 5.78723e-06)
(5.78715e-06 1.12615e-19 -0 5.78715e-06 -0 5.78715e-06)
(5.7871e-06 8.16553e-22 -0 5.7871e-06 -0 5.7871e-06)
(5.78705e-06 7.64714e-20 -0 5.78705e-06 -0 5.78705e-06)
(5.78703e-06 -1.97922e-20 -0 5.78703e-06 -0 5.78703e-06)
(5.78701e-06 -1.27852e-20 -0 5.78701e-06 -0 5.78701e-06)
(5.78701e-06 1.82974e-20 -0 5.78701e-06 -0 5.78701e-06)
(5.83648e-06 2.97812e-18 -0 5.83648e-06 -0 5.83648e-06)
(5.83649e-06 -4.17019e-18 -0 5.83649e-06 -0 5.83649e-06)
(5.83605e-06 5.31854e-19 -0 5.83605e-06 -0 5.83605e-06)
(5.83593e-06 -3.83854e-19 -0 5.83593e-06 -0 5.83593e-06)
(5.83566e-06 -9.35495e-20 -0 5.83566e-06 -0 5.83566e-06)
(5.8355e-06 -8.09572e-20 -0 5.8355e-06 -0 5.8355e-06)
(5.83529e-06 -8.28865e-20 -0 5.83529e-06 -0 5.83529e-06)
(5.83514e-06 5.97061e-21 -0 5.83514e-06 -0 5.83514e-06)
(5.83497e-06 3.68731e-21 -0 5.83497e-06 -0 5.83497e-06)
(5.83485e-06 -9.00476e-20 -0 5.83485e-06 -0 5.83485e-06)
(5.83471e-06 4.3479e-21 -0 5.83471e-06 -0 5.83471e-06)
(5.83461e-06 6.40488e-21 -0 5.83461e-06 -0 5.83461e-06)
(5.8345e-06 1.56311e-20 -0 5.8345e-06 -0 5.8345e-06)
(5.83443e-06 -8.56777e-20 -0 5.83443e-06 -0 5.83443e-06)
(5.83434e-06 -3.37672e-20 -0 5.83434e-06 -0 5.83434e-06)
(5.8343e-06 4.91607e-20 -0 5.8343e-06 -0 5.8343e-06)
(5.83425e-06 2.38964e-21 -0 5.83425e-06 -0 5.83425e-06)
(5.83422e-06 4.68897e-21 -0 5.83422e-06 -0 5.83422e-06)
(5.83421e-06 -1.90267e-20 -0 5.83421e-06 -0 5.83421e-06)
(5.8342e-06 5.99692e-20 -0 5.8342e-06 -0 5.8342e-06)
(5.86666e-06 1.20466e-17 -0 5.86666e-06 -0 5.86666e-06)
(5.86668e-06 -1.19419e-17 -0 5.86668e-06 -0 5.86668e-06)
(5.86623e-06 2.4092e-18 -0 5.86623e-06 -0 5.86623e-06)
(5.86612e-06 -6.7421e-19 -0 5.86612e-06 -0 5.86612e-06)
(5.86582e-06 1.62542e-20 -0 5.86582e-06 -0 5.86582e-06)
(5.86569e-06 -6.63295e-20 -0 5.86569e-06 -0 5.86569e-06)
(5.86544e-06 -4.90085e-20 -0 5.86544e-06 -0 5.86544e-06)
(5.86534e-06 -1.13175e-19 -0 5.86534e-06 -0 5.86534e-06)
(5.86511e-06 -1.35341e-19 -0 5.86511e-06 -0 5.86511e-06)
(5.86504e-06 -1.3534e-19 -0 5.86504e-06 -0 5.86504e-06)
(5.86485e-06 -1.15429e-19 -0 5.86485e-06 -0 5.86485e-06)
(5.86479e-06 -1.41566e-19 -0 5.86479e-06 -0 5.86479e-06)
(5.86465e-06 -1.57065e-19 -0 5.86465e-06 -0 5.86465e-06)
(5.8646e-06 -7.87167e-20 -0 5.8646e-06 -0 5.8646e-06)
(5.8645e-06 -7.08184e-20 -0 5.8645e-06 -0 5.8645e-06)
(5.86446e-06 -8.81405e-20 -0 5.86446e-06 -0 5.86446e-06)
(5.8644e-06 -7.01551e-20 -0 5.8644e-06 -0 5.8644e-06)
(5.86439e-06 1.28817e-20 -0 5.86439e-06 -0 5.86439e-06)
(5.86436e-06 -8.78712e-21 -0 5.86436e-06 -0 5.86436e-06)
(5.86436e-06 -6.98145e-20 -0 5.86436e-06 -0 5.86436e-06)
(5.88833e-06 -1.21166e-17 -0 5.88833e-06 -0 5.88833e-06)
(5.88833e-06 1.57576e-17 -0 5.88833e-06 -0 5.88833e-06)
(5.8879e-06 -3.04539e-18 -0 5.8879e-06 -0 5.8879e-06)
(5.88776e-06 7.78877e-19 -0 5.88776e-06 -0 5.88776e-06)
(5.88749e-06 -1.36148e-19 -0 5.88749e-06 -0 5.88749e-06)
(5.88732e-06 1.37653e-20 -0 5.88732e-06 -0 5.88732e-06)
(5.88712e-06 -6.1115e-20 -0 5.88712e-06 -0 5.88712e-06)
(5.88696e-06 -8.5807e-20 -0 5.88696e-06 -0 5.88696e-06)
(5.8868e-06 1.79867e-20 -0 5.8868e-06 -0 5.8868e-06)
(5.88666e-06 -4.42804e-21 -0 5.88666e-06 -0 5.88666e-06)
(5.88653e-06 -5.68193e-20 -0 5.88653e-06 -0 5.88653e-06)
(5.88642e-06 -4.61676e-20 -0 5.88642e-06 -0 5.88642e-06)
(5.88631e-06 -7.13841e-20 -0 5.88631e-06 -0 5.88631e-06)
(5.88623e-06 -6.93489e-20 -0 5.88623e-06 -0 5.88623e-06)
(5.88615e-06 -3.97867e-20 -0 5.88615e-06 -0 5.88615e-06)
(5.8861e-06 -7.63146e-20 -0 5.8861e-06 -0 5.8861e-06)
(5.88605e-06 -5.90726e-20 -0 5.88605e-06 -0 5.88605e-06)
(5.88603e-06 -5.06958e-21 -0 5.88603e-06 -0 5.88603e-06)
(5.88601e-06 1.43098e-20 -0 5.88601e-06 -0 5.88601e-06)
(5.886e-06 2.75614e-20 -0 5.886e-06 -0 5.886e-06)
(5.90636e-06 8.9039e-18 -0 5.90636e-06 -0 5.90636e-06)
(5.90636e-06 -1.39583e-17 -0 5.90636e-06 -0 5.90636e-06)
(5.90595e-06 2.90072e-18 -0 5.90595e-06 -0 5.90595e-06)
(5.9058e-06 -4.78498e-19 -0 5.9058e-06 -0 5.9058e-06)
(5.9055e-06 2.52695e-19 -0 5.9055e-06 -0 5.9055e-06)
(5.90538e-06 1.5879e-20 -0 5.90538e-06 -0 5.90538e-06)
(5.90511e-06 9.73629e-21 -0 5.90511e-06 -0 5.90511e-06)
(5.90502e-06 4.71794e-20 -0 5.90502e-06 -0 5.90502e-06)
(5.9048e-06 2.8066e-20 -0 5.9048e-06 -0 5.9048e-06)
(5.9047e-06 4.68262e-20 -0 5.9047e-06 -0 5.9047e-06)
(5.90454e-06 7.46299e-20 -0 5.90454e-06 -0 5.90454e-06)
(5.90445e-06 3.84823e-20 -0 5.90445e-06 -0 5.90445e-06)
(5.90434e-06 5.25688e-20 -0 5.90434e-06 -0 5.90434e-06)
(5.90426e-06 1.2912e-19 -0 5.90426e-06 -0 5.90426e-06)
(5.90418e-06 1.57408e-19 -0 5.90418e-06 -0 5.90418e-06)
(5.90412e-06 1.94479e-19 -0 5.90412e-06 -0 5.90412e-06)
(5.90408e-06 4.683e-20 -0 5.90408e-06 -0 5.90408e-06)
(5.90405e-06 3.49742e-21 -0 5.90405e-06 -0 5.90405e-06)
(5.90403e-06 -1.90308e-20 -0 5.90403e-06 -0 5.90403e-06)
(5.90403e-06 -4.86487e-20 -0 5.90403e-06 -0 5.90403e-06)
(5.92349e-06 -1.01009e-17 -0 5.92349e-06 -0 5.92349e-06)
(5.92349e-06 1.30362e-17 -0 5.92349e-06 -0 5.92349e-06)
(5.92308e-06 -2.51486e-18 -0 5.92308e-06 -0 5.92308e-06)
(5.92293e-06 8.20402e-19 -0 5.92293e-06 -0 5.92293e-06)
(5.92265e-06 -3.07704e-20 -0 5.92265e-06 -0 5.92265e-06)
(5.92249e-06 1.9609e-19 -0 5.92249e-06 -0 5.92249e-06)
(5.92226e-06 1.45673e-19 -0 5.92226e-06 -0 5.92226e-06)
(5.92212e-06 1.65474e-19 -0 5.92212e-06 -0 5.92212e-06)
(5.92193e-06 1.79559e-19 -0 5.92193e-06 -0 5.92193e-06)
(5.92181e-06 2.09281e-19 -0 5.92181e-06 -0 5.92181e-06)
(5.92166e-06 2.14336e-19 -0 5.92166e-06 -0 5.92166e-06)
(5.92156e-06 1.33242e-19 -0 5.92156e-06 -0 5.92156e-06)
(5.92146e-06 1.10879e-19 -0 5.92146e-06 -0 5.92146e-06)
(5.92137e-06 1.14546e-19 -0 5.92137e-06 -0 5.92137e-06)
(5.9213e-06 4.47401e-20 -0 5.9213e-06 -0 5.9213e-06)
(5.92124e-06 1.96775e-20 -0 5.92124e-06 -0 5.92124e-06)
(5.92119e-06 9.78375e-20 -0 5.92119e-06 -0 5.92119e-06)
(5.92117e-06 7.59525e-20 -0 5.92117e-06 -0 5.92117e-06)
(5.92115e-06 3.77777e-21 -0 5.92115e-06 -0 5.92115e-06)
(5.92114e-06 1.26323e-20 -0 5.92114e-06 -0 5.92114e-06)
(5.94127e-06 4.90946e-18 -0 5.94127e-06 -0 5.94127e-06)
(5.94128e-06 -3.95795e-18 -0 5.94128e-06 -0 5.94128e-06)
(5.94082e-06 6.96359e-19 -0 5.94082e-06 -0 5.94082e-06)
(5.9407e-06 -2.89205e-19 -0 5.9407e-06 -0 5.9407e-06)
(5.94041e-06 5.37635e-20 -0 5.94041e-06 -0 5.94041e-06)
(5.94026e-06 -2.56864e-20 -0 5.94026e-06 -0 5.94026e-06)
(5.94003e-06 3.42772e-21 -0 5.94003e-06 -0 5.94003e-06)
(5.93989e-06 -4.49018e-20 -0 5.93989e-06 -0 5.93989e-06)
(5.9397e-06 1.18282e-20 -0 5.9397e-06 -0 5.9397e-06)
(5.93959e-06 -7.23402e-20 -0 5.93959e-06 -0 5.93959e-06)
(5.93942e-06 -9.1949e-20 -0 5.93942e-06 -0 5.93942e-06)
(5.93934e-06 -7.17146e-20 -0 5.93934e-06 -0 5.93934e-06)
(5.9392e-06 -3.56783e-20 -0 5.9392e-06 -0 5.9392e-06)
(5.93915e-06 -1.2442e-19 -0 5.93915e-06 -0 5.93915e-06)
(5.93904e-06 -4.75035e-20 -0 5.93904e-06 -0 5.93904e-06)
(5.93901e-06 -1.4675e-19 -0 5.93901e-06 -0 5.93901e-06)
(5.93895e-06 -7.70216e-20 -0 5.93895e-06 -0 5.93895e-06)
(5.93893e-06 -7.94129e-20 -0 5.93893e-06 -0 5.93893e-06)
(5.93891e-06 -2.13529e-20 -0 5.93891e-06 -0 5.93891e-06)
(5.9389e-06 2.13366e-20 -0 5.9389e-06 -0 5.9389e-06)
(5.96063e-06 1.11401e-17 -0 5.96063e-06 -0 5.96063e-06)
(5.96063e-06 -1.3371e-17 -0 5.96063e-06 -0 5.96063e-06)
(5.96021e-06 2.73463e-18 -0 5.96021e-06 -0 5.96021e-06)
(5.96006e-06 -6.34593e-19 -0 5.96006e-06 -0 5.96006e-06)
(5.95977e-06 1.65748e-19 -0 5.95977e-06 -0 5.95977e-06)
(5.95961e-06 -1.89091e-20 -0 5.95961e-06 -0 5.95961e-06)
(5.95939e-06 8.29014e-20 -0 5.95939e-06 -0 5.95939e-06)
(5.95924e-06 1.06254e-19 -0 5.95924e-06 -0 5.95924e-06)
(5.95905e-06 -1.237e-20 -0 5.95905e-06 -0 5.95905e-06)
(5.95893e-06 1.143e-21 -0 5.95893e-06 -0 5.95893e-06)
(5.95877e-06 4.89841e-22 -0 5.95877e-06 -0 5.95877e-06)
(5.95868e-06 9.75363e-20 -0 5.95868e-06 -0 5.95868e-06)
(5.95857e-06 -1.18934e-19 -0 5.95857e-06 -0 5.95857e-06)
(5.95849e-06 -1.27921e-19 -0 5.95849e-06 -0 5.95849e-06)
(5.9584e-06 -1.07408e-19 -0 5.9584e-06 -0 5.9584e-06)
(5.95835e-06 3.53024e-20 -0 5.95835e-06 -0 5.95835e-06)
(5.9583e-06 -1.46846e-20 -0 5.9583e-06 -0 5.9583e-06)
(5.95828e-06 -7.65837e-21 -0 5.95828e-06 -0 5.95828e-06)
(5.95826e-06 -6.85525e-20 -0 5.95826e-06 -0 5.95826e-06)
(5.95825e-06 -4.11239e-20 -0 5.95825e-06 -0 5.95825e-06)
(5.98215e-06 -2.34945e-17 -0 5.98215e-06 -0 5.98215e-06)
(5.98215e-06 2.57051e-17 -0 5.98215e-06 -0 5.98215e-06)
(5.98171e-06 -5.13273e-18 -0 5.98171e-06 -0 5.98171e-06)
(5.98156e-06 1.22433e-18 -0 5.98156e-06 -0 5.98156e-06)
(5.98129e-06 -2.90614e-19 -0 5.98129e-06 -0 5.98129e-06)
(5.98112e-06 1.31776e-19 -0 5.98112e-06 -0 5.98112e-06)
(5.98091e-06 -7.85033e-20 -0 5.98091e-06 -0 5.98091e-06)
(5.98074e-06 -8.87718e-20 -0 5.98074e-06 -0 5.98074e-06)
(5.98057e-06 -1.13074e-19 -0 5.98057e-06 -0 5.98057e-06)
(5.98043e-06 -9.15119e-21 -0 5.98043e-06 -0 5.98043e-06)
(5.98029e-06 -1.64379e-20 -0 5.98029e-06 -0 5.98029e-06)
(5.98018e-06 -1.08021e-19 -0 5.98018e-06 -0 5.98018e-06)
(5.98007e-06 1.84063e-20 -0 5.98007e-06 -0 5.98007e-06)
(5.97999e-06 4.92478e-20 -0 5.97999e-06 -0 5.97999e-06)
(5.9799e-06 -5.82607e-20 -0 5.9799e-06 -0 5.9799e-06)
(5.97986e-06 1.49272e-20 -0 5.97986e-06 -0 5.97986e-06)
(5.9798e-06 -4.94315e-20 -0 5.9798e-06 -0 5.9798e-06)
(5.97978e-06 3.62912e-20 -0 5.97978e-06 -0 5.97978e-06)
(5.97976e-06 2.3042e-20 -0 5.97976e-06 -0 5.97976e-06)
(5.97975e-06 -2.62185e-21 -0 5.97975e-06 -0 5.97975e-06)
(6.00589e-06 1.41818e-17 -0 6.00589e-06 -0 6.00589e-06)
(6.00591e-06 -1.65461e-17 -0 6.00591e-06 -0 6.00591e-06)
(6.00543e-06 3.07468e-18 -0 6.00543e-06 -0 6.00543e-06)
(6.00532e-06 -9.20472e-19 -0 6.00532e-06 -0 6.00532e-06)
(6.005e-06 1.92996e-20 -0 6.005e-06 -0 6.005e-06)
(6.00487e-06 -2.55559e-19 -0 6.00487e-06 -0 6.00487e-06)
(6.0046e-06 -1.61581e-19 -0 6.0046e-06 -0 6.0046e-06)
(6.00449e-06 -1.90857e-19 -0 6.00449e-06 -0 6.00449e-06)
(6.00426e-06 -1.07267e-19 -0 6.00426e-06 -0 6.00426e-06)
(6.00417e-06 -1.30294e-19 -0 6.00417e-06 -0 6.00417e-06)
(6.00399e-06 -1.31442e-19 -0 6.00399e-06 -0 6.00399e-06)
(6.00392e-06 -1.1098e-19 -0 6.00392e-06 -0 6.00392e-06)
(6.00378e-06 -5.77014e-22 -0 6.00378e-06 -0 6.00378e-06)
(6.00371e-06 -7.09945e-20 -0 6.00371e-06 -0 6.00371e-06)
(6.00362e-06 3.29367e-20 -0 6.00362e-06 -0 6.00362e-06)
(6.00357e-06 -8.78449e-20 -0 6.00357e-06 -0 6.00357e-06)
(6.00352e-06 2.04587e-20 -0 6.00352e-06 -0 6.00352e-06)
(6.0035e-06 -1.12628e-19 -0 6.0035e-06 -0 6.0035e-06)
(6.00348e-06 3.32844e-20 -0 6.00348e-06 -0 6.00348e-06)
(6.00347e-06 3.18526e-21 -0 6.00347e-06 -0 6.00347e-06)
(6.03101e-06 9.36289e-18 -0 6.03101e-06 -0 6.03101e-06)
(6.03101e-06 -5.57372e-18 -0 6.03101e-06 -0 6.03101e-06)
(6.03058e-06 1.2993e-18 -0 6.03058e-06 -0 6.03058e-06)
(6.03043e-06 -3.28344e-19 -0 6.03043e-06 -0 6.03043e-06)
(6.03011e-06 4.7035e-20 -0 6.03011e-06 -0 6.03011e-06)
(6.02999e-06 -6.38554e-20 -0 6.02999e-06 -0 6.02999e-06)
(6.02972e-06 1.1615e-20 -0 6.02972e-06 -0 6.02972e-06)
(6.02961e-06 1.29019e-20 -0 6.02961e-06 -0 6.02961e-06)
(6.02938e-06 2.79488e-20 -0 6.02938e-06 -0 6.02938e-06)
(6.02929e-06 -9.56808e-21 -0 6.02929e-06 -0 6.02929e-06)
(6.02911e-06 -3.99981e-20 -0 6.02911e-06 -0 6.02911e-06)
(6.02902e-06 3.07627e-20 -0 6.02902e-06 -0 6.02902e-06)
(6.0289e-06 -7.27814e-21 -0 6.0289e-06 -0 6.0289e-06)
(6.02882e-06 2.37442e-20 -0 6.02882e-06 -0 6.02882e-06)
(6.02874e-06 -5.46318e-21 -0 6.02874e-06 -0 6.02874e-06)
(6.02868e-06 -2.14585e-20 -0 6.02868e-06 -0 6.02868e-06)
(6.02863e-06 1.28812e-20 -0 6.02863e-06 -0 6.02863e-06)
(6.02861e-06 3.38073e-20 -0 6.02861e-06 -0 6.02861e-06)
(6.02859e-06 1.17281e-20 -0 6.02859e-06 -0 6.02859e-06)
(6.02858e-06 1.51819e-20 -0 6.02858e-06 -0 6.02858e-06)
(6.05533e-06 -2.36709e-17 -0 6.05533e-06 -0 6.05533e-06)
(6.05532e-06 2.07216e-17 -0 6.05532e-06 -0 6.05532e-06)
(6.0549e-06 -4.1358e-18 -0 6.0549e-06 -0 6.0549e-06)
(6.05474e-06 1.01757e-18 -0 6.05474e-06 -0 6.05474e-06)
(6.05442e-06 -1.69002e-19 -0 6.05442e-06 -0 6.05442e-06)
(6.05429e-06 5.57817e-20 -0 6.05429e-06 -0 6.05429e-06)
(6.05403e-06 2.32438e-20 -0 6.05403e-06 -0 6.05403e-06)
(6.0539e-06 3.55632e-20 -0 6.0539e-06 -0 6.0539e-06)
(6.0537e-06 5.54697e-20 -0 6.0537e-06 -0 6.0537e-06)
(6.05357e-06 9.30341e-20 -0 6.05357e-06 -0 6.05357e-06)
(6.05343e-06 6.71533e-20 -0 6.05343e-06 -0 6.05343e-06)
(6.05331e-06 3.14398e-20 -0 6.05331e-06 -0 6.05331e-06)
(6.05321e-06 1.47878e-19 -0 6.05321e-06 -0 6.05321e-06)
(6.05311e-06 1.77645e-19 -0 6.05311e-06 -0 6.05311e-06)
(6.05304e-06 1.64559e-19 -0 6.05304e-06 -0 6.05304e-06)
(6.05298e-06 1.663e-19 -0 6.05298e-06 -0 6.05298e-06)
(6.05293e-06 7.68614e-20 -0 6.05293e-06 -0 6.05293e-06)
(6.0529e-06 -4.62582e-21 -0 6.0529e-06 -0 6.0529e-06)
(6.05288e-06 1.1964e-20 -0 6.05288e-06 -0 6.05288e-06)
(6.05288e-06 2.7447e-20 -0 6.05288e-06 -0 6.05288e-06)
(6.07513e-06 5.00347e-18 -0 6.07513e-06 -0 6.07513e-06)
(6.07513e-06 -6.53194e-18 -0 6.07513e-06 -0 6.07513e-06)
(6.07472e-06 8.45586e-19 -0 6.07472e-06 -0 6.07472e-06)
(6.07456e-06 -3.0484e-19 -0 6.07456e-06 -0 6.07456e-06)
(6.07426e-06 -1.06205e-20 -0 6.07426e-06 -0 6.07426e-06)
(6.07412e-06 -5.89689e-20 -0 6.07412e-06 -0 6.07412e-06)
(6.07389e-06 -2.92172e-21 -0 6.07389e-06 -0 6.07389e-06)
(6.07373e-06 -1.12832e-20 -0 6.07373e-06 -0 6.07373e-06)
(6.07356e-06 -2.10843e-20 -0 6.07356e-06 -0 6.07356e-06)
(6.07341e-06 -7.23453e-20 -0 6.07341e-06 -0 6.07341e-06)
(6.07329e-06 -7.87752e-21 -0 6.07329e-06 -0 6.07329e-06)
(6.07315e-06 8.50887e-21 -0 6.07315e-06 -0 6.07315e-06)
(6.07306e-06 -7.77818e-20 -0 6.07306e-06 -0 6.07306e-06)
(6.07296e-06 1.22592e-20 -0 6.07296e-06 -0 6.07296e-06)
(6.07289e-06 -9.16987e-21 -0 6.07289e-06 -0 6.07289e-06)
(6.07283e-06 -1.71083e-20 -0 6.07283e-06 -0 6.07283e-06)
(6.07279e-06 -1.51253e-20 -0 6.07279e-06 -0 6.07279e-06)
(6.07276e-06 3.6289e-20 -0 6.07276e-06 -0 6.07276e-06)
(6.07274e-06 1.06812e-20 -0 6.07274e-06 -0 6.07274e-06)
(6.07273e-06 1.50685e-20 -0 6.07273e-06 -0 6.07273e-06)
(6.08409e-06 1.55162e-17 -0 6.08409e-06 -0 6.08409e-06)
(6.08408e-06 -1.51664e-17 -0 6.08408e-06 -0 6.08408e-06)
(6.08408e-06 3.4889e-18 -0 6.08408e-06 -0 6.08408e-06)
(6.08407e-06 -6.73066e-19 -0 6.08407e-06 -0 6.08407e-06)
(6.08407e-06 2.79084e-19 -0 6.08407e-06 -0 6.08407e-06)
(6.08406e-06 9.46995e-20 -0 6.08406e-06 -0 6.08406e-06)
(6.08406e-06 3.83869e-20 -0 6.08406e-06 -0 6.08406e-06)
(6.08406e-06 2.53353e-20 -0 6.08406e-06 -0 6.08406e-06)
(6.08406e-06 -1.3878e-20 -0 6.08406e-06 -0 6.08406e-06)
(6.08405e-06 4.10171e-20 -0 6.08405e-06 -0 6.08405e-06)
(6.08405e-06 1.13618e-20 -0 6.08405e-06 -0 6.08405e-06)
(6.08405e-06 2.07175e-20 -0 6.08405e-06 -0 6.08405e-06)
(6.08405e-06 2.0552e-20 -0 6.08405e-06 -0 6.08405e-06)
(6.08405e-06 -7.23747e-20 -0 6.08405e-06 -0 6.08405e-06)
(6.08405e-06 -9.29213e-20 -0 6.08405e-06 -0 6.08405e-06)
(6.08405e-06 -1.08752e-19 -0 6.08405e-06 -0 6.08405e-06)
(6.08405e-06 -1.1507e-19 -0 6.08405e-06 -0 6.08405e-06)
(6.08405e-06 -8.80453e-21 -0 6.08405e-06 -0 6.08405e-06)
(6.08405e-06 1.30577e-20 -0 6.08405e-06 -0 6.08405e-06)
(6.08405e-06 -2.44414e-22 -0 6.08405e-06 -0 6.08405e-06)
)
;

boundaryField
{
    movingWall
    {
        type            kqRWallFunction;
        value           nonuniform List<symmTensor> 
20
(
(6.08409e-06 0 -0 6.08409e-06 -0 6.08409e-06)
(6.08408e-06 -0 -0 6.08408e-06 -0 6.08408e-06)
(6.08408e-06 0 -0 6.08408e-06 -0 6.08408e-06)
(6.08407e-06 -0 -0 6.08407e-06 -0 6.08407e-06)
(6.08407e-06 0 -0 6.08407e-06 -0 6.08407e-06)
(6.08406e-06 0 -0 6.08406e-06 -0 6.08406e-06)
(6.08406e-06 0 -0 6.08406e-06 -0 6.08406e-06)
(6.08406e-06 0 -0 6.08406e-06 -0 6.08406e-06)
(6.08406e-06 -0 -0 6.08406e-06 -0 6.08406e-06)
(6.08405e-06 0 -0 6.08405e-06 -0 6.08405e-06)
(6.08405e-06 0 -0 6.08405e-06 -0 6.08405e-06)
(6.08405e-06 0 -0 6.08405e-06 -0 6.08405e-06)
(6.08405e-06 0 -0 6.08405e-06 -0 6.08405e-06)
(6.08405e-06 0 -0 6.08405e-06 -0 6.08405e-06)
(6.08405e-06 0 -0 6.08405e-06 -0 6.08405e-06)
(6.08405e-06 0 -0 6.08405e-06 -0 6.08405e-06)
(6.08405e-06 -0 -0 6.08405e-06 -0 6.08405e-06)
(6.08405e-06 -0 -0 6.08405e-06 -0 6.08405e-06)
(6.08405e-06 0 -0 6.08405e-06 -0 6.08405e-06)
(6.08405e-06 -0 -0 6.08405e-06 -0 6.08405e-06)
)
;
    }
    fixedWalls
    {
        type            kqRWallFunction;
        value           nonuniform List<symmTensor> 
60
(
(4.68313e-06 -0 -0 4.68313e-06 -0 4.68313e-06)
(4.86804e-06 -0 -0 4.86804e-06 -0 4.86804e-06)
(5.13777e-06 0 -0 5.13777e-06 -0 5.13777e-06)
(5.39262e-06 -0 -0 5.39262e-06 -0 5.39262e-06)
(5.58468e-06 0 -0 5.58468e-06 -0 5.58468e-06)
(5.71138e-06 0 -0 5.71138e-06 -0 5.71138e-06)
(5.78925e-06 -0 -0 5.78925e-06 -0 5.78925e-06)
(5.83648e-06 0 -0 5.83648e-06 -0 5.83648e-06)
(5.86666e-06 0 -0 5.86666e-06 -0 5.86666e-06)
(5.88833e-06 -0 -0 5.88833e-06 -0 5.88833e-06)
(5.90636e-06 0 -0 5.90636e-06 -0 5.90636e-06)
(5.92349e-06 -0 -0 5.92349e-06 -0 5.92349e-06)
(5.94127e-06 0 -0 5.94127e-06 -0 5.94127e-06)
(5.96063e-06 0 -0 5.96063e-06 -0 5.96063e-06)
(5.98215e-06 -0 -0 5.98215e-06 -0 5.98215e-06)
(6.00589e-06 0 -0 6.00589e-06 -0 6.00589e-06)
(6.03101e-06 0 -0 6.03101e-06 -0 6.03101e-06)
(6.05533e-06 -0 -0 6.05533e-06 -0 6.05533e-06)
(6.07513e-06 0 -0 6.07513e-06 -0 6.07513e-06)
(6.08409e-06 0 -0 6.08409e-06 -0 6.08409e-06)
(4.6831e-06 0 -0 4.6831e-06 -0 4.6831e-06)
(4.86649e-06 -0 -0 4.86649e-06 -0 4.86649e-06)
(5.13601e-06 -0 -0 5.13601e-06 -0 5.13601e-06)
(5.39068e-06 -0 -0 5.39068e-06 -0 5.39068e-06)
(5.5826e-06 -0 -0 5.5826e-06 -0 5.5826e-06)
(5.7092e-06 -0 -0 5.7092e-06 -0 5.7092e-06)
(5.78701e-06 0 -0 5.78701e-06 -0 5.78701e-06)
(5.8342e-06 0 -0 5.8342e-06 -0 5.8342e-06)
(5.86436e-06 -0 -0 5.86436e-06 -0 5.86436e-06)
(5.886e-06 -0 -0 5.886e-06 -0 5.886e-06)
(5.90403e-06 -0 -0 5.90403e-06 -0 5.90403e-06)
(5.92114e-06 0 -0 5.92114e-06 -0 5.92114e-06)
(5.9389e-06 0 -0 5.9389e-06 -0 5.9389e-06)
(5.95825e-06 -0 -0 5.95825e-06 -0 5.95825e-06)
(5.97975e-06 0 -0 5.97975e-06 -0 5.97975e-06)
(6.00347e-06 0 -0 6.00347e-06 -0 6.00347e-06)
(6.02858e-06 0 -0 6.02858e-06 -0 6.02858e-06)
(6.05288e-06 0 -0 6.05288e-06 -0 6.05288e-06)
(6.07273e-06 0 -0 6.07273e-06 -0 6.07273e-06)
(6.08405e-06 -0 -0 6.08405e-06 -0 6.08405e-06)
(4.68313e-06 -0 -0 4.68313e-06 -0 4.68313e-06)
(4.68312e-06 0 -0 4.68312e-06 -0 4.68312e-06)
(4.68312e-06 -0 -0 4.68312e-06 -0 4.68312e-06)
(4.68312e-06 0 -0 4.68312e-06 -0 4.68312e-06)
(4.68312e-06 -0 -0 4.68312e-06 -0 4.68312e-06)
(4.68311e-06 -0 -0 4.68311e-06 -0 4.68311e-06)
(4.68311e-06 -0 -0 4.68311e-06 -0 4.68311e-06)
(4.68311e-06 -0 -0 4.68311e-06 -0 4.68311e-06)
(4.68311e-06 -0 -0 4.68311e-06 -0 4.68311e-06)
(4.68311e-06 -0 -0 4.68311e-06 -0 4.68311e-06)
(4.6831e-06 -0 -0 4.6831e-06 -0 4.6831e-06)
(4.6831e-06 -0 -0 4.6831e-06 -0 4.6831e-06)
(4.6831e-06 0 -0 4.6831e-06 -0 4.6831e-06)
(4.6831e-06 0 -0 4.6831e-06 -0 4.6831e-06)
(4.6831e-06 0 -0 4.6831e-06 -0 4.6831e-06)
(4.6831e-06 0 -0 4.6831e-06 -0 4.6831e-06)
(4.6831e-06 -0 -0 4.6831e-06 -0 4.6831e-06)
(4.6831e-06 0 -0 4.6831e-06 -0 4.6831e-06)
(4.6831e-06 -0 -0 4.6831e-06 -0 4.6831e-06)
(4.6831e-06 0 -0 4.6831e-06 -0 4.6831e-06)
)
;
    }
    frontAndBack
    {
        type            empty;
    }
}


// ************************************************************************* //
