/*--------------------------------*- C++ -*----------------------------------*\
| =========                 |                                                 |
| \\      /  F ield         | OpenFOAM: The Open Source CFD Toolbox           |
|  \\    /   O peration     | Version:  2312                                  |
|   \\  /    A nd           | Website:  www.openfoam.com                      |
|    \\/     M anipulation  |                                                 |
\*---------------------------------------------------------------------------*/
FoamFile
{
    version     2.0;
    format      ascii;
    arch        "LSB;label=32;scalar=64";
    class       volScalarField;
    location    "6.5";
    object      turbulenceProperties:nuEff;
}
// * * * * * * * * * * * * * * * * * * * * * * * * * * * * * * * * * * * * * //

dimensions      [0 2 -1 0 0 0 0];

internalField   nonuniform List<scalar> 
400
(
1.14834e-05
1.14834e-05
1.14834e-05
1.14834e-05
1.14834e-05
1.14834e-05
1.14834e-05
1.14834e-05
1.14834e-05
1.14834e-05
1.14834e-05
1.14834e-05
1.14834e-05
1.14834e-05
1.14834e-05
1.14834e-05
1.14834e-05
1.14834e-05
1.14834e-05
1.14834e-05
1.15122e-05
1.15369e-05
1.15347e-05
1.15337e-05
1.15319e-05
1.1531e-05
1.15291e-05
1.15282e-05
1.15264e-05
1.15254e-05
1.15236e-05
1.15226e-05
1.15208e-05
1.15198e-05
1.15181e-05
1.1517e-05
1.15153e-05
1.15142e-05
1.15134e-05
1.1512e-05
1.15533e-05
1.15798e-05
1.15773e-05
1.15763e-05
1.15743e-05
1.15733e-05
1.15713e-05
1.15703e-05
1.15684e-05
1.15673e-05
1.15654e-05
1.15643e-05
1.15624e-05
1.15613e-05
1.15595e-05
1.15584e-05
1.15565e-05
1.15554e-05
1.15545e-05
1.15531e-05
1.15912e-05
1.1619e-05
1.16164e-05
1.16154e-05
1.16133e-05
1.16122e-05
1.16101e-05
1.1609e-05
1.1607e-05
1.16059e-05
1.16039e-05
1.16027e-05
1.16008e-05
1.15996e-05
1.15977e-05
1.15965e-05
1.15946e-05
1.15934e-05
1.15925e-05
1.15909e-05
1.16192e-05
1.16481e-05
1.16454e-05
1.16443e-05
1.16421e-05
1.1641e-05
1.16388e-05
1.16377e-05
1.16356e-05
1.16344e-05
1.16323e-05
1.16311e-05
1.16291e-05
1.16279e-05
1.16259e-05
1.16247e-05
1.16227e-05
1.16215e-05
1.16205e-05
1.16189e-05
1.16374e-05
1.1667e-05
1.16642e-05
1.16631e-05
1.16609e-05
1.16597e-05
1.16575e-05
1.16563e-05
1.16542e-05
1.1653e-05
1.16509e-05
1.16497e-05
1.16476e-05
1.16463e-05
1.16443e-05
1.1643e-05
1.1641e-05
1.16398e-05
1.16387e-05
1.16371e-05
1.16485e-05
1.16785e-05
1.16757e-05
1.16746e-05
1.16723e-05
1.16711e-05
1.16689e-05
1.16677e-05
1.16655e-05
1.16643e-05
1.16622e-05
1.16609e-05
1.16588e-05
1.16576e-05
1.16555e-05
1.16542e-05
1.16521e-05
1.16509e-05
1.16499e-05
1.16482e-05
1.16552e-05
1.16855e-05
1.16826e-05
1.16815e-05
1.16792e-05
1.1678e-05
1.16758e-05
1.16746e-05
1.16724e-05
1.16711e-05
1.1669e-05
1.16677e-05
1.16656e-05
1.16643e-05
1.16622e-05
1.1661e-05
1.16589e-05
1.16576e-05
1.16566e-05
1.16549e-05
1.16595e-05
1.16899e-05
1.16871e-05
1.16859e-05
1.16836e-05
1.16824e-05
1.16802e-05
1.1679e-05
1.16767e-05
1.16755e-05
1.16733e-05
1.16721e-05
1.16699e-05
1.16687e-05
1.16665e-05
1.16653e-05
1.16632e-05
1.16619e-05
1.16608e-05
1.16592e-05
1.16625e-05
1.16931e-05
1.16902e-05
1.16891e-05
1.16868e-05
1.16855e-05
1.16833e-05
1.16821e-05
1.16799e-05
1.16786e-05
1.16764e-05
1.16752e-05
1.1673e-05
1.16717e-05
1.16696e-05
1.16683e-05
1.16662e-05
1.16649e-05
1.16639e-05
1.16622e-05
1.16651e-05
1.16957e-05
1.16929e-05
1.16917e-05
1.16894e-05
1.16882e-05
1.16859e-05
1.16847e-05
1.16824e-05
1.16812e-05
1.1679e-05
1.16777e-05
1.16756e-05
1.16743e-05
1.16722e-05
1.16709e-05
1.16688e-05
1.16675e-05
1.16664e-05
1.16648e-05
1.16675e-05
1.16982e-05
1.16953e-05
1.16942e-05
1.16918e-05
1.16906e-05
1.16884e-05
1.16871e-05
1.16849e-05
1.16837e-05
1.16815e-05
1.16802e-05
1.1678e-05
1.16767e-05
1.16746e-05
1.16733e-05
1.16712e-05
1.16699e-05
1.16688e-05
1.16672e-05
1.167e-05
1.17008e-05
1.16979e-05
1.16967e-05
1.16944e-05
1.16932e-05
1.16909e-05
1.16897e-05
1.16874e-05
1.16862e-05
1.1684e-05
1.16827e-05
1.16805e-05
1.16793e-05
1.16771e-05
1.16758e-05
1.16737e-05
1.16724e-05
1.16713e-05
1.16696e-05
1.16727e-05
1.17036e-05
1.17007e-05
1.16995e-05
1.16972e-05
1.1696e-05
1.16937e-05
1.16925e-05
1.16902e-05
1.1689e-05
1.16867e-05
1.16855e-05
1.16833e-05
1.1682e-05
1.16799e-05
1.16786e-05
1.16764e-05
1.16751e-05
1.16741e-05
1.16724e-05
1.16757e-05
1.17067e-05
1.17038e-05
1.17026e-05
1.17003e-05
1.16991e-05
1.16968e-05
1.16955e-05
1.16933e-05
1.1692e-05
1.16898e-05
1.16885e-05
1.16863e-05
1.1685e-05
1.16829e-05
1.16816e-05
1.16794e-05
1.16781e-05
1.16771e-05
1.16754e-05
1.1679e-05
1.17102e-05
1.17072e-05
1.17061e-05
1.17037e-05
1.17025e-05
1.17002e-05
1.16989e-05
1.16966e-05
1.16954e-05
1.16932e-05
1.16919e-05
1.16897e-05
1.16884e-05
1.16862e-05
1.16849e-05
1.16828e-05
1.16815e-05
1.16804e-05
1.16787e-05
1.16825e-05
1.17138e-05
1.17109e-05
1.17097e-05
1.17073e-05
1.17061e-05
1.17037e-05
1.17025e-05
1.17002e-05
1.1699e-05
1.16967e-05
1.16954e-05
1.16932e-05
1.16919e-05
1.16897e-05
1.16884e-05
1.16863e-05
1.1685e-05
1.16839e-05
1.16822e-05
1.16859e-05
1.17173e-05
1.17143e-05
1.17131e-05
1.17108e-05
1.17095e-05
1.17072e-05
1.1706e-05
1.17037e-05
1.17024e-05
1.17001e-05
1.16988e-05
1.16966e-05
1.16953e-05
1.16931e-05
1.16918e-05
1.16897e-05
1.16883e-05
1.16873e-05
1.16855e-05
1.16886e-05
1.17195e-05
1.17167e-05
1.17155e-05
1.17132e-05
1.1712e-05
1.17097e-05
1.17085e-05
1.17063e-05
1.1705e-05
1.17028e-05
1.17015e-05
1.16994e-05
1.1698e-05
1.16959e-05
1.16945e-05
1.16924e-05
1.16911e-05
1.169e-05
1.16883e-05
1.16898e-05
1.16898e-05
1.16898e-05
1.16898e-05
1.16898e-05
1.16898e-05
1.16898e-05
1.16898e-05
1.16898e-05
1.16898e-05
1.16898e-05
1.16898e-05
1.16898e-05
1.16898e-05
1.16898e-05
1.16898e-05
1.16898e-05
1.16898e-05
1.16898e-05
1.16898e-05
)
;

boundaryField
{
    movingWall
    {
        type            calculated;
        value           uniform 1e-05;
    }
    fixedWalls
    {
        type            calculated;
        value           uniform 1e-05;
    }
    frontAndBack
    {
        type            empty;
    }
}


// ************************************************************************* //
