/*--------------------------------*- C++ -*----------------------------------*\
| =========                 |                                                 |
| \\      /  F ield         | OpenFOAM: The Open Source CFD Toolbox           |
|  \\    /   O peration     | Version:  2312                                  |
|   \\  /    A nd           | Website:  www.openfoam.com                      |
|    \\/     M anipulation  |                                                 |
\*---------------------------------------------------------------------------*/
FoamFile
{
    version     2.0;
    format      ascii;
    arch        "LSB;label=32;scalar=64";
    class       vectorField;
    location    "6.5";
    object      U_all;
}
// * * * * * * * * * * * * * * * * * * * * * * * * * * * * * * * * * * * * * //


400
(
(-1 1.47754e-13 0)
(-1 -3.16306e-14 0)
(-1 7.56735e-15 0)
(-1 -1.35294e-15 0)
(-1 5.543e-16 0)
(-1 7.8786e-17 0)
(-1 9.48191e-17 0)
(-1 8.41898e-17 0)
(-1 1.45086e-16 0)
(-1 1.54507e-16 0)
(-1 1.19605e-16 0)
(-1 1.53645e-16 0)
(-1 1.36239e-16 0)
(-1 1.17398e-18 0)
(-1 -1.07168e-16 0)
(-1 -1.41231e-16 0)
(-1 -1.09861e-17 0)
(-1 5.19553e-17 0)
(-1 -4.36287e-19 0)
(-1 6.36042e-18 0)
(-1 6.63006e-15 0)
(-1 -1.27551e-15 0)
(-1 4.14321e-16 0)
(-1 1.84798e-16 0)
(-1 2.47009e-16 0)
(-1 1.87916e-16 0)
(-1 1.34773e-16 0)
(-1 9.58561e-17 0)
(-1 6.04851e-17 0)
(-1 4.11674e-17 0)
(-1 6.77387e-17 0)
(-1 1.96614e-16 0)
(-1 2.87578e-16 0)
(-1 1.48453e-16 0)
(-1 -4.93423e-17 0)
(-1 -1.0757e-16 0)
(-1 2.37843e-17 0)
(-1 5.00906e-18 0)
(-1 -1.61227e-16 0)
(-1 -7.61416e-17 0)
(-1 -1.37457e-13 0)
(-1 2.95233e-14 0)
(-1 -6.9921e-15 0)
(-1 1.42673e-15 0)
(-1 -2.99668e-16 0)
(-1 1.93255e-16 0)
(-1 1.42225e-16 0)
(-1 1.68951e-16 0)
(-1 1.43896e-16 0)
(-1 1.52704e-17 0)
(-1 -4.33901e-17 0)
(-1 -2.14486e-17 0)
(-1 3.90424e-17 0)
(-1 1.76513e-16 0)
(-1 1.8507e-16 0)
(-1 6.15462e-17 0)
(-1 8.45972e-18 0)
(-1 -1.10094e-16 0)
(-1 -2.14523e-16 0)
(-1 -1.47257e-16 0)
(-1 1.12193e-13 0)
(-1 -2.48587e-14 0)
(-1 5.6692e-15 0)
(-1 -1.45677e-15 0)
(-1 2.39085e-16 0)
(-1 -1.2894e-16 0)
(-1 -1.0758e-16 0)
(-1 1.82162e-17 0)
(-1 1.99021e-16 0)
(-1 1.76672e-16 0)
(-1 9.0242e-17 0)
(-1 2.71434e-17 0)
(-1 -1.18799e-17 0)
(-1 -3.01347e-17 0)
(-1 -4.42306e-17 0)
(-1 -7.89642e-17 0)
(-1 -8.15673e-17 0)
(-1 -1.16861e-16 0)
(-1 -1.20674e-16 0)
(-1 -1.01153e-16 0)
(-1 -1.00497e-14 0)
(-1 2.56361e-15 0)
(-1 -6.95924e-16 0)
(-1 1.92358e-16 0)
(-1 1.14736e-16 0)
(-1 6.59007e-17 0)
(-1 -8.39399e-17 0)
(-1 -7.12805e-17 0)
(-1 -9.75812e-18 0)
(-1 -1.61208e-17 0)
(-1 6.42654e-18 0)
(-1 -5.91224e-17 0)
(-1 -1.7082e-16 0)
(-1 -3.44294e-16 0)
(-1 -3.52351e-16 0)
(-1 -2.00042e-16 0)
(-1 -6.49785e-17 0)
(-1 -2.71962e-17 0)
(-1 -5.62088e-17 0)
(-1 -7.16291e-17 0)
(-1 -9.09104e-14 0)
(-1 2.02229e-14 0)
(-1 -4.61117e-15 0)
(-1 1.18097e-15 0)
(-1 -4.21079e-17 0)
(-1 3.70292e-16 0)
(-1 2.5364e-16 0)
(-1 1.062e-16 0)
(-1 -1.42143e-16 0)
(-1 -2.43498e-16 0)
(-1 -1.8546e-16 0)
(-1 -2.13465e-16 0)
(-1 -2.36744e-16 0)
(-1 -1.43026e-16 0)
(-1 -9.34117e-17 0)
(-1 -8.9157e-17 0)
(-1 -1.02052e-16 0)
(-1 -1.1662e-17 0)
(-1 -1.95927e-17 0)
(-1 -4.16293e-17 0)
(-1 1.15624e-13 0)
(-1 -2.56036e-14 0)
(-1 6.08309e-15 0)
(-1 -1.31925e-15 0)
(-1 2.97343e-16 0)
(-1 -1.11089e-16 0)
(-1 -7.61104e-17 0)
(-1 -1.5342e-16 0)
(-1 -2.80832e-16 0)
(-1 -1.29736e-16 0)
(-1 1.32362e-17 0)
(-1 6.16297e-17 0)
(-1 8.48947e-17 0)
(-1 4.87923e-17 0)
(-1 -7.13067e-17 0)
(-1 -8.93643e-17 0)
(-1 -7.62429e-17 0)
(-1 -1.01247e-17 0)
(-1 4.36456e-17 0)
(-1 6.73685e-17 0)
(-1 -2.40725e-14 0)
(-1 4.99609e-15 0)
(-1 -1.49897e-15 0)
(-1 2.08951e-16 0)
(-1 -2.92958e-17 0)
(-1 -4.70975e-17 0)
(-1 -8.894e-17 0)
(-1 -9.45858e-17 0)
(-1 -1.24595e-16 0)
(-1 -1.16634e-16 0)
(-1 -1.27856e-16 0)
(-1 -1.42685e-16 0)
(-1 -1.66261e-16 0)
(-1 -2.36532e-16 0)
(-1 -1.93576e-16 0)
(-1 -3.3388e-17 0)
(-1 5.25478e-17 0)
(-1 -4.77932e-17 0)
(-1 2.42602e-17 0)
(-1 6.70632e-17 0)
(-1 -6.81154e-14 0)
(-1 1.53101e-14 0)
(-1 -3.68332e-15 0)
(-1 7.5845e-16 0)
(-1 -2.26324e-16 0)
(-1 1.19805e-16 0)
(-1 1.67926e-16 0)
(-1 1.40446e-16 0)
(-1 2.88504e-17 0)
(-1 -1.36581e-16 0)
(-1 -2.47597e-16 0)
(-1 -2.59911e-16 0)
(-1 -2.14101e-16 0)
(-1 -1.32509e-16 0)
(-1 -1.34148e-17 0)
(-1 2.13849e-17 0)
(-1 -2.62268e-17 0)
(-1 -9.88988e-17 0)
(-1 -1.0374e-16 0)
(-1 -4.59909e-17 0)
(-1 9.57418e-14 0)
(-1 -2.09645e-14 0)
(-1 5.1104e-15 0)
(-1 -1.04939e-15 0)
(-1 2.28025e-16 0)
(-1 2.88176e-17 0)
(-1 1.46358e-16 0)
(-1 1.20833e-16 0)
(-1 1.14385e-16 0)
(-1 1.37602e-17 0)
(-1 -1.30286e-16 0)
(-1 -1.89411e-16 0)
(-1 -1.25736e-16 0)
(-1 -3.37834e-17 0)
(-1 1.80436e-17 0)
(-1 -6.65358e-17 0)
(-1 -6.66283e-17 0)
(-1 1.69416e-17 0)
(-1 -3.61795e-17 0)
(-1 -6.906e-17 0)
(-1 -9.04035e-14 0)
(-1 1.9311e-14 0)
(-1 -4.29316e-15 0)
(-1 1.09163e-15 0)
(-1 -1.09374e-16 0)
(-1 1.37927e-16 0)
(-1 6.76167e-17 0)
(-1 8.01753e-17 0)
(-1 5.86183e-17 0)
(-1 -8.66422e-17 0)
(-1 -2.1991e-16 0)
(-1 -2.60079e-16 0)
(-1 -1.78228e-16 0)
(-1 -3.17113e-17 0)
(-1 1.34788e-16 0)
(-1 1.11156e-16 0)
(-1 5.50639e-17 0)
(-1 1.01583e-16 0)
(-1 3.40898e-17 0)
(-1 -5.52669e-17 0)
(-1 7.97941e-14 0)
(-1 -1.70502e-14 0)
(-1 4.11367e-15 0)
(-1 -8.6095e-16 0)
(-1 8.43051e-17 0)
(-1 -1.36975e-16 0)
(-1 8.64689e-18 0)
(-1 8.44232e-17 0)
(-1 1.1205e-16 0)
(-1 1.02932e-16 0)
(-1 -4.67681e-17 0)
(-1 -8.75702e-17 0)
(-1 -2.66354e-17 0)
(-1 6.48134e-17 0)
(-1 1.0337e-16 0)
(-1 6.8696e-17 0)
(-1 -1.42256e-17 0)
(-1 2.53633e-17 0)
(-1 7.3045e-17 0)
(-1 2.72629e-18 0)
(-1 -2.08728e-14 0)
(-1 4.21392e-15 0)
(-1 -1.12527e-15 0)
(-1 1.12613e-16 0)
(-1 -2.33949e-16 0)
(-1 -2.04687e-16 0)
(-1 -8.22458e-17 0)
(-1 4.60927e-17 0)
(-1 1.83494e-16 0)
(-1 2.47048e-16 0)
(-1 7.04062e-17 0)
(-1 -2.00832e-17 0)
(-1 -4.5513e-17 0)
(-1 -7.88311e-17 0)
(-1 -1.17748e-16 0)
(-1 -6.6636e-17 0)
(-1 -5.52108e-17 0)
(-1 -1.48549e-16 0)
(-1 -1.2247e-16 0)
(-1 -2.07893e-17 0)
(-1 -7.97614e-14 0)
(-1 1.7227e-14 0)
(-1 -4.25577e-15 0)
(-1 8.76626e-16 0)
(-1 -2.50793e-16 0)
(-1 -9.99724e-17 0)
(-1 -1.393e-16 0)
(-1 -4.73397e-17 0)
(-1 4.60442e-17 0)
(-1 2.58463e-17 0)
(-1 3.92767e-17 0)
(-1 2.29423e-17 0)
(-1 2.68712e-18 0)
(-1 -8.36558e-17 0)
(-1 -4.99328e-17 0)
(-1 1.36316e-17 0)
(-1 1.08034e-17 0)
(-1 -1.69824e-16 0)
(-1 -2.14529e-16 0)
(-1 -3.13749e-17 0)
(-1 1.50586e-13 0)
(-1 -3.26043e-14 0)
(-1 7.56333e-15 0)
(-1 -1.66619e-15 0)
(-1 3.72491e-16 0)
(-1 4.30004e-17 0)
(-1 1.39013e-16 0)
(-1 -3.64419e-17 0)
(-1 -1.50577e-16 0)
(-1 -1.81816e-16 0)
(-1 -9.64925e-17 0)
(-1 -8.45385e-17 0)
(-1 1.1452e-18 0)
(-1 7.73627e-17 0)
(-1 -2.00692e-17 0)
(-1 -1.18542e-16 0)
(-1 -1.08838e-16 0)
(-1 -9.52592e-17 0)
(-1 -5.40463e-17 0)
(-1 3.83968e-17 0)
(-1 -9.75162e-14 0)
(-1 2.0911e-14 0)
(-1 -4.83026e-15 0)
(-1 1.00389e-15 0)
(-1 -2.481e-16 0)
(-1 7.74557e-17 0)
(-1 -1.02262e-16 0)
(-1 -3.27411e-16 0)
(-1 -3.34122e-16 0)
(-1 -2.37281e-16 0)
(-1 -1.07711e-16 0)
(-1 -3.06964e-18 0)
(-1 6.142e-18 0)
(-1 3.45292e-19 0)
(-1 -1.15472e-16 0)
(-1 -1.94984e-16 0)
(-1 -1.3621e-16 0)
(-1 -4.55112e-17 0)
(-1 -8.48772e-18 0)
(-1 2.74627e-17 0)
(-1 -2.56595e-14 0)
(-1 6.06039e-15 0)
(-1 -1.26789e-15 0)
(-1 3.63276e-16 0)
(-1 -1.60519e-16 0)
(-1 -1.8327e-16 0)
(-1 -3.28339e-16 0)
(-1 -2.51444e-16 0)
(-1 -1.3307e-16 0)
(-1 -1.44777e-16 0)
(-1 -7.67529e-17 0)
(-1 9.09615e-17 0)
(-1 1.28523e-17 0)
(-1 -1.37105e-16 0)
(-1 -1.27487e-16 0)
(-1 -1.04774e-16 0)
(-1 -3.94869e-19 0)
(-1 8.98882e-17 0)
(-1 7.00136e-17 0)
(-1 2.02386e-17 0)
(-1 1.12104e-13 0)
(-1 -2.40089e-14 0)
(-1 5.80263e-15 0)
(-1 -1.23942e-15 0)
(-1 1.33884e-16 0)
(-1 -2.5154e-16 0)
(-1 -1.92413e-16 0)
(-1 -1.1664e-16 0)
(-1 -1.29827e-16 0)
(-1 -1.71179e-16 0)
(-1 -1.34217e-16 0)
(-1 -2.4063e-17 0)
(-1 -4.82325e-17 0)
(-1 -8.25025e-17 0)
(-1 -1.18827e-17 0)
(-1 2.97856e-17 0)
(-1 8.93546e-17 0)
(-1 1.16994e-16 0)
(-1 1.16753e-16 0)
(-1 4.60859e-17 0)
(-1 -3.7304e-14 0)
(-1 7.13118e-15 0)
(-1 -2.02636e-15 0)
(-1 3.69902e-17 0)
(-1 -2.49367e-16 0)
(-1 -1.72067e-16 0)
(-1 -1.7597e-16 0)
(-1 -1.54979e-16 0)
(-1 -1.09928e-16 0)
(-1 -3.14095e-17 0)
(-1 4.33359e-17 0)
(-1 1.4852e-17 0)
(-1 -6.67217e-18 0)
(-1 -6.95368e-17 0)
(-1 -7.88692e-17 0)
(-1 -1.54658e-17 0)
(-1 2.20915e-17 0)
(-1 7.39046e-17 0)
(-1 7.85508e-17 0)
(-1 1.07027e-17 0)
(-1 -9.10502e-14 0)
(-1 1.92876e-14 0)
(-1 -4.82373e-15 0)
(-1 8.09707e-16 0)
(-1 -2.98633e-16 0)
(-1 -2.86795e-17 0)
(-1 -4.5884e-17 0)
(-1 1.52083e-17 0)
(-1 7.524e-17 0)
(-1 9.73341e-17 0)
(-1 1.03563e-16 0)
(-1 3.00984e-17 0)
(-1 -1.90369e-17 0)
(-1 -9.15224e-17 0)
(-1 -1.32846e-16 0)
(-1 -8.37423e-17 0)
(-1 -3.13853e-17 0)
(-1 5.51077e-17 0)
(-1 2.07174e-17 0)
(-1 -2.21638e-17 0)
)


// ************************************************************************* //
