/*--------------------------------*- C++ -*----------------------------------*\
| =========                 |                                                 |
| \\      /  F ield         | OpenFOAM: The Open Source CFD Toolbox           |
|  \\    /   O peration     | Version:  2312                                  |
|   \\  /    A nd           | Website:  www.openfoam.com                      |
|    \\/     M anipulation  |                                                 |
\*---------------------------------------------------------------------------*/
FoamFile
{
    version     2.0;
    format      ascii;
    arch        "LSB;label=32;scalar=64";
    class       volVectorField;
    location    "6.5";
    object      UMean;
}
// * * * * * * * * * * * * * * * * * * * * * * * * * * * * * * * * * * * * * //

dimensions      [0 1 -1 0 0 0 0];

internalField   nonuniform List<vector> 
400
(
(-0.615456 5.76257e-05 0)
(-0.615925 0.000260302 0)
(-0.616797 0.000391559 0)
(-0.617802 0.000457517 0)
(-0.618913 0.000518349 0)
(-0.620154 0.000598749 0)
(-0.621565 0.000704176 0)
(-0.623156 0.000817273 0)
(-0.624858 0.000877792 0)
(-0.626501 0.000823653 0)
(-0.627833 0.000622946 0)
(-0.628596 0.000286799 0)
(-0.628582 -0.000171028 0)
(-0.627626 -0.000658396 0)
(-0.625746 -0.00110957 0)
(-0.623158 -0.00140622 0)
(-0.620248 -0.00141399 0)
(-0.617474 -0.00103228 0)
(-0.615631 -0.000415218 0)
(-0.615189 0.000101372 0)
(-0.615706 0.000566194 0)
(-0.616642 0.00121706 0)
(-0.617924 0.00157249 0)
(-0.619358 0.00175706 0)
(-0.620903 0.00193693 0)
(-0.622588 0.00216496 0)
(-0.624435 0.00240728 0)
(-0.626401 0.00257612 0)
(-0.62838 0.00255742 0)
(-0.63021 0.00224859 0)
(-0.631682 0.0015975 0)
(-0.632577 0.000612809 0)
(-0.632678 -0.000643683 0)
(-0.631831 -0.00203656 0)
(-0.629948 -0.00334853 0)
(-0.627121 -0.00427013 0)
(-0.623638 -0.00446334 0)
(-0.619964 -0.00362582 0)
(-0.616771 -0.0018867 0)
(-0.615381 -0.000107875 0)
(-0.615944 0.00157076 0)
(-0.61715 0.00252273 0)
(-0.618584 0.00303917 0)
(-0.620189 0.00336127 0)
(-0.621931 0.00368519 0)
(-0.623826 0.00406519 0)
(-0.625889 0.00443419 0)
(-0.628086 0.00465665 0)
(-0.630322 0.00456911 0)
(-0.632447 0.00402839 0)
(-0.634258 0.00294593 0)
(-0.635518 0.00130086 0)
(-0.635999 -0.000826859 0)
(-0.635536 -0.00325945 0)
(-0.634013 -0.00569152 0)
(-0.631339 -0.00765288 0)
(-0.627576 -0.0085233 0)
(-0.623044 -0.00764355 0)
(-0.618451 -0.00476522 0)
(-0.615609 -0.00111322 0)
(-0.616082 0.00281106 0)
(-0.617449 0.00396509 0)
(-0.618958 0.00459978 0)
(-0.620621 0.00506476 0)
(-0.622428 0.00555153 0)
(-0.624416 0.00610564 0)
(-0.626611 0.00663898 0)
(-0.628987 0.00696817 0)
(-0.631452 0.00686779 0)
(-0.633841 0.00613323 0)
(-0.635936 0.00463403 0)
(-0.637498 0.00234796 0)
(-0.63832 -0.000633569 0)
(-0.638243 -0.00409063 0)
(-0.637175 -0.00768058 0)
(-0.634983 -0.010911 0)
(-0.631479 -0.0130069 0)
(-0.626599 -0.0128727 0)
(-0.620854 -0.00941789 0)
(-0.616167 -0.00304739 0)
(-0.616129 0.00417667 0)
(-0.617556 0.00548915 0)
(-0.619067 0.00620251 0)
(-0.620708 0.00679212 0)
(-0.622497 0.00744905 0)
(-0.624481 0.00820918 0)
(-0.6267 0.00895062 0)
(-0.629134 0.0094308 0)
(-0.631678 0.00934922 0)
(-0.634141 0.00843454 0)
(-0.636294 0.00653333 0)
(-0.637931 0.00365225 0)
(-0.638901 -7.757e-05 0)
(-0.639109 -0.00440188 0)
(-0.638459 -0.00899164 0)
(-0.636892 -0.0134374 0)
(-0.634113 -0.0170425 0)
(-0.62964 -0.0184821 0)
(-0.623442 -0.0156263 0)
(-0.61732 -0.00685368 0)
(-0.616104 0.0055578 0)
(-0.617501 0.00700433 0)
(-0.618945 0.00777195 0)
(-0.620495 0.00847273 0)
(-0.622178 0.00930028 0)
(-0.624047 0.010277 0)
(-0.626147 0.0112405 0)
(-0.628462 0.0118799 0)
(-0.630885 0.0118111 0)
(-0.633238 0.010711 0)
(-0.635336 0.0084315 0)
(-0.637021 0.00501359 0)
(-0.638137 0.000638946 0)
(-0.638542 -0.00443421 0)
(-0.63817 -0.00984311 0)
(-0.637037 -0.0152334 0)
(-0.634992 -0.0201665 0)
(-0.631398 -0.0235616 0)
(-0.625497 -0.0225952 0)
(-0.618548 -0.0126073 0)
(-0.616027 0.00686295 0)
(-0.617318 0.00843289 0)
(-0.618636 0.00923723 0)
(-0.620027 0.0100237 0)
(-0.621517 0.0109949 0)
(-0.623151 0.0121649 0)
(-0.624975 0.0133279 0)
(-0.626987 0.0141135 0)
(-0.629115 0.0140759 0)
(-0.631247 0.0128625 0)
(-0.633274 0.0103218 0)
(-0.635048 0.00648276 0)
(-0.636365 0.00151166 0)
(-0.637001 -0.00428912 0)
(-0.636872 -0.0104839 0)
(-0.636023 -0.0166382 0)
(-0.634474 -0.0225304 0)
(-0.631777 -0.0276603 0)
(-0.626649 -0.0293534 0)
(-0.619488 -0.019949 0)
(-0.615918 0.00801645 0)
(-0.617044 0.00971102 0)
(-0.618187 0.0105334 0)
(-0.619362 0.0113664 0)
(-0.620583 0.0124262 0)
(-0.621878 0.0137274 0)
(-0.623279 0.0150377 0)
(-0.624822 0.0159703 0)
(-0.626501 0.0160302 0)
(-0.628292 0.0148268 0)
(-0.63016 0.0121944 0)
(-0.631978 0.00809149 0)
(-0.633488 0.00261536 0)
(-0.634434 -0.00389405 0)
(-0.634656 -0.0108771 0)
(-0.634175 -0.0177538 0)
(-0.633059 -0.0243988 0)
(-0.631125 -0.0308346 0)
(-0.626941 -0.035353 0)
(-0.620027 -0.0281876 0)
(-0.61579 0.00896679 0)
(-0.616713 0.0107889 0)
(-0.617645 0.011611 0)
(-0.618569 0.012443 0)
(-0.619473 0.0135186 0)
(-0.620355 0.0148607 0)
(-0.621242 0.0162395 0)
(-0.622192 0.0172875 0)
(-0.623263 0.0175057 0)
(-0.62452 0.0164888 0)
(-0.62603 0.0139825 0)
(-0.627721 0.00981257 0)
(-0.629373 0.00399664 0)
(-0.630663 -0.00312268 0)
(-0.631369 -0.0108034 0)
(-0.63147 -0.0183891 0)
(-0.630959 -0.0257335 0)
(-0.629788 -0.033214 0)
(-0.62663 -0.0404431 0)
(-0.62027 -0.0366443 0)
(-0.615658 0.00968651 0)
(-0.616358 0.0116386 0)
(-0.617064 0.0124432 0)
(-0.617725 0.0132223 0)
(-0.618297 0.014229 0)
(-0.61875 0.0155039 0)
(-0.619094 0.0168599 0)
(-0.619388 0.0179604 0)
(-0.619737 0.0183509 0)
(-0.620268 0.0176018 0)
(-0.621122 0.0154082 0)
(-0.622377 0.011497 0)
(-0.623961 0.00569662 0)
(-0.625553 -0.0017284 0)
(-0.626923 -0.00996621 0)
(-0.627863 -0.0182509 0)
(-0.628199 -0.026294 0)
(-0.627938 -0.0347554 0)
(-0.625901 -0.0444986 0)
(-0.620416 -0.0449051 0)
(-0.615537 0.0101728 0)
(-0.616019 0.0122537 0)
(-0.616502 0.013024 0)
(-0.616909 0.0137032 0)
(-0.61717 0.0145643 0)
(-0.617229 0.0156682 0)
(-0.617076 0.0168826 0)
(-0.616746 0.0179213 0)
(-0.616356 0.0184055 0)
(-0.616063 0.0179357 0)
(-0.616074 0.0161817 0)
(-0.616554 0.0128105 0)
(-0.617694 0.00746539 0)
(-0.619473 0.000205458 0)
(-0.621562 -0.00825358 0)
(-0.623478 -0.0170625 0)
(-0.624847 -0.0258243 0)
(-0.625665 -0.0352447 0)
(-0.624872 -0.0474317 0)
(-0.620575 -0.0527682 0)
(-0.615442 0.0104472 0)
(-0.615733 0.0126509 0)
(-0.616014 0.0133706 0)
(-0.616193 0.0139122 0)
(-0.616186 0.0145688 0)
(-0.615922 0.0154183 0)
(-0.615373 0.0163794 0)
(-0.614555 0.0172282 0)
(-0.613561 0.017663 0)
(-0.612547 0.0173559 0)
(-0.61173 0.016002 0)
(-0.611352 0.0132849 0)
(-0.611758 0.00887089 0)
(-0.613269 0.00249149 0)
(-0.615798 -0.00564174 0)
(-0.618642 -0.0146945 0)
(-0.6211 -0.0241598 0)
(-0.623069 -0.0345219 0)
(-0.623644 -0.0491396 0)
(-0.620781 -0.0601721 0)
(-0.615391 0.0105608 0)
(-0.615538 0.0128636 0)
(-0.615649 0.013514 0)
(-0.615634 0.0138891 0)
(-0.615403 0.014306 0)
(-0.614894 0.0148572 0)
(-0.614068 0.0155005 0)
(-0.612933 0.0160727 0)
(-0.611561 0.0163442 0)
(-0.610089 0.0160582 0)
(-0.608718 0.01497 0)
(-0.607713 0.0128468 0)
(-0.607416 0.0094117 0)
(-0.608313 0.00436278 0)
(-0.610635 -0.00266113 0)
(-0.613911 -0.0114688 0)
(-0.61727 -0.0213127 0)
(-0.620307 -0.0325135 0)
(-0.622325 -0.0495278 0)
(-0.621058 -0.0671013 0)
(-0.615401 0.010613 0)
(-0.615471 0.0129511 0)
(-0.615453 0.013493 0)
(-0.615271 0.0136726 0)
(-0.614851 0.0138322 0)
(-0.614149 0.0140784 0)
(-0.613138 0.0143956 0)
(-0.611828 0.0146744 0)
(-0.610277 0.0147449 0)
(-0.608602 0.014414 0)
(-0.606983 0.0135005 0)
(-0.605656 0.0118522 0)
(-0.604904 0.00929324 0)
(-0.605117 0.00549217 0)
(-0.606784 -4.35709e-05 0)
(-0.60984 -0.00786088 0)
(-0.613652 -0.0175016 0)
(-0.617539 -0.0292811 0)
(-0.620953 -0.0483926 0)
(-0.621399 -0.0733355 0)
(-0.615499 0.0106109 0)
(-0.615593 0.0129371 0)
(-0.615474 0.0133189 0)
(-0.615135 0.0132724 0)
(-0.614533 0.0131707 0)
(-0.613659 0.0131293 0)
(-0.612506 0.0131516 0)
(-0.611093 0.013167 0)
(-0.609471 0.0130565 0)
(-0.607742 0.0126808 0)
(-0.606053 0.0119098 0)
(-0.604588 0.0106353 0)
(-0.603565 0.00873426 0)
(-0.603259 0.00596041 0)
(-0.604126 0.00180965 0)
(-0.606521 -0.00443696 0)
(-0.610283 -0.0131486 0)
(-0.614738 -0.0250778 0)
(-0.619216 -0.0454364 0)
(-0.62166 -0.0785779 0)
(-0.615731 0.0111333 0)
(-0.615914 0.0130539 0)
(-0.615724 0.0130772 0)
(-0.615225 0.0127215 0)
(-0.61443 0.0123411 0)
(-0.613372 0.0120335 0)
(-0.612071 0.0118059 0)
(-0.61056 0.0116082 0)
(-0.608888 0.0113572 0)
(-0.607137 0.0109547 0)
(-0.605422 0.0103046 0)
(-0.603885 0.00932088 0)
(-0.602691 0.00791251 0)
(-0.602037 0.00591563 0)
(-0.602262 0.00292367 0)
(-0.6038 -0.00175799 0)
(-0.607234 -0.00891401 0)
(-0.611432 -0.0204854 0)
(-0.616401 -0.0407803 0)
(-0.621544 -0.0833106 0)
(-0.616251 0.0104235 0)
(-0.616801 0.0122385 0)
(-0.616369 0.0121735 0)
(-0.615557 0.0117128 0)
(-0.614476 0.0111905 0)
(-0.613174 0.010713 0)
(-0.611669 0.0103179 0)
(-0.610004 0.00998 0)
(-0.608226 0.00964188 0)
(-0.606399 0.00923396 0)
(-0.604608 0.0086853 0)
(-0.602957 0.00792809 0)
(-0.601589 0.00690298 0)
(-0.600664 0.00549179 0)
(-0.60045 0.00343208 0)
(-0.601189 6.65002e-05 0)
(-0.604168 -0.00526376 0)
(-0.606684 -0.0162807 0)
(-0.612607 -0.0353915 0)
(-0.620694 -0.0889077 0)
(-0.616968 0.016845 0)
(-0.617546 0.0162104 0)
(-0.616663 0.0140762 0)
(-0.615448 0.0121986 0)
(-0.61401 0.0108591 0)
(-0.612333 0.00986873 0)
(-0.610457 0.00912712 0)
(-0.608457 0.00855261 0)
(-0.606387 0.00806364 0)
(-0.604302 0.00759377 0)
(-0.602267 0.00709049 0)
(-0.600382 0.00651303 0)
(-0.598759 0.00581217 0)
(-0.597507 0.00490675 0)
(-0.596905 0.00365336 0)
(-0.596859 0.00142083 0)
(-0.599509 -0.00243391 0)
(-0.598285 -0.0122511 0)
(-0.609997 -0.0280821 0)
(-0.616804 -0.0933575 0)
(-0.61796 0.00629364 0)
(-0.618962 0.00387582 0)
(-0.615858 0.00401274 0)
(-0.612406 0.00506504 0)
(-0.608846 0.00531746 0)
(-0.60538 0.00513382 0)
(-0.6021 0.00490843 0)
(-0.599002 0.00472581 0)
(-0.596059 0.00455471 0)
(-0.593253 0.00436592 0)
(-0.590595 0.00414757 0)
(-0.588113 0.00388841 0)
(-0.58587 0.00357395 0)
(-0.583873 0.00314139 0)
(-0.582466 0.00254989 0)
(-0.581017 0.00131862 0)
(-0.583531 -0.000400955 0)
(-0.57866 -0.00647289 0)
(-0.606376 -0.0145909 0)
(-0.593175 -0.0815558 0)
(-0.600032 0.0353571 0)
(-0.592005 0.0258623 0)
(-0.582641 0.015853 0)
(-0.57472 0.0103579 0)
(-0.568708 0.00751864 0)
(-0.563703 0.00587214 0)
(-0.559173 0.0047966 0)
(-0.554985 0.0040389 0)
(-0.551106 0.00347321 0)
(-0.547498 0.00303527 0)
(-0.544138 0.0026816 0)
(-0.541016 0.00238386 0)
(-0.538167 0.00212219 0)
(-0.535567 0.00187295 0)
(-0.533579 0.00160306 0)
(-0.531357 0.00122704 0)
(-0.533429 0.000778572 0)
(-0.524882 -0.00084596 0)
(-0.570855 0.00218343 0)
(-0.475979 -0.0368677 0)
)
;

boundaryField
{
    movingWall
    {
        type            calculated;
        value           uniform (-0.230769 0 0);
    }
    fixedWalls
    {
        type            calculated;
        value           uniform (-0.615385 0 0);
    }
    frontAndBack
    {
        type            empty;
    }
}


// ************************************************************************* //
