/*--------------------------------*- C++ -*----------------------------------*\
| =========                 |                                                 |
| \\      /  F ield         | OpenFOAM: The Open Source CFD Toolbox           |
|  \\    /   O peration     | Version:  2312                                  |
|   \\  /    A nd           | Website:  www.openfoam.com                      |
|    \\/     M anipulation  |                                                 |
\*---------------------------------------------------------------------------*/
FoamFile
{
    version     2.0;
    format      ascii;
    arch        "LSB;label=32;scalar=64";
    class       volSymmTensorField;
    location    "6.5";
    object      UPrime2Mean;
}
// * * * * * * * * * * * * * * * * * * * * * * * * * * * * * * * * * * * * * //

dimensions      [0 2 -2 0 0 0 0];

internalField   nonuniform List<symmTensor> 
400
(
(0.236601 3.52006e-05 0 1.67808e-08 0 0)
(0.236022 0.000159927 0 1.50158e-07 0 0)
(0.234954 0.000239702 0 3.42869e-07 0 0)
(0.233725 0.000278978 0 4.77454e-07 0 0)
(0.232375 0.000314491 0 6.61103e-07 0 0)
(0.230875 0.000360834 0 1.029e-06 0 0)
(0.229183 0.000420327 0 1.75903e-06 0 0)
(0.227298 0.000481211 0 2.96992e-06 0 0)
(0.225312 0.000507972 0 4.03915e-06 0 0)
(0.223428 0.000467721 0 3.97881e-06 0 0)
(0.221927 0.000347177 0 2.56242e-06 0 0)
(0.221086 0.000155655 0 7.92026e-07 0 0)
(0.221118 -0.000101885 0 1.39736e-07 0 0)
(0.222211 -0.000377632 0 1.43958e-06 0 0)
(0.224359 -0.000640016 0 4.50677e-06 0 0)
(0.227356 -0.000823327 0 7.64684e-06 0 0)
(0.23079 -0.000843931 0 7.89666e-06 0 0)
(0.234128 -0.0006281 0 3.9595e-06 0 0)
(0.236384 -0.000255449 0 4.4466e-07 0 0)
(0.236927 6.27462e-05 0 2.31577e-07 0 0)
(0.236294 0.00034777 0 7.22346e-07 0 0)
(0.235142 0.000745141 0 3.70735e-06 0 0)
(0.233579 0.000957124 0 6.3982e-06 0 0)
(0.231841 0.00106219 0 8.24834e-06 0 0)
(0.229983 0.00116106 0 1.0848e-05 0 0)
(0.227977 0.00128319 0 1.57138e-05 0 0)
(0.225808 0.00140528 0 2.32302e-05 0 0)
(0.223537 0.00147557 0 3.10317e-05 0 0)
(0.221295 0.00143404 0 3.42031e-05 0 0)
(0.219264 0.0012338 0 2.89339e-05 0 0)
(0.217659 0.000856927 0 1.67164e-05 0 0)
(0.216706 0.000313063 0 4.49003e-06 0 0)
(0.216621 -0.000368871 0 1.47276e-06 0 0)
(0.217571 -0.00112818 0 1.47382e-05 0 0)
(0.219666 -0.00186318 0 4.39416e-05 0 0)
(0.222844 -0.00241496 0 7.58936e-05 0 0)
(0.226834 -0.00258434 0 8.66753e-05 0 0)
(0.231145 -0.00215806 0 5.70433e-05 0 0)
(0.234987 -0.00115172 0 1.2773e-05 0 0)
(0.236691 -6.57474e-05 0 9.89348e-07 0 0)
(0.236002 0.000963649 0 6.09976e-06 0 0)
(0.234522 0.00154033 0 1.72582e-05 0 0)
(0.232779 0.00184233 0 2.59623e-05 0 0)
(0.230844 0.0020204 0 3.29892e-05 0 0)
(0.228765 0.00219149 0 4.31457e-05 0 0)
(0.226531 0.00238347 0 6.02563e-05 0 0)
(0.22414 0.00255285 0 8.31506e-05 0 0)
(0.22164 0.00262349 0 0.000103332 0 0)
(0.219147 0.00251493 0 0.000108009 0 0)
(0.216822 0.00216641 0 8.95135e-05 0 0)
(0.214872 0.00154727 0 5.27984e-05 0 0)
(0.213533 0.000655009 0 1.54959e-05 0 0)
(0.213035 -0.000473736 0 2.84884e-06 0 0)
(0.213553 -0.00176337 0 3.71723e-05 0 0)
(0.215226 -0.00307612 0 0.000125806 0 0)
(0.218176 -0.00418689 0 0.000244352 0 0)
(0.222385 -0.00476906 0 0.000323926 0 0)
(0.227564 -0.00441502 0 0.000275485 0 0)
(0.232969 -0.0028561 0 0.000104595 0 0)
(0.23641 -0.0006838 0 3.78388e-06 0 0)
(0.235833 0.00172359 0 2.0832e-05 0 0)
(0.234159 0.0024166 0 4.44521e-05 0 0)
(0.232329 0.00278135 0 6.21899e-05 0 0)
(0.230329 0.00303413 0 7.89994e-05 0 0)
(0.22818 0.0032868 0 0.000103559 0 0)
(0.225848 0.00355973 0 0.000141776 0 0)
(0.223318 0.00379694 0 0.000189288 0 0)
(0.220627 0.00389877 0 0.000227485 0 0)
(0.217884 0.00375708 0 0.000232003 0 0)
(0.215265 0.0032848 0 0.000190414 0 0)
(0.212995 0.00243289 0 0.000114185 0 0)
(0.211314 0.00119872 0 3.70672e-05 0 0)
(0.210435 -0.000375659 0 3.95332e-06 0 0)
(0.210525 -0.0021953 0 5.63522e-05 0 0)
(0.211696 -0.00410626 0 0.000214461 0 0)
(0.214113 -0.00587525 0 0.000460065 0 0)
(0.218008 -0.00711684 0 0.00070279 0 0)
(0.223506 -0.00723985 0 0.000753415 0 0)
(0.230143 -0.00551109 0 0.000439559 0 0)
(0.235731 -0.00185855 0 4.09321e-05 0 0)
(0.235773 0.00256013 0 4.7897e-05 0 0)
(0.234027 0.00334304 0 8.7336e-05 0 0)
(0.232196 0.00374737 0 0.000115911 0 0)
(0.230224 0.00406558 0 0.00014624 0 0)
(0.228097 0.0044069 0 0.000191626 0 0)
(0.225769 0.00478448 0 0.000259655 0 0)
(0.223204 0.00512309 0 0.00033944 0 0)
(0.220434 0.00529243 0 0.000398248 0 0)
(0.217578 0.00514639 0 0.000398299 0 0)
(0.214843 0.00456351 0 0.000324138 0 0)
(0.212473 0.00348131 0 0.000197935 0 0)
(0.210683 0.00191023 0 7.18824e-05 0 0)
(0.209628 -8.51757e-05 0 8.29727e-06 0 0)
(0.209406 -0.00238639 0 6.3739e-05 0 0)
(0.210127 -0.00484413 0 0.00027128 0 0)
(0.211868 -0.00726299 0 0.000630604 0 0)
(0.214975 -0.0092991 0 0.00107867 0 0)
(0.220016 -0.0102775 0 0.00140065 0 0)
(0.227122 -0.00898709 0 0.00115196 0 0)
(0.234341 -0.00412158 0 0.000261376 0 0)
(0.2358 0.00340777 0 8.67549e-05 0 0)
(0.234095 0.00426704 0 0.000143696 0 0)
(0.232341 0.00469947 0 0.000183618 0 0)
(0.230476 0.00507945 0 0.000229869 0 0)
(0.228467 0.00551703 0 0.000300374 0 0)
(0.226262 0.00601737 0 0.000402919 0 0)
(0.223813 0.00648213 0 0.000517311 0 0)
(0.221147 0.00674211 0 0.000594849 0 0)
(0.218388 0.00660204 0 0.000584747 0 0)
(0.215731 0.00590633 0 0.000473298 0 0)
(0.213386 0.00459017 0 0.000296906 0 0)
(0.211522 0.00268485 0 0.000122847 0 0)
(0.210306 0.000291456 0 2.61797e-05 0 0)
(0.20988 -0.00245929 0 7.35041e-05 0 0)
(0.210311 -0.00539561 0 0.000308279 0 0)
(0.211581 -0.00835137 0 0.000741022 0 0)
(0.213872 -0.0111174 0 0.00135031 0 0)
(0.217935 -0.0131496 0 0.00200803 0 0)
(0.224704 -0.0129318 0 0.00215948 0 0)
(0.232867 -0.00751501 0 0.000864226 0 0)
(0.235891 0.00421024 0 0.000133102 0 0)
(0.234317 0.0051433 0 0.000207775 0 0)
(0.232712 0.00559771 0 0.000258088 0 0)
(0.231032 0.00603068 0 0.000319555 0 0)
(0.229243 0.00655878 0 0.000414056 0 0)
(0.227299 0.00718394 0 0.000549021 0 0)
(0.225146 0.00778213 0 0.00069402 0 0)
(0.222793 0.00814484 0 0.000786639 0 0)
(0.220326 0.00803168 0 0.000767793 0 0)
(0.217877 0.00725856 0 0.000628137 0 0)
(0.215578 0.00575433 0 0.000413439 0 0)
(0.213594 0.00355101 0 0.00019835 0 0)
(0.212155 0.000755053 0 6.7612e-05 0 0)
(0.211491 -0.00246391 0 0.000100367 0 0)
(0.211679 -0.00588246 0 0.000349222 0 0)
(0.212658 -0.00929177 0 0.000826977 0 0)
(0.214396 -0.0126088 0 0.00153557 0 0)
(0.21743 -0.0156093 0 0.00245847 0 0)
(0.223319 -0.0168793 0 0.00319893 0 0)
(0.231733 -0.0118696 0 0.00194953 0 0)
(0.236026 0.00492207 0 0.000180013 0 0)
(0.234651 0.00593333 0 0.000271655 0 0)
(0.233256 0.00640328 0 0.000329749 0 0)
(0.231829 0.00687217 0 0.000402084 0 0)
(0.230353 0.00746808 0 0.000513301 0 0)
(0.228796 0.00819582 0 0.000670664 0 0)
(0.22712 0.00891567 0 0.000836856 0 0)
(0.225287 0.00939931 0 0.000944728 0 0)
(0.223306 0.00936149 0 0.000928304 0 0)
(0.221213 0.0085819 0 0.000777931 0 0)
(0.219058 0.00697589 0 0.000543579 0 0)
(0.216996 0.00454166 0 0.000299718 0 0)
(0.215326 0.0013617 0 0.000137547 0 0)
(0.214328 -0.0023527 0 0.000150711 0 0)
(0.214153 -0.00628271 0 0.000399939 0 0)
(0.214746 -0.0101309 0 0.000901748 0 0)
(0.216012 -0.0138819 0 0.00167189 0 0)
(0.218161 -0.0176251 0 0.00276689 0 0)
(0.222943 -0.0205103 0 0.00408851 0 0)
(0.231078 -0.0168178 0 0.00340904 0 0)
(0.236184 0.00551033 0 0.000220072 0 0)
(0.235056 0.00660606 0 0.000326992 0 0)
(0.233914 0.00708417 0 0.000389343 0 0)
(0.232787 0.00756501 0 0.000465817 0 0)
(0.231688 0.00819134 0 0.000582364 0 0)
(0.230618 0.00897702 0 0.000746339 0 0)
(0.229545 0.00978254 0 0.000919792 0 0)
(0.228402 0.0103819 0 0.00103905 0 0)
(0.227121 0.0104696 0 0.00103713 0 0)
(0.22563 0.0097992 0 0.000902443 0 0)
(0.223859 0.00822269 0 0.000674742 0 0)
(0.221908 0.00565981 0 0.000419006 0 0)
(0.22005 0.00215829 0 0.00023313 0 0)
(0.218657 -0.00203766 0 0.000221411 0 0)
(0.217944 -0.00646405 0 0.000449533 0 0)
(0.217889 -0.0107551 0 0.000946415 0 0)
(0.218476 -0.0149001 0 0.00174995 0 0)
(0.219737 -0.0192253 0 0.0029624 0 0)
(0.223301 -0.0236803 0 0.00478692 0 0)
(0.23078 -0.0219578 0 0.00503008 0 0)
(0.236345 0.00595787 0 0.000247629 0 0)
(0.23549 0.00714206 0 0.000367316 0 0)
(0.234623 0.00762017 0 0.000430393 0 0)
(0.233815 0.00808332 0 0.000503465 0 0)
(0.233116 0.0086899 0 0.000612266 0 0)
(0.232566 0.00946879 0 0.000764783 0 0)
(0.232153 0.010306 0 0.000930468 0 0)
(0.231807 0.0109881 0 0.0010522 0 0)
(0.231399 0.0112217 0 0.00106987 0 0)
(0.230776 0.010729 0 0.000965319 0 0)
(0.229771 0.00931696 0 0.000769868 0 0)
(0.228305 0.00682894 0 0.00053701 0 0)
(0.226487 0.00320154 0 0.000344979 0 0)
(0.224706 -0.00133415 0 0.000299372 0 0)
(0.223203 -0.00621671 0 0.000477128 0 0)
(0.222165 -0.0109693 0 0.00093161 0 0)
(0.221764 -0.0155104 0 0.00173437 0 0)
(0.221952 -0.0203642 0 0.00303552 0 0)
(0.224177 -0.0262696 0 0.00527712 0 0)
(0.230598 -0.0270097 0 0.00665479 0 0)
(0.236495 0.00626148 0 0.000259903 0 0)
(0.235907 0.00753474 0 0.000389269 0 0)
(0.235314 0.00800289 0 0.000450025 0 0)
(0.234817 0.00841867 0 0.000513521 0 0)
(0.2345 0.00895523 0 0.00060431 0 0)
(0.234437 0.00965655 0 0.000730472 0 0)
(0.234645 0.0104431 0 0.000870928 0 0)
(0.23508 0.0111303 0 0.000979538 0 0)
(0.2356 0.0114634 0 0.00100852 0 0)
(0.236009 0.0111705 0 0.000938587 0 0)
(0.236046 0.0100282 0 0.000792691 0 0)
(0.235511 0.00782673 0 0.000612244 0 0)
(0.234187 0.00436663 0 0.000446281 0 0)
(0.232119 -0.000230734 0 0.000368896 0 0)
(0.229695 -0.00539836 0 0.000467724 0 0)
(0.227452 -0.0105559 0 0.000838569 0 0)
(0.225797 -0.0155313 0 0.00159846 0 0)
(0.224693 -0.0208996 0 0.00294924 0 0)
(0.225425 -0.0281994 0 0.00555097 0 0)
(0.230401 -0.0318252 0 0.00819263 0 0)
(0.236612 0.00643423 0 0.000257619 0 0)
(0.23626 0.00779137 0 0.000393031 0 0)
(0.235916 0.00823851 0 0.000449401 0 0)
(0.235701 0.00858086 0 0.00049968 0 0)
(0.235719 0.00900524 0 0.000566959 0 0)
(0.236062 0.00956637 0 0.00065851 0 0)
(0.23677 0.0102167 0 0.000761372 0 0)
(0.237832 0.0108106 0 0.000842516 0 0)
(0.239131 0.01114 0 0.000867263 0 0)
(0.240468 0.0109728 0 0.000820946 0 0)
(0.241566 0.0100944 0 0.000720962 0 0)
(0.242108 0.00829421 0 0.000601932 0 0)
(0.241665 0.00536934 0 0.000495845 0 0)
(0.239853 0.00120902 0 0.000419623 0 0)
(0.236796 -0.00391716 0 0.000435331 0 0)
(0.233356 -0.00936186 0 0.00068335 0 0)
(0.230342 -0.0148138 0 0.00134638 0 0)
(0.22783 -0.0207156 0 0.00268966 0 0)
(0.226917 -0.0293926 0 0.00559276 0 0)
(0.230147 -0.0363493 0 0.00962326 0 0)
(0.236673 0.00650587 0 0.000244667 0 0)
(0.236501 0.0079307 0 0.000381625 0 0)
(0.236368 0.00834283 0 0.000432252 0 0)
(0.236397 0.00859055 0 0.000468198 0 0)
(0.236695 0.008875 0 0.000511501 0 0)
(0.237349 0.00925845 0 0.000568634 0 0)
(0.238411 0.00971721 0 0.000632256 0 0)
(0.23988 0.0101438 0 0.00068122 0 0)
(0.241672 0.0103778 0 0.000692897 0 0)
(0.243606 0.010234 0 0.000657533 0 0)
(0.24542 0.00953584 0 0.000588615 0 0)
(0.246765 0.0081245 0 0.000516558 0 0)
(0.24719 0.00582917 0 0.000463676 0 0)
(0.246091 0.00248542 0 0.000426605 0 0)
(0.243217 -0.00205031 0 0.000399001 0 0)
(0.239175 -0.00750494 0 0.000514219 0 0)
(0.235011 -0.0133077 0 0.00102163 0 0)
(0.231173 -0.0197395 0 0.00227493 0 0)
(0.228517 -0.0297829 0 0.00539079 0 0)
(0.229808 -0.040563 0 0.0109568 0 0)
(0.23666 0.00653852 0 0.0002278 0 0)
(0.236586 0.00798742 0 0.000360582 0 0)
(0.236614 0.00833783 0 0.000403587 0 0)
(0.236852 0.00847002 0 0.000425403 0 0)
(0.23739 0.00859944 0 0.000447473 0 0)
(0.238287 0.0087947 0 0.000476029 0 0)
(0.239584 0.0090473 0 0.000507266 0 0)
(0.241277 0.00928412 0 0.000529271 0 0)
(0.243296 0.00938605 0 0.000528494 0 0)
(0.245488 0.00921336 0 0.000499093 0 0)
(0.247617 0.00863456 0 0.000450103 0 0)
(0.249363 0.00754536 0 0.000403536 0 0)
(0.250356 0.0058382 0 0.000378841 0 0)
(0.250098 0.00331572 0 0.000370434 0 0)
(0.248002 -0.000307824 0 0.000357571 0 0)
(0.244191 -0.00526755 0 0.000378352 0 0)
(0.239434 -0.011106 0 0.000694083 0 0)
(0.234524 -0.0179779 0 0.0017602 0 0)
(0.230174 -0.0292482 0 0.00491787 0 0)
(0.229393 -0.0443361 0 0.0121559 0 0)
(0.236537 0.00653468 0 0.000210084 0 0)
(0.236438 0.00797503 0 0.000333924 0 0)
(0.236592 0.00822924 0 0.00036707 0 0)
(0.237028 0.00822504 0 0.000375436 0 0)
(0.237793 0.00819457 0 0.000380284 0 0)
(0.238908 0.00820996 0 0.000387748 0 0)
(0.240383 0.00827284 0 0.000396351 0 0)
(0.242202 0.00833525 0 0.00039997 0 0)
(0.244303 0.00831407 0 0.000391359 0 0)
(0.246555 0.0081092 0 0.000367154 0 0)
(0.248759 0.00762736 0 0.000332136 0 0)
(0.250669 0.00679503 0 0.000298767 0 0)
(0.251997 0.00553636 0 0.000281065 0 0)
(0.252387 0.00370198 0 0.000282796 0 0)
(0.251275 0.000979375 0 0.000286865 0 0)
(0.248258 -0.00304574 0 0.000287271 0 0)
(0.243544 -0.00845688 0 0.000429666 0 0)
(0.237923 -0.0155676 0 0.00123251 0 0)
(0.23227 -0.0276335 0 0.00415837 0 0)
(0.229075 -0.0475234 0 0.0131415 0 0)
(0.236248 0.00685173 0 0.000216398 0 0)
(0.236044 0.00803655 0 0.000317175 0 0)
(0.236287 0.00807058 0 0.000331413 0 0)
(0.236922 0.00787722 0 0.00032404 0 0)
(0.237929 0.00767516 0 0.000314259 0 0)
(0.239272 0.00752341 0 0.000306809 0 0)
(0.240932 0.00742523 0 0.000301199 0 0)
(0.242869 0.00734612 0 0.000294146 0 0)
(0.245024 0.00722862 0 0.000281892 0 0)
(0.247291 0.00700363 0 0.000262397 0 0)
(0.249515 0.00660364 0 0.000237319 0 0)
(0.251504 0.00597055 0 0.000212227 0 0)
(0.253041 0.00504759 0 0.000194927 0 0)
(0.25387 0.0037345 0 0.000191647 0 0)
(0.253562 0.00177663 0 0.000196626 0 0)
(0.251594 -0.00125933 0 0.000200634 0 0)
(0.247267 -0.00579118 0 0.000252743 0 0)
(0.241968 -0.0128719 0 0.000793596 0 0)
(0.235698 -0.025043 0 0.003217 0 0)
(0.229217 -0.0504836 0 0.0140406 0 0)
(0.2356 0.00640601 0 0.000182271 0 0)
(0.234955 0.00751094 0 0.000261768 0 0)
(0.235493 0.00749207 0 0.000269896 0 0)
(0.236512 0.00723715 0 0.000258913 0 0)
(0.23787 0.00694879 0 0.000244116 0 0)
(0.239516 0.00669039 0 0.000230144 0 0)
(0.241427 0.00648407 0 0.00021824 0 0)
(0.243553 0.00631181 0 0.000207093 0 0)
(0.245836 0.00613456 0 0.000194655 0 0)
(0.248193 0.0059045 0 0.000179495 0 0)
(0.250505 0.00557279 0 0.000161699 0 0)
(0.252635 0.00509399 0 0.00014308 0 0)
(0.254391 0.00443033 0 0.00012687 0 0)
(0.255563 0.00350798 0 0.00011637 0 0)
(0.255809 0.00216124 0 0.000113077 0 0)
(0.254836 -2.54054e-05 0 0.000112709 0 0)
(0.251032 -0.00344955 0 0.000141512 0 0)
(0.247866 -0.0103872 0 0.000504525 0 0)
(0.24037 -0.0220082 0 0.00232179 0 0)
(0.230271 -0.0541334 0 0.0151979 0 0)
(0.234712 0.0103324 0 0.000468432 0 0)
(0.234041 0.00992109 0 0.000445472 0 0)
(0.235124 0.00864702 0 0.000346872 0 0)
(0.236635 0.00752703 0 0.000268366 0 0)
(0.238429 0.00673702 0 0.00021884 0 0)
(0.240536 0.00616135 0 0.000185674 0 0)
(0.242907 0.00573825 0 0.000162603 0 0)
(0.245454 0.00541581 0 0.000145377 0 0)
(0.248106 0.00514178 0 0.000130852 0 0)
(0.250793 0.00487275 0 0.000117177 0 0)
(0.253423 0.00457378 0 0.000103594 0 0)
(0.255863 0.00421767 0 9.01571e-05 0 0)
(0.25796 0.00377212 0 7.70386e-05 0 0)
(0.259568 0.00318487 0 6.42361e-05 0 0)
(0.260321 0.00236181 0 5.23324e-05 0 0)
(0.26035 0.000896022 0 4.1283e-05 0 0)
(0.256897 -0.00161998 0 5.68164e-05 0 0)
(0.258519 -0.00800626 0 0.000313374 0 0)
(0.243573 -0.0176104 0 0.00140449 0 0)
(0.235121 -0.0576233 0 0.0157337 0 0)
(0.233532 0.00385535 0 6.83609e-05 0 0)
(0.232305 0.00235943 0 2.58433e-05 0 0)
(0.23611 0.00246934 0 2.82733e-05 0 0)
(0.240381 0.00314768 0 4.58914e-05 0 0)
(0.244832 0.00334033 0 5.15915e-05 0 0)
(0.249213 0.00325958 0 4.92015e-05 0 0)
(0.253405 0.00314873 0 4.58666e-05 0 0)
(0.257405 0.00306122 0 4.317e-05 0 0)
(0.261242 0.00297756 0 4.0601e-05 0 0)
(0.26493 0.00287862 0 3.76967e-05 0 0)
(0.268453 0.00275606 0 3.43822e-05 0 0)
(0.271764 0.00260187 0 3.06724e-05 0 0)
(0.274772 0.00240568 0 2.65608e-05 0 0)
(0.277461 0.00212447 0 2.14111e-05 0 0)
(0.27936 0.00172669 0 1.52217e-05 0 0)
(0.281313 0.000884959 0 6.64488e-06 0 0)
(0.277916 -0.000308658 0 9.13478e-06 0 0)
(0.284472 -0.00448425 0 0.000109644 0 0)
(0.248056 -0.009269 0 0.00040374 0 0)
(0.265346 -0.0536237 0 0.0113971 0 0)
(0.256067 0.0226478 0 0.00201983 0 0)
(0.266343 0.016907 0 0.00111781 0 0)
(0.278772 0.0106253 0 0.000436313 0 0)
(0.289491 0.00708883 0 0.00019277 0 0)
(0.29779 0.00522934 0 0.000104225 0 0)
(0.304797 0.00413903 0 6.47496e-05 0 0)
(0.31122 0.00342198 0 4.38094e-05 0 0)
(0.317228 0.00291378 0 3.14125e-05 0 0)
(0.322854 0.00253188 0 2.3458e-05 0 0)
(0.32814 0.00223428 0 1.80794e-05 0 0)
(0.333111 0.00199205 0 1.42359e-05 0 0)
(0.33777 0.00178605 0 1.13461e-05 0 0)
(0.342056 0.00160246 0 9.06148e-06 0 0)
(0.345995 0.00142412 0 7.09372e-06 0 0)
(0.349025 0.00122464 0 5.18376e-06 0 0)
(0.352412 0.000939154 0 2.9361e-06 0 0)
(0.349259 0.000584647 0 1.16991e-06 0 0)
(0.362134 -0.000688848 0 5.09781e-06 0 0)
(0.294978 0.00142711 0 4.03674e-05 0 0)
(0.44076 -0.0310683 0 0.00220359 0 0)
)
;

boundaryField
{
    movingWall
    {
        type            calculated;
        value           uniform (0.946746 0 0 0 0 0);
    }
    fixedWalls
    {
        type            calculated;
        value           uniform (0.236686 0 0 0 0 0);
    }
    frontAndBack
    {
        type            empty;
    }
}


// ************************************************************************* //
