/*--------------------------------*- C++ -*----------------------------------*\
| =========                 |                                                 |
| \\      /  F ield         | OpenFOAM: The Open Source CFD Toolbox           |
|  \\    /   O peration     | Version:  2312                                  |
|   \\  /    A nd           | Website:  www.openfoam.com                      |
|    \\/     M anipulation  |                                                 |
\*---------------------------------------------------------------------------*/
FoamFile
{
    version     2.0;
    format      ascii;
    arch        "LSB;label=32;scalar=64";
    class       volVectorField;
    location    "6.5";
    object      vorticityField;
}
// * * * * * * * * * * * * * * * * * * * * * * * * * * * * * * * * * * * * * //

dimensions      [0 0 -1 0 0 0 0];

internalField   nonuniform List<vector> 
400
(
(0 -0 1.00674e-11)
(0 -0 -1.36934e-11)
(0 -0 2.91935e-12)
(0 -0 -7.55515e-13)
(0 -0 3.4752e-14)
(0 -0 -7.30531e-14)
(0 -0 -2.65647e-14)
(0 -0 -2.20784e-14)
(0 -0 -2.00734e-14)
(0 -0 -2.54804e-15)
(0 -0 -8.61169e-17)
(0 -0 1.66333e-15)
(0 -0 -1.52471e-14)
(0 -0 -2.43407e-14)
(0 -0 3.99696e-14)
(0 -0 6.38283e-14)
(0 -0 7.35287e-14)
(0 -0 8.23701e-14)
(0 -0 4.96506e-14)
(0 -0 -5.92413e-16)
(0 -0 6.16769e-13)
(0 -0 -3.50523e-13)
(0 -0 3.35767e-13)
(0 -0 1.45899e-13)
(0 -0 1.35837e-13)
(0 -0 9.71966e-14)
(0 -0 9.92143e-14)
(0 -0 7.38864e-14)
(0 -0 7.58463e-14)
(0 -0 5.49355e-14)
(0 -0 6.97547e-14)
(0 -0 7.61941e-14)
(0 -0 -4.81606e-15)
(0 -0 -6.07971e-14)
(0 -0 -1.06917e-13)
(0 -0 7.31265e-15)
(0 -0 1.12579e-14)
(0 -0 -4.56062e-14)
(0 -0 -6.23252e-14)
(0 -0 2.37368e-14)
(0 -0 -6.34817e-12)
(0 -0 1.19352e-11)
(0 -0 -2.61992e-12)
(0 -0 6.69243e-13)
(0 -0 1.2178e-14)
(0 -0 9.83995e-14)
(0 -0 5.17797e-14)
(0 -0 2.72721e-14)
(0 -0 1.1737e-14)
(0 -0 8.37643e-15)
(0 -0 2.34331e-14)
(0 -0 3.53483e-14)
(0 -0 7.40063e-14)
(0 -0 1.23023e-13)
(0 -0 1.56084e-14)
(0 -0 -1.7661e-14)
(0 -0 -7.13741e-14)
(0 -0 -1.30718e-13)
(0 -0 -5.79265e-14)
(0 -0 3.6178e-14)
(0 -0 4.72188e-12)
(0 -0 -9.7037e-12)
(0 -0 2.12335e-12)
(0 -0 -5.43011e-13)
(0 -0 2.43626e-14)
(0 -0 -3.46665e-14)
(0 -0 1.47156e-14)
(0 -0 1.3908e-13)
(0 -0 7.00557e-14)
(0 -0 -1.08779e-14)
(0 -0 3.92573e-14)
(0 -0 -1.02122e-14)
(0 -0 2.13772e-14)
(0 -0 -3.23507e-15)
(0 -0 -5.90931e-14)
(0 -0 -8.50488e-14)
(0 -0 -5.79998e-14)
(0 -0 -3.91063e-15)
(0 -0 5.57809e-14)
(0 -0 -4.9224e-15)
(0 -0 -7.21505e-13)
(0 -0 6.64328e-13)
(0 -0 -3.7265e-13)
(0 -0 -8.15643e-14)
(0 -0 -1.48171e-13)
(0 -0 -2.09603e-13)
(0 -0 -2.03453e-13)
(0 -0 -1.82317e-13)
(0 -0 -1.30009e-13)
(0 -0 -7.96967e-14)
(0 -0 -1.6693e-13)
(0 -0 -1.5325e-13)
(0 -0 -1.64042e-13)
(0 -0 -1.80783e-13)
(0 -0 1.44253e-14)
(0 -0 2.87372e-14)
(0 -0 4.43896e-14)
(0 -0 2.7982e-14)
(0 -0 -4.44328e-15)
(0 -0 3.98888e-14)
(0 -0 -3.30115e-12)
(0 -0 7.73545e-12)
(0 -0 -1.74156e-12)
(0 -0 4.56906e-13)
(0 -0 -2.68576e-14)
(0 -0 2.95748e-14)
(0 -0 -2.64091e-14)
(0 -0 -9.37884e-14)
(0 -0 -1.16285e-13)
(0 -0 -8.56468e-14)
(0 -0 -5.12068e-14)
(0 -0 -5.12839e-15)
(0 -0 -2.00611e-14)
(0 -0 4.14383e-14)
(0 -0 5.38686e-15)
(0 -0 2.6241e-14)
(0 -0 3.48546e-14)
(0 -0 3.5351e-14)
(0 -0 -2.99673e-15)
(0 -0 -2.09828e-14)
(0 -0 5.15312e-12)
(0 -0 -9.78857e-12)
(0 -0 2.40133e-12)
(0 -0 -4.70154e-13)
(0 -0 1.75026e-13)
(0 -0 1.68648e-14)
(0 -0 1.04187e-13)
(0 -0 8.79481e-14)
(0 -0 1.37894e-13)
(0 -0 2.46247e-13)
(0 -0 1.81767e-13)
(0 -0 1.15586e-13)
(0 -0 1.34242e-13)
(0 -0 9.28001e-14)
(0 -0 4.03944e-14)
(0 -0 -4.9362e-16)
(0 -0 6.21341e-14)
(0 -0 1.19889e-14)
(0 -0 7.74932e-15)
(0 -0 -1.11014e-14)
(0 -0 -2.01606e-12)
(0 -0 2.04051e-12)
(0 -0 -6.41345e-13)
(0 -0 6.5652e-14)
(0 -0 -1.0692e-13)
(0 -0 -6.01745e-14)
(0 -0 -5.89589e-14)
(0 -0 -3.56546e-15)
(0 -0 -2.20483e-15)
(0 -0 -5.45363e-14)
(0 -0 -2.60512e-15)
(0 -0 -3.84048e-15)
(0 -0 -9.38466e-15)
(0 -0 -5.69416e-14)
(0 -0 2.03144e-14)
(0 -0 7.88225e-14)
(0 -0 -1.44052e-15)
(0 -0 -2.82876e-15)
(0 -0 1.14856e-14)
(0 -0 1.79727e-14)
(0 -0 -3.30187e-12)
(0 -0 5.81979e-12)
(0 -0 -1.48227e-12)
(0 -0 2.91489e-13)
(0 -0 -1.18075e-13)
(0 -0 3.9425e-14)
(0 -0 -2.5041e-14)
(0 -0 -9.52227e-14)
(0 -0 -1.36123e-13)
(0 -0 -1.36065e-13)
(0 -0 -9.36481e-14)
(0 -0 -7.79656e-14)
(0 -0 -6.8575e-14)
(0 -0 -7.03641e-15)
(0 -0 -1.17157e-14)
(0 -0 -5.54913e-14)
(0 -0 -6.62385e-14)
(0 -0 -7.75127e-15)
(0 -0 5.29078e-15)
(0 -0 -1.2132e-14)
(0 -0 7.66746e-12)
(0 -0 -8.8192e-12)
(0 -0 2.18125e-12)
(0 -0 -5.15343e-13)
(0 -0 1.34926e-13)
(0 -0 -8.16664e-15)
(0 -0 -1.79035e-14)
(0 -0 -5.74074e-14)
(0 -0 -1.07073e-14)
(0 -0 -5.15722e-14)
(0 -0 -7.45272e-14)
(0 -0 -2.66501e-14)
(0 -0 -1.15423e-14)
(0 -0 -1.2727e-14)
(0 -0 -3.03803e-14)
(0 -0 -6.26773e-14)
(0 -0 -1.87573e-14)
(0 -0 3.04488e-15)
(0 -0 -8.60015e-15)
(0 -0 3.7629e-14)
(0 -0 -8.87108e-12)
(0 -0 8.99051e-12)
(0 -0 -1.93035e-12)
(0 -0 5.53904e-13)
(0 -0 -4.11605e-14)
(0 -0 4.48041e-14)
(0 -0 -5.77519e-15)
(0 -0 2.62052e-14)
(0 -0 -1.66818e-14)
(0 -0 -2.78528e-14)
(0 -0 9.76134e-15)
(0 -0 3.12732e-14)
(0 -0 7.70469e-14)
(0 -0 1.39722e-13)
(0 -0 1.22707e-13)
(0 -0 1.00448e-13)
(0 -0 2.61477e-14)
(0 -0 -2.09741e-15)
(0 -0 -4.279e-14)
(0 -0 -2.49873e-14)
(0 -0 6.49124e-12)
(0 -0 -7.45962e-12)
(0 -0 1.75445e-12)
(0 -0 -3.21622e-13)
(0 -0 1.26608e-13)
(0 -0 1.00854e-13)
(0 -0 1.3056e-13)
(0 -0 1.18761e-13)
(0 -0 1.10271e-13)
(0 -0 9.25384e-14)
(0 -0 8.937e-14)
(0 -0 8.33284e-14)
(0 -0 9.65535e-14)
(0 -0 9.43157e-14)
(0 -0 2.74933e-14)
(0 -0 -1.17596e-14)
(0 -0 4.98768e-14)
(0 -0 6.29372e-14)
(0 -0 -2.2637e-15)
(0 -0 -7.57713e-15)
(0 -0 -3.91954e-13)
(0 -0 1.62239e-12)
(0 -0 -4.10131e-13)
(0 -0 7.81741e-15)
(0 -0 -3.173e-14)
(0 -0 1.51703e-14)
(0 -0 5.2183e-14)
(0 -0 2.65739e-14)
(0 -0 4.72006e-14)
(0 -0 -6.55189e-14)
(0 -0 -1.08028e-13)
(0 -0 -6.5802e-14)
(0 -0 -3.29798e-14)
(0 -0 -8.85387e-14)
(0 -0 -2.58855e-14)
(0 -0 -7.50614e-14)
(0 -0 -6.24014e-14)
(0 -0 -6.0936e-14)
(0 -0 1.27759e-14)
(0 -0 4.1431e-14)
(0 -0 -5.84687e-12)
(0 -0 7.25241e-12)
(0 -0 -1.66214e-12)
(0 -0 4.27603e-13)
(0 -0 -9.76598e-14)
(0 -0 1.11493e-14)
(0 -0 5.94734e-14)
(0 -0 9.98495e-14)
(0 -0 7.31861e-15)
(0 -0 -6.7675e-16)
(0 -0 -2.90406e-16)
(0 -0 5.05511e-14)
(0 -0 -9.1975e-14)
(0 -0 -8.65772e-14)
(0 -0 -4.44814e-14)
(0 -0 3.31787e-14)
(0 -0 -4.54506e-14)
(0 -0 -4.96383e-14)
(0 -0 -1.32602e-14)
(0 -0 2.45904e-14)
(0 -0 9.57551e-12)
(0 -0 -1.35433e-11)
(0 -0 3.17512e-12)
(0 -0 -7.19084e-13)
(0 -0 1.7092e-13)
(0 -0 3.08623e-14)
(0 -0 -6.21543e-14)
(0 -0 -1.10274e-13)
(0 -0 -9.58525e-14)
(0 -0 5.40845e-15)
(0 -0 9.72771e-15)
(0 -0 -4.44463e-14)
(0 -0 4.32952e-14)
(0 -0 2.49836e-14)
(0 -0 -7.38006e-14)
(0 -0 -8.87689e-15)
(0 -0 -2.47768e-14)
(0 -0 3.25842e-14)
(0 -0 4.04707e-14)
(0 -0 1.56495e-15)
(0 -0 -6.87447e-12)
(0 -0 8.86202e-12)
(0 -0 -2.18045e-12)
(0 -0 3.76901e-13)
(0 -0 -1.73958e-13)
(0 -0 -1.20941e-13)
(0 -0 -1.76012e-13)
(0 -0 -1.58711e-13)
(0 -0 -4.51972e-14)
(0 -0 -3.1569e-14)
(0 -0 -3.0789e-14)
(0 -0 -4.28248e-14)
(0 -0 3.41493e-16)
(0 -0 -6.63715e-14)
(0 -0 -1.95329e-14)
(0 -0 -5.62839e-14)
(0 -0 4.20523e-14)
(0 -0 -4.14379e-14)
(0 -0 3.44024e-14)
(0 -0 -1.89749e-15)
(0 -0 1.64506e-12)
(0 -0 1.62601e-12)
(0 -0 -3.79976e-13)
(0 -0 2.9422e-14)
(0 -0 -8.17597e-14)
(0 -0 -7.09921e-14)
(0 -0 -6.81735e-15)
(0 -0 4.66319e-14)
(0 -0 3.77717e-14)
(0 -0 5.63171e-15)
(0 -0 2.35739e-14)
(0 -0 3.60656e-14)
(0 -0 -4.99117e-14)
(0 -0 -1.40339e-14)
(0 -0 3.23314e-15)
(0 -0 1.27092e-14)
(0 -0 4.65712e-14)
(0 -0 3.41459e-14)
(0 -0 -6.96496e-15)
(0 -0 -9.02522e-15)
(0 -0 3.57821e-12)
(0 -0 -9.19355e-12)
(0 -0 2.14143e-12)
(0 -0 -5.39769e-13)
(0 -0 9.8788e-14)
(0 -0 -3.26297e-14)
(0 -0 4.0595e-14)
(0 -0 3.33636e-14)
(0 -0 2.16511e-14)
(0 -0 5.37711e-14)
(0 -0 6.89217e-14)
(0 -0 3.57035e-14)
(0 -0 7.54712e-14)
(0 -0 1.12055e-13)
(0 -0 1.19649e-13)
(0 -0 1.18544e-13)
(0 -0 6.29309e-14)
(0 -0 2.73987e-15)
(0 -0 -7.09081e-15)
(0 -0 -1.62839e-14)
(0 -0 -3.0715e-12)
(0 -0 3.25672e-12)
(0 -0 -9.2626e-13)
(0 -0 1.77699e-13)
(0 -0 -4.80108e-14)
(0 -0 -1.97654e-14)
(0 -0 1.70888e-15)
(0 -0 6.6042e-15)
(0 -0 1.23569e-14)
(0 -0 -1.17786e-14)
(0 -0 4.62615e-15)
(0 -0 -5.0008e-15)
(0 -0 -6.2649e-14)
(0 -0 -7.2197e-15)
(0 -0 5.4071e-15)
(0 -0 1.00961e-14)
(0 -0 8.93704e-15)
(0 -0 3.2751e-14)
(0 -0 -6.32019e-15)
(0 -0 -8.92535e-15)
(0 -0 -5.17049e-12)
(0 -0 8.27028e-12)
(0 -0 -1.63094e-12)
(0 -0 5.0672e-13)
(0 -0 -2.52345e-15)
(0 -0 1.0659e-13)
(0 -0 3.14938e-14)
(0 -0 3.92175e-14)
(0 -0 8.21258e-15)
(0 -0 2.99374e-14)
(0 -0 -6.72357e-15)
(0 -0 -1.226e-14)
(0 -0 -1.21621e-14)
(0 -0 -6.5591e-14)
(0 -0 -5.34321e-14)
(0 -0 -4.40641e-14)
(0 -0 -4.03251e-14)
(0 -0 5.21027e-15)
(0 -0 -7.72715e-15)
(0 -0 1.44637e-16)
)
;

boundaryField
{
    movingWall
    {
        type            calculated;
        value           nonuniform List<vector> 
20
(
(0 -0 -1.05513e-11)
(0 -0 1.01325e-11)
(0 -0 -1.4037e-12)
(0 -0 7.18963e-13)
(0 -0 1.38206e-13)
(0 -0 2.02911e-13)
(0 -0 4.87977e-14)
(0 -0 5.65213e-14)
(0 -0 8.21258e-15)
(0 -0 4.72412e-14)
(0 -0 3.76854e-14)
(0 -0 3.21489e-14)
(0 -0 7.66558e-14)
(0 -0 7.7437e-14)
(0 -0 4.51869e-14)
(0 -0 5.45549e-14)
(0 -0 -7.49328e-14)
(0 -0 5.21027e-15)
(0 -0 -7.72715e-15)
(0 -0 1.44637e-16)
)
;
    }
    fixedWalls
    {
        type            calculated;
        value           nonuniform List<vector> 
60
(
(0 -0 5.75567e-11)
(0 -0 2.73334e-12)
(0 -0 -5.05377e-11)
(0 -0 4.08656e-11)
(0 -0 -3.99278e-12)
(0 -0 -3.25965e-11)
(0 -0 4.24007e-11)
(0 -0 -9.73743e-12)
(0 -0 -2.52675e-11)
(0 -0 3.84865e-11)
(0 -0 -3.79232e-11)
(0 -0 3.21345e-11)
(0 -0 -7.0752e-12)
(0 -0 -3.1498e-11)
(0 -0 5.80116e-11)
(0 -0 -3.82204e-11)
(0 -0 -6.65882e-12)
(0 -0 3.96102e-11)
(0 -0 -1.49758e-11)
(0 -0 -3.44143e-11)
(0 -0 -2.54417e-15)
(0 -0 3.04567e-14)
(0 -0 5.89029e-14)
(0 -0 1.33561e-14)
(0 -0 5.57567e-14)
(0 -0 -1.04533e-14)
(0 -0 -2.69474e-14)
(0 -0 2.79792e-16)
(0 -0 -8.70869e-15)
(0 -0 5.4729e-14)
(0 -0 -4.9983e-15)
(0 -0 -1.09052e-15)
(0 -0 3.54208e-14)
(0 -0 1.255e-14)
(0 -0 -1.53587e-14)
(0 -0 -1.09851e-14)
(0 -0 -8.09544e-15)
(0 -0 -1.84344e-14)
(0 -0 -4.28107e-15)
(0 -0 8.86551e-15)
(0 -0 1.55203e-11)
(0 -0 -1.58839e-11)
(0 -0 2.45045e-12)
(0 -0 -1.1898e-12)
(0 -0 -3.00917e-13)
(0 -0 -3.12402e-13)
(0 -0 -2.65913e-13)
(0 -0 -2.17018e-13)
(0 -0 -1.70604e-13)
(0 -0 -4.6957e-14)
(0 -0 -4.4495e-14)
(0 -0 -8.71545e-14)
(0 -0 -1.52471e-14)
(0 -0 6.44772e-14)
(0 -0 1.63395e-13)
(0 -0 9.84361e-14)
(0 -0 1.93186e-14)
(0 -0 8.98728e-14)
(0 -0 -4.89684e-14)
(0 -0 -5.92413e-16)
)
;
    }
    frontAndBack
    {
        type            empty;
    }
}


// ************************************************************************* //
