/*--------------------------------*- C++ -*----------------------------------*\
| =========                 |                                                 |
| \\      /  F ield         | OpenFOAM: The Open Source CFD Toolbox           |
|  \\    /   O peration     | Version:  2312                                  |
|   \\  /    A nd           | Website:  www.openfoam.com                      |
|    \\/     M anipulation  |                                                 |
\*---------------------------------------------------------------------------*/
FoamFile
{
    version     2.0;
    format      ascii;
    arch        "LSB;label=32;scalar=64";
    class       volVectorField;
    location    "6.5";
    object      wallShearStress;
}
// * * * * * * * * * * * * * * * * * * * * * * * * * * * * * * * * * * * * * //

dimensions      [0 2 -2 0 0 0 0];

internalField   uniform (0 0 0);

boundaryField
{
    movingWall
    {
        type            calculated;
        value           uniform (0 0 0);
    }
    fixedWalls
    {
        type            calculated;
        value           nonuniform List<vector> 
60
(
(1.55029e-16 -6.06466e-16 0)
(-3.25144e-16 -2.57071e-17 0)
(1.27219e-16 5.94281e-16 0)
(1.85599e-16 -4.88887e-16 0)
(-2.91129e-16 4.04699e-17 0)
(1.85627e-16 4.01317e-16 0)
(9.07438e-17 -5.00985e-16 0)
(-2.26114e-16 9.52059e-17 0)
(1.2014e-16 2.92248e-16 0)
(-1.24903e-17 -3.8107e-16 0)
(4.02904e-17 3.43996e-16 0)
(-4.77931e-17 -3.17008e-16 0)
(-4.36057e-17 9.62307e-17 0)
(8.88445e-17 3.23111e-16 0)
(7.22444e-17 -6.24568e-16 0)
(-2.61382e-16 3.97925e-16 0)
(2.6646e-16 1.38688e-16 0)
(3.96065e-17 -5.00728e-16 0)
(-2.87611e-16 1.48674e-16 0)
(1.30571e-16 3.84258e-16 0)
(4.65208e-20 -2.54417e-20 0)
(1.28665e-18 3.04567e-19 0)
(1.66742e-20 5.89029e-19 0)
(-6.42538e-19 6.75662e-19 0)
(-3.96824e-20 1.54658e-20 0)
(-6.84784e-19 4.37568e-19 0)
(-1.2567e-18 -2.69474e-19 0)
(7.55729e-20 -5.39303e-19 0)
(-5.0137e-19 4.55014e-19 0)
(6.18398e-21 5.18928e-21 0)
(-4.78575e-20 4.92118e-19 0)
(-6.15104e-19 -1.09052e-20 0)
(2.27342e-20 -1.87893e-19 0)
(-3.94574e-20 1.255e-19 0)
(-3.92251e-20 -1.53587e-19 0)
(1.21055e-20 -1.09851e-19 0)
(-1.24155e-20 -8.09544e-20 0)
(6.35728e-21 -1.84344e-19 0)
(4.54998e-20 -4.28107e-20 0)
(-7.64072e-21 8.86551e-20 0)
(-7.70437e-17 -7.91636e-16 0)
(1.21535e-16 1.76467e-16 0)
(-3.60508e-17 -4.27083e-17 0)
(2.12807e-18 7.03496e-18 0)
(-5.87261e-18 -3.31767e-18 0)
(-2.20505e-18 -7.81593e-19 0)
(-2.66994e-18 -6.86402e-19 0)
(-2.27071e-18 -4.49012e-19 0)
(-1.84667e-18 -1.13519e-18 0)
(-4.18609e-19 -1.00474e-18 0)
(-4.43228e-19 -6.37895e-19 0)
(-9.04812e-19 -8.19442e-19 0)
(1.52471e-19 -1.26871e-18 0)
(1.13159e-18 -1.86962e-19 0)
(1.91876e-18 5.71564e-19 0)
(7.91996e-19 9.33931e-19 0)
(-1.93186e-19 4.19993e-19 0)
(8.77629e-19 -2.77095e-19 0)
(-3.98494e-19 2.32686e-21 0)
(5.92413e-21 -3.39222e-20 0)
)
;
    }
    frontAndBack
    {
        type            empty;
    }
}


// ************************************************************************* //
