/*--------------------------------*- C++ -*----------------------------------*\
| =========                 |                                                 |
| \\      /  F ield         | OpenFOAM: The Open Source CFD Toolbox           |
|  \\    /   O peration     | Version:  2312                                  |
|   \\  /    A nd           | Website:  www.openfoam.com                      |
|    \\/     M anipulation  |                                                 |
\*---------------------------------------------------------------------------*/
FoamFile
{
    version     2.0;
    format      ascii;
    arch        "LSB;label=32;scalar=64";
    class       volScalarField;
    location    "6.5";
    object      yPlus;
}
// * * * * * * * * * * * * * * * * * * * * * * * * * * * * * * * * * * * * * //

dimensions      [0 0 0 0 0 0 0];

internalField   uniform 0;

boundaryField
{
    movingWall
    {
        type            calculated;
        value           nonuniform List<scalar> 
20
(
4.78122e-06
2.21661e-06
1.11241e-06
5.11982e-07
3.9697e-07
3.33547e-07
1.73299e-07
1.67376e-07
1.3715e-07
1.92125e-07
1.94825e-07
1.6958e-07
2.3604e-07
2.45034e-07
2.08044e-07
1.86456e-07
2.36776e-07
1.17375e-07
7.19677e-08
7.44375e-08
)
;
    }
    fixedWalls
    {
        type            calculated;
        value           nonuniform List<scalar> 
60
(
6.08434e-06
2.55768e-06
5.8709e-06
5.33314e-06
2.77849e-06
4.81908e-06
5.38395e-06
2.78096e-06
4.13922e-06
4.89241e-06
4.76724e-06
4.52005e-06
2.44754e-06
4.46946e-06
6.15241e-06
5.02939e-06
2.95676e-06
5.30224e-06
3.42655e-06
4.78122e-06
3.98761e-08
2.42248e-07
1.91871e-07
1.93774e-07
1.33818e-07
1.7217e-07
2.40852e-07
1.29483e-07
1.73329e-07
1.31396e-07
1.17545e-07
1.66625e-07
7.20926e-08
8.85649e-08
9.79755e-08
8.28593e-08
7.11312e-08
1.07338e-07
5.17269e-08
7.44375e-08
6.08434e-06
2.82721e-06
1.38778e-06
6.75019e-07
5.56979e-07
4.09505e-07
4.10137e-07
3.74653e-07
3.41756e-07
2.18093e-07
2.01985e-07
2.59817e-07
1.84553e-07
2.3561e-07
3.37949e-07
2.56493e-07
5.24073e-08
2.38769e-07
1.66601e-07
3.98761e-08
)
;
    }
    frontAndBack
    {
        type            empty;
    }
}


// ************************************************************************* //
