/*--------------------------------*- C++ -*----------------------------------*\
| =========                 |                                                 |
| \\      /  F ield         | OpenFOAM: The Open Source CFD Toolbox           |
|  \\    /   O peration     | Version:  2312                                  |
|   \\  /    A nd           | Website:  www.openfoam.com                      |
|    \\/     M anipulation  |                                                 |
\*---------------------------------------------------------------------------*/
FoamFile
{
    version     2.0;
    format      ascii;
    arch        "LSB;label=32;scalar=64";
    class       volVectorField;
    location    "5.625";
    object      diffU;
}
// * * * * * * * * * * * * * * * * * * * * * * * * * * * * * * * * * * * * * //

dimensions      [0 1 -1 0 0 0 0];

internalField   nonuniform List<vector> 
400
(
(0 0 0)
(1.83187e-14 -1.21742e-13 0)
(1.35447e-14 -9.60393e-14 0)
(1.40998e-14 -1.02e-13 0)
(1.39888e-14 -1.00863e-13 0)
(1.39888e-14 -1.01203e-13 0)
(1.39888e-14 -1.01225e-13 0)
(1.43219e-14 -1.01231e-13 0)
(1.42109e-14 -1.01139e-13 0)
(1.43219e-14 -1.01031e-13 0)
(1.42109e-14 -1.00958e-13 0)
(1.40998e-14 -1.01009e-13 0)
(1.42109e-14 -1.01004e-13 0)
(1.40998e-14 -1.00964e-13 0)
(1.37668e-14 -1.00929e-13 0)
(1.37668e-14 -1.00957e-13 0)
(1.38778e-14 -1.01028e-13 0)
(1.37668e-14 -1.01047e-13 0)
(1.38778e-14 -1.01055e-13 0)
(1.37668e-14 -1.0103e-13 0)
(3.20854e-14 -6.10528e-14 0)
(8.43769e-15 -1.10291e-13 0)
(1.35447e-14 -9.8948e-14 0)
(1.35447e-14 -1.01637e-13 0)
(1.38778e-14 -1.00999e-13 0)
(1.39888e-14 -1.01072e-13 0)
(1.39888e-14 -1.0108e-13 0)
(1.35447e-14 -1.01005e-13 0)
(1.35447e-14 -1.00947e-13 0)
(1.33227e-14 -1.00946e-13 0)
(1.31006e-14 -1.00892e-13 0)
(1.33227e-14 -1.00897e-13 0)
(1.33227e-14 -1.0089e-13 0)
(1.33227e-14 -1.00891e-13 0)
(1.31006e-14 -1.01006e-13 0)
(1.33227e-14 -1.01005e-13 0)
(1.33227e-14 -1.01091e-13 0)
(1.38778e-14 -1.01084e-13 0)
(1.33227e-14 -1.0113e-13 0)
(1.35447e-14 -1.01117e-13 0)
(1.35447e-14 -2.36967e-13 0)
(1.42109e-14 -7.17853e-14 0)
(1.40998e-14 -1.07987e-13 0)
(1.35447e-14 -9.96503e-14 0)
(1.33227e-14 -1.01492e-13 0)
(1.33227e-14 -1.01005e-13 0)
(1.33227e-14 -1.00954e-13 0)
(1.35447e-14 -1.00803e-13 0)
(1.35447e-14 -1.00748e-13 0)
(1.33227e-14 -1.00887e-13 0)
(1.33227e-14 -1.00975e-13 0)
(1.35447e-14 -1.01013e-13 0)
(1.35447e-14 -1.00994e-13 0)
(1.40998e-14 -1.00959e-13 0)
(1.38778e-14 -1.01115e-13 0)
(1.38778e-14 -1.0114e-13 0)
(1.38778e-14 -1.01142e-13 0)
(1.39888e-14 -1.01109e-13 0)
(1.39888e-14 -1.01181e-13 0)
(1.37668e-14 -1.01173e-13 0)
(6.66134e-16 -8.8823e-15 0)
(1.73195e-14 -1.20973e-13 0)
(1.37668e-14 -9.65348e-14 0)
(1.38778e-14 -1.02075e-13 0)
(1.40998e-14 -1.00908e-13 0)
(1.40998e-14 -1.01194e-13 0)
(1.38778e-14 -1.01082e-13 0)
(1.38778e-14 -1.01019e-13 0)
(1.39888e-14 -1.00907e-13 0)
(1.42109e-14 -1.00893e-13 0)
(1.39888e-14 -1.01009e-13 0)
(1.39888e-14 -1.01131e-13 0)
(1.40998e-14 -1.0115e-13 0)
(1.42109e-14 -1.01065e-13 0)
(1.40998e-14 -1.01043e-13 0)
(1.42109e-14 -1.01029e-13 0)
(1.39888e-14 -1.00971e-13 0)
(1.37668e-14 -1.01053e-13 0)
(1.38778e-14 -1.01144e-13 0)
(1.40998e-14 -1.01088e-13 0)
(1.80966e-14 -1.10477e-13 0)
(1.22125e-14 -9.96828e-14 0)
(1.35447e-14 -1.0157e-13 0)
(1.42109e-14 -1.01046e-13 0)
(1.39888e-14 -1.01065e-13 0)
(1.38778e-14 -1.00997e-13 0)
(1.40998e-14 -1.00887e-13 0)
(1.40998e-14 -1.0079e-13 0)
(1.38778e-14 -1.00837e-13 0)
(1.38778e-14 -1.00899e-13 0)
(1.39888e-14 -1.00954e-13 0)
(1.38778e-14 -1.01017e-13 0)
(1.38778e-14 -1.0105e-13 0)
(1.38778e-14 -1.0103e-13 0)
(1.39888e-14 -1.00967e-13 0)
(1.35447e-14 -1.00991e-13 0)
(1.38778e-14 -1.00943e-13 0)
(1.40998e-14 -1.00942e-13 0)
(1.37668e-14 -1.01041e-13 0)
(1.38778e-14 -1.01086e-13 0)
(2.4647e-14 -1.50359e-13 0)
(1.11022e-14 -9.10067e-14 0)
(1.43219e-14 -1.03444e-13 0)
(1.28786e-14 -1.00716e-13 0)
(1.35447e-14 -1.01239e-13 0)
(1.33227e-14 -1.00998e-13 0)
(1.31006e-14 -1.00947e-13 0)
(1.31006e-14 -1.00924e-13 0)
(1.35447e-14 -1.0094e-13 0)
(1.37668e-14 -1.01012e-13 0)
(1.33227e-14 -1.0108e-13 0)
(1.38778e-14 -1.01106e-13 0)
(1.33227e-14 -1.01122e-13 0)
(1.35447e-14 -1.01125e-13 0)
(1.35447e-14 -1.01008e-13 0)
(1.37668e-14 -1.00992e-13 0)
(1.37668e-14 -1.01072e-13 0)
(1.37668e-14 -1.00953e-13 0)
(1.38778e-14 -1.00941e-13 0)
(1.39888e-14 -1.01056e-13 0)
(2.88658e-15 -5.54004e-14 0)
(1.65423e-14 -1.10245e-13 0)
(1.35447e-14 -9.89931e-14 0)
(1.44329e-14 -1.0158e-13 0)
(1.37668e-14 -1.01041e-13 0)
(1.39888e-14 -1.01051e-13 0)
(1.40998e-14 -1.01102e-13 0)
(1.38778e-14 -1.01043e-13 0)
(1.39888e-14 -1.0095e-13 0)
(1.38778e-14 -1.01028e-13 0)
(1.39888e-14 -1.01109e-13 0)
(1.40998e-14 -1.01035e-13 0)
(1.39888e-14 -1.01005e-13 0)
(1.40998e-14 -1.01062e-13 0)
(1.35447e-14 -1.01123e-13 0)
(1.35447e-14 -1.01068e-13 0)
(1.37668e-14 -1.01049e-13 0)
(1.37668e-14 -1.00945e-13 0)
(1.38778e-14 -1.00909e-13 0)
(1.39888e-14 -1.00961e-13 0)
(1.70974e-14 -1.08114e-13 0)
(1.24345e-14 -9.94268e-14 0)
(1.28786e-14 -1.01607e-13 0)
(1.35447e-14 -1.00883e-13 0)
(1.37668e-14 -1.00927e-13 0)
(1.33227e-14 -1.00905e-13 0)
(1.31006e-14 -1.00889e-13 0)
(1.31006e-14 -1.00841e-13 0)
(1.33227e-14 -1.00905e-13 0)
(1.31006e-14 -1.01095e-13 0)
(1.33227e-14 -1.01121e-13 0)
(1.31006e-14 -1.01022e-13 0)
(1.31006e-14 -1.00957e-13 0)
(1.31006e-14 -1.00965e-13 0)
(1.33227e-14 -1.01037e-13 0)
(1.33227e-14 -1.01206e-13 0)
(1.31006e-14 -1.01213e-13 0)
(1.35447e-14 -1.01106e-13 0)
(1.37668e-14 -1.0098e-13 0)
(1.37668e-14 -1.00974e-13 0)
(5.32907e-15 -1.11912e-13 0)
(1.54321e-14 -9.95398e-14 0)
(1.28786e-14 -1.01664e-13 0)
(1.31006e-14 -1.01171e-13 0)
(1.31006e-14 -1.01124e-13 0)
(1.35447e-14 -1.0117e-13 0)
(1.38778e-14 -1.01157e-13 0)
(1.38778e-14 -1.01174e-13 0)
(1.42109e-14 -1.01215e-13 0)
(1.43219e-14 -1.01215e-13 0)
(1.40998e-14 -1.01114e-13 0)
(1.42109e-14 -1.00984e-13 0)
(1.39888e-14 -1.00968e-13 0)
(1.38778e-14 -1.0107e-13 0)
(1.38778e-14 -1.01124e-13 0)
(1.39888e-14 -1.01183e-13 0)
(1.38778e-14 -1.01191e-13 0)
(1.37668e-14 -1.01135e-13 0)
(1.38778e-14 -1.00954e-13 0)
(1.39888e-14 -1.00971e-13 0)
(2.4647e-14 -8.91923e-14 0)
(1.17684e-14 -1.03332e-13 0)
(1.46549e-14 -1.00594e-13 0)
(1.37668e-14 -1.01258e-13 0)
(1.38778e-14 -1.01234e-13 0)
(1.39888e-14 -1.01328e-13 0)
(1.42109e-14 -1.01308e-13 0)
(1.40998e-14 -1.0115e-13 0)
(1.39888e-14 -1.01041e-13 0)
(1.38778e-14 -1.00958e-13 0)
(1.35447e-14 -1.00905e-13 0)
(1.35447e-14 -1.00918e-13 0)
(1.35447e-14 -1.01054e-13 0)
(1.39888e-14 -1.01037e-13 0)
(1.39888e-14 -1.01e-13 0)
(1.35447e-14 -1.01023e-13 0)
(1.35447e-14 -1.0107e-13 0)
(1.35447e-14 -1.01081e-13 0)
(1.35447e-14 -1.01024e-13 0)
(1.38778e-14 -1.00974e-13 0)
(-4.88498e-15 -1.2239e-13 0)
(1.70974e-14 -9.70393e-14 0)
(1.17684e-14 -1.02026e-13 0)
(1.35447e-14 -1.01025e-13 0)
(1.31006e-14 -1.01265e-13 0)
(1.33227e-14 -1.0119e-13 0)
(1.26565e-14 -1.01242e-13 0)
(1.28786e-14 -1.01222e-13 0)
(1.31006e-14 -1.01111e-13 0)
(1.33227e-14 -1.00962e-13 0)
(1.31006e-14 -1.00967e-13 0)
(1.38778e-14 -1.01134e-13 0)
(1.38778e-14 -1.012e-13 0)
(1.35447e-14 -1.01096e-13 0)
(1.35447e-14 -1.00952e-13 0)
(1.38778e-14 -1.01045e-13 0)
(1.39888e-14 -1.01141e-13 0)
(1.35447e-14 -1.01114e-13 0)
(1.37668e-14 -1.01108e-13 0)
(1.38778e-14 -1.01069e-13 0)
(3.81917e-14 -7.75579e-14 0)
(9.99201e-15 -1.05293e-13 0)
(1.60982e-14 -9.997e-14 0)
(1.38778e-14 -1.01353e-13 0)
(1.42109e-14 -1.01173e-13 0)
(1.39888e-14 -1.01112e-13 0)
(1.42109e-14 -1.01081e-13 0)
(1.39888e-14 -1.01234e-13 0)
(1.37668e-14 -1.0121e-13 0)
(1.37668e-14 -1.01088e-13 0)
(1.37668e-14 -1.01018e-13 0)
(1.35447e-14 -1.01166e-13 0)
(1.35447e-14 -1.0111e-13 0)
(1.37668e-14 -1.01075e-13 0)
(1.37668e-14 -1.0112e-13 0)
(1.38778e-14 -1.01124e-13 0)
(1.37668e-14 -1.01004e-13 0)
(1.35447e-14 -1.00942e-13 0)
(1.37668e-14 -1.01051e-13 0)
(1.38778e-14 -1.01068e-13 0)
(-9.32587e-15 -9.80229e-14 0)
(1.70974e-14 -1.01682e-13 0)
(1.11022e-14 -1.00981e-13 0)
(1.38778e-14 -1.01043e-13 0)
(1.31006e-14 -1.01015e-13 0)
(1.31006e-14 -1.01029e-13 0)
(1.31006e-14 -1.00961e-13 0)
(1.31006e-14 -1.01084e-13 0)
(1.33227e-14 -1.01134e-13 0)
(1.33227e-14 -1.0113e-13 0)
(1.35447e-14 -1.01148e-13 0)
(1.37668e-14 -1.01162e-13 0)
(1.37668e-14 -1.01082e-13 0)
(1.33227e-14 -1.01042e-13 0)
(1.35447e-14 -1.01095e-13 0)
(1.35447e-14 -1.01004e-13 0)
(1.33227e-14 -1.00959e-13 0)
(1.35447e-14 -1.01085e-13 0)
(1.35447e-14 -1.01168e-13 0)
(1.37668e-14 -1.01073e-13 0)
(2.75335e-14 -1.36554e-13 0)
(1.22125e-14 -9.40916e-14 0)
(1.52101e-14 -1.02872e-13 0)
(1.33227e-14 -1.00779e-13 0)
(1.40998e-14 -1.01174e-13 0)
(1.38778e-14 -1.01086e-13 0)
(1.38778e-14 -1.01173e-13 0)
(1.39888e-14 -1.01197e-13 0)
(1.38778e-14 -1.01217e-13 0)
(1.38778e-14 -1.01243e-13 0)
(1.39888e-14 -1.01331e-13 0)
(1.37668e-14 -1.01207e-13 0)
(1.38778e-14 -1.01088e-13 0)
(1.39888e-14 -1.01084e-13 0)
(1.40998e-14 -1.01034e-13 0)
(1.40998e-14 -1.00883e-13 0)
(1.40998e-14 -1.00953e-13 0)
(1.39888e-14 -1.01168e-13 0)
(1.38778e-14 -1.01177e-13 0)
(1.38778e-14 -1.01075e-13 0)
(6.43929e-15 -3.88057e-14 0)
(1.58762e-14 -1.13857e-13 0)
(1.35447e-14 -9.79522e-14 0)
(1.45439e-14 -1.01623e-13 0)
(1.38778e-14 -1.00935e-13 0)
(1.40998e-14 -1.01021e-13 0)
(1.44329e-14 -1.00993e-13 0)
(1.40998e-14 -1.00999e-13 0)
(1.39888e-14 -1.01147e-13 0)
(1.40998e-14 -1.01245e-13 0)
(1.38778e-14 -1.01185e-13 0)
(1.35447e-14 -1.01075e-13 0)
(1.33227e-14 -1.01109e-13 0)
(1.33227e-14 -1.01084e-13 0)
(1.33227e-14 -1.01066e-13 0)
(1.33227e-14 -1.01072e-13 0)
(1.38778e-14 -1.01091e-13 0)
(1.38778e-14 -1.01037e-13 0)
(1.39888e-14 -1.01025e-13 0)
(1.37668e-14 -1.00986e-13 0)
(1.87628e-14 -1.48559e-13 0)
(1.15463e-14 -9.11683e-14 0)
(1.31006e-14 -1.03336e-13 0)
(1.35447e-14 -1.0061e-13 0)
(1.33227e-14 -1.01196e-13 0)
(1.33227e-14 -1.01158e-13 0)
(1.35447e-14 -1.01147e-13 0)
(1.35447e-14 -1.01071e-13 0)
(1.38778e-14 -1.01103e-13 0)
(1.35447e-14 -1.01007e-13 0)
(1.33227e-14 -1.00844e-13 0)
(1.35447e-14 -1.00855e-13 0)
(1.35447e-14 -1.01002e-13 0)
(1.37668e-14 -1.01042e-13 0)
(1.33227e-14 -1.01147e-13 0)
(1.37668e-14 -1.0128e-13 0)
(1.33227e-14 -1.01324e-13 0)
(1.35447e-14 -1.01153e-13 0)
(1.35447e-14 -1.0101e-13 0)
(1.37668e-14 -1.01012e-13 0)
(5.32907e-15 -1.08151e-13 0)
(1.66533e-14 -9.9983e-14 0)
(1.40998e-14 -1.01247e-13 0)
(1.39888e-14 -1.00954e-13 0)
(1.37668e-14 -1.00965e-13 0)
(1.37668e-14 -1.01082e-13 0)
(1.31006e-14 -1.01187e-13 0)
(1.31006e-14 -1.01183e-13 0)
(1.33227e-14 -1.01086e-13 0)
(1.33227e-14 -1.00999e-13 0)
(1.35447e-14 -1.00998e-13 0)
(1.39888e-14 -1.00983e-13 0)
(1.38778e-14 -1.01e-13 0)
(1.38778e-14 -1.01138e-13 0)
(1.39888e-14 -1.01222e-13 0)
(1.40998e-14 -1.01226e-13 0)
(1.38778e-14 -1.01217e-13 0)
(1.35447e-14 -1.01206e-13 0)
(1.35447e-14 -1.01081e-13 0)
(1.40998e-14 -1.01057e-13 0)
(1.5099e-14 -4.95937e-14 0)
(1.33227e-14 -1.11654e-13 0)
(1.40998e-14 -9.83972e-14 0)
(1.39888e-14 -1.01221e-13 0)
(1.39888e-14 -1.00578e-13 0)
(1.42109e-14 -1.00826e-13 0)
(1.39888e-14 -1.01052e-13 0)
(1.40998e-14 -1.01224e-13 0)
(1.39888e-14 -1.01225e-13 0)
(1.40998e-14 -1.01273e-13 0)
(1.42109e-14 -1.01268e-13 0)
(1.39888e-14 -1.01131e-13 0)
(1.42109e-14 -1.01022e-13 0)
(1.43219e-14 -1.01104e-13 0)
(1.42109e-14 -1.01132e-13 0)
(1.38778e-14 -1.01055e-13 0)
(1.38778e-14 -1.0095e-13 0)
(1.35447e-14 -1.01019e-13 0)
(1.37668e-14 -1.01079e-13 0)
(1.37668e-14 -1.01035e-13 0)
(2.59792e-14 -1.15496e-13 0)
(1.04361e-14 -9.84789e-14 0)
(1.33227e-14 -1.01642e-13 0)
(1.31006e-14 -1.0082e-13 0)
(1.35447e-14 -1.00958e-13 0)
(1.38778e-14 -1.01016e-13 0)
(1.38778e-14 -1.01097e-13 0)
(1.37668e-14 -1.0113e-13 0)
(1.35447e-14 -1.0118e-13 0)
(1.35447e-14 -1.01199e-13 0)
(1.33227e-14 -1.0118e-13 0)
(1.33227e-14 -1.01148e-13 0)
(1.35447e-14 -1.01131e-13 0)
(1.35447e-14 -1.0105e-13 0)
(1.35447e-14 -1.00975e-13 0)
(1.33227e-14 -1.01022e-13 0)
(1.33227e-14 -1.01096e-13 0)
(1.37668e-14 -1.01103e-13 0)
(1.37668e-14 -1.01126e-13 0)
(1.37668e-14 -1.01101e-13 0)
(1.04361e-14 -1.67568e-13 0)
(1.53211e-14 -8.68636e-14 0)
(1.4877e-14 -1.04374e-13 0)
(1.45439e-14 -1.00382e-13 0)
(1.45439e-14 -1.0129e-13 0)
(1.45439e-14 -1.01085e-13 0)
(1.44329e-14 -1.01046e-13 0)
(1.44329e-14 -1.00995e-13 0)
(1.46549e-14 -1.01055e-13 0)
(1.44329e-14 -1.01078e-13 0)
(1.42109e-14 -1.01121e-13 0)
(1.40998e-14 -1.01125e-13 0)
(1.40998e-14 -1.01148e-13 0)
(1.37668e-14 -1.01106e-13 0)
(1.38778e-14 -1.01039e-13 0)
(1.42109e-14 -1.01112e-13 0)
(1.40998e-14 -1.01213e-13 0)
(1.37668e-14 -1.01164e-13 0)
(1.38778e-14 -1.0111e-13 0)
(1.38778e-14 -1.01105e-13 0)
)
;

boundaryField
{
    movingWall
    {
        type            calculated;
        value           uniform (1.37668e-14 -1.01052e-13 0);
    }
    fixedWalls
    {
        type            calculated;
        value           uniform (1.37668e-14 -1.01052e-13 0);
    }
    frontAndBack
    {
        type            empty;
    }
}


// ************************************************************************* //
