/*--------------------------------*- C++ -*----------------------------------*\
| =========                 |                                                 |
| \\      /  F ield         | OpenFOAM: The Open Source CFD Toolbox           |
|  \\    /   O peration     | Version:  2312                                  |
|   \\  /    A nd           | Website:  www.openfoam.com                      |
|    \\/     M anipulation  |                                                 |
\*---------------------------------------------------------------------------*/
FoamFile
{
    version     2.0;
    format      ascii;
    arch        "LSB;label=32;scalar=64";
    class       volScalarField;
    location    "5.625";
    object      enstrophyField;
}
// * * * * * * * * * * * * * * * * * * * * * * * * * * * * * * * * * * * * * //

dimensions      [0 0 -2 0 0 0 0];

internalField   nonuniform List<scalar> 
400
(
2.88993e-23
4.50824e-23
2.05722e-24
1.29806e-25
1.38503e-30
4.08696e-27
1.62012e-27
1.03982e-27
2.53792e-29
4.03292e-29
2.3869e-30
1.03987e-29
9.90697e-30
2.78314e-29
3.36284e-27
9.80272e-28
1.02401e-27
3.62623e-30
1.56373e-27
1.7772e-30
1.43422e-24
5.72216e-24
3.29021e-25
1.13828e-26
1.35984e-26
1.06042e-27
1.85948e-27
7.41453e-27
3.79621e-27
6.48793e-27
9.86387e-27
3.32284e-27
1.50055e-27
6.77871e-29
7.40616e-28
3.55109e-29
3.14711e-29
4.80665e-28
1.65098e-27
1.01667e-28
2.82798e-23
7.20418e-23
3.95818e-24
1.77202e-25
1.79972e-26
1.44463e-27
2.77205e-27
5.64015e-28
1.9582e-27
5.40633e-27
1.09787e-26
3.46694e-27
1.19071e-27
2.19607e-27
8.0032e-27
6.17425e-27
3.05934e-27
7.66865e-30
1.83609e-27
2.18553e-30
2.30599e-23
3.65377e-23
1.83726e-24
1.2082e-25
5.74296e-28
2.56181e-27
4.13355e-27
6.72682e-28
8.65938e-28
2.07748e-27
3.04096e-27
2.33286e-27
1.13032e-27
5.73001e-29
6.36955e-30
5.90213e-28
2.85624e-30
9.88055e-28
2.77489e-28
1.01811e-28
5.26497e-24
1.14623e-24
1.81512e-26
1.26224e-26
1.74965e-27
7.96227e-27
8.32847e-27
6.44076e-27
9.39367e-28
9.01085e-28
9.00385e-28
1.53179e-28
5.72951e-27
1.95352e-27
1.69185e-27
4.35232e-28
5.11072e-28
1.49829e-28
8.04486e-29
2.76367e-30
2.83489e-24
9.06453e-24
4.71396e-25
2.43063e-26
3.40572e-28
3.14427e-28
2.67981e-29
2.92964e-31
3.85324e-29
9.78243e-29
4.39672e-29
4.91972e-28
1.91193e-30
6.58024e-29
2.27961e-27
2.05733e-29
7.60725e-30
8.05097e-28
6.9962e-28
5.64919e-29
9.70098e-24
1.02238e-23
5.02022e-25
4.9042e-26
8.39412e-31
1.87046e-29
3.60238e-31
1.15665e-28
1.54907e-27
7.33657e-28
1.43285e-27
7.05197e-27
3.56386e-30
9.0008e-28
3.50056e-28
3.94186e-27
4.38207e-27
2.32305e-27
3.26741e-28
6.73632e-30
3.31849e-25
3.09035e-25
6.91249e-28
2.07031e-26
3.12447e-27
3.62617e-27
2.08213e-29
1.21986e-30
3.1664e-27
2.87544e-27
1.09986e-27
1.3409e-28
1.5906e-29
3.17468e-29
1.31248e-27
4.89161e-27
1.46013e-28
2.69884e-28
8.7444e-29
1.11982e-28
1.38879e-24
6.11706e-25
6.22467e-26
1.46199e-27
3.64217e-28
3.58e-27
5.92771e-27
6.53066e-27
1.69942e-27
9.73707e-28
7.96364e-30
2.22587e-27
1.97396e-27
7.67997e-27
7.16373e-27
2.28655e-29
1.22278e-27
4.642e-28
1.34843e-28
1.01253e-27
1.92252e-24
8.84322e-25
4.16814e-26
1.05622e-26
2.44504e-29
2.70074e-29
7.96192e-27
9.12661e-27
8.13723e-27
7.44777e-27
6.32055e-27
7.38549e-29
7.05578e-29
1.77732e-27
1.54734e-27
2.45881e-29
1.69503e-29
1.73069e-27
5.71609e-29
1.36405e-28
4.68377e-24
2.47771e-24
1.28504e-25
2.89968e-27
1.3647e-28
1.59485e-27
2.86384e-28
8.06736e-28
1.4067e-27
1.04729e-28
1.47372e-28
2.71391e-28
7.16504e-30
3.07154e-28
1.28309e-29
1.06008e-27
5.77428e-28
5.58504e-30
1.04042e-29
2.61909e-29
2.78255e-24
2.51151e-24
1.12951e-25
1.08655e-26
4.53472e-28
4.19545e-29
4.37644e-27
7.99476e-28
7.80432e-29
1.85462e-28
3.96805e-27
4.28687e-29
4.11034e-29
1.41785e-27
1.21416e-27
7.5005e-28
4.96021e-27
1.13678e-29
8.0501e-29
1.23585e-30
8.41177e-25
1.45686e-25
1.05414e-26
3.04176e-27
1.54385e-27
1.44376e-29
1.18891e-27
1.50264e-28
1.06571e-29
9.0939e-31
5.0434e-30
2.17615e-29
1.14246e-28
1.54348e-27
3.01018e-27
9.10597e-29
1.93852e-27
2.81674e-27
7.67445e-31
9.25543e-29
9.79564e-24
6.13807e-24
4.41628e-25
1.88074e-27
9.67506e-27
5.86164e-27
1.07483e-26
6.37401e-27
6.39215e-27
7.16881e-27
1.27652e-27
2.95459e-28
4.37582e-27
1.4391e-29
1.11606e-27
6.2093e-28
3.42407e-27
2.93756e-27
1.00578e-27
1.08919e-28
1.68866e-23
1.71724e-23
1.03721e-24
4.44818e-26
1.42162e-26
1.17049e-27
4.28322e-28
7.5518e-28
3.12019e-30
1.26797e-27
7.87293e-27
1.90966e-27
4.41096e-31
1.71393e-27
3.40723e-27
1.33845e-27
6.2567e-27
1.84639e-27
1.76183e-27
1.57934e-28
6.57697e-24
9.9822e-24
4.71672e-25
3.59741e-26
1.50465e-27
1.74382e-27
1.04033e-26
3.67393e-27
3.84494e-27
5.74526e-27
8.98136e-28
2.44566e-27
2.66309e-27
2.36618e-27
5.5184e-27
7.95188e-27
8.07277e-29
3.66673e-27
2.3282e-27
1.94539e-27
3.14172e-26
1.25327e-25
2.11093e-26
3.3695e-28
4.43584e-27
8.52597e-27
6.91892e-28
1.45343e-28
1.69988e-28
2.6313e-27
5.70865e-27
1.48091e-27
2.42931e-27
2.91474e-27
1.98715e-27
1.14977e-31
3.14143e-27
9.23918e-29
7.71952e-28
5.71562e-30
2.05174e-24
9.17653e-24
6.02156e-25
6.00674e-27
2.22389e-27
1.12614e-27
7.33425e-27
7.90085e-27
1.74963e-27
9.21595e-30
8.53051e-28
3.1018e-27
4.45269e-28
6.00773e-29
5.09667e-28
8.02127e-27
3.60932e-27
2.25801e-27
1.22758e-30
1.52453e-27
2.63735e-25
7.47546e-25
4.15524e-26
8.29063e-29
2.72859e-27
8.42123e-28
2.1524e-27
3.43932e-29
1.86346e-27
1.47032e-27
1.29219e-29
1.206e-29
4.8162e-29
2.43841e-27
4.44817e-28
2.19844e-27
1.94089e-27
4.69948e-30
3.60069e-28
1.09614e-28
9.41027e-24
1.87861e-23
8.41941e-25
5.63002e-26
1.29877e-28
5.58382e-27
4.0778e-27
1.42199e-27
1.05621e-27
1.13477e-27
1.1097e-29
3.82237e-30
4.22214e-28
5.97664e-29
2.19747e-31
1.51817e-28
1.33436e-29
5.29842e-29
5.43112e-28
7.31414e-28
)
;

boundaryField
{
    movingWall
    {
        type            calculated;
        value           nonuniform List<scalar> 
20
(
2.15496e-23
2.40893e-23
4.12019e-25
1.91777e-25
2.89287e-26
5.61877e-26
3.79354e-26
3.52644e-26
6.02122e-26
3.37696e-26
1.49515e-26
8.51015e-27
9.13692e-27
5.97664e-29
9.56855e-28
1.28337e-26
8.19978e-27
5.29842e-29
1.26312e-27
1.54295e-27
)
;
    }
    fixedWalls
    {
        type            calculated;
        value           nonuniform List<scalar> 
60
(
7.99485e-22
1.06833e-22
1.31183e-21
6.63726e-22
1.92775e-23
1.65213e-22
1.80873e-22
4.79155e-24
1.28818e-23
1.65128e-23
4.86414e-23
4.83275e-23
2.5736e-24
1.24389e-22
3.3194e-22
1.7799e-22
3.0935e-24
1.71558e-22
1.41336e-23
3.3055e-22
3.95144e-29
3.37536e-28
2.26105e-28
7.95535e-29
9.38256e-29
1.48315e-30
4.44824e-29
4.87148e-28
1.76459e-27
8.01444e-30
2.2067e-29
2.16275e-29
3.38027e-29
4.12958e-29
1.78628e-31
2.45431e-27
1.76827e-30
1.11697e-27
2.92735e-29
1.17122e-27
9.17054e-23
6.52618e-23
2.12802e-24
1.89508e-25
4.20172e-29
7.81469e-27
4.18895e-27
2.27778e-26
1.24276e-26
2.07918e-26
1.53915e-26
9.49265e-27
1.49964e-26
7.90855e-27
2.41545e-31
4.93232e-29
1.42386e-27
3.62623e-30
9.11445e-28
1.7772e-30
)
;
    }
    frontAndBack
    {
        type            empty;
    }
}


// ************************************************************************* //
