/*--------------------------------*- C++ -*----------------------------------*\
| =========                 |                                                 |
| \\      /  F ield         | OpenFOAM: The Open Source CFD Toolbox           |
|  \\    /   O peration     | Version:  2312                                  |
|   \\  /    A nd           | Website:  www.openfoam.com                      |
|    \\/     M anipulation  |                                                 |
\*---------------------------------------------------------------------------*/
FoamFile
{
    version     2.0;
    format      ascii;
    arch        "LSB;label=32;scalar=64";
    class       volScalarField;
    location    "5.625";
    object      epsilonzeroGrad;
}
// * * * * * * * * * * * * * * * * * * * * * * * * * * * * * * * * * * * * * //

dimensions      [0 2 -3 0 0 0 0];

internalField   nonuniform List<scalar> 
400
(
5.3679e-06
5.36788e-06
5.36787e-06
5.36786e-06
5.36785e-06
5.36785e-06
5.36784e-06
5.36783e-06
5.36783e-06
5.36782e-06
5.36782e-06
5.36782e-06
5.36781e-06
5.36781e-06
5.36781e-06
5.36781e-06
5.36781e-06
5.36781e-06
5.36781e-06
5.36781e-06
5.88085e-06
5.76508e-06
5.7746e-06
5.77851e-06
5.78642e-06
5.79048e-06
5.79843e-06
5.80262e-06
5.81061e-06
5.81493e-06
5.82295e-06
5.82742e-06
5.83546e-06
5.84009e-06
5.84816e-06
5.85294e-06
5.86104e-06
5.86596e-06
5.87004e-06
5.8766e-06
6.6157e-06
6.47822e-06
6.48968e-06
6.49437e-06
6.50386e-06
6.5087e-06
6.51823e-06
6.52318e-06
6.53274e-06
6.53782e-06
6.54739e-06
6.55262e-06
6.56219e-06
6.56758e-06
6.57715e-06
6.58269e-06
6.59228e-06
6.59794e-06
6.60277e-06
6.61044e-06
7.29037e-06
7.13352e-06
7.14656e-06
7.1519e-06
7.16271e-06
7.16822e-06
7.17907e-06
7.18471e-06
7.19559e-06
7.20139e-06
7.21228e-06
7.21825e-06
7.22915e-06
7.2353e-06
7.24621e-06
7.25253e-06
7.26346e-06
7.26993e-06
7.27543e-06
7.28418e-06
7.78183e-06
7.61027e-06
7.62451e-06
7.63034e-06
7.64213e-06
7.64816e-06
7.66e-06
7.66616e-06
7.67805e-06
7.68439e-06
7.69629e-06
7.70282e-06
7.71473e-06
7.72145e-06
7.73338e-06
7.74029e-06
7.75224e-06
7.75932e-06
7.76533e-06
7.7749e-06
8.09549e-06
7.91435e-06
7.92936e-06
7.93551e-06
7.94795e-06
7.95431e-06
7.9668e-06
7.9733e-06
7.98584e-06
7.99253e-06
8.00509e-06
8.01198e-06
8.02455e-06
8.03165e-06
8.04423e-06
8.05153e-06
8.06414e-06
8.07163e-06
8.07798e-06
8.08808e-06
8.28348e-06
8.09654e-06
8.11202e-06
8.11835e-06
8.13119e-06
8.13774e-06
8.15062e-06
8.15734e-06
8.17027e-06
8.17717e-06
8.19013e-06
8.19724e-06
8.2102e-06
8.21753e-06
8.23051e-06
8.23805e-06
8.25106e-06
8.25878e-06
8.26533e-06
8.27576e-06
8.39646e-06
8.20603e-06
8.22179e-06
8.22825e-06
8.24132e-06
8.24799e-06
8.26111e-06
8.26795e-06
8.28112e-06
8.28815e-06
8.30134e-06
8.30859e-06
8.32179e-06
8.32926e-06
8.34247e-06
8.35015e-06
8.3634e-06
8.37128e-06
8.37794e-06
8.38857e-06
8.4696e-06
8.27691e-06
8.29286e-06
8.29939e-06
8.31261e-06
8.31936e-06
8.33263e-06
8.33955e-06
8.35287e-06
8.35998e-06
8.37333e-06
8.38066e-06
8.39402e-06
8.40158e-06
8.41494e-06
8.42272e-06
8.43612e-06
8.44409e-06
8.45084e-06
8.46159e-06
8.52378e-06
8.32942e-06
8.3455e-06
8.35208e-06
8.36541e-06
8.37222e-06
8.38561e-06
8.39259e-06
8.40602e-06
8.4132e-06
8.42666e-06
8.43405e-06
8.44752e-06
8.45514e-06
8.46863e-06
8.47647e-06
8.48999e-06
8.49803e-06
8.50483e-06
8.51568e-06
8.57053e-06
8.37473e-06
8.39092e-06
8.39755e-06
8.41098e-06
8.41784e-06
8.43132e-06
8.43835e-06
8.45188e-06
8.45911e-06
8.47266e-06
8.48012e-06
8.49368e-06
8.50136e-06
8.51494e-06
8.52285e-06
8.53646e-06
8.54456e-06
8.55142e-06
8.56234e-06
8.61613e-06
8.41893e-06
8.43524e-06
8.44192e-06
8.45544e-06
8.46234e-06
8.47592e-06
8.483e-06
8.49663e-06
8.5039e-06
8.51756e-06
8.52506e-06
8.53872e-06
8.54646e-06
8.56014e-06
8.56809e-06
8.58181e-06
8.58997e-06
8.59687e-06
8.60787e-06
8.66425e-06
8.46558e-06
8.48201e-06
8.48874e-06
8.50236e-06
8.50931e-06
8.52299e-06
8.53012e-06
8.54385e-06
8.55118e-06
8.56493e-06
8.57249e-06
8.58625e-06
8.59405e-06
8.60783e-06
8.61585e-06
8.62966e-06
8.63788e-06
8.64483e-06
8.65592e-06
8.71732e-06
8.51702e-06
8.53358e-06
8.54036e-06
8.55409e-06
8.5611e-06
8.57489e-06
8.58208e-06
8.59592e-06
8.60331e-06
8.61717e-06
8.62479e-06
8.63867e-06
8.64653e-06
8.66041e-06
8.6685e-06
8.68243e-06
8.69071e-06
8.69772e-06
8.7089e-06
8.77705e-06
8.57493e-06
8.59164e-06
8.59848e-06
8.61233e-06
8.61941e-06
8.63332e-06
8.64057e-06
8.65453e-06
8.66199e-06
8.67598e-06
8.68367e-06
8.69767e-06
8.7056e-06
8.71962e-06
8.72778e-06
8.74183e-06
8.7502e-06
8.75727e-06
8.76854e-06
8.84425e-06
8.64007e-06
8.65693e-06
8.66384e-06
8.67784e-06
8.68498e-06
8.69903e-06
8.70636e-06
8.72046e-06
8.728e-06
8.74213e-06
8.7499e-06
8.76403e-06
8.77205e-06
8.7862e-06
8.79445e-06
8.80864e-06
8.8171e-06
8.82424e-06
8.83563e-06
8.91737e-06
8.71094e-06
8.72799e-06
8.73498e-06
8.74912e-06
8.75634e-06
8.77054e-06
8.77795e-06
8.79221e-06
8.79982e-06
8.81411e-06
8.82196e-06
8.83625e-06
8.84436e-06
8.85866e-06
8.867e-06
8.88135e-06
8.8899e-06
8.89712e-06
8.90864e-06
8.99048e-06
8.78186e-06
8.79908e-06
8.80613e-06
8.82041e-06
8.82772e-06
8.84206e-06
8.84954e-06
8.86394e-06
8.87165e-06
8.88607e-06
8.89402e-06
8.90845e-06
8.91665e-06
8.93111e-06
8.93954e-06
8.95404e-06
8.96268e-06
8.96998e-06
8.98162e-06
9.05183e-06
8.84564e-06
8.86235e-06
8.86919e-06
8.88312e-06
8.89027e-06
8.90429e-06
8.91167e-06
8.9258e-06
8.93345e-06
8.94764e-06
8.95559e-06
8.96983e-06
8.97809e-06
8.99239e-06
9.00095e-06
9.01533e-06
9.02417e-06
9.03144e-06
9.04316e-06
9.07916e-06
9.07913e-06
9.07913e-06
9.07908e-06
9.0791e-06
9.07905e-06
9.07908e-06
9.07903e-06
9.07906e-06
9.07903e-06
9.07904e-06
9.07902e-06
9.07903e-06
9.07902e-06
9.07902e-06
9.07902e-06
9.07902e-06
9.07902e-06
9.07902e-06
9.07902e-06
)
;

boundaryField
{
    movingWall
    {
        type            zeroGradient;
    }
    fixedWalls
    {
        type            zeroGradient;
    }
    frontAndBack
    {
        type            empty;
    }
}


// ************************************************************************* //
