/*--------------------------------*- C++ -*----------------------------------*\
| =========                 |                                                 |
| \\      /  F ield         | OpenFOAM: The Open Source CFD Toolbox           |
|  \\    /   O peration     | Version:  2312                                  |
|   \\  /    A nd           | Website:  www.openfoam.com                      |
|    \\/     M anipulation  |                                                 |
\*---------------------------------------------------------------------------*/
FoamFile
{
    version     2.0;
    format      ascii;
    arch        "LSB;label=32;scalar=64";
    class       volScalarField;
    location    "5.625";
    object      flowTypeField;
}
// * * * * * * * * * * * * * * * * * * * * * * * * * * * * * * * * * * * * * //

dimensions      [0 0 0 0 0 0 0];

internalField   nonuniform List<scalar> 
400
(
0.481264
0.0627248
0.0501672
-0.00371153
0.971707
-0.493206
0.103707
0.246387
0.774001
0.732168
0.897021
0.693479
0.811014
0.733959
0.0590678
0.202995
0.23769
0.840847
-0.0197318
0.461586
0.90469
0.436839
0.434134
0.477908
-0.124088
0.192636
0.230611
0.0559051
0.073849
0.0653919
0.0374941
-0.00249601
-0.0102696
0.727373
0.359887
0.506337
0.665489
-0.108204
-0.0308947
0.688967
0.351009
0.0723195
-0.00574109
0.0917654
-0.350908
0.0242395
-0.368701
0.42416
-0.0206247
-0.27269
-0.0884443
0.0608424
0.357365
0.155039
-0.124926
-0.0245241
0.0921496
0.180272
0.00587135
0.918109
0.483569
0.0776849
0.0528968
-0.0577974
0.63559
-0.316033
0.182964
0.319363
0.300802
-0.186255
-0.431141
-0.256644
0.125411
0.570769
0.824685
-0.0830629
0.879478
-0.26463
0.376968
0.709172
0.721691
0.479232
0.686306
0.124699
0.0679951
-0.14102
-0.178117
-0.0423606
0.26842
0.292397
0.2197
0.494942
0.0129087
-0.0167119
0.222176
-0.0758904
0.429092
0.380988
0.747041
0.309306
0.602039
0.130276
0.0448833
0.0818187
0.617216
0.631648
0.597963
0.966057
0.639654
0.235607
0.416781
-0.15017
0.874025
0.541674
0.139518
0.30639
0.554708
-0.468027
0.362136
0.752082
0.20864
0.00979347
-0.0913526
-0.517215
0.967879
0.718475
0.70537
0.112594
0.0795422
0.352356
0.0151174
-0.0911343
0.755188
0.415145
0.503856
0.108893
-0.130504
-0.0658972
0.300836
0.910336
0.815046
0.367216
0.850865
-0.165766
0.0324229
0.0164886
0.8319
0.790217
-0.251303
0.0702067
0.133128
0.646003
0.139378
0.799342
-0.867573
-0.199633
0.414168
0.669821
0.0491209
0.00237831
0.261851
0.16137
0.0749052
0.328886
0.540698
0.280817
0.0839204
0.0154163
0.230248
0.269942
0.853652
0.217977
-0.136108
-0.101241
-0.0670685
0.573009
0.329711
0.475235
0.0315201
-0.0649783
-0.00308755
0.125698
-0.0385452
-0.281036
0.704927
0.0323126
-0.119186
-0.196342
-0.169074
0.0199825
0.0766063
0.576014
0.741772
0.206142
0.264744
0.824219
0.203612
-0.0832927
0.753576
0.406685
-0.0562277
0.146805
0.0699591
0.459188
0.644179
0.0319469
0.668135
0.0280263
0.487254
0.226345
0.437225
0.673741
0.798216
0.523284
0.864422
-0.0482907
0.130007
0.673167
0.118947
0.332787
0.336499
0.26828
0.146293
0.315668
0.475171
0.437598
-0.0792846
0.0613659
0.626324
0.220081
-0.0666089
0.773471
0.781499
0.0222248
0.193971
-0.391672
-0.119801
0.123786
0.516004
0.88977
0.743633
0.714818
0.617682
0.613921
0.3868
0.0838709
0.11032
0.0211701
0.871468
0.834085
0.939255
0.129546
0.691702
0.0797181
0.0952108
0.646871
-0.140845
-0.109588
0.952162
0.00100986
0.32277
0.0721243
-0.217073
0.682507
-0.117249
0.0305419
-0.0586843
-0.00659517
-0.0425159
-0.0968744
0.0691102
0.312256
0.0490325
0.180745
-0.689503
-0.242197
-0.440679
-0.205813
0.19335
0.476115
-0.129113
0.0177291
-0.16751
0.00566475
-0.461539
0.193631
-0.0728068
0.34953
0.889656
0.139955
0.0460828
0.365137
0.773672
-0.0755382
-0.00529148
0.259498
0.189032
0.0034688
0.0567152
0.492342
0.488661
0.0599479
0.0451079
-0.171086
0.0989305
-0.0807747
-0.0319513
0.130529
-0.0745497
-0.030421
-0.184758
-0.262066
-0.303884
-0.257166
-0.258127
-0.148417
0.25616
-0.438641
0.119324
-0.1375
0.964846
0.732942
0.581763
0.65115
0.109151
0.0729896
0.35906
0.666057
0.150859
0.146085
0.227022
0.299636
-0.120481
-0.388589
-0.0290605
0.929396
0.222518
0.699347
0.54349
0.811629
0.509403
0.122648
-0.04965
0.496305
-0.671793
0.00936558
-0.468282
-0.156759
-0.0728724
0.708303
-0.175475
-0.34831
0.463068
0.569114
0.273168
-0.106466
0.0190831
-0.209291
0.524702
-0.0150173
0.917109
0.550428
0.532041
0.867723
0.357097
0.140614
-0.0653969
0.807054
-0.0685368
0.056553
0.770292
0.00646644
0.614727
-0.284494
0.22245
-0.211973
0.0618302
0.910053
0.0157658
0.45442
0.499203
0.0632786
0.0773606
-0.0374114
0.765855
-0.297007
-0.047596
0.113636
0.170443
0.35488
0.798261
0.859487
0.27913
0.559564
0.965665
0.0142904
0.786056
0.404795
-0.0736891
0.0682259
)
;

boundaryField
{
    movingWall
    {
        type            calculated;
        value           nonuniform List<scalar> 
20
(
0.704221
0.173939
0.482528
-0.238019
0.253295
-0.0771187
-0.0281592
0.0118505
0.0231778
0.0441599
0.0477168
0.0599906
0.0423042
0.626836
0.338505
0.105084
0.140292
0.709591
0.00422486
0.0298787
)
;
    }
    fixedWalls
    {
        type            calculated;
        value           nonuniform List<scalar> 
60
(
0.0712918
0.456244
0.0619007
0.0712873
0.529756
0.127079
0.0122304
0.470526
0.127291
0.122625
0.132751
0.262393
0.744591
0.0385335
-0.0263048
0.0695861
0.717533
0.10087
0.56456
0.074451
0.0883223
0.660551
0.55279
0.871523
0.637827
0.962626
0.86671
0.000561952
0.35547
0.897762
0.797514
0.795224
0.00266908
0.739274
0.953684
-0.273668
0.973009
0.128967
0.705071
0.142326
0.617297
0.107801
0.251981
0.0201679
0.905951
-0.108076
0.194402
0.087842
0.135452
0.0881979
0.0432476
-0.0252558
0.0410473
0.100484
0.965588
0.676599
0.00482547
0.840525
0.0384023
0.676194
)
;
    }
    frontAndBack
    {
        type            empty;
    }
}


// ************************************************************************* //
