/*--------------------------------*- C++ -*----------------------------------*\
| =========                 |                                                 |
| \\      /  F ield         | OpenFOAM: The Open Source CFD Toolbox           |
|  \\    /   O peration     | Version:  2312                                  |
|   \\  /    A nd           | Website:  www.openfoam.com                      |
|    \\/     M anipulation  |                                                 |
\*---------------------------------------------------------------------------*/
FoamFile
{
    version     2.0;
    format      ascii;
    arch        "LSB;label=32;scalar=64";
    class       surfaceScalarField;
    location    "5.625";
    object      fluxField;
}
// * * * * * * * * * * * * * * * * * * * * * * * * * * * * * * * * * * * * * //

dimensions      [0 3 -1 0 0 0 0];

oriented        oriented;

internalField   nonuniform List<scalar> 
760
(
-5e-05
3.52628e-18
-5e-05
-7.48227e-19
-5e-05
1.7792e-19
-5e-05
-3.83256e-20
-5e-05
6.04238e-21
-5e-05
-4.28934e-21
-5e-05
-5.04695e-21
-5e-05
-3.27432e-21
-5e-05
4.43415e-22
-5e-05
3.17565e-21
-5e-05
6.34727e-21
-5e-05
4.95443e-21
-5e-05
5.25864e-21
-5e-05
6.2103e-21
-5e-05
4.21292e-21
-5e-05
3.53863e-21
-5e-05
-3.76967e-22
-5e-05
-6.83536e-22
-5e-05
-2.02529e-21
-1.06827e-21
-5e-05
-2.39788e-18
-5e-05
5.00688e-19
-5e-05
-1.20778e-19
-5e-05
2.04154e-20
-5e-05
-9.66945e-21
-5e-05
6.60967e-22
-5e-05
1.72911e-21
-5e-05
7.41639e-21
-5e-05
1.02237e-20
-5e-05
6.77846e-21
-5e-05
5.92934e-21
-5e-05
4.84718e-21
-5e-05
5.49213e-21
-5e-05
6.3428e-21
-5e-05
-4.3455e-22
-5e-05
-1.02668e-21
-5e-05
-3.21731e-21
-5e-05
-2.23678e-21
-5e-05
-5.17145e-21
-4.64703e-21
-5e-05
-1.09362e-18
-5e-05
2.33636e-19
-5e-05
-6.04497e-20
-5e-05
9.46104e-21
-5e-05
-7.40736e-21
-5e-05
-2.39167e-21
-5e-05
1.68827e-21
-5e-05
7.04462e-21
-5e-05
1.1227e-20
-5e-05
8.10044e-21
-5e-05
2.99757e-21
-5e-05
-1.00754e-21
-5e-05
-1.01512e-21
-5e-05
2.011e-21
-5e-05
-1.3546e-21
-5e-05
-1.62075e-21
-5e-05
-2.1743e-22
-5e-05
-1.44496e-21
-5e-05
-5.5336e-21
-3.92885e-21
-5e-05
2.06863e-18
-5e-05
-4.63803e-19
-5e-05
9.99851e-20
-5e-05
-2.54341e-20
-5e-05
3.26158e-21
-5e-05
-2.17261e-21
-5e-05
3.3623e-21
-5e-05
7.36193e-21
-5e-05
9.01416e-21
-5e-05
7.79407e-21
-5e-05
3.51241e-21
-5e-05
-1.09373e-21
-5e-05
-2.41209e-21
-5e-05
2.28886e-22
-5e-05
2.33824e-21
-5e-05
2.11107e-21
-5e-05
4.75095e-21
-5e-05
2.73004e-21
-5e-05
-2.03475e-21
-1.76187e-21
-5e-05
-1.46828e-18
-5e-05
2.85364e-19
-5e-05
-7.2733e-20
-5e-05
8.53949e-21
-5e-05
-4.99581e-21
-5e-05
2.74785e-21
-5e-05
6.73054e-21
-5e-05
9.73847e-21
-5e-05
8.19103e-21
-5e-05
4.82738e-21
-5e-05
1.75464e-21
-5e-05
-4.60616e-22
-5e-05
-1.71156e-21
-5e-05
-1.29284e-21
-5e-05
3.23045e-21
-5e-05
3.02504e-21
-5e-05
2.22645e-21
-5e-05
5.21667e-21
-5e-05
3.03339e-21
-9.63805e-22
-5e-05
-9.13721e-20
-5e-05
2.12983e-20
-5e-05
-8.31534e-21
-5e-05
-4.82165e-21
-5e-05
-4.38544e-21
-5e-05
1.37911e-21
-5e-05
1.36877e-21
-5e-05
3.42155e-21
-5e-05
5.36252e-21
-5e-05
1.58957e-21
-5e-05
-2.11048e-21
-5e-05
-9.24217e-22
-5e-05
-5.91232e-22
-5e-05
-2.08053e-21
-5e-05
-6.68706e-22
-5e-05
1.0861e-21
-5e-05
-4.03548e-22
-5e-05
5.13671e-21
-5e-05
6.34005e-21
2.17593e-21
-5e-05
9.64754e-19
-5e-05
-1.89204e-19
-5e-05
3.75966e-20
-5e-05
-8.98082e-21
-5e-05
3.3958e-21
-5e-05
3.68156e-21
-5e-05
2.82811e-21
-5e-05
5.50704e-21
-5e-05
6.24001e-21
-5e-05
-4.72472e-22
-5e-05
-3.14224e-21
-5e-05
1.18529e-21
-5e-05
3.53676e-21
-5e-05
1.9279e-21
-5e-05
-1.40076e-21
-5e-05
-4.2658e-21
-5e-05
-3.93072e-21
-5e-05
1.31374e-21
-5e-05
5.36556e-21
4.23443e-21
-5e-05
-4.48035e-19
-5e-05
7.8436e-20
-5e-05
-2.91816e-20
-5e-05
1.26028e-21
-5e-05
1.32687e-21
-5e-05
7.22932e-22
-5e-05
1.46284e-21
-5e-05
2.22062e-21
-5e-05
-3.94138e-22
-5e-05
-5.14397e-21
-5e-05
-3.2801e-21
-5e-05
2.46179e-21
-5e-05
4.46241e-21
-5e-05
1.71624e-21
-5e-05
-1.40842e-21
-5e-05
-7.13539e-21
-5e-05
-7.49779e-21
-5e-05
-3.44194e-21
-5e-05
4.24555e-21
3.96973e-21
-5e-05
2.49965e-20
-5e-05
-1.91915e-20
-5e-05
-3.85436e-21
-5e-05
-8.1139e-21
-5e-05
-6.34267e-21
-5e-05
-9.83325e-21
-5e-05
-9.00546e-21
-5e-05
-5.50648e-21
-5e-05
-3.80087e-21
-5e-05
-1.74107e-21
-5e-05
2.12604e-21
-5e-05
5.04057e-21
-5e-05
2.03663e-21
-5e-05
-8.4833e-23
-5e-05
-4.89436e-22
-5e-05
-2.54918e-21
-5e-05
-3.9332e-21
-5e-05
-2.81541e-21
-5e-05
3.15778e-21
3.96316e-21
-5e-05
-2.36947e-19
-5e-05
4.33211e-20
-5e-05
-1.29042e-20
-5e-05
-4.46095e-21
-5e-05
-9.87257e-21
-5e-05
-1.03394e-20
-5e-05
-1.11431e-20
-5e-05
-6.69015e-21
-5e-05
-1.2063e-21
-5e-05
4.58175e-21
-5e-05
5.81863e-21
-5e-05
1.29283e-21
-5e-05
-3.74366e-21
-5e-05
-7.306e-22
-5e-05
3.80533e-21
-5e-05
8.90777e-22
-5e-05
-2.68285e-21
-5e-05
-2.28436e-21
-5e-05
-6.91449e-22
1.52908e-21
-5e-05
5.39119e-20
-5e-05
-5.69485e-21
-5e-05
2.69526e-21
-5e-05
-6.83547e-21
-5e-05
-8.34362e-21
-5e-05
-4.94204e-21
-5e-05
-5.48675e-21
-5e-05
-8.79558e-21
-5e-05
-5.44147e-21
-5e-05
1.34143e-21
-5e-05
2.99155e-21
-5e-05
-4.893e-21
-5e-05
-5.14774e-21
-5e-05
-1.67993e-21
-5e-05
8.08862e-22
-5e-05
-1.64652e-21
-5e-05
-1.01966e-21
-5e-05
1.2055e-21
-5e-05
-1.37616e-21
-8.26261e-22
-5e-05
6.63081e-19
-5e-05
-1.2175e-19
-5e-05
2.88181e-20
-5e-05
-7.28507e-21
-5e-05
-2.08868e-21
-5e-05
-9.2217e-22
-5e-05
1.54476e-21
-5e-05
-5.34442e-21
-5e-05
-6.00964e-21
-5e-05
-2.8457e-21
-5e-05
-1.53194e-21
-5e-05
-5.58211e-21
-5e-05
-2.19751e-21
-5e-05
-3.18124e-22
-5e-05
-2.7748e-21
-5e-05
-6.20104e-22
-5e-05
3.53419e-21
-5e-05
1.93749e-21
-5e-05
-2.86946e-21
-9.24943e-22
-5e-05
-8.1181e-19
-5e-05
1.58273e-19
-5e-05
-4.37197e-20
-5e-05
7.0521e-21
-5e-05
-2.11147e-21
-5e-05
-2.79786e-22
-5e-05
-7.31543e-22
-5e-05
-4.41455e-21
-5e-05
-6.18721e-21
-5e-05
-6.7306e-21
-5e-05
-9.35427e-21
-5e-05
-6.60395e-21
-5e-05
-1.62776e-21
-5e-05
-5.47908e-22
-5e-05
-6.24123e-22
-5e-05
5.41824e-21
-5e-05
4.8121e-21
-5e-05
-3.73156e-21
-5e-05
-6.00931e-21
-1.08189e-21
-5e-05
6.68619e-19
-5e-05
-1.46119e-19
-5e-05
3.20089e-20
-5e-05
-7.45056e-21
-5e-05
-1.20197e-22
-5e-05
-7.19381e-23
-5e-05
-1.54028e-21
-5e-05
-2.30402e-21
-5e-05
-6.49869e-21
-5e-05
-9.61762e-21
-5e-05
-1.02916e-20
-5e-05
-4.43142e-21
-5e-05
-2.31677e-21
-5e-05
-1.60747e-21
-5e-05
1.08893e-22
-5e-05
3.73626e-21
-5e-05
1.52481e-21
-5e-05
-2.53882e-21
-5e-05
-2.44544e-21
1.08871e-21
-5e-05
3.68473e-19
-5e-05
-7.3036e-20
-5e-05
2.04024e-20
-5e-05
-3.214e-21
-5e-05
-6.5906e-22
-5e-05
-1.87851e-21
-5e-05
-9.04147e-22
-5e-05
8.42232e-22
-5e-05
-3.63971e-21
-5e-05
-3.71531e-21
-5e-05
1.86693e-21
-5e-05
4.3696e-21
-5e-05
-1.67379e-22
-5e-05
-5.57868e-22
-5e-05
-2.72845e-21
-5e-05
-6.18447e-21
-5e-05
-7.76875e-21
-5e-05
-2.14707e-21
-5e-05
1.72719e-21
2.64742e-21
-5e-05
-1.36517e-18
-5e-05
2.73819e-19
-5e-05
-6.19797e-20
-5e-05
1.35181e-20
-5e-05
-1.41164e-21
-5e-05
-3.41474e-21
-5e-05
-5.74082e-21
-5e-05
-3.75841e-21
-5e-05
-2.12581e-21
-5e-05
2.4454e-21
-5e-05
6.5367e-21
-5e-05
6.65687e-21
-5e-05
2.55162e-21
-5e-05
-1.9092e-21
-5e-05
-6.62911e-21
-5e-05
-1.00524e-20
-5e-05
-1.09317e-20
-5e-05
-6.36313e-21
-5e-05
3.23081e-22
8.73179e-22
-5e-05
1.10898e-18
-5e-05
-2.38312e-19
-5e-05
6.14834e-20
-5e-05
-1.7744e-21
-5e-05
1.40395e-20
-5e-05
4.90364e-21
-5e-05
-3.36581e-21
-5e-05
-7.56952e-21
-5e-05
-5.17307e-21
-5e-05
-4.19604e-21
-5e-05
-4.05353e-21
-5e-05
-2.53933e-22
-5e-05
2.03157e-21
-5e-05
-3.44314e-21
-5e-05
-6.24403e-21
-5e-05
-4.44563e-21
-5e-05
-1.56441e-21
-5e-05
-3.02111e-21
-5e-05
-1.41386e-21
3.16554e-22
-5e-05
9.25367e-19
-5e-05
-2.00709e-19
-5e-05
5.16201e-20
-5e-05
1.5741e-21
-5e-05
1.42231e-20
-5e-05
6.55507e-21
-5e-05
-1.12511e-21
-5e-05
-6.24473e-21
-5e-05
-7.51969e-21
-5e-05
-9.19047e-21
-5e-05
-8.59741e-21
-5e-05
-4.36956e-21
-5e-05
-1.23139e-21
-5e-05
-1.23174e-21
-5e-05
-6.57268e-23
-5e-05
6.54173e-22
-5e-05
1.46929e-21
-5e-05
-4.57447e-22
-5e-05
-2.54498e-21
-7.81752e-22
-5e-05
-2.02399e-18
-5e-05
4.1904e-19
-5e-05
-9.78048e-20
-5e-05
2.25588e-20
-5e-05
-3.58156e-21
-5e-05
6.1441e-23
-5e-05
-9.74721e-22
-5e-05
-5.40465e-22
-5e-05
-3.26843e-21
-5e-05
-4.31234e-21
-5e-05
-4.91544e-21
-5e-05
-4.21918e-21
-5e-05
-4.37887e-21
-5e-05
-1.27706e-21
-5e-05
2.26045e-21
-5e-05
-7.62372e-22
-5e-05
-5.12053e-21
-5e-05
-4.07733e-21
-5e-05
-3.31345e-21
-2.5467e-21
-5e-05
-5e-05
-5e-05
-5e-05
-5e-05
-5e-05
-5e-05
-5e-05
-5e-05
-5e-05
-5e-05
-5e-05
-5e-05
-5e-05
-5e-05
-5e-05
-5e-05
-5e-05
-5e-05
)
;

boundaryField
{
    movingWall
    {
        type            calculated;
        value           uniform -0;
    }
    fixedWalls
    {
        type            calculated;
        value           nonuniform List<scalar> 
60
(
5e-05
5e-05
5e-05
5e-05
5e-05
5e-05
5e-05
5e-05
5e-05
5e-05
5e-05
5e-05
5e-05
5e-05
5e-05
5e-05
5e-05
5e-05
5e-05
5e-05
-5e-05
-5e-05
-5e-05
-5e-05
-5e-05
-5e-05
-5e-05
-5e-05
-5e-05
-5e-05
-5e-05
-5e-05
-5e-05
-5e-05
-5e-05
-5e-05
-5e-05
-5e-05
-5e-05
-5e-05
0
0
0
0
0
0
0
0
0
0
0
0
0
0
0
0
0
0
0
0
)
;
    }
    frontAndBack
    {
        type            empty;
        value           nonuniform List<scalar> 0();
    }
}


// ************************************************************************* //
