/*--------------------------------*- C++ -*----------------------------------*\
| =========                 |                                                 |
| \\      /  F ield         | OpenFOAM: The Open Source CFD Toolbox           |
|  \\    /   O peration     | Version:  2312                                  |
|   \\  /    A nd           | Website:  www.openfoam.com                      |
|    \\/     M anipulation  |                                                 |
\*---------------------------------------------------------------------------*/
FoamFile
{
    version     2.0;
    format      ascii;
    arch        "LSB;label=32;scalar=64";
    class       volTensorField;
    location    "5.625";
    object      gradU;
}
// * * * * * * * * * * * * * * * * * * * * * * * * * * * * * * * * * * * * * //

dimensions      [0 0 -1 0 0 0 0];

internalField   nonuniform List<tensor> 
400
(
(-9.21572e-13 8.03622e-12 0 4.33681e-13 1.41051e-11 0 0 0 0)
(1.35525e-12 -9.60393e-12 0 -1.0842e-13 -2.99291e-12 0 0 0 0)
(-4.06576e-13 1.9742e-12 0 -5.42101e-14 7.11679e-13 0 0 0 0)
(2.71051e-14 -4.82416e-13 0 2.71051e-14 -1.53302e-13 0 0 0 0)
(0 7.96508e-14 0 8.13152e-14 2.41695e-14 0 0 0 0)
(0 -3.61997e-14 0 5.42101e-14 -1.71574e-14 0 0 0 0)
(2.71051e-14 -2.71304e-15 0 5.42101e-14 -2.01878e-14 0 0 0 0)
(2.71051e-14 8.60709e-15 0 5.42101e-14 -1.30973e-14 0 0 0 0)
(-2.71051e-14 1.99806e-14 0 2.71051e-14 1.77366e-15 0 0 0 0)
(2.71051e-14 1.8124e-14 0 2.71051e-14 1.27026e-14 0 0 0 0)
(-2.71051e-14 2.1849e-15 0 0 2.53891e-14 0 0 0 0)
(0 -4.56042e-15 0 0 1.98177e-14 0 0 0 0)
(-2.71051e-14 4.45129e-15 0 0 2.10345e-14 0 0 0 0)
(-2.71051e-14 7.46075e-15 0 0 2.48412e-14 0 0 0 0)
(-2.71051e-14 6.95046e-16 0 -8.13152e-14 1.68517e-14 0 0 0 0)
(0 -9.93209e-15 0 -5.42101e-14 1.41545e-14 0 0 0 0)
(2.71051e-14 -8.95505e-15 0 -5.42101e-14 -1.50787e-15 0 0 0 0)
(-2.71051e-14 -2.69304e-15 0 0 -2.73414e-15 0 0 0 0)
(0 1.71361e-15 0 -5.42101e-14 -8.10116e-15 0 0 0 0)
(0 -1.88531e-15 0 0 -4.27308e-15 0 0 0 0)
(1.32815e-12 3.076e-12 0 1.38236e-12 -2.36967e-11 0 0 0 0)
(-1.87025e-12 -3.78952e-12 0 -4.06576e-13 4.99566e-12 0 0 0 0)
(5.14996e-13 8.65408e-13 0 5.42101e-14 -1.19479e-12 0 0 0 0)
(5.42101e-14 -2.05093e-13 0 -5.42101e-14 2.34964e-13 0 0 0 0)
(5.42101e-14 5.64941e-14 0 -1.0842e-13 -6.28473e-14 0 0 0 0)
(0 -8.15764e-15 0 -5.42101e-14 1.98012e-14 0 0 0 0)
(-5.42101e-14 6.77314e-15 0 -5.42101e-14 2.71043e-14 0 0 0 0)
(-5.42101e-14 1.33544e-14 0 -1.0842e-13 4.27628e-14 0 0 0 0)
(-2.71051e-14 5.81932e-15 0 -8.13152e-14 3.91211e-14 0 0 0 0)
(-5.42101e-14 5.49139e-15 0 -1.0842e-13 1.44112e-14 0 0 0 0)
(5.42101e-14 4.93023e-15 0 -1.35525e-13 -1.67174e-15 0 0 0 0)
(0 2.05866e-16 0 -8.13152e-14 -4.29014e-16 0 0 0 0)
(0 5.7219e-16 0 -5.42101e-14 9.33965e-16 0 0 0 0)
(-5.42101e-14 -1.16436e-14 0 0 5.29981e-16 0 0 0 0)
(5.42101e-14 -1.13817e-14 0 2.71051e-14 -1.85899e-14 0 0 0 0)
(0 -8.42745e-15 0 0 -1.82612e-14 0 0 0 0)
(2.71051e-14 -7.93361e-15 0 0 -1.13614e-14 0 0 0 0)
(0 -3.90026e-15 0 2.71051e-14 -6.21296e-15 0 0 0 0)
(0 -3.25255e-15 0 5.42101e-14 -1.25846e-14 0 0 0 0)
(5.42101e-14 1.42596e-14 0 0 -1.4315e-14 0 0 0 0)
(2.71051e-14 -1.06648e-11 0 -3.14419e-12 5.21705e-12 0 0 0 0)
(5.42101e-14 1.28979e-11 0 8.94467e-13 -1.06821e-12 0 0 0 0)
(-5.42101e-14 -2.7865e-12 0 2.71051e-14 2.41315e-13 0 0 0 0)
(-8.13152e-14 6.49529e-13 0 5.42101e-14 -4.38174e-14 0 0 0 0)
(-2.71051e-14 -1.35512e-13 0 5.42101e-14 9.04837e-15 0 0 0 0)
(0 5.37519e-14 0 0 -1.22105e-14 0 0 0 0)
(0 2.02486e-14 0 -5.42101e-14 -1.63355e-16 0 0 0 0)
(2.71051e-14 2.06239e-14 0 5.42101e-14 -1.48707e-15 0 0 0 0)
(-2.71051e-14 -8.37105e-15 0 5.42101e-14 4.01317e-15 0 0 0 0)
(0 -2.26688e-14 0 8.13152e-14 5.2879e-15 0 0 0 0)
(0 -1.26554e-14 0 1.35525e-13 -1.17271e-14 0 0 0 0)
(2.71051e-14 -1.95471e-15 0 8.13152e-14 -2.34189e-14 0 0 0 0)
(5.42101e-14 5.41028e-15 0 5.42101e-14 -2.6029e-14 0 0 0 0)
(5.42101e-14 -1.20631e-14 0 5.42101e-14 -1.73272e-14 0 0 0 0)
(-2.71051e-14 -1.80962e-14 0 1.0842e-13 -3.6802e-15 0 0 0 0)
(0 -2.7036e-15 0 1.0842e-13 -2.37628e-15 0 0 0 0)
(2.71051e-14 3.09323e-15 0 8.13152e-14 1.19995e-14 0 0 0 0)
(0 -3.91629e-15 0 0 3.16725e-15 0 0 0 0)
(-2.71051e-14 -6.38846e-15 0 5.42101e-14 -1.44861e-15 0 0 0 0)
(-2.71051e-14 2.50143e-14 0 2.71051e-14 2.87271e-15 0 0 0 0)
(-1.00289e-12 7.22484e-12 0 4.33681e-13 1.2649e-11 0 0 0 0)
(1.32815e-12 -8.76525e-12 0 -2.1684e-13 -2.78975e-12 0 0 0 0)
(-3.52366e-13 1.8898e-12 0 -2.71051e-14 6.41739e-13 0 0 0 0)
(5.42101e-14 -4.3736e-13 0 5.42101e-14 -1.3958e-13 0 0 0 0)
(0 8.8101e-14 0 5.42101e-14 4.26757e-14 0 0 0 0)
(0 -1.73694e-14 0 5.42101e-14 8.76226e-16 0 0 0 0)
(-2.71051e-14 1.74966e-14 0 1.0842e-13 6.69613e-15 0 0 0 0)
(0 1.75309e-14 0 5.42101e-14 1.26922e-15 0 0 0 0)
(2.71051e-14 1.25943e-14 0 5.42101e-14 -8.85128e-15 0 0 0 0)
(0 -1.02489e-14 0 5.42101e-14 -1.22547e-15 0 0 0 0)
(0 -2.37765e-14 0 5.42101e-14 2.05938e-15 0 0 0 0)
(0 -1.4096e-14 0 5.42101e-14 -3.44752e-16 0 0 0 0)
(0 6.66386e-15 0 5.42101e-14 -5.58788e-15 0 0 0 0)
(2.71051e-14 1.07052e-14 0 0 -7.12844e-15 0 0 0 0)
(-2.71051e-14 3.56919e-15 0 0 1.47713e-14 0 0 0 0)
(0 7.25228e-15 0 -2.71051e-14 1.49273e-14 0 0 0 0)
(-2.71051e-14 -2.39008e-15 0 0 1.98735e-14 0 0 0 0)
(0 -1.73484e-14 0 2.71051e-14 1.67e-14 0 0 0 0)
(2.71051e-14 -3.54709e-15 0 -2.71051e-14 1.39954e-14 0 0 0 0)
(-5.42101e-14 1.28355e-14 0 2.71051e-14 8.66793e-15 0 0 0 0)
(2.71051e-13 -8.05532e-13 0 2.43945e-12 -1.41476e-11 0 0 0 0)
(-4.87891e-13 8.90671e-13 0 -6.23416e-13 2.99667e-12 0 0 0 0)
(2.1684e-13 -1.36322e-13 0 5.42101e-14 -6.90872e-13 0 0 0 0)
(2.71051e-14 5.04658e-14 0 -1.0842e-13 1.35894e-13 0 0 0 0)
(0 4.94479e-15 0 -5.42101e-14 -3.30296e-14 0 0 0 0)
(0 1.77723e-14 0 -1.0842e-13 1.96818e-14 0 0 0 0)
(0 2.06416e-14 0 -1.0842e-13 1.34729e-14 0 0 0 0)
(0 5.07653e-15 0 -1.0842e-13 9.50618e-15 0 0 0 0)
(-2.71051e-14 -1.08657e-14 0 -5.42101e-14 -3.29251e-15 0 0 0 0)
(2.71051e-14 -1.17581e-14 0 -5.42101e-14 -1.18668e-14 0 0 0 0)
(0 -1.17746e-14 0 -5.42101e-14 -7.03111e-15 0 0 0 0)
(-2.71051e-14 -9.60197e-15 0 -2.71051e-14 2.53244e-15 0 0 0 0)
(0 -1.37341e-15 0 -1.0842e-13 2.80209e-15 0 0 0 0)
(2.71051e-14 8.29614e-15 0 -5.42101e-14 -6.08689e-15 0 0 0 0)
(-5.42101e-14 3.95956e-15 0 -5.42101e-14 3.56885e-15 0 0 0 0)
(0 2.39857e-15 0 -2.71051e-14 3.65586e-15 0 0 0 0)
(5.42101e-14 4.86594e-15 0 -2.71051e-14 -1.0098e-14 0 0 0 0)
(0 -9.79441e-15 0 -2.71051e-14 9.94651e-15 0 0 0 0)
(-5.42101e-14 -1.44205e-14 0 -2.71051e-14 2.02726e-14 0 0 0 0)
(0 2.35103e-15 0 0 3.19225e-15 0 0 0 0)
(8.13152e-13 -3.92612e-12 0 -1.54499e-12 5.50762e-12 0 0 0 0)
(-1.02999e-12 4.6915e-12 0 4.33681e-13 -1.05626e-12 0 0 0 0)
(1.6263e-13 -9.70975e-13 0 0 2.57671e-13 0 0 0 0)
(-8.13152e-14 2.20483e-13 0 0 -5.34446e-14 0 0 0 0)
(5.42101e-14 -2.81114e-14 0 -5.42101e-14 2.4415e-15 0 0 0 0)
(-5.42101e-14 2.91332e-14 0 5.42101e-14 -5.47495e-15 0 0 0 0)
(0 7.32095e-15 0 0 -2.14471e-14 0 0 0 0)
(5.42101e-14 7.65459e-16 0 0 -2.52677e-14 0 0 0 0)
(2.71051e-14 -8.77865e-15 0 0 -1.1314e-14 0 0 0 0)
(0 -1.39874e-14 0 0 -1.29512e-14 0 0 0 0)
(0 -9.37733e-15 0 0 -1.54605e-14 0 0 0 0)
(0 -4.26283e-15 0 2.71051e-14 -1.8544e-15 0 0 0 0)
(-2.71051e-14 -1.95547e-15 0 0 4.48133e-15 0 0 0 0)
(2.71051e-14 1.14719e-14 0 0 -3.15077e-15 0 0 0 0)
(5.42101e-14 1.33119e-14 0 -5.42101e-14 -1.55966e-14 0 0 0 0)
(0 -6.41456e-15 0 0 -7.75576e-15 0 0 0 0)
(0 3.90058e-15 0 0 -1.052e-14 0 0 0 0)
(0 1.30222e-14 0 -2.71051e-14 -3.19834e-16 0 0 0 0)
(5.42101e-14 -1.03014e-14 0 2.71051e-14 1.32266e-14 0 0 0 0)
(-5.42101e-14 -1.06294e-14 0 0 1.25589e-14 0 0 0 0)
(-7.86047e-13 3.64583e-12 0 -7.58942e-13 4.2245e-12 0 0 0 0)
(1.0571e-12 -4.35928e-12 0 1.6263e-13 -8.42009e-13 0 0 0 0)
(-2.1684e-13 8.66495e-13 0 -1.35525e-13 1.83648e-13 0 0 0 0)
(0 -2.04763e-13 0 1.0842e-13 -1.66367e-14 0 0 0 0)
(-2.71051e-14 5.29144e-14 0 5.42101e-14 3.1125e-14 0 0 0 0)
(2.71051e-14 -6.1163e-15 0 0 9.20981e-15 0 0 0 0)
(0 8.48808e-16 0 0 5.83737e-15 0 0 0 0)
(0 1.52095e-14 0 0 8.34198e-15 0 0 0 0)
(-2.71051e-14 1.45075e-15 0 -5.42101e-14 3.50995e-15 0 0 0 0)
(2.71051e-14 -1.59046e-14 0 -5.42101e-14 -8.24818e-15 0 0 0 0)
(0 -6.77824e-16 0 -5.42101e-14 -4.12704e-15 0 0 0 0)
(0 1.03398e-14 0 -1.0842e-13 8.43804e-15 0 0 0 0)
(0 -2.66978e-15 0 0 1.6512e-14 0 0 0 0)
(-5.42101e-14 -1.17818e-14 0 -5.42101e-14 1.60337e-14 0 0 0 0)
(-5.42101e-14 -6.45432e-16 0 -2.71051e-14 -2.92823e-15 0 0 0 0)
(5.42101e-14 7.4752e-15 0 -8.13152e-14 -2.14076e-14 0 0 0 0)
(0 1.23019e-14 0 -8.13152e-14 -1.41087e-14 0 0 0 0)
(2.71051e-14 1.39522e-14 0 -5.42101e-14 -1.52919e-14 0 0 0 0)
(2.71051e-14 -1.54176e-15 0 -2.71051e-14 -3.89797e-15 0 0 0 0)
(-5.42101e-14 -2.34345e-14 0 -2.71051e-14 8.234e-15 0 0 0 0)
(1.89735e-13 -5.43627e-13 0 2.71051e-13 -5.65116e-12 0 0 0 0)
(-4.06576e-13 6.50649e-13 0 -1.35525e-13 1.07056e-12 0 0 0 0)
(8.13152e-14 -1.45602e-13 0 -1.0842e-13 -2.67113e-13 0 0 0 0)
(8.13152e-14 6.79599e-14 0 -1.35525e-13 4.09644e-14 0 0 0 0)
(0 -2.26489e-15 0 -8.13152e-14 -8.27573e-15 0 0 0 0)
(-2.71051e-14 3.84556e-15 0 -8.13152e-14 -1.18345e-14 0 0 0 0)
(-5.42101e-14 6.45311e-15 0 0 -5.4611e-15 0 0 0 0)
(0 -1.56196e-15 0 0 -1.31457e-14 0 0 0 0)
(0 -2.53688e-14 0 5.42101e-14 -2.65366e-14 0 0 0 0)
(5.42101e-14 -2.16244e-14 0 5.42101e-14 -1.8686e-14 0 0 0 0)
(0 7.30889e-15 0 5.42101e-14 -5.51427e-16 0 0 0 0)
(-5.42101e-14 1.63762e-14 0 0 5.106e-15 0 0 0 0)
(0 5.64021e-15 0 0 3.70259e-15 0 0 0 0)
(5.42101e-14 -7.96828e-15 0 0 -8.46643e-16 0 0 0 0)
(0 -2.41294e-14 0 2.71051e-14 -3.0613e-17 0 0 0 0)
(0 -1.7595e-14 0 8.13152e-14 -1.14784e-14 0 0 0 0)
(0 1.00163e-14 0 2.71051e-14 -1.42683e-14 0 0 0 0)
(8.13152e-14 2.32329e-14 0 0 -1.90227e-14 0 0 0 0)
(0 1.32245e-14 0 0 -4.48005e-15 0 0 0 0)
(0 -1.49654e-14 0 0 -1.05882e-15 0 0 0 0)
(-6.77626e-13 -9.3477e-13 0 7.31836e-13 1.89213e-12 0 0 0 0)
(7.58942e-13 1.02476e-12 0 -8.13152e-14 -3.9051e-13 0 0 0 0)
(-2.71051e-13 -1.63101e-13 0 1.89735e-13 1.01309e-13 0 0 0 0)
(5.42101e-14 5.40738e-14 0 0 -3.74967e-14 0 0 0 0)
(5.42101e-14 1.1552e-16 0 2.71051e-14 -3.06782e-14 0 0 0 0)
(8.13152e-14 -3.30166e-15 0 8.13152e-14 -4.22247e-14 0 0 0 0)
(2.71051e-14 -4.6237e-16 0 1.0842e-13 -4.18732e-14 0 0 0 0)
(2.71051e-14 -5.86596e-15 0 1.0842e-13 -3.09084e-14 0 0 0 0)
(5.42101e-14 -4.08954e-15 0 5.42101e-14 -1.36269e-14 0 0 0 0)
(-2.71051e-14 1.00806e-14 0 5.42101e-14 1.36116e-14 0 0 0 0)
(0 2.31142e-14 0 2.71051e-14 2.16246e-14 0 0 0 0)
(-2.71051e-14 1.45938e-14 0 8.13152e-14 1.03151e-14 0 0 0 0)
(0 -8.62242e-15 0 5.42101e-14 -9.70309e-15 0 0 0 0)
(-2.71051e-14 -1.5515e-14 0 1.0842e-13 -7.2043e-15 0 0 0 0)
(2.71051e-14 -1.12771e-14 0 1.0842e-13 3.67592e-15 0 0 0 0)
(0 -6.76247e-15 0 0 1.83448e-14 0 0 0 0)
(-5.42101e-14 4.75751e-15 0 5.42101e-14 1.42584e-14 0 0 0 0)
(2.71051e-14 2.37404e-14 0 5.42101e-14 2.50612e-15 0 0 0 0)
(0 1.64221e-14 0 0 -4.35108e-15 0 0 0 0)
(-2.71051e-14 -1.78957e-14 0 2.71051e-14 -2.62629e-17 0 0 0 0)
(8.94467e-13 9.5799e-13 0 -1.00289e-12 -1.04778e-12 0 0 0 0)
(-9.75782e-13 -1.14017e-12 0 1.89735e-13 2.5005e-13 0 0 0 0)
(1.6263e-13 2.07411e-13 0 -8.13152e-14 -3.61993e-14 0 0 0 0)
(-5.42101e-14 -6.4027e-14 0 8.13152e-14 1.46118e-14 0 0 0 0)
(2.71051e-14 -6.99292e-15 0 0 -1.41196e-14 0 0 0 0)
(0 -7.34947e-15 0 0 -2.02462e-15 0 0 0 0)
(2.71051e-14 1.77695e-14 0 -1.0842e-13 -8.55064e-15 0 0 0 0)
(-2.71051e-14 2.66843e-14 0 -1.0842e-13 -4.73471e-15 0 0 0 0)
(0 1.91512e-14 0 -1.0842e-13 1.03783e-14 0 0 0 0)
(-5.42101e-14 1.36271e-14 0 -1.0842e-13 2.52913e-14 0 0 0 0)
(-5.42101e-14 4.01241e-15 0 -1.0842e-13 1.47704e-14 0 0 0 0)
(0 -1.49515e-14 0 -2.71051e-14 -1.4991e-14 0 0 0 0)
(5.42101e-14 -1.18792e-14 0 0 -2.31212e-14 0 0 0 0)
(5.42101e-14 5.41073e-15 0 -5.42101e-14 -2.58307e-15 0 0 0 0)
(-5.42101e-14 1.41976e-15 0 -5.42101e-14 1.71791e-14 0 0 0 0)
(-5.42101e-14 -7.01258e-15 0 0 1.37598e-14 0 0 0 0)
(0 -5.82243e-15 0 0 5.00138e-15 0 0 0 0)
(0 4.62345e-15 0 -5.42101e-14 2.12421e-15 0 0 0 0)
(5.42101e-14 1.06921e-14 0 0 -1.53969e-14 0 0 0 0)
(0 -1.05881e-14 0 -2.71051e-14 -9.73631e-15 0 0 0 0)
(-1.51788e-12 -1.7325e-12 0 1.32815e-12 1.16344e-12 0 0 0 0)
(1.65341e-12 2.03634e-12 0 -1.89735e-13 -1.96064e-13 0 0 0 0)
(-3.52366e-13 -3.98539e-13 0 1.0842e-13 6.23978e-14 0 0 0 0)
(1.35525e-13 7.61535e-14 0 0 -9.49806e-15 0 0 0 0)
(-5.42101e-14 -1.65209e-14 0 0 6.11579e-15 0 0 0 0)
(0 2.26728e-15 0 -5.42101e-14 2.15895e-14 0 0 0 0)
(-8.13152e-14 -3.17246e-15 0 -2.71051e-14 2.26255e-14 0 0 0 0)
(2.71051e-14 1.3063e-14 0 -2.71051e-14 -8.4217e-15 0 0 0 0)
(1.0842e-13 2.59364e-14 0 -2.71051e-14 -1.69407e-14 0 0 0 0)
(0 1.44726e-14 0 0 -1.29613e-14 0 0 0 0)
(2.71051e-14 -1.71681e-14 0 0 -1.13083e-14 0 0 0 0)
(8.13152e-14 -2.32977e-14 0 0 -2.47433e-14 0 0 0 0)
(-2.71051e-14 3.78551e-15 0 0 -5.6163e-15 0 0 0 0)
(-5.42101e-14 2.47852e-14 0 0 -3.79731e-15 0 0 0 0)
(5.42101e-14 5.06575e-15 0 0 -1.19859e-14 0 0 0 0)
(2.71051e-14 -1.89402e-14 0 2.71051e-14 -1.01492e-14 0 0 0 0)
(-2.71051e-14 -6.87812e-15 0 2.71051e-14 6.65277e-15 0 0 0 0)
(0 3.34217e-15 0 0 1.39594e-14 0 0 0 0)
(0 4.56163e-15 0 0 -2.73886e-15 0 0 0 0)
(0 7.23753e-15 0 0 -9.42138e-15 0 0 0 0)
(2.05998e-12 1.92536e-12 0 -4.33681e-13 2.43668e-12 0 0 0 0)
(-2.19551e-12 -2.24121e-12 0 0 -4.64222e-13 0 0 0 0)
(3.79471e-13 3.93977e-13 0 -8.13152e-14 1.04491e-13 0 0 0 0)
(-1.89735e-13 -1.20309e-13 0 2.71051e-14 -1.7984e-15 0 0 0 0)
(0 2.40946e-14 0 5.42101e-14 2.50198e-14 0 0 0 0)
(0 9.16019e-15 0 0 1.60795e-14 0 0 0 0)
(0 -1.22417e-14 0 8.13152e-14 2.8126e-14 0 0 0 0)
(-2.71051e-14 -1.28818e-14 0 2.71051e-14 1.38046e-14 0 0 0 0)
(-2.71051e-14 1.46116e-14 0 2.71051e-14 -2.2727e-15 0 0 0 0)
(0 1.92594e-14 0 0 -1.67485e-14 0 0 0 0)
(0 -7.76964e-15 0 8.13152e-14 -1.8094e-14 0 0 0 0)
(-5.42101e-14 -9.25945e-15 0 0 -2.75641e-15 0 0 0 0)
(5.42101e-14 9.0668e-15 0 0 1.18009e-14 0 0 0 0)
(0 -9.58851e-16 0 -5.42101e-14 5.44721e-15 0 0 0 0)
(2.71051e-14 -4.93213e-15 0 -5.42101e-14 -1.43346e-14 0 0 0 0)
(0 1.16261e-14 0 -2.71051e-14 4.10567e-15 0 0 0 0)
(-2.71051e-14 1.82862e-14 0 -8.13152e-14 1.82154e-14 0 0 0 0)
(0 -4.76818e-15 0 0 2.92799e-15 0 0 0 0)
(2.71051e-14 -1.26887e-14 0 0 -5.9732e-15 0 0 0 0)
(-2.71051e-14 1.57217e-15 0 0 -3.94728e-16 0 0 0 0)
(-1.95156e-12 2.39959e-13 0 -1.0571e-12 -5.89957e-12 0 0 0 0)
(2.00577e-12 -2.95843e-13 0 2.43945e-13 1.12009e-12 0 0 0 0)
(-3.25261e-13 6.38842e-14 0 -8.13152e-14 -2.90151e-13 0 0 0 0)
(2.1684e-13 -3.31818e-15 0 -8.13152e-14 5.73487e-14 0 0 0 0)
(-8.13152e-14 1.35698e-15 0 -5.42101e-14 -9.11602e-17 0 0 0 0)
(0 5.37357e-15 0 0 2.56954e-15 0 0 0 0)
(0 -5.4473e-15 0 -5.42101e-14 -9.10522e-15 0 0 0 0)
(0 -1.73358e-14 0 0 3.71947e-15 0 0 0 0)
(5.42101e-14 -4.61674e-15 0 0 -7.10266e-16 0 0 0 0)
(0 -1.34862e-15 0 0 -1.55396e-14 0 0 0 0)
(8.13152e-14 -3.17597e-15 0 0 -3.12893e-14 0 0 0 0)
(0 6.5972e-15 0 0 -4.08738e-15 0 0 0 0)
(-5.42101e-14 1.19891e-14 0 2.71051e-14 2.27897e-15 0 0 0 0)
(-2.71051e-14 -1.35032e-15 0 5.42101e-14 -9.19136e-16 0 0 0 0)
(2.71051e-14 3.72421e-15 0 8.13152e-14 8.60271e-15 0 0 0 0)
(-2.71051e-14 1.36099e-14 0 2.71051e-14 2.41534e-14 0 0 0 0)
(0 -8.05579e-15 0 5.42101e-14 5.11163e-15 0 0 0 0)
(2.71051e-14 -2.08464e-14 0 5.42101e-14 -2.26762e-14 0 0 0 0)
(5.42101e-14 1.23891e-15 0 0 -1.25594e-14 0 0 0 0)
(0 1.36055e-14 0 0 -6.27785e-16 0 0 0 0)
(1.21973e-12 -2.85411e-12 0 1.57209e-12 5.92172e-12 0 0 0 0)
(-1.21973e-12 3.36821e-12 0 -1.35525e-13 -1.21757e-12 0 0 0 0)
(1.0842e-13 -6.68766e-13 0 2.71051e-13 3.02914e-13 0 0 0 0)
(-1.0842e-13 1.69751e-13 0 1.0842e-13 -5.80106e-14 0 0 0 0)
(5.42101e-14 -3.06845e-14 0 1.0842e-13 7.96509e-15 0 0 0 0)
(-2.71051e-14 1.46136e-16 0 1.0842e-13 8.31393e-16 0 0 0 0)
(2.71051e-14 -1.10918e-14 0 1.35525e-13 -3.23495e-15 0 0 0 0)
(-2.71051e-14 -4.4869e-15 0 1.0842e-13 8.44213e-15 0 0 0 0)
(0 -4.64745e-15 0 1.0842e-13 -1.24593e-15 0 0 0 0)
(0 -1.13196e-14 0 1.0842e-13 -1.15481e-14 0 0 0 0)
(0 3.68255e-15 0 5.42101e-14 -3.74939e-15 0 0 0 0)
(-2.71051e-14 2.43088e-14 0 0 8.69013e-15 0 0 0 0)
(5.42101e-14 1.2235e-14 0 -8.13152e-14 -2.75601e-15 0 0 0 0)
(0 5.36489e-15 0 0 -4.23825e-15 0 0 0 0)
(0 2.01404e-14 0 -2.71051e-14 2.93206e-15 0 0 0 0)
(0 8.13499e-15 0 -2.71051e-14 -6.7279e-15 0 0 0 0)
(0 -2.85434e-14 0 5.42101e-14 -1.31492e-14 0 0 0 0)
(-2.71051e-14 -2.24392e-14 0 5.42101e-14 4.77097e-15 0 0 0 0)
(0 9.35978e-15 0 5.42101e-14 1.42555e-14 0 0 0 0)
(-2.71051e-14 1.47593e-14 0 0 8.6824e-15 0 0 0 0)
(-5.42101e-13 4.94411e-12 0 -8.67362e-13 -1.20058e-12 0 0 0 0)
(7.31836e-13 -5.91465e-12 0 -5.42101e-14 2.92334e-13 0 0 0 0)
(-1.35525e-13 1.22344e-12 0 -2.1684e-13 -4.64259e-14 0 0 0 0)
(2.71051e-14 -2.98268e-13 0 0 1.69463e-14 0 0 0 0)
(-2.71051e-14 6.0199e-14 0 -1.0842e-13 -2.15545e-15 0 0 0 0)
(2.71051e-14 -5.82647e-15 0 -5.42101e-14 -7.2263e-15 0 0 0 0)
(0 2.16344e-15 0 -2.71051e-14 2.54453e-15 0 0 0 0)
(-2.71051e-14 -1.53467e-14 0 -5.42101e-14 1.2585e-14 0 0 0 0)
(0 -2.4607e-14 0 -2.71051e-14 1.14359e-14 0 0 0 0)
(0 -3.85208e-15 0 -5.42101e-14 2.36092e-14 0 0 0 0)
(-5.42101e-14 1.70623e-14 0 -1.0842e-13 4.86342e-14 0 0 0 0)
(-8.13152e-14 7.59058e-15 0 -5.42101e-14 3.52041e-14 0 0 0 0)
(0 -9.39251e-16 0 0 8.59755e-15 0 0 0 0)
(0 4.33775e-15 0 -5.42101e-14 4.19841e-15 0 0 0 0)
(0 1.23456e-15 0 -8.13152e-14 -1.13494e-14 0 0 0 0)
(2.71051e-14 -2.47134e-15 0 -5.42101e-14 -3.96829e-14 0 0 0 0)
(8.13152e-14 3.44308e-15 0 -1.0842e-13 -3.71742e-14 0 0 0 0)
(2.71051e-14 6.55819e-15 0 -5.42101e-14 1.56698e-15 0 0 0 0)
(-2.71051e-14 5.15033e-15 0 -5.42101e-14 1.66905e-14 0 0 0 0)
(-2.71051e-14 -9.33239e-15 0 -2.71051e-14 6.23486e-15 0 0 0 0)
(2.71051e-13 -3.76236e-12 0 -1.35525e-13 -6.93456e-12 0 0 0 0)
(-5.42101e-13 4.52236e-12 0 5.42101e-14 1.38742e-12 0 0 0 0)
(1.89735e-13 -9.44154e-13 0 2.71051e-14 -3.29528e-13 0 0 0 0)
(2.71051e-14 2.14022e-13 0 -5.42101e-14 6.69285e-14 0 0 0 0)
(-2.71051e-14 -5.48571e-14 0 0 -3.01034e-15 0 0 0 0)
(0 4.84613e-15 0 -5.42101e-14 -6.14491e-15 0 0 0 0)
(2.71051e-14 8.71954e-15 0 -1.35525e-13 -1.93467e-14 0 0 0 0)
(5.42101e-14 4.4045e-15 0 -8.13152e-14 -1.84026e-14 0 0 0 0)
(0 6.37679e-15 0 -8.13152e-14 6.05559e-15 0 0 0 0)
(-5.42101e-14 2.58786e-14 0 -8.13152e-14 2.46429e-14 0 0 0 0)
(0 1.52774e-14 0 -2.71051e-14 1.86791e-14 0 0 0 0)
(0 -1.57278e-14 0 5.42101e-14 9.14907e-15 0 0 0 0)
(0 -1.87706e-14 0 5.42101e-14 1.0876e-14 0 0 0 0)
(0 -1.4582e-14 0 5.42101e-14 -5.40532e-15 0 0 0 0)
(0 -2.3741e-14 0 8.13152e-14 -1.56026e-14 0 0 0 0)
(0 -1.76899e-14 0 1.0842e-13 -1.54718e-14 0 0 0 0)
(0 1.27065e-14 0 0 -1.26517e-14 0 0 0 0)
(0 3.14256e-14 0 -5.42101e-14 -1.68642e-14 0 0 0 0)
(5.42101e-14 1.40277e-14 0 -5.42101e-14 -5.61643e-15 0 0 0 0)
(0 -8.16605e-15 0 5.42101e-14 -7.09698e-15 0 0 0 0)
(-5.42101e-13 -6.03033e-13 0 -3.52366e-13 9.89658e-12 0 0 0 0)
(8.40257e-13 6.90389e-13 0 1.89735e-13 -2.04852e-12 0 0 0 0)
(-2.43945e-13 -9.70513e-14 0 1.0842e-13 4.93852e-13 0 0 0 0)
(-2.71051e-14 2.82505e-14 0 5.42101e-14 -6.11701e-14 0 0 0 0)
(-2.71051e-14 -1.28744e-14 0 8.13152e-14 6.18045e-14 0 0 0 0)
(-8.13152e-14 -2.21628e-14 0 1.0842e-13 3.32735e-14 0 0 0 0)
(-5.42101e-14 -1.00942e-14 0 2.71051e-14 9.50005e-15 0 0 0 0)
(5.42101e-14 1.00555e-14 0 2.71051e-14 -1.52445e-14 0 0 0 0)
(0 1.84384e-14 0 0 -1.2189e-14 0 0 0 0)
(0 8.77142e-15 0 8.13152e-14 -2.65657e-14 0 0 0 0)
(8.13152e-14 1.56848e-15 0 1.0842e-13 -4.23609e-14 0 0 0 0)
(5.42101e-14 -2.12492e-16 0 5.42101e-14 -2.76432e-14 0 0 0 0)
(-2.71051e-14 -1.54936e-14 0 5.42101e-14 -2.08021e-15 0 0 0 0)
(0 -2.21409e-14 0 5.42101e-14 -6.13576e-15 0 0 0 0)
(2.71051e-14 -8.83193e-15 0 5.42101e-14 1.54033e-15 0 0 0 0)
(0 4.79535e-16 0 0 2.24272e-14 0 0 0 0)
(-5.42101e-14 2.05067e-15 0 8.13152e-14 3.74691e-14 0 0 0 0)
(-5.42101e-14 1.35935e-14 0 0 1.3368e-14 0 0 0 0)
(8.13152e-14 1.49176e-14 0 5.42101e-14 -6.94774e-15 0 0 0 0)
(-2.71051e-14 3.38101e-15 0 0 -2.2265e-15 0 0 0 0)
(8.13152e-14 4.08569e-12 0 2.05998e-12 -7.34435e-13 0 0 0 0)
(-8.13152e-14 -4.88036e-12 0 -5.96311e-13 1.50411e-13 0 0 0 0)
(5.42101e-14 1.0432e-12 0 -5.42101e-14 -3.94533e-14 0 0 0 0)
(0 -2.18026e-13 0 -1.0842e-13 1.3394e-14 0 0 0 0)
(0 3.95866e-14 0 -2.71051e-14 7.34492e-16 0 0 0 0)
(0 -4.74583e-14 0 0 6.60576e-15 0 0 0 0)
(0 -3.97984e-14 0 8.13152e-14 8.9628e-15 0 0 0 0)
(0 -1.72846e-14 0 1.0842e-13 5.29915e-15 0 0 0 0)
(0 -4.9445e-15 0 5.42101e-14 -9.38649e-15 0 0 0 0)
(0 -4.29324e-15 0 0 -1.99777e-14 0 0 0 0)
(0 1.41999e-14 0 -2.71051e-14 -1.81756e-14 0 0 0 0)
(0 2.45529e-14 0 -5.42101e-14 -1.64625e-14 0 0 0 0)
(5.42101e-14 2.73682e-15 0 -2.71051e-14 -1.30519e-14 0 0 0 0)
(-2.71051e-14 -1.09615e-14 0 0 8.8456e-15 0 0 0 0)
(-2.71051e-14 4.82196e-15 0 -2.71051e-14 2.47132e-14 0 0 0 0)
(-2.71051e-14 1.82389e-14 0 -1.0842e-13 2.03992e-14 0 0 0 0)
(-2.71051e-14 3.64739e-15 0 -8.13152e-14 1.21348e-14 0 0 0 0)
(0 -1.29913e-14 0 5.42101e-14 1.02547e-14 0 0 0 0)
(0 -1.5669e-15 0 0 -4.52448e-15 0 0 0 0)
(0 1.0082e-15 0 -5.42101e-14 -4.39322e-15 0 0 0 0)
(8.94467e-13 -1.18706e-12 0 -4.60786e-13 -1.17974e-11 0 0 0 0)
(-1.24683e-12 1.38537e-12 0 1.6263e-13 2.479e-12 0 0 0 0)
(2.71051e-13 -2.34069e-13 0 5.42101e-14 -5.977e-13 0 0 0 0)
(0 6.84383e-14 0 8.13152e-14 8.3939e-14 0 0 0 0)
(8.13152e-14 -1.96626e-14 0 5.42101e-14 -7.12186e-14 0 0 0 0)
(2.71051e-14 -1.39345e-14 0 2.71051e-14 -2.59745e-14 0 0 0 0)
(-2.71051e-14 -1.14008e-14 0 5.42101e-14 6.01547e-16 0 0 0 0)
(-5.42101e-14 -8.29376e-15 0 0 2.28171e-14 0 0 0 0)
(0 -6.83845e-15 0 5.42101e-14 1.70051e-14 0 0 0 0)
(0 -1.76376e-17 0 5.42101e-14 1.95125e-14 0 0 0 0)
(-2.71051e-14 5.08369e-15 0 0 1.47279e-14 0 0 0 0)
(0 4.91121e-15 0 0 6.0154e-16 0 0 0 0)
(2.71051e-14 9.81447e-15 0 0 -1.25899e-14 0 0 0 0)
(0 1.56242e-14 0 -5.42101e-14 -1.81282e-16 0 0 0 0)
(-2.71051e-14 2.72169e-15 0 -2.71051e-14 9.30471e-15 0 0 0 0)
(0 -1.20989e-14 0 5.42101e-14 -5.66618e-15 0 0 0 0)
(2.71051e-14 -8.09387e-15 0 5.42101e-14 -2.63593e-14 0 0 0 0)
(5.42101e-14 -3.06577e-15 0 0 -1.44795e-14 0 0 0 0)
(0 2.69676e-16 0 2.71051e-14 -3.0739e-15 0 0 0 0)
(0 1.22987e-14 0 2.71051e-14 -7.05978e-15 0 0 0 0)
(-1.89735e-13 -5.23273e-12 0 -8.94467e-13 8.09595e-12 0 0 0 0)
(4.60786e-13 6.31936e-12 0 1.89735e-13 -1.67616e-12 0 0 0 0)
(-8.13152e-14 -1.35186e-12 0 -5.42101e-14 3.91219e-13 0 0 0 0)
(-2.71051e-14 3.08455e-13 0 -2.71051e-14 -9.02354e-14 0 0 0 0)
(0 -7.0327e-14 0 -5.42101e-14 1.43262e-14 0 0 0 0)
(0 2.43619e-14 0 -8.13152e-14 -2.45764e-16 0 0 0 0)
(-2.71051e-14 8.99319e-15 0 -8.13152e-14 3.89888e-15 0 0 0 0)
(2.71051e-14 -8.81067e-16 0 -5.42101e-14 2.16186e-15 0 0 0 0)
(0 -8.24905e-15 0 -5.42101e-14 1.30737e-14 0 0 0 0)
(-5.42101e-14 -6.57041e-15 0 -5.42101e-14 1.72494e-14 0 0 0 0)
(-2.71051e-14 -4.71104e-15 0 0 1.96618e-14 0 0 0 0)
(-2.71051e-14 -2.76491e-15 0 0 1.68767e-14 0 0 0 0)
(-2.71051e-14 1.954e-15 0 -2.71051e-14 1.75155e-14 0 0 0 0)
(-2.71051e-14 1.09331e-14 0 0 5.10824e-15 0 0 0 0)
(5.42101e-14 -6.62943e-16 0 0 -9.0418e-15 0 0 0 0)
(0 -1.74251e-14 0 0 3.04949e-15 0 0 0 0)
(-2.71051e-14 -5.16597e-15 0 0 2.04821e-14 0 0 0 0)
(0 1.02941e-14 0 0 1.63093e-14 0 0 0 0)
(0 5.85286e-15 0 -2.71051e-14 1.32538e-14 0 0 0 0)
(-2.71051e-14 1.11419e-14 0 -2.71051e-14 1.01868e-14 0 0 0 0)
)
;

boundaryField
{
    movingWall
    {
        type            extrapolatedCalculated;
        value           nonuniform List<tensor> 
20
(
(-1.89735e-13 -5.23273e-12 0 1.33227e-12 2.66063e-11 0 0 0 0)
(4.60786e-13 6.31936e-12 0 -6.21725e-13 -5.67539e-12 0 0 0 0)
(-8.13152e-14 -1.35186e-12 0 -4.44089e-13 1.32888e-12 0 0 0 0)
(-2.71051e-14 3.08455e-13 0 -3.10862e-13 -2.6797e-13 0 0 0 0)
(0 -7.0327e-14 0 -3.10862e-13 9.50643e-14 0 0 0 0)
(0 2.43619e-14 0 -3.10862e-13 1.33379e-14 0 0 0 0)
(-2.71051e-14 8.99319e-15 0 -2.66454e-13 -2.38322e-15 0 0 0 0)
(2.71051e-14 -8.81067e-16 0 -2.66454e-13 -2.26348e-14 0 0 0 0)
(0 -8.24905e-15 0 -3.55271e-13 1.14105e-15 0 0 0 0)
(-5.42101e-14 -6.57041e-15 0 -2.66454e-13 1.03613e-14 0 0 0 0)
(-2.71051e-14 -4.71104e-15 0 -1.77636e-13 2.74227e-14 0 0 0 0)
(-2.71051e-14 -2.76491e-15 0 -1.33227e-13 2.92055e-14 0 0 0 0)
(-2.71051e-14 1.954e-15 0 -1.33227e-13 3.84823e-14 0 0 0 0)
(-2.71051e-14 1.09331e-14 0 0 2.13895e-14 0 0 0 0)
(5.42101e-14 -6.62943e-16 0 -4.44089e-14 -5.25009e-15 0 0 0 0)
(0 -1.74251e-14 0 -1.77636e-13 2.40413e-14 0 0 0 0)
(-2.71051e-14 -5.16597e-15 0 -1.33227e-13 6.44502e-14 0 0 0 0)
(0 1.02941e-14 0 0 4.47051e-14 0 0 0 0)
(0 5.85286e-15 0 -4.44089e-14 2.32738e-14 0 0 0 0)
(-2.71051e-14 1.11419e-14 0 -4.44089e-14 2.12937e-14 0 0 0 0)
)
;
    }
    fixedWalls
    {
        type            extrapolatedCalculated;
        value           nonuniform List<tensor> 
60
(
(-5.50671e-12 4.04208e-11 0 4.33681e-13 1.41051e-11 0 0 0 0)
(7.32747e-12 1.59997e-11 0 1.38236e-12 -2.36967e-11 0 0 0 0)
(-8.88178e-14 -5.43659e-11 0 -3.14419e-12 5.21705e-12 0 0 0 0)
(-5.24025e-12 3.68679e-11 0 4.33681e-13 1.2649e-11 0 0 0 0)
(1.73195e-12 -3.76981e-12 0 2.43945e-12 -1.41476e-11 0 0 0 0)
(4.35207e-12 -1.97226e-11 0 -1.54499e-12 5.50762e-12 0 0 0 0)
(-4.35207e-12 1.82607e-11 0 -7.58942e-13 4.2245e-12 0 0 0 0)
(1.33227e-12 -2.82461e-12 0 2.71051e-13 -5.65116e-12 0 0 0 0)
(-3.37508e-12 -4.34395e-12 0 7.31836e-13 1.89213e-12 0 0 0 0)
(4.35207e-12 4.7439e-12 0 -1.00289e-12 -1.04778e-12 0 0 0 0)
(-7.4607e-12 -8.53506e-12 0 1.32815e-12 1.16344e-12 0 0 0 0)
(9.76996e-12 9.39765e-12 0 -4.33681e-13 2.43668e-12 0 0 0 0)
(-9.23706e-12 1.21165e-12 0 -1.0571e-12 -5.89957e-12 0 0 0 0)
(5.50671e-12 -1.42006e-11 0 1.57209e-12 5.92172e-12 0 0 0 0)
(-2.93099e-12 2.48985e-11 0 -8.67362e-13 -1.20058e-12 0 0 0 0)
(1.9984e-12 -1.9003e-11 0 -1.35525e-13 -6.93456e-12 0 0 0 0)
(-3.37508e-12 -2.83973e-12 0 -3.52366e-13 9.89658e-12 0 0 0 0)
(5.32907e-13 2.05834e-11 0 2.05998e-12 -7.34435e-13 0 0 0 0)
(4.88498e-12 -5.77747e-12 0 -4.60786e-13 -1.17974e-11 0 0 0 0)
(-1.33227e-12 -2.66063e-11 0 -8.94467e-13 8.09595e-12 0 0 0 0)
(0 -8.88981e-15 0 0 -4.27308e-15 0 0 0 0)
(8.88178e-14 2.59821e-14 0 0 -1.4315e-14 0 0 0 0)
(0 4.83703e-14 0 2.71051e-14 2.87271e-15 0 0 0 0)
(-1.33227e-13 1.44913e-14 0 2.71051e-14 8.66793e-15 0 0 0 0)
(-4.44089e-14 1.36986e-14 0 0 3.19225e-15 0 0 0 0)
(-8.88178e-14 1.72229e-15 0 0 1.25589e-14 0 0 0 0)
(-8.88178e-14 -3.65372e-14 0 -2.71051e-14 8.234e-15 0 0 0 0)
(0 -3.12137e-14 0 0 -1.05882e-15 0 0 0 0)
(-8.88178e-14 -3.23019e-14 0 2.71051e-14 -2.62629e-17 0 0 0 0)
(-4.44089e-14 -3.11087e-14 0 -2.71051e-14 -9.73631e-15 0 0 0 0)
(-4.44089e-14 6.64334e-15 0 0 -9.42138e-15 0 0 0 0)
(-4.44089e-14 6.57685e-15 0 0 -3.94728e-16 0 0 0 0)
(0 8.22225e-15 0 0 -6.27785e-16 0 0 0 0)
(-4.44089e-14 9.08799e-15 0 0 8.6824e-15 0 0 0 0)
(0 -2.65073e-14 0 -2.71051e-14 6.23486e-15 0 0 0 0)
(0 -1.58514e-14 0 5.42101e-14 -7.09698e-15 0 0 0 0)
(-1.33227e-13 1.88057e-15 0 0 -2.2265e-15 0 0 0 0)
(0 -6.94543e-15 0 -5.42101e-14 -4.39322e-15 0 0 0 0)
(0 1.94535e-14 0 2.71051e-14 -7.05978e-15 0 0 0 0)
(-4.44089e-14 2.12937e-14 0 -2.71051e-14 1.01868e-14 0 0 0 0)
(-9.21572e-13 8.03622e-12 0 -5.50671e-12 4.04208e-11 0 0 0 0)
(1.35525e-12 -9.60393e-12 0 1.82077e-12 -8.27594e-12 0 0 0 0)
(-4.06576e-13 1.9742e-12 0 -8.88178e-14 2.00509e-12 0 0 0 0)
(2.71051e-14 -4.82416e-13 0 1.33227e-13 -3.79143e-13 0 0 0 0)
(0 7.96508e-14 0 8.88178e-14 7.54248e-14 0 0 0 0)
(0 -3.61997e-14 0 8.88178e-14 -6.05394e-14 0 0 0 0)
(2.71051e-14 -2.71304e-15 0 8.88178e-14 -6.93739e-14 0 0 0 0)
(2.71051e-14 8.60709e-15 0 2.22045e-13 -7.13916e-14 0 0 0 0)
(-2.71051e-14 1.99806e-14 0 1.77636e-13 -3.49456e-14 0 0 0 0)
(2.71051e-14 1.8124e-14 0 2.22045e-13 8.53064e-15 0 0 0 0)
(-2.71051e-14 2.1849e-15 0 1.77636e-13 3.75506e-14 0 0 0 0)
(0 -4.56042e-15 0 1.33227e-13 1.72702e-14 0 0 0 0)
(-2.71051e-14 4.45129e-15 0 1.77636e-13 1.93089e-14 0 0 0 0)
(-2.71051e-14 7.46075e-15 0 1.33227e-13 3.50754e-14 0 0 0 0)
(-2.71051e-14 6.95046e-16 0 0 4.91519e-14 0 0 0 0)
(0 -9.93209e-15 0 0 3.78556e-14 0 0 0 0)
(2.71051e-14 -8.95505e-15 0 4.44089e-14 9.42359e-15 0 0 0 0)
(-2.71051e-14 -2.69304e-15 0 0 2.03537e-15 0 0 0 0)
(0 1.71361e-15 0 4.44089e-14 -1.34856e-15 0 0 0 0)
(0 -1.88531e-15 0 0 8.88981e-15 0 0 0 0)
)
;
    }
    frontAndBack
    {
        type            empty;
    }
}


// ************************************************************************* //
