/*--------------------------------*- C++ -*----------------------------------*\
| =========                 |                                                 |
| \\      /  F ield         | OpenFOAM: The Open Source CFD Toolbox           |
|  \\    /   O peration     | Version:  2312                                  |
|   \\  /    A nd           | Website:  www.openfoam.com                      |
|    \\/     M anipulation  |                                                 |
\*---------------------------------------------------------------------------*/
FoamFile
{
    version     2.0;
    format      ascii;
    arch        "LSB;label=32;scalar=64";
    class       volScalarField;
    location    "5.625";
    object      Lambda2Field;
}
// * * * * * * * * * * * * * * * * * * * * * * * * * * * * * * * * * * * * * //

dimensions      [0 0 -2 0 0 0 0];

internalField   nonuniform List<scalar> 
400
(
4.33445e-24
2.87797e-24
5.82823e-26
0
6.47682e-27
-1.66801e-27
5.8761e-28
6.3813e-28
5.5741e-28
6.52609e-28
6.458e-28
0
4.47406e-28
6.17085e-28
6.78166e-28
5.38419e-28
9.99733e-28
7.47555e-30
0
0
6.01611e-24
5.03856e-24
3.12135e-25
1.40569e-26
0
4.42226e-28
1.29721e-27
3.80776e-28
2.61485e-28
0
2.27057e-27
-1.6556e-29
0
2.8088e-31
4.07389e-28
0
1.44817e-28
-6.71158e-29
0
2.0492e-28
3.35328e-23
1.15397e-23
0
3.7131e-26
0
0
0
1.12024e-27
2.80888e-28
-1.81536e-27
0
3.89496e-28
1.56616e-27
0
0
-2.87479e-28
9.8621e-28
0
3.88365e-28
6.86268e-28
4.13906e-24
3.66464e-24
7.29385e-26
-4.22664e-27
4.77596e-27
-9.40827e-28
2.63167e-27
9.50352e-28
1.19405e-27
-5.5409e-28
0
-7.64029e-28
3.61249e-28
5.08147e-29
2.21377e-28
0
3.96384e-28
-1.91339e-28
4.30759e-28
4.23039e-28
0
0
3.96298e-26
0
0
-1.5395e-27
0
-4.60031e-28
1.06956e-27
7.7823e-28
6.38304e-28
2.66675e-28
1.48905e-28
0
6.44016e-28
-5.1648e-29
2.25614e-28
2.65478e-28
8.42071e-28
0
6.72702e-24
3.0955e-24
2.64486e-26
2.85632e-27
1.70017e-27
1.60929e-27
0
6.38457e-28
1.47274e-28
0
0
-1.12106e-28
2.10382e-29
9.92735e-30
6.6142e-28
0
0
-3.52865e-28
2.45535e-28
1.57727e-28
0
2.90891e-29
0
-2.19237e-26
3.60318e-27
8.48206e-29
0
0
6.56039e-28
9.30221e-28
3.67449e-29
-1.04985e-27
0
8.95773e-28
2.01097e-28
0
0
-2.16674e-29
2.20354e-28
7.02993e-28
0
7.71245e-26
2.23984e-26
-2.59813e-27
1.8417e-28
0
4.02343e-29
0
0
0
3.96215e-28
2.60712e-29
0
7.16804e-31
0
-1.29899e-27
2.71492e-28
3.61864e-28
0
0
0
6.91691e-26
1.04408e-26
1.406e-27
1.12639e-27
1.51445e-27
6.84554e-28
9.86957e-29
8.13711e-28
7.31746e-28
6.2651e-28
1.2931e-27
0
-9.47456e-28
0
0
1.0726e-27
1.29325e-27
0
0
0
0
5.28543e-27
-2.26763e-27
2.11588e-28
0
0
-2.15843e-27
0
0
2.50371e-27
4.0526e-28
5.69868e-28
0
9.91826e-28
1.89333e-28
0
-2.46125e-28
2.65645e-28
2.8699e-28
2.95948e-27
0
2.49358e-26
9.02132e-29
1.05638e-28
0
7.41093e-28
0
2.87328e-28
0
2.01564e-28
6.12232e-28
3.51254e-29
1.44196e-29
1.50077e-28
0
1.46542e-28
0
0
0
3.40854e-24
2.15502e-25
3.53578e-26
0
1.30617e-27
0
0
0
4.40235e-28
0
0
7.59779e-30
1.59813e-28
5.19794e-29
1.00206e-27
-2.98269e-28
0
0
7.59297e-29
1.5581e-31
3.55494e-24
1.18244e-24
8.42638e-26
3.55869e-27
6.98372e-28
0
2.95299e-28
0
5.83304e-30
0
9.81542e-28
0
3.87283e-28
0
1.03752e-27
9.52282e-28
0
-3.95404e-28
1.58121e-28
0
0
1.02599e-24
0
2.17697e-26
0
1.65353e-29
0
0
0
-1.09392e-27
1.99632e-28
7.55183e-29
1.20061e-27
0
0
-1.75235e-28
0
-4.81746e-28
5.07395e-28
7.5384e-29
0
4.06093e-25
0
2.87176e-28
0
3.68073e-28
0
9.90331e-28
6.66974e-28
2.08822e-28
1.08884e-27
8.27842e-28
0
-2.17523e-28
0
8.68656e-28
4.13697e-27
0
4.55484e-28
2.91828e-28
5.83363e-25
5.39031e-25
1.04082e-26
-7.12271e-27
7.34684e-28
-2.24949e-28
0
0
0
0
0
-7.68901e-28
0
-7.61276e-28
0
-1.67856e-27
0
-1.41918e-27
4.35202e-28
-3.92315e-28
5.06362e-25
8.37022e-25
4.89871e-26
2.26615e-27
0
0
1.62593e-28
5.04949e-28
0
7.1325e-28
4.81883e-27
7.52628e-28
0
-1.16261e-27
2.55904e-28
0
3.10549e-27
1.78705e-28
1.24293e-27
4.95732e-30
8.42307e-24
2.91683e-24
0
2.36385e-26
0
0
0
-1.84592e-27
0
0
0
-1.06e-27
3.18804e-28
7.82446e-29
6.03985e-28
-1.24278e-27
4.38096e-28
-5.99101e-28
0
-3.5354e-29
1.34705e-24
1.77989e-24
6.07795e-26
5.56507e-27
5.37047e-27
2.96981e-28
1.16645e-28
5.20618e-28
0
0
2.23372e-28
0
1.82587e-28
-8.46954e-28
2.35215e-28
-6.23775e-28
2.95914e-28
2.09657e-28
7.30958e-30
3.33357e-28
4.7165e-24
1.41133e-24
7.98964e-26
-2.1826e-28
3.81243e-27
-1.98093e-27
3.40155e-30
5.24364e-29
4.47182e-28
6.53723e-28
3.92133e-28
2.84823e-28
4.64935e-28
2.60941e-29
8.1864e-29
0
4.26189e-28
0
0
0
)
;

boundaryField
{
    movingWall
    {
        type            calculated;
        value           nonuniform List<scalar> 
20
(
0
0
6.06956e-25
-2.40791e-26
2.1862e-26
-7.39529e-27
0
7.471e-28
2.93065e-27
1.85807e-27
1.57153e-27
1.10304e-27
4.74359e-28
4.57511e-28
5.35432e-28
3.09531e-27
1.42293e-27
0
0
0
)
;
    }
    fixedWalls
    {
        type            calculated;
        value           nonuniform List<scalar> 
60
(
4.78535e-23
7.58092e-23
1.70944e-22
4.34491e-23
0
4.94118e-23
5.08177e-24
1.00933e-24
6.84199e-24
0
1.43385e-23
1.86181e-24
3.48108e-23
7.99912e-24
0
6.56899e-24
1.23918e-23
4.26854e-23
2.65252e-23
2.55734e-23
0
2.0492e-28
1.31108e-27
4.6792e-28
5.71033e-29
1.57727e-28
1.08038e-27
0
6.75249e-30
9.37998e-28
9.97958e-29
1.5581e-31
0
7.5384e-29
7.18483e-28
-8.08941e-28
5.84145e-30
3.76512e-28
5.27287e-28
0
0
0
0
0
7.07441e-27
0
4.93718e-28
2.64584e-27
4.28394e-27
4.09712e-27
1.1228e-27
-3.09308e-28
1.52539e-27
1.72866e-27
7.34684e-28
0
3.37e-28
4.14272e-30
7.60996e-29
0
)
;
    }
    frontAndBack
    {
        type            empty;
    }
}


// ************************************************************************* //
