/*--------------------------------*- C++ -*----------------------------------*\
| =========                 |                                                 |
| \\      /  F ield         | OpenFOAM: The Open Source CFD Toolbox           |
|  \\    /   O peration     | Version:  2312                                  |
|   \\  /    A nd           | Website:  www.openfoam.com                      |
|    \\/     M anipulation  |                                                 |
\*---------------------------------------------------------------------------*/
FoamFile
{
    version     2.0;
    format      ascii;
    arch        "LSB;label=32;scalar=64";
    class       volVectorField;
    location    "5.625";
    object      LambVectorField;
}
// * * * * * * * * * * * * * * * * * * * * * * * * * * * * * * * * * * * * * //

dimensions      [0 1 -2 0 0 0 0];

internalField   nonuniform List<vector> 
400
(
(-7.68252e-25 -7.60254e-12 -7.60254e-12)
(-1.96461e-25 9.49551e-12 -0)
(-1.01679e-26 -2.02841e-12 -2.02841e-12)
(-4.82953e-28 5.09521e-13 -0)
(3.13833e-31 1.66435e-15 1.66435e-15)
(-1.36834e-29 9.04098e-14 -0)
(-9.87246e-30 5.69231e-14 5.69231e-14)
(-8.13918e-30 4.5603e-14 -0)
(-6.22424e-31 7.1245e-15 7.1245e-15)
(1.91534e-31 8.98101e-15 0)
(-2.05111e-31 -2.1849e-15 -2.1849e-15)
(1.96899e-31 4.56042e-15 0)
(-2.14874e-31 -4.45129e-15 -4.45129e-15)
(-6.54221e-31 -7.46075e-15 0)
(-1.00774e-29 -8.20102e-14 -8.20102e-14)
(-4.19042e-30 -4.4278e-14 0)
(-1.06616e-30 -4.52551e-14 -4.52551e-14)
(1.37033e-32 2.69304e-15 0)
(1.88542e-31 -5.59237e-14 -5.59237e-14)
(4.19002e-32 1.88531e-15 0)
(-6.77446e-26 -1.69365e-12 -1.69365e-12)
(-3.12558e-26 3.38294e-12 -0)
(-1.70681e-27 -8.11197e-13 -8.11197e-13)
(-8.82917e-29 1.50883e-13 -0)
(-8.76241e-30 -1.64914e-13 -1.64914e-13)
(9.3142e-31 -4.60525e-14 -0)
(1.73456e-30 -6.09832e-14 -6.09832e-14)
(-5.78505e-30 -1.21775e-13 0)
(-9.15788e-30 -8.71345e-14 -8.71345e-14)
(-1.20404e-29 -1.13912e-13 0)
(-2.24749e-29 -1.40455e-13 -1.40455e-13)
(-1.26359e-29 -8.1521e-14 0)
(-8.87874e-30 -5.47823e-14 -5.47823e-14)
(1.87141e-30 1.16436e-14 0)
(1.75641e-30 3.84868e-14 3.84868e-14)
(3.953e-31 8.42745e-15 0)
(-3.06536e-31 7.93361e-15 7.93361e-15)
(-1.0055e-30 3.10053e-14 -0)
(-4.46141e-30 5.74627e-14 5.74627e-14)
(9.26235e-31 -1.42596e-14 -0)
(-1.02216e-24 7.52061e-12 7.52061e-12)
(-3.51303e-25 -1.20035e-11 0)
(-1.95129e-26 2.8136e-12 2.8136e-12)
(-8.34508e-28 -5.95319e-13 0)
(-8.34608e-29 1.89722e-13 1.89722e-13)
(-2.50827e-30 -5.37519e-14 0)
(-7.26774e-30 -7.44587e-14 -7.44587e-14)
(8.36798e-30 3.35862e-14 0)
(1.90151e-29 6.25812e-14 6.25812e-14)
(1.7203e-29 1.03984e-13 0)
(1.14335e-29 1.48181e-13 1.48181e-13)
(3.23799e-30 8.32699e-14 0)
(2.81146e-30 4.87998e-14 4.87998e-14)
(6.16263e-30 6.62732e-14 0)
(-7.97291e-30 1.26516e-13 1.26516e-13)
(-9.77595e-30 1.11124e-13 -0)
(-7.04426e-30 7.82219e-14 7.82219e-14)
(-2.2339e-31 3.91629e-15 -0)
(-7.83041e-30 6.05986e-14 6.05986e-14)
(-2.5282e-31 2.09071e-15 -0)
(-6.25939e-25 -6.79116e-12 -6.79116e-12)
(-1.70296e-25 8.54841e-12 -0)
(-8.65906e-27 -1.9169e-12 -1.9169e-12)
(-5.03043e-28 4.9157e-13 -0)
(-4.8673e-30 -3.38909e-14 -3.38909e-14)
(-1.01879e-29 7.15795e-14 -0)
(-2.73469e-30 9.09236e-14 9.09236e-14)
(1.19704e-30 3.66792e-14 0)
(6.04396e-30 4.16158e-14 4.16158e-14)
(1.02218e-29 6.4459e-14 0)
(3.33344e-30 7.79866e-14 7.79866e-14)
(-5.40896e-30 6.83061e-14 -0)
(-4.66983e-30 4.75462e-14 4.75462e-14)
(1.34333e-31 -1.07052e-14 -0)
(-3.15333e-32 -3.56919e-15 -3.56919e-15)
(-7.95148e-31 -3.43573e-14 0)
(1.94451e-31 2.39008e-15 2.39008e-15)
(-3.36655e-32 4.44534e-14 -0)
(2.17031e-30 -2.3558e-14 -2.3558e-14)
(-5.16962e-31 1.42696e-14 -0)
(-3.05824e-26 3.24499e-12 3.24499e-12)
(-2.07308e-27 -1.51409e-12 0)
(-9.86596e-29 1.90532e-13 1.90532e-13)
(-9.49853e-31 -1.58886e-13 0)
(7.78098e-31 -5.91549e-14 -5.91549e-14)
(-6.99436e-30 -1.26192e-13 0)
(-2.12396e-29 -1.29062e-13 -1.29062e-13)
(-2.97182e-29 -1.13497e-13 0)
(-9.33353e-30 -4.33444e-14 -4.33444e-14)
(-6.50298e-30 -4.2452e-14 0)
(-4.14819e-30 -4.24355e-14 -4.24355e-14)
(-6.20274e-31 -1.75031e-14 0)
(-1.85532e-31 -1.07047e-13 -1.07047e-13)
(-1.35663e-30 -6.25062e-14 0)
(-4.92665e-30 -5.81697e-14 -5.81697e-14)
(-1.80855e-30 -2.95036e-14 0)
(-3.47462e-30 -3.1971e-14 -3.1971e-14)
(-1.90346e-30 -1.73106e-14 0)
(-1.36183e-31 -1.26845e-14 -1.26845e-14)
(8.05145e-32 -2.35103e-15 -0)
(-1.17405e-25 2.38113e-12 2.38113e-12)
(-4.27713e-26 -4.25782e-12 0)
(-2.32209e-27 9.70975e-13 9.70975e-13)
(-7.39944e-29 -2.20483e-13 0)
(4.87209e-30 -2.60987e-14 -2.60987e-14)
(1.36639e-30 2.5077e-14 0)
(-7.66156e-31 -7.32095e-15 -7.32095e-15)
(-9.7747e-32 -7.65459e-16 0)
(9.85905e-31 8.77865e-15 8.77865e-15)
(5.58249e-31 1.39874e-14 0)
(-2.58509e-31 9.37733e-15 9.37733e-15)
(-1.68956e-30 3.13679e-14 -0)
(-1.37266e-31 1.95547e-15 1.95547e-15)
(8.42237e-31 -1.14719e-14 -0)
(-3.00631e-30 -6.7522e-14 -6.7522e-14)
(3.82962e-31 6.41456e-15 0)
(7.65381e-32 -3.90058e-15 -3.90058e-15)
(-3.96087e-30 -4.01272e-14 0)
(4.13713e-30 3.74064e-14 3.74064e-14)
(-4.57673e-32 1.06294e-14 -0)
(-2.01085e-25 -4.40477e-12 -4.40477e-12)
(-4.15718e-26 4.52191e-12 -0)
(-2.06305e-27 -1.00202e-12 -1.00202e-12)
(-1.65507e-28 3.13183e-13 -0)
(1.45914e-32 1.29569e-15 1.29569e-15)
(4.1384e-33 6.1163e-15 0)
(4.23569e-32 -8.48808e-16 -8.48808e-16)
(-1.39391e-31 -1.52095e-14 0)
(-5.6882e-30 -5.56609e-14 -5.56609e-14)
(-9.06776e-31 -3.83055e-14 0)
(3.04341e-30 -5.35323e-14 -5.35323e-14)
(-2.00633e-30 -1.1876e-13 0)
(1.24269e-31 2.66978e-15 2.66978e-15)
(4.1596e-31 -4.24283e-14 -0)
(1.88582e-30 -2.64596e-14 -2.64596e-14)
(1.44357e-30 -8.87904e-14 -0)
(-3.25818e-31 -9.3617e-14 -9.3617e-14)
(-7.27704e-30 -6.81623e-14 0)
(-3.65562e-30 -2.55633e-14 -2.55633e-14)
(-3.35275e-31 -3.67051e-15 0)
(-5.75286e-27 8.14677e-13 8.14677e-13)
(-1.27774e-27 -7.86175e-13 0)
(-2.0637e-29 3.71819e-14 3.71819e-14)
(-3.44368e-29 -2.03485e-13 0)
(-9.84734e-30 -7.90503e-14 -7.90503e-14)
(-1.24834e-29 -8.51607e-14 0)
(-1.05203e-30 -6.45311e-15 -6.45311e-15)
(3.29756e-31 1.56196e-15 0)
(1.17305e-29 7.95789e-14 7.95789e-14)
(-3.22836e-30 7.58345e-14 -0)
(-3.22858e-30 4.69012e-14 4.69012e-14)
(-4.99765e-31 -1.63762e-14 0)
(-5.35391e-31 -5.64021e-15 -5.64021e-15)
(6.92602e-31 7.96828e-15 0)
(7.80871e-31 5.12344e-14 5.12344e-14)
(-1.52692e-29 9.89102e-14 -0)
(-2.74632e-30 1.70888e-14 1.70888e-14)
(1.25948e-30 -2.32329e-14 -0)
(-9.47138e-31 -1.32245e-14 -1.32245e-14)
(1.16782e-30 1.49654e-14 0)
(-1.80991e-26 1.66661e-12 1.66661e-12)
(-1.6726e-27 -1.10608e-12 0)
(-2.16018e-28 3.52836e-13 3.52836e-13)
(6.42525e-30 -5.40738e-14 -0)
(-1.92964e-30 2.69895e-14 2.69895e-14)
(-9.95674e-30 8.46168e-14 -0)
(-1.13796e-29 1.08883e-13 1.08883e-13)
(-1.39763e-29 1.14286e-13 -0)
(-9.51288e-30 5.82996e-14 5.82996e-14)
(-7.20139e-30 4.41295e-14 -0)
(-2.48897e-31 3.9909e-15 3.9909e-15)
(4.53397e-30 6.67213e-14 0)
(5.25106e-30 6.28325e-14 6.28325e-14)
(-2.26433e-30 1.23935e-13 -0)
(-8.56767e-30 1.19697e-13 1.19697e-13)
(-8.86166e-31 6.76247e-15 -0)
(-6.88392e-30 4.94526e-14 4.94526e-14)
(-2.5432e-30 3.04697e-14 -0)
(-1.61269e-30 -1.64221e-14 -1.64221e-14)
(3.63402e-30 4.50007e-14 0)
(-2.32555e-26 -1.96088e-12 -1.96088e-12)
(-3.03197e-27 1.3299e-12 -0)
(-1.32254e-28 -2.88726e-13 -2.88726e-13)
(-2.99016e-29 1.45342e-13 -0)
(-1.27419e-30 6.99292e-15 6.99292e-15)
(-2.02597e-30 7.34947e-15 -0)
(3.22674e-29 -1.2619e-13 -1.2619e-13)
(1.32358e-29 -1.35105e-13 -0)
(-1.42079e-30 -1.27571e-13 -1.27571e-13)
(-1.14169e-29 -1.22047e-13 0)
(-1.65734e-29 -1.12433e-13 -1.12433e-13)
(-1.62456e-30 -1.21536e-14 0)
(-2.50286e-32 1.18792e-14 1.18792e-14)
(-8.86976e-31 -5.96208e-14 0)
(-2.89277e-30 -5.56299e-14 -5.56299e-14)
(2.03887e-31 7.01258e-15 0)
(-1.05534e-31 5.82243e-15 5.82243e-15)
(1.71498e-30 -5.88336e-14 -0)
(-3.00546e-31 -1.06921e-14 -1.06921e-14)
(-1.28455e-30 -1.6517e-14 0)
(-6.53069e-26 3.06064e-12 3.06064e-12)
(-8.93255e-27 -2.22608e-12 0)
(-4.93893e-28 5.0696e-13 5.0696e-13)
(-2.07854e-30 -7.61535e-14 0)
(-3.51386e-30 1.65209e-14 1.65209e-14)
(7.78907e-30 -5.64774e-14 -0)
(4.54764e-30 -2.39326e-14 -2.39326e-14)
(6.81408e-30 -4.0168e-14 -0)
(3.15008e-30 -5.30415e-14 -5.30415e-14)
(-1.29856e-30 -1.44726e-14 0)
(1.46508e-30 1.71681e-14 1.71681e-14)
(-1.90939e-30 2.32977e-14 -0)
(5.58891e-31 -3.78551e-15 -3.78551e-15)
(1.09305e-30 -2.47852e-14 -0)
(-5.07654e-31 -5.06575e-15 -5.06575e-15)
(3.01899e-31 4.60452e-14 0)
(-3.03091e-30 3.39832e-14 3.39832e-14)
(2.07965e-31 -3.34217e-15 -0)
(2.54388e-31 -4.56163e-15 -4.56163e-15)
(1.20203e-31 -7.23753e-15 -0)
(-5.54237e-26 -2.35904e-12 -2.35904e-12)
(-9.5038e-27 2.24121e-12 -0)
(-5.14284e-28 -4.75292e-13 -4.75292e-13)
(-4.43293e-29 1.47414e-13 -0)
(-3.64557e-30 3.01155e-14 3.01155e-14)
(5.47475e-31 -9.16019e-15 -0)
(-2.75536e-30 9.35569e-14 9.35569e-14)
(-7.28496e-30 3.99869e-14 -0)
(-1.97733e-30 1.24935e-14 1.24935e-14)
(6.94644e-31 -1.92594e-14 -0)
(3.05779e-30 8.90848e-14 8.90848e-14)
(-1.05339e-30 9.25945e-15 -0)
(5.28322e-31 -9.0668e-15 -9.0668e-15)
(1.2299e-30 -5.32513e-14 -0)
(3.34393e-30 -4.9278e-14 -4.9278e-14)
(2.80481e-30 -3.87311e-14 -0)
(-4.82093e-30 -9.96013e-14 -9.96013e-14)
(5.26619e-31 4.76818e-15 0)
(9.14159e-33 1.26887e-14 1.26887e-14)
(2.58497e-32 -1.57217e-15 -0)
(-3.92894e-27 -1.29706e-12 -1.29706e-12)
(-3.39814e-28 5.39789e-13 -0)
(-1.02638e-29 -1.45199e-13 -1.45199e-13)
(-7.26167e-31 -7.7997e-14 0)
(-2.08409e-30 -5.55671e-14 -5.55671e-14)
(-1.22947e-31 -5.37357e-15 0)
(-4.4492e-30 -4.87628e-14 -4.87628e-14)
(-5.47689e-31 1.73358e-14 -0)
(-3.79108e-31 4.61674e-15 4.61674e-15)
(-1.04869e-31 1.34862e-15 -0)
(-3.0363e-31 3.17597e-15 3.17597e-15)
(7.22526e-31 -6.5972e-15 -0)
(-4.4789e-31 1.51159e-14 1.51159e-14)
(5.76227e-31 5.55604e-14 0)
(-3.34677e-30 7.7591e-14 7.7591e-14)
(6.42549e-31 1.34952e-14 0)
(5.78857e-30 6.22659e-14 6.22659e-14)
(-2.47271e-30 7.50565e-14 -0)
(1.43092e-31 -1.23891e-15 -1.23891e-15)
(2.79669e-31 -1.36055e-14 -0)
(-1.57137e-25 4.4262e-12 4.4262e-12)
(-2.43875e-26 -3.50373e-12 0)
(-1.70997e-27 9.39817e-13 9.39817e-13)
(-1.67295e-29 -6.1331e-14 0)
(-1.69659e-29 1.39105e-13 1.39105e-13)
(-3.68905e-30 1.08274e-13 -0)
(-1.76678e-29 1.46617e-13 1.46617e-13)
(-1.63703e-29 1.12907e-13 -0)
(-1.86983e-29 1.13068e-13 1.13068e-13)
(-2.29258e-29 1.1974e-13 -0)
(-1.40754e-29 5.05276e-14 5.05276e-14)
(3.75907e-30 -2.43088e-14 -0)
(3.31918e-30 -9.35502e-14 -9.35502e-14)
(1.73219e-31 -5.36489e-15 -0)
(-8.58385e-31 -4.72454e-14 -4.72454e-14)
(-5.95966e-30 -3.524e-14 0)
(8.23551e-30 8.27535e-14 8.27535e-14)
(-8.91567e-30 7.66493e-14 -0)
(-5.6006e-30 4.48503e-14 4.48503e-14)
(3.35331e-31 -1.47593e-14 -0)
(-3.61743e-25 -5.81147e-12 -5.81147e-12)
(-7.50441e-26 5.86044e-12 -0)
(-4.46463e-27 -1.44028e-12 -1.44028e-12)
(-1.7025e-28 2.98268e-13 -0)
(-1.97549e-29 -1.68619e-13 -1.68619e-13)
(-1.50927e-30 -4.83836e-14 0)
(-1.72368e-30 -2.92685e-14 -2.92685e-14)
(-2.05309e-30 -3.88634e-14 0)
(2.36256e-31 -2.49807e-15 -2.49807e-15)
(9.73126e-30 -5.0358e-14 -0)
(1.67012e-29 -1.25482e-13 -1.25482e-13)
(1.39786e-30 -6.18007e-14 -0)
(-5.37161e-32 9.39251e-16 9.39251e-16)
(1.87419e-30 -5.85479e-14 -0)
(1.14025e-30 -8.25497e-14 -8.25497e-14)
(1.01748e-30 -5.17388e-14 -0)
(4.30968e-30 -1.11863e-13 -1.11863e-13)
(-8.97245e-31 -6.07683e-14 0)
(-1.60603e-30 -5.93604e-14 -5.93604e-14)
(-1.17777e-30 -1.77727e-14 0)
(-1.72301e-25 3.62684e-12 3.62684e-12)
(-4.41622e-26 -4.46815e-12 0)
(-2.2181e-27 9.71259e-13 9.71259e-13)
(-1.18622e-28 -2.68232e-13 0)
(-7.87305e-30 5.48571e-14 5.48571e-14)
(6.27971e-30 -5.90562e-14 -0)
(1.37116e-29 -1.44245e-13 -1.44245e-13)
(1.64059e-30 -8.57197e-14 -0)
(4.47343e-30 -8.7692e-14 -8.7692e-14)
(-4.78394e-30 -1.07194e-13 0)
(-8.80595e-30 -4.23825e-14 -4.23825e-14)
(1.3806e-29 6.99379e-14 0)
(3.68518e-30 7.29807e-14 7.29807e-14)
(6.67049e-31 6.87921e-14 0)
(-1.00145e-29 1.05056e-13 1.05056e-13)
(-2.87169e-29 1.2611e-13 -0)
(3.45901e-30 -1.27065e-14 -1.27065e-14)
(8.61906e-30 -8.56357e-14 -0)
(-2.86816e-30 -6.82378e-14 -6.82378e-14)
(2.47188e-30 6.23762e-14 0)
(-1.77957e-27 2.50668e-13 2.50668e-13)
(-5.35199e-28 -5.00653e-13 0)
(-4.01598e-29 2.05472e-13 2.05472e-13)
(2.55673e-30 2.59596e-14 0)
(8.19953e-30 9.41896e-14 9.41896e-14)
(-3.95082e-30 1.30583e-13 -0)
(-5.00609e-30 3.71993e-14 3.71993e-14)
(-2.23685e-30 1.70495e-14 -0)
(6.27267e-31 -1.84384e-14 -1.84384e-14)
(3.85839e-30 7.25437e-14 0)
(5.73737e-30 1.06852e-13 1.06852e-13)
(3.74818e-30 5.44226e-14 0)
(3.5946e-30 6.97037e-14 6.97037e-14)
(-6.57111e-30 7.6351e-14 -0)
(-1.0707e-29 6.3042e-14 6.3042e-14)
(8.36231e-32 -4.79535e-16 -0)
(-1.30821e-29 7.92645e-14 7.92645e-14)
(2.09173e-30 -1.35935e-14 -0)
(-1.14375e-30 3.92925e-14 3.92925e-14)
(1.58956e-32 -3.38101e-15 -0)
(-1.0424e-25 -2.02571e-12 -2.02571e-12)
(-4.54172e-26 4.28405e-12 -0)
(-2.91339e-27 -1.09741e-12 -1.09741e-12)
(-1.85744e-29 1.09606e-13 -0)
(-3.16469e-29 -6.66916e-14 -6.66916e-14)
(1.07446e-29 4.74583e-14 0)
(-6.95599e-33 1.21114e-13 1.21114e-13)
(-2.15689e-29 1.25705e-13 -0)
(-1.0228e-29 5.91546e-14 5.91546e-14)
(-9.48928e-31 4.29324e-15 -0)
(8.91509e-30 -4.1305e-14 -4.1305e-14)
(6.22457e-30 -7.8763e-14 -0)
(-8.861e-31 -2.98419e-14 -2.98419e-14)
(-5.66282e-31 1.09615e-14 -0)
(2.55167e-30 -3.1927e-14 -3.1927e-14)
(4.35887e-31 -1.26659e-13 -0)
(-8.70589e-30 -8.49626e-14 -8.49626e-14)
(2.21983e-30 6.72014e-14 0)
(-4.30043e-32 1.5669e-15 1.5669e-15)
(-9.58787e-31 -5.52183e-14 0)
(-1.049e-26 7.26271e-13 7.26271e-13)
(-3.14625e-27 -1.22274e-12 0)
(-1.7008e-28 2.88279e-13 2.88279e-13)
(2.99294e-30 1.28768e-14 0)
(6.97347e-30 7.38727e-14 7.38727e-14)
(1.46932e-30 4.10396e-14 0)
(-2.94901e-30 6.56109e-14 6.56109e-14)
(-6.48619e-31 8.29376e-15 -0)
(-7.80716e-30 6.10486e-14 6.10486e-14)
(-7.94926e-30 5.42277e-14 -0)
(6.51021e-31 -5.08369e-15 -5.08369e-15)
(4.70264e-31 -4.91121e-15 -0)
(7.74841e-31 -9.81447e-15 -9.81447e-15)
(-1.67003e-31 -6.98343e-14 0)
(-2.30539e-30 -2.98267e-14 -2.98267e-14)
(1.9633e-30 6.6309e-14 0)
(-2.72242e-30 6.2304e-14 6.2304e-14)
(-1.57367e-31 3.06577e-15 -0)
(-1.9953e-30 2.68354e-14 2.68354e-14)
(-7.20086e-31 1.48063e-14 -0)
(-2.88563e-25 4.33827e-12 4.33827e-12)
(-8.697e-26 -6.12962e-12 0)
(-4.31105e-27 1.29764e-12 1.29764e-12)
(-2.248e-28 -3.3556e-13 0)
(-3.83035e-30 1.61169e-14 1.61169e-14)
(3.52378e-30 -1.05677e-13 -0)
(-5.38061e-31 -9.03083e-14 -9.03083e-14)
(-3.01774e-30 -5.3329e-14 0)
(1.3111e-31 -4.59611e-14 -4.59611e-14)
(1.23403e-30 -4.76397e-14 -0)
(-3.22974e-31 4.71104e-15 4.71104e-15)
(-2.01877e-31 2.76491e-15 -0)
(2.79565e-30 -2.90591e-14 -2.90591e-14)
(5.84634e-31 -1.09331e-14 -0)
(8.70126e-33 6.62943e-16 6.62943e-16)
(-1.0473e-30 1.74251e-14 -0)
(-8.32369e-31 5.16597e-15 5.16597e-15)
(1.1505e-30 -1.02941e-14 -0)
(1.91764e-30 -3.29579e-14 -3.29579e-14)
(2.03605e-30 -3.82469e-14 -0)
)
;

boundaryField
{
    movingWall
    {
        type            calculated;
        value           nonuniform List<vector> 
20
(
(0 6.565e-12 -0)
(0 -6.94108e-12 -0)
(0 9.07766e-13 -0)
(0 -6.19317e-13 -0)
(0 -2.40535e-13 -0)
(0 -3.35224e-13 -0)
(0 -2.75447e-13 -0)
(0 -2.65572e-13 -0)
(0 -3.47022e-13 -0)
(0 -2.59883e-13 -0)
(0 -1.72925e-13 -0)
(0 -1.30462e-13 -0)
(0 -1.35181e-13 -0)
(0 -1.09331e-14 -0)
(0 -4.3746e-14 -0)
(0 -1.60211e-13 -0)
(0 -1.28061e-13 -0)
(0 -1.02941e-14 -0)
(0 -5.02618e-14 -0)
(0 -5.55508e-14 -0)
)
;
    }
    fixedWalls
    {
        type            calculated;
        value           nonuniform List<vector> 
60
(
(0 -3.99871e-11 -0)
(0 -1.46174e-11 -0)
(0 5.12217e-11 -0)
(0 -3.64342e-11 -0)
(0 6.20926e-12 -0)
(0 1.81776e-11 -0)
(0 -1.90196e-11 -0)
(0 3.09566e-12 -0)
(0 5.07579e-12 -0)
(0 -5.74678e-12 -0)
(0 9.8632e-12 -0)
(0 -9.83133e-12 -0)
(0 -2.26874e-12 -0)
(0 1.57727e-11 -0)
(0 -2.57659e-11 -0)
(0 1.88674e-11 -0)
(0 2.48737e-12 -0)
(0 -1.85234e-11 -0)
(0 5.31669e-12 -0)
(0 2.57119e-11 -0)
(0 8.88981e-15 -0)
(0 -2.59821e-14 -0)
(0 -2.12653e-14 -0)
(0 1.26138e-14 -0)
(0 -1.36986e-14 -0)
(0 -1.72229e-15 -0)
(0 9.43212e-15 -0)
(0 3.12137e-14 -0)
(0 5.9407e-14 -0)
(0 4.00361e-15 -0)
(0 -6.64334e-15 -0)
(0 -6.57685e-15 -0)
(0 -8.22225e-15 -0)
(0 -9.08799e-15 -0)
(0 -5.97709e-16 -0)
(0 7.00616e-14 -0)
(0 -1.88057e-15 -0)
(0 -4.72647e-14 -0)
(0 7.6516e-15 -0)
(0 -4.83988e-14 -0)
(0 -1.35429e-11 -0)
(0 1.14247e-11 -0)
(0 -2.06302e-12 -0)
(0 6.15643e-13 -0)
(0 9.16703e-15 -0)
(0 1.25018e-13 -0)
(0 9.15309e-14 -0)
(0 2.13438e-13 -0)
(0 1.57655e-13 -0)
(0 2.03921e-13 -0)
(0 1.75451e-13 -0)
(0 1.37787e-13 -0)
(0 1.73184e-13 -0)
(0 1.25766e-13 -0)
(0 -6.95046e-16 -0)
(0 9.93209e-15 -0)
(0 5.3364e-14 -0)
(0 2.69304e-15 -0)
(0 4.26953e-14 -0)
(0 1.88531e-15 -0)
)
;
    }
    frontAndBack
    {
        type            empty;
    }
}


// ************************************************************************* //
