/*--------------------------------*- C++ -*----------------------------------*\
| =========                 |                                                 |
| \\      /  F ield         | OpenFOAM: The Open Source CFD Toolbox           |
|  \\    /   O peration     | Version:  2312                                  |
|   \\  /    A nd           | Website:  www.openfoam.com                      |
|    \\/     M anipulation  |                                                 |
\*---------------------------------------------------------------------------*/
FoamFile
{
    version     2.0;
    format      ascii;
    arch        "LSB;label=32;scalar=64";
    class       volScalarField;
    location    "5.625";
    object      pzeroGrad;
}
// * * * * * * * * * * * * * * * * * * * * * * * * * * * * * * * * * * * * * //

dimensions      [0 2 -2 0 0 0 0];

internalField   nonuniform List<scalar> 
400
(
4.05045e-16
2.1704e-15
9.67373e-16
1.09334e-15
8.78625e-16
9.24011e-16
8.89547e-16
1.17539e-15
1.50529e-15
1.4687e-15
1.49581e-15
1.28775e-15
1.24628e-15
1.32421e-15
1.2508e-15
1.18585e-15
7.76049e-16
8.42997e-16
8.8222e-16
8.16475e-16
1.70822e-15
0
9.99406e-16
7.55453e-16
8.95018e-16
8.63521e-16
9.89372e-16
1.27692e-15
1.50602e-15
1.42168e-15
1.33885e-15
1.31418e-15
1.30211e-15
1.38208e-15
1.09671e-15
1.06231e-15
8.55161e-16
9.0777e-16
9.22572e-16
7.5073e-16
5.21461e-16
1.68393e-15
7.85636e-16
9.46936e-16
8.9411e-16
9.57331e-16
1.01058e-15
1.12177e-15
1.31755e-15
1.29472e-15
1.21586e-15
1.15925e-15
1.14214e-15
1.15007e-15
1.25619e-15
9.91804e-16
8.3711e-16
8.41842e-16
9.93486e-16
1.05821e-15
1.0544e-16
1.97967e-15
7.53228e-16
9.16555e-16
8.66945e-16
9.66126e-16
1.03914e-15
1.07488e-15
1.10005e-15
1.14417e-15
1.1141e-15
1.13937e-15
1.09361e-15
9.48019e-16
1.14757e-15
9.72906e-16
8.61395e-16
8.52894e-16
9.75606e-16
1.1579e-15
7.47543e-16
0
7.86742e-16
6.00614e-16
8.85511e-16
9.23871e-16
9.09706e-16
9.61936e-16
1.06343e-15
1.03632e-15
1.05247e-15
1.0476e-15
9.75902e-16
9.16805e-16
1.04466e-15
8.30409e-16
6.33838e-16
7.5754e-16
1.06648e-15
1.16737e-15
2.65484e-16
2.33892e-15
5.02345e-16
8.39759e-16
8.07005e-16
9.6112e-16
8.37994e-16
7.89254e-16
9.42741e-16
1.09234e-15
1.07947e-15
1.02579e-15
9.33055e-16
8.43177e-16
7.70842e-16
7.41234e-16
6.43451e-16
5.42444e-16
8.98223e-16
1.27777e-15
2.80778e-16
6.62145e-16
6.21789e-16
7.98512e-16
7.28456e-16
7.36236e-16
8.06174e-16
8.34966e-16
8.26731e-16
9.9518e-16
1.08404e-15
1.04346e-15
9.40571e-16
9.66543e-16
8.53695e-16
6.24855e-16
6.26242e-16
4.60774e-16
8.73834e-16
1.22273e-15
1.10585e-15
0
5.64609e-16
6.30331e-16
7.01659e-16
8.31653e-16
8.92881e-16
7.23751e-16
6.44921e-16
9.96152e-16
1.12841e-15
1.1483e-15
9.14706e-16
7.55107e-16
7.55485e-16
6.14323e-16
5.6637e-16
3.97683e-16
7.84804e-16
9.71571e-16
7.48693e-16
3.17996e-16
8.11887e-16
6.39741e-16
6.41022e-16
8.66596e-16
7.48502e-16
6.21267e-16
5.85092e-16
9.81729e-16
1.2204e-15
1.0308e-15
8.51129e-16
8.68052e-16
6.85267e-16
5.61844e-16
6.62569e-16
4.84565e-16
5.62998e-16
9.07251e-16
4.41146e-16
1.07354e-15
4.81263e-16
6.85029e-16
7.12394e-16
8.91733e-16
8.37403e-16
8.08224e-16
7.80097e-16
1.08059e-15
1.20937e-15
8.51335e-16
5.99727e-16
6.28187e-16
7.59021e-16
6.80037e-16
5.60072e-16
4.37284e-16
4.25401e-16
6.42167e-16
3.43557e-16
0
4.30845e-16
4.80946e-16
7.96194e-16
1.0238e-15
1.01427e-15
8.00659e-16
6.51342e-16
1.02045e-15
1.03241e-15
6.42522e-16
6.6695e-16
6.70919e-16
4.81817e-16
5.25703e-16
6.18981e-16
4.94805e-16
4.79839e-16
5.93933e-16
2.81336e-16
2.5851e-15
2.82396e-16
6.17535e-16
7.09805e-16
8.58138e-16
9.99516e-16
9.0115e-16
8.41265e-16
9.28654e-16
9.05024e-16
8.48002e-16
6.4017e-16
6.38731e-16
4.49499e-16
4.63709e-16
4.04534e-16
2.58088e-16
2.66491e-16
6.5984e-16
8.17512e-16
0
5.42782e-16
2.37705e-16
9.87234e-16
9.09273e-16
8.91963e-16
8.01237e-16
6.38047e-16
7.42035e-16
6.04139e-16
7.72292e-16
8.35134e-16
6.76958e-16
4.335e-16
3.92214e-16
2.27095e-16
8.17684e-17
3.7765e-16
5.74095e-16
2.62769e-16
2.58224e-15
6.09004e-16
6.12803e-16
6.99036e-16
8.27322e-16
6.86801e-16
7.78393e-16
7.02568e-16
7.23248e-16
6.69025e-16
7.5154e-16
5.67474e-16
5.05876e-16
4.18109e-16
2.81877e-16
1.49393e-16
9.19484e-17
3.08472e-16
6.84872e-16
5.68737e-16
0
8.25549e-16
4.96136e-16
8.21631e-16
7.57306e-16
7.52358e-16
7.87005e-16
6.81768e-16
7.11644e-16
7.67888e-16
7.57473e-16
4.80281e-16
3.93048e-16
3.96125e-16
2.48185e-16
9.45966e-17
0
2.14736e-16
6.27042e-16
9.79591e-16
0
6.99386e-16
5.13493e-16
8.39271e-16
8.68147e-16
7.77836e-16
6.56429e-16
7.62826e-16
8.31259e-16
5.9469e-16
5.1132e-16
4.47226e-16
3.81841e-16
2.98605e-16
2.46601e-16
1.39628e-16
0
1.77732e-16
4.36523e-16
3.29033e-16
2.03705e-15
7.45249e-16
8.17178e-16
7.99429e-16
1.02065e-15
8.93776e-16
6.05838e-16
7.77913e-16
7.43778e-16
4.85035e-16
4.18373e-16
4.70379e-16
1.99812e-16
1.29575e-16
9.18257e-17
1.87369e-16
1.97804e-17
7.67149e-17
5.04897e-16
9.98777e-16
9.45881e-16
5.77165e-16
6.72374e-16
7.34859e-16
7.67698e-16
8.25716e-16
7.32499e-16
7.27296e-16
6.83673e-16
4.91415e-16
3.09692e-16
1.56242e-16
1.78105e-16
1.56603e-16
1.12262e-16
8.29627e-17
4.78537e-17
1.46036e-16
4.56462e-16
1.43417e-15
0
9.28281e-16
5.63978e-16
5.83994e-16
6.22404e-16
7.56197e-16
7.81282e-16
6.81006e-16
6.4571e-16
3.47122e-16
1.99353e-16
3.75866e-17
5.66226e-17
1.2147e-16
8.67303e-17
7.83412e-17
3.8492e-17
2.52618e-16
4.45996e-16
4.56614e-16
2.25929e-15
8.20365e-16
6.36383e-16
5.24834e-16
6.26684e-16
7.32817e-16
5.42981e-16
6.59912e-16
7.55743e-16
4.1649e-16
1.46631e-16
9.6611e-17
1.05639e-16
0
0
2.68681e-16
1.91286e-16
2.66744e-16
6.29057e-16
)
;

boundaryField
{
    movingWall
    {
        type            zeroGradient;
    }
    fixedWalls
    {
        type            zeroGradient;
    }
    frontAndBack
    {
        type            empty;
    }
}


// ************************************************************************* //
