/*--------------------------------*- C++ -*----------------------------------*\
| =========                 |                                                 |
| \\      /  F ield         | OpenFOAM: The Open Source CFD Toolbox           |
|  \\    /   O peration     | Version:  2312                                  |
|   \\  /    A nd           | Website:  www.openfoam.com                      |
|    \\/     M anipulation  |                                                 |
\*---------------------------------------------------------------------------*/
FoamFile
{
    version     2.0;
    format      ascii;
    arch        "LSB;label=32;scalar=64";
    class       volScalarField;
    location    "5.625";
    object      QField;
}
// * * * * * * * * * * * * * * * * * * * * * * * * * * * * * * * * * * * * * //

dimensions      [0 0 -2 0 0 0 0];

internalField   nonuniform List<scalar> 
400
(
-1.6484e-23
-5.09741e-24
-1.8233e-25
8.92064e-27
-6.47682e-27
1.96239e-27
-4.00118e-28
-8.21593e-28
-5.89649e-28
-1.46949e-28
-6.88173e-28
0
-5.70143e-28
-6.73322e-28
-4.00248e-28
-5.38419e-28
-5.26325e-28
7.41091e-29
9.2895e-29
0
-3.57248e-23
-1.08839e-23
-6.62227e-25
1.6193e-27
2.71815e-27
-4.42226e-28
-1.10215e-27
-8.70293e-28
-5.87181e-28
-1.85857e-28
5.77545e-28
1.674e-29
3.10185e-29
-2.87303e-29
-6.99256e-28
0
-3.07951e-28
1.05717e-28
1.76321e-28
-7.76019e-28
-3.33907e-23
-1.15947e-23
6.24464e-26
-3.1648e-26
7.10085e-27
0
1.09768e-27
-1.15833e-27
3.45018e-28
1.84332e-27
1.71512e-27
-4.75822e-28
-1.70433e-27
-2.85368e-28
2.06174e-27
2.93125e-28
7.37216e-29
0
3.85584e-28
-7.5588e-28
-1.58188e-23
-5.60587e-24
-1.74904e-25
1.61427e-26
-4.77596e-27
9.41595e-28
-2.07848e-27
-9.50352e-28
-9.22653e-28
5.55591e-28
1.28893e-27
7.64148e-28
-3.61249e-28
-1.93217e-28
-4.00378e-28
1.96573e-28
-5.38673e-28
4.70229e-28
2.83202e-28
-8.17795e-28
-1.86966e-24
-9.06788e-25
-1.42419e-25
9.15494e-27
2.68058e-28
1.92687e-27
2.23796e-27
5.50398e-28
-4.99789e-28
-9.59059e-28
-6.38304e-28
-3.28904e-28
-1.48905e-28
2.84749e-28
2.11799e-29
6.50133e-29
-4.15521e-28
-2.65478e-28
-1.48985e-27
0
-1.58728e-24
-9.46675e-25
4.19051e-26
4.34585e-27
-1.39157e-27
-1.28251e-27
0
-1.36976e-27
-3.06668e-28
0
0
1.15544e-28
-1.21467e-28
-8.54018e-29
-1.23853e-28
0
0
3.52967e-28
9.96236e-28
-6.80821e-28
-5.53688e-25
-1.81135e-25
7.76097e-26
2.22005e-26
-3.71214e-27
2.49632e-28
0
0
-1.64921e-29
-1.08576e-27
-3.67449e-29
1.12105e-27
0
-1.50788e-27
1.41245e-28
-5.52661e-28
1.00033e-27
3.41864e-28
-1.47444e-28
-1.08156e-27
-9.24874e-25
-3.47084e-25
-3.75065e-26
1.25413e-26
-1.8417e-28
6.33478e-28
2.96047e-28
0
1.37525e-27
1.59294e-28
-3.96215e-28
-2.76797e-28
0
-4.58966e-29
6.54028e-28
1.43074e-27
-2.71492e-28
-1.54684e-27
0
0
-5.98056e-25
-2.13045e-25
3.48619e-27
-2.0327e-27
-1.6662e-27
-3.16504e-27
-1.08484e-27
-2.01785e-28
-5.17023e-28
-9.15413e-28
-6.2651e-28
-1.46629e-27
4.67422e-28
1.87741e-27
1.32231e-27
0
-1.03085e-27
-1.21904e-27
0
4.85775e-28
2.35549e-26
-2.76644e-26
1.09786e-26
4.41426e-27
-3.82712e-28
0
1.6948e-27
3.02145e-27
2.07637e-27
1.06405e-28
-3.65677e-28
-4.0526e-28
-1.2534e-27
1.53288e-28
-8.54314e-28
-7.45922e-28
0
2.50637e-28
-8.34668e-28
-2.8699e-28
5.35047e-25
6.21923e-26
2.12229e-26
-1.28723e-27
-3.31538e-28
1.22909e-28
-1.92578e-27
1.25802e-28
-1.1337e-27
0
-3.06513e-28
-2.01201e-27
1.5223e-28
2.05852e-28
-6.49756e-28
2.3828e-28
6.10814e-30
0
0
0
5.85451e-24
1.0192e-24
7.16877e-26
3.6022e-27
-1.30617e-27
0
9.95436e-28
-2.50123e-29
-3.34447e-28
0
6.3179e-28
1.49425e-28
6.39729e-28
-5.19794e-29
-6.55913e-28
3.15125e-28
9.93215e-28
0
-1.61904e-28
1.06991e-29
1.1767e-23
2.31882e-24
9.95696e-26
1.21657e-26
8.09746e-29
0
-2.95299e-28
0
-3.85036e-29
0
-2.54429e-27
0
-4.48509e-28
9.81142e-29
-6.96577e-29
-1.02357e-27
4.36705e-28
5.15448e-28
-6.80844e-28
0
1.17098e-23
1.94158e-24
2.14111e-25
-1.21149e-26
3.75861e-27
-3.8379e-29
1.41553e-27
2.57646e-28
5.03877e-28
1.22728e-27
-1.99632e-28
-2.35546e-28
8.45492e-28
0
5.45906e-28
2.20499e-28
1.54734e-27
1.08711e-27
-5.07395e-28
-2.35337e-28
4.93917e-24
-1.06693e-25
2.71583e-25
4.59329e-28
6.58521e-27
-5.11723e-28
5.86403e-29
-1.17307e-27
-6.66974e-28
-2.08822e-28
-7.8657e-28
-2.45114e-27
0
2.3515e-28
1.00388e-28
-1.20958e-27
-2.64953e-27
3.97993e-28
-1.73197e-28
-4.21951e-28
-2.38951e-24
-9.9728e-25
-3.69319e-26
1.34162e-26
8.15953e-29
2.62709e-28
6.57324e-28
-6.39452e-28
5.1853e-28
7.68434e-28
4.14095e-28
8.52607e-28
1.01756e-27
7.90494e-28
1.9305e-27
1.91794e-27
0
1.70358e-27
4.55974e-28
4.42683e-28
-5.57743e-24
-1.85228e-24
-1.09951e-25
1.26556e-28
-6.28327e-28
-3.02741e-28
-2.41395e-28
-1.09896e-27
0
-7.1325e-28
-3.61464e-27
-1.48702e-27
8.96296e-28
1.20026e-27
5.2053e-28
0
-2.19796e-27
-7.24683e-28
-1.37364e-27
6.03495e-29
-8.47618e-24
-2.92244e-24
5.44133e-26
-2.36385e-26
1.073e-27
0
3.23621e-27
1.874e-27
2.68042e-28
0
3.8489e-28
1.33101e-27
-6.33361e-28
-2.3976e-28
-5.39153e-28
1.42455e-27
-3.23261e-29
7.04259e-28
0
5.46544e-29
-1.10994e-23
-3.31619e-24
-1.49318e-25
-5.56507e-27
-4.72524e-27
-3.26345e-28
6.01734e-28
-1.23692e-27
3.70713e-28
9.56138e-31
-3.992e-28
0
-3.4125e-28
8.46987e-28
-1.78433e-28
6.5588e-28
-2.757e-28
-7.84937e-28
-7.30958e-30
-3.33357e-28
-6.21659e-24
-1.97136e-24
-1.05096e-25
1.08065e-26
-3.81243e-27
1.98099e-27
6.25603e-28
1.08346e-29
-4.47182e-28
-1.29127e-27
-5.32933e-28
-4.57444e-28
-4.21794e-28
-1.38459e-28
-4.90157e-28
0
-5.55169e-28
0
1.58642e-28
2.58877e-29
)
;

boundaryField
{
    movingWall
    {
        type            calculated;
        value           nonuniform List<scalar> 
20
(
1.92324e-24
1.31376e-24
-7.08403e-25
1.0315e-25
-2.1862e-26
7.57319e-27
2.46086e-27
-8.48282e-28
-2.93065e-27
-2.3124e-27
-1.58014e-27
-1.15998e-27
-7.82741e-28
-5.79764e-28
-3.14048e-28
-3.09531e-27
-2.43517e-27
0
2.59919e-28
-8.23681e-29
)
;
    }
    fixedWalls
    {
        type            calculated;
        value           nonuniform List<scalar> 
60
(
-9.52025e-23
-1.95754e-22
-1.714e-22
-8.22729e-23
-1.53067e-23
-6.50165e-24
-4.52657e-24
-6.76324e-24
-3.20701e-24
1.97594e-25
2.65576e-24
2.78818e-23
5.57754e-23
5.49339e-23
2.51149e-23
-1.64334e-23
-3.44023e-23
-4.27928e-23
-6.02923e-23
-3.45844e-23
0
-1.27143e-27
-1.31108e-27
-1.54759e-27
-1.41764e-28
-1.11546e-27
-1.72167e-27
0
8.77877e-28
-4.10823e-28
4.18393e-28
1.75294e-29
0
-3.85576e-28
-7.18483e-28
8.59308e-28
2.9663e-28
-3.76512e-28
-5.27287e-28
1.24783e-28
7.00241e-24
6.27052e-24
-6.39876e-25
5.3994e-26
-7.07441e-27
3.21518e-27
-1.63942e-27
-3.84623e-27
-2.60206e-27
-3.79312e-27
-1.40593e-27
6.0757e-28
-1.31408e-27
-1.94469e-27
-1.33227e-27
0
6.53111e-28
-5.51688e-29
-7.60996e-29
0
)
;
    }
    frontAndBack
    {
        type            empty;
    }
}


// ************************************************************************* //
