/*--------------------------------*- C++ -*----------------------------------*\
| =========                 |                                                 |
| \\      /  F ield         | OpenFOAM: The Open Source CFD Toolbox           |
|  \\    /   O peration     | Version:  2312                                  |
|   \\  /    A nd           | Website:  www.openfoam.com                      |
|    \\/     M anipulation  |                                                 |
\*---------------------------------------------------------------------------*/
FoamFile
{
    version     2.0;
    format      ascii;
    arch        "LSB;label=32;scalar=64";
    class       volVectorField;
    location    "5.625";
    object      vorticityField;
}
// * * * * * * * * * * * * * * * * * * * * * * * * * * * * * * * * * * * * * //

dimensions      [0 0 -1 0 0 0 0];

internalField   nonuniform List<vector> 
400
(
(0 -0 7.60254e-12)
(0 -0 -9.49551e-12)
(0 -0 2.02841e-12)
(0 -0 -5.09521e-13)
(0 -0 -1.66435e-15)
(0 -0 -9.04098e-14)
(0 -0 -5.69231e-14)
(0 -0 -4.5603e-14)
(0 -0 -7.1245e-15)
(0 -0 -8.98101e-15)
(0 -0 2.1849e-15)
(0 -0 -4.56042e-15)
(0 -0 4.45129e-15)
(0 -0 7.46075e-15)
(0 -0 8.20102e-14)
(0 -0 4.4278e-14)
(0 -0 4.52551e-14)
(0 -0 -2.69304e-15)
(0 -0 5.59237e-14)
(0 -0 -1.88531e-15)
(0 -0 1.69365e-12)
(0 -0 -3.38294e-12)
(0 -0 8.11197e-13)
(0 -0 -1.50883e-13)
(0 -0 1.64914e-13)
(0 -0 4.60525e-14)
(0 -0 6.09832e-14)
(0 -0 1.21775e-13)
(0 -0 8.71345e-14)
(0 -0 1.13912e-13)
(0 -0 1.40455e-13)
(0 -0 8.1521e-14)
(0 -0 5.47823e-14)
(0 -0 -1.16436e-14)
(0 -0 -3.84868e-14)
(0 -0 -8.42745e-15)
(0 -0 -7.93361e-15)
(0 -0 -3.10053e-14)
(0 -0 -5.74627e-14)
(0 -0 1.42596e-14)
(0 -0 -7.52061e-12)
(0 -0 1.20035e-11)
(0 -0 -2.8136e-12)
(0 -0 5.95319e-13)
(0 -0 -1.89722e-13)
(0 -0 5.37519e-14)
(0 -0 7.44587e-14)
(0 -0 -3.35862e-14)
(0 -0 -6.25812e-14)
(0 -0 -1.03984e-13)
(0 -0 -1.48181e-13)
(0 -0 -8.32699e-14)
(0 -0 -4.87998e-14)
(0 -0 -6.62732e-14)
(0 -0 -1.26516e-13)
(0 -0 -1.11124e-13)
(0 -0 -7.82219e-14)
(0 -0 -3.91629e-15)
(0 -0 -6.05986e-14)
(0 -0 -2.09071e-15)
(0 -0 6.79116e-12)
(0 -0 -8.54841e-12)
(0 -0 1.9169e-12)
(0 -0 -4.9157e-13)
(0 -0 3.38909e-14)
(0 -0 -7.15795e-14)
(0 -0 -9.09236e-14)
(0 -0 -3.66792e-14)
(0 -0 -4.16158e-14)
(0 -0 -6.4459e-14)
(0 -0 -7.79866e-14)
(0 -0 -6.83061e-14)
(0 -0 -4.75462e-14)
(0 -0 1.07052e-14)
(0 -0 3.56919e-15)
(0 -0 3.43573e-14)
(0 -0 -2.39008e-15)
(0 -0 -4.44534e-14)
(0 -0 2.3558e-14)
(0 -0 -1.42696e-14)
(0 -0 -3.24499e-12)
(0 -0 1.51409e-12)
(0 -0 -1.90532e-13)
(0 -0 1.58886e-13)
(0 -0 5.91549e-14)
(0 -0 1.26192e-13)
(0 -0 1.29062e-13)
(0 -0 1.13497e-13)
(0 -0 4.33444e-14)
(0 -0 4.2452e-14)
(0 -0 4.24355e-14)
(0 -0 1.75031e-14)
(0 -0 1.07047e-13)
(0 -0 6.25062e-14)
(0 -0 5.81697e-14)
(0 -0 2.95036e-14)
(0 -0 3.1971e-14)
(0 -0 1.73106e-14)
(0 -0 1.26845e-14)
(0 -0 2.35103e-15)
(0 -0 -2.38113e-12)
(0 -0 4.25782e-12)
(0 -0 -9.70975e-13)
(0 -0 2.20483e-13)
(0 -0 2.60987e-14)
(0 -0 -2.5077e-14)
(0 -0 7.32095e-15)
(0 -0 7.65459e-16)
(0 -0 -8.77865e-15)
(0 -0 -1.39874e-14)
(0 -0 -9.37733e-15)
(0 -0 -3.13679e-14)
(0 -0 -1.95547e-15)
(0 -0 1.14719e-14)
(0 -0 6.7522e-14)
(0 -0 -6.41456e-15)
(0 -0 3.90058e-15)
(0 -0 4.01272e-14)
(0 -0 -3.74064e-14)
(0 -0 -1.06294e-14)
(0 -0 4.40477e-12)
(0 -0 -4.52191e-12)
(0 -0 1.00202e-12)
(0 -0 -3.13183e-13)
(0 -0 -1.29569e-15)
(0 -0 -6.1163e-15)
(0 -0 8.48808e-16)
(0 -0 1.52095e-14)
(0 -0 5.56609e-14)
(0 -0 3.83055e-14)
(0 -0 5.35323e-14)
(0 -0 1.1876e-13)
(0 -0 -2.66978e-15)
(0 -0 4.24283e-14)
(0 -0 2.64596e-14)
(0 -0 8.87904e-14)
(0 -0 9.3617e-14)
(0 -0 6.81623e-14)
(0 -0 2.55633e-14)
(0 -0 3.67051e-15)
(0 -0 -8.14677e-13)
(0 -0 7.86175e-13)
(0 -0 -3.71819e-14)
(0 -0 2.03485e-13)
(0 -0 7.90503e-14)
(0 -0 8.51607e-14)
(0 -0 6.45311e-15)
(0 -0 -1.56196e-15)
(0 -0 -7.95789e-14)
(0 -0 -7.58345e-14)
(0 -0 -4.69012e-14)
(0 -0 1.63762e-14)
(0 -0 5.64021e-15)
(0 -0 -7.96828e-15)
(0 -0 -5.12344e-14)
(0 -0 -9.89102e-14)
(0 -0 -1.70888e-14)
(0 -0 2.32329e-14)
(0 -0 1.32245e-14)
(0 -0 -1.49654e-14)
(0 -0 -1.66661e-12)
(0 -0 1.10608e-12)
(0 -0 -3.52836e-13)
(0 -0 5.40738e-14)
(0 -0 -2.69895e-14)
(0 -0 -8.46168e-14)
(0 -0 -1.08883e-13)
(0 -0 -1.14286e-13)
(0 -0 -5.82996e-14)
(0 -0 -4.41295e-14)
(0 -0 -3.9909e-15)
(0 -0 -6.67213e-14)
(0 -0 -6.28325e-14)
(0 -0 -1.23935e-13)
(0 -0 -1.19697e-13)
(0 -0 -6.76247e-15)
(0 -0 -4.94526e-14)
(0 -0 -3.04697e-14)
(0 -0 1.64221e-14)
(0 -0 -4.50007e-14)
(0 -0 1.96088e-12)
(0 -0 -1.3299e-12)
(0 -0 2.88726e-13)
(0 -0 -1.45342e-13)
(0 -0 -6.99292e-15)
(0 -0 -7.34947e-15)
(0 -0 1.2619e-13)
(0 -0 1.35105e-13)
(0 -0 1.27571e-13)
(0 -0 1.22047e-13)
(0 -0 1.12433e-13)
(0 -0 1.21536e-14)
(0 -0 -1.18792e-14)
(0 -0 5.96208e-14)
(0 -0 5.56299e-14)
(0 -0 -7.01258e-15)
(0 -0 -5.82243e-15)
(0 -0 5.88336e-14)
(0 -0 1.06921e-14)
(0 -0 1.6517e-14)
(0 -0 -3.06064e-12)
(0 -0 2.22608e-12)
(0 -0 -5.0696e-13)
(0 -0 7.61535e-14)
(0 -0 -1.65209e-14)
(0 -0 5.64774e-14)
(0 -0 2.39326e-14)
(0 -0 4.0168e-14)
(0 -0 5.30415e-14)
(0 -0 1.44726e-14)
(0 -0 -1.71681e-14)
(0 -0 -2.32977e-14)
(0 -0 3.78551e-15)
(0 -0 2.47852e-14)
(0 -0 5.06575e-15)
(0 -0 -4.60452e-14)
(0 -0 -3.39832e-14)
(0 -0 3.34217e-15)
(0 -0 4.56163e-15)
(0 -0 7.23753e-15)
(0 -0 2.35904e-12)
(0 -0 -2.24121e-12)
(0 -0 4.75292e-13)
(0 -0 -1.47414e-13)
(0 -0 -3.01155e-14)
(0 -0 9.16019e-15)
(0 -0 -9.35569e-14)
(0 -0 -3.99869e-14)
(0 -0 -1.24935e-14)
(0 -0 1.92594e-14)
(0 -0 -8.90848e-14)
(0 -0 -9.25945e-15)
(0 -0 9.0668e-15)
(0 -0 5.32513e-14)
(0 -0 4.9278e-14)
(0 -0 3.87311e-14)
(0 -0 9.96013e-14)
(0 -0 -4.76818e-15)
(0 -0 -1.26887e-14)
(0 -0 1.57217e-15)
(0 -0 1.29706e-12)
(0 -0 -5.39789e-13)
(0 -0 1.45199e-13)
(0 -0 7.7997e-14)
(0 -0 5.55671e-14)
(0 -0 5.37357e-15)
(0 -0 4.87628e-14)
(0 -0 -1.73358e-14)
(0 -0 -4.61674e-15)
(0 -0 -1.34862e-15)
(0 -0 -3.17597e-15)
(0 -0 6.5972e-15)
(0 -0 -1.51159e-14)
(0 -0 -5.55604e-14)
(0 -0 -7.7591e-14)
(0 -0 -1.34952e-14)
(0 -0 -6.22659e-14)
(0 -0 -7.50565e-14)
(0 -0 1.23891e-15)
(0 -0 1.36055e-14)
(0 -0 -4.4262e-12)
(0 -0 3.50373e-12)
(0 -0 -9.39817e-13)
(0 -0 6.1331e-14)
(0 -0 -1.39105e-13)
(0 -0 -1.08274e-13)
(0 -0 -1.46617e-13)
(0 -0 -1.12907e-13)
(0 -0 -1.13068e-13)
(0 -0 -1.1974e-13)
(0 -0 -5.05276e-14)
(0 -0 2.43088e-14)
(0 -0 9.35502e-14)
(0 -0 5.36489e-15)
(0 -0 4.72454e-14)
(0 -0 3.524e-14)
(0 -0 -8.27535e-14)
(0 -0 -7.66493e-14)
(0 -0 -4.48503e-14)
(0 -0 1.47593e-14)
(0 -0 5.81147e-12)
(0 -0 -5.86044e-12)
(0 -0 1.44028e-12)
(0 -0 -2.98268e-13)
(0 -0 1.68619e-13)
(0 -0 4.83836e-14)
(0 -0 2.92685e-14)
(0 -0 3.88634e-14)
(0 -0 2.49807e-15)
(0 -0 5.0358e-14)
(0 -0 1.25482e-13)
(0 -0 6.18007e-14)
(0 -0 -9.39251e-16)
(0 -0 5.85479e-14)
(0 -0 8.25497e-14)
(0 -0 5.17388e-14)
(0 -0 1.11863e-13)
(0 -0 6.07683e-14)
(0 -0 5.93604e-14)
(0 -0 1.77727e-14)
(0 -0 -3.62684e-12)
(0 -0 4.46815e-12)
(0 -0 -9.71259e-13)
(0 -0 2.68232e-13)
(0 -0 -5.48571e-14)
(0 -0 5.90562e-14)
(0 -0 1.44245e-13)
(0 -0 8.57197e-14)
(0 -0 8.7692e-14)
(0 -0 1.07194e-13)
(0 -0 4.23825e-14)
(0 -0 -6.99379e-14)
(0 -0 -7.29807e-14)
(0 -0 -6.87921e-14)
(0 -0 -1.05056e-13)
(0 -0 -1.2611e-13)
(0 -0 1.27065e-14)
(0 -0 8.56357e-14)
(0 -0 6.82378e-14)
(0 -0 -6.23762e-14)
(0 -0 -2.50668e-13)
(0 -0 5.00653e-13)
(0 -0 -2.05472e-13)
(0 -0 -2.59596e-14)
(0 -0 -9.41896e-14)
(0 -0 -1.30583e-13)
(0 -0 -3.71993e-14)
(0 -0 -1.70495e-14)
(0 -0 1.84384e-14)
(0 -0 -7.25437e-14)
(0 -0 -1.06852e-13)
(0 -0 -5.44226e-14)
(0 -0 -6.97037e-14)
(0 -0 -7.6351e-14)
(0 -0 -6.3042e-14)
(0 -0 4.79535e-16)
(0 -0 -7.92645e-14)
(0 -0 1.35935e-14)
(0 -0 -3.92925e-14)
(0 -0 3.38101e-15)
(0 -0 2.02571e-12)
(0 -0 -4.28405e-12)
(0 -0 1.09741e-12)
(0 -0 -1.09606e-13)
(0 -0 6.66916e-14)
(0 -0 -4.74583e-14)
(0 -0 -1.21114e-13)
(0 -0 -1.25705e-13)
(0 -0 -5.91546e-14)
(0 -0 -4.29324e-15)
(0 -0 4.1305e-14)
(0 -0 7.8763e-14)
(0 -0 2.98419e-14)
(0 -0 -1.09615e-14)
(0 -0 3.1927e-14)
(0 -0 1.26659e-13)
(0 -0 8.49626e-14)
(0 -0 -6.72014e-14)
(0 -0 -1.5669e-15)
(0 -0 5.52183e-14)
(0 -0 -7.26271e-13)
(0 -0 1.22274e-12)
(0 -0 -2.88279e-13)
(0 -0 -1.28768e-14)
(0 -0 -7.38727e-14)
(0 -0 -4.10396e-14)
(0 -0 -6.56109e-14)
(0 -0 -8.29376e-15)
(0 -0 -6.10486e-14)
(0 -0 -5.42277e-14)
(0 -0 5.08369e-15)
(0 -0 4.91121e-15)
(0 -0 9.81447e-15)
(0 -0 6.98343e-14)
(0 -0 2.98267e-14)
(0 -0 -6.6309e-14)
(0 -0 -6.2304e-14)
(0 -0 -3.06577e-15)
(0 -0 -2.68354e-14)
(0 -0 -1.48063e-14)
(0 -0 -4.33827e-12)
(0 -0 6.12962e-12)
(0 -0 -1.29764e-12)
(0 -0 3.3556e-13)
(0 -0 -1.61169e-14)
(0 -0 1.05677e-13)
(0 -0 9.03083e-14)
(0 -0 5.3329e-14)
(0 -0 4.59611e-14)
(0 -0 4.76397e-14)
(0 -0 -4.71104e-15)
(0 -0 -2.76491e-15)
(0 -0 2.90591e-14)
(0 -0 1.09331e-14)
(0 -0 -6.62943e-16)
(0 -0 -1.74251e-14)
(0 -0 -5.16597e-15)
(0 -0 1.02941e-14)
(0 -0 3.29579e-14)
(0 -0 3.82469e-14)
)
;

boundaryField
{
    movingWall
    {
        type            calculated;
        value           nonuniform List<vector> 
20
(
(0 -0 -6.565e-12)
(0 -0 6.94108e-12)
(0 -0 -9.07766e-13)
(0 -0 6.19317e-13)
(0 -0 2.40535e-13)
(0 -0 3.35224e-13)
(0 -0 2.75447e-13)
(0 -0 2.65572e-13)
(0 -0 3.47022e-13)
(0 -0 2.59883e-13)
(0 -0 1.72925e-13)
(0 -0 1.30462e-13)
(0 -0 1.35181e-13)
(0 -0 1.09331e-14)
(0 -0 4.3746e-14)
(0 -0 1.60211e-13)
(0 -0 1.28061e-13)
(0 -0 1.02941e-14)
(0 -0 5.02618e-14)
(0 -0 5.55508e-14)
)
;
    }
    fixedWalls
    {
        type            calculated;
        value           nonuniform List<vector> 
60
(
(0 -0 3.99871e-11)
(0 -0 1.46174e-11)
(0 -0 -5.12217e-11)
(0 -0 3.64342e-11)
(0 -0 -6.20926e-12)
(0 -0 -1.81776e-11)
(0 -0 1.90196e-11)
(0 -0 -3.09566e-12)
(0 -0 -5.07579e-12)
(0 -0 5.74678e-12)
(0 -0 -9.8632e-12)
(0 -0 9.83133e-12)
(0 -0 2.26874e-12)
(0 -0 -1.57727e-11)
(0 -0 2.57659e-11)
(0 -0 -1.88674e-11)
(0 -0 -2.48737e-12)
(0 -0 1.85234e-11)
(0 -0 -5.31669e-12)
(0 -0 -2.57119e-11)
(0 -0 -8.88981e-15)
(0 -0 2.59821e-14)
(0 -0 2.12653e-14)
(0 -0 -1.26138e-14)
(0 -0 1.36986e-14)
(0 -0 1.72229e-15)
(0 -0 -9.43212e-15)
(0 -0 -3.12137e-14)
(0 -0 -5.9407e-14)
(0 -0 -4.00361e-15)
(0 -0 6.64334e-15)
(0 -0 6.57685e-15)
(0 -0 8.22225e-15)
(0 -0 9.08799e-15)
(0 -0 5.97709e-16)
(0 -0 -7.00616e-14)
(0 -0 1.88057e-15)
(0 -0 4.72647e-14)
(0 -0 -7.6516e-15)
(0 -0 4.83988e-14)
(0 -0 1.35429e-11)
(0 -0 -1.14247e-11)
(0 -0 2.06302e-12)
(0 -0 -6.15643e-13)
(0 -0 -9.16703e-15)
(0 -0 -1.25018e-13)
(0 -0 -9.15309e-14)
(0 -0 -2.13438e-13)
(0 -0 -1.57655e-13)
(0 -0 -2.03921e-13)
(0 -0 -1.75451e-13)
(0 -0 -1.37787e-13)
(0 -0 -1.73184e-13)
(0 -0 -1.25766e-13)
(0 -0 6.95046e-16)
(0 -0 -9.93209e-15)
(0 -0 -5.3364e-14)
(0 -0 -2.69304e-15)
(0 -0 -4.26953e-14)
(0 -0 -1.88531e-15)
)
;
    }
    frontAndBack
    {
        type            empty;
    }
}


// ************************************************************************* //
