/*--------------------------------*- C++ -*----------------------------------*\
| =========                 |                                                 |
| \\      /  F ield         | OpenFOAM: The Open Source CFD Toolbox           |
|  \\    /   O peration     | Version:  2312                                  |
|   \\  /    A nd           | Website:  www.openfoam.com                      |
|    \\/     M anipulation  |                                                 |
\*---------------------------------------------------------------------------*/
FoamFile
{
    version     2.0;
    format      ascii;
    arch        "LSB;label=32;scalar=64";
    class       volVectorField;
    location    "5.625";
    object      zeroGradient(U);
}
// * * * * * * * * * * * * * * * * * * * * * * * * * * * * * * * * * * * * * //

dimensions      [0 1 -1 0 0 0 0];

internalField   nonuniform List<vector> 
400
(
(-1 1.01052e-13 0)
(-1 -2.06899e-14 0)
(-1 5.01272e-15 0)
(-1 -9.47857e-16 0)
(-1 1.88562e-16 0)
(-1 -1.51349e-16 0)
(-1 -1.73435e-16 0)
(-1 -1.78479e-16 0)
(-1 -8.7364e-17 0)
(-1 2.13266e-17 0)
(-1 9.38765e-17 0)
(-1 4.31756e-17 0)
(-1 4.82724e-17 0)
(-1 8.76885e-17 0)
(-1 1.2288e-16 0)
(-1 9.46389e-17 0)
(-1 2.3559e-17 0)
(-1 5.08842e-18 0)
(-1 -3.37141e-18 0)
(-1 2.22245e-17 0)
(-1 3.99993e-14 0)
(-1 -9.23924e-15 0)
(-1 2.10406e-15 0)
(-1 -5.85167e-16 0)
(-1 5.31331e-17 0)
(-1 -2.02252e-17 0)
(-1 -2.84433e-17 0)
(-1 4.75062e-17 0)
(-1 1.05101e-16 0)
(-1 1.05699e-16 0)
(-1 1.60014e-16 0)
(-1 1.55002e-16 0)
(-1 1.62073e-16 0)
(-1 1.60724e-16 0)
(-1 4.56368e-17 0)
(-1 4.69062e-17 0)
(-1 -3.86377e-17 0)
(-1 -3.24299e-17 0)
(-1 -7.76402e-17 0)
(-1 -6.49554e-17 0)
(-1 -1.35915e-13 0)
(-1 2.92667e-14 0)
(-1 -6.9352e-15 0)
(-1 1.40178e-15 0)
(-1 -4.39911e-16 0)
(-1 4.66639e-17 0)
(-1 9.76077e-17 0)
(-1 2.4915e-16 0)
(-1 3.03847e-16 0)
(-1 1.65439e-16 0)
(-1 7.71591e-17 0)
(-1 3.88855e-17 0)
(-1 5.7612e-17 0)
(-1 9.29883e-17 0)
(-1 -6.30188e-17 0)
(-1 -8.79735e-17 0)
(-1 -9.00548e-17 0)
(-1 -5.70412e-17 0)
(-1 -1.29218e-16 0)
(-1 -1.20926e-16 0)
(-1 9.21697e-14 0)
(-1 -1.99213e-14 0)
(-1 4.51721e-15 0)
(-1 -1.02334e-15 0)
(-1 1.43617e-16 0)
(-1 -1.4233e-16 0)
(-1 -3.00768e-17 0)
(-1 3.26354e-17 0)
(-1 1.45232e-16 0)
(-1 1.58578e-16 0)
(-1 4.27437e-17 0)
(-1 -7.9187e-17 0)
(-1 -9.82166e-17 0)
(-1 -1.25484e-17 0)
(-1 8.83486e-18 0)
(-1 2.31435e-17 0)
(-1 8.13576e-17 0)
(-1 -7.5732e-19 0)
(-1 -9.21263e-17 0)
(-1 -3.62282e-17 0)
(-1 -9.42452e-15 0)
(-1 1.36919e-15 0)
(-1 -5.17812e-16 0)
(-1 5.97821e-18 0)
(-1 -1.31536e-17 0)
(-1 5.54261e-17 0)
(-1 1.64569e-16 0)
(-1 2.61842e-16 0)
(-1 2.15334e-16 0)
(-1 1.53184e-16 0)
(-1 9.77529e-17 0)
(-1 3.5438e-17 0)
(-1 1.73319e-18 0)
(-1 2.17039e-17 0)
(-1 8.46946e-17 0)
(-1 6.12994e-17 0)
(-1 1.0868e-16 0)
(-1 1.09959e-16 0)
(-1 1.07362e-17 0)
(-1 -3.42465e-17 0)
(-1 -4.93066e-14 0)
(-1 1.00454e-14 0)
(-1 -2.39151e-15 0)
(-1 3.35601e-16 0)
(-1 -1.86679e-16 0)
(-1 5.44877e-17 0)
(-1 1.04652e-16 0)
(-1 1.27697e-16 0)
(-1 1.12307e-16 0)
(-1 3.99107e-17 0)
(-1 -2.75674e-17 0)
(-1 -5.38626e-17 0)
(-1 -7.01957e-17 0)
(-1 -7.34173e-17 0)
(-1 4.45234e-17 0)
(-1 5.9702e-17 0)
(-1 -1.96222e-17 0)
(-1 9.87078e-17 0)
(-1 1.106e-16 0)
(-1 -4.30574e-18 0)
(-1 4.56517e-14 0)
(-1 -9.19342e-15 0)
(-1 2.05889e-15 0)
(-1 -5.28468e-16 0)
(-1 1.12614e-17 0)
(-1 6.76619e-19 0)
(-1 -4.99016e-17 0)
(-1 9.1647e-18 0)
(-1 1.02194e-16 0)
(-1 2.36722e-17 0)
(-1 -5.68519e-17 0)
(-1 1.68939e-17 0)
(-1 4.65464e-17 0)
(-1 -9.80384e-18 0)
(-1 -7.12716e-17 0)
(-1 -1.62582e-17 0)
(-1 3.48033e-18 0)
(-1 1.0676e-16 0)
(-1 1.43003e-16 0)
(-1 9.13429e-17 0)
(-1 -7.06152e-15 0)
(-1 1.62526e-15 0)
(-1 -5.55029e-16 0)
(-1 1.69235e-16 0)
(-1 1.24571e-16 0)
(-1 1.46586e-16 0)
(-1 1.63026e-16 0)
(-1 2.11117e-16 0)
(-1 1.47407e-16 0)
(-1 -4.25711e-17 0)
(-1 -6.88378e-17 0)
(-1 3.05178e-17 0)
(-1 9.4924e-17 0)
(-1 8.69199e-17 0)
(-1 1.52411e-17 0)
(-1 -1.54374e-16 0)
(-1 -1.60709e-16 0)
(-1 -5.4211e-17 0)
(-1 7.16198e-17 0)
(-1 7.80343e-17 0)
(-1 -1.08599e-14 0)
(-1 1.51218e-15 0)
(-1 -6.12234e-16 0)
(-1 -1.18824e-16 0)
(-1 -7.14959e-17 0)
(-1 -1.17669e-16 0)
(-1 -1.04513e-16 0)
(-1 -1.22292e-16 0)
(-1 -1.63172e-16 0)
(-1 -1.63188e-16 0)
(-1 -6.23662e-17 0)
(-1 6.79539e-17 0)
(-1 8.35723e-17 0)
(-1 -1.82703e-17 0)
(-1 -7.15778e-17 0)
(-1 -1.31042e-16 0)
(-1 -1.39202e-16 0)
(-1 -8.34666e-17 0)
(-1 9.8202e-17 0)
(-1 8.07548e-17 0)
(-1 1.18597e-14 0)
(-1 -2.27984e-15 0)
(-1 4.58059e-16 0)
(-1 -2.05732e-16 0)
(-1 -1.82211e-16 0)
(-1 -2.75661e-16 0)
(-1 -2.55706e-16 0)
(-1 -9.79668e-17 0)
(-1 1.11372e-17 0)
(-1 9.3545e-17 0)
(-1 1.47408e-16 0)
(-1 1.33669e-16 0)
(-1 -2.10692e-18 0)
(-1 1.48769e-17 0)
(-1 5.20003e-17 0)
(-1 2.90745e-17 0)
(-1 -1.81254e-17 0)
(-1 -2.91498e-17 0)
(-1 2.8109e-17 0)
(-1 7.77717e-17 0)
(-1 -2.13376e-14 0)
(-1 4.01269e-15 0)
(-1 -9.74226e-16 0)
(-1 2.72942e-17 0)
(-1 -2.12692e-16 0)
(-1 -1.37915e-16 0)
(-1 -1.90019e-16 0)
(-1 -1.69639e-16 0)
(-1 -5.93891e-17 0)
(-1 8.97251e-17 0)
(-1 8.53374e-17 0)
(-1 -8.1956e-17 0)
(-1 -1.47639e-16 0)
(-1 -4.41009e-17 0)
(-1 1.00213e-16 0)
(-1 6.55658e-18 0)
(-1 -8.91887e-17 0)
(-1 -6.22246e-17 0)
(-1 -5.5767e-17 0)
(-1 -1.66083e-17 0)
(-1 2.34941e-14 0)
(-1 -4.24048e-15 0)
(-1 1.08204e-15 0)
(-1 -3.00713e-16 0)
(-1 -1.21053e-16 0)
(-1 -5.97668e-17 0)
(-1 -2.94511e-17 0)
(-1 -1.82184e-16 0)
(-1 -1.5827e-16 0)
(-1 -3.60677e-17 0)
(-1 3.43245e-17 0)
(-1 -1.13764e-16 0)
(-1 -5.827e-17 0)
(-1 -2.30961e-17 0)
(-1 -6.78585e-17 0)
(-1 -7.24174e-17 0)
(-1 4.84023e-17 0)
(-1 1.10444e-16 0)
(-1 7.20454e-19 0)
(-1 -1.64421e-17 0)
(-1 3.02912e-15 0)
(-1 -6.29532e-16 0)
(-1 7.06877e-17 0)
(-1 9.31019e-18 0)
(-1 3.75059e-17 0)
(-1 2.288e-17 0)
(-1 9.12416e-17 0)
(-1 -3.1593e-17 0)
(-1 -8.21161e-17 0)
(-1 -7.77604e-17 0)
(-1 -9.56023e-17 0)
(-1 -1.0952e-16 0)
(-1 -2.96303e-17 0)
(-1 1.03712e-17 0)
(-1 -4.31335e-17 0)
(-1 4.76133e-17 0)
(-1 9.29654e-17 0)
(-1 -3.29447e-17 0)
(-1 -1.15499e-16 0)
(-1 -2.05556e-17 0)
(-1 -3.55015e-14 0)
(-1 6.96044e-15 0)
(-1 -1.81948e-15 0)
(-1 2.72774e-16 0)
(-1 -1.21965e-16 0)
(-1 -3.40714e-17 0)
(-1 -1.20503e-16 0)
(-1 -1.44989e-16 0)
(-1 -1.65372e-16 0)
(-1 -1.91463e-16 0)
(-1 -2.78568e-16 0)
(-1 -1.54638e-16 0)
(-1 -3.54802e-17 0)
(-1 -3.22875e-17 0)
(-1 1.81686e-17 0)
(-1 1.69116e-16 0)
(-1 9.95186e-17 0)
(-1 -1.16318e-16 0)
(-1 -1.24873e-16 0)
(-1 -2.272e-17 0)
(-1 6.22463e-14 0)
(-1 -1.28052e-14 0)
(-1 3.09983e-15 0)
(-1 -5.70796e-16 0)
(-1 1.17157e-16 0)
(-1 3.11939e-17 0)
(-1 5.88921e-17 0)
(-1 5.28283e-17 0)
(-1 -9.45754e-17 0)
(-1 -1.93241e-16 0)
(-1 -1.33096e-16 0)
(-1 -2.26188e-17 0)
(-1 -5.71904e-17 0)
(-1 -3.20113e-17 0)
(-1 -1.38129e-17 0)
(-1 -1.96658e-17 0)
(-1 -3.85263e-17 0)
(-1 1.4765e-17 0)
(-1 2.70556e-17 0)
(-1 6.62684e-17 0)
(-1 -4.75074e-14 0)
(-1 9.88377e-15 0)
(-1 -2.28374e-15 0)
(-1 4.42236e-16 0)
(-1 -1.43519e-16 0)
(-1 -1.06334e-16 0)
(-1 -9.5058e-17 0)
(-1 -1.9139e-17 0)
(-1 -5.1013e-17 0)
(-1 4.46289e-17 0)
(-1 2.07773e-16 0)
(-1 1.97403e-16 0)
(-1 5.04952e-17 0)
(-1 9.69659e-18 0)
(-1 -9.53251e-17 0)
(-1 -2.27713e-16 0)
(-1 -2.72224e-16 0)
(-1 -1.00648e-16 0)
(-1 4.20319e-17 0)
(-1 3.96286e-17 0)
(-1 -7.09934e-15 0)
(-1 1.069e-15 0)
(-1 -1.95452e-16 0)
(-1 9.8489e-17 0)
(-1 8.70534e-17 0)
(-1 -3.02552e-17 0)
(-1 -1.34575e-16 0)
(-1 -1.31197e-16 0)
(-1 -3.40195e-17 0)
(-1 5.31871e-17 0)
(-1 5.36947e-17 0)
(-1 6.88718e-17 0)
(-1 5.15697e-17 0)
(-1 -8.60646e-17 0)
(-1 -1.69839e-16 0)
(-1 -1.74384e-16 0)
(-1 -1.65044e-16 0)
(-1 -1.53877e-16 0)
(-1 -2.91087e-17 0)
(-1 -4.70143e-18 0)
(-1 5.14584e-14 0)
(-1 -1.06015e-14 0)
(-1 2.65479e-15 0)
(-1 -1.69465e-16 0)
(-1 4.74525e-16 0)
(-1 2.26401e-16 0)
(-1 -5.74336e-20 0)
(-1 -1.71584e-16 0)
(-1 -1.72903e-16 0)
(-1 -2.21029e-16 0)
(-1 -2.15836e-16 0)
(-1 -7.90292e-17 0)
(-1 2.96932e-17 0)
(-1 -5.1661e-17 0)
(-1 -7.99219e-17 0)
(-1 -3.44142e-18 0)
(-1 1.02467e-16 0)
(-1 3.30325e-17 0)
(-1 -2.74455e-17 0)
(-1 1.73636e-17 0)
(-1 -1.44437e-14 0)
(-1 2.57312e-15 0)
(-1 -5.89985e-16 0)
(-1 2.32429e-16 0)
(-1 9.43984e-17 0)
(-1 3.58024e-17 0)
(-1 -4.49469e-17 0)
(-1 -7.82057e-17 0)
(-1 -1.27884e-16 0)
(-1 -1.4659e-16 0)
(-1 -1.28061e-16 0)
(-1 -9.57533e-17 0)
(-1 -7.89488e-17 0)
(-1 2.39142e-18 0)
(-1 7.72928e-17 0)
(-1 2.96083e-17 0)
(-1 -4.36958e-17 0)
(-1 -5.13304e-17 0)
(-1 -7.43535e-17 0)
(-1 -4.86336e-17 0)
(-1 -6.65158e-14 0)
(-1 1.41885e-14 0)
(-1 -3.32221e-15 0)
(-1 6.69925e-16 0)
(-1 -2.37661e-16 0)
(-1 -3.33448e-17 0)
(-1 5.95804e-18 0)
(-1 5.65871e-17 0)
(-1 -2.85263e-18 0)
(-1 -2.59034e-17 0)
(-1 -6.85567e-17 0)
(-1 -7.30138e-17 0)
(-1 -9.62058e-17 0)
(-1 -5.34738e-17 0)
(-1 1.31252e-17 0)
(-1 -6.01032e-17 0)
(-1 -1.61126e-16 0)
(-1 -1.11763e-16 0)
(-1 -5.81845e-17 0)
(-1 -5.32342e-17 0)
)
;

boundaryField
{
    movingWall
    {
        type            zeroGradient;
    }
    fixedWalls
    {
        type            zeroGradient;
    }
    frontAndBack
    {
        type            empty;
    }
}


// ************************************************************************* //
