/*--------------------------------*- C++ -*----------------------------------*\
| =========                 |                                                 |
| \\      /  F ield         | OpenFOAM: The Open Source CFD Toolbox           |
|  \\    /   O peration     | Version:  2312                                  |
|   \\  /    A nd           | Website:  www.openfoam.com                      |
|    \\/     M anipulation  |                                                 |
\*---------------------------------------------------------------------------*/
FoamFile
{
    version     2.0;
    format      ascii;
    arch        "LSB;label=32;scalar=64";
    class       volScalarField;
    location    "3.875";
    object      enstrophyField;
}
// * * * * * * * * * * * * * * * * * * * * * * * * * * * * * * * * * * * * * //

dimensions      [0 0 -2 0 0 0 0];

internalField   nonuniform List<scalar> 
400
(
2.45849e-11
3.6912e-11
2.07582e-12
1.17378e-13
6.58636e-15
3.76075e-16
2.0619e-17
1.26633e-18
5.60642e-20
6.10606e-21
9.47106e-24
1.42224e-22
2.71276e-23
2.04875e-23
8.72939e-24
4.26233e-24
1.57792e-24
2.99485e-25
2.56783e-27
8.79523e-29
2.50841e-11
3.70515e-11
2.0864e-12
1.17461e-13
6.61246e-15
3.72168e-16
2.09519e-17
1.17788e-18
6.6488e-20
3.70175e-21
2.16387e-22
1.02322e-23
9.7431e-25
1.23642e-27
5.48358e-26
5.35622e-27
9.81025e-28
7.21584e-26
3.11781e-25
4.26681e-26
2.51684e-11
3.6981e-11
2.07696e-12
1.16618e-13
6.54704e-15
3.67531e-16
2.06249e-17
1.15831e-18
6.47869e-20
3.67929e-21
1.97668e-22
1.31955e-23
2.51678e-25
3.14136e-25
9.18504e-26
4.75077e-26
5.64269e-27
1.43195e-25
8.36343e-25
9.06177e-26
2.53572e-11
3.70276e-11
2.07785e-12
1.16568e-13
6.53882e-15
3.66722e-16
2.05697e-17
1.15231e-18
6.48725e-20
3.56727e-21
2.15252e-22
9.11341e-24
1.45857e-24
5.91428e-26
2.19159e-25
5.70172e-26
7.81063e-27
2.87302e-25
1.57436e-24
1.41315e-25
2.53729e-11
3.70632e-11
2.07897e-12
1.16579e-13
6.5363e-15
3.66455e-16
2.05362e-17
1.15228e-18
6.42679e-20
3.67256e-21
1.88047e-22
1.45008e-23
1.16203e-25
5.94218e-25
1.86065e-25
6.27177e-26
1.42226e-27
4.13427e-25
2.16975e-24
2.41429e-25
2.5368e-11
3.71482e-11
2.08345e-12
1.16814e-13
6.54889e-15
3.67075e-16
2.05799e-17
1.15197e-18
6.48991e-20
3.5524e-21
2.18454e-22
8.42469e-24
1.79103e-24
2.22331e-25
4.55516e-25
1.16281e-25
3.81572e-27
4.81765e-25
2.77842e-24
2.34318e-25
2.53009e-11
3.72703e-11
2.09053e-12
1.17225e-13
6.57251e-15
3.68508e-16
2.06508e-17
1.15914e-18
6.46082e-20
3.71024e-21
1.88596e-22
1.53852e-23
3.18724e-26
6.32119e-25
2.39609e-25
1.03918e-25
4.19186e-27
6.06324e-25
3.61578e-24
1.90306e-25
2.52441e-11
3.74531e-11
2.10132e-12
1.17862e-13
6.61052e-15
3.70701e-16
2.07954e-17
1.16436e-18
6.56941e-20
3.59072e-21
2.24182e-22
7.82308e-24
2.27494e-24
2.75703e-25
4.6983e-25
1.41741e-25
1.01439e-27
7.25341e-25
3.98065e-24
2.3413e-25
2.51759e-11
3.76868e-11
2.11528e-12
1.18696e-13
6.65999e-15
3.73721e-16
2.09599e-17
1.17773e-18
6.56527e-20
3.78829e-21
1.88093e-22
1.65254e-23
3.01077e-26
9.02688e-25
3.61908e-25
1.24843e-25
8.72658e-28
6.6588e-25
4.12064e-24
1.79057e-25
2.51336e-11
3.79782e-11
2.13269e-12
1.19734e-13
6.72227e-15
3.77367e-16
2.11945e-17
1.188e-18
6.71374e-20
3.668e-21
2.29433e-22
8.08796e-24
2.3194e-24
3.28426e-25
5.29767e-25
7.56971e-26
9.35455e-28
7.1544e-25
4.40598e-24
1.18959e-25
2.51045e-11
3.83144e-11
2.15277e-12
1.20934e-13
6.79358e-15
3.81693e-16
2.14354e-17
1.20631e-18
6.73024e-20
3.88856e-21
1.94219e-22
1.6456e-23
1.65354e-26
9.96897e-25
3.21815e-25
9.61861e-26
4.315e-29
8.03009e-25
4.20386e-24
6.79088e-26
2.51032e-11
3.86923e-11
2.17535e-12
1.22279e-13
6.87402e-15
3.86411e-16
2.17332e-17
1.22006e-18
6.90557e-20
3.77086e-21
2.36713e-22
8.27139e-24
2.2243e-24
2.47717e-25
4.63852e-25
8.2924e-26
3.91455e-27
5.17969e-25
3.87383e-24
4.89153e-26
2.51259e-11
3.9094e-11
2.19927e-12
1.23705e-13
6.95849e-15
3.9151e-16
2.20182e-17
1.24103e-18
6.9379e-20
4.00372e-21
2.03069e-22
1.63376e-23
8.13932e-26
7.22665e-25
2.84823e-25
1.06951e-25
1.58656e-28
5.60245e-25
3.43134e-24
2.75468e-26
2.5169e-11
3.95104e-11
2.22409e-12
1.25178e-13
7.04628e-15
3.96641e-16
2.23396e-17
1.25611e-18
7.11862e-20
3.90822e-21
2.42916e-22
9.12945e-24
2.05214e-24
2.19072e-25
3.78835e-25
6.3512e-26
2.62432e-27
5.23408e-25
3.13116e-24
8.41894e-27
2.52385e-11
3.99199e-11
2.24836e-12
1.26617e-13
7.13121e-15
4.0173e-16
2.26255e-17
1.27634e-18
7.15808e-20
4.12826e-21
2.10522e-22
1.67109e-23
9.08329e-26
6.81259e-25
1.96031e-25
1.84494e-26
2.20144e-27
4.42935e-25
2.39089e-24
4.78994e-27
2.53118e-11
4.03086e-11
2.27142e-12
1.27979e-13
7.21191e-15
4.06427e-16
2.29156e-17
1.29037e-18
7.3071e-20
4.04921e-21
2.44399e-22
1.0528e-23
1.62512e-24
5.31551e-26
1.94324e-25
8.08212e-27
1.94847e-26
2.67787e-25
1.89287e-24
1.43146e-27
2.54095e-11
4.06577e-11
2.29194e-12
1.29187e-13
7.28265e-15
4.10633e-16
2.31497e-17
1.30676e-18
7.34381e-20
4.20049e-21
2.24194e-22
1.58842e-23
3.1977e-25
3.47561e-25
8.9283e-26
3.32591e-26
1.3326e-27
1.72647e-25
1.3646e-24
3.05549e-30
2.5525e-11
4.09609e-11
2.30982e-12
1.30237e-13
7.3443e-15
4.14198e-16
2.33678e-17
1.3174e-18
7.45205e-20
4.15463e-21
2.46713e-22
1.15344e-23
1.31588e-24
7.53767e-27
3.46312e-26
1.48615e-27
2.57538e-28
1.43856e-25
7.18606e-25
2.40399e-27
2.55638e-11
4.12321e-11
2.32913e-12
1.31554e-13
7.43131e-15
4.1987e-16
2.37209e-17
1.34126e-18
7.56813e-20
4.29683e-21
2.41137e-22
1.35216e-23
7.30699e-25
5.58883e-26
1.51842e-27
1.08285e-26
4.62622e-26
9.7121e-27
4.31382e-25
3.06287e-27
2.6339e-11
4.15705e-11
2.36861e-12
1.33876e-13
7.63483e-15
4.34113e-16
2.48552e-17
1.40148e-18
8.49696e-20
4.00296e-21
4.26378e-22
4.00948e-25
1.2828e-23
3.02251e-24
2.24388e-24
9.69636e-25
3.80487e-25
4.36635e-26
2.48967e-26
9.74779e-27
)
;

boundaryField
{
    movingWall
    {
        type            calculated;
        value           nonuniform List<scalar> 
20
(
3.03744e-11
4.27331e-11
2.49187e-12
1.41008e-13
8.21973e-15
4.74736e-16
2.77318e-17
1.58661e-18
1.03418e-19
4.19973e-21
7.36977e-22
5.6816e-24
4.22037e-23
1.45686e-23
9.04183e-24
4.50877e-24
2.24085e-24
2.08778e-25
3.87274e-25
8.86565e-26
)
;
    }
    fixedWalls
    {
        type            calculated;
        value           nonuniform List<scalar> 
60
(
6.62208e-10
6.64586e-10
6.64471e-10
6.6547e-10
6.66219e-10
6.67802e-10
6.70012e-10
6.73275e-10
6.77421e-10
6.82577e-10
6.88513e-10
6.95177e-10
7.02261e-10
7.09593e-10
7.16811e-10
7.23655e-10
7.29815e-10
7.35141e-10
7.38886e-10
7.45929e-10
2.63385e-26
6.37821e-26
1.98966e-25
4.03957e-25
5.69975e-25
9.49919e-25
1.47096e-24
1.73186e-24
2.21367e-24
2.6266e-24
2.97588e-24
3.11967e-24
3.17068e-24
3.13364e-24
2.66086e-24
2.142e-24
1.56827e-24
1.09215e-24
4.46928e-25
1.52936e-25
2.3548e-11
3.67802e-11
2.06296e-12
1.17702e-13
6.57692e-15
3.81916e-16
2.03564e-17
1.37018e-18
4.6206e-20
9.24895e-21
7.83032e-23
4.30825e-22
1.30356e-22
8.06097e-23
3.66377e-23
1.70489e-23
6.81942e-24
9.1065e-25
1.66879e-26
3.44928e-27
)
;
    }
    frontAndBack
    {
        type            empty;
    }
}


// ************************************************************************* //
