/*--------------------------------*- C++ -*----------------------------------*\
| =========                 |                                                 |
| \\      /  F ield         | OpenFOAM: The Open Source CFD Toolbox           |
|  \\    /   O peration     | Version:  2312                                  |
|   \\  /    A nd           | Website:  www.openfoam.com                      |
|    \\/     M anipulation  |                                                 |
\*---------------------------------------------------------------------------*/
FoamFile
{
    version     2.0;
    format      ascii;
    arch        "LSB;label=32;scalar=64";
    class       volScalarField;
    location    "3.875";
    object      flowTypeField;
}
// * * * * * * * * * * * * * * * * * * * * * * * * * * * * * * * * * * * * * //

dimensions      [0 0 0 0 0 0 0];

internalField   nonuniform List<scalar> 
400
(
-0.0119459
-0.00285581
-0.00497767
-0.00685398
-0.00771414
-0.0155877
-0.0054308
-0.0481617
0.0600503
-0.271145
0.782909
-0.272693
0.176562
0.0278781
0.0918386
0.10067
0.210599
0.442846
0.858388
0.916793
-0.0220555
-0.00466491
-0.00813531
-0.00973915
-0.0124271
-0.0189002
-0.0170146
-0.0359238
-0.0121862
-0.0923537
0.108438
0.179382
0.634148
0.975804
0.808366
0.915316
0.956777
0.661988
0.181152
0.0368816
-0.0236663
-0.00403
-0.00735982
-0.00630338
-0.0103086
-0.00964013
-0.0161001
-0.0064936
-0.043114
0.0452169
-0.224834
0.360684
0.727002
0.680307
0.742462
0.755002
0.889678
0.547108
0.0572786
0.0811779
-0.0268565
-0.00425229
-0.00815039
-0.00650651
-0.0104418
-0.0119031
-0.0100164
-0.0235175
0.00527869
-0.0864702
0.137973
-0.260398
0.536626
0.815018
0.614226
0.711531
0.855702
0.392066
0.00716295
0.035628
-0.0260417
-0.00375387
-0.00768012
-0.00518956
-0.00939727
-0.00845422
-0.0100483
-0.00700094
-0.0231732
0.0378702
-0.17761
0.298257
0.733063
0.531343
0.603939
0.667686
0.921987
0.276305
0.0236371
-0.0411844
-0.0239432
-0.00299186
-0.00683982
-0.00346707
-0.00772842
-0.00570221
-0.0046693
-0.00840607
0.00789216
-0.0285472
0.102321
-0.274
0.426647
0.599501
0.415299
0.521031
0.845084
0.205952
0.0247071
0.0250977
-0.0198257
-0.00187909
-0.00531554
-0.00120247
-0.00497339
-0.001614
0.000363075
0.00124503
0.00617614
0.0307479
-0.0317209
0.208144
0.798739
0.450624
0.505268
0.511746
0.78254
0.149776
-0.0198713
0.11274
-0.0150973
-0.00071891
-0.003702
0.00112847
-0.00249124
0.00254145
0.0047329
0.00693584
0.0186399
0.018675
0.068817
0.0497163
0.267451
0.491639
0.337997
0.360208
0.851495
0.0478949
-0.00891059
-0.0570743
-0.00946467
0.000532671
-0.00180862
0.00350479
0.000524631
0.00644786
0.0103227
0.0125192
0.0274069
0.0351491
0.0530261
0.11513
0.790432
0.276594
0.349644
0.365948
0.798053
0.0862424
0.00125154
-0.022592
-0.00380938
0.00164363
-3.05384e-05
0.00550398
0.002901
0.00988223
0.0132348
0.0180793
0.030313
0.0425626
0.0603323
0.138755
0.166932
0.392767
0.23164
0.451985
0.797989
0.0552052
-0.0340958
0.0160185
0.00197752
0.00267674
0.00176593
0.00721759
0.00538171
0.0126036
0.0169531
0.0211258
0.0374104
0.0433944
0.0771792
0.088346
0.83101
0.166016
0.321912
0.380841
0.959878
-0.0234134
-0.0266134
0.0834394
0.00741061
0.00347942
0.00334748
0.00834475
0.00722206
0.014383
0.0183518
0.0236979
0.0367338
0.0493463
0.0600566
0.164502
0.122316
0.417042
0.204296
0.368329
0.727464
0.156288
-0.0149485
0.00919482
0.0124269
0.0041227
0.00477337
0.00911701
0.00883323
0.0156235
0.0195921
0.0250471
0.0380222
0.0469287
0.0722199
0.0856575
0.655318
0.217183
0.31362
0.328456
0.94158
0.0768396
-0.00526717
-0.130082
0.0169052
0.00454834
0.00597353
0.0093661
0.0100057
0.0158613
0.0197495
0.024647
0.0364124
0.0440311
0.0586437
0.146164
0.11962
0.414998
0.267993
0.427282
0.792136
0.105873
-0.03747
0.184504
0.0205835
0.00480379
0.00691158
0.00934188
0.0107509
0.0158889
0.0190481
0.0248949
0.0328301
0.0427569
0.0614262
0.0672285
0.658048
0.212542
0.373259
0.663607
0.854179
0.0879001
-0.00513235
0.371978
0.0237417
0.00493186
0.00768498
0.0090514
0.0113359
0.0152701
0.018527
0.0229635
0.0318705
0.0355194
0.0563635
0.112204
0.190352
0.672923
0.386577
0.763866
0.652279
0.265049
-0.0326985
0.665778
0.0258323
0.00491044
0.00814538
0.00859852
0.0114074
0.0145473
0.0169337
0.0221426
0.0263623
0.0358793
0.0424623
0.0653581
0.467794
0.37489
0.537241
0.528496
0.89887
0.376709
-0.0495768
0.984892
0.0268717
0.00471941
0.00835139
0.00813964
0.0114279
0.0140137
0.0166458
0.0208907
0.0269402
0.0316868
0.041203
0.103886
0.215742
0.860411
0.678423
0.894578
0.95233
0.368042
-0.0027062
0.725728
0.0285737
0.00409194
0.00731791
0.00539821
0.00746468
0.00835224
0.00787433
0.010484
0.0102285
0.0152516
0.0070727
0.0982812
0.292698
0.696674
0.92524
0.782198
0.582157
0.809826
-0.0862364
0.746253
0.015184
0.00184468
0.00319248
0.00164062
0.00190137
0.00234077
-0.00135388
0.00703096
-0.0221343
0.0732804
-0.249193
0.842428
-0.275191
0.160421
0.0206484
0.120939
0.301437
0.699225
0.653623
0.696895
)
;

boundaryField
{
    movingWall
    {
        type            calculated;
        value           nonuniform List<scalar> 
20
(
0.752621
0.264748
0.256242
0.256861
0.249721
0.244863
0.237369
0.238112
0.194113
0.310486
-0.0882765
0.676949
-0.180554
0.0659967
-0.0214908
0.0293742
0.103281
0.482365
0.317522
0.373466
)
;
    }
    fixedWalls
    {
        type            calculated;
        value           nonuniform List<scalar> 
60
(
-0.00227878
-0.00416174
-0.00437835
-0.00478939
-0.0043503
-0.00359529
-0.00242176
-0.00116823
0.000212236
0.00146431
0.0026503
0.00360382
0.00439553
0.00495833
0.00533692
0.00557176
0.00563228
0.00553108
0.00563755
0.00293733
0.165712
0.128537
0.0289221
0.0138092
0.0534146
0.00473285
-0.0276618
0.0300659
0.013874
0.000657328
-0.0109993
8.82788e-05
0.0106462
0.000379608
0.0132377
0.016845
0.0261252
-0.00227694
0.117113
0.202965
0.766126
0.268188
0.268609
0.263757
0.265172
0.253949
0.2713
0.208843
0.372272
-0.0839791
0.667586
-0.205492
0.078594
-0.0181353
0.0184986
0.0183922
0.0607651
0.233654
0.719632
0.649423
)
;
    }
    frontAndBack
    {
        type            empty;
    }
}


// ************************************************************************* //
