/*--------------------------------*- C++ -*----------------------------------*\
| =========                 |                                                 |
| \\      /  F ield         | OpenFOAM: The Open Source CFD Toolbox           |
|  \\    /   O peration     | Version:  2312                                  |
|   \\  /    A nd           | Website:  www.openfoam.com                      |
|    \\/     M anipulation  |                                                 |
\*---------------------------------------------------------------------------*/
FoamFile
{
    version     2.0;
    format      ascii;
    arch        "LSB;label=32;scalar=64";
    class       surfaceScalarField;
    location    "3.875";
    object      fluxField;
}
// * * * * * * * * * * * * * * * * * * * * * * * * * * * * * * * * * * * * * //

dimensions      [0 3 -1 0 0 0 0];

oriented        oriented;

internalField   nonuniform List<scalar> 
760
(
-5e-05
3.25378e-16
-5e-05
-4.10023e-16
-5e-05
3.91655e-16
-5e-05
-8.37565e-17
-5e-05
7.15305e-17
-5e-05
-3.4696e-18
-5e-05
1.27133e-17
-5e-05
2.67746e-18
-5e-05
3.35789e-18
-5e-05
1.732e-18
-5e-05
1.38197e-18
-5e-05
9.464e-19
-5e-05
7.22417e-19
-5e-05
5.38123e-19
-5e-05
4.08493e-19
-5e-05
3.11982e-19
-5e-05
2.69332e-19
-5e-05
2.36262e-19
-5e-05
1.23178e-19
-3.32791e-20
-5e-05
-9.48277e-16
-5e-05
9.16165e-16
-5e-05
-3.12268e-17
-5e-05
1.09272e-16
-5e-05
2.75487e-17
-5e-05
1.94585e-17
-5e-05
1.22232e-17
-5e-05
7.14599e-18
-5e-05
5.12417e-18
-5e-05
3.39046e-18
-5e-05
2.48579e-18
-5e-05
1.80517e-18
-5e-05
1.37019e-18
-5e-05
1.03047e-18
-5e-05
7.77889e-19
-5e-05
5.96579e-19
-5e-05
5.12322e-19
-5e-05
4.64079e-19
-5e-05
2.36127e-19
-6.34428e-20
-5e-05
-2.04325e-16
-5e-05
-4.10016e-16
-5e-05
1.73063e-16
-5e-05
-2.35428e-17
-5e-05
4.55791e-17
-5e-05
1.30181e-17
-5e-05
1.44965e-17
-5e-05
8.22221e-18
-5e-05
6.29837e-18
-5e-05
4.37483e-18
-5e-05
3.26563e-18
-5e-05
2.44406e-18
-5e-05
1.88313e-18
-5e-05
1.43549e-18
-5e-05
1.09077e-18
-5e-05
8.44344e-19
-5e-05
7.25998e-19
-5e-05
6.64567e-19
-5e-05
3.3494e-19
-9.56036e-20
-5e-05
1.45481e-15
-5e-05
-2.21721e-16
-5e-05
7.56231e-17
-5e-05
1.17982e-17
-5e-05
2.09935e-17
-5e-05
1.38538e-17
-5e-05
1.1534e-17
-5e-05
8.35852e-18
-5e-05
6.40808e-18
-5e-05
4.80049e-18
-5e-05
3.67958e-18
-5e-05
2.8421e-18
-5e-05
2.23505e-18
-5e-05
1.72926e-18
-5e-05
1.32766e-18
-5e-05
1.03854e-18
-5e-05
9.03969e-19
-5e-05
8.38107e-19
-5e-05
4.19371e-19
-1.26296e-19
-5e-05
-3.38128e-15
-5e-05
8.65527e-16
-5e-05
-1.92612e-16
-5e-05
6.45983e-17
-5e-05
-1.43634e-18
-5e-05
1.41819e-17
-5e-05
8.20832e-18
-5e-05
7.71946e-18
-5e-05
5.92782e-18
-5e-05
4.79349e-18
-5e-05
3.78548e-18
-5e-05
3.02705e-18
-5e-05
2.43536e-18
-5e-05
1.91547e-18
-5e-05
1.48789e-18
-5e-05
1.17198e-18
-5e-05
1.03484e-18
-5e-05
9.74174e-19
-5e-05
4.87575e-19
-1.56265e-19
-5e-05
5.30227e-15
-5e-05
-1.55266e-15
-5e-05
3.72595e-16
-5e-05
-1.01916e-16
-5e-05
3.54939e-17
-5e-05
1.15928e-19
-5e-05
9.3047e-18
-5e-05
5.7427e-18
-5e-05
5.53712e-18
-5e-05
4.44287e-18
-5e-05
3.71203e-18
-5e-05
3.03586e-18
-5e-05
2.50442e-18
-5e-05
2.00241e-18
-5e-05
1.58228e-18
-5e-05
1.25869e-18
-5e-05
1.12413e-18
-5e-05
1.07165e-18
-5e-05
5.28888e-19
-1.89959e-19
-5e-05
-7.37757e-15
-5e-05
2.12094e-15
-5e-05
-5.10581e-16
-5e-05
1.47062e-16
-5e-05
-3.27111e-17
-5e-05
1.54123e-17
-5e-05
2.91639e-18
-5e-05
5.98828e-18
-5e-05
4.52469e-18
-5e-05
4.15879e-18
-5e-05
3.48379e-18
-5e-05
2.95478e-18
-5e-05
2.47602e-18
-5e-05
2.0103e-18
-5e-05
1.60949e-18
-5e-05
1.29674e-18
-5e-05
1.17267e-18
-5e-05
1.13384e-18
-5e-05
5.48827e-19
-2.23519e-19
-5e-05
9.29822e-15
-5e-05
-2.70699e-15
-5e-05
6.54657e-16
-5e-05
-1.82523e-16
-5e-05
5.17346e-17
-5e-05
-8.37893e-18
-5e-05
8.03676e-18
-5e-05
3.53405e-18
-5e-05
4.38921e-18
-5e-05
3.6478e-18
-5e-05
3.26529e-18
-5e-05
2.79646e-18
-5e-05
2.3968e-18
-5e-05
1.9654e-18
-5e-05
1.58386e-18
-5e-05
1.28675e-18
-5e-05
1.18353e-18
-5e-05
1.1634e-18
-5e-05
5.5326e-19
-2.52909e-19
-5e-05
-1.10922e-14
-5e-05
3.16758e-15
-5e-05
-7.66916e-16
-5e-05
2.13436e-16
-5e-05
-5.24587e-17
-5e-05
1.778e-17
-5e-05
-2.24038e-20
-5e-05
4.87618e-18
-5e-05
3.40814e-18
-5e-05
3.43743e-18
-5e-05
2.97178e-18
-5e-05
2.62609e-18
-5e-05
2.27574e-18
-5e-05
1.88471e-18
-5e-05
1.52715e-18
-5e-05
1.25206e-18
-5e-05
1.16943e-18
-5e-05
1.15626e-18
-5e-05
5.41223e-19
-2.76451e-19
-5e-05
1.25153e-14
-5e-05
-3.56028e-15
-5e-05
8.58541e-16
-5e-05
-2.35132e-16
-5e-05
6.39649e-17
-5e-05
-1.24735e-17
-5e-05
7.79191e-18
-5e-05
2.40054e-18
-5e-05
3.62727e-18
-5e-05
2.99413e-18
-5e-05
2.77605e-18
-5e-05
2.43053e-18
-5e-05
2.13724e-18
-5e-05
1.77491e-18
-5e-05
1.4461e-18
-5e-05
1.19504e-18
-5e-05
1.13075e-18
-5e-05
1.12556e-18
-5e-05
5.14883e-19
-2.94031e-19
-5e-05
-1.36617e-14
-5e-05
3.84942e-15
-5e-05
-9.20824e-16
-5e-05
2.56356e-16
-5e-05
-6.16377e-17
-5e-05
2.00308e-17
-5e-05
-1.06677e-18
-5e-05
4.4303e-18
-5e-05
2.78651e-18
-5e-05
2.91124e-18
-5e-05
2.51805e-18
-5e-05
2.25656e-18
-5e-05
1.97867e-18
-5e-05
1.65276e-18
-5e-05
1.34806e-18
-5e-05
1.11653e-18
-5e-05
1.06883e-18
-5e-05
1.07999e-18
-5e-05
4.84004e-19
-3.06899e-19
-5e-05
1.42057e-14
-5e-05
-3.95415e-15
-5e-05
9.51615e-16
-5e-05
-2.53768e-16
-5e-05
6.93953e-17
-5e-05
-1.30671e-17
-5e-05
7.83564e-18
-5e-05
2.02873e-18
-5e-05
3.19168e-18
-5e-05
2.54411e-18
-5e-05
2.35518e-18
-5e-05
2.06143e-18
-5e-05
1.82097e-18
-5e-05
1.51981e-18
-5e-05
1.2428e-18
-5e-05
1.02934e-18
-5e-05
9.91488e-19
-5e-05
1.01526e-18
-5e-05
4.45297e-19
-3.15199e-19
-5e-05
-1.44198e-14
-5e-05
4.00553e-15
-5e-05
-9.48933e-16
-5e-05
2.64124e-16
-5e-05
-6.11122e-17
-5e-05
2.04808e-17
-5e-05
-1.0119e-18
-5e-05
4.15665e-18
-5e-05
2.43037e-18
-5e-05
2.49756e-18
-5e-05
2.11449e-18
-5e-05
1.88308e-18
-5e-05
1.65206e-18
-5e-05
1.37582e-18
-5e-05
1.11826e-18
-5e-05
9.28868e-19
-5e-05
9.06757e-19
-5e-05
9.31105e-19
-5e-05
3.99892e-19
-3.15548e-19
-5e-05
1.38543e-14
-5e-05
-3.77155e-15
-5e-05
9.07758e-16
-5e-05
-2.34676e-16
-5e-05
6.51003e-17
-5e-05
-1.12417e-17
-5e-05
7.28027e-18
-5e-05
1.89819e-18
-5e-05
2.78107e-18
-5e-05
2.14575e-18
-5e-05
1.93698e-18
-5e-05
1.67031e-18
-5e-05
1.47186e-18
-5e-05
1.21618e-18
-5e-05
9.80684e-19
-5e-05
8.14929e-19
-5e-05
8.09679e-19
-5e-05
8.36076e-19
-5e-05
3.52473e-19
-3.0234e-19
-5e-05
-1.29858e-14
-5e-05
3.54892e-15
-5e-05
-8.37528e-16
-5e-05
2.3086e-16
-5e-05
-5.20255e-17
-5e-05
1.79641e-17
-5e-05
-6.35322e-19
-5e-05
3.57073e-18
-5e-05
2.02809e-18
-5e-05
2.02197e-18
-5e-05
1.66725e-18
-5e-05
1.4552e-18
-5e-05
1.26749e-18
-5e-05
1.04329e-18
-5e-05
8.39947e-19
-5e-05
6.97013e-19
-5e-05
6.99153e-19
-5e-05
7.29072e-19
-5e-05
3.01223e-19
-2.7693e-19
-5e-05
1.13188e-14
-5e-05
-3.00318e-15
-5e-05
7.22182e-16
-5e-05
-1.79721e-16
-5e-05
4.97311e-17
-5e-05
-7.92872e-18
-5e-05
5.4895e-18
-5e-05
1.56725e-18
-5e-05
2.07196e-18
-5e-05
1.59014e-18
-5e-05
1.39805e-18
-5e-05
1.18733e-18
-5e-05
1.03449e-18
-5e-05
8.48456e-19
-5e-05
6.83557e-19
-5e-05
5.6663e-19
-5e-05
5.73742e-19
-5e-05
6.08559e-19
-5e-05
2.43881e-19
-2.43439e-19
-5e-05
-9.4102e-15
-5e-05
2.51304e-15
-5e-05
-6.15977e-16
-5e-05
1.62829e-16
-5e-05
-3.91712e-17
-5e-05
1.36339e-17
-5e-05
-8.01716e-19
-5e-05
2.58792e-18
-5e-05
1.25388e-18
-5e-05
1.32196e-18
-5e-05
1.04713e-18
-5e-05
9.20158e-19
-5e-05
7.84583e-19
-5e-05
6.46756e-19
-5e-05
5.25124e-19
-5e-05
4.41437e-19
-5e-05
4.47016e-19
-5e-05
4.75775e-19
-5e-05
1.86344e-19
-2.03061e-19
-5e-05
7.05573e-15
-5e-05
-1.8571e-15
-5e-05
3.93382e-16
-5e-05
-7e-17
-5e-05
1.65731e-17
-5e-05
1.68657e-18
-5e-05
1.02404e-18
-5e-05
1.65344e-18
-5e-05
8.96413e-19
-5e-05
9.58852e-19
-5e-05
7.33308e-19
-5e-05
6.51802e-19
-5e-05
5.45887e-19
-5e-05
4.46811e-19
-5e-05
3.63846e-19
-5e-05
3.06702e-19
-5e-05
3.12468e-19
-5e-05
3.43191e-19
-5e-05
1.43529e-19
-1.54849e-19
-5e-05
-5.37954e-15
-5e-05
2.65505e-15
-5e-05
-7.78195e-16
-5e-05
2.77131e-16
-5e-05
-8.80212e-17
-5e-05
2.84705e-17
-5e-05
-7.83282e-18
-5e-05
3.33255e-18
-5e-05
-1.98618e-19
-5e-05
7.21507e-19
-5e-05
3.29751e-19
-5e-05
3.54542e-19
-5e-05
2.76761e-19
-5e-05
2.23952e-19
-5e-05
1.74824e-19
-5e-05
1.41801e-19
-5e-05
1.54849e-19
-5e-05
1.96273e-19
-5e-05
9.35627e-20
-8.85738e-20
-5e-05
-5e-05
-5e-05
-5e-05
-5e-05
-5e-05
-5e-05
-5e-05
-5e-05
-5e-05
-5e-05
-5e-05
-5e-05
-5e-05
-5e-05
-5e-05
-5e-05
-5e-05
-5e-05
)
;

boundaryField
{
    movingWall
    {
        type            calculated;
        value           uniform -0;
    }
    fixedWalls
    {
        type            calculated;
        value           nonuniform List<scalar> 
60
(
5e-05
5e-05
5e-05
5e-05
5e-05
5e-05
5e-05
5e-05
5e-05
5e-05
5e-05
5e-05
5e-05
5e-05
5e-05
5e-05
5e-05
5e-05
5e-05
5e-05
-5e-05
-5e-05
-5e-05
-5e-05
-5e-05
-5e-05
-5e-05
-5e-05
-5e-05
-5e-05
-5e-05
-5e-05
-5e-05
-5e-05
-5e-05
-5e-05
-5e-05
-5e-05
-5e-05
-5e-05
0
0
0
0
0
0
0
0
0
0
0
0
0
0
0
0
0
0
0
0
)
;
    }
    frontAndBack
    {
        type            empty;
        value           nonuniform List<scalar> 0();
    }
}


// ************************************************************************* //
