/*--------------------------------*- C++ -*----------------------------------*\
| =========                 |                                                 |
| \\      /  F ield         | OpenFOAM: The Open Source CFD Toolbox           |
|  \\    /   O peration     | Version:  2312                                  |
|   \\  /    A nd           | Website:  www.openfoam.com                      |
|    \\/     M anipulation  |                                                 |
\*---------------------------------------------------------------------------*/
FoamFile
{
    version     2.0;
    format      ascii;
    arch        "LSB;label=32;scalar=64";
    class       volTensorField;
    location    "3.875";
    object      gradU;
}
// * * * * * * * * * * * * * * * * * * * * * * * * * * * * * * * * * * * * * //

dimensions      [0 0 -1 0 0 0 0];

internalField   nonuniform List<tensor> 
400
(
(1.89501e-08 6.92932e-06 0 -8.28035e-08 1.30151e-09 0 0 0 0)
(-1.76087e-08 -8.5676e-06 0 2.44858e-08 -1.64009e-09 0 0 0 0)
(-1.29348e-09 2.02746e-06 0 -1.00931e-08 1.56662e-09 0 0 0 0)
(7.43736e-10 -4.81217e-07 0 3.29896e-09 -3.35026e-10 0 0 0 0)
(-8.33074e-10 1.1389e-07 0 -8.82026e-10 2.86122e-10 0 0 0 0)
(2.01174e-10 -2.70036e-08 0 4.217e-10 -1.38784e-11 0 0 0 0)
(-1.24168e-10 6.38558e-09 0 -3.61039e-11 5.08533e-11 0 0 0 0)
(1.1601e-11 -1.51822e-09 0 7.32108e-11 1.07098e-11 0 0 0 0)
(-2.18738e-11 3.55374e-10 0 2.05185e-11 1.34316e-11 0 0 0 0)
(-4.96022e-12 -8.63578e-11 0 2.41506e-11 6.92801e-12 0 0 0 0)
(-6.4239e-12 1.90161e-11 0 1.46638e-11 5.5279e-12 0 0 0 0)
(-3.65918e-12 -5.37306e-12 0 1.14925e-11 3.7856e-12 0 0 0 0)
(-2.98156e-12 6.84394e-13 0 8.0502e-12 2.88967e-12 0 0 0 0)
(-2.11419e-12 -5.73586e-13 0 5.82759e-12 2.15249e-12 0 0 0 0)
(-1.5992e-12 -1.66822e-13 0 4.01155e-12 1.63397e-12 0 0 0 0)
(-1.19262e-12 -1.54988e-13 0 2.76472e-12 1.24793e-12 0 0 0 0)
(-1.13841e-12 -9.59561e-14 0 1.68051e-12 1.07733e-12 0 0 0 0)
(-1.00289e-12 -1.50515e-13 0 6.23416e-13 9.45047e-13 0 0 0 0)
(-3.25261e-13 -2.61399e-13 0 -1.89735e-13 4.92713e-13 0 0 0 0)
(1.35525e-13 -9.45781e-14 0 -8.13152e-14 -1.33116e-13 0 0 0 0)
(-7.72677e-08 -6.92966e-06 0 1.53289e-07 -5.09462e-09 0 0 0 0)
(9.03191e-08 8.56786e-06 0 -4.04505e-08 5.30475e-09 0 0 0 0)
(-1.98935e-08 -2.02616e-06 0 1.65834e-08 -1.69153e-09 0 0 0 0)
(8.46729e-09 4.79937e-07 0 -4.75097e-09 7.72115e-10 0 0 0 0)
(-2.04407e-09 -1.13569e-07 0 1.43033e-09 -1.75927e-10 0 0 0 0)
(6.44775e-10 2.67684e-08 0 -5.14156e-10 9.17122e-11 0 0 0 0)
(-2.24349e-10 -6.36099e-09 0 1.12323e-10 -1.96046e-12 0 0 0 0)
(4.50215e-11 1.4808e-09 0 -5.40475e-11 1.78741e-11 0 0 0 0)
(-2.71864e-11 -3.59156e-10 0 5.50233e-12 7.06513e-12 0 0 0 0)
(-8.94467e-13 7.84542e-11 0 -7.58942e-12 6.63385e-12 0 0 0 0)
(-6.20706e-12 -2.21585e-11 0 -1.35525e-12 4.41525e-12 0 0 0 0)
(-2.98156e-12 2.73483e-12 0 -1.78893e-12 3.43507e-12 0 0 0 0)
(-2.73761e-12 -2.3175e-12 0 -9.21572e-13 2.5911e-12 0 0 0 0)
(-1.89735e-12 -6.82109e-13 0 -7.31836e-13 1.96937e-12 0 0 0 0)
(-1.43657e-12 -7.37743e-13 0 -4.06576e-13 1.47758e-12 0 0 0 0)
(-1.11131e-12 -4.01657e-13 0 -2.98156e-13 1.13839e-12 0 0 0 0)
(-1.02999e-12 -2.06925e-13 0 -1.6263e-13 9.71958e-13 0 0 0 0)
(-8.94467e-13 -4.34101e-13 0 -5.42101e-14 9.1127e-13 0 0 0 0)
(-2.98156e-13 -8.16764e-13 0 -2.71051e-14 4.51794e-13 0 0 0 0)
(8.13152e-14 -2.65018e-13 0 2.71051e-14 -1.20655e-13 0 0 0 0)
(1.31788e-07 6.92953e-06 0 -1.65311e-07 2.97581e-09 0 0 0 0)
(-1.54314e-07 -8.5642e-06 0 3.59169e-08 -5.30472e-09 0 0 0 0)
(3.44062e-08 2.02293e-06 0 -1.51855e-08 8.17159e-10 0 0 0 0)
(-1.44093e-08 -4.79702e-07 0 3.2432e-09 -5.3126e-10 0 0 0 0)
(3.40366e-09 1.1321e-07 0 -1.21929e-09 7.21215e-11 0 0 0 0)
(-1.11686e-09 -2.68297e-08 0 2.82353e-10 -2.57616e-11 0 0 0 0)
(3.3594e-10 6.31174e-09 0 -1.1086e-10 9.09315e-12 0 0 0 0)
(-9.5193e-11 -1.5092e-09 0 1.28478e-11 4.3049e-12 0 0 0 0)
(2.45843e-11 3.44134e-10 0 -1.58294e-11 4.69679e-12 0 0 0 0)
(-1.18449e-11 -8.90077e-11 0 -3.2255e-12 3.93746e-12 0 0 0 0)
(-6.23416e-13 1.58173e-11 0 -4.06576e-12 3.11938e-12 0 0 0 0)
(-3.2255e-12 -7.19721e-12 0 -2.05998e-12 2.55556e-12 0 0 0 0)
(-1.81604e-12 -7.81301e-13 0 -1.49078e-12 2.05176e-12 0 0 0 0)
(-1.65341e-12 -1.6871e-12 0 -8.94467e-13 1.6201e-12 0 0 0 0)
(-1.19262e-12 -9.97809e-13 0 -5.69206e-13 1.25152e-12 0 0 0 0)
(-9.75782e-13 -6.60612e-13 0 -3.52366e-13 9.91061e-13 0 0 0 0)
(-8.94467e-13 -3.23073e-13 0 -2.1684e-13 8.54706e-13 0 0 0 0)
(-8.40257e-13 -6.70679e-13 0 -1.35525e-13 8.0195e-13 0 0 0 0)
(-2.43945e-13 -1.29332e-12 0 0 3.95254e-13 0 0 0 0)
(1.35525e-13 -4.25717e-13 0 0 -1.28643e-13 0 0 0 0)
(-2.06662e-07 -6.93198e-06 0 1.89423e-07 6.63655e-09 0 0 0 0)
(2.40445e-07 8.56571e-06 0 -3.98274e-08 7.53178e-10 0 0 0 0)
(-5.25672e-08 -2.02138e-06 0 1.71699e-08 -3.8976e-10 0 0 0 0)
(2.24335e-08 4.79192e-07 0 -3.64989e-09 1.41364e-10 0 0 0 0)
(-5.00498e-09 -1.13064e-07 0 1.29375e-09 -9.83427e-11 0 0 0 0)
(1.75324e-09 2.67053e-08 0 -3.76814e-10 3.34309e-12 0 0 0 0)
(-4.93854e-10 -6.33093e-09 0 8.3077e-11 -1.18499e-11 0 0 0 0)
(1.40079e-10 1.47641e-09 0 -4.16876e-11 5.45219e-13 0 0 0 0)
(-4.32597e-11 -3.59524e-10 0 6.77626e-13 4.38851e-13 0 0 0 0)
(1.08962e-11 7.68767e-11 0 -7.58942e-12 1.70263e-12 0 0 0 0)
(-5.06865e-12 -2.35404e-11 0 -2.79182e-12 1.65578e-12 0 0 0 0)
(-4.06576e-13 1.6672e-12 0 -2.60209e-12 1.59217e-12 0 0 0 0)
(-1.5992e-12 -3.25295e-12 0 -1.54499e-12 1.40769e-12 0 0 0 0)
(-9.48677e-13 -1.48234e-12 0 -1.13841e-12 1.17505e-12 0 0 0 0)
(-8.94467e-13 -1.36679e-12 0 -7.04731e-13 9.47541e-13 0 0 0 0)
(-7.86047e-13 -7.98476e-13 0 -4.60786e-13 7.76786e-13 0 0 0 0)
(-7.58942e-13 -3.96036e-13 0 -2.71051e-13 7.11883e-13 0 0 0 0)
(-7.04731e-13 -8.93552e-13 0 -1.35525e-13 6.94159e-13 0 0 0 0)
(-1.6263e-13 -1.74736e-12 0 2.71051e-14 3.37721e-13 0 0 0 0)
(8.13152e-14 -5.31629e-13 0 0 -1.22769e-13 0 0 0 0)
(2.81384e-07 6.93692e-06 0 -1.8669e-07 -1.93444e-08 0 0 0 0)
(-3.26567e-07 -8.57122e-06 0 3.84445e-08 4.34899e-09 0 0 0 0)
(7.05836e-08 2.02232e-06 0 -1.67828e-08 -1.07294e-09 0 0 0 0)
(-3.02855e-08 -4.7941e-07 0 3.45457e-09 2.112e-10 0 0 0 0)
(6.67676e-09 1.13072e-07 0 -1.26348e-09 -8.97192e-11 0 0 0 0)
(-2.32754e-09 -2.67432e-08 0 3.2911e-10 1.31242e-12 0 0 0 0)
(6.71094e-10 6.30894e-09 0 -9.98279e-11 -1.33028e-11 0 0 0 0)
(-1.77619e-10 -1.49691e-09 0 2.1169e-11 -2.55625e-12 0 0 0 0)
(5.86553e-11 3.45292e-10 0 -1.32273e-11 -1.92103e-12 0 0 0 0)
(-1.53144e-11 -8.77908e-11 0 -2.08709e-12 -2.79961e-14 0 0 0 0)
(4.39102e-12 1.57069e-11 0 -3.68629e-12 4.23602e-13 0 0 0 0)
(-1.97867e-12 -7.4453e-12 0 -2.05998e-12 7.39791e-13 0 0 0 0)
(-3.52366e-13 -1.19843e-12 0 -1.68051e-12 8.01216e-13 0 0 0 0)
(-8.13152e-13 -2.14725e-12 0 -1.0571e-12 7.44858e-13 0 0 0 0)
(-5.14996e-13 -1.39607e-12 0 -7.86047e-13 6.40943e-13 0 0 0 0)
(-5.14996e-13 -8.9627e-13 0 -5.42101e-13 5.3375e-13 0 0 0 0)
(-5.69206e-13 -4.057e-13 0 -3.52366e-13 5.23491e-13 0 0 0 0)
(-5.42101e-13 -1.04484e-12 0 -1.35525e-13 5.44271e-13 0 0 0 0)
(-1.6263e-13 -2.11025e-12 0 -2.71051e-14 2.72817e-13 0 0 0 0)
(1.35525e-13 -6.4067e-13 0 5.42101e-14 -1.19877e-13 0 0 0 0)
(-3.54907e-07 -6.94698e-06 0 1.75935e-07 3.47342e-08 0 0 0 0)
(4.10352e-07 8.58398e-06 0 -3.55548e-08 -9.67275e-09 0 0 0 0)
(-8.7557e-08 -2.02552e-06 0 1.5774e-08 2.26083e-09 0 0 0 0)
(3.79527e-08 4.80175e-07 0 -3.1756e-09 -6.66057e-10 0 0 0 0)
(-8.13038e-09 -1.13274e-07 0 1.17186e-09 1.47721e-10 0 0 0 0)
(2.91686e-09 2.67818e-08 0 -3.13443e-10 -5.62641e-11 0 0 0 0)
(-8.01795e-10 -6.33479e-09 0 8.08002e-11 4.38554e-12 0 0 0 0)
(2.26652e-10 1.48779e-09 0 -3.00866e-11 -7.907e-12 0 0 0 0)
(-6.64887e-11 -3.56995e-10 0 3.27971e-12 -1.56282e-12 0 0 0 0)
(2.04372e-11 7.92214e-11 0 -5.06865e-12 -1.40247e-12 0 0 0 0)
(-5.06865e-12 -2.27726e-11 0 -1.87025e-12 -2.93795e-13 0 0 0 0)
(1.65341e-12 2.04482e-12 0 -2.05998e-12 3.52569e-14 0 0 0 0)
(-6.50521e-13 -3.24789e-12 0 -1.35525e-12 2.76249e-13 0 0 0 0)
(-5.42101e-14 -1.64261e-12 0 -9.75782e-13 3.4775e-13 0 0 0 0)
(-3.25261e-13 -1.5779e-12 0 -6.23416e-13 3.77545e-13 0 0 0 0)
(-3.79471e-13 -9.15928e-13 0 -4.33681e-13 3.46834e-13 0 0 0 0)
(-4.33681e-13 -3.85514e-13 0 -2.98156e-13 3.57139e-13 0 0 0 0)
(-3.25261e-13 -1.14423e-12 0 -1.6263e-13 3.89921e-13 0 0 0 0)
(0 -2.41151e-12 0 -5.42101e-14 1.65253e-13 0 0 0 0)
(8.13152e-14 -6.84569e-13 0 0 -1.34774e-13 0 0 0 0)
(4.21764e-07 6.96198e-06 0 -1.51511e-07 -5.07193e-08 0 0 0 0)
(-4.86728e-07 -8.6037e-06 0 2.99991e-08 1.46944e-08 0 0 0 0)
(1.02963e-07 2.03133e-06 0 -1.34381e-08 -3.5327e-09 0 0 0 0)
(-4.48875e-08 -4.81523e-07 0 2.6773e-09 9.9591e-10 0 0 0 0)
(9.53897e-09 1.13682e-07 0 -9.69927e-10 -2.7282e-10 0 0 0 0)
(-3.41862e-09 -2.68865e-08 0 2.6151e-10 6.11856e-11 0 0 0 0)
(9.54423e-10 6.3573e-09 0 -6.93347e-11 -2.55533e-11 0 0 0 0)
(-2.5514e-10 -1.50286e-09 0 1.97325e-11 9.82308e-13 0 0 0 0)
(8.36462e-11 3.51796e-10 0 -7.67073e-12 -4.04972e-12 0 0 0 0)
(-2.04643e-11 -8.65217e-11 0 -3.79471e-13 -1.13631e-12 0 0 0 0)
(7.39968e-12 1.71446e-11 0 -2.27682e-12 -9.12977e-13 0 0 0 0)
(-1.43657e-12 -6.87526e-12 0 -1.32815e-12 -3.24346e-13 0 0 0 0)
(7.04731e-13 -8.85935e-13 0 -1.13841e-12 -1.13577e-13 0 0 0 0)
(-8.13152e-14 -2.04595e-12 0 -9.21572e-13 3.15535e-14 0 0 0 0)
(-2.71051e-14 -1.39699e-12 0 -7.04731e-13 1.08842e-13 0 0 0 0)
(-1.6263e-13 -9.16676e-13 0 -4.60786e-13 1.52198e-13 0 0 0 0)
(-2.1684e-13 -3.62613e-13 0 -2.71051e-13 1.94184e-13 0 0 0 0)
(-3.25261e-13 -1.23673e-12 0 -1.35525e-13 2.48724e-13 0 0 0 0)
(5.42101e-14 -2.63495e-12 0 5.42101e-14 7.9758e-14 0 0 0 0)
(1.35525e-13 -6.71148e-13 0 -5.42101e-14 -1.34243e-13 0 0 0 0)
(-4.76419e-07 -6.983e-06 0 1.22504e-07 6.67031e-08 0 0 0 0)
(5.48425e-07 8.63116e-06 0 -2.36752e-08 -1.93117e-08 0 0 0 0)
(-1.14879e-07 -2.03922e-06 0 1.08145e-08 4.66095e-09 0 0 0 0)
(5.04209e-08 4.83435e-07 0 -2.07969e-09 -1.31834e-09 0 0 0 0)
(-1.05463e-08 -1.14208e-07 0 7.74391e-10 3.37783e-10 0 0 0 0)
(3.81748e-09 2.7029e-08 0 -1.99683e-10 -9.5165e-11 0 0 0 0)
(-1.04354e-09 -6.395e-09 0 5.41017e-11 2.04815e-11 0 0 0 0)
(2.88344e-10 1.50929e-09 0 -1.67238e-11 -9.81694e-12 0 0 0 0)
(-8.66006e-11 -3.59114e-10 0 3.36103e-12 -5.4193e-13 0 0 0 0)
(2.58311e-11 8.23581e-11 0 -2.38524e-12 -2.04398e-12 0 0 0 0)
(-5.99022e-12 -2.19606e-11 0 -7.86047e-13 -8.73984e-13 0 0 0 0)
(2.76472e-12 2.84422e-12 0 -1.11131e-12 -6.33283e-13 0 0 0 0)
(-2.1684e-13 -2.89199e-12 0 -7.58942e-13 -3.16917e-13 0 0 0 0)
(3.79471e-13 -1.42019e-12 0 -6.77626e-13 -1.79586e-13 0 0 0 0)
(1.35525e-13 -1.45725e-12 0 -4.87891e-13 -1.02496e-13 0 0 0 0)
(5.42101e-14 -8.30586e-13 0 -2.98156e-13 -3.99483e-14 0 0 0 0)
(-1.35525e-13 -2.88987e-13 0 -2.43945e-13 4.34431e-14 0 0 0 0)
(-5.42101e-14 -1.25865e-12 0 -5.42101e-14 1.18258e-13 0 0 0 0)
(1.0842e-13 -2.79447e-12 0 2.71051e-14 1.77319e-14 0 0 0 0)
(8.13152e-14 -6.30084e-13 0 5.42101e-14 -1.17559e-13 0 0 0 0)
(5.20593e-07 7.00937e-06 0 -8.65274e-08 -8.15616e-08 0 0 0 0)
(-5.98417e-07 -8.66574e-06 0 1.60558e-08 2.34983e-08 0 0 0 0)
(1.24558e-07 2.04932e-06 0 -7.51344e-09 -5.68629e-09 0 0 0 0)
(-5.49277e-08 -4.85847e-07 0 1.38295e-09 1.58384e-09 0 0 0 0)
(1.1419e-08 1.14905e-07 0 -5.07271e-10 -4.16773e-10 0 0 0 0)
(-4.13883e-09 -2.72038e-08 0 1.35579e-10 1.04636e-10 0 0 0 0)
(1.13738e-09 6.44265e-09 0 -3.19026e-11 -3.22367e-11 0 0 0 0)
(-3.05908e-10 -1.52388e-09 0 1.08691e-11 5.36853e-12 0 0 0 0)
(9.79848e-11 3.59569e-10 0 -2.79182e-12 -3.92427e-12 0 0 0 0)
(-2.45843e-11 -8.68538e-11 0 1.89735e-13 -8.41467e-13 0 0 0 0)
(8.61941e-12 1.85553e-11 0 -8.40257e-13 -1.17403e-12 0 0 0 0)
(-1.43657e-12 -6.31819e-12 0 -5.69206e-13 -6.81469e-13 0 0 0 0)
(1.16552e-12 -4.32238e-13 0 -6.77626e-13 -4.84202e-13 0 0 0 0)
(1.35525e-13 -1.83153e-12 0 -4.87891e-13 -3.22743e-13 0 0 0 0)
(3.52366e-13 -1.25735e-12 0 -4.06576e-13 -2.26839e-13 0 0 0 0)
(1.35525e-13 -7.70736e-13 0 -2.71051e-13 -1.38773e-13 0 0 0 0)
(2.71051e-14 -2.04407e-13 0 -1.6263e-13 -5.63982e-14 0 0 0 0)
(-2.71051e-14 -1.26244e-12 0 -1.0842e-13 -2.85645e-14 0 0 0 0)
(1.35525e-13 -2.87076e-12 0 0 -4.81499e-14 0 0 0 0)
(8.13152e-14 -5.71321e-13 0 2.71051e-14 -9.41668e-14 0 0 0 0)
(-5.46891e-07 -7.04107e-06 0 4.88618e-08 9.443e-08 0 0 0 0)
(6.27439e-07 8.70704e-06 0 -8.26295e-09 -2.69114e-08 0 0 0 0)
(-1.29552e-07 -2.06114e-06 0 4.1449e-09 6.50183e-09 0 0 0 0)
(5.74271e-08 4.88704e-07 0 -6.50467e-10 -1.79427e-09 0 0 0 0)
(-1.17936e-08 -1.15688e-07 0 2.62973e-10 4.65694e-10 0 0 0 0)
(4.29276e-09 2.74136e-08 0 -5.88451e-11 -1.21014e-10 0 0 0 0)
(-1.1682e-09 -6.49426e-09 0 1.64257e-11 3.12573e-11 0 0 0 0)
(3.17427e-10 1.5376e-09 0 -3.82181e-12 -9.90257e-12 0 0 0 0)
(-9.73071e-11 -3.65324e-10 0 1.11131e-12 8.76522e-13 0 0 0 0)
(2.77556e-11 8.51084e-11 0 -5.42101e-13 -1.77319e-12 0 0 0 0)
(-6.74916e-12 -2.18006e-11 0 -3.79471e-13 -7.82927e-13 0 0 0 0)
(2.98156e-12 3.53404e-12 0 -4.87891e-13 -7.82252e-13 0 0 0 0)
(-5.42101e-14 -2.53326e-12 0 -3.79471e-13 -5.54005e-13 0 0 0 0)
(6.23416e-13 -1.16283e-12 0 -3.52366e-13 -4.3921e-13 0 0 0 0)
(3.25261e-13 -1.27328e-12 0 -2.43945e-13 -3.24224e-13 0 0 0 0)
(2.1684e-13 -6.60145e-13 0 -2.71051e-13 -2.28071e-13 0 0 0 0)
(5.42101e-14 -1.78779e-13 0 -1.35525e-13 -1.54721e-13 0 0 0 0)
(1.6263e-13 -1.2504e-12 0 -5.42101e-14 -1.22795e-13 0 0 0 0)
(2.1684e-13 -2.86007e-12 0 1.0842e-13 -1.05359e-13 0 0 0 0)
(5.42101e-14 -4.87768e-13 0 0 -7.03222e-14 0 0 0 0)
(5.61191e-07 7.07689e-06 0 -8.9399e-09 -1.04708e-07 0 0 0 0)
(-6.43134e-07 -8.75367e-06 0 1.17907e-10 2.96388e-08 0 0 0 0)
(1.32171e-07 2.07444e-06 0 -5.44568e-10 -7.11746e-09 0 0 0 0)
(-5.88095e-08 -4.91883e-07 0 -8.1261e-11 1.96595e-09 0 0 0 0)
(1.20106e-08 1.16578e-07 0 1.42573e-11 -5.0241e-10 0 0 0 0)
(-4.38541e-09 -2.76383e-08 0 -8.83625e-12 1.30017e-10 0 0 0 0)
(1.19243e-09 6.55376e-09 0 6.17995e-12 -3.54347e-11 0 0 0 0)
(-3.21249e-10 -1.55426e-09 0 -1.00289e-12 8.11906e-12 0 0 0 0)
(1.01292e-10 3.67698e-10 0 8.13152e-13 -3.36302e-12 0 0 0 0)
(-2.60751e-11 -8.85132e-11 0 -3.25261e-13 -3.3158e-13 0 0 0 0)
(8.70072e-12 1.95462e-11 0 -1.6263e-13 -1.03201e-12 0 0 0 0)
(-1.49078e-12 -6.08927e-12 0 -3.52366e-13 -6.9586e-13 0 0 0 0)
(1.21973e-12 -8.91966e-14 0 -2.71051e-13 -6.34291e-13 0 0 0 0)
(3.25261e-13 -1.60175e-12 0 -1.89735e-13 -4.88613e-13 0 0 0 0)
(4.87891e-13 -1.04621e-12 0 -2.43945e-13 -3.92171e-13 0 0 0 0)
(2.98156e-13 -6.01233e-13 0 -1.6263e-13 -3.14031e-13 0 0 0 0)
(1.89735e-13 -9.91304e-14 0 -1.0842e-13 -2.47692e-13 0 0 0 0)
(1.6263e-13 -1.21308e-12 0 5.42101e-14 -1.82295e-13 0 0 0 0)
(1.35525e-13 -2.81829e-12 0 8.13152e-14 -1.23518e-13 0 0 0 0)
(5.42101e-14 -3.95639e-13 0 -2.71051e-14 -5.14708e-14 0 0 0 0)
(-5.55713e-07 -7.11614e-06 0 -3.04961e-08 1.11469e-07 0 0 0 0)
(6.35834e-07 8.80463e-06 0 7.78083e-09 -3.12143e-08 0 0 0 0)
(-1.29751e-07 -2.08881e-06 0 -2.97595e-09 7.48976e-09 0 0 0 0)
(5.79859e-08 4.9532e-07 0 7.91413e-10 -2.0405e-09 0 0 0 0)
(-1.17211e-08 -1.17524e-07 0 -2.71511e-10 5.24132e-10 0 0 0 0)
(4.28469e-09 2.78805e-08 0 8.08544e-11 -1.32392e-10 0 0 0 0)
(-1.16042e-09 -6.61616e-09 0 -2.32561e-11 3.56096e-11 0 0 0 0)
(3.12115e-10 1.56968e-09 0 7.58942e-12 -9.60629e-12 0 0 0 0)
(-9.66024e-11 -3.73775e-10 0 -2.1413e-12 1.62066e-12 0 0 0 0)
(2.67798e-11 8.74394e-11 0 5.96311e-13 -1.46852e-12 0 0 0 0)
(-6.77626e-12 -2.21649e-11 0 -4.06576e-13 -6.51491e-13 0 0 0 0)
(2.87314e-12 3.93176e-12 0 -1.35525e-13 -7.80521e-13 0 0 0 0)
(8.13152e-14 -2.32601e-12 0 -2.1684e-13 -6.30804e-13 0 0 0 0)
(7.31836e-13 -9.20711e-13 0 -2.1684e-13 -5.31803e-13 0 0 0 0)
(3.52366e-13 -1.0987e-12 0 -1.35525e-13 -4.21005e-13 0 0 0 0)
(2.71051e-13 -5.15665e-13 0 -1.0842e-13 -3.48761e-13 0 0 0 0)
(2.1684e-13 -4.70431e-14 0 -1.35525e-13 -3.09372e-13 0 0 0 0)
(3.79471e-13 -1.12623e-12 0 -1.0842e-13 -2.58922e-13 0 0 0 0)
(2.1684e-13 -2.72925e-12 0 5.42101e-14 -1.54826e-13 0 0 0 0)
(-2.71051e-14 -3.12779e-13 0 0 -3.31981e-14 0 0 0 0)
(5.38476e-07 7.15714e-06 0 6.82889e-08 -1.14502e-07 0 0 0 0)
(-6.15614e-07 -8.85765e-06 0 -1.52436e-08 3.18387e-08 0 0 0 0)
(1.25181e-07 2.10361e-06 0 6.33849e-09 -7.60219e-09 0 0 0 0)
(-5.61051e-08 -4.98848e-07 0 -1.44592e-09 2.07157e-09 0 0 0 0)
(1.13e-08 1.18486e-07 0 5.16107e-10 -5.2203e-10 0 0 0 0)
(-4.1371e-09 -2.81268e-08 0 -1.4428e-10 1.34192e-10 0 0 0 0)
(1.11914e-09 6.67655e-09 0 4.05492e-11 -3.53901e-11 0 0 0 0)
(-3.00161e-10 -1.58825e-09 0 -1.27936e-11 8.5117e-12 0 0 0 0)
(9.42714e-11 3.75836e-10 0 3.33392e-12 -3.04525e-12 0 0 0 0)
(-2.43132e-11 -9.07854e-11 0 -1.30104e-12 -1.86207e-13 0 0 0 0)
(7.99599e-12 2.02342e-11 0 8.13152e-14 -9.62731e-13 0 0 0 0)
(-1.38236e-12 -6.06858e-12 0 -3.52366e-13 -7.13411e-13 0 0 0 0)
(1.19262e-12 1.59522e-13 0 -2.43945e-13 -6.75654e-13 0 0 0 0)
(4.06576e-13 -1.39195e-12 0 -1.89735e-13 -5.75933e-13 0 0 0 0)
(5.69206e-13 -8.63169e-13 0 -1.0842e-13 -4.98183e-13 0 0 0 0)
(3.52366e-13 -4.896e-13 0 -2.71051e-14 -4.01886e-13 0 0 0 0)
(2.71051e-13 -9.2918e-15 0 -2.71051e-14 -3.38922e-13 0 0 0 0)
(2.98156e-13 -1.05853e-12 0 0 -3.36605e-13 0 0 0 0)
(1.89735e-13 -2.59257e-12 0 2.71051e-14 -1.81622e-13 0 0 0 0)
(0 -2.07615e-13 0 2.71051e-14 -1.3963e-15 0 0 0 0)
(-5.02668e-07 -7.1988e-06 0 -1.03873e-07 1.13097e-07 0 0 0 0)
(5.73884e-07 8.91153e-06 0 2.21679e-08 -3.11083e-08 0 0 0 0)
(-1.15953e-07 -2.11858e-06 0 -9.50707e-09 7.42677e-09 0 0 0 0)
(5.21635e-08 5.024e-07 0 2.04399e-09 -1.9952e-09 0 0 0 0)
(-1.04195e-08 -1.19461e-07 0 -7.48858e-10 5.0485e-10 0 0 0 0)
(3.80921e-09 2.83672e-08 0 2.01933e-10 -1.2689e-10 0 0 0 0)
(-1.02902e-09 -6.74184e-09 0 -5.75982e-11 3.31687e-11 0 0 0 0)
(2.74872e-10 1.60202e-09 0 1.7022e-11 -9.03387e-12 0 0 0 0)
(-8.50015e-11 -3.82473e-10 0 -5.14996e-12 1.40281e-12 0 0 0 0)
(2.35001e-11 8.95219e-11 0 1.11131e-12 -1.40725e-12 0 0 0 0)
(-5.85469e-12 -2.26921e-11 0 -6.50521e-13 -7.10046e-13 0 0 0 0)
(2.6563e-12 4.21883e-12 0 -5.42101e-14 -8.5106e-13 0 0 0 0)
(1.89735e-13 -2.18853e-12 0 -1.6263e-13 -7.20773e-13 0 0 0 0)
(7.31836e-13 -7.4324e-13 0 -8.13152e-14 -6.38569e-13 0 0 0 0)
(5.96311e-13 -9.24653e-13 0 -5.42101e-14 -5.50298e-13 0 0 0 0)
(3.52366e-13 -3.56404e-13 0 0 -4.55759e-13 0 0 0 0)
(2.1684e-13 1.82374e-14 0 -5.42101e-14 -3.88314e-13 0 0 0 0)
(4.87891e-13 -9.6893e-13 0 5.42101e-14 -3.80113e-13 0 0 0 0)
(2.1684e-13 -2.39404e-12 0 1.0842e-13 -1.89674e-13 0 0 0 0)
(-8.13152e-14 -1.29761e-13 0 0 5.28302e-14 0 0 0 0)
(4.56771e-07 7.23913e-06 0 1.34414e-07 -1.0736e-07 0 0 0 0)
(-5.21248e-07 -8.96332e-06 0 -2.79993e-08 2.92819e-08 0 0 0 0)
(1.05057e-07 2.13272e-06 0 1.21772e-08 -6.98115e-09 0 0 0 0)
(-4.73469e-08 -5.0577e-07 0 -2.54644e-09 1.86215e-09 0 0 0 0)
(9.45796e-09 1.20355e-07 0 9.29324e-10 -4.68503e-10 0 0 0 0)
(-3.44592e-09 -2.85985e-08 0 -2.5308e-10 1.16823e-10 0 0 0 0)
(9.34338e-10 6.7944e-09 0 6.75187e-11 -3.16624e-11 0 0 0 0)
(-2.47686e-10 -1.62002e-09 0 -2.23075e-11 6.69016e-12 0 0 0 0)
(7.83065e-11 3.83463e-10 0 5.09575e-12 -3.01193e-12 0 0 0 0)
(-1.98138e-11 -9.28982e-11 0 -2.03288e-12 -4.9511e-13 0 0 0 0)
(6.80337e-12 2.07904e-11 0 2.71051e-13 -1.07894e-12 0 0 0 0)
(-8.94467e-13 -6.07931e-12 0 -2.98156e-13 -8.60434e-13 0 0 0 0)
(1.19262e-12 3.72013e-13 0 -5.42101e-14 -8.17504e-13 0 0 0 0)
(5.69206e-13 -1.22148e-12 0 -5.42101e-14 -6.91583e-13 0 0 0 0)
(5.96311e-13 -6.80359e-13 0 -5.42101e-14 -5.62948e-13 0 0 0 0)
(3.52366e-13 -3.27616e-13 0 -1.35525e-13 -4.71661e-13 0 0 0 0)
(4.06576e-13 6.63542e-14 0 0 -4.42102e-13 0 0 0 0)
(3.79471e-13 -8.59891e-13 0 8.13152e-14 -4.28017e-13 0 0 0 0)
(1.6263e-13 -2.15962e-12 0 2.71051e-14 -2.05001e-13 0 0 0 0)
(-1.0842e-13 -7.07718e-14 0 2.71051e-14 1.01642e-13 0 0 0 0)
(-3.96253e-07 -7.27688e-06 0 -1.61858e-07 9.72184e-08 0 0 0 0)
(4.51647e-07 9.01191e-06 0 3.32014e-08 -2.62084e-08 0 0 0 0)
(-9.05003e-08 -2.146e-06 0 -1.46039e-08 6.23884e-09 0 0 0 0)
(4.09156e-08 5.08912e-07 0 2.98855e-09 -1.64232e-09 0 0 0 0)
(-8.12615e-09 -1.21206e-07 0 -1.10702e-09 4.07026e-10 0 0 0 0)
(2.94738e-09 2.8804e-08 0 2.93412e-10 -1.03571e-10 0 0 0 0)
(-7.98271e-10 -6.85198e-09 0 -8.21012e-11 2.44993e-11 0 0 0 0)
(2.12504e-10 1.63067e-09 0 2.42048e-11 -8.01391e-12 0 0 0 0)
(-6.4754e-11 -3.89658e-10 0 -7.37257e-12 1.75499e-13 0 0 0 0)
(1.86483e-11 9.14549e-11 0 1.46367e-12 -1.72732e-12 0 0 0 0)
(-4.11997e-12 -2.30575e-11 0 -9.48677e-13 -1.07678e-12 0 0 0 0)
(2.41235e-12 4.48027e-12 0 -1.0842e-13 -1.0715e-12 0 0 0 0)
(3.79471e-13 -2.01968e-12 0 -2.1684e-13 -9.31982e-13 0 0 0 0)
(7.58942e-13 -4.88683e-13 0 -1.6263e-13 -7.79321e-13 0 0 0 0)
(5.42101e-13 -7.04731e-13 0 -8.13152e-14 -6.25558e-13 0 0 0 0)
(3.52366e-13 -2.35559e-13 0 -1.0842e-13 -5.21532e-13 0 0 0 0)
(4.33681e-13 6.18812e-14 0 -1.35525e-13 -5.01643e-13 0 0 0 0)
(5.42101e-13 -7.31829e-13 0 0 -4.82051e-13 0 0 0 0)
(1.35525e-13 -1.86438e-12 0 8.13152e-14 -2.29369e-13 0 0 0 0)
(-1.35525e-13 -2.64011e-14 0 2.71051e-14 1.33964e-13 0 0 0 0)
(3.28114e-07 7.31014e-06 0 1.81398e-07 -8.29162e-08 0 0 0 0)
(-3.73994e-07 -9.0543e-06 0 -3.67854e-08 2.20649e-08 0 0 0 0)
(7.48447e-08 2.15729e-06 0 1.62881e-08 -5.35264e-09 0 0 0 0)
(-3.385e-08 -5.11602e-07 0 -3.29649e-09 1.3702e-09 0 0 0 0)
(6.76277e-09 1.21893e-07 0 1.20661e-09 -3.55609e-10 0 0 0 0)
(-2.42097e-09 -2.8981e-08 0 -3.23255e-10 8.62504e-11 0 0 0 0)
(6.65104e-10 6.88996e-09 0 8.55978e-11 -2.51649e-11 0 0 0 0)
(-1.72984e-10 -1.64434e-09 0 -2.77014e-11 4.08268e-12 0 0 0 0)
(5.55654e-11 3.89749e-10 0 6.50521e-12 -3.27233e-12 0 0 0 0)
(-1.33357e-11 -9.41505e-11 0 -2.49366e-12 -1.07272e-12 0 0 0 0)
(5.28549e-12 2.14462e-11 0 2.71051e-13 -1.40368e-12 0 0 0 0)
(-2.71051e-13 -5.93451e-12 0 -2.98156e-13 -1.06869e-12 0 0 0 0)
(1.13841e-12 6.64187e-13 0 -1.35525e-13 -9.99636e-13 0 0 0 0)
(7.31836e-13 -9.15055e-13 0 -8.13152e-14 -8.06799e-13 0 0 0 0)
(7.04731e-13 -4.22571e-13 0 0 -6.33735e-13 0 0 0 0)
(2.98156e-13 -2.03701e-13 0 5.42101e-14 -5.00771e-13 0 0 0 0)
(4.60786e-13 1.05836e-13 0 5.42101e-14 -5.06905e-13 0 0 0 0)
(6.23416e-13 -5.87618e-13 0 0 -5.31138e-13 0 0 0 0)
(1.89735e-13 -1.54361e-12 0 1.0842e-13 -2.30148e-13 0 0 0 0)
(-2.43945e-13 2.4633e-14 0 2.71051e-14 1.61513e-13 0 0 0 0)
(-2.5164e-07 -7.33773e-06 0 -1.92808e-07 6.58637e-08 0 0 0 0)
(2.86537e-07 9.08947e-06 0 3.84064e-08 -1.74806e-08 0 0 0 0)
(-5.70114e-08 -2.16669e-06 0 -1.73536e-08 4.03743e-09 0 0 0 0)
(2.58341e-08 5.13909e-07 0 3.54336e-09 -9.31315e-10 0 0 0 0)
(-5.15289e-09 -1.2249e-07 0 -1.29367e-09 2.22977e-10 0 0 0 0)
(1.82637e-09 2.91345e-08 0 3.52583e-10 -4.77892e-11 0 0 0 0)
(-5.02717e-10 -6.93414e-09 0 -9.7795e-11 7.30301e-12 0 0 0 0)
(1.33411e-10 1.65256e-09 0 2.93548e-11 -3.73794e-12 0 0 0 0)
(-3.95734e-11 -3.94813e-10 0 -8.75493e-12 -1.42987e-12 0 0 0 0)
(1.24412e-11 9.33235e-11 0 2.1684e-12 -1.45244e-12 0 0 0 0)
(-1.97867e-12 -2.30534e-11 0 -8.40257e-13 -1.2553e-12 0 0 0 0)
(2.00577e-12 4.88431e-12 0 8.13152e-14 -1.07342e-12 0 0 0 0)
(6.77626e-13 -1.75779e-12 0 -1.35525e-13 -9.54784e-13 0 0 0 0)
(8.40257e-13 -1.22782e-13 0 0 -7.99779e-13 0 0 0 0)
(6.23416e-13 -3.98703e-13 0 -1.35525e-13 -6.4511e-13 0 0 0 0)
(4.33681e-13 -1.08729e-13 0 -5.42101e-14 -5.38941e-13 0 0 0 0)
(4.06576e-13 3.15148e-14 0 5.42101e-14 -5.38191e-13 0 0 0 0)
(5.69206e-13 -4.55072e-13 0 8.13152e-14 -5.30334e-13 0 0 0 0)
(1.6263e-13 -1.17173e-12 0 2.71051e-14 -1.71259e-13 0 0 0 0)
(-2.43945e-13 4.22346e-14 0 -2.71051e-14 1.92844e-13 0 0 0 0)
(1.73712e-07 7.35852e-06 0 2.08165e-07 -4.97411e-08 0 0 0 0)
(-1.98539e-07 -9.11612e-06 0 -3.51405e-08 1.80486e-08 0 0 0 0)
(3.99816e-08 2.17384e-06 0 1.55407e-08 -4.68631e-09 0 0 0 0)
(-1.77901e-08 -5.15417e-07 0 -2.47675e-09 1.38852e-09 0 0 0 0)
(3.57201e-09 1.22777e-07 0 8.64597e-10 -4.18378e-10 0 0 0 0)
(-1.22515e-09 -2.91967e-08 0 -2.18385e-10 1.07136e-10 0 0 0 0)
(3.41903e-10 6.93401e-09 0 4.62141e-11 -3.54274e-11 0 0 0 0)
(-8.38901e-11 -1.65307e-09 0 -1.5233e-11 6.71643e-12 0 0 0 0)
(2.83519e-11 3.92035e-10 0 2.98156e-12 -4.38013e-12 0 0 0 0)
(-5.47522e-12 -9.3976e-11 0 -1.27394e-12 -9.49379e-13 0 0 0 0)
(3.1984e-12 2.18252e-11 0 -1.35525e-13 -1.61423e-12 0 0 0 0)
(4.87891e-13 -5.63399e-12 0 -4.33681e-13 -1.18904e-12 0 0 0 0)
(1.02999e-12 9.37832e-13 0 -2.71051e-13 -1.0765e-12 0 0 0 0)
(7.58942e-13 -6.05381e-13 0 -2.71051e-13 -8.91437e-13 0 0 0 0)
(6.23416e-13 -1.61733e-13 0 -2.1684e-13 -7.5609e-13 0 0 0 0)
(4.87891e-13 -9.67821e-14 0 -2.43945e-13 -6.59602e-13 0 0 0 0)
(5.14996e-13 1.14443e-13 0 -1.89735e-13 -6.30476e-13 0 0 0 0)
(7.04731e-13 -2.20686e-13 0 -8.13152e-14 -5.87673e-13 0 0 0 0)
(1.0842e-13 -8.20431e-13 0 1.0842e-13 -1.99864e-13 0 0 0 0)
(-2.71051e-13 3.04806e-15 0 8.13152e-14 2.65103e-13 0 0 0 0)
(-7.86157e-08 -7.36942e-06 0 -1.1146e-07 2.15182e-08 0 0 0 0)
(9.39127e-08 9.13453e-06 0 1.63632e-08 -1.06202e-08 0 0 0 0)
(-2.43476e-08 -2.18335e-06 0 -6.83321e-09 3.11278e-09 0 0 0 0)
(1.1158e-08 5.18177e-07 0 7.29207e-10 -1.10852e-09 0 0 0 0)
(-2.89452e-09 -1.23772e-07 0 -2.0112e-10 3.52085e-10 0 0 0 0)
(1.00801e-09 2.95174e-08 0 5.17435e-11 -1.13882e-10 0 0 0 0)
(-2.99619e-10 -7.03456e-09 0 1.5992e-11 3.13313e-11 0 0 0 0)
(9.01514e-11 1.68361e-09 0 9.40545e-12 -1.33302e-11 0 0 0 0)
(-2.55601e-11 -4.02479e-10 0 9.75782e-12 7.94473e-13 0 0 0 0)
(9.32414e-12 9.60894e-11 0 6.61363e-12 -2.88603e-12 0 0 0 0)
(-1.0842e-12 -2.32931e-11 0 5.9089e-12 -1.319e-12 0 0 0 0)
(1.84314e-12 5.42203e-12 0 4.52654e-12 -1.41817e-12 0 0 0 0)
(7.86047e-13 -1.46019e-12 0 3.60497e-12 -1.10704e-12 0 0 0 0)
(9.48677e-13 1.97632e-13 0 2.6563e-12 -8.95806e-13 0 0 0 0)
(5.96311e-13 -1.66868e-13 0 1.95156e-12 -6.99294e-13 0 0 0 0)
(4.87891e-13 1.68856e-14 0 1.40946e-12 -5.67206e-13 0 0 0 0)
(5.96311e-13 1.03444e-13 0 9.75782e-13 -6.19398e-13 0 0 0 0)
(8.67362e-13 -2.44607e-14 0 2.71051e-13 -7.85092e-13 0 0 0 0)
(2.43945e-13 -3.18957e-13 0 -5.42101e-13 -3.74251e-13 0 0 0 0)
(-4.06576e-13 -2.30037e-14 0 -1.6263e-13 3.54295e-13 0 0 0 0)
)
;

boundaryField
{
    movingWall
    {
        type            extrapolatedCalculated;
        value           nonuniform List<tensor> 
20
(
(-7.86157e-08 -7.36942e-06 0 4.24728e-07 3.8736e-05 0 0 0 0)
(9.39127e-08 9.13453e-06 0 -1.10265e-07 -9.25834e-06 0 0 0 0)
(-2.43476e-08 -2.18335e-06 0 4.9077e-08 2.19792e-06 0 0 0 0)
(1.1158e-08 5.18177e-07 0 -1.28742e-08 -5.24935e-07 0 0 0 0)
(-2.89452e-09 -1.23772e-07 0 4.44489e-09 1.2521e-07 0 0 0 0)
(1.00801e-09 2.95174e-08 0 -1.29607e-09 -2.98483e-08 0 0 0 0)
(-2.99619e-10 -7.03456e-09 0 4.12825e-10 7.14077e-09 0 0 0 0)
(9.01514e-11 1.68361e-09 0 -9.7744e-11 -1.71007e-09 0 0 0 0)
(-2.55601e-11 -4.02479e-10 0 5.23137e-11 4.06324e-10 0 0 0 0)
(9.32414e-12 9.60894e-11 0 4.44089e-12 -1.00152e-10 0 0 0 0)
(-1.0842e-12 -2.32931e-11 0 1.5099e-11 2.19659e-11 0 0 0 0)
(1.84314e-12 5.42203e-12 0 8.79297e-12 -6.97988e-12 0 0 0 0)
(7.86047e-13 -1.46019e-12 0 7.72715e-12 2.77788e-13 0 0 0 0)
(9.48677e-13 1.97632e-13 0 5.59552e-12 -1.1391e-12 0 0 0 0)
(5.96311e-13 -1.66868e-13 0 4.08562e-12 -5.12741e-13 0 0 0 0)
(4.87891e-13 1.68856e-14 0 3.01981e-12 -4.71626e-13 0 0 0 0)
(5.96311e-13 1.03444e-13 0 2.22045e-12 -5.80284e-13 0 0 0 0)
(8.67362e-13 -2.44607e-14 0 6.21725e-13 -8.854e-13 0 0 0 0)
(2.43945e-13 -3.18957e-13 0 -1.19904e-12 -4.82441e-13 0 0 0 0)
(-4.06576e-13 -2.30037e-14 0 -4.44089e-13 3.90426e-13 0 0 0 0)
)
;
    }
    fixedWalls
    {
        type            extrapolatedCalculated;
        value           nonuniform List<tensor> 
60
(
(6.66602e-08 3.63097e-05 0 -8.28035e-08 1.30151e-09 0 0 0 0)
(-3.97874e-07 -3.63045e-05 0 1.53289e-07 -5.09462e-09 0 0 0 0)
(6.79816e-07 3.62893e-05 0 -1.65311e-07 2.97581e-09 0 0 0 0)
(-1.05912e-06 -3.62926e-05 0 1.89423e-07 6.63655e-09 0 0 0 0)
(1.43751e-06 3.63159e-05 0 -1.8669e-07 -1.93444e-08 0 0 0 0)
(-1.80588e-06 -3.637e-05 0 1.75935e-07 3.47342e-08 0 0 0 0)
(2.14125e-06 3.64548e-05 0 -1.51511e-07 -5.07193e-08 0 0 0 0)
(-2.41192e-06 -3.65729e-05 0 1.22504e-07 6.67031e-08 0 0 0 0)
(2.63126e-06 3.67216e-05 0 -8.65274e-08 -8.15616e-08 0 0 0 0)
(-2.75803e-06 -3.68991e-05 0 4.88618e-08 9.443e-08 0 0 0 0)
(2.82671e-06 3.70994e-05 0 -8.9399e-09 -1.04708e-07 0 0 0 0)
(-2.79379e-06 -3.73179e-05 0 -3.04961e-08 1.11469e-07 0 0 0 0)
(2.70472e-06 3.75452e-05 0 6.82889e-08 -1.14502e-07 0 0 0 0)
(-2.52064e-06 -3.7776e-05 0 -1.03873e-07 1.13097e-07 0 0 0 0)
(2.28923e-06 3.79976e-05 0 1.34414e-07 -1.0736e-07 0 0 0 0)
(-1.98298e-06 -3.82054e-05 0 -1.61858e-07 9.72184e-08 0 0 0 0)
(1.6418e-06 3.83865e-05 0 1.81398e-07 -8.29162e-08 0 0 0 0)
(-1.25739e-06 -3.85371e-05 0 -1.92808e-07 6.58637e-08 0 0 0 0)
(8.70566e-07 3.865e-05 0 2.08165e-07 -4.97411e-08 0 0 0 0)
(-4.24728e-07 -3.8736e-05 0 -1.1146e-07 2.15182e-08 0 0 0 0)
(1.77636e-13 1.482e-13 0 -8.13152e-14 -1.33116e-13 0 0 0 0)
(8.88178e-14 3.84266e-13 0 2.71051e-14 -1.20655e-13 0 0 0 0)
(8.88178e-14 6.30818e-13 0 0 -1.28643e-13 0 0 0 0)
(8.88178e-14 8.9884e-13 0 0 -1.22769e-13 0 0 0 0)
(0 1.12189e-12 0 5.42101e-14 -1.19877e-13 0 0 0 0)
(0 1.37835e-12 0 0 -1.34774e-13 0 0 0 0)
(8.88178e-14 1.66099e-12 0 -5.42101e-14 -1.34243e-13 0 0 0 0)
(0 1.91532e-12 0 5.42101e-14 -1.17559e-13 0 0 0 0)
(-4.44089e-14 2.13123e-12 0 2.71051e-14 -9.41668e-14 0 0 0 0)
(-4.44089e-14 2.29199e-12 0 0 -7.03222e-14 0 0 0 0)
(0 2.41252e-12 0 -2.71051e-14 -5.14708e-14 0 0 0 0)
(0 2.49787e-12 0 0 -3.31981e-14 0 0 0 0)
(0 2.54531e-12 0 2.71051e-14 -1.3963e-15 0 0 0 0)
(-4.44089e-14 2.50345e-12 0 0 5.28302e-14 0 0 0 0)
(-8.88178e-14 2.33399e-12 0 2.71051e-14 1.01642e-13 0 0 0 0)
(-1.33227e-13 2.09689e-12 0 2.71051e-14 1.33964e-13 0 0 0 0)
(-2.22045e-13 1.79813e-12 0 2.71051e-14 1.61513e-13 0 0 0 0)
(-1.77636e-13 1.45084e-12 0 -2.71051e-14 1.92844e-13 0 0 0 0)
(-1.77636e-13 1.02676e-12 0 8.13152e-14 2.65103e-13 0 0 0 0)
(-4.44089e-13 3.90426e-13 0 -1.6263e-13 3.54295e-13 0 0 0 0)
(1.89501e-08 6.92932e-06 0 6.66602e-08 3.63097e-05 0 0 0 0)
(-1.76087e-08 -8.5676e-06 0 9.14002e-09 -8.59246e-06 0 0 0 0)
(-1.29348e-09 2.02746e-06 0 -3.77467e-09 2.03933e-06 0 0 0 0)
(7.43736e-10 -4.81217e-07 0 3.96616e-09 -4.82602e-07 0 0 0 0)
(-8.33074e-10 1.1389e-07 0 -7.99716e-10 1.14458e-07 0 0 0 0)
(2.01174e-10 -2.70036e-08 0 6.33849e-10 -2.70407e-08 0 0 0 0)
(-1.24168e-10 6.38558e-09 0 4.92939e-12 6.44387e-09 0 0 0 0)
(1.1601e-11 -1.51822e-09 0 1.37179e-10 -1.49835e-09 0 0 0 0)
(-2.18738e-11 3.55374e-10 0 5.13811e-11 3.70966e-10 0 0 0 0)
(-4.96022e-12 -8.63578e-11 0 4.96492e-11 -7.68534e-11 0 0 0 0)
(-6.4239e-12 1.90161e-11 0 3.15303e-11 2.55351e-11 0 0 0 0)