/*--------------------------------*- C++ -*----------------------------------*\
| =========                 |                                                 |
| \\      /  F ield         | OpenFOAM: The Open Source CFD Toolbox           |
|  \\    /   O peration     | Version:  2312                                  |
|   \\  /    A nd           | Website:  www.openfoam.com                      |
|    \\/     M anipulation  |                                                 |
\*---------------------------------------------------------------------------*/
FoamFile
{
    version     2.0;
    format      ascii;
    arch        "LSB;label=32;scalar=64";
    class       volScalarField;
    location    "3.875";
    object      Lambda2Field;
}
// * * * * * * * * * * * * * * * * * * * * * * * * * * * * * * * * * * * * * //

dimensions      [0 0 -2 0 0 0 0];

internalField   nonuniform List<scalar> 
400
(
0
-2.09475e-13
0
-1.58696e-15
0
-1.1347e-17
0
-1.11016e-19
7.77022e-21
-2.0376e-21
3.14142e-22
-4.74193e-23
1.43992e-23
1.1272e-24
1.88822e-24
9.93852e-25
1.13473e-24
7.9928e-25
1.55391e-25
2.54106e-26
0
-3.38417e-13
0
-2.20847e-15
0
-1.33474e-17
0
-7.80067e-20
0
-5.51413e-22
6.85579e-23
3.99725e-24
9.3367e-24
4.09914e-24
2.36368e-24
1.35476e-24
9.78846e-25
8.23603e-25
1.11035e-25
0
0
-2.83786e-13
0
-1.34814e-15
0
-6.32806e-18
0
-1.03282e-20
0
3.02598e-22
0
2.1357e-23
4.46274e-24
4.1338e-24
1.99031e-24
1.18493e-24
8.03399e-25
7.34018e-25
5.95094e-26
1.65491e-26
0
-2.83336e-13
0
-1.24573e-15
0
-6.98912e-18
0
-4.19257e-20
1.62778e-21
-4.64722e-22
9.14117e-23
-1.80318e-24
7.58321e-24
2.5875e-24
1.76329e-24
9.71322e-25
6.18029e-25
6.02956e-25
0
6.61216e-27
0
-2.2287e-13
0
-7.38946e-16
0
-3.384e-18
0
-1.39513e-22
0
1.83228e-22
0
1.58845e-23
2.13814e-24
2.82467e-24
1.3626e-24
7.5109e-25
4.17708e-25
4.35476e-25
8.36471e-26
-1.63637e-26
0
-1.36813e-13
0
-8.44339e-17
0
0
1.31022e-19
0
3.2499e-21
0
6.82816e-23
-1.47853e-24
4.82488e-24
1.60577e-24
1.08948e-24
5.17514e-25
2.444e-25
2.9188e-25
1.30728e-25
6.61216e-27
0
-2.11994e-14
0
0
0
0
4.70142e-19
0
4.29815e-21
3.41237e-23
1.57201e-23
9.23656e-24
1.0374e-24
1.88649e-24
9.85236e-25
4.45555e-25
1.3809e-25
2.29471e-25
0
5.44042e-26
0
0
0
0
2.27814e-17
0
7.43005e-19
0
6.29268e-21
0
5.31448e-23
0
2.24187e-24
9.94611e-25
7.29347e-25
2.4924e-25
7.28917e-26
7.11704e-26
0
-2.03368e-26
0
0
1.17333e-16
0
7.21051e-17
0
1.0881e-18
0
8.59716e-21
0
5.8703e-23
4.06075e-24
5.42402e-25
9.11956e-25
6.3537e-25
2.27276e-25
3.39775e-26
1.37609e-25
1.83671e-26
-6.61828e-27
0
0
8.24044e-15
0
1.08666e-16
0
1.25802e-18
0
9.06269e-21
0
5.38238e-23
0
9.64237e-25
6.02647e-25
4.16406e-25
2.25952e-25
2.71678e-26
8.28631e-26
0
2.93874e-27
2.51669e-13
0
1.63395e-14
4.38358e-17
1.45917e-16
2.61123e-19
1.4624e-18
1.62467e-21
1.0559e-20
2.88998e-23
7.25238e-23
2.62987e-24
4.34769e-25
4.09704e-25
4.93256e-25
1.86675e-25
4.67473e-26
-3.25297e-26
0
1.33731e-26
5.25831e-13
6.94817e-14
2.30515e-14
3.96166e-16
1.69294e-16
2.27179e-18
1.50044e-18
1.20052e-20
1.01324e-20
5.42976e-23
5.49295e-23
7.63614e-26
5.10986e-25
4.82461e-25
2.73063e-25
1.29377e-25
5.33953e-26
1.89147e-25
0
7.34684e-28
7.7871e-13
1.36036e-13
2.90041e-14
7.25586e-16
1.88841e-16
4.07615e-18
1.5232e-18
2.03919e-20
1.01401e-20
1.1815e-22
6.55812e-23
2.64732e-24
4.5829e-25
4.29407e-25
4.17581e-25
1.37432e-25
7.37203e-26
8.88968e-26
0
-5.62547e-27
1.00043e-12
1.98518e-13
3.35866e-14
1.03088e-15
1.98025e-16
5.74436e-18
1.44719e-18
2.73512e-20
9.19497e-21
1.01467e-22
4.90391e-23
4.95599e-25
3.91922e-25
4.68207e-25
4.05713e-25
1.24162e-25
4.60311e-26
9.19601e-26
0
2.79103e-27
1.18168e-12
2.51824e-13
3.70077e-14
1.29138e-15
2.01301e-16
7.25134e-18
1.33174e-18
3.61832e-20
8.08594e-21
1.89096e-22
5.19211e-23
2.55293e-24
6.93563e-25
3.90212e-25
3.92469e-25
1.68562e-25
1.65304e-25
7.40758e-26
0
8.41276e-27
1.33484e-12
2.99895e-13
3.95301e-14
1.52361e-15
2.00213e-16
8.46218e-18
1.19979e-18
3.95343e-20
7.06586e-21
1.36844e-22
3.88482e-23
6.6235e-25
5.81947e-25
6.55467e-25
3.51179e-25
1.49701e-25
1.79693e-25
2.32373e-25
0
1.72308e-26
1.43371e-12
3.33553e-13
4.07398e-14
1.68837e-15
1.92813e-16
9.37569e-18
1.03213e-18
4.55672e-20
5.62291e-21
2.35931e-22
3.37494e-23
1.84288e-24
1.06914e-24
6.09992e-25
4.46262e-25
7.78541e-26
2.18061e-25
2.82107e-25
0
2.6754e-26
1.4781e-12
3.49399e-13
4.08501e-14
1.82183e-15
1.85014e-16
1.02746e-17
9.3085e-19
4.85246e-20
5.02262e-21
2.04473e-22
2.32859e-23
1.54941e-24
6.97403e-25
6.39647e-25
4.42682e-25
1.93973e-25
1.67012e-25
2.4425e-25
0
3.60441e-26
1.56196e-12
3.20671e-13
3.53814e-14
1.27849e-15
1.18912e-16
6.3876e-18
4.37347e-19
2.52265e-20
1.9727e-21
1.20621e-22
7.27187e-24
2.68139e-24
8.06684e-25
7.40081e-25
4.23718e-25
2.61647e-25
2.43507e-25
3.63305e-25
0
7.05272e-26
8.27574e-13
1.49583e-13
1.55121e-14
3.79087e-16
3.32711e-17
1.54031e-18
0
1.60128e-20
0
6.43829e-22
0
2.65543e-23
0
1.32744e-24
2.9934e-26
2.61837e-25
4.56526e-25
6.0974e-25
2.32416e-25
1.29266e-25
)
;

boundaryField
{
    movingWall
    {
        type            calculated;
        value           nonuniform List<scalar> 
20
(
0
0
0
0
0
0
0
0
0
5.13662e-22
0
5.10729e-23
0
2.00584e-24
0
2.73422e-25
5.85278e-25
7.37109e-25
4.41951e-25
1.62648e-25
)
;
    }
    fixedWalls
    {
        type            calculated;
        value           nonuniform List<scalar> 
60
(
0
-5.40678e-12
0
-5.75293e-12
0
-3.13754e-12
0
0
3.74611e-12
0
7.65862e-12
1.15048e-12
9.87946e-12
3.93669e-12
1.0348e-11
6.19331e-12
9.65876e-12
7.43461e-12
8.80345e-12
4.31797e-12
1.88384e-26
1.83042e-26
7.88861e-27
7.88861e-27
6.0818e-26
0
0
1.0383e-25
5.97392e-26
1.97215e-27
0
0
6.89908e-26
1.97215e-27
7.11515e-26
7.45856e-26
9.80423e-26
-2.13609e-27
1.15045e-25
6.203e-26
4.62269e-13
0
0
0
0
0
4.68948e-20
0
1.8738e-20
0
6.4085e-22
-1.15461e-22
2.04087e-23
-2.48413e-24
1.15725e-24
5.41346e-25
9.50817e-25
6.24846e-25
2.21879e-25
3.51675e-26
)
;
    }
    frontAndBack
    {
        type            empty;
    }
}


// ************************************************************************* //
