/*--------------------------------*- C++ -*----------------------------------*\
| =========                 |                                                 |
| \\      /  F ield         | OpenFOAM: The Open Source CFD Toolbox           |
|  \\    /   O peration     | Version:  2312                                  |
|   \\  /    A nd           | Website:  www.openfoam.com                      |
|    \\/     M anipulation  |                                                 |
\*---------------------------------------------------------------------------*/
FoamFile
{
    version     2.0;
    format      ascii;
    arch        "LSB;label=32;scalar=64";
    class       volVectorField;
    location    "3.875";
    object      LambVectorField;
}
// * * * * * * * * * * * * * * * * * * * * * * * * * * * * * * * * * * * * * //

dimensions      [0 1 -2 0 0 0 0];

internalField   nonuniform List<vector> 
400
(
(-6.3652e-13 -7.01212e-06 -7.01212e-06)
(-1.84568e-13 8.59208e-06 -0)
(-1.03881e-14 -2.03756e-06 -2.03756e-06)
(-5.84572e-16 4.84516e-07 -0)
(-3.28417e-17 -1.14772e-07 -1.14772e-07)
(-1.854e-18 2.74253e-08 -0)
(-1.03451e-19 -6.42168e-09 -6.42168e-09)
(-5.96132e-21 1.59144e-09 -0)
(-3.10551e-22 -3.34856e-10 -3.34856e-10)
(-2.12324e-23 1.10508e-10 -0)
(-2.77838e-25 -4.35225e-12 -4.35225e-12)
(-3.32702e-26 1.68656e-11 -0)
(7.44474e-26 7.36581e-12 7.36581e-12)
(3.11819e-26 6.40117e-12 0)
(1.82649e-26 4.17837e-12 4.17837e-12)
(9.35196e-27 2.9197e-12 0)
(5.01218e-27 1.77647e-12 1.77647e-12)
(1.73631e-27 7.73931e-13 0)
(9.43292e-29 7.16635e-14 7.16635e-14)
(-4.91389e-30 1.32629e-14 -0)
(-6.42857e-13 7.08294e-06 7.08294e-06)
(-1.84775e-13 -8.60831e-06 0)
(-1.03825e-14 2.04274e-06 2.04274e-06)
(-5.83155e-16 -4.84688e-07 0)
(-3.25777e-17 1.15e-07 1.15e-07)
(-1.84056e-18 -2.72825e-08 0)
(-1.00991e-19 6.47332e-09 6.47332e-09)
(-5.91374e-21 -1.53485e-09 0)
(-2.89211e-22 3.64659e-10 3.64659e-10)
(-2.2493e-23 -8.60436e-11 0)
(-1.7805e-25 2.08032e-11 2.08032e-11)
(-1.80175e-25 -4.52376e-12 0)
(2.62288e-26 1.39593e-12 1.39593e-12)
(-8.28147e-28 -4.97277e-14 0)
(3.96354e-27 3.31167e-13 3.31167e-13)
(9.60099e-28 1.03501e-13 0)
(3.52228e-28 4.4295e-14 4.4295e-14)
(2.73786e-27 3.7989e-13 0)
(2.85134e-27 7.89659e-13 7.89659e-13)
(-2.80633e-28 2.92123e-13 -0)
(-6.43668e-13 -7.09484e-06 -7.09484e-06)
(-1.84284e-13 8.60011e-06 -0)
(-1.03565e-14 -2.03812e-06 -2.03812e-06)
(-5.78947e-16 4.82945e-07 -0)
(-3.25422e-17 -1.14429e-07 -1.14429e-07)
(-1.80795e-18 2.7112e-08 -0)
(-1.0334e-19 -6.4226e-09 -6.4226e-09)
(-5.42935e-21 1.52205e-09 -0)
(-3.59268e-22 -3.59964e-10 -3.59964e-10)
(-1.0791e-23 8.57822e-11 -0)
(-2.14718e-24 -1.98831e-11 -1.98831e-11)
(1.66333e-25 5.13723e-12 0)
(-2.5554e-26 -7.09477e-13 -7.09477e-13)
(1.94711e-26 7.92637e-13 0)
(8.20652e-27 4.28603e-13 4.28603e-13)
(4.49636e-27 3.08246e-13 0)
(1.33226e-27 1.06233e-13 1.06233e-13)
(6.07731e-27 5.35154e-13 0)
(7.54554e-27 1.29332e-12 1.29332e-12)
(-6.71376e-28 4.25717e-13 -0)
(-6.46136e-13 7.12141e-06 7.12141e-06)
(-1.84259e-13 -8.60553e-06 0)
(-1.03446e-14 2.03855e-06 2.03855e-06)
(-5.78369e-16 -4.82842e-07 0)
(-3.23133e-17 1.14358e-07 1.14358e-07)
(-1.82006e-18 -2.70822e-08 0)
(-9.94825e-20 6.414e-09 6.414e-09)
(-5.91453e-21 -1.51809e-09 0)
(-2.68758e-22 3.60201e-10 3.60201e-10)
(-2.54064e-23 -8.44662e-11 0)
(4.69645e-25 2.07486e-11 2.07486e-11)
(-2.79144e-25 -4.26929e-12 0)
(6.71351e-26 1.70797e-12 1.70797e-12)
(1.12996e-26 3.43927e-13 0)
(1.62095e-26 6.62055e-13 6.62055e-13)
(6.4792e-27 3.3769e-13 0)
(2.06212e-27 1.24985e-13 1.24985e-13)
(1.15421e-26 7.58027e-13 0)
(1.3421e-26 1.77446e-12 1.77446e-12)
(-1.19462e-27 5.31629e-13 -0)
(-6.4675e-13 -7.12361e-06 -7.12361e-06)
(-1.84424e-13 8.60967e-06 -0)
(-1.03536e-14 -2.0391e-06 -2.0391e-06)
(-5.78169e-16 4.82865e-07 -0)
(-3.24031e-17 -1.14335e-07 -1.14335e-07)
(-1.8044e-18 2.70723e-08 -0)
(-1.02358e-19 -6.40877e-09 -6.40877e-09)
(-5.40692e-21 1.51808e-09 -0)
(-3.59399e-22 -3.58519e-10 -3.58519e-10)
(-9.32188e-24 8.57037e-11 -0)
(-2.41538e-24 -1.93931e-11 -1.93931e-11)
(2.6011e-25 5.38532e-12 0)
(-2.41501e-26 -4.82085e-13 -4.82085e-13)
(3.95895e-26 1.09015e-12 0)
(1.74605e-26 6.10025e-13 6.10025e-13)
(7.91736e-27 3.54169e-13 0)
(1.04854e-27 5.33341e-14 5.33341e-14)
(1.66385e-26 9.09316e-13 0)
(1.91888e-26 2.08315e-12 2.08315e-12)
(-1.94895e-27 6.9488e-13 -0)
(-6.47651e-13 7.12291e-06 7.12291e-06)
(-1.84934e-13 -8.61953e-06 0)
(-1.03804e-14 2.0413e-06 2.0413e-06)
(-5.79999e-16 -4.83351e-07 0)
(-3.24408e-17 1.14446e-07 1.14446e-07)
(-1.8213e-18 -2.70952e-08 0)
(-1.00361e-19 6.41559e-09 6.41559e-09)
(-5.87488e-21 -1.51788e-09 0)
(-2.75734e-22 3.60275e-10 3.60275e-10)
(-2.53298e-23 -8.429e-11 0)
(5.61669e-25 2.09024e-11 2.09024e-11)
(-2.98756e-25 -4.1048e-12 0)
(8.95579e-26 1.89263e-12 1.89263e-12)
(2.68754e-26 6.6683e-13 0)
(2.94868e-26 9.5448e-13 9.5448e-13)
(1.18268e-26 4.82247e-13 0)
(1.89863e-27 8.73581e-14 8.73581e-14)
(2.02888e-26 9.81596e-13 0)
(2.42602e-26 2.3573e-12 2.3573e-12)
(-2.35893e-27 6.84569e-13 -0)
(-6.48303e-13 -7.11349e-06 -7.11349e-06)
(-1.85774e-13 8.63369e-06 -0)
(-1.04285e-14 -2.04476e-06 -2.04476e-06)
(-5.82993e-16 4.84201e-07 -0)
(-3.26621e-17 -1.14652e-07 -1.14652e-07)
(-1.82472e-18 2.7148e-08 -0)
(-1.02925e-19 -6.42664e-09 -6.42664e-09)
(-5.54338e-21 1.52259e-09 -0)
(-3.54732e-22 -3.59467e-10 -3.59467e-10)
(-1.05777e-23 8.61423e-11 -0)
(-2.36184e-24 -1.94214e-11 -1.94214e-11)
(2.6988e-25 5.54711e-12 0)
(-1.33453e-26 -2.52477e-13 -2.52477e-13)
(4.47426e-26 1.12438e-12 0)
(2.24277e-26 6.92256e-13 6.92256e-13)
(1.17725e-26 4.5589e-13 0)
(2.12711e-27 9.15626e-14 9.15626e-14)
(2.44434e-26 1.1012e-12 0)
(2.92149e-26 2.68916e-12 2.68916e-12)
(-2.56182e-27 6.16938e-13 -0)
(-6.49672e-13 7.10551e-06 7.10551e-06)
(-1.86963e-13 -8.65484e-06 0)
(-1.04973e-14 2.05004e-06 2.05004e-06)
(-5.87431e-16 -4.85515e-07 0)
(-3.29068e-17 1.14983e-07 1.14983e-07)
(-1.84693e-18 -2.72287e-08 0)
(-1.02533e-19 6.4491e-09 6.4491e-09)
(-5.92138e-21 -1.52602e-09 0)
(-2.92097e-22 3.62475e-10 3.62475e-10)
(-2.45031e-23 -8.47434e-11 0)
(3.75665e-25 2.11746e-11 2.11746e-11)
(-2.75062e-25 -3.95552e-12 0)
(9.85114e-26 2.13304e-12 2.13304e-12)
(3.01622e-26 7.42567e-13 0)
(3.10016e-26 9.69361e-13 9.69361e-13)
(1.38678e-26 5.3243e-13 0)
(1.0664e-27 4.5042e-14 4.5042e-14)
(2.78906e-26 1.20444e-12 0)
(3.12889e-26 2.82158e-12 2.82158e-12)
(-3.2766e-27 6.84295e-13 -0)
(-6.51432e-13 -7.0959e-06 -7.0959e-06)
(-1.88485e-13 8.68179e-06 -0)
(-1.0586e-14 -2.05683e-06 -2.05683e-06)
(-5.93063e-16 4.8723e-07 -0)
(-3.32686e-17 -1.15412e-07 -1.15412e-07)
(-1.8636e-18 2.73394e-08 -0)
(-1.05019e-19 -6.47455e-09 -6.47455e-09)
(-5.73832e-21 1.53475e-09 -0)
(-3.55624e-22 -3.62361e-10 -3.62361e-10)
(-1.24675e-23 8.70435e-11 -0)
(-2.18918e-24 -1.93955e-11 -1.93955e-11)
(2.43294e-25 5.74899e-12 0)
(-1.21929e-26 -2.45388e-13 -2.45388e-13)
(5.10546e-26 1.34364e-12 0)
(2.66914e-26 8.50774e-13 8.50774e-13)
(1.27038e-26 4.99686e-13 0)
(9.8868e-28 4.1777e-14 4.1777e-14)
(2.69805e-26 1.15402e-12 0)
(3.16969e-26 2.87076e-12 2.87076e-12)
(-3.18845e-27 5.98426e-13 -0)
(-6.5403e-13 7.08993e-06 7.08993e-06)
(-1.90317e-13 -8.7153e-06 0)
(-1.06928e-14 2.06528e-06 2.06528e-06)
(-5.99828e-16 -4.89355e-07 0)
(-3.3667e-17 1.15951e-07 1.15951e-07)
(-1.89221e-18 -2.74724e-08 0)
(-1.05611e-19 6.51069e-09 6.51069e-09)
(-6.06393e-21 -1.54143e-09 0)
(-3.09668e-22 3.66435e-10 3.66435e-10)
(-2.40447e-23 -8.56505e-11 0)
(1.28549e-25 2.14212e-11 2.14212e-11)
(-2.52272e-25 -4.02193e-12 0)
(8.90407e-26 2.15379e-12 2.15379e-12)
(3.03044e-26 8.10464e-13 0)
(3.05848e-26 1.02934e-12 1.02934e-12)
(9.5945e-27 3.89094e-13 0)
(9.99673e-28 4.3254e-14 4.3254e-14)
(2.73579e-26 1.19619e-12 0)
(3.14887e-26 2.9685e-12 2.9685e-12)
(-2.79489e-27 4.87768e-13 -0)
(-6.57199e-13 -7.08583e-06 -7.08583e-06)
(-1.92404e-13 8.75378e-06 -0)
(-1.08143e-14 -2.07498e-06 -2.07498e-06)
(-6.07453e-16 4.91802e-07 -0)
(-3.41434e-17 -1.16564e-07 -1.16564e-07)
(-1.91681e-18 2.76294e-08 -0)
(-1.0825e-19 -6.54758e-09 -6.54758e-09)
(-5.96134e-21 1.55326e-09 -0)
(-3.6328e-22 -3.66885e-10 -3.66885e-10)
(-1.41952e-23 8.8188e-11 -0)
(-2.07024e-24 -1.97088e-11 -1.97088e-11)
(1.97906e-25 5.7369e-12 0)
(-8.02855e-27 -1.81854e-13 -1.81854e-13)
(4.74509e-26 1.41202e-12 0)
(2.25684e-26 8.02266e-13 8.02266e-13)
(1.01505e-26 4.38603e-13 0)
(-2.05476e-28 -9.28978e-15 -9.28978e-15)
(2.80725e-26 1.26729e-12 0)
(2.89604e-26 2.89961e-12 2.89961e-12)
(-2.22274e-27 3.68534e-13 -0)
(-6.61054e-13 7.08564e-06 7.08564e-06)
(-1.94705e-13 -8.79685e-06 0)
(-1.09477e-14 2.08583e-06 2.08583e-06)
(-6.15891e-16 -4.94528e-07 0)
(-3.4634e-17 1.17252e-07 1.17252e-07)
(-1.95089e-18 -2.77997e-08 0)
(-1.09281e-19 6.59291e-09 6.59291e-09)
(-6.27203e-21 -1.56209e-09 0)
(-3.26559e-22 3.71633e-10 3.71633e-10)
(-2.40915e-23 -8.68431e-11 0)
(-9.39753e-26 2.17584e-11 2.17584e-11)
(-2.26814e-25 -4.06728e-12 0)
(7.38179e-26 2.10917e-12 2.10917e-12)
(2.28795e-26 7.03871e-13 0)
(2.48416e-26 9.63174e-13 9.63174e-13)
(8.76319e-27 4.07244e-13 0)
(-1.82581e-27 -8.84822e-14 -8.84822e-14)
(2.14227e-26 1.01781e-12 0)
(2.60879e-26 2.78346e-12 2.78346e-12)
(-1.9532e-27 3.12779e-13 -0)
(-6.65382e-13 -7.08885e-06 -7.08885e-06)
(-1.97112e-13 8.8424e-06 -0)
(-1.10875e-14 -2.09727e-06 -2.09727e-06)
(-6.2452e-16 4.97402e-07 -0)
(-3.51736e-17 -1.1797e-07 -1.1797e-07)
(-1.97835e-18 2.79825e-08 -0)
(-1.12075e-19 -6.636e-09 -6.636e-09)
(-6.19787e-21 1.57546e-09 -0)
(-3.74879e-22 -3.72502e-10 -3.72502e-10)
(-1.57179e-23 8.94843e-11 -0)
(-1.98559e-24 -2.01529e-11 -2.01529e-11)
(1.52576e-25 5.71622e-12 0)
(-1.52673e-26 -4.03468e-13 -4.03468e-13)
(3.40072e-26 1.20222e-12 0)
(1.80542e-26 7.54749e-13 7.54749e-13)
(9.09049e-27 4.62495e-13 0)
(-3.38893e-28 -1.78133e-14 -1.78133e-14)
(2.07074e-26 1.05853e-12 0)
(2.21085e-26 2.61967e-12 2.61967e-12)
(-1.49359e-27 2.3472e-13 -0)
(-6.70044e-13 7.09493e-06 7.09493e-06)
(-1.99583e-13 -8.88936e-06 0)
(-1.12299e-14 2.10907e-06 2.10907e-06)
(-6.33514e-16 -5.00356e-07 0)
(-3.5685e-17 1.18712e-07 1.18712e-07)
(-2.01434e-18 -2.81653e-08 0)
(-1.1316e-19 6.68424e-09 6.68424e-09)
(-6.49894e-21 -1.585e-09 0)
(-3.43049e-22 3.77323e-10 3.77323e-10)
(-2.43618e-23 -8.84106e-11 0)
(-3.074e-25 2.20416e-11 2.20416e-11)
(-2.07804e-25 -4.27304e-12 0)
(5.72155e-26 2.0259e-12 2.0259e-12)
(1.77038e-26 6.61924e-13 0)
(1.81135e-26 8.70443e-13 8.70443e-13)
(6.23686e-27 3.56404e-13 0)
(-1.2494e-27 -7.24475e-14 -7.24475e-14)
(1.80909e-26 1.02314e-12 0)
(1.89092e-26 2.50246e-12 2.50246e-12)
(-8.12126e-28 1.29761e-13 -0)
(-6.74906e-13 -7.10472e-06 -7.10472e-06)
(-2.01963e-13 8.93532e-06 -0)
(-1.13681e-14 -2.12055e-06 -2.12055e-06)
(-6.4187e-16 5.03224e-07 -0)
(-3.62104e-17 -1.19425e-07 -1.19425e-07)
(-2.03997e-18 2.83454e-08 -0)
(-1.15841e-19 -6.72688e-09 -6.72688e-09)
(-6.42975e-21 1.59771e-09 -0)
(-3.86089e-22 -3.78367e-10 -3.78367e-10)
(-1.72392e-23 9.08654e-11 -0)
(-1.87599e-24 -2.05193e-11 -2.05193e-11)
(1.05108e-25 5.78115e-12 0)
(-1.30563e-26 -4.26223e-13 -4.26223e-13)
(2.55647e-26 1.16727e-12 0)
(1.15323e-26 6.26149e-13 6.26149e-13)
(2.90013e-27 1.92091e-13 0)
(-1.00471e-27 -6.63542e-14 -6.63542e-14)
(1.48346e-26 9.41207e-13 0)
(1.43071e-26 2.18673e-12 2.18673e-12)
(-5.71108e-28 9.78768e-14 -0)
(-6.79581e-13 7.11502e-06 7.11502e-06)
(-2.04218e-13 -8.97871e-06 0)
(-1.14976e-14 2.13139e-06 2.13139e-06)
(-6.49985e-16 -5.05924e-07 0)
(-3.66646e-17 1.20099e-07 1.20099e-07)
(-2.07235e-18 -2.85106e-08 0)
(-1.16753e-19 6.76987e-09 6.76987e-09)
(-6.69444e-21 -1.60647e-09 0)
(-3.59075e-22 3.82285e-10 3.82285e-10)
(-2.43518e-23 -8.99912e-11 0)
(-5.46877e-25 2.21088e-11 2.21088e-11)
(-1.83671e-25 -4.58869e-12 0)
(3.61775e-26 1.80284e-12 1.80284e-12)
(6.46566e-27 3.26053e-13 0)
(9.46352e-27 6.23416e-13 6.23416e-13)
(1.62519e-27 1.27139e-13 0)
(-2.53164e-27 -1.97406e-13 -1.97406e-13)
(9.80769e-27 7.31829e-13 0)
(1.07135e-26 1.9457e-12 1.9457e-12)
(-2.80491e-28 5.35062e-14 -0)
(-6.84119e-13 -7.12874e-06 -7.12874e-06)
(-2.06184e-13 9.01751e-06 -0)
(-1.16113e-14 -2.141e-06 -2.141e-06)
(-6.56699e-16 5.08306e-07 -0)
(-3.70841e-17 -1.20687e-07 -1.20687e-07)
(-2.09213e-18 2.86577e-08 -0)
(-1.18842e-19 -6.80436e-09 -6.80436e-09)
(-6.63549e-21 1.61664e-09 -0)
(-3.91738e-22 -3.83244e-10 -3.83244e-10)
(-1.89726e-23 9.16569e-11 -0)
(-1.70794e-24 -2.11752e-11 -2.11752e-11)
(4.20824e-26 5.63635e-12 0)
(-1.70441e-26 -7.99712e-13 -7.99712e-13)
(1.17625e-26 8.3374e-13 0)
(5.13938e-27 4.22571e-13 4.22571e-13)
(2.54878e-27 2.57911e-13 0)
(-5.22717e-28 -5.16255e-14 -5.16255e-14)
(6.42898e-27 5.87618e-13 0)
(7.01947e-27 1.65203e-12 1.65203e-12)
(-1.11126e-29 2.47204e-15 -0)
(-6.88361e-13 7.14492e-06 7.14492e-06)
(-2.07861e-13 -9.05107e-06 0)
(-1.17094e-14 2.14934e-06 2.14934e-06)
(-6.62685e-16 -5.10366e-07 0)
(-3.74306e-17 1.21197e-07 1.21197e-07)
(-2.11689e-18 -2.87819e-08 0)
(-1.1962e-19 6.83635e-09 6.83635e-09)
(-6.83048e-21 -1.62321e-09 0)
(-3.75252e-22 3.86058e-10 3.86058e-10)
(-2.36889e-23 -9.11551e-11 0)
(-8.6126e-25 2.22132e-11 2.22132e-11)
(-1.4092e-25 -4.80299e-12 0)
(1.63372e-26 1.62227e-12 1.62227e-12)
(1.44417e-27 1.22782e-13 0)
(2.32722e-27 2.63178e-13 2.63178e-13)
(4.23888e-28 5.45188e-14 0)
(1.76012e-28 2.26953e-14 2.26953e-14)
(4.3395e-27 5.36387e-13 0)
(3.84197e-27 1.19884e-12 1.19884e-12)
(2.51501e-28 -6.93396e-14 -0)
(-6.90903e-13 -7.15036e-06 -7.15036e-06)
(-2.09223e-13 9.08098e-06 -0)
(-1.17922e-14 -2.1583e-06 -2.1583e-06)
(-6.67464e-16 5.1294e-07 -0)
(-3.77325e-17 -1.21912e-07 -1.21912e-07)
(-2.12938e-18 2.89783e-08 -0)
(-1.20802e-19 -6.8878e-09 -6.8878e-09)
(-6.78373e-21 1.63784e-09 -0)
(-3.92113e-22 -3.89053e-10 -3.89053e-10)
(-2.05354e-23 9.2702e-11 -0)
(-1.49563e-24 -2.19608e-11 -2.19608e-11)
(-1.69946e-26 5.20031e-12 -0)
(-1.42224e-26 -1.20888e-12 -1.20888e-12)
(2.04287e-27 3.3433e-13 0)
(-3.14724e-28 -5.51075e-14 -5.51075e-14)
(-6.61204e-28 -1.47163e-13 0)
(-1.4428e-27 -3.04178e-13 -3.04178e-13)
(7.85691e-28 1.39371e-13 0)
(2.35595e-27 9.28851e-13 9.28851e-13)
(-2.00903e-28 7.82671e-14 -0)
(-7.02862e-13 7.25796e-06 7.25796e-06)
(-2.11048e-13 -9.11816e-06 0)
(-1.19595e-14 2.17652e-06 2.17652e-06)
(-6.79066e-16 -5.17448e-07 0)
(-3.86808e-17 1.2357e-07 1.2357e-07)
(-2.19875e-18 -2.94657e-08 0)
(-1.25866e-19 7.05056e-09 7.05056e-09)
(-7.15752e-21 -1.67421e-09 0)
(-4.18754e-22 4.12237e-10 4.12237e-10)
(-2.2403e-23 -8.94758e-11 0)
(-1.60362e-24 2.9202e-11 2.9202e-11)
(-1.5626e-26 -8.95487e-13 0)
(-3.51761e-27 5.06517e-12 5.06517e-12)
(7.00164e-27 2.45866e-12 0)
(2.71552e-27 2.11843e-12 2.11843e-12)
(1.64194e-27 1.39258e-12 0)
(1.26551e-27 8.72338e-13 8.72338e-13)
(6.54115e-28 2.95511e-13 0)
(-2.69135e-28 -2.23145e-13 -2.23145e-13)
(1.36285e-28 -1.39627e-13 -0)
)
;

boundaryField
{
    movingWall
    {
        type            calculated;
        value           nonuniform List<vector> 
20
(
(0 7.79415e-06 -0)
(0 -9.24479e-06 -0)
(0 2.23243e-06 -0)
(0 -5.31052e-07 -0)
(0 1.28216e-07 -0)
(0 -3.08135e-08 -0)
(0 7.44739e-09 -0)
(0 -1.78136e-09 -0)
(0 4.54793e-10 -0)
(0 -9.16485e-11 -0)
(0 3.83921e-11 -0)
(0 3.37094e-12 -0)
(0 9.18735e-12 -0)
(0 5.39789e-12 -0)
(0 4.25249e-12 -0)
(0 3.00292e-12 -0)
(0 2.117e-12 -0)
(0 6.46186e-13 -0)
(0 -8.80084e-13 -0)
(0 -4.21085e-13 -0)
)
;
    }
    fixedWalls
    {
        type            calculated;
        value           nonuniform List<vector> 
60
(
(0 -3.63925e-05 -0)
(0 3.64578e-05 -0)
(0 -3.64547e-05 -0)
(0 3.6482e-05 -0)
(0 -3.65026e-05 -0)
(0 3.65459e-05 -0)
(0 -3.66063e-05 -0)
(0 3.66954e-05 -0)
(0 -3.68082e-05 -0)
(0 3.6948e-05 -0)
(0 -3.71083e-05 -0)
(0 3.72875e-05 -0)
(0 -3.7477e-05 -0)
(0 3.76721e-05 -0)
(0 -3.78632e-05 -0)
(0 3.80435e-05 -0)
(0 -3.82051e-05 -0)
(0 3.83443e-05 -0)
(0 -3.84418e-05 -0)
(0 3.86246e-05 -0)
(0 -2.29515e-13 -0)
(0 -3.57161e-13 -0)
(0 -6.30818e-13 -0)
(0 -8.9884e-13 -0)
(0 -1.06768e-12 -0)
(0 -1.37835e-12 -0)
(0 -1.7152e-12 -0)
(0 -1.86111e-12 -0)
(0 -2.10412e-12 -0)
(0 -2.29199e-12 -0)
(0 -2.43962e-12 -0)
(0 -2.49787e-12 -0)
(0 -2.5182e-12 -0)
(0 -2.50345e-12 -0)
(0 -2.30688e-12 -0)
(0 -2.06978e-12 -0)
(0 -1.77103e-12 -0)
(0 -1.47794e-12 -0)
(0 -9.4544e-13 -0)
(0 -5.53056e-13 -0)
(0 -6.86266e-06 -0)
(0 8.57674e-06 -0)
(0 -2.03124e-06 -0)
(0 4.85184e-07 -0)
(0 -1.1469e-07 -0)
(0 2.76375e-08 -0)
(0 -6.38065e-09 -0)
(0 1.6554e-09 -0)
(0 -3.03993e-10 -0)
(0 1.36007e-10 -0)
(0 1.25142e-11 -0)
(0 2.93539e-11 -0)
(0 1.61466e-11 -0)
(0 1.26972e-11 -0)
(0 8.56011e-12 -0)
(0 5.83933e-12 -0)
(0 3.69308e-12 -0)
(0 1.34956e-12 -0)
(0 -1.8269e-13 -0)
(0 -8.30576e-14 -0)
)
;
    }
    frontAndBack
    {
        type            empty;
    }
}


// ************************************************************************* //
