/*--------------------------------*- C++ -*----------------------------------*\
| =========                 |                                                 |
| \\      /  F ield         | OpenFOAM: The Open Source CFD Toolbox           |
|  \\    /   O peration     | Version:  2312                                  |
|   \\  /    A nd           | Website:  www.openfoam.com                      |
|    \\/     M anipulation  |                                                 |
\*---------------------------------------------------------------------------*/
FoamFile
{
    version     2.0;
    format      ascii;
    arch        "LSB;label=32;scalar=64";
    class       volScalarField;
    location    "3.875";
    object      pzeroGrad;
}
// * * * * * * * * * * * * * * * * * * * * * * * * * * * * * * * * * * * * * //

dimensions      [0 2 -2 0 0 0 0];

internalField   nonuniform List<scalar> 
400
(
0
1.98219e-11
1.85321e-11
1.05922e-11
1.18219e-11
1.08521e-11
1.10202e-11
1.09005e-11
1.0907e-11
1.08915e-11
1.08922e-11
1.08922e-11
1.08941e-11
1.08958e-11
1.08972e-11
1.0898e-11
1.0898e-11
1.08962e-11
1.08939e-11
1.08918e-11
4.94699e-11
0
1.44333e-11
6.08088e-12
1.19524e-11
1.05881e-11
1.09707e-11
1.08346e-11
1.08758e-11
1.08695e-11
1.08785e-11
1.08825e-11
1.08871e-11
1.08903e-11
1.08926e-11
1.08942e-11
1.08944e-11
1.08927e-11
1.08908e-11
1.0889e-11
0
1.3521e-10
4.97643e-12
1.74003e-11
8.81363e-12
1.09152e-11
1.05476e-11
1.08051e-11
1.08008e-11
1.08394e-11
1.08519e-11
1.08651e-11
1.08735e-11
1.08798e-11
1.08838e-11
1.08866e-11
1.08876e-11
1.08866e-11
1.08847e-11
1.08832e-11
9.47118e-11
0
1.35463e-11
0
1.21965e-11
9.82623e-12
1.08088e-11
1.06306e-11
1.07662e-11
1.07877e-11
1.0823e-11
1.0841e-11
1.08555e-11
1.08648e-11
1.08714e-11
1.08759e-11
1.0878e-11
1.08774e-11
1.08761e-11
1.0875e-11
0
2.81677e-10
5.29706e-12
2.68535e-11
7.33739e-12
1.10171e-11
1.01577e-11
1.06697e-11
1.06707e-11
1.07567e-11
1.07875e-11
1.08167e-11
1.08346e-11
1.08476e-11
1.08565e-11
1.08625e-11
1.08656e-11
1.0866e-11
1.08651e-11
1.08643e-11
1.2758e-10
0
1.14099e-11
0
1.30153e-11
9.28921e-12
1.08046e-11
1.04806e-11
1.06768e-11
1.07065e-11
1.07614e-11
1.07904e-11
1.08134e-11
1.08286e-11
1.084e-11
1.08475e-11
1.08515e-11
1.08525e-11
1.08523e-11
1.08518e-11
0
4.22968e-10
7.8323e-12
3.61285e-11
6.35303e-12
1.12873e-11
9.93075e-12
1.06112e-11
1.05881e-11
1.0696e-11
1.07321e-11
1.07694e-11
1.07925e-11
1.08101e-11
1.08224e-11
1.08311e-11
1.08359e-11
1.0838e-11
1.08381e-11
1.08378e-11
1.44868e-10
0
8.96593e-12
0
1.38951e-11
9.02858e-12
1.09048e-11
1.04254e-11
1.06412e-11
1.06599e-11
1.07186e-11
1.07489e-11
1.07746e-11
1.07921e-11
1.08051e-11
1.08141e-11
1.08195e-11
1.08222e-11
1.0823e-11
1.08229e-11
0
5.25314e-10
1.10657e-11
4.27893e-11
5.89099e-12
1.15948e-11
9.87357e-12
1.06314e-11
1.05687e-11
1.06735e-11
1.07016e-11
1.07362e-11
1.07584e-11
1.07758e-11
1.07883e-11
1.07975e-11
1.08034e-11
1.0806e-11
1.08072e-11
1.08076e-11
1.45713e-10
0
6.58953e-12
0
1.45677e-11
9.05872e-12
1.1063e-11
1.04641e-11
1.06612e-11
1.06554e-11
1.07028e-11
1.07251e-11
1.07464e-11
1.07613e-11
1.07731e-11
1.07817e-11
1.07871e-11
1.07897e-11
1.07913e-11
1.07923e-11
0
5.7007e-10
1.47608e-11
4.59005e-11
6.08978e-12
1.18912e-11
9.9851e-12
1.07183e-11
1.06105e-11
1.06903e-11
1.06999e-11
1.07227e-11
1.0737e-11
1.07496e-11
1.07593e-11
1.07666e-11
1.07714e-11
1.07743e-11
1.07761e-11
1.0777e-11
1.32559e-10
0
4.78186e-12
0
1.49213e-11
9.36261e-12
1.12477e-11
1.05831e-11
1.07289e-11
1.06907e-11
1.07149e-11
1.07216e-11
1.07323e-11
1.07403e-11
1.07476e-11
1.07533e-11
1.0757e-11
1.07594e-11
1.07614e-11
1.07626e-11
0
5.51032e-10
1.77784e-11
4.49431e-11
6.85008e-12
1.21225e-11
1.02385e-11
1.0854e-11
1.07028e-11
1.07412e-11
1.07249e-11
1.07287e-11
1.07305e-11
1.07341e-11
1.07377e-11
1.07414e-11
1.07444e-11
1.07462e-11
1.0748e-11
1.07491e-11
1.09804e-10
0
4.48049e-12
0
1.49619e-11
9.88634e-12
1.14293e-11
1.07596e-11
1.0831e-11
1.07573e-11
1.07504e-11
1.07366e-11
1.07327e-11
1.07305e-11
1.07307e-11
1.0732e-11
1.07334e-11
1.07342e-11
1.07359e-11
1.07373e-11
0
4.7171e-10
1.90714e-11
4.00465e-11
8.00228e-12
1.22564e-11
1.05894e-11
1.10152e-11
1.08278e-11
1.08148e-11
1.07697e-11
1.07508e-11
1.07368e-11
1.07294e-11
1.0726e-11
1.07246e-11
1.07241e-11
1.07243e-11
1.07256e-11
1.07268e-11
8.24964e-11
0
6.12904e-12
0
1.47156e-11
1.054e-11
1.15769e-11
1.09604e-11
1.09459e-11
1.08397e-11
1.07991e-11
1.0764e-11
1.07433e-11
1.07302e-11
1.07231e-11
1.07192e-11
1.07167e-11
1.07161e-11
1.07169e-11
1.07181e-11
0
3.43851e-10
1.83722e-11
3.20127e-11
9.38099e-12
1.22713e-11
1.09758e-11
1.11666e-11
1.09564e-11
1.08909e-11
1.082e-11
1.07792e-11
1.07498e-11
1.07318e-11
1.07213e-11
1.07151e-11
1.07111e-11
1.07094e-11
1.07099e-11
1.07111e-11
5.43769e-11
0
9.51633e-12
0
1.42219e-11
1.12025e-11
1.16587e-11
1.11385e-11
1.10433e-11
1.09135e-11
1.08442e-11
1.07911e-11
1.0757e-11
1.07345e-11
1.07208e-11
1.07125e-11
1.07072e-11
1.07044e-11
1.07047e-11
1.07061e-11
0
1.83102e-10
1.75548e-11
2.20898e-11
1.105e-11
1.21072e-11
1.13401e-11
1.12647e-11
1.10607e-11
1.09495e-11
1.08614e-11
1.08036e-11
1.07641e-11
1.07382e-11
1.07218e-11
1.07113e-11
1.07046e-11
1.07016e-11
1.07021e-11
1.07032e-11
2.40507e-11
0
1.94702e-11
6.51008e-12
1.38473e-11
1.14813e-11
1.17041e-11
1.12445e-11
1.111e-11
1.09623e-11
1.08757e-11
1.08114e-11
1.07692e-11
1.07412e-11
1.07228e-11
1.07112e-11
1.07042e-11
1.07009e-11
1.07012e-11
1.07022e-11
)
;

boundaryField
{
    movingWall
    {
        type            zeroGradient;
    }
    fixedWalls
    {
        type            zeroGradient;
    }
    frontAndBack
    {
        type            empty;
    }
}


// ************************************************************************* //
