/*--------------------------------*- C++ -*----------------------------------*\
| =========                 |                                                 |
| \\      /  F ield         | OpenFOAM: The Open Source CFD Toolbox           |
|  \\    /   O peration     | Version:  2312                                  |
|   \\  /    A nd           | Website:  www.openfoam.com                      |
|    \\/     M anipulation  |                                                 |
\*---------------------------------------------------------------------------*/
FoamFile
{
    version     2.0;
    format      ascii;
    arch        "LSB;label=32;scalar=64";
    class       volScalarField;
    location    "3.875";
    object      QField;
}
// * * * * * * * * * * * * * * * * * * * * * * * * * * * * * * * * * * * * * //

dimensions      [0 0 -2 0 0 0 0];

internalField   nonuniform List<scalar> 
400
(
5.73796e-13
2.09813e-13
2.04613e-14
1.58727e-15
1.00216e-16
1.13847e-17
2.2423e-19
1.11275e-19
-7.58556e-21
2.05123e-21
-3.14359e-22
4.78979e-23
-1.41252e-23
-1.20817e-24
-1.94383e-24
-1.05981e-24
-1.06519e-24
-8.53942e-25
-2.09857e-25
-2.57313e-26
1.06263e-12
3.47054e-13
3.36343e-14
2.28671e-15
1.62802e-16
1.38222e-17
7.14928e-19
8.08384e-20
1.78412e-21
5.89487e-22
-5.74361e-23
-5.34943e-24
-9.22917e-24
-4.23579e-24
-2.4226e-24
-1.38485e-24
-1.03476e-24
-8.38634e-25
-1.56843e-25
-2.62771e-27
1.14592e-12
3.08418e-13
3.07473e-14
1.56342e-15
1.38282e-16
7.60422e-18
7.02772e-19
1.89801e-20
5.56289e-21
-3.33733e-22
6.23647e-23
-2.30691e-23
-4.89081e-24
-4.18775e-24
-2.06056e-24
-1.19984e-24
-8.34561e-25
-7.64738e-25
-9.64205e-26
-1.74344e-26
1.31171e-12
3.41331e-13
3.47274e-14
1.75217e-15
1.46769e-16
1.00688e-17
5.31806e-19
6.16242e-20
2.24638e-22
6.02002e-22
-7.41131e-23
3.69086e-24
-7.27695e-24
-2.80225e-24
-1.81076e-24
-9.78516e-25
-6.47623e-25
-6.10295e-25
-7.56148e-27
-9.98299e-27
1.28961e-12
3.28096e-13
3.38644e-14
1.64976e-15
1.42265e-16
8.79838e-18
6.20881e-19
3.21422e-20
4.45459e-21
-1.82798e-22
5.976e-23
-1.6801e-23
-2.2963e-24
-2.87554e-24
-1.42746e-24
-7.60748e-25
-4.40929e-25
-4.36652e-25
-1.01567e-25
1.84845e-26
1.20989e-12
3.01232e-13
3.17526e-14
1.49957e-15
1.3154e-16
8.23044e-18
5.08336e-19
4.29704e-20
1.27475e-21
3.72882e-22
-4.11013e-23
4.27058e-24
-4.58141e-24
-1.62168e-24
-1.10649e-24
-5.28834e-25
-2.69828e-25
-3.12912e-25
-1.30728e-25
-1.09592e-26
1.03343e-12
2.50951e-13
2.69333e-14
1.24448e-15
1.07661e-16
6.82191e-18
4.16393e-19
2.94045e-20
2.35979e-21
-9.57871e-24
3.22795e-23
-8.66541e-24
-1.0886e-24
-1.88806e-24
-9.87451e-25
-4.47143e-25
-1.40394e-25
-2.48508e-25
1.47164e-25
-5.45763e-26
8.23667e-13
1.93754e-13
2.15176e-14
9.38923e-16
8.48797e-17
5.03395e-18
3.24607e-19
2.24105e-20
1.25392e-21
1.43646e-22
-1.20267e-23
1.40995e-24
-2.12613e-24
-1.03051e-24
-7.24871e-25
-2.49809e-25
-7.63848e-26
-7.46424e-26
7.76668e-26
2.45976e-26
5.64042e-13
1.25074e-13
1.46892e-14
5.84907e-16
5.35289e-17
3.25521e-18
1.68872e-19
1.4921e-20
6.19334e-22
3.71661e-23
5.47179e-24
-2.61738e-24
-8.57242e-25
-9.37329e-25
-5.91139e-25
-2.27716e-25
-3.47715e-26
-1.361e-25
-6.52553e-27
7.82849e-27
2.92396e-13
5.50605e-14
7.70089e-15
2.14846e-16
2.49305e-17
1.09367e-18
7.01578e-20
2.73309e-21
3.20695e-22
-3.07853e-24
-2.98861e-24
-6.08101e-25
-9.31265e-25
-6.83552e-25
-4.16069e-25
-2.28388e-25
-3.26165e-26
-8.77547e-26
2.87244e-25
-3.81218e-27
4.50545e-15
-1.80296e-14
1.88951e-16
-1.55588e-16
-7.69634e-18
-8.14398e-19
-8.27555e-20
-4.16699e-21
-6.3964e-22
-2.01439e-23
-5.8004e-24
-1.10828e-24
-7.97838e-25
-4.62836e-25
-4.46555e-25
-1.91409e-25
-5.77436e-26
3.61144e-26
2.1243e-25
-1.35141e-26
-2.7896e-13
-8.83545e-14
-7.18798e-15
-5.10322e-16
-3.80524e-17
-2.82152e-18
-1.95189e-19
-1.49112e-20
-9.56923e-22
-9.14676e-23
-4.59705e-24
-1.70969e-24
-5.55668e-25
-5.8884e-25
-2.97249e-25
-1.5044e-25
-7.34599e-26
-2.20359e-25
1.1438e-25
8.99835e-28
-5.5041e-13
-1.54623e-13
-1.42854e-14
-8.3752e-16
-6.70506e-17
-4.6133e-18
-3.10335e-19
-2.28743e-20
-1.54009e-21
-1.13588e-22
-9.34334e-24
-1.15217e-24
-7.66886e-25
-4.98263e-25
-3.77154e-25
-1.54881e-25
-9.2117e-26
-1.00361e-25
3.58117e-26
5.62742e-27
-8.0461e-13
-2.15403e-13
-2.10026e-14
-1.13098e-15
-9.47196e-17
-6.21161e-18
-4.22449e-19
-2.97527e-20
-2.08896e-21
-1.32557e-22
-1.06046e-23
-2.03196e-24
-4.92678e-25
-5.27765e-25
-3.78274e-25
-1.60594e-25
-8.32135e-26
-1.32928e-25
2.18434e-25
-4.2959e-27
-1.02208e-12
-2.6623e-13
-2.67041e-14
-1.37608e-15
-1.1628e-16
-7.64026e-18
-4.88333e-19
-3.77955e-20
-2.18988e-21
-1.79041e-22
-1.29757e-23
-1.04295e-24
-9.54807e-25
-4.5987e-25
-3.72574e-25
-2.10597e-25
-1.79748e-25
-9.24978e-26
2.51973e-26
-9.10174e-27
-1.21635e-12
-3.11045e-13
-3.19044e-14
-1.58811e-15
-1.37486e-16
-8.75672e-18
-5.82113e-19
-4.11731e-20
-2.88415e-21
-1.66071e-22
-1.74378e-23
-2.09907e-24
-7.91609e-25
-6.70933e-25
-3.96421e-25
-2.09309e-25
-2.09166e-25
-2.6132e-25
1.20517e-25
-1.74399e-26
-1.35325e-12
-3.41318e-13
-3.55387e-14
-1.73287e-15
-1.49483e-16
-9.57706e-18
-6.06502e-19
-4.62568e-20
-2.71723e-21
-2.20474e-22
-1.32321e-23
-1.47974e-24
-1.04798e-24
-6.64853e-25
-4.46613e-25
-1.38265e-25
-2.39312e-25
-3.3112e-25
1.23691e-25
-4.0068e-26
-1.43135e-12
-3.54102e-13
-3.78299e-14
-1.84503e-15
-1.59611e-16
-1.03596e-17
-6.81796e-19
-4.90093e-20
-3.39998e-21
-2.20433e-22
-1.6887e-23
-2.55021e-24
-8.85213e-25
-6.7202e-25
-4.56206e-25
-2.39623e-25
-2.20524e-25
-2.64865e-25
3.90793e-27
-4.58987e-26
-1.54043e-12
-3.23929e-13
-3.39702e-14
-1.30126e-15
-1.07647e-16
-6.50738e-18
-3.32562e-19
-2.57448e-20
-1.29306e-21
-1.14521e-22
-2.20507e-24
-3.02348e-24
-8.54591e-25
-8.40638e-25
-5.06429e-25
-3.45424e-25
-3.02979e-25
-4.32097e-25
6.7282e-26
-7.2104e-26
-8.23085e-13
-1.50467e-13
-1.49951e-14
-3.90228e-16
-2.5912e-17
-1.64213e-18
1.03109e-19
-1.70369e-20
3.90701e-21
-6.6241e-22
1.39067e-22
-2.7157e-23
4.39378e-24
-1.3748e-24
-9.13438e-26
-3.00534e-25
-4.70292e-25
-6.74329e-25
-2.64204e-25
-1.47789e-25
)
;

boundaryField
{
    movingWall
    {
        type            calculated;
        value           nonuniform List<scalar> 
20
(
8.47359e-14
1.37741e-13
5.36382e-14
8.13894e-16
1.87727e-16
8.16937e-18
7.64534e-19
1.03979e-20
1.06695e-20
-1.36056e-21
3.27888e-22
-6.05407e-23
1.15015e-23
-2.18649e-24
3.76005e-25
-2.81093e-25
-5.75721e-25
-7.52755e-25
-5.00131e-25
-1.68953e-25
)
;
    }
    fixedWalls
    {
        type            calculated;
        value           nonuniform List<scalar> 
60
(
3.00666e-12
5.56711e-12
6.00105e-12
6.86763e-12
6.752e-12
6.33601e-12
5.41471e-12
4.31944e-12
2.96282e-12
1.54252e-12
3.56856e-14
-1.44948e-12
-2.87362e-12
-4.20897e-12
-5.35318e-12
-6.37664e-12
-7.09938e-12
-7.51309e-12
-8.08886e-12
-4.32665e-12
-1.15954e-26
-2.11318e-26
-1.14258e-26
-1.09041e-26
-6.0818e-26
0
7.81194e-26
-1.0383e-25
-5.35852e-26
3.12293e-27
6.53914e-26
0
-6.89908e-26
-2.34613e-27
-7.22905e-26
-7.46838e-26
-8.46015e-26
5.06897e-27
-1.30582e-25
-9.38436e-26
2.26162e-13
2.2961e-13
5.01517e-15
1.54966e-15
-4.27234e-18
1.16763e-17
-8.31601e-19
1.90887e-19
-2.6374e-20
4.6688e-21
-7.63618e-22
1.31738e-22
-2.3573e-23
2.83442e-24
-1.39604e-24
-6.4701e-25
-9.39613e-25
-7.19514e-25
-2.87338e-25
-3.68852e-26
)
;
    }
    frontAndBack
    {
        type            empty;
    }
}


// ************************************************************************* //
