/*--------------------------------*- C++ -*----------------------------------*\
| =========                 |                                                 |
| \\      /  F ield         | OpenFOAM: The Open Source CFD Toolbox           |
|  \\    /   O peration     | Version:  2312                                  |
|   \\  /    A nd           | Website:  www.openfoam.com                      |
|    \\/     M anipulation  |                                                 |
\*---------------------------------------------------------------------------*/
FoamFile
{
    version     2.0;
    format      ascii;
    arch        "LSB;label=32;scalar=64";
    class       volVectorField;
    location    "3.875";
    object      UNear;
}
// * * * * * * * * * * * * * * * * * * * * * * * * * * * * * * * * * * * * * //

dimensions      [0 1 -1 0 0 0 0];

internalField   nonuniform List<vector> 
400
(
(-1 9.07743e-08 0)
(-1 -2.14811e-08 0)
(-1 5.09832e-09 0)
(-1 -1.20651e-09 0)
(-1 2.86146e-10 0)
(-1 -6.76017e-11 0)
(-1 1.61097e-11 0)
(-1 -3.74588e-12 0)
(-1 9.27416e-13 0)
(-1 -1.92134e-13 0)
(-1 6.38377e-14 0)
(-1 -1.97266e-15 0)
(-1 1.01072e-14 0)
(-1 4.87128e-15 0)
(-1 4.3713e-15 0)
(-1 3.20305e-15 0)
(-1 2.82143e-15 0)
(-1 2.24349e-15 0)
(-1 1.31628e-15 0)
(-1 -3.70499e-16 0)
(-1 -9.07613e-08 0)
(-1 2.14647e-08 0)
(-1 -5.08265e-09 0)
(-1 1.20316e-09 0)
(-1 -2.83285e-10 0)
(-1 6.74629e-11 0)
(-1 -1.56011e-11 0)
(-1 3.85298e-12 0)
(-1 -7.931e-13 0)
(-1 2.61414e-13 0)
(-1 -8.55875e-15 0)
(-1 3.98287e-14 0)
(-1 1.87895e-14 0)
(-1 1.66537e-14 0)
(-1 1.19684e-14 0)
(-1 9.27623e-15 0)
(-1 7.95186e-15 0)
(-1 7.20698e-15 0)
(-1 3.61085e-15 0)
(-1 -9.60666e-16 0)
(-1 9.07234e-08 0)
(-1 -2.14281e-08 0)
(-1 5.0814e-09 0)
(-1 -1.19879e-09 0)
(-1 2.84387e-10 0)
(-1 -6.66846e-11 0)
(-1 1.60901e-11 0)
(-1 -3.56714e-12 0)
(-1 9.98067e-13 0)
(-1 -1.25795e-13 0)
(-1 1.0799e-13 0)
(-1 3.2378e-14 0)
(-1 3.60182e-14 0)
(-1 2.4565e-14 0)
(-1 1.91471e-14 0)
(-1 1.45869e-14 0)
(-1 1.2541e-14 0)
(-1 1.13562e-14 0)
(-1 5.83422e-15 0)
(-1 -1.57705e-15 0)
(-1 -9.07315e-08 0)
(-1 2.14117e-08 0)
(-1 -5.07448e-09 0)
(-1 1.19784e-09 0)
(-1 -2.82564e-10 0)
(-1 6.72053e-11 0)
(-1 -1.55102e-11 0)
(-1 3.89603e-12 0)
(-1 -7.46132e-13 0)
(-1 3.00788e-13 0)
(-1 2.2635e-14 0)
(-1 6.53842e-14 0)
(-1 3.93071e-14 0)
(-1 3.28547e-14 0)
(-1 2.44837e-14 0)
(-1 1.91868e-14 0)
(-1 1.64989e-14 0)
(-1 1.52265e-14 0)
(-1 7.56339e-15 0)
(-1 -2.2471e-15 0)
(-1 9.07897e-08 0)
(-1 -2.14206e-08 0)
(-1 5.07751e-09 0)
(-1 -1.19737e-09 0)
(-1 2.83403e-10 0)
(-1 -6.66511e-11 0)
(-1 1.59716e-11 0)
(-1 -3.56168e-12 0)
(-1 1.00246e-12 0)
(-1 -1.08769e-13 0)
(-1 1.24548e-13 0)
(-1 4.82998e-14 0)
(-1 5.00951e-14 0)
(-1 3.63155e-14 0)
(-1 2.86225e-14 0)
(-1 2.23548e-14 0)
(-1 1.96598e-14 0)
(-1 1.82978e-14 0)
(-1 9.21143e-15 0)
(-1 -2.80474e-15 0)
(-1 -9.0925e-08 0)
(-1 2.14552e-08 0)
(-1 -5.08521e-09 0)
(-1 1.19996e-09 0)
(-1 -2.83461e-10 0)
(-1 6.72184e-11 0)
(-1 -1.56432e-11 0)
(-1 3.87046e-12 0)
(-1 -7.65343e-13 0)
(-1 3.00508e-13 0)
(-1 2.68711e-14 0)
(-1 7.27821e-14 0)
(-1 4.73192e-14 0)
(-1 4.03033e-14 0)
(-1 3.08931e-14 0)
(-1 2.45243e-14 0)
(-1 2.17338e-14 0)
(-1 2.06692e-14 0)
(-1 1.02916e-14 0)
(-1 -3.44587e-15 0)
(-1 9.11371e-08 0)
(-1 -2.15173e-08 0)
(-1 5.10012e-09 0)
(-1 -1.20403e-09 0)
(-1 2.84881e-10 0)
(-1 -6.72138e-11 0)
(-1 1.60154e-11 0)
(-1 -3.64075e-12 0)
(-1 9.86827e-13 0)
(-1 -1.22793e-13 0)
(-1 1.2161e-13 0)
(-1 4.86523e-14 0)
(-1 5.28575e-14 0)
(-1 3.9793e-14 0)
(-1 3.2398e-14 0)
(-1 2.58231e-14 0)
(-1 2.32312e-14 0)
(-1 2.2197e-14 0)
(-1 1.0864e-14 0)
(-1 -4.15248e-15 0)
(-1 -9.14322e-08 0)
(-1 2.16021e-08 0)
(-1 -5.12054e-09 0)
(-1 1.20991e-09 0)
(-1 -2.86189e-10 0)
(-1 6.78303e-11 0)
(-1 -1.58988e-11 0)
(-1 3.88029e-12 0)
(-1 -8.0584e-13 0)
(-1 2.89145e-13 0)
(-1 1.77413e-14 0)
(-1 6.95387e-14 0)
(-1 4.61835e-14 0)
(-1 4.06188e-14 0)
(-1 3.19815e-14 0)
(-1 2.60463e-14 0)
(-1 2.36757e-14 0)
(-1 2.31564e-14 0)
(-1 1.10891e-14 0)
(-1 -4.78829e-15 0)
(-1 9.18041e-08 0)
(-1 -2.17104e-08 0)
(-1 5.14672e-09 0)
(-1 -1.21722e-09 0)
(-1 2.88258e-10 0)
(-1 -6.81654e-11 0)
(-1 1.62202e-11 0)
(-1 -3.73892e-12 0)
(-1 9.81408e-13 0)
(-1 -1.43233e-13 0)
(-1 1.1287e-13 0)
(-1 4.23195e-14 0)
(-1 4.96884e-14 0)
(-1 3.79971e-14 0)
(-1 3.1373e-14 0)
(-1 2.54236e-14 0)
(-1 2.36657e-14 0)
(-1 2.33796e-14 0)
(-1 1.10413e-14 0)
(-1 -5.32807e-15 0)
(-1 -9.22478e-08 0)
(-1 2.18371e-08 0)
(-1 -5.1774e-09 0)
(-1 1.22575e-09 0)
(-1 -2.90357e-10 0)
(-1 6.88766e-11 0)
(-1 -1.62211e-11 0)
(-1 3.93397e-12 0)
(-1 -8.45083e-13 0)
(-1 2.8073e-13 0)
(-1 6.00103e-15 0)
(-1 6.2724e-14 0)
(-1 4.13414e-14 0)
(-1 3.73914e-14 0)
(-1 2.97131e-14 0)
(-1 2.46586e-14 0)
(-1 2.31117e-14 0)
(-1 2.28708e-14 0)
(-1 1.06076e-14 0)
(-1 -5.72996e-15 0)
(-1 9.27484e-08 0)
(-1 -2.19795e-08 0)
(-1 5.21174e-09 0)
(-1 -1.23516e-09 0)
(-1 2.92915e-10 0)
(-1 -6.93756e-11 0)
(-1 1.65328e-11 0)
(-1 -3.83795e-12 0)
(-1 9.90173e-13 0)
(-1 -1.60965e-13 0)
(-1 1.05041e-13 0)
(-1 3.4497e-14 0)
(-1 4.41483e-14 0)
(-1 3.3605e-14 0)
(-1 2.81308e-14 0)
(-1 2.31429e-14 0)
(-1 2.21185e-14 0)
(-1 2.21516e-14 0)
(-1 9.98769e-15 0)
(-1 -6.03129e-15 0)
(-1 -9.32949e-08 0)
(-1 2.21335e-08 0)
(-1 -5.24858e-09 0)
(-1 1.24541e-09 0)
(-1 -2.95381e-10 0)
(-1 7.01768e-11 0)
(-1 -1.65755e-11 0)
(-1 4.01516e-12 0)
(-1 -8.78713e-13 0)
(-1 2.77415e-13 0)
(-1 -4.31904e-15 0)
(-1 5.57654e-14 0)
(-1 3.49985e-14 0)
(-1 3.25053e-14 0)
(-1 2.57914e-14 0)
(-1 2.15183e-14 0)
(-1 2.06348e-14 0)
(-1 2.10478e-14 0)
(-1 9.37246e-15 0)
(-1 -6.24467e-15 0)
(-1 9.38631e-08 0)
(-1 -2.22917e-08 0)
(-1 5.28664e-09 0)
(-1 -1.25556e-09 0)
(-1 2.98157e-10 0)
(-1 -7.06995e-11 0)
(-1 1.68889e-11 0)
(-1 -3.93401e-12 0)
(-1 1.00638e-12 0)
(-1 -1.7565e-13 0)
(-1 9.85261e-14 0)
(-1 2.66918e-14 0)
(-1 3.78403e-14 0)
(-1 2.8287e-14 0)
(-1 2.39207e-14 0)
(-1 1.96553e-14 0)
(-1 1.90247e-14 0)
(-1 1.95624e-14 0)
(-1 8.43942e-15 0)
(-1 -6.36327e-15 0)
(-1 -9.44399e-08 0)
(-1 2.24519e-08 0)
(-1 -5.3246e-09 0)
(-1 1.26613e-09 0)
(-1 -3.00601e-10 0)
(-1 7.15187e-11 0)
(-1 -1.69294e-11 0)
(-1 4.10028e-12 0)
(-1 -9.09165e-13 0)
(-1 2.75553e-13 0)
(-1 -1.39464e-14 0)
(-1 4.86313e-14 0)
(-1 2.8242e-14 0)
(-1 2.67459e-14 0)
(-1 2.08096e-14 0)
(-1 1.74994e-14 0)
(-1 1.72455e-14 0)
(-1 1.76818e-14 0)
(-1 7.55624e-15 0)
(-1 -6.25863e-15 0)
(-1 9.49941e-08 0)
(-1 -2.26027e-08 0)
(-1 5.36091e-09 0)
(-1 -1.27551e-09 0)
(-1 3.03205e-10 0)
(-1 -7.19684e-11 0)
(-1 1.72206e-11 0)
(-1 -4.02435e-12 0)
(-1 1.02041e-12 0)
(-1 -1.89723e-13 0)
(-1 9.14257e-14 0)
(-1 1.81812e-14 0)
(-1 3.06326e-14 0)
(-1 2.19013e-14 0)
(-1 1.84178e-14 0)
(-1 1.50977e-14 0)
(-1 1.51416e-14 0)
(-1 1.57613e-14 0)
(-1 6.54269e-15 0)
(-1 -5.83497e-15 0)
(-1 -9.55135e-08 0)
(-1 2.27447e-08 0)
(-1 -5.39441e-09 0)
(-1 1.28475e-09 0)
(-1 -3.05286e-10 0)
(-1 7.26869e-11 0)
(-1 -1.7246e-11 0)
(-1 4.16718e-12 0)
(-1 -9.39285e-13 0)
(-1 2.70602e-13 0)
(-1 -2.47358e-14 0)
(-1 4.00269e-14 0)
(-1 2.00669e-14 0)
(-1 1.98301e-14 0)
(-1 1.51801e-14 0)
(-1 1.27828e-14 0)
(-1 1.28245e-14 0)
(-1 1.34016e-14 0)
(-1 5.50623e-15 0)
(-1 -5.24222e-15 0)
(-1 9.59662e-08 0)
(-1 -2.28648e-08 0)
(-1 5.4233e-09 0)
(-1 -1.29194e-09 0)
(-1 3.07275e-10 0)
(-1 -7.30041e-11 0)
(-1 1.74656e-11 0)
(-1 -4.10449e-12 0)
(-1 1.02216e-12 0)
(-1 -2.06996e-13 0)
(-1 8.06578e-14 0)
(-1 7.46624e-15 0)
(-1 2.13127e-14 0)
(-1 1.41081e-14 0)
(-1 1.21622e-14 0)
(-1 9.88241e-15 0)
(-1 1.01252e-14 0)
(-1 1.09408e-14 0)
(-1 4.249e-15 0)
(-1 -4.49533e-15 0)
(-1 -9.63427e-08 0)
(-1 2.29654e-08 0)
(-1 -5.44794e-09 0)
(-1 1.29845e-09 0)
(-1 -3.08842e-10 0)
(-1 7.35494e-11 0)
(-1 -1.74976e-11 0)
(-1 4.20801e-12 0)
(-1 -9.72008e-13 0)
(-1 2.59874e-13 0)
(-1 -3.87725e-14 0)
(-1 2.93401e-14 0)
(-1 1.00706e-14 0)
(-1 1.17621e-14 0)
(-1 8.84276e-15 0)
(-1 7.77509e-15 0)
(-1 7.75547e-15 0)
(-1 8.09024e-15 0)
(-1 3.20474e-15 0)
(-1 -3.62709e-15 0)
(-1 9.66249e-08 0)
(-1 -2.30396e-08 0)
(-1 5.46367e-09 0)
(-1 -1.30125e-09 0)
(-1 3.09505e-10 0)
(-1 -7.3482e-11 0)
(-1 1.75386e-11 0)
(-1 -4.14187e-12 0)
(-1 1.00786e-12 0)
(-1 -2.2152e-13 0)
(-1 6.81048e-14 0)
(-1 -3.268e-15 0)
(-1 1.17649e-14 0)
(-1 6.11032e-15 0)
(-1 5.71109e-15 0)
(-1 4.49299e-15 0)
(-1 4.74327e-15 0)
(-1 5.63742e-15 0)
(-1 2.53641e-15 0)
(-1 -2.56689e-15 0)
(-1 -9.68401e-08 0)
(-1 2.31458e-08 0)
(-1 -5.4948e-09 0)
(-1 1.31234e-09 0)
(-1 -3.13026e-10 0)
(-1 7.46208e-11 0)
(-1 -1.78519e-11 0)
(-1 4.27517e-12 0)
(-1 -1.01581e-12 0)
(-1 2.50381e-13 0)
(-1 -5.49148e-14 0)
(-1 1.74497e-14 0)
(-1 -6.94471e-16 0)
(-1 2.84774e-15 0)
(-1 1.28185e-15 0)
(-1 1.17906e-15 0)
(-1 1.45071e-15 0)
(-1 2.2135e-15 0)
(-1 1.2061e-15 0)
(-1 -9.76065e-16 0)
)
;

boundaryField
{
    movingWall
    {
        type            fixedValue;
        value           uniform (-1 -0 -0);
    }
    fixedWalls
    {
        type            calculated;
        value           nonuniform List<vector> 
60
(
(-1 3.63097e-08 0)
(-1 -3.63045e-08 0)
(-1 3.62893e-08 0)
(-1 -3.62926e-08 0)
(-1 3.63159e-08 0)
(-1 -3.637e-08 0)
(-1 3.64548e-08 0)
(-1 -3.65729e-08 0)
(-1 3.67216e-08 0)
(-1 -3.68991e-08 0)
(-1 3.70994e-08 0)
(-1 -3.73179e-08 0)
(-1 3.75452e-08 0)
(-1 -3.7776e-08 0)
(-1 3.79976e-08 0)
(-1 -3.82054e-08 0)
(-1 3.83865e-08 0)
(-1 -3.85371e-08 0)
(-1 3.865e-08 0)
(-1 -3.8736e-08 0)
(-1 -1.482e-16 0)
(-1 -3.84266e-16 0)
(-1 -6.30818e-16 0)
(-1 -8.9884e-16 0)
(-1 -1.12189e-15 0)
(-1 -1.37835e-15 0)
(-1 -1.66099e-15 0)
(-1 -1.91532e-15 0)
(-1 -2.13123e-15 0)
(-1 -2.29199e-15 0)
(-1 -2.41252e-15 0)
(-1 -2.49787e-15 0)
(-1 -2.54531e-15 0)
(-1 -2.50345e-15 0)
(-1 -2.33399e-15 0)
(-1 -2.09689e-15 0)
(-1 -1.79813e-15 0)
(-1 -1.45084e-15 0)
(-1 -1.02676e-15 0)
(-1 -3.90426e-16 0)
(-1 3.63097e-08 0)
(-1 -8.59246e-09 0)
(-1 2.03933e-09 0)
(-1 -4.82602e-10 0)
(-1 1.14458e-10 0)
(-1 -2.70407e-11 0)
(-1 6.44387e-12 0)
(-1 -1.49835e-12 0)
(-1 3.70966e-13 0)
(-1 -7.68534e-14 0)
(-1 2.55351e-14 0)
(-1 -7.89066e-16 0)
(-1 4.04286e-15 0)
(-1 1.94851e-15 0)
(-1 1.74852e-15 0)
(-1 1.28122e-15 0)
(-1 1.12857e-15 0)
(-1 8.97396e-16 0)
(-1 5.26512e-16 0)
(-1 -1.482e-16 0)
)
;
    }
    frontAndBack
    {
        type            empty;
    }
}


// ************************************************************************* //
