/*--------------------------------*- C++ -*----------------------------------*\
| =========                 |                                                 |
| \\      /  F ield         | OpenFOAM: The Open Source CFD Toolbox           |
|  \\    /   O peration     | Version:  2312                                  |
|   \\  /    A nd           | Website:  www.openfoam.com                      |
|    \\/     M anipulation  |                                                 |
\*---------------------------------------------------------------------------*/
FoamFile
{
    version     2.0;
    format      ascii;
    arch        "LSB;label=32;scalar=64";
    class       volVectorField;
    location    "3.875";
    object      vorticityField;
}
// * * * * * * * * * * * * * * * * * * * * * * * * * * * * * * * * * * * * * //

dimensions      [0 0 -1 0 0 0 0];

internalField   nonuniform List<vector> 
400
(
(0 -0 7.01212e-06)
(0 -0 -8.59208e-06)
(0 -0 2.03756e-06)
(0 -0 -4.84516e-07)
(0 -0 1.14772e-07)
(0 -0 -2.74253e-08)
(0 -0 6.42168e-09)
(0 -0 -1.59144e-09)
(0 -0 3.34856e-10)
(0 -0 -1.10508e-10)
(0 -0 4.35225e-12)
(0 -0 -1.68656e-11)
(0 -0 -7.36581e-12)
(0 -0 -6.40117e-12)
(0 -0 -4.17837e-12)
(0 -0 -2.9197e-12)
(0 -0 -1.77647e-12)
(0 -0 -7.73931e-13)
(0 -0 -7.16635e-14)
(0 -0 -1.32629e-14)
(0 -0 -7.08294e-06)
(0 -0 8.60831e-06)
(0 -0 -2.04274e-06)
(0 -0 4.84688e-07)
(0 -0 -1.15e-07)
(0 -0 2.72825e-08)
(0 -0 -6.47332e-09)
(0 -0 1.53485e-09)
(0 -0 -3.64659e-10)
(0 -0 8.60436e-11)
(0 -0 -2.08032e-11)
(0 -0 4.52376e-12)
(0 -0 -1.39593e-12)
(0 -0 4.97277e-14)
(0 -0 -3.31167e-13)
(0 -0 -1.03501e-13)
(0 -0 -4.4295e-14)
(0 -0 -3.7989e-13)
(0 -0 -7.89659e-13)
(0 -0 -2.92123e-13)
(0 -0 7.09484e-06)
(0 -0 -8.60011e-06)
(0 -0 2.03812e-06)
(0 -0 -4.82945e-07)
(0 -0 1.14429e-07)
(0 -0 -2.7112e-08)
(0 -0 6.4226e-09)
(0 -0 -1.52205e-09)
(0 -0 3.59964e-10)
(0 -0 -8.57822e-11)
(0 -0 1.98831e-11)
(0 -0 -5.13723e-12)
(0 -0 7.09477e-13)
(0 -0 -7.92637e-13)
(0 -0 -4.28603e-13)
(0 -0 -3.08246e-13)
(0 -0 -1.06233e-13)
(0 -0 -5.35154e-13)
(0 -0 -1.29332e-12)
(0 -0 -4.25717e-13)
(0 -0 -7.12141e-06)
(0 -0 8.60553e-06)
(0 -0 -2.03855e-06)
(0 -0 4.82842e-07)
(0 -0 -1.14358e-07)
(0 -0 2.70822e-08)
(0 -0 -6.414e-09)
(0 -0 1.51809e-09)
(0 -0 -3.60201e-10)
(0 -0 8.44662e-11)
(0 -0 -2.07486e-11)
(0 -0 4.26929e-12)
(0 -0 -1.70797e-12)
(0 -0 -3.43927e-13)
(0 -0 -6.62055e-13)
(0 -0 -3.3769e-13)
(0 -0 -1.24985e-13)
(0 -0 -7.58027e-13)
(0 -0 -1.77446e-12)
(0 -0 -5.31629e-13)
(0 -0 7.12361e-06)
(0 -0 -8.60967e-06)
(0 -0 2.0391e-06)
(0 -0 -4.82865e-07)
(0 -0 1.14335e-07)
(0 -0 -2.70723e-08)
(0 -0 6.40877e-09)
(0 -0 -1.51808e-09)
(0 -0 3.58519e-10)
(0 -0 -8.57037e-11)
(0 -0 1.93931e-11)
(0 -0 -5.38532e-12)
(0 -0 4.82085e-13)
(0 -0 -1.09015e-12)
(0 -0 -6.10025e-13)
(0 -0 -3.54169e-13)
(0 -0 -5.33341e-14)
(0 -0 -9.09316e-13)
(0 -0 -2.08315e-12)
(0 -0 -6.9488e-13)
(0 -0 -7.12291e-06)
(0 -0 8.61953e-06)
(0 -0 -2.0413e-06)
(0 -0 4.83351e-07)
(0 -0 -1.14446e-07)
(0 -0 2.70952e-08)
(0 -0 -6.41559e-09)
(0 -0 1.51788e-09)
(0 -0 -3.60275e-10)
(0 -0 8.429e-11)
(0 -0 -2.09024e-11)
(0 -0 4.1048e-12)
(0 -0 -1.89263e-12)
(0 -0 -6.6683e-13)
(0 -0 -9.5448e-13)
(0 -0 -4.82247e-13)
(0 -0 -8.73581e-14)
(0 -0 -9.81596e-13)
(0 -0 -2.3573e-12)
(0 -0 -6.84569e-13)
(0 -0 7.11349e-06)
(0 -0 -8.63369e-06)
(0 -0 2.04476e-06)
(0 -0 -4.84201e-07)
(0 -0 1.14652e-07)
(0 -0 -2.7148e-08)
(0 -0 6.42664e-09)
(0 -0 -1.52259e-09)
(0 -0 3.59467e-10)
(0 -0 -8.61423e-11)
(0 -0 1.94214e-11)
(0 -0 -5.54711e-12)
(0 -0 2.52477e-13)
(0 -0 -1.12438e-12)
(0 -0 -6.92256e-13)
(0 -0 -4.5589e-13)
(0 -0 -9.15626e-14)
(0 -0 -1.1012e-12)
(0 -0 -2.68916e-12)
(0 -0 -6.16938e-13)
(0 -0 -7.10551e-06)
(0 -0 8.65484e-06)
(0 -0 -2.05004e-06)
(0 -0 4.85515e-07)
(0 -0 -1.14983e-07)
(0 -0 2.72287e-08)
(0 -0 -6.4491e-09)
(0 -0 1.52602e-09)
(0 -0 -3.62475e-10)
(0 -0 8.47434e-11)
(0 -0 -2.11746e-11)
(0 -0 3.95552e-12)
(0 -0 -2.13304e-12)
(0 -0 -7.42567e-13)
(0 -0 -9.69361e-13)
(0 -0 -5.3243e-13)
(0 -0 -4.5042e-14)
(0 -0 -1.20444e-12)
(0 -0 -2.82158e-12)
(0 -0 -6.84295e-13)
(0 -0 7.0959e-06)
(0 -0 -8.68179e-06)
(0 -0 2.05683e-06)
(0 -0 -4.8723e-07)
(0 -0 1.15412e-07)
(0 -0 -2.73394e-08)
(0 -0 6.47455e-09)
(0 -0 -1.53475e-09)
(0 -0 3.62361e-10)
(0 -0 -8.70435e-11)
(0 -0 1.93955e-11)
(0 -0 -5.74899e-12)
(0 -0 2.45388e-13)
(0 -0 -1.34364e-12)
(0 -0 -8.50774e-13)
(0 -0 -4.99686e-13)
(0 -0 -4.1777e-14)
(0 -0 -1.15402e-12)
(0 -0 -2.87076e-12)
(0 -0 -5.98426e-13)
(0 -0 -7.08993e-06)
(0 -0 8.7153e-06)
(0 -0 -2.06528e-06)
(0 -0 4.89355e-07)
(0 -0 -1.15951e-07)
(0 -0 2.74724e-08)
(0 -0 -6.51069e-09)
(0 -0 1.54143e-09)
(0 -0 -3.66435e-10)
(0 -0 8.56505e-11)
(0 -0 -2.14212e-11)
(0 -0 4.02193e-12)
(0 -0 -2.15379e-12)
(0 -0 -8.10464e-13)
(0 -0 -1.02934e-12)
(0 -0 -3.89094e-13)
(0 -0 -4.3254e-14)
(0 -0 -1.19619e-12)
(0 -0 -2.9685e-12)
(0 -0 -4.87768e-13)
(0 -0 7.08583e-06)
(0 -0 -8.75378e-06)
(0 -0 2.07498e-06)
(0 -0 -4.91802e-07)
(0 -0 1.16564e-07)
(0 -0 -2.76294e-08)
(0 -0 6.54758e-09)
(0 -0 -1.55326e-09)
(0 -0 3.66885e-10)
(0 -0 -8.8188e-11)
(0 -0 1.97088e-11)
(0 -0 -5.7369e-12)
(0 -0 1.81854e-13)
(0 -0 -1.41202e-12)
(0 -0 -8.02266e-13)
(0 -0 -4.38603e-13)
(0 -0 9.28978e-15)
(0 -0 -1.26729e-12)
(0 -0 -2.89961e-12)
(0 -0 -3.68534e-13)
(0 -0 -7.08564e-06)
(0 -0 8.79685e-06)
(0 -0 -2.08583e-06)
(0 -0 4.94528e-07)
(0 -0 -1.17252e-07)
(0 -0 2.77997e-08)
(0 -0 -6.59291e-09)
(0 -0 1.56209e-09)
(0 -0 -3.71633e-10)
(0 -0 8.68431e-11)
(0 -0 -2.17584e-11)
(0 -0 4.06728e-12)
(0 -0 -2.10917e-12)
(0 -0 -7.03871e-13)
(0 -0 -9.63174e-13)
(0 -0 -4.07244e-13)
(0 -0 8.84822e-14)
(0 -0 -1.01781e-12)
(0 -0 -2.78346e-12)
(0 -0 -3.12779e-13)
(0 -0 7.08885e-06)
(0 -0 -8.8424e-06)
(0 -0 2.09727e-06)
(0 -0 -4.97402e-07)
(0 -0 1.1797e-07)
(0 -0 -2.79825e-08)
(0 -0 6.636e-09)
(0 -0 -1.57546e-09)
(0 -0 3.72502e-10)
(0 -0 -8.94843e-11)
(0 -0 2.01529e-11)
(0 -0 -5.71622e-12)
(0 -0 4.03468e-13)
(0 -0 -1.20222e-12)
(0 -0 -7.54749e-13)
(0 -0 -4.62495e-13)
(0 -0 1.78133e-14)
(0 -0 -1.05853e-12)
(0 -0 -2.61967e-12)
(0 -0 -2.3472e-13)
(0 -0 -7.09493e-06)
(0 -0 8.88936e-06)
(0 -0 -2.10907e-06)
(0 -0 5.00356e-07)
(0 -0 -1.18712e-07)
(0 -0 2.81653e-08)
(0 -0 -6.68424e-09)
(0 -0 1.585e-09)
(0 -0 -3.77323e-10)
(0 -0 8.84106e-11)
(0 -0 -2.20416e-11)
(0 -0 4.27304e-12)
(0 -0 -2.0259e-12)
(0 -0 -6.61924e-13)
(0 -0 -8.70443e-13)
(0 -0 -3.56404e-13)
(0 -0 7.24475e-14)
(0 -0 -1.02314e-12)
(0 -0 -2.50246e-12)
(0 -0 -1.29761e-13)
(0 -0 7.10472e-06)
(0 -0 -8.93532e-06)
(0 -0 2.12055e-06)
(0 -0 -5.03224e-07)
(0 -0 1.19425e-07)
(0 -0 -2.83454e-08)
(0 -0 6.72688e-09)
(0 -0 -1.59771e-09)
(0 -0 3.78367e-10)
(0 -0 -9.08654e-11)
(0 -0 2.05193e-11)
(0 -0 -5.78115e-12)
(0 -0 4.26223e-13)
(0 -0 -1.16727e-12)
(0 -0 -6.26149e-13)
(0 -0 -1.92091e-13)
(0 -0 6.63542e-14)
(0 -0 -9.41207e-13)
(0 -0 -2.18673e-12)
(0 -0 -9.78768e-14)
(0 -0 -7.11502e-06)
(0 -0 8.97871e-06)
(0 -0 -2.13139e-06)
(0 -0 5.05924e-07)
(0 -0 -1.20099e-07)
(0 -0 2.85106e-08)
(0 -0 -6.76987e-09)
(0 -0 1.60647e-09)
(0 -0 -3.82285e-10)
(0 -0 8.99912e-11)
(0 -0 -2.21088e-11)
(0 -0 4.58869e-12)
(0 -0 -1.80284e-12)
(0 -0 -3.26053e-13)
(0 -0 -6.23416e-13)
(0 -0 -1.27139e-13)
(0 -0 1.97406e-13)
(0 -0 -7.31829e-13)
(0 -0 -1.9457e-12)
(0 -0 -5.35062e-14)
(0 -0 7.12874e-06)
(0 -0 -9.01751e-06)
(0 -0 2.141e-06)
(0 -0 -5.08306e-07)
(0 -0 1.20687e-07)
(0 -0 -2.86577e-08)
(0 -0 6.80436e-09)
(0 -0 -1.61664e-09)
(0 -0 3.83244e-10)
(0 -0 -9.16569e-11)
(0 -0 2.11752e-11)
(0 -0 -5.63635e-12)
(0 -0 7.99712e-13)
(0 -0 -8.3374e-13)
(0 -0 -4.22571e-13)
(0 -0 -2.57911e-13)
(0 -0 5.16255e-14)
(0 -0 -5.87618e-13)
(0 -0 -1.65203e-12)
(0 -0 -2.47204e-15)
(0 -0 -7.14492e-06)
(0 -0 9.05107e-06)
(0 -0 -2.14934e-06)
(0 -0 5.10366e-07)
(0 -0 -1.21197e-07)
(0 -0 2.87819e-08)
(0 -0 -6.83635e-09)
(0 -0 1.62321e-09)
(0 -0 -3.86058e-10)
(0 -0 9.11551e-11)
(0 -0 -2.22132e-11)
(0 -0 4.80299e-12)
(0 -0 -1.62227e-12)
(0 -0 -1.22782e-13)
(0 -0 -2.63178e-13)
(0 -0 -5.45188e-14)
(0 -0 -2.26953e-14)
(0 -0 -5.36387e-13)
(0 -0 -1.19884e-12)
(0 -0 6.93396e-14)
(0 -0 7.15036e-06)
(0 -0 -9.08098e-06)
(0 -0 2.1583e-06)
(0 -0 -5.1294e-07)
(0 -0 1.21912e-07)
(0 -0 -2.89783e-08)
(0 -0 6.8878e-09)
(0 -0 -1.63784e-09)
(0 -0 3.89053e-10)
(0 -0 -9.2702e-11)
(0 -0 2.19608e-11)
(0 -0 -5.20031e-12)
(0 -0 1.20888e-12)
(0 -0 -3.3433e-13)
(0 -0 5.51075e-14)
(0 -0 1.47163e-13)
(0 -0 3.04178e-13)
(0 -0 -1.39371e-13)
(0 -0 -9.28851e-13)
(0 -0 -7.82671e-14)
(0 -0 -7.25796e-06)
(0 -0 9.11816e-06)
(0 -0 -2.17652e-06)
(0 -0 5.17448e-07)
(0 -0 -1.2357e-07)
(0 -0 2.94657e-08)
(0 -0 -7.05056e-09)
(0 -0 1.67421e-09)
(0 -0 -4.12237e-10)
(0 -0 8.94758e-11)
(0 -0 -2.9202e-11)
(0 -0 8.95487e-13)
(0 -0 -5.06517e-12)
(0 -0 -2.45866e-12)
(0 -0 -2.11843e-12)
(0 -0 -1.39258e-12)
(0 -0 -8.72338e-13)
(0 -0 -2.95511e-13)
(0 -0 2.23145e-13)
(0 -0 1.39627e-13)
)
;

boundaryField
{
    movingWall
    {
        type            calculated;
        value           nonuniform List<vector> 
20
(
(0 -0 -7.79415e-06)
(0 -0 9.24479e-06)
(0 -0 -2.23243e-06)
(0 -0 5.31052e-07)
(0 -0 -1.28216e-07)
(0 -0 3.08135e-08)
(0 -0 -7.44739e-09)
(0 -0 1.78136e-09)
(0 -0 -4.54793e-10)
(0 -0 9.16485e-11)
(0 -0 -3.83921e-11)
(0 -0 -3.37094e-12)
(0 -0 -9.18735e-12)
(0 -0 -5.39789e-12)
(0 -0 -4.25249e-12)
(0 -0 -3.00292e-12)
(0 -0 -2.117e-12)
(0 -0 -6.46186e-13)
(0 -0 8.80084e-13)
(0 -0 4.21085e-13)
)
;
    }
    fixedWalls
    {
        type            calculated;
        value           nonuniform List<vector> 
60
(
(0 -0 3.63925e-05)
(0 -0 -3.64578e-05)
(0 -0 3.64547e-05)
(0 -0 -3.6482e-05)
(0 -0 3.65026e-05)
(0 -0 -3.65459e-05)
(0 -0 3.66063e-05)
(0 -0 -3.66954e-05)
(0 -0 3.68082e-05)
(0 -0 -3.6948e-05)
(0 -0 3.71083e-05)
(0 -0 -3.72875e-05)
(0 -0 3.7477e-05)
(0 -0 -3.76721e-05)
(0 -0 3.78632e-05)
(0 -0 -3.80435e-05)
(0 -0 3.82051e-05)
(0 -0 -3.83443e-05)
(0 -0 3.84418e-05)
(0 -0 -3.86246e-05)
(0 -0 2.29515e-13)
(0 -0 3.57161e-13)
(0 -0 6.30818e-13)
(0 -0 8.9884e-13)
(0 -0 1.06768e-12)
(0 -0 1.37835e-12)
(0 -0 1.7152e-12)
(0 -0 1.86111e-12)
(0 -0 2.10412e-12)
(0 -0 2.29199e-12)
(0 -0 2.43962e-12)
(0 -0 2.49787e-12)
(0 -0 2.5182e-12)
(0 -0 2.50345e-12)
(0 -0 2.30688e-12)
(0 -0 2.06978e-12)
(0 -0 1.77103e-12)
(0 -0 1.47794e-12)
(0 -0 9.4544e-13)
(0 -0 5.53056e-13)
(0 -0 6.86266e-06)
(0 -0 -8.57674e-06)
(0 -0 2.03124e-06)
(0 -0 -4.85184e-07)
(0 -0 1.1469e-07)
(0 -0 -2.76375e-08)
(0 -0 6.38065e-09)
(0 -0 -1.6554e-09)
(0 -0 3.03993e-10)
(0 -0 -1.36007e-10)
(0 -0 -1.25142e-11)
(0 -0 -2.93539e-11)
(0 -0 -1.61466e-11)
(0 -0 -1.26972e-11)
(0 -0 -8.56011e-12)
(0 -0 -5.83933e-12)
(0 -0 -3.69308e-12)
(0 -0 -1.34956e-12)
(0 -0 1.8269e-13)
(0 -0 8.30576e-14)
)
;
    }
    frontAndBack
    {
        type            empty;
    }
}


// ************************************************************************* //
