/*--------------------------------*- C++ -*----------------------------------*\
| =========                 |                                                 |
| \\      /  F ield         | OpenFOAM: The Open Source CFD Toolbox           |
|  \\    /   O peration     | Version:  2312                                  |
|   \\  /    A nd           | Website:  www.openfoam.com                      |
|    \\/     M anipulation  |                                                 |
\*---------------------------------------------------------------------------*/
FoamFile
{
    version     2.0;
    format      ascii;
    arch        "LSB;label=32;scalar=64";
    class       volScalarField;
    location    "3.875";
    object      zeroGradient(epsilon);
}
// * * * * * * * * * * * * * * * * * * * * * * * * * * * * * * * * * * * * * //

dimensions      [0 2 -3 0 0 0 0];

internalField   nonuniform List<scalar> 
400
(
2.6407e-05
2.64065e-05
2.64063e-05
2.64059e-05
2.64058e-05
2.64054e-05
2.64054e-05
2.6405e-05
2.6405e-05
2.64047e-05
2.64049e-05
2.64044e-05
2.64047e-05
2.64043e-05
2.64045e-05
2.64042e-05
2.64044e-05
2.64043e-05
2.64043e-05
2.64043e-05
3.62936e-05
3.5014e-05
3.51117e-05
3.5152e-05
3.52343e-05
3.52771e-05
3.53599e-05
3.54049e-05
3.54885e-05
3.55356e-05
3.562e-05
3.56693e-05
3.57545e-05
3.58059e-05
3.5892e-05
3.59455e-05
3.60325e-05
3.60882e-05
3.61323e-05
3.62046e-05
5.0131e-05
4.81198e-05
4.82731e-05
4.83363e-05
4.84652e-05
4.85322e-05
4.8662e-05
4.87322e-05
4.88631e-05
4.89365e-05
4.90685e-05
4.9145e-05
4.92782e-05
4.93579e-05
4.94923e-05
4.95752e-05
4.97109e-05
4.97969e-05
4.98656e-05
4.99778e-05
6.19043e-05
5.92017e-05
5.94049e-05
5.94888e-05
5.96602e-05
5.97495e-05
5.99221e-05
6.0016e-05
6.01903e-05
6.02886e-05
6.04645e-05
6.05674e-05
6.0745e-05
6.08524e-05
6.10318e-05
6.11437e-05
6.1325e-05
6.14415e-05
6.15333e-05
6.16841e-05
6.97712e-05
6.65762e-05
6.68143e-05
6.69128e-05
6.71139e-05
6.72189e-05
6.74217e-05
6.75323e-05
6.7737e-05
6.78531e-05
6.80599e-05
6.81814e-05
6.83904e-05
6.85174e-05
6.87287e-05
6.88613e-05
6.90748e-05
6.9213e-05
6.93213e-05
6.94995e-05
7.44347e-05
7.09394e-05
7.11984e-05
7.13057e-05
7.15248e-05
7.16394e-05
7.18603e-05
7.1981e-05
7.22042e-05
7.2331e-05
7.25566e-05
7.26894e-05
7.29175e-05
7.30565e-05
7.32871e-05
7.34322e-05
7.36654e-05
7.38169e-05
7.39351e-05
7.41301e-05
7.71179e-05
7.34482e-05
7.37195e-05
7.38318e-05
7.40613e-05
7.41814e-05
7.44128e-05
7.45395e-05
7.47733e-05
7.49064e-05
7.51427e-05
7.52824e-05
7.55213e-05
7.56674e-05
7.5909e-05
7.60618e-05
7.63061e-05
7.64655e-05
7.65894e-05
7.67942e-05
7.87475e-05
7.49711e-05
7.52496e-05
7.53651e-05
7.56009e-05
7.57243e-05
7.59622e-05
7.60924e-05
7.63327e-05
7.64696e-05
7.67126e-05
7.68562e-05
7.71019e-05
7.72522e-05
7.75007e-05
7.76578e-05
7.79092e-05
7.80732e-05
7.82007e-05
7.84114e-05
7.98697e-05
7.60205e-05
7.63043e-05
7.64218e-05
7.6662e-05
7.67877e-05
7.703e-05
7.71627e-05
7.74074e-05
7.7547e-05
7.77944e-05
7.79409e-05
7.81911e-05
7.83445e-05
7.85975e-05
7.87578e-05
7.90139e-05
7.91812e-05
7.93111e-05
7.95259e-05
8.0778e-05
7.68694e-05
7.71573e-05
7.72765e-05
7.75202e-05
7.76478e-05
7.78936e-05
7.80283e-05
7.82766e-05
7.84183e-05
7.86694e-05
7.88181e-05
7.9072e-05
7.92278e-05
7.94846e-05
7.96474e-05
7.99073e-05
8.00773e-05
8.02091e-05
8.04272e-05
8.16233e-05
7.76601e-05
7.79518e-05
7.80726e-05
7.83196e-05
7.84489e-05
7.8698e-05
7.88345e-05
7.90862e-05
7.92299e-05
7.94843e-05
7.96351e-05
7.98925e-05
8.00505e-05
8.03108e-05
8.0476e-05
8.07394e-05
8.09118e-05
8.10455e-05
8.12666e-05
8.24915e-05
7.84713e-05
7.87668e-05
7.88893e-05
7.91397e-05
7.92707e-05
7.95232e-05
7.96616e-05
7.99168e-05
8.00625e-05
8.03205e-05
8.04734e-05
8.07343e-05
8.08945e-05
8.11585e-05
8.1326e-05
8.15932e-05
8.17681e-05
8.19036e-05
8.21279e-05
8.34339e-05
7.93526e-05
7.96524e-05
7.97766e-05
8.00306e-05
8.01636e-05
8.04198e-05
8.05603e-05
8.08192e-05
8.09671e-05
8.12288e-05
8.13841e-05
8.16489e-05
8.18116e-05
8.20794e-05
8.22496e-05
8.25207e-05
8.26984e-05
8.2836e-05
8.30637e-05
8.44932e-05
8.03423e-05
8.06468e-05
8.07731e-05
8.10312e-05
8.11663e-05
8.14267e-05
8.15695e-05
8.18326e-05
8.1983e-05
8.22491e-05
8.2407e-05
8.26761e-05
8.28416e-05
8.31139e-05
8.3287e-05
8.35626e-05
8.37434e-05
8.38832e-05
8.41148e-05
8.57095e-05
8.14784e-05
8.17884e-05
8.1917e-05
8.21798e-05
8.23175e-05
8.25826e-05
8.27282e-05
8.29961e-05
8.31494e-05
8.34204e-05
8.35813e-05
8.38555e-05
8.40241e-05
8.43016e-05
8.4478e-05
8.47588e-05
8.49431e-05
8.50857e-05
8.53217e-05
8.71277e-05
8.28028e-05
8.31192e-05
8.32506e-05
8.3519e-05
8.36596e-05
8.39303e-05
8.4079e-05
8.43526e-05
8.45092e-05
8.4786e-05
8.49505e-05
8.52305e-05
8.54029e-05
8.56864e-05
8.58668e-05
8.61536e-05
8.63421e-05
8.64878e-05
8.6729e-05
8.87795e-05
8.4345e-05
8.46689e-05
8.48034e-05
8.50782e-05
8.52222e-05
8.54995e-05
8.56518e-05
8.59321e-05
8.60927e-05
8.63761e-05
8.65448e-05
8.68317e-05
8.70085e-05
8.72989e-05
8.7484e-05
8.77779e-05
8.79713e-05
8.81205e-05
8.83679e-05
9.06028e-05
8.60498e-05
8.63818e-05
8.65196e-05
8.68013e-05
8.6949e-05
8.72333e-05
8.73897e-05
8.76771e-05
8.7842e-05
8.81327e-05
8.83061e-05
8.86003e-05
8.87822e-05
8.90799e-05
8.92704e-05
8.95719e-05
8.9771e-05
8.99241e-05
9.01782e-05
9.22994e-05
8.77458e-05
8.80703e-05
8.8205e-05
8.8482e-05
8.86281e-05
8.89084e-05
8.90645e-05
8.9349e-05
8.95149e-05
8.98038e-05
8.99796e-05
9.02731e-05
9.04588e-05
9.07573e-05
9.09531e-05
9.12566e-05
9.14626e-05
9.16174e-05
9.18772e-05
9.29596e-05
9.29576e-05
9.29568e-05
9.29556e-05
9.29548e-05
9.29541e-05
9.29534e-05
9.29529e-05
9.29526e-05
9.2952e-05
9.29519e-05
9.29514e-05
9.29514e-05
9.29511e-05
9.29511e-05
9.29509e-05
9.29509e-05
9.29509e-05
9.29509e-05
9.29509e-05
)
;

boundaryField
{
    movingWall
    {
        type            zeroGradient;
    }
    fixedWalls
    {
        type            zeroGradient;
    }
    frontAndBack
    {
        type            empty;
    }
}


// ************************************************************************* //
