/*--------------------------------*- C++ -*----------------------------------*\
| =========                 |                                                 |
| \\      /  F ield         | OpenFOAM: The Open Source CFD Toolbox           |
|  \\    /   O peration     | Version:  2312                                  |
|   \\  /    A nd           | Website:  www.openfoam.com                      |
|    \\/     M anipulation  |                                                 |
\*---------------------------------------------------------------------------*/
FoamFile
{
    version     2.0;
    format      ascii;
    arch        "LSB;label=32;scalar=64";
    class       volVectorField;
    location    "8.75";
    object      diffU;
}
// * * * * * * * * * * * * * * * * * * * * * * * * * * * * * * * * * * * * * //

dimensions      [0 1 -1 0 0 0 0];

internalField   nonuniform List<vector> 
400
(
(0 0 0)
(7.32747e-15 -1.23704e-13 0)
(5.77316e-15 -9.75924e-14 0)
(5.55112e-15 -1.03653e-13 0)
(5.55112e-15 -1.02355e-13 0)
(5.44009e-15 -1.02499e-13 0)
(5.21805e-15 -1.02346e-13 0)
(5.10703e-15 -1.02412e-13 0)
(4.88498e-15 -1.02472e-13 0)
(4.44089e-15 -1.02594e-13 0)
(4.77396e-15 -1.02715e-13 0)
(4.77396e-15 -1.02668e-13 0)
(4.77396e-15 -1.02649e-13 0)
(4.77396e-15 -1.02682e-13 0)
(4.77396e-15 -1.02674e-13 0)
(4.77396e-15 -1.02641e-13 0)
(4.996e-15 -1.02568e-13 0)
(4.66294e-15 -1.02513e-13 0)
(4.44089e-15 -1.02548e-13 0)
(4.44089e-15 -1.02653e-13 0)
(1.13243e-14 -8.35411e-14 0)
(1.77636e-15 -1.06303e-13 0)
(4.21885e-15 -1.01644e-13 0)
(4.66294e-15 -1.02905e-13 0)
(4.21885e-15 -1.02635e-13 0)
(4.44089e-15 -1.02524e-13 0)
(4.44089e-15 -1.0246e-13 0)
(4.66294e-15 -1.02555e-13 0)
(5.10703e-15 -1.02484e-13 0)
(4.996e-15 -1.02503e-13 0)
(4.996e-15 -1.02554e-13 0)
(4.66294e-15 -1.02522e-13 0)
(4.66294e-15 -1.02575e-13 0)
(4.44089e-15 -1.02609e-13 0)
(4.66294e-15 -1.02594e-13 0)
(4.21885e-15 -1.02572e-13 0)
(4.44089e-15 -1.02545e-13 0)
(4.44089e-15 -1.02527e-13 0)
(4.44089e-15 -1.02656e-13 0)
(4.66294e-15 -1.02723e-13 0)
(1.45439e-14 -1.7817e-13 0)
(2.22045e-15 -8.70077e-14 0)
(4.88498e-15 -1.06201e-13 0)
(3.77476e-15 -1.01963e-13 0)
(4.44089e-15 -1.02831e-13 0)
(3.9968e-15 -1.02625e-13 0)
(3.9968e-15 -1.02725e-13 0)
(4.21885e-15 -1.02678e-13 0)
(4.44089e-15 -1.02519e-13 0)
(4.21885e-15 -1.02516e-13 0)
(3.9968e-15 -1.02475e-13 0)
(4.66294e-15 -1.02496e-13 0)
(4.44089e-15 -1.02577e-13 0)
(4.44089e-15 -1.0256e-13 0)
(4.44089e-15 -1.0256e-13 0)
(4.44089e-15 -1.0262e-13 0)
(4.44089e-15 -1.02681e-13 0)
(4.88498e-15 -1.027e-13 0)
(4.77396e-15 -1.02761e-13 0)
(4.77396e-15 -1.02695e-13 0)
(-1.28786e-14 -8.35791e-14 0)
(8.77076e-15 -1.06154e-13 0)
(3.9968e-15 -1.01804e-13 0)
(4.77396e-15 -1.0279e-13 0)
(4.44089e-15 -1.02555e-13 0)
(4.21885e-15 -1.02577e-13 0)
(4.21885e-15 -1.02601e-13 0)
(4.21885e-15 -1.02676e-13 0)
(4.44089e-15 -1.02745e-13 0)
(4.77396e-15 -1.02735e-13 0)
(4.77396e-15 -1.02644e-13 0)
(4.996e-15 -1.02547e-13 0)
(4.77396e-15 -1.02556e-13 0)
(4.66294e-15 -1.02631e-13 0)
(4.88498e-15 -1.0268e-13 0)
(4.88498e-15 -1.02732e-13 0)
(4.77396e-15 -1.0276e-13 0)
(4.77396e-15 -1.02695e-13 0)
(4.66294e-15 -1.02682e-13 0)
(4.66294e-15 -1.02674e-13 0)
(1.79856e-14 -7.10938e-14 0)
(1.77636e-15 -1.09386e-13 0)
(5.66214e-15 -1.00953e-13 0)
(4.88498e-15 -1.02828e-13 0)
(4.88498e-15 -1.02434e-13 0)
(4.77396e-15 -1.02649e-13 0)
(5.32907e-15 -1.02734e-13 0)
(5.32907e-15 -1.02874e-13 0)
(5.44009e-15 -1.02953e-13 0)
(5.21805e-15 -1.02756e-13 0)
(5.10703e-15 -1.02467e-13 0)
(5.10703e-15 -1.02325e-13 0)
(5.10703e-15 -1.02377e-13 0)
(5.10703e-15 -1.02597e-13 0)
(4.996e-15 -1.02723e-13 0)
(4.996e-15 -1.0273e-13 0)
(4.996e-15 -1.02686e-13 0)
(4.66294e-15 -1.02659e-13 0)
(4.88498e-15 -1.02691e-13 0)
(4.88498e-15 -1.02666e-13 0)
(-6.66134e-15 -1.64444e-13 0)
(7.77156e-15 -8.95416e-14 0)
(4.77396e-15 -1.05564e-13 0)
(5.44009e-15 -1.01702e-13 0)
(4.88498e-15 -1.02571e-13 0)
(5.10703e-15 -1.02673e-13 0)
(4.88498e-15 -1.02811e-13 0)
(4.996e-15 -1.02687e-13 0)
(4.66294e-15 -1.02587e-13 0)
(4.21885e-15 -1.02605e-13 0)
(4.44089e-15 -1.02649e-13 0)
(4.44089e-15 -1.0268e-13 0)
(4.77396e-15 -1.0268e-13 0)
(4.996e-15 -1.02643e-13 0)
(5.10703e-15 -1.02615e-13 0)
(4.88498e-15 -1.02644e-13 0)
(4.996e-15 -1.02585e-13 0)
(4.996e-15 -1.02525e-13 0)
(4.88498e-15 -1.02568e-13 0)
(4.66294e-15 -1.0262e-13 0)
(1.74305e-14 -3.2046e-14 0)
(3.55271e-15 -1.16703e-13 0)
(5.88418e-15 -9.90456e-14 0)
(4.44089e-15 -1.02985e-13 0)
(4.996e-15 -1.02255e-13 0)
(5.21805e-15 -1.026e-13 0)
(4.88498e-15 -1.02662e-13 0)
(4.88498e-15 -1.02603e-13 0)
(4.88498e-15 -1.02521e-13 0)
(4.996e-15 -1.02517e-13 0)
(4.996e-15 -1.02617e-13 0)
(4.77396e-15 -1.02643e-13 0)
(4.66294e-15 -1.02655e-13 0)
(4.21885e-15 -1.02606e-13 0)
(4.21885e-15 -1.02642e-13 0)
(4.44089e-15 -1.027e-13 0)
(4.44089e-15 -1.02632e-13 0)
(4.44089e-15 -1.02488e-13 0)
(4.77396e-15 -1.02514e-13 0)
(4.77396e-15 -1.02606e-13 0)
(-1.06581e-14 -1.13882e-13 0)
(5.44009e-15 -1.0068e-13 0)
(1.77636e-15 -1.02852e-13 0)
(4.88498e-15 -1.0246e-13 0)
(4.21885e-15 -1.02646e-13 0)
(4.66294e-15 -1.02631e-13 0)
(4.44089e-15 -1.02527e-13 0)
(4.21885e-15 -1.02457e-13 0)
(3.9968e-15 -1.02352e-13 0)
(4.21885e-15 -1.02399e-13 0)
(3.9968e-15 -1.02496e-13 0)
(4.21885e-15 -1.02563e-13 0)
(4.21885e-15 -1.02553e-13 0)
(4.21885e-15 -1.0259e-13 0)
(4.44089e-15 -1.02728e-13 0)
(4.66294e-15 -1.02785e-13 0)
(4.44089e-15 -1.02786e-13 0)
(4.44089e-15 -1.02735e-13 0)
(4.44089e-15 -1.02634e-13 0)
(4.66294e-15 -1.0259e-13 0)
(1.27676e-14 -1.84514e-13 0)
(4.44089e-15 -8.55661e-14 0)
(6.32827e-15 -1.06653e-13 0)
(4.66294e-15 -1.01766e-13 0)
(4.88498e-15 -1.02809e-13 0)
(4.44089e-15 -1.02567e-13 0)
(4.66294e-15 -1.02429e-13 0)
(4.44089e-15 -1.02373e-13 0)
(4.44089e-15 -1.0244e-13 0)
(4.66294e-15 -1.02601e-13 0)
(4.996e-15 -1.02755e-13 0)
(5.10703e-15 -1.02813e-13 0)
(4.88498e-15 -1.02724e-13 0)
(4.996e-15 -1.02564e-13 0)
(4.996e-15 -1.02655e-13 0)
(4.88498e-15 -1.02728e-13 0)
(5.10703e-15 -1.02762e-13 0)
(4.77396e-15 -1.02759e-13 0)
(4.66294e-15 -1.02634e-13 0)
(4.66294e-15 -1.02574e-13 0)
(0 1.80378e-14 0)
(5.55112e-15 -1.28022e-13 0)
(4.44089e-15 -9.6564e-14 0)
(4.44089e-15 -1.03812e-13 0)
(4.44089e-15 -1.02197e-13 0)
(4.66294e-15 -1.02495e-13 0)
(4.77396e-15 -1.02401e-13 0)
(4.66294e-15 -1.02442e-13 0)
(4.996e-15 -1.02552e-13 0)
(4.996e-15 -1.02579e-13 0)
(4.66294e-15 -1.02572e-13 0)
(4.88498e-15 -1.02543e-13 0)
(4.77396e-15 -1.02575e-13 0)
(4.44089e-15 -1.02665e-13 0)
(4.996e-15 -1.02759e-13 0)
(4.996e-15 -1.02711e-13 0)
(4.77396e-15 -1.02625e-13 0)
(4.77396e-15 -1.02633e-13 0)
(4.66294e-15 -1.02582e-13 0)
(4.66294e-15 -1.02571e-13 0)
(3.55271e-15 -1.95411e-13 0)
(3.10862e-15 -8.32263e-14 0)
(3.77476e-15 -1.07103e-13 0)
(4.21885e-15 -1.01752e-13 0)
(4.44089e-15 -1.02891e-13 0)
(4.21885e-15 -1.02563e-13 0)
(4.21885e-15 -1.02631e-13 0)
(4.44089e-15 -1.026e-13 0)
(4.44089e-15 -1.02541e-13 0)
(4.66294e-15 -1.02557e-13 0)
(4.44089e-15 -1.02586e-13 0)
(4.88498e-15 -1.02632e-13 0)
(4.77396e-15 -1.02662e-13 0)
(5.10703e-15 -1.0282e-13 0)
(4.996e-15 -1.02705e-13 0)
(4.66294e-15 -1.02611e-13 0)
(4.77396e-15 -1.02631e-13 0)
(4.66294e-15 -1.02631e-13 0)
(4.66294e-15 -1.02595e-13 0)
(4.77396e-15 -1.026e-13 0)
(2.0095e-14 -7.21084e-14 0)
(3.77476e-15 -1.08739e-13 0)
(7.21645e-15 -1.01014e-13 0)
(4.88498e-15 -1.02812e-13 0)
(5.44009e-15 -1.02456e-13 0)
(4.996e-15 -1.02484e-13 0)
(5.32907e-15 -1.0253e-13 0)
(4.996e-15 -1.02657e-13 0)
(5.21805e-15 -1.0275e-13 0)
(5.10703e-15 -1.0274e-13 0)
(5.21805e-15 -1.02638e-13 0)
(5.21805e-15 -1.02535e-13 0)
(5.21805e-15 -1.02603e-13 0)
(4.996e-15 -1.02607e-13 0)
(4.77396e-15 -1.02486e-13 0)
(4.77396e-15 -1.02511e-13 0)
(4.66294e-15 -1.02608e-13 0)
(4.66294e-15 -1.02599e-13 0)
(4.77396e-15 -1.02638e-13 0)
(4.66294e-15 -1.02633e-13 0)
(-1.39888e-14 -7.04594e-14 0)
(6.10623e-15 -1.08852e-13 0)
(1.9984e-15 -1.00931e-13 0)
(4.21885e-15 -1.02836e-13 0)
(3.9968e-15 -1.02533e-13 0)
(4.21885e-15 -1.02596e-13 0)
(4.21885e-15 -1.02583e-13 0)
(4.44089e-15 -1.02697e-13 0)
(4.44089e-15 -1.02716e-13 0)
(4.44089e-15 -1.02604e-13 0)
(3.9968e-15 -1.02525e-13 0)
(3.9968e-15 -1.02508e-13 0)
(4.21885e-15 -1.02687e-13 0)
(4.21885e-15 -1.02637e-13 0)
(3.9968e-15 -1.0248e-13 0)
(4.21885e-15 -1.02468e-13 0)
(4.21885e-15 -1.0261e-13 0)
(4.21885e-15 -1.02693e-13 0)
(4.44089e-15 -1.02773e-13 0)
(4.44089e-15 -1.02732e-13 0)
(1.55431e-14 -1.67878e-13 0)
(3.77476e-15 -8.88027e-14 0)
(5.9952e-15 -1.05745e-13 0)
(4.88498e-15 -1.01913e-13 0)
(4.88498e-15 -1.02856e-13 0)
(4.88498e-15 -1.02629e-13 0)
(4.996e-15 -1.02611e-13 0)
(4.88498e-15 -1.02571e-13 0)
(4.77396e-15 -1.025e-13 0)
(4.44089e-15 -1.02449e-13 0)
(4.21885e-15 -1.02606e-13 0)
(4.44089e-15 -1.02781e-13 0)
(4.66294e-15 -1.02756e-13 0)
(4.44089e-15 -1.02622e-13 0)
(4.44089e-15 -1.0254e-13 0)
(4.77396e-15 -1.02569e-13 0)
(4.996e-15 -1.02722e-13 0)
(4.88498e-15 -1.02759e-13 0)
(4.88498e-15 -1.02768e-13 0)
(4.66294e-15 -1.02752e-13 0)
(-4.44089e-15 -2.6241e-14 0)
(6.10623e-15 -1.19067e-13 0)
(3.55271e-15 -9.86698e-14 0)
(4.66294e-15 -1.0342e-13 0)
(4.44089e-15 -1.02363e-13 0)
(4.21885e-15 -1.02536e-13 0)
(4.44089e-15 -1.02508e-13 0)
(4.21885e-15 -1.02513e-13 0)
(3.9968e-15 -1.02486e-13 0)
(4.44089e-15 -1.02521e-13 0)
(4.77396e-15 -1.02602e-13 0)
(4.66294e-15 -1.02586e-13 0)
(4.44089e-15 -1.02498e-13 0)
(4.21885e-15 -1.02562e-13 0)
(4.44089e-15 -1.02754e-13 0)
(4.77396e-15 -1.02753e-13 0)
(4.77396e-15 -1.02702e-13 0)
(4.44089e-15 -1.02645e-13 0)
(4.77396e-15 -1.02625e-13 0)
(4.88498e-15 -1.02618e-13 0)
(1.05471e-14 -1.61308e-13 0)
(1.55431e-15 -8.98888e-14 0)
(3.77476e-15 -1.05797e-13 0)
(3.9968e-15 -1.02109e-13 0)
(3.77476e-15 -1.02848e-13 0)
(4.21885e-15 -1.0264e-13 0)
(4.44089e-15 -1.02621e-13 0)
(4.21885e-15 -1.02544e-13 0)
(4.21885e-15 -1.02502e-13 0)
(4.21885e-15 -1.02512e-13 0)
(4.21885e-15 -1.02545e-13 0)
(3.9968e-15 -1.02655e-13 0)
(4.44089e-15 -1.02682e-13 0)
(4.66294e-15 -1.02817e-13 0)
(4.44089e-15 -1.0286e-13 0)
(4.44089e-15 -1.02781e-13 0)
(4.66294e-15 -1.02626e-13 0)
(4.66294e-15 -1.02636e-13 0)
(4.66294e-15 -1.02637e-13 0)
(4.66294e-15 -1.0258e-13 0)
(-1.55431e-14 -1.08199e-13 0)
(1.02141e-14 -1.02136e-13 0)
(3.9968e-15 -1.02986e-13 0)
(4.88498e-15 -1.02715e-13 0)
(4.44089e-15 -1.02715e-13 0)
(4.44089e-15 -1.02724e-13 0)
(4.21885e-15 -1.02611e-13 0)
(4.44089e-15 -1.02512e-13 0)
(4.44089e-15 -1.0253e-13 0)
(4.44089e-15 -1.02644e-13 0)
(4.88498e-15 -1.0268e-13 0)
(4.66294e-15 -1.02745e-13 0)
(4.66294e-15 -1.02717e-13 0)
(4.66294e-15 -1.02758e-13 0)
(4.21885e-15 -1.02727e-13 0)
(4.21885e-15 -1.02751e-13 0)
(4.21885e-15 -1.02689e-13 0)
(4.44089e-15 -1.02713e-13 0)
(4.44089e-15 -1.02713e-13 0)
(4.77396e-15 -1.02651e-13 0)
(1.84297e-14 -1.9824e-14 0)
(2.44249e-15 -1.20374e-13 0)
(5.9952e-15 -9.83268e-14 0)
(4.77396e-15 -1.03373e-13 0)
(5.10703e-15 -1.02238e-13 0)
(4.996e-15 -1.02589e-13 0)
(4.88498e-15 -1.02662e-13 0)
(5.10703e-15 -1.02709e-13 0)
(5.21805e-15 -1.02754e-13 0)
(5.32907e-15 -1.02776e-13 0)
(5.21805e-15 -1.02686e-13 0)
(5.32907e-15 -1.02551e-13 0)
(4.996e-15 -1.02519e-13 0)
(4.996e-15 -1.02612e-13 0)
(4.88498e-15 -1.02719e-13 0)
(4.88498e-15 -1.02776e-13 0)
(4.77396e-15 -1.02716e-13 0)
(4.77396e-15 -1.0266e-13 0)
(4.66294e-15 -1.02677e-13 0)
(4.66294e-15 -1.02677e-13 0)
(1.9762e-14 -1.48479e-13 0)
(0 -9.23125e-14 0)
(4.66294e-15 -1.05003e-13 0)
(4.44089e-15 -1.02013e-13 0)
(4.66294e-15 -1.02729e-13 0)
(4.88498e-15 -1.02626e-13 0)
(4.88498e-15 -1.02726e-13 0)
(4.996e-15 -1.02704e-13 0)
(4.88498e-15 -1.0275e-13 0)
(4.77396e-15 -1.02722e-13 0)
(4.77396e-15 -1.02681e-13 0)
(4.77396e-15 -1.02616e-13 0)
(4.88498e-15 -1.02499e-13 0)
(4.88498e-15 -1.02594e-13 0)
(4.996e-15 -1.02641e-13 0)
(4.88498e-15 -1.02695e-13 0)
(4.77396e-15 -1.02678e-13 0)
(4.66294e-15 -1.02615e-13 0)
(4.77396e-15 -1.02595e-13 0)
(4.88498e-15 -1.02603e-13 0)
(-3.9968e-15 -1.64725e-13 0)
(7.99361e-15 -8.97794e-14 0)
(5.55112e-15 -1.05744e-13 0)
(5.55112e-15 -1.02072e-13 0)
(5.44009e-15 -1.02906e-13 0)
(5.44009e-15 -1.02738e-13 0)
(5.10703e-15 -1.02729e-13 0)
(5.21805e-15 -1.02666e-13 0)
(4.996e-15 -1.02699e-13 0)
(4.66294e-15 -1.02732e-13 0)
(4.66294e-15 -1.02713e-13 0)
(4.44089e-15 -1.02656e-13 0)
(4.66294e-15 -1.02544e-13 0)
(4.66294e-15 -1.02583e-13 0)
(4.44089e-15 -1.02583e-13 0)
(4.77396e-15 -1.0262e-13 0)
(4.66294e-15 -1.02668e-13 0)
(4.44089e-15 -1.02648e-13 0)
(4.44089e-15 -1.02603e-13 0)
(4.77396e-15 -1.02576e-13 0)
)
;

boundaryField
{
    movingWall
    {
        type            calculated;
        value           uniform (4.66294e-15 -1.02615e-13 0);
    }
    fixedWalls
    {
        type            calculated;
        value           uniform (4.66294e-15 -1.02615e-13 0);
    }
    frontAndBack
    {
        type            empty;
    }
}


// ************************************************************************* //
