/*--------------------------------*- C++ -*----------------------------------*\
| =========                 |                                                 |
| \\      /  F ield         | OpenFOAM: The Open Source CFD Toolbox           |
|  \\    /   O peration     | Version:  2312                                  |
|   \\  /    A nd           | Website:  www.openfoam.com                      |
|    \\/     M anipulation  |                                                 |
\*---------------------------------------------------------------------------*/
FoamFile
{
    version     2.0;
    format      ascii;
    arch        "LSB;label=32;scalar=64";
    class       volScalarField;
    location    "8.75";
    object      divPhi;
}
// * * * * * * * * * * * * * * * * * * * * * * * * * * * * * * * * * * * * * //

dimensions      [0 0 -1 0 0 0 0];

internalField   nonuniform List<scalar> 
400
(
8.13152e-14
-2.19475e-14
1.05106e-14
7.74453e-15
-1.65302e-14
-3.90941e-15
1.65189e-15
1.38877e-14
5.86677e-15
-3.25623e-15
-1.65206e-14
1.77239e-14
5.39954e-15
-6.96051e-15
-1.06713e-14
-4.66947e-15
1.10586e-14
-2.4732e-15
-9.26764e-15
2.71051e-14
0
-7.11101e-15
1.59058e-14
1.07651e-14
1.29115e-14
-2.00754e-14
4.5659e-15
-1.25246e-14
1.94761e-14
-4.03477e-14
2.40139e-14
-2.10638e-14
7.3357e-15
4.44722e-15
-2.00284e-14
1.06506e-14
-1.85477e-14
5.72539e-15
-3.20952e-15
-2.71051e-14
0
1.58635e-14
-2.76276e-14
1.3795e-14
5.16096e-15
-3.5845e-16
9.44193e-15
-1.46596e-14
3.55168e-15
-4.91395e-14
1.84425e-14
2.05494e-14
1.41177e-15
2.24457e-15
-1.96773e-14
7.63283e-15
-5.0852e-15
1.52501e-15
9.66139e-15
0
0
-1.41974e-14
2.19374e-14
-1.62721e-14
2.41556e-14
6.4678e-15
2.40634e-14
4.77202e-15
3.88766e-15
2.17506e-14
-2.53403e-14
-3.29941e-15
8.53772e-15
7.72393e-15
1.02151e-14
1.54433e-14
-1.7373e-14
-6.71215e-15
-1.27818e-14
0
0
1.46249e-14
-1.58367e-14
2.80092e-15
2.19134e-14
-1.1951e-14
-6.60063e-15
1.80177e-14
-1.78884e-14
6.25172e-15
-4.30458e-15
-1.75474e-14
2.565e-14
3.20397e-15
1.01941e-14
-2.46442e-14
5.18651e-17
-2.61131e-14
-1.2304e-14
0
2.71051e-14
-1.88912e-14
1.9499e-14
-1.58229e-14
3.92472e-15
-3.04462e-14
3.84338e-15
-4.74242e-15
3.54287e-14
-2.3685e-14
1.17281e-14
4.00034e-15
2.91299e-16
5.3563e-15
2.15622e-14
-9.46405e-15
-2.79237e-15
-1.9491e-15
2.19709e-15
0
-2.71051e-14
-2.93161e-15
-9.33728e-16
4.11009e-15
1.36349e-14
5.80642e-15
-8.62747e-15
1.13954e-14
-1.31701e-14
1.15728e-14
2.05588e-14
-1.02632e-14
1.43406e-14
-8.72077e-15
1.7752e-14
-2.62328e-14
6.58856e-15
6.21179e-15
-2.19147e-14
0
0
6.225e-15
-1.97747e-15
1.83798e-14
1.45648e-14
-8.69244e-15
-9.90293e-15
3.40105e-14
-2.61858e-14
3.64549e-14
-2.63016e-14
4.52587e-15
-3.10511e-14
1.70456e-15
1.41056e-14
-2.02351e-14
1.23619e-15
1.33961e-14
-1.17356e-14
0
2.71051e-14
-2.42761e-15
1.50826e-14
-4.01125e-14
-6.6859e-15
-4.6215e-15
4.30258e-15
2.48061e-15
-5.04196e-15
2.50819e-14
-2.0195e-14
1.44011e-14
4.26131e-15
8.59141e-15
-4.04398e-14
2.60984e-14
-2.56183e-14
1.82121e-14
-2.02172e-14
0
-2.71051e-14
-1.16152e-14
6.54818e-15
-1.75324e-14
1.06844e-14
-7.92788e-15
2.22593e-14
-1.0929e-14
-3.58205e-15
1.46929e-14
1.12266e-14
9.65232e-15
1.94484e-14
-3.42872e-15
-1.45216e-14
1.21862e-14
-1.78104e-14
-3.49488e-15
4.52504e-15
0
0
-5.90873e-15
1.78525e-14
1.80928e-14
-3.97392e-15
-7.79768e-15
-2.01921e-14
-3.73793e-14
9.4103e-15
-6.23396e-15
-1.91844e-14
1.85965e-14
1.09666e-14
5.73503e-15
1.68812e-14
2.22188e-14
-4.31434e-15
-1.08027e-15
-1.80574e-15
0
0
-3.23337e-14
9.18064e-15
-3.11439e-14
1.43124e-14
1.12059e-14
-1.4593e-14
-1.18379e-15
1.05247e-14
1.09778e-14
-8.67287e-15
6.30912e-15
2.82537e-14
-2.44464e-14
1.15426e-16
-1.19955e-14
-3.20037e-14
-4.15687e-15
-1.52134e-14
0
0
6.11326e-17
1.72533e-14
-6.23824e-15
-8.46742e-15
2.81661e-14
6.05282e-15
-1.17304e-14
2.01362e-14
1.31653e-14
-9.7723e-15
-5.65021e-15
-2.49777e-14
1.9503e-14
-5.00869e-15
-2.05108e-14
-4.41618e-15
1.30129e-15
1.59112e-14
-2.71051e-14
0
-2.61782e-15
-2.31069e-14
-5.38327e-15
-5.89002e-15
4.97762e-15
6.43539e-15
-9.41495e-15
4.85782e-15
1.71888e-14
-4.1565e-14
9.029e-15
1.58812e-14
-2.7705e-14
-1.09967e-14
1.21255e-14
5.97477e-15
1.49695e-14
-4.26957e-15
0
0
5.02436e-15
1.31604e-14
-6.01545e-15
-2.14543e-14
9.6096e-15
-1.61282e-14
-1.47387e-14
-9.93252e-15
-9.40244e-16
1.77928e-14
4.38906e-15
-7.04951e-15
-1.48781e-15
-1.46642e-14
2.11519e-14
2.19428e-14
-1.24314e-14
1.09106e-14
2.71051e-14
0
7.22888e-15
-1.53439e-14
-1.39219e-15
2.34464e-14
9.55974e-15
1.90001e-15
2.2384e-14
-4.95684e-15
1.88208e-14
-1.00488e-14
5.33738e-15
-1.83937e-14
9.34165e-15
-5.71764e-15
-5.88701e-15
1.23667e-14
-4.83944e-15
2.58083e-14
-2.71051e-14
0
8.85913e-15
1.44846e-14
-2.71742e-15
2.09948e-15
2.3785e-14
-3.47127e-14
-3.90733e-16
-2.35581e-14
-1.9747e-14
2.0583e-15
1.73698e-14
-9.50372e-15
-6.70058e-15
-1.56479e-14
1.88319e-15
1.13502e-14
1.00483e-14
4.29899e-15
0
0
8.52051e-15
-2.38381e-14
7.25447e-15
1.66017e-14
-9.12376e-16
-3.65404e-14
8.8463e-15
-1.0849e-14
8.98821e-16
1.96428e-14
-1.20513e-14
6.9572e-16
3.97723e-15
1.34831e-14
1.35061e-16
8.24632e-15
-4.63064e-15
1.81102e-16
2.71051e-14
0
2.62559e-14
-1.17658e-14
3.3464e-14
-3.45081e-15
-1.33748e-14
-2.8566e-14
1.40957e-14
-1.75678e-14
9.93631e-16
-1.81963e-14
-1.18486e-14
-7.4222e-15
-1.71893e-15
1.88596e-14
1.8231e-14
-5.83372e-15
-8.42395e-16
1.57386e-15
0
0
0
0
0
-2.71051e-14
0
-2.71051e-14
0
0
-2.71051e-14
2.71051e-14
-2.71051e-14
0
0
0
-2.71051e-14
0
0
2.71051e-14
-2.71051e-14
)
;

boundaryField
{
    movingWall
    {
        type            extrapolatedCalculated;
        value           nonuniform List<scalar> 
20
(
0
0
0
0
-2.71051e-14
0
-2.71051e-14
0
0
-2.71051e-14
2.71051e-14
-2.71051e-14
0
0
0
-2.71051e-14
0
0
2.71051e-14
-2.71051e-14
)
;
    }
    fixedWalls
    {
        type            extrapolatedCalculated;
        value           nonuniform List<scalar> 
60
(
8.13152e-14
0
0
0
0
2.71051e-14
-2.71051e-14
0
2.71051e-14
-2.71051e-14
0
0
0
0
0
0
0
0
0
0
2.71051e-14
-2.71051e-14
0
0
0
0
0
0
0
0
0
0
-2.71051e-14
0
2.71051e-14
-2.71051e-14
0
2.71051e-14
0
-2.71051e-14
8.13152e-14
-2.19475e-14
1.05106e-14
7.74453e-15
-1.65302e-14
-3.90941e-15
1.65189e-15
1.38877e-14
5.86677e-15
-3.25623e-15
-1.65206e-14
1.77239e-14
5.39954e-15
-6.96051e-15
-1.06713e-14
-4.66947e-15
1.10586e-14
-2.4732e-15
-9.26764e-15
2.71051e-14
)
;
    }
    frontAndBack
    {
        type            empty;
    }
}


// ************************************************************************* //
