/*--------------------------------*- C++ -*----------------------------------*\
| =========                 |                                                 |
| \\      /  F ield         | OpenFOAM: The Open Source CFD Toolbox           |
|  \\    /   O peration     | Version:  2312                                  |
|   \\  /    A nd           | Website:  www.openfoam.com                      |
|    \\/     M anipulation  |                                                 |
\*---------------------------------------------------------------------------*/
FoamFile
{
    version     2.0;
    format      ascii;
    arch        "LSB;label=32;scalar=64";
    class       volScalarField;
    location    "8.75";
    object      divU;
}
// * * * * * * * * * * * * * * * * * * * * * * * * * * * * * * * * * * * * * //

dimensions      [0 0 -1 0 0 0 0];

internalField   nonuniform List<scalar> 
400
(
1.19533e-11
-1.88136e-12
4.09686e-13
-1.32789e-13
-3.09168e-15
-6.30475e-15
-1.17341e-14
-7.41302e-16
-2.66992e-14
1.33918e-14
2.32212e-14
4.08985e-15
6.85734e-16
-6.01979e-15
-3.72687e-15
2.89483e-14
1.17792e-14
-3.51866e-14
-5.16142e-14
2.71051e-14
-1.74014e-11
2.9267e-12
-5.59576e-13
1.71756e-13
-5.07104e-14
-1.89134e-14
-4.95821e-14
8.1134e-14
2.28301e-14
-5.9618e-15
2.00873e-14
-3.29225e-14
7.89676e-15
6.20139e-15
-4.65633e-14
-2.31928e-14
2.75917e-14
-2.68134e-14
3.55538e-14
0
7.04731e-13
-9.34435e-13
1.56249e-13
-6.06229e-14
6.57885e-14
-5.13e-14
4.47502e-14
-1.2313e-14
-3.04447e-14
-2.91635e-14
-1.59724e-14
7.30282e-14
-4.44486e-14
4.00977e-15
-9.4305e-16
-1.21581e-14
3.31735e-14
1.05851e-14
5.90813e-15
-2.71051e-14
9.37835e-12
-5.70168e-13
1.11829e-13
-3.87211e-14
-3.00318e-14
5.05823e-16
-1.03905e-14
-3.19363e-14
3.45464e-14
1.02033e-15
3.90368e-14
8.77075e-15
2.63381e-15
3.05176e-16
9.83403e-15
-2.31924e-14
-2.15239e-14
-1.24235e-14
1.28817e-14
2.71051e-14
-7.07442e-12
4.13479e-13
-4.73311e-14
1.57872e-14
-4.5247e-15
-9.14972e-15
4.99214e-14
-5.90404e-15
2.33208e-14
-4.01737e-14
1.14607e-14
-4.58577e-15
-9.73295e-15
-2.79967e-14
1.64014e-14
1.27766e-14
-4.03987e-15
4.58883e-15
5.13804e-14
-5.42101e-14
3.06287e-12
4.40748e-13
-4.63278e-14
8.84514e-17
-4.07964e-14
-4.22992e-15
2.88776e-15
2.12238e-14
-6.90252e-14
-1.6262e-14
2.3572e-14
1.78279e-14
1.66528e-14
2.52504e-14
-2.97373e-14
1.5794e-14
1.3874e-15
2.17197e-14
-1.22444e-14
-2.71051e-14
6.23416e-12
-2.27229e-12
3.87482e-13
-1.84125e-13
8.71433e-14
-5.25634e-18
4.16395e-15
1.7091e-14
3.58061e-14
3.14594e-14
1.17462e-14
-5.17665e-14
-5.19255e-14
-2.3683e-14
-1.3928e-14
1.69566e-15
-1.86955e-14
2.78111e-14
8.24337e-15
-2.71051e-14
-1.67238e-11
4.36502e-12
-8.0695e-13
3.98578e-13
-1.03812e-13
5.75065e-14
-5.3831e-14
1.29615e-14
1.67829e-14
-4.02624e-15
-2.01647e-15
-1.45695e-14
-4.59228e-15
3.47742e-14
6.61648e-14
-1.11812e-15
-5.88027e-14
-2.64045e-14
5.04927e-14
0
1.39862e-11
-3.3836e-12
6.89248e-13
-3.05743e-13
2.24595e-14
-3.72993e-14
6.71858e-14
-3.97241e-14
2.38496e-14
5.05542e-15
4.45981e-14
-1.25371e-14
-6.84756e-15
1.64219e-16
8.83215e-15
6.2393e-15
1.14879e-14
-4.32149e-14
1.44891e-15
0
-1.43657e-12
6.45078e-13
-1.41769e-13
-6.23132e-15
4.13801e-14
-9.83032e-15
1.98923e-14
-8.26126e-15
-1.33787e-14
9.43241e-15
-1.97708e-14
3.27216e-14
-5.48823e-14
-2.54159e-14
5.79749e-14
1.79353e-14
-2.51137e-15
-3.29327e-15
5.36587e-15
0
-9.29703e-12
1.92286e-12
-3.15706e-13
1.47898e-13
-1.1634e-14
-3.58926e-14
-2.0154e-14
-2.69005e-15
2.10051e-14
-6.68471e-15
6.91833e-16
3.34899e-14
2.37048e-14
3.46609e-14
3.96499e-15
-4.33142e-14
-7.58879e-16
9.73457e-17
-2.17145e-16
0
1.39591e-11
-3.86519e-12
7.62297e-13
-3.12851e-13
5.13104e-14
-1.20916e-14
-1.5342e-14
-1.23228e-14
-2.35647e-14
-1.135e-14
3.38727e-14
1.87824e-14
-3.29634e-14
-1.26242e-15
-6.62587e-16
2.51693e-14
-2.57626e-14
-6.11774e-15
-1.80127e-14
0
-1.13028e-11
3.60365e-12
-6.32418e-13
3.19209e-13
-4.29091e-14
-2.65324e-14
3.71462e-15
2.33681e-14
2.85258e-14
-9.29655e-15
-4.42455e-14
2.12901e-14
-2.12491e-14
-2.77232e-15
-6.12625e-15
-7.78909e-15
-1.00612e-14
4.96972e-15
-3.87338e-15
2.71051e-14
5.42101e-12
-1.97149e-12
3.25508e-13
-1.72887e-13
2.8307e-14
6.53517e-15
1.11539e-14
-1.24854e-14
-2.68369e-15
-5.52724e-14
2.22861e-15
4.05436e-14
-2.94625e-14
4.74602e-15
2.07293e-14
1.80077e-14
-1.92993e-14
9.81293e-15
-1.61856e-14
-2.71051e-14
-1.0842e-13
7.11713e-13
-1.94704e-13
1.05625e-13
-5.22096e-14
-2.16572e-14
1.01122e-14
-9.71529e-15
-2.86112e-15
7.39369e-14
8.36402e-15
2.60301e-14
-7.62558e-14
1.23014e-14
1.58421e-14
-3.18701e-15
-9.71603e-15
2.20893e-14
7.81899e-14
-2.71051e-14
-7.91468e-12
1.02243e-12
-2.19755e-13
1.22009e-13
-3.32908e-14
4.08928e-14
-1.85011e-16
-9.56265e-15
-7.22021e-15
-1.96031e-14
-5.36731e-14
3.72855e-14
1.02404e-14
4.68199e-14
-6.27414e-14
5.11523e-14
-8.45957e-15
-1.1822e-14
-1.19569e-14
0
1.26852e-11
-1.10456e-12
2.0205e-13
-8.57039e-14
5.64188e-16
-3.5382e-14
-4.25503e-15
9.79146e-16
-3.24084e-14
3.53121e-14
1.34954e-14
-6.48741e-15
2.65945e-14
-4.10897e-14
-2.1492e-14
-2.55873e-15
-1.74351e-14
1.28463e-14
3.82387e-14
0
-2.87314e-12
-2.57736e-13
5.4527e-14
-4.26363e-14
2.62836e-14
-2.55457e-14
-1.57007e-14
8.83518e-15
-2.68228e-16
2.74656e-14
-1.36673e-14
-2.06736e-14
-5.84403e-15
2.95982e-14
1.41716e-14
3.06336e-15
-1.63411e-14
-4.50292e-15
2.2924e-14
0
-1.3417e-11
1.58204e-12
-3.0772e-13
1.41649e-13
-4.04346e-14
1.37556e-14
4.6803e-15
1.3154e-14
-2.1898e-14
4.7311e-15
1.07534e-14
-4.15447e-15
1.86869e-14
5.36286e-15
6.72836e-16
-8.39051e-15
-1.15659e-14
2.38764e-14
3.03815e-14
-5.42101e-14
1.02457e-11
-1.32815e-12
2.98156e-13
-1.35525e-13
2.71051e-14
-2.71051e-14
-2.71051e-14
2.71051e-14
0
-2.71051e-14
2.71051e-14
-5.42101e-14
2.71051e-14
0
0
0
-5.42101e-14
0
5.42101e-14
0
)
;

boundaryField
{
    movingWall
    {
        type            extrapolatedCalculated;
        value           nonuniform List<scalar> 
20
(
1.02457e-11
-1.32815e-12
2.98156e-13
-1.35525e-13
2.71051e-14
-2.71051e-14
-2.71051e-14
2.71051e-14
0
-2.71051e-14
2.71051e-14
-5.42101e-14
2.71051e-14
0
0
0
-5.42101e-14
0
5.42101e-14
0
)
;
    }
    fixedWalls
    {
        type            extrapolatedCalculated;
        value           nonuniform List<scalar> 
60
(
1.19533e-11
-1.74014e-11
7.04731e-13
9.37835e-12
-7.07442e-12
3.06287e-12
6.23416e-12
-1.67238e-11
1.39862e-11
-1.43657e-12
-9.29703e-12
1.39591e-11
-1.13028e-11
5.42101e-12
-1.0842e-13
-7.91468e-12
1.26852e-11
-2.87314e-12
-1.3417e-11
1.02457e-11
2.71051e-14
0
-2.71051e-14
2.71051e-14
-5.42101e-14
-2.71051e-14
-2.71051e-14
0
0
0
0
0
2.71051e-14
-2.71051e-14
-2.71051e-14
0
0
0
-5.42101e-14
0
1.19533e-11
-1.88136e-12
4.09686e-13
-1.32789e-13
-3.09168e-15
-6.30475e-15
-1.17341e-14
-7.41302e-16
-2.66992e-14
1.33918e-14
2.32212e-14
4.08985e-15
6.85734e-16
-6.01979e-15
-3.72687e-15
2.89483e-14
1.17792e-14
-3.51866e-14
-5.16142e-14
2.71051e-14
)
;
    }
    frontAndBack
    {
        type            empty;
    }
}


// ************************************************************************* //
