/*--------------------------------*- C++ -*----------------------------------*\
| =========                 |                                                 |
| \\      /  F ield         | OpenFOAM: The Open Source CFD Toolbox           |
|  \\    /   O peration     | Version:  2312                                  |
|   \\  /    A nd           | Website:  www.openfoam.com                      |
|    \\/     M anipulation  |                                                 |
\*---------------------------------------------------------------------------*/
FoamFile
{
    version     2.0;
    format      ascii;
    arch        "LSB;label=32;scalar=64";
    class       volScalarField;
    location    "8.75";
    object      enstrophyField;
}
// * * * * * * * * * * * * * * * * * * * * * * * * * * * * * * * * * * * * * //

dimensions      [0 0 -2 0 0 0 0];

internalField   nonuniform List<scalar> 
400
(
3.17041e-23
4.73573e-23
1.90295e-24
1.7093e-25
5.8277e-28
1.42142e-27
1.03854e-27
2.22893e-27
2.61559e-27
2.963e-28
1.90052e-27
2.20751e-29
9.60301e-31
3.07223e-30
8.52823e-30
2.09661e-27
1.03137e-28
1.97222e-30
8.07303e-28
4.22449e-30
2.80934e-27
8.04153e-25
1.00449e-25
2.0155e-27
1.50788e-26
1.17192e-26
8.77198e-27
5.61929e-27
5.20028e-28
2.48614e-29
5.6776e-27
2.15268e-30
1.0345e-27
1.36641e-27
6.96812e-30
1.2306e-29
3.67675e-27
6.23773e-29
2.72151e-27
7.47013e-29
6.41658e-24
2.08985e-23
1.11832e-24
5.67694e-26
4.35038e-27
5.68455e-29
1.19605e-27
1.13837e-27
4.75261e-27
1.71222e-27
2.00763e-30
6.92689e-28
1.83452e-27
1.41765e-30
1.81336e-29
2.19992e-27
1.93866e-27
1.9334e-27
3.52572e-28
2.53098e-28
7.4965e-25
1.56342e-24
2.60038e-26
1.68307e-26
5.42013e-28
5.02474e-28
1.48872e-26
7.55344e-27
6.53742e-27
4.82718e-27
4.00937e-27
1.68555e-28
1.96289e-27
7.29736e-27
2.07083e-27
1.93333e-27
1.27583e-27
1.92344e-27
2.35101e-30
7.81144e-29
1.71436e-24
4.13999e-24
1.80932e-25
2.04699e-26
6.5771e-28
9.57634e-27
2.94376e-27
2.89549e-27
6.93437e-29
5.27848e-27
2.46352e-27
6.54048e-28
3.67876e-28
1.90508e-27
8.18384e-28
6.91711e-30
2.50119e-29
1.49729e-27
3.84374e-28
7.93863e-29
1.16224e-23
1.63899e-23
7.72759e-25
5.32872e-26
4.71308e-27
1.30592e-27
3.31936e-28
1.22502e-27
6.2195e-28
1.91396e-29
1.92182e-28
2.86895e-28
4.74902e-28
3.85976e-27
3.29918e-27
1.63332e-27
7.58534e-28
4.15522e-28
4.50081e-29
2.61161e-28
1.83302e-23
2.08401e-23
1.4399e-24
3.55686e-26
4.30314e-27
9.28863e-29
1.45251e-27
2.33411e-27
4.03881e-27
4.64264e-29
8.64853e-28
1.2722e-27
3.61453e-27
3.41051e-27
1.00525e-27
5.78116e-31
5.25327e-27
4.33061e-27
9.01512e-28
7.29581e-28
1.24723e-25
4.94553e-25
2.69689e-26
2.1244e-29
1.45694e-28
2.18962e-27
1.51522e-28
4.88496e-27
5.41637e-28
7.91475e-28
1.34405e-28
1.79422e-27
1.6211e-27
4.88093e-27
2.71364e-27
5.4278e-28
2.91741e-27
7.61348e-28
1.05185e-28
3.50953e-28
2.84409e-23
3.03113e-23
1.78803e-24
8.46666e-26
3.20451e-27
4.25274e-27
1.87442e-28
3.98441e-28
5.41954e-27
9.78612e-27
8.40756e-27
1.30521e-27
2.28144e-30
2.40042e-29
2.49518e-27
7.1478e-28
4.56493e-28
1.02434e-28
1.72146e-28
2.70437e-30
5.45619e-23
6.41238e-23
3.47919e-24
1.16152e-25
1.72739e-26
2.07952e-28
1.77182e-27
2.40244e-27
9.4392e-29
1.9622e-30
1.6745e-27
6.24157e-32
7.52478e-29
1.03327e-27
1.05689e-29
8.92475e-29
6.11506e-28
4.9233e-28
1.87408e-29
2.95738e-29
4.34246e-23
4.06848e-23
2.19778e-24
5.77549e-26
1.79493e-26
3.97594e-28
3.61798e-27
3.99722e-29
2.59386e-28
9.72896e-30
5.97934e-28
2.92856e-29
1.05202e-27
4.93574e-28
2.17231e-28
1.90214e-27
3.15382e-28
6.49076e-30
2.88457e-28
6.44446e-30
8.59448e-24
5.17069e-24
2.85225e-25
1.0399e-26
1.79335e-27
2.75722e-29
1.48924e-28
2.41829e-28
3.46374e-29
7.3375e-28
1.1353e-27
1.66876e-27
1.10642e-27
2.17069e-27
6.96454e-27
8.82738e-28
1.03065e-27
1.3081e-27
2.80608e-28
8.15646e-30
4.65959e-24
4.64249e-24
2.71639e-25
5.61643e-27
5.54877e-27
1.21001e-27
1.44961e-28
8.89182e-29
6.62516e-28
5.04455e-27
1.05287e-26
2.12083e-27
8.5427e-28
2.79991e-27
9.65163e-28
8.33019e-29
2.94058e-27
2.4854e-27
7.38913e-30
3.74033e-28
1.85665e-23
1.93024e-23
1.08581e-24
2.15495e-26
7.916e-27
4.40306e-28
1.66371e-29
2.1289e-27
2.20844e-27
5.60268e-29
6.55801e-27
4.64086e-27
7.33134e-28
2.33412e-28
2.3865e-28
4.94492e-27
2.67786e-27
1.06879e-29
1.43378e-27
1.69591e-30
2.09964e-23
2.44925e-23
1.63547e-24
4.14616e-26
2.50729e-26
2.22659e-27
1.59761e-27
4.3015e-28
3.45286e-28
1.20091e-28
2.11201e-29
4.20955e-27
1.60769e-27
3.28304e-28
1.82428e-28
5.22096e-28
2.11172e-27
2.99313e-29
1.62028e-27
6.6674e-31
6.07368e-24
1.30938e-23
7.80179e-25
4.34927e-26
5.75335e-27
2.57526e-28
6.74578e-28
7.08749e-29
2.86604e-28
4.92281e-28
2.34699e-27
9.44649e-29
2.48042e-27
2.59294e-27
4.71795e-28
5.48715e-27
2.36043e-27
6.57026e-31
1.79157e-27
9.50418e-31
7.71558e-25
9.67713e-26
4.55416e-26
3.31001e-27
5.98116e-27
2.5137e-27
1.80488e-27
5.02566e-27
4.46692e-27
7.62555e-27
2.06944e-27
9.68579e-27
4.04776e-28
3.94067e-28
3.24783e-27
2.73111e-28
7.38223e-30
2.76364e-30
1.15441e-27
8.90915e-29
4.3585e-24
2.34434e-23
1.31028e-24
5.67721e-26
1.31452e-27
4.6605e-27
2.19042e-27
2.0112e-27
1.8534e-27
2.0678e-28
2.53905e-28
5.35551e-29
5.52938e-28
1.11005e-27
2.4928e-27
5.84247e-27
2.43271e-27
7.27602e-30
4.12379e-28
7.60788e-29
8.89039e-25
7.24069e-24
4.19367e-25
1.49982e-26
3.90672e-27
3.57892e-28
3.08227e-29
3.02638e-30
3.20141e-28
3.89424e-27
2.10285e-27
4.94891e-27
4.29723e-28
8.35074e-29
9.71259e-28
2.73174e-28
6.15347e-28
1.95659e-27
4.02686e-28
5.4839e-30
9.1457e-24
1.66036e-23
6.58933e-25
5.71343e-26
1.08198e-28
4.89793e-27
1.88866e-27
3.55343e-27
1.13233e-27
9.67233e-31
2.87144e-29
1.4223e-28
5.92062e-28
2.70808e-28
6.54225e-30
1.72928e-28
3.9602e-30
1.13827e-27
2.55003e-29
2.40979e-28
)
;

boundaryField
{
    movingWall
    {
        type            calculated;
        value           nonuniform List<scalar> 
20
(
3.52066e-23
2.61391e-23
3.81962e-25
2.04223e-25
2.98309e-26
5.39631e-26
1.70913e-26
2.53196e-26
8.01443e-27
9.67233e-31
2.87144e-29
2.58854e-27
2.66892e-29
7.34371e-30
4.27212e-27
6.44444e-28
3.9602e-30
3.38836e-27
3.33551e-27
7.70573e-28
)
;
    }
    fixedWalls
    {
        type            calculated;
        value           nonuniform List<scalar> 
60
(
8.34622e-22
1.90099e-23
3.86683e-22
2.65664e-23
7.18222e-23
3.04484e-22
4.09962e-22
8.29446e-24
5.71775e-22
1.20947e-21
7.64278e-22
9.67494e-23
8.87534e-23
3.65953e-22
4.81667e-22
2.50114e-22
4.39597e-24
4.37067e-22
1.29972e-22
2.92658e-22
1.15689e-28
1.27497e-28
5.06405e-28
2.73301e-28
2.02523e-28
4.22234e-28
4.80362e-28
1.47012e-28
1.38789e-28
1.55045e-28
1.83051e-29
2.43413e-29
1.08256e-27
3.81999e-28
4.21382e-31
1.02457e-28
1.03197e-28
2.9971e-28
1.30729e-29
6.57908e-29
5.01785e-23
5.85909e-23
1.21835e-24
3.45729e-25
2.87559e-26
4.80409e-26
2.27718e-26
1.80866e-26
5.71751e-27
2.07848e-27
1.34428e-27
7.13073e-28
1.04858e-27
1.09923e-27
8.11198e-28
5.73383e-28
7.25819e-27
1.97222e-30
2.79676e-27
3.69036e-27
)
;
    }
    frontAndBack
    {
        type            empty;
    }
}


// ************************************************************************* //
