/*--------------------------------*- C++ -*----------------------------------*\
| =========                 |                                                 |
| \\      /  F ield         | OpenFOAM: The Open Source CFD Toolbox           |
|  \\    /   O peration     | Version:  2312                                  |
|   \\  /    A nd           | Website:  www.openfoam.com                      |
|    \\/     M anipulation  |                                                 |
\*---------------------------------------------------------------------------*/
FoamFile
{
    version     2.0;
    format      ascii;
    arch        "LSB;label=32;scalar=64";
    class       volScalarField;
    location    "8.75";
    object      flowTypeField;
}
// * * * * * * * * * * * * * * * * * * * * * * * * * * * * * * * * * * * * * //

dimensions      [0 0 0 0 0 0 0];

internalField   nonuniform List<scalar> 
400
(
0.412099
0.0345563
0.0696447
-0.17183
0.708245
0.155978
0.431775
0.00746595
0.125248
0.11483
-0.00754492
0.128334
0.0680413
0.500634
0.209638
-0.0530294
0.488882
0.936386
0.433262
0.91371
0.994056
0.640578
0.489456
0.693853
-0.188267
-0.123451
0.0570732
0.28926
0.158557
0.683024
0.0394535
0.933718
0.165093
0.0575239
0.893736
0.748852
0.00930248
0.425325
0.0945696
0.538483
0.405514
0.108658
0.00589689
0.0280065
-0.0356905
0.746887
0.33579
-0.435273
-0.129896
0.0100616
0.666131
0.510396
0.195784
0.278242
0.358962
-0.16005
0.203863
0.0188067
0.0238724
0.326412
0.852427
0.424705
0.639289
-0.105905
0.632283
-0.159921
-0.0607275
-0.112323
0.182855
0.135103
0.193817
0.394534
0.0260449
-0.112794
-0.0120752
-0.119064
0.155993
-0.0126046
0.579613
0.0246165
0.731356
0.194401
0.248195
0.0273113
0.326915
-0.267809
0.229751
-0.398118
0.35231
-0.129359
-0.618653
-0.157704
0.0846771
-0.221319
-0.408123
0.513818
0.71527
0.0358175
0.275023
0.710944
0.217206
0.0521861
0.0095058
-0.083866
0.129875
-0.723119
0.0772928
-0.121086
0.645221
0.76666
0.471344
0.586419
0.48116
-0.0220816
0.0546037
-0.051917
-0.380664
0.0958291
0.646314
0.3676
0.196569
0.0619356
-0.202577
0.221847
0.112851
0.65514
0.179568
-0.137782
-0.0576821
0.504607
0.252976
0.315246
0.12965
0.0373856
0.185305
0.922014
-0.211263
0.0723951
0.2849
0.0437004
0.954952
0.662141
0.646865
0.966467
0.725346
0.138372
0.740682
-0.158614
-0.149459
0.269403
0.209283
-0.0497849
-0.0410845
-0.137818
0.066052
-0.202102
0.207877
0.33631
0.68229
0.02837
0.441384
0.0578261
-0.0779252
0.0619046
0.152763
-0.0661847
0.605832
0.476834
-0.0174085
-0.217521
-0.052864
0.147538
0.89795
0.273395
-0.296186
-0.31352
0.0439543
0.709387
0.0347439
0.169938
-0.0881173
0.0126418
-0.0881369
0.144178
-0.256945
0.000153805
0.0683983
-0.0432735
0.174389
0.456643
0.0782478
0.955727
0.717361
-0.0979874
0.872404
0.21928
0.141395
0.207263
0.135131
0.0490368
0.195036
0.00224681
-0.0934784
0.216052
-0.51802
0.512274
-0.032307
0.679044
0.57939
0.647521
-0.221976
0.652894
-0.0744094
0.178304
0.464737
0.206591
0.0733089
0.217417
0.126897
0.403545
0.62224
0.198217
0.135244
0.439977
0.0312676
0.0765186
0.413452
0.0786878
0.495529
-0.370424
-0.0880111
-0.0370046
0.210152
-0.0235418
-0.0320056
0.242703
0.235578
0.0614727
0.245399
0.612208
0.6404
0.216092
0.0694695
0.57545
-0.132568
0.118799
0.381302
0.50825
0.0409389
-0.0891458
0.00814735
0.326015
0.257721
-0.374658
-0.533965
0.0818169
-0.361433
-0.0921934
0.620617
0.4985
0.114084
0.0239757
-0.101519
0.326044
-0.612628
0.449022
0.324798
-0.0150228
-0.00731758
0.749783
-0.394449
0.02811
0.469355
0.0525357
0.607852
0.0370939
-0.317365
0.254545
0.132523
0.930218
-0.0654003
0.0396014
-0.145958
0.259655
-0.424745
0.213231
-0.0419758
-0.0741115
0.0297298
0.766126
0.231504
-0.112352
0.378141
0.348236
0.644889
0.24166
-0.0436491
0.400242
0.244268
0.955155
0.575192
0.12027
0.0484468
0.0417141
-0.361566
0.568037
-0.229577
7.75597e-05
0.12353
-0.044577
0.118571
0.699561
-0.0611101
0.106355
0.440878
-0.0430339
-0.263547
0.6975
-0.0872229
0.461274
0.883624
0.842508
0.626942
0.486754
0.179901
0.167249
0.259608
0.108925
-0.102173
0.0116782
-0.0202593
-0.00381657
0.0956011
0.501728
0.0694521
0.134371
0.508654
0.855489
0.337583
0.170828
0.596189
0.143031
0.0630648
0.176168
0.36969
-0.38505
-0.185764
0.0127478
0.0588102
0.431991
0.32056
0.6963
0.229149
-0.312242
-0.276639
0.00428666
0.179058
0.804025
0.0287472
0.0642972
0.882342
0.286433
0.268656
0.319341
0.0964998
0.311908
0.207443
0.394335
0.309582
-0.0828842
-0.191978
-0.20866
0.21591
0.511655
0.204951
0.38829
0.103775
-0.0222527
0.246517
0.902881
0.583752
0.0970326
0.15325
-0.0873565
0.82351
-0.125986
0.214109
-0.0211866
0.241173
0.951071
0.502791
0.637661
0.411258
0.151766
0.014029
0.329118
0.914807
0.119679
0.816818
0.197112
)
;

boundaryField
{
    movingWall
    {
        type            calculated;
        value           nonuniform List<scalar> 
20
(
0.614747
0.0915385
0.465955
-0.3355
0.254661
-0.0390213
0.033146
-0.00918466
0.0925503
0.959671
0.744405
0.294504
0.832256
0.617599
-0.0291078
0.189053
0.918581
0.0814907
0.200608
0.158112
)
;
    }
    fixedWalls
    {
        type            calculated;
        value           nonuniform List<scalar> 
60
(
0.0456013
0.628721
0.0869977
0.461194
0.227475
0.0297181
0.0169105
0.707274
0.0458833
-0.0180566
-0.0223698
0.23231
0.227687
-0.00765586
-0.00850823
0.100908
0.772376
0.123732
0.304848
0.109093
0.780162
0.620174
0.374323
0.00748013
0.720317
-0.0441023
0.362754
0.361189
0.00624229
0.0106708
0.810057
0.455935
0.48361
0.495948
0.975054
0.024957
0.63078
0.0185121
0.912499
0.726966
0.707093
0.154623
0.413252
-0.162005
0.346335
0.017372
0.146349
0.0366173
0.104952
0.274633
0.196994
0.217067
0.0127433
0.090179
0.18313
0.333746
0.103262
0.945843
0.280903
0.170283
)
;
    }
    frontAndBack
    {
        type            empty;
    }
}


// ************************************************************************* //
