/*--------------------------------*- C++ -*----------------------------------*\
| =========                 |                                                 |
| \\      /  F ield         | OpenFOAM: The Open Source CFD Toolbox           |
|  \\    /   O peration     | Version:  2312                                  |
|   \\  /    A nd           | Website:  www.openfoam.com                      |
|    \\/     M anipulation  |                                                 |
\*---------------------------------------------------------------------------*/
FoamFile
{
    version     2.0;
    format      ascii;
    arch        "LSB;label=32;scalar=64";
    class       volVectorField;
    location    "8.75";
    object      gradPhi;
}
// * * * * * * * * * * * * * * * * * * * * * * * * * * * * * * * * * * * * * //

dimensions      [0 2 -1 0 0 0 0];

internalField   nonuniform List<vector> 
400
(
(-0.02 6.19805e-17 0)
(9.09899e-17 -9.18993e-17 0)
(-2.81241e-17 2.89858e-17 0)
(4.96308e-18 -5.03378e-18 0)
(-1.65436e-18 5.28741e-19 0)
(0 1.15978e-18 0)
(-3.30872e-18 2.7931e-18 0)
(-1.65436e-18 2.04964e-18 0)
(-1.65436e-18 1.64859e-18 0)
(0 1.19244e-18 0)
(0 -8.26032e-19 0)
(0 -4.69058e-19 0)
(0 2.69977e-19 0)
(0 -3.48026e-19 0)
(0 -5.33567e-19 0)
(0 -2.33473e-19 0)
(0 5.5293e-19 0)
(0 1.23159e-18 0)
(-1.65436e-18 8.9187e-19 0)
(1.65436e-18 -6.16802e-19 0)
(-0.02 -8.5376e-17 0)
(-1.24077e-16 1.22715e-16 0)
(4.1359e-17 -4.03878e-17 0)
(-4.96308e-18 5.57204e-18 0)
(1.65436e-18 -1.23842e-18 0)
(0 -8.08298e-19 0)
(1.65436e-18 -2.56481e-18 0)
(3.30872e-18 -2.67587e-18 0)
(1.65436e-18 -6.74785e-19 0)
(-1.65436e-18 -4.99323e-19 0)
(-1.65436e-18 2.02673e-18 0)
(-3.30872e-18 2.12637e-18 0)
(0 9.68079e-20 0)
(0 5.70387e-19 0)
(0 8.87398e-19 0)
(0 7.66002e-19 0)
(-1.65436e-18 -1.25062e-19 0)
(1.65436e-18 -9.45323e-19 0)
(1.65436e-18 -2.4076e-18 0)
(0 -8.39673e-19 0)
(-0.02 -2.72579e-17 0)
(-3.47416e-17 3.503e-17 0)
(3.30872e-18 -3.53192e-18 0)
(-1.65436e-18 1.50675e-18 0)
(0 -3.87525e-19 0)
(0 -3.69407e-19 0)
(1.65436e-18 -1.11145e-18 0)
(0 -1.06753e-19 0)
(1.65436e-18 -7.96222e-19 0)
(-1.65436e-18 -4.39589e-19 0)
(1.65436e-18 -2.7857e-19 0)
(0 -6.29845e-19 0)
(0 -2.96196e-19 0)
(0 -1.10132e-19 0)
(0 1.75584e-20 0)
(0 -1.50614e-18 0)
(1.65436e-18 -2.03738e-18 0)
(1.65436e-18 -1.56527e-18 0)
(0 6.43545e-19 0)
(-1.65436e-18 1.17065e-18 0)
(-0.02 8.8036e-17 0)
(1.09188e-16 -1.09923e-16 0)
(-2.64698e-17 2.8228e-17 0)
(1.65436e-18 -2.85861e-18 0)
(0 2.30498e-18 0)
(0 3.41313e-19 0)
(0 7.31074e-19 0)
(0 -3.8367e-19 0)
(1.65436e-18 -2.69371e-18 0)
(3.30872e-18 -1.8765e-18 0)
(0 -8.33885e-19 0)
(0 1.62813e-19 0)
(-1.65436e-18 1.71155e-18 0)
(0 2.73968e-19 0)
(1.65436e-18 -1.21589e-18 0)
(0 3.90523e-19 0)
(-1.65436e-18 7.4086e-19 0)
(-1.65436e-18 9.43395e-19 0)
(-1.65436e-18 2.33094e-19 0)
(1.65436e-18 -6.26978e-19 0)
(-0.02 -5.95166e-17 0)
(-7.44463e-17 7.46248e-17 0)
(1.98523e-17 -2.08622e-17 0)
(-3.30872e-18 3.66416e-18 0)
(1.65436e-18 -1.12106e-19 0)
(0 -9.20941e-19 0)
(1.65436e-18 -1.5332e-18 0)
(0 -6.92967e-19 0)
(0 2.66449e-19 0)
(0 5.80307e-19 0)
(-1.65436e-18 1.05178e-18 0)
(-1.65436e-18 6.42854e-19 0)
(1.65436e-18 -4.99639e-19 0)
(0 -2.25998e-19 0)
(0 -1.04563e-21 0)
(0 -6.49123e-19 0)
(-1.65436e-18 8.71245e-19 0)
(-1.65436e-18 3.85203e-19 0)
(0 2.38901e-20 0)
(-1.65436e-18 6.71988e-19 0)
(-0.02 4.18892e-17 0)
(5.62483e-17 -5.72412e-17 0)
(-1.15805e-17 1.12536e-17 0)
(0 -9.31191e-19 0)
(0 1.81107e-18 0)
(-1.65436e-18 4.30491e-19 0)
(0 5.222e-19 0)
(-1.65436e-18 1.5725e-18 0)
(-3.30872e-18 4.02111e-18 0)
(-3.30872e-18 2.56892e-18 0)
(1.65436e-18 -1.90887e-18 0)
(3.30872e-18 -2.98837e-18 0)
(3.30872e-18 -2.62319e-18 0)
(1.65436e-18 -1.24764e-18 0)
(0 5.68403e-19 0)
(-1.65436e-18 7.59009e-19 0)
(0 -1.42212e-19 0)
(-1.65436e-18 1.2082e-18 0)
(-1.65436e-18 2.08031e-18 0)
(0 4.86045e-19 0)
(-0.02 -2.90829e-17 0)
(-1.48893e-17 1.43505e-17 0)
(-1.15805e-17 1.25309e-17 0)
(0 -3.58603e-19 0)
(1.65436e-18 -2.225e-18 0)
(0 4.5738e-19 0)
(-1.65436e-18 7.3171e-19 0)
(0 8.06891e-19 0)
(0 -1.07469e-18 0)
(1.65436e-18 -9.47615e-19 0)
(-1.65436e-18 1.79679e-18 0)
(-1.65436e-18 1.99733e-18 0)
(-1.65436e-18 2.05772e-18 0)
(-3.30872e-18 2.00665e-18 0)
(1.65436e-18 -1.90512e-19 0)
(0 -8.38437e-19 0)
(1.65436e-18 -8.86206e-19 0)
(1.65436e-18 -9.47208e-19 0)
(0 -1.20559e-18 0)
(0 -5.53671e-20 0)
(-0.02 -1.06652e-17 0)
(-5.12852e-17 5.19574e-17 0)
(3.63959e-17 -3.6644e-17 0)
(0 7.13484e-19 0)
(1.65436e-18 -1.30876e-18 0)
(0 -7.24943e-19 0)
(-1.65436e-18 2.64673e-18 0)
(0 1.13076e-18 0)
(-3.30872e-18 2.05972e-18 0)
(0 1.24411e-18 0)
(0 -9.87767e-19 0)
(3.30872e-18 -1.97105e-18 0)
(0 -9.14332e-19 0)
(0 -8.33986e-19 0)
(1.65436e-18 -1.8232e-19 0)
(-1.65436e-18 2.99886e-19 0)
(0 -2.67618e-19 0)
(3.30872e-18 -2.35129e-18 0)
(0 -8.46295e-19 0)
(0 -2.11751e-20 0)
(-0.02 2.22298e-17 0)
(4.96308e-17 -5.0577e-17 0)
(-2.81241e-17 2.93133e-17 0)
(1.65436e-18 -2.92462e-18 0)
(-1.65436e-18 1.64797e-18 0)
(-1.65436e-18 1.5588e-18 0)
(1.65436e-18 -6.44977e-19 0)
(-1.65436e-18 1.13401e-18 0)
(1.65436e-18 -1.65331e-18 0)
(3.30872e-18 -1.9239e-18 0)
(0 -1.04992e-18 0)
(0 4.93761e-19 0)
(1.65436e-18 -9.44886e-19 0)
(0 3.44343e-19 0)
(-1.65436e-18 -1.67605e-20 0)
(1.65436e-18 -3.93829e-19 0)
(-1.65436e-18 1.25277e-20 0)
(-1.65436e-18 1.59605e-18 0)
(-1.65436e-18 9.31172e-19 0)
(0 3.88334e-19 0)
(-0.02 1.19284e-17 0)
(9.92617e-18 -9.94615e-18 0)
(1.65436e-18 -4.26721e-19 0)
(0 -2.26245e-19 0)
(1.65436e-18 -4.86736e-19 0)
(0 -1.65319e-19 0)
(1.65436e-18 -4.57417e-19 0)
(0 -2.02573e-18 0)
(0 7.29954e-20 0)
(0 8.35802e-19 0)
(0 1.57108e-18 0)
(0 1.11781e-18 0)
(-1.65436e-18 2.11461e-18 0)
(1.65436e-18 -1.95626e-18 0)
(0 -1.4146e-18 0)
(0 6.59643e-19 0)
(-1.65436e-18 1.74565e-18 0)
(0 2.69903e-19 0)
(0 -1.18142e-19 0)
(0 -1.57646e-19 0)
(-0.02 -2.0713e-17 0)
(-4.46678e-17 4.50087e-17 0)
(2.31611e-17 -2.24741e-17 0)
(-1.65436e-18 1.78126e-18 0)
(0 -7.32917e-19 0)
(0 6.51016e-21 0)
(0 -7.67316e-19 0)
(0 -1.32252e-18 0)
(3.30872e-18 -2.06089e-18 0)
(1.65436e-18 -1.04634e-18 0)
(-1.65436e-18 -1.65294e-19 0)
(1.65436e-18 -9.08046e-19 0)
(3.30872e-18 -1.77934e-18 0)
(0 4.58188e-19 0)
(-3.30872e-18 2.9254e-18 0)
(-1.65436e-18 1.85688e-18 0)
(0 -6.80449e-19 0)
(0 1.2073e-19 0)
(0 -3.16539e-19 0)
(0 -5.19457e-19 0)
(-0.02 -2.35825e-18 0)
(3.14329e-17 -3.24921e-17 0)
(-2.97785e-17 2.9382e-17 0)
(0 2.48672e-19 0)
(0 9.14316e-19 0)
(0 -4.05075e-19 0)
(0 2.79955e-19 0)
(0 4.54521e-19 0)
(0 5.57209e-20 0)
(0 -4.94664e-19 0)
(0 -8.29677e-19 0)
(0 2.09614e-18 0)
(0 8.64356e-19 0)
(-3.30872e-18 1.20144e-18 0)
(0 5.16962e-19 0)
(0 -3.55462e-19 0)
(-1.65436e-18 -2.92169e-20 0)
(0 -1.5383e-19 0)
(0 -6.70381e-19 0)
(0 9.47501e-20 0)
(-0.02 2.43124e-17 0)
(-3.30872e-18 4.33025e-18 0)
(2.15067e-17 -2.12804e-17 0)
(0 -1.46522e-18 0)
(1.65436e-18 -1.13899e-18 0)
(1.65436e-18 -5.07241e-19 0)
(0 -3.22962e-19 0)
(0 -5.27328e-19 0)
(0 4.80574e-19 0)
(-1.65436e-18 1.46463e-18 0)
(-1.65436e-18 1.30028e-18 0)
(1.65436e-18 -1.95322e-18 0)
(0 -1.30632e-18 0)
(1.65436e-18 -5.13035e-19 0)
(0 -2.56206e-19 0)
(-1.65436e-18 9.29487e-19 0)
(0 2.41245e-20 0)
(1.65436e-18 -1.08234e-18 0)
(1.65436e-18 -1.15428e-18 0)
(1.65436e-18 -2.2503e-18 0)
(-0.02 -2.45205e-17 0)
(-9.92617e-18 1.07081e-17 0)
(-9.92617e-18 8.82401e-18 0)
(-1.65436e-18 1.398e-18 0)
(0 1.2887e-19 0)
(0 1.95828e-19 0)
(0 1.91284e-20 0)
(0 1.47102e-18 0)
(-1.65436e-18 1.94659e-18 0)
(-1.65436e-18 1.55643e-18 0)
(-1.65436e-18 -2.3438e-19 0)
(1.65436e-18 -6.21292e-19 0)
(0 6.87692e-19 0)
(-1.65436e-18 3.50103e-19 0)
(1.65436e-18 -1.65465e-18 0)
(3.30872e-18 -2.43394e-18 0)
(0 -8.35705e-19 0)
(0 6.8341e-19 0)
(0 1.70147e-18 0)
(-1.65436e-18 1.41454e-18 0)
(-0.02 2.48718e-17 0)
(2.31611e-17 -2.26572e-17 0)
(-1.65436e-18 1.81336e-18 0)
(3.30872e-18 -2.74211e-18 0)
(-1.65436e-18 5.77037e-19 0)
(0 2.31599e-19 0)
(-1.65436e-18 2.27076e-19 0)
(0 -2.66189e-19 0)
(0 -7.39517e-19 0)
(3.30872e-18 -2.26171e-18 0)
(0 -1.09787e-18 0)
(0 1.12326e-18 0)
(-1.65436e-18 1.56397e-18 0)
(0 -4.43932e-20 0)
(1.65436e-18 -1.53862e-18 0)
(0 -9.03933e-19 0)
(0 7.98402e-19 0)
(0 -1.47909e-20 0)
(1.65436e-18 -5.96245e-19 0)
(-1.65436e-18 1.83269e-18 0)
(-0.02 -4.00715e-17 0)
(-6.78288e-17 6.78729e-17 0)
(2.15067e-17 -2.31093e-17 0)
(-1.65436e-18 2.94167e-18 0)
(1.65436e-18 -1.82072e-18 0)
(1.65436e-18 -1.35775e-18 0)
(0 -4.53845e-19 0)
(0 5.00886e-19 0)
(0 2.48784e-19 0)
(0 9.88052e-19 0)
(-1.65436e-18 1.31843e-18 0)
(1.65436e-18 -1.30784e-18 0)
(1.65436e-18 -1.92246e-18 0)
(3.30872e-18 -2.16903e-18 0)
(-1.65436e-18 4.47326e-19 0)
(0 3.30642e-21 0)
(1.65436e-18 -4.78807e-19 0)
(0 3.79597e-19 0)
(0 7.44884e-19 0)
(0 -1.01642e-18 0)
(-0.02 9.99465e-17 0)
(1.32349e-16 -1.32733e-16 0)
(-3.80503e-17 3.80833e-17 0)
(6.61744e-18 -5.48727e-18 0)
(-3.30872e-18 2.99841e-18 0)
(0 7.11264e-19 0)
(-1.65436e-18 -4.75385e-19 0)
(1.65436e-18 -1.13874e-18 0)
(0 -9.30065e-19 0)
(1.65436e-18 -1.92839e-18 0)
(3.30872e-18 -2.10515e-18 0)
(0 6.01622e-19 0)
(-1.65436e-18 4.44497e-19 0)
(-3.30872e-18 1.90839e-18 0)
(-1.65436e-18 8.58738e-19 0)
(0 3.8851e-19 0)
(0 -5.08247e-20 0)
(1.65436e-18 -6.10866e-19 0)
(1.65436e-18 -1.07546e-18 0)
(1.65436e-18 -8.70408e-19 0)
(-0.02 -5.4208e-17 0)
(-5.62483e-17 5.69037e-17 0)
(9.92617e-18 -1.00477e-17 0)
(-4.96308e-18 4.56435e-18 0)
(1.65436e-18 -6.30142e-19 0)
(0 1.20383e-19 0)
(-1.65436e-18 -9.13845e-20 0)
(1.65436e-18 -8.93401e-19 0)
(1.65436e-18 -2.07505e-18 0)
(0 -3.2296e-19 0)
(0 8.79223e-19 0)
(-1.65436e-18 1.23945e-18 0)
(-1.65436e-18 1.86522e-18 0)
(0 5.3389e-19 0)
(0 1.01299e-19 0)
(0 -8.74066e-20 0)
(0 -1.55193e-19 0)
(-1.65436e-18 6.21306e-19 0)
(-1.65436e-18 1.14936e-18 0)
(0 5.98874e-19 0)
(-0.02 -8.71536e-17 0)
(-1.20768e-16 1.21504e-16 0)
(3.63959e-17 -3.73435e-17 0)
(-1.65436e-18 4.02098e-18 0)
(1.65436e-18 -2.35788e-18 0)
(0 -6.2312e-19 0)
(0 -9.56532e-19 0)
(0 2.62472e-19 0)
(0 1.01932e-18 0)
(0 4.74053e-21 0)
(0 -5.36699e-19 0)
(0 -1.34512e-18 0)
(0 -4.05896e-19 0)
(0 -2.84808e-19 0)
(0 2.68826e-19 0)
(0 9.04798e-19 0)
(0 6.5125e-19 0)
(0 1.89412e-19 0)
(0 6.96379e-20 0)
(-1.65436e-18 1.00227e-18 0)
(-0.02 6.57291e-17 0)
(9.76073e-17 -9.75357e-17 0)
(-2.64698e-17 2.76933e-17 0)
(3.30872e-18 -4.3837e-18 0)
(-1.65436e-18 1.52779e-18 0)
(0 6.68739e-19 0)
(-3.30872e-18 1.4283e-18 0)
(0 6.50466e-19 0)
(-1.65436e-18 8.78388e-19 0)
(-1.65436e-18 1.30557e-18 0)
(0 9.09814e-19 0)
(-1.65436e-18 5.92432e-19 0)
(1.65436e-18 -9.84143e-19 0)
(0 8.59466e-20 0)
(0 4.12272e-19 0)
(-1.65436e-18 4.43702e-19 0)
(0 2.91686e-19 0)
(0 4.21198e-20 0)
(1.65436e-18 -7.8693e-20 0)
(0 -6.85923e-19 0)
)
;

boundaryField
{
    movingWall
    {
        type            extrapolatedCalculated;
        value           nonuniform List<vector> 
20
(
(-0.02 6.57291e-17 0)
(9.76073e-17 -9.75357e-17 0)
(-2.64698e-17 2.76933e-17 0)
(3.30872e-18 -4.3837e-18 0)
(-1.65436e-18 1.52779e-18 0)
(0 6.68739e-19 0)
(-3.30872e-18 1.4283e-18 0)
(0 6.50466e-19 0)
(-1.65436e-18 8.78388e-19 0)
(-1.65436e-18 1.30557e-18 0)
(0 9.09814e-19 0)
(-1.65436e-18 5.92432e-19 0)
(1.65436e-18 -9.84143e-19 0)
(0 8.59466e-20 0)
(0 4.12272e-19 0)
(-1.65436e-18 4.43702e-19 0)
(0 2.91686e-19 0)
(0 4.21198e-20 0)
(1.65436e-18 -7.8693e-20 0)
(0 -6.85923e-19 0)
)
;
    }
    fixedWalls
    {
        type            extrapolatedCalculated;
        value           nonuniform List<vector> 
60
(
(-0.02 6.19805e-17 0)
(-0.02 -8.5376e-17 0)
(-0.02 -2.72579e-17 0)
(-0.02 8.8036e-17 0)
(-0.02 -5.95166e-17 0)
(-0.02 4.18892e-17 0)
(-0.02 -2.90829e-17 0)
(-0.02 -1.06652e-17 0)
(-0.02 2.22298e-17 0)
(-0.02 1.19284e-17 0)
(-0.02 -2.0713e-17 0)
(-0.02 -2.35825e-18 0)
(-0.02 2.43124e-17 0)
(-0.02 -2.45205e-17 0)
(-0.02 2.48718e-17 0)
(-0.02 -4.00715e-17 0)
(-0.02 9.99465e-17 0)
(-0.02 -5.4208e-17 0)
(-0.02 -8.71536e-17 0)
(-0.02 6.57291e-17 0)
(1.65436e-18 -6.16802e-19 0)
(0 -8.39673e-19 0)
(-1.65436e-18 1.17065e-18 0)
(1.65436e-18 -6.26978e-19 0)
(-1.65436e-18 6.71988e-19 0)
(0 4.86045e-19 0)
(0 -5.53671e-20 0)
(0 -2.11751e-20 0)
(0 3.88334e-19 0)
(0 -1.57646e-19 0)
(0 -5.19457e-19 0)
(0 9.47501e-20 0)
(1.65436e-18 -2.2503e-18 0)
(-1.65436e-18 1.41454e-18 0)
(-1.65436e-18 1.83269e-18 0)
(0 -1.01642e-18 0)
(1.65436e-18 -8.70408e-19 0)
(0 5.98874e-19 0)
(-1.65436e-18 1.00227e-18 0)
(0 -6.85923e-19 0)
(-0.02 6.19805e-17 0)
(9.09899e-17 -9.18993e-17 0)
(-2.81241e-17 2.89858e-17 0)
(4.96308e-18 -5.03378e-18 0)
(-1.65436e-18 5.28741e-19 0)
(0 1.15978e-18 0)
(-3.30872e-18 2.7931e-18 0)
(-1.65436e-18 2.04964e-18 0)
(-1.65436e-18 1.64859e-18 0)
(0 1.19244e-18 0)
(0 -8.26032e-19 0)
(0 -4.69058e-19 0)
(0 2.69977e-19 0)
(0 -3.48026e-19 0)
(0 -5.33567e-19 0)
(0 -2.33473e-19 0)
(0 5.5293e-19 0)
(0 1.23159e-18 0)
(-1.65436e-18 8.9187e-19 0)
(1.65436e-18 -6.16802e-19 0)
)
;
    }
    frontAndBack
    {
        type            empty;
    }
}


// ************************************************************************* //
