/*--------------------------------*- C++ -*----------------------------------*\
| =========                 |                                                 |
| \\      /  F ield         | OpenFOAM: The Open Source CFD Toolbox           |
|  \\    /   O peration     | Version:  2312                                  |
|   \\  /    A nd           | Website:  www.openfoam.com                      |
|    \\/     M anipulation  |                                                 |
\*---------------------------------------------------------------------------*/
FoamFile
{
    version     2.0;
    format      ascii;
    arch        "LSB;label=32;scalar=64";
    class       volTensorField;
    location    "8.75";
    object      gradU;
}
// * * * * * * * * * * * * * * * * * * * * * * * * * * * * * * * * * * * * * //

dimensions      [0 0 -1 0 0 0 0];

internalField   nonuniform List<tensor> 
400
(
(-2.1684e-13 8.15266e-12 0 1.89735e-13 1.2169e-11 0 0 0 0)
(5.96311e-13 -9.75924e-12 0 -2.71051e-14 -2.47767e-12 0 0 0 0)
(-1.89735e-13 2.00508e-12 0 5.42101e-14 5.99422e-13 0 0 0 0)
(0 -4.76268e-13 0 1.0842e-13 -1.32789e-13 0 0 0 0)
(-2.71051e-14 1.15455e-13 0 8.13152e-14 2.40134e-14 0 0 0 0)
(-2.71051e-14 8.91867e-16 0 5.42101e-14 2.08003e-14 0 0 0 0)
(-5.42101e-14 8.63514e-15 0 5.42101e-14 4.2476e-14 0 0 0 0)
(-2.71051e-14 -1.25571e-14 0 5.42101e-14 2.63638e-14 0 0 0 0)
(-5.42101e-14 -1.81168e-14 0 5.42101e-14 2.75109e-14 0 0 0 0)
(0 -2.43434e-14 0 0 1.33918e-14 0 0 0 0)
(2.71051e-14 -7.44246e-15 0 5.42101e-14 -3.8839e-15 0 0 0 0)
(0 6.64457e-15 0 0 4.08985e-15 0 0 0 0)
(0 -1.38586e-15 0 0 6.85734e-16 0 0 0 0)
(0 -2.4788e-15 0 0 -6.01979e-15 0 0 0 0)
(0 4.12995e-15 0 0 -3.72687e-15 0 0 0 0)
(2.71051e-14 1.0545e-14 0 -5.42101e-14 1.84328e-15 0 0 0 0)
(0 1.27428e-14 0 2.71051e-14 1.17792e-14 0 0 0 0)
(-5.42101e-14 1.98606e-15 0 0 1.90235e-14 0 0 0 0)
(-5.42101e-14 -1.4028e-14 0 -5.42101e-14 2.59588e-15 0 0 0 0)
(5.42101e-14 -2.90671e-15 0 0 -1.45712e-14 0 0 0 0)
(4.06576e-13 1.53863e-12 0 1.46367e-12 -1.7817e-11 0 0 0 0)
(-7.31836e-13 -1.81029e-12 0 -5.42101e-13 3.66964e-12 0 0 0 0)
(2.98156e-13 3.39797e-13 0 -1.0842e-13 -8.60842e-13 0 0 0 0)
(0 -9.91402e-14 0 -1.6263e-13 1.69019e-13 0 0 0 0)
(0 3.8134e-14 0 -1.35525e-13 -4.76187e-14 0 0 0 0)
(0 1.75708e-14 0 -1.35525e-13 -1.26087e-14 0 0 0 0)
(0 -3.07169e-15 0 -1.35525e-13 -3.7848e-14 0 0 0 0)
(1.0842e-13 -2.40804e-15 0 -1.0842e-13 -2.65449e-14 0 0 0 0)
(2.71051e-14 5.14483e-15 0 -2.71051e-14 -4.68079e-15 0 0 0 0)
(-2.71051e-14 -7.05144e-15 0 0 7.7515e-15 0 0 0 0)
(0 -1.85945e-15 0 -1.0842e-13 2.39712e-14 0 0 0 0)
(-5.42101e-14 -2.07494e-15 0 0 1.71978e-14 0 0 0 0)
(0 -8.72378e-15 0 -5.42101e-14 7.21103e-15 0 0 0 0)
(0 -1.93381e-15 0 -5.42101e-14 1.22212e-14 0 0 0 0)
(-5.42101e-14 3.73313e-15 0 0 1.13737e-14 0 0 0 0)
(-2.71051e-14 4.96105e-15 0 0 2.06901e-15 0 0 0 0)
(2.71051e-14 4.43738e-15 0 -8.13152e-14 -1.12926e-14 0 0 0 0)
(0 -1.11694e-14 0 0 -1.87318e-14 0 0 0 0)
(5.42101e-14 -1.95667e-14 0 5.42101e-14 -2.12521e-14 0 0 0 0)
(0 1.4882e-14 0 2.71051e-14 -4.15339e-15 0 0 0 0)
(7.31836e-13 -5.99469e-12 0 -2.41235e-12 -3.80319e-15 0 0 0 0)
(-9.48677e-13 7.1969e-12 0 7.31836e-13 1.48919e-14 0 0 0 0)
(1.6263e-13 -1.49554e-12 0 0 -1.60112e-14 0 0 0 0)
(-8.13152e-14 3.36955e-13 0 0 1.15669e-14 0 0 0 0)
(5.42101e-14 -6.61728e-14 0 2.71051e-14 8.07872e-15 0 0 0 0)
(-5.42101e-14 1.06626e-14 0 0 -5.28148e-15 0 0 0 0)
(5.42101e-14 -5.30105e-15 0 -5.42101e-14 -1.40879e-14 0 0 0 0)
(0 2.06101e-14 0 -2.71051e-14 -1.21319e-14 0 0 0 0)
(0 1.61795e-14 0 -8.13152e-14 -2.61697e-14 0 0 0 0)
(0 4.30863e-15 0 -5.42101e-14 -2.32017e-14 0 0 0 0)
(0 2.00381e-15 0 0 -8.9547e-15 0 0 0 0)
(8.13152e-14 -1.01156e-14 0 2.71051e-14 -2.46951e-15 0 0 0 0)
(-5.42101e-14 -6.36245e-15 0 5.42101e-14 1.86476e-15 0 0 0 0)
(0 1.68383e-15 0 0 -2.19162e-15 0 0 0 0)
(0 -6.02222e-15 0 0 -8.58984e-15 0 0 0 0)
(0 -1.21212e-14 0 5.42101e-14 -1.60704e-14 0 0 0 0)
(5.42101e-14 -8.05801e-15 0 5.42101e-14 -2.15232e-14 0 0 0 0)
(2.71051e-14 -7.97353e-15 0 5.42101e-14 -1.68116e-14 0 0 0 0)
(0 5.50504e-16 0 2.71051e-14 -2.54066e-15 0 0 0 0)
(-2.71051e-14 2.24988e-14 0 0 4.92352e-15 0 0 0 0)
(-1.35525e-12 1.54972e-12 0 3.25261e-13 1.07076e-11 0 0 0 0)
(1.68051e-12 -1.8225e-12 0 -5.42101e-14 -2.23782e-12 0 0 0 0)
(-4.06576e-13 3.36472e-13 0 1.0842e-13 5.24786e-13 0 0 0 0)
(5.42101e-14 -7.50503e-14 0 1.0842e-13 -8.65185e-14 0 0 0 0)
(-8.13152e-14 2.12856e-14 0 5.42101e-14 3.97049e-14 0 0 0 0)
(0 -4.59586e-15 0 2.71051e-14 -2.4043e-15 0 0 0 0)
(0 -9.92208e-15 0 1.6263e-13 -9.30659e-16 0 0 0 0)
(0 -1.44898e-14 0 1.0842e-13 -1.96233e-14 0 0 0 0)
(8.13152e-14 -5.92501e-15 0 1.0842e-13 -4.34292e-14 0 0 0 0)
(2.71051e-14 1.01636e-14 0 1.0842e-13 -2.40263e-14 0 0 0 0)
(2.71051e-14 1.88728e-14 0 1.0842e-13 7.99164e-16 0 0 0 0)
(0 8.74452e-15 0 2.71051e-14 1.70577e-14 0 0 0 0)
(-2.71051e-14 -8.44589e-15 0 5.42101e-14 1.99773e-14 0 0 0 0)
(0 -1.23884e-14 0 1.0842e-13 -3.70459e-15 0 0 0 0)
(2.71051e-14 -1.01457e-14 0 5.42101e-14 -1.6328e-14 0 0 0 0)
(0 -7.97231e-15 0 5.42101e-14 -1.10343e-14 0 0 0 0)
(-2.71051e-14 3.69618e-15 0 5.42101e-14 -4.87315e-16 0 0 0 0)
(-2.71051e-14 7.81319e-15 0 -5.42101e-14 4.09648e-15 0 0 0 0)
(0 2.16841e-15 0 0 6.97359e-15 0 0 0 0)
(0 1.24992e-14 0 0 2.92473e-15 0 0 0 0)
(1.02999e-12 2.47509e-12 0 6.23416e-13 -8.08649e-12 0 0 0 0)
(-1.24683e-12 -2.98591e-12 0 -1.0842e-13 1.66127e-12 0 0 0 0)
(3.25261e-13 6.55761e-13 0 5.42101e-14 -3.76e-13 0 0 0 0)
(-8.13152e-14 -1.48126e-13 0 5.42101e-14 1.08718e-13 0 0 0 0)
(0 1.79414e-14 0 5.42101e-14 -1.59793e-15 0 0 0 0)
(0 -2.9973e-14 0 1.0842e-13 -9.65554e-15 0 0 0 0)
(8.13152e-14 -2.252e-14 0 5.42101e-14 -2.10033e-14 0 0 0 0)
(0 -2.18884e-14 0 5.42101e-14 -1.07282e-15 0 0 0 0)
(0 1.17766e-14 0 0 1.58795e-14 0 0 0 0)
(-5.42101e-14 4.8537e-14 0 -5.42101e-14 1.30161e-14 0 0 0 0)
(0 4.30878e-14 0 -2.71051e-14 -4.71118e-16 0 0 0 0)
(0 9.06256e-15 0 -2.71051e-14 -1.33565e-14 0 0 0 0)
(0 -2.71247e-14 0 0 -1.23668e-14 0 0 0 0)
(-2.71051e-14 -3.46215e-14 0 2.71051e-14 -1.19679e-15 0 0 0 0)
(0 -1.33519e-14 0 2.71051e-14 6.56733e-15 0 0 0 0)
(0 3.71944e-15 0 0 8.86401e-15 0 0 0 0)
(-2.71051e-14 7.07276e-15 0 0 1.7484e-14 0 0 0 0)
(0 -5.12622e-16 0 5.42101e-14 1.70123e-14 0 0 0 0)
(2.71051e-14 -6.21247e-16 0 2.71051e-14 1.13936e-14 0 0 0 0)
(-5.42101e-14 1.26005e-14 0 0 5.35621e-15 0 0 0 0)
(-8.40257e-13 -4.8755e-12 0 -5.42101e-14 3.90479e-12 0 0 0 0)
(1.16552e-12 5.88799e-12 0 1.6263e-13 -7.31673e-13 0 0 0 0)
(-2.43945e-13 -1.21608e-12 0 2.71051e-14 1.90739e-13 0 0 0 0)
(2.71051e-14 2.99352e-13 0 -2.71051e-14 -1.56988e-14 0 0 0 0)
(-5.42101e-14 -9.70884e-14 0 0 1.79384e-14 0 0 0 0)
(0 -2.40012e-14 0 2.71051e-14 4.9198e-15 0 0 0 0)
(0 -1.33936e-15 0 -2.71051e-14 7.17652e-15 0 0 0 0)
(0 2.23929e-14 0 -2.71051e-14 2.71279e-14 0 0 0 0)
(-1.0842e-13 8.16392e-15 0 -2.71051e-14 4.31792e-14 0 0 0 0)
(-2.71051e-14 -6.18702e-15 0 0 2.39117e-14 0 0 0 0)
(2.71051e-14 -7.49987e-15 0 -2.71051e-14 -1.49938e-14 0 0 0 0)
(5.42101e-14 -3.15113e-15 0 -2.71051e-14 -3.17965e-14 0 0 0 0)
(5.42101e-14 3.71383e-15 0 -2.71051e-14 -2.78243e-14 0 0 0 0)
(2.71051e-14 6.54569e-15 0 -8.13152e-14 -9.6302e-16 0 0 0 0)
(-2.71051e-14 -8.48854e-17 0 -8.13152e-14 8.07142e-15 0 0 0 0)
(0 2.94439e-15 0 -5.42101e-14 3.01741e-15 0 0 0 0)
(0 1.18445e-14 0 -2.71051e-14 5.42727e-15 0 0 0 0)
(0 1.72278e-15 0 -2.71051e-14 1.71309e-14 0 0 0 0)
(-2.71051e-14 -9.48769e-15 0 0 1.76904e-14 0 0 0 0)
(-2.71051e-14 -4.25068e-15 0 -2.71051e-14 6.00407e-15 0 0 0 0)
(1.16552e-12 5.64821e-12 0 -4.06576e-13 5.05621e-12 0 0 0 0)
(-1.16552e-12 -6.69996e-12 0 -2.43945e-13 -1.11384e-12 0 0 0 0)
(1.0842e-13 1.37174e-12 0 -3.25261e-13 2.7118e-13 0 0 0 0)
(-1.0842e-13 -3.20926e-13 0 -5.42101e-14 -7.57937e-14 0 0 0 0)
(8.13152e-14 3.856e-14 0 -5.42101e-14 -7.5856e-15 0 0 0 0)
(0 -4.07349e-14 0 -2.71051e-14 4.22467e-15 0 0 0 0)
(-2.71051e-14 -3.1196e-16 0 -5.42101e-14 2.83812e-14 0 0 0 0)
(0 1.41143e-14 0 -5.42101e-14 2.29722e-14 0 0 0 0)
(0 8.56038e-15 0 -8.13152e-14 2.35161e-14 0 0 0 0)
(0 -9.63602e-15 0 0 2.06163e-14 0 0 0 0)
(0 -1.26204e-14 0 -5.42101e-14 1.52793e-14 0 0 0 0)
(-5.42101e-14 -3.76802e-15 0 -5.42101e-14 1.17208e-14 0 0 0 0)
(-5.42101e-14 3.70871e-15 0 -8.13152e-14 1.27369e-14 0 0 0 0)
(-2.71051e-14 1.27429e-15 0 -8.13152e-14 5.27668e-15 0 0 0 0)
(0 -9.37149e-15 0 -5.42101e-14 -1.12957e-14 0 0 0 0)
(2.71051e-14 1.07528e-15 0 0 -1.40984e-14 0 0 0 0)
(0 2.11862e-14 0 -8.13152e-14 -2.00829e-14 0 0 0 0)
(5.42101e-14 1.17505e-14 0 -8.13152e-14 -2.10136e-14 0 0 0 0)
(2.71051e-14 -1.17481e-14 0 -5.42101e-14 -6.61728e-15 0 0 0 0)
(-2.71051e-14 -1.10939e-14 0 2.71051e-14 2.97815e-15 0 0 0 0)
(-1.46367e-12 -9.33127e-13 0 -4.33681e-13 -1.52468e-11 0 0 0 0)
(1.24683e-12 1.10296e-12 0 1.0842e-13 3.11365e-12 0 0 0 0)
(-5.42101e-14 -1.78035e-13 0 5.42101e-14 -7.60752e-13 0 0 0 0)
(2.71051e-13 2.05868e-14 0 2.71051e-14 1.21918e-13 0 0 0 0)
(-5.42101e-14 -1.70701e-14 0 0 -5.54297e-14 0 0 0 0)
(5.42101e-14 1.19657e-14 0 -5.42101e-14 3.3017e-15 0 0 0 0)
(-8.13152e-14 1.74082e-14 0 0 2.33202e-14 0 0 0 0)
(0 1.75278e-14 0 -8.13152e-14 2.29756e-14 0 0 0 0)
(0 5.80807e-15 0 -2.71051e-14 8.08191e-15 0 0 0 0)
(0 -1.44238e-14 0 -5.42101e-14 -8.38059e-15 0 0 0 0)
(0 -1.63954e-14 0 0 -1.37627e-14 0 0 0 0)
(0 -5.69356e-15 0 5.42101e-14 -1.70131e-14 0 0 0 0)
(0 -2.73025e-15 0 5.42101e-14 -6.87694e-15 0 0 0 0)
(2.71051e-14 -1.74869e-14 0 8.13152e-14 4.24712e-15 0 0 0 0)
(5.42101e-14 -1.94599e-14 0 5.42101e-14 -1.22241e-15 0 0 0 0)
(0 -5.84278e-15 0 2.71051e-14 -2.81378e-15 0 0 0 0)
(-5.42101e-14 4.92923e-15 0 8.13152e-14 -1.30022e-14 0 0 0 0)
(0 1.51884e-14 0 5.42101e-14 -2.71106e-14 0 0 0 0)
(5.42101e-14 1.45041e-14 0 0 -1.19608e-14 0 0 0 0)
(0 -6.11548e-16 0 -2.71051e-14 3.19255e-15 0 0 0 0)
(7.86047e-13 -6.48491e-12 0 1.0571e-12 1.3192e-11 0 0 0 0)
(-6.50521e-13 7.78605e-12 0 0 -2.73418e-12 0 0 0 0)
(5.42101e-14 -1.62e-12 0 2.71051e-13 6.28837e-13 0 0 0 0)
(-1.6263e-13 3.84396e-13 0 -2.71051e-14 -1.35116e-13 0 0 0 0)
(-2.71051e-14 -8.00564e-14 0 0 4.4956e-14 0 0 0 0)
(-5.42101e-14 3.8015e-14 0 -5.42101e-14 1.36144e-14 0 0 0 0)
(5.42101e-14 1.93619e-14 0 0 1.25966e-14 0 0 0 0)
(-5.42101e-14 -1.12403e-15 0 2.71051e-14 1.52454e-15 0 0 0 0)
(5.42101e-14 -2.27958e-14 0 8.13152e-14 -2.00383e-14 0 0 0 0)
(2.71051e-14 -3.14806e-14 0 1.0842e-13 -1.80234e-14 0 0 0 0)
(5.42101e-14 -2.12529e-14 0 1.0842e-13 -7.59552e-15 0 0 0 0)
(-2.71051e-14 3.11775e-15 0 5.42101e-14 2.03247e-15 0 0 0 0)
(0 2.4969e-14 0 2.71051e-14 -2.25528e-15 0 0 0 0)
(0 6.92881e-15 0 0 -7.50495e-15 0 0 0 0)
(0 -1.64324e-14 0 5.42101e-14 -3.12251e-15 0 0 0 0)
(0 -1.07045e-14 0 2.71051e-14 7.35742e-15 0 0 0 0)
(0 -3.11059e-15 0 2.71051e-14 1.60805e-14 0 0 0 0)
(-5.42101e-14 1.27918e-14 0 2.71051e-14 1.02947e-14 0 0 0 0)
(0 1.85551e-14 0 0 5.16634e-15 0 0 0 0)
(0 -2.32567e-15 0 0 1.91286e-15 0 0 0 0)
(-3.52366e-13 9.52466e-12 0 -9.21572e-13 -1.08969e-12 0 0 0 0)
(4.06576e-13 -1.14602e-11 0 -1.35525e-13 2.33973e-13 0 0 0 0)
(-1.0842e-13 2.42103e-12 0 -2.1684e-13 -4.49706e-14 0 0 0 0)
(0 -5.63294e-13 0 -8.13152e-14 1.35658e-15 0 0 0 0)
(5.42101e-14 1.3166e-13 0 -5.42101e-14 -8.18441e-15 0 0 0 0)
(0 -2.03937e-14 0 0 3.63887e-16 0 0 0 0)
(2.71051e-14 5.3183e-15 0 -5.42101e-14 -2.01884e-14 0 0 0 0)
(2.71051e-14 -1.51071e-14 0 5.42101e-14 -2.27473e-14 0 0 0 0)
(0 -1.37399e-14 0 0 -1.01232e-14 0 0 0 0)
(0 -1.98101e-15 0 0 4.37699e-15 0 0 0 0)
(-2.71051e-14 3.66041e-15 0 -5.42101e-14 1.69463e-14 0 0 0 0)
(2.71051e-14 -3.53315e-16 0 0 1.81536e-14 0 0 0 0)
(-5.42101e-14 -1.22677e-14 0 0 6.17534e-15 0 0 0 0)
(0 -1.83542e-14 0 2.71051e-14 -2.55802e-14 0 0 0 0)
(5.42101e-14 -4.59758e-15 0 0 -5.06733e-15 0 0 0 0)
(0 1.33602e-14 0 0 1.1696e-14 0 0 0 0)
(-2.71051e-14 7.86654e-15 0 -2.71051e-14 1.31058e-14 0 0 0 0)
(-2.71051e-14 4.27425e-15 0 -2.71051e-14 1.28165e-14 0 0 0 0)
(0 6.12223e-15 0 0 3.91696e-15 0 0 0 0)
(0 -7.69075e-15 0 0 -2.65252e-15 0 0 0 0)
(-2.71051e-13 -7.34062e-12 0 1.97867e-12 -9.01462e-12 0 0 0 0)
(0 8.83077e-12 0 -1.89735e-13 1.9283e-12 0 0 0 0)
(1.35525e-13 -1.85261e-12 0 2.43945e-13 -4.44988e-13 0 0 0 0)
(5.42101e-14 4.21182e-13 0 8.13152e-14 9.99189e-14 0 0 0 0)
(2.71051e-14 -8.1049e-14 0 1.0842e-13 -2.5909e-14 0 0 0 0)
(-2.71051e-14 2.6011e-14 0 5.42101e-14 1.04276e-15 0 0 0 0)
(0 -3.74925e-15 0 8.13152e-14 -1.29412e-14 0 0 0 0)
(2.71051e-14 8.94117e-15 0 0 -2.15338e-14 0 0 0 0)
(5.42101e-14 4.32849e-15 0 2.71051e-14 -1.98264e-14 0 0 0 0)
(0 -4.41111e-15 0 0 -1.61171e-14 0 0 0 0)
(0 -7.47627e-15 0 2.71051e-14 -6.64244e-15 0 0 0 0)
(2.71051e-14 -7.65319e-15 0 0 7.68324e-16 0 0 0 0)
(2.71051e-14 -1.87648e-14 0 2.71051e-14 -2.728e-15 0 0 0 0)
(2.71051e-14 -4.31385e-15 0 2.71051e-14 5.86676e-15 0 0 0 0)
(-2.71051e-14 2.08438e-14 0 0 2.73052e-14 0 0 0 0)
(-5.42101e-14 7.46866e-15 0 -5.42101e-14 2.00656e-14 0 0 0 0)
(0 -1.99006e-15 0 -2.71051e-14 1.75249e-15 0 0 0 0)
(0 3.60299e-15 0 0 3.39062e-15 0 0 0 0)
(0 3.08604e-15 0 2.71051e-14 -5.58301e-15 0 0 0 0)
(0 -3.59011e-15 0 0 -6.14666e-15 0 0 0 0)
(1.46367e-12 2.43834e-12 0 -1.70762e-12 1.24951e-11 0 0 0 0)
(-1.30104e-12 -2.89054e-12 0 3.25261e-13 -2.56254e-12 0 0 0 0)
(1.35525e-13 5.92651e-13 0 -1.6263e-13 6.17217e-13 0 0 0 0)
(-2.1684e-13 -1.44215e-13 0 0 -1.08383e-13 0 0 0 0)
(2.71051e-14 3.2784e-14 0 -2.71051e-14 3.58394e-14 0 0 0 0)
(0 -7.42593e-15 0 0 -3.30406e-15 0 0 0 0)
(-2.71051e-14 -1.72583e-14 0 0 4.812e-15 0 0 0 0)
(0 -2.19922e-14 0 0 -9.63279e-15 0 0 0 0)
(0 -8.32315e-15 0 0 -1.74647e-14 0 0 0 0)
(0 1.12029e-14 0 -2.71051e-14 -4.66533e-15 0 0 0 0)
(2.71051e-14 2.05459e-14 0 -2.71051e-14 6.07576e-15 0 0 0 0)
(0 3.56113e-15 0 -5.42101e-14 1.23976e-14 0 0 0 0)
(-2.71051e-14 -7.16923e-15 0 -5.42101e-14 -2.45816e-15 0 0 0 0)
(-2.71051e-14 1.16791e-14 0 -5.42101e-14 1.82868e-14 0 0 0 0)
(-2.71051e-14 9.60129e-15 0 -1.0842e-13 2.24775e-14 0 0 0 0)
(0 -1.21925e-14 0 -5.42101e-14 1.42734e-14 0 0 0 0)
(-2.71051e-14 -8.80847e-15 0 -5.42101e-14 2.10131e-15 0 0 0 0)
(0 -3.06125e-15 0 -5.42101e-14 -6.21508e-15 0 0 0 0)
(0 -3.41505e-15 0 -2.71051e-14 -1.77955e-14 0 0 0 0)
(0 4.03893e-15 0 0 -1.31454e-14 0 0 0 0)
(-1.73472e-12 2.59195e-12 0 -4.60786e-13 -9.57696e-12 0 0 0 0)
(1.5992e-12 -3.04713e-12 0 0 1.99362e-12 0 0 0 0)
(-1.6263e-13 6.01548e-13 0 -1.35525e-13 -4.73143e-13 0 0 0 0)
(2.1684e-13 -1.60195e-13 0 -5.42101e-14 8.99585e-14 0 0 0 0)
(0 2.40297e-14 0 -8.13152e-14 -4.00094e-14 0 0 0 0)
(0 -5.01633e-15 0 -5.42101e-14 -1.44408e-14 0 0 0 0)
(0 -1.0078e-14 0 -2.71051e-14 -8.04848e-15 0 0 0 0)
(2.71051e-14 -1.33355e-14 0 0 8.58592e-15 0 0 0 0)
(0 9.29595e-15 0 -2.71051e-14 2.49854e-14 0 0 0 0)
(-2.71051e-14 1.91294e-14 0 -8.13152e-14 2.91585e-14 0 0 0 0)
(-5.42101e-14 9.58662e-15 0 -1.35525e-13 3.19698e-15 0 0 0 0)
(5.42101e-14 -1.61871e-14 0 -8.13152e-14 -2.45973e-14 0 0 0 0)
(0 -1.28756e-14 0 -5.42101e-14 -1.53907e-14 0 0 0 0)
(0 2.06218e-14 0 -5.42101e-14 -1.5099e-15 0 0 0 0)
(0 1.68304e-14 0 -2.71051e-14 -5.46366e-15 0 0 0 0)
(0 -1.29075e-14 0 0 -5.85332e-15 0 0 0 0)
(0 -2.24786e-14 0 5.42101e-14 -1.14036e-14 0 0 0 0)
(2.71051e-14 -1.62939e-14 0 5.42101e-14 -1.60176e-14 0 0 0 0)
(0 -3.84425e-15 0 0 -1.29658e-14 0 0 0 0)
(5.42101e-14 2.73508e-14 0 0 -1.19421e-14 0 0 0 0)
(1.00289e-12 -5.145e-12 0 9.48677e-13 4.42184e-12 0 0 0 0)
(-9.48677e-13 6.21327e-12 0 0 -1.02149e-12 0 0 0 0)
(1.0842e-13 -1.31101e-12 0 1.6263e-13 2.2609e-13 0 0 0 0)
(-1.0842e-13 2.88918e-13 0 8.13152e-14 -5.84153e-14 0 0 0 0)
(0 -7.16152e-14 0 5.42101e-14 1.7006e-14 0 0 0 0)
(0 2.4535e-14 0 5.42101e-14 5.96249e-15 0 0 0 0)
(0 5.76837e-15 0 0 7.43923e-15 0 0 0 0)
(-2.71051e-14 1.10417e-14 0 -5.42101e-14 1.83565e-14 0 0 0 0)
(-2.71051e-14 1.22495e-14 0 -5.42101e-14 2.30006e-14 0 0 0 0)
(-5.42101e-14 -1.05855e-14 0 0 8.23429e-15 0 0 0 0)
(0 -3.321e-14 0 8.13152e-14 -7.73597e-15 0 0 0 0)
(5.42101e-14 -1.50266e-14 0 8.13152e-14 -7.85157e-15 0 0 0 0)
(-5.42101e-14 1.59182e-14 0 5.42101e-14 1.88916e-14 0 0 0 0)
(0 2.16061e-14 0 0 7.51834e-15 0 0 0 0)
(5.42101e-14 5.25787e-15 0 2.71051e-14 -2.73545e-14 0 0 0 0)
(5.42101e-14 -1.81325e-14 0 8.13152e-14 -2.84133e-14 0 0 0 0)
(0 -1.89727e-14 0 5.42101e-14 -9.23813e-15 0 0 0 0)
(0 -4.62339e-15 0 0 4.84321e-15 0 0 0 0)
(-2.71051e-14 6.60478e-16 0 5.42101e-14 1.47928e-14 0 0 0 0)
(-2.71051e-14 2.89467e-14 0 2.71051e-14 1.14032e-14 0 0 0 0)
(-7.58942e-13 5.99229e-12 0 -4.87891e-13 6.57001e-13 0 0 0 0)
(8.13152e-13 -7.24287e-12 0 -2.43945e-13 -1.08613e-13 0 0 0 0)
(-1.89735e-13 1.56463e-12 0 -2.43945e-13 -5.21606e-15 0 0 0 0)
(1.35525e-13 -3.69279e-13 0 -8.13152e-14 -1.96433e-14 0 0 0 0)
(-5.42101e-14 8.84075e-14 0 -1.35525e-13 7.98586e-16 0 0 0 0)
(-2.71051e-14 -1.45831e-14 0 -8.13152e-14 -1.0873e-15 0 0 0 0)
(0 2.31609e-15 0 -5.42101e-14 -1.04163e-15 0 0 0 0)
(0 2.22583e-15 0 -2.71051e-14 2.77014e-15 0 0 0 0)
(0 -8.26302e-16 0 -2.71051e-14 -1.77427e-16 0 0 0 0)
(8.13152e-14 -1.16072e-14 0 -2.71051e-14 -6.31602e-15 0 0 0 0)
(0 -6.49925e-15 0 0 6.13542e-15 0 0 0 0)
(0 1.04405e-14 0 -8.13152e-14 1.25916e-14 0 0 0 0)
(-8.13152e-14 2.49429e-15 0 -5.42101e-14 7.4168e-15 0 0 0 0)
(2.71051e-14 -2.56244e-14 0 0 -1.95497e-14 0 0 0 0)
(5.42101e-14 -1.91012e-14 0 0 -3.19923e-14 0 0 0 0)
(2.71051e-14 5.20889e-15 0 -2.71051e-14 -2.11947e-14 0 0 0 0)
(-2.71051e-14 1.07779e-14 0 -5.42101e-14 9.58328e-15 0 0 0 0)
(0 7.73709e-15 0 0 1.22764e-14 0 0 0 0)
(5.42101e-14 2.71575e-15 0 -5.42101e-14 1.30604e-14 0 0 0 0)
(-5.42101e-14 1.15476e-15 0 0 1.72651e-14 0 0 0 0)
(2.71051e-13 -4.59661e-12 0 -1.11131e-12 -8.19575e-12 0 0 0 0)
(-6.77626e-13 5.55106e-12 0 4.33681e-13 1.69308e-12 0 0 0 0)
(2.1684e-13 -1.22204e-12 0 2.71051e-14 -4.31627e-13 0 0 0 0)
(5.42101e-14 2.94933e-13 0 0 7.05945e-14 0 0 0 0)
(0 -5.30592e-14 0 5.42101e-14 -3.52913e-14 0 0 0 0)
(5.42101e-14 2.26948e-14 0 0 -1.87652e-14 0 0 0 0)
(0 9.62581e-15 0 -2.71051e-14 -1.02972e-14 0 0 0 0)
(0 1.19059e-14 0 0 1.52636e-16 0 0 0 0)
(0 3.16331e-15 0 2.71051e-14 -4.35908e-15 0 0 0 0)
(0 -4.27269e-15 0 2.71051e-14 -1.22248e-14 0 0 0 0)
(-5.42101e-14 -1.43025e-14 0 5.42101e-14 -7.827e-15 0 0 0 0)
(5.42101e-14 -1.37452e-14 0 0 -1.58497e-14 0 0 0 0)
(2.71051e-14 -1.62231e-14 0 5.42101e-14 -2.1924e-14 0 0 0 0)
(5.42101e-14 -1.7803e-14 0 5.42101e-14 -1.96915e-14 0 0 0 0)
(-5.42101e-14 3.61286e-15 0 -2.71051e-14 2.73169e-15 0 0 0 0)
(5.42101e-14 2.34431e-14 0 -8.13152e-14 1.29224e-16 0 0 0 0)
(0 1.44984e-14 0 -5.42101e-14 1.25645e-15 0 0 0 0)
(0 -1.14632e-15 0 0 -6.80627e-15 0 0 0 0)
(0 5.6492e-15 0 -5.42101e-14 -8.83166e-15 0 0 0 0)
(0 -1.37871e-15 0 0 -3.3621e-15 0 0 0 0)
(-1.46367e-12 -5.10386e-13 0 7.31836e-13 1.41484e-11 0 0 0 0)
(1.95156e-12 5.2125e-13 0 8.13152e-14 -3.04857e-12 0 0 0 0)
(-5.42101e-13 -5.78545e-14 0 2.43945e-13 7.47066e-13 0 0 0 0)
(5.42101e-14 2.70567e-14 0 1.0842e-13 -1.26398e-13 0 0 0 0)
(-5.42101e-14 -9.52196e-16 0 1.0842e-13 6.096e-14 0 0 0 0)
(-2.71051e-14 1.0411e-14 0 8.13152e-14 5.04033e-15 0 0 0 0)
(0 2.12339e-14 0 8.13152e-14 -4.07001e-15 0 0 0 0)
(2.71051e-14 8.16399e-15 0 1.0842e-13 -1.65633e-14 0 0 0 0)
(0 -1.32038e-14 0 8.13152e-14 -2.51882e-14 0 0 0 0)
(5.42101e-14 -1.50751e-14 0 1.0842e-13 -2.63999e-14 0 0 0 0)
(2.71051e-14 -1.01241e-14 0 5.42101e-14 -1.41466e-14 0 0 0 0)
(-2.71051e-14 -3.65653e-15 0 1.35525e-13 1.04372e-14 0 0 0 0)
(0 -1.34759e-15 0 2.71051e-14 1.63542e-14 0 0 0 0)
(-5.42101e-14 -9.68671e-16 0 2.71051e-14 2.05106e-14 0 0 0 0)
(-2.71051e-14 7.19544e-16 0 8.13152e-14 1.41443e-14 0 0 0 0)
(0 3.73366e-15 0 2.71051e-14 4.99057e-16 0 0 0 0)
(0 3.84245e-15 0 0 -8.97549e-15 0 0 0 0)
(2.71051e-14 -2.35102e-15 0 0 -2.43672e-15 0 0 0 0)
(5.42101e-14 6.15992e-15 0 5.42101e-14 -4.01445e-15 0 0 0 0)
(0 1.33485e-14 0 0 -9.69947e-15 0 0 0 0)
(1.16552e-12 6.50322e-12 0 3.55076e-12 -4.02803e-12 0 0 0 0)
(-1.24683e-12 -7.85028e-12 0 -1.00289e-12 9.82353e-13 0 0 0 0)
(2.43945e-13 1.70013e-12 0 8.13152e-14 -2.01734e-13 0 0 0 0)
(-1.0842e-13 -3.91173e-13 0 -5.42101e-14 7.01727e-14 0 0 0 0)
(2.71051e-14 7.83792e-14 0 2.71051e-14 -1.38565e-15 0 0 0 0)
(-2.71051e-14 -4.23353e-14 0 5.42101e-14 9.83632e-15 0 0 0 0)
(0 -1.19778e-14 0 5.42101e-14 -1.14457e-14 0 0 0 0)
(2.71051e-14 -9.21231e-15 0 5.42101e-14 -1.9249e-14 0 0 0 0)
(2.71051e-14 -6.67335e-15 0 5.42101e-14 -2.20699e-14 0 0 0 0)
(2.71051e-14 6.76886e-15 0 2.71051e-14 -7.84648e-15 0 0 0 0)
(-2.71051e-14 2.25346e-14 0 0 -5.76293e-17 0 0 0 0)
(-2.71051e-14 1.67556e-14 0 2.71051e-14 1.29189e-14 0 0 0 0)
(-2.71051e-14 -6.14965e-15 0 2.71051e-14 2.17715e-14 0 0 0 0)
(0 -2.00128e-14 0 2.71051e-14 1.64778e-14 0 0 0 0)
(0 -1.63987e-14 0 5.42101e-14 8.55858e-15 0 0 0 0)
(0 3.23275e-16 0 1.0842e-13 5.62209e-15 0 0 0 0)
(-2.71051e-14 1.15626e-14 0 8.13152e-14 1.09396e-15 0 0 0 0)
(-2.71051e-14 3.81471e-15 0 0 9.75582e-15 0 0 0 0)
(0 -1.61355e-15 0 2.71051e-14 1.17904e-14 0 0 0 0)
(0 1.23352e-14 0 0 4.86993e-15 0 0 0 0)
(1.0571e-12 -3.55606e-12 0 -2.22261e-12 -1.44901e-11 0 0 0 0)
(-1.49078e-12 4.34754e-12 0 5.42101e-13 3.0595e-12 0 0 0 0)
(4.33681e-13 -9.70034e-13 0 -5.42101e-14 -7.41718e-13 0 0 0 0)
(0 2.27405e-13 0 5.42101e-14 1.30075e-13 0 0 0 0)
(2.71051e-14 -6.12886e-14 0 2.71051e-14 -6.67182e-14 0 0 0 0)
(2.71051e-14 3.50931e-16 0 2.71051e-14 -1.49088e-14 0 0 0 0)
(0 -7.85145e-15 0 0 -6.72402e-15 0 0 0 0)
(0 -2.46024e-15 0 0 4.31881e-15 0 0 0 0)
(-2.71051e-14 -1.80125e-15 0 -2.71051e-14 5.4753e-15 0 0 0 0)
(0 6.93717e-15 0 -8.13152e-14 4.37052e-15 0 0 0 0)
(0 1.06413e-14 0 -5.42101e-14 -2.68442e-15 0 0 0 0)
(0 1.81726e-14 0 -8.13152e-14 -1.0586e-14 0 0 0 0)
(2.71051e-14 2.21127e-15 0 -2.71051e-14 -2.57414e-15 0 0 0 0)
(0 -1.41816e-14 0 -2.71051e-14 2.86976e-15 0 0 0 0)
(0 -1.01361e-14 0 -5.42101e-14 1.36063e-14 0 0 0 0)
(-2.71051e-14 -3.73095e-15 0 -2.71051e-14 1.56512e-14 0 0 0 0)
(-2.71051e-14 7.97619e-15 0 -2.71051e-14 4.77515e-15 0 0 0 0)
(2.71051e-14 8.34537e-15 0 -5.42101e-14 1.27428e-15 0 0 0 0)
(2.71051e-14 1.27403e-15 0 -2.71051e-14 7.45741e-15 0 0 0 0)
(-5.42101e-14 -3.31177e-15 0 0 1.00293e-14 0 0 0 0)
(-5.42101e-13 -4.92736e-12 0 -6.50521e-13 1.07973e-11 0 0 0 0)
(9.75782e-13 5.89809e-12 0 1.35525e-13 -2.31388e-12 0 0 0 0)
(-2.43945e-13 -1.2293e-12 0 -8.13152e-14 5.51666e-13 0 0 0 0)
(-2.71051e-14 2.83826e-13 0 -5.42101e-14 -1.14544e-13 0 0 0 0)
(0 -6.66047e-14 0 -8.13152e-14 4.04346e-14 0 0 0 0)
(-2.71051e-14 1.76589e-14 0 -8.13152e-14 1.33494e-14 0 0 0 0)
(-5.42101e-14 7.2498e-15 0 -5.42101e-14 2.24248e-14 0 0 0 0)
(0 2.987e-15 0 -8.13152e-14 1.39511e-14 0 0 0 0)
(-2.71051e-14 -6.62165e-15 0 -5.42101e-14 2.1898e-14 0 0 0 0)
(-5.42101e-14 -1.39085e-15 0 0 2.2374e-14 0 0 0 0)
(0 7.57818e-15 0 0 1.63517e-14 0 0 0 0)
(-5.42101e-14 1.68659e-14 0 0 4.15447e-15 0 0 0 0)
(5.42101e-14 7.30606e-15 0 -2.71051e-14 -1.86869e-14 0 0 0 0)
(0 -3.83242e-15 0 -2.71051e-14 -5.36286e-15 0 0 0 0)
(0 -3.61725e-15 0 0 -6.72836e-16 0 0 0 0)
(0 -8.50783e-15 0 -2.71051e-14 8.39051e-15 0 0 0 0)
(-5.42101e-14 -2.81432e-15 0 0 1.15659e-14 0 0 0 0)
(0 6.49697e-15 0 5.42101e-14 3.22864e-15 0 0 0 0)
(5.42101e-14 7.14148e-15 0 0 -3.2764e-15 0 0 0 0)
(0 -5.15149e-15 0 -2.71051e-14 -5.18686e-15 0 0 0 0)
)
;

boundaryField
{
    movingWall
    {
        type            extrapolatedCalculated;
        value           nonuniform List<tensor> 
20
(
(-5.42101e-13 -4.92736e-12 0 3.4639e-12 2.48438e-11 0 0 0 0)
(9.75782e-13 5.89809e-12 0 -1.33227e-12 -5.13436e-12 0 0 0 0)
(-2.43945e-13 -1.2293e-12 0 -3.55271e-13 1.25144e-12 0 0 0 0)
(-2.71051e-14 2.83826e-13 0 -3.55271e-13 -2.17164e-13 0 0 0 0)
(0 -6.66047e-14 0 -3.10862e-13 1.16139e-13 0 0 0 0)
(-2.71051e-14 1.76589e-14 0 -3.10862e-13 4.9255e-14 0 0 0 0)
(-5.42101e-14 7.2498e-15 0 -1.77636e-13 4.55034e-14 0 0 0 0)
(0 2.987e-15 0 -2.22045e-13 2.02558e-14 0 0 0 0)
(-2.71051e-14 -6.62165e-15 0 -1.33227e-13 3.35553e-14 0 0 0 0)
(-5.42101e-14 -1.39085e-15 0 0 4.67424e-14 0 0 0 0)
(0 7.57818e-15 0 0 3.91187e-14 0 0 0 0)
(-5.42101e-14 1.68659e-14 0 8.88178e-14 1.64297e-14 0 0 0 0)
(5.42101e-14 7.30606e-15 0 0 -2.83449e-14 0 0 0 0)
(0 -3.83242e-15 0 0 -1.27945e-14 0 0 0 0)
(0 -3.61725e-15 0 8.88178e-14 -1.30153e-14 0 0 0 0)
(0 -8.50783e-15 0 -4.44089e-14 1.67448e-15 0 0 0 0)
(-5.42101e-14 -2.81432e-15 0 0 2.1016e-14 0 0 0 0)
(0 6.49697e-15 0 8.88178e-14 1.29318e-14 0 0 0 0)
(5.42101e-14 7.14148e-15 0 8.88178e-14 -4.97182e-15 0 0 0 0)
(0 -5.15149e-15 0 -4.44089e-14 -1.56342e-14 0 0 0 0)
)
;
    }
    fixedWalls
    {
        type            extrapolatedCalculated;
        value           nonuniform List<tensor> 
60
(
(-1.86517e-12 4.10461e-11 0 1.89735e-13 1.2169e-11 0 0 0 0)
(2.66454e-12 7.62969e-12 0 1.46367e-12 -1.7817e-11 0 0 0 0)
(3.95239e-12 -3.02218e-11 0 -2.41235e-12 -3.80319e-15 0 0 0 0)
(-7.01661e-12 7.61448e-12 0 3.25261e-13 1.07076e-11 0 0 0 0)
(5.32907e-12 1.26086e-11 0 6.23416e-13 -8.08649e-12 0 0 0 0)
(-4.52971e-12 -2.47315e-11 0 -5.42101e-14 3.90479e-12 0 0 0 0)
(5.10703e-12 2.82277e-11 0 -4.06576e-13 5.05621e-12 0 0 0 0)
(-6.12843e-12 -4.50663e-12 0 -4.33681e-13 -1.52468e-11 0 0 0 0)
(3.24185e-12 -3.27593e-11 0 1.0571e-12 1.3192e-11 0 0 0 0)
(-1.86517e-12 4.82612e-11 0 -9.21572e-13 -1.08969e-12 0 0 0 0)
(-4.44089e-13 -3.71181e-11 0 1.97867e-12 -9.01462e-12 0 0 0 0)
(6.17284e-12 1.22028e-11 0 -1.70762e-12 1.24951e-11 0 0 0 0)
(-7.4607e-12 1.28624e-11 0 -4.60786e-13 -9.57696e-12 0 0 0 0)
(4.35207e-12 -2.61051e-11 0 9.48677e-13 4.42184e-12 0 0 0 0)
(-3.64153e-12 3.05497e-11 0 -4.87891e-13 6.57001e-13 0 0 0 0)
(2.35367e-12 -2.34771e-11 0 -1.11131e-12 -8.19575e-12 0 0 0 0)
(-8.08242e-12 -2.23328e-12 0 7.31836e-13 1.41484e-11 0 0 0 0)
(5.50671e-12 3.31165e-11 0 3.55076e-12 -4.02803e-12 0 0 0 0)
(6.03961e-12 -1.83454e-11 0 -2.22261e-12 -1.44901e-11 0 0 0 0)
(-3.4639e-12 -2.48438e-11 0 -6.50521e-13 1.07973e-11 0 0 0 0)
(8.88178e-14 1.52111e-14 0 0 -1.45712e-14 0 0 0 0)
(0 4.30736e-14 0 2.71051e-14 -4.15339e-15 0 0 0 0)
(-4.44089e-14 3.18247e-14 0 0 4.92352e-15 0 0 0 0)
(0 2.33795e-14 0 0 2.92473e-15 0 0 0 0)
(-8.88178e-14 2.01258e-14 0 0 5.35621e-15 0 0 0 0)
(0 1.95466e-15 0 -2.71051e-14 6.00407e-15 0 0 0 0)
(-4.44089e-14 -3.89049e-15 0 2.71051e-14 2.97815e-15 0 0 0 0)
(0 -9.95793e-15 0 -2.71051e-14 3.19255e-15 0 0 0 0)
(0 -1.66607e-14 0 0 1.91286e-15 0 0 0 0)
(0 -1.76094e-14 0 0 -2.65252e-15 0 0 0 0)
(-4.44089e-14 -6.05063e-15 0 0 -6.14666e-15 0 0 0 0)
(0 6.97729e-15 0 0 -1.31454e-14 0 0 0 0)
(8.88178e-14 4.65309e-14 0 0 -1.19421e-14 0 0 0 0)
(0 5.47456e-14 0 2.71051e-14 1.14032e-14 0 0 0 0)
(-8.88178e-14 9.18022e-16 0 0 1.72651e-14 0 0 0 0)
(0 -1.43148e-14 0 0 -3.3621e-15 0 0 0 0)
(-4.44089e-14 1.43664e-14 0 0 -9.69947e-15 0 0 0 0)
(0 2.44831e-14 0 0 4.86993e-15 0 0 0 0)
(-8.88178e-14 -5.1133e-15 0 0 1.00293e-14 0 0 0 0)
(-4.44089e-14 -1.56342e-14 0 -2.71051e-14 -5.18686e-15 0 0 0 0)
(-2.1684e-13 8.15266e-12 0 -1.86517e-12 4.10461e-11 0 0 0 0)
(5.96311e-13 -9.75924e-12 0 1.06581e-12 -8.4355e-12 0 0 0 0)
(-1.89735e-13 2.00508e-12 0 4.44089e-13 2.00916e-12 0 0 0 0)
(0 -4.76268e-13 0 3.55271e-13 -4.15171e-13 0 0 0 0)
(-2.71051e-14 1.15455e-13 0 3.55271e-13 1.04085e-13 0 0 0 0)
(-2.71051e-14 8.91867e-16 0 3.10862e-13 4.66496e-14 0 0 0 0)
(-5.42101e-14 8.63514e-15 0 2.22045e-13 1.07652e-13 0 0 0 0)
(-2.71051e-14 -1.25571e-14 0 1.77636e-13 8.11901e-14 0 0 0 0)
(-5.42101e-14 -1.81168e-14 0 8.88178e-14 5.74242e-14 0 0 0 0)
(0 -2.43434e-14 0 -8.88178e-14 8.72278e-15 0 0 0 0)
(2.71051e-14 -7.44246e-15 0 4.44089e-14 -3.99493e-14 0 0 0 0)
(0 6.64457e-15 0 4.44089e-14 -2.10471e-14 0 0 0 0)
(0 -1.38586e-15 0 4.44089e-14 -1.3371e-14 0 0 0 0)
(0 -2.4788e-15 0 4.44089e-14 -2.65905e-14 0 0 0 0)
(0 4.12995e-15 0 4.44089e-14 -2.32862e-14 0 0 0 0)
(2.71051e-14 1.0545e-14 0 4.44089e-14 -1.00707e-14 0 0 0 0)
(0 1.27428e-14 0 1.33227e-13 1.88937e-14 0 0 0 0)
(-5.42101e-14 1.98606e-15 0 0 4.09007e-14 0 0 0 0)
(-5.42101e-14 -1.4028e-14 0 -8.88178e-14 2.6838e-14 0 0 0 0)
(5.42101e-14 -2.90671e-15 0 -8.88178e-14 -1.52111e-14 0 0 0 0)
)
;
    }
    frontAndBack
    {
        type            empty;
    }
}


// ************************************************************************* //
