/*--------------------------------*- C++ -*----------------------------------*\
| =========                 |                                                 |
| \\      /  F ield         | OpenFOAM: The Open Source CFD Toolbox           |
|  \\    /   O peration     | Version:  2312                                  |
|   \\  /    A nd           | Website:  www.openfoam.com                      |
|    \\/     M anipulation  |                                                 |
\*---------------------------------------------------------------------------*/
FoamFile
{
    version     2.0;
    format      ascii;
    arch        "LSB;label=32;scalar=64";
    class       volVectorField;
    location    "8.75";
    object      LambVectorField;
}
// * * * * * * * * * * * * * * * * * * * * * * * * * * * * * * * * * * * * * //

dimensions      [0 1 -2 0 0 0 0];

internalField   nonuniform List<vector> 
400
(
(-8.17118e-25 -7.96292e-12 -7.96292e-12)
(-2.05239e-25 9.73214e-12 -0)
(-9.79903e-27 -1.95087e-12 -1.95087e-12)
(-6.06864e-28 5.84688e-13 -0)
(-8.88366e-30 -3.414e-14 -3.414e-14)
(6.21818e-30 5.33182e-14 0)
(1.22656e-29 4.5575e-14 4.5575e-14)
(1.35521e-29 6.67672e-14 0)
(1.03833e-29 7.23269e-14 7.23269e-14)
(5.30855e-31 2.43434e-14 0)
(-6.15744e-30 6.16526e-14 6.16526e-14)
(3.49621e-31 -6.64457e-15 -0)
(-4.63259e-32 1.38586e-15 1.38586e-15)
(-1.64781e-31 2.4788e-15 -0)
(2.40427e-31 -4.12995e-15 -4.12995e-15)
(1.63032e-30 -6.47551e-14 -0)
(6.78389e-31 1.43622e-14 1.43622e-14)
(-2.03078e-31 -1.98606e-15 0)
(-2.69602e-30 -4.01822e-14 -4.01822e-14)
(-1.10536e-31 2.90671e-15 -0)
(-1.42976e-27 -7.49578e-14 -7.49578e-14)
(-4.67699e-27 1.26819e-12 -0)
(-4.35364e-28 -4.48217e-13 -4.48217e-13)
(1.84096e-29 -6.34901e-14 -0)
(3.48687e-30 -1.73659e-13 -1.73659e-13)
(-1.39898e-29 -1.53096e-13 0)
(-2.06136e-29 -1.32454e-13 -1.32454e-13)
(-6.43094e-30 -1.06012e-13 0)
(-4.24243e-30 -3.22499e-14 -3.22499e-14)
(7.90541e-31 7.05144e-15 0)
(-6.50386e-30 -1.06561e-13 -1.06561e-13)
(1.9404e-31 2.07494e-15 0)
(-1.83241e-30 -4.54863e-14 -4.54863e-14)
(-3.28206e-31 -5.22763e-14 0)
(-7.81974e-32 -3.73313e-15 -3.73313e-15)
(-2.16349e-31 -4.96105e-15 0)
(-6.05048e-30 -8.57525e-14 -8.57525e-14)
(9.82718e-31 1.11694e-14 0)
(-3.0349e-30 7.37768e-14 7.37768e-14)
(-1.31623e-30 1.2223e-14 -0)
(-2.70662e-25 3.58234e-12 3.58234e-12)
(-1.00904e-25 -6.46507e-12 0)
(-5.36229e-27 1.49554e-12 1.49554e-12)
(-2.19784e-28 -3.36955e-13 0)
(-2.01457e-29 9.32778e-14 9.32778e-14)
(1.00901e-31 -1.06626e-14 -0)
(5.34814e-30 -4.89091e-14 -4.89091e-14)
(2.98093e-30 -4.77152e-14 -0)
(-9.43286e-30 -9.74947e-14 -9.74947e-14)
(-5.8122e-30 -5.85187e-14 0)
(-2.80211e-31 -2.00381e-15 -2.00381e-15)
(4.44266e-30 3.72207e-14 0)
(2.34311e-30 6.05726e-14 6.05726e-14)
(-9.38496e-32 -1.68383e-15 0)
(3.3436e-31 6.02222e-15 6.02222e-15)
(-2.97603e-31 6.63313e-14 -0)
(-4.09047e-30 6.22681e-14 6.22681e-14)
(-5.28976e-30 6.21836e-14 -0)
(-3.86173e-30 2.65546e-14 2.65546e-14)
(1.79004e-30 -2.24988e-14 -0)
(-2.3309e-26 -1.22446e-12 -1.22446e-12)
(-6.25799e-27 1.76829e-12 -0)
(-1.84998e-28 -2.28052e-13 -2.28052e-13)
(-3.19773e-29 1.83471e-13 -0)
(1.9988e-30 3.29245e-14 3.29245e-14)
(1.22252e-30 3.17009e-14 0)
(2.54513e-30 1.72552e-13 1.72552e-13)
(-7.45529e-30 1.2291e-13 -0)
(-1.48819e-29 1.14345e-13 1.14345e-13)
(-1.17816e-29 9.82566e-14 -0)
(-2.55324e-30 8.95475e-14 8.95475e-14)
(1.26359e-30 1.83605e-14 0)
(3.69248e-30 6.2656e-14 6.2656e-14)
(-1.8892e-30 1.20809e-13 -0)
(-4.18001e-30 6.43558e-14 6.43558e-14)
(-7.28123e-30 6.21824e-14 -0)
(-7.30808e-30 5.05139e-14 5.05139e-14)
(4.97011e-30 -6.20233e-14 -0)
(1.44292e-31 -2.16841e-15 -2.16841e-15)
(7.3056e-31 -1.24992e-14 -0)
(-5.83676e-26 -1.85168e-12 -1.85168e-12)
(-1.94822e-26 2.87749e-12 -0)
(-9.99976e-28 -6.01551e-13 -6.01551e-13)
(-4.30813e-29 2.02336e-13 -0)
(6.56734e-30 3.62687e-14 3.62687e-14)
(-4.63701e-30 1.38393e-13 -0)
(-9.10444e-30 7.67301e-14 7.67301e-14)
(-1.96872e-29 7.60985e-14 -0)
(3.97505e-30 -1.17766e-14 -1.17766e-14)
(1.44812e-29 -1.02747e-13 -0)
(-1.03766e-29 -7.01928e-14 -7.01928e-14)
(-1.04863e-29 -3.61676e-14 0)
(6.46806e-30 2.71247e-14 2.71247e-14)
(1.15365e-30 6.17265e-14 0)
(-4.35959e-30 4.0457e-14 4.0457e-14)
(4.27101e-31 -3.71944e-15 -0)
(4.99085e-31 -7.07276e-15 -7.07276e-15)
(-2.41338e-30 5.47227e-14 -0)
(-2.09862e-30 2.77263e-14 2.77263e-14)
(6.33987e-31 -1.26005e-14 -0)
(-2.98094e-25 4.82129e-12 4.82129e-12)
(-7.48518e-26 -5.72536e-12 0)
(-3.6659e-27 1.24319e-12 1.24319e-12)
(-2.98021e-28 -3.26457e-13 0)
(4.34268e-30 9.70884e-14 9.70884e-14)
(-2.96371e-30 5.11062e-14 -0)
(5.0316e-30 -2.57657e-14 -2.57657e-14)
(3.5334e-30 -4.9498e-14 -0)
(-1.01033e-30 -3.5269e-14 -3.5269e-14)
(6.34448e-32 6.18702e-15 0)
(6.51359e-31 -1.96052e-14 -1.96052e-14)
(1.55088e-30 -2.39539e-14 -0)
(1.99506e-30 -3.08189e-14 -3.08189e-14)
(2.42547e-30 -8.78608e-14 -0)
(-5.86295e-32 -8.12303e-14 -8.12303e-14)
(1.62631e-30 -5.71545e-14 -0)
(-1.17494e-30 -3.89495e-14 -3.89495e-14)
(-2.59422e-30 -2.88278e-14 0)
(4.49654e-31 9.48769e-15 9.48769e-15)
(1.11682e-31 -2.28544e-14 -0)
(-4.27282e-25 -6.05478e-12 -6.05478e-12)
(-9.09476e-26 6.45602e-12 -0)
(-6.05779e-27 -1.697e-12 -1.697e-12)
(-9.86602e-29 2.66716e-13 -0)
(-3.34398e-29 -9.27701e-14 -9.27701e-14)
(2.13878e-31 1.36298e-14 0)
(2.52729e-30 -5.38981e-14 -5.38981e-14)
(-8.58994e-31 -6.83244e-14 0)
(-8.47104e-30 -8.98755e-14 -8.98755e-14)
(9.46027e-31 9.63602e-15 0)
(8.76381e-32 -4.15897e-14 -4.15897e-14)
(1.41377e-30 -5.04421e-14 -0)
(3.38288e-30 -8.50239e-14 -8.50239e-14)
(-7.48219e-31 -8.25894e-14 0)
(1.21264e-30 -4.48386e-14 -4.48386e-14)
(9.10285e-32 -1.07528e-15 -0)
(1.66992e-30 -1.02501e-13 -1.02501e-13)
(-1.18386e-29 -9.30656e-14 0)
(-4.29771e-30 -4.2462e-14 -4.2462e-14)
(3.71532e-31 3.8199e-14 0)
(-5.62705e-27 4.99446e-13 4.99446e-13)
(-1.92473e-27 -9.94538e-13 0)
(-5.50408e-29 2.32245e-13 2.32245e-13)
(1.01005e-30 6.51829e-15 0)
(-5.31338e-31 1.70701e-14 1.70701e-14)
(1.0419e-30 -6.61758e-14 -0)
(-1.54114e-30 -1.74082e-14 -1.74082e-14)
(-1.56505e-29 -9.88429e-14 0)
(-8.68273e-30 -3.29131e-14 -3.29131e-14)
(-8.61047e-30 -3.97863e-14 0)
(1.96039e-30 1.63954e-14 1.63954e-14)
(3.14275e-30 5.99037e-14 0)
(3.5664e-30 5.69404e-14 5.69404e-14)
(2.48595e-30 9.88021e-14 0)
(-8.26838e-30 7.36701e-14 7.36701e-14)
(-5.58263e-30 3.29478e-14 -0)
(-1.30363e-29 7.63859e-14 7.63859e-14)
(-4.68831e-30 3.90217e-14 -0)
(2.72378e-31 -1.45041e-14 -1.45041e-14)
(-6.59551e-31 -2.64935e-14 0)
(-6.17678e-25 7.542e-12 7.542e-12)
(-1.32746e-25 -7.78605e-12 0)
(-7.63567e-27 1.89105e-12 1.89105e-12)
(-3.49477e-28 -4.11501e-13 0)
(-1.5518e-29 8.00564e-14 8.00564e-14)
(-4.49218e-30 -9.22252e-14 0)
(-3.60736e-30 -1.93619e-14 -1.93619e-14)
(6.8407e-30 2.82291e-14 0)
(1.82269e-29 1.04111e-13 1.04111e-13)
(2.01041e-30 1.39901e-13 0)
(-1.81198e-29 1.29673e-13 1.29673e-13)
(-1.01244e-29 5.10924e-14 -0)
(-2.31887e-31 2.13609e-15 2.13609e-15)
(-3.57047e-31 -6.92881e-15 0)
(-2.77403e-30 7.06425e-14 7.06425e-14)
(-4.26466e-30 3.78095e-14 -0)
(-4.42095e-30 3.02156e-14 3.02156e-14)
(-2.05966e-30 1.43132e-14 -0)
(3.41321e-31 -1.85551e-14 -1.85551e-14)
(9.68682e-32 2.32567e-15 0)
(-1.26037e-24 -1.04462e-11 -1.04462e-11)
(-2.8772e-25 1.13246e-11 -0)
(-1.59628e-26 -2.63787e-12 -2.63787e-12)
(-5.76544e-28 4.81979e-13 -0)
(-7.77742e-29 -1.8587e-13 -1.8587e-13)
(2.4554e-30 2.03937e-14 0)
(-1.27686e-29 -5.95284e-14 -5.95284e-14)
(1.20323e-29 6.93172e-14 0)
(8.71443e-31 1.37399e-14 1.37399e-14)
(7.1681e-32 1.98101e-15 0)
(-2.52398e-30 -5.78705e-14 -5.78705e-14)
(2.57171e-32 3.53315e-16 0)
(4.91702e-31 1.22677e-14 1.22677e-14)
(-2.26789e-30 4.54592e-14 -0)
(-6.5957e-31 4.59758e-15 4.59758e-15)
(1.28077e-30 -1.33602e-14 -0)
(3.44763e-31 -3.49716e-14 -3.49716e-14)
(5.39689e-31 -3.13793e-14 -0)
(-2.01324e-31 -6.12223e-15 -6.12223e-15)
(3.38573e-31 7.69075e-15 0)
(-8.64786e-25 9.31929e-12 9.31929e-12)
(-1.74898e-25 -9.02051e-12 0)
(-9.40832e-27 2.09656e-12 2.09656e-12)
(-2.9325e-28 -3.39867e-13 0)
(-5.22333e-29 1.89469e-13 1.89469e-13)
(1.47616e-30 2.81991e-14 0)
(-1.32463e-30 8.50644e-14 8.50644e-14)
(-1.32823e-31 -8.94117e-15 0)
(1.68181e-30 2.27766e-14 2.27766e-14)
(2.56463e-31 4.41111e-15 0)
(1.02805e-30 3.45813e-14 3.45813e-14)
(-1.27216e-31 7.65319e-15 -0)
(-2.14687e-30 4.58699e-14 4.58699e-14)
(-6.41797e-30 3.14189e-14 -0)
(1.87473e-30 -2.08438e-14 -2.08438e-14)
(-2.56999e-31 -6.16788e-14 0)
(3.83137e-31 -2.5115e-14 -2.5115e-14)
(5.66888e-32 -3.60299e-15 -0)
(4.98985e-31 2.4019e-14 2.4019e-14)
(5.43061e-32 3.59011e-15 0)
(-1.2648e-25 -4.14596e-12 -4.14596e-12)
(-1.96921e-26 3.2158e-12 -0)
(-1.20958e-27 -7.55282e-13 -7.55282e-13)
(-2.84122e-29 1.44215e-13 -0)
(-9.54286e-30 -5.98891e-14 -5.98891e-14)
(9.71514e-31 7.42593e-15 0)
(1.46839e-30 1.72583e-14 1.72583e-14)
(-9.18301e-31 2.19922e-14 -0)
(-1.12229e-30 8.32315e-15 8.32315e-15)
(4.78801e-30 -3.8308e-14 -0)
(1.08693e-30 -4.76509e-14 -4.76509e-14)
(-4.64893e-30 -5.77712e-14 0)
(-6.02177e-31 -4.70409e-14 -4.70409e-14)
(-5.78446e-31 -6.58892e-14 0)
(-1.52946e-29 -1.18022e-13 -1.18022e-13)
(-4.4031e-30 -4.20176e-14 0)
(-3.48072e-31 -4.54016e-14 -4.54016e-14)
(-8.54559e-31 -5.11489e-14 0)
(5.43591e-31 -2.369e-14 -2.369e-14)
(7.04519e-32 -4.03893e-15 -0)
(-9.81635e-26 -3.05273e-12 -3.05273e-12)
(-1.90033e-26 3.04713e-12 -0)
(-1.24172e-27 -7.37073e-13 -7.37073e-13)
(-2.34217e-29 1.05985e-13 -0)
(-8.71321e-30 -1.05345e-13 -1.05345e-13)
(-9.49788e-31 -4.91938e-14 0)
(-5.54197e-31 -1.70271e-14 -1.70271e-14)
(-1.08648e-30 1.33355e-14 -0)
(3.66949e-30 -3.6401e-14 -3.6401e-14)
(-1.15379e-30 -1.00445e-13 0)
(-1.31306e-29 -1.45112e-13 -1.45112e-13)
(-6.99169e-30 -6.51281e-14 0)
(2.95066e-30 -4.13345e-14 -4.13345e-14)
(1.60165e-30 -7.48319e-14 -0)
(-5.92394e-30 -4.39355e-14 -4.39355e-14)
(1.89612e-30 1.29075e-14 0)
(4.41555e-31 7.66887e-14 7.66887e-14)
(-5.49118e-30 7.0504e-14 -0)
(-6.04243e-31 3.84425e-15 3.84425e-15)
(3.18164e-30 -2.73508e-14 -0)
(-3.9769e-25 6.09368e-12 6.09368e-12)
(-8.58218e-26 -6.21327e-12 0)
(-4.61239e-27 1.47364e-12 1.47364e-12)
(-1.45856e-28 -2.07603e-13 0)
(-3.02927e-29 1.25825e-13 1.25825e-13)
(-4.02996e-31 2.96751e-14 -0)
(-2.65242e-32 -5.76837e-15 -5.76837e-15)
(-2.87783e-30 -6.52518e-14 0)
(-7.64385e-30 -6.64596e-14 -6.64596e-14)
(1.76353e-30 1.05855e-14 0)
(1.049e-30 1.14525e-13 1.14525e-13)
(-1.59448e-29 9.63417e-14 -0)
(-5.40321e-30 3.82919e-14 3.82919e-14)
(1.36549e-31 -2.16061e-14 -0)
(1.63756e-30 2.18472e-14 2.18472e-14)
(4.60032e-30 9.94476e-14 0)
(-7.78443e-30 7.31829e-14 7.31829e-14)
(-6.63312e-31 4.62339e-15 -0)
(-8.17186e-30 5.35496e-14 5.35496e-14)
(2.52061e-31 -1.84169e-15 -0)
(-4.94919e-25 -6.48018e-12 -6.48018e-12)
(-1.15142e-25 6.99893e-12 -0)
(-7.13583e-27 -1.80857e-12 -1.80857e-12)
(-2.31852e-28 2.87964e-13 -0)
(-5.66037e-29 -2.23933e-13 -2.23933e-13)
(-5.26729e-30 -6.67321e-14 0)
(-6.04493e-30 -5.65262e-14 -5.65262e-14)
(-2.99447e-30 -2.93309e-14 0)
(-3.39518e-30 -2.62788e-14 -2.62788e-14)
(-1.45416e-30 -1.54978e-14 0)
(8.53122e-32 6.49925e-15 6.49925e-15)
(-2.64598e-30 -9.17556e-14 0)
(-6.66454e-30 -5.67044e-14 -5.67044e-14)
(1.37808e-30 2.56244e-14 0)
(-2.64958e-30 1.91012e-14 1.91012e-14)
(4.43451e-30 -3.23139e-14 -0)
(5.62949e-30 -6.49881e-14 -6.49881e-14)
(2.27877e-31 -7.73709e-15 -0)
(5.26711e-31 -5.69259e-14 -5.69259e-14)
(2.65025e-33 -1.15476e-15 -0)
(-2.04562e-25 3.48531e-12 3.48531e-12)
(-6.51264e-26 -5.11738e-12 0)
(-3.97489e-27 1.24914e-12 1.24914e-12)
(-1.49277e-28 -2.94933e-13 0)
(-2.49686e-29 1.07269e-13 1.07269e-13)
(5.54961e-31 -2.26948e-14 -0)
(2.13702e-31 -3.67309e-14 -3.67309e-14)
(-8.54899e-31 -1.19059e-14 0)
(2.71118e-30 2.39417e-14 2.39417e-14)
(3.24565e-30 3.13777e-14 0)
(4.83108e-30 6.85126e-14 6.85126e-14)
(-5.44124e-31 1.37452e-14 -0)
(-4.71465e-30 7.04332e-14 7.04332e-14)
(-1.45335e-29 7.20131e-14 -0)
(7.5249e-30 -3.07179e-14 -3.07179e-14)
(1.73573e-29 -1.04758e-13 -0)
(7.23966e-31 -6.87085e-14 -6.87085e-14)
(-2.37345e-32 1.14632e-15 -0)
(1.3169e-30 -5.98593e-14 -5.98593e-14)
(4.93399e-32 1.37871e-15 0)
(-6.93559e-27 1.24222e-12 1.24222e-12)
(-2.10882e-28 -4.39935e-13 0)
(-1.1188e-28 3.018e-13 3.018e-13)
(-8.07107e-30 8.13635e-14 -0)
(-1.09528e-29 1.09372e-13 1.09372e-13)
(-7.70867e-30 7.09042e-14 -0)
(2.38398e-31 6.00813e-14 6.00813e-14)
(1.03885e-29 1.00256e-13 0)
(8.09156e-30 9.45189e-14 9.45189e-14)
(-3.50957e-30 1.23495e-13 -0)
(-4.19096e-30 6.43342e-14 6.43342e-14)
(-1.80462e-29 1.39182e-13 -0)
(-2.89389e-30 2.84526e-14 2.84526e-14)
(-4.01834e-30 2.80737e-14 -0)
(-8.978e-30 8.05956e-14 8.05956e-14)
(-3.1771e-30 2.33714e-14 -0)
(2.84568e-31 -3.84245e-15 -3.84245e-15)
(-2.2926e-31 2.35102e-15 -0)
(-4.68822e-30 4.80502e-14 4.80502e-14)
(4.79427e-31 -1.33485e-14 -0)
(-2.44438e-25 -2.95246e-12 -2.95246e-12)
(-1.21604e-25 6.84739e-12 -0)
(-6.9424e-27 -1.61881e-12 -1.61881e-12)
(-2.55365e-28 3.36963e-13 -0)
(-1.93219e-29 -5.12741e-14 -5.12741e-14)
(2.50536e-30 9.65454e-14 0)
(-3.07894e-30 6.61879e-14 6.61879e-14)
(-5.95078e-30 6.34224e-14 -0)
(-8.44096e-30 6.08835e-14 6.08835e-14)
(-3.2652e-30 2.03362e-14 -0)
(1.59889e-30 -2.25346e-14 -2.25346e-14)
(6.70489e-31 1.03494e-14 0)
(3.21253e-30 3.32547e-14 3.32547e-14)
(1.54958e-31 4.71179e-14 0)
(-7.30973e-30 7.06088e-14 7.06088e-14)
(-1.7371e-29 1.08097e-13 -0)
(-6.9956e-30 6.97526e-14 6.97526e-14)
(1.71937e-31 -3.81471e-15 -0)
(-1.7847e-30 2.87186e-14 2.87186e-14)
(7.5501e-31 -1.23352e-14 -0)
(-6.11564e-26 1.33345e-12 1.33345e-12)
(-3.9207e-26 -3.80544e-12 0)
(-2.18703e-27 9.15824e-13 9.15824e-13)
(-1.04355e-28 -1.73195e-13 0)
(-1.00767e-29 8.83937e-14 8.83937e-14)
(-2.77078e-31 2.67541e-14 -0)
(-8.675e-31 7.85145e-15 7.85145e-15)
(-2.18644e-31 2.46024e-15 -0)
(3.41833e-30 -2.53038e-14 -2.53038e-14)
(9.43272e-30 -8.82523e-14 -0)
(4.26202e-30 -6.48514e-14 -6.48514e-14)
(4.68004e-32 -9.94878e-14 -0)
(-3.40088e-30 -2.93163e-14 -2.93163e-14)
(-2.79692e-31 -1.29234e-14 0)
(1.13754e-30 -4.4074e-14 -4.4074e-14)
(1.86336e-30 -2.33741e-14 -0)
(2.2143e-30 -3.50812e-14 -3.50812e-14)
(-2.68837e-33 -6.25555e-14 0)
(-5.77073e-31 -2.83791e-14 -2.83791e-14)
(4.23351e-32 3.31177e-15 0)
(-2.65633e-25 4.27684e-12 4.27684e-12)
(-7.39677e-26 -5.76257e-12 0)
(-3.59159e-27 1.14798e-12 1.14798e-12)
(-1.83523e-28 -3.38036e-13 0)
(4.27113e-30 -1.47104e-14 -1.47104e-14)
(1.21874e-29 -9.8974e-14 -0)
(6.99158e-30 -6.14599e-14 -6.14599e-14)
(4.26903e-30 -8.43022e-14 -0)
(3.99212e-30 -4.75885e-14 -4.75885e-14)
(-1.62529e-31 1.39085e-15 -0)
(7.41122e-31 -7.57818e-15 -7.57818e-15)
(6.92755e-31 -1.68659e-14 -0)
(-2.43845e-30 -3.44111e-14 -3.44111e-14)
(-7.44406e-31 -2.32726e-14 0)
(1.17699e-31 3.61725e-15 3.61725e-15)
(7.78515e-32 -1.85972e-14 -0)
(-1.47865e-31 2.81432e-15 2.81432e-15)
(-1.54254e-30 4.77131e-14 -0)
(-8.87653e-32 -7.14148e-15 -7.14148e-15)
(-8.58063e-31 -2.19536e-14 0)
)
;

boundaryField
{
    movingWall
    {
        type            calculated;
        value           nonuniform List<vector> 
20
(
(0 8.39126e-12 -0)
(0 -7.23036e-12 -0)
(0 8.74027e-13 -0)
(0 -6.39098e-13 -0)
(0 -2.44258e-13 -0)
(0 -3.28521e-13 -0)
(0 -1.84885e-13 -0)
(0 -2.25032e-13 -0)
(0 -1.26605e-13 -0)
(0 1.39085e-15 -0)
(0 -7.57818e-15 -0)
(0 7.19519e-14 -0)
(0 -7.30606e-15 -0)
(0 3.83242e-15 -0)
(0 9.24351e-14 -0)
(0 -3.59011e-14 -0)
(0 2.81432e-15 -0)
(0 8.23209e-14 -0)
(0 8.16764e-14 -0)
(0 -3.92574e-14 -0)
)
;
    }
    fixedWalls
    {
        type            calculated;
        value           nonuniform List<vector> 
60
(
(0 -4.08564e-11 -0)
(0 -6.16602e-12 -0)
(0 2.78095e-11 -0)
(0 -7.28922e-12 -0)
(0 -1.19852e-11 -0)
(0 2.46773e-11 -0)
(0 -2.86343e-11 -0)
(0 4.07295e-12 -0)
(0 3.38164e-11 -0)
(0 -4.91828e-11 -0)
(0 3.90967e-11 -0)
(0 -1.39104e-11 -0)
(0 -1.33232e-11 -0)
(0 2.70537e-11 -0)
(0 -3.10376e-11 -0)
(0 2.23658e-11 -0)
(0 2.96512e-12 -0)
(0 -2.95658e-11 -0)
(0 1.61228e-11 -0)
(0 2.41933e-11 -0)
(0 -1.52111e-14 -0)
(0 -1.59686e-14 -0)
(0 -3.18247e-14 -0)
(0 -2.33795e-14 -0)
(0 -2.01258e-14 -0)
(0 -2.90597e-14 -0)
(0 3.09955e-14 -0)
(0 -1.71471e-14 -0)
(0 1.66607e-14 -0)
(0 1.76094e-14 -0)
(0 6.05063e-15 -0)
(0 -6.97729e-15 -0)
(0 -4.65309e-14 -0)
(0 -2.76405e-14 -0)
(0 -9.18022e-16 -0)
(0 1.43148e-14 -0)
(0 -1.43664e-14 -0)
(0 -2.44831e-14 -0)
(0 5.1133e-15 -0)
(0 -1.14709e-14 -0)
(0 -1.00178e-11 -0)
(0 1.08251e-11 -0)
(0 -1.56099e-12 -0)
(0 8.3154e-13 -0)
(0 2.39816e-13 -0)
(0 3.09971e-13 -0)
(0 2.13409e-13 -0)
(0 1.90193e-13 -0)
(0 1.06935e-13 -0)
(0 -6.44745e-14 -0)
(0 5.18514e-14 -0)
(0 3.77644e-14 -0)
(0 4.57948e-14 -0)
(0 4.68877e-14 -0)
(0 4.0279e-14 -0)
(0 3.38639e-14 -0)
(0 1.20484e-13 -0)
(0 -1.98606e-15 -0)
(0 -7.47899e-14 -0)
(0 -8.59111e-14 -0)
)
;
    }
    frontAndBack
    {
        type            empty;
    }
}


// ************************************************************************* //
