/*--------------------------------*- C++ -*----------------------------------*\
| =========                 |                                                 |
| \\      /  F ield         | OpenFOAM: The Open Source CFD Toolbox           |
|  \\    /   O peration     | Version:  2312                                  |
|   \\  /    A nd           | Website:  www.openfoam.com                      |
|    \\/     M anipulation  |                                                 |
\*---------------------------------------------------------------------------*/
FoamFile
{
    version     2.0;
    format      ascii;
    arch        "LSB;label=32;scalar=64";
    class       volScalarField;
    location    "8.75";
    object      Lambda2Field;
}
// * * * * * * * * * * * * * * * * * * * * * * * * * * * * * * * * * * * * * //

dimensions      [0 0 -2 0 0 0 0];

internalField   nonuniform List<scalar> 
400
(
1.59387e-24
6.20112e-25
1.44695e-25
-3.40042e-26
1.01229e-26
4.81001e-28
2.79159e-27
1.4327e-29
1.08253e-27
0
3.31228e-28
0
0
0
0
0
3.45395e-28
3.61894e-28
1.17085e-27
2.12319e-28
2.41736e-24
1.51695e-24
5.20559e-26
1.61232e-26
0
-2.22231e-27
4.16291e-28
9.65711e-28
1.42473e-28
6.00858e-29
2.01602e-28
2.95763e-28
4.72917e-28
1.04832e-28
1.32844e-28
4.28082e-30
3.73858e-28
0
7.51694e-28
4.03378e-28
1.49969e-23
5.26718e-24
2.64486e-26
1.33794e-28
4.46838e-28
2.7894e-29
1.08386e-27
-4.11456e-28
0
0
0
0
5.75827e-28
0
0
-3.98834e-28
9.95752e-28
0
1.49214e-29
2.42411e-29
2.34077e-24
2.92292e-24
2.01784e-25
-6.51525e-28
3.00138e-27
-1.1879e-28
0
-1.18592e-27
4.51241e-27
1.6792e-27
2.78087e-27
2.37021e-28
2.76831e-28
-1.32943e-27
1.84685e-28
-3.10424e-28
8.38522e-28
0
0
0
2.6039e-24
1.87832e-24
1.41343e-25
0
9.72604e-28
-3.15645e-27
6.92202e-28
-1.18542e-27
0
0
0
-6.72448e-29
0
-2.03733e-28
0
0
3.18197e-28
0
3.05162e-28
2.8689e-29
9.70333e-25
1.49291e-24
2.65474e-26
-7.37927e-27
2.67833e-27
-6.26349e-28
3.63033e-29
0
1.95414e-27
5.71768e-28
5.24188e-28
1.09643e-27
9.10982e-28
0
7.41586e-28
-1.50511e-28
0
0
3.35453e-28
1.51264e-28
0
2.87507e-24
0
2.31421e-26
1.18773e-28
1.10412e-27
7.51595e-28
-2.37417e-28
0
0
6.84152e-28
3.41641e-28
1.66792e-27
0
5.0803e-28
1.98764e-28
0
0
1.13141e-27
0
2.54702e-24
1.67417e-24
0
1.5422e-26
2.93874e-27
0
6.19595e-28
-8.97398e-28
0
7.81916e-28
0
-1.92016e-29
0
-6.87268e-28
3.03388e-28
-1.50452e-28
2.02858e-27
8.23363e-28
1.95653e-28
1.6576e-29
0
4.23178e-25
0
7.83721e-27
7.34684e-28
0
2.52394e-28
0
1.08509e-27
-2.67845e-27
6.3449e-28
1.73144e-28
6.76785e-28
0
0
-2.36014e-28
0
4.52705e-28
0
0
0
1.60789e-24
0
4.58044e-26
0
0
4.46378e-28
-8.42736e-29
0
0
5.36253e-28
3.29554e-28
7.57587e-29
0
3.09622e-29
0
2.64292e-28
4.84097e-29
0
0
0
0
0
3.71872e-26
0
1.41115e-27
0
4.63706e-28
6.40102e-28
0
0
5.90321e-31
2.48318e-29
0
7.34684e-28
0
5.39406e-29
0
8.36473e-29
0
0
7.52532e-25
0
1.17468e-26
0
0
9.76175e-29
0
0
-2.8189e-28
4.76707e-29
-3.93499e-29
9.47898e-28
0
0
6.60958e-28
9.97251e-28
1.65951e-28
9.25652e-29
0
1.81493e-24
2.55743e-24
0
1.67767e-26
0
2.71936e-28
2.73164e-28
7.3718e-29
0
-7.05286e-28
1.63951e-27
1.92129e-27
6.97989e-28
-1.11563e-27
0
0
0
-1.48608e-28
0
1.42613e-28
0
8.99988e-25
0
2.69058e-26
0
1.33004e-27
0
0
7.06388e-29
6.78036e-29
0
0
1.58639e-27
0
1.01011e-27
0
0
0
7.70489e-28
9.14636e-28
0
1.77866e-24
0
3.04138e-26
0
1.18701e-27
0
-5.26577e-29
2.2397e-29
3.54506e-28
0
-6.90423e-28
7.2364e-28
3.82192e-28
1.11472e-27
3.0803e-28
1.5041e-28
0
8.3349e-28
2.98084e-28
5.18172e-24
2.86656e-24
1.38964e-26
2.93874e-27
0
3.52131e-28
0
0
8.57417e-29
0
4.59417e-28
2.51212e-28
0
0
1.45433e-28
0
0
0
0
0
1.76882e-24
3.85099e-24
2.7976e-25
5.87223e-27
2.8355e-27
8.71976e-28
1.72664e-27
1.15948e-27
0
0
1.85857e-28
0
0
3.94428e-28
7.93194e-28
1.01201e-28
0
5.93761e-30
9.27251e-28
0
2.44498e-23
8.83796e-24
1.97756e-25
2.61298e-26
2.78365e-27
-1.56031e-27
0
0
3.72921e-28
2.45038e-28
1.26956e-28
6.21061e-28
5.67997e-28
-2.70932e-28
0
3.50496e-29
1.6749e-27
9.51761e-29
0
0
9.0212e-24
4.57923e-24
2.40665e-25
1.23276e-26
0
2.31783e-28
0
0
2.38873e-28
-5.44995e-28
0
-1.36565e-27
1.61551e-28
3.84394e-28
5.4948e-28
3.46087e-28
1.1428e-28
0
2.22423e-28
1.00587e-28
3.49923e-24
1.75149e-24
1.5947e-25
-2.26594e-27
5.41598e-27
-7.0125e-28
1.05419e-27
-4.82566e-29
1.09364e-27
5.00594e-28
0
1.72596e-29
4.472e-28
1.03878e-28
0
2.30605e-28
1.35751e-28
3.52201e-28
2.3485e-29
1.39632e-28
)
;

boundaryField
{
    movingWall
    {
        type            calculated;
        value           nonuniform List<scalar> 
20
(
0
0
4.96244e-25
-5.36752e-26
2.07049e-26
-3.06342e-27
1.65091e-27
-2.52949e-28
1.61686e-27
2.18485e-27
0
1.76793e-27
8.1678e-28
0
0
3.77824e-28
4.43654e-28
5.77047e-28
2.32677e-27
2.28772e-28
)
;
    }
    fixedWalls
    {
        type            calculated;
        value           nonuniform List<scalar> 
60
(
1.12668e-23
1.82671e-23
8.8527e-23
5.17095e-23
3.62594e-23
1.65881e-23
1.4605e-23
3.95121e-23
0
-4.09973e-23
0
1.72663e-23
4.97352e-23
-5.21264e-24
0
3.163e-23
6.36912e-23
1.33814e-22
7.72517e-23
2.816e-23
2.70164e-28
1.16751e-27
2.77444e-28
0
1.29951e-28
-1.69324e-29
1.43598e-28
2.6991e-28
0
0
4.6934e-29
0
6.83893e-28
1.48388e-27
2.98294e-28
0
1.45678e-28
0
1.07123e-28
4.50668e-28
0
0
9.26435e-25
0
4.17526e-26
1.01193e-27
4.85612e-27
0
1.32964e-27
2.16213e-27
4.04172e-28
2.95078e-28
0
0
1.83406e-28
5.69711e-28
1.69769e-27
1.67287e-27
3.36459e-27
4.89546e-28
)
;
    }
    frontAndBack
    {
        type            empty;
    }
}


// ************************************************************************* //
