/*--------------------------------*- C++ -*----------------------------------*\
| =========                 |                                                 |
| \\      /  F ield         | OpenFOAM: The Open Source CFD Toolbox           |
|  \\    /   O peration     | Version:  2312                                  |
|   \\  /    A nd           | Website:  www.openfoam.com                      |
|    \\/     M anipulation  |                                                 |
\*---------------------------------------------------------------------------*/
FoamFile
{
    version     2.0;
    format      ascii;
    arch        "LSB;label=32;scalar=64";
    class       volScalarField;
    location    "8.75";
    object      QField;
}
// * * * * * * * * * * * * * * * * * * * * * * * * * * * * * * * * * * * * * //

dimensions      [0 0 -2 0 0 0 0];

internalField   nonuniform List<scalar> 
400
(
-4.18557e-24
-1.74199e-24
-2.22427e-25
5.16371e-26
-1.00391e-26
-6.12142e-28
-2.77074e-27
-3.38705e-29
-5.09254e-28
0
2.98183e-28
0
0
0
0
6.21607e-28
-3.45395e-28
-1.03127e-27
-9.01179e-28
-7.89905e-28
-9.49601e-24
-3.66694e-24
-2.19824e-25
-1.61232e-26
5.16812e-27
2.38129e-27
-4.16291e-28
-3.13908e-27
1.25779e-29
-2.10105e-28
-2.01602e-28
-9.32293e-28
-4.72917e-28
-1.04832e-28
-6.16568e-28
-5.60807e-29
5.4741e-29
0
-9.13658e-29
-4.03378e-28
-1.44641e-23
-5.28108e-24
-2.6039e-27
-9.40568e-28
2.23157e-27
2.8631e-28
-1.05108e-27
5.58639e-28
1.31564e-27
2.33571e-28
0
7.33754e-29
2.4382e-28
0
0
6.57093e-28
-7.29949e-28
-2.34344e-29
-1.49214e-29
-1.33452e-28
-1.50156e-23
-3.85948e-24
-2.49845e-25
3.44679e-27
-4.3825e-27
1.24571e-28
1.61363e-27
1.57099e-27
-2.88906e-27
-1.75317e-27
-2.02453e-27
-2.37021e-28
-8.36343e-29
1.34315e-27
1.07428e-28
4.3218e-28
-1.87162e-28
3.12518e-28
0
0
-9.87203e-24
-2.39506e-24
-1.57847e-25
-8.10559e-28
-9.72604e-28
3.24968e-27
-4.87071e-28
1.18657e-27
0
1.92559e-27
1.1679e-27
2.45641e-28
0
9.70856e-28
3.61905e-28
0
-4.73905e-28
2.77893e-29
3.25663e-28
-2.90361e-28
-3.54532e-24
-1.81034e-24
-1.35678e-26
7.68844e-27
-9.72444e-28
6.50553e-28
-3.63033e-29
6.06961e-28
-4.46022e-27
-6.48127e-28
-6.09691e-28
-1.8091e-27
-1.4077e-27
5.06161e-28
-2.25679e-28
1.59616e-28
3.21046e-28
4.6696e-29
-4.79498e-28
-2.77955e-28
8.18953e-24
-3.36224e-25
4.75573e-25
-9.17985e-27
1.47352e-27
-1.10412e-27
-7.86187e-28
7.65138e-28
6.96089e-28
0
-6.84152e-28
-8.39648e-28
-3.88895e-28
-3.94059e-29
-5.0803e-28
-3.82137e-28
1.72276e-27
-1.8366e-28
-8.16226e-28
2.19979e-28
2.19116e-23
3.76262e-24
5.08917e-26
3.24879e-26
3.00485e-27
8.27645e-28
-1.89629e-27
1.42527e-27
1.57428e-28
-7.81916e-28
0
3.08648e-28
1.48007e-28
1.53707e-27
9.88659e-28
1.58369e-28
3.04028e-28
-8.23363e-28
-6.48397e-28
-1.6576e-29
1.72247e-23
1.77864e-24
4.7319e-25
3.2393e-26
-1.21853e-27
1.32276e-27
6.82861e-28
-5.21789e-29
7.67363e-28
2.92461e-27
1.89249e-27
-2.24104e-28
-6.76785e-28
0
8.90802e-28
2.90145e-28
8.43127e-29
-9.04802e-28
0
0
9.16163e-24
-1.45802e-24
5.29853e-25
-4.58044e-26
6.69363e-27
0
-2.58903e-28
2.02392e-28
0
0
-2.60898e-28
4.92055e-28
-3.34766e-28
4.9749e-28
-2.747e-28
0
-1.42011e-28
-2.31539e-28
0
0
1.69681e-23
1.67551e-24
3.9163e-25
-2.88319e-26
8.08509e-27
-1.43832e-27
3.04871e-28
-5.83676e-28
-1.19211e-27
0
2.02645e-28
2.08255e-29
4.34679e-28
2.75946e-28
-7.4011e-28
-6.82883e-28
-5.39406e-29
0
-8.36473e-29
0
2.24525e-23
4.27416e-24
1.80032e-25
2.35018e-26
1.86004e-27
0
-1.3043e-28
0
0
3.03656e-28
7.21581e-28
1.93049e-28
-3.22016e-28
1.3746e-28
4.3172e-28
-6.60958e-28
-5.34464e-28
-1.65951e-28
-9.25652e-29
0
1.78077e-23
3.18819e-24
1.58472e-25
1.08224e-26
1.95398e-27
-2.71936e-28
-2.73164e-28
2.32722e-28
2.51967e-28
7.65163e-28
1.12592e-27
-2.64968e-27
-6.97989e-28
1.11791e-27
4.56189e-28
0
1.21856e-27
4.49134e-28
0
-6.47381e-28
9.31555e-24
9.69068e-25
2.37722e-25
-1.716e-26
3.88227e-27
-1.33004e-27
0
1.01015e-28
4.06126e-29
-4.46382e-28
2.70048e-27
7.96252e-28
-1.88705e-27
0
-1.62541e-27
-6.58417e-29
1.02851e-27
0
-4.36765e-28
-1.09369e-27
2.42496e-24
-1.85519e-24
3.82673e-25
-3.26901e-26
1.19382e-26
-1.15635e-27
1.25555e-28
6.03313e-29
-2.2397e-29
-8.28203e-28
0
8.4897e-28
-4.67883e-28
-5.29896e-28
-1.73431e-27
-4.33297e-28
3.24518e-28
0
8.55224e-28
-9.35943e-28
-7.32971e-24
-3.55466e-24
-6.04708e-26
3.82694e-27
2.87635e-27
-1.01726e-27
2.60908e-28
0
-8.57417e-29
1.15812e-28
1.19964e-27
-8.59212e-28
2.85202e-28
-1.02379e-28
-5.01583e-29
1.91329e-27
7.85958e-28
0
3.06244e-28
0
-2.03351e-23
-5.99186e-24
-3.90872e-25
-9.78554e-27
-3.20141e-27
-9.8319e-28
-1.72664e-27
-1.33409e-27
1.07367e-27
2.03307e-28
1.65381e-28
2.12652e-28
3.65265e-29
-1.08563e-27
-4.41893e-28
-1.01201e-28
0
-6.60475e-29
-5.51554e-28
0
-2.77861e-23
-9.09777e-24
-1.87458e-25
-2.88137e-26
-2.16203e-27
2.02839e-27
6.49317e-28
-2.23451e-29
-2.36444e-28
-3.9615e-28
1.56204e-30
-8.0433e-28
-4.23432e-28
5.42448e-28
8.88974e-28
-3.50496e-29
-9.69866e-28
-2.64432e-28
4.37354e-29
0
-2.32212e-23
-6.91785e-24
-3.74254e-25
-1.23276e-26
-1.47168e-28
-4.13615e-28
0
0
-1.97231e-28
5.64097e-28
5.76867e-28
1.47771e-27
-9.83572e-30
-3.84394e-28
-5.4948e-28
-5.25354e-28
8.67642e-29
4.86943e-28
2.36666e-28
-5.4369e-28
-9.05858e-24
-3.05718e-24
-2.34537e-25
1.8491e-26
-5.41598e-27
1.0741e-27
-8.22636e-28
2.42889e-28
-9.52506e-28
-1.21289e-27
0
-2.25214e-28
-8.14987e-28
-1.03878e-28
0
-2.30605e-28
-6.26991e-28
-3.52201e-28
-1.77614e-28
-1.39632e-28
)
;

boundaryField
{
    movingWall
    {
        type            calculated;
        value           nonuniform List<scalar> 
20
(
3.60002e-24
2.84783e-24
-7.42019e-25
1.06722e-25
-2.07049e-26
4.15442e-27
-1.17892e-27
6.63248e-28
-1.7917e-27
-2.53391e-27
0
-2.38865e-27
-1.53658e-27
0
3.21276e-28
-3.77824e-28
-1.13928e-27
-5.77047e-28
-9.03813e-28
-2.28772e-28
)
;
    }
    fixedWalls
    {
        type            calculated;
        value           nonuniform List<scalar> 
60
(
-3.04851e-23
-5.86414e-23
-7.29206e-23
-7.76078e-23
-5.09539e-23
-1.90282e-23
3.72989e-23
9.14843e-23
7.73962e-23
4.65087e-23
7.74477e-23
9.7968e-23
7.73776e-23
4.40094e-23
1.25124e-23
-4.53803e-23
-1.12719e-22
-1.3977e-22
-1.28289e-22
-5.35622e-23
-1.29418e-27
-1.16751e-27
-2.18648e-28
0
-4.75727e-28
5.29813e-29
-2.68044e-29
-2.6991e-28
0
0
2.72967e-28
0
-1.06067e-27
-1.48388e-27
-1.53345e-27
0
4.30743e-28
0
-8.90781e-28
-1.93422e-28
6.30567e-24
5.37136e-24
-1.27164e-24
1.69204e-25
-4.38391e-26
-1.54169e-27
-7.75324e-27
2.99225e-29
-1.50387e-27
-2.16213e-27
-7.52317e-28
-2.95078e-28
6.15445e-29
1.10081e-28
-1.83406e-28
-7.41259e-28
-1.69769e-27
-2.21723e-27
-2.70082e-27
-1.08276e-27
)
;
    }
    frontAndBack
    {
        type            empty;
    }
}


// ************************************************************************* //
