/*--------------------------------*- C++ -*----------------------------------*\
| =========                 |                                                 |
| \\      /  F ield         | OpenFOAM: The Open Source CFD Toolbox           |
|  \\    /   O peration     | Version:  2312                                  |
|   \\  /    A nd           | Website:  www.openfoam.com                      |
|    \\/     M anipulation  |                                                 |
\*---------------------------------------------------------------------------*/
FoamFile
{
    version     2.0;
    format      ascii;
    arch        "LSB;label=32;scalar=64";
    class       volVectorField;
    location    "8.75";
    object      UNear;
}
// * * * * * * * * * * * * * * * * * * * * * * * * * * * * * * * * * * * * * //

dimensions      [0 1 -1 0 0 0 0];

internalField   nonuniform List<vector> 
400
(
(-1 1.02615e-13 0)
(-1 -2.10887e-14 0)
(-1 5.02289e-15 0)
(-1 -1.03793e-15 0)
(-1 2.60213e-16 0)
(-1 1.16624e-16 0)
(-1 2.69131e-16 0)
(-1 2.02975e-16 0)
(-1 1.4356e-16 0)
(-1 2.1807e-17 0)
(-1 -9.98733e-17 0)
(-1 -5.26176e-17 0)
(-1 -3.34276e-17 0)
(-1 -6.64762e-17 0)
(-1 -5.82156e-17 0)
(-1 -2.51767e-17 0)
(-1 4.72343e-17 0)
(-1 1.02252e-16 0)
(-1 6.70949e-17 0)
(-1 -3.80278e-17 0)
(-1 1.90742e-14 0)
(-1 -3.68793e-15 0)
(-1 9.71323e-16 0)
(-1 -2.89961e-16 0)
(-1 -2.00788e-17 0)
(-1 9.13791e-17 0)
(-1 1.55629e-16 0)
(-1 6.06623e-17 0)
(-1 1.31549e-16 0)
(-1 1.12111e-16 0)
(-1 6.10343e-17 0)
(-1 9.35161e-17 0)
(-1 4.02849e-17 0)
(-1 6.2783e-18 0)
(-1 2.09469e-17 0)
(-1 4.36096e-17 0)
(-1 7.05574e-17 0)
(-1 8.79834e-17 0)
(-1 -4.11362e-17 0)
(-1 -1.07684e-16 0)
(-1 -7.55546e-14 0)
(-1 1.56077e-14 0)
(-1 -3.58553e-15 0)
(-1 6.52265e-16 0)
(-1 -2.15975e-16 0)
(-1 -9.46306e-18 0)
(-1 -1.09349e-16 0)
(-1 -6.24735e-17 0)
(-1 9.67525e-17 0)
(-1 9.9322e-17 0)
(-1 1.39839e-16 0)
(-1 1.1936e-16 0)
(-1 3.86827e-17 0)
(-1 5.57356e-17 0)
(-1 5.5521e-17 0)
(-1 -4.48661e-18 0)
(-1 -6.56912e-17 0)
(-1 -8.50667e-17 0)
(-1 -1.45426e-16 0)
(-1 -7.95617e-17 0)
(-1 1.90362e-14 0)
(-1 -3.53901e-15 0)
(-1 8.11211e-16 0)
(-1 -1.74291e-16 0)
(-1 6.07084e-17 0)
(-1 3.85643e-17 0)
(-1 1.47499e-17 0)
(-1 -6.06565e-17 0)
(-1 -1.30149e-16 0)
(-1 -1.19907e-16 0)
(-1 -2.85127e-17 0)
(-1 6.8821e-17 0)
(-1 5.89326e-17 0)
(-1 -1.56379e-17 0)
(-1 -6.49515e-17 0)
(-1 -1.17095e-16 0)
(-1 -1.44675e-16 0)
(-1 -8.01329e-17 0)
(-1 -6.65427e-17 0)
(-1 -5.84488e-17 0)
(-1 3.15215e-14 0)
(-1 -6.77053e-15 0)
(-1 1.66233e-15 0)
(-1 -2.1292e-16 0)
(-1 1.81074e-16 0)
(-1 -3.35061e-17 0)
(-1 -1.18655e-16 0)
(-1 -2.58706e-16 0)
(-1 -3.37539e-16 0)
(-1 -1.40941e-16 0)
(-1 1.4783e-16 0)
(-1 2.89937e-16 0)
(-1 2.38456e-16 0)
(-1 1.86897e-17 0)
(-1 -1.07759e-16 0)
(-1 -1.1483e-16 0)
(-1 -7.05644e-17 0)
(-1 -4.4102e-17 0)
(-1 -7.56906e-17 0)
(-1 -5.03144e-17 0)
(-1 -6.18287e-14 0)
(-1 1.30737e-14 0)
(-1 -2.94879e-15 0)
(-1 9.12893e-16 0)
(-1 4.47291e-17 0)
(-1 -5.79911e-17 0)
(-1 -1.95283e-16 0)
(-1 -7.13847e-17 0)
(-1 2.86464e-17 0)
(-1 1.02545e-17 0)
(-1 -3.32238e-17 0)
(-1 -6.47442e-17 0)
(-1 -6.47351e-17 0)
(-1 -2.76058e-17 0)
(-1 7.21769e-19 0)
(-1 -2.84547e-17 0)
(-1 3.01657e-17 0)
(-1 8.99902e-17 0)
(-1 4.73934e-17 0)
(-1 -4.88666e-18 0)
(-1 7.05693e-14 0)
(-1 -1.40873e-14 0)
(-1 3.56972e-15 0)
(-1 -3.69908e-16 0)
(-1 3.60459e-16 0)
(-1 1.56919e-17 0)
(-1 -4.68901e-17 0)
(-1 1.25723e-17 0)
(-1 9.4253e-17 0)
(-1 9.81761e-17 0)
(-1 -2.1072e-18 0)
(-1 -2.80276e-17 0)
(-1 -3.97874e-17 0)
(-1 9.0595e-18 0)
(-1 -2.70445e-17 0)
(-1 -8.46554e-17 0)
(-1 -1.62917e-17 0)
(-1 1.27207e-16 0)
(-1 1.01213e-16 0)
(-1 9.72622e-18 0)
(-1 -1.12666e-14 0)
(-1 1.93531e-15 0)
(-1 -2.36995e-16 0)
(-1 1.54956e-16 0)
(-1 -3.11269e-17 0)
(-1 -1.57444e-17 0)
(-1 8.85297e-17 0)
(-1 1.58337e-16 0)
(-1 2.63808e-16 0)
(-1 2.16418e-16 0)
(-1 1.1957e-16 0)
(-1 5.24635e-17 0)
(-1 6.26339e-17 0)
(-1 2.51609e-17 0)
(-1 -1.12235e-16 0)
(-1 -1.69438e-16 0)
(-1 -1.70663e-16 0)
(-1 -1.20146e-16 0)
(-1 -1.87793e-17 0)
(-1 2.48948e-17 0)
(-1 -8.18983e-14 0)
(-1 1.70492e-14 0)
(-1 -4.0378e-15 0)
(-1 8.49272e-16 0)
(-1 -1.93838e-16 0)
(-1 4.87089e-17 0)
(-1 1.86312e-16 0)
(-1 2.42328e-16 0)
(-1 1.75072e-16 0)
(-1 1.43702e-17 0)
(-1 -1.39734e-16 0)
(-1 -1.98159e-16 0)
(-1 -1.08557e-16 0)
(-1 5.15307e-17 0)
(-1 -3.92686e-17 0)
(-1 -1.12793e-16 0)
(-1 -1.46313e-16 0)
(-1 -1.43899e-16 0)
(-1 -1.8395e-17 0)
(-1 4.16517e-17 0)
(-1 1.20653e-13 0)
(-1 -2.54065e-14 0)
(-1 6.05137e-15 0)
(-1 -1.1962e-15 0)
(-1 4.18433e-16 0)
(-1 1.204e-16 0)
(-1 2.14495e-16 0)
(-1 1.73583e-16 0)
(-1 6.34244e-17 0)
(-1 3.6184e-17 0)
(-1 4.36143e-17 0)
(-1 7.27881e-17 0)
(-1 4.00811e-17 0)
(-1 -4.98885e-17 0)
(-1 -1.4346e-16 0)
(-1 -9.58643e-17 0)
(-1 -9.85837e-18 0)
(-1 -1.71989e-17 0)
(-1 3.28841e-17 0)
(-1 4.40234e-17 0)
(-1 -9.27952e-14 0)
(-1 1.9389e-14 0)
(-1 -4.48751e-15 0)
(-1 8.62838e-16 0)
(-1 -2.75682e-16 0)
(-1 5.23477e-17 0)
(-1 -1.5572e-17 0)
(-1 1.48552e-17 0)
(-1 7.38396e-17 0)
(-1 5.81401e-17 0)
(-1 2.97285e-17 0)
(-1 -1.66226e-17 0)
(-1 -4.68034e-17 0)
(-1 -2.04271e-16 0)
(-1 -8.99419e-17 0)
(-1 4.16674e-18 0)
(-1 -1.52553e-17 0)
(-1 -1.57338e-17 0)
(-1 2.07746e-17 0)
(-1 1.51266e-17 0)
(-1 3.05069e-14 0)
(-1 -6.12353e-15 0)
(-1 1.60149e-15 0)
(-1 -1.97013e-16 0)
(-1 1.59342e-16 0)
(-1 1.30827e-16 0)
(-1 8.5083e-17 0)
(-1 -4.17557e-17 0)
(-1 -1.34839e-16 0)
(-1 -1.24987e-16 0)
(-1 -2.28102e-17 0)
(-1 8.04714e-17 0)
(-1 1.28011e-17 0)
(-1 8.77908e-18 0)
(-1 1.29592e-16 0)
(-1 1.04792e-16 0)
(-1 7.6665e-18 0)
(-1 1.67073e-17 0)
(-1 -2.2946e-17 0)
(-1 -1.74432e-17 0)
(-1 3.21559e-14 0)
(-1 -6.23647e-15 0)
(-1 1.68466e-15 0)
(-1 -2.2099e-16 0)
(-1 8.27113e-17 0)
(-1 1.93071e-17 0)
(-1 3.2548e-17 0)
(-1 -8.14726e-17 0)
(-1 -1.00807e-16 0)
(-1 1.14869e-17 0)
(-1 9.04861e-17 0)
(-1 1.07353e-16 0)
(-1 -7.1385e-17 0)
(-1 -2.14033e-17 0)
(-1 1.34833e-16 0)
(-1 1.46901e-16 0)
(-1 5.75776e-18 0)
(-1 -7.78847e-17 0)
(-1 -1.57181e-16 0)
(-1 -1.16327e-16 0)
(-1 -6.52627e-14 0)
(-1 1.38127e-14 0)
(-1 -3.12993e-15 0)
(-1 7.02572e-16 0)
(-1 -2.40752e-16 0)
(-1 -1.35803e-17 0)
(-1 4.59821e-18 0)
(-1 4.41035e-17 0)
(-1 1.15015e-16 0)
(-1 1.66598e-16 0)
(-1 9.15959e-18 0)
(-1 -1.65502e-16 0)
(-1 -1.41106e-16 0)
(-1 -6.31994e-18 0)
(-1 7.49552e-17 0)
(-1 4.62587e-17 0)
(-1 -1.0637e-16 0)
(-1 -1.43469e-16 0)
(-1 -1.52604e-16 0)
(-1 -1.36864e-16 0)
(-1 7.63743e-14 0)
(-1 -1.64514e-14 0)
(-1 3.94556e-15 0)
(-1 -8.05143e-16 0)
(-1 2.52771e-16 0)
(-1 7.8932e-17 0)
(-1 1.0694e-16 0)
(-1 1.02093e-16 0)
(-1 1.29199e-16 0)
(-1 9.38298e-17 0)
(-1 1.31265e-17 0)
(-1 2.88373e-17 0)
(-1 1.17531e-16 0)
(-1 5.37802e-17 0)
(-1 -1.38712e-16 0)
(-1 -1.37232e-16 0)
(-1 -8.66235e-17 0)
(-1 -2.94526e-17 0)
(-1 -9.25258e-18 0)
(-1 -2.29505e-18 0)
(-1 -5.86927e-14 0)
(-1 1.27265e-14 0)
(-1 -3.1821e-15 0)
(-1 5.06139e-16 0)
(-1 -2.32766e-16 0)
(-1 -2.44533e-17 0)
(-1 -5.81804e-18 0)
(-1 7.18048e-17 0)
(-1 1.13241e-16 0)
(-1 1.03438e-16 0)
(-1 7.05138e-17 0)
(-1 -3.95866e-17 0)
(-1 -6.6938e-17 0)
(-1 -2.01817e-16 0)
(-1 -2.44968e-16 0)
(-1 -1.65689e-16 0)
(-1 -1.05368e-17 0)
(-1 -2.0705e-17 0)
(-1 -2.2e-17 0)
(-1 3.57871e-17 0)
(-1 -5.58321e-15 0)
(-1 4.79347e-16 0)
(-1 -3.70709e-16 0)
(-1 -9.91976e-17 0)
(-1 -1.00142e-16 0)
(-1 -1.0872e-16 0)
(-1 3.96793e-18 0)
(-1 1.03619e-16 0)
(-1 8.56078e-17 0)
(-1 -2.84187e-17 0)
(-1 -6.51435e-17 0)
(-1 -1.29659e-16 0)
(-1 -1.01709e-16 0)
(-1 -1.43135e-16 0)
(-1 -1.11396e-16 0)
(-1 -1.3594e-16 0)
(-1 -7.4059e-17 0)
(-1 -9.75153e-17 0)
(-1 -9.75691e-17 0)
(-1 -3.59161e-17 0)
(-1 8.27913e-14 0)
(-1 -1.77591e-14 0)
(-1 4.28857e-15 0)
(-1 -7.57842e-16 0)
(-1 3.76834e-16 0)
(-1 2.59501e-17 0)
(-1 -4.65182e-17 0)
(-1 -9.38277e-17 0)
(-1 -1.38641e-16 0)
(-1 -1.60561e-16 0)
(-1 -7.09527e-17 0)
(-1 6.47852e-17 0)
(-1 9.66037e-17 0)
(-1 3.28873e-18 0)
(-1 -1.03524e-16 0)
(-1 -1.60698e-16 0)
(-1 -1.00292e-16 0)
(-1 -4.50722e-17 0)
(-1 -6.21445e-17 0)
(-1 -6.12077e-17 0)
(-1 -4.58635e-14 0)
(-1 1.03029e-14 0)
(-1 -2.38804e-15 0)
(-1 6.0253e-16 0)
(-1 -1.13998e-16 0)
(-1 -1.03565e-17 0)
(-1 -1.10489e-16 0)
(-1 -8.8871e-17 0)
(-1 -1.35091e-16 0)
(-1 -1.06884e-16 0)
(-1 -6.57198e-17 0)
(-1 -4.70414e-19 0)
(-1 1.16007e-16 0)
(-1 2.16422e-17 0)
(-1 -2.58098e-17 0)
(-1 -7.97189e-17 0)
(-1 -6.31193e-17 0)
(-1 4.29757e-20 0)
(-1 2.03344e-17 0)
(-1 1.27832e-17 0)
(-1 -6.21095e-14 0)
(-1 1.28359e-14 0)
(-1 -3.12861e-15 0)
(-1 5.4291e-16 0)
(-1 -2.90347e-16 0)
(-1 -1.23138e-16 0)
(-1 -1.13758e-16 0)
(-1 -5.06396e-17 0)
(-1 -8.38884e-17 0)
(-1 -1.16856e-16 0)
(-1 -9.77969e-17 0)
(-1 -4.10743e-17 0)
(-1 7.08623e-17 0)
(-1 3.19863e-17 0)
(-1 3.25382e-17 0)
(-1 -4.18619e-18 0)
(-1 -5.25401e-17 0)
(-1 -3.23294e-17 0)
(-1 1.24295e-17 0)
(-1 3.90854e-17 0)
)
;

boundaryField
{
    movingWall
    {
        type            fixedValue;
        value           uniform (-1 -0 -0);
    }
    fixedWalls
    {
        type            calculated;
        value           nonuniform List<vector> 
60
(
(-1 4.10461e-14 0)
(-1 7.62969e-15 0)
(-1 -3.02218e-14 0)
(-1 7.61448e-15 0)
(-1 1.26086e-14 0)
(-1 -2.47315e-14 0)
(-1 2.82277e-14 0)
(-1 -4.50663e-15 0)
(-1 -3.27593e-14 0)
(-1 4.82612e-14 0)
(-1 -3.71181e-14 0)
(-1 1.22028e-14 0)
(-1 1.28624e-14 0)
(-1 -2.61051e-14 0)
(-1 3.05497e-14 0)
(-1 -2.34771e-14 0)
(-1 -2.23328e-15 0)
(-1 3.31165e-14 0)
(-1 -1.83454e-14 0)
(-1 -2.48438e-14 0)
(-1 -1.52111e-17 0)
(-1 -4.30736e-17 0)
(-1 -3.18247e-17 0)
(-1 -2.33795e-17 0)
(-1 -2.01258e-17 0)
(-1 -1.95466e-18 0)
(-1 3.89049e-18 0)
(-1 9.95793e-18 0)
(-1 1.66607e-17 0)
(-1 1.76094e-17 0)
(-1 6.05063e-18 0)
(-1 -6.97729e-18 0)
(-1 -4.65309e-17 0)
(-1 -5.47456e-17 0)
(-1 -9.18022e-19 0)
(-1 1.43148e-17 0)
(-1 -1.43664e-17 0)
(-1 -2.44831e-17 0)
(-1 5.1133e-18 0)
(-1 1.56342e-17 0)
(-1 4.10461e-14 0)
(-1 -8.4355e-15 0)
(-1 2.00916e-15 0)
(-1 -4.15171e-16 0)
(-1 1.04085e-16 0)
(-1 4.66496e-17 0)
(-1 1.07652e-16 0)
(-1 8.11901e-17 0)
(-1 5.74242e-17 0)
(-1 8.72278e-18 0)
(-1 -3.99493e-17 0)
(-1 -2.10471e-17 0)
(-1 -1.3371e-17 0)
(-1 -2.65905e-17 0)
(-1 -2.32862e-17 0)
(-1 -1.00707e-17 0)
(-1 1.88937e-17 0)
(-1 4.09007e-17 0)
(-1 2.6838e-17 0)
(-1 -1.52111e-17 0)
)
;
    }
    frontAndBack
    {
        type            empty;
    }
}


// ************************************************************************* //
