/*--------------------------------*- C++ -*----------------------------------*\
| =========                 |                                                 |
| \\      /  F ield         | OpenFOAM: The Open Source CFD Toolbox           |
|  \\    /   O peration     | Version:  2312                                  |
|   \\  /    A nd           | Website:  www.openfoam.com                      |
|    \\/     M anipulation  |                                                 |
\*---------------------------------------------------------------------------*/
FoamFile
{
    version     2.0;
    format      ascii;
    arch        "LSB;label=32;scalar=64";
    class       volScalarField;
    location    "8.75";
    object      zeroGradient(epsilon);
}
// * * * * * * * * * * * * * * * * * * * * * * * * * * * * * * * * * * * * * //

dimensions      [0 2 -3 0 0 0 0];

internalField   nonuniform List<scalar> 
400
(
9.56177e-07
9.56177e-07
9.56176e-07
9.56176e-07
9.56176e-07
9.56175e-07
9.56175e-07
9.56175e-07
9.56174e-07
9.56174e-07
9.56174e-07
9.56174e-07
9.56174e-07
9.56174e-07
9.56174e-07
9.56174e-07
9.56174e-07
9.56174e-07
9.56174e-07
9.56174e-07
9.79769e-07
9.69123e-07
9.70028e-07
9.70404e-07
9.71152e-07
9.71537e-07
9.72288e-07
9.72681e-07
9.73435e-07
9.73837e-07
9.74592e-07
9.75004e-07
9.75759e-07
9.76183e-07
9.76937e-07
9.77375e-07
9.78126e-07
9.78577e-07
9.78953e-07
9.79556e-07
1.01779e-06
1.0064e-06
1.00738e-06
1.00779e-06
1.0086e-06
1.00902e-06
1.00983e-06
1.01025e-06
1.01106e-06
1.01149e-06
1.0123e-06
1.01273e-06
1.01355e-06
1.01399e-06
1.0148e-06
1.01525e-06
1.01606e-06
1.01652e-06
1.01692e-06
1.01756e-06
1.05879e-06
1.04678e-06
1.04782e-06
1.04825e-06
1.04911e-06
1.04954e-06
1.0504e-06
1.05084e-06
1.0517e-06
1.05215e-06
1.053e-06
1.05346e-06
1.05432e-06
1.05478e-06
1.05563e-06
1.05611e-06
1.05696e-06
1.05745e-06
1.05787e-06
1.05854e-06
1.09425e-06
1.0817e-06
1.08278e-06
1.08323e-06
1.08412e-06
1.08458e-06
1.08547e-06
1.08594e-06
1.08683e-06
1.0873e-06
1.0882e-06
1.08867e-06
1.08957e-06
1.09006e-06
1.09095e-06
1.09145e-06
1.09233e-06
1.09285e-06
1.09329e-06
1.09399e-06
1.12078e-06
1.10781e-06
1.10893e-06
1.1094e-06
1.11032e-06
1.11079e-06
1.11171e-06
1.11219e-06
1.11311e-06
1.1136e-06
1.11452e-06
1.11502e-06
1.11594e-06
1.11645e-06
1.11736e-06
1.11788e-06
1.1188e-06
1.11933e-06
1.11978e-06
1.12051e-06
1.13883e-06
1.12558e-06
1.12673e-06
1.1272e-06
1.12814e-06
1.12863e-06
1.12957e-06
1.13006e-06
1.131e-06
1.1315e-06
1.13244e-06
1.13295e-06
1.13389e-06
1.13441e-06
1.13534e-06
1.13587e-06
1.13681e-06
1.13735e-06
1.13782e-06
1.13855e-06
1.15054e-06
1.1371e-06
1.13826e-06
1.13874e-06
1.13969e-06
1.14018e-06
1.14114e-06
1.14163e-06
1.14259e-06
1.14309e-06
1.14405e-06
1.14456e-06
1.14552e-06
1.14604e-06
1.147e-06
1.14753e-06
1.14848e-06
1.14903e-06
1.1495e-06
1.15025e-06
1.15815e-06
1.14459e-06
1.14576e-06
1.14624e-06
1.14721e-06
1.1477e-06
1.14866e-06
1.14916e-06
1.15013e-06
1.15064e-06
1.1516e-06
1.15212e-06
1.15308e-06
1.15361e-06
1.15457e-06
1.15512e-06
1.15607e-06
1.15663e-06
1.1571e-06
1.15786e-06
1.16342e-06
1.14979e-06
1.15096e-06
1.15145e-06
1.15242e-06
1.15291e-06
1.15389e-06
1.15439e-06
1.15536e-06
1.15587e-06
1.15684e-06
1.15736e-06
1.15833e-06
1.15886e-06
1.15983e-06
1.16038e-06
1.16134e-06
1.1619e-06
1.16237e-06
1.16313e-06
1.16754e-06
1.15384e-06
1.15502e-06
1.15551e-06
1.15648e-06
1.15698e-06
1.15796e-06
1.15846e-06
1.15944e-06
1.15995e-06
1.16093e-06
1.16145e-06
1.16243e-06
1.16296e-06
1.16393e-06
1.16448e-06
1.16544e-06
1.16601e-06
1.16649e-06
1.16725e-06
1.17122e-06
1.15745e-06
1.15864e-06
1.15913e-06
1.16011e-06
1.16061e-06
1.16159e-06
1.1621e-06
1.16308e-06
1.16359e-06
1.16457e-06
1.1651e-06
1.16608e-06
1.16661e-06
1.16759e-06
1.16814e-06
1.16911e-06
1.16967e-06
1.17015e-06
1.17092e-06
1.17485e-06
1.16103e-06
1.16223e-06
1.16272e-06
1.1637e-06
1.1642e-06
1.16519e-06
1.1657e-06
1.16668e-06
1.1672e-06
1.16818e-06
1.16871e-06
1.16969e-06
1.17023e-06
1.17121e-06
1.17176e-06
1.17274e-06
1.1733e-06
1.17379e-06
1.17456e-06
1.17869e-06
1.16481e-06
1.16601e-06
1.1665e-06
1.16749e-06
1.16799e-06
1.16898e-06
1.16949e-06
1.17048e-06
1.171e-06
1.17199e-06
1.17252e-06
1.17351e-06
1.17405e-06
1.17503e-06
1.17559e-06
1.17656e-06
1.17713e-06
1.17762e-06
1.17839e-06
1.18282e-06
1.16887e-06
1.17008e-06
1.17058e-06
1.17157e-06
1.17207e-06
1.17306e-06
1.17358e-06
1.17457e-06
1.17509e-06
1.17609e-06
1.17662e-06
1.17761e-06
1.17815e-06
1.17914e-06
1.1797e-06
1.18068e-06
1.18125e-06
1.18174e-06
1.18252e-06
1.1872e-06
1.17318e-06
1.17439e-06
1.17489e-06
1.17589e-06
1.1764e-06
1.17739e-06
1.17791e-06
1.17891e-06
1.17943e-06
1.18043e-06
1.18096e-06
1.18196e-06
1.18251e-06
1.1835e-06
1.18406e-06
1.18505e-06
1.18562e-06
1.18611e-06
1.18689e-06
1.19161e-06
1.17753e-06
1.17874e-06
1.17925e-06
1.18024e-06
1.18076e-06
1.18176e-06
1.18228e-06
1.18328e-06
1.18381e-06
1.18481e-06
1.18535e-06
1.18635e-06
1.1869e-06
1.1879e-06
1.18846e-06
1.18945e-06
1.19003e-06
1.19052e-06
1.19131e-06
1.19566e-06
1.18152e-06
1.18274e-06
1.18325e-06
1.18425e-06
1.18476e-06
1.18577e-06
1.18629e-06
1.1873e-06
1.18783e-06
1.18884e-06
1.18937e-06
1.19038e-06
1.19093e-06
1.19193e-06
1.1925e-06
1.19349e-06
1.19408e-06
1.19457e-06
1.19536e-06
1.19882e-06
1.1849e-06
1.18608e-06
1.18657e-06
1.18754e-06
1.18804e-06
1.18902e-06
1.18954e-06
1.19052e-06
1.19104e-06
1.19203e-06
1.19257e-06
1.19356e-06
1.19411e-06
1.1951e-06
1.19567e-06
1.19665e-06
1.19725e-06
1.19773e-06
1.19852e-06
1.20028e-06
1.20027e-06
1.20027e-06
1.20027e-06
1.20027e-06
1.20027e-06
1.20027e-06
1.20027e-06
1.20027e-06
1.20027e-06
1.20027e-06
1.20027e-06
1.20027e-06
1.20027e-06
1.20027e-06
1.20027e-06
1.20027e-06
1.20027e-06
1.20027e-06
1.20027e-06
)
;

boundaryField
{
    movingWall
    {
        type            zeroGradient;
    }
    fixedWalls
    {
        type            zeroGradient;
    }
    frontAndBack
    {
        type            empty;
    }
}


// ************************************************************************* //
