/*--------------------------------*- C++ -*----------------------------------*\
| =========                 |                                                 |
| \\      /  F ield         | OpenFOAM: The Open Source CFD Toolbox           |
|  \\    /   O peration     | Version:  2312                                  |
|   \\  /    A nd           | Website:  www.openfoam.com                      |
|    \\/     M anipulation  |                                                 |
\*---------------------------------------------------------------------------*/
FoamFile
{
    version     2.0;
    format      ascii;
    arch        "LSB;label=32;scalar=64";
    class       volScalarField;
    location    "281";
    object      epsilon;
}
// * * * * * * * * * * * * * * * * * * * * * * * * * * * * * * * * * * * * * //

dimensions      [0 2 -3 0 0 0 0];

internalField   nonuniform List<scalar> 
12225
(
1086.12
2467.51
3645.54
4414.76
4812.17
4980.55
4972.22
4932.36
4837.75
4728.38
4620.49
4517.16
4425.49
4339.51
4269.03
4198.39
4150.99
4085.22
79.1871
262.722
438.669
584.481
691.152
762.92
804.744
829.979
846.785
856.866
866.583
873.737
882.998
890.971
900.641
910.049
918.906
933.015
23.7079
50.3396
83.2999
112.496
136.909
156.199
170.146
179.903
186.373
190.792
193.484
195.626
196.861
198.392
199.311
201.036
201.377
206.422
17.0587
21.2942
30.0052
38.4959
46.2152
53.0389
58.6207
63.2646
66.7553
69.6472
71.6132
73.3332
74.3191
75.3434
75.7311
76.4021
76.4529
77.4192
15.2882
16.097
18.552
21.5028
24.4419
27.2627
29.7361
31.9834
33.8188
35.4796
36.7453
37.9276
38.7449
39.5756
40.0576
40.6405
40.9095
41.3734
14.843
14.9042
15.5187
16.4543
17.6096
18.8292
19.9697
21.0769
22.0337
22.9483
23.6897
24.4158
24.9564
25.5275
25.8931
26.3473
26.5739
26.9673
14.7701
14.6429
14.7016
14.8628
15.2236
15.6844
16.1629
16.6724
17.1383
17.6109
18.0104
18.4208
18.7386
19.0878
19.3217
19.6219
19.7745
20.0686
14.767
14.5928
14.4733
14.4195
14.4433
14.5146
14.6475
14.8246
15.0022
15.2023
15.3793
15.576
15.7327
15.9148
16.0404
16.2071
16.2949
16.4716
14.7668
14.5926
14.4351
14.3028
14.2032
14.137
14.0972
14.0987
14.1106
14.1415
14.1783
14.2346
14.2793
14.3426
14.3855
14.4491
14.486
14.5567
14.7661
14.5944
14.4321
14.2828
14.1466
14.0296
13.9256
13.8437
13.7744
13.7224
13.6771
13.6482
13.6204
13.6063
13.5892
13.5835
13.573
13.5818
14.7658
14.5946
14.4323
14.2806
14.137
14.0051
13.8816
13.7705
13.6679
13.5777
13.4938
13.4219
13.3537
13.2971
13.2406
13.1973
13.1473
13.1179
14.7657
14.5944
14.4322
14.2801
14.1357
14.0007
13.8728
13.754
13.6417
13.5385
13.4409
13.3523
13.2677
13.1922
13.1185
13.0549
12.9895
12.9368
14.7657
14.5941
14.4321
14.2796
14.1353
13.9995
13.8707
13.7496
13.6347
13.5271
13.4247
13.3294
13.2383
13.1542
13.0731
12.999
12.9266
12.8616
14.7657
14.594
14.4319
14.2792
14.1349
13.9987
13.8698
13.7481
13.6326
13.5236
13.4201
13.3224
13.2294
13.1417
13.0581
12.9795
12.9043
12.8337
14.7657
14.5938
14.4317
14.2789
14.1345
13.9981
13.8691
13.7471
13.6315
13.5221
13.4183
13.32
13.2265
13.1379
13.0536
12.9737
12.8975
12.8253
14.7657
14.5938
14.4316
14.2786
14.1341
13.9976
13.8685
13.7463
13.6306
13.5211
13.4171
13.3185
13.2249
13.136
13.0515
12.9713
12.8948
12.8222
14.7657
14.5937
14.4315
14.2784
14.1338
13.9972
13.868
13.7457
13.6299
13.5202
13.4162
13.3174
13.2237
13.1347
13.0501
12.9696
12.8931
12.8203
14.7657
14.5937
14.4314
14.2783
14.1336
13.9969
13.8677
13.7453
13.6294
13.5196
13.4155
13.3167
13.2228
13.1337
13.049
12.9685
12.8919
12.819
14.7657
14.5937
14.4314
14.2782
14.1336
13.9969
13.8675
13.7451
13.6292
13.5194
13.4152
13.3163
13.2224
13.1333
13.0485
12.9679
12.8913
12.8184
14.7657
14.5937
14.4315
14.2783
14.1337
13.997
13.8677
13.7453
13.6294
13.5196
13.4154
13.3166
13.2227
13.1336
13.0489
12.9683
12.8917
12.8188
14.7657
14.5937
14.4316
14.2785
14.1339
13.9972
13.868
13.7457
13.63
13.5202
13.4163
13.3176
13.2241
13.1352
13.051
12.9708
12.8948
12.8224
14.7658
14.5938
14.4317
14.2786
14.1343
13.9977
13.869
13.7472
13.6325
13.524
13.4219
13.3252
13.2344
13.1482
13.0676
12.9907
12.9192
12.8504
14.766
14.5936
14.432
14.2789
14.1361
14.0021
13.8782
13.7628
13.6573
13.5595
13.4707
13.3883
13.314
13.2446
13.1828
13.1237
13.0728
13.0213
14.7664
14.5919
14.4339
14.2872
14.1626
14.0553
13.9688
13.8977
13.8459
13.8048
13.7783
13.758
13.7482
13.7415
13.7414
13.7454
13.7514
13.7511
14.7635
14.5927
14.4798
14.4111
14.4198
14.4675
14.5528
14.67
14.8168
14.9612
15.1237
15.2711
15.4319
15.5683
15.7195
15.8373
15.978
16.0719
14.7559
14.7332
14.9889
15.3353
15.9215
16.5509
17.2338
17.878
18.5377
19.1216
19.7127
20.2095
20.72
21.1248
21.5587
21.8755
22.2452
22.4805
15.1561
15.9275
18.0403
20.4321
22.9267
25.2658
27.5468
29.5525
31.4906
33.1025
34.6855
35.9137
37.1756
38.0655
39.0607
39.6723
40.4608
40.8521
17.6818
25.6331
36.6751
46.5427
55.8658
64.2726
72.1009
78.7408
84.8016
89.59
94.0125
97.1741
100.312
102.189
104.451
105.414
107.132
107.488
45.5096
105.214
164.441
217.229
267.838
313.448
353.657
386.102
413.216
433.649
450.586
462.692
472.879
479.758
486.797
490.285
496.128
497.462
632.296
1081.11
1534.74
1880.99
2183.47
2431.77
2631.53
2773.03
2876.15
2932.21
2969.07
2970.17
2963.16
2946.23
2918.32
2885.07
2849.27
2811.95
0.171233
0.172044
0.29788
0.435594
0.569414
0.692806
0.80418
0.903838
0.993111
1.07944
1.16726
1.25765
1.35332
1.4567
1.56922
1.69125
1.82282
1.96503
2.12341
2.31419
2.56067
2.86334
3.21639
3.62158
4.08586
4.61851
5.23003
5.93079
6.72987
7.63233
8.64068
9.75878
10.9877
12.3259
13.773
15.3273
16.9881
18.7541
20.6249
22.6006
24.6822
26.8723
29.1757
31.5998
34.1564
36.8632
39.7463
42.8442
46.0763
49.4619
52.9961
56.6889
60.5414
64.56
68.748
73.1107
77.652
82.3766
87.2884
92.3917
97.69
103.187
108.887
114.791
120.903
127.226
133.76
140.507
147.469
154.646
162.038
169.644
177.462
185.493
193.731
202.176
210.822
219.667
228.703
237.927
247.331
256.908
266.651
276.55
286.597
296.781
307.091
317.517
328.044
338.662
349.353
360.103
370.894
381.708
392.522
403.315
414.06
424.729
435.296
445.738
456.048
466.266
476.41
486.384
496.221
505.888
515.378
524.672
533.753
542.606
551.212
559.558
567.626
575.403
582.872
590.02
596.834
603.3
609.406
615.142
620.496
625.457
630.016
634.165
637.896
641.205
644.086
646.535
648.548
650.122
651.243
651.962
652.296
652.105
651.418
650.279
648.814
646.982
644.66
641.947
638.829
635.323
631.439
627.19
622.59
617.646
612.374
606.786
600.898
594.725
588.283
581.588
574.656
567.504
560.149
552.609
544.901
537.042
529.051
520.946
512.745
504.472
496.154
487.847
479.782
473.861
470.466
467.336
464.204
461.046
457.864
454.659
451.43
448.163
444.824
441.337
437.545
432.971
426.723
402.458
0.665875
0.393787
0.357528
0.371743
0.406341
0.452069
0.505528
0.566123
0.634843
0.713627
0.80365
0.905569
1.0208
1.15108
1.29823
1.46409
1.65069
1.86048
2.09642
2.36114
2.66243
3.00415
3.3875
3.81427
4.28707
4.80846
5.37992
6.00044
6.66431
7.36512
8.11012
8.89857
9.72982
10.6023
11.5162
12.4696
13.4607
14.4905
15.5604
16.6724
17.829
19.0329
20.2876
21.5967
22.964
24.393
25.8865
27.4443
29.061
30.7411
32.4849
34.2949
36.1721
38.1183
40.135
42.2237
44.3856
46.6221
48.9343
51.3232
53.7899
56.3351
58.9596
61.664
64.4486
67.3139
70.2598
73.2865
76.3937
79.5809
82.8478
86.1934
89.6168
93.1169
96.6922
100.341
104.062
107.853
111.711
115.634
119.619
123.664
127.765
131.918
136.12
140.366
144.653
148.975
153.328
157.706
162.104
166.514
170.931
175.346
179.752
184.142
188.507
192.841
197.141
201.408
205.658
209.927
214.225
218.456
222.634
226.748
230.793
234.763
238.65
242.449
246.152
249.755
253.25
256.631
259.894
263.032
266.04
268.912
271.645
274.232
276.67
278.954
281.08
283.046
284.847
286.481
287.946
289.24
290.361
291.308
292.079
292.68
293.105
293.332
293.372
293.239
292.956
292.513
291.883
291.087
290.125
289
287.716
286.278
284.689
282.953
281.075
279.06
276.914
274.641
272.249
269.742
267.126
264.409
261.596
258.695
255.711
252.653
249.526
246.338
243.097
239.811
236.493
233.163
229.901
227.062
224.74
222.537
220.353
218.171
215.99
213.811
211.638
209.473
207.314
205.165
203.01
200.887
198.708
195.044
1.43873
0.704657
0.556544
0.527208
0.538509
0.572205
0.622394
0.686883
0.765424
0.859117
0.969337
1.09744
1.24477
1.41262
1.60227
1.81502
2.05237
2.31613
2.60862
2.93281
3.28813
3.67396
4.09001
4.53576
5.01058
5.51385
6.04523
6.60538
7.19747
7.82535
8.48493
9.17624
9.90018
10.6573
11.4358
12.2417
13.0828
13.9612
14.8782
15.8356
16.8349
17.8776
18.9651
20.099
21.2805
22.5107
23.7906
25.1204
26.4999
27.9305
29.4132
30.9491
32.5392
34.1844
35.8858
37.6443
39.4608
41.336
43.2709
45.2658
47.3213
49.438
51.6163
53.8565
56.1589
58.5237
60.9509
63.4403
65.9919
68.6053
71.2801
74.0156
76.8112
79.666
82.5789
85.5487
88.5741
91.6536
94.7854
97.9677
101.198
104.475
107.796
111.157
114.557
117.992
121.458
124.953
128.472
132.012
135.568
139.136
142.712
146.29
149.867
153.439
157
160.55
164.088
167.614
171.132
174.646
178.139
181.59
184.996
188.352
191.653
194.892
198.065
201.166
204.191
207.133
209.989
212.752
215.419
217.984
220.444
222.793
225.029
227.146
229.142
231.013
232.755
234.366
235.843
237.184
238.388
239.452
240.375
241.156
241.794
242.289
242.638
242.825
242.872
242.781
242.556
242.194
241.687
241.043
240.264
239.352
238.31
237.141
235.85
234.439
232.912
231.273
229.528
227.679
225.732
223.692
221.564
219.352
217.062
214.7
212.271
209.78
207.234
204.637
201.997
199.32
196.615
193.899
191.215
188.686
186.354
184.099
181.871
179.656
177.452
175.26
173.086
170.934
168.812
166.734
164.715
162.835
161.102
159.379
2.24842
1.01069
0.774113
0.71782
0.720766
0.754911
0.811343
0.887141
0.981806
1.09596
1.23066
1.38701
1.56599
1.76833
1.99453
2.24495
2.51985
2.81948
3.144
3.49334
3.86683
4.26374
4.68354
5.12604
5.59137
6.08009
6.59316
7.13195
7.69804
8.29251
8.91538
9.56689
10.247
10.9557
11.7019
12.4864
13.3078
14.1669
15.0652
16.004
16.9845
18.0068
19.0718
20.1802
21.3326
22.529
23.769
25.0538
26.3858
27.7658
29.195
30.6743
32.2046
33.7869
35.422
37.111
38.8546
40.6538
42.5092
44.4215
46.3914
48.4193
50.5058
52.6515
54.8566
57.1215
59.4465
61.8315
64.2767
66.7819
69.3468
71.9712
74.6546
77.3962
80.1954
83.0511
85.9622
88.9275
91.9454
95.0144
98.1325
101.298
104.508
107.761
111.053
114.382
117.746
121.14
124.561
128.006
131.47
134.951
138.443
141.943
145.447
148.952
152.454
155.95
159.438
162.916
166.383
169.832
173.251
176.631
179.967
183.253
186.485
189.655
192.76
195.793
198.75
201.624
204.412
207.107
209.706
212.203
214.594
216.875
219.042
221.091
223.017
224.819
226.493
228.035
229.444
230.717
231.853
232.849
233.705
234.42
234.993
235.423
235.703
235.823
235.821
235.675
235.391
234.97
234.411
233.715
232.887
231.929
230.844
229.635
228.306
226.861
225.303
223.637
221.868
219.999
218.036
215.983
213.846
211.63
209.34
206.981
204.558
202.078
199.546
196.968
194.349
191.697
189.021
186.332
183.661
181.063
178.562
176.117
173.7
171.302
168.922
166.562
164.229
161.929
159.674
157.482
155.38
153.443
151.696
150.156
2.96799
1.30267
1.00014
0.926059
0.924948
0.962682
1.02755
1.11544
1.22524
1.35705
1.51143
1.68895
1.88994
2.11443
2.36214
2.63259
2.92517
3.23926
3.57428
3.9297
4.30512
4.70036
5.1156
5.55142
6.00873
6.48876
6.99291
7.52268
8.07949
8.66462
9.27911
9.9241
10.6009
11.3111
12.0572
12.8401
13.6601
14.5182
15.4149
16.3509
17.327
18.3446
19.4044
20.5074
21.6544
22.8465
24.0851
25.371
26.7046
28.0866
29.5182
31.0004
32.5343
34.1208
35.7612
37.4563
39.2074
41.0154
42.8815
44.8067
46.7914
48.8365
50.9428
53.1109
55.3417
57.6355
59.993
62.4145
64.9004
67.4508
70.0657
72.745
75.4886
78.296
81.1666
84.0997
87.0944
90.1496
93.2639
96.4357
99.6634
102.945
106.278
109.66
113.089
116.562
120.075
123.625
127.208
130.822
134.461
138.122
141.801
145.493
149.195
152.901
156.608
160.311
164.007
167.689
171.352
174.989
178.592
182.155
185.671
189.133
192.537
195.876
199.143
202.334
205.441
208.46
211.384
214.209
216.928
219.538
222.033
224.408
226.659
228.783
230.774
232.63
234.347
235.923
237.354
238.639
239.776
240.763
241.599
242.283
242.814
243.192
243.4
243.46
243.379
243.144
242.762
242.234
241.559
240.742
239.784
238.69
237.463
236.106
234.624
233.021
231.302
229.47
227.532
225.492
223.355
221.127
218.813
216.419
213.95
211.413
208.813
206.156
203.447
200.695
197.903
195.081
192.235
189.377
186.528
183.718
180.964
178.251
175.566
172.905
170.269
167.662
165.09
162.563
160.095
157.706
155.43
153.336
151.443
149.728
3.56645
1.58526
1.22837
1.14009
1.13664
1.17823
1.25066
1.34855
1.46999
1.61445
1.7819
1.97232
2.18549
2.42089
2.67779
2.9553
3.25255
3.56878
3.90348
4.25637
4.62754
5.01739
5.4267
5.85654
6.3082
6.78315
7.2829
7.80899
8.36286
8.94589
9.55941
10.2047
10.8832
11.5961
12.3449
13.1305
13.9538
14.8156
15.717
16.6586
17.6416
18.6671
19.7359
20.8491
22.0078
23.2131
24.4661
25.7677
27.1191
28.5213
29.9755
31.4831
33.0452
34.6632
36.3383
38.0719
39.8653
41.7196
43.636
45.6156
47.6602
49.7707
51.9485
54.1947
56.5102
58.896
61.353
63.8819
66.4834
69.1579
71.9058
74.7272
77.6222
80.5907
83.6321
86.746
89.9315
93.1875
96.5129
99.9059
103.365
106.887
110.471
114.114
117.813
121.564
125.365
129.211
133.099
137.023
140.981
144.967
148.976
153.003
157.044
161.093
165.144
169.192
173.231
177.254
181.254
185.224
189.156
193.043
196.879
200.655
204.366
208.003
211.561
215.033
218.412
221.691
224.864
227.925
230.868
233.687
236.378
238.934
241.351
243.624
245.75
247.724
249.543
251.203
252.702
254.038
255.209
256.213
257.048
257.716
258.214
258.537
258.677
258.665
258.486
258.142
257.634
256.966
256.138
255.156
254.021
252.738
251.311
249.745
248.044
246.213
244.258
242.183
239.995
237.7
235.302
232.809
230.227
227.561
224.818
222.005
219.128
216.193
213.207
210.178
207.11
204.013
200.894
197.764
194.637
191.534
188.467
185.433
182.429
179.454
176.51
173.603
170.741
167.934
165.198
162.558
160.045
157.719
155.586
153.565
4.04235
1.84298
1.44705
1.3482
1.34311
1.38755
1.46533
1.56993
1.69865
1.85034
2.02445
2.2205
2.4379
2.67589
2.9336
3.21014
3.50475
3.81688
4.14631
4.49316
4.85791
5.24134
5.64453
6.06875
6.51543
6.98606
7.48216
8.0052
8.55665
9.13788
9.75026
10.3951
11.0737
11.7873
12.5371
13.3242
14.1497
15.0147
15.9203
16.8675
17.8576
18.8916
19.9708
21.0964
22.2697
23.4918
24.7642
26.0881
27.4649
28.8961
30.3832
31.9278
33.5315
35.1958
36.9224
38.7131
40.5693
42.4929
44.4854
46.5485
48.6841
50.8936
53.1789
55.5413
57.9823
60.5033
63.1056
65.7904
68.5585
71.4109
74.3482
77.3709
80.4794
83.6735
86.9532
90.3179
93.767
97.2994
100.914
104.609
108.382
112.231
116.154
120.147
124.207
128.331
132.515
136.754
141.044
145.38
149.756
154.168
158.608
163.073
167.554
172.047
176.543
181.036
185.518
189.982
194.42
198.823
203.183
207.491
211.741
215.924
220.031
224.055
227.989
231.824
235.552
239.167
242.661
246.026
249.257
252.347
255.289
258.079
260.71
263.177
265.476
267.603
269.554
271.325
272.914
274.318
275.535
276.565
277.405
278.056
278.516
278.773
278.843
278.734
278.439
277.96
277.299
276.46
275.446
274.26
272.907
271.392
269.719
267.894
265.922
263.81
261.564
259.188
256.691
254.079
251.359
248.537
245.62
242.617
239.533
236.376
233.153
229.872
226.54
223.164
219.752
216.311
212.849
209.377
205.906
202.452
199.026
195.63
192.265
188.934
185.642
182.394
179.2
176.073
173.029
170.092
167.294
164.684
162.253
159.874
4.45878
2.0848
1.65384
1.54353
1.53509
1.57983
1.65985
1.76748
1.89923
2.05339
2.22897
2.42518
2.64129
2.87648
3.12997
3.40106
3.68923
3.99424
4.31616
4.65541
5.01268
5.38896
5.78543
6.20339
6.64426
7.10948
7.60053
8.11889
8.66598
9.2432
9.85193
10.4935
11.1693
11.8806
12.6285
13.4143
14.2395
15.1053
16.013
16.964
17.9596
19.0013
20.0902
21.2282
22.4166
23.6571
24.9511
26.3004
27.7067
29.1719
30.6981
32.2871
33.941
35.6618
37.4515
39.3124
41.2464
43.2559
45.3429
47.5096
49.7583
52.0911
54.5101
57.0173
59.6147
62.3042
65.0874
67.966
70.9414
74.0148
77.1872
80.4595
83.8321
87.3054
90.8792
94.5532
98.3267
102.199
106.168
110.232
114.389
118.637
122.973
127.392
131.891
136.467
141.114
145.827
150.601
155.43
160.308
165.228
170.183
175.167
180.172
185.189
190.211
195.23
200.235
205.219
210.172
215.084
219.946
224.749
229.484
234.141
238.712
243.186
247.556
251.811
255.944
259.946
263.809
267.524
271.084
274.482
277.711
280.765
283.637
286.322
288.815
291.111
293.207
295.098
296.783
298.257
299.52
300.57
301.407
302.03
302.435
302.614
302.593
302.363
301.924
301.282
300.437
299.394
298.157
296.73
295.12
293.331
291.369
289.24
286.952
284.511
281.924
279.199
276.342
273.362
270.267
267.063
263.76
260.365
256.887
253.333
249.712
246.031
242.299
238.524
234.713
230.875
227.019
223.153
219.29
215.441
211.616
207.821
204.061
200.34
196.665
193.043
189.485
186.003
182.616
179.347
176.225
173.292
170.521
167.759
5.33875
2.40274
1.87057
1.72886
1.70883
1.74855
1.82667
1.93354
2.06458
2.21743
2.39071
2.58342
2.79475
3.02399
3.2705
3.53381
3.81366
4.11007
4.42331
4.75395
5.10282
5.47097
5.85961
6.27002
6.70348
7.16123
7.64488
8.15596
8.69593
9.26622
9.86827
10.5036
11.1736
11.8799
12.6238
13.4064
14.2291
15.0935
16.0011
16.9536
17.9525
18.9999
20.0978
21.2483
22.4527
23.713
25.031
26.4081
27.8473
29.351
30.9217
32.5618
34.274
36.0606
37.9244
39.8679
41.8938
44.005
46.204
48.4938
50.877
53.3565
55.9348
58.6146
61.3984
64.2886
67.2874
70.3969
73.619
76.9552
80.4071
83.9755
87.6614
91.4651
95.3867
99.426
103.582
107.854
112.24
116.737
121.344
126.058
130.874
135.789
140.799
145.897
151.079
156.339
161.67
167.065
172.517
178.018
183.56
189.135
194.732
200.344
205.959
211.569
217.162
222.729
228.259
233.74
239.162
244.515
249.788
254.969
260.05
265.018
269.865
274.58
279.152
283.573
287.833
291.923
295.835
299.561
303.093
306.423
309.546
312.455
315.145
317.611
319.849
321.854
323.625
325.158
326.452
327.506
328.319
328.893
329.216
329.301
329.152
328.77
328.156
327.316
326.251
324.967
323.468
321.761
319.851
317.746
315.452
312.977
310.328
307.513
304.541
301.42
298.158
294.764
291.247
287.617
283.882
280.05
276.132
272.137
268.072
263.948
259.773
255.555
251.303
247.027
242.735
238.436
234.14
229.86
225.605
221.382
217.198
213.059
208.973
204.949
200.998
197.135
193.376
189.745
186.268
182.979
179.84
176.681
6.38717
2.74265
2.08009
1.89571
1.85828
1.88858
1.96123
2.06414
2.19153
2.34033
2.50876
2.69567
2.90023
3.1218
3.3599
3.61427
3.88484
4.17181
4.47558
4.7967
5.13599
5.4947
5.87415
6.27578
6.70129
7.1519
7.62853
8.13251
8.66528
9.22831
9.82309
10.4512
11.114
11.8132
12.5501
13.3267
14.1444
15.0054
15.9116
16.8649
17.8673
18.9207
20.0271
21.1888
22.408
23.6875
25.0299
26.4388
27.9157
29.4638
31.0864
32.7865
34.5672
36.4316
38.3829
40.4243
42.5593
44.7911
47.1233
49.5591
52.1021
54.7556
57.523
60.4074
63.412
66.5398
69.7934
73.1755
76.6884
80.334
84.114
88.0299
92.0824
96.2721
100.599
105.063
109.663
114.397
119.264
124.261
129.384
134.631
139.997
145.476
151.064
156.755
162.541
168.416
174.372
180.4
186.492
192.639
198.83
205.056
211.306
217.569
223.833
230.088
236.32
242.518
248.671
254.764
260.787
266.726
272.571
278.308
283.927
289.414
294.76
299.952
304.979
309.831
314.497
318.968
323.234
327.287
331.118
334.719
338.083
341.204
344.076
346.695
349.054
351.152
352.984
354.55
355.846
356.873
357.631
358.119
358.332
358.282
357.968
357.394
356.566
355.486
354.16
352.592
350.789
348.758
346.506
344.041
341.372
338.506
335.452
332.221
328.82
325.26
321.55
317.701
313.722
309.624
305.417
301.11
296.714
292.239
287.694
283.09
278.436
273.741
269.014
264.266
259.505
254.741
249.984
245.245
240.533
235.858
231.227
226.647
222.129
217.681
213.316
209.048
204.895
200.879
197.022
193.353
189.825
186.262
7.40978
3.06038
2.26559
2.03596
1.97863
1.997
2.06172
2.1584
2.28003
2.42289
2.58486
2.76461
2.96129
3.17432
3.40334
3.64812
3.90875
4.1858
4.48003
4.79265
5.12419
5.47528
5.84693
6.24029
6.65645
7.09645
7.5618
8.05424
8.5754
9.12685
9.71025
10.3272
10.9796
11.669
12.3975
13.1671
13.98
14.8382
15.7439
16.6995
17.7072
18.7696
19.8892
21.0689
22.3117
23.6203
24.9977
26.4455
27.9681
29.5704
31.2567
33.0306
34.8957
36.8558
38.9146
41.0761
43.3444
45.7236
48.2179
50.8313
53.5681
56.4323
59.4279
62.5587
65.8286
69.2409
72.799
76.5059
80.3642
84.3761
88.5436
92.8682
97.3506
101.991
106.79
111.747
116.86
122.127
127.546
133.113
138.825
144.676
150.662
156.777
163.013
169.364
175.821
182.376
189.02
195.742
202.533
209.381
216.275
223.202
230.152
237.11
244.065
251.001
257.907
264.767
271.569
278.299
284.941
291.484
297.913
304.215
310.377
316.385
322.228
327.892
333.365
338.637
343.695
348.528
353.128
357.484
361.588
365.43
369.005
372.305
375.325
378.058
380.501
382.651
384.503
386.057
387.312
388.267
388.923
389.279
389.338
389.103
388.575
387.762
386.669
385.303
383.667
381.768
379.613
377.212
374.571
371.701
368.611
365.311
361.81
358.119
354.249
350.21
346.014
341.672
337.194
332.593
327.878
323.063
318.156
313.17
308.116
303.002
297.841
292.642
287.415
282.169
276.915
271.663
266.422
261.203
256.017
250.872
245.777
240.742
235.776
230.889
226.094
221.406
216.842
212.423
208.168
204.102
200.174
196.204
8.36244
3.34256
2.42075
2.14649
2.06847
2.07361
2.1289
2.21781
2.33227
2.46799
2.62251
2.7943
2.98244
3.18661
3.40682
3.64354
3.89659
4.16596
4.45201
4.75506
5.07566
5.41521
5.77496
6.15609
6.55986
6.9878
7.44168
7.92287
8.43298
8.97369
9.54683
10.1543
10.7981
11.4802
12.2031
12.9688
13.78
14.6392
15.549
16.5122
17.5316
18.6103
19.7513
20.9581
22.2348
23.5838
25.0075
26.5085
28.0949
29.771
31.5416
33.4127
35.3884
37.4729
39.6708
41.9868
44.4258
46.9927
49.6924
52.5298
55.5099
58.6374
61.9169
65.3529
68.9497
72.7112
76.6411
80.7425
85.0184
89.4711
94.1024
98.9135
103.905
109.078
114.43
119.961
125.668
131.55
137.601
143.818
150.197
156.729
163.411
170.232
177.187
184.264
191.456
198.751
206.138
213.607
221.144
228.737
236.372
244.037
251.716
259.395
267.06
274.695
282.285
289.814
297.268
304.63
311.886
319.021
326.019
332.866
339.548
346.049
352.358
358.46
364.341
369.991
375.397
380.547
385.431
390.04
394.363
398.393
402.122
405.543
408.65
411.439
413.905
416.044
417.855
419.336
420.487
421.308
421.8
421.966
421.809
421.328
420.526
419.416
418.003
416.294
414.293
412.01
409.452
406.63
403.552
400.23
396.674
392.896
388.905
384.715
380.337
375.783
371.066
366.197
361.188
356.054
350.804
345.453
340.011
334.49
328.902
323.259
317.571
311.848
306.103
300.343
294.581
288.826
283.088
277.377
271.705
266.081
260.514
255.014
249.591
244.257
239.024
233.906
228.922
224.089
219.426
214.954
210.619
206.246
9.2216
3.58415
2.54432
2.2278
2.12854
2.12052
2.16546
2.24563
2.35195
2.47979
2.62669
2.79142
2.97294
3.17034
3.38315
3.61091
3.85365
4.1121
4.38687
4.67868
4.98871
5.31787
5.6672
6.03794
6.43145
6.84927
7.29305
7.76449
8.26539
8.79768
9.36342
9.96481
10.6042
11.2841
12.0071
12.7759
13.5934
14.4626
15.3868
16.3696
17.4147
18.525
19.704
20.9549
22.2793
23.6837
25.1746
26.7587
28.441
30.2265
32.1209
34.1305
36.2611
38.5178
40.9062
43.432
46.101
48.9189
51.8914
55.0242
58.3227
61.7924
65.4384
69.2655
73.2784
77.4811
81.8774
86.4704
91.2627
96.2564
101.453
106.852
112.455
118.261
124.267
130.472
136.871
143.462
150.238
157.194
164.324
171.619
179.071
186.671
194.409
202.273
210.253
218.337
226.51
234.76
243.072
251.433
259.826
268.236
276.647
285.044
293.409
301.726
309.979
318.149
326.222
334.179
342.005
349.683
357.197
364.531
371.671
378.601
385.307
391.774
397.99
403.941
409.614
415
420.085
424.862
429.319
433.45
437.246
440.701
443.81
446.567
448.97
451.014
452.699
454.024
454.99
455.597
455.847
455.748
455.301
454.494
453.35
451.876
450.078
447.962
445.536
442.81
439.794
436.498
432.933
429.112
425.045
420.746
416.227
411.5
406.58
401.478
396.209
390.786
385.222
379.531
373.726
367.819
361.824
355.753
349.619
343.433
337.207
330.952
324.68
318.4
312.123
305.86
299.621
293.416
287.256
281.151
275.111
269.146
263.267
257.485
251.812
246.265
240.857
235.609
230.534
225.655
220.914
216.147
9.97676
3.78418
2.63731
2.28186
2.16187
2.14104
2.17535
2.24684
2.3463
2.4679
2.60841
2.7657
2.93854
3.12666
3.32987
3.54821
3.78211
4.03185
4.29797
4.58123
4.88259
5.20313
5.54405
5.90672
6.29267
6.70358
7.1413
7.60778
8.10507
8.63542
9.20125
9.80515
10.45
11.139
11.8755
12.6624
13.5029
14.4007
15.3592
16.3809
17.4685
18.6286
19.8668
21.1886
22.6012
24.1092
25.7192
27.4378
29.2712
31.226
33.3091
35.5281
37.8885
40.3974
43.0617
45.8882
48.8837
52.0547
55.4072
58.9475
62.6814
66.6144
70.7519
75.0987
79.659
84.4365
89.4345
94.6553
100.101
105.771
111.668
117.789
124.134
130.699
137.482
144.478
151.683
159.089
166.689
174.477
182.443
190.576
198.868
207.305
215.877
224.57
233.371
242.264
251.237
260.272
269.354
278.468
287.595
296.719
305.823
314.888
323.898
332.834
341.678
350.413
359.021
367.485
375.786
383.908
391.835
399.549
407.036
414.28
421.267
427.981
434.409
440.539
446.358
451.854
457.017
461.837
466.306
470.414
474.156
477.525
480.517
483.126
485.351
487.19
488.64
489.703
490.381
490.674
490.591
490.139
489.295
488.086
486.52
484.604
482.346
479.754
476.838
473.608
470.075
466.251
462.15
457.782
453.163
448.304
443.22
437.925
432.434
426.759
420.916
414.919
408.783
402.521
396.148
389.677
383.122
376.495
369.811
363.081
356.318
349.532
342.735
335.939
329.153
322.388
315.654
308.963
302.324
295.747
289.243
282.823
276.496
270.274
264.171
258.199
252.376
246.718
241.238
235.957
230.819
225.674
10.6184
3.94099
2.70083
2.3113
2.17265
2.14031
2.16631
2.23045
2.32169
2.43493
2.56719
2.7167
2.88248
3.06381
3.26041
3.47229
3.69976
3.94329
4.20358
4.48145
4.77796
5.09431
5.43192
5.79236
6.17743
6.5892
7.03021
7.50271
8.00897
8.55168
9.13377
9.75827
10.4282
11.146
11.9138
12.7376
13.6223
14.5728
15.5941
16.6921
17.8731
19.1421
20.5057
21.9709
23.5453
25.2359
27.0501
28.9955
31.0796
33.3105
35.696
38.2444
40.9633
43.8607
46.9453
50.2253
53.708
57.3997
61.3063
65.4337
69.7872
74.3717
79.1916
84.2506
89.5517
95.097
100.888
106.925
113.208
119.736
126.506
133.515
140.759
148.233
155.932
163.848
171.973
180.299
188.816
197.513
206.38
215.405
224.574
233.873
243.29
252.808
262.413
272.088
281.817
291.583
301.369
311.158
320.931
330.67
340.357
349.975
359.503
368.924
378.22
387.373
396.363
405.175
413.789
422.189
430.359
438.281
445.941
453.323
460.413
467.197
473.661
479.793
485.581
491.014
496.083
500.777
505.089
509.012
512.539
515.665
518.387
520.701
522.605
524.098
525.18
525.85
526.119
525.986
525.462
524.523
523.196
521.489
519.409
516.968
514.172
511.03
507.555
503.758
499.651
495.248
490.562
485.607
480.397
474.946
469.269
463.382
457.299
451.035
444.606
438.027
431.312
424.476
417.535
410.503
403.393
396.219
388.995
381.732
374.444
367.142
359.837
352.541
345.263
338.015
330.807
323.648
316.55
309.522
302.575
295.718
288.963
282.321
275.805
269.428
263.205
257.151
251.28
245.613
240.093
234.594
11.1961
4.0673
2.7423
2.3224
2.16756
2.12494
2.14073
2.19595
2.28007
2.38725
2.51416
2.65888
2.82027
2.99771
3.19097
3.40015
3.62569
3.86836
4.12938
4.40955
4.71011
5.03261
5.37882
5.75069
6.1503
6.57969
7.04039
7.53502
8.0678
8.64259
9.26336
9.93433
10.6601
11.4458
12.2974
13.2197
14.2189
15.3015
16.4746
17.7458
19.1231
20.6142
22.2275
23.9717
25.8559
27.889
30.0801
32.4383
34.9726
37.6919
40.6042
43.7159
47.0379
50.5798
54.3519
58.3658
62.6277
67.1402
71.9069
76.9311
82.2158
87.7631
93.5746
99.6507
105.991
112.595
119.459
126.581
133.957
141.581
149.447
157.55
165.88
174.431
183.191
192.152
201.302
210.631
220.125
229.772
239.559
249.47
259.493
269.61
279.808
290.069
300.378
310.717
321.069
331.418
341.744
352.031
362.261
372.415
382.476
392.425
402.244
411.915
421.42
430.742
439.864
448.768
457.437
465.855
474.006
481.874
489.445
496.705
503.639
510.235
516.48
522.363
527.872
532.999
537.734
542.069
545.996
549.51
552.607
555.281
557.53
559.352
560.747
561.713
562.254
562.362
562.08
561.364
560.228
558.688
556.75
554.425
551.721
548.65
545.219
541.439
537.323
532.885
528.137
523.093
517.768
512.177
506.334
500.255
493.956
487.451
480.756
473.888
466.862
459.693
452.398
444.991
437.487
429.901
422.247
414.539
406.79
399.013
391.22
383.423
375.633
367.861
360.117
352.412
344.755
337.156
329.626
322.174
314.81
307.544
300.387
293.35
286.445
279.685
273.084
266.658
260.416
254.383
248.502
242.676
11.7256
4.16804
2.76514
2.31903
2.15039
2.0983
2.10792
2.15891
2.24013
2.34566
2.47229
2.61818
2.7821
2.96351
3.16237
3.37899
3.61391
3.86771
4.14056
4.43466
4.75225
5.0956
5.46723
5.86995
6.30691
6.78172
7.29885
7.86265
8.47757
9.14886
9.88242
10.6847
11.5627
12.5241
13.5771
14.7298
15.9911
17.3703
18.8776
20.5234
22.3185
24.2737
26.3999
28.7083
31.2097
33.9148
36.8337
39.9766
43.3531
46.9717
50.8399
54.9647
59.3545
64.0165
68.9589
74.1897
79.709
85.5141
91.603
97.9734
104.622
111.546
118.74
126.199
133.917
141.886
150.1
158.549
167.225
176.118
185.219
194.516
203.999
213.656
223.475
233.444
243.55
253.78
264.121
274.559
285.079
295.667
306.309
316.988
327.691
338.4
349.101
359.778
370.413
380.992
391.498
401.913
412.223
422.409
432.456
442.346
452.064
461.593
470.916
480.019
488.884
497.497
505.841
513.903
521.667
529.119
536.246
543.036
549.475
555.552
561.258
566.58
571.509
576.037
580.158
583.862
587.145
590.003
592.432
594.426
595.99
597.117
597.81
598.069
597.903
597.322
596.294
594.855
593.003
590.747
588.095
585.058
581.648
577.872
573.742
569.269
564.466
559.348
553.929
548.224
542.246
536.011
529.535
522.834
515.923
508.818
501.535
494.09
486.499
478.777
470.94
463.004
454.983
446.892
438.745
430.555
422.336
414.101
405.86
397.626
389.408
381.219
373.066
364.961
356.914
348.932
341.026
333.205
325.479
317.856
310.348
302.965
295.718
288.621
281.686
274.927
268.355
261.995
255.789
249.681
12.185
4.23781
2.77201
2.30804
2.1315
2.07711
2.08731
2.14114
2.2271
2.33908
2.47343
2.62759
2.80142
2.99497
3.20871
3.44352
3.70069
3.98203
4.29022
4.62754
4.99711
5.40258
5.84813
6.33848
6.87909
7.4762
8.13684
8.86836
9.67851
10.576
11.5708
12.6734
13.8955
15.249
16.7466
18.4013
20.2264
22.2359
24.444
26.8647
29.5112
32.3965
35.5331
38.933
42.6067
46.5628
50.8087
55.3512
60.1968
65.3488
70.808
76.5753
82.6544
89.0449
95.7508
102.762
110.058
117.633
125.475
133.574
141.919
150.499
159.302
168.317
177.531
186.933
196.511
206.253
216.146
226.179
236.34
246.618
257.001
267.477
278.035
288.663
299.349
310.081
320.847
331.635