/*--------------------------------*- C++ -*----------------------------------*\
| =========                 |                                                 |
| \\      /  F ield         | OpenFOAM: The Open Source CFD Toolbox           |
|  \\    /   O peration     | Version:  2312                                  |
|   \\  /    A nd           | Website:  www.openfoam.com                      |
|    \\/     M anipulation  |                                                 |
\*---------------------------------------------------------------------------*/
FoamFile
{
    version     2.0;
    format      ascii;
    arch        "LSB;label=32;scalar=64";
    class       volScalarField;
    location    "281";
    object      k;
}
// * * * * * * * * * * * * * * * * * * * * * * * * * * * * * * * * * * * * * //

dimensions      [0 2 -2 0 0 0 0];

internalField   nonuniform List<scalar> 
12225
(
0.571355
0.987723
1.28114
1.45557
1.54166
1.57741
1.57632
1.56599
1.54775
1.52388
1.50049
1.47801
1.45793
1.43899
1.42336
1.40763
1.39698
1.38226
0.436368
0.496702
0.521954
0.534904
0.542887
0.547413
0.550242
0.552226
0.555994
0.559483
0.565526
0.571182
0.579497
0.586964
0.596702
0.605399
0.61518
0.625777
0.388596
0.417503
0.424145
0.421544
0.415
0.404966
0.393798
0.382813
0.371927
0.362429
0.353238
0.346113
0.338975
0.334343
0.329113
0.326704
0.323065
0.322355
0.377462
0.38452
0.388006
0.387472
0.385271
0.381193
0.375693
0.369564
0.363115
0.356562
0.350107
0.3438
0.33782
0.332059
0.326781
0.321672
0.317171
0.312714
0.37451
0.375403
0.37637
0.375959
0.37474
0.372522
0.369618
0.366137
0.362485
0.358469
0.354556
0.350368
0.34652
0.342381
0.338793
0.334817
0.331604
0.327844
0.373826
0.372561
0.371993
0.371088
0.36991
0.368266
0.36634
0.364031
0.36164
0.358967
0.356373
0.353536
0.350915
0.348046
0.34552
0.3427
0.340346
0.337625
0.373789
0.371731
0.37023
0.368833
0.367464
0.36594
0.364344
0.362552
0.360733
0.358749
0.356812
0.35473
0.352769
0.350664
0.348747
0.346671
0.34485
0.342829
0.373822
0.371564
0.36962
0.36786
0.36625
0.364663
0.363121
0.361521
0.359944
0.358297
0.356694
0.355025
0.353428
0.351768
0.350212
0.348587
0.347101
0.345522
0.373834
0.371554
0.369457
0.36751
0.365722
0.364025
0.362428
0.360861
0.359354
0.357851
0.3564
0.354942
0.35354
0.352129
0.350784
0.349424
0.348147
0.346841
0.373833
0.37156
0.369425
0.36741
0.365529
0.363752
0.362086
0.360492
0.35898
0.357515
0.356115
0.354747
0.353436
0.35215
0.350918
0.349705
0.348549
0.347403
0.37383
0.371561
0.369417
0.367384
0.365468
0.363652
0.361942
0.360316
0.358778
0.357309
0.355911
0.354569
0.353288
0.352053
0.350871
0.349728
0.348634
0.347573
0.373828
0.371559
0.369412
0.367375
0.365448
0.363619
0.361889
0.360247
0.35869
0.357209
0.355802
0.354459
0.35318
0.351957
0.350789
0.349669
0.348598
0.34757
0.373827
0.371557
0.369407
0.367369
0.365437
0.363603
0.361865
0.360213
0.358646
0.357156
0.355739
0.35439
0.353107
0.351883
0.350716
0.349601
0.348536
0.34752
0.373827
0.371555
0.369403
0.367362
0.365428
0.363591
0.361848
0.360192
0.358619
0.357123
0.3557
0.354345
0.353056
0.351828
0.350656
0.34954
0.348474
0.347458
0.373826
0.371553
0.369399
0.367357
0.36542
0.363581
0.361835
0.360176
0.358599
0.3571
0.355673
0.354314
0.353021
0.351788
0.350613
0.349493
0.348424
0.347405
0.373826
0.371552
0.369396
0.367352
0.365413
0.363572
0.361824
0.360163
0.358584
0.357081
0.355652
0.35429
0.352994
0.351758
0.35058
0.349457
0.348385
0.347363
0.373825
0.371551
0.369394
0.367349
0.365408
0.363566
0.361816
0.360152
0.358571
0.357067
0.355635
0.354271
0.352972
0.351735
0.350555
0.349429
0.348355
0.347331
0.373825
0.371551
0.369393
0.367347
0.365405
0.363561
0.36181
0.360145
0.358562
0.357056
0.355623
0.354258
0.352957
0.351718
0.350536
0.349409
0.348334
0.347308
0.373825
0.371551
0.369393
0.367347
0.365404
0.36356
0.361808
0.360143
0.358559
0.357052
0.355618
0.354252
0.35295
0.35171
0.350527
0.349399
0.348323
0.347296
0.373825
0.371551
0.369394
0.367348
0.365406
0.363562
0.361811
0.360146
0.358562
0.357056
0.355622
0.354256
0.352955
0.351715
0.350532
0.349405
0.348329
0.347302
0.373826
0.371552
0.369396
0.367351
0.36541
0.363567
0.361816
0.360152
0.35857
0.357065
0.355633
0.354268
0.352969
0.35173
0.35055
0.349423
0.348349
0.347323
0.373826
0.371553
0.369398
0.367355
0.365416
0.363575
0.361828
0.360168
0.358591
0.357091
0.355664
0.354306
0.353012
0.351779
0.350602
0.34948
0.348408
0.347383
0.373826
0.371555
0.369401
0.367363
0.365432
0.363605
0.361875
0.360237
0.358681
0.357203
0.355794
0.354451
0.353167
0.351939
0.350762
0.349635
0.348552
0.347513
0.373827
0.371555
0.369413
0.367418
0.365544
0.363793
0.362138
0.360572
0.359071
0.357632
0.35624
0.354896
0.353589
0.352323
0.35109
0.349894
0.348729
0.347601
0.373825
0.371565
0.369582
0.367846
0.366223
0.364711
0.363219
0.361754
0.360266
0.358787
0.357288
0.3558
0.354306
0.352833
0.351361
0.349924
0.348495
0.34711
0.373813
0.371945
0.370923
0.369984
0.368911
0.367769
0.366327
0.364737
0.362934
0.361062
0.35906
0.357054
0.354971
0.352925
0.350845
0.348825
0.346792
0.344839
0.374386
0.375097
0.377363
0.377613
0.37706
0.375839
0.373494
0.370865
0.367802
0.364686
0.361328
0.358027
0.354602
0.351291
0.347923
0.3447
0.341473
0.338414
0.379653
0.393541
0.402719
0.402409
0.400144
0.396078
0.390672
0.385167
0.379133
0.373302
0.367221
0.361475
0.355719
0.350305
0.345128
0.340198
0.335726
0.331324
0.405811
0.438978
0.451181
0.455812
0.459105
0.46226
0.46497
0.467227
0.46922
0.47084
0.472486
0.473922
0.47554
0.477066
0.479202
0.480825
0.483663
0.485376
0.479035
0.684949
0.865145
0.99081
1.09437
1.17584
1.23938
1.28342
1.31504
1.33208
1.34321
1.34355
1.34143
1.33632
1.32786
1.31776
1.30684
1.2954
0.00232529
0.0038689
0.00557803
0.00718585
0.00859017
0.00978908
0.0108105
0.0116846
0.0124401
0.0131468
0.0138469
0.0145489
0.0152734
0.016037
0.0168477
0.0177054
0.0186071
0.0195567
0.0205851
0.0217854
0.0232885
0.0250772
0.0270888
0.0293094
0.0317538
0.0344461
0.0374118
0.040671
0.0442347
0.0480948
0.052231
0.0566322
0.0612786
0.0661436
0.0712081
0.0764513
0.0818582
0.0874147
0.09311
0.0989366
0.10489
0.110972
0.117188
0.12355
0.130082
0.136816
0.143804
0.151121
0.158572
0.166183
0.173941
0.181857
0.18993
0.198163
0.206557
0.215115
0.223837
0.232726
0.241781
0.251004
0.260394
0.269951
0.279673
0.28956
0.29961
0.309819
0.320185
0.330705
0.341374
0.352189
0.363143
0.374232
0.385449
0.396788
0.408241
0.419801
0.431459
0.443208
0.455038
0.46694
0.478902
0.490917
0.502971
0.515056
0.527157
0.539265
0.551365
0.563448
0.575497
0.5875
0.599443
0.611309
0.623083
0.634747
0.64628
0.657662
0.668871
0.67988
0.690667
0.701215
0.711522
0.721633
0.731576
0.741254
0.750705
0.759904
0.768847
0.777521
0.785915
0.794017
0.801818
0.809306
0.816472
0.823307
0.8298
0.835945
0.841732
0.847155
0.852207
0.856881
0.861171
0.865072
0.868579
0.871687
0.874394
0.876699
0.878598
0.880093
0.88118
0.881859
0.882122
0.882011
0.881552
0.880611
0.879224
0.877419
0.875316
0.872885
0.870006
0.866772
0.863169
0.859212
0.854909
0.85027
0.845306
0.840024
0.834435
0.828548
0.822377
0.815932
0.809226
0.802272
0.795083
0.787671
0.78005
0.772235
0.764238
0.756075
0.74776
0.739308
0.730734
0.722059
0.713307
0.704527
0.695923
0.689238
0.68511
0.681269
0.67742
0.673538
0.669623
0.665677
0.661697
0.65767
0.653562
0.649298
0.644722
0.639365
0.632341
0.60729
0.00574988
0.00895324
0.0127002
0.0157385
0.0183007
0.0205649
0.0226443
0.0246182
0.0265462
0.0284746
0.0304691
0.0325982
0.0349037
0.0374049
0.040104
0.0429936
0.0460658
0.0493184
0.0527602
0.0564067
0.0602714
0.0643681
0.0687108
0.0733141
0.0781988
0.0833901
0.0889133
0.0947904
0.101036
0.107652
0.114628
0.121961
0.129647
0.137682
0.146062
0.154765
0.163781
0.173106
0.182736
0.192667
0.202897
0.213424
0.224249
0.235371
0.24679
0.258508
0.270523
0.282831
0.295418
0.308295
0.321464
0.334931
0.348701
0.362778
0.377166
0.391871
0.406895
0.422244
0.437919
0.453925
0.470264
0.486937
0.503946
0.521292
0.538974
0.556991
0.575341
0.594023
0.613033
0.632367
0.652019
0.671983
0.692253
0.712821
0.733678
0.754814
0.776218
0.797878
0.819782
0.841917
0.864267
0.886817
0.909551
0.932452
0.9555
0.978678
1.00196
1.02534
1.04878
1.07227
1.09578
1.11928
1.14275
1.16616
1.18948
1.21269
1.23573
1.25859
1.2812
1.30352
1.32548
1.34701
1.36811
1.38891
1.40939
1.42952
1.44928
1.46864
1.4876
1.50611
1.52416
1.54173
1.55879
1.57532
1.59131
1.60673
1.62156
1.63579
1.64939
1.66236
1.67467
1.68631
1.69727
1.70753
1.71708
1.72592
1.73403
1.74141
1.74805
1.75395
1.75911
1.76352
1.7672
1.77012
1.77217
1.77334
1.77388
1.77386
1.77299
1.77138
1.76903
1.76596
1.76219
1.75772
1.75257
1.74675
1.74027
1.73317
1.72544
1.71711
1.70821
1.69874
1.68874
1.67823
1.66722
1.65574
1.64382
1.63148
1.61875
1.60566
1.59223
1.57849
1.56447
1.55023
1.53584
1.5217
1.5079
1.49404
1.48009
1.46605
1.45195
1.43782
1.42366
1.40949
1.39527
1.38099
1.36645
1.35158
1.33489
1.29942
0.00961635
0.0146246
0.0197091
0.023673
0.0270292
0.0300611
0.0329321
0.0357535
0.0386115
0.0415779
0.0447141
0.0480682
0.0516719
0.0555401
0.0596743
0.0640683
0.0687135
0.0736037
0.0787385
0.0841236
0.0897724
0.0956971
0.101911
0.108429
0.115272
0.122462
0.130018
0.137957
0.146294
0.155044
0.164224
0.17384
0.183897
0.194396
0.205331
0.216689
0.228465
0.240653
0.253246
0.266239
0.279627
0.293402
0.307561
0.322098
0.33701
0.352293
0.367944
0.383958
0.400336
0.417082
0.434198
0.45169
0.469561
0.487815
0.506457
0.52549
0.544918
0.564744
0.58497
0.6056
0.626634
0.648073
0.669919
0.692169
0.714824
0.73788
0.761335
0.785185
0.809424
0.834048
0.859048
0.884417
0.910145
0.936223
0.96264
0.989382
1.01644
1.04379
1.07142
1.09932
1.12747
1.15584
1.18443
1.2132
1.24213
1.27121
1.3004
1.32968
1.35903
1.38841
1.4178
1.44717
1.47649
1.50572
1.53483
1.56379
1.59256
1.62112
1.64941
1.67741
1.70509
1.73243
1.7594
1.786
1.81219
1.83794
1.86321
1.88798
1.91222
1.93589
1.95896
1.98142
2.00322
2.02434
2.04476
2.06444
2.08337
2.10151
2.11886
2.13538
2.15106
2.16587
2.1798
2.19284
2.20496
2.21616
2.22643
2.23575
2.24413
2.25154
2.258
2.2635
2.26803
2.27158
2.27411
2.27552
2.27606
2.27578
2.27449
2.27224
2.26906
2.26495
2.25993
2.25402
2.24724
2.2396
2.23113
2.22185
2.21177
2.20093
2.18936
2.17706
2.16409
2.15045
2.13619
2.12133
2.1059
2.08994
2.07349
2.05657
2.03922
2.02148
2.00339
1.985
1.96641
1.94784
1.92934
1.91077
1.8921
1.87333
1.8545
1.83565
1.81681
1.79801
1.77926
1.76058
1.74192
1.72329
1.70329
1.67198
0.0129571
0.0205671
0.0269383
0.031754
0.0358168
0.0395087
0.0430396
0.0465475
0.0501347
0.053882
0.0578518
0.0620892
0.0666215
0.0714596
0.0766022
0.0820406
0.0877642
0.0937653
0.100041
0.106595
0.113437
0.120579
0.128041
0.135846
0.144021
0.152594
0.161591
0.171036
0.18095
0.19135
0.202245
0.213641
0.225536
0.237925
0.250797
0.264151
0.277983
0.292283
0.307044
0.322258
0.337918
0.354016
0.370548
0.387507
0.404891
0.422695
0.440919
0.459561
0.478622
0.498106
0.518018
0.538361
0.55914
0.58036
0.602025
0.624139
0.646707
0.669732
0.693217
0.717165
0.741578
0.766457
0.791802
0.817614
0.843891
0.870632
0.897832
0.925488
0.953595
0.982146
1.01113
1.04055
1.07038
1.10063
1.13126
1.16228
1.19366
1.22539
1.25745
1.28982
1.32249
1.35542
1.3886
1.422
1.4556
1.48937
1.52327
1.55729
1.59139
1.62553
1.65969
1.69383
1.72792
1.76192
1.79579
1.8295
1.86302
1.89629
1.9293
1.96201
1.99437
2.02637
2.05795
2.08909
2.11974
2.14987
2.17945
2.20842
2.23677
2.26444
2.2914
2.31763
2.34308
2.36772
2.39153
2.41446
2.43649
2.4576
2.47776
2.49693
2.51511
2.53226
2.54837
2.56341
2.57737
2.59024
2.60201
2.61265
2.62218
2.63057
2.63782
2.64394
2.64892
2.65274
2.65537
2.65671
2.65706
2.65633
2.65446
2.65147
2.64737
2.6422
2.63596
2.62869
2.62038
2.61109
2.60081
2.58959
2.57745
2.56442
2.55053
2.53581
2.52029
2.50401
2.487
2.4693
2.45095
2.43198
2.41244
2.39235
2.37178
2.35075
2.32933
2.30756
2.28555
2.26343
2.24126
2.219
2.19662
2.17416
2.15165
2.12914
2.10668
2.08433
2.06214
2.04018
2.0185
1.99719
1.97504
1.94588
0.0155971
0.0264432
0.0341623
0.0398671
0.0446497
0.0489822
0.0531205
0.0572285
0.0614236
0.0657941
0.0704057
0.0753036
0.0805138
0.0860465
0.0918998
0.0980656
0.104535
0.111301
0.118366
0.125735
0.133423
0.141452
0.149845
0.158632
0.167843
0.177506
0.187647
0.198288
0.209446
0.221133
0.233355
0.246113
0.259407
0.27323
0.28758
0.302451
0.317836
0.333727
0.350117
0.367
0.384368
0.402216
0.420539
0.439335
0.458599
0.478332
0.498533
0.519203
0.540347
0.561968
0.584071
0.606661
0.629744
0.653324
0.677408
0.702
0.727105
0.752728
0.778873
0.805543
0.832742
0.860472
0.888733
0.917527
0.946853
0.976709
1.00709
1.038
1.06943
1.10137
1.13382
1.16676
1.20019
1.2341
1.26846
1.30327
1.33851
1.37416
1.41021
1.44662
1.48338
1.52045
1.55783
1.59547
1.63335
1.67144
1.7097
1.7481
1.78661
1.82519
1.8638
1.90241
1.94097
1.97944
2.01779
2.05596
2.09393
2.13166
2.16908
2.20618
2.2429
2.27919
2.31502
2.35034
2.3851
2.41927
2.45279
2.48562
2.51773
2.54907
2.57959
2.60925
2.63803
2.66588
2.69275
2.71863
2.74347
2.76725
2.78992
2.81148
2.83187
2.8511
2.86912
2.88592
2.90148
2.91579
2.92883
2.94059
2.95106
2.96023
2.96811
2.97469
2.97996
2.98392
2.98651
2.98767
2.98772
2.98648
2.98396
2.98017
2.97513
2.96887
2.96141
2.95277
2.94298
2.93206
2.92005
2.90697
2.89285
2.87773
2.86165
2.84463
2.82673
2.80797
2.78839
2.76805
2.74697
2.72521
2.70281
2.67981
2.65626
2.63222
2.60773
2.58287
2.55771
2.53236
2.50689
2.4813
2.45558
2.42979
2.40397
2.37818
2.35248
2.32696
2.30171
2.27686
2.25251
2.22879
2.20469
2.17588
0.0176323
0.0319861
0.0411189
0.0477402
0.0532457
0.0581982
0.0628972
0.0675305
0.0722297
0.0770915
0.0821865
0.0875632
0.0932507
0.0992625
0.105601
0.112264
0.119247
0.126551
0.134181
0.142151
0.150481
0.159193
0.168316
0.17788
0.187911
0.198436
0.209477
0.221051
0.233172
0.245847
0.259082
0.272877
0.287231
0.302141
0.317604
0.333615
0.350168
0.367259
0.384882
0.403032
0.421706
0.440901
0.460614
0.480844
0.501592
0.522858
0.544644
0.566954
0.589793
0.613165
0.637075
0.661531
0.686538
0.712104
0.738234
0.764936
0.792216
0.820079
0.848532
0.877578
0.907223
0.937469
0.96832
0.999777
1.03184
1.06451
1.09779
1.13166
1.16614
1.20121
1.23686
1.27308
1.30987
1.34722
1.3851
1.4235
1.4624
1.50179
1.54164
1.58193
1.62263
1.66371
1.70514
1.7469
1.78895
1.83125
1.87377
1.91646
1.9593
2.00223
2.04522
2.08821
2.13118
2.17406
2.21682
2.2594
2.30176
2.34385
2.38562
2.42702
2.46799
2.50849
2.54846
2.58786
2.62663
2.66472
2.70209
2.73868
2.77444
2.80933
2.84329
2.87629
2.90828
2.93921
2.96905
2.99776
3.02529
3.05161
3.07669
3.1005
3.12301
3.14418
3.164
3.18245
3.19949
3.21512
3.22932
3.24208
3.25339
3.26324
3.27163
3.27857
3.28404
3.28804
3.29049
3.29145
3.29108
3.28927
3.28604
3.28139
3.27537
3.26798
3.25926
3.24924
3.23794
3.22539
3.21163
3.19669
3.18062
3.16344
3.1452
3.12594
3.10569
3.08451
3.06244
3.03953
3.01582
2.99136
2.9662
2.94039
2.91398
2.88704
2.85961
2.83177
2.80359
2.77517
2.74657
2.71782
2.68894
2.65999
2.63103
2.60213
2.57337
2.54486
2.51672
2.48912
2.46221
2.43614
2.40998
2.38037
0.0191698
0.0370842
0.047579
0.0550941
0.0612974
0.0668332
0.0720403
0.0771283
0.082242
0.0874871
0.0929411
0.0986587
0.104675
0.111012
0.117679
0.124681
0.132023
0.139712
0.14776
0.156183
0.165002
0.174244
0.183934
0.194098
0.204761
0.215945
0.227667
0.239942
0.252781
0.26619
0.280173
0.294732
0.309868
0.325579
0.341864
0.35872
0.376145
0.394137
0.412693
0.431812
0.451493
0.471735
0.49254
0.513908
0.535843
0.558348
0.581427
0.605085
0.629328
0.654163
0.679597
0.705638
0.732294
0.759574
0.787485
0.816036
0.845235
0.87509
0.905607
0.936794
0.968656
1.0012
1.03443
1.06834
1.10295
1.13825
1.17424
1.21092
1.24829
1.28633
1.32505
1.36444
1.40447
1.44515
1.48645
1.52835
1.57084
1.6139
1.6575
1.70161
1.7462
1.79125
1.83672
1.88257
1.92876
1.97527
2.02203
2.06902
2.11618
2.16348
2.21085
2.25825
2.30562
2.35292
2.4001
2.44709
2.49384
2.54029
2.58639
2.63208
2.6773
2.72198
2.76608
2.80953
2.85228
2.89427
2.93545
2.97575
3.01513
3.05352
3.09089
3.12717
3.16232
3.19628
3.22902
3.26049
3.29064
3.31945
3.34686
3.37285
3.39739
3.42043
3.44197
3.46197
3.48041
3.49728
3.51256
3.52623
3.53829
3.54873
3.55756
3.56476
3.57034
3.57431
3.57657
3.57724
3.57638
3.57394
3.56993
3.56437
3.5573
3.54874
3.53872
3.52727
3.51443
3.50023
3.48471
3.46791
3.44987
3.43063
3.41024
3.38874
3.36618
3.34261
3.31808
3.29264
3.26633
3.23923
3.21137
3.18281
3.15362
3.12384
3.09355
3.06281
3.03169
3.00029
2.96867
2.93687
2.90494
2.87295
2.84096
2.80905
2.77734
2.74593
2.71499
2.6847
2.65524
2.62676
2.5984
2.56718
0.0204567
0.041624
0.0533648
0.0617052
0.0685477
0.0746097
0.080264
0.0857394
0.0911923
0.0967373
0.10246
0.108421
0.114666
0.121224
0.128113
0.135349
0.142943
0.150909
0.159261
0.168019
0.177204
0.186839
0.196949
0.207555
0.218679
0.230338
0.242549
0.255322
0.268667
0.282592
0.297101
0.312197
0.327883
0.344161
0.361031
0.378495
0.396552
0.415205
0.434453
0.454299
0.474746
0.495795
0.517452
0.539719
0.562603
0.586109
0.610245
0.635017
0.660434
0.686505
0.713239
0.740645
0.768735
0.797519
0.827007
0.857209
0.888136
0.919797
0.952202
0.98536
1.01928
1.05397
1.08943
1.12567
1.16269
1.2005
1.2391
1.27848
1.31865
1.35959
1.40131
1.44378
1.48701
1.53097
1.57565
1.62103
1.66708
1.71379
1.76113
1.80906
1.85755
1.90657
1.95608
2.00604
2.05641
2.10713
2.15817
2.20948
2.261
2.31267
2.36445
2.41627
2.46809
2.51982
2.57143
2.62284
2.67399
2.72481
2.77524
2.82521
2.87466
2.92352
2.97173
3.01921
3.06591
3.11177
3.15672
3.2007
3.24365
3.28551
3.32622
3.36573
3.40397
3.4409
3.47647
3.51063
3.54334
3.57454
3.60421
3.6323
3.65877
3.68361
3.70677
3.72824
3.74799
3.766
3.78226
3.79675
3.80947
3.82042
3.82958
3.83697
3.84258
3.84643
3.84842
3.84872
3.8473
3.84416
3.83931
3.83279
3.82462
3.81483
3.80347
3.79056
3.77615
3.76027
3.74297
3.72429
3.70427
3.68297
3.66044
3.63672
3.61186
3.58593
3.55897
3.53104
3.50219
3.47248
3.44198
3.41074
3.37882
3.34628
3.31319
3.27962
3.24564
3.21134
3.17679
3.14204
3.10716
3.07221
3.03728
3.00246
2.96787
2.93365
2.89996
2.86701
2.835
2.80404
2.77335
2.74035
0.0230443
0.0457692
0.0584582
0.0674647
0.074836
0.0813391
0.0873683
0.0931647
0.0988931
0.104675
0.110601
0.116742
0.123148
0.129858
0.136901
0.144296
0.152064
0.160221
0.168785
0.177777
0.187216
0.197123
0.207519
0.218424
0.229855
0.241828
0.254356
0.267451
0.281123
0.295379
0.310225
0.325667
0.341711
0.35836
0.37562
0.393493
0.411985
0.4311
0.450842
0.471217
0.49223
0.513888
0.536198
0.559167
0.582803
0.607117
0.632117
0.657813
0.684217
0.71134
0.739194
0.767791
0.797145
0.827269
0.858176
0.889878
0.922388
0.95572
0.989884
1.02489
1.06075
1.09748
1.13508
1.17355
1.21292
1.25317
1.29431
1.33634
1.37926
1.42307
1.46774
1.51329
1.55969
1.60693
1.65498
1.70384
1.75346
1.80384
1.85492
1.90669
1.9591
2.01212
2.06569
2.11979
2.17434
2.22932
2.28465
2.34029
2.39618
2.45225
2.50844
2.5647
2.62094
2.67711
2.73314
2.78895
2.84447
2.89963
2.95435
3.00857
3.06221
3.11519
3.16745
3.2189
3.26949
3.31915
3.3678
3.41537
3.4618
3.50703
3.55099
3.59362
3.63486
3.67465
3.71294
3.74968
3.78482
3.81831
3.85011
3.88017
3.90848
3.93498
3.95965
3.98246
4.0034
4.02244
4.03956
4.05476
4.06803
4.07937
4.08877
4.09624
4.10178
4.10541
4.10708
4.1069
4.10485
4.10093
4.09518
4.08762
4.0783
4.06724
4.05449
4.04009
4.02408
4.0065
3.98741
3.96685
3.94487
3.92152
3.89686
3.87095
3.84383
3.81557
3.78623
3.75586
3.72453
3.6923
3.65922
3.62537
3.5908
3.55558
3.51978
3.48347
3.44673
3.40962
3.37224
3.33465
3.29692
3.25913
3.22136
3.18372
3.14634
3.10937
3.073
3.03742
3.00284
2.96937
2.93627
2.9014
0.0259755
0.0493222
0.062728
0.0722566
0.080048
0.0869057
0.0932375
0.0992929
0.105242
0.11121
0.117294
0.123569
0.130092
0.136908
0.144052
0.151552
0.159431
0.167709
0.176406
0.185541
0.195134
0.205203
0.215767
0.226842
0.238444
0.250589
0.26329
0.276557
0.290402
0.304833
0.319859
0.335488
0.351729
0.368589
0.386075
0.404196
0.422959
0.442371
0.462442
0.483181
0.504598
0.526701
0.549502
0.573013
0.597244
0.622208
0.647918
0.674387
0.701631
0.729663
0.7585
0.788156
0.818648
0.849992
0.882204
0.9153
0.949296
0.984207
1.02005
1.05683
1.09457
1.13327
1.17296
1.21363
1.2553
1.29796
1.34163
1.3863
1.43196
1.47863
1.52628
1.5749
1.62449
1.67502
1.72648
1.77883
1.83205
1.88611
1.94097
1.9966
2.05295
2.10998
2.16764
2.22587
2.28463
2.34385
2.40347
2.46344
2.52367
2.58411
2.64469
2.70533
2.76596
2.8265
2.88688
2.94701
3.00682
3.06623
3.12515
3.18351
3.24122
3.2982
3.35438
3.40968
3.46401
3.51731
3.56951
3.62052
3.67028
3.71871
3.76575
3.81133
3.85539
3.89787
3.93871
3.97785
4.01524
4.05084
4.0846
4.11647
4.14642
4.17442
4.20043
4.22443
4.24639
4.2663
4.28414
4.2999
4.31358
4.32517
4.33468
4.3421
4.34747
4.35077
4.35201
4.35127
4.3485
4.34372
4.33699
4.32835
4.31782
4.30545
4.29129
4.27537
4.25775
4.23847
4.21759
4.19516
4.17123
4.14587
4.11913
4.09107
4.06175
4.03123
3.99958
3.96686
3.93314
3.89847
3.86292
3.82656
3.78945
3.75166
3.71327
3.67434
3.63494
3.59517
3.55509
3.51479
3.47434
3.43382
3.39334
3.353
3.31294
3.27333
3.23433
3.19618
3.15906
3.12307
3.08752
3.05057
0.028686
0.0521581
0.0660944
0.0760215
0.0841353
0.0912667
0.0978333
0.10409
0.110211
0.116324
0.122528
0.128902
0.135507
0.142394
0.1496
0.157159
0.165095
0.173432
0.182191
0.19139
0.201048
0.211184
0.221813
0.232951
0.244614
0.256815
0.269566
0.282881
0.296772
0.311249
0.326324
0.342009
0.358314
0.375251
0.392831
0.411064
0.429964
0.449543
0.469812
0.490786
0.512477
0.534899
0.558066
0.581995
0.606699
0.632198
0.658507
0.685644
0.713626
0.742472
0.7722
0.802831
0.834384
0.86688
0.900337
0.934775
0.970212
1.00667
1.04415
1.08269
1.12229
1.16298
1.20475
1.24762
1.29161
1.33671
1.38293
1.43027
1.47872
1.52828
1.57895
1.6307
1.68352
1.73738
1.79227
1.84816
1.90501
1.96279
2.02145
2.08096
2.14126
2.2023
2.26403
2.32638
2.38931
2.45273
2.51659
2.58081
2.64532
2.71005
2.7749
2.83982
2.9047
2.96947
3.03405
3.09834
3.16227
3.22574
3.28866
3.35095
3.41253
3.47329
3.53317
3.59207
3.64991
3.70662
3.76211
3.8163
3.86912
3.9205
3.97036
4.01864
4.06525
4.11016
4.15328
4.19456
4.23396
4.27141
4.30688
4.34031
4.37168
4.40094
4.42806
4.45303
4.47581
4.49638
4.51474
4.53088
4.54479
4.55647
4.56592
4.57316
4.5782
4.58106
4.58176
4.58036
4.57677
4.57106
4.56329
4.5535
4.54172
4.52801
4.5124
4.49496
4.47573
4.45476
4.43212
4.40786
4.38204
4.35472
4.32596
4.29584
4.2644
4.23173
4.19788
4.16292
4.12692
4.08994
4.05206
4.01333
3.97383
3.93363
3.8928
3.8514
3.80952
3.76724
3.72463
3.68179
3.63878
3.59571
3.55266
3.50977
3.46717
3.42503
3.38353
3.34289
3.30328
3.26482
3.22683
3.18776
0.0311021
0.0542781
0.0685674
0.0787756
0.0871186
0.0944462
0.101182
0.107585
0.113831
0.120048
0.126338
0.132779
0.139437
0.146361
0.153595
0.161172
0.169121
0.177466
0.186229
0.195428
0.20508
0.215203
0.225812
0.236922
0.248548
0.260704
0.273403
0.28666
0.300491
0.314908
0.329926
0.345561
0.361826
0.378736
0.396308
0.414556
0.433497
0.453147
0.473523
0.494643
0.516525
0.539185
0.562643
0.586916
0.612026
0.637995
0.664844
0.692595
0.72127
0.750892
0.781484
0.81307
0.845674
0.87932
0.91403
0.949825
0.986728
1.02476
1.06394
1.10428
1.1458
1.18853
1.23246
1.27762
1.324
1.37163
1.42048
1.47058
1.5219
1.57445
1.62821
1.68316
1.73928
1.79655
1.85494
1.9144
1.97492
2.03643
2.0989
2.16228
2.2265
2.29152
2.35726
2.42367
2.49067
2.55819
2.62616
2.69449
2.76311
2.83193
2.90087
2.96983
3.03873
3.10749
3.176
3.24417
3.31192
3.37914
3.44575
3.51164
3.57674
3.64094
3.70415
3.7663
3.82728
3.88702
3.94543
4.00244
4.05795
4.1119
4.1642
4.21479
4.2636
4.31055
4.3556
4.39867
4.43972
4.47869
4.51553
4.55021
4.58267
4.6129
4.64084
4.66649
4.68982
4.71081
4.72945
4.74573
4.75965
4.77122
4.78044
4.78732
4.79189
4.79417
4.79419
4.79204
4.78752
4.78079
4.77192
4.76093
4.74787
4.73279
4.71575
4.69679
4.67597
4.65336
4.62901
4.60298
4.57534
4.54616
4.51549
4.48342
4.45
4.4153
4.3794
4.34236
4.30425
4.26514
4.22509
4.18419
4.14249
4.10007
4.05699
4.01333
3.96917
3.92459
3.87967
3.83449
3.78914
3.7437
3.6983
3.65305
3.60809
3.56358
3.51972
3.47672
3.43473
3.39389
3.35356
3.31242
0.0332045
0.0557287
0.0702065
0.0805859
0.0890687
0.0965163
0.103357
0.109851
0.116174
0.122455
0.128795
0.135272
0.141953
0.148889
0.156122
0.163686
0.171611
0.17992
0.188635
0.197774
0.207355
0.217396
0.227911
0.238917
0.25043
0.262462
0.275029
0.288148
0.301838
0.316117
0.331003
0.346514
0.36267
0.379489
0.396991
0.415198
0.434128
0.453805
0.474249
0.495484
0.517532
0.540414
0.564151
0.588764
0.614277
0.640719
0.66812
0.696506
0.725906
0.756348
0.78786
0.820471
0.854207
0.889096
0.925162
0.96243
1.00092
1.04066
1.08167
1.12397
1.16757
1.21249
1.25875
1.30635
1.3553
1.4056
1.45726
1.51027
1.56461
1.62028
1.67726
1.73552
1.79504
1.85578
1.91772
1.98081
2.045
2.11025
2.17649
2.24368
2.31175
2.38063
2.45026
2.52055
2.59144
2.66284
2.73467
2.80685
2.87928
2.95188
3.02455
3.09721
3.16975
3.24207
3.31409
3.38571
3.45682
3.52733
3.59714
3.66615
3.73427
3.8014
3.86744
3.93231
3.99592
4.05817
4.11898
4.17828
4.23596
4.29196
4.3462
4.39861
4.44911
4.49764
4.54413
4.58853
4.63078
4.67083
4.70862
4.74413
4.7773
4.80811
4.83652
4.86251
4.88606
4.90715
4.92578
4.94194
4.95563
4.96685
4.97562
4.98196
4.98588
4.98741
4.98667
4.9836
4.97806
4.97025
4.96021
4.94799
4.93363
4.9172
4.89873
4.87829
4.85595
4.83176
4.80578
4.77809
4.74876
4.71784
4.68541
4.65154
4.61631
4.57977
4.54201
4.50309
4.46308
4.42206
4.38009
4.33724
4.29358
4.24919
4.20412
4.15846
4.11228
4.06566
4.01868
3.97142
3.92398
3.87644
3.82892
3.78154
3.73444
3.68779
3.64177
3.59657
3.55237
3.50929
3.46675
3.42368
0.0350003
0.0565799
0.0710958
0.0815439
0.0900818
0.0975758
0.104457
0.110985
0.117338
0.123643
0.13
0.136488
0.143167
0.150089
0.157292
0.164809
0.17267
0.1809
0.18952
0.198549
0.208006
0.217909
0.228276
0.239126
0.25048
0.262362
0.27478
0.287751
0.301294
0.315429
0.330178
0.345563
0.361607
0.378334
0.395768
0.413935
0.43286
0.452569
0.47309
0.494454
0.516689
0.539818
0.563871
0.588875
0.61487
0.641887
0.669958
0.699114
0.72939
0.760819
0.793435
0.827271
0.862357
0.898721
0.936388
0.975385
1.01573
1.05746
1.10058
1.14511
1.19108
1.23848
1.28735
1.33767
1.38945
1.4427
1.49739
1.55353
1.6111
1.67007
1.73042
1.79213
1.85514
1.91943
1.98496
2.05166
2.11949
2.18839
2.25829
2.32914
2.40086
2.47337
2.54661
2.62048
2.69491
2.76981
2.84509
2.92066
2.99642
3.07229
3.14816
3.22394
3.29953
3.37483
3.44974
3.52415
3.59797
3.67109
3.74342
3.81486
3.8853
3.95466
4.02283
4.08973
4.15525
4.21932
4.28184
4.34274
4.40192
4.45931
4.51484
4.56842
4.61998
4.66947
4.71682
4.76196
4.80486
4.84544
4.88367
4.91951
4.95291
4.98385
5.01229
5.03822
5.06161
5.08245
5.10074
5.11646
5.12963
5.14025
5.14834
5.15392
5.15701
5.15765
5.15605
5.15189
5.14526
5.13631
5.12508
5.11161
5.09596
5.07819
5.05835
5.03651
5.01273
4.98707
4.9596
4.9304
4.89953
4.86705
4.83306
4.79761
4.76078
4.72264
4.68327
4.64273
4.6011
4.55844
4.51483
4.47033
4.42502
4.37895
4.33221
4.28485
4.23697
4.18862
4.1399
4.09088
4.04166
3.99232
3.94298
3.89376
3.8448
3.79626
3.74832
3.70117
3.65496
3.60985
3.5653
3.5205
0.0364928
0.0568757
0.071297
0.0817277
0.0902485
0.0977236
0.104588
0.111102
0.117441
0.123732
0.130071
0.136534
0.143183
0.150068
0.157225
0.164687
0.172479
0.180626
0.18915
0.19807
0.207407
0.217179
0.227404
0.238101
0.249287
0.260976
0.273187
0.285951
0.299296
0.313246
0.327831
0.343078
0.359017
0.37568
0.393099
0.411303
0.430325
0.450199
0.470957
0.492633
0.51527
0.538891
0.563524
0.589191
0.61593
0.643796
0.67283
0.703072
0.734561
0.767336
0.801437
0.836909
0.873773
0.912055
0.951784
0.992979
1.03566
1.07985
1.12556
1.1728
1.22159
1.27194
1.32384
1.37729
1.4323
1.48883
1.54689
1.60645
1.66748
1.72995
1.79382
1.85906
1.92561
1.99344
2.06247
2.13267
2.20396
2.27627
2.34955
2.42371
2.49868
2.57438
2.65072
2.72762
2.805
2.88276
2.96081
3.03906
3.11741
3.19577
3.27403
3.3521
3.42988
3.50727
3.58417
3.66047
3.73608
3.8109
3.88482
3.95775
4.02959
4.10025
4.16963
4.23763
4.30417
4.36916
4.43251
4.49415
4.55398
4.61193
4.66793
4.72189
4.77376
4.82346
4.87094
4.91614
4.95901
4.9995
5.03755
5.07314
5.10622
5.13677
5.16476
5.19016
5.21297
5.23316
5.25074
5.2657
5.27805
5.2878
5.29496
5.29956
5.30163
5.3013
5.29866
5.29331
5.28554
5.27541
5.26298
5.24828
5.23139
5.21236
5.19124
5.16811
5.14303
5.11607
5.08729
5.05678
5.02459
4.9908
4.95549
4.91873
4.8806
4.84115
4.80048
4.75865
4.71572
4.67178
4.62688
4.58109
4.53448
4.48712
4.43907
4.3904
4.34118
4.29149
4.2414
4.191
4.14037
4.08959
4.03879
3.98808
3.93759
3.88748
3.83792
3.78909
3.74116
3.69428
3.64797
3.60171
0.0378108
0.056832
0.0710978
0.0814497
0.0898966
0.0973026
0.104104
0.110559
0.116844
0.123085
0.129375
0.135788
0.142378
0.149191
0.156263
0.163623
0.171297
0.179306
0.187675
0.196426
0.20558
0.21516
0.225188
0.235686
0.246679
0.258195
0.270265
0.282914
0.296173
0.310073
0.324647
0.339932
0.355962
0.37278
0.390432
0.408955
0.428383
0.448754
0.470104
0.492463
0.51584
0.540293
0.565891
0.5927
0.620773
0.650143
0.68085
0.712934
0.746434
0.781386
0.817819
0.855754
0.895229
0.936274
0.978926
1.02319
1.06906
1.11656
1.16569
1.21644
1.26882
1.32282
1.37843
1.43564
1.49441
1.55473
1.61656
1.67986
1.74461
1.81074
1.87822
1.947
2.017
2.08819
2.16049
2.23384
2.30817
2.3834
2.45947
2.5363
2.61381
2.69191
2.77052
2.84956
2.92893
3.00856
3.08835
3.1682
3.24802
3.32772
3.40721
3.48638
3.56515
3.64341
3.72106
3.79802
3.87418
3.94945
4.02373
4.09693
4.16895
4.23971
4.3091
4.37705
4.44345
4.50823
4.5713
4.63259
4.69202
4.7495
4.80497
4.85836
4.90959
4.9586
5.00535
5.04977
5.09182
5.13144
5.1686
5.20325
5.23536
5.26491
5.29186
5.3162
5.33793
5.35701
5.37346
5.38727
5.39845
5.40701
5.41297
5.41635
5.41721
5.41583
5.41188
5.40529
5.39631
5.38497
5.37133
5.35544
5.33737
5.31716
5.29488
5.2706
5.24439
5.21631
5.18644
5.15484
5.12159
5.08677
5.05043
5.01267
4.97355
4.93315
4.89153
4.84876
4.80492
4.76006
4.71426
4.66758
4.62009
4.57183
4.52289
4.47332
4.42319
4.37257
4.32153
4.27015
4.21851
4.1667
4.11482
4.06298
4.01132
3.95999
3.90915
3.85898
3.80962
3.76126
3.71346
3.66605
0.039002
0.0565983
0.0705498
0.0807129
0.0889931
0.0962454
0.102906
0.109236
0.115408
0.121546
0.127739
0.134055
0.140545
0.147251
0.154208
0.161448
0.168999
0.176891
0.185145
0.193785
0.202835
0.212323
0.222275
0.232724
0.243698
0.255231
0.267359
0.280121
0.293566
0.307731
0.322654