/*--------------------------------*- C++ -*----------------------------------*\
| =========                 |                                                 |
| \\      /  F ield         | OpenFOAM: The Open Source CFD Toolbox           |
|  \\    /   O peration     | Version:  2312                                  |
|   \\  /    A nd           | Website:  www.openfoam.com                      |
|    \\/     M anipulation  |                                                 |
\*---------------------------------------------------------------------------*/
FoamFile
{
    version     2.0;
    format      ascii;
    arch        "LSB;label=32;scalar=64";
    class       volScalarField;
    location    "281";
    object      p;
}
// * * * * * * * * * * * * * * * * * * * * * * * * * * * * * * * * * * * * * //

dimensions      [0 2 -2 0 0 0 0];

internalField   nonuniform List<scalar> 
12225
(
498.259
496.094
495.001
494.688
494.511
494.332
494.184
494.073
493.981
493.898
493.821
493.748
493.678
493.609
493.538
493.466
493.379
493.326
495.113
494.332
494.128
494.216
494.241
494.177
494.094
494.02
493.95
493.881
493.812
493.745
493.679
493.613
493.545
493.474
493.395
493.292
494.734
494.806
494.687
494.6
494.492
494.349
494.215
494.104
494.01
493.925
493.845
493.77
493.699
493.629
493.56
493.488
493.411
493.328
494.867
494.955
494.696
494.504
494.382
494.26
494.147
494.052
493.971
493.896
493.825
493.756
493.69
493.625
493.56
493.493
493.424
493.358
494.879
494.862
494.615
494.45
494.357
494.259
494.156
494.066
493.986
493.911
493.839
493.77
493.704
493.639
493.574
493.51
493.447
493.388
494.818
494.771
494.584
494.444
494.354
494.258
494.157
494.067
493.987
493.912
493.84
493.772
493.707
493.644
493.582
493.521
493.463
493.41
494.755
494.712
494.567
494.437
494.343
494.249
494.153
494.065
493.986
493.913
493.843
493.777
493.713
493.652
493.592
493.535
493.481
493.432
494.699
494.661
494.544
494.422
494.329
494.24
494.149
494.065
493.988
493.916
493.848
493.783
493.721
493.661
493.604
493.55
493.499
493.454
494.647
494.613
494.515
494.406
494.316
494.231
494.146
494.064
493.989
493.919
493.853
493.789
493.729
493.671
493.616
493.565
493.517
493.475
494.598
494.567
494.485
494.389
494.303
494.222
494.142
494.064
493.991
493.923
493.858
493.796
493.738
493.682
493.63
493.581
493.535
493.495
494.551
494.524
494.456
494.37
494.29
494.213
494.137
494.063
493.993
493.927
493.864
493.804
493.747
493.694
493.643
493.597
493.554
493.515
494.512
494.488
494.429
494.352
494.277
494.205
494.132
494.062
493.994
493.93
493.869
493.811
493.756
493.705
493.656
493.611
493.57
493.533
494.475
494.454
494.403
494.335
494.265
494.196
494.128
494.06
493.995
493.934
493.875
493.819
493.765
493.716
493.669
493.626
493.586
493.55
494.437
494.419
494.375
494.315
494.251
494.187
494.123
494.059
493.997
493.938
493.881
493.827
493.776
493.728
493.683
493.642
493.603
493.569
494.4
494.383
494.346
494.294
494.236
494.177
494.117
494.057
493.999
493.942
493.888
493.837
493.788
493.742
493.699
493.659
493.622
493.589
494.364
494.35
494.319
494.273
494.222
494.167
494.112
494.056
494.001
493.948
493.897
493.848
493.801
493.757
493.716
493.678
493.643
493.61
494.335
494.323
494.295
494.256
494.209
494.16
494.109
494.057
494.005
493.955
493.906
493.86
493.816
493.774
493.734
493.698
493.663
493.632
494.316
494.305
494.281
494.245
494.203
494.157
494.109
494.061
494.012
493.964
493.918
493.873
493.831
493.791
493.753
493.717
493.684
493.653
494.315
494.306
494.282
494.248
494.208
494.164
494.118
494.071
494.024
493.977
493.932
493.889
493.848
493.809
493.772
493.737
493.704
493.673
494.34
494.329
494.305
494.269
494.227
494.181
494.134
494.086
494.038
493.992
493.946
493.903
493.862
493.822
493.785
493.751
493.718
493.687
494.374
494.363
494.336
494.296
494.25
494.201
494.152
494.102
494.052
494.004
493.957
493.913
493.871
493.831
493.794
493.759
493.726
493.695
494.416
494.404
494.374
494.327
494.275
494.223
494.171
494.117
494.065
494.015
493.967
493.921
493.878
493.838
493.8
493.764
493.73
493.699
494.463
494.452
494.417
494.36
494.301
494.244
494.189
494.132
494.077
494.024
493.974
493.927
493.883
493.841
493.802
493.766
493.732
493.7
494.512
494.503
494.462
494.394
494.328
494.266
494.205
494.144
494.086
494.031
493.98
493.932
493.887
493.844
493.805
493.769
493.734
493.703
494.564
494.562
494.499
494.417
494.353
494.292
494.225
494.157
494.094
494.036
493.982
493.932
493.885
493.842
493.801
493.764
493.73
493.697
494.61
494.658
494.542
494.42
494.358
494.305
494.24
494.173
494.111
494.053
493.998
493.947
493.899
493.854
493.813
493.775
493.739
493.706
494.593
494.79
494.657
494.479
494.373
494.292
494.213
494.14
494.077
494.019
493.966
493.916
493.871
493.829
493.79
493.755
493.721
493.689
494.45
494.699
494.722
494.667
494.584
494.475
494.364
494.266
494.181
494.104
494.034
493.971
493.915
493.865
493.819
493.778
493.74
493.704
494.721
494.093
493.974
494.114
494.201
494.194
494.152
494.107
494.061
494.013
493.964
493.916
493.872
493.83
493.792
493.756
493.724
493.693
497.78
496.011
494.998
494.716
494.589
494.447
494.317
494.216
494.134
494.06
493.994
493.935
493.882
493.835
493.793
493.755
493.723
493.696
492.911
492.911
492.911
492.911
492.91
492.909
492.908
492.906
492.904
492.903
492.901
492.899
492.897
492.895
492.893
492.89
492.888
492.885
492.882
492.878
492.874
492.87
492.865
492.86
492.854
492.848
492.841
492.833
492.825
492.815
492.805
492.793
492.78
492.767
492.752
492.735
492.718
492.699
492.679
492.658
492.636
492.612
492.588
492.563
492.537
492.51
492.483
492.455
492.426
492.397
492.368
492.339
492.309
492.28
492.25
492.22
492.191
492.161
492.132
492.104
492.075
492.048
492.021
491.994
491.969
491.945
491.922
491.9
491.879
491.861
491.844
491.829
491.816
491.805
491.797
491.791
491.789
491.789
491.793
491.8
491.811
491.826
491.845
491.868
491.896
491.928
491.965
492.008
492.056
492.109
492.168
492.233
492.304
492.381
492.464
492.554
492.651
492.754
492.864
492.981
493.105
493.235
493.373
493.518
493.671
493.831
493.998
494.173
494.354
494.543
494.738
494.941
495.15
495.367
495.589
495.818
496.054
496.295
496.542
496.795
497.054
497.317
497.586
497.859
498.136
498.418
498.704
498.992
499.284
499.579
499.877
500.176
500.478
500.781
501.085
501.389
501.695
502
502.305
502.61
502.913
503.216
503.516
503.815
504.112
504.406
504.697
504.986
505.271
505.552
505.83
506.103
506.372
506.637
506.898
507.153
507.404
507.649
507.889
508.125
508.354
508.578
508.797
509.01
509.218
509.42
509.617
509.808
509.993
510.172
510.345
510.512
510.674
510.83
510.981
511.126
511.267
511.406
511.552
511.701
492.911
492.911
492.911
492.91
492.909
492.908
492.907
492.906
492.905
492.904
492.902
492.901
492.9
492.898
492.896
492.894
492.892
492.89
492.887
492.884
492.881
492.877
492.873
492.869
492.864
492.858
492.852
492.844
492.836
492.827
492.817
492.806
492.794
492.78
492.765
492.749
492.732
492.713
492.693
492.672
492.65
492.627
492.603
492.578
492.552
492.526
492.499
492.471
492.443
492.415
492.386
492.357
492.328
492.298
492.269
492.24
492.21
492.181
492.152
492.124
492.096
492.068
492.041
492.015
491.99
491.966
491.943
491.921
491.9
491.882
491.864
491.849
491.836
491.825
491.817
491.811
491.808
491.808
491.811
491.818
491.828
491.842
491.86
491.882
491.909
491.941
491.977
492.019
492.065
492.118
492.175
492.239
492.309
492.384
492.467
492.555
492.65
492.752
492.86
492.976
493.098
493.228
493.365
493.509
493.66
493.819
493.984
494.157
494.337
494.523
494.717
494.918
495.126
495.34
495.561
495.789
496.022
496.262
496.508
496.759
497.016
497.278
497.545
497.817
498.093
498.373
498.657
498.945
499.236
499.53
499.826
500.125
500.425
500.727
501.031
501.335
501.639
501.944
502.249
502.553
502.856
503.159
503.459
503.758
504.055
504.349
504.641
504.929
505.215
505.496
505.774
506.049
506.318
506.584
506.845
507.101
507.353
507.599
507.84
508.076
508.307
508.533
508.752
508.967
509.176
509.379
509.576
509.767
509.952
510.131
510.305
510.473
510.635
510.792
510.943
511.09
511.233
511.373
511.522
511.668
492.912
492.912
492.911
492.911
492.91
492.909
492.908
492.907
492.906
492.906
492.905
492.904
492.903
492.902
492.901
492.9
492.898
492.896
492.894
492.892
492.889
492.886
492.883
492.878
492.873
492.868
492.861
492.854
492.846
492.836
492.826
492.814
492.801
492.787
492.772
492.756
492.739
492.72
492.7
492.68
492.658
492.635
492.612
492.588
492.563
492.537
492.511
492.484
492.456
492.429
492.401
492.372
492.344
492.315
492.286
492.258
492.229
492.2
492.172
492.144
492.117
492.09
492.063
492.037
492.012
491.988
491.965
491.944
491.923
491.905
491.888
491.872
491.859
491.848
491.839
491.833
491.83
491.83
491.832
491.839
491.848
491.862
491.879
491.901
491.927
491.958
491.993
492.034
492.079
492.13
492.187
492.249
492.317
492.392
492.472
492.559
492.653
492.753
492.86
492.973
493.094
493.222
493.357
493.499
493.648
493.804
493.968
494.139
494.316
494.501
494.693
494.892
495.097
495.309
495.528
495.753
495.985
496.223
496.466
496.716
496.971
497.231
497.496
497.766
498.04
498.318
498.601
498.887
499.176
499.468
499.763
500.06
500.359
500.66
500.962
501.265
501.569
501.873
502.176
502.48
502.782
503.084
503.384
503.682
503.979
504.273
504.564
504.852
505.138
505.42
505.698
505.972
506.242
506.508
506.769
507.026
507.278
507.525
507.767
508.003
508.235
508.461
508.681
508.896
509.106
509.309
509.507
509.7
509.886
510.067
510.242
510.411
510.575
510.733
510.886
511.035
511.18
511.323
511.475
511.61
492.915
492.914
492.914
492.912
492.911
492.911
492.91
492.909
492.909
492.908
492.908
492.907
492.906
492.906
492.905
492.904
492.902
492.901
492.899
492.897
492.894
492.891
492.887
492.883
492.877
492.871
492.865
492.857
492.848
492.838
492.827
492.816
492.803
492.788
492.773
492.757
492.739
492.721
492.702
492.681
492.66
492.638
492.615
492.591
492.567
492.542
492.516
492.49
492.463
492.436
492.409
492.381
492.353
492.325
492.297
492.269
492.241
492.213
492.185
492.157
492.13
492.103
492.077
492.051
492.027
492.003
491.98
491.958
491.938
491.919
491.902
491.887
491.873
491.862
491.853
491.847
491.843
491.842
491.845
491.851
491.86
491.873
491.89
491.911
491.936
491.966
492
492.04
492.085
492.135
492.19
492.252
492.319
492.392
492.472
492.557
492.65
492.749
492.854
492.967
493.086
493.212
493.346
493.487
493.634
493.789
493.951
494.12
494.296
494.479
494.669
494.866
495.07
495.281
495.498
495.722
495.952
496.188
496.43
496.678
496.931
497.19
497.453
497.722
497.994
498.272
498.553
498.837
499.125
499.416
499.71
500.006
500.304
500.604
500.905
501.207
501.51
501.813
502.116
502.419
502.721
503.022
503.322
503.62
503.916
504.21
504.501
504.789
505.074
505.356
505.634
505.909
506.179
506.445
506.707
506.964
507.216
507.463
507.706
507.943
508.175
508.401
508.622
508.838
509.048
509.252
509.451
509.644
509.832
510.013
510.189
510.36
510.524
510.684
510.838
510.987
511.134
511.276
511.428
511.549
492.92
492.919
492.917
492.916
492.914
492.913
492.912
492.912
492.911
492.911
492.91
492.91
492.909
492.909
492.908
492.907
492.905
492.904
492.901
492.899
492.896
492.892
492.888
492.883
492.878
492.871
492.864
492.855
492.846
492.836
492.825
492.812
492.799
492.785
492.769
492.753
492.736
492.717
492.698
492.678
492.657
492.635
492.613
492.59
492.566
492.541
492.516
492.49
492.464
492.438
492.411
492.384
492.356
492.329
492.301
492.273
492.245
492.218
492.19
492.163
492.136
492.109
492.083
492.058
492.033
492.009
491.986
491.965
491.945
491.926
491.909
491.893
491.88
491.868
491.859
491.852
491.849
491.847
491.85
491.855
491.864
491.876
491.893
491.913
491.938
491.967
492.001
492.04
492.084
492.134
492.189
492.249
492.316
492.388
492.467
492.552
492.643
492.741
492.846
492.957
493.076
493.201
493.333
493.473
493.619
493.773
493.934
494.102
494.277
494.459
494.648
494.844
495.047
495.256
495.473
495.695
495.924
496.159
496.4
496.647
496.899
497.156
497.419
497.686
497.958
498.235
498.515
498.799
499.086
499.376
499.669
499.964
500.262
500.561
500.861
501.163
501.465
501.768
502.07
502.373
502.675
502.975
503.275
503.572
503.868
504.162
504.453
504.741
505.027
505.309
505.587
505.861
506.132
506.398
506.66
506.917
507.17
507.418
507.66
507.898
508.13
508.357
508.579
508.795
509.005
509.21
509.409
509.603
509.791
509.973
510.15
510.32
510.486
510.645
510.8
510.95
511.097
511.238
511.386
511.496
492.927
492.925
492.922
492.92
492.918
492.917
492.916
492.915
492.914
492.914
492.913
492.912
492.912
492.911
492.91
492.908
492.907
492.905
492.902
492.899
492.896
492.892
492.887
492.881
492.875
492.868
492.86
492.851
492.841
492.83
492.819
492.806
492.792
492.778
492.762
492.746
492.729
492.711
492.691
492.672
492.651
492.63
492.607
492.585
492.561
492.537
492.512
492.487
492.462
492.435
492.409
492.382
492.355
492.328
492.3
492.273
492.245
492.218
492.19
492.163
492.136
492.11
492.084
492.059
492.034
492.01
491.988
491.966
491.946
491.927
491.909
491.894
491.88
491.868
491.859
491.852
491.848
491.847
491.849
491.854
491.862
491.874
491.89
491.91
491.935
491.964
491.997
492.036
492.079
492.128
492.183
492.243
492.308
492.38
492.458
492.543
492.634
492.731
492.835
492.946
493.064
493.188
493.32
493.459
493.605
493.758
493.918
494.085
494.259
494.44
494.629
494.824
495.026
495.235
495.45
495.672
495.9
496.134
496.375
496.621
496.872
497.129
497.391
497.658
497.929
498.205
498.484
498.767
499.054
499.344
499.636
499.931
500.228
500.526
500.826
501.128
501.43
501.732
502.034
502.336
502.638
502.938
503.238
503.535
503.831
504.124
504.416
504.704
504.989
505.271
505.55
505.824
506.095
506.361
506.623
506.881
507.134
507.382
507.625
507.862
508.095
508.322
508.544
508.761
508.971
509.177
509.376
509.57
509.758
509.941
510.118
510.289
510.454
510.614
510.769
510.919
511.065
511.205
511.35
511.449
492.934
492.932
492.928
492.925
492.922
492.92
492.919
492.918
492.917
492.916
492.915
492.914
492.913
492.912
492.911
492.909
492.907
492.904
492.901
492.898
492.894
492.889
492.884
492.878
492.871
492.863
492.854
492.845
492.835
492.823
492.811
492.798
492.784
492.77
492.754
492.738
492.72
492.702
492.683
492.664
492.643
492.622
492.6
492.578
492.554
492.531
492.506
492.481
492.456
492.43
492.404
492.378
492.351
492.324
492.296
492.269
492.242
492.214
492.187
492.16
492.133
492.107
492.081
492.056
492.031
492.007
491.984
491.963
491.942
491.923
491.906
491.89
491.876
491.864
491.855
491.848
491.843
491.842
491.843
491.848
491.856
491.868
491.884
491.903
491.927
491.956
491.989
492.028
492.071
492.119
492.173
492.233
492.299
492.37
492.448
492.532
492.622
492.719
492.823
492.933
493.051
493.175
493.306
493.444
493.59
493.742
493.902
494.069
494.242
494.423
494.611
494.806
495.007
495.216
495.431
495.652
495.88
496.113
496.353
496.599
496.85
497.106
497.368
497.634
497.905
498.18
498.459
498.742
499.028
499.317
499.609
499.904
500.2
500.499
500.798
501.099
501.401
501.703
502.005
502.307
502.608
502.908
503.207
503.505
503.801
504.094
504.385
504.673
504.959
505.241
505.519
505.794
506.065
506.331
506.593
506.851
507.104
507.352
507.595
507.833
508.066
508.294
508.516
508.732
508.943
509.149
509.349
509.543
509.731
509.914
510.091
510.262
510.428
510.588
510.743
510.892
511.038
511.175
511.318
511.407
492.941
492.938
492.933
492.929
492.926
492.924
492.922
492.92
492.919
492.918
492.917
492.916
492.914
492.913
492.911
492.909
492.906
492.903
492.899
492.895
492.891
492.885
492.879
492.872
492.865
492.857
492.848
492.838
492.827
492.815
492.803
492.79
492.776
492.761
492.745
492.729
492.711
492.693
492.674
492.655
492.634
492.613
492.592
492.569
492.546
492.523
492.499
492.474
492.449
492.423
492.397
492.371
492.344
492.317
492.29
492.263
492.236
492.208
492.181
492.154
492.127
492.101
492.075
492.049
492.025
492.001
491.978
491.956
491.935
491.916
491.898
491.883
491.868
491.856
491.847
491.839
491.835
491.833
491.834
491.839
491.847
491.858
491.874
491.894
491.917
491.946
491.979
492.017
492.06
492.108
492.162
492.222
492.287
492.358
492.436
492.519
492.61
492.706
492.81
492.92
493.037
493.161
493.292
493.43
493.575
493.728
493.887
494.054
494.227
494.408
494.595
494.79
494.991
495.199
495.414
495.635
495.862
496.096
496.335
496.58
496.831
497.087
497.348
497.614
497.885
498.16
498.438
498.721
499.007
499.296
499.588
499.882
500.178
500.476
500.776
501.076
501.378
501.679
501.981
502.283
502.584
502.884
503.183
503.481
503.776
504.07
504.361
504.649
504.934
505.216
505.495
505.769
506.04
506.307
506.569
506.827
507.08
507.328
507.571
507.81
508.043
508.27
508.493
508.709
508.92
509.126
509.326
509.52
509.709
509.892
510.069
510.24
510.406
510.566
510.721
510.87
511.014
511.149
511.289
511.371
492.946
492.943
492.938
492.933
492.929
492.926
492.924
492.922
492.921
492.919
492.917
492.916
492.914
492.912
492.91
492.907
492.904
492.9
492.896
492.892
492.886
492.881
492.874
492.867
492.859
492.85
492.841
492.83
492.819
492.807
492.795
492.781
492.767
492.752
492.736
492.72
492.702
492.684
492.665
492.646
492.625
492.604
492.583
492.561
492.538
492.514
492.49
492.466
492.441
492.415
492.389
492.363
492.336
492.31
492.282
492.255
492.228
492.2
492.173
492.146
492.119
492.093
492.067
492.041
492.016
491.992
491.969
491.947
491.926
491.907
491.889
491.873
491.858
491.846
491.836
491.829
491.824
491.822
491.823
491.828
491.835
491.847
491.862
491.882
491.906
491.934
491.967
492.005
492.048
492.096
492.15
492.209
492.274
492.346
492.423
492.507
492.597
492.694
492.797
492.907
493.024
493.148
493.279
493.417
493.562
493.714
493.874
494.04
494.214
494.394
494.582
494.776
494.977
495.185
495.399
495.62
495.848
496.081
496.32
496.565
496.816
497.072
497.333
497.599
497.869
498.143
498.422
498.704
498.99
499.279
499.57
499.864
500.16
500.458
500.758
501.058
501.359
501.661
501.963
502.264
502.565
502.865
503.164
503.461
503.757
504.05
504.341
504.629
504.914
505.196
505.475
505.749
506.02
506.287
506.549
506.807
507.06
507.308
507.552
507.79
508.023
508.251
508.473
508.69
508.901
509.107
509.307
509.502
509.69
509.873
510.05
510.222
510.387
510.547
510.702
510.85
510.993
511.126
511.264
511.338
492.95
492.946
492.94
492.935
492.931
492.928
492.925
492.923
492.921
492.919
492.917
492.915
492.913
492.911
492.908
492.905
492.901
492.897
492.893
492.887
492.882
492.875
492.868
492.861
492.852
492.843
492.833
492.823
492.812
492.799
492.787
492.773
492.759
492.743
492.728
492.711
492.693
492.675
492.657
492.637
492.617
492.596
492.574
492.552
492.529
492.506
492.482
492.457
492.432
492.407
492.381
492.354
492.328
492.301
492.274
492.246
492.219
492.191
492.164
492.137
492.11
492.083
492.057
492.031
492.006
491.982
491.958
491.936
491.915
491.896
491.877
491.861
491.847
491.834
491.824
491.817
491.812
491.81
491.811
491.815
491.823
491.834
491.85
491.869
491.893
491.921
491.954
491.992
492.035
492.084
492.137
492.197
492.262
492.334
492.411
492.495
492.585
492.682
492.785
492.896
493.013
493.137
493.268
493.406
493.551
493.703
493.862
494.029
494.202
494.383
494.57
494.765
494.966
495.174
495.388
495.609
495.836
496.07
496.309
496.554
496.804
497.06
497.321
497.587
497.857
498.131
498.41
498.692
498.977
499.266
499.557
499.851
500.147
500.445
500.744
501.044
501.345
501.647
501.948
502.25
502.55
502.85
503.149
503.446
503.741
504.035
504.325
504.613
504.899
505.18
505.459
505.734
506.004
506.271
506.533
506.791
507.044
507.292
507.536
507.774
508.007
508.235
508.457
508.674
508.886
509.091
509.292
509.486
509.675
509.858
510.035
510.206
510.372
510.532
510.685
510.833
510.974
511.106
511.242
511.309
492.951
492.948
492.942
492.936
492.932
492.928
492.925
492.922
492.92
492.918
492.916
492.913
492.911
492.908
492.905
492.902
492.898
492.893
492.888
492.883
492.877
492.87
492.863
492.855
492.846
492.837
492.827
492.816
492.804
492.792
492.779
492.765
492.751
492.736
492.72
492.703
492.686
492.667
492.648
492.629
492.609
492.588
492.566
492.544
492.521
492.497
492.473
492.449
492.424
492.398
492.372
492.346
492.319
492.292
492.265
492.237
492.209
492.182
492.154
492.127
492.1
492.073
492.046
492.02
491.995
491.971
491.947
491.925
491.903
491.884
491.866
491.849
491.835
491.822
491.812
491.804
491.799
491.797
491.798
491.803
491.811
491.822
491.837
491.857
491.881
491.909
491.942
491.98
492.024
492.072
492.126
492.186
492.251
492.323
492.401
492.485
492.575
492.672
492.776
492.886
493.003
493.128
493.259
493.397
493.542
493.695
493.854
494.021
494.194
494.375
494.562
494.757
494.958
495.166
495.381
495.601
495.829
496.062
496.301
496.546
496.796
497.052
497.313
497.578
497.849
498.123
498.401
498.683
498.969
499.257
499.548
499.842
500.138
500.435
500.734
501.034
501.335
501.636
501.938
502.239
502.539
502.839
503.138
503.435
503.73
504.023
504.313
504.601
504.886
505.168
505.446
505.721
505.992
506.258
506.52
506.778
507.031
507.28
507.523
507.761
507.994
508.222
508.445
508.661
508.873
509.079
509.279
509.473
509.662
509.845
510.022
510.193
510.359
510.518
510.671
510.818
510.958
511.087
511.222
511.284
492.951
492.947
492.941
492.935
492.931
492.927
492.924
492.921
492.919
492.916
492.914
492.911
492.908
492.905
492.902
492.898
492.894
492.889
492.884
492.878
492.872
492.865
492.858
492.85
492.841
492.831
492.821
492.81
492.798
492.786
492.773
492.759
492.744
492.729
492.713
492.696
492.679
492.66
492.641
492.622
492.601
492.58
492.559
492.536
492.513
492.49
492.466
492.441
492.416
492.39
492.364
492.337
492.31
492.283
492.256
492.228
492.2
492.172
492.145
492.117
492.089
492.062
492.036
492.01
491.984
491.96
491.936
491.913
491.892
491.872
491.854
491.838
491.823
491.811
491.8
491.793
491.788
491.786
491.787
491.792
491.8
491.811
491.827
491.847
491.871
491.899
491.933
491.971
492.014
492.063
492.118
492.178
492.243
492.315
492.393
492.477
492.568
492.665
492.769
492.88
492.998
493.122
493.253
493.392
493.537
493.69
493.85
494.016
494.19
494.371
494.559
494.753
494.954
495.162
495.377
495.598
495.825
496.058
496.297
496.542
496.793
497.048
497.309
497.574
497.844
498.119
498.397
498.679
498.964
499.252
499.543
499.836
500.132
500.429
500.728
501.028
501.328
501.629
501.931
502.232
502.532
502.831
503.13
503.426
503.721
504.014
504.305
504.592
504.877
505.159
505.437
505.711
505.982
506.248
506.511
506.768
507.021
507.269
507.513
507.751
507.984
508.212
508.434
508.651
508.862
509.068
509.268
509.463
509.651
509.834
510.011
510.183
510.348
510.507
510.659
510.805
510.944
511.071
511.204
511.262
492.948
492.945
492.939
492.933
492.929
492.925
492.922
492.919
492.916
492.913
492.911
492.908
492.905
492.902
492.898
492.894
492.89
492.885
492.88
492.874
492.868
492.861
492.853
492.845
492.836
492.826
492.816
492.805
492.793
492.781
492.768
492.754
492.739
492.724
492.707
492.691
492.673
492.655
492.636
492.616
492.595
492.574
492.553
492.53
492.507
492.483
492.459
492.434
492.409
492.383
492.356
492.33
492.302
492.275
492.247
492.219
492.191
492.163
492.136
492.108
492.08
492.053
492.026
492
491.974
491.95
491.926
491.903
491.882
491.862
491.844
491.828
491.813
491.801
491.791
491.784
491.779
491.777
491.779
491.783
491.792
491.804
491.819
491.84
491.864
491.893
491.927
491.965
492.009
492.058
492.113
492.173
492.24
492.312
492.39
492.475
492.566
492.663
492.768
492.879
492.996
493.121
493.253
493.391
493.537
493.69
493.85
494.017
494.191
494.371
494.559
494.754
494.955
495.163
495.378
495.599
495.826
496.059
496.298
496.543
496.793
497.049
497.309
497.575
497.844
498.118
498.396
498.678
498.963
499.251
499.542
499.835
500.13
500.427
500.725
501.025
501.325
501.626
501.927
502.228
502.528
502.827
503.125
503.422
503.716
504.009
504.299
504.587
504.871
505.152
505.43
505.705
505.975
506.241
506.503
506.761
507.014
507.262
507.505
507.743
507.976
508.204
508.426
508.643
508.854
509.06
509.26
509.454
509.643
509.826
510.003
510.174
510.338
510.497
510.649
510.794
510.932
511.057
511.188
511.242
492.944
492.941
492.936
492.93
492.926
492.922
492.919
492.916
492.913
492.91
492.908
492.905
492.902
492.899
492.895
492.891
492.887
492.882
492.876
492.871
492.864
492.857
492.849
492.841
492.832
492.822
492.812
492.801
492.789
492.777
492.764
492.75
492.735
492.72
492.703
492.686
492.669
492.65
492.631
492.611
492.591
492.57
492.548
492.525
492.502
492.478
492.453
492.428
492.403
492.377
492.35
492.323
492.296
492.268
492.241
492.213
492.184
492.156
492.128
492.1
492.073
492.046
492.019
491.993
491.967
491.943
491.919
491.897
491.875
491.856
491.838
491.822
491.808
491.795
491.786
491.779
491.774
491.773
491.775
491.78
491.788
491.801
491.817
491.838
491.862
491.892
491.926
491.965
492.009
492.059
492.114
492.175
492.241
492.314
492.393
492.478
492.569
492.667
492.772
492.883
493.001
493.126
493.258
493.397
493.543
493.696
493.856
494.023
494.197
494.378
494.566
494.76
494.962
495.17
495.384
495.605
495.832
496.065
496.304
496.549
496.799
497.054
497.315
497.58
497.849
498.123
498.401
498.682
498.966
499.254
499.545
499.837
500.132
500.429
500.727
501.026
501.326
501.626
501.927
502.227
502.527
502.826
503.123
503.42
503.714
504.006
504.296
504.583
504.868
505.149
505.426
505.7
505.97
506.236
506.498
506.755
507.008
507.256
507.499
507.737
507.97
508.197
508.419
508.636
508.848
509.053
509.253
509.448
509.636
509.819
509.996
510.166
510.331
510.489
510.64
510.784
510.921
511.045
511.174
511.226
492.939
492.936
492.931
492.926
492.922
492.918
492.915
492.912
492.909
492.907
492.904
492.902
492.899
492.895
492.892
492.888
492.884
492.879
492.874
492.868
492.861
492.854
492.847
492.838
492.829
492.82
492.81
492.799
492.787
492.774
492.761
492.747
492.733
492.717
492.701
492.684
492.666
492.648
492.629
492.609
492.588
492.567
492.545
492.522
492.499
492.475
492.45
492.425
492.399
492.373
492.346
492.319
492.292
492.264
492.236
492.209
492.18
492.152
492.124
492.097
492.069
492.042
492.015
491.99
491.964
491.94
491.917
491.895
491.874
491.855
491.837
491.821
491.808
491.796
491.787
491.78
491.776
491.775
491.778
491.783
491.792
491.805
491.822
491.843
491.868
491.898
491.933
491.972
492.017
492.067
492.123
492.184
492.251
492.324
492.403
492.488
492.58
492.678
492.783
492.894
493.013
493.138
493.27
493.409
493.555
493.708
493.868
494.035
494.21
494.391
494.578
494.773
494.974
495.182
495.397
495.617
495.844
496.077
496.316
496.56
496.81
497.065
497.325
497.59
497.859
498.132
498.409
498.69
498.974
499.262
499.552
499.844
500.138
500.434
500.732
501.031
501.33
501.63
501.93
502.23
502.529
502.828
503.125
503.421
503.714
504.006
504.296
504.583
504.866
505.147
505.424
505.698
505.968
506.234
506.495
506.752
507.005
507.252
507.495
507.733
507.965
508.193
508.415
508.632
508.843
509.048
509.248
509.443
509.631
509.814
509.99
510.161
510.325
510.483
510.633
510.776
510.911
511.034
511.161
511.211
492.932
492.929
492.925
492.92
492.916
492.913
492.91
492.908
492.905
492.903
492.901
492.898
492.896
492.893
492.889
492.885
492.881
492.877
492.871
492.866
492.859
492.852
492.845
492.837
492.828
492.819
492.808
492.798
492.786
492.774
492.76
492.747
492.732
492.717
492.7
492.684
492.666
492.647
492.628
492.608
492.588
492.566
492.544
492.522
492.498
492.474
492.45
492.424
492.399
492.373
492.346
492.319
492.292
492.265
492.237
492.21
492.182
492.154
492.126
492.099
492.072
492.045
492.019
491.994
491.969
491.945
491.922
491.901
491.881
491.862
491.845
491.83
491.816
491.805
491.797
491.791
491.787
491.787
491.79
491.796
491.806
491.819
491.836
491.858
491.884
491.914
491.949
491.989
492.034
492.085
492.141
492.202
492.27
492.343
492.422
492.508
492.6
492.698
492.803
492.915
493.033
493.159
493.291
493.43
493.576
493.729
493.889
494.056
494.23
494.411
494.599
494.793
494.994
495.202
495.416
495.636
495.863
496.096
496.334
496.578
496.827
497.082
497.341
497.605
497.874
498.147
498.423
498.704
498.987
499.274
499.563
499.855
500.149
500.444
500.741
501.039
501.338
501.637
501.937
502.236
502.535
502.832
503.129
503.424
503.718
504.009
504.298
504.584
504.868
505.148
505.425
505.698
505.967
506.233
506.494
506.751
507.003
507.25
507.493
507.73
507.963
508.19
508.412
508.628
508.839
509.045
509.245
509.439
509.627
509.81
509.986
510.157
510.32
510.478
510.628
510.77
510.904
511.025
511.15
511.199
492.924
492.922
492.918
492.914
492.91
492.908
492.905
492.903
492.902
492.9
492.898
492.896
492.893
492.891
492.887
492.884
492.88
492.875
492.87
492.865
492.859
492.852
492.845
492.837
492.829
492.819
492.809
492.799
492.787
492.775
492.762
492.749
492.734
492.719
492.703
492.686
492.669
492.651
492.632
492.612
492.591
492.57
492.548
492.526
492.503
492.479
492.455
492.43
492.405
492.379
492.353
492.327
492.3
492.274
492.246
492.219
492.192
492.165
492.138
492.111
492.084
492.058
492.033
492.008
491.984
491.961
491.939
491.918
491.898
491.88
491.864
491.85
491.837
491.827
491.819
491.813
491.811
491.811
491.814
491.821
491.831
491.845
491.863
491.885
491.911
491.942
491.977
492.018
492.063
492.114
492.17
492.232
492.299
492.373
492.452
492.538
492.63
492.729
492.834
492.946
493.064
493.189
493.321
493.46
493.606
493.759
493.919
494.086
494.259
494.44
494.627
494.821
495.022
495.229
495.443
495.663
495.889
496.121
496.359
496.602
496.851
497.105
497.363
497.627
497.895
498.167
498.443
498.722
499.005
499.291
499.58
499.871
500.164
500.458
500.755
501.052
501.35
501.648
501.947
502.245
502.543
502.841
503.136
503.431
503.724
504.014
504.303
504.588
504.871
505.151
505.427
505.7
505.969
506.234
506.495
506.751
507.003
507.25
507.492
507.729
507.962
508.189
508.41
508.627
508.838
509.043
509.243
509.437
509.625
509.808
509.984
510.154
510.318
510.474
510.623
510.765
510.898
511.017
511.141
511.189
492.916
492.914
492.91
492.907
492.904
492.902
492.9
492.899
492.898
492.897
492.896
492.894
492.892
492.889
492.887
492.883
492.88
492.876
492.871
492.866
492.86
492.854
492.847
492.839
492.831
492.822
492.813
492.803
492.792
492.78
492.768
492.754
492.74
492.726
492.71
492.694
492.677
492.659
492.64
492.621
492.601
492.581
492.559
492.538
492.515
492.492
492.468
492.444
492.42
492.395
492.369
492.344
492.318
492.292
492.265
492.238
492.212
492.185
492.159
492.133
492.107
492.082
492.057
492.033
492.01
491.988
491.966
491.946
491.927
491.91
491.894
491.88
491.868
491.859
491.851
491.846
491.844
491.845
491.849
491.856
491.866
491.881
491.899
491.921
491.948
491.979
492.015