/*--------------------------------*- C++ -*----------------------------------*\
| =========                 |                                                 |
| \\      /  F ield         | OpenFOAM: The Open Source CFD Toolbox           |
|  \\    /   O peration     | Version:  2312                                  |
|   \\  /    A nd           | Website:  www.openfoam.com                      |
|    \\/     M anipulation  |                                                 |
\*---------------------------------------------------------------------------*/
FoamFile
{
    version     2.0;
    format      ascii;
    arch        "LSB;label=32;scalar=64";
    class       volVectorField;
    location    "281";
    object      U;
}
// * * * * * * * * * * * * * * * * * * * * * * * * * * * * * * * * * * * * * //

dimensions      [0 1 -1 0 0 0 0];

internalField   nonuniform List<vector> 
12225
(
(9.84026 -0.956928 0)
(9.59659 -0.890303 0)
(9.31634 -0.596465 0)
(9.01457 -0.371728 0)
(8.72553 -0.227359 0)
(8.46697 -0.139076 0)
(8.23982 -0.0853793 0)
(8.04167 -0.0524021 0)
(7.86961 -0.0319976 0)
(7.7206 -0.019161 0)
(7.59146 -0.0111311 0)
(7.47914 -0.00611542 0)
(7.38142 -0.00305222 0)
(7.29635 -0.00128915 0)
(7.22223 -0.000362084 0)
(7.16006 -0.000698499 0)
(7.10028 0.00246313 0)
(7.07193 -0.0180477 0)
(10.0713 0.254377 0)
(10.1823 0.418426 0)
(10.2289 0.383662 0)
(10.2294 0.310045 0)
(10.2114 0.245429 0)
(10.1794 0.19521 0)
(10.1334 0.157449 0)
(10.0758 0.129477 0)
(10.0105 0.108683 0)
(9.94088 0.0929361 0)
(9.86927 0.0807807 0)
(9.79745 0.0711825 0)
(9.7265 0.0634018 0)
(9.65756 0.0569623 0)
(9.59102 0.0512223 0)
(9.52785 0.0466432 0)
(9.46853 0.0401703 0)
(9.41525 0.0403558 0)
(10.0041 0.0591977 0)
(10.0285 0.0487309 0)
(10.0619 0.0103602 0)
(10.0897 0.000321749 0)
(10.1152 0.00844602 0)
(10.1377 0.0196579 0)
(10.1547 0.0292086 0)
(10.1657 0.0366587 0)
(10.1715 0.0421911 0)
(10.173 0.0460286 0)
(10.1711 0.048471 0)
(10.1663 0.049824 0)
(10.1591 0.0503215 0)
(10.1502 0.0501136 0)
(10.1401 0.049239 0)
(10.1291 0.0476975 0)
(10.1183 0.0452276 0)
(10.1062 0.0404729 0)
(9.99764 0.010938 0)
(10.0088 0.025799 0)
(10.0342 0.0385847 0)
(10.0554 0.0535948 0)
(10.0721 0.065078 0)
(10.0875 0.0704003 0)
(10.1015 0.0715373 0)
(10.1134 0.0707672 0)
(10.1236 0.0691752 0)
(10.1326 0.0671944 0)
(10.1404 0.0650151 0)
(10.1473 0.062763 0)
(10.1532 0.0604591 0)
(10.1585 0.0580835 0)
(10.1631 0.0555013 0)
(10.1674 0.0525742 0)
(10.1713 0.0488248 0)
(10.1742 0.043155 0)
(9.99927 0.0074094 0)
(10.0087 0.0338051 0)
(10.0279 0.0483745 0)
(10.0436 0.054946 0)
(10.0558 0.05841 0)
(10.0678 0.0595927 0)
(10.0793 0.0593607 0)
(10.0897 0.058615 0)
(10.0991 0.0577179 0)
(10.1077 0.0567073 0)
(10.1157 0.0555714 0)
(10.1232 0.0543063 0)
(10.1302 0.0528893 0)
(10.1369 0.0512642 0)
(10.1434 0.049314 0)
(10.1495 0.0468819 0)
(10.1553 0.0436515 0)
(10.1605 0.0393161 0)
(10.0003 0.00955549 0)
(10.0085 0.0330148 0)
(10.0235 0.0439941 0)
(10.0369 0.0483791 0)
(10.0477 0.0518649 0)
(10.0585 0.0542734 0)
(10.069 0.0553106 0)
(10.0785 0.0554755 0)
(10.0871 0.0551631 0)
(10.0951 0.0545062 0)
(10.1026 0.0535576 0)
(10.1097 0.0523604 0)
(10.1165 0.0509264 0)
(10.1231 0.0492264 0)
(10.1294 0.0471769 0)
(10.1354 0.0446594 0)
(10.1411 0.0415094 0)
(10.1462 0.0376034 0)
(10.0004 0.00934715 0)
(10.0074 0.0285639 0)
(10.02 0.038806 0)
(10.0322 0.0439773 0)
(10.0425 0.0481112 0)
(10.0525 0.0509284 0)
(10.0622 0.052182 0)
(10.0711 0.052421 0)
(10.0793 0.0521117 0)
(10.0868 0.0514302 0)
(10.094 0.0504463 0)
(10.1008 0.0492053 0)
(10.1073 0.0477236 0)
(10.1136 0.0459754 0)
(10.1196 0.0438985 0)
(10.1253 0.0414068 0)
(10.1306 0.0384131 0)
(10.1354 0.0348774 0)
(10.0004 0.00828764 0)
(10.0063 0.024673 0)
(10.0171 0.0348195 0)
(10.0283 0.04048 0)
(10.0381 0.0445837 0)
(10.0475 0.0473105 0)
(10.0566 0.0485991 0)
(10.0652 0.0489204 0)
(10.073 0.0486895 0)
(10.0804 0.048074 0)
(10.0873 0.0471423 0)
(10.0939 0.045937 0)
(10.1002 0.044477 0)
(10.1062 0.0427452 0)
(10.1119 0.0407014 0)
(10.1173 0.0382925 0)
(10.1223 0.0354823 0)
(10.1267 0.0322871 0)
(10.0004 0.00729528 0)
(10.0053 0.021563 0)
(10.0146 0.031235 0)
(10.0248 0.0369133 0)
(10.034 0.0408256 0)
(10.0429 0.0434634 0)
(10.0516 0.044835 0)
(10.0598 0.0452816 0)
(10.0675 0.0451527 0)
(10.0746 0.0446143 0)
(10.0814 0.0437399 0)
(10.0878 0.0425746 0)
(10.0939 0.0411433 0)
(10.0997 0.0394416 0)
(10.1052 0.0374503 0)
(10.1103 0.035145 0)
(10.115 0.0325228 0)
(10.1192 0.0296296 0)
(10.0004 0.00642316 0)
(10.0046 0.0188209 0)
(10.0125 0.0277386 0)
(10.0216 0.0332689 0)
(10.0303 0.0370216 0)
(10.0387 0.0395802 0)
(10.0469 0.0410027 0)
(10.0548 0.0415385 0)
(10.0622 0.0414846 0)
(10.0692 0.0410067 0)
(10.0758 0.0401829 0)
(10.082 0.039061 0)
(10.088 0.0376707 0)
(10.0936 0.0360199 0)
(10.0989 0.0341063 0)
(10.1038 0.0319279 0)
(10.1083 0.0295008 0)
(10.1123 0.0268838 0)
(10.0004 0.00561589 0)
(10.0039 0.0163274 0)
(10.0107 0.0243933 0)
(10.0189 0.0296729 0)
(10.0269 0.0332491 0)
(10.0348 0.0356875 0)
(10.0426 0.0370991 0)
(10.0501 0.0376788 0)
(10.0573 0.0376743 0)
(10.064 0.0372435 0)
(10.0704 0.0364669 0)
(10.0765 0.0353935 0)
(10.0823 0.0340571 0)
(10.0877 0.0324755 0)
(10.0928 0.0306596 0)
(10.0975 0.0286227 0)
(10.1018 0.0263912 0)
(10.1057 0.0240281 0)
(10.0003 0.00490157 0)
(10.0034 0.0142142 0)
(10.0093 0.0214751 0)
(10.0167 0.0264343 0)
(10.0242 0.0298073 0)
(10.0316 0.0320998 0)
(10.039 0.0334591 0)
(10.0461 0.0340465 0)
(10.053 0.0340679 0)
(10.0595 0.0336694 0)
(10.0657 0.0329313 0)
(10.0716 0.031904 0)
(10.0772 0.0306243 0)
(10.0825 0.0291173 0)
(10.0874 0.0274026 0)
(10.0919 0.0255025 0)
(10.0961 0.0234476 0)
(10.0999 0.0213006 0)
(10.0003 0.00423692 0)
(10.003 0.0122844 0)
(10.0082 0.0187187 0)
(10.0148 0.0232739 0)
(10.0217 0.0264049 0)
(10.0287 0.0285282 0)
(10.0357 0.029805 0)
(10.0425 0.0303743 0)
(10.0491 0.0304056 0)
(10.0554 0.03003 0)
(10.0614 0.0293263 0)
(10.0671 0.0283458 0)
(10.0724 0.0271273 0)
(10.0775 0.0257009 0)
(10.0823 0.0240922 0)
(10.0866 0.022329 0)
(10.0907 0.0204425 0)
(10.0943 0.0184946 0)
(10.0003 0.00354489 0)
(10.0026 0.0102682 0)
(10.0071 0.0157578 0)
(10.0129 0.0197722 0)
(10.0193 0.0225683 0)
(10.0258 0.0244585 0)
(10.0323 0.0256003 0)
(10.0387 0.0261134 0)
(10.045 0.026132 0)
(10.051 0.0257683 0)
(10.0567 0.025097 0)
(10.0622 0.0241689 0)
(10.0674 0.0230238 0)
(10.0723 0.0216945 0)
(10.0768 0.0202104 0)
(10.081 0.0186019 0)
(10.0849 0.0168992 0)
(10.0884 0.01516 0)
(10.0002 0.00282204 0)
(10.0022 0.00816569 0)
(10.0061 0.0126037 0)
(10.0112 0.0159373 0)
(10.0169 0.0182869 0)
(10.0229 0.0198643 0)
(10.029 0.0208062 0)
(10.035 0.0212126 0)
(10.0409 0.0211858 0)
(10.0466 0.0208168 0)
(10.0521 0.0201723 0)
(10.0573 0.0193003 0)
(10.0622 0.0182394 0)
(10.0669 0.0170227 0)
(10.0712 0.0156803 0)
(10.0752 0.0142423 0)
(10.0789 0.0127357 0)
(10.0824 0.0112122 0)
(10.0002 0.0020687 0)
(10.0019 0.0059818 0)
(10.0052 0.00926793 0)
(10.0097 0.0117782 0)
(10.0148 0.0135533 0)
(10.0203 0.014721 0)
(10.0258 0.0153838 0)
(10.0314 0.0156198 0)
(10.037 0.0155032 0)
(10.0424 0.0151024 0)
(10.0475 0.0144724 0)
(10.0525 0.0136549 0)
(10.0572 0.0126845 0)
(10.0616 0.0115914 0)
(10.0657 0.0104033 0)
(10.0696 0.00914684 0)
(10.0732 0.00784421 0)
(10.0765 0.00653989 0)
(10.0002 0.00128327 0)
(10.0016 0.00370495 0)
(10.0045 0.00573703 0)
(10.0084 0.00728201 0)
(10.013 0.00834425 0)
(10.018 0.00898969 0)
(10.0231 0.00928197 0)
(10.0283 0.00927308 0)
(10.0335 0.00901161 0)
(10.0386 0.00854338 0)
(10.0435 0.00790749 0)
(10.0482 0.00713582 0)
(10.0526 0.00625529 0)
(10.0568 0.00528995 0)
(10.0608 0.00426169 0)
(10.0645 0.00319139 0)
(10.0679 0.00209515 0)
(10.0712 0.00100913 0)
(10.0002 0.000450245 0)
(10.0014 0.00128431 0)
(10.004 0.00193917 0)
(10.0075 0.0023687 0)
(10.0117 0.00256874 0)
(10.0163 0.00256359 0)
(10.0211 0.00237916 0)
(10.026 0.00203911 0)
(10.0309 0.00156692 0)
(10.0357 0.000985327 0)
(10.0404 0.000314516 0)
(10.0448 -0.000428042 0)
(10.0491 -0.0012267 0)
(10.0531 -0.00206693 0)
(10.0569 -0.0029352 0)
(10.0605 -0.00381837 0)
(10.0639 -0.00470716 0)
(10.067 -0.0055743 0)
(10.0001 -0.000473471 0)
(10.0014 -0.00140348 0)
(10.0038 -0.00230302 0)
(10.0072 -0.00316211 0)
(10.0112 -0.00397862 0)
(10.0156 -0.00476284 0)
(10.0202 -0.00552885 0)
(10.025 -0.00628416 0)
(10.0297 -0.00703137 0)
(10.0343 -0.00777242 0)
(10.0389 -0.00850917 0)
(10.0432 -0.00924226 0)
(10.0473 -0.00997092 0)
(10.0513 -0.0106933 0)
(10.055 -0.0114068 0)
(10.0585 -0.012108 0)
(10.0618 -0.0127953 0)
(10.0649 -0.0134516 0)
(10.0002 -0.00134814 0)
(10.0014 -0.00395805 0)
(10.004 -0.00634827 0)
(10.0075 -0.0084355 0)
(10.0117 -0.0102074 0)
(10.0163 -0.0117183 0)
(10.021 -0.013024 0)
(10.0259 -0.0141591 0)
(10.0307 -0.0151516 0)
(10.0354 -0.0160307 0)
(10.0399 -0.0168216 0)
(10.0443 -0.0175424 0)
(10.0484 -0.018206 0)
(10.0524 -0.0188224 0)
(10.0561 -0.019399 0)
(10.0596 -0.0199407 0)
(10.0629 -0.0204523 0)
(10.066 -0.0209249 0)
(10.0002 -0.00208965 0)
(10.0016 -0.00615868 0)
(10.0044 -0.0098486 0)
(10.0083 -0.0129421 0)
(10.0129 -0.0154443 0)
(10.0177 -0.017505 0)
(10.0227 -0.0192219 0)
(10.0278 -0.0206347 0)
(10.0328 -0.0217883 0)
(10.0376 -0.0227404 0)
(10.0423 -0.02354 0)
(10.0467 -0.0242218 0)
(10.051 -0.0248109 0)
(10.055 -0.0253273 0)
(10.0588 -0.0257865 0)
(10.0623 -0.0261992 0)
(10.0656 -0.0265747 0)
(10.0688 -0.0269099 0)
(10.0002 -0.00277567 0)
(10.0017 -0.00829833 0)
(10.0049 -0.0133157 0)
(10.0094 -0.0173242 0)
(10.0145 -0.0204002 0)
(10.0198 -0.0228745 0)
(10.0251 -0.0248996 0)
(10.0305 -0.0265154 0)
(10.0357 -0.0277824 0)
(10.0408 -0.0287789 0)
(10.0456 -0.0295671 0)
(10.0502 -0.030192 0)
(10.0546 -0.03069 0)
(10.0586 -0.0310918 0)
(10.0625 -0.0314207 0)
(10.0661 -0.0316937 0)
(10.0695 -0.0319236 0)
(10.0726 -0.0321102 0)
(10.0001 -0.00338823 0)
(10.0017 -0.010413 0)
(10.0055 -0.0167629 0)
(10.0109 -0.0215992 0)
(10.0166 -0.0252206 0)
(10.0223 -0.0280786 0)
(10.028 -0.0303003 0)
(10.0337 -0.0319697 0)
(10.0393 -0.0332307 0)
(10.0445 -0.0342012 0)
(10.0496 -0.0349467 0)
(10.0543 -0.0355113 0)
(10.0588 -0.0359357 0)
(10.063 -0.0362551 0)
(10.0669 -0.0364961 0)
(10.0706 -0.0366773 0)
(10.074 -0.0368135 0)
(10.0772 -0.0369107 0)
(10.0001 -0.00388713 0)
(10.0017 -0.0128952 0)
(10.0061 -0.0202956 0)
(10.0124 -0.0253556 0)
(10.0188 -0.0294168 0)
(10.025 -0.0328811 0)
(10.0312 -0.0354815 0)
(10.0373 -0.0372483 0)
(10.0431 -0.0384471 0)
(10.0486 -0.039279 0)
(10.0538 -0.0398419 0)
(10.0587 -0.040201 0)
(10.0633 -0.0404151 0)
(10.0676 -0.040532 0)
(10.0716 -0.0405843 0)
(10.0754 -0.0405938 0)
(10.0789 -0.0405738 0)
(10.0821 -0.0405215 0)
(9.99983 -0.00358671 0)
(10.0013 -0.016491 0)
(10.007 -0.0254713 0)
(10.0141 -0.0296576 0)
(10.0207 -0.0329909 0)
(10.0273 -0.0364502 0)
(10.0342 -0.0393838 0)
(10.0409 -0.0415604 0)
(10.0473 -0.04314 0)
(10.0532 -0.04427 0)
(10.0588 -0.0450308 0)
(10.064 -0.0454973 0)
(10.0689 -0.0457462 0)
(10.0734 -0.0458424 0)
(10.0776 -0.0458332 0)
(10.0815 -0.0457522 0)
(10.0852 -0.045625 0)
(10.0886 -0.045462 0)
(9.99835 -7.73025e-05 0)
(9.99822 -0.017449 0)
(10.0068 -0.0314595 0)
(10.0162 -0.0375699 0)
(10.0234 -0.0402772 0)
(10.0303 -0.0418313 0)
(10.0379 -0.0427869 0)
(10.0455 -0.0434801 0)
(10.0527 -0.0440778 0)
(10.0594 -0.0445883 0)
(10.0657 -0.0449786 0)
(10.0716 -0.0452603 0)
(10.0771 -0.0454556 0)
(10.0821 -0.0455924 0)
(10.0868 -0.045685 0)
(10.0911 -0.0457498 0)
(10.0951 -0.0457918 0)
(10.0988 -0.0457794 0)
(9.99422 0.00249355 0)
(9.9901 -0.00742841 0)
(10.0032 -0.0229257 0)
(10.0185 -0.0397291 0)
(10.0302 -0.0531072 0)
(10.0404 -0.0608727 0)
(10.0501 -0.0644016 0)
(10.0593 -0.0656435 0)
(10.0678 -0.0657256 0)
(10.0756 -0.0650954 0)
(10.083 -0.0640352 0)
(10.0897 -0.0627348 0)
(10.0959 -0.0613571 0)
(10.1016 -0.0599825 0)
(10.1067 -0.058676 0)
(10.1114 -0.0574669 0)
(10.1157 -0.056381 0)
(10.1196 -0.0553708 0)
(9.99443 -0.0305958 0)
(9.99463 -0.0135125 0)
(10.0087 0.0213847 0)
(10.0272 0.0319182 0)
(10.047 0.0240547 0)
(10.0668 0.0115315 0)
(10.085 -0.000172815 0)
(10.1007 -0.0103772 0)
(10.114 -0.0190072 0)
(10.1251 -0.0260715 0)
(10.1344 -0.0316645 0)
(10.1418 -0.036029 0)
(10.1476 -0.0393961 0)
(10.152 -0.0419832 0)
(10.155 -0.0439535 0)
(10.1569 -0.0454764 0)
(10.1579 -0.0466811 0)
(10.1579 -0.0477129 0)
(10.0367 -0.208939 0)
(10.107 -0.36601 0)
(10.1425 -0.352639 0)
(10.1567 -0.297972 0)
(10.1697 -0.247577 0)
(10.182 -0.206751 0)
(10.1884 -0.174318 0)
(10.1867 -0.148955 0)
(10.1774 -0.129238 0)
(10.1619 -0.113715 0)
(10.1414 -0.101318 0)
(10.1169 -0.0912885 0)
(10.0894 -0.083095 0)
(10.0598 -0.0763319 0)
(10.0288 -0.0707184 0)
(9.99693 -0.0660747 0)
(9.96473 -0.0622507 0)
(9.93285 -0.0595479 0)
(9.92843 0.765812 0)
(9.84047 0.742588 0)
(9.705 0.524938 0)
(9.52633 0.349226 0)
(9.3318 0.228041 0)
(9.1406 0.147288 0)
(8.9588 0.0938348 0)
(8.78891 0.0582018 0)
(8.63232 0.0343039 0)
(8.48967 0.0182596 0)
(8.36032 0.0075723 0)
(8.24346 0.000575457 0)
(8.13792 -0.00398797 0)
(8.04264 -0.00685452 0)
(7.9565 -0.00854318 0)
(7.87853 -0.0094901 0)
(7.80737 -0.00997947 0)
(7.74265 -0.0105978 0)
(0.00232232 -0.00411878 5.9069e-17)
(0.0104989 -0.0113917 -5.20466e-17)
(0.0217417 -0.0160501 0)
(0.0340567 -0.0174796 0)
(0.0452843 -0.0163582 0)
(0.0544673 -0.0137392 2.93245e-17)
(0.0612653 -0.0104696 0)
(0.0656279 -0.00707238 0)
(0.0677042 -0.00383958 0)
(0.067586 -0.000972927 0)
(0.065601 0.00136189 -2.6336e-17)
(0.0621779 0.0031189 0)
(0.0576122 0.00439072 0)
(0.0521244 0.00533801 0)
(0.0458494 0.00612689 0)
(0.0388314 0.00689749 -2.89107e-17)
(0.0310449 0.00775384 0)
(0.0224221 0.00875792 0)
(0.0128658 0.00990372 0)
(0.00225015 0.0110751 0)
(-0.00954552 0.012108 0)
(-0.0226923 0.0130512 0)
(-0.0373593 0.0140612 0)
(-0.0536886 0.015217 -2.38094e-17)
(-0.0718247 0.0165512 2.15999e-17)
(-0.0919003 0.0180767 -1.96016e-17)
(-0.114025 0.0197906 -1.77991e-17)
(-0.13828 0.0216702 0)
(-0.164708 0.0236669 0)
(-0.193298 0.0257038 1.34287e-17)
(-0.223976 0.0277005 1.22771e-17)
(-0.25664 0.0296055 0)
(-0.291146 0.031377 0)
(-0.327329 0.0329789 9.55673e-18)
(-0.365004 0.0343816 0)
(-0.403973 0.0355659 0)
(-0.444035 0.0365228 -7.67274e-18)
(-0.484985 0.0372523 0)
(-0.526632 0.0377624 -6.74311e-18)
(-0.568798 0.0380671 -1.27047e-17)
(-0.611319 0.0381843 0)
(-0.654051 0.0381341 0)
(-0.696864 0.0379382 0)
(-0.739653 0.0376203 0)
(-0.78234 0.0372086 0)
(-0.824866 0.0367379 -9.41592e-18)
(-0.867173 0.036249 -9.03074e-18)
(-0.909202 0.0357788 -8.67615e-18)
(-0.951024 0.0353389 0)
(-0.99265 0.0349175 8.04783e-18)
(-1.03408 0.0345116 0)
(-1.07534 0.0341192 -7.50907e-18)
(-1.11641 0.0337389 -7.26734e-18)
(-1.15732 0.0333693 0)
(-1.19807 0.0330093 0)
(-1.23866 0.032657 0)
(-1.27909 0.0323107 -6.4453e-18)
(-1.31937 0.0319684 0)
(-1.35948 0.031628 0)
(-1.39943 0.0312871 0)
(-1.4392 0.0309435 0)
(-1.47878 0.030595 0)
(-1.51816 0.0302393 0)
(-1.55733 0.0298743 0)
(-1.59626 0.029498 0)
(-1.63492 0.0291085 5.16429e-18)
(-1.67331 0.0287041 0)
(-1.71138 0.0282832 0)
(-1.74912 0.0278445 -4.85337e-18)
(-1.78648 0.0273866 -4.7594e-18)
(-1.82344 0.0269085 0)
(-1.85996 0.0264093 4.58451e-18)
(-1.896 0.0258883 -4.50316e-18)
(-1.93153 0.0253447 0)
(-1.96651 0.0247783 4.3517e-18)
(-2.00089 0.0241886 0)
(-2.03464 0.0235758 0)
(-2.0677 0.0229396 -4.15028e-18)
(-2.10005 0.0222804 0)
(-2.13164 0.0215981 4.03161e-18)
(-2.16241 0.0208933 0)
(-2.19234 0.0201661 -3.92436e-18)
(-2.22136 0.0194172 -3.87477e-18)
(-2.24945 0.018647 -3.82776e-18)
(-2.27656 0.0178561 -7.56648e-18)
(-2.30264 0.0170451 7.48227e-18)
(-2.32764 0.0162147 0)
(-2.35154 0.0153649 0)
(-2.37428 0.0144961 0)
(-2.39581 0.0136079 7.19127e-18)
(-2.41611 0.0126994 7.1294e-18)
(-2.43513 0.0117691 -7.0717e-18)
(-2.45282 0.0108144 0)
(-2.46914 0.00983124 6.96852e-18)
(-2.48403 0.00881366 6.92295e-18)
(-2.49745 0.00775357 6.88138e-18)
(-2.50934 0.0066408 0)
(-2.51961 0.00546508 0)
(-2.5282 0.00422446 0)
(-2.53503 0.00294425 6.756e-18)
(-2.53999 0.00169214 0)
(-2.54295 0.00055511 0)
(-2.54402 -0.000426803 -6.70368e-18)
(-2.54358 -0.00131978 0)
(-2.54157 -0.00219309 0)
(-2.53802 -0.0030569 -6.67953e-18)
(-2.53292 -0.00391632 0)
(-2.52627 -0.00477193 0)
(-2.51804 -0.00562335 6.68527e-18)
(-2.50824 -0.00647024 6.69386e-18)
(-2.49685 -0.0073116 0)
(-2.48388 -0.00814701 -6.72125e-18)
(-2.46931 -0.00897537 0)
(-2.45315 -0.00979631 6.76257e-18)
(-2.4354 -0.0106087 0)
(-2.41606 -0.0114124 6.81827e-18)
(-2.39513 -0.0122061 6.85169e-18)
(-2.37262 -0.0129898 0)
(-2.34854 -0.0137623 0)
(-2.3229 -0.0145237 0)
(-2.29571 -0.0152729 0)
(-2.26699 -0.0160098 0)
(-2.23675 -0.0167332 0)
(-2.20501 -0.0174427 0)
(-2.17179 -0.0181372 7.26537e-18)
(-2.13711 -0.018817 -7.33726e-18)
(-2.10099 -0.0194812 0)
(-2.06347 -0.0201302 0)
(-2.02456 -0.0207637 0)
(-1.9843 -0.0213823 0)
(-1.94273 -0.0219862 -1.55514e-17)
(-1.89986 -0.0225754 0)
(-1.85573 -0.0231477 1.59842e-17)
(-1.81037 -0.0237038 -1.62202e-17)
(-1.76383 -0.0242428 0)
(-1.71615 -0.0247657 0)
(-1.66736 -0.0252751 0)
(-1.6175 -0.0257684 1.73144e-17)
(-1.56662 -0.0262439 1.76287e-17)
(-1.51476 -0.0267035 0)
(-1.46196 -0.0271464 1.83132e-17)
(-1.40829 -0.0275733 1.86855e-17)
(-1.35377 -0.0279844 -1.90794e-17)
(-1.29846 -0.0283798 0)
(-1.24241 -0.02876 0)
(-1.18567 -0.0291252 -2.04053e-17)
(-1.12828 -0.0294761 0)
(-1.07029 -0.0298129 0)
(-1.01175 -0.0301365 0)
(-0.952709 -0.0304474 0)
(-0.893215 -0.0307464 2.32014e-17)
(-0.833315 -0.0310343 2.38689e-17)
(-0.773053 -0.0313122 0)
(-0.712475 -0.0315809 2.53359e-17)
(-0.651625 -0.0318417 0)
(-0.590545 -0.0320956 0)
(-0.529276 -0.0323442 2.79258e-17)
(-0.467856 -0.0325887 0)
(-0.406324 -0.0328302 2.99708e-17)
(-0.344716 -0.0330692 0)
(-0.283069 -0.0333067 0)
(-0.221419 -0.0335456 3.3654e-17)
(-0.159797 -0.033806 0)
(-0.0982365 -0.0340875 3.6634e-17)
(-0.0368124 -0.03431 0)
(0.0244648 -0.0339798 0)
(0.0856005 -0.0330794 0)
(0.146547 -0.0321328 -3.51601e-17)
(0.207257 -0.0312372 0)
(0.267713 -0.0303888 3.24142e-17)
(0.327907 -0.0295756 0)
(0.387816 -0.0287822 0)
(0.447386 -0.0279878 0)
(0.506494 -0.0271605 0)
(0.564958 -0.0262429 0)
(0.622203 -0.0251255 0)
(0.677954 -0.0235504 0)
(0.727654 -0.0208812 -5.05661e-17)
(0.776767 -0.0158132 0)
(0.776253 0.000853611 0)
(0.00528108 -0.0224122 -1.4436e-16)
(0.0164964 -0.0360208 9.02603e-17)
(0.0251779 -0.037083 0)
(0.031197 -0.0331882 -2.85777e-17)
(0.0349567 -0.0271009 0)
(0.036654 -0.0200964 -1.09742e-17)
(0.0365212 -0.0129392 2.0728e-17)
(0.0347426 -0.0060931 2.00728e-17)
(0.0314412 0.000177127 0)
(0.0267549 0.00570313 1.94333e-17)
(0.020694 0.0103967 9.67722e-18)
(0.0132234 0.0142993 0)
(0.00433433 0.0175715 0)
(-0.00598682 0.0204257 0)
(-0.0177611 0.0230837 0)
(-0.0310215 0.025738 8.83768e-18)
(-0.045821 0.0285297 0)
(-0.062238 0.0315464 -1.6353e-17)
(-0.080378 0.0348285 0)
(-0.10034 0.0383888 0)
(-0.122176 0.0422217 1.44891e-17)
(-0.145918 0.0463212 0)
(-0.171619 0.050688 -1.33266e-17)
(-0.199318 0.0552977 6.37762e-18)
(-0.229001 0.0600896 -6.09509e-18)
(-0.260605 0.0649725 5.81674e-18)
(-0.294023 0.0698356 5.54378e-18)
(-0.329103 0.0745642 0)
(-0.365655 0.0790594 0)
(-0.403473 0.0832449 -4.7682e-18)
(-0.442361 0.0870449 4.53174e-18)
(-0.482126 0.0903899 0)
(-0.522569 0.0932396 0)
(-0.563499 0.0955781 -3.9079e-18)
(-0.60474 0.0974052 0)
(-0.64613 0.0987235 0)
(-0.687531 0.0995581 3.4067e-18)
(-0.728827 0.0999527 0)
(-0.769928 0.0999572 -3.13209e-18)
(-0.810767 0.0996243 6.01978e-18)
(-0.851294 0.0990074 0)
(-0.891481 0.0981582 0)
(-0.931311 0.0971251 1.0781e-17)
(-0.970784 0.0959523 1.04204e-17)
(-1.00991 0.0946804 1.00849e-17)
(-1.04871 0.0933501 -4.88626e-18)
(-1.08719 0.0920045 4.73993e-18)
(-1.12539 0.0906832 1.38093e-17)
(-1.16329 0.0894049 -8.94872e-18)
(-1.2009 0.0881678 -4.35288e-18)
(-1.23823 0.0869678 0)
(-1.2753 0.0858015 4.12993e-18)
(-1.3121 0.0846651 -4.0275e-18)
(-1.34864 0.0835543 0)
(-1.38492 0.0824647 0)
(-1.42096 0.0813914 0)
(-1.45674 0.0803297 3.66457e-18)
(-1.49227 0.0792743 0)
(-1.52753 0.0782202 -7.01514e-18)
(-1.56253 0.0771622 0)
(-1.59724 0.0760954 -6.72744e-18)
(-1.63165 0.0750149 0)
(-1.66576 0.0739161 6.46312e-18)
(-1.69953 0.0727948 0)
(-1.73295 0.0716469 -6.2196e-18)
(-1.766 0.0704688 3.05261e-18)
(-1.79866 0.0692574 0)
(-1.83089 0.0680097 5.88873e-18)
(-1.86268 0.0667233 2.89324e-18)
(-1.894 0.0653959 2.84418e-18)
(-1.92481 0.0640259 0)
(-1.95508 0.0626118 2.75174e-18)
(-1.98479 0.0611526 2.70774e-18)
(-2.0139 0.0596474 0)
(-2.04238 0.058096 -2.62505e-18)
(-2.07019 0.0564981 5.17224e-18)
(-2.09731 0.054854 0)
(-2.12369 0.0531643 2.51227e-18)
(-2.1493 0.0514296 0)
(-2.17411 0.0496506 -7.33218e-18)
(-2.19808 0.0478288 0)
(-2.22118 0.0459653 7.14277e-18)
(-2.24338 0.0440615 2.35113e-18)
(-2.26463 0.0421188 -2.32272e-18)
(-2.2849 0.0401391 -4.59057e-18)
(-2.30416 0.0381241 4.53792e-18)
(-2.32237 0.0360759 0)
(-2.33951 0.0339959 0)
(-2.35553 0.0318861 0)
(-2.37041 0.0297477 -1.30446e-17)
(-2.38411 0.0275818 -4.30575e-18)
(-2.3966 0.0253893 4.26524e-18)
(-2.40786 0.0231709 0)
(-2.41785 0.0209268 4.18982e-18)
(-2.42656 0.0186565 -4.15463e-18)
(-2.43396 0.0163593 -4.12128e-18)
(-2.44004 0.014033 0)
(-2.4448 0.0116728 0)
(-2.44826 0.00927143 0)
(-2.45045 0.00683289 -4.00513e-18)
(-2.45145 0.00439621 0)
(-2.45138 0.00204024 7.91097e-18)
(-2.4502 -0.000176786 1.17958e-17)
(-2.44759 -0.00229764 -7.81971e-18)
(-2.4435 -0.00438163 0)
(-2.43791 -0.00643975 -3.87016e-18)
(-2.43079 -0.00847761 0)
(-2.42214 -0.0104954 -7.67296e-18)
(-2.41195 -0.0124917 3.82158e-18)
(-2.40019 -0.0144649 3.8082e-18)
(-2.38688 -0.0164126 0)
(-2.372 -0.018333 1.13575e-17)
(-2.35554 -0.0202238 -7.55308e-18)
(-2.33752 -0.0220831 -3.76886e-18)
(-2.31792 -0.0239088 0)
(-2.29675 -0.0256992 -3.7571e-18)
(-2.27402 -0.0274521 -1.12591e-17)
(-2.24972 -0.029166 0)
(-2.22388 -0.030839 -7.49812e-18)
(-2.1965 -0.03247 -7.49815e-18)
(-2.16759 -0.0340573 -7.50077e-18)
(-2.13716 -0.0355996 0)
(-2.10523 -0.0370947 0)
(-2.07183 -0.0385412 0)
(-2.03696 -0.039937 3.76821e-18)
(-2.00065 -0.0412813 3.77672e-18)
(-1.96292 -0.0425723 0)
(-1.9238 -0.04381 7.59162e-18)
(-1.88331 -0.0449933 7.61497e-18)
(-1.84149 -0.0461226 0)
(-1.79837 -0.0471977 7.67028e-18)
(-1.75397 -0.0482192 1.54012e-17)
(-1.70833 -0.049187 -7.73514e-18)
(-1.66148 -0.0501023 -7.76939e-18)
(-1.61346 -0.0509589 0)
(-1.56431 -0.0517523 0)
(-1.51406 -0.0524895 0)
(-1.46277 -0.0531749 -7.94496e-18)
(-1.41046 -0.0538042 7.99295e-18)
(-1.35719 -0.054375 1.60936e-17)
(-1.303 -0.0548887 -8.10348e-18)
(-1.24794 -0.0553464 8.15987e-18)
(-1.19206 -0.0557488 8.22329e-18)
(-1.13539 -0.0560968 0)
(-1.07799 -0.0563915 0)
(-1.01991 -0.0566341 -8.42229e-18)
(-0.9612 -0.0568258 0)
(-0.901902 -0.0569681 0)
(-0.842067 -0.0570625 1.73015e-17)
(-0.781744 -0.0571108 0)
(-0.72098 -0.0571148 8.81599e-18)
(-0.659823 -0.0570768 -8.90597e-18)
(-0.598318 -0.0569987 0)
(-0.536512 -0.056883 9.08808e-18)
(-0.474447 -0.056732 0)
(-0.412167 -0.0565483 0)
(-0.349712 -0.0563344 -9.38989e-18)
(-0.287121 -0.0560927 1.89893e-17)
(-0.224432 -0.0558254 -9.60488e-18)
(-0.161681 -0.0555338 0)
(-0.0989021 -0.0552183 0)
(-0.0361322 -0.0548809 9.94834e-18)
(0.0266153 -0.0545222 0)
(0.0893159 -0.054142 9.81925e-18)
(0.151964 -0.0537325 0)
(0.214515 -0.0531404 0)
(0.276855 -0.0523309 0)
(0.338976 -0.0514709 9.40537e-18)
(0.400909 -0.0506244 0)
(0.462642 -0.0497965 -9.24118e-18)
(0.524156 -0.0489756 0)
(0.585417 -0.0481408 0)
(0.646362 -0.0472585 1.80309e-17)
(0.70687 -0.0462727 -1.78928e-17)
(0.766753 -0.0450767 0)
(0.825538 -0.0434702 0)
(0.882855 -0.0409578 0)
(0.935924 -0.0366032 5.24296e-17)
(0.987825 -0.0274198 0)
(1.01706 -0.00507059 -3.55596e-17)
(0.00487956 -0.0438401 -3.46724e-22)
(0.0118106 -0.0536917 -9.27599e-17)
(0.0148146 -0.0466068 0)
(0.0152047 -0.0365088 4.02572e-17)
(0.013651 -0.025932 0)
(0.0104514 -0.0155015 0)
(0.00584734 -0.00551141 3.19491e-23)
(-3.16141e-05 0.00385012 -1.28394e-17)
(-0.00714069 0.0124732 -1.223e-17)
(-0.0154958 0.0203261 -1.17454e-17)
(-0.0251481 0.0274362 0)
(-0.0361731 0.0338841 0)
(-0.0486536 0.0398074 1.07096e-17)
(-0.0626673 0.0453871 2.08072e-17)
(-0.078279 0.0508176 -2.01997e-17)
(-0.0955389 0.056277 0)
(-0.114486 0.0619057 -1.89947e-17)
(-0.13515 0.0677964 9.20129e-18)
(-0.157552 0.0739937 0)
(-0.181701 0.080503 -1.72515e-17)
(-0.207577 0.08731 -8.34174e-18)
(-0.235113 0.0943676 1.61136e-17)
(-0.264218 0.10159 7.77035e-18)
(-0.294765 0.108868 0)
(-0.326599 0.116074 -1.43975e-17)
(-0.35954 0.123066 -1.38337e-17)
(-0.393397 0.129705 0)
(-0.427981 0.135863 -1.27444e-17)
(-0.46311 0.141429 0)
(-0.49862 0.146323 -1.1738e-17)
(-0.53436 0.150495 -5.63449e-18)
(-0.570191 0.153916 0)
(-0.606007 0.156578 0)
(-0.641721 0.158493 0)
(-0.677257 0.159699 0)
(-0.712568 0.160257 0)
(-0.747634 0.160233 0)
(-0.782451 0.1597 -8.595e-18)
(-0.817019 0.158736 1.24458e-17)
(-0.851349 0.157415 0)
(-0.885454 0.155811 0)
(-0.919352 0.153991 0)
(-0.95306 0.152014 8.29674e-23)
(-0.986599 0.149935 -7.06461e-18)
(-1.01999 0.147798 -1.37215e-17)
(-1.05324 0.145643 1.3337e-17)
(-1.08636 0.143503 6.48693e-18)
(-1.11937 0.141401 -6.31492e-18)
(-1.15224 0.139349 -1.23068e-22)
(-1.18499 0.13735 -5.9972e-18)
(-1.2176 0.135404 0)
(-1.25009 0.133505 -5.70963e-18)
(-1.28244 0.131648 -1.43187e-22)
(-1.31465 0.129827 0)
(-1.34673 0.128035 0)
(-1.37866 0.126263 5.20863e-18)
(-1.41043 0.124505 0)
(-1.44205 0.122752 0)
(-1.47349 0.120995 -4.8855e-18)
(-1.50475 0.119229 -9.57186e-18)
(-1.53581 0.117444 4.69013e-18)
(-1.56665 0.115635 0)
(-1.59726 0.113795 -4.50932e-18)
(-1.62762 0.111917 0)
(-1.65771 0.109996 -4.34163e-18)
(-1.6875 0.108027 -4.26172e-18)
(-1.71697 0.106006 8.37012e-18)
(-1.7461 0.103928 4.11104e-18)
(-1.77486 0.101791 0)
(-1.80322 0.0995906 -7.94008e-18)
(-1.83115 0.0973259 0)
(-1.85862 0.0949947 -1.15155e-17)
(-1.88561 0.0925957 -7.55221e-18)
(-1.91207 0.0901281 -7.4315e-18)
(-1.93799 0.0875917 7.31483e-18)
(-1.96331 0.0849865 -1.0803e-17)
(-1.98802 0.0823131 0)
(-2.01207 0.0795725 0)
(-2.03544 0.0767659 6.88601e-18)
(-2.05808 0.0738949 1.01814e-17)
(-2.07996 0.0709614 0)
(-2.10104 0.0679675 -3.3004e-18)
(-2.1213 0.0649156 0)
(-2.1407 0.0618082 9.6403e-18)
(-2.15919 0.0586482 -1.70952e-22)
(-2.17675 0.0554384 1.5852e-22)
(-2.19335 0.0521818 -6.18799e-18)
(-2.20894 0.0488816 0)
(-2.2235 0.0455406 6.04257e-18)
(-2.237 0.0421618 -1.04921e-22)
(-2.2494 0.038748 0)
(-2.26067 0.0353022 0)
(-2.2708 0.0318275 0)
(-2.27975 0.0283274 -5.72344e-18)
(-2.2875 0.0248059 0)
(-2.29404 0.0212684 0)
(-2.29935 0.0177221 0)
(-2.30343 0.0141775 0)
(-2.30628 0.0106493 0)
(-2.30789 0.00715829 -5.41767e-18)
(-2.30825 0.00372487 0)
(-2.30733 0.000349208 -5.32745e-18)
(-2.30506 -0.00299658 -5.28476e-18)
(-2.30138 -0.00632583 5.244e-18)
(-2.29627 -0.00963031 0)
(-2.2897 -0.0129065 5.16816e-18)
(-2.28166 -0.0161521 0)
(-2.27213 -0.0193639 5.09964e-18)
(-2.2611 -0.0225386 -5.06804e-18)
(-2.24855 -0.0256728 -1.51141e-17)
(-2.23449 -0.0287629 0)
(-2.21891 -0.0318053 -1.49499e-17)
(-2.2018 -0.0347967 -4.95804e-18)
(-2.18317 -0.0377337 0)
(-2.16301 -0.040613 -9.82665e-18)
(-2.14132 -0.0434316 -9.78634e-18)
(-2.11811 -0.0461864 1.4624e-17)
(-2.09338 -0.0488745 0)
(-2.06715 -0.0514933 4.84217e-18)
(-2.03942 -0.0540403 4.82801e-18)
(-2.0102 -0.0565133 1.44451e-17)
(-1.97951 -0.0589096 0)
(-1.94736 -0.0612266 0)
(-1.91377 -0.0634614 0)
(-1.87875 -0.0656115 4.7775e-18)
(-1.84233 -0.0676749 0)
(-1.80453 -0.0696497 0)
(-1.76537 -0.0715344 -4.76499e-18)
(-1.72488 -0.0733279 -4.76312e-18)
(-1.6831 -0.0750297 0)
(-1.64004 -0.0766401 0)
(-1.59574 -0.0781596 -9.53015e-18)
(-1.55023 -0.0795886 0)
(-1.50354 -0.0809265 9.54434e-18)
(-1.45572 -0.0821682 9.55437e-18)
(-1.40679 -0.0833093 0)
(-1.35679 -0.084355 0)
(-1.30577 -0.0853091 -9.60342e-18)
(-1.25377 -0.0861688 -1.24543e-21)
(-1.20082 -0.0869318 -1.26214e-21)
(-1.14698 -0.0875991 0)
(-1.0923 -0.0881721 -1.94017e-17)
(-1.0368 -0.0886521 0)
(-0.980552 -0.0890406 0)
(-0.923591 -0.0893393 0)
(-0.865967 -0.0895499 9.83443e-18)
(-0.807727 -0.0896746 0)
(-0.74892 -0.0897156 -1.98248e-17)
(-0.689593 -0.0896752 -9.95657e-18)
(-0.629794 -0.0895564 0)
(-0.56957 -0.0893621 -1.00482e-17)
(-0.508968 -0.0890954 0)
(-0.448032 -0.0887598 0)
(-0.386808 -0.088359 -3.05979e-17)
(-0.325337 -0.0878962 2.05064e-17)
(-0.263663 -0.0873757 0)
(-0.201825 -0.086801 2.07346e-17)
(-0.139862 -0.0861755 -1.04283e-17)
(-0.0778082 -0.0855026 0)
(-0.0156983 -0.0847868 0)
(0.0464395 -0.0840328 0)
(0.108572 -0.0832437 -3.12821e-17)
(0.170668 -0.0824144 0)
(0.232697 -0.0815464 -1.02842e-17)
(0.294648 -0.0806462 0)
(0.356516 -0.0797088 0)
(0.418267 -0.078728 0)
(0.479885 -0.0777229 0)
(0.541362 -0.0767176 0)
(0.602672 -0.0757119 0)
(0.663788 -0.0746909 -1.98875e-17)
(0.724669 -0.0736264 0)
(0.785253 -0.0724706 -9.87254e-18)
(0.845424 -0.0711413 2.95145e-17)
(0.90501 -0.069487 0)
(0.963624 -0.0672226 0)
(1.021 -0.0637472 -1.95187e-17)
(1.07527 -0.0578865 -1.95089e-17)
(1.12946 -0.0469267 1.95707e-17)
(1.17125 -0.0237998 1.98348e-17)
(0.00221577 -0.0563286 2.19073e-16)
(0.00320716 -0.057362 1.16326e-16)
(0.000881002 -0.0444 4.53087e-17)
(-0.00324206 -0.0303644 1.61361e-17)
(-0.00875979 -0.0167423 0)
(-0.0154745 -0.00374262 -2.26846e-17)
(-0.0232796 0.00858154 1.02783e-17)
(-0.0321463 0.0201957 0)
(-0.0421008 0.0310894 9.05931e-18)
(-0.0532007 0.0412856 0)
(-0.0655231 0.0508451 -1.68061e-17)
(-0.0791532 0.0598669 0)
(-0.0941741 0.0684852 -7.92518e-18)
(-0.110655 0.0768556 -1.5411e-17)
(-0.128644 0.0851346 1.49778e-17)
(-0.148162 0.0934578 0)
(-0.169203 0.101924 1.41141e-17)
(-0.191737 0.110583 0)
(-0.215706 0.119441 0)
(-0.241031 0.128453 1.28272e-17)
(-0.267604 0.137539 0)
(-0.295293 0.146592 7.5895e-23)
(-0.323943 0.155484 0)
(-0.353387 0.164079 0)
(-0.383454 0.172237 -4.60977e-23)
(-0.413975 0.179826 1.03346e-17)
(-0.444796 0.186733 9.9466e-18)
(-0.475783 0.192868 9.57166e-18)
(-0.50682 0.198172 0)
(-0.537816 0.202607 1.7732e-17)
(-0.568698 0.206161 0)
(-0.599414 0.208845 8.22025e-18)
(-0.629933 0.210693 0)
(-0.660243 0.211756 0)
(-0.690349 0.2121 -7.36566e-18)
(-0.720272 0.21181 0)
(-0.750032 0.210975 6.87487e-18)
(-0.779654 0.209676 2.28975e-23)
(-0.809162 0.207996 -1.28772e-17)
(-0.838583 0.206008 1.24778e-17)
(-0.867939 0.203783 0)
(-0.897249 0.201384 0)
(-0.926531 0.198863 5.70419e-18)
(-0.955796 0.19627 0)
(-0.985054 0.193642 5.39364e-18)
(-1.01431 0.191011 -5.25007e-18)
(-1.04356 0.188401 -5.11345e-18)