# Value averages  
# Time            	momentum_x        	momentum_y        	momentum_z        
0.005	9.2017425914e-10	7.1668852967e-13	0.0000000000e+00
0.01	1.2786846798e-09	4.9956220207e-12	0.0000000000e+00
0.015	1.6006568602e-09	8.2591206097e-12	0.0000000000e+00
0.02	1.9056425442e-09	7.7982758038e-12	0.0000000000e+00
0.025	2.2008274843e-09	1.5782985335e-11	0.0000000000e+00
0.03	2.4902423612e-09	3.7991537855e-11	0.0000000000e+00
0.035	2.7752216434e-09	6.9157667150e-11	0.0000000000e+00
0.04	3.0569404391e-09	1.1510181166e-10	0.0000000000e+00
0.045	3.3364616389e-09	1.8453949842e-10	0.0000000000e+00
0.05	3.6143939825e-09	2.7375928021e-10	0.0000000000e+00
0.055	3.8908928584e-09	3.8194070112e-10	0.0000000000e+00
0.06	4.1659093389e-09	5.1364028963e-10	0.0000000000e+00
0.065	4.4400528931e-09	6.7491374447e-10	0.0000000000e+00
0.07	4.7169253059e-09	8.6978881593e-10	0.0000000000e+00
0.075	5.0035470707e-09	1.1034712967e-09	0.0000000000e+00
0.08	5.3078855062e-09	1.3795020270e-09	0.0000000000e+00
0.085	5.6371326963e-09	1.7000766443e-09	0.0000000000e+00
0.09	5.9967465287e-09	2.0665487506e-09	0.0000000000e+00
0.095	6.3887612025e-09	2.4786571403e-09	0.0000000000e+00
0.1	6.8128033967e-09	2.9378264486e-09	0.0000000000e+00
0.105	7.2662216120e-09	3.4382711080e-09	0.0000000000e+00
0.11	7.7427176757e-09	3.9738317015e-09	0.0000000000e+00
0.115	8.2349979022e-09	4.5372714515e-09	0.0000000000e+00
0.12	8.7355379647e-09	5.1212451707e-09	0.0000000000e+00
0.125	9.2370327381e-09	5.7180805787e-09	0.0000000000e+00
0.13	9.7344165313e-09	6.3207619630e-09	0.0000000000e+00
0.135	1.0224750634e-08	6.9247327617e-09	0.0000000000e+00
0.14	1.0706751453e-08	7.5243669044e-09	0.0000000000e+00
0.145	1.1179892242e-08	8.1152117990e-09	0.0000000000e+00
0.15	1.1644456802e-08	8.6938567138e-09	0.0000000000e+00
0.155	1.2101050007e-08	9.2579582929e-09	0.0000000000e+00
0.16	1.2550185293e-08	9.8062640921e-09	0.0000000000e+00
0.165	1.2992216621e-08	1.0338475337e-08	0.0000000000e+00
0.17	1.3427639698e-08	1.0854884270e-08	0.0000000000e+00
0.175	1.3854227198e-08	1.1356007673e-08	0.0000000000e+00
0.18	1.4270117748e-08	1.1842950235e-08	0.0000000000e+00
0.185	1.4673031050e-08	1.2315877130e-08	0.0000000000e+00
0.19	1.5067301393e-08	1.2775356879e-08	0.0000000000e+00
0.195	1.5453260867e-08	1.3222047598e-08	0.0000000000e+00
0.2	1.5831629301e-08	1.3656221371e-08	0.0000000000e+00
0.205	1.6208120109e-08	1.4078120808e-08	0.0000000000e+00
0.21	1.6576468401e-08	1.4487864114e-08	0.0000000000e+00
0.215	1.6934296318e-08	1.4885843766e-08	0.0000000000e+00
0.22	1.7281609244e-08	1.5272723556e-08	0.0000000000e+00
0.225	1.7618791833e-08	1.5649210879e-08	0.0000000000e+00
0.23	1.7946294060e-08	1.6015286415e-08	0.0000000000e+00
0.235	1.8256801203e-08	1.6370870687e-08	0.0000000000e+00
0.24	1.8553634717e-08	1.6716498794e-08	0.0000000000e+00
0.245	1.8838455708e-08	1.7052633698e-08	0.0000000000e+00
0.25	1.9112186387e-08	1.7379689716e-08	0.0000000000e+00
0.255	1.9375465837e-08	1.7697341686e-08	0.0000000000e+00
0.26	1.9628499370e-08	1.8003399523e-08	0.0000000000e+00
0.265	1.9870891795e-08	1.8296134381e-08	0.0000000000e+00
0.27	2.0102059363e-08	1.8575204332e-08	0.0000000000e+00
0.275	2.0326564374e-08	1.8842202726e-08	0.0000000000e+00
0.28	2.0548074166e-08	1.9099418854e-08	0.0000000000e+00
0.285	2.0767632760e-08	1.9347582381e-08	0.0000000000e+00
0.29	2.0986028973e-08	1.9587873571e-08	0.0000000000e+00
0.295	2.1203703244e-08	1.9820152693e-08	0.0000000000e+00
0.3	2.1420791106e-08	2.0045086486e-08	0.0000000000e+00
0.305	2.1637455956e-08	2.0262607678e-08	0.0000000000e+00
0.31	2.1855773992e-08	2.0473731614e-08	0.0000000000e+00
0.315	2.2076233451e-08	2.0679231204e-08	0.0000000000e+00
0.32	2.2297791685e-08	2.0881097607e-08	0.0000000000e+00
0.325	2.2520146855e-08	2.1080058436e-08	0.0000000000e+00
0.33	2.2742713494e-08	2.1276439009e-08	0.0000000000e+00
0.335	2.2964362329e-08	2.1470312848e-08	0.0000000000e+00
0.34	2.3184883579e-08	2.1662831961e-08	0.0000000000e+00
0.345	2.3403773720e-08	2.1853982233e-08	0.0000000000e+00
0.35	2.3620641844e-08	2.2043571356e-08	0.0000000000e+00
0.355	2.3835471527e-08	2.2230906740e-08	0.0000000000e+00
0.36	2.4047683387e-08	2.2414910752e-08	0.0000000000e+00
0.365	2.4257152841e-08	2.2596393872e-08	0.0000000000e+00
0.37	2.4463909893e-08	2.2775437675e-08	0.0000000000e+00
0.375	2.4668013816e-08	2.2952189816e-08	0.0000000000e+00
0.38	2.4869852737e-08	2.3127636872e-08	0.0000000000e+00
0.385	2.5069724038e-08	2.3301724072e-08	0.0000000000e+00
0.39	2.5268551365e-08	2.3474475629e-08	0.0000000000e+00
0.395	2.5466000477e-08	2.3645940714e-08	0.0000000000e+00
0.4	2.5661467706e-08	2.3816217470e-08	0.0000000000e+00
0.405	2.5851578683e-08	2.3985339132e-08	0.0000000000e+00
0.41	2.6035173755e-08	2.4153225207e-08	0.0000000000e+00
0.415	2.6212812271e-08	2.4320037665e-08	0.0000000000e+00
0.42	2.6384869270e-08	2.4485808949e-08	0.0000000000e+00
0.425	2.6551166699e-08	2.4650557979e-08	0.0000000000e+00
0.43	2.6713901586e-08	2.4814447096e-08	0.0000000000e+00
0.435	2.6873370053e-08	2.4977288888e-08	0.0000000000e+00
0.44	2.7029766453e-08	2.5139003236e-08	0.0000000000e+00
0.445	2.7183221790e-08	2.5299896841e-08	0.0000000000e+00
0.45	2.7333797743e-08	2.5459631277e-08	0.0000000000e+00
0.455	2.7481754689e-08	2.5618372914e-08	0.0000000000e+00
0.46	2.7626417242e-08	2.5775920126e-08	0.0000000000e+00
0.465	2.7768734534e-08	2.5932248477e-08	0.0000000000e+00
0.47	2.7908763139e-08	2.6087184034e-08	0.0000000000e+00
0.475	2.8046485739e-08	2.6240776928e-08	0.0000000000e+00
0.48	2.8182148438e-08	2.6393541308e-08	0.0000000000e+00
0.485	2.8314784414e-08	2.6545350760e-08	0.0000000000e+00
0.49	2.8445524241e-08	2.6696220878e-08	0.0000000000e+00
0.495	2.8575881686e-08	2.6846237796e-08	0.0000000000e+00
0.5	2.8706353719e-08	2.6995391516e-08	0.0000000000e+00
0.505	2.8838069652e-08	2.7143919759e-08	0.0000000000e+00
0.51	2.8971565200e-08	2.7291683195e-08	0.0000000000e+00
0.515	2.9106787972e-08	2.7438734926e-08	0.0000000000e+00
0.52	2.9244645805e-08	2.7585011583e-08	0.0000000000e+00
0.525	2.9384683173e-08	2.7730399386e-08	0.0000000000e+00
0.53	2.9525975397e-08	2.7874852507e-08	0.0000000000e+00
0.535	2.9667225186e-08	2.8017987739e-08	0.0000000000e+00
0.54	2.9807717991e-08	2.8159626320e-08	0.0000000000e+00
0.545	2.9947653496e-08	2.8299718186e-08	0.0000000000e+00
0.55	3.0085700673e-08	2.8437989715e-08	0.0000000000e+00
0.555	3.0220198538e-08	2.8575311771e-08	0.0000000000e+00
0.56	3.0352446160e-08	2.8711795004e-08	0.0000000000e+00
0.565	3.0482643717e-08	2.8847331960e-08	0.0000000000e+00
0.57	3.0610977270e-08	2.8981973211e-08	0.0000000000e+00
0.575	3.0737506346e-08	2.9115974362e-08	0.0000000000e+00
0.58	3.0862547785e-08	2.9249436959e-08	0.0000000000e+00
0.585	3.0985585810e-08	2.9382109921e-08	0.0000000000e+00
0.59	3.1106338555e-08	2.9513889553e-08	0.0000000000e+00
0.595	3.1225658392e-08	2.9644676938e-08	0.0000000000e+00
0.6	3.1343580605e-08	2.9774330059e-08	0.0000000000e+00
0.605	3.1460362475e-08	2.9902818038e-08	0.0000000000e+00
0.61	3.1575715263e-08	3.0029832076e-08	0.0000000000e+00
0.615	3.1689709848e-08	3.0155151330e-08	0.0000000000e+00
0.62	3.1802397991e-08	3.0278623207e-08	0.0000000000e+00
0.625	3.1913757071e-08	3.0400108895e-08	0.0000000000e+00
0.63	3.2023972860e-08	3.0519583519e-08	0.0000000000e+00
0.635	3.2133365223e-08	3.0636739737e-08	0.0000000000e+00
0.64	3.2242224366e-08	3.0751515318e-08	0.0000000000e+00
0.645	3.2351039383e-08	3.0863785269e-08	0.0000000000e+00
0.65	3.2458905371e-08	3.0973426673e-08	0.0000000000e+00
0.655	3.2565635919e-08	3.1080438445e-08	0.0000000000e+00
0.66	3.2668564380e-08	3.1184821245e-08	0.0000000000e+00
0.665	3.2767972373e-08	3.1287139714e-08	0.0000000000e+00
0.67	3.2864992317e-08	3.1387856078e-08	0.0000000000e+00
0.675	3.2960053452e-08	3.1487017680e-08	0.0000000000e+00
0.68	3.3053760528e-08	3.1584831052e-08	0.0000000000e+00
0.685	3.3146050963e-08	3.1681146522e-08	0.0000000000e+00
0.69	3.3237544840e-08	3.1775856462e-08	0.0000000000e+00
0.695	3.3328423026e-08	3.1868814174e-08	0.0000000000e+00
0.7	3.3417725111e-08	3.1959773047e-08	0.0000000000e+00
0.705	3.3505608378e-08	3.2048661385e-08	0.0000000000e+00
0.71	3.3591930085e-08	3.2135213207e-08	0.0000000000e+00
0.715	3.3676816969e-08	3.2219468186e-08	0.0000000000e+00
0.72	3.3760216131e-08	3.2301588715e-08	0.0000000000e+00
0.725	3.3842233945e-08	3.2381610746e-08	0.0000000000e+00
0.73	3.3923656224e-08	3.2460567979e-08	0.0000000000e+00
0.735	3.4004291377e-08	3.2538690242e-08	0.0000000000e+00
0.74	3.4084182903e-08	3.2616261617e-08	0.0000000000e+00
0.745	3.4163351213e-08	3.2693105877e-08	0.0000000000e+00
0.75	3.4241858728e-08	3.2769124037e-08	0.0000000000e+00
0.755	3.4319913243e-08	3.2844388478e-08	0.0000000000e+00
0.76	3.4397341723e-08	3.2918742427e-08	0.0000000000e+00
0.765	3.4474115247e-08	3.2992170493e-08	0.0000000000e+00
0.77	3.4550749374e-08	3.3064676849e-08	0.0000000000e+00
0.775	3.4627252623e-08	3.3136254471e-08	0.0000000000e+00
0.78	3.4702916683e-08	3.3206999146e-08	0.0000000000e+00
0.785	3.4776481100e-08	3.3276712094e-08	0.0000000000e+00
0.79	3.4846995230e-08	3.3345584565e-08	0.0000000000e+00
0.795	3.4915811950e-08	3.3413851628e-08	0.0000000000e+00
0.8	3.4983068300e-08	3.3481648144e-08	0.0000000000e+00
0.805	3.5048804421e-08	3.3549204889e-08	0.0000000000e+00
0.81	3.5113127095e-08	3.3616454168e-08	0.0000000000e+00
0.815	3.5176283134e-08	3.3683399184e-08	0.0000000000e+00
0.82	3.5238325799e-08	3.3750023694e-08	0.0000000000e+00
0.825	3.5299285888e-08	3.3816283729e-08	0.0000000000e+00
0.83	3.5359204998e-08	3.3882258849e-08	0.0000000000e+00
0.835	3.5418006151e-08	3.3947810319e-08	0.0000000000e+00
0.84	3.5476257134e-08	3.4012899818e-08	0.0000000000e+00
0.845	3.5534084469e-08	3.4077546093e-08	0.0000000000e+00
0.85	3.5591691341e-08	3.4141739147e-08	0.0000000000e+00
0.855	3.5649022248e-08	3.4205593894e-08	0.0000000000e+00
0.86	3.5705558633e-08	3.4268960045e-08	0.0000000000e+00
0.865	3.5760913406e-08	3.4331805618e-08	0.0000000000e+00
0.87	3.5815212936e-08	3.4394119018e-08	0.0000000000e+00
0.875	3.5868876684e-08	3.4455873507e-08	0.0000000000e+00
0.88	3.5922061483e-08	3.4517163759e-08	0.0000000000e+00
0.885	3.5974696265e-08	3.4577833482e-08	0.0000000000e+00
0.89	3.6026824329e-08	3.4637890610e-08	0.0000000000e+00
0.895	3.6078491346e-08	3.4697378916e-08	0.0000000000e+00
0.9	3.6129705941e-08	3.4756282178e-08	0.0000000000e+00
0.905	3.6180637429e-08	3.4814712185e-08	0.0000000000e+00
0.91	3.6231349551e-08	3.4872532151e-08	0.0000000000e+00
0.915	3.6282187134e-08	3.4929712108e-08	0.0000000000e+00
0.92	3.6332692507e-08	3.4986231876e-08	0.0000000000e+00
0.925	3.6382175671e-08	3.5042118688e-08	0.0000000000e+00
0.93	3.6430504253e-08	3.5097512170e-08	0.0000000000e+00
0.935	3.6477581659e-08	3.5152304933e-08	0.0000000000e+00
0.94	3.6522590796e-08	3.5206464627e-08	0.0000000000e+00
0.945	3.6565788874e-08	3.5259969887e-08	0.0000000000e+00
0.95	3.6607946548e-08	3.5312791518e-08	0.0000000000e+00
0.955	3.6649216391e-08	3.5365016362e-08	0.0000000000e+00
0.96	3.6689742635e-08	3.5416493936e-08	0.0000000000e+00
0.965	3.6729662776e-08	3.5467197174e-08	0.0000000000e+00
0.97	3.6769082354e-08	3.5517176842e-08	0.0000000000e+00
0.975	3.6808041010e-08	3.5566415176e-08	0.0000000000e+00
0.98	3.6846606114e-08	3.5614561462e-08	0.0000000000e+00
0.985	3.6884729064e-08	3.5661417523e-08	0.0000000000e+00
0.99	3.6922323433e-08	3.5707052295e-08	0.0000000000e+00
0.995	3.6959736088e-08	3.5751473056e-08	0.0000000000e+00
1	3.6996950511e-08	3.5794577957e-08	0.0000000000e+00
1.005	3.7214679382e-08	3.6015961871e-08	0.0000000000e+00
1.01	3.7429067318e-08	3.6236794246e-08	0.0000000000e+00
1.015	3.7640578784e-08	3.6457502886e-08	0.0000000000e+00
1.02	3.7849295431e-08	3.6678476427e-08	0.0000000000e+00
1.025	3.8055227707e-08	3.6899748993e-08	0.0000000000e+00
1.03	3.8258605109e-08	3.7120897134e-08	0.0000000000e+00
1.035	3.8459362048e-08	3.7341811415e-08	0.0000000000e+00
1.04	3.8657531252e-08	3.7562280171e-08	0.0000000000e+00
1.045	3.8853167587e-08	3.7781643262e-08	0.0000000000e+00
1.05	3.9046303505e-08	3.7999684268e-08	0.0000000000e+00
1.055	3.9237026330e-08	3.8216221775e-08	0.0000000000e+00
1.06	3.9425131367e-08	3.8430613453e-08	0.0000000000e+00
1.065	3.9610543894e-08	3.8642070219e-08	0.0000000000e+00
1.07	3.9793188002e-08	3.8849712799e-08	0.0000000000e+00
1.075	3.9972428861e-08	3.9052628138e-08	0.0000000000e+00
1.08	4.0146834191e-08	3.9250034106e-08	0.0000000000e+00
1.085	4.0315246166e-08	3.9441005890e-08	0.0000000000e+00
1.09	4.0477105540e-08	3.9624744445e-08	0.0000000000e+00
1.095	4.0631821621e-08	3.9800614911e-08	0.0000000000e+00
1.1	4.0779307509e-08	3.9967804279e-08	0.0000000000e+00
1.105	4.0919043454e-08	4.0126311683e-08	0.0000000000e+00
1.11	4.1051172866e-08	4.0276113474e-08	0.0000000000e+00
1.115	4.1176294936e-08	4.0417511644e-08	0.0000000000e+00
1.12	4.1295122872e-08	4.0550979460e-08	0.0000000000e+00
1.125	4.1408360562e-08	4.0677170059e-08	0.0000000000e+00
1.13	4.1516337394e-08	4.0796895447e-08	0.0000000000e+00
1.135	4.1620148945e-08	4.0910585423e-08	0.0000000000e+00
1.14	4.1720239642e-08	4.1019008143e-08	0.0000000000e+00
1.145	4.1816787399e-08	4.1122915100e-08	0.0000000000e+00
1.15	4.1909855710e-08	4.1222869497e-08	0.0000000000e+00
1.155	4.1999460950e-08	4.1319496129e-08	0.0000000000e+00
1.16	4.2085623847e-08	4.1413124404e-08	0.0000000000e+00
1.165	4.2168357283e-08	4.1504028533e-08	0.0000000000e+00
1.17	4.2247632870e-08	4.1592395312e-08	0.0000000000e+00
1.175	4.2324129291e-08	4.1678374710e-08	0.0000000000e+00
1.18	4.2398351693e-08	4.1762086394e-08	0.0000000000e+00
1.185	4.2470838721e-08	4.1843652684e-08	0.0000000000e+00
1.19	4.2540966026e-08	4.1923205589e-08	0.0000000000e+00
1.195	4.2608803469e-08	4.2000647560e-08	0.0000000000e+00
1.2	4.2674320808e-08	4.2076030884e-08	0.0000000000e+00
1.205	4.2736435026e-08	4.2149545035e-08	0.0000000000e+00
1.21	4.2796407075e-08	4.2221229014e-08	0.0000000000e+00
1.215	4.2855049927e-08	4.2291113707e-08	0.0000000000e+00
1.22	4.2912522367e-08	4.2359226357e-08	0.0000000000e+00
1.225	4.2968874580e-08	4.2425496528e-08	0.0000000000e+00
1.23	4.3024192629e-08	4.2490358669e-08	0.0000000000e+00
1.235	4.3080278935e-08	4.2553859898e-08	0.0000000000e+00
1.24	4.3136580465e-08	4.2615992143e-08	0.0000000000e+00
1.245	4.3192870120e-08	4.2676771576e-08	0.0000000000e+00
1.25	4.3249097605e-08	4.2736220264e-08	0.0000000000e+00
1.255	4.3305358712e-08	4.2794628294e-08	0.0000000000e+00
1.26	4.3361788322e-08	4.2852597680e-08	0.0000000000e+00
1.265	4.3418514748e-08	4.2910710782e-08	0.0000000000e+00
1.27	4.3475577359e-08	4.2969224236e-08	0.0000000000e+00
1.275	4.3532130275e-08	4.3027885421e-08	0.0000000000e+00
1.28	4.3587213697e-08	4.3086381089e-08	0.0000000000e+00
1.285	4.3640105412e-08	4.3144541476e-08	0.0000000000e+00
1.29	4.3690604589e-08	4.3202058222e-08	0.0000000000e+00
1.295	4.3738515813e-08	4.3258917137e-08	0.0000000000e+00
1.3	4.3784321602e-08	4.3315335873e-08	0.0000000000e+00
1.305	4.3828042531e-08	4.3371541670e-08	0.0000000000e+00
1.31	4.3868969104e-08	4.3427437127e-08	0.0000000000e+00
1.315	4.3906862396e-08	4.3483150475e-08	0.0000000000e+00
1.32	4.3942023339e-08	4.3538021703e-08	0.0000000000e+00
1.325	4.3974525152e-08	4.3591770990e-08	0.0000000000e+00
1.33	4.4004538930e-08	4.3644321093e-08	0.0000000000e+00
1.335	4.4032201906e-08	4.3695632705e-08	0.0000000000e+00
1.34	4.4057810566e-08	4.3745474446e-08	0.0000000000e+00
1.345	4.4081629985e-08	4.3794093940e-08	0.0000000000e+00
1.35	4.4103841658e-08	4.3841541238e-08	0.0000000000e+00
1.355	4.4124519879e-08	4.3888128631e-08	0.0000000000e+00
1.36	4.4143841473e-08	4.3934158421e-08	0.0000000000e+00
1.365	4.4161882475e-08	4.3979338334e-08	0.0000000000e+00
1.37	4.4178689546e-08	4.4023646119e-08	0.0000000000e+00
1.375	4.4194281569e-08	4.4066974569e-08	0.0000000000e+00
1.38	4.4208537013e-08	4.4109198743e-08	0.0000000000e+00
1.385	4.4221394545e-08	4.4150255734e-08	0.0000000000e+00
1.39	4.4232696771e-08	4.4190125907e-08	0.0000000000e+00
1.395	4.4242482339e-08	4.4228800044e-08	0.0000000000e+00
1.4	4.4251059341e-08	4.4266238312e-08	0.0000000000e+00
1.405	4.4259862559e-08	4.4302521206e-08	0.0000000000e+00
1.41	4.4269387104e-08	4.4337594712e-08	0.0000000000e+00
1.415	4.4279485061e-08	4.4371365550e-08	0.0000000000e+00
1.42	4.4290100009e-08	4.4403830312e-08	0.0000000000e+00
1.425	4.4301386945e-08	4.4434980999e-08	0.0000000000e+00
1.43	4.4312487322e-08	4.4464851994e-08	0.0000000000e+00
1.435	4.4323220590e-08	4.4493442521e-08	0.0000000000e+00
1.44	4.4333737387e-08	4.4520783336e-08	0.0000000000e+00
1.445	4.4344044372e-08	4.4546810105e-08	0.0000000000e+00
1.45	4.4354177161e-08	4.4571683884e-08	0.0000000000e+00
1.455	4.4364079671e-08	4.4595546671e-08	0.0000000000e+00
1.46	4.4374064075e-08	4.4618446992e-08	0.0000000000e+00
1.465	4.4383740236e-08	4.4640394605e-08	0.0000000000e+00
1.47	4.4393113320e-08	4.4661493340e-08	0.0000000000e+00
1.475	4.4402223537e-08	4.4681734722e-08	0.0000000000e+00
1.48	4.4411000253e-08	4.4700978616e-08	0.0000000000e+00
1.485	4.4419898495e-08	4.4719206407e-08	0.0000000000e+00
1.49	4.4428413678e-08	4.4736404753e-08	0.0000000000e+00
1.495	4.4435942421e-08	4.4752545799e-08	0.0000000000e+00
1.5	4.4442251414e-08	4.4767637131e-08	0.0000000000e+00
1.505	4.4446813671e-08	4.4781653770e-08	0.0000000000e+00
1.51	4.4449382983e-08	4.4794578199e-08	0.0000000000e+00
1.515	4.4449753691e-08	4.4806365094e-08	0.0000000000e+00
1.52	4.4447207215e-08	4.4817051915e-08	0.0000000000e+00
1.525	4.4442153288e-08	4.4826695563e-08	0.0000000000e+00
1.53	4.4434968513e-08	4.4835423840e-08	0.0000000000e+00
1.535	4.4425971801e-08	4.4843370130e-08	0.0000000000e+00
1.54	4.4415465984e-08	4.4850632416e-08	0.0000000000e+00
1.545	4.4403641861e-08	4.4857262900e-08	0.0000000000e+00
1.55	4.4391628881e-08	4.4863426754e-08	0.0000000000e+00
1.555	4.4380376089e-08	4.4868752836e-08	0.0000000000e+00
1.56	4.4368958863e-08	4.4873101442e-08	0.0000000000e+00
1.565	4.4357233379e-08	4.4876525360e-08	0.0000000000e+00
1.57	4.4345075821e-08	4.4879014834e-08	0.0000000000e+00
1.575	4.4332494578e-08	4.4880425782e-08	0.0000000000e+00
1.58	4.4319360060e-08	4.4880790271e-08	0.0000000000e+00
1.585	4.4305965694e-08	4.4880162754e-08	0.0000000000e+00
1.59	4.4292504374e-08	4.4878593900e-08	0.0000000000e+00
1.595	4.4278487767e-08	4.4876087856e-08	0.0000000000e+00
1.6	4.4263942902e-08	4.4872767070e-08	0.0000000000e+00
1.605	4.4248677882e-08	4.4868802678e-08	0.0000000000e+00
1.61	4.4233020547e-08	4.4864194568e-08	0.0000000000e+00
1.615	4.4217028273e-08	4.4859103807e-08	0.0000000000e+00
1.62	4.4200676969e-08	4.4853527827e-08	0.0000000000e+00
1.625	4.4183991525e-08	4.4847439952e-08	0.0000000000e+00
1.63	4.4166888579e-08	4.4841026374e-08	0.0000000000e+00
1.635	4.4149156269e-08	4.4834336973e-08	0.0000000000e+00
1.64	4.4130615391e-08	4.4827659377e-08	0.0000000000e+00
1.645	4.4110958565e-08	4.4821303083e-08	0.0000000000e+00
1.65	4.4090772862e-08	4.4815334150e-08	0.0000000000e+00
1.655	4.4070257094e-08	4.4809983057e-08	0.0000000000e+00
1.66	4.4051178419e-08	4.4805264705e-08	0.0000000000e+00
1.665	4.4033374387e-08	4.4800848007e-08	0.0000000000e+00
1.67	4.4016187879e-08	4.4796400760e-08	0.0000000000e+00
1.675	4.3999393097e-08	4.4791830283e-08	0.0000000000e+00
1.68	4.3982589723e-08	4.4787161801e-08	0.0000000000e+00
1.685	4.3965810945e-08	4.4782525072e-08	0.0000000000e+00
1.69	4.3948644852e-08	4.4778183453e-08	0.0000000000e+00
1.695	4.3930974767e-08	4.4774227538e-08	0.0000000000e+00
1.7	4.3913493048e-08	4.4770815113e-08	0.0000000000e+00
1.705	4.3896130416e-08	4.4768079114e-08	0.0000000000e+00
1.71	4.3879024547e-08	4.4766127849e-08	0.0000000000e+00
1.715	4.3862100921e-08	4.4764932726e-08	0.0000000000e+00
1.72	4.3845419832e-08	4.4764388417e-08	0.0000000000e+00
1.725	4.3828921792e-08	4.4764468182e-08	0.0000000000e+00
1.73	4.3812054490e-08	4.4764469435e-08	0.0000000000e+00
1.735	4.3794963276e-08	4.4764153759e-08	0.0000000000e+00
1.74	4.3777601457e-08	4.4763435328e-08	0.0000000000e+00
1.745	4.3759948141e-08	4.4762494198e-08	0.0000000000e+00
1.75	4.3742130225e-08	4.4761394446e-08	0.0000000000e+00
1.755	4.3723972609e-08	4.4760163592e-08	0.0000000000e+00
1.76	4.3705546076e-08	4.4758833437e-08	0.0000000000e+00
1.765	4.3686860939e-08	4.4757398505e-08	0.0000000000e+00
1.77	4.3667533664e-08	4.4755842035e-08	0.0000000000e+00
1.775	4.3647558301e-08	4.4754164468e-08	0.0000000000e+00
1.78	4.3627503009e-08	4.4752405175e-08	0.0000000000e+00
1.785	4.3608357681e-08	4.4750660395e-08	0.0000000000e+00
1.79	4.3590899804e-08	4.4748780603e-08	0.0000000000e+00
1.795	4.3574100538e-08	4.4746601341e-08	0.0000000000e+00
1.8	4.3557870428e-08	4.4744020954e-08	0.0000000000e+00
1.805	4.3542209932e-08	4.4740941036e-08	0.0000000000e+00
1.81	4.3527024812e-08	4.4737343181e-08	0.0000000000e+00
1.815	4.3512072456e-08	4.4733224526e-08	0.0000000000e+00
1.82	4.3497329010e-08	4.4728630523e-08	0.0000000000e+00
1.825	4.3482780405e-08	4.4723562709e-08	0.0000000000e+00
1.83	4.3468400053e-08	4.4718037932e-08	0.0000000000e+00
1.835	4.3454261181e-08	4.4712094027e-08	0.0000000000e+00
1.84	4.3439993109e-08	4.4705758461e-08	0.0000000000e+00
1.845	4.3425508888e-08	4.4699028108e-08	0.0000000000e+00
1.85	4.3410641244e-08	4.4691913896e-08	0.0000000000e+00
1.855	4.3395455937e-08	4.4684398644e-08	0.0000000000e+00
1.86	4.3380388775e-08	4.4676525974e-08	0.0000000000e+00
1.865	4.3365781490e-08	4.4668395214e-08	0.0000000000e+00
1.87	4.3351543767e-08	4.4660046115e-08	0.0000000000e+00
1.875	4.3337325033e-08	4.4651587234e-08	0.0000000000e+00
1.88	4.3323013833e-08	4.4643017037e-08	0.0000000000e+00
1.885	4.3308670354e-08	4.4634400891e-08	0.0000000000e+00
1.89	4.3294261189e-08	4.4625727849e-08	0.0000000000e+00
1.895	4.3279752622e-08	4.4616963677e-08	0.0000000000e+00
1.9	4.3265146960e-08	4.4608125957e-08	0.0000000000e+00
1.905	4.3250317777e-08	4.4599203226e-08	0.0000000000e+00
1.91	4.3235204941e-08	4.4590244702e-08	0.0000000000e+00
1.915	4.3219495223e-08	4.4581277052e-08	0.0000000000e+00
1.92	4.3203611358e-08	4.4572327563e-08	0.0000000000e+00
1.925	4.3188203073e-08	4.4563379447e-08	0.0000000000e+00
1.93	4.3173429663e-08	4.4554393750e-08	0.0000000000e+00
1.935	4.3159341865e-08	4.4545397550e-08	0.0000000000e+00
1.94	4.3146737251e-08	4.4536419938e-08	0.0000000000e+00
1.945	4.3135306587e-08	4.4527494730e-08	0.0000000000e+00
1.95	4.3124380270e-08	4.4518656775e-08	0.0000000000e+00
1.955	4.3113855607e-08	4.4509918821e-08	0.0000000000e+00
1.96	4.3103570197e-08	4.4501353979e-08	0.0000000000e+00
1.965	4.3093305599e-08	4.4492996407e-08	0.0000000000e+00
1.97	4.3083025498e-08	4.4484827863e-08	0.0000000000e+00
1.975	4.3072717931e-08	4.4476893560e-08	0.0000000000e+00
1.98	4.3062258962e-08	4.4469575264e-08	0.0000000000e+00
1.985	4.3051690035e-08	4.4463042968e-08	0.0000000000e+00
1.99	4.3041095199e-08	4.4457366423e-08	0.0000000000e+00
1.995	4.3030240011e-08	4.4452349687e-08	0.0000000000e+00
2	4.3019173158e-08	4.4447946821e-08	0.0000000000e+00
2.005	4.3007846394e-08	4.4443820620e-08	0.0000000000e+00
2.01	4.2996316386e-08	4.4439943709e-08	0.0000000000e+00
2.015	4.2984666204e-08	4.4436067771e-08	0.0000000000e+00
2.02	4.2972997831e-08	4.4431865638e-08	0.0000000000e+00
2.025	4.2961403615e-08	4.4427008466e-08	0.0000000000e+00
2.03	4.2949600329e-08	4.4421641876e-08	0.0000000000e+00
2.035	4.2937659994e-08	4.4415846197e-08	0.0000000000e+00
2.04	4.2925443131e-08	4.4409425321e-08	0.0000000000e+00
2.045	4.2912903529e-08	4.4402373662e-08	0.0000000000e+00
2.05	4.2900037464e-08	4.4394756641e-08	0.0000000000e+00
2.055	4.2886854958e-08	4.4386691178e-08	0.0000000000e+00
2.06	4.2873632495e-08	4.4378339280e-08	0.0000000000e+00
2.065	4.2860435103e-08	4.4369696861e-08	0.0000000000e+00
2.07	4.2847098970e-08	4.4360877820e-08	0.0000000000e+00
2.075	4.2833691815e-08	4.4351862329e-08	0.0000000000e+00
2.08	4.2820872541e-08	4.4342601405e-08	0.0000000000e+00
2.085	4.2808918859e-08	4.4333046126e-08	0.0000000000e+00
2.09	4.2797521883e-08	4.4323229568e-08	0.0000000000e+00
2.095	4.2786627609e-08	4.4313246702e-08	0.0000000000e+00
2.1	4.2775876354e-08	4.4303060872e-08	0.0000000000e+00
2.105	4.2765599647e-08	4.4292607442e-08	0.0000000000e+00
2.11	4.2755833184e-08	4.4282005105e-08	0.0000000000e+00
2.115	4.2746475397e-08	4.4271350157e-08	0.0000000000e+00
2.12	4.2737513220e-08	4.4260647307e-08	0.0000000000e+00
2.125	4.2729056951e-08	4.4249877533e-08	0.0000000000e+00
2.13	4.2721381406e-08	4.4239010150e-08	0.0000000000e+00
2.135	4.2713778363e-08	4.4228055651e-08	0.0000000000e+00
2.14	4.2706094553e-08	4.4216995641e-08	0.0000000000e+00
2.145	4.2698365582e-08	4.4205785129e-08	0.0000000000e+00
2.15	4.2690623754e-08	4.4194501968e-08	0.0000000000e+00
2.155	4.2682896838e-08	4.4183146883e-08	0.0000000000e+00
2.16	4.2675233534e-08	4.4171769072e-08	0.0000000000e+00
2.165	4.2667681480e-08	4.4160291207e-08	0.0000000000e+00
2.17	4.2660295144e-08	4.4148730607e-08	0.0000000000e+00
2.175	4.2652888244e-08	4.4137094432e-08	0.0000000000e+00
2.18	4.2645436587e-08	4.4125375869e-08	0.0000000000e+00
2.185	4.2637980610e-08	4.4113557251e-08	0.0000000000e+00
2.19	4.2630512425e-08	4.4101563206e-08	0.0000000000e+00
2.195	4.2623029280e-08	4.4089652001e-08	0.0000000000e+00
2.2	4.2615543729e-08	4.4077979003e-08	0.0000000000e+00
2.205	4.2608089414e-08	4.4066540651e-08	0.0000000000e+00
2.21	4.2600742089e-08	4.4055301719e-08	0.0000000000e+00
2.215	4.2593302856e-08	4.4044254399e-08	0.0000000000e+00
2.22	4.2585799473e-08	4.4033381999e-08	0.0000000000e+00
2.225	4.2578263726e-08	4.4022612514e-08	0.0000000000e+00
2.23	4.2570667271e-08	4.4011803269e-08	0.0000000000e+00
2.235	4.2563070438e-08	4.4001015331e-08	0.0000000000e+00
2.24	4.2555481858e-08	4.3990265577e-08	0.0000000000e+00
2.245	4.2547941382e-08	4.3979599916e-08	0.0000000000e+00
2.25	4.2540470184e-08	4.3969004327e-08	0.0000000000e+00
2.255	4.2532935956e-08	4.3958479801e-08	0.0000000000e+00
2.26	4.2525277357e-08	4.3948074143e-08	0.0000000000e+00
2.265	4.2517615012e-08	4.3937823749e-08	0.0000000000e+00
2.27	4.2510230475e-08	4.3927778876e-08	0.0000000000e+00
2.275	4.2502887492e-08	4.3917969105e-08	0.0000000000e+00
2.28	4.2495629751e-08	4.3908335656e-08	0.0000000000e+00
2.285	4.2488923050e-08	4.3898919634e-08	0.0000000000e+00
2.29	4.2482763233e-08	4.3889811478e-08	0.0000000000e+00
2.295	4.2477233424e-08	4.3881192374e-08	0.0000000000e+00
2.3	4.2471822118e-08	4.3872767546e-08	0.0000000000e+00
2.305	4.2466474406e-08	4.3864524174e-08	0.0000000000e+00
2.31	4.2461259721e-08	4.3856284128e-08	0.0000000000e+00
2.315	4.2456231451e-08	4.3847759255e-08	0.0000000000e+00
2.32	4.2451391334e-08	4.3839063735e-08	0.0000000000e+00
2.325	4.2446746475e-08	4.3830296796e-08	0.0000000000e+00
2.33	4.2442312009e-08	4.3821554523e-08	0.0000000000e+00
2.335	4.2438317041e-08	4.3812815706e-08	0.0000000000e+00
2.34	4.2434546351e-08	4.3803945064e-08	0.0000000000e+00
2.345	4.2430928245e-08	4.3794726798e-08	0.0000000000e+00
2.35	4.2427444406e-08	4.3785201063e-08	0.0000000000e+00
2.355	4.2424067823e-08	4.3775406286e-08	0.0000000000e+00
2.36	4.2420861663e-08	4.3765391374e-08	0.0000000000e+00
2.365	4.2417829618e-08	4.3755191119e-08	0.0000000000e+00
2.37	4.2414959824e-08	4.3744843158e-08	0.0000000000e+00
2.375	4.2412254651e-08	4.3734437313e-08	0.0000000000e+00
2.38	4.2409738104e-08	4.3723842004e-08	0.0000000000e+00
2.385	4.2407394580e-08	4.3713085300e-08	0.0000000000e+00
2.39	4.2405052461e-08	4.3702186752e-08	0.0000000000e+00
2.395	4.2402839929e-08	4.3691162943e-08	0.0000000000e+00
2.4	4.2400711455e-08	4.3680034658e-08	0.0000000000e+00
2.405	4.2398583863e-08	4.3668808676e-08	0.0000000000e+00
2.41	4.2396507146e-08	4.3657516221e-08	0.0000000000e+00
2.415	4.2394491191e-08	4.3646190964e-08	0.0000000000e+00
2.42	4.2392528988e-08	4.3634846293e-08	0.0000000000e+00
2.425	4.2390627777e-08	4.3623502547e-08	0.0000000000e+00
2.43	4.2388796258e-08	4.3612150800e-08	0.0000000000e+00
2.435	4.2387142263e-08	4.3600815209e-08	0.0000000000e+00
2.44	4.2385471032e-08	4.3589501006e-08	0.0000000000e+00
2.445	4.2383766917e-08	4.3578162188e-08	0.0000000000e+00
2.45	4.2382012040e-08	4.3566802033e-08	0.0000000000e+00
2.455	4.2380193343e-08	4.3555303916e-08	0.0000000000e+00
2.46	4.2378350613e-08	4.3543653475e-08	0.0000000000e+00
2.465	4.2376475139e-08	4.3531863480e-08	0.0000000000e+00
2.47	4.2374570703e-08	4.3519944282e-08	0.0000000000e+00
2.475	4.2372642009e-08	4.3507926138e-08	0.0000000000e+00
2.48	4.2370681887e-08	4.3495884902e-08	0.0000000000e+00
2.485	4.2368736619e-08	4.3483697512e-08	0.0000000000e+00
2.49	4.2366793659e-08	4.3471263740e-08	0.0000000000e+00
2.495	4.2364737520e-08	4.3458596385e-08	0.0000000000e+00
2.5	4.2362560044e-08	4.3445712571e-08	0.0000000000e+00
2.505	-4.5785207372e-07	4.3220093000e-08	0.0000000000e+00
2.51	-9.5806688327e-07	4.2995369800e-08	0.0000000000e+00
2.515	-1.4582817606e-06	4.2770957850e-08	0.0000000000e+00
2.52	-1.9584964221e-06	4.2546713841e-08	0.0000000000e+00
2.525	-2.4587111085e-06	4.2322571321e-08	0.0000000000e+00
2.53	-2.9589257301e-06	4.2098424641e-08	0.0000000000e+00
2.535	-3.4591399330e-06	4.1874360182e-08	0.0000000000e+00
2.54	-3.9593536306e-06	4.1650383469e-08	0.0000000000e+00
2.545	-4.4595671111e-06	4.1426488019e-08	0.0000000000e+00
2.55	-4.9597807624e-06	4.1202681910e-08	0.0000000000e+00
2.555	-5.4599945842e-06	4.0978880394e-08	0.0000000000e+00
2.56	-5.9602083260e-06	4.0755177518e-08	0.0000000000e+00
2.565	-6.4604219222e-06	4.0531598625e-08	0.0000000000e+00
2.57	-6.9606353250e-06	4.0308136739e-08	0.0000000000e+00
2.575	-7.4608485493e-06	4.0084807401e-08	0.0000000000e+00
2.58	-7.9610616227e-06	3.9861532527e-08	0.0000000000e+00
2.585	-8.4612745140e-06	3.9638412667e-08	0.0000000000e+00
2.59	-8.9614872197e-06	3.9415472903e-08	0.0000000000e+00
2.595	-9.4616997254e-06	3.9192774533e-08	0.0000000000e+00
2.6	-9.9619120577e-06	3.8970291098e-08	0.0000000000e+00
2.605	-1.0462124161e-05	3.8747877308e-08	0.0000000000e+00
2.61	-1.0962336169e-05	3.8525734205e-08	0.0000000000e+00
2.615	-1.1462548161e-05	3.8303848450e-08	0.0000000000e+00
2.62	-1.1962760125e-05	3.8082333683e-08	0.0000000000e+00
2.625	-1.2462972053e-05	3.7861321808e-08	0.0000000000e+00
2.63	-1.2963183956e-05	3.7640661142e-08	0.0000000000e+00
2.635	-1.3463395810e-05	3.7420523352e-08	0.0000000000e+00
2.64	-1.3963607609e-05	3.7200690078e-08	0.0000000000e+00
2.645	-1.4463819351e-05	3.6980972962e-08	0.0000000000e+00