/*--------------------------------*- C++ -*----------------------------------*\
| =========                 |                                                 |
| \\      /  F ield         | OpenFOAM: The Open Source CFD Toolbox           |
|  \\    /   O peration     | Version:  2312                                  |
|   \\  /    A nd           | Website:  www.openfoam.com                      |
|    \\/     M anipulation  |                                                 |
\*---------------------------------------------------------------------------*/
FoamFile
{
    version     2.0;
    format      ascii;
    arch        "LSB;label=32;scalar=64";
    class       volVectorField;
    location    "7.875";
    object      diffU;
}
// * * * * * * * * * * * * * * * * * * * * * * * * * * * * * * * * * * * * * //

dimensions      [0 1 -1 0 0 0 0];

internalField   nonuniform List<vector> 
400
(
(0 0 0)
(-7.21645e-15 -2.32594e-14 0)
(-5.21805e-15 -1.90047e-14 0)
(-5.9952e-15 -2.00364e-14 0)
(-5.55112e-15 -1.99508e-14 0)
(-5.44009e-15 -1.98655e-14 0)
(-5.9952e-15 -1.97901e-14 0)
(-5.88418e-15 -1.967e-14 0)
(-6.10623e-15 -1.97156e-14 0)
(-6.32827e-15 -1.97558e-14 0)
(-6.10623e-15 -1.98019e-14 0)
(-6.32827e-15 -1.98056e-14 0)
(-6.10623e-15 -1.97886e-14 0)
(-6.21725e-15 -1.97621e-14 0)
(-6.32827e-15 -1.98098e-14 0)
(-6.32827e-15 -1.98849e-14 0)
(-6.21725e-15 -1.98328e-14 0)
(-6.43929e-15 -1.97734e-14 0)
(-6.77236e-15 -1.97785e-14 0)
(-6.55032e-15 -1.98105e-14 0)
(-1.21014e-14 -1.76537e-14 0)
(-6.21725e-15 -1.99067e-14 0)
(-7.43849e-15 -1.9876e-14 0)
(-6.99441e-15 -1.98947e-14 0)
(-6.99441e-15 -1.99387e-14 0)
(-6.99441e-15 -1.97612e-14 0)
(-7.21645e-15 -1.9602e-14 0)
(-6.99441e-15 -1.95187e-14 0)
(-6.99441e-15 -1.96046e-14 0)
(-6.99441e-15 -1.97639e-14 0)
(-6.99441e-15 -1.99093e-14 0)
(-6.99441e-15 -1.99725e-14 0)
(-6.77236e-15 -1.98323e-14 0)
(-6.77236e-15 -1.9687e-14 0)
(-6.77236e-15 -1.9775e-14 0)
(-6.55032e-15 -1.98354e-14 0)
(-6.77236e-15 -1.97885e-14 0)
(-6.55032e-15 -1.9713e-14 0)
(-6.77236e-15 -1.97925e-14 0)
(-6.77236e-15 -1.98598e-14 0)
(-4.10783e-15 -2.98979e-14 0)
(-7.88258e-15 -1.80942e-14 0)
(-7.21645e-15 -2.03912e-14 0)
(-7.43849e-15 -1.97605e-14 0)
(-7.21645e-15 -1.98136e-14 0)
(-7.43849e-15 -1.97552e-14 0)
(-7.43849e-15 -1.97461e-14 0)
(-6.99441e-15 -1.974e-14 0)
(-6.99441e-15 -1.9739e-14 0)
(-6.77236e-15 -1.98619e-14 0)
(-6.55032e-15 -1.98888e-14 0)
(-6.77236e-15 -1.98758e-14 0)
(-6.99441e-15 -1.98209e-14 0)
(-6.77236e-15 -1.9798e-14 0)
(-6.77236e-15 -1.98929e-14 0)
(-6.99441e-15 -1.98912e-14 0)
(-6.99441e-15 -1.98743e-14 0)
(-6.99441e-15 -1.98687e-14 0)
(-6.77236e-15 -1.99694e-14 0)
(-6.77236e-15 -1.99782e-14 0)
(-1.4766e-14 -2.55538e-14 0)
(-4.66294e-15 -1.90507e-14 0)
(-6.99441e-15 -2.01188e-14 0)
(-6.32827e-15 -1.98693e-14 0)
(-6.55032e-15 -1.97864e-14 0)
(-6.43929e-15 -1.98252e-14 0)
(-6.55032e-15 -1.99054e-14 0)
(-6.21725e-15 -1.98987e-14 0)
(-6.43929e-15 -1.98806e-14 0)
(-6.43929e-15 -1.99279e-14 0)
(-6.55032e-15 -1.98734e-14 0)
(-6.32827e-15 -1.97951e-14 0)
(-6.21725e-15 -1.98487e-14 0)
(-5.9952e-15 -1.99362e-14 0)
(-6.10623e-15 -1.98613e-14 0)
(-6.10623e-15 -1.97897e-14 0)
(-6.43929e-15 -1.9816e-14 0)
(-6.10623e-15 -1.98984e-14 0)
(-6.21725e-15 -1.99686e-14 0)
(-6.32827e-15 -1.99788e-14 0)
(6.43929e-15 -7.64932e-15 0)
(-8.10463e-15 -2.22079e-14 0)
(-5.10703e-15 -1.92393e-14 0)
(-6.32827e-15 -1.98696e-14 0)
(-5.9952e-15 -1.96459e-14 0)
(-6.10623e-15 -1.97239e-14 0)
(-6.43929e-15 -1.97969e-14 0)
(-6.43929e-15 -1.98825e-14 0)
(-6.43929e-15 -1.9869e-14 0)
(-6.55032e-15 -1.98527e-14 0)
(-6.43929e-15 -1.98489e-14 0)
(-6.32827e-15 -1.98325e-14 0)
(-6.55032e-15 -1.98035e-14 0)
(-6.32827e-15 -1.97974e-14 0)
(-6.55032e-15 -1.96914e-14 0)
(-6.77236e-15 -1.97271e-14 0)
(-6.32827e-15 -1.98133e-14 0)
(-6.55032e-15 -1.98398e-14 0)
(-6.43929e-15 -1.98352e-14 0)
(-6.55032e-15 -1.98641e-14 0)
(-1.72085e-14 -3.19932e-14 0)
(-5.44009e-15 -1.7367e-14 0)
(-7.88258e-15 -2.03313e-14 0)
(-6.55032e-15 -1.9639e-14 0)
(-6.55032e-15 -1.97929e-14 0)
(-6.77236e-15 -1.97184e-14 0)
(-6.55032e-15 -1.97433e-14 0)
(-6.55032e-15 -1.97607e-14 0)
(-6.99441e-15 -1.97931e-14 0)
(-6.77236e-15 -1.98125e-14 0)
(-6.99441e-15 -1.98099e-14 0)
(-7.21645e-15 -1.98477e-14 0)
(-6.99441e-15 -1.98699e-14 0)
(-7.21645e-15 -1.98507e-14 0)
(-6.77236e-15 -1.98528e-14 0)
(-6.55032e-15 -1.99274e-14 0)
(-6.55032e-15 -1.99436e-14 0)
(-6.77236e-15 -1.98724e-14 0)
(-6.43929e-15 -1.97822e-14 0)
(-6.43929e-15 -1.97498e-14 0)
(3.55271e-15 -2.1297e-14 0)
(-8.10463e-15 -1.96535e-14 0)
(-5.55112e-15 -2.00493e-14 0)
(-6.77236e-15 -1.9832e-14 0)
(-6.32827e-15 -1.98198e-14 0)
(-6.55032e-15 -1.97478e-14 0)
(-6.43929e-15 -1.97605e-14 0)
(-6.21725e-15 -1.96212e-14 0)
(-6.10623e-15 -1.96541e-14 0)
(-6.21725e-15 -1.97852e-14 0)
(-6.32827e-15 -1.98528e-14 0)
(-6.21725e-15 -1.98448e-14 0)
(-6.10623e-15 -1.98363e-14 0)
(-6.32827e-15 -1.99104e-14 0)
(-6.21725e-15 -1.99227e-14 0)
(-6.10623e-15 -1.9827e-14 0)
(-6.32827e-15 -1.97978e-14 0)
(-6.43929e-15 -1.97661e-14 0)
(-6.55032e-15 -1.97706e-14 0)
(-6.55032e-15 -1.97591e-14 0)
(-1.56541e-14 8.0238e-15 0)
(-5.21805e-15 -2.54025e-14 0)
(-7.88258e-15 -1.85549e-14 0)
(-6.99441e-15 -1.99804e-14 0)
(-7.21645e-15 -1.97544e-14 0)
(-7.21645e-15 -1.98708e-14 0)
(-7.21645e-15 -1.98368e-14 0)
(-7.43849e-15 -1.97911e-14 0)
(-7.21645e-15 -1.9811e-14 0)
(-7.21645e-15 -1.98479e-14 0)
(-7.21645e-15 -1.98783e-14 0)
(-6.99441e-15 -1.97909e-14 0)
(-6.99441e-15 -1.9776e-14 0)
(-6.77236e-15 -1.99073e-14 0)
(-6.99441e-15 -1.99619e-14 0)
(-6.77236e-15 -1.97943e-14 0)
(-6.77236e-15 -1.97223e-14 0)
(-6.77236e-15 -1.97692e-14 0)
(-6.55032e-15 -1.98591e-14 0)
(-6.55032e-15 -1.98477e-14 0)
(-6.66134e-16 -4.93594e-14 0)
(-7.21645e-15 -1.38751e-14 0)
(-5.9952e-15 -2.1185e-14 0)
(-5.9952e-15 -1.95636e-14 0)
(-5.9952e-15 -1.98423e-14 0)
(-6.21725e-15 -1.97545e-14 0)
(-6.21725e-15 -1.96582e-14 0)
(-6.21725e-15 -1.98186e-14 0)
(-6.43929e-15 -1.9909e-14 0)
(-6.43929e-15 -1.98871e-14 0)
(-6.55032e-15 -1.98575e-14 0)
(-6.77236e-15 -1.98951e-14 0)
(-6.77236e-15 -1.99517e-14 0)
(-6.55032e-15 -1.99013e-14 0)
(-6.77236e-15 -1.99144e-14 0)
(-7.21645e-15 -1.9947e-14 0)
(-6.77236e-15 -1.99409e-14 0)
(-6.55032e-15 -1.99452e-14 0)
(-6.55032e-15 -1.99051e-14 0)
(-6.32827e-15 -1.9847e-14 0)
(-9.21485e-15 -2.16453e-14 0)
(-5.88418e-15 -1.95818e-14 0)
(-6.32827e-15 -2.00499e-14 0)
(-6.55032e-15 -1.9805e-14 0)
(-6.32827e-15 -1.96204e-14 0)
(-6.21725e-15 -1.96028e-14 0)
(-6.43929e-15 -1.96683e-14 0)
(-6.32827e-15 -1.97188e-14 0)
(-6.10623e-15 -1.96423e-14 0)
(-6.21725e-15 -1.96683e-14 0)
(-6.32827e-15 -1.97208e-14 0)
(-6.10623e-15 -1.98446e-14 0)
(-6.21725e-15 -1.99114e-14 0)
(-6.43929e-15 -1.98244e-14 0)
(-6.55032e-15 -1.98262e-14 0)
(-6.32827e-15 -1.99985e-14 0)
(-6.32827e-15 -2.00123e-14 0)
(-6.43929e-15 -1.99311e-14 0)
(-6.55032e-15 -1.98334e-14 0)
(-6.43929e-15 -1.97848e-14 0)
(-7.43849e-15 -4.64796e-15 0)
(-6.55032e-15 -2.2999e-14 0)
(-6.77236e-15 -1.90557e-14 0)
(-6.99441e-15 -2.00199e-14 0)
(-6.77236e-15 -1.98116e-14 0)
(-6.55032e-15 -1.98478e-14 0)
(-6.55032e-15 -1.9895e-14 0)
(-6.55032e-15 -1.98752e-14 0)
(-6.43929e-15 -1.98223e-14 0)
(-6.43929e-15 -1.9832e-14 0)
(-6.21725e-15 -1.98693e-14 0)
(-6.21725e-15 -1.99458e-14 0)
(-6.10623e-15 -1.98506e-14 0)
(-6.21725e-15 -1.97734e-14 0)
(-6.21725e-15 -1.97492e-14 0)
(-6.55032e-15 -1.98852e-14 0)
(-6.77236e-15 -1.99025e-14 0)
(-6.55032e-15 -1.98651e-14 0)
(-6.55032e-15 -1.98128e-14 0)
(-6.43929e-15 -1.97776e-14 0)
(-3.33067e-16 -2.58248e-14 0)
(-7.43849e-15 -1.82033e-14 0)
(-5.77316e-15 -2.00963e-14 0)
(-6.10623e-15 -1.97037e-14 0)
(-5.77316e-15 -1.99358e-14 0)
(-5.9952e-15 -1.98239e-14 0)
(-5.9952e-15 -1.97578e-14 0)
(-6.21725e-15 -1.97602e-14 0)
(-6.21725e-15 -1.98095e-14 0)
(-6.43929e-15 -1.97531e-14 0)
(-6.55032e-15 -1.97783e-14 0)
(-6.77236e-15 -1.98423e-14 0)
(-6.99441e-15 -1.98017e-14 0)
(-6.99441e-15 -1.97823e-14 0)
(-6.43929e-15 -1.9822e-14 0)
(-6.32827e-15 -1.98579e-14 0)
(-6.32827e-15 -1.98622e-14 0)
(-6.32827e-15 -1.97888e-14 0)
(-6.55032e-15 -1.97361e-14 0)
(-6.55032e-15 -1.9801e-14 0)
(-1.36557e-14 -2.33695e-14 0)
(-5.77316e-15 -1.94873e-14 0)
(-7.66054e-15 -2.0022e-14 0)
(-6.99441e-15 -1.98294e-14 0)
(-6.99441e-15 -1.98826e-14 0)
(-6.99441e-15 -1.97907e-14 0)
(-6.99441e-15 -1.97079e-14 0)
(-6.99441e-15 -1.97369e-14 0)
(-6.99441e-15 -1.9684e-14 0)
(-6.55032e-15 -1.96183e-14 0)
(-6.77236e-15 -1.96147e-14 0)
(-6.77236e-15 -1.97267e-14 0)
(-6.77236e-15 -1.99069e-14 0)
(-6.43929e-15 -2.00286e-14 0)
(-6.55032e-15 -2.00136e-14 0)
(-6.55032e-15 -1.98026e-14 0)
(-6.77236e-15 -1.97782e-14 0)
(-6.77236e-15 -1.98144e-14 0)
(-6.77236e-15 -1.98122e-14 0)
(-6.32827e-15 -1.98096e-14 0)
(-1.77636e-15 -1.93705e-14 0)
(-7.21645e-15 -1.99395e-14 0)
(-6.10623e-15 -1.98091e-14 0)
(-6.77236e-15 -1.98935e-14 0)
(-6.55032e-15 -1.98866e-14 0)
(-6.99441e-15 -1.98971e-14 0)
(-6.77236e-15 -1.98566e-14 0)
(-6.55032e-15 -1.98091e-14 0)
(-6.55032e-15 -1.97571e-14 0)
(-6.32827e-15 -1.97921e-14 0)
(-6.10623e-15 -1.97798e-14 0)
(-5.9952e-15 -1.9846e-14 0)
(-6.10623e-15 -1.99146e-14 0)
(-6.10623e-15 -1.99923e-14 0)
(-5.9952e-15 -1.98161e-14 0)
(-6.32827e-15 -1.96383e-14 0)
(-6.43929e-15 -1.97316e-14 0)
(-6.32827e-15 -1.98887e-14 0)
(-6.32827e-15 -1.99001e-14 0)
(-6.55032e-15 -1.98214e-14 0)
(-9.4369e-15 -1.63121e-14 0)
(-6.55032e-15 -1.99653e-14 0)
(-7.21645e-15 -1.9654e-14 0)
(-6.99441e-15 -1.97468e-14 0)
(-6.99441e-15 -1.97168e-14 0)
(-6.99441e-15 -1.9783e-14 0)
(-7.43849e-15 -1.99014e-14 0)
(-7.21645e-15 -1.99608e-14 0)
(-7.21645e-15 -2.00527e-14 0)
(-6.77236e-15 -2.0085e-14 0)
(-6.55032e-15 -2.00084e-14 0)
(-6.43929e-15 -1.97396e-14 0)
(-6.55032e-15 -1.97221e-14 0)
(-6.55032e-15 -1.97631e-14 0)
(-6.77236e-15 -1.98085e-14 0)
(-6.77236e-15 -1.97457e-14 0)
(-6.32827e-15 -1.97472e-14 0)
(-6.55032e-15 -1.98132e-14 0)
(-6.55032e-15 -1.98307e-14 0)
(-6.55032e-15 -1.98341e-14 0)
(-1.16573e-14 -2.94761e-14 0)
(-5.32907e-15 -1.84831e-14 0)
(-6.55032e-15 -2.0263e-14 0)
(-6.10623e-15 -1.9768e-14 0)
(-6.32827e-15 -1.96539e-14 0)
(-6.32827e-15 -1.96797e-14 0)
(-6.21725e-15 -1.98161e-14 0)
(-6.43929e-15 -1.99374e-14 0)
(-6.55032e-15 -2.00269e-14 0)
(-6.77236e-15 -2.00471e-14 0)
(-7.21645e-15 -1.99986e-14 0)
(-7.43849e-15 -1.98983e-14 0)
(-6.99441e-15 -1.98799e-14 0)
(-6.77236e-15 -1.98029e-14 0)
(-6.77236e-15 -1.98983e-14 0)
(-6.77236e-15 -1.99147e-14 0)
(-6.32827e-15 -1.97935e-14 0)
(-6.43929e-15 -1.97326e-14 0)
(-6.55032e-15 -1.98476e-14 0)
(-6.55032e-15 -1.98424e-14 0)
(-1.77636e-15 -1.08528e-14 0)
(-6.99441e-15 -2.16403e-14 0)
(-6.10623e-15 -1.94257e-14 0)
(-6.77236e-15 -1.98428e-14 0)
(-6.55032e-15 -1.97414e-14 0)
(-6.55032e-15 -1.9733e-14 0)
(-6.43929e-15 -1.97065e-14 0)
(-6.43929e-15 -1.9665e-14 0)
(-6.43929e-15 -1.97227e-14 0)
(-6.43929e-15 -1.97948e-14 0)
(-6.21725e-15 -1.97891e-14 0)
(-6.55032e-15 -1.98884e-14 0)
(-6.55032e-15 -1.99144e-14 0)
(-6.77236e-15 -1.98843e-14 0)
(-6.77236e-15 -1.99088e-14 0)
(-6.77236e-15 -2.00171e-14 0)
(-7.21645e-15 -1.9993e-14 0)
(-6.77236e-15 -1.98384e-14 0)
(-6.55032e-15 -1.98777e-14 0)
(-6.43929e-15 -1.98289e-14 0)
(-1.36557e-14 -6.24163e-15 0)
(-5.77316e-15 -2.23575e-14 0)
(-7.88258e-15 -1.92679e-14 0)
(-6.55032e-15 -1.99973e-14 0)
(-6.99441e-15 -1.99362e-14 0)
(-6.55032e-15 -1.99253e-14 0)
(-6.55032e-15 -1.98864e-14 0)
(-6.43929e-15 -1.98184e-14 0)
(-6.21725e-15 -1.98966e-14 0)
(-6.32827e-15 -1.99467e-14 0)
(-6.21725e-15 -1.98631e-14 0)
(-6.21725e-15 -1.97332e-14 0)
(-6.10623e-15 -1.97861e-14 0)
(-6.10623e-15 -1.98764e-14 0)
(-5.88418e-15 -1.97985e-14 0)
(-5.88418e-15 -1.97607e-14 0)
(-6.10623e-15 -1.98352e-14 0)
(-6.43929e-15 -1.98598e-14 0)
(-6.43929e-15 -1.98002e-14 0)
(-6.43929e-15 -1.97699e-14 0)
(-5.21805e-15 -3.73548e-14 0)
(-6.99441e-15 -1.70825e-14 0)
(-6.99441e-15 -2.06321e-14 0)
(-6.77236e-15 -1.98737e-14 0)
(-6.77236e-15 -1.99594e-14 0)
(-6.99441e-15 -1.99452e-14 0)
(-7.21645e-15 -1.99839e-14 0)
(-7.21645e-15 -1.99492e-14 0)
(-6.99441e-15 -1.99619e-14 0)
(-6.77236e-15 -1.99507e-14 0)
(-7.21645e-15 -1.99464e-14 0)
(-7.21645e-15 -1.99505e-14 0)
(-6.77236e-15 -1.98695e-14 0)
(-6.99441e-15 -1.98759e-14 0)
(-7.43849e-15 -1.98641e-14 0)
(-6.99441e-15 -1.97792e-14 0)
(-6.99441e-15 -1.97478e-14 0)
(-6.99441e-15 -1.98462e-14 0)
(-6.77236e-15 -1.9851e-14 0)
(-6.77236e-15 -1.98649e-14 0)
(-7.77156e-16 -2.98597e-14 0)
(-6.99441e-15 -1.82208e-14 0)
(-4.88498e-15 -2.02336e-14 0)
(-5.77316e-15 -1.9834e-14 0)
(-5.77316e-15 -1.98758e-14 0)
(-5.77316e-15 -1.98423e-14 0)
(-5.77316e-15 -1.98713e-14 0)
(-5.9952e-15 -1.99036e-14 0)
(-5.88418e-15 -1.99066e-14 0)
(-5.9952e-15 -1.98636e-14 0)
(-5.88418e-15 -1.98642e-14 0)
(-6.10623e-15 -1.99318e-14 0)
(-6.32827e-15 -1.98435e-14 0)
(-6.21725e-15 -1.9835e-14 0)
(-6.10623e-15 -1.99627e-14 0)
(-6.32827e-15 -1.99894e-14 0)
(-6.32827e-15 -1.99216e-14 0)
(-6.43929e-15 -1.99162e-14 0)
(-6.32827e-15 -1.99242e-14 0)
(-6.43929e-15 -1.99188e-14 0)
)
;

boundaryField
{
    movingWall
    {
        type            calculated;
        value           uniform (-6.55032e-15 -1.98339e-14 0);
    }
    fixedWalls
    {
        type            calculated;
        value           uniform (-6.55032e-15 -1.98339e-14 0);
    }
    frontAndBack
    {
        type            empty;
    }
}


// ************************************************************************* //
