/*--------------------------------*- C++ -*----------------------------------*\
| =========                 |                                                 |
| \\      /  F ield         | OpenFOAM: The Open Source CFD Toolbox           |
|  \\    /   O peration     | Version:  2312                                  |
|   \\  /    A nd           | Website:  www.openfoam.com                      |
|    \\/     M anipulation  |                                                 |
\*---------------------------------------------------------------------------*/
FoamFile
{
    version     2.0;
    format      ascii;
    arch        "LSB;label=32;scalar=64";
    class       volScalarField;
    location    "7.875";
    object      divU;
}
// * * * * * * * * * * * * * * * * * * * * * * * * * * * * * * * * * * * * * //

dimensions      [0 0 -1 0 0 0 0];

internalField   nonuniform List<scalar> 
400
(
2.79182e-12
-8.91927e-13
2.14243e-13
-5.34229e-14
3.20456e-14
-2.29863e-14
-2.66335e-14
2.0819e-14
-1.94352e-14
1.48096e-14
-4.33544e-15
-1.10246e-14
4.69177e-15
2.18771e-14
8.31032e-15
-5.24264e-15
4.65907e-15
-3.60628e-14
9.69593e-15
0
-3.49655e-12
1.00696e-12
-2.22566e-13
8.25913e-14
1.8664e-14
1.51429e-14
-4.93371e-14
4.09181e-14
5.32762e-15
-2.29022e-14
-1.30233e-14
-1.80358e-14
2.85685e-14
-8.81393e-15
5.42166e-14
-5.87539e-15
5.13657e-16
-7.2692e-14
-9.39838e-15
2.71051e-14
-6.77626e-13
-2.35587e-13
5.13182e-14
-5.03981e-14
6.78875e-15
-1.83604e-14
2.87444e-14
2.91536e-15
-2.22777e-14
6.91237e-14
-9.42974e-15
-2.74024e-14
-2.72834e-14
-6.63525e-15
-3.57382e-14
-1.30595e-15
-2.24005e-15
1.71852e-14
-2.70138e-14
5.42101e-14
1.57209e-12
3.83031e-13
-5.03317e-14
2.00027e-14
2.35568e-14
1.18819e-14
-3.44737e-15
1.57764e-14
-3.52836e-14
-1.12709e-14
-5.44131e-15
3.11345e-14
2.86696e-14
2.05261e-14
-1.55941e-14
-1.19979e-14
3.85433e-15
-7.03598e-15
1.35066e-14
-5.42101e-14
4.87891e-13
-9.93595e-13
1.72362e-13
-1.19596e-13
5.00135e-14
-3.16527e-14
-1.43399e-14
2.47266e-15
-2.65369e-14
2.64246e-16
2.80076e-14
-1.2349e-15
-5.48237e-16
1.97254e-15
-1.47438e-14
-2.57664e-14
1.81974e-14
-3.1541e-14
5.92495e-14
0
-2.33103e-12
1.24051e-12
-2.06793e-13
1.28107e-13
-7.57965e-14
4.72706e-14
1.64111e-14
-2.56089e-14
-5.04328e-15
3.41249e-14
-2.65921e-14
-5.66796e-14
5.03863e-14
-9.3285e-15
7.05489e-14
-8.65343e-15
-7.35122e-15
2.93521e-15
3.86127e-14
0
4.8518e-12
-1.73144e-12
3.23206e-13
-1.22871e-13
3.64777e-14
-4.92779e-14
3.41693e-14
2.55551e-14
-3.39368e-14
3.48401e-15
-6.31992e-15
3.03179e-14
-2.15474e-14
-1.4985e-14
5.43649e-15
-2.24503e-14
-1.23238e-14
-1.38489e-14
3.81582e-15
-2.71051e-14
-3.57787e-12
1.36717e-12
-3.0536e-13
1.47912e-13
-4.70923e-14
4.26409e-15
-3.692e-14
-2.12884e-14
2.18855e-14
-6.71304e-15
4.74254e-14
-1.81589e-15
2.11193e-14
-1.40692e-14
6.26572e-15
1.97581e-14
-2.66358e-14
4.95592e-14
-9.63915e-15
0
-2.43945e-12
5.18937e-14
-4.82796e-14
2.9926e-14
-6.59092e-15
3.95392e-15
7.03e-15
1.30454e-14
-1.54553e-14
1.12492e-14
-7.23572e-14
-7.18288e-15
-1.95236e-14
7.55312e-14
-6.14823e-14
-2.77636e-14
5.27855e-14
-2.08438e-14
2.00439e-14
-2.71051e-14
4.2826e-12
-6.43658e-13
1.64647e-13
-4.2803e-14
2.35882e-14
-5.38215e-15
-4.37569e-14
3.44835e-14
4.74286e-14
-1.03474e-14
7.7742e-15
1.48492e-14
-9.41392e-15
-2.00994e-14
9.25146e-15
3.26246e-14
2.414e-15
-3.99379e-14
2.92758e-14
-2.71051e-14
-4.87891e-13
2.26021e-13
-8.39339e-14
2.15308e-14
-7.94994e-15
2.67147e-14
1.50732e-15
3.24209e-15
3.60569e-15
8.27712e-15
2.02818e-15
1.5073e-14
1.56222e-15
-1.58822e-14
9.67465e-15
-3.46297e-14
1.74196e-14
1.3982e-15
1.18982e-14
0
-1.32815e-12
-1.81751e-13
3.62812e-14
-1.36305e-14
1.20508e-14
-2.17803e-14
-6.88336e-15
-1.00269e-14
1.74394e-14
-2.45616e-14
2.74913e-14
-7.14312e-14
-4.06608e-15
1.28069e-14
9.16519e-14
7.34837e-16
2.74623e-15
-2.06372e-14
-1.51519e-14
0
2.71051e-14
4.0357e-13
-9.76334e-14
1.02922e-13
1.69691e-14
-1.99089e-15
-1.67685e-14
-1.4918e-14
2.26803e-14
5.28517e-14
-5.39762e-14
9.51621e-15
3.88538e-14
-8.19414e-15
1.09277e-14
-3.15207e-14
1.5812e-14
-3.521e-15
4.97598e-14
0
1.11131e-12
-4.5738e-13
7.4691e-14
-2.43469e-14
-4.77577e-14
-2.83292e-14
7.23037e-14
-1.0204e-14
-1.41898e-14
-2.0923e-14
1.5074e-14
-1.8884e-14
3.02254e-14
1.83565e-14
4.33457e-15
-2.58258e-14
-8.19477e-15
2.37014e-14
-3.34005e-14
-2.71051e-14
-1.32815e-12
3.93e-13
-1.33328e-13
6.95181e-14
2.97246e-14
-3.36903e-14
-4.95475e-15
-2.30289e-14
4.0144e-14
7.78126e-15
2.02957e-14
2.99858e-15
6.58743e-15
-4.40201e-14
-3.89092e-15
2.78534e-14
1.27208e-14
-1.49008e-14
-1.03852e-15
0
1.6263e-13
3.61022e-13
-2.91818e-14
-2.13934e-14
1.50341e-16
-1.58011e-15
1.45343e-14
-2.05546e-14
-8.17878e-15
9.6982e-15
-9.33033e-14
4.23341e-14
4.15689e-14
2.51778e-14
-1.3922e-14
2.78188e-14
1.52431e-14
-1.74173e-14
-5.73833e-15
0
2.73761e-12
-8.12467e-13
1.24532e-13
-9.85338e-14
2.61296e-14
-2.61472e-14
7.5006e-15
1.84451e-14
4.85836e-15
4.68478e-14
1.56273e-15
-4.95833e-14
-5.74753e-14
-9.27954e-15
2.31623e-14
-1.09954e-14
-1.60304e-14
7.8286e-14
2.61057e-14
-2.71051e-14
-3.25261e-12
1.02568e-12
-2.12955e-13
8.81101e-14
-2.27718e-14
3.3945e-14
6.86062e-15
-9.97556e-15
-1.90576e-14
-2.29476e-14
-1.41668e-14
2.55213e-14
1.22803e-15
1.86609e-14
2.76353e-14
-1.43066e-14
-1.86163e-14
-3.0918e-14
1.67244e-15
-2.71051e-14
-2.30393e-12
2.46727e-13
-9.26833e-14
5.02285e-14
-1.67371e-14
1.51433e-14
-4.58356e-14
3.57122e-14
3.41525e-14
-1.46363e-14
-4.13812e-14
3.27724e-14
2.25995e-14
-8.56187e-14
-1.58906e-14
4.41451e-14
-1.56195e-16
1.76524e-14
-1.07349e-14
5.42101e-14
3.30682e-12
-8.40257e-13
2.1684e-13
-8.13152e-14
2.71051e-14
0
0
2.71051e-14
2.71051e-14
0
2.71051e-14
-2.71051e-14
0
2.71051e-14
0
0
-2.71051e-14
2.71051e-14
-2.71051e-14
-2.71051e-14
)
;

boundaryField
{
    movingWall
    {
        type            extrapolatedCalculated;
        value           nonuniform List<scalar> 
20
(
3.30682e-12
-8.40257e-13
2.1684e-13
-8.13152e-14
2.71051e-14
0
0
2.71051e-14
2.71051e-14
0
2.71051e-14
-2.71051e-14
0
2.71051e-14
0
0
-2.71051e-14
2.71051e-14
-2.71051e-14
-2.71051e-14
)
;
    }
    fixedWalls
    {
        type            extrapolatedCalculated;
        value           nonuniform List<scalar> 
60
(
2.79182e-12
-3.49655e-12
-6.77626e-13
1.57209e-12
4.87891e-13
-2.33103e-12
4.8518e-12
-3.57787e-12
-2.43945e-12
4.2826e-12
-4.87891e-13
-1.32815e-12
2.71051e-14
1.11131e-12
-1.32815e-12
1.6263e-13
2.73761e-12
-3.25261e-12
-2.30393e-12
3.30682e-12
0
2.71051e-14
5.42101e-14
-5.42101e-14
0
0
-2.71051e-14
0
-2.71051e-14
-2.71051e-14
0
0
0
-2.71051e-14
0
0
-2.71051e-14
-2.71051e-14
5.42101e-14
-2.71051e-14
2.79182e-12
-8.91927e-13
2.14243e-13
-5.34229e-14
3.20456e-14
-2.29863e-14
-2.66335e-14
2.0819e-14
-1.94352e-14
1.48096e-14
-4.33544e-15
-1.10246e-14
4.69177e-15
2.18771e-14
8.31032e-15
-5.24264e-15
4.65907e-15
-3.60628e-14
9.69593e-15
0
)
;
    }
    frontAndBack
    {
        type            empty;
    }
}


// ************************************************************************* //
