/*--------------------------------*- C++ -*----------------------------------*\
| =========                 |                                                 |
| \\      /  F ield         | OpenFOAM: The Open Source CFD Toolbox           |
|  \\    /   O peration     | Version:  2312                                  |
|   \\  /    A nd           | Website:  www.openfoam.com                      |
|    \\/     M anipulation  |                                                 |
\*---------------------------------------------------------------------------*/
FoamFile
{
    version     2.0;
    format      ascii;
    arch        "LSB;label=32;scalar=64";
    class       volScalarField;
    location    "7.875";
    object      enstrophyField;
}
// * * * * * * * * * * * * * * * * * * * * * * * * * * * * * * * * * * * * * //

dimensions      [0 0 -2 0 0 0 0];

internalField   nonuniform List<scalar> 
400
(
1.17416e-24
1.65465e-24
3.59368e-26
7.40787e-27
2.06238e-27
7.2719e-28
1.9112e-28
1.93157e-28
3.68666e-29
3.72981e-29
1.23968e-29
8.83233e-31
2.58879e-28
4.26986e-28
7.53432e-29
4.32308e-28
1.27333e-28
1.47702e-29
1.27548e-27
3.11766e-29
1.90542e-25
1.90374e-26
3.00494e-26
8.3538e-27
1.10813e-26
2.49544e-26
2.28958e-26
5.85019e-27
1.61241e-27
1.29244e-27
5.56285e-28
3.96168e-27
9.38055e-27
3.78898e-27
7.74833e-28
3.19706e-27
7.27982e-27
1.44786e-27
1.07722e-28
1.38572e-27
1.57569e-25
3.32235e-25
3.78263e-26
2.77382e-28
3.53353e-28
1.12615e-27
5.71375e-27
3.24887e-27
7.71954e-28
4.63662e-27
1.54534e-27
2.7771e-27
2.70401e-27
3.91687e-27
4.10757e-27
1.37031e-27
3.08753e-28
2.03037e-27
2.12296e-27
3.44287e-28
1.16075e-24
1.47697e-25
2.98883e-26
2.82647e-27
5.4089e-27
1.08673e-26
3.93076e-27
1.33793e-27
3.54772e-27
3.47942e-28
8.81503e-29
1.33889e-27
2.33408e-27
1.53855e-27
7.75454e-29
2.54726e-28
7.115e-27
2.41305e-27
1.93743e-27
3.59602e-31
7.50325e-25
5.51854e-25
4.96584e-26
9.18785e-29
1.06182e-28
7.20232e-29
1.25778e-28
1.10438e-27
3.55258e-27
4.23897e-28
1.58105e-27
6.38036e-27
6.26368e-27
1.07653e-26
1.87545e-27
1.1122e-28
1.25314e-28
5.64213e-27
3.04439e-28
4.57661e-28
2.43733e-25
6.80003e-25
1.49617e-26
3.27582e-27
1.83568e-28
5.14079e-28
8.92225e-30
5.14863e-28
1.76391e-27
1.40703e-30
1.66648e-27
1.79634e-29
1.48557e-27
1.44767e-30
2.94028e-29
2.00271e-27
1.51207e-29
7.24674e-28
7.75005e-28
8.27967e-28
3.47924e-26
7.78384e-27
1.59287e-28
5.43548e-27
4.02648e-27
1.80858e-27
2.2358e-27
4.22741e-27
7.14955e-28
5.89577e-28
1.16367e-27
1.38091e-27
2.15232e-29
1.97532e-27
3.48074e-29
7.84012e-28
5.50937e-28
3.69679e-30
2.46497e-31
8.82194e-29
3.40184e-24
3.82619e-24
1.62062e-25
2.02522e-26
9.3527e-28
3.39574e-29
3.17036e-29
3.31321e-30
1.61034e-29
2.25924e-29
5.37971e-28
4.18939e-27
9.06242e-28
1.7265e-28
4.28843e-27
8.76181e-27
1.6087e-27
8.21162e-28
3.07864e-29
2.69359e-28
4.44043e-24
4.12318e-24
2.67534e-25
3.2043e-27
5.03992e-27
4.05062e-27
6.59302e-27
8.91166e-27
6.64414e-27
5.33166e-27
5.96446e-27
6.94334e-27
3.3564e-27
6.95161e-30
3.68846e-27
4.42622e-28
1.45941e-27
1.2819e-27
4.8215e-29
1.74524e-28
1.3609e-25
5.54712e-27
1.74015e-27
1.14565e-26
5.1543e-27
1.14836e-29
1.20152e-28
4.4115e-28
1.2794e-29
3.08005e-29
1.00074e-27
1.0656e-27
1.36214e-27
1.04367e-27
2.56442e-27
4.99247e-27
2.2685e-29
1.60068e-28
1.07083e-28
2.44945e-28
4.73154e-26
8.51838e-25
2.96961e-26
8.42383e-27
6.847e-28
3.47995e-29
4.45398e-28
2.644e-29
9.33435e-30
2.50977e-28
6.47604e-29
4.1983e-28
4.85715e-27
2.07064e-27
6.25561e-29
1.17551e-28
2.03407e-30
1.6445e-28
3.8233e-29
1.87402e-28
1.75571e-26
1.20807e-25
8.66079e-28
1.28754e-28
7.22511e-29
2.59272e-27
5.60411e-28
2.40497e-28
1.50835e-27
4.87718e-30
1.02521e-27
3.11871e-27
3.81275e-27
1.36137e-27
1.08802e-27
8.10858e-30
2.38457e-29
7.8881e-28
7.42302e-31
8.07309e-28
1.6813e-26
4.73248e-26
2.52109e-29
4.53608e-27
6.30467e-27
4.87985e-27
3.75801e-27
1.60186e-27
2.18237e-27
2.40031e-29
7.19765e-28
6.10896e-27
9.60655e-27
7.09148e-27
4.99751e-28
2.77104e-28
6.8786e-31
5.80479e-30
1.14621e-31
1.05988e-29
6.87445e-26
2.08418e-27
2.94193e-27
3.0034e-29
6.63283e-32
4.48937e-30
4.0602e-27
6.8663e-28
4.14968e-28
3.08391e-28
5.28105e-28
8.23398e-28
8.70668e-28
4.85209e-29
6.26345e-28
6.32001e-28
1.35942e-27
9.66245e-28
2.07559e-28
5.27184e-28
8.64383e-25
1.37246e-25
5.32132e-27
3.83629e-27
1.67205e-27
4.97757e-27
4.90972e-27
8.91933e-28
7.81217e-28
1.71926e-27
1.44608e-26
1.3473e-26
5.62594e-27
1.03847e-27
6.06758e-27
1.82034e-27
5.73097e-28
1.75863e-28
3.12899e-28
4.75559e-32
1.21831e-24
4.49746e-25
3.48518e-26
5.71398e-28
1.66992e-28
9.38488e-28
9.00361e-27
5.24296e-27
4.25896e-27
1.32006e-27
7.46163e-29
7.05057e-29
4.54757e-29
1.37123e-27
6.25088e-29
5.49549e-29
8.01714e-27
1.46268e-29
6.02541e-29
3.09897e-28
3.87287e-25
3.22463e-25
4.97007e-26
1.00044e-29
4.25952e-27
4.68272e-28
1.86089e-27
1.32431e-30
8.03402e-28
5.69277e-28
6.93587e-27
7.31422e-27
5.8329e-27
3.26063e-27
7.40583e-27
6.82625e-27
1.59719e-28
6.64967e-29
4.47178e-31
7.50032e-30
1.06469e-24
8.84099e-25
5.93205e-26
2.23277e-27
2.58695e-29
1.75162e-27
4.23257e-27
3.22408e-27
8.5626e-28
4.63505e-28
8.41979e-27
3.96185e-27
8.1751e-29
3.3454e-28
7.19848e-27
2.74744e-28
2.05547e-27
1.66516e-27
4.03945e-29
1.50104e-28
3.78366e-24
1.63406e-24
1.82641e-25
8.53103e-29
6.67801e-27
6.14619e-27
5.92108e-27
1.35244e-27
3.71271e-28
1.38659e-27
1.46847e-27
1.08184e-27
5.973e-28
1.46157e-31
4.68073e-29
7.49907e-28
2.24775e-29
5.31997e-29
1.75457e-30
1.15394e-29
9.32075e-27
3.88341e-25
3.32644e-28
4.04902e-27
1.4246e-27
1.49427e-27
2.19876e-28
6.22565e-30
4.83955e-28
1.70776e-27
2.32425e-29
2.15431e-30
4.68147e-29
7.11116e-29
2.42536e-27
8.45451e-30
2.67713e-29
1.4837e-27
3.41015e-32
1.53438e-28
)
;

boundaryField
{
    movingWall
    {
        type            calculated;
        value           nonuniform List<scalar> 
20
(
1.07751e-24
3.08093e-25
1.27419e-25
6.00801e-26
4.80594e-26
4.846e-26
4.64295e-26
2.38746e-26
3.65742e-26
2.56006e-26
3.37053e-26
1.61481e-26
4.85054e-27
7.35697e-27
1.31542e-26
4.31798e-27
4.62098e-27
9.74402e-28
3.92114e-27
1.91746e-27
)
;
    }
    fixedWalls
    {
        type            calculated;
        value           nonuniform List<scalar> 
60
(
3.06165e-23
8.1749e-25
7.04833e-24
5.50431e-24
1.30959e-23
1.05462e-23
2.59734e-25
6.63848e-23
7.7297e-23
1.10059e-27
1.34158e-23
1.57165e-24
8.17552e-25
2.44668e-26
2.84294e-24
1.05281e-23
7.05028e-24
1.67579e-23
3.42982e-23
5.46346e-24
4.41319e-29
2.08274e-27
6.05894e-30
4.75506e-28
7.67417e-28
1.8468e-27
4.01788e-30
2.33519e-28
2.39534e-28
2.77174e-29
1.04898e-29
8.1113e-28
4.74384e-29
2.44028e-28
1.89736e-33
2.81241e-28
2.02366e-30
1.12115e-30
7.6873e-29
5.76257e-28
4.79496e-25
1.335e-24
2.21771e-26
5.01366e-26
7.31873e-26
9.15986e-26
2.05018e-26
3.35414e-26
1.73394e-26
4.74871e-27
1.66741e-26
3.82714e-27
1.50138e-26
9.15907e-27
5.10993e-27
4.15117e-27
7.45176e-27
7.59479e-28
3.62225e-27
3.11766e-29
)
;
    }
    frontAndBack
    {
        type            empty;
    }
}


// ************************************************************************* //
