/*--------------------------------*- C++ -*----------------------------------*\
| =========                 |                                                 |
| \\      /  F ield         | OpenFOAM: The Open Source CFD Toolbox           |
|  \\    /   O peration     | Version:  2312                                  |
|   \\  /    A nd           | Website:  www.openfoam.com                      |
|    \\/     M anipulation  |                                                 |
\*---------------------------------------------------------------------------*/
FoamFile
{
    version     2.0;
    format      ascii;
    arch        "LSB;label=32;scalar=64";
    class       volScalarField;
    location    "7.875";
    object      flowTypeField;
}
// * * * * * * * * * * * * * * * * * * * * * * * * * * * * * * * * * * * * * //

dimensions      [0 0 0 0 0 0 0];

internalField   nonuniform List<scalar> 
400
(
0.410686
0.0905936
0.238976
-0.170272
0.331504
0.351635
0.628882
0.616739
0.816846
0.428606
0.20425
0.778566
0.166802
0.149792
0.153792
-0.0619707
0.406795
0.860211
0.0808314
0.000402276
0.748446
0.682046
0.150934
0.123398
-0.0918246
-0.17439
-0.0791842
0.1037
0.299258
0.375341
0.385341
-0.0894395
-0.212519
-0.0688287
0.445839
0.0165118
-0.111282
0.27458
0.342896
0.297024
0.47483
0.185098
-0.34566
0.736034
0.134003
0.128244
0.135847
0.212421
0.0303058
0.165471
-0.022925
0.229928
0.136514
0.0115168
-0.0467863
0.0371069
0.0853223
0.00566332
-0.130828
0.618563
0.370986
0.430818
0.0903258
0.322863
0.0511422
-0.087041
-0.087297
0.157528
0.0283043
0.0266157
0.039439
0.139059
-0.102166
0.0809466
0.659523
0.409493
-0.0976909
-0.2754
-0.108563
0.968267
0.238109
0.331417
-0.00804859
0.870838
0.675
0.751351
0.487651
0.154631
0.0218331
0.0134433
0.0742868
-0.0403615
-0.0319215
-0.0799445
-0.00362146
0.480875
0.555494
0.0484814
0.374762
0.290509
0.58607
0.224678
0.349015
0.408223
0.633385
0.421754
0.19842
0.459858
0.0758292
0.888131
0.0474435
0.84107
0.262615
0.748942
0.870031
-0.142827
0.0330416
0.298797
0.0330547
0.0302348
0.912648
0.865066
0.889465
0.137389
-0.0414622
0.0406597
0.136288
-0.0657282
0.355878
0.362819
0.114879
0.12828
0.703742
-0.150103
0.651286
0.0642605
0.23277
0.848533
0.783476
0.516775
0.26784
0.0233904
0.0283684
-0.105796
0.3951
0.00300809
0.802504
0.795055
0.861253
0.382113
0.411179
-0.122179
0.289953
0.383875
-0.137652
-0.166962
-0.0105856
0.440652
0.42675
0.175596
0.214085
0.0190852
-0.204428
0.405223
-0.140384
0.208542
-0.0455923
-0.226348
-0.0181089
0.0593494
0.184824
-0.0848915
0.00605564
0.892839
0.236635
0.117183
0.42112
0.100909
0.586949
0.469587
0.84872
0.8557
0.692234
-0.242943
-0.167075
0.456909
0.599109
0.213329
0.754847
0.651911
-0.629694
-0.0726087
0.140813
0.244457
-0.240253
-0.147779
0.113997
0.623655
0.480886
0.386697
0.752382
0.0990698
0.205944
-0.663103
0.423943
0.805328
-0.0407636
0.114371
0.802748
0.384117
0.0972162
0.221754
-0.196737
-0.0453313
0.000672233
0.670699
0.779855
0.38077
0.285579
0.279458
0.880263
0.390966
0.784389
0.499762
0.535858
-0.145991
0.203864
0.413073
0.0179746
0.911951
0.22955
0.294623
-0.0705223
0.190297
0.56464
0.467972
0.440402
0.0227601
0.906035
-0.451664
0.7598
0.496622
0.926961
0.279292
-0.0343781
-0.206937
-0.0573645
-0.0391937
-0.0676557
0.821422
0.343429
-0.356218
-0.111368
-0.0760398
0.411465
0.562905
0.821818
0.574805
0.971073
0.0723984
0.537379
0.803585
0.165989
0.661554
0.973855
0.82724
0.210964
-0.0140251
0.408179
0.527135
0.493489
0.00173761
-0.177136
0.578386
0.251826
0.0974824
-0.809868
-0.0503289
0.422301
0.150247
0.104054
-0.101795
0.165967
0.10691
0.0211288
0.0196179
-0.214831
-0.313573
0.370482
0.104217
-0.130968
-0.209003
0.0219782
0.381584
-0.0130049
0.238489
0.130992
0.493573
0.0903518
0.568688
-0.234559
0.107625
-0.517411
0.444581
0.319551
-0.525596
-0.211319
0.0175723
0.104621
0.215771
0.852813
0.731354
0.779351
0.142678
0.224464
0.772247
-0.0974986
0.732341
0.0735519
0.0795919
0.58743
0.208944
-0.347203
0.925466
0.0932851
0.154029
0.00620487
0.765863
-0.260467
0.148069
-0.0766935
0.0162609
0.105977
0.0108028
-0.116395
-0.0332295
0.0248538
0.811573
0.919932
0.797137
0.457685
0.104503
-0.174042
0.32909
0.607546
0.234711
-0.0141207
0.105026
0.285909
0.0305663
-0.180491
-0.031942
0.51901
0.29107
-0.0692452
0.427927
0.19285
0.0478378
0.0378077
0.500313
0.0979203
-0.0425
-0.613686
0.808679
-0.0307994
-0.0194284
0.0974615
0.294139
0.259906
0.130478
0.265603
0.371999
0.116125
0.978689
0.427126
0.367905
0.3281
0.577846
0.753473
0.871635
0.9376
0.207141
0.868094
0.127938
0.0569955
0.0149808
0.45548
0.729689
0.0791499
0.0622773
0.490546
0.935251
0.0842083
0.531625
-0.0820913
0.526196
0.663946
0.105681
0.954865
0.431812
)
;

boundaryField
{
    movingWall
    {
        type            calculated;
        value           nonuniform List<scalar> 
20
(
0.63293
0.33302
0.266089
-0.0750352
0.00410909
-0.00140998
0.0243973
0.0233402
-0.008962
-0.00997282
0.026498
0.0517453
-0.10695
0.10566
0.127689
0.134732
0.0333463
0.25615
0.105483
0.0393915
)
;
    }
    fixedWalls
    {
        type            calculated;
        value           nonuniform List<scalar> 
60
(
0.0906785
0.610384
0.106479
0.268297
0.260965
0.279203
0.835618
0.0436657
-0.00124165
0.98578
0.150245
0.501276
0.549788
0.859632
-0.0373504
-0.029547
0.185325
0.127864
-0.107159
0.354271
0.00028803
0.351104
0.951849
0.658597
-0.0454528
0.0322232
0.887471
0.229261
0.705233
0.814237
0.877141
-0.454917
0.847672
0.182985
0.654264
0.121969
0.918951
0.948167
0.815109
0.361838
0.849371
0.295649
0.649593
-0.285816
0.0569569
0.0382333
0.113798
0.0592384
0.0288524
-0.0310387
-0.025199
0.0225446
0.0292807
0.00697965
-0.129507
0.00041139
0.0832308
0.425038
0.0683059
0.305227
)
;
    }
    frontAndBack
    {
        type            empty;
    }
}


// ************************************************************************* //
