/*--------------------------------*- C++ -*----------------------------------*\
| =========                 |                                                 |
| \\      /  F ield         | OpenFOAM: The Open Source CFD Toolbox           |
|  \\    /   O peration     | Version:  2312                                  |
|   \\  /    A nd           | Website:  www.openfoam.com                      |
|    \\/     M anipulation  |                                                 |
\*---------------------------------------------------------------------------*/
FoamFile
{
    version     2.0;
    format      ascii;
    arch        "LSB;label=32;scalar=64";
    class       surfaceScalarField;
    location    "7.875";
    object      fluxField;
}
// * * * * * * * * * * * * * * * * * * * * * * * * * * * * * * * * * * * * * //

dimensions      [0 3 -1 0 0 0 0];

oriented        oriented;

internalField   nonuniform List<scalar> 
760
(
-5e-05
5.50354e-19
-5e-05
-8.74564e-20
-5e-05
1.96794e-20
-5e-05
-6.57946e-21
-5e-05
-5.54114e-21
-5e-05
1.02969e-21
-5e-05
6.89416e-21
-5e-05
1.1981e-20
-5e-05
8.69372e-21
-5e-05
3.70241e-21
-5e-05
-1.08386e-21
-5e-05
-2.75615e-21
-5e-05
1.17294e-21
-5e-05
5.46928e-21
-5e-05
2.07758e-21
-5e-05
-1.31066e-21
-5e-05
1.16477e-21
-5e-05
4.53682e-21
-5e-05
2.42398e-21
-5.84726e-23
-5e-05
-1.97095e-19
-5e-05
4.16752e-20
-5e-05
-1.49838e-20
-5e-05
3.19028e-22
-5e-05
-2.11025e-21
-5e-05
3.78574e-21
-5e-05
7.99452e-21
-5e-05
1.02295e-20
-5e-05
8.10817e-21
-5e-05
1.05072e-21
-5e-05
-3.25582e-21
-5e-05
-4.50894e-21
-5e-05
3.65872e-22
-5e-05
4.57278e-21
-5e-05
1.62555e-24
-5e-05
-1.46885e-21
-5e-05
1.28414e-22
-5e-05
2.15579e-21
-5e-05
-2.3496e-21
-4.25135e-21
-5e-05
-3.94596e-19
-5e-05
6.30761e-20
-5e-05
-2.10518e-20
-5e-05
9.53004e-22
-5e-05
1.69719e-21
-5e-05
2.18616e-21
-5e-05
4.0984e-22
-5e-05
7.28841e-22
-5e-05
1.20684e-21
-5e-05
-3.04786e-21
-5e-05
-2.35743e-21
-5e-05
-7.43337e-23
-5e-05
-4.45866e-23
-5e-05
-1.65881e-21
-5e-05
-2.15829e-21
-5e-05
-3.26487e-22
-5e-05
-5.60011e-22
-5e-05
-2.47996e-21
-5e-05
-6.75346e-21
-7.22717e-21
-5e-05
1.6162e-19
-5e-05
-3.97676e-20
-5e-05
7.74586e-21
-5e-05
-1.77558e-21
-5e-05
5.8892e-21
-5e-05
2.97048e-21
-5e-05
-8.61844e-22
-5e-05
-2.83215e-21
-5e-05
-2.04465e-21
-5e-05
-2.81772e-21
-5e-05
-1.36033e-21
-5e-05
1.00736e-21
-5e-05
3.91147e-22
-5e-05
-1.64473e-21
-5e-05
2.87775e-21
-5e-05
3.77679e-21
-5e-05
9.63582e-22
-5e-05
-1.759e-21
-5e-05
-3.39962e-21
-4.37597e-21
-5e-05
6.33638e-22
-5e-05
2.32307e-21
-5e-05
2.43299e-21
-5e-05
3.98224e-21
-5e-05
5.7271e-21
-5e-05
5.63936e-21
-5e-05
3.19129e-21
-5e-05
6.18166e-22
-5e-05
1.42045e-22
-5e-05
6.60615e-23
-5e-05
2.2563e-22
-5e-05
-3.08725e-22
-5e-05
-1.37059e-22
-5e-05
4.93136e-22
-5e-05
3.09031e-21
-5e-05
3.34656e-22
-5e-05
-2.22691e-21
-5e-05
-1.10899e-21
-5e-05
1.25984e-21
1.34988e-21
-5e-05
-3.40558e-19
-5e-05
6.61823e-20
-5e-05
-1.78168e-20
-5e-05
4.92165e-21
-5e-05
1.37967e-21
-5e-05
5.04138e-21
-5e-05
4.10279e-21
-5e-05
7.1503e-21
-5e-05
5.51544e-21
-5e-05
1.75496e-21
-5e-05
1.28241e-22
-5e-05
-6.17377e-22
-5e-05
-9.55953e-22
-5e-05
-2.33213e-21
-5e-05
-2.69155e-21
-5e-05
-2.16336e-21
-5e-05
-1.8378e-21
-5e-05
7.33803e-22
-5e-05
2.87692e-21
3.97561e-21
-5e-05
6.59867e-19
-5e-05
-1.34704e-19
-5e-05
2.65914e-20
-5e-05
-3.61282e-21
-5e-05
2.34316e-21
-5e-05
1.23306e-21
-5e-05
1.76606e-21
-5e-05
6.38877e-21
-5e-05
5.06834e-21
-5e-05
8.71002e-22
-5e-05
-1.57998e-21
-5e-05
8.0321e-22
-5e-05
1.38942e-21
-5e-05
-3.74624e-21
-5e-05
-5.41714e-21
-5e-05
1.16368e-21
-5e-05
3.6953e-21
-5e-05
3.31404e-21
-5e-05
9.53956e-22
1.52786e-21
-5e-05
-4.16921e-20
-5e-05
9.75636e-21
-5e-05
-1.80108e-21
-5e-05
3.09673e-21
-5e-05
1.77945e-21
-5e-05
1.06602e-21
-5e-05
4.32252e-21
-5e-05
1.45417e-21
-5e-05
-1.30489e-21
-5e-05
-1.67826e-21
-5e-05
-1.69617e-21
-5e-05
-4.53972e-22
-5e-05
-1.49645e-21
-5e-05
-3.51731e-21
-5e-05
-5.20983e-21
-5e-05
-1.83675e-21
-5e-05
1.17308e-22
-5e-05
-1.16272e-21
-5e-05
-2.40979e-21
-6.69464e-22
-5e-05
-7.83419e-19
-5e-05
1.55275e-19
-5e-05
-3.9175e-20
-5e-05
7.48151e-21
-5e-05
5.12853e-21
-5e-05
7.76474e-21
-5e-05
8.53376e-21
-5e-05
3.26134e-21
-5e-05
2.91243e-21
-5e-05
2.81231e-21
-5e-05
2.23949e-21
-5e-05
-1.79572e-21
-5e-05
-4.88089e-21
-5e-05
-1.44598e-21
-5e-05
-1.81804e-21
-5e-05
-6.9409e-21
-5e-05
-7.13241e-21
-5e-05
-5.21094e-21
-5e-05
-1.7653e-21
9.02635e-22
-5e-05
3.34365e-19
-5e-05
-7.2823e-20
-5e-05
1.40566e-20
-5e-05
-3.92449e-21
-5e-05
5.89705e-21
-5e-05
5.43073e-21
-5e-05
2.6133e-21
-5e-05
1.84461e-21
-5e-05
5.08089e-21
-5e-05
4.18941e-21
-5e-05
1.94355e-21
-5e-05
-3.06396e-21
-5e-05
-2.35348e-21
-5e-05
1.7514e-21
-5e-05
2.31287e-21
-5e-05
-5.39638e-21
-5e-05
-6.17276e-21
-5e-05
-3.20821e-21
-5e-05
5.42676e-22
2.63652e-21
-5e-05
2.29877e-19
-5e-05
-3.83625e-20
-5e-05
1.28979e-20
-5e-05
-1.39355e-21
-5e-05
-1.98749e-21
-5e-05
-9.76009e-23
-5e-05
3.7683e-22
-5e-05
8.10523e-22
-5e-05
9.01423e-22
-5e-05
2.06928e-21
-5e-05
5.07045e-22
-5e-05
-3.00801e-21
-5e-05
3.90555e-22
-5e-05
2.80571e-21
-5e-05
2.41866e-21
-5e-05
-1.88117e-21
-5e-05
-2.42136e-21
-5e-05
3.49549e-22
-5e-05
2.97455e-21
2.23106e-21
-5e-05
-2.38162e-19
-5e-05
4.943e-20
-5e-05
-1.12585e-20
-5e-05
3.36863e-21
-5e-05
-3.76355e-21
-5e-05
1.33118e-21
-5e-05
5.05542e-21
-5e-05
4.26954e-21
-5e-05
4.35986e-21
-5e-05
7.41213e-21
-5e-05
6.87282e-21
-5e-05
2.471e-21
-5e-05
-1.01652e-21
-5e-05
-3.57455e-21
-5e-05
-4.19208e-21
-5e-05
1.83709e-22
-5e-05
6.86557e-22
-5e-05
1.61696e-21
-5e-05
2.98829e-21
1.43204e-21
-5e-05
-7.68044e-20
-5e-05
6.0248e-21
-5e-05
-4.07957e-21
-5e-05
-1.37445e-21
-5e-05
-2.53398e-21
-5e-05
-4.97724e-22
-5e-05
2.58414e-21
-5e-05
3.04675e-21
-5e-05
5.67006e-21
-5e-05
6.43666e-21
-5e-05
6.83474e-21
-5e-05
2.37905e-21
-5e-05
-3.83908e-21
-5e-05
-8.8248e-21
-5e-05
-4.04433e-21
-5e-05
5.67234e-21
-5e-05
3.95301e-21
-5e-05
-8.8025e-22
-5e-05
-1.11257e-21
9.22095e-22
-5e-05
9.96307e-20
-5e-05
-5.92469e-21
-5e-05
5.12021e-21
-5e-05
6.89532e-22
-5e-05
1.61311e-21
-5e-05
-3.06042e-22
-5e-05
-2.25286e-21
-5e-05
-2.551e-21
-5e-05
-3.54744e-21
-5e-05
-5.23075e-21
-5e-05
-3.00775e-21
-5e-05
2.05527e-21
-5e-05
7.80086e-22
-5e-05
-2.18714e-21
-5e-05
1.08364e-21
-5e-05
7.09607e-21
-5e-05
4.72757e-21
-5e-05
-8.50906e-22
-5e-05
-1.57386e-21
3.09466e-22
-5e-05
-1.53009e-19
-5e-05
3.04872e-20
-5e-05
-6.22691e-21
-5e-05
3.827e-21
-5e-05
7.43116e-21
-5e-05
5.12994e-21
-5e-05
-1.23869e-21
-5e-05
-5.75722e-21
-5e-05
-1.02928e-20
-5e-05
-1.16072e-20
-5e-05
-8.47861e-21
-5e-05
7.49645e-22
-5e-05
1.64686e-21
-5e-05
2.54751e-21
-5e-05
-9.72731e-22
-5e-05
1.87096e-22
-5e-05
3.18021e-21
-5e-05
3.05106e-21
-5e-05
-2.59629e-22
-2.15622e-22
-5e-05
-1.65263e-20
-5e-05
-1.13885e-20
-5e-05
-5.19194e-22
-5e-05
1.42791e-21
-5e-05
6.81385e-21
-5e-05
6.38124e-21
-5e-05
3.63358e-21
-5e-05
1.63761e-21
-5e-05
-2.04469e-21
-5e-05
-4.35171e-21
-5e-05
-2.99704e-21
-5e-05
-2.96899e-21
-5e-05
-3.16031e-21
-5e-05
-4.81815e-22
-5e-05
-3.48051e-21
-5e-05
-6.59783e-21
-5e-05
-2.96549e-21
-5e-05
2.42195e-21
-5e-05
-1.43458e-21
-8.60343e-23
-5e-05
5.64335e-19
-5e-05
-1.08249e-19
-5e-05
2.43569e-20
-5e-05
-4.30465e-21
-5e-05
-2.43872e-22
-5e-05
2.39469e-22
-5e-05
1.87515e-21
-5e-05
4.61128e-21
-5e-05
1.21459e-21
-5e-05
-1.84057e-21
-5e-05
3.90681e-22
-5e-05
1.15671e-21
-5e-05
-8.1629e-22
-5e-05
-2.31989e-21
-5e-05
-9.85697e-22
-5e-05
-2.74885e-21
-5e-05
-4.0076e-21
-5e-05
-7.5728e-22
-5e-05
-2.49845e-22
1.72621e-21
-5e-05
-9.82142e-20
-5e-05
5.69806e-21
-5e-05
-5.80483e-21
-5e-05
-5.07753e-21
-5e-05
-5.69294e-21
-5e-05
-5.06629e-21
-5e-05
-5.06111e-21
-5e-05
-2.49389e-21
-5e-05
-4.76441e-21
-5e-05
-5.73691e-21
-5e-05
-3.5417e-21
-5e-05
-3.95945e-22
-5e-05
3.07008e-22
-5e-05
-2.11103e-21
-5e-05
1.3256e-22
-5e-05
3.1996e-21
-5e-05
2.12218e-21
-5e-05
-9.53238e-22
-5e-05
4.18111e-22
8.25512e-22
-5e-05
-6.88667e-19
-5e-05
1.09116e-19
-5e-05
-2.99471e-20
-5e-05
-9.95392e-22
-5e-05
-4.18426e-21
-5e-05
-2.99043e-21
-5e-05
-4.68263e-21
-5e-05
-4.62449e-21
-5e-05
-5.0144e-21
-5e-05
-3.65908e-21
-5e-05
-3.56902e-21
-5e-05
-5.35942e-21
-5e-05
-1.12639e-21
-5e-05
-1.07588e-21
-5e-05
-3.97266e-21
-5e-05
-2.51626e-21
-5e-05
-3.90488e-23
-5e-05
-2.36315e-21
-5e-05
-2.68372e-21
-2.89676e-21
-5e-05
-5e-05
-5e-05
-5e-05
-5e-05
-5e-05
-5e-05
-5e-05
-5e-05
-5e-05
-5e-05
-5e-05
-5e-05
-5e-05
-5e-05
-5e-05
-5e-05
-5e-05
-5e-05
)
;

boundaryField
{
    movingWall
    {
        type            calculated;
        value           uniform -0;
    }
    fixedWalls
    {
        type            calculated;
        value           nonuniform List<scalar> 
60
(
5e-05
5e-05
5e-05
5e-05
5e-05
5e-05
5e-05
5e-05
5e-05
5e-05
5e-05
5e-05
5e-05
5e-05
5e-05
5e-05
5e-05
5e-05
5e-05
5e-05
-5e-05
-5e-05
-5e-05
-5e-05
-5e-05
-5e-05
-5e-05
-5e-05
-5e-05
-5e-05
-5e-05
-5e-05
-5e-05
-5e-05
-5e-05
-5e-05
-5e-05
-5e-05
-5e-05
-5e-05
0
0
0
0
0
0
0
0
0
0
0
0
0
0
0
0
0
0
0
0
)
;
    }
    frontAndBack
    {
        type            empty;
        value           nonuniform List<scalar> 0();
    }
}


// ************************************************************************* //
