/*--------------------------------*- C++ -*----------------------------------*\
| =========                 |                                                 |
| \\      /  F ield         | OpenFOAM: The Open Source CFD Toolbox           |
|  \\    /   O peration     | Version:  2312                                  |
|   \\  /    A nd           | Website:  www.openfoam.com                      |
|    \\/     M anipulation  |                                                 |
\*---------------------------------------------------------------------------*/
FoamFile
{
    version     2.0;
    format      ascii;
    arch        "LSB;label=32;scalar=64";
    class       volTensorField;
    location    "7.875";
    object      gradU;
}
// * * * * * * * * * * * * * * * * * * * * * * * * * * * * * * * * * * * * * //

dimensions      [0 0 -1 0 0 0 0];

internalField   nonuniform List<tensor> 
400
(
(5.96311e-13 1.64085e-12 0 1.0842e-13 2.20142e-12 0 0 0 0)
(-5.42101e-13 -1.90047e-12 0 -8.13152e-14 -3.49825e-13 0 0 0 0)
(1.35525e-13 3.22302e-13 0 5.42101e-14 7.87177e-14 0 0 0 0)
(-2.71051e-14 -9.46149e-14 0 2.71051e-14 -2.63178e-14 0 0 0 0)
(5.42101e-14 1.70909e-14 0 8.13152e-14 -2.21645e-14 0 0 0 0)
(-2.71051e-14 1.60738e-14 0 5.42101e-14 4.11878e-15 0 0 0 0)
(-5.42101e-14 1.95509e-14 0 0 2.75767e-14 0 0 0 0)
(-2.71051e-14 7.45019e-15 0 2.71051e-14 4.79241e-14 0 0 0 0)
(-5.42101e-14 -8.58681e-15 0 0 3.47749e-14 0 0 0 0)
(0 -8.63691e-15 0 0 1.48096e-14 0 0 0 0)
(0 -4.97932e-15 0 0 -4.33544e-15 0 0 0 0)
(0 1.32908e-15 0 0 -1.10246e-14 0 0 0 0)
(0 4.35077e-15 0 2.71051e-14 4.69177e-15 0 0 0 0)
(0 -2.11776e-15 0 2.71051e-14 2.18771e-14 0 0 0 0)
(0 -1.22754e-14 0 0 8.31032e-15 0 0 0 0)
(0 -2.2993e-15 0 2.71051e-14 -5.24264e-15 0 0 0 0)
(0 1.11468e-14 0 2.71051e-14 4.65907e-15 0 0 0 0)
(-5.42101e-14 5.4351e-15 0 0 1.81473e-14 0 0 0 0)
(0 -3.70316e-15 0 -5.42101e-14 9.69593e-15 0 0 0 0)
(0 -7.89641e-15 0 0 -2.3389e-16 0 0 0 0)
(-5.14996e-13 2.10745e-13 0 -4.06576e-13 -2.98979e-12 0 0 0 0)
(4.87891e-13 -2.22233e-13 0 -2.71051e-14 5.16526e-13 0 0 0 0)
(-8.13152e-14 1.20517e-15 0 -2.43945e-13 -1.38653e-13 0 0 0 0)
(5.42101e-14 -6.26742e-15 0 -1.35525e-13 2.75939e-14 0 0 0 0)
(0 1.33457e-14 0 -1.35525e-13 1.37235e-14 0 0 0 0)
(0 3.36674e-14 0 -1.89735e-13 1.10242e-14 0 0 0 0)
(-5.42101e-14 2.42544e-14 0 -1.89735e-13 4.40142e-15 0 0 0 0)
(5.42101e-14 -2.51957e-16 0 -1.0842e-13 -7.00603e-15 0 0 0 0)
(0 -2.45277e-14 0 -8.13152e-14 -2.34221e-15 0 0 0 0)
(0 -3.04734e-14 0 -8.13152e-14 -1.06068e-14 0 0 0 0)
(0 -2.08549e-14 0 -5.42101e-14 -8.68783e-15 0 0 0 0)
(0 7.69812e-15 0 -8.13152e-14 -7.01115e-15 0 0 0 0)
(2.71051e-14 2.85509e-14 0 -1.0842e-13 -3.22828e-15 0 0 0 0)
(0 5.73631e-15 0 -8.13152e-14 -3.58598e-15 0 0 0 0)
(5.42101e-14 -1.48443e-14 0 -5.42101e-14 -8.30382e-15 0 0 0 0)
(0 -1.35195e-15 0 -8.13152e-14 -6.32754e-16 0 0 0 0)
(0 1.22431e-14 0 -1.0842e-13 -4.14541e-15 0 0 0 0)
(-5.42101e-14 -3.98243e-16 0 -5.42101e-14 -9.52413e-15 0 0 0 0)
(0 -1.4678e-14 0 0 -1.90943e-14 0 0 0 0)
(5.42101e-14 -1.56563e-15 0 -5.42101e-14 -1.67715e-14 0 0 0 0)
(1.0842e-13 -8.32423e-13 0 -2.71051e-13 -7.90005e-13 0 0 0 0)
(-3.25261e-13 9.50676e-13 0 1.35525e-13 8.56034e-14 0 0 0 0)
(8.13152e-14 -1.6663e-13 0 1.0842e-13 -2.42718e-14 0 0 0 0)
(-5.42101e-14 5.77617e-14 0 8.13152e-14 2.53591e-15 0 0 0 0)
(0 5.21098e-16 0 2.71051e-14 1.52298e-14 0 0 0 0)
(0 6.75168e-15 0 5.42101e-14 -6.39829e-15 0 0 0 0)
(5.42101e-14 1.52074e-15 0 1.0842e-13 -3.03387e-14 0 0 0 0)
(5.42101e-14 7.0656e-16 0 8.13152e-14 -3.80027e-14 0 0 0 0)
(0 -1.21875e-14 0 2.71051e-14 -2.76053e-14 0 0 0 0)
(8.13152e-14 -1.49825e-14 0 8.13152e-14 -1.63943e-14 0 0 0 0)
(0 -1.38372e-15 0 5.42101e-14 3.59354e-15 0 0 0 0)
(-5.42101e-14 6.78864e-15 0 8.13152e-14 1.77384e-14 0 0 0 0)
(-2.71051e-14 7.77594e-15 0 8.13152e-14 -1.64183e-15 0 0 0 0)
(2.71051e-14 -7.19329e-15 0 8.13152e-14 -2.49264e-14 0 0 0 0)
(-2.71051e-14 -9.32221e-15 0 8.13152e-14 -8.63966e-15 0 0 0 0)
(0 1.85911e-15 0 5.42101e-14 4.56944e-15 0 0 0 0)
(0 2.2554e-15 0 2.71051e-14 -2.7537e-15 0 0 0 0)
(2.71051e-14 -9.5138e-15 0 5.42101e-14 -1.8543e-14 0 0 0 0)
(0 -1.09505e-14 0 5.42101e-14 -1.76155e-14 0 0 0 0)
(5.42101e-14 2.79694e-14 0 5.42101e-14 -1.19033e-14 0 0 0 0)
(-6.50521e-13 -4.93657e-13 0 1.02999e-12 2.22486e-12 0 0 0 0)
(7.86047e-13 5.43501e-13 0 0 -4.11375e-13 0 0 0 0)
(-1.6263e-13 -8.18623e-14 0 1.6263e-13 1.15191e-13 0 0 0 0)
(2.71051e-14 3.32341e-14 0 1.0842e-13 -1.09143e-14 0 0 0 0)
(0 4.41154e-15 0 1.0842e-13 1.67681e-14 0 0 0 0)
(0 -1.19011e-14 0 1.35525e-13 3.13726e-15 0 0 0 0)
(0 -7.35003e-15 0 8.13152e-14 -5.08673e-15 0 0 0 0)
(2.71051e-14 2.48145e-15 0 5.42101e-14 -1.4244e-14 0 0 0 0)
(-2.71051e-14 -2.91927e-15 0 8.13152e-14 -1.3006e-14 0 0 0 0)
(0 7.25428e-16 0 2.71051e-14 9.2055e-16 0 0 0 0)
(0 1.32778e-14 0 0 3.98843e-15 0 0 0 0)
(2.71051e-14 2.46275e-15 0 5.42101e-14 4.32679e-15 0 0 0 0)
(2.71051e-14 -1.41139e-14 0 5.42101e-14 1.74294e-15 0 0 0 0)
(2.71051e-14 -1.26152e-15 0 5.42101e-14 5.63107e-17 0 0 0 0)
(-2.71051e-14 1.46515e-14 0 2.71051e-14 2.01441e-14 0 0 0 0)
(-2.71051e-14 4.534e-15 0 2.71051e-14 1.64131e-14 0 0 0 0)
(0 -1.08693e-14 0 1.0842e-13 6.09437e-15 0 0 0 0)
(0 -1.526e-14 0 5.42101e-14 2.88388e-15 0 0 0 0)
(0 -8.03828e-15 0 5.42101e-14 1.34154e-14 0 0 0 0)
(-5.42101e-14 2.79531e-14 0 2.71051e-14 1.14048e-14 0 0 0 0)
(1.13841e-12 9.81065e-13 0 -2.43945e-13 -6.43944e-13 0 0 0 0)
(-1.16552e-12 -1.159e-12 0 -1.0842e-13 1.68363e-13 0 0 0 0)
(1.89735e-13 2.33831e-13 0 -8.13152e-14 -2.12515e-14 0 0 0 0)
(-1.35525e-13 -4.06608e-14 0 -2.71051e-14 2.30313e-14 0 0 0 0)
(5.42101e-14 1.45727e-14 0 0 -6.4839e-16 0 0 0 0)
(-5.42101e-14 -1.51031e-14 0 -2.71051e-14 1.06755e-14 0 0 0 0)
(-2.71051e-14 -1.58605e-14 0 0 1.62125e-14 0 0 0 0)
(0 -7.21267e-15 0 -5.42101e-14 1.38013e-14 0 0 0 0)
(-2.71051e-14 2.97699e-15 0 -8.13152e-14 8.74677e-15 0 0 0 0)
(0 2.01186e-15 0 -2.71051e-14 1.15351e-14 0 0 0 0)
(2.71051e-14 2.02252e-15 0 -5.42101e-14 6.34383e-15 0 0 0 0)
(0 4.54314e-15 0 -1.0842e-13 -5.26435e-15 0 0 0 0)
(0 3.50546e-15 0 -1.0842e-13 -2.11283e-15 0 0 0 0)
(0 1.12079e-14 0 -1.35525e-13 8.55148e-15 0 0 0 0)
(-2.71051e-14 7.03456e-15 0 -5.42101e-14 8.50266e-16 0 0 0 0)
(0 -1.21907e-14 0 -2.71051e-14 -1.37685e-14 0 0 0 0)
(2.71051e-14 -1.12738e-14 0 -2.71051e-14 -1.2762e-14 0 0 0 0)
(-2.71051e-14 -2.19279e-15 0 -1.0842e-13 2.60001e-15 0 0 0 0)
(2.71051e-14 -2.42961e-15 0 -2.71051e-14 1.86378e-14 0 0 0 0)
(-2.71051e-14 3.14922e-15 0 -2.71051e-14 2.29034e-14 0 0 0 0)
(-9.75782e-13 -9.69238e-13 0 -2.71051e-13 -1.36477e-12 0 0 0 0)
(9.75782e-13 1.16619e-12 0 0 2.55437e-13 0 0 0 0)
(-1.35525e-13 -2.27194e-13 0 -5.42101e-14 -8.09992e-14 0 0 0 0)
(1.35525e-13 5.38372e-14 0 -2.71051e-14 3.75764e-15 0 0 0 0)
(-5.42101e-14 -7.94424e-15 0 -2.71051e-14 -1.73898e-14 0 0 0 0)
(5.42101e-14 4.95984e-15 0 -2.71051e-14 -2.39192e-15 0 0 0 0)
(0 -4.22427e-15 0 0 3.646e-15 0 0 0 0)
(-5.42101e-14 -4.9843e-15 0 2.71051e-14 2.61285e-14 0 0 0 0)
(-2.71051e-14 -5.18541e-15 0 5.42101e-14 2.14936e-14 0 0 0 0)
(2.71051e-14 -1.67752e-15 0 0 6.75559e-15 0 0 0 0)
(-2.71051e-14 -3.52167e-15 0 5.42101e-14 -3.89557e-16 0 0 0 0)
(-5.42101e-14 -5.9939e-15 0 0 -1.23461e-15 0 0 0 0)
(5.42101e-14 -2.9802e-16 0 5.42101e-14 -3.27558e-15 0 0 0 0)
(0 1.70157e-15 0 0 -1.1301e-14 0 0 0 0)
(8.13152e-14 -7.66848e-15 0 0 -2.31275e-14 0 0 0 0)
(0 -9.07822e-15 0 5.42101e-14 -9.99206e-15 0 0 0 0)
(0 5.49921e-15 0 0 1.55642e-15 0 0 0 0)
(0 1.61398e-14 0 5.42101e-14 7.37119e-15 0 0 0 0)
(2.71051e-14 1.22651e-14 0 -2.71051e-14 6.46832e-15 0 0 0 0)
(-2.71051e-14 -1.35881e-14 0 2.71051e-14 1.05029e-14 0 0 0 0)
(8.67362e-13 -1.28264e-13 0 1.35525e-13 4.0017e-12 0 0 0 0)
(-9.21572e-13 1.2477e-13 0 0 -8.03546e-13 0 0 0 0)
(1.35525e-13 -1.78487e-14 0 0 1.77633e-13 0 0 0 0)
(-8.13152e-14 2.29487e-14 0 -8.13152e-14 -3.41379e-14 0 0 0 0)
(2.71051e-14 8.42315e-15 0 -8.13152e-14 3.85397e-15 0 0 0 0)
(-2.71051e-14 5.93264e-15 0 -5.42101e-14 -1.52333e-14 0 0 0 0)
(5.42101e-14 1.266e-14 0 -5.42101e-14 -9.34691e-15 0 0 0 0)
(2.71051e-14 1.06349e-14 0 -8.13152e-14 -3.04613e-15 0 0 0 0)
(-2.71051e-14 -1.6396e-14 0 -5.42101e-14 -1.78843e-15 0 0 0 0)
(0 -1.98713e-14 0 -5.42101e-14 -3.53582e-15 0 0 0 0)
(0 -5.96767e-15 0 -5.42101e-14 -6.83288e-15 0 0 0 0)
(2.71051e-14 1.65712e-15 0 5.42101e-14 5.68235e-15 0 0 0 0)
(-2.71051e-14 -6.56097e-15 0 0 9.38148e-15 0 0 0 0)
(0 -8.64398e-15 0 5.42101e-14 -5.65647e-15 0 0 0 0)
(2.71051e-14 8.34355e-15 0 0 -1.09024e-14 0 0 0 0)
(-2.71051e-14 1.24932e-14 0 -2.71051e-14 1.33081e-14 0 0 0 0)
(-2.71051e-14 6.08943e-15 0 -2.71051e-14 2.21324e-14 0 0 0 0)
(-2.71051e-14 2.71911e-15 0 0 1.03209e-14 0 0 0 0)
(0 7.02135e-16 0 0 -7.69187e-15 0 0 0 0)
(0 -1.3822e-14 0 -2.71051e-14 -9.791e-15 0 0 0 0)
(-7.86047e-13 2.22892e-12 0 -3.79471e-13 -2.80624e-12 0 0 0 0)
(7.86047e-13 -2.65787e-12 0 1.0842e-13 5.77842e-13 0 0 0 0)
(-1.89735e-13 5.42214e-13 0 -2.71051e-14 -1.1357e-13 0 0 0 0)
(1.0842e-13 -1.19942e-13 0 8.13152e-14 2.68382e-14 0 0 0 0)
(-5.42101e-14 1.09604e-14 0 5.42101e-14 -2.25485e-15 0 0 0 0)
(0 -8.24104e-15 0 0 -6.68163e-16 0 0 0 0)
(-5.42101e-14 7.96286e-15 0 0 1.02258e-14 0 0 0 0)
(0 2.57418e-15 0 0 -1.97384e-14 0 0 0 0)
(5.42101e-14 -5.67511e-15 0 0 -2.54929e-14 0 0 0 0)
(0 -6.72197e-15 0 0 -1.01971e-14 0 0 0 0)
(5.42101e-14 5.6965e-15 0 -2.71051e-14 -4.64745e-16 0 0 0 0)
(0 1.02205e-14 0 -8.13152e-14 -5.02873e-15 0 0 0 0)
(2.71051e-14 -1.16368e-14 0 -5.42101e-14 -1.15434e-14 0 0 0 0)
(-2.71051e-14 -1.85823e-14 0 0 9.15738e-16 0 0 0 0)
(0 1.12961e-14 0 -8.13152e-14 8.2923e-16 0 0 0 0)
(2.71051e-14 2.39566e-14 0 -1.0842e-13 -1.20017e-14 0 0 0 0)
(0 2.51201e-15 0 -5.42101e-14 -1.4312e-14 0 0 0 0)
(5.42101e-14 -1.36845e-14 0 -5.42101e-14 -1.7907e-14 0 0 0 0)
(0 -7.84684e-15 0 0 -1.3455e-14 0 0 0 0)
(0 3.89475e-15 0 2.71051e-14 -8.78931e-15 0 0 0 0)
(5.42101e-13 -2.35666e-12 0 6.23416e-13 -2.96691e-12 0 0 0 0)
(-5.42101e-13 2.81744e-12 0 -5.42101e-14 5.82074e-13 0 0 0 0)
(1.0842e-13 -5.68853e-13 0 1.6263e-13 -1.49496e-13 0 0 0 0)
(0 1.34264e-13 0 5.42101e-14 1.75391e-14 0 0 0 0)
(-2.71051e-14 -1.90832e-14 0 8.13152e-14 1.33964e-14 0 0 0 0)
(-2.71051e-14 1.84133e-14 0 1.0842e-13 2.67949e-14 0 0 0 0)
(0 -6.41029e-15 0 1.0842e-13 1.6845e-14 0 0 0 0)
(0 -2.50838e-14 0 1.0842e-13 7.2287e-15 0 0 0 0)
(-2.71051e-14 -6.85461e-15 0 1.0842e-13 1.68693e-14 0 0 0 0)
(0 5.15687e-15 0 1.0842e-13 1.79623e-14 0 0 0 0)
(-8.13152e-14 -7.99349e-16 0 1.0842e-13 1.57426e-14 0 0 0 0)
(0 -9.42158e-15 0 1.0842e-13 -5.36699e-15 0 0 0 0)
(0 -6.16508e-16 0 8.13152e-14 -1.35378e-14 0 0 0 0)
(5.42101e-14 3.7287e-15 0 0 8.28531e-15 0 0 0 0)
(-8.13152e-14 -4.57389e-15 0 8.13152e-14 1.35672e-14 0 0 0 0)
(0 -2.64799e-15 0 2.71051e-14 -2.04166e-14 0 0 0 0)
(8.13152e-14 1.8409e-16 0 5.42101e-14 -2.89989e-14 0 0 0 0)
(0 3.57613e-15 0 5.42101e-14 -1.61929e-14 0 0 0 0)
(2.71051e-14 9.81987e-15 0 0 2.57796e-15 0 0 0 0)
(-2.71051e-14 8.42225e-15 0 2.71051e-14 6.2884e-15 0 0 0 0)
(-1.89735e-13 -1.55918e-13 0 -6.77626e-13 4.47114e-12 0 0 0 0)
(2.71051e-13 1.59539e-13 0 5.42101e-14 -9.12392e-13 0 0 0 0)
(-5.42101e-14 -2.23211e-14 0 -8.13152e-14 2.12926e-13 0 0 0 0)
(0 4.29501e-14 0 -1.0842e-13 -4.5624e-14 0 0 0 0)
(2.71051e-14 2.02162e-14 0 -8.13152e-14 3.07408e-15 0 0 0 0)
(0 -4.79242e-15 0 0 -9.33607e-15 0 0 0 0)
(-2.71051e-14 -1.16033e-14 0 -2.71051e-14 -2.36819e-14 0 0 0 0)
(2.71051e-14 2.59848e-15 0 -2.71051e-14 -5.66692e-15 0 0 0 0)
(2.71051e-14 5.05846e-15 0 0 8.67383e-15 0 0 0 0)
(-2.71051e-14 -7.84863e-15 0 0 5.50841e-15 0 0 0 0)
(0 -1.76328e-14 0 2.71051e-14 -1.18375e-15 0 0 0 0)
(2.71051e-14 -1.90599e-14 0 2.71051e-14 -5.07296e-15 0 0 0 0)
(-2.71051e-14 2.01547e-15 0 5.42101e-14 1.01097e-14 0 0 0 0)
(-2.71051e-14 8.52269e-15 0 5.42101e-14 1.27895e-14 0 0 0 0)
(0 -1.74058e-14 0 5.42101e-14 1.65236e-14 0 0 0 0)
(2.71051e-14 -1.86095e-14 0 8.13152e-14 6.17806e-15 0 0 0 0)
(0 6.73573e-15 0 0 3.83859e-15 0 0 0 0)
(-5.42101e-14 1.78923e-14 0 0 8.01093e-15 0 0 0 0)
(2.71051e-14 1.46344e-14 0 0 9.23189e-15 0 0 0 0)
(-2.71051e-14 -4.97161e-15 0 -2.71051e-14 6.93554e-15 0 0 0 0)
(-8.13152e-14 1.20209e-12 0 8.94467e-13 -4.17953e-13 0 0 0 0)
(8.13152e-14 -1.44077e-12 0 -1.35525e-13 1.37842e-13 0 0 0 0)
(-8.13152e-14 2.97915e-13 0 5.42101e-14 -4.63515e-15 0 0 0 0)
(0 -7.55884e-14 0 5.42101e-14 1.01238e-14 0 0 0 0)
(2.71051e-14 1.72047e-14 0 5.42101e-14 -3.15382e-14 0 0 0 0)
(5.42101e-14 -8.3426e-15 0 0 -2.21133e-14 0 0 0 0)
(0 -2.74114e-15 0 2.71051e-14 -8.94588e-15 0 0 0 0)
(0 7.27187e-15 0 0 -4.13636e-15 0 0 0 0)
(2.71051e-14 4.32073e-15 0 0 -1.67179e-14 0 0 0 0)
(2.71051e-14 -4.70071e-15 0 -2.71051e-14 -8.48052e-15 0 0 0 0)
(0 -1.13807e-14 0 0 -5.74602e-15 0 0 0 0)
(2.71051e-14 1.87182e-15 0 -2.71051e-14 2.23784e-16 0 0 0 0)
(0 1.7246e-14 0 -8.13152e-14 1.09761e-14 0 0 0 0)
(-2.71051e-14 1.01427e-14 0 -5.42101e-14 4.21725e-15 0 0 0 0)
(0 -1.11854e-14 0 0 4.23192e-16 0 0 0 0)
(-5.42101e-14 -1.5333e-14 0 0 1.40609e-14 0 0 0 0)
(0 2.01696e-15 0 0 1.50056e-14 0 0 0 0)
(0 8.96943e-15 0 2.71051e-14 1.4231e-14 0 0 0 0)
(0 8.74448e-15 0 0 9.72749e-15 0 0 0 0)
(0 -7.74517e-15 0 -2.71051e-14 -1.62184e-15 0 0 0 0)
(5.42101e-13 -4.36029e-13 0 -6.23416e-13 -1.87216e-12 0 0 0 0)
(-5.42101e-13 5.72857e-13 0 8.13152e-14 3.5117e-13 0 0 0 0)
(1.35525e-13 -1.50039e-13 0 -1.0842e-13 -9.66254e-14 0 0 0 0)
(-2.71051e-14 1.60471e-14 0 0 1.90487e-14 0 0 0 0)
(2.71051e-14 -1.20209e-14 0 0 -7.10427e-15 0 0 0 0)
(-2.71051e-14 1.77999e-14 0 -5.42101e-14 5.71513e-15 0 0 0 0)
(-2.71051e-14 6.37363e-15 0 -2.71051e-14 1.87144e-14 0 0 0 0)
(-2.71051e-14 -5.1735e-15 0 -2.71051e-14 1.38361e-14 0 0 0 0)
(0 7.14297e-16 0 -5.42101e-14 1.38337e-14 0 0 0 0)
(-5.42101e-14 3.1232e-15 0 0 2.13714e-14 0 0 0 0)
(0 -8.92845e-15 0 -5.42101e-14 2.54631e-14 0 0 0 0)
(-8.13152e-14 -2.33778e-15 0 -8.13152e-14 2.1916e-14 0 0 0 0)
(0 6.00893e-15 0 -8.13152e-14 -5.6283e-15 0 0 0 0)
(2.71051e-14 -2.03026e-15 0 -5.42101e-14 -2.55211e-14 0 0 0 0)
(1.0842e-13 -7.56216e-15 0 -5.42101e-14 -2.6443e-14 0 0 0 0)
(0 -4.02705e-15 0 0 8.2595e-15 0 0 0 0)
(0 6.9059e-15 0 0 1.24317e-14 0 0 0 0)
(-2.71051e-14 1.26142e-14 0 -2.71051e-14 5.06963e-15 0 0 0 0)
(-2.71051e-14 -1.21844e-15 0 0 5.49624e-17 0 0 0 0)
(0 -1.30773e-14 0 2.71051e-14 -3.19606e-15 0 0 0 0)
(-6.23416e-13 -3.18899e-13 0 -1.35525e-13 6.4543e-13 0 0 0 0)
(5.69206e-13 3.34757e-13 0 2.71051e-14 -1.73621e-13 0 0 0 0)
(-1.35525e-13 -3.42059e-14 0 -2.71051e-14 2.87157e-14 0 0 0 0)
(1.0842e-13 1.39327e-14 0 -8.13152e-14 -1.89723e-14 0 0 0 0)
(0 3.87112e-15 0 -1.0842e-13 4.91828e-15 0 0 0 0)
(0 1.7476e-14 0 -8.13152e-14 -7.31562e-15 0 0 0 0)
(0 5.37982e-15 0 -8.13152e-14 -9.88513e-15 0 0 0 0)
(0 2.39123e-15 0 -5.42101e-14 -4.89115e-15 0 0 0 0)
(2.71051e-14 1.18561e-14 0 -5.42101e-14 5.24083e-15 0 0 0 0)
(5.42101e-14 6.92865e-15 0 0 -3.90189e-15 0 0 0 0)
(-5.42101e-14 -1.08361e-14 0 2.71051e-14 -1.52324e-16 0 0 0 0)
(0 -2.92196e-14 0 8.13152e-14 -3.67786e-16 0 0 0 0)
(5.42101e-14 -3.01911e-14 0 1.0842e-13 -1.12902e-14 0 0 0 0)
(0 -1.0672e-14 0 1.0842e-13 -2.1001e-14 0 0 0 0)
(0 2.25952e-14 0 5.42101e-14 5.91007e-16 0 0 0 0)
(-5.42101e-14 2.35416e-14 0 0 2.19545e-14 0 0 0 0)
(0 -1.17291e-15 0 0 1.30658e-14 0 0 0 0)
(0 -3.40728e-15 0 0 -9.98883e-15 0 0 0 0)
(5.42101e-14 4.78793e-16 0 0 -1.64034e-14 0 0 0 0)
(0 -4.60408e-15 0 0 -2.03979e-15 0 0 0 0)
(4.06576e-13 3.57806e-14 0 4.06576e-13 7.0574e-13 0 0 0 0)
(-4.06576e-13 -4.38574e-14 0 -1.0842e-13 -4.77979e-14 0 0 0 0)
(2.71051e-14 4.6089e-15 0 8.13152e-14 3.67991e-14 0 0 0 0)
(-2.71051e-14 -7.75036e-15 0 0 8.25592e-15 0 0 0 0)
(-5.42101e-14 -3.64221e-16 0 0 1.65884e-14 0 0 0 0)
(-2.71051e-14 2.99646e-15 0 0 7.66728e-16 0 0 0 0)
(8.13152e-14 8.79809e-15 0 -8.13152e-14 -1.9348e-14 0 0 0 0)
(0 9.95246e-15 0 -2.71051e-14 -2.2391e-14 0 0 0 0)
(2.71051e-14 1.70356e-15 0 -2.71051e-14 -3.687e-14 0 0 0 0)
(2.71051e-14 -2.26996e-15 0 -2.71051e-14 -4.66696e-14 0 0 0 0)
(5.42101e-14 -5.39435e-15 0 2.71051e-14 -3.937e-14 0 0 0 0)
(-2.71051e-14 -1.34757e-14 0 2.71051e-14 -1.29511e-15 0 0 0 0)
(0 -1.46243e-14 0 2.71051e-14 1.84767e-14 0 0 0 0)
(0 9.85098e-15 0 0 2.65506e-14 0 0 0 0)
(-2.71051e-14 3.53934e-14 0 0 2.05119e-14 0 0 0 0)
(-2.71051e-14 8.44775e-15 0 -2.71051e-14 5.69491e-15 0 0 0 0)
(0 -2.50375e-14 0 2.71051e-14 3.09824e-15 0 0 0 0)
(2.71051e-14 -1.6855e-14 0 2.71051e-14 1.17378e-16 0 0 0 0)
(-2.71051e-14 6.73059e-15 0 2.71051e-14 -1.84516e-15 0 0 0 0)
(-2.71051e-14 5.36598e-15 0 -2.71051e-14 -2.45052e-15 0 0 0 0)
(-2.98156e-13 3.39043e-13 0 -9.75782e-13 -1.01056e-12 0 0 0 0)
(2.43945e-13 -3.34184e-13 0 1.89735e-13 1.45648e-13 0 0 0 0)
(-8.13152e-14 2.1848e-14 0 -8.13152e-14 -4.53885e-14 0 0 0 0)
(5.42101e-14 -6.27806e-15 0 8.13152e-14 1.25499e-14 0 0 0 0)
(0 -3.61808e-15 0 5.42101e-14 2.32722e-14 0 0 0 0)
(-5.42101e-14 -1.84603e-14 0 8.13152e-14 2.17439e-14 0 0 0 0)
(0 -1.77779e-14 0 8.13152e-14 4.0567e-15 0 0 0 0)
(0 -1.51308e-14 0 2.71051e-14 -1.28249e-14 0 0 0 0)
(5.42101e-14 -1.24226e-14 0 2.71051e-14 -2.69814e-14 0 0 0 0)
(2.71051e-14 4.42871e-15 0 -5.42101e-14 -2.55058e-14 0 0 0 0)
(5.42101e-14 3.45385e-14 0 -1.35525e-13 -2.18834e-14 0 0 0 0)
(0 2.8627e-14 0 -1.35525e-13 -5.22252e-15 0 0 0 0)
(0 -2.34538e-15 0 -1.0842e-13 3.46709e-15 0 0 0 0)
(-5.42101e-14 -8.63675e-15 0 -5.42101e-14 1.89386e-14 0 0 0 0)
(0 1.73947e-15 0 -1.0842e-13 -8.22549e-15 0 0 0 0)
(5.42101e-14 6.12796e-15 0 -5.42101e-14 -2.76359e-14 0 0 0 0)
(2.71051e-14 -6.75044e-15 0 2.71051e-14 -6.18946e-15 0 0 0 0)
(-2.71051e-14 -8.35068e-15 0 -2.71051e-14 1.56079e-14 0 0 0 0)
(0 -2.0891e-15 0 -2.71051e-14 5.25693e-15 0 0 0 0)
(0 -3.08402e-16 0 0 -2.10035e-15 0 0 0 0)
(-4.06576e-13 -8.29129e-13 0 7.31836e-13 5.45929e-13 0 0 0 0)
(5.14996e-13 9.21311e-13 0 -2.71051e-14 -1.67503e-13 0 0 0 0)
(-5.42101e-14 -1.28489e-13 0 1.35525e-13 2.28309e-14 0 0 0 0)
(0 6.09103e-14 0 2.71051e-14 -9.59638e-15 0 0 0 0)
(0 8.82983e-15 0 2.71051e-14 -2.46922e-15 0 0 0 0)
(0 -1.6219e-14 0 2.71051e-14 5.00519e-15 0 0 0 0)
(0 -2.57707e-14 0 1.0842e-13 1.94891e-14 0 0 0 0)
(-5.42101e-14 -2.10856e-14 0 8.13152e-14 2.95793e-14 0 0 0 0)
(-5.42101e-14 -1.09774e-14 0 8.13152e-14 3.29924e-14 0 0 0 0)
(-2.71051e-14 2.82803e-15 0 5.42101e-14 2.9022e-14 0 0 0 0)
(-1.0842e-13 1.4889e-14 0 2.71051e-14 2.19262e-14 0 0 0 0)
(5.42101e-14 1.18748e-14 0 0 -1.48746e-14 0 0 0 0)
(5.42101e-14 9.53684e-15 0 0 -1.92287e-14 0 0 0 0)
(2.71051e-14 -1.84161e-15 0 -5.42101e-14 -1.21173e-14 0 0 0 0)
(0 -1.11811e-14 0 0 -1.00311e-14 0 0 0 0)
(5.42101e-14 1.04838e-14 0 0 -2.71397e-14 0 0 0 0)
(2.71051e-14 1.82063e-14 0 -1.0842e-13 -2.45828e-14 0 0 0 0)
(-2.71051e-14 -5.40866e-15 0 0 -2.51646e-15 0 0 0 0)
(0 -1.09776e-14 0 0 -4.69982e-15 0 0 0 0)
(0 2.2094e-15 0 2.71051e-14 5.18349e-16 0 0 0 0)
(4.33681e-13 7.17469e-13 0 -1.6263e-13 2.32345e-12 0 0 0 0)
(-4.33681e-13 -8.57282e-13 0 -5.42101e-14 -3.87442e-13 0 0 0 0)
(2.71051e-14 1.79755e-13 0 -1.35525e-13 9.95042e-14 0 0 0 0)
(-8.13152e-14 -3.15782e-14 0 -2.71051e-14 -2.29302e-14 0 0 0 0)
(5.42101e-14 1.09835e-14 0 -8.13152e-14 -2.82309e-14 0 0 0 0)
(0 3.49795e-15 0 -2.71051e-14 -2.45671e-14 0 0 0 0)
(2.71051e-14 6.79621e-15 0 -5.42101e-14 -7.03372e-15 0 0 0 0)
(0 -1.62746e-15 0 0 1.18947e-14 0 0 0 0)
(0 -1.29799e-14 0 2.71051e-14 1.30371e-14 0 0 0 0)
(2.71051e-14 -6.63743e-15 0 2.71051e-14 1.00446e-14 0 0 0 0)
(0 -9.3581e-15 0 1.0842e-13 1.35509e-14 0 0 0 0)
(-5.42101e-14 -1.25279e-14 0 1.0842e-13 1.65028e-14 0 0 0 0)
(-5.42101e-14 4.11878e-16 0 1.0842e-13 9.3761e-15 0 0 0 0)
(0 5.60831e-16 0 8.13152e-14 -7.35228e-15 0 0 0 0)
(0 -1.32829e-14 0 1.0842e-13 9.97925e-15 0 0 0 0)
(-2.71051e-14 -8.4237e-15 0 1.0842e-13 1.53959e-14 0 0 0 0)
(0 1.78728e-14 0 0 -4.16844e-15 0 0 0 0)
(8.13152e-14 1.15323e-14 0 0 -1.27169e-14 0 0 0 0)
(2.71051e-14 9.45704e-16 0 0 4.73895e-15 0 0 0 0)
(-2.71051e-14 3.87307e-15 0 0 7.24899e-15 0 0 0 0)
(-6.23416e-13 1.10688e-12 0 -3.52366e-13 -2.6502e-12 0 0 0 0)
(5.69206e-13 -1.30263e-12 0 2.71051e-14 4.55788e-13 0 0 0 0)
(-8.13152e-14 2.36023e-13 0 -1.0842e-13 -1.20647e-13 0 0 0 0)
(8.13152e-14 -6.68247e-14 0 0 -3.09152e-15 0 0 0 0)
(0 7.19298e-15 0 0 -2.17963e-14 0 0 0 0)
(5.42101e-14 4.97813e-15 0 -5.42101e-14 -2.1223e-14 0 0 0 0)
(2.71051e-14 1.0691e-14 0 -8.13152e-14 -2.7745e-14 0 0 0 0)
(2.71051e-14 -1.01477e-15 0 -8.13152e-14 -2.84207e-14 0 0 0 0)
(0 -1.28275e-14 0 -5.42101e-14 -2.3916e-14 0 0 0 0)
(0 3.34179e-15 0 -2.71051e-14 -1.55854e-14 0 0 0 0)
(0 2.13472e-14 0 -1.0842e-13 -1.57295e-14 0 0 0 0)
(2.71051e-14 7.70002e-15 0 -8.13152e-14 -6.21062e-15 0 0 0 0)
(0 -1.43183e-14 0 -2.71051e-14 4.4932e-15 0 0 0 0)
(2.71051e-14 -1.23846e-15 0 -2.71051e-14 8.3542e-16 0 0 0 0)
(2.71051e-14 1.15671e-14 0 -1.0842e-13 4.47303e-15 0 0 0 0)
(-2.71051e-14 -3.6639e-15 0 -2.71051e-14 2.37938e-14 0 0 0 0)
(-5.42101e-14 -9.90652e-15 0 5.42101e-14 2.45191e-14 0 0 0 0)
(-2.71051e-14 3.49873e-15 0 -5.42101e-14 -7.83835e-16 0 0 0 0)
(0 8.98827e-15 0 0 2.67183e-15 0 0 0 0)
(-2.71051e-14 -9.77854e-15 0 -2.71051e-14 -3.60281e-15 0 0 0 0)
(8.13152e-14 -1.47694e-12 0 1.27394e-12 -2.36181e-12 0 0 0 0)
(-1.6263e-13 1.67227e-12 0 -1.35525e-13 4.1367e-13 0 0 0 0)
(0 -2.79125e-13 0 3.25261e-13 -9.6569e-14 0 0 0 0)
(2.71051e-14 6.72723e-14 0 5.42101e-14 1.63285e-14 0 0 0 0)
(-2.71051e-14 -7.14801e-15 0 1.0842e-13 6.03472e-15 0 0 0 0)
(0 -2.45079e-15 0 1.0842e-13 8.30344e-15 0 0 0 0)
(-5.42101e-14 -4.01463e-16 0 1.0842e-13 1.51393e-15 0 0 0 0)
(5.42101e-14 2.20155e-15 0 5.42101e-14 -8.5224e-15 0 0 0 0)
(2.71051e-14 -1.44571e-16 0 2.71051e-14 -9.9994e-16 0 0 0 0)
(-2.71051e-14 1.54907e-15 0 5.42101e-14 8.31129e-15 0 0 0 0)
(-5.42101e-14 1.66371e-17 0 5.42101e-14 -1.09302e-16 0 0 0 0)
(5.42101e-14 7.69481e-15 0 5.42101e-14 -1.98539e-14 0 0 0 0)
(2.71051e-14 7.45792e-15 0 -2.71051e-14 -5.7336e-15 0 0 0 0)
(-8.13152e-14 5.40661e-16 0 0 4.14059e-15 0 0 0 0)
(0 9.67546e-15 0 0 -1.64209e-14 0 0 0 0)
(5.42101e-14 1.16224e-14 0 -2.71051e-14 -2.28635e-14 0 0 0 0)
(0 -6.70485e-15 0 0 -8.64492e-15 0 0 0 0)
(2.71051e-14 -1.0315e-14 0 0 -5.63966e-15 0 0 0 0)
(0 -1.87327e-15 0 0 -1.24073e-14 0 0 0 0)
(5.42101e-14 4.80405e-15 0 0 -1.48891e-14 0 0 0 0)
(5.42101e-13 -8.41265e-13 0 -7.04731e-13 2.75467e-12 0 0 0 0)
(-4.06576e-13 9.62611e-13 0 8.13152e-14 -4.36462e-13 0 0 0 0)
(1.0842e-13 -1.61318e-13 0 -1.35525e-13 1.19788e-13 0 0 0 0)
(-8.13152e-14 3.5779e-14 0 -5.42101e-14 3.98157e-15 0 0 0 0)
(0 -8.32128e-16 0 -5.42101e-14 1.67371e-14 0 0 0 0)
(0 4.57342e-16 0 -5.42101e-14 1.19617e-14 0 0 0 0)
(-2.71051e-14 -6.13479e-15 0 -2.71051e-14 1.87305e-14 0 0 0 0)
(0 -3.52864e-15 0 0 1.8498e-14 0 0 0 0)
(0 4.00619e-15 0 -2.71051e-14 2.00576e-14 0 0 0 0)
(-2.71051e-14 4.23242e-15 0 -5.42101e-14 1.46363e-14 0 0 0 0)
(0 -6.81799e-15 0 0 1.42761e-14 0 0 0 0)
(-5.42101e-14 2.07572e-15 0 0 2.14377e-14 0 0 0 0)
(0 9.67623e-15 0 0 4.50557e-15 0 0 0 0)
(2.71051e-14 -1.19257e-14 0 0 4.30354e-15 0 0 0 0)
(-2.71051e-14 -1.5437e-14 0 5.42101e-14 1.58906e-14 0 0 0 0)
(0 4.11206e-15 0 0 1.0065e-14 0 0 0 0)
(-2.71051e-14 7.31728e-15 0 0 1.56195e-16 0 0 0 0)
(2.71051e-14 -2.63652e-16 0 5.42101e-14 9.45261e-15 0 0 0 0)
(-2.71051e-14 -2.61157e-16 0 0 1.07349e-14 0 0 0 0)
(-2.71051e-14 1.75178e-14 0 0 1.1587e-14 0 0 0 0)
)
;

boundaryField
{
    movingWall
    {
        type            extrapolatedCalculated;
        value           nonuniform List<tensor> 
20
(
(5.42101e-13 -8.41265e-13 0 -2.30926e-12 4.01032e-12 0 0 0 0)
(-4.06576e-13 9.62611e-13 0 1.77636e-13 -6.45258e-13 0 0 0 0)
(1.0842e-13 -1.61318e-13 0 -6.66134e-13 1.59877e-13 0 0 0 0)
(-8.13152e-14 3.5779e-14 0 -3.10862e-13 1.53912e-17 0 0 0 0)
(0 -8.32128e-16 0 -3.10862e-13 1.67608e-14 0 0 0 0)
(0 4.57342e-16 0 -3.10862e-13 3.3439e-15 0 0 0 0)
(-2.71051e-14 -6.13479e-15 0 -3.10862e-13 1.49314e-14 0 0 0 0)
(0 -3.52864e-15 0 -2.22045e-13 2.78831e-14 0 0 0 0)
(0 4.00619e-15 0 -2.66454e-13 2.90459e-14 0 0 0 0)
(-2.71051e-14 4.23242e-15 0 -2.22045e-13 1.18583e-14 0 0 0 0)
(0 -6.81799e-15 0 -2.66454e-13 1.21162e-14 0 0 0 0)
(-5.42101e-14 2.07572e-15 0 -1.77636e-13 3.91303e-14 0 0 0 0)
(0 9.67623e-15 0 -8.88178e-14 3.81337e-15 0 0 0 0)
(2.71051e-14 -1.19257e-14 0 -1.33227e-13 4.2533e-16 0 0 0 0)
(-2.71051e-14 -1.5437e-14 0 -1.77636e-13 5.15163e-14 0 0 0 0)
(0 4.11206e-15 0 -8.88178e-14 6.21732e-14 0 0 0 0)
(-2.71051e-14 7.31728e-15 0 -8.88178e-14 3.50681e-14 0 0 0 0)
(2.71051e-14 -2.63652e-16 0 -4.44089e-14 3.29041e-14 0 0 0 0)
(-2.71051e-14 -2.61157e-16 0 -8.88178e-14 3.61227e-14 0 0 0 0)
(-2.71051e-14 1.75178e-14 0 -4.44089e-14 3.39487e-14 0 0 0 0)
)
;
    }
    fixedWalls
    {
        type            extrapolatedCalculated;
        value           nonuniform List<tensor> 
60
(
(2.62013e-12 7.93357e-12 0 1.0842e-13 2.20142e-12 0 0 0 0)
(-2.22045e-12 8.72088e-13 0 -4.06576e-13 -2.98979e-12 0 0 0 0)
(9.76996e-13 -4.0256e-12 0 -2.71051e-13 -7.90005e-13 0 0 0 0)
(-3.28626e-12 -2.28793e-12 0 1.02999e-12 2.22486e-12 0 0 0 0)
(5.19584e-12 4.87385e-12 0 -2.43945e-13 -6.43944e-13 0 0 0 0)
(-4.26326e-12 -4.86371e-12 0 -2.71051e-13 -1.36477e-12 0 0 0 0)
(4.04121e-12 -5.85216e-13 0 1.35525e-13 4.0017e-12 0 0 0 0)
(-3.64153e-12 1.11431e-11 0 -3.79471e-13 -2.80624e-12 0 0 0 0)
(2.35367e-12 -1.18102e-11 0 6.23416e-13 -2.96691e-12 0 0 0 0)
(-1.06581e-12 -7.24543e-13 0 -6.77626e-13 4.47114e-12 0 0 0 0)
(-3.55271e-13 6.07439e-12 0 8.94467e-13 -4.17953e-13 0 0 0 0)
(2.4869e-12 -2.39635e-12 0 -6.23416e-13 -1.87216e-12 0 0 0 0)
(-2.84217e-12 -1.41424e-12 0 -1.35525e-13 6.4543e-13 0 0 0 0)
(1.90958e-12 1.85366e-13 0 4.06576e-13 7.0574e-13 0 0 0 0)
(-1.15463e-12 1.40872e-12 0 -9.75782e-13 -1.01056e-12 0 0 0 0)
(-2.04281e-12 -3.85686e-12 0 7.31836e-13 5.45929e-13 0 0 0 0)
(1.90958e-12 3.59244e-12 0 -1.6263e-13 2.32345e-12 0 0 0 0)
(-2.84217e-12 5.43692e-12 0 -3.52366e-13 -2.6502e-12 0 0 0 0)
(5.32907e-13 -7.00835e-12 0 1.27394e-12 -2.36181e-12 0 0 0 0)
(2.30926e-12 -4.01032e-12 0 -7.04731e-13 2.75467e-12 0 0 0 0)
(0 -9.39488e-15 0 0 -2.3389e-16 0 0 0 0)
(8.88178e-14 1.03304e-14 0 -5.42101e-14 -1.67715e-14 0 0 0 0)
(8.88178e-14 5.76912e-14 0 5.42101e-14 -1.19033e-14 0 0 0 0)
(-8.88178e-14 5.79435e-14 0 2.71051e-14 1.14048e-14 0 0 0 0)
(0 1.20719e-14 0 -2.71051e-14 2.29034e-14 0 0 0 0)
(-4.44089e-14 -3.367e-14 0 2.71051e-14 1.05029e-14 0 0 0 0)
(0 -2.99398e-14 0 -2.71051e-14 -9.791e-15 0 0 0 0)
(0 5.49399e-15 0 2.71051e-14 -8.78931e-15 0 0 0 0)
(-8.88178e-14 5.21743e-15 0 2.71051e-14 6.2884e-15 0 0 0 0)
(-4.44089e-14 -1.96596e-14 0 -2.71051e-14 6.93554e-15 0 0 0 0)
(-4.44089e-14 -2.25247e-14 0 -2.71051e-14 -1.62184e-15 0 0 0 0)
(0 -1.31722e-14 0 2.71051e-14 -3.19606e-15 0 0 0 0)
(-8.88178e-14 -9.74047e-15 0 0 -2.03979e-15 0 0 0 0)
(0 -5.01305e-15 0 -2.71051e-14 -2.45052e-15 0 0 0 0)
(0 6.16013e-17 0 0 -2.10035e-15 0 0 0 0)
(0 3.38834e-15 0 2.71051e-14 5.18349e-16 0 0 0 0)
(-4.44089e-14 -2.01179e-15 0 0 7.24899e-15 0 0 0 0)
(-4.44089e-14 -2.56076e-14 0 -2.71051e-14 -3.60281e-15 0 0 0 0)
(8.88178e-14 1.23994e-14 0 0 -1.48891e-14 0 0 0 0)
(-4.44089e-14 3.39487e-14 0 0 1.1587e-14 0 0 0 0)
(5.96311e-13 1.64085e-12 0 2.62013e-12 7.93357e-12 0 0 0 0)
(-5.42101e-13 -1.90047e-12 0 -2.66454e-13 -1.37019e-12 0 0 0 0)
(1.35525e-13 3.22302e-13 0 5.32907e-13 3.31713e-13 0 0 0 0)
(-2.71051e-14 -9.46149e-14 0 2.22045e-13 -8.09836e-14 0 0 0 0)
(5.42101e-14 1.70909e-14 0 3.9968e-13 -4.6746e-14 0 0 0 0)
(-2.71051e-14 1.60738e-14 0 4.44089e-13 -1.26201e-14 0 0 0 0)
(-5.42101e-14 1.95509e-14 0 2.22045e-13 1.75491e-14 0 0 0 0)
(-2.71051e-14 7.45019e-15 0 2.66454e-13 6.55836e-14 0 0 0 0)
(-5.42101e-14 -8.58681e-15 0 1.77636e-13 4.73499e-14 0 0 0 0)
(0 -8.63691e-15 0 8.88178e-14 3.12364e-14 0 0 0 0)
(0 -4.97932e-15 0 1.77636e-13 1.28022e-14 0 0 0 0)
(0 1.32908e-15 0 8.88178e-14 1.13191e-14 0 0 0 0)
(0 4.35077e-15 0 1.77636e-13 1.81186e-14 0 0 0 0)
(0 -2.11776e-15 0 1.33227e-13 2.87222e-14 0 0 0 0)
(0 -1.22754e-14 0 8.88178e-14 9.64754e-15 0 0 0 0)
(0 -2.2993e-15 0 8.88178e-14 -2.03796e-14 0 0 0 0)
(0 1.11468e-14 0 1.33227e-13 4.50349e-16 0 0 0 0)
(-5.42101e-14 5.4351e-15 0 4.44089e-14 2.42075e-14 0 0 0 0)
(0 -3.70316e-15 0 -8.88178e-14 2.21907e-14 0 0 0 0)
(0 -7.89641e-15 0 0 9.39488e-15 0 0 0 0)
)
;
    }
    frontAndBack
    {
        type            empty;
    }
}


// ************************************************************************* //
