/*--------------------------------*- C++ -*----------------------------------*\
| =========                 |                                                 |
| \\      /  F ield         | OpenFOAM: The Open Source CFD Toolbox           |
|  \\    /   O peration     | Version:  2312                                  |
|   \\  /    A nd           | Website:  www.openfoam.com                      |
|    \\/     M anipulation  |                                                 |
\*---------------------------------------------------------------------------*/
FoamFile
{
    version     2.0;
    format      ascii;
    arch        "LSB;label=32;scalar=64";
    class       volScalarField;
    location    "7.875";
    object      Lambda2Field;
}
// * * * * * * * * * * * * * * * * * * * * * * * * * * * * * * * * * * * * * //

dimensions      [0 0 -2 0 0 0 0];

internalField   nonuniform List<scalar> 
400
(
5.33488e-25
2.76915e-25
3.58392e-26
-1.82986e-27
2.9122e-27
8.88326e-28
8.56032e-28
9.36622e-28
1.22773e-27
0
0
0
1.17928e-28
0
0
-3.48373e-29
3.02134e-28
3.29324e-28
2.00749e-28
0
1.79537e-25
2.44061e-25
6.31816e-27
1.61082e-27
0
-6.26637e-27
0
7.64017e-29
1.99447e-27
2.47795e-27
1.13055e-27
-5.76818e-28
0
-4.5359e-28
1.26108e-27
1.09934e-28
0
1.12298e-28
0
3.66157e-28
2.37384e-25
1.36169e-25
0
4.70333e-27
1.41244e-29
3.66009e-28
3.10361e-27
1.50166e-27
0
0
0
8.66671e-28
1.36699e-27
3.64003e-29
0
1.00783e-28
6.11327e-29
0
0
1.65791e-27
0
1.69229e-25
1.31353e-26
3.72237e-27
4.783e-28
-1.60305e-27
0
3.3741e-28
4.97303e-28
1.96628e-29
0
1.52227e-28
0
0
8.41689e-28
3.92284e-28
0
-8.1893e-28
0
8.87741e-28
5.505e-25
1.54005e-25
6.26686e-27
1.63255e-27
5.35114e-29
5.23337e-28
3.25735e-28
3.90999e-28
4.9261e-28
0
6.25043e-28
-4.64855e-28
0
-1.44583e-27
3.53339e-28
3.30428e-28
5.31102e-28
2.44503e-28
5.65443e-28
4.39206e-28
1.21486e-24
6.5248e-26
2.63579e-26
0
6.09517e-28
0
0
5.47601e-28
4.53582e-28
4.56379e-29
5.43774e-28
1.52426e-30
7.37358e-28
0
5.49581e-28
-3.9229e-28
0
8.7494e-28
9.68952e-29
0
7.34933e-25
6.45686e-25
1.83671e-26
0
4.97539e-29
0
5.18968e-28
-1.30097e-28
1.2495e-27
1.07723e-27
3.23508e-28
1.22122e-28
9.87737e-29
-4.36595e-28
1.36265e-28
0
5.6963e-28
1.06522e-28
0
3.74647e-28
0
4.57343e-26
2.13028e-26
0
1.06688e-27
0
1.2042e-28
0
6.5794e-28
0
1.14798e-28
-8.0579e-28
1.21721e-27
8.38577e-31
0
-1.86269e-27
0
1.0625e-27
0
1.05567e-28
0
1.4114e-25
0
7.27846e-27
0
2.71434e-27
0
-2.66734e-27
0
5.59109e-28
3.14339e-27
-9.92685e-28
0
6.86464e-29
1.65637e-27
0
1.58062e-27
1.93862e-28
3.07534e-29
2.67829e-28
1.41654e-25
8.2117e-26
4.75378e-27
-2.57511e-27
0
0
9.35415e-28
0
8.16324e-29
3.03426e-29
0
0
8.43943e-28
6.25588e-28
0
-7.78548e-28
0
6.4175e-29
1.38769e-28
1.82857e-28
1.08184e-24
2.01874e-25
2.27622e-26
-3.99517e-27
1.66735e-27
4.88998e-28
0
0
2.84154e-28
1.99332e-28
0
0
0
0
0
1.97708e-28
0
2.43117e-28
0
2.09933e-28
5.65701e-25
1.69902e-25
2.60368e-26
3.62854e-28
8.65963e-29
-2.30249e-28
4.57676e-28
3.31665e-28
0
4.56737e-28
4.84012e-28
6.7041e-28
0
7.61385e-28
1.65318e-27
0
0
0
3.74172e-31
-3.44245e-28
4.31867e-25
3.92177e-26
1.76435e-27
0
0
-1.36755e-27
0
-1.05706e-28
9.19658e-29
1.52247e-29
6.6193e-29
-2.37586e-27
0
-7.16018e-28
1.22489e-27
4.82001e-28
0
0
2.6913e-28
0
1.79851e-25
7.03967e-27
1.10946e-27
6.81603e-29
2.75207e-28
5.87872e-31
1.68903e-27
0
6.88509e-28
7.96211e-28
1.66783e-27
0
0
0
7.3391e-28
0
0
0
2.89617e-28
0
0
-3.89721e-27
2.9442e-27
0
0
0
0
-2.45643e-28
7.8189e-28
4.10467e-28
0
-3.85241e-27
2.54287e-28
8.2687e-28
0
4.31545e-28
1.41887e-28
4.69951e-28
5.66253e-29
0
0
3.08512e-27
0
1.65098e-27
2.39333e-28
-4.14566e-28
0
0
2.04611e-27
8.87992e-28
9.21635e-28
2.21252e-28
3.9248e-28
2.46663e-28
0
7.36564e-28
0
6.33257e-30
0
5.9886e-29
7.13969e-26
1.96585e-25
0
1.38172e-27
2.03362e-27
0
3.6626e-28
0
0
0
0
0
2.98339e-27
4.56041e-29
0
-1.78616e-28
0
1.6172e-28
2.26813e-29
5.25479e-29
0
1.72435e-25
0
9.55747e-30
0
1.80552e-28
0
8.172e-28
6.9538e-28
0
0
0
3.88097e-28
3.42663e-29
0
6.65456e-28
1.09189e-27
0
0
2.78028e-28
0
-5.55119e-26
0
3.91346e-27
0
-1.96769e-28
2.89521e-27
1.91978e-28
1.82717e-28
1.53053e-28
7.35147e-28
8.11314e-28
1.29377e-28
1.71444e-29
0
2.07713e-28
0
3.18057e-29
0
2.21685e-28
8.8674e-25
2.43579e-25
3.36177e-26
0
4.51098e-29
0
6.27054e-28
0
0
0
0
4.59575e-28
0
1.85204e-29
0
0
1.34101e-29
7.50593e-29
1.15254e-28
1.34259e-28
)
;

boundaryField
{
    movingWall
    {
        type            calculated;
        value           nonuniform List<scalar> 
20
(
2.23658e-24
3.36298e-25
1.19215e-25
-4.51019e-27
2.58677e-28
-1.30989e-28
2.64176e-27
7.83515e-28
0
-2.05103e-28
1.81668e-27
1.16245e-27
0
1.58901e-27
3.47684e-27
0
8.47788e-29
7.46392e-28
7.57879e-28
0
)
;
    }
    fixedWalls
    {
        type            calculated;
        value           nonuniform List<scalar> 
60
(
7.72522e-24
4.57581e-24
2.04566e-24
2.59346e-24
5.77366e-24
3.18089e-24
1.60642e-23
3.64649e-24
0
1.62693e-24
5.55956e-24
4.9989e-24
1.01702e-24
5.73435e-25
0
0
3.06227e-24
5.10776e-24
0
8.1589e-24
0
0
3.27216e-27
1.70063e-27
0
0
8.1152e-28
1.48915e-28
3.0073e-28
5.80976e-28
6.18409e-28
-3.46819e-28
2.788e-29
1.35879e-28
0
9.18412e-29
5.35597e-29
7.07076e-28
2.60121e-28
1.34259e-28
4.65481e-24
8.00259e-25
1.90124e-25
-1.44504e-26
9.76962e-27
7.29746e-27
7.27992e-27
2.71981e-27
1.41341e-27
0
0
1.18046e-28
7.72852e-28
0
0
0
1.48505e-27
8.27371e-28
3.28907e-28
0
)
;
    }
    frontAndBack
    {
        type            empty;
    }
}


// ************************************************************************* //
