/*--------------------------------*- C++ -*----------------------------------*\
| =========                 |                                                 |
| \\      /  F ield         | OpenFOAM: The Open Source CFD Toolbox           |
|  \\    /   O peration     | Version:  2312                                  |
|   \\  /    A nd           | Website:  www.openfoam.com                      |
|    \\/     M anipulation  |                                                 |
\*---------------------------------------------------------------------------*/
FoamFile
{
    version     2.0;
    format      ascii;
    arch        "LSB;label=32;scalar=64";
    class       volScalarField;
    location    "7.875";
    object      p;
}
// * * * * * * * * * * * * * * * * * * * * * * * * * * * * * * * * * * * * * //

dimensions      [0 2 -2 0 0 0 0];

internalField   nonuniform List<scalar> 
400
(
3.1943e-16
4.04728e-15
4.35379e-15
5.44738e-15
6.08431e-15
6.84509e-15
7.13399e-15
7.63063e-15
8.10511e-15
8.34552e-15
8.51235e-15
8.693e-15
8.90443e-15
9.14773e-15
9.21012e-15
9.40036e-15
9.60154e-15
9.83016e-15
9.61759e-15
9.50293e-15
3.01417e-15
2.60733e-15
4.60123e-15
5.50042e-15
6.40709e-15
6.80205e-15
7.24592e-15
7.67486e-15
8.22855e-15
8.2329e-15
8.48578e-15
8.57322e-15
8.96059e-15
9.31155e-15
9.26471e-15
9.45614e-15
9.62309e-15
9.82912e-15
9.65067e-15
9.38826e-15
4.5056e-15
4.34012e-15
5.01835e-15
5.83023e-15
6.52149e-15
6.89827e-15
7.21913e-15
7.7578e-15
8.20358e-15
8.33511e-15
8.61949e-15
8.86038e-15
9.0118e-15
9.14367e-15
9.41233e-15
9.53962e-15
9.63633e-15
9.67511e-15
9.71549e-15
9.55613e-15
4.88862e-15
5.11735e-15
5.7433e-15
6.24216e-15
6.61172e-15
7.06813e-15
7.48797e-15
7.79017e-15
8.25292e-15
8.4586e-15
8.72625e-15
8.83134e-15
8.8932e-15
9.01817e-15
9.37314e-15
9.6973e-15
9.61775e-15
9.66942e-15
9.6862e-15
9.83706e-15
5.51067e-15
6.65244e-15
6.08432e-15
6.64927e-15
6.67548e-15
7.23711e-15
7.77309e-15
7.99248e-15
8.32627e-15
8.39e-15
8.64318e-15
8.84349e-15
8.99761e-15
9.20488e-15
9.37066e-15
9.54043e-15
9.56248e-15
9.64902e-15
9.65969e-15
9.99643e-15
6.09652e-15
5.24654e-15
6.43707e-15
6.66647e-15
6.86041e-15
7.27814e-15
7.81967e-15
8.34295e-15
8.33646e-15
8.34514e-15
8.64713e-15
8.94383e-15
9.10191e-15
9.32365e-15
9.28281e-15
9.51181e-15
9.59675e-15
9.62344e-15
9.54935e-15
9.94767e-15
6.22531e-15
7.99735e-15
6.52149e-15
7.05008e-15
7.17214e-15
7.61625e-15
7.99118e-15
8.18375e-15
8.31712e-15
8.39176e-15
8.66448e-15
8.9391e-15
9.18013e-15
9.34065e-15
9.36667e-15
9.53289e-15
9.51618e-15
9.5773e-15
9.58988e-15
9.7524e-15
7.07706e-15
5.77599e-15
6.90627e-15
7.09057e-15
7.49506e-15
7.83128e-15
8.33961e-15
8.40029e-15
8.30282e-15
8.3696e-15
8.72664e-15
8.89586e-15
9.04051e-15
9.31741e-15
9.46083e-15
9.41192e-15
9.41231e-15
9.37649e-15
9.61388e-15
9.71971e-15
7.39983e-15
7.07994e-15
7.2256e-15
7.27472e-15
7.65348e-15
8.12412e-15
8.34942e-15
8.33061e-15
8.36629e-15
8.60133e-15
8.95162e-15
8.93101e-15
8.88629e-15
9.22058e-15
9.42179e-15
9.35683e-15
9.24368e-15
9.42246e-15
9.63362e-15
9.79289e-15
7.2781e-15
8.18584e-15
7.57737e-15
7.66759e-15
7.76934e-15
8.25978e-15
8.40972e-15
8.49488e-15
8.4527e-15
8.68053e-15
8.91313e-15
8.95864e-15
8.98613e-15
9.04631e-15
9.25556e-15
9.31276e-15
9.33824e-15
9.46715e-15
9.589e-15
9.75292e-15
7.70699e-15
7.75257e-15
8.02908e-15
7.85045e-15
7.79156e-15
8.20524e-15
8.54354e-15
8.70795e-15
8.58157e-15
8.81442e-15
8.91834e-15
8.98308e-15
9.00524e-15
9.00665e-15
9.08062e-15
9.28789e-15
9.2497e-15
9.33737e-15
9.51651e-15
9.60442e-15
8.10163e-15
8.16316e-15
8.09806e-15
8.12722e-15
8.12004e-15
8.29635e-15
8.58195e-15
8.82775e-15
8.86995e-15
8.95225e-15
9.04385e-15
9.19715e-15
9.02148e-15
8.90821e-15
8.80506e-15
9.11234e-15
9.14126e-15
9.32629e-15
9.55144e-15
9.54388e-15
8.31305e-15
7.70015e-15
8.15017e-15
8.19999e-15
8.37211e-15
8.55972e-15
8.65858e-15
8.78947e-15
8.76179e-15
8.79928e-15
9.13253e-15
9.15235e-15
8.90539e-15
8.88983e-15
9.09296e-15
9.17453e-15
9.01213e-15
9.19993e-15
9.27952e-15
9.47579e-15
8.16319e-15
8.59235e-15
8.36724e-15
8.5684e-15
8.75121e-15
8.68277e-15
8.49891e-15
8.71635e-15
8.7104e-15
8.8356e-15
8.84523e-15
9.04666e-15
8.97008e-15
8.97204e-15
9.10371e-15
9.03784e-15
8.89574e-15
9.11117e-15
9.22767e-15
9.33154e-15
8.64968e-15
7.90007e-15
8.46724e-15
8.62995e-15
8.71984e-15
8.77231e-15
8.64327e-15
8.7363e-15
8.61766e-15
8.72752e-15
8.74448e-15
8.89323e-15
8.93962e-15
9.08013e-15
9.03173e-15
8.89129e-15
8.88032e-15
8.98324e-15
9.00856e-15
9.2912e-15
8.60367e-15
8.14706e-15
8.6602e-15
8.80418e-15
8.70162e-15
8.63278e-15
8.61805e-15
8.7334e-15
8.69832e-15
8.72705e-15
8.91855e-15
8.77194e-15
8.77101e-15
8.87682e-15
8.96674e-15
8.84795e-15
8.85911e-15
8.95045e-15
8.97981e-15
9.26112e-15
8.62687e-15
9.41218e-15
8.69209e-15
8.95173e-15
8.71481e-15
8.73128e-15
8.65013e-15
8.62877e-15
8.60428e-15
8.77952e-15
8.87874e-15
8.94429e-15
8.86878e-15
8.73409e-15
8.74722e-15
8.84756e-15
8.93025e-15
8.84581e-15
8.98008e-15
9.23997e-15
9.15573e-15
7.75982e-15
8.8239e-15
8.69237e-15
8.79623e-15
8.72377e-15
8.88806e-15
8.73399e-15
8.66146e-15
8.79623e-15
8.73342e-15
8.57272e-15
8.5658e-15
8.55464e-15
8.6371e-15
8.76536e-15
8.98633e-15
8.94968e-15
9.08974e-15
9.2063e-15
8.9529e-15
8.49131e-15
8.97544e-15
8.72258e-15
8.86828e-15
8.91678e-15
9.05762e-15
8.7133e-15
8.64196e-15
8.77432e-15
8.73365e-15
8.39944e-15
8.40201e-15
8.6579e-15
8.57534e-15
8.6071e-15
8.84236e-15
8.90138e-15
9.05927e-15
9.01675e-15
8.0003e-15
9.83507e-15
9.01347e-15
9.04744e-15
8.86141e-15
8.94101e-15
9.04486e-15
8.86343e-15
8.8322e-15
8.71878e-15
8.5498e-15
8.46941e-15
8.45902e-15
8.50566e-15
8.67251e-15
8.66407e-15
8.71261e-15
8.90387e-15
9.09761e-15
9.3298e-15
)
;

boundaryField
{
    movingWall
    {
        type            zeroGradient;
    }
    fixedWalls
    {
        type            zeroGradient;
    }
    frontAndBack
    {
        type            empty;
    }
}


// ************************************************************************* //
