/*--------------------------------*- C++ -*----------------------------------*\
| =========                 |                                                 |
| \\      /  F ield         | OpenFOAM: The Open Source CFD Toolbox           |
|  \\    /   O peration     | Version:  2312                                  |
|   \\  /    A nd           | Website:  www.openfoam.com                      |
|    \\/     M anipulation  |                                                 |
\*---------------------------------------------------------------------------*/
FoamFile
{
    version     2.0;
    format      ascii;
    arch        "LSB;label=32;scalar=64";
    class       volScalarField;
    location    "7.875";
    object      QField;
}
// * * * * * * * * * * * * * * * * * * * * * * * * * * * * * * * * * * * * * //

dimensions      [0 0 -2 0 0 0 0];

internalField   nonuniform List<scalar> 
400
(
1.13483e-24
3.51041e-26
-6.80381e-27
3.27789e-27
-2.59129e-27
-9.83001e-28
-1.49493e-27
-1.50092e-27
-1.88515e-27
0
0
0
-1.17928e-28
5.74019e-29
0
6.23226e-29
-3.02134e-28
-9.83766e-28
-2.00749e-28
0
1.62542e-24
2.45985e-25
1.15686e-26
6.46477e-28
1.80868e-27
6.3879e-27
4.36331e-27
-4.07115e-28
-1.99447e-27
-2.47795e-27
-1.13055e-27
6.25974e-28
3.008e-27
4.66449e-28
-1.25486e-27
-1.09934e-28
1.3274e-27
4.94715e-28
0
-9.94059e-28
-3.11281e-25
-1.56684e-25
1.60924e-26
-4.83438e-27
-1.41244e-29
-3.66009e-28
-1.80954e-27
-2.11758e-27
3.30344e-28
-1.14798e-28
7.50115e-29
-1.51362e-27
-5.878e-28
-9.07069e-29
9.92216e-28
-1.00783e-28
-6.11327e-29
1.31348e-29
5.9363e-28
-2.1615e-27
-9.38858e-25
-3.2336e-25
-5.42018e-27
-3.89908e-27
-4.783e-28
1.6129e-27
5.97669e-28
-5.20603e-28
5.89908e-28
-1.96628e-29
0
-1.62283e-29
8.12356e-28
6.99134e-29
-9.43138e-28
-5.67772e-28
1.17845e-27
8.27247e-28
4.35756e-28
-1.37593e-27
-4.93747e-25
-3.21888e-25
1.49818e-26
-4.22344e-27
-3.51493e-29
-9.88092e-28
-4.39441e-28
-3.90999e-28
4.99274e-30
5.45315e-29
2.81591e-28
4.92568e-28
3.80063e-28
1.51896e-27
3.58298e-28
-3.30428e-28
-6.51491e-28
-3.08216e-28
4.39325e-28
-5.35438e-28
1.069e-24
2.49251e-25
-1.33876e-27
1.96851e-27
7.27372e-28
4.77072e-30
0
-1.28133e-27
-3.01484e-28
1.83111e-28
2.01469e-28
6.69283e-29
-1.61414e-28
0
-1.88061e-27
4.92131e-28
0
-8.7494e-28
5.07771e-28
8.36243e-29
3.4883e-24
7.40525e-25
2.40738e-26
4.64201e-27
7.89392e-28
7.34507e-28
1.79601e-28
7.82216e-28
-8.40352e-28
-1.07723e-27
-3.23508e-28
6.41875e-29
-2.54286e-28
4.68591e-28
-2.95509e-28
-2.20886e-29
-4.34846e-28
-2.7975e-28
0
-3.74647e-28
3.05164e-24
7.42378e-25
3.6245e-26
1.26629e-26
-4.71927e-28
0
-5.54344e-28
0
-1.38197e-27
0
1.2921e-28
8.31078e-28
-9.4372e-28
-2.48211e-29
9.18547e-28
2.27207e-27
1.36176e-28
-1.71258e-27
0
-1.05567e-28
-1.39185e-25
-1.6281e-25
7.63044e-26
-7.27846e-27
1.18865e-27
-2.72265e-27
6.95005e-28
2.71959e-27
2.85935e-28
-5.59109e-28
-1.19345e-27
1.02149e-27
5.01314e-29
4.49148e-28
-7.31289e-28
7.1774e-29
-2.36803e-27
-1.93862e-28
6.98758e-29
-3.98733e-28
-9.53988e-25
-2.55953e-25
-1.33578e-26
4.65666e-27
1.7272e-27
0
3.2739e-28
-8.31704e-29
2.35105e-28
-1.49306e-28
4.77937e-28
3.79118e-28
-3.83281e-28
-8.08676e-28
9.43569e-28
1.68069e-27
0
-4.34273e-28
2.50231e-28
-3.22744e-28
-1.04124e-24
-1.84053e-25
-1.57731e-26
4.09766e-27
-1.78751e-27
-1.19876e-27
7.42987e-29
0
-4.53138e-28
-3.57278e-28
0
5.68014e-29
1.40236e-27
4.35528e-28
0
-7.62241e-28
0
-2.43117e-28
0
-2.09933e-28
-1.28673e-24
-2.36951e-25
-2.93625e-26
-5.16317e-28
-1.92562e-28
8.10024e-28
-3.34496e-28
-5.15256e-28
3.87221e-29
-1.15855e-27
-4.84012e-28
-1.9722e-27
4.88617e-28
-8.0181e-28
-3.2769e-27
0
0
2.04496e-28
-1.48976e-30
3.5446e-28
-4.4559e-25
-1.079e-25
-4.81886e-27
-9.24042e-28
4.19708e-28
1.42107e-27
4.37461e-28
1.29629e-28
7.84771e-28
-2.11522e-28
3.0197e-28
2.376e-27
2.66128e-27
1.15706e-27
-1.22489e-27
-1.19016e-27
0
0
-8.89233e-28
0
2.72389e-25
1.46785e-26
6.22669e-28
-2.23777e-28
-8.99257e-28
-2.07822e-29
-8.57868e-28
2.69762e-28
-9.53189e-28
-1.32651e-27
-1.98804e-27
4.00363e-28
3.96392e-28
0
-5.55976e-28
7.4616e-29
6.78642e-28
4.60039e-28
-1.3242e-28
2.11867e-28
6.32136e-25
9.89367e-26
5.46735e-27
1.19083e-27
1.96136e-28
3.22364e-28
1.44561e-27
4.10121e-28
-1.12595e-27
-4.51256e-28
3.49453e-27
3.87969e-27
-2.54287e-28
-1.49486e-27
1.88594e-28
-1.16595e-27
1.52054e-29
-6.49398e-28
-5.66253e-29
0
3.84825e-25
-6.12913e-26
1.61758e-26
-1.65098e-27
-2.39333e-28
4.39618e-28
2.79407e-27
1.11083e-28
-8.95893e-28
-9.3995e-28
-2.78082e-27
-8.06351e-28
-1.04239e-27
-4.28274e-28
0
-1.47125e-27
1.30761e-27
6.82088e-29
0
-5.9886e-29
1.12432e-24
1.21553e-25
2.70584e-26
1.00865e-27
-6.37275e-28
9.48122e-29
1.77774e-28
0
3.51821e-28
4.52167e-28
1.01461e-27
4.63659e-28
-5.52935e-28
-4.56041e-29
1.44014e-27
4.95992e-28
0
-1.03408e-27
1.2845e-28
-1.96484e-28
2.0422e-24
2.94746e-25
3.54001e-26
-2.51387e-28
0
-8.80637e-28
1.17314e-28
-8.52861e-28
-6.9538e-28
9.05793e-29
2.31447e-27
4.57789e-28
-3.88097e-28
-1.09243e-29
1.37535e-27
-7.44243e-28
-7.9215e-28
2.10913e-28
0
-1.67394e-28
1.68948e-24
1.59359e-25
9.07885e-26
-3.20425e-27
6.11417e-28
2.65716e-28
-3.85436e-29
-5.81347e-28
-2.31848e-29
-3.09253e-28
5.02337e-30
-1.49342e-27
4.67378e-29
-3.36692e-28
0
-9.24405e-28
0
-1.52863e-28
0
-8.07139e-28
9.00442e-25
9.91801e-26
-8.87525e-27
1.61582e-27
-4.51098e-29
2.47926e-29
-6.73975e-28
0
1.08588e-28
-1.67278e-28
0
-1.16214e-27
0
1.16648e-28
4.06123e-28
0
-4.23368e-30
2.70506e-28
-2.90969e-28
-3.14067e-28
)
;

boundaryField
{
    movingWall
    {
        type            calculated;
        value           nonuniform List<scalar> 
20
(
2.31295e-25
9.13525e-26
-9.01258e-26
1.11211e-26
-2.58677e-28
1.42171e-28
-2.31179e-27
-7.83515e-28
1.06746e-27
6.18367e-28
-1.81668e-27
-1.75253e-27
8.59422e-28
-1.5773e-27
-4.13851e-27
3.65224e-28
-3.00617e-28
8.80158e-28
-1.0023e-27
-1.42233e-28
)
;
    }
    fixedWalls
    {
        type            calculated;
        value           nonuniform List<scalar> 
60
(
4.90783e-24
6.99325e-24
-1.86297e-24
-4.95492e-24
-2.15688e-24
4.50003e-24
1.6251e-23
1.44475e-23
3.79517e-25
-5.25637e-24
-5.28485e-24
-6.14979e-24
-2.02609e-24
1.2723e-24
2.54143e-24
1.70736e-24
5.02105e-24
9.4481e-24
7.66958e-24
3.53506e-24
0
-9.29596e-28
-4.18467e-27
-2.58351e-27
3.2721e-28
4.46204e-28
-8.1152e-28
-1.48915e-28
-6.99941e-28
-8.40874e-28
-5.38509e-28
3.57034e-28
1.8117e-28
-1.35879e-28
0
-9.18412e-29
-3.2192e-28
-5.34099e-28
-1.32242e-27
-5.14568e-28
4.31657e-25
2.36398e-25
-1.26802e-25
2.32038e-26
-9.36499e-27
-6.79613e-27
-5.29252e-27
-3.76278e-27
-1.04152e-27
7.67112e-28
8.84505e-28
-1.18046e-28
-7.72852e-28
2.82142e-28
1.09028e-27
2.04219e-28
-1.48505e-27
-1.55366e-27
-3.28907e-28
0
)
;
    }
    frontAndBack
    {
        type            empty;
    }
}


// ************************************************************************* //
