/*--------------------------------*- C++ -*----------------------------------*\
| =========                 |                                                 |
| \\      /  F ield         | OpenFOAM: The Open Source CFD Toolbox           |
|  \\    /   O peration     | Version:  2312                                  |
|   \\  /    A nd           | Website:  www.openfoam.com                      |
|    \\/     M anipulation  |                                                 |
\*---------------------------------------------------------------------------*/
FoamFile
{
    version     2.0;
    format      ascii;
    arch        "LSB;label=32;scalar=64";
    class       volVectorField;
    location    "7.875";
    object      UNear;
}
// * * * * * * * * * * * * * * * * * * * * * * * * * * * * * * * * * * * * * //

dimensions      [0 1 -1 0 0 0 0];

internalField   nonuniform List<vector> 
400
(
(-1 1.98339e-14 0)
(-1 -3.42548e-15 0)
(-1 8.29283e-16 0)
(-1 -2.02459e-16 0)
(-1 -1.16865e-16 0)
(-1 -3.15503e-17 0)
(-1 4.38728e-17 0)
(-1 1.63959e-16 0)
(-1 1.18375e-16 0)
(-1 7.8091e-17 0)
(-1 3.20056e-17 0)
(-1 2.82978e-17 0)
(-1 4.52964e-17 0)
(-1 7.18054e-17 0)
(-1 2.41188e-17 0)
(-1 -5.09489e-17 0)
(-1 1.12587e-18 0)
(-1 6.05188e-17 0)
(-1 5.54769e-17 0)
(-1 2.34872e-17 0)
(-1 2.18022e-15 0)
(-1 -7.2771e-17 0)
(-1 -4.21062e-17 0)
(-1 -6.07193e-17 0)
(-1 -1.0478e-16 0)
(-1 7.27381e-17 0)
(-1 2.31894e-16 0)
(-1 3.15282e-16 0)
(-1 2.29374e-16 0)
(-1 7.00052e-17 0)
(-1 -7.53599e-17 0)
(-1 -1.38544e-16 0)
(-1 1.62129e-18 0)
(-1 1.46966e-16 0)
(-1 5.89844e-17 0)
(-1 -1.47744e-18 0)
(-1 4.54648e-17 0)
(-1 1.20954e-16 0)
(-1 4.14824e-17 0)
(-1 -2.58261e-17 0)
(-1 -1.0064e-14 0)
(-1 1.73978e-15 0)
(-1 -5.57247e-16 0)
(-1 7.34804e-17 0)
(-1 2.03702e-17 0)
(-1 7.86914e-17 0)
(-1 8.7887e-17 0)
(-1 9.38987e-17 0)
(-1 9.49526e-17 0)
(-1 -2.79766e-17 0)
(-1 -5.48728e-17 0)
(-1 -4.18138e-17 0)
(-1 1.30136e-17 0)
(-1 3.59457e-17 0)
(-1 -5.89194e-17 0)
(-1 -5.72765e-17 0)
(-1 -4.03283e-17 0)
(-1 -3.47225e-17 0)
(-1 -1.35466e-16 0)
(-1 -1.44228e-16 0)
(-1 -5.71983e-15 0)
(-1 7.83263e-16 0)
(-1 -2.84824e-16 0)
(-1 -3.53602e-17 0)
(-1 4.75173e-17 0)
(-1 8.75521e-18 0)
(-1 -7.14934e-17 0)
(-1 -6.47451e-17 0)
(-1 -4.66789e-17 0)
(-1 -9.39378e-17 0)
(-1 -3.94246e-17 0)
(-1 3.88404e-17 0)
(-1 -1.4797e-17 0)
(-1 -1.02298e-16 0)
(-1 -2.74122e-17 0)
(-1 4.4217e-17 0)
(-1 1.79278e-17 0)
(-1 -6.44761e-17 0)
(-1 -1.34672e-16 0)
(-1 -1.44859e-16 0)
(-1 1.21846e-14 0)
(-1 -2.37397e-15 0)
(-1 5.94658e-16 0)
(-1 -3.56631e-17 0)
(-1 1.88051e-16 0)
(-1 1.10064e-16 0)
(-1 3.70196e-17 0)
(-1 -4.8541e-17 0)
(-1 -3.5107e-17 0)
(-1 -1.87711e-17 0)
(-1 -1.49885e-17 0)
(-1 1.45414e-18 0)
(-1 3.04429e-17 0)
(-1 3.65088e-17 0)
(-1 1.42522e-16 0)
(-1 1.06854e-16 0)
(-1 2.06155e-17 0)
(-1 -5.88371e-18 0)
(-1 -1.31243e-18 0)
(-1 -3.01798e-17 0)
(-1 -1.21593e-14 0)
(-1 2.46689e-15 0)
(-1 -4.97339e-16 0)
(-1 1.94953e-16 0)
(-1 4.10334e-17 0)
(-1 1.1551e-16 0)
(-1 9.06318e-17 0)
(-1 7.32676e-17 0)
(-1 4.07889e-17 0)
(-1 2.14135e-17 0)
(-1 2.40137e-17 0)
(-1 -1.38031e-17 0)
(-1 -3.59253e-17 0)
(-1 -1.67833e-17 0)
(-1 -1.89096e-17 0)
(-1 -9.34682e-17 0)
(-1 -1.09692e-16 0)
(-1 -3.8476e-17 0)
(-1 5.17061e-17 0)
(-1 8.4175e-17 0)
(-1 -1.46304e-15 0)
(-1 1.804e-16 0)
(-1 -2.15334e-16 0)
(-1 1.91328e-18 0)
(-1 1.41532e-17 0)
(-1 8.61448e-17 0)
(-1 7.34796e-17 0)
(-1 2.12744e-16 0)
(-1 1.79829e-16 0)
(-1 4.87848e-17 0)
(-1 -1.88841e-17 0)
(-1 -1.0892e-17 0)
(-1 -2.31282e-18 0)
(-1 -7.65017e-17 0)
(-1 -8.87526e-17 0)
(-1 6.93385e-18 0)
(-1 3.61796e-17 0)
(-1 6.78281e-17 0)
(-1 6.33708e-17 0)
(-1 7.48495e-17 0)
(-1 2.78577e-14 0)
(-1 -5.56857e-15 0)
(-1 1.27899e-15 0)
(-1 -1.46426e-16 0)
(-1 7.95731e-17 0)
(-1 -3.68222e-17 0)
(-1 -2.83725e-18 0)
(-1 4.28064e-17 0)
(-1 2.29046e-17 0)
(-1 -1.39447e-17 0)
(-1 -4.43151e-17 0)
(-1 4.30203e-17 0)
(-1 5.78895e-17 0)
(-1 -7.3348e-17 0)
(-1 -1.27933e-16 0)
(-1 3.96133e-17 0)
(-1 1.11633e-16 0)
(-1 6.47334e-17 0)
(-1 -2.52125e-17 0)
(-1 -1.3735e-17 0)
(-1 -2.95254e-14 0)
(-1 5.95882e-15 0)
(-1 -1.35103e-15 0)
(-1 2.70295e-16 0)
(-1 -8.39531e-18 0)
(-1 7.94632e-17 0)
(-1 1.75738e-16 0)
(-1 1.53603e-17 0)
(-1 -7.51002e-17 0)
(-1 -5.31857e-17 0)
(-1 -2.35315e-17 0)
(-1 -6.11792e-17 0)
(-1 -1.17747e-16 0)
(-1 -6.73443e-17 0)
(-1 -8.04603e-17 0)
(-1 -1.13083e-16 0)
(-1 -1.0694e-16 0)
(-1 -1.11242e-16 0)
(-1 -7.11789e-17 0)
(-1 -1.30436e-17 0)
(-1 -1.81136e-15 0)
(-1 2.52176e-16 0)
(-1 -2.15964e-16 0)
(-1 2.8965e-17 0)
(-1 2.13537e-16 0)
(-1 2.31127e-16 0)
(-1 1.65613e-16 0)
(-1 1.15093e-16 0)
(-1 1.91597e-16 0)
(-1 1.65678e-16 0)
(-1 1.13111e-16 0)
(-1 -1.06495e-17 0)
(-1 -7.74884e-17 0)
(-1 9.50513e-18 0)
(-1 7.73849e-18 0)
(-1 -1.64553e-16 0)
(-1 -1.78356e-16 0)
(-1 -9.71954e-17 0)
(-1 5.67068e-19 0)
(-1 4.9149e-17 0)
(-1 1.5186e-14 0)
(-1 -3.1651e-15 0)
(-1 7.7823e-16 0)
(-1 -1.85945e-16 0)
(-1 2.23455e-17 0)
(-1 -1.38975e-17 0)
(-1 -6.10806e-17 0)
(-1 -4.13089e-17 0)
(-1 1.16381e-17 0)
(-1 1.89838e-18 0)
(-1 -3.5369e-17 0)
(-1 -1.11909e-16 0)
(-1 -1.66508e-17 0)
(-1 6.05509e-17 0)
(-1 8.47761e-17 0)
(-1 -5.13027e-17 0)
(-1 -6.85543e-17 0)
(-1 -3.1133e-17 0)
(-1 2.114e-17 0)
(-1 5.63118e-17 0)
(-1 -5.99088e-15 0)
(-1 1.6306e-15 0)
(-1 -2.62316e-16 0)
(-1 1.30203e-16 0)
(-1 -1.01845e-16 0)
(-1 9.99349e-18 0)
(-1 7.61538e-17 0)
(-1 7.37298e-17 0)
(-1 2.44188e-17 0)
(-1 8.08728e-17 0)
(-1 5.56508e-17 0)
(-1 -8.41171e-18 0)
(-1 3.2273e-17 0)
(-1 5.16776e-17 0)
(-1 1.19704e-17 0)
(-1 -2.3944e-17 0)
(-1 -2.83001e-17 0)
(-1 4.5115e-17 0)
(-1 9.7842e-17 0)
(-1 3.29306e-17 0)
(-1 -3.53559e-15 0)
(-1 3.46601e-16 0)
(-1 -1.88024e-16 0)
(-1 4.54253e-18 0)
(-1 -4.86973e-17 0)
(-1 4.32537e-17 0)
(-1 1.26063e-16 0)
(-1 9.70519e-17 0)
(-1 1.49975e-16 0)
(-1 2.15612e-16 0)
(-1 2.19262e-16 0)
(-1 1.07252e-16 0)
(-1 -7.29338e-17 0)
(-1 -1.9466e-16 0)
(-1 -1.79654e-16 0)
(-1 3.12924e-17 0)
(-1 5.57624e-17 0)
(-1 1.95633e-17 0)
(-1 2.16896e-17 0)
(-1 2.43512e-17 0)
(-1 4.63416e-16 0)
(-1 -1.0561e-16 0)
(-1 2.48415e-17 0)
(-1 -5.95205e-17 0)
(-1 -5.26621e-17 0)
(-1 -6.31627e-17 0)
(-1 -2.26975e-17 0)
(-1 2.48183e-17 0)
(-1 7.68271e-17 0)
(-1 4.18539e-17 0)
(-1 5.41275e-17 0)
(-1 -1.20896e-17 0)
(-1 -8.06293e-17 0)
(-1 -1.58332e-16 0)
(-1 1.78805e-17 0)
(-1 1.95601e-16 0)
(-1 1.02358e-16 0)
(-1 -5.47733e-17 0)
(-1 -6.61925e-17 0)
(-1 1.25326e-17 0)
(-1 3.52181e-15 0)
(-1 -1.31378e-16 0)
(-1 1.79967e-16 0)
(-1 8.71018e-17 0)
(-1 1.17186e-16 0)
(-1 5.0921e-17 0)
(-1 -6.74169e-17 0)
(-1 -1.26858e-16 0)
(-1 -2.18725e-16 0)
(-1 -2.51084e-16 0)
(-1 -1.74438e-16 0)
(-1 9.43005e-17 0)
(-1 1.11833e-16 0)
(-1 7.08467e-17 0)
(-1 2.54652e-17 0)
(-1 8.82414e-17 0)
(-1 8.67448e-17 0)
(-1 2.0737e-17 0)
(-1 3.23802e-18 0)
(-1 -1.54003e-19 0)
(-1 -9.64215e-15 0)
(-1 1.35087e-15 0)
(-1 -4.29044e-16 0)
(-1 6.59783e-17 0)
(-1 1.8006e-16 0)
(-1 1.54277e-16 0)
(-1 1.78694e-17 0)
(-1 -1.03431e-16 0)
(-1 -1.92987e-16 0)
(-1 -2.13205e-16 0)
(-1 -1.64707e-16 0)
(-1 -6.43147e-17 0)
(-1 -4.59584e-17 0)
(-1 3.10537e-17 0)
(-1 -6.43745e-17 0)
(-1 -8.07576e-17 0)
(-1 4.04634e-17 0)
(-1 1.01305e-16 0)
(-1 -1.36232e-17 0)
(-1 -8.47086e-18 0)
(-1 8.9811e-15 0)
(-1 -1.80641e-15 0)
(-1 4.08276e-16 0)
(-1 -8.86203e-18 0)
(-1 9.24942e-17 0)
(-1 1.00973e-16 0)
(-1 1.27474e-16 0)
(-1 1.68935e-16 0)
(-1 1.11199e-16 0)
(-1 3.9136e-17 0)
(-1 4.48248e-17 0)
(-1 -5.4445e-17 0)
(-1 -8.04542e-17 0)
(-1 -5.03262e-17 0)
(-1 -7.48459e-17 0)
(-1 -1.83156e-16 0)
(-1 -1.59083e-16 0)
(-1 -4.42756e-18 0)
(-1 -4.37601e-17 0)
(-1 5.02948e-18 0)
(-1 1.35923e-14 0)
(-1 -2.52355e-15 0)
(-1 5.65998e-16 0)
(-1 -1.63324e-16 0)
(-1 -1.02249e-16 0)
(-1 -9.13941e-17 0)
(-1 -5.24678e-17 0)
(-1 1.55163e-17 0)
(-1 -6.26155e-17 0)
(-1 -1.12759e-16 0)
(-1 -2.91976e-17 0)
(-1 1.00713e-16 0)
(-1 4.78026e-17 0)
(-1 -4.24692e-17 0)
(-1 3.5418e-17 0)
(-1 7.32016e-17 0)
(-1 -1.22098e-18 0)
(-1 -2.58636e-17 0)
(-1 3.37663e-17 0)
(-1 6.40191e-17 0)
(-1 -1.75209e-14 0)
(-1 2.75148e-15 0)
(-1 -7.98192e-16 0)
(-1 -3.97772e-17 0)
(-1 -1.25469e-16 0)
(-1 -1.11257e-16 0)
(-1 -1.49977e-16 0)
(-1 -1.15272e-16 0)
(-1 -1.27961e-16 0)
(-1 -1.16718e-16 0)
(-1 -1.1247e-16 0)
(-1 -1.16551e-16 0)
(-1 -3.55223e-17 0)
(-1 -4.1972e-17 0)
(-1 -3.01156e-17 0)
(-1 5.47825e-17 0)
(-1 8.61082e-17 0)
(-1 -1.22659e-17 0)
(-1 -1.70419e-17 0)
(-1 -3.09986e-17 0)
(-1 -1.00258e-14 0)
(-1 1.61315e-15 0)
(-1 -3.99692e-16 0)
(-1 -3.8478e-20 0)
(-1 -4.19019e-17 0)
(-1 -8.35976e-18 0)
(-1 -3.73285e-17 0)
(-1 -6.97077e-17 0)
(-1 -7.26149e-17 0)
(-1 -2.96457e-17 0)
(-1 -3.02906e-17 0)
(-1 -9.78256e-17 0)
(-1 -9.53342e-18 0)
(-1 -1.06333e-18 0)
(-1 -1.28791e-16 0)
(-1 -1.55433e-16 0)
(-1 -8.76702e-17 0)
(-1 -8.22602e-17 0)
(-1 -9.03067e-17 0)
(-1 -8.48718e-17 0)
)
;

boundaryField
{
    movingWall
    {
        type            fixedValue;
        value           uniform (-1 -0 -0);
    }
    fixedWalls
    {
        type            calculated;
        value           nonuniform List<vector> 
60
(
(-1 7.93357e-15 0)
(-1 8.72088e-16 0)
(-1 -4.0256e-15 0)
(-1 -2.28793e-15 0)
(-1 4.87385e-15 0)
(-1 -4.86371e-15 0)
(-1 -5.85216e-16 0)
(-1 1.11431e-14 0)
(-1 -1.18102e-14 0)
(-1 -7.24543e-16 0)
(-1 6.07439e-15 0)
(-1 -2.39635e-15 0)
(-1 -1.41424e-15 0)
(-1 1.85366e-16 0)
(-1 1.40872e-15 0)
(-1 -3.85686e-15 0)
(-1 3.59244e-15 0)
(-1 5.43692e-15 0)
(-1 -7.00835e-15 0)
(-1 -4.01032e-15 0)
(-1 9.39488e-18 0)
(-1 -1.03304e-17 0)
(-1 -5.76912e-17 0)
(-1 -5.79435e-17 0)
(-1 -1.20719e-17 0)
(-1 3.367e-17 0)
(-1 2.99398e-17 0)
(-1 -5.49399e-18 0)
(-1 -5.21743e-18 0)
(-1 1.96596e-17 0)
(-1 2.25247e-17 0)
(-1 1.31722e-17 0)
(-1 9.74047e-18 0)
(-1 5.01305e-18 0)
(-1 -6.16013e-20 0)
(-1 -3.38834e-18 0)
(-1 2.01179e-18 0)
(-1 2.56076e-17 0)
(-1 -1.23994e-17 0)
(-1 -3.39487e-17 0)
(-1 7.93357e-15 0)
(-1 -1.37019e-15 0)
(-1 3.31713e-16 0)
(-1 -8.09836e-17 0)
(-1 -4.6746e-17 0)
(-1 -1.26201e-17 0)
(-1 1.75491e-17 0)
(-1 6.55836e-17 0)
(-1 4.73499e-17 0)
(-1 3.12364e-17 0)
(-1 1.28022e-17 0)
(-1 1.13191e-17 0)
(-1 1.81186e-17 0)
(-1 2.87222e-17 0)
(-1 9.64754e-18 0)
(-1 -2.03796e-17 0)
(-1 4.50349e-19 0)
(-1 2.42075e-17 0)
(-1 2.21907e-17 0)
(-1 9.39488e-18 0)
)
;
    }
    frontAndBack
    {
        type            empty;
    }
}


// ************************************************************************* //
