/*--------------------------------*- C++ -*----------------------------------*\
| =========                 |                                                 |
| \\      /  F ield         | OpenFOAM: The Open Source CFD Toolbox           |
|  \\    /   O peration     | Version:  2312                                  |
|   \\  /    A nd           | Website:  www.openfoam.com                      |
|    \\/     M anipulation  |                                                 |
\*---------------------------------------------------------------------------*/
FoamFile
{
    version     2.0;
    format      ascii;
    arch        "LSB;label=32;scalar=64";
    class       volVectorField;
    location    "7.875";
    object      vorticityField;
}
// * * * * * * * * * * * * * * * * * * * * * * * * * * * * * * * * * * * * * //

dimensions      [0 0 -1 0 0 0 0];

internalField   nonuniform List<vector> 
400
(
(0 -0 1.53243e-12)
(0 -0 -1.81915e-12)
(0 -0 2.68092e-13)
(0 -0 -1.2172e-13)
(0 -0 -6.42243e-14)
(0 -0 -3.81363e-14)
(0 -0 1.95509e-14)
(0 -0 -1.96549e-14)
(0 -0 -8.58681e-15)
(0 -0 -8.63691e-15)
(0 -0 -4.97932e-15)
(0 -0 1.32908e-15)
(0 -0 -2.27543e-14)
(0 -0 -2.92228e-14)
(0 -0 -1.22754e-14)
(0 -0 -2.94044e-14)
(0 -0 -1.59583e-14)
(0 -0 5.4351e-15)
(0 -0 5.05069e-14)
(0 -0 -7.89641e-15)
(0 -0 6.17321e-13)
(0 -0 -1.95127e-13)
(0 -0 2.45151e-13)
(0 -0 1.29258e-13)
(0 -0 1.48871e-13)
(0 -0 2.23403e-13)
(0 -0 2.1399e-13)
(0 -0 1.08168e-13)
(0 -0 5.67875e-14)
(0 -0 5.08417e-14)
(0 -0 3.33552e-14)
(0 -0 8.90133e-14)
(0 -0 1.36971e-13)
(0 -0 8.70515e-14)
(0 -0 3.93658e-14)
(0 -0 7.99632e-14)
(0 -0 1.20663e-13)
(0 -0 5.38119e-14)
(0 -0 -1.4678e-14)
(0 -0 5.26445e-14)
(0 -0 -5.61372e-13)
(0 -0 8.15151e-13)
(0 -0 -2.7505e-13)
(0 -0 -2.35534e-14)
(0 -0 -2.6584e-14)
(0 -0 -4.74584e-14)
(0 -0 -1.06899e-13)
(0 -0 -8.06086e-14)
(0 -0 -3.92926e-14)
(0 -0 -9.62977e-14)
(0 -0 -5.55938e-14)
(0 -0 -7.45265e-14)
(0 -0 -7.35392e-14)
(0 -0 -8.85085e-14)
(0 -0 -9.06374e-14)
(0 -0 -5.2351e-14)
(0 -0 -2.48497e-14)
(0 -0 -6.37239e-14)
(0 -0 -6.51607e-14)
(0 -0 -2.62407e-14)
(0 -0 -1.52365e-12)
(0 -0 5.43501e-13)
(0 -0 -2.44493e-13)
(0 -0 -7.51861e-14)
(0 -0 -1.04009e-13)
(0 -0 -1.47426e-13)
(0 -0 -8.86652e-14)
(0 -0 -5.17287e-14)
(0 -0 -8.42344e-14)
(0 -0 -2.63796e-14)
(0 -0 1.32778e-14)
(0 -0 -5.17474e-14)
(0 -0 -6.8324e-14)
(0 -0 -5.54716e-14)
(0 -0 -1.24535e-14)
(0 -0 -2.25711e-14)
(0 -0 -1.1929e-13)
(0 -0 -6.94701e-14)
(0 -0 -6.22484e-14)
(0 -0 8.48059e-16)
(0 -0 1.22501e-12)
(0 -0 -1.05058e-12)
(0 -0 3.15146e-13)
(0 -0 -1.35557e-14)
(0 -0 1.45727e-14)
(0 -0 1.20019e-14)
(0 -0 -1.58605e-14)
(0 -0 4.69974e-14)
(0 -0 8.42922e-14)
(0 -0 2.91169e-14)
(0 -0 5.62326e-14)
(0 -0 1.12963e-13)
(0 -0 1.11926e-13)
(0 -0 1.46733e-13)
(0 -0 6.12447e-14)
(0 -0 1.49144e-14)
(0 -0 1.58312e-14)
(0 -0 1.06227e-13)
(0 -0 2.46754e-14)
(0 -0 3.02543e-14)
(0 -0 -6.98187e-13)
(0 -0 1.16619e-12)
(0 -0 -1.72984e-13)
(0 -0 8.09423e-14)
(0 -0 1.91608e-14)
(0 -0 3.20649e-14)
(0 -0 -4.22427e-15)
(0 -0 -3.20894e-14)
(0 -0 -5.93955e-14)
(0 -0 -1.67752e-15)
(0 -0 -5.77318e-14)
(0 -0 -5.9939e-15)
(0 -0 -5.45081e-14)
(0 -0 1.70157e-15)
(0 -0 -7.66848e-15)
(0 -0 -6.32883e-14)
(0 -0 5.49921e-15)
(0 -0 -3.80703e-14)
(0 -0 3.93702e-14)
(0 -0 -4.06932e-14)
(0 -0 -2.63789e-13)
(0 -0 1.2477e-13)
(0 -0 -1.78487e-14)
(0 -0 1.04264e-13)
(0 -0 8.97383e-14)
(0 -0 6.01427e-14)
(0 -0 6.68701e-14)
(0 -0 9.19501e-14)
(0 -0 3.78141e-14)
(0 -0 3.43388e-14)
(0 -0 4.82424e-14)
(0 -0 -5.2553e-14)
(0 -0 -6.56097e-15)
(0 -0 -6.28541e-14)
(0 -0 8.34355e-15)
(0 -0 3.95983e-14)
(0 -0 3.31945e-14)
(0 -0 2.71911e-15)
(0 -0 7.02135e-16)
(0 -0 1.3283e-14)
(0 -0 2.60839e-12)
(0 -0 -2.76629e-12)
(0 -0 5.69319e-13)
(0 -0 -2.01257e-13)
(0 -0 -4.32497e-14)
(0 -0 -8.24104e-15)
(0 -0 7.96286e-15)
(0 -0 2.57418e-15)
(0 -0 -5.67511e-15)
(0 -0 -6.72197e-15)
(0 -0 3.28016e-14)
(0 -0 9.15356e-14)
(0 -0 4.25733e-14)
(0 -0 -1.85823e-14)
(0 -0 9.26113e-14)
(0 -0 1.32377e-13)
(0 -0 5.67221e-14)
(0 -0 4.05256e-14)
(0 -0 -7.84684e-15)
(0 -0 -2.32103e-14)
(0 -0 -2.98008e-12)
(0 -0 2.87165e-12)
(0 -0 -7.31483e-13)
(0 -0 8.00538e-14)
(0 -0 -1.00398e-13)
(0 -0 -9.00069e-14)
(0 -0 -1.14831e-13)
(0 -0 -1.33504e-13)
(0 -0 -1.15275e-13)
(0 -0 -1.03263e-13)
(0 -0 -1.0922e-13)
(0 -0 -1.17842e-13)
(0 -0 -8.19317e-14)
(0 -0 3.7287e-15)
(0 -0 -8.58891e-14)
(0 -0 -2.9753e-14)
(0 -0 -5.4026e-14)
(0 -0 -5.0634e-14)
(0 -0 9.81987e-15)
(0 -0 -1.86828e-14)
(0 -0 5.21708e-13)
(0 -0 1.05329e-13)
(0 -0 5.89941e-14)
(0 -0 1.5137e-13)
(0 -0 1.01531e-13)
(0 -0 -4.79242e-15)
(0 -0 1.55017e-14)
(0 -0 2.97035e-14)
(0 -0 5.05846e-15)
(0 -0 -7.84863e-15)
(0 -0 -4.47378e-14)
(0 -0 -4.6165e-14)
(0 -0 -5.21946e-14)
(0 -0 -4.56874e-14)
(0 -0 -7.16159e-14)
(0 -0 -9.99246e-14)
(0 -0 6.73573e-15)
(0 -0 1.78923e-14)
(0 -0 1.46344e-14)
(0 -0 2.21334e-14)
(0 -0 3.07621e-13)
(0 -0 -1.30525e-12)
(0 -0 2.43705e-13)
(0 -0 -1.29799e-13)
(0 -0 -3.70054e-14)
(0 -0 -8.3426e-15)
(0 -0 -2.98462e-14)
(0 -0 7.27187e-15)
(0 -0 4.32073e-15)
(0 -0 2.24043e-14)
(0 -0 -1.13807e-14)
(0 -0 2.89769e-14)
(0 -0 9.85611e-14)
(0 -0 6.43528e-14)
(0 -0 -1.11854e-14)
(0 -0 -1.5333e-14)
(0 -0 2.01696e-15)
(0 -0 -1.81356e-14)
(0 -0 8.74448e-15)
(0 -0 1.93599e-14)
(0 -0 1.87388e-13)
(0 -0 4.91542e-13)
(0 -0 -4.16192e-14)
(0 -0 1.60471e-14)
(0 -0 -1.20209e-14)
(0 -0 7.201e-14)
(0 -0 3.34787e-14)
(0 -0 2.19316e-14)
(0 -0 5.49244e-14)
(0 -0 3.1232e-15)
(0 -0 4.52817e-14)
(0 -0 7.89774e-14)
(0 -0 8.73241e-14)
(0 -0 5.21798e-14)
(0 -0 4.66479e-14)
(0 -0 -4.02705e-15)
(0 -0 6.9059e-15)
(0 -0 3.97193e-14)
(0 -0 -1.21844e-15)
(0 -0 -4.01823e-14)
(0 -0 -1.83374e-13)
(0 -0 3.07652e-13)
(0 -0 -7.10083e-15)
(0 -0 9.52479e-14)
(0 -0 1.12291e-13)
(0 -0 9.87912e-14)
(0 -0 8.6695e-14)
(0 -0 5.66013e-14)
(0 -0 6.60662e-14)
(0 -0 6.92865e-15)
(0 -0 -3.79411e-14)
(0 -0 -1.10535e-13)
(0 -0 -1.38611e-13)
(0 -0 -1.19092e-13)
(0 -0 -3.16149e-14)
(0 -0 2.35416e-14)
(0 -0 -1.17291e-15)
(0 -0 -3.40728e-15)
(0 -0 4.78793e-16)
(0 -0 -4.60408e-15)
(0 -0 -3.70795e-13)
(0 -0 6.45628e-14)
(0 -0 -7.67063e-14)
(0 -0 -7.75036e-15)
(0 -0 -3.64221e-16)
(0 -0 2.99646e-15)
(0 -0 9.01133e-14)
(0 -0 3.70575e-14)
(0 -0 2.88086e-14)
(0 -0 2.48351e-14)
(0 -0 -3.24994e-14)
(0 -0 -4.05807e-14)
(0 -0 -4.17293e-14)
(0 -0 9.85098e-15)
(0 -0 3.53934e-14)
(0 -0 3.55528e-14)
(0 -0 -5.21425e-14)
(0 -0 -4.39601e-14)
(0 -0 -2.03745e-14)
(0 -0 3.2471e-14)
(0 -0 1.31483e-12)
(0 -0 -5.2392e-13)
(0 -0 1.03163e-13)
(0 -0 -8.75932e-14)
(0 -0 -5.78282e-14)
(0 -0 -9.97755e-14)
(0 -0 -9.90931e-14)
(0 -0 -4.22358e-14)
(0 -0 -3.95276e-14)
(0 -0 5.86388e-14)
(0 -0 1.70064e-13)
(0 -0 1.64152e-13)
(0 -0 1.06075e-13)
(0 -0 4.55734e-14)
(0 -0 1.1016e-13)
(0 -0 6.03381e-14)
(0 -0 -3.38555e-14)
(0 -0 1.87544e-14)
(0 -0 2.5016e-14)
(0 -0 -3.08402e-16)
(0 -0 -1.56096e-12)
(0 -0 9.48416e-13)
(0 -0 -2.64014e-13)
(0 -0 3.38053e-14)
(0 -0 -1.82752e-14)
(0 -0 -4.33241e-14)
(0 -0 -1.34191e-13)
(0 -0 -1.02401e-13)
(0 -0 -9.22925e-14)
(0 -0 -5.13821e-14)
(0 -0 -1.22161e-14)
(0 -0 1.18748e-14)
(0 -0 9.53684e-15)
(0 -0 5.23685e-14)
(0 -0 -1.11811e-14)
(0 -0 1.04838e-14)
(0 -0 1.26627e-13)
(0 -0 -5.40866e-15)
(0 -0 -1.09776e-14)
(0 -0 -2.48956e-14)
(0 -0 8.80099e-13)
(0 -0 -8.03072e-13)
(0 -0 3.1528e-13)
(0 -0 -4.47311e-15)
(0 -0 9.22987e-14)
(0 -0 3.0603e-14)
(0 -0 6.10063e-14)
(0 -0 -1.62746e-15)
(0 -0 -4.0085e-14)
(0 -0 -3.37425e-14)
(0 -0 -1.17778e-13)
(0 -0 -1.20948e-13)
(0 -0 -1.08008e-13)
(0 -0 -8.07543e-14)
(0 -0 -1.21703e-13)
(0 -0 -1.16844e-13)
(0 -0 1.78728e-14)
(0 -0 1.15323e-14)
(0 -0 9.45704e-16)
(0 -0 3.87307e-15)
(0 -0 1.45924e-12)
(0 -0 -1.32974e-12)
(0 -0 3.44443e-13)
(0 -0 -6.68247e-14)
(0 -0 7.19298e-15)
(0 -0 5.91882e-14)
(0 -0 9.20062e-14)
(0 -0 8.03004e-14)
(0 -0 4.13826e-14)
(0 -0 3.04468e-14)
(0 -0 1.29767e-13)
(0 -0 8.90152e-14)
(0 -0 1.27868e-14)
(0 -0 2.58666e-14)
(0 -0 1.19987e-13)
(0 -0 2.34412e-14)
(0 -0 -6.41166e-14)
(0 -0 5.77088e-14)
(0 -0 8.98827e-15)
(0 -0 1.73265e-14)
(0 -0 -2.75088e-12)
(0 -0 1.80779e-12)
(0 -0 -6.04386e-13)
(0 -0 1.30622e-14)
(0 -0 -1.15568e-13)
(0 -0 -1.10871e-13)
(0 -0 -1.08822e-13)
(0 -0 -5.20086e-14)
(0 -0 -2.72496e-14)
(0 -0 -5.2661e-14)
(0 -0 -5.41935e-14)
(0 -0 -4.65153e-14)
(0 -0 3.4563e-14)
(0 -0 5.40661e-16)
(0 -0 9.67546e-15)
(0 -0 3.87274e-14)
(0 -0 -6.70485e-15)
(0 -0 -1.0315e-14)
(0 -0 -1.87327e-15)
(0 -0 4.80405e-15)
(0 -0 -1.36534e-13)
(0 -0 8.81296e-13)
(0 -0 -2.57932e-14)
(0 -0 8.99891e-14)
(0 -0 5.3378e-14)
(0 -0 5.46675e-14)
(0 -0 2.09703e-14)
(0 -0 -3.52864e-15)
(0 -0 3.11112e-14)
(0 -0 5.84425e-14)
(0 -0 -6.81799e-15)
(0 -0 2.07572e-15)
(0 -0 9.67623e-15)
(0 -0 -1.19257e-14)
(0 -0 -6.96471e-14)
(0 -0 4.11206e-15)
(0 -0 7.31728e-15)
(0 -0 -5.44738e-14)
(0 -0 -2.61157e-16)
(0 -0 1.75178e-14)
)
;

boundaryField
{
    movingWall
    {
        type            calculated;
        value           nonuniform List<vector> 
20
(
(0 -0 1.468e-12)
(0 -0 7.84975e-13)
(0 -0 5.04815e-13)
(0 -0 3.46641e-13)
(0 -0 3.1003e-13)
(0 -0 3.1132e-13)
(0 -0 3.04728e-13)
(0 -0 2.18516e-13)
(0 -0 2.7046e-13)
(0 -0 2.26277e-13)
(0 -0 2.59636e-13)
(0 -0 1.79711e-13)
(0 -0 9.84941e-14)
(0 -0 1.21301e-13)
(0 -0 1.62199e-13)
(0 -0 9.29299e-14)
(0 -0 9.61351e-14)
(0 -0 4.41453e-14)
(0 -0 8.85567e-14)
(0 -0 6.19268e-14)
)
;
    }
    fixedWalls
    {
        type            calculated;
        value           nonuniform List<vector> 
60
(
(0 -0 7.82515e-12)
(0 -0 1.27866e-12)
(0 -0 -3.75455e-12)
(0 -0 -3.31792e-12)
(0 -0 5.11779e-12)
(0 -0 -4.59266e-12)
(0 -0 -7.20741e-13)
(0 -0 1.15226e-11)
(0 -0 -1.24336e-11)
(0 -0 -4.69167e-14)
(0 -0 5.17992e-12)
(0 -0 -1.77294e-12)
(0 -0 -1.27871e-12)
(0 -0 -2.2121e-13)
(0 -0 2.38451e-12)
(0 -0 -4.5887e-12)
(0 -0 3.75507e-12)
(0 -0 5.78929e-12)
(0 -0 -8.28229e-12)
(0 -0 -3.30559e-12)
(0 -0 -9.39488e-15)
(0 -0 6.45405e-14)
(0 -0 3.48107e-15)
(0 -0 3.08385e-14)
(0 -0 3.9177e-14)
(0 -0 -6.07751e-14)
(0 -0 -2.83474e-15)
(0 -0 -2.16111e-14)
(0 -0 -2.18876e-14)
(0 -0 7.44546e-15)
(0 -0 4.58034e-15)
(0 -0 -4.02773e-14)
(0 -0 -9.74047e-15)
(0 -0 2.2092e-14)
(0 -0 6.16013e-17)
(0 -0 -2.37167e-14)
(0 -0 -2.01179e-15)
(0 -0 1.49743e-15)
(0 -0 1.23994e-14)
(0 -0 3.39487e-14)
(0 -0 -9.79281e-13)
(0 -0 -1.63401e-12)
(0 -0 -2.10605e-13)
(0 -0 -3.16659e-13)
(0 -0 -3.82589e-13)
(0 -0 -4.28015e-13)
(0 -0 -2.02494e-13)
(0 -0 -2.59003e-13)
(0 -0 -1.86222e-13)
(0 -0 -9.74548e-14)
(0 -0 -1.82615e-13)
(0 -0 -8.74888e-14)
(0 -0 -1.73285e-13)
(0 -0 -1.35345e-13)
(0 -0 -1.01093e-13)
(0 -0 -9.11171e-14)
(0 -0 -1.2208e-13)
(0 -0 -3.89738e-14)
(0 -0 8.51147e-14)
(0 -0 -7.89641e-15)
)
;
    }
    frontAndBack
    {
        type            empty;
    }
}


// ************************************************************************* //
