/*--------------------------------*- C++ -*----------------------------------*\
| =========                 |                                                 |
| \\      /  F ield         | OpenFOAM: The Open Source CFD Toolbox           |
|  \\    /   O peration     | Version:  2312                                  |
|   \\  /    A nd           | Website:  www.openfoam.com                      |
|    \\/     M anipulation  |                                                 |
\*---------------------------------------------------------------------------*/
FoamFile
{
    version     2.0;
    format      ascii;
    arch        "LSB;label=32;scalar=64";
    class       volScalarField;
    location    "7.875";
    object      zeroGradient(epsilon);
}
// * * * * * * * * * * * * * * * * * * * * * * * * * * * * * * * * * * * * * //

dimensions      [0 2 -3 0 0 0 0];

internalField   nonuniform List<scalar> 
400
(
1.42104e-06
1.42104e-06
1.42104e-06
1.42104e-06
1.42104e-06
1.42104e-06
1.42104e-06
1.42104e-06
1.42103e-06
1.42104e-06
1.42103e-06
1.42104e-06
1.42103e-06
1.42104e-06
1.42103e-06
1.42104e-06
1.42103e-06
1.42103e-06
1.42103e-06
1.42103e-06
1.46863e-06
1.45037e-06
1.45191e-06
1.45256e-06
1.45383e-06
1.45449e-06
1.45576e-06
1.45645e-06
1.45772e-06
1.45842e-06
1.4597e-06
1.46042e-06
1.4617e-06
1.46243e-06
1.46373e-06
1.46447e-06
1.46577e-06
1.46652e-06
1.46718e-06
1.46821e-06
1.54344e-06
1.5236e-06
1.5253e-06
1.52601e-06
1.52741e-06
1.52814e-06
1.52953e-06
1.53028e-06
1.53167e-06
1.53243e-06
1.53382e-06
1.53459e-06
1.53599e-06
1.53676e-06
1.53818e-06
1.53895e-06
1.54037e-06
1.54116e-06
1.54187e-06
1.54298e-06
1.62125e-06
1.60007e-06
1.60189e-06
1.60264e-06
1.60414e-06
1.60491e-06
1.6064e-06
1.6072e-06
1.60868e-06
1.60949e-06
1.61098e-06
1.6118e-06
1.6133e-06
1.61412e-06
1.61563e-06
1.61646e-06
1.61797e-06
1.61881e-06
1.61957e-06
1.62075e-06
1.68585e-06
1.66352e-06
1.66543e-06
1.66623e-06
1.6678e-06
1.66862e-06
1.67018e-06
1.67102e-06
1.67259e-06
1.67344e-06
1.67501e-06
1.67587e-06
1.67745e-06
1.67832e-06
1.67991e-06
1.68078e-06
1.68238e-06
1.68326e-06
1.68406e-06
1.68531e-06
1.73224e-06
1.70908e-06
1.71106e-06
1.71189e-06
1.71352e-06
1.71437e-06
1.71599e-06
1.71686e-06
1.71849e-06
1.71937e-06
1.721e-06
1.72189e-06
1.72353e-06
1.72443e-06
1.72608e-06
1.72699e-06
1.72864e-06
1.72956e-06
1.73039e-06
1.73168e-06
1.76271e-06
1.73899e-06
1.74102e-06
1.74186e-06
1.74353e-06
1.7444e-06
1.74606e-06
1.74696e-06
1.74862e-06
1.74952e-06
1.75119e-06
1.75211e-06
1.75378e-06
1.75471e-06
1.75639e-06
1.75732e-06
1.75902e-06
1.75996e-06
1.76081e-06
1.76213e-06
1.78195e-06
1.75787e-06
1.75993e-06
1.76079e-06
1.76248e-06
1.76337e-06
1.76505e-06
1.76596e-06
1.76765e-06
1.76856e-06
1.77026e-06
1.77119e-06
1.77289e-06
1.77382e-06
1.77553e-06
1.77648e-06
1.7782e-06
1.77915e-06
1.78002e-06
1.78136e-06
1.79433e-06
1.77003e-06
1.7721e-06
1.77297e-06
1.77468e-06
1.77557e-06
1.77728e-06
1.77819e-06
1.77989e-06
1.78082e-06
1.78253e-06
1.78346e-06
1.78518e-06
1.78613e-06
1.78785e-06
1.78881e-06
1.79054e-06
1.79151e-06
1.79238e-06
1.79373e-06
1.80299e-06
1.77853e-06
1.78062e-06
1.78149e-06
1.78321e-06
1.78411e-06
1.78582e-06
1.78674e-06
1.78846e-06
1.78939e-06
1.79111e-06
1.79205e-06
1.79378e-06
1.79473e-06
1.79647e-06
1.79743e-06
1.79918e-06
1.80015e-06
1.80102e-06
1.80239e-06
1.8099e-06
1.78531e-06
1.78741e-06
1.78829e-06
1.79002e-06
1.79092e-06
1.79264e-06
1.79357e-06
1.79529e-06
1.79623e-06
1.79796e-06
1.7989e-06
1.80064e-06
1.8016e-06
1.80334e-06
1.80431e-06
1.80606e-06
1.80704e-06
1.80792e-06
1.80929e-06
1.81621e-06
1.79151e-06
1.79362e-06
1.7945e-06
1.79624e-06
1.79714e-06
1.79887e-06
1.7998e-06
1.80153e-06
1.80247e-06
1.80421e-06
1.80516e-06
1.80691e-06
1.80787e-06
1.80962e-06
1.81059e-06
1.81236e-06
1.81334e-06
1.81422e-06
1.8156e-06
1.82259e-06
1.79777e-06
1.79989e-06
1.80078e-06
1.80252e-06
1.80343e-06
1.80517e-06
1.8061e-06
1.80784e-06
1.80879e-06
1.81053e-06
1.81149e-06
1.81324e-06
1.81421e-06
1.81597e-06
1.81695e-06
1.81872e-06
1.8197e-06
1.82059e-06
1.82198e-06
1.82942e-06
1.80447e-06
1.8066e-06
1.80749e-06
1.80925e-06
1.81016e-06
1.81191e-06
1.81285e-06
1.81459e-06
1.81554e-06
1.8173e-06
1.81826e-06
1.82002e-06
1.82099e-06
1.82276e-06
1.82374e-06
1.82552e-06
1.82651e-06
1.82741e-06
1.8288e-06
1.83686e-06
1.81178e-06
1.81393e-06
1.81482e-06
1.81658e-06
1.8175e-06
1.81926e-06
1.8202e-06
1.82196e-06
1.82292e-06
1.82468e-06
1.82565e-06
1.82742e-06
1.82839e-06
1.83017e-06
1.83116e-06
1.83295e-06
1.83395e-06
1.83484e-06
1.83624e-06
1.84489e-06
1.81966e-06
1.82181e-06
1.82271e-06
1.82449e-06
1.82541e-06
1.82718e-06
1.82812e-06
1.82989e-06
1.83085e-06
1.83263e-06
1.8336e-06
1.83538e-06
1.83636e-06
1.83816e-06
1.83915e-06
1.84095e-06
1.84195e-06
1.84285e-06
1.84426e-06
1.85312e-06
1.82774e-06
1.82991e-06
1.83082e-06
1.8326e-06
1.83353e-06
1.83531e-06
1.83626e-06
1.83804e-06
1.839e-06
1.84079e-06
1.84177e-06
1.84356e-06
1.84455e-06
1.84635e-06
1.84734e-06
1.84915e-06
1.85016e-06
1.85107e-06
1.85249e-06
1.86082e-06
1.83531e-06
1.83749e-06
1.8384e-06
1.84019e-06
1.84113e-06
1.84291e-06
1.84387e-06
1.84566e-06
1.84663e-06
1.84842e-06
1.8494e-06
1.85121e-06
1.8522e-06
1.85401e-06
1.85501e-06
1.85683e-06
1.85785e-06
1.85876e-06
1.86018e-06
1.86691e-06
1.84178e-06
1.84388e-06
1.84477e-06
1.84651e-06
1.84743e-06
1.84916e-06
1.85011e-06
1.85185e-06
1.85282e-06
1.85457e-06
1.85556e-06
1.85732e-06
1.85832e-06
1.86011e-06
1.86112e-06
1.86292e-06
1.86395e-06
1.86486e-06
1.86628e-06
1.8697e-06
1.8697e-06
1.86969e-06
1.8697e-06
1.86968e-06
1.86971e-06
1.86968e-06
1.86971e-06
1.86967e-06
1.86971e-06
1.86967e-06
1.86971e-06
1.86968e-06
1.8697e-06
1.86969e-06
1.86969e-06
1.86969e-06
1.86969e-06
1.86969e-06
1.86969e-06
)
;

boundaryField
{
    movingWall
    {
        type            zeroGradient;
    }
    fixedWalls
    {
        type            zeroGradient;
    }
    frontAndBack
    {
        type            empty;
    }
}


// ************************************************************************* //
