/*--------------------------------*- C++ -*----------------------------------*\
| =========                 |                                                 |
| \\      /  F ield         | OpenFOAM: The Open Source CFD Toolbox           |
|  \\    /   O peration     | Version:  2312                                  |
|   \\  /    A nd           | Website:  www.openfoam.com                      |
|    \\/     M anipulation  |                                                 |
\*---------------------------------------------------------------------------*/
FoamFile
{
    version     2.0;
    format      ascii;
    arch        "LSB;label=32;scalar=64";
    class       volScalarField;
    location    "7.25";
    object      divPhi;
}
// * * * * * * * * * * * * * * * * * * * * * * * * * * * * * * * * * * * * * //

dimensions      [0 0 -1 0 0 0 0];

internalField   nonuniform List<scalar> 
400
(
-5.42101e-14
1.25136e-14
7.12888e-15
-2.38792e-14
8.69227e-15
1.02463e-14
-1.40707e-14
1.81289e-14
-2.5039e-14
7.9418e-15
-6.11351e-16
-5.65041e-15
1.7605e-14
-2.29451e-15
-6.65881e-15
-3.85767e-15
-3.66313e-15
9.71438e-15
4.3516e-15
0
0
1.39964e-14
6.66896e-15
-7.67143e-15
6.90423e-15
-4.23368e-15
3.07011e-14
-2.45749e-15
-4.48006e-15
1.662e-14
-3.23139e-14
-2.14223e-15
-3.21043e-14
1.82663e-14
-2.24525e-14
3.03102e-14
-3.02208e-14
4.40117e-14
4.24005e-15
0
0
-1.332e-14
1.02238e-14
-6.02624e-15
1.9552e-15
-8.24668e-15
8.38667e-15
-3.11246e-15
-1.48877e-14
-1.46022e-14
7.55e-15
-9.07737e-15
-1.28915e-14
-2.54797e-14
1.796e-14
-4.41215e-15
-1.26585e-14
-1.69766e-14
4.16431e-15
0
0
-3.32125e-15
6.69958e-15
6.48728e-15
1.27566e-14
-3.16603e-15
5.14463e-16
1.4348e-14
6.83354e-15
1.06968e-14
1.87265e-14
-6.39476e-15
-1.27076e-14
4.15048e-15
-1.35988e-14
-7.81041e-15
-4.18347e-14
7.07598e-15
1.39574e-14
0
0
9.01654e-15
9.59972e-15
4.90474e-15
1.07418e-14
-1.5324e-14
-2.16188e-14
-1.8555e-14
8.32882e-15
1.7075e-14
-7.18669e-15
-1.23477e-14
-1.30797e-14
2.34382e-14
1.55776e-14
1.48561e-14
1.64606e-14
1.51506e-14
-3.03145e-14
2.71051e-14
0
1.56826e-14
-3.57525e-15
2.14192e-14
1.3198e-14
8.16572e-15
2.80025e-14
-1.84266e-15
4.48161e-15
-5.44437e-16
-9.7698e-15
-1.44598e-14
-6.38839e-15
-8.61642e-15
-2.65946e-14
-1.52567e-14
-4.33621e-15
-2.67703e-14
6.19032e-15
0
0
-2.13158e-14
6.19259e-16
-2.38757e-14
2.22699e-14
9.0401e-15
7.02105e-15
-6.50409e-16
2.76843e-15
-9.28626e-15
-1.36934e-14
4.44825e-15
1.36463e-15
-5.4432e-15
3.13183e-15
-1.83425e-14
1.84138e-14
8.7943e-16
-1.80535e-14
0
0
3.08468e-15
-3.97833e-15
-5.37039e-17
1.60108e-14
6.18893e-15
5.36353e-15
-1.03581e-14
2.70624e-14
-3.58361e-14
2.15502e-14
1.68433e-14
-3.89997e-15
-2.95798e-14
1.53796e-15
3.0719e-15
9.03465e-15
1.14226e-14
-1.79604e-15
0
2.71051e-14
1.0603e-14
-2.13947e-14
-6.3553e-15
3.21417e-15
-7.3509e-15
2.72846e-14
7.54565e-16
-1.36e-14
-1.52813e-14
-1.24604e-14
-2.15327e-14
2.58334e-14
-9.34904e-15
-3.38984e-15
-1.31683e-14
1.25498e-14
1.7728e-14
9.53136e-15
-2.71051e-14
-2.71051e-14
2.67701e-14
-1.34738e-15
5.51951e-15
2.08619e-14
-7.05905e-15
4.08868e-15
9.02133e-15
1.52048e-14
2.61069e-14
-1.13153e-14
-4.76729e-15
-8.87844e-15
-1.87398e-15
-1.00714e-14
-6.44103e-15
1.4171e-14
8.97002e-15
1.66068e-14
0
0
-1.97726e-14
2.77965e-14
6.03771e-15
-3.40467e-16
-8.98359e-15
5.11817e-15
-5.75374e-15
-6.58846e-15
1.42307e-14
8.94559e-15
-2.1728e-14
-9.14447e-15
2.10558e-14
-1.26849e-14
-1.11576e-14
-3.11993e-14
2.45312e-14
-8.82728e-15
0
0
-3.13491e-15
2.51447e-14
5.69656e-15
1.48203e-14
-1.0517e-14
-7.1928e-16
5.99123e-15
-2.97495e-15
-1.45003e-14
2.06333e-14
2.10711e-14
-2.10782e-14
-1.60764e-14
-1.46264e-14
-3.42239e-15
2.66167e-15
-1.19912e-14
-8.27277e-15
2.71051e-14
-2.71051e-14
3.06424e-15
-2.38413e-14
2.72141e-14
3.04886e-16
-1.737e-14
6.3549e-15
1.0979e-14
-3.00415e-14
1.59988e-14
-4.8727e-15
-2.11671e-14
-1.03453e-14
7.50532e-15
2.30685e-14
7.54002e-15
-1.19049e-14
-1.55251e-15
1.06683e-14
-2.71051e-14
2.71051e-14
1.70561e-14
-1.03208e-15
-2.04022e-16
-2.73584e-15
3.10439e-14
-1.99552e-14
2.72973e-14
-3.4001e-14
5.33839e-15
-2.83337e-14
1.37746e-14
-2.44157e-14
2.33219e-14
-9.34385e-15
2.3065e-14
-6.78831e-15
-6.70601e-15
1.73957e-14
0
-2.71051e-14
1.71929e-14
1.39663e-15
-2.30025e-14
1.11084e-15
4.29432e-15
2.59914e-14
-1.96632e-14
2.58357e-16
2.25495e-14
-2.39055e-15
-2.73071e-14
1.57387e-15
-9.42644e-17
-9.91457e-15
-1.07647e-14
-2.76495e-14
6.60087e-15
-3.57873e-15
0
2.71051e-14
-1.13742e-14
3.13603e-15
-4.74e-15
7.94349e-15
-9.1427e-15
1.01225e-14
7.81054e-15
1.01824e-14
-4.75845e-16
-2.13752e-14
1.54513e-14
-1.49567e-14
7.17637e-15
5.66201e-15
-2.06732e-14
-1.11282e-14
-1.5323e-15
7.98877e-15
2.71051e-14
0
-3.31378e-14
1.46841e-14
-1.25921e-14
-1.57454e-14
7.61835e-15
-1.80295e-15
-2.72464e-16
-1.17863e-15
-2.68623e-15
9.02679e-15
-1.87584e-14
2.93366e-14
1.47746e-14
-7.76467e-15
3.28523e-14
-4.10276e-14
-1.5351e-15
2.94752e-14
-2.71051e-14
0
-1.74371e-14
-2.70585e-14
-1.50581e-14
1.65457e-14
3.07969e-14
-1.06716e-14
-2.88001e-14
7.44898e-15
-1.09866e-14
3.07839e-15
2.78558e-14
-1.53364e-14
-2.14735e-14
6.80989e-15
-6.0127e-15
-1.20436e-15
-1.75548e-14
1.63767e-14
0
2.71051e-14
3.40884e-15
6.76122e-15
2.6813e-15
-1.95689e-14
5.18126e-15
-6.85159e-15
8.24021e-15
-1.92786e-14
3.64913e-15
-1.84274e-16
3.00283e-14
5.5097e-15
1.37904e-14
1.83148e-15
-5.46391e-15
2.07681e-14
-1.14612e-14
1.16319e-14
-2.71051e-14
-2.71051e-14
0
0
0
0
0
0
0
0
0
0
0
0
-2.71051e-14
2.71051e-14
0
-2.71051e-14
0
2.71051e-14
0
)
;

boundaryField
{
    movingWall
    {
        type            extrapolatedCalculated;
        value           nonuniform List<scalar> 
20
(
-2.71051e-14
0
0
0
0
0
0
0
0
0
0
0
0
-2.71051e-14
2.71051e-14
0
-2.71051e-14
0
2.71051e-14
0
)
;
    }
    fixedWalls
    {
        type            extrapolatedCalculated;
        value           nonuniform List<scalar> 
60
(
-5.42101e-14
0
0
0
0
0
0
0
2.71051e-14
-2.71051e-14
0
0
-2.71051e-14
2.71051e-14
-2.71051e-14
2.71051e-14
0
0
2.71051e-14
-2.71051e-14
0
0
0
0
2.71051e-14
0
0
0
-2.71051e-14
0
0
2.71051e-14
-2.71051e-14
0
0
2.71051e-14
-2.71051e-14
0
-2.71051e-14
0
-5.42101e-14
1.25136e-14
7.12888e-15
-2.38792e-14
8.69227e-15
1.02463e-14
-1.40707e-14
1.81289e-14
-2.5039e-14
7.9418e-15
-6.11351e-16
-5.65041e-15
1.7605e-14
-2.29451e-15
-6.65881e-15
-3.85767e-15
-3.66313e-15
9.71438e-15
4.3516e-15
0
)
;
    }
    frontAndBack
    {
        type            empty;
    }
}


// ************************************************************************* //
