/*--------------------------------*- C++ -*----------------------------------*\
| =========                 |                                                 |
| \\      /  F ield         | OpenFOAM: The Open Source CFD Toolbox           |
|  \\    /   O peration     | Version:  2312                                  |
|   \\  /    A nd           | Website:  www.openfoam.com                      |
|    \\/     M anipulation  |                                                 |
\*---------------------------------------------------------------------------*/
FoamFile
{
    version     2.0;
    format      ascii;
    arch        "LSB;label=32;scalar=64";
    class       volScalarField;
    location    "7.25";
    object      divU;
}
// * * * * * * * * * * * * * * * * * * * * * * * * * * * * * * * * * * * * * //

dimensions      [0 0 -1 0 0 0 0];

internalField   nonuniform List<scalar> 
400
(
1.5992e-11
-1.9993e-12
4.42839e-13
-1.79005e-13
3.45603e-14
1.50315e-14
-2.05147e-14
-6.2303e-15
1.40891e-14
-3.94079e-14
3.20909e-15
8.50862e-15
1.57727e-14
-3.05783e-14
2.22387e-14
-3.28958e-14
6.93402e-14
-5.38886e-15
-7.06174e-14
5.42101e-14
-2.93548e-11
3.53771e-12
-7.17144e-13
3.04748e-13
-1.23931e-13
-1.13143e-14
2.7515e-14
-3.17967e-14
5.07849e-14
3.94521e-14
-3.38009e-14
-3.77755e-14
2.54397e-14
-1.34694e-14
-3.21422e-15
-5.88207e-14
-5.76467e-15
5.64717e-14
-4.83097e-14
2.71051e-14
1.32002e-11
-1.6049e-12
2.4208e-13
-9.82478e-14
1.74544e-14
2.70015e-14
1.60717e-14
4.8723e-15
-6.31229e-14
-1.84291e-14
-1.71014e-14
5.73735e-15
-1.53792e-14
-4.41029e-14
3.0324e-14
4.20823e-14
-5.98263e-15
1.10524e-14
-1.01336e-14
-2.71051e-14
8.5923e-12
-2.34855e-13
4.49517e-14
1.33773e-14
-6.36179e-14
1.36515e-14
5.80206e-15
-4.45843e-14
3.99886e-14
-1.13396e-15
1.51682e-14
3.99638e-14
1.82898e-14
1.0334e-14
-1.28441e-14
-7.7343e-14
-1.98106e-14
4.4327e-15
4.88459e-14
2.71051e-14
-2.01662e-11
1.50069e-12
-3.55205e-13
1.52072e-13
2.4302e-14
-1.18328e-14
-3.42594e-14
8.65316e-15
1.43223e-14
3.17545e-14
-7.64391e-15
-1.97765e-14
1.30852e-14
-1.49125e-14
-2.30213e-14
1.52915e-14
4.38204e-14
-5.85415e-15
2.70696e-14
-2.71051e-14
1.73472e-11
-1.16639e-12
2.39473e-13
-1.2769e-13
8.6013e-15
-1.10253e-14
4.82318e-15
1.99036e-14
-3.13012e-14
-8.593e-15
-9.52202e-15
8.92835e-15
1.37427e-14
1.81757e-14
1.01045e-14
-8.73803e-15
-1.11419e-15
-2.33695e-14
5.39402e-15
-2.71051e-14
2.41235e-12
-1.31144e-12
2.4455e-13
-1.11685e-13
4.03719e-14
-1.96423e-14
2.04223e-14
3.48526e-15
-2.77422e-15
-1.46071e-14
5.80364e-16
1.53631e-14
1.29621e-14
-8.37282e-15
-3.50013e-14
-2.75228e-14
1.05136e-14
-7.22729e-15
1.08534e-14
0
-2.08167e-11
3.67618e-12
-6.82499e-13
2.75966e-13
-5.87553e-14
2.02807e-14
-7.54329e-14
1.44546e-14
4.47688e-14
4.87556e-15
-3.4798e-14
-2.31539e-14
-4.0842e-14
3.96945e-14
-6.59645e-15
1.41558e-14
4.87747e-14
1.39741e-14
-1.46629e-14
0
1.95698e-11
-3.68298e-12
6.75419e-13
-3.21963e-13
8.89991e-14
2.39926e-15
5.27565e-14
9.02938e-15
-5.77266e-14
-6.0222e-14
5.98811e-14
4.56081e-14
3.69325e-14
-1.9601e-14
-7.62208e-14
-1.76436e-14
-2.01236e-14
-8.45756e-15
4.92468e-14
0
-7.39968e-12
2.03345e-12
-4.0394e-13
1.47871e-13
4.37005e-15
2.27695e-14
-4.15201e-14
-5.4951e-15
2.03796e-14
4.35904e-14
-5.19971e-15
-1.78506e-14
-4.64389e-14
-6.19531e-17
4.95416e-14
1.65378e-14
1.28751e-14
1.01609e-14
-1.4408e-14
-2.71051e-14
-1.73472e-12
2.3224e-13
2.43435e-14
2.78702e-14
-4.53247e-14
3.89861e-14
6.22055e-15
-1.86074e-14
6.27601e-14
-4.24458e-14
-2.51407e-14
6.75548e-14
-1.14591e-14
-1.27228e-14
1.29946e-14
-7.07726e-15
-1.48907e-15
2.70006e-14
2.50445e-14
0
8.80914e-12
-2.07578e-12
3.42404e-13
-1.71218e-13
8.71981e-14
-4.82129e-15
4.50599e-14
-8.45997e-15
-3.28369e-14
2.94545e-15
1.70578e-14
1.8456e-14
-5.60219e-15
-2.17244e-15
1.9892e-14
-8.55454e-15
-2.34201e-15
9.54547e-15
-1.40881e-14
-2.71051e-14
-1.77538e-11
3.75964e-12
-7.99292e-13
2.97285e-13
-4.40072e-14
4.61191e-15
-6.4157e-14
4.86352e-14
4.80574e-14
-6.06907e-15
-3.36444e-14
7.65544e-15
-5.3227e-14
-3.30523e-14
-1.08097e-14
1.35313e-14
-3.65356e-15
6.03307e-14
1.38123e-14
0
1.94885e-11
-3.38146e-12
6.94581e-13
-2.85192e-13
3.55989e-14
8.15772e-15
1.09361e-14
1.37248e-15
-6.88312e-14
1.44269e-15
-2.38107e-14
-1.76192e-14
3.26775e-14
3.39813e-14
-2.31529e-15
2.71639e-14
-3.55083e-14
1.22321e-14
-2.59083e-14
0
-5.55654e-12
1.39281e-12
-3.10987e-13
1.10668e-13
-7.15123e-16
2.59835e-15
2.92973e-14
-2.08447e-14
3.34884e-14
2.8725e-14
-2.36082e-14
6.26728e-14
-1.31507e-14
-1.08217e-14
1.63334e-15
-4.38285e-14
-3.63108e-14
3.62667e-14
7.34388e-14
-2.71051e-14
-1.58294e-11
1.46384e-12
-2.97925e-13
1.23013e-13
-2.59913e-14
9.07003e-15
3.96108e-15
5.76059e-15
-2.78178e-14
2.2231e-14
-4.50414e-15
6.20123e-15
-8.07396e-14
1.42782e-14
7.07291e-14
-4.24533e-14
2.02464e-14
2.68527e-14
-3.08365e-14
0
2.33646e-11
-2.56285e-12
5.19328e-13
-2.2497e-13
5.36012e-14
-3.80757e-15
-4.94565e-15
-9.15958e-15
2.91284e-14
-3.01667e-14
3.0841e-14
1.1855e-14
2.80035e-15
-1.44439e-14
-3.05785e-15
-7.80325e-15
-3.58327e-14
-5.96504e-15
2.68712e-14
-2.71051e-14
-5.25838e-12
1.34677e-12
-2.84974e-13
9.79172e-14
-5.28923e-14
-3.66686e-14
2.52929e-14
8.07591e-15
-1.74534e-14
1.89408e-15
5.75964e-14
-3.08211e-16
-1.97512e-14
2.90858e-14
-5.01142e-14
2.57614e-14
-6.67155e-14
4.1132e-14
7.94388e-17
0
-1.88651e-11
1.19526e-12
-2.89353e-13
1.10798e-13
1.2275e-14
1.33062e-14
-7.21681e-15
-1.72154e-14
3.53915e-14
-4.19444e-14
-5.63327e-14
3.08162e-14
1.35307e-14
4.74342e-14
-5.75401e-14
3.09469e-14
5.70716e-15
-1.27516e-14
-2.48623e-14
0
1.35796e-11
-1.51788e-12
3.79471e-13
-1.35525e-13
0
0
0
0
0
2.71051e-14
2.71051e-14
0
-2.71051e-14
2.71051e-14
0
0
0
-5.42101e-14
5.42101e-14
0
)
;

boundaryField
{
    movingWall
    {
        type            extrapolatedCalculated;
        value           nonuniform List<scalar> 
20
(
1.35796e-11
-1.51788e-12
3.79471e-13
-1.35525e-13
0
0
0
0
0
2.71051e-14
2.71051e-14
0
-2.71051e-14
2.71051e-14
0
0
0
-5.42101e-14
5.42101e-14
0
)
;
    }
    fixedWalls
    {
        type            extrapolatedCalculated;
        value           nonuniform List<scalar> 
60
(
1.5992e-11
-2.93548e-11
1.32002e-11
8.5923e-12
-2.01662e-11
1.73472e-11
2.41235e-12
-2.08167e-11
1.95698e-11
-7.39968e-12
-1.73472e-12
8.80914e-12
-1.77538e-11
1.94885e-11
-5.55654e-12
-1.58294e-11
2.33646e-11
-5.25838e-12
-1.88651e-11
1.35796e-11
5.42101e-14
2.71051e-14
-2.71051e-14
2.71051e-14
-2.71051e-14
-2.71051e-14
0
0
0
-2.71051e-14
0
-2.71051e-14
0
0
-2.71051e-14
0
-2.71051e-14
0
0
0
1.5992e-11
-1.9993e-12
4.42839e-13
-1.79005e-13
3.45603e-14
1.50315e-14
-2.05147e-14
-6.2303e-15
1.40891e-14
-3.94079e-14
3.20909e-15
8.50862e-15
1.57727e-14
-3.05783e-14
2.22387e-14
-3.28958e-14
6.93402e-14
-5.38886e-15
-7.06174e-14
5.42101e-14
)
;
    }
    frontAndBack
    {
        type            empty;
    }
}


// ************************************************************************* //
