/*--------------------------------*- C++ -*----------------------------------*\
| =========                 |                                                 |
| \\      /  F ield         | OpenFOAM: The Open Source CFD Toolbox           |
|  \\    /   O peration     | Version:  2312                                  |
|   \\  /    A nd           | Website:  www.openfoam.com                      |
|    \\/     M anipulation  |                                                 |
\*---------------------------------------------------------------------------*/
FoamFile
{
    version     2.0;
    format      ascii;
    arch        "LSB;label=32;scalar=64";
    class       volScalarField;
    location    "7.25";
    object      enstrophyField;
}
// * * * * * * * * * * * * * * * * * * * * * * * * * * * * * * * * * * * * * //

dimensions      [0 0 -2 0 0 0 0];

internalField   nonuniform List<scalar> 
400
(
7.32792e-23
1.36439e-22
6.38268e-24
4.34149e-25
9.21708e-27
1.43273e-28
7.5622e-28
5.81259e-28
2.15742e-27
5.03106e-27
5.53772e-28
5.44269e-29
1.22237e-29
4.1887e-28
4.05268e-31
1.38149e-27
9.46945e-28
3.11385e-29
2.03494e-30
1.72925e-27
9.46256e-26
4.10628e-25
1.17614e-26
6.84103e-27
9.7412e-27
1.14895e-26
4.89491e-27
2.35981e-27
6.47806e-27
3.99887e-27
3.29642e-27
1.58712e-27
2.07296e-27
6.26926e-28
5.17726e-30
1.78041e-27
4.73628e-27
2.79562e-28
5.65194e-28
5.28583e-28
1.44439e-23
6.88627e-23
3.5725e-24
1.70915e-25
1.7037e-26
3.71195e-28
6.05626e-29
3.85488e-29
6.76747e-29
4.70786e-27
4.90201e-28
3.07445e-27
8.42098e-29
2.55338e-27
7.29224e-29
4.24021e-30
8.90847e-30
1.78589e-28
1.00037e-28
1.39838e-28
1.305e-23
6.71143e-23
3.76229e-24
1.4485e-25
2.17109e-27
3.40776e-27
1.27705e-28
5.17758e-27
1.85758e-28
2.85798e-28
2.55251e-29
1.4062e-27
2.04593e-27
9.06762e-31
2.74604e-27
2.39442e-27
3.3302e-27
8.75849e-28
8.17335e-29
3.28323e-29
1.57715e-24
5.51003e-24
3.772e-25
1.25799e-26
4.29906e-27
1.06842e-26
1.20952e-26
2.06246e-26
3.54858e-27
3.38068e-27
3.80912e-27
1.24553e-27
2.61572e-29
1.77522e-27
1.42393e-27
1.20359e-27
3.29272e-27
1.48577e-27
1.66737e-27
4.18679e-29
1.04963e-23
3.24791e-23
1.73429e-24
9.58035e-26
9.71268e-28
3.83847e-27
8.19853e-28
1.07995e-27
5.99452e-27
5.23971e-27
2.64037e-27
4.23115e-27
1.60059e-27
3.6075e-27
1.34971e-27
1.09164e-27
2.27058e-28
5.67757e-29
6.03777e-28
5.94224e-28
3.47129e-23
9.70177e-23
5.47041e-24
2.23514e-25
5.22837e-26
4.83529e-27
1.62308e-26
1.49612e-26
3.58792e-28
6.47186e-29
3.93819e-29
3.88526e-27
2.16655e-27
3.30508e-27
1.35967e-27
6.82369e-27
5.70667e-28
8.60229e-30
1.12625e-29
2.519e-28
1.01763e-23
2.36228e-23
1.26874e-24
6.33688e-26
4.58887e-27
6.83521e-28
1.18211e-27
5.627e-28
6.63756e-28
2.37648e-27
2.22505e-28
5.33059e-28
3.40064e-29
1.82825e-27
4.17088e-27
6.88694e-28
4.50605e-27
1.72271e-27
8.25273e-29
2.49772e-29
3.78911e-24
9.98415e-24
5.78277e-25
2.27979e-26
1.32432e-27
2.3182e-29
4.29926e-27
1.99028e-27
1.94726e-27
9.97124e-29
1.29308e-29
4.31573e-27
6.96572e-28
3.88627e-31
4.02905e-27
6.4628e-28
8.85312e-29
8.96463e-29
1.40701e-29
3.61565e-28
3.93705e-23
5.98485e-23
3.29269e-24
1.86182e-25
1.26384e-26
3.11946e-27
1.01918e-27
1.86226e-27
2.69987e-28
1.21738e-29
2.7114e-27
4.71052e-27
3.46526e-28
1.57628e-29
9.59265e-28
4.77127e-27
1.70123e-27
1.37497e-27
2.89271e-29
5.94634e-29
5.36372e-23
6.96688e-23
3.54538e-24
2.21885e-25
1.10355e-26
7.12659e-28
2.69472e-27
1.3083e-26
6.89285e-27
2.13109e-28
1.44536e-27
1.62371e-27
6.35186e-28
6.64072e-27
2.18705e-28
2.0596e-28
2.54577e-30
1.8981e-30
1.54672e-28
5.52366e-30
3.45382e-23
4.85487e-23
2.45208e-24
1.20974e-25
1.31372e-27
8.16816e-28
2.45206e-27
3.42574e-27
7.51407e-29
8.0604e-28
3.21437e-27
7.12629e-28
4.58387e-29
1.70433e-27
1.43996e-27
1.80133e-27
4.25899e-29
1.39567e-27
4.09437e-30
3.05297e-29
1.48199e-24
4.64729e-24
2.76506e-25
5.11581e-27
1.12777e-27
1.47923e-30
1.91315e-27
3.46736e-27
1.42346e-27
1.98074e-27
1.03318e-28
1.13894e-28
2.88164e-28
1.67301e-29
1.70347e-29
4.42825e-31
3.93448e-29
7.49115e-27
4.29791e-28
8.45618e-29
1.49824e-23
2.08449e-23
1.24866e-24
3.77197e-26
1.34259e-26
4.97453e-27
7.97005e-27
5.68027e-27
1.48891e-27
1.61786e-28
2.11447e-31
6.01186e-28
7.07237e-28
1.81313e-27
4.17451e-28
1.80649e-28
5.85755e-29
4.6784e-28
5.13166e-30
1.17251e-29
4.2868e-23
1.06323e-22
5.69708e-24
3.18497e-25
1.26499e-26
5.55714e-28
6.10363e-29
1.45387e-27
4.18009e-32
2.63838e-33
4.05078e-27
4.15539e-27
3.97921e-27
5.67546e-27
2.43702e-28
8.00996e-28
1.54344e-27
5.23306e-27
2.87791e-29
2.42894e-30
2.37371e-23
6.19008e-23
3.16605e-24
2.27617e-25
1.68969e-27
4.0911e-27
1.09622e-27
1.00246e-29
1.24295e-27
3.95888e-30
1.71273e-30
1.43653e-27
2.74569e-33
2.08992e-27
3.8182e-31
5.59821e-30
1.61197e-27
5.08545e-28
4.89742e-31
2.42396e-28
1.94563e-24
3.74746e-25
6.89245e-28
1.87278e-26
1.17329e-26
1.22207e-26
9.74443e-27
1.01514e-27
1.97404e-29
1.41685e-27
4.55957e-27
1.23702e-27
8.1121e-27
3.87118e-28
3.24044e-28
7.26858e-32
4.45529e-29
6.13169e-28
7.65372e-31
6.31291e-31
6.38726e-24
5.96515e-23
3.10127e-24
1.83043e-25
8.89559e-29
3.14892e-27
6.67377e-28
2.12518e-27
1.08394e-28
3.61853e-30
6.09528e-27
5.30596e-27
1.09817e-27
2.41272e-28
3.43463e-29
1.15965e-27
1.25251e-28
3.51796e-28
1.99799e-28
3.45909e-28
7.17014e-24
1.42552e-23
1.19171e-24
5.54364e-27
3.29661e-26
1.40644e-26
9.18848e-27
5.04402e-28
4.98784e-27
6.88853e-27
1.70546e-27
1.00515e-27
4.64055e-29
3.18146e-28
2.16631e-27
2.09696e-27
2.64782e-28
7.64803e-28
7.44413e-28
1.14914e-29
1.03954e-23
2.92875e-23
1.15413e-24
1.09223e-25
2.82164e-28
4.41938e-27
1.29184e-27
2.76545e-27
2.82371e-27
1.39163e-27
4.95077e-28
2.16849e-28
2.43889e-29
6.29031e-28
1.21699e-27
2.82573e-29
5.61926e-28
6.76924e-29
3.24164e-29
8.94325e-30
)
;

boundaryField
{
    movingWall
    {
        type            calculated;
        value           nonuniform List<scalar> 
20
(
8.23934e-23
5.0042e-23
9.53392e-25
3.30365e-25
2.55827e-26
3.89632e-26
1.51825e-26
1.95616e-26
6.02331e-27
1.55201e-26
1.816e-26
2.02446e-26
4.58901e-27
1.3925e-27
8.23711e-27
3.30486e-27
1.29173e-27
2.97856e-27
3.26157e-27
8.94325e-30
)
;
    }
    fixedWalls
    {
        type            calculated;
        value           nonuniform List<scalar> 
60
(
2.42865e-21
5.10366e-24
1.26891e-21
1.21034e-21
1.00357e-22
5.92511e-22
1.78218e-21
4.2945e-22
1.96984e-22
1.13667e-21
1.24382e-21
8.72183e-22
9.07712e-23
3.98555e-22
1.92344e-21
1.1111e-21
3.93968e-24
1.06453e-21
2.80905e-22
5.02557e-22
1.74507e-27
1.90646e-28
5.84012e-28
3.02505e-28
2.63638e-28
9.28016e-28
1.36856e-28
2.49554e-29
6.98146e-29
4.35784e-29
5.05167e-29
1.3044e-28
2.93919e-29
5.8779e-31
1.09641e-29
3.06611e-28
2.86942e-29
1.97572e-28
1.10144e-28
7.54017e-29
2.06239e-22
1.82624e-22
5.98317e-24
8.15741e-25
9.54737e-27
6.92661e-26
5.77835e-26
2.62286e-26
2.72662e-26
1.93318e-26
1.27935e-27
7.53912e-27
8.22818e-27
1.06942e-27
4.05268e-31
3.79946e-27
3.05188e-27
1.36767e-27
4.12552e-27
4.36335e-27
)
;
    }
    frontAndBack
    {
        type            empty;
    }
}


// ************************************************************************* //
