/*--------------------------------*- C++ -*----------------------------------*\
| =========                 |                                                 |
| \\      /  F ield         | OpenFOAM: The Open Source CFD Toolbox           |
|  \\    /   O peration     | Version:  2312                                  |
|   \\  /    A nd           | Website:  www.openfoam.com                      |
|    \\/     M anipulation  |                                                 |
\*---------------------------------------------------------------------------*/
FoamFile
{
    version     2.0;
    format      ascii;
    arch        "LSB;label=32;scalar=64";
    class       volScalarField;
    location    "7.25";
    object      epsilonzeroGrad;
}
// * * * * * * * * * * * * * * * * * * * * * * * * * * * * * * * * * * * * * //

dimensions      [0 2 -3 0 0 0 0];

internalField   nonuniform List<scalar> 
400
(
1.95145e-06
1.95144e-06
1.95144e-06
1.95144e-06
1.95144e-06
1.95144e-06
1.95144e-06
1.95144e-06
1.95144e-06
1.95144e-06
1.95143e-06
1.95143e-06
1.95143e-06
1.95143e-06
1.95143e-06
1.95143e-06
1.95143e-06
1.95143e-06
1.95143e-06
1.95143e-06
2.03507e-06
2.00686e-06
2.00924e-06
2.01021e-06
2.01218e-06
2.01319e-06
2.01516e-06
2.0162e-06
2.01817e-06
2.01924e-06
2.02121e-06
2.02232e-06
2.02428e-06
2.02543e-06
2.02739e-06
2.02858e-06
2.03054e-06
2.03176e-06
2.03274e-06
2.03434e-06
2.16372e-06
2.13261e-06
2.13528e-06
2.13637e-06
2.13857e-06
2.13968e-06
2.14188e-06
2.14302e-06
2.14521e-06
2.14639e-06
2.14857e-06
2.14978e-06
2.15195e-06
2.15319e-06
2.15535e-06
2.15663e-06
2.15878e-06
2.16009e-06
2.16117e-06
2.1629e-06
2.2936e-06
2.25997e-06
2.26285e-06
2.26402e-06
2.2664e-06
2.2676e-06
2.26998e-06
2.27121e-06
2.27358e-06
2.27485e-06
2.2772e-06
2.27851e-06
2.28086e-06
2.2822e-06
2.28454e-06
2.28592e-06
2.28824e-06
2.28966e-06
2.29082e-06
2.2927e-06
2.39793e-06
2.3622e-06
2.36526e-06
2.3665e-06
2.36903e-06
2.3703e-06
2.37283e-06
2.37414e-06
2.37665e-06
2.378e-06
2.3805e-06
2.38189e-06
2.38438e-06
2.38581e-06
2.38828e-06
2.38975e-06
2.39222e-06
2.39373e-06
2.39496e-06
2.39695e-06
2.47055e-06
2.43334e-06
2.43653e-06
2.43782e-06
2.44045e-06
2.44178e-06
2.4444e-06
2.44577e-06
2.44838e-06
2.44979e-06
2.45239e-06
2.45384e-06
2.45643e-06
2.45792e-06
2.4605e-06
2.46203e-06
2.4646e-06
2.46617e-06
2.46745e-06
2.46953e-06
2.517e-06
2.47884e-06
2.4821e-06
2.48343e-06
2.48612e-06
2.48748e-06
2.49018e-06
2.49157e-06
2.49426e-06
2.4957e-06
2.49837e-06
2.49985e-06
2.50251e-06
2.50404e-06
2.50668e-06
2.50825e-06
2.51089e-06
2.5125e-06
2.51382e-06
2.51595e-06
2.54584e-06
2.50707e-06
2.51039e-06
2.51174e-06
2.51447e-06
2.51585e-06
2.51859e-06
2.52001e-06
2.52273e-06
2.52419e-06
2.52691e-06
2.52841e-06
2.53111e-06
2.53267e-06
2.53535e-06
2.53695e-06
2.53962e-06
2.54126e-06
2.5426e-06
2.54476e-06
2.56431e-06
2.52517e-06
2.52852e-06
2.52988e-06
2.53264e-06
2.53404e-06
2.5368e-06
2.53823e-06
2.54098e-06
2.54246e-06
2.5452e-06
2.54672e-06
2.54945e-06
2.55102e-06
2.55373e-06
2.55534e-06
2.55804e-06
2.55969e-06
2.56105e-06
2.56323e-06
2.57737e-06
2.53796e-06
2.54133e-06
2.5427e-06
2.54548e-06
2.54689e-06
2.54967e-06
2.55111e-06
2.55388e-06
2.55537e-06
2.55813e-06
2.55966e-06
2.5624e-06
2.56398e-06
2.56671e-06
2.56834e-06
2.57106e-06
2.57272e-06
2.57408e-06
2.57628e-06
2.58799e-06
2.54836e-06
2.55175e-06
2.55313e-06
2.55592e-06
2.55734e-06
2.56013e-06
2.56158e-06
2.56437e-06
2.56586e-06
2.56864e-06
2.57018e-06
2.57294e-06
2.57452e-06
2.57727e-06
2.5789e-06
2.58164e-06
2.58331e-06
2.58468e-06
2.58689e-06
2.59788e-06
2.55804e-06
2.56144e-06
2.56283e-06
2.56564e-06
2.56706e-06
2.56987e-06
2.57133e-06
2.57413e-06
2.57563e-06
2.57842e-06
2.57997e-06
2.58274e-06
2.58433e-06
2.58709e-06
2.58873e-06
2.59149e-06
2.59317e-06
2.59454e-06
2.59676e-06
2.60799e-06
2.56795e-06
2.57137e-06
2.57276e-06
2.57559e-06
2.57702e-06
2.57984e-06
2.58131e-06
2.58412e-06
2.58563e-06
2.58843e-06
2.58999e-06
2.59278e-06
2.59438e-06
2.59715e-06
2.5988e-06
2.60157e-06
2.60326e-06
2.60464e-06
2.60687e-06
2.61892e-06
2.57866e-06
2.5821e-06
2.58349e-06
2.58634e-06
2.58777e-06
2.59061e-06
2.59209e-06
2.59492e-06
2.59643e-06
2.59925e-06
2.60082e-06
2.60362e-06
2.60523e-06
2.60802e-06
2.60968e-06
2.61246e-06
2.61416e-06
2.61555e-06
2.6178e-06
2.63096e-06
2.59044e-06
2.59391e-06
2.59531e-06
2.59817e-06
2.59962e-06
2.60247e-06
2.60396e-06
2.6068e-06
2.60833e-06
2.61117e-06
2.61274e-06
2.61556e-06
2.61718e-06
2.61999e-06
2.62166e-06
2.62446e-06
2.62616e-06
2.62757e-06
2.62982e-06
2.64408e-06
2.60329e-06
2.60677e-06
2.60819e-06
2.61107e-06
2.61252e-06
2.6154e-06
2.61689e-06
2.61976e-06
2.62129e-06
2.62415e-06
2.62573e-06
2.62857e-06
2.6302e-06
2.63303e-06
2.63471e-06
2.63752e-06
2.63925e-06
2.64066e-06
2.64293e-06
2.65773e-06
2.61667e-06
2.62017e-06
2.6216e-06
2.6245e-06
2.62596e-06
2.62885e-06
2.63036e-06
2.63324e-06
2.63479e-06
2.63766e-06
2.63926e-06
2.64212e-06
2.64376e-06
2.64661e-06
2.6483e-06
2.65113e-06
2.65286e-06
2.65428e-06
2.65657e-06
2.6707e-06
2.62937e-06
2.6329e-06
2.63434e-06
2.63725e-06
2.63872e-06
2.64163e-06
2.64315e-06
2.64605e-06
2.64761e-06
2.6505e-06
2.6521e-06
2.65498e-06
2.65664e-06
2.6595e-06
2.6612e-06
2.66405e-06
2.6658e-06
2.66722e-06
2.66953e-06
2.68107e-06
2.64035e-06
2.64377e-06
2.64515e-06
2.64799e-06
2.64943e-06
2.65227e-06
2.65376e-06
2.65659e-06
2.65814e-06
2.66097e-06
2.66258e-06
2.6654e-06
2.66707e-06
2.66988e-06
2.67162e-06
2.67443e-06
2.67621e-06
2.67762e-06
2.67994e-06
2.68582e-06
2.68581e-06
2.68581e-06
2.6858e-06
2.68581e-06
2.6858e-06
2.68581e-06
2.6858e-06
2.68581e-06
2.68579e-06
2.6858e-06
2.68579e-06
2.6858e-06
2.68579e-06
2.6858e-06
2.6858e-06
2.6858e-06
2.6858e-06
2.6858e-06
2.6858e-06
)
;

boundaryField
{
    movingWall
    {
        type            zeroGradient;
    }
    fixedWalls
    {
        type            zeroGradient;
    }
    frontAndBack
    {
        type            empty;
    }
}


// ************************************************************************* //
