/*--------------------------------*- C++ -*----------------------------------*\
| =========                 |                                                 |
| \\      /  F ield         | OpenFOAM: The Open Source CFD Toolbox           |
|  \\    /   O peration     | Version:  2312                                  |
|   \\  /    A nd           | Website:  www.openfoam.com                      |
|    \\/     M anipulation  |                                                 |
\*---------------------------------------------------------------------------*/
FoamFile
{
    version     2.0;
    format      ascii;
    arch        "LSB;label=32;scalar=64";
    class       volScalarField;
    location    "7.25";
    object      flowTypeField;
}
// * * * * * * * * * * * * * * * * * * * * * * * * * * * * * * * * * * * * * //

dimensions      [0 0 0 0 0 0 0];

internalField   nonuniform List<scalar> 
400
(
0.409991
0.0522145
0.0606317
-0.0318162
0.379025
0.225118
0.48657
0.208191
-0.162253
0.00336641
-0.211423
0.197776
0.612988
0.496264
0.904825
0.305946
0.400871
0.151857
0.934786
0.219994
0.980918
0.847268
0.891629
0.645238
0.145313
-0.117887
0.198493
0.1871
0.156625
0.0844366
0.168782
0.244959
0.173844
-0.196988
0.0881391
0.205281
-0.190945
0.540574
0.401455
0.533115
0.661517
0.144345
0.112536
0.176734
-0.0309225
0.607816
0.577608
0.279065
0.81387
-0.119603
-0.0682599
-0.20977
0.27455
-0.111817
0.734844
0.911488
0.00113904
0.0866991
0.594079
0.420053
0.618091
0.126293
0.0900382
0.186116
0.622734
-0.407078
0.275526
-0.018077
0.620377
0.0704945
0.731052
0.298252
-0.167485
0.00909091
-0.282487
0.115778
0.0104251
0.229603
0.707369
0.049513
0.897685
0.489221
0.432182
0.490821
0.335014
-0.033004
0.0533003
-0.048528
-0.0355486
0.0417134
-0.071159
0.168219
0.671523
0.0207258
0.0316928
0.200985
0.16981
0.0118539
0.0506429
0.624492
0.734296
0.205296
0.175127
0.185552
0.382698
-0.161952
-0.293501
0.177716
-0.0158301
-0.159169
-0.334919
-0.129906
-0.0430547
-0.0412905
0.0465891
0.13749
0.242655
0.579952
-0.242266
0.127048
0.33592
0.0824744
0.00154469
0.146711
-0.662031
0.0949706
-0.15791
0.0232789
0.561575
0.693791
0.66857
-0.0796898
-0.0683464
0.000172667
0.293059
-0.0401131
-0.123093
0.807227
0.283567
0.182642
0.746096
0.196319
0.179396
0.209318
-0.0589583
0.327721
0.238778
0.493211
0.546029
-0.25178
0.604184
0.452381
0.793614
0.198873
-0.121976
0.100457
0.0487479
0.0375697
0.616564
0.223876
0.823902
0.300829
0.272315
0.376091
0.350599
0.797464
-0.0461608
-0.0701822
0.17835
0.687801
0.905994
-0.0607367
0.000445783
0.962639
0.207477
-0.29096
0.288459
0.574947
0.86245
0.00790452
0.22562
0.0519134
-0.0234413
0.0144652
-0.203954
0.0561312
0.273924
0.28415
0.312991
0.864791
-0.314934
-0.18267
0.50566
0.338463
0.281
-0.19401
-0.0683311
0.134091
0.318337
0.563175
-0.0649032
-0.0110387
-0.0398335
-0.138404
-0.0987151
0.389517
-0.0210839
-0.185771
0.0405513
0.617127
0.11211
0.387911
-0.0387556
-0.0549728
0.422109
0.24965
0.871392
0.805152
0.3858
0.437919
0.273429
0.0210856
-0.0195455
0.0324696
0.583436
0.342763
0.315713
-0.399509
0.722359
0.0909887
-0.38275
-0.346114
0.13047
-0.0550844
0.0176381
-0.10538
0.00393424
0.0395079
0.852022
0.648535
0.871351
0.367326
0.330736
0.605326
0.280373
0.707315
0.182036
0.189696
0.38627
-0.140764
0.576911
0.489626
0.543793
0.719773
0.127076
0.920282
0.0099155
-0.00271563
-0.0790977
0.510004
0.681615
0.186103
0.120864
0.333677
-0.322676
0.0799486
-0.138935
0.018774
0.172376
0.465897
0.897548
0.106397
0.0573734
0.0316436
-0.0149763
0.348891
0.759448
-0.0951103
0.656112
0.170126
0.321284
0.0653739
0.011159
0.00375978
0.145955
0.275565
0.422072
0.315895
0.936564
0.960836
-0.0454691
0.0691792
-0.0317938
0.0487195
0.187811
0.325406
0.0797049
-0.17509
0.867256
0.861482
0.609831
0.121068
0.103764
-0.00330652
0.642374
-0.172623
0.277046
0.826571
0.333825
0.789869
0.898088
0.011932
0.98058
0.200368
0.973335
0.900562
0.26786
0.181108
0.91762
0.187152
0.898234
0.828134
0.967516
0.330769
0.100049
-0.0783627
-0.0276573
0.191813
0.848011
0.104085
0.0486819
-0.672792
-0.17339
-0.0240683
0.0392273
0.947658
0.597511
-0.247957
0.905892
0.910772
0.67453
0.132325
0.0924213
0.0890791
0.898852
-0.181052
0.611264
0.220012
0.348505
0.873426
0.0890346
-0.246077
0.214198
0.281556
0.794335
0.354322
0.654472
0.505172
0.255865
0.0477526
0.785144
0.325061
0.173966
0.701432
-0.240071
-0.0208718
0.000523064
0.45395
0.101067
0.15597
0.374119
0.397038
0.65773
0.526489
0.144684
0.180053
0.371046
-0.431468
0.0358504
0.0284431
0.66291
0.120176
0.201488
-0.067094
0.797173
-0.073869
0.246284
-0.132875
-0.356542
0.137313
0.220645
0.440642
0.824677
0.102488
0.0903182
0.725855
0.221811
0.733598
0.797755
0.387696
)
;

boundaryField
{
    movingWall
    {
        type            calculated;
        value           nonuniform List<scalar> 
20
(
0.576401
0.0966706
0.406581
-0.255841
0.300888
-0.0419021
0.0488199
-0.0962167
-0.0878454
0.0859033
0.15726
0.122276
0.147277
0.0971005
0.0400184
0.199215
0.221505
0.251303
0.208578
0.580204
)
;
    }
    fixedWalls
    {
        type            calculated;
        value           nonuniform List<scalar> 
60
(
0.0553387
0.878281
0.130951
0.122452
0.496404
0.203716
0.0666109
0.205415
0.290987
0.0227232
-0.0153945
0.0169947
0.370641
0.177924
0.0568866
0.124316
0.873237
0.13161
0.310577
0.143167
0.39047
0.768981
0.00265246
0.00623422
0.0799287
0.199253
0.389281
0.223992
0.718596
0.731734
0.71577
0.591291
0.700539
0.542247
0.843968
0.089392
0.877177
0.271668
0.00343361
0.112738
0.666663
0.165088
0.307064
0.00786465
0.632589
-0.0464723
0.0824763
0.0317806
-0.00658933
-0.0395443
-0.107248
0.0788935
0.0621674
0.342713
0.913457
0.180409
0.240967
-0.121157
0.126623
0.0989737
)
;
    }
    frontAndBack
    {
        type            empty;
    }
}


// ************************************************************************* //
