/*--------------------------------*- C++ -*----------------------------------*\
| =========                 |                                                 |
| \\      /  F ield         | OpenFOAM: The Open Source CFD Toolbox           |
|  \\    /   O peration     | Version:  2312                                  |
|   \\  /    A nd           | Website:  www.openfoam.com                      |
|    \\/     M anipulation  |                                                 |
\*---------------------------------------------------------------------------*/
FoamFile
{
    version     2.0;
    format      ascii;
    arch        "LSB;label=32;scalar=64";
    class       volTensorField;
    location    "7.25";
    object      gradU;
}
// * * * * * * * * * * * * * * * * * * * * * * * * * * * * * * * * * * * * * //

dimensions      [0 0 -1 0 0 0 0];

internalField   nonuniform List<tensor> 
400
(
(-1.0571e-12 1.40035e-11 0 1.89735e-12 1.70585e-11 0 0 0 0)
(1.65341e-12 -1.69798e-11 0 -4.60786e-13 -3.65271e-12 0 0 0 0)
(-4.33681e-13 3.68128e-12 0 1.0842e-13 8.7652e-13 0 0 0 0)
(2.71051e-14 -8.77614e-13 0 5.42101e-14 -2.0611e-13 0 0 0 0)
(0 2.17088e-13 0 8.13152e-14 3.45603e-14 0 0 0 0)
(0 -1.69277e-14 0 0 1.50315e-14 0 0 0 0)
(-5.42101e-14 1.532e-14 0 5.42101e-14 3.36954e-14 0 0 0 0)
(-2.71051e-14 -6.99068e-15 0 2.71051e-14 2.08748e-14 0 0 0 0)
(0 -1.14773e-14 0 5.42101e-14 1.40891e-14 0 0 0 0)
(-5.42101e-14 -1.89949e-14 0 8.13152e-14 1.48022e-14 0 0 0 0)
(0 -6.17474e-15 0 2.71051e-14 3.20909e-15 0 0 0 0)
(0 1.04333e-14 0 0 8.50862e-15 0 0 0 0)
(0 4.94444e-15 0 0 1.57727e-14 0 0 0 0)
(-5.42101e-14 -1.83868e-15 0 2.71051e-14 2.36318e-14 0 0 0 0)
(0 9.00298e-16 0 0 2.22387e-14 0 0 0 0)
(-5.42101e-14 -1.64611e-15 0 -5.42101e-14 2.13143e-14 0 0 0 0)
(5.42101e-14 -1.06913e-14 0 -5.42101e-14 1.51301e-14 0 0 0 0)
(0 -7.89157e-15 0 0 -5.38886e-15 0 0 0 0)
(-5.42101e-14 2.01739e-15 0 0 -1.64073e-14 0 0 0 0)
(5.42101e-14 4.59898e-15 0 -5.42101e-14 -9.88765e-15 0 0 0 0)
(2.52077e-12 -5.9766e-13 0 -1.6263e-13 -3.18812e-11 0 0 0 0)
(-3.41524e-12 7.97811e-13 0 -1.0842e-13 6.94647e-12 0 0 0 0)
(9.21572e-13 -2.34687e-13 0 -8.13152e-14 -1.64787e-12 0 0 0 0)
(-8.13152e-14 3.56551e-14 0 -8.13152e-14 3.75333e-13 0 0 0 0)
(-5.42101e-14 4.05408e-15 0 -1.35525e-13 -7.71764e-14 0 0 0 0)
(0 1.60627e-14 0 -1.35525e-13 7.59303e-16 0 0 0 0)
(5.42101e-14 -9.4767e-15 0 -1.0842e-13 -3.32855e-14 0 0 0 0)
(0 -1.26156e-14 0 -8.13152e-14 -2.55664e-14 0 0 0 0)
(8.13152e-14 5.40472e-15 0 -1.0842e-13 -1.75143e-14 0 0 0 0)
(5.42101e-14 8.11493e-15 0 -8.13152e-14 -2.45512e-15 0 0 0 0)
(-5.42101e-14 -1.18817e-16 0 -8.13152e-14 1.72001e-14 0 0 0 0)
(-5.42101e-14 2.1303e-15 0 -5.42101e-14 7.92595e-15 0 0 0 0)
(5.42101e-14 1.01788e-14 0 -5.42101e-14 -1.7438e-14 0 0 0 0)
(0 8.30472e-15 0 -2.71051e-14 -9.99615e-15 0 0 0 0)
(0 -3.21784e-15 0 0 1.6521e-15 0 0 0 0)
(-5.42101e-14 -5.46257e-15 0 5.42101e-14 1.18018e-15 0 0 0 0)
(0 -1.60119e-14 0 8.13152e-14 6.21033e-15 0 0 0 0)
(5.42101e-14 -2.36458e-14 0 0 7.65042e-15 0 0 0 0)
(-5.42101e-14 -6.51619e-15 0 2.71051e-14 -4.79726e-15 0 0 0 0)
(5.42101e-14 2.1696e-14 0 5.42101e-14 -7.32729e-15 0 0 0 0)
(-1.30104e-12 -1.09313e-11 0 -5.55654e-12 1.45083e-11 0 0 0 0)
(1.73472e-12 1.32535e-11 0 1.51788e-12 -3.32657e-12 0 0 0 0)
(-4.87891e-13 -2.88985e-12 0 -2.1684e-13 7.42384e-13 0 0 0 0)
(5.42101e-14 6.93083e-13 0 1.0842e-13 -1.59051e-13 0 0 0 0)
(-5.42101e-14 -1.57486e-13 0 2.71051e-14 6.00706e-14 0 0 0 0)
(5.42101e-14 2.69633e-14 0 5.42101e-14 -1.58943e-14 0 0 0 0)
(2.71051e-14 -1.10057e-14 0 0 -1.14433e-14 0 0 0 0)
(0 8.78052e-15 0 0 9.56394e-15 0 0 0 0)
(-8.13152e-14 1.1634e-14 0 0 2.16175e-14 0 0 0 0)
(-2.71051e-14 1.57195e-14 0 -8.13152e-14 -3.67108e-15 0 0 0 0)
(0 4.20632e-15 0 -2.71051e-14 -1.04055e-14 0 0 0 0)
(2.71051e-14 -2.42048e-14 0 5.42101e-14 -1.06972e-14 0 0 0 0)
(0 -1.29777e-14 0 0 -1.37138e-14 0 0 0 0)
(0 1.72514e-14 0 -5.42101e-14 -3.06335e-14 0 0 0 0)
(5.42101e-14 1.20766e-14 0 0 -2.06719e-14 0 0 0 0)
(5.42101e-14 2.91212e-15 0 0 -7.51718e-15 0 0 0 0)
(0 -4.22101e-15 0 0 -2.17956e-16 0 0 0 0)
(0 -1.88992e-14 0 0 8.79084e-15 0 0 0 0)
(-2.71051e-14 -1.29603e-14 0 -2.71051e-14 1.1071e-14 0 0 0 0)
(-2.71051e-14 1.67235e-14 0 0 2.52161e-15 0 0 0 0)
(-1.57209e-12 1.0584e-11 0 5.47522e-12 1.01433e-11 0 0 0 0)
(1.95156e-12 -1.29681e-11 0 -1.38236e-12 -2.18072e-12 0 0 0 0)
(-4.87891e-13 2.93283e-12 0 1.89735e-13 5.34708e-13 0 0 0 0)
(1.0842e-13 -6.46659e-13 0 -1.0842e-13 -1.05215e-13 0 0 0 0)
(-1.0842e-13 1.4721e-13 0 8.13152e-14 5.4453e-14 0 0 0 0)
(0 -5.54511e-14 0 2.71051e-14 1.37551e-14 0 0 0 0)
(0 1.59816e-14 0 0 1.68355e-14 0 0 0 0)
(-5.42101e-14 2.04451e-14 0 -8.13152e-14 4.75348e-15 0 0 0 0)
(5.42101e-14 -7.8303e-15 0 -2.71051e-14 -5.30875e-15 0 0 0 0)
(0 -2.39081e-14 0 0 -9.80994e-15 0 0 0 0)
(2.71051e-14 -7.14495e-15 0 0 -2.19406e-14 0 0 0 0)
(5.42101e-14 -1.17801e-15 0 -5.42101e-14 -1.99837e-14 0 0 0 0)
(0 -9.75755e-15 0 5.42101e-14 6.56392e-15 0 0 0 0)
(0 1.34667e-15 0 0 2.26844e-16 0 0 0 0)
(0 1.98985e-14 0 -5.42101e-14 -1.6063e-14 0 0 0 0)
(-5.42101e-14 1.49914e-14 0 -5.42101e-14 -1.10051e-14 0 0 0 0)
(0 2.96134e-16 0 -8.13152e-14 -1.3828e-14 0 0 0 0)
(0 -1.23568e-14 0 -5.42101e-14 -6.6197e-15 0 0 0 0)
(5.42101e-14 -1.27854e-14 0 0 4.76933e-15 0 0 0 0)
(0 8.10337e-15 0 0 2.80348e-15 0 0 0 0)
(2.79182e-12 -2.96866e-12 0 -1.19262e-12 -2.29458e-11 0 0 0 0)
(-3.60497e-12 3.64491e-12 0 3.25261e-13 5.09657e-12 0 0 0 0)
(8.40257e-13 -8.14352e-13 0 5.42101e-14 -1.1862e-12 0 0 0 0)
(-1.0842e-13 2.12828e-13 0 5.42101e-14 2.47115e-13 0 0 0 0)
(1.0842e-13 -3.85159e-14 0 5.42101e-14 -7.47105e-14 0 0 0 0)
(-2.71051e-14 -1.06542e-14 0 1.35525e-13 2.87258e-14 0 0 0 0)
(-8.13152e-14 -2.00073e-14 0 1.35525e-13 4.12537e-14 0 0 0 0)
(-2.71051e-14 -1.33637e-14 0 1.89735e-13 2.61324e-14 0 0 0 0)
(0 -2.92945e-15 0 8.13152e-14 1.43878e-15 0 0 0 0)
(2.71051e-14 -9.12331e-16 0 8.13152e-14 5.78345e-15 0 0 0 0)
(0 -5.96741e-15 0 8.13152e-14 4.29298e-15 0 0 0 0)
(-2.71051e-14 4.29966e-15 0 5.42101e-14 -5.5302e-15 0 0 0 0)
(2.71051e-14 7.23286e-15 0 0 -5.20466e-15 0 0 0 0)
(-2.71051e-14 -5.37549e-15 0 5.42101e-14 1.85855e-15 0 0 0 0)
(0 8.44676e-16 0 5.42101e-14 -1.01773e-14 0 0 0 0)
(2.71051e-14 5.1471e-15 0 5.42101e-14 -1.57857e-14 0 0 0 0)
(5.42101e-14 1.64384e-16 0 8.13152e-14 -1.76841e-14 0 0 0 0)
(0 -3.01816e-16 0 5.42101e-14 -1.02868e-14 0 0 0 0)
(2.71051e-14 -3.53714e-15 0 5.42101e-14 5.32878e-15 0 0 0 0)
(-2.71051e-14 9.15072e-15 0 0 1.01434e-14 0 0 0 0)
(-2.43945e-12 -7.26517e-12 0 -2.6834e-12 1.97955e-11 0 0 0 0)
(3.1984e-12 8.7915e-12 0 7.31836e-13 -4.3747e-12 0 0 0 0)
(-7.58942e-13 -1.91662e-12 0 -5.42101e-14 1.00125e-12 0 0 0 0)
(1.35525e-13 4.64834e-13 0 2.71051e-14 -2.52657e-13 0 0 0 0)
(0 -7.11793e-14 0 -2.71051e-14 1.14044e-14 0 0 0 0)
(2.71051e-14 6.05131e-14 0 -2.71051e-14 -2.62976e-14 0 0 0 0)
(0 1.33882e-14 0 -2.71051e-14 1.19775e-14 0 0 0 0)
(-2.71051e-14 -1.93698e-14 0 2.71051e-14 3.83555e-14 0 0 0 0)
(-5.42101e-14 -2.81793e-14 0 8.13152e-14 3.56917e-14 0 0 0 0)
(-2.71051e-14 -2.10539e-14 0 8.13152e-14 1.38626e-14 0 0 0 0)
(0 -1.84586e-14 0 5.42101e-14 -1.87811e-15 0 0 0 0)
(0 -1.06756e-14 0 8.13152e-14 1.59982e-15 0 0 0 0)
(0 -2.36879e-15 0 5.42101e-14 6.57574e-16 0 0 0 0)
(0 -3.62594e-15 0 8.13152e-14 5.98312e-15 0 0 0 0)
(0 2.25422e-15 0 5.42101e-14 6.02081e-15 0 0 0 0)
(0 7.48454e-15 0 5.42101e-14 3.07553e-15 0 0 0 0)
(0 5.79503e-15 0 2.71051e-14 9.27549e-15 0 0 0 0)
(-2.71051e-14 1.0656e-14 0 0 9.58974e-15 0 0 0 0)
(0 7.64482e-15 0 -2.71051e-14 5.42947e-15 0 0 0 0)
(-2.71051e-14 -7.36881e-15 0 2.71051e-14 8.38082e-15 0 0 0 0)
(8.40257e-13 1.24522e-11 0 4.11997e-12 1.57067e-12 0 0 0 0)
(-9.75782e-13 -1.51494e-11 0 -1.21973e-12 -3.34779e-13 0 0 0 0)
(1.6263e-13 3.30769e-12 0 0 8.63927e-14 0 0 0 0)
(-1.0842e-13 -7.77021e-13 0 -1.0842e-13 -1.11007e-14 0 0 0 0)
(2.71051e-14 1.87844e-13 0 -1.35525e-13 4.66555e-15 0 0 0 0)
(0 -1.00811e-14 0 -1.0842e-13 -8.61695e-15 0 0 0 0)
(5.42101e-14 4.46457e-14 0 -1.35525e-13 -3.8611e-14 0 0 0 0)
(5.42101e-14 1.03504e-14 0 -1.6263e-13 -4.35234e-14 0 0 0 0)
(2.71051e-14 -2.74223e-14 0 -5.42101e-14 -2.56831e-14 0 0 0 0)
(0 -3.84821e-14 0 -2.71051e-14 -6.01409e-15 0 0 0 0)
(0 -1.82302e-14 0 -2.71051e-14 1.01024e-14 0 0 0 0)
(0 6.83534e-15 0 -8.13152e-14 6.43471e-15 0 0 0 0)
(2.71051e-14 1.16162e-14 0 -5.42101e-14 -7.80622e-16 0 0 0 0)
(0 -1.22588e-17 0 -8.13152e-14 5.56516e-16 0 0 0 0)
(-5.42101e-14 -2.06291e-15 0 -5.42101e-14 9.10422e-15 0 0 0 0)
(-2.71051e-14 8.40178e-15 0 -1.0842e-13 8.32032e-15 0 0 0 0)
(0 6.67859e-15 0 -2.71051e-14 1.16278e-14 0 0 0 0)
(-2.71051e-14 -4.14784e-15 0 0 1.61422e-14 0 0 0 0)
(0 -4.74605e-15 0 0 5.45937e-15 0 0 0 0)
(0 -4.65957e-15 0 -2.71051e-14 -5.76035e-15 0 0 0 0)
(4.60786e-13 -6.02928e-12 0 -1.51788e-12 -2.12769e-11 0 0 0 0)
(-9.48677e-13 7.30722e-12 0 4.33681e-13 4.63525e-12 0 0 0 0)
(4.06576e-13 -1.59294e-12 0 0 -1.08968e-12 0 0 0 0)
(2.71051e-14 3.83107e-13 0 2.71051e-14 2.52126e-13 0 0 0 0)
(-2.71051e-14 -6.86955e-14 0 2.71051e-14 -4.49171e-14 0 0 0 0)
(0 1.72366e-14 0 5.42101e-14 1.28179e-14 0 0 0 0)
(-5.42101e-14 -2.15182e-14 0 2.71051e-14 -1.45401e-14 0 0 0 0)
(5.42101e-14 -6.44194e-15 0 2.71051e-14 -4.32408e-14 0 0 0 0)
(8.13152e-14 9.32999e-15 0 -2.71051e-14 -3.37721e-14 0 0 0 0)
(0 1.47316e-14 0 -5.42101e-14 -7.6224e-15 0 0 0 0)
(-5.42101e-14 -6.00979e-15 0 -2.71051e-14 1.88317e-14 0 0 0 0)
(-2.71051e-14 -2.15586e-14 0 -5.42101e-14 1.56932e-14 0 0 0 0)
(-5.42101e-14 -8.24699e-15 0 0 4.05971e-16 0 0 0 0)
(5.42101e-14 6.25891e-15 0 -5.42101e-14 -6.14276e-15 0 0 0 0)
(0 1.0018e-14 0 -8.13152e-14 1.29985e-15 0 0 0 0)
(2.71051e-14 1.00081e-14 0 -2.71051e-14 -1.25316e-14 0 0 0 0)
(5.42101e-14 1.36169e-14 0 -8.13152e-14 -1.59491e-14 0 0 0 0)
(2.71051e-14 4.48762e-15 0 -5.42101e-14 -5.90367e-15 0 0 0 0)
(-2.71051e-14 -1.42577e-14 0 -2.71051e-14 1.58879e-15 0 0 0 0)
(0 -7.06784e-15 0 0 -6.46235e-15 0 0 0 0)
(-2.1684e-13 -4.18942e-12 0 -1.43657e-12 1.97684e-11 0 0 0 0)
(6.23416e-13 5.0378e-12 0 5.69206e-13 -4.29629e-12 0 0 0 0)
(-3.52366e-13 -1.07543e-12 0 0 1.03266e-12 0 0 0 0)
(-1.0842e-13 2.67742e-13 0 5.42101e-14 -2.18458e-13 0 0 0 0)
(5.42101e-14 -5.14649e-14 0 0 3.93342e-14 0 0 0 0)
(2.71051e-14 2.02959e-14 0 2.71051e-14 -1.78814e-14 0 0 0 0)
(2.71051e-14 -1.1413e-14 0 8.13152e-14 1.97692e-14 0 0 0 0)
(0 -8.88161e-15 0 5.42101e-14 2.16799e-14 0 0 0 0)
(-5.42101e-14 8.19604e-15 0 -5.42101e-14 5.92483e-15 0 0 0 0)
(-5.42101e-14 1.41218e-14 0 0 -1.08875e-14 0 0 0 0)
(8.13152e-14 5.08543e-15 0 0 -1.37411e-14 0 0 0 0)
(2.71051e-14 -1.15904e-14 0 8.13152e-14 1.45518e-14 0 0 0 0)
(0 -1.02198e-14 0 2.71051e-14 2.35644e-14 0 0 0 0)
(-5.42101e-14 8.8162e-16 0 0 2.20197e-14 0 0 0 0)
(-8.13152e-14 -8.4517e-15 0 8.13152e-14 1.16908e-14 0 0 0 0)
(0 -8.84713e-15 0 2.71051e-14 -4.69432e-15 0 0 0 0)
(0 1.33065e-14 0 0 -1.46881e-14 0 0 0 0)
(2.71051e-14 1.339e-14 0 0 -2.24317e-14 0 0 0 0)
(5.42101e-14 -5.30473e-15 0 0 -1.74054e-14 0 0 0 0)
(0 2.1399e-16 0 2.71051e-14 -5.67758e-16 0 0 0 0)
(-4.33681e-13 9.44282e-12 0 5.69206e-13 -6.95123e-12 0 0 0 0)
(4.60786e-13 -1.14285e-11 0 -4.87891e-13 1.56936e-12 0 0 0 0)
(-8.13152e-14 2.48488e-12 0 -8.13152e-14 -3.20417e-13 0 0 0 0)
(5.42101e-14 -6.10216e-13 0 0 9.03631e-14 0 0 0 0)
(0 1.31882e-13 0 -2.71051e-14 -3.31385e-15 0 0 0 0)
(0 -2.32838e-15 0 -8.13152e-14 2.03702e-14 0 0 0 0)
(-5.42101e-14 1.80431e-14 0 -2.71051e-14 1.41436e-14 0 0 0 0)
(-2.71051e-14 -2.02863e-14 0 -8.13152e-14 1.25806e-14 0 0 0 0)
(2.71051e-14 -2.32373e-14 0 0 -3.20892e-15 0 0 0 0)
(5.42101e-14 -4.93433e-15 0 0 -4.60779e-15 0 0 0 0)
(0 1.94295e-14 0 -5.42101e-14 -1.08707e-14 0 0 0 0)
(0 1.57469e-14 0 -8.13152e-14 -9.24861e-15 0 0 0 0)
(-5.42101e-14 -7.79165e-16 0 -2.71051e-14 -2.05623e-15 0 0 0 0)
(0 -5.61476e-15 0 0 -7.56604e-15 0 0 0 0)
(5.42101e-14 -1.6696e-14 0 2.71051e-14 -9.76279e-15 0 0 0 0)
(0 -1.63708e-14 0 8.13152e-14 7.07637e-15 0 0 0 0)
(0 -4.12044e-15 0 5.42101e-14 5.89361e-15 0 0 0 0)
(2.71051e-14 1.77031e-15 0 5.42101e-14 -8.48655e-15 0 0 0 0)
(0 7.6062e-15 0 0 -9.44479e-15 0 0 0 0)
(-2.71051e-14 1.09054e-14 0 0 6.33503e-15 0 0 0 0)
(-8.13152e-14 -9.57129e-12 0 7.86047e-13 -1.66142e-12 0 0 0 0)
(-1.35525e-13 1.16686e-11 0 -1.35525e-13 3.67191e-13 0 0 0 0)
(1.35525e-13 -2.55443e-12 0 1.0842e-13 -1.13818e-13 0 0 0 0)
(0 5.84845e-13 0 -8.13152e-14 1.55244e-14 0 0 0 0)
(-5.42101e-14 -1.21458e-13 0 2.71051e-14 4.51535e-15 0 0 0 0)
(5.42101e-14 3.77534e-14 0 0 -1.08884e-14 0 0 0 0)
(2.71051e-14 -1.92027e-14 0 5.42101e-14 -3.35745e-14 0 0 0 0)
(0 -2.62341e-14 0 1.35525e-13 -1.31123e-14 0 0 0 0)
(5.42101e-14 -8.99232e-15 0 1.0842e-13 1.52754e-14 0 0 0 0)
(-5.42101e-14 6.46003e-15 0 2.71051e-14 2.2384e-14 0 0 0 0)
(-2.71051e-14 4.44613e-16 0 5.42101e-14 7.16409e-15 0 0 0 0)
(8.13152e-14 -2.77599e-15 0 5.42101e-14 -2.30148e-14 0 0 0 0)
(0 -8.53722e-15 0 2.71051e-14 -1.92304e-14 0 0 0 0)
(0 -6.82494e-15 0 1.0842e-13 -1.26608e-14 0 0 0 0)
(2.71051e-14 6.1907e-15 0 2.71051e-14 -9.44197e-15 0 0 0 0)
(0 6.80927e-15 0 2.71051e-14 3.48996e-15 0 0 0 0)
(-2.71051e-14 -2.25644e-15 0 0 1.27409e-14 0 0 0 0)
(0 -1.94838e-15 0 0 1.68397e-14 0 0 0 0)
(0 9.51685e-15 0 2.71051e-14 1.23475e-14 0 0 0 0)
(0 3.32375e-15 0 0 6.3719e-15 0 0 0 0)
(1.89735e-13 8.14859e-12 0 -1.6263e-13 8.61271e-12 0 0 0 0)
(-1.35525e-13 -9.8809e-12 0 -2.71051e-14 -1.92855e-12 0 0 0 0)
(-5.42101e-14 2.13322e-12 0 -8.13152e-14 3.99376e-13 0 0 0 0)
(-5.42101e-14 -4.91883e-13 0 0 -1.17773e-13 0 0 0 0)
(8.13152e-14 1.05469e-13 0 5.42101e-14 -3.00243e-15 0 0 0 0)
(2.71051e-14 -4.04182e-14 0 0 -4.38074e-14 0 0 0 0)
(8.13152e-14 1.58193e-14 0 -5.42101e-14 -4.24758e-14 0 0 0 0)
(0 2.85636e-14 0 -5.42101e-14 -1.69577e-14 0 0 0 0)
(-5.42101e-14 1.22589e-14 0 0 1.28232e-14 0 0 0 0)
(-2.71051e-14 -1.30457e-14 0 2.71051e-14 1.82862e-14 0 0 0 0)
(0 -2.59693e-14 0 5.42101e-14 1.50934e-14 0 0 0 0)
(0 -1.06475e-14 0 2.71051e-14 5.11133e-15 0 0 0 0)
(0 9.57483e-15 0 0 5.85695e-15 0 0 0 0)
(0 4.17364e-15 0 -5.42101e-14 1.05503e-14 0 0 0 0)
(0 -5.45204e-16 0 -5.42101e-14 6.89741e-15 0 0 0 0)
(0 5.8121e-15 0 -5.42101e-14 -1.47728e-15 0 0 0 0)
(0 9.22929e-15 0 0 -8.52946e-16 0 0 0 0)
(0 1.37692e-15 0 5.42101e-14 9.64988e-15 0 0 0 0)
(-2.71051e-14 -2.8616e-15 0 0 1.50774e-14 0 0 0 0)
(-2.71051e-14 -7.81406e-15 0 0 2.34661e-15 0 0 0 0)
(-2.71051e-13 -2.88714e-12 0 -1.16552e-12 -1.74794e-11 0 0 0 0)
(-2.71051e-14 3.45528e-12 0 4.06576e-13 3.77544e-12 0 0 0 0)
(1.0842e-13 -7.43648e-13 0 0 -8.9775e-13 0 0 0 0)
(1.0842e-13 1.82467e-13 0 8.13152e-14 1.97452e-13 0 0 0 0)
(0 -4.74925e-14 0 0 -4.98901e-14 0 0 0 0)
(0 -1.72002e-15 0 0 9.43321e-15 0 0 0 0)
(-5.42101e-14 7.64706e-15 0 -5.42101e-14 -7.9669e-16 0 0 0 0)
(8.13152e-14 2.90649e-14 0 -5.42101e-14 -2.422e-14 0 0 0 0)
(8.13152e-14 2.62515e-14 0 -2.71051e-14 -2.75259e-14 0 0 0 0)
(0 8.73023e-15 0 -5.42101e-14 -9.01452e-15 0 0 0 0)
(-2.71051e-14 -1.27302e-14 0 -2.71051e-14 3.50792e-15 0 0 0 0)
(0 -1.20124e-14 0 -2.71051e-14 1.63045e-14 0 0 0 0)
(-5.42101e-14 -3.09823e-15 0 -2.71051e-14 6.58527e-15 0 0 0 0)
(-2.71051e-14 -5.78448e-15 0 0 -3.77478e-15 0 0 0 0)
(0 -5.8369e-15 0 0 -3.59667e-15 0 0 0 0)
(2.71051e-14 -9.41089e-16 0 0 -5.01919e-15 0 0 0 0)
(0 8.87072e-15 0 0 -1.31155e-15 0 0 0 0)
(5.42101e-14 1.3982e-14 0 -1.0842e-13 -3.42485e-15 0 0 0 0)
(0 2.21358e-15 0 -2.71051e-14 7.95372e-16 0 0 0 0)
(0 -1.41003e-14 0 -2.71051e-14 -3.76689e-15 0 0 0 0)
(-5.42101e-13 -5.55533e-12 0 -8.13152e-14 2.00466e-11 0 0 0 0)
(1.00289e-12 6.7007e-12 0 2.43945e-13 -4.37639e-12 0 0 0 0)
(-3.25261e-13 -1.44477e-12 0 1.35525e-13 1.03309e-12 0 0 0 0)
(-5.42101e-14 3.55978e-13 0 8.13152e-14 -2.30111e-13 0 0 0 0)
(-2.71051e-14 -8.255e-14 0 8.13152e-14 5.2501e-14 0 0 0 0)
(0 8.67521e-15 0 1.0842e-13 3.54581e-15 0 0 0 0)
(0 -1.78339e-14 0 1.0842e-13 2.0883e-14 0 0 0 0)
(0 1.83441e-15 0 1.0842e-13 6.94739e-15 0 0 0 0)
(-5.42101e-14 2.74644e-14 0 -2.71051e-14 -8.46846e-15 0 0 0 0)
(2.71051e-14 1.79881e-14 0 0 -1.95933e-14 0 0 0 0)
(0 -6.50303e-16 0 0 -1.72713e-14 0 0 0 0)
(-2.71051e-14 -7.57019e-15 0 2.71051e-14 1.83045e-15 0 0 0 0)
(2.71051e-14 -1.05044e-14 0 2.71051e-14 4.5894e-15 0 0 0 0)
(2.71051e-14 -6.0083e-15 0 5.42101e-14 1.28235e-14 0 0 0 0)
(0 -1.78961e-15 0 2.71051e-14 8.49441e-15 0 0 0 0)
(0 8.09722e-15 0 2.71051e-14 1.36325e-14 0 0 0 0)
(-5.42101e-14 1.08236e-14 0 0 2.23553e-14 0 0 0 0)
(0 3.48384e-15 0 -2.71051e-14 6.11148e-15 0 0 0 0)
(0 -3.20364e-15 0 0 -1.26156e-14 0 0 0 0)
(0 -4.84254e-15 0 0 -3.68881e-15 0 0 0 0)
(-1.35525e-13 1.2783e-11 0 3.52366e-12 -5.43148e-12 0 0 0 0)
(1.89735e-13 -1.55582e-11 0 -9.75782e-13 1.19641e-12 0 0 0 0)
(-2.71051e-14 3.40263e-12 0 2.71051e-14 -2.73732e-13 0 0 0 0)
(5.42101e-14 -7.98119e-13 0 0 4.34936e-14 0 0 0 0)
(0 1.86164e-13 0 2.71051e-14 -9.209e-15 0 0 0 0)
(-2.71051e-14 -3.33381e-14 0 0 2.15457e-14 0 0 0 0)
(0 1.10486e-14 0 0 1.83612e-14 0 0 0 0)
(-5.42101e-14 -2.86558e-16 0 -5.42101e-14 3.19929e-14 0 0 0 0)
(0 -2.8914e-16 0 0 2.10044e-14 0 0 0 0)
(2.71051e-14 -7.26413e-17 0 0 1.77254e-16 0 0 0 0)
(-2.71051e-14 8.69351e-15 0 -8.13152e-14 2.02465e-16 0 0 0 0)
(5.42101e-14 9.84832e-15 0 -8.13152e-14 -1.02324e-15 0 0 0 0)
(-2.71051e-14 7.89481e-15 0 -8.13152e-14 8.38188e-15 0 0 0 0)
(-2.71051e-14 -1.87947e-15 0 -1.0842e-13 9.40708e-15 0 0 0 0)
(0 -5.02785e-15 0 -2.71051e-14 3.94863e-15 0 0 0 0)
(-5.42101e-14 1.29198e-14 0 -2.71051e-14 1.03228e-14 0 0 0 0)
(-2.71051e-14 1.34965e-15 0 -5.42101e-14 -8.02492e-16 0 0 0 0)
(2.71051e-14 -2.09889e-14 0 8.13152e-14 -3.07045e-15 0 0 0 0)
(8.13152e-14 -7.58671e-15 0 0 -9.07311e-15 0 0 0 0)
(-2.71051e-14 2.20406e-15 0 0 -8.56498e-16 0 0 0 0)
(2.03288e-12 -9.7904e-12 0 -2.90024e-12 -1.78745e-11 0 0 0 0)
(-2.46656e-12 1.18584e-11 0 7.31836e-13 3.91995e-12 0 0 0 0)
(6.23416e-13 -2.59768e-12 0 -8.13152e-14 -9.08509e-13 0 0 0 0)
(-1.0842e-13 6.205e-13 0 -5.42101e-14 2.29186e-13 0 0 0 0)
(0 -1.04498e-13 0 -1.6263e-13 -2.52762e-14 0 0 0 0)
(-2.71051e-14 3.62454e-14 0 -5.42101e-14 3.35767e-14 0 0 0 0)
(-2.71051e-14 -7.38666e-15 0 -5.42101e-14 2.88739e-14 0 0 0 0)
(-2.71051e-14 4.47764e-15 0 0 2.66053e-14 0 0 0 0)
(-5.42101e-14 -4.35126e-15 0 -5.42101e-14 2.0009e-14 0 0 0 0)
(0 -2.81385e-15 0 0 2.06111e-14 0 0 0 0)
(-2.71051e-14 -1.8508e-15 0 0 1.91041e-14 0 0 0 0)
(0 6.09224e-16 0 5.42101e-14 -2.26142e-15 0 0 0 0)
(-5.42101e-14 -7.41039e-17 0 0 -1.33788e-14 0 0 0 0)
(5.42101e-14 -1.04415e-14 0 5.42101e-14 -2.91102e-14 0 0 0 0)
(8.13152e-14 -8.73865e-16 0 0 -1.22194e-14 0 0 0 0)
(-5.42101e-14 3.34611e-15 0 0 1.37519e-15 0 0 0 0)
(5.42101e-14 -2.56964e-15 0 5.42101e-14 -2.47579e-14 0 0 0 0)
(2.71051e-14 -4.78678e-15 0 2.71051e-14 -9.41405e-15 0 0 0 0)
(-2.71051e-14 -9.89689e-16 0 0 4.14498e-15 0 0 0 0)
(0 5.08707e-15 0 2.71051e-14 -3.06457e-15 0 0 0 0)
(-2.35814e-12 -1.17156e-12 0 -3.14419e-12 2.57396e-11 0 0 0 0)
(3.03577e-12 1.40783e-12 0 5.42101e-13 -5.59879e-12 0 0 0 0)
(-8.13152e-13 -2.88133e-13 0 -3.25261e-13 1.33225e-12 0 0 0 0)
(5.42101e-14 8.51143e-14 0 -1.0842e-13 -2.66667e-13 0 0 0 0)
(0 -9.44483e-15 0 -1.6263e-13 5.24875e-14 0 0 0 0)
(2.71051e-14 2.0812e-14 0 -1.35525e-13 -3.99827e-14 0 0 0 0)
(0 4.07722e-15 0 -1.35525e-13 -8.90674e-15 0 0 0 0)
(0 -9.15143e-15 0 -5.42101e-14 -1.49202e-14 0 0 0 0)
(5.42101e-14 -6.28338e-15 0 0 -2.4369e-14 0 0 0 0)
(0 -9.77572e-16 0 -5.42101e-14 -2.52927e-14 0 0 0 0)
(5.42101e-14 -1.4179e-14 0 8.13152e-14 -1.8865e-14 0 0 0 0)
(0 -2.26346e-14 0 2.71051e-14 5.65382e-15 0 0 0 0)
(0 -1.8954e-14 0 1.0842e-13 2.22482e-15 0 0 0 0)
(0 -7.20039e-16 0 2.71051e-14 -1.617e-15 0 0 0 0)
(0 2.54576e-14 0 0 7.5282e-15 0 0 0 0)
(-2.71051e-14 3.81276e-16 0 0 7.54497e-15 0 0 0 0)
(-2.71051e-14 -9.43958e-15 0 0 -1.86896e-15 0 0 0 0)
(0 7.91405e-15 0 -2.71051e-14 -5.71264e-15 0 0 0 0)
(2.71051e-14 -1.23723e-15 0 0 3.49756e-15 0 0 0 0)
(-2.71051e-14 1.12365e-15 0 0 2.39214e-15 0 0 0 0)
(-5.42101e-13 1.03504e-11 0 6.77626e-12 -4.70888e-12 0 0 0 0)
(3.25261e-13 -1.25489e-11 0 -1.6263e-12 1.00938e-12 0 0 0 0)
(-5.42101e-14 2.73444e-12 0 2.43945e-13 -2.35096e-13 0 0 0 0)
(8.13152e-14 -6.59261e-13 0 -5.42101e-14 2.47314e-14 0 0 0 0)
(-2.71051e-14 1.22187e-13 0 1.35525e-13 -2.51784e-14 0 0 0 0)
(0 -2.51488e-14 0 5.42101e-14 -3.2861e-14 0 0 0 0)
(8.13152e-14 1.76758e-14 0 5.42101e-14 -5.10766e-14 0 0 0 0)
(5.42101e-14 -1.09846e-14 0 5.42101e-14 -3.69746e-14 0 0 0 0)
(0 -1.47237e-14 0 0 -1.94768e-14 0 0 0 0)
(2.71051e-14 2.69018e-15 0 0 -2.21493e-14 0 0 0 0)
(8.13152e-14 2.90957e-14 0 -8.13152e-14 -2.74547e-14 0 0 0 0)
(0 2.1699e-14 0 -8.13152e-14 -1.21633e-14 0 0 0 0)
(-2.71051e-14 -7.34492e-15 0 -5.42101e-14 4.55352e-15 0 0 0 0)
(0 -5.13816e-15 0 -2.71051e-14 1.64246e-14 0 0 0 0)
(-5.42101e-14 8.2881e-15 0 0 7.1538e-15 0 0 0 0)
(5.42101e-14 -6.05106e-15 0 -5.42101e-14 -2.06455e-14 0 0 0 0)
(-5.42101e-14 -1.58273e-14 0 0 -3.77778e-15 0 0 0 0)
(5.42101e-14 5.79735e-16 0 2.71051e-14 -7.11308e-15 0 0 0 0)
(0 7.11509e-15 0 2.71051e-14 3.13284e-16 0 0 0 0)
(0 -8.02628e-16 0 -2.71051e-14 5.60441e-15 0 0 0 0)
(2.79182e-12 -4.87106e-12 0 -1.0842e-12 -2.16704e-11 0 0 0 0)
(-3.49655e-12 5.88162e-12 0 5.42101e-13 4.70029e-12 0 0 0 0)
(8.13152e-13 -1.27278e-12 0 2.71051e-13 -1.11569e-12 0 0 0 0)
(-1.0842e-13 2.95032e-13 0 1.89735e-13 2.29721e-13 0 0 0 0)
(5.42101e-14 -6.70373e-14 0 1.89735e-13 -4.32529e-14 0 0 0 0)
(0 -5.08624e-15 0 1.6263e-13 2.28697e-14 0 0 0 0)
(0 -3.63951e-17 0 1.35525e-13 -5.40464e-15 0 0 0 0)
(-2.71051e-14 2.24484e-14 0 5.42101e-14 1.81372e-15 0 0 0 0)
(0 8.54192e-15 0 1.0842e-13 2.57399e-14 0 0 0 0)
(-8.13152e-14 -8.95554e-15 0 1.0842e-13 3.74767e-14 0 0 0 0)
(-8.13152e-14 -4.19292e-15 0 5.42101e-14 2.15962e-14 0 0 0 0)
(5.42101e-14 9.37365e-15 0 5.42101e-14 -2.30857e-14 0 0 0 0)
(2.71051e-14 9.63384e-15 0 0 -2.09282e-14 0 0 0 0)
(5.42101e-14 1.88024e-15 0 2.71051e-14 -8.75665e-15 0 0 0 0)
(-5.42101e-14 -1.16125e-14 0 5.42101e-14 -7.42593e-15 0 0 0 0)
(5.42101e-14 -1.05503e-14 0 5.42101e-14 -2.19195e-14 0 0 0 0)
(2.71051e-14 4.09279e-15 0 2.71051e-14 -8.89249e-15 0 0 0 0)
(0 1.20051e-14 0 -2.71051e-14 3.26563e-16 0 0 0 0)
(-2.71051e-14 1.14803e-14 0 -2.71051e-14 2.16327e-15 0 0 0 0)
(0 -4.79404e-15 0 0 1.26335e-15 0 0 0 0)
(-1.0571e-12 -6.61968e-12 0 -2.05998e-12 1.46376e-11 0 0 0 0)
(1.6263e-12 8.0058e-12 0 3.52366e-13 -3.14682e-12 0 0 0 0)
(-3.79471e-13 -1.73614e-12 0 -2.1684e-13 7.50139e-13 0 0 0 0)
(0 4.13172e-13 0 -5.42101e-14 -1.37903e-13 0 0 0 0)
(-5.42101e-14 -8.46646e-14 0 -1.0842e-13 4.19351e-14 0 0 0 0)
(-2.71051e-14 1.26995e-14 0 -8.13152e-14 1.37988e-14 0 0 0 0)
(-2.71051e-14 -3.3802e-15 0 -5.42101e-14 3.43219e-14 0 0 0 0)
(-2.71051e-14 2.01599e-14 0 -5.42101e-14 1.72154e-14 0 0 0 0)
(0 2.09392e-14 0 -5.42101e-14 -8.28649e-15 0 0 0 0)
(2.71051e-14 -1.45349e-15 0 -5.42101e-14 -1.22657e-14 0 0 0 0)
(2.71051e-14 -3.14667e-14 0 0 2.12255e-15 0 0 0 0)
(-2.71051e-14 -2.08254e-14 0 0 2.33939e-14 0 0 0 0)
(-5.42101e-14 6.98412e-15 0 0 1.35743e-14 0 0 0 0)
(2.71051e-14 8.36411e-15 0 -2.71051e-14 6.77594e-15 0 0 0 0)
(0 -4.8748e-15 0 -5.42101e-14 3.32999e-15 0 0 0 0)
(-2.71051e-14 -7.51762e-15 0 0 2.32632e-14 0 0 0 0)
(-2.71051e-14 6.41886e-15 0 -2.71051e-14 2.13979e-14 0 0 0 0)
(-5.42101e-14 1.16355e-14 0 0 1.27516e-14 0 0 0 0)
(5.42101e-14 8.05188e-15 0 0 -2.24271e-15 0 0 0 0)
(0 -4.22924e-15 0 0 -6.78058e-15 0 0 0 0)
)
;

boundaryField
{
    movingWall
    {
        type            extrapolatedCalculated;
        value           nonuniform List<tensor> 
20
(
(-1.0571e-12 -6.61968e-12 0 6.21725e-12 3.37635e-11 0 0 0 0)
(1.6263e-12 8.0058e-12 0 -1.9984e-12 -7.28479e-12 0 0 0 0)
(-3.79471e-13 -1.73614e-12 0 -3.55271e-13 1.7403e-12 0 0 0 0)
(0 4.13172e-13 0 -3.9968e-13 -3.40249e-13 0 0 0 0)
(-5.42101e-14 -8.46646e-14 0 -3.10862e-13 8.76132e-14 0 0 0 0)
(-2.71051e-14 1.26995e-14 0 -2.66454e-13 -1.59068e-15 0 0 0 0)
(-2.71051e-14 -3.3802e-15 0 -1.77636e-13 3.68152e-14 0 0 0 0)
(-2.71051e-14 2.01599e-14 0 -1.77636e-13 1.19301e-14 0 0 0 0)
(0 2.09392e-14 0 -8.88178e-14 -4.38245e-14 0 0 0 0)
(2.71051e-14 -1.45349e-15 0 -1.77636e-13 -7.18268e-14 0 0 0 0)
(2.71051e-14 -3.14667e-14 0 -2.22045e-13 -3.80106e-14 0 0 0 0)
(-2.71051e-14 -2.08254e-14 0 -2.22045e-13 5.404e-14 0 0 0 0)
(-5.42101e-14 6.98412e-15 0 -8.88178e-14 4.52912e-14 0 0 0 0)
(2.71051e-14 8.36411e-15 0 -4.44089e-14 2.61035e-14 0 0 0 0)
(0 -4.8748e-15 0 -1.33227e-13 1.18347e-14 0 0 0 0)
(-2.71051e-14 -7.51762e-15 0 -8.88178e-14 4.56027e-14 0 0 0 0)
(-2.71051e-14 6.41886e-15 0 -4.44089e-14 4.19052e-14 0 0 0 0)
(-5.42101e-14 1.16355e-14 0 8.88178e-14 1.99273e-14 0 0 0 0)
(5.42101e-14 8.05188e-15 0 8.88178e-14 -4.63677e-15 0 0 0 0)
(0 -4.22924e-15 0 0 -1.22802e-14 0 0 0 0)
)
;
    }
    fixedWalls
    {
        type            extrapolatedCalculated;
        value           nonuniform List<tensor> 
60
(
(-6.30607e-12 7.15917e-11 0 1.89735e-12 1.70585e-11 0 0 0 0)
(1.39e-11 -3.35752e-12 0 -1.6263e-13 -3.18812e-11 0 0 0 0)
(-6.92779e-12 -5.59333e-11 0 -5.55654e-12 1.45083e-11 0 0 0 0)
(-8.26006e-12 5.46755e-11 0 5.47522e-12 1.01433e-11 0 0 0 0)
(1.49214e-11 -1.53599e-11 0 -1.19262e-12 -2.29458e-11 0 0 0 0)
(-1.30562e-11 -3.71076e-11 0 -2.6834e-12 1.97955e-11 0 0 0 0)
(4.08562e-12 6.38222e-11 0 4.11997e-12 1.57067e-12 0 0 0 0)
(3.55271e-12 -3.08249e-11 0 -1.51788e-12 -2.12769e-11 0 0 0 0)
(-2.04281e-12 -2.12852e-11 0 -1.43657e-12 1.97684e-11 0 0 0 0)
(-2.22045e-12 4.82487e-11 0 5.69206e-13 -6.95123e-12 0 0 0 0)
(3.55271e-13 -4.90901e-11 0 7.86047e-13 -1.66142e-12 0 0 0 0)
(8.43769e-13 4.1603e-11 0 -1.6263e-13 8.61271e-12 0 0 0 0)
(-3.55271e-13 -1.46393e-11 0 -1.16552e-12 -1.74794e-11 0 0 0 0)
(-3.64153e-12 -2.83144e-11 0 -8.13152e-14 2.00466e-11 0 0 0 0)
(-7.99361e-13 6.55469e-11 0 3.52366e-12 -5.43148e-12 0 0 0 0)
(1.05249e-11 -5.00404e-11 0 -2.90024e-12 -1.78745e-11 0 0 0 0)
(-1.25233e-11 -5.9512e-12 0 -3.14419e-12 2.57396e-11 0 0 0 0)
(-1.95399e-12 5.2918e-11 0 6.77626e-12 -4.70888e-12 0 0 0 0)
(1.45217e-11 -2.47867e-11 0 -1.0842e-12 -2.16704e-11 0 0 0 0)
(-6.21725e-12 -3.37635e-11 0 -2.05998e-12 1.46376e-11 0 0 0 0)
(8.88178e-14 4.86722e-15 0 -5.42101e-14 -9.88765e-15 0 0 0 0)
(8.88178e-14 3.46834e-14 0 5.42101e-14 -7.32729e-15 0 0 0 0)
(0 3.41764e-14 0 0 2.52161e-15 0 0 0 0)
(0 2.4597e-14 0 0 2.80348e-15 0 0 0 0)
(0 2.29625e-14 0 0 1.01434e-14 0 0 0 0)
(-4.44089e-14 -1.59766e-14 0 2.71051e-14 8.38082e-15 0 0 0 0)
(0 -1.05608e-14 0 -2.71051e-14 -5.76035e-15 0 0 0 0)
(0 7.06475e-15 0 0 -6.46235e-15 0 0 0 0)
(-4.44089e-14 1.52886e-14 0 2.71051e-14 -5.67758e-16 0 0 0 0)
(-4.44089e-14 9.33578e-15 0 0 6.33503e-15 0 0 0 0)
(-4.44089e-14 -1.00515e-14 0 0 6.3719e-15 0 0 0 0)
(-4.44089e-14 -1.61518e-14 0 0 2.34661e-15 0 0 0 0)
(0 -1.9438e-14 0 -2.71051e-14 -3.76689e-15 0 0 0 0)
(0 -1.08424e-15 0 0 -3.68881e-15 0 0 0 0)
(-4.44089e-14 -4.68276e-15 0 0 -8.56498e-16 0 0 0 0)
(0 2.34175e-15 0 2.71051e-14 -3.06457e-15 0 0 0 0)
(-8.88178e-14 7.57551e-15 0 0 2.39214e-15 0 0 0 0)
(0 -7.22682e-15 0 -2.71051e-14 5.60441e-15 0 0 0 0)
(0 -1.48421e-14 0 0 1.26335e-15 0 0 0 0)
(0 -1.22802e-14 0 0 -6.78058e-15 0 0 0 0)
(-1.0571e-12 1.40035e-11 0 -6.30607e-12 7.15917e-11 0 0 0 0)
(1.65341e-12 -1.69798e-11 0 2.13163e-12 -1.55777e-11 0 0 0 0)
(-4.33681e-13 3.68128e-12 0 2.22045e-13 3.67235e-12 0 0 0 0)
(2.71051e-14 -8.77614e-13 0 3.9968e-13 -8.52573e-13 0 0 0 0)
(0 2.17088e-13 0 3.55271e-13 1.61897e-13 0 0 0 0)
(0 -1.69277e-14 0 3.55271e-13 1.57774e-14 0 0 0 0)
(-5.42101e-14 1.532e-14 0 3.55271e-13 9.4186e-14 0 0 0 0)
(-2.71051e-14 -6.99068e-15 0 2.22045e-13 7.70575e-14 0 0 0 0)
(0 -1.14773e-14 0 2.22045e-13 6.62233e-14 0 0 0 0)
(-5.42101e-14 -1.89949e-14 0 1.77636e-13 3.11483e-14 0 0 0 0)
(0 -6.17474e-15 0 4.44089e-14 -9.75646e-15 0 0 0 0)
(0 1.04333e-14 0 1.33227e-13 6.44929e-15 0 0 0 0)
(0 4.94444e-15 0 1.33227e-13 3.19768e-14 0 0 0 0)
(-5.42101e-14 -1.83868e-15 0 4.44089e-14 2.6227e-14 0 0 0 0)
(0 9.00298e-16 0 0 2.46221e-14 0 0 0 0)
(-5.42101e-14 -1.64611e-15 0 -8.88178e-14 2.98282e-14 0 0 0 0)
(5.42101e-14 -1.06913e-14 0 -8.88178e-14 1.80376e-14 0 0 0 0)
(0 -7.89157e-15 0 4.44089e-14 -1.29368e-14 0 0 0 0)
(-5.42101e-14 2.01739e-15 0 -8.88178e-14 -1.35287e-14 0 0 0 0)
(5.42101e-14 4.59898e-15 0 -8.88178e-14 -4.86722e-15 0 0 0 0)
)
;
    }
    frontAndBack
    {
        type            empty;
    }
}


// ************************************************************************* //
