/*--------------------------------*- C++ -*----------------------------------*\
| =========                 |                                                 |
| \\      /  F ield         | OpenFOAM: The Open Source CFD Toolbox           |
|  \\    /   O peration     | Version:  2312                                  |
|   \\  /    A nd           | Website:  www.openfoam.com                      |
|    \\/     M anipulation  |                                                 |
\*---------------------------------------------------------------------------*/
FoamFile
{
    version     2.0;
    format      ascii;
    arch        "LSB;label=32;scalar=64";
    class       volVectorField;
    location    "7.25";
    object      gradPhi;
}
// * * * * * * * * * * * * * * * * * * * * * * * * * * * * * * * * * * * * * //

dimensions      [0 2 -1 0 0 0 0];

internalField   nonuniform List<vector> 
400
(
(-0.02 9.71357e-17 0)
(1.45584e-16 -1.45742e-16 0)
(-4.30134e-17 4.37245e-17 0)
(6.61744e-18 -7.97022e-18 0)
(0 4.34614e-19 0)
(0 5.12317e-19 0)
(-1.65436e-18 2.00697e-18 0)
(0 9.06446e-19 0)
(-3.30872e-18 1.45856e-18 0)
(-1.65436e-18 1.75234e-18 0)
(0 -3.05675e-20 0)
(0 -2.8252e-19 0)
(0 8.80248e-19 0)
(-1.65436e-18 1.24053e-18 0)
(0 1.02231e-18 0)
(-1.65436e-18 1.16237e-18 0)
(-1.65436e-18 1.1721e-18 0)
(1.65436e-18 -8.69534e-19 0)
(1.65436e-18 -1.13767e-18 0)
(0 -1.19655e-19 0)
(-0.02 -2.00354e-16 0)
(-2.7297e-16 2.7248e-16 0)
(8.10637e-17 -8.13382e-17 0)
(-1.48893e-17 1.43629e-17 0)
(1.65436e-18 -1.44465e-18 0)
(-1.65436e-18 6.31252e-19 0)
(3.30872e-18 -1.82717e-18 0)
(1.65436e-18 -1.02932e-18 0)
(1.65436e-18 -3.03781e-18 0)
(3.30872e-18 -2.2766e-18 0)
(-3.30872e-18 1.12538e-18 0)
(-1.65436e-18 1.53066e-18 0)
(0 -1.13021e-18 0)
(1.65436e-18 -3.27211e-19 0)
(-1.65436e-18 5.65568e-19 0)
(1.65436e-18 3.53141e-19 0)
(-1.65436e-18 2.73683e-20 0)
(0 1.71486e-18 0)
(0 -5.57716e-21 0)
(1.65436e-18 -1.61079e-18 0)
(-0.02 8.66206e-17 0)
(1.15805e-16 -1.16562e-16 0)
(-3.47416e-17 3.54143e-17 0)
(4.96308e-18 -5.33875e-18 0)
(-1.65436e-18 1.1078e-18 0)
(1.65436e-18 -1.5559e-18 0)
(1.65436e-18 -1.11572e-18 0)
(0 -3.27483e-20 0)
(-3.30872e-18 3.54538e-18 0)
(-1.65436e-18 1.1494e-18 0)
(1.65436e-18 -7.17313e-19 0)
(0 -3.46757e-19 0)
(0 -3.94613e-19 0)
(0 -2.1873e-18 0)
(3.30872e-18 -2.04513e-18 0)
(1.65436e-18 -1.73612e-18 0)
(0 -4.77135e-19 0)
(0 -3.38905e-19 0)
(-1.65436e-18 1.35147e-18 0)
(-1.65436e-18 1.48892e-18 0)
(-0.02 8.68216e-17 0)
(1.07533e-16 -1.0792e-16 0)
(-2.64698e-17 2.69288e-17 0)
(4.96308e-18 -4.79534e-18 0)
(-3.30872e-18 4.60583e-18 0)
(-1.65436e-18 1.60929e-18 0)
(-1.65436e-18 9.61642e-19 0)
(0 8.73024e-19 0)
(1.65436e-18 -1.62444e-18 0)
(0 -9.03028e-20 0)
(1.65436e-18 -7.96429e-19 0)
(1.65436e-18 -2.57637e-18 0)
(0 9.19341e-21 0)
(0 1.26255e-19 0)
(0 -2.22689e-19 0)
(-1.65436e-18 1.18534e-18 0)
(0 -1.03557e-19 0)
(0 -1.52626e-19 0)
(0 -8.65599e-19 0)
(1.65436e-18 -6.23246e-19 0)
(-0.02 -1.70386e-16 0)
(-2.23339e-16 2.24234e-16 0)
(5.79026e-17 -5.81309e-17 0)
(-8.27181e-18 9.40764e-18 0)
(4.96308e-18 -5.52175e-18 0)
(-1.65436e-18 7.47355e-19 0)
(-3.30872e-18 2.9591e-18 0)
(-1.65436e-18 1.06536e-18 0)
(0 7.4764e-20 0)
(1.65436e-18 -1.03634e-18 0)
(0 5.9595e-20 0)
(-1.65436e-18 1.05761e-18 0)
(0 -1.86024e-20 0)
(0 9.64386e-19 0)
(0 1.03567e-19 0)
(1.65436e-18 -1.57718e-18 0)
(1.65436e-18 -1.151e-18 0)
(1.65436e-18 -9.51522e-19 0)
(-1.65436e-18 4.96914e-19 0)
(0 6.03619e-19 0)
(-0.02 1.56633e-16 0)
(2.05141e-16 -2.0431e-16 0)
(-5.12852e-17 4.94856e-17 0)
(1.15805e-17 -1.00163e-17 0)
(-1.65436e-18 1.47807e-18 0)
(1.65436e-18 -1.53602e-18 0)
(1.65436e-18 -2.29439e-19 0)
(-3.30872e-18 2.19087e-18 0)
(-1.65436e-18 2.51814e-18 0)
(-1.65436e-18 1.82953e-18 0)
(0 -1.29155e-19 0)
(0 -1.05608e-19 0)
(0 3.34563e-19 0)
(0 -2.47478e-19 0)
(0 -7.53357e-19 0)
(0 -1.50387e-19 0)
(0 3.15413e-19 0)
(-1.65436e-18 6.14459e-19 0)
(0 4.69986e-19 0)
(-1.65436e-18 1.30191e-18 0)
(-0.02 -2.36017e-17 0)
(-2.15067e-17 2.25446e-17 0)
(-4.96308e-18 4.27548e-18 0)
(-1.65436e-18 4.45761e-19 0)
(1.65436e-18 -9.01662e-19 0)
(0 4.37188e-20 0)
(3.30872e-18 -2.40433e-18 0)
(1.65436e-18 -2.65089e-18 0)
(1.65436e-18 -1.44091e-18 0)
(0 -4.37091e-19 0)
(0 -1.96181e-19 0)
(0 -4.09849e-19 0)
(1.65436e-18 -9.67602e-19 0)
(0 1.58661e-19 0)
(-1.65436e-18 1.48632e-18 0)
(-1.65436e-18 1.20096e-18 0)
(0 1.1375e-18 0)
(-1.65436e-18 1.38249e-18 0)
(-1.65436e-18 1.43059e-19 0)
(1.65436e-18 -1.54288e-18 0)
(-0.02 -9.24561e-17 0)
(-1.42275e-16 1.42166e-16 0)
(5.45939e-17 -5.444e-17 0)
(-8.27181e-18 7.96736e-18 0)
(0 -3.12953e-19 0)
(0 1.21269e-18 0)
(-1.65436e-18 1.27238e-18 0)
(1.65436e-18 -1.84063e-18 0)
(3.30872e-18 -2.85106e-18 0)
(0 -1.32749e-18 0)
(-3.30872e-18 3.11743e-18 0)
(0 1.975e-18 0)
(-1.65436e-18 1.09202e-18 0)
(0 -1.20683e-18 0)
(1.65436e-18 -1.43495e-18 0)
(0 -1.63978e-18 0)
(3.30872e-18 -1.82421e-18 0)
(1.65436e-18 -8.28096e-19 0)
(-1.65436e-18 8.12875e-19 0)
(0 7.75193e-19 0)
(-0.02 7.57191e-17 0)
(1.19114e-16 -1.18886e-16 0)
(-5.12852e-17 5.06288e-17 0)
(4.96308e-18 -5.73609e-18 0)
(0 7.15422e-19 0)
(1.65436e-18 -2.03224e-18 0)
(3.30872e-18 -1.61445e-18 0)
(0 5.55631e-19 0)
(-3.30872e-18 2.03264e-18 0)
(-1.65436e-18 1.02774e-18 0)
(3.30872e-18 -3.05578e-18 0)
(0 -5.63546e-19 0)
(1.65436e-18 1.31418e-19 0)
(-3.30872e-18 2.36679e-18 0)
(-3.30872e-18 2.46412e-18 0)
(0 5.43243e-19 0)
(0 1.75756e-19 0)
(0 -1.03998e-18 0)
(3.30872e-18 -2.14414e-18 0)
(0 -1.24707e-18 0)
(-0.02 -1.05293e-17 0)
(-2.15067e-17 2.24924e-17 0)
(1.48893e-17 -1.39054e-17 0)
(-1.65436e-18 1.94899e-18 0)
(1.65436e-18 -4.72865e-19 0)
(-1.65436e-18 1.36985e-18 0)
(-3.30872e-18 2.90596e-18 0)
(-1.65436e-18 1.76859e-18 0)
(1.65436e-18 -1.27026e-18 0)
(3.30872e-18 -1.99634e-18 0)
(0 5.72556e-20 0)
(-1.65436e-18 8.38271e-19 0)
(-1.65436e-18 9.74912e-19 0)
(1.65436e-18 -9.815e-19 0)
(1.65436e-18 -1.68933e-18 0)
(0 3.36363e-19 0)
(0 8.10597e-20 0)
(1.65436e-18 -4.379e-19 0)
(0 3.53769e-19 0)
(-1.65436e-18 1.25268e-18 0)
(-0.02 -2.41482e-18 0)
(-1.48893e-17 1.39359e-17 0)
(8.27181e-18 -6.67432e-18 0)
(0 2.59098e-20 0)
(-1.65436e-18 1.65039e-18 0)
(0 -9.62271e-20 0)
(1.65436e-18 -2.65903e-18 0)
(1.65436e-18 -2.09401e-18 0)
(0 2.65589e-19 0)
(-1.65436e-18 2.11669e-18 0)
(0 1.01305e-18 0)
(1.65436e-18 -2.20329e-18 0)
(1.65436e-18 -1.36855e-18 0)
(1.65436e-18 -2.08765e-19 0)
(0 -1.30673e-19 0)
(0 -2.35826e-19 0)
(-1.65436e-18 4.41994e-19 0)
(0 7.78058e-19 0)
(0 8.35513e-20 0)
(0 -1.81122e-19 0)
(-0.02 2.02049e-17 0)
(3.30872e-17 -3.44047e-17 0)
(-1.65436e-17 1.88409e-17 0)
(1.65436e-18 -2.72756e-18 0)
(3.30872e-18 -1.95247e-18 0)
(3.30872e-18 -2.78718e-18 0)
(1.65436e-18 -3.00238e-18 0)
(0 5.87249e-19 0)
(-1.65436e-18 2.89118e-18 0)
(-1.65436e-18 1.27396e-18 0)
(0 5.84388e-19 0)
(0 7.84704e-19 0)
(0 -5.96686e-19 0)
(0 -5.01354e-19 0)
(0 -9.70758e-20 0)
(0 3.86758e-19 0)
(0 3.37794e-19 0)
(-1.65436e-18 8.84384e-19 0)
(-1.65436e-18 1.38298e-18 0)
(0 9.40526e-19 0)
(-0.02 -5.14431e-17 0)
(-9.26442e-17 9.24671e-17 0)
(4.30134e-17 -4.31069e-17 0)
(-4.96308e-18 5.14164e-18 0)
(1.65436e-18 -7.2577e-19 0)
(-1.65436e-18 1.0126e-18 0)
(-1.65436e-18 1.70896e-18 0)
(3.30872e-18 -2.46112e-18 0)
(3.30872e-18 -4.06383e-18 0)
(1.65436e-18 -1.18555e-18 0)
(0 7.99503e-20 0)
(-1.65436e-18 5.98595e-19 0)
(-3.30872e-18 1.89189e-18 0)
(-1.65436e-18 1.17908e-18 0)
(0 5.29492e-19 0)
(1.65436e-18 -8.07132e-19 0)
(0 -7.28327e-19 0)
(1.65436e-18 -8.33316e-19 0)
(1.65436e-18 -4.08197e-19 0)
(0 -1.07946e-18 0)
(-0.02 8.61156e-17 0)
(1.32349e-16 -1.32115e-16 0)
(-4.96308e-17 4.99296e-17 0)
(6.61744e-18 -6.79192e-18 0)
(-1.65436e-18 1.20322e-18 0)
(1.65436e-18 -2.89809e-19 0)
(-1.65436e-18 3.97473e-20 0)
(0 8.15916e-19 0)
(-1.65436e-18 1.15727e-18 0)
(1.65436e-18 -5.3302e-19 0)
(0 -1.17305e-18 0)
(0 3.91828e-19 0)
(0 -7.03518e-19 0)
(0 -5.64424e-19 0)
(0 -2.65364e-19 0)
(0 7.7625e-19 0)
(0 1.61108e-18 0)
(-1.65436e-18 1.09758e-18 0)
(0 3.36367e-19 0)
(0 -8.67403e-20 0)
(-0.02 -1.84325e-17 0)
(-2.48154e-17 2.57566e-17 0)
(1.32349e-17 -1.20758e-17 0)
(-1.65436e-18 2.15331e-19 0)
(0 1.92334e-19 0)
(-1.65436e-18 1.37303e-18 0)
(0 9.42077e-19 0)
(-3.30872e-18 1.71773e-18 0)
(0 3.57717e-19 0)
(1.65436e-18 -4.94698e-19 0)
(0 -5.80954e-20 0)
(0 -6.98833e-19 0)
(0 -5.57738e-20 0)
(-1.65436e-18 1.5397e-18 0)
(0 1.32672e-18 0)
(-1.65436e-18 1.01902e-18 0)
(-1.65436e-18 3.12193e-19 0)
(1.65436e-18 -6.89909e-19 0)
(1.65436e-18 -2.40397e-18 0)
(0 6.32307e-19 0)
(-0.02 -1.35174e-16 0)
(-1.68745e-16 1.67978e-16 0)
(4.63221e-17 -4.59916e-17 0)
(-9.92617e-18 9.04464e-18 0)
(1.65436e-18 -1.01362e-18 0)
(-3.30872e-18 2.03865e-18 0)
(0 1.91706e-18 0)
(-1.65436e-18 1.37369e-18 0)
(-1.65436e-18 1.85145e-18 0)
(-1.65436e-18 1.55924e-18 0)
(-3.30872e-18 1.76127e-18 0)
(0 7.8267e-19 0)
(0 5.28723e-19 0)
(1.65436e-18 -2.34697e-18 0)
(3.30872e-18 -1.93168e-18 0)
(0 -4.95422e-19 0)
(1.65436e-18 -1.88444e-18 0)
(0 -4.06658e-19 0)
(-1.65436e-18 1.93363e-18 0)
(1.65436e-18 -1.12542e-18 0)
(-0.02 1.73148e-16 0)
(2.24993e-16 -2.2606e-16 0)
(-6.61744e-17 6.56295e-17 0)
(8.27181e-18 -8.52412e-18 0)
(-1.65436e-18 1.52606e-18 0)
(3.30872e-18 -3.22771e-18 0)
(0 -5.96273e-19 0)
(0 -4.0415e-19 0)
(1.65436e-18 -1.9233e-18 0)
(1.65436e-18 -1.46577e-18 0)
(1.65436e-18 -1.19041e-18 0)
(0 -3.55232e-19 0)
(0 -4.95841e-19 0)
(0 3.79913e-19 0)
(0 6.83919e-19 0)
(0 1.32102e-18 0)
(-1.65436e-18 -1.39718e-19 0)
(0 -1.40302e-22 0)
(1.65436e-18 -2.80933e-19 0)
(-1.65436e-18 7.79728e-19 0)
(-0.02 -3.41752e-18 0)
(-2.48154e-17 2.38243e-17 0)
(9.92617e-18 -1.02186e-17 0)
(1.65436e-18 -1.47856e-18 0)
(0 2.59305e-19 0)
(1.65436e-18 -1.96323e-19 0)
(1.65436e-18 -3.15394e-18 0)
(1.65436e-18 -2.78164e-18 0)
(1.65436e-18 -9.23872e-19 0)
(1.65436e-18 -1.77027e-18 0)
(1.65436e-18 -3.00793e-18 0)
(1.65436e-18 -3.79799e-19 0)
(-1.65436e-18 4.76858e-19 0)
(0 8.98098e-19 0)
(0 7.28728e-19 0)
(0 -1.94325e-18 0)
(0 6.3591e-19 0)
(0 -8.00983e-19 0)
(0 -6.54923e-19 0)
(0 8.95555e-20 0)
(-0.02 -1.7361e-16 0)
(-2.2003e-16 2.20593e-16 0)
(5.62483e-17 -5.65849e-17 0)
(-9.92617e-18 1.03737e-17 0)
(1.65436e-18 -3.16098e-18 0)
(0 7.44687e-20 0)
(0 1.90999e-19 0)
(0 4.96764e-19 0)
(-1.65436e-18 1.37412e-18 0)
(-3.30872e-18 3.44229e-18 0)
(-3.30872e-18 3.90262e-18 0)
(1.65436e-18 -1.24662e-18 0)
(1.65436e-18 -1.6682e-18 0)
(1.65436e-18 -9.4731e-19 0)
(0 -2.4892e-19 0)
(1.65436e-18 -1.32781e-18 0)
(1.65436e-18 -1.61188e-18 0)
(0 3.04677e-19 0)
(0 1.11801e-18 0)
(-1.65436e-18 2.07444e-19 0)
(-0.02 9.94206e-17 0)
(1.42275e-16 -1.42472e-16 0)
(-3.80503e-17 3.7609e-17 0)
(4.96308e-18 -5.55508e-18 0)
(-1.65436e-18 2.3337e-18 0)
(-1.65436e-18 1.09619e-18 0)
(-1.65436e-18 1.69783e-18 0)
(-1.65436e-18 9.43242e-19 0)
(0 -3.91321e-19 0)
(1.65436e-18 -1.53771e-18 0)
(1.65436e-18 -1.34604e-18 0)
(-1.65436e-18 1.20909e-18 0)
(-1.65436e-18 1.07977e-18 0)
(0 6.65733e-19 0)
(0 -9.15742e-20 0)
(0 1.62845e-18 0)
(-3.30872e-18 1.6721e-18 0)
(0 5.7306e-19 0)
(1.65436e-18 -5.81593e-19 0)
(0 -4.55495e-19 0)
)
;

boundaryField
{
    movingWall
    {
        type            extrapolatedCalculated;
        value           nonuniform List<vector> 
20
(
(-0.02 9.94206e-17 0)
(1.42275e-16 -1.42472e-16 0)
(-3.80503e-17 3.7609e-17 0)
(4.96308e-18 -5.55508e-18 0)
(-1.65436e-18 2.3337e-18 0)
(-1.65436e-18 1.09619e-18 0)
(-1.65436e-18 1.69783e-18 0)
(-1.65436e-18 9.43242e-19 0)
(0 -3.91321e-19 0)
(1.65436e-18 -1.53771e-18 0)
(1.65436e-18 -1.34604e-18 0)
(-1.65436e-18 1.20909e-18 0)
(-1.65436e-18 1.07977e-18 0)
(0 6.65733e-19 0)
(0 -9.15742e-20 0)
(0 1.62845e-18 0)
(-3.30872e-18 1.6721e-18 0)
(0 5.7306e-19 0)
(1.65436e-18 -5.81593e-19 0)
(0 -4.55495e-19 0)
)
;
    }
    fixedWalls
    {
        type            extrapolatedCalculated;
        value           nonuniform List<vector> 
60
(
(-0.02 9.71357e-17 0)
(-0.02 -2.00354e-16 0)
(-0.02 8.66206e-17 0)
(-0.02 8.68216e-17 0)
(-0.02 -1.70386e-16 0)
(-0.02 1.56633e-16 0)
(-0.02 -2.36017e-17 0)
(-0.02 -9.24561e-17 0)
(-0.02 7.57191e-17 0)
(-0.02 -1.05293e-17 0)
(-0.02 -2.41482e-18 0)
(-0.02 2.02049e-17 0)
(-0.02 -5.14431e-17 0)
(-0.02 8.61156e-17 0)
(-0.02 -1.84325e-17 0)
(-0.02 -1.35174e-16 0)
(-0.02 1.73148e-16 0)
(-0.02 -3.41752e-18 0)
(-0.02 -1.7361e-16 0)
(-0.02 9.94206e-17 0)
(0 -1.19655e-19 0)
(1.65436e-18 -1.61079e-18 0)
(-1.65436e-18 1.48892e-18 0)
(1.65436e-18 -6.23246e-19 0)
(0 6.03619e-19 0)
(-1.65436e-18 1.30191e-18 0)
(1.65436e-18 -1.54288e-18 0)
(0 7.75193e-19 0)
(0 -1.24707e-18 0)
(-1.65436e-18 1.25268e-18 0)
(0 -1.81122e-19 0)
(0 9.40526e-19 0)
(0 -1.07946e-18 0)
(0 -8.67403e-20 0)
(0 6.32307e-19 0)
(1.65436e-18 -1.12542e-18 0)
(-1.65436e-18 7.79728e-19 0)
(0 8.95555e-20 0)
(-1.65436e-18 2.07444e-19 0)
(0 -4.55495e-19 0)
(-0.02 9.71357e-17 0)
(1.45584e-16 -1.45742e-16 0)
(-4.30134e-17 4.37245e-17 0)
(6.61744e-18 -7.97022e-18 0)
(0 4.34614e-19 0)
(0 5.12317e-19 0)
(-1.65436e-18 2.00697e-18 0)
(0 9.06446e-19 0)
(-3.30872e-18 1.45856e-18 0)
(-1.65436e-18 1.75234e-18 0)
(0 -3.05675e-20 0)
(0 -2.8252e-19 0)
(0 8.80248e-19 0)
(-1.65436e-18 1.24053e-18 0)
(0 1.02231e-18 0)
(-1.65436e-18 1.16237e-18 0)
(-1.65436e-18 1.1721e-18 0)
(1.65436e-18 -8.69534e-19 0)
(1.65436e-18 -1.13767e-18 0)
(0 -1.19655e-19 0)
)
;
    }
    frontAndBack
    {
        type            empty;
    }
}


// ************************************************************************* //
