/*--------------------------------*- C++ -*----------------------------------*\
| =========                 |                                                 |
| \\      /  F ield         | OpenFOAM: The Open Source CFD Toolbox           |
|  \\    /   O peration     | Version:  2312                                  |
|   \\  /    A nd           | Website:  www.openfoam.com                      |
|    \\/     M anipulation  |                                                 |
\*---------------------------------------------------------------------------*/
FoamFile
{
    version     2.0;
    format      ascii;
    arch        "LSB;label=32;scalar=64";
    class       volVectorField;
    location    "7.25";
    object      LambVectorField;
}
// * * * * * * * * * * * * * * * * * * * * * * * * * * * * * * * * * * * * * //

dimensions      [0 1 -2 0 0 0 0];

internalField   nonuniform List<vector> 
400
(
(-2.16674e-24 -1.21061e-11 -1.21061e-11)
(-6.43322e-25 1.6519e-11 -0)
(-3.28021e-26 -3.57286e-12 -3.57286e-12)
(-1.98612e-27 9.31825e-13 -0)
(-5.49528e-29 -1.35772e-13 -1.35772e-13)
(6.67688e-31 1.69277e-14 0)
(9.15726e-30 3.88901e-14 3.88901e-14)
(6.56833e-30 3.40957e-14 0)
(1.08751e-29 6.56874e-14 6.56874e-14)
(7.81121e-30 1.0031e-13 0)
(-8.11733e-31 3.32798e-14 3.32798e-14)
(-1.68219e-31 -1.04333e-14 0)
(-3.95268e-31 -4.94444e-15 -4.94444e-15)
(1.89777e-30 2.89437e-14 0)
(-5.5418e-32 -9.00298e-16 -9.00298e-16)
(-3.91973e-30 -5.2564e-14 0)
(-1.96244e-30 -4.35188e-14 -4.35188e-14)
(-2.55229e-31 7.89157e-15 -0)
(6.82318e-32 -2.01739e-15 -2.01739e-15)
(7.15592e-31 -5.88091e-14 -0)
(-3.65156e-27 4.3503e-13 4.3503e-13)
(-2.19054e-27 -9.06232e-13 0)
(-6.37551e-29 1.53372e-13 1.53372e-13)
(-8.22654e-30 -1.1697e-13 0)
(8.25448e-30 -1.39579e-13 -1.39579e-13)
(-1.68067e-29 -1.51588e-13 0)
(-1.00417e-29 -9.89435e-14 -9.89435e-14)
(-1.10633e-30 -6.86996e-14 0)
(2.80774e-30 -1.13825e-13 -1.13825e-13)
(-6.27362e-30 -8.94301e-14 0)
(-4.58614e-30 -8.11963e-14 -8.11963e-14)
(-3.8854e-30 -5.63404e-14 0)
(-5.0085e-30 -6.43889e-14 -6.43889e-14)
(-6.04624e-30 -3.54098e-14 0)
(5.17533e-31 3.21784e-15 3.21784e-15)
(8.26898e-30 5.96727e-14 0)
(1.03368e-29 9.7327e-14 9.7327e-14)
(-5.09486e-31 2.36458e-14 -0)
(-4.37922e-30 3.36212e-14 3.36212e-14)
(-2.81925e-30 3.25141e-14 -0)
(-7.51567e-25 5.37474e-12 5.37474e-12)
(-3.58177e-25 -1.17357e-11 0)
(-1.95073e-26 2.67301e-12 2.67301e-12)
(-9.48265e-28 -5.84663e-13 0)
(-6.77493e-29 1.84591e-13 1.84591e-13)
(1.2816e-30 2.72468e-14 0)
(-1.07184e-30 1.10057e-14 1.10057e-14)
(5.53351e-31 -8.78052e-15 -0)
(1.11509e-31 -1.1634e-14 -1.1634e-14)
(-5.17384e-30 -9.70346e-14 0)
(-4.62187e-30 -3.13114e-14 -3.13114e-14)
(7.47943e-30 7.84149e-14 0)
(-1.22559e-30 1.29777e-14 1.29777e-14)
(2.45784e-30 -7.14615e-14 -0)
(-9.42896e-31 -1.20766e-14 -1.20766e-14)
(-2.51526e-31 -2.91212e-15 0)
(4.52481e-31 4.22101e-15 4.22101e-15)
(8.34629e-31 1.88992e-14 0)
(1.15696e-30 -1.41447e-14 -1.41447e-14)
(1.42887e-30 -1.67235e-14 -0)
(-6.98317e-25 -5.10881e-12 -5.10881e-12)
(-3.57402e-25 1.15857e-11 -0)
(-1.9224e-26 -2.7431e-12 -2.7431e-12)
(-8.18217e-28 5.38238e-13 -0)
(-3.56867e-29 -6.58953e-14 -6.58953e-14)
(-3.96867e-30 8.25562e-14 -0)
(2.06865e-31 -1.59816e-14 -1.59816e-14)
(-1.1371e-29 -1.0176e-13 0)
(-3.69126e-30 -1.92748e-14 -1.92748e-14)
(7.99493e-31 2.39081e-14 0)
(-3.39909e-31 7.14495e-15 7.14495e-15)
(2.01571e-30 -5.30321e-14 -0)
(-3.7967e-30 6.39677e-14 6.39677e-14)
(1.82588e-31 -1.34667e-15 -0)
(3.4006e-30 -7.41086e-14 -7.41086e-14)
(-4.38741e-30 -6.92015e-14 0)
(-8.48977e-30 -8.16113e-14 -8.16113e-14)
(-2.77746e-30 -4.18533e-14 0)
(-2.49843e-31 1.27854e-14 1.27854e-14)
(4.98295e-31 -8.10337e-15 -0)
(-6.81996e-26 1.77604e-12 1.77604e-12)
(-2.8925e-26 -3.31965e-12 0)
(-1.69437e-27 8.68562e-13 8.68562e-13)
(-9.03722e-29 -1.58618e-13 0)
(1.64595e-29 9.27261e-14 9.27261e-14)
(2.69829e-29 1.4618e-13 0)
(1.10373e-29 1.55533e-13 1.55533e-13)
(-3.14508e-30 2.03099e-13 -0)
(-5.2798e-30 8.42446e-14 8.42446e-14)
(-3.68214e-30 8.22275e-14 -0)
(-6.2665e-30 8.72826e-14 8.72826e-14)
(-5.21335e-30 4.99104e-14 -0)
(2.08299e-31 -7.23286e-15 -7.23286e-15)
(-1.91421e-30 5.95856e-14 -0)
(-4.40552e-30 5.33654e-14 5.33654e-14)
(-1.16175e-30 4.9063e-14 -0)
(-2.5224e-30 8.11508e-14 8.11508e-14)
(-1.20116e-30 5.45119e-14 -0)
(-1.96924e-30 5.77472e-14 5.77472e-14)
(5.25308e-31 -9.15072e-15 -0)
(-4.25045e-25 4.58177e-12 4.58177e-12)
(-1.62138e-25 -8.05966e-12 0)
(-9.03994e-27 1.86241e-12 1.86241e-12)
(-4.16271e-28 -4.37729e-13 0)
(-9.05892e-30 4.40742e-14 4.40742e-14)
(-2.0957e-29 -8.76181e-14 0)
(-1.61808e-29 -4.04933e-14 -4.04933e-14)
(1.73382e-29 4.64748e-14 0)
(2.25444e-29 1.09494e-13 1.09494e-13)
(9.34371e-30 1.02369e-13 0)
(-3.37441e-31 7.26687e-14 7.26687e-14)
(-8.58377e-30 9.19908e-14 -0)
(-6.30289e-30 5.65789e-14 5.65789e-14)
(-9.93804e-30 8.49411e-14 -0)
(-7.67177e-30 5.19559e-14 5.19559e-14)
(-4.41356e-30 4.67256e-14 -0)
(-1.55167e-30 2.131e-14 2.131e-14)
(3.89017e-31 -1.0656e-14 -0)
(-1.17269e-30 -3.47499e-14 -3.47499e-14)
(1.37694e-30 3.44739e-14 0)
(-1.32945e-24 -8.33222e-12 -8.33222e-12)
(-4.88008e-25 1.39297e-11 -0)
(-2.66658e-26 -3.30769e-12 -3.30769e-12)
(-1.30833e-27 6.68601e-13 -0)
(-9.42785e-29 -3.23369e-13 -3.23369e-13)
(7.70862e-30 -9.83391e-14 -0)
(-3.43658e-29 -1.80171e-13 -1.80171e-13)
(-6.36689e-29 -1.72981e-13 0)
(-7.88215e-30 -2.67878e-14 -2.67878e-14)
(1.06769e-30 1.13771e-14 0)
(8.03858e-31 -8.87489e-15 -8.87489e-15)
(7.79742e-30 -8.81505e-14 -0)
(1.46287e-30 -6.58263e-14 -6.58263e-14)
(-2.25256e-30 -8.13029e-14 0)
(1.16527e-30 -5.21472e-14 -5.21472e-14)
(-8.26713e-31 -1.16822e-13 0)
(-2.08351e-30 -3.37836e-14 -3.37836e-14)
(3.0637e-31 4.14784e-15 0)
(9.58399e-32 4.74605e-15 4.74605e-15)
(-5.92607e-31 -2.24455e-14 0)
(-3.47658e-25 4.51139e-12 4.51139e-12)
(-1.15265e-25 -6.87354e-12 0)
(-6.35578e-27 1.59294e-12 1.59294e-12)
(-2.99031e-28 -3.56002e-13 0)
(-1.5221e-29 9.58005e-14 9.58005e-14)
(5.65753e-30 3.69735e-14 0)
(6.55601e-31 4.86232e-14 4.86232e-14)
(-2.08549e-30 3.3547e-14 -0)
(1.85586e-30 -3.6435e-14 -3.6435e-14)
(-2.14642e-30 -6.89417e-14 0)
(-2.03317e-30 -2.10953e-14 -2.10953e-14)
(9.45721e-31 -3.26515e-14 -0)
(-9.83092e-31 8.24699e-15 8.24699e-15)
(6.7383e-30 -6.0469e-14 -0)
(5.17102e-30 -9.13332e-14 -9.13332e-14)
(4.17664e-31 -3.71132e-14 -0)
(-4.12614e-30 -9.4932e-14 -9.4932e-14)
(-7.33223e-30 -5.86977e-14 0)
(-1.13494e-30 -1.28474e-14 -1.28474e-14)
(-1.24831e-31 7.06784e-15 -0)
(-1.46488e-25 2.75286e-12 2.75286e-12)
(-5.05789e-26 -4.46859e-12 0)
(-3.04889e-27 1.07543e-12 1.07543e-12)
(-1.20526e-28 -2.13532e-13 0)
(-8.11192e-30 5.14649e-14 5.14649e-14)
(3.39034e-31 6.80911e-15 0)
(4.20421e-30 9.27282e-14 9.27282e-14)
(-4.05924e-30 6.30917e-14 -0)
(2.71323e-30 -6.24062e-14 -6.24062e-14)
(-2.48851e-31 -1.41218e-14 0)
(-4.97054e-31 -5.08543e-15 -5.08543e-15)
(6.36181e-30 9.29056e-14 0)
(-6.7795e-31 3.73248e-14 3.73248e-14)
(2.97298e-32 -8.8162e-16 -0)
(-8.39078e-31 8.97669e-14 8.97669e-14)
(-4.25095e-30 3.59522e-14 -0)
(1.30162e-30 -1.33065e-14 -1.33065e-14)
(-1.98519e-31 -1.339e-14 0)
(1.91403e-31 5.30473e-15 5.30473e-15)
(-1.02781e-30 2.68911e-14 -0)
(-1.07035e-24 -8.87361e-12 -8.87361e-12)
(-2.86572e-25 1.09406e-11 -0)
(-1.6261e-26 -2.5662e-12 -2.5662e-12)
(-8.20505e-28 6.10216e-13 -0)
(-3.72759e-29 -1.58987e-13 -1.58987e-13)
(2.03776e-30 -7.89868e-14 -0)
(-9.53419e-30 -4.51482e-14 -4.51482e-14)
(-9.43704e-30 -6.10288e-14 0)
(1.93152e-31 2.32373e-14 2.32373e-14)
(-3.83599e-31 4.93433e-15 -0)
(3.02152e-30 -7.36396e-14 -7.36396e-14)
(-1.1313e-29 -9.70621e-14 0)
(-3.06534e-30 -2.63259e-14 -2.63259e-14)
(6.10676e-31 5.61476e-15 0)
(2.64079e-30 4.3801e-14 4.3801e-14)
(-5.68503e-30 9.76859e-14 -0)
(-6.03238e-30 5.83306e-14 5.83306e-14)
(-5.21259e-30 5.24398e-14 -0)
(6.51959e-31 -7.6062e-15 -7.6062e-15)
(2.54525e-31 -1.09054e-14 -0)
(-1.27111e-24 1.03573e-11 1.03573e-11)
(-3.18857e-25 -1.18041e-11 0)
(-1.60815e-26 2.66285e-12 2.66285e-12)
(-9.77971e-28 -6.6616e-13 0)
(-2.83397e-29 1.48563e-13 1.48563e-13)
(-9.57024e-30 -3.77534e-14 0)
(1.37117e-29 7.34128e-14 7.34128e-14)
(9.94286e-30 1.61759e-13 0)
(-8.87242e-30 1.17413e-13 1.17413e-13)
(-5.87478e-31 2.0645e-14 -0)
(-5.89589e-31 5.37655e-14 5.37655e-14)
(-1.36824e-30 5.69861e-14 -0)
(-1.38028e-30 3.56423e-14 3.56423e-14)
(-1.26058e-29 1.15245e-13 -0)
(-2.23732e-30 2.09144e-14 2.09144e-14)
(-9.63547e-31 2.02958e-14 -0)
(-8.77363e-32 2.25644e-15 2.25644e-15)
(-1.36464e-31 1.94838e-15 -0)
(-1.02656e-30 1.75882e-14 1.75882e-14)
(-8.35221e-32 -3.32375e-15 0)
(-8.64429e-25 -8.31122e-12 -8.31122e-12)
(-2.21923e-25 9.8538e-12 -0)
(-1.15121e-26 -2.21453e-12 -2.21453e-12)
(-5.85031e-28 4.91883e-13 -0)
(-1.43326e-29 -5.12586e-14 -5.12586e-14)
(-5.44365e-30 4.04182e-14 -0)
(8.72353e-30 -7.00294e-14 -7.00294e-14)
(-1.94601e-30 -8.27737e-14 0)
(-1.9745e-30 -1.22589e-14 -1.22589e-14)
(5.86599e-30 4.01507e-14 0)
(2.45427e-30 8.01794e-14 8.01794e-14)
(-4.28846e-30 3.77526e-14 -0)
(7.264e-31 -9.57483e-15 -9.57483e-15)
(1.04188e-30 -5.83838e-14 -0)
(1.83154e-30 -5.36649e-14 -5.36649e-14)
(1.39836e-30 -6.00222e-14 -0)
(-2.21428e-31 -9.22929e-15 -9.22929e-15)
(3.64525e-30 5.28332e-14 0)
(1.08057e-31 2.8616e-15 2.8616e-15)
(3.15528e-31 7.81406e-15 0)
(-6.30082e-26 1.72162e-12 1.72162e-12)
(-2.35568e-26 -3.0487e-12 0)
(-1.52109e-27 7.43648e-13 7.43648e-13)
(-2.93688e-29 -1.01151e-13 0)
(-1.04855e-29 4.74925e-14 4.74925e-14)
(-3.17482e-31 1.72002e-15 -0)
(1.4721e-29 -6.18572e-14 -6.18572e-14)
(9.00284e-30 -8.3275e-14 -0)
(-2.81005e-30 -5.33566e-14 -5.33566e-14)
(-9.71835e-30 -6.29403e-14 0)
(-2.01201e-30 -1.43748e-14 -1.43748e-14)
(-4.09061e-31 -1.50926e-14 0)
(-4.76384e-31 -2.40068e-14 -2.40068e-14)
(-2.24381e-32 5.78448e-15 -0)
(-2.21809e-31 5.8369e-15 5.8369e-15)
(-5.85809e-32 9.41089e-16 -0)
(4.20579e-31 -8.87072e-15 -8.87072e-15)
(-3.23866e-30 -1.22402e-13 0)
(-2.70928e-30 -2.93186e-14 -2.93186e-14)
(-6.31966e-31 -1.30047e-14 0)
(-3.87484e-25 5.47401e-12 5.47401e-12)
(-9.83546e-26 -6.45676e-12 0)
(-5.97203e-27 1.58029e-12 1.58029e-12)
(-2.15651e-28 -2.74662e-13 0)
(-3.59337e-29 1.63865e-13 1.63865e-13)
(-4.02482e-30 9.9745e-14 -0)
(-1.67333e-29 1.26254e-13 1.26254e-13)
(-2.33092e-29 1.06586e-13 -0)
(6.23141e-30 -5.45695e-14 -5.45695e-14)
(-1.00651e-30 -1.79881e-14 0)
(4.27177e-32 6.50303e-16 6.50303e-16)
(1.71473e-30 3.46752e-14 0)
(-3.7658e-31 3.76095e-14 3.76095e-14)
(-3.34773e-30 6.02184e-14 -0)
(-2.0254e-30 2.88947e-14 2.88947e-14)
(-1.39687e-30 1.90078e-14 -0)
(-1.17722e-31 -1.08236e-14 -1.08236e-14)
(-1.06287e-30 -3.05889e-14 0)
(1.46454e-31 3.20364e-15 3.20364e-15)
(1.31262e-32 4.84254e-15 0)
(-1.51731e-24 -9.25937e-12 -9.25937e-12)
(-5.25507e-25 1.45824e-11 -0)
(-2.79676e-26 -3.37552e-12 -3.37552e-12)
(-1.60483e-27 7.98119e-13 -0)
(-4.83901e-29 -1.59059e-13 -1.59059e-13)
(-4.97145e-30 3.33381e-14 -0)
(3.22107e-31 -1.10486e-14 -1.10486e-14)
(2.08338e-30 -5.39236e-14 -0)
(-9.258e-33 2.8914e-16 2.8914e-16)
(-3.01659e-33 7.26413e-17 -0)
(2.94738e-30 -9.00087e-14 -9.00087e-14)
(-4.13953e-30 -9.11635e-14 0)
(-5.86446e-30 -8.921e-14 -8.921e-14)
(-1.3249e-29 -1.06541e-13 0)
(-1.03637e-30 -2.20772e-14 -2.20772e-14)
(-2.96494e-30 -4.00249e-14 0)
(-9.78637e-30 -5.55598e-14 -5.55598e-14)
(8.95917e-30 1.02304e-13 0)
(-2.56032e-31 7.58671e-15 7.58671e-15)
(-2.58027e-32 -2.20406e-15 0)
(-8.61965e-25 6.89016e-12 6.89016e-12)
(-3.0261e-25 -1.11266e-11 0)
(-1.63976e-26 2.51637e-12 2.51637e-12)
(-8.23204e-28 -6.7471e-13 0)
(1.81012e-29 -5.81325e-14 -5.81325e-14)
(-1.58393e-29 -9.04555e-14 0)
(-2.39155e-30 -4.68235e-14 -4.68235e-14)
(-4.53313e-31 -4.47764e-15 0)
(-4.77908e-30 -4.98588e-14 -4.98588e-14)
(1.62434e-31 2.81385e-15 0)
(1.25324e-31 1.8508e-15 1.8508e-15)
(2.10215e-30 5.36009e-14 0)
(5.4693e-33 7.41039e-17 7.41039e-17)
(2.48764e-30 6.46517e-14 0)
(-2.67486e-32 8.73865e-16 8.73865e-16)
(-9.95097e-32 -3.34611e-15 0)
(1.61905e-31 5.67798e-14 5.67798e-14)
(1.28923e-31 3.18918e-14 0)
(-4.45522e-32 9.89689e-16 9.89689e-16)
(-1.28902e-31 2.2018e-14 -0)
(2.93488e-26 -1.97263e-12 -1.97263e-12)
(-2.73781e-27 -8.65732e-13 0)
(2.96904e-29 -3.7128e-14 -3.7128e-14)
(-5.44013e-29 -1.93534e-13 0)
(-7.88375e-30 -1.53185e-13 -1.53185e-13)
(-2.91796e-29 -1.56337e-13 0)
(-3.62388e-29 -1.39602e-13 -1.39602e-13)
(-1.02471e-29 -4.50587e-14 0)
(1.05606e-30 6.28338e-15 6.28338e-15)
(-8.76119e-30 -5.32325e-14 0)
(1.51163e-29 9.54941e-14 9.54941e-14)
(1.13375e-30 4.97397e-14 0)
(-8.66789e-30 1.27374e-13 1.27374e-13)
(-4.63974e-30 2.78251e-14 -0)
(1.91571e-30 -2.54576e-14 -2.54576e-14)
(-3.34873e-32 -3.81276e-16 0)
(-6.74347e-31 9.43958e-15 9.43958e-15)
(2.29952e-31 -3.50191e-14 -0)
(9.52956e-33 1.23723e-15 1.23723e-15)
(2.12805e-32 -1.12365e-15 -0)
(-4.72842e-25 -3.57415e-12 -3.57415e-12)
(-3.14472e-25 1.09226e-11 -0)
(-1.69505e-26 -2.49049e-12 -2.49049e-12)
(-8.7526e-28 6.05051e-13 -0)
(2.84769e-30 1.33384e-14 1.33384e-14)
(-1.78336e-29 7.93589e-14 -0)
(-1.38799e-30 3.65343e-14 3.65343e-14)
(-3.1269e-30 6.51947e-14 -0)
(-2.17672e-30 1.47237e-14 1.47237e-14)
(5.25123e-31 -2.69018e-15 -0)
(1.33526e-29 -1.10411e-13 -1.10411e-13)
(-9.86431e-30 -1.03014e-13 0)
(-4.50159e-30 -4.68652e-14 -4.68652e-14)
(-4.90029e-31 -2.19669e-14 0)
(-3.7025e-31 -8.2881e-15 -8.2881e-15)
(-5.06579e-30 -4.81591e-14 0)
(-2.50674e-31 1.58273e-14 1.58273e-14)
(-1.40807e-30 2.65253e-14 -0)
(-2.00715e-31 1.999e-14 1.999e-14)
(-4.75207e-31 -2.63024e-14 0)
(-2.34659e-25 3.78686e-12 3.78686e-12)
(-7.07818e-26 -5.33952e-12 0)
(-4.86405e-27 1.54383e-12 1.54383e-12)
(-5.56393e-29 -1.05296e-13 0)
(-5.14363e-29 2.56773e-13 2.56773e-13)
(-2.38099e-29 1.67717e-13 -0)
(-3.40505e-29 1.35562e-13 1.35562e-13)
(-4.52061e-30 3.17617e-14 -0)
(-2.6664e-30 9.98783e-14 9.98783e-14)
(-6.67983e-30 1.17376e-13 -0)
(-6.78946e-30 5.8403e-14 5.8403e-14)
(-4.43159e-30 4.48365e-14 -0)
(2.1691e-31 -9.63384e-15 -9.63384e-15)
(-6.30751e-32 2.52248e-14 -0)
(-2.44399e-31 6.58226e-14 6.58226e-14)
(-7.68222e-30 6.47604e-14 -0)
(-2.51331e-30 2.30123e-14 2.30123e-14)
(3.03875e-30 -3.91102e-14 -0)
(-4.18078e-31 -3.85853e-14 -3.85853e-14)
(1.77884e-31 4.79404e-15 0)
(-3.84878e-25 4.5597e-12 4.5597e-12)
(-1.39384e-25 -7.65344e-12 0)
(-6.61008e-27 1.51929e-12 1.51929e-12)
(-3.97566e-28 -4.67383e-13 0)
(5.20325e-30 -2.37556e-14 -2.37556e-14)
(-3.73868e-31 -9.40147e-14 0)
(4.67828e-30 -5.08299e-14 -5.08299e-14)
(2.21811e-30 -7.437e-14 -0)
(-8.23346e-30 -7.51493e-14 -7.51493e-14)
(-9.47335e-30 -5.27566e-14 0)
(2.99017e-30 3.14667e-14 3.14667e-14)
(-2.81352e-30 2.08254e-14 -0)
(7.90797e-31 -6.98412e-15 -6.98412e-15)
(2.31468e-30 -3.54692e-14 -0)
(1.45968e-30 -4.93353e-14 -4.93353e-14)
(-8.5706e-31 7.51762e-15 -0)
(3.51207e-30 -3.35239e-14 -3.35239e-14)
(5.7966e-31 -1.16355e-14 -0)
(-9.33368e-32 -8.05188e-15 -8.05188e-15)
(1.2984e-31 4.22924e-15 0)
)
;

boundaryField
{
    movingWall
    {
        type            calculated;
        value           nonuniform List<vector> 
20
(
(0 1.28369e-11 -0)
(0 -1.00042e-11 -0)
(0 1.38086e-12 -0)
(0 -8.12853e-13 -0)
(0 -2.26198e-13 -0)
(0 -2.79153e-13 -0)
(0 -1.74255e-13 -0)
(0 -1.97796e-13 -0)
(0 -1.09757e-13 -0)
(0 -1.76182e-13 -0)
(0 -1.90578e-13 -0)
(0 -2.01219e-13 -0)
(0 -9.5802e-14 -0)
(0 -5.2773e-14 -0)
(0 -1.28352e-13 -0)
(0 -8.13002e-14 -0)
(0 -5.08278e-14 -0)
(0 7.71823e-14 -0)
(0 8.0766e-14 -0)
(0 4.22924e-15 -0)
)
;
    }
    fixedWalls
    {
        type            calculated;
        value           nonuniform List<vector> 
60
(
(0 -6.96943e-11 -0)
(0 3.19489e-12 -0)
(0 5.03767e-11 -0)
(0 -4.92003e-11 -0)
(0 1.41673e-11 -0)
(0 3.44242e-11 -0)
(0 -5.97023e-11 -0)
(0 2.9307e-11 -0)
(0 1.98486e-11 -0)
(0 -4.76795e-11 -0)
(0 4.98762e-11 -0)
(0 -4.17656e-11 -0)
(0 1.34738e-11 -0)
(0 2.82331e-11 -0)
(0 -6.20233e-11 -0)
(0 4.71401e-11 -0)
(0 2.80702e-12 -0)
(0 -4.61418e-11 -0)
(0 2.37025e-11 -0)
(0 3.17035e-11 -0)
(0 -5.90773e-14 -0)
(0 1.95267e-14 -0)
(0 -3.41764e-14 -0)
(0 -2.4597e-14 -0)
(0 -2.29625e-14 -0)
(0 4.30817e-14 -0)
(0 -1.65442e-14 -0)
(0 -7.06475e-15 -0)
(0 1.18165e-14 -0)
(0 -9.33578e-15 -0)
(0 1.00515e-14 -0)
(0 1.61518e-14 -0)
(0 -7.66706e-15 -0)
(0 1.08424e-15 -0)
(0 4.68276e-15 -0)
(0 2.47633e-14 -0)
(0 -7.57551e-15 -0)
(0 -1.98782e-14 -0)
(0 1.48421e-14 -0)
(0 1.22802e-14 -0)
(0 -2.03096e-11 -0)
(0 1.91115e-11 -0)
(0 -3.45924e-12 -0)
(0 1.27729e-12 -0)
(0 1.38184e-13 -0)
(0 3.72199e-13 -0)
(0 3.39951e-13 -0)
(0 2.29035e-13 -0)
(0 2.33522e-13 -0)
(0 1.96631e-13 -0)
(0 5.05837e-14 -0)
(0 1.22793e-13 -0)
(0 1.28282e-13 -0)
(0 4.62476e-14 -0)
(0 -9.00298e-16 -0)
(0 -8.71717e-14 -0)
(0 -7.81266e-14 -0)
(0 5.23005e-14 -0)
(0 -9.08352e-14 -0)
(0 -9.34168e-14 -0)
)
;
    }
    frontAndBack
    {
        type            empty;
    }
}


// ************************************************************************* //
