/*--------------------------------*- C++ -*----------------------------------*\
| =========                 |                                                 |
| \\      /  F ield         | OpenFOAM: The Open Source CFD Toolbox           |
|  \\    /   O peration     | Version:  2312                                  |
|   \\  /    A nd           | Website:  www.openfoam.com                      |
|    \\/     M anipulation  |                                                 |
\*---------------------------------------------------------------------------*/
FoamFile
{
    version     2.0;
    format      ascii;
    arch        "LSB;label=32;scalar=64";
    class       volScalarField;
    location    "7.25";
    object      magSqrP;
}
// * * * * * * * * * * * * * * * * * * * * * * * * * * * * * * * * * * * * * //

dimensions      [0 4 -4 0 0 0 0];

internalField   nonuniform List<scalar> 
400
(
2.7687e-32
7.17373e-30
3.12757e-31
4.78696e-31
3.41566e-31
3.18535e-31
4.19076e-31
3.46767e-31
1.93718e-31
9.74528e-32
6.97286e-32
4.40179e-32
9.74967e-33
2.71181e-32
4.30745e-32
2.07916e-31
4.43061e-31
3.20288e-31
8.49196e-32
3.66406e-33
2.97335e-30
0
2.81936e-31
1.21635e-31
6.98284e-31
3.06741e-31
2.41335e-31
3.37613e-31
1.33991e-31
9.25825e-32
1.61247e-31
9.71405e-32
8.89371e-34
3.00744e-32
5.61556e-32
1.41885e-31
2.20252e-31
3.68074e-31
1.68168e-31
1.04618e-32
5.0967e-31
4.07053e-30
2.19005e-31
3.50226e-31
3.91677e-31
2.20648e-31
1.75522e-31
4.25626e-31
4.27269e-31
2.71125e-31
2.09285e-31
6.43854e-32
2.99889e-32
1.13331e-32
6.83231e-32
1.21709e-31
1.32658e-31
1.76071e-31
1.51832e-31
1.45244e-31
1.35111e-31
9.62803e-31
3.09042e-31
3.11505e-31
3.50269e-31
2.00168e-31
2.71565e-31
4.93044e-31
2.83622e-31
3.39641e-31
2.81192e-31
3.768e-32
7.76462e-32
1.1629e-31
1.65931e-31
2.33321e-31
1.17063e-31
9.21109e-32
4.83217e-32
1.43542e-31
6.28792e-31
0
4.66363e-31
1.71408e-31
1.04049e-31
1.16994e-31
4.18347e-31
3.45477e-31
2.50241e-31
2.15348e-31
2.31043e-31
1.40988e-31
1.07342e-31
2.20571e-31
1.85923e-31
9.04624e-32
1.88582e-32
4.27249e-32
1.09874e-31
2.87025e-31
0
2.11803e-30
1.96933e-31
6.25478e-31
1.35838e-31
1.57704e-31
3.16727e-31
4.27e-31
2.69364e-31
2.01005e-31
1.27078e-31
9.89595e-32
1.14786e-31
9.61123e-32
9.44564e-32
3.45712e-32
4.72191e-33
1.24583e-32
1.12281e-31
3.89962e-31
7.71555e-32
1.9755e-30
1.41085e-31
4.16288e-31
2.80137e-31
2.76151e-31
2.19612e-31
1.50645e-31
9.49041e-32
1.00591e-31
1.39939e-31
9.67529e-32
8.36238e-32
5.35414e-32
9.77061e-32
2.50228e-32
4.10506e-33
2.25865e-32
8.0662e-32
2.09456e-31
9.518e-31
0
2.20028e-31
2.70656e-31
5.15829e-31
2.01675e-31
1.91839e-31
3.16356e-32
2.19012e-32
5.28551e-32
1.67391e-31
8.72178e-32
1.12222e-31
1.18849e-32
7.86147e-32
2.64758e-32
6.46926e-33
1.10816e-32
3.99345e-32
2.1584e-31
0
1.35692e-29
2.95177e-31
6.43253e-31
2.13288e-31
2.88418e-32
4.80329e-33
2.14551e-32
3.99348e-32
2.83662e-32
0
2.32481e-32
8.76481e-32
1.50481e-31
1.5404e-31
4.11262e-32
3.73254e-32
2.25445e-32
3.33838e-33
2.15157e-31
2.18728e-31
0
4.03083e-31
2.48747e-31
1.49811e-31
1.90075e-32
3.37518e-33
6.70489e-35
0
0
8.88182e-34
1.09955e-32
1.27235e-31
9.46838e-32
2.54967e-32
4.93932e-32
5.73888e-32
3.0034e-32
4.85373e-32
3.56216e-31
5.24202e-31
2.12158e-32
8.16131e-32
1.26544e-31
1.17937e-31
1.38319e-34
0
0
0
1.559e-32
6.20817e-33
0
1.27254e-32
6.90944e-32
1.22511e-33
9.92373e-33
4.07269e-32
5.0679e-32
7.529e-32
3.15253e-31
2.07985e-31
3.76164e-30
3.98754e-32
6.77193e-32
1.04105e-34
0
0
0
0
0
0
0
0
2.87508e-33
5.29086e-34
1.11809e-32
2.56699e-32
3.99374e-32
1.33971e-31
2.92458e-31
5.14296e-31
0
3.93499e-33
0
8.64021e-34
0
0
0
0
0
0
0
2.12474e-33
6.80144e-34
2.90727e-33
5.20194e-33
1.75452e-32
2.06465e-33
1.10885e-31
1.78457e-31
0
7.77424e-30
0
2.55335e-32
0
0
0
0
0
0
0
0
0
0
0
2.66253e-32
5.42197e-32
3.89865e-33
1.29845e-32
1.54901e-31
0
0
0
0
0
0
0
0
0
0
0
0
0
0
0
2.78814e-32
1.95407e-32
1.97823e-34
0
1.38331e-31
0
0
0
0
0
0
0
0
0
0
0
0
0
0
0
7.17509e-33
0
0
9.23303e-33
7.34902e-32
0
3.49661e-30
0
0
0
0
0
0
0
0
0
0
0
0
0
0
0
0
0
1.19252e-31
0
0
0
0
0
0
0
0
0
0
0
0
0
0
0
0
0
0
0
6.9324e-32
0
0
0
0
0
0
0
0
0
0
0
0
0
0
0
0
0
0
0
8.34756e-32
0
5.41229e-31
0
0
0
0
0
0
0
0
0
0
0
0
0
0
0
0
0
3.1038e-32
)
;

boundaryField
{
    movingWall
    {
        type            calculated;
        value           nonuniform List<scalar> 
20
(
0
5.41229e-31
0
0
0
0
0
0
0
0
0
0
0
0
0
0
0
0
0
3.1038e-32
)
;
    }
    fixedWalls
    {
        type            calculated;
        value           nonuniform List<scalar> 
60
(
2.7687e-32
2.97335e-30
5.0967e-31
1.35111e-31
6.28792e-31
0
7.71555e-32
9.518e-31
0
2.18728e-31
5.24202e-31
2.07985e-31
5.14296e-31
0
0
0
0
0
0
0
3.66406e-33
1.04618e-32
1.45244e-31
1.43542e-31
2.87025e-31
3.89962e-31
2.09456e-31
2.1584e-31
2.15157e-31
3.56216e-31
3.15253e-31
2.92458e-31
1.78457e-31
1.54901e-31
1.38331e-31
7.34902e-32
1.19252e-31
6.9324e-32
8.34756e-32
3.1038e-32
2.7687e-32
7.17373e-30
3.12757e-31
4.78696e-31
3.41566e-31
3.18535e-31
4.19076e-31
3.46767e-31
1.93718e-31
9.74528e-32
6.97286e-32
4.40179e-32
9.74967e-33
2.71181e-32
4.30745e-32
2.07916e-31
4.43061e-31
3.20288e-31
8.49196e-32
3.66406e-33
)
;
    }
    frontAndBack
    {
        type            empty;
    }
}


// ************************************************************************* //
