/*--------------------------------*- C++ -*----------------------------------*\
| =========                 |                                                 |
| \\      /  F ield         | OpenFOAM: The Open Source CFD Toolbox           |
|  \\    /   O peration     | Version:  2312                                  |
|   \\  /    A nd           | Website:  www.openfoam.com                      |
|    \\/     M anipulation  |                                                 |
\*---------------------------------------------------------------------------*/
FoamFile
{
    version     2.0;
    format      ascii;
    arch        "LSB;label=32;scalar=64";
    class       volScalarField;
    location    "7.25";
    object      QField;
}
// * * * * * * * * * * * * * * * * * * * * * * * * * * * * * * * * * * * * * //

dimensions      [0 0 -2 0 0 0 0];

internalField   nonuniform List<scalar> 
400
(
-4.46021e-23
-1.38635e-23
-7.79255e-25
4.19889e-26
-1.76525e-26
0
-2.65713e-27
-3.76329e-28
6.22186e-28
7.42149e-28
1.67367e-28
0
0
-1.23125e-27
0
-1.24469e-27
2.40628e-28
0
8.89444e-28
-2.867e-28
-8.04625e-23
-2.36373e-23
-1.53772e-24
-2.7621e-26
4.73317e-27
2.1769e-27
-2.83188e-27
-1.02584e-27
-8.38197e-28
5.26774e-28
-9.42082e-28
-3.14183e-28
-3.93524e-28
2.251e-28
0
2.32149e-28
1.30201e-27
4.1473e-28
4.36682e-28
-1.57336e-27
-7.96159e-23
-2.5888e-23
-9.8884e-25
-8.37664e-26
1.01225e-27
-2.32332e-27
-3.10171e-28
0
-1.75783e-27
1.37774e-27
1.14013e-28
1.0222e-27
0
9.35202e-28
-1.12063e-27
-4.07507e-28
0
0
-6.51371e-28
-6.83484e-29
-7.38962e-23
-2.21823e-23
-8.17341e-25
-8.15183e-26
-1.78742e-26
1.50301e-27
0
1.40481e-27
-5.00028e-28
0
-5.947e-28
-1.14718e-27
5.28958e-28
0
1.0787e-27
1.40927e-27
2.40802e-29
-6.69865e-28
2.58546e-28
0
-6.7601e-23
-1.95585e-23
-9.52569e-25
-3.83298e-26
-6.01218e-27
6.65304e-28
-6.43056e-28
1.82724e-27
2.38209e-28
2.30947e-28
4.85241e-28
-8.31886e-29
-1.41073e-28
2.4103e-28
-4.579e-29
-7.06898e-28
-9.72023e-28
1.63615e-29
3.36186e-28
-2.74937e-28
-6.77857e-23
-2.0426e-23
-8.63793e-25
-4.68408e-26
-1.92932e-27
9.27414e-28
3.62889e-28
-5.14608e-28
3.56553e-28
1.33625e-27
1.00064e-27
8.68092e-28
1.28413e-28
2.94844e-28
-1.22201e-28
-4.05738e-28
-1.57075e-28
-2.5993e-28
2.07213e-28
-2.74306e-29
-4.99828e-23
-1.81514e-23
1.40501e-26
-8.30412e-26
2.5584e-26
-1.09299e-27
3.95752e-27
-6.7611e-28
-2.18271e-27
-1.04306e-27
-4.94129e-28
5.55817e-28
6.08554e-28
-9.96828e-31
-6.05371e-28
6.854e-28
1.81023e-28
-4.37534e-28
0
-1.26298e-28
-1.89558e-23
-7.56636e-24
-4.43037e-25
-3.55024e-27
3.07948e-27
-9.34396e-28
1.37147e-27
-2.16948e-27
-2.4933e-27
7.98604e-28
-1.18377e-27
-1.59406e-27
-2.20077e-29
6.29625e-30
8.14617e-28
-6.83977e-29
2.42659e-28
8.32551e-29
-4.2952e-28
0
-1.0305e-23
-5.54592e-24
-3.63873e-25
9.17101e-27
2.13231e-27
-1.0348e-27
1.4639e-27
4.81473e-28
1.23123e-28
5.9021e-28
-1.11736e-27
1.33691e-27
2.77008e-28
-1.19369e-27
-2.63385e-28
2.39802e-28
0
-6.08011e-28
-9.43551e-28
-5.80021e-30
-2.3603e-24
-4.85273e-24
2.28114e-25
4.89859e-27
3.57466e-27
-1.89333e-28
-2.77665e-28
-1.99058e-27
-8.6978e-29
-2.49789e-28
1.05328e-27
1.28046e-27
9.03493e-29
0
-7.66967e-29
1.33119e-27
2.2337e-28
-3.25997e-28
0
-1.71711e-28
7.65858e-24
1.53163e-24
2.61526e-25
4.75567e-26
3.04734e-27
-5.90264e-28
1.3094e-28
3.55539e-27
1.80303e-27
-1.38854e-27
-2.18286e-28
-1.72097e-27
2.31402e-28
7.39961e-28
-4.23724e-28
-1.84566e-28
-3.45343e-28
0
-2.57955e-28
0
2.95934e-24
-6.45479e-27
1.51813e-25
6.38447e-27
-5.96161e-27
-1.1874e-27
-2.59636e-27
1.54844e-27
-6.95145e-28
-1.42045e-28
1.4078e-27
2.88602e-28
0
2.26254e-28
-2.95556e-29
3.15075e-28
0
-7.46429e-29
-4.08675e-28
-6.36051e-29
1.37278e-24
-1.50717e-24
-9.73343e-26
6.57047e-27
0
0
4.57737e-28
-3.93842e-28
-1.52672e-27
4.73267e-28
-4.40136e-28
-3.25597e-28
-4.40966e-28
1.02316e-28
0
-1.36045e-28
0
1.33027e-27
5.99993e-29
-3.8219e-28
-1.1319e-23
-6.02363e-24
-1.4022e-25
-1.64721e-26
5.28952e-27
-9.40568e-28
1.93355e-27
-1.98887e-28
1.2035e-27
-5.31077e-28
0
1.55576e-28
4.09119e-28
6.73292e-28
4.85074e-29
-2.19476e-28
-1.21188e-27
9.44296e-29
0
0
-4.43069e-23
-1.49544e-23
-8.48089e-26
2.35779e-27
-5.04599e-27
-5.83997e-28
0
-1.74987e-27
0
4.80448e-30
7.01426e-28
7.45348e-28
4.14777e-28
-4.58753e-28
-1.3628e-28
-2.09409e-28
9.49164e-29
1.62349e-27
-7.37782e-28
2.32154e-29
-6.47313e-23
-1.83472e-23
-7.77611e-25
8.78903e-27
-1.69945e-26
1.05477e-27
-1.18306e-27
-7.21138e-28
-1.32057e-27
0
-5.17818e-28
-3.30261e-29
7.25268e-28
-1.01203e-27
-9.93622e-28
-7.45492e-29
-1.20283e-27
-1.25422e-28
-1.1235e-28
-1.37885e-28
-6.43812e-23
-1.77598e-23
-1.17704e-24
-5.22796e-27
-1.53602e-27
1.73682e-27
5.52566e-28
-4.961e-28
-1.32105e-27
-5.29943e-29
1.30295e-28
6.13512e-28
2.055e-27
1.95167e-29
0
-2.04507e-28
5.06582e-29
2.14511e-28
9.48015e-29
-6.48392e-29
-6.75844e-23
-2.008e-23
-6.54309e-25
-3.37276e-26
-1.5877e-26
1.36332e-27
-5.11151e-27
-1.40892e-27
0
-6.00358e-28
1.33434e-28
1.76446e-27
-5.21592e-28
-1.3927e-28
-3.87808e-28
-1.44722e-27
2.04794e-28
-4.01315e-28
-1.92855e-28
-2.17553e-29
-6.5781e-23
-1.96232e-23
-5.62234e-25
-8.08844e-26
1.03746e-26
8.27178e-28
4.93245e-30
-1.26609e-27
-9.26117e-28
-2.07646e-27
-1.5288e-27
-1.75962e-27
-5.6726e-28
-5.25663e-28
1.03207e-27
-6.16328e-28
-3.51967e-28
3.25399e-28
2.52537e-28
0
-2.91098e-23
-7.93865e-24
-6.6112e-25
2.23981e-26
-1.14527e-26
6.58644e-28
-1.11354e-27
6.26247e-28
1.13512e-27
-4.11257e-28
5.75318e-29
-6.34093e-28
-7.35866e-28
4.10372e-28
-2.64263e-28
-6.30551e-28
-4.06008e-28
-6.91263e-28
-1.21577e-28
0
)
;

boundaryField
{
    movingWall
    {
        type            calculated;
        value           nonuniform List<scalar> 
20
(
5.46489e-24
4.15153e-24
-1.27719e-24
1.65137e-25
-3.10686e-26
3.42694e-27
-1.59832e-27
3.25776e-27
1.85978e-27
-2.20506e-27
-8.01729e-27
-6.08893e-27
-1.83493e-27
1.07898e-27
-6.49453e-28
-1.90376e-27
-8.50788e-28
-2.1137e-27
-9.6651e-28
0
)
;
    }
    fixedWalls
    {
        type            calculated;
        value           nonuniform List<scalar> 
60
(
-2.43407e-22
-4.43695e-22
-4.11305e-22
-3.83145e-22
-3.60702e-22
-3.58029e-22
-2.56528e-22
-1.22379e-22
-7.09607e-23
-1.20286e-23
3.79969e-23
1.4033e-23
-1.08524e-23
-7.53025e-23
-2.26623e-22
-3.33257e-22
-3.41057e-22
-3.49385e-22
-3.41565e-22
-1.60558e-22
-6.14347e-28
-2.53098e-27
0
0
0
6.08641e-29
-2.86252e-28
0
-3.89184e-28
-2.81332e-28
-2.82969e-28
-1.04211e-28
-5.26868e-28
0
3.80362e-29
-6.34733e-29
-2.12465e-28
-1.95883e-28
0
0
1.26276e-23
1.04384e-23
-2.41004e-24
3.27656e-25
-7.7125e-26
6.01392e-27
-1.05486e-26
-5.36405e-28
2.54847e-27
1.68563e-27
2.74214e-28
-1.39e-27
-6.58732e-28
-1.34012e-27
0
-1.7632e-27
2.82463e-29
3.50456e-28
9.12572e-28
1.44619e-28
)
;
    }
    frontAndBack
    {
        type            empty;
    }
}


// ************************************************************************* //
