/*--------------------------------*- C++ -*----------------------------------*\
| =========                 |                                                 |
| \\      /  F ield         | OpenFOAM: The Open Source CFD Toolbox           |
|  \\    /   O peration     | Version:  2312                                  |
|   \\  /    A nd           | Website:  www.openfoam.com                      |
|    \\/     M anipulation  |                                                 |
\*---------------------------------------------------------------------------*/
FoamFile
{
    version     2.0;
    format      ascii;
    arch        "LSB;label=32;scalar=64";
    class       volVectorField;
    location    "7.25";
    object      U;
}
// * * * * * * * * * * * * * * * * * * * * * * * * * * * * * * * * * * * * * //

dimensions      [0 1 -1 0 0 0 0];

internalField   nonuniform List<vector> 
400
(
(-1 1.78979e-13 0)
(-1 -3.89443e-14 0)
(-1 9.18089e-15 0)
(-1 -2.13143e-15 0)
(-1 4.04742e-16 0)
(-1 3.94436e-17 0)
(-1 2.35465e-16 0)
(-1 1.92644e-16 0)
(-1 1.65558e-16 0)
(-1 7.78707e-17 0)
(-1 -2.43911e-17 0)
(-1 1.61232e-17 0)
(-1 7.99419e-17 0)
(-1 6.55676e-17 0)
(-1 6.15551e-17 0)
(-1 7.45706e-17 0)
(-1 4.5094e-17 0)
(-1 -3.2342e-17 0)
(-1 -3.38217e-17 0)
(-1 -1.2168e-17 0)
(-1 -8.3938e-15 0)
(-1 2.4172e-15 0)
(-1 -4.1569e-16 0)
(-1 7.03302e-17 0)
(-1 -5.91383e-17 0)
(-1 1.10871e-16 0)
(-1 1.01489e-16 0)
(-1 1.61039e-17 0)
(-1 -2.46672e-17 0)
(-1 7.01511e-17 0)
(-1 5.64821e-17 0)
(-1 6.89629e-17 0)
(-1 7.77851e-17 0)
(-1 1.70751e-16 0)
(-1 1.60832e-16 0)
(-1 1.38572e-16 0)
(-1 1.06207e-16 0)
(-1 -2.15466e-17 0)
(-1 -1.30252e-16 0)
(-1 -8.67085e-17 0)
(-1 -1.39833e-13 0)
(-1 3.05204e-14 0)
(-1 -7.29785e-15 0)
(-1 1.6219e-15 0)
(-1 -3.67023e-16 0)
(-1 4.70366e-17 0)
(-1 -9.739e-17 0)
(-1 -6.30203e-17 0)
(-1 -9.58477e-18 0)
(-1 5.33195e-17 0)
(-1 1.4761e-16 0)
(-1 9.53827e-17 0)
(-1 -9.44382e-17 0)
(-1 -3.43938e-17 0)
(-1 7.80761e-17 0)
(-1 8.63723e-17 0)
(-1 1.07197e-16 0)
(-1 4.41622e-17 0)
(-1 -8.17943e-17 0)
(-1 -8.54409e-17 0)
(-1 1.36689e-13 0)
(-1 -3.08485e-14 0)
(-1 7.00815e-15 0)
(-1 -1.52018e-15 0)
(-1 5.41567e-16 0)
(-1 -4.80724e-17 0)
(-1 -1.2944e-17 0)
(-1 1.11743e-16 0)
(-1 1.91507e-16 0)
(-1 3.34403e-17 0)
(-1 -4.75733e-17 0)
(-1 -3.80092e-17 0)
(-1 -5.93534e-17 0)
(-1 -1.35585e-16 0)
(-1 -4.58867e-17 0)
(-1 6.34005e-17 0)
(-1 1.04027e-16 0)
(-1 6.63618e-17 0)
(-1 -1.95413e-17 0)
(-1 -6.14924e-17 0)
(-1 -3.83999e-14 0)
(-1 8.71327e-15 0)
(-1 -1.95078e-15 0)
(-1 5.69747e-16 0)
(-1 1.77507e-16 0)
(-1 1.84587e-16 0)
(-1 7.09646e-17 0)
(-1 -1.54854e-17 0)
(-1 -6.26723e-17 0)
(-1 -4.47799e-17 0)
(-1 -7.17956e-17 0)
(-1 -1.04454e-16 0)
(-1 -2.8799e-17 0)
(-1 -3.21254e-17 0)
(-1 -8.25539e-17 0)
(-1 -2.36787e-17 0)
(-1 -3.10829e-17 0)
(-1 -2.20348e-17 0)
(-1 -3.4101e-17 0)
(-1 -5.74062e-17 0)
(-1 -9.27689e-14 0)
(-1 2.01172e-14 0)
(-1 -4.85388e-15 0)
(-1 9.50978e-16 0)
(-1 -2.05538e-16 0)
(-1 2.39185e-16 0)
(-1 3.99593e-16 0)
(-1 3.73068e-16 0)
(-1 2.05895e-16 0)
(-1 9.12748e-17 0)
(-1 -4.64356e-18 0)
(-1 -9.33112e-17 0)
(-1 -1.114e-16 0)
(-1 -1.16999e-16 0)
(-1 -1.47659e-16 0)
(-1 -9.4457e-17 0)
(-1 -7.28139e-17 0)
(-1 -3.65066e-17 0)
(-1 3.37466e-17 0)
(-1 3.99416e-17 0)
(-1 1.59556e-13 0)
(-1 -3.50337e-14 0)
(-1 8.06176e-15 0)
(-1 -1.95682e-15 0)
(-1 2.91551e-16 0)
(-1 -7.83881e-17 0)
(-1 1.9074e-16 0)
(-1 3.68069e-16 0)
(-1 2.94244e-16 0)
(-1 9.38458e-17 0)
(-1 -9.05766e-17 0)
(-1 -8.84558e-17 0)
(-1 -2.22232e-17 0)
(-1 2.77058e-17 0)
(-1 -2.23458e-17 0)
(-1 7.07669e-18 0)
(-1 6.1672e-17 0)
(-1 7.38626e-17 0)
(-1 2.01936e-17 0)
(-1 2.64021e-17 0)
(-1 -7.70622e-14 0)
(-1 1.67694e-14 0)
(-1 -3.98996e-15 0)
(-1 8.39971e-16 0)
(-1 -1.58882e-16 0)
(-1 1.53016e-16 0)
(-1 1.34833e-17 0)
(-1 -6.21661e-17 0)
(-1 -5.09361e-17 0)
(-1 3.11338e-17 0)
(-1 9.63803e-17 0)
(-1 -2.89641e-17 0)
(-1 -1.19206e-16 0)
(-1 -1.11434e-16 0)
(-1 -5.66172e-17 0)
(-1 -1.12538e-17 0)
(-1 4.34641e-17 0)
(-1 1.24915e-16 0)
(-1 8.83403e-17 0)
(-1 -1.76619e-17 0)
(-1 -5.3213e-14 0)
(-1 1.13188e-14 0)
(-1 -2.83504e-15 0)
(-1 5.64441e-16 0)
(-1 -1.5762e-16 0)
(-1 4.97913e-17 0)
(-1 4.53391e-17 0)
(-1 -6.43387e-17 0)
(-1 -4.3477e-17 0)
(-1 1.76217e-17 0)
(-1 9.77409e-17 0)
(-1 6.8476e-17 0)
(-1 -1.81635e-17 0)
(-1 -3.37218e-17 0)
(-1 -9.34731e-18 0)
(-1 -1.18239e-16 0)
(-1 -9.78186e-17 0)
(-1 1.48259e-17 0)
(-1 3.60815e-17 0)
(-1 -3.82214e-17 0)
(-1 1.20622e-13 0)
(-1 -2.61935e-14 0)
(-1 6.33662e-15 0)
(-1 -1.34461e-15 0)
(-1 2.34459e-16 0)
(-1 -2.57987e-17 0)
(-1 2.11176e-16 0)
(-1 1.54633e-16 0)
(-1 8.31216e-18 0)
(-1 -7.77408e-17 0)
(-1 -4.10311e-17 0)
(-1 1.16554e-16 0)
(-1 1.16438e-16 0)
(-1 1.08763e-16 0)
(-1 6.02905e-17 0)
(-1 -5.8197e-17 0)
(-1 -1.03417e-16 0)
(-1 -9.94015e-17 0)
(-1 -8.57141e-17 0)
(-1 -2.33395e-17 0)
(-1 -1.22725e-13 0)
(-1 2.70123e-14 0)
(-1 -6.03921e-15 0)
(-1 1.46807e-15 0)
(-1 -1.90759e-16 0)
(-1 2.53494e-16 0)
(-1 1.86775e-16 0)
(-1 6.1467e-17 0)
(-1 -7.55662e-17 0)
(-1 -2.84562e-17 0)
(-1 -1.09659e-17 0)
(-1 -2.401e-17 0)
(-1 -3.87258e-17 0)
(-1 -1.09382e-16 0)
(-1 -1.06975e-16 0)
(-1 -4.74752e-17 0)
(-1 -3.88825e-17 0)
(-1 -7.00396e-17 0)
(-1 -5.83664e-17 0)
(-1 2.51289e-17 0)
(-1 1.04007e-13 0)
(-1 -2.25215e-14 0)
(-1 5.19844e-15 0)
(-1 -1.18937e-15 0)
(-1 2.79613e-16 0)
(-1 -1.34683e-16 0)
(-1 -1.24569e-16 0)
(-1 2.351e-17 0)
(-1 1.61066e-16 0)
(-1 1.46099e-16 0)
(-1 3.06098e-17 0)
(-1 -1.13594e-16 0)
(-1 -7.58656e-17 0)
(-1 -1.78454e-17 0)
(-1 -3.41292e-17 0)
(-1 -2.32974e-17 0)
(-1 2.39919e-17 0)
(-1 6.89955e-17 0)
(-1 3.7761e-17 0)
(-1 4.03795e-17 0)
(-1 -3.65982e-14 0)
(-1 7.72682e-15 0)
(-1 -2.04545e-15 0)
(-1 2.90345e-16 0)
(-1 -2.20783e-16 0)
(-1 -1.8458e-16 0)
(-1 -2.37983e-16 0)
(-1 -1.0811e-16 0)
(-1 5.26655e-17 0)
(-1 1.54406e-16 0)
(-1 1.39968e-16 0)
(-1 2.71033e-17 0)
(-1 1.98437e-17 0)
(-1 -3.87901e-18 0)
(-1 -3.80011e-17 0)
(-1 -6.2248e-17 0)
(-1 -4.7412e-17 0)
(-1 2.64592e-17 0)
(-1 9.24081e-17 0)
(-1 4.8595e-17 0)
(-1 -7.07861e-14 0)
(-1 1.52328e-14 0)
(-1 -3.77906e-15 0)
(-1 7.85149e-16 0)
(-1 -2.19288e-16 0)
(-1 -4.0351e-17 0)
(-1 -1.32536e-16 0)
(-1 -2.1869e-16 0)
(-1 -1.14192e-16 0)
(-1 5.59541e-17 0)
(-1 6.5689e-17 0)
(-1 4.94511e-17 0)
(-1 -1.00129e-17 0)
(-1 -5.55932e-17 0)
(-1 -7.00959e-17 0)
(-1 -7.34893e-17 0)
(-1 1.08764e-17 0)
(-1 3.4747e-17 0)
(-1 4.57148e-17 0)
(-1 2.7106e-18 0)
(-1 1.63867e-13 0)
(-1 -3.6037e-14 0)
(-1 8.28542e-15 0)
(-1 -2.01076e-15 0)
(-1 3.04227e-16 0)
(-1 -1.49122e-16 0)
(-1 -2.91535e-17 0)
(-1 -3.86359e-17 0)
(-1 -3.20191e-17 0)
(-1 -4.15273e-17 0)
(-1 -3.27455e-17 0)
(-1 4.54078e-17 0)
(-1 6.57377e-17 0)
(-1 1.24356e-16 0)
(-1 4.6943e-17 0)
(-1 7.40775e-17 0)
(-1 1.76141e-16 0)
(-1 8.7574e-17 0)
(-1 -3.37475e-17 0)
(-1 1.17069e-17 0)
(-1 -1.25101e-13 0)
(-1 2.71969e-14 0)
(-1 -6.51638e-15 0)
(-1 1.22008e-15 0)
(-1 -3.11378e-16 0)
(-1 1.75106e-16 0)
(-1 5.10758e-17 0)
(-1 1.01239e-16 0)
(-1 9.58522e-17 0)
(-1 5.77266e-17 0)
(-1 6.77136e-17 0)
(-1 3.92187e-17 0)
(-1 7.38059e-17 0)
(-1 3.84776e-17 0)
(-1 -3.06096e-17 0)
(-1 2.9739e-17 0)
(-1 2.85146e-18 0)
(-1 4.04251e-18 0)
(-1 -4.50164e-17 0)
(-1 -5.85438e-18 0)
(-1 -1.4878e-14 0)
(-1 3.16242e-15 0)
(-1 -7.99677e-16 0)
(-1 2.81093e-16 0)
(-1 5.14654e-17 0)
(-1 1.86645e-16 0)
(-1 2.59586e-16 0)
(-1 2.27417e-16 0)
(-1 1.68071e-16 0)
(-1 1.64583e-16 0)
(-1 1.58296e-16 0)
(-1 2.27936e-17 0)
(-1 -6.80506e-17 0)
(-1 -1.66747e-16 0)
(-1 -7.5251e-17 0)
(-1 8.78294e-17 0)
(-1 -7.14382e-17 0)
(-1 -6.56646e-18 0)
(-1 7.70232e-18 0)
(-1 -1.89388e-17 0)
(-1 1.32295e-13 0)
(-1 -2.87909e-14 0)
(-1 6.8061e-15 0)
(-1 -1.44659e-15 0)
(-1 2.13496e-16 0)
(-1 -2.24721e-16 0)
(-1 -3.79915e-17 0)
(-1 -4.79625e-17 0)
(-1 -1.47838e-16 0)
(-1 -1.952e-16 0)
(-1 -1.20936e-16 0)
(-1 9.57568e-17 0)
(-1 9.60541e-17 0)
(-1 2.23076e-17 0)
(-1 4.46724e-17 0)
(-1 1.05189e-16 0)
(-1 -1.58381e-17 0)
(-1 -5.30839e-17 0)
(-1 -1.00408e-17 0)
(-1 1.8067e-17 0)
(-1 -6.19668e-14 0)
(-1 1.32562e-14 0)
(-1 -3.15063e-15 0)
(-1 5.28408e-16 0)
(-1 -2.00318e-16 0)
(-1 -1.41965e-16 0)
(-1 -2.51181e-16 0)
(-1 -1.42329e-16 0)
(-1 -2.66965e-17 0)
(-1 -5.69098e-17 0)
(-1 -1.16252e-16 0)
(-1 -9.8839e-17 0)
(-1 -2.25154e-17 0)
(-1 -2.50052e-18 0)
(-1 -3.713e-18 0)
(-1 -1.18625e-16 0)
(-1 -1.09216e-16 0)
(-1 -7.76973e-17 0)
(-1 1.08352e-17 0)
(-1 3.71053e-17 0)
(-1 -8.44088e-14 0)
(-1 1.8212e-14 0)
(-1 -4.35076e-15 0)
(-1 8.50623e-16 0)
(-1 -2.19033e-16 0)
(-1 3.9767e-18 0)
(-1 -9.20379e-17 0)
(-1 -2.98253e-17 0)
(-1 1.09561e-16 0)
(-1 1.79567e-16 0)
(-1 9.50264e-17 0)
(-1 -1.351e-16 0)
(-1 -1.13228e-16 0)
(-1 -6.52589e-17 0)
(-1 -2.95869e-17 0)
(-1 -1.14007e-16 0)
(-1 -1.04763e-16 0)
(-1 -4.98183e-17 0)
(-1 1.15919e-17 0)
(-1 3.07005e-17 0)
)
;

boundaryField
{
    movingWall
    {
        type            fixedValue;
        value           uniform (-1 -0 -0);
    }
    fixedWalls
    {
        type            noSlip;
    }
    frontAndBack
    {
        type            empty;
    }
}


// ************************************************************************* //
