/*--------------------------------*- C++ -*----------------------------------*\
| =========                 |                                                 |
| \\      /  F ield         | OpenFOAM: The Open Source CFD Toolbox           |
|  \\    /   O peration     | Version:  2312                                  |
|   \\  /    A nd           | Website:  www.openfoam.com                      |
|    \\/     M anipulation  |                                                 |
\*---------------------------------------------------------------------------*/
FoamFile
{
    version     2.0;
    format      ascii;
    arch        "LSB;label=32;scalar=64";
    class       volVectorField;
    location    "7.25";
    object      vorticityField;
}
// * * * * * * * * * * * * * * * * * * * * * * * * * * * * * * * * * * * * * //

dimensions      [0 0 -1 0 0 0 0];

internalField   nonuniform List<vector> 
400
(
(0 -0 1.21061e-11)
(0 -0 -1.6519e-11)
(0 -0 3.57286e-12)
(0 -0 -9.31825e-13)
(0 -0 1.35772e-13)
(0 -0 -1.69277e-14)
(0 -0 -3.88901e-14)
(0 -0 -3.40957e-14)
(0 -0 -6.56874e-14)
(0 -0 -1.0031e-13)
(0 -0 -3.32798e-14)
(0 -0 1.04333e-14)
(0 -0 4.94444e-15)
(0 -0 -2.89437e-14)
(0 -0 9.00298e-16)
(0 -0 5.2564e-14)
(0 -0 4.35188e-14)
(0 -0 -7.89157e-15)
(0 -0 2.01739e-15)
(0 -0 5.88091e-14)
(0 -0 -4.3503e-13)
(0 -0 9.06232e-13)
(0 -0 -1.53372e-13)
(0 -0 1.1697e-13)
(0 -0 1.39579e-13)
(0 -0 1.51588e-13)
(0 -0 9.89435e-14)
(0 -0 6.86996e-14)
(0 -0 1.13825e-13)
(0 -0 8.94301e-14)
(0 -0 8.11963e-14)
(0 -0 5.63404e-14)
(0 -0 6.43889e-14)
(0 -0 3.54098e-14)
(0 -0 -3.21784e-15)
(0 -0 -5.96727e-14)
(0 -0 -9.7327e-14)
(0 -0 -2.36458e-14)
(0 -0 -3.36212e-14)
(0 -0 -3.25141e-14)
(0 -0 -5.37474e-12)
(0 -0 1.17357e-11)
(0 -0 -2.67301e-12)
(0 -0 5.84663e-13)
(0 -0 -1.84591e-13)
(0 -0 -2.72468e-14)
(0 -0 -1.10057e-14)
(0 -0 8.78052e-15)
(0 -0 1.1634e-14)
(0 -0 9.70346e-14)
(0 -0 3.13114e-14)
(0 -0 -7.84149e-14)
(0 -0 -1.29777e-14)
(0 -0 7.14615e-14)
(0 -0 1.20766e-14)
(0 -0 2.91212e-15)
(0 -0 -4.22101e-15)
(0 -0 -1.88992e-14)
(0 -0 1.41447e-14)
(0 -0 1.67235e-14)
(0 -0 5.10881e-12)
(0 -0 -1.15857e-11)
(0 -0 2.7431e-12)
(0 -0 -5.38238e-13)
(0 -0 6.58953e-14)
(0 -0 -8.25562e-14)
(0 -0 1.59816e-14)
(0 -0 1.0176e-13)
(0 -0 1.92748e-14)
(0 -0 -2.39081e-14)
(0 -0 -7.14495e-15)
(0 -0 5.30321e-14)
(0 -0 -6.39677e-14)
(0 -0 1.34667e-15)
(0 -0 7.41086e-14)
(0 -0 6.92015e-14)
(0 -0 8.16113e-14)
(0 -0 4.18533e-14)
(0 -0 -1.27854e-14)
(0 -0 8.10337e-15)
(0 -0 -1.77604e-12)
(0 -0 3.31965e-12)
(0 -0 -8.68562e-13)
(0 -0 1.58618e-13)
(0 -0 -9.27261e-14)
(0 -0 -1.4618e-13)
(0 -0 -1.55533e-13)
(0 -0 -2.03099e-13)
(0 -0 -8.42446e-14)
(0 -0 -8.22275e-14)
(0 -0 -8.72826e-14)
(0 -0 -4.99104e-14)
(0 -0 7.23286e-15)
(0 -0 -5.95856e-14)
(0 -0 -5.33654e-14)
(0 -0 -4.9063e-14)
(0 -0 -8.11508e-14)
(0 -0 -5.45119e-14)
(0 -0 -5.77472e-14)
(0 -0 9.15072e-15)
(0 -0 -4.58177e-12)
(0 -0 8.05966e-12)
(0 -0 -1.86241e-12)
(0 -0 4.37729e-13)
(0 -0 -4.40742e-14)
(0 -0 8.76181e-14)
(0 -0 4.04933e-14)
(0 -0 -4.64748e-14)
(0 -0 -1.09494e-13)
(0 -0 -1.02369e-13)
(0 -0 -7.26687e-14)
(0 -0 -9.19908e-14)
(0 -0 -5.65789e-14)
(0 -0 -8.49411e-14)
(0 -0 -5.19559e-14)
(0 -0 -4.67256e-14)
(0 -0 -2.131e-14)
(0 -0 1.0656e-14)
(0 -0 3.47499e-14)
(0 -0 -3.44739e-14)
(0 -0 8.33222e-12)
(0 -0 -1.39297e-11)
(0 -0 3.30769e-12)
(0 -0 -6.68601e-13)
(0 -0 3.23369e-13)
(0 -0 9.83391e-14)
(0 -0 1.80171e-13)
(0 -0 1.72981e-13)
(0 -0 2.67878e-14)
(0 -0 -1.13771e-14)
(0 -0 8.87489e-15)
(0 -0 8.81505e-14)
(0 -0 6.58263e-14)
(0 -0 8.13029e-14)
(0 -0 5.21472e-14)
(0 -0 1.16822e-13)
(0 -0 3.37836e-14)
(0 -0 -4.14784e-15)
(0 -0 -4.74605e-15)
(0 -0 2.24455e-14)
(0 -0 -4.51139e-12)
(0 -0 6.87354e-12)
(0 -0 -1.59294e-12)
(0 -0 3.56002e-13)
(0 -0 -9.58005e-14)
(0 -0 -3.69735e-14)
(0 -0 -4.86232e-14)
(0 -0 -3.3547e-14)
(0 -0 3.6435e-14)
(0 -0 6.89417e-14)
(0 -0 2.10953e-14)
(0 -0 3.26515e-14)
(0 -0 -8.24699e-15)
(0 -0 6.0469e-14)
(0 -0 9.13332e-14)
(0 -0 3.71132e-14)
(0 -0 9.4932e-14)
(0 -0 5.86977e-14)
(0 -0 1.28474e-14)
(0 -0 -7.06784e-15)
(0 -0 -2.75286e-12)
(0 -0 4.46859e-12)
(0 -0 -1.07543e-12)
(0 -0 2.13532e-13)
(0 -0 -5.14649e-14)
(0 -0 -6.80911e-15)
(0 -0 -9.27282e-14)
(0 -0 -6.30917e-14)
(0 -0 6.24062e-14)
(0 -0 1.41218e-14)
(0 -0 5.08543e-15)
(0 -0 -9.29056e-14)
(0 -0 -3.73248e-14)
(0 -0 8.8162e-16)
(0 -0 -8.97669e-14)
(0 -0 -3.59522e-14)
(0 -0 1.33065e-14)
(0 -0 1.339e-14)
(0 -0 -5.30473e-15)
(0 -0 -2.68911e-14)
(0 -0 8.87361e-12)
(0 -0 -1.09406e-11)
(0 -0 2.5662e-12)
(0 -0 -6.10216e-13)
(0 -0 1.58987e-13)
(0 -0 7.89868e-14)
(0 -0 4.51482e-14)
(0 -0 6.10288e-14)
(0 -0 -2.32373e-14)
(0 -0 -4.93433e-15)
(0 -0 7.36396e-14)
(0 -0 9.70621e-14)
(0 -0 2.63259e-14)
(0 -0 -5.61476e-15)
(0 -0 -4.3801e-14)
(0 -0 -9.76859e-14)
(0 -0 -5.83306e-14)
(0 -0 -5.24398e-14)
(0 -0 7.6062e-15)
(0 -0 1.09054e-14)
(0 -0 -1.03573e-11)
(0 -0 1.18041e-11)
(0 -0 -2.66285e-12)
(0 -0 6.6616e-13)
(0 -0 -1.48563e-13)
(0 -0 3.77534e-14)
(0 -0 -7.34128e-14)
(0 -0 -1.61759e-13)
(0 -0 -1.17413e-13)
(0 -0 -2.0645e-14)
(0 -0 -5.37655e-14)
(0 -0 -5.69861e-14)
(0 -0 -3.56423e-14)
(0 -0 -1.15245e-13)
(0 -0 -2.09144e-14)
(0 -0 -2.02958e-14)
(0 -0 -2.25644e-15)
(0 -0 -1.94838e-15)
(0 -0 -1.75882e-14)
(0 -0 3.32375e-15)
(0 -0 8.31122e-12)
(0 -0 -9.8538e-12)
(0 -0 2.21453e-12)
(0 -0 -4.91883e-13)
(0 -0 5.12586e-14)
(0 -0 -4.04182e-14)
(0 -0 7.00294e-14)
(0 -0 8.27737e-14)
(0 -0 1.22589e-14)
(0 -0 -4.01507e-14)
(0 -0 -8.01794e-14)
(0 -0 -3.77526e-14)
(0 -0 9.57483e-15)
(0 -0 5.83838e-14)
(0 -0 5.36649e-14)
(0 -0 6.00222e-14)
(0 -0 9.22929e-15)
(0 -0 -5.28332e-14)
(0 -0 -2.8616e-15)
(0 -0 -7.81406e-15)
(0 -0 -1.72162e-12)
(0 -0 3.0487e-12)
(0 -0 -7.43648e-13)
(0 -0 1.01151e-13)
(0 -0 -4.74925e-14)
(0 -0 -1.72002e-15)
(0 -0 6.18572e-14)
(0 -0 8.3275e-14)
(0 -0 5.33566e-14)
(0 -0 6.29403e-14)
(0 -0 1.43748e-14)
(0 -0 1.50926e-14)
(0 -0 2.40068e-14)
(0 -0 -5.78448e-15)
(0 -0 -5.8369e-15)
(0 -0 -9.41089e-16)
(0 -0 8.87072e-15)
(0 -0 1.22402e-13)
(0 -0 2.93186e-14)
(0 -0 1.30047e-14)
(0 -0 -5.47401e-12)
(0 -0 6.45676e-12)
(0 -0 -1.58029e-12)
(0 -0 2.74662e-13)
(0 -0 -1.63865e-13)
(0 -0 -9.9745e-14)
(0 -0 -1.26254e-13)
(0 -0 -1.06586e-13)
(0 -0 5.45695e-14)
(0 -0 1.79881e-14)
(0 -0 -6.50303e-16)
(0 -0 -3.46752e-14)
(0 -0 -3.76095e-14)
(0 -0 -6.02184e-14)
(0 -0 -2.88947e-14)
(0 -0 -1.90078e-14)
(0 -0 1.08236e-14)
(0 -0 3.05889e-14)
(0 -0 -3.20364e-15)
(0 -0 -4.84254e-15)
(0 -0 9.25937e-12)
(0 -0 -1.45824e-11)
(0 -0 3.37552e-12)
(0 -0 -7.98119e-13)
(0 -0 1.59059e-13)
(0 -0 -3.33381e-14)
(0 -0 1.10486e-14)
(0 -0 5.39236e-14)
(0 -0 -2.8914e-16)
(0 -0 -7.26413e-17)
(0 -0 9.00087e-14)
(0 -0 9.11635e-14)
(0 -0 8.921e-14)
(0 -0 1.06541e-13)
(0 -0 2.20772e-14)
(0 -0 4.00249e-14)
(0 -0 5.55598e-14)
(0 -0 -1.02304e-13)
(0 -0 -7.58671e-15)
(0 -0 2.20406e-15)
(0 -0 -6.89016e-12)
(0 -0 1.11266e-11)
(0 -0 -2.51637e-12)
(0 -0 6.7471e-13)
(0 -0 5.81325e-14)
(0 -0 9.04555e-14)
(0 -0 4.68235e-14)
(0 -0 4.47764e-15)
(0 -0 4.98588e-14)
(0 -0 -2.81385e-15)
(0 -0 -1.8508e-15)
(0 -0 -5.36009e-14)
(0 -0 -7.41039e-17)
(0 -0 -6.46517e-14)
(0 -0 -8.73865e-16)
(0 -0 3.34611e-15)
(0 -0 -5.67798e-14)
(0 -0 -3.18918e-14)
(0 -0 -9.89689e-16)
(0 -0 -2.2018e-14)
(0 -0 1.97263e-12)
(0 -0 8.65732e-13)
(0 -0 3.7128e-14)
(0 -0 1.93534e-13)
(0 -0 1.53185e-13)
(0 -0 1.56337e-13)
(0 -0 1.39602e-13)
(0 -0 4.50587e-14)
(0 -0 -6.28338e-15)
(0 -0 5.32325e-14)
(0 -0 -9.54941e-14)
(0 -0 -4.97397e-14)
(0 -0 -1.27374e-13)
(0 -0 -2.78251e-14)
(0 -0 2.54576e-14)
(0 -0 3.81276e-16)
(0 -0 -9.43958e-15)
(0 -0 3.50191e-14)
(0 -0 -1.23723e-15)
(0 -0 1.12365e-15)
(0 -0 3.57415e-12)
(0 -0 -1.09226e-11)
(0 -0 2.49049e-12)
(0 -0 -6.05051e-13)
(0 -0 -1.33384e-14)
(0 -0 -7.93589e-14)
(0 -0 -3.65343e-14)
(0 -0 -6.51947e-14)
(0 -0 -1.47237e-14)
(0 -0 2.69018e-15)
(0 -0 1.10411e-13)
(0 -0 1.03014e-13)
(0 -0 4.68652e-14)
(0 -0 2.19669e-14)
(0 -0 8.2881e-15)
(0 -0 4.81591e-14)
(0 -0 -1.58273e-14)
(0 -0 -2.65253e-14)
(0 -0 -1.999e-14)
(0 -0 2.63024e-14)
(0 -0 -3.78686e-12)
(0 -0 5.33952e-12)
(0 -0 -1.54383e-12)
(0 -0 1.05296e-13)
(0 -0 -2.56773e-13)
(0 -0 -1.67717e-13)
(0 -0 -1.35562e-13)
(0 -0 -3.17617e-14)
(0 -0 -9.98783e-14)
(0 -0 -1.17376e-13)
(0 -0 -5.8403e-14)
(0 -0 -4.48365e-14)
(0 -0 9.63384e-15)
(0 -0 -2.52248e-14)
(0 -0 -6.58226e-14)
(0 -0 -6.47604e-14)
(0 -0 -2.30123e-14)
(0 -0 3.91102e-14)
(0 -0 3.85853e-14)
(0 -0 -4.79404e-15)
(0 -0 -4.5597e-12)
(0 -0 7.65344e-12)
(0 -0 -1.51929e-12)
(0 -0 4.67383e-13)
(0 -0 2.37556e-14)
(0 -0 9.40147e-14)
(0 -0 5.08299e-14)
(0 -0 7.437e-14)
(0 -0 7.51493e-14)
(0 -0 5.27566e-14)
(0 -0 -3.14667e-14)
(0 -0 -2.08254e-14)
(0 -0 6.98412e-15)
(0 -0 3.54692e-14)
(0 -0 4.93353e-14)
(0 -0 -7.51762e-15)
(0 -0 3.35239e-14)
(0 -0 1.16355e-14)
(0 -0 8.05188e-15)
(0 -0 -4.22924e-15)
)
;

boundaryField
{
    movingWall
    {
        type            calculated;
        value           nonuniform List<vector> 
20
(
(0 -0 -1.28369e-11)
(0 -0 1.00042e-11)
(0 -0 -1.38086e-12)
(0 -0 8.12853e-13)
(0 -0 2.26198e-13)
(0 -0 2.79153e-13)
(0 -0 1.74255e-13)
(0 -0 1.97796e-13)
(0 -0 1.09757e-13)
(0 -0 1.76182e-13)
(0 -0 1.90578e-13)
(0 -0 2.01219e-13)
(0 -0 9.5802e-14)
(0 -0 5.2773e-14)
(0 -0 1.28352e-13)
(0 -0 8.13002e-14)
(0 -0 5.08278e-14)
(0 -0 -7.71823e-14)
(0 -0 -8.0766e-14)
(0 -0 -4.22924e-15)
)
;
    }
    fixedWalls
    {
        type            calculated;
        value           nonuniform List<vector> 
60
(
(0 -0 6.96943e-11)
(0 -0 -3.19489e-12)
(0 -0 -5.03767e-11)
(0 -0 4.92003e-11)
(0 -0 -1.41673e-11)
(0 -0 -3.44242e-11)
(0 -0 5.97023e-11)
(0 -0 -2.9307e-11)
(0 -0 -1.98486e-11)
(0 -0 4.76795e-11)
(0 -0 -4.98762e-11)
(0 -0 4.17656e-11)
(0 -0 -1.34738e-11)
(0 -0 -2.82331e-11)
(0 -0 6.20233e-11)
(0 -0 -4.71401e-11)
(0 -0 -2.80702e-12)
(0 -0 4.61418e-11)
(0 -0 -2.37025e-11)
(0 -0 -3.17035e-11)
(0 -0 5.90773e-14)
(0 -0 -1.95267e-14)
(0 -0 3.41764e-14)
(0 -0 2.4597e-14)
(0 -0 2.29625e-14)
(0 -0 -4.30817e-14)
(0 -0 1.65442e-14)
(0 -0 7.06475e-15)
(0 -0 -1.18165e-14)
(0 -0 9.33578e-15)
(0 -0 -1.00515e-14)
(0 -0 -1.61518e-14)
(0 -0 7.66706e-15)
(0 -0 -1.08424e-15)
(0 -0 -4.68276e-15)
(0 -0 -2.47633e-14)
(0 -0 7.57551e-15)
(0 -0 1.98782e-14)
(0 -0 -1.48421e-14)
(0 -0 -1.22802e-14)
(0 -0 2.03096e-11)
(0 -0 -1.91115e-11)
(0 -0 3.45924e-12)
(0 -0 -1.27729e-12)
(0 -0 -1.38184e-13)
(0 -0 -3.72199e-13)
(0 -0 -3.39951e-13)
(0 -0 -2.29035e-13)
(0 -0 -2.33522e-13)
(0 -0 -1.96631e-13)
(0 -0 -5.05837e-14)
(0 -0 -1.22793e-13)
(0 -0 -1.28282e-13)
(0 -0 -4.62476e-14)
(0 -0 9.00298e-16)
(0 -0 8.71717e-14)
(0 -0 7.81266e-14)
(0 -0 -5.23005e-14)
(0 -0 9.08352e-14)
(0 -0 9.34168e-14)
)
;
    }
    frontAndBack
    {
        type            empty;
    }
}


// ************************************************************************* //
