/*--------------------------------*- C++ -*----------------------------------*\
| =========                 |                                                 |
| \\      /  F ield         | OpenFOAM: The Open Source CFD Toolbox           |
|  \\    /   O peration     | Version:  2312                                  |
|   \\  /    A nd           | Website:  www.openfoam.com                      |
|    \\/     M anipulation  |                                                 |
\*---------------------------------------------------------------------------*/
FoamFile
{
    version     2.0;
    format      ascii;
    arch        "LSB;label=32;scalar=64";
    class       volScalarField;
    location    "7.25";
    object      zeroGradient(p);
}
// * * * * * * * * * * * * * * * * * * * * * * * * * * * * * * * * * * * * * //

dimensions      [0 2 -2 0 0 0 0];

internalField   nonuniform List<scalar> 
400
(
1.66394e-16
2.67838e-15
5.59247e-16
6.91879e-16
5.84437e-16
5.64389e-16
6.4736e-16
5.88869e-16
4.40134e-16
3.12174e-16
2.64062e-16
2.09805e-16
9.87404e-17
1.64676e-16
2.07544e-16
4.55978e-16
6.65628e-16
5.6594e-16
2.9141e-16
6.05315e-17
1.72434e-15
0
5.30976e-16
3.48763e-16
8.35634e-16
5.53842e-16
4.91259e-16
5.81045e-16
3.66048e-16
3.04274e-16
4.01556e-16
3.11674e-16
2.98223e-17
1.7342e-16
2.36972e-16
3.76676e-16
4.6931e-16
6.06691e-16
4.10084e-16
1.02283e-16
7.13912e-16
2.01756e-15
4.6798e-16
5.91799e-16
6.25841e-16
4.69732e-16
4.18954e-16
6.524e-16
6.53658e-16
5.20697e-16
4.57477e-16
2.53743e-16
1.73173e-16
1.06457e-16
2.61387e-16
3.48868e-16
3.64222e-16
4.19608e-16
3.89657e-16
3.81108e-16
3.67574e-16
9.81225e-16
5.55915e-16
5.58127e-16
5.91835e-16
4.47401e-16
5.21119e-16
7.02171e-16
5.32562e-16
5.82787e-16
5.30275e-16
1.94113e-16
2.78651e-16
3.41014e-16
4.07346e-16
4.83033e-16
3.42145e-16
3.03498e-16
2.19822e-16
3.78869e-16
7.92964e-16
0
6.82908e-16
4.14015e-16
3.22567e-16
3.42044e-16
6.46798e-16
5.87773e-16
5.00241e-16
4.64056e-16
4.8067e-16
3.75483e-16
3.2763e-16
4.6965e-16
4.31188e-16
3.0077e-16
1.37325e-16
2.067e-16
3.31473e-16
5.35747e-16
0
1.45534e-15
4.43771e-16
7.90872e-16
3.68563e-16
3.9712e-16
5.62785e-16
6.53452e-16
5.19003e-16
4.48336e-16
3.5648e-16
3.14578e-16
3.38801e-16
3.1002e-16
3.07338e-16
1.85933e-16
6.87162e-17
1.11617e-16
3.35083e-16
6.24469e-16
2.77769e-16
1.40553e-15
3.75612e-16
6.45204e-16
5.2928e-16
5.25501e-16
4.68628e-16
3.8813e-16
3.08065e-16
3.17161e-16
3.74084e-16
3.11051e-16
2.89178e-16
2.3139e-16
3.1258e-16
1.58186e-16
6.40708e-17
1.50288e-16
2.84011e-16
4.57664e-16
9.75602e-16
0
4.69072e-16
5.20246e-16
7.18212e-16
4.49082e-16
4.37994e-16
1.77864e-16
1.47991e-16
2.29902e-16
4.09134e-16
2.95327e-16
3.34996e-16
1.09018e-16
2.80383e-16
1.62714e-16
8.04317e-17
1.05269e-16
1.99836e-16
4.64586e-16
0
3.68364e-15
5.43302e-16
8.02031e-16
4.61831e-16
1.69829e-16
6.93058e-17
1.46476e-16
1.99837e-16
1.68423e-16
0
1.52473e-16
2.96054e-16
3.87919e-16
3.9248e-16
2.02796e-16
1.93198e-16
1.50148e-16
5.77787e-17
4.6385e-16
4.67684e-16
0
6.34888e-16
4.98746e-16
3.87054e-16
1.37868e-16
5.80963e-17
8.18834e-18
0
0
2.98024e-17
1.04859e-16
3.567e-16
3.07707e-16
1.59677e-16
2.22246e-16
2.3956e-16
1.73303e-16
2.20312e-16
5.96839e-16
7.24018e-16
1.45656e-16
2.8568e-16
3.55731e-16
3.43419e-16
1.17609e-17
0
0
0
1.2486e-16
7.87919e-17
0
1.12807e-16
2.62858e-16
3.50016e-17
9.96179e-17
2.01809e-16
2.2512e-16
2.7439e-16
5.61474e-16
4.56054e-16
1.93949e-15
1.99688e-16
2.60229e-16
1.02032e-17
0
0
0
0
0
0
0
0
5.36197e-17
2.30019e-17
1.0574e-16
1.60218e-16
1.99843e-16
3.6602e-16
5.40794e-16
7.17144e-16
0
6.27295e-17
0
2.93942e-17
0
0
0
0
0
0
0
4.60949e-17
2.60796e-17
5.39191e-17
7.21245e-17
1.32458e-16
4.54384e-17
3.32993e-16
4.22441e-16
0
2.78823e-15
0
1.59792e-16
0
0
0
0
0
0
0
0
0
0
0
1.63173e-16
2.32851e-16
6.24392e-17
1.1395e-16
3.93574e-16
0
0
0
0
0
0
0
0
0
0
0
0
0
0
0
1.66977e-16
1.39788e-16
1.4065e-17
0
3.71929e-16
0
0
0
0
0
0
0
0
0
0
0
0
0
0
0
8.47059e-17
0
0
9.60887e-17
2.71091e-16
0
1.86992e-15
0
0
0
0
0
0
0
0
0
0
0
0
0
0
0
0
0
3.45329e-16
0
0
0
0
0
0
0
0
0
0
0
0
0
0
0
0
0
0
0
2.63294e-16
0
0
0
0
0
0
0
0
0
0
0
0
0
0
0
0
0
0
0
2.88921e-16
0
7.35682e-16
0
0
0
0
0
0
0
0
0
0
0
0
0
0
0
0
0
1.76176e-16
)
;

boundaryField
{
    movingWall
    {
        type            zeroGradient;
    }
    fixedWalls
    {
        type            zeroGradient;
    }
    frontAndBack
    {
        type            empty;
    }
}


// ************************************************************************* //
