/*--------------------------------*- C++ -*----------------------------------*\
| =========                 |                                                 |
| \\      /  F ield         | OpenFOAM: The Open Source CFD Toolbox           |
|  \\    /   O peration     | Version:  2312                                  |
|   \\  /    A nd           | Website:  www.openfoam.com                      |
|    \\/     M anipulation  |                                                 |
\*---------------------------------------------------------------------------*/
FoamFile
{
    version     2.0;
    format      ascii;
    arch        "LSB;label=32;scalar=64";
    class       volScalarField;
    location    "50";
    object      p;
}
// * * * * * * * * * * * * * * * * * * * * * * * * * * * * * * * * * * * * * //

dimensions      [0 2 -2 0 0 0 0];

internalField   nonuniform List<scalar> 
12225
(
498.778
496.624
495.54
495.241
495.07
494.906
494.792
494.716
494.647
494.584
494.542
494.526
494.527
494.533
494.538
494.554
494.567
494.661
495.648
494.867
494.663
494.767
494.801
494.752
494.701
494.661
494.614
494.565
494.533
494.522
494.526
494.532
494.538
494.55
494.573
494.588
495.267
495.335
495.221
495.152
495.053
494.925
494.821
494.741
494.669
494.606
494.563
494.545
494.541
494.54
494.539
494.544
494.556
494.571
495.394
495.483
495.235
495.056
494.941
494.836
494.751
494.684
494.625
494.575
494.543
494.529
494.526
494.524
494.522
494.526
494.539
494.57
495.402
495.391
495.153
494.997
494.913
494.833
494.759
494.694
494.636
494.588
494.556
494.539
494.53
494.522
494.517
494.519
494.532
494.558
495.34
495.298
495.117
494.989
494.91
494.832
494.757
494.691
494.633
494.586
494.553
494.533
494.521
494.51
494.503
494.503
494.514
494.531
495.275
495.236
495.097
494.982
494.897
494.819
494.748
494.684
494.627
494.581
494.548
494.527
494.512
494.499
494.49
494.488
494.493
494.506
495.218
495.183
495.071
494.965
494.879
494.804
494.738
494.678
494.622
494.576
494.543
494.52
494.502
494.487
494.475
494.469
494.47
494.476
495.163
495.132
495.04
494.945
494.862
494.791
494.729
494.671
494.616
494.569
494.535
494.51
494.49
494.472
494.457
494.447
494.442
494.442
495.111
495.083
495.006
494.922
494.844
494.777
494.718
494.661
494.607
494.56
494.524
494.498
494.476
494.455
494.437
494.422
494.411
494.404
495.06
495.035
494.972
494.897
494.824
494.761
494.705
494.65
494.596
494.549
494.512
494.483
494.459
494.436
494.414
494.394
494.378
494.363
495.016
494.994
494.941
494.873
494.805
494.745
494.691
494.638
494.585
494.537
494.498
494.467
494.44
494.415
494.391
494.367
494.345
494.324
494.975
494.955
494.909
494.849
494.785
494.727
494.675
494.624
494.573
494.526
494.484
494.449
494.419
494.391
494.365
494.338
494.311
494.285
494.93
494.913
494.873
494.821
494.763
494.706
494.654
494.605
494.558
494.511
494.466
494.426
494.391
494.36
494.331
494.302
494.271
494.239
494.883
494.868
494.833
494.788
494.737
494.682
494.628
494.58
494.536
494.492
494.445
494.399
494.358
494.322
494.289
494.256
494.222
494.186
494.835
494.823
494.791
494.752
494.707
494.655
494.6
494.55
494.507
494.465
494.418
494.367
494.319
494.276
494.237
494.201
494.164
494.125
494.79
494.779
494.751
494.713
494.672
494.625
494.57
494.516
494.471
494.429
494.383
494.33
494.275
494.224
494.179
494.138
494.097
494.055
494.751
494.74
494.715
494.678
494.638
494.593
494.538
494.481
494.431
494.388
494.341
494.287
494.227
494.168
494.116
494.069
494.024
493.979
494.726
494.715
494.69
494.653
494.61
494.564
494.508
494.448
494.393
494.345
494.295
494.237
494.173
494.109
494.052
494
493.95
493.901
494.729
494.717
494.69
494.649
494.602
494.55
494.491
494.428
494.37
494.316
494.26
494.197
494.13
494.064
494.005
493.95
493.896
493.843
494.748
494.735
494.704
494.659
494.606
494.549
494.485
494.42
494.359
494.3
494.237
494.169
494.1
494.034
493.974
493.918
493.861
493.805
494.779
494.765
494.729
494.678
494.618
494.553
494.486
494.419
494.356
494.291
494.221
494.148
494.078
494.012
493.952
493.894
493.836
493.776
494.818
494.804
494.764
494.702
494.633
494.561
494.49
494.421
494.355
494.285
494.21
494.135
494.064
493.999
493.938
493.877
493.815
493.752
494.861
494.85
494.801
494.73
494.654
494.576
494.498
494.425
494.353
494.278
494.2
494.124
494.054
493.99
493.929
493.867
493.802
493.738
494.908
494.905
494.833
494.746
494.672
494.596
494.516
494.436
494.356
494.274
494.191
494.113
494.043
493.979
493.916
493.853
493.787
493.721
494.952
494.998
494.877
494.747
494.668
494.6
494.525
494.449
494.371
494.287
494.202
494.123
494.052
493.987
493.924
493.858
493.79
493.722
494.933
495.127
494.991
494.81
494.687
494.585
494.493
494.412
494.333
494.249
494.164
494.087
494.021
493.96
493.9
493.837
493.769
493.7
494.791
495.034
495.047
494.993
494.899
494.77
494.645
494.539
494.437
494.333
494.229
494.138
494.061
493.994
493.928
493.861
493.789
493.715
495.063
494.434
494.301
494.436
494.512
494.486
494.432
494.38
494.319
494.241
494.156
494.078
494.013
493.956
493.899
493.839
493.773
493.703
498.116
496.345
495.329
495.041
494.898
494.735
494.595
494.49
494.392
494.289
494.185
494.094
494.021
493.959
493.899
493.837
493.771
493.705
492.779
492.793
492.779
492.726
492.656
492.586
492.526
492.482
492.453
492.437
492.43
492.428
492.427
492.424
492.418
492.408
492.394
492.376
492.354
492.327
492.292
492.248
492.186
492.101
491.988
491.844
491.669
491.464
491.232
490.978
490.706
490.421
490.127
489.83
489.532
489.237
488.948
488.665
488.391
488.127
487.875
487.634
487.407
487.193
486.994
486.81
486.641
486.489
486.353
486.235
486.135
486.055
485.996
485.96
485.949
485.964
486.009
486.085
486.196
486.343
486.528
486.752
487.017
487.321
487.667
488.053
488.479
488.945
489.448
489.988
490.562
491.168
491.801
492.46
493.14
493.84
494.553
495.276
496.004
496.735
497.462
498.184
498.896
499.598
500.283
500.953
501.604
502.234
502.842
503.428
503.991
504.533
505.052
505.547
506.021
506.472
506.903
507.312
507.702
508.074
508.427
508.763
509.083
509.387
509.677
509.953
510.216
510.466
510.705
510.933
511.151
511.359
511.558
511.748
511.929
512.103
512.27
512.43
512.583
512.73
512.87
513.004
513.131
513.253
513.369
513.48
513.585
513.686
513.783
513.875
513.963
514.047
514.126
514.203
514.276
514.345
514.412
514.475
514.536
514.594
514.65
514.704
514.755
514.803
514.85
514.895
514.939
514.982
515.022
515.061
515.1
515.139
515.177
515.215
515.253
515.291
515.329
515.367
515.407
515.447
515.486
515.523
515.557
515.588
515.614
515.636
515.652
515.663
515.671
515.675
515.677
515.678
515.677
515.678
515.68
515.687
515.701
515.726
515.778
515.839
492.701
492.689
492.652
492.595
492.529
492.467
492.416
492.383
492.369
492.376
492.397
492.424
492.45
492.468
492.479
492.482
492.479
492.468
492.45
492.425
492.393
492.347
492.28
492.183
492.053
491.888
491.692
491.466
491.218
490.951
490.67
490.381
490.088
489.793
489.5
489.211
488.928
488.651
488.383
488.124
487.875
487.636
487.41
487.196
486.995
486.807
486.635
486.478
486.338
486.216
486.112
486.028
485.965
485.926
485.912
485.925
485.967
486.039
486.144
486.284
486.459
486.671
486.921
487.211
487.542
487.913
488.325
488.776
489.266
489.793
490.355
490.95
491.574
492.224
492.898
493.592
494.302
495.022
495.749
496.479
497.208
497.932
498.648
499.354
500.045
500.72
501.377
502.014
502.629
503.222
503.793
504.341
504.867
505.37
505.851
506.309
506.746
507.162
507.559
507.936
508.295
508.637
508.962
509.272
509.567
509.847
510.115
510.369
510.612
510.844
511.066
511.278
511.48
511.673
511.859
512.036
512.205
512.366
512.521
512.669
512.81
512.946
513.075
513.198
513.316
513.428
513.536
513.638
513.736
513.83
513.919
514.005
514.086
514.164
514.238
514.31
514.378
514.442
514.504
514.564
514.621
514.675
514.728
514.778
514.826
514.872
514.916
514.96
515.002
515.042
515.082
515.122
515.161
515.199
515.238
515.277
515.316
515.355
515.395
515.435
515.474
515.511
515.546
515.577
515.604
515.626
515.643
515.655
515.663
515.669
515.672
515.672
515.673
515.673
515.676
515.681
515.693
515.715
515.758
515.802
492.6
492.569
492.527
492.481
492.435
492.394
492.365
492.351
492.353
492.371
492.4
492.435
492.468
492.496
492.516
492.526
492.523
492.505
492.469
492.417
492.347
492.258
492.147
492.012
491.852
491.668
491.463
491.239
491
490.749
490.489
490.223
489.953
489.683
489.413
489.146
488.882
488.623
488.371
488.125
487.886
487.657
487.436
487.226
487.027
486.839
486.665
486.505
486.36
486.231
486.12
486.027
485.956
485.908
485.884
485.886
485.917
485.978
486.072
486.198
486.359
486.557
486.794
487.069
487.385
487.742
488.139
488.576
489.053
489.567
490.117
490.701
491.317
491.96
492.629
493.318
494.024
494.742
495.468
496.199
496.929
497.656
498.376
499.086
499.782
500.463
501.126
501.769
502.391
502.991
503.569
504.125
504.658
505.168
505.655
506.12
506.563
506.985
507.388
507.771
508.135
508.482
508.812
509.127
509.426
509.711
509.982
510.241
510.488
510.723
510.948
511.164
511.369
511.566
511.754
511.934
512.107
512.272
512.43
512.582
512.727
512.865
512.997
513.124
513.245
513.36
513.47
513.576
513.676
513.772
513.864
513.952
514.036
514.116
514.192
514.265
514.335
514.402
514.466
514.527
514.585
514.641
514.695
514.746
514.796
514.843
514.889
514.933
514.976
515.018
515.059
515.1
515.14
515.179
515.219
515.259
515.299
515.338
515.379
515.419
515.459
515.496
515.531
515.563
515.591
515.614
515.632
515.645
515.654
515.661
515.664
515.665
515.666
515.667
515.67
515.674
515.684
515.7
515.732
515.751
492.624
492.581
492.534
492.495
492.459
492.429
492.408
492.399
492.404
492.419
492.443
492.469
492.494
492.511
492.518
492.512
492.488
492.444
492.379
492.293
492.189
492.068
491.929
491.773
491.601
491.413
491.21
490.995
490.768
490.533
490.29
490.043
489.792
489.539
489.287
489.035
488.786
488.54
488.298
488.062
487.832
487.608
487.393
487.186
486.989
486.802
486.627
486.465
486.317
486.184
486.067
485.969
485.891
485.834
485.802
485.795
485.815
485.866
485.947
486.062
486.212
486.399
486.624
486.888
487.193
487.539
487.927
488.355
488.824
489.332
489.877
490.456
491.069
491.711
492.379
493.069
493.777
494.498
495.227
495.962
496.698
497.431
498.157
498.872
499.575
500.263
500.932
501.581
502.209
502.816
503.4
503.961
504.499
505.014
505.506
505.976
506.423
506.85
507.256
507.643
508.012
508.362
508.696
509.013
509.315
509.603
509.878
510.139
510.389
510.627
510.855
511.073
511.281
511.48
511.671
511.854
512.029
512.196
512.357
512.511
512.658
512.799
512.934
513.062
513.185
513.303
513.415
513.523
513.625
513.723
513.817
513.907
513.992
514.074
514.152
514.227
514.298
514.367
514.432
514.494
514.554
514.611
514.666
514.718
514.769
514.817
514.864
514.909
514.953
514.996
515.038
515.079
515.12
515.16
515.201
515.241
515.281
515.321
515.361
515.402
515.441
515.479
515.514
515.546
515.575
515.599
515.618
515.632
515.643
515.65
515.655
515.657
515.658
515.66
515.662
515.665
515.671
515.682
515.7
515.7
492.818
492.757
492.685
492.637
492.6
492.571
492.55
492.537
492.532
492.532
492.534
492.535
492.531
492.519
492.495
492.456
492.4
492.326
492.235
492.127
492.002
491.863
491.71
491.544
491.366
491.177
490.977
490.768
490.55
490.326
490.097
489.863
489.626
489.387
489.147
488.908
488.669
488.433
488.2
487.97
487.745
487.526
487.314
487.108
486.911
486.724
486.547
486.382
486.229
486.091
485.969
485.864
485.778
485.714
485.672
485.655
485.666
485.706
485.777
485.881
486.021
486.198
486.413
486.669
486.966
487.306
487.687
488.112
488.577
489.084
489.629
490.21
490.826
491.472
492.145
492.842
493.556
494.285
495.023
495.766
496.511
497.252
497.986
498.71
499.421
500.115
500.792
501.447
502.081
502.693
503.282
503.848
504.39
504.909
505.404
505.876
506.327
506.756
507.165
507.554
507.924
508.276
508.612
508.931
509.235
509.525
509.801
510.065
510.316
510.557
510.786
511.006
511.216
511.417
511.609
511.794
511.97
512.139
512.301
512.457
512.605
512.748
512.884
513.014
513.139
513.258
513.372
513.481
513.585
513.684
513.779
513.87
513.957
514.04
514.12
514.196
514.268
514.338
514.404
514.468
514.529
514.587
514.643
514.696
514.747
514.797
514.844
514.89
514.935
514.978
515.021
515.063
515.104
515.145
515.185
515.226
515.266
515.306
515.345
515.385
515.424
515.462
515.497
515.529
515.558
515.583
515.603
515.619
515.63
515.639
515.644
515.647
515.649
515.651
515.652
515.654
515.657
515.661
515.668
515.653
493.112
493.025
492.921
492.855
492.812
492.779
492.751
492.728
492.706
492.682
492.654
492.621
492.58
492.529
492.467
492.393
492.305
492.204
492.088
491.96
491.82
491.668
491.506
491.333
491.152
490.963
490.766
490.562
490.351
490.136
489.916
489.692
489.465
489.236
489.005
488.774
488.544
488.314
488.086
487.861
487.64
487.423
487.211
487.005
486.807
486.617
486.436
486.267
486.109
485.964
485.835
485.722
485.628
485.554
485.503
485.476
485.476
485.505
485.566
485.66
485.789
485.957
486.164
486.412
486.703
487.038
487.417
487.839
488.305
488.814
489.363
489.95
490.573
491.228
491.911
492.618
493.344
494.084
494.835
495.59
496.347
497.099
497.845
498.579
499.299
500.002
500.686
501.348
501.988
502.605
503.198
503.768
504.313
504.834
505.331
505.805
506.257
506.688
507.097
507.487
507.858
508.212
508.548
508.868
509.173
509.464
509.741
510.006
510.259
510.5
510.731
510.952
511.163
511.365
511.559
511.744
511.922
512.092
512.255
512.412
512.562
512.705
512.842
512.974
513.099
513.22
513.335
513.445
513.55
513.651
513.747
513.839
513.927
514.011
514.092
514.169
514.243
514.313
514.381
514.445
514.507
514.567
514.623
514.677
514.73
514.78
514.828
514.875
514.92
514.965
515.008
515.05
515.092
515.133
515.173
515.214
515.253
515.293
515.332
515.371
515.409
515.446
515.48
515.513
515.542
515.567
515.587
515.604
515.617
515.626
515.633
515.636
515.639
515.641
515.641
515.641
515.641
515.638
515.636
515.609
493.408
493.303
493.172
493.089
493.035
492.991
492.952
492.914
492.871
492.822
492.765
492.699
492.623
492.538
492.444
492.338
492.223
492.097
491.962
491.817
491.663
491.501
491.332
491.155
490.971
490.782
490.586
490.385
490.179
489.969
489.754
489.536
489.316
489.093
488.868
488.643
488.417
488.191
487.966
487.743
487.523
487.306
487.093
486.886
486.685
486.491
486.305
486.13
485.965
485.813
485.676
485.554
485.45
485.366
485.304
485.266
485.255
485.273
485.322
485.406
485.525
485.683
485.882
486.124
486.409
486.74
487.117
487.54
488.008
488.521
489.077
489.673
490.306
490.973
491.669
492.39
493.131
493.887
494.653
495.424
496.195
496.962
497.72
498.466
499.197
499.909
500.601
501.271
501.917
502.538
503.136
503.708
504.256
504.779
505.277
505.752
506.205
506.635
507.045
507.435
507.807
508.16
508.497
508.818
509.123
509.414
509.692
509.957
510.21
510.452
510.684
510.905
511.117
511.32
511.515
511.701
511.879
512.05
512.215
512.372
512.523
512.667
512.805
512.937
513.064
513.185
513.301
513.412
513.519
513.62
513.718
513.811
513.9
513.985
514.066
514.144
514.219
514.291
514.359
514.425
514.488
514.548
514.605
514.661
514.714
514.765
514.814
514.862
514.908
514.953
514.997
515.04
515.082
515.124
515.164
515.204
515.244
515.283
515.321
515.359
515.396
515.431
515.465
515.497
515.525
515.55
515.572
515.589
515.602
515.613
515.62
515.625
515.627
515.629
515.629
515.627
515.623
515.615
515.605
515.568
493.64
493.526
493.382
493.285
493.219
493.163
493.11
493.055
492.993
492.922
492.841
492.75
492.649
492.539
492.419
492.292
492.156
492.013
491.863
491.705
491.542
491.372
491.196
491.016
490.83
490.639
490.443
490.243
490.039
489.831
489.619
489.405
489.187
488.967
488.745
488.522
488.298
488.074
487.85
487.626
487.405
487.186
486.971
486.76
486.554
486.355
486.163
485.98
485.808
485.647
485.5
485.369
485.254
485.159
485.085
485.036
485.012
485.018
485.056
485.127
485.236
485.385
485.575
485.809
486.09
486.417
486.793
487.217
487.689
488.208
488.772
489.379
490.025
490.707
491.419
492.157
492.916
493.691
494.475
495.263
496.051
496.834
497.607
498.366
499.108
499.831
500.531
501.208
501.86
502.486
503.087
503.663
504.212
504.736
505.235
505.711
506.164
506.594
507.004
507.394
507.766
508.119
508.455
508.775
509.08
509.371
509.649
509.914
510.168
510.41
510.642
510.863
511.076
511.279
511.474
511.661
511.84
512.012
512.177
512.335
512.486
512.631
512.77
512.903
513.031
513.153
513.27
513.382
513.489
513.592
513.69
513.784
513.874
513.96
514.042
514.121
514.197
514.269
514.339
514.405
514.469
514.53
514.589
514.645
514.699
514.751
514.801
514.85
514.897
514.943
514.988
515.032
515.074
515.116
515.157
515.197
515.236
515.274
515.312
515.349
515.385
515.419
515.452
515.483
515.51
515.535
515.556
515.573
515.587
515.598
515.606
515.612
515.616
515.616
515.615
515.612
515.605
515.592
515.575
515.531
493.781
493.668
493.524
493.421
493.345
493.278
493.212
493.142
493.065
492.979
492.881
492.774
492.656
492.53
492.396
492.254
492.106
491.951
491.791
491.626
491.455
491.28
491.1
490.916
490.728
490.535
490.339
490.138
489.934
489.727
489.516
489.302
489.085
488.866
488.644
488.421
488.196
487.971
487.745
487.519
487.295
487.073
486.853
486.636
486.425
486.218
486.019
485.828
485.646
485.476
485.318
485.175
485.049
484.942
484.855
484.793
484.756
484.749
484.774
484.833
484.931
485.069
485.25
485.477
485.752
486.076
486.451
486.877
487.353
487.88
488.454
489.073
489.734
490.432
491.163
491.921
492.7
493.495
494.299
495.107
495.914
496.713
497.502
498.275
499.029
499.762
500.472
501.156
501.813
502.444
503.049
503.627
504.178
504.703
505.203
505.679
506.132
506.562
506.972
507.361
507.731
508.084
508.419
508.739
509.043
509.333
509.611
509.875
510.129
510.371
510.602
510.824
511.037
511.241
511.436
511.623
511.803
511.975
512.141
512.299
512.451
512.597
512.737
512.871
512.999
513.122
513.24
513.353
513.461
513.564
513.663
513.758
513.849
513.936
514.019
514.099
514.175
514.249
514.319
514.386
514.451
514.513
514.572
514.63
514.685
514.738
514.789
514.839
514.887
514.934
514.98
515.024
515.067
515.109
515.15
515.191
515.23
515.268
515.304
515.34
515.375
515.408
515.44
515.469
515.496
515.52
515.541
515.558
515.572
515.583
515.592
515.598
515.602
515.603
515.601
515.596
515.586
515.57
515.547
515.496
493.834
493.729
493.597
493.495
493.415
493.342
493.268
493.188
493.101
493.005
492.899
492.782
492.656
492.521
492.379
492.23
492.075
491.915
491.749
491.579
491.404
491.225
491.042
490.856
490.665
490.471
490.273
490.071
489.866
489.658
489.446
489.231
489.013
488.792
488.569
488.344
488.117
487.888
487.659
487.43
487.201
486.973
486.747
486.524
486.304
486.09
485.882
485.681
485.489
485.308
485.138
484.983
484.844
484.724
484.624
484.547
484.497
484.475
484.486
484.533
484.618
484.744
484.916
485.135
485.404
485.724
486.098
486.526
487.008
487.543
488.128
488.761
489.438
490.155
490.906
491.685
492.486
493.303
494.128
494.957
495.783
496.6
497.404
498.192
498.959
499.702
500.421
501.112
501.776
502.411
503.02
503.6
504.153
504.679
505.179
505.655
506.107
506.536
506.945
507.333
507.702
508.053
508.387
508.705
509.009
509.298
509.575
509.839
510.092
510.334
510.565
510.787
511
511.204
511.399
511.587
511.767
511.94
512.106
512.265
512.417
512.564
512.704
512.839
512.968
513.092
513.21
513.324
513.433
513.537
513.637
513.733
513.825
513.912
513.997
514.077
514.155
514.229
514.3
514.368
514.433
514.496
514.556
514.615
514.671
514.725
514.777
514.828
514.877
514.925
514.972
515.017
515.06
515.103
515.144
515.185
515.224
515.261
515.298
515.333
515.367
515.399
515.429
515.457
515.482
515.505
515.526
515.543
515.557
515.568
515.577
515.584
515.588
515.588
515.585
515.579
515.568
515.548
515.52
515.464
493.821
493.732
493.619
493.525
493.446
493.372
493.295
493.212
493.121
493.021
492.91
492.79
492.661
492.524
492.379
492.227
492.069
491.906
491.738
491.566
491.389
491.208
491.023
490.835
490.642
490.446
490.246
490.043
489.836
489.625
489.411
489.194
488.974
488.75
488.524
488.295
488.064
487.831
487.597
487.362
487.127
486.892
486.659
486.428
486.2
485.976
485.758
485.547
485.344
485.15
484.969
484.8
484.648
484.513
484.399
484.307
484.242
484.206
484.202
484.235
484.307
484.421
484.582
484.793
485.055
485.372
485.745
486.175
486.662
487.206
487.803
488.451
489.146
489.882
490.654
491.455
492.279
493.119
493.966
494.816
495.661
496.496
497.317
498.119
498.898
499.653
500.38
501.078
501.748
502.388
502.999
503.581
504.135
504.661
505.161
505.636
506.086
506.514
506.921
507.307
507.675
508.024
508.357
508.674
508.976
509.265
509.54
509.804
510.056
510.297
510.529
510.75
510.963
511.167
511.362
511.55
511.731
511.904
512.07
512.23
512.383
512.53
512.671
512.807
512.937
513.061
513.181
513.295
513.405
513.51
513.611
513.708
513.8
513.889
513.974
514.056
514.134
514.209
514.281
514.35
514.416
514.48
514.541
514.6
514.657
514.712
514.766
514.818
514.868
514.916
514.964
515.009
515.054
515.097
515.139
515.179
515.218
515.256
515.292
515.326
515.359
515.39
515.418
515.445
515.469
515.491
515.511
515.528
515.542
515.554
515.562
515.569
515.572
515.572
515.569
515.562
515.549
515.527
515.494
515.434
493.776
493.705
493.615
493.534
493.461
493.389
493.313
493.231
493.14
493.04
492.93
492.811
492.682
492.546
492.401
492.25
492.093
491.929
491.761
491.588
491.41
491.229
491.042
490.852
490.658
490.46
490.258
490.053
489.843
489.63
489.413
489.192
488.968
488.74
488.51
488.276
488.04
487.802
487.562
487.32
487.078
486.836
486.594
486.354
486.117
485.883
485.655
485.432
485.217
485.011
484.816
484.634
484.467
484.318
484.188
484.082
484.001
483.95
483.931
483.949
484.008
484.11
484.26
484.462
484.718
485.031
485.403
485.836
486.329
486.881
487.49
488.154
488.866
489.622
490.416
491.24
492.087
492.949
493.818
494.689
495.553
496.406
497.243
498.059
498.85
499.614
500.35
501.055
501.729
502.372
502.985
503.569
504.122
504.648
505.147
505.62
506.069
506.495
506.9
507.284
507.649
507.997
508.328
508.643
508.944
509.231
509.506
509.769
510.02
510.261
510.492
510.713
510.926
511.13
511.326
511.514
511.695
511.868
512.035
512.195
512.349
512.497
512.638
512.775
512.905
513.031
513.151
513.266
513.377
513.483
513.585
513.682
513.776
513.865
513.951
514.034
514.113
514.189
514.261
514.331
514.399
514.463
514.525
514.586
514.644
514.7
514.754
514.807
514.858
514.908
514.956
515.002
515.047
515.091
515.133
515.174
515.213
515.25
515.286
515.32
515.351
515.381
515.408
515.433
515.456
515.477
515.496
515.513
515.528
515.539
515.548
515.554
515.557
515.556
515.552
515.544
515.53
515.505
515.469
515.406
493.727
493.674
493.608
493.542
493.478
493.412
493.34
493.261
493.173
493.076
492.969
492.853
492.727
492.593
492.452
492.303
492.147
491.985
491.818
491.645
491.468
491.285
491.098
490.907
490.712
490.512
490.308
490.099
489.887
489.67
489.449
489.225
488.996
488.764
488.528
488.289
488.046
487.801
487.554
487.305
487.056
486.805
486.555
486.305
486.058
485.814
485.574
485.34
485.113
484.894
484.686
484.49
484.309
484.145
484.001
483.879
483.784
483.717
483.684
483.688
483.733
483.823
483.963
484.155
484.405
484.714
485.086
485.521
486.019
486.58
487.202
487.88
488.61
489.386
490.201
491.047
491.916
492.8
493.691
494.581
495.465
496.335
497.186
498.014
498.816
499.589
500.331
501.041
501.718
502.363
502.978
503.561
504.114
504.638
505.135
505.606
506.053
506.477
506.879
507.261
507.624
507.969
508.298
508.612
508.912
509.198
509.471
509.733
509.984
510.224
510.455
510.676
510.888
511.092
511.288
511.477
511.658
511.832
511.999
512.16
512.314
512.462
512.605
512.742
512.873
513
513.121
513.237
513.349
513.456
513.558
513.657
513.751
513.842
513.928
514.012
514.092
514.168
514.242
514.313
514.381
514.447
514.51
514.571
514.63
514.688
514.743
514.797
514.849
514.899
514.948
514.995
515.041
515.085
515.127
515.168
515.207
515.244
515.28
515.313
515.343
515.372
515.397
515.421
515.443
515.463
515.482
515.498
515.513
515.525
515.534
515.54
515.542
515.541
515.536
515.526
515.51
515.484
515.446
515.381
493.7
493.662
493.616
493.566
493.513
493.453
493.387
493.313
493.23
493.137
493.034
492.922
492.801
492.672
492.533
492.388
492.235
492.075
491.909
491.737
491.56
491.378
491.19
490.997
490.8
490.598
490.392
490.18
489.965
489.744
489.519
489.29
489.057
488.819
488.577
488.332
488.083
487.831
487.577
487.32
487.062
486.802
486.543
486.284
486.027
485.772
485.521
485.275
485.035
484.804
484.583
484.373
484.179
484
483.841
483.705
483.594
483.513
483.466
483.456
483.488
483.566
483.695
483.879
484.122
484.428
484.799
485.236
485.74
486.31
486.944
487.637
488.384
489.18
490.015
490.883
491.774
492.679
493.591
494.5
495.4
496.285
497.149
497.988
498.798
499.577
500.323
501.036
501.715
502.361
502.974
503.556
504.107
504.629
505.124
505.592
506.036
506.457
506.857
507.236
507.597
507.941
508.268
508.58
508.878
509.163
509.435
509.696
509.946
510.186
510.416
510.637
510.849
511.053
511.25
511.438
511.62
511.794
511.962
512.123
512.278
512.427
512.571
512.708
512.841
512.968
513.09
513.207
513.32
513.427
513.531
513.63
513.726
513.817
513.905
513.989
514.07
514.148
514.223
514.295
514.364
514.43
514.495
514.557
514.617
514.676
514.732
514.787
514.84
514.891
514.94
514.988
515.034
515.078
515.121
515.162
515.201
515.238
515.273
515.305
515.335
515.361
515.386
515.409
515.43
515.449
515.467
515.484
515.498
515.51
515.52
515.526
515.529
515.527
515.52
515.509
515.491
515.463
515.423
515.356
493.709
493.684
493.654
493.618
493.574
493.523
493.463
493.395
493.317
493.229
493.132
493.025
492.909
492.784
492.65
492.507
492.357
492.2
492.036
491.865
491.688
491.505
491.316
491.122
490.923
490.718
490.509
490.294
490.074
489.85
489.62
489.386
489.147
488.904
488.656
488.404
488.148
487.889
487.627
487.362
487.095
486.827
486.558
486.289
486.021
485.756
485.493
485.236
484.984
484.74
484.506
484.283
484.075
483.883
483.71
483.559
483.434
483.339
483.277
483.254
483.274
483.341
483.461
483.637
483.875
484.178
484.549
484.99
485.501
486.08
486.726
487.435
488.2
489.015
489.871
490.759
491.671
492.595
493.525
494.45
495.364
496.26
497.133
497.979
498.795
499.577
500.326
501.039
501.717
502.362
502.973
503.552
504.101
504.62
505.111
505.576
506.017
506.436
506.832
507.209
507.568
507.909
508.235
508.545
508.842
509.125
509.397
509.657
509.907
510.146
510.376
510.597
510.809
511.013
511.21
511.399
511.581
511.755
511.924
512.086
512.241
512.391
512.535
512.674
512.807
512.935
513.058
513.176
513.29
513.399
513.503
513.604
513.7
513.792
513.881
513.967
514.049
514.127
514.203
514.276
514.346
514.414
514.48
514.543
514.604
514.663
514.721
514.776
514.83
514.882
514.932
514.98
515.027
515.072
515.114
515.155
515.194
515.231
515.265
515.296
515.325
515.35
515.374
515.395
515.416
515.435
515.453
515.469
515.484
515.497
515.506
515.513
515.515
515.513
515.506
515.493
515.473
515.442
515.401
515.334
493.754
493.744
493.726
493.701
493.667
493.623
493.571
493.509
493.438
493.357
493.265
493.164
493.053
492.932
492.802
492.662
492.515
492.359
492.196
492.026
491.849
491.665
491.475
491.279
491.077
490.87
490.657
490.438
490.214
489.984
489.75
489.51
489.265
489.015
488.761
488.502
488.239
487.973
487.703
487.429
487.154
486.877
486.598
486.32
486.042
485.766
485.493
485.223
484.96
484.705
484.458
484.223
484.001
483.796
483.61
483.446
483.308
483.199
483.126
483.091
483.1
483.157
483.269
483.44
483.675
483.977
484.349
484.795
485.314
485.904
486.564
487.288
488.07
488.904
489.778
490.685
491.614
492.554
493.497
494.434
495.358
496.261
497.14
497.989
498.806
499.588
500.335
501.047
501.722
502.363
502.971
503.546
504.09
504.606
505.094
505.556
505.993
506.409
506.803
507.177
507.534
507.873
508.197
508.506
508.802
509.084
509.355
509.615
509.864
510.103
510.333
510.554
510.766
510.971
511.167
511.357
511.539
511.715
511.884
512.046
512.203
512.353
512.498
512.638
512.772
512.901
513.025
513.144
513.259
513.369
513.474
513.576
513.673
513.767
513.857
513.943
514.026
514.106
514.183
514.257
514.329
514.397
514.464
514.528
514.591
514.651
514.709
514.766
514.82
514.873
514.923
514.972
515.019
515.064
515.107
515.148
515.186
515.222
515.255
515.286
515.313
515.338
515.361
515.382
515.401
515.42
515.438
515.455
515.47
515.483
515.493
515.5
515.503
515.5
515.493
515.479
515.457
515.424
515.381
515.313
493.829
493.834
493.827
493.812
493.787
493.752
493.708
493.653
493.589
493.514
493.428
493.332
493.226
493.109
492.982
492.845
492.7
492.545
492.383
492.212
492.034
491.849
491.657
491.458
491.253
491.042
490.825
490.602
490.373
490.139
489.899
489.654
489.403
489.147
488.887
488.621
488.352
488.078
487.8
487.519
487.236
486.95
486.664
486.376
486.089
485.803
485.52
485.241
484.967
484.701
484.443
484.197
483.964
483.747
483.549
483.374
483.225
483.105
483.021
482.977
482.978
483.028
483.135
483.302
483.535
483.839
484.215
484.668
485.196
485.798
486.472
487.211
488.01
488.859
489.75
490.672
491.614
492.566
493.517
494.461
495.389
496.295
497.173
498.021
498.835
499.614
500.357
501.063
501.733
502.369
502.971
503.541
504.08
504.591
505.075
505.533
505.967
506.379
506.771
507.143
507.497
507.835
508.157
508.465
508.759
509.041
509.311
509.571
509.819
510.058
510.288
510.509
510.722
510.927
511.124
511.314
511.497
511.673
511.842
512.006
512.163
512.315
512.461
512.601
512.736
512.866
512.992
513.112
513.227
513.338
513.445
513.548
513.646
513.741
513.832
513.92
514.004
514.085
514.163
514.238
514.311
514.381
514.449
514.514
514.577
514.638
514.698
514.755
514.81
514.863
514.914
514.964
515.011
515.056
515.098
515.139
515.177
515.212
515.244
515.274
515.3
515.325
515.347
515.367
515.387
515.406
515.424
515.441
515.457
515.47
515.481
515.488
515.491
515.488
515.48
515.465
515.442
515.408
515.364
515.295
493.909
493.927
493.933
493.928
493.913
493.888
493.852
493.805
493.748
493.679
493.599
493.508
493.405
493.292
493.167
493.032
492.888
492.734
492.571
492.399
492.22
492.033
491.839
491.638
491.43
491.215
490.995
490.768
490.535
490.296
490.052
489.801
489.546
489.285
489.018
488.747
488.472
488.192
487.908
487.62
487.33
487.038
486.743
486.448
486.154
485.86
485.569
485.281
484.999
484.723
484.456
484.201
483.958
483.732
483.524
483.34
483.182
483.055
482.963
482.912
482.907
482.953
483.057
483.223
483.458
483.765
484.148
484.608
485.146
485.761
486.447
487.201
488.013
488.876
489.779
490.712
491.663
492.622
493.578
494.524
495.452
496.356
497.231
498.074
498.882
499.654
500.39
501.089
501.752