/*--------------------------------*- C++ -*----------------------------------*\
| =========                 |                                                 |
| \\      /  F ield         | OpenFOAM: The Open Source CFD Toolbox           |
|  \\    /   O peration     | Version:  2312                                  |
|   \\  /    A nd           | Website:  www.openfoam.com                      |
|    \\/     M anipulation  |                                                 |
\*---------------------------------------------------------------------------*/
FoamFile
{
    version     2.0;
    format      ascii;
    arch        "LSB;label=32;scalar=64";
    class       volVectorField;
    location    "50";
    object      U;
}
// * * * * * * * * * * * * * * * * * * * * * * * * * * * * * * * * * * * * * //

dimensions      [0 1 -1 0 0 0 0];

internalField   nonuniform List<vector> 
12225
(
(9.84107 -0.956419 0)
(9.5918 -0.887851 0)
(9.3154 -0.594679 0)
(9.01039 -0.369766 0)
(8.71867 -0.225301 0)
(8.45657 -0.136995 0)
(8.22492 -0.0835209 0)
(8.0211 -0.0505039 0)
(7.84301 -0.0298021 0)
(7.68701 -0.0168146 0)
(7.54951 -0.0085182 0)
(7.42684 -0.00319933 0)
(7.31685 0.000247476 0)
(7.21746 0.00258994 0)
(7.12638 0.00435834 0)
(7.04396 0.00524321 0)
(6.95896 0.0103103 0)
(6.89837 -0.00834366 0)
(10.0721 0.255951 0)
(10.1866 0.418608 0)
(10.2282 0.384533 0)
(10.2287 0.311169 0)
(10.2093 0.246743 0)
(10.1761 0.196661 0)
(10.1282 0.159 0)
(10.0677 0.131273 0)
(9.99887 0.110964 0)
(9.92545 0.0959395 0)
(9.84932 0.0845284 0)
(9.77199 0.0757926 0)
(9.69425 0.0690398 0)
(9.61723 0.0638879 0)
(9.54128 0.059925 0)
(9.46698 0.0575567 0)
(9.39435 0.0550425 0)
(9.32533 0.0579232 0)
(10.0032 0.0600796 0)
(10.0306 0.0485929 0)
(10.0606 0.010835 0)
(10.088 0.00093469 0)
(10.1122 0.00932717 0)
(10.1335 0.0210456 0)
(10.1489 0.0311411 0)
(10.1577 0.0393117 0)
(10.1608 0.0457661 0)
(10.1595 0.0505785 0)
(10.1541 0.0540191 0)
(10.145 0.0565009 0)
(10.1327 0.058413 0)
(10.1177 0.0600653 0)
(10.1003 0.0616566 0)
(10.0808 0.0633788 0)
(10.0599 0.065429 0)
(10.0359 0.066789 0)
(9.99714 0.0100607 0)
(10.0087 0.0265659 0)
(10.0332 0.0390149 0)
(10.0534 0.0543798 0)
(10.0689 0.066517 0)
(10.0829 0.0725021 0)
(10.0949 0.0742472 0)
(10.1044 0.0742306 0)
(10.1119 0.0735598 0)
(10.1179 0.0725678 0)
(10.1223 0.0714853 0)
(10.125 0.0706123 0)
(10.1262 0.0701493 0)
(10.126 0.0701942 0)
(10.1244 0.070739 0)
(10.1216 0.0717536 0)
(10.1174 0.073343 0)
(10.1114 0.0743631 0)
(9.99902 0.00699928 0)
(10.0078 0.034845 0)
(10.0269 0.0492978 0)
(10.0416 0.0564859 0)
(10.0526 0.060612 0)
(10.063 0.0623749 0)
(10.0724 0.0627909 0)
(10.0804 0.0629356 0)
(10.0871 0.0631401 0)
(10.0927 0.0633492 0)
(10.0972 0.0636143 0)
(10.1005 0.0641023 0)
(10.1028 0.0649495 0)
(10.1042 0.0661864 0)
(10.1046 0.0677931 0)
(10.1042 0.0697718 0)
(10.1026 0.0722593 0)
(10.1 0.075079 0)
(10.0001 0.00949458 0)
(10.0076 0.0341085 0)
(10.0226 0.0453828 0)
(10.0348 0.0503768 0)
(10.0445 0.054439 0)
(10.0536 0.0575327 0)
(10.062 0.0594482 0)
(10.0692 0.0607218 0)
(10.0752 0.0617116 0)
(10.0802 0.0625113 0)
(10.0843 0.0632447 0)
(10.0873 0.0641079 0)
(10.0895 0.0652536 0)
(10.0909 0.0667452 0)
(10.0916 0.068609 0)
(10.0915 0.0709062 0)
(10.0906 0.0738351 0)
(10.0889 0.0774347 0)
(10.0003 0.00943793 0)
(10.0067 0.0296397 0)
(10.019 0.0404631 0)
(10.0302 0.0462819 0)
(10.0392 0.0511381 0)
(10.0477 0.0548764 0)
(10.0554 0.0572199 0)
(10.062 0.0587199 0)
(10.0676 0.0598633 0)
(10.0723 0.0608476 0)
(10.0761 0.0618089 0)
(10.079 0.0629158 0)
(10.0811 0.0643115 0)
(10.0826 0.0660766 0)
(10.0834 0.0682639 0)
(10.0835 0.0709501 0)
(10.083 0.0743179 0)
(10.0819 0.0783889 0)
(10.0003 0.00851724 0)
(10.0057 0.0257585 0)
(10.0161 0.0367062 0)
(10.0263 0.043174 0)
(10.0349 0.0482076 0)
(10.0428 0.0520098 0)
(10.05 0.0545115 0)
(10.0563 0.0562276 0)
(10.0617 0.0576207 0)
(10.0662 0.0588956 0)
(10.07 0.0601781 0)
(10.0729 0.0616062 0)
(10.075 0.0633178 0)
(10.0766 0.0654048 0)
(10.0776 0.067933 0)
(10.0781 0.0709842 0)
(10.0779 0.0747114 0)
(10.0774 0.0791471 0)
(10.0003 0.00764448 0)
(10.0049 0.0227379 0)
(10.0137 0.033387 0)
(10.0229 0.0400432 0)
(10.031 0.0450474 0)
(10.0384 0.0488674 0)
(10.0452 0.0515777 0)
(10.0513 0.0535973 0)
(10.0566 0.0553066 0)
(10.0611 0.0568951 0)
(10.0649 0.0584894 0)
(10.0678 0.0602239 0)
(10.0702 0.0622365 0)
(10.072 0.064619 0)
(10.0732 0.0674447 0)
(10.074 0.0707976 0)
(10.0744 0.0748103 0)
(10.0744 0.0795096 0)
(10.0003 0.00687047 0)
(10.0042 0.0201388 0)
(10.0116 0.0301735 0)
(10.0198 0.0368083 0)
(10.0274 0.0418006 0)
(10.0345 0.0456865 0)
(10.0409 0.0486049 0)
(10.0468 0.0509042 0)
(10.052 0.0528988 0)
(10.0565 0.054766 0)
(10.0603 0.0566378 0)
(10.0635 0.0586571 0)
(10.066 0.0609498 0)
(10.0681 0.0636033 0)
(10.0697 0.0666908 0)
(10.0709 0.0702952 0)
(10.0717 0.0745243 0)
(10.0723 0.0793915 0)
(10.0003 0.00614595 0)
(10.0036 0.0178135 0)
(10.0099 0.0271082 0)
(10.0172 0.0336049 0)
(10.0242 0.0385676 0)
(10.0309 0.0425071 0)
(10.037 0.0455839 0)
(10.0427 0.0480997 0)
(10.0478 0.0503234 0)
(10.0524 0.0524247 0)
(10.0563 0.0545468 0)
(10.0595 0.0568293 0)
(10.0623 0.0593812 0)
(10.0647 0.0622765 0)
(10.0667 0.0655867 0)
(10.0683 0.0693829 0)
(10.0697 0.0737575 0)
(10.0709 0.0787076 0)
(10.0003 0.00550108 0)
(10.0031 0.0158815 0)
(10.0086 0.0244621 0)
(10.0151 0.0307735 0)
(10.0217 0.0356477 0)
(10.028 0.0395754 0)
(10.0338 0.042763 0)
(10.0393 0.0454457 0)
(10.0444 0.047837 0)
(10.0489 0.0501099 0)
(10.0529 0.0524296 0)
(10.0564 0.0549354 0)
(10.0594 0.0577113 0)
(10.062 0.0608125 0)
(10.0644 0.0642861 0)
(10.0665 0.0682061 0)
(10.0684 0.0726433 0)
(10.0702 0.0776083 0)
(10.0003 0.00489833 0)
(10.0027 0.0141017 0)
(10.0075 0.0219547 0)
(10.0134 0.0279965 0)
(10.0195 0.0327321 0)
(10.0254 0.0365945 0)
(10.0311 0.0398403 0)
(10.0364 0.0426615 0)
(10.0414 0.0452071 0)
(10.0459 0.0476278 0)
(10.0501 0.0500953 0)
(10.0537 0.0527618 0)
(10.057 0.0557036 0)
(10.0599 0.0589624 0)
(10.0626 0.0625665 0)
(10.0651 0.0665672 0)
(10.0675 0.071022 0)
(10.0698 0.0759281 0)
(10.0002 0.00427047 0)
(10.0024 0.0122547 0)
(10.0065 0.0192571 0)
(10.0117 0.0248938 0)
(10.0173 0.0294314 0)
(10.0229 0.0331674 0)
(10.0284 0.0364008 0)
(10.0336 0.039326 0)
(10.0385 0.0420297 0)
(10.043 0.0445986 0)
(10.0473 0.0471997 0)
(10.0512 0.049979 0)
(10.0548 0.0530424 0)
(10.0581 0.0564122 0)
(10.0612 0.0601181 0)
(10.0641 0.0641635 0)
(10.067 0.068594 0)
(10.0699 0.0733689 0)
(10.0002 0.00361657 0)
(10.002 0.0103169 0)
(10.0056 0.0163907 0)
(10.0103 0.0214598 0)
(10.0154 0.0256955 0)
(10.0206 0.0292501 0)
(10.0259 0.0323738 0)
(10.031 0.0352948 0)
(10.0358 0.0380933 0)
(10.0404 0.0408068 0)
(10.0448 0.043525 0)
(10.049 0.0463872 0)
(10.053 0.0494951 0)
(10.0567 0.0529052 0)
(10.0602 0.0566126 0)
(10.0637 0.0606268 0)
(10.0671 0.0649394 0)
(10.0706 0.069519 0)
(10.0002 0.00292863 0)
(10.0018 0.00828013 0)
(10.0049 0.0133281 0)
(10.009 0.0176591 0)
(10.0137 0.0214336 0)
(10.0186 0.0247228 0)
(10.0238 0.0276537 0)
(10.0288 0.0304425 0)
(10.0337 0.0332111 0)
(10.0384 0.0359822 0)
(10.0429 0.0387731 0)
(10.0474 0.0416702 0)
(10.0518 0.0447575 0)
(10.056 0.0481033 0)
(10.06 0.0517094 0)
(10.064 0.0555655 0)
(10.068 0.0596566 0)
(10.072 0.0639248 0)
(10.0002 0.00219075 0)
(10.0016 0.00611379 0)
(10.0043 0.00998818 0)
(10.0081 0.0134196 0)
(10.0125 0.0165422 0)
(10.0172 0.0194079 0)
(10.0222 0.0220472 0)
(10.0273 0.0245909 0)
(10.0324 0.0271749 0)
(10.0372 0.0298304 0)
(10.0419 0.0325634 0)
(10.0468 0.035386 0)
(10.0516 0.0383652 0)
(10.0563 0.0415318 0)
(10.0609 0.0449168 0)
(10.0654 0.0484857 0)
(10.0699 0.0522396 0)
(10.0745 0.0561004 0)
(10.0002 0.00137568 0)
(10.0015 0.00372956 0)
(10.004 0.0062522 0)
(10.0076 0.00859877 0)
(10.0119 0.0108363 0)
(10.0166 0.013029 0)
(10.0215 0.0151833 0)
(10.0268 0.0173372 0)
(10.0321 0.0195707 0)
(10.0372 0.0219268 0)
(10.0423 0.0244086 0)
(10.0474 0.0270109 0)
(10.0527 0.0297486 0)
(10.0579 0.03263 0)
(10.063 0.0356626 0)
(10.0681 0.0388302 0)
(10.0731 0.042118 0)
(10.0782 0.0454875 0)
(10.0002 0.000412519 0)
(10.0015 0.000941102 0)
(10.004 0.00181337 0)
(10.0077 0.00278413 0)
(10.0121 0.00387447 0)
(10.0169 0.0051192 0)
(10.0221 0.00653342 0)
(10.0276 0.00808677 0)
(10.0333 0.00978997 0)
(10.0388 0.0116482 0)
(10.0443 0.0136792 0)
(10.0499 0.0158576 0)
(10.0557 0.0181825 0)
(10.0614 0.0206231 0)
(10.067 0.0231744 0)
(10.0726 0.0258081 0)
(10.0781 0.0285221 0)
(10.0836 0.0313005 0)
(10.0002 -0.000547665 0)
(10.0016 -0.00182038 0)
(10.0044 -0.00263136 0)
(10.0084 -0.00307112 0)
(10.0132 -0.00314493 0)
(10.0185 -0.00287604 0)
(10.0241 -0.00227732 0)
(10.03 -0.00138848 0)
(10.0361 -0.000279841 0)
(10.0421 0.0010505 0)
(10.048 0.00258361 0)
(10.0541 0.00432262 0)
(10.0602 0.00620606 0)
(10.0663 0.00821531 0)
(10.0723 0.0102927 0)
(10.0782 0.0124468 0)
(10.0841 0.0146391 0)
(10.0899 0.0169125 0)
(10.0002 -0.00138512 0)
(10.0018 -0.00426647 0)
(10.0049 -0.00658246 0)
(10.0094 -0.00822514 0)
(10.0147 -0.00924973 0)
(10.0205 -0.00976938 0)
(10.0266 -0.00983452 0)
(10.0329 -0.00950826 0)
(10.0394 -0.00888758 0)
(10.0457 -0.00798938 0)
(10.0521 -0.00682918 0)
(10.0586 -0.00542196 0)
(10.065 -0.00385208 0)
(10.0714 -0.00216007 0)
(10.0776 -0.000410323 0)
(10.0838 0.00140243 0)
(10.0898 0.0032434 0)
(10.0959 0.00515336 0)
(10.0002 -0.00217096 0)
(10.0019 -0.00666561 0)
(10.0056 -0.0105209 0)
(10.0107 -0.0133019 0)
(10.0167 -0.0151396 0)
(10.0229 -0.0162978 0)
(10.0295 -0.0168688 0)
(10.0363 -0.0169837 0)
(10.0431 -0.0167522 0)
(10.0499 -0.016223 0)
(10.0567 -0.015385 0)
(10.0635 -0.0142972 0)
(10.0702 -0.0130117 0)
(10.0768 -0.011624 0)
(10.0832 -0.0101417 0)
(10.0895 -0.00861476 0)
(10.0958 -0.00701801 0)
(10.1019 -0.00537008 0)
(10.0002 -0.00288033 0)
(10.002 -0.0090342 0)
(10.0062 -0.0144211 0)
(10.0123 -0.0182213 0)
(10.019 -0.0208402 0)
(10.0258 -0.0226369 0)
(10.0329 -0.0236632 0)
(10.0401 -0.0240734 0)
(10.0472 -0.0240644 0)
(10.0544 -0.0237214 0)
(10.0615 -0.0230829 0)
(10.0686 -0.0222096 0)
(10.0755 -0.0211792 0)
(10.0823 -0.0200525 0)
(10.0889 -0.018856 0)
(10.0954 -0.017593 0)
(10.1017 -0.0162766 0)
(10.108 -0.0148827 0)
(10.0001 -0.00346717 0)
(10.0019 -0.0117792 0)
(10.0069 -0.0184133 0)
(10.014 -0.0225837 0)
(10.0213 -0.0257612 0)
(10.0287 -0.0283449 0)
(10.0364 -0.0300436 0)
(10.0441 -0.0308923 0)
(10.0516 -0.0311199 0)
(10.059 -0.0308776 0)
(10.0664 -0.0302646 0)
(10.0737 -0.0293888 0)
(10.0808 -0.0283729 0)
(10.0877 -0.0272759 0)
(10.0944 -0.0261452 0)
(10.101 -0.0249709 0)
(10.1075 -0.0237862 0)
(10.1138 -0.0225396 0)
(9.99983 -0.00323189 0)
(10.0014 -0.0156728 0)
(10.0078 -0.0240448 0)
(10.0158 -0.0275937 0)
(10.0233 -0.0301621 0)
(10.0311 -0.0327485 0)
(10.0395 -0.0348477 0)
(10.0478 -0.0362972 0)
(10.0559 -0.0371843 0)
(10.0639 -0.0375523 0)
(10.0718 -0.0374368 0)
(10.0794 -0.036949 0)
(10.0868 -0.0362236 0)
(10.0939 -0.0353534 0)
(10.1007 -0.0343815 0)
(10.1075 -0.0333394 0)
(10.1142 -0.0322503 0)
(10.1207 -0.0311144 0)
(9.99831 0.000247713 0)
(9.99826 -0.0169577 0)
(10.0077 -0.030281 0)
(10.0179 -0.035983 0)
(10.0261 -0.0382917 0)
(10.0343 -0.0392156 0)
(10.0433 -0.0393714 0)
(10.0524 -0.0393048 0)
(10.0612 -0.0392422 0)
(10.07 -0.0391194 0)
(10.0787 -0.0388267 0)
(10.087 -0.0383675 0)
(10.095 -0.0378316 0)
(10.1026 -0.0372595 0)
(10.11 -0.0366526 0)
(10.1171 -0.0360061 0)
(10.1241 -0.035317 0)
(10.1308 -0.0345231 0)
(9.9942 0.00295231 0)
(9.99029 -0.00716785 0)
(10.004 -0.0219811 0)
(10.02 -0.0382619 0)
(10.0328 -0.0513931 0)
(10.0443 -0.0589844 0)
(10.0556 -0.062133 0)
(10.0662 -0.0628557 0)
(10.0762 -0.0624018 0)
(10.086 -0.0612121 0)
(10.0956 -0.0595355 0)
(10.1048 -0.05757 0)
(10.1134 -0.0555459 0)
(10.1215 -0.0535959 0)
(10.1293 -0.0517669 0)
(10.1367 -0.0500528 0)
(10.144 -0.0484688 0)
(10.1508 -0.0468754 0)
(9.99426 -0.0304188 0)
(9.99552 -0.0130254 0)
(10.0093 0.021959 0)
(10.0286 0.0329667 0)
(10.0491 0.0256996 0)
(10.0701 0.0135052 0)
(10.0897 0.00203606 0)
(10.1068 -0.00793288 0)
(10.1215 -0.0163365 0)
(10.1344 -0.0231143 0)
(10.1457 -0.0283118 0)
(10.1554 -0.0321907 0)
(10.1634 -0.0350116 0)
(10.1701 -0.0370893 0)
(10.1756 -0.0386023 0)
(10.1801 -0.0397085 0)
(10.1839 -0.0405276 0)
(10.1869 -0.0411478 0)
(10.0367 -0.209314 0)
(10.1083 -0.365781 0)
(10.1425 -0.35237 0)
(10.1575 -0.297811 0)
(10.1709 -0.247263 0)
(10.1841 -0.206016 0)
(10.1918 -0.173116 0)
(10.1913 -0.147383 0)
(10.1834 -0.127439 0)
(10.1698 -0.111745 0)
(10.1515 -0.0991436 0)
(10.1296 -0.0888579 0)
(10.1049 -0.0803474 0)
(10.0782 -0.0732391 0)
(10.0502 -0.0672909 0)
(10.0216 -0.0623398 0)
(9.99282 -0.0582022 0)
(9.96459 -0.0552242 0)
(9.92883 0.765537 0)
(9.83985 0.742178 0)
(9.70706 0.525213 0)
(9.5295 0.349464 0)
(9.33702 0.228205 0)
(9.14844 0.147613 0)
(8.96965 0.0944443 0)
(8.80286 0.0590546 0)
(8.6498 0.0352923 0)
(8.51128 0.0193299 0)
(8.38659 0.00872303 0)
(8.2746 0.00181658 0)
(8.17394 -0.0026109 0)
(8.08361 -0.00533063 0)
(8.00262 -0.00688672 0)
(7.93009 -0.00771608 0)
(7.86465 -0.00809059 0)
(7.80572 -0.00861446 0)
(0.0392996 -0.00253605 2.76823e-17)
(0.149735 -0.141997 -1.28647e-17)
(0.291673 -0.190927 0)
(0.439856 -0.192172 0)
(0.566228 -0.171518 0)
(0.662447 -0.140346 5.20464e-18)
(0.728249 -0.104121 0)
(0.765879 -0.0653371 0)
(0.774383 -0.0255589 0)
(0.752932 0.0110528 0)
(0.708987 0.0389006 -5.19756e-18)
(0.650404 0.0548945 0)
(0.586399 0.0590149 0)
(0.524653 0.0544788 0)
(0.468233 0.0455702 0)
(0.414889 0.0355582 -7.51932e-18)
(0.360558 0.0250072 0)
(0.300752 0.0162823 0)
(0.23116 0.0151022 0)
(0.145054 0.0272658 0)
(0.0445908 0.0510997 0)
(-0.0717484 0.083954 0)
(-0.217925 0.119189 0)
(-0.385598 0.150329 -5.87244e-18)
(-0.567956 0.174695 4.71062e-18)
(-0.760858 0.192753 -3.90863e-18)
(-0.960374 0.204474 -3.33742e-18)
(-1.16305 0.210542 0)
(-1.36565 0.211879 0)
(-1.56532 0.209308 2.33681e-18)
(-1.76009 0.203916 2.13565e-18)
(-1.94849 0.196671 0)
(-2.12946 0.188288 0)
(-2.30252 0.179364 1.72591e-18)
(-2.46737 0.170318 0)
(-2.62412 0.161441 0)
(-2.77292 0.152928 -1.48118e-18)
(-2.91417 0.144859 0)
(-3.04821 0.137294 -1.36759e-18)
(-3.17554 0.130192 -2.64128e-18)
(-3.29652 0.12355 0)
(-3.41159 0.117264 0)
(-3.52107 0.111306 0)
(-3.62531 0.105545 0)
(-3.7245 0.0999661 0)
(-3.8189 0.0944435 -2.25023e-18)
(-3.90861 0.0889951 -2.20477e-18)
(-3.99374 0.0835103 -2.16336e-18)
(-4.0743 0.0780411 0)
(-4.15029 0.072515 2.09147e-18)
(-4.22161 0.0670277 0)
(-4.28818 0.0614955 -2.03254e-18)
(-4.34977 0.0560402 -2.00757e-18)
(-4.40619 0.0505864 0)
(-4.45713 0.0451899 0)
(-4.50233 0.0396392 0)
(-4.54142 0.0340032 -1.93651e-18)
(-4.57396 0.0282072 0)
(-4.59955 0.0225276 0)
(-4.61796 0.0169261 0)
(-4.62909 0.0116473 0)
(-4.63322 0.00659087 0)
(-4.63125 0.00167965 0)
(-4.62301 -0.00343471 0)
(-4.60855 -0.00843399 0)
(-4.58788 -0.0133819 1.92458e-18)
(-4.56095 -0.0183143 0)
(-4.52775 -0.0234162 0)
(-4.48822 -0.0287596 -1.96026e-18)
(-4.44222 -0.0334942 -1.97727e-18)
(-4.39019 -0.0379229 0)
(-4.3319 -0.044655 2.02423e-18)
(-4.26711 -0.0493432 -2.04981e-18)
(-4.19707 -0.0520563 0)
(-4.12149 -0.0587491 2.12011e-18)
(-4.03953 -0.0634711 0)
(-3.95345 -0.0650031 0)
(-3.86236 -0.0711166 -2.24366e-18)
(-3.76621 -0.0746441 0)
(-3.66688 -0.0748553 2.34843e-18)
(-3.56428 -0.0794171 0)
(-3.45758 -0.0838329 -2.47438e-18)
(-3.34841 -0.0836247 -2.53855e-18)
(-3.23769 -0.0849069 -2.6174e-18)
(-3.12451 -0.0863918 -5.38652e-18)
(-3.01079 -0.0866021 5.57337e-18)
(-2.89546 -0.0890559 0)
(-2.78017 -0.0876117 0)
(-2.66576 -0.0875672 0)
(-2.55116 -0.087561 6.37233e-18)
(-2.43812 -0.0864144 6.62637e-18)
(-2.32463 -0.0863939 -6.86788e-18)
(-2.21273 -0.0846264 0)
(-2.10158 -0.08405 7.43688e-18)
(-1.99209 -0.0825422 7.74222e-18)
(-1.88422 -0.0811361 8.06655e-18)
(-1.77816 -0.079616 0)
(-1.674 -0.0780568 0)
(-1.57182 -0.0764693 0)
(-1.47167 -0.0748725 9.58385e-18)
(-1.37356 -0.0732854 0)
(-1.27748 -0.0717022 0)
(-1.1834 -0.0701542 -1.10082e-17)
(-1.09134 -0.068633 0)
(-1.00137 -0.0672114 0)
(-0.913517 -0.0658337 -1.27627e-17)
(-0.827836 -0.0645801 0)
(-0.744263 -0.0634373 0)
(-0.662717 -0.0624167 1.49753e-17)
(-0.583123 -0.0614716 1.58473e-17)
(-0.505369 -0.0606576 0)
(-0.429356 -0.0599236 -1.78522e-17)
(-0.35499 -0.0593044 0)
(-0.282206 -0.0587527 2.03066e-17)
(-0.210856 -0.0582996 0)
(-0.140898 -0.057887 2.33812e-17)
(-0.072342 -0.0574245 2.52492e-17)
(-0.00525522 -0.0564406 0)
(0.0605125 -0.0544926 0)
(0.125246 -0.0519734 0)
(0.188868 -0.0495045 0)
(0.251264 -0.0471679 0)
(0.312393 -0.0450006 0)
(0.372195 -0.0429661 0)
(0.43066 -0.0410809 1.88787e-17)
(0.487792 -0.039307 -1.81228e-17)
(0.543644 -0.0376614 0)
(0.598287 -0.0361484 0)
(0.651774 -0.0347389 0)
(0.704108 -0.0333754 0)
(0.7553 -0.0320634 -3.06091e-17)
(0.805354 -0.0307756 0)
(0.854397 -0.0295858 2.89764e-17)
(0.902364 -0.0285082 -2.82562e-17)
(0.949285 -0.0274918 0)
(0.995159 -0.0264904 0)
(1.04004 -0.0255191 0)
(1.08397 -0.0246097 2.58721e-17)
(1.12696 -0.0237405 2.53711e-17)
(1.16897 -0.0229096 0)
(1.21003 -0.0221116 2.44673e-17)
(1.25019 -0.0213562 2.40602e-17)
(1.28949 -0.0206345 -2.36768e-17)
(1.32788 -0.0199613 0)
(1.3654 -0.0193475 0)
(1.40206 -0.0187565 -2.2647e-17)
(1.43781 -0.0181212 0)
(1.47264 -0.0174942 0)
(1.50664 -0.0169415 0)
(1.53987 -0.0164433 0)
(1.57225 -0.0159299 2.1264e-17)
(1.60371 -0.0154057 2.10312e-17)
(1.63426 -0.0148607 0)
(1.66375 -0.0141567 2.06152e-17)
(1.6918 -0.0131518 0)
(1.71803 -0.0118511 0)
(1.74211 -0.0102983 2.01401e-17)
(1.76371 -0.00860483 0)
(1.78263 -0.00699289 1.99527e-17)
(1.79905 -0.00575453 0)
(1.81356 -0.00522375 0)
(1.8271 -0.00550252 2.00527e-17)
(1.84056 -0.00634977 0)
(1.85436 -0.00721377 2.04575e-17)
(1.86869 -0.0077721 0)
(1.88314 -0.00799239 0)
(1.89723 -0.00786817 0)
(1.91078 -0.00754739 -2.12906e-17)
(1.92349 -0.00697416 0)
(1.93497 -0.00618483 2.15052e-17)
(1.94523 -0.00542427 0)
(1.95439 -0.00478085 0)
(1.96222 -0.00386789 0)
(1.96826 -0.00275878 0)
(1.97252 -0.0016915 0)
(1.97241 6.02624e-05 0)
(1.96584 0.00306787 0)
(1.94473 0.00781057 -4.37861e-17)
(1.91492 0.0180539 0)
(1.80023 0.0299894 0)
(0.0944546 -0.332011 -4.07776e-17)
(0.225937 -0.514072 2.01758e-17)
(0.332103 -0.474943 0)
(0.403889 -0.388033 -7.39747e-18)
(0.45187 -0.297837 0)
(0.480704 -0.21094 -3.04352e-18)
(0.493165 -0.127885 5.99264e-18)
(0.491605 -0.0486109 6.12352e-18)
(0.47958 0.0253062 0)
(0.459124 0.0898927 6.61485e-18)
(0.42689 0.139411 3.54629e-18)
(0.380841 0.169037 0)
(0.319467 0.17764 0)
(0.241511 0.17177 0)
(0.14754 0.167427 0)
(0.0382492 0.178003 4.54957e-18)
(-0.0916084 0.206032 0)
(-0.248022 0.248208 -7.26267e-18)
(-0.428268 0.30051 0)
(-0.62642 0.357291 0)
(-0.836098 0.412113 4.80399e-18)
(-1.05268 0.459866 0)
(-1.27075 0.497006 -3.76875e-18)
(-1.48521 0.522035 1.7024e-18)
(-1.6932 0.534994 -1.55771e-18)
(-1.8923 0.537349 1.44038e-18)
(-2.08074 0.530846 1.34425e-18)
(-2.25751 0.517313 0)
(-2.42195 0.498687 0)
(-2.57456 0.476813 -1.13444e-18)
(-2.716 0.452832 1.0828e-18)
(-2.8471 0.427941 0)
(-2.96876 0.402984 0)
(-3.08193 0.378615 -9.64524e-19)
(-3.1875 0.355271 0)
(-3.28629 0.333221 0)
(-3.37902 0.312615 8.80853e-19)
(-3.46632 0.293471 0)
(-3.5487 0.275776 -8.3743e-19)
(-3.6266 0.259412 1.63701e-18)
(-3.70036 0.244292 0)
(-3.77023 0.230235 0)
(-3.8364 0.217129 3.08068e-18)
(-3.89903 0.20477 3.02539e-18)
(-3.95818 0.193054 2.97391e-18)
(-4.01391 0.181777 -1.46316e-18)
(-4.06623 0.170863 1.44022e-18)
(-4.11517 0.160122 4.25808e-18)
(-4.16068 0.149512 -2.79953e-18)
(-4.20273 0.138865 -1.38114e-18)
(-4.24131 0.128183 0)
(-4.27638 0.11732 1.34798e-18)
(-4.30786 0.106333 -1.33348e-18)
(-4.33571 0.0950997 0)
(-4.35988 0.083711 0)
(-4.38041 0.0720381 0)
(-4.39735 0.0602192 1.2852e-18)
(-4.41078 0.048175 0)
(-4.42079 0.0361222 -2.53583e-18)
(-4.42739 0.0240322 0)
(-4.43048 0.0122136 -2.50969e-18)
(-4.42946 0.000602808 0)
(-4.42309 -0.0107357 2.49001e-18)
(-4.41106 -0.0220585 0)
(-4.39316 -0.0333075 -2.47948e-18)
(-4.36922 -0.0447098 1.237e-18)
(-4.3391 -0.056044 0)
(-4.3027 -0.0673746 2.46765e-18)
(-4.26007 -0.078525 1.23359e-18)
(-4.21123 -0.0895604 1.23459e-18)
(-4.15595 -0.100222 0)
(-4.0946 -0.110496 1.24261e-18)
(-4.02761 -0.120275 1.25133e-18)
(-3.95434 -0.129608 0)
(-3.87527 -0.138165 -1.27438e-18)
(-3.79151 -0.146362 2.56316e-18)
(-3.70248 -0.153822 0)
(-3.60862 -0.160542 1.30795e-18)
(-3.51135 -0.166561 0)
(-3.40966 -0.171573 -4.03025e-18)
(-3.30431 -0.175788 0)
(-3.19672 -0.179169 4.15818e-18)
(-3.08682 -0.18185 1.40924e-18)
(-2.97449 -0.183697 -1.43549e-18)
(-2.86076 -0.184776 -2.92407e-18)
(-2.74591 -0.185124 2.99121e-18)
(-2.63045 -0.1847 0)
(-2.51516 -0.183825 0)
(-2.39997 -0.18251 0)
(-2.28561 -0.180633 -9.79952e-18)
(-2.17205 -0.178293 -3.35263e-18)
(-2.05934 -0.175435 3.42949e-18)
(-1.94789 -0.172225 0)
(-1.83767 -0.168605 3.60776e-18)
(-1.72923 -0.1648 -3.7057e-18)
(-1.62253 -0.160842 -3.8031e-18)
(-1.51773 -0.156761 0)
(-1.4149 -0.152614 0)
(-1.3141 -0.148429 0)
(-1.21535 -0.144254 -4.22641e-18)
(-1.11867 -0.140106 0)
(-1.02401 -0.136001 8.91352e-18)
(-0.93135 -0.131957 1.37358e-17)
(-0.840674 -0.12798 -9.40539e-18)
(-0.751992 -0.12413 0)
(-0.665315 -0.120423 -4.95917e-18)
(-0.580622 -0.116919 0)
(-0.497856 -0.113582 -1.04666e-17)
(-0.416942 -0.110438 5.37431e-18)
(-0.337794 -0.107454 5.52114e-18)
(-0.260321 -0.104643 0)
(-0.184425 -0.10197 1.74914e-17)
(-0.110037 -0.0994506 -1.19837e-17)
(-0.03707 -0.0970768 -6.12404e-18)
(0.0345844 -0.0949007 0)
(0.104935 -0.0928492 -6.07569e-18)
(0.174013 -0.0908881 -1.805e-17)
(0.241906 -0.0888287 0)
(0.308423 -0.0863633 -1.18511e-17)
(0.373429 -0.0836051 -1.17793e-17)
(0.437119 -0.0808433 -1.17137e-17)
(0.499654 -0.0781462 0)
(0.561043 -0.0755431 0)
(0.62126 -0.0730331 0)
(0.680287 -0.0706284 5.74354e-18)
(0.738121 -0.0683222 5.72124e-18)
(0.794779 -0.0661159 0)
(0.850274 -0.0640024 1.13533e-17)
(0.904627 -0.0619757 1.13138e-17)
(0.957849 -0.0600019 0)
(1.00996 -0.0580832 1.12441e-17)
(1.06097 -0.0562118 2.24234e-17)
(1.11091 -0.0544178 -1.11797e-17)
(1.15978 -0.0527021 -1.11473e-17)
(1.20758 -0.0510316 0)
(1.25435 -0.0493966 0)
(1.30012 -0.047808 0)
(1.34494 -0.0463015 -1.10421e-17)
(1.38877 -0.0448603 1.10117e-17)
(1.43161 -0.0434684 2.19691e-17)
(1.47351 -0.0421033 -1.09601e-17)
(1.51453 -0.0407805 1.09357e-17)
(1.55469 -0.0394874 1.09154e-17)
(1.59399 -0.0382222 0)
(1.63246 -0.0369868 0)
(1.67009 -0.0357904 -1.08422e-17)
(1.70685 -0.0345871 0)
(1.74274 -0.0333906 0)
(1.77784 -0.0322485 2.15306e-17)
(1.81212 -0.0311788 0)
(1.84549 -0.0301032 1.07076e-17)
(1.87789 -0.0289562 -1.06803e-17)
(1.9093 -0.0277201 0)
(1.93953 -0.0263301 1.06249e-17)
(1.9683 -0.0246699 0)
(1.99541 -0.0227213 0)
(2.02073 -0.0205586 -1.05503e-17)
(2.04418 -0.0182932 2.10663e-17)
(2.06585 -0.0161214 -1.05358e-17)
(2.08607 -0.0142737 0)
(2.10539 -0.0130135 0)
(2.12439 -0.0124571 1.08749e-17)
(2.14349 -0.0124754 0)
(2.16286 -0.0127308 1.15567e-17)
(2.18251 -0.0128551 0)
(2.20231 -0.0126659 0)
(2.22197 -0.012173 0)
(2.24113 -0.0114581 1.3342e-17)
(2.25944 -0.0105542 0)
(2.27646 -0.00950251 -1.39879e-17)
(2.29219 -0.00847654 0)
(2.30657 -0.00749394 0)
(2.31954 -0.00641884 2.90818e-17)
(2.33062 -0.00511454 -2.93095e-17)
(2.34008 -0.00314669 0)
(2.34783 -0.000126365 0)
(2.35352 0.00490648 0)
(2.35339 0.0132928 8.73705e-17)
(2.3544 0.0295081 0)
(2.3297 0.056055 -5.89208e-17)
(0.0769745 -0.665142 2.68807e-21)
(0.145051 -0.695606 -2.11622e-17)
(0.174804 -0.562552 0)
(0.188208 -0.43419 1.21384e-17)
(0.192111 -0.317552 0)
(0.18592 -0.209361 0)
(0.169229 -0.108059 -5.60873e-22)
(0.142229 -0.0135495 -5.27631e-18)
(0.10504 0.0745002 -5.33324e-18)
(0.058178 0.155712 -5.47328e-18)
(0.000452899 0.227359 0)
(-0.0713465 0.286437 0)
(-0.161805 0.334036 5.0887e-18)
(-0.275226 0.376962 9.53764e-18)
(-0.413194 0.425006 -8.79204e-18)
(-0.573999 0.484071 0)
(-0.75334 0.552614 -7.30335e-18)
(-0.944716 0.623607 3.32715e-18)
(-1.14084 0.68996 0)
(-1.33495 0.746514 -5.5958e-18)
(-1.52186 0.790318 -2.58642e-18)
(-1.69769 0.820182 4.81301e-18)
(-1.86041 0.835562 2.25144e-18)
(-2.00915 0.837074 0)
(-2.14443 0.826462 -3.98879e-18)
(-2.26754 0.805867 -3.77449e-18)
(-2.37999 0.777621 0)
(-2.48335 0.744009 -3.41224e-18)
(-2.57935 0.707032 0)
(-2.66938 0.668492 -3.13773e-18)
(-2.75444 0.629759 -1.51169e-18)
(-2.83547 0.591841 0)
(-2.91317 0.555428 0)
(-2.98806 0.520958 0)
(-3.06053 0.488664 0)
(-3.13083 0.458615 0)
(-3.19912 0.430772 0)
(-3.2655 0.405011 -2.46791e-18)
(-3.33003 0.381169 3.62037e-18)
(-3.39272 0.359042 0)
(-3.45356 0.33843 0)
(-3.51253 0.319111 0)
(-3.56957 0.300891 5.23257e-23)
(-3.62463 0.283563 -2.19457e-18)
(-3.67764 0.266958 -4.31805e-18)
(-3.72853 0.250895 4.25112e-18)
(-3.77723 0.235238 2.09417e-18)
(-3.82365 0.219841 -2.06423e-18)
(-3.8677 0.204606 -2.67999e-22)
(-3.90928 0.189414 -2.01009e-18)
(-3.94827 0.174201 0)
(-3.98457 0.158886 -1.96182e-18)
(-4.01801 0.143449 -2.46348e-22)
(-4.04843 0.127818 0)
(-4.07567 0.111976 0)
(-4.09955 0.0958592 1.88233e-18)
(-4.11987 0.0794859 0)
(-4.1364 0.0628135 0)
(-4.14887 0.0458728 -1.83772e-18)
(-4.15694 0.0286064 -3.65203e-18)
(-4.16031 0.011037 1.81217e-18)
(-4.1586 -0.00690225 0)
(-4.15155 -0.0251117 -1.78815e-18)
(-4.13894 -0.0435348 0)
(-4.12057 -0.0620493 -1.76849e-18)
(-4.09628 -0.0806325 -1.7607e-18)
(-4.06593 -0.0991501 3.50684e-18)
(-4.02941 -0.11753 1.74726e-18)
(-3.98668 -0.135657 0)
(-3.93775 -0.153435 -3.48213e-18)
(-3.8826 -0.170674 0)
(-3.82137 -0.187329 -5.23491e-18)
(-3.75422 -0.203073 -3.50317e-18)
(-3.6812 -0.217803 -3.52088e-18)
(-3.60266 -0.231628 3.53701e-18)
(-3.51918 -0.244383 -5.32604e-18)
(-3.43073 -0.255941 0)
(-3.33785 -0.266244 0)
(-3.24097 -0.275281 3.63239e-18)
(-3.14026 -0.282818 5.51041e-18)
(-3.03632 -0.289103 0)
(-2.9298 -0.294046 -1.88196e-18)
(-2.82107 -0.297561 0)
(-2.71038 -0.29983 5.80492e-18)
(-2.59839 -0.300854 2.5961e-21)
(-2.48544 -0.300745 -2.58956e-21)
(-2.37207 -0.299546 -4.06233e-18)
(-2.25879 -0.297322 0)
(-2.14584 -0.29436 4.20759e-18)
(-2.03377 -0.290563 2.46153e-21)
(-1.92255 -0.286088 0)
(-1.81241 -0.280911 0)
(-1.7035 -0.275219 0)
(-1.59607 -0.269045 -4.63332e-18)
(-1.49034 -0.26254 0)
(-1.38641 -0.255806 0)
(-1.28438 -0.248917 0)
(-1.18432 -0.241946 0)
(-1.08625 -0.234951 0)
(-0.990206 -0.227992 -5.23466e-18)
(-0.896165 -0.221098 0)
(-0.804101 -0.214306 -5.45592e-18)
(-0.713974 -0.207626 -5.5687e-18)
(-0.625764 -0.201106 5.68334e-18)
(-0.539463 -0.194767 0)
(-0.455056 -0.188666 5.91744e-18)
(-0.372503 -0.182825 0)
(-0.291746 -0.177254 6.1591e-18)
(-0.212707 -0.171935 -6.28313e-18)
(-0.135299 -0.166868 -1.92245e-17)
(-0.0594436 -0.162042 0)
(0.0149668 -0.157473 -1.97361e-17)
(0.0879544 -0.153141 -6.56748e-18)
(0.159533 -0.148985 0)
(0.229735 -0.14495 -1.31061e-17)
(0.298592 -0.141017 -1.30927e-17)
(0.366141 -0.137184 1.96264e-17)
(0.432424 -0.133429 0)
(0.49743 -0.129751 6.54491e-18)
(0.561186 -0.12613 6.55064e-18)
(0.623781 -0.122557 1.96722e-17)
(0.685266 -0.119048 0)
(0.745642 -0.115617 0)
(0.804893 -0.11227 0)
(0.863007 -0.109015 6.5971e-18)
(0.919983 -0.105848 0)
(0.975826 -0.102772 0)
(1.03054 -0.0997837 -6.63871e-18)
(1.08415 -0.0968749 -6.65332e-18)
(1.13663 -0.0940291 0)
(1.18802 -0.0912422 0)
(1.23833 -0.0885143 -1.34031e-17)
(1.28757 -0.0858615 0)
(1.33573 -0.0832916 1.34677e-17)
(1.38283 -0.0807887 1.34986e-17)
(1.42888 -0.0783389 0)
(1.47393 -0.0759501 0)
(1.51799 -0.0736439 -1.35856e-17)
(1.56103 -0.0714242 -1.24856e-21)
(1.60308 -0.0692774 -1.19891e-21)
(1.64421 -0.0671953 0)
(1.68449 -0.0651786 -2.73336e-17)
(1.72392 -0.0632101 0)
(1.76251 -0.0612816 0)
(1.8003 -0.0593886 0)
(1.83725 -0.0575328 1.37105e-17)
(1.87334 -0.0556935 0)
(1.90862 -0.0538688 -2.74139e-17)
(1.94312 -0.0520913 -1.36995e-17)
(1.97677 -0.0503669 0)
(2.00951 -0.0486177 -1.36654e-17)
(2.04129 -0.0467561 0)
(2.07208 -0.0447307 0)
(2.10175 -0.0424753 -4.07597e-17)
(2.13013 -0.0398951 2.7105e-17)
(2.15719 -0.0369709 0)
(2.18295 -0.0338292 2.69511e-17)
(2.20742 -0.030672 -1.34456e-17)
(2.23075 -0.0277777 0)
(2.25325 -0.0254757 0)
(2.27531 -0.0240369 0)
(2.29726 -0.0235257 -4.1783e-17)
(2.31921 -0.0237157 0)
(2.34117 -0.0241367 -1.50126e-17)
(2.36304 -0.0243539 0)
(2.38469 -0.0241274 0)
(2.40591 -0.0234138 0)
(2.42641 -0.0222547 0)
(2.44592 -0.020737 0)
(2.46419 -0.018962 0)
(2.48128 -0.0171906 -4.11512e-17)
(2.49704 -0.0153978 0)
(2.51139 -0.0134024 -2.14871e-17)
(2.5241 -0.0111476 6.54284e-17)
(2.53519 -0.00831256 0)
(2.54425 -0.00427899 0)
(2.55119 0.00213898 -4.38047e-17)
(2.55356 0.0124716 -4.35845e-17)
(2.55623 0.0305111 4.32839e-17)
(2.54625 0.0622064 4.41465e-17)
(0.019558 -0.800577 4.81595e-17)
(0.0213339 -0.686588 2.75299e-17)
(0.00397472 -0.546774 1.25929e-17)
(-0.0210364 -0.411688 5.08793e-18)
(-0.0512048 -0.281787 0)
(-0.088082 -0.156544 -8.68972e-18)
(-0.133357 -0.0360128 4.23728e-18)
(-0.188336 0.0794993 0)
(-0.254067 0.189855 3.97661e-18)
(-0.331301 0.294583 0)
(-0.421248 0.393164 -7.36486e-18)
(-0.525869 0.485659 0)
(-0.647062 0.573372 -3.27671e-18)
(-0.784918 0.658274 -6.10846e-18)
(-0.936554 0.741692 5.67606e-18)
(-1.09654 0.822415 0)
(-1.25829 0.896343 4.92137e-18)
(-1.41579 0.95882 0)
(-1.56421 1.0067 0)
(-1.70035 1.03887 4.05013e-18)
(-1.82307 1.05559 0)
(-1.93253 1.05787 -3.51686e-22)
(-2.02985 1.04725 0)
(-2.11682 1.02562 0)
(-2.19551 0.995268 9.28721e-22)
(-2.26787 0.9585 2.90657e-18)
(-2.33569 0.917445 2.77949e-18)
(-2.40043 0.873986 2.66773e-18)
(-2.46325 0.829688 0)
(-2.52494 0.785671 4.95358e-18)
(-2.586 0.74278 0)
(-2.64674 0.701611 2.32014e-18)
(-2.70729 0.66253 0)
(-2.7677 0.625727 0)
(-2.8279 0.591252 -2.13425e-18)
(-2.8878 0.559051 0)
(-2.94727 0.529006 2.03476e-18)
(-3.00617 0.500947 3.50975e-22)
(-3.06436 0.474682 -3.90058e-18)
(-3.12171 0.449999 3.82483e-18)
(-3.17807 0.42669 0)
(-3.23332 0.404539 0)
(-3.28732 0.383347 1.81388e-18)
(-3.33994 0.362919 0)
(-3.39107 0.343076 1.75839e-18)
(-3.44058 0.323651 -1.73305e-18)
(-3.48833 0.304494 -1.70921e-18)
(-3.53421 0.285465 0)
(-3.57807 0.266447 1.66559e-18)
(-3.61976 0.247327 1.64565e-18)
(-3.65913 0.228015 -3.25386e-18)
(-3.696 0.208431 1.60919e-18)
(-3.73018 0.188511 1.59259e-18)
(-3.76144 0.16819 0)
(-3.78957 0.147415 0)
(-3.81432 0.126135 -1.5489e-18)
(-3.83542 0.104322 0)
(-3.8526 0.0819455 0)
(-3.86558 0.0589984 3.02873e-18)
(-3.87404 0.0354695 3.00973e-18)
(-3.87774 0.0113889 0)
(-3.87639 -0.0132237 0)
(-3.86977 -0.038282 0)
(-3.85766 -0.0636851 0)