/*--------------------------------*- C++ -*----------------------------------*\
| =========                 |                                                 |
| \\      /  F ield         | OpenFOAM: The Open Source CFD Toolbox           |
|  \\    /   O peration     | Version:  2312                                  |
|   \\  /    A nd           | Website:  www.openfoam.com                      |
|    \\/     M anipulation  |                                                 |
\*---------------------------------------------------------------------------*/
FoamFile
{
    version     2.0;
    format      ascii;
    arch        "LSB;label=32;scalar=64";
    class       volScalarField;
    location    "9.75";
    object      divPhi;
}
// * * * * * * * * * * * * * * * * * * * * * * * * * * * * * * * * * * * * * //

dimensions      [0 0 -1 0 0 0 0];

internalField   nonuniform List<scalar> 
400
(
-1.6263e-13
-7.46153e-15
5.30525e-15
7.8086e-15
-7.84672e-15
9.46144e-15
-6.62096e-15
9.42427e-15
-1.64427e-14
-1.97739e-15
1.10733e-14
1.38558e-14
-1.11883e-14
-1.12112e-14
1.99111e-14
-2.04228e-14
7.08325e-15
1.60891e-14
-1.9993e-14
2.71051e-14
2.71051e-14
1.24297e-14
9.03222e-15
1.48057e-14
-3.60351e-14
3.20163e-14
-1.18363e-14
1.51121e-14
-2.05327e-15
-6.70814e-15
4.79282e-15
-1.11989e-14
-3.43956e-14
-2.05673e-14
-1.40442e-14
-9.24101e-16
1.25158e-14
-3.14293e-14
1.65579e-15
-2.71051e-14
0
7.24784e-16
7.86106e-15
-1.87602e-14
-4.11865e-15
-1.92308e-14
-2.70202e-14
1.11442e-15
-1.33464e-14
-9.21683e-15
-1.17808e-14
-3.12953e-14
1.56469e-14
3.6527e-15
1.73262e-14
-3.3456e-14
3.84961e-14
-1.71086e-14
2.10148e-14
0
-2.71051e-14
-6.82749e-15
2.15915e-14
-8.17724e-16
7.04948e-15
-8.15722e-15
-4.8819e-15
6.16059e-15
-1.06789e-14
6.2991e-15
-2.92831e-14
2.53398e-14
-1.99669e-14
-1.01338e-15
-2.18934e-14
-2.6221e-14
6.90661e-15
1.08489e-14
1.11884e-14
0
0
-9.96977e-15
-6.85352e-15
4.22262e-15
1.53829e-14
2.44477e-15
2.24856e-14
5.66132e-15
-2.73256e-14
7.63107e-15
-1.92049e-14
-1.31721e-14
3.02057e-14
-2.37303e-14
1.34117e-14
5.06192e-15
9.43553e-16
1.74174e-14
3.44222e-14
0
0
-2.10021e-14
-1.29401e-14
3.61033e-15
2.84319e-15
-1.52032e-14
8.47742e-15
-4.5844e-15
2.11528e-14
-1.80412e-16
1.10197e-14
-1.21216e-14
-6.68262e-15
1.54226e-14
8.43989e-15
2.39087e-14
-2.37536e-14
-5.926e-15
-1.18258e-14
2.71051e-14
0
1.22271e-14
-2.77222e-14
-9.62109e-15
1.39421e-14
1.84528e-14
7.98483e-15
8.08714e-16
-1.10614e-14
1.04551e-14
1.20371e-14
-1.76609e-14
-1.89761e-15
-9.77854e-15
1.81784e-15
-1.41139e-14
6.00391e-15
-3.19112e-14
-1.60924e-14
0
0
1.92061e-14
1.13359e-15
-1.12597e-14
-1.19713e-15
-8.06667e-15
-8.85623e-16
9.75192e-15
1.49822e-14
2.52418e-14
1.53211e-14
-1.04019e-14
-1.42696e-14
-2.18643e-14
-6.3585e-15
1.9584e-14
-5.08054e-15
2.62762e-14
-1.94371e-15
0
0
-4.00174e-15
-2.60015e-14
4.02493e-15
-1.27744e-14
7.82103e-15
-1.38293e-14
4.15674e-14
-1.48555e-14
-7.01128e-15
-1.03986e-15
-1.9455e-14
3.67707e-14
8.51913e-15
-1.31707e-14
-5.07067e-15
-7.47327e-15
-1.31683e-14
2.79029e-14
0
0
-2.05952e-14
-1.41814e-14
1.90336e-14
-4.65608e-14
8.28742e-15
7.90913e-17
2.94476e-15
1.477e-14
5.61919e-15
-1.36537e-15
6.47701e-15
5.64503e-15
7.96216e-15
-3.11195e-14
-8.59853e-17
-1.03589e-14
-9.64473e-16
-1.18968e-14
0
2.71051e-14
8.02959e-15
4.69599e-15
-2.93573e-15
1.39815e-14
-1.62972e-14
1.10627e-14
2.63029e-14
-2.85411e-15
1.14088e-14
7.68598e-15
-1.74016e-15
-4.82993e-15
1.13199e-14
-8.25034e-15
1.01017e-15
-1.83768e-14
1.74953e-14
-3.38277e-14
0
0
1.10621e-14
1.36896e-14
9.24136e-15
7.3686e-16
7.38569e-15
6.36962e-15
4.92157e-15
-2.02741e-15
-9.43153e-16
-5.48055e-15
-1.15861e-14
2.58594e-14
3.98451e-16
-2.82419e-14
1.01126e-14
3.04683e-14
-1.8895e-14
1.98957e-14
0
0
2.12913e-14
-2.12661e-14
-2.48314e-15
-2.34874e-15
3.0233e-14
-6.88868e-16
-2.63609e-14
3.50159e-14
-2.23147e-14
3.4756e-15
-3.77519e-14
1.57477e-14
2.55017e-15
-1.46378e-14
3.74045e-14
-2.68544e-15
3.33976e-15
3.41715e-15
-2.71051e-14
0
-1.68602e-14
2.04725e-14
-2.23659e-14
1.66532e-14
-4.94754e-15
1.89908e-14
-1.03454e-14
2.84975e-14
-1.66118e-14
1.72752e-14
-5.52882e-15
5.71023e-15
1.66246e-14
1.1527e-14
-2.56287e-15
2.5085e-14
3.79651e-15
1.00079e-14
0
-2.71051e-14
-2.20485e-17
-1.11767e-14
-1.81831e-14
-2.52088e-15
-5.57356e-15
-6.43873e-15
-1.72236e-14
3.21751e-14
-6.39345e-15
-9.21783e-15
-1.17559e-14
2.7874e-14
-1.85596e-14
3.12729e-14
-1.89923e-14
1.20323e-14
-1.04161e-14
-1.45281e-14
2.71051e-14
0
8.51884e-15
-1.34259e-14
-3.91269e-15
7.57241e-15
8.4566e-15
-4.01483e-15
1.12541e-14
-2.49492e-15
-3.35443e-16
1.85774e-14
-2.95268e-15
-8.7367e-15
2.83903e-15
-2.46757e-15
1.11682e-14
2.77495e-14
-2.23595e-14
1.44838e-14
0
2.71051e-14
4.46408e-15
-4.78298e-15
1.23333e-14
1.98587e-14
7.39407e-16
-7.45585e-15
-2.29067e-15
-1.02214e-14
1.12025e-14
6.49769e-15
-2.9804e-14
4.06097e-15
-3.89863e-16
1.63804e-15
2.89822e-14
7.5355e-15
-4.27771e-15
7.64653e-15
0
0
7.41397e-15
-5.34537e-15
6.79856e-15
-1.15416e-14
1.35321e-14
-1.3895e-14
-1.16337e-14
-8.95019e-15
2.03103e-14
2.08704e-14
-9.96645e-15
-1.99055e-14
1.56218e-14
-6.45747e-15
-4.25308e-15
2.36908e-14
-8.7072e-15
-9.17951e-15
0
0
4.43462e-16
-8.81226e-15
1.84745e-14
-9.644e-15
1.51536e-14
3.56562e-14
-1.87949e-14
-1.18842e-14
-1.20155e-14
-5.39729e-15
-7.72563e-15
9.27235e-15
-1.4217e-15
-1.77135e-14
-4.06732e-16
-1.25708e-14
-4.81026e-15
-2.61796e-15
0
0
0
-2.71051e-14
0
0
0
0
2.71051e-14
-2.71051e-14
-2.71051e-14
0
0
0
0
2.71051e-14
0
0
0
0
0
)
;

boundaryField
{
    movingWall
    {
        type            extrapolatedCalculated;
        value           nonuniform List<scalar> 
20
(
0
0
-2.71051e-14
0
0
0
0
2.71051e-14
-2.71051e-14
-2.71051e-14
0
0
0
0
2.71051e-14
0
0
0
0
0
)
;
    }
    fixedWalls
    {
        type            extrapolatedCalculated;
        value           nonuniform List<scalar> 
60
(
-1.6263e-13
2.71051e-14
0
-2.71051e-14
0
0
0
0
0
0
2.71051e-14
0
0
0
-2.71051e-14
0
2.71051e-14
0
0
0
2.71051e-14
-2.71051e-14
0
0
0
2.71051e-14
0
0
0
0
0
0
-2.71051e-14
0
2.71051e-14
0
0
0
0
0
-1.6263e-13
-7.46153e-15
5.30525e-15
7.8086e-15
-7.84672e-15
9.46144e-15
-6.62096e-15
9.42427e-15
-1.64427e-14
-1.97739e-15
1.10733e-14
1.38558e-14
-1.11883e-14
-1.12112e-14
1.99111e-14
-2.04228e-14
7.08325e-15
1.60891e-14
-1.9993e-14
2.71051e-14
)
;
    }
    frontAndBack
    {
        type            empty;
    }
}


// ************************************************************************* //
