/*--------------------------------*- C++ -*----------------------------------*\
| =========                 |                                                 |
| \\      /  F ield         | OpenFOAM: The Open Source CFD Toolbox           |
|  \\    /   O peration     | Version:  2312                                  |
|   \\  /    A nd           | Website:  www.openfoam.com                      |
|    \\/     M anipulation  |                                                 |
\*---------------------------------------------------------------------------*/
FoamFile
{
    version     2.0;
    format      ascii;
    arch        "LSB;label=32;scalar=64";
    class       volScalarField;
    location    "9.75";
    object      divU;
}
// * * * * * * * * * * * * * * * * * * * * * * * * * * * * * * * * * * * * * //

dimensions      [0 0 -1 0 0 0 0];

internalField   nonuniform List<scalar> 
400
(
1.61004e-11
-2.23783e-12
4.55075e-13
-1.41988e-13
2.13298e-15
1.38714e-14
6.55592e-15
-1.79503e-14
3.88024e-16
-1.7426e-14
6.62472e-15
1.15462e-14
-6.8995e-15
9.50608e-15
1.3271e-14
-2.6341e-14
3.04617e-14
-4.3879e-14
8.91014e-16
0
-2.79995e-11
3.66563e-12
-8.18293e-13
3.6464e-13
-7.28761e-14
1.41201e-15
-5.8762e-14
3.43769e-14
2.71478e-14
1.04202e-16
1.03604e-14
6.57648e-15
-7.522e-15
-4.28231e-14
4.44151e-14
-2.59345e-14
1.72623e-14
4.7463e-15
-1.50572e-14
2.71051e-14
7.80626e-12
-1.24149e-12
2.33754e-13
-1.35836e-13
5.37124e-14
-1.59865e-14
1.30436e-14
3.88583e-14
-1.031e-14
-5.68667e-15
-1.55759e-14
3.47517e-14
-1.99156e-14
3.36154e-14
-1.70256e-14
-2.38825e-14
-1.01524e-14
-2.78094e-15
1.00195e-14
-2.71051e-14
1.46909e-11
-1.35659e-12
2.2981e-13
-9.49605e-14
7.87248e-15
-6.68744e-15
9.43001e-16
7.71781e-15
-1.10748e-14
-6.10455e-15
2.04616e-14
-3.80192e-15
1.91533e-14
2.58405e-15
-1.46643e-14
-3.82024e-14
-1.89009e-15
-3.28998e-15
7.28186e-14
2.71051e-14
-2.06269e-11
1.9862e-12
-3.19185e-13
1.80023e-13
2.07772e-14
-2.45362e-14
-1.43656e-14
2.75892e-14
-5.62565e-14
1.60821e-14
3.83638e-14
-3.38563e-14
-4.79177e-15
8.3041e-16
1.504e-14
-7.74722e-15
-2.3104e-14
-2.74002e-14
2.56523e-14
-2.71051e-14
1.14925e-11
-7.83546e-13
1.55955e-13
-9.3451e-14
1.76713e-14
-4.72733e-14
3.06994e-14
-7.90698e-15
7.48544e-15
9.41997e-15
4.45982e-14
-2.15669e-14
-1.00161e-14
-1.03377e-14
-2.10822e-14
-4.17838e-14
5.20034e-15
4.14913e-14
2.1452e-14
-2.71051e-14
1.05439e-11
-2.29824e-12
4.00035e-13
-1.85355e-13
4.71194e-14
-3.35101e-14
5.1264e-14
9.04585e-15
-2.3761e-14
3.27344e-15
-1.48962e-14
-1.63844e-14
3.87597e-14
-3.68547e-15
1.64441e-15
1.16372e-14
-3.17838e-14
-1.9737e-14
-1.07658e-14
0
-2.60209e-11
4.36035e-12
-8.77709e-13
3.79121e-13
2.935e-15
-1.65292e-15
-3.73178e-14
4.57657e-15
3.62877e-14
1.97027e-14
-1.94525e-14
2.14589e-14
-1.9568e-14
-2.16e-14
-1.08243e-14
2.24218e-14
3.72128e-14
3.69435e-14
-3.25525e-14
0
2.00848e-11
-2.94588e-12
4.9139e-13
-2.02992e-13
5.05822e-15
-3.02407e-14
6.28688e-15
-1.00897e-14
5.24767e-14
-1.03668e-15
6.31882e-15
2.8079e-15
2.84825e-14
1.37288e-15
2.37595e-14
-3.20016e-14
-2.04397e-14
6.7458e-15
-4.99005e-15
0
-3.11708e-12
3.19076e-13
-8.55663e-14
-6.38234e-16
5.3855e-14
-1.67007e-14
4.13567e-14
-2.40093e-14
-2.03652e-14
6.08309e-15
-3.60465e-14
6.00222e-15
4.23294e-14
1.11104e-14
-3.63898e-14
-1.32072e-16
-2.64946e-15
5.8826e-14
1.82054e-14
-2.71051e-14
-1.11673e-11
2.23042e-12
-3.71519e-13
1.83823e-13
-4.54883e-14
2.24339e-14
-4.95982e-14
-4.29303e-15
5.11042e-14
8.6984e-15
1.7509e-14
7.40618e-15
-4.03394e-14
5.25121e-15
-1.14975e-14
2.89754e-15
-1.86983e-14
-1.53861e-14
-4.48371e-15
0
1.9082e-11
-4.62589e-12
8.86362e-13
-3.90019e-13
1.44069e-13
-3.54755e-14
5.53636e-15
4.05418e-15
8.9939e-15
2.47853e-14
-1.02018e-13
-2.88125e-16
2.9154e-14
8.68632e-15
-2.72823e-14
1.33012e-14
3.12046e-14
1.93373e-14
-7.80889e-15
0
-1.99493e-11
4.68308e-12
-8.98125e-13
3.84241e-13
-1.05611e-13
4.18225e-14
-5.47827e-15
1.0064e-14
-3.6012e-14
1.04573e-15
1.64844e-14
5.80057e-14
3.46455e-15
2.0789e-15
1.93756e-14
-2.40512e-14
-7.37378e-15
-1.15599e-14
-2.25224e-14
5.42101e-14
1.34441e-11
-3.10552e-12
5.67361e-13
-2.43448e-13
4.462e-14
-4.36057e-14
5.2888e-14
-4.60857e-14
4.28367e-14
-2.08552e-15
-1.75411e-14
6.61711e-15
-4.46406e-14
1.50855e-14
-2.29329e-14
-4.95458e-15
3.07197e-14
1.30432e-14
6.79029e-15
-2.71051e-14
1.87025e-12
6.67064e-13
-2.17908e-13
8.71427e-14
-1.2662e-14
6.11312e-14
-3.4378e-14
3.51376e-14
-2.62038e-14
-6.70327e-14
2.75293e-14
5.92486e-14
5.99011e-14
-2.44289e-14
1.45133e-14
2.03306e-14
-2.45155e-14
9.53788e-15
-1.37949e-14
2.71051e-14
-1.94343e-11
2.19006e-12
-3.58128e-13
1.32917e-13
-6.86497e-14
2.23455e-15
-4.14381e-15
4.57944e-14
-8.97784e-16
-3.3151e-14
-2.1544e-14
-1.29545e-14
3.14592e-14
1.5033e-14
-1.97327e-14
-3.30421e-14
-4.84223e-14
7.26995e-14
4.63401e-14
-2.71051e-14
2.18467e-11
-2.73651e-12
5.50654e-13
-2.25895e-13
6.37943e-14
8.6072e-16
-9.18768e-15
-2.92812e-14
6.74017e-15
-7.45267e-15
2.05266e-14
-7.62628e-16
-7.77283e-15
-4.09478e-14
3.76049e-14
2.07363e-14
4.19827e-14
-4.53009e-14
1.22705e-15
0
-1.35525e-13
6.64735e-13
-6.75856e-14
7.6786e-14
-1.5532e-14
-1.22209e-14
-1.02419e-14
-2.36017e-14
2.224e-14
-1.55437e-14
-4.12851e-14
1.51127e-14
-1.4522e-14
5.31478e-14
-3.28521e-15
-1.18132e-14
-6.49213e-14
5.29176e-14
5.078e-14
-5.42101e-14
-2.33103e-11
2.25045e-12
-5.35601e-13
1.5468e-13
8.83514e-15
-1.34809e-14
-2.28518e-14
4.75846e-14
-4.68169e-15
1.85721e-14
2.2583e-14
-7.46846e-17
3.42105e-14
-3.35141e-14
9.15012e-15
-2.24996e-15
-9.48424e-15
-8.77585e-15
-7.88851e-15
0
1.48265e-11
-1.84314e-12
4.33681e-13
-1.6263e-13
5.42101e-14
0
0
0
-2.71051e-14
0
-2.71051e-14
-2.71051e-14
5.42101e-14
0
0
2.71051e-14
-2.71051e-14
0
2.71051e-14
-5.42101e-14
)
;

boundaryField
{
    movingWall
    {
        type            extrapolatedCalculated;
        value           nonuniform List<scalar> 
20
(
1.48265e-11
-1.84314e-12
4.33681e-13
-1.6263e-13
5.42101e-14
0
0
0
-2.71051e-14
0
-2.71051e-14
-2.71051e-14
5.42101e-14
0
0
2.71051e-14
-2.71051e-14
0
2.71051e-14
-5.42101e-14
)
;
    }
    fixedWalls
    {
        type            extrapolatedCalculated;
        value           nonuniform List<scalar> 
60
(
1.61004e-11
-2.79995e-11
7.80626e-12
1.46909e-11
-2.06269e-11
1.14925e-11
1.05439e-11
-2.60209e-11
2.00848e-11
-3.11708e-12
-1.11673e-11
1.9082e-11
-1.99493e-11
1.34441e-11
1.87025e-12
-1.94343e-11
2.18467e-11
-1.35525e-13
-2.33103e-11
1.48265e-11
0
2.71051e-14
-2.71051e-14
2.71051e-14
-2.71051e-14
-2.71051e-14
0
0
0
-2.71051e-14
0
0
5.42101e-14
-2.71051e-14
2.71051e-14
-2.71051e-14
0
-5.42101e-14
0
-5.42101e-14
1.61004e-11
-2.23783e-12
4.55075e-13
-1.41988e-13
2.13298e-15
1.38714e-14
6.55592e-15
-1.79503e-14
3.88024e-16
-1.7426e-14
6.62472e-15
1.15462e-14
-6.8995e-15
9.50608e-15
1.3271e-14
-2.6341e-14
3.04617e-14
-4.3879e-14
8.91014e-16
0
)
;
    }
    frontAndBack
    {
        type            empty;
    }
}


// ************************************************************************* //
