/*--------------------------------*- C++ -*----------------------------------*\
| =========                 |                                                 |
| \\      /  F ield         | OpenFOAM: The Open Source CFD Toolbox           |
|  \\    /   O peration     | Version:  2312                                  |
|   \\  /    A nd           | Website:  www.openfoam.com                      |
|    \\/     M anipulation  |                                                 |
\*---------------------------------------------------------------------------*/
FoamFile
{
    version     2.0;
    format      ascii;
    arch        "LSB;label=32;scalar=64";
    class       volScalarField;
    location    "9.75";
    object      enstrophyField;
}
// * * * * * * * * * * * * * * * * * * * * * * * * * * * * * * * * * * * * * //

dimensions      [0 0 -2 0 0 0 0];

internalField   nonuniform List<scalar> 
400
(
6.11167e-23
1.05738e-22
5.11743e-24
2.99148e-25
4.09325e-27
3.49674e-28
3.33854e-28
1.99114e-29
9.515e-29
3.85866e-28
9.19626e-28
3.12691e-29
2.51642e-29
2.16385e-27
1.80166e-27
1.21843e-27
8.53952e-31
8.45372e-31
6.05909e-30
3.52248e-29
5.04118e-26
4.21289e-25
7.50486e-26
5.37827e-27
1.51032e-26
3.61915e-27
3.03136e-27
8.70767e-28
8.57986e-28
2.32059e-28
9.68037e-29
1.609e-29
2.60503e-27
3.69394e-29
1.05989e-28
1.757e-27
2.11797e-27
6.78963e-31
5.3748e-29
6.07246e-29
2.03825e-23
7.13614e-23
4.21187e-24
1.57017e-25
1.24122e-26
9.6181e-28
4.91128e-27
7.01546e-27
5.28412e-27
5.37314e-27
3.87496e-27
1.28323e-27
8.10641e-28
4.2489e-27
8.6044e-27
1.26059e-29
5.9179e-28
4.85291e-28
1.16468e-28
2.38556e-30
6.78315e-24
3.31193e-23
1.69209e-24
1.51632e-25
2.80944e-27
3.05175e-27
6.40166e-28
8.8734e-29
8.18856e-30
5.02186e-29
1.8766e-27
1.84617e-28
1.13722e-28
8.90685e-29
2.91148e-29
1.71517e-30
3.33087e-28
2.93329e-28
7.76209e-30
8.50908e-28
1.02605e-24
1.80223e-24
9.02716e-26
3.02784e-27
3.35521e-27
5.12051e-29
1.25937e-27
3.41295e-27
2.01269e-27
2.35732e-27
6.647e-28
1.8478e-27
5.36049e-28
1.13173e-27
1.83044e-29
1.30944e-28
5.65075e-28
6.92827e-30
9.39064e-30
2.24566e-28
2.79739e-23
6.90803e-23
3.62307e-24
2.37244e-25
2.42456e-27
3.47755e-27
3.16678e-28
1.29439e-28
1.83449e-27
5.75367e-27
8.50745e-27
3.67982e-27
8.13034e-28
8.70877e-29
3.02038e-28
5.2e-28
1.52074e-27
1.49888e-30
1.62773e-29
1.53256e-29
3.67242e-23
8.67769e-23
5.18205e-24
1.86217e-25
6.70637e-27
4.7506e-27
9.6305e-28
1.88095e-27
4.74877e-27
4.73019e-27
7.2272e-31
5.11439e-28
1.9805e-30
1.62744e-27
5.68244e-27
1.77997e-29
3.22361e-27
6.56201e-28
1.19087e-28
4.4625e-28
4.33475e-26
2.95442e-24
1.16661e-25
1.10912e-26
1.99309e-27
1.21413e-26
9.8917e-27
2.28654e-27
1.40069e-28
3.49498e-27
5.21989e-27
5.4181e-27
2.21951e-27
1.0158e-28
1.46832e-28
6.35855e-32
1.19661e-27
4.54209e-28
1.8832e-29
1.89921e-29
3.50963e-23
5.63799e-23
3.04602e-24
1.61924e-25
9.67141e-28
8.34362e-27
3.39624e-27
1.81148e-27
3.70433e-27
1.5109e-27
2.55749e-28
2.955e-27
1.28383e-27
1.51784e-29
2.41714e-32
1.6915e-29
1.89136e-27
1.96721e-27
2.40951e-28
1.38392e-29
7.12107e-23
1.42353e-22
7.02159e-24
5.01199e-25
2.77968e-27
8.18565e-27
1.9385e-27
8.58564e-29
9.22206e-30
2.65826e-29
3.4722e-29
1.49675e-27
3.12553e-28
3.09444e-31
1.82988e-29
6.35944e-29
3.33657e-29
1.11748e-27
5.50173e-28
1.66276e-28
7.52884e-23
9.83983e-23
5.83664e-24
2.31087e-25
5.59682e-26
5.1398e-27
5.79679e-27
1.13864e-27
3.41324e-27
1.25389e-27
6.30808e-28
3.04268e-28
2.90401e-28
3.16059e-27
9.9008e-27
6.58736e-28
1.00652e-28
9.68842e-29
1.27407e-28
5.25406e-28
2.22742e-23
2.14245e-23
1.43699e-24
3.01063e-26
1.49957e-26
9.27442e-28
3.57417e-28
8.0012e-28
4.57101e-27
7.80035e-27
6.675e-27
3.20908e-27
5.33131e-27
1.46545e-27
1.62731e-27
4.23294e-28
2.98144e-27
4.33748e-32
4.43785e-27
4.49287e-29
4.76511e-24
4.09645e-24
3.24713e-25
4.08016e-27
1.64463e-26
1.0319e-26
7.9594e-28
4.45605e-29
5.6238e-28
3.22444e-29
1.29558e-29
4.5772e-28
8.41157e-29
5.64628e-27
6.07157e-27
3.49455e-27
1.4405e-28
7.4456e-29
1.88199e-31
8.15835e-29
3.91408e-23
6.13801e-23
3.47992e-24
1.87149e-25
1.97052e-26
2.4944e-27
2.56736e-27
1.80705e-29
6.79126e-29
1.50699e-28
3.07345e-29
4.15724e-27
2.4543e-27
6.5324e-28
3.89366e-28
4.21516e-28
1.34423e-27
4.51522e-28
4.13229e-27
9.73095e-30
5.31985e-23
1.06144e-22
5.37135e-24
3.72806e-25
8.10425e-27
6.14229e-27
2.39272e-27
7.276e-28
2.39024e-28
4.70679e-28
3.71879e-31
2.0534e-27
4.46718e-28
8.6965e-27
5.0556e-27
5.7296e-27
1.22274e-28
5.51993e-28
3.06819e-28
8.7751e-28
1.96105e-23
3.5441e-23
1.81635e-24
8.74512e-26
4.91179e-27
3.97118e-27
8.7778e-29
4.1122e-30
5.09164e-31
1.69733e-27
2.06831e-27
2.5307e-28
1.49239e-27
1.76357e-27
4.79097e-29
8.36971e-28
2.2735e-31
1.0577e-29
5.38268e-29
3.63961e-29
1.19057e-25
9.05804e-24
3.43463e-25
3.14341e-26
6.37141e-27
1.33743e-27
8.75432e-27
5.2333e-27
5.73088e-27
7.81411e-27
5.11309e-30
3.03534e-27
1.05563e-31
2.33576e-30
4.73053e-28
6.85821e-29
2.82083e-28
1.66661e-28
1.03284e-30
3.94514e-28
1.61848e-23
7.6576e-23
3.98871e-24
1.9793e-25
2.08314e-26
5.26114e-27
1.94805e-29
2.55621e-27
3.86781e-27
2.8396e-28
1.28615e-27
5.02443e-28
2.29501e-27
2.22514e-29
7.30874e-28
1.95449e-28
1.73555e-28
3.69127e-27
1.32412e-29
3.29816e-30
5.01531e-24
7.56942e-24
5.84654e-25
9.67821e-27
1.24183e-26
3.82457e-28
5.19838e-28
9.8441e-30
1.07973e-28
8.6616e-28
1.7525e-33
1.70896e-27
3.47263e-30
6.58926e-28
1.36574e-29
3.69841e-28
6.20055e-28
1.32796e-27
2.82936e-28
4.15875e-29
2.4237e-23
5.3444e-23
2.25937e-24
1.61277e-25
2.09789e-27
5.44868e-27
2.19151e-27
1.23565e-27
4.21524e-27
2.24173e-27
1.95995e-27
2.71924e-29
1.27569e-27
6.31903e-29
5.69544e-31
6.36096e-28
4.11538e-28
5.81901e-31
2.54569e-28
6.4345e-28
)
;

boundaryField
{
    movingWall
    {
        type            calculated;
        value           nonuniform List<scalar> 
20
(
1.05764e-22
7.93878e-23
1.95526e-24
4.01502e-25
1.84085e-26
5.57572e-26
3.15866e-26
3.43104e-26
1.7698e-26
5.15787e-27
4.72556e-27
2.71924e-29
8.2865e-28
2.66119e-27
9.39249e-28
1.403e-27
4.08627e-27
5.81901e-31
7.94726e-28
4.76153e-27
)
;
    }
    fixedWalls
    {
        type            calculated;
        value           nonuniform List<scalar> 
60
(
1.8943e-21
9.97858e-24
1.34169e-21
5.97789e-22
3.33877e-23
1.26951e-21
1.62393e-21
5.08649e-23
1.04818e-21
2.54223e-21
1.83908e-21
4.1701e-22
8.10603e-23
1.1495e-21
1.92937e-21
6.31569e-22
1.51498e-22
1.37063e-21
1.53063e-22
9.31536e-22
8.73072e-29
3.72267e-28
4.24705e-28
1.72804e-27
7.85406e-29
1.78208e-28
7.5706e-29
2.78858e-29
1.35116e-28
2.43859e-29
3.94975e-28
6.33976e-28
1.54005e-28
8.99579e-28
1.89374e-27
6.70495e-30
5.13857e-28
9.46379e-30
1.41742e-28
1.26341e-27
1.57491e-22
1.40155e-22
4.56492e-24
6.0683e-25
9.66996e-27
3.08736e-26
2.89474e-26
1.46762e-26
5.26469e-27
3.49273e-28
1.55306e-27
3.12691e-29
1.45422e-26
7.39955e-27
8.11656e-27
1.17395e-29
9.04965e-27
8.45372e-31
1.14673e-27
3.52248e-29
)
;
    }
    frontAndBack
    {
        type            empty;
    }
}


// ************************************************************************* //
