/*--------------------------------*- C++ -*----------------------------------*\
| =========                 |                                                 |
| \\      /  F ield         | OpenFOAM: The Open Source CFD Toolbox           |
|  \\    /   O peration     | Version:  2312                                  |
|   \\  /    A nd           | Website:  www.openfoam.com                      |
|    \\/     M anipulation  |                                                 |
\*---------------------------------------------------------------------------*/
FoamFile
{
    version     2.0;
    format      ascii;
    arch        "LSB;label=32;scalar=64";
    class       volScalarField;
    location    "9.75";
    object      epsilonzeroGrad;
}
// * * * * * * * * * * * * * * * * * * * * * * * * * * * * * * * * * * * * * //

dimensions      [0 2 -3 0 0 0 0];

internalField   nonuniform List<scalar> 
400
(
6.41911e-07
6.41911e-07
6.41911e-07
6.4191e-07
6.4191e-07
6.4191e-07
6.4191e-07
6.4191e-07
6.4191e-07
6.4191e-07
6.41909e-07
6.4191e-07
6.41909e-07
6.4191e-07
6.41909e-07
6.4191e-07
6.41909e-07
6.41909e-07
6.41909e-07
6.41909e-07
6.53583e-07
6.47376e-07
6.47909e-07
6.48128e-07
6.48566e-07
6.48792e-07
6.49231e-07
6.49462e-07
6.49901e-07
6.50137e-07
6.50577e-07
6.50819e-07
6.5126e-07
6.51507e-07
6.51948e-07
6.52201e-07
6.52642e-07
6.52901e-07
6.53122e-07
6.53474e-07
6.72828e-07
6.66263e-07
6.66837e-07
6.67071e-07
6.67541e-07
6.67781e-07
6.6825e-07
6.68494e-07
6.68962e-07
6.6921e-07
6.69678e-07
6.6993e-07
6.70398e-07
6.70654e-07
6.71121e-07
6.71381e-07
6.71848e-07
6.72112e-07
6.72345e-07
6.72711e-07
6.94301e-07
6.87456e-07
6.88054e-07
6.88298e-07
6.88788e-07
6.89038e-07
6.89527e-07
6.89782e-07
6.9027e-07
6.90529e-07
6.91016e-07
6.91279e-07
6.91767e-07
6.92033e-07
6.9252e-07
6.92792e-07
6.93278e-07
6.93553e-07
6.93796e-07
6.94178e-07
7.13633e-07
7.06532e-07
7.07152e-07
7.07405e-07
7.07913e-07
7.08173e-07
7.0868e-07
7.08944e-07
7.0945e-07
7.09719e-07
7.10224e-07
7.10497e-07
7.11003e-07
7.11279e-07
7.11785e-07
7.12066e-07
7.1257e-07
7.12856e-07
7.13108e-07
7.13504e-07
7.28712e-07
7.21409e-07
7.22047e-07
7.22307e-07
7.22829e-07
7.23096e-07
7.23617e-07
7.23889e-07
7.2441e-07
7.24686e-07
7.25206e-07
7.25487e-07
7.26007e-07
7.26291e-07
7.26811e-07
7.271e-07
7.27619e-07
7.27913e-07
7.28173e-07
7.28579e-07
7.3938e-07
7.31931e-07
7.32581e-07
7.32847e-07
7.33379e-07
7.33652e-07
7.34183e-07
7.3446e-07
7.34991e-07
7.35273e-07
7.35804e-07
7.36089e-07
7.3662e-07
7.3691e-07
7.3744e-07
7.37735e-07
7.38264e-07
7.38564e-07
7.38829e-07
7.39244e-07
7.46509e-07
7.38962e-07
7.39621e-07
7.3989e-07
7.40429e-07
7.40705e-07
7.41244e-07
7.41524e-07
7.42062e-07
7.42348e-07
7.42885e-07
7.43175e-07
7.43712e-07
7.44006e-07
7.44543e-07
7.44842e-07
7.45378e-07
7.45682e-07
7.4595e-07
7.4637e-07
7.51224e-07
7.43612e-07
7.44277e-07
7.44548e-07
7.45092e-07
7.4537e-07
7.45913e-07
7.46196e-07
7.46739e-07
7.47026e-07
7.47569e-07
7.47861e-07
7.48403e-07
7.48699e-07
7.49241e-07
7.49542e-07
7.50082e-07
7.5039e-07
7.50659e-07
7.51084e-07
7.54487e-07
7.46831e-07
7.475e-07
7.47772e-07
7.48319e-07
7.48599e-07
7.49145e-07
7.4943e-07
7.49976e-07
7.50265e-07
7.50811e-07
7.51104e-07
7.51649e-07
7.51948e-07
7.52492e-07
7.52796e-07
7.53339e-07
7.53648e-07
7.5392e-07
7.54346e-07
7.56986e-07
7.49294e-07
7.49966e-07
7.5024e-07
7.50789e-07
7.51071e-07
7.51619e-07
7.51905e-07
7.52453e-07
7.52744e-07
7.53292e-07
7.53587e-07
7.54134e-07
7.54434e-07
7.54981e-07
7.55286e-07
7.55832e-07
7.56142e-07
7.56415e-07
7.56843e-07
7.59154e-07
7.51434e-07
7.52108e-07
7.52383e-07
7.52934e-07
7.53217e-07
7.53767e-07
7.54054e-07
7.54604e-07
7.54896e-07
7.55446e-07
7.55742e-07
7.56292e-07
7.56593e-07
7.57142e-07
7.57448e-07
7.57996e-07
7.58307e-07
7.58581e-07
7.59011e-07
7.61255e-07
7.53505e-07
7.54182e-07
7.54458e-07
7.55012e-07
7.55295e-07
7.55848e-07
7.56136e-07
7.56688e-07
7.56981e-07
7.57533e-07
7.5783e-07
7.58382e-07
7.58684e-07
7.59235e-07
7.59542e-07
7.60092e-07
7.60404e-07
7.60679e-07
7.61111e-07
7.63428e-07
7.55649e-07
7.56328e-07
7.56606e-07
7.57161e-07
7.57446e-07
7.58e-07
7.5829e-07
7.58844e-07
7.59138e-07
7.59692e-07
7.5999e-07
7.60544e-07
7.60847e-07
7.614e-07
7.61709e-07
7.62261e-07
7.62575e-07
7.6285e-07
7.63284e-07
7.65728e-07
7.57918e-07
7.586e-07
7.58878e-07
7.59436e-07
7.59722e-07
7.60279e-07
7.60569e-07
7.61126e-07
7.61421e-07
7.61977e-07
7.62277e-07
7.62833e-07
7.63137e-07
7.63692e-07
7.64002e-07
7.64556e-07
7.64871e-07
7.65148e-07
7.65583e-07
7.68125e-07
7.60283e-07
7.60968e-07
7.61247e-07
7.61808e-07
7.62094e-07
7.62654e-07
7.62945e-07
7.63504e-07
7.638e-07
7.64359e-07
7.6466e-07
7.65218e-07
7.65524e-07
7.66081e-07
7.66392e-07
7.66949e-07
7.67265e-07
7.67543e-07
7.6798e-07
7.70501e-07
7.62626e-07
7.63314e-07
7.63594e-07
7.64157e-07
7.64444e-07
7.65006e-07
7.65299e-07
7.6586e-07
7.66157e-07
7.66718e-07
7.6702e-07
7.67581e-07
7.67888e-07
7.68448e-07
7.6876e-07
7.69319e-07
7.69636e-07
7.69916e-07
7.70354e-07
7.72645e-07
7.64743e-07
7.65433e-07
7.65714e-07
7.66278e-07
7.66567e-07
7.6713e-07
7.67424e-07
7.67987e-07
7.68286e-07
7.68848e-07
7.69152e-07
7.69714e-07
7.70022e-07
7.70584e-07
7.70898e-07
7.71458e-07
7.71777e-07
7.72057e-07
7.72498e-07
7.7429e-07
7.66514e-07
7.67182e-07
7.67454e-07
7.68002e-07
7.68284e-07
7.68832e-07
7.69122e-07
7.69671e-07
7.69967e-07
7.70517e-07
7.7082e-07
7.71372e-07
7.71681e-07
7.72234e-07
7.72551e-07
7.73104e-07
7.73429e-07
7.73706e-07
7.74146e-07
7.7505e-07
7.7505e-07
7.75049e-07
7.7505e-07
7.75048e-07
7.7505e-07
7.75048e-07
7.75049e-07
7.75048e-07
7.75049e-07
7.75048e-07
7.75048e-07
7.75048e-07
7.75048e-07
7.75048e-07
7.75048e-07
7.75048e-07
7.75048e-07
7.75048e-07
7.75048e-07
)
;

boundaryField
{
    movingWall
    {
        type            zeroGradient;
    }
    fixedWalls
    {
        type            zeroGradient;
    }
    frontAndBack
    {
        type            empty;
    }
}


// ************************************************************************* //
