/*--------------------------------*- C++ -*----------------------------------*\
| =========                 |                                                 |
| \\      /  F ield         | OpenFOAM: The Open Source CFD Toolbox           |
|  \\    /   O peration     | Version:  2312                                  |
|   \\  /    A nd           | Website:  www.openfoam.com                      |
|    \\/     M anipulation  |                                                 |
\*---------------------------------------------------------------------------*/
FoamFile
{
    version     2.0;
    format      ascii;
    arch        "LSB;label=32;scalar=64";
    class       volScalarField;
    location    "9.75";
    object      flowTypeField;
}
// * * * * * * * * * * * * * * * * * * * * * * * * * * * * * * * * * * * * * //

dimensions      [0 0 0 0 0 0 0];

internalField   nonuniform List<scalar> 
400
(
0.428733
0.0560638
0.0379898
0.000808843
0.504559
0.106631
0.432819
0.859891
0.594487
0.523325
0.305608
0.68223
0.241564
-0.188386
-0.0716656
0.173684
0.902632
0.950293
0.0257102
0.0697034
0.985076
0.830307
0.718507
0.645796
-0.0936587
-0.0288313
0.192678
0.44421
0.444915
0.0806175
0.0320803
0.208405
-0.327102
0.786643
0.696345
0.0219522
-0.0337073
0.645484
0.39489
0.749647
0.512229
0.117381
-0.0053424
0.202572
-0.0980327
0.518329
0.0616369
0.0414925
0.0555338
0.0448771
-0.023932
0.153843
0.331583
-0.0671303
-0.205224
0.74656
0.360676
-0.099363
0.00829733
0.915257
0.74892
0.175991
0.172532
-0.0735639
0.547606
-0.325649
0.347382
0.499156
0.0147188
0.000810666
-0.111607
0.421594
0.46594
0.0379564
0.654543
0.937623
0.0845651
0.103836
0.888121
-0.347272
0.915891
0.634813
0.662444
0.666614
0.0984423
0.792589
0.174377
0.0385853
0.0072749
-0.10339
0.146772
0.225018
-0.192843
-0.722155
0.070759
0.395903
0.134695
0.798113
0.778861
0.425684
0.506506
0.100235
0.0611136
-0.0252879
0.473089
-0.0151843
0.169872
0.496992
-0.0972406
-0.222339
-0.0446913
-0.0368059
0.3796
0.525117
0.373982
0.443125
-0.0168566
0.940391
0.723153
0.734596
0.418878
0.0879124
-0.0199428
0.162596
0.232826
-0.373234
0.291014
0.17138
0.210984
-0.0882974
0.625087
0.0861763
0.957617
-0.0839502
-0.305629
0.00769217
-0.234191
-0.26962
0.0475017
-0.0665688
0.984598
0.573638
0.645152
0.471894
0.566093
-0.432012
-0.240161
-0.238778
0.426037
-0.416859
0.00258785
-0.262834
0.164666
0.489227
0.172742
0.954265
0.333548
0.198275
0.709337
0.320624
0.584968
0.120847
0.0812477
0.0883139
0.700035
-0.419
0.196641
0.171218
0.263736
0.132756
0.162242
0.0588739
0.121634
0.783662
0.955218
0.716389
-0.00585144
-0.152857
0.185367
0.121116
0.184411
0.036957
0.0359959
-0.115487
0.649973
-0.522602
0.346904
0.276266
0.691306
0.718787
0.668363
-0.00741472
0.344445
0.813208
0.713512
0.623298
0.292282
0.346279
0.138609
0.477445
0.234404
0.0317485
-0.0748759
0.0995438
-0.618634
0.284379
0.114367
0.125276
0.148471
0.0762315
0.392701
0.0015694
0.332212
-0.445302
-0.295584
-0.318524
0.592934
0.489763
0.406031
-0.0480301
0.590102
0.136961
0.0169147
0.390251
-0.0888273
0.539977
0.566812
0.265461
-0.159135
-0.136598
0.230426
0.0189233
0.245039
0.155971
0.0724017
0.407545
0.0828211
0.839568
-0.156085
0.0753568
0.79498
0.391849
0.278272
0.659027
-0.109968
0.0174582
0.27219
0.138481
0.406581
0.0694616
0.46431
0.45817
0.00558333
-0.298113
-0.250075
0.0311538
0.155433
0.0418024
0.884383
0.801338
0.409493
0.0672887
-0.0151694
-0.000531427
-0.294928
0.180438
0.269374
0.840738
0.727397
0.0151496
0.215644
-0.119557
0.297518
-0.16362
0.0958688
0.393291
0.304931
0.200197
-0.116513
0.865513
0.202867
0.0506382
0.0235981
-0.0837831
0.174869
-0.179541
0.135976
0.0406784
0.408765
0.44794
0.966783
0.336324
0.453231
-0.159046
-0.221903
0.0412521
0.440973
-0.207552
0.324076
-0.223277
0.667138
0.159798
0.143611
0.17117
0.0687296
0.084108
0.620723
0.843103
0.93836
-0.329504
-0.0866399
0.198138
0.223971
0.0494179
0.630153
0.30613
0.964978
0.873434
0.576801
0.64199
0.971974
0.39307
0.470179
0.268776
0.0185452
0.0456491
-0.217335
-0.205717
-0.188293
-0.151935
0.699812
0.0515009
0.877394
0.870991
0.472139
0.533234
0.321118
0.648486
0.728505
-0.0325585
0.503115
0.104196
0.0461207
0.0975328
-0.331729
-0.195485
0.78038
-0.196725
-0.0138452
0.39457
0.323226
0.0014254
-0.036987
0.710587
0.0864366
0.447187
0.609216
0.119369
0.860104
0.919201
0.841683
0.445943
0.351342
0.568612
0.0540358
-0.0187545
-0.0637658
0.877473
7.42506e-05
-0.433402
0.898716
-0.0509701
0.807619
0.394504
0.525075
0.0512136
-0.289771
0.0570807
0.129383
0.176552
0.560995
0.0813766
0.129109
-0.00849144
0.478002
-0.258008
0.240937
0.258152
0.105462
-0.213139
-0.0204268
0.662024
0.310318
0.577548
0.926789
0.0881455
0.246901
0.761095
0.378792
0.376681
)
;

boundaryField
{
    movingWall
    {
        type            calculated;
        value           nonuniform List<scalar> 
20
(
0.628787
0.128804
0.359099
-0.131209
0.418701
-0.0737305
0.0712022
0.0506747
0.0350503
-0.0915656
-0.0394508
0.672312
0.398233
0.179374
0.315264
0.0174234
0.0292249
0.629628
0.232234
0.0838496
)
;
    }
    fixedWalls
    {
        type            calculated;
        value           nonuniform List<scalar> 
60
(
0.0562353
0.819811
0.0940859
0.177464
0.6454
0.0895999
0.0664132
0.604694
0.11148
0.0332614
0.00983655
0.124567
0.398169
0.0466237
0.0403226
0.170735
0.429576
0.100659
0.439798
0.0984036
0.0314998
0.649125
0.557544
-0.573272
0.710317
0.548136
0.540592
0.263989
0.762868
0.823537
0.42563
0.00653154
0.758383
0.458343
-0.424985
0.874289
-0.174276
0.923184
0.0691833
0.427715
0.667866
0.162658
0.299277
-0.0101819
0.585914
-0.112487
0.113406
0.145682
0.128036
0.377482
0.104131
0.697837
0.0398056
0.0883655
0.0904242
0.832144
0.0270464
0.954614
0.0216517
0.39918
)
;
    }
    frontAndBack
    {
        type            empty;
    }
}


// ************************************************************************* //
