/*--------------------------------*- C++ -*----------------------------------*\
| =========                 |                                                 |
| \\      /  F ield         | OpenFOAM: The Open Source CFD Toolbox           |
|  \\    /   O peration     | Version:  2312                                  |
|   \\  /    A nd           | Website:  www.openfoam.com                      |
|    \\/     M anipulation  |                                                 |
\*---------------------------------------------------------------------------*/
FoamFile
{
    version     2.0;
    format      ascii;
    arch        "LSB;label=32;scalar=64";
    class       volVectorField;
    location    "9.75";
    object      gradPhi;
}
// * * * * * * * * * * * * * * * * * * * * * * * * * * * * * * * * * * * * * //

dimensions      [0 2 -1 0 0 0 0];

internalField   nonuniform List<vector> 
400
(
(-0.02 9.41118e-17 0)
(1.43929e-16 -1.4403e-16 0)
(-4.1359e-17 4.09228e-17 0)
(8.27181e-18 -7.74109e-18 0)
(-1.65436e-18 2.31817e-18 0)
(0 4.73072e-19 0)
(-1.65436e-18 1.0242e-18 0)
(-1.65436e-18 1.82647e-18 0)
(-3.30872e-18 1.88837e-18 0)
(0 1.25638e-18 0)
(0 -8.01587e-19 0)
(1.65436e-18 -6.62463e-19 0)
(0 -5.59415e-19 0)
(0 -5.6056e-19 0)
(0 9.95557e-19 0)
(-1.65436e-18 3.34113e-19 0)
(0 3.54163e-19 0)
(0 8.04454e-19 0)
(0 3.55604e-19 0)
(0 8.87386e-19 0)
(-0.02 -1.73357e-16 0)
(-2.43191e-16 2.4494e-16 0)
(7.44463e-17 -7.43526e-17 0)
(-1.15805e-17 1.11919e-17 0)
(1.65436e-18 -2.76467e-18 0)
(0 1.12774e-18 0)
(-1.65436e-18 1.09449e-18 0)
(1.65436e-18 -1.07086e-18 0)
(1.65436e-18 -1.99103e-18 0)
(1.65436e-18 -1.59179e-18 0)
(0 -3.14024e-19 0)
(0 1.0252e-19 0)
(-1.65436e-18 1.94887e-19 0)
(-3.30872e-18 2.2427e-18 0)
(1.65436e-18 -1.69777e-18 0)
(1.65436e-18 -1.73557e-18 0)
(1.65436e-18 -1.08362e-18 0)
(0 -1.02067e-18 0)
(1.65436e-18 -1.62807e-18 0)
(1.65436e-18 -3.09744e-18 0)
(-0.02 4.29352e-17 0)
(5.45939e-17 -5.61506e-17 0)
(-1.98523e-17 2.02702e-17 0)
(1.65436e-18 -1.6783e-18 0)
(1.65436e-18 -1.11469e-18 0)
(1.65436e-18 -2.56236e-18 0)
(1.65436e-18 -3.4697e-18 0)
(3.30872e-18 -2.05513e-18 0)
(0 -5.64655e-19 0)
(0 -1.25434e-19 0)
(-1.65436e-18 5.26574e-19 0)
(0 -1.00482e-18 0)
(0 1.14687e-18 0)
(1.65436e-18 -1.49951e-18 0)
(0 2.13267e-19 0)
(-1.65436e-18 -2.71345e-19 0)
(1.65436e-18 -5.62418e-20 0)
(-1.65436e-18 7.16034e-19 0)
(0 9.67953e-19 0)
(-1.65436e-18 1.47069e-18 0)
(-0.02 1.11034e-16 0)
(1.50547e-16 -1.50811e-16 0)
(-4.1359e-17 4.26994e-17 0)
(6.61744e-18 -7.23439e-18 0)
(-1.65436e-18 1.91366e-18 0)
(0 -8.01572e-19 0)
(0 -2.48339e-19 0)
(0 2.52308e-19 0)
(0 1.33376e-19 0)
(0 7.75796e-19 0)
(-1.65436e-18 4.80135e-19 0)
(0 1.4765e-18 0)
(0 -4.25438e-19 0)
(0 -2.33304e-19 0)
(0 -6.05726e-19 0)
(-3.30872e-18 1.71701e-18 0)
(0 1.13103e-18 0)
(0 -1.31263e-18 0)
(1.65436e-18 -4.9132e-19 0)
(0 -2.0439e-19 0)
(-0.02 -1.56172e-16 0)
(-2.05141e-16 2.05841e-16 0)
(5.9557e-17 -5.96981e-17 0)
(-8.27181e-18 8.38353e-18 0)
(3.30872e-18 -2.29383e-18 0)
(-1.65436e-18 1.88535e-18 0)
(0 1.36837e-18 0)
(0 -2.49635e-20 0)
(0 -8.32338e-19 0)
(1.65436e-18 -1.28865e-18 0)
(-1.65436e-18 5.0391e-19 0)
(-1.65436e-18 7.84909e-19 0)
(0 1.15338e-18 0)
(-1.65436e-18 2.19406e-19 0)
(0 4.10002e-19 0)
(1.65436e-18 -1.14636e-18 0)
(0 -2.98153e-19 0)
(-1.65436e-18 1.68368e-18 0)
(0 1.16169e-18 0)
(-1.65436e-18 1.18961e-18 0)
(-0.02 9.83122e-17 0)
(1.30695e-16 -1.30656e-16 0)
(-3.63959e-17 3.49322e-17 0)
(4.96308e-18 -4.09637e-18 0)
(-3.30872e-18 3.43877e-18 0)
(-1.65436e-18 4.72852e-19 0)
(0 6.54844e-19 0)
(0 8.42967e-19 0)
(0 -2.86584e-19 0)
(0 -3.90574e-19 0)
(1.65436e-18 -1.19927e-18 0)
(0 5.2527e-20 0)
(1.65436e-18 -1.84442e-18 0)
(1.65436e-18 -7.52862e-19 0)
(-1.65436e-18 1.10666e-18 0)
(-1.65436e-18 2.29759e-18 0)
(-1.65436e-18 1.20396e-19 0)
(3.30872e-18 -2.52242e-18 0)
(0 -9.57147e-19 0)
(0 5.77897e-19 0)
(-0.02 2.89278e-17 0)
(5.29396e-17 -5.25486e-17 0)
(-2.48154e-17 2.36554e-17 0)
(1.65436e-18 -2.01682e-18 0)
(1.65436e-18 -8.00305e-19 0)
(0 -1.0277e-18 0)
(0 -2.46293e-20 0)
(0 1.62491e-18 0)
(-4.96308e-18 3.8103e-18 0)
(-1.65436e-18 1.88703e-18 0)
(0 5.08672e-20 0)
(1.65436e-18 -1.63222e-18 0)
(3.30872e-18 -2.47126e-18 0)
(1.65436e-18 -1.26006e-18 0)
(0 -3.31102e-19 0)
(0 -5.45875e-19 0)
(0 1.32621e-19 0)
(-3.30872e-18 1.41124e-18 0)
(0 -2.13331e-19 0)
(1.65436e-18 -8.81057e-19 0)
(-0.02 -1.23156e-16 0)
(-1.88597e-16 1.88729e-16 0)
(6.78288e-17 -6.76751e-17 0)
(-6.61744e-18 5.33908e-18 0)
(6.61744e-18 -4.82272e-18 0)
(0 2.9277e-20 0)
(-1.65436e-18 9.1173e-19 0)
(0 4.4716e-19 0)
(1.65436e-18 -5.30725e-20 0)
(0 7.39335e-19 0)
(-1.65436e-18 1.51945e-18 0)
(-1.65436e-18 3.6295e-19 0)
(-3.30872e-18 2.09191e-18 0)
(0 7.50966e-19 0)
(0 -4.08817e-19 0)
(0 -1.02561e-18 0)
(1.65436e-18 -1.90948e-18 0)
(3.30872e-18 -1.15639e-18 0)
(-1.65436e-18 7.07434e-19 0)
(0 -3.20501e-19 0)
(-0.02 1.2036e-16 0)
(1.62127e-16 -1.62435e-16 0)
(-5.45939e-17 5.42086e-17 0)
(9.92617e-18 -8.72254e-18 0)
(-4.96308e-18 3.48689e-18 0)
(1.65436e-18 -5.60867e-19 0)
(1.65436e-18 -2.00243e-18 0)
(3.30872e-18 -2.47498e-18 0)
(3.30872e-18 -2.84714e-18 0)
(1.65436e-18 -1.61265e-18 0)
(1.65436e-18 -8.18046e-19 0)
(-1.65436e-18 9.02596e-19 0)
(0 1.19676e-18 0)
(-1.65436e-18 1.51917e-18 0)
(0 -3.4061e-19 0)
(0 1.22521e-19 0)
(-1.65436e-18 1.23562e-18 0)
(-1.65436e-18 7.38281e-19 0)
(1.65436e-18 1.3708e-19 0)
(0 -8.36722e-20 0)
(-0.02 -1.56491e-17 0)
(-2.97785e-17 2.89859e-17 0)
(6.61744e-18 -8.89576e-18 0)
(-1.65436e-18 3.46094e-18 0)
(0 -1.68932e-18 0)
(1.65436e-18 -1.33193e-18 0)
(0 -2.01509e-18 0)
(1.65436e-18 -5.7588e-19 0)
(0 1.26022e-19 0)
(1.65436e-18 -7.23729e-19 0)
(0 -1.62755e-20 0)
(0 -5.86518e-20 0)
(0 -2.01028e-19 0)
(0 -2.78481e-20 0)
(-1.65436e-18 4.57814e-19 0)
(1.65436e-18 -1.10602e-18 0)
(1.65436e-18 -1.49953e-18 0)
(1.65436e-18 -7.4506e-19 0)
(0 -6.34733e-19 0)
(0 -3.1164e-20 0)
(-0.02 -5.29642e-17 0)
(-6.78288e-17 6.78386e-17 0)
(2.48154e-17 -2.61612e-17 0)
(-4.96308e-18 5.6778e-18 0)
(-1.65436e-18 3.02711e-18 0)
(-3.30872e-18 1.48127e-18 0)
(-1.65436e-18 1.90443e-18 0)
(1.65436e-18 -1.87345e-19 0)
(1.65436e-18 -8.81206e-19 0)
(0 2.8948e-19 0)
(1.65436e-18 -9.02685e-19 0)
(0 -4.10858e-19 0)
(-1.65436e-18 8.31505e-19 0)
(0 1.67885e-19 0)
(0 -2.11795e-19 0)
(0 5.48076e-20 0)
(-1.65436e-18 9.54358e-19 0)
(0 9.22987e-19 0)
(-1.65436e-18 2.58706e-19 0)
(0 7.32819e-19 0)
(-0.02 3.1783e-17 0)
(7.7755e-17 -7.70978e-17 0)
(-4.30134e-17 4.38178e-17 0)
(3.30872e-18 -3.4569e-18 0)
(1.65436e-18 -6.6223e-19 0)
(-1.65436e-18 2.5394e-18 0)
(-1.65436e-18 1.1206e-18 0)
(0 2.86185e-19 0)
(0 4.1335e-20 0)
(-1.65436e-18 7.37656e-19 0)
(-3.30872e-18 2.05218e-18 0)
(-1.65436e-18 8.62957e-19 0)
(4.96308e-18 -2.53129e-18 0)
(1.65436e-18 -1.90132e-18 0)
(-1.65436e-18 3.55674e-19 0)
(-1.65436e-18 1.81037e-18 0)
(0 1.087e-18 0)
(0 -4.64259e-19 0)
(1.65436e-18 -2.43369e-20 0)
(-1.65436e-18 1.5086e-18 0)
(-0.02 -3.18255e-17 0)
(-7.94093e-17 8.04714e-17 0)
(4.46678e-17 -4.51159e-17 0)
(-3.30872e-18 3.47953e-18 0)
(0 -1.5428e-19 0)
(1.65436e-18 -1.56814e-18 0)
(0 -3.52925e-19 0)
(-1.65436e-18 -2.0887e-19 0)
(0 1.85217e-18 0)
(0 2.86673e-19 0)
(0 -9.07445e-19 0)
(0 -1.30829e-18 0)
(1.65436e-18 -5.05586e-19 0)
(0 1.07586e-19 0)
(0 -6.75049e-19 0)
(1.65436e-18 9.34377e-21 0)
(0 -3.02435e-19 0)
(-1.65436e-18 1.11174e-18 0)
(1.65436e-18 -8.23927e-19 0)
(3.30872e-18 -4.25866e-18 0)
(-0.02 3.39624e-17 0)
(5.79026e-17 -5.88282e-17 0)
(-2.97785e-17 3.05472e-17 0)
(1.65436e-18 -2.34939e-18 0)
(0 9.50095e-19 0)
(0 -4.03773e-19 0)
(3.30872e-18 -1.72652e-18 0)
(-1.65436e-18 8.00776e-19 0)
(3.30872e-18 -1.68117e-18 0)
(0 -1.07011e-18 0)
(0 6.89978e-19 0)
(-1.65436e-18 1.61115e-18 0)
(-3.30872e-18 3.56389e-18 0)
(0 7.03719e-19 0)
(0 -4.70095e-20 0)
(1.65436e-18 -1.99837e-18 0)
(3.30872e-18 -1.32198e-18 0)
(1.65436e-18 -1.33242e-18 0)
(0 3.29539e-19 0)
(-1.65436e-18 1.32452e-18 0)
(-0.02 4.50744e-17 0)
(4.96308e-17 -5.06577e-17 0)
(-1.15805e-17 1.06148e-17 0)
(3.30872e-18 -3.85662e-18 0)
(1.65436e-18 -9.58702e-19 0)
(1.65436e-18 -1.38655e-18 0)
(-1.65436e-18 1.43903e-18 0)
(-1.65436e-18 1.01134e-18 0)
(0 1.53913e-18 0)
(-1.65436e-18 5.10917e-19 0)
(3.30872e-18 -2.6799e-18 0)
(1.65436e-18 -3.02186e-18 0)
(3.30872e-18 -1.60232e-18 0)
(-1.65436e-18 9.51299e-19 0)
(1.65436e-18 -3.67958e-19 0)
(0 -8.21473e-19 0)
(0 7.02616e-19 0)
(-1.65436e-18 6.4462e-19 0)
(-1.65436e-18 1.28454e-19 0)
(0 6.88902e-19 0)
(-0.02 -1.45429e-16 0)
(-1.86943e-16 1.87452e-16 0)
(5.45939e-17 -5.43226e-17 0)
(-1.15805e-17 1.15555e-17 0)
(0 5.04664e-19 0)
(-3.30872e-18 3.41201e-18 0)
(-1.65436e-18 1.47645e-18 0)
(0 6.86338e-20 0)
(0 -3.78251e-19 0)
(1.65436e-18 -1.05235e-18 0)
(1.65436e-18 3.45094e-20 0)
(0 4.40162e-19 0)
(1.65436e-18 -1.83054e-18 0)
(1.65436e-18 -1.64057e-18 0)
(-1.65436e-18 1.02348e-18 0)
(-1.65436e-18 1.50802e-18 0)
(1.65436e-18 -5.69393e-19 0)
(0 -5.97167e-19 0)
(0 9.53418e-20 0)
(0 6.79059e-19 0)
(-0.02 1.50304e-16 0)
(1.95215e-16 -1.95359e-16 0)
(-5.9557e-17 6.00633e-17 0)
(9.92617e-18 -1.00297e-17 0)
(-1.65436e-18 1.96957e-18 0)
(0 -3.8586e-19 0)
(0 -1.72051e-19 0)
(0 -6.7724e-19 0)
(0 -3.86324e-19 0)
(1.65436e-18 -7.78356e-19 0)
(1.65436e-18 -6.03986e-19 0)
(-1.65436e-18 1.26877e-20 0)
(0 6.39884e-19 0)
(0 -1.61445e-19 0)
(3.30872e-18 -2.50522e-18 0)
(1.65436e-18 -1.8198e-18 0)
(0 3.44554e-19 0)
(-1.65436e-18 2.25934e-18 0)
(0 1.01339e-18 0)
(0 2.89056e-20 0)
(-0.02 2.79945e-17 0)
(2.64698e-17 -2.56023e-17 0)
(1.65436e-18 -1.38337e-18 0)
(1.65436e-18 -2.98724e-18 0)
(0 -2.14764e-19 0)
(3.30872e-18 -2.07087e-18 0)
(1.65436e-18 -1.67721e-18 0)
(0 -4.67149e-19 0)
(1.65436e-18 -1.29169e-18 0)
(-1.65436e-18 1.81064e-18 0)
(-1.65436e-18 2.07389e-18 0)
(-1.65436e-18 9.91876e-19 0)
(-1.65436e-18 1.56928e-19 0)
(1.65436e-18 -5.54671e-19 0)
(-1.65436e-18 9.50477e-19 0)
(-1.65436e-18 2.40399e-18 0)
(0 8.07763e-19 0)
(0 -1.57673e-18 0)
(0 -8.41302e-19 0)
(0 -6.47701e-20 0)
(-0.02 -1.83461e-16 0)
(-2.41537e-16 2.40886e-16 0)
(6.45201e-17 -6.38702e-17 0)
(-1.15805e-17 1.14258e-17 0)
(4.96308e-18 -3.97088e-18 0)
(0 8.10768e-20 0)
(1.65436e-18 -2.32944e-19 0)
(0 -1.71332e-18 0)
(0 -1.46698e-19 0)
(0 -2.61038e-19 0)
(0 4.18659e-20 0)
(0 1.12041e-19 0)
(0 1.45889e-18 0)
(-1.65436e-18 1.85833e-18 0)
(-1.65436e-18 7.92451e-19 0)
(0 1.92317e-19 0)
(0 -4.57823e-19 0)
(0 1.94847e-19 0)
(0 3.28078e-19 0)
(1.65436e-18 -1.35864e-18 0)
(-0.02 9.72134e-17 0)
(1.40621e-16 -1.40968e-16 0)
(-4.1359e-17 3.97429e-17 0)
(6.61744e-18 -6.34474e-18 0)
(0 1.83745e-18 0)
(0 5.97571e-19 0)
(-1.65436e-18 9.27695e-19 0)
(-1.65436e-18 2.295e-18 0)
(-3.30872e-18 1.94946e-18 0)
(0 6.00775e-19 0)
(0 2.69864e-19 0)
(0 3.86281e-19 0)
(0 -4.63617e-19 0)
(0 7.10848e-20 0)
(0 8.85675e-19 0)
(0 2.03366e-20 0)
(0 6.28538e-19 0)
(0 2.40513e-19 0)
(0 1.30898e-19 0)
(-1.65436e-18 1.21189e-18 0)
)
;

boundaryField
{
    movingWall
    {
        type            extrapolatedCalculated;
        value           nonuniform List<vector> 
20
(
(-0.02 9.72134e-17 0)
(1.40621e-16 -1.40968e-16 0)
(-4.1359e-17 3.97429e-17 0)
(6.61744e-18 -6.34474e-18 0)
(0 1.83745e-18 0)
(0 5.97571e-19 0)
(-1.65436e-18 9.27695e-19 0)
(-1.65436e-18 2.295e-18 0)
(-3.30872e-18 1.94946e-18 0)
(0 6.00775e-19 0)
(0 2.69864e-19 0)
(0 3.86281e-19 0)
(0 -4.63617e-19 0)
(0 7.10848e-20 0)
(0 8.85675e-19 0)
(0 2.03366e-20 0)
(0 6.28538e-19 0)
(0 2.40513e-19 0)
(0 1.30898e-19 0)
(-1.65436e-18 1.21189e-18 0)
)
;
    }
    fixedWalls
    {
        type            extrapolatedCalculated;
        value           nonuniform List<vector> 
60
(
(-0.02 9.41118e-17 0)
(-0.02 -1.73357e-16 0)
(-0.02 4.29352e-17 0)
(-0.02 1.11034e-16 0)
(-0.02 -1.56172e-16 0)
(-0.02 9.83122e-17 0)
(-0.02 2.89278e-17 0)
(-0.02 -1.23156e-16 0)
(-0.02 1.2036e-16 0)
(-0.02 -1.56491e-17 0)
(-0.02 -5.29642e-17 0)
(-0.02 3.1783e-17 0)
(-0.02 -3.18255e-17 0)
(-0.02 3.39624e-17 0)
(-0.02 4.50744e-17 0)
(-0.02 -1.45429e-16 0)
(-0.02 1.50304e-16 0)
(-0.02 2.79945e-17 0)
(-0.02 -1.83461e-16 0)
(-0.02 9.72134e-17 0)
(0 8.87386e-19 0)
(1.65436e-18 -3.09744e-18 0)
(-1.65436e-18 1.47069e-18 0)
(0 -2.0439e-19 0)
(-1.65436e-18 1.18961e-18 0)
(0 5.77897e-19 0)
(1.65436e-18 -8.81057e-19 0)
(0 -3.20501e-19 0)
(0 -8.36722e-20 0)
(0 -3.1164e-20 0)
(0 7.32819e-19 0)
(-1.65436e-18 1.5086e-18 0)
(3.30872e-18 -4.25866e-18 0)
(-1.65436e-18 1.32452e-18 0)
(0 6.88902e-19 0)
(0 6.79059e-19 0)
(0 2.89056e-20 0)
(0 -6.47701e-20 0)
(1.65436e-18 -1.35864e-18 0)
(-1.65436e-18 1.21189e-18 0)
(-0.02 9.41118e-17 0)
(1.43929e-16 -1.4403e-16 0)
(-4.1359e-17 4.09228e-17 0)
(8.27181e-18 -7.74109e-18 0)
(-1.65436e-18 2.31817e-18 0)
(0 4.73072e-19 0)
(-1.65436e-18 1.0242e-18 0)
(-1.65436e-18 1.82647e-18 0)
(-3.30872e-18 1.88837e-18 0)
(0 1.25638e-18 0)
(0 -8.01587e-19 0)
(1.65436e-18 -6.62463e-19 0)
(0 -5.59415e-19 0)
(0 -5.6056e-19 0)
(0 9.95557e-19 0)
(-1.65436e-18 3.34113e-19 0)
(0 3.54163e-19 0)
(0 8.04454e-19 0)
(0 3.55604e-19 0)
(0 8.87386e-19 0)
)
;
    }
    frontAndBack
    {
        type            empty;
    }
}


// ************************************************************************* //
