/*--------------------------------*- C++ -*----------------------------------*\
| =========                 |                                                 |
| \\      /  F ield         | OpenFOAM: The Open Source CFD Toolbox           |
|  \\    /   O peration     | Version:  2312                                  |
|   \\  /    A nd           | Website:  www.openfoam.com                      |
|    \\/     M anipulation  |                                                 |
\*---------------------------------------------------------------------------*/
FoamFile
{
    version     2.0;
    format      ascii;
    arch        "LSB;label=32;scalar=64";
    class       volTensorField;
    location    "9.75";
    object      gradU;
}
// * * * * * * * * * * * * * * * * * * * * * * * * * * * * * * * * * * * * * //

dimensions      [0 0 -1 0 0 0 0];

internalField   nonuniform List<tensor> 
400
(
(-8.94467e-13 1.23299e-11 0 1.27394e-12 1.69994e-11 0 0 0 0)
(1.40946e-12 -1.49217e-11 0 -3.79471e-13 -3.64729e-12 0 0 0 0)
(-3.79471e-13 3.1992e-12 0 0 8.34546e-13 0 0 0 0)
(5.42101e-14 -7.46391e-13 0 2.71051e-14 -1.96198e-13 0 0 0 0)
(-5.42101e-14 1.71794e-13 0 8.13152e-14 5.63431e-14 0 0 0 0)
(0 -2.64452e-14 0 0 1.38714e-14 0 0 0 0)
(-2.71051e-14 2.584e-14 0 0 3.3661e-14 0 0 0 0)
(-5.42101e-14 6.31053e-15 0 0 3.62599e-14 0 0 0 0)
(-2.71051e-14 -1.37949e-14 0 0 2.74931e-14 0 0 0 0)
(-2.71051e-14 -2.643e-14 0 -5.42101e-14 9.6791e-15 0 0 0 0)
(2.71051e-14 -1.13236e-14 0 -5.42101e-14 -2.04803e-14 0 0 0 0)
(2.71051e-14 7.90811e-15 0 0 -1.55588e-14 0 0 0 0)
(0 7.09425e-15 0 0 -6.8995e-15 0 0 0 0)
(0 1.15752e-14 0 -5.42101e-14 9.50608e-15 0 0 0 0)
(0 5.81749e-15 0 -5.42101e-14 1.3271e-14 0 0 0 0)
(-2.71051e-14 -4.84551e-15 0 -5.42101e-14 7.64072e-16 0 0 0 0)
(2.71051e-14 -1.30687e-15 0 0 3.3566e-15 0 0 0 0)
(-5.42101e-14 -1.30029e-15 0 0 1.03312e-14 0 0 0 0)
(0 -3.48112e-15 0 0 8.91014e-16 0 0 0 0)
(0 -8.39342e-15 0 0 -3.51799e-15 0 0 0 0)
(1.84314e-12 1.02226e-12 0 7.04731e-13 -2.98493e-11 0 0 0 0)
(-2.71051e-12 -1.24318e-12 0 -3.25261e-13 6.36425e-12 0 0 0 0)
(7.04731e-13 2.51898e-13 0 -1.35525e-13 -1.51731e-12 0 0 0 0)
(5.42101e-14 -3.18116e-14 0 -1.35525e-13 3.16892e-13 0 0 0 0)
(0 3.82747e-14 0 -1.35525e-13 -7.50091e-14 0 0 0 0)
(0 3.76307e-15 0 -8.13152e-14 1.46456e-14 0 0 0 0)
(-5.42101e-14 -3.45164e-15 0 -8.13152e-14 -1.11078e-14 0 0 0 0)
(5.42101e-14 -1.24784e-14 0 -5.42101e-14 -2.89881e-14 0 0 0 0)
(5.42101e-14 -1.27858e-14 0 -5.42101e-14 -2.74503e-14 0 0 0 0)
(0 -2.15434e-14 0 0 -9.5749e-15 0 0 0 0)
(0 -1.39143e-14 0 0 3.73571e-15 0 0 0 0)
(0 5.67273e-15 0 0 -4.96976e-15 0 0 0 0)
(0 1.79706e-14 0 -5.42101e-14 -6.225e-16 0 0 0 0)
(-5.42101e-14 8.59528e-15 0 0 1.88095e-15 0 0 0 0)
(5.42101e-14 -1.45595e-14 0 0 -2.3066e-14 0 0 0 0)
(0 -5.06886e-15 0 5.42101e-14 -2.66986e-14 0 0 0 0)
(2.71051e-14 1.0874e-14 0 -5.42101e-14 -1.31994e-14 0 0 0 0)
(0 -1.1653e-15 0 0 -5.58485e-15 0 0 0 0)
(0 -1.0368e-14 0 0 -1.59482e-14 0 0 0 0)
(5.42101e-14 1.10204e-14 0 0 -1.7366e-14 0 0 0 0)
(-4.87891e-13 -1.11552e-11 0 -4.77049e-12 8.29994e-12 0 0 0 0)
(5.96311e-13 1.34103e-11 0 1.46367e-12 -1.84424e-12 0 0 0 0)
(-1.89735e-13 -2.84816e-12 0 5.42101e-14 4.28631e-13 0 0 0 0)
(-5.42101e-14 6.95914e-13 0 1.35525e-13 -9.39e-14 0 0 0 0)
(5.42101e-14 -1.30452e-13 0 2.71051e-14 -8.93677e-15 0 0 0 0)
(2.71051e-14 3.74561e-14 0 8.13152e-14 -4.45036e-14 0 0 0 0)
(5.42101e-14 -1.77936e-14 0 8.13152e-14 -3.66146e-14 0 0 0 0)
(5.42101e-14 -1.0032e-14 0 1.0842e-13 -2.26236e-14 0 0 0 0)
(0 5.61823e-15 0 1.0842e-13 -1.03528e-14 0 0 0 0)
(0 4.756e-15 0 1.0842e-13 -5.79087e-15 0 0 0 0)
(-2.71051e-14 -6.71848e-15 0 8.13152e-14 1.16874e-15 0 0 0 0)
(2.71051e-14 3.54989e-15 0 5.42101e-14 1.07015e-15 0 0 0 0)
(-2.71051e-14 1.3945e-14 0 5.42101e-14 1.47115e-14 0 0 0 0)
(2.71051e-14 -1.08683e-14 0 8.13152e-14 -4.87665e-15 0 0 0 0)
(0 -2.27621e-14 0 1.0842e-13 -7.23058e-15 0 0 0 0)
(-2.71051e-14 5.02113e-15 0 0 2.05201e-15 0 0 0 0)
(0 1.98069e-14 0 5.42101e-14 -3.09609e-16 0 0 0 0)
(0 -4.04912e-15 0 2.71051e-14 -7.52724e-15 0 0 0 0)
(0 -1.52622e-14 0 0 -2.02833e-15 0 0 0 0)
(-2.71051e-14 2.49208e-14 0 2.71051e-14 -1.09929e-15 0 0 0 0)
(-1.54499e-12 7.47795e-12 0 3.79471e-12 1.62265e-11 0 0 0 0)
(2.11419e-12 -9.11449e-12 0 -9.75782e-13 -3.47613e-12 0 0 0 0)
(-5.96311e-13 2.00224e-12 0 1.6263e-13 8.36312e-13 0 0 0 0)
(8.13152e-14 -4.6938e-13 0 8.13152e-14 -1.75965e-13 0 0 0 0)
(-2.71051e-14 8.76711e-14 0 1.6263e-13 3.54752e-14 0 0 0 0)
(0 -2.39147e-14 0 5.42101e-14 -1.7806e-14 0 0 0 0)
(0 1.84284e-14 0 5.42101e-14 -1.21006e-14 0 0 0 0)
(0 1.37833e-14 0 2.71051e-14 -4.03548e-15 0 0 0 0)
(0 4.04687e-15 0 0 -7.64781e-16 0 0 0 0)
(0 -1.00218e-14 0 0 -4.17881e-16 0 0 0 0)
(0 -7.05327e-15 0 5.42101e-14 8.93238e-15 0 0 0 0)
(-2.71051e-14 1.92155e-14 0 0 1.56565e-14 0 0 0 0)
(0 1.20238e-14 0 2.71051e-14 1.19638e-14 0 0 0 0)
(0 -1.33468e-14 0 0 -3.92632e-15 0 0 0 0)
(-2.71051e-14 -7.63083e-15 0 0 2.36131e-15 0 0 0 0)
(-5.42101e-14 1.85212e-15 0 0 1.27852e-14 0 0 0 0)
(0 1.2947e-15 0 2.71051e-14 8.2623e-15 0 0 0 0)
(0 -2.88402e-15 0 -2.71051e-14 -5.09035e-16 0 0 0 0)
(5.42101e-14 -3.94007e-15 0 0 8.58899e-15 0 0 0 0)
(0 1.4148e-14 0 -2.71051e-14 1.04195e-14 0 0 0 0)
(2.30393e-12 1.59515e-12 0 1.6263e-13 -2.29355e-11 0 0 0 0)
(-3.00866e-12 -1.97986e-12 0 -8.13152e-14 4.9962e-12 0 0 0 0)
(8.40257e-13 4.52009e-13 0 2.71051e-14 -1.17241e-12 0 0 0 0)
(-8.13152e-14 -1.04923e-13 0 -2.71051e-14 2.47878e-13 0 0 0 0)
(5.42101e-14 2.7707e-14 0 -5.42101e-14 -4.13054e-14 0 0 0 0)
(-5.42101e-14 -1.01198e-14 0 0 3.63613e-14 0 0 0 0)
(-2.71051e-14 -4.02313e-15 0 -5.42101e-14 1.17964e-14 0 0 0 0)
(2.71051e-14 1.30389e-15 0 -8.13152e-14 -7.23362e-15 0 0 0 0)
(-2.71051e-14 9.23583e-15 0 -5.42101e-14 -1.80766e-14 0 0 0 0)
(2.71051e-14 1.44532e-14 0 -5.42101e-14 -4.91845e-15 0 0 0 0)
(2.71051e-14 9.35589e-15 0 -2.71051e-14 1.79023e-14 0 0 0 0)
(-5.42101e-14 6.58127e-15 0 -5.42101e-14 2.41558e-14 0 0 0 0)
(0 -5.63786e-15 0 2.71051e-14 3.16002e-15 0 0 0 0)
(0 -2.04708e-14 0 2.71051e-14 -1.75364e-15 0 0 0 0)
(0 -6.05053e-15 0 0 2.59932e-15 0 0 0 0)
(0 1.09221e-14 0 2.71051e-14 3.35009e-15 0 0 0 0)
(-2.71051e-14 6.51264e-15 0 -2.71051e-14 5.89118e-15 0 0 0 0)
(-2.71051e-14 -3.72244e-15 0 0 2.99483e-15 0 0 0 0)
(2.71051e-14 -4.33374e-15 0 0 7.0438e-15 0 0 0 0)
(-2.71051e-14 5.91232e-15 0 2.71051e-14 1.26406e-14 0 0 0 0)
(-1.46367e-12 -1.04614e-11 0 -2.98156e-12 1.29703e-11 0 0 0 0)
(1.97867e-12 1.26486e-11 0 8.94467e-13 -2.76975e-12 0 0 0 0)
(-5.14996e-13 -2.74608e-12 0 -5.42101e-14 6.64875e-13 0 0 0 0)
(2.71051e-14 6.61726e-13 0 -2.71051e-14 -1.10843e-13 0 0 0 0)
(-2.71051e-14 -1.23846e-13 0 -5.42101e-14 5.11043e-14 0 0 0 0)
(-5.42101e-14 2.91871e-14 0 -5.42101e-14 4.36799e-15 0 0 0 0)
(0 -2.51666e-14 0 0 1.796e-14 0 0 0 0)
(-2.71051e-14 -1.60897e-14 0 0 1.87139e-14 0 0 0 0)
(0 6.36204e-15 0 -5.42101e-14 9.53183e-15 0 0 0 0)
(2.71051e-14 2.59571e-14 0 -8.13152e-14 -6.66209e-15 0 0 0 0)
(5.42101e-14 2.2021e-14 0 -1.0842e-13 -2.08707e-14 0 0 0 0)
(0 4.47322e-15 0 -8.13152e-14 -1.48157e-14 0 0 0 0)
(2.71051e-14 -1.38856e-14 0 -5.42101e-14 -3.23294e-14 0 0 0 0)
(0 -1.39075e-14 0 -2.71051e-14 -1.11681e-14 0 0 0 0)
(-2.71051e-14 -2.5271e-15 0 -2.71051e-14 1.80879e-14 0 0 0 0)
(-5.42101e-14 5.14398e-15 0 -2.71051e-14 2.01735e-14 0 0 0 0)
(0 9.39441e-16 0 -5.42101e-14 1.19924e-15 0 0 0 0)
(5.42101e-14 -1.7314e-15 0 0 -1.24237e-14 0 0 0 0)
(2.71051e-14 5.70567e-15 0 0 -4.20035e-15 0 0 0 0)
(-2.71051e-14 -5.53635e-15 0 0 7.34299e-15 0 0 0 0)
(2.43945e-13 1.17957e-11 0 3.2255e-12 1.02993e-11 0 0 0 0)
(-8.13152e-14 -1.42853e-11 0 -1.11131e-12 -2.21942e-12 0 0 0 0)
(-1.0842e-13 3.11091e-12 0 -1.0842e-13 5.15131e-13 0 0 0 0)
(-5.42101e-14 -7.18694e-13 0 -1.0842e-13 -1.19009e-13 0 0 0 0)
(5.42101e-14 1.42918e-13 0 2.71051e-14 2.34305e-15 0 0 0 0)
(-2.71051e-14 -4.3264e-14 0 5.42101e-14 -1.33419e-14 0 0 0 0)
(2.71051e-14 1.03228e-14 0 5.42101e-14 2.05645e-14 0 0 0 0)
(-2.71051e-14 -7.1243e-15 0 5.42101e-14 4.40579e-14 0 0 0 0)
(-8.13152e-14 -1.61401e-14 0 8.13152e-14 5.00687e-14 0 0 0 0)
(-2.71051e-14 -1.59493e-14 0 8.13152e-14 2.09585e-14 0 0 0 0)
(0 1.20226e-15 0 0 -5.28428e-15 0 0 0 0)
(0 -4.87742e-15 0 2.71051e-14 -2.19225e-14 0 0 0 0)
(8.13152e-14 -1.99023e-15 0 0 -3.25394e-14 0 0 0 0)
(2.71051e-14 2.99465e-14 0 -2.71051e-14 -2.04529e-14 0 0 0 0)
(0 2.52911e-14 0 -8.13152e-14 -4.37847e-15 0 0 0 0)
(0 -5.96652e-15 0 0 -7.89101e-16 0 0 0 0)
(-2.71051e-14 -2.60845e-14 0 5.42101e-14 -9.87906e-15 0 0 0 0)
(0 -9.12203e-15 0 2.71051e-14 -7.01819e-15 0 0 0 0)
(0 1.54329e-14 0 0 -5.11273e-15 0 0 0 0)
(0 2.76968e-15 0 -2.71051e-14 -6.58676e-15 0 0 0 0)
(6.77626e-13 -2.38153e-12 0 -2.08709e-12 -2.66969e-11 0 0 0 0)
(-1.38236e-12 2.86449e-12 0 4.33681e-13 5.73702e-12 0 0 0 0)
(5.14996e-13 -6.45665e-13 0 -1.6263e-13 -1.38616e-12 0 0 0 0)
(1.35525e-13 1.48938e-13 0 0 2.39215e-13 0 0 0 0)
(1.0842e-13 -1.81789e-14 0 -8.13152e-14 -9.83945e-14 0 0 0 0)
(0 4.74086e-14 0 -1.0842e-13 4.75217e-15 0 0 0 0)
(-2.71051e-14 3.22332e-14 0 -1.0842e-13 -7.26658e-15 0 0 0 0)
(0 1.34145e-14 0 -5.42101e-14 -4.46927e-15 0 0 0 0)
(2.71051e-14 -1.67373e-14 0 0 5.83858e-15 0 0 0 0)
(0 -2.93959e-14 0 5.42101e-14 1.64292e-14 0 0 0 0)
(-5.42101e-14 -2.08601e-14 0 8.13152e-14 2.25487e-14 0 0 0 0)
(0 -2.27819e-14 0 8.13152e-14 1.07382e-14 0 0 0 0)
(-5.42101e-14 -1.24159e-14 0 5.42101e-14 2.29874e-14 0 0 0 0)
(-2.71051e-14 1.42534e-14 0 0 9.19054e-15 0 0 0 0)
(0 1.71366e-14 0 0 -1.24687e-14 0 0 0 0)
(2.71051e-14 -3.5661e-16 0 0 -1.63204e-14 0 0 0 0)
(5.42101e-14 -5.28965e-15 0 -5.42101e-14 -1.23185e-14 0 0 0 0)
(2.71051e-14 3.03492e-15 0 -2.71051e-14 2.4704e-15 0 0 0 0)
(-2.71051e-14 6.1371e-15 0 0 5.31836e-15 0 0 0 0)
(0 6.16314e-15 0 0 -7.80971e-15 0 0 0 0)
(-1.38236e-12 -9.16415e-12 0 -7.86047e-13 2.14592e-11 0 0 0 0)
(1.84314e-12 1.10254e-11 0 4.06576e-13 -4.78547e-12 0 0 0 0)
(-5.96311e-13 -2.38689e-12 0 8.13152e-14 1.09805e-12 0 0 0 0)
(5.42101e-14 5.69076e-13 0 0 -2.56853e-13 0 0 0 0)
(-5.42101e-14 -9.15448e-14 0 -1.35525e-13 5.63333e-14 0 0 0 0)
(0 4.78639e-14 0 -8.13152e-14 -2.85878e-14 0 0 0 0)
(5.42101e-14 1.10132e-15 0 -8.13152e-14 -3.77105e-14 0 0 0 0)
(2.71051e-14 5.98086e-15 0 -5.42101e-14 -4.17713e-14 0 0 0 0)
(8.13152e-14 4.75838e-15 0 -8.13152e-14 -3.80211e-14 0 0 0 0)
(2.71051e-14 7.60768e-16 0 -5.42101e-14 -2.07394e-14 0 0 0 0)
(0 -4.48874e-15 0 -2.71051e-14 -1.3337e-15 0 0 0 0)
(0 -4.43867e-15 0 -8.13152e-14 8.45406e-15 0 0 0 0)
(0 -3.53793e-15 0 -5.42101e-14 2.09455e-14 0 0 0 0)
(-2.71051e-14 -5.5097e-15 0 0 2.29729e-14 0 0 0 0)
(2.71051e-14 -2.1987e-16 0 0 7.47873e-15 0 0 0 0)
(-2.71051e-14 -5.81635e-15 0 0 -2.13375e-16 0 0 0 0)
(-2.71051e-14 -7.29375e-15 0 5.42101e-14 -3.44246e-15 0 0 0 0)
(0 8.51487e-15 0 -5.42101e-14 -3.09265e-15 0 0 0 0)
(0 5.15281e-15 0 2.71051e-14 4.57428e-16 0 0 0 0)
(0 5.26104e-15 0 0 -3.16333e-15 0 0 0 0)
(2.71051e-13 1.42922e-11 0 2.35814e-12 -3.39022e-12 0 0 0 0)
(-4.87891e-13 -1.74966e-11 0 -6.23416e-13 7.984e-13 0 0 0 0)
(8.13152e-14 3.88295e-12 0 1.35525e-13 -1.70381e-13 0 0 0 0)
(-5.42101e-14 -8.92778e-13 0 1.0842e-13 6.68288e-14 0 0 0 0)
(5.42101e-14 2.10086e-13 0 1.35525e-13 -5.4133e-15 0 0 0 0)
(0 -4.66353e-14 0 8.13152e-14 -1.3565e-14 0 0 0 0)
(5.42101e-14 1.90496e-14 0 8.13152e-14 -1.91403e-14 0 0 0 0)
(0 1.31039e-14 0 0 -1.39196e-14 0 0 0 0)
(0 4.29466e-15 0 0 -1.86318e-14 0 0 0 0)
(2.71051e-14 7.29145e-15 0 0 -1.99853e-14 0 0 0 0)
(-2.71051e-14 8.33331e-15 0 0 -1.52603e-14 0 0 0 0)
(0 -5.02725e-16 0 5.42101e-14 3.19432e-15 0 0 0 0)
(2.71051e-14 2.10292e-15 0 2.71051e-14 1.38469e-14 0 0 0 0)
(0 7.86695e-16 0 0 9.73749e-15 0 0 0 0)
(-2.71051e-14 -6.04959e-15 0 0 -5.93919e-15 0 0 0 0)
(2.71051e-14 -1.12778e-14 0 0 -2.23405e-14 0 0 0 0)
(0 -8.16892e-15 0 0 -9.31478e-15 0 0 0 0)
(5.42101e-14 6.93481e-15 0 5.42101e-14 -2.12993e-15 0 0 0 0)
(2.71051e-14 6.06642e-15 0 -2.71051e-14 -3.90959e-15 0 0 0 0)
(-2.71051e-14 8.86904e-15 0 2.71051e-14 3.85944e-15 0 0 0 0)
(3.52366e-13 -1.1756e-11 0 5.14996e-13 -1.15077e-11 0 0 0 0)
(-4.06576e-13 1.42453e-11 0 2.1684e-13 2.64318e-12 0 0 0 0)
(1.89735e-13 -3.11846e-12 0 2.98156e-13 -5.57003e-13 0 0 0 0)
(0 7.34043e-13 0 5.42101e-14 1.84461e-13 0 0 0 0)
(-5.42101e-14 -1.71939e-13 0 1.6263e-13 9.07687e-15 0 0 0 0)
(-2.71051e-14 3.41369e-14 0 1.35525e-13 3.91346e-14 0 0 0 0)
(-5.42101e-14 7.46769e-16 0 1.0842e-13 1.74653e-14 0 0 0 0)
(0 6.48932e-15 0 5.42101e-14 -7.38878e-15 0 0 0 0)
(5.42101e-14 -1.30732e-15 0 8.13152e-14 -9.8457e-15 0 0 0 0)
(0 4.13232e-15 0 5.42101e-14 2.61532e-15 0 0 0 0)
(2.71051e-14 1.86909e-14 0 5.42101e-14 -6.54646e-16 0 0 0 0)
(0 2.46685e-14 0 0 1.40396e-15 0 0 0 0)
(-2.71051e-14 3.00524e-15 0 2.71051e-14 -1.35363e-15 0 0 0 0)
(0 -2.52958e-14 0 5.42101e-14 -5.85917e-15 0 0 0 0)
(0 -3.22979e-14 0 1.0842e-13 -2.21273e-15 0 0 0 0)
(0 -9.19194e-15 0 2.71051e-14 3.02961e-15 0 0 0 0)
(-2.71051e-14 1.29169e-14 0 2.71051e-14 1.10562e-14 0 0 0 0)
(-2.71051e-14 1.39201e-14 0 0 7.10307e-15 0 0 0 0)
(0 1.11422e-14 0 2.71051e-14 4.41593e-15 0 0 0 0)
(0 5.31119e-15 0 -2.71051e-14 1.39324e-14 0 0 0 0)
(1.02999e-12 5.42763e-12 0 -1.24683e-12 1.80402e-11 0 0 0 0)
(-7.31836e-13 -6.54591e-12 0 0 -3.90186e-12 0 0 0 0)
(-5.42101e-14 1.42423e-12 0 -2.71051e-13 9.32621e-13 0 0 0 0)
(-1.89735e-13 -3.26698e-13 0 -8.13152e-14 -1.94371e-13 0 0 0 0)
(8.13152e-14 6.47601e-14 0 -1.0842e-13 5.40325e-14 0 0 0 0)
(-5.42101e-14 -3.82468e-14 0 -8.13152e-14 2.34057e-14 0 0 0 0)
(-2.71051e-14 -2.74737e-14 0 -5.42101e-14 2.80295e-14 0 0 0 0)
(0 -1.42071e-14 0 -5.42101e-14 8.34722e-15 0 0 0 0)
(0 1.42988e-14 0 -8.13152e-14 1.20998e-14 0 0 0 0)
(0 1.64825e-14 0 -1.0842e-13 1.60869e-14 0 0 0 0)
(-1.0842e-13 7.12195e-15 0 -1.0842e-13 1.59979e-14 0 0 0 0)
(0 -1.20171e-15 0 -8.13152e-14 -7.6943e-15 0 0 0 0)
(8.13152e-14 -5.16021e-15 0 -1.0842e-13 -3.89268e-14 0 0 0 0)
(2.71051e-14 -7.24131e-17 0 -5.42101e-14 -2.36699e-14 0 0 0 0)
(-2.71051e-14 2.83918e-15 0 -5.42101e-14 1.13203e-14 0 0 0 0)
(-2.71051e-14 1.99114e-15 0 -2.71051e-14 3.75087e-14 0 0 0 0)
(0 -4.09546e-15 0 -8.13152e-14 2.27978e-14 0 0 0 0)
(0 2.94533e-16 0 0 7.61838e-15 0 0 0 0)
(0 1.28958e-14 0 -8.13152e-14 -3.32519e-15 0 0 0 0)
(0 -9.47931e-15 0 0 -4.13731e-15 0 0 0 0)
(-8.94467e-13 2.38237e-12 0 -7.04731e-13 -1.90578e-11 0 0 0 0)
(5.42101e-13 -2.86233e-12 0 0 4.13191e-12 0 0 0 0)
(8.13152e-14 5.89029e-13 0 -2.1684e-13 -9.71336e-13 0 0 0 0)
(1.89735e-13 -1.44545e-13 0 -5.42101e-14 2.05053e-13 0 0 0 0)
(-5.42101e-14 4.58377e-14 0 -1.35525e-13 -5.99451e-14 0 0 0 0)
(5.42101e-14 8.1339e-15 0 -1.35525e-13 -4.01711e-15 0 0 0 0)
(0 -1.43117e-14 0 -5.42101e-14 -1.10146e-14 0 0 0 0)
(0 -9.4404e-15 0 0 6.00981e-15 0 0 0 0)
(-5.42101e-14 6.43239e-15 0 -2.71051e-14 9.20423e-15 0 0 0 0)
(0 8.03049e-15 0 0 3.36546e-15 0 0 0 0)
(0 -5.09034e-15 0 0 1.00825e-14 0 0 0 0)
(5.42101e-14 -3.02562e-14 0 0 4.08374e-15 0 0 0 0)
(0 -1.29704e-14 0 0 1.4156e-15 0 0 0 0)
(0 2.49513e-14 0 -8.13152e-14 -6.60742e-15 0 0 0 0)
(2.71051e-14 2.88808e-14 0 -8.13152e-14 -7.55219e-15 0 0 0 0)
(-2.71051e-14 2.28564e-15 0 -8.13152e-14 -1.02473e-14 0 0 0 0)
(0 -1.69735e-14 0 0 -1.14733e-14 0 0 0 0)
(0 -1.2203e-14 0 0 -3.79212e-15 0 0 0 0)
(0 -6.13512e-16 0 0 -1.47135e-14 0 0 0 0)
(8.13152e-14 1.27737e-14 0 0 -2.62825e-14 0 0 0 0)
(3.52366e-13 -9.49821e-12 0 -6.50521e-13 1.30919e-11 0 0 0 0)
(-2.1684e-13 1.15405e-11 0 4.60786e-13 -2.88259e-12 0 0 0 0)
(-1.0842e-13 -2.50262e-12 0 1.35525e-13 6.7944e-13 0 0 0 0)
(-1.0842e-13 5.84693e-13 0 -2.71051e-14 -1.39798e-13 0 0 0 0)
(0 -1.4431e-13 0 5.42101e-14 4.18108e-14 0 0 0 0)
(0 1.06837e-14 0 8.13152e-14 -3.12181e-14 0 0 0 0)
(8.13152e-14 -1.74468e-14 0 5.42101e-14 -2.29488e-14 0 0 0 0)
(-5.42101e-14 6.01174e-15 0 0 -1.9396e-15 0 0 0 0)
(5.42101e-14 1.16544e-14 0 0 -2.46643e-15 0 0 0 0)
(0 1.73608e-14 0 0 -3.13125e-15 0 0 0 0)
(0 7.84022e-15 0 0 -6.92043e-15 0 0 0 0)
(0 -9.86863e-15 0 8.13152e-14 2.8215e-15 0 0 0 0)
(-8.13152e-14 -1.58514e-14 0 5.42101e-14 3.321e-14 0 0 0 0)
(0 -9.0402e-15 0 2.71051e-14 1.30066e-14 0 0 0 0)
(0 -8.00726e-16 0 2.71051e-14 -1.52035e-14 0 0 0 0)
(2.71051e-14 -1.92997e-15 0 2.71051e-14 -3.51135e-14 0 0 0 0)
(5.42101e-14 2.35975e-15 0 5.42101e-14 -1.61166e-14 0 0 0 0)
(2.71051e-14 -2.94563e-15 0 2.71051e-14 -2.50201e-15 0 0 0 0)
(0 -9.59458e-15 0 8.13152e-14 2.20759e-15 0 0 0 0)
(-2.71051e-14 3.15166e-14 0 2.71051e-14 -4.22182e-15 0 0 0 0)
(-1.16552e-12 1.25917e-11 0 2.27682e-12 3.04082e-12 0 0 0 0)
(1.35525e-12 -1.52748e-11 0 -7.04731e-13 -6.9975e-13 0 0 0 0)
(-3.79471e-13 3.33182e-12 0 5.42101e-14 1.63408e-13 0 0 0 0)
(1.35525e-13 -7.82174e-13 0 8.13152e-14 -4.88798e-14 0 0 0 0)
(0 1.54418e-13 0 2.71051e-14 -3.07194e-15 0 0 0 0)
(5.42101e-14 -5.66258e-14 0 5.42101e-14 -3.68332e-15 0 0 0 0)
(-5.42101e-14 1.49668e-14 0 -5.42101e-14 2.11542e-14 0 0 0 0)
(0 1.1042e-14 0 -2.71051e-14 2.70133e-14 0 0 0 0)
(-2.71051e-14 5.24073e-15 0 2.71051e-14 1.22746e-14 0 0 0 0)
(-5.42101e-14 3.57649e-15 0 -2.71051e-14 -1.07371e-14 0 0 0 0)
(5.42101e-14 8.62414e-16 0 0 -3.62448e-14 0 0 0 0)
(8.13152e-14 9.87424e-15 0 -5.42101e-14 -2.86837e-14 0 0 0 0)
(5.42101e-14 -2.78533e-15 0 2.71051e-14 -3.87858e-15 0 0 0 0)
(-2.71051e-14 -2.34623e-14 0 1.0842e-13 1.46957e-14 0 0 0 0)
(0 -1.92393e-14 0 8.13152e-14 1.03412e-14 0 0 0 0)
(2.71051e-14 1.37254e-15 0 1.0842e-13 -1.81987e-15 0 0 0 0)
(-2.71051e-14 1.5638e-14 0 0 -1.02509e-15 0 0 0 0)
(0 6.12123e-15 0 -2.71051e-14 -3.50531e-15 0 0 0 0)
(-2.71051e-14 -2.33332e-15 0 -2.71051e-14 6.51988e-15 0 0 0 0)
(0 1.47879e-14 0 -2.71051e-14 1.64649e-14 0 0 0 0)
(1.92446e-12 -7.15714e-12 0 -8.94467e-13 -2.13518e-11 0 0 0 0)
(-2.46656e-12 8.66309e-12 0 2.43945e-13 4.66719e-12 0 0 0 0)
(7.04731e-13 -1.85175e-12 0 5.42101e-14 -1.06179e-12 0 0 0 0)
(-1.35525e-13 4.18213e-13 0 0 2.62615e-13 0 0 0 0)
(-2.71051e-14 -9.9114e-14 0 0 -2.88826e-14 0 0 0 0)
(-5.42101e-14 3.49098e-14 0 -5.42101e-14 4.95236e-14 0 0 0 0)
(-2.71051e-14 1.32498e-14 0 0 3.02342e-14 0 0 0 0)
(2.71051e-14 -2.86782e-15 0 0 1.06568e-14 0 0 0 0)
(0 -2.60959e-14 0 -2.71051e-14 -1.79907e-15 0 0 0 0)
(0 -3.11586e-14 0 2.71051e-14 -2.03284e-14 0 0 0 0)
(0 -1.01064e-14 0 5.42101e-14 -2.19682e-14 0 0 0 0)
(0 2.24976e-14 0 0 -1.7993e-14 0 0 0 0)
(5.42101e-14 2.75281e-14 0 -2.71051e-14 -2.84419e-14 0 0 0 0)
(2.71051e-14 5.1796e-15 0 -5.42101e-14 -1.47482e-14 0 0 0 0)
(0 -1.73163e-14 0 -2.71051e-14 -7.141e-15 0 0 0 0)
(-2.71051e-14 -1.32963e-14 0 -5.42101e-14 8.37378e-16 0 0 0 0)
(-5.42101e-14 6.74314e-16 0 0 3.19818e-15 0 0 0 0)
(5.42101e-14 4.59934e-15 0 0 8.95154e-15 0 0 0 0)
(2.71051e-14 1.03756e-14 0 0 5.9249e-15 0 0 0 0)
(-2.71051e-14 8.53184e-15 0 0 9.84761e-15 0 0 0 0)
(-1.78893e-12 -4.09294e-12 0 -3.60497e-12 2.36278e-11 0 0 0 0)
(2.33103e-12 5.01524e-12 0 7.58942e-13 -5.0621e-12 0 0 0 0)
(-6.23416e-13 -1.07276e-12 0 -2.43945e-13 1.17983e-12 0 0 0 0)
(2.71051e-14 2.50735e-13 0 0 -2.50392e-13 0 0 0 0)
(-2.71051e-14 -5.8674e-14 0 5.42101e-14 7.8234e-14 0 0 0 0)
(0 2.49104e-15 0 5.42101e-14 -1.37383e-15 0 0 0 0)
(0 -2.39e-14 0 1.0842e-13 -5.04387e-15 0 0 0 0)
(0 -2.09912e-14 0 8.13152e-14 -2.08655e-14 0 0 0 0)
(2.71051e-14 -2.57444e-14 0 8.13152e-14 -1.94671e-14 0 0 0 0)
(0 -1.65927e-14 0 1.0842e-13 -1.40672e-15 0 0 0 0)
(0 3.19784e-15 0 0 1.49655e-14 0 0 0 0)
(0 3.40055e-15 0 8.13152e-14 1.21919e-14 0 0 0 0)
(0 4.59485e-16 0 0 -1.21269e-14 0 0 0 0)
(0 -2.16137e-15 0 0 -2.88758e-14 0 0 0 0)
(5.42101e-14 -3.65379e-15 0 2.71051e-14 -2.39776e-14 0 0 0 0)
(2.71051e-14 1.17117e-14 0 0 -4.31728e-16 0 0 0 0)
(2.71051e-14 2.37522e-14 0 0 9.08984e-15 0 0 0 0)
(-5.42101e-14 8.84795e-15 0 2.71051e-14 1.75249e-14 0 0 0 0)
(0 -1.43725e-15 0 0 9.09703e-15 0 0 0 0)
(0 -9.84601e-16 0 2.71051e-14 2.00313e-15 0 0 0 0)
(-9.21572e-13 1.14086e-11 0 5.71917e-12 7.77184e-13 0 0 0 0)
(9.21572e-13 -1.37849e-11 0 -1.40946e-12 -2.57935e-13 0 0 0 0)
(-8.13152e-14 2.95996e-12 0 1.35525e-13 5.17671e-15 0 0 0 0)
(1.35525e-13 -6.83385e-13 0 -5.42101e-14 -4.96845e-14 0 0 0 0)
(0 1.49905e-13 0 -5.42101e-14 -2.51162e-14 0 0 0 0)
(2.71051e-14 -4.8368e-14 0 5.42101e-14 -4.01866e-14 0 0 0 0)
(2.71051e-14 -6.24187e-15 0 0 -2.81593e-14 0 0 0 0)
(0 -1.7291e-14 0 5.42101e-14 -2.14256e-14 0 0 0 0)
(2.71051e-14 -6.63719e-15 0 8.13152e-14 -1.16052e-14 0 0 0 0)
(-2.71051e-14 3.27399e-15 0 2.71051e-14 1.9014e-14 0 0 0 0)
(-5.42101e-14 3.4922e-15 0 5.42101e-14 1.95035e-14 0 0 0 0)
(0 -4.59489e-15 0 2.71051e-14 1.58754e-14 0 0 0 0)
(-2.71051e-14 -1.35396e-14 0 5.42101e-14 2.03558e-14 0 0 0 0)
(2.71051e-14 -6.67104e-15 0 0 1.27805e-14 0 0 0 0)
(-2.71051e-14 1.11278e-14 0 -2.71051e-14 1.332e-14 0 0 0 0)
(-2.71051e-14 1.97711e-14 0 0 2.16606e-14 0 0 0 0)
(-5.42101e-14 1.86309e-14 0 0 1.51627e-15 0 0 0 0)
(5.42101e-14 4.60654e-15 0 -8.13152e-14 -1.02017e-14 0 0 0 0)
(5.42101e-14 -5.1461e-15 0 0 -4.65716e-15 0 0 0 0)
(-5.42101e-14 -2.56833e-15 0 0 -5.44747e-15 0 0 0 0)
(2.49366e-12 -3.57369e-12 0 -4.06576e-13 -2.57842e-11 0 0 0 0)
(-3.25261e-12 4.24323e-12 0 3.52366e-13 5.51595e-12 0 0 0 0)
(7.86047e-13 -8.64505e-13 0 2.1684e-13 -1.30827e-12 0 0 0 0)
(-1.0842e-13 2.20443e-13 0 8.13152e-14 2.6763e-13 0 0 0 0)
(8.13152e-14 -4.91761e-14 0 1.0842e-13 -8.40531e-14 0 0 0 0)
(0 -5.52025e-16 0 2.71051e-14 -1.26e-15 0 0 0 0)
(0 -5.13894e-15 0 2.71051e-14 -1.26099e-14 0 0 0 0)
(5.42101e-14 -4.43714e-15 0 0 -1.01289e-14 0 0 0 0)
(0 1.46951e-14 0 0 1.83348e-16 0 0 0 0)
(0 1.45161e-14 0 -2.71051e-14 7.01078e-15 0 0 0 0)
(0 5.9203e-17 0 0 9.65794e-15 0 0 0 0)
(0 4.25286e-15 0 -5.42101e-14 1.19176e-14 0 0 0 0)
(0 -2.63539e-15 0 0 2.16274e-14 0 0 0 0)
(-5.42101e-14 -9.19719e-15 0 2.71051e-14 2.17583e-14 0 0 0 0)
(0 5.22636e-15 0 0 1.24353e-14 0 0 0 0)
(0 -9.20424e-17 0 2.71051e-14 9.56327e-15 0 0 0 0)
(0 -8.11015e-15 0 2.71051e-14 1.22693e-15 0 0 0 0)
(0 2.67452e-15 0 5.42101e-14 -7.48338e-15 0 0 0 0)
(0 3.31698e-15 0 2.71051e-14 -4.4584e-15 0 0 0 0)
(0 9.12003e-15 0 0 -6.87826e-15 0 0 0 0)
(-9.21572e-13 -8.85968e-12 0 -1.89735e-12 1.57409e-11 0 0 0 0)
(1.46367e-12 1.0691e-11 0 3.52366e-13 -3.30755e-12 0 0 0 0)
(-3.79471e-13 -2.28836e-12 0 -1.6263e-13 8.06651e-13 0 0 0 0)
(0 5.40834e-13 0 -2.71051e-14 -1.5468e-13 0 0 0 0)
(0 -1.18985e-13 0 -5.42101e-14 4.5375e-14 0 0 0 0)
(0 2.30752e-14 0 -8.13152e-14 1.34809e-14 0 0 0 0)
(-2.71051e-14 -1.51107e-14 0 -8.13152e-14 2.28518e-14 0 0 0 0)
(-2.71051e-14 -4.49785e-15 0 -5.42101e-14 3.37305e-14 0 0 0 0)
(-5.42101e-14 1.05025e-14 0 -8.13152e-14 3.17867e-14 0 0 0 0)
(0 1.27486e-14 0 -5.42101e-14 8.53296e-15 0 0 0 0)
(-2.71051e-14 8.39907e-15 0 -5.42101e-14 4.52207e-15 0 0 0 0)
(-2.71051e-14 7.37461e-15 0 0 7.46846e-17 0 0 0 0)
(5.42101e-14 -3.69896e-15 0 -5.42101e-14 -7.1054e-15 0 0 0 0)
(0 -1.58631e-14 0 -2.71051e-14 6.40903e-15 0 0 0 0)
(-2.71051e-14 -1.06728e-15 0 0 1.79549e-14 0 0 0 0)
(2.71051e-14 8.56274e-15 0 -2.71051e-14 2.24996e-15 0 0 0 0)
(-2.71051e-14 1.58425e-15 0 -2.71051e-14 9.48424e-15 0 0 0 0)
(0 -1.0788e-15 0 0 8.77585e-15 0 0 0 0)
(2.71051e-14 -4.54098e-15 0 -2.71051e-14 7.88851e-15 0 0 0 0)
(-5.42101e-14 8.76833e-15 0 -2.71051e-14 9.99985e-15 0 0 0 0)
)
;

boundaryField
{
    movingWall
    {
        type            extrapolatedCalculated;
        value           nonuniform List<tensor> 
20
(
(-9.21572e-13 -8.85968e-12 0 5.68434e-12 4.50607e-11 0 0 0 0)
(1.46367e-12 1.0691e-11 0 -1.90958e-12 -9.62196e-12 0 0 0 0)
(-3.79471e-13 -2.28836e-12 0 -3.10862e-13 2.29653e-12 0 0 0 0)
(0 5.40834e-13 0 -3.55271e-13 -4.68506e-13 0 0 0 0)
(0 -1.18985e-13 0 -3.10862e-13 1.33196e-13 0 0 0 0)
(0 2.30752e-14 0 -3.10862e-13 7.43371e-15 0 0 0 0)
(-2.71051e-14 -1.51107e-14 0 -2.66454e-13 4.08954e-14 0 0 0 0)
(-2.71051e-14 -4.49785e-15 0 -2.66454e-13 6.78767e-14 0 0 0 0)
(-5.42101e-14 1.05025e-14 0 -1.77636e-13 5.88868e-14 0 0 0 0)
(0 1.27486e-14 0 -8.88178e-14 2.58669e-14 0 0 0 0)
(-2.71051e-14 8.39907e-15 0 -8.88178e-14 7.8925e-15 0 0 0 0)
(-2.71051e-14 7.37461e-15 0 0 -7.72943e-15 0 0 0 0)
(5.42101e-14 -3.69896e-15 0 -4.44089e-14 -2.16059e-14 0 0 0 0)
(0 -1.58631e-14 0 -8.88178e-14 7.06641e-15 0 0 0 0)
(-2.71051e-14 -1.06728e-15 0 -4.44089e-14 4.18466e-14 0 0 0 0)
(2.71051e-14 8.56274e-15 0 -4.44089e-14 1.13355e-14 0 0 0 0)
(-2.71051e-14 1.58425e-15 0 -8.88178e-14 7.59569e-15 0 0 0 0)
(0 -1.0788e-15 0 0 4.99852e-15 0 0 0 0)
(2.71051e-14 -4.54098e-15 0 -4.44089e-14 1.19109e-14 0 0 0 0)
(-5.42101e-14 8.76833e-15 0 -8.88178e-14 2.31625e-14 0 0 0 0)
)
;
    }
    fixedWalls
    {
        type            extrapolatedCalculated;
        value           nonuniform List<tensor> 
60
(
(-5.41789e-12 6.28256e-11 0 1.27394e-12 1.69994e-11 0 0 0 0)
(1.04805e-11 5.17207e-12 0 7.04731e-13 -2.98493e-11 0 0 0 0)
(-2.57572e-12 -5.65718e-11 0 -4.77049e-12 8.29994e-12 0 0 0 0)
(-8.52651e-12 3.83718e-11 0 3.79471e-12 1.62265e-11 0 0 0 0)
(1.25233e-11 8.33426e-12 0 1.6263e-13 -2.29355e-11 0 0 0 0)
(-7.90479e-12 -5.33703e-11 0 -2.98156e-12 1.29703e-11 0 0 0 0)
(6.66134e-13 6.02155e-11 0 3.2255e-12 1.02993e-11 0 0 0 0)
(4.88498e-12 -1.21732e-11 0 -2.08709e-12 -2.66969e-11 0 0 0 0)
(-7.63833e-12 -4.6572e-11 0 -7.86047e-13 2.14592e-11 0 0 0 0)
(1.73195e-12 7.36635e-11 0 2.35814e-12 -3.39022e-12 0 0 0 0)
(1.82077e-12 -6.01329e-11 0 5.14996e-13 -1.15077e-11 0 0 0 0)
(3.81917e-12 2.76326e-11 0 -1.24683e-12 1.80402e-11 0 0 0 0)
(-3.19744e-12 1.20279e-11 0 -7.04731e-13 -1.90578e-11 0 0 0 0)
(1.11022e-12 -4.85984e-11 0 -6.50521e-13 1.30919e-11 0 0 0 0)
(-5.9508e-12 6.43957e-11 0 2.27682e-12 3.04082e-12 0 0 0 0)
(1.03029e-11 -3.64351e-11 0 -8.94467e-13 -2.13518e-11 0 0 0 0)
(-9.50351e-12 -2.10117e-11 0 -3.60497e-12 2.36278e-11 0 0 0 0)
(-4.17444e-12 5.80762e-11 0 5.71917e-12 7.77184e-13 0 0 0 0)
(1.33671e-11 -1.7903e-11 0 -4.06576e-13 -2.57842e-11 0 0 0 0)
(-5.68434e-12 -4.50607e-11 0 -1.89735e-12 1.57409e-11 0 0 0 0)
(0 -1.32142e-14 0 0 -3.51799e-15 0 0 0 0)
(8.88178e-14 2.72861e-14 0 0 -1.7366e-14 0 0 0 0)
(-4.44089e-14 5.62497e-14 0 2.71051e-14 -1.09929e-15 0 0 0 0)
(0 3.16833e-14 0 -2.71051e-14 1.04195e-14 0 0 0 0)
(-4.44089e-14 1.45719e-14 0 2.71051e-14 1.26406e-14 0 0 0 0)
(-4.44089e-14 -1.8879e-14 0 0 7.34299e-15 0 0 0 0)
(0 -1.48001e-14 0 -2.71051e-14 -6.58676e-15 0 0 0 0)
(0 7.46803e-15 0 0 -7.80971e-15 0 0 0 0)
(8.88178e-14 1.64387e-14 0 0 -3.16333e-15 0 0 0 0)
(-4.44089e-14 2.01214e-14 0 2.71051e-14 3.85944e-15 0 0 0 0)
(-4.44089e-14 1.00099e-15 0 -2.71051e-14 1.39324e-14 0 0 0 0)
(0 -3.56083e-14 0 0 -4.13731e-15 0 0 0 0)
(8.88178e-14 1.75502e-14 0 0 -2.62825e-14 0 0 0 0)
(-4.44089e-14 6.95215e-14 0 2.71051e-14 -4.22182e-15 0 0 0 0)
(0 3.44375e-14 0 -2.71051e-14 1.64649e-14 0 0 0 0)
(-4.44089e-14 3.66195e-15 0 0 9.84761e-15 0 0 0 0)
(0 -4.95292e-15 0 2.71051e-14 2.00313e-15 0 0 0 0)
(-8.88178e-14 -4.35058e-15 0 0 -5.44747e-15 0 0 0 0)
(0 1.6837e-14 0 0 -6.87826e-15 0 0 0 0)
(-8.88178e-14 2.31625e-14 0 -2.71051e-14 9.99985e-15 0 0 0 0)
(-8.94467e-13 1.23299e-11 0 -5.41789e-12 6.28256e-11 0 0 0 0)
(1.40946e-12 -1.49217e-11 0 1.82077e-12 -1.35061e-11 0 0 0 0)
(-3.79471e-13 3.1992e-12 0 1.77636e-13 3.13883e-12 0 0 0 0)
(5.42101e-14 -7.46391e-13 0 3.55271e-13 -7.09345e-13 0 0 0 0)
(-5.42101e-14 1.71794e-13 0 3.10862e-13 1.53268e-13 0 0 0 0)
(0 -2.64452e-14 0 2.22045e-13 -2.21669e-14 0 0 0 0)
(-2.71051e-14 2.584e-14 0 2.66454e-13 4.74875e-14 0 0 0 0)
(-5.42101e-14 6.31053e-15 0 1.77636e-13 8.11933e-14 0 0 0 0)
(-2.71051e-14 -1.37949e-14 0 8.88178e-14 7.27296e-14 0 0 0 0)
(-2.71051e-14 -2.643e-14 0 0 2.60136e-14 0 0 0 0)
(2.71051e-14 -1.13236e-14 0 4.44089e-14 -3.29905e-14 0 0 0 0)
(2.71051e-14 7.90811e-15 0 0 -1.92808e-14 0 0 0 0)
(0 7.09425e-15 0 1.77636e-13 -1.35804e-15 0 0 0 0)
(0 1.15752e-14 0 1.33227e-13 9.09617e-15 0 0 0 0)
(0 5.81749e-15 0 1.33227e-13 4.49427e-14 0 0 0 0)
(-2.71051e-14 -4.84551e-15 0 0 3.23661e-14 0 0 0 0)
(2.71051e-14 -1.30687e-15 0 1.33227e-13 2.55607e-14 0 0 0 0)
(-5.42101e-14 -1.30029e-15 0 0 2.71386e-14 0 0 0 0)
(0 -3.48112e-15 0 4.44089e-14 2.03595e-14 0 0 0 0)
(0 -8.39342e-15 0 0 1.32142e-14 0 0 0 0)
)
;
    }
    frontAndBack
    {
        type            empty;
    }
}


// ************************************************************************* //
