/*--------------------------------*- C++ -*----------------------------------*\
| =========                 |                                                 |
| \\      /  F ield         | OpenFOAM: The Open Source CFD Toolbox           |
|  \\    /   O peration     | Version:  2312                                  |
|   \\  /    A nd           | Website:  www.openfoam.com                      |
|    \\/     M anipulation  |                                                 |
\*---------------------------------------------------------------------------*/
FoamFile
{
    version     2.0;
    format      ascii;
    arch        "LSB;label=32;scalar=64";
    class       volScalarField;
    location    "9.75";
    object      Lambda2Field;
}
// * * * * * * * * * * * * * * * * * * * * * * * * * * * * * * * * * * * * * //

dimensions      [0 0 -2 0 0 0 0];

internalField   nonuniform List<scalar> 
400
(
1.65075e-23
7.64893e-24
1.43998e-25
0
1.69082e-26
0
7.34684e-28
1.31478e-27
7.34684e-28
1.52646e-27
1.34854e-27
2.42077e-28
0
-5.37127e-28
0
2.6326e-28
1.16937e-29
1.06733e-28
0
0
4.1176e-24
7.7512e-24
4.62508e-25
7.25001e-27
0
-9.15011e-29
1.91974e-27
1.51676e-27
1.87563e-27
0
0
0
0
3.53795e-30
5.85036e-28
0
1.45206e-28
0
0
3.01577e-28
5.3454e-23
1.99839e-23
0
9.72526e-26
0
3.78043e-27
1.49184e-27
0
6.0913e-28
5.15646e-28
1.8837e-28
1.93585e-28
1.37771e-27
-1.49077e-28
0
4.21075e-30
1.07373e-27
-5.30923e-29
0
6.76687e-28
3.07636e-23
1.33636e-23
6.81212e-25
-7.20388e-27
1.49927e-26
-9.79368e-28
9.99004e-28
3.73598e-28
0
0
0
2.45126e-28
3.25907e-28
0
2.01332e-29
1.63462e-28
3.50928e-29
7.81716e-29
7.76518e-29
-2.74918e-28
5.56751e-24
9.21303e-24
7.18283e-25
9.45611e-27
1.43674e-27
1.32215e-27
9.52779e-28
0
2.34008e-28
-4.88233e-29
3.9925e-28
2.2673e-28
0
-5.51787e-28
0
2.96045e-28
1.40718e-28
8.96902e-30
5.43105e-29
3.20038e-28
3.33335e-23
1.52289e-23
4.14086e-25
-5.64985e-27
7.44837e-27
0
0
3.5021e-28
0
-1.37602e-27
5.5122e-28
-1.44235e-28
1.48742e-27
3.76964e-28
5.46688e-28
2.67542e-28
0
1.54347e-28
2.57816e-29
5.39195e-29
3.81066e-23
1.5882e-23
0
8.08597e-26
6.81255e-27
-1.61066e-27
1.29428e-27
3.48475e-28
3.56882e-27
-5.62239e-28
0
0
1.0598e-27
-7.70163e-29
0
0
0
-1.97998e-28
0
-3.1687e-29
5.42964e-24
3.15319e-24
3.70226e-25
1.83671e-26
1.21563e-26
-5.11747e-27
0
-7.07226e-28
1.04123e-28
-1.32364e-27
1.24249e-27
-1.7372e-27
9.65111e-28
8.44661e-29
0
2.66355e-28
1.0368e-27
0
3.77009e-29
0
9.11436e-24
7.87985e-24
1.61497e-25
2.93874e-27
1.53454e-26
-3.0748e-27
2.84918e-27
4.10461e-28
2.91084e-27
3.8888e-28
1.21667e-28
3.60931e-28
1.91792e-28
5.27753e-28
5.59435e-29
4.55291e-32
3.39289e-28
-4.52028e-28
1.39667e-28
0
3.37764e-23
1.11457e-23
5.3285e-25
-9.23291e-26
2.98912e-26
-3.60814e-27
2.88462e-27
0
0
3.99412e-28
2.50237e-28
-1.70491e-29
4.05013e-28
0
4.44234e-29
4.991e-28
0
3.80473e-28
1.25941e-28
2.55291e-28
0
3.25425e-24
0
3.97926e-26
0
5.3611e-27
3.0197e-27
3.51787e-28
1.69725e-27
2.24014e-28
1.32907e-27
0
2.2849e-28
-1.33696e-27
0
-2.3997e-28
5.22678e-28
5.04537e-29
3.02009e-28
0
0
5.35585e-25
0
6.2565e-26
0
3.65787e-27
2.22404e-27
7.70169e-28
0
-1.52825e-27
2.82127e-27
9.77169e-29
4.74042e-27
5.64192e-28
5.80772e-28
6.80714e-28
3.33023e-28
0
0
0
0
2.93874e-25
0
4.38353e-26
0
0
7.75841e-28
0
1.91558e-28
0
0
1.66769e-29
0
-1.98526e-27
0
0
0
0
0
6.90768e-28
6.30295e-24
5.36472e-24
0
0
0
8.68746e-28
8.64535e-28
3.76205e-30
4.00396e-29
0
0
-7.94509e-28
1.47076e-27
-7.58642e-29
0
6.82372e-28
1.05978e-27
0
0
8.72083e-28
3.00276e-23
1.12543e-23
3.24616e-25
-4.52355e-26
4.1855e-27
-1.30953e-28
8.3251e-28
0
4.12229e-28
1.8344e-29
1.31387e-27
2.87471e-28
1.62906e-28
-1.8091e-27
0
1.52123e-28
6.21877e-29
-1.53629e-28
2.59163e-28
-1.29734e-28
1.01054e-23
8.19724e-24
3.96263e-25
1.83671e-26
7.34684e-28
5.60118e-28
7.34684e-28
1.13566e-28
7.07332e-28
-4.31312e-28
0
0
8.08987e-28
0
4.6936e-28
7.21494e-28
1.0342e-29
8.01301e-29
6.20179e-29
9.69754e-29
1.79552e-23
9.24e-24
6.50342e-25
7.34684e-28
0
1.3504e-28
0
-1.27154e-27
0
-1.797e-27
0
2.76516e-28
0
0
7.12415e-28
1.86389e-31
2.23667e-28
5.46945e-28
0
-2.26751e-29
6.6097e-23
1.94959e-23
4.07761e-25
3.95149e-26
0
-1.00707e-27
7.34684e-28
-4.78295e-28
1.94979e-28
4.50274e-28
1.21278e-27
0
6.99058e-31
1.63341e-28
2.41242e-28
4.69183e-28
8.90767e-29
0
2.83097e-29
2.96749e-29
7.67134e-24
1.20746e-23
4.3041e-25
2.96803e-26
1.28048e-27
-1.33751e-29
0
1.02594e-28
0
-3.44309e-28
0
-8.85178e-29
0
2.24134e-28
0
0
0
1.44986e-28
8.9907e-29
0
1.76592e-23
5.90949e-24
5.16156e-25
0
6.45019e-27
-1.69463e-27
1.96342e-27
9.78513e-28
2.08473e-27
-6.18291e-28
2.79369e-28
5.57779e-33
8.88852e-28
4.29971e-28
3.22664e-28
0
2.52779e-28
0
3.12597e-28
0
)
;

boundaryField
{
    movingWall
    {
        type            calculated;
        value           nonuniform List<scalar> 
20
(
0
0
8.55365e-25
0
3.6988e-26
-7.11796e-27
4.76099e-27
1.93315e-27
1.07313e-27
-4.63207e-28
0
5.97441e-29
1.04541e-27
1.40893e-27
7.82081e-28
0
5.93974e-28
0
7.40892e-28
0
)
;
    }
    fixedWalls
    {
        type            calculated;
        value           nonuniform List<scalar> 
60
(
1.09389e-22
1.13486e-22
2.76509e-22
2.18311e-22
1.58189e-22
2.21612e-22
1.94669e-22
4.92696e-23
9.49519e-23
1.76709e-22
0
0
1.74718e-24
3.28469e-23
1.8203e-22
1.38739e-22
1.66063e-22
3.32752e-22
1.85958e-22
1.17808e-22
0
3.01577e-28
1.73821e-27
-7.50212e-28
5.94025e-28
5.39195e-29
4.01157e-28
0
7.75647e-29
5.60286e-28
3.64468e-28
0
7.67771e-28
1.90221e-27
0
9.69754e-29
0
2.96749e-29
0
0
0
0
7.1229e-25
0
5.63432e-26
-5.38064e-27
7.61986e-27
4.05971e-27
0
6.76709e-28
2.31814e-28
3.71751e-28
1.26019e-27
1.54212e-27
7.75045e-28
7.34684e-28
5.60574e-28
7.36506e-28
0
0
)
;
    }
    frontAndBack
    {
        type            empty;
    }
}


// ************************************************************************* //
