/*--------------------------------*- C++ -*----------------------------------*\
| =========                 |                                                 |
| \\      /  F ield         | OpenFOAM: The Open Source CFD Toolbox           |
|  \\    /   O peration     | Version:  2312                                  |
|   \\  /    A nd           | Website:  www.openfoam.com                      |
|    \\/     M anipulation  |                                                 |
\*---------------------------------------------------------------------------*/
FoamFile
{
    version     2.0;
    format      ascii;
    arch        "LSB;label=32;scalar=64";
    class       volVectorField;
    location    "9.75";
    object      LambVectorField;
}
// * * * * * * * * * * * * * * * * * * * * * * * * * * * * * * * * * * * * * //

dimensions      [0 1 -2 0 0 0 0];

internalField   nonuniform List<vector> 
400
(
(-1.73649e-24 -1.10559e-11 -1.10559e-11)
(-4.91023e-25 1.45422e-11 -0)
(-2.51044e-26 -3.1992e-12 -3.1992e-12)
(-1.37169e-27 7.73496e-13 -0)
(-3.4669e-29 -9.04793e-14 -9.04793e-14)
(-1.46552e-30 2.64452e-14 -0)
(-3.0677e-30 -2.584e-14 -2.584e-14)
(-1.28093e-30 -6.31053e-15 0)
(2.50825e-30 1.37949e-14 1.37949e-14)
(-1.80665e-30 -2.77801e-14 0)
(3.53711e-30 -4.28865e-14 -4.28865e-14)
(3.81187e-31 -7.90811e-15 -0)
(2.40857e-32 -7.09425e-15 -7.09425e-15)
(-1.49599e-30 -6.57853e-14 0)
(-6.74451e-30 -6.00276e-14 -6.00276e-14)
(-3.99435e-30 -4.93646e-14 0)
(8.3511e-32 1.30687e-15 1.30687e-15)
(8.822e-32 1.30029e-15 0)
(1.77185e-31 3.48112e-15 3.48112e-15)
(2.7728e-31 8.39342e-15 0)
(-4.10569e-27 -3.17527e-13 -3.17527e-13)
(-2.48536e-27 9.1792e-13 -0)
(-1.93083e-28 -3.87424e-13 -3.87424e-13)
(1.9562e-29 -1.03714e-13 -0)
(-3.13292e-29 -1.738e-13 -1.738e-13)
(-1.65164e-29 -8.50782e-14 0)
(-1.69657e-29 -7.78635e-14 -7.78635e-14)
(-6.66101e-30 -4.17317e-14 0)
(-3.85688e-30 -4.14243e-14 -4.14243e-14)
(6.84151e-31 2.15434e-14 0)
(-1.7021e-30 1.39143e-14 1.39143e-14)
(6.09172e-31 -5.67273e-15 -0)
(4.73505e-30 -7.21807e-14 -7.21807e-14)
(-6.21614e-31 -8.59528e-15 0)
(2.96328e-31 1.45595e-14 1.45595e-14)
(-4.34364e-30 5.9279e-14 -0)
(1.97437e-30 -6.50841e-14 -6.50841e-14)
(4.13273e-32 1.1653e-15 0)
(-4.3534e-31 1.0368e-14 1.0368e-14)
(7.51761e-31 -1.10204e-14 -0)
(-9.0299e-25 6.38474e-12 6.38474e-12)
(-3.56932e-25 -1.19467e-11 0)
(-2.12629e-26 2.90237e-12 2.90237e-12)
(-7.82057e-28 -5.60388e-13 0)
(-5.7811e-29 1.57557e-13 1.57557e-13)
(3.99289e-30 4.38591e-14 0)
(7.57249e-31 9.91088e-14 9.91088e-14)
(-1.02932e-29 1.18452e-13 -0)
(-9.52758e-30 1.02802e-13 1.02802e-13)
(-3.18404e-30 1.03664e-13 -0)
(-3.97199e-30 8.80336e-14 8.80336e-14)
(-4.95962e-30 5.06602e-14 -0)
(-3.87355e-31 4.02651e-14 4.02651e-14)
(3.83021e-30 9.21835e-14 0)
(-1.55193e-29 1.31182e-13 1.31182e-13)
(9.34286e-31 -5.02113e-15 -0)
(-2.34259e-30 3.44032e-14 3.44032e-14)
(3.73791e-31 3.11542e-14 0)
(-1.65723e-30 1.52622e-14 1.52622e-14)
(-3.07164e-31 2.18429e-15 -0)
(-3.53332e-25 -3.68325e-12 -3.68325e-12)
(-1.72134e-25 8.13871e-12 -0)
(-8.80197e-27 -1.83961e-12 -1.83961e-12)
(-6.20972e-28 5.50695e-13 -0)
(6.81323e-30 7.49592e-14 7.49592e-14)
(-1.96019e-29 7.81248e-14 -0)
(-5.30482e-30 3.57817e-14 3.57817e-14)
(-8.87498e-31 1.33217e-14 -0)
(4.2174e-32 -4.04687e-15 -4.04687e-15)
(-2.62089e-31 1.00218e-14 -0)
(-6.77817e-30 6.12634e-14 6.12634e-14)
(1.85784e-30 -1.92155e-14 -0)
(1.22935e-30 1.50812e-14 1.50812e-14)
(3.14369e-31 1.33468e-14 0)
(-3.96444e-31 7.63083e-15 7.63083e-15)
(9.77075e-32 -1.85212e-15 -0)
(-8.62885e-31 2.58104e-14 2.58104e-14)
(9.64179e-31 -2.4221e-14 -0)
(-2.45356e-31 3.94007e-15 3.94007e-15)
(3.26758e-30 -4.12531e-14 -0)
(-2.98474e-26 -1.43252e-12 -1.43252e-12)
(-9.27282e-27 1.89854e-12 -0)
(-4.40653e-28 -4.24904e-13 -4.24904e-13)
(-2.83329e-29 7.78182e-14 -0)
(9.96742e-31 -8.19171e-14 -8.19171e-14)
(-8.80632e-31 1.01198e-14 -0)
(5.68948e-30 -5.0187e-14 -5.0187e-14)
(1.05134e-29 -8.2619e-14 -0)
(6.36533e-30 -6.34459e-14 -6.34459e-14)
(2.39592e-30 -6.86633e-14 -0)
(-1.61175e-30 -3.64609e-14 -3.64609e-14)
(-3.56634e-30 -6.07914e-14 0)
(3.60229e-30 3.27429e-14 3.27429e-14)
(1.08789e-31 4.75758e-14 0)
(-5.72927e-31 6.05053e-15 6.05053e-15)
(-9.42148e-31 1.61829e-14 -0)
(-4.88493e-31 -3.36177e-14 -3.36177e-14)
(2.57136e-32 3.72244e-15 0)
(-9.83478e-32 4.33374e-15 4.33374e-15)
(-7.72044e-31 2.11927e-14 -0)
(-9.98002e-25 7.47983e-12 7.47983e-12)
(-3.3866e-25 -1.17542e-11 0)
(-1.868e-26 2.69187e-12 2.69187e-12)
(-9.30725e-28 -6.88831e-13 0)
(-2.24339e-29 6.96356e-14 6.96356e-14)
(-9.39964e-30 -8.33972e-14 0)
(-7.62315e-31 2.51666e-14 2.51666e-14)
(-2.23577e-30 1.60897e-14 -0)
(1.15806e-29 -6.05721e-14 -6.05721e-14)
(8.08149e-30 -1.07272e-13 -0)
(-8.91997e-30 -1.30441e-13 -1.30441e-13)
(-1.24284e-29 -8.57884e-14 0)
(-4.56132e-30 -4.03245e-14 -4.03245e-14)
(-7.94158e-32 -1.31976e-14 0)
(6.38037e-31 -2.4578e-14 -2.4578e-14)
(6.20909e-31 -3.2249e-14 -0)
(-1.40522e-30 -5.51495e-14 -5.51495e-14)
(-1.70702e-32 1.7314e-15 -0)
(-4.65928e-32 -5.70567e-15 -5.70567e-15)
(2.61302e-31 5.53635e-15 0)
(-1.29015e-24 -8.57021e-12 -8.57021e-12)
(-4.2923e-25 1.3174e-11 -0)
(-2.47432e-26 -3.21933e-12 -3.21933e-12)
(-8.98643e-28 6.10273e-13 -0)
(-5.77764e-29 -1.15813e-13 -1.15813e-13)
(-4.22461e-30 9.74741e-14 -0)
(2.90686e-30 4.38873e-14 4.38873e-14)
(3.67312e-30 6.13344e-14 0)
(-4.88101e-31 9.74553e-14 9.74553e-14)
(-9.87377e-30 9.72645e-14 -0)
(1.97775e-31 -1.20226e-15 -1.20226e-15)
(-2.86217e-30 3.19825e-14 -0)
(-4.24468e-31 1.99023e-15 1.99023e-15)
(6.24111e-30 -5.70515e-14 -0)
(-9.18823e-30 -1.06606e-13 -1.06606e-13)
(8.56293e-31 5.96652e-15 0)
(2.12968e-30 8.02946e-14 8.02946e-14)
(-4.25048e-30 3.62271e-14 -0)
(9.98464e-31 -1.54329e-14 -1.54329e-14)
(-1.10537e-30 -2.98747e-14 0)
(-8.96071e-27 2.9444e-13 2.9444e-13)
(-1.60865e-26 -2.43081e-12 0)
(-8.63719e-28 4.83035e-13 4.83035e-13)
(-2.39907e-29 -1.48938e-13 0)
(1.88608e-29 -6.31363e-14 -6.31363e-14)
(3.22723e-30 -1.55829e-13 -0)
(-2.46642e-29 -1.40653e-13 -1.40653e-13)
(-2.03971e-29 -6.76246e-14 0)
(5.18019e-30 1.67373e-14 1.67373e-14)
(1.1224e-29 8.3606e-14 0)
(1.58783e-30 1.02175e-13 1.02175e-13)
(-7.73984e-30 1.04097e-13 -0)
(-1.41433e-29 6.6626e-14 6.6626e-14)
(2.82946e-30 -1.42534e-14 -0)
(1.19519e-30 -1.71366e-14 -1.71366e-14)
(-9.68004e-33 3.5661e-16 -0)
(3.58638e-30 -4.89205e-14 -4.89205e-14)
(2.41243e-30 -3.014e-14 -0)
(2.63658e-31 -6.1371e-15 -6.1371e-15)
(1.15066e-31 -6.16314e-15 -0)
(-9.75463e-25 8.3781e-12 8.3781e-12)
(-2.63226e-25 -1.06188e-11 0)
(-1.52432e-26 2.46821e-12 2.46821e-12)
(-5.23339e-28 -5.69076e-13 0)
(2.13336e-29 -4.39805e-14 -4.39805e-14)
(-5.40082e-31 -1.29179e-13 0)
(5.30047e-31 -8.24165e-14 -8.24165e-14)
(-9.14546e-31 -6.0191e-14 0)
(-4.59437e-30 -8.60735e-14 -8.60735e-14)
(-3.45096e-30 -5.49709e-14 0)
(-1.37926e-30 -2.26163e-14 -2.26163e-14)
(-1.37536e-30 -7.68765e-14 0)
(-8.41072e-31 -5.06722e-14 -5.06722e-14)
(-9.6358e-32 5.5097e-15 -0)
(-8.4647e-33 2.1987e-16 2.1987e-16)
(-1.14509e-31 5.81635e-15 -0)
(-5.9451e-30 6.15039e-14 6.15039e-14)
(5.8099e-30 -6.2725e-14 -0)
(-2.52747e-31 2.19522e-14 2.19522e-14)
(2.16212e-31 -5.26104e-15 -0)
(-2.19776e-24 -1.1934e-11 -1.1934e-11)
(-6.958e-25 1.68732e-11 -0)
(-3.44477e-26 -3.74742e-12 -3.74742e-12)
(-2.41034e-27 1.0012e-12 -0)
(-1.9729e-29 -7.45611e-14 -7.45611e-14)
(-3.9228e-29 1.2795e-13 -0)
(-1.25621e-29 6.22655e-14 6.22655e-14)
(1.52125e-30 -1.31039e-14 -0)
(3.03681e-31 -4.29466e-15 -4.29466e-15)
(5.3333e-31 -7.29145e-15 -0)
(-1.83602e-32 -8.33331e-15 -8.33331e-15)
(5.57438e-31 5.47128e-14 0)
(-7.06066e-32 2.50021e-14 2.50021e-14)
(-2.45587e-32 -7.86695e-16 0)
(3.05077e-32 6.04959e-15 6.04959e-15)
(-3.30195e-31 1.12778e-14 -0)
(-8.8008e-31 8.16892e-15 8.16892e-15)
(-5.24603e-30 4.72753e-14 -0)
(1.27335e-30 -3.31715e-14 -3.31715e-14)
(-9.17334e-31 1.8236e-14 -0)
(-1.84472e-24 1.2271e-11 1.2271e-11)
(-4.59747e-25 -1.40284e-11 0)
(-2.69217e-26 3.41662e-12 3.41662e-12)
(-1.07952e-27 -6.79833e-13 0)
(-1.80401e-28 3.34569e-13 3.34569e-13)
(-1.33295e-29 1.01388e-13 -0)
(-2.13015e-29 1.07673e-13 1.07673e-13)
(-5.91747e-30 4.77208e-14 -0)
(-1.09839e-29 8.26225e-14 8.26225e-14)
(-6.86441e-30 5.00778e-14 -0)
(-3.25419e-30 3.55192e-14 3.55192e-14)
(-1.22932e-30 -2.46685e-14 0)
(3.73709e-30 2.40998e-14 2.40998e-14)
(6.35142e-30 7.95059e-14 0)
(-1.3775e-29 1.40718e-13 1.40718e-13)
(-8.82354e-30 3.6297e-14 -0)
(-2.69306e-30 1.41882e-14 1.41882e-14)
(1.58583e-30 -1.39201e-14 -0)
(-8.07871e-31 1.59629e-14 1.59629e-14)
(8.11212e-32 -3.24162e-14 -0)
(-4.61082e-25 -6.67446e-12 -6.67446e-12)
(-9.69133e-26 6.54591e-12 -0)
(-6.1409e-27 -1.69528e-12 -1.69528e-12)
(-1.38112e-28 2.45382e-13 -0)
(-6.15432e-29 -1.7318e-13 -1.7318e-13)
(-3.6504e-30 -4.30684e-14 0)
(7.24479e-31 -2.67364e-14 -2.67364e-14)
(7.59973e-30 -4.0003e-14 -0)
(1.61748e-29 -9.56139e-14 -9.56139e-14)
(5.86936e-30 -1.24903e-13 -0)
(5.01826e-31 -1.15542e-13 -1.15542e-13)
(-1.94099e-30 -8.01135e-14 0)
(1.68936e-30 -1.0326e-13 -1.0326e-13)
(1.48197e-30 -5.41377e-14 -0)
(9.74654e-31 -5.70493e-14 -5.70493e-14)
(-2.9613e-32 -2.90962e-14 0)
(-2.18297e-31 -7.72197e-14 -7.72197e-14)
(1.17627e-32 -2.94533e-16 -0)
(-5.43813e-31 -9.42109e-14 -9.42109e-14)
(8.43856e-31 9.47931e-15 0)
(-9.28287e-26 -3.08711e-12 -3.08711e-12)
(-1.78783e-26 2.86233e-12 -0)
(-1.16574e-27 -8.05869e-13 -8.05869e-13)
(-3.21401e-29 9.03345e-14 -0)
(-2.03439e-31 -1.81363e-13 -1.81363e-13)
(-1.47377e-29 -1.43659e-13 0)
(-3.29005e-30 -3.98984e-14 -3.98984e-14)
(-3.82616e-31 9.4404e-15 -0)
(4.00546e-31 -3.35374e-14 -3.35374e-14)
(-1.91079e-31 -8.03049e-15 0)
(3.47984e-31 5.09034e-15 5.09034e-15)
(-8.20224e-31 3.02562e-14 -0)
(-3.03768e-30 1.29704e-14 1.29704e-14)
(1.6664e-29 -1.06266e-13 -0)
(-1.68731e-30 -1.10196e-13 -1.10196e-13)
(-1.10348e-29 -8.36008e-14 0)
(6.47849e-31 1.69735e-14 1.69735e-14)
(-4.60545e-31 1.2203e-14 -0)
(-5.14499e-32 6.13512e-16 6.13512e-16)
(5.60453e-31 -1.27737e-14 -0)
(-1.07496e-24 8.84769e-12 8.84769e-12)
(-2.93767e-25 -1.10797e-11 0)
(-1.6069e-26 2.63815e-12 2.63815e-12)
(-9.10168e-28 -6.11798e-13 0)
(-4.8455e-29 1.98521e-13 1.98521e-13)
(3.14926e-30 7.06315e-14 0)
(-9.83444e-30 7.16569e-14 7.16569e-14)
(7.8081e-31 -6.01174e-15 -0)
(8.98858e-31 -1.16544e-14 -1.16544e-14)
(2.31539e-31 -1.73608e-14 -0)
(-7.5644e-31 -7.84022e-15 -7.84022e-15)
(5.93291e-30 9.11838e-14 0)
(-1.54437e-31 7.00615e-14 7.00615e-14)
(-3.37771e-30 3.61453e-14 -0)
(-2.58425e-30 2.79058e-14 2.79058e-14)
(-2.94576e-30 2.9035e-14 -0)
(-5.80237e-30 5.18504e-14 5.18504e-14)
(-2.33969e-30 3.00507e-14 -0)
(-1.28512e-29 9.09097e-14 9.09097e-14)
(7.66747e-31 -4.41156e-15 -0)
(-1.66059e-24 -1.03149e-11 -1.03149e-11)
(-5.11001e-25 1.45701e-11 -0)
(-2.70106e-26 -3.27761e-12 -3.27761e-12)
(-1.51436e-27 8.63489e-13 -0)
(-5.33732e-29 -1.27313e-13 -1.27313e-13)
(-2.32305e-29 1.10836e-13 -0)
(1.01709e-29 -6.91769e-14 -6.91769e-14)
(2.28599e-30 -3.81471e-14 -0)
(-8.004e-31 2.18643e-14 2.18643e-14)
(2.30675e-31 -3.06815e-14 -0)
(7.26727e-34 -8.62414e-16 -8.62414e-16)
(-7.08621e-32 -6.40843e-14 0)
(2.92626e-30 2.98904e-14 2.98904e-14)
(-3.52754e-30 1.31882e-13 -0)
(-1.37481e-29 1.00554e-13 1.00554e-13)
(-2.34585e-29 1.07048e-13 -0)
(1.92344e-30 -1.5638e-14 -1.5638e-14)
(2.0853e-30 -3.32263e-14 -0)
(1.53053e-30 -2.47717e-14 -2.47717e-14)
(3.60672e-30 -4.1893e-14 -0)
(-5.70453e-25 6.26267e-12 6.26267e-12)
(-1.64312e-25 -8.41914e-12 0)
(-8.49475e-27 1.90596e-12 1.90596e-12)
(-4.17751e-28 -4.18213e-13 0)
(-2.72365e-29 9.9114e-14 9.9114e-14)
(-6.91038e-31 -8.91199e-14 0)
(-9.84439e-31 -1.32498e-14 -1.32498e-14)
(4.02217e-31 2.86782e-15 0)
(-4.60366e-32 -1.00912e-15 -1.00912e-15)
(-7.03288e-30 5.82637e-14 -0)
(-1.7106e-29 6.43165e-14 6.43165e-14)
(4.98932e-30 -2.24976e-14 -0)
(2.23942e-30 -5.46331e-14 -5.46331e-14)
(-3.17788e-30 -5.93897e-14 0)
(-1.05776e-31 -9.78874e-15 -9.78874e-15)
(4.89552e-30 -4.09138e-14 -0)
(8.23722e-32 -6.74314e-16 -6.74314e-16)
(5.19317e-31 -4.59934e-15 -0)
(7.90244e-31 -1.03756e-14 -1.03756e-14)
(7.8108e-32 -8.53184e-15 -0)
(-2.56327e-26 4.8797e-13 4.8797e-13)
(-4.93728e-26 -4.2563e-12 0)
(-1.97004e-27 8.2881e-13 8.2881e-13)
(-2.18737e-28 -2.50735e-13 0)
(1.47205e-29 1.12884e-13 1.12884e-13)
(1.47731e-29 5.17191e-14 0)
(2.05512e-29 1.3232e-13 1.3232e-13)
(4.77176e-30 1.02306e-13 0)
(-5.84527e-30 1.0706e-13 1.0706e-13)
(-2.6353e-29 1.25013e-13 -0)
(7.05203e-31 -3.19784e-15 -3.19784e-15)
(-1.3933e-29 7.79146e-14 -0)
(8.57029e-32 -4.59485e-16 -4.59485e-16)
(-3.76573e-31 2.16137e-15 -0)
(-6.40193e-30 3.07588e-14 3.07588e-14)
(2.46844e-30 -1.17117e-14 -0)
(2.16182e-30 -2.37522e-14 -2.37522e-14)
(4.88465e-31 1.82571e-14 0)
(-3.64529e-33 1.43725e-15 1.43725e-15)
(3.47815e-31 2.80897e-14 0)
(-8.26052e-25 -5.68943e-12 -5.68943e-12)
(-3.84934e-25 1.23755e-11 -0)
(-2.07353e-26 -2.82443e-12 -2.82443e-12)
(-9.46927e-28 6.29175e-13 -0)
(-1.03596e-28 -2.04115e-13 -2.04115e-13)
(-6.13854e-31 1.02578e-13 -0)
(1.48931e-31 6.24187e-15 6.24187e-15)
(-4.89089e-30 7.15012e-14 -0)
(-1.31093e-29 8.79524e-14 8.79524e-14)
(-3.21183e-30 2.38311e-14 -0)
(-5.89903e-30 5.07179e-14 5.07179e-14)
(-3.16533e-30 3.16999e-14 -0)
(-1.0993e-29 6.77497e-14 6.77497e-14)
(-1.56936e-30 6.67104e-15 -0)
(8.75417e-30 -3.82328e-14 -3.82328e-14)
(2.45106e-30 -1.97711e-14 -0)
(5.82375e-31 -1.86309e-14 -1.86309e-14)
(-5.35614e-30 -8.59217e-14 0)
(7.61974e-32 5.1461e-15 5.1461e-15)
(2.79343e-32 2.56833e-15 0)
(-1.41752e-25 3.16712e-12 3.16712e-12)
(-3.50979e-26 -3.89087e-12 0)
(-2.51433e-27 1.08135e-12 1.08135e-12)
(-5.22474e-29 -1.39127e-13 0)
(-1.90311e-29 1.57596e-13 1.57596e-13)
(-3.21442e-30 2.76571e-14 -0)
(-4.07174e-30 3.2244e-14 3.2244e-14)
(-7.43725e-31 4.43714e-15 -0)
(2.50773e-30 -1.46951e-14 -1.46951e-14)
(8.59995e-31 -4.16211e-14 -0)
(1.50905e-33 -5.9203e-17 -5.9203e-17)
(1.17338e-30 -5.8463e-14 -0)
(4.49047e-32 2.63539e-15 2.63539e-15)
(-1.68531e-30 3.63022e-14 -0)
(3.91625e-31 -5.22636e-15 -5.22636e-15)
(1.58811e-31 2.71971e-14 0)
(-2.67118e-30 3.52152e-14 3.52152e-14)
(-3.87868e-30 5.15356e-14 -0)
(-1.16818e-30 2.37881e-14 2.37881e-14)
(3.83884e-31 -9.12003e-15 -0)
(-7.84317e-25 6.96232e-12 6.96232e-12)
(-2.48696e-25 -1.03387e-11 0)
(-1.22045e-26 2.12573e-12 2.12573e-12)
(-6.65207e-28 -5.67939e-13 0)
(-2.15695e-29 6.47749e-14 6.47749e-14)
(1.94002e-30 -1.0439e-13 -0)
(6.76865e-30 -6.62044e-14 -6.62044e-14)
(8.43576e-30 -4.97123e-14 -0)
(1.35171e-29 -9.18176e-14 -9.18176e-14)
(4.33003e-30 -6.69587e-14 -0)
(1.23536e-30 -6.26092e-14 -6.26092e-14)
(-1.42504e-31 -7.37461e-15 0)
(-2.72835e-30 -5.05111e-14 -5.05111e-14)
(1.986e-31 -1.12419e-14 -0)
(-1.11655e-31 1.06728e-15 1.06728e-15)
(1.01078e-30 -3.56678e-14 -0)
(5.44788e-31 -2.86893e-14 -2.86893e-14)
(-1.3481e-32 1.0788e-15 -0)
(6.71895e-31 -2.25641e-14 -2.25641e-14)
(2.07729e-30 -3.58734e-14 -0)
)
;

boundaryField
{
    movingWall
    {
        type            calculated;
        value           nonuniform List<vector> 
20
(
(0 1.4544e-11 -0)
(0 -1.26006e-11 -0)
(0 1.9775e-12 -0)
(0 -8.96105e-13 -0)
(0 -1.91877e-13 -0)
(0 -3.33938e-13 -0)
(0 -2.51343e-13 -0)
(0 -2.61956e-13 -0)
(0 -1.88138e-13 -0)
(0 -1.01566e-13 -0)
(0 -9.72169e-14 -0)
(0 -7.37461e-15 -0)
(0 -4.071e-14 -0)
(0 -7.29547e-14 -0)
(0 -4.33416e-14 -0)
(0 -5.29717e-14 -0)
(0 -9.04021e-14 -0)
(0 1.0788e-15 -0)
(0 -3.98679e-14 -0)
(0 -9.75862e-14 -0)
)
;
    }
    fixedWalls
    {
        type            calculated;
        value           nonuniform List<vector> 
60
(
(0 -6.15516e-11 -0)
(0 -4.46734e-12 -0)
(0 5.18013e-11 -0)
(0 -3.45771e-11 -0)
(0 -8.17163e-12 -0)
(0 5.03888e-11 -0)
(0 -5.699e-11 -0)
(0 1.00861e-11 -0)
(0 4.5786e-11 -0)
(0 -7.13054e-11 -0)
(0 6.06479e-11 -0)
(0 -2.88794e-11 -0)
(0 -1.27327e-11 -0)
(0 4.79479e-11 -0)
(0 -6.21188e-11 -0)
(0 3.55407e-11 -0)
(0 1.74068e-11 -0)
(0 -5.23571e-11 -0)
(0 1.74964e-11 -0)
(0 4.31633e-11 -0)
(0 1.32142e-14 -0)
(0 -2.72861e-14 -0)
(0 -2.91446e-14 -0)
(0 -5.87883e-14 -0)
(0 1.25332e-14 -0)
(0 1.8879e-14 -0)
(0 -1.2305e-14 -0)
(0 -7.46803e-15 -0)
(0 -1.64387e-14 -0)
(0 6.98369e-15 -0)
(0 -2.8106e-14 -0)
(0 3.56083e-14 -0)
(0 -1.75502e-14 -0)
(0 -4.24165e-14 -0)
(0 -6.15426e-14 -0)
(0 -3.66195e-15 -0)
(0 3.2058e-14 -0)
(0 4.35058e-15 -0)
(0 -1.6837e-14 -0)
(0 -5.02675e-14 -0)
(0 -1.77477e-11 -0)
(0 1.67425e-11 -0)
(0 -3.02156e-12 -0)
(0 1.10166e-12 -0)
(0 1.39068e-13 -0)
(0 2.4849e-13 -0)
(0 2.40613e-13 -0)
(0 1.71325e-13 -0)
(0 1.02613e-13 -0)
(0 2.643e-14 -0)
(0 5.57325e-14 -0)
(0 -7.90811e-15 -0)
(0 1.70541e-13 -0)
(0 1.21652e-13 -0)
(0 1.27409e-13 -0)
(0 4.84551e-15 -0)
(0 1.34534e-13 -0)
(0 1.30029e-15 -0)
(0 4.789e-14 -0)
(0 8.39342e-15 -0)
)
;
    }
    frontAndBack
    {
        type            empty;
    }
}


// ************************************************************************* //
