/*--------------------------------*- C++ -*----------------------------------*\
| =========                 |                                                 |
| \\      /  F ield         | OpenFOAM: The Open Source CFD Toolbox           |
|  \\    /   O peration     | Version:  2312                                  |
|   \\  /    A nd           | Website:  www.openfoam.com                      |
|    \\/     M anipulation  |                                                 |
\*---------------------------------------------------------------------------*/
FoamFile
{
    version     2.0;
    format      ascii;
    arch        "LSB;label=32;scalar=64";
    class       volScalarField;
    location    "9.75";
    object      magSqrP;
}
// * * * * * * * * * * * * * * * * * * * * * * * * * * * * * * * * * * * * * //

dimensions      [0 4 -4 0 0 0 0];

internalField   nonuniform List<scalar> 
400
(
1.59805e-31
1.0834e-29
2.36958e-30
3.05499e-30
3.10597e-30
2.88324e-30
2.98858e-30
2.86602e-30
3.06896e-30
3.6785e-30
3.21012e-30
3.15677e-30
3.61405e-30
3.65929e-30
3.28365e-30
2.68606e-30
3.25949e-30
4.17424e-30
4.70909e-30
4.39311e-30
6.20906e-30
0
3.07127e-30
2.48849e-30
3.70702e-30
3.24714e-30
3.35568e-30
2.4764e-30
2.62523e-30
3.19312e-30
3.081e-30
3.01151e-30
3.3631e-30
4.26102e-30
2.87223e-30
2.59678e-30
3.11039e-30
3.99901e-30
4.6187e-30
4.08809e-30
2.18288e-30
6.0683e-30
2.97748e-30
4.53092e-30
3.25947e-30
3.47949e-30
3.22377e-30
2.85649e-30
2.93228e-30
2.86539e-30
3.0926e-30
2.92202e-30
3.47587e-30
2.76398e-30
2.69001e-30
3.01751e-30
3.59455e-30
4.1178e-30
5.2552e-30
5.59581e-30
9.11522e-31
9.3994e-30
3.43454e-30
4.30216e-30
3.84238e-30
4.29249e-30
4.14445e-30
3.68176e-30
3.31279e-30
2.96488e-30
2.94485e-30
3.67898e-30
3.1207e-30
2.52462e-30
2.55904e-30
3.58967e-30
4.34213e-30
3.94283e-30
4.95129e-30
6.29944e-30
4.54694e-30
0
3.7526e-30
3.35829e-30
4.29833e-30
5.33253e-30
5.11976e-30
4.51312e-30
3.90607e-30
2.92465e-30
3.17232e-30
3.98575e-30
3.55548e-30
2.73148e-30
3.20332e-30
3.91802e-30
4.13054e-30
4.17555e-30
5.23108e-30
7.11054e-30
1.70483e-30
8.8206e-30
4.30469e-30
5.18102e-30
4.58291e-30
5.63439e-30
5.04507e-30
4.78359e-30
4.60036e-30
3.75972e-30
3.84229e-30
5.15792e-30
3.67969e-30
3.25142e-30
3.9738e-30
4.83953e-30
4.20359e-30
3.81107e-30
5.05286e-30
7.06423e-30
3.35052e-30
1.62535e-29
3.88292e-30
5.0586e-30
4.5447e-30
5.84601e-30
5.70686e-30
5.33932e-30
5.58929e-30
5.07882e-30
5.24629e-30
4.99101e-30
3.85417e-30
3.96201e-30
4.43884e-30
4.33749e-30
4.29205e-30
4.59052e-30
5.54816e-30
6.32218e-30
1.09107e-29
0
4.69139e-30
3.25819e-30
5.05412e-30
6.36692e-30
6.50545e-30
6.04384e-30
5.47421e-30
5.50841e-30
5.89983e-30
5.10218e-30
5.20365e-30
4.86596e-30
4.52178e-30
4.01093e-30
3.98312e-30
4.55429e-30
6.38988e-30
6.4006e-30
4.1631e-30
2.07825e-29
4.88841e-30
5.61407e-30
5.3634e-30
6.12118e-30
5.70944e-30
6.49857e-30
5.76289e-30
5.93364e-30
6.19859e-30
5.38957e-30
5.25774e-30
5.63259e-30
4.67487e-30
4.52258e-30
4.68334e-30
5.26628e-30
6.02246e-30
6.49031e-30
4.1409e-30
3.75701e-30
4.98846e-30
5.80207e-30
5.15315e-30
5.92718e-30
5.61968e-30
6.55753e-30
6.34954e-30
6.12182e-30
6.36754e-30
5.38387e-30
4.75704e-30
5.10232e-30
5.29964e-30
4.72084e-30
4.36247e-30
5.61472e-30
5.96926e-30
7.06951e-30
3.86172e-30
3.0479e-31
5.3273e-30
5.19943e-30
5.60073e-30
5.84512e-30
6.5556e-30
6.04941e-30
6.35893e-30
6.53837e-30
6.3378e-30
5.18489e-30
5.05373e-30
5.00659e-30
5.37979e-30
5.45604e-30
5.07679e-30
5.86954e-30
6.49695e-30
7.36235e-30
2.10473e-30
3.76811e-29
4.98367e-30
6.10938e-30
4.74638e-30
6.35882e-30
6.24217e-30
6.13661e-30
6.36602e-30
6.50261e-30
6.55601e-30
5.2286e-30
4.74457e-30
5.10614e-30
5.60405e-30
6.30679e-30
5.70249e-30
5.92066e-30
6.61251e-30
7.0752e-30
6.85275e-30
0
5.87029e-30
3.63524e-30
5.92335e-30
5.64458e-30
6.12903e-30
6.48151e-30
7.24801e-30
6.46502e-30
5.92341e-30
4.98725e-30
5.84078e-30
6.01518e-30
5.9277e-30
6.80902e-30
5.95936e-30
6.61216e-30
6.76585e-30
5.86844e-30
3.8865e-30
2.22178e-29
5.15808e-30
5.44171e-30
5.39911e-30
5.6241e-30
5.5953e-30
7.35541e-30
6.63867e-30
6.82052e-30
6.49634e-30
6.26115e-30
7.12438e-30
6.76697e-30
6.64103e-30
6.44433e-30
5.77701e-30
6.16441e-30
7.75003e-30
7.97372e-30
5.18607e-30
2.87404e-30
5.93128e-30
4.57369e-30
5.20651e-30
5.55921e-30
6.95037e-30
6.63933e-30
7.57963e-30
8.32193e-30
7.18731e-30
6.33328e-30
6.35455e-30
7.05795e-30
7.08344e-30
6.35215e-30
5.96572e-30
6.37264e-30
7.92728e-30
8.95504e-30
6.81048e-30
5.41956e-32
5.67998e-30
4.70387e-30
6.19918e-30
6.5046e-30
6.84516e-30
6.87429e-30
7.76002e-30
8.74378e-30
8.55506e-30
7.72241e-30
6.72557e-30
7.10144e-30
7.68967e-30
7.26696e-30
5.57677e-30
6.23646e-30
8.56057e-30
9.39893e-30
2.49133e-30
2.4317e-29
5.91706e-30
5.68876e-30
5.78708e-30
6.4589e-30
7.15934e-30
7.80888e-30
7.78682e-30
8.76707e-30
8.85406e-30
8.03116e-30
7.39941e-30
7.69534e-30
7.08068e-30
7.42281e-30
6.57094e-30
7.18153e-30
8.61936e-30
9.03929e-30
7.20316e-30
2.99346e-30
5.52893e-30
5.25914e-30
6.16969e-30
6.95284e-30
7.55604e-30
7.80869e-30
7.4153e-30
9.23556e-30
9.56363e-30
8.57374e-30
7.60517e-30
7.27528e-30
7.3817e-30
8.99965e-30
7.28451e-30
6.24668e-30
8.11365e-30
9.1084e-30
1.07157e-29
2.72423e-33
6.50423e-30
4.68432e-30
5.66154e-30
7.10414e-30
8.17857e-30
7.32616e-30
7.96113e-30
8.50009e-30
9.22627e-30
9.30385e-30
8.03871e-30
7.78939e-30
7.98646e-30
9.39146e-30
7.94741e-30
6.59235e-30
8.29663e-30
8.56525e-30
1.4756e-30
1.70693e-29
6.17752e-30
5.80528e-30
5.31803e-30
7.15228e-30
7.72398e-30
7.85896e-30
8.55154e-30
8.26873e-30
9.35927e-30
1.06594e-29
8.22398e-30
7.70401e-30
8.6472e-30
8.68932e-30
8.0547e-30
6.12507e-30
8.04534e-30
9.94862e-30
)
;

boundaryField
{
    movingWall
    {
        type            calculated;
        value           nonuniform List<scalar> 
20
(
1.4756e-30
1.70693e-29
6.17752e-30
5.80528e-30
5.31803e-30
7.15228e-30
7.72398e-30
7.85896e-30
8.55154e-30
8.26873e-30
9.35927e-30
1.06594e-29
8.22398e-30
7.70401e-30
8.6472e-30
8.68932e-30
8.0547e-30
6.12507e-30
8.04534e-30
9.94862e-30
)
;
    }
    fixedWalls
    {
        type            calculated;
        value           nonuniform List<scalar> 
60
(
1.59805e-31
6.20906e-30
2.18288e-30
9.11522e-31
4.54694e-30
1.70483e-30
3.35052e-30
1.09107e-29
4.1631e-30
4.1409e-30
3.86172e-30
2.10473e-30
6.85275e-30
3.8865e-30
5.18607e-30
6.81048e-30
2.49133e-30
7.20316e-30
1.07157e-29
1.4756e-30
4.39311e-30
4.08809e-30
5.59581e-30
6.29944e-30
7.11054e-30
7.06423e-30
6.32218e-30
6.4006e-30
6.49031e-30
7.06951e-30
7.36235e-30
7.0752e-30
5.86844e-30
7.97372e-30
8.95504e-30
9.39893e-30
9.03929e-30
9.1084e-30
8.56525e-30
9.94862e-30
1.59805e-31
1.0834e-29
2.36958e-30
3.05499e-30
3.10597e-30
2.88324e-30
2.98858e-30
2.86602e-30
3.06896e-30
3.6785e-30
3.21012e-30
3.15677e-30
3.61405e-30
3.65929e-30
3.28365e-30
2.68606e-30
3.25949e-30
4.17424e-30
4.70909e-30
4.39311e-30
)
;
    }
    frontAndBack
    {
        type            empty;
    }
}


// ************************************************************************* //
