/*--------------------------------*- C++ -*----------------------------------*\
| =========                 |                                                 |
| \\      /  F ield         | OpenFOAM: The Open Source CFD Toolbox           |
|  \\    /   O peration     | Version:  2312                                  |
|   \\  /    A nd           | Website:  www.openfoam.com                      |
|    \\/     M anipulation  |                                                 |
\*---------------------------------------------------------------------------*/
FoamFile
{
    version     2.0;
    format      ascii;
    arch        "LSB;label=32;scalar=64";
    class       volScalarField;
    location    "9.75";
    object      QField;
}
// * * * * * * * * * * * * * * * * * * * * * * * * * * * * * * * * * * * * * //

dimensions      [0 0 -2 0 0 0 0];

internalField   nonuniform List<scalar> 
400
(
-3.09129e-23
-1.08031e-23
-3.16686e-25
9.59508e-27
-1.70239e-26
0
-9.12382e-28
-1.96565e-27
-7.45201e-28
-1.69513e-27
-1.16898e-27
-4.21722e-28
0
6.27492e-28
3.15367e-28
-2.83386e-28
9.09809e-29
-5.60053e-28
0
0
-5.5737e-23
-1.76547e-23
-1.03516e-24
1.28675e-26
5.18719e-27
3.05995e-28
3.21485e-28
-2.2479e-27
-2.18121e-27
0
0
0
9.7419e-28
-1.01966e-28
-1.25041e-27
2.74783e-28
2.31708e-28
0
0
-9.41411e-28
-5.72654e-23
-2.07281e-23
7.30723e-26
-8.92235e-26
3.05146e-27
-4.25202e-27
-5.37989e-28
-1.38759e-28
-6.0913e-28
-5.15646e-28
5.14636e-28
-1.63433e-28
-1.15471e-27
7.51579e-28
2.46787e-27
-5.56199e-29
-1.07373e-27
1.09752e-28
0
-6.45682e-28
-5.34464e-23
-1.6243e-23
-8.24328e-25
2.3859e-26
-1.52195e-26
1.29642e-27
-9.99004e-28
-3.73598e-28
0
0
3.82359e-28
-4.2437e-28
-3.25907e-28
0
-6.40034e-29
-6.93089e-28
-3.50928e-29
-7.81716e-29
4.6561e-28
3.83483e-28
-5.31013e-23
-1.51929e-23
-9.97378e-25
-2.30002e-26
-7.37172e-28
-1.97115e-27
-5.37837e-28
-9.00418e-29
9.90643e-28
6.50193e-28
7.38835e-28
-9.52716e-28
1.52814e-28
5.54862e-28
0
-2.96045e-28
1.68445e-29
-8.11751e-29
1.90923e-28
-5.02877e-28
-5.01755e-23
-1.67942e-23
-4.91273e-25
1.49317e-26
-8.09887e-27
1.34545e-27
0
-5.07241e-28
3.44887e-28
1.93013e-27
1.25612e-27
3.63741e-28
-1.62903e-27
-3.76964e-28
-5.58771e-28
-9.54179e-28
5.09272e-29
-6.73488e-28
-1.13851e-28
-1.99032e-28
-3.55346e-23
-1.56949e-23
2.81435e-25
-7.14694e-26
-3.74679e-27
2.70698e-27
-2.19508e-30
-8.07982e-28
-2.75891e-27
7.28841e-28
0
1.32203e-28
-2.64595e-27
2.57325e-28
2.05655e-27
0
1.68182e-27
2.47253e-28
0
7.50724e-29
-2.3061e-23
-9.17289e-24
-8.18874e-25
3.24197e-26
-1.21462e-26
5.14005e-27
3.69169e-27
7.27201e-28
1.58255e-28
1.59356e-27
4.73878e-28
1.85251e-27
-5.73085e-28
-2.4911e-28
0
-4.42365e-28
-9.54542e-28
1.49222e-28
-1.44154e-28
0
-3.68677e-23
-1.3303e-23
-4.60688e-25
-1.3924e-26
-1.54605e-26
3.89206e-27
-1.95474e-27
-8.07991e-28
-2.70476e-27
-5.209e-28
-1.21667e-28
-3.60931e-28
-1.91792e-28
-6.22681e-28
2.02711e-28
5.78355e-30
4.88703e-28
4.61592e-28
-1.39667e-28
0
-3.46219e-23
-1.12972e-23
-5.40092e-25
9.31724e-26
-2.87655e-26
3.79215e-27
-2.58662e-27
0
0
-5.41702e-28
4.13631e-28
2.72528e-29
3.18321e-28
0
1.60982e-28
-6.05542e-28
0
-4.914e-28
5.8461e-29
-3.45006e-28
1.99935e-24
-4.1636e-24
8.24104e-25
-3.97926e-26
2.74704e-26
-5.68716e-27
-1.02776e-27
-3.51787e-28
-4.27432e-28
-2.24014e-28
-1.03098e-27
0
-4.47671e-29
1.37129e-27
3.50175e-27
2.49148e-28
-6.49791e-28
-1.92529e-28
-3.02009e-28
1.4396e-28
2.53486e-23
2.85552e-24
3.35481e-25
1.03135e-26
1.1415e-26
-4.37887e-27
-2.2491e-27
-7.70169e-28
1.16271e-27
1.78704e-27
-9.62338e-28
-9.77169e-29
-3.72481e-27
-6.45501e-28
-1.52924e-28
-9.62706e-28
-3.33023e-28
0
1.04862e-27
0
1.87255e-23
2.23991e-24
4.87409e-26
3.10701e-26
9.4618e-27
8.84581e-28
-7.75841e-28
0
-3.24612e-28
0
0
2.2138e-28
0
2.02892e-27
2.14374e-27
4.63611e-28
0
0
0
-2.13716e-27
-1.56564e-24
-4.69264e-24
2.65504e-25
3.10051e-26
7.82309e-27
-8.68746e-28
-9.20295e-28
1.05146e-28
-1.33706e-28
0
0
8.02469e-28
-1.84118e-27
2.45035e-28
2.17037e-29
-8.99442e-28
-1.0016e-27
1.20242e-29
7.80185e-28
-7.39827e-28
-3.22133e-23
-1.1713e-23
-2.42627e-25
5.69781e-26
-4.1855e-27
2.87002e-27
-3.3542e-28
2.99295e-28
-4.74755e-28
6.79e-28
-1.96483e-27
-1.79714e-27
-1.34762e-28
2.14546e-27
1.56445e-27
-1.98139e-28
2.7785e-29
1.65916e-28
-2.39967e-28
4.00827e-28
-4.74926e-23
-1.36252e-23
-6.47894e-25
-3.5591e-26
7.82866e-28
-7.92212e-28
-8.19498e-28
2.88852e-28
-7.07332e-28
8.44556e-28
5.47869e-28
0
-7.95689e-28
-1.18963e-28
-4.6936e-28
-7.4349e-28
-1.73373e-28
4.85264e-28
1.60595e-28
-2.6692e-28
-5.70236e-23
-1.56062e-23
-9.9722e-25
-6.7869e-27
1.06019e-27
-1.3504e-28
2.59125e-27
1.7069e-27
1.56575e-27
1.79898e-27
0
-2.76516e-28
0
0
-1.20079e-27
-1.1702e-29
2.46381e-28
-1.18985e-27
0
2.66877e-29
-6.59639e-23
-1.9667e-23
-4.0157e-25
-4.37799e-26
8.12635e-27
1.53277e-27
-7.63259e-28
9.3735e-28
2.25144e-28
-6.04117e-28
-1.2466e-27
1.24545e-28
1.82239e-28
3.46416e-28
-5.94214e-29
-5.87112e-28
-8.21971e-29
-1.78454e-28
-2.52465e-28
2.95308e-28
-6.57502e-23
-1.94364e-23
-8.40903e-25
-4.69418e-26
-1.50311e-27
1.49627e-29
1.39291e-28
-5.49087e-28
0
3.93459e-28
0
2.30548e-28
0
-9.30231e-28
0
2.49481e-30
2.19826e-28
-1.44986e-28
-8.9907e-29
0
-3.13163e-23
-8.60833e-24
-6.78258e-25
1.46593e-26
-6.45019e-27
1.87637e-27
-1.84813e-27
-1.1581e-27
-8.69155e-28
6.91102e-28
3.32744e-28
-2.02433e-30
-5.85705e-28
-4.29971e-28
-4.86669e-28
2.93079e-28
-2.1413e-28
0
9.07349e-29
-3.04427e-28
)
;

boundaryField
{
    movingWall
    {
        type            calculated;
        value           nonuniform List<scalar> 
20
(
8.83478e-24
6.33202e-24
-1.58283e-24
1.92143e-25
-3.6988e-26
7.17322e-27
-5.13478e-27
-3.03827e-27
-1.32665e-27
1.1323e-27
5.32061e-28
2.09507e-28
-1.33553e-27
-1.40893e-27
-1.18165e-27
6.87512e-28
-6.51718e-29
0
1.21185e-28
-4.76855e-28
)
;
    }
    fixedWalls
    {
        type            calculated;
        value           nonuniform List<scalar> 
60
(
-1.72137e-22
-3.16481e-22
-2.91253e-22
-2.83965e-22
-2.88584e-22
-2.61654e-22
-1.87364e-22
-1.5582e-22
-2.0052e-22
-1.79581e-22
1.00153e-23
1.03352e-22
6.94125e-23
-1.70793e-23
-1.64713e-22
-2.52575e-22
-3.00294e-22
-3.35392e-22
-3.51939e-22
-1.74973e-22
0
-1.54241e-27
-1.47583e-27
8.58777e-28
-9.56325e-28
-3.26094e-28
-4.01157e-28
0
-2.80961e-28
-7.16784e-28
-5.91592e-28
0
-2.33435e-27
-1.6969e-27
9.33431e-28
-4.37322e-28
1.34249e-28
4.83833e-28
0
-2.60346e-28
1.06064e-23
8.1325e-24
-1.75939e-24
2.26718e-25
-6.17131e-26
5.87201e-27
-8.17232e-27
-5.52247e-27
-7.46105e-28
-7.05101e-28
-3.91339e-28
-5.22608e-28
-1.26019e-27
-1.54212e-27
-7.75045e-28
-8.77285e-28
8.66933e-28
-1.47119e-27
1.54593e-28
0
)
;
    }
    frontAndBack
    {
        type            empty;
    }
}


// ************************************************************************* //
