/*--------------------------------*- C++ -*----------------------------------*\
| =========                 |                                                 |
| \\      /  F ield         | OpenFOAM: The Open Source CFD Toolbox           |
|  \\    /   O peration     | Version:  2312                                  |
|   \\  /    A nd           | Website:  www.openfoam.com                      |
|    \\/     M anipulation  |                                                 |
\*---------------------------------------------------------------------------*/
FoamFile
{
    version     2.0;
    format      ascii;
    arch        "LSB;label=32;scalar=64";
    class       volVectorField;
    location    "9.75";
    object      UzeroGrad;
}
// * * * * * * * * * * * * * * * * * * * * * * * * * * * * * * * * * * * * * //

dimensions      [0 1 -1 0 0 0 0];

internalField   nonuniform List<vector> 
400
(
(-1 1.57064e-13 0)
(-1 -3.37653e-14 0)
(-1 7.84708e-15 0)
(-1 -1.77336e-15 0)
(-1 3.83171e-16 0)
(-1 -5.54171e-17 0)
(-1 1.18719e-16 0)
(-1 2.02983e-16 0)
(-1 1.81824e-16 0)
(-1 6.50341e-17 0)
(-1 -8.24762e-17 0)
(-1 -4.82021e-17 0)
(-1 -3.3951e-18 0)
(-1 2.27404e-17 0)
(-1 1.12357e-16 0)
(-1 8.09153e-17 0)
(-1 6.39017e-17 0)
(-1 6.78466e-17 0)
(-1 5.08988e-17 0)
(-1 3.30354e-17 0)
(-1 1.29302e-14 0)
(-1 -2.7076e-15 0)
(-1 4.98376e-16 0)
(-1 -1.88615e-16 0)
(-1 1.8026e-16 0)
(-1 1.94132e-16 0)
(-1 2.17891e-16 0)
(-1 1.59615e-16 0)
(-1 9.31067e-17 0)
(-1 3.17569e-17 0)
(-1 -1.22327e-16 0)
(-1 -1.07386e-16 0)
(-1 -6.55999e-17 0)
(-1 7.23204e-17 0)
(-1 2.03529e-17 0)
(-1 -7.32746e-17 0)
(-1 -3.03356e-17 0)
(-1 3.54649e-17 0)
(-1 -4.19887e-17 0)
(-1 -6.82154e-17 0)
(-1 -1.41429e-13 0)
(-1 2.98771e-14 0)
(-1 -7.32606e-15 0)
(-1 1.39556e-15 0)
(-1 -3.6692e-16 0)
(-1 9.1039e-17 0)
(-1 7.64059e-18 0)
(-1 -8.68972e-17 0)
(-1 -9.2679e-17 0)
(-1 -3.07149e-17 0)
(-1 -4.5119e-17 0)
(-1 -9.78997e-17 0)
(-1 -9.6201e-18 0)
(-1 4.15499e-17 0)
(-1 -1.18303e-16 0)
(-1 -1.86071e-16 0)
(-1 -6.80922e-17 0)
(-1 1.19981e-17 0)
(-1 -1.08583e-16 0)
(-1 -1.40624e-16 0)
(-1 9.59296e-14 0)
(-1 -2.115e-14 0)
(-1 4.78469e-15 0)
(-1 -1.12762e-15 0)
(-1 9.08924e-17 0)
(-1 -2.50904e-16 0)
(-1 -1.48255e-16 0)
(-1 -6.66204e-17 0)
(-1 -1.04214e-17 0)
(-1 -2.61518e-17 0)
(-1 -1.1064e-16 0)
(-1 -9.66845e-17 0)
(-1 8.15151e-17 0)
(-1 2.35539e-17 0)
(-1 -5.19529e-17 0)
(-1 -5.27545e-17 0)
(-1 -3.34317e-17 0)
(-1 -3.98075e-17 0)
(-1 -6.2272e-17 0)
(-1 -7.92082e-17 0)
(-1 2.08356e-14 0)
(-1 -4.88418e-15 0)
(-1 1.03706e-15 0)
(-1 -3.64091e-16 0)
(-1 -1.21677e-17 0)
(-1 -8.70207e-17 0)
(-1 -1.13366e-16 0)
(-1 -1.27252e-16 0)
(-1 -1.00327e-16 0)
(-1 -3.48937e-17 0)
(-1 4.42048e-17 0)
(-1 5.86652e-17 0)
(-1 1.10018e-16 0)
(-1 2.28664e-18 0)
(-1 -9.46904e-17 0)
(-1 -5.82186e-17 0)
(-1 1.45308e-17 0)
(-1 6.90774e-18 0)
(-1 -2.26935e-17 0)
(-1 -3.64296e-17 0)
(-1 -1.33426e-13 0)
(-1 2.88119e-14 0)
(-1 -6.93942e-15 0)
(-1 1.35117e-15 0)
(-1 -3.22162e-16 0)
(-1 1.12709e-16 0)
(-1 -3.02908e-17 0)
(-1 -1.38957e-16 0)
(-1 -1.91188e-16 0)
(-1 -7.53362e-17 0)
(-1 6.83831e-17 0)
(-1 1.44873e-16 0)
(-1 1.13115e-16 0)
(-1 6.01747e-18 0)
(-1 -2.59597e-17 0)
(-1 -1.92536e-17 0)
(-1 2.54801e-17 0)
(-1 -9.85917e-18 0)
(-1 8.16606e-18 0)
(-1 4.71975e-17 0)
(-1 1.50539e-13 0)
(-1 -3.25816e-14 0)
(-1 7.68581e-15 0)
(-1 -1.47252e-15 0)
(-1 4.98875e-16 0)
(-1 -4.33408e-17 0)
(-1 6.62345e-17 0)
(-1 5.98868e-17 0)
(-1 -5.00846e-18 0)
(-1 -1.01515e-16 0)
(-1 -1.64502e-16 0)
(-1 -8.94919e-17 0)
(-1 -2.13276e-16 0)
(-1 -1.09394e-16 0)
(-1 8.61885e-17 0)
(-1 1.43516e-16 0)
(-1 2.65233e-17 0)
(-1 -1.17329e-16 0)
(-1 -6.46971e-17 0)
(-1 3.70002e-17 0)
(-1 -3.0433e-14 0)
(-1 6.61773e-15 0)
(-1 -1.78811e-15 0)
(-1 1.61079e-16 0)
(-1 -2.98731e-16 0)
(-1 -2.07101e-17 0)
(-1 1.75355e-16 0)
(-1 3.01622e-16 0)
(-1 3.09499e-16 0)
(-1 1.34249e-16 0)
(-1 1.55403e-17 0)
(-1 -7.43522e-17 0)
(-1 -2.12279e-16 0)
(-1 -1.98511e-16 0)
(-1 -6.97444e-17 0)
(-1 -2.71446e-17 0)
(-1 -7.33105e-17 0)
(-1 -8.0041e-17 0)
(-1 -4.29613e-17 0)
(-1 -1.86701e-17 0)
(-1 -1.1643e-13 0)
(-1 2.47885e-14 0)
(-1 -6.17583e-15 0)
(-1 9.19629e-16 0)
(-1 -4.8507e-16 0)
(-1 4.18088e-18 0)
(-1 -6.43133e-18 0)
(-1 1.51941e-17 0)
(-1 5.33773e-17 0)
(-1 6.27779e-17 0)
(-1 6.0985e-17 0)
(-1 1.78905e-17 0)
(-1 1.65983e-17 0)
(-1 -1.74888e-17 0)
(-1 -3.84987e-17 0)
(-1 -1.96875e-17 0)
(-1 -9.66622e-17 0)
(-1 -9.2625e-17 0)
(-1 -1.15135e-17 0)
(-1 -4.10969e-17 0)
(-1 1.84159e-13 0)
(-1 -4.12369e-14 0)
(-1 9.19238e-15 0)
(-1 -2.40745e-15 0)
(-1 2.64602e-16 0)
(-1 -3.06588e-16 0)
(-1 -2.0175e-16 0)
(-1 -1.16091e-16 0)
(-1 -7.07113e-17 0)
(-1 -7.31446e-17 0)
(-1 2.20323e-18 0)
(-1 1.01884e-17 0)
(-1 -2.82402e-18 0)
(-1 3.12176e-17 0)
(-1 5.04293e-18 0)
(-1 -2.92783e-17 0)
(-1 -1.07735e-16 0)
(-1 -1.10968e-16 0)
(-1 -3.8387e-17 0)
(-1 -5.03034e-17 0)
(-1 -1.50332e-13 0)
(-1 3.27725e-14 0)
(-1 -7.87964e-15 0)
(-1 1.58792e-15 0)
(-1 -5.39203e-16 0)
(-1 -1.3147e-16 0)
(-1 -1.97834e-16 0)
(-1 -1.24002e-16 0)
(-1 -1.32941e-16 0)
(-1 -1.37075e-16 0)
(-1 -9.16178e-17 0)
(-1 4.98338e-17 0)
(-1 1.55067e-16 0)
(-1 7.98862e-17 0)
(-1 -9.78906e-17 0)
(-1 -2.43093e-16 0)
(-1 -1.8981e-16 0)
(-1 -1.13924e-16 0)
(-1 -5.06094e-17 0)
(-1 -2.50249e-18 0)
(-1 6.90815e-14 0)
(-1 -1.48052e-14 0)
(-1 3.62235e-15 0)
(-1 -5.62843e-16 0)
(-1 3.55371e-16 0)
(-1 8.47583e-17 0)
(-1 -2.70971e-17 0)
(-1 -1.89979e-16 0)
(-1 -1.69168e-16 0)
(-1 -4.69915e-17 0)
(-1 -4.34323e-18 0)
(-1 2.4228e-17 0)
(-1 -1.63603e-17 0)
(-1 -2.73741e-17 0)
(-1 -1.70844e-17 0)
(-1 1.01776e-18 0)
(-1 2.82696e-18 0)
(-1 -3.99368e-17 0)
(-1 5.77229e-18 0)
(-1 8.90208e-17 0)
(-1 3.00698e-14 0)
(-1 -6.24608e-15 0)
(-1 1.44657e-15 0)
(-1 -3.5579e-16 0)
(-1 1.12172e-18 0)
(-1 1.02588e-16 0)
(-1 8.24607e-17 0)
(-1 -4.05297e-17 0)
(-1 -1.19433e-17 0)
(-1 2.37941e-17 0)
(-1 6.83617e-17 0)
(-1 -2.71092e-17 0)
(-1 -2.34201e-16 0)
(-1 -1.56813e-16 0)
(-1 1.53119e-17 0)
(-1 1.31994e-16 0)
(-1 3.81683e-17 0)
(-1 -3.77405e-17 0)
(-1 -8.38612e-17 0)
(-1 -4.38756e-17 0)
(-1 -1.21496e-13 0)
(-1 2.65139e-14 0)
(-1 -6.09101e-15 0)
(-1 1.48769e-15 0)
(-1 -2.4408e-16 0)
(-1 4.45872e-17 0)
(-1 -1.37243e-16 0)
(-1 -1.29881e-16 0)
(-1 -7.7126e-17 0)
(-1 -1.33369e-17 0)
(-1 9.6482e-17 0)
(-1 6.50654e-17 0)
(-1 -2.20431e-18 0)
(-1 -9.34483e-17 0)
(-1 -9.26063e-17 0)
(-1 -1.01456e-16 0)
(-1 -1.11906e-16 0)
(-1 -7.78581e-17 0)
(-1 -1.41362e-16 0)
(-1 -1.73804e-16 0)
(-1 1.60989e-13 0)
(-1 -3.50719e-14 0)
(-1 8.24096e-15 0)
(-1 -1.75377e-15 0)
(-1 4.1923e-16 0)
(-1 -2.09594e-16 0)
(-1 -1.47028e-16 0)
(-1 -5.99257e-17 0)
(-1 -3.66076e-17 0)
(-1 -7.51837e-18 0)
(-1 -8.42667e-19 0)
(-1 1.10576e-18 0)
(-1 9.78997e-17 0)
(-1 -2.67476e-17 0)
(-1 -1.36723e-16 0)
(-1 -2.19141e-16 0)
(-1 -1.22998e-16 0)
(-1 -6.27606e-17 0)
(-1 -6.17853e-17 0)
(-1 -8.60938e-17 0)
(-1 -9.10878e-14 0)
(-1 1.95164e-14 0)
(-1 -4.45693e-15 0)
(-1 9.98894e-16 0)
(-1 -2.748e-16 0)
(-1 7.75403e-18 0)
(-1 7.42986e-17 0)
(-1 1.40252e-16 0)
(-1 4.56204e-17 0)
(-1 -1.20708e-16 0)
(-1 -2.65966e-16 0)
(-1 -2.21772e-16 0)
(-1 -4.09901e-17 0)
(-1 5.35089e-17 0)
(-1 1.08059e-17 0)
(-1 -1.19654e-16 0)
(-1 -1.22157e-16 0)
(-1 -1.12911e-16 0)
(-1 -7.61635e-17 0)
(-1 -9.15489e-18 0)
(-1 -5.25294e-14 0)
(-1 1.15999e-14 0)
(-1 -2.37695e-15 0)
(-1 8.72382e-16 0)
(-1 1.30403e-16 0)
(-1 2.85642e-16 0)
(-1 1.55314e-16 0)
(-1 4.66418e-17 0)
(-1 -5.45983e-17 0)
(-1 -2.10802e-16 0)
(-1 -2.20525e-16 0)
(-1 -1.78824e-16 0)
(-1 -1.86519e-16 0)
(-1 -1.74229e-16 0)
(-1 -2.08133e-16 0)
(-1 -2.10767e-16 0)
(-1 -9.10158e-17 0)
(-1 2.67548e-17 0)
(-1 -2.5363e-18 0)
(-1 1.23823e-17 0)
(-1 1.45191e-13 0)
(-1 -3.11046e-14 0)
(-1 7.34139e-15 0)
(-1 -1.50503e-15 0)
(-1 5.0754e-16 0)
(-1 -5.98426e-18 0)
(-1 2.38599e-17 0)
(-1 -6.8403e-17 0)
(-1 -1.49051e-16 0)
(-1 -1.34775e-16 0)
(-1 -1.16311e-16 0)
(-1 -9.98529e-17 0)
(-1 -1.6226e-16 0)
(-1 -2.35249e-16 0)
(-1 -2.2897e-16 0)
(-1 -1.23972e-16 0)
(-1 -3.12585e-17 0)
(-1 6.23375e-17 0)
(-1 1.48068e-17 0)
(-1 1.08765e-17 0)
(-1 -4.47575e-14 0)
(-1 9.02059e-15 0)
(-1 -2.32518e-15 0)
(-1 3.75536e-16 0)
(-1 -1.20759e-16 0)
(-1 -1.16224e-16 0)
(-1 -1.26279e-16 0)
(-1 -1.67614e-16 0)
(-1 -1.7065e-16 0)
(-1 -2.06625e-17 0)
(-1 -2.54895e-17 0)
(-1 -2.00704e-17 0)
(-1 1.70391e-17 0)
(-1 -4.64243e-17 0)
(-1 -7.49327e-17 0)
(-1 5.83927e-18 0)
(-1 -7.58531e-17 0)
(-1 -7.52622e-17 0)
(-1 -4.91079e-17 0)
(-1 -4.20924e-17 0)
(-1 -1.12652e-13 0)
(-1 2.40549e-14 0)
(-1 -5.74133e-15 0)
(-1 1.17127e-15 0)
(-1 -3.32991e-16 0)
(-1 -1.85843e-17 0)
(-1 -1.02239e-16 0)
(-1 -1.69692e-16 0)
(-1 -1.47217e-16 0)
(-1 -6.46671e-17 0)
(-1 -1.97313e-17 0)
(-1 1.93236e-17 0)
(-1 5.40148e-17 0)
(-1 -1.7666e-17 0)
(-1 -1.04617e-16 0)
(-1 -2.83388e-17 0)
(-1 -1.89892e-17 0)
(-1 -1.24963e-17 0)
(-1 -2.97772e-17 0)
(-1 -5.79061e-17 0)
)
;

boundaryField
{
    movingWall
    {
        type            zeroGradient;
    }
    fixedWalls
    {
        type            zeroGradient;
    }
    frontAndBack
    {
        type            empty;
    }
}


// ************************************************************************* //
