/*--------------------------------*- C++ -*----------------------------------*\
| =========                 |                                                 |
| \\      /  F ield         | OpenFOAM: The Open Source CFD Toolbox           |
|  \\    /   O peration     | Version:  2312                                  |
|   \\  /    A nd           | Website:  www.openfoam.com                      |
|    \\/     M anipulation  |                                                 |
\*---------------------------------------------------------------------------*/
FoamFile
{
    version     2.0;
    format      ascii;
    arch        "LSB;label=32;scalar=64";
    class       volVectorField;
    location    "9.75";
    object      vorticityField;
}
// * * * * * * * * * * * * * * * * * * * * * * * * * * * * * * * * * * * * * //

dimensions      [0 0 -1 0 0 0 0];

internalField   nonuniform List<vector> 
400
(
(0 -0 1.10559e-11)
(0 -0 -1.45422e-11)
(0 -0 3.1992e-12)
(0 -0 -7.73496e-13)
(0 -0 9.04793e-14)
(0 -0 -2.64452e-14)
(0 -0 2.584e-14)
(0 -0 6.31053e-15)
(0 -0 -1.37949e-14)
(0 -0 2.77801e-14)
(0 -0 4.28865e-14)
(0 -0 7.90811e-15)
(0 -0 7.09425e-15)
(0 -0 6.57853e-14)
(0 -0 6.00276e-14)
(0 -0 4.93646e-14)
(0 -0 -1.30687e-15)
(0 -0 -1.30029e-15)
(0 -0 -3.48112e-15)
(0 -0 -8.39342e-15)
(0 -0 3.17527e-13)
(0 -0 -9.1792e-13)
(0 -0 3.87424e-13)
(0 -0 1.03714e-13)
(0 -0 1.738e-13)
(0 -0 8.50782e-14)
(0 -0 7.78635e-14)
(0 -0 4.17317e-14)
(0 -0 4.14243e-14)
(0 -0 -2.15434e-14)
(0 -0 -1.39143e-14)
(0 -0 5.67273e-15)
(0 -0 7.21807e-14)
(0 -0 8.59528e-15)
(0 -0 -1.45595e-14)
(0 -0 -5.9279e-14)
(0 -0 6.50841e-14)
(0 -0 -1.1653e-15)
(0 -0 -1.0368e-14)
(0 -0 1.10204e-14)
(0 -0 -6.38474e-12)
(0 -0 1.19467e-11)
(0 -0 -2.90237e-12)
(0 -0 5.60388e-13)
(0 -0 -1.57557e-13)
(0 -0 -4.38591e-14)
(0 -0 -9.91088e-14)
(0 -0 -1.18452e-13)
(0 -0 -1.02802e-13)
(0 -0 -1.03664e-13)
(0 -0 -8.80336e-14)
(0 -0 -5.06602e-14)
(0 -0 -4.02651e-14)
(0 -0 -9.21835e-14)
(0 -0 -1.31182e-13)
(0 -0 5.02113e-15)
(0 -0 -3.44032e-14)
(0 -0 -3.11542e-14)
(0 -0 -1.52622e-14)
(0 -0 -2.18429e-15)
(0 -0 3.68325e-12)
(0 -0 -8.13871e-12)
(0 -0 1.83961e-12)
(0 -0 -5.50695e-13)
(0 -0 -7.49592e-14)
(0 -0 -7.81248e-14)
(0 -0 -3.57817e-14)
(0 -0 -1.33217e-14)
(0 -0 4.04687e-15)
(0 -0 -1.00218e-14)
(0 -0 -6.12634e-14)
(0 -0 1.92155e-14)
(0 -0 -1.50812e-14)
(0 -0 -1.33468e-14)
(0 -0 -7.63083e-15)
(0 -0 1.85212e-15)
(0 -0 -2.58104e-14)
(0 -0 2.4221e-14)
(0 -0 -3.94007e-15)
(0 -0 4.12531e-14)
(0 -0 1.43252e-12)
(0 -0 -1.89854e-12)
(0 -0 4.24904e-13)
(0 -0 -7.78182e-14)
(0 -0 8.19171e-14)
(0 -0 -1.01198e-14)
(0 -0 5.0187e-14)
(0 -0 8.2619e-14)
(0 -0 6.34459e-14)
(0 -0 6.86633e-14)
(0 -0 3.64609e-14)
(0 -0 6.07914e-14)
(0 -0 -3.27429e-14)
(0 -0 -4.75758e-14)
(0 -0 -6.05053e-15)
(0 -0 -1.61829e-14)
(0 -0 3.36177e-14)
(0 -0 -3.72244e-15)
(0 -0 -4.33374e-15)
(0 -0 -2.11927e-14)
(0 -0 -7.47983e-12)
(0 -0 1.17542e-11)
(0 -0 -2.69187e-12)
(0 -0 6.88831e-13)
(0 -0 -6.96356e-14)
(0 -0 8.33972e-14)
(0 -0 -2.51666e-14)
(0 -0 -1.60897e-14)
(0 -0 6.05721e-14)
(0 -0 1.07272e-13)
(0 -0 1.30441e-13)
(0 -0 8.57884e-14)
(0 -0 4.03245e-14)
(0 -0 1.31976e-14)
(0 -0 2.4578e-14)
(0 -0 3.2249e-14)
(0 -0 5.51495e-14)
(0 -0 -1.7314e-15)
(0 -0 5.70567e-15)
(0 -0 -5.53635e-15)
(0 -0 8.57021e-12)
(0 -0 -1.3174e-11)
(0 -0 3.21933e-12)
(0 -0 -6.10273e-13)
(0 -0 1.15813e-13)
(0 -0 -9.74741e-14)
(0 -0 -4.38873e-14)
(0 -0 -6.13344e-14)
(0 -0 -9.74553e-14)
(0 -0 -9.72645e-14)
(0 -0 1.20226e-15)
(0 -0 -3.19825e-14)
(0 -0 -1.99023e-15)
(0 -0 5.70515e-14)
(0 -0 1.06606e-13)
(0 -0 -5.96652e-15)
(0 -0 -8.02946e-14)
(0 -0 -3.62271e-14)
(0 -0 1.54329e-14)
(0 -0 2.98747e-14)
(0 -0 -2.9444e-13)
(0 -0 2.43081e-12)
(0 -0 -4.83035e-13)
(0 -0 1.48938e-13)
(0 -0 6.31363e-14)
(0 -0 1.55829e-13)
(0 -0 1.40653e-13)
(0 -0 6.76246e-14)
(0 -0 -1.67373e-14)
(0 -0 -8.3606e-14)
(0 -0 -1.02175e-13)
(0 -0 -1.04097e-13)
(0 -0 -6.6626e-14)
(0 -0 1.42534e-14)
(0 -0 1.71366e-14)
(0 -0 -3.5661e-16)
(0 -0 4.89205e-14)
(0 -0 3.014e-14)
(0 -0 6.1371e-15)
(0 -0 6.16314e-15)
(0 -0 -8.3781e-12)
(0 -0 1.06188e-11)
(0 -0 -2.46821e-12)
(0 -0 5.69076e-13)
(0 -0 4.39805e-14)
(0 -0 1.29179e-13)
(0 -0 8.24165e-14)
(0 -0 6.0191e-14)
(0 -0 8.60735e-14)
(0 -0 5.49709e-14)
(0 -0 2.26163e-14)
(0 -0 7.68765e-14)
(0 -0 5.06722e-14)
(0 -0 -5.5097e-15)
(0 -0 -2.1987e-16)
(0 -0 -5.81635e-15)
(0 -0 -6.15039e-14)
(0 -0 6.2725e-14)
(0 -0 -2.19522e-14)
(0 -0 5.26104e-15)
(0 -0 1.1934e-11)
(0 -0 -1.68732e-11)
(0 -0 3.74742e-12)
(0 -0 -1.0012e-12)
(0 -0 7.45611e-14)
(0 -0 -1.2795e-13)
(0 -0 -6.22655e-14)
(0 -0 1.31039e-14)
(0 -0 4.29466e-15)
(0 -0 7.29145e-15)
(0 -0 8.33331e-15)
(0 -0 -5.47128e-14)
(0 -0 -2.50021e-14)
(0 -0 7.86695e-16)
(0 -0 -6.04959e-15)
(0 -0 -1.12778e-14)
(0 -0 -8.16892e-15)
(0 -0 -4.72753e-14)
(0 -0 3.31715e-14)
(0 -0 -1.8236e-14)
(0 -0 -1.2271e-11)
(0 -0 1.40284e-11)
(0 -0 -3.41662e-12)
(0 -0 6.79833e-13)
(0 -0 -3.34569e-13)
(0 -0 -1.01388e-13)
(0 -0 -1.07673e-13)
(0 -0 -4.77208e-14)
(0 -0 -8.26225e-14)
(0 -0 -5.00778e-14)
(0 -0 -3.55192e-14)
(0 -0 2.46685e-14)
(0 -0 -2.40998e-14)
(0 -0 -7.95059e-14)
(0 -0 -1.40718e-13)
(0 -0 -3.6297e-14)
(0 -0 -1.41882e-14)
(0 -0 1.39201e-14)
(0 -0 -1.59629e-14)
(0 -0 3.24162e-14)
(0 -0 6.67446e-12)
(0 -0 -6.54591e-12)
(0 -0 1.69528e-12)
(0 -0 -2.45382e-13)
(0 -0 1.7318e-13)
(0 -0 4.30684e-14)
(0 -0 2.67364e-14)
(0 -0 4.0003e-14)
(0 -0 9.56139e-14)
(0 -0 1.24903e-13)
(0 -0 1.15542e-13)
(0 -0 8.01135e-14)
(0 -0 1.0326e-13)
(0 -0 5.41377e-14)
(0 -0 5.70493e-14)
(0 -0 2.90962e-14)
(0 -0 7.72197e-14)
(0 -0 2.94533e-16)
(0 -0 9.42109e-14)
(0 -0 -9.47931e-15)
(0 -0 3.08711e-12)
(0 -0 -2.86233e-12)
(0 -0 8.05869e-13)
(0 -0 -9.03345e-14)
(0 -0 1.81363e-13)
(0 -0 1.43659e-13)
(0 -0 3.98984e-14)
(0 -0 -9.4404e-15)
(0 -0 3.35374e-14)
(0 -0 8.03049e-15)
(0 -0 -5.09034e-15)
(0 -0 -3.02562e-14)
(0 -0 -1.29704e-14)
(0 -0 1.06266e-13)
(0 -0 1.10196e-13)
(0 -0 8.36008e-14)
(0 -0 -1.69735e-14)
(0 -0 -1.2203e-14)
(0 -0 -6.13512e-16)
(0 -0 1.27737e-14)
(0 -0 -8.84769e-12)
(0 -0 1.10797e-11)
(0 -0 -2.63815e-12)
(0 -0 6.11798e-13)
(0 -0 -1.98521e-13)
(0 -0 -7.06315e-14)
(0 -0 -7.16569e-14)
(0 -0 6.01174e-15)
(0 -0 1.16544e-14)
(0 -0 1.73608e-14)
(0 -0 7.84022e-15)
(0 -0 -9.11838e-14)
(0 -0 -7.00615e-14)
(0 -0 -3.61453e-14)
(0 -0 -2.79058e-14)
(0 -0 -2.9035e-14)
(0 -0 -5.18504e-14)
(0 -0 -3.00507e-14)
(0 -0 -9.09097e-14)
(0 -0 4.41156e-15)
(0 -0 1.03149e-11)
(0 -0 -1.45701e-11)
(0 -0 3.27761e-12)
(0 -0 -8.63489e-13)
(0 -0 1.27313e-13)
(0 -0 -1.10836e-13)
(0 -0 6.91769e-14)
(0 -0 3.81471e-14)
(0 -0 -2.18643e-14)
(0 -0 3.06815e-14)
(0 -0 8.62414e-16)
(0 -0 6.40843e-14)
(0 -0 -2.98904e-14)
(0 -0 -1.31882e-13)
(0 -0 -1.00554e-13)
(0 -0 -1.07048e-13)
(0 -0 1.5638e-14)
(0 -0 3.32263e-14)
(0 -0 2.47717e-14)
(0 -0 4.1893e-14)
(0 -0 -6.26267e-12)
(0 -0 8.41914e-12)
(0 -0 -1.90596e-12)
(0 -0 4.18213e-13)
(0 -0 -9.9114e-14)
(0 -0 8.91199e-14)
(0 -0 1.32498e-14)
(0 -0 -2.86782e-15)
(0 -0 1.00912e-15)
(0 -0 -5.82637e-14)
(0 -0 -6.43165e-14)
(0 -0 2.24976e-14)
(0 -0 5.46331e-14)
(0 -0 5.93897e-14)
(0 -0 9.78874e-15)
(0 -0 4.09138e-14)
(0 -0 6.74314e-16)
(0 -0 4.59934e-15)
(0 -0 1.03756e-14)
(0 -0 8.53184e-15)
(0 -0 -4.8797e-13)
(0 -0 4.2563e-12)
(0 -0 -8.2881e-13)
(0 -0 2.50735e-13)
(0 -0 -1.12884e-13)
(0 -0 -5.17191e-14)
(0 -0 -1.3232e-13)
(0 -0 -1.02306e-13)
(0 -0 -1.0706e-13)
(0 -0 -1.25013e-13)
(0 -0 3.19784e-15)
(0 -0 -7.79146e-14)
(0 -0 4.59485e-16)
(0 -0 -2.16137e-15)
(0 -0 -3.07588e-14)
(0 -0 1.17117e-14)
(0 -0 2.37522e-14)
(0 -0 -1.82571e-14)
(0 -0 -1.43725e-15)
(0 -0 -2.80897e-14)
(0 -0 5.68943e-12)
(0 -0 -1.23755e-11)
(0 -0 2.82443e-12)
(0 -0 -6.29175e-13)
(0 -0 2.04115e-13)
(0 -0 -1.02578e-13)
(0 -0 -6.24187e-15)
(0 -0 -7.15012e-14)
(0 -0 -8.79524e-14)
(0 -0 -2.38311e-14)
(0 -0 -5.07179e-14)
(0 -0 -3.16999e-14)
(0 -0 -6.77497e-14)
(0 -0 -6.67104e-15)
(0 -0 3.82328e-14)
(0 -0 1.97711e-14)
(0 -0 1.86309e-14)
(0 -0 8.59217e-14)
(0 -0 -5.1461e-15)
(0 -0 -2.56833e-15)
(0 -0 -3.16712e-12)
(0 -0 3.89087e-12)
(0 -0 -1.08135e-12)
(0 -0 1.39127e-13)
(0 -0 -1.57596e-13)
(0 -0 -2.76571e-14)
(0 -0 -3.2244e-14)
(0 -0 -4.43714e-15)
(0 -0 1.46951e-14)
(0 -0 4.16211e-14)
(0 -0 5.9203e-17)
(0 -0 5.8463e-14)
(0 -0 -2.63539e-15)
(0 -0 -3.63022e-14)
(0 -0 5.22636e-15)
(0 -0 -2.71971e-14)
(0 -0 -3.52152e-14)
(0 -0 -5.15356e-14)
(0 -0 -2.37881e-14)
(0 -0 9.12003e-15)
(0 -0 -6.96232e-12)
(0 -0 1.03387e-11)
(0 -0 -2.12573e-12)
(0 -0 5.67939e-13)
(0 -0 -6.47749e-14)
(0 -0 1.0439e-13)
(0 -0 6.62044e-14)
(0 -0 4.97123e-14)
(0 -0 9.18176e-14)
(0 -0 6.69587e-14)
(0 -0 6.26092e-14)
(0 -0 7.37461e-15)
(0 -0 5.05111e-14)
(0 -0 1.12419e-14)
(0 -0 -1.06728e-15)
(0 -0 3.56678e-14)
(0 -0 2.86893e-14)
(0 -0 -1.0788e-15)
(0 -0 2.25641e-14)
(0 -0 3.58734e-14)
)
;

boundaryField
{
    movingWall
    {
        type            calculated;
        value           nonuniform List<vector> 
20
(
(0 -0 -1.4544e-11)
(0 -0 1.26006e-11)
(0 -0 -1.9775e-12)
(0 -0 8.96105e-13)
(0 -0 1.91877e-13)
(0 -0 3.33938e-13)
(0 -0 2.51343e-13)
(0 -0 2.61956e-13)
(0 -0 1.88138e-13)
(0 -0 1.01566e-13)
(0 -0 9.72169e-14)
(0 -0 7.37461e-15)
(0 -0 4.071e-14)
(0 -0 7.29547e-14)
(0 -0 4.33416e-14)
(0 -0 5.29717e-14)
(0 -0 9.04021e-14)
(0 -0 -1.0788e-15)
(0 -0 3.98679e-14)
(0 -0 9.75862e-14)
)
;
    }
    fixedWalls
    {
        type            calculated;
        value           nonuniform List<vector> 
60
(
(0 -0 6.15516e-11)
(0 -0 4.46734e-12)
(0 -0 -5.18013e-11)
(0 -0 3.45771e-11)
(0 -0 8.17163e-12)
(0 -0 -5.03888e-11)
(0 -0 5.699e-11)
(0 -0 -1.00861e-11)
(0 -0 -4.5786e-11)
(0 -0 7.13054e-11)
(0 -0 -6.06479e-11)
(0 -0 2.88794e-11)
(0 -0 1.27327e-11)
(0 -0 -4.79479e-11)
(0 -0 6.21188e-11)
(0 -0 -3.55407e-11)
(0 -0 -1.74068e-11)
(0 -0 5.23571e-11)
(0 -0 -1.74964e-11)
(0 -0 -4.31633e-11)
(0 -0 -1.32142e-14)
(0 -0 2.72861e-14)
(0 -0 2.91446e-14)
(0 -0 5.87883e-14)
(0 -0 -1.25332e-14)
(0 -0 -1.8879e-14)
(0 -0 1.2305e-14)
(0 -0 7.46803e-15)
(0 -0 1.64387e-14)
(0 -0 -6.98369e-15)
(0 -0 2.8106e-14)
(0 -0 -3.56083e-14)
(0 -0 1.75502e-14)
(0 -0 4.24165e-14)
(0 -0 6.15426e-14)
(0 -0 3.66195e-15)
(0 -0 -3.2058e-14)
(0 -0 -4.35058e-15)
(0 -0 1.6837e-14)
(0 -0 5.02675e-14)
(0 -0 1.77477e-11)
(0 -0 -1.67425e-11)
(0 -0 3.02156e-12)
(0 -0 -1.10166e-12)
(0 -0 -1.39068e-13)
(0 -0 -2.4849e-13)
(0 -0 -2.40613e-13)
(0 -0 -1.71325e-13)
(0 -0 -1.02613e-13)
(0 -0 -2.643e-14)
(0 -0 -5.57325e-14)
(0 -0 7.90811e-15)
(0 -0 -1.70541e-13)
(0 -0 -1.21652e-13)
(0 -0 -1.27409e-13)
(0 -0 -4.84551e-15)
(0 -0 -1.34534e-13)
(0 -0 -1.30029e-15)
(0 -0 -4.789e-14)
(0 -0 -8.39342e-15)
)
;
    }
    frontAndBack
    {
        type            empty;
    }
}


// ************************************************************************* //
