/*--------------------------------*- C++ -*----------------------------------*\
| =========                 |                                                 |
| \\      /  F ield         | OpenFOAM: The Open Source CFD Toolbox           |
|  \\    /   O peration     | Version:  2312                                  |
|   \\  /    A nd           | Website:  www.openfoam.com                      |
|    \\/     M anipulation  |                                                 |
\*---------------------------------------------------------------------------*/
FoamFile
{
    version     2.0;
    format      ascii;
    arch        "LSB;label=32;scalar=64";
    class       volScalarField;
    location    "9.75";
    object      zeroGradient(p);
}
// * * * * * * * * * * * * * * * * * * * * * * * * * * * * * * * * * * * * * //

dimensions      [0 2 -2 0 0 0 0];

internalField   nonuniform List<scalar> 
400
(
3.99756e-16
3.29151e-15
1.53934e-15
1.74785e-15
1.76238e-15
1.69801e-15
1.72875e-15
1.69293e-15
1.75185e-15
1.91794e-15
1.79168e-15
1.77673e-15
1.90107e-15
1.91293e-15
1.81208e-15
1.63892e-15
1.80541e-15
2.0431e-15
2.17004e-15
2.09597e-15
2.4918e-15
0
1.75251e-15
1.57749e-15
1.92536e-15
1.80198e-15
1.83185e-15
1.57366e-15
1.62026e-15
1.78693e-15
1.75528e-15
1.73537e-15
1.83387e-15
2.06422e-15
1.69477e-15
1.61145e-15
1.76363e-15
1.99975e-15
2.14912e-15
2.0219e-15
1.47746e-15
2.46339e-15
1.72554e-15
2.1286e-15
1.8054e-15
1.86534e-15
1.79549e-15
1.69011e-15
1.71239e-15
1.69275e-15
1.75858e-15
1.70939e-15
1.86437e-15
1.66252e-15
1.64012e-15
1.7371e-15
1.89593e-15
2.02924e-15
2.29242e-15
2.36555e-15
9.54737e-16
3.06584e-15
1.85325e-15
2.07417e-15
1.9602e-15
2.07183e-15
2.03579e-15
1.91879e-15
1.82011e-15
1.72188e-15
1.71606e-15
1.91807e-15
1.76655e-15
1.58891e-15
1.5997e-15
1.89464e-15
2.08378e-15
1.98566e-15
2.22515e-15
2.50987e-15
2.13235e-15
0
1.93716e-15
1.83256e-15
2.07324e-15
2.30923e-15
2.26269e-15
2.12441e-15
1.97638e-15
1.71016e-15
1.7811e-15
1.99643e-15
1.8856e-15
1.65272e-15
1.78978e-15
1.9794e-15
2.03237e-15
2.04342e-15
2.28715e-15
2.66656e-15
1.30569e-15
2.96995e-15
2.07477e-15
2.27619e-15
2.14077e-15
2.37369e-15
2.24612e-15
2.18714e-15
2.14485e-15
1.939e-15
1.96018e-15
2.27111e-15
1.91825e-15
1.80317e-15
1.99344e-15
2.19989e-15
2.05027e-15
1.9522e-15
2.24786e-15
2.65786e-15
1.83044e-15
4.03156e-15
1.97051e-15
2.24913e-15
2.13183e-15
2.41785e-15
2.3889e-15
2.3107e-15
2.36417e-15
2.25362e-15
2.29048e-15
2.23406e-15
1.9632e-15
1.99048e-15
2.10685e-15
2.08266e-15
2.07173e-15
2.14255e-15
2.35545e-15
2.51439e-15
3.30314e-15
0
2.16596e-15
1.80505e-15
2.24814e-15
2.52327e-15
2.55058e-15
2.45842e-15
2.3397e-15
2.347e-15
2.42896e-15
2.2588e-15
2.28115e-15
2.20589e-15
2.12645e-15
2.00273e-15
1.99578e-15
2.13408e-15
2.52782e-15
2.52994e-15
2.04037e-15
4.55878e-15
2.21097e-15
2.3694e-15
2.3159e-15
2.4741e-15
2.38944e-15
2.54923e-15
2.4006e-15
2.43591e-15
2.4897e-15
2.32155e-15
2.29298e-15
2.37331e-15
2.16215e-15
2.12664e-15
2.1641e-15
2.29484e-15
2.45407e-15
2.54761e-15
2.03492e-15
1.9383e-15
2.23349e-15
2.40875e-15
2.27005e-15
2.43458e-15
2.37059e-15
2.56077e-15
2.51983e-15
2.47423e-15
2.5234e-15
2.32032e-15
2.18106e-15
2.25883e-15
2.30209e-15
2.17275e-15
2.08865e-15
2.36954e-15
2.44321e-15
2.65885e-15
1.96513e-15
5.52078e-16
2.30809e-15
2.28022e-15
2.36659e-15
2.41767e-15
2.56039e-15
2.45956e-15
2.52169e-15
2.55702e-15
2.5175e-15
2.27703e-15
2.24805e-15
2.23754e-15
2.31944e-15
2.33582e-15
2.25317e-15
2.42271e-15
2.54891e-15
2.71337e-15
1.45077e-15
6.13849e-15
2.23241e-15
2.47172e-15
2.17862e-15
2.52167e-15
2.49843e-15
2.47722e-15
2.5231e-15
2.55002e-15
2.56047e-15
2.28661e-15
2.1782e-15
2.25968e-15
2.36729e-15
2.51133e-15
2.38799e-15
2.43324e-15
2.57148e-15
2.65993e-15
2.61778e-15
0
2.42287e-15
1.90663e-15
2.43379e-15
2.37583e-15
2.47569e-15
2.54588e-15
2.69221e-15
2.54264e-15
2.43381e-15
2.23322e-15
2.41677e-15
2.45259e-15
2.43469e-15
2.60941e-15
2.44118e-15
2.57141e-15
2.60113e-15
2.42249e-15
1.97142e-15
4.71357e-15
2.27114e-15
2.33275e-15
2.3236e-15
2.37152e-15
2.36544e-15
2.71209e-15
2.57656e-15
2.61161e-15
2.54879e-15
2.50223e-15
2.66915e-15
2.60134e-15
2.57702e-15
2.53857e-15
2.40354e-15
2.48282e-15
2.78389e-15
2.82378e-15
2.27729e-15
1.6953e-15
2.43542e-15
2.13862e-15
2.28178e-15
2.3578e-15
2.63636e-15
2.57669e-15
2.75311e-15
2.88478e-15
2.68092e-15
2.5166e-15
2.52082e-15
2.65668e-15
2.66147e-15
2.52035e-15
2.44248e-15
2.52441e-15
2.81554e-15
2.9925e-15
2.60969e-15
2.32799e-16
2.38327e-15
2.16884e-15
2.48982e-15
2.55041e-15
2.61633e-15
2.62189e-15
2.78568e-15
2.95699e-15
2.9249e-15
2.77892e-15
2.59337e-15
2.66485e-15
2.77303e-15
2.69573e-15
2.36152e-15
2.49729e-15
2.92585e-15
3.06577e-15
1.57839e-15
4.93123e-15
2.4325e-15
2.38511e-15
2.40564e-15
2.54144e-15
2.67569e-15
2.79444e-15
2.79049e-15
2.96092e-15
2.97558e-15
2.83393e-15
2.72019e-15
2.77405e-15
2.66095e-15
2.72448e-15
2.56338e-15
2.67984e-15
2.93588e-15
3.00654e-15
2.68387e-15
1.73016e-15
2.35137e-15
2.29328e-15
2.48389e-15
2.63682e-15
2.74883e-15
2.7944e-15
2.7231e-15
3.03901e-15
3.09251e-15
2.9281e-15
2.75775e-15
2.69727e-15
2.71693e-15
2.99994e-15
2.69898e-15
2.49934e-15
2.84845e-15
3.01801e-15
3.27348e-15
5.21941e-17
2.55034e-15
2.16433e-15
2.3794e-15
2.66536e-15
2.85982e-15
2.70669e-15
2.82155e-15
2.91549e-15
3.03748e-15
3.05022e-15
2.83526e-15
2.79095e-15
2.82603e-15
3.06455e-15
2.81912e-15
2.56756e-15
2.88039e-15
2.92665e-15
1.21474e-15
4.1315e-15
2.48546e-15
2.40942e-15
2.30609e-15
2.67438e-15
2.7792e-15
2.80338e-15
2.9243e-15
2.87554e-15
3.05929e-15
3.26487e-15
2.86775e-15
2.77561e-15
2.94061e-15
2.94776e-15
2.83808e-15
2.47489e-15
2.83643e-15
3.15414e-15
)
;

boundaryField
{
    movingWall
    {
        type            zeroGradient;
    }
    fixedWalls
    {
        type            zeroGradient;
    }
    frontAndBack
    {
        type            empty;
    }
}


// ************************************************************************* //
