/*--------------------------------*- C++ -*----------------------------------*\
| =========                 |                                                 |
| \\      /  F ield         | OpenFOAM: The Open Source CFD Toolbox           |
|  \\    /   O peration     | Version:  2312                                  |
|   \\  /    A nd           | Website:  www.openfoam.com                      |
|    \\/     M anipulation  |                                                 |
\*---------------------------------------------------------------------------*/
FoamFile
{
    version     2.0;
    format      ascii;
    arch        "LSB;label=32;scalar=64";
    class       volVectorField;
    location    "9.875";
    object      diffU;
}
// * * * * * * * * * * * * * * * * * * * * * * * * * * * * * * * * * * * * * //

dimensions      [0 1 -1 0 0 0 0];

internalField   nonuniform List<vector> 
400
(
(0 0 0)
(2.36478e-14 -2.01681e-13 0)
(1.80966e-14 -1.57682e-13 0)
(1.84297e-14 -1.67932e-13 0)
(1.85407e-14 -1.65733e-13 0)
(1.83187e-14 -1.66162e-13 0)
(1.84297e-14 -1.65998e-13 0)
(1.83187e-14 -1.65988e-13 0)
(1.79856e-14 -1.6595e-13 0)
(1.79856e-14 -1.6609e-13 0)
(1.79856e-14 -1.66196e-13 0)
(1.77636e-14 -1.66246e-13 0)
(1.80966e-14 -1.66146e-13 0)
(1.75415e-14 -1.66141e-13 0)
(1.77636e-14 -1.66112e-13 0)
(1.75415e-14 -1.66179e-13 0)
(1.79856e-14 -1.66173e-13 0)
(1.77636e-14 -1.66119e-13 0)
(1.77636e-14 -1.66156e-13 0)
(1.80966e-14 -1.66171e-13 0)
(4.64073e-14 -1.52115e-13 0)
(9.32587e-15 -1.69246e-13 0)
(1.77636e-14 -1.65403e-13 0)
(1.70974e-14 -1.66315e-13 0)
(1.73195e-14 -1.66177e-13 0)
(1.73195e-14 -1.66183e-13 0)
(1.75415e-14 -1.66118e-13 0)
(1.75415e-14 -1.66029e-13 0)
(1.77636e-14 -1.6598e-13 0)
(1.79856e-14 -1.66005e-13 0)
(1.77636e-14 -1.66109e-13 0)
(1.77636e-14 -1.66119e-13 0)
(1.75415e-14 -1.66006e-13 0)
(1.77636e-14 -1.6617e-13 0)
(1.77636e-14 -1.66191e-13 0)
(1.79856e-14 -1.66249e-13 0)
(1.80966e-14 -1.66159e-13 0)
(1.79856e-14 -1.66094e-13 0)
(1.79856e-14 -1.66266e-13 0)
(1.79856e-14 -1.66224e-13 0)
(1.26565e-14 -3.20911e-13 0)
(1.9873e-14 -1.32964e-13 0)
(1.77636e-14 -1.73928e-13 0)
(1.80966e-14 -1.64311e-13 0)
(1.79856e-14 -1.66326e-13 0)
(1.77636e-14 -1.65993e-13 0)
(1.77636e-14 -1.66108e-13 0)
(1.75415e-14 -1.66042e-13 0)
(1.73195e-14 -1.66089e-13 0)
(1.73195e-14 -1.6605e-13 0)
(1.77636e-14 -1.66097e-13 0)
(1.75415e-14 -1.66124e-13 0)
(1.79856e-14 -1.66137e-13 0)
(1.77636e-14 -1.6625e-13 0)
(1.77636e-14 -1.66275e-13 0)
(1.79856e-14 -1.66251e-13 0)
(1.77636e-14 -1.66187e-13 0)
(1.80966e-14 -1.66203e-13 0)
(1.80966e-14 -1.66274e-13 0)
(1.79856e-14 -1.66168e-13 0)
(-9.32587e-15 -6.25864e-14 0)
(2.37588e-14 -1.88688e-13 0)
(1.62093e-14 -1.60984e-13 0)
(1.73195e-14 -1.67317e-13 0)
(1.75415e-14 -1.6576e-13 0)
(1.75415e-14 -1.66096e-13 0)
(1.75415e-14 -1.66093e-13 0)
(1.79856e-14 -1.66153e-13 0)
(1.82077e-14 -1.66069e-13 0)
(1.82077e-14 -1.66093e-13 0)
(1.79856e-14 -1.66126e-13 0)
(1.79856e-14 -1.66173e-13 0)
(1.79856e-14 -1.66259e-13 0)
(1.77636e-14 -1.66213e-13 0)
(1.79856e-14 -1.66223e-13 0)
(1.75415e-14 -1.66229e-13 0)
(1.75415e-14 -1.66281e-13 0)
(1.79856e-14 -1.66321e-13 0)
(1.77636e-14 -1.66268e-13 0)
(1.79856e-14 -1.66126e-13 0)
(5.15143e-14 -1.42518e-13 0)
(9.76996e-15 -1.71412e-13 0)
(1.93179e-14 -1.64944e-13 0)
(1.80966e-14 -1.66516e-13 0)
(1.83187e-14 -1.66166e-13 0)
(1.84297e-14 -1.66234e-13 0)
(1.85407e-14 -1.66293e-13 0)
(1.80966e-14 -1.66328e-13 0)
(1.82077e-14 -1.66189e-13 0)
(1.82077e-14 -1.6609e-13 0)
(1.82077e-14 -1.66016e-13 0)
(1.84297e-14 -1.65971e-13 0)
(1.80966e-14 -1.6606e-13 0)
(1.84297e-14 -1.66132e-13 0)
(1.82077e-14 -1.6623e-13 0)
(1.82077e-14 -1.66192e-13 0)
(1.83187e-14 -1.66247e-13 0)
(1.82077e-14 -1.66266e-13 0)
(1.79856e-14 -1.66253e-13 0)
(1.80966e-14 -1.66182e-13 0)
(-5.32907e-15 -3.05868e-13 0)
(2.37588e-14 -1.35855e-13 0)
(1.70974e-14 -1.73306e-13 0)
(1.84297e-14 -1.64706e-13 0)
(1.83187e-14 -1.66522e-13 0)
(1.85407e-14 -1.66004e-13 0)
(1.82077e-14 -1.66051e-13 0)
(1.79856e-14 -1.66006e-13 0)
(1.79856e-14 -1.6606e-13 0)
(1.79856e-14 -1.66063e-13 0)
(1.77636e-14 -1.66065e-13 0)
(1.79856e-14 -1.6614e-13 0)
(1.79856e-14 -1.66203e-13 0)
(1.80966e-14 -1.66189e-13 0)
(1.80966e-14 -1.66218e-13 0)
(1.80966e-14 -1.6619e-13 0)
(1.82077e-14 -1.66183e-13 0)
(1.79856e-14 -1.66125e-13 0)
(1.79856e-14 -1.66107e-13 0)
(1.80966e-14 -1.66142e-13 0)
(1.68754e-14 -1.30657e-14 0)
(1.93179e-14 -2.00059e-13 0)
(1.83187e-14 -1.58256e-13 0)
(1.77636e-14 -1.67957e-13 0)
(1.73195e-14 -1.65744e-13 0)
(1.75415e-14 -1.66202e-13 0)
(1.75415e-14 -1.66084e-13 0)
(1.77636e-14 -1.6607e-13 0)
(1.77636e-14 -1.66094e-13 0)
(1.80966e-14 -1.66106e-13 0)
(1.80966e-14 -1.66104e-13 0)
(1.84297e-14 -1.66171e-13 0)
(1.84297e-14 -1.66212e-13 0)
(1.84297e-14 -1.66157e-13 0)
(1.82077e-14 -1.66081e-13 0)
(1.80966e-14 -1.66103e-13 0)
(1.82077e-14 -1.66134e-13 0)
(1.80966e-14 -1.66086e-13 0)
(1.79856e-14 -1.6603e-13 0)
(1.80966e-14 -1.66024e-13 0)
(3.66374e-14 -1.95849e-13 0)
(1.13243e-14 -1.59643e-13 0)
(1.73195e-14 -1.67552e-13 0)
(1.73195e-14 -1.65663e-13 0)
(1.75415e-14 -1.66168e-13 0)
(1.75415e-14 -1.66186e-13 0)
(1.75415e-14 -1.66231e-13 0)
(1.77636e-14 -1.66273e-13 0)
(1.77636e-14 -1.66286e-13 0)
(1.75415e-14 -1.66235e-13 0)
(1.73195e-14 -1.6623e-13 0)
(1.77636e-14 -1.66257e-13 0)
(1.77636e-14 -1.66237e-13 0)
(1.75415e-14 -1.66255e-13 0)
(1.77636e-14 -1.66122e-13 0)
(1.77636e-14 -1.66045e-13 0)
(1.77636e-14 -1.66114e-13 0)
(1.75415e-14 -1.66214e-13 0)
(1.77636e-14 -1.66127e-13 0)
(1.79856e-14 -1.65999e-13 0)
(3.10862e-15 -2.78488e-13 0)
(2.27596e-14 -1.41056e-13 0)
(1.80966e-14 -1.72128e-13 0)
(1.80966e-14 -1.64939e-13 0)
(1.82077e-14 -1.66589e-13 0)
(1.83187e-14 -1.66171e-13 0)
(1.82077e-14 -1.66166e-13 0)
(1.85407e-14 -1.66148e-13 0)
(1.83187e-14 -1.6619e-13 0)
(1.83187e-14 -1.66165e-13 0)
(1.84297e-14 -1.6619e-13 0)
(1.83187e-14 -1.66171e-13 0)
(1.80966e-14 -1.66184e-13 0)
(1.79856e-14 -1.66223e-13 0)
(1.79856e-14 -1.66142e-13 0)
(1.79856e-14 -1.66172e-13 0)
(1.83187e-14 -1.66154e-13 0)
(1.80966e-14 -1.66155e-13 0)
(1.77636e-14 -1.66136e-13 0)
(1.80966e-14 -1.66125e-13 0)
(1.37668e-14 1.64226e-14 0)
(1.82077e-14 -2.06644e-13 0)
(1.73195e-14 -1.56887e-13 0)
(1.79856e-14 -1.68424e-13 0)
(1.77636e-14 -1.65785e-13 0)
(1.77636e-14 -1.66345e-13 0)
(1.75415e-14 -1.66199e-13 0)
(1.75415e-14 -1.66167e-13 0)
(1.77636e-14 -1.66147e-13 0)
(1.75415e-14 -1.66174e-13 0)
(1.75415e-14 -1.66143e-13 0)
(1.77636e-14 -1.66082e-13 0)
(1.79856e-14 -1.66153e-13 0)
(1.77636e-14 -1.66197e-13 0)
(1.77636e-14 -1.66204e-13 0)
(1.79856e-14 -1.66214e-13 0)
(1.77636e-14 -1.66142e-13 0)
(1.77636e-14 -1.66057e-13 0)
(1.77636e-14 -1.66154e-13 0)
(1.79856e-14 -1.66211e-13 0)
(2.4647e-14 -3.27591e-13 0)
(1.62093e-14 -1.31635e-13 0)
(1.83187e-14 -1.74341e-13 0)
(1.84297e-14 -1.64438e-13 0)
(1.83187e-14 -1.66577e-13 0)
(1.83187e-14 -1.66165e-13 0)
(1.80966e-14 -1.66334e-13 0)
(1.82077e-14 -1.66293e-13 0)
(1.83187e-14 -1.66251e-13 0)
(1.80966e-14 -1.66297e-13 0)
(1.83187e-14 -1.66265e-13 0)
(1.84297e-14 -1.66274e-13 0)
(1.85407e-14 -1.66243e-13 0)
(1.86517e-14 -1.66113e-13 0)
(1.83187e-14 -1.66087e-13 0)
(1.83187e-14 -1.66009e-13 0)
(1.77636e-14 -1.66056e-13 0)
(1.79856e-14 -1.66186e-13 0)
(1.79856e-14 -1.66311e-13 0)
(1.82077e-14 -1.6617e-13 0)
(2.75335e-14 -8.76644e-14 0)
(1.80966e-14 -1.82873e-13 0)
(2.02061e-14 -1.62217e-13 0)
(1.80966e-14 -1.6705e-13 0)
(1.87628e-14 -1.66002e-13 0)
(1.86517e-14 -1.66227e-13 0)
(1.85407e-14 -1.66151e-13 0)
(1.83187e-14 -1.66017e-13 0)
(1.79856e-14 -1.65996e-13 0)
(1.77636e-14 -1.66105e-13 0)
(1.75415e-14 -1.66247e-13 0)
(1.75415e-14 -1.66334e-13 0)
(1.77636e-14 -1.66235e-13 0)
(1.75415e-14 -1.66013e-13 0)
(1.75415e-14 -1.66059e-13 0)
(1.79856e-14 -1.66059e-13 0)
(1.80966e-14 -1.66099e-13 0)
(1.84297e-14 -1.66167e-13 0)
(1.80966e-14 -1.6616e-13 0)
(1.80966e-14 -1.66067e-13 0)
(9.54792e-15 -1.3047e-13 0)
(1.73195e-14 -1.73508e-13 0)
(1.57652e-14 -1.64466e-13 0)
(1.80966e-14 -1.66538e-13 0)
(1.73195e-14 -1.66146e-13 0)
(1.75415e-14 -1.66225e-13 0)
(1.73195e-14 -1.66205e-13 0)
(1.73195e-14 -1.66116e-13 0)
(1.75415e-14 -1.66069e-13 0)
(1.79856e-14 -1.66111e-13 0)
(1.79856e-14 -1.66222e-13 0)
(1.82077e-14 -1.66232e-13 0)
(1.79856e-14 -1.66202e-13 0)
(1.77636e-14 -1.66174e-13 0)
(1.82077e-14 -1.66133e-13 0)
(1.75415e-14 -1.66225e-13 0)
(1.77636e-14 -1.66234e-13 0)
(1.75415e-14 -1.6618e-13 0)
(1.79856e-14 -1.66111e-13 0)
(1.77636e-14 -1.66124e-13 0)
(2.22045e-14 -2.98443e-13 0)
(1.89848e-14 -1.37655e-13 0)
(1.95399e-14 -1.72708e-13 0)
(1.82077e-14 -1.64476e-13 0)
(1.85407e-14 -1.66373e-13 0)
(1.84297e-14 -1.65994e-13 0)
(1.85407e-14 -1.66132e-13 0)
(1.82077e-14 -1.66204e-13 0)
(1.82077e-14 -1.66246e-13 0)
(1.80966e-14 -1.66265e-13 0)
(1.79856e-14 -1.66242e-13 0)
(1.79856e-14 -1.66123e-13 0)
(1.80966e-14 -1.66065e-13 0)
(1.77636e-14 -1.66125e-13 0)
(1.77636e-14 -1.6612e-13 0)
(1.79856e-14 -1.66221e-13 0)
(1.80966e-14 -1.6626e-13 0)
(1.80966e-14 -1.66225e-13 0)
(1.79856e-14 -1.66232e-13 0)
(1.80966e-14 -1.66236e-13 0)
(5.77316e-15 4.6106e-16 0)
(2.06501e-14 -2.02468e-13 0)
(1.68754e-14 -1.57548e-13 0)
(1.77636e-14 -1.67922e-13 0)
(1.77636e-14 -1.65695e-13 0)
(1.79856e-14 -1.66259e-13 0)
(1.77636e-14 -1.6613e-13 0)
(1.77636e-14 -1.66235e-13 0)
(1.83187e-14 -1.66234e-13 0)
(1.84297e-14 -1.66207e-13 0)
(1.83187e-14 -1.66155e-13 0)
(1.84297e-14 -1.66095e-13 0)
(1.83187e-14 -1.65968e-13 0)
(1.84297e-14 -1.65945e-13 0)
(1.82077e-14 -1.66072e-13 0)
(1.79856e-14 -1.66179e-13 0)
(1.77636e-14 -1.66166e-13 0)
(1.77636e-14 -1.66167e-13 0)
(1.79856e-14 -1.66259e-13 0)
(1.79856e-14 -1.66239e-13 0)
(4.05231e-14 -2.59446e-13 0)
(1.08802e-14 -1.45406e-13 0)
(1.77636e-14 -1.70935e-13 0)
(1.73195e-14 -1.65015e-13 0)
(1.77636e-14 -1.66326e-13 0)
(1.75415e-14 -1.66151e-13 0)
(1.75415e-14 -1.66349e-13 0)
(1.75415e-14 -1.66457e-13 0)
(1.75415e-14 -1.66398e-13 0)
(1.77636e-14 -1.66251e-13 0)
(1.77636e-14 -1.66167e-13 0)
(1.77636e-14 -1.66092e-13 0)
(1.75415e-14 -1.65973e-13 0)
(1.73195e-14 -1.66008e-13 0)
(1.77636e-14 -1.66072e-13 0)
(1.80966e-14 -1.66114e-13 0)
(1.77636e-14 -1.66126e-13 0)
(1.79856e-14 -1.66232e-13 0)
(1.82077e-14 -1.66273e-13 0)
(1.80966e-14 -1.66214e-13 0)
(-1.5099e-14 -2.18154e-13 0)
(2.64233e-14 -1.55214e-13 0)
(1.66533e-14 -1.6887e-13 0)
(1.79856e-14 -1.65728e-13 0)
(1.77636e-14 -1.66359e-13 0)
(1.82077e-14 -1.66184e-13 0)
(1.79856e-14 -1.66354e-13 0)
(1.82077e-14 -1.66363e-13 0)
(1.82077e-14 -1.66332e-13 0)
(1.82077e-14 -1.66236e-13 0)
(1.82077e-14 -1.66239e-13 0)
(1.80966e-14 -1.6609e-13 0)
(1.80966e-14 -1.6597e-13 0)
(1.82077e-14 -1.66076e-13 0)
(1.83187e-14 -1.6609e-13 0)
(1.83187e-14 -1.66078e-13 0)
(1.79856e-14 -1.66193e-13 0)
(1.80966e-14 -1.66217e-13 0)
(1.82077e-14 -1.66144e-13 0)
(1.82077e-14 -1.66148e-13 0)
(1.42109e-14 -1.67198e-14 0)
(1.88738e-14 -1.98923e-13 0)
(1.75415e-14 -1.58562e-13 0)
(1.82077e-14 -1.68091e-13 0)
(1.77636e-14 -1.65986e-13 0)
(1.77636e-14 -1.66335e-13 0)
(1.77636e-14 -1.66244e-13 0)
(1.73195e-14 -1.66276e-13 0)
(1.73195e-14 -1.66295e-13 0)
(1.75415e-14 -1.66271e-13 0)
(1.73195e-14 -1.66173e-13 0)
(1.70974e-14 -1.66071e-13 0)
(1.75415e-14 -1.66017e-13 0)
(1.75415e-14 -1.66072e-13 0)
(1.75415e-14 -1.66053e-13 0)
(1.79856e-14 -1.66083e-13 0)
(1.79856e-14 -1.66149e-13 0)
(1.77636e-14 -1.6617e-13 0)
(1.79856e-14 -1.66137e-13 0)
(1.82077e-14 -1.66119e-13 0)
(5.60663e-14 -2.14505e-13 0)
(7.99361e-15 -1.55988e-13 0)
(1.88738e-14 -1.68584e-13 0)
(1.73195e-14 -1.65687e-13 0)
(1.75415e-14 -1.6627e-13 0)
(1.75415e-14 -1.66073e-13 0)
(1.75415e-14 -1.66129e-13 0)
(1.75415e-14 -1.66183e-13 0)
(1.75415e-14 -1.66301e-13 0)
(1.75415e-14 -1.66383e-13 0)
(1.75415e-14 -1.66193e-13 0)
(1.75415e-14 -1.6616e-13 0)
(1.73195e-14 -1.66194e-13 0)
(1.77636e-14 -1.66207e-13 0)
(1.79856e-14 -1.66284e-13 0)
(1.79856e-14 -1.66268e-13 0)
(1.79856e-14 -1.6619e-13 0)
(1.79856e-14 -1.66189e-13 0)
(1.77636e-14 -1.66232e-13 0)
(1.80966e-14 -1.6614e-13 0)
(2.66454e-15 -2.78469e-13 0)
(2.30926e-14 -1.42132e-13 0)
(1.86517e-14 -1.71926e-13 0)
(1.89848e-14 -1.64971e-13 0)
(1.87628e-14 -1.66486e-13 0)
(1.86517e-14 -1.66147e-13 0)
(1.86517e-14 -1.66227e-13 0)
(1.87628e-14 -1.66183e-13 0)
(1.87628e-14 -1.66223e-13 0)
(1.86517e-14 -1.66273e-13 0)
(1.82077e-14 -1.66176e-13 0)
(1.83187e-14 -1.66144e-13 0)
(1.83187e-14 -1.66169e-13 0)
(1.82077e-14 -1.66174e-13 0)
(1.80966e-14 -1.66245e-13 0)
(1.77636e-14 -1.66252e-13 0)
(1.79856e-14 -1.66221e-13 0)
(1.79856e-14 -1.66162e-13 0)
(1.80966e-14 -1.66182e-13 0)
(1.79856e-14 -1.66152e-13 0)
)
;

boundaryField
{
    movingWall
    {
        type            calculated;
        value           uniform (1.79856e-14 -1.66151e-13 0);
    }
    fixedWalls
    {
        type            calculated;
        value           uniform (1.79856e-14 -1.66151e-13 0);
    }
    frontAndBack
    {
        type            empty;
    }
}


// ************************************************************************* //
