/*--------------------------------*- C++ -*----------------------------------*\
| =========                 |                                                 |
| \\      /  F ield         | OpenFOAM: The Open Source CFD Toolbox           |
|  \\    /   O peration     | Version:  2312                                  |
|   \\  /    A nd           | Website:  www.openfoam.com                      |
|    \\/     M anipulation  |                                                 |
\*---------------------------------------------------------------------------*/
FoamFile
{
    version     2.0;
    format      ascii;
    arch        "LSB;label=32;scalar=64";
    class       volScalarField;
    location    "9.875";
    object      divU;
}
// * * * * * * * * * * * * * * * * * * * * * * * * * * * * * * * * * * * * * //

dimensions      [0 0 -1 0 0 0 0];

internalField   nonuniform List<scalar> 
400
(
1.6778e-11
-2.04646e-12
4.06656e-13
-1.67464e-13
3.912e-14
-4.27168e-15
-8.55533e-15
2.84992e-14
-1.70273e-14
2.06866e-14
-3.54473e-16
-6.34135e-15
-3.92215e-14
-9.54118e-16
-8.79851e-17
-1.26728e-14
5.11462e-14
-4.52689e-14
4.22184e-14
0
-3.00866e-11
4.01216e-12
-8.65615e-13
3.5733e-13
-4.7259e-14
1.2578e-14
3.4621e-14
-3.9497e-15
7.75583e-14
-5.65712e-14
9.59258e-15
-2.11733e-14
-1.12761e-14
1.52848e-14
3.78273e-14
-1.98862e-14
-4.47806e-15
5.00361e-16
-2.38415e-14
0
8.5923e-12
-1.40157e-12
2.53924e-13
-6.81264e-14
-3.26822e-14
2.1297e-14
-1.69957e-14
-1.63586e-14
-6.69087e-14
4.30518e-14
3.50329e-14
5.62284e-16
1.76146e-14
-7.0329e-14
6.17061e-14
-4.4899e-14
3.75394e-14
4.91738e-15
-2.4007e-14
0
1.56396e-11
-1.26199e-12
2.3073e-13
-7.18731e-14
6.46117e-14
-2.98896e-14
1.86853e-14
6.33799e-14
4.3684e-15
-4.22901e-14
-1.10445e-14
1.58084e-14
-1.76511e-15
-3.1399e-14
1.19534e-14
-1.18636e-14
3.15374e-14
-1.36689e-15
5.94705e-14
0
-2.18196e-11
2.06983e-12
-3.78032e-13
1.62172e-13
-6.57661e-14
3.35e-14
-3.13849e-14
-3.26894e-15
3.2434e-14
1.48653e-14
-4.97765e-15
-8.01183e-15
3.88517e-15
-1.90489e-15
1.24031e-14
-8.0603e-15
1.42716e-14
-8.88048e-15
-5.75762e-15
0
1.11402e-11
-5.78036e-13
1.28163e-13
-8.95896e-15
3.0689e-14
-1.75191e-14
-1.04337e-14
-4.49649e-15
1.47943e-14
-1.38715e-14
-6.80664e-14
2.61872e-14
-1.12924e-14
2.27103e-14
2.73206e-14
8.35724e-16
-1.51084e-15
-1.80018e-14
4.36492e-14
-2.71051e-14
1.10318e-11
-2.22506e-12
4.05431e-13
-2.13062e-13
3.89562e-14
-8.57794e-15
-1.31142e-15
-3.11536e-14
1.92689e-14
2.32207e-14
2.38591e-14
1.4445e-14
-1.47302e-14
-3.81061e-14
9.81085e-15
1.53488e-14
-2.17871e-14
-2.69427e-14
1.44963e-14
0
-2.53432e-11
3.94635e-12
-7.64876e-13
3.05522e-13
-1.84713e-14
-5.4572e-15
-9.52703e-15
1.51862e-14
-4.44644e-14
-9.80798e-15
-1.17665e-14
1.44561e-14
-1.19421e-14
9.51447e-15
3.72563e-15
-1.86777e-14
-2.37838e-14
2.04071e-14
3.09483e-14
0
2.01933e-11
-3.19316e-12
5.99744e-13
-2.68807e-13
7.40369e-14
-2.13627e-14
2.0731e-14
-1.32499e-15
-3.43389e-15
-3.73265e-15
-3.03849e-15
4.89011e-15
-3.06363e-14
-1.18164e-14
-4.43293e-15
1.86729e-14
2.76229e-14
-4.5133e-14
1.19165e-15
-2.71051e-14
-5.31259e-12
1.29968e-12
-2.45009e-13
7.94625e-14
-6.04954e-15
-2.07955e-14
-2.31675e-14
1.12981e-14
-3.67155e-14
-1.69159e-14
1.65267e-14
4.87849e-14
-6.36793e-14
-8.35843e-16
5.53122e-14
-4.62741e-14
1.03153e-14
5.8985e-15
3.79492e-14
0
-9.92045e-12
1.75229e-12
-3.17213e-13
1.35562e-13
-5.48375e-14
1.80788e-14
-1.83567e-14
5.33642e-14
5.4577e-15
1.70354e-14
6.03881e-15
-3.50258e-15
-1.76479e-14
-9.5368e-15
-1.15124e-14
-3.64031e-15
-1.24326e-14
-5.10686e-15
3.72902e-14
-2.71051e-14
2.06812e-11
-4.95582e-12
1.02266e-12
-3.72614e-13
9.67165e-14
-4.21272e-14
-5.43882e-15
-1.02811e-14
-8.47644e-14
-1.85067e-14
1.03079e-14
2.78241e-14
-1.34973e-14
-1.56771e-14
1.09777e-14
2.89698e-14
2.4033e-14
-4.52088e-15
3.01659e-15
-2.71051e-14
-2.19551e-11
5.12248e-12
-9.75109e-13
4.26894e-13
-7.59306e-14
3.54183e-14
-5.77069e-14
-2.89945e-14
5.28731e-14
4.68246e-14
3.79066e-14
2.17434e-14
-7.78109e-14
5.4477e-14
-4.92893e-14
-1.43426e-14
-1.91365e-14
-1.03896e-14
-4.18606e-15
5.42101e-14
1.36338e-11
-3.16736e-12
6.1117e-13
-2.53545e-13
5.04879e-14
4.92336e-15
-2.3132e-14
-1.37633e-14
-4.48701e-14
-1.70224e-14
-9.57953e-15
8.36965e-15
2.68947e-14
-3.10692e-14
6.51962e-14
4.44159e-14
1.47571e-14
-3.61844e-14
8.17106e-15
-5.42101e-14
2.90024e-12
3.67317e-13
-1.33086e-13
1.78155e-14
1.0686e-15
4.33543e-14
-7.19654e-14
4.23263e-14
4.83791e-14
3.86139e-14
-2.0593e-15
1.15182e-14
8.93735e-15
-1.94092e-14
-1.13829e-14
-2.6187e-14
-5.32216e-14
4.44556e-14
4.08351e-15
0
-2.03017e-11
2.46352e-12
-5.06328e-13
2.10084e-13
-6.53952e-14
-3.31156e-15
-1.30071e-14
-2.46621e-14
1.14213e-14
8.5906e-15
-1.04318e-14
1.19436e-14
-1.83562e-14
-5.34058e-15
6.82042e-14
1.10515e-14
-1.76786e-15
1.24149e-14
1.55688e-14
0
2.17654e-11
-2.15642e-12
4.05704e-13
-1.78826e-13
2.27954e-14
5.48509e-15
-2.45173e-15
4.75815e-14
2.17188e-14
6.60571e-15
-1.0981e-14
-1.30995e-14
3.14726e-14
-1.17305e-14
-1.11924e-14
-1.2987e-14
-3.11721e-14
7.27931e-14
2.07958e-15
-5.42101e-14
1.0842e-13
2.59768e-13
-8.07141e-14
6.92088e-14
-4.95887e-14
1.6588e-14
-7.07369e-15
-4.28362e-14
-2.2516e-15
4.60959e-14
-6.06403e-14
-2.00196e-14
3.62063e-14
-2.48841e-14
-3.57321e-15
2.22223e-14
-3.75563e-15
-5.7038e-15
2.04197e-14
-2.71051e-14
-2.33917e-11
1.98152e-12
-4.14189e-13
1.91464e-13
-4.5413e-14
8.21094e-15
-5.39874e-15
2.07253e-14
4.85553e-15
-8.29422e-15
-6.71596e-15
-1.46246e-16
-6.09727e-15
1.91227e-14
3.14005e-14
-2.17642e-14
-1.09162e-14
-5.90338e-14
4.30311e-14
0
1.50433e-11
-1.81604e-12
4.06576e-13
-1.35525e-13
0
0
0
2.71051e-14
0
-2.71051e-14
-2.71051e-14
0
0
0
-2.71051e-14
2.71051e-14
0
2.71051e-14
-2.71051e-14
0
)
;

boundaryField
{
    movingWall
    {
        type            extrapolatedCalculated;
        value           nonuniform List<scalar> 
20
(
1.50433e-11
-1.81604e-12
4.06576e-13
-1.35525e-13
0
0
0
2.71051e-14
0
-2.71051e-14
-2.71051e-14
0
0
0
-2.71051e-14
2.71051e-14
0
2.71051e-14
-2.71051e-14
0
)
;
    }
    fixedWalls
    {
        type            extrapolatedCalculated;
        value           nonuniform List<scalar> 
60
(
1.6778e-11
-3.00866e-11
8.5923e-12
1.56396e-11
-2.18196e-11
1.11402e-11
1.10318e-11
-2.53432e-11
2.01933e-11
-5.31259e-12
-9.92045e-12
2.06812e-11
-2.19551e-11
1.36338e-11
2.90024e-12
-2.03017e-11
2.17654e-11
1.0842e-13
-2.33917e-11
1.50433e-11
0
0
0
0
0
-2.71051e-14
0
0
-2.71051e-14
0
-2.71051e-14
-2.71051e-14
5.42101e-14
-5.42101e-14
0
0
-5.42101e-14
-2.71051e-14
0
0
1.6778e-11
-2.04646e-12
4.06656e-13
-1.67464e-13
3.912e-14
-4.27168e-15
-8.55533e-15
2.84992e-14
-1.70273e-14
2.06866e-14
-3.54473e-16
-6.34135e-15
-3.92215e-14
-9.54118e-16
-8.79851e-17
-1.26728e-14
5.11462e-14
-4.52689e-14
4.22184e-14
0
)
;
    }
    frontAndBack
    {
        type            empty;
    }
}


// ************************************************************************* //
