/*--------------------------------*- C++ -*----------------------------------*\
| =========                 |                                                 |
| \\      /  F ield         | OpenFOAM: The Open Source CFD Toolbox           |
|  \\    /   O peration     | Version:  2312                                  |
|   \\  /    A nd           | Website:  www.openfoam.com                      |
|    \\/     M anipulation  |                                                 |
\*---------------------------------------------------------------------------*/
FoamFile
{
    version     2.0;
    format      ascii;
    arch        "LSB;label=32;scalar=64";
    class       volScalarField;
    location    "9.875";
    object      enstrophyField;
}
// * * * * * * * * * * * * * * * * * * * * * * * * * * * * * * * * * * * * * //

dimensions      [0 0 -2 0 0 0 0];

internalField   nonuniform List<scalar> 
400
(
7.20595e-23
1.19242e-22
5.69499e-24
3.02675e-25
1.12436e-26
3.85314e-28
1.50378e-28
1.1306e-29
5.19686e-29
3.03033e-28
1.21923e-28
1.75694e-27
2.09347e-27
3.5858e-27
1.27154e-27
1.15637e-27
1.83723e-29
1.52329e-30
1.39616e-29
3.2166e-30
1.16535e-26
4.50687e-25
6.02849e-26
1.26399e-27
4.46985e-27
5.43994e-28
4.67968e-27
4.53086e-27
3.50263e-27
8.52482e-28
9.15823e-28
5.27905e-29
1.30524e-29
1.03748e-27
3.15017e-29
1.30392e-27
1.20936e-28
5.69582e-29
8.05377e-28
1.77238e-28
2.16061e-23
8.75768e-23
4.4166e-24
2.68725e-25
1.9082e-26
2.3741e-28
5.10602e-28
3.16281e-28
3.8917e-28
3.50036e-31
1.89789e-27
8.15634e-30
2.23466e-27
9.47376e-29
8.24649e-33
1.98272e-27
1.74312e-27
6.40651e-28
4.68381e-28
9.85776e-29
8.81822e-24
3.90454e-23
1.94929e-24
1.14058e-25
2.30787e-27
6.55788e-27
1.79457e-27
1.34511e-27
5.24556e-27
6.50508e-27
6.15644e-28
7.41758e-27
8.15421e-30
3.01622e-27
3.43304e-27
1.6955e-29
2.0122e-27
9.16585e-31
2.71681e-27
4.18515e-29
1.02334e-24
2.51481e-24
7.26383e-26
2.6589e-26
3.3685e-28
7.33717e-27
2.02639e-27
5.45519e-29
1.29878e-27
9.87416e-28
7.59646e-28
9.88426e-30
9.31783e-28
9.74079e-28
5.48733e-28
6.06299e-27
1.89669e-27
1.38266e-31
1.04823e-27
9.60961e-29
2.79201e-23
7.60714e-23
3.85503e-24
2.48865e-25
2.29009e-28
1.20931e-26
1.45787e-27
3.49913e-31
2.85679e-27
3.5297e-28
2.92238e-29
9.51655e-29
5.13254e-28
1.20779e-30
3.63761e-28
4.70366e-28
2.15177e-29
6.0228e-28
1.53371e-30
1.39134e-29
2.97715e-23
8.8076e-23
5.15286e-24
2.0502e-25
2.05186e-26
1.11882e-27
4.46988e-27
1.4135e-27
6.65413e-30
1.41513e-27
1.13783e-27
1.33825e-28
4.07902e-28
2.26277e-27
5.27084e-28
2.3789e-28
1.56338e-27
2.09068e-27
1.8246e-27
3.08001e-28
4.38681e-25
3.06865e-24
1.81171e-25
6.18697e-27
8.92691e-27
3.83438e-27
4.05188e-27
3.76707e-27
1.26997e-27
1.18146e-27
2.575e-30
3.47577e-28
3.7283e-28
2.15753e-27
2.8273e-27
3.19832e-31
1.42701e-28
8.12826e-31
2.31967e-28
4.53933e-29
2.07843e-23
4.93154e-23
2.85214e-24
1.24821e-25
7.58306e-27
1.15529e-28
2.518e-30
2.75677e-30
1.44731e-30
2.74814e-35
1.50052e-27
1.58879e-31
1.3227e-29
1.25107e-27
1.26555e-29
7.24949e-31
3.20971e-28
1.37357e-27
4.35483e-30
4.85592e-28
7.28035e-23
1.38216e-22
7.30362e-24
4.456e-25
2.16247e-26
1.02193e-28
2.59227e-27
5.24662e-28
3.86736e-28
1.49129e-27
4.22684e-29
3.96536e-28
2.16306e-27
1.75828e-27
3.44134e-27
1.15465e-27
4.70992e-27
6.30691e-31
2.42876e-27
2.00005e-29
9.90489e-23
1.17427e-22
6.40279e-24
3.01412e-25
3.95137e-26
1.62631e-27
7.34777e-27
1.0553e-27
3.78338e-28
1.54462e-27
2.63646e-30
4.28386e-28
9.35611e-28
9.14498e-28
7.04014e-28
4.67669e-30
2.59116e-27
3.17312e-27
3.25044e-28
1.60481e-28
2.96013e-23
2.88101e-23
1.66756e-24
6.17451e-26
1.33881e-26
7.72337e-28
2.82718e-27
7.68376e-27
4.95999e-27
4.22152e-28
4.92221e-28
7.84711e-31
1.74808e-27
7.93787e-27
1.02249e-29
5.45404e-27
5.82481e-29
1.1554e-27
4.96461e-29
1.92937e-28
5.6024e-24
6.0584e-24
3.02878e-25
1.41046e-26
1.70717e-27
2.2414e-28
5.89777e-29
9.1788e-29
1.7729e-31
4.66723e-27
2.20183e-27
3.1395e-28
2.27153e-28
2.04199e-28
1.27059e-29
5.07146e-29
9.71394e-30
2.207e-27
5.36334e-28
2.20811e-29
5.00022e-23
7.50101e-23
3.96942e-24
2.18169e-25
2.12103e-26
4.51623e-28
1.1601e-27
2.15164e-27
6.55647e-27
3.58362e-28
8.0145e-28
4.36597e-29
3.71747e-28
3.76667e-27
4.57777e-29
2.32536e-27
1.03358e-31
1.32548e-27
6.11379e-31
5.43378e-29
6.28712e-23
1.12723e-22
6.64054e-24
2.68901e-25
3.77289e-26
2.10305e-27
6.13799e-27
2.5181e-27
1.62692e-27
6.11003e-28
2.14043e-27
1.04968e-27
2.39041e-27
1.39047e-28
2.73e-28
4.36918e-29
1.53345e-27
4.33256e-29
5.86629e-28
1.09006e-27
1.33535e-23
3.4295e-23
1.81782e-24
1.06227e-25
6.45608e-27
1.60026e-27
1.65974e-27
3.71066e-27
2.11363e-28
1.25649e-27
1.26344e-28
1.08081e-27
1.95685e-27
9.82078e-28
5.52949e-29
1.77584e-27
2.18145e-27
1.08065e-28
3.18918e-28
6.38049e-28
1.09136e-24
8.57972e-24
5.52758e-25
1.01724e-26
1.03758e-27
1.46388e-31
2.60324e-27
1.58853e-27
2.23798e-27
4.35466e-29
2.36479e-27
5.855e-27
1.08263e-30
2.18981e-27
1.93584e-32
5.38322e-29
9.65991e-29
1.21667e-29
5.78245e-28
5.13041e-31
1.04166e-23
7.64859e-23
4.03079e-24
2.18506e-25
2.05557e-26
4.03902e-28
3.79732e-27
2.42334e-28
3.35028e-27
4.37048e-27
1.10676e-27
2.43365e-27
3.29775e-27
3.02049e-27
1.41248e-27
9.9487e-28
3.8198e-29
7.36596e-31
3.73597e-27
2.5387e-28
3.59319e-24
8.7593e-24
5.8135e-25
7.56299e-27
1.51493e-26
2.2594e-27
7.13612e-27
1.16614e-26
2.20007e-26
4.76988e-27
1.73776e-27
9.18688e-27
3.70465e-27
4.08592e-27
3.8158e-27
2.02447e-27
3.13586e-29
8.58432e-30
1.2194e-27
5.8192e-28
2.1472e-23
5.16787e-23
2.24982e-24
1.78894e-25
2.00963e-27
1.40589e-27
2.7755e-28
1.48798e-27
1.02245e-27
5.0849e-28
8.30932e-29
2.06894e-31
1.64074e-27
2.9103e-29
1.87543e-28
1.33841e-27
4.06901e-29
7.53017e-30
4.32186e-31
5.23911e-30
)
;

boundaryField
{
    movingWall
    {
        type            calculated;
        value           nonuniform List<scalar> 
20
(
1.11877e-22
8.06092e-23
2.03498e-24
4.45213e-25
1.86737e-26
4.27415e-26
3.45606e-26
4.84242e-26
4.55636e-26
3.67852e-26
5.17238e-27
8.96059e-27
8.46986e-27
3.29579e-27
6.7238e-28
3.72779e-27
4.06901e-29
7.53017e-30
1.0278e-27
5.23911e-30
)
;
    }
    fixedWalls
    {
        type            calculated;
        value           nonuniform List<scalar> 
60
(
2.13879e-21
9.53828e-24
1.58598e-21
7.03976e-22
4.09217e-23
1.37379e-21
1.62637e-21
5.50925e-23
9.09854e-22
2.51256e-21
2.17525e-21
5.41616e-22
1.09333e-22
1.38009e-21
2.10138e-21
6.20609e-22
1.65113e-22
1.38711e-21
1.65678e-22
9.09534e-22
3.34135e-29
4.2966e-28
2.30853e-29
5.06261e-29
1.10388e-28
5.81581e-30
1.28985e-27
5.67983e-28
7.01833e-28
2.92592e-28
2.98438e-29
2.10232e-29
5.80131e-29
2.4933e-29
1.93879e-27
4.25282e-28
8.35061e-31
1.03336e-28
2.60945e-28
1.41802e-31
2.05159e-22
1.62595e-22
5.5461e-24
4.82931e-25
1.01171e-27
1.27483e-26
1.2847e-26
8.25247e-27
5.19686e-29
3.03033e-28
1.21923e-28
4.40726e-27
5.75026e-28
1.63816e-26
3.61561e-27
1.4709e-26
1.83723e-29
4.10085e-27
3.48893e-27
8.76655e-28
)
;
    }
    frontAndBack
    {
        type            empty;
    }
}


// ************************************************************************* //
