/*--------------------------------*- C++ -*----------------------------------*\
| =========                 |                                                 |
| \\      /  F ield         | OpenFOAM: The Open Source CFD Toolbox           |
|  \\    /   O peration     | Version:  2312                                  |
|   \\  /    A nd           | Website:  www.openfoam.com                      |
|    \\/     M anipulation  |                                                 |
\*---------------------------------------------------------------------------*/
FoamFile
{
    version     2.0;
    format      ascii;
    arch        "LSB;label=32;scalar=64";
    class       volScalarField;
    location    "9.875";
    object      epsilonzeroGrad;
}
// * * * * * * * * * * * * * * * * * * * * * * * * * * * * * * * * * * * * * //

dimensions      [0 2 -3 0 0 0 0];

internalField   nonuniform List<scalar> 
400
(
6.12814e-07
6.12813e-07
6.12814e-07
6.12812e-07
6.12814e-07
6.12812e-07
6.12813e-07
6.12812e-07
6.12813e-07
6.12812e-07
6.12813e-07
6.12812e-07
6.12812e-07
6.12812e-07
6.12812e-07
6.12812e-07
6.12812e-07
6.12812e-07
6.12812e-07
6.12812e-07
6.23568e-07
6.17739e-07
6.1824e-07
6.18445e-07
6.18858e-07
6.19069e-07
6.19482e-07
6.19698e-07
6.20113e-07
6.20332e-07
6.20749e-07
6.20971e-07
6.21391e-07
6.21616e-07
6.22039e-07
6.22267e-07
6.22692e-07
6.22924e-07
6.23138e-07
6.23468e-07
6.41346e-07
6.35188e-07
6.35727e-07
6.35946e-07
6.36388e-07
6.36612e-07
6.37053e-07
6.37281e-07
6.37722e-07
6.37953e-07
6.38395e-07
6.38627e-07
6.39072e-07
6.39305e-07
6.39751e-07
6.39986e-07
6.40434e-07
6.4067e-07
6.40895e-07
6.41238e-07
6.61257e-07
6.54844e-07
6.55405e-07
6.55633e-07
6.56093e-07
6.56327e-07
6.56786e-07
6.57024e-07
6.57483e-07
6.57723e-07
6.58184e-07
6.58425e-07
6.58888e-07
6.59131e-07
6.59596e-07
6.5984e-07
6.60306e-07
6.60553e-07
6.60787e-07
6.61144e-07
6.79266e-07
6.72618e-07
6.73199e-07
6.73435e-07
6.73912e-07
6.74155e-07
6.7463e-07
6.74877e-07
6.75353e-07
6.75602e-07
6.76079e-07
6.76329e-07
6.76809e-07
6.77061e-07
6.77542e-07
6.77796e-07
6.78279e-07
6.78534e-07
6.78777e-07
6.79148e-07
6.93381e-07
6.86547e-07
6.87144e-07
6.87387e-07
6.87877e-07
6.88127e-07
6.88615e-07
6.88869e-07
6.89358e-07
6.89614e-07
6.90105e-07
6.90362e-07
6.90855e-07
6.91114e-07
6.91609e-07
6.9187e-07
6.92367e-07
6.92629e-07
6.92879e-07
6.9326e-07
7.03413e-07
6.96445e-07
6.97054e-07
6.97301e-07
6.97801e-07
6.98055e-07
6.98553e-07
6.98812e-07
6.9931e-07
6.99571e-07
7.00072e-07
7.00334e-07
7.00837e-07
7.01101e-07
7.01606e-07
7.01871e-07
7.02378e-07
7.02645e-07
7.029e-07
7.03288e-07
7.10143e-07
7.03084e-07
7.037e-07
7.03951e-07
7.04458e-07
7.04715e-07
7.0522e-07
7.05481e-07
7.05987e-07
7.06251e-07
7.06758e-07
7.07023e-07
7.07533e-07
7.078e-07
7.08312e-07
7.0858e-07
7.09094e-07
7.09365e-07
7.09623e-07
7.10016e-07
7.14605e-07
7.07485e-07
7.08107e-07
7.0836e-07
7.0887e-07
7.0913e-07
7.09639e-07
7.09903e-07
7.10412e-07
7.10679e-07
7.1119e-07
7.11458e-07
7.11972e-07
7.12241e-07
7.12757e-07
7.13028e-07
7.13546e-07
7.13819e-07
7.14079e-07
7.14476e-07
7.17694e-07
7.10532e-07
7.11157e-07
7.11412e-07
7.11925e-07
7.12186e-07
7.12698e-07
7.12964e-07
7.13476e-07
7.13744e-07
7.14259e-07
7.14528e-07
7.15045e-07
7.15316e-07
7.15835e-07
7.16107e-07
7.16628e-07
7.16903e-07
7.17165e-07
7.17564e-07
7.20052e-07
7.12859e-07
7.13488e-07
7.13743e-07
7.14259e-07
7.14521e-07
7.15035e-07
7.15302e-07
7.15817e-07
7.16086e-07
7.16602e-07
7.16873e-07
7.17392e-07
7.17664e-07
7.18185e-07
7.18459e-07
7.18982e-07
7.19259e-07
7.19521e-07
7.19922e-07
7.22095e-07
7.14874e-07
7.15505e-07
7.15761e-07
7.16279e-07
7.16542e-07
7.17058e-07
7.17326e-07
7.17843e-07
7.18113e-07
7.18631e-07
7.18903e-07
7.19424e-07
7.19697e-07
7.20221e-07
7.20495e-07
7.2102e-07
7.21298e-07
7.21562e-07
7.21964e-07
7.24067e-07
7.1682e-07
7.17453e-07
7.1771e-07
7.1823e-07
7.18494e-07
7.19012e-07
7.1928e-07
7.19799e-07
7.2007e-07
7.20591e-07
7.20863e-07
7.21386e-07
7.2166e-07
7.22186e-07
7.22461e-07
7.22988e-07
7.23267e-07
7.23531e-07
7.23935e-07
7.26102e-07
7.18828e-07
7.19464e-07
7.19722e-07
7.20244e-07
7.20509e-07
7.21029e-07
7.21298e-07
7.21819e-07
7.22091e-07
7.22613e-07
7.22887e-07
7.23412e-07
7.23687e-07
7.24214e-07
7.24491e-07
7.2502e-07
7.25299e-07
7.25565e-07
7.2597e-07
7.28253e-07
7.2095e-07
7.21587e-07
7.21847e-07
7.2237e-07
7.22636e-07
7.23159e-07
7.23429e-07
7.23952e-07
7.24225e-07
7.24749e-07
7.25024e-07
7.25551e-07
7.25827e-07
7.26357e-07
7.26635e-07
7.27166e-07
7.27446e-07
7.27713e-07
7.2812e-07
7.30489e-07
7.23156e-07
7.23796e-07
7.24057e-07
7.24582e-07
7.2485e-07
7.25374e-07
7.25645e-07
7.2617e-07
7.26445e-07
7.26971e-07
7.27247e-07
7.27776e-07
7.28053e-07
7.28585e-07
7.28864e-07
7.29397e-07
7.29679e-07
7.29947e-07
7.30355e-07
7.32699e-07
7.25337e-07
7.2598e-07
7.26241e-07
7.26769e-07
7.27037e-07
7.27564e-07
7.27836e-07
7.28363e-07
7.28639e-07
7.29167e-07
7.29444e-07
7.29976e-07
7.30254e-07
7.30787e-07
7.31068e-07
7.31603e-07
7.31886e-07
7.32155e-07
7.32565e-07
7.34691e-07
7.27304e-07
7.27949e-07
7.28211e-07
7.2874e-07
7.29009e-07
7.29537e-07
7.29811e-07
7.30339e-07
7.30616e-07
7.31146e-07
7.31424e-07
7.31957e-07
7.32237e-07
7.32772e-07
7.33054e-07
7.33591e-07
7.33875e-07
7.34144e-07
7.34556e-07
7.36217e-07
7.28948e-07
7.29572e-07
7.29825e-07
7.3034e-07
7.30602e-07
7.31117e-07
7.31386e-07
7.31902e-07
7.32175e-07
7.32695e-07
7.32971e-07
7.33496e-07
7.33774e-07
7.34304e-07
7.34586e-07
7.35118e-07
7.35404e-07
7.35673e-07
7.36085e-07
7.36922e-07
7.36922e-07
7.36922e-07
7.36921e-07
7.36921e-07
7.36921e-07
7.36921e-07
7.36921e-07
7.36921e-07
7.3692e-07
7.3692e-07
7.3692e-07
7.3692e-07
7.3692e-07
7.3692e-07
7.3692e-07
7.3692e-07
7.3692e-07
7.3692e-07
7.3692e-07
)
;

boundaryField
{
    movingWall
    {
        type            zeroGradient;
    }
    fixedWalls
    {
        type            zeroGradient;
    }
    frontAndBack
    {
        type            empty;
    }
}


// ************************************************************************* //
