/*--------------------------------*- C++ -*----------------------------------*\
| =========                 |                                                 |
| \\      /  F ield         | OpenFOAM: The Open Source CFD Toolbox           |
|  \\    /   O peration     | Version:  2312                                  |
|   \\  /    A nd           | Website:  www.openfoam.com                      |
|    \\/     M anipulation  |                                                 |
\*---------------------------------------------------------------------------*/
FoamFile
{
    version     2.0;
    format      ascii;
    arch        "LSB;label=32;scalar=64";
    class       volScalarField;
    location    "9.875";
    object      flowTypeField;
}
// * * * * * * * * * * * * * * * * * * * * * * * * * * * * * * * * * * * * * //

dimensions      [0 0 0 0 0 0 0];

internalField   nonuniform List<scalar> 
400
(
0.417089
0.0534814
0.0446499
0.0599665
0.169669
0.482696
0.471759
0.766333
0.792603
0.211877
0.000246359
-0.0842697
0.16608
-0.0410138
0.068854
0.132017
0.839794
0.939353
0.859677
0.628157
0.993286
0.836495
0.759693
0.822478
0.065895
-0.0161841
0.0276396
-0.166196
0.252916
0.419783
0.218419
0.600675
0.0115881
-0.03764
0.807465
0.0648978
0.00392237
0.190023
-0.287685
0.000161732
0.536633
0.107174
0.0622492
0.0441428
-0.0102782
0.0673037
0.160818
0.145366
0.486188
0.961368
-0.00859011
0.324606
0.168699
0.689795
0.97867
0.170626
0.220278
0.193157
0.187059
0.162703
0.740022
0.178006
0.172273
0.114901
0.477932
-0.317836
0.0563687
0.439798
0.0846324
-0.0187314
0.11457
-0.110318
0.444985
0.195054
-0.017314
0.721558
-0.0299635
0.649421
0.0658811
0.0100852
0.92068
0.602271
0.705796
0.268168
0.672907
-0.0760822
-0.0357343
0.606463
-0.137256
-0.5988
-0.371421
0.161432
-0.507448
-0.596594
-0.216349
-0.0149286
-0.113868
0.94992
0.250557
0.476757
0.516447
0.100555
0.0757047
0.00233216
0.835278
-0.362098
0.147074
0.944125
0.0755886
0.020948
0.808261
0.704282
-0.0183536
0.891004
0.119025
-0.0677397
0.42503
0.177251
0.906939
0.766969
0.487594
0.09696
0.0167671
0.158173
-0.127589
0.424574
-0.0695323
0.112926
0.901265
0.144746
0.22304
0.539634
-0.0438242
-0.0816673
-0.114913
0.268592
0.0796646
-0.0408623
0.00889058
0.330062
0.951549
0.580914
0.575108
0.607438
0.0404755
-0.0754254
-0.0999455
-0.00635196
0.166622
0.106724
0.626667
0.279574
0.260045
-0.0601374
-0.368494
0.74958
0.416154
0.906174
0.572183
0.646174
0.664634
0.145705
0.0965339
0.182268
0.063294
0.644836
0.86051
0.677163
0.895838
0.857288
0.00232511
0.905122
0.751157
0.166793
0.397014
0.919994
0.304615
0.298078
0.199259
0.0952127
0.1912
0.042209
0.00169598
-0.0585704
1.73942e-05
0.68151
-0.244043
0.19695
0.25521
0.0206495
0.615064
0.48379
0.143938
-0.0693623
0.142812
0.348773
-0.18148
0.489527
0.122572
0.159523
0.13786
0.0125362
-0.0730431
0.0151762
-0.551002
0.30161
-0.0796361
0.245469
0.105498
-0.0168159
0.866148
0.323662
-0.450958
0.0539558
0.105682
0.845539
-0.148031
-0.412782
0.29949
0.438364
0.572416
0.110461
0.0288235
0.222418
-0.249623
0.334318
-0.163024
-0.0892505
0.321655
0.513961
0.417049
0.905507
-0.201125
-0.158886
0.768014
0.142684
0.754247
0.111838
0.644252
0.443104
0.798759
0.351408
0.348147
0.465888
0.0536685
0.368398
0.742232
0.362066
0.978702
0.0349548
-0.0757806
0.243453
0.69569
0.608908
0.86275
0.409749
0.646818
-0.213682
-0.155359
0.834129
0.363621
0.0500422
-0.0157046
-0.00397742
-0.27604
0.440609
-0.0885376
-0.173469
-0.0122847
0.0657059
0.323312
0.662962
0.2158
0.128432
0.768351
-0.097664
0.797605
0.141262
0.921474
0.69188
0.172744
0.0531588
-0.0493459
0.10552
-0.64734
0.448952
0.0957578
0.272683
0.24612
0.100686
-0.190232
-0.640182
-0.248333
0.531549
0.313851
0.620753
0.261565
0.772256
-0.238735
-0.684192
0.72464
0.182507
0.175834
0.0930137
0.128896
-0.0328146
-0.28421
-0.0454887
0.371252
-0.772939
0.105709
-0.696394
-0.0225296
0.199062
0.823856
-0.0778578
-0.213658
0.466462
0.132688
0.394485
0.919311
0.434421
0.383796
0.612601
0.18255
0.948225
-0.29205
0.103156
-0.203936
0.0201554
-0.265072
-0.235943
0.89562
-0.20743
0.582641
0.571565
0.480354
0.865175
-0.0962826
0.957134
0.608891
0.128241
0.0796653
0.111569
-0.094448
0.476854
0.018354
0.588327
-0.00586068
0.0590331
0.240349
-0.269169
0.176054
0.0553826
0.153534
0.393086
0.000586587
0.434564
-0.00146494
0.369207
0.86672
0.441398
0.38897
0.647614
-0.182756
0.189643
-0.101078
-0.123167
-0.104314
0.0984962
0.272633
0.00123241
-0.0393039
-0.0421029
0.117588
-0.111199
0.222457
0.882187
0.322028
-0.240018
0.588948
0.0971452
0.132291
-0.0478609
0.513653
-0.625508
0.141893
0.0992284
0.276555
0.488863
0.513018
0.0118659
-0.049081
0.264498
0.638169
0.108472
0.312875
0.793444
0.925291
0.0316716
)
;

boundaryField
{
    movingWall
    {
        type            calculated;
        value           nonuniform List<scalar> 
20
(
0.619219
0.122556
0.349287
-0.159461
0.420534
-0.0970057
0.0195059
0.00349367
0.0364187
0.018013
-0.0819483
-0.00456302
0.024378
0.0898392
0.484902
0.109009
0.618226
0.792824
0.14188
0.0108416
)
;
    }
    fixedWalls
    {
        type            calculated;
        value           nonuniform List<scalar> 
60
(
0.0540666
0.835164
0.0992448
0.181182
0.634841
0.0956078
0.0823018
0.593769
0.14026
0.0316927
-0.0073583
0.112037
0.383369
0.036091
0.0313794
0.189291
0.429908
0.119074
0.445663
0.109135
0.760901
6.76037e-05
0.366934
0.00842164
0.655718
0.884907
0.239808
0.445816
0.30902
0.016412
0.876561
0.849366
0.836614
0.840981
-0.74053
0.549175
0.969008
0.795575
0.502155
0.263908
0.646
0.149033
0.280726
0.0943461
0.820883
-0.196722
0.149187
0.126461
0.853606
0.258675
0.307905
0.0294223
0.466031
-0.0186553
0.0557732
0.03618
0.841507
0.128393
0.183548
0.0706644
)
;
    }
    frontAndBack
    {
        type            empty;
    }
}


// ************************************************************************* //
