/*--------------------------------*- C++ -*----------------------------------*\
| =========                 |                                                 |
| \\      /  F ield         | OpenFOAM: The Open Source CFD Toolbox           |
|  \\    /   O peration     | Version:  2312                                  |
|   \\  /    A nd           | Website:  www.openfoam.com                      |
|    \\/     M anipulation  |                                                 |
\*---------------------------------------------------------------------------*/
FoamFile
{
    version     2.0;
    format      ascii;
    arch        "LSB;label=32;scalar=64";
    class       volTensorField;
    location    "9.875";
    object      gradU;
}
// * * * * * * * * * * * * * * * * * * * * * * * * * * * * * * * * * * * * * //

dimensions      [0 0 -1 0 0 0 0];

internalField   nonuniform List<tensor> 
400
(
(-1.24683e-12 1.30621e-11 0 1.0571e-12 1.80187e-11 0 0 0 0)
(1.81604e-12 -1.57682e-11 0 -3.25261e-13 -3.8625e-12 0 0 0 0)
(-5.14996e-13 3.37491e-12 0 0 9.21652e-13 0 0 0 0)
(2.71051e-14 -8.05148e-13 0 -2.71051e-14 -1.94569e-13 0 0 0 0)
(0 1.77062e-13 0 2.71051e-14 3.912e-14 0 0 0 0)
(0 -2.64499e-14 0 -5.42101e-14 -4.27168e-15 0 0 0 0)
(-2.71051e-14 1.73423e-14 0 0 1.85497e-14 0 0 0 0)
(0 4.75521e-15 0 0 2.84992e-14 0 0 0 0)
(-5.42101e-14 -1.0195e-14 0 0 3.71828e-14 0 0 0 0)
(0 -2.46184e-14 0 0 2.06866e-14 0 0 0 0)
(0 -1.56156e-14 0 0 -3.54473e-16 0 0 0 0)
(0 5.06785e-15 0 -5.42101e-14 -6.34135e-15 0 0 0 0)
(-5.42101e-14 1.04965e-14 0 -5.42101e-14 1.49886e-14 0 0 0 0)
(0 3.37012e-15 0 -8.13152e-14 -9.54118e-16 0 0 0 0)
(0 -3.78121e-15 0 -5.42101e-14 -8.79851e-17 0 0 0 0)
(0 -6.1191e-15 0 -5.42101e-14 -1.26728e-14 0 0 0 0)
(5.42101e-14 6.06173e-15 0 0 -3.06395e-15 0 0 0 0)
(-5.42101e-14 1.74545e-15 0 0 8.94117e-15 0 0 0 0)
(5.42101e-14 -5.28425e-15 0 0 -1.19917e-14 0 0 0 0)
(0 2.53637e-15 0 0 -9.37223e-15 0 0 0 0)
(2.00577e-12 1.09417e-12 0 1.24683e-12 -3.20911e-11 0 0 0 0)
(-2.87314e-12 -1.32888e-12 0 -3.79471e-13 6.87177e-12 0 0 0 0)
(7.58942e-13 2.93021e-13 0 -5.42101e-14 -1.62464e-12 0 0 0 0)
(0 -7.7384e-14 0 -2.71051e-14 3.62163e-13 0 0 0 0)
(0 1.32349e-14 0 -8.13152e-14 -5.9274e-14 0 0 0 0)
(0 5.8796e-15 0 -2.71051e-14 1.68497e-14 0 0 0 0)
(5.42101e-14 1.54286e-14 0 -8.13152e-14 -1.10337e-14 0 0 0 0)
(0 1.38779e-14 0 -8.13152e-14 -5.34388e-15 0 0 0 0)
(8.13152e-14 2.38233e-15 0 -8.13152e-14 -1.38347e-14 0 0 0 0)
(-5.42101e-14 -1.29189e-14 0 -5.42101e-14 4.05737e-15 0 0 0 0)
(0 -1.14124e-14 0 -5.42101e-14 9.94705e-15 0 0 0 0)
(-2.71051e-14 1.02753e-14 0 0 1.22731e-14 0 0 0 0)
(0 -5.10928e-15 0 0 8.40306e-16 0 0 0 0)
(2.71051e-14 -1.84467e-14 0 2.71051e-14 -1.08662e-14 0 0 0 0)
(5.42101e-14 -7.93747e-15 0 0 -1.62948e-14 0 0 0 0)
(0 3.14313e-15 0 5.42101e-14 -7.21339e-15 0 0 0 0)
(0 1.55522e-14 0 0 -1.41411e-15 0 0 0 0)
(0 -1.06732e-14 0 0 -8.44081e-15 0 0 0 0)
(0 -1.30292e-14 0 2.71051e-14 -1.18498e-14 0 0 0 0)
(0 1.88275e-14 0 0 3.44971e-16 0 0 0 0)
(-3.52366e-13 -1.21572e-11 0 -5.58364e-12 8.95282e-12 0 0 0 0)
(5.42101e-13 1.46982e-11 0 1.46367e-12 -1.94429e-12 0 0 0 0)
(-1.89735e-13 -3.1347e-12 0 -1.6263e-13 4.41913e-13 0 0 0 0)
(2.71051e-14 7.60215e-13 0 2.71051e-14 -1.00196e-13 0 0 0 0)
(-8.13152e-14 -1.68251e-13 0 2.71051e-14 4.16819e-14 0 0 0 0)
(0 2.17904e-14 0 0 8.71901e-15 0 0 0 0)
(-2.71051e-14 -4.85123e-15 0 2.71051e-14 2.59337e-15 0 0 0 0)
(0 1.95429e-15 0 2.71051e-14 -1.2409e-14 0 0 0 0)
(-5.42101e-14 -7.93706e-16 0 2.71051e-14 -8.94169e-15 0 0 0 0)
(5.42101e-14 -8.36704e-16 0 0 -8.79722e-15 0 0 0 0)
(2.71051e-14 -7.39983e-15 0 5.42101e-14 -1.66471e-15 0 0 0 0)
(0 -4.0389e-15 0 0 -5.3695e-15 0 0 0 0)
(5.42101e-14 -1.26428e-14 0 5.42101e-14 -2.53194e-14 0 0 0 0)
(-5.42101e-14 -1.3765e-14 0 0 -4.29859e-15 0 0 0 0)
(5.42101e-14 -1.28425e-16 0 0 -3.2263e-15 0 0 0 0)
(-5.42101e-14 8.76161e-15 0 -5.42101e-14 2.09225e-15 0 0 0 0)
(5.42101e-14 4.83431e-15 0 -5.42101e-14 -1.21927e-14 0 0 0 0)
(2.71051e-14 -8.69024e-15 0 2.71051e-14 -2.2688e-14 0 0 0 0)
(-2.71051e-14 3.50153e-15 0 -2.71051e-14 -1.65551e-16 0 0 0 0)
(0 1.40412e-14 0 0 9.84414e-15 0 0 0 0)
(-2.19551e-12 8.1027e-12 0 3.90313e-12 1.78393e-11 0 0 0 0)
(2.57498e-12 -9.83979e-12 0 -1.00289e-12 -3.84486e-12 0 0 0 0)
(-6.77626e-13 2.13711e-12 0 1.6263e-13 8.98377e-13 0 0 0 0)
(1.35525e-13 -4.77615e-13 0 0 -2.20587e-13 0 0 0 0)
(5.42101e-14 1.22149e-13 0 5.42101e-14 1.59788e-14 0 0 0 0)
(0 -3.32089e-14 0 8.13152e-14 -2.40815e-14 0 0 0 0)
(2.71051e-14 -5.69935e-15 0 5.42101e-14 -1.85291e-14 0 0 0 0)
(8.13152e-14 2.34284e-15 0 5.42101e-14 -2.86817e-14 0 0 0 0)
(2.71051e-14 5.99406e-15 0 1.0842e-13 -1.00381e-14 0 0 0 0)
(-2.71051e-14 -5.64191e-15 0 1.0842e-13 -4.02675e-15 0 0 0 0)
(-2.71051e-14 -7.98465e-15 0 2.71051e-14 8.13264e-15 0 0 0 0)
(0 -1.33794e-14 0 1.0842e-13 1.52461e-14 0 0 0 0)
(0 -4.03837e-15 0 0 7.72536e-15 0 0 0 0)
(-5.42101e-14 3.64637e-15 0 8.13152e-14 1.18249e-14 0 0 0 0)
(0 -1.54664e-15 0 8.13152e-14 4.45747e-15 0 0 0 0)
(-2.71051e-14 -5.82323e-15 0 0 5.93037e-15 0 0 0 0)
(2.71051e-14 -9.22805e-15 0 5.42101e-14 -6.00199e-15 0 0 0 0)
(0 1.35395e-15 0 0 -6.28426e-15 0 0 0 0)
(5.42101e-14 1.9503e-14 0 -5.42101e-14 2.16238e-15 0 0 0 0)
(0 9.14893e-15 0 0 -1.3629e-15 0 0 0 0)
(2.49366e-12 1.8372e-12 0 4.06576e-13 -2.43282e-11 0 0 0 0)
(-3.2255e-12 -2.24268e-12 0 0 5.28338e-12 0 0 0 0)
(8.67362e-13 4.89572e-13 0 1.0842e-13 -1.23218e-12 0 0 0 0)
(-1.0842e-13 -1.22183e-13 0 1.0842e-13 2.6115e-13 0 0 0 0)
(0 2.82544e-14 0 5.42101e-14 -7.61677e-14 0 0 0 0)
(2.71051e-14 -1.27175e-14 0 1.0842e-13 9.1795e-15 0 0 0 0)
(-2.71051e-14 -9.45136e-15 0 5.42101e-14 4.13991e-15 0 0 0 0)
(-2.71051e-14 1.04453e-14 0 0 1.46663e-14 0 0 0 0)
(2.71051e-14 2.38612e-14 0 -2.71051e-14 9.60517e-16 0 0 0 0)
(0 1.7334e-14 0 -2.71051e-14 2.94527e-15 0 0 0 0)
(0 1.1873e-14 0 -2.71051e-14 6.06689e-15 0 0 0 0)
(0 -4.44618e-15 0 0 3.28482e-15 0 0 0 0)
(0 -1.6064e-14 0 2.71051e-14 5.65028e-15 0 0 0 0)
(0 -1.70329e-14 0 2.71051e-14 2.38908e-15 0 0 0 0)
(0 -6.02296e-15 0 2.71051e-14 4.49702e-16 0 0 0 0)
(0 -1.69785e-15 0 1.0842e-13 3.80326e-15 0 0 0 0)
(0 -7.38033e-15 0 5.42101e-14 9.83923e-15 0 0 0 0)
(-2.71051e-14 -5.25863e-16 0 0 1.95915e-14 0 0 0 0)
(-2.71051e-14 8.42289e-15 0 5.42101e-14 1.6087e-14 0 0 0 0)
(0 1.32417e-14 0 2.71051e-14 -1.66297e-15 0 0 0 0)
(-1.78893e-12 -1.09421e-11 0 -3.46945e-12 1.29452e-11 0 0 0 0)
(2.27682e-12 1.32562e-11 0 9.21572e-13 -2.86471e-12 0 0 0 0)
(-5.42101e-13 -2.88512e-12 0 -1.0842e-13 6.68825e-13 0 0 0 0)
(1.35525e-13 6.78395e-13 0 -2.71051e-14 -1.44026e-13 0 0 0 0)
(0 -1.29822e-13 0 -1.0842e-13 4.2245e-14 0 0 0 0)
(-2.71051e-14 4.70988e-14 0 -1.0842e-13 3.19101e-15 0 0 0 0)
(-2.71051e-14 -2.12543e-16 0 -5.42101e-14 2.09511e-14 0 0 0 0)
(-2.71051e-14 -8.36556e-16 0 0 2.58775e-14 0 0 0 0)
(0 -5.72698e-15 0 -8.13152e-14 9.46535e-15 0 0 0 0)
(0 -5.35535e-16 0 -2.71051e-14 -1.63175e-15 0 0 0 0)
(-5.42101e-14 -7.6451e-15 0 0 -8.87867e-15 0 0 0 0)
(5.42101e-14 -1.37961e-14 0 0 -2.00111e-14 0 0 0 0)
(0 -4.93411e-15 0 2.71051e-14 -1.51775e-14 0 0 0 0)
(2.71051e-14 -1.55421e-15 0 0 -2.48983e-15 0 0 0 0)
(0 -1.32451e-16 0 -2.71051e-14 1.49174e-14 0 0 0 0)
(0 3.56629e-15 0 -2.71051e-14 8.89602e-15 0 0 0 0)
(0 6.56014e-15 0 0 1.13226e-14 0 0 0 0)
(-2.71051e-14 7.60173e-15 0 -2.71051e-14 1.79837e-14 0 0 0 0)
(2.71051e-14 -1.7514e-15 0 0 2.23018e-14 0 0 0 0)
(-2.71051e-14 -5.2751e-15 0 0 1.57593e-14 0 0 0 0)
(2.71051e-14 1.19177e-11 0 4.20128e-12 1.10019e-11 0 0 0 0)
(1.6263e-13 -1.45191e-11 0 -1.24683e-12 -2.37886e-12 0 0 0 0)
(-1.6263e-13 3.21025e-12 0 0 5.75424e-13 0 0 0 0)
(-1.0842e-13 -7.48763e-13 0 -1.0842e-13 -9.56824e-14 0 0 0 0)
(0 1.75472e-13 0 -2.71051e-14 3.53723e-14 0 0 0 0)
(0 -3.40114e-14 0 -8.13152e-14 -1.81639e-14 0 0 0 0)
(2.71051e-14 1.32351e-14 0 -8.13152e-14 -1.79827e-14 0 0 0 0)
(0 -1.0405e-15 0 -5.42101e-14 -2.66571e-14 0 0 0 0)
(5.42101e-14 -3.64805e-15 0 0 -2.26304e-14 0 0 0 0)
(2.71051e-14 -1.00999e-15 0 -5.42101e-14 -1.71179e-14 0 0 0 0)
(2.71051e-14 -6.50628e-15 0 -5.42101e-14 -1.64947e-14 0 0 0 0)
(2.71051e-14 -1.0745e-14 0 -2.71051e-14 -1.17422e-14 0 0 0 0)
(0 1.45723e-15 0 -2.71051e-14 -3.43789e-15 0 0 0 0)
(-2.71051e-14 1.30621e-14 0 -5.42101e-14 -6.60634e-15 0 0 0 0)
(0 5.36289e-15 0 -2.71051e-14 9.59534e-15 0 0 0 0)
(0 -5.29265e-15 0 -2.71051e-14 1.45131e-14 0 0 0 0)
(-2.71051e-14 1.70739e-15 0 -5.42101e-14 6.82883e-15 0 0 0 0)
(-2.71051e-14 1.04533e-14 0 -5.42101e-14 -8.94089e-15 0 0 0 0)
(2.71051e-14 6.19849e-15 0 -5.42101e-14 -2.04791e-15 0 0 0 0)
(-2.71051e-14 -2.48194e-14 0 0 1.43497e-14 0 0 0 0)
(1.19262e-12 -2.31903e-12 0 -1.38236e-12 -2.65422e-11 0 0 0 0)
(-1.95156e-12 2.82972e-12 0 3.52366e-13 5.90036e-12 0 0 0 0)
(6.23416e-13 -6.01948e-13 0 0 -1.38715e-12 0 0 0 0)
(0 1.38343e-13 0 2.71051e-14 3.01743e-13 0 0 0 0)
(5.42101e-14 -5.23031e-14 0 8.13152e-14 -8.45326e-14 0 0 0 0)
(0 -6.25627e-15 0 8.13152e-14 3.12074e-15 0 0 0 0)
(0 -8.70577e-15 0 8.13152e-14 -8.21561e-15 0 0 0 0)
(2.71051e-14 -5.48421e-15 0 8.13152e-14 -7.87029e-15 0 0 0 0)
(-2.71051e-14 3.81224e-15 0 5.42101e-14 -9.5232e-15 0 0 0 0)
(0 5.6002e-15 0 5.42101e-14 -5.9236e-15 0 0 0 0)
(0 -2.26936e-15 0 0 -8.52062e-15 0 0 0 0)
(2.71051e-14 -7.39287e-16 0 -2.71051e-14 1.10441e-17 0 0 0 0)
(-2.71051e-14 2.01729e-16 0 -2.71051e-14 2.78812e-15 0 0 0 0)
(2.71051e-14 1.1479e-14 0 -5.42101e-14 -6.58952e-15 0 0 0 0)
(0 2.0987e-14 0 -5.42101e-14 -6.08522e-15 0 0 0 0)
(0 7.99791e-16 0 0 -6.92141e-15 0 0 0 0)
(-2.71051e-14 -1.68938e-14 0 0 -1.99669e-15 0 0 0 0)
(2.71051e-14 -1.27501e-15 0 0 -6.86031e-15 0 0 0 0)
(5.42101e-14 2.15391e-14 0 0 -1.0653e-14 0 0 0 0)
(0 -1.75769e-14 0 -2.71051e-14 -1.01076e-14 0 0 0 0)
(-1.02999e-12 -8.72419e-12 0 -2.27682e-12 2.12272e-11 0 0 0 0)
(1.51788e-12 1.0636e-11 0 7.04731e-13 -4.70006e-12 0 0 0 0)
(-4.60786e-13 -2.38836e-12 0 0 1.06646e-12 0 0 0 0)
(0 5.53852e-13 0 5.42101e-14 -2.76174e-13 0 0 0 0)
(2.71051e-14 -1.23151e-13 0 0 3.82981e-14 0 0 0 0)
(0 4.23056e-14 0 2.71051e-14 -1.59055e-14 0 0 0 0)
(2.71051e-14 2.2441e-15 0 0 3.153e-15 0 0 0 0)
(0 -2.34809e-15 0 0 1.05939e-14 0 0 0 0)
(-2.71051e-14 -1.70136e-15 0 0 1.39254e-14 0 0 0 0)
(0 -7.41369e-18 0 0 6.07533e-15 0 0 0 0)
(0 -5.71636e-16 0 5.42101e-14 8.72806e-15 0 0 0 0)
(0 5.637e-16 0 0 1.75391e-14 0 0 0 0)
(-2.71051e-14 -5.14334e-15 0 0 8.41086e-15 0 0 0 0)
(-2.71051e-14 4.18875e-15 0 5.42101e-14 5.77418e-15 0 0 0 0)
(0 5.03101e-15 0 0 -8.15855e-15 0 0 0 0)
(2.71051e-14 -1.20412e-15 0 0 -1.68595e-14 0 0 0 0)
(2.71051e-14 1.76849e-15 0 2.71051e-14 -2.80345e-15 0 0 0 0)
(-5.42101e-14 1.79691e-15 0 5.42101e-14 1.5775e-14 0 0 0 0)
(0 2.95121e-15 0 0 -2.65156e-15 0 0 0 0)
(0 -4.05876e-15 0 2.71051e-14 -2.12499e-14 0 0 0 0)
(-4.06576e-13 1.42081e-11 0 2.1413e-12 -4.91026e-12 0 0 0 0)
(3.52366e-13 -1.7331e-11 0 -7.04731e-13 9.42084e-13 0 0 0 0)
(-2.71051e-14 3.82194e-12 0 0 -2.21337e-13 0 0 0 0)
(2.71051e-14 -8.89823e-13 0 5.42101e-14 5.01142e-14 0 0 0 0)
(0 2.07965e-13 0 0 1.22872e-15 0 0 0 0)
(-2.71051e-14 -4.14014e-14 0 -2.71051e-14 5.67132e-16 0 0 0 0)
(0 1.77936e-14 0 -5.42101e-14 -1.67934e-14 0 0 0 0)
(2.71051e-14 5.28822e-15 0 -2.71051e-14 -1.44819e-14 0 0 0 0)
(-2.71051e-14 -7.06299e-16 0 2.71051e-14 -6.17655e-15 0 0 0 0)
(0 4.02823e-16 0 -5.42101e-14 -1.31833e-14 0 0 0 0)
(2.71051e-14 9.19439e-15 0 0 -7.53988e-15 0 0 0 0)
(5.42101e-14 -1.05649e-15 0 2.71051e-14 -1.03153e-14 0 0 0 0)
(-5.42101e-14 -1.15632e-14 0 5.42101e-14 -5.93796e-15 0 0 0 0)
(0 -5.0904e-15 0 5.42101e-14 1.09806e-14 0 0 0 0)
(5.42101e-14 -1.64677e-15 0 8.13152e-14 5.53501e-15 0 0 0 0)
(-5.42101e-14 6.15489e-15 0 5.42101e-14 1.63682e-14 0 0 0 0)
(0 1.57407e-14 0 -8.13152e-14 9.79746e-15 0 0 0 0)
(0 -1.12311e-15 0 0 -3.17857e-15 0 0 0 0)
(5.42101e-14 -1.54858e-14 0 5.42101e-14 -1.74526e-14 0 0 0 0)
(0 6.32464e-15 0 0 -4.52157e-15 0 0 0 0)
(4.87891e-13 -1.26924e-11 0 1.38236e-12 -1.04087e-11 0 0 0 0)
(-6.23416e-13 1.5325e-11 0 0 2.37707e-12 0 0 0 0)
(2.1684e-13 -3.28033e-12 0 2.98156e-13 -5.3299e-13 0 0 0 0)
(0 7.76418e-13 0 0 1.37415e-13 0 0 0 0)
(-2.71051e-14 -1.72698e-13 0 1.0842e-13 -2.16829e-14 0 0 0 0)
(0 2.42835e-14 0 8.13152e-14 1.17693e-14 0 0 0 0)
(-2.71051e-14 -1.2805e-14 0 1.0842e-13 4.81075e-15 0 0 0 0)
(2.71051e-14 8.2688e-15 0 5.42101e-14 1.49611e-14 0 0 0 0)
(0 -4.02674e-16 0 2.71051e-14 1.50681e-14 0 0 0 0)
(0 -1.37075e-15 0 5.42101e-14 6.84629e-15 0 0 0 0)
(2.71051e-14 2.29629e-15 0 0 -1.04879e-14 0 0 0 0)
(2.71051e-14 2.16562e-15 0 -2.71051e-14 -2.51824e-14 0 0 0 0)
(0 1.61526e-14 0 -2.71051e-14 -8.17863e-15 0 0 0 0)
(-2.71051e-14 1.56617e-14 0 -2.71051e-14 1.84041e-14 0 0 0 0)
(-2.71051e-14 1.04186e-14 0 -2.71051e-14 1.44905e-14 0 0 0 0)
(-2.71051e-14 3.05833e-15 0 0 1.55287e-14 0 0 0 0)
(-2.71051e-14 -1.77783e-14 0 5.42101e-14 4.35718e-15 0 0 0 0)
(0 -2.54532e-14 0 5.42101e-14 -1.10054e-14 0 0 0 0)
(2.71051e-14 1.60822e-15 0 2.71051e-14 -6.58992e-16 0 0 0 0)
(-2.71051e-14 1.79154e-14 0 0 1.4445e-14 0 0 0 0)
(9.75782e-13 6.17644e-12 0 -1.51788e-12 1.97121e-11 0 0 0 0)
(-7.58942e-13 -7.45527e-12 0 1.35525e-13 -4.18734e-12 0 0 0 0)
(2.71051e-14 1.58229e-12 0 -2.43945e-13 9.87507e-13 0 0 0 0)
(-1.6263e-13 -3.78517e-13 0 -2.71051e-14 -2.10021e-13 0 0 0 0)
(5.42101e-14 8.23194e-14 0 -8.13152e-14 4.31338e-14 0 0 0 0)
(-2.71051e-14 -1.49078e-14 0 -5.42101e-14 -5.99591e-15 0 0 0 0)
(-2.71051e-14 2.09854e-14 0 -5.42101e-14 1.29179e-14 0 0 0 0)
(-2.71051e-14 1.55456e-14 0 -1.0842e-13 1.76698e-14 0 0 0 0)
(-1.0842e-13 -8.82107e-15 0 -1.0842e-13 1.81981e-14 0 0 0 0)
(-2.71051e-14 -2.51532e-14 0 -5.42101e-14 1.86679e-14 0 0 0 0)
(0 -2.28343e-14 0 -5.42101e-14 4.26904e-15 0 0 0 0)
(2.71051e-14 1.25277e-15 0 0 4.22161e-15 0 0 0 0)
(-2.71051e-14 3.20233e-14 0 -2.71051e-14 4.15056e-15 0 0 0 0)
(0 1.75787e-14 0 -1.0842e-13 -6.14034e-15 0 0 0 0)
(2.71051e-14 -4.52215e-15 0 0 -4.61495e-15 0 0 0 0)
(5.42101e-14 -3.97846e-15 0 -1.0842e-13 -2.16e-14 0 0 0 0)
(5.42101e-14 -1.07933e-14 0 0 -1.77445e-14 0 0 0 0)
(0 -6.13928e-15 0 -5.42101e-14 5.85977e-16 0 0 0 0)
(-2.71051e-14 9.96454e-15 0 0 1.99365e-14 0 0 0 0)
(-2.71051e-14 -7.46136e-15 0 -2.71051e-14 4.62433e-15 0 0 0 0)
(-8.94467e-13 2.83236e-12 0 -5.14996e-13 -2.10779e-11 0 0 0 0)
(5.96311e-13 -3.3996e-12 0 8.13152e-14 4.52176e-12 0 0 0 0)
(8.13152e-14 6.96989e-13 0 -8.13152e-14 -1.04909e-12 0 0 0 0)
(1.6263e-13 -1.67956e-13 0 0 2.57408e-13 0 0 0 0)
(-2.71051e-14 3.13274e-14 0 -2.71051e-14 -3.71218e-14 0 0 0 0)
(0 -5.93243e-15 0 -2.71051e-14 2.33354e-14 0 0 0 0)
(-5.42101e-14 1.08607e-14 0 0 1.94199e-15 0 0 0 0)
(0 1.3549e-14 0 0 -1.87134e-14 0 0 0 0)
(8.13152e-14 5.95466e-16 0 0 -2.49928e-14 0 0 0 0)
(5.42101e-14 -1.52998e-14 0 8.13152e-14 -1.59838e-14 0 0 0 0)
(2.71051e-14 -1.215e-14 0 5.42101e-14 4.93723e-16 0 0 0 0)
(0 2.04714e-15 0 2.71051e-14 2.10243e-14 0 0 0 0)
(-8.13152e-14 5.79061e-15 0 2.71051e-14 1.70015e-14 0 0 0 0)
(5.42101e-14 6.8962e-15 0 2.71051e-14 -1.1161e-14 0 0 0 0)
(-5.42101e-14 -5.04102e-15 0 0 -6.05688e-15 0 0 0 0)
(0 -1.00712e-14 0 0 -1.62074e-14 0 0 0 0)
(0 4.40771e-15 0 0 -1.60645e-14 0 0 0 0)
(0 1.22279e-14 0 -5.42101e-14 -5.86867e-15 0 0 0 0)
(0 5.64657e-15 0 -2.71051e-14 -7.20265e-15 0 0 0 0)
(5.42101e-14 -6.64546e-15 0 0 -1.6939e-14 0 0 0 0)
(5.42101e-13 -1.03797e-11 0 -3.79471e-13 1.30931e-11 0 0 0 0)
(-2.71051e-13 1.25735e-11 0 3.25261e-13 -2.89593e-12 0 0 0 0)
(-8.13152e-14 -2.68207e-12 0 1.35525e-13 6.91812e-13 0 0 0 0)
(-1.0842e-13 6.33453e-13 0 -2.71051e-14 -1.38338e-13 0 0 0 0)
(0 -1.51753e-13 0 5.42101e-14 4.51033e-14 0 0 0 0)
(0 2.41561e-14 0 5.42101e-14 -3.38985e-15 0 0 0 0)
(-2.71051e-14 -2.10634e-14 0 2.71051e-14 7.46991e-15 0 0 0 0)
(0 -1.13892e-14 0 5.42101e-14 -1.18738e-14 0 0 0 0)
(-2.71051e-14 -6.09151e-15 0 1.0842e-13 -1.6428e-14 0 0 0 0)
(0 3.33362e-16 0 2.71051e-14 -9.6369e-15 0 0 0 0)
(-2.71051e-14 1.41739e-14 0 5.42101e-14 6.72394e-15 0 0 0 0)
(0 1.77606e-14 0 2.71051e-14 1.37314e-14 0 0 0 0)
(0 -1.62038e-16 0 2.71051e-14 2.33904e-14 0 0 0 0)
(-5.42101e-14 -5.47966e-15 0 8.13152e-14 2.2874e-14 0 0 0 0)
(5.42101e-14 -9.56846e-15 0 0 6.06532e-15 0 0 0 0)
(2.71051e-14 -1.39861e-14 0 5.42101e-14 4.54841e-15 0 0 0 0)
(0 -4.54661e-16 0 0 6.78861e-15 0 0 0 0)
(-2.71051e-14 2.72258e-15 0 5.42101e-14 1.31021e-15 0 0 0 0)
(2.71051e-14 -1.10578e-15 0 0 -1.47479e-14 0 0 0 0)
(-2.71051e-14 1.66803e-14 0 2.71051e-14 -1.14842e-14 0 0 0 0)
(-9.75782e-13 1.30295e-11 0 1.81604e-12 3.89974e-12 0 0 0 0)
(1.13841e-12 -1.58009e-11 0 -7.86047e-13 -7.75026e-13 0 0 0 0)
(-2.98156e-13 3.45458e-12 0 -1.89735e-13 1.77316e-13 0 0 0 0)
(8.13152e-14 -8.14664e-13 0 -8.13152e-14 -5.39002e-14 0 0 0 0)
(0 1.66276e-13 0 -1.0842e-13 4.79084e-15 0 0 0 0)
(5.42101e-14 -4.35658e-14 0 -1.0842e-13 -1.57792e-14 0 0 0 0)
(-5.42101e-14 2.37679e-15 0 -1.0842e-13 -2.17283e-14 0 0 0 0)
(5.42101e-14 -1.03489e-14 0 -8.13152e-14 -2.52256e-14 0 0 0 0)
(5.42101e-14 2.83234e-15 0 -5.42101e-14 -1.5171e-14 0 0 0 0)
(2.71051e-14 7.85216e-15 0 -2.71051e-14 1.42618e-15 0 0 0 0)
(0 1.12182e-14 0 -5.42101e-14 7.52023e-15 0 0 0 0)
(0 1.87136e-14 0 -2.71051e-14 3.1485e-15 0 0 0 0)
(0 1.49333e-14 0 -5.42101e-14 9.14773e-15 0 0 0 0)
(-2.71051e-14 -1.04289e-14 0 -2.71051e-14 1.16599e-14 0 0 0 0)
(-2.71051e-14 -2.33667e-14 0 0 4.7361e-15 0 0 0 0)
(-2.71051e-14 -9.34792e-15 0 0 1.07122e-14 0 0 0 0)
(-5.42101e-14 1.16951e-15 0 -5.42101e-14 1.33364e-14 0 0 0 0)
(5.42101e-14 -9.30867e-15 0 0 -6.75177e-16 0 0 0 0)
(0 -7.14781e-15 0 2.71051e-14 -4.08754e-15 0 0 0 0)
(0 1.95866e-14 0 -2.71051e-14 2.28024e-15 0 0 0 0)
(1.54499e-12 -7.25498e-12 0 -2.08709e-12 -2.18615e-11 0 0 0 0)
(-2.24972e-12 8.85111e-12 0 5.69206e-13 4.72539e-12 0 0 0 0)
(6.23416e-13 -1.96094e-12 0 -5.42101e-14 -1.13218e-12 0 0 0 0)
(0 4.60928e-13 0 0 2.19374e-13 0 0 0 0)
(0 -1.13632e-13 0 0 -6.64638e-14 0 0 0 0)
(0 -2.3631e-15 0 5.42101e-14 7.54425e-15 0 0 0 0)
(0 -3.05099e-14 0 2.71051e-14 -2.23569e-14 0 0 0 0)
(0 -4.83195e-15 0 8.13152e-14 -1.27783e-14 0 0 0 0)
(2.71051e-14 2.05603e-14 0 0 -9.8527e-15 0 0 0 0)
(0 2.30246e-14 0 -2.71051e-14 -2.9182e-15 0 0 0 0)
(0 1.58962e-14 0 0 -8.37249e-15 0 0 0 0)
(0 1.93881e-14 0 -2.71051e-14 4.25425e-16 0 0 0 0)
(-2.71051e-14 8.34941e-15 0 -5.42101e-14 -1.88502e-16 0 0 0 0)
(0 -9.8913e-15 0 -5.42101e-14 -1.30364e-14 0 0 0 0)
(8.13152e-14 -1.05162e-14 0 0 -1.72809e-15 0 0 0 0)
(0 -5.3858e-15 0 5.42101e-14 1.01335e-14 0 0 0 0)
(0 -1.18421e-14 0 5.42101e-14 -2.75633e-15 0 0 0 0)
(2.71051e-14 -1.47013e-14 0 0 -4.93559e-15 0 0 0 0)
(0 1.84963e-15 0 2.71051e-14 1.14852e-14 0 0 0 0)
(-2.71051e-14 1.84876e-14 0 5.42101e-14 9.11436e-15 0 0 0 0)
(-2.49366e-12 -4.10659e-12 0 -2.62919e-12 2.42726e-11 0 0 0 0)
(3.1984e-12 4.92844e-12 0 7.86047e-13 -5.35177e-12 0 0 0 0)
(-8.40257e-13 -1.05144e-12 0 0 1.23729e-12 0 0 0 0)
(1.35525e-13 2.51055e-13 0 1.0842e-13 -3.07595e-13 0 0 0 0)
(0 -4.55539e-14 0 0 3.39805e-14 0 0 0 0)
(2.71051e-14 5.41088e-16 0 0 -1.83084e-14 0 0 0 0)
(0 -1.79458e-14 0 5.42101e-14 1.05554e-14 0 0 0 0)
(2.71051e-14 2.15533e-15 0 -5.42101e-14 1.80335e-14 0 0 0 0)
(0 1.26925e-14 0 -5.42101e-14 1.02975e-14 0 0 0 0)
(0 9.33237e-15 0 0 -1.98489e-15 0 0 0 0)
(0 1.45618e-14 0 -5.42101e-14 -5.49188e-16 0 0 0 0)
(-2.71051e-14 2.68976e-14 0 -8.13152e-14 2.06194e-15 0 0 0 0)
(2.71051e-14 1.47148e-15 0 0 -4.38128e-15 0 0 0 0)
(0 -1.19685e-14 0 5.42101e-14 -6.3899e-15 0 0 0 0)
(0 -1.96766e-16 0 0 1.91859e-15 0 0 0 0)
(-2.71051e-14 -1.03762e-14 0 0 3.06648e-15 0 0 0 0)
(-2.71051e-14 -1.38996e-14 0 0 -2.29921e-15 0 0 0 0)
(5.42101e-14 4.9329e-15 0 0 6.16809e-15 0 0 0 0)
(0 6.90215e-15 0 -2.71051e-14 1.36159e-14 0 0 0 0)
(-5.42101e-14 -1.01296e-15 0 0 9.44366e-15 0 0 0 0)
(-2.71051e-13 1.16659e-11 0 7.10152e-12 3.6492e-13 0 0 0 0)
(3.25261e-13 -1.41842e-11 0 -1.81604e-12 -7.74806e-14 0 0 0 0)
(-1.0842e-13 3.08324e-12 0 2.43945e-13 2.85784e-14 0 0 0 0)
(5.42101e-14 -7.42384e-13 0 -8.13152e-14 4.08884e-15 0 0 0 0)
(-5.42101e-14 1.75654e-13 0 -2.71051e-14 8.93107e-15 0 0 0 0)
(0 -2.57882e-14 0 -5.42101e-14 1.1103e-14 0 0 0 0)
(-2.71051e-14 5.8321e-15 0 -8.13152e-14 2.24831e-14 0 0 0 0)
(-5.42101e-14 -5.08986e-15 0 -2.71051e-14 1.80025e-14 0 0 0 0)
(0 5.41842e-16 0 -8.13152e-14 3.13467e-15 0 0 0 0)
(5.42101e-14 1.2178e-14 0 -8.13152e-14 -1.472e-14 0 0 0 0)
(-5.42101e-14 1.9943e-14 0 -2.71051e-14 4.5508e-15 0 0 0 0)
(0 1.5556e-14 0 -5.42101e-14 -6.92009e-15 0 0 0 0)
(5.42101e-14 -1.02431e-16 0 -8.13152e-14 -2.23714e-14 0 0 0 0)
(0 -3.59144e-15 0 -8.13152e-14 -1.31536e-14 0 0 0 0)
(2.71051e-14 -1.05979e-15 0 -5.42101e-14 -1.94859e-14 0 0 0 0)
(5.42101e-14 -9.6036e-15 0 -5.42101e-14 -1.90008e-14 0 0 0 0)
(0 -8.74048e-15 0 0 3.1144e-16 0 0 0 0)
(0 1.21375e-15 0 0 2.81822e-15 0 0 0 0)
(2.71051e-14 5.12521e-15 0 -8.13152e-14 -8.76496e-15 0 0 0 0)
(-2.71051e-14 -4.57195e-15 0 -2.71051e-14 7.41957e-16 0 0 0 0)
(2.79182e-12 -3.81915e-12 0 -1.13841e-12 -2.6175e-11 0 0 0 0)
(-3.68629e-12 4.5921e-12 0 4.06576e-13 5.67909e-12 0 0 0 0)
(9.21572e-13 -9.69866e-13 0 1.0842e-13 -1.33636e-12 0 0 0 0)
(-1.0842e-13 2.31408e-13 0 1.0842e-13 3.1199e-13 0 0 0 0)
(0 -3.85398e-14 0 1.35525e-13 -5.00344e-14 0 0 0 0)
(0 1.40931e-14 0 8.13152e-14 1.8728e-14 0 0 0 0)
(0 -1.10463e-14 0 1.0842e-13 1.67495e-15 0 0 0 0)
(0 -1.71931e-14 0 1.35525e-13 9.35138e-15 0 0 0 0)
(0 -2.003e-14 0 1.89735e-13 7.10713e-15 0 0 0 0)
(0 1.07485e-14 0 1.0842e-13 -1.79982e-16 0 0 0 0)
(0 2.23617e-14 0 8.13152e-14 -2.85787e-16 0 0 0 0)
(0 -2.45719e-17 0 1.35525e-13 -7.23168e-15 0 0 0 0)
(0 -4.76207e-15 0 8.13152e-14 -1.51985e-14 0 0 0 0)
(2.71051e-14 -9.08301e-15 0 8.13152e-14 -1.02033e-14 0 0 0 0)
(5.42101e-14 -6.04389e-15 0 8.13152e-14 -1.92364e-14 0 0 0 0)
(0 9.42118e-15 0 -5.42101e-14 -1.68815e-14 0 0 0 0)
(0 7.91942e-15 0 0 -7.16059e-15 0 0 0 0)
(-5.42101e-14 -4.14351e-15 0 0 8.80111e-16 0 0 0 0)
(5.42101e-14 4.82588e-15 0 5.42101e-14 -4.49358e-15 0 0 0 0)
(0 7.01005e-15 0 -2.71051e-14 -3.31538e-15 0 0 0 0)
(-1.02999e-12 -8.82999e-12 0 -2.27682e-12 1.60672e-11 0 0 0 0)
(1.5992e-12 1.06544e-11 0 4.87891e-13 -3.41809e-12 0 0 0 0)
(-4.06576e-13 -2.28387e-12 0 -1.6263e-13 8.20765e-13 0 0 0 0)
(2.71051e-14 5.43944e-13 0 -5.42101e-14 -1.64358e-13 0 0 0 0)
(-5.42101e-14 -1.17608e-13 0 -5.42101e-14 4.5413e-14 0 0 0 0)
(0 2.59211e-14 0 -2.71051e-14 -8.21094e-15 0 0 0 0)
(0 -3.54448e-15 0 -2.71051e-14 5.39874e-15 0 0 0 0)
(2.71051e-14 3.42317e-16 0 -5.42101e-14 6.3798e-15 0 0 0 0)
(-2.71051e-14 -8.98952e-15 0 -5.42101e-14 2.22495e-14 0 0 0 0)
(-5.42101e-14 4.78506e-15 0 -2.71051e-14 3.53993e-14 0 0 0 0)
(-2.71051e-14 1.28913e-14 0 0 6.71596e-15 0 0 0 0)
(0 6.43264e-16 0 0 1.46246e-16 0 0 0 0)
(0 -3.07407e-15 0 5.42101e-14 6.09727e-15 0 0 0 0)
(0 -7.62929e-15 0 0 7.98239e-15 0 0 0 0)
(-5.42101e-14 -7.73794e-15 0 -2.71051e-14 2.28096e-14 0 0 0 0)
(0 2.47217e-15 0 5.42101e-14 2.17642e-14 0 0 0 0)
(0 9.0211e-15 0 0 1.09162e-14 0 0 0 0)
(2.71051e-14 3.88077e-15 0 0 4.82369e-15 0 0 0 0)
(-2.71051e-14 9.29716e-16 0 0 1.1179e-14 0 0 0 0)
(0 3.23701e-15 0 0 -9.31904e-16 0 0 0 0)
)
;

boundaryField
{
    movingWall
    {
        type            extrapolatedCalculated;
        value           nonuniform List<tensor> 
20
(
(-1.02999e-12 -8.82999e-12 0 6.12843e-12 4.49273e-11 0 0 0 0)
(1.5992e-12 1.06544e-11 0 -2.04281e-12 -9.60738e-12 0 0 0 0)
(-4.06576e-13 -2.28387e-12 0 -2.66454e-13 2.30985e-12 0 0 0 0)
(2.71051e-14 5.43944e-13 0 -3.9968e-13 -4.71914e-13 0 0 0 0)
(-5.42101e-14 -1.17608e-13 0 -3.10862e-13 1.34077e-13 0 0 0 0)
(0 2.59211e-14 0 -2.66454e-13 -1.48288e-15 0 0 0 0)
(0 -3.54448e-15 0 -2.66454e-13 3.03926e-14 0 0 0 0)
(2.71051e-14 3.42317e-16 0 -3.10862e-13 1.2695e-14 0 0 0 0)
(-2.71051e-14 -8.98952e-15 0 -3.10862e-13 2.90234e-14 0 0 0 0)
(-5.42101e-14 4.78506e-15 0 -2.66454e-13 4.86531e-14 0 0 0 0)
(-2.71051e-14 1.28913e-14 0 -8.88178e-14 9.88313e-15 0 0 0 0)
(0 6.43264e-16 0 -1.33227e-13 -2.91221e-15 0 0 0 0)
(0 -3.07407e-15 0 -1.33227e-13 7.31007e-15 0 0 0 0)
(0 -7.62929e-15 0 -8.88178e-14 9.38405e-15 0 0 0 0)
(-5.42101e-14 -7.73794e-15 0 -4.44089e-14 3.78272e-14 0 0 0 0)
(0 2.47217e-15 0 8.88178e-14 4.03358e-14 0 0 0 0)
(0 9.0211e-15 0 0 2.79386e-14 0 0 0 0)
(2.71051e-14 3.88077e-15 0 0 4.25141e-15 0 0 0 0)
(-2.71051e-14 9.29716e-16 0 -4.44089e-14 1.24155e-14 0 0 0 0)
(0 3.23701e-15 0 0 5.32545e-16 0 0 0 0)
)
;
    }
    fixedWalls
    {
        type            extrapolatedCalculated;
        value           nonuniform List<tensor> 
60
(
(-7.19425e-12 6.64604e-11 0 1.0571e-12 1.80187e-11 0 0 0 0)
(1.13687e-11 5.6145e-12 0 1.24683e-12 -3.20911e-11 0 0 0 0)
(-2.13163e-12 -6.19039e-11 0 -5.58364e-12 8.95282e-12 0 0 0 0)
(-1.09246e-11 4.14258e-11 0 3.90313e-12 1.78393e-11 0 0 0 0)
(1.34115e-11 9.45331e-12 0 4.06576e-13 -2.43282e-11 0 0 0 0)
(-9.32587e-12 -5.58868e-11 0 -3.46945e-12 1.29452e-11 0 0 0 0)
(-4.44089e-13 6.12341e-11 0 4.20128e-12 1.10019e-11 0 0 0 0)
(7.4607e-12 -1.18793e-11 0 -1.38236e-12 -2.65422e-11 0 0 0 0)
(-5.9508e-12 -4.49349e-11 0 -2.27682e-12 2.12272e-11 0 0 0 0)
(-1.68754e-12 7.30294e-11 0 2.1413e-12 -4.91026e-12 0 0 0 0)
(2.66454e-12 -6.45759e-11 0 1.38236e-12 -1.04087e-11 0 0 0 0)
(3.81917e-12 3.13946e-11 0 -1.51788e-12 1.97121e-11 0 0 0 0)
(-3.37508e-12 1.42724e-11 0 -5.14996e-13 -2.10779e-11 0 0 0 0)
(1.68754e-12 -5.2917e-11 0 -3.79471e-13 1.30931e-11 0 0 0 0)
(-4.88498e-12 6.66448e-11 0 1.81604e-12 3.89974e-12 0 0 0 0)
(9.01501e-12 -3.7318e-11 0 -2.08709e-12 -2.18615e-11 0 0 0 0)
(-1.32339e-11 -2.08013e-11 0 -2.62919e-12 2.42726e-11 0 0 0 0)
(-1.5099e-12 5.97725e-11 0 7.10152e-12 3.6492e-13 0 0 0 0)
(1.52323e-11 -1.93416e-11 0 -1.13841e-12 -2.6175e-11 0 0 0 0)
(-6.12843e-12 -4.49273e-11 0 -2.27682e-12 1.60672e-11 0 0 0 0)
(-4.44089e-14 8.17478e-15 0 0 -9.37223e-15 0 0 0 0)
(0 2.93141e-14 0 0 3.44971e-16 0 0 0 0)
(0 6.79489e-15 0 0 9.84414e-15 0 0 0 0)
(0 -1.00624e-14 0 0 -1.3629e-15 0 0 0 0)
(-4.44089e-14 1.22465e-14 0 2.71051e-14 -1.66297e-15 0 0 0 0)
(-4.44089e-14 -3.41051e-15 0 0 1.57593e-14 0 0 0 0)
(-4.44089e-14 -5.07908e-14 0 0 1.43497e-14 0 0 0 0)
(0 -6.08091e-14 0 -2.71051e-14 -1.01076e-14 0 0 0 0)
(-4.44089e-14 -1.03605e-14 0 2.71051e-14 -2.12499e-14 0 0 0 0)
(0 2.41906e-14 0 0 -4.52157e-15 0 0 0 0)
(-8.88178e-14 7.72578e-15 0 0 1.4445e-14 0 0 0 0)
(-4.44089e-14 -3.35894e-14 0 -2.71051e-14 4.62433e-15 0 0 0 0)
(8.88178e-14 -1.07715e-14 0 0 -1.6939e-14 0 0 0 0)
(-4.44089e-14 3.41666e-14 0 2.71051e-14 -1.14842e-14 0 0 0 0)
(0 3.51651e-14 0 -2.71051e-14 2.28024e-15 0 0 0 0)
(-4.44089e-14 2.50457e-14 0 5.42101e-14 9.11436e-15 0 0 0 0)
(-8.88178e-14 -1.29233e-15 0 0 9.44366e-15 0 0 0 0)
(-8.88178e-14 -1.2729e-14 0 -2.71051e-14 7.41957e-16 0 0 0 0)
(-4.44089e-14 -4.26016e-15 0 -2.71051e-14 -3.31538e-15 0 0 0 0)
(0 5.32545e-16 0 0 -9.31904e-16 0 0 0 0)
(-1.24683e-12 1.30621e-11 0 -7.19425e-12 6.64604e-11 0 0 0 0)
(1.81604e-12 -1.57682e-11 0 2.26485e-12 -1.42121e-11 0 0 0 0)
(-5.14996e-13 3.37491e-12 0 4.44089e-14 3.38761e-12 0 0 0 0)
(2.71051e-14 -8.05148e-13 0 1.77636e-13 -7.12521e-13 0 0 0 0)
(0 1.77062e-13 0 2.22045e-13 1.67024e-13 0 0 0 0)
(0 -2.64499e-14 0 1.33227e-13 -4.27299e-15 0 0 0 0)
(-2.71051e-14 1.73423e-14 0 1.77636e-13 6.12248e-14 0 0 0 0)
(0 4.75521e-15 0 1.33227e-13 6.50963e-14 0 0 0 0)
(-5.42101e-14 -1.0195e-14 0 0 8.02456e-14 0 0 0 0)
(0 -2.46184e-14 0 0 2.43164e-14 0 0 0 0)
(0 -1.56156e-14 0 0 -1.8228e-14 0 0 0 0)
(0 5.06785e-15 0 -8.88178e-14 -3.81459e-14 0 0 0 0)
(-5.42101e-14 1.04965e-14 0 4.44089e-14 2.04338e-15 0 0 0 0)
(0 3.37012e-15 0 -1.77636e-13 3.84012e-15 0 0 0 0)
(0 -3.78121e-15 0 -8.88178e-14 1.55239e-14 0 0 0 0)
(0 -6.1191e-15 0 -1.77636e-13 -1.12847e-14 0 0 0 0)
(5.42101e-14 6.06173e-15 0 0 -8.95251e-15 0 0 0 0)
(-5.42101e-14 1.74545e-15 0 -8.88178e-14 1.29622e-14 0 0 0 0)
(5.42101e-14 -5.28425e-15 0 -8.88178e-14 -1.97072e-15 0 0 0 0)
(0 2.53637e-15 0 4.44089e-14 -8.17478e-15 0 0 0 0)
)
;
    }
    frontAndBack
    {
        type            empty;
    }
}


// ************************************************************************* //
