/*--------------------------------*- C++ -*----------------------------------*\
| =========                 |                                                 |
| \\      /  F ield         | OpenFOAM: The Open Source CFD Toolbox           |
|  \\    /   O peration     | Version:  2312                                  |
|   \\  /    A nd           | Website:  www.openfoam.com                      |
|    \\/     M anipulation  |                                                 |
\*---------------------------------------------------------------------------*/
FoamFile
{
    version     2.0;
    format      ascii;
    arch        "LSB;label=32;scalar=64";
    class       volVectorField;
    location    "9.875";
    object      LambVectorField;
}
// * * * * * * * * * * * * * * * * * * * * * * * * * * * * * * * * * * * * * //

dimensions      [0 1 -2 0 0 0 0];

internalField   nonuniform List<vector> 
400
(
(-1.99464e-24 -1.2005e-11 -1.2005e-11)
(-5.48693e-25 1.54429e-11 -0)
(-2.85822e-26 -3.37491e-12 -3.37491e-12)
(-1.38593e-27 7.78043e-13 -0)
(-6.26162e-29 -1.49957e-13 -1.49957e-13)
(2.96548e-31 -2.77602e-14 -0)
(-2.65445e-30 -1.73423e-14 -1.73423e-14)
(-7.73866e-31 -4.75521e-15 0)
(2.04525e-30 1.0195e-14 1.0195e-14)
(1.49658e-30 2.46184e-14 0)
(-7.11603e-31 1.56156e-14 1.56156e-14)
(5.65303e-30 -5.9278e-14 -0)
(-3.30551e-31 -6.47066e-14 -6.47066e-14)
(-8.13003e-31 -8.46853e-14 0)
(-1.95713e-30 -5.04289e-14 -5.04289e-14)
(1.35673e-30 -4.8091e-14 -0)
(1.35669e-31 -6.06173e-15 -6.06173e-15)
(-5.65621e-32 -1.74545e-15 0)
(-2.60344e-32 5.28425e-15 5.28425e-15)
(5.18357e-32 -2.53637e-15 -0)
(2.14286e-27 1.52666e-13 1.52666e-13)
(-2.93803e-27 9.49407e-13 -0)
(-2.59548e-28 -3.47232e-13 -3.47232e-13)
(-8.26499e-30 5.02789e-14 -0)
(2.49241e-30 -9.455e-14 -9.455e-14)
(1.05664e-30 -3.29847e-14 -0)
(-3.13791e-30 -9.67438e-14 -9.67438e-14)
(-1.16375e-29 -9.51931e-14 0)
(-1.43302e-29 -8.36975e-14 -8.36975e-14)
(-6.03162e-30 -4.12912e-14 0)
(-1.79859e-30 -4.27977e-14 -4.27977e-14)
(-3.28308e-31 -1.02753e-14 0)
(7.39711e-31 5.10928e-15 5.10928e-15)
(-8.71929e-31 4.55518e-14 -0)
(-3.15035e-31 7.93747e-15 7.93747e-15)
(-5.03093e-30 5.1067e-14 -0)
(1.28434e-31 -1.55522e-14 -1.55522e-14)
(6.08436e-31 1.06732e-14 0)
(-4.61503e-30 4.01342e-14 4.01342e-14)
(1.37978e-30 -1.88275e-14 -0)
(-1.01733e-24 6.5736e-12 6.5736e-12)
(-4.3922e-25 -1.32346e-11 0)
(-2.31148e-26 2.97207e-12 2.97207e-12)
(-1.34916e-27 -7.3311e-13 0)
(-3.42223e-29 1.95356e-13 1.95356e-13)
(-3.43883e-30 -2.17904e-14 0)
(1.36532e-30 3.19563e-14 3.19563e-14)
(2.74902e-30 2.51508e-14 0)
(1.73719e-30 2.78988e-14 2.78988e-14)
(8.48123e-32 8.36704e-16 0)
(3.3208e-30 6.16099e-14 6.16099e-14)
(1.1053e-31 4.0389e-15 0)
(9.03284e-31 6.68529e-14 6.68529e-14)
(-1.36358e-30 1.3765e-14 -0)
(-1.59425e-32 1.28425e-16 1.28425e-16)
(6.31894e-30 -6.29717e-14 -0)
(2.15644e-30 -5.90444e-14 -5.90444e-14)
(-1.86145e-30 3.57953e-14 -0)
(3.77761e-30 -3.06066e-14 -3.06066e-14)
(2.38521e-31 -1.40412e-14 -0)
(-4.34927e-25 -4.19958e-12 -4.19958e-12)
(-1.99161e-25 8.8369e-12 -0)
(-1.02014e-26 -1.97448e-12 -1.97448e-12)
(-5.57061e-28 4.77615e-13 -0)
(-2.65274e-29 -6.79393e-14 -6.79393e-14)
(6.31666e-30 1.14524e-13 0)
(3.49685e-30 5.99095e-14 5.99095e-14)
(-9.53198e-32 5.18673e-14 -0)
(8.37819e-30 1.02426e-13 1.02426e-13)
(6.62733e-30 1.14062e-13 0)
(8.90514e-31 3.50897e-14 3.50897e-14)
(-2.64837e-30 1.218e-13 -0)
(-4.37824e-31 4.03837e-15 4.03837e-15)
(-4.82536e-30 7.76688e-14 -0)
(-5.96211e-30 8.28618e-14 8.28618e-14)
(-4.51846e-31 5.82323e-15 -0)
(-8.25869e-30 6.34382e-14 6.34382e-14)
(2.30001e-31 -1.35395e-15 -0)
(8.5983e-30 -7.37131e-14 -7.37131e-14)
(-2.30151e-31 -9.14893e-15 0)
(-3.38103e-26 -1.43062e-12 -1.43062e-12)
(-1.17993e-26 2.24268e-12 -0)
(-4.59837e-28 -3.81152e-13 -3.81152e-13)
(-8.42959e-29 2.30603e-13 -0)
(-3.99485e-31 2.59557e-14 2.59557e-14)
(-1.00546e-29 1.21138e-13 -0)
(-9.07597e-30 6.36615e-14 6.36615e-14)
(1.85419e-30 -1.04453e-14 -0)
(1.9425e-30 -5.09663e-14 -5.09663e-14)
(-2.71511e-30 -4.44391e-14 0)
(-5.27089e-30 -3.89781e-14 -3.89781e-14)
(7.99546e-31 4.44618e-15 0)
(3.91824e-30 4.31691e-14 4.31691e-14)
(8.46905e-31 4.41379e-14 0)
(-2.63579e-30 3.3128e-14 3.3128e-14)
(-4.51946e-30 1.10118e-13 -0)
(-5.94608e-30 6.15904e-14 6.15904e-14)
(-6.03928e-32 5.25863e-16 -0)
(-4.66118e-30 4.57872e-14 4.57872e-14)
(-4.24443e-31 1.38633e-14 -0)
(-1.04405e-24 7.47262e-12 7.47262e-12)
(-3.73694e-25 -1.23346e-11 0)
(-1.98678e-26 2.7767e-12 2.7767e-12)
(-1.01956e-27 -7.055e-13 0)
(-7.9446e-30 2.14014e-14 2.14014e-14)
(-2.28536e-29 -1.55519e-13 0)
(-5.38723e-30 -5.39976e-14 -5.39976e-14)
(1.21154e-31 8.36556e-16 0)
(-6.90895e-30 -7.55882e-14 -7.55882e-14)
(-2.32631e-30 -2.65695e-14 0)
(6.57839e-31 7.6451e-15 7.6451e-15)
(1.53199e-31 1.37961e-14 0)
(-1.66326e-30 3.20392e-14 3.20392e-14)
(-5.94277e-32 1.55421e-15 -0)
(1.81945e-30 -2.69726e-14 -2.69726e-14)
(1.21339e-30 -3.06713e-14 -0)
(2.08564e-31 -6.56014e-15 -6.56014e-15)
(-9.03776e-31 -3.47068e-14 0)
(7.74554e-32 1.7514e-15 1.7514e-15)
(4.4977e-32 5.2751e-15 0)
(-1.18127e-24 -7.71641e-12 -7.71641e-12)
(-4.50039e-25 1.32722e-11 -0)
(-2.5344e-26 -3.21025e-12 -3.21025e-12)
(-1.15634e-27 6.40343e-13 -0)
(-8.24606e-29 -2.02577e-13 -2.02577e-13)
(2.4168e-30 -4.73038e-14 -0)
(-6.32968e-30 -9.45503e-14 -9.45503e-14)
(-4.32058e-30 -5.31696e-14 0)
(2.06261e-31 3.64805e-15 3.64805e-15)
(-2.38229e-30 -5.32001e-14 0)
(-2.21537e-30 -4.77038e-14 -4.77038e-14)
(3.31829e-31 -1.636e-14 -0)
(1.74259e-30 -2.85623e-14 -2.85623e-14)
(3.84167e-31 -6.72722e-14 -0)
(-2.26012e-30 -3.24679e-14 -3.24679e-14)
(-1.04521e-30 -2.18124e-14 0)
(-9.32936e-31 -5.59175e-14 -5.59175e-14)
(-4.20261e-30 -6.46634e-14 0)
(-7.32254e-30 -6.04086e-14 -6.04086e-14)
(3.15149e-30 2.48194e-14 0)
(-2.78176e-26 9.36676e-13 9.36676e-13)
(-1.61222e-26 -2.47736e-12 0)
(-8.43287e-28 6.01948e-13 6.01948e-13)
(-5.43223e-29 -1.11238e-13 0)
(-2.33787e-30 1.33618e-13 1.33618e-13)
(-3.03771e-30 8.75714e-14 -0)
(-7.20701e-30 9.00209e-14 9.00209e-14)
(-1.05675e-29 8.67994e-14 -0)
(-6.79874e-30 5.03979e-14 5.03979e-14)
(-4.06494e-30 4.86099e-14 -0)
(-1.79051e-31 2.26936e-15 2.26936e-15)
(2.80313e-30 -2.63658e-14 -0)
(2.35636e-30 -2.73068e-14 -2.73068e-14)
(6.85137e-30 -6.56891e-14 -0)
(-2.14296e-30 -7.51971e-14 -7.51971e-14)
(-8.44336e-32 -7.99791e-16 0)
(6.16553e-31 1.68938e-14 1.68938e-14)
(-8.07956e-32 1.27501e-15 -0)
(-5.11461e-31 -2.15391e-14 -2.15391e-14)
(-1.4485e-30 -9.5282e-15 0)
(-7.24279e-25 6.44737e-12 6.44737e-12)
(-2.49229e-25 -9.93131e-12 0)
(-1.42747e-26 2.38836e-12 2.38836e-12)
(-6.05378e-28 -4.99642e-13 0)
(-5.3973e-29 1.23151e-13 1.23151e-13)
(3.02242e-31 -1.52006e-14 -0)
(3.4135e-32 -2.2441e-15 -2.2441e-15)
(6.00508e-33 2.34809e-15 0)
(-6.58288e-32 1.70136e-15 1.70136e-15)
(-1.07173e-34 7.41369e-18 -0)
(-2.12367e-30 5.47817e-14 5.47817e-14)
(1.13712e-32 -5.637e-16 -0)
(-1.70394e-31 5.14334e-15 5.14334e-15)
(-3.58182e-30 5.00214e-14 -0)
(-4.40637e-32 -5.03101e-15 -5.03101e-15)
(-2.56426e-32 1.20412e-15 -0)
(-8.31735e-32 2.53366e-14 2.53366e-14)
(-1.8926e-31 5.24132e-14 -0)
(-4.33426e-32 -2.95121e-15 -2.95121e-15)
(8.07181e-31 3.11638e-14 0)
(-2.20307e-24 -1.20668e-11 -1.20668e-11)
(-6.73244e-25 1.66263e-11 -0)
(-3.54054e-26 -3.82194e-12 -3.82194e-12)
(-2.14616e-27 9.44033e-13 -0)
(-7.60081e-29 -2.07965e-13 -2.07965e-13)
(-2.76982e-30 1.42963e-14 -0)
(3.49429e-30 -7.20037e-14 -7.20037e-14)
(5.12051e-31 -3.23933e-14 -0)
(1.21062e-31 2.78114e-14 2.78114e-14)
(1.24901e-30 -5.46129e-14 -0)
(-7.70599e-32 -9.19439e-15 -9.19439e-15)
(1.94522e-30 2.81615e-14 0)
(-1.43628e-31 6.57733e-14 6.57733e-14)
(-2.76092e-30 5.93005e-14 -0)
(-4.40426e-30 8.29619e-14 8.29619e-14)
(-3.02872e-30 4.80552e-14 -0)
(-8.21211e-31 -9.70559e-14 -9.70559e-14)
(1.06001e-31 1.12311e-15 0)
(-1.93052e-31 6.96959e-14 6.96959e-14)
(3.82491e-31 -6.32464e-15 -0)
(-2.27222e-24 1.40747e-11 1.40747e-11)
(-5.28958e-25 -1.5325e-11 0)
(-2.93084e-26 3.57849e-12 3.57849e-12)
(-1.32982e-27 -7.76418e-13 0)
(-1.19751e-28 2.81118e-13 2.81118e-13)
(-8.10551e-31 5.70317e-14 -0)
(-2.22018e-29 1.21225e-13 1.21225e-13)
(-6.5357e-30 4.59413e-14 -0)
(-2.76335e-30 2.75077e-14 2.75077e-14)
(-8.13085e-30 5.55809e-14 -0)
(2.62155e-31 -2.29629e-15 -2.29629e-15)
(3.60983e-30 -2.92707e-14 -0)
(4.0017e-30 -4.32576e-14 -4.32576e-14)
(-1.63368e-30 -4.27668e-14 0)
(-2.40559e-30 -3.75237e-14 -3.75237e-14)
(-4.35463e-31 -3.05833e-15 0)
(6.81671e-30 7.19884e-14 7.19884e-14)
(-2.81981e-30 7.96633e-14 -0)
(-4.07541e-30 2.54968e-14 2.54968e-14)
(3.46026e-31 -1.79154e-14 -0)
(-6.03901e-25 -7.69433e-12 -7.69433e-12)
(-1.26934e-25 7.5908e-12 -0)
(-7.18407e-27 -1.82623e-12 -1.82623e-12)
(-3.16005e-28 3.51412e-13 -0)
(-2.43252e-29 -1.63635e-13 -1.63635e-13)
(2.98896e-30 -3.93023e-14 -0)
(3.17154e-32 -7.51955e-14 -7.51955e-14)
(-1.6587e-29 -1.23966e-13 0)
(-1.54413e-29 -9.95991e-14 -9.95991e-14)
(-1.32478e-30 -2.90569e-14 0)
(3.02769e-30 -3.13758e-14 -3.13758e-14)
(2.28943e-31 -1.25277e-15 -0)
(4.96501e-30 -5.91284e-14 -5.91284e-14)
(-1.73227e-29 -1.25999e-13 0)
(4.15212e-31 4.52215e-15 4.52215e-15)
(-9.63594e-30 -1.04442e-13 0)
(5.6161e-31 1.07933e-14 1.07933e-14)
(7.53367e-31 -4.80708e-14 -0)
(9.32664e-32 -9.96454e-15 -9.96454e-15)
(-1.64955e-30 -1.96437e-14 0)
(-1.19437e-25 -3.34736e-12 -3.34736e-12)
(-2.56103e-26 3.48092e-12 -0)
(-1.31138e-27 -7.78304e-13 -7.78304e-13)
(-6.50738e-29 1.67956e-13 -0)
(-3.13072e-31 -5.84324e-14 -5.84324e-14)
(1.5704e-30 -2.11726e-14 -0)
(5.86115e-31 -1.08607e-14 -1.08607e-14)
(-4.66572e-31 -1.3549e-14 0)
(-4.85446e-32 -5.95466e-16 -5.95466e-16)
(3.90233e-30 9.6615e-14 0)
(-4.74305e-30 6.63601e-14 6.63601e-14)
(-2.03244e-30 2.50579e-14 -0)
(-1.0871e-30 2.13144e-14 2.13144e-14)
(-4.6892e-31 2.02089e-14 -0)
(9.05318e-32 5.04102e-15 5.04102e-15)
(-7.41381e-31 1.00712e-14 -0)
(3.64751e-31 -4.40771e-15 -4.40771e-15)
(1.96237e-30 -6.6438e-14 -0)
(-1.29453e-30 -3.27516e-14 -3.27516e-14)
(1.78955e-31 6.64546e-15 0)
(-1.32295e-24 1.00002e-11 1.00002e-11)
(-3.49021e-25 -1.22483e-11 0)
(-1.84752e-26 2.81759e-12 2.81759e-12)
(-1.10632e-27 -6.60558e-13 0)
(-4.58396e-29 2.05963e-13 2.05963e-13)
(4.7276e-30 3.00541e-14 0)
(9.15111e-31 4.81685e-14 4.81685e-14)
(-3.49846e-30 6.55993e-14 -0)
(-1.08665e-29 1.14512e-13 1.14512e-13)
(-3.05856e-30 2.67717e-14 -0)
(-3.66573e-30 4.00362e-14 4.00362e-14)
(2.56907e-31 9.34449e-15 0)
(2.34621e-30 2.72671e-14 2.72671e-14)
(2.2456e-30 8.67948e-14 0)
(2.99002e-31 9.56846e-15 9.56846e-15)
(-4.76092e-30 6.81962e-14 -0)
(-4.93817e-32 4.54661e-16 4.54661e-16)
(-3.82855e-30 5.14875e-14 -0)
(-8.99957e-32 1.10578e-15 1.10578e-15)
(-8.90447e-31 1.04248e-14 -0)
(-1.8683e-24 -1.12135e-11 -1.12135e-11)
(-5.45289e-25 1.50148e-11 -0)
(-3.13522e-26 -3.64432e-12 -3.64432e-12)
(-1.29863e-27 7.33349e-13 -0)
(-1.25369e-28 -2.74696e-13 -2.74696e-13)
(7.00881e-30 -6.48544e-14 -0)
(-2.29711e-30 -1.10797e-13 -1.10797e-13)
(5.98259e-30 -7.09663e-14 -0)
(4.72063e-30 -5.70425e-14 -5.70425e-14)
(1.95685e-30 -3.49572e-14 -0)
(2.77085e-31 -6.54283e-14 -6.54283e-14)
(-2.57518e-30 -4.58187e-14 0)
(-1.26464e-29 -6.91434e-14 -6.91434e-14)
(-3.42756e-30 -1.66761e-14 0)
(1.8369e-30 2.33667e-14 2.33667e-14)
(-2.62955e-31 9.34792e-15 -0)
(8.23327e-31 -5.53796e-14 -5.53796e-14)
(-1.52985e-31 9.30867e-15 -0)
(-3.69772e-30 3.42529e-14 3.42529e-14)
(4.1048e-30 -4.66917e-14 -0)
(-4.82138e-25 5.16789e-12 5.16789e-12)
(-1.7181e-25 -8.2819e-12 0)
(-9.12168e-27 1.90673e-12 1.90673e-12)
(-5.23535e-28 -4.60928e-13 0)
(-1.98462e-29 1.13632e-13 1.13632e-13)
(-2.76217e-32 5.65732e-14 -0)
(-1.14242e-29 5.76149e-14 5.76149e-14)
(-2.63254e-29 8.61471e-14 -0)
(5.07026e-30 -2.05603e-14 -2.05603e-14)
(5.01217e-30 -5.01297e-14 -0)
(2.60031e-31 -1.58962e-14 -1.58962e-14)
(-2.74207e-30 -4.64931e-14 0)
(-1.11057e-29 -6.25595e-14 -6.25595e-14)
(-6.31419e-30 -4.43188e-14 0)
(8.26672e-31 1.05162e-14 1.05162e-14)
(2.22354e-30 5.95959e-14 0)
(1.6349e-30 6.60522e-14 6.60522e-14)
(-1.19243e-30 1.47013e-14 -0)
(-3.08777e-30 2.52554e-14 2.52554e-14)
(-2.23674e-30 3.57225e-14 -0)
(-7.68298e-26 1.4774e-12 1.4774e-12)
(-4.53065e-26 -4.14239e-12 0)
(-2.85864e-27 1.05144e-12 1.05144e-12)
(-6.0322e-29 -1.42635e-13 0)
(-9.4865e-30 4.55539e-14 4.55539e-14)
(1.76543e-32 -5.41088e-16 -0)
(-1.46359e-29 7.21559e-14 7.21559e-14)
(1.19543e-29 -5.63654e-14 -0)
(1.21283e-29 -6.69026e-14 -6.69026e-14)
(7.94749e-31 -9.33237e-15 -0)
(6.04917e-30 -6.87719e-14 -6.87719e-14)
(-6.54232e-30 -1.08213e-13 0)
(-2.66362e-31 -1.47148e-15 -1.47148e-15)
(4.97483e-30 6.61786e-14 0)
(1.20679e-32 1.96766e-16 1.96766e-16)
(7.59587e-31 1.03762e-14 0)
(-5.89762e-31 1.38996e-14 1.38996e-14)
(3.24539e-31 -4.9329e-15 -0)
(-2.34607e-31 -3.40072e-14 -3.40072e-14)
(3.27269e-33 1.01296e-15 0)
(-6.82055e-25 -4.56434e-12 -4.56434e-12)
(-4.05336e-25 1.23682e-11 -0)
(-2.15473e-26 -2.83929e-12 -2.83929e-12)
(-1.28255e-27 6.61068e-13 -0)
(-3.34859e-29 -2.02759e-13 -2.02759e-13)
(5.21747e-30 -2.84219e-14 -0)
(8.08126e-30 -8.71473e-14 -8.71473e-14)
(2.75743e-30 -2.20152e-14 -0)
(1.17571e-29 -8.1857e-14 -8.1857e-14)
(1.12036e-29 -9.34931e-14 -0)
(1.028e-30 -4.70481e-14 -4.70481e-14)
(-5.55319e-30 -6.97661e-14 0)
(-1.08589e-29 -8.12127e-14 -8.12127e-14)
(-6.10699e-30 -7.77237e-14 0)
(-5.19786e-30 -5.31503e-14 -5.31503e-14)
(-3.03213e-30 -4.46065e-14 0)
(1.53793e-32 8.74048e-15 8.74048e-15)
(2.35827e-32 -1.21375e-15 -0)
(-1.20127e-30 -8.64404e-14 -8.64404e-14)
(-7.17059e-31 -2.25331e-14 0)
(-1.29625e-25 2.68074e-12 2.68074e-12)
(-4.25352e-26 -4.18552e-12 0)
(-2.62349e-27 1.07829e-12 1.07829e-12)
(-5.70417e-29 -1.22988e-13 0)
(-2.07028e-29 1.74065e-13 1.74065e-13)
(5.27035e-30 6.7222e-14 0)
(2.62757e-30 1.19466e-13 1.19466e-13)
(-4.89622e-30 1.52718e-13 -0)
(-3.14515e-29 2.09765e-13 2.09765e-13)
(-2.2695e-29 9.76717e-14 -0)
(-2.50268e-30 5.89535e-14 5.89535e-14)
(-1.18511e-30 1.3555e-13 -0)
(-3.67528e-30 8.60772e-14 8.60772e-14)
(-5.09518e-30 9.03982e-14 -0)
(-1.16648e-29 8.73591e-14 8.73591e-14)
(7.4323e-30 -6.36313e-14 -0)
(3.11359e-31 -7.91942e-15 -7.91942e-15)
(-1.55831e-31 4.14351e-15 -0)
(-3.98782e-30 4.93842e-14 4.93842e-14)
(-3.63339e-31 -3.41151e-14 0)
(-7.36041e-25 6.55317e-12 6.55317e-12)
(-2.44183e-25 -1.01665e-11 0)
(-1.22494e-26 2.12124e-12 2.12124e-12)
(-7.05693e-28 -5.98154e-13 0)
(-2.12504e-29 6.33976e-14 6.33976e-14)
(-1.96579e-31 -5.30262e-14 0)
(1.79017e-30 -2.35606e-14 -2.35606e-14)
(1.73136e-30 -5.45524e-14 -0)
(3.28114e-30 -4.52206e-14 -4.52206e-14)
(3.87888e-30 -3.18901e-14 -0)
(3.18517e-31 -1.28913e-14 -1.28913e-14)
(-4.6833e-33 -6.43264e-16 0)
(-1.04688e-30 5.72842e-14 5.72842e-14)
(-1.78984e-31 7.62929e-15 -0)
(1.83151e-30 -1.93671e-14 -1.93671e-14)
(-5.21723e-30 5.17379e-14 -0)
(6.30091e-31 -9.0211e-15 -9.0211e-15)
(4.12468e-32 -3.88077e-15 -0)
(2.88572e-32 -9.29716e-16 -9.29716e-16)
(4.30963e-33 -3.23701e-15 -0)
)
;

boundaryField
{
    movingWall
    {
        type            calculated;
        value           nonuniform List<vector> 
20
(
(0 1.49584e-11 -0)
(0 -1.26972e-11 -0)
(0 2.01741e-12 -0)
(0 -9.43624e-13 -0)
(0 -1.93255e-13 -0)
(0 -2.92375e-13 -0)
(0 -2.62909e-13 -0)
(0 -3.11205e-13 -0)
(0 -3.01873e-13 -0)
(0 -2.71239e-13 -0)
(0 -1.01709e-13 -0)
(0 -1.3387e-13 -0)
(0 -1.30153e-13 -0)
(0 -8.11886e-14 -0)
(0 -3.6671e-14 -0)
(0 8.63457e-14 -0)
(0 -9.0211e-15 -0)
(0 -3.88077e-15 -0)
(0 -4.53386e-14 -0)
(0 -3.23701e-15 -0)
)
;
    }
    fixedWalls
    {
        type            calculated;
        value           nonuniform List<vector> 
60
(
(0 -6.54033e-11 -0)
(0 -4.36767e-12 -0)
(0 5.63202e-11 -0)
(0 -3.75227e-11 -0)
(0 -9.04673e-12 -0)
(0 5.24174e-11 -0)
(0 -5.70328e-11 -0)
(0 1.04969e-11 -0)
(0 4.2658e-11 -0)
(0 -7.08881e-11 -0)
(0 6.59583e-11 -0)
(0 -3.29125e-11 -0)
(0 -1.47874e-11 -0)
(0 5.25375e-11 -0)
(0 -6.48288e-11 -0)
(0 3.52309e-11 -0)
(0 1.81721e-11 -0)
(0 -5.26709e-11 -0)
(0 1.82032e-11 -0)
(0 4.26505e-11 -0)
(0 -8.17478e-15 -0)
(0 -2.93141e-14 -0)
(0 -6.79489e-15 -0)
(0 1.00624e-14 -0)
(0 1.48586e-14 -0)
(0 3.41051e-15 -0)
(0 5.07908e-14 -0)
(0 3.37041e-14 -0)
(0 3.74655e-14 -0)
(0 -2.41906e-14 -0)
(0 -7.72578e-15 -0)
(0 6.48432e-15 -0)
(0 1.07715e-14 -0)
(0 -7.06158e-15 -0)
(0 -6.22702e-14 -0)
(0 2.91644e-14 -0)
(0 1.29233e-15 -0)
(0 -1.43761e-14 -0)
(0 -2.28449e-14 -0)
(0 -5.32545e-16 -0)
(0 -2.02563e-11 -0)
(0 1.8033e-11 -0)
(0 -3.3305e-12 -0)
(0 9.82783e-13 -0)
(0 4.49825e-14 -0)
(0 1.59677e-13 -0)
(0 1.60293e-13 -0)
(0 1.28472e-13 -0)
(0 1.0195e-14 -0)
(0 2.46184e-14 -0)
(0 1.56156e-14 -0)
(0 -9.38857e-14 -0)
(0 3.39124e-14 -0)
(0 -1.81006e-13 -0)
(0 -8.50366e-14 -0)
(0 -1.71517e-13 -0)
(0 -6.06173e-15 -0)
(0 -9.05633e-14 -0)
(0 -8.35336e-14 -0)
(0 4.18725e-14 -0)
)
;
    }
    frontAndBack
    {
        type            empty;
    }
}


// ************************************************************************* //
