/*--------------------------------*- C++ -*----------------------------------*\
| =========                 |                                                 |
| \\      /  F ield         | OpenFOAM: The Open Source CFD Toolbox           |
|  \\    /   O peration     | Version:  2312                                  |
|   \\  /    A nd           | Website:  www.openfoam.com                      |
|    \\/     M anipulation  |                                                 |
\*---------------------------------------------------------------------------*/
FoamFile
{
    version     2.0;
    format      ascii;
    arch        "LSB;label=32;scalar=64";
    class       volScalarField;
    location    "9.875";
    object      Lambda2Field;
}
// * * * * * * * * * * * * * * * * * * * * * * * * * * * * * * * * * * * * * //

dimensions      [0 0 -2 0 0 0 0];

internalField   nonuniform List<scalar> 
400
(
1.53625e-23
8.42677e-24
2.65221e-25
2.25583e-26
4.79928e-27
1.43385e-27
4.19281e-28
0
1.40855e-27
0
0
-2.34516e-28
7.02379e-28
-2.73132e-28
2.0498e-28
3.31717e-28
1.8574e-29
7.99445e-29
1.50781e-28
0
5.38737e-24
8.75918e-24
5.60108e-25
2.0975e-27
0
0
1.207e-27
-1.09993e-27
1.749e-27
7.16797e-28
6.18666e-28
1.5063e-28
0
0
2.81272e-28
1.70389e-28
0
0
0
0
6.80058e-23
2.18073e-23
5.45797e-25
2.13404e-26
2.0517e-27
0
1.30534e-28
5.29711e-29
2.53026e-28
7.7391e-29
3.33539e-28
0
1.07303e-27
1.84778e-29
1.04131e-29
0
7.58153e-28
2.79198e-28
1.39309e-28
0
3.64462e-23
1.64987e-23
8.06737e-25
1.83671e-26
8.03099e-27
-2.12047e-27
4.25721e-28
9.49643e-28
1.38456e-27
0
1.57537e-28
-1.21816e-27
0
4.36334e-28
0
3.51693e-29
2.3443e-28
0
3.05821e-28
0
6.96533e-24
1.04039e-23
8.05396e-25
0
1.53167e-27
-6.44151e-28
2.22325e-28
2.15101e-28
3.55324e-30
-4.61165e-28
0
0
0
-4.5597e-28
0
-1.69617e-28
0
3.83825e-28
1.19129e-27
3.58917e-28
4.11632e-23
1.74005e-23
6.06679e-25
0
1.40753e-26
-4.37177e-27
7.46206e-28
6.69645e-28
4.6569e-28
1.45157e-29
9.34427e-29
4.00443e-28
0
6.19927e-30
3.5901e-30
-1.75254e-29
0
1.17369e-28
4.98136e-28
2.48357e-28
5.00703e-23
1.81293e-23
2.64486e-26
9.03362e-26
0
2.76564e-27
0
5.64057e-29
5.15462e-28
3.47775e-28
1.08739e-27
4.29124e-28
0
0
0
1.43458e-28
6.42126e-28
0
3.98663e-28
2.05913e-28
4.62808e-24
4.8057e-24
3.88648e-25
3.7498e-27
0
-4.9899e-28
0
0
9.3234e-28
3.03588e-28
0
2.00385e-29
1.88721e-28
0
0
0
7.53371e-29
4.70639e-29
2.29471e-28
4.76422e-28
2.09243e-23
9.79952e-24
2.12324e-25
3.00244e-26
7.34684e-28
1.1467e-27
1.12004e-29
0
1.94641e-28
0
0
0
7.7356e-29
2.60414e-28
0
2.84244e-28
2.1628e-28
3.46262e-28
0
0
3.0589e-23
1.23379e-23
7.34684e-28
-4.5726e-26
0
1.12251e-27
0
6.63891e-29
2.12373e-28
0
7.7984e-29
7.77701e-29
4.8995e-28
-1.55378e-28
1.6174e-27
6.01575e-28
0
0
6.79486e-28
0
0
3.88648e-25
0
0
0
1.97461e-27
0
6.72086e-28
0
-2.74366e-29
1.11314e-28
5.75454e-28
0
0
2.79584e-28
2.41141e-28
0
-1.2587e-27
2.06547e-28
2.08658e-28
0
0
0
3.67083e-26
0
8.44103e-28
0
-9.50775e-28
3.76755e-27
1.71205e-27
1.23785e-27
1.7822e-29
0
-1.86819e-27
2.64103e-29
8.97905e-28
3.43991e-28
3.32811e-28
4.22289e-28
2.23625e-28
0
7.91477e-26
0
2.64486e-26
0
1.60799e-28
3.32602e-29
0
6.2473e-28
0
7.60293e-29
5.54878e-29
5.59583e-28
3.11491e-28
4.30388e-29
0
0
-6.28433e-28
0
2.8693e-28
4.23266e-24
4.16314e-24
0
0
0
1.3095e-27
6.49248e-29
-4.76424e-28
7.42411e-29
9.03579e-30
1.2143e-27
4.81401e-28
0
7.76426e-29
5.96769e-29
-2.3503e-29
0
1.49308e-28
2.17807e-28
5.84006e-28
2.46143e-23
1.30209e-23
0
6.91498e-26
0
4.9724e-27
2.68104e-27
1.47785e-27
8.90079e-28
0
0
-4.97321e-28
0
4.18631e-28
1.58931e-28
1.14752e-28
8.81185e-28
4.55864e-31
0
-5.25698e-28
1.75288e-23
1.00993e-23
4.94951e-25
0
0
-7.11884e-29
0
-2.29625e-28
2.02757e-28
-6.15568e-28
0
-5.25334e-28
2.82062e-28
5.36208e-28
3.06337e-29
-1.89277e-28
0
2.43601e-29
5.01344e-29
1.08529e-27
1.70154e-23
1.41037e-23
7.06031e-25
4.55866e-26
0
3.35198e-28
0
2.08368e-28
0
0
0
-1.4525e-27
1.97369e-29
-6.07984e-28
0
9.40331e-30
5.35859e-29
3.80453e-29
0
8.91828e-29
8.29189e-23
2.57651e-23
7.63897e-25
6.03838e-26
0
1.39798e-27
2.60446e-28
4.6205e-28
0
0
3.35335e-29
-7.95404e-28
2.15769e-27
2.92038e-28
7.92135e-28
8.81641e-28
0
0
3.17927e-28
1.24474e-28
1.2142e-23
1.54558e-23
7.44142e-25
3.68442e-26
0
1.14598e-27
0
-2.24265e-27
0
1.16535e-27
1.81835e-27
0
0
-3.90283e-30
1.78648e-27
-2.25739e-28
0
7.74596e-31
8.91504e-28
-1.79016e-28
2.11652e-23
7.75561e-24
5.3673e-25
-2.47356e-27
9.31426e-27
-6.35174e-28
9.60733e-29
2.21449e-29
1.22201e-27
1.12341e-27
8.66507e-29
0
0
0
8.23785e-28
1.34017e-28
0
2.3268e-29
1.25185e-28
0
)
;

boundaryField
{
    movingWall
    {
        type            calculated;
        value           nonuniform List<scalar> 
20
(
0
0
7.73848e-25
0
3.94986e-26
-6.90457e-27
9.44439e-28
5.47504e-29
3.52919e-27
1.09213e-27
0
-7.7219e-29
4.09548e-28
6.77617e-28
2.11072e-27
2.19573e-28
0
1.80745e-29
6.26755e-28
0
)
;
    }
    fixedWalls
    {
        type            calculated;
        value           nonuniform List<scalar> 
60
(
1.22012e-22
1.36247e-22
3.50193e-22
2.81037e-22
1.83712e-22
2.80868e-22
2.57459e-22
7.20834e-23
1.37721e-22
1.59226e-22
0
0
4.04093e-24
2.29282e-23
1.44893e-22
1.59156e-22
2.29826e-22
4.24609e-22
2.5404e-22
1.39849e-22
1.04545e-28
0
0
0
3.89902e-28
2.48357e-28
8.5084e-28
1.64824e-27
5.21655e-28
0
2.2358e-28
9.31826e-28
3.15936e-28
1.05797e-27
0
1.4408e-27
8.96003e-29
3.4557e-28
2.56936e-28
0
0
0
4.15097e-25
0
3.93157e-26
-3.50558e-27
3.8153e-27
6.33521e-28
2.93874e-27
0
0
0
7.57827e-28
-5.83908e-28
3.35839e-28
1.08697e-27
8.93335e-29
1.29922e-29
2.21768e-27
1.12638e-28
)
;
    }
    frontAndBack
    {
        type            empty;
    }
}


// ************************************************************************* //
