/*--------------------------------*- C++ -*----------------------------------*\
| =========                 |                                                 |
| \\      /  F ield         | OpenFOAM: The Open Source CFD Toolbox           |
|  \\    /   O peration     | Version:  2312                                  |
|   \\  /    A nd           | Website:  www.openfoam.com                      |
|    \\/     M anipulation  |                                                 |
\*---------------------------------------------------------------------------*/
FoamFile
{
    version     2.0;
    format      ascii;
    arch        "LSB;label=32;scalar=64";
    class       volScalarField;
    location    "9.875";
    object      pzeroGrad;
}
// * * * * * * * * * * * * * * * * * * * * * * * * * * * * * * * * * * * * * //

dimensions      [0 2 -2 0 0 0 0];

internalField   nonuniform List<scalar> 
400
(
6.04634e-16
2.84043e-15
9.61122e-16
1.29094e-15
1.29374e-15
1.2469e-15
1.16699e-15
1.07994e-15
1.23509e-15
1.31989e-15
1.4935e-15
1.67699e-15
2.09208e-15
1.9382e-15
1.8773e-15
1.8967e-15
1.77091e-15
2.05004e-15
1.81879e-15
1.92442e-15
2.31441e-15
0
9.26636e-16
7.60222e-16
1.38848e-15
1.21316e-15
1.12262e-15
1.18204e-15
1.19232e-15
1.47705e-15
1.50083e-15
1.72762e-15
1.81848e-15
1.80693e-15
1.74794e-15
1.90624e-15
1.86813e-15
1.94666e-15
2.01227e-15
2.03004e-15
9.30335e-16
2.13595e-15
8.77349e-16
9.27263e-16
1.19609e-15
1.13188e-15
1.18839e-15
1.24396e-15
1.4289e-15
1.32646e-15
1.42281e-15
1.66444e-15
1.80436e-15
2.0611e-15
1.82039e-15
1.9544e-15
1.68605e-15
1.82128e-15
2.11922e-15
2.1534e-15
4.2058e-16
1.94332e-15
9.57515e-16
9.94561e-16
8.92432e-16
1.09516e-15
1.014e-15
9.64368e-16
1.38657e-15
1.46936e-15
1.56354e-15
1.74494e-15
1.89293e-15
2.08963e-15
2.04029e-15
2.06723e-15
1.80578e-15
1.82403e-15
1.86063e-15
2.03848e-15
1.2316e-15
0
9.1522e-16
8.52117e-16
1.0566e-15
9.34756e-16
9.40456e-16
1.06629e-15
1.28085e-15
1.48539e-15
1.55689e-15
1.78516e-15
1.97452e-15
2.05553e-15
2.11773e-15
2.08665e-15
1.75954e-15
1.77318e-15
1.88625e-15
2.10149e-15
1.92709e-16
1.34159e-15
8.00667e-16
9.41554e-16
9.01217e-16
9.76198e-16
9.26456e-16
1.06113e-15
1.21234e-15
1.42982e-15
1.47326e-15
1.62855e-15
1.92664e-15
2.00282e-15
2.20329e-15
2.04793e-15
1.81752e-15
1.81835e-15
1.70449e-15
2.10737e-15
3.44717e-16
2.56106e-15
7.21447e-16
1.03959e-15
8.43935e-16
9.12811e-16
8.46124e-16
9.02915e-16
1.23104e-15
1.47721e-15
1.41114e-15
1.47707e-15
1.80311e-15
1.91812e-15
1.92992e-15
1.97799e-15
1.88538e-15
1.67537e-15
1.62758e-15
1.97134e-15
1.43321e-15
0
7.79391e-16
7.18292e-16
8.25066e-16
9.01954e-16
9.17086e-16
9.70743e-16
1.26807e-15
1.44696e-15
1.33193e-15
1.37959e-15
1.68128e-15
1.71776e-15
1.83315e-15
1.87036e-15
1.87578e-15
1.66105e-15
1.50666e-15
1.63426e-15
6.26273e-16
3.27936e-15
6.36953e-16
8.6434e-16
6.2422e-16
7.93106e-16
8.44885e-16
9.40886e-16
1.27177e-15
1.25287e-15
1.19123e-15
1.44489e-15
1.62693e-15
1.7156e-15
1.65636e-15
1.70248e-15
1.70952e-15
1.82429e-15
1.7059e-15
1.42485e-15
9.75424e-16
0
6.81311e-16
8.21648e-16
7.73588e-16
8.21129e-16
8.22561e-16
9.52483e-16
1.24082e-15
1.24939e-15
1.17109e-15
1.23171e-15
1.55159e-15
1.77243e-15
1.54198e-15
1.65573e-15
1.54611e-15
1.58054e-15
1.47715e-15
1.47921e-15
3.80937e-16
0
9.56839e-16
7.07043e-16
6.895e-16
7.32596e-16
7.94251e-16
8.75257e-16
1.04508e-15
1.15378e-15
1.15335e-15
1.18366e-15
1.42523e-15
1.59413e-15
1.50956e-15
1.40191e-15
1.39671e-15
1.28689e-15
1.4206e-15
1.53565e-15
0
4.82328e-15
6.09858e-16
1.08944e-15
6.75792e-16
9.26232e-16
8.79951e-16
8.34615e-16
1.08189e-15
1.30825e-15
1.16024e-15
1.22039e-15
1.54088e-15
1.43628e-15
1.28194e-15
1.11476e-15
1.07931e-15
1.10751e-15
1.38106e-15
1.4347e-15
1.09088e-15
0
8.29205e-16
8.8787e-16
9.9287e-16
1.11846e-15
1.03129e-15
5.83536e-16
8.02686e-16
1.07568e-15
1.22858e-15
1.42277e-15
1.73745e-15
1.3237e-15
1.31989e-15
1.07762e-15
1.03203e-15
1.06647e-15
1.19883e-15
1.11492e-15
2.73804e-16
3.33174e-15
7.63084e-16
1.10913e-15
1.00924e-15
1.13412e-15
1.12997e-15
8.87952e-16
9.29366e-16
1.06743e-15
1.33827e-15
1.39222e-15
1.55174e-15
1.27651e-15
9.5073e-16
9.89117e-16
9.98267e-16
1.03239e-15
1.03405e-15
1.25617e-15
5.82473e-16
6.79442e-16
1.03102e-15
9.1388e-16
1.00237e-15
1.0819e-15
1.3155e-15
1.01138e-15
8.74616e-16
1.08158e-15
1.33934e-15
1.31367e-15
1.32494e-15
1.10862e-15
1.02694e-15
1.09216e-15
1.11212e-15
8.23977e-16
9.92205e-16
1.34716e-15
1.50305e-15
0
7.54419e-16
6.81104e-16
9.27893e-16
1.33157e-15
1.37438e-15
1.20424e-15
1.05235e-15
1.18802e-15
1.28472e-15
1.25837e-15
1.26856e-15
1.07438e-15
8.34819e-16
9.43333e-16
9.11045e-16
8.96069e-16
1.09061e-15
1.52078e-15
2.39441e-16
2.73495e-15
7.52425e-16
8.85193e-16
8.07982e-16
1.0583e-15
1.29877e-15
1.29315e-15
1.19629e-15
1.17637e-15
1.29576e-15
1.26047e-15
1.12437e-15
9.60727e-16
8.20391e-16
8.58808e-16
8.14135e-16
8.99736e-16
1.14542e-15
1.5798e-15
7.98178e-16
4.98427e-16
8.92444e-16
6.90139e-16
8.48491e-16
1.0255e-15
1.32447e-15
1.40704e-15
1.25264e-15
1.15128e-15
1.40532e-15
1.19164e-15
9.79634e-16
8.98741e-16
7.88037e-16
6.90096e-16
7.98177e-16
8.40541e-16
1.02942e-15
1.52844e-15
1.17132e-15
0
8.02413e-16
6.6562e-16
9.99845e-16
1.09307e-15
1.29344e-15
1.37164e-15
1.39466e-15
1.33769e-15
1.33038e-15
1.17459e-15
9.90627e-16
7.9914e-16
7.01388e-16
7.124e-16
8.4416e-16
9.19225e-16
1.08123e-15
1.43135e-15
0
2.37468e-15
7.59847e-16
1.0098e-15
1.05912e-15
1.16775e-15
1.3511e-15
1.31964e-15
1.50865e-15
1.53921e-15
1.22642e-15
1.0821e-15
8.45257e-16
7.35454e-16
8.34416e-16
7.93984e-16
8.35173e-16
8.6737e-16
1.12017e-15
1.41206e-15
)
;

boundaryField
{
    movingWall
    {
        type            zeroGradient;
    }
    fixedWalls
    {
        type            zeroGradient;
    }
    frontAndBack
    {
        type            empty;
    }
}


// ************************************************************************* //
