/*--------------------------------*- C++ -*----------------------------------*\
| =========                 |                                                 |
| \\      /  F ield         | OpenFOAM: The Open Source CFD Toolbox           |
|  \\    /   O peration     | Version:  2312                                  |
|   \\  /    A nd           | Website:  www.openfoam.com                      |
|    \\/     M anipulation  |                                                 |
\*---------------------------------------------------------------------------*/
FoamFile
{
    version     2.0;
    format      ascii;
    arch        "LSB;label=32;scalar=64";
    class       volVectorField;
    location    "9.875";
    object      vorticityField;
}
// * * * * * * * * * * * * * * * * * * * * * * * * * * * * * * * * * * * * * //

dimensions      [0 0 -1 0 0 0 0];

internalField   nonuniform List<vector> 
400
(
(0 -0 1.2005e-11)
(0 -0 -1.54429e-11)
(0 -0 3.37491e-12)
(0 -0 -7.78043e-13)
(0 -0 1.49957e-13)
(0 -0 2.77602e-14)
(0 -0 1.73423e-14)
(0 -0 4.75521e-15)
(0 -0 -1.0195e-14)
(0 -0 -2.46184e-14)
(0 -0 -1.56156e-14)
(0 -0 5.9278e-14)
(0 -0 6.47066e-14)
(0 -0 8.46853e-14)
(0 -0 5.04289e-14)
(0 -0 4.8091e-14)
(0 -0 6.06173e-15)
(0 -0 1.74545e-15)
(0 -0 -5.28425e-15)
(0 -0 2.53637e-15)
(0 -0 -1.52666e-13)
(0 -0 -9.49407e-13)
(0 -0 3.47232e-13)
(0 -0 -5.02789e-14)
(0 -0 9.455e-14)
(0 -0 3.29847e-14)
(0 -0 9.67438e-14)
(0 -0 9.51931e-14)
(0 -0 8.36975e-14)
(0 -0 4.12912e-14)
(0 -0 4.27977e-14)
(0 -0 1.02753e-14)
(0 -0 -5.10928e-15)
(0 -0 -4.55518e-14)
(0 -0 -7.93747e-15)
(0 -0 -5.1067e-14)
(0 -0 1.55522e-14)
(0 -0 -1.06732e-14)
(0 -0 -4.01342e-14)
(0 -0 1.88275e-14)
(0 -0 -6.5736e-12)
(0 -0 1.32346e-11)
(0 -0 -2.97207e-12)
(0 -0 7.3311e-13)
(0 -0 -1.95356e-13)
(0 -0 2.17904e-14)
(0 -0 -3.19563e-14)
(0 -0 -2.51508e-14)
(0 -0 -2.78988e-14)
(0 -0 -8.36704e-16)
(0 -0 -6.16099e-14)
(0 -0 -4.0389e-15)
(0 -0 -6.68529e-14)
(0 -0 -1.3765e-14)
(0 -0 -1.28425e-16)
(0 -0 6.29717e-14)
(0 -0 5.90444e-14)
(0 -0 -3.57953e-14)
(0 -0 3.06066e-14)
(0 -0 1.40412e-14)
(0 -0 4.19958e-12)
(0 -0 -8.8369e-12)
(0 -0 1.97448e-12)
(0 -0 -4.77615e-13)
(0 -0 6.79393e-14)
(0 -0 -1.14524e-13)
(0 -0 -5.99095e-14)
(0 -0 -5.18673e-14)
(0 -0 -1.02426e-13)
(0 -0 -1.14062e-13)
(0 -0 -3.50897e-14)
(0 -0 -1.218e-13)
(0 -0 -4.03837e-15)
(0 -0 -7.76688e-14)
(0 -0 -8.28618e-14)
(0 -0 -5.82323e-15)
(0 -0 -6.34382e-14)
(0 -0 1.35395e-15)
(0 -0 7.37131e-14)
(0 -0 9.14893e-15)
(0 -0 1.43062e-12)
(0 -0 -2.24268e-12)
(0 -0 3.81152e-13)
(0 -0 -2.30603e-13)
(0 -0 -2.59557e-14)
(0 -0 -1.21138e-13)
(0 -0 -6.36615e-14)
(0 -0 1.04453e-14)
(0 -0 5.09663e-14)
(0 -0 4.44391e-14)
(0 -0 3.89781e-14)
(0 -0 -4.44618e-15)
(0 -0 -4.31691e-14)
(0 -0 -4.41379e-14)
(0 -0 -3.3128e-14)
(0 -0 -1.10118e-13)
(0 -0 -6.15904e-14)
(0 -0 -5.25863e-16)
(0 -0 -4.57872e-14)
(0 -0 -1.38633e-14)
(0 -0 -7.47262e-12)
(0 -0 1.23346e-11)
(0 -0 -2.7767e-12)
(0 -0 7.055e-13)
(0 -0 -2.14014e-14)
(0 -0 1.55519e-13)
(0 -0 5.39976e-14)
(0 -0 -8.36556e-16)
(0 -0 7.55882e-14)
(0 -0 2.65695e-14)
(0 -0 -7.6451e-15)
(0 -0 -1.37961e-14)
(0 -0 -3.20392e-14)
(0 -0 -1.55421e-15)
(0 -0 2.69726e-14)
(0 -0 3.06713e-14)
(0 -0 6.56014e-15)
(0 -0 3.47068e-14)
(0 -0 -1.7514e-15)
(0 -0 -5.2751e-15)
(0 -0 7.71641e-12)
(0 -0 -1.32722e-11)
(0 -0 3.21025e-12)
(0 -0 -6.40343e-13)
(0 -0 2.02577e-13)
(0 -0 4.73038e-14)
(0 -0 9.45503e-14)
(0 -0 5.31696e-14)
(0 -0 -3.64805e-15)
(0 -0 5.32001e-14)
(0 -0 4.77038e-14)
(0 -0 1.636e-14)
(0 -0 2.85623e-14)
(0 -0 6.72722e-14)
(0 -0 3.24679e-14)
(0 -0 2.18124e-14)
(0 -0 5.59175e-14)
(0 -0 6.46634e-14)
(0 -0 6.04086e-14)
(0 -0 -2.48194e-14)
(0 -0 -9.36676e-13)
(0 -0 2.47736e-12)
(0 -0 -6.01948e-13)
(0 -0 1.11238e-13)
(0 -0 -1.33618e-13)
(0 -0 -8.75714e-14)
(0 -0 -9.00209e-14)
(0 -0 -8.67994e-14)
(0 -0 -5.03979e-14)
(0 -0 -4.86099e-14)
(0 -0 -2.26936e-15)
(0 -0 2.63658e-14)
(0 -0 2.73068e-14)
(0 -0 6.56891e-14)
(0 -0 7.51971e-14)
(0 -0 7.99791e-16)
(0 -0 -1.68938e-14)
(0 -0 -1.27501e-15)
(0 -0 2.15391e-14)
(0 -0 9.5282e-15)
(0 -0 -6.44737e-12)
(0 -0 9.93131e-12)
(0 -0 -2.38836e-12)
(0 -0 4.99642e-13)
(0 -0 -1.23151e-13)
(0 -0 1.52006e-14)
(0 -0 2.2441e-15)
(0 -0 -2.34809e-15)
(0 -0 -1.70136e-15)
(0 -0 -7.41369e-18)
(0 -0 -5.47817e-14)
(0 -0 5.637e-16)
(0 -0 -5.14334e-15)
(0 -0 -5.00214e-14)
(0 -0 5.03101e-15)
(0 -0 -1.20412e-15)
(0 -0 -2.53366e-14)
(0 -0 -5.24132e-14)
(0 -0 2.95121e-15)
(0 -0 -3.11638e-14)
(0 -0 1.20668e-11)
(0 -0 -1.66263e-11)
(0 -0 3.82194e-12)
(0 -0 -9.44033e-13)
(0 -0 2.07965e-13)
(0 -0 -1.42963e-14)
(0 -0 7.20037e-14)
(0 -0 3.23933e-14)
(0 -0 -2.78114e-14)
(0 -0 5.46129e-14)
(0 -0 9.19439e-15)
(0 -0 -2.81615e-14)
(0 -0 -6.57733e-14)
(0 -0 -5.93005e-14)
(0 -0 -8.29619e-14)
(0 -0 -4.80552e-14)
(0 -0 9.70559e-14)
(0 -0 -1.12311e-15)
(0 -0 -6.96959e-14)
(0 -0 6.32464e-15)
(0 -0 -1.40747e-11)
(0 -0 1.5325e-11)
(0 -0 -3.57849e-12)
(0 -0 7.76418e-13)
(0 -0 -2.81118e-13)
(0 -0 -5.70317e-14)
(0 -0 -1.21225e-13)
(0 -0 -4.59413e-14)
(0 -0 -2.75077e-14)
(0 -0 -5.55809e-14)
(0 -0 2.29629e-15)
(0 -0 2.92707e-14)
(0 -0 4.32576e-14)
(0 -0 4.27668e-14)
(0 -0 3.75237e-14)
(0 -0 3.05833e-15)
(0 -0 -7.19884e-14)
(0 -0 -7.96633e-14)
(0 -0 -2.54968e-14)
(0 -0 1.79154e-14)
(0 -0 7.69433e-12)
(0 -0 -7.5908e-12)
(0 -0 1.82623e-12)
(0 -0 -3.51412e-13)
(0 -0 1.63635e-13)
(0 -0 3.93023e-14)
(0 -0 7.51955e-14)
(0 -0 1.23966e-13)
(0 -0 9.95991e-14)
(0 -0 2.90569e-14)
(0 -0 3.13758e-14)
(0 -0 1.25277e-15)
(0 -0 5.91284e-14)
(0 -0 1.25999e-13)
(0 -0 -4.52215e-15)
(0 -0 1.04442e-13)
(0 -0 -1.07933e-14)
(0 -0 4.80708e-14)
(0 -0 9.96454e-15)
(0 -0 1.96437e-14)
(0 -0 3.34736e-12)
(0 -0 -3.48092e-12)
(0 -0 7.78304e-13)
(0 -0 -1.67956e-13)
(0 -0 5.84324e-14)
(0 -0 2.11726e-14)
(0 -0 1.08607e-14)
(0 -0 1.3549e-14)
(0 -0 5.95466e-16)
(0 -0 -9.6615e-14)
(0 -0 -6.63601e-14)
(0 -0 -2.50579e-14)
(0 -0 -2.13144e-14)
(0 -0 -2.02089e-14)
(0 -0 -5.04102e-15)
(0 -0 -1.00712e-14)
(0 -0 4.40771e-15)
(0 -0 6.6438e-14)
(0 -0 3.27516e-14)
(0 -0 -6.64546e-15)
(0 -0 -1.00002e-11)
(0 -0 1.22483e-11)
(0 -0 -2.81759e-12)
(0 -0 6.60558e-13)
(0 -0 -2.05963e-13)
(0 -0 -3.00541e-14)
(0 -0 -4.81685e-14)
(0 -0 -6.55993e-14)
(0 -0 -1.14512e-13)
(0 -0 -2.67717e-14)
(0 -0 -4.00362e-14)
(0 -0 -9.34449e-15)
(0 -0 -2.72671e-14)
(0 -0 -8.67948e-14)
(0 -0 -9.56846e-15)
(0 -0 -6.81962e-14)
(0 -0 -4.54661e-16)
(0 -0 -5.14875e-14)
(0 -0 -1.10578e-15)
(0 -0 -1.04248e-14)
(0 -0 1.12135e-11)
(0 -0 -1.50148e-11)
(0 -0 3.64432e-12)
(0 -0 -7.33349e-13)
(0 -0 2.74696e-13)
(0 -0 6.48544e-14)
(0 -0 1.10797e-13)
(0 -0 7.09663e-14)
(0 -0 5.70425e-14)
(0 -0 3.49572e-14)
(0 -0 6.54283e-14)
(0 -0 4.58187e-14)
(0 -0 6.91434e-14)
(0 -0 1.66761e-14)
(0 -0 -2.33667e-14)
(0 -0 -9.34792e-15)
(0 -0 5.53796e-14)
(0 -0 -9.30867e-15)
(0 -0 -3.42529e-14)
(0 -0 4.66917e-14)
(0 -0 -5.16789e-12)
(0 -0 8.2819e-12)
(0 -0 -1.90673e-12)
(0 -0 4.60928e-13)
(0 -0 -1.13632e-13)
(0 -0 -5.65732e-14)
(0 -0 -5.76149e-14)
(0 -0 -8.61471e-14)
(0 -0 2.05603e-14)
(0 -0 5.01297e-14)
(0 -0 1.58962e-14)
(0 -0 4.64931e-14)
(0 -0 6.25595e-14)
(0 -0 4.43188e-14)
(0 -0 -1.05162e-14)
(0 -0 -5.95959e-14)
(0 -0 -6.60522e-14)
(0 -0 -1.47013e-14)
(0 -0 -2.52554e-14)
(0 -0 -3.57225e-14)
(0 -0 -1.4774e-12)
(0 -0 4.14239e-12)
(0 -0 -1.05144e-12)
(0 -0 1.42635e-13)
(0 -0 -4.55539e-14)
(0 -0 5.41088e-16)
(0 -0 -7.21559e-14)
(0 -0 5.63654e-14)
(0 -0 6.69026e-14)
(0 -0 9.33237e-15)
(0 -0 6.87719e-14)
(0 -0 1.08213e-13)
(0 -0 1.47148e-15)
(0 -0 -6.61786e-14)
(0 -0 -1.96766e-16)
(0 -0 -1.03762e-14)
(0 -0 -1.38996e-14)
(0 -0 4.9329e-15)
(0 -0 3.40072e-14)
(0 -0 -1.01296e-15)
(0 -0 4.56434e-12)
(0 -0 -1.23682e-11)
(0 -0 2.83929e-12)
(0 -0 -6.61068e-13)
(0 -0 2.02759e-13)
(0 -0 2.84219e-14)
(0 -0 8.71473e-14)
(0 -0 2.20152e-14)
(0 -0 8.1857e-14)
(0 -0 9.34931e-14)
(0 -0 4.70481e-14)
(0 -0 6.97661e-14)
(0 -0 8.12127e-14)
(0 -0 7.77237e-14)
(0 -0 5.31503e-14)
(0 -0 4.46065e-14)
(0 -0 -8.74048e-15)
(0 -0 1.21375e-15)
(0 -0 8.64404e-14)
(0 -0 2.25331e-14)
(0 -0 -2.68074e-12)
(0 -0 4.18552e-12)
(0 -0 -1.07829e-12)
(0 -0 1.22988e-13)
(0 -0 -1.74065e-13)
(0 -0 -6.7222e-14)
(0 -0 -1.19466e-13)
(0 -0 -1.52718e-13)
(0 -0 -2.09765e-13)
(0 -0 -9.76717e-14)
(0 -0 -5.89535e-14)
(0 -0 -1.3555e-13)
(0 -0 -8.60772e-14)
(0 -0 -9.03982e-14)
(0 -0 -8.73591e-14)
(0 -0 6.36313e-14)
(0 -0 7.91942e-15)
(0 -0 -4.14351e-15)
(0 -0 -4.93842e-14)
(0 -0 3.41151e-14)
(0 -0 -6.55317e-12)
(0 -0 1.01665e-11)
(0 -0 -2.12124e-12)
(0 -0 5.98154e-13)
(0 -0 -6.33976e-14)
(0 -0 5.30262e-14)
(0 -0 2.35606e-14)
(0 -0 5.45524e-14)
(0 -0 4.52206e-14)
(0 -0 3.18901e-14)
(0 -0 1.28913e-14)
(0 -0 6.43264e-16)
(0 -0 -5.72842e-14)
(0 -0 -7.62929e-15)
(0 -0 1.93671e-14)
(0 -0 -5.17379e-14)
(0 -0 9.0211e-15)
(0 -0 3.88077e-15)
(0 -0 9.29716e-16)
(0 -0 3.23701e-15)
)
;

boundaryField
{
    movingWall
    {
        type            calculated;
        value           nonuniform List<vector> 
20
(
(0 -0 -1.49584e-11)
(0 -0 1.26972e-11)
(0 -0 -2.01741e-12)
(0 -0 9.43624e-13)
(0 -0 1.93255e-13)
(0 -0 2.92375e-13)
(0 -0 2.62909e-13)
(0 -0 3.11205e-13)
(0 -0 3.01873e-13)
(0 -0 2.71239e-13)
(0 -0 1.01709e-13)
(0 -0 1.3387e-13)
(0 -0 1.30153e-13)
(0 -0 8.11886e-14)
(0 -0 3.6671e-14)
(0 -0 -8.63457e-14)
(0 -0 9.0211e-15)
(0 -0 3.88077e-15)
(0 -0 4.53386e-14)
(0 -0 3.23701e-15)
)
;
    }
    fixedWalls
    {
        type            calculated;
        value           nonuniform List<vector> 
60
(
(0 -0 6.54033e-11)
(0 -0 4.36767e-12)
(0 -0 -5.63202e-11)
(0 -0 3.75227e-11)
(0 -0 9.04673e-12)
(0 -0 -5.24174e-11)
(0 -0 5.70328e-11)
(0 -0 -1.04969e-11)
(0 -0 -4.2658e-11)
(0 -0 7.08881e-11)
(0 -0 -6.59583e-11)
(0 -0 3.29125e-11)
(0 -0 1.47874e-11)
(0 -0 -5.25375e-11)
(0 -0 6.48288e-11)
(0 -0 -3.52309e-11)
(0 -0 -1.81721e-11)
(0 -0 5.26709e-11)
(0 -0 -1.82032e-11)
(0 -0 -4.26505e-11)
(0 -0 8.17478e-15)
(0 -0 2.93141e-14)
(0 -0 6.79489e-15)
(0 -0 -1.00624e-14)
(0 -0 -1.48586e-14)
(0 -0 -3.41051e-15)
(0 -0 -5.07908e-14)
(0 -0 -3.37041e-14)
(0 -0 -3.74655e-14)
(0 -0 2.41906e-14)
(0 -0 7.72578e-15)
(0 -0 -6.48432e-15)
(0 -0 -1.07715e-14)
(0 -0 7.06158e-15)
(0 -0 6.22702e-14)
(0 -0 -2.91644e-14)
(0 -0 -1.29233e-15)
(0 -0 1.43761e-14)
(0 -0 2.28449e-14)
(0 -0 5.32545e-16)
(0 -0 2.02563e-11)
(0 -0 -1.8033e-11)
(0 -0 3.3305e-12)
(0 -0 -9.82783e-13)
(0 -0 -4.49825e-14)
(0 -0 -1.59677e-13)
(0 -0 -1.60293e-13)
(0 -0 -1.28472e-13)
(0 -0 -1.0195e-14)
(0 -0 -2.46184e-14)
(0 -0 -1.56156e-14)
(0 -0 9.38857e-14)
(0 -0 -3.39124e-14)
(0 -0 1.81006e-13)
(0 -0 8.50366e-14)
(0 -0 1.71517e-13)
(0 -0 6.06173e-15)
(0 -0 9.05633e-14)
(0 -0 8.35336e-14)
(0 -0 -4.18725e-14)
)
;
    }
    frontAndBack
    {
        type            empty;
    }
}


// ************************************************************************* //
