/*--------------------------------*- C++ -*----------------------------------*\
| =========                 |                                                 |
| \\      /  F ield         | OpenFOAM: The Open Source CFD Toolbox           |
|  \\    /   O peration     | Version:  2312                                  |
|   \\  /    A nd           | Website:  www.openfoam.com                      |
|    \\/     M anipulation  |                                                 |
\*---------------------------------------------------------------------------*/
FoamFile
{
    version     2.0;
    format      ascii;
    arch        "LSB;label=32;scalar=64";
    class       volVectorField;
    location    "9.875";
    object      zeroGradient(U);
}
// * * * * * * * * * * * * * * * * * * * * * * * * * * * * * * * * * * * * * //

dimensions      [0 1 -1 0 0 0 0];

internalField   nonuniform List<vector> 
400
(
(-1 1.66151e-13 0)
(-1 -3.55304e-14 0)
(-1 8.46904e-15 0)
(-1 -1.7813e-15 0)
(-1 4.17561e-16 0)
(-1 -1.06825e-17 0)
(-1 1.53062e-16 0)
(-1 1.62741e-16 0)
(-1 2.00614e-16 0)
(-1 6.07911e-17 0)
(-1 -4.557e-17 0)
(-1 -9.53648e-17 0)
(-1 5.10845e-18 0)
(-1 9.60029e-18 0)
(-1 3.88097e-17 0)
(-1 -2.82118e-17 0)
(-1 -2.23813e-17 0)
(-1 3.24055e-17 0)
(-1 -4.9268e-18 0)
(-1 -2.04369e-17 0)
(-1 1.40363e-14 0)
(-1 -3.0946e-15 0)
(-1 7.47479e-16 0)
(-1 -1.64383e-16 0)
(-1 -2.63607e-17 0)
(-1 -3.20343e-17 0)
(-1 3.24352e-17 0)
(-1 1.22252e-16 0)
(-1 1.71214e-16 0)
(-1 1.46075e-16 0)
(-1 4.20253e-17 0)
(-1 3.19513e-17 0)
(-1 1.44778e-16 0)
(-1 -1.91415e-17 0)
(-1 -3.96896e-17 0)
(-1 -9.85162e-17 0)
(-1 -8.25826e-18 0)
(-1 5.70061e-17 0)
(-1 -1.1499e-16 0)
(-1 -7.32854e-17 0)
(-1 -1.5476e-13 0)
(-1 3.31873e-14 0)
(-1 -7.77733e-15 0)
(-1 1.84033e-15 0)
(-1 -1.75179e-16 0)
(-1 1.57814e-16 0)
(-1 4.27246e-17 0)
(-1 1.09302e-16 0)
(-1 6.22675e-17 0)
(-1 1.01365e-16 0)
(-1 5.39005e-17 0)
(-1 2.73665e-17 0)
(-1 1.35115e-17 0)
(-1 -9.90614e-17 0)
(-1 -1.24138e-16 0)
(-1 -1.00346e-16 0)
(-1 -3.65224e-17 0)
(-1 -5.20025e-17 0)
(-1 -1.23425e-16 0)
(-1 -1.69872e-17 0)
(-1 1.03565e-13 0)
(-1 -2.25375e-14 0)
(-1 5.16661e-15 0)
(-1 -1.16634e-15 0)
(-1 3.90458e-16 0)
(-1 5.51558e-17 0)
(-1 5.8369e-17 0)
(-1 -1.83776e-18 0)
(-1 8.17973e-17 0)
(-1 5.81028e-17 0)
(-1 2.53782e-17 0)
(-1 -2.17437e-17 0)
(-1 -1.08416e-16 0)
(-1 -6.21273e-17 0)
(-1 -7.19525e-17 0)
(-1 -7.75937e-17 0)
(-1 -1.30185e-16 0)
(-1 -1.69874e-16 0)
(-1 -1.16645e-16 0)
(-1 2.5156e-17 0)
(-1 2.36333e-14 0)
(-1 -5.26126e-15 0)
(-1 1.20644e-15 0)
(-1 -3.65545e-16 0)
(-1 -1.5391e-17 0)
(-1 -8.30011e-17 0)
(-1 -1.42566e-16 0)
(-1 -1.77515e-16 0)
(-1 -3.81134e-17 0)
(-1 6.10973e-17 0)
(-1 1.35227e-16 0)
(-1 1.79828e-16 0)
(-1 9.07651e-17 0)
(-1 1.91877e-17 0)
(-1 -7.95637e-17 0)
(-1 -4.10419e-17 0)
(-1 -9.65423e-17 0)
(-1 -1.14845e-16 0)
(-1 -1.01801e-16 0)
(-1 -3.06162e-17 0)
(-1 -1.39717e-13 0)
(-1 3.02964e-14 0)
(-1 -7.15517e-15 0)
(-1 1.44517e-15 0)
(-1 -3.71219e-16 0)
(-1 1.46951e-16 0)
(-1 9.97681e-17 0)
(-1 1.44825e-16 0)
(-1 9.14025e-17 0)
(-1 8.75555e-17 0)
(-1 8.60472e-17 0)
(-1 1.11045e-17 0)
(-1 -5.19134e-17 0)
(-1 -3.82366e-17 0)
(-1 -6.74555e-17 0)
(-1 -3.95611e-17 0)
(-1 -3.17925e-17 0)
(-1 2.60403e-17 0)
(-1 4.42247e-17 0)
(-1 8.52629e-18 0)
(-1 1.53085e-13 0)
(-1 -3.39083e-14 0)
(-1 7.89469e-15 0)
(-1 -1.80581e-15 0)
(-1 4.07059e-16 0)
(-1 -5.1091e-17 0)
(-1 6.69451e-17 0)
(-1 8.12603e-17 0)
(-1 5.65401e-17 0)
(-1 4.47798e-17 0)
(-1 4.64402e-17 0)
(-1 -2.0283e-17 0)
(-1 -6.10102e-17 0)
(-1 -5.71063e-18 0)
(-1 6.96107e-17 0)
(-1 4.79183e-17 0)
(-1 1.66841e-17 0)
(-1 6.49922e-17 0)
(-1 1.21217e-16 0)
(-1 1.26977e-16 0)
(-1 -2.96982e-14 0)
(-1 6.50782e-15 0)
(-1 -1.40093e-15 0)
(-1 4.88342e-16 0)
(-1 -1.74966e-17 0)
(-1 -3.46884e-17 0)
(-1 -8.00593e-17 0)
(-1 -1.21746e-16 0)
(-1 -1.34901e-16 0)
(-1 -8.36236e-17 0)
(-1 -7.88994e-17 0)
(-1 -1.06317e-16 0)
(-1 -8.62922e-17 0)
(-1 -1.043e-16 0)
(-1 2.84979e-17 0)
(-1 1.0557e-16 0)
(-1 3.64958e-17 0)
(-1 -6.33686e-17 0)
(-1 2.37457e-17 0)
(-1 1.52023e-16 0)
(-1 -1.12337e-13 0)
(-1 2.50953e-14 0)
(-1 -5.97678e-15 0)
(-1 1.21162e-15 0)
(-1 -4.38267e-16 0)
(-1 -1.98836e-17 0)
(-1 -1.5211e-17 0)
(-1 2.55743e-18 0)
(-1 -3.86919e-17 0)
(-1 -1.44561e-17 0)
(-1 -3.8766e-17 0)
(-1 -2.01725e-17 0)
(-1 -3.3129e-17 0)
(-1 -7.16059e-17 0)
(-1 8.75843e-18 0)
(-1 -2.12958e-17 0)
(-1 -3.28275e-18 0)
(-1 -3.61092e-18 0)
(-1 1.46864e-17 0)
(-1 2.59012e-17 0)
(-1 1.82574e-13 0)
(-1 -4.04928e-14 0)
(-1 9.26372e-15 0)
(-1 -2.27339e-15 0)
(-1 3.65485e-16 0)
(-1 -1.93743e-16 0)
(-1 -4.85293e-17 0)
(-1 -1.58073e-17 0)
(-1 4.35296e-18 0)
(-1 -2.28703e-17 0)
(-1 8.38119e-18 0)
(-1 6.90736e-17 0)
(-1 -2.18368e-18 0)
(-1 -4.65581e-17 0)
(-1 -5.30877e-17 0)
(-1 -6.30258e-17 0)
(-1 8.46122e-18 0)
(-1 9.43816e-17 0)
(-1 -2.76991e-18 0)
(-1 -6.04764e-17 0)
(-1 -1.6144e-13 0)
(-1 3.45161e-14 0)
(-1 -8.19016e-15 0)
(-1 1.71277e-15 0)
(-1 -4.2598e-16 0)
(-1 -1.42123e-17 0)
(-1 -1.83145e-16 0)
(-1 -1.42262e-16 0)
(-1 -1.00457e-16 0)
(-1 -1.46289e-16 0)
(-1 -1.14165e-16 0)
(-1 -1.23326e-16 0)
(-1 -9.25086e-17 0)
(-1 3.81997e-17 0)
(-1 6.41086e-17 0)
(-1 1.42386e-16 0)
(-1 9.46918e-17 0)
(-1 -3.53966e-17 0)
(-1 -1.5984e-16 0)
(-1 -1.93144e-17 0)
(-1 7.84865e-14 0)
(-1 -1.67221e-14 0)
(-1 3.93382e-15 0)
(-1 -8.99245e-16 0)
(-1 1.48656e-16 0)
(-1 -7.60505e-17 0)
(-1 -4.21772e-19 0)
(-1 1.33803e-16 0)
(-1 1.55034e-16 0)
(-1 4.55926e-17 0)
(-1 -9.64976e-17 0)
(-1 -1.8275e-16 0)
(-1 -8.39699e-17 0)
(-1 1.37483e-16 0)
(-1 9.18175e-17 0)
(-1 9.22614e-17 0)
(-1 5.2033e-17 0)
(-1 -1.5672e-17 0)
(-1 -9.35983e-18 0)
(-1 8.39734e-17 0)
(-1 3.5681e-14 0)
(-1 -7.35733e-15 0)
(-1 1.68492e-15 0)
(-1 -3.87445e-16 0)
(-1 5.35785e-18 0)
(-1 -7.41714e-17 0)
(-1 -5.39665e-17 0)
(-1 3.44359e-17 0)
(-1 8.15238e-17 0)
(-1 4.03905e-17 0)
(-1 -7.14744e-17 0)
(-1 -8.11098e-17 0)
(-1 -5.1003e-17 0)
(-1 -2.32037e-17 0)
(-1 1.7959e-17 0)
(-1 -7.36139e-17 0)
(-1 -8.27531e-17 0)
(-1 -2.95368e-17 0)
(-1 3.95257e-17 0)
(-1 2.69289e-17 0)
(-1 -1.32292e-13 0)
(-1 2.84955e-14 0)
(-1 -6.5571e-15 0)
(-1 1.67483e-15 0)
(-1 -2.22562e-16 0)
(-1 1.57303e-16 0)
(-1 1.89981e-17 0)
(-1 -5.33308e-17 0)
(-1 -9.4894e-17 0)
(-1 -1.14246e-16 0)
(-1 -9.15604e-17 0)
(-1 2.74928e-17 0)
(-1 8.60453e-17 0)
(-1 2.58725e-17 0)
(-1 3.12487e-17 0)
(-1 -6.98121e-17 0)
(-1 -1.08612e-16 0)
(-1 -7.43588e-17 0)
(-1 -8.13863e-17 0)
(-1 -8.54166e-17 0)
(-1 1.66612e-13 0)
(-1 -3.63167e-14 0)
(-1 8.60304e-15 0)
(-1 -1.77083e-15 0)
(-1 4.56391e-16 0)
(-1 -1.0807e-16 0)
(-1 2.07326e-17 0)
(-1 -8.43019e-17 0)
(-1 -8.27565e-17 0)
(-1 -5.59785e-17 0)
(-1 -4.23495e-18 0)
(-1 5.62037e-17 0)
(-1 1.82901e-16 0)
(-1 2.05537e-16 0)
(-1 7.86122e-17 0)
(-1 -2.81298e-17 0)
(-1 -1.4867e-17 0)
(-1 -1.64347e-17 0)
(-1 -1.07954e-16 0)
(-1 -8.79128e-17 0)
(-1 -9.3295e-14 0)
(-1 2.07453e-14 0)
(-1 -4.78393e-15 0)
(-1 1.13583e-15 0)
(-1 -1.74654e-16 0)
(-1 -4.88247e-19 0)
(-1 -1.98285e-16 0)
(-1 -3.05587e-16 0)
(-1 -2.46604e-16 0)
(-1 -9.9984e-17 0)
(-1 -1.63581e-17 0)
(-1 5.89779e-17 0)
(-1 1.77523e-16 0)
(-1 1.42472e-16 0)
(-1 7.86097e-17 0)
(-1 3.73103e-17 0)
(-1 2.47517e-17 0)
(-1 -8.11105e-17 0)
(-1 -1.22262e-16 0)
(-1 -6.26142e-17 0)
(-1 -5.20032e-14 0)
(-1 1.09373e-14 0)
(-1 -2.7188e-15 0)
(-1 4.22912e-16 0)
(-1 -2.08248e-16 0)
(-1 -3.26273e-17 0)
(-1 -2.02837e-16 0)
(-1 -2.12085e-16 0)
(-1 -1.81283e-16 0)
(-1 -8.51605e-17 0)
(-1 -8.79598e-17 0)
(-1 6.04579e-17 0)
(-1 1.81016e-16 0)
(-1 7.51728e-17 0)
(-1 6.13312e-17 0)
(-1 7.32051e-17 0)
(-1 -4.24303e-17 0)
(-1 -6.57906e-17 0)
(-1 6.89874e-18 0)
(-1 3.23083e-18 0)
(-1 1.49431e-13 0)
(-1 -3.27725e-14 0)
(-1 7.58899e-15 0)
(-1 -1.94012e-15 0)
(-1 1.65151e-16 0)
(-1 -1.83572e-16 0)
(-1 -9.27311e-17 0)
(-1 -1.25251e-16 0)
(-1 -1.4363e-16 0)
(-1 -1.19833e-16 0)
(-1 -2.18499e-17 0)
(-1 7.95973e-17 0)
(-1 1.3371e-16 0)
(-1 7.8573e-17 0)
(-1 9.77955e-17 0)
(-1 6.79751e-17 0)
(-1 1.75955e-18 0)
(-1 -1.94296e-17 0)
(-1 1.38971e-17 0)
(-1 3.18225e-17 0)
(-1 -4.8354e-14 0)
(-1 1.01625e-14 0)
(-1 -2.43302e-15 0)
(-1 4.638e-16 0)
(-1 -1.18937e-16 0)
(-1 7.84022e-17 0)
(-1 2.19942e-17 0)
(-1 -3.20605e-17 0)
(-1 -1.49937e-16 0)
(-1 -2.3236e-16 0)
(-1 -4.24518e-17 0)
(-1 -8.74299e-18 0)
(-1 -4.26975e-17 0)
(-1 -5.63637e-17 0)
(-1 -1.33528e-16 0)
(-1 -1.16803e-16 0)
(-1 -3.93159e-17 0)
(-1 -3.76084e-17 0)
(-1 -8.07509e-17 0)
(-1 1.06504e-17 0)
(-1 -1.12318e-13 0)
(-1 2.40185e-14 0)
(-1 -5.77463e-15 0)
(-1 1.17978e-15 0)
(-1 -3.35193e-16 0)
(-1 3.7072e-18 0)
(-1 -7.59816e-17 0)
(-1 -3.17376e-17 0)
(-1 -7.25584e-17 0)
(-1 -1.21633e-16 0)
(-1 -2.47078e-17 0)
(-1 7.28053e-18 0)
(-1 -1.82752e-17 0)
(-1 -2.34601e-17 0)
(-1 -9.45681e-17 0)
(-1 -1.0084e-16 0)
(-1 -6.98464e-17 0)
(-1 -1.06285e-17 0)
(-1 -3.10387e-17 0)
(-1 -1.33136e-18 0)
)
;

boundaryField
{
    movingWall
    {
        type            zeroGradient;
    }
    fixedWalls
    {
        type            zeroGradient;
    }
    frontAndBack
    {
        type            empty;
    }
}


// ************************************************************************* //
