/*--------------------------------*- C++ -*----------------------------------*\
| =========                 |                                                 |
| \\      /  F ield         | OpenFOAM: The Open Source CFD Toolbox           |
|  \\    /   O peration     | Version:  2312                                  |
|   \\  /    A nd           | Website:  www.openfoam.com                      |
|    \\/     M anipulation  |                                                 |
\*---------------------------------------------------------------------------*/
FoamFile
{
    version     2.0;
    format      ascii;
    arch        "LSB;label=32;scalar=64";
    class       volVectorField;
    location    "4.75";
    object      diffU;
}
// * * * * * * * * * * * * * * * * * * * * * * * * * * * * * * * * * * * * * //

dimensions      [0 1 -1 0 0 0 0];

internalField   nonuniform List<vector> 
400
(
(0 0 0)
(1.09709e-11 -7.72477e-09 0)
(3.33111e-12 -5.89066e-09 0)
(6.57563e-12 -6.32645e-09 0)
(5.18363e-12 -6.22301e-09 0)
(5.56954e-12 -6.24762e-09 0)
(5.39724e-12 -6.24178e-09 0)
(5.4271e-12 -6.24318e-09 0)
(5.40357e-12 -6.24285e-09 0)
(5.40157e-12 -6.24293e-09 0)
(5.39646e-12 -6.24291e-09 0)
(5.39391e-12 -6.24292e-09 0)
(5.39191e-12 -6.24291e-09 0)
(5.39013e-12 -6.24292e-09 0)
(5.38891e-12 -6.24292e-09 0)
(5.38825e-12 -6.24292e-09 0)
(5.3878e-12 -6.24292e-09 0)
(5.38736e-12 -6.24292e-09 0)
(5.38736e-12 -6.24292e-09 0)
(5.38702e-12 -6.24292e-09 0)
(1.51815e-11 -1.249e-08 0)
(3.13327e-12 -4.75809e-09 0)
(6.14109e-12 -6.59476e-09 0)
(5.26668e-12 -6.15915e-09 0)
(5.48483e-12 -6.26267e-09 0)
(5.42122e-12 -6.23816e-09 0)
(5.42133e-12 -6.24401e-09 0)
(5.40912e-12 -6.24264e-09 0)
(5.40279e-12 -6.24297e-09 0)
(5.39813e-12 -6.24289e-09 0)
(5.39446e-12 -6.24291e-09 0)
(5.39235e-12 -6.24291e-09 0)
(5.39058e-12 -6.24291e-09 0)
(5.38947e-12 -6.24291e-09 0)
(5.38813e-12 -6.24291e-09 0)
(5.38791e-12 -6.24291e-09 0)
(5.38736e-12 -6.24292e-09 0)
(5.3868e-12 -6.24292e-09 0)
(5.3868e-12 -6.24292e-09 0)
(5.3868e-12 -6.24292e-09 0)
(-2.94982e-11 -3.97405e-12 0)
(1.24155e-11 -7.72451e-09 0)
(2.57261e-12 -5.89108e-09 0)
(5.98488e-12 -6.32629e-09 0)
(5.20894e-12 -6.223e-09 0)
(5.45475e-12 -6.24757e-09 0)
(5.38913e-12 -6.24176e-09 0)
(5.40523e-12 -6.24316e-09 0)
(5.39679e-12 -6.24284e-09 0)
(5.39524e-12 -6.24292e-09 0)
(5.3928e-12 -6.2429e-09 0)
(5.39124e-12 -6.24291e-09 0)
(5.3898e-12 -6.24291e-09 0)
(5.3888e-12 -6.24291e-09 0)
(5.38813e-12 -6.24291e-09 0)
(5.38758e-12 -6.24291e-09 0)
(5.38758e-12 -6.24291e-09 0)
(5.38702e-12 -6.24292e-09 0)
(5.38702e-12 -6.24292e-09 0)
(5.38725e-12 -6.24292e-09 0)
(4.66245e-11 -1.24704e-08 0)
(-3.01759e-12 -4.76477e-09 0)
(8.50486e-12 -6.59358e-09 0)
(4.63607e-12 -6.15961e-09 0)
(5.57476e-12 -6.26261e-09 0)
(5.32574e-12 -6.23818e-09 0)
(5.40479e-12 -6.244e-09 0)
(5.38747e-12 -6.24263e-09 0)
(5.39313e-12 -6.24296e-09 0)
(5.39124e-12 -6.24289e-09 0)
(5.39091e-12 -6.24291e-09 0)
(5.39013e-12 -6.24291e-09 0)
(5.38913e-12 -6.24291e-09 0)
(5.38869e-12 -6.24291e-09 0)
(5.38825e-12 -6.24291e-09 0)
(5.38758e-12 -6.24291e-09 0)
(5.38725e-12 -6.24291e-09 0)
(5.38736e-12 -6.24292e-09 0)
(5.38725e-12 -6.24292e-09 0)
(5.38714e-12 -6.24292e-09 0)
(-4.06888e-11 -3.26405e-11 0)
(1.4592e-11 -7.71644e-09 0)
(1.81832e-12 -5.89325e-09 0)
(6.14575e-12 -6.32582e-09 0)
(5.14011e-12 -6.22319e-09 0)
(5.4412e-12 -6.24755e-09 0)
(5.3646e-12 -6.24178e-09 0)
(5.39002e-12 -6.24316e-09 0)
(5.38547e-12 -6.24284e-09 0)
(5.38791e-12 -6.24292e-09 0)
(5.3878e-12 -6.2429e-09 0)
(5.38813e-12 -6.24291e-09 0)
(5.38758e-12 -6.24291e-09 0)
(5.3878e-12 -6.24291e-09 0)
(5.38769e-12 -6.24291e-09 0)
(5.38736e-12 -6.24291e-09 0)
(5.38736e-12 -6.24291e-09 0)
(5.3868e-12 -6.24292e-09 0)
(5.38702e-12 -6.24292e-09 0)
(5.38725e-12 -6.24292e-09 0)
(4.95259e-11 -1.24359e-08 0)
(-3.49232e-12 -4.77375e-09 0)
(8.67373e-12 -6.59144e-09 0)
(4.59743e-12 -6.1602e-09 0)
(5.57177e-12 -6.2625e-09 0)
(5.3082e-12 -6.23824e-09 0)
(5.39147e-12 -6.244e-09 0)
(5.3757e-12 -6.24264e-09 0)
(5.38414e-12 -6.24296e-09 0)
(5.38414e-12 -6.24289e-09 0)
(5.38547e-12 -6.24291e-09 0)
(5.38591e-12 -6.24291e-09 0)
(5.3868e-12 -6.24291e-09 0)
(5.38636e-12 -6.24291e-09 0)
(5.3868e-12 -6.24291e-09 0)
(5.38702e-12 -6.24291e-09 0)
(5.38702e-12 -6.24291e-09 0)
(5.38714e-12 -6.24292e-09 0)
(5.38702e-12 -6.24292e-09 0)
(5.38702e-12 -6.24292e-09 0)
(-3.6819e-11 -6.87868e-11 0)
(1.37754e-11 -7.70744e-09 0)
(2.19069e-12 -5.89546e-09 0)
(6.06803e-12 -6.32531e-09 0)
(5.16232e-12 -6.22334e-09 0)
(5.42633e-12 -6.24753e-09 0)
(5.35905e-12 -6.2418e-09 0)
(5.3817e-12 -6.24316e-09 0)
(5.37947e-12 -6.24284e-09 0)
(5.38325e-12 -6.24292e-09 0)
(5.38392e-12 -6.2429e-09 0)
(5.3848e-12 -6.24291e-09 0)
(5.38569e-12 -6.24291e-09 0)
(5.38636e-12 -6.24291e-09 0)
(5.3868e-12 -6.24291e-09 0)
(5.38702e-12 -6.24291e-09 0)
(5.38714e-12 -6.24291e-09 0)
(5.38702e-12 -6.24292e-09 0)
(5.38702e-12 -6.24292e-09 0)
(5.38714e-12 -6.24292e-09 0)
(4.30902e-11 -1.23995e-08 0)
(-2.14762e-12 -4.7826e-09 0)
(8.14293e-12 -6.58934e-09 0)
(4.72467e-12 -6.16073e-09 0)
(5.53557e-12 -6.26239e-09 0)
(5.31597e-12 -6.23828e-09 0)
(5.38436e-12 -6.244e-09 0)
(5.37193e-12 -6.24264e-09 0)
(5.37992e-12 -6.24297e-09 0)
(5.38081e-12 -6.24289e-09 0)
(5.38281e-12 -6.24291e-09 0)
(5.38414e-12 -6.24291e-09 0)
(5.3848e-12 -6.24291e-09 0)
(5.38591e-12 -6.24291e-09 0)
(5.38591e-12 -6.24291e-09 0)
(5.38658e-12 -6.24291e-09 0)
(5.38658e-12 -6.24291e-09 0)
(5.3868e-12 -6.24292e-09 0)
(5.38702e-12 -6.24292e-09 0)
(5.38702e-12 -6.24292e-09 0)
(-2.89213e-11 -1.03942e-10 0)
(1.21771e-11 -7.69904e-09 0)
(2.83884e-12 -5.89747e-09 0)
(5.92637e-12 -6.32485e-09 0)
(5.20561e-12 -6.22347e-09 0)
(5.41267e-12 -6.24752e-09 0)
(5.35949e-12 -6.24181e-09 0)
(5.37792e-12 -6.24317e-09 0)
(5.37703e-12 -6.24285e-09 0)
(5.38036e-12 -6.24292e-09 0)
(5.38214e-12 -6.24291e-09 0)
(5.38325e-12 -6.24291e-09 0)
(5.38458e-12 -6.24291e-09 0)
(5.38569e-12 -6.24291e-09 0)
(5.38614e-12 -6.24291e-09 0)
(5.38614e-12 -6.24291e-09 0)
(5.3868e-12 -6.24291e-09 0)
(5.3868e-12 -6.24292e-09 0)
(5.3868e-12 -6.24292e-09 0)
(5.38714e-12 -6.24292e-09 0)
(3.51388e-11 -1.23658e-08 0)
(-5.35572e-13 -4.79058e-09 0)
(7.51499e-12 -6.58745e-09 0)
(4.87232e-12 -6.16118e-09 0)
(5.49605e-12 -6.2623e-09 0)
(5.32863e-12 -6.23831e-09 0)
(5.38081e-12 -6.244e-09 0)
(5.37237e-12 -6.24265e-09 0)
(5.37814e-12 -6.24297e-09 0)
(5.37992e-12 -6.2429e-09 0)
(5.38214e-12 -6.24292e-09 0)
(5.38325e-12 -6.24291e-09 0)
(5.3848e-12 -6.24291e-09 0)
(5.38525e-12 -6.24291e-09 0)
(5.38591e-12 -6.24291e-09 0)
(5.38614e-12 -6.24291e-09 0)
(5.38636e-12 -6.24292e-09 0)
(5.38658e-12 -6.24292e-09 0)
(5.3868e-12 -6.24292e-09 0)
(5.38714e-12 -6.24292e-09 0)
(-2.13676e-11 -1.35424e-10 0)
(1.06659e-11 -7.69164e-09 0)
(3.43192e-12 -5.89923e-09 0)
(5.79414e-12 -6.32444e-09 0)
(5.24492e-12 -6.22358e-09 0)
(5.40157e-12 -6.2475e-09 0)
(5.3626e-12 -6.24183e-09 0)
(5.37681e-12 -6.24317e-09 0)
(5.37637e-12 -6.24285e-09 0)
(5.37992e-12 -6.24293e-09 0)
(5.38147e-12 -6.24291e-09 0)
(5.38325e-12 -6.24292e-09 0)
(5.38392e-12 -6.24291e-09 0)
(5.38503e-12 -6.24291e-09 0)
(5.38591e-12 -6.24292e-09 0)
(5.38636e-12 -6.24292e-09 0)
(5.38658e-12 -6.24292e-09 0)
(5.3868e-12 -6.24292e-09 0)
(5.38702e-12 -6.24292e-09 0)
(5.38714e-12 -6.24292e-09 0)
(2.84046e-11 -1.23362e-08 0)
(8.07354e-13 -4.79751e-09 0)
(6.99685e-12 -6.58582e-09 0)
(4.99112e-12 -6.16158e-09 0)
(5.46374e-12 -6.26221e-09 0)
(5.33973e-12 -6.23834e-09 0)
(5.37925e-12 -6.244e-09 0)
(5.37392e-12 -6.24266e-09 0)
(5.37881e-12 -6.24298e-09 0)
(5.38036e-12 -6.2429e-09 0)
(5.38214e-12 -6.24292e-09 0)
(5.38369e-12 -6.24292e-09 0)
(5.38436e-12 -6.24292e-09 0)
(5.38525e-12 -6.24292e-09 0)
(5.38569e-12 -6.24292e-09 0)
(5.38636e-12 -6.24292e-09 0)
(5.38658e-12 -6.24292e-09 0)
(5.38658e-12 -6.24292e-09 0)
(5.3868e-12 -6.24292e-09 0)
(5.38702e-12 -6.24292e-09 0)
(-1.56759e-11 -1.62698e-10 0)
(9.53904e-12 -7.68526e-09 0)
(3.86202e-12 -5.90075e-09 0)
(5.69633e-12 -6.32409e-09 0)
(5.27267e-12 -6.22367e-09 0)
(5.39435e-12 -6.24749e-09 0)
(5.36593e-12 -6.24184e-09 0)
(5.37814e-12 -6.24318e-09 0)
(5.37836e-12 -6.24286e-09 0)
(5.38147e-12 -6.24293e-09 0)
(5.38258e-12 -6.24291e-09 0)
(5.38369e-12 -6.24292e-09 0)
(5.3848e-12 -6.24292e-09 0)
(5.38547e-12 -6.24292e-09 0)
(5.38636e-12 -6.24292e-09 0)
(5.38614e-12 -6.24292e-09 0)
(5.38636e-12 -6.24292e-09 0)
(5.3868e-12 -6.24292e-09 0)
(5.38702e-12 -6.24292e-09 0)
(5.38702e-12 -6.24292e-09 0)
(2.36252e-11 -1.23107e-08 0)
(1.74372e-12 -4.80348e-09 0)
(6.63369e-12 -6.58441e-09 0)
(5.07039e-12 -6.16192e-09 0)
(5.4412e-12 -6.26215e-09 0)
(5.3475e-12 -6.23837e-09 0)
(5.37947e-12 -6.24401e-09 0)
(5.37592e-12 -6.24267e-09 0)
(5.38014e-12 -6.24298e-09 0)
(5.3817e-12 -6.24291e-09 0)
(5.38325e-12 -6.24292e-09 0)
(5.38436e-12 -6.24292e-09 0)
(5.38503e-12 -6.24292e-09 0)
(5.38591e-12 -6.24292e-09 0)
(5.38658e-12 -6.24292e-09 0)
(5.38702e-12 -6.24292e-09 0)
(5.38702e-12 -6.24292e-09 0)
(5.38714e-12 -6.24292e-09 0)
(5.38702e-12 -6.24292e-09 0)
(5.38702e-12 -6.24292e-09 0)
(-1.20559e-11 -1.86302e-10 0)
(8.82416e-12 -7.67974e-09 0)
(4.12292e-12 -5.90207e-09 0)
(5.63449e-12 -6.3238e-09 0)
(5.28999e-12 -6.22375e-09 0)
(5.39324e-12 -6.24748e-09 0)
(5.37148e-12 -6.24185e-09 0)
(5.38103e-12 -6.24318e-09 0)
(5.3817e-12 -6.24286e-09 0)
(5.38369e-12 -6.24294e-09 0)
(5.3848e-12 -6.24292e-09 0)
(5.38569e-12 -6.24292e-09 0)
(5.38614e-12 -6.24292e-09 0)
(5.38636e-12 -6.24292e-09 0)
(5.38636e-12 -6.24292e-09 0)
(5.3868e-12 -6.24292e-09 0)
(5.3868e-12 -6.24292e-09 0)
(5.38725e-12 -6.24292e-09 0)
(5.38725e-12 -6.24292e-09 0)
(5.38714e-12 -6.24292e-09 0)
(2.04629e-11 -1.22882e-08 0)
(2.35456e-12 -4.80875e-09 0)
(6.38822e-12 -6.58319e-09 0)
(5.12257e-12 -6.16223e-09 0)
(5.4291e-12 -6.26209e-09 0)
(5.35771e-12 -6.2384e-09 0)
(5.38414e-12 -6.24401e-09 0)
(5.38192e-12 -6.24267e-09 0)
(5.38503e-12 -6.24299e-09 0)
(5.38547e-12 -6.24291e-09 0)
(5.38591e-12 -6.24292e-09 0)
(5.38614e-12 -6.24292e-09 0)
(5.38658e-12 -6.24292e-09 0)
(5.38636e-12 -6.24292e-09 0)
(5.38658e-12 -6.24292e-09 0)
(5.38658e-12 -6.24292e-09 0)
(5.38702e-12 -6.24292e-09 0)
(5.3868e-12 -6.24292e-09 0)
(5.38702e-12 -6.24292e-09 0)
(5.38702e-12 -6.24292e-09 0)
(-1.02673e-11 -2.07437e-10 0)
(8.45279e-12 -7.67479e-09 0)
(4.24327e-12 -5.90328e-09 0)
(5.60707e-12 -6.32355e-09 0)
(5.30576e-12 -6.22384e-09 0)
(5.40157e-12 -6.24748e-09 0)
(5.38147e-12 -6.24186e-09 0)
(5.38936e-12 -6.24319e-09 0)
(5.38813e-12 -6.24287e-09 0)
(5.38836e-12 -6.24294e-09 0)
(5.38825e-12 -6.24292e-09 0)
(5.3878e-12 -6.24292e-09 0)
(5.38769e-12 -6.24292e-09 0)
(5.38747e-12 -6.24292e-09 0)
(5.38736e-12 -6.24292e-09 0)
(5.38736e-12 -6.24292e-09 0)
(5.38702e-12 -6.24292e-09 0)
(5.38702e-12 -6.24292e-09 0)
(5.38702e-12 -6.24292e-09 0)
(5.38714e-12 -6.24292e-09 0)
(1.77226e-11 -1.22673e-08 0)
(2.89435e-12 -4.81368e-09 0)
(6.16973e-12 -6.58214e-09 0)
(5.18585e-12 -6.16254e-09 0)
(5.43354e-12 -6.26206e-09 0)
(5.38214e-12 -6.23842e-09 0)
(5.39835e-12 -6.24401e-09 0)
(5.39357e-12 -6.24268e-09 0)
(5.39224e-12 -6.24299e-09 0)
(5.39047e-12 -6.24291e-09 0)
(5.38924e-12 -6.24292e-09 0)
(5.38836e-12 -6.24292e-09 0)
(5.3878e-12 -6.24292e-09 0)
(5.38736e-12 -6.24292e-09 0)
(5.38714e-12 -6.24292e-09 0)
(5.38714e-12 -6.24292e-09 0)
(5.38636e-12 -6.24292e-09 0)
(5.3868e-12 -6.24292e-09 0)
(5.38702e-12 -6.24292e-09 0)
(5.38702e-12 -6.24292e-09 0)
(-1.06826e-11 -2.26747e-10 0)
(8.41316e-12 -7.67045e-09 0)
(4.20086e-12 -5.9047e-09 0)
(5.69456e-12 -6.32327e-09 0)
(5.34017e-12 -6.22395e-09 0)
(5.4402e-12 -6.24745e-09 0)
(5.39946e-12 -6.24187e-09 0)
(5.40235e-12 -6.24318e-09 0)
(5.39524e-12 -6.24286e-09 0)
(5.39313e-12 -6.24293e-09 0)
(5.39102e-12 -6.24292e-09 0)
(5.39002e-12 -6.24292e-09 0)
(5.38869e-12 -6.24292e-09 0)
(5.38802e-12 -6.24292e-09 0)
(5.38769e-12 -6.24292e-09 0)
(5.38758e-12 -6.24292e-09 0)
(5.38725e-12 -6.24292e-09 0)
(5.38725e-12 -6.24292e-09 0)
(5.38702e-12 -6.24292e-09 0)
(5.38702e-12 -6.24292e-09 0)
(4.61053e-12 -1.22489e-08 0)
(9.75831e-12 -4.81883e-09 0)
(3.59424e-12 -6.58113e-09 0)
(6.39033e-12 -6.16274e-09 0)
(5.17009e-12 -6.26199e-09 0)
(5.53424e-12 -6.23841e-09 0)
(5.38325e-12 -6.244e-09 0)
(5.415e-12 -6.24266e-09 0)
(5.39535e-12 -6.24298e-09 0)
(5.39568e-12 -6.2429e-09 0)
(5.39169e-12 -6.24292e-09 0)
(5.39047e-12 -6.24292e-09 0)
(5.38947e-12 -6.24292e-09 0)
(5.3888e-12 -6.24292e-09 0)
(5.38825e-12 -6.24292e-09 0)
(5.38791e-12 -6.24292e-09 0)
(5.38758e-12 -6.24292e-09 0)
(5.38747e-12 -6.24292e-09 0)
(5.38714e-12 -6.24292e-09 0)
(5.38714e-12 -6.24292e-09 0)
)
;

boundaryField
{
    movingWall
    {
        type            calculated;
        value           uniform (5.38702e-12 -6.24292e-09 0);
    }
    fixedWalls
    {
        type            calculated;
        value           uniform (5.38702e-12 -6.24292e-09 0);
    }
    frontAndBack
    {
        type            empty;
    }
}


// ************************************************************************* //
