/*--------------------------------*- C++ -*----------------------------------*\
| =========                 |                                                 |
| \\      /  F ield         | OpenFOAM: The Open Source CFD Toolbox           |
|  \\    /   O peration     | Version:  2312                                  |
|   \\  /    A nd           | Website:  www.openfoam.com                      |
|    \\/     M anipulation  |                                                 |
\*---------------------------------------------------------------------------*/
FoamFile
{
    version     2.0;
    format      ascii;
    arch        "LSB;label=32;scalar=64";
    class       volScalarField;
    location    "4.75";
    object      divPhi;
}
// * * * * * * * * * * * * * * * * * * * * * * * * * * * * * * * * * * * * * //

dimensions      [0 0 -1 0 0 0 0];

internalField   nonuniform List<scalar> 
400
(
-5.42101e-14
-1.4299e-14
1.45332e-14
-1.12299e-14
1.36607e-14
4.22067e-15
-4.43928e-15
-1.20497e-14
9.26474e-15
-9.30535e-15
-7.63615e-15
2.41556e-14
-1.10589e-14
-3.32591e-17
-8.46925e-15
1.86153e-14
-4.71938e-15
-4.48421e-16
-1.27092e-14
0
0
-1.85002e-14
-1.31213e-14
-1.68831e-14
1.37013e-15
5.96671e-15
8.08692e-15
-2.69636e-14
1.17117e-14
1.20715e-14
-1.65155e-14
2.11719e-14
-2.14736e-14
-1.69678e-14
-2.00368e-14
-9.99823e-15
1.41649e-14
5.4541e-15
-1.49251e-14
0
0
4.58795e-15
-1.48851e-14
-2.45854e-14
2.00127e-14
-2.36046e-15
-4.53497e-15
1.26184e-15
6.48494e-15
3.33374e-14
-9.66292e-15
1.0026e-14
-1.6583e-14
1.11825e-14
7.33841e-15
-2.53678e-15
-2.70115e-14
2.25111e-15
-2.88571e-15
0
0
9.2995e-15
9.86963e-15
-8.99269e-15
1.71432e-14
-2.02897e-14
1.42127e-14
-4.85128e-15
1.26032e-15
1.85343e-14
-2.06135e-14
3.88608e-16
8.04928e-15
-3.24296e-15
1.85938e-14
-1.16341e-14
-3.0042e-16
-4.65579e-15
1.60606e-14
0
2.71051e-14
3.77699e-15
3.24282e-14
7.4438e-15
-1.39749e-14
2.01842e-14
-3.00616e-14
1.92473e-14
1.10296e-14
-2.65668e-14
1.7846e-14
-2.25421e-14
3.58801e-16
3.55201e-15
-2.67806e-14
-1.11175e-14
2.0618e-14
3.8458e-15
-5.2951e-15
0
-2.71051e-14
-1.07294e-14
7.14333e-15
-1.29234e-14
2.19915e-14
7.38202e-15
-1.22693e-14
-1.29694e-15
4.3166e-14
-1.95312e-14
-6.95396e-15
-6.25045e-15
2.24653e-14
-3.50887e-17
-3.76128e-15
-3.34775e-14
1.59759e-15
4.48754e-15
-3.44741e-15
0
2.71051e-14
-2.56515e-14
1.96906e-14
-1.42961e-14
-2.88329e-15
-1.12199e-14
-2.53024e-14
1.6485e-14
8.98808e-15
-1.9592e-15
-2.75583e-15
1.48076e-14
-1.85446e-14
2.03162e-14
-1.54254e-14
1.39996e-14
-8.9488e-15
-1.44785e-14
1.96797e-15
0
-2.71051e-14
1.89942e-14
-1.5629e-14
-9.78181e-16
6.70949e-15
-8.38728e-15
4.80248e-15
-4.82207e-15
-8.36332e-15
-8.59873e-15
4.48906e-15
-1.68162e-14
3.8972e-14
-8.74598e-15
3.56561e-15
5.51284e-15
-2.38508e-14
-1.16802e-14
2.62632e-14
-2.71051e-14
0
-3.512e-14
3.06935e-14
-1.51847e-14
2.14419e-14
-1.33124e-14
1.90849e-14
-1.44926e-14
-1.00077e-14
-1.94933e-14
1.64084e-14
1.75758e-14
1.97423e-14
-2.69639e-14
-1.10991e-14
1.12465e-14
1.838e-14
-2.22623e-14
4.38474e-15
0
2.71051e-14
5.73616e-15
6.39141e-15
-8.8662e-15
7.54359e-16
-2.84878e-14
-1.17592e-14
1.24207e-14
-2.43892e-14
2.14797e-14
-9.32515e-15
-2.56441e-14
5.00312e-15
2.15388e-14
-6.52825e-15
-2.14389e-14
2.68586e-14
-3.98941e-15
1.39458e-14
0
0
-5.5975e-15
1.4776e-14
7.69921e-15
1.36898e-14
-1.17863e-14
-6.10462e-15
8.35097e-15
3.21772e-14
-1.57156e-14
-2.51947e-14
-3.04983e-15
1.4729e-14
5.6892e-15
-2.76618e-15
-3.85776e-15
-7.54559e-15
-1.68645e-15
-1.54921e-14
0
0
7.94821e-15
-2.28318e-14
1.90203e-14
-4.04092e-14
-1.38993e-15
1.03592e-14
-3.17343e-15
3.60797e-15
1.44792e-14
-2.66181e-14
1.91387e-15
1.55807e-14
-2.15013e-14
1.7158e-14
-1.69613e-14
5.5275e-15
-2.26125e-14
1.2166e-14
0
0
-2.90425e-15
4.84229e-15
-4.38404e-15
-2.6697e-14
2.52111e-14
-4.72197e-15
-6.93739e-15
7.62648e-15
3.12912e-16
1.58144e-16
2.08718e-14
-3.18957e-14
2.41634e-14
-9.26402e-15
3.1721e-14
-4.07049e-15
1.68181e-14
2.74131e-14
0
0
-2.39486e-14
1.00457e-14
9.05888e-15
1.19696e-14
-1.87997e-14
9.16174e-15
-2.80182e-14
2.01639e-14
-2.23223e-14
1.52745e-14
-2.38506e-14
-2.4669e-15
-1.65394e-14
4.05808e-15
-1.48872e-14
2.84976e-15
6.79511e-15
1.4445e-14
-2.71051e-14
0
-5.80259e-15
-7.34196e-15
1.1468e-14
1.12965e-14
1.36629e-14
1.84388e-14
6.82772e-15
-2.791e-14
2.16467e-14
1.66466e-15
-1.41888e-14
-1.79212e-14
2.01698e-14
-1.3742e-14
2.65647e-14
5.36126e-15
2.35678e-15
-1.69681e-14
0
0
2.53407e-15
-6.47562e-15
2.00233e-14
2.74094e-14
-1.16104e-14
-7.23775e-15
5.11791e-15
1.49832e-16
-1.00101e-14
-7.31465e-16
1.07809e-14
2.07993e-14
9.31332e-16
6.73974e-15
-6.50597e-15
2.45909e-14
8.051e-15
6.71467e-15
2.71051e-14
0
1.33936e-14
8.91173e-16
-3.45903e-14
-7.47921e-15
-4.07927e-15
1.39572e-14
-6.81415e-16
-3.5149e-15
-8.07831e-15
-1.83443e-14
2.28944e-14
1.43048e-14
-1.95667e-15
8.53735e-16
-3.07869e-15
-1.45598e-14
2.96052e-14
1.50472e-16
0
2.71051e-14
-1.46089e-14
2.56577e-14
-2.82689e-14
-8.74304e-15
-5.21964e-15
-1.21802e-15
-7.83924e-15
-5.96561e-15
-4.54221e-15
-1.80448e-14
-1.34462e-14
9.40398e-15
5.00862e-15
-1.21208e-14
1.61357e-14
1.16459e-14
-5.56708e-15
2.03824e-15
0
0
-6.76143e-15
5.10528e-15
-5.66684e-15
-2.78522e-14
1.04588e-14
3.05317e-15
-2.80881e-14
-1.23625e-14
-2.59553e-15
5.86179e-16
8.47268e-15
5.66369e-17
1.28953e-14
-3.28524e-14
9.20855e-16
4.16432e-15
1.09438e-14
2.34038e-15
-2.71051e-14
0
0
0
-2.71051e-14
2.71051e-14
0
0
0
0
-2.71051e-14
2.71051e-14
0
0
2.71051e-14
-2.71051e-14
0
0
2.71051e-14
0
0
)
;

boundaryField
{
    movingWall
    {
        type            extrapolatedCalculated;
        value           nonuniform List<scalar> 
20
(
0
0
0
-2.71051e-14
2.71051e-14
0
0
0
0
-2.71051e-14
2.71051e-14
0
0
2.71051e-14
-2.71051e-14
0
0
2.71051e-14
0
0
)
;
    }
    fixedWalls
    {
        type            extrapolatedCalculated;
        value           nonuniform List<scalar> 
60
(
-5.42101e-14
0
0
0
2.71051e-14
-2.71051e-14
2.71051e-14
-2.71051e-14
0
2.71051e-14
0
0
0
0
0
0
0
2.71051e-14
0
0
0
0
0
0
0
0
0
-2.71051e-14
0
0
0
0
0
-2.71051e-14
0
2.71051e-14
0
0
-2.71051e-14
0
-5.42101e-14
-1.4299e-14
1.45332e-14
-1.12299e-14
1.36607e-14
4.22067e-15
-4.43928e-15
-1.20497e-14
9.26474e-15
-9.30535e-15
-7.63615e-15
2.41556e-14
-1.10589e-14
-3.32591e-17
-8.46925e-15
1.86153e-14
-4.71938e-15
-4.48421e-16
-1.27092e-14
0
)
;
    }
    frontAndBack
    {
        type            empty;
    }
}


// ************************************************************************* //
