/*--------------------------------*- C++ -*----------------------------------*\
| =========                 |                                                 |
| \\      /  F ield         | OpenFOAM: The Open Source CFD Toolbox           |
|  \\    /   O peration     | Version:  2312                                  |
|   \\  /    A nd           | Website:  www.openfoam.com                      |
|    \\/     M anipulation  |                                                 |
\*---------------------------------------------------------------------------*/
FoamFile
{
    version     2.0;
    format      ascii;
    arch        "LSB;label=32;scalar=64";
    class       volScalarField;
    location    "4.75";
    object      divU;
}
// * * * * * * * * * * * * * * * * * * * * * * * * * * * * * * * * * * * * * //

dimensions      [0 0 -1 0 0 0 0];

internalField   nonuniform List<scalar> 
400
(
-3.93864e-10
6.30706e-10
-3.98658e-10
2.08809e-10
-8.50338e-11
2.60405e-11
-9.85985e-12
2.6108e-12
-1.01981e-12
2.00443e-13
-5.2346e-14
-1.16092e-14
-2.02968e-14
-3.34259e-14
-1.30311e-14
1.75537e-14
6.84578e-15
3.8613e-15
8.34474e-15
0
3.56675e-10
-8.77974e-10
1.71522e-10
-5.00228e-11
1.57251e-11
-1.49369e-12
7.32882e-13
-7.0077e-14
-1.51152e-14
-1.58188e-14
2.10946e-14
-2.17724e-14
1.43344e-15
-2.37696e-14
-1.94228e-14
3.59958e-14
-5.49874e-14
-1.97265e-14
6.43514e-15
2.71051e-14
-8.3386e-10
2.53917e-09
-5.24734e-10
2.17105e-10
-4.69788e-11
1.6086e-11
-3.9692e-12
1.41751e-12
-3.60384e-13
1.35332e-13
-2.49681e-14
2.08833e-16
-2.56025e-14
1.34988e-15
2.6876e-14
9.86167e-15
-1.21282e-15
-1.59169e-14
3.52695e-14
-2.71051e-14
4.16632e-10
-3.00534e-09
5.48174e-10
-2.46012e-10
5.02561e-11
-1.49027e-11
4.57992e-12
-9.57767e-13
4.37629e-13
-6.77297e-14
5.89566e-14
9.65333e-15
-3.09025e-14
1.38286e-14
-1.24486e-14
-2.50135e-14
8.23329e-15
3.76722e-14
6.39058e-15
0
-2.33646e-10
3.35273e-09
-6.30393e-10
2.73641e-10
-5.95748e-11
1.73009e-11
-5.26493e-12
1.40258e-12
-3.89841e-13
1.28673e-13
-1.50323e-14
2.96392e-14
-3.02721e-14
1.3374e-14
-3.54133e-14
9.87353e-15
-2.40422e-14
2.08123e-14
5.52126e-14
-2.71051e-14
-8.86606e-11
-3.18569e-09
5.88375e-10
-2.59341e-10
5.5822e-11
-1.63124e-11
4.90935e-12
-1.21169e-12
3.64118e-13
-9.53158e-14
2.34503e-14
4.41933e-14
-8.93112e-15
-3.24668e-14
2.73599e-14
-4.5927e-15
7.40291e-15
6.12759e-15
1.2905e-14
0
2.64383e-10
3.0155e-09
-5.60465e-10
2.44509e-10
-5.34226e-11
1.54657e-11
-4.73969e-12
1.15818e-12
-2.53481e-13
7.22862e-14
-6.22236e-14
1.65158e-14
4.03558e-14
1.61708e-14
9.97311e-15
-1.81828e-14
-3.62058e-14
3.70059e-15
3.60047e-14
-2.71051e-14
-4.98652e-10
-2.65465e-09
4.85814e-10
-2.142e-10
4.65198e-11
-1.34941e-11
4.02722e-12
-9.91069e-13
3.14108e-13
-1.24204e-13
5.30285e-14
-1.53603e-14
2.90372e-14
-4.47005e-14
-2.94622e-14
6.66416e-14
-5.6062e-14
5.43225e-14
-5.59008e-15
0
6.16477e-10
2.37827e-09
-4.36476e-10
1.9094e-10
-4.17503e-11
1.19842e-11
-3.66617e-12
9.19695e-13
-2.8753e-13
7.21366e-14
-3.01235e-15
-2.37658e-14
1.99766e-14
7.13437e-14
-5.09599e-14
6.27751e-15
2.88946e-14
-3.67312e-14
3.14826e-14
0
-7.65284e-10
-2.02191e-09
3.64568e-10
-1.61285e-10
3.49968e-11
-1.00624e-11
3.1038e-12
-7.88497e-13
1.98197e-13
-4.37114e-14
-6.78082e-15
-4.0261e-14
3.79665e-14
-2.38393e-14
6.84597e-15
-2.34126e-14
-4.46823e-14
3.41246e-14
4.53821e-14
0
8.07243e-10
1.78714e-09
-3.23913e-10
1.41997e-10
-3.103e-11
8.81402e-12
-2.71225e-12
6.56449e-13
-1.8254e-13
1.02439e-13
-3.41431e-14
-2.70347e-14
-3.42872e-14
9.65103e-14
-5.4305e-15
-2.58705e-14
7.86813e-15
5.67348e-14
-2.62003e-14
0
-8.83571e-10
-1.50328e-09
2.6686e-10
-1.18693e-10
2.56854e-11
-7.29901e-12
2.22561e-12
-5.60421e-13
1.55621e-13
-1.03703e-13
1.33158e-14
4.82534e-14
-4.82297e-14
-1.8002e-14
6.23801e-15
-1.53769e-14
4.91567e-15
-3.18256e-14
4.89077e-14
-2.71051e-14
8.61317e-10
1.3567e-09
-2.4411e-10
1.06948e-10
-2.34399e-11
6.59865e-12
-1.98263e-12
4.93312e-13
-9.89388e-14
6.17281e-15
1.38428e-14
-4.16571e-15
3.22064e-14
2.09575e-14
-5.46541e-14
2.20635e-15
1.87011e-14
5.16118e-14
-2.33388e-14
0
-9.00972e-10
-1.1473e-09
2.00616e-10
-8.98278e-11
1.9241e-11
-5.47618e-12
1.64666e-12
-4.07472e-13
1.43037e-13
-5.31983e-14
3.0381e-14
-1.45683e-14
-7.77819e-15
-1.03454e-14
5.10865e-14
1.36941e-14
-2.91941e-14
-2.50653e-15
8.54321e-15
0
8.45732e-10
1.09045e-09
-1.96601e-10
8.55284e-11
-1.88953e-11
5.3944e-12
-1.67102e-12
3.34559e-13
-6.80885e-14
7.24774e-14
3.61671e-14
1.47305e-14
-1.52226e-14
-5.68323e-14
1.01157e-14
-2.86571e-14
1.70319e-14
3.56789e-14
-1.47478e-14
-2.71051e-14
-9.09104e-10
-9.12352e-10
1.5509e-10
-7.0788e-11
1.46889e-11
-4.22444e-12
1.24369e-12
-2.66182e-13
1.05021e-13
-2.56631e-14
3.00056e-14
-1.76398e-15
3.65838e-14
-5.52801e-14
6.02233e-14
2.04746e-15
-2.72029e-14
4.51734e-14
7.37709e-15
0
8.33968e-10
9.58246e-10
-1.7983e-10
7.50476e-11
-1.75034e-11
5.04751e-12
-1.38802e-12
4.58342e-13
-4.94396e-14
9.69045e-14
-3.7389e-15
2.62995e-14
-1.08416e-14
3.42974e-15
5.14752e-15
1.0044e-16
-1.244e-14
-1.34404e-14
2.25566e-14
-2.71051e-14
-9.46725e-10
-7.20797e-10
8.74816e-11
-4.60156e-11
8.25833e-12
-7.57694e-13
6.67141e-13
6.58857e-14
5.27659e-15
-1.74041e-14
-2.89496e-14
-4.10106e-15
1.92124e-14
8.60236e-15
1.8596e-14
-4.20238e-14
-2.37052e-14
6.30658e-14
-1.31382e-14
0
5.3912e-10
9.73669e-10
-1.70643e-10
9.38819e-11
-1.77111e-11
7.4896e-12
-2.12814e-12
6.68849e-13
-2.60173e-13
9.5563e-14
-1.15823e-14
-1.19131e-14
-2.9057e-14
1.80194e-14
-3.2612e-14
1.40926e-15
3.6608e-14
7.5455e-15
-2.92075e-14
0
-6.61933e-10
2.43024e-10
-3.36645e-10
1.75966e-10
-7.46473e-11
2.40693e-11
-8.72783e-12
2.43945e-12
-9.21572e-13
2.1684e-13
-1.35525e-13
5.42101e-14
0
-2.71051e-14
0
-2.71051e-14
0
2.71051e-14
0
-2.71051e-14
)
;

boundaryField
{
    movingWall
    {
        type            extrapolatedCalculated;
        value           nonuniform List<scalar> 
20
(
-6.61933e-10
2.43024e-10
-3.36645e-10
1.75966e-10
-7.46473e-11
2.40693e-11
-8.72783e-12
2.43945e-12
-9.21572e-13
2.1684e-13
-1.35525e-13
5.42101e-14
0
-2.71051e-14
0
-2.71051e-14
0
2.71051e-14
0
-2.71051e-14
)
;
    }
    fixedWalls
    {
        type            extrapolatedCalculated;
        value           nonuniform List<scalar> 
60
(
-3.93864e-10
3.56675e-10
-8.3386e-10
4.16632e-10
-2.33646e-10
-8.86606e-11
2.64383e-10
-4.98652e-10
6.16477e-10
-7.65284e-10
8.07243e-10
-8.83571e-10
8.61317e-10
-9.00972e-10
8.45732e-10
-9.09104e-10
8.33968e-10
-9.46725e-10
5.3912e-10
-6.61933e-10
0
2.71051e-14
-2.71051e-14
0
-2.71051e-14
0
-2.71051e-14
0
0
0
0
-2.71051e-14
0
0
-2.71051e-14
0
-2.71051e-14
0
0
-2.71051e-14
-3.93864e-10
6.30706e-10
-3.98658e-10
2.08809e-10
-8.50338e-11
2.60405e-11
-9.85985e-12
2.6108e-12
-1.01981e-12
2.00443e-13
-5.2346e-14
-1.16092e-14
-2.02968e-14
-3.34259e-14
-1.30311e-14
1.75537e-14
6.84578e-15
3.8613e-15
8.34474e-15
0
)
;
    }
    frontAndBack
    {
        type            empty;
    }
}


// ************************************************************************* //
