/*--------------------------------*- C++ -*----------------------------------*\
| =========                 |                                                 |
| \\      /  F ield         | OpenFOAM: The Open Source CFD Toolbox           |
|  \\    /   O peration     | Version:  2312                                  |
|   \\  /    A nd           | Website:  www.openfoam.com                      |
|    \\/     M anipulation  |                                                 |
\*---------------------------------------------------------------------------*/
FoamFile
{
    version     2.0;
    format      ascii;
    arch        "LSB;label=32;scalar=64";
    class       volScalarField;
    location    "4.75";
    object      enstrophyField;
}
// * * * * * * * * * * * * * * * * * * * * * * * * * * * * * * * * * * * * * //

dimensions      [0 0 -2 0 0 0 0];

internalField   nonuniform List<scalar> 
400
(
1.13129e-13
1.73696e-13
9.79469e-15
5.55833e-16
3.11524e-17
1.80365e-18
9.6743e-20
6.35752e-21
2.32992e-22
3.85329e-23
7.14173e-26
1.34477e-24
3.3401e-25
1.86996e-25
5.38668e-26
2.87546e-26
7.55229e-27
5.14272e-29
5.96284e-29
2.46513e-28
1.11994e-13
1.73682e-13
9.80422e-15
5.53399e-16
3.1238e-17
1.76323e-18
9.95458e-20
5.60529e-21
3.17259e-22
1.80341e-23
9.88714e-25
6.88168e-26
1.55648e-28
1.05857e-29
3.74508e-28
1.2391e-28
3.46292e-28
6.77527e-29
4.89939e-28
4.23216e-28
1.11671e-13
1.72928e-13
9.742e-15
5.48787e-16
3.09135e-17
1.74172e-18
9.8058e-20
5.53548e-21
3.09119e-22
1.8306e-23
7.6586e-25
1.11376e-25
6.565e-29
7.77195e-27
1.2295e-26
3.07422e-27
3.49577e-27
1.39543e-26
3.15107e-27
2.03309e-27
1.12252e-13
1.7256e-13
9.71744e-15
5.47179e-16
3.08122e-17
1.73483e-18
9.77123e-20
5.50455e-21
3.10674e-22
1.70767e-23
1.05715e-24
2.58523e-26
1.12546e-26
4.40831e-27
1.27899e-26
6.30644e-27
3.01775e-27
2.27878e-27
2.15531e-27
3.92318e-32
1.12047e-13
1.71706e-13
9.66675e-15
5.44181e-16
3.06343e-17
1.72436e-18
9.70959e-20
5.46998e-21
3.06524e-22
1.73903e-23
1.0125e-24
4.20907e-26
3.54856e-29
7.72437e-30
8.62595e-28
9.5305e-27
5.36352e-27
4.70094e-27
6.82606e-28
1.23002e-27
1.11756e-13
1.70837e-13
9.61638e-15
5.41257e-16
3.04655e-17
1.71459e-18
9.65656e-20
5.42714e-21
3.07867e-22
1.65734e-23
1.11745e-24
5.41569e-26
1.45302e-26
2.00229e-27
2.47705e-27
4.46634e-27
5.23574e-27
7.43437e-27
2.01597e-27
5.91678e-28
1.11205e-13
1.69829e-13
9.55877e-15
5.37972e-16
3.02762e-17
1.70428e-18
9.58536e-20
5.41215e-21
3.00637e-22
1.76142e-23
8.92862e-25
1.23513e-25
7.84113e-28
1.47023e-26
2.07181e-27
1.85864e-27
1.22908e-27
3.26892e-29
2.37413e-27
4.62461e-27
1.10644e-13
1.6888e-13
9.50503e-15
5.34921e-16
3.0105e-17
1.69409e-18
9.53659e-20
5.36295e-21
3.0468e-22
1.6671e-23
1.16679e-24
3.76301e-26
1.10062e-26
2.86868e-27
1.31574e-27
7.5824e-29
2.05198e-27
3.38946e-27
1.95529e-27
4.18488e-28
1.10018e-13
1.67918e-13
9.45071e-15
5.31864e-16
2.99305e-17
1.68471e-18
9.47547e-20
5.3545e-21
2.99338e-22
1.75641e-23
7.89998e-25
9.41141e-26
7.80246e-27
4.15637e-27
3.30529e-27
8.5658e-28
3.50973e-27
1.62047e-27
2.60234e-29
2.65734e-27
1.09422e-13
1.67032e-13
9.40088e-15
5.29051e-16
2.97745e-17
1.67552e-18
9.43564e-20
5.30315e-21
2.98192e-22
1.63794e-23
1.02846e-24
2.26624e-26
1.30159e-27
2.04783e-28
2.11744e-27
2.34547e-27
2.28804e-27
2.37574e-28
3.40066e-27
6.599e-28
1.08835e-13
1.66185e-13
9.35323e-15
5.26381e-16
2.96233e-17
1.66738e-18
9.3782e-20
5.29254e-21
2.95206e-22
1.69368e-23
9.56948e-25
7.41083e-26
4.46966e-27
1.31884e-27
6.37605e-29
4.18228e-27
7.01119e-28
1.2887e-27
1.02606e-27
1.80468e-29
1.0828e-13
1.65401e-13
9.30927e-15
5.23908e-16
2.94854e-17
1.6594e-18
9.33946e-20
5.25171e-21
2.98799e-22
1.62304e-23
1.02473e-24
6.3989e-26
8.92893e-27
3.38127e-28
3.1572e-27
1.27747e-27
1.19716e-28
1.39438e-28
6.35378e-31
1.04974e-28
1.07771e-13
1.6468e-13
9.26884e-15
5.21645e-16
2.93583e-17
1.65223e-18
9.30039e-20
5.22776e-21
2.96056e-22
1.65798e-23
1.04839e-24
3.2936e-26
2.26989e-27
1.39668e-27
3.24351e-27
5.62637e-27
3.94245e-28
3.29086e-27
8.15039e-28
6.96657e-29
1.07276e-13
1.63992e-13
9.23031e-15
5.19485e-16
2.92372e-17
1.64542e-18
9.26331e-20
5.21529e-21
2.93405e-22
1.72356e-23
9.11174e-25
3.78177e-26
2.40539e-27
2.04059e-28
1.90906e-27
6.99618e-28
4.78479e-28
8.91568e-28
1.39991e-28
1.4501e-28
1.06858e-13
1.63385e-13
9.19625e-15
5.17574e-16
2.91306e-17
1.63948e-18
9.22951e-20
5.18895e-21
2.91485e-22
1.66293e-23
9.64069e-25
4.09189e-26
2.7072e-27
7.47405e-28
4.77986e-27
1.07841e-26
8.75259e-28
3.19716e-27
6.93614e-29
4.04367e-29
1.06396e-13
1.62759e-13
9.16109e-15
5.15606e-16
2.90193e-17
1.63332e-18
9.18958e-20
5.17278e-21
2.90614e-22
1.62944e-23
9.3162e-25
6.85272e-26
6.74373e-28
9.49513e-29
1.18403e-28
4.969e-28
1.23017e-27
1.2947e-27
1.96859e-27
2.6759e-28
1.06092e-13
1.62244e-13
9.13226e-15
5.13985e-16
2.89284e-17
1.62814e-18
9.16291e-20
5.15627e-21
2.92495e-22
1.5798e-23
9.64528e-25
3.25661e-26
1.49549e-26
6.8317e-28
1.71235e-28
1.43061e-30
5.19632e-27
7.18357e-28
5.22571e-28
6.08646e-29
1.05558e-13
1.61608e-13
9.09652e-15
5.11977e-16
2.88148e-17
1.62205e-18
9.12502e-20
5.15183e-21
2.86842e-22
1.65201e-23
8.76467e-25
4.56979e-26
1.84767e-29
3.82334e-27
5.24065e-28
7.33986e-28
2.00804e-28
2.92763e-28
6.32472e-28
1.12723e-27
1.0588e-13
1.61586e-13
9.10913e-15
5.13467e-16
2.89431e-17
1.63149e-18
9.19972e-20
5.18053e-21
2.92011e-22
1.68745e-23
8.94169e-25
6.57306e-26
3.46336e-29
6.63168e-27
1.56218e-27
3.24941e-27
8.68443e-27
8.29699e-28
4.88467e-30
1.6545e-31
1.05741e-13
1.61036e-13
9.07058e-15
5.13461e-16
2.88247e-17
1.65434e-18
9.03265e-20
5.63114e-21
2.46242e-22
2.70776e-23
7.51426e-26
5.51074e-25
7.62924e-26
5.39404e-26
2.03851e-26
1.56539e-26
3.50428e-27
1.58121e-27
5.65801e-28
7.87349e-28
)
;

boundaryField
{
    movingWall
    {
        type            calculated;
        value           nonuniform List<scalar> 
20
(
1.0511e-13
1.61609e-13
9.12714e-15
5.22157e-16
2.92852e-17
1.72577e-18
9.13397e-20
6.38203e-21
2.10427e-22
4.35444e-23
1.86139e-25
1.57707e-24
4.36119e-25
2.74421e-25
1.2534e-25
6.82952e-26
2.51881e-26
1.6139e-26
1.2976e-27
1.62372e-27
)
;
    }
    fixedWalls
    {
        type            calculated;
        value           nonuniform List<scalar> 
60
(
3.11682e-12
3.11469e-12
3.10611e-12
3.09979e-12
3.08468e-12
3.06922e-12
3.05118e-12
3.03418e-12
3.01691e-12
3.001e-12
2.98576e-12
2.97166e-12
2.95869e-12
2.94632e-12
2.93537e-12
2.9241e-12
2.91482e-12
2.90336e-12
2.8987e-12
2.88977e-12
5.76533e-28
4.33205e-28
1.02218e-27
6.52157e-29
1.24246e-27
7.29262e-28
5.74807e-27
5.22766e-28
2.59882e-27
1.20851e-27
1.99418e-28
4.89677e-28
2.16354e-31
2.56244e-28
2.59651e-29
8.58893e-28
1.03689e-29
4.70694e-28
8.12477e-30
9.51788e-28
1.14367e-13
1.74818e-13
9.89181e-15
5.68191e-16
3.17139e-17
1.90244e-18
9.69012e-20
7.51361e-21
1.66026e-22
7.22559e-23
3.05584e-24
5.0359e-24
1.8645e-24
8.61851e-25
3.08131e-25
1.308e-25
5.2924e-26
1.02773e-26
1.03892e-26
2.46513e-28
)
;
    }
    frontAndBack
    {
        type            empty;
    }
}


// ************************************************************************* //
