/*--------------------------------*- C++ -*----------------------------------*\
| =========                 |                                                 |
| \\      /  F ield         | OpenFOAM: The Open Source CFD Toolbox           |
|  \\    /   O peration     | Version:  2312                                  |
|   \\  /    A nd           | Website:  www.openfoam.com                      |
|    \\/     M anipulation  |                                                 |
\*---------------------------------------------------------------------------*/
FoamFile
{
    version     2.0;
    format      ascii;
    arch        "LSB;label=32;scalar=64";
    class       volScalarField;
    location    "4.75";
    object      epsilonzeroGrad;
}
// * * * * * * * * * * * * * * * * * * * * * * * * * * * * * * * * * * * * * //

dimensions      [0 2 -3 0 0 0 0];

internalField   nonuniform List<scalar> 
400
(
1.0905e-05
1.09049e-05
1.09049e-05
1.09048e-05
1.09048e-05
1.09047e-05
1.09047e-05
1.09047e-05
1.09047e-05
1.09046e-05
1.09046e-05
1.09046e-05
1.09046e-05
1.09046e-05
1.09046e-05
1.09046e-05
1.09046e-05
1.09046e-05
1.09046e-05
1.09046e-05
1.27745e-05
1.24506e-05
1.24766e-05
1.24872e-05
1.25089e-05
1.25201e-05
1.25418e-05
1.25536e-05
1.25753e-05
1.25875e-05
1.26095e-05
1.26221e-05
1.26442e-05
1.26572e-05
1.26795e-05
1.26929e-05
1.27154e-05
1.27292e-05
1.27406e-05
1.27589e-05
1.53508e-05
1.49307e-05
1.49648e-05
1.49787e-05
1.50069e-05
1.50216e-05
1.50498e-05
1.50651e-05
1.50934e-05
1.51091e-05
1.51376e-05
1.51537e-05
1.51824e-05
1.5199e-05
1.52278e-05
1.52449e-05
1.52739e-05
1.52914e-05
1.5306e-05
1.53294e-05
1.75923e-05
1.70856e-05
1.71264e-05
1.71431e-05
1.71771e-05
1.71947e-05
1.72286e-05
1.72469e-05
1.7281e-05
1.72999e-05
1.73341e-05
1.73536e-05
1.73881e-05
1.74081e-05
1.74428e-05
1.74634e-05
1.74983e-05
1.75195e-05
1.75371e-05
1.75654e-05
1.91406e-05
1.8571e-05
1.86168e-05
1.86355e-05
1.86735e-05
1.86933e-05
1.87313e-05
1.87519e-05
1.879e-05
1.88113e-05
1.88497e-05
1.88716e-05
1.89102e-05
1.89328e-05
1.89717e-05
1.89949e-05
1.90341e-05
1.90579e-05
1.90776e-05
1.91094e-05
2.00865e-05
1.94777e-05
1.95265e-05
1.95464e-05
1.9587e-05
1.96081e-05
1.96487e-05
1.96707e-05
1.97114e-05
1.97341e-05
1.97751e-05
1.97985e-05
1.98398e-05
1.98638e-05
1.99054e-05
1.99302e-05
1.99721e-05
1.99976e-05
2.00187e-05
2.00526e-05
2.06382e-05
2.00063e-05
2.00568e-05
2.00775e-05
2.01196e-05
2.01415e-05
2.01835e-05
2.02063e-05
2.02485e-05
2.02721e-05
2.03146e-05
2.03389e-05
2.03817e-05
2.04067e-05
2.04499e-05
2.04756e-05
2.0519e-05
2.05455e-05
2.05674e-05
2.06027e-05
2.09686e-05
2.03228e-05
2.03744e-05
2.03955e-05
2.04385e-05
2.04608e-05
2.05038e-05
2.05271e-05
2.05702e-05
2.05943e-05
2.06377e-05
2.06625e-05
2.07063e-05
2.07318e-05
2.07759e-05
2.08022e-05
2.08465e-05
2.08736e-05
2.0896e-05
2.0932e-05
2.11873e-05
2.05323e-05
2.05846e-05
2.0606e-05
2.06496e-05
2.06722e-05
2.07158e-05
2.07394e-05
2.07831e-05
2.08076e-05
2.08516e-05
2.08768e-05
2.09211e-05
2.0947e-05
2.09917e-05
2.10184e-05
2.10633e-05
2.10908e-05
2.11135e-05
2.11501e-05
2.13556e-05
2.06936e-05
2.07464e-05
2.07681e-05
2.08121e-05
2.0835e-05
2.0879e-05
2.09029e-05
2.0947e-05
2.09718e-05
2.10162e-05
2.10417e-05
2.10865e-05
2.11127e-05
2.11578e-05
2.11848e-05
2.12303e-05
2.1258e-05
2.1281e-05
2.13179e-05
2.15062e-05
2.0838e-05
2.08913e-05
2.09132e-05
2.09576e-05
2.09807e-05
2.10251e-05
2.10492e-05
2.10938e-05
2.11187e-05
2.11636e-05
2.11893e-05
2.12345e-05
2.1261e-05
2.13065e-05
2.13338e-05
2.13796e-05
2.14077e-05
2.14308e-05
2.14681e-05
2.1657e-05
2.09824e-05
2.10362e-05
2.10583e-05
2.11031e-05
2.11264e-05
2.11712e-05
2.11956e-05
2.12405e-05
2.12657e-05
2.1311e-05
2.13369e-05
2.13826e-05
2.14093e-05
2.14553e-05
2.14828e-05
2.15291e-05
2.15574e-05
2.15807e-05
2.16184e-05
2.18183e-05
2.1137e-05
2.11913e-05
2.12136e-05
2.12589e-05
2.12824e-05
2.13276e-05
2.13522e-05
2.13976e-05
2.1423e-05
2.14688e-05
2.1495e-05
2.1541e-05
2.1568e-05
2.16145e-05
2.16422e-05
2.1689e-05
2.17176e-05
2.17412e-05
2.17792e-05
2.19977e-05
2.1309e-05
2.13639e-05
2.13864e-05
2.14321e-05
2.14559e-05
2.15017e-05
2.15265e-05
2.15724e-05
2.15981e-05
2.16443e-05
2.16708e-05
2.17174e-05
2.17446e-05
2.17916e-05
2.18197e-05
2.18669e-05
2.18959e-05
2.19197e-05
2.19581e-05
2.22018e-05
2.15045e-05
2.15601e-05
2.15828e-05
2.16292e-05
2.16532e-05
2.16995e-05
2.17247e-05
2.17711e-05
2.17971e-05
2.18439e-05
2.18707e-05
2.19179e-05
2.19455e-05
2.1993e-05
2.20214e-05
2.20693e-05
2.20986e-05
2.21227e-05
2.21616e-05
2.24356e-05
2.17284e-05
2.17847e-05
2.18078e-05
2.18547e-05
2.18791e-05
2.19261e-05
2.19515e-05
2.19986e-05
2.2025e-05
2.20724e-05
2.20996e-05
2.21474e-05
2.21754e-05
2.22236e-05
2.22524e-05
2.23009e-05
2.23306e-05
2.23551e-05
2.23946e-05
2.26976e-05
2.19795e-05
2.20366e-05
2.20601e-05
2.21077e-05
2.21325e-05
2.21801e-05
2.2206e-05
2.22538e-05
2.22806e-05
2.23287e-05
2.23564e-05
2.24049e-05
2.24333e-05
2.24822e-05
2.25115e-05
2.25608e-05
2.25909e-05
2.26158e-05
2.26558e-05
2.29705e-05
2.22411e-05
2.22991e-05
2.23229e-05
2.23712e-05
2.23964e-05
2.24447e-05
2.2471e-05
2.25195e-05
2.25467e-05
2.25956e-05
2.26237e-05
2.26729e-05
2.27018e-05
2.27515e-05
2.27813e-05
2.28312e-05
2.28619e-05
2.28872e-05
2.29279e-05
2.32088e-05
2.24853e-05
2.25417e-05
2.25649e-05
2.26121e-05
2.26368e-05
2.26842e-05
2.27103e-05
2.27579e-05
2.27851e-05
2.28332e-05
2.28615e-05
2.29102e-05
2.29395e-05
2.29888e-05
2.30191e-05
2.30689e-05
2.31004e-05
2.31257e-05
2.31668e-05
2.33111e-05
2.33109e-05
2.33109e-05
2.33108e-05
2.33107e-05
2.33106e-05
2.33106e-05
2.33105e-05
2.33105e-05
2.33104e-05
2.33105e-05
2.33104e-05
2.33104e-05
2.33104e-05
2.33104e-05
2.33104e-05
2.33104e-05
2.33104e-05
2.33104e-05
2.33104e-05
)
;

boundaryField
{
    movingWall
    {
        type            zeroGradient;
    }
    fixedWalls
    {
        type            zeroGradient;
    }
    frontAndBack
    {
        type            empty;
    }
}


// ************************************************************************* //
