/*--------------------------------*- C++ -*----------------------------------*\
| =========                 |                                                 |
| \\      /  F ield         | OpenFOAM: The Open Source CFD Toolbox           |
|  \\    /   O peration     | Version:  2312                                  |
|   \\  /    A nd           | Website:  www.openfoam.com                      |
|    \\/     M anipulation  |                                                 |
\*---------------------------------------------------------------------------*/
FoamFile
{
    version     2.0;
    format      ascii;
    arch        "LSB;label=32;scalar=64";
    class       volScalarField;
    location    "4.75";
    object      flowTypeField;
}
// * * * * * * * * * * * * * * * * * * * * * * * * * * * * * * * * * * * * * //

dimensions      [0 0 0 0 0 0 0];

internalField   nonuniform List<scalar> 
400
(
0.00092607
-0.00056499
-0.000926217
-0.00319906
-0.00125396
-0.0114794
0.0105542
-0.0580378
0.136374
-0.374223
0.794209
-0.133871
0.163141
0.0921018
0.160733
0.11884
0.223095
0.825526
0.69554
0.374557
0.00619572
0.000246194
0.000542313
-0.00177639
-0.000317098
-0.00614826
0.00183182
-0.0205925
0.028914
-0.0926588
0.257493
0.377123
0.951876
0.979826
0.859631
0.859869
0.792348
0.828378
0.00181296
0.47673
0.00663456
0.00106022
0.0017015
0.00193262
0.00116948
0.00513189
-0.00368218
0.0202337
-0.0395152
0.10426
-0.127994
0.392028
0.956089
0.551074
0.28765
0.455163
0.238979
-0.30639
-0.264036
-0.0379634
0.00239813
0.000392272
0.000557051
0.000526611
0.000917475
-0.000685738
0.00552924
-0.0148774
0.0427917
-0.140831
0.264377
0.372525
0.625638
0.581592
0.298181
0.377042
0.305813
0.304888
0.121686
0.972381
0.000669369
0.000108455
0.00014106
0.000168898
3.37328e-06
0.00103894
-0.00301645
0.0112373
-0.0374045
0.107376
-0.613828
0.598666
0.960319
0.981101
0.770308
0.187642
0.263383
0.00548078
0.46931
0.133447
-0.000761928
-0.000114115
-0.000250122
-0.000191632
-0.000241379
-0.000743086
0.00141949
-0.00809453
0.0251853
-0.0910949
0.195527
0.146234
0.533311
0.684205
0.633406
0.364965
0.208638
-0.268826
0.0167931
0.438593
-0.00131058
-0.000207251
-0.000367267
-0.000346144
-0.000428453
-0.000380933
-0.00155945
0.00359912
-0.0166438
0.0592452
-0.257896
0.259408
0.84634
0.331157
0.616802
0.497224
0.532746
0.902438
0.0679322
-0.254435
-0.00163288
-0.000256006
-0.000456947
-0.000400747
-0.000525281
-0.000717303
-3.60042e-05
-0.00391798
0.00959802
-0.0452228
0.111539
0.24299
0.577182
0.605773
0.640781
0.898726
0.355913
0.283176
0.0252149
0.481895
-0.00165479
-0.000262342
-0.000445714
-0.000425766
-0.000488864
-0.000642711
-0.00084096
-0.000613481
-0.00753046
0.0191358
0.00673513
0.272703
0.537021
0.589216
0.262865
0.636317
0.308708
0.149389
0.885101
-0.576924
-0.00158157
-0.000249259
-0.000423883
-0.000385899
-0.000494629
-0.000587177
-0.000693711
-0.00130159
0.00406407
0.000778274
0.0840516
0.421707
0.803519
0.844292
0.545497
0.390056
0.163233
0.736692
0.00355786
0.00010108
-0.00141467
-0.000222985
-0.000371992
-0.000348826
-0.000409158
-0.000586829
-0.000296317
-0.00173175
0.00250128
0.00267881
0.037855
0.196059
0.544131
0.774376
0.908352
0.215625
0.508163
0.41374
0.196006
0.802417
-0.00119939
-0.000188444
-0.000310223
-0.000289731
-0.000349122
-0.000376078
-0.000718048
0.000805376
-0.00830921
0.0266529
-0.0402511
0.286047
0.404475
0.825324
0.470074
0.462567
0.749852
0.562035
0.971071
0.195863
-0.00100869
-0.000156865
-0.000262317
-0.000235829
-0.000289057
-0.000418303
7.02976e-05
-0.00202733
0.00584079
-0.0291637
0.0797925
0.279797
0.722744
0.681195
0.399178
0.207732
0.552415
0.281686
0.282159
0.298005
-0.000764165
-0.000119953
-0.000188676
-0.000186179
-0.000226817
-6.88365e-05
-0.00123519
0.00318651
-0.014246
0.0293149
-0.115187
0.491919
0.641585
0.864448
0.579146
0.614224
0.450782
0.2182
0.379681
0.00631582
-0.000668084
-0.000102408
-0.000177932
-0.000156414
-0.00015813
-0.000557701
0.00113884
-0.00555171
0.0199594
-0.0724127
0.173563
-0.00252918
0.707896
0.608618
0.166408
-0.334778
0.407865
0.0294332
0.534608
0.62616
-0.000373916
-6.16695e-05
-8.64208e-05
-8.13329e-05
-0.000204499
0.00046779
-0.0022615
0.00819957
-0.0263607
0.0789075
-0.33759
0.372133
0.779543
0.906583
0.824004
0.628496
0.0527183
0.301032
-0.686972
0.14703
-0.000581108
-9.11264e-05
-0.000159159
-0.000191892
6.07394e-05
-0.00134388
0.00328559
-0.0115892
0.0283175
-0.0891616
0.191078
-0.253658
0.395461
0.694323
0.756184
0.960665
-0.39202
0.00653807
0.237472
0.555597
0.000101488
-4.6041e-06
3.35433e-05
0.000275689
-0.000445612
0.00213544
-0.00426495
0.0124346
-0.030139
0.0801378
-0.226419
0.476198
0.953936
0.440906
0.542098
0.548915
0.40862
0.652469
0.0270553
-0.586271
-0.00284533
-0.00120505
-0.00190927
-0.00376725
-0.00346507
-0.00848346
-0.00350376
-0.0216982
0.0143869
-0.0950376
0.182435
0.144582
0.96567
0.403166
0.582304
0.349371
0.0541608
0.352782
0.898138
0.954054
-0.00367387
-0.00130499
-0.00221339
-0.00409561
-0.0034201
-0.0110618
0.00245451
-0.0424489
0.0730178
-0.242944
0.71463
-0.340803
0.193361
0.0579044
0.0952788
0.0658549
0.203642
0.241293
0.277241
0.043065
)
;

boundaryField
{
    movingWall
    {
        type            calculated;
        value           nonuniform List<scalar> 
20
(
0.764068
0.267606
0.266721
0.261715
0.263446
0.248786
0.270624
0.197318
0.373769
-0.101806
0.741504
-0.270916
0.0775535
-0.0135452
0.00887791
-0.00302748
0.0335126
0.0268155
0.169449
-0.0172095
)
;
    }
    fixedWalls
    {
        type            calculated;
        value           nonuniform List<scalar> 
60
(
0.000176877
0.00118171
0.00127584
0.000471804
0.000145287
-0.000129735
-0.000236119
-0.000300917
-0.000307258
-0.000295803
-0.000265323
-0.000225751
-0.000189962
-0.000144163
-0.000125955
-7.04658e-05
-0.000109757
1.96493e-05
-0.000541003
-0.000701124
0.0884795
0.624984
0.509715
0.735277
0.460833
0.413409
-0.131044
0.454667
-0.0481828
0.234758
0.651846
0.0594028
0.870939
0.00362991
0.783711
-0.497866
0.848068
-0.0904432
0.830272
0.195724
0.763322
0.267539
0.266696
0.260811
0.2648
0.244829
0.279885
0.171093
0.462325
-0.249423
0.416688
-0.12984
0.053972
-0.00537877
0.0199903
0.0142609
0.0297939
0.117913
0.0192204
0.484863
)
;
    }
    frontAndBack
    {
        type            empty;
    }
}


// ************************************************************************* //
