/*--------------------------------*- C++ -*----------------------------------*\
| =========                 |                                                 |
| \\      /  F ield         | OpenFOAM: The Open Source CFD Toolbox           |
|  \\    /   O peration     | Version:  2312                                  |
|   \\  /    A nd           | Website:  www.openfoam.com                      |
|    \\/     M anipulation  |                                                 |
\*---------------------------------------------------------------------------*/
FoamFile
{
    version     2.0;
    format      ascii;
    arch        "LSB;label=32;scalar=64";
    class       surfaceScalarField;
    location    "4.75";
    object      fluxField;
}
// * * * * * * * * * * * * * * * * * * * * * * * * * * * * * * * * * * * * * //

dimensions      [0 3 -1 0 0 0 0];

oriented        oriented;

internalField   nonuniform List<scalar> 
760
(
-5e-05
-1.03388e-16
-5e-05
7.43961e-17
-5e-05
1.02194e-17
-5e-05
5.88652e-18
-5e-05
3.89503e-18
-5e-05
1.17042e-18
-5e-05
1.09258e-18
-5e-05
4.96847e-19
-5e-05
3.82017e-19
-5e-05
2.3307e-19
-5e-05
1.69873e-19
-5e-05
1.1907e-19
-5e-05
8.97935e-20
-5e-05
6.61824e-20
-5e-05
4.41761e-20
-5e-05
3.14935e-20
-5e-05
2.20402e-20
-5e-05
1.45179e-20
-5e-05
8.86245e-21
3.96198e-21
-5e-05
-2.0274e-16
-5e-05
8.09119e-17
-5e-05
-2.36843e-19
-5e-05
9.79498e-18
-5e-05
3.95837e-18
-5e-05
2.39129e-18
-5e-05
1.57235e-18
-5e-05
9.37934e-19
-5e-05
6.53519e-19
-5e-05
4.36502e-19
-5e-05
3.10205e-19
-5e-05
2.18174e-19
-5e-05
1.62989e-19
-5e-05
1.22807e-19
-5e-05
8.32357e-20
-5e-05
5.64328e-20
-5e-05
4.04632e-20
-5e-05
2.21734e-20
-5e-05
8.38505e-21
1.27745e-21
-5e-05
2.85221e-16
-5e-05
-8.60794e-17
-5e-05
2.93462e-17
-5e-05
-1.8381e-18
-5e-05
5.46025e-18
-5e-05
1.92086e-18
-5e-05
1.81307e-18
-5e-05
1.09977e-18
-5e-05
8.11147e-19
-5e-05
5.62381e-19
-5e-05
4.0711e-19
-5e-05
2.91432e-19
-5e-05
2.17216e-19
-5e-05
1.62968e-19
-5e-05
1.15139e-19
-5e-05
7.70043e-20
-5e-05
5.39069e-20
-5e-05
2.99021e-20
-5e-05
8.81737e-21
4.18052e-22
-5e-05
-4.3144e-16
-5e-05
1.15578e-16
-5e-05
-2.49567e-17
-5e-05
9.91216e-18
-5e-05
7.93649e-19
-5e-05
2.44073e-18
-5e-05
1.41603e-18
-5e-05
1.14969e-18
-5e-05
8.20915e-19
-5e-05
6.06484e-19
-5e-05
4.4842e-19
-5e-05
3.3445e-19
-5e-05
2.49772e-19
-5e-05
1.86416e-19
-5e-05
1.39189e-19
-5e-05
9.53906e-20
-5e-05
6.30447e-20
-5e-05
3.65231e-20
-5e-05
1.51502e-20
4.09584e-21
-5e-05
4.31936e-16
-5e-05
-1.08928e-16
-5e-05
2.86134e-17
-5e-05
-4.72588e-18
-5e-05
3.51064e-18
-5e-05
1.15393e-18
-5e-05
1.38072e-18
-5e-05
9.74061e-19
-5e-05
7.76678e-19
-5e-05
5.81046e-19
-5e-05
4.43475e-19
-5e-05
3.39447e-19
-5e-05
2.56706e-19
-5e-05
1.93079e-19
-5e-05
1.47001e-19
-5e-05
1.04112e-19
-5e-05
6.85284e-20
-5e-05
3.90844e-20
-5e-05
2.05794e-20
7.19654e-21
-5e-05
-4.71721e-16
-5e-05
1.15961e-16
-5e-05
-2.65412e-17
-5e-05
7.99598e-18
-5e-05
-3.08526e-19
-5e-05
1.58007e-18
-5e-05
9.22405e-19
-5e-05
8.55818e-19
-5e-05
6.60236e-19
-5e-05
5.25048e-19
-5e-05
4.05662e-19
-5e-05
3.1598e-19
-5e-05
2.41713e-19
-5e-05
1.81619e-19
-5e-05
1.35589e-19
-5e-05
1.00496e-19
-5e-05
6.96134e-20
-5e-05
4.21895e-20
-5e-05
2.3555e-20
9.08817e-21
-5e-05
4.39822e-16
-5e-05
-1.0541e-16
-5e-05
2.60242e-17
-5e-05
-5.16485e-18
-5e-05
2.37883e-18
-5e-05
5.18952e-19
-5e-05
8.54732e-19
-5e-05
6.35133e-19
-5e-05
5.46494e-19
-5e-05
4.382e-19
-5e-05
3.50362e-19
-5e-05
2.75179e-19
-5e-05
2.13377e-19
-5e-05
1.59897e-19
-5e-05
1.1769e-19
-5e-05
9.0322e-20
-5e-05
6.54874e-20
-5e-05
4.15827e-20
-5e-05
2.25537e-20
8.72217e-21
-5e-05
-4.39056e-16
-5e-05
1.0461e-16
-5e-05
-2.43311e-17
-5e-05
6.47411e-18
-5e-05
-7.77388e-19
-5e-05
9.29391e-19
-5e-05
4.64703e-19
-5e-05
4.97622e-19
-5e-05
4.03788e-19
-5e-05
3.41644e-19
-5e-05
2.77531e-19
-5e-05
2.19777e-19
-5e-05
1.6989e-19
-5e-05
1.31126e-19
-5e-05
1.01055e-19
-5e-05
7.76468e-20
-5e-05
5.37471e-20
-5e-05
3.39094e-20
-5e-05
1.89313e-20
6.52683e-21
-5e-05
4.03022e-16
-5e-05
-9.48283e-17
-5e-05
2.28215e-17
-5e-05
-4.97083e-18
-5e-05
1.63096e-18
-5e-05
7.54778e-20
-5e-05
4.11604e-19
-5e-05
2.9091e-19
-5e-05
2.73707e-19
-5e-05
2.34875e-19
-5e-05
1.95759e-19
-5e-05
1.56689e-19
-5e-05
1.20191e-19
-5e-05
9.91511e-20
-5e-05
8.21277e-20
-5e-05
6.25557e-20
-5e-05
4.1105e-20
-5e-05
2.46985e-20
-5e-05
1.46469e-20
5.88455e-21
-5e-05
-3.84027e-16
-5e-05
9.02919e-17
-5e-05
-2.12355e-17
-5e-05
5.17456e-18
-5e-05
-1.02218e-18
-5e-05
4.45626e-19
-5e-05
9.15472e-20
-5e-05
1.62018e-19
-5e-05
1.30865e-19
-5e-05
1.24597e-19
-5e-05
1.06725e-19
-5e-05
9.15787e-20
-5e-05
7.72543e-20
-5e-05
6.85791e-20
-5e-05
5.59216e-20
-5e-05
4.15807e-20
-5e-05
2.9487e-20
-5e-05
1.53074e-20
-5e-05
1.13455e-20
6.01495e-21
-5e-05
3.54678e-16
-5e-05
-8.29088e-17
-5e-05
1.95815e-17
-5e-05
-4.65006e-18
-5e-05
1.03131e-18
-5e-05
-2.90159e-19
-5e-05
4.02224e-20
-5e-05
-1.88467e-20
-5e-05
8.57509e-21
-5e-05
1.20571e-20
-5e-05
1.85693e-20
-5e-05
2.71226e-20
-5e-05
3.20858e-20
-5e-05
3.09038e-20
-5e-05
2.57474e-20
-5e-05
2.06374e-20
-5e-05
1.55196e-20
-5e-05
7.40743e-21
-5e-05
7.00244e-21
4.89816e-21
-5e-05
-3.27166e-16
-5e-05
7.64753e-17
-5e-05
-1.83068e-17
-5e-05
4.01159e-18
-5e-05
-1.26294e-18
-5e-05
-8.71402e-21
-5e-05
-2.5675e-19
-5e-05
-1.46881e-19
-5e-05
-1.23725e-19
-5e-05
-8.6912e-20
-5e-05
-5.76574e-20
-5e-05
-2.85942e-20
-5e-05
-1.20574e-20
-5e-05
-4.50051e-21
-5e-05
1.5595e-21
-5e-05
2.93203e-21
-5e-05
1.22892e-21
-5e-05
-1.18013e-21
-5e-05
-1.32561e-21
1.99703e-21
-5e-05
3.10936e-16
-5e-05
-7.27957e-17
-5e-05
1.67368e-17
-5e-05
-4.5218e-18
-5e-05
4.28406e-19
-5e-05
-6.88147e-19
-5e-05
-3.46578e-19
-5e-05
-3.30682e-19
-5e-05
-2.41575e-19
-5e-05
-1.81416e-19
-5e-05
-1.25288e-19
-5e-05
-8.23566e-20
-5e-05
-5.29348e-20
-5e-05
-3.54182e-20
-5e-05
-2.04398e-20
-5e-05
-1.30009e-20
-5e-05
-8.87726e-21
-5e-05
-7.42585e-21
-5e-05
-5.83469e-21
-1.37377e-21
-5e-05
-2.79181e-16
-5e-05
6.51671e-17
-5e-05
-1.62806e-17
-5e-05
2.83883e-18
-5e-05
-1.68819e-18
-5e-05
-5.15235e-19
-5e-05
-6.45432e-19
-5e-05
-4.54234e-19
-5e-05
-3.57264e-19
-5e-05
-2.64021e-19
-5e-05
-1.88916e-19
-5e-05
-1.32391e-19
-5e-05
-9.0036e-20
-5e-05
-6.35727e-20
-5e-05
-4.14385e-20
-5e-05
-2.36815e-20
-5e-05
-1.40748e-20
-5e-05
-7.4029e-21
-5e-05
-4.64046e-21
-1.86528e-21
-5e-05
2.82394e-16
-5e-05
-6.66953e-17
-5e-05
1.43095e-17
-5e-05
-4.95046e-18
-5e-05
-3.73467e-19
-5e-05
-1.21283e-18
-5e-05
-7.56569e-19
-5e-05
-6.14316e-19
-5e-05
-4.43927e-19
-5e-05
-3.2747e-19
-5e-05
-2.34904e-19
-5e-05
-1.65724e-19
-5e-05
-1.12226e-19
-5e-05
-7.51944e-20
-5e-05
-5.16812e-20
-5e-05
-3.42693e-20
-5e-05
-2.28471e-20
-5e-05
-1.14091e-20
-5e-05
-3.68695e-21
4.45929e-22
-5e-05
-2.45968e-16
-5e-05
5.70842e-17
-5e-05
-1.61153e-17
-5e-05
1.33075e-18
-5e-05
-2.58904e-18
-5e-05
-1.1442e-18
-5e-05
-1.05111e-18
-5e-05
-7.03514e-19
-5e-05
-5.09069e-19
-5e-05
-3.52005e-19
-5e-05
-2.49997e-19
-5e-05
-1.76624e-19
-5e-05
-1.19603e-19
-5e-05
-7.48064e-20
-5e-05
-5.27068e-20
-5e-05
-4.01457e-20
-5e-05
-2.71295e-20
-5e-05
-1.58117e-20
-5e-05
-4.93199e-21
1.18094e-21
-5e-05
2.77244e-16
-5e-05
-6.61226e-17
-5e-05
1.00725e-17
-5e-05
-6.47292e-18
-5e-05
-1.82797e-18
-5e-05
-1.77389e-18
-5e-05
-1.09917e-18
-5e-05
-7.46e-19
-5e-05
-5.00251e-19
-5e-05
-3.34916e-19
-5e-05
-2.31328e-19
-5e-05
-1.62832e-19
-5e-05
-1.11131e-19
-5e-05
-6.69052e-20
-5e-05
-4.6147e-20
-5e-05
-3.38562e-20
-5e-05
-2.34388e-20
-5e-05
-1.69126e-20
-5e-05
-7.91337e-21
6.10549e-23
-5e-05
-2.05503e-16
-5e-05
4.2496e-17
-5e-05
-2.53466e-17
-5e-05
4.22314e-19
-5e-05
-4.67102e-18
-5e-05
-1.08389e-18
-5e-05
-1.21557e-18
-5e-05
-5.73064e-19
-5e-05
-4.25585e-19
-5e-05
-2.61849e-19
-5e-05
-1.8342e-19
-5e-05
-1.22998e-19
-5e-05
-8.32883e-20
-5e-05
-5.20595e-20
-5e-05
-3.60086e-20
-5e-05
-2.40585e-20
-5e-05
-1.94788e-20
-5e-05
-1.81149e-20
-5e-05
-1.00608e-20
-1.66569e-21
-5e-05
2.55358e-16
-5e-05
-8.61666e-17
-5e-05
-3.80206e-20
-5e-05
-4.5968e-18
-5e-05
-2.7405e-18
-5e-05
-6.89028e-19
-5e-05
-7.9631e-19
-5e-05
-3.07126e-19
-5e-05
-2.54779e-19
-5e-05
-1.45516e-19
-5e-05
-1.0454e-19
-5e-05
-6.39647e-20
-5e-05
-4.11456e-20
-5e-05
-2.93765e-20
-5e-05
-2.17055e-20
-5e-05
-1.32002e-20
-5e-05
-1.11768e-20
-5e-05
-1.16662e-20
-5e-05
-7.30187e-21
-2.47493e-21
-5e-05
-5e-05
-5e-05
-5e-05
-5e-05
-5e-05
-5e-05
-5e-05
-5e-05
-5e-05
-5e-05
-5e-05
-5e-05
-5e-05
-5e-05
-5e-05
-5e-05
-5e-05
-5e-05
)
;

boundaryField
{
    movingWall
    {
        type            calculated;
        value           uniform -0;
    }
    fixedWalls
    {
        type            calculated;
        value           nonuniform List<scalar> 
60
(
5e-05
5e-05
5e-05
5e-05
5e-05
5e-05
5e-05
5e-05
5e-05
5e-05
5e-05
5e-05
5e-05
5e-05
5e-05
5e-05
5e-05
5e-05
5e-05
5e-05
-5e-05
-5e-05
-5e-05
-5e-05
-5e-05
-5e-05
-5e-05
-5e-05
-5e-05
-5e-05
-5e-05
-5e-05
-5e-05
-5e-05
-5e-05
-5e-05
-5e-05
-5e-05
-5e-05
-5e-05
0
0
0
0
0
0
0
0
0
0
0
0
0
0
0
0
0
0
0
0
)
;
    }
    frontAndBack
    {
        type            empty;
        value           nonuniform List<scalar> 0();
    }
}


// ************************************************************************* //
