/*--------------------------------*- C++ -*----------------------------------*\
| =========                 |                                                 |
| \\      /  F ield         | OpenFOAM: The Open Source CFD Toolbox           |
|  \\    /   O peration     | Version:  2312                                  |
|   \\  /    A nd           | Website:  www.openfoam.com                      |
|    \\/     M anipulation  |                                                 |
\*---------------------------------------------------------------------------*/
FoamFile
{
    version     2.0;
    format      ascii;
    arch        "LSB;label=32;scalar=64";
    class       volVectorField;
    location    "4.75";
    object      gradPhi;
}
// * * * * * * * * * * * * * * * * * * * * * * * * * * * * * * * * * * * * * //

dimensions      [0 2 -1 0 0 0 0];

internalField   nonuniform List<vector> 
400
(
(-0.02 -1.36696e-14 0)
(-5.11198e-15 5.11265e-15 0)
(-5.70258e-15 5.70227e-15 0)
(-7.46117e-16 7.46183e-16 0)
(-1.29867e-15 1.29902e-15 0)
(-1.98523e-16 1.98078e-16 0)
(-2.64698e-16 2.65408e-16 0)
(-9.76073e-17 9.69757e-17 0)
(-8.10637e-17 8.17784e-17 0)
(-4.79765e-17 4.69686e-17 0)
(-3.47416e-17 3.48548e-17 0)
(-2.31611e-17 2.42471e-17 0)
(-1.98523e-17 1.84206e-17 0)
(-1.32349e-17 1.35509e-17 0)
(-9.92617e-18 9.06331e-18 0)
(-4.96308e-18 6.35178e-18 0)
(-3.30872e-18 3.82979e-18 0)
(-3.30872e-18 2.68808e-18 0)
(-3.30872e-18 2.07505e-18 0)
(0 2.02573e-18 0)
(-0.02 -3.03542e-14 0)
(-3.54381e-14 3.54356e-14 0)
(7.48598e-15 -7.48509e-15 0)
(-2.5411e-15 2.54082e-15 0)
(8.58613e-16 -8.58489e-16 0)
(-3.92084e-16 3.91755e-16 0)
(-3.47416e-17 3.58629e-17 0)
(-1.07533e-16 1.07675e-16 0)
(-5.12852e-17 5.02667e-17 0)
(-4.1359e-17 4.30817e-17 0)
(-2.81241e-17 2.80163e-17 0)
(-1.98523e-17 2.01796e-17 0)
(-1.48893e-17 1.4387e-17 0)
(-1.15805e-17 1.13505e-17 0)
(-8.27181e-18 7.55314e-18 0)
(-4.96308e-18 5.34559e-18 0)
(-4.96308e-18 5.00997e-18 0)
(-1.65436e-18 1.65038e-18 0)
(0 -1.10796e-19 0)
(1.65436e-18 -2.41347e-18 0)
(-0.02 9.21264e-14 0)
(9.55989e-14 -9.55984e-14 0)
(-7.97237e-15 7.97286e-15 0)
(5.54046e-15 -5.54337e-15 0)
(-1.0803e-15 1.08107e-15 0)
(2.82896e-16 -2.82309e-16 0)
(-1.0257e-16 1.01013e-16 0)
(-9.92617e-18 1.0898e-17 0)
(-3.63959e-17 3.63305e-17 0)
(-2.31611e-17 2.41026e-17 0)
(-2.15067e-17 2.06714e-17 0)
(-1.48893e-17 1.43505e-17 0)
(-1.15805e-17 1.10866e-17 0)
(-8.27181e-18 8.18378e-18 0)
(-6.61744e-18 6.78977e-18 0)
(-3.30872e-18 3.08358e-18 0)
(-1.65436e-18 2.00694e-18 0)
(-3.30872e-18 2.55036e-18 0)
(0 -7.53283e-19 0)
(0 1.12426e-20 0)
(-0.02 -1.15198e-13 0)
(-1.22626e-13 1.22626e-13 0)
(1.19296e-14 -1.19291e-14 0)
(-6.30477e-15 6.30406e-15 0)
(1.95876e-15 -1.95848e-15 0)
(-2.56426e-16 2.56602e-16 0)
(1.6709e-16 -1.67114e-16 0)
(-2.48154e-17 2.40889e-17 0)
(8.27181e-18 -7.03749e-18 0)
(-8.27181e-18 8.74661e-18 0)
(-6.61744e-18 6.22873e-18 0)
(-9.92617e-18 9.0049e-18 0)
(-6.61744e-18 6.65262e-18 0)
(-6.61744e-18 4.69974e-18 0)
(-3.30872e-18 4.62853e-18 0)
(-4.96308e-18 4.96615e-18 0)
(-1.65436e-18 1.33555e-18 0)
(0 -3.45345e-19 0)
(-1.65436e-18 2.30257e-18 0)
(-1.65436e-18 1.66203e-18 0)
(-0.02 1.28293e-13 0)
(1.34827e-13 -1.34828e-13 0)
(-1.22969e-14 1.22987e-14 0)
(7.0939e-15 -7.09257e-15 0)
(-1.73212e-15 1.73046e-15 0)
(4.26825e-16 -4.24881e-16 0)
(-8.60268e-17 8.45225e-17 0)
(5.62483e-17 -5.57157e-17 0)
(3.30872e-18 -2.22204e-18 0)
(6.61744e-18 -7.67606e-18 0)
(1.65436e-18 -7.87529e-19 0)
(-1.65436e-18 2.08716e-19 0)
(-1.65436e-18 9.70729e-19 0)
(0 3.39748e-19 0)
(-1.65436e-18 1.79704e-18 0)
(-1.65436e-18 1.38108e-18 0)
(-1.65436e-18 2.40117e-18 0)
(-1.65436e-18 1.78033e-18 0)
(0 2.87467e-19 0)
(0 2.44128e-20 0)
(-0.02 -1.26119e-13 0)
(-1.3415e-13 1.3415e-13 0)
(1.27303e-14 -1.27312e-14 0)
(-6.62075e-15 6.61939e-15 0)
(1.93395e-15 -1.9335e-15 0)
(-2.56426e-16 2.58213e-16 0)
(1.80325e-16 -1.80714e-16 0)
(3.30872e-18 -3.73772e-18 0)
(3.30872e-17 -3.09192e-17 0)
(8.27181e-18 -9.13499e-18 0)
(8.27181e-18 -8.01626e-18 0)
(3.30872e-18 -4.60643e-18 0)
(4.96308e-18 -2.96044e-18 0)
(0 -1.53461e-18 0)
(3.30872e-18 -2.91479e-18 0)
(0 -1.118e-18 0)
(1.65436e-18 -9.5102e-19 0)
(0 3.20872e-20 0)
(-1.65436e-18 1.44764e-18 0)
(0 5.24767e-19 0)
(-0.02 1.2126e-13 0)
(1.28263e-13 -1.28263e-13 0)
(-1.21943e-14 1.21938e-14 0)
(6.39576e-15 -6.39551e-15 0)
(-1.63947e-15 1.63997e-15 0)
(3.70577e-16 -3.72269e-16 0)
(-7.11375e-17 7.11767e-17 0)
(6.28657e-17 -6.28078e-17 0)
(1.8198e-17 -1.66167e-17 0)
(1.8198e-17 -1.94502e-17 0)
(1.15805e-17 -1.06321e-17 0)
(9.92617e-18 -8.43386e-18 0)
(4.96308e-18 -6.11625e-18 0)
(4.96308e-18 -4.40345e-18 0)
(3.30872e-18 -3.29371e-18 0)
(3.30872e-18 -1.69191e-18 0)
(0 -5.2732e-19 0)
(-1.65436e-18 4.06951e-19 0)
(1.65436e-18 -1.08448e-18 0)
(-1.65436e-18 5.39848e-19 0)
(-0.02 -1.10938e-13 0)
(-1.18542e-13 1.18543e-13 0)
(1.16302e-14 -1.16312e-14 0)
(-5.68769e-15 5.68731e-15 0)
(1.62293e-15 -1.62311e-15 0)
(-2.26647e-16 2.27824e-16 0)
(1.53856e-16 -1.54349e-16 0)
(1.15805e-17 -1.05521e-17 0)
(3.14329e-17 -3.33936e-17 0)
(1.8198e-17 -1.79503e-17 0)
(1.48893e-17 -1.45455e-17 0)
(1.15805e-17 -1.1068e-17 0)
(8.27181e-18 -7.96619e-18 0)
(6.61744e-18 -5.51887e-18 0)
(1.65436e-18 -3.11621e-18 0)
(4.96308e-18 -3.13484e-18 0)
(0 -2.10035e-18 0)
(1.65436e-18 -2.57059e-18 0)
(1.65436e-18 -1.4049e-19 0)
(0 -1.63323e-18 0)
(-0.02 1.01646e-13 0)
(1.08213e-13 -1.08214e-13 0)
(-1.08278e-14 1.08294e-14 0)
(5.2162e-15 -5.21843e-15 0)
(-1.35492e-15 1.35599e-15 0)
(2.97785e-16 -2.97047e-16 0)
(-5.79026e-17 5.76347e-17 0)
(5.62483e-17 -5.60489e-17 0)
(2.15067e-17 -2.17663e-17 0)
(2.15067e-17 -2.22288e-17 0)
(1.8198e-17 -1.70223e-17 0)
(1.15805e-17 -1.18329e-17 0)
(1.15805e-17 -1.04483e-17 0)
(6.61744e-18 -7.68716e-18 0)
(3.30872e-18 -4.799e-18 0)
(3.30872e-18 -2.42382e-18 0)
(3.30872e-18 -3.30947e-18 0)
(0 -5.29107e-19 0)
(1.65436e-18 -1.09392e-18 0)
(0 7.06876e-19 0)
(-0.02 -9.03679e-14 0)
(-9.72086e-14 9.72089e-14 0)
(1.00387e-14 -1.00382e-14 0)
(-4.55115e-15 4.5499e-15 0)
(1.2904e-15 -1.28988e-15 0)
(-1.83634e-16 1.83556e-16 0)
(1.20768e-16 -1.2216e-16 0)
(1.32349e-17 -1.22069e-17 0)
(3.14329e-17 -3.18899e-17 0)
(2.15067e-17 -2.09906e-17 0)
(1.65436e-17 -1.75497e-17 0)
(1.48893e-17 -1.43583e-17 0)
(8.27181e-18 -8.86848e-18 0)
(6.61744e-18 -4.35113e-18 0)
(3.30872e-18 -3.83721e-18 0)
(3.30872e-18 -4.34477e-18 0)
(1.65436e-18 -9.31324e-19 0)
(3.30872e-18 -3.15211e-18 0)
(1.65436e-18 -8.77199e-19 0)
(0 -4.72876e-19 0)
(-0.02 8.15084e-14 0)
(8.73205e-14 -8.73209e-14 0)
(-9.22803e-15 9.22833e-15 0)
(4.12432e-15 -4.12321e-15 0)
(-1.06706e-15 1.06723e-15 0)
(2.39882e-16 -2.404e-16 0)
(-3.97047e-17 3.95851e-17 0)
(4.79765e-17 -4.76373e-17 0)
(2.31611e-17 -2.15662e-17 0)
(2.31611e-17 -2.35438e-17 0)
(1.48893e-17 -1.70565e-17 0)
(1.32349e-17 -1.24228e-17 0)
(9.92617e-18 -9.00047e-18 0)
(8.27181e-18 -8.92399e-18 0)
(6.61744e-18 -6.58816e-18 0)
(4.96308e-18 -4.54195e-18 0)
(3.30872e-18 -4.43071e-18 0)
(1.65436e-18 -1.2401e-18 0)
(0 -1.16645e-19 0)
(0 4.70986e-19 0)
(-0.02 -7.1943e-14 0)
(-7.797e-14 7.79697e-14 0)
(8.50342e-15 -8.50338e-15 0)
(-3.585e-15 3.58521e-15 0)
(1.0224e-15 -1.02457e-15 0)
(-1.34003e-16 1.36045e-16 0)
(1.00916e-16 -1.00821e-16 0)
(1.48893e-17 -1.5484e-17 0)
(2.81241e-17 -2.85335e-17 0)
(1.98523e-17 -1.8819e-17 0)
(1.48893e-17 -1.63342e-17 0)
(9.92617e-18 -1.05938e-17 0)
(9.92617e-18 -8.08894e-18 0)
(4.96308e-18 -6.78054e-18 0)
(6.61744e-18 -5.78005e-18 0)
(3.30872e-18 -3.36568e-18 0)
(3.30872e-18 -2.05685e-18 0)
(0 -1.0463e-18 0)
(1.65436e-18 -2.68285e-18 0)
(1.65436e-18 -1.20054e-18 0)
(-0.02 6.5403e-14 0)
(7.04195e-14 -7.04195e-14 0)
(-7.82017e-15 7.81984e-15 0)
(3.31038e-15 -3.3107e-15 0)
(-8.30489e-16 8.301e-16 0)
(2.05141e-16 -2.03313e-16 0)
(-1.98523e-17 1.82195e-17 0)
(4.46678e-17 -4.49115e-17 0)
(2.15067e-17 -2.14831e-17 0)
(2.15067e-17 -1.96819e-17 0)
(1.15805e-17 -1.22137e-17 0)
(1.15805e-17 -1.12494e-17 0)
(8.27181e-18 -9.15008e-18 0)
(6.61744e-18 -5.84828e-18 0)
(3.30872e-18 -2.67635e-18 0)
(3.30872e-18 -2.9869e-18 0)
(1.65436e-18 -1.83515e-18 0)
(3.30872e-18 -2.09423e-18 0)
(1.65436e-18 -5.92896e-19 0)
(0 -7.11902e-19 0)
(-0.02 -5.82646e-14 0)
(-6.36549e-14 6.36538e-14 0)
(7.31724e-15 -7.3181e-15 0)
(-2.88024e-15 2.88194e-15 0)
(8.5365e-16 -8.53231e-16 0)
(-9.5953e-17 9.53777e-17 0)
(9.09899e-17 -9.1463e-17 0)
(1.65436e-17 -1.73171e-17 0)
(2.64698e-17 -2.51229e-17 0)
(1.48893e-17 -1.60395e-17 0)
(1.48893e-17 -1.4152e-17 0)
(9.92617e-18 -1.03676e-17 0)
(6.61744e-18 -6.66008e-18 0)
(4.96308e-18 -6.1009e-18 0)
(6.61744e-18 -6.11016e-18 0)
(1.65436e-18 -2.33041e-18 0)
(1.65436e-18 -1.00924e-18 0)
(0 8.54105e-19 0)
(0 7.06848e-19 0)
(0 -3.68489e-19 0)
(-0.02 5.45614e-14 0)
(5.88771e-14 -5.88767e-14 0)
(-6.75972e-15 6.75913e-15 0)
(2.81241e-15 -2.81338e-15 0)
(-6.50164e-16 6.50488e-16 0)
(1.91906e-16 -1.92178e-16 0)
(-6.61744e-18 7.24012e-18 0)
(3.97047e-17 -3.89153e-17 0)
(1.48893e-17 -1.59562e-17 0)
(1.48893e-17 -1.40646e-17 0)
(9.92617e-18 -8.81201e-18 0)
(4.96308e-18 -6.29317e-18 0)
(4.96308e-18 -4.83847e-18 0)
(1.65436e-18 -2.2303e-18 0)
(0 -8.90006e-19 0)
(3.30872e-18 -1.99317e-18 0)
(1.65436e-18 -2.58493e-18 0)
(1.65436e-18 -1.57717e-18 0)
(0 -2.15401e-19 0)
(-1.65436e-18 1.4974e-18 0)
(-0.02 -4.93501e-14 0)
(-5.44417e-14 5.44423e-14 0)
(6.64226e-15 -6.64205e-15 0)
(-2.39717e-15 2.39787e-15 0)
(7.82513e-16 -7.8253e-16 0)
(-6.28657e-17 6.37885e-17 0)
(8.43724e-17 -8.39542e-17 0)
(1.15805e-17 -1.22828e-17 0)
(1.48893e-17 -1.486e-17 0)
(3.30872e-18 -2.93809e-18 0)
(1.65436e-18 -2.83031e-18 0)
(3.30872e-18 -2.81727e-18 0)
(1.65436e-18 -2.12973e-18 0)
(0 3.93332e-19 0)
(0 -3.31164e-19 0)
(1.65436e-18 -1.65353e-18 0)
(1.65436e-18 -3.93769e-19 0)
(1.65436e-18 -1.07054e-18 0)
(0 -1.71115e-19 0)
(1.65436e-18 -6.57309e-19 0)
(-0.02 4.88557e-14 0)
(5.2526e-14 -5.2525e-14 0)
(-5.90772e-15 5.90791e-15 0)
(2.56261e-15 -2.56416e-15 0)
(-4.91345e-16 4.91568e-16 0)
(1.73708e-16 -1.73096e-16 0)
(-8.27181e-18 9.19127e-18 0)
(1.65436e-17 -1.6553e-17 0)
(-1.65436e-18 1.17202e-18 0)
(0 9.65891e-20 0)
(-4.96308e-18 3.18512e-18 0)
(-1.65436e-18 3.31618e-18 0)
(-1.65436e-18 2.38578e-18 0)
(-1.65436e-18 1.21085e-18 0)
(-1.65436e-18 1.06095e-18 0)
(0 1.52662e-18 0)
(-1.65436e-18 7.5297e-19 0)
(0 1.07771e-18 0)
(0 -3.2821e-19 0)
(0 2.48605e-19 0)
(-0.02 -4.27614e-14 0)
(-4.79202e-14 4.7919e-14 0)
(6.58932e-15 -6.588e-15 0)
(-2.10269e-15 2.10096e-15 0)
(8.4207e-16 -8.41675e-16 0)
(-1.25731e-16 1.24626e-16 0)
(4.79765e-17 -4.68374e-17 0)
(-3.30872e-17 3.35234e-17 0)
(-1.48893e-17 1.47852e-17 0)
(-1.65436e-17 1.64398e-17 0)
(-1.15805e-17 9.50174e-18 0)
(-8.27181e-18 7.66974e-18 0)
(-3.30872e-18 5.17597e-18 0)
(-3.30872e-18 3.05877e-18 0)
(-3.30872e-18 2.06178e-18 0)
(0 2.31597e-18 0)
(-1.65436e-18 1.31028e-18 0)
(1.65436e-18 -1.75861e-18 0)
(0 -1.26086e-18 0)
(0 -7.47929e-19 0)
(-0.02 4.51972e-14 0)
(4.5849e-14 -4.58492e-14 0)
(-1.43268e-15 1.43283e-15 0)
(1.39297e-15 -1.39342e-15 0)
(-2.39882e-16 2.38924e-16 0)
(-1.30695e-16 1.32243e-16 0)
(-7.44463e-17 7.33972e-17 0)
(-5.9557e-17 5.99739e-17 0)
(-3.30872e-17 3.22062e-17 0)
(-2.31611e-17 2.31366e-17 0)
(-1.65436e-17 1.58393e-17 0)
(-9.92617e-18 1.1938e-17 0)
(-9.92617e-18 9.0194e-18 0)
(-4.96308e-18 4.46009e-18 0)
(-3.30872e-18 3.02918e-18 0)
(-1.65436e-18 1.94976e-18 0)
(-1.65436e-18 9.81175e-19 0)
(0 2.1808e-18 0)
(-1.65436e-18 1.37036e-18 0)
(0 -3.66069e-19 0)
(-0.02 -2.98856e-14 0)
(-2.4832e-14 2.48326e-14 0)
(-2.72142e-15 2.72109e-15 0)
(-1.04225e-15 1.04112e-15 0)
(-7.79204e-16 7.80663e-16 0)
(-1.19114e-16 1.17384e-16 0)
(-1.83634e-16 1.84162e-16 0)
(-6.12114e-17 6.10355e-17 0)
(-5.45939e-17 5.48282e-17 0)
(-3.14329e-17 2.99453e-17 0)
(-1.98523e-17 2.16547e-17 0)
(-1.32349e-17 1.31289e-17 0)
(-8.27181e-18 8.12868e-18 0)
(-4.96308e-18 6.1315e-18 0)
(-6.61744e-18 4.35312e-18 0)
(-1.65436e-18 2.66446e-18 0)
(-3.30872e-18 2.50229e-18 0)
(-1.65436e-18 2.16331e-18 0)
(0 1.23823e-18 0)
(-1.65436e-18 8.59906e-19 0)
)
;

boundaryField
{
    movingWall
    {
        type            extrapolatedCalculated;
        value           nonuniform List<vector> 
20
(
(-0.02 -2.98856e-14 0)
(-2.4832e-14 2.48326e-14 0)
(-2.72142e-15 2.72109e-15 0)
(-1.04225e-15 1.04112e-15 0)
(-7.79204e-16 7.80663e-16 0)
(-1.19114e-16 1.17384e-16 0)
(-1.83634e-16 1.84162e-16 0)
(-6.12114e-17 6.10355e-17 0)
(-5.45939e-17 5.48282e-17 0)
(-3.14329e-17 2.99453e-17 0)
(-1.98523e-17 2.16547e-17 0)
(-1.32349e-17 1.31289e-17 0)
(-8.27181e-18 8.12868e-18 0)
(-4.96308e-18 6.1315e-18 0)
(-6.61744e-18 4.35312e-18 0)
(-1.65436e-18 2.66446e-18 0)
(-3.30872e-18 2.50229e-18 0)
(-1.65436e-18 2.16331e-18 0)
(0 1.23823e-18 0)
(-1.65436e-18 8.59906e-19 0)
)
;
    }
    fixedWalls
    {
        type            extrapolatedCalculated;
        value           nonuniform List<vector> 
60
(
(-0.02 -1.36696e-14 0)
(-0.02 -3.03542e-14 0)
(-0.02 9.21264e-14 0)
(-0.02 -1.15198e-13 0)
(-0.02 1.28293e-13 0)
(-0.02 -1.26119e-13 0)
(-0.02 1.2126e-13 0)
(-0.02 -1.10938e-13 0)
(-0.02 1.01646e-13 0)
(-0.02 -9.03679e-14 0)
(-0.02 8.15084e-14 0)
(-0.02 -7.1943e-14 0)
(-0.02 6.5403e-14 0)
(-0.02 -5.82646e-14 0)
(-0.02 5.45614e-14 0)
(-0.02 -4.93501e-14 0)
(-0.02 4.88557e-14 0)
(-0.02 -4.27614e-14 0)
(-0.02 4.51972e-14 0)
(-0.02 -2.98856e-14 0)
(0 2.02573e-18 0)
(1.65436e-18 -2.41347e-18 0)
(0 1.12426e-20 0)
(-1.65436e-18 1.66203e-18 0)
(0 2.44128e-20 0)
(0 5.24767e-19 0)
(-1.65436e-18 5.39848e-19 0)
(0 -1.63323e-18 0)
(0 7.06876e-19 0)
(0 -4.72876e-19 0)
(0 4.70986e-19 0)
(1.65436e-18 -1.20054e-18 0)
(0 -7.11902e-19 0)
(0 -3.68489e-19 0)
(-1.65436e-18 1.4974e-18 0)
(1.65436e-18 -6.57309e-19 0)
(0 2.48605e-19 0)
(0 -7.47929e-19 0)
(0 -3.66069e-19 0)
(-1.65436e-18 8.59906e-19 0)
(-0.02 -1.36696e-14 0)
(-5.11198e-15 5.11265e-15 0)
(-5.70258e-15 5.70227e-15 0)
(-7.46117e-16 7.46183e-16 0)
(-1.29867e-15 1.29902e-15 0)
(-1.98523e-16 1.98078e-16 0)
(-2.64698e-16 2.65408e-16 0)
(-9.76073e-17 9.69757e-17 0)
(-8.10637e-17 8.17784e-17 0)
(-4.79765e-17 4.69686e-17 0)
(-3.47416e-17 3.48548e-17 0)
(-2.31611e-17 2.42471e-17 0)
(-1.98523e-17 1.84206e-17 0)
(-1.32349e-17 1.35509e-17 0)
(-9.92617e-18 9.06331e-18 0)
(-4.96308e-18 6.35178e-18 0)
(-3.30872e-18 3.82979e-18 0)
(-3.30872e-18 2.68808e-18 0)
(-3.30872e-18 2.07505e-18 0)
(0 2.02573e-18 0)
)
;
    }
    frontAndBack
    {
        type            empty;
    }
}


// ************************************************************************* //
