/*--------------------------------*- C++ -*----------------------------------*\
| =========                 |                                                 |
| \\      /  F ield         | OpenFOAM: The Open Source CFD Toolbox           |
|  \\    /   O peration     | Version:  2312                                  |
|   \\  /    A nd           | Website:  www.openfoam.com                      |
|    \\/     M anipulation  |                                                 |
\*---------------------------------------------------------------------------*/
FoamFile
{
    version     2.0;
    format      ascii;
    arch        "LSB;label=32;scalar=64";
    class       volTensorField;
    location    "4.75";
    object      gradU;
}
// * * * * * * * * * * * * * * * * * * * * * * * * * * * * * * * * * * * * * //

dimensions      [0 0 -1 0 0 0 0];

internalField   nonuniform List<tensor> 
400
(
(1.96783e-11 4.76106e-07 0 4.40728e-10 -4.13554e-10 0 0 0 0)
(3.33121e-10 -5.89066e-07 0 3.32986e-10 2.97585e-10 0 0 0 0)
(-4.39536e-10 1.39832e-07 0 -1.30213e-10 4.08778e-11 0 0 0 0)
(1.85263e-10 -3.32348e-08 0 1.06848e-10 2.35461e-11 0 0 0 0)
(-1.00614e-10 7.8828e-09 0 -1.05439e-11 1.55801e-11 0 0 0 0)
(2.13588e-11 -1.8776e-09 0 2.1684e-11 4.68169e-12 0 0 0 0)
(-1.42302e-11 4.44316e-10 0 4.44523e-12 4.3703e-12 0 0 0 0)
(6.23416e-13 -1.06554e-10 0 6.20706e-12 1.98739e-12 0 0 0 0)
(-2.54788e-12 2.48392e-11 0 3.25261e-12 1.52807e-12 0 0 0 0)
(-7.31836e-13 -6.20373e-12 0 2.57498e-12 9.32279e-13 0 0 0 0)
(-7.31836e-13 1.30258e-12 0 1.68051e-12 6.7949e-13 0 0 0 0)
(-4.87891e-13 -4.20256e-13 0 1.21973e-12 4.76282e-13 0 0 0 0)
(-3.79471e-13 2.29319e-14 0 8.40257e-13 3.59174e-13 0 0 0 0)
(-2.98156e-13 -6.94483e-14 0 5.42101e-13 2.6473e-13 0 0 0 0)
(-1.89735e-13 -3.00725e-14 0 2.98156e-13 1.76704e-13 0 0 0 0)
(-1.0842e-13 -2.29705e-14 0 2.1684e-13 1.25974e-13 0 0 0 0)
(-8.13152e-14 -1.44805e-14 0 1.0842e-13 8.81609e-14 0 0 0 0)
(-5.42101e-14 -1.01417e-14 0 0 5.80714e-14 0 0 0 0)
(-2.71051e-14 -1.09205e-14 0 0 3.54498e-14 0 0 0 0)
(-2.71051e-14 -2.22042e-14 0 0 1.58479e-14 0 0 0 0)
(7.5409e-10 -4.76222e-07 0 -2.94979e-09 -3.97405e-10 0 0 0 0)
(-9.04035e-10 5.8952e-07 0 1.44443e-10 2.6063e-11 0 0 0 0)
(2.13344e-10 -1.40106e-07 0 -7.58128e-11 -4.18251e-11 0 0 0 0)
(-6.56484e-11 3.32095e-08 0 -5.90619e-11 1.56338e-11 0 0 0 0)
(1.5477e-11 -7.90166e-09 0 2.52077e-12 2.53355e-13 0 0 0 0)
(-6.36969e-12 1.86639e-09 0 -1.14925e-11 4.88348e-12 0 0 0 0)
(-1.19262e-12 -4.4701e-10 0 -8.13152e-13 1.91911e-12 0 0 0 0)
(-1.84314e-12 1.03712e-10 0 -2.1684e-12 1.76435e-12 0 0 0 0)
(-1.11131e-12 -2.58944e-11 0 -7.04731e-13 1.08601e-12 0 0 0 0)
(-8.40257e-13 5.35516e-12 0 -6.50521e-13 8.1373e-13 0 0 0 0)
(-5.42101e-13 -1.75858e-12 0 -3.52366e-13 5.61332e-13 0 0 0 0)
(-4.06576e-13 9.99394e-14 0 -2.71051e-13 3.96413e-13 0 0 0 0)
(-2.98156e-13 -2.34484e-13 0 -2.1684e-13 2.92781e-13 0 0 0 0)
(-2.43945e-13 -1.13021e-13 0 -1.0842e-13 2.26497e-13 0 0 0 0)
(-1.6263e-13 -1.08683e-13 0 -8.13152e-14 1.56239e-13 0 0 0 0)
(-5.42101e-14 -6.55728e-14 0 -8.13152e-14 9.97573e-14 0 0 0 0)
(-1.35525e-13 -5.3422e-14 0 -2.71051e-14 7.36921e-14 0 0 0 0)
(-5.42101e-14 -4.25694e-14 0 -5.42101e-14 3.06223e-14 0 0 0 0)
(0 -3.1303e-14 0 0 -1.9096e-15 0 0 0 0)
(5.42101e-14 -2.90935e-14 0 0 -1.07381e-14 0 0 0 0)
(-2.78569e-09 4.75735e-07 0 3.14429e-09 1.95184e-09 0 0 0 0)
(3.20712e-09 -5.8871e-07 0 -6.15068e-10 -6.67965e-10 0 0 0 0)
(-6.43067e-10 1.39821e-07 0 2.36383e-10 1.18332e-10 0 0 0 0)
(2.63624e-10 -3.31927e-08 0 -6.30735e-11 -4.65323e-11 0 0 0 0)
(-5.29904e-11 7.87205e-09 0 9.02598e-12 6.00751e-12 0 0 0 0)
(1.79707e-11 -1.87594e-09 0 -9.54098e-12 -1.88174e-12 0 0 0 0)
(-4.93312e-12 4.41196e-10 0 -1.65341e-12 9.62878e-13 0 0 0 0)
(7.58942e-13 -1.07387e-10 0 -2.1684e-12 6.47328e-13 0 0 0 0)
(-1.00289e-12 2.38886e-11 0 -9.75782e-13 6.30514e-13 0 0 0 0)
(-3.79471e-13 -6.72841e-12 0 -6.77626e-13 5.03516e-13 0 0 0 0)
(-4.06576e-13 8.85261e-13 0 -3.52366e-13 3.87618e-13 0 0 0 0)
(-2.98156e-13 -6.88807e-13 0 -2.1684e-13 2.93032e-13 0 0 0 0)
(-2.43945e-13 -1.46984e-13 0 -1.35525e-13 2.1691e-13 0 0 0 0)
(-1.6263e-13 -2.0599e-13 0 -8.13152e-14 1.60645e-13 0 0 0 0)
(-1.0842e-13 -1.56812e-13 0 0 1.27614e-13 0 0 0 0)
(-8.13152e-14 -1.05517e-13 0 -2.71051e-14 8.22861e-14 0 0 0 0)
(-5.42101e-14 -8.36154e-14 0 0 5.37746e-14 0 0 0 0)
(-5.42101e-14 -8.57434e-14 0 8.13152e-14 3.09146e-14 0 0 0 0)
(2.71051e-14 -5.22809e-14 0 2.71051e-14 1.72927e-15 0 0 0 0)
(-2.71051e-14 -9.5565e-15 0 5.42101e-14 -3.43761e-15 0 0 0 0)
(3.28326e-09 -4.74939e-07 0 -1.11906e-09 -2.86664e-09 0 0 0 0)
(-3.81197e-09 5.87687e-07 0 2.17626e-10 8.06631e-10 0 0 0 0)
(7.65393e-10 -1.39484e-07 0 -7.54334e-11 -2.17212e-10 0 0 0 0)
(-2.93006e-10 3.30972e-08 0 1.61004e-11 4.70011e-11 0 0 0 0)
(6.89282e-11 -7.85701e-09 0 -6.88468e-12 -1.86664e-11 0 0 0 0)
(-1.69949e-11 1.86135e-09 0 -1.35525e-12 2.07949e-12 0 0 0 0)
(6.17995e-12 -4.44481e-10 0 -2.41235e-12 -1.58817e-12 0 0 0 0)
(-1.16552e-12 1.03379e-10 0 -1.54499e-12 1.99706e-13 0 0 0 0)
(4.06576e-13 -2.60382e-11 0 -1.11131e-12 3.90714e-14 0 0 0 0)
(-2.43945e-13 5.11226e-12 0 -7.31836e-13 1.76409e-13 0 0 0 0)
(-1.0842e-13 -1.96906e-12 0 -5.14996e-13 1.6524e-13 0 0 0 0)
(-1.6263e-13 -7.07693e-14 0 -2.98156e-13 1.72075e-13 0 0 0 0)
(-1.6263e-13 -3.66871e-13 0 -2.1684e-13 1.30225e-13 0 0 0 0)
(-8.13152e-14 -2.02317e-13 0 -1.0842e-13 9.37938e-14 0 0 0 0)
(-1.0842e-13 -1.87042e-13 0 -2.71051e-14 9.62007e-14 0 0 0 0)
(-1.0842e-13 -1.39412e-13 0 -2.71051e-14 7.35451e-14 0 0 0 0)
(-2.71051e-14 -1.04793e-13 0 -2.71051e-14 3.65512e-14 0 0 0 0)
(0 -9.46148e-14 0 -2.71051e-14 2.64841e-14 0 0 0 0)
(-2.71051e-14 -6.56553e-14 0 0 2.53312e-14 0 0 0 0)
(-2.71051e-14 -2.73852e-14 0 -2.71051e-14 1.47111e-14 0 0 0 0)
(-3.68713e-09 4.73675e-07 0 2.9016e-10 3.4535e-09 0 0 0 0)
(4.25075e-09 -5.86061e-07 0 -4.7461e-11 -8.98026e-10 0 0 0 0)
(-8.44675e-10 1.39062e-07 0 1.68864e-11 2.1428e-10 0 0 0 0)
(3.322e-10 -3.29942e-08 0 -3.84892e-12 -5.85522e-11 0 0 0 0)
(-7.0446e-11 7.82712e-09 0 -2.98156e-13 1.0868e-11 0 0 0 0)
(2.2443e-11 -1.85886e-09 0 -1.78893e-12 -5.14721e-12 0 0 0 0)
(-5.12286e-12 4.39317e-10 0 -1.35525e-12 -1.41246e-13 0 0 0 0)
(2.11419e-12 -1.0576e-10 0 -1.16552e-12 -7.02525e-13 0 0 0 0)
(-2.1684e-13 2.38653e-11 0 -8.94467e-13 -1.76949e-13 0 0 0 0)
(2.43945e-13 -6.60224e-12 0 -7.04731e-13 -1.01753e-13 0 0 0 0)
(0 8.80926e-13 0 -5.42101e-13 -1.97789e-14 0 0 0 0)
(0 -7.23821e-13 0 -4.33681e-13 1.99859e-14 0 0 0 0)
(-5.42101e-14 -2.25265e-13 0 -2.1684e-13 2.77354e-14 0 0 0 0)
(0 -2.40015e-13 0 -2.43945e-13 2.66505e-14 0 0 0 0)
(-5.42101e-14 -1.77061e-13 0 -1.35525e-13 3.12454e-14 0 0 0 0)
(-2.71051e-14 -1.65167e-13 0 -2.71051e-14 3.4887e-14 0 0 0 0)
(-5.42101e-14 -1.30676e-13 0 -2.71051e-14 2.19347e-14 0 0 0 0)
(0 -9.69633e-14 0 0 1.02451e-14 0 0 0 0)
(2.71051e-14 -6.40538e-14 0 -2.71051e-14 2.1717e-14 0 0 0 0)
(-2.71051e-14 -4.95989e-14 0 0 1.24028e-14 0 0 0 0)
(3.52596e-09 -4.72383e-07 0 3.86952e-10 -3.61463e-09 0 0 0 0)
(-4.08525e-09 5.84448e-07 0 -8.16675e-11 8.99558e-10 0 0 0 0)
(8.09005e-10 -1.38645e-07 0 3.72152e-11 -2.20618e-10 0 0 0 0)
(-3.10217e-10 3.28938e-08 0 -7.80626e-12 5.08875e-11 0 0 0 0)
(7.10966e-11 -7.8036e-09 0 2.22261e-12 -1.52767e-11 0 0 0 0)
(-1.80249e-11 1.85034e-09 0 -1.46367e-12 1.70457e-12 0 0 0 0)
(6.74916e-12 -4.40036e-10 0 -5.69206e-13 -1.83326e-12 0 0 0 0)
(-7.31836e-13 1.03344e-10 0 -8.40257e-13 -4.72974e-13 0 0 0 0)
(8.40257e-13 -2.54374e-11 0 -6.23416e-13 -4.65768e-13 0 0 0 0)
(1.35525e-13 5.26943e-12 0 -4.87891e-13 -2.23989e-13 0 0 0 0)
(1.6263e-13 -1.84732e-12 0 -3.52366e-13 -1.51253e-13 0 0 0 0)
(1.35525e-13 -2.3255e-14 0 -3.52366e-13 -9.38661e-14 0 0 0 0)
(5.42101e-14 -3.60206e-13 0 -1.89735e-13 -5.99742e-14 0 0 0 0)
(0 -1.98807e-13 0 -1.35525e-13 -4.58409e-14 0 0 0 0)
(8.13152e-14 -1.78806e-13 0 -1.0842e-13 -4.56471e-14 0 0 0 0)
(0 -1.48723e-13 0 -5.42101e-14 -1.44662e-14 0 0 0 0)
(0 -1.29435e-13 0 -2.71051e-14 4.34002e-15 0 0 0 0)
(0 -9.48324e-14 0 2.71051e-14 1.24204e-14 0 0 0 0)
(0 -6.34976e-14 0 0 1.19025e-14 0 0 0 0)
(0 -6.1505e-14 0 -2.71051e-14 7.56649e-15 0 0 0 0)
(-3.38179e-09 4.7096e-07 0 -6.43555e-10 3.64617e-09 0 0 0 0)
(3.90099e-09 -5.82667e-07 0 1.34495e-10 -8.85485e-10 0 0 0 0)
(-7.70732e-10 1.38213e-07 0 -5.30717e-11 2.10262e-10 0 0 0 0)
(2.97153e-10 -3.27889e-08 0 1.27394e-11 -5.26433e-11 0 0 0 0)
(-6.41848e-11 7.77794e-09 0 -3.60497e-12 1.07494e-11 0 0 0 0)
(1.97054e-11 -1.84542e-09 0 8.13152e-13 -4.24448e-12 0 0 0 0)
(-4.47233e-12 4.37139e-10 0 -7.04731e-13 -2.70691e-13 0 0 0 0)
(2.03288e-12 -1.04392e-10 0 -3.52366e-13 -8.82736e-13 0 0 0 0)
(1.89735e-13 2.41143e-11 0 -4.06576e-13 -4.54968e-13 0 0 0 0)
(4.06576e-13 -6.28773e-12 0 -3.52366e-13 -3.47394e-13 0 0 0 0)
(1.6263e-13 1.01105e-12 0 -3.25261e-13 -2.21199e-13 0 0 0 0)
(1.89735e-13 -6.32543e-13 0 -1.35525e-13 -1.63203e-13 0 0 0 0)
(1.6263e-13 -1.7724e-13 0 -2.1684e-13 -1.13343e-13 0 0 0 0)
(1.0842e-13 -2.25688e-13 0 -5.42101e-14 -8.68876e-14 0 0 0 0)
(8.13152e-14 -1.45686e-13 0 -8.13152e-14 -7.15969e-14 0 0 0 0)
(2.71051e-14 -1.1518e-13 0 -5.42101e-14 -4.06952e-14 0 0 0 0)
(-2.71051e-14 -1.0379e-13 0 -5.42101e-14 -1.65037e-14 0 0 0 0)
(0 -8.94009e-14 0 -8.13152e-14 -2.427e-15 0 0 0 0)
(2.71051e-14 -6.89077e-14 0 0 -4.00541e-15 0 0 0 0)
(-2.71051e-14 -6.90679e-14 0 2.71051e-14 -1.46399e-15 0 0 0 0)
(3.01685e-09 -4.69622e-07 0 7.8976e-10 -3.51551e-09 0 0 0 0)
(-3.49474e-09 5.81012e-07 0 -1.59866e-10 8.40081e-10 0 0 0 0)
(6.87249e-10 -1.37812e-07 0 6.48353e-11 -2.01421e-10 0 0 0 0)
(-2.60751e-10 3.26943e-08 0 -1.41759e-11 4.65558e-11 0 0 0 0)
(5.91432e-11 -7.75521e-09 0 4.3097e-12 -1.26249e-11 0 0 0 0)
(-1.51246e-11 1.83932e-09 0 -1.38236e-12 1.64175e-12 0 0 0 0)
(5.58364e-12 -4.36674e-10 0 5.42101e-14 -1.56011e-12 0 0 0 0)
(-4.33681e-13 1.03159e-10 0 -4.06576e-13 -5.50047e-13 0 0 0 0)
(8.94467e-13 -2.49021e-11 0 -2.1684e-13 -5.70824e-13 0 0 0 0)
(2.71051e-13 5.5032e-12 0 -2.71051e-13 -3.86225e-13 0 0 0 0)
(3.52366e-13 -1.66313e-12 0 -1.35525e-13 -2.91324e-13 0 0 0 0)
(2.1684e-13 8.46007e-14 0 -1.89735e-13 -2.21611e-13 0 0 0 0)
(1.89735e-13 -2.83891e-13 0 -1.35525e-13 -1.73949e-13 0 0 0 0)
(8.13152e-14 -1.57061e-13 0 -8.13152e-14 -1.15081e-13 0 0 0 0)
(2.71051e-14 -1.32613e-13 0 -8.13152e-14 -6.65403e-14 0 0 0 0)
(1.0842e-13 -9.36297e-14 0 -8.13152e-14 -5.07009e-14 0 0 0 0)
(0 -9.11672e-14 0 -2.71051e-14 -4.69612e-14 0 0 0 0)
(8.13152e-14 -8.23342e-14 0 0 -3.06933e-14 0 0 0 0)
(0 -6.25346e-14 0 0 -1.44897e-14 0 0 0 0)
(0 -5.60356e-14 0 -2.71051e-14 -8.78135e-15 0 0 0 0)
(-2.75184e-09 4.68285e-07 0 -7.95181e-10 3.36831e-09 0 0 0 0)
(3.17603e-09 -5.79353e-07 0 1.61248e-10 -7.97755e-10 0 0 0 0)
(-6.25097e-10 1.3742e-07 0 -6.28024e-11 1.88611e-10 0 0 0 0)
(2.36708e-10 -3.26001e-08 0 1.47723e-11 -4.57798e-11 0 0 0 0)
(-5.13912e-11 7.73303e-09 0 -3.95734e-12 9.6334e-12 0 0 0 0)
(1.53957e-11 -1.83435e-09 0 1.24683e-12 -3.41565e-12 0 0 0 0)
(-3.44234e-12 4.34947e-10 0 -3.79471e-13 -2.12396e-13 0 0 0 0)
(1.73472e-12 -1.03403e-10 0 8.13152e-14 -8.26846e-13 0 0 0 0)
(2.43945e-13 2.42781e-11 0 -1.89735e-13 -5.20322e-13 0 0 0 0)
(4.87891e-13 -6.00823e-12 0 -8.13152e-14 -4.27076e-13 0 0 0 0)
(3.25261e-13 1.17566e-12 0 -8.13152e-14 -3.27091e-13 0 0 0 0)
(2.1684e-13 -5.15168e-13 0 -8.13152e-14 -2.52351e-13 0 0 0 0)
(2.1684e-13 -7.07096e-14 0 5.42101e-14 -1.98796e-13 0 0 0 0)
(1.89735e-13 -1.18279e-13 0 -2.71051e-14 -1.27901e-13 0 0 0 0)
(2.71051e-14 -8.13055e-14 0 0 -7.57079e-14 0 0 0 0)
(5.42101e-14 -9.56004e-14 0 -5.42101e-14 -6.0364e-14 0 0 0 0)
(8.13152e-14 -8.37822e-14 0 0 -5.05687e-14 0 0 0 0)
(0 -5.69293e-14 0 0 -3.68436e-14 0 0 0 0)
(5.42101e-14 -4.69958e-14 0 -5.42101e-14 -1.71374e-14 0 0 0 0)
(0 -4.57968e-14 0 2.71051e-14 -2.56911e-15 0 0 0 0)
(2.38291e-09 -4.67052e-07 0 7.55418e-10 -3.14819e-09 0 0 0 0)
(-2.76238e-09 5.77832e-07 0 -1.51111e-10 7.40481e-10 0 0 0 0)
(5.408e-10 -1.3706e-07 0 5.92788e-11 -1.76228e-10 0 0 0 0)
(-2.01878e-10 3.25153e-08 0 -1.32002e-11 4.05816e-11 0 0 0 0)
(4.56178e-11 -7.71284e-09 0 3.95734e-12 -1.06126e-11 0 0 0 0)
(-1.15468e-11 1.82947e-09 0 -1.11131e-12 1.48059e-12 0 0 0 0)
(4.39102e-12 -4.34086e-10 0 3.25261e-13 -1.28023e-12 0 0 0 0)
(-2.71051e-13 1.02851e-10 0 -1.35525e-13 -5.1557e-13 0 0 0 0)
(7.58942e-13 -2.45023e-11 0 -8.13152e-14 -5.7137e-13 0 0 0 0)
(4.06576e-13 5.69643e-12 0 -2.71051e-14 -4.41109e-13 0 0 0 0)
(3.52366e-13 -1.48841e-12 0 -5.42101e-14 -3.56134e-13 0 0 0 0)
(2.1684e-13 2.12896e-13 0 0 -2.60441e-13 0 0 0 0)
(2.1684e-13 -1.59442e-13 0 -1.0842e-13 -1.71745e-13 0 0 0 0)
(1.0842e-13 -3.39724e-14 0 -5.42101e-14 -1.22288e-13 0 0 0 0)
(1.0842e-13 -6.50759e-14 0 0 -1.04824e-13 0 0 0 0)
(5.42101e-14 -6.84905e-14 0 0 -8.39002e-14 0 0 0 0)
(0 -6.76467e-14 0 0 -4.64718e-14 0 0 0 0)
(8.13152e-14 -4.8903e-14 0 -2.71051e-14 -3.75644e-14 0 0 0 0)
(5.42101e-14 -2.826e-14 0 5.42101e-14 -1.32056e-14 0 0 0 0)
(0 -3.6329e-14 0 0 5.21594e-16 0 0 0 0)
(-2.14756e-09 4.65877e-07 0 -6.73425e-10 2.95482e-09 0 0 0 0)
(2.47995e-09 -5.76381e-07 0 1.34278e-10 -6.92803e-10 0 0 0 0)
(-4.87186e-10 1.3672e-07 0 -5.18249e-11 1.63268e-10 0 0 0 0)
(1.81306e-10 -3.24344e-08 0 1.18449e-11 -3.92985e-11 0 0 0 0)
(-3.92481e-11 7.69393e-09 0 -3.25261e-12 8.21394e-12 0 0 0 0)
(1.17636e-11 -1.82502e-09 0 1.11131e-12 -2.94314e-12 0 0 0 0)
(-2.49366e-12 4.32951e-10 0 -1.35525e-13 -2.05299e-13 0 0 0 0)
(1.38236e-12 -1.02694e-10 0 1.89735e-13 -7.23458e-13 0 0 0 0)
(2.98156e-13 2.43526e-11 0 5.42101e-14 -4.89158e-13 0 0 0 0)
(5.42101e-13 -5.79299e-12 0 2.71051e-14 -4.50161e-13 0 0 0 0)
(3.25261e-13 1.35633e-12 0 -2.71051e-14 -3.52623e-13 0 0 0 0)
(2.43945e-13 -3.30779e-13 0 5.42101e-14 -2.57824e-13 0 0 0 0)
(1.35525e-13 6.7443e-14 0 -2.71051e-14 -1.80674e-13 0 0 0 0)
(2.43945e-13 -5.13583e-14 0 0 -1.50701e-13 0 0 0 0)
(1.0842e-13 -4.29176e-14 0 -5.42101e-14 -1.20697e-13 0 0 0 0)
(5.42101e-14 -3.72478e-14 0 5.42101e-14 -8.37731e-14 0 0 0 0)
(5.42101e-14 -3.74465e-14 0 0 -5.58698e-14 0 0 0 0)
(8.13152e-14 -2.3663e-14 0 2.71051e-14 -3.15999e-14 0 0 0 0)
(0 -8.90978e-15 0 -5.42101e-14 -1.73723e-14 0 0 0 0)
(0 -3.31129e-14 0 -2.71051e-14 -4.46716e-15 0 0 0 0)
(1.84379e-09 -4.6479e-07 0 5.69152e-10 -2.72738e-09 0 0 0 0)
(-2.14081e-09 5.7504e-07 0 -1.12703e-10 6.37537e-10 0 0 0 0)
(4.18421e-10 -1.36407e-07 0 4.30428e-11 -1.51553e-10 0 0 0 0)
(-1.53333e-10 3.23602e-08 0 -9.75782e-12 3.46466e-11 0 0 0 0)
(3.48571e-11 -7.67649e-09 0 2.76472e-12 -9.17699e-12 0 0 0 0)
(-8.42967e-12 1.82105e-09 0 -7.04731e-13 1.12578e-12 0 0 0 0)
(3.41524e-12 -4.31866e-10 0 3.25261e-13 -1.18789e-12 0 0 0 0)
(-5.42101e-14 1.02568e-10 0 8.13152e-14 -5.12139e-13 0 0 0 0)
(6.77626e-13 -2.4229e-11 0 2.1684e-13 -5.292e-13 0 0 0 0)
(2.98156e-13 5.83297e-12 0 1.35525e-13 -3.95877e-13 0 0 0 0)
(3.25261e-13 -1.29607e-12 0 1.35525e-13 -3.04907e-13 0 0 0 0)
(2.71051e-13 3.84845e-13 0 2.71051e-14 -2.22867e-13 0 0 0 0)
(1.35525e-13 -5.23181e-14 0 8.13152e-14 -1.76573e-13 0 0 0 0)
(1.35525e-13 2.60049e-14 0 0 -1.41617e-13 0 0 0 0)
(1.0842e-13 1.85196e-15 0 8.13152e-14 -9.67517e-14 0 0 0 0)
(5.42101e-14 -3.66363e-15 0 -5.42101e-14 -7.08216e-14 0 0 0 0)
(5.42101e-14 -1.54736e-14 0 0 -5.71626e-14 0 0 0 0)
(0 -1.04054e-14 0 -2.71051e-14 -3.43502e-14 0 0 0 0)
(8.13152e-14 -1.12728e-15 0 0 -3.33122e-14 0 0 0 0)
(0 -1.44895e-14 0 0 -1.16045e-14 0 0 0 0)
(-1.69108e-09 4.63787e-07 0 -4.77943e-10 2.55241e-09 0 0 0 0)
(1.95379e-09 -5.73805e-07 0 9.3648e-11 -5.97084e-10 0 0 0 0)
(-3.84295e-10 1.36117e-07 0 -3.63208e-11 1.40174e-10 0 0 0 0)
(1.41082e-10 -3.22921e-08 0 7.94178e-12 -3.41336e-11 0 0 0 0)
(-3.0195e-11 7.6604e-09 0 -2.27682e-12 6.76539e-12 0 0 0 0)
(9.32414e-12 -1.81703e-09 0 7.86047e-13 -2.71773e-12 0 0 0 0)
(-1.6263e-12 4.31313e-10 0 2.71051e-14 -3.59315e-13 0 0 0 0)
(1.21973e-12 -1.02035e-10 0 2.1684e-13 -7.35201e-13 0 0 0 0)
(3.79471e-13 2.44689e-11 0 1.35525e-13 -4.714e-13 0 0 0 0)
(3.79471e-13 -5.5687e-12 0 1.89735e-13 -3.78016e-13 0 0 0 0)
(2.71051e-13 1.52934e-12 0 8.13152e-14 -2.70524e-13 0 0 0 0)
(2.1684e-13 -2.02445e-13 0 5.42101e-14 -2.15049e-13 0 0 0 0)
(1.89735e-13 1.48693e-13 0 8.13152e-14 -1.63509e-13 0 0 0 0)
(1.35525e-13 2.84629e-14 0 8.13152e-14 -1.23671e-13 0 0 0 0)
(2.71051e-14 2.78782e-14 0 1.0842e-13 -8.79971e-14 0 0 0 0)
(5.42101e-14 2.34129e-15 0 1.0842e-13 -6.37319e-14 0 0 0 0)
(5.42101e-14 -9.75017e-16 0 2.71051e-14 -4.04247e-14 0 0 0 0)
(8.13152e-14 1.87347e-16 0 8.13152e-14 -2.49829e-14 0 0 0 0)
(0 1.38359e-14 0 5.42101e-14 -1.80363e-14 0 0 0 0)
(0 1.18039e-14 0 0 -1.34832e-14 0 0 0 0)
(1.4595e-09 -4.62835e-07 0 3.62015e-10 -2.36047e-09 0 0 0 0)
(-1.69916e-09 5.72628e-07 0 -7.1476e-11 5.51851e-10 0 0 0 0)
(3.32687e-10 -1.35844e-07 0 2.61022e-11 -1.32069e-10 0 0 0 0)
(-1.19262e-10 3.22268e-08 0 -6.23416e-12 2.94426e-11 0 0 0 0)
(2.77014e-11 -7.64507e-09 0 1.78893e-12 -8.4664e-12 0 0 0 0)
(-6.17995e-12 1.81393e-09 0 -1.35525e-13 6.9165e-13 0 0 0 0)
(2.84603e-12 -4.29883e-10 0 5.42101e-13 -1.19541e-12 0 0 0 0)
(8.13152e-14 1.02455e-10 0 3.25261e-13 -4.94208e-13 0 0 0 0)
(5.96311e-13 -2.38718e-11 0 3.52366e-13 -4.62755e-13 0 0 0 0)
(2.71051e-13 6.03384e-12 0 1.6263e-13 -3.30422e-13 0 0 0 0)
(2.98156e-13 -1.1331e-12 0 2.1684e-13 -2.54512e-13 0 0 0 0)
(1.89735e-13 4.91859e-13 0 2.1684e-13 -2.00138e-13 0 0 0 0)
(1.35525e-13 3.90605e-14 0 1.0842e-13 -1.48405e-13 0 0 0 0)
(1.0842e-13 1.01517e-13 0 8.13152e-14 -1.12618e-13 0 0 0 0)
(1.35525e-13 6.17909e-14 0 0 -8.39948e-14 0 0 0 0)
(5.42101e-14 4.39088e-14 0 8.13152e-14 -4.27224e-14 0 0 0 0)
(0 2.32754e-14 0 5.42101e-14 -2.07901e-14 0 0 0 0)
(0 1.19829e-14 0 5.42101e-14 9.18103e-17 0 0 0 0)
(0 1.03724e-14 0 2.71051e-14 4.77693e-15 0 0 0 0)
(0 1.703e-14 0 0 -1.96602e-15 0 0 0 0)
(-1.40057e-09 4.61978e-07 0 -3.16235e-10 2.2463e-09 0 0 0 0)
(1.6179e-09 -5.71577e-07 0 6.10677e-11 -5.2745e-10 0 0 0 0)
(-3.18972e-10 1.35594e-07 0 -2.45572e-11 1.2236e-10 0 0 0 0)
(1.16687e-10 -3.21685e-08 0 5.25838e-12 -3.11572e-11 0 0 0 0)
(-2.41506e-11 7.63165e-09 0 -1.24683e-12 5.2589e-12 0 0 0 0)
(8.18573e-12 -1.80976e-09 0 1.02999e-12 -2.79037e-12 0 0 0 0)
(-1.21973e-12 4.30127e-10 0 4.87891e-13 -4.44548e-13 0 0 0 0)
(9.75782e-13 -1.01303e-10 0 5.69206e-13 -6.40328e-13 0 0 0 0)
(2.71051e-13 2.46326e-11 0 4.87891e-13 -3.46651e-13 0 0 0 0)
(3.25261e-13 -5.36045e-12 0 4.06576e-13 -2.53795e-13 0 0 0 0)
(2.1684e-13 1.65962e-12 0 2.71051e-13 -1.83949e-13 0 0 0 0)
(1.35525e-13 -9.63375e-14 0 1.89735e-13 -1.33331e-13 0 0 0 0)
(8.13152e-14 2.36213e-13 0 1.6263e-13 -8.87595e-14 0 0 0 0)
(0 9.28729e-14 0 5.42101e-14 -4.64869e-14 0 0 0 0)
(5.42101e-14 9.77738e-14 0 0 -4.09709e-14 0 0 0 0)
(2.71051e-14 6.55459e-14 0 -8.13152e-14 -4.23511e-14 0 0 0 0)
(5.42101e-14 4.18392e-14 0 0 -3.50891e-14 0 0 0 0)
(5.42101e-14 2.57544e-14 0 -5.42101e-14 -1.60247e-14 0 0 0 0)
(-2.71051e-14 1.17781e-14 0 0 3.81406e-15 0 0 0 0)
(-2.71051e-14 8.99296e-15 0 0 9.24483e-15 0 0 0 0)
(1.20433e-09 -4.61116e-07 0 1.78839e-10 -2.11345e-09 0 0 0 0)
(-1.40746e-09 5.70504e-07 0 -3.71339e-11 4.95118e-10 0 0 0 0)
(2.76797e-10 -1.35347e-07 0 1.20346e-11 -1.21699e-10 0 0 0 0)
(-9.59248e-11 3.21097e-08 0 -2.76472e-12 2.51249e-11 0 0 0 0)
(2.35543e-11 -7.6167e-09 0 1.5992e-12 -8.8623e-12 0 0 0 0)
(-4.49944e-12 1.80823e-09 0 8.40257e-13 2.74505e-13 0 0 0 0)
(2.41235e-12 -4.27733e-10 0 9.75782e-13 -1.17815e-12 0 0 0 0)
(8.13152e-14 1.02553e-10 0 8.40257e-13 -3.56795e-13 0 0 0 0)
(3.52366e-13 -2.34853e-11 0 6.23416e-13 -2.60571e-13 0 0 0 0)
(8.13152e-14 6.19655e-12 0 4.87891e-13 -9.81405e-14 0 0 0 0)
(8.13152e-14 -1.01264e-12 0 3.52366e-13 -6.03716e-14 0 0 0 0)
(5.42101e-14 5.87049e-13 0 2.1684e-13 -4.35996e-14 0 0 0 0)
(5.42101e-14 1.25905e-13 0 1.6263e-13 -2.95088e-14 0 0 0 0)
(-5.42101e-14 1.49306e-13 0 1.35525e-13 1.55219e-15 0 0 0 0)
(5.42101e-14 6.59267e-14 0 8.13152e-14 -4.10244e-15 0 0 0 0)
(2.71051e-14 4.97906e-14 0 8.13152e-14 -2.35056e-14 0 0 0 0)
(0 4.96018e-14 0 0 -1.71298e-14 0 0 0 0)
(5.42101e-14 5.08861e-14 0 0 -1.76105e-14 0 0 0 0)
(0 3.56419e-14 0 -2.71051e-14 -4.98017e-15 0 0 0 0)
(0 3.97111e-15 0 2.71051e-14 2.94004e-15 0 0 0 0)
(-1.25887e-09 4.6036e-07 0 -2.74005e-10 2.09285e-09 0 0 0 0)
(1.45107e-09 -5.69585e-07 0 5.39662e-11 -4.92827e-10 0 0 0 0)
(-2.84576e-10 1.35124e-07 0 -2.18467e-11 1.04752e-10 0 0 0 0)
(1.06252e-10 -3.20556e-08 0 6.34258e-12 -3.12147e-11 0 0 0 0)
(-2.05456e-11 7.6068e-09 0 4.33681e-13 3.0443e-12 0 0 0 0)
(7.56231e-12 -1.80207e-09 0 2.43945e-12 -2.51875e-12 0 0 0 0)
(-1.19262e-12 4.29496e-10 0 1.40946e-12 -1.92257e-13 0 0 0 0)
(6.23416e-13 -1.00385e-10 0 1.16552e-12 -1.69943e-13 0 0 0 0)
(-8.13152e-14 2.48913e-11 0 7.04731e-13 3.52743e-14 0 0 0 0)
(2.71051e-14 -5.16025e-12 0 4.60786e-13 6.83575e-14 0 0 0 0)
(-8.13152e-14 1.71417e-12 0 3.25261e-13 7.46757e-14 0 0 0 0)
(-2.71051e-14 -6.54747e-14 0 1.89735e-13 5.51686e-14 0 0 0 0)
(-5.42101e-14 2.81365e-13 0 1.0842e-13 3.38898e-14 0 0 0 0)
(-2.71051e-14 1.18279e-13 0 8.13152e-14 3.16048e-14 0 0 0 0)
(-2.71051e-14 7.27161e-14 0 5.42101e-14 2.62393e-14 0 0 0 0)
(-2.71051e-14 5.25186e-14 0 5.42101e-14 2.5158e-14 0 0 0 0)
(-2.71051e-14 4.77342e-14 0 -5.42101e-14 1.47629e-14 0 0 0 0)
(0 3.7904e-14 0 0 -4.40366e-15 0 0 0 0)
(2.71051e-14 3.23286e-14 0 0 -1.19255e-14 0 0 0 0)
(-2.71051e-14 1.10331e-14 0 0 -4.47953e-15 0 0 0 0)
(9.84266e-10 -4.59516e-07 0 -4.15249e-11 -1.93099e-09 0 0 0 0)
(-1.15527e-09 5.68516e-07 0 -3.95734e-12 4.34474e-10 0 0 0 0)
(2.29146e-10 -1.34886e-07 0 -4.25549e-12 -1.41677e-10 0 0 0 0)
(-7.35902e-11 3.2008e-08 0 8.72783e-12 2.75809e-11 0 0 0 0)
(1.96241e-11 -7.58801e-09 0 3.41524e-12 -1.13722e-11 0 0 0 0)
(-3.52366e-12 1.80499e-09 0 3.84892e-12 2.75999e-12 0 0 0 0)
(1.13841e-12 -4.25385e-10 0 1.81604e-12 -4.6561e-13 0 0 0 0)
(-6.23416e-13 1.02781e-10 0 1.27394e-12 6.91746e-13 0 0 0 0)
(-2.98156e-13 -2.3247e-11 0 7.04731e-13 2.98662e-13 0 0 0 0)
(-2.98156e-13 6.23595e-12 0 4.87891e-13 2.92267e-13 0 0 0 0)
(-2.1684e-13 -1.02583e-12 0 2.98156e-13 1.9163e-13 0 0 0 0)
(-1.6263e-13 5.46263e-13 0 2.43945e-13 1.59335e-13 0 0 0 0)
(-8.13152e-14 1.02341e-13 0 1.0842e-13 1.11369e-13 0 0 0 0)
(-5.42101e-14 1.41655e-13 0 5.42101e-14 5.93827e-14 0 0 0 0)
(-2.71051e-14 5.94799e-14 0 2.71051e-14 4.05535e-14 0 0 0 0)
(-8.13152e-14 3.83141e-14 0 0 3.91909e-14 0 0 0 0)
(-2.71051e-14 2.00401e-14 0 0 1.58399e-14 0 0 0 0)
(8.13152e-14 2.41976e-14 0 0 -4.80897e-15 0 0 0 0)
(0 3.55661e-14 0 0 -8.58975e-15 0 0 0 0)
(0 2.03762e-14 0 -2.71051e-14 -6.90697e-15 0 0 0 0)
(-1.30432e-09 4.58864e-07 0 -1.31121e-09 1.84344e-09 0 0 0 0)
(1.48831e-09 -5.67796e-07 0 6.86408e-10 -5.1465e-10 0 0 0 0)
(-2.71864e-10 1.34718e-07 0 -2.57525e-10 1.01234e-10 0 0 0 0)
(1.1395e-10 -3.19253e-08 0 1.20482e-10 -2.00765e-11 0 0 0 0)
(-2.54245e-11 7.58198e-09 0 -2.6319e-11 7.72211e-12 0 0 0 0)
(5.9089e-12 -1.79117e-09 0 1.52059e-11 1.57945e-12 0 0 0 0)
(-3.79471e-12 4.27428e-10 0 -1.51788e-12 1.67705e-12 0 0 0 0)
(-4.06576e-13 -9.96209e-11 0 2.1684e-12 1.06375e-12 0 0 0 0)
(-9.48677e-13 2.44918e-11 0 3.25261e-13 6.83227e-13 0 0 0 0)
(-3.79471e-13 -5.26729e-12 0 5.42101e-13 4.65333e-13 0 0 0 0)
(-3.25261e-13 1.58123e-12 0 2.43945e-13 3.15523e-13 0 0 0 0)
(-2.43945e-13 -1.45735e-13 0 2.1684e-13 2.36133e-13 0 0 0 0)
(-1.89735e-13 1.81413e-13 0 1.89735e-13 1.68571e-13 0 0 0 0)
(-8.13152e-14 4.74637e-14 0 1.6263e-13 9.07322e-14 0 0 0 0)
(-8.13152e-14 5.25243e-14 0 1.0842e-13 5.72122e-14 0 0 0 0)
(-5.42101e-14 2.78049e-14 0 1.0842e-13 4.3433e-14 0 0 0 0)
(0 3.73429e-15 0 1.35525e-13 3.32081e-14 0 0 0 0)
(-2.71051e-14 1.34744e-14 0 5.42101e-14 2.57948e-14 0 0 0 0)
(-2.71051e-14 3.02306e-14 0 2.71051e-14 1.10357e-14 0 0 0 0)
(0 2.65298e-14 0 2.71051e-14 -3.23698e-15 0 0 0 0)
(3.59494e-10 -4.58187e-07 0 1.68461e-09 -1.02143e-09 0 0 0 0)
(-1.01644e-10 5.66774e-07 0 -7.39751e-10 3.44666e-10 0 0 0 0)
(-3.36807e-10 -1.34391e-07 0 2.97885e-10 1.52082e-13 0 0 0 0)
(1.57589e-10 3.19145e-08 0 -1.31107e-10 1.83872e-11 0 0 0 0)
(-8.55978e-11 -7.56635e-09 0 2.63732e-11 1.0962e-11 0 0 0 0)
(2.13046e-11 1.79894e-09 0 -2.00306e-11 2.75611e-12 0 0 0 0)
(-1.19262e-11 -4.259e-10 0 -8.67362e-13 3.18524e-12 0 0 0 0)
(1.21973e-12 1.01787e-10 0 -4.33681e-12 1.2285e-12 0 0 0 0)
(-1.95156e-12 -2.38454e-11 0 -1.65341e-12 1.01911e-12 0 0 0 0)
(-3.52366e-13 5.86824e-12 0 -1.49078e-12 5.82063e-13 0 0 0 0)
(-5.42101e-13 -1.25503e-12 0 -8.67362e-13 4.18158e-13 0 0 0 0)
(-1.89735e-13 3.99311e-13 0 -6.50521e-13 2.55859e-13 0 0 0 0)
(-1.6263e-13 -4.30599e-14 0 -4.33681e-13 1.64582e-13 0 0 0 0)
(-1.35525e-13 3.02965e-14 0 -2.98156e-13 1.17506e-13 0 0 0 0)
(-8.13152e-14 1.21807e-14 0 -1.89735e-13 8.68221e-14 0 0 0 0)
(-8.13152e-14 1.43101e-14 0 -1.6263e-13 5.28008e-14 0 0 0 0)
(-5.42101e-14 2.40195e-15 0 -8.13152e-14 4.47071e-14 0 0 0 0)
(-2.71051e-14 2.02525e-15 0 -5.42101e-14 4.66646e-14 0 0 0 0)
(-2.71051e-14 6.53423e-15 0 -2.71051e-14 2.92075e-14 0 0 0 0)
(-2.71051e-14 1.25774e-14 0 -2.71051e-14 9.89973e-15 0 0 0 0)
)
;

boundaryField
{
    movingWall
    {
        type            extrapolatedCalculated;
        value           nonuniform List<tensor> 
20
(
(3.59494e-10 -4.58187e-07 0 3.10596e-10 2.40238e-06 0 0 0 0)
(-1.01644e-10 5.66774e-07 0 -1.74851e-09 -5.69635e-07 0 0 0 0)
(-3.36807e-10 -1.34391e-07 0 7.17115e-10 1.35286e-07 0 0 0 0)
(1.57589e-10 3.19145e-08 0 -4.01323e-10 -3.20695e-08 0 0 0 0)
(-8.55978e-11 -7.56635e-09 0 8.6775e-11 7.62822e-09 0 0 0 0)
(2.13046e-11 1.79894e-09 0 -5.88862e-11 -1.80407e-09 0 0 0 0)
(-1.19262e-11 -4.259e-10 0 1.5099e-12 4.32439e-10 0 0 0 0)
(1.21973e-12 1.01787e-10 0 -1.1191e-11 -1.00473e-10 0 0 0 0)
(-1.95156e-12 -2.38454e-11 0 -3.33067e-12 2.52905e-11 0 0 0 0)
(-3.52366e-13 5.86824e-12 0 -3.4639e-12 -5.09136e-12 0 0 0 0)
(-5.42101e-13 -1.25503e-12 0 -1.86517e-12 1.81756e-12 0 0 0 0)
(-1.89735e-13 3.99311e-13 0 -1.37668e-12 -7.12471e-14 0 0 0 0)
(-1.6263e-13 -4.30599e-14 0 -9.76996e-13 2.20312e-13 0 0 0 0)
(-1.35525e-13 3.02965e-14 0 -7.10543e-13 1.00993e-13 0 0 0 0)
(-8.13152e-14 1.21807e-14 0 -4.88498e-13 9.91259e-14 0 0 0 0)
(-8.13152e-14 1.43101e-14 0 -3.55271e-13 5.22697e-14 0 0 0 0)
(-5.42101e-14 2.40195e-15 0 -2.22045e-13 4.18857e-14 0 0 0 0)
(-2.71051e-14 2.02525e-15 0 -1.77636e-13 4.26619e-14 0 0 0 0)
(-2.71051e-14 6.53423e-15 0 -4.44089e-14 3.37847e-14 0 0 0 0)
(-2.71051e-14 1.25774e-14 0 -4.44089e-14 1.65249e-14 0 0 0 0)
)
;
    }
    fixedWalls
    {
        type            extrapolatedCalculated;
        value           nonuniform List<tensor> 
60
(
(-2.15481e-09 2.49717e-06 0 4.40728e-10 -4.13554e-10 0 0 0 0)
(3.9178e-09 -2.49882e-06 0 -2.94979e-09 -3.97405e-10 0 0 0 0)
(-1.39541e-08 2.49558e-06 0 3.14429e-09 1.95184e-09 0 0 0 0)
(1.6495e-08 -2.49101e-06 0 -1.11906e-09 -2.86664e-09 0 0 0 0)
(-1.84303e-08 2.48411e-06 0 2.9016e-10 3.4535e-09 0 0 0 0)
(1.76556e-08 -2.4772e-06 0 3.86952e-10 -3.61463e-09 0 0 0 0)
(-1.68824e-08 2.46965e-06 0 -6.43555e-10 3.64617e-09 0 0 0 0)
(1.50813e-08 -2.46261e-06 0 7.8976e-10 -3.51551e-09 0 0 0 0)
(-1.37233e-08 2.45559e-06 0 -7.95181e-10 3.36831e-09 0 0 0 0)
(1.19007e-08 -2.44914e-06 0 7.55418e-10 -3.14819e-09 0 0 0 0)
(-1.07018e-08 2.443e-06 0 -6.73425e-10 2.95482e-09 0 0 0 0)
(9.20704e-09 -2.43732e-06 0 5.69152e-10 -2.72738e-09 0 0 0 0)
(-8.42517e-09 2.43209e-06 0 -4.77943e-10 2.55241e-09 0 0 0 0)
(7.29528e-09 -2.42711e-06 0 3.62015e-10 -2.36047e-09 0 0 0 0)
(-6.97717e-09 2.42265e-06 0 -3.16235e-10 2.2463e-09 0 0 0 0)
(6.03033e-09 -2.41813e-06 0 1.78839e-10 -2.11345e-09 0 0 0 0)
(-6.26175e-09 2.41419e-06 0 -2.74005e-10 2.09285e-09 0 0 0 0)
(4.93423e-09 -2.40976e-06 0 -4.15249e-11 -1.93099e-09 0 0 0 0)
(-6.42784e-09 2.40647e-06 0 -1.31121e-09 1.84344e-09 0 0 0 0)
(-3.10596e-10 -2.40238e-06 0 1.68461e-09 -1.02143e-09 0 0 0 0)
(0 -3.39568e-14 0 0 1.58479e-14 0 0 0 0)
(8.88178e-14 -2.94348e-14 0 0 -1.07381e-14 0 0 0 0)
(-8.88178e-14 8.99556e-15 0 5.42101e-14 -3.43761e-15 0 0 0 0)
(-4.44089e-14 -1.56844e-14 0 -2.71051e-14 1.47111e-14 0 0 0 0)
(-8.88178e-14 -4.9849e-14 0 0 1.24028e-14 0 0 0 0)
(0 -6.52957e-14 0 -2.71051e-14 7.56649e-15 0 0 0 0)
(-4.44089e-14 -8.0115e-14 0 2.71051e-14 -1.46399e-15 0 0 0 0)
(0 -5.94397e-14 0 -2.71051e-14 -8.78135e-15 0 0 0 0)
(-4.44089e-14 -4.49896e-14 0 2.71051e-14 -2.56911e-15 0 0 0 0)
(-4.44089e-14 -4.91633e-14 0 0 5.21594e-16 0 0 0 0)
(-4.44089e-14 -4.70759e-14 0 -2.71051e-14 -4.46716e-15 0 0 0 0)
(0 -3.12946e-14 0 0 -1.16045e-14 0 0 0 0)
(0 -6.57806e-16 0 0 -1.34832e-14 0 0 0 0)
(0 2.26382e-14 0 0 -1.96602e-15 0 0 0 0)
(-4.44089e-14 7.20626e-15 0 0 9.24483e-15 0 0 0 0)
(0 -1.43411e-14 0 2.71051e-14 2.94004e-15 0 0 0 0)
(-4.44089e-14 -4.55388e-15 0 0 -4.47953e-15 0 0 0 0)
(0 3.577e-15 0 -2.71051e-14 -6.90697e-15 0 0 0 0)
(0 2.3074e-14 0 2.71051e-14 -3.23698e-15 0 0 0 0)
(-4.44089e-14 1.65249e-14 0 -2.71051e-14 9.89973e-15 0 0 0 0)
(1.96783e-11 4.76106e-07 0 -2.15481e-09 2.49717e-06 0 0 0 0)
(3.33121e-10 -5.89066e-07 0 2.23355e-09 -5.9274e-07 0 0 0 0)
(-4.39536e-10 1.39832e-07 0 -8.22364e-10 1.40903e-07 0 0 0 0)
(1.85263e-10 -3.32348e-08 0 4.75442e-10 -3.34128e-08 0 0 0 0)
(-1.00614e-10 7.8828e-09 0 -8.13571e-11 7.96359e-09 0 0 0 0)
(2.13588e-11 -1.8776e-09 0 7.30083e-11 -1.88167e-09 0 0 0 0)
(-1.42302e-11 4.44316e-10 0 4.08562e-12 4.53177e-10 0 0 0 0)
(6.23416e-13 -1.06554e-10 0 1.60316e-11 -1.04403e-10 0 0 0 0)
(-2.54788e-12 2.48392e-11 0 6.61693e-12 2.69611e-11 0 0 0 0)
(-7.31836e-13 -6.20373e-12 0 5.81757e-12 -5.04619e-12 0 0 0 0)
(-7.31836e-13 1.30258e-12 0 3.77476e-12 2.14613e-12 0 0 0 0)
(-4.87891e-13 -4.20256e-13 0 2.75335e-12 1.64123e-13 0 0 0 0)
(-3.79471e-13 2.29319e-14 0 1.95399e-12 4.65102e-13 0 0 0 0)
(-2.98156e-13 -6.94483e-14 0 1.24345e-12 2.5585e-13 0 0 0 0)
(-1.89735e-13 -3.00725e-14 0 7.54952e-13 1.87309e-13 0 0 0 0)
(-1.0842e-13 -2.29705e-14 0 4.88498e-13 1.35561e-13 0 0 0 0)
(-8.13152e-14 -1.44805e-14 0 3.10862e-13 9.54269e-14 0 0 0 0)
(-5.42101e-14 -1.01417e-14 0 1.33227e-13 7.76387e-14 0 0 0 0)
(-2.71051e-14 -1.09205e-14 0 1.33227e-13 5.486e-14 0 0 0 0)
(-2.71051e-14 -2.22042e-14 0 0 3.39568e-14 0 0 0 0)
)
;
    }
    frontAndBack
    {
        type            empty;
    }
}


// ************************************************************************* //
