/*--------------------------------*- C++ -*----------------------------------*\
| =========                 |                                                 |
| \\      /  F ield         | OpenFOAM: The Open Source CFD Toolbox           |
|  \\    /   O peration     | Version:  2312                                  |
|   \\  /    A nd           | Website:  www.openfoam.com                      |
|    \\/     M anipulation  |                                                 |
\*---------------------------------------------------------------------------*/
FoamFile
{
    version     2.0;
    format      ascii;
    arch        "LSB;label=32;scalar=64";
    class       volScalarField;
    location    "4.75";
    object      Lambda2Field;
}
// * * * * * * * * * * * * * * * * * * * * * * * * * * * * * * * * * * * * * //

dimensions      [0 0 -2 0 0 0 0];

internalField   nonuniform List<scalar> 
400
(
2.09834e-16
-1.96039e-16
0
-3.51676e-18
0
-4.02578e-20
2.17758e-21
-6.57436e-22
8.7284e-23
-1.51053e-23
2.68642e-24
-2.7456e-25
1.63267e-25
3.24338e-26
2.70332e-26
6.77401e-27
5.04218e-27
2.93874e-27
7.34684e-28
2.51156e-28
1.40532e-15
8.51527e-17
1.06673e-17
-1.95711e-18
0
-2.1409e-20
3.64909e-22
-2.21492e-22
1.94836e-23
-2.77761e-24
9.13536e-25
1.30054e-25
1.36644e-25
6.35546e-26
3.34354e-26
8.2708e-27
7.05167e-27
3.24542e-27
0
1.15307e-28
1.50361e-15
3.62543e-16
3.3465e-17
2.09575e-18
7.38609e-20
1.79018e-20
0
2.33277e-22
0
4.70335e-24
0
2.35229e-25
6.70026e-26
4.25569e-26
1.17549e-26
9.4722e-27
2.93874e-27
-4.0335e-27
0
0
5.42264e-16
1.28547e-16
1.11076e-17
5.35087e-19
5.88441e-20
-2.23377e-21
1.11044e-21
-1.58361e-22
2.91017e-23
-3.68183e-24
1.02581e-24
4.75489e-26
1.02138e-25
2.85474e-26
1.68247e-26
9.18766e-27
3.57512e-27
2.56454e-27
7.34684e-28
9.58694e-28
1.51036e-16
2.86215e-17
3.06174e-18
1.3042e-19
2.62894e-21
3.35187e-21
0
1.23758e-22
0
4.66316e-24
0
3.13907e-25
4.96335e-26
5.85506e-26
2.54038e-26
5.21153e-27
6.48073e-27
0
2.47087e-27
1.5383e-28
0
-3.10411e-17
0
-1.60542e-19
0
-2.3834e-21
2.96022e-22
-8.62996e-23
1.65641e-23
-2.52074e-24
6.77382e-25
1.70051e-26
7.12826e-26
2.69434e-26
2.27083e-26
8.06229e-27
3.50835e-27
-2.41617e-27
0
1.6671e-27
0
-6.31482e-17
0
-3.2941e-19
0
-1.1123e-21
0
3.75635e-23
0
2.33626e-24
0
1.12361e-25
5.16715e-26
1.9784e-26
1.80085e-26
6.97858e-27
6.36114e-27
7.26964e-27
7.34684e-28
-1.1374e-27
0
-8.06706e-17
0
-3.95481e-19
0
-2.31384e-21
7.50488e-24
-4.16395e-23
6.19984e-24
-1.34248e-24
3.49558e-25
3.0968e-26
7.42358e-26
1.93836e-26
1.15181e-26
1.01841e-26
2.47109e-27
9.42077e-28
0
1.51885e-27
0
-8.33323e-17
0
-4.25545e-19
0
-2.0501e-21
0
-5.39897e-24
0
6.70954e-25
1.01952e-26
8.89107e-26
3.95879e-26
1.95647e-26
7.34684e-28
8.12125e-27
4.31206e-27
0
2.85435e-27
-1.23472e-27
0
-7.96858e-17
0
-3.88452e-19
0
-1.89978e-21
0
-1.36732e-23
2.5684e-24
1.09018e-26
2.04848e-25
4.70198e-26
4.7434e-26
1.35966e-26
1.17549e-26
2.93874e-27
0
2.7366e-27
3.42738e-28
0
0
-7.12454e-17
0
-3.51311e-19
0
-1.88977e-21
0
-1.75738e-23
1.40905e-24
4.56257e-26
6.90311e-26
4.15778e-26
1.65391e-26
2.27108e-26
1.40815e-26
9.19526e-28
2.93874e-27
3.57168e-28
4.83e-28
8.97526e-28
0
-6.02256e-17
0
-2.92254e-19
0
-1.21229e-21
0
8.34323e-24
0
8.79411e-25
0
6.01012e-26
1.41128e-26
1.83671e-26
1.10901e-26
3.13734e-27
2.93874e-27
2.8204e-28
1.11002e-27
0
0
-4.99184e-17
0
-2.36552e-19
0
-1.34133e-21
1.43356e-23
-2.06377e-23
3.46015e-24
-9.12581e-25
1.97827e-25
3.52717e-26
3.99613e-26
1.76089e-26
3.75725e-27
3.19258e-27
1.80485e-27
6.39379e-28
7.50045e-28
0
0
-3.8042e-17
0
-1.86684e-19
0
-2.07642e-22
0
3.33313e-23
0
1.05475e-24
0
1.42654e-25
2.2602e-26
2.00098e-26
8.00965e-27
5.39566e-27
1.26176e-27
6.49595e-28
2.81145e-28
0
0
-3.22873e-17
0
-1.55538e-19
0
-1.79703e-21
2.11343e-22
-5.671e-23
1.20915e-23
-2.07364e-24
4.96862e-25
0
4.50275e-26
5.03465e-27
2.93874e-27
-3.53626e-27
1.66887e-27
0
4.92277e-29
8.54668e-29
0
-1.92041e-17
0
-7.95727e-20
0
1.51945e-21
0
8.61777e-23
0
3.02985e-24
0
1.29197e-25
2.16839e-26
2.02371e-26
5.43687e-27
4.60124e-27
0
3.10131e-28
0
1.07637e-28
0
-2.86327e-17
0
-1.92026e-19
3.72105e-21
-4.33889e-21
6.06781e-22
-1.16612e-22
1.75483e-23
-2.3731e-24
5.64163e-25
-9.37929e-27
3.34444e-26
1.03526e-26
4.67663e-27
3.47997e-27
0
0
4.03503e-28
2.00662e-29
2.00501e-17
-9.15158e-19
6.26514e-19
2.80121e-19
0
6.95487e-21
0
1.31325e-22
0
3.12788e-24
0
1.58646e-25
1.7708e-26
1.06179e-26
2.34689e-27
1.53593e-27
3.51303e-28
2.31262e-29
0
-5.04591e-28
0
-3.87525e-16
0
-3.83344e-18
0
-2.72015e-20
0
-2.14887e-22
8.86621e-24
-2.63887e-24
4.91529e-25
2.41577e-26
6.28539e-26
1.43312e-26
9.74902e-27
4.90105e-27
5.0609e-28
1.39582e-27
9.43633e-28
7.19092e-28
0
-4.19153e-16
0
-4.15939e-18
0
-3.55801e-20
5.11644e-22
-4.39922e-22
4.32348e-23
-8.40945e-24
1.30099e-24
-1.94297e-25
4.51229e-26
4.77457e-27
4.30104e-27
4.6068e-28
2.74342e-27
6.24895e-28
5.57573e-28
0
)
;

boundaryField
{
    movingWall
    {
        type            calculated;
        value           nonuniform List<scalar> 
20
(
0
0
0
0
0
0
0
0
8.32297e-23
0
2.63472e-24
-5.13723e-25
6.8518e-26
-3.15984e-27
6.61886e-28
0
2.4054e-27
3.74927e-28
4.44506e-28
0
)
;
    }
    fixedWalls
    {
        type            calculated;
        value           nonuniform List<scalar> 
60
(
1.10521e-15
7.37115e-15
8.04155e-15
2.79581e-15
1.06047e-15
-6.46838e-16
0
-1.71743e-15
0
-1.7085e-15
0
-1.30244e-15
0
-8.2543e-16
0
-3.96091e-16
0
1.03794e-16
0
-4.04602e-15
0
1.15307e-28
1.01056e-27
6.41544e-28
7.75061e-28
1.76984e-27
0
1.61112e-27
8.65643e-29
2.7206e-31
1.39566e-27
0
0
0
9.84493e-29
-3.80073e-28
2.52507e-29
-4.92487e-29
6.25422e-28
0
0
0
0
0
0
0
2.0178e-21
0
1.70851e-22
-1.06266e-23
5.4525e-24
-9.19075e-25
1.88807e-25
0
1.32963e-26
5.33906e-28
2.11073e-27
1.58759e-27
0
7.34684e-28
)
;
    }
    frontAndBack
    {
        type            empty;
    }
}


// ************************************************************************* //
