/*--------------------------------*- C++ -*----------------------------------*\
| =========                 |                                                 |
| \\      /  F ield         | OpenFOAM: The Open Source CFD Toolbox           |
|  \\    /   O peration     | Version:  2312                                  |
|   \\  /    A nd           | Website:  www.openfoam.com                      |
|    \\/     M anipulation  |                                                 |
\*---------------------------------------------------------------------------*/
FoamFile
{
    version     2.0;
    format      ascii;
    arch        "LSB;label=32;scalar=64";
    class       volVectorField;
    location    "4.75";
    object      LambVectorField;
}
// * * * * * * * * * * * * * * * * * * * * * * * * * * * * * * * * * * * * * //

dimensions      [0 1 -2 0 0 0 0];

internalField   nonuniform List<vector> 
400
(
(-2.96954e-15 -4.75666e-07 -4.75666e-07)
(-8.73401e-16 5.89399e-07 -0)
(-4.93026e-17 -1.39962e-07 -1.39962e-07)
(-2.7851e-18 3.33417e-08 -0)
(-1.57148e-19 -7.89334e-09 -7.89334e-09)
(-8.93456e-21 1.89929e-09 -0)
(-4.98347e-22 -4.3987e-10 -4.3987e-10)
(-2.94315e-23 1.12761e-10 -0)
(-1.455e-24 -2.15866e-11 -2.15866e-11)
(-1.10748e-25 8.77871e-12 -0)
(2.02774e-27 3.77935e-13 3.77935e-13)
(6.72896e-28 1.63998e-12 0)
(9.50348e-28 8.17325e-13 8.17325e-13)
(3.91163e-28 6.11549e-13 0)
(1.537e-28 3.28228e-13 3.28228e-13)
(8.12723e-29 2.39811e-13 0)
(2.93201e-29 1.22901e-13 1.22901e-13)
(1.96847e-30 1.01417e-14 0)
(1.49774e-30 1.09205e-14 1.09205e-14)
(1.88496e-30 2.22042e-14 0)
(-2.95656e-15 4.73273e-07 4.73273e-07)
(-8.75121e-16 -5.89376e-07 0)
(-4.92694e-17 1.4003e-07 1.4003e-07)
(-2.78683e-18 -3.32686e-08 0)
(-1.56133e-19 7.90418e-09 7.90418e-09)
(-8.9218e-21 -1.87789e-09 0)
(-4.86015e-22 4.46197e-10 4.46197e-10)
(-2.97398e-23 -1.0588e-10 0)
(-1.31293e-24 2.51896e-11 2.51896e-11)
(-1.31754e-25 -6.00568e-12 0)
(2.01031e-27 1.40621e-12 1.40621e-12)
(-1.61474e-27 -3.7099e-13 0)
(4.2856e-29 1.76436e-14 1.76436e-14)
(9.23778e-30 4.60124e-15 0)
(3.5545e-29 2.73682e-14 2.73682e-14)
(-1.44961e-29 -1.57423e-14 0)
(1.69229e-29 2.6317e-14 2.6317e-14)
(-4.50049e-30 -1.16407e-14 0)
(6.80365e-30 3.1303e-14 3.1303e-14)
(2.14091e-30 2.90935e-14 0)
(-2.94847e-15 -4.72591e-07 -4.72591e-07)
(-8.71316e-16 5.88095e-07 -0)
(-4.91115e-17 -1.39585e-07 -1.39585e-07)
(-2.76221e-18 3.31297e-08 -0)
(-1.56565e-19 -7.86302e-09 -7.86302e-09)
(-8.68869e-21 1.8664e-09 -0)
(-5.10222e-22 -4.4285e-10 -4.4285e-10)
(-2.56065e-23 1.05219e-10 -0)
(-1.94596e-24 -2.48644e-11 -2.48644e-11)
(-2.70965e-26 6.05078e-12 -0)
(-1.35874e-26 -1.23763e-12 -1.23763e-12)
(2.06458e-27 4.71966e-13 0)
(4.68722e-29 1.14586e-14 1.14586e-14)
(3.62131e-28 1.24675e-13 0)
(3.18432e-28 1.56812e-13 1.56812e-13)
(1.04796e-28 7.8412e-14 0)
(8.15658e-29 8.36154e-14 8.36154e-14)
(8.35828e-29 1.67059e-13 0)
(9.37183e-30 7.9386e-14 7.9386e-14)
(-1.43404e-30 6.37666e-14 -0)
(-2.95073e-15 4.7382e-07 4.7382e-07)
(-8.68366e-16 -5.87469e-07 0)
(-4.88859e-17 1.39409e-07 1.39409e-07)
(-2.75573e-18 -3.30811e-08 0)
(-1.54593e-19 7.85012e-09 7.85012e-09)
(-8.81462e-21 -1.8627e-09 0)
(-4.77262e-22 4.42068e-10 4.42068e-10)
(-3.01505e-23 -1.04924e-10 0)
(-1.14207e-24 2.49269e-11 2.49269e-11)
(-1.57635e-25 -5.8441e-12 0)
(7.71494e-27 1.45406e-12 1.45406e-12)
(-1.65602e-27 -2.27386e-13 0)
(6.89853e-28 1.50031e-13 1.50031e-13)
(3.39354e-28 9.38968e-14 0)
(4.11823e-28 1.59937e-13 1.59937e-13)
(1.9583e-28 1.12307e-13 0)
(9.17336e-29 7.76884e-14 7.76884e-14)
(4.69708e-29 6.75097e-14 0)
(1.54054e-29 6.56553e-14 6.56553e-14)
(1.09835e-32 2.80113e-16 0)
(-2.93985e-15 -4.73385e-07 -4.73385e-07)
(-8.63505e-16 5.86013e-07 -0)
(-4.86194e-17 -1.39045e-07 -1.39045e-07)
(-2.73509e-18 3.29903e-08 -0)
(-1.54395e-19 -7.82742e-09 -7.82742e-09)
(-8.60666e-21 1.85707e-09 -0)
(-5.00714e-22 -4.40672e-10 -4.40672e-10)
(-2.52456e-23 1.04594e-10 -0)
(-1.94744e-24 -2.47598e-11 -2.47598e-11)
(-1.60063e-26 5.89751e-12 -0)
(-1.79743e-26 -1.42303e-12 -1.42303e-12)
(1.76846e-27 2.9014e-13 0)
(4.54315e-29 8.42445e-15 8.42445e-15)
(-1.5103e-29 -3.93049e-15 0)
(1.24302e-28 4.15354e-14 4.15354e-14)
(2.86053e-28 1.38062e-13 0)
(1.38889e-28 1.03571e-13 1.03571e-13)
(7.41925e-29 9.69633e-14 0)
(1.37215e-29 3.69488e-14 3.69488e-14)
(6.18114e-30 4.95989e-14 0)
(-2.92786e-15 4.7277e-07 4.7277e-07)
(-8.58771e-16 -5.84529e-07 0)
(-4.83338e-17 1.38682e-07 1.38682e-07)
(-2.72151e-18 -3.29016e-08 0)
(-1.52873e-19 7.80583e-09 7.80583e-09)
(-8.66772e-21 -1.8518e-09 0)
(-4.75074e-22 4.39467e-10 4.39467e-10)
(-2.92058e-23 -1.04184e-10 0)
(-1.18081e-24 2.4814e-11 2.4814e-11)
(-1.49437e-25 -5.75732e-12 0)
(7.63622e-27 1.49496e-12 1.49496e-12)
(-2.46263e-27 -3.29111e-13 0)
(8.31121e-28 1.70471e-13 1.70471e-13)
(2.45573e-28 6.32818e-14 0)
(2.03228e-28 7.03853e-14 7.03853e-14)
(1.97775e-28 9.45128e-14 0)
(1.43276e-28 1.0233e-13 1.0233e-13)
(9.73323e-29 1.21937e-13 0)
(2.86889e-29 6.34976e-14 6.34976e-14)
(5.61542e-30 3.43999e-14 0)
(-2.91174e-15 -4.71604e-07 -4.71604e-07)
(-8.53529e-16 5.82801e-07 -0)
(-4.80421e-17 -1.38266e-07 -1.38266e-07)
(-2.70275e-18 3.28016e-08 -0)
(-1.52301e-19 -7.78155e-09 -7.78155e-09)
(-8.52494e-21 1.84623e-09 -0)
(-4.89474e-22 -4.37844e-10 -4.37844e-10)
(-2.56039e-23 1.0404e-10 -0)
(-1.81444e-24 -2.45209e-11 -2.45209e-11)
(-2.94036e-26 5.93536e-12 -0)
(-1.48578e-26 -1.33631e-12 -1.33631e-12)
(2.56288e-27 4.97017e-13 0)
(-1.8981e-28 -3.96008e-14 -3.96008e-14)
(5.80302e-28 1.71478e-13 0)
(1.63257e-28 6.43709e-14 6.43709e-14)
(1.17504e-28 6.09694e-14 0)
(6.86382e-29 4.95797e-14 4.95797e-14)
(7.19112e-30 8.08569e-15 0)
(3.37917e-29 6.89077e-14 6.89077e-14)
(1.92622e-29 9.61729e-14 0)
(-2.89611e-15 4.70412e-07 4.70412e-07)
(-8.48692e-16 -5.81172e-07 0)
(-4.77633e-17 1.37877e-07 1.37877e-07)
(-2.68832e-18 -3.27084e-08 0)
(-1.51131e-19 7.75952e-09 7.75952e-09)
(-8.53763e-21 -1.8407e-09 0)
(-4.73296e-22 4.36729e-10 4.36729e-10)
(-2.81184e-23 -1.03566e-10 0)
(-1.28699e-24 2.46852e-11 2.46852e-11)
(-1.29817e-25 -5.77425e-12 0)
(4.42394e-27 1.52761e-12 1.52761e-12)
(-1.60505e-27 -2.74336e-13 0)
(5.55186e-28 1.48366e-13 1.48366e-13)
(2.28126e-28 7.57454e-14 0)
(1.11388e-28 5.12979e-14 5.12979e-14)
(2.07576e-29 1.23145e-14 0)
(7.9123e-29 6.40621e-14 6.40621e-14)
(6.37221e-29 8.23342e-14 0)
(2.5749e-29 6.25346e-14 6.25346e-14)
(4.29906e-30 2.89305e-14 0)
(-2.87967e-15 -4.6908e-07 -4.6908e-07)
(-8.43846e-16 5.79514e-07 -0)
(-4.74928e-17 -1.37482e-07 -1.37482e-07)
(-2.67218e-18 3.26148e-08 -0)
(-1.50452e-19 -7.73698e-09 -7.73698e-09)
(-8.44572e-21 1.8356e-09 -0)
(-4.79868e-22 -4.35327e-10 -4.35327e-10)
(-2.60364e-23 1.03484e-10 -0)
(-1.67085e-24 -2.44679e-11 -2.44679e-11)
(-5.2253e-26 5.92691e-12 -0)
(-1.03138e-26 -1.25698e-12 -1.25698e-12)
(1.2757e-27 4.33853e-13 0)
(3.81453e-28 1.2492e-13 1.2492e-13)
(2.0362e-28 9.11742e-14 0)
(1.52106e-28 8.13055e-14 8.13055e-14)
(5.87848e-29 4.13903e-14 0)
(7.66429e-29 8.37822e-14 8.37822e-14)
(3.31574e-29 5.69293e-14 0)
(-2.49252e-30 -7.21435e-15 -7.21435e-15)
(8.19956e-30 7.29019e-14 0)
(-2.86432e-15 4.67807e-07 4.67807e-07)
(-8.39425e-16 -5.77983e-07 0)
(-4.72423e-17 1.37119e-07 1.37119e-07)
(-2.65864e-18 -3.25285e-08 0)
(-1.49556e-19 7.7168e-09 7.7168e-09)
(-8.42818e-21 -1.83059e-09 0)
(-4.71706e-22 4.34411e-10 4.34411e-10)
(-2.71097e-23 -1.02987e-10 0)
(-1.40028e-24 2.4421e-11 2.4421e-11)
(-1.04233e-25 -5.72354e-12 0)
(-5.37709e-28 1.4342e-12 1.4342e-12)
(-7.08337e-28 -2.12896e-13 0)
(8.94934e-29 5.10213e-14 5.10213e-14)
(-3.50666e-29 -2.02377e-14 0)
(9.20379e-29 6.50759e-14 6.50759e-14)
(7.41051e-29 6.84905e-14 0)
(4.93423e-29 6.76467e-14 6.76467e-14)
(8.83924e-30 2.17979e-14 0)
(1.98244e-29 8.24702e-14 8.24702e-14)
(4.46514e-30 3.6329e-14 0)
(-2.84945e-15 -4.6655e-07 -4.6655e-07)
(-8.35211e-16 5.76515e-07 -0)
(-4.70062e-17 -1.36772e-07 -1.36772e-07)
(-2.6452e-18 3.24463e-08 -0)
(-1.48861e-19 -7.69718e-09 -7.69718e-09)
(-8.37512e-21 1.82613e-09 -0)
(-4.71855e-22 -4.33087e-10 -4.33087e-10)
(-2.64158e-23 1.02884e-10 -0)
(-1.52044e-24 -2.42984e-11 -2.42984e-11)
(-7.69842e-26 5.82009e-12 -0)
(-6.42457e-27 -1.38344e-12 -1.38344e-12)
(1.29356e-28 3.84989e-13 0)
(-1.26328e-28 -9.4548e-14 -9.4548e-14)
(5.18938e-29 5.13583e-14 0)
(-9.28863e-30 -1.12925e-14 -1.12925e-14)
(5.31601e-29 9.1458e-14 0)
(1.68535e-29 3.74465e-14 3.74465e-14)
(1.04982e-29 5.07681e-14 0)
(-9.66884e-30 -4.53003e-14 -4.53003e-14)
(7.07057e-31 6.0078e-15 0)
(-2.83557e-15 4.65359e-07 4.65359e-07)
(-8.3133e-16 -5.75153e-07 0)
(-4.67887e-17 1.3645e-07 1.3645e-07)
(-2.63296e-18 -3.237e-08 0)
(-1.48198e-19 7.67925e-09 7.67925e-09)
(-8.33393e-21 -1.82176e-09 0)
(-4.70183e-22 4.32191e-10 4.32191e-10)
(-2.62364e-23 -1.02486e-10 0)
(-1.52128e-24 2.44458e-11 2.44458e-11)
(-7.81096e-26 -5.69744e-12 0)
(-5.58487e-27 1.43159e-12 1.43159e-12)
(-2.67914e-28 -3.5774e-13 0)
(-7.04235e-30 1.33633e-13 1.33633e-13)
(-5.86997e-30 -2.60049e-14 0)
(1.64767e-29 7.94632e-14 7.94632e-14)
(-1.23457e-29 -5.05465e-14 0)
(2.64155e-30 1.54736e-14 1.54736e-14)
(-1.49477e-30 -1.66996e-14 0)
(7.51431e-32 1.12728e-15 1.12728e-15)
(1.13361e-30 1.44895e-14 0)
(-2.82283e-15 -4.64265e-07 -4.64265e-07)
(-8.27761e-16 5.73899e-07 -0)
(-4.65873e-17 -1.36153e-07 -1.36153e-07)
(-2.62208e-18 3.23e-08 -0)
(-1.47491e-19 -7.66268e-09 -7.66268e-09)
(-8.31652e-21 1.81782e-09 -0)
(-4.6477e-22 -4.31286e-10 -4.31286e-10)
(-2.67773e-23 1.02252e-10 -0)
(-1.39386e-24 -2.43333e-11 -2.43333e-11)
(-9.89649e-26 5.75843e-12 -0)
(-2.30939e-27 -1.44803e-12 -1.44803e-12)
(-4.85765e-28 2.56655e-13 -0)
(2.89454e-29 -6.73778e-14 -6.73778e-14)
(-2.14446e-29 5.28523e-14 -0)
(-1.16761e-29 8.0542e-14 8.0542e-14)
(-1.34682e-29 1.06079e-13 -0)
(-3.41332e-30 2.80801e-14 2.80801e-14)
(-1.10913e-29 8.11278e-14 -0)
(-4.83212e-30 4.03742e-14 4.03742e-14)
(-1.94116e-32 -1.18039e-14 0)
(-2.81058e-15 4.63197e-07 4.63197e-07)
(-8.24364e-16 -5.727e-07 0)
(-4.63994e-17 1.3587e-07 1.3587e-07)
(-2.61082e-18 -3.22331e-08 0)
(-1.47055e-19 7.64686e-09 7.64686e-09)
(-8.24943e-21 -1.81407e-09 0)
(-4.69809e-22 4.30425e-10 4.30425e-10)
(-2.53944e-23 -1.0213e-10 0)
(-1.62168e-24 2.42242e-11 2.42242e-11)
(-5.82979e-26 -5.87121e-12 0)
(-8.91825e-27 1.34994e-12 1.34994e-12)
(3.85463e-28 -2.75019e-13 -0)
(-1.17065e-28 6.93597e-14 6.93597e-14)
(2.04238e-29 -2.02019e-14 -0)
(4.15619e-29 -6.17909e-14 -6.17909e-14)
(-1.47034e-29 3.74064e-14 -0)
(-7.2243e-30 3.09347e-14 3.09347e-14)
(-6.76985e-30 4.22272e-14 -0)
(-1.90258e-30 1.67326e-14 1.67326e-14)
(9.6382e-31 -1.703e-14 -0)
(-2.79994e-15 -4.62295e-07 -4.62295e-07)
(-8.21345e-16 5.71638e-07 -0)
(-4.62254e-17 -1.35619e-07 -1.35619e-07)
(-2.60236e-18 3.21737e-08 -0)
(-1.46271e-19 -7.6329e-09 -7.6329e-09)
(-8.27185e-21 1.81079e-09 -0)
(-4.57859e-22 -4.2964e-10 -4.2964e-10)
(-2.71812e-23 1.01872e-10 -0)
(-1.27132e-24 -2.41448e-11 -2.41448e-11)
(-1.18168e-25 5.76703e-12 -0)
(1.31952e-27 -1.38857e-12 -1.38857e-12)
(-1.11398e-27 2.86073e-13 -0)
(1.40811e-28 -7.35826e-14 -7.35826e-14)
(5.92285e-29 -3.86628e-14 -0)
(9.62991e-29 -9.77738e-14 -9.77738e-14)
(8.13887e-29 -1.46861e-13 -0)
(1.37843e-29 -4.18392e-14 -4.18392e-14)
(1.08589e-29 -7.99645e-14 -0)
(8.47007e-31 -1.17781e-14 -1.17781e-14)
(1.62014e-31 -8.99296e-15 -0)
(-2.78867e-15 4.61295e-07 4.61295e-07)
(-8.18248e-16 -5.70541e-07 0)
(-4.60595e-17 1.35359e-07 1.35359e-07)
(-2.59105e-18 -3.21125e-08 0)
(-1.46105e-19 7.6183e-09 7.6183e-09)
(-8.16862e-21 -1.80739e-09 0)
(-4.69842e-22 4.28709e-10 4.28709e-10)
(-2.46394e-23 -1.01713e-10 0)
(-1.69752e-24 2.41087e-11 2.41087e-11)
(-4.21955e-26 -5.70865e-12 0)
(-1.15287e-26 1.36501e-12 1.36501e-12)
(1.01248e-27 -3.70208e-13 -0)
(-9.45818e-29 3.67253e-14 3.67253e-14)
(2.0338e-29 -1.37805e-14 -0)
(-1.66554e-29 1.53885e-14 1.53885e-14)
(-2.57425e-29 3.15246e-14 -0)
(2.89885e-29 -4.96018e-14 -4.96018e-14)
(1.63124e-29 -5.08861e-14 -0)
(4.74141e-30 -6.2747e-14 -6.2747e-14)
(8.29417e-31 2.31339e-14 0)
(-2.78015e-15 -4.60634e-07 -4.60634e-07)
(-8.15653e-16 5.69639e-07 -0)
(-4.58999e-17 -1.35146e-07 -1.35146e-07)
(-2.58526e-18 3.2062e-08 -0)
(-1.45089e-19 -7.60637e-09 -7.60637e-09)
(-8.23823e-21 1.80451e-09 -0)
(-4.51161e-22 -4.28087e-10 -4.28087e-10)
(-2.74578e-23 1.01551e-10 -0)
(-1.2105e-24 -2.41866e-11 -2.41866e-11)
(-1.20693e-25 5.62104e-12 -0)
(2.15834e-27 -1.3889e-12 -1.3889e-12)
(-1.10507e-27 2.5521e-13 -0)
(3.81988e-28 -1.72945e-13 -1.72945e-13)
(5.60524e-29 -3.6964e-14 -0)
(1.8986e-29 -1.8506e-14 -1.8506e-14)
(-1.33502e-30 1.69152e-15 -0)
(5.10492e-29 -1.01944e-13 -1.01944e-13)
(1.18223e-29 -3.7904e-14 -0)
(3.9349e-30 -3.23286e-14 -3.23286e-14)
(-1.25609e-31 -1.10331e-14 0)
(-2.76805e-15 4.59474e-07 4.59474e-07)
(-8.12548e-16 -5.6852e-07 0)
(-4.57556e-17 1.34882e-07 1.34882e-07)
(-2.57193e-18 -3.19993e-08 0)
(-1.45359e-19 7.59142e-09 7.59142e-09)
(-8.09503e-21 -1.80114e-09 0)
(-4.6901e-22 4.27201e-10 4.27201e-10)
(-2.4417e-23 -1.01507e-10 0)
(-1.67802e-24 2.39517e-11 2.39517e-11)
(-4.6416e-26 -5.74806e-12 0)
(-1.01935e-26 1.32398e-12 1.32398e-12)
(6.60025e-28 -3.02318e-13 -0)
(-1.35955e-29 6.07894e-15 6.07894e-15)
(1.01419e-28 -8.74452e-14 -0)
(2.65453e-29 -3.23748e-14 -3.23748e-14)
(2.16477e-29 -3.83141e-14 -0)
(8.75345e-30 -2.00401e-14 -2.00401e-14)
(8.82253e-30 -2.41976e-14 -0)
(6.92895e-30 -3.55661e-14 -3.55661e-14)
(4.24601e-31 -4.74812e-14 -0)
(-2.76849e-15 -4.60175e-07 -4.60175e-07)
(-8.11527e-16 5.68482e-07 -0)
(-4.56505e-17 -1.34975e-07 -1.34975e-07)
(-2.57512e-18 3.20458e-08 -0)
(-1.4426e-19 -7.6083e-09 -7.6083e-09)
(-8.19687e-21 1.80637e-09 -0)
(-4.50069e-22 -4.28946e-10 -4.28946e-10)
(-2.68182e-23 1.01789e-10 -0)
(-1.28168e-24 -2.41666e-11 -2.41666e-11)
(-1.07759e-25 5.80939e-12 -0)
(-4.84513e-28 -1.33729e-12 -1.33729e-12)
(-9.92262e-28 3.62576e-13 -0)
(-9.11371e-30 8.32269e-15 8.32269e-15)
(-1.0625e-28 1.15167e-13 -0)
(-3.46782e-29 5.58959e-14 5.58959e-14)
(-3.20312e-29 8.06153e-14 -0)
(-4.51196e-29 1.31791e-13 1.31791e-13)
(-1.46645e-29 4.07357e-14 -0)
(6.48914e-31 -3.12559e-15 -3.12559e-15)
(-3.31826e-32 5.75239e-16 -0)
(-2.76197e-15 4.59871e-07 4.59871e-07)
(-8.08188e-16 -5.67514e-07 0)
(-4.5554e-17 1.34689e-07 1.34689e-07)
(-2.56922e-18 -3.20456e-08 0)
(-1.44797e-19 7.59272e-09 7.59272e-09)
(-8.20391e-21 -1.81898e-09 0)
(-4.59502e-22 4.25033e-10 4.25033e-10)
(-2.66564e-23 -1.06124e-10 0)
(-1.40312e-24 2.2192e-11 2.2192e-11)
(-9.36685e-26 -7.35902e-12 0)
(-1.76151e-27 3.87666e-13 3.87666e-13)
(-1.86994e-28 -1.04983e-12 0)
(2.15146e-28 -3.90621e-13 -3.90621e-13)
(8.29281e-29 -3.28452e-13 -0)
(5.00378e-29 -2.01916e-13 -2.01916e-13)
(2.31215e-29 -1.7694e-13 -0)
(8.76638e-30 -8.37171e-14 -8.37171e-14)
(5.99776e-30 -5.62354e-14 -0)
(2.84123e-30 -3.36393e-14 -3.36393e-14)
(1.63938e-30 -3.96825e-14 -0)
)
;

boundaryField
{
    movingWall
    {
        type            calculated;
        value           nonuniform List<vector> 
20
(
(0 4.58497e-07 -0)
(0 -5.68522e-07 -0)
(0 1.35108e-07 -0)
(0 -3.23158e-08 -0)
(0 7.65313e-09 -0)
(0 -1.85783e-09 -0)
(0 4.2741e-10 -0)
(0 -1.12978e-10 -0)
(0 2.05147e-11 -0)
(0 -9.33214e-12 -0)
(0 -6.10147e-13 -0)
(0 -1.77599e-12 -0)
(0 -9.33936e-13 -0)
(0 -7.40839e-13 -0)
(0 -5.00679e-13 -0)
(0 -3.69581e-13 -0)
(0 -2.24447e-13 -0)
(0 -1.79661e-13 -0)
(0 -5.09432e-14 -0)
(0 -5.69863e-14 -0)
)
;
    }
    fixedWalls
    {
        type            calculated;
        value           nonuniform List<vector> 
60
(
(0 -2.49673e-06 -0)
(0 2.49587e-06 -0)
(0 -2.49243e-06 -0)
(0 2.48989e-06 -0)
(0 -2.48382e-06 -0)
(0 2.47759e-06 -0)
(0 -2.4703e-06 -0)
(0 2.4634e-06 -0)
(0 -2.45638e-06 -0)
(0 2.4499e-06 -0)
(0 -2.44367e-06 -0)
(0 2.43789e-06 -0)
(0 -2.43257e-06 -0)
(0 2.42747e-06 -0)
(0 -2.42296e-06 -0)
(0 2.41831e-06 -0)
(0 -2.41447e-06 -0)
(0 2.40971e-06 -0)
(0 -2.40778e-06 -0)
(0 2.40407e-06 -0)
(0 3.39568e-14 -0)
(0 2.94348e-14 -0)
(0 4.52145e-14 -0)
(0 -1.14207e-14 -0)
(0 4.9849e-14 -0)
(0 3.81906e-14 -0)
(0 1.0722e-13 -0)
(0 3.23347e-14 -0)
(0 7.20946e-14 -0)
(0 4.91633e-14 -0)
(0 1.99709e-14 -0)
(0 3.12946e-14 -0)
(0 6.57806e-16 -0)
(0 -2.26382e-14 -0)
(0 -7.20626e-15 -0)
(0 4.14462e-14 -0)
(0 4.55388e-15 -0)
(0 -3.06821e-14 -0)
(0 4.03107e-15 -0)
(0 -4.363e-14 -0)
(0 -4.78261e-07 -0)
(0 5.91299e-07 -0)
(0 -1.40654e-07 -0)
(0 3.37103e-08 -0)
(0 -7.96415e-09 -0)
(0 1.95061e-09 -0)
(0 -4.4023e-10 -0)
(0 1.22586e-10 -0)
(0 -1.82223e-11 -0)
(0 1.20213e-11 -0)
(0 2.47218e-12 -0)
(0 3.17361e-12 -0)
(0 1.93106e-12 -0)
(0 1.3129e-12 -0)
(0 7.85024e-13 -0)
(0 5.11469e-13 -0)
(0 3.25343e-13 -0)
(0 1.43368e-13 -0)
(0 1.44147e-13 -0)
(0 2.22042e-14 -0)
)
;
    }
    frontAndBack
    {
        type            empty;
    }
}


// ************************************************************************* //
