/*--------------------------------*- C++ -*----------------------------------*\
| =========                 |                                                 |
| \\      /  F ield         | OpenFOAM: The Open Source CFD Toolbox           |
|  \\    /   O peration     | Version:  2312                                  |
|   \\  /    A nd           | Website:  www.openfoam.com                      |
|    \\/     M anipulation  |                                                 |
\*---------------------------------------------------------------------------*/
FoamFile
{
    version     2.0;
    format      ascii;
    arch        "LSB;label=32;scalar=64";
    class       volScalarField;
    location    "4.75";
    object      QField;
}
// * * * * * * * * * * * * * * * * * * * * * * * * * * * * * * * * * * * * * //

dimensions      [0 0 -2 0 0 0 0];

internalField   nonuniform List<scalar> 
400
(
-2.09842e-16
1.9625e-16
1.81899e-17
3.55544e-18
8.15476e-20
4.0814e-20
-2.03727e-21
6.62625e-22
-8.46856e-23
1.52922e-23
-2.68628e-24
2.80224e-25
-1.55565e-25
-4.12826e-26
-2.45608e-26
-8.67719e-27
-5.59885e-27
-3.14806e-27
-9.60869e-28
-4.29559e-28
-1.40506e-15
-8.51755e-17
-1.06308e-17
1.96039e-18
1.99222e-20
2.14185e-20
-3.65776e-22
2.21637e-22
-1.94555e-23
2.7999e-24
-9.2396e-25
-1.34083e-25
-1.3814e-25
-6.75067e-26
-3.42467e-26
-1.07399e-26
-1.14351e-26
-3.96773e-27
0
-5.82113e-28
-1.50129e-15
-3.64239e-16
-3.31275e-17
-2.10585e-18
-7.13713e-20
-1.79321e-20
7.24728e-22
-2.32367e-22
2.26778e-23
-4.75042e-24
1.54339e-25
-2.3673e-25
-7.28341e-26
-4.28758e-26
-1.38359e-26
-9.55115e-27
-2.91513e-27
5.29635e-27
1.46395e-27
6.11236e-28
-5.40896e-16
-1.30971e-16
-1.0688e-17
-5.4665e-19
-5.53797e-20
2.48726e-21
-1.08206e-21
1.59487e-22
-2.89205e-23
3.69831e-24
-1.03197e-24
-4.90849e-26
-1.00731e-25
-2.95621e-26
-1.54999e-26
-1.17525e-26
-3.83115e-27
-2.56454e-27
-6.86604e-28
-1.14102e-27
-1.50175e-16
-3.16323e-17
-2.52926e-18
-1.46443e-19
1.5681e-21
-3.44089e-21
5.96109e-22
-1.2475e-22
2.13851e-23
-4.67763e-24
4.77551e-25
-3.13907e-25
-5.03501e-26
-5.85506e-26
-2.569e-26
-5.42246e-27
-4.73107e-27
0
-1.14754e-27
-3.36179e-28
1.70044e-16
4.40555e-17
4.98123e-18
2.40991e-19
1.62583e-20
2.67757e-21
-2.62844e-22
8.71813e-23
-1.62495e-23
2.54055e-24
-6.75531e-25
-2.09155e-26
-7.15951e-26
-2.69434e-26
-2.30979e-26
-8.06229e-27
-3.50835e-27
2.57044e-27
0
-1.6671e-27
2.90758e-16
7.49117e-17
7.17315e-18
4.02066e-19
2.73493e-20
1.41696e-21
3.09276e-22
-3.85788e-23
9.71798e-24
-2.35682e-24
2.92881e-25
-1.16691e-25
-5.68658e-26
-2.16549e-26
-1.76684e-26
-7.34694e-27
-5.17913e-27
-7.26964e-27
-1.08567e-28
1.91177e-27
3.60283e-16
8.99479e-17
8.79667e-18
4.51333e-19
3.2676e-20
2.51777e-21
1.4961e-23
4.21806e-23
-5.91035e-24
1.38696e-24
-3.28049e-25
-3.20026e-26
-7.14787e-26
-2.21293e-26
-1.2587e-26
-1.31105e-26
-2.47109e-27
-2.49583e-27
0
-1.51885e-27
3.63102e-16
9.08858e-17
8.51238e-18
4.7074e-19
3.01071e-20
2.23454e-21
1.65781e-22
6.97388e-24
4.47949e-24
-6.96926e-25
-1.07907e-26
-9.66109e-26
-3.92738e-26
-2.74734e-26
-2.05207e-27
-8.45485e-27
-4.112e-27
0
-3.47667e-27
1.24133e-27
3.45317e-16
8.52711e-17
8.02945e-18
4.21015e-19
3.00382e-20
2.01601e-21
1.35569e-22
1.40787e-23
-2.42604e-24
-2.4942e-26
-2.06176e-25
-5.64741e-26
-5.4528e-26
-1.51001e-26
-1.13651e-26
-4.54824e-27
0
-4.38007e-27
8.16106e-28
0
3.07388e-16
7.56774e-17
7.00594e-18
3.77058e-19
2.47029e-20
1.99353e-21
5.91878e-23
1.84846e-23
-1.466e-24
-8.70135e-26
-7.79309e-26
-4.49635e-26
-2.26578e-26
-3.67628e-26
-1.54125e-26
-2.52214e-27
-3.02871e-27
-1.92817e-27
-4.83e-28
-8.97526e-28
2.59507e-16
6.34438e-17
5.80792e-18
3.10453e-19
2.09034e-20
1.27386e-21
1.36412e-22
-8.31253e-24
4.89522e-24
-9.08547e-25
7.6476e-26
-7.08396e-26
-1.96758e-26
-1.91927e-26
-1.06404e-26
-4.03786e-27
-3.09879e-27
-2.8204e-28
-2.70879e-27
0
2.17348e-16
5.25691e-17
4.89e-18
2.51641e-19
1.72371e-20
1.40293e-21
-1.11064e-23
2.12287e-23
-3.49503e-24
9.13133e-25
-1.97684e-25
-3.56568e-26
-4.31145e-26
-1.9075e-26
-5.40773e-27
-3.70876e-27
-2.165e-27
-2.04672e-27
-7.50045e-28
0
1.64108e-16
3.99915e-17
3.50188e-18
1.97396e-19
1.3442e-20
2.41559e-22
2.29638e-22
-3.33649e-23
8.13566e-24
-1.07085e-24
1.69818e-25
-1.44628e-25
-2.43475e-26
-2.04649e-26
-1.13834e-26
-5.88644e-27
-1.26176e-27
-6.49595e-28
-2.81145e-28
0
1.42947e-16
3.40515e-17
3.29079e-18
1.65518e-19
9.38839e-21
1.8412e-21
-2.09313e-22
5.70373e-23
-1.2112e-23
2.09688e-24
-4.8973e-25
2.08853e-28
-4.56329e-26
-5.03465e-27
-2.22103e-27
4.18195e-27
-1.90218e-27
5.2745e-28
-1.0338e-28
-2.50581e-28
7.99202e-17
2.04882e-17
1.59517e-18
8.63642e-20
1.19719e-20
-1.52061e-21
4.14532e-22
-8.62002e-23
1.45493e-23
-3.03122e-24
3.5191e-25
-1.29659e-25
-2.20757e-26
-2.03189e-26
-5.58323e-27
-4.68585e-27
0
-9.5467e-28
9.66076e-28
-1.07637e-28
1.23506e-16
3.00232e-17
2.92221e-18
1.99999e-19
-3.36147e-21
4.37703e-21
-6.05129e-22
1.16895e-22
-1.75446e-23
2.37963e-24
-5.63623e-25
1.09275e-26
-3.23428e-26
-1.04745e-26
-4.65316e-27
-3.52895e-27
2.18753e-27
0
-3.23242e-28
1.21418e-28
-2.0982e-17
1.74787e-18
-6.0647e-19
-2.8139e-19
2.56917e-20
-6.95698e-21
7.71985e-22
-1.31368e-22
1.62938e-23
-3.1296e-24
2.64304e-25
-1.59171e-25
-2.01519e-26
-1.08983e-26
-2.71141e-27
-3.18682e-27
-4.29341e-28
-3.91042e-28
0
5.52297e-28
5.99261e-16
3.88974e-16
3.46656e-17
3.84414e-18
1.99354e-19
2.72457e-20
6.42422e-22
2.15586e-22
-8.61439e-24
2.67882e-24
-4.88362e-25
-2.60024e-26
-6.64043e-26
-1.50969e-26
-1.03469e-26
-5.36913e-27
-5.0609e-28
-1.42962e-27
-1.11853e-27
-7.19092e-28
7.71497e-16
4.19237e-16
4.0033e-17
4.18712e-18
1.98611e-19
3.60927e-20
-4.07397e-22
4.42929e-22
-4.1415e-23
8.54315e-24
-1.31525e-24
2.11215e-25
-4.54403e-26
-6.89195e-27
-4.74884e-27
-1.96626e-27
-2.22826e-27
-1.15506e-27
-6.1456e-28
7.25787e-29
)
;

boundaryField
{
    movingWall
    {
        type            calculated;
        value           nonuniform List<scalar> 
20
(
1.00595e-15
1.04891e-15
5.08086e-17
7.75425e-18
3.61204e-21
6.7498e-20
-4.51429e-21
1.01655e-21
-1.28777e-22
2.2121e-23
-3.32615e-24
5.6324e-25
-7.78988e-26
7.83989e-27
-2.11017e-27
8.33637e-28
-1.73729e-27
-7.96596e-28
-6.25558e-28
1.1064e-28
)
;
    }
    fixedWalls
    {
        type            calculated;
        value           nonuniform List<scalar> 
60
(
-1.09968e-15
-7.37255e-15
-7.87406e-15
-2.83488e-15
-7.84438e-16
8.94738e-16
1.5278e-15
1.89186e-15
1.90641e-15
1.81266e-15
1.61355e-15
1.3621e-15
1.1409e-15
8.61431e-16
7.50452e-16
4.19711e-16
6.48396e-16
-1.09593e-16
3.14353e-15
4.04738e-15
0
-9.53735e-28
-1.82329e-28
-1.07843e-27
-1.10159e-27
-1.76984e-27
2.23654e-27
-1.61112e-27
1.33354e-27
-2.31634e-29
-1.07761e-27
0
0
0
-4.10553e-28
3.88717e-28
1.98931e-28
9.69549e-29
-6.25422e-28
8.27303e-30
1.07506e-15
1.11825e-15
5.30609e-17
9.61106e-18
-1.59927e-19
9.68905e-20
-8.26408e-21
1.64315e-21
-2.33053e-22
3.97836e-23
-6.48753e-24
1.07704e-24
-2.21301e-25
1.00722e-26
-1.28359e-26
-3.47647e-27
-3.25822e-27
-2.85766e-27
-3.20834e-29
-9.20402e-28
)
;
    }
    frontAndBack
    {
        type            empty;
    }
}


// ************************************************************************* //
