/*--------------------------------*- C++ -*----------------------------------*\
| =========                 |                                                 |
| \\      /  F ield         | OpenFOAM: The Open Source CFD Toolbox           |
|  \\    /   O peration     | Version:  2312                                  |
|   \\  /    A nd           | Website:  www.openfoam.com                      |
|    \\/     M anipulation  |                                                 |
\*---------------------------------------------------------------------------*/
FoamFile
{
    version     2.0;
    format      ascii;
    arch        "LSB;label=32;scalar=64";
    class       volScalarField;
    location    "4.75";
    object      Uy;
}
// * * * * * * * * * * * * * * * * * * * * * * * * * * * * * * * * * * * * * //

dimensions      [0 1 -1 0 0 0 0];

internalField   nonuniform List<scalar> 
400
(
6.24292e-09
-1.48185e-09
3.52257e-10
-8.35321e-11
1.9909e-11
-4.70416e-12
1.13294e-12
-2.61008e-13
6.74027e-14
-1.26155e-14
5.36531e-15
4.10307e-16
1.16275e-15
6.39626e-16
4.68272e-16
3.38901e-16
2.38567e-16
1.94097e-16
1.3715e-16
8.48921e-17
-6.24705e-09
1.48483e-09
-3.51848e-10
8.37676e-11
-1.97532e-11
4.75098e-12
-1.08924e-12
2.80882e-13
-5.2122e-14
2.19383e-14
1.42959e-15
4.35251e-15
2.42899e-15
2.00767e-15
1.29877e-15
9.20838e-16
6.43042e-16
3.86617e-16
2.17348e-16
7.35871e-17
6.23894e-09
-1.48159e-09
3.51839e-10
-8.33758e-11
1.99115e-11
-4.65533e-12
1.15213e-12
-2.43364e-13
7.82627e-14
-4.47818e-15
1.09786e-14
4.37443e-15
4.09056e-15
2.90459e-15
2.03066e-15
1.33647e-15
9.75488e-16
5.0032e-16
1.18054e-16
-2.24889e-17
-6.22753e-09
1.47815e-09
-3.50665e-10
8.33023e-11
-1.96931e-11
4.73216e-12
-1.07961e-12
2.87355e-13
-4.58168e-14
2.69734e-14
5.30577e-15
7.28283e-15
4.59808e-15
3.61412e-15
2.57491e-15
1.7437e-15
1.18079e-15
6.95764e-16
2.34641e-16
3.9211e-17
6.21028e-09
-1.47352e-09
3.49667e-10
-8.29058e-11
1.97248e-11
-4.63453e-12
1.13625e-12
-2.41367e-13
7.86534e-14
-2.71408e-15
1.2631e-14
6.09518e-15
5.39282e-15
3.84253e-15
2.99267e-15
2.07193e-15
1.341e-15
7.65161e-16
3.71366e-16
1.24623e-16
-6.193e-09
1.46917e-09
-3.48522e-10
8.27167e-11
-1.95844e-11
4.68069e-12
-1.08102e-12
2.8033e-13
-4.75863e-14
2.59559e-14
5.10799e-15
7.48269e-15
4.87544e-15
3.88062e-15
2.88736e-15
2.09257e-15
1.40013e-15
7.98215e-16
4.51811e-16
1.63239e-16
6.17413e-09
-1.46453e-09
3.47461e-10
-8.23969e-11
1.95721e-11
-4.61749e-12
1.11792e-12
-2.46097e-13
7.39958e-14
-4.95398e-15
1.11185e-14
5.15652e-15
4.79307e-15
3.38412e-15
2.53619e-15
1.92726e-15
1.3844e-15
8.89364e-16
4.90391e-16
2.00287e-16
-6.15654e-09
1.46031e-09
-3.4642e-10
8.21903e-11
-1.94769e-11
4.63825e-12
-1.08373e-12
2.71502e-13
-5.2136e-14
2.2482e-14
2.89599e-15
5.85066e-15
3.742e-15
3.01175e-15
2.1714e-15
1.68562e-15
1.2351e-15
7.73945e-16
4.11757e-16
1.48599e-16
6.13897e-09
-1.45613e-09
3.45446e-10
-8.19313e-11
1.94458e-11
-4.60107e-12
1.10232e-12
-2.51598e-13
6.82875e-14
-8.81623e-15
8.20526e-15
2.9404e-15
3.05358e-15
2.23331e-15
1.87079e-15
1.42025e-15
9.14787e-16
5.82432e-16
3.45494e-16
1.12474e-16
-6.12285e-09
1.45233e-09
-3.44534e-10
8.17325e-11
-1.93806e-11
4.60409e-12
-1.08585e-12
2.63234e-13
-5.73392e-14
1.82112e-14
-3.7492e-16
3.32715e-15
1.75404e-15
1.73273e-15
1.41432e-15
1.08198e-15
7.29412e-16
4.05509e-16
2.40382e-16
1.22908e-16
6.10749e-09
-1.44872e-09
3.43684e-10
-8.15255e-11
1.93397e-11
-4.58627e-12
1.08952e-12
-2.56753e-13
6.25738e-14
-1.32273e-14
4.64392e-15
3.35999e-16
1.33613e-15
1.01043e-15
8.22547e-16
5.81252e-16
4.50069e-16
2.06788e-16
2.13439e-16
1.1769e-16
-6.0933e-09
1.44541e-09
-3.42901e-10
8.13395e-11
-1.92985e-11
4.57466e-12
-1.08791e-12
2.55999e-13
-6.22308e-14
1.37096e-14
-3.90115e-15
7.48907e-16
-5.26991e-17
2.25726e-16
2.0735e-16
2.44245e-16
1.70713e-16
8.95093e-17
6.66589e-17
7.82366e-17
6.08022e-09
-1.44235e-09
3.42169e-10
-8.11791e-11
1.92479e-11
-4.57501e-12
1.07764e-12
-2.61875e-13
5.72818e-14
-1.71861e-14
1.59485e-15
-1.89268e-15
-4.29598e-16
-4.05746e-16
-1.4497e-16
-1.26964e-16
-1.21557e-16
-1.36714e-16
-1.19683e-16
1.64451e-18
-6.06778e-09
1.43944e-09
-3.41499e-10
8.09982e-11
-1.92308e-11
4.54748e-12
-1.0915e-12
2.48647e-13
-6.69448e-14
9.92945e-15
-6.60639e-15
-1.40159e-15
-1.68779e-15
-1.01098e-15
-6.72622e-16
-3.93073e-16
-2.33534e-16
-1.6032e-16
-1.13704e-16
-5.65954e-17
6.05661e-09
-1.43683e-09
3.40848e-10
-8.08846e-11
1.91633e-11
-4.56809e-12
1.06568e-12
-2.66817e-13
5.26543e-14
-2.04903e-14
-9.50271e-16
-3.89406e-15
-1.91365e-15
-1.53193e-15
-9.84917e-16
-5.54188e-16
-3.29458e-16
-1.35796e-16
-7.19139e-17
-1.80156e-17
-6.04532e-09
1.43416e-09
-3.40276e-10
8.06866e-11
-1.91782e-11
4.51958e-12
-1.09594e-12
2.42244e-13
-7.04113e-14
7.3915e-15
-8.44588e-15
-2.7349e-15
-2.57539e-15
-1.47585e-15
-1.08233e-15
-8.16585e-16
-5.84425e-16
-3.20567e-16
-7.55639e-17
3.58528e-17
6.03548e-09
-1.43188e-09
3.39631e-10
-8.06334e-11
1.90746e-11
-4.56535e-12
1.0539e-12
-2.70385e-13
5.00486e-14
-2.14717e-14
-1.55399e-15
-4.33005e-15
-2.20873e-15
-1.5164e-15
-1.02594e-15
-7.89244e-16
-5.00756e-16
-3.11902e-16
-1.21716e-16
1.13847e-17
-6.02439e-09
1.42923e-09
-3.39228e-10
8.03745e-11
-1.91478e-11
4.49439e-12
-1.09787e-12
2.40545e-13
-7.00586e-14
8.07507e-15
-7.69912e-15
-2.18322e-15
-2.23649e-15
-1.1598e-15
-8.19937e-16
-5.65005e-16
-4.36796e-16
-3.64603e-16
-1.94819e-16
-8.94251e-18
6.01617e-09
-1.42753e-09
3.38214e-10
-8.03576e-11
1.89609e-11
-4.53775e-12
1.04924e-12
-2.63467e-13
5.30352e-14
-1.8549e-14
3.6231e-16
-2.7367e-15
-1.09504e-15
-9.22577e-16
-6.20406e-16
-3.97334e-16
-3.42357e-16
-3.59991e-16
-2.07613e-16
-5.7685e-17
-6.00595e-09
1.42409e-09
-3.38216e-10
8.01737e-11
-1.90705e-11
4.51018e-12
-1.0811e-12
2.51182e-13
-6.32263e-14
1.27284e-14
-4.54389e-15
1.78118e-16
-5.5078e-16
-2.52482e-16
-2.47815e-16
-1.30674e-16
-1.04714e-16
-1.06655e-16
-8.44618e-17
-4.13123e-17
)
;

boundaryField
{
    movingWall
    {
        type            calculated;
        value           uniform -0;
    }
    fixedWalls
    {
        type            calculated;
        value           uniform -0;
    }
    frontAndBack
    {
        type            empty;
    }
}


// ************************************************************************* //
