/*--------------------------------*- C++ -*----------------------------------*\
| =========                 |                                                 |
| \\      /  F ield         | OpenFOAM: The Open Source CFD Toolbox           |
|  \\    /   O peration     | Version:  2312                                  |
|   \\  /    A nd           | Website:  www.openfoam.com                      |
|    \\/     M anipulation  |                                                 |
\*---------------------------------------------------------------------------*/
FoamFile
{
    version     2.0;
    format      ascii;
    arch        "LSB;label=32;scalar=64";
    class       volVectorField;
    location    "4.75";
    object      vorticityField;
}
// * * * * * * * * * * * * * * * * * * * * * * * * * * * * * * * * * * * * * //

dimensions      [0 0 -1 0 0 0 0];

internalField   nonuniform List<vector> 
400
(
(0 -0 4.75666e-07)
(0 -0 -5.89399e-07)
(0 -0 1.39962e-07)
(0 -0 -3.33417e-08)
(0 -0 7.89334e-09)
(0 -0 -1.89929e-09)
(0 -0 4.3987e-10)
(0 -0 -1.12761e-10)
(0 -0 2.15866e-11)
(0 -0 -8.77871e-12)
(0 -0 -3.77935e-13)
(0 -0 -1.63998e-12)
(0 -0 -8.17325e-13)
(0 -0 -6.11549e-13)
(0 -0 -3.28228e-13)
(0 -0 -2.39811e-13)
(0 -0 -1.22901e-13)
(0 -0 -1.01417e-14)
(0 -0 -1.09205e-14)
(0 -0 -2.22042e-14)
(0 -0 -4.73273e-07)
(0 -0 5.89376e-07)
(0 -0 -1.4003e-07)
(0 -0 3.32686e-08)
(0 -0 -7.90418e-09)
(0 -0 1.87789e-09)
(0 -0 -4.46197e-10)
(0 -0 1.0588e-10)
(0 -0 -2.51896e-11)
(0 -0 6.00568e-12)
(0 -0 -1.40621e-12)
(0 -0 3.7099e-13)
(0 -0 -1.76436e-14)
(0 -0 -4.60124e-15)
(0 -0 -2.73682e-14)
(0 -0 1.57423e-14)
(0 -0 -2.6317e-14)
(0 -0 1.16407e-14)
(0 -0 -3.1303e-14)
(0 -0 -2.90935e-14)
(0 -0 4.72591e-07)
(0 -0 -5.88095e-07)
(0 -0 1.39585e-07)
(0 -0 -3.31297e-08)
(0 -0 7.86302e-09)
(0 -0 -1.8664e-09)
(0 -0 4.4285e-10)
(0 -0 -1.05219e-10)
(0 -0 2.48644e-11)
(0 -0 -6.05078e-12)
(0 -0 1.23763e-12)
(0 -0 -4.71966e-13)
(0 -0 -1.14586e-14)
(0 -0 -1.24675e-13)
(0 -0 -1.56812e-13)
(0 -0 -7.8412e-14)
(0 -0 -8.36154e-14)
(0 -0 -1.67059e-13)
(0 -0 -7.9386e-14)
(0 -0 -6.37666e-14)
(0 -0 -4.7382e-07)
(0 -0 5.87469e-07)
(0 -0 -1.39409e-07)
(0 -0 3.30811e-08)
(0 -0 -7.85012e-09)
(0 -0 1.8627e-09)
(0 -0 -4.42068e-10)
(0 -0 1.04924e-10)
(0 -0 -2.49269e-11)
(0 -0 5.8441e-12)
(0 -0 -1.45406e-12)
(0 -0 2.27386e-13)
(0 -0 -1.50031e-13)
(0 -0 -9.38968e-14)
(0 -0 -1.59937e-13)
(0 -0 -1.12307e-13)
(0 -0 -7.76884e-14)
(0 -0 -6.75097e-14)
(0 -0 -6.56553e-14)
(0 -0 -2.80113e-16)
(0 -0 4.73385e-07)
(0 -0 -5.86013e-07)
(0 -0 1.39045e-07)
(0 -0 -3.29903e-08)
(0 -0 7.82742e-09)
(0 -0 -1.85707e-09)
(0 -0 4.40672e-10)
(0 -0 -1.04594e-10)
(0 -0 2.47598e-11)
(0 -0 -5.89751e-12)
(0 -0 1.42303e-12)
(0 -0 -2.9014e-13)
(0 -0 -8.42445e-15)
(0 -0 3.93049e-15)
(0 -0 -4.15354e-14)
(0 -0 -1.38062e-13)
(0 -0 -1.03571e-13)
(0 -0 -9.69633e-14)
(0 -0 -3.69488e-14)
(0 -0 -4.95989e-14)
(0 -0 -4.7277e-07)
(0 -0 5.84529e-07)
(0 -0 -1.38682e-07)
(0 -0 3.29016e-08)
(0 -0 -7.80583e-09)
(0 -0 1.8518e-09)
(0 -0 -4.39467e-10)
(0 -0 1.04184e-10)
(0 -0 -2.4814e-11)
(0 -0 5.75732e-12)
(0 -0 -1.49496e-12)
(0 -0 3.29111e-13)
(0 -0 -1.70471e-13)
(0 -0 -6.32818e-14)
(0 -0 -7.03853e-14)
(0 -0 -9.45128e-14)
(0 -0 -1.0233e-13)
(0 -0 -1.21937e-13)
(0 -0 -6.34976e-14)
(0 -0 -3.43999e-14)
(0 -0 4.71604e-07)
(0 -0 -5.82801e-07)
(0 -0 1.38266e-07)
(0 -0 -3.28016e-08)
(0 -0 7.78155e-09)
(0 -0 -1.84623e-09)
(0 -0 4.37844e-10)
(0 -0 -1.0404e-10)
(0 -0 2.45209e-11)
(0 -0 -5.93536e-12)
(0 -0 1.33631e-12)
(0 -0 -4.97017e-13)
(0 -0 3.96008e-14)
(0 -0 -1.71478e-13)
(0 -0 -6.43709e-14)
(0 -0 -6.09694e-14)
(0 -0 -4.95797e-14)
(0 -0 -8.08569e-15)
(0 -0 -6.89077e-14)
(0 -0 -9.61729e-14)
(0 -0 -4.70412e-07)
(0 -0 5.81172e-07)
(0 -0 -1.37877e-07)
(0 -0 3.27084e-08)
(0 -0 -7.75952e-09)
(0 -0 1.8407e-09)
(0 -0 -4.36729e-10)
(0 -0 1.03566e-10)
(0 -0 -2.46852e-11)
(0 -0 5.77425e-12)
(0 -0 -1.52761e-12)
(0 -0 2.74336e-13)
(0 -0 -1.48366e-13)
(0 -0 -7.57454e-14)
(0 -0 -5.12979e-14)
(0 -0 -1.23145e-14)
(0 -0 -6.40621e-14)
(0 -0 -8.23342e-14)
(0 -0 -6.25346e-14)
(0 -0 -2.89305e-14)
(0 -0 4.6908e-07)
(0 -0 -5.79514e-07)
(0 -0 1.37482e-07)
(0 -0 -3.26148e-08)
(0 -0 7.73698e-09)
(0 -0 -1.8356e-09)
(0 -0 4.35327e-10)
(0 -0 -1.03484e-10)
(0 -0 2.44679e-11)
(0 -0 -5.92691e-12)
(0 -0 1.25698e-12)
(0 -0 -4.33853e-13)
(0 -0 -1.2492e-13)
(0 -0 -9.11742e-14)
(0 -0 -8.13055e-14)
(0 -0 -4.13903e-14)
(0 -0 -8.37822e-14)
(0 -0 -5.69293e-14)
(0 -0 7.21435e-15)
(0 -0 -7.29019e-14)
(0 -0 -4.67807e-07)
(0 -0 5.77983e-07)
(0 -0 -1.37119e-07)
(0 -0 3.25285e-08)
(0 -0 -7.7168e-09)
(0 -0 1.83059e-09)
(0 -0 -4.34411e-10)
(0 -0 1.02987e-10)
(0 -0 -2.4421e-11)
(0 -0 5.72354e-12)
(0 -0 -1.4342e-12)
(0 -0 2.12896e-13)
(0 -0 -5.10213e-14)
(0 -0 2.02377e-14)
(0 -0 -6.50759e-14)
(0 -0 -6.84905e-14)
(0 -0 -6.76467e-14)
(0 -0 -2.17979e-14)
(0 -0 -8.24702e-14)
(0 -0 -3.6329e-14)
(0 -0 4.6655e-07)
(0 -0 -5.76515e-07)
(0 -0 1.36772e-07)
(0 -0 -3.24463e-08)
(0 -0 7.69718e-09)
(0 -0 -1.82613e-09)
(0 -0 4.33087e-10)
(0 -0 -1.02884e-10)
(0 -0 2.42984e-11)
(0 -0 -5.82009e-12)
(0 -0 1.38344e-12)
(0 -0 -3.84989e-13)
(0 -0 9.4548e-14)
(0 -0 -5.13583e-14)
(0 -0 1.12925e-14)
(0 -0 -9.1458e-14)
(0 -0 -3.74465e-14)
(0 -0 -5.07681e-14)
(0 -0 4.53003e-14)
(0 -0 -6.0078e-15)
(0 -0 -4.65359e-07)
(0 -0 5.75153e-07)
(0 -0 -1.3645e-07)
(0 -0 3.237e-08)
(0 -0 -7.67925e-09)
(0 -0 1.82176e-09)
(0 -0 -4.32191e-10)
(0 -0 1.02486e-10)
(0 -0 -2.44458e-11)
(0 -0 5.69744e-12)
(0 -0 -1.43159e-12)
(0 -0 3.5774e-13)
(0 -0 -1.33633e-13)
(0 -0 2.60049e-14)
(0 -0 -7.94632e-14)
(0 -0 5.05465e-14)
(0 -0 -1.54736e-14)
(0 -0 1.66996e-14)
(0 -0 -1.12728e-15)
(0 -0 -1.44895e-14)
(0 -0 4.64265e-07)
(0 -0 -5.73899e-07)
(0 -0 1.36153e-07)
(0 -0 -3.23e-08)
(0 -0 7.66268e-09)
(0 -0 -1.81782e-09)
(0 -0 4.31286e-10)
(0 -0 -1.02252e-10)
(0 -0 2.43333e-11)
(0 -0 -5.75843e-12)
(0 -0 1.44803e-12)
(0 -0 -2.56655e-13)
(0 -0 6.73778e-14)
(0 -0 -5.28523e-14)
(0 -0 -8.0542e-14)
(0 -0 -1.06079e-13)
(0 -0 -2.80801e-14)
(0 -0 -8.11278e-14)
(0 -0 -4.03742e-14)
(0 -0 1.18039e-14)
(0 -0 -4.63197e-07)
(0 -0 5.727e-07)
(0 -0 -1.3587e-07)
(0 -0 3.22331e-08)
(0 -0 -7.64686e-09)
(0 -0 1.81407e-09)
(0 -0 -4.30425e-10)
(0 -0 1.0213e-10)
(0 -0 -2.42242e-11)
(0 -0 5.87121e-12)
(0 -0 -1.34994e-12)
(0 -0 2.75019e-13)
(0 -0 -6.93597e-14)
(0 -0 2.02019e-14)
(0 -0 6.17909e-14)
(0 -0 -3.74064e-14)
(0 -0 -3.09347e-14)
(0 -0 -4.22272e-14)
(0 -0 -1.67326e-14)
(0 -0 1.703e-14)
(0 -0 4.62295e-07)
(0 -0 -5.71638e-07)
(0 -0 1.35619e-07)
(0 -0 -3.21737e-08)
(0 -0 7.6329e-09)
(0 -0 -1.81079e-09)
(0 -0 4.2964e-10)
(0 -0 -1.01872e-10)
(0 -0 2.41448e-11)
(0 -0 -5.76703e-12)
(0 -0 1.38857e-12)
(0 -0 -2.86073e-13)
(0 -0 7.35826e-14)
(0 -0 3.86628e-14)
(0 -0 9.77738e-14)
(0 -0 1.46861e-13)
(0 -0 4.18392e-14)
(0 -0 7.99645e-14)
(0 -0 1.17781e-14)
(0 -0 8.99296e-15)
(0 -0 -4.61295e-07)
(0 -0 5.70541e-07)
(0 -0 -1.35359e-07)
(0 -0 3.21125e-08)
(0 -0 -7.6183e-09)
(0 -0 1.80739e-09)
(0 -0 -4.28709e-10)
(0 -0 1.01713e-10)
(0 -0 -2.41087e-11)
(0 -0 5.70865e-12)
(0 -0 -1.36501e-12)
(0 -0 3.70208e-13)
(0 -0 -3.67253e-14)
(0 -0 1.37805e-14)
(0 -0 -1.53885e-14)
(0 -0 -3.15246e-14)
(0 -0 4.96018e-14)
(0 -0 5.08861e-14)
(0 -0 6.2747e-14)
(0 -0 -2.31339e-14)
(0 -0 4.60634e-07)
(0 -0 -5.69639e-07)
(0 -0 1.35146e-07)
(0 -0 -3.2062e-08)
(0 -0 7.60637e-09)
(0 -0 -1.80451e-09)
(0 -0 4.28087e-10)
(0 -0 -1.01551e-10)
(0 -0 2.41866e-11)
(0 -0 -5.62104e-12)
(0 -0 1.3889e-12)
(0 -0 -2.5521e-13)
(0 -0 1.72945e-13)
(0 -0 3.6964e-14)
(0 -0 1.8506e-14)
(0 -0 -1.69152e-15)
(0 -0 1.01944e-13)
(0 -0 3.7904e-14)
(0 -0 3.23286e-14)
(0 -0 1.10331e-14)
(0 -0 -4.59474e-07)
(0 -0 5.6852e-07)
(0 -0 -1.34882e-07)
(0 -0 3.19993e-08)
(0 -0 -7.59142e-09)
(0 -0 1.80114e-09)
(0 -0 -4.27201e-10)
(0 -0 1.01507e-10)
(0 -0 -2.39517e-11)
(0 -0 5.74806e-12)
(0 -0 -1.32398e-12)
(0 -0 3.02318e-13)
(0 -0 -6.07894e-15)
(0 -0 8.74452e-14)
(0 -0 3.23748e-14)
(0 -0 3.83141e-14)
(0 -0 2.00401e-14)
(0 -0 2.41976e-14)
(0 -0 3.55661e-14)
(0 -0 4.74812e-14)
(0 -0 4.60175e-07)
(0 -0 -5.68482e-07)
(0 -0 1.34975e-07)
(0 -0 -3.20458e-08)
(0 -0 7.6083e-09)
(0 -0 -1.80637e-09)
(0 -0 4.28946e-10)
(0 -0 -1.01789e-10)
(0 -0 2.41666e-11)
(0 -0 -5.80939e-12)
(0 -0 1.33729e-12)
(0 -0 -3.62576e-13)
(0 -0 -8.32269e-15)
(0 -0 -1.15167e-13)
(0 -0 -5.58959e-14)
(0 -0 -8.06153e-14)
(0 -0 -1.31791e-13)
(0 -0 -4.07357e-14)
(0 -0 3.12559e-15)
(0 -0 -5.75239e-16)
(0 -0 -4.59871e-07)
(0 -0 5.67514e-07)
(0 -0 -1.34689e-07)
(0 -0 3.20456e-08)
(0 -0 -7.59272e-09)
(0 -0 1.81898e-09)
(0 -0 -4.25033e-10)
(0 -0 1.06124e-10)
(0 -0 -2.2192e-11)
(0 -0 7.35902e-12)
(0 -0 -3.87666e-13)
(0 -0 1.04983e-12)
(0 -0 3.90621e-13)
(0 -0 3.28452e-13)
(0 -0 2.01916e-13)
(0 -0 1.7694e-13)
(0 -0 8.37171e-14)
(0 -0 5.62354e-14)
(0 -0 3.36393e-14)
(0 -0 3.96825e-14)
)
;

boundaryField
{
    movingWall
    {
        type            calculated;
        value           nonuniform List<vector> 
20
(
(0 -0 -4.58497e-07)
(0 -0 5.68522e-07)
(0 -0 -1.35108e-07)
(0 -0 3.23158e-08)
(0 -0 -7.65313e-09)
(0 -0 1.85783e-09)
(0 -0 -4.2741e-10)
(0 -0 1.12978e-10)
(0 -0 -2.05147e-11)
(0 -0 9.33214e-12)
(0 -0 6.10147e-13)
(0 -0 1.77599e-12)
(0 -0 9.33936e-13)
(0 -0 7.40839e-13)
(0 -0 5.00679e-13)
(0 -0 3.69581e-13)
(0 -0 2.24447e-13)
(0 -0 1.79661e-13)
(0 -0 5.09432e-14)
(0 -0 5.69863e-14)
)
;
    }
    fixedWalls
    {
        type            calculated;
        value           nonuniform List<vector> 
60
(
(0 -0 2.49673e-06)
(0 -0 -2.49587e-06)
(0 -0 2.49243e-06)
(0 -0 -2.48989e-06)
(0 -0 2.48382e-06)
(0 -0 -2.47759e-06)
(0 -0 2.4703e-06)
(0 -0 -2.4634e-06)
(0 -0 2.45638e-06)
(0 -0 -2.4499e-06)
(0 -0 2.44367e-06)
(0 -0 -2.43789e-06)
(0 -0 2.43257e-06)
(0 -0 -2.42747e-06)
(0 -0 2.42296e-06)
(0 -0 -2.41831e-06)
(0 -0 2.41447e-06)
(0 -0 -2.40971e-06)
(0 -0 2.40778e-06)
(0 -0 -2.40407e-06)
(0 -0 -3.39568e-14)
(0 -0 -2.94348e-14)
(0 -0 -4.52145e-14)
(0 -0 1.14207e-14)
(0 -0 -4.9849e-14)
(0 -0 -3.81906e-14)
(0 -0 -1.0722e-13)
(0 -0 -3.23347e-14)
(0 -0 -7.20946e-14)
(0 -0 -4.91633e-14)
(0 -0 -1.99709e-14)
(0 -0 -3.12946e-14)
(0 -0 -6.57806e-16)
(0 -0 2.26382e-14)
(0 -0 7.20626e-15)
(0 -0 -4.14462e-14)
(0 -0 -4.55388e-15)
(0 -0 3.06821e-14)
(0 -0 -4.03107e-15)
(0 -0 4.363e-14)
(0 -0 4.78261e-07)
(0 -0 -5.91299e-07)
(0 -0 1.40654e-07)
(0 -0 -3.37103e-08)
(0 -0 7.96415e-09)
(0 -0 -1.95061e-09)
(0 -0 4.4023e-10)
(0 -0 -1.22586e-10)
(0 -0 1.82223e-11)
(0 -0 -1.20213e-11)
(0 -0 -2.47218e-12)
(0 -0 -3.17361e-12)
(0 -0 -1.93106e-12)
(0 -0 -1.3129e-12)
(0 -0 -7.85024e-13)
(0 -0 -5.11469e-13)
(0 -0 -3.25343e-13)
(0 -0 -1.43368e-13)
(0 -0 -1.44147e-13)
(0 -0 -2.22042e-14)
)
;
    }
    frontAndBack
    {
        type            empty;
    }
}


// ************************************************************************* //
