/*--------------------------------*- C++ -*----------------------------------*\
| =========                 |                                                 |
| \\      /  F ield         | OpenFOAM: The Open Source CFD Toolbox           |
|  \\    /   O peration     | Version:  2312                                  |
|   \\  /    A nd           | Website:  www.openfoam.com                      |
|    \\/     M anipulation  |                                                 |
\*---------------------------------------------------------------------------*/
FoamFile
{
    version     2.0;
    format      ascii;
    arch        "LSB;label=32;scalar=64";
    class       volScalarField;
    location    "9.25";
    object      divPhi;
}
// * * * * * * * * * * * * * * * * * * * * * * * * * * * * * * * * * * * * * //

dimensions      [0 0 -1 0 0 0 0];

internalField   nonuniform List<scalar> 
400
(
-8.13152e-14
9.30414e-15
3.60977e-15
6.51363e-16
-1.54334e-14
9.7824e-15
-1.30658e-14
-2.49088e-15
1.73267e-14
-1.72786e-14
1.92194e-14
-2.74836e-15
-3.57164e-15
-1.36305e-14
4.99759e-15
4.89895e-15
2.0928e-15
-1.17263e-14
-1.50154e-15
0
2.71051e-14
1.36199e-14
-1.76699e-14
3.6088e-15
9.59324e-15
4.7973e-14
-1.44149e-14
-3.5119e-15
-3.98928e-14
1.2974e-14
3.05627e-15
-2.47422e-14
-1.31821e-14
3.14379e-14
-1.01638e-15
-1.68799e-14
2.60734e-14
-5.55316e-15
-5.40787e-15
0
0
-3.7324e-14
9.47084e-15
4.07707e-15
3.65952e-14
-1.30381e-14
2.57598e-14
-1.78445e-14
-3.44717e-15
7.04193e-15
-1.22614e-14
1.60187e-14
-1.03776e-14
1.02879e-14
2.04602e-14
1.6867e-14
-3.20436e-15
8.81956e-17
-2.61601e-14
0
0
-2.63202e-15
1.46162e-14
-1.75171e-14
2.21972e-14
-4.35411e-14
1.31487e-14
4.20632e-15
-2.28318e-15
1.02994e-15
-1.89247e-14
-1.90117e-14
-1.59974e-14
8.26535e-15
-1.35574e-14
-2.63662e-15
1.32912e-14
-2.61315e-14
1.83465e-14
0
0
-1.42172e-14
-6.13983e-15
1.1737e-14
8.80893e-16
8.00818e-15
1.16349e-14
1.94535e-14
-2.5005e-14
2.8995e-14
1.49785e-14
-1.35284e-14
1.17906e-14
1.52316e-14
1.0139e-14
-2.2054e-14
3.73482e-14
-5.89268e-15
-2.52711e-14
0
0
2.8761e-14
2.79933e-15
5.37824e-15
2.77461e-15
8.20827e-15
2.09518e-14
-1.88997e-14
3.07122e-14
-1.77453e-14
-7.71335e-15
-5.31386e-15
4.46525e-15
-2.79568e-15
2.10369e-14
1.14576e-14
8.48282e-15
-1.52043e-14
7.18947e-15
2.71051e-14
-2.71051e-14
1.06299e-14
-4.39842e-15
-2.16129e-14
1.4557e-14
-5.57077e-15
-4.19658e-15
-8.97384e-15
6.12371e-15
1.37616e-14
-2.97813e-15
-5.6154e-15
1.60536e-15
-1.7792e-15
-1.98051e-14
2.11661e-14
2.17208e-14
1.66149e-14
1.40907e-14
0
0
1.11205e-14
1.183e-14
5.35774e-15
1.23404e-15
-4.11648e-15
-2.51337e-14
-2.44917e-14
2.56906e-14
-2.73788e-14
-6.52335e-15
3.53147e-15
9.42275e-15
3.70011e-15
8.85337e-15
-2.70703e-15
-6.94994e-15
-8.76815e-15
-3.97565e-15
-2.71051e-14
2.71051e-14
-1.61406e-14
1.2557e-14
1.54158e-14
1.16924e-16
1.49005e-14
-1.31737e-14
4.13119e-15
9.13389e-15
3.58084e-15
1.2937e-14
-9.35351e-15
-5.23902e-15
8.46861e-15
-1.44791e-14
1.58462e-15
6.88331e-15
-5.02415e-15
-1.74302e-15
2.71051e-14
0
4.03147e-15
3.72242e-14
-3.53482e-14
1.40692e-15
-1.36654e-15
-4.56205e-14
-9.64233e-16
1.14221e-14
1.698e-15
2.45738e-15
1.19558e-14
-1.34856e-15
1.8373e-14
2.61054e-14
-5.37598e-15
-5.72199e-15
-8.17141e-15
4.21054e-15
-2.71051e-14
0
3.41971e-15
-2.69505e-15
-5.66148e-17
-1.014e-14
-6.37575e-15
4.62892e-15
-4.83725e-15
2.22419e-14
6.72793e-15
-2.69371e-14
1.46958e-14
-5.23554e-15
-6.77523e-16
-2.0571e-15
-1.31351e-14
-1.41496e-14
2.57423e-15
1.89414e-14
0
0
1.90803e-14
4.988e-15
1.62412e-14
-2.87242e-14
1.63816e-16
1.45624e-14
-1.12037e-14
-4.14351e-15
3.1352e-15
1.60618e-14
-8.68828e-15
4.42669e-16
-1.80521e-14
-9.71396e-15
-3.47781e-15
1.25026e-14
-1.37255e-14
2.02626e-15
2.71051e-14
-2.71051e-14
-2.72501e-16
1.29418e-14
-2.15215e-14
3.46348e-15
9.49155e-15
-1.5687e-14
-1.60467e-14
-7.90176e-15
3.00678e-14
-2.9256e-14
-4.33186e-16
3.70203e-15
1.58278e-14
-3.18965e-14
1.01294e-14
1.10779e-14
1.89029e-14
1.70348e-14
-2.71051e-14
2.71051e-14
-8.59504e-15
3.44496e-15
1.76573e-14
5.03292e-15
2.35339e-14
6.96288e-15
1.55144e-14
-1.10587e-14
2.02001e-14
-6.47355e-15
1.94999e-14
-2.75671e-14
-1.38551e-14
-8.96784e-16
5.94084e-15
3.93498e-15
-2.05333e-14
4.83952e-15
2.71051e-14
0
-3.0549e-14
-1.25476e-15
-3.32917e-15
7.39814e-15
1.29685e-14
1.47273e-14
-2.25855e-14
-1.27092e-14
-8.75656e-15
-1.50792e-14
-3.01638e-15
-4.84656e-16
5.01477e-15
9.70744e-15
-3.11477e-15
4.9547e-15
-2.59003e-14
1.38533e-15
0
2.71051e-14
5.0064e-16
-3.63579e-15
-6.76215e-16
1.78497e-14
2.78773e-15
-1.04175e-14
-5.52181e-15
-2.43966e-14
1.82868e-15
3.97641e-14
-7.31969e-16
2.08796e-14
-1.03062e-14
1.44913e-14
-3.85656e-15
8.13892e-15
1.66502e-14
-1.43056e-14
0
0
-3.32211e-15
-2.81997e-14
2.55892e-14
-2.90233e-14
2.44345e-14
-1.3592e-14
-1.05373e-14
-2.4742e-14
2.12309e-14
1.65472e-14
8.80075e-16
1.71987e-15
-1.87221e-14
-3.308e-14
-8.33325e-15
2.53526e-14
-2.21384e-14
2.63508e-14
0
-2.71051e-14
4.23339e-15
-1.26332e-14
-1.15586e-14
-3.58352e-16
-1.81194e-14
1.27072e-14
1.42909e-14
-1.90593e-14
1.99495e-14
-2.88495e-14
-1.27004e-15
4.82044e-15
-1.84859e-15
-7.97652e-15
-1.63513e-14
8.70913e-15
-1.57928e-15
-1.32455e-14
2.71051e-14
0
-1.2163e-15
-2.53256e-15
-4.27719e-14
2.62338e-14
1.29513e-14
-8.55285e-17
-6.36074e-15
-7.5403e-15
-1.39099e-14
-5.68973e-15
-1.67766e-14
2.3427e-14
-1.29654e-14
-6.20837e-15
1.6569e-14
-2.51853e-14
2.34096e-16
-7.76868e-15
-2.71051e-14
0
0
0
2.71051e-14
0
0
0
-2.71051e-14
2.71051e-14
0
2.71051e-14
-2.71051e-14
2.71051e-14
0
0
0
0
0
-2.71051e-14
2.71051e-14
)
;

boundaryField
{
    movingWall
    {
        type            extrapolatedCalculated;
        value           nonuniform List<scalar> 
20
(
0
0
0
2.71051e-14
0
0
0
-2.71051e-14
2.71051e-14
0
2.71051e-14
-2.71051e-14
2.71051e-14
0
0
0
0
0
-2.71051e-14
2.71051e-14
)
;
    }
    fixedWalls
    {
        type            extrapolatedCalculated;
        value           nonuniform List<scalar> 
60
(
-8.13152e-14
2.71051e-14
0
0
0
0
-2.71051e-14
0
2.71051e-14
0
0
0
-2.71051e-14
2.71051e-14
0
2.71051e-14
0
-2.71051e-14
0
0
0
0
0
0
0
2.71051e-14
0
-2.71051e-14
2.71051e-14
-2.71051e-14
0
2.71051e-14
-2.71051e-14
2.71051e-14
0
0
0
2.71051e-14
-2.71051e-14
2.71051e-14
-8.13152e-14
9.30414e-15
3.60977e-15
6.51363e-16
-1.54334e-14
9.7824e-15
-1.30658e-14
-2.49088e-15
1.73267e-14
-1.72786e-14
1.92194e-14
-2.74836e-15
-3.57164e-15
-1.36305e-14
4.99759e-15
4.89895e-15
2.0928e-15
-1.17263e-14
-1.50154e-15
0
)
;
    }
    frontAndBack
    {
        type            empty;
    }
}


// ************************************************************************* //
