/*--------------------------------*- C++ -*----------------------------------*\
| =========                 |                                                 |
| \\      /  F ield         | OpenFOAM: The Open Source CFD Toolbox           |
|  \\    /   O peration     | Version:  2312                                  |
|   \\  /    A nd           | Website:  www.openfoam.com                      |
|    \\/     M anipulation  |                                                 |
\*---------------------------------------------------------------------------*/
FoamFile
{
    version     2.0;
    format      ascii;
    arch        "LSB;label=32;scalar=64";
    class       volScalarField;
    location    "9.25";
    object      enstrophyField;
}
// * * * * * * * * * * * * * * * * * * * * * * * * * * * * * * * * * * * * * //

dimensions      [0 0 -2 0 0 0 0];

internalField   nonuniform List<scalar> 
400
(
5.13003e-23
9.38096e-23
4.67336e-24
2.28217e-25
9.78946e-27
3.79035e-28
4.79787e-29
4.53376e-28
2.29983e-27
9.40563e-28
1.92335e-28
4.8264e-28
3.42343e-28
1.32746e-28
1.80072e-29
1.41897e-27
4.30556e-28
3.12261e-28
1.89502e-29
5.05467e-30
1.18779e-25
1.62199e-24
7.04629e-26
1.07258e-26
3.04291e-27
9.24384e-31
3.77016e-27
4.55589e-27
7.36504e-27
3.8553e-28
3.67556e-27
1.96419e-27
1.12177e-28
6.59299e-29
2.33757e-27
7.83893e-27
4.87944e-28
1.08571e-28
1.48701e-28
2.22738e-29
9.5502e-24
5.99007e-23
3.20692e-24
1.73826e-25
8.0586e-27
4.40505e-27
1.26282e-27
5.83384e-27
6.30726e-30
2.94158e-28
9.40499e-28
2.88333e-28
1.43482e-31
3.50291e-29
1.91751e-29
2.92184e-29
2.28199e-27
1.11196e-28
1.33165e-27
6.71744e-30
4.4594e-24
1.94565e-23
1.00975e-24
5.62969e-26
7.13237e-28
4.27089e-29
1.76068e-29
1.04127e-27
4.02739e-27
1.15618e-27
2.05957e-28
1.58978e-29
3.42593e-27
5.38151e-28
9.33939e-27
6.77322e-27
2.38437e-30
6.30214e-28
4.49202e-28
1.47129e-28
5.60768e-25
2.66083e-24
9.75691e-26
1.87967e-26
1.72203e-29
8.05323e-27
5.53366e-27
8.65689e-29
6.06624e-28
1.77807e-27
7.1421e-28
7.06264e-27
4.96442e-28
3.82755e-28
1.69633e-27
1.88917e-27
2.12211e-29
1.05014e-28
3.70735e-28
3.85585e-28
2.23718e-23
4.85957e-23
2.51995e-24
1.38478e-25
3.75472e-27
2.76128e-28
2.16865e-28
3.52563e-30
6.44355e-28
7.02977e-30
6.36871e-29
1.32248e-27
3.84269e-27
1.52153e-30
5.36546e-30
1.28363e-27
1.69772e-27
4.3274e-29
8.02565e-28
7.33742e-28
2.8053e-23
6.86687e-23
3.79723e-24
1.51594e-25
1.64399e-26
2.8846e-27
9.50345e-27
1.25506e-26
6.34206e-27
8.87956e-28
2.27919e-27
1.18799e-27
4.02075e-27
4.35084e-27
1.3887e-27
9.6281e-29
1.45663e-27
7.01828e-28
3.26472e-29
5.26016e-29
2.27506e-25
3.7976e-24
1.38911e-25
1.45009e-26
5.49464e-27
2.75045e-29
2.26213e-30
2.30566e-27
5.01761e-29
5.44469e-28
1.40451e-29
8.35931e-29
7.51716e-28
3.75225e-28
1.23496e-29
1.58177e-27
1.59763e-27
3.52161e-29
1.07342e-28
6.34205e-29
2.8654e-23
4.45095e-23
2.61509e-24
1.05226e-25
1.28994e-26
4.44709e-27
8.75732e-27
1.52111e-26
3.72534e-27
9.38538e-27
6.32211e-27
7.8228e-27
6.40649e-27
7.20589e-28
1.96034e-28
4.71426e-29
6.6323e-28
4.24554e-28
9.74403e-29
1.97935e-29
6.30079e-23
1.19394e-22
6.51071e-24
3.75595e-25
1.89673e-26
6.48193e-28
1.74076e-28
5.92024e-28
1.66123e-30
1.39603e-28
1.06945e-27
1.9458e-28
7.51596e-28
1.12423e-28
1.45479e-27
1.18536e-34
5.98749e-28
2.74889e-28
2.52038e-29
7.54483e-32
5.06415e-23
8.49364e-23
4.37063e-24
3.14065e-25
6.14314e-27
1.24077e-26
1.91158e-28
1.06966e-27
3.02494e-29
2.50451e-28
1.91238e-28
1.17977e-29
4.17612e-29
2.94085e-29
1.38278e-27
1.76927e-29
2.22397e-30
1.00169e-32
8.70527e-32
6.92687e-30
2.03587e-23
1.96723e-23
1.1091e-24
4.4908e-26
1.16733e-26
5.28751e-28
6.71511e-27
7.4036e-28
3.00559e-28
4.50761e-27
5.59298e-27
7.96303e-27
5.01672e-27
9.3902e-28
7.23497e-28
1.52651e-27
8.36921e-28
3.93782e-28
3.32034e-29
2.36259e-29
8.23377e-25
5.06776e-24
2.27198e-25
3.53119e-26
1.29226e-28
7.17352e-28
1.15497e-27
8.38844e-27
1.52009e-27
1.51239e-29
3.0639e-30
1.7378e-28
5.39014e-28
3.2876e-27
4.86883e-27
1.23405e-27
1.47518e-28
8.1832e-28
3.37451e-30
3.95006e-30
2.9988e-23
5.45549e-23
2.82947e-24
1.80008e-25
7.80799e-27
5.47411e-27
9.11447e-27
1.85883e-28
7.68809e-28
1.51206e-27
4.76143e-27
8.05232e-27
1.48565e-27
1.7124e-29
5.84903e-30
2.87386e-30
7.40017e-29
2.12507e-27
3.86582e-31
4.40473e-28
4.49196e-23
7.32715e-23
4.35169e-24
1.68612e-25
3.31546e-26
5.84855e-27
3.20213e-27
6.62987e-27
1.34953e-27
1.5589e-27
2.03764e-29
1.08121e-27
5.20357e-28
1.14339e-28
4.1039e-29
1.02383e-27
3.12344e-27
3.82603e-29
2.57884e-28
4.13612e-28
1.42091e-23
2.17104e-23
1.20835e-24
6.73236e-26
2.30323e-27
1.62484e-27
4.73549e-30
3.31015e-29
3.20337e-28
3.13563e-28
3.34886e-28
6.02544e-30
8.39503e-28
4.24942e-29
7.39958e-28
1.12913e-27
2.43464e-27
1.39075e-27
1.11255e-28
7.54389e-29
1.0067e-24
4.83628e-24
2.77253e-25
1.56306e-26
3.34319e-27
1.51341e-29
8.11363e-29
4.13204e-27
2.47792e-27
3.8752e-27
1.59034e-27
3.42956e-29
1.63544e-27
1.11393e-27
1.25412e-27
3.75511e-30
8.70463e-28
4.81952e-31
2.75927e-30
1.55228e-29
9.93392e-24
4.90509e-23
2.42826e-24
1.87966e-25
2.41919e-27
8.22929e-28
2.2245e-28
1.26862e-27
1.41679e-29
1.92162e-32
1.01067e-30
1.08003e-30
1.62504e-27
2.48451e-29
1.61081e-27
1.01509e-27
5.08084e-27
1.66912e-27
2.2962e-29
1.38279e-28
1.38654e-24
5.58994e-24
5.00489e-25
1.14342e-27
1.1599e-26
1.68826e-26
1.37905e-26
2.42547e-27
5.24029e-27
5.80396e-27
7.07117e-27
1.98531e-27
4.95048e-28
4.01787e-28
2.4694e-27
1.22183e-27
5.38742e-29
1.14016e-29
5.67211e-28
3.32758e-28
1.63887e-23
3.53662e-23
1.34786e-24
1.69938e-25
2.80353e-28
1.34778e-26
6.10171e-27
3.70245e-27
1.27838e-27
1.08606e-27
1.50453e-27
1.82985e-27
1.9877e-28
1.16923e-28
1.47197e-27
8.20293e-29
1.2446e-27
1.72349e-27
3.37243e-28
7.07243e-28
)
;

boundaryField
{
    movingWall
    {
        type            calculated;
        value           nonuniform List<scalar> 
20
(
6.52651e-23
5.13794e-23
1.08977e-24
4.13011e-25
3.65933e-26
5.76365e-26
3.60468e-26
1.66298e-26
2.3849e-26
2.29924e-26
2.47953e-26
4.52231e-27
6.93493e-28
2.70302e-27
1.14842e-33
5.16396e-27
1.18717e-27
7.96329e-28
9.36351e-28
4.93247e-27
)
;
    }
    fixedWalls
    {
        type            calculated;
        value           nonuniform List<scalar> 
60
(
1.70067e-21
2.84438e-23
1.08475e-21
3.45567e-22
4.39647e-23
8.74653e-22
1.26866e-21
6.58117e-23
8.46998e-22
2.19689e-21
1.53075e-21
3.58517e-22
8.53414e-23
9.88363e-22
1.35999e-21
3.95217e-22
9.31782e-23
8.7542e-22
1.06171e-22
6.08274e-22
4.00199e-29
1.7056e-28
3.25652e-28
4.19184e-28
2.64426e-28
1.68138e-27
1.05119e-28
6.30923e-28
4.81057e-28
4.59411e-30
2.95295e-29
2.49382e-28
1.15898e-29
3.18348e-28
1.54011e-28
8.99024e-29
2.55795e-29
9.60041e-29
2.72917e-28
9.53967e-28
1.57851e-22
1.23596e-22
4.7566e-24
2.66311e-25
3.05855e-27
2.58782e-27
7.6176e-27
9.27986e-27
1.07806e-26
1.84078e-27
6.81428e-28
1.19343e-26
3.86138e-27
1.32746e-28
1.80072e-29
4.39791e-31
2.50799e-30
2.23581e-30
7.31631e-28
5.05467e-30
)
;
    }
    frontAndBack
    {
        type            empty;
    }
}


// ************************************************************************* //
