/*--------------------------------*- C++ -*----------------------------------*\
| =========                 |                                                 |
| \\      /  F ield         | OpenFOAM: The Open Source CFD Toolbox           |
|  \\    /   O peration     | Version:  2312                                  |
|   \\  /    A nd           | Website:  www.openfoam.com                      |
|    \\/     M anipulation  |                                                 |
\*---------------------------------------------------------------------------*/
FoamFile
{
    version     2.0;
    format      ascii;
    arch        "LSB;label=32;scalar=64";
    class       volScalarField;
    location    "9.25";
    object      epsilonzeroGrad;
}
// * * * * * * * * * * * * * * * * * * * * * * * * * * * * * * * * * * * * * //

dimensions      [0 2 -3 0 0 0 0];

internalField   nonuniform List<scalar> 
400
(
7.78443e-07
7.78442e-07
7.78442e-07
7.78442e-07
7.78442e-07
7.78442e-07
7.78441e-07
7.78441e-07
7.78441e-07
7.78441e-07
7.78441e-07
7.78441e-07
7.78441e-07
7.78441e-07
7.78441e-07
7.78441e-07
7.78441e-07
7.78441e-07
7.78441e-07
7.78441e-07
7.94846e-07
7.86792e-07
7.87478e-07
7.87764e-07
7.88331e-07
7.88624e-07
7.89192e-07
7.89491e-07
7.9006e-07
7.90367e-07
7.90937e-07
7.91252e-07
7.91821e-07
7.92145e-07
7.92712e-07
7.93047e-07
7.93613e-07
7.93957e-07
7.9424e-07
7.94696e-07
8.21604e-07
8.1304e-07
8.13782e-07
8.14091e-07
8.14701e-07
8.15014e-07
8.15624e-07
8.15943e-07
8.16553e-07
8.16877e-07
8.17485e-07
8.17816e-07
8.18422e-07
8.18761e-07
8.19364e-07
8.19711e-07
8.2031e-07
8.20667e-07
8.20965e-07
8.21442e-07
8.5098e-07
8.42006e-07
8.42783e-07
8.43107e-07
8.43746e-07
8.44074e-07
8.44713e-07
8.45047e-07
8.45686e-07
8.46025e-07
8.46663e-07
8.47009e-07
8.47644e-07
8.47999e-07
8.48631e-07
8.48995e-07
8.49622e-07
8.49995e-07
8.50308e-07
8.50808e-07
8.76921e-07
8.67579e-07
8.68387e-07
8.68724e-07
8.69389e-07
8.69731e-07
8.70396e-07
8.70744e-07
8.71409e-07
8.71762e-07
8.72426e-07
8.72786e-07
8.73447e-07
8.73817e-07
8.74474e-07
8.74853e-07
8.75506e-07
8.75895e-07
8.7622e-07
8.76741e-07
8.96753e-07
8.87124e-07
8.87956e-07
8.88304e-07
8.88989e-07
8.89341e-07
8.90027e-07
8.90384e-07
8.9107e-07
8.91434e-07
8.92118e-07
8.9249e-07
8.93171e-07
8.93552e-07
8.94229e-07
8.9462e-07
8.95293e-07
8.95694e-07
8.96029e-07
8.96565e-07
9.10518e-07
9.00688e-07
9.01537e-07
9.01892e-07
9.02592e-07
9.02951e-07
9.03651e-07
9.04016e-07
9.04716e-07
9.05087e-07
9.05785e-07
9.06165e-07
9.0686e-07
9.07249e-07
9.0794e-07
9.08339e-07
9.09026e-07
9.09436e-07
9.09777e-07
9.10325e-07
9.19577e-07
9.09613e-07
9.10474e-07
9.10834e-07
9.11543e-07
9.11907e-07
9.12616e-07
9.12986e-07
9.13695e-07
9.14072e-07
9.14779e-07
9.15164e-07
9.15869e-07
9.16263e-07
9.16963e-07
9.17368e-07
9.18064e-07
9.18479e-07
9.18825e-07
9.19381e-07
9.25515e-07
9.15464e-07
9.16333e-07
9.16695e-07
9.1741e-07
9.17778e-07
9.18493e-07
9.18866e-07
9.19581e-07
9.19961e-07
9.20675e-07
9.21063e-07
9.21774e-07
9.22171e-07
9.22878e-07
9.23286e-07
9.23988e-07
9.24407e-07
9.24756e-07
9.25317e-07
9.29626e-07
9.19515e-07
9.20389e-07
9.20753e-07
9.21472e-07
9.21842e-07
9.22562e-07
9.22937e-07
9.23657e-07
9.24039e-07
9.24757e-07
9.25147e-07
9.25862e-07
9.26262e-07
9.26973e-07
9.27384e-07
9.2809e-07
9.28511e-07
9.28863e-07
9.29426e-07
9.328e-07
9.22642e-07
9.2352e-07
9.23886e-07
9.24609e-07
9.2498e-07
9.25703e-07
9.2608e-07
9.26803e-07
9.27187e-07
9.27908e-07
9.28301e-07
9.29019e-07
9.29421e-07
9.30135e-07
9.30547e-07
9.31257e-07
9.3168e-07
9.32033e-07
9.32599e-07
9.35592e-07
9.25393e-07
9.26274e-07
9.26642e-07
9.27368e-07
9.27741e-07
9.28466e-07
9.28845e-07
9.29571e-07
9.29956e-07
9.3068e-07
9.31074e-07
9.31795e-07
9.32199e-07
9.32916e-07
9.3333e-07
9.34042e-07
9.34467e-07
9.34822e-07
9.3539e-07
9.38327e-07
9.28089e-07
9.28973e-07
9.29342e-07
9.30071e-07
9.30445e-07
9.31174e-07
9.31554e-07
9.32282e-07
9.32669e-07
9.33396e-07
9.33792e-07
9.34515e-07
9.34921e-07
9.3564e-07
9.36056e-07
9.36771e-07
9.37198e-07
9.37554e-07
9.38125e-07
9.41184e-07
9.30905e-07
9.31793e-07
9.32163e-07
9.32895e-07
9.33271e-07
9.34002e-07
9.34384e-07
9.35115e-07
9.35504e-07
9.36234e-07
9.36631e-07
9.37357e-07
9.37764e-07
9.38487e-07
9.38904e-07
9.39623e-07
9.40051e-07
9.40408e-07
9.40981e-07
9.44235e-07
9.3391e-07
9.34802e-07
9.35174e-07
9.35909e-07
9.36286e-07
9.37021e-07
9.37404e-07
9.38139e-07
9.38529e-07
9.39262e-07
9.3966e-07
9.4039e-07
9.40799e-07
9.41525e-07
9.41944e-07
9.42665e-07
9.43095e-07
9.43454e-07
9.4403e-07
9.4744e-07
9.37069e-07
9.37965e-07
9.38339e-07
9.39077e-07
9.39456e-07
9.40194e-07
9.40579e-07
9.41316e-07
9.41708e-07
9.42445e-07
9.42845e-07
9.43578e-07
9.43989e-07
9.44718e-07
9.45139e-07
9.45864e-07
9.46296e-07
9.46656e-07
9.47234e-07
9.50644e-07
9.40226e-07
9.41126e-07
9.41501e-07
9.42242e-07
9.42623e-07
9.43364e-07
9.43751e-07
9.44492e-07
9.44886e-07
9.45625e-07
9.46028e-07
9.46764e-07
9.47177e-07
9.47909e-07
9.48332e-07
9.4906e-07
9.49493e-07
9.49856e-07
9.50436e-07
9.5356e-07
9.43102e-07
9.44005e-07
9.44382e-07
9.45125e-07
9.45508e-07
9.46252e-07
9.4664e-07
9.47384e-07
9.47779e-07
9.48521e-07
9.48925e-07
9.49665e-07
9.50079e-07
9.50814e-07
9.51239e-07
9.51969e-07
9.52405e-07
9.52769e-07
9.53352e-07
9.55812e-07
9.4552e-07
9.46393e-07
9.46759e-07
9.4748e-07
9.47854e-07
9.48578e-07
9.48961e-07
9.49686e-07
9.50079e-07
9.50805e-07
9.51209e-07
9.51933e-07
9.5235e-07
9.53072e-07
9.53503e-07
9.54221e-07
9.54667e-07
9.55026e-07
9.55609e-07
9.56853e-07
9.56852e-07
9.56852e-07
9.56851e-07
9.56852e-07
9.56851e-07
9.56851e-07
9.5685e-07
9.56851e-07
9.5685e-07
9.5685e-07
9.5685e-07
9.5685e-07
9.5685e-07
9.5685e-07
9.5685e-07
9.5685e-07
9.5685e-07
9.5685e-07
9.5685e-07
)
;

boundaryField
{
    movingWall
    {
        type            zeroGradient;
    }
    fixedWalls
    {
        type            zeroGradient;
    }
    frontAndBack
    {
        type            empty;
    }
}


// ************************************************************************* //
