/*--------------------------------*- C++ -*----------------------------------*\
| =========                 |                                                 |
| \\      /  F ield         | OpenFOAM: The Open Source CFD Toolbox           |
|  \\    /   O peration     | Version:  2312                                  |
|   \\  /    A nd           | Website:  www.openfoam.com                      |
|    \\/     M anipulation  |                                                 |
\*---------------------------------------------------------------------------*/
FoamFile
{
    version     2.0;
    format      ascii;
    arch        "LSB;label=32;scalar=64";
    class       surfaceScalarField;
    location    "9.25";
    object      fluxField;
}
// * * * * * * * * * * * * * * * * * * * * * * * * * * * * * * * * * * * * * //

dimensions      [0 3 -1 0 0 0 0];

oriented        oriented;

internalField   nonuniform List<scalar> 
760
(
-5e-05
4.29604e-18
-5e-05
-9.23603e-19
-5e-05
2.1812e-19
-5e-05
-5.18903e-20
-5e-05
5.82768e-21
-5e-05
-4.18243e-21
-5e-05
-1.39551e-21
-5e-05
-3.53524e-22
-5e-05
1.38779e-21
-5e-05
-5.1938e-22
-5e-05
-2.51321e-21
-5e-05
2.45952e-21
-5e-05
5.38876e-21
-5e-05
-3.37497e-22
-5e-05
-1.55547e-21
-5e-05
1.70344e-21
-5e-05
2.87675e-21
-5e-05
2.17707e-21
-5e-05
-2.78536e-22
-5.95185e-22
-5e-05
-2.72771e-18
-5e-05
6.04997e-19
-5e-05
-1.43488e-19
-5e-05
2.50508e-20
-5e-05
-1.23702e-20
-5e-05
-7.37228e-22
-5e-05
-2.79714e-21
-5e-05
-5.14491e-21
-5e-05
-5.9375e-21
-5e-05
-1.02017e-21
-5e-05
2.92027e-22
-5e-05
2.79563e-21
-5e-05
3.1815e-21
-5e-05
-3.69953e-22
-5e-05
-1.78178e-21
-5e-05
1.6231e-21
-5e-05
4.32707e-21
-5e-05
5.9934e-21
-5e-05
-3.08508e-21
-4.44345e-21
-5e-05
-1.46962e-18
-5e-05
3.17258e-19
-5e-05
-8.27216e-20
-5e-05
1.22873e-20
-5e-05
-5.65141e-21
-5e-05
3.5436e-21
-5e-05
1.95106e-21
-5e-05
-3.72757e-21
-5e-05
-9.35687e-21
-5e-05
-4.94796e-21
-5e-05
-1.76229e-21
-5e-05
-5.35706e-22
-5e-05
4.37708e-21
-5e-05
6.47185e-21
-5e-05
8.59067e-22
-5e-05
-2.13887e-21
-5e-05
7.77931e-22
-5e-05
1.74383e-21
-5e-05
-5.04965e-21
-5.09877e-21
-5e-05
2.45277e-18
-5e-05
-5.4694e-19
-5e-05
1.20036e-19
-5e-05
-3.37966e-20
-5e-05
1.22885e-21
-5e-05
-5.49281e-21
-5e-05
-5.70444e-21
-5e-05
-6.17161e-21
-5e-05
-7.04734e-21
-5e-05
-6.34826e-21
-5e-05
-4.16075e-21
-5e-05
-1.97357e-21
-5e-05
3.81323e-21
-5e-05
6.26916e-21
-5e-05
2.52844e-21
-5e-05
2.15722e-22
-5e-05
2.35072e-21
-5e-05
-8.67033e-22
-5e-05
-2.90182e-21
-1.55289e-21
-5e-05
-2.08727e-18
-5e-05
4.4259e-19
-5e-05
-1.04476e-19
-5e-05
1.88876e-20
-5e-05
-7.83004e-21
-5e-05
-4.2438e-21
-5e-05
-6.57775e-21
-5e-05
-5.0088e-21
-5e-05
-3.95206e-21
-5e-05
-5.27552e-21
-5e-05
-3.53365e-21
-5e-05
2.18327e-22
-5e-05
-2.3103e-22
-5e-05
-2.68206e-22
-5e-05
3.45783e-22
-5e-05
1.55984e-21
-5e-05
1.27481e-21
-5e-05
-1.08394e-21
-5e-05
4.47414e-22
2.18704e-21
-5e-05
6.00268e-19
-5e-05
-1.35662e-19
-5e-05
3.34915e-20
-5e-05
-7.95381e-21
-5e-05
2.96801e-22
-5e-05
-4.61483e-21
-5e-05
-1.94442e-21
-5e-05
1.17677e-21
-5e-05
3.11875e-21
-5e-05
2.9266e-23
-5e-05
-8.35781e-22
-5e-05
-5.99063e-22
-5e-05
-1.50708e-21
-5e-05
-9.70313e-23
-5e-05
1.92095e-21
-5e-05
3.44634e-22
-5e-05
-2.4337e-21
-5e-05
-7.29324e-22
-5e-05
2.48216e-21
4.53056e-21
-5e-05
2.49049e-18
-5e-05
-5.49359e-19
-5e-05
1.27726e-19
-5e-05
-2.60605e-20
-5e-05
5.53932e-21
-5e-05
-6.93596e-21
-5e-05
-4.43114e-21
-5e-05
9.57128e-22
-5e-05
4.72004e-21
-5e-05
4.51241e-21
-5e-05
3.1764e-21
-5e-05
-2.6243e-22
-5e-05
-1.42262e-21
-5e-05
-1.08988e-21
-5e-05
1.49698e-21
-5e-05
-2.24708e-22
-5e-05
-2.48099e-21
-5e-05
-8.62711e-22
-5e-05
2.20719e-21
4.82045e-21
-5e-05
-3.45206e-18
-5e-05
7.40351e-19
-5e-05
-1.80715e-19
-5e-05
4.3616e-20
-5e-05
-3.12353e-21
-5e-05
4.35861e-21
-5e-05
-1.44992e-21
-5e-05
-1.0903e-21
-5e-05
-9.73093e-22
-5e-05
1.63546e-22
-5e-05
1.30112e-22
-5e-05
-2.16803e-21
-5e-05
-7.26793e-21
-5e-05
-6.27886e-21
-5e-05
-3.27844e-21
-5e-05
-8.62239e-23
-5e-05
-1.35973e-21
-5e-05
-2.99425e-21
-5e-05
2.29768e-22
4.15878e-21
-5e-05
1.66194e-18
-5e-05
-3.82157e-19
-5e-05
8.29531e-20
-5e-05
-1.78856e-20
-5e-05
8.06777e-21
-5e-05
4.20389e-21
-5e-05
2.59425e-21
-5e-05
3.34768e-22
-5e-05
1.47316e-21
-5e-05
-4.6009e-22
-5e-05
-3.07449e-21
-5e-05
-6.25243e-21
-5e-05
-9.0845e-21
-5e-05
-4.5295e-21
-5e-05
-1.27397e-21
-5e-05
4.88068e-22
-5e-05
1.14969e-21
-5e-05
3.41382e-23
-5e-05
-2.73332e-22
1.74917e-21
-5e-05
7.609e-19
-5e-05
-1.65535e-19
-5e-05
4.08896e-20
-5e-05
-9.32253e-21
-5e-05
2.01952e-21
-5e-05
4.88232e-21
-5e-05
5.29534e-21
-5e-05
2.10565e-21
-5e-05
2.33465e-21
-5e-05
6.16818e-22
-5e-05
-3.02376e-21
-5e-05
-6.05596e-21
-5e-05
-3.65386e-21
-5e-05
-8.54702e-22
-5e-05
2.01216e-21
-5e-05
-1.1927e-21
-5e-05
5.21174e-22
-5e-05
1.20951e-21
-5e-05
-3.57867e-22
-6.69762e-22
-5e-05
-1.92689e-18
-5e-05
4.36952e-19
-5e-05
-1.01114e-19
-5e-05
2.27168e-20
-5e-05
-5.00601e-21
-5e-05
6.09989e-21
-5e-05
8.6247e-21
-5e-05
3.07883e-21
-5e-05
-5.78226e-21
-5e-05
-4.99512e-21
-5e-05
-3.55497e-21
-5e-05
-7.69998e-22
-5e-05
2.10398e-21
-5e-05
-5.48518e-22
-5e-05
1.30285e-21
-5e-05
1.77968e-21
-5e-05
7.67308e-23
-5e-05
-1.01744e-21
-5e-05
-1.27516e-22
9.15501e-22
-5e-05
2.49521e-18
-5e-05
-5.58813e-19
-5e-05
1.24395e-19
-5e-05
-3.15033e-20
-5e-05
3.36232e-21
-5e-05
-4.09965e-21
-5e-05
2.02277e-21
-5e-05
3.00673e-21
-5e-05
-2.32092e-21
-5e-05
-2.89077e-21
-5e-05
-2.87536e-22
-5e-05
3.84022e-21
-5e-05
6.27255e-21
-5e-05
3.4486e-22
-5e-05
-3.16525e-21
-5e-05
-1.26266e-21
-5e-05
-1.77168e-21
-5e-05
-2.92881e-22
-5e-05
1.32627e-21
1.09491e-21
-5e-05
-1.94191e-18
-5e-05
4.07936e-19
-5e-05
-9.93226e-20
-5e-05
2.24032e-20
-5e-05
-2.20434e-21
-5e-05
6.95621e-22
-5e-05
-3.95082e-21
-5e-05
-7.13756e-22
-5e-05
3.28147e-21
-5e-05
3.26758e-21
-5e-05
1.71107e-21
-5e-05
-1.81062e-22
-5e-05
-7.94381e-22
-5e-05
-1.68803e-21
-5e-05
-6.05071e-21
-5e-05
-6.88419e-21
-5e-05
-4.3188e-21
-5e-05
4.51375e-22
-5e-05
1.76452e-21
-4.17921e-22
-5e-05
4.63874e-19
-5e-05
-9.81514e-20
-5e-05
2.17868e-20
-5e-05
-2.76041e-21
-5e-05
6.28407e-21
-5e-05
1.00463e-20
-5e-05
7.16392e-21
-5e-05
3.07552e-21
-5e-05
6.60923e-22
-5e-05
6.13057e-22
-5e-05
5.86751e-23
-5e-05
-1.8585e-21
-5e-05
-6.48939e-21
-5e-05
-3.22216e-21
-5e-05
-1.24581e-21
-5e-05
-1.81229e-21
-5e-05
-5.18297e-21
-5e-05
-4.97766e-21
-5e-05
-2.50339e-22
4.80143e-22
-5e-05
1.54308e-18
-5e-05
-3.43577e-19
-5e-05
7.59769e-20
-5e-05
-2.17868e-20
-5e-05
2.20639e-21
-5e-05
5.29311e-21
-5e-05
9.61485e-21
-5e-05
4.20159e-21
-5e-05
-8.78223e-22
-5e-05
-2.45867e-21
-5e-05
-1.80066e-21
-5e-05
-1.169e-21
-5e-05
-2.8599e-21
-5e-05
1.0099e-21
-5e-05
3.22536e-21
-5e-05
4.33663e-22
-5e-05
-6.4152e-21
-5e-05
-9.66566e-21
-5e-05
-3.86073e-21
-2.58839e-22
-5e-05
-2.72726e-18
-5e-05
5.72245e-19
-5e-05
-1.3975e-19
-5e-05
2.45449e-20
-5e-05
-1.05879e-20
-5e-05
-6.08917e-21
-5e-05
-1.73725e-21
-5e-05
-3.67388e-21
-5e-05
-1.37341e-21
-5e-05
-7.53525e-23
-5e-05
-2.08748e-22
-5e-05
1.65238e-22
-5e-05
2.72961e-21
-5e-05
4.37827e-21
-5e-05
1.05226e-23
-5e-05
-4.20723e-21
-5e-05
-4.4084e-21
-5e-05
-4.44493e-21
-5e-05
-3.79539e-21
-1.30303e-21
-5e-05
1.95342e-18
-5e-05
-4.28101e-19
-5e-05
9.89236e-20
-5e-05
-2.94445e-20
-5e-05
-3.38112e-21
-5e-05
-1.21687e-20
-5e-05
-5.37174e-21
-5e-05
-3.71089e-21
-5e-05
-2.01398e-21
-5e-05
-9.9476e-22
-5e-05
-3.82681e-22
-5e-05
-8.03331e-22
-5e-05
1.32038e-21
-5e-05
-7.57807e-22
-5e-05
-5.46571e-21
-5e-05
-5.86486e-21
-5e-05
-2.92494e-22
-5e-05
2.66246e-21
-5e-05
8.44805e-22
3.80987e-22
-5e-05
1.90773e-18
-5e-05
-3.96559e-19
-5e-05
9.80744e-20
-5e-05
-2.79807e-20
-5e-05
-6.17761e-21
-5e-05
-8.01075e-21
-5e-05
-8.04814e-21
-5e-05
-3.59889e-21
-5e-05
-4.17172e-21
-5e-05
-3.41828e-21
-5e-05
-4.0507e-21
-5e-05
-6.39904e-21
-5e-05
-6.6188e-21
-5e-05
-8.18908e-21
-5e-05
-8.07049e-21
-5e-05
-3.53517e-21
-5e-05
1.99971e-21
-5e-05
3.93236e-21
-5e-05
1.69774e-21
5.94149e-22
-5e-05
-3.27026e-18
-5e-05
7.04372e-19
-5e-05
-1.62381e-19
-5e-05
3.0231e-20
-5e-05
-1.50361e-20
-5e-05
-1.92639e-21
-5e-05
-6.37648e-21
-5e-05
-2.27548e-21
-5e-05
-2.2757e-21
-5e-05
-1.67551e-21
-5e-05
-4.00668e-21
-5e-05
-4.13963e-21
-5e-05
-4.63602e-21
-5e-05
-7.02148e-21
-5e-05
-8.14844e-21
-5e-05
-3.01684e-21
-5e-05
6.35807e-22
-5e-05
6.5778e-22
-5e-05
-1.68321e-21
-1.2698e-21
-5e-05
-5e-05
-5e-05
-5e-05
-5e-05
-5e-05
-5e-05
-5e-05
-5e-05
-5e-05
-5e-05
-5e-05
-5e-05
-5e-05
-5e-05
-5e-05
-5e-05
-5e-05
-5e-05
)
;

boundaryField
{
    movingWall
    {
        type            calculated;
        value           uniform -0;
    }
    fixedWalls
    {
        type            calculated;
        value           nonuniform List<scalar> 
60
(
5e-05
5e-05
5e-05
5e-05
5e-05
5e-05
5e-05
5e-05
5e-05
5e-05
5e-05
5e-05
5e-05
5e-05
5e-05
5e-05
5e-05
5e-05
5e-05
5e-05
-5e-05
-5e-05
-5e-05
-5e-05
-5e-05
-5e-05
-5e-05
-5e-05
-5e-05
-5e-05
-5e-05
-5e-05
-5e-05
-5e-05
-5e-05
-5e-05
-5e-05
-5e-05
-5e-05
-5e-05
0
0
0
0
0
0
0
0
0
0
0
0
0
0
0
0
0
0
0
0
)
;
    }
    frontAndBack
    {
        type            empty;
        value           nonuniform List<scalar> 0();
    }
}


// ************************************************************************* //
