/*--------------------------------*- C++ -*----------------------------------*\
| =========                 |                                                 |
| \\      /  F ield         | OpenFOAM: The Open Source CFD Toolbox           |
|  \\    /   O peration     | Version:  2312                                  |
|   \\  /    A nd           | Website:  www.openfoam.com                      |
|    \\/     M anipulation  |                                                 |
\*---------------------------------------------------------------------------*/
FoamFile
{
    version     2.0;
    format      ascii;
    arch        "LSB;label=32;scalar=64";
    class       volVectorField;
    location    "9.25";
    object      gradPhi;
}
// * * * * * * * * * * * * * * * * * * * * * * * * * * * * * * * * * * * * * //

dimensions      [0 2 -1 0 0 0 0];

internalField   nonuniform List<vector> 
400
(
(-0.02 1.10839e-16 0)
(1.52201e-16 -1.52678e-16 0)
(-4.30134e-17 4.35486e-17 0)
(8.27181e-18 -8.09895e-18 0)
(-1.65436e-18 5.83583e-19 0)
(1.65436e-18 -8.66133e-19 0)
(0 -6.53292e-19 0)
(0 -1.24544e-19 0)
(0 8.66337e-19 0)
(-1.65436e-18 4.91323e-19 0)
(1.65436e-18 -3.94285e-19 0)
(0 -1.37418e-19 0)
(-1.65436e-18 1.17667e-18 0)
(0 6.73726e-19 0)
(0 2.4988e-19 0)
(0 2.44948e-19 0)
(0 1.0464e-19 0)
(0 -5.86315e-19 0)
(0 -7.50769e-20 0)
(0 4.43844e-19 0)
(-0.02 -1.78523e-16 0)
(-2.44845e-16 2.45517e-16 0)
(7.11375e-17 -7.15371e-17 0)
(-1.15805e-17 1.09899e-17 0)
(3.30872e-18 -2.81443e-18 0)
(1.65436e-18 5.54276e-19 0)
(0 -6.74545e-20 0)
(0 -1.4063e-18 0)
(1.65436e-18 -2.86098e-18 0)
(1.65436e-18 -1.19788e-18 0)
(0 5.47098e-19 0)
(-3.30872e-18 1.61081e-18 0)
(0 -4.80523e-19 0)
(3.30872e-18 -1.81234e-18 0)
(1.65436e-18 -1.65595e-18 0)
(-1.65436e-18 2.66311e-19 0)
(0 1.19903e-18 0)
(-3.30872e-18 3.01916e-18 0)
(0 -1.95317e-19 0)
(1.65436e-18 -1.67348e-18 0)
(-0.02 1.44215e-17 0)
(2.81241e-17 -2.8297e-17 0)
(-1.15805e-17 1.08438e-17 0)
(0 2.34135e-20 0)
(0 1.3501e-18 0)
(-1.65436e-18 1.01521e-18 0)
(-1.65436e-18 2.00874e-18 0)
(-1.65436e-18 1.99388e-18 0)
(0 4.67031e-19 0)
(0 -2.96603e-19 0)
(0 -7.65882e-19 0)
(1.65436e-18 -2.02771e-18 0)
(0 1.40226e-19 0)
(-1.65436e-18 3.00826e-18 0)
(-1.65436e-18 2.42908e-18 0)
(1.65436e-18 -1.02316e-18 0)
(1.65436e-18 -1.46389e-18 0)
(1.65436e-18 -2.42844e-18 0)
(0 -1.03761e-18 0)
(0 -3.01387e-19 0)
(-0.02 1.28959e-16 0)
(1.5551e-16 -1.55475e-16 0)
(-3.97047e-17 4.09148e-17 0)
(8.27181e-18 -9.21123e-18 0)
(0 6.35352e-19 0)
(0 -1.52515e-18 0)
(3.30872e-18 -3.34106e-18 0)
(3.30872e-18 -2.96322e-18 0)
(0 5.81996e-20 0)
(0 -3.00599e-19 0)
(0 -3.33168e-19 0)
(0 -3.96267e-19 0)
(0 -2.80991e-19 0)
(0 -1.01129e-19 0)
(0 -3.45628e-19 0)
(0 3.8007e-19 0)
(0 8.24778e-19 0)
(-1.65436e-18 4.42687e-20 0)
(0 8.70078e-19 0)
(-1.65436e-18 1.38228e-18 0)
(-0.02 -1.30322e-16 0)
(-1.65436e-16 1.64762e-16 0)
(4.46678e-17 -4.44059e-17 0)
(-9.92617e-18 9.59422e-18 0)
(1.65436e-18 -1.06581e-18 0)
(0 -1.3304e-19 0)
(-1.65436e-18 1.27956e-18 0)
(-1.65436e-18 2.11761e-18 0)
(-1.65436e-18 2.19161e-19 0)
(1.65436e-18 4.29985e-20 0)
(0 3.39907e-19 0)
(-1.65436e-18 1.62942e-18 0)
(0 3.41468e-20 0)
(1.65436e-18 -2.36219e-18 0)
(1.65436e-18 -1.52568e-18 0)
(-1.65436e-18 3.84382e-19 0)
(1.65436e-18 -1.52404e-19 0)
(0 -3.43313e-19 0)
(-1.65436e-18 5.29626e-19 0)
(0 6.34935e-19 0)
(-0.02 8.78515e-17 0)
(1.14151e-16 -1.13048e-16 0)
(-2.81241e-17 2.7552e-17 0)
(6.61744e-18 -5.73895e-18 0)
(-1.65436e-18 1.44994e-18 0)
(0 1.00047e-20 0)
(0 4.65847e-19 0)
(-1.65436e-18 7.92849e-19 0)
(-1.65436e-18 2.78586e-18 0)
(-3.30872e-18 1.72874e-18 0)
(0 2.20662e-19 0)
(1.65436e-18 -9.44527e-19 0)
(1.65436e-18 -1.72152e-18 0)
(0 4.53886e-19 0)
(-1.65436e-18 1.90014e-18 0)
(0 3.20329e-19 0)
(1.65436e-18 -1.44327e-18 0)
(0 -4.65579e-19 0)
(0 2.67776e-19 0)
(0 5.3953e-19 0)
(-0.02 7.58968e-18 0)
(2.81241e-17 -2.80116e-17 0)
(-1.8198e-17 1.86137e-17 0)
(-1.65436e-18 5.69809e-21 0)
(0 5.89117e-19 0)
(0 -6.88952e-19 0)
(1.65436e-18 -1.25742e-18 0)
(0 -8.58961e-19 0)
(0 -1.22942e-18 0)
(0 2.20094e-19 0)
(0 1.59201e-18 0)
(0 -1.50771e-20 0)
(-1.65436e-18 1.21226e-18 0)
(0 5.08244e-20 0)
(0 -6.86848e-19 0)
(1.65436e-18 -8.69828e-19 0)
(0 6.61898e-19 0)
(-1.65436e-18 1.59096e-18 0)
(0 3.45063e-19 0)
(0 1.4802e-19 0)
(-0.02 -1.05358e-16 0)
(-1.65436e-16 1.65365e-16 0)
(6.28657e-17 -6.15302e-17 0)
(-8.27181e-18 8.12479e-18 0)
(1.65436e-18 -6.66146e-19 0)
(-3.30872e-18 2.78322e-18 0)
(-3.30872e-18 1.66365e-18 0)
(0 5.79359e-19 0)
(0 -3.76909e-19 0)
(0 -7.01768e-19 0)
(1.65436e-18 -1.53251e-18 0)
(0 4.57343e-19 0)
(1.65436e-18 -9.64384e-19 0)
(1.65436e-18 -1.08129e-18 0)
(1.65436e-18 -1.27758e-18 0)
(0 1.61597e-19 0)
(0 -7.8284e-20 0)
(1.65436e-18 -2.6244e-18 0)
(1.65436e-18 -9.03319e-19 0)
(0 -6.22116e-19 0)
(-0.02 1.01968e-16 0)
(1.45584e-16 -1.4773e-16 0)
(-5.12852e-17 5.15359e-17 0)
(8.27181e-18 -7.62861e-18 0)
(-1.65436e-18 1.2994e-18 0)
(1.65436e-18 -4.04405e-19 0)
(-1.65436e-18 5.97997e-19 0)
(0 7.58928e-20 0)
(0 5.27417e-19 0)
(0 1.92729e-19 0)
(1.65436e-18 -3.82237e-19 0)
(1.65436e-18 -1.9995e-18 0)
(1.65436e-18 -2.08834e-18 0)
(0 2.38425e-19 0)
(-1.65436e-18 1.88631e-19 0)
(0 2.14583e-19 0)
(0 6.91663e-19 0)
(-3.30872e-18 2.89771e-18 0)
(0 1.11632e-19 0)
(0 3.67274e-19 0)
(-0.02 -2.15387e-17 0)
(-2.64698e-17 2.54032e-17 0)
(8.27181e-18 -6.89816e-18 0)
(-1.65436e-18 1.72305e-19 0)
(1.65436e-18 -1.29075e-18 0)
(0 5.41902e-19 0)
(-1.65436e-18 -2.67087e-19 0)
(0 -2.54771e-19 0)
(0 1.1441e-19 0)
(0 -9.4142e-20 0)
(0 8.31274e-19 0)
(0 1.06546e-18 0)
(-3.30872e-18 2.90503e-18 0)
(0 4.9522e-19 0)
(-1.65436e-18 2.02922e-18 0)
(0 -3.4803e-19 0)
(0 -6.30265e-19 0)
(1.65436e-18 -1.51262e-18 0)
(0 2.97678e-19 0)
(1.65436e-18 -1.82829e-18 0)
(-0.02 -5.04248e-17 0)
(-7.11375e-17 7.17978e-17 0)
(2.64698e-17 -2.77458e-17 0)
(-3.30872e-18 4.47508e-18 0)
(0 -5.77345e-19 0)
(0 -2.50461e-19 0)
(-3.30872e-18 2.51247e-18 0)
(-1.65436e-18 1.1616e-18 0)
(3.30872e-18 -2.16951e-18 0)
(1.65436e-18 -1.10376e-18 0)
(0 -1.46972e-18 0)
(0 1.37004e-19 0)
(0 -1.94349e-19 0)
(0 4.02726e-19 0)
(1.65436e-18 -1.40813e-18 0)
(-1.65436e-18 9.67295e-19 0)
(-1.65436e-18 9.33871e-19 0)
(0 5.37282e-19 0)
(1.65436e-18 -6.18708e-19 0)
(-1.65436e-18 1.31881e-18 0)
(-0.02 6.97659e-17 0)
(1.04225e-16 -1.02216e-16 0)
(-4.30134e-17 4.2397e-17 0)
(6.61744e-18 -5.96138e-18 0)
(-1.65436e-18 4.26044e-19 0)
(3.30872e-18 -2.38353e-18 0)
(4.96308e-18 -3.56909e-18 0)
(0 -3.18323e-19 0)
(-1.65436e-18 1.39123e-18 0)
(0 -1.79637e-19 0)
(0 7.94692e-19 0)
(-1.65436e-18 1.5413e-18 0)
(-3.30872e-18 2.99442e-18 0)
(-1.65436e-18 4.86526e-19 0)
(0 -3.82843e-19 0)
(1.65436e-18 -8.72386e-19 0)
(1.65436e-18 -1.37789e-18 0)
(0 -8.14988e-19 0)
(0 5.09494e-19 0)
(0 4.56823e-19 0)
(-0.02 -4.32874e-17 0)
(-8.27181e-17 8.3058e-17 0)
(4.30134e-17 -4.16151e-17 0)
(-6.61744e-18 4.88813e-18 0)
(0 2.54129e-19 0)
(-1.65436e-18 1.82164e-18 0)
(0 -1.57214e-19 0)
(1.65436e-18 -1.5974e-18 0)
(-1.65436e-18 1.16734e-18 0)
(0 2.70188e-18 0)
(-3.30872e-18 1.79987e-18 0)
(1.65436e-18 -9.42498e-19 0)
(3.30872e-18 -3.90279e-18 0)
(1.65436e-18 -1.01651e-18 0)
(0 -1.10913e-18 0)
(3.30872e-18 -2.03014e-18 0)
(0 -7.12374e-20 0)
(-1.65436e-18 1.63142e-18 0)
(0 7.50427e-19 0)
(1.65436e-18 -1.97716e-18 0)
(-0.02 -2.51137e-18 0)
(1.98523e-17 -2.07449e-17 0)
(-2.15067e-17 2.12092e-17 0)
(1.65436e-18 -7.51562e-19 0)
(-1.65436e-18 1.43372e-18 0)
(0 2.05737e-18 0)
(-3.30872e-18 2.48775e-18 0)
(-1.65436e-18 1.57805e-18 0)
(1.65436e-18 -1.5131e-18 0)
(3.30872e-18 -1.84864e-18 0)
(0 -1.57138e-18 0)
(1.65436e-18 -3.58601e-19 0)
(-1.65436e-18 -2.08203e-19 0)
(0 -1.28889e-19 0)
(0 1.54999e-18 0)
(-3.30872e-18 2.50108e-18 0)
(0 -3.57144e-19 0)
(1.65436e-18 -1.97181e-18 0)
(1.65436e-18 -6.09765e-19 0)
(-1.65436e-18 1.96306e-18 0)
(-0.02 6.34872e-17 0)
(6.94832e-17 -7.02156e-17 0)
(-1.32349e-17 1.33175e-17 0)
(4.96308e-18 -5.11508e-18 0)
(1.65436e-18 -2.59224e-18 0)
(3.30872e-18 -1.88353e-18 0)
(0 3.8822e-19 0)
(-1.65436e-18 8.05511e-19 0)
(-1.65436e-18 1.27273e-18 0)
(0 -9.25786e-20 0)
(0 -4.30282e-19 0)
(0 2.29441e-19 0)
(0 1.35412e-18 0)
(-1.65436e-18 9.43491e-19 0)
(0 5.30211e-19 0)
(0 -4.5278e-19 0)
(0 5.09859e-20 0)
(0 -1.6236e-18 0)
(1.65436e-18 -1.52796e-18 0)
(0 -1.2592e-18 0)
(-0.02 -1.10513e-16 0)
(-1.53856e-16 1.53341e-16 0)
(4.46678e-17 -4.48424e-17 0)
(-8.27181e-18 8.26416e-18 0)
(0 5.22576e-19 0)
(1.65436e-18 -1.86429e-18 0)
(3.30872e-18 -2.61249e-18 0)
(3.30872e-18 -3.21257e-18 0)
(0 -1.93962e-18 0)
(0 5.29262e-19 0)
(0 1.38691e-18 0)
(0 1.1422e-19 0)
(1.65436e-18 -2.8704e-19 0)
(-1.65436e-18 5.89203e-19 0)
(0 2.39195e-19 0)
(0 -3.70897e-20 0)
(0 1.59211e-19 0)
(0 2.12752e-18 0)
(-1.65436e-18 5.70706e-19 0)
(0 8.84211e-20 0)
(-0.02 1.27619e-16 0)
(1.65436e-16 -1.65532e-16 0)
(-5.12852e-17 4.89162e-17 0)
(1.15805e-17 -9.52875e-18 0)
(0 -9.88394e-19 0)
(3.30872e-18 -1.62817e-18 0)
(0 -1.58726e-19 0)
(-1.65436e-18 1.10448e-18 0)
(-3.30872e-18 1.33798e-18 0)
(1.65436e-18 -3.85144e-19 0)
(1.65436e-18 -1.16085e-18 0)
(0 8.06022e-20 0)
(-1.65436e-18 1.75252e-18 0)
(0 -4.20793e-19 0)
(1.65436e-18 -2.37857e-18 0)
(1.65436e-18 -1.57909e-18 0)
(0 8.60686e-19 0)
(-1.65436e-18 7.71073e-19 0)
(0 6.77568e-19 0)
(0 4.0202e-19 0)
(-0.02 -9.29169e-18 0)
(-9.92617e-18 1.12198e-17 0)
(0 -5.76929e-19 0)
(-1.65436e-18 8.53116e-19 0)
(0 7.79927e-20 0)
(-3.30872e-18 1.93806e-18 0)
(1.65436e-18 -1.39555e-18 0)
(1.65436e-18 -1.13843e-19 0)
(0 -1.07112e-18 0)
(1.65436e-18 -6.40652e-20 0)
(-1.65436e-18 4.40668e-19 0)
(1.65436e-18 -1.46276e-18 0)
(3.30872e-18 -3.91073e-18 0)
(3.30872e-18 -3.22208e-18 0)
(0 -1.00077e-19 0)
(-1.65436e-18 9.54348e-19 0)
(0 5.23077e-19 0)
(-1.65436e-18 1.02796e-18 0)
(-1.65436e-18 7.30689e-19 0)
(0 6.49476e-19 0)
(-0.02 -1.4112e-16 0)
(-1.8198e-16 1.81331e-16 0)
(5.29396e-17 -5.23498e-17 0)
(-9.92617e-18 9.28135e-18 0)
(1.65436e-18 -1.3809e-18 0)
(0 1.98282e-19 0)
(-1.65436e-18 7.15618e-19 0)
(0 3.22672e-19 0)
(0 5.7595e-19 0)
(0 -3.3772e-19 0)
(0 -1.55251e-18 0)
(0 5.79922e-19 0)
(-1.65436e-18 2.28558e-18 0)
(-3.30872e-18 2.15466e-18 0)
(0 8.84071e-20 0)
(0 2.90764e-19 0)
(-1.65436e-18 -3.3947e-19 0)
(1.65436e-18 -1.26458e-18 0)
(1.65436e-18 -1.08141e-18 0)
(1.65436e-18 -1.78813e-18 0)
(-0.02 8.03897e-17 0)
(1.19114e-16 -1.17846e-16 0)
(-3.30872e-17 3.26527e-17 0)
(4.96308e-18 -4.63767e-18 0)
(-1.65436e-18 2.75407e-18 0)
(-1.65436e-18 7.07688e-19 0)
(-1.65436e-18 1.35953e-18 0)
(-1.65436e-18 3.18037e-19 0)
(1.65436e-18 3.77015e-19 0)
(-1.65436e-18 6.95495e-19 0)
(0 1.63974e-18 0)
(-1.65436e-18 8.38832e-19 0)
(0 1.83905e-19 0)
(0 6.48271e-19 0)
(0 1.66567e-18 0)
(0 5.26803e-19 0)
(0 -9.59861e-20 0)
(0 -1.17048e-20 0)
(-1.65436e-18 3.88434e-19 0)
(0 1.05525e-18 0)
)
;

boundaryField
{
    movingWall
    {
        type            extrapolatedCalculated;
        value           nonuniform List<vector> 
20
(
(-0.02 8.03897e-17 0)
(1.19114e-16 -1.17846e-16 0)
(-3.30872e-17 3.26527e-17 0)
(4.96308e-18 -4.63767e-18 0)
(-1.65436e-18 2.75407e-18 0)
(-1.65436e-18 7.07688e-19 0)
(-1.65436e-18 1.35953e-18 0)
(-1.65436e-18 3.18037e-19 0)
(1.65436e-18 3.77015e-19 0)
(-1.65436e-18 6.95495e-19 0)
(0 1.63974e-18 0)
(-1.65436e-18 8.38832e-19 0)
(0 1.83905e-19 0)
(0 6.48271e-19 0)
(0 1.66567e-18 0)
(0 5.26803e-19 0)
(0 -9.59861e-20 0)
(0 -1.17048e-20 0)
(-1.65436e-18 3.88434e-19 0)
(0 1.05525e-18 0)
)
;
    }
    fixedWalls
    {
        type            extrapolatedCalculated;
        value           nonuniform List<vector> 
60
(
(-0.02 1.10839e-16 0)
(-0.02 -1.78523e-16 0)
(-0.02 1.44215e-17 0)
(-0.02 1.28959e-16 0)
(-0.02 -1.30322e-16 0)
(-0.02 8.78515e-17 0)
(-0.02 7.58968e-18 0)
(-0.02 -1.05358e-16 0)
(-0.02 1.01968e-16 0)
(-0.02 -2.15387e-17 0)
(-0.02 -5.04248e-17 0)
(-0.02 6.97659e-17 0)
(-0.02 -4.32874e-17 0)
(-0.02 -2.51137e-18 0)
(-0.02 6.34872e-17 0)
(-0.02 -1.10513e-16 0)
(-0.02 1.27619e-16 0)
(-0.02 -9.29169e-18 0)
(-0.02 -1.4112e-16 0)
(-0.02 8.03897e-17 0)
(0 4.43844e-19 0)
(1.65436e-18 -1.67348e-18 0)
(0 -3.01387e-19 0)
(-1.65436e-18 1.38228e-18 0)
(0 6.34935e-19 0)
(0 5.3953e-19 0)
(0 1.4802e-19 0)
(0 -6.22116e-19 0)
(0 3.67274e-19 0)
(1.65436e-18 -1.82829e-18 0)
(-1.65436e-18 1.31881e-18 0)
(0 4.56823e-19 0)
(1.65436e-18 -1.97716e-18 0)
(-1.65436e-18 1.96306e-18 0)
(0 -1.2592e-18 0)
(0 8.84211e-20 0)
(0 4.0202e-19 0)
(0 6.49476e-19 0)
(1.65436e-18 -1.78813e-18 0)
(0 1.05525e-18 0)
(-0.02 1.10839e-16 0)
(1.52201e-16 -1.52678e-16 0)
(-4.30134e-17 4.35486e-17 0)
(8.27181e-18 -8.09895e-18 0)
(-1.65436e-18 5.83583e-19 0)
(1.65436e-18 -8.66133e-19 0)
(0 -6.53292e-19 0)
(0 -1.24544e-19 0)
(0 8.66337e-19 0)
(-1.65436e-18 4.91323e-19 0)
(1.65436e-18 -3.94285e-19 0)
(0 -1.37418e-19 0)
(-1.65436e-18 1.17667e-18 0)
(0 6.73726e-19 0)
(0 2.4988e-19 0)
(0 2.44948e-19 0)
(0 1.0464e-19 0)
(0 -5.86315e-19 0)
(0 -7.50769e-20 0)
(0 4.43844e-19 0)
)
;
    }
    frontAndBack
    {
        type            empty;
    }
}


// ************************************************************************* //
