/*--------------------------------*- C++ -*----------------------------------*\
| =========                 |                                                 |
| \\      /  F ield         | OpenFOAM: The Open Source CFD Toolbox           |
|  \\    /   O peration     | Version:  2312                                  |
|   \\  /    A nd           | Website:  www.openfoam.com                      |
|    \\/     M anipulation  |                                                 |
\*---------------------------------------------------------------------------*/
FoamFile
{
    version     2.0;
    format      ascii;
    arch        "LSB;label=32;scalar=64";
    class       volVectorField;
    location    "9.25";
    object      LambVectorField;
}
// * * * * * * * * * * * * * * * * * * * * * * * * * * * * * * * * * * * * * //

dimensions      [0 1 -2 0 0 0 0];

internalField   nonuniform List<vector> 
400
(
(-1.51736e-24 -1.01292e-11 -1.01292e-11)
(-4.45395e-25 1.36974e-11 -0)
(-2.34692e-26 -3.05724e-12 -3.05724e-12)
(-1.13044e-27 6.75599e-13 -0)
(-5.29621e-29 -1.39925e-13 -1.39925e-13)
(-8.10982e-32 2.75331e-14 -0)
(-1.01066e-30 -9.79578e-15 -9.79578e-15)
(2.86104e-30 3.01123e-14 0)
(4.95774e-30 6.78208e-14 6.78208e-14)
(-1.78236e-30 4.33719e-14 -0)
(-1.7567e-30 1.9613e-14 1.9613e-14)
(1.05093e-30 3.10689e-14 0)
(3.71154e-30 2.61665e-14 2.61665e-14)
(7.04082e-31 1.62939e-14 0)
(-1.266e-31 6.0012e-15 6.0012e-15)
(-8.95005e-31 5.32722e-14 -0)
(-3.43839e-31 2.93447e-14 2.93447e-14)
(-9.7955e-31 2.49904e-14 -0)
(-5.80476e-32 -6.15632e-15 -6.15632e-15)
(7.11139e-32 3.17952e-15 0)
(-1.07427e-26 -4.874e-13 -4.874e-13)
(-7.97426e-27 1.80111e-12 -0)
(-3.93492e-28 -3.75401e-13 -3.75401e-13)
(-5.89323e-29 1.46464e-13 -0)
(1.13426e-29 -7.80117e-14 -7.80117e-14)
(-2.23468e-31 1.35969e-15 -0)
(1.38062e-29 -8.6835e-14 -8.6835e-14)
(1.04193e-29 -9.54556e-14 -0)
(2.13474e-30 -1.21368e-13 -1.21368e-13)
(-5.64232e-31 -2.7768e-14 0)
(9.39689e-31 -8.57387e-14 -8.57387e-14)
(-4.04611e-30 -6.26768e-14 0)
(-1.10402e-30 -1.49784e-14 -1.49784e-14)
(-6.51216e-31 1.1483e-14 -0)
(2.81179e-30 -6.83751e-14 -6.83751e-14)
(-1.06352e-29 -1.25211e-13 0)
(-3.96073e-30 -3.12392e-14 -3.12392e-14)
(1.86083e-30 1.47358e-14 0)
(-3.54743e-31 1.72453e-14 1.72453e-14)
(3.08181e-31 -6.6744e-15 -0)
(-5.73175e-25 4.3704e-12 4.3704e-12)
(-3.13337e-25 -1.09454e-11 0)
(-1.71903e-26 2.53256e-12 2.53256e-12)
(-8.28062e-28 -5.89621e-13 0)
(-4.43592e-29 1.26954e-13 1.26954e-13)
(-1.26585e-29 -9.38622e-14 0)
(2.36743e-30 5.02556e-14 5.02556e-14)
(-1.04391e-29 1.08017e-13 -0)
(7.81056e-31 -3.55169e-15 -3.55169e-15)
(1.48263e-30 -2.42552e-14 -0)
(9.8195e-31 4.33705e-14 4.33705e-14)
(1.13514e-30 2.40139e-14 0)
(2.86877e-32 5.35691e-16 5.35691e-16)
(3.50816e-31 8.37008e-15 0)
(-1.867e-31 6.19275e-15 6.19275e-15)
(1.52998e-31 -7.64439e-15 -0)
(-3.12762e-30 -6.75572e-14 -6.75572e-14)
(1.69196e-30 1.49128e-14 0)
(-5.3069e-30 5.16071e-14 5.16071e-14)
(-4.82231e-31 3.66536e-15 -0)
(-2.16112e-25 -2.98644e-12 -2.98644e-12)
(-9.94154e-26 6.23803e-12 -0)
(-4.94378e-27 -1.42109e-12 -1.42109e-12)
(-3.06326e-28 3.3555e-13 -0)
(-4.65901e-30 -3.77687e-14 -3.77687e-14)
(6.35991e-32 9.24217e-15 0)
(1.83569e-31 5.9341e-15 5.9341e-15)
(-2.39399e-30 4.56349e-14 -0)
(-1.38539e-29 8.97484e-14 8.97484e-14)
(-6.57792e-30 4.8087e-14 -0)
(-1.89018e-30 2.02957e-14 2.02957e-14)
(-3.87373e-31 5.63876e-15 -0)
(-1.00598e-29 -8.2776e-14 -8.2776e-14)
(7.11784e-30 3.2807e-14 0)
(8.81671e-30 1.3667e-13 1.3667e-13)
(-7.62821e-30 1.16389e-13 -0)
(3.31462e-32 -2.18374e-15 -2.18374e-15)
(-1.55157e-30 3.55025e-14 -0)
(-2.97196e-30 2.99734e-14 2.99734e-14)
(1.24172e-30 -1.7154e-14 -0)
(-2.72663e-26 -1.05903e-12 -1.05903e-12)
(-1.37042e-26 2.30687e-12 -0)
(-5.8425e-28 -4.41744e-13 -4.41744e-13)
(-8.51097e-29 1.9389e-13 -0)
(-4.35464e-31 5.86862e-15 5.86862e-15)
(-2.87573e-29 1.26911e-13 -0)
(-2.72589e-29 1.05201e-13 1.05201e-13)
(2.55801e-30 -1.31582e-14 -0)
(4.4421e-30 -3.48317e-14 -3.48317e-14)
(6.98535e-30 -5.96334e-14 -0)
(2.77024e-30 -3.77944e-14 -3.77944e-14)
(1.21755e-30 -1.1885e-13 -0)
(-9.76767e-31 -3.15101e-14 -3.15101e-14)
(-9.35332e-31 -2.76679e-14 0)
(-2.13338e-30 -5.82465e-14 -5.82465e-14)
(-4.55906e-30 -6.14682e-14 0)
(7.11461e-31 6.51476e-15 6.51476e-15)
(-1.30747e-31 -1.44923e-14 0)
(4.6072e-31 -2.72299e-14 -2.72299e-14)
(-2.85218e-31 -2.77699e-14 0)
(-7.30696e-25 6.68907e-12 6.68907e-12)
(-2.33098e-25 -9.85857e-12 0)
(-1.23511e-26 2.24497e-12 2.24497e-12)
(-6.28605e-28 -5.26266e-13 0)
(-2.0711e-29 8.6657e-14 8.6657e-14)
(-1.33579e-30 -2.35001e-14 0)
(8.32661e-32 -2.08262e-14 -2.08262e-14)
(-1.57921e-32 2.65542e-15 -0)
(-1.09679e-30 3.58986e-14 3.58986e-14)
(-3.52023e-31 3.74961e-15 -0)
(7.67996e-31 -1.1286e-14 -1.1286e-14)
(9.75997e-31 5.14292e-14 0)
(-3.52767e-30 8.76663e-14 8.76663e-14)
(7.76867e-32 -1.74444e-15 -0)
(7.46733e-32 -3.27581e-15 -3.27581e-15)
(5.96662e-31 -5.06681e-14 -0)
(-3.39222e-30 5.82705e-14 5.82705e-14)
(4.87294e-31 -9.30312e-15 -0)
(-1.39488e-30 -4.00641e-14 -4.00641e-14)
(2.95777e-30 3.83077e-14 0)
(-9.9808e-25 -7.49039e-12 -7.49039e-12)
(-3.40682e-25 1.17191e-11 -0)
(-1.88533e-26 -2.75581e-12 -2.75581e-12)
(-8.32882e-28 5.50624e-13 -0)
(-4.549e-29 -1.81328e-13 -1.81328e-13)
(1.83382e-29 -7.59552e-14 -0)
(1.01715e-29 -1.37866e-13 -1.37866e-13)
(-8.39982e-30 -1.58433e-13 0)
(-1.74907e-29 -1.12624e-13 -1.12624e-13)
(-4.0057e-30 -4.21416e-14 0)
(-2.33721e-30 -6.75158e-14 -6.75158e-14)
(2.09307e-30 -4.87441e-14 -0)
(1.79737e-30 -8.96744e-14 -8.96744e-14)
(-3.7922e-30 -9.32828e-14 0)
(-5.25079e-30 -5.2701e-14 -5.2701e-14)
(3.54705e-31 1.38767e-14 0)
(2.1122e-30 -5.39746e-14 -5.39746e-14)
(-8.69445e-31 -3.74654e-14 0)
(-5.20952e-31 -8.0805e-15 -8.0805e-15)
(-1.06683e-30 -1.02569e-14 0)
(-2.2684e-26 6.74546e-13 6.74546e-13)
(-1.9557e-26 -2.75594e-12 0)
(-9.13069e-28 5.27088e-13 5.27088e-13)
(-8.00736e-29 -1.70299e-13 0)
(-3.07139e-30 1.0483e-13 1.0483e-13)
(-2.67028e-31 7.4168e-15 -0)
(2.20077e-31 -2.12703e-15 -2.12703e-15)
(1.00046e-30 -6.79067e-14 -0)
(-3.3558e-31 -1.00176e-14 -1.00176e-14)
(-2.81954e-30 -3.2999e-14 0)
(4.89929e-31 5.30003e-15 5.30003e-15)
(4.19487e-31 1.293e-14 0)
(-1.42927e-30 3.87741e-14 3.87741e-14)
(-2.30792e-30 2.73944e-14 -0)
(1.97573e-31 -4.96983e-15 -4.96983e-15)
(-1.94325e-30 5.62453e-14 -0)
(-3.39761e-30 5.65267e-14 5.65267e-14)
(4.84367e-31 -8.39239e-15 -0)
(-3.48977e-31 -1.46521e-14 -1.46521e-14)
(1.00017e-30 1.12624e-14 0)
(-7.90739e-25 7.57021e-12 7.57021e-12)
(-2.12455e-25 -9.43499e-12 0)
(-1.25698e-26 2.28696e-12 2.28696e-12)
(-5.84653e-28 -4.5875e-13 0)
(-1.53621e-29 1.6062e-13 1.6062e-13)
(1.98377e-29 9.4309e-14 0)
(6.01764e-30 1.32343e-13 1.32343e-13)
(-5.03711e-30 1.7442e-13 -0)
(-6.25135e-30 8.63174e-14 8.63174e-14)
(-1.081e-29 1.37006e-13 -0)
(-9.80922e-30 1.12447e-13 1.12447e-13)
(-1.49053e-29 1.25082e-13 -0)
(-2.87351e-29 1.13194e-13 1.13194e-13)
(-6.33625e-30 3.79628e-14 -0)
(1.80945e-30 -1.98007e-14 -1.98007e-14)
(-3.01989e-31 -9.71005e-15 0)
(2.08226e-31 3.64206e-14 3.64206e-14)
(-1.80824e-30 2.91395e-14 -0)
(2.04189e-31 -1.396e-14 -1.396e-14)
(4.87898e-31 6.29181e-15 0)
(-1.91882e-24 -1.12257e-11 -1.12257e-11)
(-5.84177e-25 1.54528e-11 -0)
(-3.1807e-26 -3.60852e-12 -3.60852e-12)
(-1.72465e-27 8.66712e-13 -0)
(-8.14818e-29 -1.94768e-13 -1.94768e-13)
(-1.51914e-30 3.60054e-14 -0)
(1.08781e-30 1.86588e-14 1.86588e-14)
(-1.45451e-30 -3.441e-14 0)
(-2.39419e-31 -1.82276e-15 -1.82276e-15)
(1.01088e-30 1.67094e-14 0)
(-1.65314e-30 4.62481e-14 4.62481e-14)
(2.58294e-30 -1.97271e-14 -0)
(4.24637e-30 -3.8771e-14 -3.8771e-14)
(2.14029e-31 -1.49949e-14 -0)
(2.18052e-30 5.39406e-14 5.39406e-14)
(-1.78266e-34 1.53971e-17 -0)
(-1.39356e-30 -3.46049e-14 -3.46049e-14)
(-1.48704e-30 -2.34474e-14 0)
(2.6223e-32 7.09983e-15 7.09983e-15)
(2.94371e-33 -3.88454e-16 -0)
(-1.41394e-24 1.00639e-11 1.00639e-11)
(-4.06419e-25 -1.30335e-11 0)
(-2.12247e-26 2.95656e-12 2.95656e-12)
(-1.28152e-27 -7.92546e-13 0)
(-3.74177e-29 1.10843e-13 1.10843e-13)
(-3.74107e-29 -1.57529e-13 0)
(3.00164e-30 1.95529e-14 1.95529e-14)
(1.94059e-30 4.62528e-14 0)
(-2.95283e-31 7.7781e-15 7.7781e-15)
(8.01791e-31 -2.23809e-14 -0)
(1.66636e-30 -1.9557e-14 -1.9557e-14)
(5.40667e-31 -4.85752e-15 -0)
(3.34765e-31 -9.13906e-15 -9.13906e-15)
(1.5273e-31 -7.66922e-15 -0)
(-2.10681e-30 -5.25886e-14 -5.25886e-14)
(-2.14922e-31 5.94857e-15 -0)
(4.09646e-32 -2.10901e-15 -2.10901e-15)
(2.12875e-33 -1.41541e-16 -0)
(-7.51407e-33 4.17259e-16 4.17259e-16)
(7.15099e-32 -3.72206e-15 -0)
(-4.04685e-25 -6.38102e-12 -6.38102e-12)
(-8.59621e-26 6.27253e-12 -0)
(-4.66804e-27 -1.48936e-12 -1.48936e-12)
(-2.12273e-28 2.99693e-13 -0)
(-2.09838e-29 -1.52796e-13 -1.52796e-13)
(-2.11728e-31 -3.25193e-14 0)
(-2.21897e-29 -1.15889e-13 -1.15889e-13)
(3.12447e-30 3.84801e-14 0)
(-4.73993e-30 2.45177e-14 2.45177e-14)
(1.55697e-29 -9.49485e-14 -0)
(6.02783e-30 -1.05764e-13 -1.05764e-13)
(-1.01597e-29 -1.26199e-13 0)
(-1.20991e-29 -1.00167e-13 -1.00167e-13)
(8.78033e-32 -4.33364e-14 -0)
(-4.58453e-31 -3.80394e-14 -3.80394e-14)
(-5.92972e-30 -5.52542e-14 0)
(-9.20239e-31 -4.09126e-14 -4.09126e-14)
(-7.2005e-31 2.80636e-14 -0)
(-1.05184e-31 -8.14903e-15 -8.14903e-15)
(3.83793e-31 6.874e-15 0)
(-4.66957e-26 -1.28326e-12 -1.28326e-12)
(-2.7532e-26 3.18363e-12 -0)
(-1.24135e-27 -6.74089e-13 -6.74089e-13)
(-1.4665e-28 2.65751e-13 -0)
(-4.56439e-32 1.60764e-14 1.60764e-14)
(-6.45799e-30 3.78775e-14 -0)
(5.3139e-30 -4.80619e-14 -4.80619e-14)
(-5.06082e-30 -1.29526e-13 0)
(-5.5408e-30 -5.51378e-14 -5.51378e-14)
(2.6591e-31 5.4998e-15 0)
(-1.12613e-31 -2.47544e-15 -2.47544e-15)
(1.36286e-30 1.8643e-14 0)
(4.27204e-30 3.28333e-14 3.28333e-14)
(1.28285e-30 8.10876e-14 0)
(-1.36831e-29 9.86796e-14 9.86796e-14)
(-7.84066e-30 4.96799e-14 -0)
(1.60361e-30 -1.71766e-14 -1.71766e-14)
(-5.64052e-31 -4.04554e-14 0)
(1.04288e-31 2.59789e-15 2.59789e-15)
(-3.38306e-32 2.81072e-15 -0)
(-8.83365e-25 7.74442e-12 7.74442e-12)
(-2.60778e-25 -1.04456e-11 0)
(-1.38317e-26 2.37885e-12 2.37885e-12)
(-8.68797e-28 -6.00014e-13 0)
(-1.06637e-29 1.24964e-13 1.24964e-13)
(2.07511e-29 1.04634e-13 0)
(-6.40903e-30 1.35015e-13 1.35015e-13)
(-1.30384e-30 1.92813e-14 -0)
(1.20652e-30 3.92125e-14 3.92125e-14)
(4.52882e-30 5.49919e-14 0)
(2.23964e-30 9.75852e-14 9.75852e-14)
(-1.01962e-29 1.26904e-13 -0)
(-8.82447e-30 5.45097e-14 5.45097e-14)
(4.87731e-31 -5.85217e-15 -0)
(-3.53538e-31 3.42024e-15 3.42024e-15)
(2.81805e-31 -2.39744e-15 -0)
(9.65854e-31 -1.21657e-14 -1.21657e-14)
(-2.68103e-31 -6.5193e-14 0)
(2.67635e-32 8.79297e-16 8.79297e-16)
(-1.38921e-31 2.96807e-14 -0)
(-1.25702e-24 -9.47836e-12 -9.47836e-12)
(-3.49746e-25 1.21055e-11 -0)
(-1.97244e-26 -2.95015e-12 -2.95015e-12)
(-9.04965e-28 5.8071e-13 -0)
(-8.67014e-29 -2.57506e-13 -2.57506e-13)
(-2.20123e-29 -1.08153e-13 0)
(-2.67309e-29 -8.00266e-14 -8.00266e-14)
(2.19527e-29 1.15151e-13 0)
(-2.25051e-31 5.19526e-14 5.19526e-14)
(-3.22918e-30 5.58373e-14 -0)
(1.31529e-31 -6.38379e-15 -6.38379e-15)
(-2.79286e-31 -4.65017e-14 0)
(-3.15141e-30 3.22601e-14 3.22601e-14)
(6.8873e-31 -1.51221e-14 -0)
(-4.84999e-31 -9.0597e-15 -9.0597e-15)
(2.03867e-30 4.52511e-14 0)
(-1.0111e-29 7.90372e-14 7.90372e-14)
(1.77768e-30 -8.7476e-15 -0)
(9.18661e-31 -2.27105e-14 -2.27105e-14)
(-6.87005e-31 -2.87615e-14 0)
(-3.7794e-25 5.33087e-12 5.33087e-12)
(-9.98196e-26 -6.58944e-12 0)
(-5.66924e-27 1.55457e-12 1.55457e-12)
(-2.52055e-28 -3.66943e-13 0)
(-1.6862e-29 6.7871e-14 6.7871e-14)
(-4.67184e-31 -5.7006e-14 0)
(1.55623e-31 3.0775e-15 3.0775e-15)
(-1.8372e-31 8.13652e-15 -0)
(7.79521e-31 -2.53115e-14 -2.53115e-14)
(1.01459e-30 -2.50425e-14 -0)
(1.33082e-30 -2.588e-14 -2.588e-14)
(1.83173e-31 -3.47144e-15 -0)
(6.84639e-31 -4.09757e-14 -4.09757e-14)
(-7.92277e-31 -9.21891e-15 0)
(2.90372e-30 3.84697e-14 3.84697e-14)
(-1.31662e-30 4.75212e-14 -0)
(-8.97939e-30 6.97803e-14 6.97803e-14)
(-9.67288e-30 5.27399e-14 -0)
(1.70019e-30 -1.49168e-14 -1.49168e-14)
(-4.20575e-31 1.22832e-14 -0)
(-5.41949e-26 1.41894e-12 1.41894e-12)
(-2.40763e-26 -3.11008e-12 0)
(-1.44698e-27 7.44651e-13 7.44651e-13)
(-5.21392e-29 -1.76809e-13 0)
(-1.43159e-29 8.17703e-14 8.17703e-14)
(1.38511e-30 -5.50166e-15 -0)
(1.52937e-30 -1.27386e-14 -1.27386e-14)
(1.13066e-29 -9.0907e-14 -0)
(1.69936e-30 -7.03978e-14 -7.03978e-14)
(-3.30143e-30 -8.80364e-14 0)
(-2.42921e-30 -5.63976e-14 -5.63976e-14)
(-4.91745e-31 -8.28198e-15 0)
(-7.2e-30 -5.71916e-14 -5.71916e-14)
(4.20981e-30 4.72003e-14 0)
(-3.75918e-30 5.00824e-14 5.00824e-14)
(3.85265e-31 -2.74048e-15 -0)
(1.98838e-30 -4.17244e-14 -4.17244e-14)
(-5.508e-33 -9.81786e-16 0)
(-8.88854e-32 2.34916e-15 2.34916e-15)
(9.96325e-32 -5.57185e-15 -0)
(-5.18524e-25 -4.45734e-12 -4.45734e-12)
(-2.46283e-25 9.90463e-12 -0)
(-1.30024e-26 -2.20375e-12 -2.20375e-12)
(-9.02943e-28 6.13133e-13 -0)
(-2.7705e-30 -6.95585e-14 -6.95585e-14)
(-9.5332e-30 4.05692e-14 -0)
(1.99983e-30 -2.10927e-14 -2.10927e-14)
(-1.21191e-30 5.03709e-14 -0)
(-3.0033e-31 5.32315e-15 5.32315e-15)
(-1.51523e-32 1.96042e-16 -0)
(-8.30011e-32 1.42174e-15 1.42174e-15)
(-1.34492e-31 1.46972e-15 -0)
(-4.1661e-30 5.70095e-14 5.70095e-14)
(-8.42388e-31 7.04912e-15 -0)
(8.14884e-30 -5.67592e-14 -5.67592e-14)
(4.23591e-30 -4.50574e-14 -0)
(-3.62447e-30 -1.00805e-13 -1.00805e-13)
(-5.82907e-30 -5.77775e-14 0)
(4.85412e-31 6.77672e-15 6.77672e-15)
(-5.50801e-31 -1.663e-14 0)
(-6.66457e-26 1.66526e-12 1.66526e-12)
(-3.0103e-26 -3.34363e-12 0)
(-1.9781e-27 1.00049e-12 1.00049e-12)
(1.6902e-29 4.78209e-14 0)
(-4.37026e-29 1.52309e-13 1.52309e-13)
(-1.57006e-29 1.83753e-13 -0)
(-3.77181e-29 1.66076e-13 1.66076e-13)
(-8.35058e-30 6.96487e-14 -0)
(-1.13072e-29 1.02375e-13 1.02375e-13)
(-6.40408e-30 1.0774e-13 -0)
(-1.2326e-29 1.18922e-13 1.18922e-13)
(-1.03627e-29 6.30128e-14 -0)
(-6.03119e-30 3.14658e-14 3.14658e-14)
(5.89797e-30 -2.83474e-14 -0)
(1.25972e-29 -7.02766e-14 -7.02766e-14)
(2.34293e-30 -4.94335e-14 -0)
(-4.57071e-31 -1.03802e-14 -1.03802e-14)
(2.69355e-31 4.77527e-15 0)
(-1.25282e-31 3.36812e-14 3.36812e-14)
(-2.41334e-31 2.57976e-14 -0)
(-5.19782e-25 5.72516e-12 5.72516e-12)
(-1.6124e-25 -8.41026e-12 0)
(-7.41811e-27 1.64187e-12 1.64187e-12)
(-4.98921e-28 -5.82989e-13 0)
(7.44732e-30 -2.36792e-14 -2.36792e-14)
(-1.37717e-30 -1.64182e-13 0)
(3.08707e-30 -1.10469e-13 -1.10469e-13)
(-2.48488e-30 -8.60518e-14 0)
(-9.82016e-31 -5.05644e-14 -5.05644e-14)
(3.53281e-31 -4.66061e-14 -0)
(3.10586e-30 -5.48549e-14 -5.48549e-14)
(6.84886e-32 -6.04954e-14 -0)
(-1.24293e-31 -1.99384e-14 -1.99384e-14)
(-1.11324e-30 1.5292e-14 -0)
(-7.9589e-30 5.4258e-14 5.4258e-14)
(9.38584e-31 -1.28085e-14 -0)
(-9.28026e-31 4.98918e-14 4.98918e-14)
(-1.76691e-30 5.87109e-14 -0)
(1.65197e-30 -2.59708e-14 -2.59708e-14)
(1.55844e-30 -3.76096e-14 -0)
)
;

boundaryField
{
    movingWall
    {
        type            calculated;
        value           nonuniform List<vector> 
20
(
(0 1.1425e-11 -0)
(0 -1.0137e-11 -0)
(0 1.47633e-12 -0)
(0 -9.08857e-13 -0)
(0 -2.7053e-13 -0)
(0 -3.39519e-13 -0)
(0 -2.68502e-13 -0)
(0 -1.82372e-13 -0)
(0 -2.18399e-13 -0)
(0 -2.14441e-13 -0)
(0 -2.22689e-13 -0)
(0 -9.51032e-14 -0)
(0 -3.72423e-14 -0)
(0 -7.35258e-14 -0)
(0 4.79253e-17 -0)
(0 -1.01626e-13 -0)
(0 -4.87272e-14 -0)
(0 -3.99081e-14 -0)
(0 -4.32747e-14 -0)
(0 -9.93224e-14 -0)
)
;
    }
    fixedWalls
    {
        type            calculated;
        value           nonuniform List<vector> 
60
(
(0 -5.83211e-11 -0)
(0 -7.54238e-12 -0)
(0 4.65779e-11 -0)
(0 -2.62894e-11 -0)
(0 -9.37706e-12 -0)
(0 4.18247e-11 -0)
(0 -5.03719e-11 -0)
(0 1.14727e-11 -0)
(0 4.11582e-11 -0)
(0 -6.62856e-11 -0)
(0 5.53309e-11 -0)
(0 -2.67775e-11 -0)
(0 -1.30646e-11 -0)
(0 4.44604e-11 -0)
(0 -5.21534e-11 -0)
(0 2.81147e-11 -0)
(0 1.36512e-11 -0)
(0 -4.1843e-11 -0)
(0 1.4572e-11 -0)
(0 3.48791e-11 -0)
(0 8.94649e-15 -0)
(0 -1.84694e-14 -0)
(0 -2.55207e-14 -0)
(0 -2.89546e-14 -0)
(0 -2.29968e-14 -0)
(0 5.79893e-14 -0)
(0 1.44996e-14 -0)
(0 3.55225e-14 -0)
(0 3.1018e-14 -0)
(0 -3.03121e-15 -0)
(0 -7.68498e-15 -0)
(0 2.2333e-14 -0)
(0 -4.81452e-15 -0)
(0 2.52328e-14 -0)
(0 -1.75506e-14 -0)
(0 1.34091e-14 -0)
(0 -7.15256e-15 -0)
(0 -1.38567e-14 -0)
(0 2.33631e-14 -0)
(0 -4.36799e-14 -0)
(0 -1.7768e-11 -0)
(0 1.57223e-11 -0)
(0 -3.08435e-12 -0)
(0 7.2981e-13 -0)
(0 -7.82119e-14 -0)
(0 7.1942e-14 -0)
(0 1.23431e-13 -0)
(0 1.36234e-13 -0)
(0 1.46837e-13 -0)
(0 6.06758e-14 -0)
(0 3.69169e-14 -0)
(0 1.54495e-13 -0)
(0 8.78793e-14 -0)
(0 1.62939e-14 -0)
(0 6.0012e-15 -0)
(0 -9.3786e-16 -0)
(0 2.23964e-15 -0)
(0 -2.11462e-15 -0)
(0 3.82526e-14 -0)
(0 3.17952e-15 -0)
)
;
    }
    frontAndBack
    {
        type            empty;
    }
}


// ************************************************************************* //
