/*--------------------------------*- C++ -*----------------------------------*\
| =========                 |                                                 |
| \\      /  F ield         | OpenFOAM: The Open Source CFD Toolbox           |
|  \\    /   O peration     | Version:  2312                                  |
|   \\  /    A nd           | Website:  www.openfoam.com                      |
|    \\/     M anipulation  |                                                 |
\*---------------------------------------------------------------------------*/
FoamFile
{
    version     2.0;
    format      ascii;
    arch        "LSB;label=32;scalar=64";
    class       volScalarField;
    location    "9.25";
    object      Lambda2Field;
}
// * * * * * * * * * * * * * * * * * * * * * * * * * * * * * * * * * * * * * //

dimensions      [0 0 -2 0 0 0 0];

internalField   nonuniform List<scalar> 
400
(
2.01145e-23
9.70632e-24
2.27599e-25
4.02977e-26
4.52735e-27
2.79884e-28
0
-7.95129e-29
0
0
4.00299e-28
1.25448e-27
6.61231e-28
1.82246e-30
0
5.08415e-29
0
5.73169e-29
0
0
7.30507e-24
1.00071e-23
6.28779e-25
0
0
0
2.85836e-28
-4.15149e-28
3.13733e-27
-1.39558e-29
3.74982e-28
-4.57174e-28
3.28693e-28
0
4.01723e-28
-1.82038e-27
0
2.33031e-28
2.00377e-28
2.36946e-28
6.03079e-23
1.85991e-23
5.2827e-25
3.56368e-26
0
-1.41486e-27
3.64637e-28
-1.43658e-27
0
0
5.87618e-28
2.61351e-28
2.29424e-29
7.48964e-28
1.21173e-28
2.26439e-28
1.11372e-29
2.88942e-28
0
6.35334e-28
1.9809e-23
1.1252e-23
5.10816e-25
1.83671e-26
5.72086e-27
0
9.46509e-28
0
0
3.31935e-28
1.84569e-28
5.81845e-28
0
-1.53895e-28
0
-7.75288e-28
4.07711e-29
0
0
2.01172e-28
5.22244e-24
5.51494e-24
3.83645e-25
4.18287e-27
5.75615e-28
-1.97984e-27
1.08368e-27
2.16341e-29
0
-2.75583e-28
0
0
0
6.6854e-28
5.15872e-28
0
0
3.42621e-28
3.6146e-28
2.05771e-28
1.7919e-23
8.44639e-24
1.43998e-25
2.93874e-27
3.08353e-27
0
1.7019e-28
0
8.83771e-28
4.50253e-28
0
1.50751e-28
1.43095e-27
0
4.23814e-29
1.9201e-28
8.48799e-28
0
1.16271e-28
0
3.07902e-23
1.18146e-23
7.34684e-28
7.66994e-26
0
3.51987e-27
0
-3.10386e-27
2.78935e-28
6.54236e-28
1.85678e-27
2.96315e-28
5.49486e-29
-9.57382e-28
8.1811e-29
5.18641e-30
1.27646e-29
0
0
4.56671e-28
5.57383e-24
2.80562e-24
2.7788e-25
1.17549e-26
0
2.04108e-27
1.43334e-28
-7.81007e-30
5.43676e-28
0
1.55501e-28
5.81011e-29
6.06251e-28
0
3.71049e-28
-1.10022e-28
0
7.2695e-29
0
0
5.95734e-24
6.62356e-24
0
4.68542e-26
0
1.52995e-27
0
-1.8848e-27
0
-1.94514e-28
2.98153e-28
-1.07183e-27
2.17058e-28
9.2973e-28
0
0
0
9.15952e-29
0
0
2.79091e-23
1.24691e-23
0
-2.15844e-26
7.34684e-28
0
4.32707e-28
-1.47824e-28
0
0
0
2.00597e-28
5.31461e-28
0
7.49297e-28
4.51995e-29
0
1.21246e-28
1.27162e-29
9.36198e-29
9.66947e-24
4.39809e-24
5.95094e-26
-5.77488e-26
3.7391e-27
-5.30065e-27
2.72933e-28
0
1.06927e-27
1.2805e-28
3.04724e-28
4.47063e-28
0
0
8.79036e-29
1.4136e-28
4.27246e-30
7.93491e-29
0
4.02089e-29
0
0
0
2.93874e-27
0
1.51774e-27
3.24517e-27
0
3.41973e-28
-1.03775e-27
0
-1.19284e-27
3.6812e-27
5.89467e-28
0
0
1.19399e-27
-1.75812e-29
0
0
4.75334e-24
1.26039e-24
1.10458e-25
3.36965e-27
2.62765e-27
7.59261e-29
0
0
0
6.06805e-28
6.54425e-29
2.29365e-28
9.13307e-28
-1.39091e-27
0
7.51208e-28
0
-3.52999e-28
4.7602e-30
3.66183e-29
1.13905e-23
4.8601e-24
0
0
0
1.14522e-27
3.65046e-27
2.12064e-28
1.3073e-27
7.03617e-29
0
-1.959e-27
0
0
3.72316e-28
4.11586e-28
0
0
6.51478e-29
0
1.16651e-23
7.10794e-24
0
4.02111e-26
0
3.90442e-28
8.39466e-28
-2.73107e-27
3.91777e-29
0
0
4.17872e-28
3.31222e-28
0
0
-4.11141e-28
0
3.51637e-28
3.37501e-28
-3.6161e-29
3.34654e-24
4.72001e-24
1.37082e-25
0
2.93874e-27
1.26243e-27
7.34684e-28
9.92368e-28
4.86136e-29
5.59062e-29
2.41196e-28
2.84829e-29
0
0
0
-2.08775e-28
0
5.15799e-28
5.56958e-29
4.19192e-28
7.50993e-24
6.11043e-24
3.55587e-25
6.61216e-27
1.02089e-27
0
2.51921e-28
-4.5279e-29
3.67992e-28
-5.33013e-28
6.77073e-28
0
6.87867e-28
0
1.11882e-28
0
3.10024e-28
0
3.45882e-28
4.53746e-29
4.29785e-23
1.25875e-23
3.23643e-25
-1.51496e-26
6.70951e-27
0
2.25835e-28
2.08122e-28
0
0
0
5.00992e-28
1.66925e-27
8.83581e-28
0
0
0
0
0
2.84653e-28
8.05593e-24
7.44242e-24
2.38363e-25
4.32624e-26
0
1.72731e-27
1.7439e-28
9.48661e-28
1.39015e-27
7.37408e-29
0
0
1.92229e-28
0
0
0
0
1.71566e-28
2.88253e-28
3.54386e-29
1.07475e-23
3.16669e-24
4.20988e-25
-5.37405e-26
9.92232e-27
-3.82428e-27
2.7166e-27
-3.02314e-28
1.97632e-28
4.12217e-28
6.99729e-28
0
1.94253e-28
7.34684e-28
0
0
2.34095e-28
-2.37066e-28
2.44695e-28
0
)
;

boundaryField
{
    movingWall
    {
        type            calculated;
        value           nonuniform List<scalar> 
20
(
0
0
7.24184e-25
-8.81622e-26
3.08407e-26
-8.89691e-27
2.39281e-27
-7.07976e-28
8.09502e-28
1.68844e-27
5.91509e-28
0
3.18264e-28
2.09289e-27
0
-2.78481e-28
0
1.99876e-28
7.85053e-28
0
)
;
    }
    fixedWalls
    {
        type            calculated;
        value           nonuniform List<scalar> 
60
(
1.32301e-22
1.66955e-22
3.09346e-22
2.00148e-22
1.02358e-22
1.34763e-22
1.60569e-22
4.51718e-23
5.83591e-23
1.46015e-22
5.5844e-23
0
3.02895e-23
7.13531e-23
1.05794e-22
6.94036e-23
1.00608e-22
2.18231e-22
1.23727e-22
7.03452e-23
0
2.36946e-28
1.42642e-27
2.01172e-28
1.11356e-28
0
1.1277e-27
0
0
9.36198e-29
5.49737e-29
0
4.24132e-29
6.36507e-29
2.58975e-28
3.88674e-28
5.81644e-29
3.59824e-28
1.01426e-28
0
0
0
1.43998e-25
7.34684e-28
1.48352e-26
-4.8803e-28
1.30506e-27
0
0
0
1.0674e-27
4.1107e-27
8.18045e-28
2.98755e-28
0
0
0
0
2.73396e-28
0
)
;
    }
    frontAndBack
    {
        type            empty;
    }
}


// ************************************************************************* //
