/*--------------------------------*- C++ -*----------------------------------*\
| =========                 |                                                 |
| \\      /  F ield         | OpenFOAM: The Open Source CFD Toolbox           |
|  \\    /   O peration     | Version:  2312                                  |
|   \\  /    A nd           | Website:  www.openfoam.com                      |
|    \\/     M anipulation  |                                                 |
\*---------------------------------------------------------------------------*/
FoamFile
{
    version     2.0;
    format      ascii;
    arch        "LSB;label=32;scalar=64";
    class       volScalarField;
    location    "9.25";
    object      magSqrP;
}
// * * * * * * * * * * * * * * * * * * * * * * * * * * * * * * * * * * * * * //

dimensions      [0 4 -4 0 0 0 0];

internalField   nonuniform List<scalar> 
400
(
4.76502e-32
1.63187e-29
6.15729e-30
6.73056e-30
7.36487e-30
8.70644e-30
9.0804e-30
8.67142e-30
8.12847e-30
8.59402e-30
8.05633e-30
8.63415e-30
1.07799e-29
1.10209e-29
1.03635e-29
1.00423e-29
1.00358e-29
1.19745e-29
1.13067e-29
1.05594e-29
7.10352e-30
0
6.20414e-30
5.55235e-30
8.04835e-30
8.95528e-30
9.78015e-30
8.75565e-30
7.67102e-30
8.49734e-30
8.42116e-30
8.89861e-30
9.81293e-30
1.07012e-29
9.8142e-30
1.0048e-29
1.09597e-29
1.28408e-29
1.14174e-29
9.83774e-30
4.73305e-30
8.90213e-30
5.93737e-30
7.54828e-30
8.67715e-30
9.4606e-30
9.97448e-30
8.91524e-30
8.60426e-30
9.05881e-30
8.87757e-30
8.43158e-30
1.01233e-29
1.15914e-29
1.10207e-29
9.50412e-30
1.02444e-29
1.00898e-29
1.08282e-29
1.1062e-29
4.15047e-30
1.09768e-29
6.38813e-30
7.8185e-30
8.62978e-30
9.13125e-30
8.3339e-30
8.32219e-30
9.58684e-30
1.00838e-29
9.97641e-30
9.80027e-30
9.84958e-30
1.03332e-29
1.01352e-29
9.93863e-30
1.00155e-29
9.0133e-30
1.03667e-29
1.2608e-29
7.40174e-30
7.90215e-31
7.0968e-30
8.29676e-30
9.1611e-30
8.99246e-30
9.16961e-30
9.26251e-30
9.86278e-30
1.09092e-29
1.11521e-29
1.18005e-29
9.95502e-30
9.06202e-30
9.52646e-30
1.00325e-29
9.2519e-30
8.38573e-30
9.78954e-30
1.26864e-29
4.74488e-30
1.02007e-29
7.16438e-30
9.10182e-30
9.01954e-30
8.96392e-30
9.37824e-30
9.63019e-30
1.08001e-29
1.14195e-29
1.13592e-29
1.09879e-29
9.52031e-30
9.63256e-30
1.01571e-29
9.22772e-30
8.25871e-30
8.40668e-30
9.29156e-30
1.19785e-29
6.33138e-30
1.84839e-29
7.45451e-30
9.46476e-30
8.95752e-30
9.27329e-30
9.56527e-30
9.78802e-30
9.6074e-30
1.03527e-29
1.09696e-29
1.10112e-29
1.0704e-29
9.95516e-30
9.43921e-30
8.69139e-30
8.6842e-30
8.78944e-30
8.65778e-30
1.04215e-29
1.37308e-29
0
7.42865e-30
7.55498e-30
9.25474e-30
9.76616e-30
1.054e-29
1.06885e-29
1.01559e-29
1.0096e-29
9.76619e-30
1.13218e-29
9.8717e-30
9.96147e-30
8.62217e-30
8.65371e-30
8.48846e-30
7.7399e-30
8.55227e-30
9.05353e-30
6.10246e-30
2.99965e-29
8.63189e-30
1.01626e-29
8.66057e-30
9.88642e-30
1.05122e-29
1.02632e-29
9.86452e-30
9.75708e-30
9.53986e-30
9.90495e-30
1.00266e-29
9.97108e-30
8.78087e-30
8.54114e-30
8.28582e-30
8.22913e-30
8.38044e-30
8.26049e-30
6.43414e-30
6.58601e-30
1.07576e-29
9.45996e-30
8.69542e-30
9.69814e-30
1.04701e-29
1.00164e-29
9.2753e-30
8.67706e-30
8.74493e-30
9.82273e-30
1.16831e-29
9.75493e-30
8.87229e-30
8.06183e-30
8.03775e-30
7.45268e-30
8.69398e-30
7.39027e-30
8.14738e-30
2.09398e-30
9.98706e-30
9.56799e-30
9.26072e-30
8.9136e-30
1.07572e-29
9.7352e-30
8.22034e-30
8.59262e-30
7.70884e-30
8.92286e-30
1.02294e-29
9.84251e-30
7.90255e-30
8.07328e-30
7.51658e-30
7.17488e-30
8.1927e-30
8.28131e-30
7.41593e-30
3.30606e-29
9.35783e-30
1.09687e-29
9.79578e-30
9.10924e-30
8.6478e-30
8.65938e-30
8.56685e-30
8.58103e-30
8.76912e-30
9.40693e-30
1.00208e-29
8.78214e-30
7.17431e-30
7.33204e-30
6.59744e-30
7.04398e-30
8.11902e-30
7.72786e-30
1.10931e-29
0
1.0065e-29
8.58076e-30
1.00886e-29
1.04471e-29
9.32083e-30
8.00065e-30
8.2556e-30
9.34636e-30
9.77477e-30
9.407e-30
7.459e-30
7.9221e-30
6.94856e-30
6.96454e-30
7.15602e-30
7.05782e-30
8.01286e-30
6.82548e-30
7.3923e-30
2.86154e-29
8.92536e-30
1.02258e-29
9.22413e-30
9.36443e-30
9.90654e-30
8.1493e-30
7.52905e-30
8.6271e-30
8.65024e-30
8.80281e-30
7.93131e-30
7.54085e-30
7.50971e-30
8.00929e-30
6.89567e-30
5.819e-30
6.57748e-30
7.68378e-30
9.88101e-30
5.2975e-30
9.825e-30
9.07639e-30
8.67098e-30
8.17064e-30
8.83879e-30
7.77742e-30
8.15868e-30
8.46025e-30
8.09098e-30
7.86465e-30
8.08676e-30
6.93479e-30
6.93279e-30
6.87896e-30
7.00237e-30
6.08795e-30
5.54965e-30
6.7277e-30
1.33423e-29
1.68874e-30
9.29467e-30
9.2547e-30
9.35285e-30
7.96771e-30
8.13221e-30
7.04769e-30
7.91166e-30
8.72857e-30
8.34023e-30
7.39762e-30
7.46447e-30
6.60615e-30
6.31988e-30
6.17075e-30
6.49786e-30
6.75333e-30
5.77167e-30
7.0422e-30
6.28238e-30
2.41721e-29
9.7115e-30
9.03739e-30
8.09384e-30
8.97395e-30
7.55133e-30
7.86531e-30
8.43896e-30
8.11777e-30
6.91218e-30
6.70103e-30
7.27933e-30
6.34207e-30
5.6215e-30
5.25718e-30
6.17164e-30
6.72514e-30
6.12316e-30
7.24985e-30
9.67214e-30
1.1658e-29
8.72591e-30
9.12659e-30
8.9209e-30
9.55283e-30
6.57084e-30
7.8161e-30
8.35553e-30
7.72634e-30
6.38698e-30
5.8939e-30
5.88941e-30
6.12726e-30
6.06275e-30
6.05345e-30
6.06031e-30
6.39145e-30
6.31754e-30
7.16663e-30
1.41279e-29
1.70871e-30
8.27205e-30
8.88363e-30
9.98159e-30
8.74693e-30
7.57633e-30
7.48456e-30
8.22251e-30
6.90693e-30
5.61558e-30
5.95923e-30
6.91553e-30
7.35529e-30
6.9098e-30
7.01857e-30
6.15376e-30
5.52384e-30
5.36682e-30
6.5164e-30
5.8259e-30
2.32395e-29
8.62844e-30
1.08593e-29
9.92722e-30
8.98519e-30
8.3194e-30
6.91973e-30
7.93218e-30
7.1754e-30
6.71632e-30
6.02188e-30
6.76837e-30
7.40449e-30
8.12073e-30
7.04594e-30
6.07282e-30
5.09777e-30
4.97879e-30
7.10027e-30
)
;

boundaryField
{
    movingWall
    {
        type            calculated;
        value           nonuniform List<scalar> 
20
(
5.8259e-30
2.32395e-29
8.62844e-30
1.08593e-29
9.92722e-30
8.98519e-30
8.3194e-30
6.91973e-30
7.93218e-30
7.1754e-30
6.71632e-30
6.02188e-30
6.76837e-30
7.40449e-30
8.12073e-30
7.04594e-30
6.07282e-30
5.09777e-30
4.97879e-30
7.10027e-30
)
;
    }
    fixedWalls
    {
        type            calculated;
        value           nonuniform List<scalar> 
60
(
4.76502e-32
7.10352e-30
4.73305e-30
4.15047e-30
7.40174e-30
4.74488e-30
6.33138e-30
1.37308e-29
6.10246e-30
6.43414e-30
8.14738e-30
7.41593e-30
1.10931e-29
7.3923e-30
9.88101e-30
1.33423e-29
6.28238e-30
9.67214e-30
1.41279e-29
5.8259e-30
1.05594e-29
9.83774e-30
1.1062e-29
1.2608e-29
1.26864e-29
1.19785e-29
1.04215e-29
9.05353e-30
8.26049e-30
7.39027e-30
8.28131e-30
7.72786e-30
6.82548e-30
7.68378e-30
6.7277e-30
7.0422e-30
7.24985e-30
7.16663e-30
6.5164e-30
7.10027e-30
4.76502e-32
1.63187e-29
6.15729e-30
6.73056e-30
7.36487e-30
8.70644e-30
9.0804e-30
8.67142e-30
8.12847e-30
8.59402e-30
8.05633e-30
8.63415e-30
1.07799e-29
1.10209e-29
1.03635e-29
1.00423e-29
1.00358e-29
1.19745e-29
1.13067e-29
1.05594e-29
)
;
    }
    frontAndBack
    {
        type            empty;
    }
}


// ************************************************************************* //
