/*--------------------------------*- C++ -*----------------------------------*\
| =========                 |                                                 |
| \\      /  F ield         | OpenFOAM: The Open Source CFD Toolbox           |
|  \\    /   O peration     | Version:  2312                                  |
|   \\  /    A nd           | Website:  www.openfoam.com                      |
|    \\/     M anipulation  |                                                 |
\*---------------------------------------------------------------------------*/
FoamFile
{
    version     2.0;
    format      ascii;
    arch        "LSB;label=32;scalar=64";
    class       volScalarField;
    location    "9.25";
    object      pzeroGrad;
}
// * * * * * * * * * * * * * * * * * * * * * * * * * * * * * * * * * * * * * //

dimensions      [0 2 -2 0 0 0 0];

internalField   nonuniform List<scalar> 
400
(
2.18289e-16
4.03964e-15
2.48139e-15
2.59433e-15
2.71383e-15
2.95067e-15
3.01337e-15
2.94473e-15
2.85105e-15
2.93156e-15
2.83837e-15
2.93839e-15
3.28327e-15
3.31977e-15
3.21924e-15
3.16896e-15
3.16793e-15
3.46042e-15
3.36255e-15
3.24953e-15
2.66524e-15
0
2.49081e-15
2.35634e-15
2.83696e-15
2.99254e-15
3.12732e-15
2.959e-15
2.76966e-15
2.91502e-15
2.90192e-15
2.98305e-15
3.13256e-15
3.27126e-15
3.13276e-15
3.16985e-15
3.31054e-15
3.58341e-15
3.37897e-15
3.13652e-15
2.17556e-15
2.98364e-15
2.43667e-15
2.74741e-15
2.9457e-15
3.07581e-15
3.15824e-15
2.98584e-15
2.9333e-15
3.00979e-15
2.97953e-15
2.90372e-15
3.18171e-15
3.40462e-15
3.31975e-15
3.08288e-15
3.20068e-15
3.17645e-15
3.29062e-15
3.32596e-15
2.03727e-15
3.31312e-15
2.52747e-15
2.79616e-15
2.93765e-15
3.0218e-15
2.88685e-15
2.88482e-15
3.09626e-15
3.1755e-15
3.15855e-15
3.13054e-15
3.1384e-15
3.21453e-15
3.18359e-15
3.15256e-15
3.16473e-15
3.00222e-15
3.21973e-15
3.55077e-15
2.72061e-15
8.88941e-16
2.66398e-15
2.88041e-15
3.02673e-15
2.99874e-15
3.02814e-15
3.04344e-15
3.14051e-15
3.30291e-15
3.33948e-15
3.43518e-15
3.15516e-15
3.01032e-15
3.0865e-15
3.16742e-15
3.04169e-15
2.89581e-15
3.12882e-15
3.56179e-15
2.17827e-15
3.19385e-15
2.67664e-15
3.01692e-15
3.00326e-15
2.99398e-15
3.06239e-15
3.10325e-15
3.28635e-15
3.37928e-15
3.37034e-15
3.3148e-15
3.0855e-15
3.10364e-15
3.18701e-15
3.03772e-15
2.8738e-15
2.89943e-15
3.04821e-15
3.461e-15
2.51622e-15
4.29929e-15
2.73029e-15
3.07648e-15
2.99291e-15
3.04521e-15
3.09278e-15
3.12858e-15
3.09958e-15
3.21756e-15
3.31204e-15
3.31831e-15
3.2717e-15
3.15518e-15
3.07233e-15
2.94812e-15
2.9469e-15
2.9647e-15
2.94241e-15
3.22823e-15
3.70551e-15
0
2.72555e-15
2.74863e-15
3.04216e-15
3.12509e-15
3.24654e-15
3.26932e-15
3.18684e-15
3.17741e-15
3.12509e-15
3.36478e-15
3.14193e-15
3.15618e-15
2.93635e-15
2.94172e-15
2.9135e-15
2.78207e-15
2.92443e-15
3.00891e-15
2.47032e-15
5.4769e-15
2.93801e-15
3.18789e-15
2.94288e-15
3.14427e-15
3.24225e-15
3.20362e-15
3.14078e-15
3.12363e-15
3.08867e-15
3.14721e-15
3.16649e-15
3.1577e-15
2.96325e-15
2.92252e-15
2.87851e-15
2.86865e-15
2.8949e-15
2.87411e-15
2.53656e-15
2.56632e-15
3.27987e-15
3.0757e-15
2.9488e-15
3.11418e-15
3.23576e-15
3.16487e-15
3.04554e-15
2.94569e-15
2.95718e-15
3.13412e-15
3.41806e-15
3.12329e-15
2.97864e-15
2.83934e-15
2.83509e-15
2.72996e-15
2.94856e-15
2.71851e-15
2.85436e-15
1.44706e-15
3.16023e-15
3.09322e-15
3.04314e-15
2.98556e-15
3.27982e-15
3.12013e-15
2.86711e-15
2.93132e-15
2.77648e-15
2.98712e-15
3.19835e-15
3.13728e-15
2.81115e-15
2.84135e-15
2.74164e-15
2.6786e-15
2.86229e-15
2.87773e-15
2.72322e-15
5.74983e-15
3.05906e-15
3.3119e-15
3.12982e-15
3.01815e-15
2.94071e-15
2.94268e-15
2.92692e-15
2.92934e-15
2.96127e-15
3.06707e-15
3.16556e-15
2.96347e-15
2.67849e-15
2.70777e-15
2.56855e-15
2.65405e-15
2.84939e-15
2.7799e-15
3.33063e-15
0
3.17254e-15
2.92929e-15
3.17625e-15
3.23219e-15
3.053e-15
2.82854e-15
2.87326e-15
3.05718e-15
3.12646e-15
3.06708e-15
2.73112e-15
2.81462e-15
2.63601e-15
2.63904e-15
2.67507e-15
2.65665e-15
2.8307e-15
2.61256e-15
2.71888e-15
5.34934e-15
2.98753e-15
3.19778e-15
3.03713e-15
3.06014e-15
3.14746e-15
2.8547e-15
2.74391e-15
2.93719e-15
2.94113e-15
2.96695e-15
2.81626e-15
2.74606e-15
2.74038e-15
2.83007e-15
2.62596e-15
2.41226e-15
2.56466e-15
2.77196e-15
3.14341e-15
2.30163e-15
3.13449e-15
3.01271e-15
2.94465e-15
2.85843e-15
2.97301e-15
2.7888e-15
2.85634e-15
2.90865e-15
2.84446e-15
2.8044e-15
2.84372e-15
2.6334e-15
2.63302e-15
2.62278e-15
2.6462e-15
2.46738e-15
2.35577e-15
2.59378e-15
3.65271e-15
1.29952e-15
3.04872e-15
3.04215e-15
3.05824e-15
2.82271e-15
2.8517e-15
2.65475e-15
2.81277e-15
2.95441e-15
2.88795e-15
2.71986e-15
2.73212e-15
2.57024e-15
2.51394e-15
2.4841e-15
2.54909e-15
2.59872e-15
2.40243e-15
2.65371e-15
2.50647e-15
4.91652e-15
3.11633e-15
3.00623e-15
2.84497e-15
2.99566e-15
2.74797e-15
2.80452e-15
2.90499e-15
2.84917e-15
2.6291e-15
2.58863e-15
2.69802e-15
2.51835e-15
2.37097e-15
2.29285e-15
2.48428e-15
2.59329e-15
2.4745e-15
2.69255e-15
3.11001e-15
3.41439e-15
2.95396e-15
3.02103e-15
2.98679e-15
3.09077e-15
2.56337e-15
2.79573e-15
2.89059e-15
2.77963e-15
2.52725e-15
2.42774e-15
2.42681e-15
2.47533e-15
2.46226e-15
2.46038e-15
2.46177e-15
2.52813e-15
2.51347e-15
2.67706e-15
3.75871e-15
1.30718e-15
2.87612e-15
2.98054e-15
3.15936e-15
2.95752e-15
2.75251e-15
2.73579e-15
2.86749e-15
2.6281e-15
2.36972e-15
2.44115e-15
2.62974e-15
2.71206e-15
2.62865e-15
2.64926e-15
2.48068e-15
2.35028e-15
2.31664e-15
2.55272e-15
2.41369e-15
4.82074e-15
2.93742e-15
3.29535e-15
3.15075e-15
2.99753e-15
2.88434e-15
2.63054e-15
2.81641e-15
2.67869e-15
2.59159e-15
2.45395e-15
2.60161e-15
2.72112e-15
2.84969e-15
2.65442e-15
2.46431e-15
2.25782e-15
2.23132e-15
2.66463e-15
)
;

boundaryField
{
    movingWall
    {
        type            zeroGradient;
    }
    fixedWalls
    {
        type            zeroGradient;
    }
    frontAndBack
    {
        type            empty;
    }
}


// ************************************************************************* //
