/*--------------------------------*- C++ -*----------------------------------*\
| =========                 |                                                 |
| \\      /  F ield         | OpenFOAM: The Open Source CFD Toolbox           |
|  \\    /   O peration     | Version:  2312                                  |
|   \\  /    A nd           | Website:  www.openfoam.com                      |
|    \\/     M anipulation  |                                                 |
\*---------------------------------------------------------------------------*/
FoamFile
{
    version     2.0;
    format      ascii;
    arch        "LSB;label=32;scalar=64";
    class       volScalarField;
    location    "9.25";
    object      QField;
}
// * * * * * * * * * * * * * * * * * * * * * * * * * * * * * * * * * * * * * //

dimensions      [0 0 -2 0 0 0 0];

internalField   nonuniform List<scalar> 
400
(
-3.87845e-23
-1.30272e-23
-4.14682e-25
-4.5189e-26
-4.52735e-27
-4.5346e-28
0
8.15125e-29
7.37838e-28
4.97226e-28
-4.75555e-28
-1.25448e-27
-6.0969e-28
3.65915e-29
0
-5.08415e-29
6.07056e-29
-5.73169e-29
0
0
-6.54497e-23
-1.93535e-23
-1.14787e-24
-5.10674e-27
-6.82735e-28
0
6.00814e-28
6.3035e-28
-9.78882e-28
1.79684e-29
5.55584e-29
4.58981e-28
-3.28693e-28
0
7.18811e-28
1.82049e-27
1.12056e-28
-8.27536e-28
6.08571e-28
-8.34459e-28
-6.07105e-23
-1.88203e-23
-5.42868e-25
-3.35183e-26
0
1.68541e-27
-4.02105e-28
2.0176e-27
0
0
-5.87618e-28
-4.4497e-28
2.59251e-28
-2.22537e-27
-5.72642e-28
-8.15747e-28
3.38748e-28
-9.21479e-28
6.6413e-28
-6.35334e-28
-4.94354e-23
-1.3476e-23
-6.27779e-25
-2.49821e-26
-5.73214e-27
0
-2.49003e-27
-2.77154e-29
6.85752e-28
-3.31935e-28
-1.84569e-28
-5.81845e-28
1.54856e-27
1.54552e-28
3.06289e-27
8.63994e-28
-1.70523e-28
-5.54568e-29
7.77463e-29
-7.68889e-28
-3.52971e-23
-9.34295e-24
-5.70825e-25
-1.52761e-26
-5.75615e-28
2.0048e-27
-2.54309e-28
-1.26072e-28
2.09432e-28
2.93996e-28
2.89736e-28
4.17844e-28
1.19398e-28
-2.11109e-27
-1.78317e-29
2.47732e-28
0
-3.88904e-28
-3.5974e-28
-3.87462e-28
-3.08686e-23
-9.41747e-24
-2.09419e-25
-5.8203e-27
-3.08353e-27
0
-1.7019e-28
0
-1.29489e-27
-1.15029e-27
0
-1.50751e-28
2.39746e-28
0
-3.41561e-28
-1.9201e-28
-5.84044e-28
0
5.71863e-28
4.95644e-29
-2.63976e-23
-1.09765e-23
1.02169e-26
-5.96749e-26
6.89108e-27
-3.51987e-27
2.92286e-27
3.10463e-27
6.29361e-28
-6.54236e-28
-1.5571e-27
-2.96315e-28
6.70578e-28
9.73154e-28
-8.1811e-29
-6.17282e-29
-1.27646e-29
2.9528e-28
0
-4.56671e-28
-1.878e-23
-7.53583e-24
-6.24859e-25
3.02174e-26
2.7441e-27
-2.44912e-27
-6.46449e-28
9.64477e-28
-6.17251e-28
1.59757e-28
-6.6056e-28
4.13212e-28
-9.5121e-28
7.84138e-30
-1.0355e-27
1.10328e-28
1.2558e-28
-6.93304e-28
0
0
-2.39597e-23
-1.10101e-23
-1.40497e-25
-3.05795e-26
5.76849e-27
-1.52995e-27
2.5937e-27
1.9173e-27
4.06754e-28
2.00736e-28
8.90874e-29
1.36368e-27
3.20673e-28
-1.07043e-27
0
0
2.52498e-28
-6.01534e-28
0
0
-2.90549e-23
-1.2656e-23
7.88323e-26
2.27576e-26
-6.55753e-28
0
-5.21788e-28
1.98001e-28
0
0
5.18874e-28
-2.2128e-28
-1.45017e-27
0
-3.70896e-28
-1.82229e-28
2.03283e-28
1.55726e-28
1.83307e-29
-5.24523e-28
-1.4144e-23
-5.54264e-24
-1.38565e-25
7.41731e-26
-3.7391e-27
5.32437e-27
-1.08291e-27
4.13488e-28
-2.64011e-27
-1.2805e-28
-2.62184e-28
5.73105e-28
0
0
-8.79036e-29
-3.22266e-28
4.81866e-29
-2.41447e-28
0
-1.71875e-28
3.17166e-24
-3.64692e-25
2.65371e-26
1.17571e-26
5.81249e-27
-2.06492e-27
-1.3376e-27
0
-3.75279e-28
1.1086e-27
1.98804e-27
1.42768e-27
-2.25068e-27
-5.89467e-28
2.96375e-28
5.65994e-29
-1.12167e-27
2.5981e-29
0
0
9.81566e-24
1.26472e-24
-1.33979e-25
4.42202e-26
-1.46369e-27
-7.47821e-28
5.68037e-28
1.4815e-27
5.02906e-29
-1.33538e-27
-4.33378e-28
-2.29365e-28
-2.90953e-27
1.45703e-27
1.09915e-27
-1.46456e-27
0
3.61862e-28
-9.50294e-29
-3.28042e-28
-7.33763e-25
-2.35194e-24
9.00056e-26
2.91699e-26
0
-1.42433e-27
-7.31817e-28
-2.12064e-28
-1.38126e-27
-2.45422e-28
1.14385e-27
2.00402e-27
1.6241e-29
0
-5.20947e-28
-1.64969e-27
0
-1.17047e-27
-2.18451e-28
-1.24923e-28
-1.59476e-23
-7.84718e-24
5.04563e-25
-4.67962e-26
1.34428e-26
-1.05964e-27
-3.70513e-28
2.75136e-27
8.40367e-28
8.82096e-29
0
-4.17872e-28
-6.47292e-28
0
0
4.9185e-28
1.47948e-27
-5.08274e-28
-7.82879e-28
4.48985e-29
-2.54355e-23
-8.06054e-24
-3.1099e-25
-5.85855e-27
2.77432e-27
-1.65767e-27
-1.2308e-27
-3.41544e-27
-4.86136e-29
-5.59062e-29
-2.05802e-28
1.44658e-28
3.75964e-28
0
3.08039e-28
5.53381e-28
8.4406e-28
-1.21177e-27
7.08456e-30
-2.88535e-28
-3.48938e-23
-1.01097e-23
-5.69294e-25
-1.75606e-26
3.04443e-27
0
-3.94052e-28
7.83975e-28
1.01643e-27
5.46538e-28
8.08665e-29
0
4.67204e-28
-5.69026e-28
2.90685e-29
0
-4.99894e-29
0
5.03091e-28
-1.82581e-28
-4.29441e-23
-1.26263e-23
-3.17307e-25
1.57256e-26
-6.70951e-27
-1.43828e-27
-1.1607e-27
-2.08122e-28
0
0
0
-6.06688e-28
-2.43055e-27
-1.6114e-27
1.38188e-28
2.34015e-28
1.58483e-27
5.57067e-29
0
-3.07037e-28
-4.37539e-23
-1.2257e-23
-5.04025e-25
-5.55843e-26
3.79799e-27
-4.75335e-28
3.79052e-28
-9.48661e-28
-8.61028e-28
-7.37408e-29
1.14333e-27
2.32228e-28
-9.67753e-29
-2.19509e-28
8.70966e-28
5.49015e-28
0
-3.55031e-28
-5.54882e-28
-3.54386e-29
-1.91524e-23
-5.07817e-24
-5.23573e-25
6.83631e-26
-1.08178e-26
3.88365e-27
-1.16054e-27
3.85159e-28
-1.97632e-28
-4.12217e-28
-3.99451e-28
-1.08091e-28
-1.94253e-28
-7.61271e-28
2.59804e-30
0
-2.34095e-28
2.43989e-28
1.51751e-28
9.38338e-30
)
;

boundaryField
{
    movingWall
    {
        type            calculated;
        value           nonuniform List<scalar> 
20
(
5.92385e-24
4.29591e-24
-1.14057e-24
2.05345e-25
-3.35159e-26
8.90817e-27
-6.00412e-29
8.41393e-28
-8.09502e-28
-1.68844e-27
-4.70695e-28
5.45975e-28
-3.18264e-28
-2.14749e-27
0
1.13763e-27
1.91771e-28
-1.99876e-28
6.39279e-28
3.44708e-29
)
;
    }
    fixedWalls
    {
        type            calculated;
        value           nonuniform List<scalar> 
60
(
-1.9961e-22
-3.61826e-22
-3.13027e-22
-2.51078e-22
-1.84496e-22
-1.60014e-22
-1.39908e-22
-1.2901e-22
-1.42326e-22
-1.49262e-22
-7.73911e-23
5.90544e-24
3.03218e-23
-1.21519e-23
-8.04229e-23
-1.41942e-22
-1.87811e-22
-2.18474e-22
-2.30871e-22
-1.07938e-22
0
-1.36718e-27
-1.42642e-27
-1.25975e-27
-1.11356e-28
4.20827e-28
-1.1277e-27
0
0
-8.59378e-28
-2.81599e-28
0
-5.37464e-28
-3.69803e-28
-2.58975e-28
-1.85743e-28
-2.99142e-28
-3.96962e-28
-1.01426e-28
-1.86168e-30
9.96871e-25
1.36419e-24
-1.16522e-24
-1.81413e-26
-1.48352e-26
1.19078e-27
-1.30506e-27
4.0065e-28
1.81331e-27
1.16795e-27
-1.30382e-27
-4.1107e-27
-1.62123e-27
-4.68498e-28
0
0
0
0
-2.73396e-28
0
)
;
    }
    frontAndBack
    {
        type            empty;
    }
}


// ************************************************************************* //
