/*--------------------------------*- C++ -*----------------------------------*\
| =========                 |                                                 |
| \\      /  F ield         | OpenFOAM: The Open Source CFD Toolbox           |
|  \\    /   O peration     | Version:  2312                                  |
|   \\  /    A nd           | Website:  www.openfoam.com                      |
|    \\/     M anipulation  |                                                 |
\*---------------------------------------------------------------------------*/
FoamFile
{
    version     2.0;
    format      ascii;
    arch        "LSB;label=32;scalar=64";
    class       volScalarField;
    location    "9.25";
    object      Uy;
}
// * * * * * * * * * * * * * * * * * * * * * * * * * * * * * * * * * * * * * //

dimensions      [0 1 -1 0 0 0 0];

internalField   nonuniform List<scalar> 
400
(
1.49801e-13
-3.25167e-14
7.6766e-15
-1.67324e-15
3.78504e-16
-2.94548e-18
1.03173e-16
9.50123e-17
7.31006e-17
-4.10947e-17
-8.95683e-17
3.38258e-17
1.41843e-16
4.32114e-17
-2.10959e-17
-1.68006e-17
-1.17173e-17
-3.9197e-17
9.42894e-18
2.23662e-17
2.20408e-14
-4.42743e-15
1.04819e-15
-4.02368e-16
-1.45397e-16
-1.64352e-16
-1.58994e-16
-1.09153e-16
-1.75891e-17
2.03195e-17
-1.09599e-17
6.45551e-17
7.37072e-17
-5.67112e-17
-4.1123e-17
8.49382e-17
1.26787e-16
1.2628e-16
-2.05704e-17
-4.61736e-17
-1.31149e-13
2.86273e-14
-6.78772e-15
1.4044e-15
-3.49413e-16
1.34863e-16
4.71078e-17
-9.66432e-17
-2.19911e-16
-6.11263e-17
2.2641e-17
4.727e-17
5.35527e-17
4.19131e-17
-3.01481e-17
-2.00144e-17
4.62958e-17
1.13456e-16
-1.02833e-16
-1.31564e-16
7.23643e-14
-1.5937e-14
3.47886e-15
-9.12907e-16
1.23356e-16
6.88141e-18
3.09346e-17
-5.24596e-17
-1.54364e-16
-1.36792e-16
-9.31324e-17
-6.86982e-17
1.21531e-16
2.16961e-16
6.45108e-17
-6.55406e-17
-1.51786e-17
-4.37031e-17
-9.91533e-17
-7.23864e-17
2.57466e-14
-5.9406e-15
1.3226e-15
-4.38958e-16
-7.42022e-17
-2.26594e-16
-2.59112e-16
-1.94405e-16
-1.2753e-16
-1.17138e-16
-7.32975e-17
-1.02444e-17
3.09986e-17
3.38057e-17
3.66267e-17
7.41694e-17
1.09208e-16
9.02181e-18
-1.69196e-17
1.02707e-17
-1.09237e-13
2.36442e-14
-5.50166e-15
1.19446e-15
-2.38999e-16
5.68418e-17
-3.99815e-18
-5.94713e-18
-3.05524e-17
-9.38827e-17
-6.80484e-17
1.89775e-17
-4.02398e-17
-4.4534e-17
-2.27954e-17
-1.17759e-17
-5.8215e-17
-5.23796e-17
3.48162e-17
7.72107e-17
1.33248e-13
-2.90707e-14
6.84132e-15
-1.51261e-15
2.50872e-16
-2.41435e-16
-7.37788e-17
5.3018e-17
1.55302e-16
9.50534e-17
3.46172e-17
-4.294e-17
-2.00432e-17
4.06527e-17
9.96336e-17
2.55613e-17
-3.91332e-17
2.32066e-17
6.44703e-17
1.04012e-16
-3.36285e-14
7.09632e-15
-1.73229e-15
4.70194e-16
-2.92988e-17
-3.60032e-17
-1.03467e-16
-1.47329e-17
3.34991e-17
8.54431e-17
9.2439e-17
3.24428e-17
-3.68614e-17
-8.42479e-17
-3.97544e-17
-3.45496e-17
-6.01064e-17
-5.77151e-17
2.38175e-17
8.88062e-17
-1.04454e-13
2.25177e-14
-5.4963e-15
1.27445e-15
-9.56425e-17
2.10348e-16
4.54701e-17
-2.88793e-17
-7.24228e-17
-7.89012e-17
-8.72346e-17
-1.19164e-16
-2.53856e-16
-1.66907e-16
-9.13832e-17
3.11006e-17
5.71727e-18
-6.20548e-17
-1.46267e-17
7.75449e-17
1.70932e-13
-3.7804e-14
8.81442e-15
-1.98987e-15
4.18353e-16
-4.21921e-17
5.82998e-17
4.227e-17
1.31349e-16
6.04976e-17
-3.5745e-17
-1.30933e-16
-1.09524e-16
-1.42735e-17
4.04245e-17
-1.15779e-17
4.02705e-17
6.34203e-17
3.69347e-18
-7.57802e-18
-1.40496e-13
3.11826e-14
-7.17884e-15
1.61697e-15
-3.37573e-16
2.37485e-16
1.53514e-16
4.19561e-17
-3.79634e-17
-3.58249e-17
-8.52053e-17
-1.11305e-16
-3.66301e-17
-1.99146e-17
4.00621e-17
-3.613e-17
-1.94236e-17
-1.50399e-17
-1.80082e-17
-1.92125e-17
6.34201e-14
-1.37045e-14
3.13426e-15
-7.083e-16
1.37332e-16
6.51086e-18
1.91474e-16
8.11971e-17
-1.93327e-16
-1.6398e-16
-5.69934e-17
8.05054e-17
1.20789e-16
-2.02609e-18
1.20521e-17
1.07317e-16
2.24928e-17
-2.56578e-17
1.29075e-17
5.58325e-17
3.63883e-14
-8.64798e-15
1.84152e-15
-5.51834e-16
-2.83918e-18
-1.70497e-16
-1.10564e-16
3.9072e-17
1.0049e-16
4.8349e-17
4.5492e-17
7.31034e-17
1.30113e-16
1.58205e-17
-1.38662e-16
-1.57823e-16
-9.33601e-17
1.39426e-17
4.01435e-17
-1.20363e-17
-1.14065e-13
2.49654e-14
-5.81442e-15
1.44796e-15
-8.53344e-17
1.98322e-16
-4.74692e-17
-6.76222e-17
3.07688e-17
8.23542e-17
2.29507e-17
-8.03458e-17
-1.61888e-16
-8.33418e-17
-1.03366e-16
-1.17544e-16
-7.93918e-17
4.11244e-18
3.04373e-17
-4.68053e-18
1.3262e-13
-2.88915e-14
6.6859e-15
-1.55838e-15
3.36697e-16
2.03529e-16
3.34026e-16
1.90643e-16
-4.33185e-18
-5.7832e-17
-2.06037e-17
6.00592e-18
-9.76875e-17
-4.55446e-17
5.35337e-17
4.50524e-17
-1.27927e-16
-2.03219e-16
-4.04509e-17
2.38863e-17
-7.08965e-14
1.51484e-14
-3.64682e-15
6.86905e-16
-2.48441e-16
8.19535e-18
5.05682e-17
-2.25796e-17
-3.07971e-17
-4.05149e-17
-5.14228e-17
-5.27658e-17
-1.67084e-17
8.59404e-17
7.54807e-17
-2.77059e-17
-1.28681e-16
-1.83407e-16
-1.13978e-16
-3.42398e-17
-3.81939e-14
7.7414e-15
-1.94316e-15
2.9489e-16
-1.75075e-16
-2.51762e-16
-1.20058e-16
-1.24376e-16
-2.41394e-17
3.75008e-17
4.30729e-17
5.93753e-17
1.25893e-16
8.91903e-17
-7.50598e-17
-1.40583e-16
-4.7655e-17
5.61018e-18
-3.78371e-17
-1.78814e-17
1.16331e-13
-2.48654e-14
5.9001e-15
-1.47267e-15
3.98297e-17
-2.34986e-16
-9.48115e-17
-2.40597e-17
-5.64197e-17
-7.72912e-17
-5.83801e-17
-9.15085e-17
-7.30773e-17
-1.19503e-16
-1.43568e-16
-9.40114e-17
3.59553e-17
1.00888e-16
7.16294e-17
3.31209e-17
-4.00213e-14
9.00308e-15
-1.97713e-15
3.53443e-16
-2.86934e-16
-8.54437e-17
-2.27114e-16
-1.19896e-16
-1.10449e-16
-5.94401e-17
-1.03648e-16
-1.64453e-16
-1.91675e-16
-2.08061e-16
-1.79251e-16
-4.73956e-17
4.40331e-17
5.64063e-17
-3.71964e-18
-9.35491e-18
-9.07891e-14
1.91718e-14
-4.5181e-15
8.55798e-16
-3.14508e-16
8.38812e-18
-2.79451e-17
2.88766e-17
1.94211e-17
-7.58016e-18
-5.66195e-17
-1.13213e-18
6.23385e-18
-7.27987e-17
-1.46686e-16
-7.3278e-17
-1.86008e-17
-3.00951e-17
-6.36088e-17
-4.14371e-17
)
;

boundaryField
{
    movingWall
    {
        type            calculated;
        value           uniform -0;
    }
    fixedWalls
    {
        type            calculated;
        value           uniform -0;
    }
    frontAndBack
    {
        type            empty;
    }
}


// ************************************************************************* //
