/*--------------------------------*- C++ -*----------------------------------*\
| =========                 |                                                 |
| \\      /  F ield         | OpenFOAM: The Open Source CFD Toolbox           |
|  \\    /   O peration     | Version:  2312                                  |
|   \\  /    A nd           | Website:  www.openfoam.com                      |
|    \\/     M anipulation  |                                                 |
\*---------------------------------------------------------------------------*/
FoamFile
{
    version     2.0;
    format      ascii;
    arch        "LSB;label=32;scalar=64";
    class       volVectorField;
    location    "9.25";
    object      vorticityField;
}
// * * * * * * * * * * * * * * * * * * * * * * * * * * * * * * * * * * * * * //

dimensions      [0 0 -1 0 0 0 0];

internalField   nonuniform List<vector> 
400
(
(0 -0 1.01292e-11)
(0 -0 -1.36974e-11)
(0 -0 3.05724e-12)
(0 -0 -6.75599e-13)
(0 -0 1.39925e-13)
(0 -0 -2.75331e-14)
(0 -0 9.79578e-15)
(0 -0 -3.01123e-14)
(0 -0 -6.78208e-14)
(0 -0 -4.33719e-14)
(0 -0 -1.9613e-14)
(0 -0 -3.10689e-14)
(0 -0 -2.61665e-14)
(0 -0 -1.62939e-14)
(0 -0 -6.0012e-15)
(0 -0 -5.32722e-14)
(0 -0 -2.93447e-14)
(0 -0 -2.49904e-14)
(0 -0 6.15632e-15)
(0 -0 -3.17952e-15)
(0 -0 4.874e-13)
(0 -0 -1.80111e-12)
(0 -0 3.75401e-13)
(0 -0 -1.46464e-13)
(0 -0 7.80117e-14)
(0 -0 -1.35969e-15)
(0 -0 8.6835e-14)
(0 -0 9.54556e-14)
(0 -0 1.21368e-13)
(0 -0 2.7768e-14)
(0 -0 8.57387e-14)
(0 -0 6.26768e-14)
(0 -0 1.49784e-14)
(0 -0 -1.1483e-14)
(0 -0 6.83751e-14)
(0 -0 1.25211e-13)
(0 -0 3.12392e-14)
(0 -0 -1.47358e-14)
(0 -0 -1.72453e-14)
(0 -0 6.6744e-15)
(0 -0 -4.3704e-12)
(0 -0 1.09454e-11)
(0 -0 -2.53256e-12)
(0 -0 5.89621e-13)
(0 -0 -1.26954e-13)
(0 -0 9.38622e-14)
(0 -0 -5.02556e-14)
(0 -0 -1.08017e-13)
(0 -0 3.55169e-15)
(0 -0 2.42552e-14)
(0 -0 -4.33705e-14)
(0 -0 -2.40139e-14)
(0 -0 -5.35691e-16)
(0 -0 -8.37008e-15)
(0 -0 -6.19275e-15)
(0 -0 7.64439e-15)
(0 -0 6.75572e-14)
(0 -0 -1.49128e-14)
(0 -0 -5.16071e-14)
(0 -0 -3.66536e-15)
(0 -0 2.98644e-12)
(0 -0 -6.23803e-12)
(0 -0 1.42109e-12)
(0 -0 -3.3555e-13)
(0 -0 3.77687e-14)
(0 -0 -9.24217e-15)
(0 -0 -5.9341e-15)
(0 -0 -4.56349e-14)
(0 -0 -8.97484e-14)
(0 -0 -4.8087e-14)
(0 -0 -2.02957e-14)
(0 -0 -5.63876e-15)
(0 -0 8.2776e-14)
(0 -0 -3.2807e-14)
(0 -0 -1.3667e-13)
(0 -0 -1.16389e-13)
(0 -0 2.18374e-15)
(0 -0 -3.55025e-14)
(0 -0 -2.99734e-14)
(0 -0 1.7154e-14)
(0 -0 1.05903e-12)
(0 -0 -2.30687e-12)
(0 -0 4.41744e-13)
(0 -0 -1.9389e-13)
(0 -0 -5.86862e-15)
(0 -0 -1.26911e-13)
(0 -0 -1.05201e-13)
(0 -0 1.31582e-14)
(0 -0 3.48317e-14)
(0 -0 5.96334e-14)
(0 -0 3.77944e-14)
(0 -0 1.1885e-13)
(0 -0 3.15101e-14)
(0 -0 2.76679e-14)
(0 -0 5.82465e-14)
(0 -0 6.14682e-14)
(0 -0 -6.51476e-15)
(0 -0 1.44923e-14)
(0 -0 2.72299e-14)
(0 -0 2.77699e-14)
(0 -0 -6.68907e-12)
(0 -0 9.85857e-12)
(0 -0 -2.24497e-12)
(0 -0 5.26266e-13)
(0 -0 -8.6657e-14)
(0 -0 2.35001e-14)
(0 -0 2.08262e-14)
(0 -0 -2.65542e-15)
(0 -0 -3.58986e-14)
(0 -0 -3.74961e-15)
(0 -0 1.1286e-14)
(0 -0 -5.14292e-14)
(0 -0 -8.76663e-14)
(0 -0 1.74444e-15)
(0 -0 3.27581e-15)
(0 -0 5.06681e-14)
(0 -0 -5.82705e-14)
(0 -0 9.30312e-15)
(0 -0 4.00641e-14)
(0 -0 -3.83077e-14)
(0 -0 7.49039e-12)
(0 -0 -1.17191e-11)
(0 -0 2.75581e-12)
(0 -0 -5.50624e-13)
(0 -0 1.81328e-13)
(0 -0 7.59552e-14)
(0 -0 1.37866e-13)
(0 -0 1.58433e-13)
(0 -0 1.12624e-13)
(0 -0 4.21416e-14)
(0 -0 6.75158e-14)
(0 -0 4.87441e-14)
(0 -0 8.96744e-14)
(0 -0 9.32828e-14)
(0 -0 5.2701e-14)
(0 -0 -1.38767e-14)
(0 -0 5.39746e-14)
(0 -0 3.74654e-14)
(0 -0 8.0805e-15)
(0 -0 1.02569e-14)
(0 -0 -6.74546e-13)
(0 -0 2.75594e-12)
(0 -0 -5.27088e-13)
(0 -0 1.70299e-13)
(0 -0 -1.0483e-13)
(0 -0 -7.4168e-15)
(0 -0 2.12703e-15)
(0 -0 6.79067e-14)
(0 -0 1.00176e-14)
(0 -0 3.2999e-14)
(0 -0 -5.30003e-15)
(0 -0 -1.293e-14)
(0 -0 -3.87741e-14)
(0 -0 -2.73944e-14)
(0 -0 4.96983e-15)
(0 -0 -5.62453e-14)
(0 -0 -5.65267e-14)
(0 -0 8.39239e-15)
(0 -0 1.46521e-14)
(0 -0 -1.12624e-14)
(0 -0 -7.57021e-12)
(0 -0 9.43499e-12)
(0 -0 -2.28696e-12)
(0 -0 4.5875e-13)
(0 -0 -1.6062e-13)
(0 -0 -9.4309e-14)
(0 -0 -1.32343e-13)
(0 -0 -1.7442e-13)
(0 -0 -8.63174e-14)
(0 -0 -1.37006e-13)
(0 -0 -1.12447e-13)
(0 -0 -1.25082e-13)
(0 -0 -1.13194e-13)
(0 -0 -3.79628e-14)
(0 -0 1.98007e-14)
(0 -0 9.71005e-15)
(0 -0 -3.64206e-14)
(0 -0 -2.91395e-14)
(0 -0 1.396e-14)
(0 -0 -6.29181e-15)
(0 -0 1.12257e-11)
(0 -0 -1.54528e-11)
(0 -0 3.60852e-12)
(0 -0 -8.66712e-13)
(0 -0 1.94768e-13)
(0 -0 -3.60054e-14)
(0 -0 -1.86588e-14)
(0 -0 3.441e-14)
(0 -0 1.82276e-15)
(0 -0 -1.67094e-14)
(0 -0 -4.62481e-14)
(0 -0 1.97271e-14)
(0 -0 3.8771e-14)
(0 -0 1.49949e-14)
(0 -0 -5.39406e-14)
(0 -0 -1.53971e-17)
(0 -0 3.46049e-14)
(0 -0 2.34474e-14)
(0 -0 -7.09983e-15)
(0 -0 3.88454e-16)
(0 -0 -1.00639e-11)
(0 -0 1.30335e-11)
(0 -0 -2.95656e-12)
(0 -0 7.92546e-13)
(0 -0 -1.10843e-13)
(0 -0 1.57529e-13)
(0 -0 -1.95529e-14)
(0 -0 -4.62528e-14)
(0 -0 -7.7781e-15)
(0 -0 2.23809e-14)
(0 -0 1.9557e-14)
(0 -0 4.85752e-15)
(0 -0 9.13906e-15)
(0 -0 7.66922e-15)
(0 -0 5.25886e-14)
(0 -0 -5.94857e-15)
(0 -0 2.10901e-15)
(0 -0 1.41541e-16)
(0 -0 -4.17259e-16)
(0 -0 3.72206e-15)
(0 -0 6.38102e-12)
(0 -0 -6.27253e-12)
(0 -0 1.48936e-12)
(0 -0 -2.99693e-13)
(0 -0 1.52796e-13)
(0 -0 3.25193e-14)
(0 -0 1.15889e-13)
(0 -0 -3.84801e-14)
(0 -0 -2.45177e-14)
(0 -0 9.49485e-14)
(0 -0 1.05764e-13)
(0 -0 1.26199e-13)
(0 -0 1.00167e-13)
(0 -0 4.33364e-14)
(0 -0 3.80394e-14)
(0 -0 5.52542e-14)
(0 -0 4.09126e-14)
(0 -0 -2.80636e-14)
(0 -0 8.14903e-15)
(0 -0 -6.874e-15)
(0 -0 1.28326e-12)
(0 -0 -3.18363e-12)
(0 -0 6.74089e-13)
(0 -0 -2.65751e-13)
(0 -0 -1.60764e-14)
(0 -0 -3.78775e-14)
(0 -0 4.80619e-14)
(0 -0 1.29526e-13)
(0 -0 5.51378e-14)
(0 -0 -5.4998e-15)
(0 -0 2.47544e-15)
(0 -0 -1.8643e-14)
(0 -0 -3.28333e-14)
(0 -0 -8.10876e-14)
(0 -0 -9.86796e-14)
(0 -0 -4.96799e-14)
(0 -0 1.71766e-14)
(0 -0 4.04554e-14)
(0 -0 -2.59789e-15)
(0 -0 -2.81072e-15)
(0 -0 -7.74442e-12)
(0 -0 1.04456e-11)
(0 -0 -2.37885e-12)
(0 -0 6.00014e-13)
(0 -0 -1.24964e-13)
(0 -0 -1.04634e-13)
(0 -0 -1.35015e-13)
(0 -0 -1.92813e-14)
(0 -0 -3.92125e-14)
(0 -0 -5.49919e-14)
(0 -0 -9.75852e-14)
(0 -0 -1.26904e-13)
(0 -0 -5.45097e-14)
(0 -0 5.85217e-15)
(0 -0 -3.42024e-15)
(0 -0 2.39744e-15)
(0 -0 1.21657e-14)
(0 -0 6.5193e-14)
(0 -0 -8.79297e-16)
(0 -0 -2.96807e-14)
(0 -0 9.47836e-12)
(0 -0 -1.21055e-11)
(0 -0 2.95015e-12)
(0 -0 -5.8071e-13)
(0 -0 2.57506e-13)
(0 -0 1.08153e-13)
(0 -0 8.00266e-14)
(0 -0 -1.15151e-13)
(0 -0 -5.19526e-14)
(0 -0 -5.58373e-14)
(0 -0 6.38379e-15)
(0 -0 4.65017e-14)
(0 -0 -3.22601e-14)
(0 -0 1.51221e-14)
(0 -0 9.0597e-15)
(0 -0 -4.52511e-14)
(0 -0 -7.90372e-14)
(0 -0 8.7476e-15)
(0 -0 2.27105e-14)
(0 -0 2.87615e-14)
(0 -0 -5.33087e-12)
(0 -0 6.58944e-12)
(0 -0 -1.55457e-12)
(0 -0 3.66943e-13)
(0 -0 -6.7871e-14)
(0 -0 5.7006e-14)
(0 -0 -3.0775e-15)
(0 -0 -8.13652e-15)
(0 -0 2.53115e-14)
(0 -0 2.50425e-14)
(0 -0 2.588e-14)
(0 -0 3.47144e-15)
(0 -0 4.09757e-14)
(0 -0 9.21891e-15)
(0 -0 -3.84697e-14)
(0 -0 -4.75212e-14)
(0 -0 -6.97803e-14)
(0 -0 -5.27399e-14)
(0 -0 1.49168e-14)
(0 -0 -1.22832e-14)
(0 -0 -1.41894e-12)
(0 -0 3.11008e-12)
(0 -0 -7.44651e-13)
(0 -0 1.76809e-13)
(0 -0 -8.17703e-14)
(0 -0 5.50166e-15)
(0 -0 1.27386e-14)
(0 -0 9.0907e-14)
(0 -0 7.03978e-14)
(0 -0 8.80364e-14)
(0 -0 5.63976e-14)
(0 -0 8.28198e-15)
(0 -0 5.71916e-14)
(0 -0 -4.72003e-14)
(0 -0 -5.00824e-14)
(0 -0 2.74048e-15)
(0 -0 4.17244e-14)
(0 -0 9.81786e-16)
(0 -0 -2.34916e-15)
(0 -0 5.57185e-15)
(0 -0 4.45734e-12)
(0 -0 -9.90463e-12)
(0 -0 2.20375e-12)
(0 -0 -6.13133e-13)
(0 -0 6.95585e-14)
(0 -0 -4.05692e-14)
(0 -0 2.10927e-14)
(0 -0 -5.03709e-14)
(0 -0 -5.32315e-15)
(0 -0 -1.96042e-16)
(0 -0 -1.42174e-15)
(0 -0 -1.46972e-15)
(0 -0 -5.70095e-14)
(0 -0 -7.04912e-15)
(0 -0 5.67592e-14)
(0 -0 4.50574e-14)
(0 -0 1.00805e-13)
(0 -0 5.77775e-14)
(0 -0 -6.77672e-15)
(0 -0 1.663e-14)
(0 -0 -1.66526e-12)
(0 -0 3.34363e-12)
(0 -0 -1.00049e-12)
(0 -0 -4.78209e-14)
(0 -0 -1.52309e-13)
(0 -0 -1.83753e-13)
(0 -0 -1.66076e-13)
(0 -0 -6.96487e-14)
(0 -0 -1.02375e-13)
(0 -0 -1.0774e-13)
(0 -0 -1.18922e-13)
(0 -0 -6.30128e-14)
(0 -0 -3.14658e-14)
(0 -0 2.83474e-14)
(0 -0 7.02766e-14)
(0 -0 4.94335e-14)
(0 -0 1.03802e-14)
(0 -0 -4.77527e-15)
(0 -0 -3.36812e-14)
(0 -0 -2.57976e-14)
(0 -0 -5.72516e-12)
(0 -0 8.41026e-12)
(0 -0 -1.64187e-12)
(0 -0 5.82989e-13)
(0 -0 2.36792e-14)
(0 -0 1.64182e-13)
(0 -0 1.10469e-13)
(0 -0 8.60518e-14)
(0 -0 5.05644e-14)
(0 -0 4.66061e-14)
(0 -0 5.48549e-14)
(0 -0 6.04954e-14)
(0 -0 1.99384e-14)
(0 -0 -1.5292e-14)
(0 -0 -5.4258e-14)
(0 -0 1.28085e-14)
(0 -0 -4.98918e-14)
(0 -0 -5.87109e-14)
(0 -0 2.59708e-14)
(0 -0 3.76096e-14)
)
;

boundaryField
{
    movingWall
    {
        type            calculated;
        value           nonuniform List<vector> 
20
(
(0 -0 -1.1425e-11)
(0 -0 1.0137e-11)
(0 -0 -1.47633e-12)
(0 -0 9.08857e-13)
(0 -0 2.7053e-13)
(0 -0 3.39519e-13)
(0 -0 2.68502e-13)
(0 -0 1.82372e-13)
(0 -0 2.18399e-13)
(0 -0 2.14441e-13)
(0 -0 2.22689e-13)
(0 -0 9.51032e-14)
(0 -0 3.72423e-14)
(0 -0 7.35258e-14)
(0 -0 -4.79253e-17)
(0 -0 1.01626e-13)
(0 -0 4.87272e-14)
(0 -0 3.99081e-14)
(0 -0 4.32747e-14)
(0 -0 9.93224e-14)
)
;
    }
    fixedWalls
    {
        type            calculated;
        value           nonuniform List<vector> 
60
(
(0 -0 5.83211e-11)
(0 -0 7.54238e-12)
(0 -0 -4.65779e-11)
(0 -0 2.62894e-11)
(0 -0 9.37706e-12)
(0 -0 -4.18247e-11)
(0 -0 5.03719e-11)
(0 -0 -1.14727e-11)
(0 -0 -4.11582e-11)
(0 -0 6.62856e-11)
(0 -0 -5.53309e-11)
(0 -0 2.67775e-11)
(0 -0 1.30646e-11)
(0 -0 -4.44604e-11)
(0 -0 5.21534e-11)
(0 -0 -2.81147e-11)
(0 -0 -1.36512e-11)
(0 -0 4.1843e-11)
(0 -0 -1.4572e-11)
(0 -0 -3.48791e-11)
(0 -0 -8.94649e-15)
(0 -0 1.84694e-14)
(0 -0 2.55207e-14)
(0 -0 2.89546e-14)
(0 -0 2.29968e-14)
(0 -0 -5.79893e-14)
(0 -0 -1.44996e-14)
(0 -0 -3.55225e-14)
(0 -0 -3.1018e-14)
(0 -0 3.03121e-15)
(0 -0 7.68498e-15)
(0 -0 -2.2333e-14)
(0 -0 4.81452e-15)
(0 -0 -2.52328e-14)
(0 -0 1.75506e-14)
(0 -0 -1.34091e-14)
(0 -0 7.15256e-15)
(0 -0 1.38567e-14)
(0 -0 -2.33631e-14)
(0 -0 4.36799e-14)
(0 -0 1.7768e-11)
(0 -0 -1.57223e-11)
(0 -0 3.08435e-12)
(0 -0 -7.2981e-13)
(0 -0 7.82119e-14)
(0 -0 -7.1942e-14)
(0 -0 -1.23431e-13)
(0 -0 -1.36234e-13)
(0 -0 -1.46837e-13)
(0 -0 -6.06758e-14)
(0 -0 -3.69169e-14)
(0 -0 -1.54495e-13)
(0 -0 -8.78793e-14)
(0 -0 -1.62939e-14)
(0 -0 -6.0012e-15)
(0 -0 9.3786e-16)
(0 -0 -2.23964e-15)
(0 -0 2.11462e-15)
(0 -0 -3.82526e-14)
(0 -0 -3.17952e-15)
)
;
    }
    frontAndBack
    {
        type            empty;
    }
}


// ************************************************************************* //
