/*--------------------------------*- C++ -*----------------------------------*\
| =========                 |                                                 |
| \\      /  F ield         | OpenFOAM: The Open Source CFD Toolbox           |
|  \\    /   O peration     | Version:  2312                                  |
|   \\  /    A nd           | Website:  www.openfoam.com                      |
|    \\/     M anipulation  |                                                 |
\*---------------------------------------------------------------------------*/
FoamFile
{
    version     2.0;
    format      ascii;
    arch        "LSB;label=32;scalar=64";
    class       volVectorField;
    location    "6.625";
    object      diffU;
}
// * * * * * * * * * * * * * * * * * * * * * * * * * * * * * * * * * * * * * //

dimensions      [0 1 -1 0 0 0 0];

internalField   nonuniform List<vector> 
400
(
(0 0 0)
(1.59872e-14 -1.93046e-13 0)
(1.23235e-14 -1.51125e-13 0)
(1.21014e-14 -1.60822e-13 0)
(1.18794e-14 -1.58813e-13 0)
(1.17684e-14 -1.59354e-13 0)
(1.17684e-14 -1.59233e-13 0)
(1.17684e-14 -1.59138e-13 0)
(1.17684e-14 -1.59172e-13 0)
(1.15463e-14 -1.59244e-13 0)
(1.15463e-14 -1.59228e-13 0)
(1.18794e-14 -1.59187e-13 0)
(1.15463e-14 -1.59128e-13 0)
(1.15463e-14 -1.59162e-13 0)
(1.15463e-14 -1.59142e-13 0)
(1.14353e-14 -1.59115e-13 0)
(1.14353e-14 -1.59077e-13 0)
(1.11022e-14 -1.59183e-13 0)
(1.13243e-14 -1.59282e-13 0)
(1.11022e-14 -1.59268e-13 0)
(3.65263e-14 -1.53769e-13 0)
(3.55271e-15 -1.60068e-13 0)
(1.08802e-14 -1.58719e-13 0)
(1.08802e-14 -1.58864e-13 0)
(1.08802e-14 -1.5893e-13 0)
(1.08802e-14 -1.5906e-13 0)
(1.04361e-14 -1.59185e-13 0)
(1.04361e-14 -1.59239e-13 0)
(1.11022e-14 -1.59266e-13 0)
(1.04361e-14 -1.59237e-13 0)
(1.08802e-14 -1.59257e-13 0)
(1.04361e-14 -1.59183e-13 0)
(1.08802e-14 -1.59156e-13 0)
(1.06581e-14 -1.5921e-13 0)
(1.06581e-14 -1.59259e-13 0)
(1.08802e-14 -1.5925e-13 0)
(1.11022e-14 -1.59203e-13 0)
(1.14353e-14 -1.59229e-13 0)
(1.15463e-14 -1.59271e-13 0)
(1.13243e-14 -1.5925e-13 0)
(3.55271e-15 -2.97683e-13 0)
(1.34337e-14 -1.28903e-13 0)
(1.06581e-14 -1.66352e-13 0)
(1.08802e-14 -1.57597e-13 0)
(1.11022e-14 -1.5942e-13 0)
(1.11022e-14 -1.58939e-13 0)
(1.14353e-14 -1.59174e-13 0)
(1.15463e-14 -1.59329e-13 0)
(1.14353e-14 -1.59187e-13 0)
(1.14353e-14 -1.59072e-13 0)
(1.14353e-14 -1.59286e-13 0)
(1.11022e-14 -1.59333e-13 0)
(1.15463e-14 -1.59326e-13 0)
(1.14353e-14 -1.59319e-13 0)
(1.17684e-14 -1.59356e-13 0)
(1.16573e-14 -1.59244e-13 0)
(1.13243e-14 -1.5928e-13 0)
(1.13243e-14 -1.59304e-13 0)
(1.11022e-14 -1.59324e-13 0)
(1.11022e-14 -1.59282e-13 0)
(-1.53211e-14 -4.33371e-14 0)
(1.77636e-14 -1.84498e-13 0)
(9.99201e-15 -1.53395e-13 0)
(1.21014e-14 -1.60723e-13 0)
(1.14353e-14 -1.58981e-13 0)
(1.15463e-14 -1.59297e-13 0)
(1.16573e-14 -1.5923e-13 0)
(1.15463e-14 -1.59279e-13 0)
(1.13243e-14 -1.5919e-13 0)
(1.15463e-14 -1.59166e-13 0)
(1.14353e-14 -1.59258e-13 0)
(1.11022e-14 -1.59357e-13 0)
(1.14353e-14 -1.5941e-13 0)
(1.13243e-14 -1.59363e-13 0)
(1.13243e-14 -1.59222e-13 0)
(1.11022e-14 -1.59072e-13 0)
(1.14353e-14 -1.59111e-13 0)
(1.11022e-14 -1.59245e-13 0)
(1.15463e-14 -1.59415e-13 0)
(1.14353e-14 -1.59354e-13 0)
(4.00791e-14 -1.76997e-13 0)
(4.44089e-15 -1.55959e-13 0)
(1.24345e-14 -1.60072e-13 0)
(1.11022e-14 -1.59238e-13 0)
(1.14353e-14 -1.59329e-13 0)
(1.15463e-14 -1.59219e-13 0)
(1.17684e-14 -1.59162e-13 0)
(1.16573e-14 -1.59091e-13 0)
(1.19904e-14 -1.59097e-13 0)
(1.18794e-14 -1.59121e-13 0)
(1.17684e-14 -1.59127e-13 0)
(1.16573e-14 -1.5923e-13 0)
(1.13243e-14 -1.59302e-13 0)
(1.11022e-14 -1.59225e-13 0)
(1.11022e-14 -1.59218e-13 0)
(1.13243e-14 -1.59277e-13 0)
(1.13243e-14 -1.59289e-13 0)
(1.13243e-14 -1.59328e-13 0)
(1.14353e-14 -1.59365e-13 0)
(1.14353e-14 -1.59274e-13 0)
(6.66134e-16 -2.45227e-13 0)
(1.44329e-14 -1.3976e-13 0)
(1.13243e-14 -1.63804e-13 0)
(1.08802e-14 -1.58268e-13 0)
(1.08802e-14 -1.59534e-13 0)
(1.06581e-14 -1.59239e-13 0)
(1.06581e-14 -1.59312e-13 0)
(1.08802e-14 -1.59288e-13 0)
(1.11022e-14 -1.59288e-13 0)
(1.14353e-14 -1.59267e-13 0)
(1.16573e-14 -1.59195e-13 0)
(1.16573e-14 -1.59126e-13 0)
(1.15463e-14 -1.59142e-13 0)
(1.14353e-14 -1.59173e-13 0)
(1.17684e-14 -1.59283e-13 0)
(1.16573e-14 -1.59319e-13 0)
(1.17684e-14 -1.59298e-13 0)
(1.14353e-14 -1.59334e-13 0)
(1.16573e-14 -1.5925e-13 0)
(1.14353e-14 -1.5916e-13 0)
(6.66134e-16 -4.16324e-14 0)
(1.43219e-14 -1.84521e-13 0)
(1.11022e-14 -1.53043e-13 0)
(1.16573e-14 -1.60287e-13 0)
(1.13243e-14 -1.58812e-13 0)
(1.16573e-14 -1.59269e-13 0)
(1.14353e-14 -1.59315e-13 0)
(1.14353e-14 -1.59541e-13 0)
(1.16573e-14 -1.59613e-13 0)
(1.15463e-14 -1.59436e-13 0)
(1.14353e-14 -1.59159e-13 0)
(1.13243e-14 -1.59087e-13 0)
(1.15463e-14 -1.59225e-13 0)
(1.15463e-14 -1.59251e-13 0)
(1.14353e-14 -1.59146e-13 0)
(1.11022e-14 -1.59138e-13 0)
(1.14353e-14 -1.59204e-13 0)
(1.14353e-14 -1.59224e-13 0)
(1.13243e-14 -1.59182e-13 0)
(1.13243e-14 -1.59161e-13 0)
(2.80886e-14 -1.93634e-13 0)
(5.9952e-15 -1.52067e-13 0)
(1.13243e-14 -1.60858e-13 0)
(1.13243e-14 -1.58805e-13 0)
(1.14353e-14 -1.59205e-13 0)
(1.13243e-14 -1.5909e-13 0)
(1.14353e-14 -1.59109e-13 0)
(1.13243e-14 -1.5917e-13 0)
(1.06581e-14 -1.59295e-13 0)
(1.06581e-14 -1.59296e-13 0)
(1.06581e-14 -1.59226e-13 0)
(1.13243e-14 -1.59294e-13 0)
(1.13243e-14 -1.59244e-13 0)
(1.11022e-14 -1.59178e-13 0)
(1.11022e-14 -1.5914e-13 0)
(1.11022e-14 -1.59238e-13 0)
(1.14353e-14 -1.59335e-13 0)
(1.13243e-14 -1.59231e-13 0)
(1.13243e-14 -1.59218e-13 0)
(1.13243e-14 -1.5926e-13 0)
(4.44089e-16 -2.22315e-13 0)
(1.44329e-14 -1.45505e-13 0)
(1.11022e-14 -1.62751e-13 0)
(1.13243e-14 -1.58676e-13 0)
(1.13243e-14 -1.59384e-13 0)
(1.15463e-14 -1.59223e-13 0)
(1.15463e-14 -1.59293e-13 0)
(1.17684e-14 -1.59271e-13 0)
(1.19904e-14 -1.59276e-13 0)
(1.16573e-14 -1.59349e-13 0)
(1.18794e-14 -1.59327e-13 0)
(1.15463e-14 -1.59363e-13 0)
(1.14353e-14 -1.59211e-13 0)
(1.15463e-14 -1.59142e-13 0)
(1.14353e-14 -1.59211e-13 0)
(1.16573e-14 -1.59247e-13 0)
(1.15463e-14 -1.59263e-13 0)
(1.14353e-14 -1.59175e-13 0)
(1.15463e-14 -1.59155e-13 0)
(1.13243e-14 -1.59216e-13 0)
(1.59872e-14 -6.12249e-14 0)
(1.11022e-14 -1.8111e-13 0)
(1.18794e-14 -1.54182e-13 0)
(1.15463e-14 -1.60453e-13 0)
(1.13243e-14 -1.59014e-13 0)
(1.15463e-14 -1.59361e-13 0)
(1.15463e-14 -1.59298e-13 0)
(1.15463e-14 -1.5925e-13 0)
(1.13243e-14 -1.59176e-13 0)
(1.11022e-14 -1.59177e-13 0)
(1.08802e-14 -1.59175e-13 0)
(1.11022e-14 -1.59236e-13 0)
(1.08802e-14 -1.59274e-13 0)
(1.08802e-14 -1.59195e-13 0)
(1.06581e-14 -1.59158e-13 0)
(1.06581e-14 -1.59242e-13 0)
(1.08802e-14 -1.59267e-13 0)
(1.08802e-14 -1.59288e-13 0)
(1.11022e-14 -1.59228e-13 0)
(1.13243e-14 -1.59215e-13 0)
(5.77316e-15 -2.56458e-13 0)
(1.21014e-14 -1.37712e-13 0)
(1.08802e-14 -1.64048e-13 0)
(1.17684e-14 -1.58038e-13 0)
(1.14353e-14 -1.5954e-13 0)
(1.15463e-14 -1.59325e-13 0)
(1.13243e-14 -1.59339e-13 0)
(1.14353e-14 -1.59126e-13 0)
(1.16573e-14 -1.59101e-13 0)
(1.15463e-14 -1.59192e-13 0)
(1.16573e-14 -1.59225e-13 0)
(1.19904e-14 -1.59156e-13 0)
(1.14353e-14 -1.59201e-13 0)
(1.14353e-14 -1.59157e-13 0)
(1.15463e-14 -1.59192e-13 0)
(1.14353e-14 -1.59394e-13 0)
(1.15463e-14 -1.59391e-13 0)
(1.14353e-14 -1.59293e-13 0)
(1.13243e-14 -1.59265e-13 0)
(1.13243e-14 -1.59287e-13 0)
(2.19824e-14 -7.2413e-14 0)
(9.76996e-15 -1.77923e-13 0)
(1.23235e-14 -1.54835e-13 0)
(1.08802e-14 -1.60187e-13 0)
(1.16573e-14 -1.58974e-13 0)
(1.14353e-14 -1.59196e-13 0)
(1.13243e-14 -1.59206e-13 0)
(1.08802e-14 -1.59276e-13 0)
(1.14353e-14 -1.59255e-13 0)
(1.13243e-14 -1.59206e-13 0)
(1.08802e-14 -1.59243e-13 0)
(1.15463e-14 -1.59194e-13 0)
(1.13243e-14 -1.59133e-13 0)
(1.14353e-14 -1.59056e-13 0)
(1.13243e-14 -1.59199e-13 0)
(1.14353e-14 -1.59294e-13 0)
(1.13243e-14 -1.59212e-13 0)
(1.11022e-14 -1.59115e-13 0)
(1.14353e-14 -1.59193e-13 0)
(1.14353e-14 -1.59242e-13 0)
(3.9968e-15 -1.83269e-13 0)
(1.06581e-14 -1.54077e-13 0)
(8.88178e-15 -1.6048e-13 0)
(1.08802e-14 -1.5905e-13 0)
(1.04361e-14 -1.59313e-13 0)
(1.06581e-14 -1.5908e-13 0)
(1.08802e-14 -1.59137e-13 0)
(1.11022e-14 -1.59289e-13 0)
(1.11022e-14 -1.59266e-13 0)
(1.08802e-14 -1.59159e-13 0)
(1.08802e-14 -1.59225e-13 0)
(1.08802e-14 -1.59233e-13 0)
(1.08802e-14 -1.59156e-13 0)
(1.06581e-14 -1.59228e-13 0)
(1.08802e-14 -1.59339e-13 0)
(1.11022e-14 -1.5933e-13 0)
(1.08802e-14 -1.59298e-13 0)
(1.11022e-14 -1.59281e-13 0)
(1.13243e-14 -1.59273e-13 0)
(1.13243e-14 -1.59253e-13 0)
(5.32907e-15 -2.41869e-13 0)
(1.37668e-14 -1.41533e-13 0)
(1.17684e-14 -1.63526e-13 0)
(1.08802e-14 -1.5846e-13 0)
(1.08802e-14 -1.59694e-13 0)
(1.11022e-14 -1.59474e-13 0)
(1.14353e-14 -1.59403e-13 0)
(1.16573e-14 -1.59316e-13 0)
(1.16573e-14 -1.59244e-13 0)
(1.15463e-14 -1.5918e-13 0)
(1.16573e-14 -1.59147e-13 0)
(1.14353e-14 -1.59123e-13 0)
(1.16573e-14 -1.59104e-13 0)
(1.16573e-14 -1.59273e-13 0)
(1.14353e-14 -1.59299e-13 0)
(1.15463e-14 -1.59213e-13 0)
(1.13243e-14 -1.59296e-13 0)
(1.13243e-14 -1.59382e-13 0)
(1.13243e-14 -1.59386e-13 0)
(1.13243e-14 -1.59328e-13 0)
(3.77476e-15 -2.89178e-15 0)
(1.26565e-14 -1.93567e-13 0)
(1.04361e-14 -1.51238e-13 0)
(1.14353e-14 -1.61026e-13 0)
(1.08802e-14 -1.59043e-13 0)
(1.06581e-14 -1.59695e-13 0)
(1.06581e-14 -1.59424e-13 0)
(1.06581e-14 -1.59299e-13 0)
(1.06581e-14 -1.59261e-13 0)
(1.06581e-14 -1.59173e-13 0)
(1.06581e-14 -1.5913e-13 0)
(1.08802e-14 -1.59141e-13 0)
(1.08802e-14 -1.59191e-13 0)
(1.08802e-14 -1.5925e-13 0)
(1.08802e-14 -1.59202e-13 0)
(1.11022e-14 -1.59206e-13 0)
(1.11022e-14 -1.59287e-13 0)
(1.13243e-14 -1.59367e-13 0)
(1.14353e-14 -1.59381e-13 0)
(1.14353e-14 -1.59291e-13 0)
(3.71925e-14 -2.63815e-13 0)
(4.21885e-15 -1.36252e-13 0)
(1.19904e-14 -1.64601e-13 0)
(1.08802e-14 -1.57991e-13 0)
(1.15463e-14 -1.59487e-13 0)
(1.13243e-14 -1.59292e-13 0)
(1.08802e-14 -1.59398e-13 0)
(1.11022e-14 -1.59342e-13 0)
(1.08802e-14 -1.59264e-13 0)
(1.08802e-14 -1.59179e-13 0)
(1.06581e-14 -1.59249e-13 0)
(1.11022e-14 -1.59314e-13 0)
(1.15463e-14 -1.59298e-13 0)
(1.13243e-14 -1.59313e-13 0)
(1.15463e-14 -1.59347e-13 0)
(1.15463e-14 -1.59323e-13 0)
(1.14353e-14 -1.59335e-13 0)
(1.14353e-14 -1.5939e-13 0)
(1.13243e-14 -1.59356e-13 0)
(1.13243e-14 -1.5925e-13 0)
(-1.55431e-14 -1.80815e-13 0)
(1.86517e-14 -1.54689e-13 0)
(1.11022e-14 -1.60469e-13 0)
(1.18794e-14 -1.59112e-13 0)
(1.15463e-14 -1.593e-13 0)
(1.16573e-14 -1.59152e-13 0)
(1.16573e-14 -1.59227e-13 0)
(1.14353e-14 -1.59237e-13 0)
(1.13243e-14 -1.59164e-13 0)
(1.11022e-14 -1.59247e-13 0)
(1.15463e-14 -1.59404e-13 0)
(1.13243e-14 -1.59459e-13 0)
(1.14353e-14 -1.59436e-13 0)
(1.13243e-14 -1.5939e-13 0)
(1.16573e-14 -1.59312e-13 0)
(1.13243e-14 -1.59201e-13 0)
(1.14353e-14 -1.59236e-13 0)
(1.13243e-14 -1.59295e-13 0)
(1.15463e-14 -1.59266e-13 0)
(1.13243e-14 -1.59233e-13 0)
(9.76996e-15 -4.31338e-14 0)
(1.21014e-14 -1.8447e-13 0)
(1.13243e-14 -1.53302e-13 0)
(1.16573e-14 -1.60627e-13 0)
(1.15463e-14 -1.59041e-13 0)
(1.14353e-14 -1.59251e-13 0)
(1.15463e-14 -1.59189e-13 0)
(1.16573e-14 -1.59116e-13 0)
(1.15463e-14 -1.59154e-13 0)
(1.18794e-14 -1.593e-13 0)
(1.17684e-14 -1.59291e-13 0)
(1.16573e-14 -1.59229e-13 0)
(1.14353e-14 -1.59291e-13 0)
(1.13243e-14 -1.5929e-13 0)
(1.08802e-14 -1.5925e-13 0)
(1.11022e-14 -1.59305e-13 0)
(1.13243e-14 -1.59248e-13 0)
(1.11022e-14 -1.59202e-13 0)
(1.13243e-14 -1.5921e-13 0)
(1.13243e-14 -1.59235e-13 0)
(4.19664e-14 -2.03938e-13 0)
(2.88658e-15 -1.49914e-13 0)
(1.22125e-14 -1.61628e-13 0)
(1.06581e-14 -1.58868e-13 0)
(1.11022e-14 -1.59352e-13 0)
(1.08802e-14 -1.59109e-13 0)
(1.06581e-14 -1.59157e-13 0)
(1.04361e-14 -1.59282e-13 0)
(1.06581e-14 -1.59369e-13 0)
(1.08802e-14 -1.59358e-13 0)
(1.06581e-14 -1.59232e-13 0)
(1.08802e-14 -1.59162e-13 0)
(1.11022e-14 -1.59234e-13 0)
(1.11022e-14 -1.59289e-13 0)
(1.14353e-14 -1.59353e-13 0)
(1.13243e-14 -1.59363e-13 0)
(1.13243e-14 -1.59225e-13 0)
(1.13243e-14 -1.59223e-13 0)
(1.14353e-14 -1.59314e-13 0)
(1.14353e-14 -1.59242e-13 0)
(-3.33067e-15 -2.48135e-13 0)
(1.60982e-14 -1.40101e-13 0)
(1.17684e-14 -1.63997e-13 0)
(1.21014e-14 -1.58331e-13 0)
(1.17684e-14 -1.59445e-13 0)
(1.18794e-14 -1.59104e-13 0)
(1.21014e-14 -1.5913e-13 0)
(1.22125e-14 -1.59325e-13 0)
(1.19904e-14 -1.59373e-13 0)
(1.17684e-14 -1.5934e-13 0)
(1.17684e-14 -1.59301e-13 0)
(1.17684e-14 -1.5929e-13 0)
(1.16573e-14 -1.59358e-13 0)
(1.17684e-14 -1.59363e-13 0)
(1.14353e-14 -1.59312e-13 0)
(1.14353e-14 -1.59257e-13 0)
(1.11022e-14 -1.59241e-13 0)
(1.15463e-14 -1.59256e-13 0)
(1.13243e-14 -1.5928e-13 0)
(1.13243e-14 -1.59214e-13 0)
)
;

boundaryField
{
    movingWall
    {
        type            calculated;
        value           uniform (1.13243e-14 -1.59227e-13 0);
    }
    fixedWalls
    {
        type            calculated;
        value           uniform (1.13243e-14 -1.59227e-13 0);
    }
    frontAndBack
    {
        type            empty;
    }
}


// ************************************************************************* //
