/*--------------------------------*- C++ -*----------------------------------*\
| =========                 |                                                 |
| \\      /  F ield         | OpenFOAM: The Open Source CFD Toolbox           |
|  \\    /   O peration     | Version:  2312                                  |
|   \\  /    A nd           | Website:  www.openfoam.com                      |
|    \\/     M anipulation  |                                                 |
\*---------------------------------------------------------------------------*/
FoamFile
{
    version     2.0;
    format      ascii;
    arch        "LSB;label=32;scalar=64";
    class       volScalarField;
    location    "6.625";
    object      divU;
}
// * * * * * * * * * * * * * * * * * * * * * * * * * * * * * * * * * * * * * //

dimensions      [0 0 -1 0 0 0 0];

internalField   nonuniform List<scalar> 
400
(
1.58022e-11
-2.21911e-12
4.8154e-13
-1.77299e-13
1.70074e-14
4.08218e-15
3.73383e-15
7.81918e-15
-2.54958e-14
-2.5422e-15
-2.98024e-15
3.55912e-14
-1.00924e-14
8.27229e-15
5.40491e-15
-1.80993e-14
-9.65784e-15
-4.98921e-14
-9.88075e-15
5.42101e-14
-2.80266e-11
3.84284e-12
-7.7005e-13
3.34886e-13
-7.07836e-14
-8.70393e-15
-4.46007e-14
4.29269e-14
5.43834e-14
-3.96292e-14
-8.82856e-15
-6.10513e-15
2.43846e-14
-6.16311e-14
3.82182e-14
-3.89774e-15
5.14167e-14
4.64174e-14
-4.11868e-14
-2.71051e-14
1.04897e-11
-1.71724e-12
2.232e-13
-1.22129e-13
3.24545e-14
2.18401e-14
5.92509e-14
-1.52775e-14
-1.93314e-14
-5.49547e-15
-3.60695e-14
-2.35071e-14
2.60918e-14
-2.271e-14
4.18507e-14
-4.03141e-14
-2.07273e-14
-6.36309e-14
-1.35275e-15
2.71051e-14
1.00018e-11
-1.67411e-13
6.50896e-14
-1.51339e-14
-1.26375e-14
-3.32617e-14
6.2122e-15
8.51729e-15
1.67182e-14
1.67686e-14
-4.72165e-14
1.39006e-14
2.84458e-14
-1.32945e-14
1.42974e-15
-1.65159e-14
5.48002e-15
-1.18085e-14
2.16981e-14
-2.71051e-14
-1.80249e-11
1.70433e-12
-3.79486e-13
1.76221e-13
-4.07989e-14
2.6741e-14
2.51583e-14
7.5713e-15
6.98617e-15
-4.75491e-14
1.33277e-14
-1.72492e-14
-2.59996e-14
-4.8481e-14
4.95527e-14
-1.41003e-14
-1.31512e-14
-2.0714e-14
3.81604e-14
0
1.27936e-11
-1.80232e-12
3.50596e-13
-1.45528e-13
1.08538e-14
-5.3854e-15
-1.72117e-14
1.67073e-14
3.67097e-14
2.93487e-14
1.00802e-14
2.4147e-14
8.78568e-15
3.10438e-15
2.58936e-15
2.68845e-14
-4.69375e-15
1.67108e-14
2.93921e-14
-5.42101e-14
4.39102e-12
-2.14097e-13
2.17316e-14
-9.56401e-15
4.37514e-14
9.56567e-15
3.04212e-15
2.85618e-14
8.87917e-15
-6.13522e-16
-4.73004e-14
7.37844e-15
2.56762e-14
2.54148e-15
-3.73606e-14
7.84402e-15
1.86429e-14
-2.71352e-14
5.54829e-15
0
-1.69136e-11
2.19666e-12
-4.34108e-13
1.51514e-13
-6.76905e-14
1.4222e-14
5.24543e-15
-2.57002e-14
-3.87127e-14
8.06854e-15
4.42971e-14
6.10835e-14
-5.41964e-14
1.34519e-14
-1.67453e-14
5.11125e-14
-1.43602e-14
4.90112e-15
8.25031e-15
0
1.24683e-11
-1.81897e-12
3.14845e-13
-1.2169e-13
3.27675e-14
-1.29229e-14
-1.36325e-14
4.75755e-14
-2.68584e-14
1.99234e-14
-3.18761e-14
-1.44682e-14
-2.97729e-15
3.89265e-14
8.58411e-15
-3.45232e-15
1.95409e-14
-7.90947e-16
-1.99148e-14
-2.71051e-14
-2.98156e-12
3.96915e-13
-1.13038e-13
-3.68181e-15
-9.90442e-15
3.99542e-15
8.88167e-15
-1.92341e-14
-9.34188e-15
-4.56557e-14
5.44377e-15
6.21946e-15
-2.04054e-15
1.02851e-14
-4.37179e-14
3.61188e-14
-2.0314e-14
1.45095e-14
5.03813e-14
0
-1.5992e-12
8.51159e-13
-1.24135e-13
7.71864e-14
-3.30657e-14
2.05514e-14
-8.94853e-15
5.95087e-14
-1.72092e-14
5.73339e-15
2.57225e-14
-1.66555e-14
-1.50539e-14
5.1237e-14
6.41934e-15
-2.32717e-14
3.94529e-14
-4.95145e-14
-2.54556e-16
0
8.23994e-12
-2.6014e-12
4.76645e-13
-1.59468e-13
7.09657e-14
-3.62382e-14
-4.29688e-14
-1.10213e-14
4.75518e-14
-4.52119e-14
-1.34632e-15
8.4121e-14
1.65895e-14
-1.0002e-14
-8.3045e-15
1.02305e-14
-5.47206e-15
5.92391e-15
2.59919e-14
-2.71051e-14
-1.77538e-11
4.12759e-12
-8.53296e-13
3.11315e-13
-8.23104e-14
1.72181e-14
-8.50325e-15
1.21143e-14
-3.26414e-14
1.15222e-14
8.32244e-15
9.90456e-15
-6.18336e-14
2.25465e-14
8.79582e-15
-8.7962e-15
-1.39031e-14
6.04985e-14
-2.04735e-14
0
1.76996e-11
-3.29078e-12
6.1298e-13
-2.65824e-13
2.59733e-14
9.92343e-15
1.69954e-14
1.1121e-14
-4.99314e-15
1.01939e-14
1.77803e-14
1.90905e-14
-1.10861e-14
-6.78954e-15
2.25317e-14
-2.3463e-14
-1.27958e-14
-2.36166e-15
-4.16784e-15
-2.71051e-14
-2.81893e-12
1.19466e-12
-2.53431e-13
7.93066e-14
-7.53926e-15
-2.6094e-14
-9.57406e-15
8.50867e-15
-6.98851e-15
1.02823e-14
3.4655e-14
-2.70888e-14
-3.04881e-14
-1.07771e-14
-9.4206e-15
1.97603e-14
3.75702e-14
2.39948e-14
-1.15382e-15
0
-1.59378e-11
1.39611e-12
-2.82038e-13
1.08104e-13
4.80986e-14
-2.60951e-14
-1.69439e-14
1.46899e-14
2.75718e-15
2.78413e-15
-1.97635e-14
4.95007e-14
-7.99004e-16
-2.48076e-14
6.65483e-15
-3.39861e-14
1.55852e-14
-2.29854e-14
1.0382e-14
0
2.01391e-11
-2.17885e-12
4.41243e-13
-2.09757e-13
1.13334e-14
5.17584e-15
3.09983e-14
-4.40437e-14
-4.04721e-14
4.49212e-14
3.02324e-14
-2.33279e-14
-9.17294e-17
3.16506e-14
4.34613e-14
-3.22473e-14
-3.00181e-14
4.99443e-14
2.49492e-14
-2.71051e-14
-2.41235e-12
6.2971e-13
-1.6253e-13
5.85896e-14
6.08635e-15
-1.75841e-14
3.79397e-14
5.70298e-15
-3.39172e-14
3.39098e-14
-6.8485e-15
6.37777e-15
-3.41361e-14
-3.95816e-14
-4.1969e-14
6.00013e-14
-1.83176e-15
2.91181e-15
-6.93012e-15
0
-1.82688e-11
1.46156e-12
-2.83285e-13
1.25584e-13
-3.42347e-14
2.41889e-14
-9.16309e-14
3.90039e-14
2.54358e-14
2.81716e-15
-7.83833e-15
2.47672e-16
1.33338e-14
3.4484e-14
6.12703e-15
1.06597e-14
-1.044e-15
2.46903e-14
-1.3915e-14
-2.71051e-14
1.2387e-11
-1.35525e-12
2.98156e-13
-1.35525e-13
2.71051e-14
0
2.71051e-14
0
-2.71051e-14
0
0
0
2.71051e-14
0
0
0
0
2.71051e-14
0
0
)
;

boundaryField
{
    movingWall
    {
        type            extrapolatedCalculated;
        value           nonuniform List<scalar> 
20
(
1.2387e-11
-1.35525e-12
2.98156e-13
-1.35525e-13
2.71051e-14
0
2.71051e-14
0
-2.71051e-14
0
0
0
2.71051e-14
0
0
0
0
2.71051e-14
0
0
)
;
    }
    fixedWalls
    {
        type            extrapolatedCalculated;
        value           nonuniform List<scalar> 
60
(
1.58022e-11
-2.80266e-11
1.04897e-11
1.00018e-11
-1.80249e-11
1.27936e-11
4.39102e-12
-1.69136e-11
1.24683e-11
-2.98156e-12
-1.5992e-12
8.23994e-12
-1.77538e-11
1.76996e-11
-2.81893e-12
-1.59378e-11
2.01391e-11
-2.41235e-12
-1.82688e-11
1.2387e-11
5.42101e-14
-2.71051e-14
2.71051e-14
-2.71051e-14
0
-5.42101e-14
0
0
-2.71051e-14
0
0
-2.71051e-14
0
-2.71051e-14
0
0
-2.71051e-14
0
-2.71051e-14
0
1.58022e-11
-2.21911e-12
4.8154e-13
-1.77299e-13
1.70074e-14
4.08218e-15
3.73383e-15
7.81918e-15
-2.54958e-14
-2.5422e-15
-2.98024e-15
3.55912e-14
-1.00924e-14
8.27229e-15
5.40491e-15
-1.80993e-14
-9.65784e-15
-4.98921e-14
-9.88075e-15
5.42101e-14
)
;
    }
    frontAndBack
    {
        type            empty;
    }
}


// ************************************************************************* //
