/*--------------------------------*- C++ -*----------------------------------*\
| =========                 |                                                 |
| \\      /  F ield         | OpenFOAM: The Open Source CFD Toolbox           |
|  \\    /   O peration     | Version:  2312                                  |
|   \\  /    A nd           | Website:  www.openfoam.com                      |
|    \\/     M anipulation  |                                                 |
\*---------------------------------------------------------------------------*/
FoamFile
{
    version     2.0;
    format      ascii;
    arch        "LSB;label=32;scalar=64";
    class       volScalarField;
    location    "6.625";
    object      enstrophyField;
}
// * * * * * * * * * * * * * * * * * * * * * * * * * * * * * * * * * * * * * //

dimensions      [0 0 -2 0 0 0 0];

internalField   nonuniform List<scalar> 
400
(
6.22564e-23
1.09332e-22
5.0187e-24
3.38639e-25
4.29056e-27
8.81045e-28
2.87288e-27
1.81415e-27
7.10914e-28
1.18453e-27
1.6078e-29
2.05872e-27
3.10378e-30
1.39476e-27
1.73686e-27
1.84214e-27
2.30165e-29
2.10191e-28
6.34465e-28
4.5444e-29
5.98549e-27
2.50891e-26
3.27626e-26
3.81818e-27
3.93802e-27
1.55731e-27
4.27937e-29
1.79652e-28
3.73896e-28
3.93477e-28
1.77416e-27
4.1725e-27
3.65935e-30
5.21589e-29
7.97889e-30
1.1837e-27
2.19876e-30
5.75616e-28
3.12003e-28
1.85326e-27
1.573e-23
6.84046e-23
3.73721e-24
1.55498e-25
2.32193e-26
1.60919e-27
1.52183e-26
9.35872e-27
3.28279e-28
7.00569e-27
5.76296e-27
3.63317e-27
1.39501e-27
3.5594e-27
5.09063e-27
1.89361e-28
1.79518e-29
2.56317e-28
2.37247e-30
7.62849e-28
1.45949e-23
5.08454e-23
2.3342e-24
1.56062e-25
6.67248e-27
3.12865e-27
3.19716e-28
8.07731e-30
9.22199e-28
5.74391e-28
1.06621e-27
2.4107e-27
3.51463e-28
1.05441e-27
3.46929e-27
4.26962e-27
1.50075e-28
4.61228e-28
2.11487e-27
9.12374e-30
4.6493e-24
1.98127e-24
9.51686e-26
1.67075e-26
3.46047e-27
7.81973e-27
1.10085e-26
1.84206e-27
4.53725e-30
4.31002e-30
7.2219e-28
2.57345e-27
1.26099e-31
3.50893e-29
5.21949e-28
6.66583e-27
1.75723e-27
6.02917e-28
1.41809e-29
1.701e-28
3.70737e-24
2.568e-23
1.5179e-24
6.94637e-26
4.71873e-27
2.46742e-28
1.21061e-29
1.60497e-27
4.2653e-28
4.30366e-29
8.48711e-28
5.25351e-28
5.03523e-28
2.33588e-27
8.707e-28
3.29062e-28
1.18717e-30
1.11464e-29
1.5169e-28
9.78669e-30
2.0901e-23
5.30529e-23
3.06919e-24
1.9918e-25
2.0907e-28
1.25929e-26
5.88743e-27
3.5322e-27
4.21862e-27
1.18316e-26
1.02723e-26
2.10147e-28
5.71525e-29
1.93156e-27
2.14579e-27
2.84886e-27
1.70611e-28
4.31132e-28
1.83424e-27
1.25784e-28
3.63834e-24
5.37137e-24
2.65031e-25
2.40892e-26
8.69591e-31
6.72556e-28
6.16783e-28
2.64579e-27
2.23244e-27
2.33421e-29
1.45945e-27
4.15863e-28
6.70105e-29
5.34015e-29
1.79855e-29
2.71509e-27
2.87783e-31
6.90447e-29
4.50375e-28
2.58941e-30
6.90756e-24
1.48046e-23
9.40238e-25
4.79114e-26
1.49376e-27
1.611e-28
1.152e-29
1.41135e-30
1.9246e-27
1.76109e-27
4.05654e-28
7.51414e-28
5.34805e-27
6.58392e-35
9.53015e-28
1.19902e-27
5.89795e-28
2.11702e-27
2.65619e-28
3.58131e-29
2.49915e-23
4.09669e-23
2.247e-24
1.3021e-25
5.964e-27
4.04704e-28
7.29365e-28
7.44091e-29
2.65338e-29
7.2208e-33
2.24657e-28
2.05297e-27
8.74774e-30
2.16219e-27
1.11473e-29
5.94921e-29
1.04825e-29
7.58542e-30
2.62536e-29
6.33667e-31
3.33569e-23
4.39594e-23
2.17742e-24
1.27527e-25
1.67177e-26
2.02631e-28
1.10437e-27
8.73943e-27
2.17886e-29
7.81889e-28
6.38368e-30
3.05585e-28
1.47573e-27
3.22665e-27
5.50933e-27
5.12207e-27
1.45021e-28
8.66105e-28
3.51549e-28
1.51209e-28
2.45113e-23
3.28589e-23
1.92741e-24
5.53259e-26
2.15351e-26
3.63815e-27
1.06584e-27
2.45577e-28
1.87555e-27
3.40117e-27
3.39968e-27
4.26571e-27
2.31266e-27
2.79009e-27
1.65693e-27
3.33509e-28
4.92112e-27
1.57487e-27
8.10288e-29
2.02974e-30
2.77951e-26
1.75285e-24
8.64894e-26
6.80943e-27
3.0675e-27
9.99483e-28
2.19516e-28
4.44358e-27
8.42842e-29
1.25296e-27
3.92947e-27
1.86632e-27
1.44251e-27
1.67068e-28
5.2311e-29
8.4494e-30
1.2032e-29
1.33973e-27
4.47857e-28
5.85362e-28
2.07403e-23
2.92198e-23
1.72122e-24
6.34144e-26
1.21031e-26
4.23327e-28
1.256e-28
2.45936e-27
2.29433e-27
2.04276e-27
1.79568e-27
9.13308e-30
1.11912e-28
2.71743e-27
1.79448e-29
4.35943e-32
2.53017e-27
4.06525e-29
1.47726e-29
3.35934e-28
4.05111e-23
9.641e-23
5.29439e-24
3.04596e-25
1.34473e-27
7.2486e-28
2.22201e-27
9.41918e-28
7.9017e-28
8.06838e-28
3.5696e-27
2.21969e-28
5.96154e-29
1.41135e-27
1.23849e-27
3.62758e-29
1.30942e-28
4.47473e-29
2.90235e-29
2.36853e-28
1.9618e-23
4.34789e-23
2.60446e-24
1.04513e-25
1.69953e-26
8.01251e-27
3.72133e-27
2.30674e-27
5.91304e-29
3.28503e-28
4.48971e-27
3.71634e-27
1.46255e-27
1.75035e-27
1.52454e-27
3.32991e-28
5.70976e-28
2.33029e-30
8.58073e-29
1.13788e-28
5.61514e-25
7.79492e-25
7.52956e-26
6.32778e-28
8.17381e-30
2.69177e-29
1.96436e-27
1.14728e-27
3.39044e-27
5.54497e-27
8.39472e-27
4.60494e-28
5.77525e-28
7.70094e-29
2.6751e-27
6.03329e-28
4.43367e-29
4.63397e-30
1.90951e-29
9.84839e-30
5.574e-24
4.46019e-23
2.65177e-24
9.6088e-26
1.84072e-26
4.38449e-27
7.4274e-27
6.26711e-27
1.97762e-27
8.9552e-29
1.88038e-27
3.67983e-28
2.20342e-28
8.15094e-30
1.38824e-27
2.07743e-32
6.99311e-28
7.22553e-30
5.38566e-30
3.92541e-28
2.50583e-24
7.31316e-24
4.50873e-25
1.06886e-26
1.31091e-27
6.01504e-28
4.86031e-27
2.84206e-27
1.90894e-27
9.36502e-29
1.91358e-28
2.12577e-32
7.93886e-28
7.59545e-28
3.92805e-27
1.01912e-28
2.32171e-27
6.48176e-28
3.18138e-28
6.91925e-28
1.44665e-23
3.24933e-23
1.42369e-24
1.16312e-25
1.25961e-27
4.96072e-28
1.24398e-29
2.97206e-28
1.12919e-30
2.62825e-29
1.23625e-29
1.6398e-29
1.9747e-28
5.04627e-28
7.10846e-28
5.85188e-28
1.46406e-27
2.67589e-28
8.72672e-30
7.75174e-30
)
;

boundaryField
{
    movingWall
    {
        type            calculated;
        value           nonuniform List<scalar> 
20
(
8.24342e-23
5.32861e-23
1.35352e-24
2.93431e-25
5.03394e-27
3.2142e-26
4.16869e-26
5.47444e-26
3.50994e-26
1.70914e-26
1.66729e-26
1.47763e-26
7.93735e-27
1.66165e-26
1.51301e-27
1.32688e-27
3.9356e-27
3.59948e-27
8.72672e-30
7.75174e-30
)
;
    }
    fixedWalls
    {
        type            calculated;
        value           nonuniform List<scalar> 
60
(
1.94118e-21
1.67644e-24
1.25892e-21
9.11514e-22
3.79061e-23
4.64201e-22
9.80062e-22
9.43334e-23
2.88371e-22
7.47255e-22
7.79673e-22
6.09546e-22
3.17073e-23
5.44585e-22
1.76037e-21
7.97513e-22
1.72311e-23
8.27886e-22
1.375e-22
5.76767e-22
1.30336e-28
2.00727e-27
5.24982e-28
2.72928e-28
1.76127e-28
3.61427e-28
1.08468e-31
8.39617e-29
1.10798e-29
1.19449e-29
5.0434e-30
1.71283e-29
6.91308e-28
8.06097e-28
3.2505e-28
3.93308e-29
2.72318e-30
2.87208e-28
5.43503e-28
1.45506e-29
1.45703e-22
1.44121e-22
3.98386e-24
5.82791e-25
2.82753e-27
2.41149e-26
1.2175e-26
1.47251e-26
1.77167e-26
4.45143e-27
3.45673e-27
2.24906e-26
3.72612e-27
4.0691e-27
3.53554e-27
7.18995e-28
1.3104e-27
2.33344e-27
3.62695e-29
4.8365e-27
)
;
    }
    frontAndBack
    {
        type            empty;
    }
}


// ************************************************************************* //
