/*--------------------------------*- C++ -*----------------------------------*\
| =========                 |                                                 |
| \\      /  F ield         | OpenFOAM: The Open Source CFD Toolbox           |
|  \\    /   O peration     | Version:  2312                                  |
|   \\  /    A nd           | Website:  www.openfoam.com                      |
|    \\/     M anipulation  |                                                 |
\*---------------------------------------------------------------------------*/
FoamFile
{
    version     2.0;
    format      ascii;
    arch        "LSB;label=32;scalar=64";
    class       volScalarField;
    location    "6.625";
    object      epsilonzeroGrad;
}
// * * * * * * * * * * * * * * * * * * * * * * * * * * * * * * * * * * * * * //

dimensions      [0 2 -3 0 0 0 0];

internalField   nonuniform List<scalar> 
400
(
2.77628e-06
2.77628e-06
2.77628e-06
2.77627e-06
2.77627e-06
2.77627e-06
2.77627e-06
2.77626e-06
2.77626e-06
2.77626e-06
2.77626e-06
2.77626e-06
2.77626e-06
2.77626e-06
2.77626e-06
2.77626e-06
2.77626e-06
2.77626e-06
2.77626e-06
2.77626e-06
2.93311e-06
2.88722e-06
2.89104e-06
2.89264e-06
2.8958e-06
2.89746e-06
2.9006e-06
2.90234e-06
2.90547e-06
2.90727e-06
2.91041e-06
2.91226e-06
2.91541e-06
2.9173e-06
2.92047e-06
2.9224e-06
2.9256e-06
2.92756e-06
2.92918e-06
2.93178e-06
3.16846e-06
3.11681e-06
3.12117e-06
3.123e-06
3.12659e-06
3.12848e-06
3.13205e-06
3.13401e-06
3.13755e-06
3.13957e-06
3.14311e-06
3.14518e-06
3.14872e-06
3.15082e-06
3.15438e-06
3.15651e-06
3.16009e-06
3.16224e-06
3.16405e-06
3.16693e-06
3.39818e-06
3.34143e-06
3.34621e-06
3.34822e-06
3.35216e-06
3.35424e-06
3.35815e-06
3.3603e-06
3.36419e-06
3.36641e-06
3.3703e-06
3.37256e-06
3.37646e-06
3.37876e-06
3.38267e-06
3.38501e-06
3.38894e-06
3.3913e-06
3.39329e-06
3.39645e-06
3.5762e-06
3.51537e-06
3.52049e-06
3.52264e-06
3.52686e-06
3.52909e-06
3.53328e-06
3.53558e-06
3.53975e-06
3.54213e-06
3.54629e-06
3.54872e-06
3.55289e-06
3.55536e-06
3.55955e-06
3.56205e-06
3.56627e-06
3.5688e-06
3.57093e-06
3.57432e-06
3.69613e-06
3.63248e-06
3.63783e-06
3.64007e-06
3.64449e-06
3.64681e-06
3.6512e-06
3.65361e-06
3.65796e-06
3.66045e-06
3.6648e-06
3.66735e-06
3.67171e-06
3.67429e-06
3.67867e-06
3.68129e-06
3.6857e-06
3.68835e-06
3.69058e-06
3.69413e-06
3.77085e-06
3.70544e-06
3.71093e-06
3.71324e-06
3.71778e-06
3.72016e-06
3.72466e-06
3.72714e-06
3.73162e-06
3.73418e-06
3.73864e-06
3.74126e-06
3.74574e-06
3.7484e-06
3.7529e-06
3.75559e-06
3.76012e-06
3.76284e-06
3.76513e-06
3.76878e-06
3.81654e-06
3.75004e-06
3.75563e-06
3.75797e-06
3.76258e-06
3.76501e-06
3.76958e-06
3.7721e-06
3.77665e-06
3.77925e-06
3.78379e-06
3.78645e-06
3.791e-06
3.79371e-06
3.79828e-06
3.80102e-06
3.80563e-06
3.80839e-06
3.81072e-06
3.81443e-06
3.84582e-06
3.77863e-06
3.78427e-06
3.78664e-06
3.7913e-06
3.79375e-06
3.79837e-06
3.80092e-06
3.80551e-06
3.80814e-06
3.81273e-06
3.81541e-06
3.82001e-06
3.82274e-06
3.82736e-06
3.83013e-06
3.83479e-06
3.83758e-06
3.83993e-06
3.84368e-06
3.86681e-06
3.79912e-06
3.80481e-06
3.80719e-06
3.81189e-06
3.81435e-06
3.81901e-06
3.82158e-06
3.8262e-06
3.82885e-06
3.83347e-06
3.83618e-06
3.84081e-06
3.84356e-06
3.84822e-06
3.85101e-06
3.85569e-06
3.85851e-06
3.86088e-06
3.86465e-06
3.88425e-06
3.81615e-06
3.82186e-06
3.82426e-06
3.82898e-06
3.83147e-06
3.83615e-06
3.83873e-06
3.84339e-06
3.84605e-06
3.8507e-06
3.85342e-06
3.85808e-06
3.86085e-06
3.86554e-06
3.86834e-06
3.87306e-06
3.87589e-06
3.87827e-06
3.88207e-06
3.90077e-06
3.83228e-06
3.83803e-06
3.84044e-06
3.84519e-06
3.84769e-06
3.8524e-06
3.85499e-06
3.85968e-06
3.86235e-06
3.86703e-06
3.86977e-06
3.87445e-06
3.87724e-06
3.88195e-06
3.88477e-06
3.88951e-06
3.89236e-06
3.89476e-06
3.89858e-06
3.9179e-06
3.84901e-06
3.85479e-06
3.85722e-06
3.86199e-06
3.8645e-06
3.86924e-06
3.87185e-06
3.87656e-06
3.87925e-06
3.88396e-06
3.88671e-06
3.89143e-06
3.89423e-06
3.89896e-06
3.9018e-06
3.90657e-06
3.90944e-06
3.91185e-06
3.91569e-06
3.93656e-06
3.86723e-06
3.87305e-06
3.87549e-06
3.8803e-06
3.88283e-06
3.88759e-06
3.89022e-06
3.89496e-06
3.89767e-06
3.9024e-06
3.90517e-06
3.90992e-06
3.91274e-06
3.9175e-06
3.92036e-06
3.92516e-06
3.92804e-06
3.93047e-06
3.93434e-06
3.9573e-06
3.88749e-06
3.89334e-06
3.8958e-06
3.90064e-06
3.90319e-06
3.90799e-06
3.91063e-06
3.9154e-06
3.91813e-06
3.9229e-06
3.92569e-06
3.93047e-06
3.9333e-06
3.93811e-06
3.94098e-06
3.94582e-06
3.94872e-06
3.95116e-06
3.95506e-06
3.98017e-06
3.90982e-06
3.91572e-06
3.9182e-06
3.92307e-06
3.92564e-06
3.93047e-06
3.93314e-06
3.93795e-06
3.9407e-06
3.9455e-06
3.94831e-06
3.95312e-06
3.95598e-06
3.96082e-06
3.96372e-06
3.96859e-06
3.97152e-06
3.97398e-06
3.9779e-06
4.00435e-06
3.93343e-06
3.93938e-06
3.94188e-06
3.94679e-06
3.94938e-06
3.95425e-06
3.95694e-06
3.96179e-06
3.96456e-06
3.9694e-06
3.97223e-06
3.97708e-06
3.97997e-06
3.98484e-06
3.98777e-06
3.99268e-06
3.99563e-06
3.99811e-06
4.00206e-06
4.02772e-06
3.95626e-06
3.96225e-06
3.96477e-06
3.96972e-06
3.97232e-06
3.97723e-06
3.97994e-06
3.98482e-06
3.98761e-06
3.99249e-06
3.99534e-06
4.00023e-06
4.00314e-06
4.00805e-06
4.011e-06
4.01594e-06
4.01892e-06
4.02142e-06
4.0254e-06
4.04671e-06
3.97623e-06
3.98203e-06
3.98448e-06
3.98928e-06
3.99184e-06
3.99662e-06
3.9993e-06
4.00406e-06
4.00685e-06
4.01161e-06
4.01449e-06
4.01927e-06
4.02222e-06
4.02704e-06
4.03005e-06
4.03492e-06
4.03797e-06
4.04045e-06
4.04445e-06
4.05533e-06
4.05532e-06
4.05532e-06
4.05531e-06
4.05531e-06
4.05531e-06
4.05531e-06
4.0553e-06
4.0553e-06
4.0553e-06
4.0553e-06
4.0553e-06
4.0553e-06
4.05529e-06
4.05529e-06
4.05529e-06
4.05529e-06
4.05529e-06
4.05529e-06
4.05529e-06
)
;

boundaryField
{
    movingWall
    {
        type            zeroGradient;
    }
    fixedWalls
    {
        type            zeroGradient;
    }
    frontAndBack
    {
        type            empty;
    }
}


// ************************************************************************* //
