/*--------------------------------*- C++ -*----------------------------------*\
| =========                 |                                                 |
| \\      /  F ield         | OpenFOAM: The Open Source CFD Toolbox           |
|  \\    /   O peration     | Version:  2312                                  |
|   \\  /    A nd           | Website:  www.openfoam.com                      |
|    \\/     M anipulation  |                                                 |
\*---------------------------------------------------------------------------*/
FoamFile
{
    version     2.0;
    format      ascii;
    arch        "LSB;label=32;scalar=64";
    class       surfaceScalarField;
    location    "6.625";
    object      fluxField;
}
// * * * * * * * * * * * * * * * * * * * * * * * * * * * * * * * * * * * * * //

dimensions      [0 3 -1 0 0 0 0];

oriented        oriented;

internalField   nonuniform List<scalar> 
760
(
-5e-05
4.11715e-18
-5e-05
-8.66485e-19
-5e-05
2.15253e-19
-5e-05
-3.07723e-20
-5e-05
1.78044e-20
-5e-05
1.02055e-21
-5e-05
9.33457e-22
-5e-05
1.95479e-21
-5e-05
4.02315e-22
-5e-05
-6.3555e-22
-5e-05
-7.45061e-22
-5e-05
2.12153e-21
-5e-05
4.25317e-21
-5e-05
2.06807e-21
-5e-05
1.35123e-21
-5e-05
2.25144e-21
-5e-05
4.3618e-21
-5e-05
1.0795e-21
-5e-05
-2.47019e-21
-1.58098e-21
-5e-05
-3.32492e-18
-5e-05
7.37093e-19
-5e-05
-1.65407e-19
-5e-05
4.98401e-20
-5e-05
2.6329e-21
-5e-05
1.13765e-20
-5e-05
2.40236e-21
-5e-05
-2.8208e-21
-5e-05
4.33206e-23
-5e-05
3.64523e-21
-5e-05
-2.20714e-21
-5e-05
-1.52628e-21
-5e-05
-6.80112e-22
-5e-05
-1.85525e-21
-5e-05
-3.99797e-21
-5e-05
-9.74435e-22
-5e-05
-6.98343e-22
-5e-05
-1.94817e-21
-5e-05
-3.52044e-21
-1.93483e-21
-5e-05
-5.64132e-19
-5e-05
1.26343e-19
-5e-05
-3.22914e-20
-5e-05
3.34896e-21
-5e-05
1.33736e-21
-5e-05
5.46004e-21
-5e-05
1.2602e-21
-5e-05
-3.81936e-21
-5e-05
1.94342e-21
-5e-05
5.4024e-21
-5e-05
-2.24111e-21
-5e-05
-5.87679e-21
-5e-05
-7.02958e-21
-5e-05
-5.6775e-21
-5e-05
-3.08985e-21
-5e-05
3.474e-21
-5e-05
1.59445e-21
-5e-05
-2.3552e-21
-5e-05
-7.11445e-21
-4.51722e-21
-5e-05
2.45302e-18
-5e-05
-5.50072e-19
-5e-05
1.24693e-19
-5e-05
-3.76648e-20
-5e-05
3.61688e-21
-5e-05
-1.53917e-21
-5e-05
1.55305e-21
-5e-05
2.12932e-21
-5e-05
4.17956e-21
-5e-05
4.19214e-21
-5e-05
1.74841e-21
-5e-05
-3.3011e-21
-5e-05
-6.44107e-21
-5e-05
-3.32363e-21
-5e-05
3.57434e-22
-5e-05
2.64729e-21
-5e-05
1.37001e-21
-5e-05
-2.95212e-21
-5e-05
-8.128e-21
-4.32732e-21
-5e-05
-2.59423e-18
-5e-05
5.68385e-19
-5e-05
-1.35529e-19
-5e-05
2.37264e-20
-5e-05
-1.01997e-20
-5e-05
-9.10091e-23
-5e-05
-4.86695e-22
-5e-05
1.89282e-21
-5e-05
1.74654e-21
-5e-05
1.66526e-21
-5e-05
3.33194e-21
-5e-05
2.46395e-21
-5e-05
2.76371e-22
-5e-05
1.43227e-21
-5e-05
-1.16435e-21
-5e-05
-3.52508e-21
-5e-05
-3.28779e-21
-5e-05
-5.17849e-21
-5e-05
-4.01243e-21
5.07345e-22
-5e-05
7.8988e-19
-5e-05
-1.45647e-19
-5e-05
4.02152e-20
-5e-05
-2.50061e-21
-5e-05
2.71345e-21
-5e-05
-1.34635e-21
-5e-05
-4.30293e-21
-5e-05
-9.37571e-21
-5e-05
-1.11514e-20
-5e-05
-6.21535e-21
-5e-05
2.52004e-21
-5e-05
6.03676e-21
-5e-05
2.19642e-21
-5e-05
7.76096e-22
-5e-05
6.47339e-22
-5e-05
-5.51316e-23
-5e-05
-1.17344e-21
-5e-05
-2.59857e-21
-5e-05
5.71764e-22
3.34533e-21
-5e-05
2.07971e-18
-5e-05
-4.53324e-19
-5e-05
1.13853e-19
-5e-05
-1.59435e-20
-5e-05
1.09378e-20
-5e-05
2.39142e-21
-5e-05
7.60529e-22
-5e-05
-6.41208e-21
-5e-05
-1.13327e-20
-5e-05
-6.92964e-21
-5e-05
1.72742e-21
-5e-05
1.84461e-21
-5e-05
-3.57221e-22
-5e-05
6.35371e-22
-5e-05
4.21238e-21
-5e-05
1.96101e-21
-5e-05
-2.11553e-21
-5e-05
-7.54632e-24
-5e-05
1.38707e-21
8.55048e-22
-5e-05
-2.43737e-18
-5e-05
5.2206e-19
-5e-05
-1.28856e-19
-5e-05
2.4326e-20
-5e-05
-3.3701e-21
-5e-05
3.55549e-21
-5e-05
1.31136e-21
-5e-05
3.51219e-22
-5e-05
-2.90192e-21
-5e-05
-4.75913e-21
-5e-05
-2.47824e-21
-5e-05
-5.0579e-21
-5e-05
3.42573e-24
-5e-05
3.36298e-21
-5e-05
2.58993e-21
-5e-05
-7.74414e-22
-5e-05
-3.59005e-21
-5e-05
1.22528e-21
-5e-05
2.06258e-21
-5.15695e-22
-5e-05
8.72863e-19
-5e-05
-2.04021e-19
-5e-05
3.80536e-20
-5e-05
-1.687e-20
-5e-05
1.41562e-21
-5e-05
-3.23073e-21
-5e-05
-3.40813e-21
-5e-05
-1.65866e-21
-5e-05
6.16675e-23
-5e-05
-1.79543e-21
-5e-05
-1.19276e-21
-5e-05
-3.61704e-21
-5e-05
-7.44323e-22
-5e-05
2.95535e-21
-5e-05
2.14603e-21
-5e-05
-8.6308e-22
-5e-05
-1.89104e-21
-5e-05
-1.97737e-22
-5e-05
1.79755e-21
5.99696e-22
-5e-05
1.92972e-20
-5e-05
-9.19142e-21
-5e-05
5.62173e-21
-5e-05
-9.20453e-22
-5e-05
-2.4761e-21
-5e-05
-5.77741e-21
-5e-05
-4.55585e-21
-5e-05
1.96773e-21
-5e-05
4.44079e-21
-5e-05
2.13859e-21
-5e-05
1.36094e-21
-5e-05
1.55486e-21
-5e-05
-5.10136e-22
-5e-05
2.57127e-21
-5e-05
2.62304e-21
-5e-05
-4.52282e-21
-5e-05
-5.07851e-21
-5e-05
-3.1489e-21
-5e-05
-9.57193e-22
-1.19008e-21
-5e-05
-2.60404e-19
-5e-05
7.04883e-20
-5e-05
-1.0705e-20
-5e-05
5.74407e-21
-5e-05
-1.49017e-21
-5e-05
-1.63841e-21
-5e-05
-2.23713e-21
-5e-05
1.32464e-21
-5e-05
2.47397e-21
-5e-05
1.43335e-21
-5e-05
-3.45651e-22
-5e-05
2.61239e-21
-5e-05
3.01279e-21
-5e-05
6.03299e-21
-5e-05
1.60484e-21
-5e-05
-5.81794e-21
-5e-05
-3.68931e-21
-5e-05
1.1739e-21
-5e-05
-6.36391e-23
-1.86137e-21
-5e-05
1.56932e-18
-5e-05
-3.38642e-19
-5e-05
7.85036e-20
-5e-05
-1.95381e-20
-5e-05
4.18889e-21
-5e-05
4.49297e-21
-5e-05
2.81032e-21
-5e-05
-2.75531e-21
-5e-05
-1.66457e-21
-5e-05
2.24956e-21
-5e-05
-3.36581e-22
-5e-05
7.01451e-22
-5e-05
4.14736e-21
-5e-05
4.27576e-21
-5e-05
-2.07613e-21
-5e-05
-4.21864e-21
-5e-05
-1.36802e-21
-5e-05
1.48098e-21
-5e-05
-2.78283e-22
-9.95713e-22
-5e-05
-2.6671e-18
-5e-05
5.71112e-19
-5e-05
-1.38785e-19
-5e-05
2.36187e-20
-5e-05
-1.38013e-20
-5e-05
-2.47175e-21
-5e-05
-2.12581e-21
-5e-05
-3.74769e-21
-5e-05
-1.38409e-21
-5e-05
2.88054e-21
-5e-05
2.08061e-21
-5e-05
2.47614e-21
-5e-05
4.87039e-21
-5e-05
-1.13963e-21
-5e-05
-4.57731e-21
-5e-05
-2.19905e-21
-5e-05
-3.47579e-21
-5e-05
-5.20416e-21
-5e-05
-5.11839e-21
-3.13942e-21
-5e-05
1.84234e-18
-5e-05
-4.1612e-19
-5e-05
9.22587e-20
-5e-05
-2.57985e-20
-5e-05
-7.05921e-21
-5e-05
-1.78479e-20
-5e-05
-9.30367e-21
-5e-05
-3.996e-21
-5e-05
-1.24829e-21
-5e-05
2.54849e-21
-5e-05
4.44508e-21
-5e-05
4.77262e-21
-5e-05
4.00475e-21
-5e-05
-1.69739e-21
-5e-05
-1.14334e-21
-5e-05
9.10512e-22
-5e-05
-3.19895e-21
-5e-05
-7.36668e-21
-5e-05
-7.81822e-21
-4.10308e-21
-5e-05
1.29369e-18
-5e-05
-2.84093e-19
-5e-05
6.53913e-20
-5e-05
-1.40547e-20
-5e-05
-1.88481e-21
-5e-05
-1.32998e-20
-5e-05
-9.16978e-21
-5e-05
-4.6491e-21
-5e-05
-1.74713e-21
-5e-05
2.57058e-21
-5e-05
1.88748e-21
-5e-05
4.07495e-24
-5e-05
-8.45768e-22
-5e-05
-2.69428e-21
-5e-05
-2.35515e-21
-5e-05
-1.83619e-21
-5e-05
-4.15997e-21
-5e-05
-7.55382e-21
-5e-05
-7.06472e-21
-2.14789e-21
-5e-05
-3.15439e-18
-5e-05
6.87842e-19
-5e-05
-1.65377e-19
-5e-05
3.38022e-20
-5e-05
-8.30413e-21
-5e-05
2.525e-22
-5e-05
-4.23599e-21
-5e-05
-3.10379e-21
-5e-05
6.89294e-22
-5e-05
6.96032e-22
-5e-05
-4.94089e-21
-5e-05
-7.9536e-21
-5e-05
-6.97601e-21
-5e-05
-6.20189e-21
-5e-05
-5.11256e-21
-5e-05
-1.72026e-21
-5e-05
-2.87996e-21
-5e-05
-5.74636e-21
-5e-05
-4.18075e-21
-7.0018e-22
-5e-05
2.36264e-18
-5e-05
-5.17607e-19
-5e-05
1.17087e-19
-5e-05
-3.21104e-20
-5e-05
2.83335e-21
-5e-05
1.29396e-21
-5e-05
9.73311e-22
-5e-05
2.54161e-21
-5e-05
3.4345e-21
-5e-05
-2.32224e-21
-5e-05
-5.99442e-21
-5e-05
-5.83198e-21
-5e-05
-6.7992e-21
-5e-05
-5.63987e-21
-5e-05
-2.6872e-21
-5e-05
-1.28557e-21
-5e-05
-7.28257e-22
-5e-05
-1.06645e-21
-5e-05
-5.38975e-22
-3.41988e-22
-5e-05
1.78458e-18
-5e-05
-3.98226e-19
-5e-05
8.81165e-20
-5e-05
-2.60102e-20
-5e-05
1.52159e-21
-5e-05
2.38025e-21
-5e-05
2.70866e-21
-5e-05
1.42574e-21
-5e-05
-1.70305e-21
-5e-05
-5.07507e-21
-5e-05
-1.71212e-21
-5e-05
1.59444e-21
-5e-05
-1.75776e-21
-5e-05
-3.11915e-21
-5e-05
-3.71598e-21
-5e-05
-5.32846e-21
-5e-05
-4.57939e-22
-5e-05
7.27953e-22
-5e-05
-1.73253e-21
-5.62673e-22
-5e-05
-3.34044e-18
-5e-05
7.10981e-19
-5e-05
-1.79241e-19
-5e-05
3.13961e-20
-5e-05
-8.55868e-21
-5e-05
6.04723e-21
-5e-05
4.19732e-21
-5e-05
-3.80156e-21
-5e-05
-7.19357e-21
-5e-05
-6.07197e-21
-5e-05
-1.95958e-21
-5e-05
6.19179e-23
-5e-05
-3.44282e-21
-5e-05
-4.93152e-21
-5e-05
-5.24451e-21
-5e-05
-4.11133e-21
-5e-05
-2.61e-22
-5e-05
-6.03683e-22
-5e-05
-3.47874e-21
-2.93847e-23
-5e-05
-5e-05
-5e-05
-5e-05
-5e-05
-5e-05
-5e-05
-5e-05
-5e-05
-5e-05
-5e-05
-5e-05
-5e-05
-5e-05
-5e-05
-5e-05
-5e-05
-5e-05
-5e-05
)
;

boundaryField
{
    movingWall
    {
        type            calculated;
        value           uniform -0;
    }
    fixedWalls
    {
        type            calculated;
        value           nonuniform List<scalar> 
60
(
5e-05
5e-05
5e-05
5e-05
5e-05
5e-05
5e-05
5e-05
5e-05
5e-05
5e-05
5e-05
5e-05
5e-05
5e-05
5e-05
5e-05
5e-05
5e-05
5e-05
-5e-05
-5e-05
-5e-05
-5e-05
-5e-05
-5e-05
-5e-05
-5e-05
-5e-05
-5e-05
-5e-05
-5e-05
-5e-05
-5e-05
-5e-05
-5e-05
-5e-05
-5e-05
-5e-05
-5e-05
0
0
0
0
0
0
0
0
0
0
0
0
0
0
0
0
0
0
0
0
)
;
    }
    frontAndBack
    {
        type            empty;
        value           nonuniform List<scalar> 0();
    }
}


// ************************************************************************* //
