/*--------------------------------*- C++ -*----------------------------------*\
| =========                 |                                                 |
| \\      /  F ield         | OpenFOAM: The Open Source CFD Toolbox           |
|  \\    /   O peration     | Version:  2312                                  |
|   \\  /    A nd           | Website:  www.openfoam.com                      |
|    \\/     M anipulation  |                                                 |
\*---------------------------------------------------------------------------*/
FoamFile
{
    version     2.0;
    format      ascii;
    arch        "LSB;label=32;scalar=64";
    class       volVectorField;
    location    "6.625";
    object      LambVectorField;
}
// * * * * * * * * * * * * * * * * * * * * * * * * * * * * * * * * * * * * * //

dimensions      [0 1 -2 0 0 0 0];

internalField   nonuniform List<vector> 
400
(
(-1.77674e-24 -1.11585e-11 -1.11585e-11)
(-5.00084e-25 1.47873e-11 -0)
(-2.56687e-26 -3.16819e-12 -3.16819e-12)
(-1.31229e-27 8.22969e-13 -0)
(-3.83915e-29 -9.26343e-14 -9.26343e-14)
(-5.2948e-30 4.19772e-14 -0)
(4.04056e-31 -7.58008e-14 -7.58008e-14)
(-5.40745e-30 -6.02353e-14 0)
(2.07093e-30 3.77071e-14 3.77071e-14)
(7.9088e-31 -4.8673e-14 -0)
(2.55193e-33 -5.67063e-15 -5.67063e-15)
(-2.59604e-30 -6.41672e-14 0)
(-2.4696e-31 -2.4915e-15 -2.4915e-15)
(-3.45271e-30 -5.2816e-14 0)
(-5.02033e-30 -5.89383e-14 -5.89383e-14)
(-6.8379e-30 -6.06982e-14 0)
(1.01812e-30 6.78476e-15 6.78476e-15)
(9.18678e-31 2.05032e-14 0)
(-1.95821e-30 3.5622e-14 3.5622e-14)
(3.84804e-31 -9.53352e-15 -0)
(-5.97239e-28 -1.09412e-13 -1.09412e-13)
(-1.88354e-28 2.24005e-13 -0)
(-1.30056e-28 -2.55979e-13 -2.55979e-13)
(-3.17813e-29 -8.73862e-14 0)
(-2.6423e-29 -8.87471e-14 -8.87471e-14)
(-9.31764e-30 -5.58087e-14 0)
(-3.94744e-31 -9.25135e-15 -9.25135e-15)
(2.19508e-31 -1.89553e-14 -0)
(1.0618e-30 -2.73458e-14 -2.73458e-14)
(2.57332e-31 -2.80527e-14 -0)
(1.74846e-30 -5.95678e-14 -5.95678e-14)
(-4.05631e-30 -9.1351e-14 0)
(1.92093e-31 2.70531e-15 2.70531e-15)
(1.77211e-31 1.02136e-14 0)
(-1.24357e-31 3.99472e-15 3.99472e-15)
(-1.09946e-30 4.86559e-14 -0)
(-5.11922e-32 -2.09703e-15 -2.09703e-15)
(-5.51848e-32 3.39298e-14 -0)
(1.09502e-30 -2.49801e-14 -2.49801e-14)
(1.39271e-30 -6.08813e-14 -0)
(-7.76587e-25 5.60893e-12 5.60893e-12)
(-3.54693e-25 -1.16965e-11 0)
(-1.94776e-26 2.73394e-12 2.73394e-12)
(-9.08956e-28 -5.5767e-13 0)
(-4.14653e-29 2.15496e-13 2.15496e-13)
(1.63444e-29 5.67308e-14 0)
(9.3207e-30 1.74461e-13 1.74461e-13)
(-1.38524e-29 1.36812e-13 -0)
(-1.03932e-30 -2.56234e-14 -2.56234e-14)
(1.83452e-29 1.1837e-13 0)
(-6.327e-30 1.07359e-13 1.07359e-13)
(-8.98928e-30 8.52429e-14 -0)
(-5.18753e-30 5.28207e-14 5.28207e-14)
(-7.72524e-30 8.4373e-14 -0)
(-1.2995e-29 1.00902e-13 1.00902e-13)
(-3.18781e-31 1.94608e-14 -0)
(-3.13652e-31 5.99196e-15 5.99196e-15)
(1.72755e-30 -2.26414e-14 -0)
(2.11255e-31 -2.17829e-15 -2.17829e-15)
(-2.12946e-30 3.90602e-14 -0)
(-6.26128e-25 -5.40276e-12 -5.40276e-12)
(-2.54836e-25 1.00842e-11 -0)
(-1.26024e-26 -2.16065e-12 -2.16065e-12)
(-8.35763e-28 5.58681e-13 -0)
(-2.84079e-29 -1.1552e-13 -1.1552e-13)
(-5.51376e-30 7.91031e-14 -0)
(-7.6308e-32 2.5287e-14 2.5287e-14)
(2.07085e-31 -4.01928e-15 -0)
(1.59654e-30 4.29464e-14 4.29464e-14)
(2.07136e-30 3.38937e-14 0)
(-1.41818e-30 4.61781e-14 4.61781e-14)
(-9.00009e-30 6.94363e-14 -0)
(4.85112e-30 -2.65128e-14 -2.65128e-14)
(6.22422e-30 -4.59218e-14 -0)
(-4.32691e-31 -8.32981e-14 -8.32981e-14)
(-1.43547e-29 -9.24081e-14 0)
(2.01182e-30 1.73249e-14 1.73249e-14)
(-5.43898e-31 3.0372e-14 -0)
(-1.22006e-29 6.50365e-14 6.50365e-14)
(5.38968e-31 -4.27171e-15 -0)
(-5.41858e-26 3.04936e-12 3.04936e-12)
(-6.50518e-27 -1.99061e-12 0)
(-3.68659e-28 4.36276e-13 4.36276e-13)
(1.94377e-30 -1.82798e-13 -0)
(8.4221e-30 -8.31922e-14 -8.31922e-14)
(-1.01756e-30 -1.25058e-13 0)
(-9.6655e-30 -1.48381e-13 -1.48381e-13)
(-8.29701e-30 -6.06969e-14 0)
(3.91633e-31 3.01239e-15 3.01239e-15)
(3.12894e-31 2.93599e-15 0)
(3.82511e-30 3.8005e-14 3.8005e-14)
(-1.74161e-31 7.17418e-14 -0)
(3.74987e-32 -5.02193e-16 -5.02193e-16)
(-2.17333e-32 -8.37727e-15 0)
(2.94109e-31 3.23094e-14 3.23094e-14)
(-5.70954e-30 1.15463e-13 -0)
(-3.63542e-30 5.92829e-14 5.92829e-14)
(-3.47865e-30 3.47251e-14 -0)
(7.32394e-31 -5.32557e-15 -5.32557e-15)
(8.65436e-31 -1.84445e-14 -0)
(-2.34177e-25 2.723e-12 2.723e-12)
(-1.39515e-25 -7.16658e-12 0)
(-7.97329e-27 1.74236e-12 1.74236e-12)
(-3.57704e-28 -3.7273e-13 0)
(-2.97999e-29 9.71466e-14 9.71466e-14)
(2.61621e-31 -2.22145e-14 -0)
(-4.16318e-31 4.92059e-15 4.92059e-15)
(3.45507e-30 -5.66563e-14 -0)
(1.75668e-30 -2.92072e-14 -2.92072e-14)
(3.70747e-31 -9.27757e-15 -0)
(-1.34435e-30 -4.11998e-14 -4.11998e-14)
(-3.2734e-30 -3.24145e-14 0)
(2.72039e-30 3.1734e-14 3.1734e-14)
(3.73851e-30 6.83503e-14 0)
(-2.32341e-30 4.17301e-14 4.17301e-14)
(2.34872e-30 -2.56539e-14 -0)
(-1.08153e-31 1.54089e-15 1.54089e-15)
(5.05029e-31 -4.72153e-15 -0)
(4.0014e-31 -1.74178e-14 -1.74178e-14)
(2.97371e-31 4.42418e-15 0)
(-7.60305e-25 -6.46545e-12 -6.46545e-12)
(-2.60541e-25 1.03008e-11 -0)
(-1.53232e-26 -2.47757e-12 -2.47757e-12)
(-6.68845e-28 6.31157e-13 -0)
(-8.49204e-30 -2.04485e-14 -2.04485e-14)
(-6.67762e-30 1.587e-13 -0)
(-9.49588e-30 1.08512e-13 1.08512e-13)
(-2.63955e-29 8.405e-14 -0)
(3.54474e-29 -9.18545e-14 -9.18545e-14)
(3.20966e-29 -1.53828e-13 -0)
(-9.77133e-30 -1.43334e-13 -1.43334e-13)
(-2.88009e-30 -2.05011e-14 0)
(-2.27953e-32 -1.06914e-14 -1.06914e-14)
(1.47009e-30 -6.2154e-14 -0)
(-5.34371e-30 -6.55102e-14 -6.55102e-14)
(-6.74433e-30 -7.54832e-14 0)
(-4.29495e-31 -1.84722e-14 -1.84722e-14)
(-8.86814e-32 -2.93643e-14 0)
(-2.77665e-30 -6.05679e-14 -6.05679e-14)
(-1.05631e-30 -1.58609e-14 0)
(-9.28133e-26 2.69753e-12 2.69753e-12)
(-2.3469e-26 -3.27761e-12 0)
(-1.18719e-27 7.28053e-13 7.28053e-13)
(-9.26211e-29 -2.19496e-13 0)
(2.93084e-32 1.31878e-15 1.31878e-15)
(-5.05149e-30 -3.66758e-14 0)
(4.14199e-30 3.51222e-14 3.51222e-14)
(4.18729e-30 7.27433e-14 0)
(-4.5037e-30 6.68197e-14 6.68197e-14)
(4.6826e-31 -6.83259e-15 -0)
(4.99791e-32 5.40268e-14 5.40268e-14)
(-1.92361e-30 2.88397e-14 -0)
(1.90101e-31 -1.15767e-14 -1.15767e-14)
(-5.07088e-31 -1.03345e-14 0)
(5.21337e-31 5.99758e-15 5.99758e-15)
(-8.03845e-31 7.36898e-14 -0)
(8.18384e-32 -7.58661e-16 -7.58661e-16)
(3.9036e-32 -1.17511e-14 -0)
(2.89299e-31 3.00125e-14 3.00125e-14)
(7.37244e-32 -2.2757e-15 -0)
(-2.3449e-25 3.71687e-12 3.71687e-12)
(-7.46675e-26 -5.44144e-12 0)
(-4.83193e-27 1.3713e-12 1.3713e-12)
(-1.70585e-28 -3.09552e-13 0)
(-8.58287e-30 5.46583e-14 5.46583e-14)
(8.0525e-32 1.79499e-14 0)
(-3.14288e-31 4.79999e-15 4.79999e-15)
(7.31072e-32 -1.68009e-15 -0)
(-3.01994e-30 6.20419e-14 6.20419e-14)
(-7.23048e-30 5.9348e-14 -0)
(-2.8499e-30 2.84835e-14 2.84835e-14)
(5.25734e-30 -3.87663e-14 -0)
(-1.71246e-30 -1.03422e-13 -1.03422e-13)
(-9.80573e-34 -1.14751e-17 0)
(-7.27901e-31 -4.36581e-14 -4.36581e-14)
(9.8273e-31 -4.89698e-14 -0)
(1.22715e-30 -3.43452e-14 -3.43452e-14)
(-3.40529e-30 -6.50695e-14 0)
(-1.67941e-30 -2.30486e-14 -2.30486e-14)
(9.95996e-32 8.46323e-15 0)
(-6.92864e-25 -7.06987e-12 -7.06987e-12)
(-1.98078e-25 9.05173e-12 -0)
(-1.06965e-26 -2.11991e-12 -2.11991e-12)
(-6.25579e-28 5.10315e-13 -0)
(-2.33341e-29 -1.09215e-13 -1.09215e-13)
(-3.80422e-30 2.84501e-14 -0)
(2.70594e-30 -3.81933e-14 -3.81933e-14)
(2.78539e-31 -1.21991e-14 -0)
(-3.72561e-31 -7.28476e-15 -7.28476e-15)
(-6.01045e-33 -1.20173e-16 0)
(-1.10954e-30 -2.1197e-14 -2.1197e-14)
(-5.80904e-31 6.40776e-14 -0)
(1.93791e-31 -4.18276e-15 -4.18276e-15)
(-2.15443e-30 -6.576e-14 0)
(3.26593e-31 4.72171e-15 4.72171e-15)
(-1.57676e-31 1.0908e-14 -0)
(-1.82745e-31 4.57875e-15 4.57875e-15)
(2.34643e-31 -3.89498e-15 -0)
(6.96881e-33 -7.24619e-15 -7.24619e-15)
(1.3756e-32 1.12576e-15 0)
(-7.94165e-25 8.16785e-12 8.16785e-12)
(-2.01737e-25 -9.3765e-12 0)
(-1.00603e-26 2.08682e-12 2.08682e-12)
(-6.00504e-28 -5.05028e-13 0)
(-5.71776e-29 1.82853e-13 1.82853e-13)
(1.96039e-30 -2.01311e-14 -0)
(5.23481e-30 -4.69973e-14 -4.69973e-14)
(-1.34246e-29 -1.32208e-13 0)
(8.34994e-31 6.60131e-15 6.60131e-15)
(1.40497e-30 3.95446e-14 0)
(-7.48023e-33 -3.57314e-15 -3.57314e-15)
(1.76168e-30 2.47219e-14 0)
(1.40846e-30 5.43273e-14 5.43273e-14)
(5.6304e-30 8.03324e-14 0)
(3.75301e-30 1.0497e-13 1.0497e-13)
(-1.68477e-29 1.01213e-13 -0)
(-2.77989e-30 1.70306e-14 1.70306e-14)
(-2.73498e-30 4.16198e-14 -0)
(-9.89735e-31 2.6516e-14 2.6516e-14)
(-1.04033e-30 1.73902e-14 -0)
(-6.07841e-25 -7.00161e-12 -7.00161e-12)
(-1.51559e-25 8.10665e-12 -0)
(-8.62446e-27 -1.96337e-12 -1.96337e-12)
(-3.19101e-28 3.32644e-13 -0)
(-5.25246e-29 -2.07533e-13 -2.07533e-13)
(-2.71637e-30 -8.53012e-14 0)
(-1.01113e-30 -4.61701e-14 -4.61701e-14)
(1.0761e-30 -2.2162e-14 -0)
(1.68614e-30 -6.12462e-14 -6.12462e-14)
(-1.79841e-30 -8.24763e-14 0)
(1.31269e-30 -8.24582e-14 -8.24582e-14)
(-3.06981e-30 -9.23657e-14 0)
(-6.43276e-30 -6.80097e-14 -6.80097e-14)
(-1.27911e-29 -7.47006e-14 0)
(-1.63719e-30 -5.75661e-14 -5.75661e-14)
(1.71127e-30 -2.58267e-14 -0)
(-1.55324e-30 -9.92081e-14 -9.92081e-14)
(-6.3233e-30 -5.61225e-14 0)
(4.42761e-31 1.27302e-14 1.27302e-14)
(-2.94814e-32 2.01482e-15 -0)
(-5.66848e-27 2.35776e-13 2.35776e-13)
(-9.6426e-27 -1.87235e-12 0)
(-5.20938e-28 4.15907e-13 4.15907e-13)
(-2.07449e-29 -1.167e-13 0)
(6.6996e-30 -7.83263e-14 -7.83263e-14)
(-6.61142e-30 -4.47098e-14 0)
(1.89652e-30 2.09531e-14 2.09531e-14)
(-5.81247e-30 9.42717e-14 -0)
(5.07032e-31 -1.29834e-14 -1.29834e-14)
(3.4129e-30 5.00592e-14 0)
(2.17747e-31 8.86506e-14 8.86506e-14)
(3.16314e-31 -6.10953e-14 -0)
(3.83016e-30 5.37124e-14 5.37124e-14)
(-3.66951e-33 1.82794e-14 -0)
(-1.14032e-30 1.02285e-14 1.02285e-14)
(4.21299e-31 -4.11081e-15 -0)
(3.45236e-31 -4.90551e-15 -4.90551e-15)
(-2.76575e-30 5.17636e-14 -0)
(1.37407e-30 -2.99285e-14 -2.99285e-14)
(8.62111e-31 -3.42159e-14 -0)
(-5.32259e-25 6.44054e-12 6.44054e-12)
(-1.35267e-25 -7.64458e-12 0)
(-7.97605e-27 1.85538e-12 1.85538e-12)
(-2.73147e-28 -3.5613e-13 0)
(-7.25824e-29 1.55583e-13 1.55583e-13)
(7.17959e-30 -2.90973e-14 -0)
(2.78227e-30 -1.58493e-14 -1.58493e-14)
(6.18936e-30 -7.01335e-14 -0)
(1.10491e-30 -6.77396e-14 -6.77396e-14)
(-3.00698e-30 -6.3918e-14 0)
(-4.84027e-30 -5.9928e-14 -5.9928e-14)
(-4.45438e-31 -4.27389e-15 0)
(1.84776e-30 1.49607e-14 1.49607e-14)
(-3.3458e-30 7.37215e-14 -0)
(4.28983e-31 -5.99079e-15 -5.99079e-15)
(-4.28847e-33 -2.95277e-16 0)
(-4.8838e-30 7.1136e-14 7.1136e-14)
(-1.39524e-30 9.01693e-15 -0)
(8.63294e-31 -5.43555e-15 -5.43555e-15)
(2.6019e-30 -2.59204e-14 -0)
(-1.40721e-24 -9.00123e-12 -9.00123e-12)
(-4.76835e-25 1.3886e-11 -0)
(-2.59972e-26 -3.25404e-12 -3.25404e-12)
(-1.40407e-27 7.80507e-13 -0)
(-9.55004e-30 -5.186e-14 -5.186e-14)
(-1.77877e-29 3.80752e-14 -0)
(1.31061e-29 -6.66635e-14 -6.66635e-14)
(3.10719e-30 -4.34032e-14 -0)
(1.33652e-30 -3.97535e-14 -3.97535e-14)
(-2.20517e-30 -4.01706e-14 0)
(-8.19886e-30 -8.44938e-14 -8.44938e-14)
(-1.82637e-30 -2.10698e-14 0)
(4.0055e-31 1.09193e-14 1.09193e-14)
(1.196e-30 -5.31292e-14 -0)
(1.28771e-30 4.97693e-14 4.97693e-14)
(1.86512e-31 8.51772e-15 0)
(-9.59701e-31 1.61828e-14 1.61828e-14)
(-1.32377e-30 9.46016e-15 -0)
(1.17258e-30 -7.61886e-15 -7.61886e-15)
(1.38735e-30 -2.17648e-14 -0)
(-6.55125e-25 6.26387e-12 6.26387e-12)
(-2.1425e-25 -9.32512e-12 0)
(-1.22641e-26 2.28231e-12 2.28231e-12)
(-5.65427e-28 -4.57193e-13 0)
(-4.78508e-29 1.84366e-13 1.84366e-13)
(-8.20525e-30 1.2659e-13 -0)
(-1.46824e-29 8.62709e-14 8.62709e-14)
(-7.76864e-30 6.79227e-14 -0)
(-3.94372e-31 1.08748e-14 1.08748e-14)
(1.2285e-30 2.56321e-14 0)
(-2.04071e-30 9.47598e-14 9.47598e-14)
(-7.45904e-30 8.6213e-14 -0)
(-3.81367e-30 5.40842e-14 5.40842e-14)
(-5.04456e-30 5.91667e-14 -0)
(-6.63061e-30 5.52185e-14 5.52185e-14)
(-2.46052e-30 2.58066e-14 -0)
(-3.61904e-30 3.37928e-14 3.37928e-14)
(-3.5021e-31 2.15884e-15 -0)
(-1.68578e-30 1.31002e-14 1.31002e-14)
(3.34491e-31 -1.50856e-14 -0)
(2.28774e-26 -1.05973e-12 -1.05973e-12)
(-5.66619e-27 -1.24859e-12 0)
(-4.81785e-28 3.88061e-13 3.88061e-13)
(-4.10353e-30 -3.55747e-14 0)
(-2.93628e-31 4.04322e-15 4.04322e-15)
(-5.49689e-31 -7.33726e-15 0)
(4.70271e-32 6.26796e-14 6.26796e-14)
(-4.68328e-31 4.79015e-14 -0)
(5.25669e-30 8.23461e-14 8.23461e-14)
(-2.11531e-30 1.05309e-13 -0)
(-2.2818e-29 1.29574e-13 1.29574e-13)
(-7.02932e-30 3.03478e-14 -0)
(7.08701e-30 -3.3986e-14 -3.3986e-14)
(2.02061e-30 -1.24104e-14 -0)
(6.1751e-30 -7.31451e-14 -7.31451e-14)
(-9.21707e-31 -3.4737e-14 0)
(-7.6307e-32 9.41665e-15 9.41665e-15)
(-2.05896e-31 3.04433e-15 -0)
(2.38212e-31 -6.17983e-15 -6.17983e-15)
(2.58935e-32 -4.43811e-15 -0)
(-3.87621e-25 -3.33886e-12 -3.33886e-12)
(-2.38408e-25 9.44477e-12 -0)
(-1.36449e-26 -2.30294e-12 -2.30294e-12)
(-6.13627e-28 4.38379e-13 -0)
(-3.56796e-29 -1.91871e-13 -1.91871e-13)
(2.16869e-30 -9.36428e-14 -0)
(-4.65365e-30 -1.2188e-13 -1.2188e-13)
(-1.24765e-29 -1.11956e-13 0)
(-4.62521e-30 -6.28908e-14 -6.28908e-14)
(9.74318e-31 -1.3383e-14 -0)
(3.90501e-30 -6.1325e-14 -6.1325e-14)
(4.48629e-32 -2.71287e-14 -0)
(1.33178e-30 -2.09925e-14 -2.09925e-14)
(2.53475e-31 -4.03756e-15 -0)
(1.21536e-30 -5.26924e-14 -5.26924e-14)
(1.58903e-32 -2.03835e-16 -0)
(7.86366e-31 -3.73982e-14 -3.73982e-14)
(-9.49396e-32 -3.80146e-15 0)
(5.57531e-32 3.28197e-15 3.28197e-15)
(-2.19816e-31 2.80193e-14 -0)
(-1.00092e-25 2.23867e-12 2.23867e-12)
(-3.5618e-26 -3.82444e-12 0)
(-2.27937e-27 9.49603e-13 9.49603e-13)
(-5.25413e-29 -1.46209e-13 0)
(-6.40523e-30 5.12038e-14 5.12038e-14)
(4.10556e-30 3.46844e-14 0)
(6.91772e-30 9.85932e-14 9.85932e-14)
(-4.10224e-30 7.53931e-14 -0)
(-8.75336e-30 6.1789e-14 6.1789e-14)
(1.78189e-30 -1.36858e-14 -0)
(9.40553e-32 -1.95631e-14 -1.95631e-14)
(1.34915e-32 2.06193e-16 0)
(-2.73736e-31 3.98468e-14 3.98468e-14)
(-2.41596e-30 3.89755e-14 -0)
(-1.11302e-29 8.86347e-14 8.86347e-14)
(-1.92995e-30 1.42767e-14 -0)
(-1.84618e-31 -6.81426e-14 -6.81426e-14)
(1.4919e-31 3.60049e-14 0)
(2.1766e-30 -2.52245e-14 -2.52245e-14)
(5.4542e-31 -3.72001e-14 -0)
(-4.78226e-25 5.37893e-12 5.37893e-12)
(-1.54182e-25 -8.06143e-12 0)
(-8.04784e-27 1.68742e-12 1.68742e-12)
(-4.32387e-28 -4.82312e-13 0)
(-1.09044e-29 5.01918e-14 5.01918e-14)
(-3.89067e-30 -3.14983e-14 0)
(-4.87465e-31 -4.98794e-15 -4.98794e-15)
(-2.38079e-30 2.43806e-14 -0)
(-2.19524e-31 1.50279e-15 1.50279e-15)
(8.16942e-31 -7.25017e-15 -0)
(3.65849e-31 -4.97243e-15 -4.97243e-15)
(-3.60527e-31 5.72678e-15 -0)
(2.60026e-30 -1.98731e-14 -1.98731e-14)
(4.29749e-30 -3.17688e-14 -0)
(3.17502e-30 -3.77053e-14 -3.77053e-14)
(1.0014e-30 -3.42107e-14 -0)
(-7.11534e-31 5.41121e-14 5.41121e-14)
(6.54479e-31 -2.31339e-14 -0)
(2.20838e-31 -4.17773e-15 -4.17773e-15)
(-5.31019e-32 -3.93745e-15 0)
)
;

boundaryField
{
    movingWall
    {
        type            calculated;
        value           nonuniform List<vector> 
20
(
(0 1.28401e-11 -0)
(0 -1.03234e-11 -0)
(0 1.64531e-12 -0)
(0 -7.66069e-13 -0)
(0 -1.00339e-13 -0)
(0 -2.53543e-13 -0)
(0 -2.88745e-13 -0)
(0 -3.30891e-13 -0)
(0 -2.64951e-13 -0)
(0 -1.84886e-13 -0)
(0 -1.82608e-13 -0)
(0 -1.71909e-13 -0)
(0 -1.25995e-13 -0)
(0 -1.82299e-13 -0)
(0 -5.50092e-14 -0)
(0 -5.15146e-14 -0)
(0 8.87198e-14 -0)
(0 -8.48467e-14 -0)
(0 -4.17773e-15 -0)
(0 -3.93745e-15 -0)
)
;
    }
    fixedWalls
    {
        type            calculated;
        value           nonuniform List<vector> 
60
(
(0 -6.23086e-11 -0)
(0 -1.83108e-12 -0)
(0 5.01781e-11 -0)
(0 -4.26969e-11 -0)
(0 8.70703e-12 -0)
(0 3.04697e-11 -0)
(0 -4.42733e-11 -0)
(0 1.37356e-11 -0)
(0 2.40155e-11 -0)
(0 -3.86589e-11 -0)
(0 3.94886e-11 -0)
(0 -3.49155e-11 -0)
(0 7.96332e-12 -0)
(0 3.30026e-11 -0)
(0 -5.93359e-11 -0)
(0 3.99378e-11 -0)
(0 5.87045e-12 -0)
(0 -4.06912e-11 -0)
(0 1.65831e-11 -0)
(0 3.39637e-11 -0)
(0 -1.61453e-14 -0)
(0 -6.33604e-14 -0)
(0 3.24031e-14 -0)
(0 -2.33636e-14 -0)
(0 -1.87684e-14 -0)
(0 2.6886e-14 -0)
(0 -4.65764e-16 -0)
(0 -1.29585e-14 -0)
(0 4.7074e-15 -0)
(0 4.88773e-15 -0)
(0 3.17597e-15 -0)
(0 -5.85291e-15 -0)
(0 -3.71836e-14 -0)
(0 -4.01521e-14 -0)
(0 -2.54971e-14 -0)
(0 -8.86913e-15 -0)
(0 -2.33374e-15 -0)
(0 2.3967e-14 -0)
(0 -3.29698e-14 -0)
(0 5.39455e-15 -0)
(0 -1.70706e-11 -0)
(0 1.69777e-11 -0)
(0 -2.82272e-12 -0)
(0 1.07962e-12 -0)
(0 7.52002e-14 -0)
(0 2.19613e-13 -0)
(0 1.56045e-13 -0)
(0 1.71611e-13 -0)
(0 1.88238e-13 -0)
(0 9.4355e-14 -0)
(0 8.31472e-14 -0)
(0 2.12088e-13 -0)
(0 8.63263e-14 -0)
(0 9.0212e-14 -0)
(0 8.40897e-14 -0)
(0 3.79208e-14 -0)
(0 5.11937e-14 -0)
(0 -6.83146e-14 -0)
(0 8.51698e-15 -0)
(0 -9.83514e-14 -0)
)
;
    }
    frontAndBack
    {
        type            empty;
    }
}


// ************************************************************************* //
