/*--------------------------------*- C++ -*----------------------------------*\
| =========                 |                                                 |
| \\      /  F ield         | OpenFOAM: The Open Source CFD Toolbox           |
|  \\    /   O peration     | Version:  2312                                  |
|   \\  /    A nd           | Website:  www.openfoam.com                      |
|    \\/     M anipulation  |                                                 |
\*---------------------------------------------------------------------------*/
FoamFile
{
    version     2.0;
    format      ascii;
    arch        "LSB;label=32;scalar=64";
    class       volScalarField;
    location    "6.625";
    object      Lambda2Field;
}
// * * * * * * * * * * * * * * * * * * * * * * * * * * * * * * * * * * * * * //

dimensions      [0 0 -2 0 0 0 0];

internalField   nonuniform List<scalar> 
400
(
1.77952e-23
6.47011e-24
3.18685e-25
-2.65236e-26
1.08992e-26
0
0
-2.65486e-28
7.06767e-29
3.00169e-28
0
0
2.90983e-28
7.55774e-29
0
0
3.15913e-28
1.86452e-29
0
3.99918e-29
3.26675e-24
6.76471e-24
5.59668e-25
2.28051e-27
2.13296e-27
3.79001e-27
5.39846e-28
5.858e-28
1.82485e-28
2.67515e-28
0
-6.0316e-28
3.91225e-28
2.4628e-28
4.61812e-28
3.01095e-28
4.10781e-28
0
2.31246e-28
0
5.65972e-23
1.94022e-23
4.77782e-25
9.68842e-26
0
2.55916e-27
0
-1.58388e-28
2.21905e-28
-1.02932e-27
0
-1.65519e-29
1.41788e-27
-1.48946e-29
1.54979e-27
5.23816e-28
9.30861e-29
1.23638e-28
0
9.2798e-28
3.74028e-23
1.66343e-23
8.39531e-25
1.83671e-26
4.60056e-27
-5.65628e-28
4.92784e-29
5.6619e-28
6.10604e-28
0
2.70788e-28
-7.19268e-28
1.97327e-28
0
0
-8.91086e-28
0
0
1.47786e-28
8.51046e-28
2.38288e-24
7.13904e-24
3.87632e-25
0
5.82055e-28
-1.06917e-27
0
-3.50753e-28
9.6982e-29
1.02162e-28
0
-2.15713e-28
7.22048e-28
3.61896e-28
1.56964e-28
-1.53992e-28
0
-1.27235e-28
2.78098e-28
3.73983e-28
2.67247e-23
9.06263e-24
3.24823e-25
2.38791e-26
2.93874e-27
0
0
1.89907e-27
2.81798e-27
9.93664e-28
0
0
0
-7.59651e-28
0
3.93332e-29
0
0
0
1.28866e-28
2.60948e-23
1.04222e-23
0
-2.83376e-26
8.27493e-27
-5.22783e-27
0
-8.82939e-28
0
-4.91499e-27
0
4.60186e-28
5.77808e-28
-4.3032e-28
6.63669e-28
4.74227e-28
3.335e-28
4.61768e-29
0
3.04774e-28
1.43228e-24
2.91596e-24
2.57344e-25
0
7.7043e-28
-2.37734e-28
0
0
1.56991e-27
0
1.02266e-27
7.15299e-28
3.55863e-29
0
0
0
0
0
0
0
6.63917e-24
4.24304e-24
5.27618e-26
1.20639e-26
7.34684e-28
9.82834e-28
0
6.46341e-29
3.10121e-28
-1.37989e-28
1.91904e-28
0
0
2.65863e-30
5.72026e-28
2.84075e-28
0
-5.56288e-28
2.43884e-28
1.99055e-29
4.31453e-24
2.41164e-24
0
-9.02721e-27
0
1.03769e-28
0
2.10411e-28
3.20095e-28
2.47624e-28
1.60138e-28
0
0
-6.23763e-28
9.21429e-30
2.14299e-28
0
1.3935e-28
1.34545e-28
0
0
-9.58512e-25
0
-2.15002e-26
0
0
9.9029e-29
0
0
-3.29218e-28
4.97912e-29
8.24906e-29
7.28334e-28
2.71651e-28
0
-8.83342e-28
3.76456e-28
9.81507e-28
1.5967e-29
2.63322e-28
0
2.06917e-24
0
3.65999e-26
0
3.10807e-27
1.3764e-27
1.33982e-28
8.30387e-28
0
0
0
0
5.37866e-28
1.93116e-27
3.46504e-29
0
-1.02163e-28
4.12516e-29
1.19899e-29
3.74146e-24
1.1646e-24
4.11664e-26
1.83671e-26
2.43043e-28
2.98938e-28
0
-3.18878e-28
4.34008e-29
2.25019e-28
0
-3.22857e-28
7.56599e-28
4.69222e-28
1.2625e-28
6.52595e-29
0
8.47683e-28
0
-1.19211e-28
4.76243e-25
1.90962e-24
0
1.69998e-26
0
3.78283e-27
8.87146e-28
-8.62223e-28
0
-5.24504e-28
0
0
0
-1.05274e-27
0
1.5471e-28
0
0
0
0
3.94079e-23
1.43522e-23
1.83671e-26
7.34684e-28
1.15638e-26
3.30972e-28
0
-4.34937e-28
0
-3.54134e-28
1.63099e-27
1.63585e-28
0
5.85972e-29
2.40736e-28
1.2071e-28
8.02478e-29
5.60363e-31
0
6.11642e-29
1.89826e-23
1.21346e-23
1.87485e-25
3.43353e-26
0
4.14959e-27
3.31708e-28
1.08901e-27
4.39923e-28
3.99235e-29
0
6.1493e-28
7.41507e-28
-7.18443e-29
6.80017e-28
3.54093e-29
0
5.22709e-29
3.79603e-28
0
8.5224e-24
8.65523e-24
4.83153e-25
1.24437e-26
7.34684e-28
0
0
8.5192e-28
1.73197e-27
0
0
0
0
5.05389e-30
0
0
9.62458e-29
3.50424e-28
0
2.05283e-30
5.22123e-23
1.7346e-23
1.96815e-25
7.83739e-26
0
1.62105e-27
0
-3.63467e-28
1.49818e-27
4.93187e-28
3.48984e-28
7.34043e-28
6.82509e-28
1.01665e-28
7.93332e-28
2.6152e-28
0
0
0
-2.40017e-29
9.54534e-24
1.06099e-23
5.6933e-25
3.02561e-26
0
1.05849e-27
1.06065e-27
0
1.02595e-27
0
0
0
9.70067e-29
0
0
3.47713e-28
0
0
5.09721e-29
0
1.21116e-23
5.18715e-24
4.12359e-25
0
2.09514e-27
5.85104e-28
8.87586e-28
2.3123e-28
8.28523e-28
5.89902e-28
0
0
1.96022e-28
2.62708e-28
4.47363e-28
7.78483e-29
5.31511e-30
1.13469e-28
1.9799e-28
0
)
;

boundaryField
{
    movingWall
    {
        type            calculated;
        value           nonuniform List<scalar> 
20
(
0
0
4.89124e-25
-1.29159e-26
1.37307e-26
-4.55288e-27
9.81412e-27
9.39641e-27
3.33916e-27
0
0
1.01728e-27
9.63489e-28
0
2.63937e-28
0
8.70827e-30
4.8077e-28
4.51446e-28
0
)
;
    }
    fixedWalls
    {
        type            calculated;
        value           nonuniform List<scalar> 
60
(
1.08562e-22
1.02392e-22
2.97882e-22
2.83221e-22
1.20927e-22
1.53375e-22
1.48222e-22
4.53401e-23
4.97206e-23
2.47298e-23
0
1.15866e-23
2.44911e-23
7.54281e-24
2.09129e-22
1.86442e-22
1.39371e-22
2.67229e-22
1.73499e-22
9.12349e-23
1.0516e-28
-4.94036e-28
1.55135e-27
1.36853e-27
4.62047e-28
1.28866e-28
7.22059e-28
0
0
0
6.48599e-28
1.19899e-29
0
0
2.23689e-28
0
0
8.50573e-29
1.17338e-28
0
0
0
1.43193e-24
0
3.55447e-26
-4.91105e-27
3.83528e-27
1.07029e-27
0
-4.49552e-28
5.03653e-28
2.47281e-27
9.55973e-28
0
4.19946e-28
1.02281e-27
4.3338e-28
2.14227e-27
0
0
)
;
    }
    frontAndBack
    {
        type            empty;
    }
}


// ************************************************************************* //
