/*--------------------------------*- C++ -*----------------------------------*\
| =========                 |                                                 |
| \\      /  F ield         | OpenFOAM: The Open Source CFD Toolbox           |
|  \\    /   O peration     | Version:  2312                                  |
|   \\  /    A nd           | Website:  www.openfoam.com                      |
|    \\/     M anipulation  |                                                 |
\*---------------------------------------------------------------------------*/
FoamFile
{
    version     2.0;
    format      ascii;
    arch        "LSB;label=32;scalar=64";
    class       volScalarField;
    location    "6.625";
    object      QField;
}
// * * * * * * * * * * * * * * * * * * * * * * * * * * * * * * * * * * * * * //

dimensions      [0 0 -2 0 0 0 0];

internalField   nonuniform List<scalar> 
400
(
-2.84956e-23
-9.23696e-24
-5.01415e-25
4.83472e-26
-1.18212e-26
0
1.17043e-27
3.26626e-28
2.43751e-28
-3.00169e-28
0
7.69792e-28
-4.61129e-28
-7.55774e-29
2.56315e-28
1.07619e-28
-4.72908e-28
-2.3408e-28
2.30853e-28
-3.4282e-28
-5.26093e-23
-1.66509e-23
-1.13927e-24
-2.28051e-27
-2.13296e-27
-4.31966e-27
-8.02444e-28
-1.25644e-27
-7.132e-29
-9.0256e-28
2.9044e-28
8.16064e-28
-1.06973e-27
8.50735e-28
-1.15992e-27
-3.01095e-28
-1.64587e-27
-4.71536e-28
5.6272e-29
4.00008e-28
-6.25591e-23
-2.06545e-23
-5.47642e-25
-1.04027e-25
1.07705e-26
-3.28202e-27
5.0291e-27
1.74342e-28
-2.06009e-28
1.07872e-27
2.12143e-27
3.19382e-28
-1.45214e-27
2.48648e-28
-7.16643e-28
-1.1718e-27
-2.48585e-28
-3.27251e-29
0
-1.38125e-27
-5.80204e-23
-1.70363e-23
-8.7296e-25
-2.22336e-26
-4.11302e-27
1.34945e-27
-4.92784e-29
-6.44958e-28
-6.10604e-28
5.27899e-29
-3.48113e-28
8.25414e-28
4.77521e-29
2.54822e-28
1.57686e-27
9.02021e-28
0
0
4.77009e-28
-8.71059e-28
-4.14588e-23
-1.18642e-23
-6.41573e-25
-1.19041e-26
-1.34537e-27
1.96087e-27
1.52115e-27
3.51648e-28
-2.63789e-28
2.73965e-28
2.95444e-28
3.25348e-28
-1.45661e-27
-1.03127e-27
-1.88921e-28
7.63561e-28
2.74995e-28
2.06543e-28
4.46212e-28
-5.24175e-28
-3.64221e-23
-1.09644e-23
-4.48367e-25
-2.03009e-26
-2.8001e-27
0
0
-2.31087e-27
-4.1382e-27
-1.70884e-27
3.82038e-28
1.43913e-28
1.25468e-28
7.6654e-28
3.96412e-28
-3.93332e-29
0
0
0
-6.15389e-28
-2.94344e-23
-1.06289e-23
5.15325e-26
2.83614e-26
-8.27493e-27
5.45137e-27
1.66254e-27
1.93894e-27
8.57006e-28
4.92315e-27
3.95722e-27
-6.33514e-28
-7.21761e-28
4.30637e-28
-1.60464e-28
-4.74227e-28
-3.36136e-28
-2.19682e-28
3.44658e-28
-3.04774e-28
-2.11328e-23
-6.66234e-24
-4.89762e-25
8.96016e-27
-7.7043e-28
2.59415e-28
2.17304e-28
-4.6187e-28
-2.05865e-27
0
-9.21895e-28
-2.1981e-27
-7.82028e-29
0
0
4.62845e-28
0
0
7.88064e-29
0
-1.64293e-23
-6.21642e-24
-1.63853e-25
-1.80581e-26
5.18868e-28
-9.83914e-28
0
-4.35824e-28
1.03251e-28
2.78525e-28
-1.0201e-28
1.59861e-28
1.79762e-27
-4.41956e-29
-5.72026e-28
-2.84075e-28
1.96244e-28
5.88688e-28
-8.12165e-29
-1.20931e-28
-5.60716e-24
-2.56337e-24
1.08465e-25
9.63891e-27
0
-2.76111e-28
3.00548e-28
-3.93174e-28
-4.74786e-28
-8.53054e-28
-1.60138e-28
-2.58199e-29
0
6.26123e-28
-1.03436e-28
-7.9358e-28
0
-3.19966e-28
-5.9734e-28
0
5.06085e-24
1.42516e-24
1.13728e-25
2.5884e-26
6.86686e-27
0
2.87786e-28
2.43959e-27
0
3.37175e-28
-1.85029e-28
-1.79254e-28
-3.75606e-28
2.95406e-28
1.92348e-27
1.75844e-27
-1.22451e-28
-1.61988e-27
-1.5967e-29
-2.63322e-28
8.03733e-24
4.79863e-25
3.7521e-25
-2.81789e-26
1.19773e-26
-3.8361e-27
-1.53034e-27
-1.33982e-28
-5.15974e-28
-8.25734e-29
9.29456e-29
2.77024e-28
7.48076e-28
-5.37866e-28
-1.93116e-27
-3.46504e-29
1.20329e-27
1.03672e-28
-2.32718e-29
-9.38552e-29
1.01965e-23
8.48885e-25
-6.39902e-26
2.33954e-26
-2.43043e-28
-1.03305e-27
0
9.45968e-28
-3.041e-29
-2.25019e-28
5.96485e-28
3.73249e-28
-1.8376e-28
-1.17427e-27
-2.71179e-28
-2.18964e-28
0
-2.30704e-27
7.6529e-29
1.92739e-28
-6.70796e-24
-4.05531e-24
-2.55349e-28
5.68585e-27
5.49544e-27
-5.00127e-27
-1.55645e-27
8.6321e-28
7.33438e-28
5.26268e-28
3.09967e-28
0
0
1.05772e-27
0
-3.37139e-28
8.87543e-28
0
0
0
-3.76511e-23
-1.37154e-23
1.45648e-26
1.27326e-27
-1.13902e-26
-9.86225e-28
1.07223e-27
4.41761e-28
3.42836e-28
3.54142e-28
-2.96117e-28
-1.63585e-28
0
-5.85972e-29
-2.40736e-28
-2.97798e-28
-2.08387e-28
-2.02901e-29
0
-2.11982e-28
-4.87609e-23
-1.5611e-23
-3.64786e-25
-4.32891e-26
4.9678e-27
-5.61898e-27
-1.31947e-28
-1.08901e-27
-4.39923e-28
-3.99235e-29
1.09326e-27
-2.19006e-27
-6.71466e-28
2.68698e-28
-2.44292e-28
-4.77628e-29
1.81271e-28
-1.95966e-28
-3.79603e-28
0
-4.77812e-23
-1.44074e-23
-7.89596e-25
-2.37974e-26
-1.20753e-27
0
4.59129e-28
-1.56614e-27
-5.11438e-28
1.29656e-27
2.17928e-27
-1.42133e-28
1.86509e-28
6.09345e-29
1.28942e-27
1.59734e-28
-2.33288e-28
5.07396e-28
0
-3.88353e-29
-5.20176e-23
-1.72419e-23
-1.87594e-25
-7.71171e-26
7.46259e-27
-1.71995e-27
1.64749e-27
3.83389e-28
-1.49818e-27
-9.68863e-28
-7.85881e-29
-8.04533e-28
-1.25887e-27
-5.46595e-28
2.9265e-29
-1.31499e-27
2.78995e-28
0
0
2.4781e-29
-5.01691e-23
-1.49489e-23
-7.92084e-25
-4.33972e-26
6.53197e-28
-1.05849e-27
7.59364e-28
1.48403e-29
-7.79716e-28
0
0
0
1.62672e-28
-7.12466e-29
5.95188e-28
-3.47713e-28
7.55284e-28
9.68539e-29
-5.09721e-29
2.15808e-28
-2.41976e-23
-7.20439e-24
-5.38556e-25
1.23384e-26
-2.09514e-27
-6.55642e-28
-1.50963e-27
-4.12166e-28
-1.55986e-27
-6.58325e-28
0
0
-1.96022e-28
-4.08266e-28
-2.81289e-28
-2.53151e-28
-5.31511e-30
-4.2187e-29
-3.77166e-28
0
)
;

boundaryField
{
    movingWall
    {
        type            calculated;
        value           nonuniform List<scalar> 
20
(
6.20401e-24
4.66183e-24
-1.09946e-24
1.41507e-25
-1.37307e-26
5.65482e-27
-8.99453e-27
-9.72046e-27
-3.56797e-27
6.62197e-29
8.83281e-28
-1.01728e-27
-9.63489e-28
-6.38205e-28
-4.42218e-28
-1.80499e-30
-8.70827e-30
-4.59787e-29
-5.73118e-28
0
)
;
    }
    fixedWalls
    {
        type            calculated;
        value           nonuniform List<scalar> 
60
(
-1.62642e-22
-3.00858e-22
-3.22548e-22
-2.98254e-22
-2.20845e-22
-1.92909e-22
-1.52042e-22
-1.21534e-22
-8.84055e-23
-2.76191e-23
2.56761e-23
3.7791e-23
3.37671e-23
-4.5048e-23
-1.93382e-22
-2.63479e-22
-2.61039e-22
-2.65405e-22
-2.74535e-22
-1.35199e-22
-5.61676e-28
4.96039e-28
-2.09961e-27
-1.40169e-27
-8.58808e-28
-5.04127e-28
-7.22059e-28
0
0
0
-6.48599e-28
-1.53772e-28
2.73178e-28
0
-3.47311e-28
0
0
-8.50573e-29
6.42322e-29
0
1.36479e-23
1.13211e-23
-2.51772e-24
2.73555e-25
-4.15928e-26
7.45666e-27
-3.83528e-27
-1.07029e-27
1.28785e-27
4.91796e-28
-5.03653e-28
-1.77228e-27
-1.29596e-27
1.23826e-28
-4.19946e-28
-1.50953e-27
-1.32565e-27
-2.79264e-27
0
-2.84928e-29
)
;
    }
    frontAndBack
    {
        type            empty;
    }
}


// ************************************************************************* //
