/*--------------------------------*- C++ -*----------------------------------*\
| =========                 |                                                 |
| \\      /  F ield         | OpenFOAM: The Open Source CFD Toolbox           |
|  \\    /   O peration     | Version:  2312                                  |
|   \\  /    A nd           | Website:  www.openfoam.com                      |
|    \\/     M anipulation  |                                                 |
\*---------------------------------------------------------------------------*/
FoamFile
{
    version     2.0;
    format      ascii;
    arch        "LSB;label=32;scalar=64";
    class       volVectorField;
    location    "6.625";
    object      U;
}
// * * * * * * * * * * * * * * * * * * * * * * * * * * * * * * * * * * * * * //

dimensions      [0 1 -1 0 0 0 0];

internalField   nonuniform List<vector> 
400
(
(-1 1.59227e-13 0)
(-1 -3.38185e-14 0)
(-1 8.10203e-15 0)
(-1 -1.59458e-15 0)
(-1 4.14442e-16 0)
(-1 -1.26135e-16 0)
(-1 -5.3305e-18 0)
(-1 8.97721e-17 0)
(-1 5.49213e-17 0)
(-1 -1.62488e-17 0)
(-1 -4.50026e-19 0)
(-1 4.04574e-17 0)
(-1 9.91209e-17 0)
(-1 6.53724e-17 0)
(-1 8.51794e-17 0)
(-1 1.12654e-16 0)
(-1 1.5006e-16 0)
(-1 4.48065e-17 0)
(-1 -5.49719e-17 0)
(-1 -4.03633e-17 0)
(-1 5.45863e-15 0)
(-1 -8.4085e-16 0)
(-1 5.08073e-16 0)
(-1 3.63688e-16 0)
(-1 2.97733e-16 0)
(-1 1.66957e-16 0)
(-1 4.26688e-17 0)
(-1 -1.15803e-17 0)
(-1 -3.88287e-17 0)
(-1 -9.17317e-18 0)
(-1 -2.93524e-17 0)
(-1 4.44036e-17 0)
(-1 7.10057e-17 0)
(-1 1.73505e-17 0)
(-1 -3.11303e-17 0)
(-1 -2.25967e-17 0)
(-1 2.44118e-17 0)
(-1 -1.62644e-18 0)
(-1 -4.38356e-17 0)
(-1 -2.28758e-17 0)
(-1 -1.38456e-13 0)
(-1 3.03246e-14 0)
(-1 -7.12437e-15 0)
(-1 1.62992e-15 0)
(-1 -1.92418e-16 0)
(-1 2.88105e-16 0)
(-1 5.34257e-17 0)
(-1 -1.01252e-16 0)
(-1 4.05615e-17 0)
(-1 1.54982e-16 0)
(-1 -5.89332e-17 0)
(-1 -1.05455e-16 0)
(-1 -9.82102e-17 0)
(-1 -9.15605e-17 0)
(-1 -1.28789e-16 0)
(-1 -1.63807e-17 0)
(-1 -5.23456e-17 0)
(-1 -7.63003e-17 0)
(-1 -9.69819e-17 0)
(-1 -5.45174e-17 0)
(-1 1.1589e-13 0)
(-1 -2.52708e-14 0)
(-1 5.83272e-15 0)
(-1 -1.49596e-15 0)
(-1 2.45912e-16 0)
(-1 -6.97035e-17 0)
(-1 -3.01768e-18 0)
(-1 -5.1523e-17 0)
(-1 3.71751e-17 0)
(-1 6.11136e-17 0)
(-1 -3.07111e-17 0)
(-1 -1.29617e-16 0)
(-1 -1.82973e-16 0)
(-1 -1.35539e-16 0)
(-1 5.19449e-18 0)
(-1 1.55341e-16 0)
(-1 1.16123e-16 0)
(-1 -1.79079e-17 0)
(-1 -1.87596e-16 0)
(-1 -1.26172e-16 0)
(-1 -1.77696e-14 0)
(-1 3.26793e-15 0)
(-1 -8.45013e-16 0)
(-1 -1.06334e-17 0)
(-1 -1.01237e-16 0)
(-1 8.13668e-18 0)
(-1 6.51396e-17 0)
(-1 1.36696e-16 0)
(-1 1.30007e-16 0)
(-1 1.06572e-16 0)
(-1 1.00647e-16 0)
(-1 -2.42761e-18 0)
(-1 -7.46698e-17 0)
(-1 2.59432e-18 0)
(-1 9.10288e-18 0)
(-1 -4.94492e-17 0)
(-1 -6.13232e-17 0)
(-1 -1.00177e-16 0)
(-1 -1.37524e-16 0)
(-1 -4.69211e-17 0)
(-1 -8.59998e-14 0)
(-1 1.94675e-14 0)
(-1 -4.57615e-15 0)
(-1 9.59689e-16 0)
(-1 -3.06752e-16 0)
(-1 -1.1777e-17 0)
(-1 -8.46074e-17 0)
(-1 -6.09829e-17 0)
(-1 -6.01456e-17 0)
(-1 -3.99616e-17 0)
(-1 3.263e-17 0)
(-1 1.00986e-16 0)
(-1 8.57247e-17 0)
(-1 5.46963e-17 0)
(-1 -5.5677e-17 0)
(-1 -9.1554e-17 0)
(-1 -7.01884e-17 0)
(-1 -1.06963e-16 0)
(-1 -2.29731e-17 0)
(-1 6.72149e-17 0)
(-1 1.17595e-13 0)
(-1 -2.52934e-14 0)
(-1 6.18476e-15 0)
(-1 -1.05971e-15 0)
(-1 4.1529e-16 0)
(-1 -4.2077e-17 0)
(-1 -8.75099e-17 0)
(-1 -3.14046e-16 0)
(-1 -3.85909e-16 0)
(-1 -2.08652e-16 0)
(-1 6.81718e-17 0)
(-1 1.40485e-16 0)
(-1 2.13213e-18 0)
(-1 -2.36524e-17 0)
(-1 8.15706e-17 0)
(-1 8.93487e-17 0)
(-1 2.32509e-17 0)
(-1 3.02004e-18 0)
(-1 4.58436e-17 0)
(-1 6.65982e-17 0)
(-1 -3.44068e-14 0)
(-1 7.16041e-15 0)
(-1 -1.63063e-15 0)
(-1 4.21972e-16 0)
(-1 2.22239e-17 0)
(-1 1.37734e-16 0)
(-1 1.17931e-16 0)
(-1 5.75626e-17 0)
(-1 -6.74008e-17 0)
(-1 -6.85333e-17 0)
(-1 9.25081e-19 0)
(-1 -6.67002e-17 0)
(-1 -1.6421e-17 0)
(-1 4.90673e-17 0)
(-1 8.69245e-17 0)
(-1 -1.09085e-17 0)
(-1 -1.07872e-16 0)
(-1 -3.32189e-18 0)
(-1 9.63928e-18 0)
(-1 -3.23963e-17 0)
(-1 -6.3088e-14 0)
(-1 1.3722e-14 0)
(-1 -3.5236e-15 0)
(-1 5.51069e-16 0)
(-1 -1.57028e-16 0)
(-1 4.48609e-18 0)
(-1 -6.54767e-17 0)
(-1 -4.35138e-17 0)
(-1 -4.86758e-17 0)
(-1 -1.21832e-16 0)
(-1 -1.00055e-16 0)
(-1 -1.35616e-16 0)
(-1 1.6558e-17 0)
(-1 8.54521e-17 0)
(-1 1.66728e-17 0)
(-1 -2.00681e-17 0)
(-1 -3.57299e-17 0)
(-1 5.23331e-17 0)
(-1 7.28638e-17 0)
(-1 1.17685e-17 0)
(-1 9.80025e-14 0)
(-1 -2.18828e-14 0)
(-1 5.04575e-15 0)
(-1 -1.22587e-15 0)
(-1 2.13653e-16 0)
(-1 -1.33715e-16 0)
(-1 -7.08485e-17 0)
(-1 -2.28327e-17 0)
(-1 5.11425e-17 0)
(-1 5.00149e-17 0)
(-1 5.23443e-17 0)
(-1 -9.06562e-18 0)
(-1 -4.63309e-17 0)
(-1 3.2762e-17 0)
(-1 6.91684e-17 0)
(-1 -1.44551e-17 0)
(-1 -3.99115e-17 0)
(-1 -6.02426e-17 0)
(-1 -9.6172e-19 0)
(-1 1.22193e-17 0)
(-1 -9.72306e-14 0)
(-1 2.15152e-14 0)
(-1 -4.82088e-15 0)
(-1 1.18905e-15 0)
(-1 -3.12697e-16 0)
(-1 -9.73809e-17 0)
(-1 -1.11385e-16 0)
(-1 1.01542e-16 0)
(-1 1.26489e-16 0)
(-1 3.55287e-17 0)
(-1 2.09346e-18 0)
(-1 7.12602e-17 0)
(-1 2.59255e-17 0)
(-1 7.00887e-17 0)
(-1 3.57533e-17 0)
(-1 -1.66458e-16 0)
(-1 -1.63229e-16 0)
(-1 -6.57135e-17 0)
(-1 -3.7326e-17 0)
(-1 -5.98227e-17 0)
(-1 8.68144e-14 0)
(-1 -1.86957e-14 0)
(-1 4.39268e-15 0)
(-1 -9.59288e-16 0)
(-1 2.5309e-16 0)
(-1 3.18445e-17 0)
(-1 2.19e-17 0)
(-1 -4.8556e-17 0)
(-1 -2.75305e-17 0)
(-1 2.18051e-17 0)
(-1 -1.59195e-17 0)
(-1 3.32354e-17 0)
(-1 9.4586e-17 0)
(-1 1.71231e-16 0)
(-1 2.84401e-17 0)
(-1 -6.62598e-17 0)
(-1 1.56564e-17 0)
(-1 1.1267e-16 0)
(-1 3.47804e-17 0)
(-1 -1.46323e-17 0)
(-1 -2.40418e-14 0)
(-1 5.14999e-15 0)
(-1 -1.25253e-15 0)
(-1 1.77763e-16 0)
(-1 -8.55345e-17 0)
(-1 1.47874e-16 0)
(-1 9.05128e-17 0)
(-1 -6.16566e-17 0)
(-1 -3.90524e-17 0)
(-1 6.81773e-17 0)
(-1 2.45624e-18 0)
(-1 -5.17738e-18 0)
(-1 7.13085e-17 0)
(-1 -2.00746e-19 0)
(-1 -1.11485e-16 0)
(-1 -1.02486e-16 0)
(-1 -7.0377e-17 0)
(-1 -5.34305e-17 0)
(-1 -4.59118e-17 0)
(-1 -2.51962e-17 0)
(-1 -8.2642e-14 0)
(-1 1.76945e-14 0)
(-1 -4.29887e-15 0)
(-1 7.66986e-16 0)
(-1 -4.66519e-16 0)
(-1 -2.46744e-16 0)
(-1 -1.75545e-16 0)
(-1 -8.82511e-17 0)
(-1 -1.63112e-17 0)
(-1 4.70442e-17 0)
(-1 8.07681e-17 0)
(-1 1.04223e-16 0)
(-1 1.23507e-16 0)
(-1 -4.53843e-17 0)
(-1 -7.16072e-17 0)
(-1 1.45236e-17 0)
(-1 -6.86544e-17 0)
(-1 -1.54736e-16 0)
(-1 -1.58824e-16 0)
(-1 -1.0038e-16 0)
(-1 1.56336e-13 0)
(-1 -3.43393e-14 0)
(-1 7.98922e-15 0)
(-1 -1.79893e-15 0)
(-1 1.8415e-16 0)
(-1 -4.67173e-16 0)
(-1 -1.96601e-16 0)
(-1 -7.15891e-17 0)
(-1 -3.36203e-17 0)
(-1 5.48952e-17 0)
(-1 9.7035e-17 0)
(-1 8.66818e-17 0)
(-1 3.66828e-17 0)
(-1 -2.25111e-17 0)
(-1 2.58735e-17 0)
(-1 2.18969e-17 0)
(-1 -5.93037e-17 0)
(-1 -1.39931e-16 0)
(-1 -1.53905e-16 0)
(-1 -6.37427e-17 0)
(-1 -1.04588e-13 0)
(-1 2.29756e-14 0)
(-1 -5.37357e-15 0)
(-1 1.23674e-15 0)
(-1 -2.59543e-16 0)
(-1 -6.48175e-17 0)
(-1 -1.7019e-16 0)
(-1 -1.14375e-16 0)
(-1 -3.62648e-17 0)
(-1 4.7928e-17 0)
(-1 -2.15356e-17 0)
(-1 -8.65188e-17 0)
(-1 -7.05135e-17 0)
(-1 -8.52602e-17 0)
(-1 -1.2008e-16 0)
(-1 -9.53445e-17 0)
(-1 -1.07095e-16 0)
(-1 -1.62222e-16 0)
(-1 -1.28683e-16 0)
(-1 -2.21728e-17 0)
(-1 -2.15879e-14 0)
(-1 4.53806e-15 0)
(-1 -1.24152e-15 0)
(-1 1.1535e-16 0)
(-1 -7.26223e-17 0)
(-1 7.49175e-17 0)
(-1 7.50278e-19 0)
(-1 -9.77691e-18 0)
(-1 6.38366e-17 0)
(-1 -2.00867e-17 0)
(-1 -1.761e-16 0)
(-1 -2.31625e-16 0)
(-1 -2.08527e-16 0)
(-1 -1.62816e-16 0)
(-1 -8.44227e-17 0)
(-1 2.65339e-17 0)
(-1 -8.10342e-18 0)
(-1 -6.76326e-17 0)
(-1 -3.85467e-17 0)
(-1 -5.83436e-18 0)
(-1 1.16094e-13 0)
(-1 -2.52423e-14 0)
(-1 5.925e-15 0)
(-1 -1.39976e-15 0)
(-1 1.85956e-16 0)
(-1 -2.31592e-17 0)
(-1 3.81822e-17 0)
(-1 1.11441e-16 0)
(-1 7.35436e-17 0)
(-1 -7.28028e-17 0)
(-1 -6.36772e-17 0)
(-1 -1.65371e-18 0)
(-1 -6.34408e-17 0)
(-1 -6.27793e-17 0)
(-1 -2.30652e-17 0)
(-1 -7.79565e-17 0)
(-1 -2.10269e-17 0)
(-1 2.49745e-17 0)
(-1 1.69877e-17 0)
(-1 -7.84515e-18 0)
(-1 -4.47105e-14 0)
(-1 9.31328e-15 0)
(-1 -2.40034e-15 0)
(-1 3.59356e-16 0)
(-1 -1.25093e-16 0)
(-1 1.18369e-16 0)
(-1 7.01643e-17 0)
(-1 -5.44114e-17 0)
(-1 -1.41666e-16 0)
(-1 -1.302e-16 0)
(-1 -4.80778e-18 0)
(-1 6.54314e-17 0)
(-1 -6.86971e-18 0)
(-1 -6.19865e-17 0)
(-1 -1.25574e-16 0)
(-1 -1.35182e-16 0)
(-1 2.70929e-18 0)
(-1 4.14362e-18 0)
(-1 -8.62889e-17 0)
(-1 -1.46618e-17 0)
(-1 -8.89072e-14 0)
(-1 1.91259e-14 0)
(-1 -4.76932e-15 0)
(-1 8.96488e-16 0)
(-1 -2.17254e-16 0)
(-1 1.2352e-16 0)
(-1 9.77286e-17 0)
(-1 -9.76511e-17 0)
(-1 -1.46077e-16 0)
(-1 -1.12679e-16 0)
(-1 -7.35755e-17 0)
(-1 -6.29547e-17 0)
(-1 -1.30843e-16 0)
(-1 -1.35274e-16 0)
(-1 -8.42062e-17 0)
(-1 -2.92714e-17 0)
(-1 -1.31493e-17 0)
(-1 -2.82909e-17 0)
(-1 -5.28608e-17 0)
(-1 1.34864e-17 0)
)
;

boundaryField
{
    movingWall
    {
        type            fixedValue;
        value           uniform (-1 -0 -0);
    }
    fixedWalls
    {
        type            noSlip;
    }
    frontAndBack
    {
        type            empty;
    }
}


// ************************************************************************* //
