/*--------------------------------*- C++ -*----------------------------------*\
| =========                 |                                                 |
| \\      /  F ield         | OpenFOAM: The Open Source CFD Toolbox           |
|  \\    /   O peration     | Version:  2312                                  |
|   \\  /    A nd           | Website:  www.openfoam.com                      |
|    \\/     M anipulation  |                                                 |
\*---------------------------------------------------------------------------*/
FoamFile
{
    version     2.0;
    format      ascii;
    arch        "LSB;label=32;scalar=64";
    class       volVectorField;
    location    "6.625";
    object      vorticityField;
}
// * * * * * * * * * * * * * * * * * * * * * * * * * * * * * * * * * * * * * //

dimensions      [0 0 -1 0 0 0 0];

internalField   nonuniform List<vector> 
400
(
(0 -0 1.11585e-11)
(0 -0 -1.47873e-11)
(0 -0 3.16819e-12)
(0 -0 -8.22969e-13)
(0 -0 9.26343e-14)
(0 -0 -4.19772e-14)
(0 -0 7.58008e-14)
(0 -0 6.02353e-14)
(0 -0 -3.77071e-14)
(0 -0 4.8673e-14)
(0 -0 5.67063e-15)
(0 -0 6.41672e-14)
(0 -0 2.4915e-15)
(0 -0 5.2816e-14)
(0 -0 5.89383e-14)
(0 -0 6.06982e-14)
(0 -0 -6.78476e-15)
(0 -0 -2.05032e-14)
(0 -0 -3.5622e-14)
(0 -0 9.53352e-15)
(0 -0 1.09412e-13)
(0 -0 -2.24005e-13)
(0 -0 2.55979e-13)
(0 -0 8.73862e-14)
(0 -0 8.87471e-14)
(0 -0 5.58087e-14)
(0 -0 9.25135e-15)
(0 -0 1.89553e-14)
(0 -0 2.73458e-14)
(0 -0 2.80527e-14)
(0 -0 5.95678e-14)
(0 -0 9.1351e-14)
(0 -0 -2.70531e-15)
(0 -0 -1.02136e-14)
(0 -0 -3.99472e-15)
(0 -0 -4.86559e-14)
(0 -0 2.09703e-15)
(0 -0 -3.39298e-14)
(0 -0 2.49801e-14)
(0 -0 6.08813e-14)
(0 -0 -5.60893e-12)
(0 -0 1.16965e-11)
(0 -0 -2.73394e-12)
(0 -0 5.5767e-13)
(0 -0 -2.15496e-13)
(0 -0 -5.67308e-14)
(0 -0 -1.74461e-13)
(0 -0 -1.36812e-13)
(0 -0 2.56234e-14)
(0 -0 -1.1837e-13)
(0 -0 -1.07359e-13)
(0 -0 -8.52429e-14)
(0 -0 -5.28207e-14)
(0 -0 -8.4373e-14)
(0 -0 -1.00902e-13)
(0 -0 -1.94608e-14)
(0 -0 -5.99196e-15)
(0 -0 2.26414e-14)
(0 -0 2.17829e-15)
(0 -0 -3.90602e-14)
(0 -0 5.40276e-12)
(0 -0 -1.00842e-11)
(0 -0 2.16065e-12)
(0 -0 -5.58681e-13)
(0 -0 1.1552e-13)
(0 -0 -7.91031e-14)
(0 -0 -2.5287e-14)
(0 -0 4.01928e-15)
(0 -0 -4.29464e-14)
(0 -0 -3.38937e-14)
(0 -0 -4.61781e-14)
(0 -0 -6.94363e-14)
(0 -0 2.65128e-14)
(0 -0 4.59218e-14)
(0 -0 8.32981e-14)
(0 -0 9.24081e-14)
(0 -0 -1.73249e-14)
(0 -0 -3.0372e-14)
(0 -0 -6.50365e-14)
(0 -0 4.27171e-15)
(0 -0 -3.04936e-12)
(0 -0 1.99061e-12)
(0 -0 -4.36276e-13)
(0 -0 1.82798e-13)
(0 -0 8.31922e-14)
(0 -0 1.25058e-13)
(0 -0 1.48381e-13)
(0 -0 6.06969e-14)
(0 -0 -3.01239e-15)
(0 -0 -2.93599e-15)
(0 -0 -3.8005e-14)
(0 -0 -7.17418e-14)
(0 -0 5.02193e-16)
(0 -0 8.37727e-15)
(0 -0 -3.23094e-14)
(0 -0 -1.15463e-13)
(0 -0 -5.92829e-14)
(0 -0 -3.47251e-14)
(0 -0 5.32557e-15)
(0 -0 1.84445e-14)
(0 -0 -2.723e-12)
(0 -0 7.16658e-12)
(0 -0 -1.74236e-12)
(0 -0 3.7273e-13)
(0 -0 -9.71466e-14)
(0 -0 2.22145e-14)
(0 -0 -4.92059e-15)
(0 -0 5.66563e-14)
(0 -0 2.92072e-14)
(0 -0 9.27757e-15)
(0 -0 4.11998e-14)
(0 -0 3.24145e-14)
(0 -0 -3.1734e-14)
(0 -0 -6.83503e-14)
(0 -0 -4.17301e-14)
(0 -0 2.56539e-14)
(0 -0 -1.54089e-15)
(0 -0 4.72153e-15)
(0 -0 1.74178e-14)
(0 -0 -4.42418e-15)
(0 -0 6.46545e-12)
(0 -0 -1.03008e-11)
(0 -0 2.47757e-12)
(0 -0 -6.31157e-13)
(0 -0 2.04485e-14)
(0 -0 -1.587e-13)
(0 -0 -1.08512e-13)
(0 -0 -8.405e-14)
(0 -0 9.18545e-14)
(0 -0 1.53828e-13)
(0 -0 1.43334e-13)
(0 -0 2.05011e-14)
(0 -0 1.06914e-14)
(0 -0 6.2154e-14)
(0 -0 6.55102e-14)
(0 -0 7.54832e-14)
(0 -0 1.84722e-14)
(0 -0 2.93643e-14)
(0 -0 6.05679e-14)
(0 -0 1.58609e-14)
(0 -0 -2.69753e-12)
(0 -0 3.27761e-12)
(0 -0 -7.28053e-13)
(0 -0 2.19496e-13)
(0 -0 -1.31878e-15)
(0 -0 3.66758e-14)
(0 -0 -3.51222e-14)
(0 -0 -7.27433e-14)
(0 -0 -6.68197e-14)
(0 -0 6.83259e-15)
(0 -0 -5.40268e-14)
(0 -0 -2.88397e-14)
(0 -0 1.15767e-14)
(0 -0 1.03345e-14)
(0 -0 -5.99758e-15)
(0 -0 -7.36898e-14)
(0 -0 7.58661e-16)
(0 -0 1.17511e-14)
(0 -0 -3.00125e-14)
(0 -0 2.2757e-15)
(0 -0 -3.71687e-12)
(0 -0 5.44144e-12)
(0 -0 -1.3713e-12)
(0 -0 3.09552e-13)
(0 -0 -5.46583e-14)
(0 -0 -1.79499e-14)
(0 -0 -4.79999e-15)
(0 -0 1.68009e-15)
(0 -0 -6.20419e-14)
(0 -0 -5.9348e-14)
(0 -0 -2.84835e-14)
(0 -0 3.87663e-14)
(0 -0 1.03422e-13)
(0 -0 1.14751e-17)
(0 -0 4.36581e-14)
(0 -0 4.89698e-14)
(0 -0 3.43452e-14)
(0 -0 6.50695e-14)
(0 -0 2.30486e-14)
(0 -0 -8.46323e-15)
(0 -0 7.06987e-12)
(0 -0 -9.05173e-12)
(0 -0 2.11991e-12)
(0 -0 -5.10315e-13)
(0 -0 1.09215e-13)
(0 -0 -2.84501e-14)
(0 -0 3.81933e-14)
(0 -0 1.21991e-14)
(0 -0 7.28476e-15)
(0 -0 1.20173e-16)
(0 -0 2.1197e-14)
(0 -0 -6.40776e-14)
(0 -0 4.18276e-15)
(0 -0 6.576e-14)
(0 -0 -4.72171e-15)
(0 -0 -1.0908e-14)
(0 -0 -4.57875e-15)
(0 -0 3.89498e-15)
(0 -0 7.24619e-15)
(0 -0 -1.12576e-15)
(0 -0 -8.16785e-12)
(0 -0 9.3765e-12)
(0 -0 -2.08682e-12)
(0 -0 5.05028e-13)
(0 -0 -1.82853e-13)
(0 -0 2.01311e-14)
(0 -0 4.69973e-14)
(0 -0 1.32208e-13)
(0 -0 -6.60131e-15)
(0 -0 -3.95446e-14)
(0 -0 3.57314e-15)
(0 -0 -2.47219e-14)
(0 -0 -5.43273e-14)
(0 -0 -8.03324e-14)
(0 -0 -1.0497e-13)
(0 -0 -1.01213e-13)
(0 -0 -1.70306e-14)
(0 -0 -4.16198e-14)
(0 -0 -2.6516e-14)
(0 -0 -1.73902e-14)
(0 -0 7.00161e-12)
(0 -0 -8.10665e-12)
(0 -0 1.96337e-12)
(0 -0 -3.32644e-13)
(0 -0 2.07533e-13)
(0 -0 8.53012e-14)
(0 -0 4.61701e-14)
(0 -0 2.2162e-14)
(0 -0 6.12462e-14)
(0 -0 8.24763e-14)
(0 -0 8.24582e-14)
(0 -0 9.23657e-14)
(0 -0 6.80097e-14)
(0 -0 7.47006e-14)
(0 -0 5.75661e-14)
(0 -0 2.58267e-14)
(0 -0 9.92081e-14)
(0 -0 5.61225e-14)
(0 -0 -1.27302e-14)
(0 -0 -2.01482e-15)
(0 -0 -2.35776e-13)
(0 -0 1.87235e-12)
(0 -0 -4.15907e-13)
(0 -0 1.167e-13)
(0 -0 7.83263e-14)
(0 -0 4.47098e-14)
(0 -0 -2.09531e-14)
(0 -0 -9.42717e-14)
(0 -0 1.29834e-14)
(0 -0 -5.00592e-14)
(0 -0 -8.86506e-14)
(0 -0 6.10953e-14)
(0 -0 -5.37124e-14)
(0 -0 -1.82794e-14)
(0 -0 -1.02285e-14)
(0 -0 4.11081e-15)
(0 -0 4.90551e-15)
(0 -0 -5.17636e-14)
(0 -0 2.99285e-14)
(0 -0 3.42159e-14)
(0 -0 -6.44054e-12)
(0 -0 7.64458e-12)
(0 -0 -1.85538e-12)
(0 -0 3.5613e-13)
(0 -0 -1.55583e-13)
(0 -0 2.90973e-14)
(0 -0 1.58493e-14)
(0 -0 7.01335e-14)
(0 -0 6.77396e-14)
(0 -0 6.3918e-14)
(0 -0 5.9928e-14)
(0 -0 4.27389e-15)
(0 -0 -1.49607e-14)
(0 -0 -7.37215e-14)
(0 -0 5.99079e-15)
(0 -0 2.95277e-16)
(0 -0 -7.1136e-14)
(0 -0 -9.01693e-15)
(0 -0 5.43555e-15)
(0 -0 2.59204e-14)
(0 -0 9.00123e-12)
(0 -0 -1.3886e-11)
(0 -0 3.25404e-12)
(0 -0 -7.80507e-13)
(0 -0 5.186e-14)
(0 -0 -3.80752e-14)
(0 -0 6.66635e-14)
(0 -0 4.34032e-14)
(0 -0 3.97535e-14)
(0 -0 4.01706e-14)
(0 -0 8.44938e-14)
(0 -0 2.10698e-14)
(0 -0 -1.09193e-14)
(0 -0 5.31292e-14)
(0 -0 -4.97693e-14)
(0 -0 -8.51772e-15)
(0 -0 -1.61828e-14)
(0 -0 -9.46016e-15)
(0 -0 7.61886e-15)
(0 -0 2.17648e-14)
(0 -0 -6.26387e-12)
(0 -0 9.32512e-12)
(0 -0 -2.28231e-12)
(0 -0 4.57193e-13)
(0 -0 -1.84366e-13)
(0 -0 -1.2659e-13)
(0 -0 -8.62709e-14)
(0 -0 -6.79227e-14)
(0 -0 -1.08748e-14)
(0 -0 -2.56321e-14)
(0 -0 -9.47598e-14)
(0 -0 -8.6213e-14)
(0 -0 -5.40842e-14)
(0 -0 -5.91667e-14)
(0 -0 -5.52185e-14)
(0 -0 -2.58066e-14)
(0 -0 -3.37928e-14)
(0 -0 -2.15884e-15)
(0 -0 -1.31002e-14)
(0 -0 1.50856e-14)
(0 -0 1.05973e-12)
(0 -0 1.24859e-12)
(0 -0 -3.88061e-13)
(0 -0 3.55747e-14)
(0 -0 -4.04322e-15)
(0 -0 7.33726e-15)
(0 -0 -6.26796e-14)
(0 -0 -4.79015e-14)
(0 -0 -8.23461e-14)
(0 -0 -1.05309e-13)
(0 -0 -1.29574e-13)
(0 -0 -3.03478e-14)
(0 -0 3.3986e-14)
(0 -0 1.24104e-14)
(0 -0 7.31451e-14)
(0 -0 3.4737e-14)
(0 -0 -9.41665e-15)
(0 -0 -3.04433e-15)
(0 -0 6.17983e-15)
(0 -0 4.43811e-15)
(0 -0 3.33886e-12)
(0 -0 -9.44477e-12)
(0 -0 2.30294e-12)
(0 -0 -4.38379e-13)
(0 -0 1.91871e-13)
(0 -0 9.36428e-14)
(0 -0 1.2188e-13)
(0 -0 1.11956e-13)
(0 -0 6.28908e-14)
(0 -0 1.3383e-14)
(0 -0 6.1325e-14)
(0 -0 2.71287e-14)
(0 -0 2.09925e-14)
(0 -0 4.03756e-15)
(0 -0 5.26924e-14)
(0 -0 2.03835e-16)
(0 -0 3.73982e-14)
(0 -0 3.80146e-15)
(0 -0 -3.28197e-15)
(0 -0 -2.80193e-14)
(0 -0 -2.23867e-12)
(0 -0 3.82444e-12)
(0 -0 -9.49603e-13)
(0 -0 1.46209e-13)
(0 -0 -5.12038e-14)
(0 -0 -3.46844e-14)
(0 -0 -9.85932e-14)
(0 -0 -7.53931e-14)
(0 -0 -6.1789e-14)
(0 -0 1.36858e-14)
(0 -0 1.95631e-14)
(0 -0 -2.06193e-16)
(0 -0 -3.98468e-14)
(0 -0 -3.89755e-14)
(0 -0 -8.86347e-14)
(0 -0 -1.42767e-14)
(0 -0 6.81426e-14)
(0 -0 -3.60049e-14)
(0 -0 2.52245e-14)
(0 -0 3.72001e-14)
(0 -0 -5.37893e-12)
(0 -0 8.06143e-12)
(0 -0 -1.68742e-12)
(0 -0 4.82312e-13)
(0 -0 -5.01918e-14)
(0 -0 3.14983e-14)
(0 -0 4.98794e-15)
(0 -0 -2.43806e-14)
(0 -0 -1.50279e-15)
(0 -0 7.25017e-15)
(0 -0 4.97243e-15)
(0 -0 -5.72678e-15)
(0 -0 1.98731e-14)
(0 -0 3.17688e-14)
(0 -0 3.77053e-14)
(0 -0 3.42107e-14)
(0 -0 -5.41121e-14)
(0 -0 2.31339e-14)
(0 -0 4.17773e-15)
(0 -0 3.93745e-15)
)
;

boundaryField
{
    movingWall
    {
        type            calculated;
        value           nonuniform List<vector> 
20
(
(0 -0 -1.28401e-11)
(0 -0 1.03234e-11)
(0 -0 -1.64531e-12)
(0 -0 7.66069e-13)
(0 -0 1.00339e-13)
(0 -0 2.53543e-13)
(0 -0 2.88745e-13)
(0 -0 3.30891e-13)
(0 -0 2.64951e-13)
(0 -0 1.84886e-13)
(0 -0 1.82608e-13)
(0 -0 1.71909e-13)
(0 -0 1.25995e-13)
(0 -0 1.82299e-13)
(0 -0 5.50092e-14)
(0 -0 5.15146e-14)
(0 -0 -8.87198e-14)
(0 -0 8.48467e-14)
(0 -0 4.17773e-15)
(0 -0 3.93745e-15)
)
;
    }
    fixedWalls
    {
        type            calculated;
        value           nonuniform List<vector> 
60
(
(0 -0 6.23086e-11)
(0 -0 1.83108e-12)
(0 -0 -5.01781e-11)
(0 -0 4.26969e-11)
(0 -0 -8.70703e-12)
(0 -0 -3.04697e-11)
(0 -0 4.42733e-11)
(0 -0 -1.37356e-11)
(0 -0 -2.40155e-11)
(0 -0 3.86589e-11)
(0 -0 -3.94886e-11)
(0 -0 3.49155e-11)
(0 -0 -7.96332e-12)
(0 -0 -3.30026e-11)
(0 -0 5.93359e-11)
(0 -0 -3.99378e-11)
(0 -0 -5.87045e-12)
(0 -0 4.06912e-11)
(0 -0 -1.65831e-11)
(0 -0 -3.39637e-11)
(0 -0 1.61453e-14)
(0 -0 6.33604e-14)
(0 -0 -3.24031e-14)
(0 -0 2.33636e-14)
(0 -0 1.87684e-14)
(0 -0 -2.6886e-14)
(0 -0 4.65764e-16)
(0 -0 1.29585e-14)
(0 -0 -4.7074e-15)
(0 -0 -4.88773e-15)
(0 -0 -3.17597e-15)
(0 -0 5.85291e-15)
(0 -0 3.71836e-14)
(0 -0 4.01521e-14)
(0 -0 2.54971e-14)
(0 -0 8.86913e-15)
(0 -0 2.33374e-15)
(0 -0 -2.3967e-14)
(0 -0 3.29698e-14)
(0 -0 -5.39455e-15)
(0 -0 1.70706e-11)
(0 -0 -1.69777e-11)
(0 -0 2.82272e-12)
(0 -0 -1.07962e-12)
(0 -0 -7.52002e-14)
(0 -0 -2.19613e-13)
(0 -0 -1.56045e-13)
(0 -0 -1.71611e-13)
(0 -0 -1.88238e-13)
(0 -0 -9.4355e-14)
(0 -0 -8.31472e-14)
(0 -0 -2.12088e-13)
(0 -0 -8.63263e-14)
(0 -0 -9.0212e-14)
(0 -0 -8.40897e-14)
(0 -0 -3.79208e-14)
(0 -0 -5.11937e-14)
(0 -0 6.83146e-14)
(0 -0 -8.51698e-15)
(0 -0 9.83514e-14)
)
;
    }
    frontAndBack
    {
        type            empty;
    }
}


// ************************************************************************* //
