/*--------------------------------*- C++ -*----------------------------------*\
| =========                 |                                                 |
| \\      /  F ield         | OpenFOAM: The Open Source CFD Toolbox           |
|  \\    /   O peration     | Version:  2312                                  |
|   \\  /    A nd           | Website:  www.openfoam.com                      |
|    \\/     M anipulation  |                                                 |
\*---------------------------------------------------------------------------*/
FoamFile
{
    version     2.0;
    format      ascii;
    arch        "LSB;label=32;scalar=64";
    class       volVectorField;
    location    "4.25";
    object      diffU;
}
// * * * * * * * * * * * * * * * * * * * * * * * * * * * * * * * * * * * * * //

dimensions      [0 1 -1 0 0 0 0];

internalField   nonuniform List<vector> 
400
(
(0 0 0)
(7.68139e-11 -3.54793e-08 0)
(3.57598e-11 -2.70543e-08 0)
(5.28353e-11 -2.90556e-08 0)
(4.61233e-11 -2.85804e-08 0)
(4.80644e-11 -2.86935e-08 0)
(4.72646e-11 -2.86666e-08 0)
(4.74224e-11 -2.8673e-08 0)
(4.73193e-11 -2.86715e-08 0)
(4.73162e-11 -2.86719e-08 0)
(4.72941e-11 -2.86718e-08 0)
(4.72853e-11 -2.86718e-08 0)
(4.72771e-11 -2.86718e-08 0)
(4.72716e-11 -2.86718e-08 0)
(4.7268e-11 -2.86718e-08 0)
(4.72652e-11 -2.86718e-08 0)
(4.72631e-11 -2.86718e-08 0)
(4.72622e-11 -2.86718e-08 0)
(4.72614e-11 -2.86718e-08 0)
(4.72609e-11 -2.86718e-08 0)
(1.05948e-10 -5.73309e-08 0)
(3.5294e-11 -2.18641e-08 0)
(5.16105e-11 -3.02849e-08 0)
(4.67044e-11 -2.82882e-08 0)
(4.76706e-11 -2.87624e-08 0)
(4.73913e-11 -2.86501e-08 0)
(4.73888e-11 -2.86768e-08 0)
(4.73482e-11 -2.86706e-08 0)
(4.7322e-11 -2.86721e-08 0)
(4.73046e-11 -2.86717e-08 0)
(4.72911e-11 -2.86718e-08 0)
(4.72823e-11 -2.86718e-08 0)
(4.72756e-11 -2.86718e-08 0)
(4.72709e-11 -2.86718e-08 0)
(4.72674e-11 -2.86718e-08 0)
(4.72651e-11 -2.86718e-08 0)
(4.72633e-11 -2.86718e-08 0)
(4.72622e-11 -2.86718e-08 0)
(4.72614e-11 -2.86718e-08 0)
(4.72609e-11 -2.86718e-08 0)
(-7.29001e-11 -7.84531e-11 0)
(6.94449e-11 -3.54568e-08 0)
(3.78695e-11 -2.70613e-08 0)
(4.89498e-11 -2.90534e-08 0)
(4.67453e-11 -2.85809e-08 0)
(4.74649e-11 -2.86932e-08 0)
(4.72867e-11 -2.86666e-08 0)
(4.73235e-11 -2.8673e-08 0)
(4.72992e-11 -2.86715e-08 0)
(4.72926e-11 -2.86719e-08 0)
(4.72838e-11 -2.86718e-08 0)
(4.72778e-11 -2.86718e-08 0)
(4.72727e-11 -2.86718e-08 0)
(4.72692e-11 -2.86718e-08 0)
(4.72664e-11 -2.86718e-08 0)
(4.72643e-11 -2.86718e-08 0)
(4.72629e-11 -2.86718e-08 0)
(4.7262e-11 -2.86718e-08 0)
(4.72611e-11 -2.86718e-08 0)
(4.72611e-11 -2.86718e-08 0)
(1.40531e-10 -5.72042e-08 0)
(3.11031e-11 -2.19053e-08 0)
(5.36549e-11 -3.02765e-08 0)
(4.5983e-11 -2.8291e-08 0)
(4.75174e-11 -2.87619e-08 0)
(4.71663e-11 -2.86503e-08 0)
(4.72862e-11 -2.86768e-08 0)
(4.7275e-11 -2.86706e-08 0)
(4.72802e-11 -2.86721e-08 0)
(4.72774e-11 -2.86717e-08 0)
(4.72741e-11 -2.86718e-08 0)
(4.72715e-11 -2.86718e-08 0)
(4.72689e-11 -2.86718e-08 0)
(4.72666e-11 -2.86718e-08 0)
(4.72649e-11 -2.86718e-08 0)
(4.72634e-11 -2.86718e-08 0)
(4.72629e-11 -2.86718e-08 0)
(4.72619e-11 -2.86718e-08 0)
(4.72614e-11 -2.86718e-08 0)
(4.72611e-11 -2.86718e-08 0)
(-1.50031e-11 -2.0751e-10 0)
(5.58884e-11 -3.54202e-08 0)
(4.31071e-11 -2.70711e-08 0)
(4.76549e-11 -2.90512e-08 0)
(4.70401e-11 -2.85817e-08 0)
(4.72464e-11 -2.8693e-08 0)
(4.72375e-11 -2.86667e-08 0)
(4.72549e-11 -2.8673e-08 0)
(4.72613e-11 -2.86715e-08 0)
(4.7264e-11 -2.86719e-08 0)
(4.72651e-11 -2.86718e-08 0)
(4.72649e-11 -2.86718e-08 0)
(4.72642e-11 -2.86718e-08 0)
(4.72635e-11 -2.86718e-08 0)
(4.7263e-11 -2.86718e-08 0)
(4.72622e-11 -2.86718e-08 0)
(4.72616e-11 -2.86718e-08 0)
(4.72613e-11 -2.86718e-08 0)
(4.72613e-11 -2.86718e-08 0)
(4.72611e-11 -2.86718e-08 0)
(5.75616e-11 -5.70871e-08 0)
(4.93044e-11 -2.1935e-08 0)
(4.68443e-11 -3.02694e-08 0)
(4.75469e-11 -2.82929e-08 0)
(4.70042e-11 -2.87615e-08 0)
(4.72482e-11 -2.86504e-08 0)
(4.72016e-11 -2.86768e-08 0)
(4.72442e-11 -2.86706e-08 0)
(4.72462e-11 -2.86721e-08 0)
(4.72551e-11 -2.86717e-08 0)
(4.72578e-11 -2.86718e-08 0)
(4.72598e-11 -2.86718e-08 0)
(4.72606e-11 -2.86718e-08 0)
(4.72606e-11 -2.86718e-08 0)
(4.72609e-11 -2.86718e-08 0)
(4.72612e-11 -2.86718e-08 0)
(4.72611e-11 -2.86718e-08 0)
(4.72613e-11 -2.86718e-08 0)
(4.72611e-11 -2.86718e-08 0)
(4.72612e-11 -2.86718e-08 0)
(7.51125e-11 -2.97624e-10 0)
(3.65659e-11 -3.53995e-08 0)
(5.0319e-11 -2.70764e-08 0)
(4.59186e-11 -2.90501e-08 0)
(4.75272e-11 -2.85821e-08 0)
(4.70712e-11 -2.8693e-08 0)
(4.72495e-11 -2.86667e-08 0)
(4.72169e-11 -2.8673e-08 0)
(4.72429e-11 -2.86715e-08 0)
(4.72462e-11 -2.86719e-08 0)
(4.72522e-11 -2.86718e-08 0)
(4.72551e-11 -2.86718e-08 0)
(4.72575e-11 -2.86718e-08 0)
(4.72591e-11 -2.86718e-08 0)
(4.72595e-11 -2.86718e-08 0)
(4.72602e-11 -2.86718e-08 0)
(4.72606e-11 -2.86718e-08 0)
(4.72611e-11 -2.86718e-08 0)
(4.72609e-11 -2.86718e-08 0)
(4.72611e-11 -2.86718e-08 0)
(-1.99767e-11 -5.70168e-08 0)
(6.63944e-11 -2.19513e-08 0)
(4.06823e-11 -3.02656e-08 0)
(4.91973e-11 -2.82939e-08 0)
(4.65654e-11 -2.87614e-08 0)
(4.73853e-11 -2.86506e-08 0)
(4.71509e-11 -2.86768e-08 0)
(4.72407e-11 -2.86706e-08 0)
(4.72282e-11 -2.86721e-08 0)
(4.72431e-11 -2.86717e-08 0)
(4.72475e-11 -2.86718e-08 0)
(4.72522e-11 -2.86718e-08 0)
(4.72546e-11 -2.86718e-08 0)
(4.72569e-11 -2.86718e-08 0)
(4.72589e-11 -2.86718e-08 0)
(4.72595e-11 -2.86718e-08 0)
(4.72598e-11 -2.86718e-08 0)
(4.72604e-11 -2.86718e-08 0)
(4.72606e-11 -2.86718e-08 0)
(4.72612e-11 -2.86718e-08 0)
(1.45286e-10 -3.55257e-10 0)
(2.11415e-11 -3.53859e-08 0)
(5.63181e-11 -2.70795e-08 0)
(4.44693e-11 -2.90494e-08 0)
(4.79842e-11 -2.85823e-08 0)
(4.69413e-11 -2.8693e-08 0)
(4.72827e-11 -2.86668e-08 0)
(4.71985e-11 -2.8673e-08 0)
(4.72378e-11 -2.86715e-08 0)
(4.72371e-11 -2.86719e-08 0)
(4.72458e-11 -2.86718e-08 0)
(4.72493e-11 -2.86718e-08 0)
(4.72533e-11 -2.86718e-08 0)
(4.72562e-11 -2.86718e-08 0)
(4.7258e-11 -2.86718e-08 0)
(4.72595e-11 -2.86718e-08 0)
(4.72602e-11 -2.86718e-08 0)
(4.72609e-11 -2.86718e-08 0)
(4.72609e-11 -2.86718e-08 0)
(4.72612e-11 -2.86718e-08 0)
(-7.90867e-11 -5.69626e-08 0)
(7.93011e-11 -2.19636e-08 0)
(3.55582e-11 -3.02628e-08 0)
(5.04495e-11 -2.82946e-08 0)
(4.6205e-11 -2.87613e-08 0)
(4.75033e-11 -2.86506e-08 0)
(4.71212e-11 -2.86769e-08 0)
(4.72469e-11 -2.86706e-08 0)
(4.72216e-11 -2.86721e-08 0)
(4.72398e-11 -2.86718e-08 0)
(4.72429e-11 -2.86718e-08 0)
(4.72489e-11 -2.86718e-08 0)
(4.72524e-11 -2.86718e-08 0)
(4.72553e-11 -2.86718e-08 0)
(4.72571e-11 -2.86718e-08 0)
(4.72586e-11 -2.86718e-08 0)
(4.72595e-11 -2.86718e-08 0)
(4.72606e-11 -2.86718e-08 0)
(4.72606e-11 -2.86718e-08 0)
(4.72611e-11 -2.86718e-08 0)
(1.93442e-10 -4.05982e-10 0)
(1.0808e-11 -3.53747e-08 0)
(6.05455e-11 -2.70821e-08 0)
(4.3491e-11 -2.90488e-08 0)
(4.82947e-11 -2.85824e-08 0)
(4.68559e-11 -2.8693e-08 0)
(4.73098e-11 -2.86668e-08 0)
(4.7192e-11 -2.8673e-08 0)
(4.724e-11 -2.86716e-08 0)
(4.72358e-11 -2.86719e-08 0)
(4.72447e-11 -2.86718e-08 0)
(4.72482e-11 -2.86718e-08 0)
(4.72522e-11 -2.86718e-08 0)
(4.72549e-11 -2.86718e-08 0)
(4.72569e-11 -2.86718e-08 0)
(4.72586e-11 -2.86718e-08 0)
(4.72598e-11 -2.86718e-08 0)
(4.72602e-11 -2.86718e-08 0)
(4.72611e-11 -2.86718e-08 0)
(4.72612e-11 -2.86718e-08 0)
(-1.13712e-10 -5.69144e-08 0)
(8.65216e-11 -2.1974e-08 0)
(3.25469e-11 -3.02604e-08 0)
(5.11403e-11 -2.82951e-08 0)
(4.60023e-11 -2.87612e-08 0)
(4.75716e-11 -2.86507e-08 0)
(4.71096e-11 -2.86769e-08 0)
(4.72555e-11 -2.86707e-08 0)
(4.72229e-11 -2.86721e-08 0)
(4.72418e-11 -2.86718e-08 0)
(4.72438e-11 -2.86719e-08 0)
(4.72495e-11 -2.86718e-08 0)
(4.72524e-11 -2.86718e-08 0)
(4.72551e-11 -2.86718e-08 0)
(4.72571e-11 -2.86718e-08 0)
(4.72584e-11 -2.86718e-08 0)
(4.72602e-11 -2.86718e-08 0)
(4.72604e-11 -2.86718e-08 0)
(4.72609e-11 -2.86718e-08 0)
(4.72611e-11 -2.86718e-08 0)
(2.14348e-10 -4.51285e-10 0)
(6.72817e-12 -3.53651e-08 0)
(6.23387e-11 -2.70844e-08 0)
(4.31142e-11 -2.90484e-08 0)
(4.84166e-11 -2.85826e-08 0)
(4.6827e-11 -2.8693e-08 0)
(4.73246e-11 -2.86668e-08 0)
(4.71949e-11 -2.8673e-08 0)
(4.72449e-11 -2.86716e-08 0)
(4.72387e-11 -2.86719e-08 0)
(4.72475e-11 -2.86718e-08 0)
(4.72498e-11 -2.86718e-08 0)
(4.72535e-11 -2.86718e-08 0)
(4.72553e-11 -2.86718e-08 0)
(4.72573e-11 -2.86718e-08 0)
(4.72586e-11 -2.86718e-08 0)
(4.72598e-11 -2.86718e-08 0)
(4.72606e-11 -2.86718e-08 0)
(4.72606e-11 -2.86718e-08 0)
(4.72609e-11 -2.86718e-08 0)
(-1.20889e-10 -5.68714e-08 0)
(8.74464e-11 -2.19831e-08 0)
(3.1984e-11 -3.02584e-08 0)
(5.12113e-11 -2.82956e-08 0)
(4.59843e-11 -2.87611e-08 0)
(4.75857e-11 -2.86507e-08 0)
(4.71172e-11 -2.86769e-08 0)
(4.72642e-11 -2.86707e-08 0)
(4.72298e-11 -2.86721e-08 0)
(4.72475e-11 -2.86718e-08 0)
(4.72486e-11 -2.86719e-08 0)
(4.72529e-11 -2.86718e-08 0)
(4.72549e-11 -2.86718e-08 0)
(4.72569e-11 -2.86718e-08 0)
(4.72586e-11 -2.86718e-08 0)
(4.72595e-11 -2.86718e-08 0)
(4.72602e-11 -2.86718e-08 0)
(4.72609e-11 -2.86718e-08 0)
(4.72609e-11 -2.86718e-08 0)
(4.72613e-11 -2.86718e-08 0)
(2.07466e-10 -4.91315e-10 0)
(8.98082e-12 -3.53566e-08 0)
(6.16107e-11 -2.70863e-08 0)
(4.33533e-11 -2.9048e-08 0)
(4.8347e-11 -2.85827e-08 0)
(4.68605e-11 -2.8693e-08 0)
(4.73291e-11 -2.86669e-08 0)
(4.72087e-11 -2.86731e-08 0)
(4.7254e-11 -2.86716e-08 0)
(4.72471e-11 -2.86719e-08 0)
(4.72538e-11 -2.86718e-08 0)
(4.72551e-11 -2.86719e-08 0)
(4.72569e-11 -2.86718e-08 0)
(4.7258e-11 -2.86718e-08 0)
(4.72593e-11 -2.86718e-08 0)
(4.72598e-11 -2.86718e-08 0)
(4.72604e-11 -2.86718e-08 0)
(4.72604e-11 -2.86718e-08 0)
(4.72609e-11 -2.86718e-08 0)
(4.72609e-11 -2.86718e-08 0)
(-1.02976e-10 -5.68337e-08 0)
(8.25853e-11 -2.19911e-08 0)
(3.36764e-11 -3.02566e-08 0)
(5.07162e-11 -2.8296e-08 0)
(4.61453e-11 -2.87611e-08 0)
(4.75551e-11 -2.86507e-08 0)
(4.71485e-11 -2.86769e-08 0)
(4.72756e-11 -2.86707e-08 0)
(4.72442e-11 -2.86721e-08 0)
(4.72573e-11 -2.86718e-08 0)
(4.72562e-11 -2.86719e-08 0)
(4.7258e-11 -2.86718e-08 0)
(4.72586e-11 -2.86718e-08 0)
(4.72593e-11 -2.86718e-08 0)
(4.726e-11 -2.86718e-08 0)
(4.72604e-11 -2.86718e-08 0)
(4.72609e-11 -2.86718e-08 0)
(4.72611e-11 -2.86718e-08 0)
(4.72611e-11 -2.86718e-08 0)
(4.72612e-11 -2.86718e-08 0)
(1.76675e-10 -5.25409e-10 0)
(1.66953e-11 -3.53492e-08 0)
(5.87163e-11 -2.70882e-08 0)
(4.41458e-11 -2.90477e-08 0)
(4.81303e-11 -2.85828e-08 0)
(4.69662e-11 -2.86931e-08 0)
(4.73346e-11 -2.86669e-08 0)
(4.72373e-11 -2.86731e-08 0)
(4.72684e-11 -2.86716e-08 0)
(4.72598e-11 -2.86719e-08 0)
(4.72622e-11 -2.86718e-08 0)
(4.72613e-11 -2.86719e-08 0)
(4.72615e-11 -2.86718e-08 0)
(4.72609e-11 -2.86718e-08 0)
(4.72611e-11 -2.86718e-08 0)
(4.72609e-11 -2.86718e-08 0)
(4.72609e-11 -2.86718e-08 0)
(4.72609e-11 -2.86718e-08 0)
(4.72614e-11 -2.86718e-08 0)
(4.72611e-11 -2.86718e-08 0)
(-6.84868e-11 -5.68023e-08 0)
(7.37391e-11 -2.19982e-08 0)
(3.69156e-11 -3.02553e-08 0)
(4.98813e-11 -2.82965e-08 0)
(4.64702e-11 -2.87611e-08 0)
(4.753e-11 -2.86508e-08 0)
(4.72116e-11 -2.86769e-08 0)
(4.72985e-11 -2.86707e-08 0)
(4.72666e-11 -2.86721e-08 0)
(4.72713e-11 -2.86718e-08 0)
(4.72661e-11 -2.86719e-08 0)
(4.7265e-11 -2.86718e-08 0)
(4.72636e-11 -2.86718e-08 0)
(4.72631e-11 -2.86718e-08 0)
(4.72624e-11 -2.86718e-08 0)
(4.72615e-11 -2.86718e-08 0)
(4.72613e-11 -2.86718e-08 0)
(4.72611e-11 -2.86718e-08 0)
(4.72609e-11 -2.86718e-08 0)
(4.72611e-11 -2.86718e-08 0)
(1.29923e-10 -5.50253e-10 0)
(2.75941e-11 -3.53442e-08 0)
(5.4508e-11 -2.70905e-08 0)
(4.55846e-11 -2.90472e-08 0)
(4.78604e-11 -2.85831e-08 0)
(4.71865e-11 -2.8693e-08 0)
(4.73459e-11 -2.86669e-08 0)
(4.72836e-11 -2.86731e-08 0)
(4.72854e-11 -2.86716e-08 0)
(4.72747e-11 -2.86719e-08 0)
(4.72704e-11 -2.86718e-08 0)
(4.72672e-11 -2.86719e-08 0)
(4.7265e-11 -2.86718e-08 0)
(4.72634e-11 -2.86718e-08 0)
(4.72626e-11 -2.86718e-08 0)
(4.7262e-11 -2.86718e-08 0)
(4.72616e-11 -2.86718e-08 0)
(4.72614e-11 -2.86718e-08 0)
(4.72612e-11 -2.86718e-08 0)
(4.72611e-11 -2.86718e-08 0)
(-3.90923e-11 -5.67848e-08 0)
(8.4489e-11 -2.19975e-08 0)
(3.15989e-11 -3.02565e-08 0)
(5.31425e-11 -2.82957e-08 0)
(4.55898e-11 -2.87613e-08 0)
(4.79743e-11 -2.86506e-08 0)
(4.71432e-11 -2.86769e-08 0)
(4.73613e-11 -2.86707e-08 0)
(4.72713e-11 -2.86721e-08 0)
(4.72838e-11 -2.86718e-08 0)
(4.72711e-11 -2.86719e-08 0)
(4.72691e-11 -2.86718e-08 0)
(4.72656e-11 -2.86718e-08 0)
(4.72643e-11 -2.86718e-08 0)
(4.72629e-11 -2.86718e-08 0)
(4.72623e-11 -2.86718e-08 0)
(4.72619e-11 -2.86718e-08 0)
(4.72613e-11 -2.86718e-08 0)
(4.72613e-11 -2.86718e-08 0)
(4.72612e-11 -2.86718e-08 0)
)
;

boundaryField
{
    movingWall
    {
        type            calculated;
        value           uniform (4.72611e-11 -2.86718e-08 0);
    }
    fixedWalls
    {
        type            calculated;
        value           uniform (4.72611e-11 -2.86718e-08 0);
    }
    frontAndBack
    {
        type            empty;
    }
}


// ************************************************************************* //
