/*--------------------------------*- C++ -*----------------------------------*\
| =========                 |                                                 |
| \\      /  F ield         | OpenFOAM: The Open Source CFD Toolbox           |
|  \\    /   O peration     | Version:  2312                                  |
|   \\  /    A nd           | Website:  www.openfoam.com                      |
|    \\/     M anipulation  |                                                 |
\*---------------------------------------------------------------------------*/
FoamFile
{
    version     2.0;
    format      ascii;
    arch        "LSB;label=32;scalar=64";
    class       volScalarField;
    location    "4.25";
    object      divPhi;
}
// * * * * * * * * * * * * * * * * * * * * * * * * * * * * * * * * * * * * * //

dimensions      [0 0 -1 0 0 0 0];

internalField   nonuniform List<scalar> 
400
(
2.71051e-14
-9.01321e-15
1.66518e-14
-7.96597e-15
1.78796e-15
6.47123e-15
-1.56654e-16
1.65808e-14
-2.6234e-15
-6.67945e-15
4.5214e-15
1.28467e-14
-5.32994e-15
2.0409e-15
-1.21289e-14
4.18489e-15
1.2309e-14
-1.0311e-14
5.58448e-16
2.71051e-14
0
1.34018e-14
-1.1997e-14
-1.38402e-14
2.16343e-14
2.76064e-14
3.81159e-16
-9.76115e-15
-2.19425e-14
-1.90947e-15
-1.8062e-14
3.20473e-14
-1.9578e-14
9.46296e-15
8.93703e-15
7.39775e-15
1.0952e-14
9.86462e-15
-4.09882e-15
0
2.71051e-14
1.36112e-14
-1.18594e-14
2.32672e-14
-6.41841e-16
2.89794e-14
4.43135e-15
-1.92441e-14
5.50273e-15
-1.84411e-14
4.83271e-15
-1.51971e-14
2.8115e-14
-8.05805e-15
5.67484e-15
-1.89171e-15
1.89971e-14
5.18534e-15
7.33351e-15
-2.71051e-14
0
-1.75471e-14
-9.88153e-15
1.01254e-14
3.36321e-15
7.92217e-15
-8.15904e-15
1.42925e-14
1.91399e-14
9.66517e-15
7.03127e-15
1.82432e-14
-1.11546e-15
-1.34683e-14
-1.28313e-14
2.38762e-14
-2.97698e-14
2.01247e-14
6.98767e-15
0
0
9.43272e-15
-2.31778e-14
7.7366e-15
1.11382e-14
-4.4574e-15
2.30478e-15
-1.4586e-14
-1.44578e-14
5.41901e-15
1.37162e-14
-1.18749e-15
1.13074e-14
-1.90165e-14
-9.68684e-16
-1.2835e-14
-4.31272e-15
1.51578e-14
7.25096e-15
2.71051e-14
0
9.3577e-15
1.33122e-14
8.78128e-15
5.74329e-16
-9.05251e-15
-1.74883e-15
1.86263e-14
2.04255e-14
2.25157e-14
-1.66533e-14
-1.1751e-14
2.6403e-14
-1.00265e-14
1.56649e-14
-1.05462e-14
9.99421e-15
-2.70603e-14
1.34138e-14
-2.71051e-14
0
7.55964e-15
2.36798e-14
6.98872e-15
-6.049e-16
-3.71978e-14
2.3149e-14
3.00756e-16
-1.45995e-14
-1.30803e-14
2.54978e-14
-1.49002e-14
-8.88683e-15
1.58353e-14
-3.34724e-14
2.46318e-15
1.48306e-14
-1.49826e-14
1.45658e-14
2.71051e-14
0
4.93925e-15
4.27085e-15
-1.63653e-14
2.11315e-14
-1.71795e-14
2.28429e-14
-5.65618e-15
9.4264e-15
4.1385e-15
-1.54264e-14
-3.89876e-15
-1.77036e-14
-2.2404e-14
-5.89396e-15
8.37287e-15
-1.48307e-14
-2.36957e-14
1.68757e-15
0
0
-1.4393e-14
-4.36973e-15
2.03148e-14
-1.13926e-14
2.2199e-14
-6.93306e-15
-5.36131e-15
2.51501e-14
-7.67729e-15
8.40742e-15
-1.73247e-14
2.74043e-14
-7.06002e-15
-1.49223e-14
1.40416e-14
1.06323e-14
2.09863e-14
2.66297e-14
-2.71051e-14
-2.71051e-14
1.30159e-14
-1.92749e-14
1.51897e-14
-1.24797e-14
-9.3325e-15
-1.30701e-14
9.56918e-15
7.63263e-15
3.52148e-15
-1.6263e-14
1.42366e-14
3.04103e-14
-3.38438e-14
2.36998e-14
-3.68555e-14
2.43765e-14
-1.90443e-14
1.70729e-14
0
0
-8.62018e-15
2.31467e-14
4.3423e-15
-2.26912e-14
-8.19806e-15
-5.12253e-15
1.50297e-15
2.82239e-14
-2.15331e-14
1.02234e-14
2.24879e-15
4.26602e-15
1.34823e-14
-1.91583e-14
-7.57902e-15
-1.59818e-14
1.46973e-14
-7.39572e-15
0
2.71051e-14
1.60485e-14
-8.09653e-15
2.05937e-14
1.17981e-14
-1.61489e-14
-1.07885e-14
1.4094e-14
-1.32927e-14
2.73734e-14
4.61554e-15
5.94821e-15
-1.05633e-14
1.51478e-14
1.90027e-14
3.70128e-15
-1.21955e-14
4.56945e-15
2.66206e-15
0
-2.71051e-14
-3.39954e-14
-5.68362e-15
3.70933e-15
7.78962e-15
1.16274e-14
1.00715e-14
-2.87456e-14
-5.26002e-15
-6.44107e-15
5.35702e-15
-1.19286e-14
-1.54486e-14
-2.32785e-14
7.20457e-15
-6.48658e-15
-8.80767e-15
1.75538e-15
-1.08489e-14
-2.71051e-14
2.71051e-14
-3.65462e-14
-5.23986e-15
6.90814e-15
-1.64466e-14
2.40355e-14
8.35466e-15
-8.32639e-15
-5.34171e-17
-7.06509e-15
3.83963e-15
-2.52525e-14
9.5242e-15
1.41296e-15
2.65054e-14
-1.07092e-14
-2.03966e-14
-2.72789e-14
-1.95948e-14
2.71051e-14
0
-1.62881e-14
5.53736e-15
-1.17337e-14
1.89552e-14
-8.16012e-15
1.42843e-14
-2.18129e-14
9.72151e-15
-2.34109e-14
9.1656e-16
4.0273e-15
5.544e-15
8.97614e-15
-1.37938e-14
-1.5995e-15
1.11076e-14
-6.47474e-15
-2.36416e-15
0
-2.71051e-14
6.76188e-16
3.88651e-15
-1.81896e-14
1.86868e-14
-1.72813e-14
-4.04081e-14
1.37151e-14
-8.26272e-15
2.309e-14
2.90155e-16
1.09329e-14
1.00749e-14
1.63999e-14
-3.30946e-15
1.41749e-14
3.04231e-15
-2.5233e-15
-1.5738e-14
2.71051e-14
0
4.15831e-15
-6.91081e-15
2.50975e-14
-3.20583e-14
1.20428e-14
-8.91314e-15
-3.28088e-14
-9.15481e-15
1.49473e-15
-8.98768e-15
-1.59808e-14
1.3255e-14
-1.22448e-14
-1.52815e-14
-1.80841e-14
2.06903e-15
-8.02237e-15
1.45383e-14
2.71051e-14
0
1.61313e-14
-1.89867e-14
1.25336e-14
-2.28109e-14
2.03121e-14
1.70792e-14
-2.24869e-14
-2.43252e-14
1.10837e-14
-7.73781e-15
3.04051e-14
9.22135e-15
-2.19338e-15
-9.70722e-16
-8.46592e-15
1.10151e-14
4.51236e-15
-3.32182e-15
-2.71051e-14
0
-4.25749e-15
6.08567e-15
2.29296e-14
4.25594e-15
-7.37485e-16
-1.71563e-14
-1.23661e-14
4.58891e-15
-2.7892e-15
-2.44505e-14
2.75259e-14
3.54387e-15
1.83204e-15
-1.83289e-14
-5.82922e-15
-3.40855e-15
-1.74437e-14
-8.95544e-15
0
0
-2.71051e-14
2.71051e-14
-2.71051e-14
0
0
2.71051e-14
-2.71051e-14
0
0
0
0
0
0
0
0
0
0
0
0
)
;

boundaryField
{
    movingWall
    {
        type            extrapolatedCalculated;
        value           nonuniform List<scalar> 
20
(
0
-2.71051e-14
2.71051e-14
-2.71051e-14
0
0
2.71051e-14
-2.71051e-14
0
0
0
0
0
0
0
0
0
0
0
0
)
;
    }
    fixedWalls
    {
        type            extrapolatedCalculated;
        value           nonuniform List<scalar> 
60
(
2.71051e-14
0
2.71051e-14
0
0
0
0
0
0
-2.71051e-14
0
2.71051e-14
-2.71051e-14
2.71051e-14
0
-2.71051e-14
0
0
0
0
2.71051e-14
0
-2.71051e-14
0
2.71051e-14
-2.71051e-14
2.71051e-14
0
-2.71051e-14
0
0
0
-2.71051e-14
2.71051e-14
0
2.71051e-14
2.71051e-14
-2.71051e-14
0
0
2.71051e-14
-9.01321e-15
1.66518e-14
-7.96597e-15
1.78796e-15
6.47123e-15
-1.56654e-16
1.65808e-14
-2.6234e-15
-6.67945e-15
4.5214e-15
1.28467e-14
-5.32994e-15
2.0409e-15
-1.21289e-14
4.18489e-15
1.2309e-14
-1.0311e-14
5.58448e-16
2.71051e-14
)
;
    }
    frontAndBack
    {
        type            empty;
    }
}


// ************************************************************************* //
