/*--------------------------------*- C++ -*----------------------------------*\
| =========                 |                                                 |
| \\      /  F ield         | OpenFOAM: The Open Source CFD Toolbox           |
|  \\    /   O peration     | Version:  2312                                  |
|   \\  /    A nd           | Website:  www.openfoam.com                      |
|    \\/     M anipulation  |                                                 |
\*---------------------------------------------------------------------------*/
FoamFile
{
    version     2.0;
    format      ascii;
    arch        "LSB;label=32;scalar=64";
    class       volScalarField;
    location    "4.25";
    object      enstrophyField;
}
// * * * * * * * * * * * * * * * * * * * * * * * * * * * * * * * * * * * * * //

dimensions      [0 0 -2 0 0 0 0];

internalField   nonuniform List<scalar> 
400
(
2.38776e-12
3.66443e-12
2.0678e-13
1.17228e-14
6.58282e-16
3.79665e-17
2.05622e-18
1.31914e-19
5.24535e-21
7.28682e-22
3.76453e-26
2.06511e-23
4.29577e-24
2.61032e-24
9.95373e-25
3.82451e-25
1.28139e-25
3.56837e-26
3.81853e-27
1.26682e-28
2.37148e-12
3.65942e-12
2.06483e-13
1.16495e-14
6.57285e-16
3.70801e-17
2.09287e-18
1.17893e-19
6.68523e-21
3.70507e-22
2.28755e-23
8.24263e-25
1.74731e-25
8.9445e-27
1.62883e-26
1.22597e-26
1.44196e-26
7.25093e-27
3.68275e-27
1.42602e-26
2.37049e-12
3.63925e-12
2.04892e-13
1.15343e-14
6.49303e-16
3.65533e-17
2.05721e-18
1.1593e-19
6.49792e-21
3.7391e-22
1.9111e-23
1.70736e-24
2.40043e-27
6.71226e-26
2.72467e-26
2.40549e-26
3.04864e-26
2.9273e-26
1.96061e-26
1.35575e-26
2.38137e-12
3.62915e-12
2.04219e-13
1.14903e-14
6.46513e-16
3.63738e-17
2.04711e-18
1.15027e-19
6.50419e-21
3.57973e-22
2.21675e-23
8.43561e-25
1.93033e-25
1.14432e-26
3.87883e-26
3.7529e-26
2.86029e-26
2.02256e-26
4.50968e-26
2.18271e-26
2.37596e-12
3.61315e-12
2.0326e-13
1.14331e-14
6.43087e-16
3.61785e-17
2.03416e-18
1.14631e-19
6.39094e-21
3.73287e-22
1.79053e-23
1.73153e-24
1.46534e-28
6.26794e-26
3.2211e-26
4.38317e-26
3.03172e-26
5.16086e-26
4.05009e-26
3.26216e-26
2.36935e-12
3.60115e-12
2.02576e-13
1.13941e-14
6.40901e-16
3.60459e-17
2.02845e-18
1.13853e-19
6.46465e-21
3.48075e-22
2.28907e-23
6.47376e-25
2.91265e-25
4.17063e-26
4.20583e-26
4.91519e-26
5.64753e-26
5.13015e-26
3.59072e-26
4.57339e-26
2.35968e-12
3.59009e-12
2.01966e-13
1.13606e-14
6.39015e-16
3.59477e-17
2.02117e-18
1.13877e-19
6.35639e-21
3.68663e-22
1.78449e-23
1.87677e-24
1.67015e-27
1.23914e-25
7.78173e-26
5.38849e-26
4.04765e-26
2.38918e-26
2.02966e-26
3.14986e-26
2.35327e-12
3.58224e-12
2.01524e-13
1.13354e-14
6.37609e-16
3.58607e-17
2.01799e-18
1.13302e-19
6.41579e-21
3.5184e-22
2.28846e-23
6.87403e-25
2.61201e-25
3.18217e-26
9.07114e-26
8.82313e-26
6.38874e-26
4.68519e-26
3.47661e-26
3.94559e-26
2.34614e-12
3.57438e-12
2.0108e-13
1.13104e-14
6.36166e-16
3.57854e-17
2.0122e-18
1.1332e-19
6.33871e-21
3.67486e-22
1.85067e-23
1.64759e-24
1.27374e-28
9.02523e-26
2.64978e-26
3.80719e-26
5.4737e-26
4.24482e-26
3.55724e-26
2.36807e-26
2.33943e-12
3.56716e-12
2.00675e-13
1.12875e-14
6.3491e-16
3.57094e-17
2.00923e-18
1.12877e-19
6.39908e-21
3.48732e-22
2.18846e-23
7.37459e-25
1.79132e-25
4.91827e-27
1.57141e-26
1.93337e-26
2.12481e-26
9.13014e-27
2.1459e-26
1.16946e-26
2.33229e-12
3.56001e-12
2.00274e-13
1.12651e-14
6.33642e-16
3.56438e-17
2.00429e-18
1.12925e-19
6.3082e-21
3.64768e-22
1.8525e-23
1.55639e-24
5.67764e-27
3.82136e-26
2.45359e-26
7.81607e-27
2.80703e-26
6.78103e-27
1.12496e-26
9.45968e-27
2.32537e-12
3.55326e-12
1.99896e-13
1.12441e-14
6.32485e-16
3.5576e-17
2.0016e-18
1.12499e-19
6.34875e-21
3.53101e-22
2.12112e-23
9.4111e-25
1.41595e-25
1.01544e-28
8.10311e-27
3.16157e-27
5.18621e-27
1.19782e-26
5.21994e-27
5.95939e-27
2.31868e-12
3.54685e-12
1.99538e-13
1.12242e-14
6.31362e-16
3.55177e-17
1.99763e-18
1.12459e-19
6.31297e-21
3.58827e-22
1.88702e-23
1.37643e-24
3.32256e-26
3.29997e-26
6.91979e-27
1.1733e-26
2.52621e-28
6.87094e-27
1.74002e-27
1.95916e-27
2.31209e-12
3.54067e-12
1.99193e-13
1.12049e-14
6.30298e-16
3.54561e-17
1.99475e-18
1.12172e-19
6.3203e-21
3.51989e-22
2.10743e-23
8.75711e-25
9.38373e-26
1.60637e-28
6.5161e-27
8.48948e-28
1.00982e-28
4.59927e-28
8.6284e-29
1.59641e-28
2.30649e-12
3.53519e-12
1.98886e-13
1.11877e-14
6.29341e-16
3.54024e-17
1.99161e-18
1.12046e-19
6.29996e-21
3.55138e-22
2.01878e-23
1.13769e-24
5.03316e-26
6.0642e-27
7.509e-28
1.08609e-28
2.3944e-27
5.40644e-28
7.4204e-28
1.20342e-28
2.30059e-12
3.52967e-12
1.98576e-13
1.11703e-14
6.28365e-16
3.53484e-17
1.98851e-18
1.11901e-19
6.28929e-21
3.54953e-22
2.01112e-23
1.08532e-24
9.54887e-26
2.79944e-27
1.19342e-28
1.68318e-28
2.04363e-27
2.52456e-28
5.38648e-28
7.54189e-28
2.2972e-12
3.52556e-12
1.98343e-13
1.11571e-14
6.27622e-16
3.53068e-17
1.98625e-18
1.11742e-19
6.28511e-21
3.54552e-22
2.00199e-23
1.18185e-24
4.27197e-26
1.63835e-26
1.05256e-29
4.09115e-28
1.16885e-27
8.52136e-27
5.06261e-27
4.1828e-28
2.29195e-12
3.52081e-12
1.98076e-13
1.1142e-14
6.26772e-16
3.52583e-17
1.98359e-18
1.11578e-19
6.28301e-21
3.52337e-22
1.97324e-23
1.12679e-24
5.02494e-26
5.18926e-27
1.31118e-28
4.89419e-29
6.68813e-29
1.16983e-27
1.17346e-27
4.78097e-28
2.29405e-12
3.52476e-12
1.98598e-13
1.11882e-14
6.30329e-16
3.55106e-17
2.00104e-18
1.12707e-19
6.35651e-21
3.56288e-22
2.01001e-23
1.10097e-24
9.83577e-26
5.76201e-30
6.22166e-27
9.21456e-29
2.20191e-29
4.30626e-28
5.33597e-28
4.40544e-29
2.29886e-12
3.52341e-12
1.98866e-13
1.12408e-14
6.33664e-16
3.61488e-17
2.01067e-18
1.2e-19
5.97425e-21
4.79547e-22
9.21936e-24
4.75504e-24
1.65212e-25
2.38486e-25
6.07663e-26
3.16664e-26
1.15621e-26
2.08654e-27
1.77845e-27
9.72335e-28
)
;

boundaryField
{
    movingWall
    {
        type            calculated;
        value           nonuniform List<scalar> 
20
(
2.37272e-12
3.55836e-12
2.02301e-13
1.15324e-14
6.53805e-16
3.8056e-17
2.09952e-18
1.34017e-19
5.90414e-21
6.63973e-22
2.46795e-24
1.18673e-23
1.20953e-24
1.03161e-24
2.69303e-25
1.36931e-25
5.35965e-26
4.92103e-27
4.4413e-27
1.88512e-27
)
;
    }
    fixedWalls
    {
        type            calculated;
        value           nonuniform List<scalar> 
60
(
6.57529e-11
6.56237e-11
6.5367e-11
6.51937e-11
6.4912e-11
6.46968e-11
6.44957e-11
6.43543e-11
6.42133e-11
6.40839e-11
6.39559e-11
6.38349e-11
6.37201e-11
6.36094e-11
6.35112e-11
6.34126e-11
6.33389e-11
6.32532e-11
6.32328e-11
6.32311e-11
4.13012e-29
1.60109e-26
1.06635e-26
1.23737e-26
2.12661e-26
3.99432e-26
2.90225e-26
3.57113e-26
1.71524e-26
5.83751e-27
6.63066e-27
5.34215e-27
8.71263e-28
3.87953e-30
6.41467e-28
2.61261e-27
8.03845e-28
4.30752e-28
1.89073e-28
1.43593e-27
2.43177e-12
3.69172e-12
2.09286e-13
1.19889e-14
6.72226e-16
3.9979e-17
2.08001e-18
1.53077e-19
4.14532e-21
1.26686e-21
2.55495e-23
6.70631e-23
1.96135e-23
9.9942e-24
4.02185e-24
1.49934e-24
3.80122e-25
1.22213e-25
1.38456e-26
1.27639e-27
)
;
    }
    frontAndBack
    {
        type            empty;
    }
}


// ************************************************************************* //
