/*--------------------------------*- C++ -*----------------------------------*\
| =========                 |                                                 |
| \\      /  F ield         | OpenFOAM: The Open Source CFD Toolbox           |
|  \\    /   O peration     | Version:  2312                                  |
|   \\  /    A nd           | Website:  www.openfoam.com                      |
|    \\/     M anipulation  |                                                 |
\*---------------------------------------------------------------------------*/
FoamFile
{
    version     2.0;
    format      ascii;
    arch        "LSB;label=32;scalar=64";
    class       volScalarField;
    location    "4.25";
    object      epsilonzeroGrad;
}
// * * * * * * * * * * * * * * * * * * * * * * * * * * * * * * * * * * * * * //

dimensions      [0 2 -3 0 0 0 0];

internalField   nonuniform List<scalar> 
400
(
1.76267e-05
1.76265e-05
1.76264e-05
1.76263e-05
1.76262e-05
1.76261e-05
1.7626e-05
1.76259e-05
1.76259e-05
1.76258e-05
1.76258e-05
1.76257e-05
1.76257e-05
1.76257e-05
1.76257e-05
1.76256e-05
1.76256e-05
1.76256e-05
1.76256e-05
1.76256e-05
2.21992e-05
2.15275e-05
2.15802e-05
2.16019e-05
2.16458e-05
2.16689e-05
2.17129e-05
2.17371e-05
2.17815e-05
2.18066e-05
2.18515e-05
2.18774e-05
2.19229e-05
2.19496e-05
2.19957e-05
2.20232e-05
2.20699e-05
2.20983e-05
2.21219e-05
2.21599e-05
2.84623e-05
2.75107e-05
2.75857e-05
2.76165e-05
2.76788e-05
2.77117e-05
2.77741e-05
2.78083e-05
2.78712e-05
2.79065e-05
2.797e-05
2.80063e-05
2.80706e-05
2.81078e-05
2.8173e-05
2.8211e-05
2.8277e-05
2.83161e-05
2.83494e-05
2.84025e-05
3.37973e-05
3.25892e-05
3.26836e-05
3.27225e-05
3.2801e-05
3.28425e-05
3.29212e-05
3.29645e-05
3.30438e-05
3.30886e-05
3.31688e-05
3.32148e-05
3.32962e-05
3.33434e-05
3.34258e-05
3.34743e-05
3.35577e-05
3.36076e-05
3.36498e-05
3.37172e-05
3.73958e-05
3.60047e-05
3.61128e-05
3.61573e-05
3.62473e-05
3.62949e-05
3.63851e-05
3.64348e-05
3.65258e-05
3.65773e-05
3.66694e-05
3.67223e-05
3.68157e-05
3.68701e-05
3.69647e-05
3.70206e-05
3.71164e-05
3.71741e-05
3.72226e-05
3.73002e-05
3.95508e-05
3.80474e-05
3.81638e-05
3.82117e-05
3.83088e-05
3.83601e-05
3.84573e-05
3.8511e-05
3.86091e-05
3.86646e-05
3.87639e-05
3.88212e-05
3.89218e-05
3.89807e-05
3.90828e-05
3.91433e-05
3.92467e-05
3.93091e-05
3.93614e-05
3.94453e-05
4.07949e-05
3.9226e-05
3.93473e-05
3.93972e-05
3.94983e-05
3.95518e-05
3.96531e-05
3.97091e-05
3.98113e-05
3.98693e-05
3.99727e-05
4.00325e-05
4.01374e-05
4.01989e-05
4.03053e-05
4.03685e-05
4.04763e-05
4.05415e-05
4.0596e-05
4.06836e-05
4.15438e-05
3.99353e-05
4.00594e-05
4.01106e-05
4.02141e-05
4.02689e-05
4.03727e-05
4.043e-05
4.05347e-05
4.05941e-05
4.07001e-05
4.07614e-05
4.08689e-05
4.09319e-05
4.10409e-05
4.11058e-05
4.12162e-05
4.12831e-05
4.1339e-05
4.14288e-05
4.20496e-05
4.04144e-05
4.05406e-05
4.05925e-05
4.06977e-05
4.07534e-05
4.08588e-05
4.09171e-05
4.10235e-05
4.10839e-05
4.11916e-05
4.12538e-05
4.1363e-05
4.14271e-05
4.15379e-05
4.16038e-05
4.1716e-05
4.17841e-05
4.18409e-05
4.19322e-05
4.24495e-05
4.07933e-05
4.0921e-05
4.09736e-05
4.10801e-05
4.11364e-05
4.12432e-05
4.13022e-05
4.14099e-05
4.14711e-05
4.15801e-05
4.16432e-05
4.17538e-05
4.18187e-05
4.19308e-05
4.19976e-05
4.21113e-05
4.21802e-05
4.22377e-05
4.23302e-05
4.28155e-05
4.11401e-05
4.12692e-05
4.13224e-05
4.143e-05
4.1487e-05
4.1595e-05
4.16546e-05
4.17636e-05
4.18254e-05
4.19357e-05
4.19995e-05
4.21113e-05
4.2177e-05
4.22904e-05
4.2358e-05
4.24729e-05
4.25427e-05
4.26009e-05
4.26944e-05
4.31868e-05
4.14919e-05
4.16224e-05
4.16762e-05
4.17851e-05
4.18427e-05
4.19519e-05
4.20122e-05
4.21224e-05
4.21849e-05
4.22964e-05
4.2361e-05
4.24741e-05
4.25405e-05
4.26552e-05
4.27236e-05
4.28398e-05
4.29104e-05
4.29693e-05
4.30639e-05
4.35875e-05
4.18715e-05
4.20036e-05
4.2058e-05
4.21682e-05
4.22265e-05
4.2337e-05
4.23981e-05
4.25096e-05
4.25729e-05
4.26858e-05
4.27511e-05
4.28656e-05
4.29328e-05
4.30489e-05
4.31182e-05
4.32358e-05
4.33073e-05
4.33669e-05
4.34626e-05
4.40354e-05
4.2296e-05
4.24298e-05
4.2485e-05
4.25966e-05
4.26557e-05
4.27677e-05
4.28296e-05
4.29425e-05
4.30067e-05
4.31211e-05
4.31873e-05
4.33033e-05
4.33715e-05
4.34892e-05
4.35594e-05
4.36786e-05
4.37511e-05
4.38115e-05
4.39086e-05
4.45478e-05
4.27813e-05
4.29171e-05
4.2973e-05
4.30863e-05
4.31463e-05
4.326e-05
4.33228e-05
4.34374e-05
4.35026e-05
4.36187e-05
4.3686e-05
4.38038e-05
4.3873e-05
4.39925e-05
4.40639e-05
4.41849e-05
4.42585e-05
4.43198e-05
4.44184e-05
4.51405e-05
4.33425e-05
4.34805e-05
4.35375e-05
4.36528e-05
4.37138e-05
4.38294e-05
4.38933e-05
4.40099e-05
4.40763e-05
4.41944e-05
4.42629e-05
4.43827e-05
4.44532e-05
4.45747e-05
4.46474e-05
4.47705e-05
4.48455e-05
4.49079e-05
4.50082e-05
4.58188e-05
4.39849e-05
4.41255e-05
4.41836e-05
4.43011e-05
4.43633e-05
4.44811e-05
4.45463e-05
4.46652e-05
4.47329e-05
4.48532e-05
4.49231e-05
4.50452e-05
4.51172e-05
4.5241e-05
4.53152e-05
4.54407e-05
4.55173e-05
4.55809e-05
4.56832e-05
4.65468e-05
4.46749e-05
4.48183e-05
4.48774e-05
4.49972e-05
4.50606e-05
4.51808e-05
4.52473e-05
4.53686e-05
4.54376e-05
4.55604e-05
4.56318e-05
4.57563e-05
4.58299e-05
4.59562e-05
4.60321e-05
4.61601e-05
4.62384e-05
4.63033e-05
4.64078e-05
4.72031e-05
4.53396e-05
4.54794e-05
4.55371e-05
4.56544e-05
4.57171e-05
4.58349e-05
4.59013e-05
4.60206e-05
4.609e-05
4.62114e-05
4.62834e-05
4.64071e-05
4.64818e-05
4.66079e-05
4.66853e-05
4.68138e-05
4.68941e-05
4.69595e-05
4.70657e-05
4.74735e-05
4.74729e-05
4.74726e-05
4.74723e-05
4.74721e-05
4.74719e-05
4.74717e-05
4.74715e-05
4.74713e-05
4.74712e-05
4.74711e-05
4.7471e-05
4.7471e-05
4.74709e-05
4.74709e-05
4.74709e-05
4.74709e-05
4.74709e-05
4.74709e-05
4.74709e-05
)
;

boundaryField
{
    movingWall
    {
        type            zeroGradient;
    }
    fixedWalls
    {
        type            zeroGradient;
    }
    frontAndBack
    {
        type            empty;
    }
}


// ************************************************************************* //
