/*--------------------------------*- C++ -*----------------------------------*\
| =========                 |                                                 |
| \\      /  F ield         | OpenFOAM: The Open Source CFD Toolbox           |
|  \\    /   O peration     | Version:  2312                                  |
|   \\  /    A nd           | Website:  www.openfoam.com                      |
|    \\/     M anipulation  |                                                 |
\*---------------------------------------------------------------------------*/
FoamFile
{
    version     2.0;
    format      ascii;
    arch        "LSB;label=32;scalar=64";
    class       volScalarField;
    location    "4.25";
    object      flowTypeField;
}
// * * * * * * * * * * * * * * * * * * * * * * * * * * * * * * * * * * * * * //

dimensions      [0 0 0 0 0 0 0];

internalField   nonuniform List<scalar> 
400
(
0.00052309
-0.000649133
-0.00110613
-0.00326454
-0.00192042
-0.0107417
0.00695863
-0.0506738
0.108681
-0.325257
0.960398
-0.191112
0.172131
0.0482963
0.112923
0.146754
0.180447
0.158727
0.520764
0.739466
0.00334487
-0.0002701
-0.000326244
-0.00254742
-0.0017161
-0.00700233
-0.00107019
-0.0205612
0.0182329
-0.0766336
0.185445
0.410981
0.638056
0.858605
0.748912
0.698352
0.575407
0.551257
0.525047
-0.410307
0.00161262
0.000164912
0.000325258
0.000493558
-0.000415702
0.00264528
-0.00503499
0.0150374
-0.0373225
0.0928163
-0.214237
0.421016
0.936695
0.649025
0.679164
0.602284
0.406433
0.282192
0.133707
0.0012149
-0.00263603
-0.000497311
-0.000816261
-0.000845586
-0.000812024
-0.00256668
0.00245206
-0.0144439
0.0322024
-0.119275
0.222323
0.151119
0.608021
0.822879
0.611581
0.480242
0.439971
0.433984
-0.0140279
0.0107369
-0.00380296
-0.000674592
-0.00106779
-0.00103111
-0.00143168
-0.000961478
-0.00421007
0.00643849
-0.030833
0.0753562
-0.381003
0.385582
0.978427
0.631427
0.61039
0.440599
0.426297
0.085111
0.0972436
0.0100191
-0.00414805
-0.000720117
-0.00113388
-0.00115129
-0.00136139
-0.00206057
-0.000588063
-0.00790264
0.0163303
-0.0707201
0.163643
-0.0497652
0.472103
0.614256
0.568249
0.40885
0.243834
0.0785001
0.0918831
-0.0905076
-0.00357638
-0.000637567
-0.000969189
-0.00109418
-0.00122295
-0.00161077
-0.00249998
0.000871834
-0.0153806
0.0434162
-0.165035
0.287581
0.921025
0.434913
0.370625
0.388038
0.336202
0.333721
0.297753
0.0972973
-0.00323903
-0.000573875
-0.000942002
-0.000955709
-0.00126824
-0.00151136
-0.00163401
-0.0036839
0.00490922
-0.0324954
0.0950813
0.0934304
0.422509
0.644978
0.338572
0.119115
0.115882
0.072505
0.0160798
-0.0760633
-0.00272752
-0.000477292
-0.000801796
-0.000817614
-0.000988275
-0.00135764
-0.00140544
-0.00125308
-0.0053188
0.0126135
-0.0350538
0.242271
0.975756
0.475281
0.578063
0.381748
0.171451
-0.043092
-0.0615691
0.00714605
-0.0022189
-0.000377703
-0.000657234
-0.000626249
-0.000837315
-0.000949126
-0.00127054
-0.00119454
-0.00226198
-0.000466709
0.042
0.250114
0.45107
0.816437
0.65153
0.502008
0.388287
0.479263
0.0488268
0.184079
-0.00159025
-0.000258171
-0.000462611
-0.000427078
-0.000524294
-0.000741239
-0.000427112
-0.00176777
0.00205904
-0.00667509
0.0451524
0.121171
0.847075
0.560967
0.550167
0.649293
0.244133
0.483576
0.163488
0.00165533
-0.000952158
-0.000137932
-0.000267959
-0.000211146
-0.00029184
-0.000254474
-0.000605996
0.000864219
-0.00418016
0.0140577
-0.02314
0.256837
0.37151
0.966926
0.694409
0.76531
0.56612
0.179178
0.257162
0.0136581
-0.000314111
-1.83678e-05
-7.24354e-05
-4.17512e-06
5.02232e-06
-7.67562e-05
0.000535182
-0.00168178
0.00681654
-0.0206977
0.0927327
-0.00917094
0.664265
0.504096
0.706007
0.541467
0.869711
0.320868
0.321219
0.254642
0.000339369
0.000101202
0.000131896
0.000203406
0.000249068
0.000492541
-0.000100384
0.00319313
-0.00808758
0.0334265
-0.099823
0.339409
0.324329
0.955926
0.66767
0.805819
0.872061
0.703293
0.784253
0.28573
0.000850903
0.000197878
0.000283192
0.000370068
0.000503144
0.000437099
0.00172446
-0.00233561
0.0132475
-0.0375359
0.107387
-0.283955
0.592368
0.697278
0.854501
0.901187
0.535415
0.537993
0.427883
0.672021
0.00144888
0.000303523
0.000471858
0.000564529
0.00065027
0.00132643
-0.00017288
0.00618321
-0.0130644
0.0474803
-0.162395
0.30227
0.159895
0.808808
0.925888
0.884897
0.47898
0.729049
0.444766
0.166086
0.00161811
0.000342911
0.000523507
0.000583652
0.000946486
0.00034791
0.0032366
-0.00473887
0.0196248
-0.0543782
0.130633
-0.743058
0.62511
0.530133
0.976036
0.795917
0.525188
-0.0445149
-0.829183
0.265662
0.00218818
0.000418447
0.000675358
0.00098351
0.000782612
0.00265952
-0.000504134
0.00978886
-0.0148865
0.0534679
-0.135456
0.293406
0.286506
0.726225
0.918222
0.93539
0.863094
0.565042
0.00733568
0.00132774
0.00137505
-0.00040099
-0.000840294
-0.00217486
-0.00247604
-0.00527881
-0.00342767
-0.0133068
0.00418416
-0.0457489
0.0855367
-0.0827273
0.423478
0.983293
0.516126
0.893811
0.910137
0.449653
0.534735
0.728684
-0.000169466
-0.000658408
-0.00132364
-0.00276825
-0.00291191
-0.00739505
-0.00117709
-0.0253219
0.0330556
-0.131439
0.330602
-0.442746
0.428777
0.00155858
0.153781
0.0599021
0.184398
0.143566
0.141699
0.0346161
)
;

boundaryField
{
    movingWall
    {
        type            calculated;
        value           nonuniform List<scalar> 
20
(
0.760888
0.266461
0.263812
0.260228
0.258957
0.248987
0.257597
0.216554
0.30199
0.0551819
0.740272
-0.402377
0.229488
-0.0693923
0.0442527
-0.0173305
0.036177
0.054649
0.0717618
-0.0097859
)
;
    }
    fixedWalls
    {
        type            calculated;
        value           nonuniform List<scalar> 
60
(
0.000100993
0.000638254
0.000311802
-0.000501306
-0.000725788
-0.000792464
-0.000682501
-0.000615975
-0.000515754
-0.000415465
-0.00029277
-0.00016873
-4.5979e-05
7.88541e-05
0.000175119
0.0002876
0.000316943
0.000423977
0.000265645
-2.81037e-05
0.892077
-0.0928959
0.00154275
0.00451407
0.00696619
-0.085692
0.100945
-0.0877308
0.0359083
0.205002
0.0664447
0.0151834
0.530251
0.947399
0.570641
0.138573
0.0329113
0.00147148
0.573585
0.116491
0.762468
0.267261
0.265784
0.260743
0.263229
0.246038
0.274051
0.183464
0.41783
-0.185937
0.536256
-0.173517
0.0703733
-0.0178093
0.0221576
0.02626
0.0506079
0.0106252
0.275802
0.47229
)
;
    }
    frontAndBack
    {
        type            empty;
    }
}


// ************************************************************************* //
