/*--------------------------------*- C++ -*----------------------------------*\
| =========                 |                                                 |
| \\      /  F ield         | OpenFOAM: The Open Source CFD Toolbox           |
|  \\    /   O peration     | Version:  2312                                  |
|   \\  /    A nd           | Website:  www.openfoam.com                      |
|    \\/     M anipulation  |                                                 |
\*---------------------------------------------------------------------------*/
FoamFile
{
    version     2.0;
    format      ascii;
    arch        "LSB;label=32;scalar=64";
    class       surfaceScalarField;
    location    "4.25";
    object      fluxField;
}
// * * * * * * * * * * * * * * * * * * * * * * * * * * * * * * * * * * * * * //

dimensions      [0 3 -1 0 0 0 0];

oriented        oriented;

internalField   nonuniform List<scalar> 
760
(
-5e-05
3.20155e-16
-5e-05
8.7032e-18
-5e-05
1.13514e-16
-5e-05
-1.84085e-18
-5e-05
2.20229e-17
-5e-05
2.38039e-18
-5e-05
4.78971e-18
-5e-05
1.71079e-18
-5e-05
1.51457e-18
-5e-05
8.82479e-19
-5e-05
6.53122e-19
-5e-05
4.44266e-19
-5e-05
3.16115e-19
-5e-05
2.20992e-19
-5e-05
1.58694e-19
-5e-05
1.14514e-19
-5e-05
7.70833e-20
-5e-05
4.71431e-20
-5e-05
2.76245e-20
1.06161e-20
-5e-05
-1.64117e-15
-5e-05
5.69919e-16
-5e-05
-6.30054e-17
-5e-05
5.34824e-17
-5e-05
1.10472e-17
-5e-05
9.99703e-18
-5e-05
5.77401e-18
-5e-05
3.61522e-18
-5e-05
2.47949e-18
-5e-05
1.66239e-18
-5e-05
1.18114e-18
-5e-05
8.32595e-19
-5e-05
5.92918e-19
-5e-05
4.24302e-19
-5e-05
3.05251e-19
-5e-05
2.19176e-19
-5e-05
1.50284e-19
-5e-05
9.46604e-20
-5e-05
5.29106e-20
1.69234e-20
-5e-05
1.52598e-15
-5e-05
-4.61249e-16
-5e-05
1.46323e-16
-5e-05
-1.62408e-17
-5e-05
2.34415e-17
-5e-05
6.6691e-18
-5e-05
7.09428e-18
-5e-05
4.1265e-18
-5e-05
3.08064e-18
-5e-05
2.12054e-18
-5e-05
1.53744e-18
-5e-05
1.10706e-18
-5e-05
8.03877e-19
-5e-05
5.82798e-19
-5e-05
4.23736e-19
-5e-05
3.05729e-19
-5e-05
2.12318e-19
-5e-05
1.36769e-19
-5e-05
7.4441e-20
1.89594e-20
-5e-05
-1.70045e-15
-5e-05
4.53516e-16
-5e-05
-9.80646e-17
-5e-05
3.86116e-17
-5e-05
3.06271e-18
-5e-05
9.29661e-18
-5e-05
5.37963e-18
-5e-05
4.34657e-18
-5e-05
3.10595e-18
-5e-05
2.30155e-18
-5e-05
1.69042e-18
-5e-05
1.25208e-18
-5e-05
9.26497e-19
-5e-05
6.80892e-19
-5e-05
5.02006e-19
-5e-05
3.64848e-19
-5e-05
2.5785e-19
-5e-05
1.68954e-19
-5e-05
9.33691e-20
2.27217e-20
-5e-05
1.22589e-15
-5e-05
-2.88278e-16
-5e-05
8.01883e-17
-5e-05
-9.80158e-18
-5e-05
1.12626e-17
-5e-05
4.79731e-18
-5e-05
5.04542e-18
-5e-05
3.69005e-18
-5e-05
2.92406e-18
-5e-05
2.21293e-18
-5e-05
1.68646e-18
-5e-05
1.27882e-18
-5e-05
9.63596e-19
-5e-05
7.196e-19
-5e-05
5.38603e-19
-5e-05
3.93904e-19
-5e-05
2.77779e-19
-5e-05
1.80561e-19
-5e-05
1.03829e-19
2.88606e-20
-5e-05
-1.02695e-15
-5e-05
2.30299e-16
-5e-05
-5.1776e-17
-5e-05
1.69797e-17
-5e-05
1.6113e-18
-5e-05
5.01611e-18
-5e-05
3.5566e-18
-5e-05
3.143e-18
-5e-05
2.50074e-18
-5e-05
1.99595e-18
-5e-05
1.56308e-18
-5e-05
1.21516e-18
-5e-05
9.36289e-19
-5e-05
7.13542e-19
-5e-05
5.36342e-19
-5e-05
3.9333e-19
-5e-05
2.74243e-19
-5e-05
1.77193e-19
-5e-05
1.05634e-19
3.2723e-20
-5e-05
7.32731e-16
-5e-05
-1.7791e-16
-5e-05
4.21151e-17
-5e-05
-7.86909e-18
-5e-05
5.30221e-18
-5e-05
2.42974e-18
-5e-05
2.90985e-18
-5e-05
2.39147e-18
-5e-05
2.05267e-18
-5e-05
1.68408e-18
-5e-05
1.36066e-18
-5e-05
1.0797e-18
-5e-05
8.50952e-19
-5e-05
6.62736e-19
-5e-05
5.00796e-19
-5e-05
3.69534e-19
-5e-05
2.59497e-19
-5e-05
1.68382e-19
-5e-05
1.01215e-19
3.1761e-20
-5e-05
-7.08087e-16
-5e-05
1.63123e-16
-5e-05
-3.66117e-17
-5e-05
1.01535e-17
-5e-05
-4.19788e-20
-5e-05
2.44642e-18
-5e-05
1.87571e-18
-5e-05
1.8126e-18
-5e-05
1.56809e-18
-5e-05
1.33704e-18
-5e-05
1.11054e-18
-5e-05
9.02403e-19
-5e-05
7.19457e-19
-5e-05
5.69846e-19
-5e-05
4.41753e-19
-5e-05
3.31271e-19
-5e-05
2.33867e-19
-5e-05
1.52414e-19
-5e-05
9.12735e-20
2.6585e-20
-5e-05
6.45253e-16
-5e-05
-1.44155e-16
-5e-05
3.40286e-17
-5e-05
-6.63583e-18
-5e-05
2.80116e-18
-5e-05
9.11278e-19
-5e-05
1.36607e-18
-5e-05
1.21391e-18
-5e-05
1.11972e-18
-5e-05
9.78526e-19
-5e-05
8.36096e-19
-5e-05
6.96453e-19
-5e-05
5.63923e-19
-5e-05
4.55938e-19
-5e-05
3.65151e-19
-5e-05
2.79527e-19
-5e-05
1.99571e-19
-5e-05
1.31721e-19
-5e-05
7.93936e-20
2.00232e-20
-5e-05
-6.22884e-16
-5e-05
1.35122e-16
-5e-05
-3.08918e-17
-5e-05
7.15035e-18
-5e-05
-8.64372e-19
-5e-05
9.4806e-19
-5e-05
6.54538e-19
-5e-05
7.2478e-19
-5e-05
6.834e-19
-5e-05
6.24855e-19
-5e-05
5.53633e-19
-5e-05
4.79063e-19
-5e-05
4.02619e-19
-5e-05
3.35736e-19
-5e-05
2.74829e-19
-5e-05
2.15707e-19
-5e-05
1.6053e-19
-5e-05
1.04936e-19
-5e-05
6.37525e-20
1.56446e-20
-5e-05
5.82983e-16
-5e-05
-1.24875e-16
-5e-05
2.84954e-17
-5e-05
-6.29508e-18
-5e-05
1.23017e-18
-5e-05
-1.90373e-19
-5e-05
2.10099e-19
-5e-05
2.26448e-19
-5e-05
2.76843e-19
-5e-05
2.9219e-19
-5e-05
2.89954e-19
-5e-05
2.73687e-19
-5e-05
2.46071e-19
-5e-05
2.14722e-19
-5e-05
1.8052e-19
-5e-05
1.47845e-19
-5e-05
1.15831e-19
-5e-05
7.6701e-20
-5e-05
4.80225e-20
1.36577e-20
-5e-05
-5.49588e-16
-5e-05
1.15866e-16
-5e-05
-2.73044e-17
-5e-05
5.01547e-18
-5e-05
-1.76429e-18
-5e-05
-2.80561e-19
-5e-05
-4.13204e-19
-5e-05
-2.27625e-19
-5e-05
-1.0784e-19
-5e-05
-1.57309e-20
-5e-05
4.85766e-20
-5e-05
8.15226e-20
-5e-05
9.87407e-20
-5e-05
1.01021e-19
-5e-05
9.22877e-20
-5e-05
8.04418e-20
-5e-05
6.79929e-20
-5e-05
4.93612e-20
-5e-05
3.38731e-20
9.06928e-21
-5e-05
5.25128e-16
-5e-05
-1.11015e-16
-5e-05
2.42259e-17
-5e-05
-6.64105e-18
-5e-05
-2.32705e-19
-5e-05
-1.33847e-18
-5e-05
-8.7403e-19
-5e-05
-6.79824e-19
-5e-05
-4.63137e-19
-5e-05
-2.96333e-19
-5e-05
-1.74887e-19
-5e-05
-9.21692e-20
-5e-05
-3.52108e-20
-5e-05
-5.02122e-22
-5e-05
1.34646e-20
-5e-05
2.2863e-20
-5e-05
2.5853e-20
-5e-05
2.0467e-20
-5e-05
1.76814e-20
2.43488e-21
-5e-05
-4.75625e-16
-5e-05
1.00447e-16
-5e-05
-2.54614e-17
-5e-05
2.86361e-18
-5e-05
-3.16548e-18
-5e-05
-1.59524e-18
-5e-05
-1.49107e-18
-5e-05
-1.08786e-18
-5e-05
-7.87594e-19
-5e-05
-5.43603e-19
-5e-05
-3.6319e-19
-5e-05
-2.32516e-19
-5e-05
-1.45171e-19
-5e-05
-8.53184e-20
-5e-05
-4.62496e-20
-5e-05
-1.60784e-20
-5e-05
-6.02541e-21
-5e-05
-3.05018e-21
-5e-05
3.00133e-21
-2.41272e-21
-5e-05
4.66376e-16
-5e-05
-1.01156e-16
-5e-05
1.93823e-17
-5e-05
-8.28787e-18
-5e-05
-2.25908e-18
-5e-05
-2.79123e-18
-5e-05
-1.98773e-18
-5e-05
-1.48104e-18
-5e-05
-1.06164e-18
-5e-05
-7.32228e-19
-5e-05
-4.94174e-19
-5e-05
-3.29413e-19
-5e-05
-2.18352e-19
-5e-05
-1.42506e-19
-5e-05
-8.48759e-20
-5e-05
-4.8589e-20
-5e-05
-2.97634e-20
-5e-05
-1.60251e-20
-5e-05
-6.83148e-21
-6.75648e-21
-5e-05
-3.85962e-16
-5e-05
8.32437e-17
-5e-05
-2.68676e-17
-5e-05
-6.2528e-19
-5e-05
-5.84324e-18
-5e-05
-3.17061e-18
-5e-05
-2.60117e-18
-5e-05
-1.74621e-18
-5e-05
-1.23637e-18
-5e-05
-8.33958e-19
-5e-05
-5.61749e-19
-5e-05
-3.76776e-19
-5e-05
-2.52519e-19
-5e-05
-1.69008e-19
-5e-05
-1.0966e-19
-5e-05
-7.23735e-20
-5e-05
-4.37121e-20
-5e-05
-2.39744e-20
-5e-05
-9.91644e-21
-7.02385e-21
-5e-05
3.99519e-16
-5e-05
-9.31569e-17
-5e-05
3.77905e-18
-5e-05
-1.13635e-17
-5e-05
-6.32716e-18
-5e-05
-3.98762e-18
-5e-05
-2.89317e-18
-5e-05
-1.79701e-18
-5e-05
-1.25151e-18
-5e-05
-8.16547e-19
-5e-05
-5.54045e-19
-5e-05
-3.6469e-19
-5e-05
-2.44621e-19
-5e-05
-1.60805e-19
-5e-05
-1.08553e-19
-5e-05
-7.11326e-20
-5e-05
-4.4718e-20
-5e-05
-2.80552e-20
-5e-05
-1.0621e-20
-4.34046e-21
-5e-05
-2.21586e-16
-5e-05
3.2714e-17
-5e-05
-5.26666e-17
-5e-05
1.57663e-18
-5e-05
-1.23546e-17
-5e-05
-2.09116e-18
-5e-05
-3.23093e-18
-5e-05
-1.33536e-18
-5e-05
-1.09603e-18
-5e-05
-6.36601e-19
-5e-05
-4.4873e-19
-5e-05
-2.89997e-19
-5e-05
-1.93684e-19
-5e-05
-1.22844e-19
-5e-05
-8.09724e-20
-5e-05
-5.15716e-20
-5e-05
-3.4459e-20
-5e-05
-2.22407e-20
-5e-05
-1.21096e-20
-4.7439e-21
-5e-05
2.16653e-16
-5e-05
4.93904e-17
-5e-05
-8.12355e-17
-5e-05
2.03142e-17
-5e-05
-1.69998e-17
-5e-05
1.64844e-18
-5e-05
-3.01165e-18
-5e-05
-4.34333e-19
-5e-05
-7.29498e-19
-5e-05
-3.19013e-19
-5e-05
-2.57035e-19
-5e-05
-1.59796e-19
-5e-05
-1.07769e-19
-5e-05
-6.78387e-20
-5e-05
-4.43804e-20
-5e-05
-2.73364e-20
-5e-05
-1.87406e-20
-5e-05
-1.13077e-20
-5e-05
-8.80653e-21
-4.56473e-21
-5e-05
-5e-05
-5e-05
-5e-05
-5e-05
-5e-05
-5e-05
-5e-05
-5e-05
-5e-05
-5e-05
-5e-05
-5e-05
-5e-05
-5e-05
-5e-05
-5e-05
-5e-05
-5e-05
)
;

boundaryField
{
    movingWall
    {
        type            calculated;
        value           uniform -0;
    }
    fixedWalls
    {
        type            calculated;
        value           nonuniform List<scalar> 
60
(
5e-05
5e-05
5e-05
5e-05
5e-05
5e-05
5e-05
5e-05
5e-05
5e-05
5e-05
5e-05
5e-05
5e-05
5e-05
5e-05
5e-05
5e-05
5e-05
5e-05
-5e-05
-5e-05
-5e-05
-5e-05
-5e-05
-5e-05
-5e-05
-5e-05
-5e-05
-5e-05
-5e-05
-5e-05
-5e-05
-5e-05
-5e-05
-5e-05
-5e-05
-5e-05
-5e-05
-5e-05
0
0
0
0
0
0
0
0
0
0
0
0
0
0
0
0
0
0
0
0
)
;
    }
    frontAndBack
    {
        type            empty;
        value           nonuniform List<scalar> 0();
    }
}


// ************************************************************************* //
