/*--------------------------------*- C++ -*----------------------------------*\
| =========                 |                                                 |
| \\      /  F ield         | OpenFOAM: The Open Source CFD Toolbox           |
|  \\    /   O peration     | Version:  2312                                  |
|   \\  /    A nd           | Website:  www.openfoam.com                      |
|    \\/     M anipulation  |                                                 |
\*---------------------------------------------------------------------------*/
FoamFile
{
    version     2.0;
    format      ascii;
    arch        "LSB;label=32;scalar=64";
    class       volVectorField;
    location    "4.25";
    object      gradPhi;
}
// * * * * * * * * * * * * * * * * * * * * * * * * * * * * * * * * * * * * * //

dimensions      [0 2 -1 0 0 0 0];

internalField   nonuniform List<vector> 
400
(
(-0.02 5.77636e-15 0)
(4.49242e-14 -4.49244e-14 0)
(-3.30624e-14 3.30636e-14 0)
(3.00267e-15 -3.00364e-15 0)
(-6.34613e-15 6.34674e-15 0)
(-3.35835e-16 3.35071e-16 0)
(-1.14978e-15 1.1506e-15 0)
(-3.35835e-16 3.35576e-16 0)
(-3.226e-16 3.23774e-16 0)
(-1.80325e-16 1.78559e-16 0)
(-1.34003e-16 1.34396e-16 0)
(-8.93355e-17 9.0089e-17 0)
(-6.45201e-17 6.47856e-17 0)
(-4.46678e-17 4.48254e-17 0)
(-3.30872e-17 3.19196e-17 0)
(-2.31611e-17 2.32485e-17 0)
(-1.48893e-17 1.55232e-17 0)
(-8.27181e-18 8.97122e-18 0)
(-6.61744e-18 5.44893e-18 0)
(0 2.26053e-18 0)
(-0.02 -2.14579e-13 0)
(-2.42615e-13 2.42617e-13 0)
(4.45867e-14 -4.45865e-14 0)
(-1.84445e-14 1.84433e-14 0)
(4.97963e-15 -4.97821e-15 0)
(-1.96538e-15 1.96617e-15 0)
(2.64698e-17 -2.70782e-17 0)
(-4.35097e-16 4.3643e-16 0)
(-1.83634e-16 1.81993e-16 0)
(-1.63782e-16 1.64224e-16 0)
(-1.07533e-16 1.05936e-16 0)
(-7.7755e-17 7.95647e-17 0)
(-5.62483e-17 5.4853e-17 0)
(-3.97047e-17 4.10287e-17 0)
(-2.97785e-17 2.95136e-17 0)
(-1.98523e-17 2.04894e-17 0)
(-1.48893e-17 1.48399e-17 0)
(-9.92617e-18 1.04955e-17 0)
(-4.96308e-18 5.18815e-18 0)
(-1.65436e-18 1.89454e-18 0)
(-0.02 3.73756e-13 0)
(3.86101e-13 -3.86102e-13 0)
(-3.17637e-14 3.17631e-14 0)
(2.31511e-14 -2.31499e-14 0)
(-3.81496e-15 3.81528e-15 0)
(9.9758e-16 -9.96042e-16 0)
(-3.70577e-16 3.70187e-16 0)
(-6.61744e-17 6.59332e-17 0)
(-1.24077e-16 1.23345e-16 0)
(-8.76811e-17 8.72648e-17 0)
(-7.11375e-17 7.16179e-17 0)
(-5.62483e-17 5.45584e-17 0)
(-4.1359e-17 4.30422e-17 0)
(-3.30872e-17 3.165e-17 0)
(-2.48154e-17 2.42314e-17 0)
(-1.8198e-17 1.85091e-17 0)
(-1.15805e-17 1.25995e-17 0)
(-8.27181e-18 7.89755e-18 0)
(-4.96308e-18 4.63737e-18 0)
(0 -1.0148e-18 0)
(-0.02 -3.41136e-13 0)
(-3.59016e-13 3.59016e-13 0)
(3.10524e-14 -3.10515e-14 0)
(-1.80309e-14 1.8031e-14 0)
(5.06235e-15 -5.06167e-15 0)
(-4.61567e-16 4.62444e-16 0)
(4.61567e-16 -4.62771e-16 0)
(-2.81241e-17 2.87819e-17 0)
(4.96308e-18 -4.73915e-18 0)
(-3.30872e-17 3.39314e-17 0)
(-2.97785e-17 2.85702e-17 0)
(-2.64698e-17 2.74218e-17 0)
(-2.48154e-17 2.42883e-17 0)
(-1.98523e-17 2.00583e-17 0)
(-1.65436e-17 1.53377e-17 0)
(-9.92617e-18 1.07752e-17 0)
(-8.27181e-18 8.40368e-18 0)
(-6.61744e-18 7.52323e-18 0)
(-4.96308e-18 4.04847e-18 0)
(-1.65436e-18 1.58606e-18 0)
(-0.02 2.65577e-13 0)
(2.71067e-13 -2.71067e-13 0)
(-1.69919e-14 1.69901e-14 0)
(1.26377e-14 -1.26365e-14 0)
(-1.98358e-15 1.98312e-15 0)
(6.53473e-16 -6.53851e-16 0)
(4.79765e-17 -4.82659e-17 0)
(1.19114e-16 -1.17996e-16 0)
(4.30134e-17 -4.36927e-17 0)
(1.8198e-17 -1.91858e-17 0)
(3.30872e-18 -2.37626e-18 0)
(-4.96308e-18 5.80473e-18 0)
(-6.61744e-18 6.04215e-18 0)
(-6.61744e-18 6.49885e-18 0)
(-6.61744e-18 7.36939e-18 0)
(-6.61744e-18 6.29596e-18 0)
(-4.96308e-18 5.33861e-18 0)
(0 1.10691e-18 0)
(-1.65436e-18 1.36842e-18 0)
(-1.65436e-18 1.46347e-18 0)
(-0.02 -1.40719e-13 0)
(-1.43408e-13 1.43409e-13 0)
(4.65041e-15 -4.65076e-15 0)
(-3.87121e-15 3.87201e-15 0)
(9.82691e-16 -9.83086e-16 0)
(4.00355e-16 -4.01385e-16 0)
(2.06795e-16 -2.06201e-16 0)
(1.50547e-16 -1.50128e-16 0)
(7.44463e-17 -7.415e-17 0)
(4.96308e-17 -4.92895e-17 0)
(2.48154e-17 -2.45578e-17 0)
(1.32349e-17 -1.40807e-17 0)
(4.96308e-18 -4.66623e-18 0)
(0 -9.05753e-19 0)
(1.65436e-18 -5.23572e-19 0)
(0 1.14439e-19 0)
(3.30872e-18 -1.99516e-18 0)
(0 -7.55654e-19 0)
(0 3.08142e-19 0)
(-1.65436e-18 6.76244e-19 0)
(-0.02 4.76471e-14 0)
(3.85814e-14 -3.85814e-14 0)
(7.60675e-15 -7.60516e-15 0)
(-6.79942e-16 6.78892e-16 0)
(1.60308e-15 -1.60332e-15 0)
(-1.58819e-16 1.58513e-16 0)
(3.30872e-16 -3.29437e-16 0)
(8.43724e-17 -8.49419e-17 0)
(1.09188e-16 -1.10171e-16 0)
(5.45939e-17 -5.46347e-17 0)
(4.30134e-17 -4.26158e-17 0)
(2.81241e-17 -2.72625e-17 0)
(1.8198e-17 -1.80275e-17 0)
(9.92617e-18 -9.54893e-18 0)
(6.61744e-18 -7.87788e-18 0)
(6.61744e-18 -6.1258e-18 0)
(3.30872e-18 -2.46869e-18 0)
(0 -7.51364e-19 0)
(0 5.7602e-20 0)
(1.65436e-18 -2.69454e-19 0)
(-0.02 3.13351e-14 0)
(4.18189e-14 -4.18178e-14 0)
(-1.52367e-14 1.52361e-14 0)
(6.05496e-15 -6.05508e-15 0)
(-2.61224e-15 2.61266e-15 0)
(8.98318e-16 -8.98887e-16 0)
(-1.0257e-16 1.04339e-16 0)
(2.05141e-16 -2.06296e-16 0)
(6.94832e-17 -6.92718e-17 0)
(8.10637e-17 -8.04542e-17 0)
(4.79765e-17 -4.81248e-17 0)
(3.47416e-17 -3.60417e-17 0)
(2.64698e-17 -2.61906e-17 0)
(1.8198e-17 -1.95302e-17 0)
(1.15805e-17 -1.08184e-17 0)
(6.61744e-18 -6.48078e-18 0)
(4.96308e-18 -5.54882e-18 0)
(3.30872e-18 -4.50141e-18 0)
(3.30872e-18 -3.35442e-18 0)
(1.65436e-18 -1.15254e-18 0)
(-0.02 -9.05848e-14 0)
(-1.0462e-13 1.04619e-13 0)
(2.00012e-14 -2.00013e-14 0)
(-1.02488e-14 1.02503e-14 0)
(4.22524e-15 -4.22595e-15 0)
(-8.23872e-16 8.24607e-16 0)
(5.0458e-16 -5.05643e-16 0)
(3.30872e-18 -2.69576e-18 0)
(1.24077e-16 -1.22542e-16 0)
(5.79026e-17 -5.88667e-17 0)
(5.62483e-17 -5.70842e-17 0)
(3.97047e-17 -3.99736e-17 0)
(3.30872e-17 -3.16259e-17 0)
(2.31611e-17 -2.36273e-17 0)
(1.48893e-17 -1.67144e-17 0)
(1.15805e-17 -1.05586e-17 0)
(6.61744e-18 -6.85836e-18 0)
(3.30872e-18 -3.18691e-18 0)
(3.30872e-18 -1.4634e-18 0)
(0 -1.45087e-18 0)
(-0.02 1.44849e-13 0)
(1.57001e-13 -1.57002e-13 0)
(-2.29741e-14 2.29749e-14 0)
(1.42986e-14 -1.42982e-14 0)
(-4.99121e-15 4.99134e-15 0)
(1.29867e-15 -1.29855e-15 0)
(-3.50725e-16 3.49348e-16 0)
(2.31611e-16 -2.31002e-16 0)
(4.79765e-17 -4.69545e-17 0)
(8.43724e-17 -8.34657e-17 0)
(5.29396e-17 -5.40884e-17 0)
(4.63221e-17 -4.58558e-17 0)
(3.30872e-17 -3.23758e-17 0)
(2.15067e-17 -2.30232e-17 0)
(1.8198e-17 -1.70424e-17 0)
(1.15805e-17 -1.33869e-17 0)
(8.27181e-18 -7.44431e-18 0)
(4.96308e-18 -6.06729e-18 0)
(4.96308e-18 -3.18835e-18 0)
(1.65436e-18 -1.05505e-18 0)
(-0.02 -1.83502e-13 0)
(-1.97202e-13 1.972e-13 0)
(2.49593e-14 -2.49589e-14 0)
(-1.7035e-14 1.7035e-14 0)
(6.01029e-15 -6.0097e-15 0)
(-1.20934e-15 1.20894e-15 0)
(6.43547e-16 -6.43348e-16 0)
(-4.79765e-17 4.83858e-17 0)
(1.25731e-16 -1.25009e-16 0)
(5.12852e-17 -5.27523e-17 0)
(5.62483e-17 -5.55963e-17 0)
(3.80503e-17 -3.85465e-17 0)
(3.14329e-17 -3.11228e-17 0)
(2.64698e-17 -2.47387e-17 0)
(1.8198e-17 -1.97612e-17 0)
(1.32349e-17 -1.3444e-17 0)
(8.27181e-18 -8.79418e-18 0)
(6.61744e-18 -5.08918e-18 0)
(3.30872e-18 -3.93394e-18 0)
(0 -3.6202e-19 0)
(-0.02 2.15345e-13 0)
(2.26459e-13 -2.26456e-13 0)
(-2.56972e-14 2.56967e-14 0)
(1.92667e-14 -1.92668e-14 0)
(-6.28326e-15 6.28332e-15 0)
(1.53194e-15 -1.53183e-15 0)
(-4.73147e-16 4.727e-16 0)
(2.465e-16 -2.46026e-16 0)
(2.97785e-17 -3.05361e-17 0)
(7.7755e-17 -7.61593e-17 0)
(4.46678e-17 -4.50037e-17 0)
(4.1359e-17 -4.04726e-17 0)
(2.81241e-17 -2.92018e-17 0)
(2.31611e-17 -2.2956e-17 0)
(1.65436e-17 -1.70655e-17 0)
(1.48893e-17 -1.29885e-17 0)
(8.27181e-18 -1.06527e-17 0)
(6.61744e-18 -5.9274e-18 0)
(3.30872e-18 -2.20762e-18 0)
(0 1.58893e-19 0)
(-0.02 -2.31295e-13 0)
(-2.43396e-13 2.43395e-13 0)
(2.57882e-14 -2.57876e-14 0)
(-2.00922e-14 2.00935e-14 0)
(6.76634e-15 -6.76698e-15 0)
(-1.33011e-15 1.32954e-15 0)
(7.08067e-16 -7.06399e-16 0)
(-6.94832e-17 6.83312e-17 0)
(1.1746e-16 -1.17505e-16 0)
(4.1359e-17 -4.09931e-17 0)
(4.79765e-17 -4.73968e-17 0)
(3.14329e-17 -3.34199e-17 0)
(2.81241e-17 -2.73493e-17 0)
(1.8198e-17 -1.95396e-17 0)
(1.65436e-17 -1.54977e-17 0)
(1.15805e-17 -1.27067e-17 0)
(8.27181e-18 -7.96212e-18 0)
(4.96308e-18 -5.56171e-18 0)
(3.30872e-18 -3.38605e-18 0)
(3.30872e-18 -3.45121e-18 0)
(-0.02 2.40787e-13 0)
(2.49832e-13 -2.49833e-13 0)
(-2.46533e-14 2.46534e-14 0)
(2.05108e-14 -2.05102e-14 0)
(-6.43381e-15 6.43217e-15 0)
(1.56172e-15 -1.56063e-15 0)
(-4.88037e-16 4.87805e-16 0)
(2.36574e-16 -2.37504e-16 0)
(1.8198e-17 -1.87132e-17 0)
(6.45201e-17 -6.37281e-17 0)
(3.47416e-17 -3.53124e-17 0)
(2.81241e-17 -2.91265e-17 0)
(2.31611e-17 -2.17907e-17 0)
(1.65436e-17 -1.7739e-17 0)
(1.48893e-17 -1.39427e-17 0)
(6.61744e-18 -6.9874e-18 0)
(6.61744e-18 -6.00046e-18 0)
(3.30872e-18 -5.51747e-18 0)
(3.30872e-18 -3.1478e-18 0)
(0 1.09993e-18 0)
(-0.02 -2.3456e-13 0)
(-2.44779e-13 2.44779e-13 0)
(2.33679e-14 -2.33667e-14 0)
(-1.9313e-14 1.93114e-14 0)
(6.52646e-15 -6.52648e-15 0)
(-1.19445e-15 1.19508e-15 0)
(6.79942e-16 -6.8004e-16 0)
(-7.11375e-17 6.97988e-17 0)
(1.00916e-16 -9.98e-17 0)
(2.48154e-17 -2.52118e-17 0)
(2.97785e-17 -2.99617e-17 0)
(1.8198e-17 -1.88648e-17 0)
(1.48893e-17 -1.51068e-17 0)
(1.32349e-17 -1.18191e-17 0)
(4.96308e-18 -6.08072e-18 0)
(6.61744e-18 -6.32078e-18 0)
(4.96308e-18 -5.20106e-18 0)
(1.65436e-18 -1.6703e-18 0)
(1.65436e-18 -1.84897e-18 0)
(1.65436e-18 -2.66069e-18 0)
(-0.02 2.26137e-13 0)
(2.32254e-13 -2.32254e-13 0)
(-2.01865e-14 2.01864e-14 0)
(1.83436e-14 -1.8345e-14 0)
(-5.51233e-15 5.51451e-15 0)
(1.37974e-15 -1.3801e-15 0)
(-4.11936e-16 4.10617e-16 0)
(1.91906e-16 -1.92025e-16 0)
(-3.30872e-18 3.16655e-18 0)
(3.47416e-17 -3.42668e-17 0)
(9.92617e-18 -9.51809e-18 0)
(9.92617e-18 -1.04967e-17 0)
(6.61744e-18 -6.54972e-18 0)
(6.61744e-18 -5.04982e-18 0)
(3.30872e-18 -4.8968e-18 0)
(6.61744e-18 -5.98754e-18 0)
(3.30872e-18 -3.11377e-18 0)
(1.65436e-18 -1.15768e-18 0)
(0 -6.6869e-19 0)
(0 7.24641e-19 0)
(-0.02 -2.0062e-13 0)
(-2.09019e-13 2.09018e-13 0)
(1.87969e-14 -1.87965e-14 0)
(-1.5455e-14 1.54548e-14 0)
(5.54707e-15 -5.54823e-15 0)
(-9.46295e-16 9.47433e-16 0)
(5.36013e-16 -5.36461e-16 0)
(-1.0257e-16 1.02028e-16 0)
(3.97047e-17 -3.93469e-17 0)
(-1.48893e-17 1.3828e-17 0)
(4.96308e-18 -4.52965e-18 0)
(-4.96308e-18 2.72007e-18 0)
(0 1.51426e-18 0)
(-3.30872e-18 2.63352e-18 0)
(0 -5.98599e-19 0)
(-1.65436e-18 1.09755e-18 0)
(0 -4.86638e-20 0)
(3.30872e-18 -2.98546e-18 0)
(0 1.58559e-19 0)
(0 1.06453e-18 0)
(-0.02 1.87534e-13 0)
(1.89246e-13 -1.89246e-13 0)
(-1.16814e-14 1.16803e-14 0)
(1.32498e-14 -1.32482e-14 0)
(-3.51221e-15 3.51192e-15 0)
(6.9814e-16 -6.98897e-16 0)
(-3.30872e-16 3.31981e-16 0)
(1.98523e-17 -1.98127e-17 0)
(-5.9557e-17 5.88726e-17 0)
(-2.48154e-17 2.4874e-17 0)
(-2.48154e-17 2.58123e-17 0)
(-1.48893e-17 1.45166e-17 0)
(-8.27181e-18 9.28509e-18 0)
(-6.61744e-18 5.92358e-18 0)
(-6.61744e-18 6.13655e-18 0)
(-4.96308e-18 4.54667e-18 0)
(-3.30872e-18 3.15781e-18 0)
(-1.65436e-18 3.33724e-18 0)
(0 -8.93004e-19 0)
(0 -5.73213e-19 0)
(-0.02 -1.58157e-13 0)
(-1.75984e-13 1.75984e-13 0)
(3.17257e-14 -3.17252e-14 0)
(-1.74485e-14 1.7448e-14 0)
(5.50075e-15 -5.49962e-15 0)
(-1.78506e-15 1.78517e-15 0)
(3.54033e-16 -3.55433e-16 0)
(-2.86204e-16 2.86464e-16 0)
(-4.46678e-17 4.48138e-17 0)
(-7.61006e-17 7.52005e-17 0)
(-3.63959e-17 3.57562e-17 0)
(-2.64698e-17 2.69611e-17 0)
(-1.8198e-17 1.86897e-17 0)
(-1.32349e-17 1.23985e-17 0)
(-8.27181e-18 7.26361e-18 0)
(-3.30872e-18 4.19759e-18 0)
(-3.30872e-18 1.98932e-18 0)
(-1.65436e-18 1.6127e-18 0)
(-1.65436e-18 1.07357e-18 0)
(0 -2.8468e-19 0)
(-0.02 5.64086e-14 0)
(8.27528e-14 -8.27542e-14 0)
(-3.02847e-14 3.02855e-14 0)
(1.01032e-14 -1.01046e-14 0)
(-5.71085e-15 5.71218e-15 0)
(7.92439e-16 -7.92786e-16 0)
(-8.23872e-16 8.23496e-16 0)
(-4.63221e-17 4.66969e-17 0)
(-1.6709e-16 1.66467e-16 0)
(-6.12114e-17 6.11258e-17 0)
(-5.45939e-17 5.40774e-17 0)
(-3.14329e-17 3.2505e-17 0)
(-2.15067e-17 2.15069e-17 0)
(-1.48893e-17 1.34609e-17 0)
(-8.27181e-18 9.04796e-18 0)
(-6.61744e-18 5.71247e-18 0)
(-3.30872e-18 4.23619e-18 0)
(-3.30872e-18 2.22744e-18 0)
(0 1.80302e-18 0)
(-1.65436e-18 1.34569e-18 0)
)
;

boundaryField
{
    movingWall
    {
        type            extrapolatedCalculated;
        value           nonuniform List<vector> 
20
(
(-0.02 5.64086e-14 0)
(8.27528e-14 -8.27542e-14 0)
(-3.02847e-14 3.02855e-14 0)
(1.01032e-14 -1.01046e-14 0)
(-5.71085e-15 5.71218e-15 0)
(7.92439e-16 -7.92786e-16 0)
(-8.23872e-16 8.23496e-16 0)
(-4.63221e-17 4.66969e-17 0)
(-1.6709e-16 1.66467e-16 0)
(-6.12114e-17 6.11258e-17 0)
(-5.45939e-17 5.40774e-17 0)
(-3.14329e-17 3.2505e-17 0)
(-2.15067e-17 2.15069e-17 0)
(-1.48893e-17 1.34609e-17 0)
(-8.27181e-18 9.04796e-18 0)
(-6.61744e-18 5.71247e-18 0)
(-3.30872e-18 4.23619e-18 0)
(-3.30872e-18 2.22744e-18 0)
(0 1.80302e-18 0)
(-1.65436e-18 1.34569e-18 0)
)
;
    }
    fixedWalls
    {
        type            extrapolatedCalculated;
        value           nonuniform List<vector> 
60
(
(-0.02 5.77636e-15 0)
(-0.02 -2.14579e-13 0)
(-0.02 3.73756e-13 0)
(-0.02 -3.41136e-13 0)
(-0.02 2.65577e-13 0)
(-0.02 -1.40719e-13 0)
(-0.02 4.76471e-14 0)
(-0.02 3.13351e-14 0)
(-0.02 -9.05848e-14 0)
(-0.02 1.44849e-13 0)
(-0.02 -1.83502e-13 0)
(-0.02 2.15345e-13 0)
(-0.02 -2.31295e-13 0)
(-0.02 2.40787e-13 0)
(-0.02 -2.3456e-13 0)
(-0.02 2.26137e-13 0)
(-0.02 -2.0062e-13 0)
(-0.02 1.87534e-13 0)
(-0.02 -1.58157e-13 0)
(-0.02 5.64086e-14 0)
(0 2.26053e-18 0)
(-1.65436e-18 1.89454e-18 0)
(0 -1.0148e-18 0)
(-1.65436e-18 1.58606e-18 0)
(-1.65436e-18 1.46347e-18 0)
(-1.65436e-18 6.76244e-19 0)
(1.65436e-18 -2.69454e-19 0)
(1.65436e-18 -1.15254e-18 0)
(0 -1.45087e-18 0)
(1.65436e-18 -1.05505e-18 0)
(0 -3.6202e-19 0)
(0 1.58893e-19 0)
(3.30872e-18 -3.45121e-18 0)
(0 1.09993e-18 0)
(1.65436e-18 -2.66069e-18 0)
(0 7.24641e-19 0)
(0 1.06453e-18 0)
(0 -5.73213e-19 0)
(0 -2.8468e-19 0)
(-1.65436e-18 1.34569e-18 0)
(-0.02 5.77636e-15 0)
(4.49242e-14 -4.49244e-14 0)
(-3.30624e-14 3.30636e-14 0)
(3.00267e-15 -3.00364e-15 0)
(-6.34613e-15 6.34674e-15 0)
(-3.35835e-16 3.35071e-16 0)
(-1.14978e-15 1.1506e-15 0)
(-3.35835e-16 3.35576e-16 0)
(-3.226e-16 3.23774e-16 0)
(-1.80325e-16 1.78559e-16 0)
(-1.34003e-16 1.34396e-16 0)
(-8.93355e-17 9.0089e-17 0)
(-6.45201e-17 6.47856e-17 0)
(-4.46678e-17 4.48254e-17 0)
(-3.30872e-17 3.19196e-17 0)
(-2.31611e-17 2.32485e-17 0)
(-1.48893e-17 1.55232e-17 0)
(-8.27181e-18 8.97122e-18 0)
(-6.61744e-18 5.44893e-18 0)
(0 2.26053e-18 0)
)
;
    }
    frontAndBack
    {
        type            empty;
    }
}


// ************************************************************************* //
