/*--------------------------------*- C++ -*----------------------------------*\
| =========                 |                                                 |
| \\      /  F ield         | OpenFOAM: The Open Source CFD Toolbox           |
|  \\    /   O peration     | Version:  2312                                  |
|   \\  /    A nd           | Website:  www.openfoam.com                      |
|    \\/     M anipulation  |                                                 |
\*---------------------------------------------------------------------------*/
FoamFile
{
    version     2.0;
    format      ascii;
    arch        "LSB;label=32;scalar=64";
    class       volTensorField;
    location    "4.25";
    object      gradU;
}
// * * * * * * * * * * * * * * * * * * * * * * * * * * * * * * * * * * * * * //

dimensions      [0 0 -1 0 0 0 0];

internalField   nonuniform List<tensor> 
400
(
(-1.77085e-09 2.18644e-06 0 1.14261e-09 1.28062e-09 0 0 0 0)
(3.57602e-09 -2.70543e-06 0 1.75855e-09 3.48128e-11 0 0 0 0)
(-2.39785e-09 6.42371e-07 0 -7.15194e-10 4.54054e-10 0 0 0 0)
(1.03633e-09 -1.52618e-07 0 5.01769e-10 -7.36341e-12 0 0 0 0)
(-4.77103e-10 3.62117e-08 0 -7.28042e-11 8.80917e-11 0 0 0 0)
(1.14139e-10 -8.62058e-09 0 9.33769e-11 9.52157e-12 0 0 0 0)
(-6.41848e-11 2.04103e-09 0 1.31188e-11 1.91588e-11 0 0 0 0)
(5.44812e-12 -4.88786e-10 0 2.48553e-11 6.84317e-12 0 0 0 0)
(-1.06252e-11 1.14323e-10 0 1.18991e-11 6.05828e-12 0 0 0 0)
(-2.52077e-12 -2.83092e-11 0 9.86624e-12 3.52992e-12 0 0 0 0)
(-3.08998e-12 6.04109e-12 0 6.31548e-12 2.61249e-12 0 0 0 0)
(-1.70762e-12 -1.90014e-12 0 4.52654e-12 1.77706e-12 0 0 0 0)
(-1.38236e-12 1.31738e-13 0 3.06287e-12 1.26446e-12 0 0 0 0)
(-8.94467e-13 -2.51991e-13 0 2.03288e-12 8.83967e-13 0 0 0 0)
(-6.23416e-13 -8.27901e-14 0 1.32815e-12 6.34775e-13 0 0 0 0)
(-4.87891e-13 -8.85399e-14 0 7.86047e-13 4.58057e-13 0 0 0 0)
(-3.25261e-13 -7.25589e-14 0 4.33681e-13 3.08333e-13 0 0 0 0)
(-1.35525e-13 -5.03062e-14 0 2.1684e-13 1.88572e-13 0 0 0 0)
(-1.6263e-13 -3.31801e-14 0 5.42101e-14 1.10498e-13 0 0 0 0)
(0 -3.82927e-14 0 -5.42101e-14 4.24645e-14 0 0 0 0)
(4.67207e-09 -2.18512e-06 0 -7.29001e-09 -7.84531e-09 0 0 0 0)
(-5.43383e-09 2.7046e-06 0 -7.36905e-10 2.24486e-09 0 0 0 0)
(1.14107e-09 -6.42413e-07 0 2.10986e-10 -7.06076e-10 0 0 0 0)
(-3.93972e-10 1.52252e-07 0 -3.88524e-10 2.21293e-10 0 0 0 0)
(6.86571e-11 -3.61948e-08 0 6.22061e-11 -4.39028e-11 0 0 0 0)
(-2.81622e-11 8.55164e-09 0 -5.99835e-11 3.04665e-11 0 0 0 0)
(-4.3097e-12 -2.04371e-09 0 2.19551e-12 3.93722e-12 0 0 0 0)
(-6.69495e-12 4.75686e-10 0 -9.89334e-12 7.6177e-12 0 0 0 0)
(-4.36391e-12 -1.17636e-10 0 -2.00577e-12 3.85968e-12 0 0 0 0)
(-3.08998e-12 2.48634e-11 0 -2.35814e-12 3.11963e-12 0 0 0 0)
(-2.24972e-12 -7.79394e-12 0 -1.02999e-12 2.11207e-12 0 0 0 0)
(-1.51788e-12 5.52113e-13 0 -7.31836e-13 1.55332e-12 0 0 0 0)
(-1.13841e-12 -1.02483e-12 0 -4.33681e-13 1.10721e-12 0 0 0 0)
(-8.40257e-13 -3.77695e-13 0 -2.43945e-13 8.13241e-13 0 0 0 0)
(-5.69206e-13 -3.4312e-13 0 -1.6263e-13 5.86231e-13 0 0 0 0)
(-4.06576e-13 -2.37902e-13 0 -8.13152e-14 4.18647e-13 0 0 0 0)
(-2.98156e-13 -1.96926e-13 0 -2.71051e-14 2.92801e-13 0 0 0 0)
(-1.89735e-13 -1.47529e-13 0 -2.71051e-14 1.9007e-13 0 0 0 0)
(-1.35525e-13 -1.12928e-13 0 -2.71051e-14 1.01144e-13 0 0 0 0)
(0 -1.1467e-13 0 5.42101e-14 2.5229e-14 0 0 0 0)
(-9.79772e-09 2.18084e-06 0 3.45825e-09 1.26686e-08 0 0 0 0)
(1.10769e-08 -2.69829e-06 0 -4.19098e-10 -4.12467e-09 0 0 0 0)
(-2.04949e-09 6.40348e-07 0 2.04453e-10 8.37312e-10 0 0 0 0)
(8.87582e-10 -1.51956e-07 0 -7.21537e-11 -2.78893e-10 0 0 0 0)
(-1.48481e-10 3.60208e-08 0 -1.53144e-11 4.9577e-11 0 0 0 0)
(5.41017e-11 -8.57274e-09 0 -2.24972e-11 -1.33117e-11 0 0 0 0)
(-1.41488e-11 2.01818e-09 0 -1.02186e-11 5.28107e-12 0 0 0 0)
(1.27394e-12 -4.88864e-10 0 -7.34547e-12 2.04512e-12 0 0 0 0)
(-3.08998e-12 1.09825e-10 0 -4.17418e-12 2.40459e-12 0 0 0 0)
(-1.54499e-12 -3.00568e-11 0 -2.71051e-12 1.83262e-12 0 0 0 0)
(-1.46367e-12 4.47478e-12 0 -1.70762e-12 1.4252e-12 0 0 0 0)
(-1.11131e-12 -2.905e-12 0 -1.0571e-12 1.09785e-12 0 0 0 0)
(-8.67362e-13 -6.08338e-13 0 -6.77626e-13 8.43837e-13 0 0 0 0)
(-6.23416e-13 -7.72971e-13 0 -4.06576e-13 6.33982e-13 0 0 0 0)
(-5.14996e-13 -4.77384e-13 0 -2.43945e-13 4.73939e-13 0 0 0 0)
(-3.52366e-13 -3.8197e-13 0 -1.6263e-13 3.46211e-13 0 0 0 0)
(-2.1684e-13 -3.01137e-13 0 -5.42101e-14 2.48138e-13 0 0 0 0)
(-1.89735e-13 -2.41963e-13 0 0 1.68434e-13 0 0 0 0)
(-8.13152e-14 -1.98021e-13 0 0 8.61216e-14 0 0 0 0)
(0 -1.64666e-13 0 0 8.1442e-15 0 0 0 0)
(7.71117e-09 -2.17658e-06 0 5.78972e-09 -1.29057e-08 0 0 0 0)
(-8.68763e-09 2.69277e-06 0 -1.35566e-09 3.65906e-09 0 0 0 0)
(1.48801e-09 -6.38568e-07 0 5.23724e-10 -9.77549e-10 0 0 0 0)
(-6.13767e-10 1.51464e-07 0 -1.29481e-10 2.1941e-10 0 0 0 0)
(1.18341e-10 -3.59292e-08 0 2.94632e-11 -8.15151e-11 0 0 0 0)
(-2.31206e-11 8.50735e-09 0 -2.18738e-11 1.05101e-11 0 0 0 0)
(1.08691e-11 -2.02835e-09 0 -4.93312e-12 -6.8586e-12 0 0 0 0)
(-6.23416e-13 4.72809e-10 0 -6.83047e-12 8.80301e-13 0 0 0 0)
(2.71051e-13 -1.17849e-10 0 -3.79471e-12 1.01244e-13 0 0 0 0)
(-6.23416e-13 2.3884e-11 0 -2.87314e-12 7.24057e-13 0 0 0 0)
(-5.69206e-13 -8.5287e-12 0 -1.87025e-12 6.11935e-13 0 0 0 0)
(-5.42101e-13 -2.9255e-14 0 -1.32815e-12 5.80072e-13 0 0 0 0)
(-4.87891e-13 -1.4887e-12 0 -8.67362e-13 4.9048e-13 0 0 0 0)
(-4.06576e-13 -7.47593e-13 0 -5.96311e-13 3.92377e-13 0 0 0 0)
(-2.98156e-13 -6.30892e-13 0 -3.52366e-13 3.1308e-13 0 0 0 0)
(-1.89735e-13 -4.63703e-13 0 -1.89735e-13 2.36476e-13 0 0 0 0)
(-1.6263e-13 -3.74702e-13 0 -1.35525e-13 1.82129e-13 0 0 0 0)
(-1.6263e-13 -3.09545e-13 0 -1.0842e-13 1.28741e-13 0 0 0 0)
(-8.13152e-14 -2.73217e-13 0 2.71051e-14 7.57123e-14 0 0 0 0)
(-2.71051e-14 -2.08936e-13 0 0 1.5049e-14 0 0 0 0)
(-5.36374e-09 2.17159e-06 0 -8.29694e-09 1.17054e-08 0 0 0 0)
(5.81105e-09 -2.68636e-06 0 1.82013e-09 -2.96718e-09 0 0 0 0)
(-8.23343e-10 6.36908e-07 0 -6.81014e-10 7.13012e-10 0 0 0 0)
(3.93294e-10 -1.5106e-07 0 1.56396e-10 -1.93653e-10 0 0 0 0)
(-4.08744e-11 3.58119e-08 0 -5.13099e-11 3.27994e-11 0 0 0 0)
(1.97596e-11 -8.49808e-09 0 8.21283e-12 -1.79972e-11 0 0 0 0)
(8.40257e-13 2.00855e-09 0 -8.45678e-12 -1.33684e-12 0 0 0 0)
(2.35814e-12 -4.81904e-10 0 -3.08998e-12 -2.62611e-12 0 0 0 0)
(9.21572e-13 1.09669e-10 0 -3.38813e-12 -7.27542e-13 0 0 0 0)
(3.79471e-13 -2.95461e-11 0 -2.22261e-12 -3.54475e-13 0 0 0 0)
(1.0842e-13 4.33079e-12 0 -1.65341e-12 -1.58461e-14 0 0 0 0)
(-1.0842e-13 -3.02645e-12 0 -1.16552e-12 1.06992e-13 0 0 0 0)
(-1.35525e-13 -7.96032e-13 0 -8.13152e-13 1.48393e-13 0 0 0 0)
(-1.0842e-13 -9.50372e-13 0 -5.96311e-13 1.54833e-13 0 0 0 0)
(-1.35525e-13 -6.33285e-13 0 -3.79471e-13 1.46389e-13 0 0 0 0)
(-1.0842e-13 -5.12921e-13 0 -2.1684e-13 1.16225e-13 0 0 0 0)
(-1.35525e-13 -4.08871e-13 0 -1.6263e-13 7.97168e-14 0 0 0 0)
(0 -3.48379e-13 0 -2.71051e-14 4.64258e-14 0 0 0 0)
(-2.71051e-14 -3.11713e-13 0 -2.71051e-14 4.18398e-14 0 0 0 0)
(-2.71051e-14 -2.55427e-13 0 0 2.45559e-14 0 0 0 0)
(1.23439e-09 -2.16784e-06 0 9.01156e-09 -9.01137e-09 0 0 0 0)
(-1.07173e-09 2.68178e-06 0 -1.93221e-09 2.07431e-09 0 0 0 0)
(-1.75749e-10 -6.35794e-07 0 7.21157e-10 -5.27858e-10 0 0 0 0)
(1.59649e-11 1.50784e-07 0 -1.73635e-10 1.07125e-10 0 0 0 0)
(-2.98427e-11 -3.57536e-08 0 4.87078e-11 -3.8605e-11 0 0 0 0)
(1.97325e-11 8.47321e-09 0 -1.74828e-11 8.75221e-13 0 0 0 0)
(-4.06576e-13 -2.01298e-09 0 1.19262e-12 -5.95527e-12 0 0 0 0)
(4.44523e-12 4.73418e-10 0 -3.7676e-12 -2.18818e-12 0 0 0 0)
(1.11131e-12 -1.15577e-10 0 -1.87025e-12 -1.6933e-12 0 0 0 0)
(1.16552e-12 2.45957e-11 0 -1.78893e-12 -8.67957e-13 0 0 0 0)
(4.33681e-13 -8.06724e-12 0 -1.30104e-12 -4.93539e-13 0 0 0 0)
(2.98156e-13 1.34985e-13 0 -1.00289e-12 -2.54645e-13 0 0 0 0)
(1.0842e-13 -1.44086e-12 0 -6.77626e-13 -1.09227e-13 0 0 0 0)
(0 -7.49598e-13 0 -4.60786e-13 -2.42338e-14 0 0 0 0)
(8.13152e-14 -6.69499e-13 0 -3.79471e-13 -9.0456e-15 0 0 0 0)
(2.71051e-14 -5.30375e-13 0 -2.1684e-13 -2.2944e-15 0 0 0 0)
(0 -4.44501e-13 0 -1.0842e-13 -1.41436e-14 0 0 0 0)
(0 -3.47422e-13 0 -2.71051e-14 -1.3471e-14 0 0 0 0)
(0 -2.95087e-13 0 -2.71051e-14 7.22105e-15 0 0 0 0)
(-2.71051e-14 -2.75331e-13 0 2.71051e-14 1.54492e-14 0 0 0 0)
(1.71561e-09 2.16466e-06 0 -7.75383e-09 7.03873e-09 0 0 0 0)
(-2.47935e-09 -2.67788e-06 0 1.70897e-09 -1.63284e-09 0 0 0 0)
(9.35287e-10 6.34941e-07 0 -6.16179e-10 3.75565e-10 0 0 0 0)
(-2.79182e-10 -1.5057e-07 0 1.65043e-10 -9.93951e-11 0 0 0 0)
(1.15278e-10 3.57057e-08 0 -4.3856e-11 1.47636e-11 0 0 0 0)
(-2.78098e-11 -8.46543e-09 0 1.36881e-11 -1.03455e-11 0 0 0 0)
(1.45825e-11 2.00549e-09 0 -5.06865e-12 -2.58702e-12 0 0 0 0)
(-6.23416e-13 -4.77642e-10 0 -4.06576e-13 -3.00611e-12 0 0 0 0)
(2.92735e-12 1.10989e-10 0 -1.76183e-12 -1.79225e-12 0 0 0 0)
(8.94467e-13 -2.83464e-11 0 -1.19262e-12 -1.24748e-12 0 0 0 0)
(9.21572e-13 4.9441e-12 0 -1.02999e-12 -8.09679e-13 0 0 0 0)
(4.87891e-13 -2.64214e-12 0 -7.04731e-13 -5.41841e-13 0 0 0 0)
(4.33681e-13 -5.65621e-13 0 -6.23416e-13 -3.41349e-13 0 0 0 0)
(1.89735e-13 -8.5019e-13 0 -3.52366e-13 -2.03223e-13 0 0 0 0)
(8.13152e-14 -6.11346e-13 0 -2.1684e-13 -1.42182e-13 0 0 0 0)
(1.35525e-13 -5.18019e-13 0 -1.89735e-13 -9.51862e-14 0 0 0 0)
(8.13152e-14 -4.20048e-13 0 -1.35525e-13 -5.89874e-14 0 0 0 0)
(0 -3.27015e-13 0 -1.0842e-13 -3.52457e-14 0 0 0 0)
(5.42101e-14 -2.82793e-13 0 -8.13152e-14 -1.76761e-14 0 0 0 0)
(0 -2.78098e-13 0 -2.71051e-14 -3.84794e-15 0 0 0 0)
(-4.81047e-09 -2.16244e-06 0 7.01731e-09 -5.76327e-09 0 0 0 0)
(6.06592e-09 2.67511e-06 0 -1.54241e-09 1.36414e-09 0 0 0 0)
(-1.71971e-09 -6.34261e-07 0 5.99889e-10 -3.14907e-10 0 0 0 0)
(5.88315e-10 1.50423e-07 0 -1.44931e-10 7.20902e-11 0 0 0 0)
(-1.81224e-10 -3.56645e-08 0 4.56991e-11 -2.13767e-11 0 0 0 0)
(5.8574e-11 8.45586e-09 0 -1.29833e-11 6.67308e-14 0 0 0 0)
(-1.44741e-11 -2.00564e-09 0 3.33392e-12 -4.13653e-12 0 0 0 0)
(7.72494e-12 4.74213e-10 0 -1.81604e-12 -2.31548e-12 0 0 0 0)
(2.71051e-13 -1.13819e-10 0 -5.42101e-13 -1.93833e-12 0 0 0 0)
(1.92446e-12 2.55783e-11 0 -9.48677e-13 -1.38816e-12 0 0 0 0)
(9.21572e-13 -7.3616e-12 0 -5.96311e-13 -1.00049e-12 0 0 0 0)
(7.04731e-13 6.03315e-13 0 -5.69206e-13 -7.09195e-13 0 0 0 0)
(4.60786e-13 -1.10224e-12 0 -3.79471e-13 -5.2598e-13 0 0 0 0)
(4.33681e-13 -5.50432e-13 0 -2.98156e-13 -3.71559e-13 0 0 0 0)
(2.71051e-13 -5.61463e-13 0 -1.35525e-13 -2.36174e-13 0 0 0 0)
(8.13152e-14 -4.4718e-13 0 -2.71051e-14 -1.53051e-13 0 0 0 0)
(8.13152e-14 -3.84561e-13 0 -2.71051e-14 -1.02517e-13 0 0 0 0)
(1.0842e-13 -3.06111e-13 0 0 -6.38721e-14 0 0 0 0)
(2.71051e-14 -2.63689e-13 0 0 -3.97671e-14 0 0 0 0)
(5.42101e-14 -2.53807e-13 0 2.71051e-14 -2.07038e-14 0 0 0 0)
(7.19051e-09 2.16026e-06 0 -5.91099e-09 5.41336e-09 0 0 0 0)
(-8.8968e-09 -2.67243e-06 0 1.29063e-09 -1.22911e-09 0 0 0 0)
(2.33282e-09 6.33649e-07 0 -5.12421e-10 2.82561e-10 0 0 0 0)
(-8.33399e-10 -1.50277e-07 0 1.25198e-10 -6.71572e-11 0 0 0 0)
(2.47198e-10 3.56337e-08 0 -3.60768e-11 1.13726e-11 0 0 0 0)
(-7.01208e-11 -8.44819e-09 0 1.17636e-11 -6.14056e-12 0 0 0 0)
(2.56956e-11 2.00311e-09 0 -2.98156e-12 -2.03859e-12 0 0 0 0)
(-4.52654e-12 -4.75444e-10 0 6.23416e-13 -2.39478e-12 0 0 0 0)
(3.87602e-12 1.11916e-10 0 -6.77626e-13 -1.79346e-12 0 0 0 0)
(7.86047e-13 -2.74085e-11 0 -2.98156e-13 -1.43404e-12 0 0 0 0)
(1.24683e-12 5.62307e-12 0 -4.60786e-13 -1.09776e-12 0 0 0 0)
(7.58942e-13 -2.16763e-12 0 -3.52366e-13 -8.238e-13 0 0 0 0)
(6.50521e-13 -2.27985e-13 0 -2.43945e-13 -6.22136e-13 0 0 0 0)
(5.14996e-13 -5.60384e-13 0 -1.35525e-13 -4.55632e-13 0 0 0 0)
(3.52366e-13 -3.92838e-13 0 -1.6263e-13 -3.06409e-13 0 0 0 0)
(1.6263e-13 -3.84362e-13 0 -1.0842e-13 -2.06975e-13 0 0 0 0)
(1.89735e-13 -3.30868e-13 0 0 -1.37184e-13 0 0 0 0)
(2.71051e-14 -2.64265e-13 0 2.71051e-14 -8.27699e-14 0 0 0 0)
(5.42101e-14 -2.39625e-13 0 2.71051e-14 -4.75195e-14 0 0 0 0)
(0 -2.17627e-13 0 0 -2.62473e-14 0 0 0 0)
(-9.43077e-09 -2.15825e-06 0 4.81562e-09 -5.07255e-09 0 0 0 0)
(1.14645e-08 2.66998e-06 0 -1.03333e-09 1.11711e-09 0 0 0 0)
(-2.88517e-09 -6.33099e-07 0 4.2273e-10 -2.59682e-10 0 0 0 0)
(1.06469e-09 1.50152e-07 0 -9.78221e-11 5.51447e-11 0 0 0 0)
(-2.94605e-10 -3.56035e-08 0 3.10353e-11 -1.46621e-11 0 0 0 0)
(9.16151e-11 8.44245e-09 0 -8.51099e-12 1.4713e-13 0 0 0 0)
(-2.56685e-11 -2.0019e-09 0 2.71051e-12 -2.84612e-12 0 0 0 0)
(1.0056e-11 4.74458e-10 0 -6.77626e-13 -1.9565e-12 0 0 0 0)
(-7.04731e-13 -1.12858e-10 0 2.71051e-13 -1.7453e-12 0 0 0 0)
(2.11419e-12 2.6274e-11 0 -1.35525e-13 -1.41468e-12 0 0 0 0)
(9.48677e-13 -6.75136e-12 0 -1.35525e-13 -1.12985e-12 0 0 0 0)
(9.21572e-13 1.07894e-12 0 -1.35525e-13 -8.69563e-13 0 0 0 0)
(6.77626e-13 -7.34077e-13 0 -1.35525e-13 -6.45215e-13 0 0 0 0)
(4.33681e-13 -2.34705e-13 0 -1.35525e-13 -4.80807e-13 0 0 0 0)
(3.52366e-13 -3.12805e-13 0 -1.35525e-13 -3.61286e-13 0 0 0 0)
(2.1684e-13 -2.77955e-13 0 -8.13152e-14 -2.5528e-13 0 0 0 0)
(1.89735e-13 -2.60356e-13 0 -5.42101e-14 -1.56163e-13 0 0 0 0)
(1.35525e-13 -2.16446e-13 0 -8.13152e-14 -1.07142e-13 0 0 0 0)
(2.71051e-14 -2.07167e-13 0 0 -6.25647e-14 0 0 0 0)
(5.42101e-14 -1.80041e-13 0 -2.71051e-14 -1.75144e-14 0 0 0 0)
(1.09728e-08 2.1563e-06 0 -3.46248e-09 4.82347e-09 0 0 0 0)
(-1.32896e-08 -2.66761e-06 0 7.22024e-10 -1.03999e-09 0 0 0 0)
(3.26827e-09 6.32587e-07 0 -3.01137e-10 2.37549e-10 0 0 0 0)
(-1.22507e-09 -1.50032e-07 0 6.90908e-11 -5.37817e-11 0 0 0 0)
(3.36482e-10 3.55787e-08 0 -2.02475e-11 8.37815e-12 0 0 0 0)
(-9.84998e-11 -8.43637e-09 0 6.83047e-12 -4.55373e-12 0 0 0 0)
(3.36374e-11 2.001e-09 0 -1.13841e-12 -1.77776e-12 0 0 0 0)
(-6.9931e-12 -4.74343e-10 0 8.94467e-13 -1.99333e-12 0 0 0 0)
(4.36391e-12 1.12458e-10 0 1.35525e-13 -1.62623e-12 0 0 0 0)
(4.87891e-13 -2.67931e-11 0 2.1684e-13 -1.33066e-12 0 0 0 0)
(1.24683e-12 6.16819e-12 0 8.13152e-14 -1.05472e-12 0 0 0 0)
(7.58942e-13 -1.68299e-12 0 8.13152e-14 -8.21504e-13 0 0 0 0)
(6.50521e-13 1.60771e-13 0 5.42101e-14 -6.2619e-13 0 0 0 0)
(4.60786e-13 -2.76455e-13 0 0 -4.84056e-13 0 0 0 0)
(3.79471e-13 -1.67311e-13 0 5.42101e-14 -3.77234e-13 0 0 0 0)
(2.71051e-13 -1.79239e-13 0 -5.42101e-14 -2.7145e-13 0 0 0 0)
(1.89735e-13 -1.8273e-13 0 5.42101e-14 -1.78797e-13 0 0 0 0)
(1.35525e-13 -1.70666e-13 0 -5.42101e-14 -1.12939e-13 0 0 0 0)
(8.13152e-14 -1.49997e-13 0 0 -6.29197e-14 0 0 0 0)
(0 -1.37548e-13 0 0 -7.94778e-15 0 0 0 0)
(-1.21713e-08 -2.15447e-06 0 2.09061e-09 -4.53028e-09 0 0 0 0)
(1.46259e-08 2.6654e-06 0 -4.07958e-10 9.62962e-10 0 0 0 0)
(-3.53813e-09 -6.32112e-07 0 1.79327e-10 -2.23199e-10 0 0 0 0)
(1.34555e-09 1.49923e-07 0 -3.77031e-11 4.52422e-11 0 0 0 0)
(-3.56865e-10 -3.55543e-08 0 1.21702e-11 -1.19778e-11 0 0 0 0)
(1.10724e-10 8.43229e-09 0 -2.87314e-12 -3.60752e-13 0 0 0 0)
(-3.16316e-11 -1.99934e-09 0 1.46367e-12 -2.49321e-12 0 0 0 0)
(1.1357e-11 4.7461e-10 0 2.71051e-13 -1.81629e-12 0 0 0 0)
(-1.35525e-12 -1.12195e-10 0 4.87891e-13 -1.53873e-12 0 0 0 0)
(2.08709e-12 2.68455e-11 0 2.71051e-13 -1.23168e-12 0 0 0 0)
(7.58942e-13 -6.2422e-12 0 2.71051e-13 -9.65508e-13 0 0 0 0)
(8.67362e-13 1.50747e-12 0 1.35525e-13 -7.68657e-13 0 0 0 0)
(5.42101e-13 -3.9663e-13 0 1.35525e-13 -5.89323e-13 0 0 0 0)
(4.33681e-13 1.42509e-14 0 0 -4.54806e-13 0 0 0 0)
(3.52366e-13 -1.00199e-13 0 2.71051e-14 -3.52931e-13 0 0 0 0)
(3.25261e-13 -7.95181e-14 0 0 -2.69611e-13 0 0 0 0)
(1.6263e-13 -1.01845e-13 0 0 -1.91353e-13 0 0 0 0)
(1.0842e-13 -1.00568e-13 0 5.42101e-14 -1.09359e-13 0 0 0 0)
(8.13152e-14 -1.02176e-13 0 0 -5.65976e-14 0 0 0 0)
(0 -1.09173e-13 0 0 -1.83535e-14 0 0 0 0)
(1.26554e-08 2.15273e-06 0 -7.17715e-10 4.29886e-09 0 0 0 0)
(-1.52009e-08 -2.66331e-06 0 9.24553e-11 -9.07522e-10 0 0 0 0)
(3.63861e-09 6.31669e-07 0 -5.62701e-11 2.06121e-10 0 0 0 0)
(-1.39222e-09 -1.49821e-07 0 7.10152e-12 -4.6626e-11 0 0 0 0)
(3.71285e-10 3.55331e-08 0 -1.76183e-12 6.12635e-12 0 0 0 0)
(-1.09179e-10 -8.42689e-09 0 1.35525e-12 -4.23163e-12 0 0 0 0)
(3.67545e-11 1.99955e-09 0 7.31836e-13 -1.8433e-12 0 0 0 0)
(-7.99599e-12 -4.73388e-10 0 8.67362e-13 -1.8088e-12 0 0 0 0)
(4.39102e-12 1.13043e-10 0 6.77626e-13 -1.42119e-12 0 0 0 0)
(2.71051e-13 -2.62199e-11 0 5.69206e-13 -1.12241e-12 0 0 0 0)
(1.11131e-12 6.63122e-12 0 4.87891e-13 -8.93854e-13 0 0 0 0)
(6.23416e-13 -1.30681e-12 0 3.52366e-13 -6.94767e-13 0 0 0 0)
(5.42101e-13 4.74622e-13 0 2.1684e-13 -5.35806e-13 0 0 0 0)
(3.52366e-13 -4.00629e-14 0 2.1684e-13 -4.06091e-13 0 0 0 0)
(3.52366e-13 1.78835e-14 0 1.35525e-13 -3.15292e-13 0 0 0 0)
(2.71051e-13 -1.76612e-14 0 1.35525e-13 -2.30316e-13 0 0 0 0)
(1.6263e-13 -2.24776e-14 0 0 -1.68559e-13 0 0 0 0)
(1.0842e-13 -3.59106e-14 0 8.13152e-14 -1.15577e-13 0 0 0 0)
(2.71051e-14 -5.89919e-14 0 0 -6.47671e-14 0 0 0 0)
(5.42101e-14 -6.25965e-14 0 0 -2.65376e-14 0 0 0 0)
(-1.27964e-08 -2.15108e-06 0 -6.88252e-10 -4.00301e-09 0 0 0 0)
(1.52873e-08 2.6613e-06 0 2.25297e-10 8.45849e-10 0 0 0 0)
(-3.62351e-09 -6.31252e-07 0 -7.28313e-11 -1.98749e-10 0 0 0 0)
(1.40003e-09 1.49723e-07 0 2.39067e-11 3.80186e-11 0 0 0 0)
(-3.62557e-10 -3.55119e-08 0 -6.9931e-12 -1.17311e-11 0 0 0 0)
(1.13299e-10 8.42432e-09 0 3.38813e-12 -1.02708e-12 0 0 0 0)
(-3.21466e-11 -1.99691e-09 0 4.60786e-13 -2.46817e-12 0 0 0 0)
(1.12215e-11 4.75032e-10 0 1.38236e-12 -1.63213e-12 0 0 0 0)
(-1.6263e-12 -1.11509e-10 0 9.21572e-13 -1.29783e-12 0 0 0 0)
(1.84314e-12 2.73729e-11 0 8.40257e-13 -9.89078e-13 0 0 0 0)
(5.96311e-13 -5.81456e-12 0 6.77626e-13 -7.53212e-13 0 0 0 0)
(6.23416e-13 1.86551e-12 0 5.42101e-13 -5.61389e-13 0 0 0 0)
(3.79471e-13 -1.07954e-13 0 3.25261e-13 -4.39841e-13 0 0 0 0)
(3.52366e-13 2.34765e-13 0 2.1684e-13 -3.39265e-13 0 0 0 0)
(2.71051e-13 7.55768e-14 0 1.89735e-13 -2.38857e-13 0 0 0 0)
(1.89735e-13 6.72147e-14 0 1.0842e-13 -1.55765e-13 0 0 0 0)
(8.13152e-14 1.28937e-14 0 2.71051e-14 -1.27514e-13 0 0 0 0)
(8.13152e-14 3.22403e-15 0 -2.71051e-14 -9.40687e-14 0 0 0 0)
(5.42101e-14 -1.31365e-14 0 0 -5.87201e-14 0 0 0 0)
(0 -1.78685e-14 0 0 -1.93904e-14 0 0 0 0)
(1.21924e-08 2.14958e-06 0 1.79126e-09 3.768e-09 0 0 0 0)
(-1.45855e-08 -2.6595e-06 0 -4.86156e-10 -8.06414e-10 0 0 0 0)
(3.43725e-09 6.30861e-07 0 1.69271e-10 1.79375e-10 0 0 0 0)
(-1.32636e-09 -1.49634e-07 0 -4.94938e-11 -4.46059e-11 0 0 0 0)
(3.50712e-10 3.5494e-08 0 1.61275e-11 3.62559e-12 0 0 0 0)
(-1.01807e-10 -8.41763e-09 0 -3.06287e-12 -4.78398e-12 0 0 0 0)
(3.48029e-11 1.99894e-09 0 3.14419e-12 -1.98662e-12 0 0 0 0)
(-7.5081e-12 -4.72218e-10 0 1.16552e-12 -1.57275e-12 0 0 0 0)
(3.87602e-12 1.13686e-10 0 1.43657e-12 -1.0962e-12 0 0 0 0)
(-5.42101e-14 -2.56752e-11 0 9.75782e-13 -7.545e-13 0 0 0 0)
(8.13152e-13 7.05891e-12 0 7.04731e-13 -5.23935e-13 0 0 0 0)
(2.98156e-13 -9.93438e-13 0 5.14996e-13 -3.87587e-13 0 0 0 0)
(3.25261e-13 6.96745e-13 0 3.79471e-13 -2.92722e-13 0 0 0 0)
(2.1684e-13 1.60922e-13 0 2.71051e-13 -2.28752e-13 0 0 0 0)
(1.89735e-13 2.01383e-13 0 1.6263e-13 -1.54505e-13 0 0 0 0)
(8.13152e-14 9.36819e-14 0 1.0842e-13 -1.30043e-13 0 0 0 0)
(8.13152e-14 3.92191e-14 0 1.0842e-13 -9.49521e-14 0 0 0 0)
(5.42101e-14 3.28829e-14 0 0 -5.18995e-14 0 0 0 0)
(2.71051e-14 1.56864e-14 0 5.42101e-14 -3.93313e-14 0 0 0 0)
(5.42101e-14 1.5514e-14 0 0 -1.7375e-14 0 0 0 0)
(-1.14914e-08 -2.14812e-06 0 -3.07903e-09 -3.40935e-09 0 0 0 0)
(1.36653e-08 2.65771e-06 0 7.71464e-10 7.376e-10 0 0 0 0)
(-3.18693e-09 -6.3049e-07 0 -2.89428e-10 -1.85e-10 0 0 0 0)
(1.24691e-09 1.49547e-07 0 7.92281e-11 3.06504e-11 0 0 0 0)
(-3.16099e-10 -3.5472e-08 0 -2.16569e-11 -1.43366e-11 0 0 0 0)
(1.00289e-10 8.41871e-09 0 1.0571e-11 -1.51752e-12 0 0 0 0)
(-2.79453e-11 -1.9937e-09 0 5.42101e-13 -2.45379e-12 0 0 0 0)
(9.59519e-12 4.75922e-10 0 2.84603e-12 -1.06065e-12 0 0 0 0)
(-1.81604e-12 -1.10691e-10 0 1.46367e-12 -6.98897e-13 0 0 0 0)
(1.19262e-12 2.79451e-11 0 1.30104e-12 -4.0692e-13 0 0 0 0)
(5.42101e-14 -5.44765e-12 0 8.94467e-13 -2.70301e-13 0 0 0 0)
(2.1684e-13 2.09673e-12 0 6.23416e-13 -1.89452e-13 0 0 0 0)
(1.35525e-13 5.08814e-14 0 4.87891e-13 -1.3667e-13 0 0 0 0)
(1.35525e-13 3.72981e-13 0 2.98156e-13 -1.06007e-13 0 0 0 0)
(1.0842e-13 1.74286e-13 0 1.89735e-13 -9.91376e-14 0 0 0 0)
(1.0842e-13 1.26768e-13 0 1.0842e-13 -9.51379e-14 0 0 0 0)
(8.13152e-14 9.10367e-14 0 2.71051e-14 -5.57946e-14 0 0 0 0)
(0 5.88449e-14 0 8.13152e-14 -3.17972e-14 0 0 0 0)
(2.71051e-14 2.13879e-14 0 5.42101e-14 -1.23398e-14 0 0 0 0)
(-2.71051e-14 3.88378e-14 0 0 -1.06948e-15 0 0 0 0)
(9.88486e-09 2.14691e-06 0 3.44896e-09 3.14193e-09 0 0 0 0)
(-1.17959e-08 -2.65628e-06 0 -8.84601e-10 -7.05602e-10 0 0 0 0)
(2.74504e-09 6.30154e-07 0 3.23905e-10 1.22587e-10 0 0 0 0)
(-1.05862e-09 -1.49463e-07 0 -8.34836e-11 -4.29528e-11 0 0 0 0)
(2.82028e-10 3.54619e-08 0 3.24448e-11 -1.93571e-12 0 0 0 0)
(-7.95262e-11 -8.40574e-09 0 -2.54788e-12 -3.26802e-12 0 0 0 0)
(2.71051e-11 1.9994e-09 0 6.28837e-12 -1.16799e-12 0 0 0 0)
(-6.64074e-12 -4.70463e-10 0 2.27682e-12 -2.03211e-13 0 0 0 0)
(2.24972e-12 1.1434e-10 0 2.22261e-12 -6.05548e-14 0 0 0 0)
(-6.50521e-13 -2.52466e-11 0 1.38236e-12 6.9643e-14 0 0 0 0)
(1.89735e-13 7.27637e-12 0 9.48677e-13 3.08168e-14 0 0 0 0)
(-8.13152e-14 -8.59808e-13 0 6.77626e-13 4.83441e-14 0 0 0 0)
(-2.71051e-14 7.80191e-13 0 4.87891e-13 3.15912e-14 0 0 0 0)
(-8.13152e-14 1.98454e-13 0 3.79471e-13 3.2813e-14 0 0 0 0)
(5.42101e-14 2.12252e-13 0 2.1684e-13 4.43056e-15 0 0 0 0)
(-5.42101e-14 1.37025e-13 0 1.0842e-13 4.9636e-15 0 0 0 0)
(0 1.0256e-13 0 5.42101e-14 -4.02346e-15 0 0 0 0)
(8.13152e-14 7.63377e-14 0 -5.42101e-14 -1.63235e-14 0 0 0 0)
(0 4.64141e-14 0 -5.42101e-14 -2.8181e-15 0 0 0 0)
(-2.71051e-14 2.89233e-14 0 0 1.07336e-14 0 0 0 0)
(-8.927e-09 -2.14568e-06 0 -4.67522e-09 -2.48442e-09 0 0 0 0)
(1.05403e-08 2.6547e-06 0 1.08989e-09 5.03484e-10 0 0 0 0)
(-2.38581e-09 -6.29827e-07 0 -4.20806e-10 -2.25783e-10 0 0 0 0)
(9.5548e-10 1.49422e-07 0 1.43901e-10 5.17605e-11 0 0 0 0)
(-2.35163e-10 -3.54324e-08 0 -2.69424e-11 -2.41099e-11 0 0 0 0)
(7.41594e-11 8.41948e-09 0 2.20635e-11 7.58583e-12 0 0 0 0)
(-2.31206e-11 -1.99064e-09 0 1.13841e-12 -1.35105e-12 0 0 0 0)
(5.50233e-12 4.7703e-10 0 4.63496e-12 1.84659e-12 0 0 0 0)
(-2.73761e-12 -1.10418e-10 0 1.68051e-12 6.21926e-13 0 0 0 0)
(-2.71051e-14 2.80365e-11 0 1.49078e-12 7.19786e-13 0 0 0 0)
(-6.50521e-13 -5.46895e-12 0 8.13152e-13 4.21259e-13 0 0 0 0)
(-2.43945e-13 2.0975e-12 0 5.96311e-13 2.98771e-13 0 0 0 0)
(-2.1684e-13 3.53502e-14 0 3.52366e-13 2.0375e-13 0 0 0 0)
(-1.0842e-13 3.45821e-13 0 2.43945e-13 1.51842e-13 0 0 0 0)
(-1.35525e-13 1.46437e-13 0 1.6263e-13 1.10321e-13 0 0 0 0)
(-1.35525e-13 1.18314e-13 0 1.0842e-13 7.8244e-14 0 0 0 0)
(-2.71051e-14 6.97496e-14 0 8.13152e-14 4.1036e-14 0 0 0 0)
(-2.71051e-14 6.00503e-14 0 1.0842e-13 2.32582e-14 0 0 0 0)
(0 4.8445e-14 0 0 -5.95459e-15 0 0 0 0)
(0 3.09224e-14 0 0 -1.61375e-15 0 0 0 0)
(6.29954e-09 2.14492e-06 0 2.93943e-09 1.75295e-09 0 0 0 0)
(-7.54152e-09 -2.65402e-06 0 1.07496e-09 6.67059e-11 0 0 0 0)
(1.79902e-09 6.29703e-07 0 -5.3172e-10 -1.14275e-10 0 0 0 0)
(-6.64724e-10 -1.49261e-07 0 3.26128e-10 7.49503e-11 0 0 0 0)
(1.60164e-10 3.54177e-08 0 -8.80643e-11 -1.85806e-11 0 0 0 0)
(-5.14454e-11 -8.38298e-09 0 4.44252e-11 1.49584e-11 0 0 0 0)
(9.70361e-12 1.99366e-09 0 -6.85758e-12 8.7714e-13 0 0 0 0)
(-6.04443e-12 -4.6849e-10 0 6.28837e-12 3.60411e-12 0 0 0 0)
(-8.94467e-13 1.13213e-10 0 4.60786e-13 1.46611e-12 0 0 0 0)
(-1.49078e-12 -2.54473e-11 0 1.24683e-12 1.27035e-12 0 0 0 0)
(-7.58942e-13 6.85536e-12 0 5.14996e-13 7.66781e-13 0 0 0 0)
(-5.42101e-13 -1.07732e-12 0 4.06576e-13 5.20805e-13 0 0 0 0)
(-3.79471e-13 6.33261e-13 0 1.89735e-13 3.43658e-13 0 0 0 0)
(-2.1684e-13 1.05026e-13 0 1.0842e-13 2.20023e-13 0 0 0 0)
(-1.6263e-13 1.38655e-13 0 2.71051e-14 1.46368e-13 0 0 0 0)
(-1.0842e-13 6.77398e-14 0 8.13152e-14 9.69408e-14 0 0 0 0)
(-5.42101e-14 4.7574e-14 0 5.42101e-14 6.28733e-14 0 0 0 0)
(-2.71051e-14 2.93471e-14 0 0 4.37321e-14 0 0 0 0)
(-5.42101e-14 2.15422e-14 0 5.42101e-14 1.32123e-14 0 0 0 0)
(0 3.64917e-14 0 2.71051e-14 7.1668e-16 0 0 0 0)
(-4.91255e-09 -2.14386e-06 0 3.69117e-10 -8.66611e-10 0 0 0 0)
(7.06911e-09 2.65283e-06 0 -1.75608e-09 -1.97562e-10 0 0 0 0)
(-3.13462e-09 -6.29819e-07 0 8.41558e-10 3.24942e-10 0 0 0 0)
(1.39905e-09 1.49518e-07 0 -4.20508e-10 -8.12568e-11 0 0 0 0)
(-5.16785e-10 -3.54924e-08 0 1.072e-10 6.79991e-11 0 0 0 0)
(1.55312e-10 8.43894e-09 0 -6.38595e-11 -6.59378e-12 0 0 0 0)
(-6.13116e-11 -2.00199e-09 0 3.33392e-12 1.20466e-11 0 0 0 0)
(1.28207e-11 4.77619e-10 0 -1.22786e-11 1.73733e-12 0 0 0 0)
(-7.75205e-12 -1.12752e-10 0 -3.44234e-12 2.91799e-12 0 0 0 0)
(0 2.73372e-11 0 -3.63208e-12 1.27605e-12 0 0 0 0)
(-1.49078e-12 -6.21849e-12 0 -1.92446e-12 1.02814e-12 0 0 0 0)
(-5.14996e-13 1.67438e-12 0 -1.40946e-12 6.39184e-13 0 0 0 0)
(-4.87891e-13 -2.65432e-13 0 -8.40257e-13 4.31078e-13 0 0 0 0)
(-2.98156e-13 1.48531e-13 0 -5.42101e-13 2.71355e-13 0 0 0 0)
(-1.89735e-13 2.33546e-14 0 -3.25261e-13 1.77522e-13 0 0 0 0)
(-1.0842e-13 3.48195e-14 0 -2.1684e-13 1.09346e-13 0 0 0 0)
(-1.0842e-13 1.65409e-14 0 -1.35525e-13 7.49625e-14 0 0 0 0)
(-2.71051e-14 1.03893e-14 0 -5.42101e-14 4.52307e-14 0 0 0 0)
(-2.71051e-14 5.42966e-15 0 -5.42101e-14 3.52261e-14 0 0 0 0)
(-2.71051e-14 1.69934e-14 0 -2.71051e-14 1.82589e-14 0 0 0 0)
)
;

boundaryField
{
    movingWall
    {
        type            extrapolatedCalculated;
        value           nonuniform List<tensor> 
20
(
(-4.91255e-09 -2.14386e-06 0 3.45413e-08 1.12452e-05 0 0 0 0)
(7.06911e-09 2.65283e-06 0 -1.48912e-08 -2.66973e-06 0 0 0 0)
(-3.13462e-09 -6.29819e-07 0 6.26486e-09 6.33856e-07 0 0 0 0)
(1.39905e-09 1.49518e-07 0 -2.35256e-09 -1.50454e-07 0 0 0 0)
(-5.16785e-10 -3.54924e-08 0 6.68532e-10 3.57831e-08 0 0 0 0)
(1.55312e-10 8.43894e-09 0 -2.85283e-10 -8.4847e-09 0 0 0 0)
(-6.13116e-11 -2.00199e-09 0 4.71623e-11 2.02734e-09 0 0 0 0)
(1.28207e-11 4.77619e-10 0 -4.01013e-11 -4.76734e-10 0 0 0 0)
(-7.75205e-12 -1.12752e-10 0 -4.08562e-12 1.16863e-10 0 0 0 0)
(0 2.73372e-11 0 -9.10383e-12 -2.57279e-11 0 0 0 0)
(-1.49078e-12 -6.21849e-12 0 -3.9968e-12 7.51396e-12 0 0 0 0)
(-5.14996e-13 1.67438e-12 0 -3.19744e-12 -8.53944e-13 0 0 0 0)
(-4.87891e-13 -2.65432e-13 0 -1.82077e-12 8.16447e-13 0 0 0 0)
(-2.98156e-13 1.48531e-13 0 -1.28786e-12 2.07785e-13 0 0 0 0)
(-1.89735e-13 2.33546e-14 0 -7.10543e-13 2.22324e-13 0 0 0 0)
(-1.0842e-13 3.48195e-14 0 -4.88498e-13 1.14367e-13 0 0 0 0)
(-1.0842e-13 1.65409e-14 0 -3.10862e-13 8.30459e-14 0 0 0 0)
(-2.71051e-14 1.03893e-14 0 -8.88178e-14 4.82033e-14 0 0 0 0)
(-2.71051e-14 5.42966e-15 0 -8.88178e-14 4.14888e-14 0 0 0 0)
(-2.71051e-14 1.69934e-14 0 -4.44089e-14 2.64847e-14 0 0 0 0)
)
;
    }
    fixedWalls
    {
        type            extrapolatedCalculated;
        value           nonuniform List<tensor> 
60
(
(-1.89044e-08 1.14687e-05 0 1.14261e-09 1.28062e-09 0 0 0 0)
(2.3475e-08 -1.14636e-05 0 -7.29001e-09 -7.84531e-09 0 0 0 0)
(-4.80645e-08 1.14374e-05 0 3.45825e-09 1.26686e-08 0 0 0 0)
(3.73079e-08 -1.14129e-05 0 5.78972e-09 -1.29057e-08 0 0 0 0)
(-2.49057e-08 1.13857e-05 0 -8.29694e-09 1.17054e-08 0 0 0 0)
(4.12022e-09 -1.13661e-05 0 9.01156e-09 -9.01137e-09 0 0 0 0)
(1.11406e-08 1.13497e-05 0 -7.75383e-09 7.03873e-09 0 0 0 0)
(-2.68951e-08 -1.1338e-05 0 7.01731e-09 -5.76327e-09 0 0 0 0)
(3.92098e-08 1.13266e-05 0 -5.91099e-09 5.41336e-09 0 0 0 0)
(-5.05391e-08 -1.13163e-05 0 4.81562e-09 -5.07255e-09 0 0 0 0)
(5.84723e-08 1.13063e-05 0 -3.46248e-09 4.82347e-09 0 0 0 0)
(-6.43891e-08 -1.1297e-05 0 2.09061e-09 -4.53028e-09 0 0 0 0)
(6.68349e-08 1.12882e-05 0 -7.17715e-10 4.29886e-09 0 0 0 0)
(-6.72599e-08 -1.12798e-05 0 -6.88252e-10 -4.00301e-09 0 0 0 0)
(6.40819e-08 1.12722e-05 0 1.79126e-09 3.768e-09 0 0 0 0)
(-6.0095e-08 -1.12647e-05 0 -3.07903e-09 -3.40935e-09 0 0 0 0)
(5.17657e-08 1.12586e-05 0 3.44896e-09 3.14193e-09 0 0 0 0)
(-4.62991e-08 -1.12522e-05 0 -4.67522e-09 -2.48442e-09 0 0 0 0)
(3.30649e-08 1.12486e-05 0 2.93943e-09 1.75295e-09 0 0 0 0)
(-3.45413e-08 -1.12452e-05 0 3.69117e-10 -8.66611e-10 0 0 0 0)
(8.88178e-14 -4.51215e-14 0 -5.42101e-14 4.24645e-14 0 0 0 0)
(8.88178e-14 -1.24736e-13 0 5.42101e-14 2.5229e-14 0 0 0 0)
(0 -1.46038e-13 0 0 8.1442e-15 0 0 0 0)
(0 -1.57313e-13 0 0 1.5049e-14 0 0 0 0)
(0 -2.06234e-13 0 0 2.45559e-14 0 0 0 0)
(-4.44089e-14 -2.55537e-13 0 2.71051e-14 1.54492e-14 0 0 0 0)
(0 -2.6803e-13 0 -2.71051e-14 -3.84794e-15 0 0 0 0)
(-4.44089e-14 -2.40145e-13 0 2.71051e-14 -2.07038e-14 0 0 0 0)
(-4.44089e-14 -1.85215e-13 0 0 -2.62473e-14 0 0 0 0)
(0 -1.35156e-13 0 -2.71051e-14 -1.75144e-14 0 0 0 0)
(-4.44089e-14 -1.15158e-13 0 0 -7.94778e-15 0 0 0 0)
(0 -1.03365e-13 0 0 -1.83535e-14 0 0 0 0)
(8.88178e-14 -4.17436e-14 0 0 -2.65376e-14 0 0 0 0)
(-8.88178e-14 2.78551e-15 0 0 -1.93904e-14 0 0 0 0)
(8.88178e-14 3.58181e-14 0 0 -1.7375e-14 0 0 0 0)
(-4.44089e-14 7.22857e-14 0 0 -1.06948e-15 0 0 0 0)
(0 4.0096e-14 0 0 1.07336e-14 0 0 0 0)
(0 2.93514e-14 0 0 -1.61375e-15 0 0 0 0)
(0 4.6551e-14 0 2.71051e-14 7.1668e-16 0 0 0 0)
(-4.44089e-14 2.64847e-14 0 -2.71051e-14 1.82589e-14 0 0 0 0)
(-1.77085e-09 2.18644e-06 0 -1.89044e-08 1.14687e-05 0 0 0 0)
(3.57602e-09 -2.70543e-06 0 1.18211e-08 -2.72298e-06 0 0 0 0)
(-2.39785e-09 6.42371e-07 0 -4.6005e-09 6.47031e-07 0 0 0 0)
(1.03633e-09 -1.52618e-07 0 2.22968e-09 -1.53492e-07 0 0 0 0)
(-4.77103e-10 3.62117e-08 0 -4.55103e-10 3.656e-08 0 0 0 0)
(1.14139e-10 -8.62058e-09 0 3.21343e-10 -8.64531e-09 0 0 0 0)
(-6.41848e-11 2.04103e-09 0 1.42109e-12 2.07765e-09 0 0 0 0)
(5.44812e-12 -4.88786e-10 0 6.45262e-11 -4.81185e-10 0 0 0 0)
(-1.06252e-11 1.14323e-10 0 2.32703e-11 1.22509e-10 0 0 0 0)
(-2.52077e-12 -2.83092e-11 0 2.20268e-11 -2.38921e-11 0 0 0 0)
(-3.08998e-12 6.04109e-12 0 1.31894e-11 9.27195e-12 0 0 0 0)
(-1.70762e-12 -1.90014e-12 0 9.68114e-12 2.72287e-13 0 0 0 0)
(-1.38236e-12 1.31738e-13 0 6.39488e-12 1.6714e-12 0 0 0 0)
(-8.94467e-13 -2.51991e-13 0 4.21885e-12 7.99238e-13 0 0 0 0)
(-6.23416e-13 -8.27901e-14 0 2.75335e-12 6.63434e-13 0 0 0 0)
(-4.87891e-13 -8.85399e-14 0 1.64313e-12 4.68078e-13 0 0 0 0)
(-3.25261e-13 -7.25589e-14 0 7.99361e-13 3.09274e-13 0 0 0 0)
(-1.35525e-13 -5.03062e-14 0 4.44089e-13 1.77842e-13 0 0 0 0)
(-1.6263e-13 -3.31801e-14 0 1.33227e-13 1.08049e-13 0 0 0 0)