/*--------------------------------*- C++ -*----------------------------------*\
| =========                 |                                                 |
| \\      /  F ield         | OpenFOAM: The Open Source CFD Toolbox           |
|  \\    /   O peration     | Version:  2312                                  |
|   \\  /    A nd           | Website:  www.openfoam.com                      |
|    \\/     M anipulation  |                                                 |
\*---------------------------------------------------------------------------*/
FoamFile
{
    version     2.0;
    format      ascii;
    arch        "LSB;label=32;scalar=64";
    class       volScalarField;
    location    "4.25";
    object      Lambda2Field;
}
// * * * * * * * * * * * * * * * * * * * * * * * * * * * * * * * * * * * * * //

dimensions      [0 0 -2 0 0 0 0];

internalField   nonuniform List<scalar> 
400
(
2.50139e-15
-4.74484e-15
0
-7.55049e-17
0
-7.91935e-19
3.08957e-20
-1.21021e-20
1.47324e-21
-2.66845e-22
4.49963e-23
-5.44311e-24
2.31441e-24
2.69131e-25
2.7869e-25
1.4022e-25
7.43271e-26
7.45868e-27
1.23204e-26
2.07585e-27
1.59514e-14
-1.96351e-15
0
-5.89983e-17
0
-5.12029e-19
0
-4.64809e-21
2.54996e-22
-4.88993e-23
1.30889e-23
1.89991e-24
1.74043e-24
7.53498e-25
3.79797e-25
1.84649e-25
9.42344e-26
3.99983e-26
1.51325e-26
-5.57976e-27
7.63789e-15
1.14786e-15
1.35122e-16
1.10419e-17
0
1.9304e-19
0
3.59256e-21
0
8.38562e-23
0
4.27614e-24
1.12549e-24
7.02919e-25
3.54697e-25
1.81982e-25
6.33444e-26
2.837e-26
6.61216e-27
0
0
-3.575e-15
0
-1.9235e-17
0
-1.85553e-19
1.01242e-20
-3.22874e-21
4.47276e-22
-6.80978e-23
1.62748e-23
3.32729e-25
1.52928e-24
5.99758e-25
3.11201e-25
1.2398e-25
7.72303e-26
5.01353e-26
0
2.26472e-28
0
-4.85576e-15
0
-2.34705e-17
0
-6.94029e-20
0
1.49463e-21
0
6.57953e-23
0
3.53883e-24
6.65662e-25
5.78472e-25
2.5868e-25
1.22977e-25
8.48619e-26
9.44284e-27
9.18369e-27
6.02993e-28
0
-5.17745e-15
0
-2.61699e-17
0
-1.47746e-19
0
-1.76389e-21
2.17393e-22
-4.26417e-23
1.06839e-23
-4.64775e-26
9.88121e-25
3.45404e-25
2.60668e-25
1.15012e-25
4.81929e-26
9.41689e-27
7.99836e-27
-6.72819e-27
0
-4.57027e-15
0
-2.47726e-17
0
-1.15102e-19
0
1.94586e-22
0
3.46066e-23
0
2.10003e-24
4.69971e-25
3.35577e-25
1.39177e-25
1.07347e-25
6.35392e-26
3.5455e-26
2.59341e-26
7.53785e-27
0
-4.08933e-15
0
-2.14548e-17
0
-1.06354e-19
0
-8.01515e-22
6.17747e-23
-2.0562e-23
5.2391e-24
1.53236e-25
6.30593e-25
3.02171e-25
1.49561e-25
1.8733e-26
1.70357e-26
4.07964e-27
7.34684e-28
-3.94073e-27
0
-3.36997e-15
0
-1.81198e-17
0
-9.44641e-20
0
-2.7591e-22
0
8.78987e-24
0
1.33979e-24
4.42733e-25
2.83547e-25
1.71023e-25
6.81212e-26
3.59995e-26
-3.12052e-28
0
0
0
-2.62753e-15
0
-1.35546e-17
0
-6.34603e-20
0
-2.20383e-22
0
0
1.81497e-24
6.09916e-25
5.58663e-25
2.19888e-25
1.66555e-25
6.96218e-26
4.91249e-26
2.90796e-26
7.34684e-28
5.18676e-27
0
-1.74947e-15
0
-8.86503e-18
0
-4.79222e-20
0
-3.7538e-22
3.42847e-23
-4.03916e-24
2.05616e-24
4.39139e-25
4.03668e-25
2.12324e-25
1.34928e-25
8.31849e-26
2.60937e-26
2.2007e-26
6.61216e-27
0
0
-8.73454e-16
0
-3.84206e-18
0
-1.19673e-20
0
1.31942e-22
0
8.79353e-24
0
7.95133e-25
2.4012e-25
1.88079e-25
1.21446e-25
7.26903e-26
2.64486e-26
6.30312e-27
5.81326e-27
0
0
-1.51681e-17
0
0
7.52494e-20
0
2.81423e-21
-3.46663e-22
9.58819e-23
-1.36647e-23
4.47031e-24
0
3.96791e-25
1.15474e-25
1.05293e-25
5.06517e-26
2.64486e-26
8.83487e-27
7.34684e-28
7.04245e-28
1.64423e-15
6.003e-16
5.91047e-17
3.58082e-18
3.79786e-19
2.85438e-20
1.13254e-22
6.59328e-22
0
2.39785e-23
0
1.32645e-24
1.08885e-25
1.66007e-25
7.46502e-26
3.15503e-26
6.96164e-27
6.52477e-27
2.93874e-27
0
3.99912e-15
1.29358e-15
1.18601e-16
7.40793e-18
6.95429e-19
2.5805e-20
7.49629e-21
-4.94007e-22
1.78341e-22
-2.44842e-23
5.63585e-24
-3.61393e-25
3.70189e-25
9.06376e-26
5.69984e-26
1.67692e-26
1.08643e-26
2.69356e-27
1.58504e-27
3.01892e-28
6.74616e-15
2.05088e-15
1.92638e-16
1.18493e-17
8.68135e-19
8.89963e-20
0
1.35561e-21
0
3.65234e-23
0
1.34303e-24
4.31917e-26
1.22444e-25
4.29562e-26
2.27954e-26
6.6024e-27
4.78498e-27
1.58104e-27
1.1438e-30
7.50229e-15
2.35024e-15
2.11646e-16
1.24795e-17
1.23009e-18
2.14275e-20
1.33077e-20
-1.02706e-21
2.59194e-22
-3.44767e-23
6.93893e-24
-5.76017e-25
3.81383e-25
7.63843e-26
4.60498e-26
1.48809e-26
5.55978e-27
0
0
1.1521e-28
1.01112e-14
2.89359e-15
2.70727e-16
2.15047e-17
1.00994e-18
1.85821e-19
0
2.21443e-21
0
4.17969e-23
0
1.31027e-24
5.9476e-26
9.61163e-26
3.60514e-26
1.89497e-26
6.40638e-27
7.05161e-27
0
0
6.34455e-15
-2.79609e-15
0
-4.82364e-17
0
-3.69769e-19
0
-2.90951e-21
5.29669e-23
-2.95061e-23
4.10648e-24
-1.44138e-25
2.6415e-25
5.84067e-26
2.82926e-26
1.49058e-26
5.51773e-27
7.34684e-28
1.60917e-27
9.89109e-28
0
-4.60861e-15
0
-6.09162e-17
0
-5.14785e-19
0
-5.70011e-21
4.48224e-22
-9.76624e-23
1.41896e-23
-1.95142e-24
4.61069e-25
0
2.84032e-26
4.20467e-27
9.1587e-27
1.7148e-28
4.40342e-28
0
)
;

boundaryField
{
    movingWall
    {
        type            calculated;
        value           nonuniform List<scalar> 
20
(
0
0
0
0
0
0
0
0
5.20754e-22
0
2.70765e-23
-4.62451e-24
7.21328e-25
-1.0239e-25
1.94051e-26
-3.92949e-27
6.613e-27
0
2.52434e-28
-1.99729e-29
)
;
    }
    fixedWalls
    {
        type            calculated;
        value           nonuniform List<scalar> 
60
(
1.34617e-14
8.36314e-14
4.18635e-14
-6.46859e-14
0
-1.02345e-13
0
-7.88386e-14
0
-5.19408e-14
0
-1.94717e-14
0
7.77938e-15
2.4298e-14
3.46961e-14
4.151e-14
5.26125e-14
3.41579e-14
-2.95767e-15
4.26993e-27
0
0
0
0
-4.95419e-27
7.26498e-27
-4.53699e-27
1.97215e-27
3.66341e-27
1.97215e-27
0
1.13988e-27
3.75988e-28
6.22626e-28
1.1438e-30
0
0
1.26177e-27
0
0
0
0
0
0
0
7.02017e-21
0
2.77323e-21
-5.27316e-23
8.92266e-23
-1.54796e-23
2.75336e-24
-2.6304e-25
1.60697e-25
7.36141e-26
4.77938e-26
0
1.4177e-26
3.40108e-27
)
;
    }
    frontAndBack
    {
        type            empty;
    }
}


// ************************************************************************* //
