/*--------------------------------*- C++ -*----------------------------------*\
| =========                 |                                                 |
| \\      /  F ield         | OpenFOAM: The Open Source CFD Toolbox           |
|  \\    /   O peration     | Version:  2312                                  |
|   \\  /    A nd           | Website:  www.openfoam.com                      |
|    \\/     M anipulation  |                                                 |
\*---------------------------------------------------------------------------*/
FoamFile
{
    version     2.0;
    format      ascii;
    arch        "LSB;label=32;scalar=64";
    class       volVectorField;
    location    "4.25";
    object      LambVectorField;
}
// * * * * * * * * * * * * * * * * * * * * * * * * * * * * * * * * * * * * * //

dimensions      [0 1 -2 0 0 0 0];

internalField   nonuniform List<vector> 
400
(
(-6.26565e-14 -2.1853e-06 -2.1853e-06)
(-1.8429e-14 2.70718e-06 -0)
(-1.04024e-15 -6.43086e-07 -6.43086e-07)
(-5.87566e-17 1.5312e-07 -0)
(-3.3164e-18 -3.62845e-08 -3.62845e-08)
(-1.88337e-19 8.71395e-09 -0)
(-1.05333e-20 -2.02791e-09 -2.02791e-09)
(-6.17891e-22 5.13641e-10 -0)
(-3.13696e-23 -1.02424e-10 -1.02424e-10)
(-2.28023e-24 3.81754e-11 -0)
(6.36036e-27 2.74391e-13 2.74391e-13)
(4.37476e-27 6.42668e-12 0)
(1.22477e-26 2.93113e-12 2.93113e-12)
(4.56539e-27 2.28487e-12 0)
(2.34016e-27 1.41094e-12 1.41094e-12)
(1.02344e-27 8.74587e-13 0)
(3.91417e-28 5.0624e-13 5.0624e-13)
(1.18775e-28 2.67147e-13 0)
(2.36061e-29 8.73903e-14 8.73903e-14)
(-1.79554e-30 -1.59174e-14 0)
(-6.24146e-14 2.17783e-06 2.17783e-06)
(-1.84174e-14 -2.70534e-06 0)
(-1.03658e-15 6.42624e-07 6.42624e-07)
(-5.85615e-17 -1.5264e-07 0)
(-3.28195e-18 3.6257e-08 3.6257e-08)
(-1.86945e-19 -8.61163e-09 0)
(-1.02347e-20 2.04591e-09 2.04591e-09)
(-6.17362e-22 -4.85579e-10 0)
(-2.84092e-23 1.15631e-10 1.15631e-10)
(-2.58685e-24 -2.72216e-11 0)
(1.99197e-26 6.76395e-12 6.76395e-12)
(-2.19426e-26 -1.28395e-12 0)
(5.00477e-27 5.91153e-13 5.91153e-13)
(9.1506e-28 1.3375e-13 0)
(8.46347e-28 1.8049e-13 1.8049e-13)
(5.3402e-28 1.56587e-13 0)
(3.92311e-28 1.69821e-13 1.69821e-13)
(1.73545e-28 1.20424e-13 0)
(7.16496e-29 8.58225e-14 8.58225e-14)
(5.26637e-29 1.6888e-13 0)
(-6.22587e-14 -2.17738e-06 -2.17738e-06)
(-1.8305e-14 2.69787e-06 -0)
(-1.03096e-15 -6.40143e-07 -6.40143e-07)
(-5.79462e-17 1.51884e-07 -0)
(-3.27788e-18 -3.60362e-08 -3.60362e-08)
(-1.82194e-19 8.55024e-09 -0)
(-1.06157e-20 -2.0284e-09 -2.0284e-09)
(-5.42568e-22 4.81518e-10 -0)
(-3.93148e-23 -1.13999e-10 -1.13999e-10)
(-7.80296e-25 2.73463e-11 -0)
(-2.73884e-25 -6.1824e-12 -6.1824e-12)
(2.99616e-26 1.8479e-12 0)
(-1.05669e-27 -6.92883e-14 -6.92883e-14)
(3.71177e-27 3.66395e-13 0)
(1.75567e-27 2.33438e-13 2.33438e-13)
(1.17493e-27 2.1934e-13 0)
(9.13924e-28 2.46927e-13 2.46927e-13)
(5.67476e-28 2.41963e-13 0)
(2.53777e-28 1.98021e-13 1.98021e-13)
(6.01186e-29 1.64666e-13 0)
(-6.22682e-14 2.18237e-06 2.18237e-06)
(-1.82299e-14 -2.69412e-06 0)
(-1.02553e-15 6.39091e-07 6.39091e-07)
(-5.77371e-17 -1.51594e-07 0)
(-3.23711e-18 3.59587e-08 3.59587e-08)
(-1.84021e-19 -8.52922e-09 0)
(-1.00154e-20 2.02342e-09 2.02342e-09)
(-6.1962e-22 -4.7964e-10 0)
(-2.52794e-23 1.14054e-10 1.14054e-10)
(-3.03307e-24 -2.67572e-11 0)
(1.14506e-25 6.65845e-12 6.65845e-12)
(-3.64579e-26 -1.29889e-12 0)
(1.05035e-26 6.21342e-13 6.21342e-13)
(1.99411e-27 1.51282e-13 0)
(2.62609e-27 2.78526e-13 2.78526e-13)
(1.88284e-27 2.73967e-13 0)
(1.14602e-27 2.39177e-13 2.39177e-13)
(6.28607e-28 2.01125e-13 0)
(5.09369e-28 3.00323e-13 3.00323e-13)
(8.21708e-29 2.08936e-13 0)
(-6.20491e-14 -2.17989e-06 -2.17989e-06)
(-1.81409e-14 2.68818e-06 -0)
(-1.02062e-15 -6.37589e-07 -6.37589e-07)
(-5.73597e-17 1.51216e-07 -0)
(-3.23292e-18 -3.58633e-08 -3.58633e-08)
(-1.80363e-19 8.50629e-09 -0)
(-1.04177e-20 -2.01701e-09 -2.01701e-09)
(-5.35305e-22 4.78814e-10 -0)
(-3.91043e-23 -1.13057e-10 -1.13057e-10)
(-5.81808e-25 2.73235e-11 -0)
(-3.01723e-25 -5.9842e-12 -5.9842e-12)
(4.09677e-26 1.86093e-12 0)
(-3.45045e-28 -1.71192e-14 -1.71192e-14)
(4.97606e-27 3.5406e-13 0)
(2.70356e-27 2.53815e-13 2.53815e-13)
(2.28616e-27 2.9608e-13 0)
(1.35986e-27 2.46241e-13 2.46241e-13)
(1.1671e-27 3.21274e-13 0)
(5.80228e-28 2.84608e-13 2.84608e-13)
(1.31694e-28 2.55427e-13 0)
(-6.1856e-14 2.17685e-06 2.17685e-06)
(-1.80798e-14 -2.68371e-06 0)
(-1.01685e-15 6.36515e-07 6.36515e-07)
(-5.72025e-17 -1.50958e-07 0)
(-3.21129e-18 3.58023e-08 3.58023e-08)
(-1.81662e-19 -8.49069e-09 0)
(-9.99656e-21 2.01417e-09 2.01417e-09)
(-6.03919e-22 -4.77186e-10 0)
(-2.60297e-23 1.13707e-10 1.13707e-10)
(-2.89732e-24 -2.63847e-11 0)
(1.15286e-25 6.76619e-12 6.76619e-12)
(-3.31557e-26 -1.13787e-12 0)
(1.40347e-26 7.63236e-13 7.63236e-13)
(4.25412e-27 2.88812e-13 0)
(3.15912e-27 2.90029e-13 2.90029e-13)
(2.51916e-27 3.13534e-13 0)
(1.87825e-27 3.36081e-13 3.36081e-13)
(1.14985e-27 3.20317e-13 0)
(5.66641e-28 2.67982e-13 2.67982e-13)
(1.93209e-28 3.02436e-13 0)
(-6.16404e-14 -2.17241e-06 -2.17241e-06)
(-1.80273e-14 2.67958e-06 -0)
(-1.01401e-15 -6.35557e-07 -6.35557e-07)
(-5.70159e-17 1.50735e-07 -0)
(-3.20887e-18 -3.57496e-08 -3.57496e-08)
(-1.79713e-19 8.47912e-09 -0)
(-1.02646e-20 -2.01056e-09 -2.01056e-09)
(-5.43983e-22 4.77235e-10 -0)
(-3.70892e-23 -1.12751e-10 -1.12751e-10)
(-8.13876e-25 2.71537e-11 -0)
(-2.71729e-25 -5.9741e-12 -5.9741e-12)
(3.77177e-26 1.93741e-12 0)
(-1.10176e-27 -5.77953e-14 -5.77953e-14)
(6.87592e-27 4.97824e-13 0)
(4.16647e-27 3.94506e-13 3.94506e-13)
(2.52728e-27 3.28283e-13 0)
(1.53103e-27 2.84522e-13 2.84522e-13)
(7.64645e-28 2.18594e-13 0)
(4.25299e-28 2.01478e-13 2.01478e-13)
(1.68184e-28 2.50993e-13 0)
(-6.1493e-14 2.16945e-06 2.16945e-06)
(-1.79886e-14 -2.67666e-06 0)
(-1.01183e-15 6.3486e-07 6.3486e-07)
(-5.69052e-17 -1.50568e-07 0)
(-3.19776e-18 3.57102e-08 3.57102e-08)
(-1.80318e-19 -8.46884e-09 0)
(-1.00227e-20 2.00898e-09 2.00898e-09)
(-5.88145e-22 -4.76029e-10 0)
(-2.79613e-23 1.13277e-10 1.13277e-10)
(-2.58203e-24 -2.6527e-11 0)
(6.04937e-26 6.76529e-12 6.76529e-12)
(-2.78121e-26 -1.17252e-12 0)
(1.08235e-26 7.22774e-13 7.22774e-13)
(3.20328e-27 2.52276e-13 0)
(4.03389e-27 4.25937e-13 4.25937e-13)
(2.97533e-27 4.20075e-13 0)
(1.78686e-27 3.57456e-13 3.57456e-13)
(9.90959e-28 3.06111e-13 0)
(5.10954e-28 2.63689e-13 2.63689e-13)
(1.68649e-28 2.80912e-13 0)
(-6.13385e-14 -2.16617e-06 -2.16617e-06)
(-1.79514e-14 2.67372e-06 -0)
(-1.00978e-15 -6.34161e-07 -6.34161e-07)
(-5.67814e-17 1.50402e-07 -0)
(-3.19408e-18 -3.56698e-08 -3.56698e-08)
(-1.79301e-19 8.45995e-09 -0)
(-1.01588e-20 -2.00609e-09 -2.00609e-09)
(-5.53675e-22 4.76067e-10 -0)
(-3.48552e-23 -1.12594e-10 -1.12594e-10)
(-1.18891e-24 2.71104e-11 -0)
(-2.15853e-25 -6.08386e-12 -6.08386e-12)
(2.24661e-26 1.81526e-12 0)
(-2.20313e-28 -1.59608e-14 -1.59608e-14)
(4.28952e-27 4.24858e-13 0)
(1.88759e-27 2.30208e-13 2.30208e-13)
(1.702e-27 2.75942e-13 0)
(1.44122e-27 3.30868e-13 3.30868e-13)
(8.33109e-28 2.9137e-13 0)
(4.56969e-28 2.6673e-13 2.6673e-13)
(1.0077e-28 2.17627e-13 0)
(-6.11949e-14 2.16307e-06 2.16307e-06)
(-1.79178e-14 -2.67102e-06 0)
(-1.0079e-15 6.33521e-07 6.33521e-07)
(-5.6684e-17 -1.5025e-07 0)
(-3.18693e-18 3.56345e-08 3.56345e-08)
(-1.79419e-19 -8.45096e-09 0)
(-1.00418e-20 2.00461e-09 2.00461e-09)
(-5.75663e-22 -4.75136e-10 0)
(-2.99538e-23 1.13129e-10 1.13129e-10)
(-2.19187e-24 -2.64095e-11 0)
(-1.34685e-26 6.61584e-12 6.61584e-12)
(-1.88022e-26 -1.21446e-12 0)
(5.23947e-27 5.98552e-13 5.98552e-13)
(8.07436e-28 9.91793e-14 0)
(1.13575e-27 1.7728e-13 1.7728e-13)
(9.85781e-28 1.9664e-13 0)
(7.47686e-28 2.06146e-13 2.06146e-13)
(3.25605e-28 1.35131e-13 0)
(3.02985e-28 2.07167e-13 2.07167e-13)
(5.16754e-29 1.52936e-13 0)
(-6.10476e-14 -2.15976e-06 -2.15976e-06)
(-1.78855e-14 2.66834e-06 -0)
(-1.00611e-15 -6.32888e-07 -6.32888e-07)
(-5.6585e-17 1.50101e-07 -0)
(-3.18252e-18 -3.55989e-08 -3.55989e-08)
(-1.78934e-19 8.4432e-09 -0)
(-1.00819e-20 -2.00214e-09 -2.00214e-09)
(-5.62008e-22 4.75237e-10 -0)
(-3.28108e-23 -1.12323e-10 -1.12323e-10)
(-1.56661e-24 2.70099e-11 -0)
(-1.47187e-25 -6.08688e-12 -6.08688e-12)
(6.49366e-27 1.76431e-12 0)
(-7.8335e-28 -1.06561e-13 -1.06561e-13)
(1.46197e-27 2.76455e-13 0)
(1.01604e-27 2.21521e-13 2.21521e-13)
(4.51999e-28 1.25029e-13 0)
(6.62069e-28 2.3694e-13 2.3694e-13)
(2.08209e-28 1.16456e-13 0)
(1.63135e-28 1.49997e-13 1.49997e-13)
(3.95992e-29 1.37548e-13 0)
(-6.09067e-14 2.15656e-06 2.15656e-06)
(-1.78552e-14 -2.6658e-06 0)
(-1.00444e-15 6.32292e-07 6.32292e-07)
(-5.64942e-17 -1.4996e-07 0)
(-3.17786e-18 3.55664e-08 3.55664e-08)
(-1.78699e-19 -8.43517e-09 0)
(-1.00583e-20 2.0008e-09 2.0008e-09)
(-5.65242e-22 -4.74339e-10 0)
(-3.16683e-23 1.12683e-10 1.12683e-10)
(-1.85195e-24 -2.65745e-11 0)
(-8.19561e-26 6.51325e-12 6.51325e-12)
(-9.96976e-27 -1.37194e-12 0)
(1.32596e-27 5.32155e-13 5.32155e-13)
(-4.70367e-29 -1.42509e-14 0)
(3.35341e-28 1.27304e-13 1.27304e-13)
(1.82782e-28 7.95181e-14 0)
(1.87293e-28 1.01845e-13 1.01845e-13)
(1.98143e-28 1.54778e-13 0)
(8.5145e-29 1.02176e-13 1.02176e-13)
(2.82117e-29 1.09173e-13 0)
(-6.07716e-14 -2.15345e-06 -2.15345e-06)
(-1.78267e-14 2.6634e-06 -0)
(-1.00285e-15 -6.31725e-07 -6.31725e-07)
(-5.64142e-17 1.49828e-07 -0)
(-3.17253e-18 -3.55348e-08 -3.55348e-08)
(-1.78647e-19 8.42824e-09 -0)
(-1.00153e-20 -1.99882e-09 -1.99882e-09)
(-5.69461e-22 4.74256e-10 -0)
(-3.10942e-23 -1.12365e-10 -1.12365e-10)
(-1.88376e-24 2.67891e-11 -0)
(-8.92382e-26 -6.14333e-12 -6.14333e-12)
(-6.64666e-27 1.65917e-12 -0)
(-3.75833e-28 -2.57781e-13 -2.57781e-13)
(1.90164e-28 2.56903e-13 0)
(1.24385e-28 1.17642e-13 1.17642e-13)
(1.40787e-28 1.53186e-13 0)
(1.97963e-29 2.24776e-14 2.24776e-14)
(8.13872e-29 1.17226e-13 0)
(3.07705e-29 5.89919e-14 5.89919e-14)
(6.53251e-30 6.25965e-14 0)
(-6.064e-14 2.15039e-06 2.15039e-06)
(-1.77994e-14 -2.66108e-06 0)
(-1.00138e-15 6.31179e-07 6.31179e-07)
(-5.63259e-17 -1.49699e-07 0)
(-3.17019e-18 3.55049e-08 3.55049e-08)
(-1.78041e-19 -8.42094e-09 0)
(-1.00779e-20 1.99737e-09 1.99737e-09)
(-5.55853e-22 -4.7365e-10 0)
(-3.31951e-23 1.1243e-10 1.1243e-10)
(-1.55122e-24 -2.65326e-11 0)
(-1.39722e-25 6.49219e-12 6.49219e-12)
(-4.22476e-28 -1.32341e-12 0)
(-1.24176e-27 4.33214e-13 4.33214e-13)
(1.36277e-29 -1.79241e-14 -0)
(-5.92185e-29 1.14159e-13 1.14159e-13)
(-1.86882e-31 4.12055e-14 -0)
(2.18014e-30 1.42114e-14 1.42114e-14)
(-3.77298e-30 -3.03291e-14 0)
(2.43877e-30 1.31365e-14 1.31365e-14)
(-1.24432e-31 1.78685e-14 -0)
(-6.05257e-14 -2.14779e-06 -2.14779e-06)
(-1.77749e-14 2.65902e-06 -0)
(-9.99961e-16 -6.30692e-07 -6.30692e-07)
(-5.62656e-17 1.49584e-07 -0)
(-3.16329e-18 -3.54779e-08 -3.54779e-08)
(-1.78443e-19 8.41456e-09 -0)
(-9.95091e-21 -1.9958e-09 -1.9958e-09)
(-5.7614e-22 4.73384e-10 -0)
(-2.96053e-23 -1.12249e-10 -1.12249e-10)
(-2.13765e-24 2.6651e-11 -0)
(-4.44406e-26 -6.35418e-12 -6.35418e-12)
(-1.4511e-26 1.50843e-12 -0)
(9.32933e-28 -3.17275e-13 -3.17275e-13)
(-2.9211e-28 1.10129e-13 -0)
(5.15898e-29 -3.87531e-14 -3.87531e-14)
(-9.41189e-30 1.47383e-14 -0)
(-2.72946e-29 6.92011e-14 6.92011e-14)
(8.10265e-30 -3.28829e-14 -0)
(-2.52697e-30 3.85237e-14 3.85237e-14)
(1.38921e-30 -1.5514e-14 -0)
(-6.04083e-14 2.14504e-06 2.14504e-06)
(-1.77503e-14 -2.65694e-06 0)
(-9.98693e-16 6.302e-07 6.302e-07)
(-5.61723e-17 -1.49468e-07 0)
(-3.16404e-18 3.54504e-08 3.54504e-08)
(-1.77368e-19 -8.40814e-09 0)
(-1.01017e-20 1.99424e-09 1.99424e-09)
(-5.4774e-22 -4.73076e-10 0)
(-3.4343e-23 1.12154e-10 1.12154e-10)
(-1.35671e-24 -2.66441e-11 0)
(-1.69721e-25 6.34212e-12 6.34212e-12)
(5.24003e-27 -1.47331e-12 -0)
(-2.53186e-27 4.3701e-13 4.3701e-13)
(2.28055e-28 -7.48256e-14 -0)
(-3.18843e-29 1.54494e-14 1.54494e-14)
(2.3943e-29 -1.83476e-14 -0)
(5.08969e-29 -6.39317e-14 -6.39317e-14)
(-8.86661e-30 2.24702e-14 -0)
(-6.816e-30 3.28222e-14 3.28222e-14)
(7.01855e-30 -3.88378e-14 -0)
(-6.03306e-14 -2.14346e-06 -2.14346e-06)
(-1.77311e-14 2.65539e-06 -0)
(-9.9743e-16 -6.2983e-07 -6.2983e-07)
(-5.61428e-17 1.49379e-07 -0)
(-3.15388e-18 -3.54294e-08 -3.54294e-08)
(-1.7833e-19 8.4032e-09 -0)
(-9.8886e-21 -1.99311e-09 -1.99311e-09)
(-5.80371e-22 4.7274e-10 -0)
(-2.87869e-23 -1.12117e-10 -1.12117e-10)
(-2.24424e-24 2.6629e-11 -0)
(-2.71516e-26 -6.3277e-12 -6.3277e-12)
(-1.77027e-26 1.53743e-12 -0)
(1.25898e-27 -2.923e-13 -2.923e-13)
(-6.72023e-28 1.81016e-13 -0)
(-1.06565e-29 4.58815e-15 4.58815e-15)
(4.54809e-29 -2.86047e-14 -0)
(4.60469e-29 -4.83497e-14 -4.83497e-14)
(7.36787e-29 -1.30548e-13 -0)
(1.90173e-29 -1.00624e-13 -1.00624e-13)
(2.89928e-30 -2.89233e-14 -0)
(-6.02274e-14 2.141e-06 2.141e-06)
(-1.77093e-14 -2.65361e-06 0)
(-9.96663e-16 6.29406e-07 6.29406e-07)
(-5.60371e-17 -1.49279e-07 0)
(-3.16071e-18 3.54054e-08 3.54054e-08)
(-1.76868e-19 -8.39742e-09 0)
(-1.01125e-20 1.99178e-09 1.99178e-09)
(-5.45991e-22 -4.72395e-10 0)
(-3.43937e-23 1.12098e-10 1.12098e-10)
(-1.37019e-24 -2.65457e-11 0)
(-1.66178e-25 6.2821e-12 6.2821e-12)
(4.61345e-27 -1.50119e-12 -0)
(-1.73651e-27 3.17015e-13 3.17015e-13)
(2.77069e-28 -1.01875e-13 -0)
(-3.2703e-29 1.61937e-14 1.61937e-14)
(1.24197e-29 -9.89363e-15 -0)
(-9.67285e-30 1.15656e-14 1.15656e-14)
(-2.69821e-29 4.83699e-14 -0)
(1.14255e-29 -4.8445e-14 -4.8445e-14)
(2.26904e-30 -3.09224e-14 -0)
(-6.0236e-14 -2.14198e-06 -2.14198e-06)
(-1.77157e-14 2.65509e-06 -0)
(-9.96646e-16 -6.30234e-07 -6.30234e-07)
(-5.61435e-17 1.49587e-07 -0)
(-3.15212e-18 -3.55058e-08 -3.55058e-08)
(-1.78204e-19 8.42741e-09 -0)
(-9.89832e-21 -2.00052e-09 -2.00052e-09)
(-5.74106e-22 4.74779e-10 -0)
(-2.96511e-23 -1.12752e-10 -1.12752e-10)
(-2.05759e-24 2.66941e-11 -0)
(-5.39154e-26 -6.34036e-12 -6.34036e-12)
(-1.26527e-26 1.48389e-12 -0)
(1.00665e-27 -4.43526e-13 -4.43526e-13)
(-7.44827e-30 3.39471e-15 -0)
(1.36024e-28 -1.1155e-13 -1.1155e-13)
(-1.09627e-29 1.35754e-14 -0)
(-3.59685e-30 6.63613e-15 6.63613e-15)
(9.73734e-30 -2.93471e-14 -0)
(-8.11927e-30 3.26679e-14 3.26679e-14)
(1.09239e-30 -9.38662e-15 -0)
(-6.02805e-14 2.14423e-06 2.14423e-06)
(-1.77176e-14 -2.65458e-06 0)
(-9.99369e-16 6.3066e-07 6.3066e-07)
(-5.63972e-17 -1.49939e-07 0)
(-3.18465e-18 3.55996e-08 3.55996e-08)
(-1.80359e-19 -8.5028e-09 0)
(-1.01637e-20 2.00533e-09 2.00533e-09)
(-5.83877e-22 -4.89897e-10 0)
(-3.19354e-23 1.09309e-10 1.09309e-10)
(-1.99193e-24 -3.09692e-11 0)
(-8.06629e-26 4.29403e-12 4.29403e-12)
(-6.58357e-27 -3.08384e-12 0)
(1.17328e-27 -5.74824e-13 -5.74824e-13)
(3.58758e-28 -6.90632e-13 -0)
(1.93764e-28 -3.48615e-13 -3.48615e-13)
(7.19539e-29 -2.5166e-13 -0)
(3.15712e-29 -1.52066e-13 -1.52066e-13)
(7.78476e-30 -6.45994e-14 -0)
(6.18595e-30 -5.96398e-14 -5.96398e-14)
(2.91983e-30 -4.40984e-14 -0)
)
;

boundaryField
{
    movingWall
    {
        type            calculated;
        value           nonuniform List<vector> 
20
(
(0 2.1784e-06 -0)
(0 -2.66772e-06 -0)
(0 6.36084e-07 -0)
(0 -1.51871e-07 -0)
(0 3.61609e-08 -0)
(0 -8.72422e-09 -0)
(0 2.04915e-09 -0)
(0 -5.1772e-10 -0)
(0 1.08666e-10 -0)
(0 -3.6441e-11 -0)
(0 2.22169e-12 -0)
(0 -4.87182e-12 -0)
(0 -1.55533e-12 -0)
(0 -1.43639e-12 -0)
(0 -7.33897e-13 -0)
(0 -5.23318e-13 -0)
(0 -3.27403e-13 -0)
(0 -9.92071e-14 -0)
(0 -9.42475e-14 -0)
(0 -6.14023e-14 -0)
)
;
    }
    fixedWalls
    {
        type            calculated;
        value           nonuniform List<vector> 
60
(
(0 -1.14676e-05 -0)
(0 1.14563e-05 -0)
(0 -1.14339e-05 -0)
(0 1.14187e-05 -0)
(0 -1.1394e-05 -0)
(0 1.13751e-05 -0)
(0 -1.13574e-05 -0)
(0 1.1345e-05 -0)
(0 -1.13325e-05 -0)
(0 1.13211e-05 -0)
(0 -1.13098e-05 -0)
(0 1.12991e-05 -0)
(0 -1.12889e-05 -0)
(0 1.12791e-05 -0)
(0 -1.12704e-05 -0)
(0 1.12617e-05 -0)
(0 -1.12551e-05 -0)
(0 1.12475e-05 -0)
(0 -1.12457e-05 -0)
(0 1.12455e-05 -0)
(0 -9.08858e-15 -0)
(0 1.78946e-13 -0)
(0 1.46038e-13 -0)
(0 1.57313e-13 -0)
(0 2.06234e-13 -0)
(0 2.82642e-13 -0)
(0 2.40925e-13 -0)
(0 2.6725e-13 -0)
(0 1.85215e-13 -0)
(0 1.08051e-13 -0)
(0 1.15158e-13 -0)
(0 1.03365e-13 -0)
(0 4.17436e-14 -0)
(0 -2.78551e-15 -0)
(0 -3.58181e-14 -0)
(0 -7.22857e-14 -0)
(0 -4.0096e-14 -0)
(0 -2.93514e-14 -0)
(0 -1.9446e-14 -0)
(0 -5.35897e-14 -0)
(0 -2.20534e-06 -0)
(0 2.71725e-06 -0)
(0 -6.46972e-07 -0)
(0 1.54848e-07 -0)
(0 -3.66668e-08 -0)
(0 8.94192e-09 -0)
(0 -2.03961e-09 -0)
(0 5.53312e-10 -0)
(0 -9.10529e-11 -0)
(0 5.0336e-11 -0)
(0 7.14836e-12 -0)
(0 1.15813e-11 -0)
(0 6.26315e-12 -0)
(0 4.47084e-12 -0)
(0 2.83614e-12 -0)
(0 1.73167e-12 -0)
(0 8.71919e-13 -0)
(0 4.94395e-13 -0)
(0 1.66407e-13 -0)
(0 -5.05251e-14 -0)
)
;
    }
    frontAndBack
    {
        type            empty;
    }
}


// ************************************************************************* //
