/*--------------------------------*- C++ -*----------------------------------*\
| =========                 |                                                 |
| \\      /  F ield         | OpenFOAM: The Open Source CFD Toolbox           |
|  \\    /   O peration     | Version:  2312                                  |
|   \\  /    A nd           | Website:  www.openfoam.com                      |
|    \\/     M anipulation  |                                                 |
\*---------------------------------------------------------------------------*/
FoamFile
{
    version     2.0;
    format      ascii;
    arch        "LSB;label=32;scalar=64";
    class       volScalarField;
    location    "4.25";
    object      magSqrP;
}
// * * * * * * * * * * * * * * * * * * * * * * * * * * * * * * * * * * * * * //

dimensions      [0 4 -4 0 0 0 0];

internalField   nonuniform List<scalar> 
400
(
0
0
1.40062e-23
1.90879e-25
1.28512e-24
3.7452e-25
4.00555e-25
3.00011e-25
2.79807e-25
2.57489e-25
2.47005e-25
2.39699e-25
2.34988e-25
2.31572e-25
2.29234e-25
2.27823e-25
2.26966e-25
2.26482e-25
2.26151e-25
2.25815e-25
2.66506e-24
7.51574e-24
9.83784e-25
4.2854e-25
4.4566e-25
3.48073e-25
3.21707e-25
2.84012e-25
2.65306e-25
2.51093e-25
2.42504e-25
2.36864e-25
2.32994e-25
2.30377e-25
2.2849e-25
2.27244e-25
2.26525e-25
2.26239e-25
2.25797e-25
2.25475e-25
0
0
0
1.57497e-28
2.74276e-25
2.39185e-25
2.63349e-25
2.50732e-25
2.45952e-25
2.3932e-25
2.35055e-25
2.31921e-25
2.29762e-25
2.28049e-25
2.27053e-25
2.26229e-25
2.25661e-25
2.25441e-25
2.25243e-25
2.24808e-25
1.42375e-23
3.77768e-23
4.4485e-25
2.32708e-25
1.24629e-25
1.86658e-25
2.09174e-25
2.21746e-25
2.25794e-25
2.26621e-25
2.2642e-25
2.2602e-25
2.25625e-25
2.25233e-25
2.25002e-25
2.24661e-25
2.24527e-25
2.24521e-25
2.24296e-25
2.24221e-25
0
0
0
3.22502e-26
1.38952e-25
1.63004e-25
1.86129e-25
2.00628e-25
2.09911e-25
2.1508e-25
2.18297e-25
2.20224e-25
2.21237e-25
2.22089e-25
2.22705e-25
2.23072e-25
2.23271e-25
2.23198e-25
2.23234e-25
2.23554e-25
2.56783e-23
1.64378e-24
5.74871e-25
5.88587e-26
1.30567e-25
1.39126e-25
1.72334e-25
1.86115e-25
1.98744e-25
2.06158e-25
2.1148e-25
2.1494e-25
2.17349e-25
2.19191e-25
2.20345e-25
2.21339e-25
2.21781e-25
2.22112e-25
2.22379e-25
2.22692e-25
0
1.67884e-24
0
1.82165e-25
8.66506e-26
1.55805e-25
1.60482e-25
1.80528e-25
1.90662e-25
2.00059e-25
2.0612e-25
2.10621e-25
2.13973e-25
2.1667e-25
2.18279e-25
2.19806e-25
2.20594e-25
2.21103e-25
2.21488e-25
2.21625e-25
4.09029e-23
0
1.35468e-24
1.10712e-26
2.00469e-25
1.29853e-25
1.68196e-25
1.73913e-25
1.87659e-25
1.95532e-25
2.02699e-25
2.07641e-25
2.1136e-25
2.14343e-25
2.1683e-25
2.18586e-25
2.19462e-25
2.20088e-25
2.20495e-25
2.207e-25
0
3.39355e-23
0
4.6154e-25
6.37137e-26
1.71038e-25
1.55279e-25
1.77322e-25
1.84733e-25
1.94091e-25
2.00431e-25
2.05645e-25
2.09752e-25
2.13041e-25
2.15487e-25
2.17477e-25
2.18752e-25
2.19421e-25
2.19883e-25
2.19977e-25
6.20822e-23
0
1.74312e-24
0
2.64576e-25
1.28921e-25
1.74382e-25
1.72945e-25
1.86073e-25
1.92922e-25
1.99716e-25
2.04768e-25
2.09132e-25
2.12446e-25
2.14874e-25
2.16672e-25
2.1809e-25
2.18826e-25
2.19297e-25
2.19608e-25
0
8.61988e-23
0
7.4362e-25
4.96506e-26
1.85078e-25
1.56654e-25
1.80497e-25
1.85545e-25
1.94204e-25
2.00021e-25
2.05097e-25
2.09347e-25
2.12391e-25
2.14521e-25
2.16386e-25
2.17649e-25
2.18583e-25
2.18912e-25
2.19294e-25
7.29283e-23
0
1.84935e-24
0
3.08239e-25
1.32088e-25
1.82946e-25
1.77313e-25
1.89781e-25
1.95493e-25
2.01633e-25
2.06081e-25
2.10135e-25
2.12918e-25
2.1488e-25
2.1638e-25
2.17413e-25
2.18357e-25
2.18867e-25
2.19113e-25
0
1.19903e-22
0
8.96483e-25
4.68876e-26
1.96538e-25
1.63226e-25
1.87916e-25
1.91399e-25
1.99185e-25
2.03926e-25
2.08119e-25
2.11553e-25
2.14038e-25
2.15428e-25
2.16688e-25
2.17696e-25
2.18405e-25
2.18935e-25
2.18922e-25
6.7137e-23
0
1.69103e-24
0
3.24617e-25
1.41106e-25
1.94131e-25
1.86989e-25
1.98183e-25
2.02585e-25
2.07211e-25
2.10755e-25
2.13491e-25
2.15257e-25
2.16503e-25
2.17563e-25
2.18138e-25
2.18718e-25
2.19105e-25
2.19237e-25
0
1.14377e-22
0
8.60315e-25
5.7383e-26
2.08349e-25
1.77521e-25
2.0099e-25
2.02604e-25
2.08316e-25
2.11188e-25
2.13836e-25
2.15859e-25
2.17032e-25
2.1805e-25
2.18465e-25
2.18757e-25
2.19274e-25
2.1953e-25
2.1943e-25
4.74661e-23
0
1.3299e-24
0
3.26318e-25
1.62783e-25
2.13097e-25
2.04826e-25
2.12795e-25
2.13997e-25
2.1611e-25
2.17367e-25
2.18474e-25
2.19002e-25
2.19374e-25
2.1952e-25
2.19591e-25
2.19767e-25
2.1991e-25
2.2004e-25
0
7.67787e-23
0
6.91033e-25
9.5588e-26
2.34832e-25
2.08371e-25
2.23484e-25
2.21044e-25
2.21743e-25
2.21044e-25
2.21138e-25
2.21035e-25
2.20818e-25
2.20526e-25
2.20741e-25
2.20483e-25
2.20123e-25
2.20309e-25
2.2053e-25
2.30501e-23
0
9.91881e-25
1.41531e-27
3.78549e-25
2.17759e-25
2.53637e-25
2.34087e-25
2.33363e-25
2.28604e-25
2.26479e-25
2.24583e-25
2.23355e-25
2.22238e-25
2.21764e-25
2.21507e-25
2.21178e-25
2.20889e-25
2.20651e-25
2.20736e-25
0
2.48395e-23
2.37307e-25
5.54786e-25
2.89784e-25
2.95429e-25
2.68881e-25
2.53128e-25
2.42498e-25
2.35146e-25
2.30483e-25
2.27298e-25
2.2531e-25
2.23524e-25
2.22545e-25
2.2193e-25
2.21438e-25
2.21182e-25
2.21065e-25
2.21032e-25
2.82947e-24
0
1.02603e-23
0
9.18051e-25
2.41254e-25
3.24149e-25
2.55007e-25
2.51128e-25
2.37846e-25
2.33071e-25
2.28834e-25
2.26171e-25
2.24127e-25
2.22958e-25
2.22208e-25
2.21741e-25
2.21325e-25
2.21314e-25
2.21302e-25
)
;

boundaryField
{
    movingWall
    {
        type            calculated;
        value           nonuniform List<scalar> 
20
(
2.82947e-24
0
1.02603e-23
0
9.18051e-25
2.41254e-25
3.24149e-25
2.55007e-25
2.51128e-25
2.37846e-25
2.33071e-25
2.28834e-25
2.26171e-25
2.24127e-25
2.22958e-25
2.22208e-25
2.21741e-25
2.21325e-25
2.21314e-25
2.21302e-25
)
;
    }
    fixedWalls
    {
        type            calculated;
        value           nonuniform List<scalar> 
60
(
0
2.66506e-24
0
1.42375e-23
0
2.56783e-23
0
4.09029e-23
0
6.20822e-23
0
7.29283e-23
0
6.7137e-23
0
4.74661e-23
0
2.30501e-23
0
2.82947e-24
2.25815e-25
2.25475e-25
2.24808e-25
2.24221e-25
2.23554e-25
2.22692e-25
2.21625e-25
2.207e-25
2.19977e-25
2.19608e-25
2.19294e-25
2.19113e-25
2.18922e-25
2.19237e-25
2.1943e-25
2.2004e-25
2.2053e-25
2.20736e-25
2.21032e-25
2.21302e-25
0
0
1.40062e-23
1.90879e-25
1.28512e-24
3.7452e-25
4.00555e-25
3.00011e-25
2.79807e-25
2.57489e-25
2.47005e-25
2.39699e-25
2.34988e-25
2.31572e-25
2.29234e-25
2.27823e-25
2.26966e-25
2.26482e-25
2.26151e-25
2.25815e-25
)
;
    }
    frontAndBack
    {
        type            empty;
    }
}


// ************************************************************************* //
