/*--------------------------------*- C++ -*----------------------------------*\
| =========                 |                                                 |
| \\      /  F ield         | OpenFOAM: The Open Source CFD Toolbox           |
|  \\    /   O peration     | Version:  2312                                  |
|   \\  /    A nd           | Website:  www.openfoam.com                      |
|    \\/     M anipulation  |                                                 |
\*---------------------------------------------------------------------------*/
FoamFile
{
    version     2.0;
    format      ascii;
    arch        "LSB;label=32;scalar=64";
    class       volScalarField;
    location    "4.25";
    object      p;
}
// * * * * * * * * * * * * * * * * * * * * * * * * * * * * * * * * * * * * * //

dimensions      [0 2 -2 0 0 0 0];

internalField   nonuniform List<scalar> 
400
(
0
0
3.74248e-12
4.36897e-13
1.13363e-12
6.1198e-13
6.32894e-13
5.47733e-13
5.28968e-13
5.07434e-13
4.96996e-13
4.89591e-13
4.84756e-13
4.8122e-13
4.78784e-13
4.77308e-13
4.7641e-13
4.75901e-13
4.75553e-13
4.752e-13
1.6325e-12
2.74149e-12
9.91859e-13
6.5463e-13
6.67578e-13
5.89977e-13
5.67192e-13
5.32928e-13
5.15079e-13
5.01092e-13
4.92446e-13
4.86687e-13
4.82695e-13
4.79976e-13
4.78007e-13
4.76702e-13
4.75946e-13
4.75646e-13
4.75181e-13
4.74842e-13
0
0
0
1.25498e-14
5.23714e-13
4.89066e-13
5.13175e-13
5.00732e-13
4.95936e-13
4.89203e-13
4.84825e-13
4.81581e-13
4.79335e-13
4.77545e-13
4.76501e-13
4.75635e-13
4.75038e-13
4.74806e-13
4.74598e-13
4.74139e-13
3.77326e-12
6.14628e-12
6.66971e-13
4.82398e-13
3.53028e-13
4.32039e-13
4.57355e-13
4.70899e-13
4.75178e-13
4.76047e-13
4.75836e-13
4.75416e-13
4.75e-13
4.74587e-13
4.74343e-13
4.73985e-13
4.73843e-13
4.73836e-13
4.73599e-13
4.7352e-13
0
0
0
1.79583e-13
3.72762e-13
4.03737e-13
4.31426e-13
4.47915e-13
4.5816e-13
4.63767e-13
4.67223e-13
4.6928e-13
4.70359e-13
4.71263e-13
4.71916e-13
4.72305e-13
4.72515e-13
4.72439e-13
4.72476e-13
4.72815e-13
5.06738e-12
1.2821e-12
7.58202e-13
2.42608e-13
3.61341e-13
3.72996e-13
4.15132e-13
4.3141e-13
4.45807e-13
4.54046e-13
4.59869e-13
4.63616e-13
4.66207e-13
4.68178e-13
4.69409e-13
4.70466e-13
4.70937e-13
4.71288e-13
4.71571e-13
4.71903e-13
0
1.2957e-12
0
4.26807e-13
2.94365e-13
3.94721e-13
4.00602e-13
4.24886e-13
4.36649e-13
4.47279e-13
4.54005e-13
4.58934e-13
4.62572e-13
4.65478e-13
4.67203e-13
4.68835e-13
4.69674e-13
4.70216e-13
4.70626e-13
4.70771e-13
6.39553e-12
0
1.16391e-12
1.0522e-13
4.47737e-13
3.60351e-13
4.10117e-13
4.17029e-13
4.33196e-13
4.4219e-13
4.50221e-13
4.55676e-13
4.5974e-13
4.62971e-13
4.6565e-13
4.67532e-13
4.68467e-13
4.69135e-13
4.69569e-13
4.69787e-13
0
5.82542e-12
0
6.79367e-13
2.52416e-13
4.13567e-13
3.94055e-13
4.21096e-13
4.29806e-13
4.40558e-13
4.47695e-13
4.53481e-13
4.57987e-13
4.61563e-13
4.64206e-13
4.66344e-13
4.67709e-13
4.68424e-13
4.68917e-13
4.69017e-13
7.87923e-12
0
1.32027e-12
0
5.14369e-13
3.59056e-13
4.1759e-13
4.15867e-13
4.31362e-13
4.39229e-13
4.46896e-13
4.52513e-13
4.57309e-13
4.60919e-13
4.63545e-13
4.6548e-13
4.67001e-13
4.67788e-13
4.68292e-13
4.68624e-13
0
9.28433e-12
0
8.62334e-13
2.22824e-13
4.30207e-13
3.95796e-13
4.24849e-13
4.30749e-13
4.40686e-13
4.47238e-13
4.52876e-13
4.57544e-13
4.60859e-13
4.63164e-13
4.65173e-13
4.66529e-13
4.67529e-13
4.6788e-13
4.68289e-13
8.5398e-12
0
1.35991e-12
0
5.55193e-13
3.63439e-13
4.27721e-13
4.21086e-13
4.35638e-13
4.42146e-13
4.49036e-13
4.53962e-13
4.58405e-13
4.61431e-13
4.63551e-13
4.65167e-13
4.66276e-13
4.67287e-13
4.67832e-13
4.68095e-13
0
1.095e-11
0
9.46828e-13
2.16535e-13
4.43327e-13
4.04012e-13
4.33492e-13
4.37492e-13
4.46302e-13
4.51581e-13
4.562e-13
4.59949e-13
4.62643e-13
4.64143e-13
4.65497e-13
4.66579e-13
4.67338e-13
4.67905e-13
4.67891e-13
8.19372e-12
0
1.3004e-12
0
5.69752e-13
3.75641e-13
4.40603e-13
4.32423e-13
4.45177e-13
4.50095e-13
4.55204e-13
4.5908e-13
4.62051e-13
4.63958e-13
4.65299e-13
4.66436e-13
4.67052e-13
4.67673e-13
4.68087e-13
4.68227e-13
0
1.06947e-11
0
9.27532e-13
2.39547e-13
4.56453e-13
4.21333e-13
4.48319e-13
4.50115e-13
4.56417e-13
4.59552e-13
4.62424e-13
4.64606e-13
4.65867e-13
4.66959e-13
4.67402e-13
4.67715e-13
4.68266e-13
4.68541e-13
4.68434e-13
6.88957e-12
0
1.15321e-12
0
5.71242e-13
4.03464e-13
4.61624e-13
4.52577e-13
4.61297e-13
4.62598e-13
4.64876e-13
4.66226e-13
4.67412e-13
4.67976e-13
4.68374e-13
4.6853e-13
4.68605e-13
4.68793e-13
4.68945e-13
4.69084e-13
0
8.76235e-12
0
8.31284e-13
3.09173e-13
4.84595e-13
4.56476e-13
4.72741e-13
4.70153e-13
4.70896e-13
4.70154e-13
4.70253e-13
4.70143e-13
4.69913e-13
4.69602e-13
4.69831e-13
4.69556e-13
4.69172e-13
4.69371e-13
4.69607e-13
4.80105e-12
0
9.95932e-13
3.76207e-14
6.15263e-13
4.66647e-13
5.03624e-13
4.83825e-13
4.83077e-13
4.78126e-13
4.75899e-13
4.73902e-13
4.72604e-13
4.71421e-13
4.70918e-13
4.70645e-13
4.70296e-13
4.69989e-13
4.69736e-13
4.69826e-13
0
4.98393e-12
4.87142e-13
7.44839e-13
5.38316e-13
5.43534e-13
5.18537e-13
5.03119e-13
4.92441e-13
4.84918e-13
4.80087e-13
4.76758e-13
4.74668e-13
4.72784e-13
4.71747e-13
4.71095e-13
4.70572e-13
4.703e-13
4.70176e-13
4.70141e-13
1.6821e-12
0
3.20317e-12
0
9.5815e-13
4.91176e-13
5.69341e-13
5.04982e-13
5.01126e-13
4.87695e-13
4.82774e-13
4.78366e-13
4.75574e-13
4.73421e-13
4.72184e-13
4.71389e-13
4.70894e-13
4.70452e-13
4.7044e-13
4.70427e-13
)
;

boundaryField
{
    movingWall
    {
        type            zeroGradient;
    }
    fixedWalls
    {
        type            zeroGradient;
    }
    frontAndBack
    {
        type            empty;
    }
}


// ************************************************************************* //
