/*--------------------------------*- C++ -*----------------------------------*\
| =========                 |                                                 |
| \\      /  F ield         | OpenFOAM: The Open Source CFD Toolbox           |
|  \\    /   O peration     | Version:  2312                                  |
|   \\  /    A nd           | Website:  www.openfoam.com                      |
|    \\/     M anipulation  |                                                 |
\*---------------------------------------------------------------------------*/
FoamFile
{
    version     2.0;
    format      ascii;
    arch        "LSB;label=32;scalar=64";
    class       volScalarField;
    location    "4.25";
    object      Uy;
}
// * * * * * * * * * * * * * * * * * * * * * * * * * * * * * * * * * * * * * //

dimensions      [0 1 -1 0 0 0 0];

internalField   nonuniform List<scalar> 
400
(
2.86718e-08
-6.80744e-09
1.61758e-09
-3.8373e-10
9.13999e-11
-2.16133e-11
5.19413e-12
-1.20296e-12
3.06272e-13
-5.97301e-14
2.31799e-14
6.80718e-16
4.17849e-15
1.9981e-15
1.65858e-15
1.17019e-15
7.73185e-16
4.44605e-16
2.70123e-16
1.12804e-16
-2.8659e-08
6.80779e-09
-1.61304e-09
3.83656e-10
-9.0519e-11
2.17085e-11
-5.00255e-12
1.27139e-12
-2.45689e-13
9.50293e-14
2.94499e-15
1.70899e-14
8.46612e-15
6.84158e-15
4.68917e-15
3.41038e-15
2.31015e-15
1.44112e-15
8.34858e-16
3.11841e-16
2.85934e-08
-6.78499e-09
1.61052e-09
-3.81517e-10
9.09609e-11
-2.13086e-11
5.23351e-12
-1.12679e-12
3.44869e-13
-2.85339e-14
4.43006e-14
1.62139e-14
1.52506e-14
1.01305e-14
7.52089e-15
5.35667e-15
3.7012e-15
2.3453e-15
1.28157e-15
3.65094e-16
-2.85324e-08
6.76654e-09
-1.60466e-09
3.80867e-10
-9.00232e-11
2.15754e-11
-4.94973e-12
1.29185e-12
-2.21643e-13
1.13355e-13
1.7197e-14
2.80684e-14
1.69045e-14
1.31814e-14
9.42855e-15
6.87248e-15
4.79152e-15
3.12546e-15
1.69607e-15
3.93283e-16
2.84643e-08
-6.7484e-09
1.60074e-09
-3.79323e-10
9.01457e-11
-2.12035e-11
5.16492e-12
-1.11798e-12
3.45881e-13
-2.12933e-14
5.04199e-14
2.20146e-14
2.01554e-14
1.40543e-14
1.06517e-14
7.72143e-15
5.52248e-15
3.63272e-15
2.03869e-15
5.15584e-16
-2.84153e-08
6.73687e-09
-1.59753e-09
3.78931e-10
-8.96952e-11
2.13954e-11
-4.9631e-12
1.26558e-12
-2.28919e-13
1.09811e-13
1.70386e-14
2.91383e-14
1.83884e-14
1.47297e-14
1.08924e-14
8.03473e-15
5.58869e-15
3.58972e-15
2.11447e-15
6.38842e-16
2.83742e-08
-6.72766e-09
1.59546e-09
-3.78252e-10
8.97597e-11
-2.11948e-11
5.10537e-12
-1.13986e-12
3.28948e-13
-2.99729e-14
4.54845e-14
1.94682e-14
1.90631e-14
1.38119e-14
1.05612e-14
7.69848e-15
5.38105e-15
3.49801e-15
2.1109e-15
6.70076e-16
-2.83449e-08
6.72054e-09
-1.59378e-09
3.77937e-10
-8.95476e-11
2.1292e-11
-4.98897e-12
1.23552e-12
-2.46841e-13
9.73359e-14
8.94179e-15
2.37199e-14
1.49749e-14
1.26975e-14
9.47061e-15
7.08287e-15
4.99882e-15
3.23726e-15
1.93771e-15
6.00363e-16
2.83166e-08
-6.71402e-09
1.59231e-09
-3.77531e-10
8.95459e-11
-2.11941e-11
5.064e-12
-1.16302e-12
3.09565e-13
-4.38545e-14
3.54796e-14
1.23762e-14
1.38033e-14
1.00964e-14
8.1995e-15
6.16797e-15
4.35588e-15
2.85928e-15
1.71323e-15
4.63038e-16
-2.82908e-08
6.70825e-09
-1.59095e-09
3.77265e-10
-8.94339e-11
2.12305e-11
-5.00936e-12
1.21157e-12
-2.64776e-13
8.29955e-14
-2.0358e-15
1.54819e-14
8.75357e-15
8.14117e-15
6.40653e-15
5.01312e-15
3.62697e-15
2.40956e-15
1.46252e-15
3.3789e-16
2.82659e-08
-6.70285e-09
1.58972e-09
-3.76979e-10
8.93993e-11
-2.11926e-11
5.03554e-12
-1.18258e-12
2.92112e-13
-5.80014e-14
2.41811e-14
3.68057e-15
7.35118e-15
5.28828e-15
4.58663e-15
3.61517e-15
2.79425e-15
1.78787e-15
1.08758e-15
2.87894e-16
-2.82425e-08
6.69785e-09
-1.58858e-09
3.76728e-10
-8.93501e-11
2.1185e-11
-5.02714e-12
1.19164e-12
-2.81038e-13
6.96889e-14
-1.2583e-14
7.2669e-15
2.49167e-15
3.30061e-15
2.63418e-15
2.29862e-15
1.839e-15
1.28017e-15
8.33319e-16
2.58412e-16
2.82206e-08
-6.69322e-09
1.58749e-09
-3.76527e-10
8.92795e-11
-2.11962e-11
5.01061e-12
-1.20075e-12
2.76725e-13
-7.03182e-14
1.4526e-14
-4.006e-15
1.45795e-15
7.40218e-16
1.05732e-15
9.19053e-16
8.80712e-16
6.94278e-16
5.21606e-16
1.04359e-16
-2.81996e-08
6.68878e-09
-1.58652e-09
3.76261e-10
-8.92888e-11
2.11427e-11
-5.04557e-12
1.17355e-12
-2.9525e-13
5.84649e-14
-2.15215e-14
3.19232e-16
-2.86638e-15
-7.60303e-16
-5.18739e-16
-4.53535e-18
1.53408e-16
1.24401e-16
1.85648e-16
-6.96377e-18
2.81805e-08
-6.68476e-09
1.5855e-09
-3.76147e-10
8.91622e-11
-2.12065e-11
4.98593e-12
-1.21707e-12
2.63746e-13
-8.0209e-14
6.99392e-15
-9.61989e-15
-2.94046e-15
-2.65243e-15
-1.33124e-15
-6.386e-16
-3.94424e-16
-2.46409e-16
-6.5595e-17
-8.95452e-17
-2.81619e-08
6.68071e-09
-1.58472e-09
3.75815e-10
-8.92526e-11
2.10949e-11
-5.06544e-12
1.15783e-12
-3.06212e-13
5.09198e-14
-2.67609e-14
-3.55663e-15
-5.7936e-15
-3.04782e-15
-2.06379e-15
-1.30496e-15
-7.96113e-16
-3.94593e-16
-2.07664e-16
-1.80714e-16
2.81464e-08
-6.67738e-09
1.58365e-09
-3.7584e-10
8.90188e-11
-2.12217e-11
4.96139e-12
-1.22767e-12
2.56757e-13
-8.42782e-14
4.29092e-15
-1.15144e-14
-4.30716e-15
-3.7125e-15
-2.32262e-15
-1.58998e-15
-9.5237e-16
-5.64381e-16
-1.88993e-16
-1.0024e-16
-2.81305e-08
6.67366e-09
-1.5835e-09
3.75386e-10
-8.92719e-11
2.10622e-11
-5.07712e-12
1.15579e-12
-3.06818e-13
5.16163e-14
-2.64527e-14
-3.07319e-15
-5.47769e-15
-2.71969e-15
-2.01949e-15
-1.25532e-15
-8.36348e-16
-5.57829e-16
-2.35845e-16
-7.33785e-17
2.81216e-08
-6.67235e-09
1.58139e-09
-3.75323e-10
8.87777e-11
-2.11458e-11
4.94788e-12
-1.20921e-12
2.62977e-13
-7.70803e-14
8.50351e-15
-8.5267e-15
-2.26966e-15
-2.19409e-15
-1.21941e-15
-8.07539e-16
-5.4201e-16
-3.31799e-16
-2.48539e-16
-1.16378e-16
-2.81129e-08
6.67432e-09
-1.58464e-09
3.76135e-10
-8.94577e-11
2.12118e-11
-5.06834e-12
1.19184e-12
-2.92156e-13
6.43198e-14
-1.87849e-14
2.13486e-15
-2.04112e-15
-5.19463e-16
-5.5581e-16
-2.85917e-16
-2.07615e-16
-1.20508e-16
-1.03722e-16
-6.62117e-17
)
;

boundaryField
{
    movingWall
    {
        type            calculated;
        value           uniform -0;
    }
    fixedWalls
    {
        type            calculated;
        value           uniform -0;
    }
    frontAndBack
    {
        type            empty;
    }
}


// ************************************************************************* //
