/*--------------------------------*- C++ -*----------------------------------*\
| =========                 |                                                 |
| \\      /  F ield         | OpenFOAM: The Open Source CFD Toolbox           |
|  \\    /   O peration     | Version:  2312                                  |
|   \\  /    A nd           | Website:  www.openfoam.com                      |
|    \\/     M anipulation  |                                                 |
\*---------------------------------------------------------------------------*/
FoamFile
{
    version     2.0;
    format      ascii;
    arch        "LSB;label=32;scalar=64";
    class       volVectorField;
    location    "4.25";
    object      vorticityField;
}
// * * * * * * * * * * * * * * * * * * * * * * * * * * * * * * * * * * * * * //

dimensions      [0 0 -1 0 0 0 0];

internalField   nonuniform List<vector> 
400
(
(0 -0 2.1853e-06)
(0 -0 -2.70718e-06)
(0 -0 6.43086e-07)
(0 -0 -1.5312e-07)
(0 -0 3.62845e-08)
(0 -0 -8.71395e-09)
(0 -0 2.02791e-09)
(0 -0 -5.13641e-10)
(0 -0 1.02424e-10)
(0 -0 -3.81754e-11)
(0 -0 -2.74391e-13)
(0 -0 -6.42668e-12)
(0 -0 -2.93113e-12)
(0 -0 -2.28487e-12)
(0 -0 -1.41094e-12)
(0 -0 -8.74587e-13)
(0 -0 -5.0624e-13)
(0 -0 -2.67147e-13)
(0 -0 -8.73903e-14)
(0 -0 1.59174e-14)
(0 -0 -2.17783e-06)
(0 -0 2.70534e-06)
(0 -0 -6.42624e-07)
(0 -0 1.5264e-07)
(0 -0 -3.6257e-08)
(0 -0 8.61163e-09)
(0 -0 -2.04591e-09)
(0 -0 4.85579e-10)
(0 -0 -1.15631e-10)
(0 -0 2.72216e-11)
(0 -0 -6.76395e-12)
(0 -0 1.28395e-12)
(0 -0 -5.91153e-13)
(0 -0 -1.3375e-13)
(0 -0 -1.8049e-13)
(0 -0 -1.56587e-13)
(0 -0 -1.69821e-13)
(0 -0 -1.20424e-13)
(0 -0 -8.58225e-14)
(0 -0 -1.6888e-13)
(0 -0 2.17738e-06)
(0 -0 -2.69787e-06)
(0 -0 6.40143e-07)
(0 -0 -1.51884e-07)
(0 -0 3.60362e-08)
(0 -0 -8.55024e-09)
(0 -0 2.0284e-09)
(0 -0 -4.81518e-10)
(0 -0 1.13999e-10)
(0 -0 -2.73463e-11)
(0 -0 6.1824e-12)
(0 -0 -1.8479e-12)
(0 -0 6.92883e-14)
(0 -0 -3.66395e-13)
(0 -0 -2.33438e-13)
(0 -0 -2.1934e-13)
(0 -0 -2.46927e-13)
(0 -0 -2.41963e-13)
(0 -0 -1.98021e-13)
(0 -0 -1.64666e-13)
(0 -0 -2.18237e-06)
(0 -0 2.69412e-06)
(0 -0 -6.39091e-07)
(0 -0 1.51594e-07)
(0 -0 -3.59587e-08)
(0 -0 8.52922e-09)
(0 -0 -2.02342e-09)
(0 -0 4.7964e-10)
(0 -0 -1.14054e-10)
(0 -0 2.67572e-11)
(0 -0 -6.65845e-12)
(0 -0 1.29889e-12)
(0 -0 -6.21342e-13)
(0 -0 -1.51282e-13)
(0 -0 -2.78526e-13)
(0 -0 -2.73967e-13)
(0 -0 -2.39177e-13)
(0 -0 -2.01125e-13)
(0 -0 -3.00323e-13)
(0 -0 -2.08936e-13)
(0 -0 2.17989e-06)
(0 -0 -2.68818e-06)
(0 -0 6.37589e-07)
(0 -0 -1.51216e-07)
(0 -0 3.58633e-08)
(0 -0 -8.50629e-09)
(0 -0 2.01701e-09)
(0 -0 -4.78814e-10)
(0 -0 1.13057e-10)
(0 -0 -2.73235e-11)
(0 -0 5.9842e-12)
(0 -0 -1.86093e-12)
(0 -0 1.71192e-14)
(0 -0 -3.5406e-13)
(0 -0 -2.53815e-13)
(0 -0 -2.9608e-13)
(0 -0 -2.46241e-13)
(0 -0 -3.21274e-13)
(0 -0 -2.84608e-13)
(0 -0 -2.55427e-13)
(0 -0 -2.17685e-06)
(0 -0 2.68371e-06)
(0 -0 -6.36515e-07)
(0 -0 1.50958e-07)
(0 -0 -3.58023e-08)
(0 -0 8.49069e-09)
(0 -0 -2.01417e-09)
(0 -0 4.77186e-10)
(0 -0 -1.13707e-10)
(0 -0 2.63847e-11)
(0 -0 -6.76619e-12)
(0 -0 1.13787e-12)
(0 -0 -7.63236e-13)
(0 -0 -2.88812e-13)
(0 -0 -2.90029e-13)
(0 -0 -3.13534e-13)
(0 -0 -3.36081e-13)
(0 -0 -3.20317e-13)
(0 -0 -2.67982e-13)
(0 -0 -3.02436e-13)
(0 -0 2.17241e-06)
(0 -0 -2.67958e-06)
(0 -0 6.35557e-07)
(0 -0 -1.50735e-07)
(0 -0 3.57496e-08)
(0 -0 -8.47912e-09)
(0 -0 2.01056e-09)
(0 -0 -4.77235e-10)
(0 -0 1.12751e-10)
(0 -0 -2.71537e-11)
(0 -0 5.9741e-12)
(0 -0 -1.93741e-12)
(0 -0 5.77953e-14)
(0 -0 -4.97824e-13)
(0 -0 -3.94506e-13)
(0 -0 -3.28283e-13)
(0 -0 -2.84522e-13)
(0 -0 -2.18594e-13)
(0 -0 -2.01478e-13)
(0 -0 -2.50993e-13)
(0 -0 -2.16945e-06)
(0 -0 2.67666e-06)
(0 -0 -6.3486e-07)
(0 -0 1.50568e-07)
(0 -0 -3.57102e-08)
(0 -0 8.46884e-09)
(0 -0 -2.00898e-09)
(0 -0 4.76029e-10)
(0 -0 -1.13277e-10)
(0 -0 2.6527e-11)
(0 -0 -6.76529e-12)
(0 -0 1.17252e-12)
(0 -0 -7.22774e-13)
(0 -0 -2.52276e-13)
(0 -0 -4.25937e-13)
(0 -0 -4.20075e-13)
(0 -0 -3.57456e-13)
(0 -0 -3.06111e-13)
(0 -0 -2.63689e-13)
(0 -0 -2.80912e-13)
(0 -0 2.16617e-06)
(0 -0 -2.67372e-06)
(0 -0 6.34161e-07)
(0 -0 -1.50402e-07)
(0 -0 3.56698e-08)
(0 -0 -8.45995e-09)
(0 -0 2.00609e-09)
(0 -0 -4.76067e-10)
(0 -0 1.12594e-10)
(0 -0 -2.71104e-11)
(0 -0 6.08386e-12)
(0 -0 -1.81526e-12)
(0 -0 1.59608e-14)
(0 -0 -4.24858e-13)
(0 -0 -2.30208e-13)
(0 -0 -2.75942e-13)
(0 -0 -3.30868e-13)
(0 -0 -2.9137e-13)
(0 -0 -2.6673e-13)
(0 -0 -2.17627e-13)
(0 -0 -2.16307e-06)
(0 -0 2.67102e-06)
(0 -0 -6.33521e-07)
(0 -0 1.5025e-07)
(0 -0 -3.56345e-08)
(0 -0 8.45096e-09)
(0 -0 -2.00461e-09)
(0 -0 4.75136e-10)
(0 -0 -1.13129e-10)
(0 -0 2.64095e-11)
(0 -0 -6.61584e-12)
(0 -0 1.21446e-12)
(0 -0 -5.98552e-13)
(0 -0 -9.91793e-14)
(0 -0 -1.7728e-13)
(0 -0 -1.9664e-13)
(0 -0 -2.06146e-13)
(0 -0 -1.35131e-13)
(0 -0 -2.07167e-13)
(0 -0 -1.52936e-13)
(0 -0 2.15976e-06)
(0 -0 -2.66834e-06)
(0 -0 6.32888e-07)
(0 -0 -1.50101e-07)
(0 -0 3.55989e-08)
(0 -0 -8.4432e-09)
(0 -0 2.00214e-09)
(0 -0 -4.75237e-10)
(0 -0 1.12323e-10)
(0 -0 -2.70099e-11)
(0 -0 6.08688e-12)
(0 -0 -1.76431e-12)
(0 -0 1.06561e-13)
(0 -0 -2.76455e-13)
(0 -0 -2.21521e-13)
(0 -0 -1.25029e-13)
(0 -0 -2.3694e-13)
(0 -0 -1.16456e-13)
(0 -0 -1.49997e-13)
(0 -0 -1.37548e-13)
(0 -0 -2.15656e-06)
(0 -0 2.6658e-06)
(0 -0 -6.32292e-07)
(0 -0 1.4996e-07)
(0 -0 -3.55664e-08)
(0 -0 8.43517e-09)
(0 -0 -2.0008e-09)
(0 -0 4.74339e-10)
(0 -0 -1.12683e-10)
(0 -0 2.65745e-11)
(0 -0 -6.51325e-12)
(0 -0 1.37194e-12)
(0 -0 -5.32155e-13)
(0 -0 1.42509e-14)
(0 -0 -1.27304e-13)
(0 -0 -7.95181e-14)
(0 -0 -1.01845e-13)
(0 -0 -1.54778e-13)
(0 -0 -1.02176e-13)
(0 -0 -1.09173e-13)
(0 -0 2.15345e-06)
(0 -0 -2.6634e-06)
(0 -0 6.31725e-07)
(0 -0 -1.49828e-07)
(0 -0 3.55348e-08)
(0 -0 -8.42824e-09)
(0 -0 1.99882e-09)
(0 -0 -4.74256e-10)
(0 -0 1.12365e-10)
(0 -0 -2.67891e-11)
(0 -0 6.14333e-12)
(0 -0 -1.65917e-12)
(0 -0 2.57781e-13)
(0 -0 -2.56903e-13)
(0 -0 -1.17642e-13)
(0 -0 -1.53186e-13)
(0 -0 -2.24776e-14)
(0 -0 -1.17226e-13)
(0 -0 -5.89919e-14)
(0 -0 -6.25965e-14)
(0 -0 -2.15039e-06)
(0 -0 2.66108e-06)
(0 -0 -6.31179e-07)
(0 -0 1.49699e-07)
(0 -0 -3.55049e-08)
(0 -0 8.42094e-09)
(0 -0 -1.99737e-09)
(0 -0 4.7365e-10)
(0 -0 -1.1243e-10)
(0 -0 2.65326e-11)
(0 -0 -6.49219e-12)
(0 -0 1.32341e-12)
(0 -0 -4.33214e-13)
(0 -0 1.79241e-14)
(0 -0 -1.14159e-13)
(0 -0 -4.12055e-14)
(0 -0 -1.42114e-14)
(0 -0 3.03291e-14)
(0 -0 -1.31365e-14)
(0 -0 -1.78685e-14)
(0 -0 2.14779e-06)
(0 -0 -2.65902e-06)
(0 -0 6.30692e-07)
(0 -0 -1.49584e-07)
(0 -0 3.54779e-08)
(0 -0 -8.41456e-09)
(0 -0 1.9958e-09)
(0 -0 -4.73384e-10)
(0 -0 1.12249e-10)
(0 -0 -2.6651e-11)
(0 -0 6.35418e-12)
(0 -0 -1.50843e-12)
(0 -0 3.17275e-13)
(0 -0 -1.10129e-13)
(0 -0 3.87531e-14)
(0 -0 -1.47383e-14)
(0 -0 -6.92011e-14)
(0 -0 3.28829e-14)
(0 -0 -3.85237e-14)
(0 -0 1.5514e-14)
(0 -0 -2.14504e-06)
(0 -0 2.65694e-06)
(0 -0 -6.302e-07)
(0 -0 1.49468e-07)
(0 -0 -3.54504e-08)
(0 -0 8.40814e-09)
(0 -0 -1.99424e-09)
(0 -0 4.73076e-10)
(0 -0 -1.12154e-10)
(0 -0 2.66441e-11)
(0 -0 -6.34212e-12)
(0 -0 1.47331e-12)
(0 -0 -4.3701e-13)
(0 -0 7.48256e-14)
(0 -0 -1.54494e-14)
(0 -0 1.83476e-14)
(0 -0 6.39317e-14)
(0 -0 -2.24702e-14)
(0 -0 -3.28222e-14)
(0 -0 3.88378e-14)
(0 -0 2.14346e-06)
(0 -0 -2.65539e-06)
(0 -0 6.2983e-07)
(0 -0 -1.49379e-07)
(0 -0 3.54294e-08)
(0 -0 -8.4032e-09)
(0 -0 1.99311e-09)
(0 -0 -4.7274e-10)
(0 -0 1.12117e-10)
(0 -0 -2.6629e-11)
(0 -0 6.3277e-12)
(0 -0 -1.53743e-12)
(0 -0 2.923e-13)
(0 -0 -1.81016e-13)
(0 -0 -4.58815e-15)
(0 -0 2.86047e-14)
(0 -0 4.83497e-14)
(0 -0 1.30548e-13)
(0 -0 1.00624e-13)
(0 -0 2.89233e-14)
(0 -0 -2.141e-06)
(0 -0 2.65361e-06)
(0 -0 -6.29406e-07)
(0 -0 1.49279e-07)
(0 -0 -3.54054e-08)
(0 -0 8.39742e-09)
(0 -0 -1.99178e-09)
(0 -0 4.72395e-10)
(0 -0 -1.12098e-10)
(0 -0 2.65457e-11)
(0 -0 -6.2821e-12)
(0 -0 1.50119e-12)
(0 -0 -3.17015e-13)
(0 -0 1.01875e-13)
(0 -0 -1.61937e-14)
(0 -0 9.89363e-15)
(0 -0 -1.15656e-14)
(0 -0 -4.83699e-14)
(0 -0 4.8445e-14)
(0 -0 3.09224e-14)
(0 -0 2.14198e-06)
(0 -0 -2.65509e-06)
(0 -0 6.30234e-07)
(0 -0 -1.49587e-07)
(0 -0 3.55058e-08)
(0 -0 -8.42741e-09)
(0 -0 2.00052e-09)
(0 -0 -4.74779e-10)
(0 -0 1.12752e-10)
(0 -0 -2.66941e-11)
(0 -0 6.34036e-12)
(0 -0 -1.48389e-12)
(0 -0 4.43526e-13)
(0 -0 -3.39471e-15)
(0 -0 1.1155e-13)
(0 -0 -1.35754e-14)
(0 -0 -6.63613e-15)
(0 -0 2.93471e-14)
(0 -0 -3.26679e-14)
(0 -0 9.38662e-15)
(0 -0 -2.14423e-06)
(0 -0 2.65458e-06)
(0 -0 -6.3066e-07)
(0 -0 1.49939e-07)
(0 -0 -3.55996e-08)
(0 -0 8.5028e-09)
(0 -0 -2.00533e-09)
(0 -0 4.89897e-10)
(0 -0 -1.09309e-10)
(0 -0 3.09692e-11)
(0 -0 -4.29403e-12)
(0 -0 3.08384e-12)
(0 -0 5.74824e-13)
(0 -0 6.90632e-13)
(0 -0 3.48615e-13)
(0 -0 2.5166e-13)
(0 -0 1.52066e-13)
(0 -0 6.45994e-14)
(0 -0 5.96398e-14)
(0 -0 4.40984e-14)
)
;

boundaryField
{
    movingWall
    {
        type            calculated;
        value           nonuniform List<vector> 
20
(
(0 -0 -2.1784e-06)
(0 -0 2.66772e-06)
(0 -0 -6.36084e-07)
(0 -0 1.51871e-07)
(0 -0 -3.61609e-08)
(0 -0 8.72422e-09)
(0 -0 -2.04915e-09)
(0 -0 5.1772e-10)
(0 -0 -1.08666e-10)
(0 -0 3.6441e-11)
(0 -0 -2.22169e-12)
(0 -0 4.87182e-12)
(0 -0 1.55533e-12)
(0 -0 1.43639e-12)
(0 -0 7.33897e-13)
(0 -0 5.23318e-13)
(0 -0 3.27403e-13)
(0 -0 9.92071e-14)
(0 -0 9.42475e-14)
(0 -0 6.14023e-14)
)
;
    }
    fixedWalls
    {
        type            calculated;
        value           nonuniform List<vector> 
60
(
(0 -0 1.14676e-05)
(0 -0 -1.14563e-05)
(0 -0 1.14339e-05)
(0 -0 -1.14187e-05)
(0 -0 1.1394e-05)
(0 -0 -1.13751e-05)
(0 -0 1.13574e-05)
(0 -0 -1.1345e-05)
(0 -0 1.13325e-05)
(0 -0 -1.13211e-05)
(0 -0 1.13098e-05)
(0 -0 -1.12991e-05)
(0 -0 1.12889e-05)
(0 -0 -1.12791e-05)
(0 -0 1.12704e-05)
(0 -0 -1.12617e-05)
(0 -0 1.12551e-05)
(0 -0 -1.12475e-05)
(0 -0 1.12457e-05)
(0 -0 -1.12455e-05)
(0 -0 9.08858e-15)
(0 -0 -1.78946e-13)
(0 -0 -1.46038e-13)
(0 -0 -1.57313e-13)
(0 -0 -2.06234e-13)
(0 -0 -2.82642e-13)
(0 -0 -2.40925e-13)
(0 -0 -2.6725e-13)
(0 -0 -1.85215e-13)
(0 -0 -1.08051e-13)
(0 -0 -1.15158e-13)
(0 -0 -1.03365e-13)
(0 -0 -4.17436e-14)
(0 -0 2.78551e-15)
(0 -0 3.58181e-14)
(0 -0 7.22857e-14)
(0 -0 4.0096e-14)
(0 -0 2.93514e-14)
(0 -0 1.9446e-14)
(0 -0 5.35897e-14)
(0 -0 2.20534e-06)
(0 -0 -2.71725e-06)
(0 -0 6.46972e-07)
(0 -0 -1.54848e-07)
(0 -0 3.66668e-08)
(0 -0 -8.94192e-09)
(0 -0 2.03961e-09)
(0 -0 -5.53312e-10)
(0 -0 9.10529e-11)
(0 -0 -5.0336e-11)
(0 -0 -7.14836e-12)
(0 -0 -1.15813e-11)
(0 -0 -6.26315e-12)
(0 -0 -4.47084e-12)
(0 -0 -2.83614e-12)
(0 -0 -1.73167e-12)
(0 -0 -8.71919e-13)
(0 -0 -4.94395e-13)
(0 -0 -1.66407e-13)
(0 -0 5.05251e-14)
)
;
    }
    frontAndBack
    {
        type            empty;
    }
}


// ************************************************************************* //
