/*--------------------------------*- C++ -*----------------------------------*\
| =========                 |                                                 |
| \\      /  F ield         | OpenFOAM: The Open Source CFD Toolbox           |
|  \\    /   O peration     | Version:  2312                                  |
|   \\  /    A nd           | Website:  www.openfoam.com                      |
|    \\/     M anipulation  |                                                 |
\*---------------------------------------------------------------------------*/
FoamFile
{
    version     2.0;
    format      ascii;
    arch        "LSB;label=32;scalar=64";
    class       volScalarField;
    location    "5.75";
    object      divPhi;
}
// * * * * * * * * * * * * * * * * * * * * * * * * * * * * * * * * * * * * * //

dimensions      [0 0 -1 0 0 0 0];

internalField   nonuniform List<scalar> 
400
(
-2.71051e-14
-5.12967e-15
3.86758e-15
-2.26337e-14
1.14319e-14
-4.91306e-15
1.92549e-14
-3.37281e-15
-1.46719e-14
1.25534e-14
6.75371e-19
-6.7604e-15
-4.75158e-15
4.95035e-16
-4.49822e-15
1.36845e-14
-6.58006e-15
-7.55435e-15
9.12841e-15
0
0
-7.67684e-15
1.28175e-14
-1.50023e-14
1.57696e-14
-1.88021e-14
1.31342e-14
-1.97809e-14
2.72548e-14
1.11108e-14
7.72847e-15
1.34659e-14
-9.88343e-15
-1.40763e-14
1.07894e-14
-1.04864e-14
-9.19936e-15
2.18691e-15
5.94225e-15
0
-2.71051e-14
1.63249e-14
-1.42664e-14
2.24911e-14
-1.0476e-14
1.76437e-14
1.75337e-14
1.48506e-14
-8.95509e-15
2.96157e-14
-1.99902e-14
1.85902e-14
-2.07135e-15
2.0493e-14
-9.10281e-15
-4.91892e-15
-3.88932e-14
3.26434e-14
-1.92565e-14
0
0
-1.89975e-14
1.66448e-14
-2.05895e-14
-9.53138e-15
-2.27865e-14
9.45465e-15
-1.3526e-14
-1.8804e-14
-7.05704e-15
6.53405e-15
3.68267e-15
-2.68094e-14
1.16298e-14
-1.00179e-14
-2.02394e-14
2.36981e-14
3.32192e-15
1.61988e-14
0
0
-1.23655e-15
1.57319e-14
-9.22265e-15
6.04444e-15
6.75813e-15
4.58239e-15
4.53253e-15
-1.10406e-14
-7.92382e-15
1.01336e-15
1.61531e-14
-3.19752e-14
6.55739e-15
1.03976e-14
8.49519e-15
1.48525e-15
-4.31689e-15
-1.99707e-14
0
0
5.85679e-15
-3.8348e-14
2.22435e-14
4.14662e-15
-3.26461e-15
2.43988e-14
-7.15277e-15
-2.4581e-14
1.09584e-16
-1.44337e-14
7.60794e-15
-1.05365e-14
-7.44035e-15
4.08074e-14
2.02408e-14
7.10826e-15
-3.61801e-15
8.15032e-15
0
0
-8.21329e-15
-1.12119e-14
1.52095e-14
-3.18215e-14
2.87238e-14
-2.12604e-14
-1.30619e-14
1.93345e-14
-2.53585e-14
1.60315e-14
2.45888e-14
-1.78249e-14
1.65465e-14
-4.04655e-14
1.76179e-14
-1.9691e-16
-2.78247e-14
8.06257e-16
0
0
-1.72887e-14
-3.33595e-15
-2.57871e-14
1.05949e-14
1.8355e-14
-1.27146e-14
1.16423e-14
-3.46608e-14
1.43579e-14
-1.66688e-14
2.30419e-15
-8.68572e-15
-1.6825e-14
7.8179e-15
-6.88899e-15
-9.57782e-15
-1.9422e-14
1.8164e-14
0
0
2.21397e-14
-7.15399e-15
2.11257e-14
1.95262e-14
4.53921e-16
-3.14151e-14
1.21634e-14
-1.41467e-15
-1.32986e-14
9.55733e-15
-3.33081e-15
-1.86948e-14
2.12487e-14
1.51134e-14
-1.88063e-14
-2.06061e-14
-4.93311e-15
1.40934e-14
0
0
-2.04828e-14
-7.22543e-16
1.80381e-14
-1.93334e-14
-1.02267e-14
4.66021e-15
1.51796e-14
1.90099e-15
-6.80292e-15
-1.02675e-14
-1.0922e-14
1.16576e-14
-1.46359e-16
-2.82386e-14
2.23932e-14
1.39228e-14
-4.57888e-15
1.71709e-14
0
0
2.12268e-14
-2.85866e-15
-2.09523e-14
1.6119e-14
4.35897e-15
8.09106e-15
-2.98193e-14
-2.35375e-14
4.45666e-15
9.67453e-15
-1.87429e-14
1.27339e-14
1.86696e-15
-2.73064e-14
-8.75218e-15
1.68417e-14
-1.61932e-14
-1.21384e-14
-2.71051e-14
0
-1.17629e-14
2.88577e-15
-1.65898e-14
-3.255e-15
-4.06452e-15
4.33185e-15
1.41506e-14
-1.0434e-14
3.49195e-15
3.83553e-15
1.3783e-15
2.58146e-14
-1.13643e-14
1.88501e-15
7.74149e-15
-3.8647e-15
-6.74216e-15
8.41876e-15
-2.71051e-14
0
-2.60254e-14
-2.29322e-14
1.7593e-14
5.44234e-15
1.33836e-15
1.23161e-14
-2.01084e-14
-1.34546e-14
5.69375e-15
-1.60355e-14
-2.66357e-15
1.65323e-14
-4.12217e-14
2.51796e-14
6.85129e-15
-4.56521e-15
-8.99119e-15
-2.87908e-15
2.71051e-14
2.71051e-14
-1.30331e-14
-1.40626e-15
-3.49259e-14
2.35946e-14
6.06965e-15
2.9131e-14
3.03226e-16
-2.26024e-14
1.78797e-14
-6.01135e-15
6.12549e-15
-4.48516e-14
2.24372e-14
-7.10913e-15
1.85569e-14
-1.93011e-14
1.02183e-14
1.28488e-14
0
2.71051e-14
-3.84795e-14
2.28578e-14
-1.19645e-14
1.17086e-14
1.7037e-14
-1.41622e-14
1.04694e-14
1.21236e-14
-1.78368e-14
-2.31097e-14
-3.58885e-15
1.09634e-14
2.06036e-16
1.59427e-14
9.96254e-15
5.10828e-15
2.83459e-15
2.13499e-14
0
-2.71051e-14
-1.19912e-14
-8.13601e-15
-6.36466e-15
9.0771e-16
-2.47323e-14
4.16635e-14
1.22634e-14
7.54201e-15
2.08963e-14
8.21924e-15
-4.83596e-16
1.91563e-14
4.50693e-15
-1.63053e-14
1.67013e-14
1.57427e-15
1.5805e-15
1.4648e-14
-2.71051e-14
0
2.83885e-15
-3.38134e-14
4.3333e-15
1.31014e-14
1.34802e-14
-1.9311e-14
2.20239e-14
-6.15173e-15
2.219e-14
5.08263e-15
-9.80949e-15
5.51677e-16
-3.25406e-15
2.6384e-14
-3.0634e-14
1.22147e-14
-4.6177e-15
1.27946e-14
0
0
8.93126e-15
-1.0738e-14
1.73463e-14
8.28257e-15
9.85648e-15
1.67892e-15
1.18837e-14
-1.49322e-14
1.30953e-14
-9.84419e-15
-3.64843e-15
-7.47319e-15
-3.64519e-15
-6.57766e-15
-2.20967e-15
2.99235e-15
1.68781e-14
1.90038e-14
0
0
2.96352e-14
-4.02379e-14
-4.0583e-15
2.05582e-14
1.27928e-15
8.81832e-15
1.24675e-14
-2.32775e-15
1.81123e-14
-8.36213e-15
-9.69877e-15
-2.38583e-14
2.72326e-14
-2.94095e-14
1.44247e-14
-1.05471e-14
-1.60263e-14
-1.9556e-14
0
0
0
-2.71051e-14
0
-2.71051e-14
2.71051e-14
0
2.71051e-14
0
-2.71051e-14
0
-2.71051e-14
0
0
0
-2.71051e-14
0
0
0
0
)
;

boundaryField
{
    movingWall
    {
        type            extrapolatedCalculated;
        value           nonuniform List<scalar> 
20
(
0
0
-2.71051e-14
0
-2.71051e-14
2.71051e-14
0
2.71051e-14
0
-2.71051e-14
0
-2.71051e-14
0
0
0
-2.71051e-14
0
0
0
0
)
;
    }
    fixedWalls
    {
        type            extrapolatedCalculated;
        value           nonuniform List<scalar> 
60
(
-2.71051e-14
0
-2.71051e-14
0
0
0
0
0
0
0
0
0
0
2.71051e-14
2.71051e-14
-2.71051e-14
0
0
0
0
0
0
0
0
0
0
0
0
0
0
-2.71051e-14
-2.71051e-14
2.71051e-14
0
0
-2.71051e-14
0
0
0
0
-2.71051e-14
-5.12967e-15
3.86758e-15
-2.26337e-14
1.14319e-14
-4.91306e-15
1.92549e-14
-3.37281e-15
-1.46719e-14
1.25534e-14
6.75371e-19
-6.7604e-15
-4.75158e-15
4.95035e-16
-4.49822e-15
1.36845e-14
-6.58006e-15
-7.55435e-15
9.12841e-15
0
)
;
    }
    frontAndBack
    {
        type            empty;
    }
}


// ************************************************************************* //
