/*--------------------------------*- C++ -*----------------------------------*\
| =========                 |                                                 |
| \\      /  F ield         | OpenFOAM: The Open Source CFD Toolbox           |
|  \\    /   O peration     | Version:  2312                                  |
|   \\  /    A nd           | Website:  www.openfoam.com                      |
|    \\/     M anipulation  |                                                 |
\*---------------------------------------------------------------------------*/
FoamFile
{
    version     2.0;
    format      ascii;
    arch        "LSB;label=32;scalar=64";
    class       volScalarField;
    location    "5.75";
    object      divU;
}
// * * * * * * * * * * * * * * * * * * * * * * * * * * * * * * * * * * * * * //

dimensions      [0 0 -1 0 0 0 0];

internalField   nonuniform List<scalar> 
400
(
1.42844e-11
-2.13104e-12
4.17258e-13
-1.54021e-13
2.58388e-14
1.76418e-14
-1.42266e-14
-3.79278e-15
9.19964e-15
2.22685e-14
1.9959e-15
-1.06724e-14
4.85967e-15
1.85914e-14
2.35338e-14
-1.71662e-14
-2.60427e-14
1.91224e-14
-1.69363e-14
0
-2.36627e-11
3.01022e-12
-6.52678e-13
2.87062e-13
-1.0393e-13
4.76245e-14
4.5201e-14
-1.97792e-14
-2.70152e-15
-9.66355e-16
5.53246e-15
-2.97156e-15
1.10636e-14
-6.24517e-14
2.76264e-14
-1.18257e-14
6.50382e-14
-6.92514e-15
2.67532e-15
0
5.99022e-12
-9.65393e-13
2.02393e-13
-1.23365e-13
1.24657e-14
-5.43325e-14
-7.70885e-15
5.04718e-14
-9.58567e-16
3.57811e-14
3.19698e-15
-4.85485e-14
5.28187e-14
-2.30899e-14
3.31452e-16
-1.96886e-15
-4.20295e-14
-1.45417e-14
3.7859e-14
0
1.22515e-11
-1.51174e-12
3.14856e-13
-1.40359e-13
2.93498e-14
2.17446e-14
1.07165e-14
-4.58772e-14
-1.03849e-15
7.09825e-15
-1.39209e-14
1.30404e-14
-1.02634e-16
-1.96545e-14
1.3685e-14
6.32231e-15
1.86266e-14
3.51374e-14
1.50388e-14
-2.71051e-14
-1.47451e-11
2.14189e-12
-4.39165e-13
2.21954e-13
-3.04309e-14
-1.31624e-15
-2.66198e-14
2.57133e-14
2.25178e-14
1.11797e-14
-5.3485e-15
8.15598e-15
-3.22679e-14
7.43775e-15
1.3793e-14
9.85315e-15
7.77015e-15
-2.65685e-14
5.55273e-15
0
6.50521e-12
-1.44135e-12
2.60687e-13
-1.32322e-13
3.81691e-14
2.71986e-14
-6.11789e-15
-7.82088e-15
-2.68138e-14
-7.00638e-15
-3.4824e-15
3.82205e-14
-2.7439e-14
5.71864e-14
-1.71191e-14
1.59939e-14
-3.81686e-15
-1.26336e-14
9.11802e-15
0
4.63496e-12
-3.01915e-13
3.02445e-14
-2.57905e-15
-2.69586e-14
5.3226e-16
1.52672e-14
1.34762e-15
6.44997e-15
-3.17893e-16
-4.94438e-15
2.99881e-14
-5.57226e-14
5.84393e-16
1.78523e-14
-3.48022e-14
2.74381e-14
-2.48093e-14
1.6562e-15
0
-8.26704e-12
1.52767e-12
-3.45206e-13
1.36944e-13
-3.13801e-14
4.90159e-14
-1.52819e-14
-3.0522e-14
-5.83739e-14
1.76635e-14
-1.93402e-14
5.19338e-14
-9.43751e-15
4.56447e-14
-1.8986e-14
-2.84137e-14
5.14484e-14
-1.44544e-14
-8.58232e-15
0
3.79471e-12
-8.84094e-13
1.81253e-13
-5.83935e-14
3.28838e-14
-3.64365e-15
1.88785e-14
-5.1118e-15
3.29781e-14
-2.74871e-14
-2.93036e-14
1.71989e-16
-1.4407e-14
-7.14241e-15
6.70323e-15
-2.87698e-14
4.75638e-15
-3.34733e-15
-7.13342e-15
0
-2.43945e-13
-5.80267e-13
1.07577e-13
-4.19566e-14
-4.26343e-14
4.0491e-14
6.41622e-15
-4.25842e-14
1.03873e-14
4.41234e-14
-4.83406e-16
-1.38276e-14
2.00563e-15
-7.25283e-15
7.11833e-15
2.97201e-14
1.65452e-14
-1.85881e-14
1.96979e-15
0
-1.40946e-12
1.73092e-12
-3.1442e-13
1.90961e-13
-3.64676e-14
8.38087e-14
-1.89588e-14
-7.02826e-16
-1.17425e-16
-3.54453e-14
-8.79811e-15
-2.66232e-14
2.58437e-14
1.61021e-14
-9.05805e-15
-4.22795e-14
-1.11207e-14
5.14386e-14
2.18638e-15
0
5.39391e-12
-2.434e-12
4.37544e-13
-2.66599e-13
4.48157e-14
5.75059e-14
7.26505e-15
-1.66931e-14
-1.17151e-14
5.37237e-15
4.29019e-14
-1.92808e-14
-3.39209e-14
-2.1798e-14
7.9091e-15
1.77336e-14
-5.76039e-15
1.16953e-14
-3.27893e-14
-2.71051e-14
-9.73071e-12
3.31995e-12
-6.75733e-13
3.15526e-13
-5.91524e-14
-3.51634e-15
2.24546e-15
9.11074e-15
-1.35366e-14
1.05066e-16
-2.11358e-14
3.57337e-15
-6.13946e-15
1.76782e-14
2.44767e-15
-2.68689e-14
-5.4089e-15
3.24271e-14
3.68706e-14
0
8.53809e-12
-2.56804e-12
4.84087e-13
-2.2726e-13
3.83708e-14
1.30218e-14
4.22723e-14
-6.06226e-15
-3.34365e-14
2.04532e-14
-4.32792e-15
-5.39272e-14
1.95305e-15
-6.05842e-16
-1.18662e-14
-9.81565e-15
1.35572e-14
-2.50456e-15
1.19835e-14
0
-1.00289e-12
9.39156e-13
-1.87834e-13
7.15616e-14
-2.86755e-14
8.39701e-15
-5.67297e-14
4.15024e-14
1.2456e-14
-5.87969e-15
-1.97195e-14
-2.41603e-15
1.98879e-14
2.23706e-14
-1.54515e-15
1.78889e-14
-2.98014e-14
3.42951e-14
-9.92531e-15
0
-8.86335e-12
1.16057e-12
-2.35765e-13
1.16457e-13
3.76699e-15
1.24988e-14
3.09146e-14
1.45065e-14
-7.34972e-14
3.68994e-15
6.43652e-15
-1.13414e-15
-1.9396e-14
2.60515e-14
-5.37344e-14
-1.59336e-14
3.58481e-14
2.38528e-15
-7.98506e-15
0
1.08691e-11
-1.46865e-12
3.10387e-13
-1.37405e-13
1.05392e-14
-2.70511e-14
-1.47748e-15
1.13858e-15
3.95145e-14
6.58612e-14
1.66318e-14
-5.28268e-15
3.35612e-14
1.57836e-16
2.60977e-14
-6.42279e-15
3.33662e-16
1.74953e-14
-1.83595e-14
-2.71051e-14
-5.42101e-14
-1.31377e-13
4.73017e-14
-2.27343e-14
1.80283e-14
1.66641e-14
2.93619e-14
-2.50682e-14
-3.069e-14
1.45998e-16
-5.56005e-14
-1.13944e-14
-4.54744e-15
2.74393e-14
-6.12931e-15
-2.63033e-14
4.19286e-14
-6.30554e-15
1.76209e-14
0
-1.25767e-11
1.60793e-12
-3.1693e-13
1.22355e-13
-3.84684e-14
-1.76659e-14
1.54037e-14
-1.03175e-14
3.50598e-14
1.99735e-14
2.24827e-14
-7.13796e-15
-2.79263e-14
-2.95123e-15
2.33684e-14
-1.27732e-14
-3.92111e-14
9.72025e-15
-4.51949e-14
0
8.51099e-12
-1.21973e-12
2.71051e-13
-8.13152e-14
-2.71051e-14
0
2.71051e-14
-2.71051e-14
0
-2.71051e-14
0
-2.71051e-14
0
-2.71051e-14
0
0
0
0
2.71051e-14
-2.71051e-14
)
;

boundaryField
{
    movingWall
    {
        type            extrapolatedCalculated;
        value           nonuniform List<scalar> 
20
(
8.51099e-12
-1.21973e-12
2.71051e-13
-8.13152e-14
-2.71051e-14
0
2.71051e-14
-2.71051e-14
0
-2.71051e-14
0
-2.71051e-14
0
-2.71051e-14
0
0
0
0
2.71051e-14
-2.71051e-14
)
;
    }
    fixedWalls
    {
        type            extrapolatedCalculated;
        value           nonuniform List<scalar> 
60
(
1.42844e-11
-2.36627e-11
5.99022e-12
1.22515e-11
-1.47451e-11
6.50521e-12
4.63496e-12
-8.26704e-12
3.79471e-12
-2.43945e-13
-1.40946e-12
5.39391e-12
-9.73071e-12
8.53809e-12
-1.00289e-12
-8.86335e-12
1.08691e-11
-5.42101e-14
-1.25767e-11
8.51099e-12
0
0
0
-2.71051e-14
0
0
0
0
0
0
0
-2.71051e-14
0
0
0
0
-2.71051e-14
0
0
-2.71051e-14
1.42844e-11
-2.13104e-12
4.17258e-13
-1.54021e-13
2.58388e-14
1.76418e-14
-1.42266e-14
-3.79278e-15
9.19964e-15
2.22685e-14
1.9959e-15
-1.06724e-14
4.85967e-15
1.85914e-14
2.35338e-14
-1.71662e-14
-2.60427e-14
1.91224e-14
-1.69363e-14
0
)
;
    }
    frontAndBack
    {
        type            empty;
    }
}


// ************************************************************************* //
