/*--------------------------------*- C++ -*----------------------------------*\
| =========                 |                                                 |
| \\      /  F ield         | OpenFOAM: The Open Source CFD Toolbox           |
|  \\    /   O peration     | Version:  2312                                  |
|   \\  /    A nd           | Website:  www.openfoam.com                      |
|    \\/     M anipulation  |                                                 |
\*---------------------------------------------------------------------------*/
FoamFile
{
    version     2.0;
    format      ascii;
    arch        "LSB;label=32;scalar=64";
    class       volScalarField;
    location    "5.75";
    object      enstrophyField;
}
// * * * * * * * * * * * * * * * * * * * * * * * * * * * * * * * * * * * * * //

dimensions      [0 0 -2 0 0 0 0];

internalField   nonuniform List<scalar> 
400
(
2.97262e-23
5.60238e-23
2.54178e-24
1.71449e-25
4.02747e-27
7.76718e-28
1.17336e-28
1.33044e-29
5.00186e-28
9.35333e-29
6.36564e-29
7.23437e-30
3.98269e-29
1.80623e-28
2.02636e-27
1.02575e-27
1.41334e-28
7.30926e-30
1.42879e-29
1.04682e-29
2.21161e-24
3.95495e-24
3.03766e-25
5.408e-27
5.9425e-27
9.43407e-27
8.37343e-27
1.18262e-26
3.5951e-27
1.84125e-27
5.29833e-28
1.85304e-27
2.77877e-27
1.45141e-27
1.63865e-28
9.18673e-29
6.14623e-31
8.359e-29
1.68385e-27
2.29703e-29
2.67833e-23
7.18198e-23
4.22325e-24
1.63268e-25
3.56821e-26
1.58359e-26
3.90668e-27
2.18926e-27
2.17682e-27
3.16447e-27
1.90115e-27
1.53162e-27
1.38938e-27
2.07497e-27
4.40869e-27
1.65046e-27
1.80555e-29
1.81398e-27
1.72466e-27
6.87573e-29
1.7453e-23
3.72097e-23
2.1379e-24
1.20202e-25
2.1205e-27
3.71127e-27
3.03055e-27
6.82284e-27
1.63185e-27
1.3424e-27
1.23862e-27
4.66868e-28
4.5746e-28
7.11959e-29
5.68074e-28
7.65089e-28
2.64935e-27
1.90093e-27
1.71777e-28
7.18557e-29
1.94248e-24
4.21097e-25
2.17424e-26
4.64486e-27
1.22704e-28
8.16717e-28
6.97001e-28
5.64647e-30
4.14405e-28
6.99457e-29
1.13088e-30
4.8361e-29
2.99456e-30
1.72023e-30
1.91828e-27
6.94008e-28
2.3208e-29
7.45503e-30
7.39987e-28
2.68928e-28
3.3805e-24
1.23841e-23
7.48493e-25
2.66887e-26
2.91123e-27
4.51215e-29
6.99822e-28
1.46549e-30
7.21713e-28
2.36166e-27
1.23418e-27
5.02039e-29
4.15702e-28
2.54264e-27
6.93796e-28
1.70168e-27
1.33678e-27
1.84757e-29
3.95009e-30
5.75728e-29
1.09779e-23
1.32765e-23
7.5829e-25
3.48001e-26
5.03005e-27
1.08242e-27
3.50347e-27
1.94259e-27
7.86915e-27
1.04171e-26
2.95369e-27
1.12045e-27
2.55233e-27
2.77766e-27
6.19301e-27
4.09415e-27
1.52304e-27
3.27354e-29
2.79703e-30
2.95144e-29
1.49322e-24
3.99372e-25
1.06744e-26
1.16137e-26
2.1413e-27
2.59988e-28
3.17909e-27
5.16806e-29
1.04894e-27
5.15362e-27
1.89122e-28
5.30851e-29
1.08767e-27
5.98192e-27
7.31869e-28
3.56269e-28
1.02145e-27
4.43172e-29
1.68979e-29
4.00018e-32
4.91325e-24
3.31948e-24
1.92944e-25
1.30283e-26
4.28828e-29
2.78335e-27
1.29316e-27
3.42004e-28
2.35587e-27
8.51412e-27
3.34615e-27
1.4912e-27
4.52902e-27
1.97188e-27
4.05088e-27
4.28809e-27
1.21339e-27
7.04473e-29
3.08599e-29
4.12623e-29
1.09308e-23
4.67737e-24
2.55658e-25
2.02749e-26
1.03462e-27
1.96112e-28
1.21958e-27
7.38942e-27
5.0478e-27
7.4934e-27
3.39163e-27
8.99003e-28
1.84554e-27
1.33209e-27
1.00427e-28
6.64326e-28
8.30695e-27
5.59568e-30
7.85423e-29
1.84442e-29
6.25139e-24
6.53247e-24
2.98814e-25
2.28529e-26
9.83746e-28
3.11606e-28
4.68897e-30
4.21084e-29
9.47965e-29
4.30388e-28
1.14543e-29
2.24577e-27
1.46771e-27
3.17067e-30
4.93276e-28
3.30269e-33
7.85281e-29
4.21755e-29
5.52731e-28
2.23965e-30
2.55417e-24
3.52985e-24
2.62005e-25
9.79344e-28
2.64478e-27
1.18087e-28
2.17285e-28
3.43003e-28
2.19937e-28
5.95645e-29
9.10807e-29
2.28452e-29
1.21519e-28
4.81233e-27
3.70952e-28
2.29831e-30
8.35427e-33
1.70137e-27
2.21618e-29
2.0919e-30
2.83168e-25
1.9062e-25
1.87043e-27
5.46279e-27
8.20422e-27
3.2019e-27
7.46037e-27
1.20775e-26
7.15108e-27
1.14472e-26
7.14929e-27
6.33017e-29
1.63929e-28
1.58345e-27
8.78495e-28
1.21361e-28
1.74584e-29
8.18781e-30
7.71884e-28
9.22826e-30
1.18568e-23
1.15382e-23
7.14411e-25
1.60214e-26
4.00918e-28
1.73835e-29
2.79558e-31
1.25494e-27
3.13231e-27
2.67406e-27
2.22381e-27
1.27339e-27
2.41964e-28
9.48642e-28
2.99498e-28
1.2772e-27
4.74584e-27
1.92784e-27
3.54762e-29
1.01066e-28
2.3456e-23
2.72066e-23
1.52632e-24
4.48384e-26
8.85422e-27
1.5795e-27
3.8445e-29
3.27939e-28
3.79602e-30
2.82258e-27
2.71033e-27
3.21686e-30
2.22808e-28
1.6156e-27
2.79273e-27
8.47272e-27
2.74277e-28
2.16213e-28
7.26055e-29
2.47514e-29
8.66189e-24
1.07076e-23
6.62517e-25
1.75909e-26
6.60358e-27
5.46775e-31
4.46211e-28
8.23601e-28
4.13127e-27
1.53017e-27
6.22022e-29
4.96593e-29
4.73769e-28
2.896e-28
2.19955e-30
1.25054e-27
2.46049e-29
8.25976e-28
4.80366e-28
6.77492e-29
3.55302e-25
6.18908e-25
5.33639e-26
2.5222e-30
2.47461e-27
1.41549e-27
5.08204e-28
7.94467e-27
3.87378e-27
1.33739e-27
7.1458e-27
1.18483e-26
3.0201e-27
4.81655e-27
1.44116e-28
1.25712e-27
1.56861e-30
4.58862e-28
2.15173e-29
9.72451e-30
4.5984e-24
1.43377e-23
8.17232e-25
2.96197e-26
8.00044e-27
6.06487e-29
6.81344e-30
3.61768e-27
2.7139e-28
1.12794e-27
4.56966e-31
4.08619e-28
4.08339e-29
3.9434e-30
1.39584e-28
2.97147e-28
3.2997e-28
2.16554e-27
1.0258e-28
4.77018e-29
1.67192e-25
9.52118e-25
9.59146e-26
2.97261e-28
1.79947e-27
2.49697e-28
5.97965e-29
4.26349e-28
6.51151e-27
1.72458e-27
7.08105e-27
6.06046e-27
1.32708e-27
3.67271e-27
6.8577e-28
4.66051e-28
2.2927e-28
1.67474e-28
1.43736e-28
4.89361e-28
1.17683e-23
2.09899e-23
8.34033e-25
7.58958e-26
3.33321e-28
9.76795e-30
1.67157e-28
1.19351e-27
1.99045e-27
2.68333e-27
2.09875e-27
1.78121e-27
1.11774e-30
4.08403e-28
3.70255e-28
2.45554e-28
5.83124e-31
3.97521e-30
1.08021e-29
3.73933e-28
)
;

boundaryField
{
    movingWall
    {
        type            calculated;
        value           nonuniform List<scalar> 
20
(
2.84618e-23
2.94951e-23
4.15378e-25
2.08824e-25
3.7879e-26
2.56431e-26
2.27322e-26
3.40868e-26
2.66641e-26
1.15937e-26
4.93976e-27
1.24425e-27
1.11774e-30
1.05266e-27
5.75152e-33
7.78737e-28
5.83124e-31
3.97521e-30
1.08021e-29
9.96857e-28
)
;
    }
    fixedWalls
    {
        type            calculated;
        value           nonuniform List<scalar> 
60
(
9.94079e-22
8.20787e-23
1.33538e-21
6.79342e-22
8.5767e-24
2.30933e-22
2.50843e-22
7.44228e-24
6.50272e-23
9.09588e-23
1.14288e-22
7.08187e-23
2.51354e-24
2.18496e-22
5.17001e-22
2.09616e-22
1.44741e-23
2.74454e-22
1.90593e-23
3.70869e-22
2.12071e-29
1.57213e-30
4.12504e-28
9.60149e-29
5.41584e-29
1.93401e-28
1.53389e-28
1.49101e-29
3.69811e-29
2.76073e-28
1.46915e-28
3.29019e-29
1.58049e-29
5.32287e-29
1.00941e-28
2.16218e-28
6.57415e-29
2.17576e-30
1.05058e-28
6.05755e-28
8.10827e-23
7.82405e-23
2.03077e-24
3.04601e-25
1.11899e-26
2.80468e-26
3.24278e-26
1.48742e-26
1.6591e-26
5.25262e-27
1.04416e-26
9.38868e-27
3.19144e-27
1.25816e-26
3.14956e-27
1.42181e-27
1.41334e-28
1.16318e-27
7.6297e-28
3.54838e-27
)
;
    }
    frontAndBack
    {
        type            empty;
    }
}


// ************************************************************************* //
