/*--------------------------------*- C++ -*----------------------------------*\
| =========                 |                                                 |
| \\      /  F ield         | OpenFOAM: The Open Source CFD Toolbox           |
|  \\    /   O peration     | Version:  2312                                  |
|   \\  /    A nd           | Website:  www.openfoam.com                      |
|    \\/     M anipulation  |                                                 |
\*---------------------------------------------------------------------------*/
FoamFile
{
    version     2.0;
    format      ascii;
    arch        "LSB;label=32;scalar=64";
    class       volScalarField;
    location    "5.75";
    object      flowTypeField;
}
// * * * * * * * * * * * * * * * * * * * * * * * * * * * * * * * * * * * * * //

dimensions      [0 0 0 0 0 0 0];

internalField   nonuniform List<scalar> 
400
(
0.504935
0.0692829
0.0712557
-0.00972947
0.245216
0.336258
0.568593
0.795609
0.359556
0.417941
0.0142918
0.565905
0.108292
0.254167
-0.0652362
0.245192
0.417085
0.800331
0.748057
0.0273568
0.889506
0.522701
0.461025
0.639551
0.0306711
0.0573616
-0.0361445
-0.125175
-0.0311185
0.252205
0.395275
-0.108978
-0.356547
0.269179
0.640846
0.413103
0.969764
0.00315052
-0.0589647
0.330925
0.395639
0.089845
-0.0312816
0.164201
-0.535236
0.0957159
-0.0861431
0.302594
0.248069
0.183831
-0.134504
0.256583
0.290168
-0.136716
-0.15344
-0.0413135
0.840745
-0.0977781
0.234956
0.0266892
0.55621
0.0998125
0.0362934
-0.0038683
0.300557
-0.310985
0.0645294
0.0422261
-0.0531446
0.0439948
0.176926
-0.0813586
-0.11161
0.529998
-0.092572
-0.335413
-0.324525
-0.00691151
0.314431
0.6505
0.835235
0.692759
0.716602
0.418259
0.721533
-0.448932
0.0839678
0.821744
0.228575
0.0504972
0.897519
0.0938417
0.853055
1.71465e-05
-0.013691
-0.347542
0.532842
0.894849
-0.129743
0.172126
0.61823
0.127638
0.013237
0.226928
-0.218361
0.707714
-0.313418
0.609132
0.0514406
-0.0956401
0.0829388
0.693863
0.229931
0.0891398
-0.344618
-0.067904
0.161421
0.733996
0.29626
0.000170134
0.288643
0.053025
-0.092107
0.0429037
-0.109147
0.139913
0.00478341
0.116149
-0.0665873
-0.0633305
0.0544658
0.167406
0.356149
0.0830371
0.0186185
-0.0638554
0.280687
0.383234
0.578961
0.0818616
0.738994
0.435025
0.597353
0.00971824
-0.060214
0.397955
-0.152823
0.771371
0.435752
-0.160291
0.340752
0.753712
-0.53778
-0.0738553
-0.282991
0.197656
0.502695
0.442629
0.428789
0.81893
0.23218
-0.0069795
-0.234459
-0.0996409
0.620951
-0.370586
0.188088
0.40403
0.131701
-0.154693
0.163266
-0.00628594
-0.166365
-0.155938
-0.105817
-0.0734983
0.0978793
0.553825
0.015114
0.190327
-0.44811
-0.0785826
-0.410423
-0.192685
0.257875
0.61462
0.187833
-0.0786548
-0.114377
-9.74467e-05
-0.0125191
0.235226
0.255738
-0.881131
0.465046
0.0773152
-0.17916
0.826584
0.170263
0.0497044
-0.0533299
0.0778175
0.0369961
0.0857031
0.492818
0.539838
0.917487
0.641904
0.183029
0.192265
0.841819
0.0214434
0.309005
0.848973
0.197353
0.980112
0.000946275
0.778826
-0.220841
0.621129
0.487011
0.195024
-0.0419663
0.787179
0.0745772
0.68705
0.225358
0.135214
0.115313
0.588291
0.794206
0.595615
0.448727
-0.19176
0.280386
0.52641
0.816692
0.0576425
0.696544
0.871018
0.877891
0.686368
0.84062
0.577169
0.108156
0.0190926
-0.124449
-0.145965
-0.102199
-0.11491
-0.0972664
0.0592092
0.323688
0.0932111
0.227004
0.461998
0.0015748
0.788936
0.33629
0.259608
0.388129
0.0564234
-0.103517
0.340301
0.297362
0.835221
0.964259
-0.385088
-0.318101
-0.158089
-0.0404723
0.44674
0.211574
0.2026
0.326998
0.182948
-0.15896
0.0303182
0.0300152
0.0519251
-0.0831362
0.0251936
-0.114782
0.17156
-0.457737
0.0243866
0.784987
0.658528
0.843894
-0.380789
-0.148925
0.883314
0.320612
0.0345183
-0.336922
-0.156418
0.367881
0.366873
0.530223
0.0558218
0.535503
0.108374
-0.00831064
0.263467
-0.0523156
0.933538
0.476901
0.00116272
0.307454
-0.00469037
0.00338025
0.00760342
0.230406
0.368302
0.955371
0.0828766
0.825566
-0.445068
-0.136587
0.00162908
0.901504
0.556763
0.471832
0.971263
0.0129004
0.287542
0.253696
-0.150743
-0.0224021
0.29701
-0.0966274
-0.134538
-0.222762
-0.20506
0.414108
-0.324739
0.674103
0.0278758
0.728309
0.772429
0.402687
0.117074
-0.0430535
0.184721
-0.709037
0.389103
0.820008
0.152928
0.558956
0.223752
0.958479
-0.0271037
0.314913
0.921767
0.564478
0.248779
0.51964
-0.208431
0.13574
0.000398747
0.94092
0.543206
0.42864
0.816325
0.0305834
0.046037
0.682916
0.0213766
0.0648848
0.0393282
-0.0612958
-0.0145588
0.142039
-0.0526251
0.0633616
0.227711
0.337074
0.415033
0.517369
-0.148503
0.479255
0.0579048
0.12487
-0.134199
0.722404
0.802053
0.492067
0.191384
0.0165961
-0.158797
-0.187352
0.0252859
0.0828828
0.232263
0.00530502
0.242334
0.818101
0.613857
0.770784
0.262865
)
;

boundaryField
{
    movingWall
    {
        type            calculated;
        value           nonuniform List<scalar> 
20
(
0.679833
0.132629
0.505511
-0.242748
0.248834
0.00547886
0.0844037
0.0619264
0.0401904
-0.0620947
-0.105837
0.044858
0.727968
0.11681
0.929376
0.118062
0.603419
0.645395
0.766315
0.140556
)
;
    }
    fixedWalls
    {
        type            calculated;
        value           nonuniform List<scalar> 
60
(
0.077097
0.519155
0.0698767
0.0960202
0.694254
0.114608
0.0251168
0.501036
-0.0287805
-0.134592
0.0851431
0.159819
0.750189
0.0450027
-0.0106971
0.0878269
0.53999
0.0808459
0.552955
0.0681647
0.892012
0.685452
0.00481991
0.682098
0.610994
5.21231e-05
0.0190026
0.299187
0.204016
0.00397613
0.578092
0.158214
0.190757
0.0890973
0.0156711
0.000524856
0.0678098
0.00689509
0.453873
0.305996
0.673381
0.138259
0.350809
-0.0212043
0.46057
-0.0577936
0.0568405
0.0636764
0.0328049
-0.107518
-0.0841205
-0.0155019
0.108588
0.109264
0.248798
0.256698
0.532578
0.10451
0.245782
0.0535049
)
;
    }
    frontAndBack
    {
        type            empty;
    }
}


// ************************************************************************* //
