/*--------------------------------*- C++ -*----------------------------------*\
| =========                 |                                                 |
| \\      /  F ield         | OpenFOAM: The Open Source CFD Toolbox           |
|  \\    /   O peration     | Version:  2312                                  |
|   \\  /    A nd           | Website:  www.openfoam.com                      |
|    \\/     M anipulation  |                                                 |
\*---------------------------------------------------------------------------*/
FoamFile
{
    version     2.0;
    format      ascii;
    arch        "LSB;label=32;scalar=64";
    class       surfaceScalarField;
    location    "5.75";
    object      fluxField;
}
// * * * * * * * * * * * * * * * * * * * * * * * * * * * * * * * * * * * * * //

dimensions      [0 3 -1 0 0 0 0];

oriented        oriented;

internalField   nonuniform List<scalar> 
760
(
-5e-05
3.70446e-18
-5e-05
-7.83482e-19
-5e-05
1.92406e-19
-5e-05
-3.85052e-20
-5e-05
6.45969e-21
-5e-05
-2.36581e-21
-5e-05
3.21961e-21
-5e-05
5.82807e-21
-5e-05
9.07617e-21
-5e-05
5.56713e-21
-5e-05
4.98975e-22
-5e-05
-2.66809e-21
-5e-05
1.21492e-21
-5e-05
4.64784e-21
-5e-05
5.88346e-21
-5e-05
2.48472e-21
-5e-05
2.65579e-22
-5e-05
-1.99565e-21
-5e-05
2.54218e-21
2.96213e-22
-5e-05
-2.61893e-18
-5e-05
5.56042e-19
-5e-05
-1.29288e-19
-5e-05
3.1108e-20
-5e-05
-5.65369e-21
-5e-05
-1.64639e-21
-5e-05
-2.25228e-21
-5e-05
1.83146e-21
-5e-05
6.10088e-21
-5e-05
6.53467e-21
-5e-05
1.38311e-21
-5e-05
-7.42889e-22
-5e-05
2.76591e-21
-5e-05
4.71586e-21
-5e-05
1.30343e-22
-5e-05
-2.95642e-21
-5e-05
-4.06923e-21
-5e-05
-1.73128e-21
-5e-05
6.6883e-22
-1.90601e-21
-5e-05
-1.04648e-18
-5e-05
2.12661e-19
-5e-05
-5.10456e-20
-5e-05
1.65926e-20
-5e-05
3.11641e-21
-5e-05
-3.05864e-23
-5e-05
-1.92721e-21
-5e-05
-9.34577e-22
-5e-05
-2.39642e-22
-5e-05
2.16901e-21
-5e-05
7.99245e-22
-5e-05
1.4154e-21
-5e-05
-3.47853e-22
-5e-05
1.00379e-21
-5e-05
8.28631e-23
-5e-05
-4.92216e-22
-5e-05
-3.7311e-21
-5e-05
-3.63543e-21
-5e-05
-4.08778e-21
-2.62316e-21
-5e-05
2.23635e-18
-5e-05
-4.86355e-19
-5e-05
1.12595e-19
-5e-05
-2.15372e-20
-5e-05
7.33746e-21
-5e-05
-1.34012e-21
-5e-05
2.67912e-21
-5e-05
2.08322e-21
-5e-05
-2.59622e-22
-5e-05
1.77456e-21
-5e-05
3.29603e-21
-5e-05
3.26009e-21
-5e-05
-2.56586e-23
-5e-05
1.86263e-21
-5e-05
3.42126e-21
-5e-05
1.58058e-21
-5e-05
-2.11961e-21
-5e-05
-4.76818e-21
-5e-05
-3.01656e-21
2.15621e-22
-5e-05
-1.63762e-18
-5e-05
3.52513e-19
-5e-05
-8.94624e-20
-5e-05
1.48308e-20
-5e-05
-7.60773e-21
-5e-05
-3.29061e-22
-5e-05
1.21304e-22
-5e-05
-3.47931e-22
-5e-05
-1.14682e-21
-5e-05
2.79492e-21
-5e-05
5.43914e-21
-5e-05
2.039e-21
-5e-05
-1.29072e-21
-5e-05
1.85944e-21
-5e-05
3.44826e-21
-5e-05
2.46329e-21
-5e-05
1.94254e-21
-5e-05
1.34135e-22
-5e-05
1.38818e-21
2.2728e-21
-5e-05
-8.72911e-20
-5e-05
3.2687e-20
-5e-05
-9.36707e-21
-5e-05
8.00909e-22
-5e-05
-4.01026e-21
-5e-05
2.33886e-23
-5e-05
-1.52947e-21
-5e-05
-1.95522e-21
-5e-05
7.28169e-23
-5e-05
5.02467e-21
-5e-05
5.90566e-21
-5e-05
2.77886e-21
-5e-05
-8.34985e-23
-5e-05
7.44073e-22
-5e-05
2.49648e-21
-5e-05
3.99848e-21
-5e-05
5.82205e-21
-5e-05
3.61787e-21
-5e-05
2.2795e-21
2.3239e-21
-5e-05
1.21467e-18
-5e-05
-2.51662e-19
-5e-05
5.4995e-20
-5e-05
-1.41973e-20
-5e-05
3.66246e-23
-5e-05
1.33065e-22
-5e-05
3.8168e-21
-5e-05
7.11317e-21
-5e-05
8.38876e-21
-5e-05
6.69679e-21
-5e-05
5.54017e-21
-5e-05
7.49702e-21
-5e-05
6.39815e-21
-5e-05
1.46098e-22
-5e-05
-2.31318e-21
-5e-05
-1.92428e-21
-5e-05
8.32548e-23
-5e-05
5.73931e-22
-5e-05
4.1405e-22
1.43599e-21
-5e-05
-8.18362e-19
-5e-05
1.44749e-19
-5e-05
-4.56439e-20
-5e-05
3.54613e-22
-5e-05
-1.06876e-21
-5e-05
5.47772e-21
-5e-05
9.73204e-21
-5e-05
1.26983e-20
-5e-05
1.25116e-20
-5e-05
4.41587e-21
-5e-05
1.94121e-21
-5e-05
6.20718e-21
-5e-05
4.41688e-21
-5e-05
-2.14134e-21
-5e-05
-4.74649e-21
-5e-05
-7.10343e-21
-5e-05
-7.4667e-21
-5e-05
-3.61361e-21
-5e-05
-2.14558e-21
-1.96209e-22
-5e-05
4.38245e-20
-5e-05
-4.18309e-21
-5e-05
-2.12049e-21
-5e-05
-1.04585e-21
-5e-05
1.44468e-21
-5e-05
5.86535e-21
-5e-05
4.71963e-21
-5e-05
5.49831e-21
-5e-05
8.24453e-21
-5e-05
6.68074e-21
-5e-05
6.22662e-21
-5e-05
6.81926e-21
-5e-05
3.17451e-21
-5e-05
-1.7856e-21
-5e-05
-5.10046e-21
-5e-05
-7.19244e-21
-5e-05
-5.58717e-21
-5e-05
-8.36831e-22
-5e-05
-1.78335e-21
-2.00612e-21
-5e-05
-2.06972e-19
-5e-05
7.17736e-20
-5e-05
-6.98714e-21
-5e-05
9.83963e-21
-5e-05
2.89395e-21
-5e-05
3.34648e-21
-5e-05
1.60406e-21
-5e-05
2.90648e-21
-5e-05
2.59683e-21
-5e-05
4.25459e-21
-5e-05
6.65541e-21
-5e-05
3.31936e-21
-5e-05
5.01408e-22
-5e-05
-1.81321e-21
-5e-05
-4.99668e-21
-5e-05
-6.12249e-21
-5e-05
-2.63996e-21
-5e-05
2.12924e-21
-5e-05
4.92448e-22
-2.53995e-21
-5e-05
-1.48582e-19
-5e-05
3.97059e-20
-5e-05
2.71013e-21
-5e-05
1.38589e-20
-5e-05
1.12119e-20
-5e-05
7.39964e-21
-5e-05
8.81282e-21
-5e-05
6.60056e-21
-5e-05
-2.93562e-23
-5e-05
-2.08505e-21
-5e-05
-2.19953e-21
-5e-05
-6.6558e-21
-5e-05
-7.0916e-21
-5e-05
-2.75074e-21
-5e-05
-2.26451e-21
-5e-05
-3.79362e-21
-5e-05
-2.78019e-21
-5e-05
-6.92884e-22
-5e-05
5.46595e-22
-5.64345e-22
-5e-05
8.67013e-19
-5e-05
-1.81597e-19
-5e-05
4.83996e-20
-5e-05
1.11294e-21
-5e-05
1.12039e-20
-5e-05
7.60021e-21
-5e-05
8.59253e-21
-5e-05
2.60298e-21
-5e-05
-2.92878e-21
-5e-05
-5.43317e-21
-5e-05
-9.60332e-21
-5e-05
-1.15965e-20
-5e-05
-8.48023e-21
-5e-05
-5.4495e-21
-5e-05
-4.79899e-21
-5e-05
-2.34287e-21
-5e-05
-1.4401e-21
-5e-05
-3.85245e-21
-5e-05
-1.42106e-21
8.58388e-22
-5e-05
-1.1342e-18
-5e-05
2.33675e-19
-5e-05
-5.37368e-20
-5e-05
1.11189e-20
-5e-05
-1.23558e-21
-5e-05
5.89718e-21
-5e-05
7.33763e-21
-5e-05
2.27768e-21
-5e-05
-3.38414e-21
-5e-05
-6.75e-21
-5e-05
-1.20602e-20
-5e-05
-1.26592e-20
-5e-05
-8.31113e-21
-5e-05
-9.13297e-21
-5e-05
-6.16434e-21
-5e-05
5.90509e-23
-5e-05
-1.35222e-21
-5e-05
-5.44574e-21
-5e-05
-4.33488e-21
-2.93473e-22
-5e-05
7.23549e-19
-5e-05
-1.47343e-19
-5e-05
3.29304e-20
-5e-05
-9.3811e-21
-5e-05
2.81643e-21
-5e-05
3.25546e-21
-5e-05
3.7918e-21
-5e-05
-1.51556e-21
-5e-05
-8.35912e-21
-5e-05
-8.43922e-21
-5e-05
-7.85824e-21
-5e-05
-6.70554e-21
-5e-05
-6.288e-21
-5e-05
-6.92772e-21
-5e-05
-2.96654e-21
-5e-05
4.32235e-21
-5e-05
3.38931e-21
-5e-05
-6.26139e-22
-5e-05
-3.78039e-21
-1.53289e-21
-5e-05
7.01246e-19
-5e-05
-1.44682e-19
-5e-05
2.75805e-20
-5e-05
-9.21467e-21
-5e-05
-3.92618e-22
-5e-05
-4.67701e-21
-5e-05
-7.40616e-21
-5e-05
-9.95319e-21
-5e-05
-1.04385e-20
-5e-05
-8.24619e-21
-5e-05
-4.92988e-21
-5e-05
-6.04007e-22
-5e-05
-1.80429e-21
-5e-05
-1.1836e-21
-5e-05
-3.86288e-22
-5e-05
4.47222e-21
-5e-05
6.10217e-21
-5e-05
1.79752e-21
-5e-05
-2.48133e-21
-2.18772e-21
-5e-05
-1.62952e-18
-5e-05
3.24024e-19
-5e-05
-8.60464e-20
-5e-05
8.78538e-21
-5e-05
-1.26108e-20
-5e-05
-1.04278e-20
-5e-05
-1.26001e-20
-5e-05
-9.9259e-21
-5e-05
-4.82178e-21
-5e-05
-5.85378e-21
-5e-05
-5.16713e-21
-5e-05
-2.83534e-22
-5e-05
1.92727e-21
-5e-05
6.51286e-21
-5e-05
6.8952e-21
-5e-05
2.79287e-21
-5e-05
2.18576e-21
-5e-05
5.9632e-22
-5e-05
-1.99626e-21
-2.01636e-21
-5e-05
1.23306e-18
-5e-05
-2.65517e-19
-5e-05
5.72679e-20
-5e-05
-2.07988e-20
-5e-05
-4.14147e-21
-5e-05
-6.76278e-21
-5e-05
-7.14563e-21
-5e-05
-6.49162e-21
-5e-05
-3.6739e-21
-5e-05
-3.8635e-21
-5e-05
-2.61832e-21
-5e-05
-1.32067e-21
-5e-05
1.61404e-21
-5e-05
6.81572e-21
-5e-05
6.52443e-21
-5e-05
-1.6057e-21
-5e-05
8.34155e-23
-5e-05
4.37382e-21
-5e-05
2.18638e-21
-8.47039e-22
-5e-05
1.15466e-18
-5e-05
-2.36132e-19
-5e-05
5.2483e-20
-5e-05
-1.92361e-20
-5e-05
-2.2692e-21
-5e-05
-2.61023e-21
-5e-05
5.642e-22
-5e-05
5.09206e-22
-5e-05
-8.96233e-22
-5e-05
3.64996e-23
-5e-05
-3.47587e-22
-5e-05
-2.8486e-21
-5e-05
-1.13686e-21
-5e-05
8.35527e-23
-5e-05
-1.53233e-21
-5e-05
-6.57583e-21
-5e-05
-3.07038e-21
-5e-05
5.19988e-21
-5e-05
4.40522e-21
-9.1848e-22
-5e-05
-2.17954e-18
-5e-05
4.56192e-19
-5e-05
-1.13114e-19
-5e-05
1.70361e-20
-5e-05
-9.61711e-21
-5e-05
-4.41648e-21
-5e-05
-2.92535e-21
-5e-05
-2.57938e-21
-5e-05
-4.78757e-21
-5e-05
-1.78288e-21
-5e-05
-1.15559e-21
-5e-05
-1.78449e-21
-5e-05
-2.053e-22
-5e-05
-7.37807e-22
-5e-05
-9.3416e-22
-5e-05
-3.1933e-21
-5e-05
-3.02651e-21
-5e-05
2.43006e-21
-5e-05
2.2538e-21
-1.26946e-21
-5e-05
-5e-05
-5e-05
-5e-05
-5e-05
-5e-05
-5e-05
-5e-05
-5e-05
-5e-05
-5e-05
-5e-05
-5e-05
-5e-05
-5e-05
-5e-05
-5e-05
-5e-05
-5e-05
)
;

boundaryField
{
    movingWall
    {
        type            calculated;
        value           uniform -0;
    }
    fixedWalls
    {
        type            calculated;
        value           nonuniform List<scalar> 
60
(
5e-05
5e-05
5e-05
5e-05
5e-05
5e-05
5e-05
5e-05
5e-05
5e-05
5e-05
5e-05
5e-05
5e-05
5e-05
5e-05
5e-05
5e-05
5e-05
5e-05
-5e-05
-5e-05
-5e-05
-5e-05
-5e-05
-5e-05
-5e-05
-5e-05
-5e-05
-5e-05
-5e-05
-5e-05
-5e-05
-5e-05
-5e-05
-5e-05
-5e-05
-5e-05
-5e-05
-5e-05
0
0
0
0
0
0
0
0
0
0
0
0
0
0
0
0
0
0
0
0
)
;
    }
    frontAndBack
    {
        type            empty;
        value           nonuniform List<scalar> 0();
    }
}


// ************************************************************************* //
