/*--------------------------------*- C++ -*----------------------------------*\
| =========                 |                                                 |
| \\      /  F ield         | OpenFOAM: The Open Source CFD Toolbox           |
|  \\    /   O peration     | Version:  2312                                  |
|   \\  /    A nd           | Website:  www.openfoam.com                      |
|    \\/     M anipulation  |                                                 |
\*---------------------------------------------------------------------------*/
FoamFile
{
    version     2.0;
    format      ascii;
    arch        "LSB;label=32;scalar=64";
    class       volTensorField;
    location    "5.75";
    object      gradU;
}
// * * * * * * * * * * * * * * * * * * * * * * * * * * * * * * * * * * * * * //

dimensions      [0 0 -1 0 0 0 0];

internalField   nonuniform List<tensor> 
400
(
(-5.42101e-13 9.09289e-12 0 1.38236e-12 1.48179e-11 0 0 0 0)
(1.00289e-12 -1.09105e-11 0 -3.25261e-13 -3.13393e-12 0 0 0 0)
(-3.52366e-13 2.28178e-12 0 2.71051e-14 7.69623e-13 0 0 0 0)
(0 -5.58469e-13 0 2.71051e-14 -1.54021e-13 0 0 0 0)
(0 1.16854e-13 0 2.71051e-14 2.58388e-14 0 0 0 0)
(2.71051e-14 -1.47965e-14 0 -5.42101e-14 -9.46322e-15 0 0 0 0)
(-2.71051e-14 1.1786e-14 0 2.71051e-14 1.28784e-14 0 0 0 0)
(-2.71051e-14 5.15838e-15 0 0 2.33123e-14 0 0 0 0)
(-2.71051e-14 -4.52362e-15 0 2.71051e-14 3.63047e-14 0 0 0 0)
(0 -1.36772e-14 0 0 2.22685e-14 0 0 0 0)
(0 -1.12833e-14 0 0 1.9959e-15 0 0 0 0)
(0 -3.80378e-15 0 0 -1.06724e-14 0 0 0 0)
(0 8.9249e-15 0 0 4.85967e-15 0 0 0 0)
(0 1.90065e-14 0 0 1.85914e-14 0 0 0 0)
(0 9.45083e-15 0 -5.42101e-14 2.35338e-14 0 0 0 0)
(-2.71051e-14 -8.91663e-15 0 -5.42101e-14 9.93886e-15 0 0 0 0)
(-2.71051e-14 -1.68128e-14 0 0 1.06232e-15 0 0 0 0)
(2.71051e-14 -3.82342e-15 0 0 -7.98261e-15 0 0 0 0)
(-2.71051e-14 5.34563e-15 0 0 1.01687e-14 0 0 0 0)
(0 -4.57562e-15 0 0 1.18485e-15 0 0 0 0)
(1.6263e-12 2.59104e-12 0 4.87891e-13 -2.52936e-11 0 0 0 0)
(-2.35814e-12 -3.13772e-12 0 -3.25261e-13 5.3581e-12 0 0 0 0)
(6.23416e-13 6.98128e-13 0 -8.13152e-14 -1.28678e-12 0 0 0 0)
(0 -1.85315e-13 0 -8.13152e-14 2.78453e-13 0 0 0 0)
(-5.42101e-14 2.77032e-14 0 -8.13152e-14 -4.84535e-14 0 0 0 0)
(5.42101e-14 1.83611e-15 0 -1.35525e-13 2.87764e-15 0 0 0 0)
(5.42101e-14 2.09895e-14 0 -1.0842e-13 -2.18875e-14 0 0 0 0)
(0 1.82679e-14 0 -1.35525e-13 -1.59864e-14 0 0 0 0)
(0 3.47986e-15 0 -8.13152e-14 -1.19012e-14 0 0 0 0)
(0 -2.06316e-14 0 -8.13152e-14 3.87018e-15 0 0 0 0)
(0 -2.16576e-14 0 -5.42101e-14 3.53656e-15 0 0 0 0)
(0 6.66754e-15 0 -5.42101e-14 7.70081e-15 0 0 0 0)
(0 2.03388e-14 0 -5.42101e-14 6.20398e-15 0 0 0 0)
(-5.42101e-14 -3.32336e-16 0 -5.42101e-14 2.72067e-16 0 0 0 0)
(5.42101e-14 -1.81033e-14 0 0 -2.30124e-14 0 0 0 0)
(0 -1.35549e-14 0 0 -2.17645e-14 0 0 0 0)
(8.13152e-14 -1.10871e-15 0 0 -1.73393e-14 0 0 0 0)
(0 1.29298e-14 0 0 1.05747e-15 0 0 0 0)
(0 3.82183e-15 0 -5.42101e-14 -7.49339e-15 0 0 0 0)
(0 -6.77794e-15 0 0 -8.80889e-15 0 0 0 0)
(-2.98156e-13 -1.08426e-11 0 -3.52366e-12 6.28981e-12 0 0 0 0)
(4.06576e-13 1.30963e-11 0 1.11131e-12 -1.37352e-12 0 0 0 0)
(-1.0842e-13 -2.79787e-12 0 1.0842e-13 3.1297e-13 0 0 0 0)
(-5.42101e-14 6.79853e-13 0 1.0842e-13 -5.80616e-14 0 0 0 0)
(-2.71051e-14 -1.58721e-13 0 1.0842e-13 3.50804e-14 0 0 0 0)
(-5.42101e-14 1.17696e-14 0 1.89735e-13 6.46323e-15 0 0 0 0)
(0 -7.07802e-15 0 8.13152e-14 1.30025e-15 0 0 0 0)
(5.42101e-14 1.51448e-14 0 8.13152e-14 -1.10642e-14 0 0 0 0)
(2.71051e-14 1.5333e-14 0 8.13152e-14 -2.53621e-14 0 0 0 0)
(5.42101e-14 1.76049e-15 0 8.13152e-14 -1.74626e-14 0 0 0 0)
(0 -7.45266e-15 0 5.42101e-14 -2.33548e-15 0 0 0 0)
(-5.42101e-14 -1.13636e-15 0 5.42101e-14 8.63315e-15 0 0 0 0)
(5.42101e-14 1.49615e-15 0 5.42101e-14 -1.24551e-14 0 0 0 0)
(0 -1.02099e-14 0 5.42101e-14 -1.48483e-14 0 0 0 0)
(0 -1.25858e-14 0 8.13152e-14 -1.89921e-16 0 0 0 0)
(0 -3.24344e-15 0 5.42101e-14 9.8568e-15 0 0 0 0)
(-5.42101e-14 6.00924e-15 0 0 1.35252e-15 0 0 0 0)
(0 6.02245e-15 0 -5.42101e-14 -7.61659e-15 0 0 0 0)
(5.42101e-14 -4.52073e-15 0 5.42101e-14 -1.90264e-14 0 0 0 0)
(0 1.17267e-14 0 0 -2.86859e-15 0 0 0 0)
(-8.67362e-13 7.50732e-12 0 1.5992e-12 1.31313e-11 0 0 0 0)
(1.27394e-12 -9.11456e-12 0 -4.87891e-13 -2.79606e-12 0 0 0 0)
(-3.52366e-13 2.01359e-12 0 -5.42101e-14 6.54564e-13 0 0 0 0)
(0 -4.63205e-13 0 2.71051e-14 -1.52519e-13 0 0 0 0)
(0 9.2228e-14 0 2.71051e-14 1.68842e-14 0 0 0 0)
(2.71051e-14 -3.19441e-14 0 5.42101e-14 -5.23813e-15 0 0 0 0)
(0 3.46206e-15 0 8.13152e-14 1.84253e-14 0 0 0 0)
(-5.42101e-14 -8.39447e-15 0 1.0842e-13 1.20712e-14 0 0 0 0)
(0 -2.91862e-15 0 5.42101e-14 -7.99202e-17 0 0 0 0)
(0 2.39506e-15 0 5.42101e-14 -1.57781e-15 0 0 0 0)
(-2.71051e-14 4.4382e-15 0 5.42101e-14 9.98716e-15 0 0 0 0)
(0 -3.45204e-15 0 2.71051e-14 7.37877e-15 0 0 0 0)
(0 -3.14257e-15 0 2.71051e-14 1.28878e-15 0 0 0 0)
(-2.71051e-14 1.19328e-14 0 0 3.43535e-15 0 0 0 0)
(0 6.60173e-15 0 -2.71051e-14 1.33536e-14 0 0 0 0)
(0 -1.20124e-14 0 2.71051e-14 8.29118e-15 0 0 0 0)
(0 -1.85821e-14 0 5.42101e-14 6.44597e-15 0 0 0 0)
(2.71051e-14 -7.44915e-15 0 5.42101e-14 -4.531e-15 0 0 0 0)
(0 8.56983e-15 0 2.71051e-14 4.28488e-15 0 0 0 0)
(-2.71051e-14 1.51171e-14 0 2.71051e-14 1.13551e-14 0 0 0 0)
(7.58942e-13 -5.07359e-13 0 1.46367e-12 -1.54959e-11 0 0 0 0)
(-1.21973e-12 6.19556e-13 0 -2.98156e-13 3.35547e-12 0 0 0 0)
(3.79471e-13 -1.5432e-13 0 5.42101e-14 -8.08232e-13 0 0 0 0)
(8.13152e-14 4.21731e-14 0 -5.42101e-14 1.45472e-13 0 0 0 0)
(2.71051e-14 -1.14395e-14 0 -2.71051e-14 -5.97808e-14 0 0 0 0)
(0 1.33107e-14 0 -2.71051e-14 4.04423e-15 0 0 0 0)
(-2.71051e-14 1.02313e-14 0 -2.71051e-14 -1.02313e-14 0 0 0 0)
(2.71051e-14 -3.3605e-15 0 0 -9.72459e-15 0 0 0 0)
(2.71051e-14 1.68399e-15 0 -2.71051e-14 -3.54881e-15 0 0 0 0)
(0 1.18276e-14 0 0 4.08142e-15 0 0 0 0)
(-2.71051e-14 1.50392e-15 0 0 8.57241e-15 0 0 0 0)
(0 -9.83474e-15 0 0 -4.88437e-15 0 0 0 0)
(-2.71051e-14 -2.44727e-15 0 0 -5.06024e-15 0 0 0 0)
(0 1.85485e-15 0 0 -1.27659e-17 0 0 0 0)
(2.71051e-14 -7.72994e-15 0 5.42101e-14 1.08003e-16 0 0 0 0)
(0 -1.0151e-14 0 2.71051e-14 3.53083e-15 0 0 0 0)
(0 -6.81293e-15 0 0 1.62486e-14 0 0 0 0)
(-5.42101e-14 3.86135e-15 0 0 1.96093e-14 0 0 0 0)
(0 1.13654e-14 0 -2.71051e-14 1.7619e-14 0 0 0 0)
(0 -3.91333e-15 0 -2.71051e-14 8.22872e-15 0 0 0 0)
(2.98156e-13 -4.63307e-12 0 -2.03288e-12 6.20132e-12 0 0 0 0)
(-1.6263e-13 5.57308e-12 0 5.96311e-13 -1.2793e-12 0 0 0 0)
(-5.42101e-14 -1.19641e-12 0 2.71051e-14 3.20382e-13 0 0 0 0)
(-8.13152e-14 2.85246e-13 0 5.42101e-14 -5.61197e-14 0 0 0 0)
(2.71051e-14 -4.92001e-14 0 2.71051e-14 1.43899e-14 0 0 0 0)
(2.71051e-14 1.76054e-14 0 2.71051e-14 1.4098e-15 0 0 0 0)
(0 -1.03068e-14 0 2.71051e-14 -6.60311e-15 0 0 0 0)
(0 -1.71201e-15 0 0 -6.42915e-15 0 0 0 0)
(-2.71051e-14 1.08874e-14 0 -2.71051e-14 4.87856e-15 0 0 0 0)
(-2.71051e-14 1.45163e-14 0 -5.42101e-14 8.91901e-15 0 0 0 0)
(0 -4.5276e-15 0 -5.42101e-14 1.8661e-15 0 0 0 0)
(2.71051e-14 -1.70847e-14 0 -2.71051e-14 2.95946e-15 0 0 0 0)
(-2.71051e-14 1.72903e-15 0 -2.71051e-14 4.82888e-15 0 0 0 0)
(5.42101e-14 1.7101e-14 0 -5.42101e-14 -4.46146e-15 0 0 0 0)
(0 1.01453e-14 0 -2.71051e-14 -3.80709e-15 0 0 0 0)
(0 4.12816e-15 0 -5.42101e-14 6.14076e-15 0 0 0 0)
(-2.71051e-14 -2.50367e-15 0 -5.42101e-14 1.5518e-14 0 0 0 0)
(-2.71051e-14 -6.07877e-15 0 0 1.3935e-14 0 0 0 0)
(0 -2.81073e-15 0 0 3.56529e-15 0 0 0 0)
(0 -1.07306e-14 0 0 2.04394e-16 0 0 0 0)
(-5.69206e-13 4.41466e-12 0 -2.71051e-13 5.20785e-12 0 0 0 0)
(8.40257e-13 -5.26138e-12 0 -1.0842e-13 -1.13739e-12 0 0 0 0)
(-2.1684e-13 1.06886e-12 0 -1.6263e-13 2.57448e-13 0 0 0 0)
(5.42101e-14 -2.63819e-13 0 0 -5.99928e-14 0 0 0 0)
(-5.42101e-14 4.609e-14 0 -5.42101e-14 1.61875e-14 0 0 0 0)
(0 -7.68229e-15 0 -5.42101e-14 4.38705e-16 0 0 0 0)
(0 2.39234e-15 0 -8.13152e-14 2.13851e-14 0 0 0 0)
(-2.71051e-14 8.12117e-15 0 -5.42101e-14 3.62736e-14 0 0 0 0)
(-2.71051e-14 1.70322e-14 0 -1.0842e-13 3.32638e-14 0 0 0 0)
(0 8.81511e-15 0 -1.35525e-13 6.68849e-15 0 0 0 0)
(0 -4.45563e-15 0 -8.13152e-14 -1.46198e-15 0 0 0 0)
(0 -6.87196e-15 0 -5.42101e-14 1.88726e-14 0 0 0 0)
(-8.13152e-14 -9.86819e-15 0 -8.13152e-14 2.59266e-14 0 0 0 0)
(0 -6.78113e-15 0 -8.13152e-14 -2.3919e-15 0 0 0 0)
(2.71051e-14 2.87228e-15 0 -1.0842e-13 -1.92386e-14 0 0 0 0)
(0 9.1741e-15 0 -8.13152e-14 -2.3691e-14 0 0 0 0)
(5.42101e-14 9.81265e-16 0 -5.42101e-14 -2.29552e-14 0 0 0 0)
(0 -8.0914e-15 0 0 -1.21758e-14 0 0 0 0)
(0 -2.36518e-15 0 0 -7.46182e-15 0 0 0 0)
(0 -7.68302e-15 0 0 -3.55163e-15 0 0 0 0)
(-1.35525e-13 -5.62616e-13 0 1.16552e-12 -8.13213e-12 0 0 0 0)
(-5.42101e-14 6.22674e-13 0 -2.71051e-13 1.58564e-12 0 0 0 0)
(5.42101e-14 -1.19007e-13 0 2.71051e-14 -4.02556e-13 0 0 0 0)
(8.13152e-14 4.39852e-14 0 -1.0842e-13 5.82076e-14 0 0 0 0)
(-2.71051e-14 1.12314e-14 0 -5.42101e-14 -4.42152e-15 0 0 0 0)
(2.71051e-14 2.2803e-14 0 0 2.13786e-14 0 0 0 0)
(-2.71051e-14 2.55281e-14 0 -5.42101e-14 2.3661e-14 0 0 0 0)
(-5.42101e-14 1.01667e-14 0 0 2.23405e-14 0 0 0 0)
(-8.13152e-14 -1.86977e-14 0 2.71051e-14 1.64913e-14 0 0 0 0)
(2.71051e-14 -2.02095e-14 0 8.13152e-14 -9.12368e-15 0 0 0 0)
(0 7.65655e-15 0 2.71051e-14 -1.43958e-14 0 0 0 0)
(5.42101e-14 1.03039e-14 0 0 -5.15937e-15 0 0 0 0)
(0 -1.95355e-14 0 2.71051e-14 -7.92507e-15 0 0 0 0)
(5.42101e-14 -2.80642e-14 0 8.13152e-14 -9.14977e-15 0 0 0 0)
(0 -1.11538e-14 0 2.71051e-14 -9.73326e-15 0 0 0 0)
(0 4.11634e-16 0 2.71051e-14 -2.07166e-14 0 0 0 0)
(8.13152e-14 9.01157e-15 0 5.42101e-14 -3.01998e-14 0 0 0 0)
(0 9.41458e-15 0 0 -1.67502e-14 0 0 0 0)
(0 5.81342e-15 0 0 -1.02385e-14 0 0 0 0)
(0 2.82849e-16 0 0 -6.5288e-15 0 0 0 0)
(3.52366e-13 -2.13184e-12 0 1.00289e-12 3.44874e-12 0 0 0 0)
(-2.98156e-13 2.4682e-12 0 -1.0842e-13 -5.95727e-13 0 0 0 0)
(0 -4.58569e-13 0 1.6263e-13 1.74094e-13 0 0 0 0)
(-5.42101e-14 1.34316e-13 0 -2.71051e-14 -5.60185e-15 0 0 0 0)
(2.71051e-14 9.26097e-15 0 0 1.00538e-14 0 0 0 0)
(0 2.04002e-14 0 -5.42101e-14 1.55054e-15 0 0 0 0)
(2.71051e-14 3.35421e-15 0 5.42101e-14 -2.00496e-14 0 0 0 0)
(2.71051e-14 9.51519e-16 0 2.71051e-14 -2.87999e-14 0 0 0 0)
(5.42101e-14 -1.4432e-14 0 5.42101e-14 -1.70682e-14 0 0 0 0)
(-2.71051e-14 -2.20721e-14 0 1.0842e-13 9.05949e-15 0 0 0 0)
(-5.42101e-14 -4.91327e-16 0 8.13152e-14 1.71416e-14 0 0 0 0)
(0 -4.01199e-16 0 5.42101e-14 2.44834e-15 0 0 0 0)
(0 -1.38586e-14 0 8.13152e-14 -4.96949e-15 0 0 0 0)
(0 -8.58931e-15 0 5.42101e-14 1.42296e-15 0 0 0 0)
(0 -8.69458e-15 0 8.13152e-14 -1.41585e-15 0 0 0 0)
(-2.71051e-14 -1.12925e-14 0 8.13152e-14 -3.56036e-16 0 0 0 0)
(0 4.94772e-15 0 5.42101e-14 7.51814e-15 0 0 0 0)
(-2.71051e-14 1.18699e-14 0 0 1.11071e-14 0 0 0 0)
(0 7.85619e-15 0 0 1.44891e-15 0 0 0 0)
(0 9.08431e-15 0 0 -7.23964e-15 0 0 0 0)
(7.58942e-13 2.2904e-12 0 -2.38524e-12 -1.00318e-12 0 0 0 0)
(-8.94467e-13 -2.65198e-12 0 4.06576e-13 3.03827e-13 0 0 0 0)
(1.35525e-13 4.71118e-13 0 -2.43945e-13 -1.94666e-14 0 0 0 0)
(-8.13152e-14 -1.20055e-13 0 8.13152e-14 4.35419e-14 0 0 0 0)
(-5.42101e-14 1.83838e-14 0 -2.71051e-14 5.79708e-15 0 0 0 0)
(5.42101e-14 -7.30042e-15 0 -2.71051e-14 -1.00755e-14 0 0 0 0)
(2.71051e-14 -4.82235e-15 0 -5.42101e-14 -1.24623e-14 0 0 0 0)
(-2.71051e-14 1.31481e-14 0 -1.0842e-13 -1.03673e-14 0 0 0 0)
(2.71051e-14 1.91617e-14 0 -8.13152e-14 -2.25908e-14 0 0 0 0)
(5.42101e-14 1.40004e-14 0 -1.0842e-13 -9.70462e-15 0 0 0 0)
(0 1.0454e-15 0 -8.13152e-14 1.71518e-15 0 0 0 0)
(0 -1.18072e-14 0 -5.42101e-14 -1.39996e-14 0 0 0 0)
(0 -2.05609e-14 0 -8.13152e-14 -1.06924e-14 0 0 0 0)
(0 -2.45106e-14 0 2.71051e-14 -1.10422e-16 0 0 0 0)
(0 -1.29328e-14 0 -2.71051e-14 4.15096e-16 0 0 0 0)
(2.71051e-14 9.34562e-15 0 -2.71051e-14 4.2798e-15 0 0 0 0)
(0 2.04747e-14 0 -1.0842e-13 1.17888e-14 0 0 0 0)
(-2.71051e-14 3.34535e-15 0 0 1.18643e-14 0 0 0 0)
(0 -1.25333e-14 0 0 9.10321e-15 0 0 0 0)
(0 6.07359e-15 0 0 -2.13534e-15 0 0 0 0)
(-1.65341e-12 -2.83119e-12 0 7.04731e-13 2.33558e-13 0 0 0 0)
(1.87025e-12 3.45191e-12 0 -1.6263e-13 -1.28271e-13 0 0 0 0)
(-3.52366e-13 -7.18853e-13 0 5.42101e-14 3.87891e-14 0 0 0 0)
(1.6263e-13 1.59579e-13 0 -5.42101e-14 1.60772e-14 0 0 0 0)
(-8.13152e-14 -4.43564e-14 0 0 3.32717e-14 0 0 0 0)
(5.42101e-14 2.14082e-15 0 2.71051e-14 1.62126e-14 0 0 0 0)
(-5.42101e-14 3.06234e-15 0 0 2.88351e-14 0 0 0 0)
(-2.71051e-14 -9.17697e-15 0 0 1.47763e-14 0 0 0 0)
(0 -1.37693e-14 0 0 -1.05047e-14 0 0 0 0)
(0 2.23393e-15 0 -2.71051e-14 -2.53586e-14 0 0 0 0)
(2.71051e-14 -4.78629e-15 0 0 -3.54198e-14 0 0 0 0)
(0 -1.28088e-14 0 5.42101e-14 -3.99007e-14 0 0 0 0)
(5.42101e-14 3.05824e-17 0 5.42101e-14 -3.0372e-14 0 0 0 0)
(2.71051e-14 2.5182e-15 0 0 -3.75014e-15 0 0 0 0)
(-2.71051e-14 -4.30436e-15 0 2.71051e-14 1.09287e-14 0 0 0 0)
(-5.42101e-14 8.12735e-17 0 0 9.31549e-15 0 0 0 0)
(0 1.25322e-14 0 0 -5.6091e-16 0 0 0 0)
(5.42101e-14 9.18428e-15 0 0 -1.12885e-14 0 0 0 0)
(0 -6.14343e-15 0 2.71051e-14 2.16587e-16 0 0 0 0)
(0 2.11643e-15 0 0 7.90243e-15 0 0 0 0)
(1.32815e-12 2.39569e-12 0 1.35525e-13 4.06238e-12 0 0 0 0)
(-1.54499e-12 -2.84675e-12 0 -1.89735e-13 -8.8521e-13 0 0 0 0)
(2.43945e-13 6.15466e-13 0 -1.0842e-13 1.82758e-13 0 0 0 0)
(-2.1684e-13 -1.25572e-13 0 -8.13152e-14 -5.0984e-14 0 0 0 0)
(5.42101e-14 1.85193e-14 0 -5.42101e-14 -3.1789e-17 0 0 0 0)
(5.42101e-14 -1.17371e-14 0 -2.71051e-14 8.02276e-16 0 0 0 0)
(0 -6.25869e-15 0 -2.71051e-14 -8.81178e-16 0 0 0 0)
(0 -2.61917e-14 0 0 -1.59903e-14 0 0 0 0)
(0 -2.09732e-14 0 0 -1.15977e-14 0 0 0 0)
(2.71051e-14 -1.09146e-14 0 0 -1.33925e-14 0 0 0 0)
(8.13152e-14 -1.34967e-14 0 0 -2.96152e-14 0 0 0 0)
(0 -6.75947e-15 0 0 -1.97626e-14 0 0 0 0)
(-2.71051e-14 1.55897e-14 0 0 -5.55455e-15 0 0 0 0)
(0 1.67901e-14 0 -8.13152e-14 -1.0795e-14 0 0 0 0)
(2.71051e-14 1.32853e-16 0 -2.71051e-14 -1.01379e-14 0 0 0 0)
(0 -2.14397e-15 0 0 5.80299e-15 0 0 0 0)
(0 -1.29261e-16 0 0 5.36036e-15 0 0 0 0)
(2.71051e-14 4.12285e-15 0 -5.42101e-14 -1.26383e-14 0 0 0 0)
(-2.71051e-14 6.65759e-15 0 0 -7.8706e-15 0 0 0 0)
(-2.71051e-14 -2.04544e-15 0 0 5.69093e-15 0 0 0 0)
(-1.73472e-12 3.45978e-13 0 -4.06576e-13 -8.00487e-12 0 0 0 0)
(1.65341e-12 -4.2771e-13 0 1.89735e-13 1.66109e-12 0 0 0 0)
(-2.71051e-13 1.15373e-13 0 5.42101e-14 -4.08545e-13 0 0 0 0)
(2.71051e-13 -2.32103e-14 0 8.13152e-14 4.00238e-14 0 0 0 0)
(0 7.42984e-15 0 1.35525e-13 -4.97581e-14 0 0 0 0)
(0 1.29143e-15 0 8.13152e-14 -6.81214e-15 0 0 0 0)
(0 -1.37302e-14 0 1.0842e-13 -5.01958e-15 0 0 0 0)
(0 -1.98935e-14 0 1.35525e-13 -1.30119e-15 0 0 0 0)
(0 -1.11715e-14 0 1.0842e-13 -1.82143e-15 0 0 0 0)
(0 -1.57835e-14 0 1.35525e-13 -5.26731e-15 0 0 0 0)
(0 -1.11564e-14 0 1.0842e-13 -9.82754e-15 0 0 0 0)
(0 1.12518e-14 0 0 -4.2509e-15 0 0 0 0)
(0 8.99819e-15 0 2.71051e-14 6.76421e-16 0 0 0 0)
(2.71051e-14 -2.06516e-15 0 5.42101e-14 -1.47339e-14 0 0 0 0)
(0 1.22937e-14 0 5.42101e-14 -5.46143e-15 0 0 0 0)
(-2.71051e-14 1.55795e-14 0 0 9.60769e-15 0 0 0 0)
(0 -5.90904e-15 0 0 3.51491e-16 0 0 0 0)
(2.71051e-14 -4.04668e-15 0 0 -6.37318e-15 0 0 0 0)
(5.42101e-14 1.21858e-14 0 -2.71051e-14 -1.16553e-14 0 0 0 0)
(0 4.2961e-15 0 0 -4.60744e-15 0 0 0 0)
(1.11131e-12 -3.94809e-12 0 9.21572e-13 7.43101e-12 0 0 0 0)
(-1.0571e-12 4.74958e-12 0 -5.42101e-14 -1.52407e-12 0 0 0 0)
(1.35525e-13 -1.0056e-12 0 1.89735e-13 3.46669e-13 0 0 0 0)
(-1.35525e-13 2.33215e-13 0 5.42101e-14 -8.2e-14 0 0 0 0)
(2.71051e-14 -2.83167e-14 0 0 1.6208e-14 0 0 0 0)
(2.71051e-14 3.30014e-14 0 2.71051e-14 -1.05669e-14 0 0 0 0)
(5.42101e-14 -7.4774e-16 0 0 -1.41833e-14 0 0 0 0)
(0 -2.29936e-14 0 2.71051e-14 -1.5173e-14 0 0 0 0)
(0 -2.49393e-14 0 5.42101e-14 -1.98999e-14 0 0 0 0)
(2.71051e-14 -1.89207e-14 0 5.42101e-14 -6.75691e-15 0 0 0 0)
(-2.71051e-14 -1.24803e-14 0 5.42101e-14 1.68078e-14 0 0 0 0)
(-8.13152e-14 3.74449e-15 0 5.42101e-14 2.38146e-14 0 0 0 0)
(0 5.10668e-15 0 2.71051e-14 8.09251e-15 0 0 0 0)
(0 1.06523e-14 0 5.42101e-14 8.82097e-15 0 0 0 0)
(-2.71051e-14 2.44744e-14 0 0 1.27912e-14 0 0 0 0)
(-2.71051e-14 3.66894e-15 0 5.42101e-14 1.70532e-14 0 0 0 0)
(0 -1.61101e-14 0 8.13152e-14 1.89661e-14 0 0 0 0)
(-2.71051e-14 -7.88396e-15 0 5.42101e-14 1.92784e-14 0 0 0 0)
(0 8.42333e-15 0 0 2.21797e-15 0 0 0 0)
(0 1.42173e-14 0 0 -4.95769e-15 0 0 0 0)
(-8.94467e-13 6.25292e-12 0 -5.96311e-13 -8.92126e-14 0 0 0 0)
(9.21572e-13 -7.51205e-12 0 -1.35525e-13 1.06443e-14 0 0 0 0)
(-1.6263e-13 1.55744e-12 0 -1.89735e-13 -2.13996e-14 0 0 0 0)
(8.13152e-14 -3.53671e-13 0 -5.42101e-14 6.65728e-16 0 0 0 0)
(-2.71051e-14 7.88629e-14 0 -5.42101e-14 -1.28362e-14 0 0 0 0)
(2.71051e-14 -2.90999e-14 0 2.71051e-14 -3.17299e-14 0 0 0 0)
(0 -1.83364e-14 0 -2.71051e-14 -4.47919e-14 0 0 0 0)
(8.13152e-14 -2.56101e-14 0 0 -3.37505e-14 0 0 0 0)
(2.71051e-14 -2.75537e-15 0 0 -8.3176e-15 0 0 0 0)
(0 2.09242e-14 0 -5.42101e-14 7.72149e-16 0 0 0 0)
(-2.71051e-14 1.9415e-14 0 -5.42101e-14 1.17134e-14 0 0 0 0)
(-2.71051e-14 2.53648e-15 0 0 2.44061e-14 0 0 0 0)
(0 -5.99542e-15 0 -2.71051e-14 1.79348e-14 0 0 0 0)
(0 2.63356e-15 0 -5.42101e-14 2.29765e-14 0 0 0 0)
(0 2.05259e-14 0 -5.42101e-14 1.0321e-14 0 0 0 0)
(2.71051e-14 2.17544e-14 0 -1.0842e-13 5.99472e-16 0 0 0 0)
(-2.71051e-14 -3.68382e-15 0 -2.71051e-14 1.08515e-14 0 0 0 0)
(2.71051e-14 -2.07948e-14 0 0 9.69464e-15 0 0 0 0)
(-2.71051e-14 -1.20504e-14 0 0 5.19626e-15 0 0 0 0)
(0 7.03582e-15 0 0 -2.61932e-15 0 0 0 0)
(4.33681e-13 -4.02666e-12 0 1.35525e-13 -9.32308e-12 0 0 0 0)
(-7.04731e-13 4.81739e-12 0 1.89735e-13 1.87482e-12 0 0 0 0)
(2.1684e-13 -1.01558e-12 0 1.35525e-13 -4.54508e-13 0 0 0 0)
(5.42101e-14 2.41778e-13 0 5.42101e-14 7.20002e-14 0 0 0 0)
(5.42101e-14 -6.07123e-14 0 5.42101e-14 -4.88727e-14 0 0 0 0)
(2.71051e-14 1.04573e-15 0 0 -2.30033e-14 0 0 0 0)
(5.42101e-14 -2.76837e-15 0 2.71051e-14 -2.07759e-14 0 0 0 0)
(2.71051e-14 1.34807e-14 0 -2.71051e-14 1.09169e-16 0 0 0 0)
(-1.0842e-13 9.58339e-15 0 -8.13152e-14 2.2467e-14 0 0 0 0)
(0 1.11031e-15 0 -5.42101e-14 9.56963e-15 0 0 0 0)
(0 1.11537e-14 0 0 -9.49012e-16 0 0 0 0)
(0 9.96587e-15 0 0 1.28189e-15 0 0 0 0)
(-2.71051e-14 3.67704e-15 0 -2.71051e-14 1.49263e-14 0 0 0 0)
(0 3.03847e-15 0 2.71051e-14 3.07859e-14 0 0 0 0)
(-8.13152e-14 2.0974e-15 0 0 2.91259e-14 0 0 0 0)
(0 4.19941e-15 0 5.42101e-14 -6.7174e-15 0 0 0 0)
(5.42101e-14 -7.01497e-15 0 0 -1.56657e-14 0 0 0 0)
(0 -1.35392e-14 0 2.71051e-14 -4.8048e-15 0 0 0 0)
(0 -3.89062e-15 0 2.71051e-14 1.94025e-15 0 0 0 0)
(0 1.16404e-14 0 0 6.85471e-16 0 0 0 0)
(-5.69206e-13 -1.19534e-12 0 -3.52366e-13 1.14503e-11 0 0 0 0)
(8.94467e-13 1.35652e-12 0 2.43945e-13 -2.35816e-12 0 0 0 0)
(-2.71051e-13 -2.45377e-13 0 8.13152e-14 5.73257e-13 0 0 0 0)
(-2.71051e-14 5.19641e-14 0 5.42101e-14 -1.18337e-13 0 0 0 0)
(-2.71051e-14 -1.61406e-14 0 5.42101e-14 3.38772e-14 0 0 0 0)
(-5.42101e-14 -1.00313e-15 0 -5.42101e-14 1.46602e-14 0 0 0 0)
(-2.71051e-14 4.7761e-15 0 -2.71051e-14 2.1818e-14 0 0 0 0)
(0 1.76327e-14 0 -1.0842e-13 1.37371e-14 0 0 0 0)
(2.71051e-14 6.70509e-15 0 -8.13152e-14 4.59152e-15 0 0 0 0)
(5.42101e-14 -2.49175e-15 0 -5.42101e-14 7.96113e-15 0 0 0 0)
(0 1.11273e-14 0 -1.0842e-13 1.01952e-14 0 0 0 0)
(0 1.84118e-14 0 -1.35525e-13 -4.14854e-15 0 0 0 0)
(2.71051e-14 2.35086e-14 0 -5.42101e-14 -1.25293e-15 0 0 0 0)
(0 1.68332e-14 0 -8.13152e-14 1.21144e-15 0 0 0 0)
(2.71051e-14 -1.69774e-14 0 0 -1.48306e-15 0 0 0 0)
(0 -2.30372e-14 0 2.71051e-14 -1.75943e-14 0 0 0 0)
(0 -1.77122e-15 0 0 -8.40937e-15 0 0 0 0)
(0 -3.18892e-15 0 2.71051e-14 1.511e-14 0 0 0 0)
(-2.71051e-14 -6.56008e-15 0 0 1.67306e-14 0 0 0 0)
(-2.71051e-14 4.4101e-15 0 0 4.67726e-15 0 0 0 0)
(2.71051e-13 5.0655e-12 0 2.03288e-12 -3.13613e-13 0 0 0 0)
(-2.43945e-13 -6.05968e-12 0 -7.04731e-13 1.17541e-13 0 0 0 0)
(5.42101e-14 1.22425e-12 0 -5.42101e-14 -1.91397e-14 0 0 0 0)
(-2.71051e-14 -2.97602e-13 0 -5.42101e-14 6.25066e-15 0 0 0 0)
(0 7.22845e-14 0 -5.42101e-14 7.48909e-15 0 0 0 0)
(0 -1.10135e-14 0 0 1.66102e-14 0 0 0 0)
(0 -3.69146e-15 0 0 3.08393e-14 0 0 0 0)
(-5.42101e-14 -3.74578e-15 0 8.13152e-14 2.80033e-14 0 0 0 0)
(-5.42101e-14 3.80739e-15 0 2.71051e-14 1.11107e-14 0 0 0 0)
(-2.71051e-14 6.71404e-15 0 5.42101e-14 1.56e-14 0 0 0 0)
(-5.42101e-14 -9.55998e-16 0 0 9.08295e-15 0 0 0 0)
(0 -1.48231e-15 0 2.71051e-14 -6.11171e-15 0 0 0 0)
(0 9.03702e-15 0 0 -1.10036e-14 0 0 0 0)
(5.42101e-14 2.80834e-15 0 0 -2.69287e-14 0 0 0 0)
(2.71051e-14 -1.67083e-14 0 0 -3.2227e-14 0 0 0 0)
(0 -2.7269e-15 0 -2.71051e-14 -1.98805e-14 0 0 0 0)
(5.42101e-14 2.56893e-14 0 0 -1.26152e-14 0 0 0 0)
(0 1.16008e-14 0 -5.42101e-14 3.30422e-15 0 0 0 0)
(0 -1.43234e-14 0 0 8.87534e-15 0 0 0 0)
(0 -9.76747e-15 0 0 -2.85761e-16 0 0 0 0)
(7.58942e-13 -1.39141e-12 0 -8.13152e-13 -1.33368e-11 0 0 0 0)
(-1.16552e-12 1.65099e-12 0 2.71051e-13 2.7693e-12 0 0 0 0)
(3.52366e-13 -3.56668e-13 0 8.13152e-14 -6.62388e-13 0 0 0 0)
(-2.71051e-14 7.85929e-14 0 5.42101e-14 1.45089e-13 0 0 0 0)
(0 -5.78101e-15 0 5.42101e-14 -2.93916e-14 0 0 0 0)
(0 2.23471e-14 0 0 -7.22502e-15 0 0 0 0)
(2.71051e-14 1.61692e-14 0 2.71051e-14 -1.39582e-14 0 0 0 0)
(0 -2.09595e-15 0 2.71051e-14 -1.23543e-14 0 0 0 0)
(5.42101e-14 -5.69822e-15 0 1.0842e-13 -1.55654e-14 0 0 0 0)
(2.71051e-14 -4.51945e-15 0 5.42101e-14 -7.27751e-15 0 0 0 0)
(2.71051e-14 -1.05844e-14 0 1.0842e-13 -3.23201e-15 0 0 0 0)
(0 -1.67479e-15 0 1.0842e-13 4.25643e-15 0 0 0 0)
(-2.71051e-14 2.69158e-15 0 5.42101e-14 3.72625e-15 0 0 0 0)
(0 -4.39021e-15 0 8.13152e-14 -3.28544e-15 0 0 0 0)
(2.71051e-14 -9.92924e-15 0 2.71051e-14 2.39267e-15 0 0 0 0)
(-2.71051e-14 -3.4253e-15 0 2.71051e-14 1.35301e-14 0 0 0 0)
(-2.71051e-14 2.14135e-14 0 0 1.75489e-16 0 0 0 0)
(2.71051e-14 1.83016e-14 0 0 -1.10793e-14 0 0 0 0)
(-2.71051e-14 -1.01501e-14 0 -2.71051e-14 -8.60565e-15 0 0 0 0)
(0 -4.17947e-15 0 2.71051e-14 -1.40392e-15 0 0 0 0)
(-2.1684e-13 -5.50197e-12 0 -6.50521e-13 8.71815e-12 0 0 0 0)
(5.96311e-13 6.6147e-12 0 1.35525e-13 -1.82477e-12 0 0 0 0)
(-1.89735e-13 -1.39996e-12 0 -1.0842e-13 4.52456e-13 0 0 0 0)
(0 3.35394e-13 0 -5.42101e-14 -6.81446e-14 0 0 0 0)
(-5.42101e-14 -8.00295e-14 0 -5.42101e-14 3.84684e-14 0 0 0 0)
(-2.71051e-14 4.41994e-15 0 0 1.76659e-14 0 0 0 0)
(2.71051e-14 -8.82077e-15 0 -2.71051e-14 1.17014e-14 0 0 0 0)
(-2.71051e-14 -5.35295e-15 0 -5.42101e-14 1.03175e-14 0 0 0 0)
(-2.71051e-14 8.88421e-15 0 -5.42101e-14 1.91503e-14 0 0 0 0)
(-2.71051e-14 1.90474e-14 0 -5.42101e-14 7.13151e-15 0 0 0 0)
(0 1.05779e-14 0 -5.42101e-14 4.62236e-15 0 0 0 0)
(-2.71051e-14 5.47595e-15 0 -5.42101e-14 7.13796e-15 0 0 0 0)
(0 1.49515e-15 0 0 8.21199e-16 0 0 0 0)
(-2.71051e-14 1.47477e-15 0 -2.71051e-14 2.95123e-15 0 0 0 0)
(0 1.07252e-16 0 -2.71051e-14 3.73664e-15 0 0 0 0)
(0 -4.94408e-15 0 -2.71051e-14 1.27732e-14 0 0 0 0)
(0 1.07993e-15 0 0 1.2106e-14 0 0 0 0)
(0 2.81965e-15 0 0 -9.72025e-15 0 0 0 0)
(2.71051e-14 -4.64803e-15 0 0 -9.01522e-15 0 0 0 0)
(-2.71051e-14 2.42094e-16 0 -2.71051e-14 5.07784e-15 0 0 0 0)
)
;

boundaryField
{
    movingWall
    {
        type            extrapolatedCalculated;
        value           nonuniform List<tensor> 
20
(
(-2.1684e-13 -5.50197e-12 0 2.04281e-12 2.78854e-11 0 0 0 0)
(5.96311e-13 6.6147e-12 0 -1.06581e-12 -5.87754e-12 0 0 0 0)
(-1.89735e-13 -1.39996e-12 0 -4.88498e-13 1.42661e-12 0 0 0 0)
(0 3.35394e-13 0 -3.10862e-13 -2.77714e-13 0 0 0 0)
(-5.42101e-14 -8.00295e-14 0 -3.55271e-13 8.50293e-14 0 0 0 0)
(-2.71051e-14 4.41994e-15 0 -2.22045e-13 4.24045e-14 0 0 0 0)
(2.71051e-14 -8.82077e-15 0 -2.22045e-13 6.73496e-14 0 0 0 0)
(-2.71051e-14 -5.35295e-15 0 -2.66454e-13 7.76876e-14 0 0 0 0)
(-2.71051e-14 8.88421e-15 0 -2.22045e-13 8.87614e-14 0 0 0 0)
(-2.71051e-14 1.90474e-14 0 -1.33227e-13 4.21507e-14 0 0 0 0)
(0 1.05779e-14 0 -8.88178e-14 1.25718e-14 0 0 0 0)
(-2.71051e-14 5.47595e-15 0 -4.44089e-14 -1.61071e-16 0 0 0 0)
(0 1.49515e-15 0 0 -9.33198e-15 0 0 0 0)
(-2.71051e-14 1.47477e-15 0 -4.44089e-14 -6.14169e-15 0 0 0 0)
(0 1.07252e-16 0 0 -1.52311e-14 0 0 0 0)
(0 -4.94408e-15 0 -4.44089e-14 -6.57069e-15 0 0 0 0)
(0 1.07993e-15 0 0 4.54527e-15 0 0 0 0)
(0 2.81965e-15 0 0 -1.08904e-14 0 0 0 0)
(2.71051e-14 -4.64803e-15 0 0 -6.73333e-15 0 0 0 0)
(-2.71051e-14 2.42094e-16 0 -4.44089e-14 7.70171e-15 0 0 0 0)
)
;
    }
    fixedWalls
    {
        type            extrapolatedCalculated;
        value           nonuniform List<tensor> 
60
(
(-3.64153e-12 4.59711e-11 0 1.38236e-12 1.48179e-11 0 0 0 0)
(9.19265e-12 1.33003e-11 0 4.87891e-13 -2.52936e-11 0 0 0 0)
(-1.68754e-12 -5.52031e-11 0 -3.52366e-12 6.28981e-12 0 0 0 0)
(-4.88498e-12 3.84595e-11 0 1.5992e-12 1.31313e-11 0 0 0 0)
(4.75175e-12 -2.67799e-12 0 1.46367e-12 -1.54959e-11 0 0 0 0)
(9.76996e-13 -2.35239e-11 0 -2.03288e-12 6.20132e-12 0 0 0 0)
(-3.37508e-12 2.21273e-11 0 -2.71051e-13 5.20785e-12 0 0 0 0)
(-2.66454e-13 -2.69253e-12 0 1.16552e-12 -8.13213e-12 0 0 0 0)
(1.37668e-12 -1.04012e-11 0 1.00289e-12 3.44874e-12 0 0 0 0)
(3.73035e-12 1.11024e-11 0 -2.38524e-12 -1.00318e-12 0 0 0 0)
(-8.17124e-12 -1.4414e-11 0 7.04731e-13 2.33558e-13 0 0 0 0)
(6.66134e-12 1.20367e-11 0 1.35525e-13 4.06238e-12 0 0 0 0)
(-7.63833e-12 1.83554e-12 0 -4.06576e-13 -8.00487e-12 0 0 0 0)
(4.9738e-12 -1.99828e-11 0 9.21572e-13 7.43101e-12 0 0 0 0)
(-3.9968e-12 3.15596e-11 0 -5.96311e-13 -8.92126e-14 0 0 0 0)
(2.66454e-12 -2.03396e-11 0 1.35525e-13 -9.32308e-12 0 0 0 0)
(-3.55271e-12 -5.73273e-12 0 -3.52366e-13 1.14503e-11 0 0 0 0)
(1.19904e-12 2.54617e-11 0 2.03288e-12 -3.13613e-13 0 0 0 0)
(4.66294e-12 -6.98718e-12 0 -8.13152e-13 -1.33368e-11 0 0 0 0)
(-2.04281e-12 -2.78854e-11 0 -6.50521e-13 8.71815e-12 0 0 0 0)
(8.88178e-14 -6.51262e-15 0 0 1.18485e-15 0 0 0 0)
(0 1.77321e-15 0 0 -8.80889e-15 0 0 0 0)
(0 2.8723e-14 0 0 -2.86859e-15 0 0 0 0)
(-4.44089e-14 1.32476e-14 0 2.71051e-14 1.13551e-14 0 0 0 0)
(0 -1.66975e-14 0 -2.71051e-14 8.22872e-15 0 0 0 0)
(0 -1.96673e-14 0 0 2.04394e-16 0 0 0 0)
(0 -1.75151e-14 0 0 -3.55163e-15 0 0 0 0)
(0 -5.46079e-15 0 0 -6.5288e-15 0 0 0 0)
(0 8.60013e-15 0 0 -7.23964e-15 0 0 0 0)
(0 2.34978e-14 0 0 -2.13534e-15 0 0 0 0)
(-4.44089e-14 1.71415e-14 0 0 7.90243e-15 0 0 0 0)
(0 -8.11196e-15 0 0 5.69093e-15 0 0 0 0)
(0 -5.62226e-15 0 0 -4.60744e-15 0 0 0 0)
(0 1.03178e-14 0 0 -4.95769e-15 0 0 0 0)
(0 1.42085e-14 0 0 -2.61932e-15 0 0 0 0)
(0 2.07951e-14 0 0 6.85471e-16 0 0 0 0)
(0 1.14666e-14 0 0 4.67726e-15 0 0 0 0)
(0 2.08603e-15 0 0 -2.85761e-16 0 0 0 0)
(0 1.26096e-14 0 2.71051e-14 -1.40392e-15 0 0 0 0)
(-4.44089e-14 7.70171e-15 0 -2.71051e-14 5.07784e-15 0 0 0 0)
(-5.42101e-13 9.09289e-12 0 -3.64153e-12 4.59711e-11 0 0 0 0)
(1.00289e-12 -1.09105e-11 0 1.59872e-12 -9.59957e-12 0 0 0 0)
(-3.52366e-13 2.28178e-12 0 2.66454e-13 2.32908e-12 0 0 0 0)
(0 -5.58469e-13 0 2.22045e-13 -4.72456e-13 0 0 0 0)
(0 1.16854e-13 0 2.66454e-13 9.52004e-14 0 0 0 0)
(2.71051e-14 -1.47965e-14 0 2.22045e-13 -5.03834e-15 0 0 0 0)
(-2.71051e-14 1.1786e-14 0 2.66454e-13 3.60146e-14 0 0 0 0)
(-2.71051e-14 5.15838e-15 0 1.77636e-13 4.21058e-14 0 0 0 0)
(-2.71051e-14 -4.52362e-15 0 1.77636e-13 5.66481e-14 0 0 0 0)
(0 -1.36772e-14 0 8.88178e-14 2.40114e-14 0 0 0 0)
(0 -1.12833e-14 0 1.33227e-13 1.93922e-15 0 0 0 0)
(0 -3.80378e-15 0 1.33227e-13 -2.11218e-14 0 0 0 0)
(0 8.9249e-15 0 8.88178e-14 -1.32759e-14 0 0 0 0)
(0 1.90065e-14 0 1.77636e-13 1.45778e-14 0 0 0 0)
(0 9.45083e-15 0 8.88178e-14 6.27501e-14 0 0 0 0)
(-2.71051e-14 -8.91663e-15 0 4.44089e-14 5.23811e-14 0 0 0 0)
(-2.71051e-14 -1.68128e-14 0 0 2.70835e-14 0 0 0 0)
(2.71051e-14 -3.82342e-15 0 4.44089e-14 -1.48699e-14 0 0 0 0)
(-2.71051e-14 5.34563e-15 0 4.44089e-14 1.17899e-14 0 0 0 0)
(0 -4.57562e-15 0 -8.88178e-14 6.51262e-15 0 0 0 0)
)
;
    }
    frontAndBack
    {
        type            empty;
    }
}


// ************************************************************************* //
