/*--------------------------------*- C++ -*----------------------------------*\
| =========                 |                                                 |
| \\      /  F ield         | OpenFOAM: The Open Source CFD Toolbox           |
|  \\    /   O peration     | Version:  2312                                  |
|   \\  /    A nd           | Website:  www.openfoam.com                      |
|    \\/     M anipulation  |                                                 |
\*---------------------------------------------------------------------------*/
FoamFile
{
    version     2.0;
    format      ascii;
    arch        "LSB;label=32;scalar=64";
    class       volVectorField;
    location    "5.75";
    object      gradPhi;
}
// * * * * * * * * * * * * * * * * * * * * * * * * * * * * * * * * * * * * * //

dimensions      [0 2 -1 0 0 0 0];

internalField   nonuniform List<vector> 
400
(
(-0.02 7.96956e-17 0)
(1.24077e-16 -1.23584e-16 0)
(-3.97047e-17 3.94957e-17 0)
(4.96308e-18 -5.19744e-18 0)
(0 5.71595e-19 0)
(0 -2.45653e-19 0)
(0 9.62743e-19 0)
(-1.65436e-18 1.18661e-18 0)
(-3.30872e-18 1.97691e-18 0)
(0 6.27668e-19 0)
(0 3.37685e-23 0)
(0 -3.3802e-19 0)
(0 -2.37579e-19 0)
(0 2.47517e-20 0)
(-1.65436e-18 1.13034e-18 0)
(0 6.84225e-19 0)
(0 1.02625e-18 0)
(0 -3.77718e-19 0)
(0 4.56421e-19 0)
(0 3.30124e-19 0)
(-0.02 -1.43959e-16 0)
(-2.05141e-16 2.05871e-16 0)
(6.61744e-17 -6.59599e-17 0)
(-1.15805e-17 9.86834e-18 0)
(1.65436e-18 -1.13837e-18 0)
(0 -6.94453e-19 0)
(3.30872e-18 -1.66129e-18 0)
(0 -8.20402e-19 0)
(1.65436e-18 -6.14172e-19 0)
(-1.65436e-18 1.28313e-18 0)
(0 3.8639e-19 0)
(1.65436e-18 -3.43938e-19 0)
(-1.65436e-18 1.09866e-18 0)
(-3.30872e-18 1.98194e-18 0)
(1.65436e-18 -5.90873e-19 0)
(1.65436e-18 -1.20855e-18 0)
(1.65436e-18 -2.84147e-18 0)
(1.65436e-18 -8.6819e-19 0)
(0 -1.59308e-19 0)
(0 -5.44541e-19 0)
(-0.02 3.07421e-17 0)
(4.46678e-17 -4.2168e-17 0)
(-1.8198e-17 1.62641e-17 0)
(3.30872e-18 -2.19109e-18 0)
(-1.65436e-18 1.39823e-18 0)
(-1.65436e-18 1.82229e-18 0)
(0 2.19979e-19 0)
(1.65436e-18 -9.78932e-19 0)
(1.65436e-18 -1.81049e-18 0)
(1.65436e-18 -1.78526e-18 0)
(-1.65436e-18 -3.06831e-20 0)
(0 1.61147e-18 0)
(0 -9.64649e-19 0)
(3.30872e-18 -2.33729e-18 0)
(0 -9.94609e-19 0)
(0 2.78375e-19 0)
(-3.30872e-18 1.22581e-18 0)
(0 1.52282e-18 0)
(0 -1.25994e-18 0)
(1.65436e-18 -9.83418e-19 0)
(-0.02 8.0188e-17 0)
(1.10842e-16 -1.11542e-16 0)
(-3.30872e-17 3.27164e-17 0)
(4.96308e-18 -4.86453e-18 0)
(0 4.72296e-20 0)
(1.65436e-18 -2.02151e-18 0)
(0 9.51298e-19 0)
(-1.65436e-18 1.29168e-18 0)
(-1.65436e-18 8.62809e-19 0)
(-1.65436e-18 8.76866e-19 0)
(0 -2.9038e-20 0)
(1.65436e-18 -7.45376e-19 0)
(-1.65436e-18 1.18353e-19 0)
(0 9.12089e-19 0)
(-1.65436e-18 1.3095e-18 0)
(-1.65436e-18 5.89231e-19 0)
(1.65436e-18 4.19062e-19 0)
(1.65436e-18 -1.46607e-18 0)
(0 4.17515e-19 0)
(-1.65436e-18 1.32291e-18 0)
(-0.02 -7.73448e-17 0)
(-1.1746e-16 1.16085e-16 0)
(4.30134e-17 -4.07032e-17 0)
(-4.96308e-18 3.27885e-18 0)
(3.30872e-18 -1.93171e-18 0)
(-1.65436e-18 1.47723e-18 0)
(0 -2.43613e-19 0)
(1.65436e-18 -4.52328e-19 0)
(0 -9.67087e-19 0)
(1.65436e-18 -1.39859e-18 0)
(-1.65436e-18 1.07922e-18 0)
(0 6.2352e-19 0)
(-1.65436e-18 -2.58292e-19 0)
(0 -2.53619e-19 0)
(1.65436e-18 -3.34477e-19 0)
(0 8.14752e-20 0)
(0 2.44608e-19 0)
(-1.65436e-18 9.73312e-19 0)
(-1.65436e-18 9.0203e-19 0)
(0 5.46886e-19 0)
(-0.02 1.34305e-17 0)
(3.14329e-17 -3.08161e-17 0)
(-1.8198e-17 1.62695e-17 0)
(1.65436e-18 2.18054e-19 0)
(0 -9.48911e-20 0)
(0 -5.01137e-19 0)
(1.65436e-18 -3.64435e-19 0)
(0 -5.84265e-19 0)
(-1.65436e-18 6.78234e-19 0)
(-1.65436e-18 1.75692e-18 0)
(0 -7.72354e-19 0)
(1.65436e-18 -4.27257e-19 0)
(0 -2.83319e-19 0)
(0 -6.99887e-19 0)
(1.65436e-18 1.65236e-19 0)
(0 5.8728e-19 0)
(-1.65436e-18 1.6364e-18 0)
(-1.65436e-18 1.3902e-18 0)
(0 5.07977e-20 0)
(0 -9.41962e-20 0)
(-0.02 3.48323e-17 0)
(5.12852e-17 -5.08479e-17 0)
(-1.32349e-17 1.35541e-17 0)
(3.30872e-18 -3.0622e-18 0)
(-3.30872e-18 9.12098e-19 0)
(1.65436e-18 2.44168e-19 0)
(-1.65436e-18 4.27549e-19 0)
(0 1.0598e-18 0)
(0 8.40523e-19 0)
(-1.65436e-18 8.18467e-20 0)
(-1.65436e-18 1.52326e-18 0)
(0 8.49041e-19 0)
(-3.30872e-18 2.34609e-18 0)
(0 1.19934e-18 0)
(0 -1.35314e-18 0)
(3.30872e-18 -1.4864e-18 0)
(1.65436e-18 -1.72051e-18 0)
(0 -1.21033e-18 0)
(0 -3.67203e-19 0)
(0 -1.92715e-19 0)
(-0.02 -2.6142e-17 0)
(-4.96308e-17 4.83353e-17 0)
(2.15067e-17 -2.12902e-17 0)
(-1.65436e-18 6.60674e-19 0)
(0 7.65569e-19 0)
(0 8.36813e-19 0)
(-1.65436e-18 1.78254e-18 0)
(-1.65436e-18 2.59046e-18 0)
(-3.30872e-18 2.72124e-18 0)
(0 -7.24682e-19 0)
(3.30872e-18 -2.99027e-18 0)
(0 2.41025e-19 0)
(0 -8.98294e-19 0)
(1.65436e-18 -1.66857e-18 0)
(1.65436e-18 -2.96335e-19 0)
(0 -1.22534e-18 0)
(1.65436e-18 -1.8243e-18 0)
(0 -9.35116e-19 0)
(1.65436e-18 -4.87364e-19 0)
(0 -5.30095e-19 0)
(-0.02 3.13953e-19 0)
(9.92617e-18 -8.8706e-18 0)
(-9.92617e-18 9.29587e-18 0)
(0 9.90387e-19 0)
(1.65436e-18 -9.08688e-19 0)
(0 4.60199e-19 0)
(0 -9.35027e-19 0)
(3.30872e-18 -2.68445e-18 0)
(1.65436e-18 -2.40345e-18 0)
(-1.65436e-18 1.32768e-18 0)
(-1.65436e-18 2.66656e-18 0)
(0 -2.8175e-19 0)
(0 -5.00454e-19 0)
(0 5.48435e-19 0)
(0 3.64774e-19 0)
(-1.65436e-18 7.59386e-19 0)
(-1.65436e-18 8.03838e-19 0)
(-1.65436e-18 7.24442e-19 0)
(1.65436e-18 -2.0353e-19 0)
(0 -3.37212e-19 0)
(-0.02 -2.60429e-17 0)
(-2.81241e-17 2.76844e-17 0)
(1.65436e-18 -1.03368e-18 0)
(-3.30872e-18 3.91138e-18 0)
(-1.65436e-18 7.67526e-19 0)
(0 -5.34029e-19 0)
(1.65436e-18 -9.06739e-19 0)
(0 1.5081e-19 0)
(1.65436e-18 -1.18947e-18 0)
(3.30872e-18 -2.38572e-18 0)
(0 -9.91239e-19 0)
(0 -3.79561e-19 0)
(0 1.62369e-19 0)
(0 2.85497e-19 0)
(0 -8.12343e-19 0)
(1.65436e-18 -6.50531e-19 0)
(0 3.71194e-19 0)
(-1.65436e-18 1.37296e-18 0)
(0 1.50913e-18 0)
(0 -1.4004e-19 0)
(-0.02 5.35519e-17 0)
(5.45939e-17 -5.34799e-17 0)
(-3.30872e-18 2.6037e-18 0)
(3.30872e-18 -3.30477e-18 0)
(-3.30872e-18 3.12787e-18 0)
(0 7.29281e-19 0)
(-1.65436e-18 1.5268e-18 0)
(0 4.60559e-19 0)
(-1.65436e-18 8.33306e-20 0)
(0 5.62979e-19 0)
(1.65436e-18 -3.58154e-19 0)
(0 -1.7463e-18 0)
(3.30872e-18 -2.65669e-18 0)
(1.65436e-18 -1.25459e-18 0)
(-3.30872e-18 1.40186e-18 0)
(-1.65436e-18 1.15324e-18 0)
(1.65436e-18 1.45944e-19 0)
(1.65436e-18 -1.93597e-18 0)
(1.65436e-18 -1.46546e-18 0)
(-1.65436e-18 4.52832e-19 0)
(-0.02 -3.30973e-17 0)
(-2.97785e-17 2.95213e-17 0)
(-6.61744e-18 7.06348e-18 0)
(-4.96308e-18 2.92863e-18 0)
(3.30872e-18 -2.32395e-18 0)
(0 -4.21174e-19 0)
(0 -1.87961e-19 0)
(1.65436e-18 -5.12012e-19 0)
(0 -7.0008e-19 0)
(0 -1.40349e-18 0)
(3.30872e-18 -3.00246e-18 0)
(1.65436e-18 -1.70444e-18 0)
(0 6.54035e-19 0)
(-1.65436e-18 6.93692e-19 0)
(1.65436e-18 -1.25094e-18 0)
(1.65436e-18 -5.30569e-19 0)
(0 3.19933e-19 0)
(-1.65436e-18 4.72551e-19 0)
(0 1.02786e-18 0)
(-1.65436e-18 8.33638e-19 0)
(-0.02 2.76562e-17 0)
(1.65436e-18 -2.06838e-18 0)
(1.65436e-17 -1.75539e-17 0)
(3.30872e-18 -3.71187e-18 0)
(1.65436e-18 -9.20386e-19 0)
(0 2.70144e-19 0)
(0 3.99215e-19 0)
(0 -3.57695e-19 0)
(0 -1.51031e-19 0)
(0 1.1009e-19 0)
(-1.65436e-18 3.61703e-19 0)
(0 -2.02093e-19 0)
(1.65436e-18 -4.64113e-19 0)
(0 -1.49287e-18 0)
(1.65436e-18 -1.90526e-19 0)
(-1.65436e-18 1.31074e-18 0)
(0 -3.50254e-20 0)
(1.65436e-18 -1.4677e-18 0)
(1.65436e-18 -1.92014e-18 0)
(1.65436e-18 -1.11561e-18 0)
(-0.02 -1.03114e-17 0)
(8.27181e-18 -8.83715e-18 0)
(-1.48893e-17 1.46288e-17 0)
(-1.65436e-18 8.45623e-20 0)
(1.65436e-18 -4.4764e-19 0)
(1.65436e-18 -1.11869e-18 0)
(3.30872e-18 -1.86976e-18 0)
(0 -3.34672e-19 0)
(0 -4.57389e-19 0)
(0 -7.45956e-19 0)
(0 5.01206e-19 0)
(-1.65436e-18 1.79471e-18 0)
(-3.30872e-18 9.96561e-19 0)
(0 4.72443e-19 0)
(-1.65436e-18 1.09607e-18 0)
(0 5.85279e-19 0)
(0 6.1846e-19 0)
(-1.65436e-18 2.31573e-18 0)
(0 7.86397e-19 0)
(0 1.46977e-19 0)
(-0.02 2.71577e-17 0)
(1.98523e-17 -2.16011e-17 0)
(0 1.2132e-18 0)
(1.65436e-18 -1.56244e-18 0)
(0 7.60951e-19 0)
(1.65436e-18 -8.06887e-19 0)
(0 -8.09404e-19 0)
(1.65436e-18 -2.20219e-18 0)
(3.30872e-18 -2.32946e-18 0)
(0 -4.30572e-19 0)
(-1.65436e-18 5.00334e-19 0)
(-1.65436e-18 8.69536e-19 0)
(0 8.02465e-20 0)
(0 1.59894e-18 0)
(0 -2.02663e-19 0)
(1.65436e-18 -4.29717e-19 0)
(-1.65436e-18 1.22047e-18 0)
(0 -3.69186e-19 0)
(0 4.25053e-19 0)
(0 2.17558e-19 0)
(-0.02 -5.20352e-17 0)
(-7.27919e-17 7.31528e-17 0)
(2.31611e-17 -2.4589e-17 0)
(-1.65436e-18 2.9905e-18 0)
(1.65436e-18 -3.25055e-18 0)
(1.65436e-18 -2.08846e-18 0)
(4.96308e-18 -2.62973e-18 0)
(0 8.96983e-20 0)
(-4.96308e-18 3.83668e-18 0)
(-1.65436e-18 1.93665e-18 0)
(0 2.11195e-19 0)
(0 1.55263e-19 0)
(0 1.76489e-18 0)
(-1.65436e-18 1.5703e-18 0)
(-3.30872e-18 2.45336e-18 0)
(0 3.36936e-19 0)
(1.65436e-18 -1.53195e-18 0)
(0 -6.27044e-20 0)
(1.65436e-18 -3.35097e-19 0)
(0 -9.81524e-19 0)
(-0.02 6.41681e-17 0)
(9.26442e-17 -9.14157e-17 0)
(-3.14329e-17 2.98869e-17 0)
(6.61744e-18 -4.88611e-18 0)
(-1.65436e-18 1.96493e-18 0)
(-1.65436e-18 1.91062e-18 0)
(-3.30872e-18 2.37228e-18 0)
(0 4.88023e-19 0)
(1.65436e-18 -2.03994e-18 0)
(3.30872e-18 -1.29057e-18 0)
(0 -1.5683e-19 0)
(0 -4.66295e-19 0)
(1.65436e-18 -9.30229e-19 0)
(0 -3.88049e-19 0)
(0 -5.76042e-19 0)
(0 -1.01151e-18 0)
(0 5.32019e-19 0)
(0 1.04534e-18 0)
(0 1.26258e-18 0)
(-1.65436e-18 1.43921e-18 0)
(-0.02 -1.04715e-17 0)
(-9.92617e-18 9.79139e-18 0)
(1.65436e-18 -1.55673e-18 0)
(0 6.50652e-19 0)
(0 -2.40939e-19 0)
(0 -1.81185e-19 0)
(-1.65436e-18 1.0495e-18 0)
(-1.65436e-18 2.2035e-18 0)
(-1.65436e-18 2.27148e-18 0)
(-1.65436e-18 2.25577e-18 0)
(-3.30872e-18 1.96416e-18 0)
(0 3.08053e-19 0)
(0 -4.01243e-19 0)
(1.65436e-18 -1.37481e-18 0)
(1.65436e-18 -1.64808e-18 0)
(1.65436e-18 -1.28929e-18 0)
(1.65436e-18 -1.81637e-18 0)
(0 -2.80464e-19 0)
(0 3.10463e-19 0)
(0 -6.66704e-19 0)
(-0.02 -7.60961e-17 0)
(-1.07533e-16 1.081e-16 0)
(3.14329e-17 -3.26458e-17 0)
(-6.61744e-18 5.70603e-18 0)
(1.65436e-18 -7.4147e-19 0)
(0 -4.2886e-19 0)
(1.65436e-18 -9.98283e-19 0)
(1.65436e-18 -1.32606e-18 0)
(1.65436e-18 -2.08028e-18 0)
(1.65436e-18 -1.1044e-18 0)
(0 -1.28115e-18 0)
(0 -3.02517e-19 0)
(0 5.35998e-19 0)
(0 1.88635e-19 0)
(0 2.1366e-19 0)
(0 8.31719e-19 0)
(-1.65436e-18 6.7828e-19 0)
(0 -2.89967e-19 0)
(0 -5.72741e-19 0)
(0 -6.25667e-20 0)
(-0.02 4.37642e-17 0)
(7.27919e-17 -7.33102e-17 0)
(-2.31611e-17 2.23407e-17 0)
(1.65436e-18 -2.50759e-18 0)
(-1.65436e-18 1.68259e-18 0)
(0 1.29129e-18 0)
(-1.65436e-18 9.14337e-19 0)
(0 7.31877e-19 0)
(-1.65436e-18 1.47164e-18 0)
(-1.65436e-18 4.49637e-19 0)
(0 4.18106e-19 0)
(0 4.84939e-19 0)
(0 -1.62338e-19 0)
(0 -6.37508e-21 0)
(0 1.15223e-19 0)
(-1.65436e-18 6.34018e-19 0)
(0 5.27355e-19 0)
(0 -5.53937e-19 0)
(0 -3.77451e-19 0)
(0 3.58493e-19 0)
)
;

boundaryField
{
    movingWall
    {
        type            extrapolatedCalculated;
        value           nonuniform List<vector> 
20
(
(-0.02 4.37642e-17 0)
(7.27919e-17 -7.33102e-17 0)
(-2.31611e-17 2.23407e-17 0)
(1.65436e-18 -2.50759e-18 0)
(-1.65436e-18 1.68259e-18 0)
(0 1.29129e-18 0)
(-1.65436e-18 9.14337e-19 0)
(0 7.31877e-19 0)
(-1.65436e-18 1.47164e-18 0)
(-1.65436e-18 4.49637e-19 0)
(0 4.18106e-19 0)
(0 4.84939e-19 0)
(0 -1.62338e-19 0)
(0 -6.37508e-21 0)
(0 1.15223e-19 0)
(-1.65436e-18 6.34018e-19 0)
(0 5.27355e-19 0)
(0 -5.53937e-19 0)
(0 -3.77451e-19 0)
(0 3.58493e-19 0)
)
;
    }
    fixedWalls
    {
        type            extrapolatedCalculated;
        value           nonuniform List<vector> 
60
(
(-0.02 7.96956e-17 0)
(-0.02 -1.43959e-16 0)
(-0.02 3.07421e-17 0)
(-0.02 8.0188e-17 0)
(-0.02 -7.73448e-17 0)
(-0.02 1.34305e-17 0)
(-0.02 3.48323e-17 0)
(-0.02 -2.6142e-17 0)
(-0.02 3.13953e-19 0)
(-0.02 -2.60429e-17 0)
(-0.02 5.35519e-17 0)
(-0.02 -3.30973e-17 0)
(-0.02 2.76562e-17 0)
(-0.02 -1.03114e-17 0)
(-0.02 2.71577e-17 0)
(-0.02 -5.20352e-17 0)
(-0.02 6.41681e-17 0)
(-0.02 -1.04715e-17 0)
(-0.02 -7.60961e-17 0)
(-0.02 4.37642e-17 0)
(0 3.30124e-19 0)
(0 -5.44541e-19 0)
(1.65436e-18 -9.83418e-19 0)
(-1.65436e-18 1.32291e-18 0)
(0 5.46886e-19 0)
(0 -9.41962e-20 0)
(0 -1.92715e-19 0)
(0 -5.30095e-19 0)
(0 -3.37212e-19 0)
(0 -1.4004e-19 0)
(-1.65436e-18 4.52832e-19 0)
(-1.65436e-18 8.33638e-19 0)
(1.65436e-18 -1.11561e-18 0)
(0 1.46977e-19 0)
(0 2.17558e-19 0)
(0 -9.81524e-19 0)
(-1.65436e-18 1.43921e-18 0)
(0 -6.66704e-19 0)
(0 -6.25667e-20 0)
(0 3.58493e-19 0)
(-0.02 7.96956e-17 0)
(1.24077e-16 -1.23584e-16 0)
(-3.97047e-17 3.94957e-17 0)
(4.96308e-18 -5.19744e-18 0)
(0 5.71595e-19 0)
(0 -2.45653e-19 0)
(0 9.62743e-19 0)
(-1.65436e-18 1.18661e-18 0)
(-3.30872e-18 1.97691e-18 0)
(0 6.27668e-19 0)
(0 3.37685e-23 0)
(0 -3.3802e-19 0)
(0 -2.37579e-19 0)
(0 2.47517e-20 0)
(-1.65436e-18 1.13034e-18 0)
(0 6.84225e-19 0)
(0 1.02625e-18 0)
(0 -3.77718e-19 0)
(0 4.56421e-19 0)
(0 3.30124e-19 0)
)
;
    }
    frontAndBack
    {
        type            empty;
    }
}


// ************************************************************************* //
