/*--------------------------------*- C++ -*----------------------------------*\
| =========                 |                                                 |
| \\      /  F ield         | OpenFOAM: The Open Source CFD Toolbox           |
|  \\    /   O peration     | Version:  2312                                  |
|   \\  /    A nd           | Website:  www.openfoam.com                      |
|    \\/     M anipulation  |                                                 |
\*---------------------------------------------------------------------------*/
FoamFile
{
    version     2.0;
    format      ascii;
    arch        "LSB;label=32;scalar=64";
    class       volScalarField;
    location    "5.75";
    object      Lambda2Field;
}
// * * * * * * * * * * * * * * * * * * * * * * * * * * * * * * * * * * * * * //

dimensions      [0 0 -2 0 0 0 0];

internalField   nonuniform List<scalar> 
400
(
1.28635e-23
4.55454e-24
1.86009e-25
0
3.16735e-27
8.9167e-28
5.43983e-28
5.43462e-28
6.12071e-28
0
0
0
0
0
0
5.82153e-28
7.17957e-29
6.3722e-29
1.10547e-28
0
3.90901e-24
6.5814e-24
3.31879e-25
1.50689e-26
6.86048e-28
0
6.63055e-28
-2.22019e-27
0
1.67766e-27
1.17406e-27
-3.02146e-28
0
1.809e-29
6.11505e-28
0
3.00957e-28
0
0
0
3.82944e-23
1.47193e-23
0
7.66486e-26
0
2.27488e-27
0
1.35391e-27
1.98149e-27
4.48098e-28
0
1.29293e-29
9.30925e-28
-3.33011e-28
0
-7.86707e-29
1.08571e-29
-2.68465e-28
9.79264e-28
0
1.2758e-23
6.06983e-24
1.50046e-26
0
2.49984e-27
-9.97008e-28
2.81518e-28
0
0
1.29836e-28
9.59649e-28
-3.91214e-29
0
1.18016e-29
0
-2.56854e-28
0
0
2.32286e-28
5.38688e-28
0
1.30301e-24
1.35632e-25
4.32595e-27
1.04475e-27
-3.44432e-28
1.7586e-28
9.45677e-29
1.74152e-28
0
7.40517e-29
0
2.71033e-29
0
3.15643e-28
-2.62678e-28
0
3.84524e-28
0
1.06071e-28
9.50737e-24
3.34974e-24
0
1.86126e-26
0
4.79183e-28
0
0
8.95535e-29
-5.22448e-29
2.45442e-28
4.7184e-28
1.84304e-28
0
0
-1.86079e-28
8.70408e-28
1.94183e-28
0
0
0
1.27647e-24
0
2.93874e-27
2.7852e-28
4.16458e-28
0
2.94435e-28
0
-1.14993e-27
3.6231e-28
3.7253e-28
2.75079e-27
5.51408e-28
4.23271e-28
-1.84729e-28
1.23527e-27
0
0
0
0
0
0
0
1.25826e-28
4.57045e-28
0
4.99097e-28
2.89635e-28
-9.08652e-28
2.07531e-28
2.66191e-29
0
0
0
1.11574e-29
1.91127e-27
0
0
0
0
0
0
-7.01895e-28
1.22519e-28
-1.10349e-27
9.16516e-28
7.60475e-28
6.869e-28
-1.65837e-27
1.92696e-27
-1.57547e-29
0
-4.63603e-28
0
-1.83565e-28
2.68216e-28
1.23368e-28
0
0
0
-2.78158e-25
0
-3.15012e-27
5.26211e-29
2.99393e-28
9.96104e-28
-6.90832e-28
0
0
0
6.4007e-28
1.67191e-27
-6.64348e-28
3.50544e-28
0
0
1.40761e-28
0
0
7.38527e-25
0
8.51925e-26
0
1.59888e-27
3.20877e-28
8.33805e-28
2.18339e-28
0
0
7.34684e-28
0
1.65797e-27
1.40636e-29
2.49404e-28
8.67784e-29
0
1.2743e-28
0
0
2.08865e-24
1.32373e-24
0
1.28103e-26
3.1846e-28
3.18778e-28
1.69642e-28
0
0
1.79358e-28
9.22598e-28
0
9.16123e-29
-1.24876e-27
2.84652e-28
0
0
0
7.30273e-29
3.23867e-29
2.8686e-24
2.65261e-24
7.97228e-26
0
1.00693e-27
1.05013e-28
0
-2.69438e-27
0
-2.11132e-27
0
0
2.43896e-28
1.05134e-28
6.6644e-28
9.23078e-29
0
4.06175e-29
1.91493e-28
0
0
8.59979e-25
0
1.93666e-26
4.6316e-28
1.00616e-27
2.01306e-28
-3.93022e-28
0
-2.91011e-28
5.81254e-29
7.70123e-28
1.38417e-28
5.77462e-28
3.13365e-28
4.89706e-28
0
0
0
0
0
1.01819e-24
0
1.9173e-26
0
0
4.97008e-28
1.1391e-27
7.10804e-29
-1.13371e-27
0
5.95659e-28
1.62506e-28
0
0
-1.62394e-27
3.54743e-28
9.3986e-29
6.33039e-29
0
0
1.41068e-24
0
1.60456e-26
0
5.29151e-28
5.79705e-28
0
1.79113e-27
0
0
0
3.60011e-28
8.23578e-29
8.4942e-28
2.2765e-28
2.57715e-28
-3.43894e-28
0
0
7.45192e-25
1.13099e-24
5.35155e-26
3.55167e-27
0
2.69302e-28
6.0067e-28
-1.72304e-27
1.89458e-28
1.98457e-28
0
-2.47805e-27
0
-1.36733e-27
7.42574e-29
-3.14866e-28
0
0
2.90671e-28
2.18768e-29
1.0371e-23
4.28426e-24
0
1.61721e-26
0
0
0
4.79596e-28
3.62342e-28
6.07328e-28
8.27284e-29
-2.825e-30
0
7.25154e-28
7.34684e-28
7.39128e-29
3.24128e-28
-6.17962e-28
0
0
1.70742e-24
1.80593e-24
9.51591e-26
4.99522e-27
0
0
6.62996e-28
0
2.32093e-27
0
0
-1.63464e-28
8.23336e-28
-3.46197e-28
7.9477e-29
9.02208e-29
1.14666e-28
1.2275e-28
4.21043e-28
-1.11314e-28
3.62617e-24
1.25205e-24
1.87783e-25
-1.35381e-26
5.98489e-27
3.12085e-28
4.59589e-28
3.96635e-28
2.5307e-28
-2.97877e-28
0
0
0
0
0
1.3401e-28
0
0
8.66752e-29
1.92225e-29
)
;

boundaryField
{
    movingWall
    {
        type            calculated;
        value           nonuniform List<scalar> 
20
(
0
0
7.19876e-25
-2.71367e-26
3.13709e-26
0
2.69329e-27
2.161e-27
0
-7.60941e-28
0
0
0
0
0
2.19561e-28
0
0
5.07388e-29
4.85652e-29
)
;
    }
    fixedWalls
    {
        type            calculated;
        value           nonuniform List<scalar> 
60
(
7.68093e-23
9.09938e-23
1.97365e-22
8.53674e-23
1.86595e-23
4.87758e-23
5.39354e-24
0
0
-1.25665e-23
4.70405e-23
1.81342e-23
5.75979e-23
6.32309e-24
0
4.34321e-24
1.46418e-23
5.18588e-23
2.74246e-23
2.23131e-23
1.20074e-29
0
0
4.88015e-28
4.52587e-28
0
0
0
0
0
1.35906e-28
0
0
0
0
0
0
0
3.41785e-28
0
0
0
7.3215e-25
0
3.11363e-26
-2.55079e-27
3.87512e-27
1.651e-27
0
-6.38236e-28
0
-6.0635e-29
7.9269e-28
3.37623e-27
8.39402e-28
3.38706e-28
7.34684e-28
5.13203e-29
7.5788e-28
4.06397e-28
)
;
    }
    frontAndBack
    {
        type            empty;
    }
}


// ************************************************************************* //
