/*--------------------------------*- C++ -*----------------------------------*\
| =========                 |                                                 |
| \\      /  F ield         | OpenFOAM: The Open Source CFD Toolbox           |
|  \\    /   O peration     | Version:  2312                                  |
|   \\  /    A nd           | Website:  www.openfoam.com                      |
|    \\/     M anipulation  |                                                 |
\*---------------------------------------------------------------------------*/
FoamFile
{
    version     2.0;
    format      ascii;
    arch        "LSB;label=32;scalar=64";
    class       volVectorField;
    location    "5.75";
    object      LambVectorField;
}
// * * * * * * * * * * * * * * * * * * * * * * * * * * * * * * * * * * * * * //

dimensions      [0 1 -2 0 0 0 0];

internalField   nonuniform List<vector> 
400
(
(-8.86155e-25 -7.71053e-12 -7.71053e-12)
(-2.54035e-25 1.05853e-11 -0)
(-1.31283e-26 -2.25467e-12 -2.25467e-12)
(-6.91645e-28 5.85575e-13 -0)
(-2.13604e-29 -8.97494e-14 -8.97494e-14)
(4.96448e-31 -3.94137e-14 -0)
(1.37927e-30 1.5319e-14 1.5319e-14)
(-5.42995e-31 -5.15838e-15 0)
(4.47926e-30 3.16287e-14 3.16287e-14)
(8.21023e-31 1.36772e-14 0)
(5.47019e-32 1.12833e-14 1.12833e-14)
(-2.00857e-31 3.80378e-15 -0)
(2.96215e-31 -8.9249e-15 -8.9249e-15)
(-6.92682e-31 -1.90065e-14 0)
(-9.98682e-30 -6.36609e-14 -6.36609e-14)
(-5.93131e-30 -4.52935e-14 0)
(1.13837e-30 1.68128e-14 1.68128e-14)
(-1.42135e-31 3.82342e-15 -0)
(-1.57561e-31 -5.34563e-15 -5.34563e-15)
(7.44982e-32 4.57562e-15 0)
(-6.9931e-26 -2.10314e-12 -2.10314e-12)
(-2.06444e-26 2.81246e-12 -0)
(-1.46032e-27 -7.79443e-13 -7.79443e-13)
(-3.73431e-29 1.04e-13 -0)
(-2.22252e-30 -1.09018e-13 -1.09018e-13)
(1.12686e-29 -1.37361e-13 -0)
(-5.01433e-30 -1.2941e-13 -1.2941e-13)
(-1.96637e-29 -1.53793e-13 0)
(-1.87759e-29 -8.4795e-14 -8.4795e-14)
(-9.8706e-30 -6.06836e-14 0)
(-4.919e-31 -3.25525e-14 -3.25525e-14)
(3.28247e-30 -6.08777e-14 -0)
(-6.09709e-30 -7.45489e-14 -7.45489e-14)
(-8.05306e-30 -5.38778e-14 0)
(1.42044e-30 1.81033e-14 1.81033e-14)
(-4.27849e-31 1.35549e-14 -0)
(-6.32917e-32 1.10871e-15 1.10871e-15)
(5.51474e-31 -1.29298e-14 -0)
(-4.19063e-30 -5.80319e-14 -5.80319e-14)
(-3.00467e-32 6.77794e-15 -0)
(-1.01007e-24 7.31892e-12 7.31892e-12)
(-3.5454e-25 -1.1985e-11 0)
(-2.0475e-26 2.90629e-12 2.90629e-12)
(-9.16228e-28 -5.71433e-13 0)
(-6.58594e-29 2.67141e-13 2.67141e-13)
(2.87959e-30 1.77966e-13 0)
(-1.13885e-29 8.83932e-14 8.83932e-14)
(-3.61288e-30 6.61704e-14 -0)
(1.49177e-30 6.59822e-14 6.59822e-14)
(7.85445e-30 7.95547e-14 0)
(2.47968e-30 6.16628e-14 6.16628e-14)
(1.33959e-30 5.53465e-14 0)
(1.5208e-30 5.2714e-14 5.2714e-14)
(2.52302e-30 6.442e-14 0)
(-6.87818e-30 9.39009e-14 9.39009e-14)
(-4.98079e-30 5.74535e-14 -0)
(6.35079e-31 -6.00924e-15 -6.00924e-15)
(1.60219e-30 -6.02326e-14 -0)
(-2.66986e-30 5.87308e-14 5.87308e-14)
(8.42061e-31 -1.17267e-14 -0)
(-5.68059e-25 -5.90812e-12 -5.90812e-12)
(-1.81812e-25 8.62667e-12 -0)
(-1.03457e-26 -2.0678e-12 -2.0678e-12)
(-4.60736e-28 4.9031e-13 -0)
(-2.4173e-29 -6.51229e-14 -6.51229e-14)
(-1.49943e-30 8.61542e-14 -0)
(4.02892e-30 7.78531e-14 7.78531e-14)
(2.01114e-30 1.16815e-13 0)
(-1.83923e-30 5.71287e-14 5.71287e-14)
(-6.2021e-31 5.18151e-14 -0)
(-4.10312e-31 4.97719e-14 4.97719e-14)
(9.90425e-31 3.05571e-14 0)
(-1.29352e-30 3.02476e-14 3.02476e-14)
(-1.17719e-32 -1.19328e-14 0)
(-2.58072e-30 -3.37068e-14 -3.37068e-14)
(2.62102e-30 3.91175e-14 0)
(-3.17086e-30 7.27922e-14 7.27922e-14)
(-7.32618e-30 6.16593e-14 -0)
(-2.18812e-30 1.85352e-14 1.85352e-14)
(-3.97029e-31 1.1988e-14 -0)
(-1.3196e-26 1.97103e-12 1.97103e-12)
(-1.48797e-27 -9.17712e-13 0)
(-1.04145e-28 2.0853e-13 2.0853e-13)
(-7.53664e-30 -9.63832e-14 0)
(1.21709e-30 -1.56655e-14 -1.56655e-14)
(1.46308e-30 -4.04158e-14 -0)
(-2.06898e-30 -3.73363e-14 -3.73363e-14)
(2.2217e-31 3.3605e-15 0)
(-6.27876e-31 -2.8789e-14 -2.8789e-14)
(-9.81122e-31 -1.18276e-14 0)
(-2.10676e-31 -1.50392e-15 -1.50392e-15)
(9.63719e-31 9.83474e-15 0)
(1.02144e-31 2.44727e-15 2.44727e-15)
(-1.36366e-31 -1.85485e-15 0)
(3.73414e-30 6.194e-14 6.194e-14)
(-1.40855e-31 3.72561e-14 -0)
(-2.80856e-31 6.81293e-15 6.81293e-15)
(2.7767e-31 -3.86135e-15 -0)
(1.00425e-31 -3.84704e-14 -3.84704e-14)
(-9.6811e-31 -2.31917e-14 0)
(-1.52917e-25 2.60019e-12 2.60019e-12)
(-6.21057e-26 -4.97677e-12 0)
(-3.76729e-27 1.22351e-12 1.22351e-12)
(-1.18992e-28 -2.31036e-13 0)
(-1.7292e-29 7.63051e-14 7.63051e-14)
(2.18855e-31 9.49963e-15 0)
(-1.89163e-30 3.74118e-14 3.74118e-14)
(-1.37011e-31 1.71201e-15 -0)
(2.57142e-30 -3.79924e-14 -3.79924e-14)
(-1.98238e-30 -6.87264e-14 0)
(-3.84941e-30 -4.96825e-14 -4.96825e-14)
(1.64649e-31 -1.00204e-14 -0)
(2.69214e-30 -2.88341e-14 -2.88341e-14)
(-6.12463e-32 -7.13112e-14 0)
(-2.89226e-30 -3.72504e-14 -3.72504e-14)
(-5.96872e-30 -5.83383e-14 0)
(-6.14921e-30 -5.17064e-14 -5.17064e-14)
(4.6974e-31 6.07877e-15 0)
(1.63409e-31 2.81073e-15 2.81073e-15)
(5.27604e-31 1.07306e-14 0)
(-2.59205e-25 -4.68571e-12 -4.68571e-12)
(-5.75671e-26 5.15296e-12 -0)
(-3.33044e-27 -1.23149e-12 -1.23149e-12)
(-1.27425e-28 2.63819e-13 -0)
(-6.6405e-30 -1.003e-13 -1.003e-13)
(1.02839e-30 -4.65278e-14 -0)
(8.88684e-31 -8.37075e-14 -8.37075e-14)
(-1.13484e-31 -6.23313e-14 0)
(-8.85633e-30 -1.25452e-13 -1.25452e-13)
(-2.48471e-29 -1.4434e-13 0)
(-1.22012e-29 -7.68595e-14 -7.68595e-14)
(-6.03968e-30 -4.73381e-14 0)
(-6.43213e-30 -7.1447e-14 -7.1447e-14)
(-2.15433e-30 -7.4534e-14 0)
(-2.47241e-30 -1.11292e-13 -1.11292e-13)
(-5.21461e-30 -9.04893e-14 0)
(-6.28941e-30 -5.51914e-14 -5.51914e-14)
(5.4568e-31 8.0914e-15 0)
(7.81512e-32 2.36518e-15 2.36518e-15)
(3.36422e-31 7.68302e-15 0)
(-1.16326e-26 1.72813e-12 1.72813e-12)
(-9.87727e-28 -8.93725e-13 0)
(-7.37271e-29 1.46112e-13 1.46112e-13)
(1.29376e-29 -1.52405e-13 -0)
(4.23677e-30 -6.54415e-14 -6.54415e-14)
(-6.25379e-31 -2.2803e-14 0)
(-1.30203e-29 -7.97382e-14 -7.97382e-14)
(-2.87418e-30 -1.01667e-14 0)
(1.21357e-29 4.58027e-14 4.58027e-14)
(9.71889e-30 1.01525e-13 0)
(1.22254e-30 1.94485e-14 1.94485e-14)
(-1.77531e-30 -1.03039e-14 0)
(7.73764e-30 4.66405e-14 4.66405e-14)
(-2.5223e-30 1.09379e-13 -0)
(-4.38992e-30 3.82588e-14 3.82588e-14)
(-3.59288e-30 2.66934e-14 -0)
(-5.00015e-30 4.51985e-14 4.51985e-14)
(4.18782e-31 -9.41458e-15 -0)
(9.58079e-32 -5.81342e-15 -5.81342e-15)
(-3.86145e-33 -2.82849e-16 0)
(-8.15126e-26 3.13472e-12 3.13472e-12)
(-1.20708e-26 -2.57662e-12 0)
(-8.20706e-28 6.21199e-13 6.21199e-13)
(-1.59925e-29 -1.61421e-13 0)
(-2.03659e-31 -9.26097e-15 -9.26097e-15)
(-1.43016e-29 -7.46103e-14 0)
(1.14931e-29 5.08559e-14 5.08559e-14)
(5.89044e-30 2.61535e-14 0)
(1.61658e-29 6.86421e-14 6.86421e-14)
(1.05575e-29 1.30492e-13 0)
(1.20975e-30 8.18065e-14 8.18065e-14)
(4.15003e-30 5.46113e-14 0)
(1.02559e-30 9.51737e-14 9.51737e-14)
(-3.93084e-30 6.27994e-14 -0)
(-6.76128e-30 9.00097e-14 9.00097e-14)
(-1.38485e-29 9.26076e-14 -0)
(-9.26339e-30 4.92624e-14 4.92624e-14)
(1.18773e-30 -1.18699e-14 -0)
(5.4477e-31 -7.85619e-15 -7.85619e-15)
(1.95316e-31 -9.08431e-15 -0)
(-1.29778e-25 -4.67565e-12 -4.67565e-12)
(-1.48404e-26 3.05855e-12 -0)
(-8.84065e-28 -7.15063e-13 -7.15063e-13)
(-2.83746e-29 2.0137e-13 -0)
(-1.62833e-30 -4.54889e-14 -4.54889e-14)
(-8.50227e-31 -1.98046e-14 0)
(1.83762e-30 -4.93878e-14 -4.93878e-14)
(6.43444e-31 -1.21568e-13 -0)
(-9.47223e-30 -1.00477e-13 -1.00477e-13)
(-2.28099e-29 -1.22421e-13 0)
(-1.92952e-29 -8.23606e-14 -8.23606e-14)
(-8.34397e-30 -4.24029e-14 0)
(-7.05993e-30 -6.07543e-14 -6.07543e-14)
(-4.55792e-31 5.16156e-14 -0)
(1.82682e-30 -1.41723e-14 -1.41723e-14)
(5.03596e-30 -3.64507e-14 -0)
(4.56867e-30 -1.28895e-13 -1.28895e-13)
(-2.22763e-31 -3.34535e-15 0)
(-2.49589e-32 1.25333e-14 1.25333e-14)
(3.56789e-31 -6.07359e-15 -0)
(-1.27417e-25 3.53593e-12 3.53593e-12)
(-2.79152e-26 -3.61454e-12 0)
(-1.17183e-27 7.73064e-13 7.73064e-13)
(-1.14269e-28 -2.13789e-13 0)
(3.54683e-30 4.43564e-14 4.43564e-14)
(2.26996e-30 2.49642e-14 0)
(-3.1043e-31 -3.06234e-15 -3.06234e-15)
(1.11548e-30 9.17697e-15 0)
(1.32191e-31 1.37693e-14 1.37693e-14)
(4.73553e-31 -2.9339e-14 -0)
(1.52873e-31 4.78629e-15 4.78629e-15)
(-4.28946e-30 6.70189e-14 -0)
(-5.20927e-30 5.41795e-14 5.41795e-14)
(1.60404e-31 -2.5182e-15 -0)
(-2.22901e-30 3.14094e-14 3.14094e-14)
(8.67525e-33 -8.12735e-17 -0)
(8.79178e-31 -1.25322e-14 -1.25322e-14)
(-1.7065e-31 -9.18428e-15 0)
(7.21138e-31 3.32485e-14 3.32485e-14)
(9.0697e-32 -2.11643e-15 -0)
(-6.80122e-26 -2.26016e-12 -2.26016e-12)
(-1.63002e-26 2.65701e-12 -0)
(-1.17576e-27 -7.23886e-13 -7.23886e-13)
(8.79149e-31 4.42571e-14 0)
(-2.68017e-29 -7.27294e-14 -7.27294e-14)
(-3.15131e-30 -1.5368e-14 0)
(-5.23541e-30 -2.08464e-14 -2.08464e-14)
(3.73154e-30 2.61917e-14 0)
(-2.25979e-31 2.09732e-14 2.09732e-14)
(-7.34132e-31 1.09146e-14 -0)
(-1.61854e-30 1.34967e-14 1.34967e-14)
(-1.36696e-30 6.75947e-15 -0)
(2.9233e-30 -1.55897e-14 -1.55897e-14)
(4.54541e-30 -9.81053e-14 -0)
(5.34251e-31 -2.72379e-14 -2.72379e-14)
(-9.64861e-32 2.14397e-15 -0)
(-5.3067e-33 1.29261e-16 1.29261e-16)
(2.70058e-30 -5.8333e-14 -0)
(-1.16154e-33 -6.65759e-15 -6.65759e-15)
(4.14812e-32 2.04544e-15 0)
(-3.45336e-27 -7.52554e-13 -7.52554e-13)
(-6.97142e-28 6.17446e-13 -0)
(-1.90672e-29 -6.11625e-14 -6.11625e-14)
(2.57687e-30 1.04525e-13 0)
(1.0202e-29 1.28095e-13 1.28095e-13)
(7.91846e-30 8.00237e-14 0)
(1.1306e-29 1.2215e-13 1.2215e-13)
(-5.96045e-30 1.55419e-13 -0)
(-1.27218e-29 1.19592e-13 1.19592e-13)
(-2.27062e-29 1.51309e-13 -0)
(-3.15936e-29 1.19577e-13 1.19577e-13)
(2.94381e-30 -1.12518e-14 -0)
(-2.7467e-30 1.81069e-14 1.81069e-14)
(-9.65954e-30 5.62753e-14 -0)
(-7.2241e-30 4.19165e-14 4.19165e-14)
(7.58903e-31 -1.55795e-14 -0)
(-9.77939e-32 5.90904e-15 5.90904e-15)
(-4.3624e-31 4.04668e-15 -0)
(2.24023e-30 -3.92908e-14 -3.92908e-14)
(-6.03845e-32 -4.2961e-15 0)
(-2.43274e-25 4.86966e-12 4.86966e-12)
(-5.03249e-26 -4.80379e-12 0)
(-2.94198e-27 1.19533e-12 1.19533e-12)
(-7.52005e-29 -1.79005e-13 0)
(-3.65476e-30 2.83167e-14 2.83167e-14)
(-8.07422e-31 -5.89636e-15 0)
(1.50256e-31 7.4774e-16 7.4774e-16)
(6.48568e-30 5.00986e-14 0)
(-2.29446e-30 7.91494e-14 7.91494e-14)
(-8.7709e-30 7.31308e-14 -0)
(-1.45516e-29 6.66904e-14 6.66904e-14)
(-1.23508e-29 5.04656e-14 -0)
(-3.97624e-30 2.19984e-14 2.19984e-14)
(-8.43587e-30 4.35578e-14 -0)
(1.8167e-30 -2.44744e-14 -2.44744e-14)
(2.58132e-30 5.05412e-14 0)
(-3.65726e-30 9.74253e-14 9.74253e-14)
(-6.83208e-30 6.20941e-14 -0)
(9.80296e-31 -8.42333e-15 -8.42333e-15)
(3.66729e-31 -1.42173e-14 -0)
(-5.40397e-25 -6.84923e-12 -6.84923e-12)
(-1.20752e-25 7.37653e-12 -0)
(-6.6016e-27 -1.74718e-12 -1.74718e-12)
(-2.38175e-28 2.99461e-13 -0)
(-3.2167e-29 -1.33073e-13 -1.33073e-13)
(-3.77547e-31 5.6205e-14 -0)
(4.32074e-31 -8.7687e-15 -8.7687e-15)
(-4.86799e-30 2.56101e-14 -0)
(-8.41422e-31 2.75537e-15 2.75537e-15)
(1.63518e-29 -7.51343e-14 -0)
(7.07784e-30 -7.36251e-14 -7.36251e-14)
(5.9567e-32 -2.53648e-15 -0)
(1.4939e-30 -2.11096e-14 -2.11096e-14)
(4.74294e-30 -5.68437e-14 -0)
(3.32075e-30 -7.4736e-14 -7.4736e-14)
(-1.58579e-29 -1.30175e-13 0)
(-4.05448e-30 -2.34212e-14 -2.34212e-14)
(1.76719e-30 2.07948e-14 0)
(-4.19798e-31 1.20504e-14 1.20504e-14)
(2.49921e-31 -7.03582e-15 -0)
(-2.11643e-25 4.16219e-12 4.16219e-12)
(-4.89723e-26 -4.62766e-12 0)
(-3.07944e-27 1.1511e-12 1.1511e-12)
(-8.00467e-29 -1.87568e-13 0)
(-2.95844e-29 1.14922e-13 1.14922e-13)
(1.88611e-31 -1.04573e-15 -0)
(-7.3779e-30 2.98734e-14 2.98734e-14)
(8.44373e-30 -4.05857e-14 -0)
(1.01956e-29 -9.08986e-14 -9.08986e-14)
(6.20767e-30 -5.53204e-14 -0)
(1.12721e-30 -1.11537e-14 -1.11537e-14)
(6.73843e-33 -9.96587e-15 -0)
(4.31924e-32 -3.07821e-14 -3.07821e-14)
(8.68665e-31 2.40666e-14 0)
(-6.07859e-32 -2.0974e-15 -2.0974e-15)
(2.85402e-30 5.00107e-14 0)
(4.97892e-31 7.01497e-15 7.01497e-15)
(-5.31686e-31 4.06442e-14 -0)
(-1.99662e-30 3.09957e-14 3.09957e-14)
(6.05157e-31 -1.16404e-14 -0)
(-1.20813e-26 8.42973e-13 8.42973e-13)
(-2.64617e-27 -1.11257e-12 0)
(-2.50456e-28 3.26692e-13 3.26692e-13)
(-1.69222e-31 2.24597e-15 -0)
(-1.73768e-29 7.03507e-14 7.03507e-14)
(1.25968e-29 -5.3207e-14 -0)
(8.19452e-30 -3.18812e-14 -3.18812e-14)
(2.38226e-29 -1.26053e-13 -0)
(7.10377e-30 -8.80203e-14 -8.80203e-14)
(6.30645e-30 -5.17184e-14 -0)
(1.2627e-29 -1.19548e-13 -1.19548e-13)
(1.64177e-30 -1.53937e-13 -0)
(-6.10045e-30 -7.77187e-14 -7.77187e-14)
(-2.20265e-29 -9.81484e-14 0)
(4.19047e-30 1.69774e-14 1.69774e-14)
(2.7401e-30 5.01422e-14 0)
(2.91449e-32 1.77122e-15 1.77122e-15)
(1.11889e-30 3.0294e-14 0)
(-1.01252e-31 6.56008e-15 6.56008e-15)
(1.26422e-31 -4.4101e-15 -0)
(-1.93039e-25 -3.03262e-12 -3.03262e-12)
(-6.96096e-26 5.35495e-12 -0)
(-3.90872e-27 -1.27846e-12 -1.27846e-12)
(-1.84152e-28 2.43392e-13 -0)
(-1.02895e-29 -1.26495e-13 -1.26495e-13)
(-3.71827e-31 1.10135e-14 -0)
(-1.06285e-31 3.69146e-15 3.69146e-15)
(-6.01173e-30 8.50609e-14 -0)
(-1.54347e-30 2.32977e-14 2.32977e-14)
(-1.54845e-30 4.74961e-14 -0)
(8.51372e-34 9.55998e-16 9.55998e-16)
(-1.20529e-30 2.85874e-14 -0)
(1.25908e-31 -9.03702e-15 -9.03702e-15)
(-1.35386e-31 -2.80834e-15 0)
(2.36438e-31 1.67083e-14 1.67083e-14)
(2.89794e-30 -2.43782e-14 -0)
(3.36994e-31 -2.56893e-14 -2.56893e-14)
(-9.08313e-30 -6.58109e-14 0)
(1.47373e-30 1.43234e-14 1.43234e-14)
(-5.0938e-32 9.76747e-15 -0)
(-1.0101e-26 5.78259e-13 5.78259e-13)
(-4.90409e-27 -1.37994e-12 0)
(-4.19606e-28 4.37983e-13 4.37983e-13)
(3.13029e-31 -2.43828e-14 -0)
(-1.03251e-29 5.99911e-14 5.99911e-14)
(1.57878e-30 -2.23471e-14 -0)
(5.61666e-31 1.09359e-14 1.09359e-14)
(2.65857e-30 2.9201e-14 0)
(3.46926e-30 1.14118e-13 1.14118e-13)
(2.00042e-30 5.87296e-14 0)
(-1.76056e-30 1.19005e-13 1.19005e-13)
(-7.90288e-30 1.10095e-13 -0)
(-1.62499e-30 5.15185e-14 5.15185e-14)
(-3.8453e-30 8.57054e-14 -0)
(-2.79402e-30 3.70343e-14 3.70343e-14)
(-4.40122e-30 3.05304e-14 -0)
(2.349e-30 -2.14135e-14 -2.14135e-14)
(-1.28068e-30 -1.83016e-14 0)
(-1.24312e-30 -1.6955e-14 -1.6955e-14)
(-9.86217e-31 3.12845e-14 -0)
(-3.38211e-25 4.85145e-12 4.85145e-12)
(-9.5204e-26 -6.47917e-12 0)
(-4.60629e-27 1.29154e-12 1.29154e-12)
(-2.70496e-28 -3.89604e-13 0)
(-5.48852e-30 2.58194e-14 2.58194e-14)
(4.68563e-31 -4.41994e-15 -0)
(3.0786e-30 -1.82843e-14 -1.82843e-14)
(9.48898e-30 -4.88572e-14 -0)
(1.40008e-29 -6.30943e-14 -6.30943e-14)
(7.71964e-30 -7.32575e-14 -0)
(2.03626e-30 -6.47881e-14 -6.47881e-14)
(-2.40343e-32 -5.96861e-14 0)
(-3.48818e-32 -1.49515e-15 -1.49515e-15)
(-4.38821e-31 -2.85798e-14 0)
(-1.03618e-30 -2.72123e-14 -2.72123e-14)
(-3.64032e-31 -2.2161e-14 0)
(1.22714e-32 -1.07993e-15 -1.07993e-15)
(-7.67679e-32 -2.81965e-15 0)
(7.82418e-32 4.64803e-15 4.64803e-15)
(5.26549e-31 -2.73471e-14 -0)
)
;

boundaryField
{
    movingWall
    {
        type            calculated;
        value           nonuniform List<vector> 
20
(
(0 7.54478e-12 -0)
(0 -7.68051e-12 -0)
(0 9.11458e-13 -0)
(0 -6.46257e-13 -0)
(0 -2.75242e-13 -0)
(0 -2.26465e-13 -0)
(0 -2.13224e-13 -0)
(0 -2.61101e-13 -0)
(0 -2.30929e-13 -0)
(0 -1.52274e-13 -0)
(0 -9.93958e-14 -0)
(0 -4.98849e-14 -0)
(0 -1.49515e-15 -0)
(0 -4.58837e-14 -0)
(0 -1.07252e-16 -0)
(0 -3.94648e-14 -0)
(0 -1.07993e-15 -0)
(0 -2.81965e-15 -0)
(0 4.64803e-15 -0)
(0 -4.4651e-14 -0)
)
;
    }
    fixedWalls
    {
        type            calculated;
        value           nonuniform List<vector> 
60
(
(0 -4.45888e-11 -0)
(0 -1.28124e-11 -0)
(0 5.16795e-11 -0)
(0 -3.68603e-11 -0)
(0 4.14167e-12 -0)
(0 2.14911e-11 -0)
(0 -2.23983e-11 -0)
(0 3.85805e-12 -0)
(0 1.14041e-11 -0)
(0 -1.34877e-11 -0)
(0 1.51187e-11 -0)
(0 -1.19011e-11 -0)
(0 -2.24212e-12 -0)
(0 2.09044e-11 -0)
(0 -3.21559e-11 -0)
(0 2.04752e-11 -0)
(0 5.38036e-12 -0)
(0 -2.34288e-11 -0)
(0 6.17403e-12 -0)
(0 2.72349e-11 -0)
(0 6.51262e-15 -0)
(0 -1.77321e-15 -0)
(0 -2.8723e-14 -0)
(0 1.38575e-14 -0)
(0 -1.04075e-14 -0)
(0 1.96673e-14 -0)
(0 1.75151e-14 -0)
(0 5.46079e-15 -0)
(0 -8.60013e-15 -0)
(0 -2.34978e-14 -0)
(0 -1.71415e-14 -0)
(0 8.11196e-15 -0)
(0 5.62226e-15 -0)
(0 -1.03178e-14 -0)
(0 -1.42085e-14 -0)
(0 -2.07951e-14 -0)
(0 -1.14666e-14 -0)
(0 -2.08603e-15 -0)
(0 1.44954e-14 -0)
(0 -3.48068e-14 -0)
(0 -1.27344e-11 -0)
(0 1.25092e-11 -0)
(0 -2.01533e-12 -0)
(0 7.80514e-13 -0)
(0 1.49599e-13 -0)
(0 2.36841e-13 -0)
(0 2.54667e-13 -0)
(0 1.72477e-13 -0)
(0 1.82159e-13 -0)
(0 1.02495e-13 -0)
(0 1.4451e-13 -0)
(0 1.37031e-13 -0)
(0 7.98929e-14 -0)
(0 1.58629e-13 -0)
(0 7.9367e-14 -0)
(0 5.33256e-14 -0)
(0 1.68128e-14 -0)
(0 4.82323e-14 -0)
(0 3.90633e-14 -0)
(0 -8.42422e-14 -0)
)
;
    }
    frontAndBack
    {
        type            empty;
    }
}


// ************************************************************************* //
