/*--------------------------------*- C++ -*----------------------------------*\
| =========                 |                                                 |
| \\      /  F ield         | OpenFOAM: The Open Source CFD Toolbox           |
|  \\    /   O peration     | Version:  2312                                  |
|   \\  /    A nd           | Website:  www.openfoam.com                      |
|    \\/     M anipulation  |                                                 |
\*---------------------------------------------------------------------------*/
FoamFile
{
    version     2.0;
    format      ascii;
    arch        "LSB;label=32;scalar=64";
    class       volScalarField;
    location    "5.75";
    object      magSqrP;
}
// * * * * * * * * * * * * * * * * * * * * * * * * * * * * * * * * * * * * * //

dimensions      [0 4 -4 0 0 0 0];

internalField   nonuniform List<scalar> 
400
(
2.1827e-32
2.64987e-29
1.69051e-29
2.52225e-29
2.95139e-29
3.23254e-29
3.79648e-29
4.30157e-29
4.79113e-29
5.49078e-29
5.59397e-29
5.69813e-29
5.70013e-29
6.04665e-29
6.41136e-29
6.71243e-29
6.79609e-29
6.77093e-29
7.07261e-29
7.07354e-29
1.43014e-29
3.99422e-31
1.7105e-29
2.30111e-29
3.16627e-29
3.27214e-29
3.84898e-29
4.34259e-29
4.635e-29
5.56342e-29
5.55481e-29
5.62308e-29
5.82143e-29
6.42216e-29
6.31941e-29
6.73751e-29
6.56843e-29
6.91221e-29
6.98623e-29
7.07448e-29
1.51156e-29
2.47165e-29
2.0773e-29
2.74527e-29
3.33255e-29
3.6898e-29
4.04831e-29
4.5069e-29
4.61326e-29
5.34297e-29
5.52143e-29
5.77716e-29
5.64758e-29
6.14404e-29
6.27241e-29
6.64647e-29
6.85625e-29
7.16584e-29
6.90917e-29
7.16425e-29
1.60141e-29
3.8342e-29
2.54671e-29
3.18803e-29
3.48243e-29
3.8301e-29
4.40118e-29
4.76282e-29
4.82777e-29
5.23401e-29
5.43943e-29
5.66424e-29
5.83595e-29
6.20918e-29
6.41006e-29
6.591e-29
6.83204e-29
6.99541e-29
7.04627e-29
7.51602e-29
2.8593e-29
1.12116e-29
2.92111e-29
3.36235e-29
3.90885e-29
4.31974e-29
4.62368e-29
4.85305e-29
4.85984e-29
5.12738e-29
5.57792e-29
5.78765e-29
5.95717e-29
6.1762e-29
6.47126e-29
6.56132e-29
6.76185e-29
6.91933e-29
6.92967e-29
7.40473e-29
2.6834e-29
4.83168e-29
3.48585e-29
4.01072e-29
4.13511e-29
4.55355e-29
4.81064e-29
4.84462e-29
5.15409e-29
5.41553e-29
5.57421e-29
5.92583e-29
6.12178e-29
6.32098e-29
6.55058e-29
6.64412e-29
6.70877e-29
6.83823e-29
6.82732e-29
7.30823e-29
3.29217e-29
4.19309e-29
3.84652e-29
4.07845e-29
4.59223e-29
4.78994e-29
4.87502e-29
5.10982e-29
5.43347e-29
5.52892e-29
5.76739e-29
6.03729e-29
6.3879e-29
6.29114e-29
6.42942e-29
6.67158e-29
6.34686e-29
6.53543e-29
6.85856e-29
7.23547e-29
4.67482e-29
2.28779e-29
4.07723e-29
4.22914e-29
4.93303e-29
5.01302e-29
5.1961e-29
5.52796e-29
5.65601e-29
5.48701e-29
5.49119e-29
6.20719e-29
6.29468e-29
6.15192e-29
6.46471e-29
6.50513e-29
6.27072e-29
6.67926e-29
6.92205e-29
7.08213e-29
4.0052e-29
5.7362e-29
4.52553e-29
4.85489e-29
4.99556e-29
5.09277e-29
5.2787e-29
5.48832e-29
5.43808e-29
5.5535e-29
5.94981e-29
6.12993e-29
6.18207e-29
6.25533e-29
6.33985e-29
6.54384e-29
6.48263e-29
6.74295e-29
6.9905e-29
7.09066e-29
4.44334e-29
5.55457e-29
4.81642e-29
5.15161e-29
5.27252e-29
5.00076e-29
5.2696e-29
5.60607e-29
5.47955e-29
5.42373e-29
5.95299e-29
6.3448e-29
6.35085e-29
6.27964e-29
6.23071e-29
6.48781e-29
6.61594e-29
6.66329e-29
7.00512e-29
7.20017e-29
5.03631e-29
3.47373e-29
5.05396e-29
5.04521e-29
5.41179e-29
4.9705e-29
5.345e-29
5.52407e-29
5.58253e-29
5.80026e-29
6.05912e-29
6.1551e-29
6.19511e-29
6.28213e-29
6.40226e-29
6.69573e-29
6.61266e-29
6.36129e-29
6.86734e-29
7.50983e-29
5.58352e-29
8.21444e-29
5.09441e-29
5.54717e-29
5.06878e-29
4.99314e-29
5.27142e-29
5.54686e-29
5.65527e-29
5.67951e-29
5.63662e-29
6.0625e-29
6.43087e-29
6.58595e-29
6.42298e-29
6.75281e-29
6.82439e-29
6.59732e-29
6.94726e-29
7.53506e-29
6.21808e-29
2.17837e-29
5.5637e-29
5.00344e-29
5.33982e-29
5.24053e-29
5.41295e-29
5.51103e-29
5.67941e-29
5.66946e-29
5.73583e-29
6.07541e-29
6.39516e-29
6.514e-29
6.77485e-29
6.91535e-29
6.88164e-29
6.82934e-29
6.86189e-29
7.21729e-29
5.11827e-29
9.24336e-29
5.599e-29
5.68431e-29
5.53367e-29
5.52714e-29
5.49679e-29
5.58116e-29
5.7419e-29
5.62286e-29
5.72787e-29
6.15388e-29
6.33685e-29
6.6157e-29
6.92693e-29
6.82279e-29
6.93529e-29
7.2358e-29
7.19985e-29
7.26303e-29
5.75936e-29
4.5627e-29
5.94405e-29
5.6061e-29
5.83308e-29
5.71395e-29
5.63115e-29
5.4714e-29
5.766e-29
5.86037e-29
5.92083e-29
6.24202e-29
6.16879e-29
6.53501e-29
6.83272e-29
6.85445e-29
7.07542e-29
7.06712e-29
7.40081e-29
7.37261e-29
6.12872e-29
3.77622e-29
5.67075e-29
5.72331e-29
5.79729e-29
5.84978e-29
5.66043e-29
5.72224e-29
6.23532e-29
6.06832e-29
6.01515e-29
6.1861e-29
6.29527e-29
6.40579e-29
6.90608e-29
6.76507e-29
6.81184e-29
7.07583e-29
7.38097e-29
7.45463e-29
4.52875e-29
7.97242e-29
5.88641e-29
6.1654e-29
6.11099e-29
6.15462e-29
5.86828e-29
5.91518e-29
6.07928e-29
5.99339e-29
6.17976e-29
6.18536e-29
6.0361e-29
6.06314e-29
6.55942e-29
6.71242e-29
6.75572e-29
6.94616e-29
7.39245e-29
7.61158e-29
5.28065e-29
5.89421e-29
5.88848e-29
6.13987e-29
6.21493e-29
6.09697e-29
6.07674e-29
6.29505e-29
6.22636e-29
6.07003e-29
6.19726e-29
6.18695e-29
6.12074e-29
6.02254e-29
6.25225e-29
6.50941e-29
6.53189e-29
6.82451e-29
7.287e-29
7.51488e-29
6.03656e-29
3.48738e-29
5.83515e-29
6.15224e-29
6.42488e-29
6.37019e-29
6.17905e-29
6.23153e-29
5.99091e-29
5.90519e-29
5.93583e-29
5.99827e-29
6.14547e-29
5.94413e-29
6.08912e-29
6.46757e-29
6.60576e-29
6.64653e-29
7.1452e-29
7.6488e-29
4.25132e-29
7.55397e-29
5.82585e-29
6.28987e-29
6.47016e-29
6.69909e-29
6.37483e-29
6.25255e-29
6.15232e-29
5.79287e-29
5.74204e-29
5.91341e-29
6.00177e-29
5.94768e-29
5.89738e-29
6.50929e-29
6.74029e-29
6.66125e-29
7.04753e-29
7.81992e-29
)
;

boundaryField
{
    movingWall
    {
        type            calculated;
        value           nonuniform List<scalar> 
20
(
4.25132e-29
7.55397e-29
5.82585e-29
6.28987e-29
6.47016e-29
6.69909e-29
6.37483e-29
6.25255e-29
6.15232e-29
5.79287e-29
5.74204e-29
5.91341e-29
6.00177e-29
5.94768e-29
5.89738e-29
6.50929e-29
6.74029e-29
6.66125e-29
7.04753e-29
7.81992e-29
)
;
    }
    fixedWalls
    {
        type            calculated;
        value           nonuniform List<scalar> 
60
(
2.1827e-32
1.43014e-29
1.51156e-29
1.60141e-29
2.8593e-29
2.6834e-29
3.29217e-29
4.67482e-29
4.0052e-29
4.44334e-29
5.03631e-29
5.58352e-29
6.21808e-29
5.11827e-29
5.75936e-29
6.12872e-29
4.52875e-29
5.28065e-29
6.03656e-29
4.25132e-29
7.07354e-29
7.07448e-29
7.16425e-29
7.51602e-29
7.40473e-29
7.30823e-29
7.23547e-29
7.08213e-29
7.09066e-29
7.20017e-29
7.50983e-29
7.53506e-29
7.21729e-29
7.26303e-29
7.37261e-29
7.45463e-29
7.61158e-29
7.51488e-29
7.6488e-29
7.81992e-29
2.1827e-32
2.64987e-29
1.69051e-29
2.52225e-29
2.95139e-29
3.23254e-29
3.79648e-29
4.30157e-29
4.79113e-29
5.49078e-29
5.59397e-29
5.69813e-29
5.70013e-29
6.04665e-29
6.41136e-29
6.71243e-29
6.79609e-29
6.77093e-29
7.07261e-29
7.07354e-29
)
;
    }
    frontAndBack
    {
        type            empty;
    }
}


// ************************************************************************* //
