/*--------------------------------*- C++ -*----------------------------------*\
| =========                 |                                                 |
| \\      /  F ield         | OpenFOAM: The Open Source CFD Toolbox           |
|  \\    /   O peration     | Version:  2312                                  |
|   \\  /    A nd           | Website:  www.openfoam.com                      |
|    \\/     M anipulation  |                                                 |
\*---------------------------------------------------------------------------*/
FoamFile
{
    version     2.0;
    format      ascii;
    arch        "LSB;label=32;scalar=64";
    class       volScalarField;
    location    "5.75";
    object      pzeroGrad;
}
// * * * * * * * * * * * * * * * * * * * * * * * * * * * * * * * * * * * * * //

dimensions      [0 2 -2 0 0 0 0];

internalField   nonuniform List<scalar> 
400
(
1.4774e-16
5.14769e-15
4.11158e-15
5.0222e-15
5.43267e-15
5.68555e-15
6.16156e-15
6.55864e-15
6.9218e-15
7.40998e-15
7.47928e-15
7.54859e-15
7.54992e-15
7.77602e-15
8.0071e-15
8.19294e-15
8.24384e-15
8.22857e-15
8.40988e-15
8.41044e-15
3.78172e-15
6.31998e-16
4.13582e-15
4.79699e-15
5.62696e-15
5.72026e-15
6.20402e-15
6.58983e-15
6.80809e-15
7.45884e-15
7.45306e-15
7.49872e-15
7.62983e-15
8.01384e-15
7.94947e-15
8.20823e-15
8.10458e-15
8.31397e-15
8.35837e-15
8.41099e-15
3.88788e-15
4.97156e-15
4.55774e-15
5.23953e-15
5.77282e-15
6.07437e-15
6.36263e-15
6.71334e-15
6.7921e-15
7.30956e-15
7.43063e-15
7.60076e-15
7.51504e-15
7.83839e-15
7.91986e-15
8.15259e-15
8.28025e-15
8.46513e-15
8.31214e-15
8.46419e-15
4.00177e-15
6.19209e-15
5.04649e-15
5.64627e-15
5.90121e-15
6.18878e-15
6.63414e-15
6.90132e-15
6.94822e-15
7.23465e-15
7.37525e-15
7.52612e-15
7.63934e-15
7.87984e-15
8.00628e-15
8.1185e-15
8.26561e-15
8.36386e-15
8.39421e-15
8.6695e-15
5.34724e-15
3.34837e-15
5.40473e-15
5.79858e-15
6.25208e-15
6.57247e-15
6.79977e-15
6.96638e-15
6.97125e-15
7.16057e-15
7.46855e-15
7.60766e-15
7.71827e-15
7.85888e-15
8.04441e-15
8.1002e-15
8.22305e-15
8.31825e-15
8.32446e-15
8.60508e-15
5.18015e-15
6.95103e-15
5.90411e-15
6.33303e-15
6.43048e-15
6.748e-15
6.93588e-15
6.96033e-15
7.1792e-15
7.35903e-15
7.46607e-15
7.69794e-15
7.82418e-15
7.95046e-15
8.09356e-15
8.15115e-15
8.19071e-15
8.26936e-15
8.26276e-15
8.54882e-15
5.73774e-15
6.47541e-15
6.20203e-15
6.38628e-15
6.7766e-15
6.92094e-15
6.98213e-15
7.1483e-15
7.3712e-15
7.43567e-15
7.59434e-15
7.77e-15
7.99244e-15
7.93167e-15
8.01837e-15
8.16797e-15
7.96672e-15
8.0842e-15
8.28164e-15
8.50616e-15
6.83727e-15
4.78308e-15
6.38532e-15
6.50319e-15
7.02356e-15
7.08027e-15
7.2084e-15
7.43502e-15
7.52065e-15
7.40744e-15
7.41026e-15
7.87857e-15
7.9339e-15
7.84342e-15
8.04034e-15
8.06544e-15
7.91879e-15
8.17268e-15
8.31989e-15
8.41554e-15
6.32866e-15
7.57377e-15
6.7272e-15
6.9677e-15
7.06793e-15
7.13637e-15
7.26546e-15
7.40832e-15
7.37433e-15
7.45218e-15
7.7135e-15
7.82938e-15
7.86261e-15
7.90907e-15
7.96232e-15
8.0894e-15
8.05148e-15
8.21155e-15
8.36092e-15
8.4206e-15
6.66584e-15
7.4529e-15
6.94004e-15
7.17747e-15
7.26121e-15
7.07161e-15
7.2592e-15
7.48737e-15
7.4024e-15
7.36459e-15
7.71556e-15
7.96542e-15
7.96922e-15
7.92441e-15
7.89349e-15
8.05469e-15
8.13384e-15
8.1629e-15
8.36966e-15
8.48538e-15
7.0967e-15
5.89383e-15
7.10912e-15
7.10296e-15
7.35649e-15
7.05017e-15
7.31095e-15
7.43241e-15
7.47163e-15
7.61595e-15
7.78403e-15
7.84544e-15
7.8709e-15
7.92599e-15
8.00141e-15
8.18274e-15
8.13183e-15
7.97577e-15
8.28694e-15
8.66593e-15
7.47229e-15
9.06336e-15
7.13751e-15
7.44793e-15
7.11954e-15
7.06622e-15
7.26045e-15
7.44773e-15
7.52015e-15
7.53625e-15
7.50774e-15
7.7862e-15
8.01927e-15
8.11539e-15
8.01435e-15
8.21755e-15
8.26099e-15
8.12239e-15
8.33502e-15
8.68047e-15
7.88548e-15
4.6673e-15
7.45902e-15
7.0735e-15
7.30741e-15
7.23915e-15
7.35728e-15
7.42363e-15
7.53619e-15
7.52958e-15
7.57353e-15
7.79449e-15
7.99698e-15
8.07093e-15
8.23095e-15
8.31586e-15
8.29557e-15
8.26398e-15
8.28365e-15
8.49546e-15
7.15421e-15
9.61424e-15
7.48265e-15
7.53944e-15
7.43886e-15
7.43447e-15
7.41404e-15
7.47072e-15
7.57753e-15
7.49858e-15
7.56827e-15
7.84467e-15
7.96043e-15
8.1337e-15
8.32282e-15
8.26002e-15
8.32784e-15
8.50635e-15
8.48519e-15
8.52234e-15
7.58904e-15
6.75478e-15
7.70977e-15
7.48739e-15
7.63746e-15
7.55907e-15
7.5041e-15
7.39689e-15
7.59342e-15
7.65531e-15
7.69469e-15
7.90065e-15
7.85417e-15
8.08394e-15
8.26603e-15
8.27916e-15
8.41155e-15
8.40662e-15
8.6028e-15
8.58639e-15
7.82861e-15
6.1451e-15
7.53044e-15
7.56526e-15
7.61399e-15
7.64839e-15
7.52358e-15
7.56455e-15
7.8964e-15
7.78994e-15
7.75574e-15
7.86517e-15
7.93428e-15
8.00362e-15
8.31028e-15
8.225e-15
8.25339e-15
8.41179e-15
8.59126e-15
8.63402e-15
6.7296e-15
8.92884e-15
7.67229e-15
7.852e-15
7.81728e-15
7.84514e-15
7.66047e-15
7.69102e-15
7.79698e-15
7.7417e-15
7.86114e-15
7.86471e-15
7.76923e-15
7.78662e-15
8.09903e-15
8.19293e-15
8.21932e-15
8.33436e-15
8.59793e-15
8.72444e-15
7.26681e-15
7.67738e-15
7.67365e-15
7.83573e-15
7.88349e-15
7.80831e-15
7.79535e-15
7.93414e-15
7.89073e-15
7.79104e-15
7.87227e-15
7.86572e-15
7.82351e-15
7.76051e-15
7.90712e-15
8.06809e-15
8.08201e-15
8.26106e-15
8.53639e-15
8.66884e-15
7.76953e-15
5.90541e-15
7.63882e-15
7.84362e-15
8.01553e-15
7.98135e-15
7.8607e-15
7.894e-15
7.74009e-15
7.68452e-15
7.70444e-15
7.74485e-15
7.83931e-15
7.70982e-15
7.80328e-15
8.04212e-15
8.12758e-15
8.15263e-15
8.45293e-15
8.74574e-15
6.52022e-15
8.69136e-15
7.63272e-15
7.93087e-15
8.04373e-15
8.1848e-15
7.98425e-15
7.90731e-15
7.84368e-15
7.61109e-15
7.57762e-15
7.68987e-15
7.74711e-15
7.71212e-15
7.67944e-15
8.06802e-15
8.20993e-15
8.16165e-15
8.39496e-15
8.84303e-15
)
;

boundaryField
{
    movingWall
    {
        type            zeroGradient;
    }
    fixedWalls
    {
        type            zeroGradient;
    }
    frontAndBack
    {
        type            empty;
    }
}


// ************************************************************************* //
