/*--------------------------------*- C++ -*----------------------------------*\
| =========                 |                                                 |
| \\      /  F ield         | OpenFOAM: The Open Source CFD Toolbox           |
|  \\    /   O peration     | Version:  2312                                  |
|   \\  /    A nd           | Website:  www.openfoam.com                      |
|    \\/     M anipulation  |                                                 |
\*---------------------------------------------------------------------------*/
FoamFile
{
    version     2.0;
    format      ascii;
    arch        "LSB;label=32;scalar=64";
    class       volVectorField;
    location    "5.75";
    object      UzeroGrad;
}
// * * * * * * * * * * * * * * * * * * * * * * * * * * * * * * * * * * * * * //

dimensions      [0 1 -1 0 0 0 0];

internalField   nonuniform List<vector> 
400
(
(-1 1.14928e-13 0)
(-1 -2.39989e-14 0)
(-1 5.8227e-15 0)
(-1 -1.18114e-15 0)
(-1 2.38001e-16 0)
(-1 -1.25958e-17 0)
(-1 9.00365e-17 0)
(-1 1.05265e-16 0)
(-1 1.4162e-16 0)
(-1 6.00284e-17 0)
(-1 4.84805e-18 0)
(-1 -5.28045e-17 0)
(-1 -3.31897e-17 0)
(-1 3.64445e-17 0)
(-1 1.56875e-16 0)
(-1 1.30953e-16 0)
(-1 6.77088e-17 0)
(-1 -3.71748e-17 0)
(-1 2.94747e-17 0)
(-1 1.62816e-17 0)
(-1 3.32507e-14 0)
(-1 -7.34035e-15 0)
(-1 1.87354e-15 0)
(-1 -3.59068e-16 0)
(-1 2.03866e-17 0)
(-1 -8.20364e-17 0)
(-1 3.87477e-17 0)
(-1 1.27858e-16 0)
(-1 2.21427e-16 0)
(-1 1.62657e-16 0)
(-1 1.5111e-17 0)
(-1 -5.39192e-17 0)
(-1 8.17864e-17 0)
(-1 1.49469e-16 0)
(-1 7.84631e-17 0)
(-1 -3.15642e-17 0)
(-1 -5.70857e-17 0)
(-1 -4.26513e-17 0)
(-1 7.22125e-17 0)
(-1 -4.43302e-18 0)
(-1 -1.38008e-13 0)
(-1 2.9582e-14 0)
(-1 -7.04507e-15 0)
(-1 1.60339e-15 0)
(-1 -2.46534e-16 0)
(-1 1.61806e-17 0)
(-1 -1.28839e-16 0)
(-1 -5.45996e-17 0)
(-1 2.26087e-17 0)
(-1 9.87303e-17 0)
(-1 4.02136e-17 0)
(-1 2.42036e-17 0)
(-1 2.88501e-17 0)
(-1 3.91652e-17 0)
(-1 -7.32493e-17 0)
(-1 -8.66925e-17 0)
(-1 -1.05684e-16 0)
(-1 -2.66001e-17 0)
(-1 -4.54593e-17 0)
(-1 -7.18074e-17 0)
(-1 9.61488e-14 0)
(-1 -2.10756e-14 0)
(-1 5.00324e-15 0)
(-1 -9.39684e-16 0)
(-1 3.71191e-16 0)
(-1 -1.74041e-17 0)
(-1 5.17502e-17 0)
(-1 1.72165e-17 0)
(-1 -3.21944e-17 0)
(-1 -1.19697e-17 0)
(-1 -8.24385e-18 0)
(-1 3.24123e-17 0)
(-1 -4.27642e-17 0)
(-1 9.8652e-19 0)
(-1 7.65638e-17 0)
(-1 6.70038e-17 0)
(-1 -4.35605e-17 0)
(-1 -1.18817e-16 0)
(-1 -1.18052e-16 0)
(-1 -3.31189e-17 0)
(-1 -6.69498e-15 0)
(-1 1.6214e-15 0)
(-1 -4.99423e-16 0)
(-1 7.81946e-17 0)
(-1 -7.76925e-17 0)
(-1 -3.62007e-17 0)
(-1 5.54145e-17 0)
(-1 6.61122e-17 0)
(-1 2.18095e-17 0)
(-1 8.29521e-17 0)
(-1 1.40085e-16 0)
(-1 9.79913e-17 0)
(-1 4.17379e-17 0)
(-1 7.35186e-17 0)
(-1 6.02864e-17 0)
(-1 -3.78073e-18 0)
(-1 -4.1224e-17 0)
(-1 -7.19101e-17 0)
(-1 -2.61045e-18 0)
(-1 4.17438e-17 0)
(-1 -5.88098e-14 0)
(-1 1.24791e-14 0)
(-1 -3.07907e-15 0)
(-1 5.15039e-16 0)
(-1 -2.26617e-16 0)
(-1 2.30383e-17 0)
(-1 -5.05624e-17 0)
(-1 -8.00294e-17 0)
(-1 -6.76825e-17 0)
(-1 2.88445e-17 0)
(-1 7.74803e-17 0)
(-1 -1.64315e-17 0)
(-1 -9.33666e-17 0)
(-1 8.58861e-19 0)
(-1 7.76439e-17 0)
(-1 1.02312e-16 0)
(-1 1.18925e-16 0)
(-1 7.72755e-17 0)
(-1 5.81377e-17 0)
(-1 4.91682e-17 0)
(-1 5.53182e-14 0)
(-1 -1.11716e-14 0)
(-1 2.70439e-15 0)
(-1 -4.83002e-16 0)
(-1 6.62063e-17 0)
(-1 -2.21027e-17 0)
(-1 -1.06165e-17 0)
(-1 1.82066e-18 0)
(-1 7.05951e-17 0)
(-1 1.72142e-16 0)
(-1 1.58746e-16 0)
(-1 1.27586e-16 0)
(-1 9.00267e-17 0)
(-1 2.8904e-17 0)
(-1 2.22154e-17 0)
(-1 5.76268e-17 0)
(-1 1.13956e-16 0)
(-1 6.74395e-17 0)
(-1 3.30425e-17 0)
(-1 4.37877e-17 0)
(-1 -6.73134e-15 0)
(-1 1.10518e-15 0)
(-1 -5.04593e-16 0)
(-1 -8.48891e-17 0)
(-1 -6.47413e-17 0)
(-1 2.74253e-17 0)
(-1 1.63288e-16 0)
(-1 2.82706e-16 0)
(-1 2.64955e-16 0)
(-1 9.57294e-17 0)
(-1 6.28605e-17 0)
(-1 1.72295e-16 0)
(-1 1.65899e-16 0)
(-1 -2.30601e-17 0)
(-1 -1.14743e-16 0)
(-1 -1.34598e-16 0)
(-1 -1.10626e-16 0)
(-1 -4.44822e-17 0)
(-1 -1.64805e-17 0)
(-1 1.3652e-17 0)
(-1 -2.60031e-14 0)
(-1 4.68476e-15 0)
(-1 -1.32116e-15 0)
(-1 9.90736e-17 0)
(-1 2.19911e-17 0)
(-1 1.91683e-16 0)
(-1 2.25993e-16 0)
(-1 2.25225e-16 0)
(-1 2.35508e-16 0)
(-1 8.09055e-17 0)
(-1 1.4788e-17 0)
(-1 7.59922e-17 0)
(-1 1.0776e-17 0)
(-1 -6.25936e-17 0)
(-1 -7.51172e-17 0)
(-1 -1.49539e-16 0)
(-1 -1.88042e-16 0)
(-1 -1.00062e-16 0)
(-1 -6.93428e-17 0)
(-1 -2.15003e-17 0)
(-1 2.77561e-14 0)
(-1 -4.85208e-15 0)
(-1 1.23634e-15 0)
(-1 -1.40908e-16 0)
(-1 3.57962e-17 0)
(-1 4.29307e-17 0)
(-1 -3.72079e-17 0)
(-1 -5.29286e-18 0)
(-1 9.42727e-17 0)
(-1 1.86324e-16 0)
(-1 2.34277e-16 0)
(-1 1.96778e-16 0)
(-1 1.16205e-16 0)
(-1 -8.8305e-18 0)
(-1 -1.28901e-16 0)
(-1 -1.38158e-16 0)
(-1 -3.54449e-17 0)
(-1 6.6589e-17 0)
(-1 -1.9914e-18 0)
(-1 -5.87445e-17 0)
(-1 -3.6035e-14 0)
(-1 7.72303e-15 0)
(-1 -1.51583e-15 0)
(-1 5.34493e-16 0)
(-1 7.99619e-17 0)
(-1 9.09287e-17 0)
(-1 1.0137e-16 0)
(-1 1.21552e-16 0)
(-1 9.60045e-18 0)
(-1 -1.61407e-17 0)
(-1 3.19398e-17 0)
(-1 -6.40037e-17 0)
(-1 -9.61482e-17 0)
(-1 -6.36978e-17 0)
(-1 -7.09662e-17 0)
(-1 -1.06741e-16 0)
(-1 -7.01535e-17 0)
(-1 1.85807e-17 0)
(-1 2.16893e-17 0)
(-1 -4.28537e-17 0)
(-1 3.00917e-14 0)
(-1 -6.13479e-15 0)
(-1 1.62424e-15 0)
(-1 1.98646e-17 0)
(-1 3.68513e-16 0)
(-1 2.05057e-16 0)
(-1 2.51143e-16 0)
(-1 1.4247e-16 0)
(-1 -1.07747e-17 0)
(-1 -6.72613e-17 0)
(-1 -1.19921e-16 0)
(-1 -2.02228e-16 0)
(-1 -1.87516e-16 0)
(-1 -4.63319e-17 0)
(-1 -1.96143e-17 0)
(-1 -4.50034e-17 0)
(-1 -4.1054e-17 0)
(-1 -4.6296e-17 0)
(-1 1.74468e-19 0)
(-1 2.02799e-17 0)
(-1 4.58885e-15 0)
(-1 -1.12907e-15 0)
(-1 3.11747e-16 0)
(-1 2.4653e-17 0)
(-1 7.9644e-17 0)
(-1 9.89514e-17 0)
(-1 9.25584e-17 0)
(-1 -3.83509e-17 0)
(-1 -1.06377e-16 0)
(-1 -1.50065e-16 0)
(-1 -2.64212e-16 0)
(-1 -2.6163e-16 0)
(-1 -1.51694e-16 0)
(-1 -1.71648e-16 0)
(-1 -1.72345e-16 0)
(-1 -4.87115e-17 0)
(-1 -1.65499e-17 0)
(-1 -1.07802e-16 0)
(-1 -5.70167e-17 0)
(-1 1.40556e-17 0)
(-1 -4.9957e-14 0)
(-1 1.04761e-14 0)
(-1 -2.46122e-15 0)
(-1 4.20103e-16 0)
(-1 -1.29067e-16 0)
(-1 1.36936e-16 0)
(-1 2.00947e-16 0)
(-1 1.29458e-16 0)
(-1 -2.8989e-17 0)
(-1 -1.19934e-16 0)
(-1 -2.18196e-16 0)
(-1 -2.44737e-16 0)
(-1 -1.80751e-16 0)
(-1 -1.93671e-16 0)
(-1 -7.42285e-17 0)
(-1 5.10735e-17 0)
(-1 -3.75391e-17 0)
(-1 -1.10028e-16 0)
(-1 -1.16379e-16 0)
(-1 -2.57945e-17 0)
(-1 7.8899e-14 0)
(-1 -1.63698e-14 0)
(-1 3.77843e-15 0)
(-1 -7.95347e-16 0)
(-1 2.41724e-16 0)
(-1 -6.71732e-18 0)
(-1 -4.92746e-17 0)
(-1 -1.90081e-16 0)
(-1 -3.05376e-16 0)
(-1 -2.17635e-16 0)
(-1 -9.61334e-17 0)
(-1 -2.34841e-17 0)
(-1 -7.07686e-17 0)
(-1 -8.34384e-17 0)
(-1 -4.4433e-17 0)
(-1 1.2182e-16 0)
(-1 1.73111e-16 0)
(-1 8.49823e-17 0)
(-1 -3.4837e-17 0)
(-1 -3.55212e-17 0)
(-1 -5.08491e-14 0)
(-1 1.05825e-14 0)
(-1 -2.67521e-15 0)
(-1 4.2676e-16 0)
(-1 -2.57429e-16 0)
(-1 -1.80363e-16 0)
(-1 -2.46972e-16 0)
(-1 -2.08047e-16 0)
(-1 -1.12165e-16 0)
(-1 -1.12213e-16 0)
(-1 -1.01062e-16 0)
(-1 -6.76151e-19 0)
(-1 -1.40317e-18 0)
(-1 3.60942e-17 0)
(-1 2.89815e-17 0)
(-1 5.70683e-17 0)
(-1 7.09756e-17 0)
(-1 -1.30815e-17 0)
(-1 -6.44161e-17 0)
(-1 -5.19877e-17 0)
(-1 -1.43318e-14 0)
(-1 2.37843e-15 0)
(-1 -7.66643e-16 0)
(-1 -7.53447e-17 0)
(-1 -2.47002e-16 0)
(-1 -2.3675e-16 0)
(-1 -2.57033e-16 0)
(-1 -1.88989e-16 0)
(-1 -8.07061e-17 0)
(-1 -1.21938e-16 0)
(-1 -1.05624e-16 0)
(-1 -1.06652e-17 0)
(-1 7.8494e-17 0)
(-1 2.2442e-16 0)
(-1 2.46826e-16 0)
(-1 5.46465e-17 0)
(-1 1.64547e-17 0)
(-1 3.69343e-17 0)
(-1 -1.54345e-17 0)
(-1 -2.86665e-17 0)
(-1 6.36542e-14 0)
(-1 -1.29991e-14 0)
(-1 3.05736e-15 0)
(-1 -7.56606e-16 0)
(-1 8.13431e-17 0)
(-1 -3.37609e-17 0)
(-1 -2.8792e-17 0)
(-1 -7.06756e-17 0)
(-1 -6.62498e-17 0)
(-1 -3.26016e-17 0)
(-1 8.90558e-19 0)
(-1 -4.21616e-17 0)
(-1 -1.39325e-17 0)
(-1 4.82086e-17 0)
(-1 1.41509e-17 0)
(-1 -1.18874e-16 0)
(-1 -1.31181e-17 0)
(-1 1.38019e-16 0)
(-1 1.0289e-16 0)
(-1 -5.21507e-18 0)
(-1 -1.7468e-14 0)
(-1 3.55384e-15 0)
(-1 -9.58041e-16 0)
(-1 -1.28381e-17 0)
(-1 -1.72111e-16 0)
(-1 -7.06482e-17 0)
(-1 5.136e-17 0)
(-1 9.10438e-17 0)
(-1 3.04005e-17 0)
(-1 3.40616e-17 0)
(-1 -1.4794e-17 0)
(-1 -7.17823e-17 0)
(-1 -3.15419e-17 0)
(-1 -4.48665e-17 0)
(-1 -7.54441e-17 0)
(-1 -1.44159e-16 0)
(-1 -1.09697e-16 0)
(-1 6.99765e-17 0)
(-1 7.33188e-17 0)
(-1 -3.15241e-17 0)
(-1 -6.97135e-14 0)
(-1 1.46938e-14 0)
(-1 -3.56652e-15 0)
(-1 6.94284e-16 0)
(-1 -2.12573e-16 0)
(-1 -1.06011e-16 0)
(-1 -1.68374e-16 0)
(-1 -1.94219e-16 0)
(-1 -2.21903e-16 0)
(-1 -1.05377e-16 0)
(-1 -3.14295e-17 0)
(-1 4.02679e-19 0)
(-1 2.33299e-17 0)
(-1 1.53542e-17 0)
(-1 3.80777e-17 0)
(-1 1.64267e-17 0)
(-1 -1.13632e-17 0)
(-1 2.7226e-17 0)
(-1 1.68333e-17 0)
(-1 -1.92543e-17 0)
)
;

boundaryField
{
    movingWall
    {
        type            zeroGradient;
    }
    fixedWalls
    {
        type            zeroGradient;
    }
    frontAndBack
    {
        type            empty;
    }
}


// ************************************************************************* //
