/*--------------------------------*- C++ -*----------------------------------*\
| =========                 |                                                 |
| \\      /  F ield         | OpenFOAM: The Open Source CFD Toolbox           |
|  \\    /   O peration     | Version:  2312                                  |
|   \\  /    A nd           | Website:  www.openfoam.com                      |
|    \\/     M anipulation  |                                                 |
\*---------------------------------------------------------------------------*/
FoamFile
{
    version     2.0;
    format      ascii;
    arch        "LSB;label=32;scalar=64";
    class       volVectorField;
    location    "5.75";
    object      vorticityField;
}
// * * * * * * * * * * * * * * * * * * * * * * * * * * * * * * * * * * * * * //

dimensions      [0 0 -1 0 0 0 0];

internalField   nonuniform List<vector> 
400
(
(0 -0 7.71053e-12)
(0 -0 -1.05853e-11)
(0 -0 2.25467e-12)
(0 -0 -5.85575e-13)
(0 -0 8.97494e-14)
(0 -0 3.94137e-14)
(0 -0 -1.5319e-14)
(0 -0 5.15838e-15)
(0 -0 -3.16287e-14)
(0 -0 -1.36772e-14)
(0 -0 -1.12833e-14)
(0 -0 -3.80378e-15)
(0 -0 8.9249e-15)
(0 -0 1.90065e-14)
(0 -0 6.36609e-14)
(0 -0 4.52935e-14)
(0 -0 -1.68128e-14)
(0 -0 -3.82342e-15)
(0 -0 5.34563e-15)
(0 -0 -4.57562e-15)
(0 -0 2.10314e-12)
(0 -0 -2.81246e-12)
(0 -0 7.79443e-13)
(0 -0 -1.04e-13)
(0 -0 1.09018e-13)
(0 -0 1.37361e-13)
(0 -0 1.2941e-13)
(0 -0 1.53793e-13)
(0 -0 8.4795e-14)
(0 -0 6.06836e-14)
(0 -0 3.25525e-14)
(0 -0 6.08777e-14)
(0 -0 7.45489e-14)
(0 -0 5.38778e-14)
(0 -0 -1.81033e-14)
(0 -0 -1.35549e-14)
(0 -0 -1.10871e-15)
(0 -0 1.29298e-14)
(0 -0 5.80319e-14)
(0 -0 -6.77794e-15)
(0 -0 -7.31892e-12)
(0 -0 1.1985e-11)
(0 -0 -2.90629e-12)
(0 -0 5.71433e-13)
(0 -0 -2.67141e-13)
(0 -0 -1.77966e-13)
(0 -0 -8.83932e-14)
(0 -0 -6.61704e-14)
(0 -0 -6.59822e-14)
(0 -0 -7.95547e-14)
(0 -0 -6.16628e-14)
(0 -0 -5.53465e-14)
(0 -0 -5.2714e-14)
(0 -0 -6.442e-14)
(0 -0 -9.39009e-14)
(0 -0 -5.74535e-14)
(0 -0 6.00924e-15)
(0 -0 6.02326e-14)
(0 -0 -5.87308e-14)
(0 -0 1.17267e-14)
(0 -0 5.90812e-12)
(0 -0 -8.62667e-12)
(0 -0 2.0678e-12)
(0 -0 -4.9031e-13)
(0 -0 6.51229e-14)
(0 -0 -8.61542e-14)
(0 -0 -7.78531e-14)
(0 -0 -1.16815e-13)
(0 -0 -5.71287e-14)
(0 -0 -5.18151e-14)
(0 -0 -4.97719e-14)
(0 -0 -3.05571e-14)
(0 -0 -3.02476e-14)
(0 -0 1.19328e-14)
(0 -0 3.37068e-14)
(0 -0 -3.91175e-14)
(0 -0 -7.27922e-14)
(0 -0 -6.16593e-14)
(0 -0 -1.85352e-14)
(0 -0 -1.1988e-14)
(0 -0 -1.97103e-12)
(0 -0 9.17712e-13)
(0 -0 -2.0853e-13)
(0 -0 9.63832e-14)
(0 -0 1.56655e-14)
(0 -0 4.04158e-14)
(0 -0 3.73363e-14)
(0 -0 -3.3605e-15)
(0 -0 2.8789e-14)
(0 -0 1.18276e-14)
(0 -0 1.50392e-15)
(0 -0 -9.83474e-15)
(0 -0 -2.44727e-15)
(0 -0 1.85485e-15)
(0 -0 -6.194e-14)
(0 -0 -3.72561e-14)
(0 -0 -6.81293e-15)
(0 -0 3.86135e-15)
(0 -0 3.84704e-14)
(0 -0 2.31917e-14)
(0 -0 -2.60019e-12)
(0 -0 4.97677e-12)
(0 -0 -1.22351e-12)
(0 -0 2.31036e-13)
(0 -0 -7.63051e-14)
(0 -0 -9.49963e-15)
(0 -0 -3.74118e-14)
(0 -0 -1.71201e-15)
(0 -0 3.79924e-14)
(0 -0 6.87264e-14)
(0 -0 4.96825e-14)
(0 -0 1.00204e-14)
(0 -0 2.88341e-14)
(0 -0 7.13112e-14)
(0 -0 3.72504e-14)
(0 -0 5.83383e-14)
(0 -0 5.17064e-14)
(0 -0 -6.07877e-15)
(0 -0 -2.81073e-15)
(0 -0 -1.07306e-14)
(0 -0 4.68571e-12)
(0 -0 -5.15296e-12)
(0 -0 1.23149e-12)
(0 -0 -2.63819e-13)
(0 -0 1.003e-13)
(0 -0 4.65278e-14)
(0 -0 8.37075e-14)
(0 -0 6.23313e-14)
(0 -0 1.25452e-13)
(0 -0 1.4434e-13)
(0 -0 7.68595e-14)
(0 -0 4.73381e-14)
(0 -0 7.1447e-14)
(0 -0 7.4534e-14)
(0 -0 1.11292e-13)
(0 -0 9.04893e-14)
(0 -0 5.51914e-14)
(0 -0 -8.0914e-15)
(0 -0 -2.36518e-15)
(0 -0 -7.68302e-15)
(0 -0 -1.72813e-12)
(0 -0 8.93725e-13)
(0 -0 -1.46112e-13)
(0 -0 1.52405e-13)
(0 -0 6.54415e-14)
(0 -0 2.2803e-14)
(0 -0 7.97382e-14)
(0 -0 1.01667e-14)
(0 -0 -4.58027e-14)
(0 -0 -1.01525e-13)
(0 -0 -1.94485e-14)
(0 -0 1.03039e-14)
(0 -0 -4.66405e-14)
(0 -0 -1.09379e-13)
(0 -0 -3.82588e-14)
(0 -0 -2.66934e-14)
(0 -0 -4.51985e-14)
(0 -0 9.41458e-15)
(0 -0 5.81342e-15)
(0 -0 2.82849e-16)
(0 -0 -3.13472e-12)
(0 -0 2.57662e-12)
(0 -0 -6.21199e-13)
(0 -0 1.61421e-13)
(0 -0 9.26097e-15)
(0 -0 7.46103e-14)
(0 -0 -5.08559e-14)
(0 -0 -2.61535e-14)
(0 -0 -6.86421e-14)
(0 -0 -1.30492e-13)
(0 -0 -8.18065e-14)
(0 -0 -5.46113e-14)
(0 -0 -9.51737e-14)
(0 -0 -6.27994e-14)
(0 -0 -9.00097e-14)
(0 -0 -9.26076e-14)
(0 -0 -4.92624e-14)
(0 -0 1.18699e-14)
(0 -0 7.85619e-15)
(0 -0 9.08431e-15)
(0 -0 4.67565e-12)
(0 -0 -3.05855e-12)
(0 -0 7.15063e-13)
(0 -0 -2.0137e-13)
(0 -0 4.54889e-14)
(0 -0 1.98046e-14)
(0 -0 4.93878e-14)
(0 -0 1.21568e-13)
(0 -0 1.00477e-13)
(0 -0 1.22421e-13)
(0 -0 8.23606e-14)
(0 -0 4.24029e-14)
(0 -0 6.07543e-14)
(0 -0 -5.16156e-14)
(0 -0 1.41723e-14)
(0 -0 3.64507e-14)
(0 -0 1.28895e-13)
(0 -0 3.34535e-15)
(0 -0 -1.25333e-14)
(0 -0 6.07359e-15)
(0 -0 -3.53593e-12)
(0 -0 3.61454e-12)
(0 -0 -7.73064e-13)
(0 -0 2.13789e-13)
(0 -0 -4.43564e-14)
(0 -0 -2.49642e-14)
(0 -0 3.06234e-15)
(0 -0 -9.17697e-15)
(0 -0 -1.37693e-14)
(0 -0 2.9339e-14)
(0 -0 -4.78629e-15)
(0 -0 -6.70189e-14)
(0 -0 -5.41795e-14)
(0 -0 2.5182e-15)
(0 -0 -3.14094e-14)
(0 -0 8.12735e-17)
(0 -0 1.25322e-14)
(0 -0 9.18428e-15)
(0 -0 -3.32485e-14)
(0 -0 2.11643e-15)
(0 -0 2.26016e-12)
(0 -0 -2.65701e-12)
(0 -0 7.23886e-13)
(0 -0 -4.42571e-14)
(0 -0 7.27294e-14)
(0 -0 1.5368e-14)
(0 -0 2.08464e-14)
(0 -0 -2.61917e-14)
(0 -0 -2.09732e-14)
(0 -0 -1.09146e-14)
(0 -0 -1.34967e-14)
(0 -0 -6.75947e-15)
(0 -0 1.55897e-14)
(0 -0 9.81053e-14)
(0 -0 2.72379e-14)
(0 -0 -2.14397e-15)
(0 -0 -1.29261e-16)
(0 -0 5.8333e-14)
(0 -0 6.65759e-15)
(0 -0 -2.04544e-15)
(0 -0 7.52554e-13)
(0 -0 -6.17446e-13)
(0 -0 6.11625e-14)
(0 -0 -1.04525e-13)
(0 -0 -1.28095e-13)
(0 -0 -8.00237e-14)
(0 -0 -1.2215e-13)
(0 -0 -1.55419e-13)
(0 -0 -1.19592e-13)
(0 -0 -1.51309e-13)
(0 -0 -1.19577e-13)
(0 -0 1.12518e-14)
(0 -0 -1.81069e-14)
(0 -0 -5.62753e-14)
(0 -0 -4.19165e-14)
(0 -0 1.55795e-14)
(0 -0 -5.90904e-15)
(0 -0 -4.04668e-15)
(0 -0 3.92908e-14)
(0 -0 4.2961e-15)
(0 -0 -4.86966e-12)
(0 -0 4.80379e-12)
(0 -0 -1.19533e-12)
(0 -0 1.79005e-13)
(0 -0 -2.83167e-14)
(0 -0 5.89636e-15)
(0 -0 -7.4774e-16)
(0 -0 -5.00986e-14)
(0 -0 -7.91494e-14)
(0 -0 -7.31308e-14)
(0 -0 -6.66904e-14)
(0 -0 -5.04656e-14)
(0 -0 -2.19984e-14)
(0 -0 -4.35578e-14)
(0 -0 2.44744e-14)
(0 -0 -5.05412e-14)
(0 -0 -9.74253e-14)
(0 -0 -6.20941e-14)
(0 -0 8.42333e-15)
(0 -0 1.42173e-14)
(0 -0 6.84923e-12)
(0 -0 -7.37653e-12)
(0 -0 1.74718e-12)
(0 -0 -2.99461e-13)
(0 -0 1.33073e-13)
(0 -0 -5.6205e-14)
(0 -0 8.7687e-15)
(0 -0 -2.56101e-14)
(0 -0 -2.75537e-15)
(0 -0 7.51343e-14)
(0 -0 7.36251e-14)
(0 -0 2.53648e-15)
(0 -0 2.11096e-14)
(0 -0 5.68437e-14)
(0 -0 7.4736e-14)
(0 -0 1.30175e-13)
(0 -0 2.34212e-14)
(0 -0 -2.07948e-14)
(0 -0 -1.20504e-14)
(0 -0 7.03582e-15)
(0 -0 -4.16219e-12)
(0 -0 4.62766e-12)
(0 -0 -1.1511e-12)
(0 -0 1.87568e-13)
(0 -0 -1.14922e-13)
(0 -0 1.04573e-15)
(0 -0 -2.98734e-14)
(0 -0 4.05857e-14)
(0 -0 9.08986e-14)
(0 -0 5.53204e-14)
(0 -0 1.11537e-14)
(0 -0 9.96587e-15)
(0 -0 3.07821e-14)
(0 -0 -2.40666e-14)
(0 -0 2.0974e-15)
(0 -0 -5.00107e-14)
(0 -0 -7.01497e-15)
(0 -0 -4.06442e-14)
(0 -0 -3.09957e-14)
(0 -0 1.16404e-14)
(0 -0 -8.42973e-13)
(0 -0 1.11257e-12)
(0 -0 -3.26692e-13)
(0 -0 -2.24597e-15)
(0 -0 -7.03507e-14)
(0 -0 5.3207e-14)
(0 -0 3.18812e-14)
(0 -0 1.26053e-13)
(0 -0 8.80203e-14)
(0 -0 5.17184e-14)
(0 -0 1.19548e-13)
(0 -0 1.53937e-13)
(0 -0 7.77187e-14)
(0 -0 9.81484e-14)
(0 -0 -1.69774e-14)
(0 -0 -5.01422e-14)
(0 -0 -1.77122e-15)
(0 -0 -3.0294e-14)
(0 -0 -6.56008e-15)
(0 -0 4.4101e-15)
(0 -0 3.03262e-12)
(0 -0 -5.35495e-12)
(0 -0 1.27846e-12)
(0 -0 -2.43392e-13)
(0 -0 1.26495e-13)
(0 -0 -1.10135e-14)
(0 -0 -3.69146e-15)
(0 -0 -8.50609e-14)
(0 -0 -2.32977e-14)
(0 -0 -4.74961e-14)
(0 -0 -9.55998e-16)
(0 -0 -2.85874e-14)
(0 -0 9.03702e-15)
(0 -0 2.80834e-15)
(0 -0 -1.67083e-14)
(0 -0 2.43782e-14)
(0 -0 2.56893e-14)
(0 -0 6.58109e-14)
(0 -0 -1.43234e-14)
(0 -0 -9.76747e-15)
(0 -0 -5.78259e-13)
(0 -0 1.37994e-12)
(0 -0 -4.37983e-13)
(0 -0 2.43828e-14)
(0 -0 -5.99911e-14)
(0 -0 2.23471e-14)
(0 -0 -1.09359e-14)
(0 -0 -2.9201e-14)
(0 -0 -1.14118e-13)
(0 -0 -5.87296e-14)
(0 -0 -1.19005e-13)
(0 -0 -1.10095e-13)
(0 -0 -5.15185e-14)
(0 -0 -8.57054e-14)
(0 -0 -3.70343e-14)
(0 -0 -3.05304e-14)
(0 -0 2.14135e-14)
(0 -0 1.83016e-14)
(0 -0 1.6955e-14)
(0 -0 -3.12845e-14)
(0 -0 -4.85145e-12)
(0 -0 6.47917e-12)
(0 -0 -1.29154e-12)
(0 -0 3.89604e-13)
(0 -0 -2.58194e-14)
(0 -0 4.41994e-15)
(0 -0 1.82843e-14)
(0 -0 4.88572e-14)
(0 -0 6.30943e-14)
(0 -0 7.32575e-14)
(0 -0 6.47881e-14)
(0 -0 5.96861e-14)
(0 -0 1.49515e-15)
(0 -0 2.85798e-14)
(0 -0 2.72123e-14)
(0 -0 2.2161e-14)
(0 -0 1.07993e-15)
(0 -0 2.81965e-15)
(0 -0 -4.64803e-15)
(0 -0 2.73471e-14)
)
;

boundaryField
{
    movingWall
    {
        type            calculated;
        value           nonuniform List<vector> 
20
(
(0 -0 -7.54478e-12)
(0 -0 7.68051e-12)
(0 -0 -9.11458e-13)
(0 -0 6.46257e-13)
(0 -0 2.75242e-13)
(0 -0 2.26465e-13)
(0 -0 2.13224e-13)
(0 -0 2.61101e-13)
(0 -0 2.30929e-13)
(0 -0 1.52274e-13)
(0 -0 9.93958e-14)
(0 -0 4.98849e-14)
(0 -0 1.49515e-15)
(0 -0 4.58837e-14)
(0 -0 1.07252e-16)
(0 -0 3.94648e-14)
(0 -0 1.07993e-15)
(0 -0 2.81965e-15)
(0 -0 -4.64803e-15)
(0 -0 4.4651e-14)
)
;
    }
    fixedWalls
    {
        type            calculated;
        value           nonuniform List<vector> 
60
(
(0 -0 4.45888e-11)
(0 -0 1.28124e-11)
(0 -0 -5.16795e-11)
(0 -0 3.68603e-11)
(0 -0 -4.14167e-12)
(0 -0 -2.14911e-11)
(0 -0 2.23983e-11)
(0 -0 -3.85805e-12)
(0 -0 -1.14041e-11)
(0 -0 1.34877e-11)
(0 -0 -1.51187e-11)
(0 -0 1.19011e-11)
(0 -0 2.24212e-12)
(0 -0 -2.09044e-11)
(0 -0 3.21559e-11)
(0 -0 -2.04752e-11)
(0 -0 -5.38036e-12)
(0 -0 2.34288e-11)
(0 -0 -6.17403e-12)
(0 -0 -2.72349e-11)
(0 -0 -6.51262e-15)
(0 -0 1.77321e-15)
(0 -0 2.8723e-14)
(0 -0 -1.38575e-14)
(0 -0 1.04075e-14)
(0 -0 -1.96673e-14)
(0 -0 -1.75151e-14)
(0 -0 -5.46079e-15)
(0 -0 8.60013e-15)
(0 -0 2.34978e-14)
(0 -0 1.71415e-14)
(0 -0 -8.11196e-15)
(0 -0 -5.62226e-15)
(0 -0 1.03178e-14)
(0 -0 1.42085e-14)
(0 -0 2.07951e-14)
(0 -0 1.14666e-14)
(0 -0 2.08603e-15)
(0 -0 -1.44954e-14)
(0 -0 3.48068e-14)
(0 -0 1.27344e-11)
(0 -0 -1.25092e-11)
(0 -0 2.01533e-12)
(0 -0 -7.80514e-13)
(0 -0 -1.49599e-13)
(0 -0 -2.36841e-13)
(0 -0 -2.54667e-13)
(0 -0 -1.72477e-13)
(0 -0 -1.82159e-13)
(0 -0 -1.02495e-13)
(0 -0 -1.4451e-13)
(0 -0 -1.37031e-13)
(0 -0 -7.98929e-14)
(0 -0 -1.58629e-13)
(0 -0 -7.9367e-14)
(0 -0 -5.33256e-14)
(0 -0 -1.68128e-14)
(0 -0 -4.82323e-14)
(0 -0 -3.90633e-14)
(0 -0 8.42422e-14)
)
;
    }
    frontAndBack
    {
        type            empty;
    }
}


// ************************************************************************* //
