/*--------------------------------*- C++ -*----------------------------------*\
| =========                 |                                                 |
| \\      /  F ield         | OpenFOAM: The Open Source CFD Toolbox           |
|  \\    /   O peration     | Version:  2312                                  |
|   \\  /    A nd           | Website:  www.openfoam.com                      |
|    \\/     M anipulation  |                                                 |
\*---------------------------------------------------------------------------*/
FoamFile
{
    version     2.0;
    format      ascii;
    arch        "LSB;label=32;scalar=64";
    class       volScalarField;
    location    "5.75";
    object      zeroGradient(epsilon);
}
// * * * * * * * * * * * * * * * * * * * * * * * * * * * * * * * * * * * * * //

dimensions      [0 2 -3 0 0 0 0];

internalField   nonuniform List<scalar> 
400
(
4.90551e-06
4.90549e-06
4.90549e-06
4.90548e-06
4.90548e-06
4.90546e-06
4.90546e-06
4.90546e-06
4.90545e-06
4.90545e-06
4.90545e-06
4.90544e-06
4.90544e-06
4.90544e-06
4.90544e-06
4.90544e-06
4.90544e-06
4.90544e-06
4.90544e-06
4.90544e-06
5.34143e-06
5.23954e-06
5.24795e-06
5.2514e-06
5.25835e-06
5.26198e-06
5.26891e-06
5.27271e-06
5.27962e-06
5.28358e-06
5.2905e-06
5.29459e-06
5.30153e-06
5.30574e-06
5.31271e-06
5.31704e-06
5.32406e-06
5.3285e-06
5.33203e-06
5.33781e-06
5.96974e-06
5.84979e-06
5.85983e-06
5.86394e-06
5.8722e-06
5.87651e-06
5.88472e-06
5.8892e-06
5.89738e-06
5.90202e-06
5.91017e-06
5.91495e-06
5.92311e-06
5.928e-06
5.93619e-06
5.94118e-06
5.94939e-06
5.95449e-06
5.95862e-06
5.96531e-06
6.55123e-06
6.41517e-06
6.42653e-06
6.43118e-06
6.44053e-06
6.44541e-06
6.45471e-06
6.45979e-06
6.46904e-06
6.4743e-06
6.48354e-06
6.48896e-06
6.4982e-06
6.50375e-06
6.51302e-06
6.51869e-06
6.52799e-06
6.53378e-06
6.53846e-06
6.54605e-06
6.97817e-06
6.8298e-06
6.84216e-06
6.84723e-06
6.8574e-06
6.86272e-06
6.87284e-06
6.87838e-06
6.88845e-06
6.89419e-06
6.90425e-06
6.91016e-06
6.92022e-06
6.92628e-06
6.93638e-06
6.94256e-06
6.9527e-06
6.95902e-06
6.96412e-06
6.97239e-06
7.25247e-06
7.09603e-06
7.10905e-06
7.11438e-06
7.1251e-06
7.13071e-06
7.14137e-06
7.1472e-06
7.15782e-06
7.16387e-06
7.17446e-06
7.18069e-06
7.1913e-06
7.19769e-06
7.20833e-06
7.21486e-06
7.22554e-06
7.23221e-06
7.23758e-06
7.24631e-06
7.41762e-06
7.25627e-06
7.26968e-06
7.27518e-06
7.28623e-06
7.29201e-06
7.303e-06
7.30901e-06
7.31996e-06
7.32619e-06
7.33712e-06
7.34355e-06
7.35448e-06
7.36107e-06
7.37204e-06
7.37877e-06
7.38979e-06
7.39666e-06
7.40221e-06
7.41121e-06
7.51703e-06
7.35272e-06
7.36638e-06
7.37198e-06
7.38322e-06
7.3891e-06
7.40029e-06
7.40642e-06
7.41756e-06
7.42391e-06
7.43503e-06
7.44157e-06
7.45271e-06
7.45942e-06
7.47058e-06
7.47744e-06
7.48866e-06
7.49566e-06
7.50131e-06
7.51047e-06
7.58125e-06
7.41503e-06
7.42884e-06
7.4345e-06
7.44588e-06
7.45183e-06
7.46314e-06
7.46934e-06
7.48061e-06
7.48703e-06
7.49828e-06
7.5049e-06
7.51616e-06
7.52295e-06
7.53424e-06
7.54118e-06
7.55253e-06
7.55962e-06
7.56532e-06
7.57459e-06
7.62859e-06
7.46097e-06
7.47489e-06
7.4806e-06
7.49207e-06
7.49807e-06
7.50948e-06
7.51572e-06
7.52709e-06
7.53356e-06
7.54491e-06
7.55158e-06
7.56294e-06
7.56978e-06
7.58118e-06
7.58817e-06
7.59961e-06
7.60676e-06
7.61252e-06
7.62187e-06
7.66924e-06
7.5004e-06
7.51443e-06
7.52018e-06
7.53173e-06
7.53777e-06
7.54926e-06
7.55555e-06
7.56699e-06
7.57352e-06
7.58494e-06
7.59166e-06
7.6031e-06
7.60999e-06
7.62146e-06
7.62851e-06
7.64003e-06
7.64723e-06
7.65303e-06
7.66245e-06
7.70874e-06
7.53875e-06
7.55287e-06
7.55866e-06
7.57028e-06
7.57637e-06
7.58793e-06
7.59427e-06
7.60579e-06
7.61236e-06
7.62386e-06
7.63063e-06
7.64214e-06
7.64908e-06
7.66063e-06
7.66773e-06
7.67933e-06
7.68658e-06
7.69242e-06
7.7019e-06
7.75036e-06
7.57913e-06
7.59335e-06
7.59918e-06
7.61089e-06
7.61701e-06
7.62866e-06
7.63504e-06
7.64664e-06
7.65326e-06
7.66484e-06
7.67166e-06
7.68326e-06
7.69025e-06
7.70188e-06
7.70903e-06
7.72071e-06
7.72802e-06
7.7339e-06
7.74345e-06
7.79618e-06
7.62359e-06
7.63792e-06
7.6438e-06
7.6556e-06
7.66177e-06
7.67351e-06
7.67994e-06
7.69163e-06
7.6983e-06
7.70997e-06
7.71684e-06
7.72853e-06
7.73558e-06
7.7473e-06
7.75451e-06
7.76628e-06
7.77364e-06
7.77957e-06
7.78919e-06
7.84767e-06
7.67358e-06
7.68803e-06
7.69395e-06
7.70585e-06
7.71208e-06
7.72392e-06
7.73041e-06
7.7422e-06
7.74893e-06
7.7607e-06
7.76763e-06
7.77942e-06
7.78653e-06
7.79836e-06
7.80563e-06
7.81751e-06
7.82493e-06
7.83091e-06
7.84062e-06
7.90546e-06
7.72965e-06
7.74424e-06
7.75022e-06
7.76224e-06
7.76852e-06
7.78048e-06
7.78703e-06
7.79894e-06
7.80573e-06
7.81761e-06
7.82462e-06
7.83652e-06
7.8437e-06
7.85564e-06
7.86298e-06
7.87498e-06
7.88247e-06
7.88851e-06
7.89832e-06
7.96809e-06
7.79043e-06
7.80517e-06
7.81122e-06
7.82335e-06
7.82971e-06
7.84179e-06
7.8484e-06
7.86043e-06
7.8673e-06
7.87931e-06
7.88638e-06
7.89841e-06
7.90567e-06
7.91773e-06
7.92515e-06
7.93727e-06
7.94485e-06
7.95095e-06
7.96086e-06
8.03041e-06
7.85095e-06
7.86583e-06
7.87193e-06
7.88419e-06
7.8906e-06
7.9028e-06
7.90948e-06
7.92163e-06
7.92856e-06
7.94069e-06
7.94784e-06
7.95999e-06
7.96732e-06
7.97951e-06
7.98701e-06
7.99925e-06
8.00691e-06
8.01307e-06
8.02308e-06
8.08247e-06
7.90516e-06
7.91959e-06
7.92552e-06
7.93745e-06
7.94375e-06
7.95564e-06
7.96227e-06
7.97413e-06
7.98107e-06
7.99293e-06
8.00015e-06
8.01206e-06
8.0195e-06
8.03149e-06
8.03916e-06
8.05124e-06
8.05911e-06
8.06522e-06
8.07529e-06
8.10574e-06
8.10571e-06
8.10569e-06
8.10569e-06
8.10567e-06
8.10567e-06
8.10565e-06
8.10565e-06
8.10563e-06
8.10564e-06
8.10563e-06
8.10563e-06
8.10562e-06
8.10562e-06
8.10562e-06
8.10562e-06
8.10562e-06
8.10562e-06
8.10562e-06
8.10562e-06
)
;

boundaryField
{
    movingWall
    {
        type            zeroGradient;
    }
    fixedWalls
    {
        type            zeroGradient;
    }
    frontAndBack
    {
        type            empty;
    }
}


// ************************************************************************* //
