/*--------------------------------*- C++ -*----------------------------------*\
| =========                 |                                                 |
| \\      /  F ield         | OpenFOAM: The Open Source CFD Toolbox           |
|  \\    /   O peration     | Version:  2312                                  |
|   \\  /    A nd           | Website:  www.openfoam.com                      |
|    \\/     M anipulation  |                                                 |
\*---------------------------------------------------------------------------*/
FoamFile
{
    version     2.0;
    format      ascii;
    arch        "LSB;label=32;scalar=64";
    class       volVectorField;
    location    "4.5";
    object      ddtU;
}
// * * * * * * * * * * * * * * * * * * * * * * * * * * * * * * * * * * * * * //

dimensions      [0 1 -2 0 0 0 0];

internalField   nonuniform List<vector> 
400
(
(8.4821e-11 -4.09576e-08 0)
(-4.52305e-11 9.72629e-09 0)
(1.76748e-11 -2.31126e-09 0)
(-8.06022e-12 5.48457e-10 0)
(1.73195e-12 -1.30618e-10 0)
(-1.11022e-12 3.09175e-11 0)
(0 -7.41032e-12 0)
(-2.44249e-13 1.72946e-12 0)
(-1.11022e-13 -4.39203e-13 0)
(-6.66134e-14 6.56485e-14 0)
(-2.22045e-14 -4.03002e-14 0)
(0 5.84897e-15 0)
(0 -2.51251e-15 0)
(-2.22045e-14 -3.55317e-15 0)
(2.22045e-14 6.40184e-15 0)
(-2.22045e-14 8.81429e-15 0)
(-2.22045e-14 5.47167e-15 0)
(-4.44089e-14 4.80862e-16 0)
(-4.44089e-14 -6.88754e-15 0)
(-2.22045e-14 -1.32876e-14 0)
(-1.21969e-10 4.09246e-08 0)
(2.64233e-11 -9.72155e-09 0)
(-9.61453e-12 2.30391e-09 0)
(1.68754e-12 -5.47883e-10 0)
(-8.43769e-13 1.29398e-10 0)
(-1.33227e-13 -3.09799e-11 0)
(-2.66454e-13 7.16877e-12 0)
(-1.33227e-13 -1.81466e-12 0)
(-6.66134e-14 3.47921e-13 0)
(-6.66134e-14 -1.5788e-13 0)
(-6.66134e-14 -1.46299e-14 0)
(-4.44089e-14 -1.34349e-14 0)
(0 -1.02657e-14 0)
(-2.22045e-14 -1.63879e-14 0)
(2.22045e-14 -1.49705e-14 0)
(6.66134e-14 2.24218e-15 0)
(4.44089e-14 1.5447e-14 0)
(0 1.88281e-15 0)
(6.66134e-14 -2.42395e-15 0)
(0 -1.12632e-14 0)
(2.15561e-10 -4.08118e-08 0)
(-4.17666e-11 9.68537e-09 0)
(1.69642e-11 -2.29879e-09 0)
(-3.44169e-12 5.44749e-10 0)
(1.02141e-12 -1.29808e-10 0)
(-3.55271e-13 3.04627e-11 0)
(4.44089e-14 -7.4605e-12 0)
(-6.66134e-14 1.61914e-12 0)
(-6.66134e-14 -4.92545e-13 0)
(-2.22045e-14 3.89008e-14 0)
(-4.44089e-14 -7.34444e-14 0)
(0 -4.13085e-14 0)
(-2.22045e-14 -3.06361e-14 0)
(-2.22045e-14 -1.33548e-14 0)
(-4.44089e-14 -5.60064e-15 0)
(-8.88178e-14 -1.94561e-15 0)
(-8.88178e-14 -1.69323e-14 0)
(2.22045e-14 3.61097e-17 0)
(0 1.77467e-14 0)
(-2.22045e-14 -9.02121e-15 0)
(-1.94844e-10 4.07006e-08 0)
(3.78808e-11 -9.6527e-09 0)
(-1.48326e-11 2.28915e-09 0)
(3.19744e-12 -5.43295e-10 0)
(-8.21565e-13 1.28452e-10 0)
(2.66454e-13 -3.07486e-11 0)
(-8.88178e-14 7.08191e-12 0)
(-2.22045e-14 -1.83082e-12 0)
(-2.22045e-14 3.09456e-13 0)
(0 -1.66968e-13 0)
(-4.44089e-14 -3.28654e-14 0)
(2.22045e-14 -6.22909e-14 0)
(-2.22045e-14 -2.07417e-14 0)
(-6.66134e-14 1.06653e-15 0)
(-4.44089e-14 1.47025e-14 0)
(2.22045e-14 1.48328e-15 0)
(-2.22045e-14 -3.94961e-14 0)
(-4.44089e-14 -1.77328e-14 0)
(0 1.8809e-14 0)
(-2.22045e-14 -1.82682e-14 0)
(1.47304e-10 -4.05793e-08 0)
(-2.56017e-11 9.62023e-09 0)
(1.07025e-11 -2.28189e-09 0)
(-1.82077e-12 5.40691e-10 0)
(6.66134e-13 -1.28473e-10 0)
(-1.11022e-13 3.02442e-11 0)
(0 -7.3404e-12 0)
(2.22045e-14 1.58443e-12 0)
(0 -5.04262e-13 0)
(-4.44089e-14 3.64209e-14 0)
(-2.22045e-14 -8.48852e-14 0)
(-2.22045e-14 -3.48457e-14 0)
(-2.22045e-14 -1.17051e-15 0)
(0 1.80765e-15 0)
(0 -6.74602e-15 0)
(0 -1.77054e-14 0)
(-4.44089e-14 -2.4096e-14 0)
(0 -1.3954e-14 0)
(0 4.94442e-15 0)
(0 -3.6279e-14 0)
(-8.03579e-11 4.04839e-08 0)
(1.27898e-11 -9.59724e-09 0)
(-5.17364e-12 2.27571e-09 0)
(1.02141e-12 -5.39778e-10 0)
(-1.11022e-13 1.27736e-10 0)
(4.44089e-14 -3.04716e-11 0)
(4.44089e-14 7.06811e-12 0)
(0 -1.81442e-12 0)
(-4.44089e-14 3.20768e-13 0)
(4.44089e-14 -1.4918e-13 0)
(0 -3.55182e-14 0)
(-4.44089e-14 -4.982e-14 0)
(4.44089e-14 -2.30983e-14 0)
(0 -9.53709e-15 0)
(0 5.34688e-15 0)
(0 -1.51166e-14 0)
(-4.44089e-14 -1.15597e-14 0)
(-4.44089e-14 -1.95779e-14 0)
(0 -9.0604e-15 0)
(0 -5.32107e-14 0)
(2.0739e-11 -4.03974e-08 0)
(8.21565e-13 9.57663e-09 0)
(2.22045e-13 -2.2713e-09 0)
(4.88498e-13 5.38299e-10 0)
(-4.44089e-14 -1.27806e-10 0)
(8.88178e-14 3.01438e-11 0)
(4.44089e-14 -7.28867e-12 0)
(4.44089e-14 1.60628e-12 0)
(0 -4.86886e-13 0)
(0 3.10119e-14 0)
(0 -6.46174e-14 0)
(0 -4.04929e-14 0)
(4.44089e-14 -5.42479e-14 0)
(4.44089e-14 -2.37196e-14 0)
(4.44089e-14 -1.86797e-15 0)
(4.44089e-14 -6.23458e-15 0)
(4.44089e-14 -5.47034e-15 0)
(4.44089e-14 -4.48484e-15 0)
(0 3.02731e-15 0)
(-4.44089e-14 -6.08589e-14 0)
(3.29958e-11 4.03404e-08 0)
(-1.04361e-11 -9.56489e-09 0)
(3.90799e-12 2.26815e-09 0)
(-1.06581e-12 -5.37981e-10 0)
(4.66294e-13 1.27402e-10 0)
(-4.44089e-14 -3.0354e-11 0)
(4.44089e-14 7.08208e-12 0)
(4.44089e-14 -1.76143e-12 0)
(0 3.37753e-13 0)
(0 -1.72026e-13 0)
(0 -3.18286e-14 0)
(0 -4.33231e-14 0)
(0 -3.84076e-14 0)
(0 -4.27169e-14 0)
(0 -3.36905e-14 0)
(-4.44089e-14 -7.02391e-15 0)
(0 1.19088e-14 0)
(-4.44089e-14 2.12293e-14 0)
(-8.88178e-14 1.66561e-14 0)
(4.44089e-14 -5.19229e-14 0)
(-6.31939e-11 -4.02932e-08 0)
(1.74083e-11 9.5547e-09 0)
(-6.17284e-12 -2.26614e-09 0)
(1.9984e-12 5.37288e-10 0)
(-4.88498e-13 -1.27527e-10 0)
(2.88658e-13 3.01176e-11 0)
(0 -7.24103e-12 0)
(0 1.6458e-12 0)
(4.44089e-14 -4.44847e-13 0)
(4.44089e-14 4.93135e-14 0)
(4.44089e-14 -7.23458e-14 0)
(4.44089e-14 -2.17914e-14 0)
(0 -2.76424e-14 0)
(4.44089e-14 -3.77812e-14 0)
(0 -3.28956e-14 0)
(-8.88178e-14 -2.49821e-14 0)
(0 -3.26524e-15 0)
(4.44089e-14 -1.75225e-15 0)
(2.22045e-14 1.54705e-14 0)
(0 -3.07697e-14 0)
(8.72857e-11 4.02662e-08 0)
(-2.10054e-11 -9.54992e-09 0)
(7.90479e-12 2.2648e-09 0)
(-1.9984e-12 -5.37229e-10 0)
(7.54952e-13 1.27318e-10 0)
(-1.33227e-13 -3.02629e-11 0)
(8.88178e-14 7.11744e-12 0)
(0 -1.7526e-12 0)
(0 3.62749e-13 0)
(4.44089e-14 -1.12839e-13 0)
(4.44089e-14 -4.93291e-15 0)
(0 -4.06481e-14 0)
(4.44089e-14 -4.42514e-14 0)
(0 -2.75225e-14 0)
(0 -1.60921e-14 0)
(-4.44089e-14 -1.56643e-14 0)
(-4.44089e-14 -3.1333e-14 0)
(-4.44089e-14 -2.73071e-14 0)
(0 2.33867e-14 0)
(-2.22045e-14 -3.22917e-14 0)
(-9.0461e-11 -4.02429e-08 0)
(2.23377e-11 9.54506e-09 0)
(-7.9492e-12 -2.26393e-09 0)
(2.39808e-12 5.369e-10 0)
(-6.21725e-13 -1.27373e-10 0)
(3.10862e-13 3.01836e-11 0)
(-4.44089e-14 -7.21352e-12 0)
(8.88178e-14 1.65501e-12 0)
(4.44089e-14 -4.53245e-13 0)
(4.44089e-14 4.02933e-14 0)
(8.88178e-14 -5.3006e-14 0)
(4.44089e-14 -2.93271e-14 0)
(4.44089e-14 -3.19034e-14 0)
(0 -2.71605e-15 0)
(-4.44089e-14 7.78743e-15 0)
(0 -1.55338e-15 0)
(0 -2.83345e-14 0)
(0 -2.04512e-14 0)
(-4.44089e-14 1.45031e-14 0)
(0 -5.39275e-14 0)
(9.59011e-11 4.02271e-08 0)
(-2.24709e-11 -9.5419e-09 0)
(8.39329e-12 2.2631e-09 0)
(-2.08722e-12 -5.36794e-10 0)
(7.54952e-13 1.27301e-10 0)
(-4.44089e-14 -3.02372e-11 0)
(1.33227e-13 7.12359e-12 0)
(8.88178e-14 -1.72789e-12 0)
(8.88178e-14 3.73833e-13 0)
(4.44089e-14 -1.20896e-13 0)
(0 2.18408e-14 0)
(4.44089e-14 -2.32817e-14 0)
(0 -2.7942e-16 0)
(0 -1.85378e-15 0)
(4.44089e-14 6.32193e-15 0)
(4.44089e-14 -1.03786e-15 0)
(4.44089e-14 -2.08592e-14 0)
(-4.44089e-14 -1.02585e-14 0)
(4.44089e-14 2.05149e-15 0)
(0 -5.22493e-14 0)
(-8.93063e-11 -4.02097e-08 0)
(2.19158e-11 9.53786e-09 0)
(-7.68274e-12 -2.26217e-09 0)
(2.35367e-12 5.36558e-10 0)
(-4.88498e-13 -1.27276e-10 0)
(2.66454e-13 3.01736e-11 0)
(0 -7.16566e-12 0)
(4.44089e-14 1.70138e-12 0)
(4.44089e-14 -3.97045e-13 0)
(-4.44089e-14 1.06617e-13 0)
(4.44089e-14 -1.10655e-14 0)
(4.44089e-14 1.02392e-14 0)
(4.44089e-14 -7.04934e-15 0)
(4.44089e-14 -1.58367e-14 0)
(0 -1.94129e-14 0)
(0 1.26866e-14 0)
(4.44089e-14 7.37435e-15 0)
(0 -1.57614e-15 0)
(-4.44089e-14 1.78835e-15 0)
(0 -4.35416e-14 0)
(9.05498e-11 4.01915e-08 0)
(-2.15827e-11 -9.5335e-09 0)
(7.92699e-12 2.26118e-09 0)
(-1.9984e-12 -5.36283e-10 0)
(7.54952e-13 1.27232e-10 0)
(-8.88178e-14 -3.01412e-11 0)
(1.33227e-13 7.17582e-12 0)
(4.44089e-14 -1.6802e-12 0)
(4.44089e-14 4.32535e-13 0)
(-4.44089e-14 -6.46535e-14 0)
(-4.44089e-14 1.29853e-14 0)
(0 -1.1448e-14 0)
(0 -1.05981e-14 0)
(4.44089e-14 6.86621e-15 0)
(0 -3.27337e-15 0)
(0 8.10224e-15 0)
(4.44089e-14 5.80249e-15 0)
(-4.44089e-14 5.67311e-15 0)
(0 -2.04255e-15 0)
(2.22045e-14 -5.50288e-14 0)
(-8.29559e-11 -4.01725e-08 0)
(2.07834e-11 9.52881e-09 0)
(-7.10543e-12 -2.25996e-09 0)
(2.26485e-12 5.36081e-10 0)
(-4.88498e-13 -1.27086e-10 0)
(2.66454e-13 3.02178e-11 0)
(4.44089e-14 -7.09987e-12 0)
(4.44089e-14 1.73824e-12 0)
(-4.44089e-14 -3.59609e-13 0)
(4.44089e-14 1.30289e-13 0)
(4.44089e-14 -2.22595e-14 0)
(0 2.40332e-15 0)
(-4.44089e-14 7.34854e-15 0)
(-4.44089e-14 2.09511e-14 0)
(-8.88178e-14 -2.15154e-15 0)
(0 -1.30812e-14 0)
(0 -1.57456e-14 0)
(0 -2.00953e-14 0)
(0 -2.3792e-15 0)
(0 -4.83131e-14 0)
(8.65752e-11 4.01501e-08 0)
(-2.06057e-11 -9.52327e-09 0)
(7.63833e-12 2.25884e-09 0)
(-1.90958e-12 -5.35594e-10 0)
(6.66134e-13 1.27185e-10 0)
(-1.33227e-13 -3.00483e-11 0)
(8.88178e-14 7.22397e-12 0)
(4.44089e-14 -1.64387e-12 0)
(8.88178e-14 4.37976e-13 0)
(4.44089e-14 -7.89953e-14 0)
(0 5.72573e-14 0)
(4.44089e-14 2.89149e-14 0)
(0 2.84825e-14 0)
(0 -4.29352e-15 0)
(4.44089e-14 -1.79052e-14 0)
(0 -2.59138e-14 0)
(4.44089e-14 -1.43823e-14 0)
(0 -9.74318e-15 0)
(-4.44089e-14 7.42554e-16 0)
(0 -3.21301e-14 0)
(-7.78488e-11 -4.01338e-08 0)
(1.94955e-11 9.51928e-09 0)
(-6.66134e-12 -2.25742e-09 0)
(2.04281e-12 5.35644e-10 0)
(-4.44089e-13 -1.26834e-10 0)
(2.22045e-13 3.02352e-11 0)
(0 -7.0421e-12 0)
(0 1.74768e-12 0)
(0 -3.66749e-13 0)
(2.22045e-14 1.18083e-13 0)
(2.22045e-14 1.05082e-14 0)
(4.44089e-14 3.33028e-14 0)
(6.66134e-14 1.11984e-14 0)
(4.44089e-14 -6.91358e-15 0)
(6.66134e-14 7.60621e-15 0)
(0 -4.33058e-15 0)
(0 -2.16715e-14 0)
(0 -4.9495e-15 0)
(2.22045e-14 1.26762e-14 0)
(-2.22045e-14 -1.67116e-14 0)
(8.90843e-11 4.01134e-08 0)
(-2.02061e-11 -9.51387e-09 0)
(7.52731e-12 2.25719e-09 0)
(-1.90958e-12 -5.34963e-10 0)
(5.77316e-13 1.27191e-10 0)
(-1.77636e-13 -2.99849e-11 0)
(4.44089e-14 7.2428e-12 0)
(2.22045e-14 -1.62892e-12 0)
(-4.44089e-14 4.38593e-13 0)
(2.22045e-14 -8.0688e-14 0)
(4.44089e-14 2.66461e-14 0)
(2.22045e-14 1.25437e-14 0)
(2.22045e-14 1.46094e-14 0)
(4.44089e-14 7.14108e-15 0)
(-4.44089e-14 6.56406e-15 0)
(4.44089e-14 -2.88322e-15 0)
(2.22045e-14 -1.94263e-14 0)
(-6.66134e-14 -3.19598e-15 0)
(2.22045e-14 1.81022e-14 0)
(4.44089e-14 -7.58541e-15 0)
(-7.33191e-11 -4.01116e-08 0)
(1.82965e-11 9.51398e-09 0)
(-6.12843e-12 -2.25458e-09 0)
(1.39888e-12 5.34926e-10 0)
(-5.32907e-13 -1.26449e-10 0)
(2.22045e-14 3.0134e-11 0)
(-1.11022e-13 -7.04129e-12 0)
(-2.22045e-14 1.73143e-12 0)
(-4.44089e-14 -3.71983e-13 0)
(0 8.93063e-14 0)
(-4.44089e-14 -3.32796e-14 0)
(0 -3.30035e-15 0)
(4.44089e-14 2.6478e-15 0)
(2.22045e-14 1.9901e-14 0)
(2.22045e-14 4.59724e-15 0)
(0 -1.00546e-14 0)
(-2.22045e-14 1.71951e-15 0)
(-4.44089e-14 1.49005e-15 0)
(0 1.82843e-15 0)
(0 -4.38458e-15 0)
(1.11111e-10 4.01057e-08 0)
(-5.00711e-11 -9.51819e-09 0)
(2.09166e-11 2.2596e-09 0)
(-8.01581e-12 -5.36193e-10 0)
(2.26485e-12 1.27483e-10 0)
(-9.54792e-13 -3.02089e-11 0)
(1.77636e-13 7.21815e-12 0)
(-8.88178e-14 -1.69762e-12 0)
(0 4.12912e-13 0)
(0 -1.09689e-13 0)
(-2.22045e-14 1.14587e-14 0)
(0 -2.43388e-14 0)
(-4.44089e-14 -3.82456e-15 0)
(-4.44089e-14 2.00271e-14 0)
(0 1.21122e-14 0)
(0 -2.8845e-15 0)
(2.22045e-14 3.13506e-15 0)
(-2.22045e-14 -6.37102e-15 0)
(0 -3.56452e-15 0)
(0 -3.11692e-15 0)
)
;

boundaryField
{
    movingWall
    {
        type            calculated;
        value           uniform (0 0 0);
    }
    fixedWalls
    {
        type            calculated;
        value           uniform (0 0 0);
    }
    frontAndBack
    {
        type            empty;
    }
}


// ************************************************************************* //
