/*--------------------------------*- C++ -*----------------------------------*\
| =========                 |                                                 |
| \\      /  F ield         | OpenFOAM: The Open Source CFD Toolbox           |
|  \\    /   O peration     | Version:  2312                                  |
|   \\  /    A nd           | Website:  www.openfoam.com                      |
|    \\/     M anipulation  |                                                 |
\*---------------------------------------------------------------------------*/
FoamFile
{
    version     2.0;
    format      ascii;
    arch        "LSB;label=32;scalar=64";
    class       volScalarField;
    location    "4.5";
    object      divPhi;
}
// * * * * * * * * * * * * * * * * * * * * * * * * * * * * * * * * * * * * * //

dimensions      [0 0 -1 0 0 0 0];

internalField   nonuniform List<scalar> 
400
(
-2.1684e-13
-7.98669e-15
1.78083e-15
3.40559e-15
-6.67835e-16
-6.94913e-15
1.31275e-14
-3.16039e-16
7.54433e-15
-7.16202e-15
-1.01391e-14
1.5393e-14
2.07175e-15
-2.55339e-14
-2.11159e-16
1.91738e-14
-9.55678e-15
1.01344e-14
-9.30846e-15
0
0
3.44474e-15
-5.98143e-15
4.54994e-15
-3.7481e-14
-6.37517e-15
3.2579e-14
-9.47825e-15
-4.15362e-16
2.30629e-15
-1.19339e-14
-1.26593e-14
1.68558e-14
-7.18904e-15
-1.47694e-14
-1.67416e-14
-8.77896e-15
1.68728e-14
-6.31969e-16
0
0
1.03382e-14
-6.74718e-15
8.95688e-15
-3.22851e-15
-2.36627e-14
1.94187e-14
-1.12345e-14
-2.9572e-15
2.08158e-15
-3.56558e-14
-6.82517e-15
-2.57176e-14
-2.27875e-14
2.32987e-14
2.17134e-14
-2.18045e-14
1.19376e-14
-1.3488e-14
2.71051e-14
0
1.76862e-14
-1.63544e-14
-1.11153e-14
2.30764e-14
-2.06491e-14
2.49428e-14
-1.49338e-14
-7.12069e-15
-8.88853e-16
-2.92369e-14
-2.07646e-14
-7.39223e-15
8.69986e-15
-2.93547e-15
1.26123e-14
-1.29856e-15
8.29977e-15
-1.58803e-14
0
2.71051e-14
-9.03337e-15
1.72003e-15
7.831e-15
-1.44481e-14
1.3528e-14
-2.19124e-14
-9.58857e-15
1.35518e-14
-1.43886e-14
6.27788e-15
2.29367e-14
-2.20799e-14
2.04131e-14
-2.43383e-14
1.66913e-14
-1.65554e-14
1.76403e-14
1.62005e-14
-2.71051e-14
0
-1.69071e-14
1.89198e-14
-1.44052e-14
8.04067e-15
2.11395e-14
-1.52179e-14
3.94977e-15
-4.27184e-15
3.14678e-14
-9.12919e-15
1.82614e-14
-9.75874e-15
-1.04982e-14
-3.18983e-15
-1.21736e-14
3.15162e-14
-1.22743e-14
-2.67215e-15
-2.71051e-14
0
3.72276e-14
-2.57009e-14
1.09754e-14
1.12167e-14
-1.98069e-14
2.72167e-14
2.98158e-15
-2.27114e-14
3.17565e-14
-7.36486e-15
-2.15243e-14
-1.66105e-14
-1.94139e-14
-2.15777e-14
6.03081e-15
2.21574e-14
-7.09775e-15
-3.41726e-15
2.71051e-14
0
2.04577e-14
5.79936e-15
2.42122e-14
-2.28739e-15
5.61537e-15
-1.47123e-15
9.10403e-15
1.55562e-14
2.19608e-14
-1.37478e-15
9.75595e-15
4.78694e-15
-4.4848e-15
2.62406e-14
1.3916e-15
5.34649e-15
-1.96001e-14
1.42908e-14
0
-2.71051e-14
-1.10618e-14
4.63732e-15
-1.82672e-15
1.43632e-14
1.36363e-14
-7.87312e-15
7.71515e-15
-1.12816e-15
-3.4237e-15
5.00659e-15
-2.61186e-15
-1.25313e-14
-4.33778e-15
-1.09676e-14
1.8251e-15
1.61512e-14
1.48123e-15
-7.72913e-15
-2.71051e-14
0
1.28109e-14
-5.21762e-15
1.59553e-14
-3.05444e-15
2.18849e-15
-2.26415e-14
3.32386e-14
-2.59342e-14
1.55599e-15
-1.86554e-15
-3.59962e-14
3.42581e-15
-6.09631e-15
-1.0531e-14
-2.28955e-16
-2.5242e-14
1.07373e-14
4.12931e-15
0
0
9.51013e-15
-5.90262e-15
-3.52463e-14
-6.77016e-15
1.71003e-14
7.0992e-16
2.57564e-15
-5.20715e-15
1.56521e-14
-7.5792e-15
1.69928e-15
-2.88595e-14
1.64511e-14
-9.50214e-15
2.0787e-16
1.04212e-14
1.7883e-14
-1.27896e-14
0
0
1.13665e-14
-1.11786e-14
4.6654e-15
-7.88304e-15
1.42453e-14
-1.84684e-14
2.53099e-14
1.50427e-14
-9.57319e-15
-1.54288e-14
3.87906e-14
8.10477e-15
-1.44597e-14
-1.13952e-14
-2.3979e-14
2.3483e-14
1.05282e-14
8.53654e-15
-2.71051e-14
-2.71051e-14
1.14664e-14
8.11233e-15
-1.52553e-14
3.13425e-15
-2.45172e-14
1.92778e-14
-2.37528e-14
5.66107e-15
9.67779e-15
6.2212e-15
3.16333e-14
-3.49883e-15
1.06442e-14
-3.14036e-15
-3.24337e-15
-9.3027e-15
1.67652e-14
2.14083e-14
0
0
-3.23234e-15
1.33749e-14
2.60381e-14
-1.5554e-14
2.77464e-14
-2.05417e-14
-1.18513e-14
6.69675e-16
1.60849e-14
1.95221e-14
5.30316e-15
-1.13949e-14
2.1148e-14
-1.88092e-14
1.2701e-14
-5.52894e-15
-3.14525e-14
1.82115e-14
0
0
2.03662e-14
1.74414e-14
8.69836e-15
-1.05172e-14
3.48489e-14
3.74312e-15
-2.29135e-14
3.95836e-15
-3.44138e-14
2.68289e-14
-3.15351e-14
-1.4927e-14
2.05291e-14
-1.55874e-14
2.0945e-14
-1.72151e-14
-6.48736e-15
1.02912e-14
0
0
-1.28984e-14
-5.34202e-15
2.73614e-14
-3.02894e-14
1.7509e-14
1.70577e-14
-3.13807e-15
1.44682e-14
-7.6091e-15
-1.05435e-14
2.38073e-14
3.51912e-16
-1.52626e-14
4.03457e-14
5.54493e-15
1.72646e-14
-1.20812e-14
6.09394e-15
2.71051e-14
0
-1.5807e-14
7.07423e-15
2.3968e-14
-3.15137e-15
-8.47138e-15
-1.19571e-14
-1.94018e-15
-1.42345e-14
1.05677e-15
-1.73768e-14
-1.06696e-14
1.45642e-15
1.39096e-14
3.15929e-14
-8.23498e-15
-1.10415e-14
7.79427e-15
1.2212e-14
0
0
1.52024e-14
-2.7762e-15
2.13006e-14
-2.25609e-15
-3.5402e-14
-1.0761e-14
2.09008e-14
9.96296e-15
-1.35235e-14
1.87208e-14
-9.62551e-15
7.89327e-15
-3.03425e-14
1.51278e-15
-1.42046e-14
-1.22702e-14
6.86166e-15
7.48969e-15
2.71051e-14
0
-1.25346e-15
5.81854e-16
1.64229e-14
-1.13826e-15
-2.21943e-14
-4.68673e-15
-1.66853e-14
1.60461e-15
-1.01024e-14
-2.06145e-14
-1.44437e-15
1.20284e-14
-1.49942e-14
8.15034e-15
-6.43118e-15
3.61079e-16
1.73685e-14
-1.44741e-14
-2.71051e-14
0
0
0
0
0
-2.71051e-14
0
2.71051e-14
-2.71051e-14
0
0
0
2.71051e-14
0
0
0
-2.71051e-14
0
2.71051e-14
0
)
;

boundaryField
{
    movingWall
    {
        type            extrapolatedCalculated;
        value           nonuniform List<scalar> 
20
(
0
0
0
0
0
-2.71051e-14
0
2.71051e-14
-2.71051e-14
0
0
0
2.71051e-14
0
0
0
-2.71051e-14
0
2.71051e-14
0
)
;
    }
    fixedWalls
    {
        type            extrapolatedCalculated;
        value           nonuniform List<scalar> 
60
(
-2.1684e-13
0
0
0
2.71051e-14
0
0
0
-2.71051e-14
0
0
0
-2.71051e-14
0
0
0
0
0
0
0
0
0
2.71051e-14
0
-2.71051e-14
-2.71051e-14
2.71051e-14
0
-2.71051e-14
0
0
-2.71051e-14
0
0
0
2.71051e-14
0
2.71051e-14
-2.71051e-14
0
-2.1684e-13
-7.98669e-15
1.78083e-15
3.40559e-15
-6.67835e-16
-6.94913e-15
1.31275e-14
-3.16039e-16
7.54433e-15
-7.16202e-15
-1.01391e-14
1.5393e-14
2.07175e-15
-2.55339e-14
-2.11159e-16
1.91738e-14
-9.55678e-15
1.01344e-14
-9.30846e-15
0
)
;
    }
    frontAndBack
    {
        type            empty;
    }
}


// ************************************************************************* //
