/*--------------------------------*- C++ -*----------------------------------*\
| =========                 |                                                 |
| \\      /  F ield         | OpenFOAM: The Open Source CFD Toolbox           |
|  \\    /   O peration     | Version:  2312                                  |
|   \\  /    A nd           | Website:  www.openfoam.com                      |
|    \\/     M anipulation  |                                                 |
\*---------------------------------------------------------------------------*/
FoamFile
{
    version     2.0;
    format      ascii;
    arch        "LSB;label=32;scalar=64";
    class       volScalarField;
    location    "4.5";
    object      enstrophyField;
}
// * * * * * * * * * * * * * * * * * * * * * * * * * * * * * * * * * * * * * //

dimensions      [0 0 -2 0 0 0 0];

internalField   nonuniform List<scalar> 
400
(
5.15111e-13
7.91549e-13
4.46557e-14
2.5332e-15
1.42109e-16
8.21587e-18
4.42449e-19
2.8826e-20
1.08874e-21
1.69858e-22
1.75281e-25
5.55642e-24
1.32679e-24
7.65344e-25
2.96726e-25
1.17172e-25
4.39116e-26
6.54726e-27
2.8638e-27
1.08046e-28
5.09903e-13
7.90411e-13
4.46123e-14
2.51779e-15
1.42104e-16
8.0195e-18
4.52755e-19
2.5513e-20
1.4473e-21
8.02372e-23
4.9107e-24
2.02296e-25
2.81581e-26
3.30024e-27
8.22549e-27
4.6077e-27
4.16501e-27
7.19195e-27
1.94302e-27
1.19844e-27
5.08813e-13
7.86041e-13
4.42732e-14
2.49346e-15
1.40427e-16
7.90977e-18
4.45295e-19
2.51144e-20
1.40745e-21
8.13957e-23
4.03681e-24
4.2354e-25
5.32175e-28
2.16219e-26
6.34925e-27
7.29591e-27
1.03748e-26
8.87301e-27
5.02492e-27
4.21595e-27
5.11176e-13
7.83657e-13
4.41185e-14
2.48355e-15
1.39811e-16
7.86982e-18
4.43138e-19
2.49208e-20
1.41251e-21
7.76478e-23
4.78666e-24
1.77716e-25
3.02081e-26
2.19146e-29
1.1142e-27
8.54961e-27
1.0751e-26
6.58212e-27
5.71597e-27
1.15976e-26
5.10027e-13
7.79449e-13
4.38681e-14
2.46872e-15
1.38925e-16
7.81879e-18
4.39785e-19
2.48114e-20
1.38263e-21
8.16936e-23
3.78423e-24
2.89053e-25
1.07734e-26
4.48742e-27
9.70653e-27
1.03027e-26
8.6335e-27
8.74295e-27
7.55684e-27
6.32555e-27
5.0849e-13
7.75488e-13
4.36382e-14
2.45534e-15
1.38156e-16
7.7728e-18
4.37611e-19
2.45688e-20
1.39424e-21
7.67411e-23
4.89499e-24
1.09339e-25
7.53546e-26
1.12114e-26
2.51699e-26
3.54941e-26
3.07401e-26
9.85271e-27
1.12565e-26
9.54035e-27
5.05889e-13
7.71169e-13
4.33918e-14
2.44132e-15
1.37349e-16
7.72878e-18
4.34629e-19
2.45e-20
1.36906e-21
7.91173e-23
3.99187e-24
4.34923e-25
2.13348e-27
2.51334e-26
6.1354e-27
8.06474e-27
1.09965e-26
1.27792e-26
5.07164e-27
9.85631e-27
5.03359e-13
7.67391e-13
4.31786e-14
2.42925e-15
1.36677e-16
7.68866e-18
4.3279e-19
2.43131e-20
1.38066e-21
7.45342e-23
5.11022e-24
1.44456e-25
4.7143e-26
1.12598e-26
1.22409e-26
3.16185e-27
9.15678e-27
7.04762e-27
1.14648e-26
8.33332e-27
5.00671e-13
7.63751e-13
4.29742e-14
2.41781e-15
1.36027e-16
7.65442e-18
4.30382e-19
2.42755e-20
1.35544e-21
7.98566e-23
3.7373e-24
3.9367e-25
1.70742e-27
2.98766e-26
1.69802e-26
1.33428e-26
6.88304e-27
2.19792e-26
1.96508e-26
4.89875e-27
4.98289e-13
7.60639e-13
4.28006e-14
2.40809e-15
1.35493e-16
7.62268e-18
4.29017e-19
2.40992e-20
1.36561e-21
7.57533e-23
4.72439e-24
1.84354e-25
5.21202e-26
4.74808e-27
6.34924e-27
1.35126e-26
1.00868e-26
6.54574e-27
3.53285e-30
3.70821e-27
4.96067e-13
7.57788e-13
4.26415e-14
2.39924e-15
1.34995e-16
7.5959e-18
4.27334e-19
2.40834e-20
1.34535e-21
7.7487e-23
4.23744e-24
3.03684e-25
7.39417e-27
9.67826e-27
9.64225e-27
4.09799e-27
1.09774e-26
3.16877e-27
1.84356e-27
1.83748e-27
4.94135e-13
7.55293e-13
4.25025e-14
2.3915e-15
1.34566e-16
7.57125e-18
4.26211e-19
2.39598e-20
1.35636e-21
7.45772e-23
4.62012e-24
1.74239e-25
3.49302e-26
8.54226e-28
2.23745e-28
9.19078e-28
6.09033e-27
1.26619e-27
9.87132e-28
4.60826e-28
4.92459e-13
7.53053e-13
4.23775e-14
2.38453e-15
1.34174e-16
7.55029e-18
4.24803e-19
2.39149e-20
1.34325e-21
7.62396e-23
4.25951e-24
2.19905e-25
8.57055e-27
5.0307e-27
8.27955e-28
7.45407e-28
1.16673e-27
2.18948e-28
2.4603e-28
6.06753e-28
4.90915e-13
7.50947e-13
4.22596e-14
2.37793e-15
1.33805e-16
7.52942e-18
4.23665e-19
2.38499e-20
1.33946e-21
7.58113e-23
4.45931e-24
2.04913e-25
3.43216e-27
4.58211e-27
4.03739e-33
1.63274e-27
9.43178e-29
2.23941e-32
1.20513e-27
1.62328e-28
4.89693e-13
7.49112e-13
4.21566e-14
2.37213e-15
1.33479e-16
7.51083e-18
4.22707e-19
2.37738e-20
1.34338e-21
7.55239e-23
4.18965e-24
2.84959e-25
5.66321e-27
3.20181e-28
2.74314e-27
1.93841e-28
4.12208e-28
4.89264e-29
3.97312e-27
2.17229e-27
4.88331e-13
7.47192e-13
4.20483e-14
2.36603e-15
1.33134e-16
7.49179e-18
4.21494e-19
2.37277e-20
1.33472e-21
7.57707e-23
3.9224e-24
3.12244e-25
8.03902e-27
9.28645e-29
6.54559e-27
2.11881e-27
4.6153e-28
4.20726e-29
1.47969e-29
1.13373e-27
4.87596e-13
7.45716e-13
4.19647e-14
2.36129e-15
1.32867e-16
7.47649e-18
4.20669e-19
2.36732e-20
1.33661e-21
7.4406e-23
4.32407e-24
2.03616e-25
1.81683e-26
3.4137e-27
2.70504e-27
4.44361e-28
3.35969e-29
1.22514e-27
2.06493e-28
6.2617e-29
4.86028e-13
7.4382e-13
4.18576e-14
2.35523e-15
1.32524e-16
7.45684e-18
4.19622e-19
2.35945e-20
1.33094e-21
7.44596e-23
4.32548e-24
2.18986e-25
1.24801e-26
7.19875e-28
3.51052e-29
9.26152e-30
1.24653e-27
1.22595e-27
2.26901e-27
2.78382e-28
4.87312e-13
7.44404e-13
4.19536e-14
2.36417e-15
1.33229e-16
7.50772e-18
4.23074e-19
2.38515e-20
1.33818e-21
7.65107e-23
4.1236e-24
2.83839e-25
1.45087e-26
2.33151e-28
1.68436e-29
1.29683e-27
1.55647e-28
4.51333e-28
2.89644e-28
9.63393e-28
4.8695e-13
7.42871e-13
4.18725e-14
2.36862e-15
1.33188e-16
7.6225e-18
4.19512e-19
2.56646e-20
1.18483e-21
1.13632e-22
8.71863e-25
1.70325e-24
1.56825e-25
1.43062e-25
4.3673e-26
2.23492e-26
4.01002e-27
4.15934e-30
1.85008e-29
8.28514e-28
)
;

boundaryField
{
    movingWall
    {
        type            calculated;
        value           nonuniform List<scalar> 
20
(
4.90359e-13
7.47084e-13
4.22875e-14
2.41515e-15
1.36029e-16
7.96723e-18
4.29331e-19
2.88185e-20
1.07104e-21
1.71223e-22
6.80281e-26
4.93686e-24
7.71022e-25
4.89459e-25
1.55347e-25
7.1048e-26
2.65154e-26
4.15934e-30
1.85008e-29
1.68261e-27
)
;
    }
    fixedWalls
    {
        type            calculated;
        value           nonuniform List<scalar> 
60
(
1.42036e-11
1.41743e-11
1.41185e-11
1.40772e-11
1.40028e-11
1.39324e-11
1.38552e-11
1.37874e-11
1.3722e-11
1.36659e-11
1.36146e-11
1.35695e-11
1.35291e-11
1.34912e-11
1.34581e-11
1.34236e-11
1.3397e-11
1.33629e-11
1.33539e-11
1.33308e-11
3.15061e-29
9.85662e-28
3.91844e-27
1.05146e-26
6.71294e-27
9.6726e-27
8.28723e-27
6.66972e-27
5.04948e-27
5.45262e-27
1.66977e-27
1.26728e-28
3.46349e-28
3.97982e-28
2.42179e-27
9.84197e-28
5.11036e-29
1.09362e-28
7.25206e-28
1.19119e-27
5.24451e-13
7.97545e-13
4.51861e-14
2.59266e-15
1.45033e-16
8.67276e-18
4.45722e-19
3.38724e-20
8.16625e-22
3.09068e-22
9.67206e-24
1.88154e-23
6.28562e-24
2.96502e-24
1.26856e-24
4.40475e-25
1.23253e-25
1.3835e-26
2.17007e-27
1.08046e-28
)
;
    }
    frontAndBack
    {
        type            empty;
    }
}


// ************************************************************************* //
