/*--------------------------------*- C++ -*----------------------------------*\
| =========                 |                                                 |
| \\      /  F ield         | OpenFOAM: The Open Source CFD Toolbox           |
|  \\    /   O peration     | Version:  2312                                  |
|   \\  /    A nd           | Website:  www.openfoam.com                      |
|    \\/     M anipulation  |                                                 |
\*---------------------------------------------------------------------------*/
FoamFile
{
    version     2.0;
    format      ascii;
    arch        "LSB;label=32;scalar=64";
    class       volVectorField;
    location    "4.5";
    object      gradPhi;
}
// * * * * * * * * * * * * * * * * * * * * * * * * * * * * * * * * * * * * * //

dimensions      [0 2 -1 0 0 0 0];

internalField   nonuniform List<vector> 
400
(
(-0.02 -5.69281e-15 0)
(1.3617e-14 -1.36166e-14 0)
(-1.50597e-14 1.50597e-14 0)
(2.81241e-16 -2.80367e-16 0)
(-3.01094e-15 3.00998e-15 0)
(-2.74624e-16 2.74769e-16 0)
(-5.64137e-16 5.64442e-16 0)
(-1.83634e-16 1.84299e-16 0)
(-1.6709e-16 1.67073e-16 0)
(-9.42986e-17 9.31543e-17 0)
(-6.94832e-17 6.99662e-17 0)
(-4.79765e-17 4.82035e-17 0)
(-3.47416e-17 3.53402e-17 0)
(-2.64698e-17 2.44731e-17 0)
(-1.65436e-17 1.76077e-17 0)
(-1.48893e-17 1.45112e-17 0)
(-8.27181e-18 9.00893e-18 0)
(-4.96308e-18 4.57248e-18 0)
(-1.65436e-18 2.24508e-18 0)
(0 5.4886e-19 0)
(-0.02 -1.03697e-13 0)
(-1.17805e-13 1.17807e-13 0)
(2.14587e-14 -2.14595e-14 0)
(-8.26353e-15 8.26303e-15 0)
(2.465e-15 -2.46705e-15 0)
(-9.47949e-16 9.48706e-16 0)
(-4.96308e-18 5.03833e-18 0)
(-2.23339e-16 2.23159e-16 0)
(-9.5953e-17 9.5825e-17 0)
(-8.60268e-17 8.72096e-17 0)
(-5.62483e-17 5.54756e-17 0)
(-3.97047e-17 4.06102e-17 0)
(-2.97785e-17 2.91995e-17 0)
(-2.31611e-17 2.26013e-17 0)
(-1.48893e-17 1.55351e-17 0)
(-9.92617e-18 9.04625e-18 0)
(-8.27181e-18 8.17041e-18 0)
(-4.96308e-18 5.75793e-18 0)
(-3.30872e-18 3.14433e-18 0)
(-1.65436e-18 1.09446e-18 0)
(-0.02 2.18305e-13 0)
(2.27023e-13 -2.27023e-13 0)
(-1.96952e-14 1.96945e-14 0)
(1.35145e-14 -1.3513e-14 0)
(-2.66187e-15 2.66207e-15 0)
(6.53473e-16 -6.54096e-16 0)
(-2.48154e-16 2.48708e-16 0)
(-2.15067e-17 2.0241e-17 0)
(-6.94832e-17 7.0346e-17 0)
(-4.46678e-17 4.47121e-17 0)
(-4.1359e-17 3.94715e-17 0)
(-2.81241e-17 2.8752e-17 0)
(-2.15067e-17 2.09106e-17 0)
(-1.65436e-17 1.54831e-17 0)
(-1.32349e-17 1.41007e-17 0)
(-1.15805e-17 1.14095e-17 0)
(-6.61744e-18 6.12499e-18 0)
(-1.65436e-18 3.819e-18 0)
(-4.96308e-18 3.42295e-18 0)
(0 1.03632e-18 0)
(-0.02 -2.46498e-13 0)
(-2.60504e-13 2.60506e-13 0)
(2.42728e-14 -2.42744e-14 0)
(-1.40091e-14 1.40082e-14 0)
(4.08793e-15 -4.08613e-15 0)
(-5.55865e-16 5.54449e-16 0)
(3.54033e-16 -3.5209e-16 0)
(-4.96308e-17 4.99594e-17 0)
(8.27181e-18 -9.69494e-18 0)
(-2.15067e-17 2.15355e-17 0)
(-1.48893e-17 1.38735e-17 0)
(-1.48893e-17 1.42108e-17 0)
(-1.32349e-17 1.31135e-17 0)
(-1.15805e-17 1.24164e-17 0)
(-9.92617e-18 9.53031e-18 0)
(-4.96308e-18 6.32121e-18 0)
(-6.61744e-18 5.09105e-18 0)
(-3.30872e-18 3.88387e-18 0)
(-1.65436e-18 1.23564e-18 0)
(-1.65436e-18 7.27417e-19 0)
(-0.02 2.5276e-13 0)
(2.6346e-13 -2.63461e-13 0)
(-2.23686e-14 2.2368e-14 0)
(1.42308e-14 -1.42292e-14 0)
(-3.30376e-15 3.30359e-15 0)
(8.02365e-16 -8.01956e-16 0)
(-1.63782e-16 1.62998e-16 0)
(1.0257e-16 -1.04087e-16 0)
(8.27181e-18 -7.09789e-18 0)
(9.92617e-18 -1.1517e-17 0)
(0 1.77574e-18 0)
(-3.30872e-18 3.54031e-18 0)
(-4.96308e-18 4.68663e-18 0)
(-4.96308e-18 4.65142e-18 0)
(-3.30872e-18 2.99562e-18 0)
(-1.65436e-18 1.5592e-18 0)
(-1.65436e-18 5.92412e-19 0)
(0 4.67025e-19 0)
(0 2.48788e-19 0)
(-1.65436e-18 5.36035e-19 0)
(-0.02 -2.29317e-13 0)
(-2.41899e-13 2.41899e-13 0)
(2.12006e-14 -2.12007e-14 0)
(-1.20222e-14 1.20213e-14 0)
(3.37821e-15 -3.37888e-15 0)
(-4.10282e-16 4.11022e-16 0)
(3.226e-16 -3.23571e-16 0)
(1.8198e-17 -1.69414e-17 0)
(5.12852e-17 -5.23908e-17 0)
(1.98523e-17 -1.93912e-17 0)
(1.15805e-17 -1.16124e-17 0)
(3.30872e-18 -2.94427e-18 0)
(3.30872e-18 -3.4497e-18 0)
(3.30872e-18 -4.25607e-18 0)
(1.65436e-18 -1.65308e-18 0)
(0 -8.79935e-20 0)
(0 1.04833e-18 0)
(0 -1.40475e-19 0)
(0 4.1162e-19 0)
(0 -8.51549e-19 0)
(-0.02 2.02943e-13 0)
(2.1284e-13 -2.1284e-13 0)
(-1.86149e-14 1.86135e-14 0)
(1.05118e-14 -1.05114e-14 0)
(-2.53117e-15 2.53177e-15 0)
(5.80681e-16 -5.8074e-16 0)
(-8.76811e-17 8.75027e-17 0)
(1.04225e-16 -1.04403e-16 0)
(3.47416e-17 -3.61585e-17 0)
(3.80503e-17 -3.52221e-17 0)
(2.31611e-17 -2.29511e-17 0)
(1.48893e-17 -1.68971e-17 0)
(9.92617e-18 -9.82936e-18 0)
(4.96308e-18 -5.86679e-18 0)
(6.61744e-18 -6.3404e-18 0)
(3.30872e-18 -3.15554e-18 0)
(3.30872e-18 -1.82319e-18 0)
(0 2.58827e-19 0)
(0 -3.72552e-20 0)
(0 4.78785e-19 0)
(-0.02 -1.69183e-13 0)
(-1.79713e-13 1.79714e-13 0)
(1.63467e-14 -1.63468e-14 0)
(-8.29993e-15 8.30158e-15 0)
(2.29791e-15 -2.29918e-15 0)
(-2.64698e-16 2.6419e-16 0)
(2.26647e-16 -2.26406e-16 0)
(3.80503e-17 -3.7641e-17 0)
(5.79026e-17 -5.77177e-17 0)
(3.47416e-17 -3.43711e-17 0)
(2.97785e-17 -2.81608e-17 0)
(1.98523e-17 -2.012e-17 0)
(1.32349e-17 -1.38379e-17 0)
(9.92617e-18 -1.00956e-17 0)
(6.61744e-18 -5.7406e-18 0)
(4.96308e-18 -5.65297e-18 0)
(3.30872e-18 -2.1958e-18 0)
(1.65436e-18 -1.98037e-18 0)
(1.65436e-18 -1.8251e-18 0)
(1.65436e-18 -1.20067e-18 0)
(-0.02 1.41809e-13 0)
(1.49978e-13 -1.49977e-13 0)
(-1.4024e-14 1.40241e-14 0)
(6.88545e-15 -6.88599e-15 0)
(-1.65436e-15 1.6556e-15 0)
(3.78849e-16 -3.7907e-16 0)
(-3.47416e-17 3.49165e-17 0)
(8.43724e-17 -8.54504e-17 0)
(4.63221e-17 -4.55576e-17 0)
(4.30134e-17 -4.19268e-17 0)
(2.97785e-17 -2.94965e-17 0)
(2.15067e-17 -2.23024e-17 0)
(1.65436e-17 -1.71289e-17 0)
(1.32349e-17 -1.35452e-17 0)
(8.27181e-18 -9.99193e-18 0)
(6.61744e-18 -5.39934e-18 0)
(6.61744e-18 -6.23603e-18 0)
(3.30872e-18 -4.36694e-18 0)
(3.30872e-18 -2.45625e-18 0)
(-1.65436e-18 1.47344e-19 0)
(-0.02 -1.14814e-13 0)
(-1.23271e-13 1.23272e-13 0)
(1.20868e-14 -1.20866e-14 0)
(-5.35848e-15 5.3582e-15 0)
(1.47404e-15 -1.47268e-15 0)
(-1.48893e-16 1.49861e-16 0)
(1.53856e-16 -1.55237e-16 0)
(4.30134e-17 -4.20919e-17 0)
(5.45939e-17 -5.54504e-17 0)
(4.1359e-17 -4.04086e-17 0)
(3.14329e-17 -3.28697e-17 0)
(2.31611e-17 -2.47085e-17 0)
(1.98523e-17 -1.81757e-17 0)
(9.92617e-18 -1.09299e-17 0)
(9.92617e-18 -9.46494e-18 0)
(8.27181e-18 -8.23422e-18 0)
(3.30872e-18 -4.78017e-18 0)
(4.96308e-18 -3.60296e-18 0)
(1.65436e-18 -7.62331e-19 0)
(0 1.48337e-19 0)
(-0.02 9.65201e-14 0)
(1.02971e-13 -1.02971e-13 0)
(-1.04738e-14 1.04747e-14 0)
(4.53791e-15 -4.53859e-15 0)
(-1.05383e-15 1.05285e-15 0)
(2.5808e-16 -2.56752e-16 0)
(0 -1.87681e-19 0)
(7.27919e-17 -7.33615e-17 0)
(4.63221e-17 -4.63975e-17 0)
(4.1359e-17 -4.1308e-17 0)
(3.14329e-17 -3.14565e-17 0)
(2.64698e-17 -2.52203e-17 0)
(1.65436e-17 -1.92326e-17 0)
(1.8198e-17 -1.64909e-17 0)
(9.92617e-18 -9.43533e-18 0)
(6.61744e-18 -6.75442e-18 0)
(4.96308e-18 -4.9931e-18 0)
(3.30872e-18 -2.35322e-18 0)
(0 -2.2012e-18 0)
(3.30872e-18 -2.42348e-18 0)
(-0.02 -7.9893e-14 0)
(-8.68143e-14 8.68135e-14 0)
(9.276e-15 -9.27561e-15 0)
(-3.66441e-15 3.66524e-15 0)
(1.01247e-15 -1.01243e-15 0)
(-7.44463e-17 7.43962e-17 0)
(1.24077e-16 -1.24287e-16 0)
(4.79765e-17 -4.76524e-17 0)
(5.12852e-17 -4.91319e-17 0)
(3.63959e-17 -3.64978e-17 0)
(2.81241e-17 -2.88528e-17 0)
(2.48154e-17 -2.254e-17 0)
(1.8198e-17 -1.71253e-17 0)
(1.32349e-17 -1.37428e-17 0)
(9.92617e-18 -1.09367e-17 0)
(6.61744e-18 -6.63035e-18 0)
(4.96308e-18 -4.76792e-18 0)
(3.30872e-18 -3.07824e-18 0)
(3.30872e-18 -1.6442e-18 0)
(-1.65436e-18 4.28964e-19 0)
(-0.02 7.09436e-14 0)
(7.61337e-14 -7.61327e-14 0)
(-8.34129e-15 8.34119e-15 0)
(3.37986e-15 -3.381e-15 0)
(-7.11375e-16 7.12059e-16 0)
(2.16721e-16 -2.16068e-16 0)
(2.15067e-17 -2.25072e-17 0)
(6.45201e-17 -6.47948e-17 0)
(4.1359e-17 -4.11267e-17 0)
(3.63959e-17 -3.4274e-17 0)
(2.81241e-17 -2.87331e-17 0)
(2.31611e-17 -2.20419e-17 0)
(1.65436e-17 -1.68432e-17 0)
(8.27181e-18 -9.58683e-18 0)
(9.92617e-18 -9.07403e-18 0)
(6.61744e-18 -7.09474e-18 0)
(4.96308e-18 -4.34979e-18 0)
(1.65436e-18 -2.39865e-18 0)
(3.30872e-18 -2.06692e-18 0)
(1.65436e-18 -1.42474e-18 0)
(-0.02 -6.1496e-14 0)
(-6.75773e-14 6.75762e-14 0)
(7.79204e-15 -7.79108e-15 0)
(-2.82565e-15 2.82506e-15 0)
(8.20563e-16 -8.20862e-16 0)
(-2.64698e-17 2.8363e-17 0)
(1.12497e-16 -1.14477e-16 0)
(4.96308e-17 -4.95493e-17 0)
(4.46678e-17 -4.49729e-17 0)
(2.97785e-17 -2.94952e-17 0)
(2.15067e-17 -2.1019e-17 0)
(1.65436e-17 -1.62243e-17 0)
(1.32349e-17 -1.39473e-17 0)
(1.15805e-17 -1.16721e-17 0)
(6.61744e-18 -6.20445e-18 0)
(4.96308e-18 -4.62379e-18 0)
(3.30872e-18 -3.87707e-18 0)
(3.30872e-18 -3.76614e-18 0)
(3.30872e-18 -1.51509e-18 0)
(0 -2.2393e-20 0)
(-0.02 5.79747e-14 0)
(6.22702e-14 -6.22686e-14 0)
(-7.1121e-15 7.11121e-15 0)
(2.89679e-15 -2.89569e-15 0)
(-5.07889e-16 5.07116e-16 0)
(2.15067e-16 -2.13775e-16 0)
(3.80503e-17 -3.80881e-17 0)
(5.45939e-17 -5.61185e-17 0)
(3.47416e-17 -3.37169e-17 0)
(2.48154e-17 -2.69195e-17 0)
(2.15067e-17 -1.86082e-17 0)
(9.92617e-18 -1.26839e-17 0)
(6.61744e-18 -6.95287e-18 0)
(6.61744e-18 -4.0967e-18 0)
(1.65436e-18 -3.90467e-18 0)
(6.61744e-18 -5.00881e-18 0)
(1.65436e-18 -3.29481e-18 0)
(3.30872e-18 -2.8175e-18 0)
(1.65436e-18 -1.75126e-18 0)
(0 -5.83526e-19 0)
(-0.02 -5.02327e-14 0)
(-5.60266e-14 5.60272e-14 0)
(7.07736e-15 -7.07691e-15 0)
(-2.26813e-15 2.26827e-15 0)
(7.72587e-16 -7.73483e-16 0)
(6.61744e-18 -6.28801e-18 0)
(1.0257e-16 -1.02333e-16 0)
(3.47416e-17 -3.42478e-17 0)
(2.64698e-17 -2.65796e-17 0)
(1.48893e-17 -1.49228e-17 0)
(8.27181e-18 -8.64488e-18 0)
(6.61744e-18 -4.00914e-18 0)
(0 -1.94656e-18 0)
(3.30872e-18 -3.14484e-18 0)
(3.30872e-18 -2.62436e-18 0)
(1.65436e-18 -7.70002e-19 0)
(3.30872e-18 -2.34177e-18 0)
(0 -2.79693e-19 0)
(0 -2.09864e-19 0)
(1.65436e-18 3.89204e-19 0)
(-0.02 4.91965e-14 0)
(5.24449e-14 -5.24444e-14 0)
(-5.76379e-15 5.76316e-15 0)
(2.56095e-15 -2.55889e-15 0)
(-2.61389e-16 2.6021e-16 0)
(1.78671e-16 -1.77482e-16 0)
(2.64698e-17 -2.72005e-17 0)
(1.8198e-17 -1.75584e-17 0)
(1.65436e-18 -2.79039e-18 0)
(-1.65436e-18 3.1438e-18 0)
(-3.30872e-18 2.36884e-18 0)
(-1.65436e-18 9.86663e-19 0)
(0 5.52253e-20 0)
(0 1.03359e-19 0)
(1.65436e-18 -4.3764e-19 0)
(-1.65436e-18 6.66257e-19 0)
(0 1.2952e-18 0)
(0 9.93774e-19 0)
(-1.65436e-18 1.66116e-18 0)
(0 -5.1501e-19 0)
(-0.02 -3.58939e-14 0)
(-4.17677e-14 4.17677e-14 0)
(6.97479e-15 -6.97462e-15 0)
(-1.75528e-15 1.75627e-15 0)
(8.81775e-16 -8.82225e-16 0)
(-1.27386e-16 1.26047e-16 0)
(4.30134e-17 -4.1953e-17 0)
(-4.79765e-17 4.85759e-17 0)
(-2.48154e-17 2.42492e-17 0)
(-2.48154e-17 2.36655e-17 0)
(-1.48893e-17 1.53574e-17 0)
(-9.92617e-18 1.08942e-17 0)
(-6.61744e-18 5.74285e-18 0)
(-4.96308e-18 4.56366e-18 0)
(-3.30872e-18 3.91701e-18 0)
(-1.65436e-18 1.05677e-18 0)
(-1.65436e-18 1.29382e-18 0)
(-1.65436e-18 1.30862e-18 0)
(0 -2.36118e-19 0)
(-1.65436e-18 2.2251e-18 0)
(-0.02 3.47571e-14 0)
(3.1504e-14 -3.1505e-14 0)
(4.30299e-15 -4.30276e-15 0)
(-7.29573e-16 7.31593e-16 0)
(4.83073e-16 -4.83769e-16 0)
(-4.51641e-16 4.5196e-16 0)
(-5.12852e-17 5.04481e-17 0)
(-1.22423e-16 1.22804e-16 0)
(-5.29396e-17 5.24369e-17 0)
(-4.30134e-17 4.35391e-17 0)
(-2.81241e-17 2.64935e-17 0)
(-1.65436e-17 1.80273e-17 0)
(-1.32349e-17 1.2404e-17 0)
(-8.27181e-18 8.89893e-18 0)
(-6.61744e-18 5.75289e-18 0)
(-4.96308e-18 4.45443e-18 0)
(-3.30872e-18 3.34207e-18 0)
(0 1.88059e-18 0)
(-3.30872e-18 1.61231e-18 0)
(1.65436e-18 -1.95712e-18 0)
(-0.02 -2.84899e-14 0)
(-1.68563e-14 1.68567e-14 0)
(-9.33887e-15 9.33902e-15 0)
(4.05319e-16 -4.04686e-16 0)
(-1.98192e-15 1.98144e-15 0)
(-4.96308e-18 2.46497e-18 0)
(-3.73886e-16 3.74284e-16 0)
(-8.27181e-17 8.48599e-17 0)
(-1.00916e-16 9.88532e-17 0)
(-4.96308e-17 4.92942e-17 0)
(-3.80503e-17 3.76225e-17 0)
(-2.31611e-17 2.44668e-17 0)
(-1.65436e-17 1.70169e-17 0)
(-1.15805e-17 1.02365e-17 0)
(-6.61744e-18 6.36875e-18 0)
(-3.30872e-18 4.38732e-18 0)
(-4.96308e-18 2.69245e-18 0)
(0 1.84208e-18 0)
(0 7.23707e-19 0)
(-1.65436e-18 1.21766e-18 0)
)
;

boundaryField
{
    movingWall
    {
        type            extrapolatedCalculated;
        value           nonuniform List<vector> 
20
(
(-0.02 -2.84899e-14 0)
(-1.68563e-14 1.68567e-14 0)
(-9.33887e-15 9.33902e-15 0)
(4.05319e-16 -4.04686e-16 0)
(-1.98192e-15 1.98144e-15 0)
(-4.96308e-18 2.46497e-18 0)
(-3.73886e-16 3.74284e-16 0)
(-8.27181e-17 8.48599e-17 0)
(-1.00916e-16 9.88532e-17 0)
(-4.96308e-17 4.92942e-17 0)
(-3.80503e-17 3.76225e-17 0)
(-2.31611e-17 2.44668e-17 0)
(-1.65436e-17 1.70169e-17 0)
(-1.15805e-17 1.02365e-17 0)
(-6.61744e-18 6.36875e-18 0)
(-3.30872e-18 4.38732e-18 0)
(-4.96308e-18 2.69245e-18 0)
(0 1.84208e-18 0)
(0 7.23707e-19 0)
(-1.65436e-18 1.21766e-18 0)
)
;
    }
    fixedWalls
    {
        type            extrapolatedCalculated;
        value           nonuniform List<vector> 
60
(
(-0.02 -5.69281e-15 0)
(-0.02 -1.03697e-13 0)
(-0.02 2.18305e-13 0)
(-0.02 -2.46498e-13 0)
(-0.02 2.5276e-13 0)
(-0.02 -2.29317e-13 0)
(-0.02 2.02943e-13 0)
(-0.02 -1.69183e-13 0)
(-0.02 1.41809e-13 0)
(-0.02 -1.14814e-13 0)
(-0.02 9.65201e-14 0)
(-0.02 -7.9893e-14 0)
(-0.02 7.09436e-14 0)
(-0.02 -6.1496e-14 0)
(-0.02 5.79747e-14 0)
(-0.02 -5.02327e-14 0)
(-0.02 4.91965e-14 0)
(-0.02 -3.58939e-14 0)
(-0.02 3.47571e-14 0)
(-0.02 -2.84899e-14 0)
(0 5.4886e-19 0)
(-1.65436e-18 1.09446e-18 0)
(0 1.03632e-18 0)
(-1.65436e-18 7.27417e-19 0)
(-1.65436e-18 5.36035e-19 0)
(0 -8.51549e-19 0)
(0 4.78785e-19 0)
(1.65436e-18 -1.20067e-18 0)
(-1.65436e-18 1.47344e-19 0)
(0 1.48337e-19 0)
(3.30872e-18 -2.42348e-18 0)
(-1.65436e-18 4.28964e-19 0)
(1.65436e-18 -1.42474e-18 0)
(0 -2.2393e-20 0)
(0 -5.83526e-19 0)
(1.65436e-18 3.89204e-19 0)
(0 -5.1501e-19 0)
(-1.65436e-18 2.2251e-18 0)
(1.65436e-18 -1.95712e-18 0)
(-1.65436e-18 1.21766e-18 0)
(-0.02 -5.69281e-15 0)
(1.3617e-14 -1.36166e-14 0)
(-1.50597e-14 1.50597e-14 0)
(2.81241e-16 -2.80367e-16 0)
(-3.01094e-15 3.00998e-15 0)
(-2.74624e-16 2.74769e-16 0)
(-5.64137e-16 5.64442e-16 0)
(-1.83634e-16 1.84299e-16 0)
(-1.6709e-16 1.67073e-16 0)
(-9.42986e-17 9.31543e-17 0)
(-6.94832e-17 6.99662e-17 0)
(-4.79765e-17 4.82035e-17 0)
(-3.47416e-17 3.53402e-17 0)
(-2.64698e-17 2.44731e-17 0)
(-1.65436e-17 1.76077e-17 0)
(-1.48893e-17 1.45112e-17 0)
(-8.27181e-18 9.00893e-18 0)
(-4.96308e-18 4.57248e-18 0)
(-1.65436e-18 2.24508e-18 0)
(0 5.4886e-19 0)
)
;
    }
    frontAndBack
    {
        type            empty;
    }
}


// ************************************************************************* //
