/*--------------------------------*- C++ -*----------------------------------*\
| =========                 |                                                 |
| \\      /  F ield         | OpenFOAM: The Open Source CFD Toolbox           |
|  \\    /   O peration     | Version:  2312                                  |
|   \\  /    A nd           | Website:  www.openfoam.com                      |
|    \\/     M anipulation  |                                                 |
\*---------------------------------------------------------------------------*/
FoamFile
{
    version     2.0;
    format      ascii;
    arch        "LSB;label=32;scalar=64";
    class       volTensorField;
    location    "4.5";
    object      gradU;
}
// * * * * * * * * * * * * * * * * * * * * * * * * * * * * * * * * * * * * * //

dimensions      [0 0 -1 0 0 0 0];

internalField   nonuniform List<tensor> 
400
(
(-6.03684e-10 1.01636e-06 0 1.3655e-09 2.02194e-10 0 0 0 0)
(1.4428e-09 -1.25759e-06 0 6.23416e-10 2.63439e-10 0 0 0 0)
(-1.08266e-09 2.98596e-07 0 -2.53758e-10 1.65996e-10 0 0 0 0)
(4.56639e-10 -7.09603e-08 0 2.1844e-10 2.11135e-11 0 0 0 0)
(-2.234e-10 1.68348e-08 0 -2.3988e-11 3.7929e-11 0 0 0 0)
(5.03612e-11 -4.00945e-09 0 4.41541e-11 7.22578e-12 0 0 0 0)
(-3.06287e-11 9.49093e-10 0 8.40257e-12 9.22388e-12 0 0 0 0)
(1.92446e-12 -2.27505e-10 0 1.26039e-11 3.78634e-12 0 0 0 0)
(-5.28549e-12 5.31144e-11 0 6.451e-12 3.10932e-12 0 0 0 0)
(-1.35525e-12 -1.32272e-11 0 5.20417e-12 1.85256e-12 0 0 0 0)
(-1.5992e-12 2.79605e-12 0 3.38813e-12 1.35734e-12 0 0 0 0)
(-8.94467e-13 -8.94139e-13 0 2.43945e-12 9.45496e-13 0 0 0 0)
(-7.58942e-13 5.15294e-14 0 1.68051e-12 6.92702e-13 0 0 0 0)
(-5.14996e-13 -1.25903e-13 0 1.11131e-12 4.88665e-13 0 0 0 0)
(-3.25261e-13 -3.85217e-14 0 7.31836e-13 3.5003e-13 0 0 0 0)
(-2.98156e-13 -5.04107e-14 0 4.33681e-13 2.67672e-13 0 0 0 0)
(-1.6263e-13 -5.24044e-14 0 2.43945e-13 1.76518e-13 0 0 0 0)
(-1.0842e-13 -3.31161e-14 0 8.13152e-14 9.68934e-14 0 0 0 0)
(-5.42101e-14 -2.14708e-14 0 5.42101e-14 5.05736e-14 0 0 0 0)
(0 -1.47e-14 0 0 1.30844e-14 0 0 0 0)
(2.59265e-09 -1.0159e-06 0 -6.04464e-09 -3.02112e-09 0 0 0 0)
(-3.06209e-09 1.25755e-06 0 2.45192e-10 7.05532e-10 0 0 0 0)
(6.77681e-10 -2.98839e-07 0 -1.33791e-10 -2.4815e-10 0 0 0 0)
(-2.26924e-10 7.08322e-08 0 -1.29643e-10 7.58026e-11 0 0 0 0)
(4.91144e-11 -1.68486e-08 0 9.81203e-12 -1.17414e-11 0 0 0 0)
(-1.79435e-11 3.98075e-09 0 -2.41235e-11 1.27646e-11 0 0 0 0)
(-8.67362e-13 -9.52532e-10 0 -9.48677e-13 2.93175e-12 0 0 0 0)
(-3.93023e-12 2.2139e-10 0 -4.49944e-12 3.72339e-12 0 0 0 0)
(-2.11419e-12 -5.50482e-11 0 -1.24683e-12 2.09012e-12 0 0 0 0)
(-1.68051e-12 1.14752e-11 0 -1.19262e-12 1.63167e-12 0 0 0 0)
(-1.16552e-12 -3.70312e-12 0 -5.69206e-13 1.12179e-12 0 0 0 0)
(-8.13152e-13 2.29499e-13 0 -4.06576e-13 8.09674e-13 0 0 0 0)
(-5.96311e-13 -5.08361e-13 0 -2.71051e-13 5.80562e-13 0 0 0 0)
(-4.33681e-13 -2.16769e-13 0 -1.35525e-13 4.27364e-13 0 0 0 0)
(-2.98156e-13 -1.82471e-13 0 -5.42101e-14 3.08777e-13 0 0 0 0)
(-1.89735e-13 -1.23102e-13 0 -2.71051e-14 2.17673e-13 0 0 0 0)
(-1.89735e-13 -1.18374e-13 0 -2.71051e-14 1.57076e-13 0 0 0 0)
(-1.0842e-13 -9.28279e-14 0 2.71051e-14 9.8925e-14 0 0 0 0)
(-5.42101e-14 -6.23381e-14 0 0 5.69783e-14 0 0 0 0)
(-2.71051e-14 -4.8958e-14 0 0 2.0147e-14 0 0 0 0)
(-6.40311e-09 1.01405e-06 0 5.27451e-09 5.88858e-09 0 0 0 0)
(7.3536e-09 -1.25482e-06 0 -9.88765e-10 -1.87985e-09 0 0 0 0)
(-1.45752e-09 2.97967e-07 0 3.99149e-10 3.7083e-10 0 0 0 0)
(6.00296e-10 -7.07239e-08 0 -1.05737e-10 -1.26692e-10 0 0 0 0)
(-1.1788e-10 1.67717e-08 0 1.30375e-11 2.09579e-11 0 0 0 0)
(3.96276e-11 -3.99478e-09 0 -1.74014e-11 -5.79085e-12 0 0 0 0)
(-1.10318e-11 9.40051e-10 0 -3.65918e-12 2.5163e-12 0 0 0 0)
(1.6263e-12 -2.28346e-10 0 -4.22839e-12 1.17151e-12 0 0 0 0)
(-1.95156e-12 5.10227e-11 0 -2.03288e-12 1.26167e-12 0 0 0 0)
(-7.04731e-13 -1.41955e-11 0 -1.43657e-12 9.81707e-13 0 0 0 0)
(-8.40257e-13 1.97405e-12 0 -8.67362e-13 7.57431e-13 0 0 0 0)
(-5.69206e-13 -1.43537e-12 0 -5.14996e-13 5.60754e-13 0 0 0 0)
(-4.60786e-13 -3.3078e-13 0 -2.98156e-13 4.19382e-13 0 0 0 0)
(-2.98156e-13 -3.97687e-13 0 -1.89735e-13 3.35426e-13 0 0 0 0)
(-2.98156e-13 -2.48213e-13 0 -1.35525e-13 2.77164e-13 0 0 0 0)
(-2.1684e-13 -2.02112e-13 0 -8.13152e-14 1.99642e-13 0 0 0 0)
(-1.0842e-13 -1.71153e-13 0 -2.71051e-14 1.33977e-13 0 0 0 0)
(-8.13152e-14 -1.33214e-13 0 0 9.00646e-14 0 0 0 0)
(-5.42101e-14 -1.00249e-13 0 0 5.78593e-14 0 0 0 0)
(-2.71051e-14 -9.18254e-14 0 0 1.83774e-14 0 0 0 0)
(6.87834e-09 -1.01189e-06 0 -7.7572e-10 -7.01256e-09 0 0 0 0)
(-7.93739e-09 1.25204e-06 0 1.11293e-10 1.97198e-09 0 0 0 0)
(1.56071e-09 -2.97086e-07 0 -3.8435e-11 -5.20604e-10 0 0 0 0)
(-6.13062e-10 7.04823e-08 0 4.66207e-12 1.17587e-10 0 0 0 0)
(1.37423e-10 -1.67277e-08 0 -5.85469e-12 -4.29774e-11 0 0 0 0)
(-3.46674e-11 3.96231e-09 0 -5.01444e-12 5.80008e-12 0 0 0 0)
(1.23328e-11 -9.4557e-10 0 -4.14707e-12 -3.50142e-12 0 0 0 0)
(-2.27682e-12 2.20135e-10 0 -3.11708e-12 5.39438e-13 0 0 0 0)
(6.77626e-13 -5.5238e-11 0 -2.08709e-12 7.70399e-14 0 0 0 0)
(-5.42101e-13 1.0971e-11 0 -1.49078e-12 3.94897e-13 0 0 0 0)
(-2.1684e-13 -4.12407e-12 0 -1.02999e-12 3.24761e-13 0 0 0 0)
(-2.98156e-13 -1.0855e-13 0 -7.04731e-13 3.04569e-13 0 0 0 0)
(-2.71051e-13 -7.33688e-13 0 -4.87891e-13 2.67958e-13 0 0 0 0)
(-2.43945e-13 -3.58986e-13 0 -3.52366e-13 2.40036e-13 0 0 0 0)
(-1.6263e-13 -3.18256e-13 0 -2.71051e-13 1.91439e-13 0 0 0 0)
(-1.35525e-13 -2.66289e-13 0 -1.35525e-13 1.32078e-13 0 0 0 0)
(-1.0842e-13 -2.27951e-13 0 -8.13152e-14 8.73747e-14 0 0 0 0)
(-8.13152e-14 -1.68946e-13 0 -5.42101e-14 6.34062e-14 0 0 0 0)
(-2.71051e-14 -1.34025e-13 0 -2.71051e-14 3.41445e-14 0 0 0 0)
(-2.71051e-14 -1.25195e-13 0 2.71051e-14 1.36123e-14 0 0 0 0)
(-7.06753e-09 1.00901e-06 0 -9.69385e-10 7.57413e-09 0 0 0 0)
(8.09086e-09 -1.24832e-06 0 2.3454e-10 -1.97356e-09 0 0 0 0)
(-1.56415e-09 2.96112e-07 0 -9.07206e-11 4.70931e-10 0 0 0 0)
(6.32849e-10 -7.02462e-08 0 2.06812e-11 -1.27577e-10 0 0 0 0)
(-1.27529e-10 1.66599e-08 0 -8.89046e-12 2.45394e-11 0 0 0 0)
(4.13352e-11 -3.9553e-09 0 -8.67362e-13 -1.08262e-11 0 0 0 0)
(-9.18861e-12 9.34791e-10 0 -3.06287e-12 -7.25767e-14 0 0 0 0)
(3.7405e-12 -2.24768e-10 0 -2.00577e-12 -1.41278e-12 0 0 0 0)
(-3.52366e-13 5.08782e-11 0 -1.70762e-12 -2.99547e-13 0 0 0 0)
(3.79471e-13 -1.39478e-11 0 -1.16552e-12 -1.46397e-13 0 0 0 0)
(-5.42101e-14 1.88372e-12 0 -8.67362e-13 3.40535e-14 0 0 0 0)
(-2.71051e-14 -1.49217e-12 0 -7.31836e-13 8.98385e-14 0 0 0 0)
(-1.0842e-13 -3.95313e-13 0 -5.42101e-13 9.5238e-14 0 0 0 0)
(-8.13152e-14 -4.74206e-13 0 -3.79471e-13 8.29478e-14 0 0 0 0)
(-8.13152e-14 -3.56171e-13 0 -2.1684e-13 6.05362e-14 0 0 0 0)
(-2.71051e-14 -3.06176e-13 0 -1.6263e-13 4.13135e-14 0 0 0 0)
(-2.71051e-14 -2.39824e-13 0 -1.0842e-13 3.32843e-14 0 0 0 0)
(0 -1.86444e-13 0 -5.42101e-14 2.13123e-14 0 0 0 0)
(0 -1.50043e-13 0 -2.71051e-14 7.64379e-15 0 0 0 0)
(-2.71051e-14 -1.39582e-13 0 -2.71051e-14 5.29448e-15 0 0 0 0)
(6.14347e-09 -1.00629e-06 0 2.16439e-09 -7.3507e-09 0 0 0 0)
(-7.05864e-09 1.24493e-06 0 -4.49646e-10 1.81835e-09 0 0 0 0)
(1.3468e-09 -2.9524e-07 0 1.8632e-10 -4.45214e-10 0 0 0 0)
(-5.31232e-10 7.00359e-08 0 -4.03052e-11 1.02199e-10 0 0 0 0)
(1.15901e-10 -1.6611e-08 0 1.16552e-11 -3.04301e-11 0 0 0 0)
(-2.88127e-11 3.93769e-09 0 -5.09575e-12 3.43329e-12 0 0 0 0)
(1.11402e-11 -9.36156e-10 0 -6.23416e-13 -3.5922e-12 0 0 0 0)
(-8.94467e-13 2.19908e-10 0 -1.76183e-12 -8.8792e-13 0 0 0 0)
(1.49078e-12 -5.39717e-11 0 -1.16552e-12 -8.61692e-13 0 0 0 0)
(2.98156e-13 1.13046e-11 0 -1.0842e-12 -4.14797e-13 0 0 0 0)
(2.1684e-13 -3.88784e-12 0 -7.58942e-13 -2.24842e-13 0 0 0 0)
(8.13152e-14 -4.7365e-14 0 -5.14996e-13 -9.63834e-14 0 0 0 0)
(1.0842e-13 -7.40579e-13 0 -3.52366e-13 -7.19039e-14 0 0 0 0)
(0 -3.93688e-13 0 -2.43945e-13 -6.45481e-14 0 0 0 0)
(8.13152e-14 -3.59891e-13 0 -1.35525e-13 -3.87405e-14 0 0 0 0)
(0 -2.93541e-13 0 -2.71051e-14 -8.886e-15 0 0 0 0)
(0 -2.47952e-13 0 0 4.9083e-15 0 0 0 0)
(0 -1.94586e-13 0 -5.42101e-14 1.32287e-15 0 0 0 0)
(0 -1.50043e-13 0 0 4.37784e-15 0 0 0 0)
(0 -1.38133e-13 0 0 -3.55834e-15 0 0 0 0)
(-5.35279e-09 1.00348e-06 0 -2.39609e-09 6.92577e-09 0 0 0 0)
(6.11276e-09 -1.24142e-06 0 4.90764e-10 -1.65847e-09 0 0 0 0)
(-1.15476e-09 2.94396e-07 0 -1.94316e-10 3.9262e-10 0 0 0 0)
(4.58211e-10 -6.98314e-08 0 4.43981e-11 -9.75132e-11 0 0 0 0)
(-9.23469e-11 1.65612e-08 0 -1.28749e-11 1.93886e-11 0 0 0 0)
(2.90566e-11 -3.92847e-09 0 3.14419e-12 -7.84585e-12 0 0 0 0)
(-5.82759e-12 9.30469e-10 0 -1.87025e-12 -6.25743e-13 0 0 0 0)
(3.17129e-12 -2.22037e-10 0 -6.77626e-13 -1.64862e-12 0 0 0 0)
(4.33681e-13 5.13513e-11 0 -9.75782e-13 -8.60764e-13 0 0 0 0)
(7.58942e-13 -1.3311e-11 0 -7.31836e-13 -6.58928e-13 0 0 0 0)
(4.33681e-13 2.20213e-12 0 -6.23416e-13 -4.43885e-13 0 0 0 0)
(3.52366e-13 -1.33923e-12 0 -4.06576e-13 -2.93296e-13 0 0 0 0)
(2.43945e-13 -3.63478e-13 0 -2.98156e-13 -1.84275e-13 0 0 0 0)
(8.13152e-14 -4.41043e-13 0 -2.1684e-13 -1.30829e-13 0 0 0 0)
(1.35525e-13 -3.00509e-13 0 -1.89735e-13 -1.03283e-13 0 0 0 0)
(2.71051e-14 -2.62527e-13 0 -1.35525e-13 -6.29301e-14 0 0 0 0)
(5.42101e-14 -2.29615e-13 0 -8.13152e-14 -2.47886e-14 0 0 0 0)
(0 -1.86975e-13 0 -2.71051e-14 -4.51571e-15 0 0 0 0)
(0 -1.54924e-13 0 -5.42101e-14 -3.13593e-15 0 0 0 0)
(0 -1.40402e-13 0 0 -5.89763e-15 0 0 0 0)
(4.23817e-09 -1.00102e-06 0 2.33114e-09 -6.23477e-09 0 0 0 0)
(-4.85685e-09 1.2384e-06 0 -4.64228e-10 1.45831e-09 0 0 0 0)
(9.00403e-10 -2.93679e-07 0 1.87404e-10 -3.48694e-10 0 0 0 0)
(-3.49845e-10 6.96627e-08 0 -4.02781e-11 7.88631e-11 0 0 0 0)
(7.46744e-11 -1.65213e-08 0 1.2116e-11 -2.14362e-11 0 0 0 0)
(-1.78351e-11 3.91768e-09 0 -3.71339e-12 2.41564e-12 0 0 0 0)
(7.37257e-12 -9.29959e-10 0 4.06576e-13 -2.7472e-12 0 0 0 0)
(0 2.19673e-10 0 -8.40257e-13 -1.09332e-12 0 0 0 0)
(1.38236e-12 -5.2982e-11 0 -4.33681e-13 -1.05307e-12 0 0 0 0)
(6.50521e-13 1.17215e-11 0 -4.87891e-13 -7.30972e-13 0 0 0 0)
(5.69206e-13 -3.5222e-12 0 -3.25261e-13 -5.69611e-13 0 0 0 0)
(4.06576e-13 2.12245e-13 0 -3.25261e-13 -4.15977e-13 0 0 0 0)
(3.25261e-13 -5.78111e-13 0 -2.71051e-13 -2.80333e-13 0 0 0 0)
(1.6263e-13 -3.12695e-13 0 -1.6263e-13 -1.92252e-13 0 0 0 0)
(1.35525e-13 -2.91992e-13 0 -1.35525e-13 -1.37945e-13 0 0 0 0)
(8.13152e-14 -2.15047e-13 0 -1.35525e-13 -1.03131e-13 0 0 0 0)
(5.42101e-14 -1.89538e-13 0 -5.42101e-14 -6.58797e-14 0 0 0 0)
(5.42101e-14 -1.72933e-13 0 -5.42101e-14 -4.50546e-14 0 0 0 0)
(2.71051e-14 -1.51425e-13 0 0 -3.43573e-14 0 0 0 0)
(5.42101e-14 -1.29099e-13 0 0 -7.06205e-15 0 0 0 0)
(-3.48585e-09 9.98699e-07 0 -1.97178e-09 5.60711e-09 0 0 0 0)
(3.96899e-09 -1.23553e-06 0 3.88985e-10 -1.29555e-09 0 0 0 0)
(-7.30806e-10 2.93017e-07 0 -1.52683e-10 3.04383e-10 0 0 0 0)
(2.82977e-10 -6.95042e-08 0 3.45047e-11 -7.29737e-11 0 0 0 0)
(-5.57822e-11 1.64847e-08 0 -9.32414e-12 1.45362e-11 0 0 0 0)
(1.73472e-11 -3.90978e-09 0 2.87314e-12 -5.6282e-12 0 0 0 0)
(-2.92735e-12 9.26961e-10 0 -8.13152e-13 -6.45484e-13 0 0 0 0)
(2.22261e-12 -2.20343e-10 0 0 -1.48281e-12 0 0 0 0)
(8.13152e-13 5.17137e-11 0 -3.52366e-13 -9.94564e-13 0 0 0 0)
(8.40257e-13 -1.28275e-11 0 -1.89735e-13 -8.16174e-13 0 0 0 0)
(6.23416e-13 2.51713e-12 0 -2.1684e-13 -5.96967e-13 0 0 0 0)
(4.33681e-13 -1.04995e-12 0 -1.6263e-13 -4.49172e-13 0 0 0 0)
(3.25261e-13 -1.39752e-13 0 -8.13152e-14 -3.37525e-13 0 0 0 0)
(2.43945e-13 -2.98655e-13 0 -5.42101e-14 -2.48134e-13 0 0 0 0)
(1.89735e-13 -2.11388e-13 0 -2.71051e-14 -1.76488e-13 0 0 0 0)
(8.13152e-14 -1.90462e-13 0 -2.71051e-14 -1.23039e-13 0 0 0 0)
(1.35525e-13 -1.71539e-13 0 -5.42101e-14 -9.8729e-14 0 0 0 0)
(8.13152e-14 -1.55452e-13 0 5.42101e-14 -7.55351e-14 0 0 0 0)
(8.13152e-14 -1.16931e-13 0 8.13152e-14 -4.02136e-14 0 0 0 0)
(-2.71051e-14 -9.89823e-14 0 0 -2.76709e-15 0 0 0 0)
(2.65535e-09 -9.96711e-07 0 1.57713e-09 -4.93452e-09 0 0 0 0)
(-3.03772e-09 1.2331e-06 0 -3.04742e-10 1.13067e-09 0 0 0 0)
(5.4595e-10 -2.92456e-07 0 1.2059e-10 -2.67949e-10 0 0 0 0)
(-2.06513e-10 6.93729e-08 0 -2.5804e-11 6.01675e-11 0 0 0 0)
(4.30157e-11 -1.6454e-08 0 7.67073e-12 -1.58686e-11 0 0 0 0)
(-9.32414e-12 3.9025e-09 0 -2.03288e-12 1.7454e-12 0 0 0 0)
(4.49944e-12 -9.25814e-10 0 4.87891e-13 -2.15691e-12 0 0 0 0)
(4.87891e-13 2.19324e-10 0 -2.1684e-13 -1.03067e-12 0 0 0 0)
(1.19262e-12 -5.23153e-11 0 -5.42101e-14 -1.06646e-12 0 0 0 0)
(7.58942e-13 1.21191e-11 0 -1.89735e-13 -8.18167e-13 0 0 0 0)
(6.50521e-13 -3.1552e-12 0 -8.13152e-14 -6.336e-13 0 0 0 0)
(4.87891e-13 4.71688e-13 0 -1.35525e-13 -4.78342e-13 0 0 0 0)
(4.06576e-13 -3.77073e-13 0 -5.42101e-14 -3.62986e-13 0 0 0 0)
(2.1684e-13 -1.51658e-13 0 -5.42101e-14 -2.71193e-13 0 0 0 0)
(1.89735e-13 -1.66898e-13 0 -5.42101e-14 -2.03459e-13 0 0 0 0)
(1.6263e-13 -1.37288e-13 0 2.71051e-14 -1.44463e-13 0 0 0 0)
(1.0842e-13 -1.42034e-13 0 0 -1.03528e-13 0 0 0 0)
(8.13152e-14 -1.14418e-13 0 0 -6.68858e-14 0 0 0 0)
(0 -7.8657e-14 0 -8.13152e-14 -2.76847e-14 0 0 0 0)
(0 -8.61187e-14 0 0 -1.06762e-14 0 0 0 0)
(-2.21343e-09 9.94896e-07 0 -1.16338e-09 4.42938e-09 0 0 0 0)
(2.51239e-09 -1.23087e-06 0 2.21692e-10 -1.01584e-09 0 0 0 0)
(-4.51923e-10 2.91946e-07 0 -8.6167e-11 2.37865e-10 0 0 0 0)
(1.70111e-10 -6.92521e-08 0 1.90277e-11 -5.68233e-11 0 0 0 0)
(-3.20382e-11 1.64263e-08 0 -5.09575e-12 1.12282e-11 0 0 0 0)
(1.01644e-11 -3.89607e-09 0 1.5992e-12 -4.45979e-12 0 0 0 0)
(-1.11131e-12 9.24184e-10 0 -2.98156e-13 -6.93797e-13 0 0 0 0)
(1.73472e-12 -2.19253e-10 0 2.1684e-13 -1.34405e-12 0 0 0 0)
(8.13152e-13 5.19262e-11 0 5.42101e-14 -9.49946e-13 0 0 0 0)
(8.40257e-13 -1.23946e-11 0 5.42101e-14 -8.14314e-13 0 0 0 0)
(6.50521e-13 2.85695e-12 0 -5.42101e-14 -6.39292e-13 0 0 0 0)
(4.87891e-13 -7.79339e-13 0 0 -5.09155e-13 0 0 0 0)
(4.06576e-13 6.73972e-14 0 -5.42101e-14 -3.85135e-13 0 0 0 0)
(2.71051e-13 -1.39128e-13 0 0 -2.87973e-13 0 0 0 0)
(2.71051e-13 -8.46585e-14 0 5.42101e-14 -1.92143e-13 0 0 0 0)
(1.35525e-13 -9.05316e-14 0 0 -1.42229e-13 0 0 0 0)
(8.13152e-14 -9.39614e-14 0 5.42101e-14 -9.77284e-14 0 0 0 0)
(5.42101e-14 -7.96087e-14 0 0 -5.63513e-14 0 0 0 0)
(2.71051e-14 -6.07217e-14 0 0 -3.3633e-14 0 0 0 0)
(5.42101e-14 -6.06214e-14 0 0 -2.2127e-14 0 0 0 0)
(1.71369e-09 -9.93297e-07 0 8.20822e-10 -3.95321e-09 0 0 0 0)
(-1.96051e-09 1.2289e-06 0 -1.54363e-10 9.0924e-10 0 0 0 0)
(3.43286e-10 -2.91497e-07 0 5.91432e-11 -2.15749e-10 0 0 0 0)
(-1.25524e-10 6.91462e-08 0 -1.30104e-11 4.8373e-11 0 0 0 0)
(2.56685e-11 -1.64016e-08 0 3.63208e-12 -1.31893e-11 0 0 0 0)
(-4.47233e-12 3.89058e-09 0 -7.58942e-13 1.14351e-12 0 0 0 0)
(2.98156e-12 -9.22698e-10 0 5.69206e-13 -2.01406e-12 0 0 0 0)
(8.94467e-13 2.19068e-10 0 1.6263e-13 -1.02897e-12 0 0 0 0)
(1.0571e-12 -5.17856e-11 0 2.98156e-13 -9.73646e-13 0 0 0 0)
(7.04731e-13 1.24297e-11 0 2.1684e-13 -7.44195e-13 0 0 0 0)
(5.69206e-13 -2.85004e-12 0 1.89735e-13 -6.01984e-13 0 0 0 0)
(4.60786e-13 7.25845e-13 0 1.35525e-13 -4.65573e-13 0 0 0 0)
(3.52366e-13 -1.55891e-13 0 1.0842e-13 -3.50302e-13 0 0 0 0)
(2.71051e-13 4.13334e-14 0 0 -2.66521e-13 0 0 0 0)
(2.1684e-13 -2.1154e-14 0 0 -2.03061e-13 0 0 0 0)
(1.6263e-13 -4.28737e-14 0 0 -1.4124e-13 0 0 0 0)
(1.0842e-13 -5.6156e-14 0 5.42101e-14 -9.69301e-14 0 0 0 0)
(0 -5.03227e-14 0 0 -5.3183e-14 0 0 0 0)
(8.13152e-14 -4.44327e-14 0 0 -3.82474e-14 0 0 0 0)
(0 -3.03587e-14 0 0 -1.46437e-14 0 0 0 0)
(-1.54702e-09 9.91852e-07 0 -5.79099e-10 3.65668e-09 0 0 0 0)
(1.75072e-09 -1.22713e-06 0 1.0674e-10 -8.49216e-10 0 0 0 0)
(-3.10543e-10 2.91085e-07 0 -4.16876e-11 1.98656e-10 0 0 0 0)
(1.14654e-10 -6.90495e-08 0 8.78204e-12 -4.87516e-11 0 0 0 0)
(-1.97596e-11 1.63791e-08 0 -2.24972e-12 9.05667e-12 0 0 0 0)
(7.07442e-12 -3.88489e-09 0 1.0571e-12 -4.23227e-12 0 0 0 0)
(-1.35525e-13 9.22012e-10 0 2.71051e-13 -8.11148e-13 0 0 0 0)
(1.40946e-12 -2.18212e-10 0 4.87891e-13 -1.2811e-12 0 0 0 0)
(8.40257e-13 5.22109e-11 0 3.79471e-13 -8.53149e-13 0 0 0 0)
(6.77626e-13 -1.2023e-11 0 3.25261e-13 -6.84523e-13 0 0 0 0)
(5.69206e-13 3.13558e-12 0 2.1684e-13 -5.35671e-13 0 0 0 0)
(4.60786e-13 -5.27657e-13 0 1.35525e-13 -4.14311e-13 0 0 0 0)
(3.52366e-13 2.66449e-13 0 1.35525e-13 -3.23185e-13 0 0 0 0)
(1.6263e-13 8.11368e-15 0 1.0842e-13 -2.32851e-13 0 0 0 0)
(1.89735e-13 4.06223e-14 0 8.13152e-14 -1.87473e-13 0 0 0 0)
(1.6263e-13 1.55991e-14 0 5.42101e-14 -1.30472e-13 0 0 0 0)
(5.42101e-14 -5.9043e-15 0 -5.42101e-14 -8.74547e-14 0 0 0 0)
(5.42101e-14 -2.0926e-14 0 0 -6.05816e-14 0 0 0 0)
(2.71051e-14 -2.21824e-14 0 0 -3.73436e-14 0 0 0 0)
(5.42101e-14 -7.73035e-15 0 2.71051e-14 -1.10333e-14 0 0 0 0)
(1.24133e-09 -9.9049e-07 0 3.84214e-10 -3.36316e-09 0 0 0 0)
(-1.4231e-09 1.22545e-06 0 -7.1476e-11 7.86904e-10 0 0 0 0)
(2.45328e-10 -2.90697e-07 0 2.53703e-11 -1.89125e-10 0 0 0 0)
(-8.60314e-11 6.89566e-08 0 -6.07153e-12 4.16304e-11 0 0 0 0)
(1.78893e-11 -1.63571e-08 0 1.68051e-12 -1.26305e-11 0 0 0 0)
(-1.97867e-12 3.88071e-09 0 1.35525e-13 5.9182e-13 0 0 0 0)
(2.43945e-12 -9.19747e-10 0 7.58942e-13 -2.05422e-12 0 0 0 0)
(9.75782e-13 2.19026e-10 0 6.23416e-13 -9.8084e-13 0 0 0 0)
(8.67362e-13 -5.1189e-11 0 5.69206e-13 -8.66356e-13 0 0 0 0)
(5.96311e-13 1.27472e-11 0 4.33681e-13 -5.98853e-13 0 0 0 0)
(4.33681e-13 -2.57983e-12 0 4.06576e-13 -4.55897e-13 0 0 0 0)
(3.25261e-13 9.38332e-13 0 2.98156e-13 -3.51836e-13 0 0 0 0)
(2.43945e-13 2.55691e-14 0 1.0842e-13 -2.76594e-13 0 0 0 0)
(2.71051e-13 1.77045e-13 0 8.13152e-14 -1.86599e-13 0 0 0 0)
(1.89735e-13 8.12253e-14 0 8.13152e-14 -1.20278e-13 0 0 0 0)
(2.71051e-14 5.71444e-14 0 0 -9.8942e-14 0 0 0 0)
(5.42101e-14 1.37345e-14 0 0 -7.42515e-14 0 0 0 0)
(8.13152e-14 -2.11632e-16 0 0 -6.75402e-14 0 0 0 0)
(5.42101e-14 5.11562e-15 0 5.42101e-14 -3.61125e-14 0 0 0 0)
(0 1.80182e-14 0 0 -1.04262e-14 0 0 0 0)
(-1.23426e-09 9.89275e-07 0 -3.63967e-10 3.21619e-09 0 0 0 0)
(1.39184e-09 -1.22395e-06 0 6.554e-11 -7.61916e-10 0 0 0 0)
(-2.45111e-10 2.9034e-07 0 -2.71322e-11 1.76402e-10 0 0 0 0)
(9.09646e-11 -6.88731e-08 0 5.52943e-12 -4.60267e-11 0 0 0 0)
(-1.36067e-11 1.6338e-08 0 -8.40257e-13 7.16833e-12 0 0 0 0)
(6.17995e-12 -3.87431e-09 0 1.46367e-12 -4.49041e-12 0 0 0 0)
(3.79471e-13 9.20439e-10 0 9.75782e-13 -9.4371e-13 0 0 0 0)
(1.21973e-12 -2.17024e-10 0 1.02999e-12 -1.15237e-12 0 0 0 0)
(5.96311e-13 5.25929e-11 0 7.58942e-13 -6.90857e-13 0 0 0 0)
(5.42101e-13 -1.16125e-11 0 6.77626e-13 -5.18741e-13 0 0 0 0)
(4.60786e-13 3.38259e-12 0 4.87891e-13 -3.41796e-13 0 0 0 0)
(2.1684e-13 -3.48354e-13 0 4.06576e-13 -2.24772e-13 0 0 0 0)
(1.35525e-13 4.31686e-13 0 3.25261e-13 -1.37517e-13 0 0 0 0)
(8.13152e-14 1.6443e-13 0 1.89735e-13 -1.0609e-13 0 0 0 0)
(8.13152e-14 1.2828e-13 0 5.42101e-14 -8.40937e-14 0 0 0 0)
(8.13152e-14 6.16255e-14 0 8.13152e-14 -8.48917e-14 0 0 0 0)
(5.42101e-14 2.54975e-14 0 5.42101e-14 -7.081e-14 0 0 0 0)
(8.13152e-14 1.7213e-14 0 2.71051e-14 -4.76929e-14 0 0 0 0)
(5.42101e-14 3.49316e-14 0 -5.42101e-14 -2.55613e-14 0 0 0 0)
(0 3.88084e-14 0 -2.71051e-14 -4.03844e-15 0 0 0 0)
(9.42904e-10 -9.88035e-07 0 2.26544e-10 -2.9854e-09 0 0 0 0)
(-1.08621e-09 1.22241e-06 0 -4.35036e-11 7.09024e-10 0 0 0 0)
(1.85263e-10 -2.89981e-07 0 1.32544e-11 -1.77044e-10 0 0 0 0)
(-5.9848e-11 6.87874e-08 0 -2.52077e-12 3.57367e-11 0 0 0 0)
(1.39049e-11 -1.63156e-08 0 2.1684e-12 -1.37643e-11 0 0 0 0)
(-1.35525e-13 3.8726e-09 0 1.73472e-12 9.89883e-14 0 0 0 0)
(1.95156e-12 -9.16409e-10 0 1.73472e-12 -1.96702e-12 0 0 0 0)
(7.86047e-13 2.19279e-10 0 1.43657e-12 -6.28719e-13 0 0 0 0)
(5.42101e-13 -5.05554e-11 0 1.11131e-12 -5.01994e-13 0 0 0 0)
(2.71051e-13 1.30963e-11 0 7.86047e-13 -2.71583e-13 0 0 0 0)
(2.1684e-13 -2.28586e-12 0 5.14996e-13 -1.66749e-13 0 0 0 0)
(5.42101e-14 1.14261e-12 0 3.52366e-13 -8.99878e-14 0 0 0 0)
(2.71051e-14 1.44251e-13 0 2.71051e-13 -4.99665e-14 0 0 0 0)
(8.13152e-14 2.30469e-13 0 2.1684e-13 -6.00021e-14 0 0 0 0)
(1.0842e-13 1.02424e-13 0 2.1684e-13 -5.30791e-14 0 0 0 0)
(2.71051e-14 7.04282e-14 0 1.35525e-13 -3.34133e-14 0 0 0 0)
(5.42101e-14 5.09333e-14 0 8.13152e-14 -3.60958e-14 0 0 0 0)
(-5.42101e-14 4.5037e-14 0 5.42101e-14 -1.28979e-14 0 0 0 0)
(5.42101e-14 4.87701e-14 0 5.42101e-14 -3.80855e-15 0 0 0 0)
(0 4.7618e-14 0 0 -4.02397e-16 0 0 0 0)
(-1.05124e-09 9.86999e-07 0 -5.18764e-10 2.89912e-09 0 0 0 0)
(1.17855e-09 -1.22115e-06 0 9.60061e-11 -6.95546e-10 0 0 0 0)
(-2.04101e-10 2.89667e-07 0 -3.90584e-11 1.42794e-10 0 0 0 0)
(7.99599e-11 -6.87098e-08 0 1.13299e-11 -4.51408e-11 0 0 0 0)
(-9.37835e-12 1.63024e-08 0 1.0571e-12 3.30856e-12 0 0 0 0)
(5.66496e-12 -3.86252e-09 0 4.39102e-12 -3.72854e-12 0 0 0 0)
(1.0842e-13 9.19712e-10 0 2.46656e-12 -4.45099e-13 0 0 0 0)
(5.69206e-13 -2.15559e-10 0 2.03288e-12 -2.78689e-13 0 0 0 0)
(2.71051e-14 5.29501e-11 0 1.24683e-12 -1.77975e-16 0 0 0 0)
(-2.71051e-14 -1.12773e-11 0 9.21572e-13 6.56936e-14 0 0 0 0)
(-5.42101e-14 3.56419e-12 0 6.23416e-13 5.5489e-14 0 0 0 0)
(-2.71051e-14 -2.31571e-13 0 4.06576e-13 3.37204e-14 0 0 0 0)
(0 4.61672e-13 0 2.71051e-13 8.35424e-15 0 0 0 0)
(0 1.61317e-13 0 2.43945e-13 2.53167e-15 0 0 0 0)
(2.71051e-14 1.54868e-13 0 8.13152e-14 5.56499e-15 0 0 0 0)
(-2.71051e-14 7.86088e-14 0 1.0842e-13 1.69073e-14 0 0 0 0)
(-2.71051e-14 4.60129e-14 0 5.42101e-14 1.21481e-14 0 0 0 0)
(0 4.95003e-14 0 0 1.59046e-14 0 0 0 0)
(-2.71051e-14 4.74271e-14 0 2.71051e-14 1.66278e-14 0 0 0 0)
(0 4.30193e-14 0 5.42101e-14 7.39432e-15 0 0 0 0)
(5.202e-10 -9.85832e-07 0 9.72258e-11 -2.49702e-09 0 0 0 0)
(-6.06584e-10 1.21965e-06 0 -3.77844e-11 5.63867e-10 0 0 0 0)
(1.00587e-10 -2.8933e-07 0 5.50233e-12 -2.02877e-10 0 0 0 0)
(-1.97596e-11 6.86479e-08 0 1.51788e-11 4.12251e-11 0 0 0 0)
(7.02021e-12 -1.62742e-08 0 6.12574e-12 -1.82142e-11 0 0 0 0)
(1.30104e-12 3.86884e-09 0 7.02021e-12 4.83328e-12 0 0 0 0)
(-4.06576e-13 -9.12959e-10 0 3.14419e-12 -8.31712e-13 0 0 0 0)
(-3.79471e-13 2.19724e-10 0 2.49366e-12 1.18966e-12 0 0 0 0)
(-6.50521e-13 -5.0211e-11 0 1.38236e-12 4.64328e-13 0 0 0 0)
(-3.79471e-13 1.31519e-11 0 9.48677e-13 4.88063e-13 0 0 0 0)
(-3.25261e-13 -2.31783e-12 0 6.23416e-13 2.93001e-13 0 0 0 0)
(-2.1684e-13 1.09548e-12 0 4.33681e-13 2.02244e-13 0 0 0 0)
(-1.0842e-13 1.13063e-13 0 2.71051e-13 1.23494e-13 0 0 0 0)
(-1.0842e-13 2.27679e-13 0 1.89735e-13 1.00652e-13 0 0 0 0)
(-8.13152e-14 1.16799e-13 0 1.0842e-13 6.50856e-14 0 0 0 0)
(-2.71051e-14 7.70113e-14 0 8.13152e-14 3.29033e-14 0 0 0 0)
(-2.71051e-14 4.99306e-14 0 0 3.74048e-14 0 0 0 0)
(-5.42101e-14 4.95167e-14 0 0 3.1639e-14 0 0 0 0)
(5.42101e-14 4.02598e-14 0 -2.71051e-14 1.79489e-14 0 0 0 0)
(-5.42101e-14 2.35958e-14 0 0 8.28028e-15 0 0 0 0)
(-9.91882e-10 9.85066e-07 0 -2.16472e-09 2.20677e-09 0 0 0 0)
(1.08694e-09 -1.21885e-06 0 1.31495e-09 -5.32997e-10 0 0 0 0)
(-1.51111e-10 2.89144e-07 0 -5.23263e-10 8.21655e-11 0 0 0 0)
(8.05562e-11 -6.85251e-08 0 2.37847e-10 -5.7936e-12 0 0 0 0)
(-1.75641e-11 1.6266e-08 0 -5.7544e-11 4.96204e-12 0 0 0 0)
(2.71051e-12 -3.84513e-09 0 2.98427e-11 5.03862e-12 0 0 0 0)
(-4.47233e-12 9.16068e-10 0 -3.79471e-12 2.19651e-12 0 0 0 0)
(-1.21973e-12 -2.14263e-10 0 4.14707e-12 2.01493e-12 0 0 0 0)
(-1.46367e-12 5.22485e-11 0 5.14996e-13 1.14447e-12 0 0 0 0)
(-7.58942e-13 -1.14486e-11 0 9.21572e-13 8.36326e-13 0 0 0 0)
(-5.69206e-13 3.27837e-12 0 4.06576e-13 5.47039e-13 0 0 0 0)
(-3.79471e-13 -4.01079e-13 0 3.52366e-13 3.69985e-13 0 0 0 0)
(-2.71051e-13 3.6008e-13 0 1.89735e-13 2.40137e-13 0 0 0 0)
(-1.89735e-13 1.02909e-13 0 8.13152e-14 1.66445e-13 0 0 0 0)
(-1.0842e-13 8.71192e-14 0 8.13152e-14 1.13682e-13 0 0 0 0)
(-8.13152e-14 5.09279e-14 0 0 7.41391e-14 0 0 0 0)
(-8.13152e-14 4.47486e-14 0 2.71051e-14 5.83556e-14 0 0 0 0)
(-5.42101e-14 3.00444e-14 0 0 3.24481e-14 0 0 0 0)
(0 2.40684e-14 0 0 1.17231e-14 0 0 0 0)
(0 1.67901e-14 0 -2.71051e-14 -1.72884e-15 0 0 0 0)
(-3.29516e-10 -9.84158e-07 0 2.70606e-09 -1.25345e-09 0 0 0 0)
(1.03484e-09 1.21753e-06 0 -1.38463e-09 3.45634e-10 0 0 0 0)
(-9.76568e-10 -2.88803e-07 0 5.84277e-10 7.27616e-11 0 0 0 0)
(4.45932e-10 6.85707e-08 0 -2.56983e-10 4.59397e-12 0 0 0 0)
(-2.00984e-10 -1.62633e-08 0 5.77338e-11 2.7177e-11 0 0 0 0)
(5.50775e-11 3.86608e-09 0 -3.84079e-11 1.91111e-12 0 0 0 0)
(-2.61022e-11 -9.15982e-10 0 0 6.23387e-12 0 0 0 0)
(3.93023e-12 2.18672e-10 0 -7.88757e-12 1.82557e-12 0 0 0 0)
(-3.84892e-12 -5.13896e-11 0 -2.71051e-12 1.82528e-12 0 0 0 0)
(-4.87891e-13 1.25545e-11 0 -2.52077e-12 9.6672e-13 0 0 0 0)
(-8.94467e-13 -2.78418e-12 0 -1.46367e-12 7.19392e-13 0 0 0 0)
(-4.60786e-13 7.88575e-13 0 -1.0571e-12 4.72526e-13 0 0 0 0)
(-3.79471e-13 -9.04766e-14 0 -6.50521e-13 3.31895e-13 0 0 0 0)
(-1.89735e-13 1.01224e-13 0 -4.33681e-13 2.02923e-13 0 0 0 0)
(-1.35525e-13 2.44931e-14 0 -2.71051e-13 1.27762e-13 0 0 0 0)
(-8.13152e-14 2.16848e-14 0 -1.89735e-13 9.13104e-14 0 0 0 0)
(-8.13152e-14 8.23957e-15 0 -8.13152e-14 5.51493e-14 0 0 0 0)
(-5.42101e-14 2.88421e-15 0 0 3.83223e-14 0 0 0 0)
(2.71051e-14 6.08289e-15 0 0 2.22207e-14 0 0 0 0)
(-2.71051e-14 1.36015e-14 0 -2.71051e-14 8.17097e-15 0 0 0 0)
)
;

boundaryField
{
    movingWall
    {
        type            extrapolatedCalculated;
        value           nonuniform List<tensor> 
20
(
(-3.29516e-10 -9.84158e-07 0 6.15401e-09 5.16078e-06 0 0 0 0)
(1.03484e-09 1.21753e-06 0 -4.836e-09 -1.22415e-06 0 0 0 0)
(-9.76568e-10 -2.88803e-07 0 2.01466e-09 2.90676e-07 0 0 0 0)
(4.45932e-10 6.85707e-08 0 -9.29656e-10 -6.89341e-08 0 0 0 0)
(-2.00984e-10 -1.62633e-08 0 2.30838e-10 1.63929e-08 0 0 0 0)
(5.50775e-11 3.86608e-09 0 -1.25722e-10 -3.88081e-09 0 0 0 0)
(-2.61022e-11 -9.15982e-10 0 1.06581e-11 9.28596e-10 0 0 0 0)
(3.93023e-12 2.18672e-10 0 -2.14051e-11 -2.1688e-10 0 0 0 0)
(-3.84892e-12 -5.13896e-11 0 -5.10703e-12 5.39082e-11 0 0 0 0)
(-4.87891e-13 1.25545e-11 0 -5.9508e-12 -1.13216e-11 0 0 0 0)
(-8.94467e-13 -2.78418e-12 0 -3.15303e-12 3.69017e-12 0 0 0 0)
(-4.60786e-13 7.88575e-13 0 -2.35367e-12 -1.8494e-13 0 0 0 0)
(-3.79471e-13 -9.04766e-14 0 -1.33227e-12 5.35874e-13 0 0 0 0)
(-1.89735e-13 1.01224e-13 0 -8.88178e-13 1.76967e-13 0 0 0 0)
(-1.35525e-13 2.44931e-14 0 -5.32907e-13 1.30978e-13 0 0 0 0)
(-8.13152e-14 2.16848e-14 0 -3.55271e-13 7.89945e-14 0 0 0 0)
(-8.13152e-14 8.23957e-15 0 -2.22045e-13 4.42384e-14 0 0 0 0)
(-5.42101e-14 2.88421e-15 0 0 4.60362e-14 0 0 0 0)
(2.71051e-14 6.08289e-15 0 0 3.27015e-14 0 0 0 0)
(-2.71051e-14 1.36015e-14 0 -4.44089e-14 2.17047e-14 0 0 0 0)
)
;
    }
    fixedWalls
    {
        type            extrapolatedCalculated;
        value           nonuniform List<tensor> 
60
(
(-7.79439e-09 5.3312e-06 0 1.3655e-09 2.02194e-10 0 0 0 0)
(1.32563e-08 -5.33039e-06 0 -6.04464e-09 -3.02112e-09 0 0 0 0)
(-3.19729e-08 5.31912e-06 0 5.27451e-09 5.88858e-09 0 0 0 0)
(3.43543e-08 -5.30684e-06 0 -7.7572e-10 -7.01256e-09 0 0 0 0)
(-3.50757e-08 5.29107e-06 0 -9.69385e-10 7.57413e-09 0 0 0 0)
(3.04766e-08 -5.27654e-06 0 2.16439e-09 -7.3507e-09 0 0 0 0)
(-2.6418e-08 5.26166e-06 0 -2.39609e-09 6.92577e-09 0 0 0 0)
(2.08922e-08 -5.24884e-06 0 2.33114e-09 -6.23477e-09 0 0 0 0)
(-1.70934e-08 5.23673e-06 0 -1.97178e-09 5.60711e-09 0 0 0 0)
(1.30052e-08 -5.22641e-06 0 1.57713e-09 -4.93452e-09 0 0 0 0)
(-1.0785e-08 5.21699e-06 0 -1.16338e-09 4.42938e-09 0 0 0 0)
(8.35176e-09 -5.20869e-06 0 8.20822e-10 -3.95321e-09 0 0 0 0)
(-7.50173e-09 5.20117e-06 0 -5.79099e-10 3.65668e-09 0 0 0 0)
(6.03531e-09 -5.19407e-06 0 3.84214e-10 -3.36316e-09 0 0 0 0)
(-5.96483e-09 5.18772e-06 0 -3.63967e-10 3.21619e-09 0 0 0 0)
(4.57954e-09 -5.1812e-06 0 2.26544e-10 -2.9854e-09 0 0 0 0)
(-5.05889e-09 5.17578e-06 0 -5.18764e-10 2.89912e-09 0 0 0 0)
(2.50475e-09 -5.16961e-06 0 9.72258e-11 -2.49702e-09 0 0 0 0)
(-4.67013e-09 5.16579e-06 0 -2.16472e-09 2.20677e-09 0 0 0 0)
(-6.15401e-09 -5.16078e-06 0 2.70606e-09 -1.25345e-09 0 0 0 0)
(0 -7.93802e-15 0 0 1.30844e-14 0 0 0 0)
(0 -4.43996e-14 0 0 2.0147e-14 0 0 0 0)
(0 -8.85261e-14 0 0 1.83774e-14 0 0 0 0)
(-4.44089e-14 -1.17909e-13 0 2.71051e-14 1.36123e-14 0 0 0 0)
(0 -1.42975e-13 0 -2.71051e-14 5.29448e-15 0 0 0 0)
(0 -1.39087e-13 0 0 -3.55834e-15 0 0 0 0)
(0 -1.28742e-13 0 0 -5.89763e-15 0 0 0 0)
(0 -1.15497e-13 0 0 -7.06205e-15 0 0 0 0)
(0 -1.00494e-13 0 0 -2.76709e-15 0 0 0 0)
(0 -1.04428e-13 0 0 -1.06762e-14 0 0 0 0)
(0 -5.77887e-14 0 0 -2.2127e-14 0 0 0 0)
(0 -1.59203e-14 0 0 -1.46437e-14 0 0 0 0)
(0 7.85895e-16 0 2.71051e-14 -1.10333e-14 0 0 0 0)
(-4.44089e-14 2.82128e-14 0 0 -1.04262e-14 0 0 0 0)
(0 4.24908e-14 0 -2.71051e-14 -4.03844e-15 0 0 0 0)
(0 4.43666e-14 0 0 -4.02397e-16 0 0 0 0)
(0 4.41004e-14 0 5.42101e-14 7.39432e-15 0 0 0 0)
(-1.77636e-13 1.47893e-14 0 0 8.28028e-15 0 0 0 0)
(0 1.09792e-14 0 -2.71051e-14 -1.72884e-15 0 0 0 0)
(-4.44089e-14 2.17047e-14 0 -2.71051e-14 8.17097e-15 0 0 0 0)
(-6.03684e-10 1.01636e-06 0 -7.79439e-09 5.3312e-06 0 0 0 0)
(1.4428e-09 -1.25759e-06 0 5.37965e-09 -1.26574e-06 0 0 0 0)
(-1.08266e-09 2.98596e-07 0 -2.02318e-09 3.00846e-07 0 0 0 0)
(4.56639e-10 -7.09603e-08 0 1.04894e-09 -7.13588e-08 0 0 0 0)
(-2.234e-10 1.68348e-08 0 -1.96554e-10 1.70052e-08 0 0 0 0)
(5.03612e-11 -4.00945e-09 0 1.55342e-10 -4.01976e-09 0 0 0 0)
(-3.06287e-11 9.49093e-10 0 4.92939e-12 9.67392e-10 0 0 0 0)
(1.92446e-12 -2.27505e-10 0 3.27738e-11 -2.23391e-10 0 0 0 0)
(-5.28549e-12 5.31144e-11 0 1.2701e-11 5.7374e-11 0 0 0 0)
(-1.35525e-12 -1.32272e-11 0 1.16351e-11 -1.09328e-11 0 0 0 0)
(-1.5992e-12 2.79605e-12 0 7.19425e-12 4.46513e-12 0 0 0 0)
(-8.94467e-13 -8.94139e-13 0 5.24025e-12 2.51408e-13 0 0 0 0)
(-7.58942e-13 5.15294e-14 0 3.59712e-12 8.8858e-13 0 0 0 0)
(-5.14996e-13 -1.25903e-13 0 2.30926e-12 4.57526e-13 0 0 0 0)
(-3.25261e-13 -3.85217e-14 0 1.55431e-12 3.8497e-13 0 0 0 0)
(-2.98156e-13 -5.04107e-14 0 8.88178e-13 3.03439e-13 0 0 0 0)
(-1.6263e-13 -5.24044e-14 0 4.44089e-13 1.83327e-13 0 0 0 0)
(-1.0842e-13 -3.31161e-14 0 1.33227e-13 9.38213e-14 0 0 0 0)
(-5.42101e-14 -2.14708e-14 0 4.44089e-14 5.08621e-14 0 0 0 0)
(0 -1.47e-14 0 0 7.93802e-15 0 0 0 0)
)
;
    }
    frontAndBack
    {
        type            empty;
    }
}


// ************************************************************************* //
