/*--------------------------------*- C++ -*----------------------------------*\
| =========                 |                                                 |
| \\      /  F ield         | OpenFOAM: The Open Source CFD Toolbox           |
|  \\    /   O peration     | Version:  2312                                  |
|   \\  /    A nd           | Website:  www.openfoam.com                      |
|    \\/     M anipulation  |                                                 |
\*---------------------------------------------------------------------------*/
FoamFile
{
    version     2.0;
    format      ascii;
    arch        "LSB;label=32;scalar=64";
    class       volScalarField;
    location    "4.5";
    object      initialResidual:p;
}
// * * * * * * * * * * * * * * * * * * * * * * * * * * * * * * * * * * * * * //

dimensions      [0 0 0 0 0 0 0];

internalField   nonuniform List<scalar> 
400
(
8.60712e-19
-3.4316e-18
2.57065e-18
-7.94915e-19
3.05234e-19
-1.22941e-19
3.53437e-20
-2.44262e-21
6.50176e-21
1.27086e-20
2.27238e-21
-1.88362e-20
-1.12468e-20
4.23987e-21
4.89363e-21
-1.56704e-21
-1.68683e-20
-4.90075e-21
2.40504e-20
-1.35557e-23
1.46338e-18
5.22866e-18
-8.96357e-19
2.11487e-19
-1.00999e-19
4.64756e-21
8.51521e-21
1.41008e-20
8.58757e-21
-6.35146e-22
9.43949e-22
-5.85285e-21
-5.854e-21
5.39988e-21
2.22127e-20
-9.26049e-22
3.32455e-21
-8.58176e-21
-1.04776e-20
-2.54257e-23
-1.08356e-18
-9.52109e-18
1.57413e-18
-3.3921e-19
1.60966e-19
-4.53582e-20
2.33884e-20
-1.52945e-21
6.96459e-21
-1.01679e-20
8.99218e-22
6.62767e-21
-5.29868e-21
-1.06378e-20
-8.12753e-21
-5.90288e-21
1.63259e-20
-8.40499e-21
2.07797e-21
1.35453e-20
3.48942e-18
8.76943e-18
-1.33851e-18
3.19008e-19
-1.44523e-19
3.59731e-20
-8.01881e-21
1.22171e-20
-2.97485e-22
-4.81604e-21
8.44517e-21
-4.55659e-21
-6.49923e-21
7.14686e-21
1.35591e-21
-7.15421e-21
-2.10539e-20
-3.86014e-21
1.14453e-20
-2.32228e-23
-4.79722e-18
-6.3976e-18
9.7038e-19
-1.32823e-19
1.01219e-19
-1.00279e-20
-2.94587e-21
-4.11601e-21
9.77335e-21
1.89487e-21
3.08375e-21
-1.36981e-21
-6.17477e-21
-4.63694e-21
-1.73932e-21
4.77318e-21
-3.77544e-20
-1.29348e-20
7.66037e-21
4.06579e-20
6.20037e-18
2.86014e-18
-2.68115e-19
4.56046e-20
-2.05123e-20
2.12359e-20
-1.38935e-21
1.01847e-20
-1.98777e-20
3.1854e-20
5.19812e-22
-4.3423e-21
1.82836e-20
-2.25725e-20
4.48684e-22
4.38712e-21
-1.392e-20
-7.54376e-21
1.75353e-20
-1.80001e-23
-7.2304e-18
2.10716e-19
-2.34642e-19
1.51487e-19
-1.90635e-20
2.54922e-20
-1.27134e-21
1.62933e-20
-5.54362e-21
1.28404e-20
-2.46274e-20
1.36658e-20
2.47794e-20
8.70054e-22
-3.69772e-22
-2.13843e-21
5.0144e-21
-1.63809e-20
-2.47734e-20
1.35604e-20
7.36629e-18
-2.94209e-18
7.48136e-19
-1.90235e-19
6.26275e-20
8.26638e-21
2.3691e-20
-2.34297e-20
-3.24665e-21
2.60781e-21
2.42777e-21
-1.25978e-20
2.11379e-20
-5.90304e-21
2.99379e-21
-1.48072e-21
-1.66385e-20
-3.76951e-21
7.88748e-21
-2.03395e-20
-7.373e-18
4.40028e-18
-1.01809e-18
2.73775e-19
-6.85428e-20
2.66489e-20
-2.68394e-20
1.51093e-20
1.9995e-20
-3.17986e-20
4.99069e-22
-3.04957e-21
5.23202e-22
-1.0034e-20
7.47596e-21
4.67866e-21
8.49314e-21
8.25821e-21
-1.84233e-20
1.35671e-20
6.79047e-18
-5.41e-18
1.24921e-18
-3.02341e-19
1.22445e-19
-3.04636e-20
1.94089e-20
-2.12618e-20
-8.45196e-21
2.86802e-20
-7.38414e-21
-7.32057e-21
1.66753e-21
-3.57778e-20
-2.22485e-21
-1.06749e-20
7.31275e-21
1.41517e-20
4.56378e-21
-2.25281e-24
-6.4176e-18
5.48794e-18
-1.24588e-18
3.13518e-19
-1.06565e-19
5.09572e-20
-1.38485e-20
-2.66654e-20
-1.50629e-20
9.93713e-21
-1.21099e-21
6.37632e-21
-1.93036e-20
-2.20432e-20
1.15157e-20
-1.56331e-21
-3.3278e-22
-1.5307e-20
1.15557e-20
6.79603e-21
6.01798e-18
-5.59507e-18
1.33805e-18
-3.27652e-19
1.35673e-19
-3.39254e-20
-9.48592e-21
-8.07317e-21
2.12504e-21
-2.02366e-20
-1.42569e-20
1.69424e-20
-1.44376e-20
-4.09039e-21
2.46074e-20
-3.17651e-21
-1.75052e-20
8.71072e-21
8.10761e-21
-2.03229e-20
-5.82124e-18
5.23033e-18
-1.26198e-18
2.95556e-19
-1.1672e-19
3.84407e-20
-8.50302e-21
-3.45059e-21
-6.90714e-21
-1.25015e-20
1.0904e-20
-1.84856e-20
1.12838e-20
-1.19565e-20
-8.85266e-23
8.76464e-21
-2.17296e-20
-1.26784e-20
1.80603e-20
6.79873e-21
5.73335e-18
-5.24129e-18
1.31063e-18
-3.18847e-19
1.22468e-19
-4.04694e-20
5.17762e-21
-9.85254e-21
-2.6731e-21
-5.79498e-21
6.81176e-21
-6.9334e-21
-1.26469e-20
-6.61921e-21
5.24598e-21
-1.20996e-20
1.32746e-20
-2.4982e-20
8.39169e-21
6.78875e-21
-5.66535e-18
4.85926e-18
-1.20595e-18
3.15151e-19
-1.49915e-19
4.78772e-20
1.79897e-22
-7.23084e-21
-1.04609e-20
1.63874e-20
-8.48387e-21
-1.89324e-20
7.01143e-21
5.07218e-21
6.7807e-22
-1.10288e-20
7.33263e-21
1.02111e-20
-2.00145e-20
2.20241e-23
5.46906e-18
-4.94957e-18
1.25073e-18
-3.15531e-19
1.10492e-19
-3.99742e-20
2.05487e-20
-1.97715e-20
-6.02508e-22
1.04379e-20
-1.75152e-20
-1.95851e-20
4.04362e-21
1.95265e-22
3.06833e-21
-6.97956e-22
3.54811e-21
-2.30037e-20
3.51487e-21
-1.35355e-20
-5.06223e-18
4.54339e-18
-1.13894e-18
2.74618e-19
-8.53857e-20
3.32147e-20
-3.61476e-20
-4.95522e-21
-7.24242e-21
-2.21719e-21
2.15195e-22
-6.77635e-22
-1.72283e-21
-1.1258e-20
-5.16295e-21
-8.88355e-22
1.15401e-20
1.89027e-20
-7.86416e-21
-1.35315e-20
4.6017e-18
-4.82235e-18
1.21343e-18
-3.15179e-19
1.06282e-19
-3.50322e-20
2.4028e-20
-6.65698e-21
-1.38612e-20
-4.83875e-21
-5.54973e-21
7.5635e-21
-4.90738e-21
-7.07506e-21
-1.09036e-20
6.70683e-21
-6.78754e-21
-1.21081e-20
7.99196e-21
-6.75647e-21
-2.78517e-18
3.87129e-18
-9.03285e-19
2.07205e-19
-6.99776e-20
8.16591e-21
6.5152e-22
-2.166e-21
-9.36357e-21
8.56234e-21
-2.0138e-20
-1.958e-21
-7.23321e-21
-9.08069e-22
-3.12783e-22
-2.6064e-21
2.3009e-21
-2.29312e-20
1.81828e-20
1.87258e-23
1.87738e-18
-4.8251e-18
2.83963e-18
-9.01335e-19
3.32104e-19
-9.48596e-20
4.74602e-20
-3.38618e-20
2.09962e-23
1.97908e-23
-2.70855e-20
1.91541e-23
-2.03099e-20
6.7948e-21
1.35699e-20
-6.76085e-21
-6.76146e-21
1.76794e-23
-6.75757e-21
2.58814e-26
)
;

boundaryField
{
    movingWall
    {
        type            zeroGradient;
    }
    fixedWalls
    {
        type            zeroGradient;
    }
    frontAndBack
    {
        type            empty;
    }
}


// ************************************************************************* //
