/*--------------------------------*- C++ -*----------------------------------*\
| =========                 |                                                 |
| \\      /  F ield         | OpenFOAM: The Open Source CFD Toolbox           |
|  \\    /   O peration     | Version:  2312                                  |
|   \\  /    A nd           | Website:  www.openfoam.com                      |
|    \\/     M anipulation  |                                                 |
\*---------------------------------------------------------------------------*/
FoamFile
{
    version     2.0;
    format      ascii;
    arch        "LSB;label=32;scalar=64";
    class       volScalarField;
    location    "4.5";
    object      initialResidual:Ux;
}
// * * * * * * * * * * * * * * * * * * * * * * * * * * * * * * * * * * * * * //

dimensions      [0 0 0 0 0 0 0];

internalField   nonuniform List<scalar> 
400
(
3.36574e-17
-2.77488e-17
1.04693e-17
-3.81504e-18
1.33492e-18
-3.25261e-19
2.03288e-19
2.03288e-20
6.09864e-20
6.09864e-20
7.45389e-20
9.48677e-20
4.06576e-20
1.35525e-20
4.74338e-20
2.03288e-20
3.38813e-20
1.35525e-20
6.77626e-21
-1.35525e-20
-3.83478e-17
1.61207e-17
-4.45201e-18
1.35525e-18
-1.82959e-19
1.35525e-19
2.03288e-20
5.42101e-20
6.09864e-20
7.45389e-20
6.09864e-20
5.42101e-20
5.42101e-20
2.71051e-20
2.71051e-20
4.06576e-20
3.38813e-20
-1.35525e-20
2.03288e-20
0
6.70283e-17
-2.55736e-17
7.94178e-18
-1.93801e-18
6.7085e-19
-6.77626e-20
1.35525e-19
6.09864e-20
6.77626e-20
6.09864e-20
6.77626e-20
4.06576e-20
3.38813e-20
1.35525e-20
3.38813e-20
6.77626e-21
-1.35525e-20
1.35525e-20
6.77626e-21
-1.35525e-20
-6.02862e-17
2.34662e-17
-6.76271e-18
1.999e-18
-3.04932e-19
2.30393e-19
6.77626e-20
8.80914e-20
4.74338e-20
6.09864e-20
4.74338e-20
6.09864e-20
6.77626e-20
6.77626e-21
1.35525e-20
5.42101e-20
2.71051e-20
-2.03288e-20
0
-2.71051e-20
4.46543e-17
-1.62292e-17
4.72983e-18
-1.10453e-18
3.79471e-19
2.71051e-20
8.80914e-20
6.77626e-20
5.42101e-20
3.38813e-20
6.09864e-20
3.38813e-20
6.77626e-21
3.38813e-20
3.38813e-20
4.74338e-20
2.71051e-20
-6.77626e-21
-3.38813e-20
-1.35525e-20
-2.36452e-17
8.40934e-18
-2.2836e-18
6.30193e-19
-1.35525e-20
6.77626e-20
8.13152e-20
8.80914e-20
4.06576e-20
4.06576e-20
4.06576e-20
6.77626e-21
6.77626e-20
3.38813e-20
2.71051e-20
4.06576e-20
6.77626e-21
0
0
-1.35525e-20
4.41013e-18
-3.998e-19
-2.64274e-19
1.69407e-19
-6.09864e-20
6.77626e-20
4.74338e-20
6.09864e-20
2.71051e-20
6.09864e-20
4.06576e-20
4.06576e-20
2.03288e-20
4.06576e-20
2.71051e-20
2.71051e-20
1.35525e-20
2.71051e-20
2.71051e-20
-1.35525e-20
1.20855e-17
-5.67173e-18
1.93124e-18
-6.09864e-19
2.30393e-19
-2.03288e-20
4.06576e-20
7.45389e-20
2.71051e-20
4.06576e-20
4.74338e-20
4.06576e-20
1.35525e-20
2.03288e-20
2.71051e-20
0
6.77626e-21
6.77626e-21
-2.71051e-20
1.35525e-20
-2.18141e-17
9.70361e-18
-3.25938e-18
1.00966e-18
-3.04932e-19
1.35525e-19
0
6.77626e-21
3.38813e-20
3.38813e-20
4.06576e-20
0
6.77626e-21
2.71051e-20
2.03288e-20
0
-6.77626e-21
4.74338e-20
2.03288e-20
-1.35525e-20
2.88903e-17
-1.21431e-17
3.78793e-18
-1.17907e-18
3.32037e-19
-6.77626e-20
5.42101e-20
2.03288e-20
1.35525e-20
2.03288e-20
3.38813e-20
1.35525e-20
5.42101e-20
-2.03288e-20
1.35525e-20
1.35525e-20
-1.35525e-20
-1.35525e-20
0
-1.35525e-20
-3.00778e-17
1.28071e-17
-4.05898e-18
1.24683e-18
-3.998e-19
1.21973e-19
-2.03288e-20
2.71051e-20
-1.35525e-20
1.35525e-20
1.35525e-20
3.38813e-20
2.71051e-20
6.77626e-21
-2.03288e-20
-6.77626e-21
1.35525e-20
0
-1.35525e-20
1.35525e-20
3.14502e-17
-1.31256e-17
4.03188e-18
-1.26716e-18
3.32037e-19
-5.42101e-20
5.42101e-20
2.71051e-20
2.03288e-20
6.77626e-21
-1.35525e-20
3.38813e-20
2.03288e-20
-2.03288e-20
0
2.71051e-20
1.35525e-20
-4.06576e-20
6.77626e-21
0
-2.95685e-17
1.25903e-17
-3.92346e-18
1.1994e-18
-3.04932e-19
8.13152e-20
-1.35525e-20
2.03288e-20
2.71051e-20
-2.71051e-20
0
1.35525e-20
-6.77626e-21
2.03288e-20
-6.77626e-21
-1.35525e-20
6.77626e-21
-1.35525e-20
-6.77626e-21
0
2.9776e-17
-1.257e-17
3.85569e-18
-1.17229e-18
3.25261e-19
-1.0842e-19
2.03288e-20
0
6.77626e-21
-6.77626e-21
-1.35525e-20
-1.35525e-20
-2.03288e-20
2.71051e-20
2.03288e-20
-3.38813e-20
3.38813e-20
0
-1.35525e-20
-1.35525e-20
-2.76024e-17
1.18856e-17
-3.69306e-18
1.13841e-18
-3.32037e-19
6.09864e-20
-6.77626e-21
3.38813e-20
-4.74338e-20
6.77626e-21
1.35525e-20
2.03288e-20
-4.74338e-20
-6.77626e-21
-3.38813e-20
-1.35525e-20
2.03288e-20
0
-6.77626e-21
0
2.84385e-17
-1.20143e-17
3.67951e-18
-1.12486e-18
2.84603e-19
-1.15196e-19
2.71051e-20
-3.38813e-20
0
2.03288e-20
-2.03288e-20
-6.77626e-21
-2.03288e-20
-3.38813e-20
6.77626e-21
-2.71051e-20
2.03288e-20
1.35525e-20
-2.03288e-20
0
-2.58749e-17
1.1147e-17
-3.45589e-18
1.00966e-18
-3.32037e-19
6.77626e-20
-1.35525e-20
0
-1.35525e-20
-1.35525e-20
-6.77626e-21
1.35525e-20
6.77626e-21
1.35525e-20
0
-2.71051e-20
0
0
2.03288e-20
1.35525e-20
2.89636e-17
-1.19262e-17
3.60497e-18
-1.13164e-18
2.64274e-19
-1.35525e-19
-6.77626e-21
-2.03288e-20
-3.38813e-20
-1.35525e-20
-1.35525e-20
-2.03288e-20
-6.77626e-21
6.77626e-21
0
-1.35525e-20
6.77626e-21
-2.71051e-20
0
0
-2.4066e-17
1.04964e-17
-3.1984e-18
7.92823e-19
-2.98156e-19
6.77626e-21
-6.77626e-20
-4.06576e-20
-3.38813e-20
6.77626e-21
-3.38813e-20
-2.03288e-20
-6.77626e-21
-2.03288e-20
2.03288e-20
-2.03288e-20
-1.35525e-20
6.77626e-21
-1.35525e-20
-1.35525e-20
4.21484e-17
-3.1015e-17
1.14519e-17
-4.30293e-18
1.27394e-18
-4.81115e-19
1.01644e-19
-6.09864e-20
-2.71051e-20
6.77626e-21
-6.77626e-21
-1.35525e-20
-6.77626e-21
-3.38813e-20
-1.35525e-20
-2.03288e-20
1.35525e-20
-2.03288e-20
6.77626e-21
0
)
;

boundaryField
{
    movingWall
    {
        type            zeroGradient;
    }
    fixedWalls
    {
        type            zeroGradient;
    }
    frontAndBack
    {
        type            empty;
    }
}


// ************************************************************************* //
