/*--------------------------------*- C++ -*----------------------------------*\
| =========                 |                                                 |
| \\      /  F ield         | OpenFOAM: The Open Source CFD Toolbox           |
|  \\    /   O peration     | Version:  2312                                  |
|   \\  /    A nd           | Website:  www.openfoam.com                      |
|    \\/     M anipulation  |                                                 |
\*---------------------------------------------------------------------------*/
FoamFile
{
    version     2.0;
    format      ascii;
    arch        "LSB;label=32;scalar=64";
    class       volScalarField;
    location    "4.5";
    object      initialResidual:Uy;
}
// * * * * * * * * * * * * * * * * * * * * * * * * * * * * * * * * * * * * * //

dimensions      [0 0 0 0 0 0 0];

internalField   nonuniform List<scalar> 
400
(
-1.28362e-14
5.50068e-15
-1.30673e-15
3.10296e-16
-7.3758e-17
1.75192e-17
-4.16172e-18
9.96079e-19
-2.31122e-19
6.02771e-20
-1.20001e-20
2.73792e-21
-2.02575e-21
8.41272e-22
4.5475e-21
2.47535e-21
-3.01876e-21
5.41114e-21
1.14745e-20
7.88401e-22
1.28383e-14
-5.49994e-15
1.305e-15
-3.09764e-16
7.34487e-17
-1.743e-17
4.13609e-18
-9.67398e-19
2.46136e-19
-4.1388e-20
1.78181e-20
1.87349e-21
3.96449e-21
6.65949e-21
1.1274e-20
8.33596e-21
3.59969e-21
1.18704e-20
1.82841e-20
3.61854e-21
-1.28021e-14
5.48203e-15
-1.30084e-15
3.08632e-16
-7.32515e-17
1.73867e-17
-4.11127e-18
9.99571e-19
-2.08836e-19
7.56768e-20
-6.23152e-22
1.17157e-20
5.98813e-21
1.20739e-20
1.8058e-20
2.26477e-20
1.5037e-20
1.05214e-20
2.19235e-20
8.5761e-21
1.27679e-14
-5.4646e-15
1.29624e-15
-3.07333e-16
7.29294e-17
-1.72547e-17
4.13739e-18
-9.38283e-19
2.57688e-19
-3.48129e-20
3.25589e-20
1.23434e-20
1.91518e-20
2.388e-20
2.20118e-20
2.80445e-20
2.24604e-20
9.91271e-21
2.66542e-20
1.14231e-20
-1.27292e-14
5.44777e-15
-1.29157e-15
3.06401e-16
-7.25518e-17
1.72772e-17
-4.03064e-18
1.01228e-18
-1.9606e-19
8.46595e-20
1.33345e-20
2.5595e-20
3.36804e-20
3.77603e-20
2.56575e-20
1.70924e-20
1.77603e-20
1.40983e-20
3.92063e-20
1.50523e-20
1.27002e-14
-5.43446e-15
1.28872e-15
-3.05412e-16
7.25222e-17
-1.71043e-17
4.12805e-18
-9.13431e-19
2.75101e-19
-3.72642e-21
5.72098e-20
2.32533e-20
2.57925e-20
2.90016e-20
3.35401e-20
2.23188e-20
1.14153e-20
1.90983e-20
5.17578e-20
1.84736e-20
-1.26728e-14
5.42344e-15
-1.28575e-15
3.05033e-16
-7.21925e-17
1.72175e-17
-3.99481e-18
1.026e-18
-1.7166e-19
1.06435e-19
4.16421e-20
4.61108e-20
2.40183e-20
2.51543e-20
3.25036e-20
2.88637e-20
1.98889e-20
2.09477e-20
5.17483e-20
1.98539e-20
1.26559e-14
-5.41616e-15
1.28445e-15
-3.04438e-16
7.23085e-17
-1.70368e-17
4.13668e-18
-8.88734e-19
2.96471e-19
-3.20182e-21
5.71734e-20
4.56801e-20
4.55356e-20
3.42305e-20
2.76937e-20
2.69554e-20
2.68713e-20
1.88145e-20
4.86748e-20
1.89927e-20
-1.26411e-14
5.41061e-15
-1.28298e-15
3.04394e-16
-7.20618e-17
1.71976e-17
-3.9827e-18
1.04091e-18
-1.58536e-19
1.08722e-19
3.33579e-20
4.83056e-20
5.00347e-20
4.54996e-20
3.83432e-20
3.28881e-20
2.16895e-20
1.58638e-20
4.52349e-20
1.84906e-20
1.26334e-14
-5.40743e-15
1.28255e-15
-3.04067e-16
7.22164e-17
-1.70217e-17
4.14386e-18
-8.84279e-19
2.95519e-19
8.24089e-21
6.98307e-20
4.48099e-20
4.16513e-20
3.6477e-20
3.75898e-20
3.72558e-20
2.59526e-20
1.77709e-20
5.06915e-20
2.18694e-20
-1.26262e-14
5.40484e-15
-1.28182e-15
3.04122e-16
-7.20214e-17
1.71961e-17
-3.97331e-18
1.02676e-18
-1.664e-19
1.14369e-19
3.90043e-20
4.83441e-20
3.72806e-20
3.18928e-20
3.14122e-20
3.56869e-20
2.84694e-20
2.20629e-20
5.52276e-20
2.16738e-20
1.26216e-14
-5.40283e-15
1.28157e-15
-3.03854e-16
7.21824e-17
-1.70207e-17
4.11923e-18
-9.05548e-19
2.81099e-19
-1.64003e-21
6.58223e-20
4.67843e-20
3.82402e-20
3.49528e-20
3.46495e-20
3.48e-20
2.75702e-20
2.39318e-20
4.96408e-20
1.81116e-20
-1.26162e-14
5.40074e-15
-1.2809e-15
3.03906e-16
-7.19847e-17
1.71637e-17
-3.99353e-18
1.01944e-18
-1.76089e-19
9.94897e-20
3.51446e-20
5.58605e-20
3.72957e-20
2.88739e-20
2.62353e-20
3.24775e-20
3.14053e-20
2.75462e-20
4.98437e-20
1.70812e-20
1.26107e-14
-5.39817e-15
1.28047e-15
-3.0361e-16
7.21065e-17
-1.70169e-17
4.11366e-18
-9.05246e-19
2.79964e-19
-4.90888e-21
5.17576e-20
2.83746e-20
3.1988e-20
2.99124e-20
2.85586e-20
2.88052e-20
1.86915e-20
2.25315e-20
5.44623e-20
1.7204e-20
-1.26047e-14
5.39571e-15
-1.27968e-15
3.03601e-16
-7.19279e-17
1.71369e-17
-3.99111e-18
1.01687e-18
-1.75452e-19
1.03131e-19
2.62466e-20
2.70584e-20
2.68083e-20
3.3648e-20
2.98261e-20
2.1346e-20
1.30296e-20
1.26156e-20
4.16669e-20
1.64389e-20
1.25978e-14
-5.39255e-15
1.27912e-15
-3.03285e-16
7.20149e-17
-1.70026e-17
4.10881e-18
-9.0793e-19
2.70638e-19
-1.83543e-20
4.89166e-20
3.11561e-20
3.20296e-20
2.80349e-20
2.13371e-20
1.33263e-20
1.08938e-20
8.63511e-21
3.10866e-20
1.37071e-20
-1.25927e-14
5.39042e-15
-1.27835e-15
3.0329e-16
-7.18418e-17
1.71091e-17
-3.9923e-18
9.99204e-19
-1.94574e-19
8.54059e-20
1.39919e-20
3.00313e-20
2.37524e-20
2.03475e-20
2.12775e-20
1.60256e-20
9.35366e-21
8.42251e-21
2.47461e-20
8.18145e-21
1.25863e-14
-5.38745e-15
1.27803e-15
-3.03006e-16
7.19724e-17
-1.70048e-17
4.0852e-18
-9.31421e-19
2.55403e-19
-3.09211e-20
3.06158e-20
1.50083e-20
2.24649e-20
1.73928e-20
1.41583e-20
1.12942e-20
9.81577e-21
1.01195e-20
1.78529e-20
4.77732e-21
-1.25858e-14
5.38751e-15
-1.27719e-15
3.02884e-16
-7.17066e-17
1.70423e-17
-3.99911e-18
9.7611e-19
-2.08747e-19
6.79802e-20
1.35608e-22
1.06777e-20
1.10753e-20
1.18988e-20
9.6504e-21
5.01306e-21
2.79095e-21
6.78462e-21
1.13329e-20
2.65209e-21
1.25722e-14
-5.38548e-15
1.27833e-15
-3.03391e-16
7.207e-17
-1.71029e-17
4.07667e-18
-9.56482e-19
2.35253e-19
-4.99068e-20
1.61635e-20
-3.91617e-21
1.55911e-21
4.0589e-21
7.48137e-21
3.16692e-21
-7.22962e-22
1.53342e-21
3.26967e-21
6.27986e-22
)
;

boundaryField
{
    movingWall
    {
        type            zeroGradient;
    }
    fixedWalls
    {
        type            zeroGradient;
    }
    frontAndBack
    {
        type            empty;
    }
}


// ************************************************************************* //
