/*--------------------------------*- C++ -*----------------------------------*\
| =========                 |                                                 |
| \\      /  F ield         | OpenFOAM: The Open Source CFD Toolbox           |
|  \\    /   O peration     | Version:  2312                                  |
|   \\  /    A nd           | Website:  www.openfoam.com                      |
|    \\/     M anipulation  |                                                 |
\*---------------------------------------------------------------------------*/
FoamFile
{
    version     2.0;
    format      ascii;
    arch        "LSB;label=32;scalar=64";
    class       volScalarField;
    location    "4.5";
    object      initialResidual:k;
}
// * * * * * * * * * * * * * * * * * * * * * * * * * * * * * * * * * * * * * //

dimensions      [0 0 0 0 0 0 0];

internalField   nonuniform List<scalar> 
400
(
-3.1127e-12
-3.11255e-12
-3.11222e-12
-3.11234e-12
-3.11246e-12
-3.11236e-12
-3.11389e-12
-3.1109e-12
-3.11452e-12
-3.10962e-12
-3.11538e-12
-3.10913e-12
-3.11519e-12
-3.10977e-12
-3.11418e-12
-3.11106e-12
-3.11296e-12
-3.11198e-12
-3.11234e-12
-3.11231e-12
-4.05937e-12
-4.05836e-12
-4.0605e-12
-4.0553e-12
-4.05904e-12
-4.0548e-12
-4.05789e-12
-4.0531e-12
-4.05724e-12
-4.05155e-12
-4.05529e-12
-4.05207e-12
-4.05414e-12
-4.05106e-12
-4.0533e-12
-4.05167e-12
-4.05234e-12
-4.05179e-12
-4.05171e-12
-4.0516e-12
-5.22294e-12
-5.21932e-12
-5.22181e-12
-5.22069e-12
-5.21979e-12
-5.21385e-12
-5.22004e-12
-5.21117e-12
-5.21968e-12
-5.20874e-12
-5.21883e-12
-5.20774e-12
-5.21188e-12
-5.21172e-12
-5.21086e-12
-5.21115e-12
-5.21098e-12
-5.21001e-12
-5.21084e-12
-5.21014e-12
-6.11105e-12
-6.12025e-12
-6.1054e-12
-6.10085e-12
-6.11141e-12
-6.09795e-12
-6.10974e-12
-6.09605e-12
-6.1073e-12
-6.09589e-12
-6.101e-12
-6.09573e-12
-6.09597e-12
-6.09662e-12
-6.09711e-12
-6.09547e-12
-6.0965e-12
-6.0976e-12
-6.09408e-12
-6.09512e-12
-6.66488e-12
-6.65119e-12
-6.67276e-12
-6.65695e-12
-6.66354e-12
-6.64916e-12
-6.6624e-12
-6.64562e-12
-6.65941e-12
-6.64404e-12
-6.65529e-12
-6.64447e-12
-6.66622e-12
-6.63098e-12
-6.6619e-12
-6.63213e-12
-6.65133e-12
-6.63988e-12
-6.6449e-12
-6.64522e-12
-6.97728e-12
-6.96845e-12
-6.98088e-12
-6.9715e-12
-6.97184e-12
-6.97447e-12
-6.96086e-12
-6.98182e-12
-6.9508e-12
-6.97011e-12
-6.95504e-12
-6.96497e-12
-6.95674e-12
-6.959e-12
-6.95774e-12
-6.95789e-12
-6.95771e-12
-6.95744e-12
-6.95727e-12
-6.95712e-12
-7.15181e-12
-7.16982e-12
-7.14245e-12
-7.14104e-12
-7.15295e-12
-7.13633e-12
-7.15067e-12
-7.13301e-12
-7.14594e-12
-7.13228e-12
-7.1425e-12
-7.13271e-12
-7.1355e-12
-7.13325e-12
-7.13334e-12
-7.13274e-12
-7.13331e-12
-7.13482e-12
-7.13074e-12
-7.1319e-12
-7.25858e-12
-7.25166e-12
-7.26238e-12
-7.24881e-12
-7.25771e-12
-7.24111e-12
-7.2574e-12
-7.23657e-12
-7.25379e-12
-7.23555e-12
-7.25005e-12
-7.23498e-12
-7.26019e-12
-7.22092e-12
-7.25486e-12
-7.22259e-12
-7.24298e-12
-7.23101e-12
-7.23636e-12
-7.23664e-12
-7.33257e-12
-7.30297e-12
-7.34929e-12
-7.32326e-12
-7.32765e-12
-7.3188e-12
-7.32425e-12
-7.31374e-12
-7.31955e-12
-7.3126e-12
-7.31673e-12
-7.31449e-12
-7.31063e-12
-7.31337e-12
-7.30774e-12
-7.31143e-12
-7.30752e-12
-7.30907e-12
-7.30844e-12
-7.30863e-12
-7.38734e-12
-7.41282e-12
-7.37168e-12
-7.37665e-12
-7.39053e-12
-7.37109e-12
-7.38883e-12
-7.36585e-12
-7.3838e-12
-7.36654e-12
-7.3779e-12
-7.36617e-12
-7.38701e-12
-7.35449e-12
-7.38093e-12
-7.35738e-12
-7.37246e-12
-7.36259e-12
-7.36707e-12
-7.367e-12
-7.4416e-12
-7.4292e-12
-7.45071e-12
-7.46179e-12
-7.42055e-12
-7.43645e-12
-7.43031e-12
-7.42694e-12
-7.43294e-12
-7.43055e-12
-7.42575e-12
-7.42816e-12
-7.42243e-12
-7.42508e-12
-7.42211e-12
-7.42348e-12
-7.42152e-12
-7.42191e-12
-7.42155e-12
-7.42149e-12
-7.49983e-12
-7.50175e-12
-7.49889e-12
-7.49127e-12
-7.50014e-12
-7.48274e-12
-7.4996e-12
-7.47629e-12
-7.49543e-12
-7.47627e-12
-7.4889e-12
-7.47753e-12
-7.50032e-12
-7.46193e-12
-7.49107e-12
-7.46772e-12
-7.47724e-12
-7.47786e-12
-7.47744e-12
-7.47739e-12
-7.55893e-12
-7.58557e-12
-7.54139e-12
-7.54732e-12
-7.56298e-12
-7.54154e-12
-7.56215e-12
-7.53632e-12
-7.55733e-12
-7.53709e-12
-7.56364e-12
-7.52519e-12
-7.54632e-12
-7.53393e-12
-7.54254e-12
-7.53748e-12
-7.54067e-12
-7.53613e-12
-7.53879e-12
-7.53798e-12
-7.62784e-12
-7.64002e-12
-7.61617e-12
-7.63738e-12
-7.61021e-12
-7.61312e-12
-7.62252e-12
-7.61056e-12
-7.61864e-12
-7.60897e-12
-7.61478e-12
-7.6133e-12
-7.60779e-12
-7.61105e-12
-7.60557e-12
-7.60555e-12
-7.60731e-12
-7.60614e-12
-7.60622e-12
-7.60582e-12
-7.71029e-12
-7.6874e-12
-7.72142e-12
-7.70091e-12
-7.70617e-12
-7.68861e-12
-7.70546e-12
-7.68436e-12
-7.70157e-12
-7.68187e-12
-7.69946e-12
-7.67811e-12
-7.71487e-12
-7.6599e-12
-7.70592e-12
-7.66657e-12
-7.68753e-12
-7.67946e-12
-7.68352e-12
-7.68343e-12
-7.7979e-12
-7.78418e-12
-7.80917e-12
-7.7851e-12
-7.79465e-12
-7.78459e-12
-7.79061e-12
-7.78009e-12
-7.78679e-12
-7.77733e-12
-7.78387e-12
-7.7741e-12
-7.77943e-12
-7.77498e-12
-7.77753e-12
-7.77722e-12
-7.77298e-12
-7.77428e-12
-7.77346e-12
-7.77367e-12
-7.90046e-12
-7.93089e-12
-7.87997e-12
-7.89494e-12
-7.89775e-12
-7.88433e-12
-7.90322e-12
-7.87757e-12
-7.89894e-12
-7.87661e-12
-7.89161e-12
-7.87899e-12
-7.88972e-12
-7.87323e-12
-7.87952e-12
-7.88032e-12
-7.88001e-12
-7.87726e-12
-7.87937e-12
-7.87829e-12
-8.0186e-12
-7.99901e-12
-8.02681e-12
-8.02143e-12
-8.00466e-12
-8.01827e-12
-7.99778e-12
-8.00822e-12
-7.99813e-12
-7.99799e-12
-7.99915e-12
-8.00336e-12
-7.99197e-12
-8.00085e-12
-7.99026e-12
-7.99525e-12
-7.99208e-12
-7.99319e-12
-7.99277e-12
-7.99281e-12
-8.12521e-12
-8.09166e-12
-8.148e-12
-8.11475e-12
-8.12071e-12
-8.11059e-12
-8.11367e-12
-8.11206e-12
-8.10994e-12
-8.10106e-12
-8.11024e-12
-8.09952e-12
-8.10627e-12
-8.10239e-12
-8.10054e-12
-8.10065e-12
-8.09896e-12
-8.0993e-12
-8.09891e-12
-8.0989e-12
-8.16547e-12
-8.16332e-12
-8.17114e-12
-8.16019e-12
-8.17087e-12
-8.15921e-12
-8.17085e-12
-8.15936e-12
-8.17012e-12
-8.16079e-12
-8.1685e-12
-8.16271e-12
-8.16628e-12
-8.16453e-12
-8.16519e-12
-8.16527e-12
-8.16515e-12
-8.16516e-12
-8.16514e-12
-8.16514e-12
)
;

boundaryField
{
    movingWall
    {
        type            zeroGradient;
    }
    fixedWalls
    {
        type            zeroGradient;
    }
    frontAndBack
    {
        type            empty;
    }
}


// ************************************************************************* //
