/*--------------------------------*- C++ -*----------------------------------*\
| =========                 |                                                 |
| \\      /  F ield         | OpenFOAM: The Open Source CFD Toolbox           |
|  \\    /   O peration     | Version:  2312                                  |
|   \\  /    A nd           | Website:  www.openfoam.com                      |
|    \\/     M anipulation  |                                                 |
\*---------------------------------------------------------------------------*/
FoamFile
{
    version     2.0;
    format      ascii;
    arch        "LSB;label=32;scalar=64";
    class       volScalarField;
    location    "4.5";
    object      initialResidual:epsilon;
}
// * * * * * * * * * * * * * * * * * * * * * * * * * * * * * * * * * * * * * //

dimensions      [0 0 0 0 0 0 0];

internalField   nonuniform List<scalar> 
400
(
0
0
0
0
0
0
0
0
0
0
0
0
0
0
0
0
0
0
0
0
0
-4.49094e-12
-4.46173e-12
-4.47793e-12
-4.49112e-12
-4.49732e-12
-4.50609e-12
-4.51519e-12
-4.52264e-12
-4.53228e-12
-4.54079e-12
-4.54895e-12
-4.55987e-12
-4.56589e-12
-4.57904e-12
-4.58346e-12
-4.59794e-12
-4.60197e-12
-9.20869e-12
0
0
-6.17799e-12
-6.1329e-12
-6.1581e-12
-6.17843e-12
-6.18773e-12
-6.201e-12
-6.21481e-12
-6.226e-12
-6.24061e-12
-6.25341e-12
-6.26575e-12
-6.28207e-12
-6.29121e-12
-6.31093e-12
-6.31747e-12
-6.33927e-12
-6.34511e-12
-1.27062e-11
0
0
-7.58884e-12
-7.53506e-12
-7.56652e-12
-7.59258e-12
-7.60472e-12
-7.62222e-12
-7.63999e-12
-7.65487e-12
-7.67372e-12
-7.69061e-12
-7.70661e-12
-7.72804e-12
-7.73999e-12
-7.76571e-12
-7.77451e-12
-7.8028e-12
-7.81079e-12
-1.56417e-11
0
0
-8.52125e-12
-8.46008e-12
-8.49638e-12
-8.52664e-12
-8.54073e-12
-8.56115e-12
-8.58172e-12
-8.59912e-12
-8.62104e-12
-8.6406e-12
-8.65949e-12
-8.68411e-12
-8.69852e-12
-8.72797e-12
-8.7388e-12
-8.77127e-12
-8.78111e-12
-1.75855e-11
0
0
-9.06962e-12
-9.00513e-12
-9.04397e-12
-9.07664e-12
-9.09191e-12
-9.1142e-12
-9.13625e-12
-9.15552e-12
-9.17888e-12
-9.20055e-12
-9.22065e-12
-9.24776e-12
-9.26309e-12
-9.29531e-12
-9.30695e-12
-9.34231e-12
-9.35302e-12
-1.87316e-11
0
0
-9.3825e-12
-9.31772e-12
-9.35749e-12
-9.39137e-12
-9.40729e-12
-9.43066e-12
-9.45369e-12
-9.47375e-12
-9.4983e-12
-9.52086e-12
-9.54197e-12
-9.57028e-12
-9.5863e-12
-9.62004e-12
-9.63221e-12
-9.66917e-12
-9.68046e-12
-1.93878e-11
0
0
-9.57333e-12
-9.50484e-12
-9.54629e-12
-9.58132e-12
-9.59767e-12
-9.62161e-12
-9.6453e-12
-9.66581e-12
-9.69115e-12
-9.71404e-12
-9.73607e-12
-9.76464e-12
-9.78167e-12
-9.81572e-12
-9.82874e-12
-9.86625e-12
-9.87816e-12
-1.97838e-11
0
0
-9.70396e-12
-9.63326e-12
-9.67582e-12
-9.7115e-12
-9.72812e-12
-9.75247e-12
-9.77652e-12
-9.79752e-12
-9.82302e-12
-9.84673e-12
-9.86862e-12
-9.89829e-12
-9.91501e-12
-9.95024e-12
-9.96299e-12
-1.00016e-11
-1.00134e-11
-2.0055e-11
0
0
-9.80701e-12
-9.73825e-12
-9.78036e-12
-9.81637e-12
-9.83313e-12
-9.85794e-12
-9.88217e-12
-9.90348e-12
-9.92948e-12
-9.95325e-12
-9.97572e-12
-1.00055e-11
-1.00227e-11
-1.00582e-11
-1.00714e-11
-1.01102e-11
-1.01226e-11
-2.02734e-11
0
0
-9.90676e-12
-9.83283e-12
-9.87686e-12
-9.91383e-12
-9.93064e-12
-9.95581e-12
-9.98031e-12
-1.0002e-11
-1.00281e-11
-1.00524e-11
-1.0075e-11
-1.01053e-11
-1.01226e-11
-1.01586e-11
-1.01719e-11
-1.02113e-11
-1.02236e-11
-2.04761e-11
0
0
-1.00027e-11
-9.93399e-12
-9.97669e-12
-1.00134e-11
-1.00306e-11
-1.0056e-11
-1.00808e-11
-1.01028e-11
-1.01293e-11
-1.01537e-11
-1.01768e-11
-1.02072e-11
-1.02251e-11
-1.02612e-11
-1.02749e-11
-1.03147e-11
-1.03273e-11
-2.06836e-11
0
0
-1.01099e-11
-1.00416e-11
-1.00844e-11
-1.01215e-11
-1.01389e-11
-1.01648e-11
-1.01898e-11
-1.02121e-11
-1.0239e-11
-1.02637e-11
-1.02872e-11
-1.03179e-11
-1.0336e-11
-1.03727e-11
-1.03865e-11
-1.04269e-11
-1.04396e-11
-2.09086e-11
0
0
-1.02312e-11
-1.01614e-11
-1.0205e-11
-1.02427e-11
-1.02604e-11
-1.02866e-11
-1.03121e-11
-1.03348e-11
-1.03618e-11
-1.03872e-11
-1.04107e-11
-1.04422e-11
-1.04604e-11
-1.04977e-11
-1.05117e-11
-1.05527e-11
-1.05657e-11
-2.11611e-11
0
0
-1.03711e-11
-1.02985e-11
-1.03434e-11
-1.03818e-11
-1.03998e-11
-1.04264e-11
-1.04523e-11
-1.04754e-11
-1.05029e-11
-1.05287e-11
-1.05526e-11
-1.05846e-11
-1.06032e-11
-1.0641e-11
-1.06555e-11
-1.06969e-11
-1.07103e-11
-2.14506e-11
0
0
-1.05317e-11
-1.04594e-11
-1.05047e-11
-1.05435e-11
-1.0562e-11
-1.05891e-11
-1.06155e-11
-1.06391e-11
-1.06671e-11
-1.06935e-11
-1.07177e-11
-1.07504e-11
-1.07692e-11
-1.0808e-11
-1.08225e-11
-1.08649e-11
-1.08785e-11
-2.17876e-11
0
0
-1.07176e-11
-1.06458e-11
-1.06913e-11
-1.0731e-11
-1.07497e-11
-1.07777e-11
-1.08043e-11
-1.08286e-11
-1.08572e-11
-1.0884e-11
-1.09091e-11
-1.09421e-11
-1.09617e-11
-1.1001e-11
-1.10162e-11
-1.10593e-11
-1.10734e-11
-2.21777e-11
0
0
-1.09216e-11
-1.08485e-11
-1.0895e-11
-1.09355e-11
-1.09546e-11
-1.09833e-11
-1.10104e-11
-1.10354e-11
-1.10644e-11
-1.10922e-11
-1.11174e-11
-1.11517e-11
-1.11714e-11
-1.12118e-11
-1.12273e-11
-1.12713e-11
-1.12858e-11
-2.26031e-11
0
0
-1.11615e-11
-1.10661e-11
-1.11193e-11
-1.11608e-11
-1.11802e-11
-1.12068e-11
-1.12358e-11
-1.12583e-11
-1.12893e-11
-1.13151e-11
-1.13418e-11
-1.13753e-11
-1.13955e-11
-1.14363e-11
-1.14513e-11
-1.14968e-11
-1.15105e-11
-2.30246e-11
0
0
0
0
0
0
0
0
0
0
0
0
0
0
0
0
0
0
0
0
0
)
;

boundaryField
{
    movingWall
    {
        type            zeroGradient;
    }
    fixedWalls
    {
        type            zeroGradient;
    }
    frontAndBack
    {
        type            empty;
    }
}


// ************************************************************************* //
