/*--------------------------------*- C++ -*----------------------------------*\
| =========                 |                                                 |
| \\      /  F ield         | OpenFOAM: The Open Source CFD Toolbox           |
|  \\    /   O peration     | Version:  2312                                  |
|   \\  /    A nd           | Website:  www.openfoam.com                      |
|    \\/     M anipulation  |                                                 |
\*---------------------------------------------------------------------------*/
FoamFile
{
    version     2.0;
    format      ascii;
    arch        "LSB;label=32;scalar=64";
    class       volScalarField;
    location    "4.5";
    object      L_P;
}
// * * * * * * * * * * * * * * * * * * * * * * * * * * * * * * * * * * * * * //

dimensions      [0 0 0 0 0 0 0];

internalField   nonuniform List<scalar> 
400
(
-175.473
-175.473
-175.473
-175.473
-175.473
-175.473
-175.473
-175.473
-175.473
-175.473
-175.473
-175.473
-175.473
-175.473
-175.473
-175.473
-175.473
-175.473
-175.473
-175.473
-173.28
-173.402
-173.394
-173.39
-173.383
-173.38
-173.373
-173.369
-173.362
-173.358
-173.35
-173.346
-173.338
-173.334
-173.326
-173.321
-173.313
-173.308
-173.304
-173.297
-170.824
-170.957
-170.948
-170.944
-170.937
-170.933
-170.925
-170.921
-170.913
-170.909
-170.901
-170.896
-170.888
-170.883
-170.874
-170.869
-170.86
-170.855
-170.851
-170.843
-169.062
-169.203
-169.194
-169.191
-169.183
-169.179
-169.171
-169.166
-169.158
-169.153
-169.145
-169.14
-169.131
-169.126
-169.117
-169.112
-169.102
-169.097
-169.092
-169.084
-167.999
-168.145
-168.135
-168.132
-168.124
-168.12
-168.111
-168.107
-168.098
-168.094
-168.085
-168.08
-168.07
-168.065
-168.056
-168.05
-168.041
-168.035
-168.03
-168.022
-167.4
-167.549
-167.54
-167.536
-167.528
-167.523
-167.515
-167.51
-167.502
-167.497
-167.488
-167.483
-167.474
-167.468
-167.459
-167.453
-167.443
-167.437
-167.432
-167.424
-167.066
-167.217
-167.208
-167.204
-167.196
-167.191
-167.183
-167.178
-167.17
-167.165
-167.156
-167.151
-167.141
-167.136
-167.126
-167.12
-167.11
-167.104
-167.099
-167.091
-166.871
-167.022
-167.013
-167.009
-167.001
-166.997
-166.988
-166.984
-166.975
-166.97
-166.961
-166.956
-166.946
-166.941
-166.931
-166.925
-166.915
-166.909
-166.904
-166.896
-166.742
-166.894
-166.885
-166.881
-166.873
-166.868
-166.86
-166.855
-166.847
-166.841
-166.833
-166.827
-166.818
-166.812
-166.803
-166.797
-166.787
-166.78
-166.775
-166.767
-166.642
-166.795
-166.786
-166.782
-166.774
-166.769
-166.761
-166.756
-166.747
-166.743
-166.733
-166.728
-166.719
-166.713
-166.703
-166.697
-166.688
-166.681
-166.676
-166.668
-166.553
-166.706
-166.697
-166.693
-166.685
-166.68
-166.672
-166.667
-166.658
-166.653
-166.644
-166.639
-166.63
-166.624
-166.614
-166.608
-166.599
-166.592
-166.587
-166.579
-166.464
-166.618
-166.608
-166.604
-166.596
-166.592
-166.583
-166.578
-166.569
-166.565
-166.555
-166.55
-166.541
-166.535
-166.525
-166.519
-166.509
-166.503
-166.498
-166.49
-166.369
-166.523
-166.513
-166.51
-166.501
-166.497
-166.488
-166.484
-166.475
-166.47
-166.461
-166.455
-166.446
-166.44
-166.43
-166.425
-166.415
-166.408
-166.403
-166.395
-166.264
-166.418
-166.409
-166.405
-166.396
-166.392
-166.384
-166.379
-166.37
-166.365
-166.356
-166.35
-166.341
-166.335
-166.326
-166.32
-166.31
-166.303
-166.298
-166.29
-166.145
-166.3
-166.291
-166.287
-166.278
-166.274
-166.265
-166.261
-166.252
-166.247
-166.237
-166.232
-166.223
-166.217
-166.207
-166.201
-166.191
-166.185
-166.18
-166.171
-166.01
-166.165
-166.156
-166.152
-166.144
-166.139
-166.131
-166.126
-166.117
-166.112
-166.103
-166.097
-166.088
-166.082
-166.072
-166.066
-166.056
-166.05
-166.045
-166.036
-165.859
-166.015
-166.005
-166.001
-165.993
-165.989
-165.98
-165.975
-165.966
-165.961
-165.952
-165.947
-165.937
-165.931
-165.921
-165.915
-165.905
-165.899
-165.894
-165.885
-165.701
-165.858
-165.849
-165.844
-165.836
-165.832
-165.823
-165.818
-165.809
-165.804
-165.795
-165.789
-165.78
-165.774
-165.764
-165.758
-165.748
-165.742
-165.736
-165.728
-165.563
-165.717
-165.708
-165.704
-165.696
-165.692
-165.683
-165.679
-165.67
-165.665
-165.656
-165.651
-165.641
-165.635
-165.626
-165.62
-165.61
-165.603
-165.598
-165.589
-165.505
-165.506
-165.506
-165.506
-165.506
-165.506
-165.506
-165.506
-165.506
-165.506
-165.506
-165.506
-165.506
-165.506
-165.506
-165.506
-165.506
-165.506
-165.506
-165.506
)
;

boundaryField
{
    movingWall
    {
        type            calculated;
        value           nonuniform List<scalar> 
20
(
-165.505
-165.506
-165.506
-165.506
-165.506
-165.506
-165.506
-165.506
-165.506
-165.506
-165.506
-165.506
-165.506
-165.506
-165.506
-165.506
-165.506
-165.506
-165.506
-165.506
)
;
    }
    fixedWalls
    {
        type            calculated;
        value           nonuniform List<scalar> 
60
(
-175.473
-173.28
-170.824
-169.062
-167.999
-167.4
-167.066
-166.871
-166.742
-166.642
-166.553
-166.464
-166.369
-166.264
-166.145
-166.01
-165.859
-165.701
-165.563
-165.505
-175.473
-173.297
-170.843
-169.084
-168.022
-167.424
-167.091
-166.896
-166.767
-166.668
-166.579
-166.49
-166.395
-166.29
-166.171
-166.036
-165.885
-165.728
-165.589
-165.506
-175.473
-175.473
-175.473
-175.473
-175.473
-175.473
-175.473
-175.473
-175.473
-175.473
-175.473
-175.473
-175.473
-175.473
-175.473
-175.473
-175.473
-175.473
-175.473
-175.473
)
;
    }
    frontAndBack
    {
        type            empty;
    }
}


// ************************************************************************* //
