/*--------------------------------*- C++ -*----------------------------------*\
| =========                 |                                                 |
| \\      /  F ield         | OpenFOAM: The Open Source CFD Toolbox           |
|  \\    /   O peration     | Version:  2312                                  |
|   \\  /    A nd           | Website:  www.openfoam.com                      |
|    \\/     M anipulation  |                                                 |
\*---------------------------------------------------------------------------*/
FoamFile
{
    version     2.0;
    format      ascii;
    arch        "LSB;label=32;scalar=64";
    class       volScalarField;
    location    "4.5";
    object      Lambda2Field;
}
// * * * * * * * * * * * * * * * * * * * * * * * * * * * * * * * * * * * * * //

dimensions      [0 0 -2 0 0 0 0];

internalField   nonuniform List<scalar> 
400
(
1.38821e-15
-7.8192e-16
0
-1.5292e-17
0
-1.74498e-19
8.91293e-21
-2.8531e-21
3.70578e-22
-6.54046e-23
1.14034e-23
-1.28725e-24
6.62588e-25
9.88769e-26
7.76029e-26
4.9786e-26
1.36648e-26
6.69548e-27
1.7748e-27
0
6.14747e-15
3.0884e-16
4.04411e-17
-9.13144e-18
0
-9.57076e-20
9.04397e-22
-9.80684e-22
7.31057e-23
-1.08615e-23
3.46627e-24
5.62263e-25
4.88922e-25
2.12018e-25
9.87886e-26
3.93362e-26
2.9964e-26
7.27006e-27
2.93874e-27
4.05903e-28
5.38961e-15
1.24425e-15
1.21057e-16
7.49417e-18
2.32557e-19
6.95485e-20
0
9.66909e-22
0
2.08895e-23
0
1.05365e-24
2.74771e-25
1.64352e-25
1.13634e-25
5.62915e-26
1.6394e-26
6.61216e-27
2.93874e-27
3.37728e-28
8.32254e-16
1.43232e-16
1.38543e-17
3.4242e-19
1.16821e-19
-1.86669e-20
4.07344e-21
-6.80996e-22
1.15746e-22
-1.60614e-23
4.29478e-24
1.65395e-25
4.31428e-25
1.84112e-25
1.12712e-25
5.35335e-26
3.02908e-26
1.31789e-26
4.36745e-27
-2.65872e-27
0
-2.2732e-16
0
-1.05228e-18
0
3.54789e-21
0
4.52829e-22
0
1.62779e-23
0
1.09276e-24
2.26054e-25
1.8656e-25
8.38445e-26
5.05282e-26
2.67365e-26
1.01072e-26
4.06692e-27
3.81141e-27
0
-5.09954e-16
0
-2.54061e-18
0
-1.92353e-20
7.07719e-22
-3.86641e-22
6.51273e-23
-1.20844e-23
2.99766e-24
3.1005e-26
2.72709e-25
9.60384e-26
5.53864e-26
7.95645e-27
0
1.05485e-26
0
0
0
-5.71878e-16
0
-2.89042e-18
0
-1.15075e-20
0
1.53176e-22
0
1.01756e-23
0
6.30522e-25
1.43397e-25
1.02248e-25
7.07522e-26
3.63137e-26
2.16099e-26
5.06796e-27
8.39844e-27
0
0
-5.51311e-16
0
-2.68349e-18
0
-1.42298e-20
0
-1.83387e-22
2.48882e-23
-5.18448e-24
1.46963e-24
9.6269e-26
2.58855e-25
7.73024e-26
5.79394e-26
3.57565e-26
1.32136e-26
1.14047e-26
7.34684e-28
4.98726e-29
0
-4.6485e-16
0
-2.31815e-18
0
-1.09324e-20
0
2.19873e-24
0
3.09997e-24
0
3.58833e-25
1.17158e-25
7.56995e-26
4.17292e-26
1.17746e-26
2.24881e-26
-1.81494e-27
0
7.65678e-30
0
-3.66549e-16
0
-1.74745e-18
0
-7.84637e-21
0
-4.64961e-23
4.25837e-24
-1.63002e-24
6.79744e-25
1.64886e-25
1.7826e-25
5.52412e-26
4.50471e-26
1.71485e-26
1.17549e-26
4.47372e-27
6.39601e-27
0
0
-2.66561e-16
0
-1.28877e-18
0
-6.12727e-21
0
-4.45336e-23
3.47614e-24
0
2.68302e-25
2.38038e-25
1.48372e-25
7.34684e-26
3.71508e-26
1.83671e-26
1.5185e-27
2.93874e-27
7.34684e-28
4.89603e-28
0
-1.85854e-16
0
-8.83866e-19
0
-2.93272e-21
0
3.64272e-23
0
3.19191e-24
0
3.10694e-25
1.0726e-25
7.10334e-26
4.13456e-26
1.99488e-26
8.71072e-27
0
1.95643e-27
0
0
-1.27918e-16
0
-5.9325e-19
0
-4.05666e-21
2.4993e-22
-1.04477e-22
2.05186e-23
-3.44203e-24
1.00392e-24
1.00143e-25
1.44844e-25
2.73283e-26
3.88632e-26
1.78686e-26
3.25881e-27
2.93874e-27
7.34684e-28
0
0
-8.55648e-17
0
-4.11271e-19
0
5.26284e-22
0
1.37497e-22
0
5.8838e-24
0
3.85563e-25
6.22816e-26
4.92158e-26
2.10716e-26
7.34684e-28
2.93874e-27
4.56168e-27
2.184e-27
0
0
-7.82808e-17
0
-3.72554e-19
0
-5.63254e-21
8.98292e-22
-2.22046e-22
4.02705e-23
-7.57508e-24
1.86266e-24
-9.11095e-26
1.58778e-25
3.78103e-26
1.35662e-26
1.16232e-26
4.32096e-27
2.74117e-27
7.46296e-28
-1.03559e-27
0
-5.19993e-17
0
-1.69815e-19
0
6.71789e-21
0
3.15404e-22
0
1.03677e-23
0
4.05556e-25
3.98341e-26
5.35752e-26
2.82998e-26
1.02795e-26
5.67532e-27
2.60782e-27
2.66574e-27
0
0
-1.15848e-16
0
-7.72082e-19
1.73212e-20
-1.69283e-20
2.26854e-21
-4.37882e-22
6.60206e-23
-1.03885e-23
2.22491e-24
-9.30141e-26
1.25136e-25
3.93527e-26
1.33278e-26
8.80864e-27
2.65874e-27
0
1.66524e-27
2.33208e-27
0
-4.57159e-17
0
1.04239e-18
0
2.71618e-20
0
5.48062e-22
0
1.26209e-23
0
5.1599e-25
4.24006e-26
5.33298e-26
1.69171e-26
6.99687e-27
7.34684e-28
1.00102e-27
3.65425e-28
6.85631e-29
0
-1.60154e-15
0
-1.6292e-17
0
-1.14724e-19
0
-8.84506e-22
2.90501e-23
-9.85127e-24
1.6569e-24
0
1.3324e-25
3.60722e-26
1.88391e-26
5.49661e-27
4.69612e-27
1.05288e-27
0
-4.52108e-28
0
-1.68476e-15
0
-1.74226e-17
0
-1.45454e-19
6.81323e-22
-1.70934e-21
1.54106e-22
-3.07125e-23
4.87519e-24
-6.10319e-25
2.02855e-25
-2.72137e-27
1.17282e-26
2.49778e-27
4.37646e-27
1.4686e-27
5.0301e-28
0
)
;

boundaryField
{
    movingWall
    {
        type            calculated;
        value           nonuniform List<scalar> 
20
(
0
0
0
0
0
0
0
0
2.77262e-22
0
9.57867e-24
-1.64372e-24
2.64537e-25
-5.39056e-26
5.31457e-27
-1.09183e-27
4.7826e-27
2.11933e-27
7.34684e-28
0
)
;
    }
    fixedWalls
    {
        type            calculated;
        value           nonuniform List<scalar> 
60
(
7.3405e-15
3.22295e-14
2.9078e-14
4.16579e-15
0
-1.04917e-14
0
-1.17993e-14
0
-8.07362e-15
0
-4.20566e-15
0
-1.95921e-15
0
-1.1528e-15
0
-4.96345e-16
0
-1.39275e-14
0
0
0
-1.22378e-27
3.87535e-27
0
0
0
0
0
0
0
2.13017e-29
1.08706e-28
0
0
2.39068e-27
6.85631e-29
0
0
0
0
0
0
0
0
5.61657e-21
0
7.0254e-22
-3.43745e-23
2.26729e-23
-3.88544e-24
7.6135e-25
-2.55214e-26
4.59198e-26
4.4123e-26
3.17638e-27
4.39049e-27
1.98524e-27
0
)
;
    }
    frontAndBack
    {
        type            empty;
    }
}


// ************************************************************************* //
