/*--------------------------------*- C++ -*----------------------------------*\
| =========                 |                                                 |
| \\      /  F ield         | OpenFOAM: The Open Source CFD Toolbox           |
|  \\    /   O peration     | Version:  2312                                  |
|   \\  /    A nd           | Website:  www.openfoam.com                      |
|    \\/     M anipulation  |                                                 |
\*---------------------------------------------------------------------------*/
FoamFile
{
    version     2.0;
    format      ascii;
    arch        "LSB;label=32;scalar=64";
    class       volVectorField;
    location    "4.5";
    object      LambVectorField;
}
// * * * * * * * * * * * * * * * * * * * * * * * * * * * * * * * * * * * * * //

dimensions      [0 1 -2 0 0 0 0];

internalField   nonuniform List<vector> 
400
(
(-1.35279e-14 -1.015e-06 -1.015e-06)
(-3.98144e-15 1.25821e-06 -0)
(-2.2477e-16 -2.9885e-07 -2.9885e-07)
(-1.26981e-17 7.11787e-08 -0)
(-7.16716e-19 -1.68587e-08 -1.68587e-08)
(-4.07363e-20 4.05361e-09 -0)
(-2.27504e-21 -9.4069e-10 -9.4069e-10)
(-1.34095e-22 2.40108e-10 -0)
(-6.69317e-24 -4.66634e-11 -4.66634e-11)
(-5.03766e-25 1.84314e-11 -0)
(6.60932e-27 5.92083e-13 5.92083e-13)
(2.09523e-27 3.33359e-12 0)
(3.61871e-27 1.62898e-12 1.62898e-12)
(1.41514e-27 1.23721e-12 0)
(7.41411e-28 7.70358e-13 7.70358e-13)
(3.67231e-28 4.84092e-13 0)
(1.35822e-28 2.9635e-13 2.9635e-13)
(2.68402e-29 1.14431e-13 0)
(9.62323e-30 7.56809e-14 7.56809e-14)
(2.91723e-31 1.47e-14 0)
(-1.34573e-14 1.00985e-06 1.00985e-06)
(-3.98189e-15 -1.25731e-06 0)
(-2.24165e-16 2.98705e-07 2.98705e-07)
(-1.26744e-17 -7.09618e-08 0)
(-7.1031e-19 1.68585e-08 1.68585e-08)
(-4.05359e-20 -4.00487e-09 0)
(-2.21361e-21 9.51583e-10 9.51583e-10)
(-1.34707e-22 -2.25889e-10 0)
(-6.04414e-24 5.38014e-11 5.38014e-11)
(-5.80917e-25 -1.26678e-11 0)
(7.55452e-27 3.13391e-12 3.13391e-12)
(-5.61428e-27 -6.36075e-13 0)
(1.11668e-27 2.3731e-13 2.3731e-13)
(3.0408e-28 8.12433e-14 0)
(3.25512e-28 1.28261e-13 1.28261e-13)
(1.84134e-28 9.59969e-14 0)
(1.19276e-28 9.12689e-14 9.12689e-14)
(8.80764e-29 1.19933e-13 0)
(2.36e-29 6.23381e-14 6.23381e-14)
(5.43429e-30 4.8958e-14 0)
(-1.34145e-14 -1.00877e-06 -1.00877e-06)
(-3.95872e-15 1.25383e-06 -0)
(-2.23067e-16 -2.97568e-07 -2.97568e-07)
(-1.25445e-17 7.06181e-08 -0)
(-7.10494e-19 -1.67587e-08 -1.67587e-08)
(-3.94626e-20 3.97738e-09 -0)
(-2.31001e-21 -9.43711e-10 -9.43711e-10)
(-1.1682e-22 2.24118e-10 -0)
(-8.71895e-24 -5.30556e-11 -5.30556e-11)
(-1.40543e-25 1.2759e-11 -0)
(-6.35928e-26 -2.84141e-12 -2.84141e-12)
(8.03046e-27 9.2037e-13 0)
(2.61878e-28 3.26244e-14 3.26244e-14)
(1.12657e-27 2.07951e-13 0)
(4.56407e-28 1.12688e-13 1.12688e-13)
(3.54578e-28 1.20797e-13 0)
(2.92284e-28 1.44047e-13 1.44047e-13)
(1.63028e-28 1.33214e-13 0)
(6.98673e-29 1.00249e-13 1.00249e-13)
(2.03224e-29 9.18254e-14 0)
(-1.34146e-14 1.01111e-06 1.01111e-06)
(-3.9413e-15 -1.25192e-06 0)
(-2.21819e-16 2.97047e-07 2.97047e-07)
(-1.24986e-17 -7.04777e-08 0)
(-7.01051e-19 1.67219e-08 1.67219e-08)
(-3.99261e-20 -3.96732e-09 0)
(-2.16629e-21 9.41423e-10 9.41423e-10)
(-1.3575e-22 -2.23252e-10 0)
(-5.30048e-24 5.31509e-11 5.31509e-11)
(-6.93805e-25 -1.24618e-11 0)
(3.0894e-26 3.09408e-12 3.09408e-12)
(-8.60528e-27 -5.96182e-13 0)
(2.18744e-27 2.45797e-13 2.45797e-13)
(4.69854e-29 6.62036e-15 0)
(2.50641e-28 4.72059e-14 4.72059e-14)
(5.1188e-28 1.30764e-13 0)
(3.8809e-28 1.46636e-13 1.46636e-13)
(1.87596e-28 1.14736e-13 0)
(1.02341e-28 1.0692e-13 1.0692e-13)
(4.48938e-29 1.523e-13 0)
(-1.33596e-14 -1.00998e-06 -1.00998e-06)
(-3.91746e-15 1.24856e-06 -0)
(-2.20502e-16 -2.96203e-07 -2.96203e-07)
(-1.23995e-17 7.02669e-08 -0)
(-6.99521e-19 -1.66688e-08 -1.66688e-08)
(-3.90056e-20 3.95444e-09 -0)
(-2.26284e-21 -9.37854e-10 -9.37854e-10)
(-1.14911e-22 2.22762e-10 -0)
(-8.68226e-24 -5.25858e-11 -5.25858e-11)
(-9.0323e-26 1.27823e-11 -0)
(-7.05057e-26 -2.75108e-12 -2.75108e-12)
(8.94983e-27 7.60332e-13 0)
(-1.57161e-27 -1.46788e-13 -1.46788e-13)
(7.40626e-28 9.47356e-14 0)
(8.3105e-28 1.39331e-13 1.39331e-13)
(6.10945e-28 1.43546e-13 0)
(3.81443e-28 1.31404e-13 1.31404e-13)
(2.45673e-28 1.32234e-13 0)
(1.27657e-28 1.22938e-13 1.22938e-13)
(4.02036e-29 1.12477e-13 0)
(-1.33029e-14 1.00845e-06 1.00845e-06)
(-3.89613e-15 -1.24538e-06 0)
(-2.19217e-16 2.95426e-07 2.95426e-07)
(-1.2338e-17 -7.00762e-08 0)
(-6.92811e-19 1.66227e-08 1.66227e-08)
(-3.92524e-20 -3.94279e-09 0)
(-2.15341e-21 9.35533e-10 9.35533e-10)
(-1.31656e-22 -2.2167e-10 0)
(-5.42427e-24 5.28061e-11 5.28061e-11)
(-6.71605e-25 -1.23888e-11 0)
(3.23071e-26 3.12889e-12 3.12889e-12)
(-7.16989e-27 -4.67631e-13 0)
(3.82458e-27 3.88213e-13 3.88213e-13)
(1.18695e-27 1.49742e-13 0)
(1.3271e-27 2.24365e-13 2.24365e-13)
(1.15305e-27 2.66436e-13 0)
(7.38767e-28 2.47952e-13 2.47952e-13)
(2.59436e-28 1.40376e-13 0)
(1.55086e-28 1.50043e-13 1.50043e-13)
(4.80312e-29 1.38133e-13 0)
(-1.32314e-14 -1.00587e-06 -1.00587e-06)
(-3.87402e-15 1.24191e-06 -0)
(-2.1799e-16 -2.9459e-07 -2.9459e-07)
(-1.22591e-17 6.98758e-08 -0)
(-6.905e-19 -1.6574e-08 -1.6574e-08)
(-3.86455e-20 3.93161e-09 -0)
(-2.21604e-21 -9.3234e-10 -9.3234e-10)
(-1.16153e-22 2.2136e-10 -0)
(-8.18865e-24 -5.23271e-11 -5.23271e-11)
(-1.41065e-25 1.25791e-11 -0)
(-6.60612e-26 -2.82555e-12 -2.82555e-12)
(1.00793e-26 9.32655e-13 0)
(6.5241e-28 6.53219e-14 6.53219e-14)
(1.60806e-27 2.24203e-13 0)
(6.17805e-28 1.10774e-13 1.10774e-13)
(5.29248e-28 1.27002e-13 0)
(4.37769e-28 1.483e-13 1.483e-13)
(2.99131e-28 1.5987e-13 0)
(1.08989e-28 1.00714e-13 1.00714e-13)
(4.51889e-29 1.40402e-13 0)
(-1.31661e-14 1.00335e-06 1.00335e-06)
(-3.85519e-15 -1.23886e-06 0)
(-2.16906e-16 2.93866e-07 2.93866e-07)
(-1.22043e-17 -6.9703e-08 0)
(-6.85888e-19 1.65334e-08 1.65334e-08)
(-3.87317e-20 -3.92139e-09 0)
(-2.14734e-21 9.30366e-10 9.30366e-10)
(-1.27334e-22 -2.20514e-10 0)
(-5.8501e-24 5.25483e-11 5.25483e-11)
(-5.81427e-25 -1.22094e-11 0)
(1.8819e-26 3.19694e-12 3.19694e-12)
(-6.66474e-27 -5.37505e-13 0)
(2.45925e-27 3.0706e-13 3.0706e-13)
(9.93174e-28 1.50065e-13 0)
(7.6388e-28 1.56467e-13 1.56467e-13)
(2.94101e-28 7.95217e-14 0)
(3.69659e-28 1.35328e-13 1.35328e-13)
(2.14057e-28 1.18723e-13 0)
(1.51766e-28 1.51425e-13 1.51425e-13)
(3.72763e-29 1.29099e-13 0)
(-1.31006e-14 -1.00067e-06 -1.00067e-06)
(-3.83731e-15 1.23592e-06 -0)
(-2.15916e-16 -2.93169e-07 -2.93169e-07)
(-1.21451e-17 6.95387e-08 -0)
(-6.83631e-19 -1.6494e-08 -1.6494e-08)
(-3.83646e-20 3.91265e-09 -0)
(-2.1797e-21 -9.27774e-10 -9.27774e-10)
(-1.18029e-22 2.20343e-10 -0)
(-7.5995e-24 -5.2066e-11 -5.2066e-11)
(-2.34102e-25 1.26378e-11 -0)
(-4.8347e-26 -2.73397e-12 -2.73397e-12)
(5.89833e-27 8.87322e-13 0)
(4.19825e-28 5.84366e-14 5.84366e-14)
(1.28329e-27 2.44445e-13 0)
(7.73573e-28 1.84283e-13 1.84283e-13)
(5.12278e-28 1.63357e-13 0)
(2.69049e-28 1.17329e-13 1.17329e-13)
(2.97836e-28 2.09663e-13 0)
(1.46423e-28 1.98247e-13 1.98247e-13)
(2.48677e-29 9.89823e-14 0)
(-1.30437e-14 9.98288e-07 9.98288e-07)
(-3.82221e-15 -1.2334e-06 0)
(-2.15064e-16 2.92577e-07 2.92577e-07)
(-1.21004e-17 -6.93987e-08 0)
(-6.80517e-19 1.64617e-08 1.64617e-08)
(-3.83454e-20 -3.90453e-09 0)
(-2.14394e-21 9.26301e-10 9.26301e-10)
(-1.23517e-22 -2.19541e-10 0)
(-6.3379e-24 5.22611e-11 5.22611e-11)
(-4.85702e-25 -1.23088e-11 0)
(-2.5548e-28 3.07389e-12 3.07389e-12)
(-4.80165e-27 -6.07213e-13 0)
(1.49607e-27 3.22863e-13 3.22863e-13)
(4.03139e-28 9.74482e-14 0)
(3.51268e-28 1.12688e-13 1.12688e-13)
(4.05719e-28 1.64394e-13 0)
(2.47749e-28 1.42034e-13 1.42034e-13)
(1.19869e-28 1.14418e-13 0)
(-1.59519e-30 -2.65814e-15 -2.65814e-15)
(2.2483e-29 8.61187e-14 0)
(-1.29911e-14 -9.96059e-07 -9.96059e-07)
(-3.80839e-15 1.23109e-06 -0)
(-2.14296e-16 -2.92032e-07 -2.92032e-07)
(-1.20567e-17 6.92711e-08 -0)
(-6.78427e-19 -1.64314e-08 -1.64314e-08)
(-3.81496e-20 3.89766e-09 -0)
(-2.15203e-21 -9.24483e-10 -9.24483e-10)
(-1.19823e-22 2.19469e-10 -0)
(-7.01798e-24 -5.18719e-11 -5.18719e-11)
(-3.32454e-25 1.24489e-11 -0)
(-3.30353e-26 -2.91116e-12 -2.91116e-12)
(1.45262e-27 7.79339e-13 0)
(-4.32244e-28 -1.21607e-13 -1.21607e-13)
(3.53091e-28 1.39128e-13 0)
(3.00393e-28 1.38869e-13 1.38869e-13)
(1.53116e-28 9.05316e-14 0)
(1.86374e-28 1.48171e-13 1.48171e-13)
(5.9841e-29 7.96087e-14 0)
(2.80378e-29 6.07217e-14 6.07217e-14)
(8.75809e-30 6.06214e-14 0)
(-1.29451e-14 9.94118e-07 9.94118e-07)
(-3.79627e-15 -1.22906e-06 0)
(-2.1362e-16 2.91556e-07 2.91556e-07)
(-1.20193e-17 -6.91592e-08 0)
(-6.76343e-19 1.64053e-08 1.64053e-08)
(-3.80423e-20 -3.89134e-09 0)
(-2.14332e-21 9.23267e-10 9.23267e-10)
(-1.20217e-22 -2.18905e-10 0)
(-6.81116e-24 5.20838e-11 5.20838e-11)
(-3.82465e-25 -1.22129e-11 0)
(-1.96857e-26 3.03978e-12 3.03978e-12)
(-1.66242e-27 -5.9032e-13 0)
(2.06801e-28 2.64311e-13 2.64311e-13)
(-5.19655e-29 -4.13334e-14 0)
(2.52949e-29 2.1154e-14 2.1154e-14)
(4.48325e-29 4.28737e-14 0)
(8.46522e-29 1.10366e-13 1.10366e-13)
(2.43626e-29 5.03227e-14 0)
(1.17207e-29 4.44327e-14 4.44327e-14)
(1.2083e-30 3.03587e-14 0)
(-1.29045e-14 -9.92431e-07 -9.92431e-07)
(-3.78531e-15 1.22724e-06 -0)
(-2.13004e-16 -2.91127e-07 -2.91127e-07)
(-1.19863e-17 6.90583e-08 -0)
(-6.74199e-19 -1.63813e-08 -1.63813e-08)
(-3.79905e-20 3.88595e-09 -0)
(-2.12708e-21 -9.21741e-10 -9.21741e-10)
(-1.21653e-22 2.187e-10 -0)
(-6.50784e-24 -5.18315e-11 -5.18315e-11)
(-4.21663e-25 1.23482e-11 -0)
(-1.55509e-26 -2.91874e-12 -2.91874e-12)
(-1.85148e-27 6.63182e-13 -0)
(-6.72958e-30 -1.30924e-13 -1.30924e-13)
(-1.27711e-29 1.00307e-13 -0)
(5.39333e-30 4.06929e-14 4.06929e-14)
(1.07687e-29 3.86111e-14 0)
(-1.39376e-29 -4.83058e-14 -4.83058e-14)
(4.60077e-30 2.0926e-14 0)
(1.75836e-30 2.21824e-14 2.21824e-14)
(-6.84424e-32 3.48354e-14 -0)
(-1.28667e-14 9.90874e-07 9.90874e-07)
(-3.77493e-15 -1.22552e-06 0)
(-2.12431e-16 2.90722e-07 2.90722e-07)
(-1.19516e-17 -6.89627e-08 0)
(-6.72945e-19 1.63588e-08 1.63588e-08)
(-3.77728e-20 -3.88057e-09 0)
(-2.14438e-21 9.20506e-10 9.20506e-10)
(-1.17143e-22 -2.18403e-10 0)
(-7.21016e-24 5.17582e-11 5.17582e-11)
(-3.01328e-25 -1.23135e-11 0)
(-3.53374e-26 2.98641e-12 2.98641e-12)
(8.49499e-28 -6.40176e-13 -0)
(-2.02938e-28 8.28512e-14 8.28512e-14)
(1.02554e-28 -9.573e-14 -0)
(-6.10128e-32 8.98598e-17 8.98598e-17)
(1.48023e-29 -5.71444e-14 -0)
(1.47692e-30 -1.37345e-14 -1.37345e-14)
(-2.57532e-32 2.11632e-16 -0)
(-5.38321e-30 4.90945e-14 4.90945e-14)
(1.27086e-30 -1.80182e-14 -0)
(-1.28349e-14 -9.89639e-07 -9.89639e-07)
(-3.76576e-15 1.22402e-06 -0)
(-2.11899e-16 -2.90367e-07 -2.90367e-07)
(-1.19264e-17 6.88786e-08 -0)
(-6.70388e-19 -1.63389e-08 -1.63389e-08)
(-3.78681e-20 3.87578e-09 -0)
(-2.10294e-21 -9.19464e-10 -9.19464e-10)
(-1.23433e-22 2.18054e-10 -0)
(-6.05909e-24 -5.1834e-11 -5.1834e-11)
(-4.93279e-25 1.22902e-11 -0)
(-2.22601e-27 -2.8947e-12 -2.8947e-12)
(-4.76374e-27 7.54929e-13 -0)
(2.88897e-28 -1.06426e-13 -1.06426e-13)
(-5.04415e-29 2.53054e-14 -0)
(7.92723e-29 -7.40695e-14 -7.40695e-14)
(-1.39898e-29 1.96896e-14 -0)
(-1.30352e-29 2.87126e-14 2.87126e-14)
(-4.50626e-30 9.89206e-15 -0)
(2.51252e-29 -8.91417e-14 -8.91417e-14)
(7.00178e-30 -6.59134e-14 -0)
(-1.2801e-14 9.88262e-07 9.88262e-07)
(-3.75616e-15 -1.22245e-06 0)
(-2.11388e-16 2.89994e-07 2.89994e-07)
(-1.189e-17 -6.87899e-08 0)
(-6.70087e-19 1.63177e-08 1.63177e-08)
(-3.75045e-20 -3.87086e-09 0)
(-2.14754e-21 9.18143e-10 9.18143e-10)
(-1.14332e-22 -2.17842e-10 0)
(-7.55436e-24 5.16667e-11 5.16667e-11)
(-2.37389e-25 -1.23102e-11 0)
(-4.27151e-26 2.80086e-12 2.80086e-12)
(2.82489e-27 -7.90245e-13 -0)
(-4.84956e-28 1.26799e-13 1.26799e-13)
(2.9058e-29 -1.36282e-14 -0)
(-1.73904e-28 1.14417e-13 1.14417e-13)
(-7.21243e-29 6.50971e-14 -0)
(-2.47805e-29 3.03819e-14 3.03819e-14)
(-5.49116e-30 9.17307e-15 -0)
(-1.98704e-30 5.44003e-15 5.44003e-15)
(5.28162e-30 -4.7618e-14 -0)
(-1.27779e-14 -9.87518e-07 -9.87518e-07)
(-3.74856e-15 1.22124e-06 -0)
(-2.10903e-16 -2.89706e-07 -2.89706e-07)
(-1.18746e-17 6.87211e-08 -0)
(-6.66605e-19 -1.63013e-08 -1.63013e-08)
(-3.77776e-20 3.86691e-09 -0)
(-2.07982e-21 -9.17245e-10 -9.17245e-10)
(-1.24539e-22 2.17592e-10 -0)
(-5.78426e-24 -5.17032e-11 -5.17032e-11)
(-5.22744e-25 1.21989e-11 -0)
(2.64228e-27 -2.94077e-12 -2.94077e-12)
(-4.60107e-27 6.38147e-13 -0)
(6.12697e-28 -1.90621e-13 -1.90621e-13)
(-2.14282e-28 8.26281e-14 -0)
(1.17761e-28 -7.35532e-14 -7.35532e-14)
(-3.11425e-29 2.98114e-14 -0)
(-6.68025e-30 8.19718e-15 8.19718e-15)
(2.8934e-29 -4.95003e-14 -0)
(6.50188e-30 -2.0322e-14 -2.0322e-14)
(-1.2338e-30 1.11908e-14 -0)
(-1.27422e-14 9.85929e-07 9.85929e-07)
(-3.73919e-15 -1.21969e-06 0)
(-2.10495e-16 2.89336e-07 2.89336e-07)
(-1.18318e-17 -6.86327e-08 0)
(-6.6801e-19 1.62803e-08 1.62803e-08)
(-3.72729e-20 -3.86182e-09 0)
(-2.14685e-21 9.16103e-10 9.16103e-10)
(-1.13405e-22 -2.1723e-10 0)
(-7.54373e-24 5.15934e-11 5.15934e-11)
(-2.43343e-25 -1.22032e-11 0)
(-4.32241e-26 2.94125e-12 2.94125e-12)
(2.14256e-27 -6.61795e-13 -0)
(-5.91042e-28 1.57988e-13 1.57988e-13)
(7.99432e-29 -3.7944e-14 -0)
(1.22693e-29 -8.37916e-15 -8.37916e-15)
(-4.04078e-30 4.30384e-15 -0)
(3.46594e-29 -4.99306e-14 -4.99306e-14)
(2.17661e-29 -4.95167e-14 -0)
(1.34046e-29 -6.73648e-14 -6.73648e-14)
(8.72415e-31 -2.35958e-14 -0)
(-1.27496e-14 -9.87231e-07 -9.87231e-07)
(-3.73838e-15 1.22017e-06 -0)
(-2.10287e-16 -2.89667e-07 -2.89667e-07)
(-1.18534e-17 6.8763e-08 -0)
(-6.6454e-19 -1.63235e-08 -1.63235e-08)
(-3.76692e-20 3.87498e-09 -0)
(-2.07811e-21 -9.19863e-10 -9.19863e-10)
(-1.22409e-22 2.1841e-10 -0)
(-6.02786e-24 -5.17335e-11 -5.17335e-11)
(-4.69712e-25 1.23702e-11 -0)
(-5.8341e-27 -2.87179e-12 -2.87179e-12)
(-3.90858e-27 7.53444e-13 -0)
(3.37158e-28 -1.70345e-13 -1.70345e-13)
(3.42656e-29 -2.1594e-14 -0)
(5.51488e-30 -5.80406e-15 -5.80406e-15)
(3.64449e-29 -5.09279e-14 -0)
(7.77897e-30 -1.76435e-14 -1.76435e-14)
(8.05587e-30 -3.00444e-14 -0)
(3.38048e-30 -2.40684e-14 -2.40684e-14)
(1.20484e-30 -4.38952e-14 -0)
(-1.27325e-14 9.86864e-07 9.86864e-07)
(-3.73031e-15 -1.21891e-06 0)
(-2.10295e-16 2.89387e-07 2.89387e-07)
(-1.18614e-17 -6.88277e-08 0)
(-6.68874e-19 1.63211e-08 1.63211e-08)
(-3.78814e-20 -3.90449e-09 0)
(-2.12644e-21 9.15982e-10 9.15982e-10)
(-1.22841e-22 -2.26559e-10 0)
(-6.5605e-24 4.86791e-11 4.86791e-11)
(-4.26692e-25 -1.50753e-11 0)
(-1.21822e-26 1.3205e-12 1.3205e-12)
(-8.53345e-28 -1.84567e-12 0)
(7.50284e-28 -5.60045e-13 -5.60045e-13)
(2.36651e-28 -5.34905e-13 -0)
(9.6774e-29 -2.95544e-13 -2.95544e-13)
(4.17526e-29 -2.1142e-13 -0)
(9.90439e-30 -8.95547e-14 -8.95547e-14)
(3.31946e-31 -2.88421e-15 -0)
(4.973e-31 -6.08289e-15 -6.08289e-15)
(2.20881e-30 -4.07066e-14 -0)
)
;

boundaryField
{
    movingWall
    {
        type            calculated;
        value           nonuniform List<vector> 
20
(
(0 9.90312e-07 -0)
(0 -1.22236e-06 -0)
(0 2.90818e-07 -0)
(0 -6.95004e-08 -0)
(0 1.64942e-08 -0)
(0 -3.9918e-09 -0)
(0 9.26641e-10 -0)
(0 -2.40077e-10 -0)
(0 4.62826e-11 -0)
(0 -1.85053e-11 -0)
(0 -3.68858e-13 -0)
(0 -3.14225e-12 -0)
(0 -1.24179e-12 -0)
(0 -9.89403e-13 -0)
(0 -5.574e-13 -0)
(0 -3.76956e-13 -0)
(0 -2.30284e-13 -0)
(0 -2.88421e-15 -0)
(0 -6.08289e-15 -0)
(0 -5.80105e-14 -0)
)
;
    }
    fixedWalls
    {
        type            calculated;
        value           nonuniform List<vector> 
60
(
(0 -5.32984e-06 -0)
(0 5.32435e-06 -0)
(0 -5.31384e-06 -0)
(0 5.30606e-06 -0)
(0 -5.29204e-06 -0)
(0 5.27871e-06 -0)
(0 -5.26406e-06 -0)
(0 5.25117e-06 -0)
(0 -5.2387e-06 -0)
(0 5.22799e-06 -0)
(0 -5.21815e-06 -0)
(0 5.20951e-06 -0)
(0 -5.20175e-06 -0)
(0 5.19445e-06 -0)
(0 -5.18809e-06 -0)
(0 5.18143e-06 -0)
(0 -5.1763e-06 -0)
(0 5.1697e-06 -0)
(0 -5.16796e-06 -0)
(0 5.16348e-06 -0)
(0 7.93802e-15 -0)
(0 4.43996e-14 -0)
(0 8.85261e-14 -0)
(0 1.45014e-13 -0)
(0 1.1587e-13 -0)
(0 1.39087e-13 -0)
(0 1.28742e-13 -0)
(0 1.15497e-13 -0)
(0 1.00494e-13 -0)
(0 1.04428e-13 -0)
(0 5.77887e-14 -0)
(0 1.59203e-14 -0)
(0 2.63192e-14 -0)
(0 -2.82128e-14 -0)
(0 -6.95958e-14 -0)
(0 -4.43666e-14 -0)
(0 1.01098e-14 -0)
(0 -1.47893e-14 -0)
(0 -3.80843e-14 -0)
(0 -4.88097e-14 -0)
(0 -1.02416e-06 -0)
(0 1.26297e-06 -0)
(0 -3.0062e-07 -0)
(0 7.20092e-08 -0)
(0 -1.70313e-08 -0)
(0 4.1648e-09 -0)
(0 -9.44163e-10 -0)
(0 2.60278e-10 -0)
(0 -4.04135e-11 -0)
(0 2.48623e-11 -0)
(0 4.3982e-12 -0)
(0 6.13439e-12 -0)
(0 3.54559e-12 -0)
(0 2.43517e-12 -0)
(0 1.59283e-12 -0)
(0 9.38589e-13 -0)
(0 4.96494e-13 -0)
(0 1.66343e-13 -0)
(0 6.58797e-14 -0)
(0 1.47e-14 -0)
)
;
    }
    frontAndBack
    {
        type            empty;
    }
}


// ************************************************************************* //
