/*--------------------------------*- C++ -*----------------------------------*\
| =========                 |                                                 |
| \\      /  F ield         | OpenFOAM: The Open Source CFD Toolbox           |
|  \\    /   O peration     | Version:  2312                                  |
|   \\  /    A nd           | Website:  www.openfoam.com                      |
|    \\/     M anipulation  |                                                 |
\*---------------------------------------------------------------------------*/
FoamFile
{
    version     2.0;
    format      ascii;
    arch        "LSB;label=32;scalar=64";
    class       volScalarField;
    location    "4.5";
    object      magSqrP;
}
// * * * * * * * * * * * * * * * * * * * * * * * * * * * * * * * * * * * * * //

dimensions      [0 4 -4 0 0 0 0];

internalField   nonuniform List<scalar> 
400
(
3.2382e-31
0
2.89395e-24
8.79458e-27
1.46885e-25
1.57087e-26
1.61657e-26
6.80201e-27
4.9343e-27
3.31176e-27
2.57844e-27
2.07423e-27
1.77246e-27
1.56001e-27
1.42335e-27
1.35231e-27
1.29695e-27
1.23599e-27
1.20233e-27
1.20022e-27
6.94661e-27
1.91755e-24
2.99686e-26
2.64081e-26
1.9452e-26
1.26265e-26
8.74079e-27
5.55664e-27
3.94737e-27
2.95085e-27
2.33635e-27
1.92509e-27
1.67209e-27
1.50348e-27
1.38581e-27
1.30458e-27
1.26387e-27
1.22341e-27
1.20177e-27
1.19812e-27
0
0
0
0
9.69104e-27
2.69712e-27
4.5366e-27
3.23001e-27
2.78131e-27
2.28366e-27
1.95591e-27
1.6892e-27
1.51666e-27
1.3919e-27
1.32705e-27
1.26243e-27
1.21158e-27
1.18918e-27
1.17877e-27
1.17361e-27
1.99092e-25
2.75549e-23
0
3.05333e-26
0
1.13209e-27
1.12326e-27
1.74343e-27
1.68361e-27
1.64185e-27
1.52082e-27
1.41944e-27
1.33479e-27
1.26984e-27
1.22893e-27
1.18594e-27
1.17063e-27
1.15126e-27
1.13704e-27
1.14426e-27
0
0
0
0
2.01241e-27
1.18335e-30
6.60848e-28
7.31087e-28
1.01207e-27
1.10401e-27
1.15694e-27
1.17235e-27
1.15495e-27
1.13447e-27
1.12484e-27
1.10676e-27
1.11276e-27
1.10507e-27
1.09969e-27
1.10422e-27
6.59092e-25
2.16179e-23
0
1.78306e-26
0
1.76531e-29
4.80147e-29
3.73836e-28
5.66562e-28
7.45298e-28
8.72987e-28
9.63936e-28
9.88875e-28
1.00242e-27
1.01945e-27
1.03616e-27
1.0635e-27
1.06296e-27
1.06597e-27
1.06935e-27
0
0
0
0
3.67196e-28
0
5.32786e-29
1.42684e-28
3.52159e-28
5.18587e-28
6.67663e-28
7.75534e-28
8.50676e-28
8.96644e-28
9.2683e-28
9.7025e-28
1.00432e-27
1.02914e-27
1.03346e-27
1.03836e-27
9.13185e-25
9.32974e-24
0
5.13245e-27
0
0
0
8.30813e-29
2.1928e-28
3.87903e-28
5.32996e-28
6.56282e-28
7.49576e-28
8.11573e-28
8.67815e-28
9.1521e-28
9.5982e-28
9.81287e-28
9.94497e-28
1.01267e-27
0
0
0
0
1.05752e-29
0
3.76958e-31
3.92682e-29
1.60978e-28
3.06951e-28
4.50752e-28
5.73719e-28
6.79696e-28
7.60259e-28
8.21399e-28
8.79446e-28
9.04321e-28
9.33854e-28
9.67948e-28
9.88199e-28
8.10218e-25
3.12842e-24
3.63521e-31
7.10423e-28
0
0
0
3.39543e-29
1.30206e-28
2.64786e-28
4.06922e-28
5.28705e-28
6.40623e-28
7.3838e-28
8.0099e-28
8.5488e-28
8.85374e-28
9.1485e-28
9.48983e-28
9.67206e-28
0
0
0
0
0
0
0
2.83192e-29
1.30782e-28
2.61108e-28
4.04271e-28
5.20795e-28
6.30327e-28
7.08846e-28
7.85701e-28
8.45024e-28
8.80228e-28
9.17247e-28
9.35008e-28
9.47776e-28
5.84266e-25
1.06933e-24
7.09256e-29
7.14399e-30
0
0
0
4.25634e-29
1.49875e-28
2.89306e-28
4.25215e-28
5.39543e-28
6.38534e-28
7.14851e-28
7.78325e-28
8.45999e-28
8.86655e-28
9.16069e-28
9.34553e-28
9.58079e-28
0
0
0
0
0
0
5.04288e-30
6.86458e-29
1.94271e-28
3.36532e-28
4.60469e-28
5.81256e-28
6.64536e-28
7.49485e-28
8.04243e-28
8.5414e-28
8.95605e-28
9.24869e-28
9.40365e-28
9.58334e-28
4.26408e-25
4.53232e-25
5.976e-29
0
0
0
2.03516e-29
1.2796e-28
2.68514e-28
4.15029e-28
5.41796e-28
6.48692e-28
7.23367e-28
7.81823e-28
8.41355e-28
8.81586e-28
9.09206e-28
9.31046e-28
9.56723e-28
9.76743e-28
0
0
0
0
0
4.14699e-32
9.6979e-29
2.51936e-28
4.0931e-28
5.30125e-28
6.45064e-28
7.37949e-28
8.06752e-28
8.46335e-28
8.85358e-28
9.1161e-28
9.31801e-28
9.4772e-28
9.76675e-28
9.98456e-28
3.41046e-25
1.80205e-25
1.05017e-30
0
0
4.73102e-29
2.80873e-28
4.8422e-28
6.33835e-28
7.23437e-28
8.02335e-28
8.58811e-28
8.96403e-28
9.12475e-28
9.37519e-28
9.57157e-28
9.59023e-28
9.82339e-28
9.99042e-28
1.02515e-27
0
0
0
0
1.05836e-28
3.81133e-28
7.81971e-28
9.19375e-28
9.88318e-28
9.97733e-28
9.94263e-28
9.92946e-28
9.86494e-28
9.87633e-28
9.8858e-28
9.92712e-28
9.93181e-28
1.00398e-27
1.02439e-27
1.04349e-27
2.84744e-25
1.0491e-27
4.47214e-28
0
1.51401e-27
1.50156e-27
1.92158e-27
1.63484e-27
1.49246e-27
1.31218e-27
1.20924e-27
1.13954e-27
1.0878e-27
1.05605e-27
1.03891e-27
1.02117e-27
1.02304e-27
1.02969e-27
1.03168e-27
1.06358e-27
0
0
2.15927e-26
3.05744e-28
1.2883e-26
4.55161e-27
4.0727e-27
2.54037e-27
2.03875e-27
1.61375e-27
1.39886e-27
1.25429e-27
1.17356e-27
1.11589e-27
1.07353e-27
1.05408e-27
1.04602e-27
1.04369e-27
1.04908e-27
1.06256e-27
6.26137e-26
0
1.89236e-24
0
7.52653e-26
4.02035e-27
7.42658e-27
2.93216e-27
2.48651e-27
1.79664e-27
1.5236e-27
1.33184e-27
1.22739e-27
1.14281e-27
1.0875e-27
1.065e-27
1.05358e-27
1.04977e-27
1.05205e-27
1.07511e-27
)
;

boundaryField
{
    movingWall
    {
        type            calculated;
        value           nonuniform List<scalar> 
20
(
6.26137e-26
0
1.89236e-24
0
7.52653e-26
4.02035e-27
7.42658e-27
2.93216e-27
2.48651e-27
1.79664e-27
1.5236e-27
1.33184e-27
1.22739e-27
1.14281e-27
1.0875e-27
1.065e-27
1.05358e-27
1.04977e-27
1.05205e-27
1.07511e-27
)
;
    }
    fixedWalls
    {
        type            calculated;
        value           nonuniform List<scalar> 
60
(
3.2382e-31
6.94661e-27
0
1.99092e-25
0
6.59092e-25
0
9.13185e-25
0
8.10218e-25
0
5.84266e-25
0
4.26408e-25
0
3.41046e-25
0
2.84744e-25
0
6.26137e-26
1.20022e-27
1.19812e-27
1.17361e-27
1.14426e-27
1.10422e-27
1.06935e-27
1.03836e-27
1.01267e-27
9.88199e-28
9.67206e-28
9.47776e-28
9.58079e-28
9.58334e-28
9.76743e-28
9.98456e-28
1.02515e-27
1.04349e-27
1.06358e-27
1.06256e-27
1.07511e-27
3.2382e-31
0
2.89395e-24
8.79458e-27
1.46885e-25
1.57087e-26
1.61657e-26
6.80201e-27
4.9343e-27
3.31176e-27
2.57844e-27
2.07423e-27
1.77246e-27
1.56001e-27
1.42335e-27
1.35231e-27
1.29695e-27
1.23599e-27
1.20233e-27
1.20022e-27
)
;
    }
    frontAndBack
    {
        type            empty;
    }
}


// ************************************************************************* //
