/*--------------------------------*- C++ -*----------------------------------*\
| =========                 |                                                 |
| \\      /  F ield         | OpenFOAM: The Open Source CFD Toolbox           |
|  \\    /   O peration     | Version:  2312                                  |
|   \\  /    A nd           | Website:  www.openfoam.com                      |
|    \\/     M anipulation  |                                                 |
\*---------------------------------------------------------------------------*/
FoamFile
{
    version     2.0;
    format      ascii;
    arch        "LSB;label=32;scalar=64";
    class       volVectorField;
    location    "4.5";
    object      momentum1:momentum;
}
// * * * * * * * * * * * * * * * * * * * * * * * * * * * * * * * * * * * * * //

dimensions      [1 1 -1 0 0 0 0];

internalField   nonuniform List<vector> 
400
(
(-2.5e-07 3.332e-15 0)
(-2.5e-07 -7.9109e-16 0)
(-2.5e-07 1.88029e-16 0)
(-2.5e-07 -4.45992e-17 0)
(-2.5e-07 1.06283e-17 0)
(-2.5e-07 -2.51235e-18 0)
(-2.5e-07 6.0462e-19 0)
(-2.5e-07 -1.39619e-19 0)
(-2.5e-07 3.58587e-20 0)
(-2.5e-07 -6.83299e-21 0)
(-2.5e-07 2.79071e-21 0)
(-2.5e-07 1.5713e-22 0)
(-2.5e-07 5.55363e-22 0)
(-2.5e-07 2.85954e-22 0)
(-2.5e-07 2.40606e-22 0)
(-2.5e-07 1.89649e-22 0)
(-2.5e-07 1.14579e-22 0)
(-2.5e-07 5.86383e-23 0)
(-2.5e-07 3.17888e-23 0)
(-2.5e-07 4.96126e-24 0)
(-2.5e-07 -3.3315e-15 0)
(-2.5e-07 7.91749e-16 0)
(-2.5e-07 -1.87614e-16 0)
(-2.5e-07 4.4652e-17 0)
(-2.5e-07 -1.05334e-17 0)
(-2.5e-07 2.53041e-18 0)
(-2.5e-07 -5.8156e-19 0)
(-2.5e-07 1.49085e-19 0)
(-2.5e-07 -2.80854e-20 0)
(-2.5e-07 1.14644e-20 0)
(-2.5e-07 6.02643e-22 0)
(-2.5e-07 2.20661e-21 0)
(-2.5e-07 1.17639e-21 0)
(-2.5e-07 9.35709e-22 0)
(-2.5e-07 6.3447e-22 0)
(-2.5e-07 4.7953e-22 0)
(-2.5e-07 3.26715e-22 0)
(-2.5e-07 1.83595e-22 0)
(-2.5e-07 9.46452e-23 0)
(-2.5e-07 2.77497e-23 0)
(-2.5e-07 3.32445e-15 0)
(-2.5e-07 -7.89327e-16 0)
(-2.5e-07 1.87409e-16 0)
(-2.5e-07 -4.44097e-17 0)
(-2.5e-07 1.05989e-17 0)
(-2.5e-07 -2.48044e-18 0)
(-2.5e-07 6.11949e-19 0)
(-2.5e-07 -1.30311e-19 0)
(-2.5e-07 4.1084e-20 0)
(-2.5e-07 -2.75381e-21 0)
(-2.5e-07 5.59518e-21 0)
(-2.5e-07 2.18131e-21 0)
(-2.5e-07 2.00677e-21 0)
(-2.5e-07 1.35436e-21 0)
(-2.5e-07 1.01255e-21 0)
(-2.5e-07 7.33832e-22 0)
(-2.5e-07 5.0727e-22 0)
(-2.5e-07 3.05951e-22 0)
(-2.5e-07 1.74235e-22 0)
(-2.5e-07 5.53288e-23 0)
(-2.5e-07 -3.31677e-15 0)
(-2.5e-07 7.87049e-16 0)
(-2.5e-07 -1.86687e-16 0)
(-2.5e-07 4.43353e-17 0)
(-2.5e-07 -1.0481e-17 0)
(-2.5e-07 2.51594e-18 0)
(-2.5e-07 -5.7527e-19 0)
(-2.5e-07 1.52014e-19 0)
(-2.5e-07 -2.49313e-20 0)
(-2.5e-07 1.39187e-20 0)
(-2.5e-07 2.49622e-21 0)
(-2.5e-07 3.60849e-21 0)
(-2.5e-07 2.22485e-21 0)
(-2.5e-07 1.77427e-21 0)
(-2.5e-07 1.32738e-21 0)
(-2.5e-07 9.78634e-22 0)
(-2.5e-07 6.61657e-22 0)
(-2.5e-07 4.08757e-22 0)
(-2.5e-07 2.39293e-22 0)
(-2.5e-07 7.36932e-23 0)
(-2.5e-07 3.30692e-15 0)
(-2.5e-07 -7.84397e-16 0)
(-2.5e-07 1.86107e-16 0)
(-2.5e-07 -4.41158e-17 0)
(-2.5e-07 1.04915e-17 0)
(-2.5e-07 -2.46594e-18 0)
(-2.5e-07 6.03196e-19 0)
(-2.5e-07 -1.28962e-19 0)
(-2.5e-07 4.12766e-20 0)
(-2.5e-07 -1.76656e-21 0)
(-2.5e-07 6.40708e-21 0)
(-2.5e-07 2.94274e-21 0)
(-2.5e-07 2.67666e-21 0)
(-2.5e-07 1.95445e-21 0)
(-2.5e-07 1.49115e-21 0)
(-2.5e-07 1.06403e-21 0)
(-2.5e-07 7.25707e-22 0)
(-2.5e-07 4.64466e-22 0)
(-2.5e-07 2.59596e-22 0)
(-2.5e-07 8.93595e-23 0)
(-2.5e-07 -3.29784e-15 0)
(-2.5e-07 7.82115e-16 0)
(-2.5e-07 -1.8551e-16 0)
(-2.5e-07 4.40164e-17 0)
(-2.5e-07 -1.04197e-17 0)
(-2.5e-07 2.48887e-18 0)
(-2.5e-07 -5.75451e-19 0)
(-2.5e-07 1.48482e-19 0)
(-2.5e-07 -2.56801e-20 0)
(-2.5e-07 1.35527e-20 0)
(-2.5e-07 2.58135e-21 0)
(-2.5e-07 3.83309e-21 0)
(-2.5e-07 2.46294e-21 0)
(-2.5e-07 1.98164e-21 0)
(-2.5e-07 1.47872e-21 0)
(-2.5e-07 1.08192e-21 0)
(-2.5e-07 7.44868e-22 0)
(-2.5e-07 4.62037e-22 0)
(-2.5e-07 2.58403e-22 0)
(-2.5e-07 8.69294e-23 0)
(-2.5e-07 3.28854e-15 0)
(-2.5e-07 -7.79851e-16 0)
(-2.5e-07 1.84994e-16 0)
(-2.5e-07 -4.38603e-17 0)
(-2.5e-07 1.04154e-17 0)
(-2.5e-07 -2.45736e-18 0)
(-2.5e-07 5.94215e-19 0)
(-2.5e-07 -1.31182e-19 0)
(-2.5e-07 3.91224e-20 0)
(-2.5e-07 -2.80356e-21 0)
(-2.5e-07 5.84498e-21 0)
(-2.5e-07 2.70178e-21 0)
(-2.5e-07 2.4969e-21 0)
(-2.5e-07 1.79308e-21 0)
(-2.5e-07 1.3943e-21 0)
(-2.5e-07 1.04181e-21 0)
(-2.5e-07 7.37978e-22 0)
(-2.5e-07 4.67774e-22 0)
(-2.5e-07 2.70541e-22 0)
(-2.5e-07 8.04636e-23 0)
(-2.5e-07 -3.28052e-15 0)
(-2.5e-07 7.77969e-16 0)
(-2.5e-07 -1.84528e-16 0)
(-2.5e-07 4.37726e-17 0)
(-2.5e-07 -1.03712e-17 0)
(-2.5e-07 2.46926e-18 0)
(-2.5e-07 -5.77015e-19 0)
(-2.5e-07 1.4436e-19 0)
(-2.5e-07 -2.7832e-20 0)
(-2.5e-07 1.19054e-20 0)
(-2.5e-07 1.47164e-21 0)
(-2.5e-07 3.09985e-21 0)
(-2.5e-07 2.00225e-21 0)
(-2.5e-07 1.65457e-21 0)
(-2.5e-07 1.22051e-21 0)
(-2.5e-07 9.24592e-22 0)
(-2.5e-07 6.82897e-22 0)
(-2.5e-07 4.50748e-22 0)
(-2.5e-07 2.50563e-22 0)
(-2.5e-07 7.21853e-23 0)
(-2.5e-07 3.27295e-15 0)
(-2.5e-07 -7.76205e-16 0)
(-2.5e-07 1.84122e-16 0)
(-2.5e-07 -4.36631e-17 0)
(-2.5e-07 1.03618e-17 0)
(-2.5e-07 -2.45132e-18 0)
(-2.5e-07 5.87347e-19 0)
(-2.5e-07 -1.33915e-19 0)
(-2.5e-07 3.64897e-20 0)
(-2.5e-07 -4.63099e-21 0)
(-2.5e-07 4.42095e-21 0)
(-2.5e-07 1.66183e-21 0)
(-2.5e-07 1.79607e-21 0)
(-2.5e-07 1.31246e-21 0)
(-2.5e-07 1.04943e-21 0)
(-2.5e-07 7.83984e-22 0)
(-2.5e-07 5.73278e-22 0)
(-2.5e-07 3.55137e-22 0)
(-2.5e-07 1.84647e-22 0)
(-2.5e-07 6.28085e-23 0)
(-2.5e-07 -3.26651e-15 0)
(-2.5e-07 7.7473e-16 0)
(-2.5e-07 -1.83767e-16 0)
(-2.5e-07 4.35901e-17 0)
(-2.5e-07 -1.03349e-17 0)
(-2.5e-07 2.45519e-18 0)
(-2.5e-07 -5.78629e-19 0)
(-2.5e-07 1.40653e-19 0)
(-2.5e-07 -3.03184e-20 0)
(-2.5e-07 9.86492e-21 0)
(-2.5e-07 -2.07783e-23 0)
(-2.5e-07 1.97692e-21 0)
(-2.5e-07 1.15844e-21 0)
(-2.5e-07 1.03424e-21 0)
(-2.5e-07 7.79295e-22 0)
(-2.5e-07 6.16994e-22 0)
(-2.5e-07 4.36074e-22 0)
(-2.5e-07 2.6191e-22 0)
(-2.5e-07 1.50029e-22 0)
(-2.5e-07 6.52676e-23 0)
(-2.5e-07 3.26062e-15 0)
(-2.5e-07 -7.73378e-16 0)
(-2.5e-07 1.83452e-16 0)
(-2.5e-07 -4.35127e-17 0)
(-2.5e-07 1.03221e-17 0)
(-2.5e-07 -2.44695e-18 0)
(-2.5e-07 5.81955e-19 0)
(-2.5e-07 -1.36492e-19 0)
(-2.5e-07 3.38236e-20 0)
(-2.5e-07 -6.67641e-21 0)
(-2.5e-07 2.83695e-21 0)
(-2.5e-07 4.65979e-22 0)
(-2.5e-07 8.88606e-22 0)
(-2.5e-07 6.34472e-22 0)
(-2.5e-07 5.40786e-22 0)
(-2.5e-07 4.22826e-22 0)
(-2.5e-07 3.14457e-22 0)
(-2.5e-07 1.87922e-22 0)
(-2.5e-07 1.15436e-22 0)
(-2.5e-07 3.6118e-23 0)
(-2.5e-07 -3.25543e-15 0)
(-2.5e-07 7.72191e-16 0)
(-2.5e-07 -1.83172e-16 0)
(-2.5e-07 4.34481e-17 0)
(-2.5e-07 -1.03068e-17 0)
(-2.5e-07 2.44404e-18 0)
(-2.5e-07 -5.80364e-19 0)
(-2.5e-07 1.37293e-19 0)
(-2.5e-07 -3.26933e-20 0)
(-2.5e-07 7.82914e-21 0)
(-2.5e-07 -1.61901e-21 0)
(-2.5e-07 7.04034e-22 0)
(-2.5e-07 1.95604e-22 0)
(-2.5e-07 3.14307e-22 0)
(-2.5e-07 2.98938e-22 0)
(-2.5e-07 2.61422e-22 0)
(-2.5e-07 1.91753e-22 0)
(-2.5e-07 1.21032e-22 0)
(-2.5e-07 6.59466e-23 0)
(-2.5e-07 9.95019e-24 0)
(-2.5e-07 3.25073e-15 0)
(-2.5e-07 -7.71105e-16 0)
(-2.5e-07 1.82913e-16 0)
(-2.5e-07 -4.33918e-17 0)
(-2.5e-07 1.02891e-17 0)
(-2.5e-07 -2.44409e-18 0)
(-2.5e-07 5.7692e-19 0)
(-2.5e-07 -1.39064e-19 0)
(-2.5e-07 3.13895e-20 0)
(-2.5e-07 -8.53689e-21 0)
(-2.5e-07 1.33199e-21 0)
(-2.5e-07 -6.97953e-22 0)
(-2.5e-07 1.28502e-23 0)
(-2.5e-07 -3.18301e-23 0)
(-2.5e-07 3.31343e-23 0)
(-2.5e-07 6.97256e-23 0)
(-2.5e-07 7.2132e-23 0)
(-2.5e-07 5.49649e-23 0)
(-2.5e-07 1.9817e-23 0)
(-2.5e-07 -4.91184e-25 0)
(-2.5e-07 -3.24629e-15 0)
(-2.5e-07 7.70068e-16 0)
(-2.5e-07 -1.82676e-16 0)
(-2.5e-07 4.33262e-17 0)
(-2.5e-07 -1.02842e-17 0)
(-2.5e-07 2.43346e-18 0)
(-2.5e-07 -5.82392e-19 0)
(-2.5e-07 1.3409e-19 0)
(-2.5e-07 -3.48262e-20 0)
(-2.5e-07 6.11783e-21 0)
(-2.5e-07 -2.95819e-21 0)
(-2.5e-07 -3.31744e-22 0)
(-2.5e-07 -6.12357e-22 0)
(-2.5e-07 -2.67822e-22 0)
(-2.5e-07 -1.69745e-22 0)
(-2.5e-07 -6.47582e-23 0)
(-2.5e-07 -2.68834e-23 0)
(-2.5e-07 -3.04221e-23 0)
(-2.5e-07 -2.74125e-23 0)
(-2.5e-07 -1.7633e-23 0)
(-2.5e-07 3.24233e-15 0)
(-2.5e-07 -7.69138e-16 0)
(-2.5e-07 1.8244e-16 0)
(-2.5e-07 -4.32877e-17 0)
(-2.5e-07 1.02576e-17 0)
(-2.5e-07 -2.44261e-18 0)
(-2.5e-07 5.71784e-19 0)
(-2.5e-07 -1.41516e-19 0)
(-2.5e-07 2.92236e-20 0)
(-2.5e-07 -1.0034e-20 0)
(-2.5e-07 1.92248e-22 0)
(-2.5e-07 -1.57754e-21 0)
(-2.5e-07 -6.78636e-22 0)
(-2.5e-07 -4.98328e-22 0)
(-2.5e-07 -2.67561e-22 0)
(-2.5e-07 -1.77629e-22 0)
(-2.5e-07 -1.13497e-22 0)
(-2.5e-07 -1.13886e-22 0)
(-2.5e-07 -7.04642e-23 0)
(-2.5e-07 -2.65567e-23 0)
(-2.5e-07 -3.23825e-15 0)
(-2.5e-07 7.68163e-16 0)
(-2.5e-07 -1.82235e-16 0)
(-2.5e-07 4.32111e-17 0)
(-2.5e-07 -1.02662e-17 0)
(-2.5e-07 2.42223e-18 0)
(-2.5e-07 -5.84751e-19 0)
(-2.5e-07 1.31209e-19 0)
(-2.5e-07 -3.65533e-20 0)
(-2.5e-07 4.82098e-21 0)
(-2.5e-07 -3.81268e-21 0)
(-2.5e-07 -8.93675e-22 0)
(-2.5e-07 -9.56151e-22 0)
(-2.5e-07 -5.33047e-22 0)
(-2.5e-07 -3.79979e-22 0)
(-2.5e-07 -2.76987e-22 0)
(-2.5e-07 -2.03908e-22 0)
(-2.5e-07 -1.49654e-22 0)
(-2.5e-07 -9.13158e-23 0)
(-2.5e-07 -2.77291e-23 0)
(-2.5e-07 3.23486e-15 0)
(-2.5e-07 -7.67365e-16 0)
(-2.5e-07 1.81998e-16 0)
(-2.5e-07 -4.31984e-17 0)
(-2.5e-07 1.02232e-17 0)
(-2.5e-07 -2.44237e-18 0)
(-2.5e-07 5.66867e-19 0)
(-2.5e-07 -1.43088e-19 0)
(-2.5e-07 2.79686e-20 0)
(-2.5e-07 -1.0713e-20 0)
(-2.5e-07 -2.24624e-22 0)
(-2.5e-07 -1.80251e-21 0)
(-2.5e-07 -8.03552e-22 0)
(-2.5e-07 -6.48334e-22 0)
(-2.5e-07 -4.00258e-22 0)
(-2.5e-07 -2.61163e-22 0)
(-2.5e-07 -2.03736e-22 0)
(-2.5e-07 -1.4613e-22 0)
(-2.5e-07 -7.99855e-23 0)
(-2.5e-07 -2.75627e-23 0)
(-2.5e-07 -3.231e-15 0)
(-2.5e-07 7.66424e-16 0)
(-2.5e-07 -1.81878e-16 0)
(-2.5e-07 4.30983e-17 0)
(-2.5e-07 -1.0258e-17 0)
(-2.5e-07 2.41291e-18 0)
(-2.5e-07 -5.85864e-19 0)
(-2.5e-07 1.30513e-19 0)
(-2.5e-07 -3.65538e-20 0)
(-2.5e-07 4.98521e-21 0)
(-2.5e-07 -3.67395e-21 0)
(-2.5e-07 -8.09374e-22 0)
(-2.5e-07 -9.35265e-22 0)
(-2.5e-07 -5.26718e-22 0)
(-2.5e-07 -3.66066e-22 0)
(-2.5e-07 -2.34719e-22 0)
(-2.5e-07 -1.73538e-22 0)
(-2.5e-07 -1.09893e-22 0)
(-2.5e-07 -4.97463e-23 0)
(-2.5e-07 -9.24331e-24 0)
(-2.5e-07 3.22862e-15 0)
(-2.5e-07 -7.65956e-16 0)
(-2.5e-07 1.8149e-16 0)
(-2.5e-07 -4.30953e-17 0)
(-2.5e-07 1.01776e-17 0)
(-2.5e-07 -2.43028e-18 0)
(-2.5e-07 5.64788e-19 0)
(-2.5e-07 -1.40114e-19 0)
(-2.5e-07 2.91294e-20 0)
(-2.5e-07 -9.49283e-21 0)
(-2.5e-07 5.07879e-22 0)
(-2.5e-07 -1.2969e-21 0)
(-2.5e-07 -4.94817e-22 0)
(-2.5e-07 -3.96702e-22 0)
(-2.5e-07 -2.37544e-22 0)
(-2.5e-07 -1.78904e-22 0)
(-2.5e-07 -1.10224e-22 0)
(-2.5e-07 -6.7033e-23 0)
(-2.5e-07 -3.51133e-23 0)
(-2.5e-07 -6.86201e-24 0)
(-2.5e-07 -3.22549e-15 0)
(-2.5e-07 7.65092e-16 0)
(-2.5e-07 -1.81672e-16 0)
(-2.5e-07 4.30838e-17 0)
(-2.5e-07 -1.02456e-17 0)
(-2.5e-07 2.42551e-18 0)
(-2.5e-07 -5.80372e-19 0)
(-2.5e-07 1.3555e-19 0)
(-2.5e-07 -3.36926e-20 0)
(-2.5e-07 7.07603e-21 0)
(-2.5e-07 -2.30636e-21 0)
(-2.5e-07 1.15587e-22 0)
(-2.5e-07 -3.34921e-22 0)
(-2.5e-07 -1.10604e-22 0)
(-2.5e-07 -8.1861e-23 0)
(-2.5e-07 -4.93715e-23 0)
(-2.5e-07 -2.7649e-23 0)
(-2.5e-07 -2.87726e-23 0)
(-2.5e-07 -2.04385e-23 0)
(-2.5e-07 -1.35654e-23 0)
)
;

boundaryField
{
    movingWall
    {
        type            calculated;
        value           uniform (0 0 0);
    }
    fixedWalls
    {
        type            calculated;
        value           uniform (0 0 0);
    }
    frontAndBack
    {
        type            empty;
    }
}


// ************************************************************************* //
