/*--------------------------------*- C++ -*----------------------------------*\
| =========                 |                                                 |
| \\      /  F ield         | OpenFOAM: The Open Source CFD Toolbox           |
|  \\    /   O peration     | Version:  2312                                  |
|   \\  /    A nd           | Website:  www.openfoam.com                      |
|    \\/     M anipulation  |                                                 |
\*---------------------------------------------------------------------------*/
FoamFile
{
    version     2.0;
    format      ascii;
    arch        "LSB;label=32;scalar=64";
    class       volVectorField;
    location    "4.5";
    object      norm_U_L1;
}
// * * * * * * * * * * * * * * * * * * * * * * * * * * * * * * * * * * * * * //

dimensions      [0 0 0 0 0 0 0];

internalField   nonuniform List<vector> 
400
(
(-0.0025 3.332e-11 0)
(-0.0025 -7.9109e-12 0)
(-0.0025 1.88029e-12 0)
(-0.0025 -4.45992e-13 0)
(-0.0025 1.06283e-13 0)
(-0.0025 -2.51235e-14 0)
(-0.0025 6.0462e-15 0)
(-0.0025 -1.39619e-15 0)
(-0.0025 3.58587e-16 0)
(-0.0025 -6.83299e-17 0)
(-0.0025 2.79071e-17 0)
(-0.0025 1.5713e-18 0)
(-0.0025 5.55363e-18 0)
(-0.0025 2.85954e-18 0)
(-0.0025 2.40606e-18 0)
(-0.0025 1.89649e-18 0)
(-0.0025 1.14579e-18 0)
(-0.0025 5.86383e-19 0)
(-0.0025 3.17888e-19 0)
(-0.0025 4.96126e-20 0)
(-0.0025 -3.3315e-11 0)
(-0.0025 7.91749e-12 0)
(-0.0025 -1.87614e-12 0)
(-0.0025 4.4652e-13 0)
(-0.0025 -1.05334e-13 0)
(-0.0025 2.53041e-14 0)
(-0.0025 -5.8156e-15 0)
(-0.0025 1.49085e-15 0)
(-0.0025 -2.80854e-16 0)
(-0.0025 1.14644e-16 0)
(-0.0025 6.02643e-18 0)
(-0.0025 2.20661e-17 0)
(-0.0025 1.17639e-17 0)
(-0.0025 9.35709e-18 0)
(-0.0025 6.3447e-18 0)
(-0.0025 4.7953e-18 0)
(-0.0025 3.26715e-18 0)
(-0.0025 1.83595e-18 0)
(-0.0025 9.46452e-19 0)
(-0.0025 2.77497e-19 0)
(-0.0025 3.32445e-11 0)
(-0.0025 -7.89327e-12 0)
(-0.0025 1.87409e-12 0)
(-0.0025 -4.44097e-13 0)
(-0.0025 1.05989e-13 0)
(-0.0025 -2.48044e-14 0)
(-0.0025 6.11949e-15 0)
(-0.0025 -1.30311e-15 0)
(-0.0025 4.1084e-16 0)
(-0.0025 -2.75381e-17 0)
(-0.0025 5.59518e-17 0)
(-0.0025 2.18131e-17 0)
(-0.0025 2.00677e-17 0)
(-0.0025 1.35436e-17 0)
(-0.0025 1.01255e-17 0)
(-0.0025 7.33832e-18 0)
(-0.0025 5.0727e-18 0)
(-0.0025 3.05951e-18 0)
(-0.0025 1.74235e-18 0)
(-0.0025 5.53288e-19 0)
(-0.0025 -3.31677e-11 0)
(-0.0025 7.87049e-12 0)
(-0.0025 -1.86687e-12 0)
(-0.0025 4.43353e-13 0)
(-0.0025 -1.0481e-13 0)
(-0.0025 2.51594e-14 0)
(-0.0025 -5.7527e-15 0)
(-0.0025 1.52014e-15 0)
(-0.0025 -2.49313e-16 0)
(-0.0025 1.39187e-16 0)
(-0.0025 2.49622e-17 0)
(-0.0025 3.60849e-17 0)
(-0.0025 2.22485e-17 0)
(-0.0025 1.77427e-17 0)
(-0.0025 1.32738e-17 0)
(-0.0025 9.78634e-18 0)
(-0.0025 6.61657e-18 0)
(-0.0025 4.08757e-18 0)
(-0.0025 2.39293e-18 0)
(-0.0025 7.36932e-19 0)
(-0.0025 3.30692e-11 0)
(-0.0025 -7.84397e-12 0)
(-0.0025 1.86107e-12 0)
(-0.0025 -4.41158e-13 0)
(-0.0025 1.04915e-13 0)
(-0.0025 -2.46594e-14 0)
(-0.0025 6.03196e-15 0)
(-0.0025 -1.28962e-15 0)
(-0.0025 4.12766e-16 0)
(-0.0025 -1.76656e-17 0)
(-0.0025 6.40708e-17 0)
(-0.0025 2.94274e-17 0)
(-0.0025 2.67666e-17 0)
(-0.0025 1.95445e-17 0)
(-0.0025 1.49115e-17 0)
(-0.0025 1.06403e-17 0)
(-0.0025 7.25707e-18 0)
(-0.0025 4.64466e-18 0)
(-0.0025 2.59596e-18 0)
(-0.0025 8.93595e-19 0)
(-0.0025 -3.29784e-11 0)
(-0.0025 7.82115e-12 0)
(-0.0025 -1.8551e-12 0)
(-0.0025 4.40164e-13 0)
(-0.0025 -1.04197e-13 0)
(-0.0025 2.48887e-14 0)
(-0.0025 -5.75451e-15 0)
(-0.0025 1.48482e-15 0)
(-0.0025 -2.56801e-16 0)
(-0.0025 1.35527e-16 0)
(-0.0025 2.58135e-17 0)
(-0.0025 3.83309e-17 0)
(-0.0025 2.46294e-17 0)
(-0.0025 1.98164e-17 0)
(-0.0025 1.47872e-17 0)
(-0.0025 1.08192e-17 0)
(-0.0025 7.44868e-18 0)
(-0.0025 4.62037e-18 0)
(-0.0025 2.58403e-18 0)
(-0.0025 8.69294e-19 0)
(-0.0025 3.28854e-11 0)
(-0.0025 -7.79851e-12 0)
(-0.0025 1.84994e-12 0)
(-0.0025 -4.38603e-13 0)
(-0.0025 1.04154e-13 0)
(-0.0025 -2.45736e-14 0)
(-0.0025 5.94215e-15 0)
(-0.0025 -1.31182e-15 0)
(-0.0025 3.91224e-16 0)
(-0.0025 -2.80356e-17 0)
(-0.0025 5.84498e-17 0)
(-0.0025 2.70178e-17 0)
(-0.0025 2.4969e-17 0)
(-0.0025 1.79308e-17 0)
(-0.0025 1.3943e-17 0)
(-0.0025 1.04181e-17 0)
(-0.0025 7.37978e-18 0)
(-0.0025 4.67774e-18 0)
(-0.0025 2.70541e-18 0)
(-0.0025 8.04636e-19 0)
(-0.0025 -3.28052e-11 0)
(-0.0025 7.77969e-12 0)
(-0.0025 -1.84528e-12 0)
(-0.0025 4.37726e-13 0)
(-0.0025 -1.03712e-13 0)
(-0.0025 2.46926e-14 0)
(-0.0025 -5.77015e-15 0)
(-0.0025 1.4436e-15 0)
(-0.0025 -2.7832e-16 0)
(-0.0025 1.19054e-16 0)
(-0.0025 1.47164e-17 0)
(-0.0025 3.09985e-17 0)
(-0.0025 2.00225e-17 0)
(-0.0025 1.65457e-17 0)
(-0.0025 1.22051e-17 0)
(-0.0025 9.24592e-18 0)
(-0.0025 6.82897e-18 0)
(-0.0025 4.50748e-18 0)
(-0.0025 2.50563e-18 0)
(-0.0025 7.21853e-19 0)
(-0.0025 3.27295e-11 0)
(-0.0025 -7.76205e-12 0)
(-0.0025 1.84122e-12 0)
(-0.0025 -4.36631e-13 0)
(-0.0025 1.03618e-13 0)
(-0.0025 -2.45132e-14 0)
(-0.0025 5.87347e-15 0)
(-0.0025 -1.33915e-15 0)
(-0.0025 3.64897e-16 0)
(-0.0025 -4.63099e-17 0)
(-0.0025 4.42095e-17 0)
(-0.0025 1.66183e-17 0)
(-0.0025 1.79607e-17 0)
(-0.0025 1.31246e-17 0)
(-0.0025 1.04943e-17 0)
(-0.0025 7.83984e-18 0)
(-0.0025 5.73278e-18 0)
(-0.0025 3.55137e-18 0)
(-0.0025 1.84647e-18 0)
(-0.0025 6.28085e-19 0)
(-0.0025 -3.26651e-11 0)
(-0.0025 7.7473e-12 0)
(-0.0025 -1.83767e-12 0)
(-0.0025 4.35901e-13 0)
(-0.0025 -1.03349e-13 0)
(-0.0025 2.45519e-14 0)
(-0.0025 -5.78629e-15 0)
(-0.0025 1.40653e-15 0)
(-0.0025 -3.03184e-16 0)
(-0.0025 9.86492e-17 0)
(-0.0025 -2.07783e-19 0)
(-0.0025 1.97692e-17 0)
(-0.0025 1.15844e-17 0)
(-0.0025 1.03424e-17 0)
(-0.0025 7.79295e-18 0)
(-0.0025 6.16994e-18 0)
(-0.0025 4.36074e-18 0)
(-0.0025 2.6191e-18 0)
(-0.0025 1.50029e-18 0)
(-0.0025 6.52676e-19 0)
(-0.0025 3.26062e-11 0)
(-0.0025 -7.73378e-12 0)
(-0.0025 1.83452e-12 0)
(-0.0025 -4.35127e-13 0)
(-0.0025 1.03221e-13 0)
(-0.0025 -2.44695e-14 0)
(-0.0025 5.81955e-15 0)
(-0.0025 -1.36492e-15 0)
(-0.0025 3.38236e-16 0)
(-0.0025 -6.67641e-17 0)
(-0.0025 2.83695e-17 0)
(-0.0025 4.65979e-18 0)
(-0.0025 8.88606e-18 0)
(-0.0025 6.34472e-18 0)
(-0.0025 5.40786e-18 0)
(-0.0025 4.22826e-18 0)
(-0.0025 3.14457e-18 0)
(-0.0025 1.87922e-18 0)
(-0.0025 1.15436e-18 0)
(-0.0025 3.6118e-19 0)
(-0.0025 -3.25543e-11 0)
(-0.0025 7.72191e-12 0)
(-0.0025 -1.83172e-12 0)
(-0.0025 4.34481e-13 0)
(-0.0025 -1.03068e-13 0)
(-0.0025 2.44404e-14 0)
(-0.0025 -5.80364e-15 0)
(-0.0025 1.37293e-15 0)
(-0.0025 -3.26933e-16 0)
(-0.0025 7.82914e-17 0)
(-0.0025 -1.61901e-17 0)
(-0.0025 7.04034e-18 0)
(-0.0025 1.95604e-18 0)
(-0.0025 3.14307e-18 0)
(-0.0025 2.98938e-18 0)
(-0.0025 2.61422e-18 0)
(-0.0025 1.91753e-18 0)
(-0.0025 1.21032e-18 0)
(-0.0025 6.59466e-19 0)
(-0.0025 9.95019e-20 0)
(-0.0025 3.25073e-11 0)
(-0.0025 -7.71105e-12 0)
(-0.0025 1.82913e-12 0)
(-0.0025 -4.33918e-13 0)
(-0.0025 1.02891e-13 0)
(-0.0025 -2.44409e-14 0)
(-0.0025 5.7692e-15 0)
(-0.0025 -1.39064e-15 0)
(-0.0025 3.13895e-16 0)
(-0.0025 -8.53689e-17 0)
(-0.0025 1.33199e-17 0)
(-0.0025 -6.97953e-18 0)
(-0.0025 1.28502e-19 0)
(-0.0025 -3.18301e-19 0)
(-0.0025 3.31343e-19 0)
(-0.0025 6.97256e-19 0)
(-0.0025 7.2132e-19 0)
(-0.0025 5.49649e-19 0)
(-0.0025 1.9817e-19 0)
(-0.0025 -4.91184e-21 0)
(-0.0025 -3.24629e-11 0)
(-0.0025 7.70068e-12 0)
(-0.0025 -1.82676e-12 0)
(-0.0025 4.33262e-13 0)
(-0.0025 -1.02842e-13 0)
(-0.0025 2.43346e-14 0)
(-0.0025 -5.82392e-15 0)
(-0.0025 1.3409e-15 0)
(-0.0025 -3.48262e-16 0)
(-0.0025 6.11783e-17 0)
(-0.0025 -2.95819e-17 0)
(-0.0025 -3.31744e-18 0)
(-0.0025 -6.12357e-18 0)
(-0.0025 -2.67822e-18 0)
(-0.0025 -1.69745e-18 0)
(-0.0025 -6.47582e-19 0)
(-0.0025 -2.68834e-19 0)
(-0.0025 -3.04221e-19 0)
(-0.0025 -2.74125e-19 0)
(-0.0025 -1.7633e-19 0)
(-0.0025 3.24233e-11 0)
(-0.0025 -7.69138e-12 0)
(-0.0025 1.8244e-12 0)
(-0.0025 -4.32877e-13 0)
(-0.0025 1.02576e-13 0)
(-0.0025 -2.44261e-14 0)
(-0.0025 5.71784e-15 0)
(-0.0025 -1.41516e-15 0)
(-0.0025 2.92236e-16 0)
(-0.0025 -1.0034e-16 0)
(-0.0025 1.92248e-18 0)
(-0.0025 -1.57754e-17 0)
(-0.0025 -6.78636e-18 0)
(-0.0025 -4.98328e-18 0)
(-0.0025 -2.67561e-18 0)
(-0.0025 -1.77629e-18 0)
(-0.0025 -1.13497e-18 0)
(-0.0025 -1.13886e-18 0)
(-0.0025 -7.04642e-19 0)
(-0.0025 -2.65567e-19 0)
(-0.0025 -3.23825e-11 0)
(-0.0025 7.68163e-12 0)
(-0.0025 -1.82235e-12 0)
(-0.0025 4.32111e-13 0)
(-0.0025 -1.02662e-13 0)
(-0.0025 2.42223e-14 0)
(-0.0025 -5.84751e-15 0)
(-0.0025 1.31209e-15 0)
(-0.0025 -3.65533e-16 0)
(-0.0025 4.82098e-17 0)
(-0.0025 -3.81268e-17 0)
(-0.0025 -8.93675e-18 0)
(-0.0025 -9.56151e-18 0)
(-0.0025 -5.33047e-18 0)
(-0.0025 -3.79979e-18 0)
(-0.0025 -2.76987e-18 0)
(-0.0025 -2.03908e-18 0)
(-0.0025 -1.49654e-18 0)
(-0.0025 -9.13158e-19 0)
(-0.0025 -2.77291e-19 0)
(-0.0025 3.23486e-11 0)
(-0.0025 -7.67365e-12 0)
(-0.0025 1.81998e-12 0)
(-0.0025 -4.31984e-13 0)
(-0.0025 1.02232e-13 0)
(-0.0025 -2.44237e-14 0)
(-0.0025 5.66867e-15 0)
(-0.0025 -1.43088e-15 0)
(-0.0025 2.79686e-16 0)
(-0.0025 -1.0713e-16 0)
(-0.0025 -2.24624e-18 0)
(-0.0025 -1.80251e-17 0)
(-0.0025 -8.03552e-18 0)
(-0.0025 -6.48334e-18 0)
(-0.0025 -4.00258e-18 0)
(-0.0025 -2.61163e-18 0)
(-0.0025 -2.03736e-18 0)
(-0.0025 -1.4613e-18 0)
(-0.0025 -7.99855e-19 0)
(-0.0025 -2.75627e-19 0)
(-0.0025 -3.231e-11 0)
(-0.0025 7.66424e-12 0)
(-0.0025 -1.81878e-12 0)
(-0.0025 4.30983e-13 0)
(-0.0025 -1.0258e-13 0)
(-0.0025 2.41291e-14 0)
(-0.0025 -5.85864e-15 0)
(-0.0025 1.30513e-15 0)
(-0.0025 -3.65538e-16 0)
(-0.0025 4.98521e-17 0)
(-0.0025 -3.67395e-17 0)
(-0.0025 -8.09374e-18 0)
(-0.0025 -9.35265e-18 0)
(-0.0025 -5.26718e-18 0)
(-0.0025 -3.66066e-18 0)
(-0.0025 -2.34719e-18 0)
(-0.0025 -1.73538e-18 0)
(-0.0025 -1.09893e-18 0)
(-0.0025 -4.97463e-19 0)
(-0.0025 -9.24331e-20 0)
(-0.0025 3.22862e-11 0)
(-0.0025 -7.65956e-12 0)
(-0.0025 1.8149e-12 0)
(-0.0025 -4.30953e-13 0)
(-0.0025 1.01776e-13 0)
(-0.0025 -2.43028e-14 0)
(-0.0025 5.64788e-15 0)
(-0.0025 -1.40114e-15 0)
(-0.0025 2.91294e-16 0)
(-0.0025 -9.49283e-17 0)
(-0.0025 5.07879e-18 0)
(-0.0025 -1.2969e-17 0)
(-0.0025 -4.94817e-18 0)
(-0.0025 -3.96702e-18 0)
(-0.0025 -2.37544e-18 0)
(-0.0025 -1.78904e-18 0)
(-0.0025 -1.10224e-18 0)
(-0.0025 -6.7033e-19 0)
(-0.0025 -3.51133e-19 0)
(-0.0025 -6.86201e-20 0)
(-0.0025 -3.22549e-11 0)
(-0.0025 7.65092e-12 0)
(-0.0025 -1.81672e-12 0)
(-0.0025 4.30838e-13 0)
(-0.0025 -1.02456e-13 0)
(-0.0025 2.42551e-14 0)
(-0.0025 -5.80372e-15 0)
(-0.0025 1.3555e-15 0)
(-0.0025 -3.36926e-16 0)
(-0.0025 7.07603e-17 0)
(-0.0025 -2.30636e-17 0)
(-0.0025 1.15587e-18 0)
(-0.0025 -3.34921e-18 0)
(-0.0025 -1.10604e-18 0)
(-0.0025 -8.1861e-19 0)
(-0.0025 -4.93715e-19 0)
(-0.0025 -2.7649e-19 0)
(-0.0025 -2.87726e-19 0)
(-0.0025 -2.04385e-19 0)
(-0.0025 -1.35654e-19 0)
)
;

boundaryField
{
    movingWall
    {
        type            calculated;
        value           uniform (-0.0025 -0 -0);
    }
    fixedWalls
    {
        type            calculated;
        value           uniform (-0.0025 -0 -0);
    }
    frontAndBack
    {
        type            empty;
    }
}


// ************************************************************************* //
