/*--------------------------------*- C++ -*----------------------------------*\
| =========                 |                                                 |
| \\      /  F ield         | OpenFOAM: The Open Source CFD Toolbox           |
|  \\    /   O peration     | Version:  2312                                  |
|   \\  /    A nd           | Website:  www.openfoam.com                      |
|    \\/     M anipulation  |                                                 |
\*---------------------------------------------------------------------------*/
FoamFile
{
    version     2.0;
    format      ascii;
    arch        "LSB;label=32;scalar=64";
    class       volVectorField;
    location    "4.5";
    object      norm_U_composite;
}
// * * * * * * * * * * * * * * * * * * * * * * * * * * * * * * * * * * * * * //

dimensions      [0 0 0 0 0 0 0];

internalField   nonuniform List<vector> 
400
(
(-0.5 6.664e-09 0)
(-0.5 -1.58218e-09 0)
(-0.5 3.76058e-10 0)
(-0.5 -8.91985e-11 0)
(-0.5 2.12565e-11 0)
(-0.5 -5.0247e-12 0)
(-0.5 1.20924e-12 0)
(-0.5 -2.79238e-13 0)
(-0.5 7.17174e-14 0)
(-0.5 -1.3666e-14 0)
(-0.5 5.58142e-15 0)
(-0.5 3.1426e-16 0)
(-0.5 1.11073e-15 0)
(-0.5 5.71907e-16 0)
(-0.5 4.81212e-16 0)
(-0.5 3.79299e-16 0)
(-0.5 2.29158e-16 0)
(-0.5 1.17277e-16 0)
(-0.5 6.35777e-17 0)
(-0.5 9.92253e-18 0)
(-0.5 -6.66299e-09 0)
(-0.5 1.5835e-09 0)
(-0.5 -3.75228e-10 0)
(-0.5 8.93041e-11 0)
(-0.5 -2.10669e-11 0)
(-0.5 5.06083e-12 0)
(-0.5 -1.16312e-12 0)
(-0.5 2.9817e-13 0)
(-0.5 -5.61708e-14 0)
(-0.5 2.29288e-14 0)
(-0.5 1.20529e-15 0)
(-0.5 4.41322e-15 0)
(-0.5 2.35278e-15 0)
(-0.5 1.87142e-15 0)
(-0.5 1.26894e-15 0)
(-0.5 9.5906e-16 0)
(-0.5 6.5343e-16 0)
(-0.5 3.6719e-16 0)
(-0.5 1.8929e-16 0)
(-0.5 5.54995e-17 0)
(-0.5 6.6489e-09 0)
(-0.5 -1.57865e-09 0)
(-0.5 3.74817e-10 0)
(-0.5 -8.88195e-11 0)
(-0.5 2.11978e-11 0)
(-0.5 -4.96088e-12 0)
(-0.5 1.2239e-12 0)
(-0.5 -2.60621e-13 0)
(-0.5 8.21681e-14 0)
(-0.5 -5.50761e-15 0)
(-0.5 1.11904e-14 0)
(-0.5 4.36263e-15 0)
(-0.5 4.01353e-15 0)
(-0.5 2.70873e-15 0)
(-0.5 2.0251e-15 0)
(-0.5 1.46766e-15 0)
(-0.5 1.01454e-15 0)
(-0.5 6.11902e-16 0)
(-0.5 3.48469e-16 0)
(-0.5 1.10658e-16 0)
(-0.5 -6.63355e-09 0)
(-0.5 1.5741e-09 0)
(-0.5 -3.73374e-10 0)
(-0.5 8.86706e-11 0)
(-0.5 -2.09621e-11 0)
(-0.5 5.03188e-12 0)
(-0.5 -1.15054e-12 0)
(-0.5 3.04028e-13 0)
(-0.5 -4.98625e-14 0)
(-0.5 2.78373e-14 0)
(-0.5 4.99244e-15 0)
(-0.5 7.21699e-15 0)
(-0.5 4.44969e-15 0)
(-0.5 3.54855e-15 0)
(-0.5 2.65476e-15 0)
(-0.5 1.95727e-15 0)
(-0.5 1.32331e-15 0)
(-0.5 8.17513e-16 0)
(-0.5 4.78587e-16 0)
(-0.5 1.47386e-16 0)
(-0.5 6.61383e-09 0)
(-0.5 -1.56879e-09 0)
(-0.5 3.72214e-10 0)
(-0.5 -8.82315e-11 0)
(-0.5 2.09829e-11 0)
(-0.5 -4.93188e-12 0)
(-0.5 1.20639e-12 0)
(-0.5 -2.57924e-13 0)
(-0.5 8.25533e-14 0)
(-0.5 -3.53313e-15 0)
(-0.5 1.28142e-14 0)
(-0.5 5.88547e-15 0)
(-0.5 5.35332e-15 0)
(-0.5 3.90891e-15 0)
(-0.5 2.98229e-15 0)
(-0.5 2.12805e-15 0)
(-0.5 1.45141e-15 0)
(-0.5 9.28933e-16 0)
(-0.5 5.19192e-16 0)
(-0.5 1.78719e-16 0)
(-0.5 -6.59568e-09 0)
(-0.5 1.56423e-09 0)
(-0.5 -3.71019e-10 0)
(-0.5 8.80327e-11 0)
(-0.5 -2.08394e-11 0)
(-0.5 4.97774e-12 0)
(-0.5 -1.1509e-12 0)
(-0.5 2.96964e-13 0)
(-0.5 -5.13602e-14 0)
(-0.5 2.71054e-14 0)
(-0.5 5.16271e-15 0)
(-0.5 7.66618e-15 0)
(-0.5 4.92588e-15 0)
(-0.5 3.96329e-15 0)
(-0.5 2.95744e-15 0)
(-0.5 2.16384e-15 0)
(-0.5 1.48974e-15 0)
(-0.5 9.24074e-16 0)
(-0.5 5.16806e-16 0)
(-0.5 1.73859e-16 0)
(-0.5 6.57708e-09 0)
(-0.5 -1.5597e-09 0)
(-0.5 3.69988e-10 0)
(-0.5 -8.77206e-11 0)
(-0.5 2.08308e-11 0)
(-0.5 -4.91471e-12 0)
(-0.5 1.18843e-12 0)
(-0.5 -2.62364e-13 0)
(-0.5 7.82448e-14 0)
(-0.5 -5.60712e-15 0)
(-0.5 1.169e-14 0)
(-0.5 5.40356e-15 0)
(-0.5 4.99381e-15 0)
(-0.5 3.58617e-15 0)
(-0.5 2.78859e-15 0)
(-0.5 2.08362e-15 0)
(-0.5 1.47596e-15 0)
(-0.5 9.35547e-16 0)
(-0.5 5.41081e-16 0)
(-0.5 1.60927e-16 0)
(-0.5 -6.56105e-09 0)
(-0.5 1.55594e-09 0)
(-0.5 -3.69056e-10 0)
(-0.5 8.75452e-11 0)
(-0.5 -2.07424e-11 0)
(-0.5 4.93852e-12 0)
(-0.5 -1.15403e-12 0)
(-0.5 2.88721e-13 0)
(-0.5 -5.56641e-14 0)
(-0.5 2.38107e-14 0)
(-0.5 2.94328e-15 0)
(-0.5 6.1997e-15 0)
(-0.5 4.00451e-15 0)
(-0.5 3.30915e-15 0)
(-0.5 2.44103e-15 0)
(-0.5 1.84918e-15 0)
(-0.5 1.36579e-15 0)
(-0.5 9.01496e-16 0)
(-0.5 5.01126e-16 0)
(-0.5 1.44371e-16 0)
(-0.5 6.54591e-09 0)
(-0.5 -1.55241e-09 0)
(-0.5 3.68245e-10 0)
(-0.5 -8.73262e-11 0)
(-0.5 2.07236e-11 0)
(-0.5 -4.90263e-12 0)
(-0.5 1.17469e-12 0)
(-0.5 -2.6783e-13 0)
(-0.5 7.29794e-14 0)
(-0.5 -9.26198e-15 0)
(-0.5 8.8419e-15 0)
(-0.5 3.32367e-15 0)
(-0.5 3.59214e-15 0)
(-0.5 2.62491e-15 0)
(-0.5 2.09887e-15 0)
(-0.5 1.56797e-15 0)
(-0.5 1.14656e-15 0)
(-0.5 7.10274e-16 0)
(-0.5 3.69295e-16 0)
(-0.5 1.25617e-16 0)
(-0.5 -6.53301e-09 0)
(-0.5 1.54946e-09 0)
(-0.5 -3.67534e-10 0)
(-0.5 8.71803e-11 0)
(-0.5 -2.06698e-11 0)
(-0.5 4.91037e-12 0)
(-0.5 -1.15726e-12 0)
(-0.5 2.81306e-13 0)
(-0.5 -6.06369e-14 0)
(-0.5 1.97298e-14 0)
(-0.5 -4.15566e-17 0)
(-0.5 3.95384e-15 0)
(-0.5 2.31688e-15 0)
(-0.5 2.06848e-15 0)
(-0.5 1.55859e-15 0)
(-0.5 1.23399e-15 0)
(-0.5 8.72148e-16 0)
(-0.5 5.2382e-16 0)
(-0.5 3.00058e-16 0)
(-0.5 1.30535e-16 0)
(-0.5 6.52123e-09 0)
(-0.5 -1.54676e-09 0)
(-0.5 3.66905e-10 0)
(-0.5 -8.70254e-11 0)
(-0.5 2.06442e-11 0)
(-0.5 -4.89391e-12 0)
(-0.5 1.16391e-12 0)
(-0.5 -2.72984e-13 0)
(-0.5 6.76471e-14 0)
(-0.5 -1.33528e-14 0)
(-0.5 5.6739e-15 0)
(-0.5 9.31958e-16 0)
(-0.5 1.77721e-15 0)
(-0.5 1.26894e-15 0)
(-0.5 1.08157e-15 0)
(-0.5 8.45651e-16 0)
(-0.5 6.28915e-16 0)
(-0.5 3.75845e-16 0)
(-0.5 2.30871e-16 0)
(-0.5 7.22359e-17 0)
(-0.5 -6.51087e-09 0)
(-0.5 1.54438e-09 0)
(-0.5 -3.66345e-10 0)
(-0.5 8.68962e-11 0)
(-0.5 -2.06136e-11 0)
(-0.5 4.88808e-12 0)
(-0.5 -1.16073e-12 0)
(-0.5 2.74586e-13 0)
(-0.5 -6.53866e-14 0)
(-0.5 1.56583e-14 0)
(-0.5 -3.23802e-15 0)
(-0.5 1.40807e-15 0)
(-0.5 3.91208e-16 0)
(-0.5 6.28613e-16 0)
(-0.5 5.97875e-16 0)
(-0.5 5.22844e-16 0)
(-0.5 3.83506e-16 0)
(-0.5 2.42064e-16 0)
(-0.5 1.31893e-16 0)
(-0.5 1.99004e-17 0)
(-0.5 6.50147e-09 0)
(-0.5 -1.54221e-09 0)
(-0.5 3.65826e-10 0)
(-0.5 -8.67835e-11 0)
(-0.5 2.05783e-11 0)
(-0.5 -4.88819e-12 0)
(-0.5 1.15384e-12 0)
(-0.5 -2.78128e-13 0)
(-0.5 6.27789e-14 0)
(-0.5 -1.70738e-14 0)
(-0.5 2.66398e-15 0)
(-0.5 -1.39591e-15 0)
(-0.5 2.57003e-17 0)
(-0.5 -6.36602e-17 0)
(-0.5 6.62687e-17 0)
(-0.5 1.39451e-16 0)
(-0.5 1.44264e-16 0)
(-0.5 1.0993e-16 0)
(-0.5 3.96341e-17 0)
(-0.5 -9.82368e-19 0)
(-0.5 -6.49258e-09 0)
(-0.5 1.54014e-09 0)
(-0.5 -3.65351e-10 0)
(-0.5 8.66524e-11 0)
(-0.5 -2.05683e-11 0)
(-0.5 4.86691e-12 0)
(-0.5 -1.16478e-12 0)
(-0.5 2.68181e-13 0)
(-0.5 -6.96524e-14 0)
(-0.5 1.22357e-14 0)
(-0.5 -5.91637e-15 0)
(-0.5 -6.63488e-16 0)
(-0.5 -1.22471e-15 0)
(-0.5 -5.35643e-16 0)
(-0.5 -3.39489e-16 0)
(-0.5 -1.29516e-16 0)
(-0.5 -5.37668e-17 0)
(-0.5 -6.08442e-17 0)
(-0.5 -5.4825e-17 0)
(-0.5 -3.5266e-17 0)
(-0.5 6.48465e-09 0)
(-0.5 -1.53828e-09 0)
(-0.5 3.6488e-10 0)
(-0.5 -8.65754e-11 0)
(-0.5 2.05151e-11 0)
(-0.5 -4.88523e-12 0)
(-0.5 1.14357e-12 0)
(-0.5 -2.83033e-13 0)
(-0.5 5.84471e-14 0)
(-0.5 -2.0068e-14 0)
(-0.5 3.84497e-16 0)
(-0.5 -3.15509e-15 0)
(-0.5 -1.35727e-15 0)
(-0.5 -9.96657e-16 0)
(-0.5 -5.35121e-16 0)
(-0.5 -3.55259e-16 0)
(-0.5 -2.26993e-16 0)
(-0.5 -2.27771e-16 0)
(-0.5 -1.40928e-16 0)
(-0.5 -5.31135e-17 0)
(-0.5 -6.4765e-09 0)
(-0.5 1.53633e-09 0)
(-0.5 -3.64469e-10 0)
(-0.5 8.64223e-11 0)
(-0.5 -2.05325e-11 0)
(-0.5 4.84446e-12 0)
(-0.5 -1.1695e-12 0)
(-0.5 2.62419e-13 0)
(-0.5 -7.31066e-14 0)
(-0.5 9.64196e-15 0)
(-0.5 -7.62535e-15 0)
(-0.5 -1.78735e-15 0)
(-0.5 -1.9123e-15 0)
(-0.5 -1.06609e-15 0)
(-0.5 -7.59958e-16 0)
(-0.5 -5.53975e-16 0)
(-0.5 -4.07817e-16 0)
(-0.5 -2.99309e-16 0)
(-0.5 -1.82632e-16 0)
(-0.5 -5.54582e-17 0)
(-0.5 6.46973e-09 0)
(-0.5 -1.53473e-09 0)
(-0.5 3.63995e-10 0)
(-0.5 -8.63967e-11 0)
(-0.5 2.04463e-11 0)
(-0.5 -4.88473e-12 0)
(-0.5 1.13373e-12 0)
(-0.5 -2.86176e-13 0)
(-0.5 5.59372e-14 0)
(-0.5 -2.1426e-14 0)
(-0.5 -4.49249e-16 0)
(-0.5 -3.60503e-15 0)
(-0.5 -1.6071e-15 0)
(-0.5 -1.29667e-15 0)
(-0.5 -8.00516e-16 0)
(-0.5 -5.22326e-16 0)
(-0.5 -4.07473e-16 0)
(-0.5 -2.92261e-16 0)
(-0.5 -1.59971e-16 0)
(-0.5 -5.51254e-17 0)
(-0.5 -6.46201e-09 0)
(-0.5 1.53285e-09 0)
(-0.5 -3.63755e-10 0)
(-0.5 8.61966e-11 0)
(-0.5 -2.05159e-11 0)
(-0.5 4.82582e-12 0)
(-0.5 -1.17173e-12 0)
(-0.5 2.61025e-13 0)
(-0.5 -7.31075e-14 0)
(-0.5 9.97042e-15 0)
(-0.5 -7.34791e-15 0)
(-0.5 -1.61875e-15 0)
(-0.5 -1.87053e-15 0)
(-0.5 -1.05344e-15 0)
(-0.5 -7.32133e-16 0)
(-0.5 -4.69439e-16 0)
(-0.5 -3.47076e-16 0)
(-0.5 -2.19786e-16 0)
(-0.5 -9.94926e-17 0)
(-0.5 -1.84866e-17 0)
(-0.5 6.45724e-09 0)
(-0.5 -1.53191e-09 0)
(-0.5 3.62981e-10 0)
(-0.5 -8.61906e-11 0)
(-0.5 2.03552e-11 0)
(-0.5 -4.86057e-12 0)
(-0.5 1.12958e-12 0)
(-0.5 -2.80228e-13 0)
(-0.5 5.82588e-14 0)
(-0.5 -1.89857e-14 0)
(-0.5 1.01576e-15 0)
(-0.5 -2.59381e-15 0)
(-0.5 -9.89634e-16 0)
(-0.5 -7.93405e-16 0)
(-0.5 -4.75088e-16 0)
(-0.5 -3.57809e-16 0)
(-0.5 -2.20449e-16 0)
(-0.5 -1.34066e-16 0)
(-0.5 -7.02266e-17 0)
(-0.5 -1.3724e-17 0)
(-0.5 -6.45097e-09 0)
(-0.5 1.53018e-09 0)
(-0.5 -3.63345e-10 0)
(-0.5 8.61676e-11 0)
(-0.5 -2.04911e-11 0)
(-0.5 4.85101e-12 0)
(-0.5 -1.16074e-12 0)
(-0.5 2.711e-13 0)
(-0.5 -6.73852e-14 0)
(-0.5 1.41521e-14 0)
(-0.5 -4.61272e-15 0)
(-0.5 2.31175e-16 0)
(-0.5 -6.69843e-16 0)
(-0.5 -2.21208e-16 0)
(-0.5 -1.63722e-16 0)
(-0.5 -9.87431e-17 0)
(-0.5 -5.5298e-17 0)
(-0.5 -5.75453e-17 0)
(-0.5 -4.08769e-17 0)
(-0.5 -2.71308e-17 0)
)
;

boundaryField
{
    movingWall
    {
        type            calculated;
        value           uniform (-0.5 -0 -0);
    }
    fixedWalls
    {
        type            calculated;
        value           uniform (-0.5 -0 -0);
    }
    frontAndBack
    {
        type            empty;
    }
}


// ************************************************************************* //
