/*--------------------------------*- C++ -*----------------------------------*\
| =========                 |                                                 |
| \\      /  F ield         | OpenFOAM: The Open Source CFD Toolbox           |
|  \\    /   O peration     | Version:  2312                                  |
|   \\  /    A nd           | Website:  www.openfoam.com                      |
|    \\/     M anipulation  |                                                 |
\*---------------------------------------------------------------------------*/
FoamFile
{
    version     2.0;
    format      ascii;
    arch        "LSB;label=32;scalar=64";
    class       volScalarField;
    location    "4.5";
    object      norm_k_field;
}
// * * * * * * * * * * * * * * * * * * * * * * * * * * * * * * * * * * * * * //

dimensions      [0 0 0 0 0 0 0];

internalField   nonuniform List<scalar> 
400
(
1.23593e+10
1.93922e+10
1.13927e+07
2.04602e+08
5.04665e+07
1.53497e+08
1.51329e+08
2.3231e+08
2.72187e+08
3.31213e+08
3.74517e+08
4.16636e+08
4.49919e+08
4.78845e+08
5.00726e+08
5.13366e+08
5.23914e+08
5.36326e+08
5.43573e+08
5.44036e+08
2.60796e+08
1.58737e+07
1.26316e+08
1.34503e+08
1.56541e+08
1.93955e+08
2.32675e+08
2.91025e+08
3.4441e+08
3.9735e+08
4.4553e+08
4.8979e+08
5.2466e+08
5.52563e+08
5.74922e+08
5.92065e+08
6.01253e+08
6.10832e+08
6.16149e+08
6.17061e+08
2.5334e+10
2.53339e+10
2.5329e+10
2.5327e+10
2.54654e+08
4.78368e+08
3.70409e+08
4.37765e+08
4.71083e+08
5.18851e+08
5.59682e+08
6.01198e+08
6.33622e+08
6.60644e+08
6.76156e+08
6.92749e+08
7.06728e+08
7.13152e+08
7.162e+08
7.17726e+08
6.26904e+07
5.33967e+06
2.80287e+10
1.59478e+08
2.80221e+10
8.08738e+08
8.11715e+08
6.55239e+08
6.66441e+08
6.7461e+08
7.00237e+08
7.24125e+08
7.46102e+08
7.64388e+08
7.76633e+08
7.90162e+08
7.95147e+08
8.01604e+08
8.06451e+08
8.03975e+08
2.98043e+10
2.98041e+10
2.97971e+10
2.97943e+10
6.4958e+08
1.42671e+10
1.11519e+09
1.06213e+09
9.07501e+08
8.69947e+08
8.50334e+08
8.44818e+08
8.5094e+08
8.58319e+08
8.61846e+08
8.68622e+08
8.66324e+08
8.69233e+08
8.71285e+08
8.69546e+08
3.79516e+07
6.63339e+06
3.0841e+10
2.29227e+08
3.08329e+10
5.92716e+09
3.88763e+09
1.51581e+09
1.24262e+09
1.08898e+09
1.0088e+09
9.61504e+08
9.49608e+08
9.4333e+08
9.35608e+08
9.28238e+08
9.16559e+08
9.16772e+08
9.15505e+08
9.14097e+08
3.14465e+10
3.14462e+10
3.14385e+10
3.14355e+10
1.55884e+09
3.14274e+10
3.78623e+09
2.42721e+09
1.58944e+09
1.32146e+09
1.17037e+09
1.08878e+09
1.04116e+09
1.01493e+09
9.98759e+08
9.76817e+08
9.60598e+08
9.49276e+08
9.4734e+08
9.45164e+08
3.32449e+07
1.04083e+07
3.17941e+10
4.37644e+08
3.17856e+10
3.17826e+10
3.17783e+10
3.14144e+09
2.00986e+09
1.53509e+09
1.31886e+09
1.19334e+09
1.11926e+09
1.07707e+09
1.04271e+09
1.01619e+09
9.93015e+08
9.82414e+08
9.76058e+08
9.67523e+08
3.20389e+10
3.20388e+10
3.20302e+10
3.20276e+10
7.53106e+09
3.20192e+10
1.98356e+10
4.40546e+09
2.33842e+09
1.72818e+09
1.43954e+09
1.28248e+09
1.18201e+09
1.11984e+09
1.07873e+09
1.04368e+09
1.02966e+09
1.01375e+09
9.96285e+08
9.86336e+08
3.57585e+07
1.82075e+07
2.00973e+10
1.1648e+09
3.22055e+10
3.22025e+10
3.2198e+10
4.71581e+09
2.59384e+09
1.8636e+09
1.52021e+09
1.34134e+09
1.22316e+09
1.14223e+09
1.09819e+09
1.06413e+09
1.04622e+09
1.02975e+09
1.01164e+09
1.00236e+09
3.23886e+10
3.23885e+10
3.23799e+10
3.23768e+10
3.23712e+10
3.23684e+10
3.23634e+10
5.11914e+09
2.60186e+09
1.88561e+09
1.53277e+09
1.35804e+09
1.23905e+09
1.17093e+09
1.11414e+09
1.07562e+09
1.05456e+09
1.03374e+09
1.02417e+09
1.01746e+09
4.25352e+07
3.14515e+07
3.45442e+09
8.86057e+09
3.25376e+10
3.25346e+10
3.25298e+10
4.32306e+09
2.45602e+09
1.80579e+09
1.50402e+09
1.34205e+09
1.23771e+09
1.17215e+09
1.12499e+09
1.08054e+09
1.05626e+09
1.03969e+09
1.02968e+09
1.01735e+09
3.27338e+10
3.27334e+10
3.27253e+10
3.27217e+10
3.2716e+10
3.27129e+10
1.00776e+10
3.52225e+09
2.18915e+09
1.6903e+09
1.45585e+09
1.30205e+09
1.22082e+09
1.15199e+09
1.1134e+09
1.08144e+09
1.0569e+09
1.04056e+09
1.03221e+09
1.02279e+09
5.03553e+07
4.88444e+07
3.77112e+09
3.29202e+10
3.29144e+10
3.29115e+10
5.97071e+09
2.67252e+09
1.89225e+09
1.53926e+09
1.35496e+09
1.24265e+09
1.17902e+09
1.1356e+09
1.09599e+09
1.07148e+09
1.05557e+09
1.0435e+09
1.02983e+09
1.01955e+09
3.31582e+10
3.31579e+10
3.31491e+10
3.31457e+10
3.31398e+10
2.75303e+10
3.05425e+09
1.96348e+09
1.56019e+09
1.37868e+09
1.25462e+09
1.1758e+09
1.12623e+09
1.1004e+09
1.07663e+09
1.06147e+09
1.05025e+09
1.04165e+09
1.02656e+09
1.01564e+09
5.71237e+07
7.85342e+07
1.64994e+10
3.34045e+10
3.33983e+10
4.23893e+09
1.88015e+09
1.45131e+09
1.27533e+09
1.19658e+09
1.13816e+09
1.1013e+09
1.07863e+09
1.06935e+09
1.05536e+09
1.04479e+09
1.04377e+09
1.03168e+09
1.02327e+09
1.01055e+09
3.37088e+10
3.37084e+10
3.36998e+10
3.3696e+10
2.98467e+09
1.64144e+09
1.16289e+09
1.07526e+09
1.03814e+09
1.03328e+09
1.03496e+09
1.03552e+09
1.03875e+09
1.0381e+09
1.03758e+09
1.03543e+09
1.03518e+09
1.02974e+09
1.01974e+09
1.01064e+09
6.36263e+07
1.01874e+09
1.53544e+09
3.40027e+10
8.51818e+08
8.55175e+08
7.58048e+08
8.20238e+08
8.57392e+08
9.12805e+08
9.49694e+08
9.77431e+08
9.99645e+08
1.01408e+09
1.02209e+09
1.03064e+09
1.02969e+09
1.02644e+09
1.02547e+09
1.01043e+09
3.42862e+10
3.42864e+10
2.31687e+08
1.8541e+09
2.99271e+08
5.00465e+08
5.28546e+08
6.66444e+08
7.42147e+08
8.31885e+08
8.91792e+08
9.40368e+08
9.71184e+08
9.95208e+08
1.01401e+09
1.02302e+09
1.0268e+09
1.0279e+09
1.02532e+09
1.01898e+09
1.36928e+08
3.44e+10
2.49884e+07
3.43997e+10
1.24933e+08
5.34103e+08
3.94591e+08
6.23749e+08
6.76289e+08
7.92852e+08
8.59267e+08
9.17452e+08
9.54632e+08
9.88331e+08
1.01242e+09
1.02274e+09
1.0281e+09
1.02991e+09
1.02883e+09
1.01806e+09
)
;

boundaryField
{
    movingWall
    {
        type            calculated;
        value           nonuniform List<scalar> 
20
(
1.36928e+08
3.44e+10
2.49884e+07
3.43997e+10
1.24933e+08
5.34103e+08
3.94591e+08
6.23749e+08
6.76289e+08
7.92852e+08
8.59267e+08
9.17452e+08
9.54632e+08
9.88331e+08
1.01242e+09
1.02274e+09
1.0281e+09
1.02991e+09
1.02883e+09
1.01806e+09
)
;
    }
    fixedWalls
    {
        type            calculated;
        value           nonuniform List<scalar> 
60
(
1.23593e+10
2.60796e+08
2.5334e+10
6.26904e+07
2.98043e+10
3.79516e+07
3.14465e+10
3.32449e+07
3.20389e+10
3.57585e+07
3.23886e+10
4.25352e+07
3.27338e+10
5.03553e+07
3.31582e+10
5.71237e+07
3.37088e+10
6.36263e+07
3.42862e+10
1.36928e+08
5.44036e+08
6.17061e+08
7.17726e+08
8.03975e+08
8.69546e+08
9.14097e+08
9.45164e+08
9.67523e+08
9.86336e+08
1.00236e+09
1.01746e+09
1.01735e+09
1.02279e+09
1.01955e+09
1.01564e+09
1.01055e+09
1.01064e+09
1.01043e+09
1.01898e+09
1.01806e+09
1.23593e+10
1.93922e+10
1.13927e+07
2.04602e+08
5.04665e+07
1.53497e+08
1.51329e+08
2.3231e+08
2.72187e+08
3.31213e+08
3.74517e+08
4.16636e+08
4.49919e+08
4.78845e+08
5.00726e+08
5.13366e+08
5.23914e+08
5.36326e+08
5.43573e+08
5.44036e+08
)
;
    }
    frontAndBack
    {
        type            empty;
    }
}


// ************************************************************************* //
