/*--------------------------------*- C++ -*----------------------------------*\
| =========                 |                                                 |
| \\      /  F ield         | OpenFOAM: The Open Source CFD Toolbox           |
|  \\    /   O peration     | Version:  2312                                  |
|   \\  /    A nd           | Website:  www.openfoam.com                      |
|    \\/     M anipulation  |                                                 |
\*---------------------------------------------------------------------------*/
FoamFile
{
    version     2.0;
    format      ascii;
    arch        "LSB;label=32;scalar=64";
    class       volScalarField;
    location    "4.5";
    object      P_A;
}
// * * * * * * * * * * * * * * * * * * * * * * * * * * * * * * * * * * * * * //

dimensions      [1 -1 -3 0 0 0 0];

internalField   nonuniform List<scalar> 
400
(
2.83621e-30
2.83615e-30
2.83612e-30
2.83608e-30
2.83606e-30
2.83602e-30
2.836e-30
2.83598e-30
2.83596e-30
2.83593e-30
2.83594e-30
2.8359e-30
2.83592e-30
2.83589e-30
2.8359e-30
2.83588e-30
2.83589e-30
2.83588e-30
2.83588e-30
2.83588e-30
4.69889e-30
4.5692e-30
4.57755e-30
4.58105e-30
4.5883e-30
4.59209e-30
4.59956e-30
4.60364e-30
4.61132e-30
4.61569e-30
4.62359e-30
4.62825e-30
4.63636e-30
4.64134e-30
4.64966e-30
4.65494e-30
4.6635e-30
4.66906e-30
4.67343e-30
4.68072e-30
8.27229e-30
8.02323e-30
8.03925e-30
8.04583e-30
8.05973e-30
8.06685e-30
8.08123e-30
8.08879e-30
8.10368e-30
8.11165e-30
8.12709e-30
8.13545e-30
8.15147e-30
8.16029e-30
8.17663e-30
8.18615e-30
8.20273e-30
8.21299e-30
8.22137e-30
8.23514e-30
1.24097e-29
1.20136e-29
1.20386e-29
1.20489e-29
1.20705e-29
1.20818e-29
1.21043e-29
1.21161e-29
1.21396e-29
1.21521e-29
1.21765e-29
1.21897e-29
1.22148e-29
1.22291e-29
1.22546e-29
1.227e-29
1.2296e-29
1.23125e-29
1.23257e-29
1.23476e-29
1.58543e-29
1.53297e-29
1.53623e-29
1.53756e-29
1.54043e-29
1.54187e-29
1.54486e-29
1.54638e-29
1.5495e-29
1.55111e-29
1.55434e-29
1.55607e-29
1.55937e-29
1.56128e-29
1.56462e-29
1.56668e-29
1.5701e-29
1.5723e-29
1.57404e-29
1.57694e-29
1.81976e-29
1.75837e-29
1.76213e-29
1.76372e-29
1.767e-29
1.76873e-29
1.77215e-29
1.774e-29
1.77755e-29
1.77954e-29
1.78318e-29
1.78533e-29
1.78906e-29
1.79138e-29
1.79522e-29
1.79767e-29
1.80165e-29
1.80423e-29
1.80626e-29
1.80966e-29
1.96504e-29
1.89799e-29
1.90211e-29
1.90381e-29
1.90738e-29
1.90927e-29
1.91299e-29
1.91499e-29
1.91888e-29
1.92099e-29
1.92504e-29
1.92728e-29
1.93147e-29
1.93388e-29
1.93817e-29
1.94077e-29
1.94515e-29
1.94794e-29
1.95017e-29
1.95388e-29
2.05555e-29
1.98498e-29
1.98929e-29
1.99106e-29
1.99486e-29
1.99678e-29
2.00076e-29
2.00279e-29
2.00694e-29
2.00909e-29
2.01341e-29
2.01571e-29
2.02014e-29
2.02269e-29
2.02717e-29
2.02994e-29
2.03453e-29
2.03748e-29
2.03981e-29
2.04371e-29
2.11742e-29
2.04448e-29
2.04885e-29
2.05077e-29
2.05461e-29
2.05669e-29
2.06067e-29
2.06292e-29
2.06704e-29
2.06946e-29
2.0737e-29
2.07631e-29
2.0807e-29
2.08346e-29
2.08801e-29
2.09093e-29
2.09564e-29
2.09871e-29
2.10112e-29
2.10515e-29
2.16649e-29
2.09157e-29
2.09618e-29
2.09802e-29
2.10203e-29
2.10408e-29
2.10827e-29
2.11044e-29
2.11484e-29
2.11712e-29
2.12169e-29
2.12414e-29
2.12884e-29
2.13153e-29
2.1363e-29
2.13922e-29
2.14409e-29
2.14723e-29
2.1497e-29
2.15384e-29
2.21146e-29
2.13484e-29
2.13945e-29
2.1414e-29
2.1455e-29
2.14763e-29
2.15184e-29
2.15417e-29
2.1585e-29
2.16103e-29
2.1655e-29
2.16822e-29
2.17283e-29
2.17573e-29
2.1805e-29
2.18356e-29
2.18851e-29
2.19173e-29
2.19426e-29
2.1985e-29
2.25737e-29
2.17892e-29
2.18369e-29
2.18565e-29
2.18983e-29
2.19199e-29
2.19634e-29
2.19864e-29
2.20321e-29
2.20562e-29
2.21038e-29
2.21296e-29
2.21786e-29
2.2207e-29
2.22568e-29
2.22874e-29
2.23385e-29
2.23712e-29
2.23972e-29
2.24405e-29
2.30735e-29
2.22692e-29
2.23185e-29
2.23382e-29
2.23812e-29
2.2403e-29
2.2448e-29
2.2471e-29
2.25183e-29
2.25425e-29
2.25917e-29
2.26181e-29
2.26685e-29
2.26972e-29
2.27485e-29
2.27796e-29
2.28321e-29
2.28656e-29
2.28922e-29
2.29367e-29
2.36388e-29
2.28127e-29
2.28628e-29
2.28834e-29
2.29275e-29
2.29504e-29
2.29954e-29
2.30208e-29
2.30672e-29
2.30946e-29
2.31425e-29
2.31718e-29
2.32215e-29
2.32527e-29
2.33041e-29
2.33371e-29
2.33903e-29
2.34251e-29
2.34524e-29
2.3498e-29
2.42945e-29
2.34423e-29
2.34936e-29
2.3515e-29
2.35603e-29
2.35835e-29
2.36309e-29
2.36556e-29
2.37052e-29
2.37314e-29
2.37829e-29
2.3811e-29
2.38641e-29
2.3895e-29
2.39489e-29
2.39823e-29
2.40376e-29
2.40732e-29
2.41014e-29
2.41485e-29
2.50623e-29
2.41801e-29
2.42328e-29
2.42554e-29
2.43019e-29
2.43264e-29
2.43747e-29
2.44012e-29
2.44512e-29
2.448e-29
2.45314e-29
2.45625e-29
2.46156e-29
2.46488e-29
2.47036e-29
2.47389e-29
2.47957e-29
2.48329e-29
2.4862e-29
2.49107e-29
2.59505e-29
2.50325e-29
2.50884e-29
2.51106e-29
2.51596e-29
2.51843e-29
2.52353e-29
2.52616e-29
2.53152e-29
2.53429e-29
2.53989e-29
2.54284e-29
2.54863e-29
2.55186e-29
2.55775e-29
2.56126e-29
2.56727e-29
2.57108e-29
2.57413e-29
2.5792e-29
2.69089e-29
2.59538e-29
2.60106e-29
2.60348e-29
2.6085e-29
2.61114e-29
2.61636e-29
2.61922e-29
2.62462e-29
2.62773e-29
2.63328e-29
2.63665e-29
2.64239e-29
2.64597e-29
2.65192e-29
2.65573e-29
2.66188e-29
2.6659e-29
2.66906e-29
2.67433e-29
2.77767e-29
2.68095e-29
2.68651e-29
2.68897e-29
2.69394e-29
2.69661e-29
2.7018e-29
2.70473e-29
2.7101e-29
2.71333e-29
2.71886e-29
2.72237e-29
2.72811e-29
2.73188e-29
2.73786e-29
2.74187e-29
2.7481e-29
2.75234e-29
2.75555e-29
2.76101e-29
2.81482e-29
2.81476e-29
2.81473e-29
2.81468e-29
2.81467e-29
2.81462e-29
2.81462e-29
2.81458e-29
2.81458e-29
2.81455e-29
2.81455e-29
2.81453e-29
2.81453e-29
2.81452e-29
2.81452e-29
2.81452e-29
2.81452e-29
2.81452e-29
2.81451e-29
2.81451e-29
)
;

boundaryField
{
    movingWall
    {
        type            calculated;
        value           nonuniform List<scalar> 
20
(
2.81482e-29
2.81476e-29
2.81473e-29
2.81468e-29
2.81467e-29
2.81462e-29
2.81462e-29
2.81458e-29
2.81458e-29
2.81455e-29
2.81455e-29
2.81453e-29
2.81453e-29
2.81452e-29
2.81452e-29
2.81452e-29
2.81452e-29
2.81452e-29
2.81451e-29
2.81451e-29
)
;
    }
    fixedWalls
    {
        type            calculated;
        value           nonuniform List<scalar> 
60
(
2.83621e-30
4.69889e-30
8.27229e-30
1.24097e-29
1.58543e-29
1.81976e-29
1.96504e-29
2.05555e-29
2.11742e-29
2.16649e-29
2.21146e-29
2.25737e-29
2.30735e-29
2.36388e-29
2.42945e-29
2.50623e-29
2.59505e-29
2.69089e-29
2.77767e-29
2.81482e-29
2.83588e-30
4.68072e-30
8.23514e-30
1.23476e-29
1.57694e-29
1.80966e-29
1.95388e-29
2.04371e-29
2.10515e-29
2.15384e-29
2.1985e-29
2.24405e-29
2.29367e-29
2.3498e-29
2.41485e-29
2.49107e-29
2.5792e-29
2.67433e-29
2.76101e-29
2.81451e-29
2.83621e-30
2.83615e-30
2.83612e-30
2.83608e-30
2.83606e-30
2.83602e-30
2.836e-30
2.83598e-30
2.83596e-30
2.83593e-30
2.83594e-30
2.8359e-30
2.83592e-30
2.83589e-30
2.8359e-30
2.83588e-30
2.83589e-30
2.83588e-30
2.83588e-30
2.83588e-30
)
;
    }
    frontAndBack
    {
        type            empty;
    }
}


// ************************************************************************* //
