/*--------------------------------*- C++ -*----------------------------------*\
| =========                 |                                                 |
| \\      /  F ield         | OpenFOAM: The Open Source CFD Toolbox           |
|  \\    /   O peration     | Version:  2312                                  |
|   \\  /    A nd           | Website:  www.openfoam.com                      |
|    \\/     M anipulation  |                                                 |
\*---------------------------------------------------------------------------*/
FoamFile
{
    version     2.0;
    format      ascii;
    arch        "LSB;label=32;scalar=64";
    class       scalarField;
    location    "4.5";
    object      p_all;
}
// * * * * * * * * * * * * * * * * * * * * * * * * * * * * * * * * * * * * * //


400
(
5.69052e-16
0
1.70116e-12
9.37794e-14
3.83256e-13
1.25334e-13
1.27144e-13
8.24743e-14
7.02446e-14
5.75479e-14
5.07783e-14
4.55437e-14
4.21006e-14
3.94969e-14
3.77273e-14
3.67738e-14
3.60132e-14
3.51567e-14
3.46746e-14
3.46442e-14
8.33463e-14
1.38476e-12
1.73114e-13
1.62506e-13
1.3947e-13
1.12368e-13
9.34922e-14
7.45429e-14
6.28281e-14
5.43217e-14
4.83358e-14
4.38758e-14
4.08912e-14
3.87747e-14
3.72264e-14
3.6119e-14
3.55509e-14
3.49773e-14
3.46666e-14
3.46138e-14
0
0
0
0
9.84431e-14
5.19338e-14
6.73543e-14
5.68332e-14
5.27382e-14
4.77876e-14
4.42257e-14
4.10999e-14
3.89444e-14
3.73082e-14
3.64287e-14
3.55307e-14
3.48077e-14
3.44845e-14
3.43333e-14
3.4258e-14
4.46197e-13
5.24928e-12
0
1.74738e-13
0
3.36465e-14
3.35151e-14
4.17544e-14
4.10318e-14
4.05197e-14
3.89977e-14
3.76755e-14
3.65347e-14
3.56348e-14
3.5056e-14
3.44374e-14
3.42145e-14
3.39303e-14
3.37201e-14
3.38269e-14
0
0
0
0
4.48599e-14
1.08782e-15
2.5707e-14
2.70386e-14
3.18131e-14
3.32266e-14
3.40138e-14
3.42396e-14
3.39846e-14
3.36819e-14
3.35386e-14
3.32681e-14
3.33581e-14
3.32426e-14
3.31616e-14
3.32298e-14
8.11845e-13
4.64951e-12
0
1.33531e-13
0
4.20156e-15
6.92926e-15
1.93348e-14
2.38026e-14
2.73001e-14
2.95464e-14
3.10473e-14
3.14464e-14
3.16611e-14
3.19289e-14
3.21895e-14
3.26113e-14
3.26031e-14
3.26492e-14
3.27009e-14
0
0
0
0
1.91623e-14
0
7.29922e-15
1.1945e-14
1.87659e-14
2.27725e-14
2.58392e-14
2.78484e-14
2.91664e-14
2.9944e-14
3.04439e-14
3.11488e-14
3.16909e-14
3.20802e-14
3.21475e-14
3.22237e-14
9.55607e-13
3.05446e-12
0
7.16411e-14
0
0
0
9.1149e-15
1.48081e-14
1.96952e-14
2.30867e-14
2.5618e-14
2.73784e-14
2.84881e-14
2.94587e-14
3.02524e-14
3.0981e-14
3.13255e-14
3.15357e-14
3.18225e-14
0
0
0
0
3.25195e-15
0
6.13969e-16
6.26643e-15
1.26877e-14
1.752e-14
2.12309e-14
2.39524e-14
2.6071e-14
2.75728e-14
2.86601e-14
2.96555e-14
3.00719e-14
3.0559e-14
3.11119e-14
3.14356e-14
9.00121e-13
1.76873e-12
6.02927e-16
2.66538e-14
0
0
0
5.82703e-15
1.14108e-14
1.62723e-14
2.01723e-14
2.29936e-14
2.53105e-14
2.71731e-14
2.83018e-14
2.92383e-14
2.97552e-14
3.02465e-14
3.08056e-14
3.10999e-14
0
0
0
0
0
0
0
5.32157e-15
1.1436e-14
1.61588e-14
2.01065e-14
2.28209e-14
2.51063e-14
2.66242e-14
2.80304e-14
2.90693e-14
2.96686e-14
3.02861e-14
3.05779e-14
3.0786e-14
7.64373e-13
1.03409e-12
8.42173e-15
2.67282e-15
0
0
0
6.52406e-15
1.22423e-14
1.7009e-14
2.06207e-14
2.32281e-14
2.52692e-14
2.67367e-14
2.78985e-14
2.90861e-14
2.97768e-14
3.02666e-14
3.05705e-14
3.09528e-14
0
0
0
0
0
0
2.24564e-15
8.28528e-15
1.39381e-14
1.83448e-14
2.14585e-14
2.41092e-14
2.57786e-14
2.73767e-14
2.83592e-14
2.92257e-14
2.99267e-14
3.04117e-14
3.06654e-14
3.0957e-14
6.52999e-13
6.73225e-13
7.73046e-15
0
0
0
4.51127e-15
1.1312e-14
1.63864e-14
2.03723e-14
2.32765e-14
2.54694e-14
2.68955e-14
2.79611e-14
2.90061e-14
2.96915e-14
3.0153e-14
3.0513e-14
3.09309e-14
3.12529e-14
0
0
0
0
0
2.03642e-16
9.84779e-15
1.58725e-14
2.02314e-14
2.30244e-14
2.53981e-14
2.71652e-14
2.84034e-14
2.90918e-14
2.9755e-14
3.01929e-14
3.05254e-14
3.07851e-14
3.12518e-14
3.15984e-14
5.83992e-13
4.24506e-13
1.02478e-15
0
0
6.87824e-15
1.67593e-14
2.2005e-14
2.51761e-14
2.68968e-14
2.83255e-14
2.93055e-14
2.994e-14
3.02072e-14
3.06189e-14
3.0938e-14
3.09681e-14
3.13423e-14
3.16076e-14
3.2018e-14
0
0
0
0
1.02877e-14
1.95226e-14
2.79637e-14
3.03212e-14
3.14375e-14
3.15869e-14
3.15319e-14
3.1511e-14
3.14085e-14
3.14266e-14
3.14417e-14
3.15073e-14
3.15148e-14
3.16857e-14
3.2006e-14
3.23031e-14
5.33614e-13
3.23897e-14
2.11474e-14
0
3.89102e-14
3.875e-14
4.38359e-14
4.04332e-14
3.86324e-14
3.6224e-14
3.47741e-14
3.37571e-14
3.29819e-14
3.24969e-14
3.22322e-14
3.19557e-14
3.1985e-14
3.20888e-14
3.21198e-14
3.26126e-14
0
0
1.46945e-13
1.74855e-14
1.13503e-13
6.74656e-14
6.38177e-14
5.04021e-14
4.51525e-14
4.01715e-14
3.74013e-14
3.54159e-14
3.42573e-14
3.34049e-14
3.27648e-14
3.24667e-14
3.23423e-14
3.23062e-14
3.23895e-14
3.2597e-14
2.50227e-13
0
1.37563e-12
0
2.74345e-13
6.34062e-14
8.61776e-14
5.41494e-14
4.98649e-14
4.23868e-14
3.90334e-14
3.64944e-14
3.50341e-14
3.38054e-14
3.29773e-14
3.26343e-14
3.24589e-14
3.24001e-14
3.24353e-14
3.27889e-14
)


// ************************************************************************* //
