/*--------------------------------*- C++ -*----------------------------------*\
| =========                 |                                                 |
| \\      /  F ield         | OpenFOAM: The Open Source CFD Toolbox           |
|  \\    /   O peration     | Version:  2312                                  |
|   \\  /    A nd           | Website:  www.openfoam.com                      |
|    \\/     M anipulation  |                                                 |
\*---------------------------------------------------------------------------*/
FoamFile
{
    version     2.0;
    format      ascii;
    arch        "LSB;label=32;scalar=64";
    class       surfaceScalarField;
    location    "4.5";
    object      PecletNoField;
}
// * * * * * * * * * * * * * * * * * * * * * * * * * * * * * * * * * * * * * //

dimensions      [0 0 0 0 0 0 0];

oriented        oriented;

internalField   nonuniform List<scalar> 
760
(
401.269
2.26994e-10
401.269
5.41343e-10
401.269
5.98878e-10
401.27
1.11506e-11
401.27
1.19738e-10
401.27
1.09317e-11
401.27
2.24613e-11
401.27
7.33481e-12
401.27
6.65072e-12
401.27
3.70866e-12
401.27
2.78609e-12
401.27
1.91972e-12
401.27
1.40773e-12
401.27
9.74978e-13
401.27
7.01614e-13
401.27
5.78301e-13
401.27
3.59097e-13
401.27
1.82283e-13
401.27
8.95099e-14
2.18863e-14
395.076
4.30211e-09
394.027
4.07177e-09
394.179
2.50254e-10
394.311
3.12224e-10
394.444
2.12461e-11
394.575
4.78886e-11
394.708
2.23008e-11
394.839
1.59601e-11
394.972
1.03025e-11
395.102
7.06997e-12
395.234
4.91933e-12
395.365
3.48386e-12
395.496
2.53279e-12
395.627
1.84789e-12
395.758
1.30158e-12
395.888
9.25397e-13
396.018
6.75138e-13
396.109
4.06091e-13
396.214
2.11905e-13
6.46359e-14
389.044
4.22776e-09
387.855
4.73414e-09
388.031
5.12743e-10
388.182
2.1335e-10
388.335
1.23711e-10
388.486
2.19838e-11
388.639
3.16073e-11
388.788
1.65271e-11
388.94
1.2884e-11
389.088
8.70453e-12
389.239
6.38103e-12
389.386
4.5504e-12
389.535
3.30899e-12
389.683
2.42325e-12
389.83
1.83093e-12
389.977
1.35557e-12
390.123
9.03877e-13
390.225
5.48965e-13
390.342
3.41983e-13
1.0403e-13
384.557
5.2921e-09
383.26
5.25483e-09
383.452
4.19393e-10
383.618
3.23928e-10
383.786
3.36861e-11
383.95
4.29784e-11
384.117
1.78353e-11
384.28
1.82834e-11
384.446
1.23915e-11
384.608
9.44797e-12
384.772
6.85325e-12
384.933
5.05295e-12
385.095
3.78142e-12
385.256
2.87736e-12
385.417
2.18002e-12
385.577
1.58593e-12
385.737
1.09127e-12
385.848
6.93271e-13
385.976
3.86387e-13
1.31071e-13
381.777
4.40581e-09
380.411
4.77302e-09
380.614
4.32461e-10
380.788
2.18469e-10
380.965
9.20775e-11
381.139
1.22382e-11
381.315
2.3934e-11
381.487
1.42172e-11
381.662
1.20505e-11
381.833
8.95546e-12
382.006
6.88213e-12
382.177
5.15938e-12
382.348
3.93896e-12
382.517
3.03873e-12
382.687
2.28224e-12
382.856
1.63665e-12
383.024
1.10786e-12
383.142
7.07295e-13
383.276
3.9377e-13
1.50858e-13
380.191
4.35249e-09
378.784
4.39103e-09
378.993
3.71378e-10
379.173
2.37382e-10
379.355
3.62326e-11
379.534
2.77741e-11
379.715
1.15856e-11
379.893
1.3528e-11
380.072
1.00227e-11
380.249
8.19008e-12
380.427
6.4187e-12
380.603
5.03083e-12
380.78
3.79513e-12
380.954
2.8671e-12
381.129
2.21204e-12
381.303
1.62811e-12
381.476
1.1443e-12
381.597
6.99711e-13
381.736
4.08223e-13
1.17908e-13
379.301
3.38015e-09
377.871
3.65105e-09
378.083
3.32464e-10
378.267
1.60272e-10
378.452
5.95681e-11
378.634
5.75518e-12
378.818
1.48757e-11
378.998
9.54975e-12
379.181
8.6341e-12
379.36
6.83999e-12
379.542
5.53645e-12
379.72
4.38057e-12
379.899
3.41505e-12
380.077
2.63908e-12
380.254
1.96711e-12
380.431
1.50521e-12
380.607
1.07289e-12
380.73
7.08292e-13
380.871
4.06069e-13
1.35924e-13
378.776
3.05625e-09
377.333
3.12854e-09
377.548
2.84709e-10
377.733
1.53245e-10
377.92
2.73373e-11
378.104
1.57298e-11
378.29
6.29917e-12
378.472
8.11518e-12
378.656
6.44005e-12
378.837
5.531e-12
379.02
4.46348e-12
379.201
3.61318e-12
379.381
2.88654e-12
379.561
2.25318e-12
379.74
1.74705e-12
379.918
1.28891e-12
380.096
9.8828e-13
380.22
6.32249e-13
380.362
3.36244e-13
9.0114e-14
378.43
2.33375e-09
376.98
2.52351e-09
377.195
2.44231e-10
377.381
1.06566e-10
377.569
3.51625e-11
377.754
1.40707e-12
377.941
7.61296e-12
378.125
4.87964e-12
378.31
4.71225e-12
378.492
3.94067e-12
378.676
3.34351e-12
378.857
2.76588e-12
379.04
2.23532e-12
379.22
1.73805e-12
379.4
1.36676e-12
379.579
1.08307e-12
379.759
7.50808e-13
379.883
4.6594e-13
380.026
2.4269e-13
9.56424e-14
378.164
2.02694e-09
376.705
2.11855e-09
376.922
2.11285e-10
377.11
9.54371e-11
377.299
2.03979e-11
377.484
7.05947e-12
377.672
1.74782e-12
377.856
3.28688e-12
378.043
2.61387e-12
378.226
2.41062e-12
378.411
2.09808e-12
378.593
1.82917e-12
378.775
1.54573e-12
378.957
1.32296e-12
379.138
1.00719e-12
379.318
7.70211e-13
379.498
5.69001e-13
379.623
3.28923e-13
379.767
2.13597e-13
1.01213e-13
377.923
1.63666e-09
376.46
1.75642e-09
376.678
1.83217e-10
376.865
7.55564e-11
377.055
1.92937e-11
377.242
2.62459e-12
377.43
1.73962e-12
377.616
5.16299e-13
377.803
8.60167e-13
377.986
8.48679e-13
378.172
9.07749e-13
378.355
8.7438e-13
378.538
8.17096e-13
378.72
6.97967e-13
378.902
6.49236e-13
379.083
5.13838e-13
379.264
3.79373e-13
379.389
2.39482e-13
379.534
1.29968e-13
9.17868e-15
377.684
1.39391e-09
376.214
1.50833e-09
376.433
1.65891e-10
376.622
6.24414e-11
376.812
1.8849e-11
377
1.80011e-13
377.189
2.94706e-12
377.375
1.28114e-12
377.563
9.94466e-13
377.747
5.29684e-13
377.934
1.82718e-13
378.117
2.20785e-14
378.301
1.6905e-13
378.484
1.77701e-13
378.666
2.34897e-13
378.848
2.62475e-13
379.029
1.98505e-13
379.156
1.22671e-13
379.3
6.75562e-14
2.5442e-14
377.429
1.29536e-09
375.952
1.35271e-09
376.171
1.47828e-10
376.361
6.47603e-11
376.553
7.96253e-12
376.741
7.95452e-12
376.931
3.79283e-12
377.118
3.72204e-12
377.307
2.54463e-12
377.492
1.82223e-12
377.679
1.26717e-12
377.863
8.10256e-13
378.048
4.67468e-13
378.231
1.84786e-13
378.415
1.08451e-13
378.597
6.1356e-15
378.779
3.36972e-14
378.906
3.1746e-14
379.052
1.07904e-14
2.85736e-14
377.145
1.03414e-09
375.662
1.18481e-09
375.883
1.44969e-10
376.073
4.14534e-11
376.264
2.29114e-11
376.454
6.88113e-12
376.645
8.09887e-12
376.833
5.58481e-12
377.022
4.23714e-12
377.209
2.93254e-12
377.397
2.05893e-12
377.582
1.42177e-12
377.768
9.93663e-13
377.952
6.25472e-13
378.137
3.42837e-13
378.319
1.80933e-13
378.503
1.12989e-13
378.63
1.10796e-13
378.776
6.81328e-14
2.93995e-14
376.824
1.16e-09
375.334
1.1513e-09
375.556
1.22054e-10
375.747
6.72987e-11
375.94
3.83841e-12
376.13
1.49089e-11
376.323
9.52381e-12
376.511
7.69091e-12
376.702
5.50254e-12
376.889
3.94362e-12
377.078
2.75826e-12
377.264
1.89863e-12
377.451
1.25503e-12
377.636
7.79496e-13
377.821
4.89959e-13
378.005
3.69962e-13
378.189
2.37412e-13
378.318
2.17223e-13
378.464
1.34305e-13
5.1453e-14
376.458
7.39605e-10
374.96
9.48649e-10
375.183
1.43395e-10
375.375
1.78408e-11
375.569
3.28628e-11
375.761
1.51294e-11
375.954
1.33584e-11
376.144
8.97002e-12
376.335
6.49641e-12
376.524
4.50097e-12
376.714
3.08086e-12
376.901
2.04767e-12
377.09
1.3271e-12
377.276
8.97255e-13
377.463
5.88451e-13
377.647
3.98645e-13
377.833
3.2559e-13
377.961
2.2757e-13
378.109
1.421e-13
3.66899e-14
376.05
1.11848e-09
374.54
1.0147e-09
374.765
7.25884e-11
374.959
7.80385e-11
375.154
2.30712e-11
375.347
2.1768e-11
375.542
1.43641e-11
375.733
9.61912e-12
375.926
6.59398e-12
376.115
4.37783e-12
376.307
2.98838e-12
376.496
2.00829e-12
376.684
1.32356e-12
376.872
8.9238e-13
377.06
6.04298e-13
377.247
3.73098e-13
377.433
2.76389e-13
377.563
1.89829e-13
377.711
7.92527e-14
5.6097e-14
375.623
2.36358e-10
374.104
5.47537e-10
374.33
1.8841e-10
374.525
1.22339e-11
374.722
5.60861e-11
374.916
1.70237e-11
375.112
1.5922e-11
375.304
7.78753e-12
375.498
5.67721e-12
375.689
3.48488e-12
375.882
2.40841e-12
376.072
1.59681e-12
376.263
1.10625e-12
376.451
7.19784e-13
376.64
4.56239e-13
376.828
3.32919e-13
377.016
2.27355e-13
377.146
1.4031e-13
377.296
8.80727e-14
2.78928e-14
375.286
1.07372e-09
373.791
6.32482e-10
374.009
3.50558e-10
374.197
1.51932e-11
374.388
7.44146e-11
374.577
9.25901e-14
374.767
1.40637e-11
374.956
3.18917e-12
375.146
3.71627e-12
375.333
1.85349e-12
375.523
1.41508e-12
375.71
9.20432e-13
375.899
6.40369e-13
376.086
3.85287e-13
376.275
2.39784e-13
376.461
1.65215e-13
376.649
1.01422e-13
376.78
6.94028e-14
376.93
2.72707e-14
4.58953e-14
376.801
376.802
376.802
376.802
376.802
376.802
376.802
376.802
376.802
376.802
376.802
376.802
376.802
376.802
376.803
376.803
376.803
376.803
376.803
)
;

boundaryField
{
    movingWall
    {
        type            calculated;
        value           uniform 0;
    }
    fixedWalls
    {
        type            calculated;
        value           nonuniform List<scalar> 
60
(
250
250
250
250
250
250
250
250
250
250
250
250
250
250
250
250
250
250
250
250
250
250
250
250
250
250
250
250
250
250
250
250
250
250
250
250
250
250
250
250
0
0
0
0
0
0
0
0
0
0
0
0
0
0
0
0
0
0
0
0
)
;
    }
    frontAndBack
    {
        type            empty;
        value           nonuniform List<scalar> 0();
    }
}


// ************************************************************************* //
