/*--------------------------------*- C++ -*----------------------------------*\
| =========                 |                                                 |
| \\      /  F ield         | OpenFOAM: The Open Source CFD Toolbox           |
|  \\    /   O peration     | Version:  2312                                  |
|   \\  /    A nd           | Website:  www.openfoam.com                      |
|    \\/     M anipulation  |                                                 |
\*---------------------------------------------------------------------------*/
FoamFile
{
    version     2.0;
    format      ascii;
    arch        "LSB;label=32;scalar=64";
    class       surfaceScalarField;
    location    "4.5";
    object      phi;
}
// * * * * * * * * * * * * * * * * * * * * * * * * * * * * * * * * * * * * * //

dimensions      [0 3 -1 0 0 0 0];

oriented        oriented;

internalField   nonuniform List<scalar> 
760
(
-5e-05
-2.8464e-17
-5e-05
-6.80831e-17
-5e-05
7.52983e-17
-5e-05
-1.40184e-18
-5e-05
1.50499e-17
-5e-05
1.37384e-18
-5e-05
2.82221e-18
-5e-05
9.21493e-19
-5e-05
8.35367e-19
-5e-05
4.65772e-19
-5e-05
3.49831e-19
-5e-05
2.41017e-19
-5e-05
1.76701e-19
-5e-05
1.22366e-19
-5e-05
8.80386e-20
-5e-05
7.25561e-20
-5e-05
4.50446e-20
-5e-05
2.28624e-20
-5e-05
1.12254e-20
2.7443e-21
-5e-05
-5.46951e-16
-5e-05
5.20953e-16
-5e-05
-3.1999e-17
-5e-05
3.99133e-17
-5e-05
2.71469e-18
-5e-05
6.11737e-18
-5e-05
2.8474e-18
-5e-05
2.03729e-18
-5e-05
1.31449e-18
-5e-05
9.0182e-19
-5e-05
6.27209e-19
-5e-05
4.44069e-19
-5e-05
3.22698e-19
-5e-05
2.35372e-19
-5e-05
1.65714e-19
-5e-05
1.17787e-19
-5e-05
8.58967e-20
-5e-05
5.1652e-20
-5e-05
2.69471e-20
8.2166e-21
-5e-05
5.44573e-16
-5e-05
-6.14164e-16
-5e-05
6.64735e-17
-5e-05
-2.76517e-17
-5e-05
1.60251e-17
-5e-05
2.84689e-18
-5e-05
4.09094e-18
-5e-05
2.13849e-18
-5e-05
1.66622e-18
-5e-05
1.12538e-18
-5e-05
8.24566e-19
-5e-05
5.87829e-19
-5e-05
4.27251e-19
-5e-05
3.12788e-19
-5e-05
2.36218e-19
-5e-05
1.74835e-19
-5e-05
1.16522e-19
-5e-05
7.0747e-20
-5e-05
4.40618e-20
1.33982e-20
-5e-05
-6.87918e-16
-5e-05
6.88364e-16
-5e-05
-5.48986e-17
-5e-05
4.23895e-17
-5e-05
-4.40558e-18
-5e-05
5.61914e-18
-5e-05
2.33049e-18
-5e-05
2.38829e-18
-5e-05
1.61775e-18
-5e-05
1.23306e-18
-5e-05
8.93934e-19
-5e-05
6.58883e-19
-5e-05
4.92819e-19
-5e-05
3.74869e-19
-5e-05
2.83869e-19
-5e-05
2.06441e-19
-5e-05
1.41977e-19
-5e-05
9.01664e-20
-5e-05
5.024e-20
1.70353e-20
-5e-05
5.75881e-16
-5e-05
-6.28941e-16
-5e-05
5.69414e-17
-5e-05
-2.87565e-17
-5e-05
1.21123e-17
-5e-05
1.60936e-18
-5e-05
3.14548e-18
-5e-05
1.86785e-18
-5e-05
1.58226e-18
-5e-05
1.17547e-18
-5e-05
9.02813e-19
-5e-05
6.76584e-19
-5e-05
5.16252e-19
-5e-05
3.98127e-19
-5e-05
2.98847e-19
-5e-05
2.14237e-19
-5e-05
1.44939e-19
-5e-05
9.25015e-20
-5e-05
5.1484e-20
1.97155e-20
-5e-05
-5.70704e-16
-5e-05
5.80552e-16
-5e-05
-4.90622e-17
-5e-05
3.13502e-17
-5e-05
-4.78203e-18
-5e-05
3.66447e-18
-5e-05
1.52763e-18
-5e-05
1.78314e-18
-5e-05
1.3203e-18
-5e-05
1.07852e-18
-5e-05
8.44751e-19
-5e-05
6.61863e-19
-5e-05
4.99004e-19
-5e-05
3.76846e-19
-5e-05
2.90582e-19
-5e-05
2.13797e-19
-5e-05
1.50181e-19
-5e-05
9.17991e-20
-5e-05
5.35421e-20
1.54577e-20
-5e-05
4.44009e-16
-5e-05
-4.83647e-16
-5e-05
4.40054e-17
-5e-05
-2.1207e-17
-5e-05
7.87682e-18
-5e-05
7.60766e-19
-5e-05
1.96514e-18
-5e-05
1.26113e-18
-5e-05
1.13951e-18
-5e-05
9.02406e-19
-5e-05
7.29995e-19
-5e-05
5.77378e-19
-5e-05
4.49857e-19
-5e-05
3.47512e-19
-5e-05
2.5888e-19
-5e-05
1.98019e-19
-5e-05
1.41065e-19
-5e-05
9.30933e-20
-5e-05
5.33558e-20
1.78517e-20
-5e-05
-4.01908e-16
-5e-05
4.14923e-16
-5e-05
-3.77288e-17
-5e-05
2.0301e-17
-5e-05
-3.6191e-18
-5e-05
2.08172e-18
-5e-05
8.33113e-19
-5e-05
1.07293e-18
-5e-05
8.50922e-19
-5e-05
7.3055e-19
-5e-05
5.89191e-19
-5e-05
4.76777e-19
-5e-05
3.80667e-19
-5e-05
2.97034e-19
-5e-05
2.30177e-19
-5e-05
1.69754e-19
-5e-05
1.30086e-19
-5e-05
8.31914e-20
-5e-05
4.42303e-20
1.18483e-20
-5e-05
3.07137e-16
-5e-05
-3.3496e-16
-5e-05
3.23917e-17
-5e-05
-1.4129e-17
-5e-05
4.65888e-18
-5e-05
1.86368e-19
-5e-05
1.00769e-18
-5e-05
6.45674e-19
-5e-05
6.23134e-19
-5e-05
5.20916e-19
-5e-05
4.41709e-19
-5e-05
3.65265e-19
-5e-05
2.95023e-19
-5e-05
2.29309e-19
-5e-05
1.80217e-19
-5e-05
1.42758e-19
-5e-05
9.89055e-20
-5e-05
6.13567e-20
-5e-05
3.1949e-20
1.2585e-20
-5e-05
-2.66933e-16
-5e-05
2.81401e-16
-5e-05
-2.80415e-17
-5e-05
1.2662e-17
-5e-05
-2.70449e-18
-5e-05
9.35671e-19
-5e-05
2.31509e-19
-5e-05
4.35214e-19
-5e-05
3.45882e-19
-5e-05
3.18873e-19
-5e-05
2.7736e-19
-5e-05
2.41723e-19
-5e-05
2.04144e-19
-5e-05
1.74659e-19
-5e-05
1.32893e-19
-5e-05
1.01587e-19
-5e-05
7.50047e-20
-5e-05
4.33419e-20
-5e-05
2.81374e-20
1.33267e-20
-5e-05
2.15668e-16
-5e-05
-2.33453e-16
-5e-05
2.43321e-17
-5e-05
-1.00309e-17
-5e-05
2.55974e-18
-5e-05
-3.48091e-19
-5e-05
2.3057e-19
-5e-05
6.84065e-20
-5e-05
1.13895e-19
-5e-05
1.12333e-19
-5e-05
1.20078e-19
-5e-05
1.15621e-19
-5e-05
1.07982e-19
-5e-05
9.22042e-20
-5e-05
8.57159e-20
-5e-05
6.78146e-20
-5e-05
5.00391e-20
-5e-05
3.15758e-20
-5e-05
1.71314e-20
1.20929e-21
-5e-05
-1.83797e-16
-5e-05
2.00614e-16
-5e-05
-2.2046e-17
-5e-05
8.29531e-18
-5e-05
-2.50241e-18
-5e-05
2.38901e-20
-5e-05
-3.90864e-19
-5e-05
-1.69855e-19
-5e-05
-1.31765e-19
-5e-05
-7.01559e-20
-5e-05
-2.4186e-20
-5e-05
2.92138e-21
-5e-05
2.2355e-20
-5e-05
2.34901e-20
-5e-05
3.10325e-20
-5e-05
3.46628e-20
-5e-05
2.61995e-20
-5e-05
1.61846e-20
-5e-05
8.9104e-21
3.35411e-21
-5e-05
1.70921e-16
-5e-05
-1.80049e-16
-5e-05
1.966e-17
-5e-05
-8.60967e-18
-5e-05
1.05788e-18
-5e-05
-1.05645e-18
-5e-05
-5.034e-19
-5e-05
-4.93829e-19
-5e-05
-3.37398e-19
-5e-05
-2.41526e-19
-5e-05
-1.67851e-19
-5e-05
-1.07288e-19
-5e-05
-6.18611e-20
-5e-05
-2.4444e-20
-5e-05
-1.43376e-20
-5e-05
-8.10842e-22
-5e-05
4.45059e-21
-5e-05
4.19131e-21
-5e-05
-1.42419e-21
-3.76956e-21
-5e-05
-1.36559e-16
-5e-05
1.57832e-16
-5e-05
-1.92955e-17
-5e-05
5.51561e-18
-5e-05
-3.04643e-18
-5e-05
-9.14635e-19
-5e-05
-1.07579e-18
-5e-05
-7.41576e-19
-5e-05
-5.62262e-19
-5e-05
-3.89002e-19
-5e-05
-2.72946e-19
-5e-05
-1.8841e-19
-5e-05
-1.31598e-19
-5e-05
-8.28044e-20
-5e-05
-4.53599e-20
-5e-05
-2.39298e-20
-5e-05
-1.49348e-20
-5e-05
-1.46394e-20
-5e-05
-8.99966e-21
-3.88153e-21
-5e-05
1.53314e-16
-5e-05
-1.53511e-16
-5e-05
1.62606e-17
-5e-05
-8.96282e-18
-5e-05
-5.10849e-19
-5e-05
-1.98351e-18
-5e-05
-1.26623e-18
-5e-05
-1.02217e-18
-5e-05
-7.30847e-19
-5e-05
-5.23599e-19
-5e-05
-3.65987e-19
-5e-05
-2.51829e-19
-5e-05
-1.66362e-19
-5e-05
-1.03288e-19
-5e-05
-6.48832e-20
-5e-05
-4.89739e-20
-5e-05
-3.14088e-20
-5e-05
-2.87269e-20
-5e-05
-1.7756e-20
-6.79916e-21
-5e-05
-9.78489e-17
-5e-05
1.26625e-16
-5e-05
-1.9124e-17
-5e-05
2.37853e-18
-5e-05
-4.37826e-18
-5e-05
-2.01495e-18
-5e-05
-1.77789e-18
-5e-05
-1.19341e-18
-5e-05
-8.63745e-19
-5e-05
-5.98213e-19
-5e-05
-4.09212e-19
-5e-05
-2.71875e-19
-5e-05
-1.76095e-19
-5e-05
-1.19012e-19
-5e-05
-7.8005e-20
-5e-05
-5.28239e-20
-5e-05
-4.31177e-20
-5e-05
-3.01254e-20
-5e-05
-1.88053e-20
-4.85314e-21
-5e-05
1.48134e-16
-5e-05
-1.35597e-16
-5e-05
9.69183e-18
-5e-05
-1.04159e-17
-5e-05
-3.07721e-18
-5e-05
-2.90236e-18
-5e-05
-1.9139e-18
-5e-05
-1.2812e-18
-5e-05
-8.77697e-19
-5e-05
-5.82494e-19
-5e-05
-3.97367e-19
-5e-05
-2.66942e-19
-5e-05
-1.75819e-19
-5e-05
-1.18495e-19
-5e-05
-8.01932e-20
-5e-05
-4.94926e-20
-5e-05
-3.66417e-20
-5e-05
-2.51565e-20
-5e-05
-1.04995e-20
-7.42819e-21
-5e-05
-3.1336e-17
-5e-05
7.32417e-17
-5e-05
-2.51813e-17
-5e-05
-1.63453e-18
-5e-05
-7.48834e-18
-5e-05
-2.27212e-18
-5e-05
-2.12366e-18
-5e-05
-1.03832e-18
-5e-05
-7.56451e-19
-5e-05
-4.64167e-19
-5e-05
-3.2058e-19
-5e-05
-2.12471e-19
-5e-05
-1.47104e-19
-5e-05
-9.56771e-20
-5e-05
-6.06082e-20
-5e-05
-4.42087e-20
-5e-05
-3.01726e-20
-5e-05
-1.86134e-20
-5e-05
-1.16801e-20
3.69729e-21
-5e-05
1.4245e-16
-5e-05
-8.42835e-17
-5e-05
-4.66951e-17
-5e-05
2.02343e-18
-5e-05
-9.90718e-18
-5e-05
-1.23248e-20
-5e-05
-1.87142e-18
-5e-05
-4.243e-19
-5e-05
-4.94266e-19
-5e-05
-2.46471e-19
-5e-05
-1.88113e-19
-5e-05
-1.22334e-19
-5e-05
-8.50843e-20
-5e-05
-5.11824e-20
-5e-05
-3.18437e-20
-5e-05
-2.19366e-20
-5e-05
-1.34623e-20
-5e-05
-9.2104e-21
-5e-05
-3.61853e-21
-6.08832e-21
-5e-05
-5e-05
-5e-05
-5e-05
-5e-05
-5e-05
-5e-05
-5e-05
-5e-05
-5e-05
-5e-05
-5e-05
-5e-05
-5e-05
-5e-05
-5e-05
-5e-05
-5e-05
-5e-05
)
;

boundaryField
{
    movingWall
    {
        type            calculated;
        value           uniform 0;
    }
    fixedWalls
    {
        type            calculated;
        value           nonuniform List<scalar> 
60
(
5e-05
5e-05
5e-05
5e-05
5e-05
5e-05
5e-05
5e-05
5e-05
5e-05
5e-05
5e-05
5e-05
5e-05
5e-05
5e-05
5e-05
5e-05
5e-05
5e-05
-5e-05
-5e-05
-5e-05
-5e-05
-5e-05
-5e-05
-5e-05
-5e-05
-5e-05
-5e-05
-5e-05
-5e-05
-5e-05
-5e-05
-5e-05
-5e-05
-5e-05
-5e-05
-5e-05
-5e-05
0
0
0
0
0
0
0
0
0
0
0
0
0
0
0
0
0
0
0
0
)
;
    }
    frontAndBack
    {
        type            empty;
        value           nonuniform List<scalar> 0();
    }
}


// ************************************************************************* //
