/*--------------------------------*- C++ -*----------------------------------*\
| =========                 |                                                 |
| \\      /  F ield         | OpenFOAM: The Open Source CFD Toolbox           |
|  \\    /   O peration     | Version:  2312                                  |
|   \\  /    A nd           | Website:  www.openfoam.com                      |
|    \\/     M anipulation  |                                                 |
\*---------------------------------------------------------------------------*/
FoamFile
{
    version     2.0;
    format      ascii;
    arch        "LSB;label=32;scalar=64";
    class       volScalarField;
    location    "4.5";
    object      staticCoeffP;
}
// * * * * * * * * * * * * * * * * * * * * * * * * * * * * * * * * * * * * * //

dimensions      [0 0 0 0 0 0 0];

internalField   nonuniform List<scalar> 
400
(
1.33227e-15
0
3.40217e-12
1.87406e-13
7.66498e-13
2.50466e-13
2.54463e-13
1.64757e-13
1.40332e-13
1.15019e-13
1.01696e-13
9.10383e-14
8.43769e-14
7.90479e-14
7.54952e-14
7.37188e-14
7.19425e-14
7.01661e-14
6.92779e-14
6.92779e-14
1.66533e-13
2.76934e-12
3.4639e-13
3.25073e-13
2.78888e-13
2.24709e-13
1.86962e-13
1.49214e-13
1.25677e-13
1.08802e-13
9.68114e-14
8.79297e-14
8.17124e-14
7.77156e-14
7.4607e-14
7.23865e-14
7.10543e-14
7.01661e-14
6.92779e-14
6.92779e-14
0
0
0
0
1.96732e-13
1.03917e-13
1.34559e-13
1.13687e-13
1.05693e-13
9.54792e-14
8.83738e-14
8.21565e-14
7.77156e-14
7.4607e-14
7.28306e-14
7.10543e-14
6.9722e-14
6.88338e-14
6.88338e-14
6.83897e-14
8.92175e-13
1.04987e-11
0
3.49498e-13
0
6.75016e-14
6.70575e-14
8.34888e-14
8.21565e-14
8.08242e-14
7.81597e-14
7.54952e-14
7.32747e-14
7.10543e-14
7.01661e-14
6.88338e-14
6.83897e-14
6.79456e-14
6.75016e-14
6.75016e-14
0
0
0
0
8.9706e-14
2.22045e-15
5.15143e-14
5.41789e-14
6.35048e-14
6.66134e-14
6.79456e-14
6.83897e-14
6.79456e-14
6.75016e-14
6.70575e-14
6.66134e-14
6.66134e-14
6.66134e-14
6.61693e-14
6.66134e-14
1.62359e-12
9.29923e-12
0
2.66898e-13
0
8.43769e-15
1.37668e-14
3.86358e-14
4.75175e-14
5.4623e-14
5.90639e-14
6.21725e-14
6.30607e-14
6.35048e-14
6.39488e-14
6.43929e-14
6.52811e-14
6.52811e-14
6.52811e-14
6.52811e-14
0
0
0
0
3.81917e-14
0
1.46549e-14
2.39808e-14
3.77476e-14
4.57412e-14
5.15143e-14
5.55112e-14
5.81757e-14
5.9952e-14
6.08402e-14
6.21725e-14
6.35048e-14
6.39488e-14
6.43929e-14
6.43929e-14
1.91136e-12
6.10889e-12
0
1.43441e-13
0
0
0
1.82077e-14
2.9754e-14
3.95239e-14
4.61853e-14
5.10703e-14
5.4623e-14
5.68434e-14
5.90639e-14
6.03961e-14
6.21725e-14
6.26166e-14
6.30607e-14
6.35048e-14
0
0
0
0
6.66134e-15
0
1.33227e-15
1.24345e-14
2.53131e-14
3.5083e-14
4.26326e-14
4.79616e-14
5.19584e-14
5.50671e-14
5.72875e-14
5.9508e-14
5.9952e-14
6.12843e-14
6.21725e-14
6.30607e-14
1.80034e-12
3.53761e-12
1.33227e-15
5.32907e-14
0
0
0
1.15463e-14
2.26485e-14
3.24185e-14
4.04121e-14
4.61853e-14
5.06262e-14
5.41789e-14
5.63993e-14
5.86198e-14
5.9508e-14
6.03961e-14
6.17284e-14
6.21725e-14
0
0
0
0
0
0
0
1.06581e-14
2.30926e-14
3.24185e-14
4.04121e-14
4.57412e-14
5.01821e-14
5.32907e-14
5.59552e-14
5.81757e-14
5.9508e-14
6.03961e-14
6.12843e-14
6.17284e-14
1.52856e-12
2.06812e-12
1.68754e-14
5.32907e-15
0
0
0
1.28786e-14
2.44249e-14
3.41949e-14
4.13003e-14
4.66294e-14
5.06262e-14
5.32907e-14
5.59552e-14
5.81757e-14
5.9508e-14
6.03961e-14
6.12843e-14
6.17284e-14
0
0
0
0
0
0
4.44089e-15
1.64313e-14
2.79776e-14
3.68594e-14
4.30767e-14
4.84057e-14
5.15143e-14
5.4623e-14
5.68434e-14
5.86198e-14
5.9952e-14
6.08402e-14
6.12843e-14
6.17284e-14
1.30607e-12
1.34648e-12
1.55431e-14
0
0
0
8.88178e-15
2.26485e-14
3.28626e-14
4.08562e-14
4.66294e-14
5.10703e-14
5.37348e-14
5.59552e-14
5.81757e-14
5.9508e-14
6.03961e-14
6.08402e-14
6.17284e-14
6.26166e-14
0
0
0
0
0
4.44089e-16
1.95399e-14
3.15303e-14
4.04121e-14
4.61853e-14
5.06262e-14
5.41789e-14
5.68434e-14
5.81757e-14
5.9508e-14
6.03961e-14
6.08402e-14
6.17284e-14
6.26166e-14
6.30607e-14
1.16795e-12
8.49099e-13
2.22045e-15
0
0
1.37668e-14
3.33067e-14
4.39648e-14
5.01821e-14
5.37348e-14
5.68434e-14
5.86198e-14
5.9952e-14
6.03961e-14
6.12843e-14
6.17284e-14
6.17284e-14
6.26166e-14
6.30607e-14
6.39488e-14
0
0
0
0
2.04281e-14
3.90799e-14
5.59552e-14
6.08402e-14
6.30607e-14
6.30607e-14
6.30607e-14
6.30607e-14
6.26166e-14
6.30607e-14
6.30607e-14
6.30607e-14
6.30607e-14
6.35048e-14
6.39488e-14
6.43929e-14
1.06715e-12
6.4837e-14
4.21885e-14
0
7.77156e-14
7.77156e-14
8.74856e-14
8.08242e-14
7.72715e-14
7.23865e-14
6.9722e-14
6.75016e-14
6.61693e-14
6.4837e-14
6.43929e-14
6.39488e-14
6.39488e-14
6.43929e-14
6.43929e-14
6.52811e-14
0
0
2.93987e-13
3.5083e-14
2.2693e-13
1.35003e-13
1.27454e-13
1.00808e-13
9.01501e-14
8.03801e-14
7.4607e-14
7.06102e-14
6.83897e-14
6.66134e-14
6.57252e-14
6.4837e-14
6.4837e-14
6.43929e-14
6.4837e-14
6.52811e-14
5.00489e-13
0
2.75113e-12
0
5.48894e-13
1.2701e-13
1.72307e-13
1.08358e-13
9.99201e-14
8.4821e-14
7.81597e-14
7.28306e-14
7.01661e-14
6.75016e-14
6.61693e-14
6.52811e-14
6.4837e-14
6.4837e-14
6.4837e-14
6.57252e-14
)
;

boundaryField
{
    movingWall
    {
        type            calculated;
        value           nonuniform List<scalar> 
20
(
5.00489e-13
0
2.75113e-12
0
5.48894e-13
1.2701e-13
1.72307e-13
1.08358e-13
9.99201e-14
8.4821e-14
7.81597e-14
7.28306e-14
7.01661e-14
6.75016e-14
6.61693e-14
6.52811e-14
6.4837e-14
6.4837e-14
6.4837e-14
6.57252e-14
)
;
    }
    fixedWalls
    {
        type            calculated;
        value           nonuniform List<scalar> 
60
(
1.33227e-15
1.66533e-13
0
8.92175e-13
0
1.62359e-12
0
1.91136e-12
0
1.80034e-12
0
1.52856e-12
0
1.30607e-12
0
1.16795e-12
0
1.06715e-12
0
5.00489e-13
6.92779e-14
6.92779e-14
6.83897e-14
6.75016e-14
6.66134e-14
6.52811e-14
6.43929e-14
6.35048e-14
6.30607e-14
6.21725e-14
6.17284e-14
6.17284e-14
6.17284e-14
6.26166e-14
6.30607e-14
6.39488e-14
6.43929e-14
6.52811e-14
6.52811e-14
6.57252e-14
1.33227e-15
0
3.40217e-12
1.87406e-13
7.66498e-13
2.50466e-13
2.54463e-13
1.64757e-13
1.40332e-13
1.15019e-13
1.01696e-13
9.10383e-14
8.43769e-14
7.90479e-14
7.54952e-14
7.37188e-14
7.19425e-14
7.01661e-14
6.92779e-14
6.92779e-14
)
;
    }
    frontAndBack
    {
        type            empty;
    }
}


// ************************************************************************* //
