/*--------------------------------*- C++ -*----------------------------------*\
| =========                 |                                                 |
| \\      /  F ield         | OpenFOAM: The Open Source CFD Toolbox           |
|  \\    /   O peration     | Version:  2312                                  |
|   \\  /    A nd           | Website:  www.openfoam.com                      |
|    \\/     M anipulation  |                                                 |
\*---------------------------------------------------------------------------*/
FoamFile
{
    version     2.0;
    format      ascii;
    arch        "LSB;label=32;scalar=64";
    class       surfaceScalarField;
    location    "4.5";
    object      surfaceK;
}
// * * * * * * * * * * * * * * * * * * * * * * * * * * * * * * * * * * * * * //

dimensions      [0 2 -2 0 0 0 0];

internalField   nonuniform List<scalar> 
760
(
1.93923e-05
2.06947e-05
1.93922e-05
2.06947e-05
1.93921e-05
2.06928e-05
1.93921e-05
2.0692e-05
1.9392e-05
2.06907e-05
1.9392e-05
2.06901e-05
1.93919e-05
2.06889e-05
1.93919e-05
2.06884e-05
1.93919e-05
2.06874e-05
1.93918e-05
2.06869e-05
1.93918e-05
2.06862e-05
1.93918e-05
2.06858e-05
1.93918e-05
2.06852e-05
1.93918e-05
2.06849e-05
1.93918e-05
2.06845e-05
1.93918e-05
2.06843e-05
1.93917e-05
2.0684e-05
1.93917e-05
2.06839e-05
1.93917e-05
2.06838e-05
2.06838e-05
2.19971e-05
2.36656e-05
2.19953e-05
2.36655e-05
2.19927e-05
2.36612e-05
2.19907e-05
2.36595e-05
2.19888e-05
2.36565e-05
2.19871e-05
2.3655e-05
2.19854e-05
2.36525e-05
2.19839e-05
2.36511e-05
2.19825e-05
2.36491e-05
2.19813e-05
2.36478e-05
2.19802e-05
2.36463e-05
2.19792e-05
2.36451e-05
2.19783e-05
2.36441e-05
2.19776e-05
2.36431e-05
2.1977e-05
2.36424e-05
2.19766e-05
2.36417e-05
2.19762e-05
2.36413e-05
2.1976e-05
2.3641e-05
2.19759e-05
2.36408e-05
2.36407e-05
2.5334e-05
2.66845e-05
2.53314e-05
2.66843e-05
2.5328e-05
2.66788e-05
2.53253e-05
2.66767e-05
2.53227e-05
2.66728e-05
2.53204e-05
2.66709e-05
2.53182e-05
2.66677e-05
2.53163e-05
2.66659e-05
2.53143e-05
2.66634e-05
2.53128e-05
2.66616e-05
2.53112e-05
2.66599e-05
2.531e-05
2.66581e-05
2.53089e-05
2.66572e-05
2.53079e-05
2.66556e-05
2.53071e-05
2.6655e-05
2.53065e-05
2.6654e-05
2.53061e-05
2.66535e-05
2.53058e-05
2.66531e-05
2.53057e-05
2.66529e-05
2.66528e-05
2.80349e-05
2.89196e-05
2.80317e-05
2.89194e-05
2.80275e-05
2.89129e-05
2.80242e-05
2.89103e-05
2.8021e-05
2.89059e-05
2.80182e-05
2.89035e-05
2.80154e-05
2.88999e-05
2.8013e-05
2.88975e-05
2.80107e-05
2.88948e-05
2.80087e-05
2.88925e-05
2.80069e-05
2.88906e-05
2.80053e-05
2.88885e-05
2.8004e-05
2.88873e-05
2.80027e-05
2.88856e-05
2.80018e-05
2.88847e-05
2.8001e-05
2.88836e-05
2.80005e-05
2.8883e-05
2.80002e-05
2.88825e-05
2.8e-05
2.88823e-05
2.88821e-05
2.98042e-05
3.03265e-05
2.98006e-05
3.03263e-05
2.97957e-05
3.0319e-05
2.9792e-05
3.03163e-05
2.97884e-05
3.03113e-05
2.97852e-05
3.03087e-05
2.9782e-05
3.03047e-05
2.97793e-05
3.03022e-05
2.97766e-05
3.0299e-05
2.97744e-05
3.02968e-05
2.97723e-05
3.02943e-05
2.97704e-05
3.02923e-05
2.97689e-05
3.02906e-05
2.97676e-05
3.02891e-05
2.97665e-05
3.02878e-05
2.97656e-05
3.02869e-05
2.9765e-05
3.0286e-05
2.97646e-05
3.02856e-05
2.97644e-05
3.02852e-05
3.02851e-05
3.08487e-05
3.11476e-05
3.08448e-05
3.11474e-05
3.08396e-05
3.11397e-05
3.08356e-05
3.11369e-05
3.08317e-05
3.11314e-05
3.08282e-05
3.11289e-05
3.08249e-05
3.11244e-05
3.08219e-05
3.1122e-05
3.08192e-05
3.11185e-05
3.08167e-05
3.11162e-05
3.08144e-05
3.11135e-05
3.08125e-05
3.11116e-05
3.08108e-05
3.11096e-05
3.08093e-05
3.11081e-05
3.08081e-05
3.11067e-05
3.08073e-05
3.11056e-05
3.08066e-05
3.11048e-05
3.08062e-05
3.11043e-05
3.0806e-05
3.1104e-05
3.11039e-05
3.14464e-05
3.16244e-05
3.14424e-05
3.16241e-05
3.1437e-05
3.16163e-05
3.14327e-05
3.16132e-05
3.14287e-05
3.16078e-05
3.14251e-05
3.1605e-05
3.14216e-05
3.16005e-05
3.14186e-05
3.15978e-05
3.14156e-05
3.15944e-05
3.14131e-05
3.15917e-05
3.14107e-05
3.15894e-05
3.14087e-05
3.15869e-05
3.14069e-05
3.15853e-05
3.14054e-05
3.15834e-05
3.14042e-05
3.15822e-05
3.14032e-05
3.1581e-05
3.14025e-05
3.15802e-05
3.14021e-05
3.15796e-05
3.14019e-05
3.15793e-05
3.15792e-05
3.18022e-05
3.19206e-05
3.17981e-05
3.19204e-05
3.17925e-05
3.19122e-05
3.17883e-05
3.19093e-05
3.17841e-05
3.19036e-05
3.17804e-05
3.19009e-05
3.17768e-05
3.18962e-05
3.17737e-05
3.18936e-05
3.17706e-05
3.18899e-05
3.17681e-05
3.18875e-05
3.17656e-05
3.18846e-05
3.17635e-05
3.18826e-05
3.17618e-05
3.18805e-05
3.17602e-05
3.1879e-05
3.1759e-05
3.18774e-05
3.1758e-05
3.18764e-05
3.17573e-05
3.18755e-05
3.17569e-05
3.1875e-05
3.17566e-05
3.18746e-05
3.18745e-05
3.20388e-05
3.21308e-05
3.20345e-05
3.21306e-05
3.20289e-05
3.21223e-05
3.20246e-05
3.21193e-05
3.20204e-05
3.21136e-05
3.20166e-05
3.21108e-05
3.2013e-05
3.2106e-05
3.20098e-05
3.21035e-05
3.20068e-05
3.20996e-05
3.20041e-05
3.20973e-05
3.20016e-05
3.20944e-05
3.19996e-05
3.20923e-05
3.19977e-05
3.20902e-05
3.19962e-05
3.20886e-05
3.19949e-05
3.20871e-05
3.19939e-05
3.2086e-05
3.19932e-05
3.20851e-05
3.19927e-05
3.20846e-05
3.19925e-05
3.20842e-05
3.20841e-05
3.22225e-05
3.23057e-05
3.22184e-05
3.23054e-05
3.22127e-05
3.22972e-05
3.22082e-05
3.22939e-05
3.2204e-05
3.22883e-05
3.22002e-05
3.22854e-05
3.21965e-05
3.22807e-05
3.21933e-05
3.2278e-05
3.21902e-05
3.22742e-05
3.21875e-05
3.22717e-05
3.2185e-05
3.22688e-05
3.21829e-05
3.22667e-05
3.21811e-05
3.22646e-05
3.21795e-05
3.2263e-05
3.21782e-05
3.22614e-05
3.21772e-05
3.22604e-05
3.21765e-05
3.22594e-05
3.2176e-05
3.22589e-05
3.21758e-05
3.22585e-05
3.22584e-05
3.23885e-05
3.24719e-05
3.23842e-05
3.24717e-05
3.23784e-05
3.24633e-05
3.2374e-05
3.24601e-05
3.23698e-05
3.24544e-05
3.23659e-05
3.24515e-05
3.23622e-05
3.24466e-05
3.23589e-05
3.2444e-05
3.23557e-05
3.244e-05
3.2353e-05
3.24376e-05
3.23505e-05
3.24347e-05
3.23484e-05
3.24325e-05
3.23465e-05
3.24304e-05
3.23449e-05
3.24288e-05
3.23436e-05
3.24272e-05
3.23426e-05
3.24261e-05
3.23418e-05
3.24252e-05
3.23414e-05
3.24246e-05
3.23412e-05
3.24243e-05
3.24241e-05
3.25551e-05
3.26445e-05
3.25508e-05
3.26442e-05
3.2545e-05
3.2636e-05
3.25404e-05
3.26325e-05
3.25361e-05
3.26268e-05
3.25322e-05
3.26237e-05
3.25284e-05
3.2619e-05
3.25252e-05
3.2616e-05
3.25219e-05
3.26126e-05
3.25193e-05
3.26095e-05
3.25167e-05
3.26072e-05
3.25145e-05
3.26044e-05
3.25127e-05
3.26028e-05
3.2511e-05
3.26007e-05
3.25098e-05
3.25995e-05
3.25087e-05
3.25981e-05
3.2508e-05
3.25973e-05
3.25075e-05
3.25967e-05
3.25073e-05
3.25964e-05
3.25962e-05
3.27336e-05
3.28331e-05
3.27294e-05
3.28327e-05
3.27235e-05
3.28244e-05
3.27189e-05
3.2821e-05
3.27144e-05
3.28152e-05
3.27106e-05
3.28122e-05
3.27067e-05
3.28072e-05
3.27034e-05
3.28045e-05
3.27001e-05
3.28006e-05
3.26974e-05
3.2798e-05
3.26949e-05
3.2795e-05
3.26927e-05
3.27929e-05
3.26908e-05
3.27907e-05
3.26892e-05
3.2789e-05
3.26878e-05
3.27874e-05
3.26867e-05
3.27863e-05
3.26861e-05
3.27853e-05
3.26856e-05
3.27848e-05
3.26853e-05
3.27844e-05
3.27843e-05
3.29322e-05
3.30453e-05
3.29278e-05
3.3045e-05
3.29219e-05
3.30363e-05
3.29173e-05
3.3033e-05
3.2913e-05
3.30271e-05
3.29089e-05
3.30241e-05
3.29051e-05
3.3019e-05
3.29017e-05
3.30164e-05
3.28984e-05
3.30122e-05
3.28957e-05
3.30098e-05
3.2893e-05
3.30066e-05
3.28908e-05
3.30045e-05
3.28888e-05
3.30022e-05
3.28873e-05
3.30006e-05
3.28859e-05
3.29989e-05
3.28848e-05
3.29979e-05
3.2884e-05
3.29969e-05
3.28836e-05
3.29963e-05
3.28833e-05
3.29959e-05
3.29958e-05
3.3158e-05
3.32875e-05
3.31535e-05
3.32873e-05
3.31474e-05
3.32784e-05
3.31428e-05
3.32751e-05
3.31383e-05
3.32691e-05
3.31343e-05
3.3266e-05
3.31303e-05
3.32609e-05
3.31269e-05
3.32581e-05
3.31236e-05
3.32541e-05
3.31208e-05
3.32515e-05
3.31181e-05
3.32484e-05
3.31159e-05
3.32461e-05
3.3114e-05
3.32439e-05
3.31123e-05
3.32422e-05
3.3111e-05
3.32405e-05
3.31099e-05
3.32394e-05
3.31091e-05
3.32384e-05
3.31086e-05
3.32379e-05
3.31084e-05
3.32375e-05
3.32373e-05
3.34168e-05
3.35628e-05
3.34122e-05
3.35626e-05
3.34061e-05
3.35537e-05
3.34014e-05
3.35502e-05
3.33968e-05
3.35442e-05
3.33927e-05
3.3541e-05
3.33888e-05
3.35358e-05
3.33852e-05
3.35329e-05
3.33819e-05
3.35289e-05
3.33791e-05
3.35261e-05
3.33764e-05
3.35232e-05
3.33741e-05
3.35207e-05
3.33721e-05
3.35186e-05
3.33704e-05
3.35167e-05
3.3369e-05
3.35151e-05
3.3368e-05
3.35139e-05
3.33671e-05
3.3513e-05
3.33667e-05
3.35123e-05
3.33664e-05
3.3512e-05
3.35118e-05
3.37086e-05
3.38622e-05
3.37041e-05
3.38619e-05
3.36979e-05
3.38529e-05
3.3693e-05
3.38493e-05
3.36883e-05
3.38431e-05
3.36841e-05
3.38399e-05
3.368e-05
3.38347e-05
3.36766e-05
3.38317e-05
3.36731e-05
3.38276e-05
3.36702e-05
3.38248e-05
3.36675e-05
3.38218e-05
3.36651e-05
3.38192e-05
3.36632e-05
3.38171e-05
3.36614e-05
3.38152e-05
3.366e-05
3.38137e-05
3.36589e-05
3.38123e-05
3.36582e-05
3.38114e-05
3.36576e-05
3.38108e-05
3.36574e-05
3.38104e-05
3.38102e-05
3.40155e-05
3.41509e-05
3.40107e-05
3.41509e-05
3.40043e-05
3.41414e-05
3.39995e-05
3.41383e-05
3.39947e-05
3.41319e-05
3.39905e-05
3.41289e-05
3.39864e-05
3.41234e-05
3.39828e-05
3.41208e-05
3.39794e-05
3.41162e-05
3.39764e-05
3.41141e-05
3.39736e-05
3.41102e-05
3.39712e-05
3.41085e-05
3.39691e-05
3.41056e-05
3.39674e-05
3.41042e-05
3.39659e-05
3.41022e-05
3.39648e-05
3.41012e-05
3.3964e-05
3.41001e-05
3.39635e-05
3.40995e-05
3.39632e-05
3.40991e-05
3.4099e-05
3.42863e-05
3.43432e-05
3.42816e-05
3.43432e-05
3.42754e-05
3.43384e-05
3.42707e-05
3.43369e-05
3.42661e-05
3.43336e-05
3.42619e-05
3.43321e-05
3.42579e-05
3.43293e-05
3.42543e-05
3.4328e-05
3.42509e-05
3.43257e-05
3.42479e-05
3.43246e-05
3.42452e-05
3.43226e-05
3.42428e-05
3.43218e-05
3.42407e-05
3.43203e-05
3.4239e-05
3.43197e-05
3.42375e-05
3.43186e-05
3.42365e-05
3.43181e-05
3.42356e-05
3.43175e-05
3.42351e-05
3.43173e-05
3.42348e-05
3.43171e-05
3.4317e-05
3.44001e-05
3.43999e-05
3.43998e-05
3.43997e-05
3.43996e-05
3.43995e-05
3.43995e-05
3.43994e-05
3.43994e-05
3.43993e-05
3.43993e-05
3.43993e-05
3.43993e-05
3.43992e-05
3.43992e-05
3.43992e-05
3.43992e-05
3.43992e-05
3.43992e-05
)
;

boundaryField
{
    movingWall
    {
        type            calculated;
        value           nonuniform List<scalar> 
20
(
3.44002e-05
3.44e-05
3.43998e-05
3.43997e-05
3.43997e-05
3.43996e-05
3.43995e-05
3.43994e-05
3.43994e-05
3.43993e-05
3.43993e-05
3.43993e-05
3.43993e-05
3.43992e-05
3.43992e-05
3.43992e-05
3.43992e-05
3.43992e-05
3.43992e-05
3.43992e-05
)
;
    }
    fixedWalls
    {
        type            calculated;
        value           nonuniform List<scalar> 
60
(
1.93923e-05
2.19971e-05
2.5334e-05
2.8035e-05
2.98043e-05
3.08487e-05
3.14465e-05
3.18023e-05
3.20389e-05
3.22227e-05
3.23886e-05
3.25553e-05
3.27338e-05
3.29323e-05
3.31582e-05
3.34169e-05
3.37088e-05
3.40155e-05
3.42862e-05
3.44002e-05
1.93917e-05
2.19759e-05
2.53056e-05
2.79999e-05
2.97644e-05
3.08059e-05
3.14018e-05
3.17565e-05
3.19924e-05
3.21757e-05
3.23411e-05
3.25072e-05
3.26853e-05
3.28833e-05
3.31083e-05
3.33663e-05
3.36573e-05
3.39632e-05
3.42348e-05
3.43992e-05
1.93923e-05
1.93922e-05
1.93922e-05
1.93921e-05
1.9392e-05
1.9392e-05
1.93919e-05
1.93919e-05
1.93919e-05
1.93918e-05
1.93918e-05
1.93918e-05
1.93918e-05
1.93918e-05
1.93918e-05
1.93918e-05
1.93918e-05
1.93917e-05
1.93917e-05
1.93917e-05
)
;
    }
    frontAndBack
    {
        type            empty;
        value           nonuniform List<scalar> 0();
    }
}


// ************************************************************************* //
