/*--------------------------------*- C++ -*----------------------------------*\
| =========                 |                                                 |
| \\      /  F ield         | OpenFOAM: The Open Source CFD Toolbox           |
|  \\    /   O peration     | Version:  2312                                  |
|   \\  /    A nd           | Website:  www.openfoam.com                      |
|    \\/     M anipulation  |                                                 |
\*---------------------------------------------------------------------------*/
FoamFile
{
    version     2.0;
    format      ascii;
    arch        "LSB;label=32;scalar=64";
    class       surfaceScalarField;
    location    "4.5";
    object      surfaceP;
}
// * * * * * * * * * * * * * * * * * * * * * * * * * * * * * * * * * * * * * //

dimensions      [0 2 -2 0 0 0 0];

internalField   nonuniform List<scalar> 
760
(
2.84526e-16
4.19577e-14
8.50581e-13
6.92378e-13
8.9747e-13
9.37138e-13
2.38518e-13
1.28143e-13
2.54295e-13
2.61363e-13
1.26239e-13
1.18851e-13
1.04809e-13
1.10318e-13
7.63594e-14
7.85086e-14
6.38962e-14
6.65363e-14
5.41631e-14
5.59348e-14
4.8161e-14
4.95571e-14
4.38222e-14
4.47098e-14
4.07988e-14
4.14959e-14
3.86121e-14
3.91358e-14
3.72505e-14
3.74769e-14
3.63935e-14
3.64464e-14
3.55849e-14
3.57821e-14
3.49156e-14
3.5067e-14
3.46594e-14
3.46706e-14
3.4629e-14
7.34052e-13
4.16732e-14
7.78936e-13
6.92378e-13
1.6781e-13
8.65572e-14
1.50988e-13
8.12529e-14
1.25919e-13
1.18957e-13
1.0293e-13
8.21507e-14
8.40176e-14
8.04232e-14
6.86855e-14
6.5688e-14
5.85749e-14
5.77831e-14
5.13287e-14
5.10547e-14
4.61058e-14
4.62808e-14
4.23835e-14
4.24879e-14
3.9833e-14
3.99178e-14
3.80005e-14
3.80414e-14
3.66727e-14
3.68276e-14
3.58349e-14
3.58248e-14
3.52641e-14
3.51793e-14
3.4822e-14
3.47309e-14
3.46402e-14
3.44999e-14
3.44359e-14
0
2.23099e-13
0
2.62464e-12
0
0
4.92215e-14
8.73689e-14
7.51885e-14
4.92215e-14
5.9644e-14
4.27902e-14
6.20937e-14
5.04347e-14
5.47857e-14
4.92938e-14
5.02629e-14
4.6885e-14
4.60067e-14
4.41537e-14
4.26628e-14
4.16117e-14
4.00222e-14
3.93877e-14
3.81263e-14
3.77396e-14
3.68685e-14
3.64715e-14
3.59797e-14
3.57424e-14
3.51692e-14
3.49841e-14
3.46461e-14
3.45111e-14
3.44089e-14
3.42074e-14
3.42956e-14
3.40267e-14
3.40424e-14
2.84774e-12
2.23099e-13
2.62464e-12
2.62464e-12
8.73689e-14
0
8.73689e-14
8.73689e-14
1.68233e-14
2.243e-14
3.35808e-14
1.73672e-14
3.76348e-14
2.96111e-14
4.13931e-14
3.43965e-14
4.07758e-14
3.64225e-14
3.97587e-14
3.68732e-14
3.83366e-14
3.65057e-14
3.71051e-14
3.59576e-14
3.60847e-14
3.52596e-14
3.53454e-14
3.46583e-14
3.47467e-14
3.42973e-14
3.4326e-14
3.38527e-14
3.40724e-14
3.37863e-14
3.38252e-14
3.35864e-14
3.37735e-14
3.34408e-14
3.35283e-14
0
4.05922e-13
0
2.32475e-12
0
0
2.243e-14
6.67657e-14
2.29739e-14
2.243e-14
1.33974e-14
2.64469e-15
2.63728e-14
1.63181e-14
2.94259e-14
2.31867e-14
3.25199e-14
2.78078e-14
3.36202e-14
3.02634e-14
3.41267e-14
3.17801e-14
3.41121e-14
3.26435e-14
3.38332e-14
3.27155e-14
3.36103e-14
3.26715e-14
3.34034e-14
3.27338e-14
3.33131e-14
3.27288e-14
3.33004e-14
3.29847e-14
3.32021e-14
3.29228e-14
3.31957e-14
3.29054e-14
3.29654e-14
2.73068e-12
4.05922e-13
2.32475e-12
2.32475e-12
6.67657e-14
0
6.67657e-14
6.67657e-14
2.10078e-15
9.58117e-15
5.56541e-15
2.10078e-15
1.31321e-14
7.11424e-15
2.15687e-14
1.56399e-14
2.55514e-14
2.12842e-14
2.84232e-14
2.50363e-14
3.02968e-14
2.76928e-14
3.12469e-14
2.94479e-14
3.15537e-14
3.03064e-14
3.1795e-14
3.08025e-14
3.20592e-14
3.11864e-14
3.24004e-14
3.16692e-14
3.26072e-14
3.21511e-14
3.26261e-14
3.23416e-14
3.26751e-14
3.23984e-14
3.24623e-14
0
4.77804e-13
0
1.52723e-12
0
0
9.58117e-15
3.58206e-14
9.58117e-15
9.58117e-15
3.64961e-15
0
9.62213e-15
3.64961e-15
1.53555e-14
1.053e-14
2.07692e-14
1.6787e-14
2.43058e-14
2.12339e-14
2.68438e-14
2.44629e-14
2.85074e-14
2.67332e-14
2.95552e-14
2.82724e-14
3.0194e-14
2.92161e-14
3.07964e-14
2.99513e-14
3.14199e-14
3.07006e-14
3.18856e-14
3.13359e-14
3.21139e-14
3.17028e-14
3.21856e-14
3.18416e-14
3.20231e-14
2.00503e-12
4.77804e-13
1.52723e-12
1.52723e-12
3.58206e-14
0
3.58206e-14
3.58206e-14
0
1.62597e-15
0
0
4.55745e-15
3.06985e-16
1.19615e-14
7.69066e-15
1.72517e-14
1.37479e-14
2.1391e-14
1.86076e-14
2.43524e-14
2.21588e-14
2.64982e-14
2.47852e-14
2.79333e-14
2.67247e-14
2.89734e-14
2.80305e-14
2.98556e-14
2.90594e-14
3.06167e-14
2.99539e-14
3.11532e-14
3.05264e-14
3.14306e-14
3.09423e-14
3.16791e-14
3.13238e-14
3.16291e-14
0
4.5006e-13
0
8.84367e-13
0
3.01463e-16
1.62597e-15
1.33269e-14
1.62597e-15
1.62597e-15
3.06985e-16
0
3.4402e-15
3.06985e-16
9.47706e-15
6.04673e-15
1.51039e-14
1.20492e-14
1.93755e-14
1.68961e-14
2.25917e-14
2.07016e-14
2.50117e-14
2.3473e-14
2.68219e-14
2.56908e-14
2.81164e-14
2.7373e-14
2.91578e-14
2.84809e-14
2.98637e-14
2.94469e-14
3.03155e-14
2.99136e-14
3.08354e-14
3.04028e-14
3.12737e-14
3.09587e-14
3.12678e-14
1.33443e-12
4.5006e-13
8.84668e-13
8.84367e-13
1.36283e-14
3.01463e-16
1.33269e-14
1.33269e-14
0
0
0
0
2.91352e-15
0
8.61892e-15
5.5743e-15
1.38415e-14
1.14234e-14
1.82223e-14
1.62155e-14
2.15829e-14
2.01394e-14
2.41521e-14
2.29073e-14
2.62418e-14
2.52084e-14
2.77375e-14
2.68987e-14
2.877e-14
2.81661e-14
2.94968e-14
2.91538e-14
3.00009e-14
2.97119e-14
3.0526e-14
3.02663e-14
3.09527e-14
3.06917e-14
3.0943e-14
0
3.82186e-13
0
5.17043e-13
0
4.21087e-15
0
1.33641e-15
0
0
0
0
2.66079e-15
0
8.37879e-15
5.92282e-15
1.37974e-14
1.18392e-14
1.81327e-14
1.65839e-14
2.14637e-14
2.03636e-14
2.39636e-14
2.30245e-14
2.58652e-14
2.51878e-14
2.73273e-14
2.66804e-14
2.85498e-14
2.79644e-14
2.9369e-14
2.90777e-14
2.99774e-14
2.97227e-14
3.0432e-14
3.02764e-14
3.06819e-14
3.05742e-14
3.08694e-14
8.99229e-13
3.82186e-13
5.21254e-13
5.17043e-13
5.54728e-15
4.21087e-15
1.33641e-15
1.33641e-15
0
0
0
0
3.26203e-15
1.12282e-15
9.3832e-15
7.40467e-15
1.46257e-14
1.30902e-14
1.88149e-14
1.76769e-14
2.19244e-14
2.10396e-14
2.42486e-14
2.36687e-14
2.6003e-14
2.55239e-14
2.73176e-14
2.70567e-14
2.84923e-14
2.81288e-14
2.94314e-14
2.91559e-14
3.00217e-14
2.98517e-14
3.04185e-14
3.03391e-14
3.07616e-14
3.06179e-14
3.09549e-14
0
3.265e-13
0
3.36613e-13
0
3.86523e-15
0
0
0
0
1.12282e-15
0
5.26546e-15
3.37845e-15
1.11117e-14
9.79862e-15
1.61415e-14
1.51623e-14
1.99017e-14
1.93585e-14
2.27839e-14
2.23675e-14
2.49439e-14
2.47893e-14
2.65777e-14
2.6337e-14
2.7868e-14
2.76689e-14
2.87924e-14
2.86827e-14
2.95762e-14
2.94586e-14
3.01692e-14
3.00399e-14
3.05385e-14
3.04624e-14
3.08112e-14
3.07982e-14
3.11049e-14
6.63112e-13
3.265e-13
3.40478e-13
3.36613e-13
3.86523e-15
3.86523e-15
0
0
0
0
2.25564e-15
1.01821e-16
7.91161e-15
7.17953e-15
1.38492e-14
1.35922e-14
1.83793e-14
1.83089e-14
2.18244e-14
2.16984e-14
2.4373e-14
2.43373e-14
2.61825e-14
2.63173e-14
2.74283e-14
2.76494e-14
2.84836e-14
2.85265e-14
2.93488e-14
2.93805e-14
2.99223e-14
2.99422e-14
3.0333e-14
3.03392e-14
3.0722e-14
3.06491e-14
3.10919e-14
3.10914e-14
3.14256e-14
0
2.91996e-13
0
2.12253e-13
0
5.12388e-16
0
0
1.01821e-16
0
5.02572e-15
3.54094e-15
1.28601e-14
1.33035e-14
1.8052e-14
1.89388e-14
2.16279e-14
2.27037e-14
2.42113e-14
2.49606e-14
2.62817e-14
2.68618e-14
2.77843e-14
2.82354e-14
2.87476e-14
2.91717e-14
2.94234e-14
2.96495e-14
2.99739e-14
3.01869e-14
3.03591e-14
3.05654e-14
3.06552e-14
3.07468e-14
3.10184e-14
3.10637e-14
3.14251e-14
3.14297e-14
3.18082e-14
5.04249e-13
2.91996e-13
2.12765e-13
2.12253e-13
5.12388e-16
5.12388e-16
0
0
3.43912e-15
5.14384e-15
1.18188e-14
1.32004e-14
1.93821e-14
2.23615e-14
2.35905e-14
2.61631e-14
2.60364e-14
2.83068e-14
2.76112e-14
2.92419e-14
2.88155e-14
2.99287e-14
2.96227e-14
3.04083e-14
3.00736e-14
3.06742e-14
3.04131e-14
3.08169e-14
3.07784e-14
3.10303e-14
3.0953e-14
3.12226e-14
3.11552e-14
3.12414e-14
3.1475e-14
3.1514e-14
3.18128e-14
3.18068e-14
3.21605e-14
0
2.66807e-13
0
1.61949e-14
0
1.05737e-14
5.14384e-15
0
1.49052e-14
2.4599e-14
2.37432e-14
2.91363e-14
2.91425e-14
3.58998e-14
3.08794e-14
3.53772e-14
3.15122e-14
3.50349e-14
3.15594e-14
3.39054e-14
3.15215e-14
3.3153e-14
3.14598e-14
3.26341e-14
3.14176e-14
3.21952e-14
3.14342e-14
3.19618e-14
3.14745e-14
3.18369e-14
3.15111e-14
3.17315e-14
3.16002e-14
3.17499e-14
3.18459e-14
3.18872e-14
3.21546e-14
3.20629e-14
3.24578e-14
2.83002e-13
2.66807e-13
2.67686e-14
1.61949e-14
1.05737e-14
8.40461e-14
1.94551e-14
8.74277e-15
3.88301e-14
7.62067e-14
4.12929e-14
5.31078e-14
4.21345e-14
5.38268e-14
3.95328e-14
4.54176e-14
3.74282e-14
4.18924e-14
3.5499e-14
3.81977e-14
3.42656e-14
3.60877e-14
3.33695e-14
3.45865e-14
3.27394e-14
3.36196e-14
3.23645e-14
3.29509e-14
3.2094e-14
3.24985e-14
3.19704e-14
3.22112e-14
3.20369e-14
3.21636e-14
3.21043e-14
3.21975e-14
3.23662e-14
3.22547e-14
3.26048e-14
0
1.25114e-13
7.34723e-14
0
8.22151e-14
7.61288e-13
6.54943e-14
8.74277e-15
9.04844e-14
1.93924e-13
6.56417e-14
6.54359e-14
5.71099e-14
7.49977e-14
4.77773e-14
5.22758e-14
4.2662e-14
4.75087e-14
3.87864e-14
4.12792e-14
3.64086e-14
3.82173e-14
3.48366e-14
3.59552e-14
3.38311e-14
3.46457e-14
3.30849e-14
3.36052e-14
3.26157e-14
3.2871e-14
3.24045e-14
3.25505e-14
3.23242e-14
3.24006e-14
3.23478e-14
3.23532e-14
3.24932e-14
3.24124e-14
3.26929e-14
1.25114e-13
6.87816e-13
6.87816e-13
1.37173e-13
1.68876e-13
7.47919e-14
7.01635e-14
5.20072e-14
4.61259e-14
4.07101e-14
3.77639e-14
3.57642e-14
3.44197e-14
3.33913e-14
3.28058e-14
3.25466e-14
3.24295e-14
3.24177e-14
3.26121e-14
)
;

boundaryField
{
    movingWall
    {
        type            calculated;
        value           nonuniform List<scalar> 
20
(
2.50227e-13
0
1.37563e-12
0
2.74345e-13
6.34062e-14
8.61776e-14
5.41494e-14
4.98649e-14
4.23868e-14
3.90334e-14
3.64944e-14
3.50341e-14
3.38054e-14
3.29773e-14
3.26343e-14
3.24589e-14
3.24001e-14
3.24353e-14
3.27889e-14
)
;
    }
    fixedWalls
    {
        type            calculated;
        value           nonuniform List<scalar> 
60
(
5.69052e-16
8.33463e-14
0
4.46197e-13
0
8.11845e-13
0
9.55607e-13
0
9.00121e-13
0
7.64373e-13
0
6.52999e-13
0
5.83992e-13
0
5.33614e-13
0
2.50227e-13
3.46442e-14
3.46138e-14
3.4258e-14
3.38269e-14
3.32298e-14
3.27009e-14
3.22237e-14
3.18225e-14
3.14356e-14
3.10999e-14
3.0786e-14
3.09528e-14
3.0957e-14
3.12529e-14
3.15984e-14
3.2018e-14
3.23031e-14
3.26126e-14
3.2597e-14
3.27889e-14
5.69052e-16
0
1.70116e-12
9.37794e-14
3.83256e-13
1.25334e-13
1.27144e-13
8.24743e-14
7.02446e-14
5.75479e-14
5.07783e-14
4.55437e-14
4.21006e-14
3.94969e-14
3.77273e-14
3.67738e-14
3.60132e-14
3.51567e-14
3.46746e-14
3.46442e-14
)
;
    }
    frontAndBack
    {
        type            empty;
        value           nonuniform List<scalar> 0();
    }
}


// ************************************************************************* //
