/*--------------------------------*- C++ -*----------------------------------*\
| =========                 |                                                 |
| \\      /  F ield         | OpenFOAM: The Open Source CFD Toolbox           |
|  \\    /   O peration     | Version:  2312                                  |
|   \\  /    A nd           | Website:  www.openfoam.com                      |
|    \\/     M anipulation  |                                                 |
\*---------------------------------------------------------------------------*/
FoamFile
{
    version     2.0;
    format      ascii;
    arch        "LSB;label=32;scalar=64";
    class       surfaceScalarField;
    location    "4.5";
    object      surfaceDivU;
}
// * * * * * * * * * * * * * * * * * * * * * * * * * * * * * * * * * * * * * //

dimensions      [0 0 -1 0 0 0 0];

internalField   nonuniform List<scalar> 
760
(
6.5238e-10
-4.14978e-10
3.9479e-10
-3.25154e-10
-2.19454e-10
-2.43563e-10
1.46141e-10
1.63315e-10
-6.39419e-11
-7.40444e-11
1.80911e-11
2.61984e-11
-7.84701e-12
-9.66614e-12
1.76732e-12
2.7478e-12
-8.39426e-13
-1.104e-12
1.27727e-13
2.28946e-13
-9.5414e-14
-1.41749e-13
-7.60523e-15
2.21855e-14
-4.62856e-14
-4.70097e-14
-7.80717e-16
-1.59369e-14
-2.85706e-15
1.65281e-14
-8.29826e-15
-2.96243e-15
1.18022e-15
-1.59947e-14
-7.58167e-15
-1.62744e-14
-1.81824e-15
-2.25237e-15
0
-1.39251e-09
-4.71506e-10
-9.63506e-10
1.5586e-09
1.39207e-10
-3.28576e-10
-5.68701e-11
1.61235e-10
1.60959e-11
-2.97679e-11
-1.55885e-12
1.43167e-11
9.28673e-13
-3.21517e-12
-1.23517e-13
1.29213e-12
-3.56246e-14
-3.63227e-13
-4.05296e-14
1.12622e-13
-2.41495e-14
-5.59483e-14
-1.7219e-14
-1.08848e-14
-1.66611e-14
-3.49291e-14
1.37194e-15
1.30928e-14
1.64227e-14
-2.20917e-15
-1.06589e-14
2.40697e-15
-3.34494e-14
-5.99327e-15
-1.09451e-14
-3.09478e-15
-4.3413e-16
9.56325e-16
0
2.4796e-09
-3.2438e-10
2.19353e-09
-2.4583e-10
-3.06548e-10
-2.3287e-11
1.88337e-10
-1.09349e-11
-3.15471e-11
-1.23139e-12
1.26603e-11
2.47636e-12
-2.85172e-12
1.68288e-13
1.05241e-12
5.3485e-13
-2.14981e-13
3.50745e-14
9.72031e-14
5.5535e-14
-4.26837e-14
2.43617e-14
-2.85949e-14
1.64805e-15
-5.17519e-15
-1.65196e-14
9.51171e-15
1.6221e-14
-1.62249e-14
1.69941e-15
7.07258e-15
-7.91621e-15
2.43613e-14
9.81487e-15
8.80668e-15
-7.67458e-15
1.39045e-15
6.30064e-15
-1.35525e-14
-3.04981e-09
1.86185e-10
-2.46264e-09
7.5941e-11
2.72326e-10
-2.65477e-11
-2.00504e-10
4.90029e-12
3.27921e-11
-4.27045e-12
-1.00157e-11
8.17126e-13
3.55486e-12
-2.0925e-13
-4.8249e-13
3.01468e-13
3.0559e-13
5.93462e-14
-1.73063e-14
4.42596e-14
6.86935e-14
5.46913e-14
1.37233e-14
3.62215e-14
4.87659e-15
2.44829e-15
8.40872e-15
1.53011e-15
1.00081e-14
-7.83839e-15
-5.17392e-15
1.10168e-14
-2.2221e-14
2.38172e-15
-1.01806e-14
-5.97295e-15
-8.64235e-15
1.36423e-14
-1.35525e-14
3.31194e-09
-3.50306e-10
2.51204e-09
4.38496e-10
-2.93973e-10
-9.58172e-11
2.01133e-10
3.81136e-11
-3.62454e-11
-8.76076e-12
1.06236e-11
2.5688e-12
-3.46264e-12
-8.49014e-13
8.43304e-13
2.75979e-13
-2.01985e-13
-6.27757e-15
1.16257e-13
6.18179e-14
2.22193e-14
-1.35978e-14
2.49464e-14
1.93965e-14
-8.98194e-16
1.41154e-14
-1.4717e-14
-2.99277e-14
-6.82968e-15
3.05947e-15
1.85725e-14
1.2553e-16
1.86298e-14
7.92549e-15
1.78499e-14
5.3446e-15
8.73208e-15
6.10055e-15
-1.35525e-14
-3.22375e-09
1.82878e-10
-2.16936e-09
-3.92997e-10
2.36269e-10
6.97223e-11
-1.71781e-10
-3.41639e-11
3.00535e-11
6.26416e-12
-8.90377e-12
-2.07693e-12
2.8896e-12
5.52121e-13
-5.73603e-13
-1.24927e-13
2.57525e-13
1.08276e-13
-6.80371e-14
-1.42589e-14
-1.64206e-14
-9.14811e-15
8.56542e-15
2.78444e-14
-1.49141e-14
4.86561e-14
-1.21512e-14
-5.98534e-14
1.00147e-14
4.04681e-14
-1.05214e-14
-2.223e-14
-5.35969e-15
1.15379e-14
-6.40477e-15
-9.80434e-15
-1.61841e-14
-6.83102e-15
-1.35525e-14
3.01363e-09
-2.11812e-10
1.84608e-09
5.27874e-10
-2.00711e-10
-1.05206e-10
1.43881e-10
4.48599e-11
-2.58662e-11
-9.85714e-12
7.37896e-12
2.89225e-12
-2.46241e-12
-9.17512e-13
5.56952e-13
2.25278e-13
-1.63508e-13
-4.90425e-14
4.46301e-14
9.07502e-15
3.51169e-14
-9.00167e-16
6.79351e-14
2.55732e-14
3.71676e-15
6.02976e-14
-7.23414e-15
-4.52107e-14
8.22341e-15
1.47222e-14
-1.70696e-16
-2.39454e-14
7.09322e-15
6.86133e-15
-1.02306e-14
-7.48447e-15
-4.19949e-15
-1.20251e-14
2.71051e-14
-2.69757e-09
6.23416e-11
-1.42342e-09
-3.62556e-10
1.40365e-10
6.26451e-11
-1.08878e-10
-3.04883e-11
1.89013e-11
5.99164e-12
-5.40422e-12
-1.85822e-12
1.77018e-12
5.30331e-13
-3.80717e-13
-1.6832e-13
1.2354e-13
6.55519e-14
-3.64553e-14
-1.91089e-14
-1.04438e-14
1.21218e-14
1.79358e-14
-1.3978e-14
1.13702e-14
2.24196e-14
-2.32544e-14
-2.14579e-14
-1.74466e-14
6.5839e-15
-1.69134e-14
-2.86103e-14
-7.71635e-15
5.87214e-15
-9.27899e-15
-1.67032e-17
1.92794e-14
1.84521e-14
1.35525e-14
2.39735e-09
-7.8957e-11
1.1235e-09
3.83198e-10
-1.08209e-10
-7.42197e-11
8.43814e-11
3.18335e-11
-1.47679e-11
-7.04801e-12
4.07633e-12
2.06862e-12
-1.40817e-12
-6.13369e-13
2.77949e-13
1.06376e-13
-7.70973e-14
-2.98353e-14
2.94682e-14
-9.57488e-15
8.58768e-15
2.02542e-14
-9.49412e-15
-3.3965e-15
-1.04084e-14
1.09773e-14
8.38042e-15
-3.71759e-14
-4.57974e-15
6.34595e-15
-5.82478e-15
-1.32839e-14
1.35718e-14
1.31636e-14
2.77144e-14
1.0088e-14
1.27252e-14
1.1608e-14
-2.71051e-14
-2.09311e-09
-3.1618e-11
-8.14526e-10
-2.05248e-10
6.58223e-11
3.19657e-11
-5.9596e-11
-1.65304e-11
9.78853e-12
3.16788e-12
-2.62108e-12
-9.41982e-13
9.01173e-13
2.65206e-13
-2.01408e-13
-6.45409e-14
3.76871e-14
-8.04542e-15
-1.87888e-14
-1.26637e-14
8.27004e-15
7.22423e-15
1.7075e-14
-9.25401e-15
-1.57901e-14
2.99401e-14
-3.92104e-14
-4.57083e-14
-2.35816e-15
3.89378e-14
5.70454e-15
6.00028e-15
9.67982e-15
-6.14961e-15
-6.01838e-15
2.67952e-15
-2.82222e-14
-1.90508e-14
1.35525e-14
1.85625e-09
-1.17907e-11
6.41244e-10
2.22636e-10
-5.0387e-11
-4.32651e-11
4.62335e-11
1.80725e-11
-7.56263e-12
-4.16879e-12
1.94431e-12
1.18103e-12
-7.00508e-13
-4.11098e-13
1.28822e-13
1.3131e-13
-5.83963e-14
-3.47171e-14
1.33493e-14
-5.87178e-15
-1.02998e-14
-1.71028e-14
3.61108e-15
-8.72685e-15
2.18557e-17
1.45873e-14
3.24399e-14
-1.12469e-14
4.72963e-14
5.81763e-14
-5.85386e-15
1.33436e-14
-1.31499e-14
4.94136e-15
-1.03529e-14
-3.85351e-14
2.27239e-14
1.27716e-14
1.35525e-14
-1.6454e-09
-6.49302e-11
-4.61873e-10
-7.48895e-11
2.51944e-11
7.81946e-12
-3.23298e-11
-5.61689e-12
4.57487e-12
8.93537e-13
-1.17437e-12
-2.41377e-13
4.2072e-13
1.944e-14
-3.22287e-14
-7.28501e-15
1.78074e-14
2.76672e-14
-3.63239e-14
-2.90519e-14
-1.55298e-14
-3.1719e-15
2.24933e-15
2.56695e-14
3.31847e-15
1.66571e-14
1.44895e-14
-3.054e-14
2.42236e-14
1.19873e-14
2.41388e-14
2.65654e-14
-2.04438e-14
-5.93588e-15
-1.54106e-14
-4.12072e-14
3.6002e-15
1.56336e-14
1.35525e-14
1.50558e-09
-6.08508e-12
3.94803e-10
1.32655e-10
-2.29918e-11
-2.78423e-11
2.76065e-11
1.07583e-11
-3.92271e-12
-2.72295e-12
9.52435e-13
7.30217e-13
-4.08565e-13
-2.74832e-13
5.26109e-14
5.43668e-14
-1.91921e-14
-5.38089e-15
4.1001e-15
-6.66609e-15
3.80275e-14
2.48727e-15
4.00773e-14
8.51406e-15
-1.72014e-14
1.37073e-15
-3.30422e-14
3.68015e-15
1.4329e-14
3.42948e-14
-3.50933e-15
-2.0379e-14
-2.66993e-14
-3.25788e-14
-1.01631e-14
3.15206e-15
2.5586e-14
6.01064e-15
1.35525e-14
-1.37901e-09
-6.99446e-11
-2.8999e-10
-3.12898e-12
5.90784e-12
-6.2581e-12
-1.95711e-11
2.79545e-13
1.92998e-12
-6.02212e-13
-4.9705e-13
1.49725e-13
1.88099e-13
-7.97316e-14
-3.62499e-15
3.13052e-14
7.14516e-15
-3.85983e-14
-8.27892e-15
1.72956e-14
-2.70261e-14
5.08741e-14
-3.01925e-14
-2.22923e-14
2.22523e-14
-1.59497e-14
7.10171e-14
1.99657e-14
-4.13265e-16
2.69766e-14
-4.94485e-14
-3.09807e-14
-2.72746e-15
-2.37944e-14
1.93257e-14
2.68507e-14
-6.0228e-15
1.58313e-14
-1.35525e-14
1.30594e-09
-3.02763e-11
2.80603e-10
1.26374e-10
-1.18864e-11
-3.02553e-11
1.92484e-11
1.04218e-11
-2.38247e-12
-3.1548e-12
5.67044e-13
8.27149e-13
-2.36526e-13
-2.88262e-13
-3.66812e-15
1.16541e-13
-2.84479e-14
-2.51604e-14
7.64486e-14
1.51566e-14
5.56079e-14
8.12047e-14
-8.04946e-15
-3.05946e-14
-1.82362e-14
-1.48239e-14
-2.40748e-14
-8.87028e-15
-3.59082e-15
2.61528e-14
-5.32658e-15
4.73449e-15
5.78373e-15
4.06787e-15
2.33562e-14
-1.69973e-14
8.30159e-15
2.82514e-14
0
-1.20984e-09
-9.73071e-11
-1.84484e-10
5.29095e-11
-7.94707e-12
-2.65503e-11
-1.19815e-11
5.35383e-12
5.481e-14
-2.96166e-12
-2.81565e-14
9.50385e-13
6.48053e-14
-1.79724e-13
9.50489e-14
2.18491e-13
1.84441e-14
3.54615e-14
1.99127e-14
2.06319e-14
-4.99786e-15
2.55747e-14
-3.7369e-14
-1.80707e-14
-5.4579e-15
-8.52492e-15
4.13573e-14
3.05207e-15
3.44781e-14
5.66059e-14
1.41289e-14
-3.51855e-15
-1.87131e-14
5.64654e-15
-1.21021e-14
-2.90464e-14
1.99498e-14
2.11085e-14
0
1.16544e-09
-6.44694e-11
2.10843e-10
2.20146e-10
-1.32493e-11
-8.17997e-11
1.43736e-11
2.81429e-11
-2.06608e-12
-8.62555e-12
7.98818e-13
4.03708e-12
-2.60383e-14
-7.91024e-13
1.58903e-13
5.52001e-13
3.76494e-14
-7.12767e-14
2.62939e-14
8.06698e-14
1.25018e-14
-3.46806e-15
1.07734e-14
5.04389e-15
-1.49445e-17
1.67415e-14
1.83006e-14
-1.31185e-14
1.86092e-14
1.0616e-14
-1.2001e-14
-5.71829e-15
-4.68677e-15
3.31793e-15
4.16415e-15
-5.27464e-15
1.15869e-15
3.83969e-14
-1.35525e-14
-1.00977e-09
-3.80975e-10
-7.24968e-11
2.55626e-10
-4.04074e-11
-8.56144e-11
5.14372e-12
4.81219e-11
-2.52238e-12
-1.18906e-11
2.44724e-12
6.94015e-12
-2.12985e-13
-1.76204e-12
3.21821e-13
8.12595e-13
-2.82563e-14
-2.42662e-13
5.09078e-14
1.05895e-13
-1.0926e-14
-1.71289e-14
1.10121e-14
-6.99729e-15
3.63799e-15
-4.73073e-15
-2.08031e-14
-1.50948e-14
-1.37115e-14
-8.42029e-15
9.60059e-15
-6.40718e-15
2.73006e-15
-3.01197e-15
2.89581e-14
-1.38887e-14
2.36857e-14
3.96804e-14
-1.35525e-14
8.84416e-10
-1.84043e-10
2.42508e-10
9.67222e-10
2.91493e-12
-4.86379e-10
3.10876e-11
2.62641e-10
-2.42807e-12
-9.3196e-11
2.73088e-12
3.23701e-11
-7.36456e-13
-1.10723e-11
2.48112e-13
3.27495e-12
-1.0851e-13
-1.17014e-12
3.78586e-14
2.89134e-13
-1.32002e-14
-8.86452e-14
-2.27401e-14
-5.87017e-15
-2.34635e-14
-4.3975e-14
-2.71203e-15
-6.59364e-15
-1.116e-15
3.88161e-15
-1.90197e-14
-4.99761e-15
-1.96307e-14
-2.75747e-14
-3.16642e-15
-1.91611e-14
2.44218e-15
2.95472e-14
-1.35525e-14
-1.01237e-10
2.38335e-10
-2.26652e-10
1.38358e-10
-5.83978e-11
1.8567e-11
-7.06087e-12
1.8567e-12
-7.72494e-13
1.6263e-13
-8.13152e-14
-2.71051e-14
-2.71051e-14
0
0
-1.35525e-14
-2.71051e-14
1.35525e-14
1.35525e-14
)
;

boundaryField
{
    movingWall
    {
        type            calculated;
        value           nonuniform List<scalar> 
20
(
-1.58296e-09
1.38049e-09
-9.03818e-10
4.50513e-10
-1.73798e-10
5.70019e-11
-1.9868e-11
5.74627e-12
-2.03288e-12
4.87891e-13
-1.6263e-13
0
-5.42101e-14
0
0
0
-2.71051e-14
-2.71051e-14
5.42101e-14
-2.71051e-14
)
;
    }
    fixedWalls
    {
        type            calculated;
        value           nonuniform List<scalar> 
60
(
-4.0148e-10
-4.28477e-10
-5.14535e-10
-1.34224e-10
5.06593e-10
-1.2072e-09
1.57296e-09
-1.99659e-09
2.12127e-09
-2.27918e-09
2.21595e-09
-2.23953e-09
2.10967e-09
-2.12184e-09
1.98195e-09
-2.0425e-09
1.84789e-09
-1.97683e-09
1.21488e-09
-1.58296e-09
0
0
0
-2.71051e-14
0
-2.71051e-14
0
5.42101e-14
-2.71051e-14
-2.71051e-14
5.42101e-14
-2.71051e-14
5.42101e-14
-2.71051e-14
0
0
0
-2.71051e-14
0
-2.71051e-14
-4.0148e-10
1.70624e-09
-9.16661e-10
4.77752e-10
-1.85471e-10
5.7587e-11
-2.14048e-11
5.7108e-12
-2.17616e-12
4.97311e-13
-2.41857e-13
5.10295e-14
-6.624e-14
-2.63311e-14
2.47697e-14
-3.04838e-14
1.38873e-14
-1.15269e-14
-3.63649e-15
0
)
;
    }
    frontAndBack
    {
        type            empty;
        value           nonuniform List<scalar> 0();
    }
}


// ************************************************************************* //
