/*--------------------------------*- C++ -*----------------------------------*\
| =========                 |                                                 |
| \\      /  F ield         | OpenFOAM: The Open Source CFD Toolbox           |
|  \\    /   O peration     | Version:  2312                                  |
|   \\  /    A nd           | Website:  www.openfoam.com                      |
|    \\/     M anipulation  |                                                 |
\*---------------------------------------------------------------------------*/
FoamFile
{
    version     2.0;
    format      ascii;
    arch        "LSB;label=32;scalar=64";
    class       surfaceVectorField;
    location    "4.5";
    object      surfaceU;
}
// * * * * * * * * * * * * * * * * * * * * * * * * * * * * * * * * * * * * * //

dimensions      [0 1 -1 0 0 0 0];

internalField   nonuniform List<vector> 
760
(
(-1 5.08182e-09 0)
(-1 1.01097e-12 0)
(-1 -1.20612e-09 0)
(-1 1.31719e-12 0)
(-1 2.86859e-10 0)
(-1 8.29981e-13 0)
(-1 -6.7942e-11 0)
(-1 1.05567e-13 0)
(-1 1.62318e-11 0)
(-1 1.89645e-13 0)
(-1 -3.81546e-12 0)
(-1 3.61289e-14 0)
(-1 9.30002e-13 0)
(-1 4.61194e-14 0)
(-1 -2.07521e-13 0)
(-1 1.89317e-14 0)
(-1 5.80515e-14 0)
(-1 1.55466e-14 0)
(-1 -8.08457e-15 0)
(-1 9.26282e-15 0)
(-1 5.89568e-15 0)
(-1 6.7867e-15 0)
(-1 1.42499e-15 0)
(-1 4.72748e-15 0)
(-1 1.68263e-15 0)
(-1 3.46351e-15 0)
(-1 1.05312e-15 0)
(-1 2.44332e-15 0)
(-1 8.60511e-16 0)
(-1 1.75015e-15 0)
(-1 6.08457e-16 0)
(-1 1.33836e-15 0)
(-1 3.46435e-16 0)
(-1 8.82588e-16 0)
(-1 1.80854e-16 0)
(-1 4.84467e-16 0)
(-1 7.35002e-17 0)
(-1 2.52868e-16 0)
(-1 6.5422e-17 0)
(-1 -5.07949e-09 0)
(-1 -1.40946e-11 0)
(-1 1.20827e-09 0)
(-1 4.84485e-12 0)
(-1 -2.85924e-10 0)
(-1 -4.10767e-13 0)
(-1 6.82372e-11 0)
(-1 4.8458e-13 0)
(-1 -1.6006e-11 0)
(-1 1.30938e-13 0)
(-1 3.89771e-12 0)
(-1 9.99517e-14 0)
(-1 -8.64951e-13 0)
(-1 6.07781e-14 0)
(-1 2.41999e-13 0)
(-1 3.75487e-14 0)
(-1 -3.3242e-14 0)
(-1 2.59972e-14 0)
(-1 2.41341e-14 0)
(-1 1.74212e-14 0)
(-1 5.61851e-15 0)
(-1 1.23956e-14 0)
(-1 6.766e-15 0)
(-1 8.77585e-15 0)
(-1 4.2242e-15 0)
(-1 6.36632e-15 0)
(-1 3.14036e-15 0)
(-1 4.58015e-15 0)
(-1 2.228e-15 0)
(-1 3.29404e-15 0)
(-1 1.61249e-15 0)
(-1 2.42672e-15 0)
(-1 1.02062e-15 0)
(-1 1.66797e-15 0)
(-1 5.56481e-16 0)
(-1 9.79092e-16 0)
(-1 2.4479e-16 0)
(-1 5.3776e-16 0)
(-1 1.66157e-16 0)
(-1 5.07024e-09 0)
(-1 1.53482e-11 0)
(-1 -1.20384e-09 0)
(-1 -4.5544e-12 0)
(-1 2.85998e-10 0)
(-1 1.44339e-12 0)
(-1 -6.76217e-11 0)
(-1 -1.48878e-13 0)
(-1 1.62369e-11 0)
(-1 2.35728e-13 0)
(-1 -3.73698e-12 0)
(-1 7.09975e-14 0)
(-1 9.63278e-13 0)
(-1 7.33596e-14 0)
(-1 -1.78453e-13 0)
(-1 4.34063e-14 0)
(-1 7.66604e-14 0)
(-1 3.23056e-14 0)
(-1 5.68275e-15 0)
(-1 2.23297e-14 0)
(-1 1.5553e-14 0)
(-1 1.61828e-14 0)
(-1 8.37616e-15 0)
(-1 1.15796e-14 0)
(-1 6.72226e-15 0)
(-1 8.46322e-15 0)
(-1 4.73383e-15 0)
(-1 6.25728e-15 0)
(-1 3.49276e-15 0)
(-1 4.67986e-15 0)
(-1 2.4822e-15 0)
(-1 3.42493e-15 0)
(-1 1.62644e-15 0)
(-1 2.33786e-15 0)
(-1 9.60371e-16 0)
(-1 1.42941e-15 0)
(-1 4.59127e-16 0)
(-1 8.27056e-16 0)
(-1 2.58044e-16 0)
(-1 -5.05945e-09 0)
(-1 -1.97145e-11 0)
(-1 1.20073e-09 0)
(-1 5.30548e-12 0)
(-1 -2.84703e-10 0)
(-1 -1.15963e-12 0)
(-1 6.77085e-11 0)
(-1 4.39057e-13 0)
(-1 -1.59302e-11 0)
(-1 2.08405e-14 0)
(-1 3.88134e-12 0)
(-1 9.99979e-14 0)
(-1 -8.46512e-13 0)
(-1 5.58525e-14 0)
(-1 2.54165e-13 0)
(-1 4.61034e-14 0)
(-1 -2.20252e-14 0)
(-1 3.26907e-14 0)
(-1 3.28298e-14 0)
(-1 2.43042e-14 0)
(-1 1.22094e-14 0)
(-1 1.78066e-14 0)
(-1 1.16667e-14 0)
(-1 1.31025e-14 0)
(-1 7.99824e-15 0)
(-1 9.80302e-15 0)
(-1 6.20331e-15 0)
(-1 7.45746e-15 0)
(-1 4.61203e-15 0)
(-1 5.63705e-15 0)
(-1 3.28058e-15 0)
(-1 4.08532e-15 0)
(-1 2.14083e-15 0)
(-1 2.77473e-15 0)
(-1 1.2961e-15 0)
(-1 1.74645e-15 0)
(-1 6.25973e-16 0)
(-1 9.97779e-16 0)
(-1 3.26105e-16 0)
(-1 5.04504e-09 0)
(-1 1.81561e-11 0)
(-1 -1.19658e-09 0)
(-1 -4.56233e-12 0)
(-1 2.83983e-10 0)
(-1 1.19502e-12 0)
(-1 -6.72486e-11 0)
(-1 -1.98828e-13 0)
(-1 1.6051e-11 0)
(-1 1.43538e-13 0)
(-1 -3.72549e-12 0)
(-1 4.5867e-14 0)
(-1 9.48468e-13 0)
(-1 5.54896e-14 0)
(-1 -1.75371e-13 0)
(-1 3.90396e-14 0)
(-1 7.90201e-14 0)
(-1 3.1193e-14 0)
(-1 9.28104e-15 0)
(-1 2.35722e-14 0)
(-1 1.86996e-14 0)
(-1 1.79769e-14 0)
(-1 1.12388e-14 0)
(-1 1.35517e-14 0)
(-1 9.26223e-15 0)
(-1 1.02792e-14 0)
(-1 6.8912e-15 0)
(-1 7.8722e-15 0)
(-1 5.11035e-15 0)
(-1 5.93974e-15 0)
(-1 3.57947e-15 0)
(-1 4.29189e-15 0)
(-1 2.38035e-15 0)
(-1 2.94115e-15 0)
(-1 1.44812e-15 0)
(-1 1.85301e-15 0)
(-1 6.97911e-16 0)
(-1 1.036e-15 0)
(-1 3.52578e-16 0)
(-1 -5.03145e-09 0)
(-1 -1.85974e-11 0)
(-1 1.19321e-09 0)
(-1 4.52944e-12 0)
(-1 -2.82986e-10 0)
(-1 -1.03105e-12 0)
(-1 6.71933e-11 0)
(-1 3.12166e-13 0)
(-1 -1.58616e-11 0)
(-1 -8.6127e-15 0)
(-1 3.82684e-12 0)
(-1 6.30335e-14 0)
(-1 -8.53939e-13 0)
(-1 3.75287e-14 0)
(-1 2.45603e-13 0)
(-1 3.46e-14 0)
(-1 -2.42549e-14 0)
(-1 2.68846e-14 0)
(-1 3.22681e-14 0)
(-1 2.14982e-14 0)
(-1 1.28289e-14 0)
(-1 1.68527e-14 0)
(-1 1.25921e-14 0)
(-1 1.30697e-14 0)
(-1 8.88917e-15 0)
(-1 9.91969e-15 0)
(-1 6.92073e-15 0)
(-1 7.54946e-15 0)
(-1 5.12128e-15 0)
(-1 5.74603e-15 0)
(-1 3.65357e-15 0)
(-1 4.24746e-15 0)
(-1 2.41381e-15 0)
(-1 2.96569e-15 0)
(-1 1.44088e-15 0)
(-1 1.85962e-15 0)
(-1 6.90665e-16 0)
(-1 1.05789e-15 0)
(-1 3.34786e-16 0)
(-1 5.01738e-09 0)
(-1 1.60315e-11 0)
(-1 -1.18971e-09 0)
(-1 -3.76292e-12 0)
(-1 2.82267e-10 0)
(-1 9.32057e-13 0)
(-1 -6.68898e-11 0)
(-1 -1.75401e-13 0)
(-1 1.59161e-11 0)
(-1 8.83305e-14 0)
(-1 -3.72628e-12 0)
(-1 2.38043e-14 0)
(-1 9.26067e-13 0)
(-1 3.43999e-14 0)
(-1 -1.84119e-13 0)
(-1 2.63569e-14 0)
(-1 7.26377e-14 0)
(-1 2.25807e-14 0)
(-1 6.08284e-15 0)
(-1 1.82036e-14 0)
(-1 1.70935e-14 0)
(-1 1.46332e-14 0)
(-1 1.03974e-14 0)
(-1 1.16033e-14 0)
(-1 8.57997e-15 0)
(-1 8.99831e-15 0)
(-1 6.37476e-15 0)
(-1 6.89531e-15 0)
(-1 4.87221e-15 0)
(-1 5.22962e-15 0)
(-1 3.55958e-15 0)
(-1 3.93281e-15 0)
(-1 2.4115e-15 0)
(-1 2.84175e-15 0)
(-1 1.47663e-15 0)
(-1 1.83704e-15 0)
(-1 7.02008e-16 0)
(-1 1.04221e-15 0)
(-1 3.05298e-16 0)
(-1 -5.00511e-09 0)
(-1 -1.51424e-11 0)
(-1 1.18688e-09 0)
(-1 3.52863e-12 0)
(-1 -2.81511e-10 0)
(-1 -8.11413e-13 0)
(-1 6.68027e-11 0)
(-1 2.18915e-13 0)
(-1 -1.58039e-11 0)
(-1 -1.88506e-14 0)
(-1 3.78448e-12 0)
(-1 3.58825e-14 0)
(-1 -8.6531e-13 0)
(-1 2.06639e-14 0)
(-1 2.33056e-13 0)
(-1 2.08903e-14 0)
(-1 -3.18533e-14 0)
(-1 1.73154e-14 0)
(-1 2.6754e-14 0)
(-1 1.45487e-14 0)
(-1 9.14298e-15 0)
(-1 1.17852e-14 0)
(-1 1.02042e-14 0)
(-1 9.52337e-15 0)
(-1 7.31365e-15 0)
(-1 7.59665e-15 0)
(-1 5.75017e-15 0)
(-1 5.93406e-15 0)
(-1 4.29021e-15 0)
(-1 4.5399e-15 0)
(-1 3.21498e-15 0)
(-1 3.41715e-15 0)
(-1 2.26729e-15 0)
(-1 2.51235e-15 0)
(-1 1.40262e-15 0)
(-1 1.61177e-15 0)
(-1 6.45497e-16 0)
(-1 8.70421e-16 0)
(-1 2.69988e-16 0)
(-1 4.9935e-09 0)
(-1 1.28932e-11 0)
(-1 -1.18417e-09 0)
(-1 -2.94911e-12 0)
(-1 2.80918e-10 0)
(-1 7.105e-13 0)
(-1 -6.66027e-11 0)
(-1 -1.45953e-13 0)
(-1 1.58209e-11 0)
(-1 5.38304e-14 0)
(-1 -3.72794e-12 0)
(-1 7.74143e-15 0)
(-1 9.06865e-13 0)
(-1 1.74365e-14 0)
(-1 -1.94851e-13 0)
(-1 1.34762e-14 0)
(-1 6.37175e-14 0)
(-1 1.23426e-14 0)
(-1 -4.20073e-16 0)
(-1 1.04679e-14 0)
(-1 1.21656e-14 0)
(-1 8.80035e-15 0)
(-1 6.91581e-15 0)
(-1 7.27751e-15 0)
(-1 6.21705e-15 0)
(-1 5.90902e-15 0)
(-1 4.72378e-15 0)
(-1 4.69339e-15 0)
(-1 3.66684e-15 0)
(-1 3.65746e-15 0)
(-1 2.71453e-15 0)
(-1 2.80196e-15 0)
(-1 1.85683e-15 0)
(-1 2.01871e-15 0)
(-1 1.07957e-15 0)
(-1 1.23409e-15 0)
(-1 4.94912e-16 0)
(-1 6.69353e-16 0)
(-1 2.56152e-16 0)
(-1 -4.98355e-09 0)
(-1 -1.17794e-11 0)
(-1 1.18193e-09 0)
(-1 2.70422e-12 0)
(-1 -2.80354e-10 0)
(-1 -6.29245e-13 0)
(-1 6.65105e-11 0)
(-1 1.54884e-13 0)
(-1 -1.57594e-11 0)
(-1 -2.55126e-14 0)
(-1 3.75312e-12 0)
(-1 1.64684e-14 0)
(-1 -8.75952e-13 0)
(-1 6.65194e-15 0)
(-1 2.2067e-13 0)
(-1 8.3229e-15 0)
(-1 -4.0907e-14 0)
(-1 7.01026e-15 0)
(-1 1.96883e-14 0)
(-1 6.37704e-15 0)
(-1 3.91228e-15 0)
(-1 5.63235e-15 0)
(-1 6.27072e-15 0)
(-1 4.8858e-15 0)
(-1 4.38536e-15 0)
(-1 4.09409e-15 0)
(-1 3.62707e-15 0)
(-1 3.33742e-15 0)
(-1 2.79258e-15 0)
(-1 2.64016e-15 0)
(-1 2.10614e-15 0)
(-1 2.07964e-15 0)
(-1 1.39597e-15 0)
(-1 1.50106e-15 0)
(-1 8.23878e-16 0)
(-1 8.99665e-16 0)
(-1 4.30593e-16 0)
(-1 5.30929e-16 0)
(-1 2.02771e-16 0)
(-1 4.97448e-09 0)
(-1 1.03674e-11 0)
(-1 -1.17985e-09 0)
(-1 -2.37497e-12 0)
(-1 2.79879e-10 0)
(-1 5.6008e-13 0)
(-1 -6.63812e-11 0)
(-1 -1.29232e-13 0)
(-1 1.57503e-11 0)
(-1 3.06284e-14 0)
(-1 -3.73e-12 0)
(-1 -5.83052e-15 0)
(-1 8.90927e-13 0)
(-1 3.18296e-15 0)
(-1 -2.05336e-13 0)
(-1 1.60266e-15 0)
(-1 5.42943e-14 0)
(-1 2.26053e-15 0)
(-1 -7.67891e-15 0)
(-1 2.30547e-15 0)
(-1 6.60586e-15 0)
(-1 2.43589e-15 0)
(-1 2.70917e-15 0)
(-1 2.34003e-15 0)
(-1 3.04616e-15 0)
(-1 2.16842e-15 0)
(-1 2.35052e-15 0)
(-1 1.89756e-15 0)
(-1 1.92722e-15 0)
(-1 1.67945e-15 0)
(-1 1.47457e-15 0)
(-1 1.3685e-15 0)
(-1 1.00476e-15 0)
(-1 1.01242e-15 0)
(-1 6.06716e-16 0)
(-1 6.17908e-16 0)
(-1 3.03107e-16 0)
(-1 3.62764e-16 0)
(-1 9.21363e-17 0)
(-1 -4.96649e-09 0)
(-1 -9.39861e-12 0)
(-1 1.17804e-09 0)
(-1 2.17123e-12 0)
(-1 -2.79449e-10 0)
(-1 -5.18664e-13 0)
(-1 6.62826e-11 0)
(-1 1.12632e-13 0)
(-1 -1.57255e-11 0)
(-1 -3.53179e-14 0)
(-1 3.72735e-12 0)
(-1 -1.12975e-16 0)
(-1 -8.86141e-13 0)
(-1 -6.88736e-15 0)
(-1 2.092e-13 0)
(-1 -3.54217e-15 0)
(-1 -4.97283e-14 0)
(-1 -2.6077e-15 0)
(-1 1.24203e-14 0)
(-1 -1.41551e-15 0)
(-1 -1.82995e-15 0)
(-1 -5.74035e-16 0)
(-1 1.79928e-15 0)
(-1 1.21608e-17 0)
(-1 1.01982e-15 0)
(-1 4.16908e-16 0)
(-1 1.22649e-15 0)
(-1 5.64953e-16 0)
(-1 1.12072e-15 0)
(-1 6.64144e-16 0)
(-1 9.0635e-16 0)
(-1 6.62295e-16 0)
(-1 6.2557e-16 0)
(-1 5.2777e-16 0)
(-1 3.73957e-16 0)
(-1 3.51994e-16 0)
(-1 1.51794e-16 0)
(-1 1.71527e-16 0)
(-1 1.8918e-17 0)
(-1 4.95926e-09 0)
(-1 8.88479e-12 0)
(-1 -1.17638e-09 0)
(-1 -2.07485e-12 0)
(-1 2.79042e-10 0)
(-1 4.74614e-13 0)
(-1 -6.62052e-11 0)
(-1 -1.31125e-13 0)
(-1 1.56901e-11 0)
(-1 9.9654e-15 0)
(-1 -3.73435e-12 0)
(-1 -2.12743e-14 0)
(-1 8.75711e-13 0)
(-1 -1.09431e-14 0)
(-1 -2.1535e-13 0)
(-1 -9.94768e-15 0)
(-1 4.57051e-14 0)
(-1 -6.87345e-15 0)
(-1 -1.44098e-14 0)
(-1 -4.83812e-15 0)
(-1 1.26808e-15 0)
(-1 -3.25239e-15 0)
(-1 -1.37021e-15 0)
(-1 -2.05939e-15 0)
(-1 -3.79598e-17 0)
(-1 -1.19901e-15 0)
(-1 2.60854e-18 0)
(-1 -5.99303e-16 0)
(-1 2.0572e-16 0)
(-1 -2.7322e-16 0)
(-1 2.83715e-16 0)
(-1 9.93477e-18 0)
(-1 2.54194e-16 0)
(-1 9.04972e-17 0)
(-1 1.49564e-16 0)
(-1 4.90856e-17 0)
(-1 3.86517e-17 0)
(-1 -1.51909e-17 0)
(-1 -3.62484e-17 0)
(-1 -4.95245e-09 0)
(-1 -7.93103e-12 0)
(-1 1.17478e-09 0)
(-1 1.85967e-12 0)
(-1 -2.78699e-10 0)
(-1 -4.71009e-13 0)
(-1 6.60841e-11 0)
(-1 7.70267e-14 0)
(-1 -1.57014e-11 0)
(-1 -5.31869e-14 0)
(-1 3.70213e-12 0)
(-1 -1.83152e-14 0)
(-1 -8.96602e-13 0)
(-1 -2.12142e-14 0)
(-1 1.98528e-13 0)
(-1 -1.48519e-14 0)
(-1 -5.74167e-14 0)
(-1 -1.12052e-14 0)
(-1 6.31929e-15 0)
(-1 -7.83239e-15 0)
(-1 -6.57986e-15 0)
(-1 -5.53188e-15 0)
(-1 -1.8882e-15 0)
(-1 -3.81858e-15 0)
(-1 -1.76036e-15 0)
(-1 -2.58199e-15 0)
(-1 -8.75132e-16 0)
(-1 -1.5323e-15 0)
(-1 -4.69006e-16 0)
(-1 -8.7461e-16 0)
(-1 -1.83283e-16 0)
(-1 -4.84775e-16 0)
(-1 -1.14611e-16 0)
(-1 -2.8076e-16 0)
(-1 -1.15669e-16 0)
(-1 -2.88616e-16 0)
(-1 -9.0091e-17 0)
(-1 -1.95753e-16 0)
(-1 -8.83795e-17 0)
(-1 4.94638e-09 0)
(-1 8.14993e-12 0)
(-1 -1.1734e-09 0)
(-1 -1.94991e-12 0)
(-1 2.78305e-10 0)
(-1 4.11003e-13 0)
(-1 -6.60602e-11 0)
(-1 -1.53107e-13 0)
(-1 1.56299e-11 0)
(-1 -1.73452e-14 0)
(-1 -3.74166e-12 0)
(-1 -4.07673e-14 0)
(-1 8.60536e-13 0)
(-1 -2.59328e-14 0)
(-1 -2.24585e-13 0)
(-1 -2.06137e-14 0)
(-1 3.83791e-14 0)
(-1 -1.46595e-14 0)
(-1 -1.96836e-14 0)
(-1 -1.04261e-14 0)
(-1 -2.77059e-15 0)
(-1 -7.24086e-15 0)
(-1 -4.51236e-15 0)
(-1 -4.94244e-15 0)
(-1 -2.35393e-15 0)
(-1 -3.26957e-15 0)
(-1 -1.53178e-15 0)
(-1 -2.06275e-15 0)
(-1 -8.9038e-16 0)
(-1 -1.29508e-15 0)
(-1 -5.82252e-16 0)
(-1 -9.09234e-16 0)
(-1 -4.54765e-16 0)
(-1 -6.3481e-16 0)
(-1 -3.687e-16 0)
(-1 -5.2708e-16 0)
(-1 -1.94042e-16 0)
(-1 -3.2356e-16 0)
(-1 -1.08572e-16 0)
(-1 -4.94018e-09 0)
(-1 -6.77707e-12 0)
(-1 1.17186e-09 0)
(-1 1.59521e-12 0)
(-1 -2.78047e-10 0)
(-1 -4.74218e-13 0)
(-1 6.58898e-11 0)
(-1 2.55766e-14 0)
(-1 -1.5688e-11 0)
(-1 -8.61667e-14 0)
(-1 3.67496e-12 0)
(-1 -4.02724e-14 0)
(-1 -9.07083e-13 0)
(-1 -3.57678e-14 0)
(-1 1.89312e-13 0)
(-1 -2.37573e-14 0)
(-1 -6.34647e-14 0)
(-1 -1.71695e-14 0)
(-1 2.0166e-15 0)
(-1 -1.1784e-14 0)
(-1 -9.4127e-15 0)
(-1 -8.0746e-15 0)
(-1 -3.69965e-15 0)
(-1 -5.39238e-15 0)
(-1 -2.97839e-15 0)
(-1 -3.5194e-15 0)
(-1 -1.82605e-15 0)
(-1 -2.36276e-15 0)
(-1 -1.31393e-15 0)
(-1 -1.56047e-15 0)
(-1 -9.61792e-16 0)
(-1 -1.0763e-15 0)
(-1 -7.07125e-16 0)
(-1 -8.15289e-16 0)
(-1 -4.8194e-16 0)
(-1 -5.9157e-16 0)
(-1 -2.3809e-16 0)
(-1 -3.42603e-16 0)
(-1 -1.10584e-16 0)
(-1 4.93499e-09 0)
(-1 7.71852e-12 0)
(-1 -1.17074e-09 0)
(-1 -1.88252e-12 0)
(-1 2.77598e-10 0)
(-1 2.39751e-13 0)
(-1 -6.59504e-11 0)
(-1 -2.00127e-13 0)
(-1 1.55616e-11 0)
(-1 -6.96239e-14 0)
(-1 -3.751e-12 0)
(-1 -5.89151e-14 0)
(-1 8.47558e-13 0)
(-1 -3.79933e-14 0)
(-1 -2.30239e-13 0)
(-1 -2.51508e-14 0)
(-1 3.45112e-14 0)
(-1 -1.71704e-14 0)
(-1 -2.18752e-14 0)
(-1 -1.14555e-14 0)
(-1 -4.05428e-15 0)
(-1 -7.79716e-15 0)
(-1 -5.21213e-15 0)
(-1 -5.22378e-15 0)
(-1 -2.90377e-15 0)
(-1 -3.47763e-15 0)
(-1 -2.09718e-15 0)
(-1 -2.3501e-15 0)
(-1 -1.32284e-15 0)
(-1 -1.53265e-15 0)
(-1 -9.29798e-16 0)
(-1 -9.91764e-16 0)
(-1 -6.99733e-16 0)
(-1 -7.54549e-16 0)
(-1 -4.52232e-16 0)
(-1 -5.12046e-16 0)
(-1 -2.15097e-16 0)
(-1 -2.59464e-16 0)
(-1 -7.36121e-17 0)
(-1 -4.92916e-09 0)
(-1 -4.7666e-12 0)
(-1 1.16909e-09 0)
(-1 9.36815e-13 0)
(-1 -2.77559e-10 0)
(-1 -7.74635e-13 0)
(-1 6.56806e-11 0)
(-1 5.99818e-15 0)
(-1 -1.56901e-11 0)
(-1 -1.60695e-13 0)
(-1 3.65409e-12 0)
(-1 -3.47486e-14 0)
(-1 -9.10702e-13 0)
(-1 -4.21519e-14 0)
(-1 1.87918e-13 0)
(-1 -1.92025e-14 0)
(-1 -6.31371e-14 0)
(-1 -1.48487e-14 0)
(-1 2.62251e-15 0)
(-1 -9.01523e-15 0)
(-1 -8.96666e-15 0)
(-1 -6.33215e-15 0)
(-1 -3.48928e-15 0)
(-1 -4.21255e-15 0)
(-1 -2.92397e-15 0)
(-1 -2.86016e-15 0)
(-1 -1.78557e-15 0)
(-1 -1.84684e-15 0)
(-1 -1.20157e-15 0)
(-1 -1.20722e-15 0)
(-1 -8.16515e-16 0)
(-1 -8.27247e-16 0)
(-1 -5.66862e-16 0)
(-1 -5.67525e-16 0)
(-1 -3.19278e-16 0)
(-1 -3.53852e-16 0)
(-1 -1.17979e-16 0)
(-1 -1.69719e-16 0)
(-1 -3.22106e-17 0)
(-1 4.92533e-09 0)
(-1 6.26725e-12 0)
(-1 -1.16893e-09 0)
(-1 -1.72817e-12 0)
(-1 2.7679e-10 0)
(-1 -3.63808e-13 0)
(-1 -6.58353e-11 0)
(-1 -2.29698e-14 0)
(-1 1.54947e-11 0)
(-1 -1.35885e-13 0)
(-1 -3.73099e-12 0)
(-1 -9.55553e-15 0)
(-1 8.49347e-13 0)
(-1 -3.11694e-14 0)
(-1 -2.21969e-13 0)
(-1 -9.12785e-15 0)
(-1 3.92732e-14 0)
(-1 -9.1264e-15 0)
(-1 -1.79699e-14 0)
(-1 -4.8336e-15 0)
(-1 -1.57805e-15 0)
(-1 -3.59696e-15 0)
(-1 -3.58344e-15 0)
(-1 -2.36263e-15 0)
(-1 -1.78304e-15 0)
(-1 -1.65948e-15 0)
(-1 -1.26849e-15 0)
(-1 -1.01461e-15 0)
(-1 -8.32897e-16 0)
(-1 -6.3881e-16 0)
(-1 -5.78257e-16 0)
(-1 -4.56552e-16 0)
(-1 -3.54515e-16 0)
(-1 -2.75747e-16 0)
(-1 -2.04293e-16 0)
(-1 -1.91611e-16 0)
(-1 -8.39506e-17 0)
(-1 -1.11103e-16 0)
(-1 -4.08548e-17 0)
(-1 -4.92079e-09 0)
(-1 1.16684e-09 0)
(-1 -2.77177e-10 0)
(-1 6.56765e-11 0)
(-1 -1.56401e-11 0)
(-1 3.69027e-12 0)
(-1 -8.89644e-13 0)
(-1 2.03715e-13 0)
(-1 -5.32332e-14 0)
(-1 9.53934e-15 0)
(-1 -4.38154e-15 0)
(-1 -4.38668e-16 0)
(-1 -8.91051e-16 0)
(-1 -3.8493e-16 0)
(-1 -2.62465e-16 0)
(-1 -1.54041e-16 0)
(-1 -1.12843e-16 0)
(-1 -9.84222e-17 0)
(-1 -6.80077e-17 0)
)
;

boundaryField
{
    movingWall
    {
        type            calculated;
        value           uniform (-1 -0 -0);
    }
    fixedWalls
    {
        type            calculated;
        value           uniform (-1 -0 -0);
    }
    frontAndBack
    {
        type            empty;
        value           nonuniform List<vector> 0();
    }
}


// ************************************************************************* //
