/*--------------------------------*- C++ -*----------------------------------*\
| =========                 |                                                 |
| \\      /  F ield         | OpenFOAM: The Open Source CFD Toolbox           |
|  \\    /   O peration     | Version:  2312                                  |
|   \\  /    A nd           | Website:  www.openfoam.com                      |
|    \\/     M anipulation  |                                                 |
\*---------------------------------------------------------------------------*/
FoamFile
{
    version     2.0;
    format      ascii;
    arch        "LSB;label=32;scalar=64";
    class       volScalarField;
    location    "4.5";
    object      turbulenceProperties:nuTilda;
}
// * * * * * * * * * * * * * * * * * * * * * * * * * * * * * * * * * * * * * //

dimensions      [0 2 -1 0 0 0 0];

internalField   nonuniform List<scalar> 
400
(
2.46047e-06
2.46046e-06
2.46046e-06
2.46045e-06
2.46045e-06
2.46044e-06
2.46044e-06
2.46044e-06
2.46043e-06
2.46044e-06
2.46043e-06
2.46044e-06
2.46043e-06
2.46043e-06
2.46043e-06
2.46043e-06
2.46043e-06
2.46043e-06
2.46043e-06
2.46043e-06
2.61864e-06
2.69297e-06
2.68599e-06
2.68318e-06
2.67752e-06
2.67463e-06
2.66907e-06
2.66611e-06
2.66066e-06
2.65762e-06
2.65229e-06
2.64916e-06
2.64393e-06
2.64076e-06
2.6356e-06
2.63239e-06
2.6273e-06
2.62406e-06
2.62151e-06
2.61739e-06
2.80846e-06
2.89557e-06
2.88726e-06
2.8839e-06
2.87719e-06
2.87374e-06
2.86719e-06
2.86366e-06
2.85728e-06
2.85364e-06
2.84747e-06
2.84371e-06
2.83773e-06
2.8339e-06
2.82802e-06
2.8242e-06
2.81835e-06
2.81459e-06
2.81165e-06
2.8069e-06
2.95333e-06
3.05061e-06
3.04131e-06
3.03756e-06
3.03003e-06
3.02619e-06
3.01886e-06
3.01489e-06
3.00779e-06
3.00369e-06
2.99682e-06
2.99262e-06
2.98591e-06
2.98168e-06
2.97506e-06
2.97084e-06
2.96428e-06
2.9601e-06
2.95681e-06
2.95152e-06
3.04461e-06
3.14868e-06
3.13869e-06
3.13466e-06
3.12664e-06
3.12246e-06
3.11468e-06
3.11037e-06
3.10282e-06
3.09839e-06
3.09106e-06
3.08652e-06
3.07937e-06
3.07485e-06
3.06775e-06
3.06326e-06
3.05624e-06
3.05177e-06
3.04825e-06
3.04259e-06
3.09725e-06
3.20533e-06
3.19493e-06
3.19079e-06
3.18239e-06
3.17813e-06
3.16994e-06
3.16558e-06
3.15762e-06
3.15316e-06
3.14538e-06
3.14085e-06
3.13325e-06
3.12867e-06
3.12122e-06
3.11661e-06
3.10929e-06
3.10465e-06
3.101e-06
3.09513e-06
3.12699e-06
3.23732e-06
3.22675e-06
3.22247e-06
3.2139e-06
3.20955e-06
3.20119e-06
3.19671e-06
3.18862e-06
3.18399e-06
3.17616e-06
3.1714e-06
3.16379e-06
3.15897e-06
3.1515e-06
3.14669e-06
3.13928e-06
3.13451e-06
3.1308e-06
3.1248e-06
3.14457e-06
3.25624e-06
3.24552e-06
3.24118e-06
3.23256e-06
3.22807e-06
3.2197e-06
3.21508e-06
3.20697e-06
3.2022e-06
3.19435e-06
3.18946e-06
3.18179e-06
3.17693e-06
3.16933e-06
3.16449e-06
3.15698e-06
3.15217e-06
3.1484e-06
3.14233e-06
3.15619e-06
3.26877e-06
3.25786e-06
3.25361e-06
3.24481e-06
3.24041e-06
3.23181e-06
3.22734e-06
3.21896e-06
3.21439e-06
3.20621e-06
3.20156e-06
3.1936e-06
3.18885e-06
3.18109e-06
3.17628e-06
3.16868e-06
3.16384e-06
3.16004e-06
3.15393e-06
3.16518e-06
3.27837e-06
3.26757e-06
3.26312e-06
3.25437e-06
3.24984e-06
3.24133e-06
3.23666e-06
3.22843e-06
3.22359e-06
3.21563e-06
3.21068e-06
3.20291e-06
3.19797e-06
3.19028e-06
3.18536e-06
3.17775e-06
3.17287e-06
3.16905e-06
3.1629e-06
3.17327e-06
3.28712e-06
3.27612e-06
3.27174e-06
3.26294e-06
3.25842e-06
3.24978e-06
3.24521e-06
3.23674e-06
3.23211e-06
3.22387e-06
3.21913e-06
3.21111e-06
3.20629e-06
3.19844e-06
3.19358e-06
3.18589e-06
3.18099e-06
3.17715e-06
3.17097e-06
3.18137e-06
3.29579e-06
3.28481e-06
3.28035e-06
3.27149e-06
3.26693e-06
3.2583e-06
3.25361e-06
3.24526e-06
3.2404e-06
3.23233e-06
3.22734e-06
3.21947e-06
3.21449e-06
3.20671e-06
3.20175e-06
3.19406e-06
3.18912e-06
3.18527e-06
3.17905e-06
3.19002e-06
3.30506e-06
3.29408e-06
3.28955e-06
3.28066e-06
3.27604e-06
3.26741e-06
3.26263e-06
3.2543e-06
3.24934e-06
3.24128e-06
3.23626e-06
3.22836e-06
3.22332e-06
3.21552e-06
3.2105e-06
3.20279e-06
3.19781e-06
3.19394e-06
3.18769e-06
3.19962e-06
3.31539e-06
3.30428e-06
3.29978e-06
3.29082e-06
3.28623e-06
3.27741e-06
3.2728e-06
3.26417e-06
3.25947e-06
3.25106e-06
3.24626e-06
3.23809e-06
3.23319e-06
3.22521e-06
3.22026e-06
3.21244e-06
3.20746e-06
3.20356e-06
3.19727e-06
3.2105e-06
3.32708e-06
3.31585e-06
3.31134e-06
3.30232e-06
3.29765e-06
3.28888e-06
3.28407e-06
3.27558e-06
3.27062e-06
3.26239e-06
3.25732e-06
3.2493e-06
3.24424e-06
3.23629e-06
3.23125e-06
3.22341e-06
3.21838e-06
3.21445e-06
3.20812e-06
3.22292e-06
3.34044e-06
3.32909e-06
3.32459e-06
3.31545e-06
3.31079e-06
3.30187e-06
3.29714e-06
3.28843e-06
3.28361e-06
3.27512e-06
3.27022e-06
3.26194e-06
3.25696e-06
3.24886e-06
3.24384e-06
3.2359e-06
3.23085e-06
3.22689e-06
3.22051e-06
3.23685e-06
3.35537e-06
3.34405e-06
3.33938e-06
3.33023e-06
3.32546e-06
3.31654e-06
3.31164e-06
3.30303e-06
3.29794e-06
3.28964e-06
3.2844e-06
3.27633e-06
3.27109e-06
3.2631e-06
3.25788e-06
3.24997e-06
3.24483e-06
3.24085e-06
3.23441e-06
3.25143e-06
3.37103e-06
3.35948e-06
3.35489e-06
3.34559e-06
3.34085e-06
3.33178e-06
3.32695e-06
3.3181e-06
3.31319e-06
3.30455e-06
3.29955e-06
3.29114e-06
3.28605e-06
3.27783e-06
3.2727e-06
3.26463e-06
3.25947e-06
3.25545e-06
3.24896e-06
3.26423e-06
3.38209e-06
3.37085e-06
3.36649e-06
3.35742e-06
3.35283e-06
3.34397e-06
3.33925e-06
3.33057e-06
3.32574e-06
3.31725e-06
3.31228e-06
3.30398e-06
3.29889e-06
3.29077e-06
3.28557e-06
3.27759e-06
3.27233e-06
3.26833e-06
3.2618e-06
3.2696e-06
3.26959e-06
3.26957e-06
3.26958e-06
3.26957e-06
3.26957e-06
3.26956e-06
3.26957e-06
3.26955e-06
3.26956e-06
3.26955e-06
3.26956e-06
3.26955e-06
3.26955e-06
3.26955e-06
3.26955e-06
3.26955e-06
3.26955e-06
3.26955e-06
3.26955e-06
)
;

boundaryField
{
    movingWall
    {
        type            calculated;
        value           nonuniform List<scalar> 
20
(
3.2696e-06
3.26959e-06
3.26957e-06
3.26958e-06
3.26957e-06
3.26957e-06
3.26956e-06
3.26957e-06
3.26955e-06
3.26956e-06
3.26955e-06
3.26956e-06
3.26955e-06
3.26955e-06
3.26955e-06
3.26955e-06
3.26955e-06
3.26955e-06
3.26955e-06
3.26955e-06
)
;
    }
    fixedWalls
    {
        type            calculated;
        value           nonuniform List<scalar> 
60
(
2.46047e-06
2.61864e-06
2.80846e-06
2.95333e-06
3.04461e-06
3.09725e-06
3.12699e-06
3.14457e-06
3.15619e-06
3.16518e-06
3.17327e-06
3.18137e-06
3.19002e-06
3.19962e-06
3.2105e-06
3.22292e-06
3.23685e-06
3.25143e-06
3.26423e-06
3.2696e-06
2.46043e-06
2.61739e-06
2.8069e-06
2.95152e-06
3.04259e-06
3.09513e-06
3.1248e-06
3.14233e-06
3.15393e-06
3.1629e-06
3.17097e-06
3.17905e-06
3.18769e-06
3.19727e-06
3.20812e-06
3.22051e-06
3.23441e-06
3.24896e-06
3.2618e-06
3.26955e-06
2.46047e-06
2.46046e-06
2.46046e-06
2.46045e-06
2.46045e-06
2.46044e-06
2.46044e-06
2.46044e-06
2.46043e-06
2.46044e-06
2.46043e-06
2.46044e-06
2.46043e-06
2.46043e-06
2.46043e-06
2.46043e-06
2.46043e-06
2.46043e-06
2.46043e-06
2.46043e-06
)
;
    }
    frontAndBack
    {
        type            empty;
    }
}


// ************************************************************************* //
