/*--------------------------------*- C++ -*----------------------------------*\
| =========                 |                                                 |
| \\      /  F ield         | OpenFOAM: The Open Source CFD Toolbox           |
|  \\    /   O peration     | Version:  2312                                  |
|   \\  /    A nd           | Website:  www.openfoam.com                      |
|    \\/     M anipulation  |                                                 |
\*---------------------------------------------------------------------------*/
FoamFile
{
    version     2.0;
    format      ascii;
    arch        "LSB;label=32;scalar=64";
    class       volSymmTensorField;
    location    "4.5";
    object      turbulenceProperties:R;
}
// * * * * * * * * * * * * * * * * * * * * * * * * * * * * * * * * * * * * * //

dimensions      [0 2 -2 0 0 0 0];

internalField   nonuniform List<symmTensor> 
400
(
(1.29282e-05 -2.50409e-12 -0 1.29282e-05 -0 1.29282e-05)
(1.29281e-05 3.09271e-12 -0 1.29281e-05 -0 1.29281e-05)
(1.29281e-05 -7.3406e-13 -0 1.29281e-05 -0 1.29281e-05)
(1.29281e-05 1.74057e-13 -0 1.29281e-05 -0 1.29281e-05)
(1.2928e-05 -4.1362e-14 -0 1.2928e-05 -0 1.2928e-05)
(1.2928e-05 9.75639e-15 -0 1.2928e-05 -0 1.2928e-05)
(1.2928e-05 -2.35586e-15 -0 1.2928e-05 -0 1.2928e-05)
(1.29279e-05 5.28751e-16 -0 1.29279e-05 -0 1.29279e-05)
(1.29279e-05 -1.46557e-16 -0 1.29279e-05 -0 1.29279e-05)
(1.29279e-05 1.97402e-17 -0 1.29279e-05 -0 1.29279e-05)
(1.29279e-05 -1.52158e-17 -0 1.29279e-05 -0 1.29279e-05)
(1.29279e-05 -3.80215e-18 -0 1.29279e-05 -0 1.29279e-05)
(1.29279e-05 -4.26157e-18 -0 1.29279e-05 -0 1.29279e-05)
(1.29278e-05 -2.42452e-18 -0 1.29278e-05 -0 1.29278e-05)
(1.29278e-05 -1.70585e-18 -0 1.29278e-05 -0 1.29278e-05)
(1.29278e-05 -9.4301e-19 -0 1.29278e-05 -0 1.29278e-05)
(1.29278e-05 -4.71273e-19 -0 1.29278e-05 -0 1.29278e-05)
(1.29278e-05 -1.1859e-19 -0 1.29278e-05 -0 1.29278e-05)
(1.29278e-05 -8.05527e-20 -0 1.29278e-05 -0 1.29278e-05)
(1.29278e-05 3.61684e-20 -0 1.29278e-05 -0 1.29278e-05)
(1.46648e-05 2.67611e-12 -0 1.46648e-05 -0 1.46648e-05)
(1.46648e-05 -3.38721e-12 -0 1.46648e-05 -0 1.46648e-05)
(1.46623e-05 8.03038e-13 -0 1.46623e-05 -0 1.46623e-05)
(1.46613e-05 -1.89708e-13 -0 1.46613e-05 -0 1.46613e-05)
(1.46596e-05 4.50864e-14 -0 1.46596e-05 -0 1.46596e-05)
(1.46588e-05 -1.05825e-14 -0 1.46588e-05 -0 1.46588e-05)
(1.46573e-05 2.54491e-15 -0 1.46573e-05 -0 1.46573e-05)
(1.46566e-05 -5.78254e-16 -0 1.46566e-05 -0 1.46566e-05)
(1.46553e-05 1.49782e-16 -0 1.46553e-05 -0 1.46553e-05)
(1.46547e-05 -2.73272e-17 -0 1.46547e-05 -0 1.46547e-05)
(1.46537e-05 1.13314e-17 -0 1.46537e-05 -0 1.46537e-05)
(1.46532e-05 4.69105e-19 -0 1.46532e-05 -0 1.46532e-05)
(1.46524e-05 2.06071e-18 -0 1.46524e-05 -0 1.46524e-05)
(1.4652e-05 9.30323e-19 -0 1.4652e-05 -0 1.4652e-05)
(1.46515e-05 6.23798e-19 -0 1.46515e-05 -0 1.46515e-05)
(1.46512e-05 3.95404e-19 -0 1.46512e-05 -0 1.46512e-05)
(1.46509e-05 3.82217e-19 -0 1.46509e-05 -0 1.46509e-05)
(1.46508e-05 1.7246e-19 -0 1.46508e-05 -0 1.46508e-05)
(1.46506e-05 1.6342e-19 -0 1.46506e-05 -0 1.46506e-05)
(1.46506e-05 1.28142e-19 -0 1.46506e-05 -0 1.46506e-05)
(1.68894e-05 -2.86273e-12 -0 1.68894e-05 -0 1.68894e-05)
(1.68893e-05 3.63627e-12 -0 1.68893e-05 -0 1.68893e-05)
(1.6886e-05 -8.61459e-13 -0 1.6886e-05 -0 1.6886e-05)
(1.68847e-05 2.04266e-13 -0 1.68847e-05 -0 1.68847e-05)
(1.68824e-05 -4.8293e-14 -0 1.68824e-05 -0 1.68824e-05)
(1.68812e-05 1.153e-14 -0 1.68812e-05 -0 1.68812e-05)
(1.68793e-05 -2.68481e-15 -0 1.68793e-05 -0 1.68793e-05)
(1.68782e-05 6.66014e-16 -0 1.68782e-05 -0 1.68782e-05)
(1.68768e-05 -1.39978e-16 -0 1.68768e-05 -0 1.68768e-05)
(1.68757e-05 4.46084e-17 -0 1.68757e-05 -0 1.68757e-05)
(1.68747e-05 -3.15126e-18 -0 1.68747e-05 -0 1.68747e-05)
(1.68736e-05 5.54626e-18 -0 1.68736e-05 -0 1.68736e-05)
(1.68731e-05 1.78475e-18 -0 1.68731e-05 -0 1.68731e-05)
(1.68721e-05 1.6647e-18 -0 1.68721e-05 -0 1.68721e-05)
(1.68718e-05 1.08522e-18 -0 1.68718e-05 -0 1.68718e-05)
(1.68711e-05 8.00455e-19 -0 1.68711e-05 -0 1.68711e-05)
(1.68709e-05 5.58759e-19 -0 1.68709e-05 -0 1.68709e-05)
(1.68706e-05 3.74944e-19 -0 1.68706e-05 -0 1.68706e-05)
(1.68705e-05 2.81865e-19 -0 1.68705e-05 -0 1.68705e-05)
(1.68704e-05 2.57745e-19 -0 1.68704e-05 -0 1.68704e-05)
(1.869e-05 2.99074e-12 -0 1.869e-05 -0 1.869e-05)
(1.86898e-05 -3.81981e-12 -0 1.86898e-05 -0 1.86898e-05)
(1.86858e-05 9.03647e-13 -0 1.86858e-05 -0 1.86858e-05)
(1.86842e-05 -2.14108e-13 -0 1.86842e-05 -0 1.86842e-05)
(1.86814e-05 5.07033e-14 -0 1.86814e-05 -0 1.86814e-05)
(1.868e-05 -1.19755e-14 -0 1.868e-05 -0 1.868e-05)
(1.86776e-05 2.86706e-15 -0 1.86776e-05 -0 1.86776e-05)
(1.86762e-05 -6.54287e-16 -0 1.86762e-05 -0 1.86762e-05)
(1.86745e-05 1.72422e-16 -0 1.86745e-05 -0 1.86745e-05)
(1.86731e-05 -2.84756e-17 -0 1.86731e-05 -0 1.86731e-05)
(1.86719e-05 1.54458e-17 -0 1.86719e-05 -0 1.86719e-05)
(1.86706e-05 2.43384e-18 -0 1.86706e-05 -0 1.86706e-05)
(1.86698e-05 3.64753e-18 -0 1.86698e-05 -0 1.86698e-05)
(1.86688e-05 2.12102e-18 -0 1.86688e-05 -0 1.86688e-05)
(1.86682e-05 1.75322e-18 -0 1.86682e-05 -0 1.86682e-05)
(1.86675e-05 1.19373e-18 -0 1.86675e-05 -0 1.86675e-05)
(1.86672e-05 9.16752e-19 -0 1.86672e-05 -0 1.86672e-05)
(1.86668e-05 6.60563e-19 -0 1.86668e-05 -0 1.86668e-05)
(1.86667e-05 4.76433e-19 -0 1.86667e-05 -0 1.86667e-05)
(1.86666e-05 2.89513e-19 -0 1.86666e-05 -0 1.86666e-05)
(1.98695e-05 -3.06908e-12 -0 1.98695e-05 -0 1.98695e-05)
(1.98694e-05 3.92983e-12 -0 1.98694e-05 -0 1.98694e-05)
(1.98647e-05 -9.2912e-13 -0 1.98647e-05 -0 1.98647e-05)
(1.98629e-05 2.20133e-13 -0 1.98629e-05 -0 1.98629e-05)
(1.98598e-05 -5.20619e-14 -0 1.98598e-05 -0 1.98598e-05)
(1.9858e-05 1.2353e-14 -0 1.9858e-05 -0 1.9858e-05)
(1.98555e-05 -2.90203e-15 -0 1.98555e-05 -0 1.98555e-05)
(1.98538e-05 7.0535e-16 -0 1.98538e-05 -0 1.98538e-05)
(1.98519e-05 -1.52568e-16 -0 1.98519e-05 -0 1.98519e-05)
(1.98502e-05 4.6827e-17 -0 1.98502e-05 -0 1.98502e-05)
(1.9849e-05 -3.14163e-18 -0 1.9849e-05 -0 1.9849e-05)
(1.98474e-05 6.86444e-18 -0 1.98474e-05 -0 1.98474e-05)
(1.98465e-05 2.88664e-18 -0 1.98465e-05 -0 1.98465e-05)
(1.98454e-05 2.62493e-18 -0 1.98454e-05 -0 1.98454e-05)
(1.98447e-05 1.75786e-18 -0 1.98447e-05 -0 1.98447e-05)
(1.9844e-05 1.43608e-18 -0 1.9844e-05 -0 1.9844e-05)
(1.98435e-05 1.06432e-18 -0 1.98435e-05 -0 1.98435e-05)
(1.98432e-05 7.34421e-19 -0 1.98432e-05 -0 1.98432e-05)
(1.9843e-05 5.3999e-19 -0 1.9843e-05 -0 1.9843e-05)
(1.98429e-05 5.07161e-19 -0 1.98429e-05 -0 1.98429e-05)
(2.05658e-05 3.11003e-12 -0 2.05658e-05 -0 2.05658e-05)
(2.05657e-05 -3.98898e-12 -0 2.05657e-05 -0 2.05657e-05)
(2.05607e-05 9.42676e-13 -0 2.05607e-05 -0 2.05607e-05)
(2.05588e-05 -2.23341e-13 -0 2.05588e-05 -0 2.05588e-05)
(2.05553e-05 5.28255e-14 -0 2.05553e-05 -0 2.05553e-05)
(2.05536e-05 -1.24983e-14 -0 2.05536e-05 -0 2.05536e-05)
(2.05507e-05 2.96954e-15 -0 2.05507e-05 -0 2.05507e-05)
(2.05492e-05 -6.9056e-16 -0 2.05492e-05 -0 2.05492e-05)
(2.05468e-05 1.74102e-16 -0 2.05468e-05 -0 2.05468e-05)
(2.05454e-05 -3.22265e-17 -0 2.05454e-05 -0 2.05454e-05)
(2.05435e-05 1.46159e-17 -0 2.05435e-05 -0 2.05435e-05)
(2.05424e-05 1.76629e-18 -0 2.05424e-05 -0 2.05424e-05)
(2.05409e-05 3.42446e-18 -0 2.05409e-05 -0 2.05409e-05)
(2.05401e-05 1.99494e-18 -0 2.05401e-05 -0 2.05401e-05)
(2.0539e-05 1.5463e-18 -0 2.0539e-05 -0 2.0539e-05)
(2.05385e-05 9.99328e-19 -0 2.05385e-05 -0 2.05385e-05)
(2.05378e-05 7.70955e-19 -0 2.05378e-05 -0 2.05378e-05)
(2.05376e-05 7.72426e-19 -0 2.05376e-05 -0 2.05376e-05)
(2.05373e-05 4.65284e-19 -0 2.05373e-05 -0 2.05373e-05)
(2.05373e-05 4.27539e-19 -0 2.05373e-05 -0 2.05373e-05)
(2.09643e-05 -3.13037e-12 -0 2.09643e-05 -0 2.09643e-05)
(2.09641e-05 4.01728e-12 -0 2.09641e-05 -0 2.09641e-05)
(2.0959e-05 -9.49316e-13 -0 2.0959e-05 -0 2.0959e-05)
(2.0957e-05 2.24887e-13 -0 2.0957e-05 -0 2.0957e-05)
(2.09533e-05 -5.31846e-14 -0 2.09533e-05 -0 2.09533e-05)
(2.09516e-05 1.25985e-14 -0 2.09516e-05 -0 2.09516e-05)
(2.09485e-05 -2.97262e-15 -0 2.09485e-05 -0 2.09485e-05)
(2.09469e-05 7.11956e-16 -0 2.09469e-05 -0 2.09469e-05)
(2.09445e-05 -1.60629e-16 -0 2.09445e-05 -0 2.09445e-05)
(2.09429e-05 4.47122e-17 -0 2.09429e-05 -0 2.09429e-05)
(2.09412e-05 -5.01427e-18 -0 2.09412e-05 -0 2.09412e-05)
(2.09397e-05 5.53665e-18 -0 2.09397e-05 -0 2.09397e-05)
(2.09386e-05 2.09327e-18 -0 2.09386e-05 -0 2.09386e-05)
(2.09373e-05 2.07824e-18 -0 2.09373e-05 -0 2.09373e-05)
(2.09366e-05 1.545e-18 -0 2.09366e-05 -0 2.09366e-05)
(2.09357e-05 1.25255e-18 -0 2.09357e-05 -0 2.09357e-05)
(2.09352e-05 9.76098e-19 -0 2.09352e-05 -0 2.09352e-05)
(2.09348e-05 6.71036e-19 -0 2.09348e-05 -0 2.09348e-05)
(2.09346e-05 6.54758e-19 -0 2.09346e-05 -0 2.09346e-05)
(2.09345e-05 4.38728e-19 -0 2.09345e-05 -0 2.09345e-05)
(2.12016e-05 3.14046e-12 -0 2.12016e-05 -0 2.12016e-05)
(2.12014e-05 -4.03101e-12 -0 2.12014e-05 -0 2.12014e-05)
(2.11961e-05 9.52532e-13 -0 2.11961e-05 -0 2.11961e-05)
(2.1194e-05 -2.25659e-13 -0 2.1194e-05 -0 2.1194e-05)
(2.11904e-05 5.33671e-14 -0 2.11904e-05 -0 2.11904e-05)
(2.11884e-05 -1.26346e-14 -0 2.11884e-05 -0 2.11884e-05)
(2.11855e-05 2.99288e-15 -0 2.11855e-05 -0 2.11855e-05)
(2.11835e-05 -7.03566e-16 -0 2.11835e-05 -0 2.11835e-05)
(2.11814e-05 1.71303e-16 -0 2.11814e-05 -0 2.11814e-05)
(2.11794e-05 -3.59721e-17 -0 2.11794e-05 -0 2.11794e-05)
(2.1178e-05 1.22901e-17 -0 2.1178e-05 -0 2.1178e-05)
(2.11762e-05 3.60459e-19 -0 2.11762e-05 -0 2.11762e-05)
(2.11752e-05 2.70185e-18 -0 2.11752e-05 -0 2.11752e-05)
(2.11739e-05 1.51008e-18 -0 2.11739e-05 -0 2.11739e-05)
(2.1173e-05 1.35494e-18 -0 2.1173e-05 -0 2.1173e-05)
(2.11723e-05 1.10938e-18 -0 2.11723e-05 -0 2.11723e-05)
(2.11717e-05 7.69507e-19 -0 2.11717e-05 -0 2.11717e-05)
(2.11714e-05 7.15994e-19 -0 2.11714e-05 -0 2.11714e-05)
(2.11711e-05 4.76746e-19 -0 2.11711e-05 -0 2.11711e-05)
(2.1171e-05 4.05673e-19 -0 2.1171e-05 -0 2.1171e-05)
(2.13592e-05 -3.14586e-12 -0 2.13592e-05 -0 2.13592e-05)
(2.13592e-05 4.0374e-12 -0 2.13592e-05 -0 2.13592e-05)
(2.13535e-05 -9.54111e-13 -0 2.13535e-05 -0 2.13535e-05)
(2.13517e-05 2.26027e-13 -0 2.13517e-05 -0 2.13517e-05)
(2.13478e-05 -5.34596e-14 -0 2.13478e-05 -0 2.13478e-05)
(2.13461e-05 1.266e-14 -0 2.13461e-05 -0 2.13461e-05)
(2.13427e-05 -2.99314e-15 -0 2.13427e-05 -0 2.13427e-05)
(2.13413e-05 7.11123e-16 -0 2.13413e-05 -0 2.13413e-05)
(2.13384e-05 -1.6533e-16 -0 2.13384e-05 -0 2.13384e-05)
(2.13373e-05 4.18425e-17 -0 2.13373e-05 -0 2.13373e-05)
(2.13349e-05 -7.37522e-18 -0 2.13349e-05 -0 2.13349e-05)
(2.13339e-05 3.88216e-18 -0 2.13339e-05 -0 2.13339e-05)
(2.13322e-05 7.06e-19 -0 2.13322e-05 -0 2.13322e-05)
(2.13314e-05 1.12524e-18 -0 2.13314e-05 -0 2.13314e-05)
(2.13302e-05 7.5867e-19 -0 2.13302e-05 -0 2.13302e-05)
(2.13296e-05 6.91056e-19 -0 2.13296e-05 -0 2.13296e-05)
(2.13289e-05 7.15326e-19 -0 2.13289e-05 -0 2.13289e-05)
(2.13286e-05 3.20315e-19 -0 2.13286e-05 -0 2.13286e-05)
(2.13284e-05 1.12549e-19 -0 2.13284e-05 -0 2.13284e-05)
(2.13283e-05 3.12183e-19 -0 2.13283e-05 -0 2.13283e-05)
(2.14818e-05 3.14977e-12 -0 2.14818e-05 -0 2.14818e-05)
(2.14816e-05 -4.04155e-12 -0 2.14816e-05 -0 2.14816e-05)
(2.14763e-05 9.55225e-13 -0 2.14763e-05 -0 2.14763e-05)
(2.1474e-05 -2.26288e-13 -0 2.1474e-05 -0 2.1474e-05)
(2.14703e-05 5.35224e-14 -0 2.14703e-05 -0 2.14703e-05)
(2.14683e-05 -1.26759e-14 -0 2.14683e-05 -0 2.14683e-05)
(2.14653e-05 2.99928e-15 -0 2.14653e-05 -0 2.14653e-05)
(2.14633e-05 -7.09175e-16 -0 2.14633e-05 -0 2.14633e-05)
(2.14611e-05 1.69072e-16 -0 2.14611e-05 -0 2.14611e-05)
(2.14591e-05 -3.84553e-17 -0 2.14591e-05 -0 2.14591e-05)
(2.14576e-05 1.04075e-17 -0 2.14576e-05 -0 2.14576e-05)
(2.14558e-05 -1.07931e-18 -0 2.14558e-05 -0 2.14558e-05)
(2.14547e-05 1.38136e-18 -0 2.14547e-05 -0 2.14547e-05)
(2.14534e-05 6.58361e-19 -0 2.14534e-05 -0 2.14534e-05)
(2.14526e-05 7.05395e-19 -0 2.14526e-05 -0 2.14526e-05)
(2.14517e-05 3.50974e-19 -0 2.14517e-05 -0 2.14517e-05)
(2.14512e-05 4.51347e-19 -0 2.14512e-05 -0 2.14512e-05)
(2.14508e-05 3.63034e-19 -0 2.14508e-05 -0 2.14508e-05)
(2.14506e-05 5.0696e-19 -0 2.14506e-05 -0 2.14506e-05)
(2.14505e-05 2.72385e-19 -0 2.14505e-05 -0 2.14505e-05)
(2.15924e-05 -3.15338e-12 -0 2.15924e-05 -0 2.15924e-05)
(2.15923e-05 4.04528e-12 -0 2.15923e-05 -0 2.15923e-05)
(2.15866e-05 -9.5617e-13 -0 2.15866e-05 -0 2.15866e-05)
(2.15845e-05 2.26513e-13 -0 2.15845e-05 -0 2.15845e-05)
(2.15808e-05 -5.35814e-14 -0 2.15808e-05 -0 2.15808e-05)
(2.15789e-05 1.26898e-14 -0 2.15789e-05 -0 2.15789e-05)
(2.15756e-05 -3.00242e-15 -0 2.15756e-05 -0 2.15756e-05)
(2.1574e-05 7.10818e-16 -0 2.1574e-05 -0 2.1574e-05)
(2.15711e-05 -1.68247e-16 -0 2.15711e-05 -0 2.15711e-05)
(2.15699e-05 3.98857e-17 -0 2.15699e-05 -0 2.15699e-05)
(2.15675e-05 -9.03568e-18 -0 2.15675e-05 -0 2.15675e-05)
(2.15665e-05 2.50879e-18 -0 2.15665e-05 -0 2.15665e-05)
(2.15647e-05 -4.23451e-20 -0 2.15647e-05 -0 2.15647e-05)
(2.15639e-05 4.46084e-19 -0 2.15639e-05 -0 2.15639e-05)
(2.15627e-05 9.73875e-20 -0 2.15627e-05 -0 2.15627e-05)
(2.15621e-05 2.8912e-19 -0 2.15621e-05 -0 2.15621e-05)
(2.15614e-05 1.26643e-19 -0 2.15614e-05 -0 2.15614e-05)
(2.15611e-05 2.53235e-19 -0 2.15611e-05 -0 2.15611e-05)
(2.15608e-05 1.92922e-19 -0 2.15608e-05 -0 2.15608e-05)
(2.15607e-05 1.92229e-19 -0 2.15607e-05 -0 2.15607e-05)
(2.17035e-05 3.15743e-12 -0 2.17035e-05 -0 2.17035e-05)
(2.17033e-05 -4.0497e-12 -0 2.17033e-05 -0 2.17033e-05)
(2.16978e-05 9.57318e-13 -0 2.16978e-05 -0 2.16978e-05)
(2.16955e-05 -2.26781e-13 -0 2.16955e-05 -0 2.16955e-05)
(2.16917e-05 5.36459e-14 -0 2.16917e-05 -0 2.16917e-05)
(2.16897e-05 -1.27078e-14 -0 2.16897e-05 -0 2.16897e-05)
(2.16866e-05 3.00457e-15 -0 2.16866e-05 -0 2.16866e-05)
(2.16846e-05 -7.13291e-16 -0 2.16846e-05 -0 2.16846e-05)
(2.16823e-05 1.6709e-16 -0 2.16823e-05 -0 2.16823e-05)
(2.16803e-05 -4.09799e-17 -0 2.16803e-05 -0 2.16803e-05)
(2.16787e-05 8.599e-18 -0 2.16787e-05 -0 2.16787e-05)
(2.16769e-05 -2.77993e-18 -0 2.16769e-05 -0 2.16769e-05)
(2.16758e-05 1.5283e-19 -0 2.16758e-05 -0 2.16758e-05)
(2.16745e-05 -1.32866e-19 -0 2.16745e-05 -0 2.16745e-05)
(2.16736e-05 6.78347e-20 -0 2.16736e-05 -0 2.16736e-05)
(2.16728e-05 1.37271e-19 -0 2.16728e-05 -0 2.16728e-05)
(2.16722e-05 6.21517e-21 -0 2.16722e-05 -0 2.16722e-05)
(2.16718e-05 1.60485e-19 -0 2.16718e-05 -0 2.16718e-05)
(2.16716e-05 1.4153e-19 -0 2.16716e-05 -0 2.16716e-05)
(2.16715e-05 9.6512e-20 -0 2.16715e-05 -0 2.16715e-05)
(2.18225e-05 -3.16218e-12 -0 2.18225e-05 -0 2.18225e-05)
(2.18223e-05 4.05538e-12 -0 2.18223e-05 -0 2.18223e-05)
(2.18169e-05 -9.58721e-13 -0 2.18169e-05 -0 2.18169e-05)
(2.18145e-05 2.27113e-13 -0 2.18145e-05 -0 2.18145e-05)
(2.18107e-05 -5.37269e-14 -0 2.18107e-05 -0 2.18107e-05)
(2.18086e-05 1.27236e-14 -0 2.18086e-05 -0 2.18086e-05)
(2.18055e-05 -3.01347e-15 -0 2.18055e-05 -0 2.18055e-05)
(2.18034e-05 7.10354e-16 -0 2.18034e-05 -0 2.18034e-05)
(2.18012e-05 -1.71145e-16 -0 2.18012e-05 -0 2.18012e-05)
(2.1799e-05 3.80099e-17 -0 2.1799e-05 -0 2.1799e-05)
(2.17975e-05 -1.08661e-17 -0 2.17975e-05 -0 2.17975e-05)
(2.17957e-05 1.26904e-18 -0 2.17957e-05 -0 2.17957e-05)
(2.17946e-05 -1.29772e-18 -0 2.17946e-05 -0 2.17946e-05)
(2.17932e-05 -3.75626e-19 -0 2.17932e-05 -0 2.17932e-05)
(2.17924e-05 -3.92093e-19 -0 2.17924e-05 -0 2.17924e-05)
(2.17914e-05 -2.24122e-19 -0 2.17914e-05 -0 2.17914e-05)
(2.17909e-05 1.92534e-19 -0 2.17909e-05 -0 2.17909e-05)
(2.17905e-05 6.69173e-20 -0 2.17905e-05 -0 2.17905e-05)
(2.17903e-05 7.08493e-20 -0 2.17903e-05 -0 2.17903e-05)
(2.17902e-05 -6.17606e-20 -0 2.17902e-05 -0 2.17902e-05)
(2.19549e-05 3.16796e-12 -0 2.19549e-05 -0 2.19549e-05)
(2.19547e-05 -4.06259e-12 -0 2.19547e-05 -0 2.19547e-05)
(2.19491e-05 9.60458e-13 -0 2.19491e-05 -0 2.19491e-05)
(2.19468e-05 -2.27521e-13 -0 2.19468e-05 -0 2.19468e-05)
(2.19429e-05 5.38227e-14 -0 2.19429e-05 -0 2.19429e-05)
(2.1941e-05 -1.27534e-14 -0 2.1941e-05 -0 2.1941e-05)
(2.19375e-05 3.0119e-15 -0 2.19375e-05 -0 2.19375e-05)
(2.1936e-05 -7.18868e-16 -0 2.1936e-05 -0 2.1936e-05)
(2.19329e-05 1.65232e-16 -0 2.19329e-05 -0 2.19329e-05)
(2.19317e-05 -4.29626e-17 -0 2.19317e-05 -0 2.19317e-05)
(2.19292e-05 7.06539e-18 -0 2.19292e-05 -0 2.19292e-05)
(2.19282e-05 -4.01396e-18 -0 2.19282e-05 -0 2.19282e-05)
(2.19263e-05 -4.33869e-19 -0 2.19263e-05 -0 2.19263e-05)
(2.19255e-05 -8.35328e-19 -0 2.19255e-05 -0 2.19255e-05)
(2.19242e-05 -5.24227e-19 -0 2.19242e-05 -0 2.19242e-05)
(2.19236e-05 -1.8402e-19 -0 2.19236e-05 -0 2.19236e-05)
(2.19229e-05 -4.41211e-20 -0 2.19229e-05 -0 2.19229e-05)
(2.19225e-05 6.78802e-22 -0 2.19225e-05 -0 2.19225e-05)
(2.19223e-05 -1.90053e-19 -0 2.19223e-05 -0 2.19223e-05)
(2.19222e-05 -5.7609e-20 -0 2.19222e-05 -0 2.19222e-05)
(2.21054e-05 -3.1749e-12 -0 2.21054e-05 -0 2.21054e-05)
(2.21053e-05 4.07198e-12 -0 2.21053e-05 -0 2.21053e-05)
(2.20994e-05 -9.62635e-13 -0 2.20994e-05 -0 2.20994e-05)
(2.20972e-05 2.28044e-13 -0 2.20972e-05 -0 2.20972e-05)
(2.20932e-05 -5.39506e-14 -0 2.20932e-05 -0 2.20932e-05)
(2.20911e-05 1.27713e-14 -0 2.20911e-05 -0 2.20911e-05)
(2.20879e-05 -3.03042e-15 -0 2.20879e-05 -0 2.20879e-05)
(2.20858e-05 7.09341e-16 -0 2.20858e-05 -0 2.20858e-05)
(2.20834e-05 -1.74758e-16 -0 2.20834e-05 -0 2.20834e-05)
(2.20814e-05 3.57639e-17 -0 2.20814e-05 -0 2.20814e-05)
(2.20797e-05 -1.2627e-17 -0 2.20797e-05 -0 2.20797e-05)
(2.20778e-05 -1.89648e-19 -0 2.20778e-05 -0 2.20778e-05)
(2.20767e-05 -2.45955e-18 -0 2.20767e-05 -0 2.20767e-05)
(2.20754e-05 -1.149e-18 -0 2.20754e-05 -0 2.20754e-05)
(2.20744e-05 -5.9059e-19 -0 2.20744e-05 -0 2.20744e-05)
(2.20736e-05 -4.61876e-19 -0 2.20736e-05 -0 2.20736e-05)
(2.2073e-05 -2.5693e-19 -0 2.2073e-05 -0 2.2073e-05)
(2.20726e-05 -1.42632e-19 -0 2.20726e-05 -0 2.20726e-05)
(2.20723e-05 6.19697e-20 -0 2.20723e-05 -0 2.20723e-05)
(2.20722e-05 -3.75456e-20 -0 2.20722e-05 -0 2.20722e-05)
(2.22779e-05 3.18363e-12 -0 2.22779e-05 -0 2.22779e-05)
(2.22778e-05 -4.08323e-12 -0 2.22778e-05 -0 2.22778e-05)
(2.22718e-05 9.65327e-13 -0 2.22718e-05 -0 2.22718e-05)
(2.22697e-05 -2.28681e-13 -0 2.22697e-05 -0 2.22697e-05)
(2.22655e-05 5.40862e-14 -0 2.22655e-05 -0 2.22655e-05)
(2.22636e-05 -1.28271e-14 -0 2.22636e-05 -0 2.22636e-05)
(2.226e-05 3.02013e-15 -0 2.226e-05 -0 2.226e-05)
(2.22583e-05 -7.2773e-16 -0 2.22583e-05 -0 2.22583e-05)
(2.22553e-05 1.62593e-16 -0 2.22553e-05 -0 2.22553e-05)
(2.22539e-05 -4.55841e-17 -0 2.22539e-05 -0 2.22539e-05)
(2.22515e-05 5.7998e-18 -0 2.22515e-05 -0 2.22515e-05)
(2.22503e-05 -4.88889e-18 -0 2.22503e-05 -0 2.22503e-05)
(2.22485e-05 -1.35469e-18 -0 2.22485e-05 -0 2.22485e-05)
(2.22476e-05 -1.45687e-18 -0 2.22476e-05 -0 2.22476e-05)
(2.22463e-05 -1.03724e-18 -0 2.22463e-05 -0 2.22463e-05)
(2.22457e-05 -6.6808e-19 -0 2.22457e-05 -0 2.22457e-05)
(2.22449e-05 -4.27943e-19 -0 2.22449e-05 -0 2.22449e-05)
(2.22446e-05 -3.20652e-19 -0 2.22446e-05 -0 2.22446e-05)
(2.22443e-05 -3.32306e-19 -0 2.22443e-05 -0 2.22443e-05)
(2.22442e-05 -1.53354e-19 -0 2.22442e-05 -0 2.22442e-05)
(2.24725e-05 -3.19309e-12 -0 2.24725e-05 -0 2.24725e-05)
(2.24723e-05 4.09707e-12 -0 2.24723e-05 -0 2.24723e-05)
(2.24665e-05 -9.68528e-13 -0 2.24665e-05 -0 2.24665e-05)
(2.2464e-05 2.2941e-13 -0 2.2464e-05 -0 2.2464e-05)
(2.246e-05 -5.42942e-14 -0 2.246e-05 -0 2.246e-05)
(2.24578e-05 1.283e-14 -0 2.24578e-05 -0 2.24578e-05)
(2.24544e-05 -3.05844e-15 -0 2.24544e-05 -0 2.24544e-05)
(2.24523e-05 7.07123e-16 -0 2.24523e-05 -0 2.24523e-05)
(2.24498e-05 -1.79014e-16 -0 2.24498e-05 -0 2.24498e-05)
(2.24476e-05 3.41525e-17 -0 2.24476e-05 -0 2.24476e-05)
(2.24461e-05 -1.37757e-17 -0 2.24461e-05 -0 2.24461e-05)
(2.24439e-05 -5.74786e-19 -0 2.24439e-05 -0 2.24439e-05)
(2.2443e-05 -2.40064e-18 -0 2.2443e-05 -0 2.2443e-05)
(2.24413e-05 -1.32565e-18 -0 2.24413e-05 -0 2.24413e-05)
(2.24406e-05 -7.70691e-19 -0 2.24406e-05 -0 2.24406e-05)
(2.24395e-05 -6.09319e-19 -0 2.24395e-05 -0 2.24395e-05)
(2.2439e-05 -3.25722e-19 -0 2.2439e-05 -0 2.2439e-05)
(2.24385e-05 -1.6062e-19 -0 2.24385e-05 -0 2.24385e-05)
(2.24383e-05 -2.41548e-19 -0 2.24383e-05 -0 2.24383e-05)
(2.24382e-05 -3.1448e-19 -0 2.24382e-05 -0 2.24382e-05)
(2.2677e-05 3.20505e-12 -0 2.2677e-05 -0 2.2677e-05)
(2.26769e-05 -4.11135e-12 -0 2.26769e-05 -0 2.26769e-05)
(2.26707e-05 9.71982e-13 -0 2.26707e-05 -0 2.26707e-05)
(2.26685e-05 -2.30357e-13 -0 2.26685e-05 -0 2.26685e-05)
(2.26642e-05 5.44262e-14 -0 2.26642e-05 -0 2.26642e-05)
(2.26621e-05 -1.29487e-14 -0 2.26621e-05 -0 2.26621e-05)
(2.26585e-05 3.03131e-15 -0 2.26585e-05 -0 2.26585e-05)
(2.26567e-05 -7.39308e-16 -0 2.26567e-05 -0 2.26567e-05)
(2.26537e-05 1.62018e-16 -0 2.26537e-05 -0 2.26537e-05)
(2.26522e-05 -4.6718e-17 -0 2.26522e-05 -0 2.26522e-05)
(2.26496e-05 5.59929e-18 -0 2.26496e-05 -0 2.26496e-05)
(2.26484e-05 -5.04553e-18 -0 2.26484e-05 -0 2.26484e-05)
(2.26465e-05 -1.26417e-18 -0 2.26465e-05 -0 2.26465e-05)
(2.26456e-05 -1.37165e-18 -0 2.26456e-05 -0 2.26456e-05)
(2.26443e-05 -7.38232e-19 -0 2.26443e-05 -0 2.26443e-05)
(2.26436e-05 -5.18155e-19 -0 2.26436e-05 -0 2.26436e-05)
(2.26428e-05 -1.63005e-19 -0 2.26428e-05 -0 2.26428e-05)
(2.26425e-05 -1.61398e-19 -0 2.26425e-05 -0 2.26425e-05)
(2.26422e-05 -4.28246e-20 -0 2.26422e-05 -0 2.26422e-05)
(2.26421e-05 -7.66619e-20 -0 2.26421e-05 -0 2.26421e-05)
(2.28575e-05 -3.20841e-12 -0 2.28575e-05 -0 2.28575e-05)
(2.28576e-05 4.11782e-12 -0 2.28576e-05 -0 2.28576e-05)
(2.28512e-05 -9.72897e-13 -0 2.28512e-05 -0 2.28512e-05)
(2.28493e-05 2.29888e-13 -0 2.28493e-05 -0 2.28493e-05)
(2.2845e-05 -5.44187e-14 -0 2.2845e-05 -0 2.2845e-05)
(2.28431e-05 1.2792e-14 -0 2.28431e-05 -0 2.28431e-05)
(2.28394e-05 -3.05062e-15 -0 2.28394e-05 -0 2.28394e-05)
(2.28378e-05 7.01631e-16 -0 2.28378e-05 -0 2.28378e-05)
(2.28346e-05 -1.75733e-16 -0 2.28346e-05 -0 2.28346e-05)
(2.28333e-05 3.50102e-17 -0 2.28333e-05 -0 2.28333e-05)
(2.28306e-05 -1.22239e-17 -0 2.28306e-05 -0 2.28306e-05)
(2.28296e-05 1.6135e-19 -0 2.28296e-05 -0 2.28296e-05)
(2.28275e-05 -1.81658e-18 -0 2.28275e-05 -0 2.28275e-05)
(2.28267e-05 -6.07735e-19 -0 2.28267e-05 -0 2.28267e-05)
(2.28253e-05 -5.54278e-19 -0 2.28253e-05 -0 2.28253e-05)
(2.28247e-05 -1.67327e-19 -0 2.28247e-05 -0 2.28247e-05)
(2.28239e-05 -2.35507e-19 -0 2.28239e-05 -0 2.28239e-05)
(2.28236e-05 -9.83151e-20 -0 2.28236e-05 -0 2.28236e-05)
(2.28233e-05 -7.86635e-20 -0 2.28233e-05 -0 2.28233e-05)
(2.28232e-05 3.36453e-20 -0 2.28232e-05 -0 2.28232e-05)
(2.29334e-05 3.20895e-12 -0 2.29334e-05 -0 2.29334e-05)
(2.29333e-05 -3.97628e-12 -0 2.29333e-05 -0 2.29333e-05)
(2.29332e-05 9.42352e-13 -0 2.29332e-05 -0 2.29332e-05)
(2.29332e-05 -2.23357e-13 -0 2.29332e-05 -0 2.29332e-05)
(2.29331e-05 5.29852e-14 -0 2.29331e-05 -0 2.29331e-05)
(2.2933e-05 -1.25148e-14 -0 2.2933e-05 -0 2.2933e-05)
(2.2933e-05 2.99486e-15 -0 2.2933e-05 -0 2.2933e-05)
(2.2933e-05 -6.89173e-16 -0 2.2933e-05 -0 2.2933e-05)
(2.29329e-05 1.76883e-16 -0 2.29329e-05 -0 2.29329e-05)
(2.29329e-05 -3.28059e-17 -0 2.29329e-05 -0 2.29329e-05)
(2.29329e-05 1.38886e-17 -0 2.29329e-05 -0 2.29329e-05)
(2.29329e-05 8.77949e-19 -0 2.29329e-05 -0 2.29329e-05)
(2.29328e-05 2.42273e-18 -0 2.29328e-05 -0 2.29328e-05)
(2.29328e-05 1.08698e-18 -0 2.29328e-05 -0 2.29328e-05)
(2.29328e-05 8.06132e-19 -0 2.29328e-05 -0 2.29328e-05)
(2.29328e-05 5.4945e-19 -0 2.29328e-05 -0 2.29328e-05)
(2.29328e-05 2.38924e-19 -0 2.29328e-05 -0 2.29328e-05)
(2.29328e-05 -9.43008e-21 -0 2.29328e-05 -0 2.29328e-05)
(2.29328e-05 -1.98883e-20 -0 2.29328e-05 -0 2.29328e-05)
(2.29328e-05 4.41504e-20 -0 2.29328e-05 -0 2.29328e-05)
)
;

boundaryField
{
    movingWall
    {
        type            kqRWallFunction;
        value           nonuniform List<symmTensor> 
20
(
(2.29334e-05 0 -0 2.29334e-05 -0 2.29334e-05)
(2.29333e-05 -0 -0 2.29333e-05 -0 2.29333e-05)
(2.29332e-05 0 -0 2.29332e-05 -0 2.29332e-05)
(2.29332e-05 -0 -0 2.29332e-05 -0 2.29332e-05)
(2.29331e-05 0 -0 2.29331e-05 -0 2.29331e-05)
(2.2933e-05 -0 -0 2.2933e-05 -0 2.2933e-05)
(2.2933e-05 0 -0 2.2933e-05 -0 2.2933e-05)
(2.2933e-05 -0 -0 2.2933e-05 -0 2.2933e-05)
(2.29329e-05 0 -0 2.29329e-05 -0 2.29329e-05)
(2.29329e-05 -0 -0 2.29329e-05 -0 2.29329e-05)
(2.29329e-05 0 -0 2.29329e-05 -0 2.29329e-05)
(2.29329e-05 0 -0 2.29329e-05 -0 2.29329e-05)
(2.29328e-05 0 -0 2.29328e-05 -0 2.29328e-05)
(2.29328e-05 0 -0 2.29328e-05 -0 2.29328e-05)
(2.29328e-05 0 -0 2.29328e-05 -0 2.29328e-05)
(2.29328e-05 0 -0 2.29328e-05 -0 2.29328e-05)
(2.29328e-05 0 -0 2.29328e-05 -0 2.29328e-05)
(2.29328e-05 -0 -0 2.29328e-05 -0 2.29328e-05)
(2.29328e-05 -0 -0 2.29328e-05 -0 2.29328e-05)
(2.29328e-05 0 -0 2.29328e-05 -0 2.29328e-05)
)
;
    }
    fixedWalls
    {
        type            kqRWallFunction;
        value           nonuniform List<symmTensor> 
60
(
(1.29282e-05 -0 -0 1.29282e-05 -0 1.29282e-05)
(1.46648e-05 0 -0 1.46648e-05 -0 1.46648e-05)
(1.68894e-05 -0 -0 1.68894e-05 -0 1.68894e-05)
(1.869e-05 0 -0 1.869e-05 -0 1.869e-05)
(1.98695e-05 -0 -0 1.98695e-05 -0 1.98695e-05)
(2.05658e-05 0 -0 2.05658e-05 -0 2.05658e-05)
(2.09643e-05 -0 -0 2.09643e-05 -0 2.09643e-05)
(2.12016e-05 0 -0 2.12016e-05 -0 2.12016e-05)
(2.13592e-05 -0 -0 2.13592e-05 -0 2.13592e-05)
(2.14818e-05 0 -0 2.14818e-05 -0 2.14818e-05)
(2.15924e-05 -0 -0 2.15924e-05 -0 2.15924e-05)
(2.17035e-05 0 -0 2.17035e-05 -0 2.17035e-05)
(2.18225e-05 -0 -0 2.18225e-05 -0 2.18225e-05)
(2.19549e-05 0 -0 2.19549e-05 -0 2.19549e-05)
(2.21054e-05 -0 -0 2.21054e-05 -0 2.21054e-05)
(2.22779e-05 0 -0 2.22779e-05 -0 2.22779e-05)
(2.24725e-05 -0 -0 2.24725e-05 -0 2.24725e-05)
(2.2677e-05 0 -0 2.2677e-05 -0 2.2677e-05)
(2.28575e-05 -0 -0 2.28575e-05 -0 2.28575e-05)
(2.29334e-05 0 -0 2.29334e-05 -0 2.29334e-05)
(1.29278e-05 0 -0 1.29278e-05 -0 1.29278e-05)
(1.46506e-05 0 -0 1.46506e-05 -0 1.46506e-05)
(1.68704e-05 0 -0 1.68704e-05 -0 1.68704e-05)
(1.86666e-05 0 -0 1.86666e-05 -0 1.86666e-05)
(1.98429e-05 0 -0 1.98429e-05 -0 1.98429e-05)
(2.05373e-05 0 -0 2.05373e-05 -0 2.05373e-05)
(2.09345e-05 0 -0 2.09345e-05 -0 2.09345e-05)
(2.1171e-05 0 -0 2.1171e-05 -0 2.1171e-05)
(2.13283e-05 0 -0 2.13283e-05 -0 2.13283e-05)
(2.14505e-05 0 -0 2.14505e-05 -0 2.14505e-05)
(2.15607e-05 0 -0 2.15607e-05 -0 2.15607e-05)
(2.16715e-05 0 -0 2.16715e-05 -0 2.16715e-05)
(2.17902e-05 -0 -0 2.17902e-05 -0 2.17902e-05)
(2.19222e-05 -0 -0 2.19222e-05 -0 2.19222e-05)
(2.20722e-05 -0 -0 2.20722e-05 -0 2.20722e-05)
(2.22442e-05 -0 -0 2.22442e-05 -0 2.22442e-05)
(2.24382e-05 -0 -0 2.24382e-05 -0 2.24382e-05)
(2.26421e-05 -0 -0 2.26421e-05 -0 2.26421e-05)
(2.28232e-05 0 -0 2.28232e-05 -0 2.28232e-05)
(2.29328e-05 0 -0 2.29328e-05 -0 2.29328e-05)
(1.29282e-05 -0 -0 1.29282e-05 -0 1.29282e-05)
(1.29281e-05 0 -0 1.29281e-05 -0 1.29281e-05)
(1.29281e-05 -0 -0 1.29281e-05 -0 1.29281e-05)
(1.29281e-05 0 -0 1.29281e-05 -0 1.29281e-05)
(1.2928e-05 -0 -0 1.2928e-05 -0 1.2928e-05)
(1.2928e-05 0 -0 1.2928e-05 -0 1.2928e-05)
(1.2928e-05 -0 -0 1.2928e-05 -0 1.2928e-05)
(1.29279e-05 0 -0 1.29279e-05 -0 1.29279e-05)
(1.29279e-05 -0 -0 1.29279e-05 -0 1.29279e-05)
(1.29279e-05 0 -0 1.29279e-05 -0 1.29279e-05)
(1.29279e-05 -0 -0 1.29279e-05 -0 1.29279e-05)
(1.29279e-05 -0 -0 1.29279e-05 -0 1.29279e-05)
(1.29279e-05 -0 -0 1.29279e-05 -0 1.29279e-05)
(1.29278e-05 -0 -0 1.29278e-05 -0 1.29278e-05)
(1.29278e-05 -0 -0 1.29278e-05 -0 1.29278e-05)
(1.29278e-05 -0 -0 1.29278e-05 -0 1.29278e-05)
(1.29278e-05 -0 -0 1.29278e-05 -0 1.29278e-05)
(1.29278e-05 -0 -0 1.29278e-05 -0 1.29278e-05)
(1.29278e-05 -0 -0 1.29278e-05 -0 1.29278e-05)
(1.29278e-05 0 -0 1.29278e-05 -0 1.29278e-05)
)
;
    }
    frontAndBack
    {
        type            empty;
    }
}


// ************************************************************************* //
