/*--------------------------------*- C++ -*----------------------------------*\
| =========                 |                                                 |
| \\      /  F ield         | OpenFOAM: The Open Source CFD Toolbox           |
|  \\    /   O peration     | Version:  2312                                  |
|   \\  /    A nd           | Website:  www.openfoam.com                      |
|    \\/     M anipulation  |                                                 |
\*---------------------------------------------------------------------------*/
FoamFile
{
    version     2.0;
    format      ascii;
    arch        "LSB;label=32;scalar=64";
    class       volScalarField;
    location    "4.5";
    object      turbulenceProperties:nuEff;
}
// * * * * * * * * * * * * * * * * * * * * * * * * * * * * * * * * * * * * * //

dimensions      [0 2 -1 0 0 0 0];

internalField   nonuniform List<scalar> 
400
(
1.24605e-05
1.24605e-05
1.24605e-05
1.24604e-05
1.24604e-05
1.24604e-05
1.24604e-05
1.24604e-05
1.24604e-05
1.24604e-05
1.24604e-05
1.24604e-05
1.24604e-05
1.24604e-05
1.24604e-05
1.24604e-05
1.24604e-05
1.24604e-05
1.24604e-05
1.24604e-05
1.26186e-05
1.2693e-05
1.2686e-05
1.26832e-05
1.26775e-05
1.26746e-05
1.26691e-05
1.26661e-05
1.26607e-05
1.26576e-05
1.26523e-05
1.26492e-05
1.26439e-05
1.26408e-05
1.26356e-05
1.26324e-05
1.26273e-05
1.26241e-05
1.26215e-05
1.26174e-05
1.28085e-05
1.28956e-05
1.28873e-05
1.28839e-05
1.28772e-05
1.28737e-05
1.28672e-05
1.28637e-05
1.28573e-05
1.28536e-05
1.28475e-05
1.28437e-05
1.28377e-05
1.28339e-05
1.2828e-05
1.28242e-05
1.28184e-05
1.28146e-05
1.28117e-05
1.28069e-05
1.29533e-05
1.30506e-05
1.30413e-05
1.30376e-05
1.303e-05
1.30262e-05
1.30189e-05
1.30149e-05
1.30078e-05
1.30037e-05
1.29968e-05
1.29926e-05
1.29859e-05
1.29817e-05
1.29751e-05
1.29708e-05
1.29643e-05
1.29601e-05
1.29568e-05
1.29515e-05
1.30446e-05
1.31487e-05
1.31387e-05
1.31347e-05
1.31266e-05
1.31225e-05
1.31147e-05
1.31104e-05
1.31028e-05
1.30984e-05
1.30911e-05
1.30865e-05
1.30794e-05
1.30748e-05
1.30678e-05
1.30633e-05
1.30562e-05
1.30518e-05
1.30482e-05
1.30426e-05
1.30973e-05
1.32053e-05
1.31949e-05
1.31908e-05
1.31824e-05
1.31781e-05
1.31699e-05
1.31656e-05
1.31576e-05
1.31532e-05
1.31454e-05
1.31408e-05
1.31332e-05
1.31287e-05
1.31212e-05
1.31166e-05
1.31093e-05
1.31047e-05
1.3101e-05
1.30951e-05
1.3127e-05
1.32373e-05
1.32267e-05
1.32225e-05
1.32139e-05
1.32095e-05
1.32012e-05
1.31967e-05
1.31886e-05
1.3184e-05
1.31762e-05
1.31714e-05
1.31638e-05
1.3159e-05
1.31515e-05
1.31467e-05
1.31393e-05
1.31345e-05
1.31308e-05
1.31248e-05
1.31446e-05
1.32562e-05
1.32455e-05
1.32412e-05
1.32326e-05
1.32281e-05
1.32197e-05
1.32151e-05
1.3207e-05
1.32022e-05
1.31943e-05
1.31895e-05
1.31818e-05
1.31769e-05
1.31693e-05
1.31645e-05
1.3157e-05
1.31522e-05
1.31484e-05
1.31423e-05
1.31562e-05
1.32688e-05
1.32579e-05
1.32536e-05
1.32448e-05
1.32404e-05
1.32318e-05
1.32273e-05
1.3219e-05
1.32144e-05
1.32062e-05
1.32016e-05
1.31936e-05
1.31889e-05
1.31811e-05
1.31763e-05
1.31687e-05
1.31638e-05
1.316e-05
1.31539e-05
1.31652e-05
1.32784e-05
1.32676e-05
1.32631e-05
1.32544e-05
1.32498e-05
1.32413e-05
1.32367e-05
1.32284e-05
1.32236e-05
1.32156e-05
1.32107e-05
1.32029e-05
1.3198e-05
1.31903e-05
1.31854e-05
1.31777e-05
1.31729e-05
1.31691e-05
1.31629e-05
1.31733e-05
1.32871e-05
1.32761e-05
1.32717e-05
1.32629e-05
1.32584e-05
1.32498e-05
1.32452e-05
1.32367e-05
1.32321e-05
1.32239e-05
1.32191e-05
1.32111e-05
1.32063e-05
1.31984e-05
1.31936e-05
1.31859e-05
1.3181e-05
1.31772e-05
1.3171e-05
1.31814e-05
1.32958e-05
1.32848e-05
1.32804e-05
1.32715e-05
1.32669e-05
1.32583e-05
1.32536e-05
1.32453e-05
1.32404e-05
1.32323e-05
1.32273e-05
1.32195e-05
1.32145e-05
1.32067e-05
1.32017e-05
1.31941e-05
1.31891e-05
1.31853e-05
1.31791e-05
1.319e-05
1.33051e-05
1.32941e-05
1.32895e-05
1.32807e-05
1.3276e-05
1.32674e-05
1.32626e-05
1.32543e-05
1.32493e-05
1.32413e-05
1.32363e-05
1.32284e-05
1.32233e-05
1.32155e-05
1.32105e-05
1.32028e-05
1.31978e-05
1.31939e-05
1.31877e-05
1.31996e-05
1.33154e-05
1.33043e-05
1.32998e-05
1.32908e-05
1.32862e-05
1.32774e-05
1.32728e-05
1.32642e-05
1.32595e-05
1.32511e-05
1.32463e-05
1.32381e-05
1.32332e-05
1.32252e-05
1.32203e-05
1.32124e-05
1.32075e-05
1.32036e-05
1.31973e-05
1.32105e-05
1.33271e-05
1.33159e-05
1.33113e-05
1.33023e-05
1.32976e-05
1.32889e-05
1.32841e-05
1.32756e-05
1.32706e-05
1.32624e-05
1.32573e-05
1.32493e-05
1.32442e-05
1.32363e-05
1.32312e-05
1.32234e-05
1.32184e-05
1.32144e-05
1.32081e-05
1.32229e-05
1.33404e-05
1.33291e-05
1.33246e-05
1.33154e-05
1.33108e-05
1.33019e-05
1.32971e-05
1.32884e-05
1.32836e-05
1.32751e-05
1.32702e-05
1.32619e-05
1.3257e-05
1.32489e-05
1.32438e-05
1.32359e-05
1.32308e-05
1.32269e-05
1.32205e-05
1.32368e-05
1.33554e-05
1.3344e-05
1.33394e-05
1.33302e-05
1.33255e-05
1.33165e-05
1.33116e-05
1.3303e-05
1.32979e-05
1.32896e-05
1.32844e-05
1.32763e-05
1.32711e-05
1.32631e-05
1.32579e-05
1.325e-05
1.32448e-05
1.32409e-05
1.32344e-05
1.32514e-05
1.3371e-05
1.33595e-05
1.33549e-05
1.33456e-05
1.33408e-05
1.33318e-05
1.3327e-05
1.33181e-05
1.33132e-05
1.33045e-05
1.32995e-05
1.32911e-05
1.32861e-05
1.32778e-05
1.32727e-05
1.32646e-05
1.32595e-05
1.32555e-05
1.3249e-05
1.32642e-05
1.33821e-05
1.33708e-05
1.33665e-05
1.33574e-05
1.33528e-05
1.3344e-05
1.33393e-05
1.33306e-05
1.33257e-05
1.33172e-05
1.33123e-05
1.3304e-05
1.32989e-05
1.32908e-05
1.32856e-05
1.32776e-05
1.32723e-05
1.32683e-05
1.32618e-05
1.32696e-05
1.32696e-05
1.32696e-05
1.32696e-05
1.32696e-05
1.32696e-05
1.32696e-05
1.32696e-05
1.32696e-05
1.32696e-05
1.32696e-05
1.32696e-05
1.32696e-05
1.32696e-05
1.32696e-05
1.32696e-05
1.32696e-05
1.32696e-05
1.32696e-05
1.32696e-05
)
;

boundaryField
{
    movingWall
    {
        type            calculated;
        value           uniform 1e-05;
    }
    fixedWalls
    {
        type            calculated;
        value           uniform 1e-05;
    }
    frontAndBack
    {
        type            empty;
    }
}


// ************************************************************************* //
