/*--------------------------------*- C++ -*----------------------------------*\
| =========                 |                                                 |
| \\      /  F ield         | OpenFOAM: The Open Source CFD Toolbox           |
|  \\    /   O peration     | Version:  2312                                  |
|   \\  /    A nd           | Website:  www.openfoam.com                      |
|    \\/     M anipulation  |                                                 |
\*---------------------------------------------------------------------------*/
FoamFile
{
    version     2.0;
    format      ascii;
    arch        "LSB;label=32;scalar=64";
    class       volSymmTensorField;
    location    "4.5";
    object      turbulenceProperties:devReff;
}
// * * * * * * * * * * * * * * * * * * * * * * * * * * * * * * * * * * * * * //

dimensions      [0 2 -2 0 0 0 0];

internalField   nonuniform List<symmTensor> 
400
(
(1.17092e-14 -1.26814e-11 -0 -8.37403e-15 -0 -3.33517e-15)
(-2.17823e-14 1.56624e-11 -0 7.60856e-15 -0 1.41737e-14)
(1.93661e-14 -3.71749e-12 -0 -1.17515e-14 -0 -7.61468e-15)
(-7.41118e-15 8.81475e-13 -0 3.44251e-15 -0 3.96867e-15)
(4.02663e-15 -2.0947e-13 -0 -2.48593e-15 -0 -1.5407e-15)
(-7.76673e-16 4.94094e-14 -0 2.983e-16 -0 4.78373e-16)
(5.85485e-16 -1.19308e-14 -0 -4.07676e-16 -0 -1.77809e-16)
(-5.19801e-19 2.67776e-15 -0 -4.69196e-17 -0 4.74394e-17)
(1.13642e-16 -7.42211e-16 -0 -9.55643e-17 -0 -1.80773e-17)
(3.79052e-17 9.99705e-17 -0 -4.20364e-17 -0 4.13115e-18)
(3.78443e-17 -7.70576e-17 -0 -3.58352e-17 -0 -2.0091e-18)
(2.27148e-17 -1.92553e-17 -0 -2.31387e-17 -0 4.239e-19)
(1.83632e-17 -2.1582e-17 -0 -1.7813e-17 -0 -5.50252e-19)
(1.26154e-17 -1.22786e-17 -0 -1.23967e-17 -0 -2.18732e-19)
(8.31154e-18 -8.639e-18 -0 -8.5173e-18 -0 2.05761e-19)
(7.17707e-18 -4.77571e-18 -0 -6.92384e-18 -0 -2.53228e-19)
(4.16825e-18 -2.38668e-18 -0 -4.28361e-18 -0 1.15361e-19)
(2.60617e-18 -6.00581e-19 -0 -2.51042e-18 -0 -9.5753e-20)
(1.32075e-18 -4.07946e-19 -0 -1.29055e-18 -0 -3.02081e-20)
(1.08692e-19 1.83169e-19 -0 -2.17383e-19 -0 1.08692e-19)
(-6.9036e-14 1.28955e-11 -0 7.26405e-14 -0 -3.60447e-15)
(5.77928e-14 -1.59652e-11 -0 -3.78517e-14 -0 -1.99411e-14)
(-1.35614e-14 3.79276e-12 -0 9.92873e-15 -0 3.63268e-15)
(4.47843e-15 -8.96733e-13 -0 -3.20063e-15 -0 -1.2778e-15)
(-9.29433e-16 2.13475e-13 -0 6.13568e-16 -0 3.15864e-16)
(4.11095e-16 -5.01488e-14 -0 -3.67333e-16 -0 -4.37611e-17)
(3.94132e-17 1.20797e-14 -0 -5.68492e-17 -0 1.74359e-17)
(9.7815e-17 -2.74716e-15 -0 -9.60684e-17 -0 -1.74657e-18)
(5.3331e-17 7.12733e-16 -0 -5.31278e-17 -0 -2.0318e-19)
(4.21305e-17 -1.30153e-16 -0 -4.17183e-17 -0 -4.12124e-19)
(2.91241e-17 5.40547e-17 -0 -2.87552e-17 -0 -3.68843e-19)
(2.0542e-17 2.23987e-18 -0 -2.05127e-17 -0 -2.93286e-20)
(1.49467e-17 9.85482e-18 -0 -1.48139e-17 -0 -1.32759e-19)
(1.09109e-17 4.45326e-18 -0 -1.08576e-17 -0 -5.32304e-20)
(7.62423e-18 2.99061e-18 -0 -7.7137e-18 -0 8.94755e-20)
(5.0289e-18 1.89747e-18 -0 -5.26418e-18 -0 2.3528e-19)
(4.51676e-18 1.83701e-18 -0 -4.24183e-18 -0 -2.7493e-19)
(2.65749e-18 8.29689e-19 -0 -2.57758e-18 -0 -7.99117e-20)
(1.39172e-18 7.86801e-19 -0 -1.41501e-18 -0 2.32928e-20)
(6.25462e-19 6.17722e-19 -0 -5.66934e-19 -0 -5.85281e-20)
(1.59634e-13 -1.3056e-11 -0 -1.55241e-13 -0 -4.39357e-15)
(-1.426e-13 1.61943e-11 -0 9.55416e-14 -0 4.70581e-14)
(2.82306e-14 -3.84512e-12 -0 -1.88943e-14 -0 -9.3363e-15)
(-1.14004e-14 9.12561e-13 -0 7.33247e-15 -0 4.06791e-15)
(2.20387e-15 -2.16141e-13 -0 -1.37181e-15 -0 -8.32055e-16)
(-7.29907e-16 5.16518e-14 -0 4.39503e-16 -0 2.90404e-16)
(2.10849e-16 -1.20487e-14 -0 -1.37802e-16 -0 -7.30467e-17)
(-1.7847e-17 2.99176e-15 -0 -6.14645e-18 -0 2.39934e-17)
(4.42701e-17 -6.29876e-16 -0 -3.83567e-17 -0 -5.91348e-18)
(2.04902e-17 2.00929e-16 -0 -2.28636e-17 -0 2.37343e-18)
(2.08809e-17 -1.42181e-17 -0 -2.01715e-17 -0 -7.09403e-19)
(1.45491e-17 2.50499e-17 -0 -1.44767e-17 -0 -7.23754e-20)
(1.14765e-17 8.07411e-18 -0 -1.11222e-17 -0 -3.54357e-19)
(7.97188e-18 7.53892e-18 -0 -8.29077e-18 -0 3.18887e-19)
(7.46997e-18 4.9226e-18 -0 -7.29045e-18 -0 -1.79518e-19)
(5.41457e-18 3.63472e-18 -0 -5.26753e-18 -0 -1.47042e-19)
(2.99793e-18 2.54133e-18 -0 -3.21633e-18 -0 2.18397e-19)
(2.15879e-18 1.70709e-18 -0 -2.23353e-18 -0 7.47468e-20)
(1.42021e-18 1.28435e-18 -0 -1.45138e-18 -0 3.11679e-20)
(6.19747e-19 1.176e-18 -0 -5.45231e-19 -0 -7.45163e-20)
(-1.79354e-13 1.31174e-11 -0 1.80513e-13 -0 -1.15904e-15)
(1.55274e-13 -1.63413e-11 -0 -1.03373e-13 -0 -5.19015e-14)
(-3.16645e-14 3.87489e-12 -0 2.26216e-14 -0 9.04289e-15)
(1.16791e-14 -9.18978e-13 -0 -7.37262e-15 -0 -4.30653e-15)
(-2.76083e-15 2.18039e-13 -0 1.94041e-15 -0 8.20416e-16)
(6.5248e-16 -5.15484e-14 -0 -4.01793e-16 -0 -2.50687e-16)
(-2.44468e-16 1.23642e-14 -0 1.67819e-16 -0 7.66496e-17)
(4.41907e-17 -2.82447e-15 -0 -2.91161e-17 -0 -1.50746e-17)
(-1.10845e-17 7.45673e-16 -0 4.54012e-18 -0 6.54436e-18)
(1.28225e-17 -1.23278e-16 -0 -1.15464e-17 -0 -1.27613e-18)
(6.57156e-18 6.69864e-17 -0 -7.50664e-18 -0 9.35085e-19)
(7.80319e-18 1.05666e-17 -0 -7.85875e-18 -0 5.5551e-20)
(7.01291e-18 1.58633e-17 -0 -6.98614e-18 -0 -2.67691e-20)
(6.29981e-18 9.23454e-18 -0 -6.26598e-18 -0 -3.38336e-20)
(4.46947e-18 7.64629e-18 -0 -4.71866e-18 -0 2.49194e-19)
(3.48594e-18 5.21187e-18 -0 -3.45613e-18 -0 -2.98108e-20)
(2.62929e-18 4.00941e-18 -0 -2.44739e-18 -0 -1.81894e-19)
(1.95297e-18 2.89212e-18 -0 -1.79824e-18 -0 -1.54735e-19)
(7.63196e-19 2.08774e-18 -0 -8.24002e-19 -0 6.08059e-20)
(5.85602e-19 1.27041e-18 -0 -4.691e-19 -0 -1.16501e-19)
(1.88792e-13 -1.31495e-11 -0 -1.93198e-13 -0 4.40558e-15)
(-1.59145e-13 1.64107e-11 -0 1.05522e-13 -0 5.36229e-14)
(3.15261e-14 -3.88934e-12 -0 -2.19505e-14 -0 -9.57565e-15)
(-1.22001e-14 9.22389e-13 -0 7.77574e-15 -0 4.42438e-15)
(2.44679e-15 -2.18572e-13 -0 -1.54551e-15 -0 -9.01274e-16)
(-8.17937e-16 5.19147e-14 -0 5.51034e-16 -0 2.66903e-16)
(1.6004e-16 -1.22193e-14 -0 -7.9068e-17 -0 -8.09717e-17)
(-7.77338e-17 2.97308e-15 -0 5.73889e-17 -0 2.03448e-17)
(3.53937e-18 -6.44273e-16 -0 2.15523e-18 -0 -5.6946e-18)
(-7.90565e-18 1.9796e-16 -0 5.87039e-18 -0 2.03526e-18)
(1.24342e-18 -1.33052e-17 -0 -1.06751e-18 -0 -1.75914e-19)
(1.25673e-18 2.91045e-17 -0 -1.80404e-18 -0 5.47309e-19)
(2.72119e-18 1.22608e-17 -0 -2.60625e-18 -0 -1.14943e-19)
(2.1406e-18 1.11617e-17 -0 -2.15483e-18 -0 1.42307e-20)
(1.94419e-18 7.48797e-18 -0 -1.76317e-18 -0 -1.81023e-19)
(8.319e-19 6.12414e-18 -0 -9.55639e-19 -0 1.23739e-19)
(7.61565e-19 4.54676e-18 -0 -8.15351e-19 -0 5.37852e-20)
(1.85442e-19 3.14097e-18 -0 -3.70883e-19 -0 1.85442e-19)
(6.6492e-20 2.31147e-18 -0 -1.32984e-19 -0 6.6492e-20)
(5.17396e-19 2.17403e-18 -0 -3.27752e-19 -0 -1.89644e-19)
(-1.71466e-13 1.31513e-11 -0 1.82007e-13 -0 -1.05409e-14)
(1.4029e-13 -1.64338e-11 -0 -9.41571e-14 -0 -4.61332e-14)
(-2.76109e-14 3.89321e-12 -0 1.968e-14 -0 7.93088e-15)
(1.02419e-14 -9.23297e-13 -0 -6.46902e-15 -0 -3.77286e-15)
(-2.30457e-15 2.18819e-13 -0 1.55342e-15 -0 7.51142e-16)
(5.36426e-16 -5.18243e-14 -0 -3.13457e-16 -0 -2.22968e-16)
(-2.2716e-16 1.23373e-14 -0 1.60889e-16 -0 6.6271e-17)
(7.90825e-18 -2.87203e-15 -0 7.73585e-18 -0 -1.56441e-17)
(-3.3712e-17 7.25474e-16 -0 2.81938e-17 -0 5.51818e-18)
(-8.86618e-18 -1.3443e-16 -0 9.88899e-18 -0 -1.02281e-18)
(-5.77102e-18 6.10836e-17 -0 5.84114e-18 -0 -7.01208e-20)
(-2.26911e-18 7.3899e-18 -0 2.40111e-18 -0 -1.32007e-19)
(-2.5281e-18 1.43539e-17 -0 2.20838e-18 -0 3.19719e-19)
(-5.64954e-19 8.37128e-18 -0 1.12991e-18 -0 -5.64954e-19)
(-1.76149e-18 6.50046e-18 -0 1.38907e-18 -0 3.72421e-19)
(-7.77028e-20 4.20579e-18 -0 1.55406e-19 -0 -7.77028e-20)
(4.28962e-20 3.25048e-18 -0 -8.57924e-20 -0 4.28962e-20)
(1.15571e-20 3.26039e-18 -0 -2.31143e-20 -0 1.15571e-20)
(3.82361e-20 1.96572e-18 -0 -7.64722e-20 -0 3.82361e-20)
(-3.10646e-20 1.80887e-18 -0 6.21292e-20 -0 -3.10646e-20)
(1.54298e-13 -1.31412e-11 -0 -1.68063e-13 -0 1.37657e-14)
(-1.22525e-13 1.64266e-11 -0 8.3216e-14 -0 3.93086e-14)
(2.3827e-14 -3.89133e-12 -0 -1.71066e-14 -0 -6.72039e-15)
(-8.93782e-15 9.22757e-13 -0 5.75828e-15 -0 3.17954e-15)
(1.79782e-15 -2.18668e-13 -0 -1.15511e-15 -0 -6.42709e-16)
(-5.8086e-16 5.18517e-14 -0 3.9407e-16 -0 1.8679e-16)
(9.70678e-17 -1.22586e-14 -0 -4.02733e-17 -0 -5.67944e-17)
(-7.0305e-17 2.9391e-15 -0 5.69088e-17 -0 1.33962e-17)
(-1.51944e-17 -6.64384e-16 -0 1.89495e-17 -0 -3.75509e-18)
(-1.91327e-17 1.8514e-16 -0 1.82537e-17 -0 8.79053e-19)
(-1.15181e-17 -2.08015e-17 -0 1.16078e-17 -0 -8.96361e-20)
(-8.76362e-18 2.29947e-17 -0 8.24493e-18 -0 5.18683e-19)
(-5.89884e-18 8.7096e-18 -0 5.37518e-18 -0 5.23657e-19)
(-2.57441e-18 8.65707e-18 -0 3.00878e-18 -0 -4.34365e-19)
(-3.28203e-18 6.44745e-18 -0 2.99934e-18 -0 2.82692e-19)
(-1.02667e-18 5.23307e-18 -0 1.34066e-18 -0 -3.13987e-19)
(-1.16685e-18 4.0854e-18 -0 9.09127e-19 -0 2.57718e-19)
(-3.95411e-20 2.81183e-18 -0 7.90822e-20 -0 -3.95411e-20)
(-2.74515e-20 2.7461e-18 -0 5.4903e-20 -0 -2.74515e-20)
(-5.16035e-20 1.84274e-18 -0 1.03207e-19 -0 -5.16035e-20)
(-1.28914e-13 1.31274e-11 -0 1.4641e-13 -0 -1.74963e-14)
(9.87325e-14 -1.64104e-11 -0 -6.86979e-14 -0 -3.00345e-14)
(-1.89808e-14 3.88744e-12 -0 1.41091e-14 -0 4.87178e-15)
(6.87264e-15 -9.21883e-13 -0 -4.48056e-15 -0 -2.39208e-15)
(-1.50662e-15 2.18459e-13 -0 1.03696e-15 -0 4.69652e-16)
(3.35869e-16 -5.17742e-14 -0 -1.99889e-16 -0 -1.3598e-16)
(-1.54162e-16 1.22884e-14 -0 1.13398e-16 -0 4.0764e-17)
(-9.63218e-18 -2.8919e-15 -0 1.92644e-17 -0 -9.63218e-18)
(-3.36143e-17 7.05459e-16 -0 3.0715e-17 -0 2.89925e-18)
(-1.78847e-17 -1.48308e-16 -0 1.85928e-17 -0 -7.08085e-19)
(-1.50242e-17 5.07648e-17 -0 1.50277e-17 -0 -3.56087e-21)
(-1.08077e-17 1.49062e-18 -0 1.08904e-17 -0 -8.26674e-20)
(-8.18021e-18 1.11935e-17 -0 7.78539e-18 -0 3.94822e-19)
(-4.54615e-18 6.26333e-18 -0 4.80636e-18 -0 -2.60212e-19)
(-3.59079e-18 5.63012e-18 -0 3.61203e-18 -0 -2.12402e-20)
(-2.33241e-18 4.61511e-18 -0 2.52387e-18 -0 -1.91462e-19)
(-1.52884e-18 3.20699e-18 -0 1.6312e-18 -0 -1.02357e-19)
(-1.34568e-18 2.98743e-18 -0 1.26541e-18 -0 8.02761e-20)
(-7.76346e-19 1.991e-18 -0 8.39917e-19 -0 -6.35703e-20)
(-1.0118e-18 1.69667e-18 -0 5.98714e-19 -0 4.1309e-19)
(1.10326e-13 -1.31131e-11 -0 -1.28931e-13 -0 1.86052e-14)
(-8.16784e-14 1.63888e-11 -0 5.80295e-14 -0 2.36489e-14)
(1.56089e-14 -3.88275e-12 -0 -1.18399e-14 -0 -3.76898e-15)
(-5.64539e-15 9.20724e-13 -0 3.78986e-15 -0 1.85553e-15)
(1.11345e-15 -2.18214e-13 -0 -7.49255e-16 -0 -3.64197e-16)
(-3.55926e-16 5.1729e-14 -0 2.52483e-16 -0 1.03443e-16)
(4.59515e-17 -1.22546e-14 -0 -1.44348e-17 -0 -3.15167e-17)
(-5.22748e-17 2.91455e-15 -0 4.57511e-17 -0 6.52374e-18)
(-2.30968e-17 -6.78943e-16 -0 2.46955e-17 -0 -1.59873e-18)
(-2.19948e-17 1.72015e-16 -0 2.17826e-17 -0 2.12161e-19)
(-1.62331e-17 -3.03781e-17 -0 1.60002e-17 -0 2.32859e-19)
(-1.15869e-17 1.6008e-17 -0 1.17232e-17 -0 -1.36335e-19)
(-8.69059e-18 2.91667e-18 -0 8.79846e-18 -0 -1.0787e-19)
(-6.47155e-18 4.65389e-18 -0 6.50837e-18 -0 -3.68253e-20)
(-4.88543e-18 3.1436e-18 -0 4.76901e-18 -0 1.16414e-19)
(-2.50938e-18 2.86673e-18 -0 2.87589e-18 -0 -3.66513e-19)
(-3.24634e-18 2.97282e-18 -0 2.9233e-18 -0 3.23038e-19)
(-2.09011e-18 1.33274e-18 -0 2.03939e-18 -0 5.07253e-20)
(-1.77962e-18 4.68711e-19 -0 1.41902e-18 -0 3.60599e-19)
(4.51119e-19 1.30201e-18 -0 -1.89161e-19 -0 -2.61957e-19)
(-8.99201e-14 1.31011e-11 -0 1.09924e-13 -0 -2.00038e-14)
(6.37902e-14 -1.63695e-11 -0 -4.69085e-14 -0 -1.68817e-14)
(-1.20279e-14 3.87858e-12 -0 9.569e-15 -0 2.45893e-15)
(4.18402e-15 -9.19758e-13 -0 -2.89002e-15 -0 -1.294e-15)
(-9.00414e-16 2.17986e-13 -0 6.60535e-16 -0 2.39879e-16)
(1.80142e-16 -5.16805e-14 -0 -1.13197e-16 -0 -6.69447e-17)
(-9.84783e-17 1.22525e-14 -0 7.77995e-17 -0 2.06788e-17)
(-1.77058e-17 -2.90025e-15 -0 2.24955e-17 -0 -4.78969e-18)
(-3.04404e-17 6.92767e-16 -0 2.93278e-17 -0 1.11263e-18)
(-2.0594e-17 -1.57749e-16 -0 2.11161e-17 -0 -5.22111e-19)
(-1.7045e-17 4.27726e-17 -0 1.68959e-17 -0 1.49082e-19)
(-1.28066e-17 -4.44094e-18 -0 1.27226e-17 -0 8.40965e-20)
(-1.03523e-17 5.69419e-18 -0 9.96862e-18 -0 3.83672e-19)
(-6.20194e-18 2.71705e-18 -0 6.68017e-18 -0 -4.78232e-19)
(-5.126e-18 2.91647e-18 -0 5.24668e-18 -0 -1.2068e-19)
(-4.12899e-18 1.45281e-18 -0 3.9693e-18 -0 1.59691e-19)
(-2.81449e-18 1.87168e-18 -0 2.77152e-18 -0 4.29752e-20)
(-2.01559e-18 1.50721e-18 -0 1.88887e-18 -0 1.26717e-19)
(-2.43054e-19 2.10668e-18 -0 4.86108e-19 -0 -2.43054e-19)
(-9.36866e-20 1.13357e-18 -0 1.87373e-19 -0 -9.36866e-20)
(7.7777e-14 -1.30907e-11 -0 -9.72379e-14 -0 1.94609e-14)
(-5.35084e-14 1.63517e-11 -0 4.02518e-14 -0 1.32566e-14)
(1.0105e-14 -3.87477e-12 -0 -8.21042e-15 -0 -1.89457e-15)
(-3.51299e-15 9.18843e-13 -0 2.51064e-15 -0 1.00235e-15)
(6.6584e-16 -2.17793e-13 -0 -4.81839e-16 -0 -1.84001e-16)
(-2.19105e-16 5.16345e-14 -0 1.68682e-16 -0 5.04227e-17)
(1.35043e-17 -1.22413e-14 -0 2.44049e-18 -0 -1.59448e-17)
(-4.25038e-17 2.90118e-15 -0 3.90541e-17 -0 3.44973e-18)
(-2.27341e-17 -6.88051e-16 -0 2.39412e-17 -0 -1.20714e-18)
(-2.20079e-17 1.6329e-16 -0 2.1779e-17 -0 2.28847e-19)
(-1.71058e-17 -3.70631e-17 -0 1.70068e-17 -0 9.89942e-20)
(-1.30864e-17 1.03022e-17 -0 1.32738e-17 -0 -1.87392e-19)
(-1.05538e-17 -1.74216e-19 -0 1.0365e-17 -0 1.88839e-19)
(-7.30813e-18 1.83736e-18 -0 7.45711e-18 -0 -1.48985e-19)
(-6.46059e-18 4.01872e-19 -0 5.76628e-18 -0 6.94303e-19)
(-3.63509e-18 1.19444e-18 -0 3.69405e-18 -0 -5.89631e-20)
(-2.28871e-18 5.24156e-19 -0 2.43299e-18 -0 -1.44282e-19)
(-1.4479e-18 1.04932e-18 -0 1.46672e-18 -0 -1.88154e-20)
(-7.71681e-19 8.0014e-19 -0 8.29028e-19 -0 -5.73464e-20)
(-1.14629e-18 7.98443e-19 -0 8.64578e-19 -0 2.81711e-19)
(-6.48575e-14 1.30822e-11 -0 8.45375e-14 -0 -1.968e-14)
(4.28147e-14 -1.63372e-11 -0 -3.34964e-14 -0 -9.31829e-15)
(-7.99143e-15 3.8717e-12 -0 6.8619e-15 -0 1.12953e-15)
(2.65094e-15 -9.18113e-13 -0 -1.96788e-15 -0 -6.83057e-16)
(-5.70906e-16 2.17626e-13 -0 4.60494e-16 -0 1.10412e-16)
(8.92261e-17 -5.16059e-14 -0 -5.97839e-17 -0 -2.94422e-17)
(-7.05092e-17 1.22259e-14 -0 6.19577e-17 -0 8.55153e-18)
(-2.48982e-17 -2.9056e-15 -0 2.60866e-17 -0 -1.18841e-18)
(-2.72662e-17 6.81965e-16 -0 2.65293e-17 -0 7.36884e-19)
(-1.90102e-17 -1.67445e-16 -0 1.93585e-17 -0 -3.48341e-19)
(-1.5353e-17 3.52021e-17 -0 1.56422e-17 -0 -2.89153e-19)
(-1.22322e-17 -1.13936e-17 -0 1.22744e-17 -0 -4.22132e-20)
(-9.29799e-18 6.27536e-19 -0 9.27981e-18 -0 1.81859e-20)
(-7.12369e-18 -5.462e-19 -0 7.08378e-18 -0 3.9905e-20)
(-5.60618e-18 2.79374e-19 -0 5.48485e-18 -0 1.21322e-19)
(-4.10575e-18 5.66008e-19 -0 3.91749e-18 -0 1.88259e-19)
(-2.75994e-18 2.56737e-20 -0 2.65887e-18 -0 1.01067e-19)
(-4.67624e-19 6.63712e-19 -0 9.35248e-19 -0 -4.67624e-19)
(-1.76575e-18 5.85857e-19 -0 1.38718e-18 -0 3.78573e-19)
(-1.2866e-19 4.00099e-19 -0 2.57319e-19 -0 -1.2866e-19)
(5.93615e-14 -1.30749e-11 -0 -7.79124e-14 -0 1.8551e-14)
(-3.85904e-14 1.63256e-11 -0 3.05941e-14 -0 7.99634e-15)
(7.26513e-15 -3.86916e-12 -0 -6.27351e-15 -0 -9.91623e-16)
(-2.46353e-15 9.17521e-13 -0 1.87965e-15 -0 5.83879e-16)
(4.3008e-16 -2.17495e-13 -0 -3.35318e-16 -0 -9.47613e-17)
(-1.62686e-16 5.15619e-14 -0 1.37531e-16 -0 2.5155e-17)
(-4.77713e-18 -1.22363e-14 -0 1.31504e-17 -0 -8.37326e-18)
(-3.62514e-17 2.8876e-15 -0 3.51165e-17 -0 1.13494e-18)
(-2.23879e-17 -6.97049e-16 -0 2.25019e-17 -0 -1.13918e-19)
(-1.80171e-17 1.54987e-16 -0 1.8078e-17 -0 -6.09189e-20)
(-1.4778e-17 -4.43903e-17 -0 1.4482e-17 -0 2.96029e-19)
(-1.17881e-17 5.19035e-18 -0 1.1378e-17 -0 4.10102e-19)
(-9.0651e-18 -5.31747e-18 -0 8.80775e-18 -0 2.57346e-19)
(-4.92006e-18 -1.54096e-18 -0 5.5391e-18 -0 -6.19036e-19)
(-4.99497e-18 -1.61147e-18 -0 4.97504e-18 -0 1.9934e-20)
(-4.01364e-18 -9.22214e-19 -0 3.73042e-18 -0 2.83218e-19)
(-1.72406e-18 7.93678e-19 -0 2.01668e-18 -0 -2.92614e-19)
(-1.48697e-18 2.76177e-19 -0 1.54303e-18 -0 -5.60597e-20)
(-8.05303e-19 2.92674e-19 -0 8.95361e-19 -0 -9.00581e-20)
(-1.05021e-18 -2.55508e-19 -0 6.70609e-19 -0 3.79602e-19)
(-5.14418e-14 1.3069e-11 -0 7.01134e-14 -0 -1.86716e-14)
(3.22507e-14 -1.63163e-11 -0 -2.66033e-14 -0 -5.64744e-15)
(-6.02932e-15 3.86717e-12 -0 5.53083e-15 -0 4.98494e-16)
(1.89472e-15 -9.17027e-13 -0 -1.50103e-15 -0 -3.93683e-16)
(-4.28931e-16 2.17377e-13 -0 3.82335e-16 -0 4.65965e-17)
(4.02941e-17 -5.15618e-14 -0 -2.80101e-17 -0 -1.2284e-17)
(-6.13693e-17 1.22018e-14 -0 5.79594e-17 -0 3.40994e-18)
(-2.59475e-17 -2.91536e-15 -0 2.59922e-17 -0 -4.47533e-20)
(-2.30008e-17 6.7143e-16 -0 2.29919e-17 -0 8.89716e-21)
(-1.5836e-17 -1.74771e-16 -0 1.58585e-17 -0 -2.24672e-20)
(-1.16897e-17 2.87979e-17 -0 1.1886e-17 -0 -1.96261e-19)
(-8.85166e-18 -1.63788e-17 -0 9.08634e-18 -0 -2.34685e-19)
(-6.74688e-18 -1.77376e-18 -0 7.03502e-18 -0 -2.88138e-19)
(-6.42869e-18 -3.41893e-18 -0 5.68365e-18 -0 7.45039e-19)
(-4.40619e-18 -2.14963e-18 -0 3.7938e-18 -0 6.12393e-19)
(-1.34981e-18 -7.55465e-19 -0 1.98294e-18 -0 -6.33136e-19)
(-1.60903e-18 -1.81466e-19 -0 1.78556e-18 -0 -1.7653e-19)
(-2.02665e-18 2.79512e-21 -0 1.90536e-18 -0 1.21288e-19)
(-1.27223e-18 -7.83311e-19 -0 1.11293e-18 -0 1.59302e-19)
(-9.17317e-20 -2.37791e-19 -0 1.83463e-19 -0 -9.17317e-20)
(5.00652e-14 -1.3064e-11 -0 -6.75201e-14 -0 1.74549e-14)
(-3.15017e-14 1.63109e-11 -0 2.5905e-14 -0 5.59674e-15)
(5.91778e-15 -3.86576e-12 -0 -5.30784e-15 -0 -6.09942e-16)
(-2.02293e-15 9.16719e-13 -0 1.62414e-15 -0 3.98788e-16)
(3.04905e-16 -2.17322e-13 -0 -2.47808e-16 -0 -5.70971e-17)
(-1.4938e-16 5.14998e-14 -0 1.34402e-16 -0 1.49779e-17)
(-1.50842e-17 -1.22446e-14 -0 2.0083e-17 -0 -4.99874e-18)
(-3.18094e-17 2.86928e-15 -0 3.12129e-17 -0 5.96497e-19)
(-1.66695e-17 -7.08277e-16 -0 1.75063e-17 -0 -8.36769e-19)
(-1.41814e-17 1.45113e-16 -0 1.39747e-17 -0 2.06667e-19)
(-1.11702e-17 -5.13319e-17 -0 1.01181e-17 -0 1.05206e-18)
(-5.81955e-18 -7.71871e-19 -0 5.88965e-18 -0 -7.01049e-20)
(-3.60882e-18 -1.0029e-17 -0 3.62642e-18 -0 -1.75951e-20)
(-2.37267e-18 -4.69065e-18 -0 2.59142e-18 -0 -2.18751e-19)
(-2.17714e-18 -2.41549e-18 -0 2.20166e-18 -0 -2.45187e-20)
(-2.18335e-18 -1.89128e-18 -0 2.2149e-18 -0 -3.1548e-20)
(-1.58002e-18 -1.05401e-18 -0 1.72636e-18 -0 -1.46338e-19)
(-1.85342e-18 -5.85813e-19 -0 1.55713e-18 -0 2.96288e-19)
(-1.18033e-18 2.54755e-19 -0 9.27943e-19 -0 2.52385e-19)
(-3.55601e-20 -1.54579e-19 -0 7.11202e-20 -0 -3.55601e-20)
(-4.2941e-14 1.30617e-11 -0 6.09462e-14 -0 -1.80052e-14)
(2.56265e-14 -1.63069e-11 -0 -2.22719e-14 -0 -3.35453e-15)
(-4.86574e-15 3.865e-12 -0 4.79271e-15 -0 7.30326e-17)
(1.38072e-15 -9.1653e-13 -0 -1.16654e-15 -0 -2.14182e-16)
(-3.69052e-16 2.1722e-13 -0 3.67804e-16 -0 1.24808e-18)
(3.28367e-18 -5.15704e-14 -0 -2.95945e-18 -0 -3.24224e-19)
(-5.20559e-17 1.21669e-14 -0 5.21929e-17 -0 -1.37019e-19)
(-1.95097e-17 -2.93489e-15 -0 1.8115e-17 -0 1.39467e-18)
(-1.4052e-17 6.57034e-16 -0 1.36967e-17 -0 3.55304e-19)
(-7.20578e-18 -1.84407e-16 -0 7.2105e-18 -0 -4.71921e-21)
(-5.31385e-18 2.35085e-17 -0 4.87054e-18 -0 4.43313e-19)
(-1.75528e-18 -1.98387e-17 -0 2.0718e-18 -0 -3.16518e-19)
(-9.21056e-19 -5.50771e-18 -0 1.12318e-18 -0 -2.02125e-19)
(-1.96762e-18 -5.92996e-18 -0 1.77926e-18 -0 1.88364e-19)
(-2.38408e-18 -4.22989e-18 -0 1.89528e-18 -0 4.88804e-19)
(-7.73647e-19 -2.72761e-18 -0 8.29345e-19 -0 -5.56974e-20)
(-1.2752e-18 -1.75043e-18 -0 1.11536e-18 -0 1.59839e-19)
(8.42561e-19 -1.31312e-18 -0 -2.5063e-19 -0 -5.9193e-19)
(-9.89625e-19 -1.36211e-18 -0 5.45188e-19 -0 4.44437e-19)
(-3.54659e-21 -6.29534e-19 -0 7.09319e-21 -0 -3.54659e-21)
(4.4137e-14 -1.30579e-11 -0 -6.04437e-14 -0 1.63067e-14)
(-2.71796e-14 1.63076e-11 -0 2.28791e-14 -0 4.3005e-15)
(4.90168e-15 -3.86481e-12 -0 -4.35629e-15 -0 -5.45391e-16)
(-1.82359e-15 9.16394e-13 -0 1.51394e-15 -0 3.09644e-16)
(1.9609e-16 -2.17329e-13 -0 -1.42149e-16 -0 -5.39411e-17)
(-1.33774e-16 5.14113e-14 -0 1.16571e-16 -0 1.72024e-17)
(-5.8765e-18 -1.22802e-14 -0 8.86543e-18 -0 -2.98893e-18)
(-1.2576e-17 2.84239e-15 -0 9.99779e-18 -0 2.57817e-18)
(-4.82351e-19 -7.20983e-16 -0 2.43543e-19 -0 2.38808e-19)
(1.06298e-18 1.3771e-16 -0 -1.40508e-18 -0 3.42099e-19)
(1.4522e-18 -5.56518e-17 -0 -1.46353e-18 -0 1.13307e-20)
(7.78736e-19 -2.32483e-18 -0 -8.37324e-19 -0 5.85874e-20)
(7.39425e-20 -9.72787e-18 -0 -1.47885e-19 -0 7.39425e-20)
(2.23987e-20 -5.37828e-18 -0 -4.47973e-20 -0 2.23987e-20)
(-4.30124e-19 -3.13253e-18 -0 1.41253e-19 -0 2.88871e-19)
(6.28577e-19 -2.47961e-18 -0 -5.38443e-19 -0 -9.0134e-20)
(5.86163e-19 -1.32795e-18 -0 -4.54044e-19 -0 -1.32119e-19)
(1.40436e-19 -6.55623e-19 -0 -2.80872e-19 -0 1.40436e-19)
(6.25303e-19 -9.86869e-19 -0 -5.32817e-19 -0 -9.24853e-20)
(6.52397e-20 -1.28677e-18 -0 -1.30479e-19 -0 6.52397e-20)
(-3.12506e-14 1.30624e-11 -0 4.87145e-14 -0 -1.74638e-14)
(1.58405e-14 -1.63075e-11 -0 -1.54597e-14 -0 -3.80779e-16)
(-3.59861e-15 3.86523e-12 -0 4.50964e-15 -0 -9.11031e-16)
(7.18887e-16 -9.16988e-13 -0 -9.1e-16 -0 1.91113e-16)
(-2.86971e-16 2.17106e-13 -0 3.86565e-16 -0 -9.95937e-17)
(1.9844e-17 -5.17073e-14 -0 -7.44021e-17 -0 5.45581e-17)
(-1.64966e-19 1.21295e-14 -0 1.11707e-17 -0 -1.10057e-17)
(1.73126e-17 -2.96148e-15 -0 -2.45108e-17 -0 7.1982e-18)
(1.56743e-17 6.50305e-16 -0 -1.40211e-17 -0 -1.65316e-18)
(1.10677e-17 -1.87724e-16 -0 -1.20315e-17 -0 9.63806e-19)
(8.36876e-18 2.25435e-17 -0 -8.08263e-18 -0 -2.8613e-19)
(5.63834e-18 -2.03371e-17 -0 -5.50893e-18 -0 -1.29416e-19)
(3.01562e-18 -5.1053e-18 -0 -3.14918e-18 -0 1.33564e-19)
(2.81215e-18 -5.54579e-18 -0 -2.74335e-18 -0 -6.88018e-20)
(2.01572e-18 -2.99043e-18 -0 -1.87205e-18 -0 -1.43662e-19)
(7.7082e-19 -2.10142e-18 -0 -8.22126e-19 -0 5.1306e-20)
(8.10158e-19 -6.62311e-19 -0 -9.0124e-19 -0 9.10814e-20)
(1.23807e-18 -6.56566e-19 -0 -1.03855e-18 -0 -1.99521e-19)
(-7.99492e-19 -1.74372e-19 -0 1.61825e-19 -0 6.37667e-19)
(1.03077e-18 -3.1262e-19 -0 -6.25092e-19 -0 -4.05681e-19)
(3.70561e-14 -1.30374e-11 -0 -4.77992e-14 -0 1.0743e-14)
(-2.41491e-14 1.62932e-11 -0 1.92072e-14 -0 4.94194e-15)
(3.42638e-15 -3.85911e-12 -0 -2.81181e-15 -0 -6.14571e-16)
(-1.4873e-15 9.12761e-13 -0 8.21089e-16 -0 6.66209e-16)
(3.57001e-16 -2.16503e-13 -0 -2.44781e-16 -0 -1.12221e-16)
(-3.40396e-18 5.09449e-14 -0 -6.55779e-17 -0 6.89819e-17)
(9.91117e-17 -1.21733e-14 -0 -7.8866e-17 -0 -2.02457e-17)
(3.96121e-17 2.80279e-15 -0 -4.66837e-17 -0 7.07161e-18)
(3.61864e-17 -7.03367e-16 -0 -3.33496e-17 -0 -2.83681e-18)
(2.09144e-17 1.40281e-16 -0 -2.16019e-17 -0 6.87467e-19)
(1.49637e-17 -4.90733e-17 -0 -1.47669e-17 -0 -1.96806e-19)
(1.00191e-17 6.48478e-19 -0 -9.93487e-18 -0 -8.41879e-20)
(6.93792e-18 -7.31474e-18 -0 -6.66375e-18 -0 -2.74178e-19)
(4.84005e-18 -2.44998e-18 -0 -4.63356e-18 -0 -2.06487e-19)
(2.9286e-18 -2.23862e-18 -0 -2.97522e-18 -0 4.66235e-20)
(2.09708e-18 -6.76607e-19 -0 -2.03352e-18 -0 -6.35588e-20)
(1.95611e-18 -9.54043e-19 -0 -1.75288e-18 -0 -2.03232e-19)
(1.24643e-18 -3.98759e-19 -0 -1.05388e-18 -0 -1.92555e-19)
(1.03698e-19 -3.19347e-19 -0 -2.07395e-19 -0 1.03698e-19)
(-1.5285e-20 1.36795e-19 -0 3.057e-20 -0 -1.5285e-20)
(-5.25846e-15 1.30235e-11 -0 1.9262e-14 -0 -1.40036e-14)
(-1.52517e-14 -1.61377e-11 -0 3.03941e-15 -0 1.22122e-14)
(1.79219e-14 3.82454e-12 -0 -9.92645e-15 -0 -7.99542e-15)
(-7.84914e-15 -9.06494e-13 -0 3.86361e-15 -0 3.98553e-15)
(3.79638e-15 2.15041e-13 -0 -2.25882e-15 -0 -1.53756e-15)
(-9.57566e-16 -5.07915e-14 -0 4.53424e-16 -0 5.04143e-16)
(5.16966e-16 1.21547e-14 -0 -3.41204e-16 -0 -1.75762e-16)
(-5.3387e-17 -2.79702e-15 -0 2.46897e-18 -0 5.0918e-17)
(8.4245e-17 7.17884e-16 -0 -6.63432e-17 -0 -1.79018e-17)
(1.71841e-17 -1.33143e-16 -0 -2.142e-17 -0 4.2359e-18)
(2.21896e-17 5.6367e-17 -0 -2.06408e-17 -0 -1.54878e-18)
(1.23327e-17 3.56317e-18 -0 -1.24366e-17 -0 1.03859e-19)
(9.64994e-18 9.83271e-18 -0 -9.22908e-18 -0 -4.20869e-19)
(5.15207e-18 4.41155e-18 -0 -5.26873e-18 -0 1.1666e-19)
(3.52804e-18 3.27171e-18 -0 -3.45937e-18 -0 -6.86762e-20)
(2.24645e-18 2.22996e-18 -0 -2.33487e-18 -0 8.84213e-20)
(1.92656e-18 9.6968e-19 -0 -1.69509e-18 -0 -2.31473e-19)
(1.29814e-18 -3.82722e-20 -0 -1.15759e-18 -0 -1.4055e-19)
(-2.8299e-19 -8.07172e-20 -0 -1.53364e-19 -0 4.36354e-19)
(5.51846e-19 1.79185e-19 -0 -3.84348e-19 -0 -1.67498e-19)
)
;

boundaryField
{
    movingWall
    {
        type            calculated;
        value           nonuniform List<symmTensor> 
20
(
(3.44096e-11 9.78004e-12 -0 -6.88126e-11 -0 3.4403e-11)
(-8.17478e-12 -1.21269e-11 -0 1.63289e-11 -0 -8.15408e-12)
(1.95086e-12 2.86788e-12 -0 -3.88219e-12 -0 1.93133e-12)
(-4.65506e-13 -6.7641e-13 -0 9.22094e-13 -0 -4.56588e-13)
(1.11966e-13 1.60325e-13 -0 -2.19912e-13 -0 1.07946e-13)
(-2.66064e-14 -3.74036e-14 -0 5.21113e-14 -0 -2.55049e-14)
(6.53867e-15 9.05324e-15 -0 -1.25553e-14 -0 6.01662e-15)
(-1.49827e-15 -1.97267e-15 -0 2.91794e-15 -0 -1.41967e-15)
(4.10707e-16 5.64966e-16 -0 -7.44435e-16 -0 3.33728e-16)
(-6.89724e-17 -6.6037e-17 -0 1.47703e-16 -0 -7.87302e-17)
(3.65274e-17 5.93721e-17 -0 -5.51654e-17 -0 1.8638e-17)
(4.91088e-18 1.5651e-17 -0 -6.06043e-19 -0 -4.30484e-18)
(8.6321e-18 1.42274e-17 -0 -9.67479e-18 -0 1.04269e-18)
(3.70958e-18 7.86954e-18 -0 -3.62446e-18 -0 -8.51244e-20)
(2.68019e-18 5.08414e-18 -0 -2.64987e-18 -0 -3.0318e-20)
(1.61083e-18 3.33587e-18 -0 -1.59536e-18 -0 -1.54713e-20)
(1.37912e-18 2.13805e-18 -0 -1.13195e-18 -0 -2.47178e-19)
(1.02971e-18 -2.88421e-20 -0 -9.75217e-19 -0 -5.44927e-20)
(-1.4339e-19 -6.08289e-20 -0 -2.5532e-19 -0 3.98711e-19)
(5.06098e-19 3.08074e-19 -0 -4.70096e-19 -0 -3.60027e-20)
)
;
    }
    fixedWalls
    {
        type            calculated;
        value           nonuniform List<symmTensor> 
60
(
(1.05273e-13 -5.33257e-11 -0 -5.46585e-14 -0 -5.06146e-14)
(-1.96892e-13 5.33644e-11 -0 1.28657e-13 -0 6.82347e-14)
(4.65563e-13 -5.32439e-11 -0 -2.91667e-13 -0 -1.73896e-13)
(-5.04808e-13 5.30761e-11 -0 3.2253e-13 -0 1.82279e-13)
(5.1817e-13 -5.2901e-11 -0 -3.34826e-13 -0 -1.83344e-13)
(-4.55359e-13 5.27438e-11 -0 3.01187e-13 -0 1.54173e-13)
(3.98412e-13 -5.25927e-11 -0 -2.68463e-13 -0 -1.29948e-13)
(-3.20128e-13 5.24651e-11 -0 2.22412e-13 -0 9.77163e-14)
(2.65293e-13 -5.23475e-11 -0 -1.88718e-13 -0 -7.65755e-14)
(-2.06299e-13 5.22483e-11 -0 1.52495e-13 -0 5.38045e-14)
(1.73329e-13 -5.21582e-11 -0 -1.30958e-13 -0 -4.23706e-14)
(-1.37712e-13 5.20787e-11 -0 1.08388e-13 -0 2.93237e-14)
(1.24401e-13 -5.2006e-11 -0 -9.87673e-14 -0 -2.56337e-14)
(-1.02892e-13 5.19368e-11 -0 8.50776e-14 -0 1.78143e-14)
(1.00972e-13 -5.18736e-11 -0 -8.26481e-14 -0 -1.83243e-14)
(-8.09632e-14 5.18098e-11 -0 7.03356e-14 -0 1.06276e-14)
(8.67793e-14 -5.17526e-11 -0 -7.23808e-14 -0 -1.43985e-14)
(-5.00435e-14 5.16951e-11 -0 4.9992e-14 -0 5.15159e-17)
(7.69802e-14 -5.16363e-11 -0 -6.05578e-14 -0 -1.64224e-14)
(7.36971e-14 5.15807e-11 -0 -2.43141e-14 -0 -4.93831e-14)
(8.72293e-20 7.93802e-20 -0 -1.74459e-19 -0 8.72293e-20)
(1.34314e-19 4.43996e-19 -0 -2.68627e-19 -0 1.34314e-19)
(1.22516e-19 8.85261e-19 -0 -2.45032e-19 -0 1.22516e-19)
(6.82867e-19 9.08041e-19 -0 -4.77556e-19 -0 -2.05311e-19)
(3.52966e-20 1.7008e-18 -0 -7.05931e-20 -0 3.52966e-20)
(-2.37223e-20 1.39087e-18 -0 4.74445e-20 -0 -2.37223e-20)
(-3.93175e-20 1.28742e-18 -0 7.86351e-20 -0 -3.93175e-20)
(-4.70804e-20 1.15497e-18 -0 9.41607e-20 -0 -4.70804e-20)
(-1.84473e-20 1.00494e-18 -0 3.68945e-20 -0 -1.84473e-20)
(-7.11747e-20 1.04428e-18 -0 1.42349e-19 -0 -7.11747e-20)
(-1.47513e-19 5.77887e-19 -0 2.95026e-19 -0 -1.47513e-19)
(-9.76244e-20 1.59203e-19 -0 1.95249e-19 -0 -9.76244e-20)
(-7.35552e-20 -2.78909e-19 -0 1.4711e-19 -0 -7.35552e-20)
(5.22611e-19 -2.82128e-19 -0 -1.57043e-19 -0 -3.65568e-19)
(-2.69229e-20 -1.53857e-19 -0 5.38458e-20 -0 -2.69229e-20)
(-2.68265e-21 -4.43666e-19 -0 5.36529e-21 -0 -2.68265e-21)
(4.92955e-20 -9.83105e-19 -0 -9.85909e-20 -0 4.92955e-20)
(2.42368e-18 -1.47893e-19 -0 -1.29464e-18 -0 -1.12904e-18)
(-1.15256e-20 1.61258e-19 -0 2.30512e-20 -0 -1.15256e-20)
(6.46592e-19 5.4004e-20 -0 -4.05006e-19 -0 -2.41586e-19)
(3.55494e-11 -1.00857e-11 -0 -7.10867e-11 -0 3.55373e-11)
(-8.45753e-12 1.25221e-11 -0 1.68862e-11 -0 -8.42868e-12)
(2.02008e-12 -2.96573e-12 -0 -4.0185e-12 -0 1.99842e-12)
(-4.81814e-13 6.99113e-13 -0 9.54495e-13 -0 -4.72681e-13)
(1.16347e-13 -1.66382e-13 -0 -2.28225e-13 -0 1.11879e-13)
(-2.74699e-14 3.85411e-14 -0 5.39325e-14 -0 -2.64627e-14)
(6.85766e-15 -9.54022e-15 -0 -1.31028e-14 -0 6.24509e-15)
(-1.51493e-15 1.94731e-15 -0 2.99137e-15 -0 -1.47644e-15)
(4.52966e-16 -6.58154e-16 -0 -8.00223e-16 -0 3.47256e-16)
(-5.48152e-17 1.59207e-17 -0 1.36735e-16 -0 -8.19203e-17)
(5.10902e-17 -9.99029e-17 -0 -7.01964e-17 -0 1.91062e-17)
(1.36023e-17 -4.34611e-17 -0 -9.31522e-18 -0 -4.28706e-18)
(1.60431e-17 -3.64865e-17 -0 -1.69073e-17 -0 8.64257e-19)
(9.91679e-18 -2.18336e-17 -0 -9.53365e-18 -0 -3.83135e-19)
(6.90327e-18 -1.51579e-17 -0 -7.30133e-18 -0 3.9806e-19)
(5.99834e-18 -8.37768e-18 -0 -6.03356e-18 -0 3.52233e-20)
(3.39058e-18 -3.91685e-18 -0 -3.52856e-18 -0 1.37976e-19)
(2.07108e-18 -1.00111e-18 -0 -1.97375e-18 -0 -9.73259e-20)
(1.06188e-18 -2.29381e-19 -0 -1.03956e-18 -0 -2.23199e-20)
(5.29201e-20 1.47e-19 -0 -1.0584e-19 -0 5.29201e-20)
)
;
    }
    frontAndBack
    {
        type            empty;
    }
}


// ************************************************************************* //
