/*--------------------------------*- C++ -*----------------------------------*\
| =========                 |                                                 |
| \\      /  F ield         | OpenFOAM: The Open Source CFD Toolbox           |
|  \\    /   O peration     | Version:  2312                                  |
|   \\  /    A nd           | Website:  www.openfoam.com                      |
|    \\/     M anipulation  |                                                 |
\*---------------------------------------------------------------------------*/
FoamFile
{
    version     2.0;
    format      ascii;
    arch        "LSB;label=32;scalar=64";
    class       volScalarField;
    location    "4.5";
    object      turbulenceProperties:k;
}
// * * * * * * * * * * * * * * * * * * * * * * * * * * * * * * * * * * * * * //

dimensions      [0 2 -2 0 0 0 0];

internalField   nonuniform List<scalar> 
400
(
1.93923e-05
1.93922e-05
1.93922e-05
1.93921e-05
1.9392e-05
1.9392e-05
1.93919e-05
1.93919e-05
1.93919e-05
1.93918e-05
1.93918e-05
1.93918e-05
1.93918e-05
1.93918e-05
1.93918e-05
1.93918e-05
1.93918e-05
1.93917e-05
1.93917e-05
1.93917e-05
2.19971e-05
2.19972e-05
2.19934e-05
2.1992e-05
2.19894e-05
2.19882e-05
2.19859e-05
2.19849e-05
2.1983e-05
2.1982e-05
2.19806e-05
2.19798e-05
2.19787e-05
2.1978e-05
2.19772e-05
2.19768e-05
2.19763e-05
2.19761e-05
2.1976e-05
2.19759e-05
2.5334e-05
2.53339e-05
2.5329e-05
2.5327e-05
2.53236e-05
2.53218e-05
2.5319e-05
2.53173e-05
2.53152e-05
2.53135e-05
2.5312e-05
2.53104e-05
2.53096e-05
2.53081e-05
2.53077e-05
2.53066e-05
2.53063e-05
2.53058e-05
2.53057e-05
2.53056e-05
2.8035e-05
2.80348e-05
2.80287e-05
2.80263e-05
2.80221e-05
2.802e-05
2.80164e-05
2.80144e-05
2.80117e-05
2.80096e-05
2.80078e-05
2.80059e-05
2.80047e-05
2.80032e-05
2.80023e-05
2.80013e-05
2.80007e-05
2.80003e-05
2.8e-05
2.79999e-05
2.98043e-05
2.98041e-05
2.97971e-05
2.97943e-05
2.97897e-05
2.9787e-05
2.97833e-05
2.97807e-05
2.97779e-05
2.97754e-05
2.97734e-05
2.97711e-05
2.97698e-05
2.97681e-05
2.9767e-05
2.9766e-05
2.97653e-05
2.97648e-05
2.97645e-05
2.97644e-05
3.08487e-05
3.08486e-05
3.0841e-05
3.08382e-05
3.08329e-05
3.08305e-05
3.0826e-05
3.08237e-05
3.08202e-05
3.08181e-05
3.08152e-05
3.08136e-05
3.08113e-05
3.08102e-05
3.08085e-05
3.08078e-05
3.08068e-05
3.08064e-05
3.0806e-05
3.08059e-05
3.14465e-05
3.14462e-05
3.14385e-05
3.14355e-05
3.143e-05
3.14274e-05
3.14228e-05
3.14203e-05
3.14168e-05
3.14143e-05
3.14118e-05
3.14095e-05
3.14079e-05
3.14059e-05
3.14049e-05
3.14035e-05
3.14029e-05
3.14022e-05
3.1402e-05
3.14018e-05
3.18023e-05
3.18021e-05
3.17941e-05
3.17909e-05
3.17856e-05
3.17826e-05
3.17783e-05
3.17753e-05
3.17721e-05
3.17691e-05
3.1767e-05
3.17642e-05
3.17627e-05
3.17608e-05
3.17596e-05
3.17584e-05
3.17576e-05
3.1757e-05
3.17567e-05
3.17565e-05
3.20389e-05
3.20388e-05
3.20302e-05
3.20276e-05
3.20216e-05
3.20192e-05
3.2014e-05
3.2012e-05
3.20076e-05
3.20059e-05
3.20023e-05
3.20009e-05
3.19982e-05
3.19971e-05
3.19953e-05
3.19944e-05
3.19934e-05
3.19929e-05
3.19926e-05
3.19924e-05
3.22227e-05
3.22224e-05
3.22145e-05
3.2211e-05
3.22055e-05
3.22025e-05
3.2198e-05
3.2195e-05
3.21917e-05
3.21887e-05
3.21864e-05
3.21836e-05
3.21821e-05
3.21801e-05
3.21788e-05
3.21776e-05
3.21768e-05
3.21762e-05
3.21758e-05
3.21757e-05
3.23886e-05
3.23885e-05
3.23799e-05
3.23768e-05
3.23712e-05
3.23684e-05
3.23634e-05
3.2361e-05
3.23567e-05
3.23548e-05
3.23513e-05
3.23497e-05
3.23471e-05
3.23459e-05
3.2344e-05
3.23431e-05
3.23421e-05
3.23416e-05
3.23412e-05
3.23411e-05
3.25553e-05
3.2555e-05
3.25466e-05
3.25433e-05
3.25376e-05
3.25346e-05
3.25298e-05
3.2527e-05
3.25234e-05
3.25205e-05
3.25181e-05
3.25153e-05
3.25137e-05
3.25117e-05
3.25104e-05
3.25091e-05
3.25083e-05
3.25077e-05
3.25073e-05
3.25072e-05
3.27338e-05
3.27334e-05
3.27253e-05
3.27217e-05
3.2716e-05
3.27129e-05
3.27083e-05
3.27051e-05
3.27018e-05
3.26985e-05
3.26963e-05
3.26935e-05
3.26919e-05
3.26897e-05
3.26886e-05
3.26871e-05
3.26864e-05
3.26857e-05
3.26854e-05
3.26853e-05
3.29323e-05
3.29321e-05
3.29236e-05
3.29202e-05
3.29144e-05
3.29115e-05
3.29062e-05
3.2904e-05
3.28994e-05
3.28975e-05
3.28938e-05
3.28922e-05
3.28895e-05
3.28882e-05
3.28863e-05
3.28854e-05
3.28843e-05
3.28838e-05
3.28834e-05
3.28833e-05
3.31582e-05
3.31579e-05
3.31491e-05
3.31457e-05
3.31398e-05
3.31367e-05
3.31319e-05
3.31288e-05
3.31251e-05
3.31221e-05
3.31195e-05
3.31167e-05
3.3115e-05
3.3113e-05
3.31116e-05
3.31104e-05
3.31094e-05
3.31088e-05
3.31084e-05
3.31083e-05
3.34169e-05
3.34167e-05
3.34076e-05
3.34045e-05
3.33983e-05
3.33953e-05
3.339e-05
3.33875e-05
3.3383e-05
3.33809e-05
3.33772e-05
3.33755e-05
3.33727e-05
3.33714e-05
3.33694e-05
3.33685e-05
3.33674e-05
3.33669e-05
3.33665e-05
3.33663e-05
3.37088e-05
3.37084e-05
3.36998e-05
3.3696e-05
3.369e-05
3.36866e-05
3.36816e-05
3.36784e-05
3.36748e-05
3.36714e-05
3.36691e-05
3.36658e-05
3.36644e-05
3.3662e-05
3.36609e-05
3.36592e-05
3.36585e-05
3.36578e-05
3.36575e-05
3.36573e-05
3.40155e-05
3.40154e-05
3.4006e-05
3.40027e-05
3.39963e-05
3.39932e-05
3.39878e-05
3.39851e-05
3.39805e-05
3.39783e-05
3.39745e-05
3.39727e-05
3.39698e-05
3.39684e-05
3.39664e-05
3.39654e-05
3.39643e-05
3.39637e-05
3.39633e-05
3.39632e-05
3.42862e-05
3.42864e-05
3.42769e-05
3.4274e-05
3.42675e-05
3.42646e-05
3.42591e-05
3.42566e-05
3.42519e-05
3.42499e-05
3.4246e-05
3.42444e-05
3.42413e-05
3.42401e-05
3.4238e-05
3.42371e-05
3.42359e-05
3.42353e-05
3.42349e-05
3.42348e-05
3.44002e-05
3.44e-05
3.43998e-05
3.43997e-05
3.43997e-05
3.43996e-05
3.43995e-05
3.43994e-05
3.43994e-05
3.43993e-05
3.43993e-05
3.43993e-05
3.43993e-05
3.43992e-05
3.43992e-05
3.43992e-05
3.43992e-05
3.43992e-05
3.43992e-05
3.43992e-05
)
;

boundaryField
{
    movingWall
    {
        type            kqRWallFunction;
        value           nonuniform List<scalar> 
20
(
3.44002e-05
3.44e-05
3.43998e-05
3.43997e-05
3.43997e-05
3.43996e-05
3.43995e-05
3.43994e-05
3.43994e-05
3.43993e-05
3.43993e-05
3.43993e-05
3.43993e-05
3.43992e-05
3.43992e-05
3.43992e-05
3.43992e-05
3.43992e-05
3.43992e-05
3.43992e-05
)
;
    }
    fixedWalls
    {
        type            kqRWallFunction;
        value           nonuniform List<scalar> 
60
(
1.93923e-05
2.19971e-05
2.5334e-05
2.8035e-05
2.98043e-05
3.08487e-05
3.14465e-05
3.18023e-05
3.20389e-05
3.22227e-05
3.23886e-05
3.25553e-05
3.27338e-05
3.29323e-05
3.31582e-05
3.34169e-05
3.37088e-05
3.40155e-05
3.42862e-05
3.44002e-05
1.93917e-05
2.19759e-05
2.53056e-05
2.79999e-05
2.97644e-05
3.08059e-05
3.14018e-05
3.17565e-05
3.19924e-05
3.21757e-05
3.23411e-05
3.25072e-05
3.26853e-05
3.28833e-05
3.31083e-05
3.33663e-05
3.36573e-05
3.39632e-05
3.42348e-05
3.43992e-05
1.93923e-05
1.93922e-05
1.93922e-05
1.93921e-05
1.9392e-05
1.9392e-05
1.93919e-05
1.93919e-05
1.93919e-05
1.93918e-05
1.93918e-05
1.93918e-05
1.93918e-05
1.93918e-05
1.93918e-05
1.93918e-05
1.93918e-05
1.93917e-05
1.93917e-05
1.93917e-05
)
;
    }
    frontAndBack
    {
        type            empty;
    }
}


// ************************************************************************* //
