/*--------------------------------*- C++ -*----------------------------------*\
| =========                 |                                                 |
| \\      /  F ield         | OpenFOAM: The Open Source CFD Toolbox           |
|  \\    /   O peration     | Version:  2312                                  |
|   \\  /    A nd           | Website:  www.openfoam.com                      |
|    \\/     M anipulation  |                                                 |
\*---------------------------------------------------------------------------*/
FoamFile
{
    version     2.0;
    format      ascii;
    arch        "LSB;label=32;scalar=64";
    class       volScalarField;
    location    "4.5";
    object      turbulenceProperties:I;
}
// * * * * * * * * * * * * * * * * * * * * * * * * * * * * * * * * * * * * * //

dimensions      [0 0 0 0 0 0 0];

internalField   nonuniform List<scalar> 
400
(
0.00359558
0.00359557
0.00359557
0.00359556
0.00359556
0.00359555
0.00359555
0.00359554
0.00359554
0.00359554
0.00359554
0.00359553
0.00359553
0.00359553
0.00359553
0.00359553
0.00359553
0.00359553
0.00359553
0.00359553
0.00382946
0.00382946
0.00382913
0.00382901
0.00382879
0.00382868
0.00382849
0.00382839
0.00382823
0.00382815
0.00382802
0.00382795
0.00382785
0.0038278
0.00382773
0.00382769
0.00382765
0.00382763
0.00382761
0.00382761
0.00410967
0.00410966
0.00410925
0.0041091
0.00410882
0.00410868
0.00410845
0.00410831
0.00410814
0.004108
0.00410788
0.00410775
0.00410769
0.00410756
0.00410753
0.00410744
0.00410742
0.00410738
0.00410737
0.00410736
0.00432319
0.00432317
0.00432271
0.00432252
0.0043222
0.00432203
0.00432176
0.0043216
0.0043214
0.00432124
0.0043211
0.00432095
0.00432086
0.00432074
0.00432067
0.00432059
0.00432055
0.00432051
0.0043205
0.00432049
0.00445752
0.00445751
0.00445698
0.00445678
0.00445643
0.00445623
0.00445596
0.00445576
0.00445555
0.00445536
0.00445522
0.00445504
0.00445494
0.00445482
0.00445473
0.00445466
0.0044546
0.00445457
0.00445455
0.00445454
0.00453496
0.00453495
0.00453439
0.00453418
0.00453379
0.00453361
0.00453329
0.00453312
0.00453286
0.00453271
0.00453249
0.00453237
0.00453221
0.00453212
0.004532
0.00453194
0.00453187
0.00453184
0.00453181
0.00453181
0.00457868
0.00457866
0.0045781
0.00457788
0.00457748
0.00457729
0.00457696
0.00457678
0.00457652
0.00457634
0.00457616
0.00457599
0.00457587
0.00457573
0.00457565
0.00457555
0.0045755
0.00457546
0.00457544
0.00457543
0.00460451
0.0046045
0.00460392
0.00460369
0.0046033
0.00460309
0.00460277
0.00460256
0.00460233
0.00460211
0.00460195
0.00460176
0.00460165
0.00460151
0.00460142
0.00460133
0.00460127
0.00460123
0.00460121
0.0046012
0.00462161
0.0046216
0.00462098
0.00462079
0.00462036
0.00462019
0.00461981
0.00461967
0.00461935
0.00461923
0.00461897
0.00461887
0.00461867
0.00461859
0.00461846
0.0046184
0.00461833
0.00461829
0.00461827
0.00461826
0.00463485
0.00463482
0.00463425
0.004634
0.00463361
0.00463339
0.00463307
0.00463285
0.00463261
0.0046324
0.00463223
0.00463204
0.00463192
0.00463178
0.00463169
0.0046316
0.00463154
0.0046315
0.00463148
0.00463147
0.00464676
0.00464676
0.00464614
0.00464592
0.00464552
0.00464531
0.00464495
0.00464478
0.00464447
0.00464434
0.00464409
0.00464397
0.00464378
0.0046437
0.00464356
0.0046435
0.00464342
0.00464339
0.00464336
0.00464335
0.0046587
0.00465868
0.00465809
0.00465785
0.00465744
0.00465722
0.00465688
0.00465668
0.00465642
0.00465621
0.00465604
0.00465584
0.00465572
0.00465559
0.00465549
0.0046554
0.00465534
0.0046553
0.00465527
0.00465526
0.00467146
0.00467143
0.00467085
0.0046706
0.00467019
0.00466997
0.00466964
0.00466941
0.00466917
0.00466894
0.00466878
0.00466859
0.00466847
0.00466831
0.00466823
0.00466813
0.00466807
0.00466803
0.004668
0.00466799
0.0046856
0.00468559
0.00468498
0.00468474
0.00468433
0.00468412
0.00468374
0.00468359
0.00468326
0.00468313
0.00468286
0.00468275
0.00468255
0.00468246
0.00468233
0.00468227
0.00468218
0.00468215
0.00468212
0.00468211
0.00470164
0.00470162
0.004701
0.00470076
0.00470034
0.00470012
0.00469978
0.00469956
0.0046993
0.00469908
0.0046989
0.00469871
0.00469858
0.00469844
0.00469834
0.00469825
0.00469819
0.00469814
0.00469812
0.00469811
0.00471995
0.00471994
0.0047193
0.00471908
0.00471864
0.00471843
0.00471805
0.00471787
0.00471756
0.00471741
0.00471715
0.00471703
0.00471683
0.00471674
0.00471659
0.00471653
0.00471645
0.00471642
0.00471639
0.00471638
0.00474052
0.00474049
0.00473989
0.00473962
0.0047392
0.00473896
0.00473861
0.00473838
0.00473813
0.00473789
0.00473773
0.0047375
0.0047374
0.00473723
0.00473715
0.00473703
0.00473698
0.00473693
0.00473691
0.0047369
0.00476204
0.00476203
0.00476137
0.00476114
0.00476069
0.00476048
0.0047601
0.00475991
0.00475959
0.00475943
0.00475916
0.00475904
0.00475884
0.00475874
0.0047586
0.00475853
0.00475845
0.00475841
0.00475838
0.00475837
0.00478095
0.00478097
0.0047803
0.0047801
0.00477964
0.00477944
0.00477906
0.00477889
0.00477856
0.00477842
0.00477814
0.00477803
0.00477782
0.00477773
0.00477758
0.00477752
0.00477744
0.0047774
0.00477737
0.00477736
0.00478889
0.00478887
0.00478887
0.00478886
0.00478885
0.00478885
0.00478884
0.00478884
0.00478884
0.00478883
0.00478883
0.00478883
0.00478883
0.00478882
0.00478882
0.00478882
0.00478882
0.00478882
0.00478882
0.00478882
)
;

boundaryField
{
    movingWall
    {
        type            calculated;
        value           nonuniform List<scalar> 
20
(
0.00478889
0.00478887
0.00478887
0.00478886
0.00478885
0.00478885
0.00478884
0.00478884
0.00478884
0.00478883
0.00478883
0.00478883
0.00478883
0.00478882
0.00478882
0.00478882
0.00478882
0.00478882
0.00478882
0.00478882
)
;
    }
    fixedWalls
    {
        type            calculated;
        value           nonuniform List<scalar> 
60
(
0.00359558
0.00382946
0.00410967
0.00432319
0.00445752
0.00453496
0.00457868
0.00460451
0.00462161
0.00463485
0.00464676
0.0046587
0.00467146
0.0046856
0.00470164
0.00471995
0.00474052
0.00476204
0.00478095
0.00478889
0.00359553
0.00382761
0.00410736
0.00432049
0.00445454
0.00453181
0.00457543
0.0046012
0.00461826
0.00463147
0.00464335
0.00465526
0.00466799
0.00468211
0.00469811
0.00471638
0.0047369
0.00475837
0.00477736
0.00478882
0.00359558
0.00359557
0.00359557
0.00359556
0.00359556
0.00359555
0.00359555
0.00359554
0.00359554
0.00359554
0.00359554
0.00359553
0.00359553
0.00359553
0.00359553
0.00359553
0.00359553
0.00359553
0.00359553
0.00359553
)
;
    }
    frontAndBack
    {
        type            empty;
    }
}


// ************************************************************************* //
