/*--------------------------------*- C++ -*----------------------------------*\
| =========                 |                                                 |
| \\      /  F ield         | OpenFOAM: The Open Source CFD Toolbox           |
|  \\    /   O peration     | Version:  2312                                  |
|   \\  /    A nd           | Website:  www.openfoam.com                      |
|    \\/     M anipulation  |                                                 |
\*---------------------------------------------------------------------------*/
FoamFile
{
    version     2.0;
    format      ascii;
    arch        "LSB;label=32;scalar=64";
    class       volScalarField;
    location    "4.5";
    object      turbulenceProperties:L;
}
// * * * * * * * * * * * * * * * * * * * * * * * * * * * * * * * * * * * * * //

dimensions      [0 1 0 0 0 0 0];

internalField   nonuniform List<scalar> 
400
(
0.0010201
0.0010201
0.0010201
0.0010201
0.0010201
0.0010201
0.0010201
0.0010201
0.0010201
0.0010201
0.0010201
0.0010201
0.0010201
0.0010201
0.0010201
0.0010201
0.0010201
0.0010201
0.0010201
0.0010201
0.00101937
0.0010483
0.00104568
0.00104462
0.00104248
0.00104138
0.00103927
0.00103814
0.00103606
0.0010349
0.00103286
0.00103166
0.00102965
0.00102843
0.00102644
0.0010252
0.00102323
0.00102197
0.00102098
0.00101938
0.00101872
0.00105032
0.00104741
0.00104623
0.00104387
0.00104265
0.00104033
0.00103909
0.00103682
0.00103553
0.00103332
0.00103199
0.00102984
0.00102848
0.00102635
0.00102499
0.00102287
0.00102151
0.00102045
0.00101873
0.00101836
0.00105191
0.00104882
0.00104757
0.00104505
0.00104376
0.0010413
0.00103997
0.00103757
0.00103619
0.00103386
0.00103244
0.00103015
0.00102872
0.00102645
0.00102501
0.00102276
0.00102133
0.0010202
0.00101837
0.0010182
0.001053
0.00104979
0.00104849
0.00104589
0.00104454
0.001042
0.0010406
0.00103812
0.00103668
0.00103427
0.00103279
0.00103042
0.00102893
0.00102658
0.00102509
0.00102276
0.00102127
0.00102009
0.0010182
0.00101812
0.00105365
0.00105036
0.00104904
0.00104637
0.00104501
0.00104239
0.001041
0.00103844
0.00103701
0.0010345
0.00103304
0.00103057
0.00102909
0.00102666
0.00102516
0.00102277
0.00102125
0.00102006
0.00101813
0.00101807
0.001054
0.00105069
0.00104935
0.00104665
0.00104527
0.00104263
0.00104121
0.00103863
0.00103716
0.00103465
0.00103314
0.00103069
0.00102915
0.00102673
0.00102519
0.00102279
0.00102124
0.00102004
0.00101809
0.00101806
0.00105421
0.00105087
0.00104952
0.00104682
0.00104541
0.00104277
0.00104132
0.00103875
0.00103725
0.00103475
0.00103321
0.00103075
0.0010292
0.00102676
0.00102521
0.00102279
0.00102124
0.00102003
0.00101806
0.00101804
0.00105435
0.00105097
0.00104964
0.0010469
0.00104552
0.00104283
0.00104143
0.00103879
0.00103735
0.00103476
0.00103328
0.00103076
0.00102925
0.00102677
0.00102523
0.00102279
0.00102124
0.00102002
0.00101805
0.00101802
0.00105443
0.00105109
0.00104971
0.00104699
0.00104558
0.00104291
0.00104146
0.00103887
0.00103736
0.00103483
0.00103328
0.00103081
0.00102925
0.00102679
0.00102523
0.00102279
0.00102123
0.00102001
0.00101803
0.00101801
0.00105453
0.00105114
0.00104979
0.00104705
0.00104565
0.00104296
0.00104153
0.00103888
0.00103742
0.00103483
0.00103334
0.00103081
0.00102928
0.00102679
0.00102524
0.00102279
0.00102122
0.00102
0.00101802
0.00101799
0.00105461
0.00105123
0.00104985
0.00104711
0.0010457
0.00104301
0.00104156
0.00103894
0.00103743
0.00103489
0.00103333
0.00103084
0.00102928
0.00102681
0.00102524
0.00102279
0.00102121
0.00101999
0.001018
0.00101797
0.00105469
0.00105131
0.00104992
0.00104718
0.00104575
0.00104307
0.0010416
0.00103899
0.00103746
0.00103492
0.00103336
0.00103086
0.00102929
0.00102682
0.00102523
0.00102278
0.00102121
0.00101997
0.00101798
0.00101795
0.00105478
0.00105139
0.00105001
0.00104725
0.00104584
0.00104311
0.00104168
0.00103901
0.00103754
0.00103492
0.00103342
0.00103086
0.00102932
0.00102681
0.00102525
0.00102277
0.0010212
0.00101996
0.00101796
0.00101793
0.0010549
0.00105147
0.0010501
0.00104733
0.0010459
0.00104319
0.00104172
0.00103908
0.00103755
0.00103498
0.00103342
0.0010309
0.00102932
0.00102683
0.00102524
0.00102277
0.00102118
0.00101994
0.00101794
0.0010179
0.00105502
0.00105158
0.00105021
0.00104742
0.00104599
0.00104326
0.0010418
0.00103912
0.00103763
0.001035
0.00103348
0.00103091
0.00102935
0.00102682
0.00102525
0.00102276
0.00102117
0.00101992
0.00101791
0.00101786
0.00105514
0.00105171
0.00105031
0.00104752
0.00104607
0.00104335
0.00104185
0.0010392
0.00103765
0.00103508
0.00103348
0.00103096
0.00102935
0.00102685
0.00102523
0.00102276
0.00102115
0.0010199
0.00101788
0.00101783
0.00105527
0.0010518
0.00105041
0.0010476
0.00104616
0.00104341
0.00104194
0.00103924
0.00103773
0.00103508
0.00103354
0.00103095
0.00102938
0.00102684
0.00102524
0.00102273
0.00102113
0.00101987
0.00101784
0.00101779
0.00105454
0.00105118
0.00104987
0.00104714
0.00104575
0.00104307
0.00104164
0.001039
0.00103752
0.00103493
0.00103341
0.00103086
0.00102929
0.00102679
0.00102518
0.00102271
0.00102108
0.00101984
0.0010178
0.00101778
0.00101778
0.00101778
0.00101778
0.00101778
0.00101778
0.00101778
0.00101778
0.00101778
0.00101778
0.00101778
0.00101778
0.00101778
0.00101778
0.00101778
0.00101778
0.00101778
0.00101778
0.00101778
0.00101778
)
;

boundaryField
{
    movingWall
    {
        type            calculated;
        value           nonuniform List<scalar> 
20
(
0.00101778
0.00101778
0.00101778
0.00101778
0.00101778
0.00101778
0.00101778
0.00101778
0.00101778
0.00101778
0.00101778
0.00101778
0.00101778
0.00101778
0.00101778
0.00101778
0.00101778
0.00101778
0.00101778
0.00101778
)
;
    }
    fixedWalls
    {
        type            calculated;
        value           nonuniform List<scalar> 
60
(
0.0010201
0.00101937
0.00101872
0.00101836
0.0010182
0.00101812
0.00101807
0.00101806
0.00101804
0.00101802
0.00101801
0.00101799
0.00101797
0.00101795
0.00101793
0.0010179
0.00101786
0.00101783
0.00101779
0.00101778
0.0010201
0.00101938
0.00101873
0.00101837
0.0010182
0.00101813
0.00101809
0.00101806
0.00101805
0.00101803
0.00101802
0.001018
0.00101798
0.00101796
0.00101794
0.00101791
0.00101788
0.00101784
0.0010178
0.00101778
0.0010201
0.0010201
0.0010201
0.0010201
0.0010201
0.0010201
0.0010201
0.0010201
0.0010201
0.0010201
0.0010201
0.0010201
0.0010201
0.0010201
0.0010201
0.0010201
0.0010201
0.0010201
0.0010201
0.0010201
)
;
    }
    frontAndBack
    {
        type            empty;
    }
}


// ************************************************************************* //
