/*--------------------------------*- C++ -*----------------------------------*\
| =========                 |                                                 |
| \\      /  F ield         | OpenFOAM: The Open Source CFD Toolbox           |
|  \\    /   O peration     | Version:  2312                                  |
|   \\  /    A nd           | Website:  www.openfoam.com                      |
|    \\/     M anipulation  |                                                 |
\*---------------------------------------------------------------------------*/
FoamFile
{
    version     2.0;
    format      ascii;
    arch        "LSB;label=32;scalar=64";
    class       volScalarField;
    location    "4.5";
    object      turbulenceProperties:omega;
}
// * * * * * * * * * * * * * * * * * * * * * * * * * * * * * * * * * * * * * //

dimensions      [0 0 -1 0 0 0 0];

internalField   nonuniform List<scalar> 
400
(
7.88156
7.88154
7.88153
7.88152
7.88151
7.8815
7.88149
7.88147
7.88149
7.88146
7.88148
7.88144
7.88147
7.88144
7.88146
7.88144
7.88145
7.88144
7.88145
7.88145
8.4002
8.16836
8.18819
8.19624
8.21259
8.22102
8.2373
8.24604
8.26224
8.27133
8.28741
8.29686
8.31286
8.32262
8.3386
8.34861
8.36461
8.37486
8.38294
8.3961
9.02063
8.7492
8.77267
8.78221
8.80151
8.81146
8.83061
8.84091
8.85987
8.8706
8.8893
8.90048
8.91895
8.93048
8.94891
8.96062
8.97912
8.99095
9.0003
9.0155
9.49265
9.18989
9.21599
9.22659
9.24811
9.25916
9.28049
9.29199
9.31306
9.32507
9.34587
9.35833
9.37895
9.39175
9.41236
9.42538
9.44604
9.45923
9.46967
9.48662
9.78921
9.46559
9.49347
9.5048
9.52769
9.53959
9.56225
9.57464
9.59705
9.60995
9.6321
9.6455
9.66749
9.68116
9.70319
9.7171
9.73917
9.7533
9.76446
9.78258
9.96003
9.62415
9.65309
9.66478
9.68862
9.70083
9.72448
9.73716
9.76058
9.77375
9.79698
9.8106
9.83368
9.84769
9.87067
9.88503
9.90798
9.92264
9.93421
9.95302
10.0565
9.71365
9.74309
9.75508
9.77938
9.79185
9.81597
9.82894
9.85277
9.86633
9.88987
9.90398
9.92728
9.94181
9.96507
9.97988
10.0032
10.0182
10.03
10.0492
10.1134
9.7665
9.7963
9.80845
9.83294
9.84568
9.86995
9.88321
9.90719
9.92105
9.94474
9.95913
9.98266
9.99734
10.0209
10.0359
10.0595
10.0747
10.0866
10.106
10.1511
9.80149
9.83167
9.84372
9.86857
9.88122
9.9059
9.91898
9.94348
9.95706
9.98134
9.99542
10.0195
10.034
10.058
10.0729
10.0968
10.1121
10.1241
10.1437
10.1804
9.82876
9.85886
9.87123
9.89607
9.90895
9.93357
9.94699
9.9713
9.98533
10.0093
10.0239
10.0478
10.0627
10.0865
10.1017
10.1256
10.141
10.1531
10.1728
10.2067
9.85315
9.8836
9.8959
9.92088
9.93377
9.95864
9.97193
9.99667
10.0104
10.0349
10.0492
10.0735
10.0882
10.1124
10.1276
10.1517
10.1671
10.1793
10.1991
10.2331
9.87775
9.90823
9.92067
9.94579
9.95877
9.98369
9.9972
10.0218
10.036
10.0602
10.075
10.0991
10.1141
10.1382
10.1536
10.1777
10.1933
10.2055
10.2254
10.2613
9.90403
9.93458
9.94717
9.97238
9.98548
10.0105
10.0241
10.0488
10.0631
10.0875
10.1022
10.1265
10.1416
10.1659
10.1813
10.2056
10.2213
10.2336
10.2536
10.2926
9.93311
9.96394
9.9765
10.0019
10.015
10.0403
10.0538
10.0789
10.0929
10.1179
10.1324
10.1571
10.1721
10.1966
10.212
10.2366
10.2523
10.2647
10.2848
10.328
9.96605
9.99715
10.0098
10.0353
10.0486
10.0739
10.0877
10.1128
10.1272
10.1519
10.1669
10.1914
10.2067
10.2313
10.2469
10.2716
10.2874
10.2999
10.3202
10.3685
10.0037
10.0351
10.0477
10.0735
10.0868
10.1125
10.1262
10.1517
10.1659
10.1911
10.2059
10.2309
10.2462
10.2711
10.2867
10.3116
10.3276
10.3401
10.3606
10.4141
10.0461
10.0775
10.0905
10.1164
10.1299
10.1557
10.1697
10.1951
10.2098
10.2349
10.2502
10.275
10.2908
10.3156
10.3316
10.3566
10.3727
10.3854
10.406
10.4617
10.0905
10.1224
10.1353
10.1615
10.175
10.2011
10.2151
10.2409
10.2554
10.2811
10.2962
10.3216
10.3371
10.3625
10.3784
10.4037
10.42
10.4328
10.4536
10.5036
10.1377
10.1686
10.1809
10.2065
10.2196
10.245
10.2588
10.2841
10.2984
10.3236
10.3386
10.3637
10.3793
10.4042
10.4204
10.4454
10.4621
10.4747
10.4957
10.5212
10.5212
10.5212
10.5212
10.5212
10.5211
10.5211
10.5211
10.5211
10.5211
10.5211
10.5211
10.5211
10.5211
10.5211
10.5211
10.5211
10.5211
10.5211
10.5211
)
;

boundaryField
{
    movingWall
    {
        type            calculated;
        value           nonuniform List<scalar> 
20
(
10.5212
10.5212
10.5212
10.5212
10.5212
10.5211
10.5211
10.5211
10.5211
10.5211
10.5211
10.5211
10.5211
10.5211
10.5211
10.5211
10.5211
10.5211
10.5211
10.5211
)
;
    }
    fixedWalls
    {
        type            calculated;
        value           nonuniform List<scalar> 
60
(
7.88156
8.4002
9.02063
9.49265
9.78921
9.96003
10.0565
10.1134
10.1511
10.1804
10.2067
10.2331
10.2613
10.2926
10.328
10.3685
10.4141
10.4617
10.5036
10.5212
7.88145
8.3961
9.0155
9.48662
9.78258
9.95302
10.0492
10.106
10.1437
10.1728
10.1991
10.2254
10.2536
10.2848
10.3202
10.3606
10.406
10.4536
10.4957
10.5211
7.88156
7.88154
7.88153
7.88152
7.88151
7.8815
7.88149
7.88147
7.88149
7.88146
7.88148
7.88144
7.88147
7.88144
7.88146
7.88144
7.88145
7.88144
7.88145
7.88145
)
;
    }
    frontAndBack
    {
        type            empty;
    }
}


// ************************************************************************* //
