/*--------------------------------*- C++ -*----------------------------------*\
| =========                 |                                                 |
| \\      /  F ield         | OpenFOAM: The Open Source CFD Toolbox           |
|  \\    /   O peration     | Version:  2312                                  |
|   \\  /    A nd           | Website:  www.openfoam.com                      |
|    \\/     M anipulation  |                                                 |
\*---------------------------------------------------------------------------*/
FoamFile
{
    version     2.0;
    format      ascii;
    arch        "LSB;label=32;scalar=64";
    class       volScalarField;
    location    "4.5";
    object      turbulenceProperties:epsilon;
}
// * * * * * * * * * * * * * * * * * * * * * * * * * * * * * * * * * * * * * //

dimensions      [0 2 -3 0 0 0 0];

internalField   nonuniform List<scalar> 
400
(
1.37558e-05
1.37556e-05
1.37556e-05
1.37555e-05
1.37555e-05
1.37554e-05
1.37554e-05
1.37553e-05
1.37553e-05
1.37552e-05
1.37553e-05
1.37552e-05
1.37552e-05
1.37552e-05
1.37552e-05
1.37551e-05
1.37552e-05
1.37551e-05
1.37552e-05
1.37551e-05
1.66302e-05
1.61713e-05
1.62077e-05
1.62227e-05
1.62531e-05
1.62689e-05
1.62994e-05
1.63159e-05
1.63466e-05
1.63639e-05
1.63946e-05
1.64127e-05
1.64435e-05
1.64623e-05
1.64933e-05
1.65128e-05
1.65441e-05
1.65642e-05
1.65801e-05
1.66061e-05
2.05676e-05
1.99486e-05
1.99982e-05
2.00184e-05
2.00597e-05
2.0081e-05
2.01224e-05
2.01446e-05
2.0186e-05
2.02091e-05
2.02506e-05
2.02747e-05
2.03162e-05
2.03412e-05
2.03828e-05
2.04087e-05
2.04506e-05
2.04771e-05
2.04983e-05
2.05328e-05
2.39514e-05
2.31873e-05
2.32481e-05
2.32729e-05
2.33236e-05
2.33497e-05
2.34006e-05
2.34278e-05
2.34787e-05
2.35073e-05
2.35582e-05
2.3588e-05
2.3639e-05
2.36699e-05
2.37211e-05
2.3753e-05
2.38046e-05
2.38375e-05
2.38636e-05
2.39062e-05
2.62584e-05
2.53902e-05
2.5459e-05
2.5487e-05
2.55444e-05
2.5574e-05
2.56316e-05
2.56625e-05
2.57202e-05
2.57526e-05
2.58103e-05
2.58441e-05
2.59019e-05
2.59371e-05
2.59951e-05
2.60315e-05
2.609e-05
2.61275e-05
2.61571e-05
2.62055e-05
2.76529e-05
2.67203e-05
2.6794e-05
2.6824e-05
2.68856e-05
2.69173e-05
2.6979e-05
2.70122e-05
2.7074e-05
2.71088e-05
2.71707e-05
2.7207e-05
2.7269e-05
2.73068e-05
2.73691e-05
2.74082e-05
2.7471e-05
2.75112e-05
2.7543e-05
2.7595e-05
2.84617e-05
2.74912e-05
2.75677e-05
2.7599e-05
2.76629e-05
2.76959e-05
2.77601e-05
2.77946e-05
2.78588e-05
2.7895e-05
2.79593e-05
2.79971e-05
2.80615e-05
2.81009e-05
2.81656e-05
2.82063e-05
2.82716e-05
2.83135e-05
2.83466e-05
2.84007e-05
2.89467e-05
2.79535e-05
2.80318e-05
2.80638e-05
2.81291e-05
2.81629e-05
2.82285e-05
2.82638e-05
2.83295e-05
2.83665e-05
2.84323e-05
2.8471e-05
2.85369e-05
2.85771e-05
2.86434e-05
2.86851e-05
2.87518e-05
2.87947e-05
2.88285e-05
2.8884e-05
2.92707e-05
2.82625e-05
2.8342e-05
2.83744e-05
2.84407e-05
2.8475e-05
2.85415e-05
2.85773e-05
2.8644e-05
2.86816e-05
2.87483e-05
2.87876e-05
2.88545e-05
2.88954e-05
2.89626e-05
2.90049e-05
2.90727e-05
2.91163e-05
2.91506e-05
2.92069e-05
2.95236e-05
2.85035e-05
2.85838e-05
2.86166e-05
2.86837e-05
2.87183e-05
2.87856e-05
2.88219e-05
2.88893e-05
2.89273e-05
2.89948e-05
2.90346e-05
2.91022e-05
2.91436e-05
2.92116e-05
2.92544e-05
2.93229e-05
2.9367e-05
2.94017e-05
2.94587e-05
2.97522e-05
2.87216e-05
2.88027e-05
2.88358e-05
2.89036e-05
2.89386e-05
2.90066e-05
2.90432e-05
2.91113e-05
2.91497e-05
2.92179e-05
2.9258e-05
2.93264e-05
2.93682e-05
2.94368e-05
2.94801e-05
2.95494e-05
2.95939e-05
2.9629e-05
2.96865e-05
2.99827e-05
2.89413e-05
2.90232e-05
2.90566e-05
2.91251e-05
2.91604e-05
2.92291e-05
2.92661e-05
2.93349e-05
2.93737e-05
2.94426e-05
2.94831e-05
2.95522e-05
2.95944e-05
2.96638e-05
2.97075e-05
2.97775e-05
2.98225e-05
2.98579e-05
2.9916e-05
3.02303e-05
2.91773e-05
2.92601e-05
2.92939e-05
2.93631e-05
2.93988e-05
2.94682e-05
2.95056e-05
2.95752e-05
2.96144e-05
2.9684e-05
2.9725e-05
2.97948e-05
2.98375e-05
2.99077e-05
2.99518e-05
3.00226e-05
3.00681e-05
3.01039e-05
3.01627e-05
3.05063e-05
2.94406e-05
2.95244e-05
2.95586e-05
2.96286e-05
2.96647e-05
2.9735e-05
2.97728e-05
2.98432e-05
2.98829e-05
2.99533e-05
2.99948e-05
3.00654e-05
3.01087e-05
3.01797e-05
3.02244e-05
3.0296e-05
3.03421e-05
3.03783e-05
3.04378e-05
3.08213e-05
2.97408e-05
2.98257e-05
2.98603e-05
2.99312e-05
2.99679e-05
3.00391e-05
3.00774e-05
3.01487e-05
3.01889e-05
3.02604e-05
3.03024e-05
3.0374e-05
3.04178e-05
3.04898e-05
3.05352e-05
3.06077e-05
3.06545e-05
3.06912e-05
3.07515e-05
3.11836e-05
3.00862e-05
3.01723e-05
3.02075e-05
3.02795e-05
3.03167e-05
3.0389e-05
3.04279e-05
3.05004e-05
3.05412e-05
3.06137e-05
3.06565e-05
3.07291e-05
3.07737e-05
3.08467e-05
3.08928e-05
3.09664e-05
3.1014e-05
3.10513e-05
3.11125e-05
3.15942e-05
3.04774e-05
3.0565e-05
3.06008e-05
3.0674e-05
3.07119e-05
3.07853e-05
3.08249e-05
3.08986e-05
3.09401e-05
3.10139e-05
3.10574e-05
3.11313e-05
3.11766e-05
3.12509e-05
3.12978e-05
3.13728e-05
3.14211e-05
3.14591e-05
3.15214e-05
3.20275e-05
3.08909e-05
3.098e-05
3.10164e-05
3.10908e-05
3.11293e-05
3.1204e-05
3.12444e-05
3.13193e-05
3.13616e-05
3.14366e-05
3.14809e-05
3.15561e-05
3.16023e-05
3.16778e-05
3.17257e-05
3.18019e-05
3.18512e-05
3.18898e-05
3.19532e-05
3.24117e-05
3.12826e-05
3.13693e-05
3.14047e-05
3.14776e-05
3.15154e-05
3.15888e-05
3.16288e-05
3.17025e-05
3.17448e-05
3.18188e-05
3.18636e-05
3.19379e-05
3.19849e-05
3.20598e-05
3.21088e-05
3.21847e-05
3.22356e-05
3.22742e-05
3.23385e-05
3.25739e-05
3.25736e-05
3.25735e-05
3.25732e-05
3.25732e-05
3.2573e-05
3.2573e-05
3.25728e-05
3.25729e-05
3.25727e-05
3.25727e-05
3.25726e-05
3.25726e-05
3.25726e-05
3.25726e-05
3.25726e-05
3.25725e-05
3.25725e-05
3.25725e-05
3.25725e-05
)
;

boundaryField
{
    movingWall
    {
        type            epsilonWallFunction;
        blending        stepwise;
        value           nonuniform List<scalar> 
20
(
3.25739e-05
3.25736e-05
3.25735e-05
3.25732e-05
3.25732e-05
3.2573e-05
3.2573e-05
3.25728e-05
3.25729e-05
3.25727e-05
3.25727e-05
3.25726e-05
3.25726e-05
3.25726e-05
3.25726e-05
3.25726e-05
3.25725e-05
3.25725e-05
3.25725e-05
3.25725e-05
)
;
    }
    fixedWalls
    {
        type            epsilonWallFunction;
        blending        stepwise;
        value           nonuniform List<scalar> 
60
(
1.37558e-05
1.66302e-05
2.05676e-05
2.39514e-05
2.62584e-05
2.76529e-05
2.84617e-05
2.89467e-05
2.92707e-05
2.95236e-05
2.97522e-05
2.99827e-05
3.02303e-05
3.05063e-05
3.08213e-05
3.11836e-05
3.15942e-05
3.20275e-05
3.24117e-05
3.25739e-05
1.37551e-05
1.66061e-05
2.05328e-05
2.39062e-05
2.62055e-05
2.7595e-05
2.84007e-05
2.8884e-05
2.92069e-05
2.94587e-05
2.96865e-05
2.9916e-05
3.01627e-05
3.04378e-05
3.07515e-05
3.11125e-05
3.15214e-05
3.19532e-05
3.23385e-05
3.25725e-05
1.37558e-05
1.37556e-05
1.37556e-05
1.37555e-05
1.37555e-05
1.37554e-05
1.37554e-05
1.37553e-05
1.37553e-05
1.37552e-05
1.37553e-05
1.37552e-05
1.37552e-05
1.37552e-05
1.37552e-05
1.37551e-05
1.37552e-05
1.37551e-05
1.37552e-05
1.37551e-05
)
;
    }
    frontAndBack
    {
        type            empty;
    }
}


// ************************************************************************* //
