/*--------------------------------*- C++ -*----------------------------------*\
| =========                 |                                                 |
| \\      /  F ield         | OpenFOAM: The Open Source CFD Toolbox           |
|  \\    /   O peration     | Version:  2312                                  |
|   \\  /    A nd           | Website:  www.openfoam.com                      |
|    \\/     M anipulation  |                                                 |
\*---------------------------------------------------------------------------*/
FoamFile
{
    version     2.0;
    format      ascii;
    arch        "LSB;label=32;scalar=64";
    class       volVectorField;
    location    "4.5";
    object      U;
}
// * * * * * * * * * * * * * * * * * * * * * * * * * * * * * * * * * * * * * //

dimensions      [0 1 -1 0 0 0 0];

internalField   nonuniform List<vector> 
400
(
(-1 1.3328e-08 0)
(-1 -3.16436e-09 0)
(-1 7.52116e-10 0)
(-1 -1.78397e-10 0)
(-1 4.2513e-11 0)
(-1 -1.00494e-11 0)
(-1 2.41848e-12 0)
(-1 -5.58476e-13 0)
(-1 1.43435e-13 0)
(-1 -2.7332e-14 0)
(-1 1.11628e-14 0)
(-1 6.2852e-16 0)
(-1 2.22145e-15 0)
(-1 1.14381e-15 0)
(-1 9.62424e-16 0)
(-1 7.58598e-16 0)
(-1 4.58317e-16 0)
(-1 2.34553e-16 0)
(-1 1.27155e-16 0)
(-1 1.98451e-17 0)
(-1 -1.3326e-08 0)
(-1 3.167e-09 0)
(-1 -7.50456e-10 0)
(-1 1.78608e-10 0)
(-1 -4.21337e-11 0)
(-1 1.01217e-11 0)
(-1 -2.32624e-12 0)
(-1 5.9634e-13 0)
(-1 -1.12342e-13 0)
(-1 4.58576e-14 0)
(-1 2.41057e-15 0)
(-1 8.82644e-15 0)
(-1 4.70557e-15 0)
(-1 3.74283e-15 0)
(-1 2.53788e-15 0)
(-1 1.91812e-15 0)
(-1 1.30686e-15 0)
(-1 7.3438e-16 0)
(-1 3.78581e-16 0)
(-1 1.10999e-16 0)
(-1 1.32978e-08 0)
(-1 -3.15731e-09 0)
(-1 7.49634e-10 0)
(-1 -1.77639e-10 0)
(-1 4.23956e-11 0)
(-1 -9.92176e-12 0)
(-1 2.4478e-12 0)
(-1 -5.21243e-13 0)
(-1 1.64336e-13 0)
(-1 -1.10152e-14 0)
(-1 2.23807e-14 0)
(-1 8.72526e-15 0)
(-1 8.02707e-15 0)
(-1 5.41746e-15 0)
(-1 4.0502e-15 0)
(-1 2.93533e-15 0)
(-1 2.02908e-15 0)
(-1 1.2238e-15 0)
(-1 6.96939e-16 0)
(-1 2.21315e-16 0)
(-1 -1.32671e-08 0)
(-1 3.1482e-09 0)
(-1 -7.46747e-10 0)
(-1 1.77341e-10 0)
(-1 -4.19241e-11 0)
(-1 1.00638e-11 0)
(-1 -2.30108e-12 0)
(-1 6.08055e-13 0)
(-1 -9.9725e-14 0)
(-1 5.56747e-14 0)
(-1 9.98488e-15 0)
(-1 1.4434e-14 0)
(-1 8.89938e-15 0)
(-1 7.0971e-15 0)
(-1 5.30952e-15 0)
(-1 3.91454e-15 0)
(-1 2.64663e-15 0)
(-1 1.63503e-15 0)
(-1 9.57174e-16 0)
(-1 2.94773e-16 0)
(-1 1.32277e-08 0)
(-1 -3.13759e-09 0)
(-1 7.44428e-10 0)
(-1 -1.76463e-10 0)
(-1 4.19658e-11 0)
(-1 -9.86376e-12 0)
(-1 2.41278e-12 0)
(-1 -5.15848e-13 0)
(-1 1.65107e-13 0)
(-1 -7.06626e-15 0)
(-1 2.56283e-14 0)
(-1 1.17709e-14 0)
(-1 1.07066e-14 0)
(-1 7.81782e-15 0)
(-1 5.96459e-15 0)
(-1 4.25611e-15 0)
(-1 2.90283e-15 0)
(-1 1.85787e-15 0)
(-1 1.03838e-15 0)
(-1 3.57438e-16 0)
(-1 -1.31914e-08 0)
(-1 3.12846e-09 0)
(-1 -7.42038e-10 0)
(-1 1.76065e-10 0)
(-1 -4.16788e-11 0)
(-1 9.95549e-12 0)
(-1 -2.3018e-12 0)
(-1 5.93927e-13 0)
(-1 -1.0272e-13 0)
(-1 5.42107e-14 0)
(-1 1.03254e-14 0)
(-1 1.53324e-14 0)
(-1 9.85176e-15 0)
(-1 7.92658e-15 0)
(-1 5.91488e-15 0)
(-1 4.32767e-15 0)
(-1 2.97947e-15 0)
(-1 1.84815e-15 0)
(-1 1.03361e-15 0)
(-1 3.47718e-16 0)
(-1 1.31542e-08 0)
(-1 -3.1194e-09 0)
(-1 7.39976e-10 0)
(-1 -1.75441e-10 0)
(-1 4.16615e-11 0)
(-1 -9.82942e-12 0)
(-1 2.37686e-12 0)
(-1 -5.24727e-13 0)
(-1 1.5649e-13 0)
(-1 -1.12142e-14 0)
(-1 2.33799e-14 0)
(-1 1.08071e-14 0)
(-1 9.98761e-15 0)
(-1 7.17234e-15 0)
(-1 5.57718e-15 0)
(-1 4.16725e-15 0)
(-1 2.95191e-15 0)
(-1 1.87109e-15 0)
(-1 1.08216e-15 0)
(-1 3.21854e-16 0)
(-1 -1.31221e-08 0)
(-1 3.11188e-09 0)
(-1 -7.38112e-10 0)
(-1 1.7509e-10 0)
(-1 -4.14849e-11 0)
(-1 9.87703e-12 0)
(-1 -2.30806e-12 0)
(-1 5.77441e-13 0)
(-1 -1.11328e-13 0)
(-1 4.76214e-14 0)
(-1 5.88656e-15 0)
(-1 1.23994e-14 0)
(-1 8.00901e-15 0)
(-1 6.61829e-15 0)
(-1 4.88206e-15 0)
(-1 3.69837e-15 0)
(-1 2.73159e-15 0)
(-1 1.80299e-15 0)
(-1 1.00225e-15 0)
(-1 2.88741e-16 0)
(-1 1.30918e-08 0)
(-1 -3.10482e-09 0)
(-1 7.36489e-10 0)
(-1 -1.74652e-10 0)
(-1 4.14472e-11 0)
(-1 -9.80527e-12 0)
(-1 2.34939e-12 0)
(-1 -5.35661e-13 0)
(-1 1.45959e-13 0)
(-1 -1.8524e-14 0)
(-1 1.76838e-14 0)
(-1 6.64734e-15 0)
(-1 7.18429e-15 0)
(-1 5.24982e-15 0)
(-1 4.19774e-15 0)
(-1 3.13594e-15 0)
(-1 2.29311e-15 0)
(-1 1.42055e-15 0)
(-1 7.38589e-16 0)
(-1 2.51234e-16 0)
(-1 -1.3066e-08 0)
(-1 3.09892e-09 0)
(-1 -7.35068e-10 0)
(-1 1.74361e-10 0)
(-1 -4.13395e-11 0)
(-1 9.82075e-12 0)
(-1 -2.31452e-12 0)
(-1 5.62613e-13 0)
(-1 -1.21274e-13 0)
(-1 3.94597e-14 0)
(-1 -8.31131e-17 0)
(-1 7.90768e-15 0)
(-1 4.63376e-15 0)
(-1 4.13695e-15 0)
(-1 3.11718e-15 0)
(-1 2.46798e-15 0)
(-1 1.7443e-15 0)
(-1 1.04764e-15 0)
(-1 6.00116e-16 0)
(-1 2.6107e-16 0)
(-1 1.30425e-08 0)
(-1 -3.09351e-09 0)
(-1 7.3381e-10 0)
(-1 -1.74051e-10 0)
(-1 4.12885e-11 0)
(-1 -9.78781e-12 0)
(-1 2.32782e-12 0)
(-1 -5.45967e-13 0)
(-1 1.35294e-13 0)
(-1 -2.67056e-14 0)
(-1 1.13478e-14 0)
(-1 1.86392e-15 0)
(-1 3.55442e-15 0)
(-1 2.53789e-15 0)
(-1 2.16315e-15 0)
(-1 1.6913e-15 0)
(-1 1.25783e-15 0)
(-1 7.51689e-16 0)
(-1 4.61742e-16 0)
(-1 1.44472e-16 0)
(-1 -1.30217e-08 0)
(-1 3.08876e-09 0)
(-1 -7.32689e-10 0)
(-1 1.73792e-10 0)
(-1 -4.12272e-11 0)
(-1 9.77615e-12 0)
(-1 -2.32145e-12 0)
(-1 5.49173e-13 0)
(-1 -1.30773e-13 0)
(-1 3.13166e-14 0)
(-1 -6.47604e-15 0)
(-1 2.81613e-15 0)
(-1 7.82416e-16 0)
(-1 1.25723e-15 0)
(-1 1.19575e-15 0)
(-1 1.04569e-15 0)
(-1 7.67013e-16 0)
(-1 4.84128e-16 0)
(-1 2.63786e-16 0)
(-1 3.98008e-17 0)
(-1 1.30029e-08 0)
(-1 -3.08442e-09 0)
(-1 7.31652e-10 0)
(-1 -1.73567e-10 0)
(-1 4.11566e-11 0)
(-1 -9.77638e-12 0)
(-1 2.30768e-12 0)
(-1 -5.56257e-13 0)
(-1 1.25558e-13 0)
(-1 -3.41476e-14 0)
(-1 5.32797e-15 0)
(-1 -2.79181e-15 0)
(-1 5.14006e-17 0)
(-1 -1.2732e-16 0)
(-1 1.32537e-16 0)
(-1 2.78903e-16 0)
(-1 2.88528e-16 0)
(-1 2.1986e-16 0)
(-1 7.92682e-17 0)
(-1 -1.96474e-18 0)
(-1 -1.29852e-08 0)
(-1 3.08027e-09 0)
(-1 -7.30703e-10 0)
(-1 1.73305e-10 0)
(-1 -4.11367e-11 0)
(-1 9.73383e-12 0)
(-1 -2.32957e-12 0)
(-1 5.36361e-13 0)
(-1 -1.39305e-13 0)
(-1 2.44713e-14 0)
(-1 -1.18327e-14 0)
(-1 -1.32698e-15 0)
(-1 -2.44943e-15 0)
(-1 -1.07129e-15 0)
(-1 -6.78978e-16 0)
(-1 -2.59033e-16 0)
(-1 -1.07534e-16 0)
(-1 -1.21688e-16 0)
(-1 -1.0965e-16 0)
(-1 -7.05321e-17 0)
(-1 1.29693e-08 0)
(-1 -3.07655e-09 0)
(-1 7.29761e-10 0)
(-1 -1.73151e-10 0)
(-1 4.10303e-11 0)
(-1 -9.77046e-12 0)
(-1 2.28714e-12 0)
(-1 -5.66065e-13 0)
(-1 1.16894e-13 0)
(-1 -4.01361e-14 0)
(-1 7.68993e-16 0)
(-1 -6.31018e-15 0)
(-1 -2.71454e-15 0)
(-1 -1.99331e-15 0)
(-1 -1.07024e-15 0)
(-1 -7.10518e-16 0)
(-1 -4.53987e-16 0)
(-1 -4.55543e-16 0)
(-1 -2.81857e-16 0)
(-1 -1.06227e-16 0)
(-1 -1.2953e-08 0)
(-1 3.07265e-09 0)
(-1 -7.28939e-10 0)
(-1 1.72845e-10 0)
(-1 -4.1065e-11 0)
(-1 9.68892e-12 0)
(-1 -2.339e-12 0)
(-1 5.24838e-13 0)
(-1 -1.46213e-13 0)
(-1 1.92839e-14 0)
(-1 -1.52507e-14 0)
(-1 -3.5747e-15 0)
(-1 -3.8246e-15 0)
(-1 -2.13219e-15 0)
(-1 -1.51992e-15 0)
(-1 -1.10795e-15 0)
(-1 -8.15633e-16 0)
(-1 -5.98617e-16 0)
(-1 -3.65263e-16 0)
(-1 -1.10916e-16 0)
(-1 1.29395e-08 0)
(-1 -3.06946e-09 0)
(-1 7.2799e-10 0)
(-1 -1.72793e-10 0)
(-1 4.08926e-11 0)
(-1 -9.76947e-12 0)
(-1 2.26747e-12 0)
(-1 -5.72352e-13 0)
(-1 1.11874e-13 0)
(-1 -4.28519e-14 0)
(-1 -8.98497e-16 0)
(-1 -7.21005e-15 0)
(-1 -3.21421e-15 0)
(-1 -2.59333e-15 0)
(-1 -1.60103e-15 0)
(-1 -1.04465e-15 0)
(-1 -8.14945e-16 0)
(-1 -5.84522e-16 0)
(-1 -3.19942e-16 0)
(-1 -1.10251e-16 0)
(-1 -1.2924e-08 0)
(-1 3.0657e-09 0)
(-1 -7.27511e-10 0)
(-1 1.72393e-10 0)
(-1 -4.10319e-11 0)
(-1 9.65164e-12 0)
(-1 -2.34345e-12 0)
(-1 5.22051e-13 0)
(-1 -1.46215e-13 0)
(-1 1.99408e-14 0)
(-1 -1.46958e-14 0)
(-1 -3.2375e-15 0)
(-1 -3.74106e-15 0)
(-1 -2.10687e-15 0)
(-1 -1.46427e-15 0)
(-1 -9.38877e-16 0)
(-1 -6.94152e-16 0)
(-1 -4.39571e-16 0)
(-1 -1.98985e-16 0)
(-1 -3.69733e-17 0)
(-1 1.29145e-08 0)
(-1 -3.06382e-09 0)
(-1 7.25962e-10 0)
(-1 -1.72381e-10 0)
(-1 4.07105e-11 0)
(-1 -9.72114e-12 0)
(-1 2.25915e-12 0)
(-1 -5.60456e-13 0)
(-1 1.16518e-13 0)
(-1 -3.79713e-14 0)
(-1 2.03152e-15 0)
(-1 -5.18761e-15 0)
(-1 -1.97927e-15 0)
(-1 -1.58681e-15 0)
(-1 -9.50177e-16 0)
(-1 -7.15618e-16 0)
(-1 -4.40897e-16 0)
(-1 -2.68132e-16 0)
(-1 -1.40453e-16 0)
(-1 -2.7448e-17 0)
(-1 -1.29019e-08 0)
(-1 3.06037e-09 0)
(-1 -7.26689e-10 0)
(-1 1.72335e-10 0)
(-1 -4.09823e-11 0)
(-1 9.70202e-12 0)
(-1 -2.32149e-12 0)
(-1 5.422e-13 0)
(-1 -1.3477e-13 0)
(-1 2.83041e-14 0)
(-1 -9.22543e-15 0)
(-1 4.62349e-16 0)
(-1 -1.33969e-15 0)
(-1 -4.42417e-16 0)
(-1 -3.27444e-16 0)
(-1 -1.97486e-16 0)
(-1 -1.10596e-16 0)
(-1 -1.15091e-16 0)
(-1 -8.17539e-17 0)
(-1 -5.42616e-17 0)
)
;

boundaryField
{
    movingWall
    {
        type            fixedValue;
        value           uniform (-1 -0 -0);
    }
    fixedWalls
    {
        type            noSlip;
    }
    frontAndBack
    {
        type            empty;
    }
}


// ************************************************************************* //
