/*--------------------------------*- C++ -*----------------------------------*\
| =========                 |                                                 |
| \\      /  F ield         | OpenFOAM: The Open Source CFD Toolbox           |
|  \\    /   O peration     | Version:  2312                                  |
|   \\  /    A nd           | Website:  www.openfoam.com                      |
|    \\/     M anipulation  |                                                 |
\*---------------------------------------------------------------------------*/
FoamFile
{
    version     2.0;
    format      ascii;
    arch        "LSB;label=32;scalar=64";
    class       volVectorField;
    location    "4.5";
    object      UMean;
}
// * * * * * * * * * * * * * * * * * * * * * * * * * * * * * * * * * * * * * //

dimensions      [0 1 -1 0 0 0 0];

internalField   nonuniform List<vector> 
400
(
(-0.444548 8.32364e-05 0)
(-0.445225 0.000375992 0)
(-0.446484 0.000565585 0)
(-0.447937 0.000660858 0)
(-0.44954 0.000748727 0)
(-0.451334 0.00086486 0)
(-0.453372 0.00101714 0)
(-0.45567 0.00118051 0)
(-0.458128 0.00126792 0)
(-0.460501 0.00118972 0)
(-0.462426 0.000899811 0)
(-0.463527 0.000414265 0)
(-0.463508 -0.000247041 0)
(-0.462126 -0.000951016 0)
(-0.459411 -0.00160272 0)
(-0.455672 -0.00203121 0)
(-0.451469 -0.00204243 0)
(-0.447463 -0.00149108 0)
(-0.4448 -0.000599759 0)
(-0.444163 0.000146426 0)
(-0.444909 0.000817836 0)
(-0.446261 0.00175798 0)
(-0.448112 0.00227137 0)
(-0.450183 0.00253797 0)
(-0.452415 0.00279778 0)
(-0.454849 0.00312716 0)
(-0.457517 0.00347719 0)
(-0.460357 0.00372106 0)
(-0.463216 0.00369405 0)
(-0.465858 0.00324796 0)
(-0.467986 0.0023075 0)
(-0.469278 0.000885168 0)
(-0.469423 -0.000929764 0)
(-0.4682 -0.00294169 0)
(-0.465481 -0.00483676 0)
(-0.461397 -0.00616797 0)
(-0.456366 -0.00644705 0)
(-0.451059 -0.00523729 0)
(-0.446447 -0.00272523 0)
(-0.44444 -0.00015582 0)
(-0.445253 0.00226888 0)
(-0.446995 0.00364394 0)
(-0.449066 0.00438991 0)
(-0.451385 0.00485517 0)
(-0.4539 0.00532305 0)
(-0.456638 0.00587195 0)
(-0.459617 0.00640494 0)
(-0.46279 0.00672627 0)
(-0.46602 0.00659983 0)
(-0.46909 0.00581879 0)
(-0.471706 0.00425524 0)
(-0.473526 0.00187902 0)
(-0.474221 -0.00119435 0)
(-0.473552 -0.00470809 0)
(-0.471351 -0.00822109 0)
(-0.46749 -0.0110542 0)
(-0.462054 -0.0123114 0)
(-0.455508 -0.0110407 0)
(-0.448874 -0.00688309 0)
(-0.444769 -0.00160799 0)
(-0.445451 0.00406042 0)
(-0.447426 0.00572735 0)
(-0.449606 0.00664413 0)
(-0.452008 0.00731577 0)
(-0.454619 0.00801887 0)
(-0.45749 0.00881926 0)
(-0.46066 0.00958963 0)
(-0.464092 0.0100651 0)
(-0.467653 0.00992014 0)
(-0.471104 0.00885911 0)
(-0.47413 0.00669361 0)
(-0.476386 0.00339149 0)
(-0.477573 -0.000915156 0)
(-0.477462 -0.00590869 0)
(-0.47592 -0.0110942 0)
(-0.472753 -0.0157603 0)
(-0.467692 -0.0187878 0)
(-0.460643 -0.0185939 0)
(-0.452344 -0.0136036 0)
(-0.445575 -0.00440179 0)
(-0.44552 0.00603296 0)
(-0.447582 0.00792877 0)
(-0.449763 0.00895917 0)
(-0.452134 0.00981084 0)
(-0.454717 0.0107597 0)
(-0.457584 0.0118577 0)
(-0.460789 0.0129287 0)
(-0.464304 0.0136223 0)
(-0.467979 0.0135044 0)
(-0.471538 0.0121832 0)
(-0.474647 0.00943703 0)
(-0.477011 0.00527547 0)
(-0.478413 -0.000112045 0)
(-0.478714 -0.00635827 0)
(-0.477774 -0.0129879 0)
(-0.475511 -0.0194095 0)
(-0.471496 -0.024617 0)
(-0.465036 -0.0266963 0)
(-0.456083 -0.0225713 0)
(-0.447241 -0.00989976 0)
(-0.445483 0.00802793 0)
(-0.447502 0.0101174 0)
(-0.449588 0.0112261 0)
(-0.451826 0.0122384 0)
(-0.454257 0.0134337 0)
(-0.456956 0.0148446 0)
(-0.459991 0.0162363 0)
(-0.463334 0.0171599 0)
(-0.466833 0.0170605 0)
(-0.470232 0.0154715 0)
(-0.473263 0.0121788 0)
(-0.475697 0.00724186 0)
(-0.477309 0.000922921 0)
(-0.477894 -0.00640497 0)
(-0.477356 -0.0142178 0)
(-0.47572 -0.0220038 0)
(-0.472767 -0.0291294 0)
(-0.467574 -0.0340334 0)
(-0.459051 -0.0326376 0)
(-0.449013 -0.0182106 0)
(-0.445372 0.00991314 0)
(-0.447238 0.0121808 0)
(-0.449141 0.0133427 0)
(-0.45115 0.0144787 0)
(-0.453303 0.0158815 0)
(-0.455662 0.0175715 0)
(-0.458297 0.0192515 0)
(-0.461203 0.0203861 0)
(-0.464277 0.0203319 0)
(-0.467357 0.0185791 0)
(-0.470284 0.0149093 0)
(-0.472848 0.00936399 0)
(-0.474749 0.00218351 0)
(-0.475668 -0.0061954 0)
(-0.475482 -0.0151434 0)
(-0.474256 -0.0240329 0)
(-0.472018 -0.0325439 0)
(-0.468122 -0.0399538 0)
(-0.460715 -0.0423994 0)
(-0.450371 -0.0288152 0)
(-0.445214 0.0115793 0)
(-0.446842 0.014027 0)
(-0.448492 0.0152149 0)
(-0.450189 0.0164181 0)
(-0.451954 0.017949 0)
(-0.453823 0.0198285 0)
(-0.455848 0.0217212 0)
(-0.458076 0.0230682 0)
(-0.460502 0.0231547 0)
(-0.463088 0.0214165 0)
(-0.465786 0.0176141 0)
(-0.468413 0.0116877 0)
(-0.470594 0.00377774 0)
(-0.471961 -0.00562474 0)
(-0.472281 -0.0157114 0)
(-0.471587 -0.0256444 0)
(-0.469975 -0.0352427 0)
(-0.46718 -0.0445389 0)
(-0.461137 -0.0510655 0)
(-0.45115 -0.0407154 0)
(-0.44503 0.012952 0)
(-0.446363 0.015584 0)
(-0.447709 0.0167715 0)
(-0.449045 0.0179732 0)
(-0.450349 0.0195269 0)
(-0.451624 0.0214654 0)
(-0.452905 0.023457 0)
(-0.454277 0.0249709 0)
(-0.455825 0.025286 0)
(-0.45764 0.0238172 0)
(-0.459821 0.0201969 0)
(-0.462264 0.0141737 0)
(-0.46465 0.00577292 0)
(-0.466514 -0.00451054 0)
(-0.467533 -0.0156049 0)
(-0.467678 -0.026562 0)
(-0.466941 -0.0371706 0)
(-0.465249 -0.0479758 0)
(-0.460687 -0.0584178 0)
(-0.4515 -0.0529306 0)
(-0.44484 0.0139916 0)
(-0.445851 0.0168114 0)
(-0.44687 0.0179735 0)
(-0.447825 0.0190989 0)
(-0.448652 0.0205529 0)
(-0.449306 0.0223945 0)
(-0.449803 0.0243532 0)
(-0.450227 0.0259428 0)
(-0.450731 0.0265068 0)
(-0.451499 0.0254249 0)
(-0.452732 0.0222564 0)
(-0.454545 0.0166067 0)
(-0.456832 0.00822844 0)
(-0.459132 -0.00249657 0)
(-0.461111 -0.0143956 0)
(-0.462469 -0.0263625 0)
(-0.462954 -0.0379802 0)
(-0.462577 -0.0502022 0)
(-0.459634 -0.0642757 0)
(-0.451713 -0.0648629 0)
(-0.444664 0.0146941 0)
(-0.445361 0.0176999 0)
(-0.446058 0.0188124 0)
(-0.446646 0.0197935 0)
(-0.447024 0.0210373 0)
(-0.447109 0.0226318 0)
(-0.446887 0.024386 0)
(-0.446411 0.0258863 0)
(-0.445848 0.0265858 0)
(-0.445424 0.0259071 0)
(-0.44544 0.0233736 0)
(-0.446133 0.018504 0)
(-0.44778 0.0107833 0)
(-0.45035 0.000296773 0)
(-0.453367 -0.0119218 0)
(-0.456135 -0.0246459 0)
(-0.458113 -0.0373018 0)
(-0.459293 -0.050909 0)
(-0.458148 -0.0685124 0)
(-0.451941 -0.0762208 0)
(-0.444527 0.0150905 0)
(-0.444948 0.0182735 0)
(-0.445353 0.0193131 0)
(-0.445612 0.0200954 0)
(-0.445602 0.0210439 0)
(-0.445221 0.0222709 0)
(-0.444428 0.0236591 0)
(-0.443245 0.0248851 0)
(-0.44181 0.0255132 0)
(-0.440346 0.0250696 0)
(-0.439165 0.023114 0)
(-0.43862 0.0191893 0)
(-0.439205 0.0128135 0)
(-0.441388 0.00359882 0)
(-0.445042 -0.00814919 0)
(-0.44915 -0.0212254 0)
(-0.4527 -0.0348974 0)
(-0.455545 -0.049865 0)
(-0.456374 -0.0709794 0)
(-0.452239 -0.0869152 0)
(-0.444453 0.0152545 0)
(-0.444666 0.0185808 0)
(-0.444827 0.0195202 0)
(-0.444805 0.020062 0)
(-0.444472 0.0206642 0)
(-0.443736 0.0214604 0)
(-0.442543 0.0223896 0)
(-0.440903 0.0232161 0)
(-0.438921 0.0236082 0)
(-0.436795 0.0231952 0)
(-0.434816 0.0216233 0)
(-0.433363 0.0185565 0)
(-0.432935 0.0135947 0)
(-0.434231 0.0063018 0)
(-0.437584 -0.00384385 0)
(-0.442316 -0.016566 0)
(-0.447168 -0.030785 0)
(-0.451554 -0.046964 0)
(-0.45447 -0.0715401 0)
(-0.452639 -0.0969241 0)
(-0.444468 0.0153299 0)
(-0.444569 0.0187072 0)
(-0.444544 0.0194898 0)
(-0.444281 0.0197493 0)
(-0.443673 0.0199798 0)
(-0.442659 0.0203354 0)
(-0.4412 0.0207936 0)
(-0.439307 0.0211963 0)
(-0.437066 0.0212982 0)
(-0.434648 0.0208203 0)
(-0.432308 0.0195007 0)
(-0.430393 0.0171199 0)
(-0.429306 0.0134236 0)
(-0.429613 0.00793313 0)
(-0.432021 -6.29357e-05 0)
(-0.436435 -0.0113546 0)
(-0.441942 -0.0252802 0)
(-0.447556 -0.0422949 0)
(-0.452488 -0.0699005 0)
(-0.453132 -0.105929 0)
(-0.444609 0.0153268 0)
(-0.444745 0.0186869 0)
(-0.444574 0.0192384 0)
(-0.444084 0.0191713 0)
(-0.443215 0.0190243 0)
(-0.441952 0.0189646 0)
(-0.440286 0.0189967 0)
(-0.438245 0.0190189 0)
(-0.435903 0.0188595 0)
(-0.433405 0.0183167 0)
(-0.430965 0.017203 0)
(-0.428849 0.0153621 0)
(-0.427371 0.0126162 0)
(-0.42693 0.00860948 0)
(-0.428183 0.00261394 0)
(-0.431641 -0.00640894 0)
(-0.437076 -0.0189924 0)
(-0.443511 -0.0362235 0)
(-0.449979 -0.0656304 0)
(-0.453509 -0.113501 0)
(-0.444945 0.0160814 0)
(-0.445209 0.0188556 0)
(-0.444935 0.0188893 0)
(-0.444214 0.0183755 0)
(-0.443066 0.017826 0)
(-0.441537 0.0173817 0)
(-0.439658 0.017053 0)
(-0.437475 0.0167674 0)
(-0.43506 0.0164048 0)
(-0.432531 0.0158234 0)
(-0.430055 0.0148845 0)
(-0.427834 0.0134635 0)
(-0.426109 0.0114292 0)
(-0.425164 0.0085448 0)
(-0.425489 0.00422307 0)
(-0.427712 -0.00253931 0)
(-0.432672 -0.0128758 0)
(-0.438736 -0.02959 0)
(-0.445913 -0.0589049 0)
(-0.453342 -0.120337 0)
(-0.445696 0.0150562 0)
(-0.446491 0.0176779 0)
(-0.445866 0.0175839 0)
(-0.444693 0.0169184 0)
(-0.443132 0.016164 0)
(-0.441251 0.0154743 0)
(-0.439077 0.0149037 0)
(-0.436673 0.0144156 0)
(-0.434105 0.0139272 0)
(-0.431465 0.0133379 0)
(-0.428878 0.0125454 0)
(-0.426494 0.0114517 0)
(-0.424517 0.00997097 0)
(-0.423181 0.00793259 0)
(-0.422872 0.00495744 0)
(-0.423939 9.60559e-05 0)
(-0.428243 -0.00760321 0)
(-0.431877 -0.0235165 0)
(-0.440432 -0.0511211 0)
(-0.452114 -0.128422 0)
(-0.446731 0.0243317 0)
(-0.447567 0.023415 0)
(-0.446291 0.0203323 0)
(-0.444536 0.0176202 0)
(-0.442458 0.0156854 0)
(-0.440036 0.0142548 0)
(-0.437327 0.0131836 0)
(-0.434438 0.0123538 0)
(-0.431448 0.0116475 0)
(-0.428436 0.0109688 0)
(-0.425497 0.0102418 0)
(-0.422774 0.00940771 0)
(-0.420429 0.00839535 0)
(-0.418621 0.00708752 0)
(-0.417751 0.00527707 0)
(-0.417685 0.00205231 0)
(-0.421513 -0.00351564 0)
(-0.419745 -0.017696 0)
(-0.436662 -0.0405631 0)
(-0.446495 -0.13485 0)
(-0.448164 0.00909081 0)
(-0.449612 0.00559841 0)
(-0.445128 0.00579618 0)
(-0.440142 0.00731617 0)
(-0.435 0.00768077 0)
(-0.429994 0.00741552 0)
(-0.425256 0.00708995 0)
(-0.42078 0.00682616 0)
(-0.416529 0.00657903 0)
(-0.412477 0.00630633 0)
(-0.408637 0.00599093 0)
(-0.405052 0.00561659 0)
(-0.401812 0.00516237 0)
(-0.398928 0.00453757 0)
(-0.396895 0.00368317 0)
(-0.394802 0.00190467 0)
(-0.398433 -0.000579157 0)
(-0.391398 -0.00934973 0)
(-0.431432 -0.0210757 0)
(-0.412363 -0.117803 0)
(-0.422268 0.0510714 0)
(-0.410675 0.0373566 0)
(-0.397148 0.0228987 0)
(-0.385707 0.0149614 0)
(-0.377022 0.0108603 0)
(-0.369793 0.00848198 0)
(-0.36325 0.00692842 0)
(-0.357201 0.00583396 0)
(-0.351597 0.00501686 0)
(-0.346387 0.00438428 0)
(-0.341533 0.00387343 0)
(-0.337023 0.00344336 0)
(-0.332908 0.00306538 0)
(-0.329152 0.00270537 0)
(-0.326281 0.00231553 0)
(-0.323071 0.00177239 0)
(-0.326064 0.0011246 0)
(-0.313719 -0.00122194 0)
(-0.380124 0.00315385 0)
(-0.243081 -0.0532533 0)
)
;

boundaryField
{
    movingWall
    {
        type            calculated;
        value           uniform (0.111111 0 0);
    }
    fixedWalls
    {
        type            calculated;
        value           uniform (-0.444444 0 0);
    }
    frontAndBack
    {
        type            empty;
    }
}


// ************************************************************************* //
