/*--------------------------------*- C++ -*----------------------------------*\
| =========                 |                                                 |
| \\      /  F ield         | OpenFOAM: The Open Source CFD Toolbox           |
|  \\    /   O peration     | Version:  2312                                  |
|   \\  /    A nd           | Website:  www.openfoam.com                      |
|    \\/     M anipulation  |                                                 |
\*---------------------------------------------------------------------------*/
FoamFile
{
    version     2.0;
    format      ascii;
    arch        "LSB;label=32;scalar=64";
    class       volSymmTensorField;
    location    "4.5";
    object      UPrime2Mean;
}
// * * * * * * * * * * * * * * * * * * * * * * * * * * * * * * * * * * * * * //

dimensions      [0 2 -2 0 0 0 0];

internalField   nonuniform List<symmTensor> 
400
(
(0.246826 3.66199e-05 0 2.21072e-08 0 0)
(0.24622 0.000166824 0 1.73396e-07 0 0)
(0.245107 0.00024991 0 3.96828e-07 0 0)
(0.243826 0.000290711 0 5.55277e-07 0 0)
(0.242421 0.000327452 0 7.82437e-07 0 0)
(0.24086 0.000375199 0 1.25619e-06 0 0)
(0.239104 0.000436062 0 2.22249e-06 0 0)
(0.237152 0.000497364 0 3.86109e-06 0 0)
(0.235104 0.000522337 0 5.33968e-06 0 0)
(0.233172 0.000478103 0 5.31165e-06 0 0)
(0.231642 0.000352643 0 3.45215e-06 0 0)
(0.230791 0.000156454 0 1.09123e-06 0 0)
(0.230831 -0.000106387 0 1.83062e-07 0 0)
(0.231953 -0.000388076 0 1.8011e-06 0 0)
(0.234155 -0.000657879 0 5.71941e-06 0 0)
(0.237237 -0.000849053 0 9.77595e-06 0 0)
(0.240783 -0.000874294 0 1.01228e-05 0 0)
(0.244247 -0.000653756 0 5.03518e-06 0 0)
(0.246598 -0.000266525 0 5.31607e-07 0 0)
(0.247165 6.55906e-05 0 3.27903e-07 0 0)
(0.246506 0.00036265 0 8.37585e-07 0 0)
(0.245303 0.000776788 0 4.40413e-06 0 0)
(0.243675 0.000996807 0 7.65442e-06 0 0)
(0.241867 0.00110492 0 9.93234e-06 0 0)
(0.239937 0.00120569 0 1.32608e-05 0 0)
(0.237858 0.00132895 0 1.96887e-05 0 0)
(0.235616 0.00144944 0 2.98345e-05 0 0)
(0.233283 0.00151352 0 4.05632e-05 0 0)
(0.230991 0.00146127 0 4.52057e-05 0 0)
(0.228928 0.00124835 0 3.85474e-05 0 0)
(0.227308 0.000860054 0 2.25076e-05 0 0)
(0.226353 0.000307654 0 6.24451e-06 0 0)
(0.226278 -0.000381026 0 1.86133e-06 0 0)
(0.227251 -0.00114824 0 1.86259e-05 0 0)
(0.229384 -0.00189577 0 5.62729e-05 0 0)
(0.232627 -0.00246609 0 9.79182e-05 0 0)
(0.236715 -0.00265452 0 0.000112409 0 0)
(0.241157 -0.00223259 0 7.39562e-05 0 0)
(0.245143 -0.00119943 0 1.61646e-05 0 0)
(0.246918 -6.83324e-05 0 1.42159e-06 0 0)
(0.246201 0.00100466 0 7.22684e-06 0 0)
(0.244657 0.00160488 0 2.08428e-05 0 0)
(0.242844 0.00191698 0 3.15714e-05 0 0)
(0.240832 0.00209878 0 4.0398e-05 0 0)
(0.238677 0.00227105 0 5.36031e-05 0 0)
(0.236368 0.00246106 0 7.64277e-05 0 0)
(0.233907 0.00262249 0 0.000107484 0 0)
(0.231349 0.00267766 0 0.000135336 0 0)
(0.228812 0.00254831 0 0.00014261 0 0)
(0.226459 0.00217872 0 0.000118879 0 0)
(0.224495 0.00154324 0 7.06929e-05 0 0)
(0.223152 0.000641738 0 2.12966e-05 0 0)
(0.222658 -0.000491066 0 3.67608e-06 0 0)
(0.22319 -0.00178446 0 4.6873e-05 0 0)
(0.224892 -0.00310603 0 0.000160925 0 0)
(0.227891 -0.00423651 0 0.000315355 0 0)
(0.232181 -0.00485082 0 0.000421256 0 0)
(0.237482 -0.00452753 0 0.000360416 0 0)
(0.243053 -0.00295826 0 0.000136504 0 0)
(0.246626 -0.000713002 0 4.67003e-06 0 0)
(0.246025 0.0017968 0 2.50178e-05 0 0)
(0.244279 0.00251687 0 5.41154e-05 0 0)
(0.242375 0.00289231 0 7.6247e-05 0 0)
(0.240299 0.0031491 0 9.76425e-05 0 0)
(0.238073 0.00340195 0 0.0001298 0 0)
(0.235666 0.00366967 0 0.000180856 0 0)
(0.233066 0.00389306 0 0.00024512 0 0)
(0.230315 0.00397187 0 0.000297419 0 0)
(0.227523 0.00380198 0 0.000304835 0 0)
(0.224867 0.003303 0 0.000250894 0 0)
(0.22257 0.00243111 0 0.000151148 0 0)
(0.220871 0.00118507 0 5.00024e-05 0 0)
(0.219983 -0.000395511 0 5.45265e-06 0 0)
(0.220077 -0.00222099 0 7.06552e-05 0 0)
(0.221273 -0.00414227 0 0.000271905 0 0)
(0.223739 -0.00592969 0 0.000588112 0 0)
(0.227715 -0.00720268 0 0.000906532 0 0)
(0.233333 -0.0073718 0 0.000981887 0 0)
(0.240143 -0.00566812 0 0.000577977 0 0)
(0.245919 -0.00193367 0 5.31624e-05 0 0)
(0.245962 0.00266869 0 5.79856e-05 0 0)
(0.244142 0.00348114 0 0.000106809 0 0)
(0.242238 0.00389605 0 0.00014273 0 0)
(0.24019 0.00421864 0 0.00018162 0 0)
(0.237987 0.00456027 0 0.000241171 0 0)
(0.235583 0.0049319 0 0.000331794 0 0)
(0.232944 0.00525501 0 0.000438871 0 0)
(0.230106 0.00539927 0 0.000518149 0 0)
(0.227189 0.00522302 0 0.000519207 0 0)
(0.224399 0.0046107 0 0.000422528 0 0)
(0.221984 0.0035031 0 0.000258504 0 0)
(0.220161 0.00191029 0 9.52669e-05 0 0)
(0.219087 -0.00010505 0 1.19811e-05 0 0)
(0.218863 -0.00242717 0 7.96281e-05 0 0)
(0.219603 -0.00491012 0 0.000339946 0 0)
(0.221389 -0.00735866 0 0.000794955 0 0)
(0.224577 -0.00942891 0 0.00137162 0 0)
(0.229744 -0.010451 0 0.00180388 0 0)
(0.237036 -0.00920384 0 0.00150719 0 0)
(0.244479 -0.00426964 0 0.000347387 0 0)
(0.245988 0.00355261 0 0.000105483 0 0)
(0.244213 0.00444355 0 0.000176065 0 0)
(0.242388 0.00488689 0 0.000226449 0 0)
(0.240449 0.00527275 0 0.000285948 0 0)
(0.238366 0.00571324 0 0.000378346 0 0)
(0.236086 0.00621137 0 0.000514191 0 0)
(0.23356 0.00666531 0 0.000666115 0 0)
(0.230816 0.00690503 0 0.000768622 0 0)
(0.227982 0.00673749 0 0.000755077 0 0)
(0.225257 0.00600943 0 0.000610001 0 0)
(0.222854 0.00465639 0 0.000383226 0 0)
(0.220949 0.00270984 0 0.000161309 0 0)
(0.219712 0.00027256 0 3.7553e-05 0 0)
(0.219285 -0.00252337 0 9.35498e-05 0 0)
(0.219734 -0.00550724 0 0.000383093 0 0)
(0.221042 -0.0085135 0 0.00092139 0 0)
(0.223395 -0.011333 0 0.00168936 0 0)
(0.227571 -0.0134184 0 0.0025441 0 0)
(0.234534 -0.0132468 0 0.0027915 0 0)
(0.242952 -0.00776769 0 0.00114629 0 0)
(0.246082 0.00438974 0 0.000162021 0 0)
(0.244444 0.00535749 0 0.000254467 0 0)
(0.242772 0.00582407 0 0.000318016 0 0)
(0.241025 0.00626585 0 0.000397077 0 0)
(0.239167 0.00680229 0 0.000520474 0 0)
(0.23715 0.00743377 0 0.000698028 0 0)
(0.234921 0.00803206 0 0.000888438 0 0)
(0.232489 0.00838509 0 0.00100838 0 0)
(0.229941 0.00824985 0 0.000981839 0 0)
(0.227417 0.00743966 0 0.000801099 0 0)
(0.225052 0.00588174 0 0.000528794 0 0)
(0.223021 0.00361038 0 0.000259525 0 0)
(0.221557 0.000737744 0 9.61948e-05 0 0)
(0.220895 -0.00255947 0 0.000133164 0 0)
(0.221107 -0.00605289 0 0.000433871 0 0)
(0.222124 -0.0095337 0 0.00101681 0 0)
(0.223909 -0.0129258 0 0.00189217 0 0)
(0.227022 -0.0160081 0 0.00305996 0 0)
(0.233085 -0.0173457 0 0.00406754 0 0)
(0.241775 -0.0122718 0 0.00256051 0 0)
(0.246223 0.00513303 0 0.000218763 0 0)
(0.244791 0.00618294 0 0.000331849 0 0)
(0.243337 0.0066673 0 0.000405075 0 0)
(0.241851 0.00714898 0 0.000497849 0 0)
(0.240315 0.00776049 0 0.000642307 0 0)
(0.238696 0.00850615 0 0.000847761 0 0)
(0.236954 0.00924139 0 0.00106362 0 0)
(0.235051 0.00973025 0 0.00120087 0 0)
(0.232996 0.00967848 0 0.00117592 0 0)
(0.23083 0.00885799 0 0.00098255 0 0)
(0.228606 0.007181 0 0.000689707 0 0)
(0.226489 0.00464847 0 0.000390894 0 0)
(0.22479 0.00135152 0 0.000194288 0 0)
(0.223793 -0.00248447 0 0.000207959 0 0)
(0.223644 -0.00652389 0 0.000501737 0 0)
(0.224274 -0.010464 0 0.00110017 0 0)
(0.225578 -0.0143041 0 0.00203278 0 0)
(0.227769 -0.0181565 0 0.00338624 0 0)
(0.232684 -0.0211592 0 0.00510326 0 0)
(0.241092 -0.0174165 0 0.00441409 0 0)
(0.246387 0.00574768 0 0.000266266 0 0)
(0.245213 0.00688735 0 0.000397595 0 0)
(0.244022 0.00738262 0 0.000475837 0 0)
(0.242847 0.00788033 0 0.000573452 0 0)
(0.241701 0.00852948 0 0.00072387 0 0)
(0.240586 0.00934492 0 0.000936272 0 0)
(0.239469 0.0101817 0 0.00115929 0 0)
(0.23828 0.0108031 0 0.00130898 0 0)
(0.236948 0.0108889 0 0.00130134 0 0)
(0.235401 0.0101798 0 0.00112899 0 0)
(0.233569 0.00852031 0 0.000849115 0 0)
(0.231561 0.00583014 0 0.000543417 0 0)
(0.229666 0.0021666 0 0.000326489 0 0)
(0.228266 -0.00220288 0 0.000313555 0 0)
(0.22757 -0.00678032 0 0.000574399 0 0)
(0.227539 -0.0111845 0 0.00114996 0 0)
(0.228145 -0.0154258 0 0.00210258 0 0)
(0.229411 -0.0198759 0 0.00357081 0 0)
(0.233052 -0.0245109 0 0.00586439 0 0)
(0.240779 -0.0227837 0 0.00640363 0 0)
(0.246556 0.00621578 0 0.000297451 0 0)
(0.245666 0.00744984 0 0.000443607 0 0)
(0.244761 0.00794794 0 0.00052228 0 0)
(0.243919 0.00843101 0 0.000614991 0 0)
(0.24319 0.00906537 0 0.000754408 0 0)
(0.242617 0.00988252 0 0.000950375 0 0)
(0.242189 0.0107637 0 0.00116152 0 0)
(0.241832 0.0114832 0 0.00131275 0 0)
(0.241414 0.0117293 0 0.00132918 0 0)
(0.240772 0.0112065 0 0.00119545 0 0)
(0.239737 0.00971008 0 0.000959617 0 0)
(0.238229 0.00707688 0 0.000690825 0 0)
(0.236369 0.00324924 0 0.00047747 0 0)
(0.234563 -0.00151162 0 0.000430508 0 0)
(0.233051 -0.00659272 0 0.000625421 0 0)
(0.232 -0.0114844 0 0.00113182 0 0)
(0.231581 -0.0161279 0 0.00206136 0 0)
(0.231729 -0.0211135 0 0.00360917 0 0)
(0.233966 -0.0272581 0 0.00635131 0 0)
(0.240587 -0.0280714 0 0.00831794 0 0)
(0.246712 0.00653354 0 0.00030898 0 0)
(0.246101 0.00786288 0 0.000465881 0 0)
(0.245482 0.00835327 0 0.000541142 0 0)
(0.244964 0.00879019 0 0.000621204 0 0)
(0.244635 0.00935592 0 0.000736718 0 0)
(0.244574 0.0100982 0 0.000897526 0 0)
(0.244798 0.0109342 0 0.00107503 0 0)
(0.245264 0.0116677 0 0.0012087 0 0)
(0.245824 0.0120252 0 0.00123927 0 0)
(0.24627 0.0117144 0 0.00114922 0 0)
(0.246328 0.0104968 0 0.000976898 0 0)
(0.245792 0.00815181 0 0.000778999 0 0)
(0.24444 0.00447511 0 0.000608849 0 0)
(0.242324 -0.000383474 0 0.000532823 0 0)
(0.239841 -0.00579244 0 0.000631869 0 0)
(0.23753 -0.0111231 0 0.00102437 0 0)
(0.2358 -0.0162145 0 0.00188076 0 0)
(0.234598 -0.0217185 0 0.00346256 0 0)
(0.235274 -0.0293098 0 0.00657378 0 0)
(0.24038 -0.0331164 0 0.0100462 0 0)
(0.246834 0.00671471 0 0.000302048 0 0)
(0.24647 0.00813336 0 0.000464966 0 0)
(0.246111 0.00860409 0 0.000534367 0 0)
(0.245889 0.00896668 0 0.000597506 0 0)
(0.245912 0.00941782 0 0.000682681 0 0)
(0.246276 0.0100164 0 0.000798567 0 0)
(0.247029 0.0107131 0 0.000927528 0 0)
(0.248157 0.0113522 0 0.00102642 0 0)
(0.249542 0.0117091 0 0.00105243 0 0)
(0.25097 0.0115326 0 0.000992431 0 0)
(0.252148 0.0105921 0 0.000877003 0 0)
(0.252743 0.00866592 0 0.000756156 0 0)
(0.252305 0.00554472 0 0.000665702 0 0)
(0.25044 0.00112779 0 0.000602137 0 0)
(0.247277 -0.00426659 0 0.000608378 0 0)
(0.243705 -0.00992514 0 0.000848439 0 0)
(0.240551 -0.015521 0 0.00157006 0 0)
(0.237878 -0.0215689 0 0.00311998 0 0)
(0.236838 -0.0305833 0 0.00652825 0 0)
(0.240114 -0.0378558 0 0.0115759 0 0)
(0.246898 0.0067898 0 0.000281808 0 0)
(0.246722 0.00828052 0 0.000445008 0 0)
(0.246584 0.00871627 0 0.000507121 0 0)
(0.246618 0.00898139 0 0.000552445 0 0)
(0.246936 0.00928728 0 0.000607448 0 0)
(0.247628 0.0097002 0 0.000679653 0 0)
(0.248753 0.0101956 0 0.000759014 0 0)
(0.250313 0.0106582 0 0.000818142 0 0)
(0.252217 0.0109144 0 0.000829359 0 0)
(0.254276 0.0107629 0 0.000784225 0 0)
(0.256209 0.0100136 0 0.000706355 0 0)
(0.257645 0.00850007 0 0.000640188 0 0)
(0.258109 0.00604789 0 0.000612888 0 0)
(0.256974 0.00249302 0 0.000603987 0 0)
(0.253987 -0.00229638 0 0.000571788 0 0)
(0.249779 -0.00799782 0 0.00065832 0 0)
(0.245422 -0.0139856 0 0.00118409 0 0)
(0.241364 -0.0205874 0 0.00260736 0 0)
(0.23851 -0.0310114 0 0.00621193 0 0)
(0.239759 -0.0422672 0 0.0129359 0 0)
(0.246884 0.00682414 0 0.000256736 0 0)
(0.246811 0.00834029 0 0.000413162 0 0)
(0.246843 0.00871253 0 0.00046608 0 0)
(0.247097 0.00885754 0 0.00049446 0 0)
(0.247666 0.00900131 0 0.00052352 0 0)
(0.248614 0.00921615 0 0.000560357 0 0)
(0.249986 0.0094931 0 0.000599679 0 0)
(0.25178 0.00975358 0 0.000626262 0 0)
(0.253921 0.00986856 0 0.000623806 0 0)
(0.256249 0.00968641 0 0.000587533 0 0)
(0.258508 0.00906587 0 0.000533141 0 0)
(0.26036 0.00789837 0 0.000492703 0 0)
(0.261413 0.0060758 0 0.000491771 0 0)
(0.261148 0.00339707 0 0.000515707 0 0)
(0.258963 -0.000433636 0 0.00051649 0 0)
(0.254996 -0.00563975 0 0.000506838 0 0)
(0.250024 -0.0117011 0 0.000805922 0 0)
(0.244851 -0.0187786 0 0.0019921 0 0)
(0.240237 -0.0304715 0 0.00560018 0 0)
(0.239325 -0.0462166 0 0.0141059 0 0)
(0.246754 0.00681979 0 0.000231174 0 0)
(0.246657 0.00832687 0 0.000374888 0 0)
(0.246822 0.00859883 0 0.00041633 0 0)
(0.247284 0.00860134 0 0.000429207 0 0)
(0.248092 0.00857739 0 0.000437938 0 0)
(0.249268 0.00860248 0 0.000449417 0 0)
(0.250826 0.00867804 0 0.000461468 0 0)
(0.25275 0.00875243 0 0.000466436 0 0)
(0.254973 0.00873581 0 0.000455857 0 0)
(0.257357 0.00852001 0 0.000427102 0 0)
(0.259688 0.00800527 0 0.000388693 0 0)
(0.261704 0.00711532 0 0.000358939 0 0)
(0.263102 0.00577408 0 0.000357008 0 0)
(0.26351 0.0038292 0 0.000385675 0 0)
(0.262346 0.000954746 0 0.000412259 0 0)
(0.2592 -0.00327861 0 0.000402308 0 0)
(0.254283 -0.00892588 0 0.000509642 0 0)
(0.24838 -0.016284 0 0.00137655 0 0)
(0.242417 -0.0288079 0 0.0046812 0 0)
(0.238994 -0.0495595 0 0.0150182 0 0)
(0.246451 0.00715046 0 0.000233001 0 0)
(0.246247 0.00838959 0 0.000348746 0 0)
(0.246504 0.00843141 0 0.000368922 0 0)
(0.247175 0.00823579 0 0.000364164 0 0)
(0.248236 0.0080316 0 0.000356156 0 0)
(0.249652 0.00788037 0 0.000350208 0 0)
(0.251402 0.00778517 0 0.000345586 0 0)
(0.253447 0.00770888 0 0.00033837 0 0)
(0.255722 0.00758973 0 0.000324372 0 0)
(0.258115 0.00735349 0 0.000301978 0 0)
(0.26046 0.00692833 0 0.000274626 0 0)
(0.262554 0.00625386 0 0.000250776 0 0)
(0.264165 0.00527278 0 0.000241368 0 0)
(0.265028 0.00388294 0 0.000254358 0 0)
(0.264698 0.00181972 0 0.000278527 0 0)
(0.26264 -0.00137189 0 0.00028782 0 0)
(0.258129 -0.00611741 0 0.000314062 0 0)
(0.25258 -0.0134827 0 0.000876899 0 0)
(0.245987 -0.0261307 0 0.00357916 0 0)
(0.239142 -0.0526797 0 0.0158251 0 0)
(0.245772 0.00668521 0 0.000193529 0 0)
(0.245112 0.00783841 0 0.000281954 0 0)
(0.245675 0.00782378 0 0.000294714 0 0)
(0.246747 0.00756291 0 0.000285914 0 0)
(0.248175 0.00726754 0 0.00027222 0 0)
(0.249906 0.00700351 0 0.000258752 0 0)
(0.251917 0.00679363 0 0.000246891 0 0)
(0.254157 0.00661839 0 0.000235194 0 0)
(0.256562 0.00643602 0 0.000221487 0 0)
(0.259045 0.00619546 0 0.000204532 0 0)
(0.261478 0.00584497 0 0.000185139 0 0)
(0.263715 0.00533718 0 0.000166321 0 0)
(0.265552 0.00463379 0 0.000152666 0 0)
(0.266772 0.00365918 0 0.000148729 0 0)
(0.267017 0.00224146 0 0.000155771 0 0)
(0.265989 -5.37226e-05 0 0.000162798 0 0)
(0.262015 -0.00364509 0 0.000186619 0 0)
(0.258716 -0.0108929 0 0.000558597 0 0)
(0.250858 -0.0229879 0 0.00254959 0 0)
(0.240251 -0.0565432 0 0.016878 0 0)
(0.244842 0.0107824 0 0.00049446 0 0)
(0.244157 0.0103504 0 0.000474763 0 0)
(0.245287 0.00902607 0 0.000373837 0 0)
(0.24687 0.00786087 0 0.000292109 0 0)
(0.248751 0.0070404 0 0.000240401 0 0)
(0.250961 0.00644367 0 0.000205673 0 0)
(0.253451 0.00600611 0 0.000181392 0 0)
(0.256126 0.00567304 0 0.00016303 0 0)
(0.258914 0.00538942 0 0.000147266 0 0)
(0.261738 0.00510938 0 0.000132236 0 0)
(0.2645 0.00479612 0 0.000117361 0 0)
(0.267061 0.00442131 0 0.000102995 0 0)
(0.269255 0.00395148 0 8.95912e-05 0 0)
(0.270931 0.0033325 0 7.73292e-05 0 0)
(0.271708 0.0024661 0 6.70229e-05 0 0)
(0.271726 0.000926535 0 5.8335e-05 0 0)
(0.268104 -0.00171419 0 7.82651e-05 0 0)
(0.269817 -0.00840516 0 0.000356298 0 0)
(0.254181 -0.0184063 0 0.00152244 0 0)
(0.245352 -0.0602675 0 0.0171312 0 0)
(0.243625 0.00402526 0 7.3315e-05 0 0)
(0.242343 0.00245998 0 2.76855e-05 0 0)
(0.246315 0.00257724 0 3.0502e-05 0 0)
(0.250773 0.00328634 0 4.9818e-05 0 0)
(0.255423 0.00348965 0 5.63689e-05 0 0)
(0.260003 0.00340769 0 5.41488e-05 0 0)
(0.264389 0.00329435 0 5.07849e-05 0 0)
(0.268578 0.00320519 0 4.80192e-05 0 0)
(0.272599 0.00311979 0 4.53279e-05 0 0)
(0.276467 0.00301797 0 4.2214e-05 0 0)
(0.280163 0.00289087 0 3.86197e-05 0 0)
(0.283636 0.00273008 0 3.4598e-05 0 0)
(0.286792 0.0025247 0 3.01655e-05 0 0)
(0.289612 0.00222948 0 2.45919e-05 0 0)
(0.291602 0.00181062 0 1.78128e-05 0 0)
(0.293645 0.000923597 0 8.48192e-06 0 0)
(0.290086 -0.000338638 0 1.30915e-05 0 0)
(0.296935 -0.0047264 0 0.000131477 0 0)
(0.258836 -0.00970149 0 0.000446507 0 0)
(0.277027 -0.0561564 0 0.0121925 0 0)
(0.267175 0.0236349 0 0.00211498 0 0)
(0.277854 0.0176473 0 0.00118523 0 0)
(0.290846 0.0111001 0 0.000468892 0 0)
(0.302044 0.00741151 0 0.000209571 0 0)
(0.310725 0.00547174 0 0.000114257 0 0)
(0.318059 0.00433386 0 7.13906e-05 0 0)
(0.324786 0.00358543 0 4.851e-05 0 0)
(0.331083 0.00305493 0 3.49013e-05 0 0)
(0.336983 0.00265625 0 2.61395e-05 0 0)
(0.342531 0.00234557 0 2.02003e-05 0 0)
(0.347751 0.00209263 0 1.59465e-05 0 0)
(0.352647 0.00187744 0 1.27405e-05 0 0)
(0.357154 0.00168547 0 1.01976e-05 0 0)
(0.361298 0.00149864 0 7.99448e-06 0 0)
(0.364487 0.00128891 0 5.83791e-06 0 0)
(0.368045 0.000987392 0 3.27445e-06 0 0)
(0.364735 0.000611287 0 1.30072e-06 0 0)
(0.378164 -0.000736973 0 6.90408e-06 0 0)
(0.30785 0.00145985 0 5.52479e-05 0 0)
(0.460368 -0.0324738 0 0.00231037 0 0)
)
;

boundaryField
{
    movingWall
    {
        type            calculated;
        value           uniform (0.987654 0 0 0 0 0);
    }
    fixedWalls
    {
        type            calculated;
        value           uniform (0.246914 0 0 0 0 0);
    }
    frontAndBack
    {
        type            empty;
    }
}


// ************************************************************************* //
