/*--------------------------------*- C++ -*----------------------------------*\
| =========                 |                                                 |
| \\      /  F ield         | OpenFOAM: The Open Source CFD Toolbox           |
|  \\    /   O peration     | Version:  2312                                  |
|   \\  /    A nd           | Website:  www.openfoam.com                      |
|    \\/     M anipulation  |                                                 |
\*---------------------------------------------------------------------------*/
FoamFile
{
    version     2.0;
    format      ascii;
    arch        "LSB;label=32;scalar=64";
    class       volVectorField;
    location    "4.5";
    object      vorticityField;
}
// * * * * * * * * * * * * * * * * * * * * * * * * * * * * * * * * * * * * * //

dimensions      [0 0 -1 0 0 0 0];

internalField   nonuniform List<vector> 
400
(
(0 -0 1.015e-06)
(0 -0 -1.25821e-06)
(0 -0 2.9885e-07)
(0 -0 -7.11787e-08)
(0 -0 1.68587e-08)
(0 -0 -4.05361e-09)
(0 -0 9.4069e-10)
(0 -0 -2.40108e-10)
(0 -0 4.66634e-11)
(0 -0 -1.84314e-11)
(0 -0 -5.92083e-13)
(0 -0 -3.33359e-12)
(0 -0 -1.62898e-12)
(0 -0 -1.23721e-12)
(0 -0 -7.70358e-13)
(0 -0 -4.84092e-13)
(0 -0 -2.9635e-13)
(0 -0 -1.14431e-13)
(0 -0 -7.56809e-14)
(0 -0 -1.47e-14)
(0 -0 -1.00985e-06)
(0 -0 1.25731e-06)
(0 -0 -2.98705e-07)
(0 -0 7.09618e-08)
(0 -0 -1.68585e-08)
(0 -0 4.00487e-09)
(0 -0 -9.51583e-10)
(0 -0 2.25889e-10)
(0 -0 -5.38014e-11)
(0 -0 1.26678e-11)
(0 -0 -3.13391e-12)
(0 -0 6.36075e-13)
(0 -0 -2.3731e-13)
(0 -0 -8.12433e-14)
(0 -0 -1.28261e-13)
(0 -0 -9.59969e-14)
(0 -0 -9.12689e-14)
(0 -0 -1.19933e-13)
(0 -0 -6.23381e-14)
(0 -0 -4.8958e-14)
(0 -0 1.00877e-06)
(0 -0 -1.25383e-06)
(0 -0 2.97568e-07)
(0 -0 -7.06181e-08)
(0 -0 1.67587e-08)
(0 -0 -3.97738e-09)
(0 -0 9.43711e-10)
(0 -0 -2.24118e-10)
(0 -0 5.30556e-11)
(0 -0 -1.2759e-11)
(0 -0 2.84141e-12)
(0 -0 -9.2037e-13)
(0 -0 -3.26244e-14)
(0 -0 -2.07951e-13)
(0 -0 -1.12688e-13)
(0 -0 -1.20797e-13)
(0 -0 -1.44047e-13)
(0 -0 -1.33214e-13)
(0 -0 -1.00249e-13)
(0 -0 -9.18254e-14)
(0 -0 -1.01111e-06)
(0 -0 1.25192e-06)
(0 -0 -2.97047e-07)
(0 -0 7.04777e-08)
(0 -0 -1.67219e-08)
(0 -0 3.96732e-09)
(0 -0 -9.41423e-10)
(0 -0 2.23252e-10)
(0 -0 -5.31509e-11)
(0 -0 1.24618e-11)
(0 -0 -3.09408e-12)
(0 -0 5.96182e-13)
(0 -0 -2.45797e-13)
(0 -0 -6.62036e-15)
(0 -0 -4.72059e-14)
(0 -0 -1.30764e-13)
(0 -0 -1.46636e-13)
(0 -0 -1.14736e-13)
(0 -0 -1.0692e-13)
(0 -0 -1.523e-13)
(0 -0 1.00998e-06)
(0 -0 -1.24856e-06)
(0 -0 2.96203e-07)
(0 -0 -7.02669e-08)
(0 -0 1.66688e-08)
(0 -0 -3.95444e-09)
(0 -0 9.37854e-10)
(0 -0 -2.22762e-10)
(0 -0 5.25858e-11)
(0 -0 -1.27823e-11)
(0 -0 2.75108e-12)
(0 -0 -7.60332e-13)
(0 -0 1.46788e-13)
(0 -0 -9.47356e-14)
(0 -0 -1.39331e-13)
(0 -0 -1.43546e-13)
(0 -0 -1.31404e-13)
(0 -0 -1.32234e-13)
(0 -0 -1.22938e-13)
(0 -0 -1.12477e-13)
(0 -0 -1.00845e-06)
(0 -0 1.24538e-06)
(0 -0 -2.95426e-07)
(0 -0 7.00762e-08)
(0 -0 -1.66227e-08)
(0 -0 3.94279e-09)
(0 -0 -9.35533e-10)
(0 -0 2.2167e-10)
(0 -0 -5.28061e-11)
(0 -0 1.23888e-11)
(0 -0 -3.12889e-12)
(0 -0 4.67631e-13)
(0 -0 -3.88213e-13)
(0 -0 -1.49742e-13)
(0 -0 -2.24365e-13)
(0 -0 -2.66436e-13)
(0 -0 -2.47952e-13)
(0 -0 -1.40376e-13)
(0 -0 -1.50043e-13)
(0 -0 -1.38133e-13)
(0 -0 1.00587e-06)
(0 -0 -1.24191e-06)
(0 -0 2.9459e-07)
(0 -0 -6.98758e-08)
(0 -0 1.6574e-08)
(0 -0 -3.93161e-09)
(0 -0 9.3234e-10)
(0 -0 -2.2136e-10)
(0 -0 5.23271e-11)
(0 -0 -1.25791e-11)
(0 -0 2.82555e-12)
(0 -0 -9.32655e-13)
(0 -0 -6.53219e-14)
(0 -0 -2.24203e-13)
(0 -0 -1.10774e-13)
(0 -0 -1.27002e-13)
(0 -0 -1.483e-13)
(0 -0 -1.5987e-13)
(0 -0 -1.00714e-13)
(0 -0 -1.40402e-13)
(0 -0 -1.00335e-06)
(0 -0 1.23886e-06)
(0 -0 -2.93866e-07)
(0 -0 6.9703e-08)
(0 -0 -1.65334e-08)
(0 -0 3.92139e-09)
(0 -0 -9.30366e-10)
(0 -0 2.20514e-10)
(0 -0 -5.25483e-11)
(0 -0 1.22094e-11)
(0 -0 -3.19694e-12)
(0 -0 5.37505e-13)
(0 -0 -3.0706e-13)
(0 -0 -1.50065e-13)
(0 -0 -1.56467e-13)
(0 -0 -7.95217e-14)
(0 -0 -1.35328e-13)
(0 -0 -1.18723e-13)
(0 -0 -1.51425e-13)
(0 -0 -1.29099e-13)
(0 -0 1.00067e-06)
(0 -0 -1.23592e-06)
(0 -0 2.93169e-07)
(0 -0 -6.95387e-08)
(0 -0 1.6494e-08)
(0 -0 -3.91265e-09)
(0 -0 9.27774e-10)
(0 -0 -2.20343e-10)
(0 -0 5.2066e-11)
(0 -0 -1.26378e-11)
(0 -0 2.73397e-12)
(0 -0 -8.87322e-13)
(0 -0 -5.84366e-14)
(0 -0 -2.44445e-13)
(0 -0 -1.84283e-13)
(0 -0 -1.63357e-13)
(0 -0 -1.17329e-13)
(0 -0 -2.09663e-13)
(0 -0 -1.98247e-13)
(0 -0 -9.89823e-14)
(0 -0 -9.98288e-07)
(0 -0 1.2334e-06)
(0 -0 -2.92577e-07)
(0 -0 6.93987e-08)
(0 -0 -1.64617e-08)
(0 -0 3.90453e-09)
(0 -0 -9.26301e-10)
(0 -0 2.19541e-10)
(0 -0 -5.22611e-11)
(0 -0 1.23088e-11)
(0 -0 -3.07389e-12)
(0 -0 6.07213e-13)
(0 -0 -3.22863e-13)
(0 -0 -9.74482e-14)
(0 -0 -1.12688e-13)
(0 -0 -1.64394e-13)
(0 -0 -1.42034e-13)
(0 -0 -1.14418e-13)
(0 -0 2.65814e-15)
(0 -0 -8.61187e-14)
(0 -0 9.96059e-07)
(0 -0 -1.23109e-06)
(0 -0 2.92032e-07)
(0 -0 -6.92711e-08)
(0 -0 1.64314e-08)
(0 -0 -3.89766e-09)
(0 -0 9.24483e-10)
(0 -0 -2.19469e-10)
(0 -0 5.18719e-11)
(0 -0 -1.24489e-11)
(0 -0 2.91116e-12)
(0 -0 -7.79339e-13)
(0 -0 1.21607e-13)
(0 -0 -1.39128e-13)
(0 -0 -1.38869e-13)
(0 -0 -9.05316e-14)
(0 -0 -1.48171e-13)
(0 -0 -7.96087e-14)
(0 -0 -6.07217e-14)
(0 -0 -6.06214e-14)
(0 -0 -9.94118e-07)
(0 -0 1.22906e-06)
(0 -0 -2.91556e-07)
(0 -0 6.91592e-08)
(0 -0 -1.64053e-08)
(0 -0 3.89134e-09)
(0 -0 -9.23267e-10)
(0 -0 2.18905e-10)
(0 -0 -5.20838e-11)
(0 -0 1.22129e-11)
(0 -0 -3.03978e-12)
(0 -0 5.9032e-13)
(0 -0 -2.64311e-13)
(0 -0 4.13334e-14)
(0 -0 -2.1154e-14)
(0 -0 -4.28737e-14)
(0 -0 -1.10366e-13)
(0 -0 -5.03227e-14)
(0 -0 -4.44327e-14)
(0 -0 -3.03587e-14)
(0 -0 9.92431e-07)
(0 -0 -1.22724e-06)
(0 -0 2.91127e-07)
(0 -0 -6.90583e-08)
(0 -0 1.63813e-08)
(0 -0 -3.88595e-09)
(0 -0 9.21741e-10)
(0 -0 -2.187e-10)
(0 -0 5.18315e-11)
(0 -0 -1.23482e-11)
(0 -0 2.91874e-12)
(0 -0 -6.63182e-13)
(0 -0 1.30924e-13)
(0 -0 -1.00307e-13)
(0 -0 -4.06929e-14)
(0 -0 -3.86111e-14)
(0 -0 4.83058e-14)
(0 -0 -2.0926e-14)
(0 -0 -2.21824e-14)
(0 -0 -3.48354e-14)
(0 -0 -9.90874e-07)
(0 -0 1.22552e-06)
(0 -0 -2.90722e-07)
(0 -0 6.89627e-08)
(0 -0 -1.63588e-08)
(0 -0 3.88057e-09)
(0 -0 -9.20506e-10)
(0 -0 2.18403e-10)
(0 -0 -5.17582e-11)
(0 -0 1.23135e-11)
(0 -0 -2.98641e-12)
(0 -0 6.40176e-13)
(0 -0 -8.28512e-14)
(0 -0 9.573e-14)
(0 -0 -8.98598e-17)
(0 -0 5.71444e-14)
(0 -0 1.37345e-14)
(0 -0 -2.11632e-16)
(0 -0 -4.90945e-14)
(0 -0 1.80182e-14)
(0 -0 9.89639e-07)
(0 -0 -1.22402e-06)
(0 -0 2.90367e-07)
(0 -0 -6.88786e-08)
(0 -0 1.63389e-08)
(0 -0 -3.87578e-09)
(0 -0 9.19464e-10)
(0 -0 -2.18054e-10)
(0 -0 5.1834e-11)
(0 -0 -1.22902e-11)
(0 -0 2.8947e-12)
(0 -0 -7.54929e-13)
(0 -0 1.06426e-13)
(0 -0 -2.53054e-14)
(0 -0 7.40695e-14)
(0 -0 -1.96896e-14)
(0 -0 -2.87126e-14)
(0 -0 -9.89206e-15)
(0 -0 8.91417e-14)
(0 -0 6.59134e-14)
(0 -0 -9.88262e-07)
(0 -0 1.22245e-06)
(0 -0 -2.89994e-07)
(0 -0 6.87899e-08)
(0 -0 -1.63177e-08)
(0 -0 3.87086e-09)
(0 -0 -9.18143e-10)
(0 -0 2.17842e-10)
(0 -0 -5.16667e-11)
(0 -0 1.23102e-11)
(0 -0 -2.80086e-12)
(0 -0 7.90245e-13)
(0 -0 -1.26799e-13)
(0 -0 1.36282e-14)
(0 -0 -1.14417e-13)
(0 -0 -6.50971e-14)
(0 -0 -3.03819e-14)
(0 -0 -9.17307e-15)
(0 -0 -5.44003e-15)
(0 -0 4.7618e-14)
(0 -0 9.87518e-07)
(0 -0 -1.22124e-06)
(0 -0 2.89706e-07)
(0 -0 -6.87211e-08)
(0 -0 1.63013e-08)
(0 -0 -3.86691e-09)
(0 -0 9.17245e-10)
(0 -0 -2.17592e-10)
(0 -0 5.17032e-11)
(0 -0 -1.21989e-11)
(0 -0 2.94077e-12)
(0 -0 -6.38147e-13)
(0 -0 1.90621e-13)
(0 -0 -8.26281e-14)
(0 -0 7.35532e-14)
(0 -0 -2.98114e-14)
(0 -0 -8.19718e-15)
(0 -0 4.95003e-14)
(0 -0 2.0322e-14)
(0 -0 -1.11908e-14)
(0 -0 -9.85929e-07)
(0 -0 1.21969e-06)
(0 -0 -2.89336e-07)
(0 -0 6.86327e-08)
(0 -0 -1.62803e-08)
(0 -0 3.86182e-09)
(0 -0 -9.16103e-10)
(0 -0 2.1723e-10)
(0 -0 -5.15934e-11)
(0 -0 1.22032e-11)
(0 -0 -2.94125e-12)
(0 -0 6.61795e-13)
(0 -0 -1.57988e-13)
(0 -0 3.7944e-14)
(0 -0 8.37916e-15)
(0 -0 -4.30384e-15)
(0 -0 4.99306e-14)
(0 -0 4.95167e-14)
(0 -0 6.73648e-14)
(0 -0 2.35958e-14)
(0 -0 9.87231e-07)
(0 -0 -1.22017e-06)
(0 -0 2.89667e-07)
(0 -0 -6.8763e-08)
(0 -0 1.63235e-08)
(0 -0 -3.87498e-09)
(0 -0 9.19863e-10)
(0 -0 -2.1841e-10)
(0 -0 5.17335e-11)
(0 -0 -1.23702e-11)
(0 -0 2.87179e-12)
(0 -0 -7.53444e-13)
(0 -0 1.70345e-13)
(0 -0 2.1594e-14)
(0 -0 5.80406e-15)
(0 -0 5.09279e-14)
(0 -0 1.76435e-14)
(0 -0 3.00444e-14)
(0 -0 2.40684e-14)
(0 -0 4.38952e-14)
(0 -0 -9.86864e-07)
(0 -0 1.21891e-06)
(0 -0 -2.89387e-07)
(0 -0 6.88277e-08)
(0 -0 -1.63211e-08)
(0 -0 3.90449e-09)
(0 -0 -9.15982e-10)
(0 -0 2.26559e-10)
(0 -0 -4.86791e-11)
(0 -0 1.50753e-11)
(0 -0 -1.3205e-12)
(0 -0 1.84567e-12)
(0 -0 5.60045e-13)
(0 -0 5.34905e-13)
(0 -0 2.95544e-13)
(0 -0 2.1142e-13)
(0 -0 8.95547e-14)
(0 -0 2.88421e-15)
(0 -0 6.08289e-15)
(0 -0 4.07066e-14)
)
;

boundaryField
{
    movingWall
    {
        type            calculated;
        value           nonuniform List<vector> 
20
(
(0 -0 -9.90312e-07)
(0 -0 1.22236e-06)
(0 -0 -2.90818e-07)
(0 -0 6.95004e-08)
(0 -0 -1.64942e-08)
(0 -0 3.9918e-09)
(0 -0 -9.26641e-10)
(0 -0 2.40077e-10)
(0 -0 -4.62826e-11)
(0 -0 1.85053e-11)
(0 -0 3.68858e-13)
(0 -0 3.14225e-12)
(0 -0 1.24179e-12)
(0 -0 9.89403e-13)
(0 -0 5.574e-13)
(0 -0 3.76956e-13)
(0 -0 2.30284e-13)
(0 -0 2.88421e-15)
(0 -0 6.08289e-15)
(0 -0 5.80105e-14)
)
;
    }
    fixedWalls
    {
        type            calculated;
        value           nonuniform List<vector> 
60
(
(0 -0 5.32984e-06)
(0 -0 -5.32435e-06)
(0 -0 5.31384e-06)
(0 -0 -5.30606e-06)
(0 -0 5.29204e-06)
(0 -0 -5.27871e-06)
(0 -0 5.26406e-06)
(0 -0 -5.25117e-06)
(0 -0 5.2387e-06)
(0 -0 -5.22799e-06)
(0 -0 5.21815e-06)
(0 -0 -5.20951e-06)
(0 -0 5.20175e-06)
(0 -0 -5.19445e-06)
(0 -0 5.18809e-06)
(0 -0 -5.18143e-06)
(0 -0 5.1763e-06)
(0 -0 -5.1697e-06)
(0 -0 5.16796e-06)
(0 -0 -5.16348e-06)
(0 -0 -7.93802e-15)
(0 -0 -4.43996e-14)
(0 -0 -8.85261e-14)
(0 -0 -1.45014e-13)
(0 -0 -1.1587e-13)
(0 -0 -1.39087e-13)
(0 -0 -1.28742e-13)
(0 -0 -1.15497e-13)
(0 -0 -1.00494e-13)
(0 -0 -1.04428e-13)
(0 -0 -5.77887e-14)
(0 -0 -1.59203e-14)
(0 -0 -2.63192e-14)
(0 -0 2.82128e-14)
(0 -0 6.95958e-14)
(0 -0 4.43666e-14)
(0 -0 -1.01098e-14)
(0 -0 1.47893e-14)
(0 -0 3.80843e-14)
(0 -0 4.88097e-14)
(0 -0 1.02416e-06)
(0 -0 -1.26297e-06)
(0 -0 3.0062e-07)
(0 -0 -7.20092e-08)
(0 -0 1.70313e-08)
(0 -0 -4.1648e-09)
(0 -0 9.44163e-10)
(0 -0 -2.60278e-10)
(0 -0 4.04135e-11)
(0 -0 -2.48623e-11)
(0 -0 -4.3982e-12)
(0 -0 -6.13439e-12)
(0 -0 -3.54559e-12)
(0 -0 -2.43517e-12)
(0 -0 -1.59283e-12)
(0 -0 -9.38589e-13)
(0 -0 -4.96494e-13)
(0 -0 -1.66343e-13)
(0 -0 -6.58797e-14)
(0 -0 -1.47e-14)
)
;
    }
    frontAndBack
    {
        type            empty;
    }
}


// ************************************************************************* //
