/*--------------------------------*- C++ -*----------------------------------*\
| =========                 |                                                 |
| \\      /  F ield         | OpenFOAM: The Open Source CFD Toolbox           |
|  \\    /   O peration     | Version:  2312                                  |
|   \\  /    A nd           | Website:  www.openfoam.com                      |
|    \\/     M anipulation  |                                                 |
\*---------------------------------------------------------------------------*/
FoamFile
{
    version     2.0;
    format      ascii;
    arch        "LSB;label=32;scalar=64";
    class       volVectorField;
    location    "4.5";
    object      wallShearStress;
}
// * * * * * * * * * * * * * * * * * * * * * * * * * * * * * * * * * * * * * //

dimensions      [0 2 -2 0 0 0 0];

internalField   uniform (0 0 0);

boundaryField
{
    movingWall
    {
        type            calculated;
        value           uniform (0 0 0);
    }
    fixedWalls
    {
        type            calculated;
        value           nonuniform List<vector> 
60
(
(1.05273e-13 -5.33257e-11 0)
(-1.96892e-13 5.33644e-11 0)
(4.65563e-13 -5.32439e-11 0)
(-5.04808e-13 5.30761e-11 0)
(5.1817e-13 -5.2901e-11 0)
(-4.55359e-13 5.27438e-11 0)
(3.98412e-13 -5.25927e-11 0)
(-3.20128e-13 5.24651e-11 0)
(2.65293e-13 -5.23475e-11 0)
(-2.06299e-13 5.22483e-11 0)
(1.73329e-13 -5.21582e-11 0)
(-1.37712e-13 5.20787e-11 0)
(1.24401e-13 -5.2006e-11 0)
(-1.02892e-13 5.19368e-11 0)
(1.00972e-13 -5.18736e-11 0)
(-8.09632e-14 5.18098e-11 0)
(8.67793e-14 -5.17526e-11 0)
(-5.00435e-14 5.16951e-11 0)
(7.69802e-14 -5.16363e-11 0)
(7.36971e-14 5.15807e-11 0)
(-8.72293e-20 -7.93802e-20 0)
(-1.34314e-19 -4.43996e-19 0)
(-1.22516e-19 -8.85261e-19 0)
(-6.82867e-19 -9.08041e-19 0)
(-3.52966e-20 -1.7008e-18 0)
(2.37223e-20 -1.39087e-18 0)
(3.93175e-20 -1.28742e-18 0)
(4.70804e-20 -1.15497e-18 0)
(1.84473e-20 -1.00494e-18 0)
(7.11747e-20 -1.04428e-18 0)
(1.47513e-19 -5.77887e-19 0)
(9.76244e-20 -1.59203e-19 0)
(7.35552e-20 2.78909e-19 0)
(-5.22611e-19 2.82128e-19 0)
(2.69229e-20 1.53857e-19 0)
(2.68265e-21 4.43666e-19 0)
(-4.92955e-20 9.83105e-19 0)
(-2.42368e-18 1.47893e-19 0)
(1.15256e-20 -1.61258e-19 0)
(-6.46592e-19 -5.4004e-20 0)
(-1.00857e-11 -7.10867e-11 0)
(1.25221e-11 1.68862e-11 0)
(-2.96573e-12 -4.0185e-12 0)
(6.99113e-13 9.54495e-13 0)
(-1.66382e-13 -2.28225e-13 0)
(3.85411e-14 5.39325e-14 0)
(-9.54022e-15 -1.31028e-14 0)
(1.94731e-15 2.99137e-15 0)
(-6.58154e-16 -8.00223e-16 0)
(1.59207e-17 1.36735e-16 0)
(-9.99029e-17 -7.01964e-17 0)
(-4.34611e-17 -9.31522e-18 0)
(-3.64865e-17 -1.69073e-17 0)
(-2.18336e-17 -9.53365e-18 0)
(-1.51579e-17 -7.30133e-18 0)
(-8.37768e-18 -6.03356e-18 0)
(-3.91685e-18 -3.52856e-18 0)
(-1.00111e-18 -1.97375e-18 0)
(-2.29381e-19 -1.03956e-18 0)
(1.47e-19 -1.0584e-19 0)
)
;
    }
    frontAndBack
    {
        type            empty;
    }
}


// ************************************************************************* //
