/*--------------------------------*- C++ -*----------------------------------*\
| =========                 |                                                 |
| \\      /  F ield         | OpenFOAM: The Open Source CFD Toolbox           |
|  \\    /   O peration     | Version:  2312                                  |
|   \\  /    A nd           | Website:  www.openfoam.com                      |
|    \\/     M anipulation  |                                                 |
\*---------------------------------------------------------------------------*/
FoamFile
{
    version     2.0;
    format      ascii;
    arch        "LSB;label=32;scalar=64";
    class       volScalarField;
    location    "4.5";
    object      yPlus;
}
// * * * * * * * * * * * * * * * * * * * * * * * * * * * * * * * * * * * * * //

dimensions      [0 0 0 0 0 0 0];

internalField   uniform 0;

boundaryField
{
    movingWall
    {
        type            calculated;
        value           nonuniform List<scalar> 
20
(
0.00179596
0.000874699
0.000426235
0.000207576
0.000101225
4.92623e-05
2.40917e-05
1.16708e-05
5.81751e-06
2.82735e-06
1.74172e-06
1.21473e-06
9.47365e-07
7.52345e-07
5.85644e-07
4.76935e-07
3.76172e-07
1.69625e-07
1.42963e-07
1.75765e-07
)
;
    }
    fixedWalls
    {
        type            calculated;
        value           nonuniform List<scalar> 
60
(
0.00182538
0.00182524
0.00182332
0.00182122
0.00181851
0.00181601
0.00181344
0.00181123
0.00180914
0.00180735
0.00180572
0.00180428
0.00180298
0.00180175
0.00180065
0.00179951
0.00179857
0.0017975
0.00179684
0.00179596
7.04362e-08
1.66583e-07
2.35221e-07
2.80619e-07
2.98931e-07
2.94838e-07
2.83661e-07
2.68673e-07
2.50616e-07
2.55475e-07
1.90047e-07
9.97506e-08
2.21627e-08
1.81337e-07
1.62962e-07
1.66521e-07
1.6602e-07
3.33776e-07
8.28373e-08
1.75765e-07
0.00182538
0.000889437
0.000433628
0.000211197
0.000103097
5.01421e-05
2.45892e-05
1.18791e-05
6.06027e-06
3.15888e-06
2.30044e-06
1.81078e-06
1.52177e-06
1.21299e-06
1.0004e-06
7.65907e-07
5.47974e-07
3.19127e-07
2.05428e-07
7.04362e-08
)
;
    }
    frontAndBack
    {
        type            empty;
    }
}


// ************************************************************************* //
