/*--------------------------------*- C++ -*----------------------------------*\
| =========                 |                                                 |
| \\      /  F ield         | OpenFOAM: The Open Source CFD Toolbox           |
|  \\    /   O peration     | Version:  2312                                  |
|   \\  /    A nd           | Website:  www.openfoam.com                      |
|    \\/     M anipulation  |                                                 |
\*---------------------------------------------------------------------------*/
FoamFile
{
    version     2.0;
    format      ascii;
    arch        "LSB;label=32;scalar=64";
    class       volScalarField;
    location    "200";
    object      k;
}
// * * * * * * * * * * * * * * * * * * * * * * * * * * * * * * * * * * * * * //

dimensions      [0 2 -2 0 0 0 0];

internalField   nonuniform List<scalar> 
12225
(
0.571497
0.987648
1.28116
1.45558
1.54167
1.57743
1.57567
1.56724
1.54714
1.52373
1.50047
1.47801
1.45796
1.43901
1.4234
1.40767
1.39704
1.3823
0.43845
0.49688
0.521948
0.534909
0.542875
0.547416
0.550223
0.552226
0.556074
0.559367
0.565617
0.571046
0.579593
0.586812
0.596788
0.605228
0.615292
0.625143
0.38757
0.417492
0.424187
0.421531
0.415046
0.404957
0.393816
0.382788
0.371958
0.362402
0.353268
0.346086
0.339001
0.334319
0.329129
0.326692
0.323051
0.322333
0.37618
0.384817
0.388124
0.387417
0.385436
0.381133
0.375689
0.369557
0.36312
0.356559
0.350111
0.343801
0.337821
0.332063
0.326779
0.321681
0.317167
0.312722
0.374178
0.375374
0.376397
0.37593
0.374799
0.372506
0.369617
0.366135
0.362485
0.35847
0.354557
0.350371
0.346521
0.342385
0.338793
0.334821
0.331607
0.327848
0.373737
0.372544
0.371997
0.371082
0.369917
0.368266
0.36634
0.364031
0.361641
0.358967
0.356373
0.353537
0.350916
0.348048
0.345521
0.342702
0.340349
0.337627
0.373769
0.371725
0.370231
0.368831
0.367465
0.36594
0.364345
0.362552
0.360734
0.35875
0.356813
0.354731
0.35277
0.350666
0.348748
0.346673
0.344852
0.342831
0.373818
0.371563
0.369621
0.36786
0.366251
0.364663
0.363122
0.361522
0.359945
0.358298
0.356695
0.355026
0.353429
0.351769
0.350213
0.348588
0.347103
0.345524
0.373833
0.371554
0.369458
0.367511
0.365722
0.364025
0.362428
0.360861
0.359355
0.357852
0.356401
0.354943
0.353541
0.35213
0.350785
0.349426
0.348149
0.346843
0.373832
0.37156
0.369425
0.36741
0.36553
0.363752
0.362086
0.360493
0.358981
0.357516
0.356115
0.354748
0.353437
0.352151
0.350919
0.349706
0.348551
0.347405
0.37383
0.371561
0.369417
0.367384
0.365468
0.363653
0.361942
0.360317
0.358779
0.357309
0.355912
0.35457
0.353289
0.352054
0.350872
0.349729
0.348635
0.347575
0.373828
0.371559
0.369412
0.367375
0.365448
0.36362
0.36189
0.360247
0.358691
0.35721
0.355803
0.35446
0.353181
0.351958
0.35079
0.34967
0.348599
0.347571
0.373827
0.371557
0.369407
0.367369
0.365437
0.363603
0.361865
0.360214
0.358646
0.357156
0.35574
0.354391
0.353108
0.351884
0.350716
0.349602
0.348537
0.347521
0.373827
0.371555
0.369403
0.367362
0.365428
0.363591
0.361848
0.360193
0.358619
0.357123
0.3557
0.354346
0.353057
0.351828
0.350657
0.349541
0.348475
0.347459
0.373826
0.371553
0.369399
0.367357
0.36542
0.363581
0.361835
0.360177
0.3586
0.3571
0.355673
0.354315
0.353021
0.351789
0.350614
0.349494
0.348425
0.347406
0.373826
0.371552
0.369396
0.367352
0.365413
0.363572
0.361824
0.360163
0.358584
0.357082
0.355652
0.354291
0.352994
0.351759
0.350581
0.349458
0.348386
0.347364
0.373825
0.371551
0.369395
0.367349
0.365408
0.363566
0.361816
0.360153
0.358571
0.357067
0.355635
0.354272
0.352973
0.351735
0.350555
0.34943
0.348356
0.347331
0.373825
0.371551
0.369393
0.367347
0.365405
0.363561
0.36181
0.360145
0.358563
0.357057
0.355623
0.354258
0.352958
0.351718
0.350536
0.349409
0.348334
0.347308
0.373825
0.371551
0.369393
0.367347
0.365404
0.36356
0.361808
0.360143
0.358559
0.357052
0.355618
0.354252
0.352951
0.35171
0.350528
0.3494
0.348324
0.347297
0.373825
0.371551
0.369394
0.367348
0.365406
0.363562
0.361811
0.360146
0.358562
0.357056
0.355622
0.354256
0.352955
0.351715
0.350532
0.349405
0.348329
0.347302
0.373826
0.371552
0.369396
0.367351
0.36541
0.363567
0.361816
0.360153
0.358571
0.357065
0.355633
0.354269
0.352969
0.35173
0.35055
0.349423
0.348349
0.347323
0.373826
0.371553
0.369398
0.367355
0.365416
0.363575
0.361828
0.360168
0.358591
0.357092
0.355665
0.354306
0.353012
0.351779
0.350603
0.34948
0.348408
0.347383
0.373826
0.371555
0.369401
0.367363
0.365432
0.363605
0.361875
0.360237
0.358681
0.357203
0.355794
0.354451
0.353167
0.351939
0.350762
0.349635
0.348552
0.347512
0.373826
0.371556
0.369413
0.367418
0.365544
0.363794
0.362138
0.360572
0.359071
0.357632
0.35624
0.354896
0.353589
0.352323
0.35109
0.349894
0.348728
0.347601
0.373819
0.371564
0.369582
0.367846
0.366223
0.364712
0.363219
0.361754
0.360267
0.358787
0.357288
0.3558
0.354306
0.352833
0.351361
0.349924
0.348495
0.347109
0.373767
0.371946
0.370917
0.369977
0.368913
0.367767
0.366326
0.364737
0.362934
0.361062
0.35906
0.357054
0.354971
0.352925
0.350845
0.348825
0.346791
0.344839
0.374093
0.375201
0.37726
0.37756
0.377092
0.375804
0.373488
0.370864
0.367802
0.364686
0.361328
0.358027
0.354602
0.351291
0.347922
0.3447
0.341472
0.338414
0.377677
0.394076
0.402944
0.402353
0.400307
0.396045
0.390665
0.385166
0.379133
0.373303
0.367221
0.361476
0.355719
0.350305
0.345128
0.340198
0.335726
0.331325
0.405777
0.438977
0.451189
0.45581
0.459111
0.462261
0.464972
0.467229
0.469224
0.470844
0.472492
0.473929
0.475548
0.477076
0.479214
0.480839
0.483679
0.485395
0.479012
0.684927
0.865146
0.990809
1.09437
1.17583
1.23938
1.28341
1.31503
1.33206
1.3432
1.34353
1.34141
1.33629
1.32783
1.31772
1.30679
1.29535
0.00435778
0.00714315
0.0100738
0.012618
0.0146795
0.0163031
0.0176518
0.0188845
0.0200055
0.0210709
0.0221383
0.0232643
0.024522
0.0260335
0.0278545
0.0299036
0.0321156
0.0344777
0.0369962
0.0396897
0.0425721
0.0456596
0.0489583
0.0524779
0.0562188
0.0601902
0.0643968
0.0688132
0.0734149
0.0781979
0.0831483
0.0882661
0.0935408
0.0989742
0.104556
0.110292
0.116175
0.122216
0.12843
0.134851
0.141515
0.148496
0.155644
0.162964
0.170444
0.178101
0.185925
0.193927
0.202102
0.210459
0.218992
0.22771
0.236607
0.245691
0.254955
0.264409
0.274042
0.283865
0.293867
0.304057
0.314423
0.324974
0.335696
0.346599
0.357667
0.368908
0.380306
0.391868
0.403577
0.41544
0.427437
0.439574
0.451832
0.464215
0.476702
0.489297
0.501977
0.514746
0.52758
0.540483
0.553428
0.566419
0.579428
0.592458
0.605478
0.61849
0.631463
0.644396
0.65726
0.670043
0.682719
0.695263
0.707647
0.719844
0.731825
0.743564
0.755049
0.766302
0.777414
0.788274
0.798885
0.809222
0.819279
0.829033
0.838468
0.847568
0.856313
0.864688
0.872673
0.880253
0.88741
0.894129
0.900394
0.90619
0.911503
0.91632
0.92063
0.924421
0.927685
0.930412
0.932599
0.934244
0.935348
0.935912
0.935937
0.935398
0.934179
0.932427
0.930308
0.927673
0.924422
0.920688
0.916453
0.911743
0.906576
0.900972
0.894957
0.888553
0.881786
0.874688
0.867314
0.859693
0.851862
0.843854
0.835705
0.827448
0.819121
0.810759
0.802398
0.79407
0.78581
0.77765
0.769622
0.761759
0.754089
0.746638
0.739433
0.732496
0.725845
0.719497
0.713467
0.70776
0.702385
0.69735
0.692644
0.68826
0.68433
0.68249
0.682768
0.683038
0.683687
0.684638
0.685828
0.687184
0.688639
0.689998
0.69101
0.691138
0.689056
0.668646
0.0108248
0.0177176
0.0243968
0.0295463
0.0338216
0.037551
0.0409135
0.0440753
0.0472215
0.0504682
0.0538805
0.057489
0.0613033
0.0653199
0.0695304
0.0739293
0.0785135
0.0832922
0.0882834
0.0935109
0.0989972
0.104764
0.110827
0.117199
0.123888
0.130902
0.138241
0.145909
0.153902
0.162217
0.170848
0.179795
0.189061
0.198647
0.208555
0.218789
0.229341
0.24019
0.251338
0.262788
0.274539
0.28659
0.298931
0.311567
0.324505
0.33775
0.351307
0.365183
0.37938
0.393905
0.40876
0.423952
0.439484
0.45536
0.471584
0.488159
0.505087
0.522372
0.540014
0.558016
0.576376
0.595098
0.614178
0.633617
0.653411
0.67356
0.694057
0.714901
0.736083
0.757601
0.779446
0.801611
0.824086
0.846863
0.86993
0.893277
0.916888
0.940755
0.964859
0.989188
1.01372
1.03845
1.06335
1.0884
1.11359
1.13888
1.16426
1.18971
1.21519
1.24068
1.26615
1.29156
1.31687
1.34205
1.36703
1.39178
1.41621
1.44025
1.46381
1.48703
1.50993
1.53248
1.55464
1.57639
1.59769
1.61849
1.63877
1.65848
1.67759
1.69607
1.71386
1.73093
1.74726
1.76279
1.7775
1.79134
1.8043
1.81633
1.82741
1.83751
1.84661
1.85469
1.86174
1.86776
1.87273
1.87668
1.8793
1.88068
1.88125
1.88098
1.87944
1.87684
1.87321
1.86858
1.86297
1.85644
1.84901
1.84075
1.83169
1.82191
1.81147
1.80044
1.78888
1.77685
1.76444
1.7517
1.73872
1.72556
1.71229
1.69899
1.68573
1.67258
1.65961
1.64689
1.63447
1.62243
1.61082
1.59969
1.58909
1.57906
1.56964
1.56085
1.55271
1.54525
1.53845
1.53231
1.52686
1.52233
1.51863
1.51561
1.51317
1.51114
1.50937
1.50767
1.50583
1.50366
1.50077
1.49706
1.48972
1.46584
0.0168235
0.0287166
0.0377508
0.0445371
0.0502539
0.0554077
0.0602749
0.065042
0.0698459
0.0747804
0.0799019
0.0852382
0.0907989
0.0965845
0.102593
0.108825
0.115287
0.121992
0.128961
0.136216
0.143782
0.151682
0.159933
0.168552
0.177551
0.186941
0.196727
0.206914
0.217503
0.228492
0.239878
0.25166
0.263837
0.276407
0.289366
0.302712
0.316441
0.330549
0.345035
0.3599
0.375142
0.390761
0.406757
0.423136
0.4399
0.457056
0.474608
0.49256
0.510918
0.529686
0.548867
0.568467
0.588488
0.608934
0.629808
0.651112
0.672849
0.69502
0.717624
0.740664
0.764137
0.788043
0.81238
0.837144
0.862332
0.887939
0.91396
0.940388
0.967216
0.994436
1.02204
1.05001
1.07835
1.10703
1.13604
1.16538
1.19502
1.22494
1.25514
1.28558
1.31626
1.34714
1.37821
1.40944
1.44081
1.47229
1.50385
1.53546
1.5671
1.59874
1.63033
1.66184
1.69323
1.72447
1.75551
1.78632
1.81685
1.84708
1.87698
1.90653
1.93569
1.96441
1.99267
2.0204
2.04758
2.07414
2.10005
2.12525
2.1497
2.17335
2.19615
2.21806
2.23902
2.25899
2.27792
2.29577
2.31249
2.32806
2.34242
2.35554
2.3674
2.37797
2.38723
2.39516
2.40175
2.40699
2.41083
2.41307
2.41398
2.41385
2.41223
2.40926
2.40499
2.39943
2.39265
2.38468
2.37557
2.36539
2.3542
2.34207
2.32909
2.31534
2.3009
2.28584
2.27027
2.25426
2.23791
2.2213
2.20453
2.18769
2.17086
2.15413
2.13759
2.12132
2.10541
2.08992
2.07492
2.06049
2.04668
2.03354
2.02111
2.00944
1.99853
1.98841
1.97908
1.97053
1.96274
1.95573
1.94944
1.94385
1.93877
1.93408
1.92958
1.92509
1.92042
1.91541
1.90986
1.90382
1.89521
1.87637
0.0216208
0.0393263
0.0506561
0.0589436
0.0658731
0.0721203
0.078042
0.0838605
0.0897262
0.0957398
0.101964
0.108432
0.115158
0.122145
0.129395
0.136912
0.144705
0.15279
0.161187
0.169921
0.179015
0.188493
0.198373
0.208672
0.219403
0.230573
0.242188
0.254248
0.26675
0.279697
0.293089
0.306927
0.321208
0.33593
0.351089
0.366684
0.382711
0.39917
0.41606
0.433379
0.45113
0.469312
0.48793
0.506987
0.526487
0.546436
0.566838
0.587699
0.609025
0.63082
0.653088
0.675834
0.699062
0.722776
0.746978
0.771673
0.79686
0.822544
0.848723
0.875398
0.902569
0.930234
0.958391
0.987036
1.01617
1.04578
1.07586
1.10641
1.13741
1.16887
1.20076
1.23308
1.26581
1.29894
1.33246
1.36634
1.40057
1.43513
1.47
1.50515
1.54057
1.57623
1.6121
1.64816
1.68438
1.72073
1.75717
1.79368
1.83022
1.86675
1.90325
1.93967
1.97598
2.01213
2.04808
2.08381
2.11927
2.15441
2.1892
2.2236
2.25755
2.29101
2.32393
2.35625
2.38793
2.41891
2.44913
2.47855
2.5071
2.53473
2.56139
2.58702
2.61157
2.63497
2.65719
2.67816
2.69783
2.71617
2.73312
2.74865
2.76271
2.77528
2.78633
2.79584
2.80379
2.81017
2.81497
2.81802
2.81936
2.81943
2.81785
2.8147
2.81002
2.80384
2.79623
2.78721
2.77687
2.76525
2.75244
2.73852
2.72357
2.70768
2.69096
2.67348
2.65536
2.63669
2.61758
2.59812
2.57842
2.55858
2.5387
2.51888
2.49923
2.47982
2.46076
2.44213
2.424
2.40646
2.38957
2.37338
2.35796
2.34332
2.32951
2.31653
2.30438
2.29303
2.28246
2.27264
2.26352
2.25503
2.24703
2.23938
2.23191
2.22446
2.21688
2.20908
2.20099
2.1928
2.18298
2.16687
0.0254028
0.0490836
0.0627793
0.0725798
0.0806765
0.0879111
0.0947202
0.101369
0.108031
0.114827
0.121833
0.129097
0.136644
0.144488
0.152637
0.161098
0.169885
0.179012
0.1885
0.198369
0.208641
0.219337
0.230472
0.242062
0.254117
0.266644
0.279647
0.29313
0.307093
0.321539
0.336467
0.351875
0.367763
0.384129
0.40097
0.418286
0.436075
0.454338
0.473074
0.492285
0.511971
0.532137
0.552785
0.573922
0.595552
0.617683
0.64032
0.66347
0.687139
0.711331
0.736053
0.761311
0.787108
0.81345
0.840341
0.867784
0.895782
0.924338
0.953452
0.983126
1.01336
1.04415
1.0755
1.10741
1.13986
1.17286
1.2064
1.24047
1.27506
1.31017
1.34578
1.38188
1.41845
1.45548
1.49296
1.53086
1.56916
1.60784
1.64689
1.68627
1.72595
1.76592
1.80614
1.84659
1.88722
1.92801
1.96892
2.00992
2.05096
2.09202
2.13305
2.17401
2.21486
2.25556
2.29606
2.33632
2.37628
2.41592
2.45516
2.49396
2.53228
2.57004
2.60721
2.64372
2.6795
2.71451
2.74869
2.78196
2.81428
2.84558
2.87579
2.90486
2.93273
2.95933
2.98461
3.0085
3.03096
3.05192
3.07135
3.08918
3.10538
3.11991
3.13274
3.14384
3.15319
3.16076
3.16657
3.17053
3.17249
3.17288
3.17148
3.16832
3.16343
3.15684
3.1486
3.13876
3.1274
3.11457
3.10037
3.08487
3.06817
3.05037
3.03156
3.01186
2.99137
2.97019
2.94845
2.92625
2.9037
2.88093
2.85803
2.83513
2.81232
2.78971
2.76739
2.74548
2.72404
2.70317
2.68294
2.6634
2.64463
2.62665
2.60949
2.59318
2.5777
2.56304
2.54917
2.53603
2.52359
2.51175
2.50041
2.48943
2.47868
2.46802
2.45735
2.44665
2.43594
2.4255
2.41414
2.39867
0.0284554
0.057863
0.0738111
0.085074
0.094288
0.102444
0.110048
0.117407
0.124723
0.132133
0.139736
0.147594
0.155749
0.164226
0.173043
0.182214
0.191754
0.201678
0.212004
0.222751
0.233935
0.245574
0.257682
0.27027
0.283348
0.296924
0.311001
0.325583
0.340672
0.35627
0.372377
0.388993
0.406118
0.423752
0.441894
0.460545
0.479706
0.499378
0.519563
0.540265
0.561488
0.583236
0.605514
0.62833
0.651691
0.675602
0.700072
0.725108
0.750717
0.776906
0.803682
0.831053
0.859023
0.8876
0.916789
0.946594
0.97702
1.00807
1.03975
1.07205
1.10499
1.13856
1.17275
1.20758
1.24302
1.27909
1.31577
1.35306
1.39094
1.42942
1.46846
1.50807
1.54823
1.58892
1.63012
1.6718
1.71396
1.75656
1.79958
1.843
1.88677
1.93088
1.97529
2.01996
2.06486
2.10995
2.1552
2.20055
2.24599
2.29144
2.33689
2.38227
2.42755
2.47267
2.51758
2.56224
2.60658
2.65055
2.6941
2.73717
2.7797
2.82163
2.8629
2.90345
2.94322
2.98214
3.02014
3.05716
3.09314
3.128
3.16168
3.19411
3.22523
3.25497
3.28326
3.31005
3.33526
3.35884
3.38074
3.40089
3.41926
3.43579
3.45046
3.46321
3.47404
3.48291
3.48982
3.49474
3.49749
3.49834
3.49727
3.49424
3.48927
3.48239
3.47367
3.46314
3.45089
3.43698
3.42149
3.40452
3.38617
3.36652
3.3457
3.32381
3.30096
3.27728
3.25289
3.22791
3.20245
3.17664
3.1506
3.12445
3.0983
3.07227
3.04646
3.02097
2.99591
2.97136
2.9474
2.9241
2.90153
2.87973
2.85873
2.83856
2.81923
2.80071
2.78299
2.76603
2.74976
2.73413
2.71904
2.70437
2.69003
2.67592
2.66198
2.64824
2.6348
2.62194
2.60865
2.59258
0.0323789
0.065764
0.083633
0.0961941
0.106419
0.115415
0.123739
0.131731
0.139613
0.147543
0.155635
0.163967
0.172597
0.181561
0.190889
0.2006
0.210713
0.221244
0.232209
0.243623
0.255502
0.267859
0.280706
0.294054
0.30791
0.322281
0.337172
0.352588
0.368531
0.385004
0.402008
0.419546
0.437619
0.456228
0.475377
0.495066
0.5153
0.536083
0.557417
0.57931
0.601767
0.624794
0.648398
0.67259
0.697375
0.722764
0.748764
0.775386
0.802637
0.830527
0.859066
0.88826
0.918119
0.94865
0.97986
1.01176
1.04435
1.07763
1.11162
1.14631
1.18172
1.21783
1.25465
1.29218
1.33042
1.36937
1.409
1.44933
1.49035
1.53203
1.57437
1.61736
1.66097
1.7052
1.75001
1.79539
1.84131
1.88775
1.93467
1.98205
2.02986
2.07805
2.12659
2.17545
2.22458
2.27394
2.32349
2.37318
2.42297
2.4728
2.52264
2.57241
2.62208
2.67158
2.72087
2.76987
2.81853
2.8668
2.9146
2.96188
3.00857
3.05461
3.09993
3.14447
3.18815
3.23092
3.27269
3.3134
3.35298
3.39136
3.42846
3.46421
3.49854
3.53139
3.56268
3.59233
3.62029
3.6465
3.67087
3.69337
3.71393
3.73251
3.74906
3.76353
3.7759
3.78614
3.79424
3.80017
3.80382
3.80526
3.80461
3.80181
3.79686
3.7898
3.78069
3.76956
3.75651
3.74158
3.72488
3.7065
3.68652
3.66506
3.64223
3.61815
3.59293
3.5667
3.53959
3.51172
3.48323
3.45425
3.4249
3.39531
3.36559
3.33589
3.30629
3.27693
3.2479
3.21929
3.19121
3.16372
3.1369
3.1108
3.08548
3.06096
3.03727
3.0144
2.99234
2.97107
2.95053
2.93069
2.91148
2.89281
2.87462
2.85684
2.83946
2.82255
2.80624
2.79079
2.77529
2.75788
0.0371464
0.0727198
0.0921312
0.105786
0.116889
0.126629
0.135599
0.144161
0.152551
0.160942
0.169458
0.178191
0.18721
0.196565
0.206291
0.216416
0.226962
0.237947
0.249387
0.261296
0.273687
0.286572
0.299961
0.313864
0.328289
0.343243
0.35873
0.374756
0.391326
0.408443
0.426111
0.444334
0.463116
0.482461
0.502373
0.522858
0.543921
0.565567
0.587805
0.610641
0.634084
0.658142
0.682826
0.708145
0.73411
0.760732
0.788021
0.81599
0.844649
0.874009
0.904081
0.934877
0.966406
0.998679
1.0317
1.06549
1.10005
1.13539
1.17151
1.20842
1.24613
1.28463
1.32394
1.36404
1.40494
1.44664
1.48912
1.5324
1.57644
1.62125
1.66681
1.71311
1.76012
1.80783
1.85622
1.90525
1.95491
2.00516
2.05596
2.1073
2.15912
2.2114
2.26408
2.31712
2.37048
2.42412
2.47797
2.532
2.58614
2.64034
2.69456
2.74871
2.80276
2.85663
2.91025
2.96358
3.01653
3.06905
3.12106
3.1725
3.2233
3.27339
3.3227
3.37116
3.4187
3.46524
3.51072
3.55504
3.59815
3.63997
3.68041
3.71941
3.7569
3.79278
3.827
3.85948
3.89014
3.91893
3.94576
3.97057
3.99332
4.01393
4.03237
4.04857
4.06252
4.07416
4.08348
4.09047
4.09505
4.09717
4.09703
4.09453
4.08968
4.08251
4.07307
4.06141
4.04761
4.03173
4.01386
3.9941
3.97253
3.94928
3.92444
3.89815
3.87053
3.8417
3.81181
3.78098
3.74935
3.71705
3.68423
3.651
3.61752
3.58389
3.55025
3.51671
3.48339
3.45039
3.41782
3.38575
3.35428
3.32348
3.2934
3.2641
3.23561
3.20795
3.18112
3.15513
3.12995
3.10556
3.08192
3.05898
3.03672
3.0151
2.99414
2.97395
2.95466
2.9365
2.91861
2.89945
0.0415398
0.0785054
0.0991778
0.113752
0.125607
0.135997
0.145542
0.154615
0.163465
0.172271
0.181165
0.190249
0.199598
0.209271
0.219312
0.229754
0.240622
0.251937
0.263716
0.275974
0.288722
0.301973
0.315736
0.330021
0.344836
0.360188
0.376084
0.39253
0.409533
0.427098
0.445232
0.46394
0.483228
0.503105
0.523576
0.54465
0.566334
0.588637
0.61157
0.635141
0.659362
0.684245
0.709801
0.736044
0.762986
0.79064
0.819022
0.848144
0.87802
0.908665
0.940091
0.972313
1.00534
1.0392
1.07388
1.10941
1.1458
1.18305
1.22118
1.26019
1.30009
1.34088
1.38257
1.42515
1.46864
1.51302
1.5583
1.60445
1.65149
1.69939
1.74813
1.79771
1.84811
1.89929
1.95124
2.00392
2.05732
2.11138
2.16608
2.22138
2.27724
2.3336
2.39043
2.44767
2.50527
2.56319
2.62135
2.67971
2.7382
2.79676
2.85533
2.91385
2.97224
3.03043
3.08836
3.14595
3.20313
3.25983
3.31598
3.3715
3.42632
3.48036
3.53356
3.58583
3.6371
3.6873
3.73634
3.78415
3.83065
3.87577
3.91943
3.96154
4.00204
4.04083
4.07786
4.11303
4.14628
4.17754
4.20672
4.23377
4.25862
4.2812
4.30147
4.31937
4.33485
4.34788
4.35843
4.36647
4.37197
4.37485
4.37524
4.37309
4.36838
4.36114
4.35142
4.33928
4.32479
4.308
4.28902
4.26791
4.2448
4.21977
4.19295
4.16446
4.13443
4.10298
4.07026
4.0364
4.00155
3.96584
3.92942
3.89242
3.85499
3.81726
3.77936
3.74141
3.70355
3.66588
3.62851
3.59156
3.55511
3.51926
3.48408
3.44964
3.41599
3.38319
3.35126
3.32021
3.29008
3.26086
3.23254
3.20513
3.17862
3.15303
3.12839
3.10483
3.08248
3.06155
3.04117
3.02012
0.0454146
0.0831096
0.104775
0.120102
0.132585
0.143529
0.153572
0.163098
0.172357
0.181534
0.190765
0.200155
0.209786
0.219721
0.230008
0.240687
0.251786
0.263329
0.275334
0.287817
0.300792
0.31427
0.328263
0.34278
0.357831
0.373424
0.389568
0.406271
0.423541
0.441386
0.459815
0.478836
0.49846
0.518695
0.539551
0.561039
0.58317
0.605955
0.629408
0.653541
0.678367
0.703902
0.730161
0.75716
0.784914
0.813442
0.842758
0.872881
0.903828
0.935615
0.968259
1.00178
1.03618
1.0715
1.10773
1.1449
1.18302
1.2221
1.26215
1.30319
1.34521
1.38824
1.43226
1.47729
1.52333
1.57037
1.61841
1.66744
1.71745
1.76843
1.82037
1.87324
1.92702
1.98169
2.03722
2.09357
2.15072
2.20862
2.26723
2.3265
2.3864
2.44686
2.50784
2.56927
2.63111
2.69328
2.75573
2.81839
2.88119
2.94407
3.00694
3.06974
3.1324
3.19483
3.25696
3.31871
3.38
3.44075
3.5009
3.56034
3.61902
3.67685
3.73375
3.78965
3.84446
3.8981
3.9505
4.00158
4.05126
4.09946
4.1461
4.1911
4.23438
4.27587
4.31549
4.35315
4.38879
4.42232
4.45368
4.48279
4.50958
4.534
4.55597
4.57545
4.59238
4.60672
4.61843
4.62748
4.63385
4.63748
4.63842
4.63665
4.63211
4.62482
4.61486
4.60227
4.58713
4.56949
4.54943
4.52705
4.50243
4.47568
4.44692
4.41626
4.38384
4.34978
4.31424
4.27734
4.23923
4.20006
4.15998
4.11913
4.07766
4.0357
3.9934
3.95089
3.9083
3.86577
3.82341
3.78135
3.73969
3.69854
3.658
3.61815
3.57909
3.54088
3.50358
3.46725
3.43194
3.39767
3.36451
3.33247
3.30159
3.27192
3.24354
3.21656
3.19111
3.16736
3.14449
3.12154
0.0487343
0.0865944
0.109002
0.124919
0.137906
0.149304
0.159766
0.169676
0.179289
0.188788
0.198309
0.20796
0.217825
0.227969
0.238444
0.249292
0.260544
0.272228
0.284364
0.29697
0.31006
0.323649
0.337748
0.352371
0.367527
0.383227
0.399483
0.416303
0.4337
0.451683
0.470265
0.489457
0.509272
0.529721
0.550818
0.572577
0.595012
0.618138
0.64197
0.666524
0.691819
0.717873
0.744703
0.772331
0.800775
0.830057
0.860196
0.891212
0.923128
0.955962
0.989736
1.02447
1.06018
1.09689
1.13461
1.17337
1.21318
1.25405
1.296
1.33904
1.38318
1.42843
1.47479
1.52227
1.57087
1.62059
1.67141
1.72334
1.77636
1.83046
1.88562
1.94181
1.99902
2.0572
2.11634
2.17638
2.2373
2.29904
2.36157
2.42482
2.48875
2.5533
2.6184
2.684
2.75002
2.8164
2.88306
2.94994
3.01695
3.08402
3.15108
3.21803
3.2848
3.3513
3.41745
3.48316
3.54836
3.61295
3.67685
3.73999
3.80227
3.86361
3.92394
3.98316
4.04121
4.098
4.15345
4.20748
4.26001
4.31096
4.36026
4.40782
4.45357
4.49742
4.53931
4.57916
4.61688
4.65241
4.68566
4.71658
4.74507
4.77109
4.79457
4.81544
4.83366
4.84917
4.86192
4.8719
4.87906
4.88337
4.88483
4.88344
4.87908
4.87175
4.86156
4.84857
4.83282
4.81438
4.79332
4.76972
4.74368
4.71528
4.68464
4.65189
4.61714
4.58054
4.54221
4.50231
4.46098
4.41838
4.37464
4.32993
4.28439
4.23817
4.19141
4.14427
4.09688
4.04939
4.00193
3.95463
3.90762
3.86103
3.81498
3.76958
3.72494
3.68116
3.63833
3.59656
3.55591
3.51648
3.47834
3.44158
3.40625
3.37245
3.34028
3.30985
3.2813
3.25476
3.22944
3.20464
0.0514928
0.0890475
0.111967
0.128323
0.141695
0.153446
0.16424
0.174461
0.184361
0.194124
0.203883
0.213745
0.223792
0.234093
0.2447
0.255655
0.266994
0.278745
0.290932
0.303574
0.316689
0.330292
0.344398
0.359021
0.374175
0.389872
0.406126
0.422951
0.440361
0.458369
0.47699
0.496239
0.516132
0.536684
0.557912
0.579834
0.602465
0.625827
0.649936
0.674815
0.700485
0.726967
0.754286
0.782465
0.811527
0.841497
0.8724
0.904261
0.937102
0.97095
1.00583
1.04176
1.07876
1.11687
1.15609
1.19645
1.23797
1.28066
1.32455
1.36964
1.41594
1.46347
1.51224
1.56223
1.61346
1.66592
1.71961
1.77451
1.83061
1.88789
1.94633
2.0059
2.06657
2.12832
2.19109
2.25485
2.31955
2.38514
2.45157
2.51877
2.58669
2.65525
2.72441
2.79406
2.86416
2.93461
3.00534
3.07627
3.14731
3.21838
3.28939
3.36025
3.43087
3.50117
3.57105
3.64042
3.70919
3.77728
3.84459
3.91104
3.97654
4.04101
4.10436
4.16651
4.22738
4.28688
4.34494
4.40148
4.45641
4.50967
4.56118
4.61086
4.65863
4.70443
4.74817
4.78978
4.82919
4.86632
4.9011
4.93346
4.96333
4.99065
5.01534
5.03735
5.05661
5.07309
5.08672
5.09747
5.10531
5.1102
5.11213
5.11109
5.1069
5.09952
5.08912
5.07575
5.05945
5.04028
5.01829
4.99357
4.96619
4.93624
4.90384
4.8691
4.83214
4.7931
4.7521
4.7093
4.66485
4.61889
4.57158
4.52308
4.47354
4.4231
4.37194
4.3202
4.26803
4.21558
4.16301
4.11046
4.05808
4.00601
3.9544
3.90338
3.8531
3.80369
3.75528
3.70799
3.66196
3.6173
3.57415
3.53262
3.49282
3.45487
3.41891
3.38505
3.35342
3.32414
3.29645
3.26993
0.0537031
0.0905726
0.113794
0.130449
0.14409
0.156095
0.167131
0.177582
0.187698
0.197658
0.207595
0.217611
0.227787
0.23819
0.248874
0.259881
0.271249
0.283007
0.29518
0.30779
0.320855
0.334393
0.348423
0.362962
0.378027
0.393635
0.409803
0.426548
0.443887
0.461838
0.48042
0.49965
0.51955
0.540137
0.561432
0.583456
0.60623
0.629774
0.65411
0.679267
0.705272
0.732154
0.759939
0.788657
0.818336
0.849004
0.880689
0.913421
0.947227
0.982136
1.01818
1.05537
1.09375
1.13334
1.17416
1.21623
1.25957
1.30421
1.35016
1.39743
1.44604
1.49599
1.54729
1.59994
1.65394
1.70927
1.76594
1.82393
1.88322
1.94378
2.00558
2.06861
2.13281
2.19815
2.26458
2.33205
2.40051
2.46991
2.54017
2.61123
2.68302
2.75547
2.8285
2.90204
2.97599
3.05028
3.12481
3.19949
3.27425
3.34897
3.42357
3.49796
3.57204
3.6457
3.71887
3.79144
3.86331
3.9344
4.00462
4.07386
4.14205
4.2091
4.27492
4.33943
4.40254
4.46419
4.52428
4.58275
4.63951
4.6945
4.74765
4.79888
4.84812
4.8953
4.94035
4.98321
5.02379
5.06204
5.09789
5.13125
5.16208
5.1903
5.21585
5.23866
5.25868
5.27586
5.29014
5.30148
5.30984
5.31518
5.3175
5.31674
5.31272
5.30527
5.29468
5.28097
5.26418
5.24435
5.22153
5.19579
5.1672
5.13585
5.10184
5.06527
5.02626
4.98494
4.94144
4.89591
4.8485
4.79936
4.74864
4.6965
4.6431
4.5886
4.53316
4.47694
4.4201
4.36281
4.30523
4.24752
4.18984
4.13237
4.07526
4.01868
3.96281
3.90781
3.85384
3.80107
3.74967
3.69982
3.65167
3.6054
3.56117
3.51911
3.47939
3.44215
3.4075
3.37558
3.34565
3.31759
0.0553869
0.0912618
0.114606
0.131434
0.145237
0.157392
0.168577
0.179174
0.18943
0.199517
0.209566
0.219675
0.229924
0.240376
0.251084
0.26209
0.273432
0.285143
0.297251
0.30978
0.322742
0.336158
0.350053
0.364451
0.379372
0.394837
0.410869
0.427488
0.444715
0.462574
0.481087
0.500276
0.520166
0.54078
0.562141
0.584273
0.6072
0.630946
0.655527
0.68099
0.707375
0.734712
0.763036
0.792379
0.822774
0.854254
0.886851
0.920597
0.955525
0.991666
1.02905
1.06771
1.10767
1.14896
1.1916
1.23562
1.28103
1.32786
1.37612
1.42582
1.47698
1.52959
1.58366
1.63919
1.69617
1.75459
1.81443
1.87567
1.93828
2.00224
2.06751
2.13405
2.20182
2.27076
2.34082
2.41195
2.48407
2.55714
2.63107
2.70578
2.78121
2.85727
2.93388
3.01094
3.08837
3.16608
3.24397
3.32195
3.39991
3.47776
3.5554
3.63274
3.70966
3.78608
3.86189
3.937
4.0113
4.0847
4.15712
4.22845
4.29861
4.36751
4.43507
4.5012
4.56584
4.62889
4.69028
4.74995
4.80782
4.86382
4.9179
4.96998
5.02001
5.06791
5.11363
5.1571
5.19826
5.23704
5.27339
5.30724
5.33853
5.36719
5.39317
5.4164
5.43683
5.4544
5.46905
5.48075
5.48944
5.49509
5.4977
5.49715
5.49328
5.48575
5.47498
5.46098
5.44377
5.42338
5.39986
5.37325
5.34362
5.31105
5.27562
5.23742
5.19658
5.15321
5.10745
5.05943
5.0093
4.95721
4.90332
4.84778
4.79077
4.73243
4.67294
4.61247
4.55118
4.48925
4.42686
4.36418
4.3014
4.2387
4.17626
4.11429
4.05297
3.99251
3.93312
3.875
3.81835
3.76341
3.71038
3.65947
3.61089
3.56481
3.52139
3.48078
3.44315
3.40865
3.37661
3.34723
0.0565527
0.0911798
0.114483
0.131357
0.145216
0.157433
0.16869
0.179359
0.189682
0.199829
0.209926
0.220067
0.230328
0.240772
0.251449
0.262404
0.273675
0.285295
0.297298
0.309718
0.322555
0.335841
0.349601
0.363863
0.378651
0.39399
0.409906
0.426423
0.443569
0.461369
0.47985
0.499041
0.51897
0.539666
0.561157
0.583472
0.606644
0.630708
0.655668
0.681598
0.708537
0.736526
0.765603
0.795809
0.827184
0.85976
0.893572
0.928654
0.965042
1.00277
1.04188
1.08239
1.12433
1.16773
1.21262
1.259
1.3069
1.35633
1.40731
1.45985
1.51394
1.56958
1.62678
1.68551
1.74576
1.80752
1.87075
1.93543
2.00151
2.06897
2.13775
2.20781
2.27909
2.35154
2.42508
2.49966
2.57521
2.65164
2.72889
2.80686
2.88547
2.96465
3.04428
3.1243
3.20458
3.28505
3.3656
3.44613
3.52654
3.60672
3.68659
3.76603
3.84494
3.92323
4.00078
4.07751
4.15332
4.22812
4.3018
4.37428
4.44547
4.51529
4.58365
4.65049
4.71571
4.77926
4.84105
4.90103
4.95912
5.01529
5.06945
5.12158
5.17159
5.21944
5.26508
5.30844
5.34949
5.38815
5.42438
5.45812
5.48931
5.5179
5.54383
5.56705
5.58749
5.60511
5.61985
5.63164
5.64046
5.64625
5.64905
5.64866
5.64492
5.63732
5.62642
5.61221
5.59468
5.57387
5.5498
5.52251
5.49205
5.45848
5.42188
5.38233
5.33994
5.29481
5.24708
5.19688
5.14435
5.08963
5.0329
4.97429
4.91398
4.85214
4.78892
4.72451
4.65908
4.59282
4.52592
4.45857
4.39097
4.32331
4.25582
4.18871
4.1222
4.05653
3.99194
3.92868
3.86697
3.80701
3.74914
3.69362
3.64071
3.59065
3.54363
3.49997
3.45969
3.42292
3.38906
3.35866
0.0573873
0.0906733
0.113774
0.130595
0.144425
0.156623
0.167856
0.178502
0.188803
0.198928
0.208999
0.219107
0.229328
0.239719
0.250331
0.261208
0.272386
0.283898
0.295774
0.308038
0.320712
0.333833
0.347433
0.361543
0.376195
0.391421
0.407253
0.423723
0.440864
0.45871
0.477296
0.496664
0.516854
0.537891
0.5598
0.582621
0.606388
0.631126
0.656858
0.683676
0.711635
0.74078
0.771152
0.802792
0.835736
0.870024
0.905694
0.942781
0.981322
1.02135
1.06293
1.10605
1.15075
1.19703
1.24492
1.29443
1.34556
1.39832
1.45272
1.50874
1.56639
1.62563
1.68647
1.74886
1.81279
1.87821
1.9451
2.0134
2.08308
2.15407
2.22633
2.29979
2.37439
2.45006
2.52674
2.60435
2.68282
2.76205
2.84198
2.92251
3.00355
3.08502
3.16681
3.24885
3.33102
3.41324
3.49539
3.57739
3.65913
3.74051
3.82142
3.90178
3.98147
4.06041
4.13849
4.21562
4.2917
4.36665
4.44037
4.51278
4.58379
4.65333
4.72132
4.78768
4.85236
4.91527
4.97636
5.03556
5.09282
5.14811
5.20137
5.25256
5.30162
5.34852
5.39321
5.43564
5.47578
5.51357
5.54897
5.58194
5.61241
5.64034
5.6657
5.68842
5.70845
5.72575
5.74023
5.75185
5.76056
5.76633
5.7692
5.7689
5.76527
5.75764
5.74666
5.73231
5.71459
5.6935
5.66907
5.6413
5.61025
5.57594
5.53844
5.49783
5.45419
5.40762
5.35825
5.3062
5.2516
5.19461
5.13538
5.07406
5.01081
4.94581
4.87921
4.81122
4.742
4.67176
4.60069
4.529
4.45691
4.38463
4.31233
4.24028
4.16877
4.09805
4.02841
3.96017
3.89363
3.82917
3.767
3.7074
3.65069
3.59714
3.54704
3.50047
3.45765
3.41878
3.38326
3.35212
0.0578244
0.0895661
0.112271
0.12891
0.142608
0.154695
0.165827
0.176381
0.186598
0.196643
0.206634
0.216661
0.226794
0.237092
0.247602
0.25837
0.269433
0.280829
0.292592
0.304757
0.317368
0.330455
0.344056
0.358207
0.372945
0.38831
0.404346
0.421102
0.438608
0.4569
0.476024
0.496024
0.516937
0.538735
0.561514
0.585337
0.610265
0.636365
0.663689
0.69229
0.722218
0.753523
0.786247
0.820431
0.856111
0.89332
0.932092
0.972453
1.01443
1.05804
1.10331
1.15024
1.19884
1.24911
1.30105