/*--------------------------------*- C++ -*----------------------------------*\
| =========                 |                                                 |
| \\      /  F ield         | OpenFOAM: The Open Source CFD Toolbox           |
|  \\    /   O peration     | Version:  2312                                  |
|   \\  /    A nd           | Website:  www.openfoam.com                      |
|    \\/     M anipulation  |                                                 |
\*---------------------------------------------------------------------------*/
FoamFile
{
    version     2.0;
    format      ascii;
    arch        "LSB;label=32;scalar=64";
    class       surfaceScalarField;
    location    "200";
    object      phi;
}
// * * * * * * * * * * * * * * * * * * * * * * * * * * * * * * * * * * * * * //

dimensions      [0 3 -1 0 0 0 0];

oriented        oriented;

internalField   nonuniform List<scalar> 
24170
(
3.11512e-06
7.32889e-08
3.01296e-06
1.0215e-07
2.91749e-06
9.54684e-08
2.82631e-06
9.11754e-08
2.74031e-06
8.60009e-08
2.66279e-06
7.75163e-08
2.59489e-06
6.78952e-08
2.53598e-06
5.89091e-08
2.48494e-06
5.10393e-08
2.44068e-06
4.42596e-08
2.40224e-06
3.84403e-08
2.3688e-06
3.34349e-08
2.3397e-06
2.90962e-08
2.3144e-06
2.53021e-08
2.29258e-06
2.18108e-08
2.27378e-06
1.88023e-08
2.25781e-06
1.59721e-08
1.2629e-08
2.24518e-06
3.46865e-06
2.18854e-08
3.48677e-06
8.40252e-08
3.49345e-06
8.87923e-08
3.49231e-06
9.23035e-08
3.48432e-06
9.39934e-08
3.47071e-06
9.11256e-08
3.45278e-06
8.58226e-08
3.43174e-06
7.99469e-08
3.40869e-06
7.40821e-08
3.38456e-06
6.83869e-08
3.36005e-06
6.2951e-08
3.33566e-06
5.78231e-08
3.31177e-06
5.29865e-08
3.28864e-06
4.84284e-08
3.26647e-06
4.3979e-08
3.24549e-06
3.97837e-08
3.22644e-06
3.50223e-08
2.87679e-08
3.21029e-06
3.66801e-06
1.63917e-08
3.68031e-06
7.17247e-08
3.69e-06
7.90963e-08
3.70002e-06
8.22824e-08
3.70913e-06
8.48831e-08
3.71622e-06
8.40327e-08
3.72118e-06
8.08572e-08
3.72423e-06
7.69011e-08
3.72559e-06
7.27201e-08
3.72552e-06
6.84569e-08
3.72427e-06
6.42e-08
3.72207e-06
6.00186e-08
3.71913e-06
5.59262e-08
3.71564e-06
5.19117e-08
3.71175e-06
4.7867e-08
3.70781e-06
4.37303e-08
3.70382e-06
3.90044e-08
3.31256e-08
3.69946e-06
3.92495e-06
1.68269e-08
3.93556e-06
6.11142e-08
3.94312e-06
7.15374e-08
3.95014e-06
7.52578e-08
3.95682e-06
7.81997e-08
3.96261e-06
7.82389e-08
3.96758e-06
7.58939e-08
3.9719e-06
7.25718e-08
3.97569e-06
6.89298e-08
3.979e-06
6.515e-08
3.98188e-06
6.13195e-08
3.98439e-06
5.75051e-08
3.98659e-06
5.3724e-08
3.98854e-06
4.99567e-08
3.99029e-06
4.61123e-08
3.99194e-06
4.20847e-08
3.99332e-06
3.76184e-08
3.24159e-08
3.99403e-06
4.20772e-06
1.62303e-08
4.21609e-06
5.27486e-08
4.22226e-06
6.53663e-08
4.22774e-06
6.97727e-08
4.23318e-06
7.27556e-08
4.23821e-06
7.32097e-08
4.24274e-06
7.13657e-08
4.24686e-06
6.8447e-08
4.25065e-06
6.51371e-08
4.25416e-06
6.16444e-08
4.25742e-06
5.80585e-08
4.26048e-06
5.44459e-08
4.26337e-06
5.0829e-08
4.26614e-06
4.71894e-08
4.26879e-06
4.34554e-08
4.27134e-06
3.95381e-08
4.27366e-06
3.52972e-08
3.06021e-08
4.27547e-06
4.51042e-06
1.48943e-08
4.51713e-06
4.60439e-08
4.52283e-06
5.96582e-08
4.52796e-06
6.46392e-08
4.5331e-06
6.76175e-08
4.53796e-06
6.83504e-08
4.54239e-06
6.69361e-08
4.54644e-06
6.43931e-08
4.55019e-06
6.13835e-08
4.5537e-06
5.81371e-08
4.557e-06
5.47543e-08
4.56014e-06
5.13051e-08
4.56315e-06
4.78198e-08
4.56605e-06
4.42874e-08
4.56884e-06
4.06594e-08
4.57151e-06
3.68737e-08
4.57394e-06
3.28597e-08
2.85874e-08
4.57596e-06
4.83415e-06
1.34662e-08
4.83991e-06
4.02831e-08
4.84554e-06
5.40217e-08
4.85066e-06
5.95208e-08
4.85572e-06
6.25562e-08
4.86055e-06
6.35207e-08
4.86499e-06
6.24895e-08
4.86909e-06
6.02995e-08
4.87289e-06
5.75742e-08
4.87647e-06
5.4561e-08
4.87985e-06
5.13726e-08
4.88307e-06
4.80834e-08
4.88616e-06
4.47328e-08
4.88912e-06
4.13202e-08
4.89196e-06
3.78197e-08
4.89464e-06
3.41968e-08
4.89707e-06
3.04293e-08
2.65436e-08
4.89911e-06
5.18096e-06
1.20904e-08
5.18605e-06
3.51834e-08
5.19158e-06
4.8493e-08
5.19671e-06
5.4387e-08
5.20177e-06
5.74972e-08
5.20665e-06
5.86418e-08
5.21119e-06
5.79439e-08
5.21541e-06
5.60835e-08
5.21935e-06
5.36338e-08
5.22305e-06
5.08531e-08
5.22656e-06
4.78641e-08
5.2299e-06
4.47461e-08
5.23308e-06
4.15467e-08
5.23612e-06
3.82778e-08
5.23901e-06
3.49336e-08
5.2417e-06
3.15039e-08
5.24413e-06
2.79969e-08
2.44623e-08
5.24621e-06
5.55268e-06
1.07516e-08
5.55721e-06
3.06527e-08
5.56252e-06
4.31771e-08
5.56764e-06
4.9267e-08
5.57271e-06
5.24216e-08
5.57767e-06
5.36875e-08
5.58234e-06
5.32691e-08
5.58671e-06
5.17122e-08
5.59081e-06
4.9529e-08
5.59468e-06
4.69819e-08
5.59835e-06
4.42005e-08
5.60182e-06
4.12686e-08
5.60513e-06
3.82408e-08
5.60826e-06
3.51416e-08
5.61121e-06
3.19818e-08
5.61395e-06
2.87704e-08
5.61641e-06
2.55322e-08
2.2326e-08
5.61855e-06
5.95107e-06
9.45598e-09
5.95511e-06
2.66109e-08
5.96017e-06
3.81223e-08
5.96524e-06
4.41919e-08
5.97032e-06
4.73413e-08
5.97533e-06
4.86738e-08
5.98012e-06
4.84768e-08
5.98464e-06
4.71894e-08
5.98891e-06
4.52578e-08
5.99295e-06
4.29406e-08
5.99678e-06
4.03724e-08
6.00041e-06
3.76399e-08
6.00384e-06
3.48033e-08
6.00709e-06
3.18977e-08
6.01012e-06
2.89465e-08
6.01292e-06
2.59722e-08
6.01544e-06
2.30075e-08
2.01127e-08
6.01765e-06
6.37804e-06
8.224e-09
6.38168e-06
2.29768e-08
6.38646e-06
3.33399e-08
6.39146e-06
3.91902e-08
6.39652e-06
4.22757e-08
6.40157e-06
4.36267e-08
6.40645e-06
4.35921e-08
6.4111e-06
4.25348e-08
6.41553e-06
4.08353e-08
6.41973e-06
3.87406e-08
6.42371e-06
3.63875e-08
6.42748e-06
3.38643e-08
6.43105e-06
3.12348e-08
6.43441e-06
2.8542e-08
6.43753e-06
2.5818e-08
6.44041e-06
2.30935e-08
6.44301e-06
2.04037e-08
1.78058e-08
6.44532e-06
5.74182e-06
7.23437e-09
5.74462e-06
2.01746e-08
5.74846e-06
2.95071e-08
5.75261e-06
3.50339e-08
5.75687e-06
3.80156e-08
5.76114e-06
3.93507e-08
5.76532e-06
3.94098e-08
5.76934e-06
3.85147e-08
5.77318e-06
3.69955e-08
5.77684e-06
3.50822e-08
5.78032e-06
3.29106e-08
5.78361e-06
3.05696e-08
5.78672e-06
2.81246e-08
5.78964e-06
2.56226e-08
5.79235e-06
2.31008e-08
5.79485e-06
2.05932e-08
5.79712e-06
1.81344e-08
1.57789e-08
5.79915e-06
6.99922e-06
6.1728e-09
7.00219e-06
1.7198e-08
7.00635e-06
2.53464e-08
7.01099e-06
3.03894e-08
7.01583e-06
3.31771e-08
7.02073e-06
3.44486e-08
7.02557e-06
3.45721e-08
7.03025e-06
3.38284e-08
7.03475e-06
3.24953e-08
7.03905e-06
3.07807e-08
7.04315e-06
2.88158e-08
7.04703e-06
2.6688e-08
7.05069e-06
2.44625e-08
7.05412e-06
2.2189e-08
7.05732e-06
1.99066e-08
7.06026e-06
1.76512e-08
7.06294e-06
1.54542e-08
1.33666e-08
7.06535e-06
8.53197e-06
5.04848e-09
8.53509e-06
1.40747e-08
8.53955e-06
2.08877e-08
8.54467e-06
2.52672e-08
8.5501e-06
2.77445e-08
8.55566e-06
2.88857e-08
8.56121e-06
2.90283e-08
8.56662e-06
2.8413e-08
8.57185e-06
2.72647e-08
8.57687e-06
2.57632e-08
8.58165e-06
2.40297e-08
8.58619e-06
2.21477e-08
8.59047e-06
2.01794e-08
8.59449e-06
1.81738e-08
8.59822e-06
1.61702e-08
8.60167e-06
1.42027e-08
8.60483e-06
1.22989e-08
1.05036e-08
8.60769e-06
1.04004e-05
3.87263e-09
1.04036e-05
1.0826e-08
1.04084e-05
1.61564e-08
1.0414e-05
1.96815e-08
1.042e-05
2.17074e-08
1.04262e-05
2.26309e-08
1.04325e-05
2.27317e-08
1.04387e-05
2.22074e-08
1.04448e-05
2.1233e-08
1.04506e-05
1.99534e-08
1.04561e-05
1.84743e-08
1.04614e-05
1.68699e-08
1.04664e-05
1.51969e-08
1.04711e-05
1.34995e-08
1.04754e-05
1.18139e-08
1.04795e-05
1.017e-08
1.04832e-05
8.59065e-09
7.11344e-09
1.04866e-05
1.2678e-05
2.65295e-09
1.26814e-05
7.44997e-09
1.26864e-05
1.11545e-08
1.26924e-05
1.36331e-08
1.26991e-05
1.50465e-08
1.27061e-05
1.56433e-08
1.27132e-05
1.5626e-08
1.27202e-05
1.51431e-08
1.27272e-05
1.43204e-08
1.27338e-05
1.32648e-08
1.27403e-05
1.20583e-08
1.27464e-05
1.07612e-08
1.27521e-05
9.41927e-09
1.27576e-05
8.06917e-09
1.27626e-05
6.73965e-09
1.27674e-05
5.45502e-09
1.27717e-05
4.2312e-09
3.09945e-09
1.27757e-05
1.54545e-05
1.38104e-09
1.5458e-05
3.90375e-09
1.54633e-05
5.82726e-09
1.54699e-05
7.0664e-09
1.54772e-05
7.69344e-09
1.5485e-05
7.83717e-09
1.54931e-05
7.61407e-09
1.55011e-05
7.1142e-09
1.5509e-05
6.41357e-09
1.55167e-05
5.57755e-09
1.55241e-05
4.6582e-09
1.55311e-05
3.69505e-09
1.55378e-05
2.71853e-09
1.55442e-05
1.75287e-09
1.55501e-05
8.17282e-10
1.55556e-05
-7.25989e-11
1.55607e-05
-9.07412e-10
-1.6639e-09
1.55655e-05
1.8839e-05
1.78595e-11
1.88428e-05
6.31621e-11
1.88487e-05
-1.76467e-12
1.88559e-05
-2.14515e-10
1.88642e-05
-5.56689e-10
1.8873e-05
-9.99361e-10
1.88822e-05
-1.51835e-09
1.88914e-05
-2.0915e-09
1.89005e-05
-2.69655e-09
1.89094e-05
-3.31391e-09
1.89179e-05
-3.92808e-09
1.89262e-05
-4.52683e-09
1.8934e-05
-5.10008e-09
1.89414e-05
-5.63954e-09
1.89483e-05
-6.13862e-09
1.89548e-05
-6.59176e-09
1.89609e-05
-6.99714e-09
-7.33971e-09
1.89666e-05
2.29649e-05
-1.53758e-09
2.29693e-05
-4.36564e-09
2.29761e-05
-6.76748e-09
2.29846e-05
-8.71317e-09
2.29942e-05
-1.02195e-08
2.30046e-05
-1.13726e-08
2.30154e-05
-1.22622e-08
2.30262e-05
-1.29424e-08
2.3037e-05
-1.34503e-08
2.30475e-05
-1.38209e-08
2.30576e-05
-1.40852e-08
2.30673e-05
-1.42648e-08
2.30766e-05
-1.43752e-08
2.30854e-05
-1.44272e-08
2.30937e-05
-1.44297e-08
2.31015e-05
-1.43884e-08
2.31088e-05
-1.43098e-08
-1.41872e-08
2.31156e-05
1.68119e-05
-2.74057e-09
1.68153e-05
-7.77101e-09
1.68205e-05
-1.19854e-08
1.6827e-05
-1.52295e-08
1.68344e-05
-1.75466e-08
1.68422e-05
-1.91704e-08
1.68502e-05
-2.02944e-08
1.68583e-05
-2.10191e-08
1.68662e-05
-2.14215e-08
1.6874e-05
-2.15823e-08
1.68815e-05
-2.15663e-08
1.68886e-05
-2.14208e-08
1.68954e-05
-2.11782e-08
1.69019e-05
-2.08648e-08
1.69079e-05
-2.04987e-08
1.69136e-05
-2.00943e-08
1.6919e-05
-1.96617e-08
-1.92007e-08
1.6924e-05
1.46357e-05
-3.87422e-09
1.4639e-05
-1.10347e-08
1.4644e-05
-1.70283e-08
1.46502e-05
-2.14303e-08
1.4657e-05
-2.43851e-08
1.46642e-05
-2.63656e-08
1.46716e-05
-2.76476e-08
1.46789e-05
-2.83498e-08
1.46861e-05
-2.85999e-08
1.4693e-05
-2.85285e-08
1.46997e-05
-2.82314e-08
1.4706e-05
-2.7772e-08
1.47121e-05
-2.71985e-08
1.47177e-05
-2.65479e-08
1.47231e-05
-2.58483e-08
1.47281e-05
-2.51188e-08
1.47328e-05
-2.43744e-08
-2.36176e-08
1.47372e-05
1.27412e-05
-4.89892e-09
1.27444e-05
-1.42794e-08
1.27495e-05
-2.21482e-08
1.27556e-05
-2.7481e-08
1.2762e-05
-3.08519e-08
1.27688e-05
-3.31068e-08
1.27756e-05
-3.44909e-08
1.27824e-05
-3.51045e-08
1.27889e-05
-3.51486e-08
1.27952e-05
-3.48148e-08
1.28012e-05
-3.42221e-08
1.28069e-05
-3.34471e-08
1.28122e-05
-3.2551e-08
1.28172e-05
-3.15808e-08
1.2822e-05
-3.0571e-08
1.28264e-05
-2.95433e-08
1.28305e-05
-2.85135e-08
-2.74846e-08
1.28344e-05
1.10917e-05
-5.68102e-09
1.1095e-05
-1.75482e-08
1.11004e-05
-2.75526e-08
1.11064e-05
-3.34704e-08
1.11125e-05
-3.70053e-08
1.11189e-05
-3.94483e-08
1.11252e-05
-4.08582e-08
1.11314e-05
-4.132e-08
1.11374e-05
-4.11303e-08
1.11431e-05
-4.05254e-08
1.11485e-05
-3.96343e-08
1.11536e-05
-3.85466e-08
1.11584e-05
-3.73367e-08
1.11629e-05
-3.60626e-08
1.11671e-05
-3.47625e-08
1.1171e-05
-3.34626e-08
1.11747e-05
-3.21808e-08
-3.09256e-08
1.11781e-05
9.65564e-06
-6.1068e-09
9.65904e-06
-2.09539e-08
9.66464e-06
-3.31527e-08
9.67044e-06
-3.9268e-08
9.67636e-06
-4.29244e-08
9.68242e-06
-4.5508e-08
9.68836e-06
-4.68073e-08
9.69406e-06
-4.70222e-08
9.6995e-06
-4.6567e-08
9.70466e-06
-4.5689e-08
9.70953e-06
-4.45084e-08
9.71411e-06
-4.31236e-08
9.71839e-06
-4.16211e-08
9.7224e-06
-4.00664e-08
9.72613e-06
-3.85017e-08
9.72962e-06
-3.69533e-08
9.73288e-06
-3.54343e-08
-3.39387e-08
9.73589e-06
8.40494e-06
-5.6986e-09
8.40932e-06
-2.53339e-08
8.41474e-06
-3.85763e-08
8.41986e-06
-4.4383e-08
8.42543e-06
-4.85012e-08
8.4313e-06
-5.13766e-08
8.43702e-06
-5.25314e-08
8.44246e-06
-5.24556e-08
8.44759e-06
-5.1704e-08
8.45243e-06
-5.05256e-08
8.45696e-06
-4.90368e-08
8.46118e-06
-4.73469e-08
8.46511e-06
-4.55523e-08
8.46876e-06
-4.37239e-08
8.47217e-06
-4.19062e-08
8.47534e-06
-4.0128e-08
8.47832e-06
-3.84138e-08
-3.67732e-08
8.48115e-06
7.31365e-06
-2.06107e-09
7.32071e-06
-3.23971e-08
7.32651e-06
-4.43826e-08
7.33132e-06
-4.91959e-08
7.33671e-06
-5.38855e-08
7.34237e-06
-5.7043e-08
7.34791e-06
-5.80705e-08
7.35322e-06
-5.77705e-08
7.35829e-06
-5.67693e-08
7.36306e-06
-5.52996e-08
7.36752e-06
-5.3495e-08
7.37166e-06
-5.14861e-08
7.37549e-06
-4.93855e-08
7.37903e-06
-4.72687e-08
7.38231e-06
-4.51857e-08
7.38535e-06
-4.31664e-08
7.38816e-06
-4.12214e-08
-3.92995e-08
7.39068e-06
6.36047e-06
7.53608e-09
6.3703e-06
-4.22277e-08
6.37818e-06
-5.22707e-08
6.38525e-06
-5.62637e-08
6.39238e-06
-6.10113e-08
6.39899e-06
-6.36612e-08
6.40498e-06
-6.40636e-08
6.41054e-06
-6.33226e-08
6.41574e-06
-6.19734e-08
6.42059e-06
-6.01509e-08
6.42507e-06
-5.79813e-08
6.42919e-06
-5.56056e-08
6.43296e-06
-5.31524e-08
6.43639e-06
-5.06984e-08
6.4395e-06
-4.83016e-08
6.44234e-06
-4.60031e-08
6.44495e-06
-4.38342e-08
-4.18227e-08
6.44747e-06
5.53917e-06
1.38302e-08
5.54752e-06
-5.05803e-08
5.55587e-06
-6.06169e-08
5.56612e-06
-6.65207e-08
5.57732e-06
-7.22151e-08
5.58782e-06
-7.41605e-08
5.59704e-06
-7.32841e-08
5.605e-06
-7.12843e-08
5.61177e-06
-6.87461e-08
5.61743e-06
-6.58103e-08
5.62205e-06
-6.26001e-08
5.62571e-06
-5.92707e-08
5.62852e-06
-5.59572e-08
5.63055e-06
-5.27343e-08
5.6319e-06
-4.96536e-08
5.63268e-06
-4.67841e-08
5.63298e-06
-4.41361e-08
-4.1802e-08
5.63296e-06
4.87157e-06
-3.01351e-08
4.88648e-06
-6.54868e-08
4.89722e-06
-7.13605e-08
4.90599e-06
-7.52992e-08
4.91304e-06
-7.92633e-08
4.91732e-06
-7.84431e-08
4.91816e-06
-7.41193e-08
4.91542e-06
-6.85537e-08
4.90944e-06
-6.27627e-08
4.90072e-06
-5.70881e-08
4.88981e-06
-5.17001e-08
4.87724e-06
-4.6698e-08
4.86344e-06
-4.21635e-08
4.8488e-06
-3.8089e-08
4.8336e-06
-3.44604e-08
4.81812e-06
-3.13013e-08
4.80261e-06
-2.86269e-08
-2.69324e-08
4.78774e-06
4.17254e-06
4.10705e-06
4.03569e-06
3.96039e-06
3.88113e-06
3.80269e-06
3.72857e-06
3.66001e-06
3.59725e-06
3.54016e-06
3.48846e-06
3.44176e-06
3.3996e-06
3.36151e-06
3.32705e-06
3.29575e-06
3.26712e-06
3.24019e-06
1.24032e-08
-1.24392e-08
2.98307e-08
-1.74831e-08
4.58371e-08
-1.6051e-08
5.80564e-08
-1.2264e-08
6.55777e-08
-7.55993e-09
6.82665e-08
-2.73147e-09
6.65033e-08
1.72602e-09
6.09915e-08
5.46785e-09
5.25958e-08
8.3569e-09
4.20675e-08
1.04807e-08
3.00037e-08
1.20221e-08
1.67827e-08
1.31686e-08
2.68827e-09
1.40503e-08
-1.22641e-08
1.49001e-08
-2.81645e-08
1.5861e-08
-4.50872e-08
1.68763e-08
-6.31079e-08
1.79876e-08
-8.23647e-08
1.92145e-08
-1.02949e-07
2.05533e-08
-1.24978e-07
2.19884e-08
-1.48505e-07
2.34976e-08
-1.73603e-07
2.50555e-08
-2.00268e-07
2.66348e-08
-2.28521e-07
2.82075e-08
-2.583e-07
2.97475e-08
-2.89577e-07
3.12312e-08
-3.22246e-07
3.26401e-08
-3.56248e-07
3.39584e-08
-3.91448e-07
3.5173e-08
-4.27761e-07
3.62721e-08
-4.65032e-07
3.7249e-08
-5.03168e-07
3.81012e-08
-5.42019e-07
3.88328e-08
-5.81496e-07
3.94473e-08
-6.21459e-07
3.99514e-08
-6.61835e-07
4.03506e-08
-7.02499e-07
4.06539e-08
-7.43392e-07
4.08693e-08
-7.8441e-07
4.10103e-08
-8.25525e-07
4.10912e-08
-8.66668e-07
4.11347e-08
-9.07854e-07
4.11652e-08
-9.49061e-07
4.11999e-08
-9.90315e-07
4.12349e-08
-1.03159e-06
4.12679e-08
-1.0729e-06
4.12955e-08
-1.11422e-06
4.13185e-08
-1.15557e-06
4.13342e-08
-1.19692e-06
4.13436e-08
-1.23829e-06
4.13441e-08
-1.27963e-06
4.13366e-08
-1.32097e-06
4.1318e-08
-1.36227e-06
4.1289e-08
-1.40354e-06
4.12463e-08
-1.44475e-06
4.11905e-08
-1.48589e-06
4.11171e-08
-1.52693e-06
4.10265e-08
-1.56787e-06
4.09147e-08
-1.60866e-06
4.07818e-08
-1.64931e-06
4.06231e-08
-1.68976e-06
4.04391e-08
-1.73e-06
4.02255e-08
-1.76999e-06
3.99826e-08
-1.80971e-06
3.97055e-08
-1.84911e-06
3.9395e-08
-1.88817e-06
3.90463e-08
-1.92683e-06
3.86607e-08
-1.96508e-06
3.82333e-08
-2.00284e-06
3.77659e-08
-2.04011e-06
3.72537e-08
-2.07681e-06
3.66987e-08
-2.11291e-06
3.60961e-08
-2.14836e-06
3.54478e-08
-2.18312e-06
3.47495e-08
-2.21712e-06
3.40034e-08
-2.25034e-06
3.3205e-08
-2.2827e-06
3.23575e-08
-2.31417e-06
3.14572e-08
-2.34468e-06
3.05069e-08
-2.37419e-06
2.95021e-08
-2.40264e-06
2.84457e-08
-2.42998e-06
2.73339e-08
-2.45614e-06
2.61696e-08
-2.48109e-06
2.49479e-08
-2.50475e-06
2.36725e-08
-2.52709e-06
2.23394e-08
-2.54802e-06
2.09515e-08
-2.56751e-06
1.95042e-08
-2.58548e-06
1.79969e-08
-2.60187e-06
1.64254e-08
-2.61663e-06
1.47834e-08
-2.62967e-06
1.30652e-08
-2.64093e-06
1.12637e-08
-2.65029e-06
9.36937e-09
-2.65764e-06
7.36618e-09
-2.66288e-06
5.2375e-09
-2.66586e-06
2.98474e-09
-2.66653e-06
6.74572e-10
-2.66505e-06
-1.47624e-09
-2.66163e-06
-3.42765e-09
-2.6563e-06
-5.32855e-09
-2.64908e-06
-7.22307e-09
-2.63996e-06
-9.12887e-09
-2.62892e-06
-1.10493e-08
-2.61594e-06
-1.29813e-08
-2.60102e-06
-1.49232e-08
-2.58414e-06
-1.68695e-08
-2.56532e-06
-1.88173e-08
-2.54454e-06
-2.07612e-08
-2.52182e-06
-2.26972e-08
-2.49718e-06
-2.46198e-08
-2.47063e-06
-2.65241e-08
-2.44219e-06
-2.84046e-08
-2.41191e-06
-3.02552e-08
-2.3798e-06
-3.2071e-08
-2.34592e-06
-3.38453e-08
-2.31031e-06
-3.55736e-08
-2.27302e-06
-3.72487e-08
-2.23412e-06
-3.8866e-08
-2.19367e-06
-4.04178e-08
-2.15173e-06
-4.18996e-08
-2.10837e-06
-4.33042e-08
-2.06369e-06
-4.46309e-08
-2.01777e-06
-4.58731e-08
-1.9707e-06
-4.70345e-08
-1.92255e-06
-4.8114e-08
-1.87342e-06
-4.91177e-08
-1.8234e-06
-5.00186e-08
-1.77259e-06
-5.08186e-08
-1.7211e-06
-5.15236e-08
-1.66901e-06
-5.21356e-08
-1.61642e-06
-5.26435e-08
-1.56345e-06
-5.30492e-08
-1.51019e-06
-5.33485e-08
-1.45675e-06
-5.35425e-08
-1.40322e-06
-5.36303e-08
-1.34971e-06
-5.36116e-08
-1.29631e-06
-5.34883e-08
-1.24312e-06
-5.32599e-08
-1.19024e-06
-5.29365e-08
-1.13774e-06
-5.25236e-08
-1.08571e-06
-5.20332e-08
-1.03424e-06
-5.14693e-08
-9.83375e-07
-5.08403e-08
-9.33189e-07
-5.01478e-08
-8.83731e-07
-4.94032e-08
-8.3505e-07
-4.86098e-08
-7.87179e-07
-4.77809e-08
-7.4015e-07
-4.69204e-08
-6.93976e-07
-4.60442e-08
-6.48668e-07
-4.51564e-08
-6.04219e-07
-4.42731e-08
-5.60621e-07
-4.34003e-08
-5.17842e-07
-4.25572e-08
-4.75849e-07
-4.17487e-08
-4.34589e-07
-4.0992e-08
-3.94007e-07
-4.02953e-08
-3.5402e-07
-3.96781e-08
-3.14553e-07
-3.91431e-08
-2.75499e-07
-3.87103e-08
-2.36754e-07
-3.83908e-08
-1.98191e-07
-3.81915e-08
-1.59696e-07
-3.81173e-08
-1.21069e-07
-3.82343e-08
-8.21851e-08
-3.84911e-08
-4.29845e-08
-3.87971e-08
-3.51637e-09
-3.90702e-08
3.60218e-08
-3.91347e-08
7.56188e-08
-3.9212e-08
1.1581e-07
-3.98126e-08
1.57169e-07
-4.10043e-08
2.0015e-07
-4.2634e-08
2.45044e-07
-4.4575e-08
2.92037e-07
-4.6684e-08
3.41109e-07
-4.87961e-08
3.91965e-07
-5.05948e-08
4.4371e-07
-5.15206e-08
4.9383e-07
-4.99141e-08
5.37139e-07
-4.31358e-08
-1.21436e-09
5.38512e-07
1.40784e-08
-2.65509e-08
2.30729e-08
-2.65194e-08
2.65061e-08
-1.95109e-08
2.58616e-08
-1.16427e-08
2.21375e-08
-3.85511e-09
1.58645e-08
3.52151e-09
7.31694e-09
1.02557e-08
-3.42554e-09
1.61906e-08
-1.63467e-08
2.12603e-08
-3.13932e-08
2.55078e-08
-4.84529e-08
2.90646e-08
-6.74088e-08
3.21058e-08
-8.81832e-08
3.48083e-08
-1.10635e-07
3.7334e-08
-1.34598e-07
3.9809e-08
-1.60051e-07
4.23123e-08
-1.86966e-07
4.48897e-08
-2.15322e-07
4.75545e-08
-2.45076e-07
5.02945e-08
-2.76185e-07
5.30809e-08
-3.08576e-07
5.58757e-08
-3.42174e-07
5.86373e-08
-3.76878e-07
6.13244e-08
-4.12588e-07
6.38983e-08
-4.49181e-07
6.63251e-08
-4.86545e-07
6.85771e-08
-5.24554e-07
7.06336e-08
-5.63098e-07
7.24826e-08
-6.02057e-07
7.4118e-08
-6.4134e-07
7.55369e-08
-6.80845e-07
7.67407e-08
-7.20498e-07
7.77375e-08
-7.60219e-07
7.85417e-08
-7.99956e-07
7.91704e-08
-8.39656e-07
7.96419e-08
-8.79293e-07
7.99753e-08
-9.18838e-07
8.01906e-08
-9.58288e-07
8.03071e-08
-9.97631e-07
8.03451e-08
-1.03688e-06
8.03252e-08
-1.07602e-06
8.02683e-08
-1.11505e-06
8.01912e-08
-1.15396e-06
8.01034e-08
-1.19275e-06
8.00068e-08
-1.23139e-06
7.99022e-08
-1.26989e-06
7.97891e-08
-1.30824e-06
7.96669e-08
-1.34645e-06
7.9534e-08
-1.3845e-06
7.93888e-08
-1.42239e-06
7.9229e-08
-1.46011e-06
7.90522e-08
-1.49766e-06
7.88554e-08
-1.53502e-06
7.86362e-08
-1.57217e-06
7.83908e-08
-1.60911e-06
7.81162e-08
-1.64581e-06
7.78083e-08
-1.68226e-06
7.74639e-08
-1.71844e-06
7.70787e-08
-1.75431e-06
7.66493e-08
-1.78987e-06
7.61714e-08
-1.82509e-06
7.56419e-08
-1.85993e-06
7.50567e-08
-1.89437e-06
7.44127e-08
-1.92837e-06
7.37056e-08
-1.96192e-06
7.29328e-08
-1.99497e-06
7.20904e-08
-2.02749e-06
7.11761e-08
-2.05945e-06
7.01864e-08
-2.09081e-06
6.91195e-08
-2.12153e-06
6.79722e-08
-2.15157e-06
6.67429e-08
-2.18091e-06
6.54285e-08
-2.20949e-06
6.40278e-08
-2.23728e-06
6.25381e-08
-2.26424e-06
6.09585e-08
-2.29033e-06
5.92869e-08
-2.3155e-06
5.75233e-08
-2.33971e-06
5.56657e-08
-2.36292e-06
5.37141e-08
-2.38509e-06
5.16664e-08
-2.40617e-06
4.95229e-08
-2.42611e-06
4.72816e-08
-2.44489e-06
4.4943e-08
-2.46244e-06
4.25052e-08
-2.47873e-06
3.99692e-08
-2.49373e-06
3.73335e-08
-2.50736e-06
3.45991e-08
-2.51961e-06
3.17639e-08
-2.53043e-06
2.88279e-08
-2.53977e-06
2.57882e-08
-2.54761e-06
2.26429e-08
-2.55393e-06
1.93911e-08
-2.55869e-06
1.60334e-08
-2.56189e-06
1.25737e-08
-2.56354e-06
9.02181e-09
-2.5637e-06
5.40255e-09
-2.56248e-06
1.75801e-09
-2.55993e-06
-1.86815e-09
-2.55592e-06
-5.48883e-09
-2.55021e-06
-9.14305e-09
-2.54271e-06
-1.2836e-08
-2.53337e-06
-1.65644e-08
-2.52217e-06
-2.0328e-08
-2.50911e-06
-2.41227e-08
-2.49415e-06
-2.79419e-08
-2.47729e-06
-3.17786e-08
-2.45853e-06
-3.56242e-08
-2.43787e-06
-3.94705e-08
-2.41532e-06
-4.33081e-08
-2.39087e-06
-4.71276e-08
-2.36456e-06
-5.09187e-08
-2.3364e-06
-5.46711e-08
-2.30641e-06
-5.83736e-08
-2.27463e-06
-6.20152e-08
-2.24109e-06
-6.55843e-08
-2.20585e-06
-6.90695e-08
-2.16894e-06
-7.24592e-08
-2.13042e-06
-7.57421e-08
-2.09036e-06
-7.89063e-08
-2.04881e-06
-8.19393e-08
-2.00586e-06
-8.48304e-08
-1.96156e-06
-8.75686e-08
-1.91601e-06
-9.01468e-08
-1.8693e-06
-9.2557e-08
-1.82151e-06
-9.47968e-08
-1.77274e-06
-9.68676e-08
-1.72307e-06
-9.87751e-08
-1.6726e-06
-1.00489e-07
-1.62143e-06
-1.02001e-07
-1.56964e-06
-1.03324e-07
-1.51735e-06
-1.04457e-07
-1.46464e-06
-1.05387e-07
-1.41161e-06
-1.06114e-07
-1.35838e-06
-1.06633e-07
-1.30503e-06
-1.06945e-07
-1.25167e-06
-1.07049e-07
-1.19839e-06
-1.06949e-07
-1.14528e-06
-1.06645e-07
-1.09243e-06
-1.06145e-07
-1.03992e-06
-1.0546e-07
-9.87854e-07
-1.04606e-07
-9.36291e-07
-1.03597e-07
-8.85306e-07
-1.0245e-07
-8.34958e-07
-1.01173e-07
-7.85302e-07
-9.97836e-08
-7.3638e-07
-9.82922e-08
-6.88232e-07
-9.6721e-08
-6.4088e-07
-9.50803e-08
-5.94347e-07
-9.33966e-08
-5.48636e-07
-9.1683e-08
-5.03745e-07
-8.99687e-08
-4.59655e-07
-8.82657e-08
-4.16346e-07
-8.66074e-08
-3.73772e-07
-8.50098e-08
-3.31887e-07
-8.35073e-08
-2.90622e-07
-8.21125e-08
-2.49904e-07
-8.0866e-08
-2.09632e-07
-7.97837e-08
-1.69708e-07
-7.89002e-08
-1.30003e-07
-7.82325e-08
-9.03826e-08
-7.78286e-08
-5.0692e-08
-7.76856e-08
-1.07916e-08
-7.78241e-08
2.94125e-08
-7.82337e-08
7.00336e-08
-7.89138e-08
1.11354e-07
-7.99131e-08
1.53717e-07
-8.12371e-08
1.97548e-07
-8.27662e-08
2.43144e-07
-8.46185e-08
2.90592e-07
-8.70688e-08
3.39983e-07
-9.02137e-08
3.91482e-07
-9.39528e-08
4.45195e-07
-9.81188e-08
5.01135e-07
-1.02459e-07
5.59119e-07
-1.06629e-07
6.18705e-07
-1.1004e-07
6.7881e-07
-1.11499e-07
7.37867e-07
-1.08857e-07
7.90678e-07
-9.58487e-08
-5.11128e-08
8.40664e-07
5.28274e-09
-3.18601e-08
3.54363e-09
-2.48098e-08
-2.03839e-09
-1.39467e-08
-1.01174e-08
-3.57847e-09
-2.00601e-08
6.07586e-09
-3.15755e-08
1.50251e-08
-4.45709e-08
2.32407e-08
-5.90737e-08
3.06824e-08
-7.51605e-08
3.73371e-08
-9.29077e-08
4.32441e-08
-1.1235e-07
4.84971e-08
-1.33481e-07
5.32259e-08
-1.56253e-07
5.75709e-08
-1.80591e-07
6.16615e-08
-2.06393e-07
6.5602e-08
-2.33555e-07
6.94646e-08
-2.61962e-07
7.3288e-08
-2.91498e-07
7.70818e-08
-3.22044e-07
8.08322e-08
-3.53483e-07
8.45105e-08
-3.85695e-07
8.808e-08
-4.18569e-07
9.15017e-08
-4.51992e-07
9.47389e-08
-4.85864e-07
9.77598e-08
-5.20087e-07
1.00539e-07
-5.5458e-07
1.0306e-07
-5.89265e-07
1.0531e-07
-6.24077e-07
1.07282e-07
-6.58949e-07
1.08981e-07
-6.93841e-07
1.10418e-07
-7.28719e-07
1.11609e-07
-7.63567e-07
1.12575e-07
-7.9837e-07
1.13337e-07
-8.33125e-07
1.13915e-07
-8.67824e-07
1.14334e-07
-9.02473e-07
1.14616e-07
-9.37072e-07
1.14783e-07
-9.7163e-07
1.14857e-07
-1.00615e-06
1.14856e-07
-1.04063e-06
1.148e-07
-1.07507e-06
1.14704e-07
-1.10947e-06
1.1458e-07
-1.14381e-06
1.14437e-07
-1.17808e-06
1.14277e-07
-1.21229e-06
1.14103e-07
-1.24642e-06
1.13915e-07
-1.28047e-06
1.13712e-07
-1.31443e-06
1.13492e-07
-1.3483e-06
1.13253e-07
-1.38207e-06
1.1299e-07
-1.41572e-06
1.12702e-07
-1.44925e-06
1.12382e-07
-1.48265e-06
1.12028e-07
-1.5159e-06
1.11635e-07
-1.54899e-06
1.11196e-07
-1.58189e-06
1.10708e-07
-1.6146e-06
1.10165e-07
-1.64709e-06
1.09562e-07
-1.67934e-06
1.08893e-07
-1.71133e-06
1.08153e-07
-1.74303e-06
1.07337e-07
-1.77442e-06
1.06441e-07
-1.80548e-06
1.05458e-07
-1.83616e-06
1.04385e-07
-1.86645e-06
1.03216e-07
-1.89631e-06
1.01947e-07
-1.92571e-06
1.00574e-07
-1.95463e-06
9.90934e-08
-1.98301e-06
9.7501e-08
-2.01083e-06
9.57933e-08
-2.03806e-06
9.39672e-08
-2.06465e-06
9.20193e-08
-2.09057e-06
8.9947e-08
-2.11578e-06
8.77475e-08
-2.14025e-06
8.54185e-08
-2.16392e-06
8.29579e-08
-2.18676e-06
8.03644e-08
-2.20873e-06
7.7636e-08
-2.22979e-06
7.47717e-08
-2.2499e-06
7.17698e-08
-2.269e-06
6.86297e-08
-2.28707e-06
6.535e-08
-2.30406e-06
6.19305e-08
-2.31992e-06
5.83704e-08
-2.33462e-06
5.46701e-08
-2.34811e-06
5.08294e-08
-2.36036e-06
4.68491e-08
-2.37132e-06
4.27296e-08
-2.38095e-06
3.84717e-08
-2.38923e-06
3.40762e-08
-2.39612e-06
2.95441e-08
-2.4016e-06
2.4879e-08
-2.40565e-06
2.00873e-08
-2.40825e-06
1.51786e-08
-2.4094e-06
1.01687e-08
-2.40908e-06
5.07984e-09
-2.40726e-06
-6.43512e-11
-2.40387e-06
-5.25525e-09
-2.39885e-06
-1.05153e-08
-2.39213e-06
-1.58624e-08
-2.38368e-06
-2.12883e-08
-2.37347e-06
-2.67824e-08
-2.36147e-06
-3.23355e-08
-2.34766e-06
-3.79368e-08
-2.33202e-06
-4.35758e-08
-2.31456e-06
-4.924e-08
-2.29527e-06
-5.49173e-08
-2.27414e-06
-6.05943e-08
-2.25118e-06
-6.62572e-08
-2.22641e-06
-7.18914e-08
-2.19984e-06
-7.74818e-08
-2.17148e-06
-8.30126e-08
-2.14137e-06
-8.84672e-08
-2.10955e-06
-9.38292e-08
-2.07603e-06
-9.90812e-08
-2.04088e-06
-1.04206e-07
-2.00414e-06
-1.09187e-07
-1.96586e-06
-1.14007e-07
-1.9261e-06
-1.18647e-07
-1.88493e-06
-1.23092e-07
-1.84242e-06
-1.27323e-07
-1.79864e-06
-1.31326e-07
-1.75367e-06
-1.35089e-07
-1.70761e-06
-1.38601e-07
-1.66053e-06
-1.41854e-07
-1.61254e-06
-1.44847e-07
-1.56372e-06
-1.47587e-07
-1.51416e-06
-1.50049e-07
-1.46395e-06
-1.52213e-07
-1.41319e-06
-1.54093e-07
-1.36198e-06
-1.55689e-07
-1.3104e-06
-1.5699e-07
-1.25855e-06
-1.57991e-07
-1.20653e-06
-1.58689e-07
-1.15443e-06
-1.59083e-07
-1.10234e-06
-1.59174e-07
-1.05036e-06
-1.58968e-07
-9.98561e-07
-1.5847e-07
-9.47037e-07
-1.57692e-07
-8.95863e-07
-1.56649e-07
-8.45114e-07
-1.55362e-07
-7.94862e-07
-1.53852e-07
-7.45167e-07
-1.52143e-07
-6.96083e-07
-1.50251e-07
-6.47655e-07
-1.48201e-07
-5.99919e-07
-1.46015e-07
-5.52902e-07
-1.43718e-07
-5.06625e-07
-1.41337e-07
-4.61092e-07
-1.38901e-07
-4.16305e-07
-1.3644e-07
-3.72246e-07
-1.33989e-07
-3.28894e-07
-1.31577e-07
-2.86212e-07
-1.29243e-07
-2.44151e-07
-1.27021e-07
-2.02649e-07
-1.24953e-07
-1.61635e-07
-1.23071e-07
-1.21016e-07
-1.21421e-07
-8.06931e-08
-1.20044e-07
-4.0547e-08
-1.18979e-07
-4.56416e-10
-1.18257e-07
3.97042e-08
-1.17919e-07
8.00855e-08
-1.18e-07
1.20885e-07
-1.18555e-07
1.62318e-07
-1.19601e-07
2.04619e-07
-1.21148e-07
2.48009e-07
-1.23241e-07
2.9273e-07
-1.25895e-07
3.39098e-07
-1.29075e-07
3.87392e-07
-1.32852e-07
4.37755e-07
-1.37375e-07
4.90282e-07
-1.42685e-07
5.45059e-07
-1.48677e-07
6.02123e-07
-1.55131e-07
6.61421e-07
-1.61708e-07
7.22741e-07
-1.67901e-07
7.85638e-07
-1.72893e-07
8.4932e-07
-1.7514e-07
9.12604e-07
-1.72105e-07
9.74e-07
-1.5721e-07
-1.16294e-07
1.03922e-06
-4.62209e-09
-2.72599e-08
-1.43956e-08
-1.50584e-08
-2.60833e-08
-2.27213e-09
-3.89999e-08
9.32731e-09
-5.29212e-08
1.99885e-08
-6.7785e-08
2.98801e-08
-8.36131e-08
3.9061e-08
-1.00482e-07
4.75425e-08
-1.18488e-07
5.53355e-08
-1.37726e-07
6.24736e-08
-1.58256e-07
6.90194e-08
-1.80097e-07
7.50588e-08
-2.03221e-07
8.06876e-08
-2.27564e-07
8.59968e-08
-2.5303e-07
9.10613e-08
-2.79507e-07
9.59338e-08
-3.06868e-07
1.00643e-07
-3.34988e-07
1.05195e-07
-3.63742e-07
1.0958e-07
-3.93015e-07
1.13777e-07
-4.227e-07
1.17759e-07
-4.52705e-07
1.21499e-07
-4.82944e-07
1.24973e-07
-5.13352e-07
1.2816e-07
-5.43867e-07
1.31049e-07
-5.74445e-07
1.33631e-07
-6.05049e-07
1.35907e-07
-6.35659e-07
1.37884e-07
-6.6626e-07
1.39575e-07
-6.96849e-07
1.40998e-07
-7.27422e-07
1.42176e-07
-7.57986e-07
1.4313e-07
-7.88541e-07
1.43885e-07
-8.19098e-07
1.44464e-07
-8.49662e-07
1.44891e-07
-8.80242e-07
1.45189e-07
-9.10843e-07
1.45378e-07
-9.41472e-07
1.45478e-07
-9.72128e-07
1.45507e-07
-1.00281e-06
1.45478e-07
-1.03352e-06
1.45405e-07
-1.06424e-06
1.45297e-07
-1.09497e-06
1.45161e-07
-1.1257e-06
1.45002e-07
-1.15642e-06
1.4482e-07
-1.18713e-06
1.44618e-07
-1.21781e-06
1.44392e-07
-1.24846e-06
1.44142e-07
-1.27908e-06
1.43863e-07
-1.30964e-06
1.43551e-07
-1.34014e-06
1.43202e-07
-1.37057e-06
1.4281e-07
-1.40092e-06
1.4237e-07
-1.43117e-06
1.41876e-07
-1.46129e-06
1.41321e-07
-1.49129e-06
1.40699e-07
-1.52113e-06
1.40004e-07
-1.55081e-06
1.39228e-07
-1.58028e-06
1.38366e-07
-1.60955e-06
1.3741e-07
-1.63857e-06
1.36355e-07
-1.66733e-06
1.35193e-07
-1.6958e-06
1.33919e-07
-1.72394e-06
1.32527e-07
-1.75174e-06
1.3101e-07
-1.77917e-06
1.29363e-07
-1.80618e-06
1.27581e-07
-1.83275e-06
1.25659e-07
-1.85884e-06
1.23592e-07
-1.88442e-06
1.21375e-07
-1.90946e-06
1.19004e-07
-1.93392e-06
1.16475e-07
-1.95776e-06
1.13785e-07
-1.98094e-06
1.10929e-07
-2.00343e-06
1.07906e-07
-2.02518e-06
1.04712e-07
-2.04616e-06
1.01345e-07
-2.06633e-06
9.78028e-08
-2.08564e-06
9.4084e-08
-2.10406e-06
9.01867e-08
-2.12154e-06
8.611e-08
-2.13804e-06
8.18526e-08
-2.15352e-06
7.74142e-08
-2.16795e-06
7.27946e-08
-2.18127e-06
6.7994e-08
-2.19345e-06
6.30133e-08
-2.20445e-06
5.78536e-08
-2.21424e-06
5.25168e-08
-2.22276e-06
4.7005e-08
-2.23e-06
4.13207e-08
-2.23591e-06
3.54678e-08
-2.24048e-06
2.94515e-08
-2.24368e-06
2.328e-08
-2.24546e-06
1.69642e-08
-2.24581e-06
1.05179e-08
-2.24469e-06
3.95644e-09
-2.24205e-06
-2.7082e-09
-2.23783e-06
-9.47497e-09
-2.232e-06
-1.63541e-08
-2.22451e-06
-2.33494e-08
-2.21536e-06
-3.04515e-08
-2.2045e-06
-3.76469e-08
-2.19191e-06
-4.49223e-08
-2.17759e-06
-5.22623e-08
-2.16152e-06
-5.96522e-08
-2.14368e-06
-6.70752e-08