/*--------------------------------*- C++ -*----------------------------------*\
| =========                 |                                                 |
| \\      /  F ield         | OpenFOAM: The Open Source CFD Toolbox           |
|  \\    /   O peration     | Version:  2312                                  |
|   \\  /    A nd           | Website:  www.openfoam.com                      |
|    \\/     M anipulation  |                                                 |
\*---------------------------------------------------------------------------*/
FoamFile
{
    version     2.0;
    format      ascii;
    arch        "LSB;label=32;scalar=64";
    class       volVectorField;
    location    "7.375";
    object      diffU;
}
// * * * * * * * * * * * * * * * * * * * * * * * * * * * * * * * * * * * * * //

dimensions      [0 1 -1 0 0 0 0];

internalField   nonuniform List<vector> 
400
(
(0 0 0)
(2.03171e-14 -2.16027e-13 0)
(1.58762e-14 -1.67957e-13 0)
(1.63203e-14 -1.79038e-13 0)
(1.62093e-14 -1.76543e-13 0)
(1.59872e-14 -1.77127e-13 0)
(1.60982e-14 -1.77049e-13 0)
(1.59872e-14 -1.77034e-13 0)
(1.56541e-14 -1.76962e-13 0)
(1.57652e-14 -1.77016e-13 0)
(1.55431e-14 -1.7701e-13 0)
(1.54321e-14 -1.76994e-13 0)
(1.54321e-14 -1.76947e-13 0)
(1.54321e-14 -1.76967e-13 0)
(1.5099e-14 -1.7702e-13 0)
(1.52101e-14 -1.77034e-13 0)
(1.4877e-14 -1.76993e-13 0)
(1.5099e-14 -1.77058e-13 0)
(1.5099e-14 -1.77127e-13 0)
(1.5099e-14 -1.77099e-13 0)
(5.35127e-14 -1.84992e-13 0)
(5.10703e-15 -1.75363e-13 0)
(1.55431e-14 -1.77445e-13 0)
(1.42109e-14 -1.76901e-13 0)
(1.44329e-14 -1.77027e-13 0)
(1.46549e-14 -1.77058e-13 0)
(1.4877e-14 -1.77009e-13 0)
(1.46549e-14 -1.76954e-13 0)
(1.4877e-14 -1.76875e-13 0)
(1.5099e-14 -1.7684e-13 0)
(1.4877e-14 -1.76823e-13 0)
(1.4877e-14 -1.76994e-13 0)
(1.4877e-14 -1.77043e-13 0)
(1.46549e-14 -1.77044e-13 0)
(1.4877e-14 -1.77047e-13 0)
(1.4877e-14 -1.77018e-13 0)
(1.4877e-14 -1.76897e-13 0)
(1.4877e-14 -1.77075e-13 0)
(1.4877e-14 -1.77262e-13 0)
(1.4877e-14 -1.77204e-13 0)
(3.77476e-15 -3.17008e-13 0)
(1.88738e-14 -1.45783e-13 0)
(1.5099e-14 -1.83986e-13 0)
(1.5099e-14 -1.75153e-13 0)
(1.5099e-14 -1.77228e-13 0)
(1.4877e-14 -1.76976e-13 0)
(1.44329e-14 -1.77198e-13 0)
(1.46549e-14 -1.77232e-13 0)
(1.5099e-14 -1.77229e-13 0)
(1.5099e-14 -1.77094e-13 0)
(1.55431e-14 -1.76964e-13 0)
(1.57652e-14 -1.76982e-13 0)
(1.54321e-14 -1.77e-13 0)
(1.55431e-14 -1.76993e-13 0)
(1.54321e-14 -1.76901e-13 0)
(1.5099e-14 -1.76923e-13 0)
(1.5099e-14 -1.77064e-13 0)
(1.53211e-14 -1.77206e-13 0)
(1.53211e-14 -1.77249e-13 0)
(1.5099e-14 -1.77227e-13 0)
(-7.10543e-15 -4.25301e-14 0)
(1.96509e-14 -2.06348e-13 0)
(1.37668e-14 -1.70026e-13 0)
(1.5099e-14 -1.78494e-13 0)
(1.5099e-14 -1.76635e-13 0)
(1.54321e-14 -1.77059e-13 0)
(1.55431e-14 -1.77018e-13 0)
(1.5099e-14 -1.7708e-13 0)
(1.5099e-14 -1.77096e-13 0)
(1.5099e-14 -1.7714e-13 0)
(1.46549e-14 -1.7712e-13 0)
(1.46549e-14 -1.76988e-13 0)
(1.4877e-14 -1.76887e-13 0)
(1.46549e-14 -1.76905e-13 0)
(1.46549e-14 -1.76944e-13 0)
(1.5099e-14 -1.77029e-13 0)
(1.53211e-14 -1.77185e-13 0)
(1.5099e-14 -1.77184e-13 0)
(1.5099e-14 -1.77146e-13 0)
(1.53211e-14 -1.77147e-13 0)
(4.36318e-14 -2.14117e-13 0)
(7.32747e-15 -1.69498e-13 0)
(1.58762e-14 -1.7904e-13 0)
(1.46549e-14 -1.76832e-13 0)
(1.4877e-14 -1.77259e-13 0)
(1.46549e-14 -1.77152e-13 0)
(1.4877e-14 -1.7709e-13 0)
(1.4877e-14 -1.77124e-13 0)
(1.5099e-14 -1.77242e-13 0)
(1.5099e-14 -1.77146e-13 0)
(1.52101e-14 -1.76974e-13 0)
(1.54321e-14 -1.76908e-13 0)
(1.54321e-14 -1.76943e-13 0)
(1.53211e-14 -1.76957e-13 0)
(1.53211e-14 -1.7705e-13 0)
(1.5099e-14 -1.77106e-13 0)
(1.5099e-14 -1.77095e-13 0)
(1.5099e-14 -1.77069e-13 0)
(1.5099e-14 -1.77172e-13 0)
(1.5099e-14 -1.77123e-13 0)
(-1.02141e-14 -2.75317e-13 0)
(2.23155e-14 -1.56099e-13 0)
(1.4877e-14 -1.81952e-13 0)
(1.57652e-14 -1.75939e-13 0)
(1.52101e-14 -1.77217e-13 0)
(1.52101e-14 -1.77103e-13 0)
(1.52101e-14 -1.77237e-13 0)
(1.52101e-14 -1.77137e-13 0)
(1.5099e-14 -1.77154e-13 0)
(1.44329e-14 -1.77049e-13 0)
(1.42109e-14 -1.77028e-13 0)
(1.46549e-14 -1.77082e-13 0)
(1.4877e-14 -1.77072e-13 0)
(1.46549e-14 -1.77012e-13 0)
(1.5099e-14 -1.7701e-13 0)
(1.4877e-14 -1.7702e-13 0)
(1.4877e-14 -1.77125e-13 0)
(1.5099e-14 -1.77193e-13 0)
(1.52101e-14 -1.77157e-13 0)
(1.52101e-14 -1.77088e-13 0)
(2.73115e-14 -1.40321e-14 0)
(1.26565e-14 -2.12302e-13 0)
(1.59872e-14 -1.68719e-13 0)
(1.4877e-14 -1.78772e-13 0)
(1.5099e-14 -1.76563e-13 0)
(1.5099e-14 -1.77035e-13 0)
(1.5099e-14 -1.76942e-13 0)
(1.4877e-14 -1.76893e-13 0)
(1.4877e-14 -1.76946e-13 0)
(1.4877e-14 -1.77083e-13 0)
(1.5099e-14 -1.77198e-13 0)
(1.54321e-14 -1.77211e-13 0)
(1.5099e-14 -1.77103e-13 0)
(1.52101e-14 -1.77089e-13 0)
(1.54321e-14 -1.77016e-13 0)
(1.54321e-14 -1.77017e-13 0)
(1.54321e-14 -1.77108e-13 0)
(1.52101e-14 -1.77216e-13 0)
(1.52101e-14 -1.77034e-13 0)
(1.52101e-14 -1.77031e-13 0)
(2.17604e-14 -2.54413e-13 0)
(1.11022e-14 -1.60019e-13 0)
(1.37668e-14 -1.81227e-13 0)
(1.46549e-14 -1.76179e-13 0)
(1.46549e-14 -1.77286e-13 0)
(1.4877e-14 -1.76951e-13 0)
(1.46549e-14 -1.77011e-13 0)
(1.4877e-14 -1.76995e-13 0)
(1.5099e-14 -1.76933e-13 0)
(1.44329e-14 -1.77029e-13 0)
(1.44329e-14 -1.7711e-13 0)
(1.44329e-14 -1.7709e-13 0)
(1.44329e-14 -1.77105e-13 0)
(1.44329e-14 -1.77167e-13 0)
(1.44329e-14 -1.77166e-13 0)
(1.46549e-14 -1.77168e-13 0)
(1.5099e-14 -1.77167e-13 0)
(1.4877e-14 -1.77153e-13 0)
(1.4877e-14 -1.77097e-13 0)
(1.5099e-14 -1.77049e-13 0)
(5.32907e-15 -2.33947e-13 0)
(1.88738e-14 -1.65383e-13 0)
(1.54321e-14 -1.80024e-13 0)
(1.4877e-14 -1.7644e-13 0)
(1.52101e-14 -1.77135e-13 0)
(1.5099e-14 -1.76972e-13 0)
(1.5099e-14 -1.77127e-13 0)
(1.5099e-14 -1.77172e-13 0)
(1.5099e-14 -1.76977e-13 0)
(1.54321e-14 -1.76924e-13 0)
(1.55431e-14 -1.77017e-13 0)
(1.54321e-14 -1.77084e-13 0)
(1.54321e-14 -1.77148e-13 0)
(1.55431e-14 -1.77198e-13 0)
(1.53211e-14 -1.77308e-13 0)
(1.55431e-14 -1.77286e-13 0)
(1.53211e-14 -1.77231e-13 0)
(1.54321e-14 -1.77131e-13 0)
(1.52101e-14 -1.77104e-13 0)
(1.5099e-14 -1.77069e-13 0)
(1.82077e-14 -4.81239e-14 0)
(1.44329e-14 -2.05113e-13 0)
(1.5099e-14 -1.7061e-13 0)
(1.55431e-14 -1.78496e-13 0)
(1.53211e-14 -1.76733e-13 0)
(1.53211e-14 -1.77073e-13 0)
(1.57652e-14 -1.76998e-13 0)
(1.53211e-14 -1.77076e-13 0)
(1.56541e-14 -1.77053e-13 0)
(1.53211e-14 -1.77038e-13 0)
(1.55431e-14 -1.77045e-13 0)
(1.54321e-14 -1.77064e-13 0)
(1.54321e-14 -1.77074e-13 0)
(1.53211e-14 -1.77151e-13 0)
(1.52101e-14 -1.7728e-13 0)
(1.53211e-14 -1.77252e-13 0)
(1.53211e-14 -1.77081e-13 0)
(1.5099e-14 -1.76979e-13 0)
(1.5099e-14 -1.77011e-13 0)
(1.5099e-14 -1.77087e-13 0)
(8.65974e-15 -3.08319e-13 0)
(1.64313e-14 -1.48409e-13 0)
(1.46549e-14 -1.83582e-13 0)
(1.55431e-14 -1.7568e-13 0)
(1.52101e-14 -1.77401e-13 0)
(1.53211e-14 -1.76967e-13 0)
(1.53211e-14 -1.77009e-13 0)
(1.5099e-14 -1.77032e-13 0)
(1.5099e-14 -1.77092e-13 0)
(1.52101e-14 -1.77054e-13 0)
(1.53211e-14 -1.77108e-13 0)
(1.53211e-14 -1.77166e-13 0)
(1.54321e-14 -1.77072e-13 0)
(1.54321e-14 -1.77012e-13 0)
(1.53211e-14 -1.77136e-13 0)
(1.4877e-14 -1.7722e-13 0)
(1.46549e-14 -1.77147e-13 0)
(1.4877e-14 -1.77085e-13 0)
(1.5099e-14 -1.77077e-13 0)
(1.5099e-14 -1.77098e-13 0)
(2.68674e-14 -7.52446e-14 0)
(1.31006e-14 -1.99741e-13 0)
(1.63203e-14 -1.71786e-13 0)
(1.46549e-14 -1.78403e-13 0)
(1.53211e-14 -1.76851e-13 0)
(1.52101e-14 -1.7703e-13 0)
(1.53211e-14 -1.76892e-13 0)
(1.53211e-14 -1.77015e-13 0)
(1.53211e-14 -1.77132e-13 0)
(1.52101e-14 -1.77086e-13 0)
(1.53211e-14 -1.77058e-13 0)
(1.5099e-14 -1.77121e-13 0)
(1.46549e-14 -1.77139e-13 0)
(1.5099e-14 -1.77062e-13 0)
(1.53211e-14 -1.77023e-13 0)
(1.53211e-14 -1.77095e-13 0)
(1.53211e-14 -1.77128e-13 0)
(1.52101e-14 -1.77076e-13 0)
(1.4877e-14 -1.77038e-13 0)
(1.52101e-14 -1.7712e-13 0)
(1.35447e-14 -2.10155e-13 0)
(1.35447e-14 -1.69492e-13 0)
(1.35447e-14 -1.78942e-13 0)
(1.5099e-14 -1.76721e-13 0)
(1.44329e-14 -1.77292e-13 0)
(1.44329e-14 -1.77087e-13 0)
(1.44329e-14 -1.77047e-13 0)
(1.46549e-14 -1.77078e-13 0)
(1.46549e-14 -1.77075e-13 0)
(1.46549e-14 -1.77011e-13 0)
(1.46549e-14 -1.76901e-13 0)
(1.4877e-14 -1.76954e-13 0)
(1.44329e-14 -1.77194e-13 0)
(1.46549e-14 -1.77302e-13 0)
(1.46549e-14 -1.77204e-13 0)
(1.46549e-14 -1.77124e-13 0)
(1.46549e-14 -1.77088e-13 0)
(1.44329e-14 -1.77116e-13 0)
(1.4877e-14 -1.77162e-13 0)
(1.5099e-14 -1.772e-13 0)
(7.10543e-15 -2.54258e-13 0)
(1.83187e-14 -1.60279e-13 0)
(1.57652e-14 -1.80984e-13 0)
(1.5099e-14 -1.76201e-13 0)
(1.54321e-14 -1.77163e-13 0)
(1.54321e-14 -1.76983e-13 0)
(1.55431e-14 -1.77129e-13 0)
(1.53211e-14 -1.7719e-13 0)
(1.52101e-14 -1.77138e-13 0)
(1.54321e-14 -1.7702e-13 0)
(1.52101e-14 -1.7703e-13 0)
(1.53211e-14 -1.77006e-13 0)
(1.53211e-14 -1.77104e-13 0)
(1.52101e-14 -1.77244e-13 0)
(1.52101e-14 -1.77274e-13 0)
(1.53211e-14 -1.77155e-13 0)
(1.54321e-14 -1.77111e-13 0)
(1.53211e-14 -1.77174e-13 0)
(1.54321e-14 -1.77201e-13 0)
(1.5099e-14 -1.7719e-13 0)
(1.28786e-14 -1.43668e-14 0)
(1.5099e-14 -2.12829e-13 0)
(1.4877e-14 -1.68808e-13 0)
(1.5099e-14 -1.78928e-13 0)
(1.46549e-14 -1.76661e-13 0)
(1.5099e-14 -1.77209e-13 0)
(1.5099e-14 -1.77055e-13 0)
(1.52101e-14 -1.7701e-13 0)
(1.4877e-14 -1.77049e-13 0)
(1.5099e-14 -1.77115e-13 0)
(1.54321e-14 -1.77129e-13 0)
(1.53211e-14 -1.77005e-13 0)
(1.53211e-14 -1.76969e-13 0)
(1.52101e-14 -1.771e-13 0)
(1.5099e-14 -1.77256e-13 0)
(1.46549e-14 -1.77224e-13 0)
(1.46549e-14 -1.77141e-13 0)
(1.4877e-14 -1.77139e-13 0)
(1.5099e-14 -1.77142e-13 0)
(1.52101e-14 -1.77119e-13 0)
(3.67484e-14 -3.0092e-13 0)
(8.65974e-15 -1.49797e-13 0)
(1.5099e-14 -1.83496e-13 0)
(1.44329e-14 -1.75645e-13 0)
(1.46549e-14 -1.77507e-13 0)
(1.46549e-14 -1.77192e-13 0)
(1.44329e-14 -1.77174e-13 0)
(1.46549e-14 -1.77033e-13 0)
(1.46549e-14 -1.77087e-13 0)
(1.4877e-14 -1.77191e-13 0)
(1.46549e-14 -1.77096e-13 0)
(1.46549e-14 -1.76978e-13 0)
(1.46549e-14 -1.76948e-13 0)
(1.5099e-14 -1.77051e-13 0)
(1.54321e-14 -1.77119e-13 0)
(1.52101e-14 -1.77221e-13 0)
(1.4877e-14 -1.7724e-13 0)
(1.53211e-14 -1.77249e-13 0)
(1.5099e-14 -1.77229e-13 0)
(1.5099e-14 -1.77137e-13 0)
(-1.9984e-14 -1.88678e-13 0)
(2.38698e-14 -1.74818e-13 0)
(1.39888e-14 -1.77662e-13 0)
(1.4877e-14 -1.76952e-13 0)
(1.44329e-14 -1.77104e-13 0)
(1.44329e-14 -1.77149e-13 0)
(1.44329e-14 -1.77222e-13 0)
(1.46549e-14 -1.77166e-13 0)
(1.46549e-14 -1.77067e-13 0)
(1.46549e-14 -1.77147e-13 0)
(1.46549e-14 -1.77253e-13 0)
(1.4877e-14 -1.77322e-13 0)
(1.52101e-14 -1.77319e-13 0)
(1.52101e-14 -1.77293e-13 0)
(1.54321e-14 -1.77138e-13 0)
(1.52101e-14 -1.77082e-13 0)
(1.52101e-14 -1.77122e-13 0)
(1.5099e-14 -1.77149e-13 0)
(1.5099e-14 -1.77196e-13 0)
(1.5099e-14 -1.77179e-13 0)
(1.69864e-14 -4.7476e-14 0)
(1.46549e-14 -2.05752e-13 0)
(1.53211e-14 -1.70306e-13 0)
(1.55431e-14 -1.78567e-13 0)
(1.56541e-14 -1.76809e-13 0)
(1.57652e-14 -1.77185e-13 0)
(1.57652e-14 -1.77124e-13 0)
(1.55431e-14 -1.77176e-13 0)
(1.56541e-14 -1.77079e-13 0)
(1.56541e-14 -1.77045e-13 0)
(1.55431e-14 -1.77122e-13 0)
(1.55431e-14 -1.7733e-13 0)
(1.53211e-14 -1.77378e-13 0)
(1.52101e-14 -1.77278e-13 0)
(1.5099e-14 -1.77107e-13 0)
(1.5099e-14 -1.76948e-13 0)
(1.4877e-14 -1.77015e-13 0)
(1.53211e-14 -1.77125e-13 0)
(1.52101e-14 -1.77108e-13 0)
(1.52101e-14 -1.77087e-13 0)
(5.01821e-14 -2.41279e-13 0)
(6.21725e-15 -1.63458e-13 0)
(1.63203e-14 -1.80315e-13 0)
(1.44329e-14 -1.76426e-13 0)
(1.46549e-14 -1.77303e-13 0)
(1.44329e-14 -1.77055e-13 0)
(1.44329e-14 -1.77066e-13 0)
(1.4877e-14 -1.77134e-13 0)
(1.46549e-14 -1.77144e-13 0)
(1.4877e-14 -1.77056e-13 0)
(1.5099e-14 -1.77036e-13 0)
(1.4877e-14 -1.77173e-13 0)
(1.4877e-14 -1.77225e-13 0)
(1.4877e-14 -1.77141e-13 0)
(1.4877e-14 -1.77078e-13 0)
(1.46549e-14 -1.77069e-13 0)
(1.5099e-14 -1.77135e-13 0)
(1.5099e-14 -1.77176e-13 0)
(1.5099e-14 -1.77138e-13 0)
(1.5099e-14 -1.77067e-13 0)
(-6.66134e-16 -2.58141e-13 0)
(1.96509e-14 -1.59635e-13 0)
(1.54321e-14 -1.81159e-13 0)
(1.58762e-14 -1.76125e-13 0)
(1.58762e-14 -1.77256e-13 0)
(1.58762e-14 -1.77093e-13 0)
(1.59872e-14 -1.77209e-13 0)
(1.58762e-14 -1.77217e-13 0)
(1.56541e-14 -1.77232e-13 0)
(1.56541e-14 -1.77204e-13 0)
(1.56541e-14 -1.77156e-13 0)
(1.56541e-14 -1.77144e-13 0)
(1.55431e-14 -1.77168e-13 0)
(1.54321e-14 -1.77138e-13 0)
(1.52101e-14 -1.77136e-13 0)
(1.52101e-14 -1.77181e-13 0)
(1.52101e-14 -1.77173e-13 0)
(1.5099e-14 -1.77137e-13 0)
(1.52101e-14 -1.77154e-13 0)
(1.52101e-14 -1.77104e-13 0)
)
;

boundaryField
{
    movingWall
    {
        type            calculated;
        value           uniform (1.5099e-14 -1.77078e-13 0);
    }
    fixedWalls
    {
        type            calculated;
        value           uniform (1.5099e-14 -1.77078e-13 0);
    }
    frontAndBack
    {
        type            empty;
    }
}


// ************************************************************************* //
