/*--------------------------------*- C++ -*----------------------------------*\
| =========                 |                                                 |
| \\      /  F ield         | OpenFOAM: The Open Source CFD Toolbox           |
|  \\    /   O peration     | Version:  2312                                  |
|   \\  /    A nd           | Website:  www.openfoam.com                      |
|    \\/     M anipulation  |                                                 |
\*---------------------------------------------------------------------------*/
FoamFile
{
    version     2.0;
    format      ascii;
    arch        "LSB;label=32;scalar=64";
    class       volScalarField;
    location    "7.375";
    object      enstrophyField;
}
// * * * * * * * * * * * * * * * * * * * * * * * * * * * * * * * * * * * * * //

dimensions      [0 0 -2 0 0 0 0];

internalField   nonuniform List<scalar> 
400
(
6.59151e-23
1.3253e-22
6.34881e-24
4.16621e-25
6.03497e-27
5.48954e-27
2.59918e-27
1.03852e-27
1.37059e-27
1.73949e-27
3.09079e-28
1.99778e-29
3.53714e-30
2.692e-29
2.27141e-29
3.58259e-30
1.34625e-27
8.87841e-29
8.50761e-30
2.47269e-29
4.99516e-25
3.96244e-25
2.62841e-27
1.12873e-26
7.18477e-27
9.4285e-27
1.49681e-26
1.1086e-26
7.17626e-27
1.76476e-27
1.17704e-28
2.89934e-27
5.16517e-28
7.26508e-32
3.46203e-30
1.11563e-28
1.79406e-27
6.64534e-28
8.33708e-29
4.8175e-28
1.13522e-23
7.00751e-23
3.77377e-24
1.76687e-25
3.47583e-26
3.06787e-27
1.38695e-27
4.55589e-28
8.17654e-28
3.52235e-28
7.33587e-28
2.76054e-28
5.82483e-31
4.90814e-29
2.42613e-29
1.32486e-28
1.53241e-27
1.04311e-27
4.25515e-28
1.24665e-29
2.123e-23
6.74093e-23
3.65603e-24
1.84059e-25
1.95536e-26
7.32557e-28
3.47787e-27
1.92647e-27
1.84985e-29
2.89075e-30
2.41267e-27
1.27091e-27
6.2578e-28
1.17865e-27
7.70253e-29
2.91392e-28
1.1995e-28
4.82885e-28
4.7621e-28
9.39431e-29
3.43413e-24
5.32616e-24
3.54388e-25
4.68422e-27
3.71387e-27
2.52526e-27
4.46363e-28
1.15438e-28
2.26699e-30
5.84563e-27
1.29559e-27
5.02255e-30
5.12534e-28
2.11132e-27
8.82677e-28
9.97347e-30
3.61687e-27
2.99704e-29
1.4829e-29
8.45836e-28
1.8604e-23
3.86708e-23
1.96816e-24
9.96465e-26
1.0286e-26
1.58033e-27
5.98912e-30
3.44405e-29
1.98894e-27
7.94849e-29
5.5112e-30
9.53345e-30
3.89883e-27
1.82386e-27
3.13049e-31
6.61307e-29
2.55568e-27
5.04173e-30
1.38372e-28
1.65107e-28
4.56641e-23
1.03068e-22
5.99067e-24
2.10509e-25
3.25136e-26
7.18354e-28
2.34602e-27
1.45013e-27
2.68315e-27
3.17804e-28
8.15341e-29
2.02715e-27
7.72328e-28
3.79205e-29
3.91548e-27
4.20292e-29
2.74371e-27
2.74506e-29
1.03615e-27
4.03581e-29
7.34286e-24
2.27772e-23
1.26228e-24
7.76577e-26
2.9764e-27
3.33295e-27
9.79311e-30
3.04757e-29
5.66085e-30
1.00375e-27
5.50763e-28
1.32601e-31
6.07005e-28
1.81585e-27
6.88085e-33
1.35351e-32
4.10677e-28
2.47784e-29
5.32642e-29
3.43712e-28
8.56132e-24
1.27e-23
7.70362e-25
1.63029e-26
1.30569e-26
3.24412e-27
8.24556e-27
2.19943e-27
4.32473e-28
6.32039e-27
1.14793e-26
7.38161e-27
7.17673e-27
2.46245e-27
4.06753e-27
1.08109e-27
6.68638e-29
8.64913e-28
2.19261e-28
1.72881e-30
4.71649e-23
7.20562e-23
3.83675e-24
2.22077e-25
1.01261e-26
1.43666e-27
3.76134e-28
1.51287e-29
7.11628e-30
2.5652e-31
3.00401e-28
4.21643e-30
3.72965e-29
2.12257e-28
6.92399e-28
2.75239e-27
3.32065e-27
1.87361e-27
1.33252e-28
1.6616e-29
6.15782e-23
7.91553e-23
4.01985e-24
2.44573e-25
5.16794e-27
7.69536e-28
2.12165e-28
3.47764e-29
3.10913e-28
3.25908e-28
6.30596e-29
4.69537e-28
2.42451e-27
2.1413e-28
2.15279e-28
5.39747e-31
9.02962e-29
2.41515e-29
1.3992e-27
3.13673e-28
2.75952e-23
4.37674e-23
2.5138e-24
1.02284e-25
2.3892e-26
5.44675e-27
6.04631e-27
4.64521e-30
2.75051e-27
3.93997e-27
1.2889e-27
1.8083e-28
3.80531e-27
4.3115e-27
5.51872e-27
5.47755e-29
1.90413e-30
1.99907e-27
9.94336e-30
4.07974e-32
1.47624e-25
3.39643e-24
2.42061e-25
6.12916e-27
6.70104e-28
3.01049e-28
1.42321e-27
1.32293e-27
2.2712e-29
6.79555e-28
1.79447e-27
4.27395e-28
1.91627e-27
4.78114e-31
1.58447e-28
6.72513e-29
3.073e-31
2.75606e-29
4.02178e-27
1.13948e-27
1.79041e-23
2.58613e-23
1.49247e-24
7.30147e-26
8.7607e-27
5.51642e-27
2.80881e-27
3.38244e-27
6.91334e-28
9.39861e-28
5.73217e-27
1.89825e-27
8.73959e-27
4.83238e-27
2.62303e-27
1.31942e-28
1.72989e-30
1.99436e-27
4.12196e-28
2.77812e-28
4.74479e-23
1.05453e-22
6.11996e-24
2.67187e-25
3.20683e-26
2.38014e-27
1.20734e-26
3.35422e-27
2.50635e-27
1.06672e-27
2.12715e-27
2.46597e-27
4.89217e-27
1.28549e-30
7.81747e-28
2.16093e-27
4.03942e-27
9.98308e-33
1.57826e-27
5.60988e-29
2.05027e-23
5.94284e-23
3.27096e-24
1.95931e-25
5.04254e-27
1.82022e-27
2.45604e-27
6.42883e-28
1.24289e-28
3.23625e-27
5.26071e-27
4.61054e-27
2.64843e-29
1.45804e-28
1.44532e-28
4.36341e-27
3.54282e-27
3.36975e-28
6.31602e-29
2.2191e-28
5.74304e-25
1.14292e-25
2.27685e-26
1.38357e-27
1.2052e-26
4.32919e-27
9.4177e-27
2.16806e-27
3.15135e-27
4.99347e-27
4.87958e-27
6.61057e-27
3.07905e-27
4.05403e-29
2.2273e-28
1.2348e-30
2.21413e-29
2.70946e-29
4.70055e-30
2.42163e-28
4.71997e-24
5.53478e-23
3.06189e-24
1.94187e-25
9.53992e-27
4.96107e-28
4.27777e-31
2.55591e-28
9.84406e-29
1.708e-27
3.41661e-27
3.29139e-28
5.227e-28
1.46781e-27
9.99864e-27
4.09898e-27
1.57452e-28
4.32259e-29
7.48608e-30
7.87304e-30
5.43318e-24
1.57276e-23
8.40836e-25
3.75696e-26
6.85589e-27
2.82173e-28
6.12006e-28
6.10794e-28
3.02366e-29
5.86188e-29
6.85703e-29
1.05818e-27
2.85545e-28
7.65048e-29
1.1033e-27
1.64129e-29
7.16211e-28
3.58915e-28
1.30866e-28
2.4473e-28
9.84643e-24
2.6387e-23
1.10471e-24
8.71121e-26
9.06322e-28
1.10586e-29
1.08841e-28
1.34615e-27
4.03257e-28
1.91328e-27
1.80945e-27
1.40538e-27
3.85019e-28
4.58135e-28
9.08528e-30
1.67769e-27
4.95934e-28
1.79118e-30
4.62115e-28
6.98493e-28
)
;

boundaryField
{
    movingWall
    {
        type            calculated;
        value           nonuniform List<scalar> 
20
(
8.02415e-23
4.53058e-23
1.14885e-24
2.45812e-25
2.29145e-26
4.97907e-26
5.87972e-26
4.75984e-26
2.49401e-26
2.63796e-26
2.59901e-26
2.43876e-26
1.58919e-26
9.30134e-27
8.0586e-28
8.27973e-28
1.19061e-27
1.79118e-30
1.13788e-27
1.49496e-27
)
;
    }
    fixedWalls
    {
        type            calculated;
        value           nonuniform List<scalar> 
60
(
2.34612e-21
6.28488e-24
1.24368e-21
1.24039e-21
1.0499e-22
7.09499e-22
1.92155e-21
4.12953e-22
2.50167e-22
1.31082e-21
1.42241e-21
8.09841e-22
6.3002e-23
4.74872e-22
1.93006e-21
1.07111e-21
3.46972e-24
1.00443e-21
2.86056e-22
4.65157e-22
3.61377e-29
1.27334e-27
5.29799e-28
3.80732e-28
1.02514e-27
2.63682e-28
1.69717e-28
1.2503e-28
5.39725e-30
6.86652e-30
1.7659e-28
1.45918e-28
2.88255e-27
1.01139e-27
1.36614e-28
2.8247e-28
8.30675e-28
6.52239e-30
4.9114e-28
7.0562e-28
1.97058e-22
1.78282e-22
5.73939e-24
9.07351e-25
3.19819e-26
8.2354e-26
7.62314e-26
6.00782e-26
2.4242e-26
3.67818e-26
1.53814e-26
8.05253e-27
8.52387e-27
9.87917e-27
2.27141e-29
8.70786e-28
3.74088e-27
8.87841e-29
8.50761e-30
2.47269e-29
)
;
    }
    frontAndBack
    {
        type            empty;
    }
}


// ************************************************************************* //
