/*--------------------------------*- C++ -*----------------------------------*\
| =========                 |                                                 |
| \\      /  F ield         | OpenFOAM: The Open Source CFD Toolbox           |
|  \\    /   O peration     | Version:  2312                                  |
|   \\  /    A nd           | Website:  www.openfoam.com                      |
|    \\/     M anipulation  |                                                 |
\*---------------------------------------------------------------------------*/
FoamFile
{
    version     2.0;
    format      ascii;
    arch        "LSB;label=32;scalar=64";
    class       volScalarField;
    location    "7.375";
    object      epsilonzeroGrad;
}
// * * * * * * * * * * * * * * * * * * * * * * * * * * * * * * * * * * * * * //

dimensions      [0 2 -3 0 0 0 0];

internalField   nonuniform List<scalar> 
400
(
1.82673e-06
1.82673e-06
1.82673e-06
1.82673e-06
1.82673e-06
1.82673e-06
1.82673e-06
1.82672e-06
1.82673e-06
1.82672e-06
1.82673e-06
1.82672e-06
1.82672e-06
1.82672e-06
1.82672e-06
1.82672e-06
1.82672e-06
1.82672e-06
1.82672e-06
1.82672e-06
1.90108e-06
1.87533e-06
1.8775e-06
1.87839e-06
1.88018e-06
1.88112e-06
1.8829e-06
1.88387e-06
1.88565e-06
1.88665e-06
1.88844e-06
1.88946e-06
1.89125e-06
1.8923e-06
1.8941e-06
1.89517e-06
1.89697e-06
1.89807e-06
1.89898e-06
1.90044e-06
2.016e-06
1.98769e-06
1.99011e-06
1.99111e-06
1.9931e-06
1.99413e-06
1.99612e-06
1.99717e-06
1.99915e-06
2.00024e-06
2.00221e-06
2.00332e-06
2.0053e-06
2.00643e-06
2.0084e-06
2.00955e-06
2.01153e-06
2.0127e-06
2.01369e-06
2.01527e-06
2.13273e-06
2.10221e-06
2.10482e-06
2.1059e-06
2.10804e-06
2.10915e-06
2.11129e-06
2.11243e-06
2.11456e-06
2.11573e-06
2.11786e-06
2.11906e-06
2.12118e-06
2.1224e-06
2.12453e-06
2.12577e-06
2.1279e-06
2.12916e-06
2.13023e-06
2.13194e-06
2.22715e-06
2.19478e-06
2.19755e-06
2.19869e-06
2.20096e-06
2.20214e-06
2.2044e-06
2.20561e-06
2.20787e-06
2.20911e-06
2.21136e-06
2.21263e-06
2.21489e-06
2.21618e-06
2.21844e-06
2.21975e-06
2.22201e-06
2.22335e-06
2.22448e-06
2.22629e-06
2.29329e-06
2.25961e-06
2.26249e-06
2.26367e-06
2.26603e-06
2.26726e-06
2.26962e-06
2.27088e-06
2.27322e-06
2.27452e-06
2.27686e-06
2.27818e-06
2.28053e-06
2.28187e-06
2.28422e-06
2.28559e-06
2.28794e-06
2.28933e-06
2.29051e-06
2.29239e-06
2.33582e-06
2.30128e-06
2.30423e-06
2.30545e-06
2.30787e-06
2.30913e-06
2.31154e-06
2.31283e-06
2.31524e-06
2.31657e-06
2.31897e-06
2.32032e-06
2.32273e-06
2.32411e-06
2.32651e-06
2.32792e-06
2.33033e-06
2.33175e-06
2.33297e-06
2.33489e-06
2.36231e-06
2.32723e-06
2.33023e-06
2.33146e-06
2.33392e-06
2.3352e-06
2.33765e-06
2.33896e-06
2.34141e-06
2.34275e-06
2.34519e-06
2.34657e-06
2.34901e-06
2.35041e-06
2.35285e-06
2.35428e-06
2.35673e-06
2.35818e-06
2.3594e-06
2.36136e-06
2.37929e-06
2.34388e-06
2.3469e-06
2.34815e-06
2.35063e-06
2.35192e-06
2.3544e-06
2.35572e-06
2.35819e-06
2.35955e-06
2.36201e-06
2.3634e-06
2.36586e-06
2.36728e-06
2.36975e-06
2.37118e-06
2.37366e-06
2.37512e-06
2.37636e-06
2.37834e-06
2.39127e-06
2.35561e-06
2.35866e-06
2.35991e-06
2.36241e-06
2.36371e-06
2.3662e-06
2.36753e-06
2.37002e-06
2.37139e-06
2.37387e-06
2.37526e-06
2.37775e-06
2.37917e-06
2.38165e-06
2.3831e-06
2.38559e-06
2.38706e-06
2.38831e-06
2.3903e-06
2.40097e-06
2.36511e-06
2.36817e-06
2.36944e-06
2.37195e-06
2.37325e-06
2.37576e-06
2.3771e-06
2.3796e-06
2.38097e-06
2.38347e-06
2.38487e-06
2.38737e-06
2.3888e-06
2.3913e-06
2.39275e-06
2.39526e-06
2.39674e-06
2.39799e-06
2.39999e-06
2.40996e-06
2.37392e-06
2.377e-06
2.37827e-06
2.38079e-06
2.38211e-06
2.38462e-06
2.38597e-06
2.38848e-06
2.38986e-06
2.39237e-06
2.39378e-06
2.39629e-06
2.39773e-06
2.40024e-06
2.4017e-06
2.40422e-06
2.40571e-06
2.40697e-06
2.40898e-06
2.41914e-06
2.38292e-06
2.38601e-06
2.38729e-06
2.38983e-06
2.39115e-06
2.39368e-06
2.39503e-06
2.39755e-06
2.39894e-06
2.40146e-06
2.40288e-06
2.4054e-06
2.40685e-06
2.40937e-06
2.41084e-06
2.41337e-06
2.41487e-06
2.41614e-06
2.41815e-06
2.42905e-06
2.39263e-06
2.39573e-06
2.39702e-06
2.39957e-06
2.40089e-06
2.40344e-06
2.4048e-06
2.40733e-06
2.40873e-06
2.41126e-06
2.41269e-06
2.41523e-06
2.41668e-06
2.41922e-06
2.4207e-06
2.42324e-06
2.42474e-06
2.42602e-06
2.42805e-06
2.43993e-06
2.40329e-06
2.40642e-06
2.40771e-06
2.41028e-06
2.41161e-06
2.41417e-06
2.41554e-06
2.41809e-06
2.41949e-06
2.42204e-06
2.42348e-06
2.42603e-06
2.42749e-06
2.43004e-06
2.43153e-06
2.43409e-06
2.4356e-06
2.43688e-06
2.43893e-06
2.45176e-06
2.41489e-06
2.41803e-06
2.41933e-06
2.42191e-06
2.42326e-06
2.42583e-06
2.42721e-06
2.42978e-06
2.43119e-06
2.43376e-06
2.4352e-06
2.43777e-06
2.43924e-06
2.44181e-06
2.4433e-06
2.44588e-06
2.4474e-06
2.44869e-06
2.45075e-06
2.46404e-06
2.42692e-06
2.43009e-06
2.4314e-06
2.434e-06
2.43535e-06
2.43794e-06
2.43933e-06
2.44191e-06
2.44333e-06
2.44592e-06
2.44737e-06
2.44995e-06
2.45144e-06
2.45402e-06
2.45553e-06
2.45812e-06
2.45965e-06
2.46095e-06
2.46302e-06
2.47566e-06
2.43833e-06
2.44151e-06
2.44282e-06
2.44544e-06
2.4468e-06
2.4494e-06
2.4508e-06
2.4534e-06
2.45483e-06
2.45743e-06
2.45889e-06
2.46149e-06
2.46298e-06
2.46558e-06
2.4671e-06
2.46971e-06
2.47125e-06
2.47256e-06
2.47464e-06
2.48495e-06
2.44815e-06
2.45123e-06
2.45251e-06
2.45505e-06
2.45638e-06
2.45892e-06
2.4603e-06
2.46283e-06
2.46426e-06
2.46679e-06
2.46826e-06
2.47081e-06
2.47232e-06
2.47487e-06
2.47642e-06
2.47899e-06
2.48056e-06
2.48186e-06
2.48394e-06
2.48919e-06
2.48919e-06
2.48919e-06
2.48918e-06
2.48918e-06
2.48918e-06
2.48918e-06
2.48918e-06
2.48918e-06
2.48918e-06
2.48917e-06
2.48918e-06
2.48917e-06
2.48918e-06
2.48917e-06
2.48918e-06
2.48917e-06
2.48918e-06
2.48918e-06
2.48918e-06
)
;

boundaryField
{
    movingWall
    {
        type            zeroGradient;
    }
    fixedWalls
    {
        type            zeroGradient;
    }
    frontAndBack
    {
        type            empty;
    }
}


// ************************************************************************* //
