/*--------------------------------*- C++ -*----------------------------------*\
| =========                 |                                                 |
| \\      /  F ield         | OpenFOAM: The Open Source CFD Toolbox           |
|  \\    /   O peration     | Version:  2312                                  |
|   \\  /    A nd           | Website:  www.openfoam.com                      |
|    \\/     M anipulation  |                                                 |
\*---------------------------------------------------------------------------*/
FoamFile
{
    version     2.0;
    format      ascii;
    arch        "LSB;label=32;scalar=64";
    class       surfaceScalarField;
    location    "7.375";
    object      fluxField;
}
// * * * * * * * * * * * * * * * * * * * * * * * * * * * * * * * * * * * * * //

dimensions      [0 3 -1 0 0 0 0];

oriented        oriented;

internalField   nonuniform List<scalar> 
760
(
-5e-05
4.22907e-18
-5e-05
-9.30888e-19
-5e-05
2.18823e-19
-5e-05
-4.46186e-20
-5e-05
1.46272e-20
-5e-05
-7.37097e-22
-5e-05
2.43333e-21
-5e-05
4.16444e-21
-5e-05
7.93656e-21
-5e-05
7.47333e-21
-5e-05
8.04331e-21
-5e-05
4.19815e-21
-5e-05
4.13883e-21
-5e-05
3.60414e-21
-5e-05
2.20914e-21
-5e-05
2.57697e-21
-5e-05
6.61269e-21
-5e-05
5.74069e-22
-5e-05
-5.83278e-21
-3.68538e-21
-5e-05
-3.69613e-18
-5e-05
8.25227e-19
-5e-05
-1.81909e-19
-5e-05
5.25188e-20
-5e-05
-2.5097e-21
-5e-05
3.01953e-21
-5e-05
-1.31478e-21
-5e-05
-7.73506e-22
-5e-05
1.25942e-21
-5e-05
5.51473e-21
-5e-05
9.1948e-21
-5e-05
4.47864e-21
-5e-05
2.80804e-21
-5e-05
2.94986e-21
-5e-05
5.18968e-21
-5e-05
5.34915e-21
-5e-05
4.85453e-21
-5e-05
-3.13752e-21
-5e-05
-8.90209e-21
-6.88257e-21
-5e-05
-1.34572e-19
-5e-05
5.06051e-20
-5e-05
3.58481e-21
-5e-05
1.27005e-20
-5e-05
7.29236e-21
-5e-05
3.00062e-21
-5e-05
-1.5308e-21
-5e-05
-3.91153e-21
-5e-05
-4.26646e-21
-5e-05
-1.98937e-21
-5e-05
1.76788e-21
-5e-05
4.62393e-21
-5e-05
6.6937e-21
-5e-05
6.42218e-21
-5e-05
7.75613e-21
-5e-05
5.06071e-21
-5e-05
-2.3486e-21
-5e-05
-5.87542e-21
-5e-05
-5.99818e-21
-5.4532e-21
-5e-05
2.43769e-18
-5e-05
-5.42267e-19
-5e-05
1.27235e-19
-5e-05
-2.92846e-20
-5e-05
6.52672e-21
-5e-05
-1.39179e-21
-5e-05
1.17173e-21
-5e-05
-1.21989e-21
-5e-05
-4.5924e-21
-5e-05
-3.27284e-21
-5e-05
1.50922e-21
-5e-05
6.49045e-21
-5e-05
8.1294e-21
-5e-05
7.33062e-21
-5e-05
4.02196e-21
-5e-05
4.99928e-22
-5e-05
-3.12982e-21
-5e-05
-2.43818e-21
-5e-05
-4.07242e-21
-2.86059e-21
-5e-05
-3.38199e-18
-5e-05
7.13957e-19
-5e-05
-1.70929e-19
-5e-05
3.45867e-20
-5e-05
-8.02089e-21
-5e-05
-2.48808e-21
-5e-05
-4.30909e-21
-5e-05
-2.65995e-21
-5e-05
-6.03287e-21
-5e-05
-9.77206e-22
-5e-05
3.82195e-21
-5e-05
4.14245e-21
-5e-05
3.52266e-21
-5e-05
4.66183e-21
-5e-05
2.37627e-21
-5e-05
7.36248e-22
-5e-05
-1.61541e-21
-5e-05
-2.65061e-21
-5e-05
-4.34481e-21
-1.39472e-21
-5e-05
1.62014e-18
-5e-05
-3.56157e-19
-5e-05
8.70885e-20
-5e-05
-1.39139e-20
-5e-05
9.3741e-21
-5e-05
4.27253e-22
-5e-05
-6.04306e-22
-5e-05
3.13411e-21
-5e-05
1.38156e-21
-5e-05
5.87949e-22
-5e-05
-1.76917e-21
-5e-05
-3.43451e-21
-5e-05
-4.9498e-22
-5e-05
1.36205e-21
-5e-05
3.22874e-21
-5e-05
2.95863e-21
-5e-05
-1.93847e-21
-5e-05
-6.32906e-21
-5e-05
-8.79947e-22
8.92692e-22
-5e-05
2.14275e-18
-5e-05
-4.54162e-19
-5e-05
1.05226e-19
-5e-05
-1.99127e-20
-5e-05
7.6553e-21
-5e-05
4.22102e-21
-5e-05
5.03802e-21
-5e-05
6.68672e-21
-5e-05
6.90081e-21
-5e-05
1.08429e-21
-5e-05
-3.82704e-21
-5e-05
-3.62921e-21
-5e-05
-1.33247e-21
-5e-05
-2.51434e-21
-5e-05
-6.68675e-22
-5e-05
-7.49271e-22
-5e-05
-3.00189e-21
-5e-05
-5.32749e-21
-5e-05
6.10407e-22
1.85722e-21
-5e-05
-3.35511e-18
-5e-05
7.18826e-19
-5e-05
-1.77403e-19
-5e-05
3.83958e-20
-5e-05
-6.63008e-21
-5e-05
5.81285e-21
-5e-05
4.2002e-22
-5e-05
-2.92947e-22
-5e-05
6.11963e-21
-5e-05
5.0659e-21
-5e-05
6.91851e-22
-5e-05
-4.5407e-22
-5e-05
-2.45036e-21
-5e-05
-5.23489e-21
-5e-05
-7.9556e-21
-5e-05
-7.48407e-21
-5e-05
-6.06902e-21
-5e-05
-3.21027e-21
-5e-05
-1.15437e-21
9.11078e-22
-5e-05
1.80211e-18
-5e-05
-4.08514e-19
-5e-05
8.80088e-20
-5e-05
-1.95252e-20
-5e-05
7.19695e-21
-5e-05
2.75805e-21
-5e-05
7.63782e-22
-5e-05
-2.32195e-21
-5e-05
3.13644e-21
-5e-05
4.82124e-21
-5e-05
2.31277e-21
-5e-05
1.73872e-22
-5e-05
-1.68417e-21
-5e-05
-4.83173e-21
-5e-05
-1.0827e-20
-5e-05
-9.57854e-21
-5e-05
-3.90324e-21
-5e-05
1.12773e-21
-5e-05
1.00258e-21
-2.62697e-23
-5e-05
-5.71952e-20
-5e-05
1.58175e-20
-5e-05
-9.19925e-22
-5e-05
-5.14638e-22
-5e-05
5.39102e-22
-5e-05
2.87032e-21
-5e-05
3.72229e-21
-5e-05
1.16326e-21
-5e-05
2.62162e-22
-5e-05
1.56425e-21
-5e-05
4.76355e-23
-5e-05
-1.89176e-21
-5e-05
2.06465e-22
-5e-05
-1.94757e-22
-5e-05
-6.54712e-21
-5e-05
-7.90918e-21
-5e-05
-1.81085e-21
-5e-05
2.27146e-21
-5e-05
1.67775e-21
-7.51112e-22
-5e-05
-7.35213e-19
-5e-05
1.50108e-19
-5e-05
-3.03207e-20
-5e-05
1.80654e-21
-5e-05
-2.42783e-21
-5e-05
3.93402e-21
-5e-05
6.36786e-21
-5e-05
2.69414e-21
-5e-05
-1.73136e-21
-5e-05
3.65394e-22
-5e-05
-2.61496e-22
-5e-05
-3.30167e-21
-5e-05
-1.39861e-21
-5e-05
2.03543e-21
-5e-05
-1.15037e-22
-5e-05
-3.99228e-21
-5e-05
-2.99145e-21
-5e-05
-1.44794e-22
-5e-05
1.00124e-21
-1.5872e-21
-5e-05
1.71889e-18
-5e-05
-3.76947e-19
-5e-05
8.56764e-20
-5e-05
-2.42182e-20
-5e-05
2.82455e-22
-5e-05
9.49728e-22
-5e-05
5.40481e-21
-5e-05
1.55086e-21
-5e-05
-1.3025e-21
-5e-05
1.44921e-21
-5e-05
4.89696e-21
-5e-05
2.01411e-21
-5e-05
-4.43417e-21
-5e-05
-5.20559e-21
-5e-05
-1.79241e-21
-5e-05
-1.59546e-21
-5e-05
-1.5097e-21
-5e-05
-9.11598e-22
-5e-05
-1.1106e-21
-4.11915e-21
-5e-05
-2.75644e-18
-5e-05
6.09603e-19
-5e-05
-1.44273e-19
-5e-05
3.08365e-20
-5e-05
-7.5063e-21
-5e-05
2.14475e-21
-5e-05
-5.26156e-22
-5e-05
-2.82584e-21
-5e-05
-1.45264e-21
-5e-05
3.11556e-21
-5e-05
5.59695e-21
-5e-05
4.8771e-21
-5e-05
-3.56364e-21
-5e-05
-9.77066e-21
-5e-05
-8.0567e-21
-5e-05
-3.09891e-21
-5e-05
-1.09619e-21
-5e-05
-3.36793e-21
-5e-05
-5.18884e-21
-5.86241e-21
-5e-05
2.13826e-18
-5e-05
-4.73838e-19
-5e-05
1.09062e-19
-5e-05
-2.43463e-20
-5e-05
8.29205e-21
-5e-05
-9.0172e-22
-5e-05
-7.18601e-22
-5e-05
-1.12001e-21
-5e-05
-8.04548e-22
-5e-05
5.07755e-22
-5e-05
-9.6191e-23
-5e-05
3.59861e-21
-5e-05
2.05685e-21
-5e-05
-4.72464e-21
-5e-05
-9.36886e-21
-5e-05
-5.61226e-21
-5e-05
-2.42505e-21
-5e-05
-3.93548e-21
-5e-05
-4.69694e-21
-3.84406e-21
-5e-05
9.71716e-19
-5e-05
-2.11782e-19
-5e-05
4.62775e-20
-5e-05
-1.04527e-20
-5e-05
-3.06066e-22
-5e-05
-6.12715e-21
-5e-05
-1.85468e-21
-5e-05
2.80875e-21
-5e-05
4.80934e-22
-5e-05
-3.76153e-21
-5e-05
-1.74013e-21
-5e-05
4.30688e-21
-5e-05
5.94212e-21
-5e-05
1.113e-22
-5e-05
-5.50412e-21
-5e-05
-7.24817e-21
-5e-05
-5.64701e-21
-5e-05
-5.82165e-21
-5e-05
-5.39621e-21
-2.51863e-21
-5e-05
-3.38605e-18
-5e-05
7.38505e-19
-5e-05
-1.75075e-19
-5e-05
3.89506e-20
-5e-05
-1.13996e-20
-5e-05
-4.64036e-21
-5e-05
-6.0257e-21
-5e-05
-1.10054e-21
-5e-05
2.89142e-23
-5e-05
-4.56071e-21
-5e-05
-4.84179e-21
-5e-05
-3.61431e-21
-5e-05
-2.80471e-21
-5e-05
-4.72339e-21
-5e-05
-2.5487e-21
-5e-05
-3.69739e-21
-5e-05
-5.18139e-21
-5e-05
-6.07629e-21
-5e-05
-6.73559e-21
-4.03301e-21
-5e-05
2.95003e-18
-5e-05
-6.60381e-19
-5e-05
1.54659e-19
-5e-05
-3.4086e-20
-5e-05
6.03746e-21
-5e-05
-4.4859e-21
-5e-05
-4.77123e-21
-5e-05
-4.68388e-21
-5e-05
2.19185e-22
-5e-05
-9.34062e-22
-5e-05
-5.4948e-21
-5e-05
-1.24157e-20
-5e-05
-1.35498e-20
-5e-05
-1.03984e-20
-5e-05
-2.25557e-21
-5e-05
3.12598e-21
-5e-05
4.44149e-22
-5e-05
-2.97403e-21
-5e-05
-3.72067e-21
-2.77321e-21
-5e-05
1.635e-18
-5e-05
-3.76392e-19
-5e-05
8.8334e-20
-5e-05
-2.09469e-20
-5e-05
1.06352e-21
-5e-05
-2.13622e-21
-5e-05
-8.72342e-22
-5e-05
-3.87518e-21
-5e-05
-1.70996e-21
-5e-05
1.33733e-21
-5e-05
-6.21705e-23
-5e-05
-8.70365e-21
-5e-05
-1.12011e-20
-5e-05
-6.59486e-21
-5e-05
-7.48243e-22
-5e-05
3.46192e-21
-5e-05
1.26261e-22
-5e-05
-3.66004e-21
-5e-05
-2.2764e-21
3.90331e-23
-5e-05
-3.63164e-18
-5e-05
7.76546e-19
-5e-05
-1.82981e-19
-5e-05
4.00866e-20
-5e-05
-1.01014e-20
-5e-05
1.68498e-22
-5e-05
-2.9867e-21
-5e-05
-4.88947e-21
-5e-05
-5.52894e-21
-5e-05
-2.62182e-21
-5e-05
-9.09757e-22
-5e-05
-4.06271e-21
-5e-05
-5.93289e-21
-5e-05
-3.09969e-21
-5e-05
-1.45783e-21
-5e-05
-2.35647e-21
-5e-05
-3.81907e-21
-5e-05
-3.94482e-21
-5e-05
-3.42407e-21
-3.89072e-22
-5e-05
-5e-05
-5e-05
-5e-05
-5e-05
-5e-05
-5e-05
-5e-05
-5e-05
-5e-05
-5e-05
-5e-05
-5e-05
-5e-05
-5e-05
-5e-05
-5e-05
-5e-05
-5e-05
)
;

boundaryField
{
    movingWall
    {
        type            calculated;
        value           uniform -0;
    }
    fixedWalls
    {
        type            calculated;
        value           nonuniform List<scalar> 
60
(
5e-05
5e-05
5e-05
5e-05
5e-05
5e-05
5e-05
5e-05
5e-05
5e-05
5e-05
5e-05
5e-05
5e-05
5e-05
5e-05
5e-05
5e-05
5e-05
5e-05
-5e-05
-5e-05
-5e-05
-5e-05
-5e-05
-5e-05
-5e-05
-5e-05
-5e-05
-5e-05
-5e-05
-5e-05
-5e-05
-5e-05
-5e-05
-5e-05
-5e-05
-5e-05
-5e-05
-5e-05
0
0
0
0
0
0
0
0
0
0
0
0
0
0
0
0
0
0
0
0
)
;
    }
    frontAndBack
    {
        type            empty;
        value           nonuniform List<scalar> 0();
    }
}


// ************************************************************************* //
