/*--------------------------------*- C++ -*----------------------------------*\
| =========                 |                                                 |
| \\      /  F ield         | OpenFOAM: The Open Source CFD Toolbox           |
|  \\    /   O peration     | Version:  2312                                  |
|   \\  /    A nd           | Website:  www.openfoam.com                      |
|    \\/     M anipulation  |                                                 |
\*---------------------------------------------------------------------------*/
FoamFile
{
    version     2.0;
    format      ascii;
    arch        "LSB;label=32;scalar=64";
    class       volScalarField;
    location    "7.375";
    object      Lambda2Field;
}
// * * * * * * * * * * * * * * * * * * * * * * * * * * * * * * * * * * * * * //

dimensions      [0 0 -2 0 0 0 0];

internalField   nonuniform List<scalar> 
400
(
3.31502e-23
1.11212e-23
6.66598e-25
-1.46922e-26
1.84844e-26
-2.73277e-27
7.49362e-28
7.45611e-28
1.79362e-27
0
7.95461e-28
2.81991e-28
0
2.07837e-28
8.94421e-29
0
1.49858e-27
5.27288e-30
0
0
8.01962e-24
1.4504e-23
8.61802e-25
2.07716e-27
5.06001e-27
-1.75425e-29
0
-1.0783e-27
3.06746e-27
0
0
-1.18805e-27
0
0
0
0
0
0
0
1.63552e-28
6.68289e-23
2.0766e-23
7.01254e-25
5.49502e-26
0
2.42664e-28
0
7.40535e-29
1.64393e-27
9.00984e-28
9.45799e-28
9.77967e-29
2.41864e-28
1.92912e-28
1.17517e-28
1.33122e-30
0
0
2.91645e-28
9.02717e-28
4.55303e-23
1.89841e-23
4.38819e-25
5.41966e-26
0
0
0
0
0
2.63569e-29
0
-5.76112e-28
1.21648e-28
3.19925e-28
2.61617e-28
3.32811e-28
0
8.13788e-29
1.95629e-28
1.07545e-28
5.20175e-24
8.64996e-24
4.9647e-25
3.28498e-26
0
-1.79129e-28
6.28638e-28
0
3.43328e-29
-2.09582e-27
8.83125e-29
0
0
-4.6998e-28
8.05062e-29
8.93553e-31
0
0
0
-3.45765e-28
1.5863e-23
1.14156e-23
4.23178e-25
1.35697e-26
0
0
0
0
1.39373e-27
3.91953e-29
0
9.18564e-28
0
0
0
0
0
2.16496e-28
5.45045e-28
3.25852e-28
4.21808e-23
1.73442e-23
0
1.0688e-25
0
0
9.07809e-28
1.9298e-29
0
3.94161e-30
1.08525e-28
-5.12401e-28
6.67842e-29
2.40423e-28
0
0
0
1.60504e-29
0
1.4885e-29
1.33074e-23
4.82701e-24
1.67963e-25
1.17549e-26
0
-7.52562e-28
3.46111e-28
7.34684e-28
1.25942e-29
0
0
0
0
-2.09739e-28
8.49592e-28
7.25721e-28
3.13728e-28
7.17215e-29
7.64634e-29
2.40227e-29
2.10288e-24
3.01748e-24
1.5449e-26
3.20672e-26
0
6.22531e-29
0
1.21902e-27
1.70305e-27
-4.33913e-28
0
-1.41224e-27
0
-8.62998e-28
0
4.18006e-28
4.21239e-28
6.84073e-28
3.51149e-28
1.40579e-29
3.88906e-24
3.07689e-24
0
-2.74071e-26
0
0
0
0
0
1.69727e-28
7.03049e-29
0
0
0
0
-1.03875e-27
0
0
2.92196e-28
0
0
-9.63757e-25
0
-4.73201e-26
4.22502e-27
1.81035e-29
3.94407e-28
3.74976e-29
2.77823e-28
6.56698e-29
0
-6.41262e-29
0
1.7376e-28
7.69586e-28
2.45473e-28
6.74491e-29
9.34125e-29
7.10241e-29
5.57868e-29
4.81474e-24
3.9959e-24
0
3.82942e-26
0
5.81409e-28
0
6.52067e-28
1.31579e-27
0
9.21058e-28
6.71339e-28
0
0
1.09908e-27
0
0
0
0
0
5.2019e-24
1.60746e-24
3.1349e-26
2.06957e-26
1.30569e-27
0
4.65282e-29
4.56771e-28
0
9.40221e-28
4.25816e-28
1.31148e-28
0
0
0
0
0
0
1.59634e-27
-5.10644e-28
5.65369e-25
1.74536e-24
0
0
0
3.66774e-28
0
0
1.27536e-27
5.88415e-28
1.46213e-28
-3.75304e-28
0
-9.745e-28
1.45721e-27
0
0
-4.79824e-28
1.66407e-28
6.51796e-29
3.75564e-23
1.42799e-23
0
4.25668e-26
0
4.7114e-27
0
1.98992e-28
2.13462e-27
7.26444e-28
1.37569e-28
-8.60296e-28
1.76515e-27
1.15233e-27
2.92774e-28
0
0
5.69222e-29
6.27737e-28
2.81084e-29
3.37116e-23
1.44518e-23
3.94057e-25
0
1.13215e-26
-8.6536e-28
0
0
6.54135e-29
7.02024e-29
0
-1.92326e-28
7.34684e-28
3.73988e-28
2.12019e-28
0
0
3.20598e-29
6.02835e-29
0
8.78612e-24
1.21661e-23
8.00071e-25
8.99037e-27
2.6491e-28
-9.53876e-28
2.70606e-27
1.25762e-27
1.56584e-28
-1.3036e-27
0
5.27865e-28
9.65753e-28
1.0059e-27
0
7.34684e-28
5.17418e-28
0
0
0
7.08709e-23
2.16766e-23
6.74939e-25
1.83612e-26
2.93874e-27
0
2.43435e-28
1.3232e-28
4.63127e-28
-1.47112e-28
0
2.20467e-28
2.07913e-28
0
0
-7.48522e-28
0
7.52977e-30
3.71178e-29
1.2654e-28
1.58244e-23
1.44538e-23
6.61216e-25
2.65317e-26
0
0
1.6392e-28
-1.96211e-28
2.48472e-28
0
4.57796e-29
0
8.69417e-29
3.99402e-28
9.51949e-28
5.41658e-28
3.15986e-28
8.47547e-30
2.96174e-28
1.35019e-28
1.34786e-23
5.89602e-24
4.12183e-25
0
5.24674e-27
0
5.31921e-28
5.0843e-28
6.55658e-28
-3.04675e-28
0
6.47036e-29
7.38227e-28
0
3.85469e-29
-1.12576e-28
3.62371e-28
2.48986e-28
0
0
)
;

boundaryField
{
    movingWall
    {
        type            calculated;
        value           nonuniform List<scalar> 
20
(
0
0
3.63695e-25
0
3.00869e-26
-1.4224e-27
5.12265e-27
3.66081e-27
4.47329e-28
0
0
2.65026e-28
2.82425e-27
0
9.23986e-28
1.65005e-28
5.39779e-28
5.59125e-28
0
0
)
;
    }
    fixedWalls
    {
        type            calculated;
        value           nonuniform List<scalar> 
60
(
2.01586e-22
2.34897e-22
3.61872e-22
2.94783e-22
1.35078e-22
1.66427e-22
2.34224e-22
7.50159e-23
2.39044e-23
2.11198e-23
0
4.20324e-23
2.69248e-23
1.18972e-23
1.93077e-22
2.36115e-22
2.06238e-22
3.64502e-22
2.42176e-22
1.02168e-22
0
1.63552e-28
1.61699e-27
1.07545e-28
0
1.95949e-28
9.97434e-29
3.06064e-28
0
0
2.25297e-28
1.02572e-28
0
0
9.64153e-29
0
0
1.2654e-28
0
0
0
0
1.31515e-24
0
8.7839e-26
-1.75805e-26
3.68326e-27
3.3644e-27
3.35037e-27
-6.64905e-28
1.13299e-27
1.57682e-27
3.5435e-28
0
5.38836e-28
1.18873e-28
3.14486e-27
6.39729e-29
0
0
)
;
    }
    frontAndBack
    {
        type            empty;
    }
}


// ************************************************************************* //
