/*--------------------------------*- C++ -*----------------------------------*\
| =========                 |                                                 |
| \\      /  F ield         | OpenFOAM: The Open Source CFD Toolbox           |
|  \\    /   O peration     | Version:  2312                                  |
|   \\  /    A nd           | Website:  www.openfoam.com                      |
|    \\/     M anipulation  |                                                 |
\*---------------------------------------------------------------------------*/
FoamFile
{
    version     2.0;
    format      ascii;
    arch        "LSB;label=32;scalar=64";
    class       volScalarField;
    location    "7.375";
    object      pNear;
}
// * * * * * * * * * * * * * * * * * * * * * * * * * * * * * * * * * * * * * //

dimensions      [0 2 -2 0 0 0 0];

internalField   nonuniform List<scalar> 
400
(
3.53582e-16
4.5341e-15
3.30958e-15
3.90906e-15
4.25641e-15
4.51937e-15
4.56563e-15
4.69748e-15
4.65004e-15
4.95605e-15
5.52526e-15
5.57537e-15
5.73335e-15
6.00115e-15
6.23583e-15
6.13577e-15
6.16209e-15
5.91509e-15
5.68142e-15
5.71343e-15
2.76833e-15
6.42339e-17
3.65611e-15
3.68418e-15
4.33799e-15
4.55183e-15
4.67948e-15
4.84656e-15
4.67219e-15
5.11472e-15
5.47919e-15
5.5378e-15
5.78803e-15
5.89792e-15
6.00533e-15
6.04641e-15
6.08454e-15
5.99508e-15
5.93534e-15
5.74545e-15
2.69279e-15
5.1634e-15
3.7535e-15
4.18023e-15
4.37268e-15
4.71526e-15
4.81819e-15
4.95104e-15
4.91262e-15
5.08213e-15
5.24304e-15
5.56626e-15
5.84871e-15
5.81948e-15
5.92902e-15
6.01246e-15
5.96672e-15
6.04896e-15
6.09785e-15
6.1325e-15
3.63718e-15
4.14694e-15
3.99997e-15
4.32118e-15
4.36565e-15
4.68987e-15
5.05772e-15
5.25055e-15
5.16562e-15
5.3826e-15
5.43501e-15
5.5869e-15
5.69976e-15
5.84925e-15
5.81923e-15
5.8128e-15
5.96365e-15
6.13682e-15
6.0598e-15
6.2817e-15
4.74641e-15
2.13179e-15
4.32702e-15
4.52893e-15
4.8447e-15
4.91155e-15
5.0714e-15
5.36463e-15
5.19531e-15
5.38374e-15
5.56317e-15
5.65326e-15
5.75905e-15
5.83693e-15
5.81388e-15
5.97548e-15
6.14616e-15
6.13446e-15
6.1514e-15
6.38037e-15
3.71098e-15
6.44722e-15
4.75214e-15
5.20519e-15
5.04853e-15
5.24703e-15
5.28334e-15
5.39304e-15
5.63697e-15
5.71973e-15
5.58554e-15
5.55767e-15
5.82152e-15
5.79711e-15
5.77141e-15
5.96657e-15
6.24314e-15
6.06546e-15
6.24283e-15
6.4356e-15
4.86582e-15
6.31921e-15
5.00403e-15
5.37488e-15
5.22368e-15
5.37289e-15
5.59304e-15
5.53251e-15
5.6467e-15
5.64772e-15
5.66335e-15
5.75732e-15
5.88344e-15
5.82585e-15
5.93357e-15
5.98699e-15
6.0693e-15
6.20549e-15
6.24331e-15
6.41118e-15
6.29829e-15
2.05336e-15
5.51402e-15
5.39415e-15
5.5656e-15
5.49813e-15
5.71048e-15
5.57926e-15
5.948e-15
5.94257e-15
5.817e-15
5.85448e-15
5.94805e-15
5.94987e-15
5.89156e-15
5.97037e-15
5.99281e-15
6.2044e-15
6.11852e-15
6.28218e-15
5.30439e-15
8.88016e-15
6.00918e-15
5.88125e-15
5.68487e-15
5.75325e-15
5.74853e-15
5.8313e-15
5.85148e-15
6.04563e-15
6.1143e-15
6.05354e-15
5.9786e-15
5.92395e-15
5.96916e-15
6.00747e-15
5.99868e-15
6.04467e-15
6.13564e-15
6.31692e-15
5.86987e-15
4.96085e-15
6.40859e-15
6.11862e-15
6.08003e-15
5.91749e-15
5.97648e-15
6.07841e-15
6.11982e-15
6.22338e-15
6.12304e-15
6.06644e-15
5.97752e-15
5.90018e-15
6.04662e-15
6.15187e-15
6.21049e-15
6.13094e-15
6.12844e-15
6.2605e-15
6.15957e-15
5.28393e-15
6.5333e-15
6.41884e-15
6.36046e-15
6.09346e-15
6.18326e-15
6.42763e-15
6.31387e-15
6.23425e-15
6.19108e-15
6.20347e-15
6.09087e-15
5.98938e-15
6.35969e-15
6.37479e-15
6.34746e-15
6.08226e-15
6.11215e-15
6.3362e-15
6.01144e-15
8.84633e-15
6.48683e-15
6.85823e-15
6.56873e-15
6.38764e-15
6.45017e-15
6.53266e-15
6.63477e-15
6.27676e-15
6.23487e-15
6.46458e-15
6.31753e-15
6.16955e-15
6.40671e-15
6.47575e-15
6.48563e-15
6.33061e-15
6.23833e-15
6.36351e-15
6.60957e-15
3.48295e-15
6.8564e-15
6.80623e-15
7.11669e-15
6.71866e-15
6.49097e-15
6.48312e-15
6.53193e-15
6.46744e-15
6.38168e-15
6.5622e-15
6.49868e-15
6.54377e-15
6.63497e-15
6.74191e-15
6.51768e-15
6.26933e-15
6.28424e-15
6.51607e-15
6.2697e-15
9.63578e-15
6.73601e-15
7.05477e-15
6.97968e-15
6.85646e-15
6.62687e-15
6.66056e-15
6.54699e-15
6.56015e-15
6.59259e-15
6.66684e-15
6.67474e-15
6.61247e-15
6.66737e-15
6.78292e-15
6.63085e-15
6.48823e-15
6.56012e-15
6.90055e-15
6.96184e-15
5.85026e-15
7.04439e-15
7.15887e-15
7.15667e-15
6.89967e-15
6.67201e-15
6.76284e-15
6.76808e-15
6.54484e-15
6.79783e-15
6.77029e-15
6.70381e-15
6.66213e-15
6.85559e-15
6.89953e-15
6.75751e-15
6.49094e-15
6.65936e-15
7.08056e-15
7.53046e-15
5.3556e-15
7.21542e-15
7.17121e-15
7.21518e-15
7.0839e-15
6.94251e-15
6.93729e-15
6.83424e-15
6.78633e-15
6.84356e-15
6.82997e-15
6.5704e-15
6.45466e-15
6.85383e-15
7.10247e-15
6.91623e-15
6.69796e-15
6.99366e-15
7.13692e-15
6.58275e-15
9.13416e-15
7.3756e-15
7.53996e-15
7.27158e-15
7.14358e-15
6.94947e-15
7.00275e-15
6.8733e-15
6.8206e-15
6.85858e-15
6.69499e-15
6.38958e-15
6.62073e-15
6.92125e-15
7.14466e-15
6.97781e-15
6.8478e-15
7.10157e-15
7.3366e-15
7.41634e-15
6.44352e-15
7.51051e-15
7.44339e-15
7.28378e-15
7.18708e-15
7.23576e-15
7.14868e-15
6.85157e-15
6.72252e-15
6.74897e-15
6.71018e-15
6.57161e-15
6.71903e-15
6.99272e-15
7.05731e-15
6.93306e-15
6.89671e-15
7.2091e-15
7.49891e-15
7.88512e-15
6.02067e-15
7.51784e-15
7.3829e-15
7.55081e-15
7.26366e-15
7.11032e-15
7.1535e-15
6.93487e-15
6.79734e-15
6.62105e-15
6.81592e-15
6.74434e-15
6.80217e-15
7.0165e-15
6.93357e-15
6.87839e-15
7.04164e-15
7.25533e-15
7.40611e-15
6.46607e-15
8.95777e-15
7.44052e-15
7.48103e-15
7.3472e-15
7.28221e-15
7.23577e-15
7.31483e-15
7.01025e-15
6.78108e-15
6.53566e-15
6.74985e-15
6.89793e-15
6.92716e-15
7.08143e-15
7.02813e-15
7.06945e-15
7.02939e-15
7.2496e-15
7.46417e-15
)
;

boundaryField
{
    movingWall
    {
        type            zeroGradient;
    }
    fixedWalls
    {
        type            calculated;
        value           nonuniform List<scalar> 
60
(
7.15794e-16
2.39479e-15
2.84578e-15
3.6619e-15
4.42471e-15
4.03952e-15
4.90747e-15
5.93434e-15
5.5383e-15
5.8285e-15
6.0939e-15
6.12338e-15
6.46887e-15
6.4245e-15
6.94331e-15
7.30301e-15
6.84994e-15
7.36162e-15
7.60194e-15
6.67892e-15
5.71824e-15
5.79871e-15
6.09682e-15
6.27412e-15
6.37385e-15
6.42366e-15
6.39549e-15
6.30674e-15
6.30325e-15
6.28032e-15
6.32894e-15
6.3823e-15
6.55086e-15
6.86988e-15
7.06201e-15
7.15842e-15
7.331e-15
7.46064e-15
7.42874e-15
7.45546e-15
9.8066e-16
3.72335e-15
3.58318e-15
3.87124e-15
4.24375e-15
4.48686e-15
4.57847e-15
4.67058e-15
4.70306e-15
4.99553e-15
5.4474e-15
5.59155e-15
5.74982e-15
5.99618e-15
6.18562e-15
6.15473e-15
6.12109e-15
5.91709e-15
5.72127e-15
5.70863e-15
)
;
    }
    frontAndBack
    {
        type            empty;
    }
}


// ************************************************************************* //
