/*--------------------------------*- C++ -*----------------------------------*\
| =========                 |                                                 |
| \\      /  F ield         | OpenFOAM: The Open Source CFD Toolbox           |
|  \\    /   O peration     | Version:  2312                                  |
|   \\  /    A nd           | Website:  www.openfoam.com                      |
|    \\/     M anipulation  |                                                 |
\*---------------------------------------------------------------------------*/
FoamFile
{
    version     2.0;
    format      ascii;
    arch        "LSB;label=32;scalar=64";
    class       volVectorField;
    location    "7.375";
    object      URandom;
}
// * * * * * * * * * * * * * * * * * * * * * * * * * * * * * * * * * * * * * //

dimensions      [0 1 -1 0 0 0 0];

internalField   nonuniform List<vector> 
400
(
(-0.909051 -0.00193224 -0.0415285)
(-0.92934 -0.0374062 -0.0600658)
(-0.986249 0.0485123 -0.0863566)
(-1.07498 0.0295016 -0.0592215)
(-1.06806 -0.0425824 0.0596178)
(-1.08848 0.0188403 0.0426155)
(-0.959929 0.0192073 0.0895845)
(-0.920104 0.0593511 0.00969639)
(-1.07912 0.0105654 0.060238)
(-1.08583 0.0335513 -0.0388219)
(-0.982073 -0.0983789 0.000458146)
(-0.97318 -0.0681338 -0.0681063)
(-1.05604 -0.0684184 -0.0466777)
(-1.08391 0.04204 0.0345147)
(-0.953185 -0.0875887 0.0116875)
(-1.06827 -0.0667297 -0.029771)
(-0.948569 0.0289689 -0.0807197)
(-1.03414 -0.0668193 0.0661037)
(-1.07467 -0.0612449 0.0259411)
(-1.06177 -0.0519362 0.0590508)
(-0.960637 -0.0630971 0.0668531)
(-0.946731 -0.0280347 0.079853)
(-0.960853 -0.0837277 0.0381731)
(-0.928698 0.0547036 -0.0438576)
(-1.05934 0.0601842 -0.0534423)
(-1.03058 -0.0312122 0.0899488)
(-1.06026 0.0796733 0.00453629)
(-0.95907 0.0789357 -0.045759)
(-1.05516 -0.0784492 -0.028332)
(-1.05826 0.0812502 -0.0019737)
(-1.06913 -0.0188454 0.0697597)
(-0.978153 0.0235865 -0.0946911)
(-0.969732 0.0933084 -0.0194262)
(-1.03113 0.02215 -0.0924131)
(-1.07189 -0.0635992 -0.0280459)
(-1.0013 0.0994664 0.0102352)
(-0.902058 0.0200485 -0.00234655)
(-1.00841 -0.0736979 0.0670657)
(-0.991775 -0.0659419 0.0747263)
(-1.00101 0.0953987 -0.0299677)
(-0.975106 -0.0431854 -0.0866909)
(-0.943538 0.070559 0.042819)
(-1.0444 -0.0789696 -0.0423353)
(-0.969852 0.0893642 0.0332439)
(-1.0289 -0.0322262 0.090146)
(-0.9077 -0.0358567 0.0139653)
(-1.06138 0.000318084 -0.0789441)
(-1.05743 -0.0232041 0.0785039)
(-1.0776 -0.0527636 0.0345514)
(-0.952445 -0.086307 -0.0170183)
(-1.05644 0.0734181 -0.0377373)
(-0.976817 -0.0873196 0.0428702)
(-0.965659 0.0812391 -0.0471265)
(-1.06591 0.00228559 0.0751667)
(-1.06703 -0.0239818 0.070226)
(-0.960491 0.03765 -0.0837945)
(-0.964082 -0.0632557 -0.0686192)
(-0.958811 -0.037152 0.0832056)
(-0.932728 -0.0733738 0.00952383)
(-1.02596 -0.0773622 0.0578014)
(-1.0744 0.0217549 0.0631794)
(-1.061 -0.00869933 0.0787601)
(-1.04231 0.0846918 -0.0322011)
(-1.04461 0.0174654 -0.0877762)
(-0.90781 0.0307704 0.0235414)
(-0.926175 -0.0425257 0.0523594)
(-1.01439 -0.0799221 -0.0583546)
(-0.980975 -0.0274546 0.0942565)
(-0.914352 -0.0102771 0.0505854)
(-0.929099 -0.0669202 0.0222414)
(-1.00189 0.0308746 0.0950957)
(-0.936977 -0.0338551 -0.0698711)
(-0.980382 -0.0530485 0.082468)
(-0.960959 -0.066857 -0.0632927)
(-1.06782 -0.0210331 -0.0704129)
(-1.02509 0.0964198 0.00859801)
(-1.09264 -0.0324532 -0.0190843)
(-0.943338 0.0593779 -0.0571289)
(-1.02092 -0.0948914 0.0236179)
(-1.00097 -0.0981246 0.0192512)
(-1.05065 0.0400489 0.0763587)
(-1.09656 -0.025972 -0.00122472)
(-0.954964 0.0647442 0.0614815)
(-1.09626 -0.0198987 -0.0184048)
(-1.08016 0.00167248 -0.0597651)
(-0.984386 -0.0938071 0.0309262)
(-0.91361 -0.0379346 -0.0331328)
(-1.04903 0.0667127 -0.0560849)
(-1.06545 0.0746759 0.0118332)
(-0.982325 0.0593706 0.078503)
(-0.975277 0.037782 0.089226)
(-0.911874 0.0406862 -0.0240495)
(-0.981904 0.055928 0.0808986)
(-0.947348 0.0307621 -0.0792558)
(-0.959287 0.0686721 -0.0602214)
(-1.07626 0.0191855 0.0617809)
(-0.902468 0.0117523 -0.0186896)
(-0.979619 0.063959 0.0741205)
(-0.940898 -0.054518 -0.0594537)
(-0.939673 0.0283694 -0.0745373)
(-1.04587 -0.0486596 -0.074353)
(-0.971405 0.0771839 0.056789)
(-1.08782 0.00222719 0.0477793)
(-0.929911 0.0375576 -0.0606385)
(-1.01373 0.0429085 -0.0892772)
(-0.981371 -0.0365359 -0.0912036)
(-1.05196 0.0851807 -0.00665653)
(-0.964405 -0.0124954 0.0926114)
(-0.924746 0.0492553 0.0437129)
(-0.957443 0.0109996 0.0898214)
(-1.07699 -0.0144902 -0.0621458)
(-0.966506 0.0377351 0.0863376)
(-0.92555 -0.0590142 0.031217)
(-1.00789 0.0991486 -0.0103555)
(-1.06101 0.0524872 -0.0593523)
(-0.974992 -0.0311061 0.0916898)
(-0.936072 -0.0660133 0.0394386)
(-0.985629 -0.0733503 0.0664321)
(-1.00262 -0.0633588 -0.0773226)
(-0.929133 0.0484812 -0.0512589)
(-0.967884 0.0776508 -0.0542116)
(-0.906918 -0.0305843 0.0200098)
(-1.06212 0.0463645 -0.0631754)
(-0.91974 -0.0596112 0.00218348)
(-0.958883 -0.0356131 0.0839113)
(-1.04885 0.0824777 -0.028475)
(-0.911175 -0.038799 0.0245913)
(-0.954435 0.0877177 -0.0151481)
(-0.99401 -0.0266347 0.0962014)
(-0.964889 0.064831 0.0675587)
(-0.907806 -0.00436268 0.0384858)
(-1.04546 -0.0858376 -0.0237666)
(-0.914238 -0.0338054 -0.0387568)
(-1.05536 0.0186518 0.0811638)
(-0.986918 -0.0159638 0.0978469)
(-0.946371 -0.0843998 -0.000748011)
(-0.960929 -0.0914724 0.0103098)
(-0.966257 0.0540772 0.0770523)
(-0.932822 -0.0231571 -0.0703625)
(-0.923375 0.0411002 -0.04939)
(-0.941645 0.0466874 0.066445)
(-0.934615 -0.0606346 0.0452572)
(-0.995149 0.0562629 -0.0825285)
(-0.959978 -0.060866 0.0685098)
(-1.05715 -0.0651669 -0.0498725)
(-0.975058 0.0495634 -0.0831947)
(-1.00659 -0.0902316 -0.0426004)
(-0.986365 -0.0921882 -0.0362688)
(-1.02365 -0.000247239 0.0971622)
(-0.927767 -0.0634594 0.0274835)
(-0.956933 0.0307369 0.0848555)
(-0.986986 -0.0620043 -0.0773699)
(-1.0744 0.0207406 0.0635143)
(-1.0217 0.0456389 -0.0862913)
(-1.05059 -0.0811578 -0.0292302)
(-0.921297 -0.0616709 -0.00160806)
(-1.06986 -0.0276503 0.0659887)
(-1.02524 0.0965788 0.00596221)
(-1.08278 -0.0327938 0.0455266)
(-1.0656 0.0665139 -0.0356733)
(-1.07097 0.0672201 0.0210946)
(-0.937531 0.0584998 0.0517247)
(-1.06598 0.0187632 0.0727622)
(-0.93114 -0.00145844 -0.0724991)
(-1.05272 0.0362713 -0.0768473)
(-0.966634 -0.0695552 0.0636301)
(-0.926826 -0.0080022 -0.0676869)
(-1.01719 -0.0958417 -0.0227766)
(-1.03467 -0.0102975 -0.0932319)
(-0.929142 0.0687887 -0.0157232)
(-0.995555 0.0659181 0.0750669)
(-1.05145 0.0857492 0.00047712)
(-1.06865 -0.00825818 -0.0722462)
(-0.984208 0.0850812 -0.0501178)
(-0.924035 -0.0455422 -0.046424)
(-1.05816 0.0679284 0.044752)
(-0.977828 -0.0740688 0.0634209)
(-0.900823 -0.00610598 0.0112557)
(-1.04417 0.0464945 -0.0767306)
(-0.969422 0.0536819 0.0786334)
(-1.01988 0.0429114 0.0881109)
(-1.05813 0.081153 0.00594933)
(-0.912215 -0.0422964 -0.0224676)
(-1.04359 -0.0678065 -0.0591777)
(-1.02597 0.0957083 0.0128667)
(-0.978355 0.0844814 0.0489324)
(-0.925817 -0.0406982 -0.0532965)
(-1.085 -0.0332825 0.0408321)
(-0.959204 0.0695769 -0.0591164)
(-1.06677 0.0579567 -0.0467164)
(-1.06659 -0.0241648 -0.070585)
(-0.935679 -0.0395354 0.065573)
(-0.942889 -0.0777401 -0.0263591)
(-1.05661 -0.0272263 0.077807)
(-0.990428 0.0427984 0.0898704)
(-1.01194 0.0439562 -0.0890238)
(-0.924283 -0.0633684 0.0158541)
(-1.0963 -0.014682 0.0226038)
(-0.918486 -0.0539521 -0.0210883)
(-0.985333 -0.09295 -0.0338405)
(-0.961985 -0.0923925 0.00429423)
(-1.06018 0.0272593 -0.0750695)
(-0.927926 -0.0448791 0.052832)
(-1.04988 0.052275 -0.0691305)
(-1.00448 -0.0324681 -0.0944764)
(-0.926818 -0.0322687 0.060026)
(-0.936032 -0.072908 -0.0243413)
(-0.972566 -0.0529609 0.0802653)
(-0.950587 0.0814125 0.030501)
(-1.04231 -0.0617324 0.0663228)
(-1.06872 0.0694313 -0.0213801)
(-0.983836 -0.0791434 0.0589494)
(-0.914007 0.0488168 0.014906)
(-1.05521 0.0310147 -0.0773949)
(-1.05516 0.0127633 -0.0824286)
(-1.02967 0.066887 -0.0681591)
(-1.03046 0.0157017 -0.0939453)
(-0.911731 0.0126962 -0.0452482)
(-1.05322 0.0585439 -0.0611532)
(-0.942054 -0.00830976 0.0810751)
(-0.922558 -0.0212617 -0.0595877)
(-0.954226 -0.0888358 0.00359207)
(-1.06061 -0.0791244 0.008103)
(-1.00318 0.0831142 -0.0555153)
(-0.969874 0.0346313 -0.088843)
(-1.06851 0.0336927 -0.064583)
(-1.03999 0.0598128 0.0694494)
(-1.06975 -0.056118 0.0445608)
(-1.03937 0.00561679 0.0917521)
(-1.06973 0.013994 -0.0703025)
(-1.00762 -0.0536531 0.0840433)
(-0.914481 -0.0424011 0.0298106)
(-0.948545 0.0658016 -0.0549779)
(-1.02053 0.0592611 0.077889)
(-1.00239 -0.0645448 -0.076343)
(-0.940777 0.0295317 0.07497)
(-0.975267 0.085443 0.0456919)
(-0.991208 0.0981374 0.0170807)
(-0.917495 -0.0268926 -0.0496963)
(-0.975798 -0.0529131 -0.0813293)
(-1.07686 -0.0577157 0.0275923)
(-0.929609 0.0342479 0.0622268)
(-0.996428 0.0902307 -0.0429611)
(-1.06601 -0.073049 -0.0175027)
(-0.931421 0.0379011 -0.0621327)
(-0.989406 0.094792 0.0300375)
(-0.913934 -0.0103536 -0.0498543)
(-1.05833 -0.0805121 0.0107543)
(-1.033 -0.0461076 -0.0823729)
(-1.03336 -0.0109509 -0.0936338)
(-0.934833 -0.0275305 0.0706773)
(-0.976371 -0.0947783 0.0214179)
(-0.955147 0.0248418 0.085855)
(-1.02903 0.083269 0.0471559)
(-0.9314 -0.0692015 -0.0224779)
(-0.954157 0.0579717 0.0673623)
(-0.973188 0.00966666 0.0958524)
(-1.08334 0.0528489 0.0161895)
(-0.914306 0.0485545 -0.0172915)
(-0.954609 -0.0822088 -0.0343705)
(-1.05034 0.0554093 -0.0663022)
(-1.04738 0.0301995 -0.082723)
(-0.927041 0.0679423 -0.00780053)
(-0.932106 0.0710284 -0.0185856)
(-1.01462 -0.0683557 -0.0715098)
(-1.07664 0.00340914 -0.0641425)
(-0.933635 0.00256271 0.0747606)
(-1.09084 0.00839176 0.0409564)
(-0.924189 0.0536851 0.0370226)
(-0.908011 0.0306577 0.0244564)
(-0.967432 0.0939151 0.0109224)
(-0.989632 0.010527 0.0989025)
(-1.0866 0.046738 0.0177907)
(-0.924512 -0.00302548 0.0655163)
(-0.991688 0.0943502 -0.0320773)
(-0.930074 -0.048385 0.0526232)
(-0.988064 0.0868219 -0.0481611)
(-0.923488 0.0464075 0.0446345)
(-0.931505 -0.0292502 0.06673)
(-1.06456 0.0166092 -0.0745416)
(-0.932874 -0.0732776 -0.0111575)
(-1.05237 -0.0504958 0.0686104)
(-0.918195 0.0287919 0.0497892)
(-1.03693 0.0676449 0.0637236)
(-0.934043 0.065846 -0.0362495)
(-0.956996 -0.0613418 0.0662407)
(-1.03576 -0.0794555 -0.049069)
(-1.0279 0.0293282 0.0914402)
(-1.0381 0.052612 0.0760271)
(-1.02659 0.084647 0.0461292)
(-0.940382 -0.0551623 0.0583342)
(-1.05179 -0.0424423 -0.0742719)
(-0.935329 0.0459229 -0.0608991)
(-0.963035 0.0630088 -0.0682897)
(-1.08212 0.0566119 -0.00713378)
(-0.924033 -0.0207402 0.0616343)
(-0.972394 -0.018068 -0.0944004)
(-1.08637 -0.0163723 -0.0476723)
(-1.07354 0.0535907 0.0414724)
(-0.991631 -0.099288 -0.00847581)
(-0.96854 0.0890535 0.0328597)
(-0.957648 0.0714093 -0.055741)
(-1.0206 -0.0309651 0.0928273)
(-1.05763 0.0499426 0.0646909)
(-0.905953 0.0269306 0.0207332)
(-1.08825 0.0210467 0.0420591)
(-1.01113 -0.099205 0.00587075)
(-0.935365 0.0202423 -0.07357)
(-1.01797 -0.0962917 -0.0201272)
(-0.928132 -0.0420907 -0.0553473)
(-1.05177 -0.0795563 0.0314698)
(-1.06497 -0.0716615 0.0253558)
(-1.05319 0.0101203 0.0840728)
(-0.984313 0.0810369 0.0564531)
(-1.04011 0.0914255 0.00572339)
(-0.96786 0.0277093 -0.0905495)
(-1.00834 0.0705901 -0.0703378)
(-0.955067 -0.0168793 -0.0877276)
(-1.01301 0.0221287 0.096649)
(-0.964958 -0.0192285 -0.0916641)
(-0.941247 -0.0426921 -0.0687419)
(-0.91057 0.0376616 -0.0241639)
(-1.0521 -0.0846393 -0.0110481)
(-1.07205 -0.00558918 -0.069118)
(-1.04848 -0.0831658 -0.027076)
(-1.04705 -0.0306833 0.0827316)
(-0.976201 0.0955069 0.0176644)
(-0.944476 -0.0418575 -0.0718684)
(-0.922436 0.045596 0.0436451)
(-0.922663 -0.0258124 0.057903)
(-0.955639 -0.0736289 0.0510965)
(-0.958069 -0.0781962 -0.0461214)
(-1.01527 0.0987779 -0.00310715)
(-1.07535 0.0657401 0.000373853)
(-1.07303 0.0667459 0.0145446)
(-0.943062 0.0428704 0.0701443)
(-1.00987 -0.088743 -0.0450248)
(-1.01699 -0.0404399 0.0898661)
(-1.04323 0.0598297 -0.0674632)
(-1.02108 -0.0952696 0.0218948)
(-0.978135 0.0906 -0.0362429)
(-0.916272 -0.0225789 0.0497981)
(-0.95376 -0.0672162 -0.057826)
(-0.940897 -0.0800147 -0.0102219)
(-0.915008 0.0332752 -0.0408544)
(-1.04348 -0.0607095 -0.0665135)
(-1.03331 0.0413619 0.0847338)
(-0.919541 -0.0550207 0.0223397)
(-1.0521 0.081151 0.0264579)
(-0.950533 0.0363641 -0.0789346)
(-0.930395 -0.0303284 -0.0650797)
(-0.951663 0.0754863 -0.0443317)
(-0.945838 -0.0830862 0.0127719)
(-1.07059 -0.0622781 -0.0337328)
(-1.02104 -0.020153 0.0956621)
(-1.06679 -0.057795 -0.046893)
(-1.08342 -0.0460187 -0.0304008)
(-0.991 0.0552478 -0.0828654)
(-0.943585 -0.0777006 0.0279268)
(-1.0746 -0.0598926 -0.0291251)
(-1.04272 -0.0667631 0.0609739)
(-1.02232 -0.049076 0.0842212)
(-0.966788 -0.0365329 -0.0869614)
(-0.927285 0.00988468 -0.067932)
(-0.984581 -0.053845 -0.0828431)
(-0.98591 -0.0449498 -0.08821)
(-1.09047 -0.0421339 -0.00636465)
(-0.999176 0.0328048 -0.0944625)
(-1.02691 0.0738395 -0.0618363)
(-0.935153 0.0718074 0.0252689)
(-1.02399 -0.0661402 0.0710624)
(-0.994252 0.0679404 0.073151)
(-1.01287 0.0435548 0.0890921)
(-0.98023 -0.0177746 0.0964014)
(-0.915462 -0.0325553 -0.0423493)
(-0.934372 -0.0442271 0.0611307)
(-1.03139 0.0722581 0.0615907)
(-0.930529 -0.0538722 0.0476604)
(-1.08809 0.00639745 0.0468934)
(-0.96896 0.059864 -0.0738433)
(-0.958524 0.0521011 0.0746004)
(-1.06366 -0.0574969 -0.0514017)
(-1.0654 -0.0214653 -0.0725404)
(-0.93545 -0.0275032 -0.0712521)
(-1.01494 -0.0633329 0.0759319)
(-0.923925 0.0645968 0.00630887)
(-1.05099 -0.0642083 -0.0572481)
(-1.02423 0.0621251 -0.0745208)
(-1.0799 0.0253347 0.0545303)
(-1.08774 -0.0375498 0.0298635)
(-1.03067 -0.0801671 -0.0513068)
(-0.962147 0.0765765 0.0519923)
(-1.03499 -0.0617445 -0.0704514)
(-1.05547 -0.0247892 0.0794284)
(-0.960196 0.00388388 -0.0916547)
(-0.973405 0.0764394 -0.0587342)
(-1.04979 0.0502822 -0.0706607)
(-0.90289 0.0238656 -0.000365736)
(-0.933762 -0.0312267 0.0680984)
(-1.06286 -0.077164 -0.0096982)
)
;

boundaryField
{
    movingWall
    {
        type            fixedValue;
        value           uniform (1 0 0);
    }
    fixedWalls
    {
        type            noSlip;
    }
    frontAndBack
    {
        type            empty;
    }
}


// ************************************************************************* //
