/*--------------------------------*- C++ -*----------------------------------*\
| =========                 |                                                 |
| \\      /  F ield         | OpenFOAM: The Open Source CFD Toolbox           |
|  \\    /   O peration     | Version:  2312                                  |
|   \\  /    A nd           | Website:  www.openfoam.com                      |
|    \\/     M anipulation  |                                                 |
\*---------------------------------------------------------------------------*/
FoamFile
{
    version     2.0;
    format      ascii;
    arch        "LSB;label=32;scalar=64";
    class       volVectorField;
    location    "7.375";
    object      vorticityField;
}
// * * * * * * * * * * * * * * * * * * * * * * * * * * * * * * * * * * * * * //

dimensions      [0 0 -1 0 0 0 0];

internalField   nonuniform List<vector> 
400
(
(0 -0 1.14817e-11)
(0 -0 -1.62807e-11)
(0 -0 3.56337e-12)
(0 -0 -9.12821e-13)
(0 -0 1.09863e-13)
(0 -0 -1.04781e-13)
(0 -0 -7.20996e-14)
(0 -0 -4.55746e-14)
(0 -0 -5.23563e-14)
(0 -0 -5.89828e-14)
(0 -0 -2.48628e-14)
(0 -0 6.32104e-15)
(0 -0 2.65975e-15)
(0 -0 -7.33757e-15)
(0 -0 -6.74004e-15)
(0 -0 2.67679e-15)
(0 -0 5.18894e-14)
(0 -0 -1.33255e-14)
(0 -0 -4.12495e-15)
(0 -0 7.03233e-15)
(0 -0 -9.99515e-13)
(0 -0 8.90218e-13)
(0 -0 -7.25039e-14)
(0 -0 1.50248e-13)
(0 -0 1.19873e-13)
(0 -0 1.37321e-13)
(0 -0 1.73021e-13)
(0 -0 1.48903e-13)
(0 -0 1.19802e-13)
(0 -0 5.94098e-14)
(0 -0 -1.5343e-14)
(0 -0 -7.61491e-14)
(0 -0 -3.21408e-14)
(0 -0 -3.81185e-16)
(0 -0 2.63136e-15)
(0 -0 1.49374e-14)
(0 -0 -5.9901e-14)
(0 -0 -3.64564e-14)
(0 -0 -1.29128e-14)
(0 -0 3.10403e-14)
(0 -0 -4.76492e-12)
(0 -0 1.18385e-11)
(0 -0 -2.74728e-12)
(0 -0 5.94453e-13)
(0 -0 -2.6366e-13)
(0 -0 -7.8331e-14)
(0 -0 -5.26678e-14)
(0 -0 -3.01857e-14)
(0 -0 -4.04389e-14)
(0 -0 2.65418e-14)
(0 -0 3.83037e-14)
(0 -0 2.3497e-14)
(0 -0 -1.07934e-15)
(0 -0 9.90771e-15)
(0 -0 6.96582e-15)
(0 -0 -1.6278e-14)
(0 -0 -5.53609e-14)
(0 -0 -4.56752e-14)
(0 -0 -2.91724e-14)
(0 -0 4.99329e-15)
(0 -0 6.51614e-12)
(0 -0 -1.16111e-11)
(0 -0 2.70408e-12)
(0 -0 -6.06728e-13)
(0 -0 1.97755e-13)
(0 -0 -3.82768e-14)
(0 -0 -8.3401e-14)
(0 -0 -6.20721e-14)
(0 -0 -6.08252e-15)
(0 -0 -2.40447e-15)
(0 -0 6.94647e-14)
(0 -0 5.04164e-14)
(0 -0 3.53774e-14)
(0 -0 4.85521e-14)
(0 -0 -1.24117e-14)
(0 -0 -2.41409e-14)
(0 -0 -1.54887e-14)
(0 -0 3.10768e-14)
(0 -0 3.08613e-14)
(0 -0 1.37072e-14)
(0 -0 -2.62074e-12)
(0 -0 3.26379e-12)
(0 -0 -8.41888e-13)
(0 -0 9.67907e-14)
(0 -0 -8.61843e-14)
(0 -0 7.1067e-14)
(0 -0 2.98785e-14)
(0 -0 -1.51946e-14)
(0 -0 -2.12931e-15)
(0 -0 1.08126e-13)
(0 -0 5.09037e-14)
(0 -0 3.1694e-15)
(0 -0 -3.20167e-14)
(0 -0 -6.49819e-14)
(0 -0 -4.20161e-14)
(0 -0 -4.4662e-15)
(0 -0 8.50514e-14)
(0 -0 -7.74215e-15)
(0 -0 -5.44592e-15)
(0 -0 4.11299e-14)
(0 -0 -6.09983e-12)
(0 -0 8.79441e-12)
(0 -0 -1.98402e-12)
(0 -0 4.46422e-13)
(0 -0 -1.4343e-13)
(0 -0 -5.62198e-14)
(0 -0 -3.46096e-15)
(0 -0 8.29946e-15)
(0 -0 6.30704e-14)
(0 -0 1.26083e-14)
(0 -0 -3.32e-15)
(0 -0 -4.36657e-15)
(0 -0 8.83043e-14)
(0 -0 6.03963e-14)
(0 -0 -7.91263e-16)
(0 -0 -1.15005e-14)
(0 -0 -7.14938e-14)
(0 -0 -3.17545e-15)
(0 -0 -1.66356e-14)
(0 -0 -1.81718e-14)
(0 -0 9.55658e-12)
(0 -0 -1.43574e-11)
(0 -0 3.46141e-12)
(0 -0 -6.4886e-13)
(0 -0 2.55004e-13)
(0 -0 -3.79039e-14)
(0 -0 6.84985e-14)
(0 -0 5.38541e-14)
(0 -0 -7.32551e-14)
(0 -0 -2.52112e-14)
(0 -0 -1.27698e-14)
(0 -0 6.36734e-14)
(0 -0 3.93021e-14)
(0 -0 8.70868e-15)
(0 -0 8.84928e-14)
(0 -0 -9.16833e-15)
(0 -0 -7.40772e-14)
(0 -0 7.40953e-15)
(0 -0 4.55226e-14)
(0 -0 -8.98422e-15)
(0 -0 -3.8322e-12)
(0 -0 6.7494e-12)
(0 -0 -1.58888e-12)
(0 -0 3.94101e-13)
(0 -0 -7.71544e-14)
(0 -0 8.1645e-14)
(0 -0 -4.42563e-15)
(0 -0 7.80713e-15)
(0 -0 -3.36477e-15)
(0 -0 -4.48052e-14)
(0 -0 -3.31892e-14)
(0 -0 5.14977e-16)
(0 -0 -3.48426e-14)
(0 -0 -6.02636e-14)
(0 -0 -1.1731e-16)
(0 -0 -1.6453e-16)
(0 -0 2.86593e-14)
(0 -0 7.03966e-15)
(0 -0 1.03213e-14)
(0 -0 2.62188e-14)
(0 -0 -4.13795e-12)
(0 -0 5.03984e-12)
(0 -0 -1.24126e-12)
(0 -0 1.80571e-13)
(0 -0 -1.61598e-13)
(0 -0 -8.05496e-14)
(0 -0 -1.28418e-13)
(0 -0 -6.63238e-14)
(0 -0 -2.941e-14)
(0 -0 -1.12431e-13)
(0 -0 -1.51521e-13)
(0 -0 -1.21504e-13)
(0 -0 -1.19806e-13)
(0 -0 -7.01776e-14)
(0 -0 -9.01946e-14)
(0 -0 -4.64993e-14)
(0 -0 -1.15641e-14)
(0 -0 -4.15912e-14)
(0 -0 -2.09409e-14)
(0 -0 1.85947e-15)
(0 -0 9.71235e-12)
(0 -0 -1.20047e-11)
(0 -0 2.77011e-12)
(0 -0 -6.66448e-13)
(0 -0 1.4231e-13)
(0 -0 -5.36033e-14)
(0 -0 -2.74275e-14)
(0 -0 -5.50068e-15)
(0 -0 3.77261e-15)
(0 -0 7.16268e-16)
(0 -0 2.45113e-14)
(0 -0 -2.90394e-15)
(0 -0 -8.63673e-15)
(0 -0 -2.06037e-14)
(0 -0 -3.72129e-14)
(0 -0 7.41942e-14)
(0 -0 8.14942e-14)
(0 -0 6.12145e-14)
(0 -0 1.63249e-14)
(0 -0 -5.76471e-15)
(0 -0 -1.10976e-11)
(0 -0 1.25822e-11)
(0 -0 -2.83544e-12)
(0 -0 6.9939e-13)
(0 -0 -1.01666e-13)
(0 -0 3.9231e-14)
(0 -0 2.05993e-14)
(0 -0 -8.33983e-15)
(0 -0 2.49364e-14)
(0 -0 2.55307e-14)
(0 -0 -1.12303e-14)
(0 -0 3.06443e-14)
(0 -0 6.96349e-14)
(0 -0 2.06944e-14)
(0 -0 -2.07499e-14)
(0 -0 -1.03899e-15)
(0 -0 1.34385e-14)
(0 -0 6.95003e-15)
(0 -0 5.28999e-14)
(0 -0 -2.50469e-14)
(0 -0 7.42902e-12)
(0 -0 -9.35601e-12)
(0 -0 2.24223e-12)
(0 -0 -4.52293e-13)
(0 -0 2.18596e-13)
(0 -0 1.04372e-13)
(0 -0 1.09966e-13)
(0 -0 3.04802e-15)
(0 -0 7.41688e-14)
(0 -0 8.8769e-14)
(0 -0 5.07721e-14)
(0 -0 1.90173e-14)
(0 -0 8.72388e-14)
(0 -0 9.28601e-14)
(0 -0 1.05059e-13)
(0 -0 -1.04667e-14)
(0 -0 1.95148e-15)
(0 -0 6.32308e-14)
(0 -0 -4.45945e-15)
(0 -0 2.85648e-16)
(0 -0 -5.43367e-13)
(0 -0 2.60631e-12)
(0 -0 -6.95789e-13)
(0 -0 1.10717e-13)
(0 -0 -3.66089e-14)
(0 -0 2.45377e-14)
(0 -0 -5.33518e-14)
(0 -0 5.14379e-14)
(0 -0 6.73973e-15)
(0 -0 -3.68661e-14)
(0 -0 5.99077e-14)
(0 -0 -2.92368e-14)
(0 -0 -6.19075e-14)
(0 -0 -9.77869e-16)
(0 -0 1.78015e-14)
(0 -0 1.15975e-14)
(0 -0 7.83965e-16)
(0 -0 -7.42436e-15)
(0 -0 -8.96859e-14)
(0 -0 4.77384e-14)
(0 -0 -5.984e-12)
(0 -0 7.19184e-12)
(0 -0 -1.7277e-12)
(0 -0 3.82138e-13)
(0 -0 -1.32368e-13)
(0 -0 -1.05037e-13)
(0 -0 -7.49507e-14)
(0 -0 -8.22489e-14)
(0 -0 -3.71843e-14)
(0 -0 -4.33558e-14)
(0 -0 -1.07072e-13)
(0 -0 -6.16157e-14)
(0 -0 -1.32209e-13)
(0 -0 -9.83095e-14)
(0 -0 -7.24297e-14)
(0 -0 1.62445e-14)
(0 -0 -1.86005e-15)
(0 -0 -6.31564e-14)
(0 -0 -2.87122e-14)
(0 -0 2.35717e-14)
(0 -0 9.74144e-12)
(0 -0 -1.45226e-11)
(0 -0 3.49856e-12)
(0 -0 -7.31008e-13)
(0 -0 2.53252e-13)
(0 -0 6.89947e-14)
(0 -0 1.55393e-13)
(0 -0 8.19051e-14)
(0 -0 7.08004e-14)
(0 -0 4.61892e-14)
(0 -0 6.52249e-14)
(0 -0 7.02278e-14)
(0 -0 9.89158e-14)
(0 -0 -1.60343e-15)
(0 -0 -3.9541e-14)
(0 -0 6.57408e-14)
(0 -0 8.98823e-14)
(0 -0 -1.41302e-16)
(0 -0 5.61829e-14)
(0 -0 1.05923e-14)
(0 -0 -6.40355e-12)
(0 -0 1.09021e-11)
(0 -0 -2.55772e-12)
(0 -0 6.25989e-13)
(0 -0 -1.00425e-13)
(0 -0 6.03361e-14)
(0 -0 7.00863e-14)
(0 -0 3.58576e-14)
(0 -0 -1.57663e-14)
(0 -0 8.04518e-14)
(0 -0 1.02574e-13)
(0 -0 9.60265e-14)
(0 -0 -7.27796e-15)
(0 -0 -1.70765e-14)
(0 -0 -1.70019e-14)
(0 -0 -9.34174e-14)
(0 -0 -8.41762e-14)
(0 -0 -2.59605e-14)
(0 -0 1.12392e-14)
(0 -0 2.1067e-14)
(0 -0 1.07173e-12)
(0 -0 4.78104e-13)
(0 -0 -2.13394e-13)
(0 -0 -5.26037e-14)
(0 -0 -1.55255e-13)
(0 -0 -9.30505e-14)
(0 -0 -1.37242e-13)
(0 -0 -6.58492e-14)
(0 -0 -7.93895e-14)
(0 -0 -9.99346e-14)
(0 -0 -9.87884e-14)
(0 -0 -1.14983e-13)
(0 -0 -7.84735e-14)
(0 -0 -9.00447e-15)
(0 -0 2.11059e-14)
(0 -0 1.5715e-15)
(0 -0 -6.65452e-15)
(0 -0 -7.36133e-15)
(0 -0 -3.06612e-15)
(0 -0 2.20074e-14)
(0 -0 3.07245e-12)
(0 -0 -1.05212e-11)
(0 -0 2.47463e-12)
(0 -0 -6.23197e-13)
(0 -0 1.3813e-13)
(0 -0 -3.14994e-14)
(0 -0 9.24962e-16)
(0 -0 -2.26094e-14)
(0 -0 -1.40314e-14)
(0 -0 -5.84466e-14)
(0 -0 -8.26633e-14)
(0 -0 -2.56569e-14)
(0 -0 3.23327e-14)
(0 -0 5.41813e-14)
(0 -0 1.41412e-13)
(0 -0 9.05426e-14)
(0 -0 -1.77455e-14)
(0 -0 -9.29794e-15)
(0 -0 3.86939e-15)
(0 -0 3.96813e-15)
(0 -0 -3.29642e-12)
(0 -0 5.60849e-12)
(0 -0 -1.29679e-12)
(0 -0 2.74115e-13)
(0 -0 -1.17097e-13)
(0 -0 2.3756e-14)
(0 -0 -3.49859e-14)
(0 -0 -3.49512e-14)
(0 -0 7.77645e-15)
(0 -0 1.08276e-14)
(0 -0 -1.17107e-14)
(0 -0 -4.6004e-14)
(0 -0 -2.38975e-14)
(0 -0 -1.23697e-14)
(0 -0 -4.69745e-14)
(0 -0 -5.72938e-15)
(0 -0 -3.78473e-14)
(0 -0 2.67924e-14)
(0 -0 -1.61782e-14)
(0 -0 -2.21237e-14)
(0 -0 -4.43766e-12)
(0 -0 7.26457e-12)
(0 -0 -1.48641e-12)
(0 -0 4.17402e-13)
(0 -0 -4.25751e-14)
(0 -0 4.7029e-15)
(0 -0 1.4754e-14)
(0 -0 5.18873e-14)
(0 -0 2.83992e-14)
(0 -0 6.18592e-14)
(0 -0 6.01573e-14)
(0 -0 5.30165e-14)
(0 -0 2.77496e-14)
(0 -0 3.02699e-14)
(0 -0 -4.26269e-15)
(0 -0 -5.79257e-14)
(0 -0 3.14939e-14)
(0 -0 1.89271e-15)
(0 -0 3.04012e-14)
(0 -0 3.73763e-14)
)
;

boundaryField
{
    movingWall
    {
        type            calculated;
        value           nonuniform List<vector> 
20
(
(0 -0 -1.26682e-11)
(0 -0 9.51902e-12)
(0 -0 -1.51582e-12)
(0 -0 7.01159e-13)
(0 -0 2.14077e-13)
(0 -0 3.15565e-13)
(0 -0 3.4292e-13)
(0 -0 3.0854e-13)
(0 -0 2.23339e-13)
(0 -0 2.29694e-13)
(0 -0 2.27992e-13)
(0 -0 2.20851e-13)
(0 -0 1.7828e-13)
(0 -0 1.36392e-13)
(0 -0 4.01462e-14)
(0 -0 4.06933e-14)
(0 -0 4.87978e-14)
(0 -0 1.89271e-15)
(0 -0 4.7705e-14)
(0 -0 5.46802e-14)
)
;
    }
    fixedWalls
    {
        type            calculated;
        value           nonuniform List<vector> 
60
(
(0 -0 6.85e-11)
(0 -0 -3.54539e-12)
(0 -0 -4.98735e-11)
(0 -0 4.98074e-11)
(0 -0 -1.44907e-11)
(0 -0 -3.76696e-11)
(0 -0 6.19927e-11)
(0 -0 -2.87386e-11)
(0 -0 -2.23682e-11)
(0 -0 5.1202e-11)
(0 -0 -5.33368e-11)
(0 -0 4.02453e-11)
(0 -0 -1.12251e-11)
(0 -0 -3.08179e-11)
(0 -0 6.21298e-11)
(0 -0 -4.62842e-11)
(0 -0 -2.63428e-12)
(0 -0 4.48204e-11)
(0 -0 -2.39189e-11)
(0 -0 -3.05011e-11)
(0 -0 8.50149e-15)
(0 -0 5.04646e-14)
(0 -0 3.25515e-14)
(0 -0 2.75946e-14)
(0 -0 4.52799e-14)
(0 -0 -2.29644e-14)
(0 -0 -1.84237e-14)
(0 -0 1.58133e-14)
(0 -0 -3.2855e-15)
(0 -0 3.70581e-15)
(0 -0 -1.87931e-14)
(0 -0 1.70832e-14)
(0 -0 7.59282e-14)
(0 -0 4.49754e-14)
(0 -0 1.65296e-14)
(0 -0 2.37685e-14)
(0 -0 4.07596e-14)
(0 -0 3.61175e-15)
(0 -0 -3.13413e-14)
(0 -0 3.75665e-14)
(0 -0 1.98524e-11)
(0 -0 -1.88829e-11)
(0 -0 3.38804e-12)
(0 -0 -1.34711e-12)
(0 -0 -2.52911e-13)
(0 -0 -4.05842e-13)
(0 -0 -3.90465e-13)
(0 -0 -3.46636e-13)
(0 -0 -2.20191e-13)
(0 -0 -2.71226e-13)
(0 -0 -1.75393e-13)
(0 -0 -1.26906e-13)
(0 -0 -1.30567e-13)
(0 -0 -1.40564e-13)
(0 -0 -6.74004e-15)
(0 -0 -4.17321e-14)
(0 -0 8.64971e-14)
(0 -0 -1.33255e-14)
(0 -0 -4.12495e-15)
(0 -0 7.03233e-15)
)
;
    }
    frontAndBack
    {
        type            empty;
    }
}


// ************************************************************************* //
