/*--------------------------------*- C++ -*----------------------------------*\
| =========                 |                                                 |
| \\      /  F ield         | OpenFOAM: The Open Source CFD Toolbox           |
|  \\    /   O peration     | Version:  2312                                  |
|   \\  /    A nd           | Website:  www.openfoam.com                      |
|    \\/     M anipulation  |                                                 |
\*---------------------------------------------------------------------------*/
FoamFile
{
    version     2.0;
    format      ascii;
    arch        "LSB;label=32;scalar=64";
    class       volVectorField;
    location    "7.375";
    object      zeroGradient(U);
}
// * * * * * * * * * * * * * * * * * * * * * * * * * * * * * * * * * * * * * //

dimensions      [0 1 -1 0 0 0 0];

internalField   nonuniform List<vector> 
400
(
(-1 1.77078e-13 0)
(-1 -3.89499e-14 0)
(-1 9.12077e-15 0)
(-1 -1.96089e-15 0)
(-1 5.34665e-16 0)
(-1 -4.91102e-17 0)
(-1 2.89548e-17 0)
(-1 4.3045e-17 0)
(-1 1.1531e-16 0)
(-1 6.15831e-17 0)
(-1 6.75826e-17 0)
(-1 8.40057e-17 0)
(-1 1.30793e-16 0)
(-1 1.10603e-16 0)
(-1 5.74173e-17 0)
(-1 4.32028e-17 0)
(-1 8.41851e-17 0)
(-1 1.99958e-17 0)
(-1 -4.90696e-17 0)
(-1 -2.12537e-17 0)
(-1 -7.91479e-15 0)
(-1 1.71434e-15 0)
(-1 -3.67856e-16 0)
(-1 1.76149e-16 0)
(-1 5.04232e-17 0)
(-1 1.96264e-17 0)
(-1 6.83784e-17 0)
(-1 1.23533e-16 0)
(-1 2.02153e-16 0)
(-1 2.3735e-16 0)
(-1 2.5415e-16 0)
(-1 8.39201e-17 0)
(-1 3.47603e-17 0)
(-1 3.35622e-17 0)
(-1 3.09485e-17 0)
(-1 5.98758e-17 0)
(-1 1.80322e-16 0)
(-1 2.96697e-18 0)
(-1 -1.84242e-16 0)
(-1 -1.26161e-16 0)
(-1 -1.3993e-13 0)
(-1 3.12948e-14 0)
(-1 -6.90849e-15 0)
(-1 1.9246e-15 0)
(-1 -1.50811e-16 0)
(-1 1.01155e-16 0)
(-1 -1.2097e-16 0)
(-1 -1.54473e-16 0)
(-1 -1.51776e-16 0)
(-1 -1.67611e-17 0)
(-1 1.13642e-16 0)
(-1 9.52254e-17 0)
(-1 7.75615e-17 0)
(-1 8.4432e-17 0)
(-1 1.76639e-16 0)
(-1 1.5409e-16 0)
(-1 1.3859e-17 0)
(-1 -1.28468e-16 0)
(-1 -1.71842e-16 0)
(-1 -1.49141e-16 0)
(-1 1.34547e-13 0)
(-1 -2.92705e-14 0)
(-1 7.05189e-15 0)
(-1 -1.41658e-15 0)
(-1 4.42506e-16 0)
(-1 1.88701e-17 0)
(-1 5.97377e-17 0)
(-1 -1.9885e-18 0)
(-1 -1.8882e-17 0)
(-1 -6.28137e-17 0)
(-1 -4.29268e-17 0)
(-1 8.97318e-17 0)
(-1 1.90186e-16 0)
(-1 1.72455e-16 0)
(-1 1.33606e-16 0)
(-1 4.8338e-17 0)
(-1 -1.07803e-16 0)
(-1 -1.06549e-16 0)
(-1 -6.8085e-17 0)
(-1 -6.89866e-17 0)
(-1 -3.70398e-14 0)
(-1 7.57988e-15 0)
(-1 -1.9625e-15 0)
(-1 2.45201e-16 0)
(-1 -1.81437e-16 0)
(-1 -7.45416e-17 0)
(-1 -1.28684e-17 0)
(-1 -4.6807e-17 0)
(-1 -1.64814e-16 0)
(-1 -6.81001e-17 0)
(-1 1.03296e-16 0)
(-1 1.69886e-16 0)
(-1 1.3499e-16 0)
(-1 1.2077e-16 0)
(-1 2.72719e-17 0)
(-1 -2.83409e-17 0)
(-1 -1.73901e-17 0)
(-1 9.02197e-18 0)
(-1 -9.48116e-17 0)
(-1 -4.54372e-17 0)
(-1 -9.82398e-14 0)
(-1 2.09784e-14 0)
(-1 -4.87467e-15 0)
(-1 1.13827e-15 0)
(-1 -1.39398e-16 0)
(-1 -2.49815e-17 0)
(-1 -1.59495e-16 0)
(-1 -5.95911e-17 0)
(-1 -7.65008e-17 0)
(-1 2.90119e-17 0)
(-1 4.95824e-17 0)
(-1 -4.18814e-18 0)
(-1 5.9167e-18 0)
(-1 6.57034e-17 0)
(-1 6.77787e-17 0)
(-1 5.77908e-17 0)
(-1 -4.72263e-17 0)
(-1 -1.15046e-16 0)
(-1 -7.89807e-17 0)
(-1 -1.03517e-17 0)
(-1 1.63045e-13 0)
(-1 -3.52247e-14 0)
(-1 8.35821e-15 0)
(-1 -1.69482e-15 0)
(-1 5.14363e-16 0)
(-1 4.20716e-17 0)
(-1 1.35323e-16 0)
(-1 1.84956e-16 0)
(-1 1.31763e-16 0)
(-1 -5.49392e-18 0)
(-1 -1.20349e-16 0)
(-1 -1.33192e-16 0)
(-1 -2.57159e-17 0)
(-1 -1.12215e-17 0)
(-1 6.13709e-17 0)
(-1 6.05545e-17 0)
(-1 -3.03125e-17 0)
(-1 -1.38116e-16 0)
(-1 4.37829e-17 0)
(-1 4.60593e-17 0)
(-1 -7.73353e-14 0)
(-1 1.70582e-14 0)
(-1 -4.14916e-15 0)
(-1 8.98314e-16 0)
(-1 -2.08151e-16 0)
(-1 1.26769e-16 0)
(-1 6.61977e-17 0)
(-1 8.25131e-17 0)
(-1 1.44269e-16 0)
(-1 4.88654e-17 0)
(-1 -3.27326e-17 0)
(-1 -1.19764e-17 0)
(-1 -2.75828e-17 0)
(-1 -8.93523e-17 0)
(-1 -8.81179e-17 0)
(-1 -9.05254e-17 0)
(-1 -8.97632e-17 0)
(-1 -7.49833e-17 0)
(-1 -1.93666e-17 0)
(-1 2.82294e-17 0)
(-1 -5.68691e-14 0)
(-1 1.16949e-14 0)
(-1 -2.94696e-15 0)
(-1 6.37519e-16 0)
(-1 -5.70527e-17 0)
(-1 1.05745e-16 0)
(-1 -4.93969e-17 0)
(-1 -9.4231e-17 0)
(-1 1.00516e-16 0)
(-1 1.5377e-16 0)
(-1 6.04066e-17 0)
(-1 -6.18637e-18 0)
(-1 -7.04314e-17 0)
(-1 -1.20043e-16 0)
(-1 -2.30106e-16 0)
(-1 -2.08837e-16 0)
(-1 -1.52998e-16 0)
(-1 -5.34276e-17 0)
(-1 -2.68084e-17 0)
(-1 8.21374e-18 0)
(-1 1.28954e-13 0)
(-1 -2.80354e-14 0)
(-1 6.46731e-15 0)
(-1 -1.41853e-15 0)
(-1 3.44931e-16 0)
(-1 4.57766e-18 0)
(-1 7.99482e-17 0)
(-1 1.35308e-18 0)
(-1 2.49414e-17 0)
(-1 3.90791e-17 0)
(-1 3.21041e-17 0)
(-1 1.31412e-17 0)
(-1 3.06469e-18 0)
(-1 -7.3226e-17 0)
(-1 -2.02973e-16 0)
(-1 -1.74304e-16 0)
(-1 -3.13199e-18 0)
(-1 9.85367e-17 0)
(-1 6.69117e-17 0)
(-1 -9.26453e-18 0)
(-1 -1.31241e-13 0)
(-1 2.86681e-14 0)
(-1 -6.50411e-15 0)
(-1 1.39794e-15 0)
(-1 -3.23367e-16 0)
(-1 1.10235e-16 0)
(-1 6.89434e-17 0)
(-1 4.51773e-17 0)
(-1 -1.44549e-17 0)
(-1 2.3491e-17 0)
(-1 -3.01987e-17 0)
(-1 -8.88118e-17 0)
(-1 5.19391e-18 0)
(-1 6.54358e-17 0)
(-1 -5.89122e-17 0)
(-1 -1.42063e-16 0)
(-1 -6.93021e-17 0)
(-1 -7.67831e-18 0)
(-1 1.98234e-19 0)
(-1 -2.07799e-17 0)
(-1 1.01833e-13 0)
(-1 -2.26638e-14 0)
(-1 5.29128e-15 0)
(-1 -1.32568e-15 0)
(-1 2.26253e-16 0)
(-1 4.71258e-17 0)
(-1 1.85771e-16 0)
(-1 6.25883e-17 0)
(-1 -5.47995e-17 0)
(-1 -8.87525e-18 0)
(-1 1.97388e-17 0)
(-1 -4.32552e-17 0)
(-1 -6.11384e-17 0)
(-1 1.59815e-17 0)
(-1 5.43108e-17 0)
(-1 -1.76282e-17 0)
(-1 -5.03559e-17 0)
(-1 1.88655e-18 0)
(-1 3.98515e-17 0)
(-1 -4.2708e-17 0)
(-1 -3.30773e-14 0)
(-1 7.58589e-15 0)
(-1 -1.86423e-15 0)
(-1 3.56952e-16 0)
(-1 -2.14955e-16 0)
(-1 -9.13671e-18 0)
(-1 3.04217e-17 0)
(-1 -5.53781e-19 0)
(-1 2.6993e-18 0)
(-1 6.68435e-17 0)
(-1 1.76139e-16 0)
(-1 1.2382e-16 0)
(-1 -1.16228e-16 0)
(-1 -2.24205e-16 0)
(-1 -1.26007e-16 0)
(-1 -4.61901e-17 0)
(-1 -1.0032e-17 0)
(-1 -3.83504e-17 0)
(-1 -8.42756e-17 0)
(-1 -1.22058e-16 0)
(-1 -7.71803e-14 0)
(-1 1.67982e-14 0)
(-1 -3.90668e-15 0)
(-1 8.76509e-16 0)
(-1 -8.52968e-17 0)
(-1 9.49265e-17 0)
(-1 -5.14679e-17 0)
(-1 -1.1248e-16 0)
(-1 -6.0805e-17 0)
(-1 5.77788e-17 0)
(-1 4.77384e-17 0)
(-1 7.12646e-17 0)
(-1 -2.63172e-17 0)
(-1 -1.66621e-16 0)
(-1 -1.96261e-16 0)
(-1 -7.77663e-17 0)
(-1 -3.38156e-17 0)
(-1 -9.63668e-17 0)
(-1 -1.23278e-16 0)
(-1 -1.12439e-16 0)
(-1 1.62711e-13 0)
(-1 -3.57518e-14 0)
(-1 8.26916e-15 0)
(-1 -1.85036e-15 0)
(-1 4.16979e-16 0)
(-1 -1.30995e-16 0)
(-1 2.27238e-17 0)
(-1 6.76792e-17 0)
(-1 2.86231e-17 0)
(-1 -3.74686e-17 0)
(-1 -5.15861e-17 0)
(-1 7.26796e-17 0)
(-1 1.08591e-16 0)
(-1 -2.23642e-17 0)
(-1 -1.78494e-16 0)
(-1 -1.46724e-16 0)
(-1 -6.31863e-17 0)
(-1 -6.10523e-17 0)
(-1 -6.45993e-17 0)
(-1 -4.1324e-17 0)
(-1 -1.23842e-13 0)
(-1 2.72805e-14 0)
(-1 -6.41806e-15 0)
(-1 1.43226e-15 0)
(-1 -4.29221e-16 0)
(-1 -1.14091e-16 0)
(-1 -9.69109e-17 0)
(-1 4.46707e-17 0)
(-1 -9.38577e-18 0)
(-1 -1.12993e-16 0)
(-1 -1.80191e-17 0)
(-1 9.95958e-17 0)
(-1 1.29094e-16 0)
(-1 2.68162e-17 0)
(-1 -4.16713e-17 0)
(-1 -1.43203e-16 0)
(-1 -1.62694e-16 0)
(-1 -1.71814e-16 0)
(-1 -1.51249e-16 0)
(-1 -5.94212e-17 0)
(-1 -1.16001e-14 0)
(-1 2.25971e-15 0)
(-1 -5.84929e-16 0)
(-1 1.2577e-16 0)
(-1 -2.67641e-17 0)
(-1 -7.15234e-17 0)
(-1 -1.44117e-16 0)
(-1 -8.86921e-17 0)
(-1 1.05423e-17 0)
(-1 -6.94357e-17 0)
(-1 -1.75652e-16 0)
(-1 -2.44168e-16 0)
(-1 -2.41282e-16 0)
(-1 -2.15752e-16 0)
(-1 -6.02765e-17 0)
(-1 -4.69266e-18 0)
(-1 -4.45615e-17 0)
(-1 -7.12379e-17 0)
(-1 -1.18175e-16 0)
(-1 -1.01899e-16 0)
(-1 1.29602e-13 0)
(-1 -2.8675e-14 0)
(-1 6.77128e-15 0)
(-1 -1.48921e-15 0)
(-1 2.68262e-16 0)
(-1 -1.07913e-16 0)
(-1 -4.67319e-17 0)
(-1 -9.8663e-17 0)
(-1 -1.77493e-18 0)
(-1 3.20732e-17 0)
(-1 -4.41396e-17 0)
(-1 -2.52459e-16 0)
(-1 -3.00709e-16 0)
(-1 -2.00183e-16 0)
(-1 -2.99465e-17 0)
(-1 1.29732e-16 0)
(-1 6.23275e-17 0)
(-1 -4.77233e-17 0)
(-1 -3.06519e-17 0)
(-1 -9.02939e-18 0)
(-1 -6.42017e-14 0)
(-1 1.36193e-14 0)
(-1 -3.23792e-15 0)
(-1 6.51336e-16 0)
(-1 -2.25722e-16 0)
(-1 2.2464e-17 0)
(-1 1.18383e-17 0)
(-1 -5.63444e-17 0)
(-1 -6.66236e-17 0)
(-1 2.14201e-17 0)
(-1 4.16528e-17 0)
(-1 -9.5687e-17 0)
(-1 -1.47337e-16 0)
(-1 -6.36112e-17 0)
(-1 1.67476e-20 0)
(-1 8.74459e-18 0)
(-1 -5.7277e-17 0)
(-1 -9.86783e-17 0)
(-1 -6.04039e-17 0)
(-1 1.05907e-17 0)
(-1 -8.10638e-14 0)
(-1 1.74426e-14 0)
(-1 -4.0813e-15 0)
(-1 9.52129e-16 0)
(-1 -1.78335e-16 0)
(-1 -1.5724e-17 0)
(-1 -1.31306e-16 0)
(-1 -1.39234e-16 0)
(-1 -1.54534e-16 0)
(-1 -1.26293e-16 0)
(-1 -7.80431e-17 0)
(-1 -6.68215e-17 0)
(-1 -8.99788e-17 0)
(-1 -6.03764e-17 0)
(-1 -5.83299e-17 0)
(-1 -1.03003e-16 0)
(-1 -9.54859e-17 0)
(-1 -5.91145e-17 0)
(-1 -7.65587e-17 0)
(-1 -2.61536e-17 0)
)
;

boundaryField
{
    movingWall
    {
        type            zeroGradient;
    }
    fixedWalls
    {
        type            zeroGradient;
    }
    frontAndBack
    {
        type            empty;
    }
}


// ************************************************************************* //
