/*--------------------------------*- C++ -*----------------------------------*\
| =========                 |                                                 |
| \\      /  F ield         | OpenFOAM: The Open Source CFD Toolbox           |
|  \\    /   O peration     | Version:  2312                                  |
|   \\  /    A nd           | Website:  www.openfoam.com                      |
|    \\/     M anipulation  |                                                 |
\*---------------------------------------------------------------------------*/
FoamFile
{
    version     2.0;
    format      ascii;
    arch        "LSB;label=32;scalar=64";
    class       volScalarField;
    location    "5.875";
    object      divU;
}
// * * * * * * * * * * * * * * * * * * * * * * * * * * * * * * * * * * * * * //

dimensions      [0 0 -1 0 0 0 0];

internalField   nonuniform List<scalar> 
400
(
1.56125e-11
-2.18468e-12
4.55243e-13
-1.67787e-13
2.40767e-15
-2.25016e-14
1.03623e-14
1.43712e-14
-8.84453e-15
7.466e-15
8.87613e-15
1.16546e-14
1.38939e-14
-2.16564e-14
1.57856e-14
3.33963e-16
-3.00904e-14
4.5776e-15
4.22444e-15
-2.71051e-14
-2.61835e-11
3.53289e-12
-7.65091e-13
3.22344e-13
1.44152e-14
-2.56654e-14
-1.75219e-14
1.0436e-14
-2.93431e-14
-4.01373e-14
4.15931e-14
-4.91581e-15
8.0349e-15
-2.15929e-14
-1.5573e-14
2.79055e-14
6.39136e-14
-4.81823e-14
-1.25987e-14
5.42101e-14
6.50521e-12
-9.10016e-13
1.29091e-13
-8.08059e-14
1.20118e-14
-2.9114e-14
1.02935e-15
5.17229e-15
4.52328e-14
8.34817e-15
-1.61671e-14
-1.87958e-14
-2.74468e-15
2.46608e-16
1.81151e-14
-5.03917e-14
-4.06594e-14
5.88831e-14
1.1884e-14
-2.71051e-14
1.30917e-11
-1.49876e-12
2.96373e-13
-1.05663e-13
2.84564e-14
3.66115e-15
-2.92814e-14
-4.32548e-14
1.77298e-14
2.98047e-14
-5.29058e-14
1.0858e-14
4.59641e-14
6.78627e-14
-6.54997e-14
7.12135e-14
3.93686e-14
-1.31642e-14
3.0718e-14
-2.71051e-14
-1.55854e-11
1.80183e-12
-3.71541e-13
2.05612e-13
-7.88792e-15
1.78541e-14
2.73607e-14
2.30431e-14
-2.33009e-14
-2.13722e-14
9.2375e-15
2.78096e-14
-2.0421e-14
-2.68581e-14
-2.55379e-14
-9.97008e-15
-4.6174e-14
-1.96799e-14
6.06068e-14
0
7.53521e-12
-1.3922e-12
3.28068e-13
-1.70377e-13
-6.3555e-14
-1.51301e-14
-4.52649e-15
7.62321e-15
1.06797e-14
6.44001e-15
-2.26717e-14
2.39304e-15
6.85475e-14
2.30436e-14
-2.76903e-14
2.63583e-15
4.39633e-14
-1.4013e-15
3.15879e-14
-2.71051e-14
5.28549e-12
-6.80476e-13
1.2194e-13
-5.21453e-14
3.63994e-14
1.36798e-14
2.50769e-14
2.71068e-14
5.70246e-15
-1.28557e-14
3.34967e-14
-9.54515e-15
-2.63554e-14
-7.07168e-15
-1.99823e-15
-1.50357e-14
-3.63479e-14
-1.41576e-15
7.15827e-15
0
-1.14112e-11
2.34856e-12
-4.93417e-13
2.17339e-13
-3.21234e-14
-2.67819e-14
-2.48992e-14
-6.48012e-14
-3.35662e-15
4.43365e-14
1.31775e-14
-6.41766e-14
3.66307e-14
4.1427e-15
3.35994e-14
9.26249e-15
-4.68185e-14
5.484e-14
4.24326e-15
0
6.47811e-12
-1.53605e-12
2.83739e-13
-1.38855e-13
-1.80336e-14
1.16043e-14
4.18857e-14
-3.42304e-15
1.61216e-14
-1.54787e-14
1.32783e-14
7.01803e-16
1.00059e-14
-2.54283e-15
-1.52198e-14
1.16689e-14
1.37483e-14
-1.29564e-14
-1.76324e-14
0
-5.96311e-13
-9.909e-15
7.90674e-14
-2.69805e-14
1.01805e-14
1.44055e-14
-4.91373e-14
-4.84227e-14
-1.85396e-14
5.37372e-14
3.37106e-14
1.16265e-14
-3.53972e-15
-6.76714e-15
3.84861e-14
-8.11274e-15
-6.53177e-14
7.17029e-14
-1.48106e-14
0
-2.27682e-12
1.6221e-12
-3.29322e-13
1.08931e-13
-2.60941e-14
-1.37592e-14
6.03697e-14
1.5745e-14
2.82755e-14
-2.08265e-14
-1.44088e-14
2.5211e-14
2.52998e-14
-1.71607e-14
2.9614e-15
-1.6123e-14
-1.66659e-14
-2.29969e-14
6.81125e-15
0
6.17995e-12
-2.56584e-12
4.58662e-13
-1.93971e-13
7.99645e-14
9.10146e-16
-3.18746e-14
-2.30917e-14
3.35063e-15
6.27437e-15
2.7965e-14
-1.39132e-14
-2.21132e-15
1.84042e-14
3.07035e-15
1.83394e-15
-3.16254e-14
6.525e-14
-5.05249e-15
0
-1.11673e-11
3.47216e-12
-6.22656e-13
2.16616e-13
-2.11454e-14
-3.32621e-14
-5.45718e-14
6.27106e-14
-3.98473e-14
7.41301e-15
-1.00378e-15
-1.36267e-14
7.14468e-14
-3.13972e-14
1.75484e-14
4.91453e-14
-9.06094e-15
-4.13374e-14
-1.63004e-14
2.71051e-14
1.04083e-11
-2.972e-12
5.88072e-13
-2.46048e-13
3.80201e-14
9.40862e-15
7.68378e-15
-1.37717e-14
1.64257e-14
1.27475e-14
-1.93297e-14
4.39602e-14
-3.79203e-14
-1.69991e-14
4.25583e-15
-4.51358e-14
-7.19805e-15
2.52925e-14
1.0174e-14
-2.71051e-14
-9.75782e-13
9.33562e-13
-1.92218e-13
1.11924e-13
1.22952e-14
1.27833e-14
-5.19599e-14
4.79589e-14
-5.3573e-15
-1.97945e-15
4.92699e-14
-8.16961e-14
2.71238e-14
9.71987e-15
-5.2783e-16
4.8696e-14
-1.44304e-14
-9.5431e-15
3.9275e-14
0
-1.05981e-11
1.20384e-12
-2.60319e-13
1.19166e-13
-2.5339e-14
4.76661e-14
-1.33639e-14
1.11383e-14
-8.68883e-15
-9.77311e-16
2.44452e-14
1.39848e-16
-1.13785e-14
4.57221e-15
-5.55591e-15
-3.03229e-14
-1.19139e-14
-5.57816e-15
4.90089e-14
-2.71051e-14
1.27394e-11
-1.59616e-12
2.83885e-13
-8.06185e-14
-1.34206e-14
-1.2568e-14
-3.53701e-14
4.61476e-14
-2.48383e-14
-2.01604e-14
-2.20994e-14
1.35753e-15
-1.5808e-14
1.20206e-14
6.96523e-15
6.98122e-15
-1.00377e-14
2.82175e-14
-2.75775e-14
0
-3.52366e-13
2.51154e-13
-3.83956e-14
1.86277e-14
-1.36159e-14
8.23032e-15
6.53915e-15
-7.31341e-15
-2.8232e-14
2.31387e-14
4.8285e-14
2.17225e-14
-2.46959e-14
5.57781e-15
-2.3677e-14
-3.88454e-14
-2.20975e-14
3.62971e-14
-1.07496e-14
0
-1.41217e-11
1.52808e-12
-3.97261e-13
1.40094e-13
2.2697e-14
-3.0317e-14
1.29923e-14
-3.15036e-14
-1.94211e-15
-9.35636e-15
-1.8033e-14
-2.34569e-14
-3.86624e-15
2.31179e-14
5.13937e-14
-5.94337e-14
9.53198e-15
5.63126e-14
-1.37259e-14
0
9.6494e-12
-1.46367e-12
4.06576e-13
-1.0842e-13
-2.71051e-14
0
0
0
2.71051e-14
-2.71051e-14
0
2.71051e-14
-2.71051e-14
0
0
0
0
0
5.42101e-14
-2.71051e-14
)
;

boundaryField
{
    movingWall
    {
        type            extrapolatedCalculated;
        value           nonuniform List<scalar> 
20
(
9.6494e-12
-1.46367e-12
4.06576e-13
-1.0842e-13
-2.71051e-14
0
0
0
2.71051e-14
-2.71051e-14
0
2.71051e-14
-2.71051e-14
0
0
0
0
0
5.42101e-14
-2.71051e-14
)
;
    }
    fixedWalls
    {
        type            extrapolatedCalculated;
        value           nonuniform List<scalar> 
60
(
1.56125e-11
-2.61835e-11
6.50521e-12
1.30917e-11
-1.55854e-11
7.53521e-12
5.28549e-12
-1.14112e-11
6.47811e-12
-5.96311e-13
-2.27682e-12
6.17995e-12
-1.11673e-11
1.04083e-11
-9.75782e-13
-1.05981e-11
1.27394e-11
-3.52366e-13
-1.41217e-11
9.6494e-12
-2.71051e-14
5.42101e-14
-2.71051e-14
-2.71051e-14
0
-2.71051e-14
0
0
0
0
0
0
2.71051e-14
-2.71051e-14
0
-2.71051e-14
0
0
0
-2.71051e-14
1.56125e-11
-2.18468e-12
4.55243e-13
-1.67787e-13
2.40767e-15
-2.25016e-14
1.03623e-14
1.43712e-14
-8.84453e-15
7.466e-15
8.87613e-15
1.16546e-14
1.38939e-14
-2.16564e-14
1.57856e-14
3.33963e-16
-3.00904e-14
4.5776e-15
4.22444e-15
-2.71051e-14
)
;
    }
    frontAndBack
    {
        type            empty;
    }
}


// ************************************************************************* //
