/*--------------------------------*- C++ -*----------------------------------*\
| =========                 |                                                 |
| \\      /  F ield         | OpenFOAM: The Open Source CFD Toolbox           |
|  \\    /   O peration     | Version:  2312                                  |
|   \\  /    A nd           | Website:  www.openfoam.com                      |
|    \\/     M anipulation  |                                                 |
\*---------------------------------------------------------------------------*/
FoamFile
{
    version     2.0;
    format      ascii;
    arch        "LSB;label=32;scalar=64";
    class       volScalarField;
    location    "5.875";
    object      enstrophyField;
}
// * * * * * * * * * * * * * * * * * * * * * * * * * * * * * * * * * * * * * //

dimensions      [0 0 -2 0 0 0 0];

internalField   nonuniform List<scalar> 
400
(
4.2251e-23
7.50359e-23
3.32985e-24
2.16748e-25
4.50258e-28
4.56635e-27
2.13197e-29
2.41443e-28
2.22835e-28
2.03548e-27
1.67745e-27
6.3032e-30
7.662e-30
4.08374e-29
1.40701e-27
6.88462e-30
5.20103e-28
3.10799e-29
1.93452e-29
4.95734e-29
2.2444e-24
3.32605e-24
2.71803e-25
4.28613e-27
1.01363e-26
1.21572e-27
3.57461e-27
3.53498e-27
2.34036e-27
1.8009e-28
1.13816e-31
3.67078e-29
4.32074e-28
1.3083e-28
1.69141e-27
7.25387e-29
6.65973e-28
2.27374e-31
2.01251e-29
8.18398e-31
2.90552e-23
8.161e-23
4.66156e-24
2.51668e-25
6.15163e-27
5.88489e-27
2.2784e-28
4.40214e-27
9.52282e-28
2.64379e-27
1.89458e-28
2.19743e-27
7.9299e-28
5.96402e-28
3.88225e-28
8.75384e-29
4.88859e-28
2.33881e-28
6.59631e-29
7.93336e-30
1.30454e-23
3.79369e-23
2.02475e-24
1.54285e-25
1.68864e-34
7.13667e-27
5.72422e-27
1.24896e-26
8.92499e-29
1.24649e-28
2.94776e-29
1.39769e-27
1.83214e-27
7.0412e-31
4.94131e-28
4.33282e-29
5.15946e-28
2.5518e-29
2.06125e-29
1.42202e-29
1.60421e-24
1.71979e-25
3.56106e-26
4.22253e-27
1.4198e-27
2.72263e-27
5.25814e-27
7.2242e-27
8.50476e-27
3.84792e-28
4.28587e-27
1.31479e-28
6.26627e-27
8.9479e-30
4.80934e-31
1.0145e-28
2.68165e-27
1.13513e-30
3.89388e-29
2.9194e-29
4.15268e-24
1.78665e-23
9.19974e-25
7.00258e-26
1.41273e-27
3.84351e-28
2.32748e-31
1.17502e-28
1.09984e-29
5.50279e-28
1.82712e-27
3.47415e-29
1.64056e-27
3.93004e-31
6.60348e-28
3.02276e-29
1.55902e-27
3.70946e-28
1.03716e-29
1.8246e-30
1.7327e-23
2.19881e-23
1.32778e-24
2.50334e-26
1.64342e-26
4.89941e-28
1.27718e-27
1.46267e-27
5.25794e-27
2.38044e-27
9.64613e-28
1.55562e-27
2.57688e-27
4.45418e-27
1.2694e-28
1.5734e-27
2.89889e-30
4.62505e-27
1.21064e-29
1.35444e-28
1.95711e-24
1.14621e-24
3.62946e-26
6.17272e-27
2.48604e-29
7.48441e-28
5.00862e-29
1.926e-27
2.43891e-29
2.33313e-27
2.29283e-27
2.59953e-29
8.9089e-28
9.21143e-28
5.14391e-30
5.26937e-28
6.13533e-29
1.38713e-27
2.47214e-29
2.48396e-29
6.54963e-24
7.73434e-24
4.4201e-25
5.64322e-27
1.21298e-26
3.67014e-27
1.51887e-27
8.21008e-28
2.70948e-27
2.77915e-28
2.30525e-27
8.70761e-27
1.3572e-27
8.57996e-28
1.36753e-27
1.95665e-29
2.98833e-30
1.73445e-27
1.04836e-30
1.29041e-27
1.65747e-23
1.27349e-23
5.94685e-25
3.01057e-26
1.45673e-26
6.90971e-28
8.03537e-28
7.62283e-29
1.95176e-28
5.60367e-28
4.46142e-28
2.05521e-28
2.36535e-28
2.47871e-27
2.21176e-27
1.24089e-27
6.14944e-34
1.49177e-27
3.82522e-29
2.06265e-27
1.38053e-23
1.10181e-23
4.21287e-25
6.70616e-26
5.55368e-28
2.18712e-27
5.31663e-28
6.34503e-29
9.25889e-29
1.7183e-27
4.10857e-27
5.49247e-30
9.89301e-29
1.4009e-27
4.49117e-27
4.05821e-29
1.38736e-27
1.25478e-27
4.66229e-28
2.88132e-29
4.99886e-24
5.85854e-24
3.53907e-25
1.97063e-26
1.13276e-27
2.06568e-28
5.54571e-27
3.83609e-27
1.39064e-26
1.01729e-26
4.1327e-27
7.72998e-27
3.1274e-27
2.21766e-28
7.71569e-29
1.1726e-30
1.42543e-29
1.18457e-31
6.04026e-28
2.84943e-29
1.15536e-25
6.05872e-26
8.62915e-28
7.9331e-27
4.0817e-28
2.81903e-28
2.18353e-28
3.19052e-28
1.57308e-27
4.13316e-27
1.61833e-27
3.29344e-29
1.93354e-28
1.51103e-27
3.65197e-27
5.49937e-28
4.40625e-27
3.38945e-27
4.18045e-29
7.04602e-29
1.34319e-23
1.55063e-23
8.31454e-25
4.31564e-26
6.37162e-27
6.76637e-28
3.57008e-29
8.29503e-29
3.24191e-27
1.79835e-27
8.03637e-27
4.83102e-27
1.36847e-27
5.77648e-31
5.696e-30
5.66501e-28
5.75374e-30
1.93481e-29
6.61583e-29
1.85085e-29
2.78143e-23
3.74645e-23
2.1862e-24
6.33507e-26
1.14765e-26
1.83986e-27
1.02388e-29
8.56297e-30
9.5072e-31
1.31699e-27
2.52355e-28
1.29623e-30
3.73555e-29
8.59207e-29
9.71023e-30
4.13697e-29
7.97241e-28
2.78308e-28
2.16675e-29
1.24955e-28
9.58834e-24
1.38394e-23
9.35275e-25
8.03703e-27
1.4336e-26
4.78347e-27
7.55584e-27
6.25961e-27
1.17901e-27
5.52461e-27
1.94549e-29
2.10864e-28
6.28909e-28
8.6727e-28
5.86135e-29
2.6447e-28
5.25331e-29
4.52293e-30
1.77315e-28
5.80866e-28
1.2355e-26
1.23876e-24
6.75329e-26
3.6129e-28
7.10535e-28
3.3126e-28
1.29364e-29
3.31643e-29
4.36062e-29
3.71038e-30
1.76007e-27
8.98574e-28
8.57687e-28
2.27119e-29
4.61187e-30
9.56844e-28
1.05047e-28
2.73779e-28
3.78293e-28
1.18792e-29
4.84162e-24
2.03713e-23
1.1715e-24
2.94933e-26
8.82491e-27
7.18177e-30
1.43804e-27
1.60165e-27
6.50811e-27
1.47017e-27
3.54806e-28
2.3283e-28
3.11877e-28
4.35508e-28
3.26141e-29
2.13765e-29
1.85756e-27
3.79977e-27
8.5112e-31
3.19667e-30
1.3544e-24
1.86516e-24
1.62788e-25
1.29087e-27
6.06554e-28
5.76735e-29
8.84847e-28
6.90386e-28
3.49754e-27
5.09377e-28
4.50931e-31
8.39073e-28
8.07836e-28
4.05956e-28
4.27048e-29
2.67891e-27
2.25285e-27
1.18694e-27
5.19603e-29
7.77473e-29
1.15805e-23
2.49734e-23
1.07738e-24
8.96158e-26
1.5871e-33
3.3908e-27
9.48907e-29
2.46961e-28
2.99356e-28
1.25248e-28
9.73599e-29
4.70046e-32
2.03482e-29
4.3642e-28
3.20418e-29
1.70764e-27
2.35609e-29
1.34563e-30
5.34822e-30
7.1191e-28
)
;

boundaryField
{
    movingWall
    {
        type            calculated;
        value           nonuniform List<scalar> 
20
(
3.09124e-23
3.27508e-23
5.91692e-25
2.31207e-25
1.40748e-26
2.11719e-26
3.2036e-26
1.49221e-26
3.47997e-26
2.22113e-26
1.35276e-26
1.58317e-26
1.69308e-26
9.20257e-27
4.68735e-27
9.44723e-27
3.35817e-27
1.34563e-30
5.34822e-30
1.51456e-27
)
;
    }
    fixedWalls
    {
        type            calculated;
        value           nonuniform List<scalar> 
60
(
1.32168e-21
6.91306e-23
1.49367e-21
6.97137e-22
4.04705e-24
3.24977e-22
4.1077e-22
1.88077e-23
1.37313e-22
2.27881e-22
2.06595e-22
1.19657e-22
3.87338e-25
2.83703e-22
6.99765e-22
2.67617e-22
2.38042e-23
3.85287e-22
3.68817e-23
4.39438e-22
2.44065e-28
9.15887e-30
1.25212e-28
5.00457e-29
1.14525e-29
3.0679e-29
3.49244e-30
1.56356e-28
1.10638e-27
1.97543e-27
7.95608e-29
2.14283e-28
1.58055e-28
2.30722e-28
4.80728e-28
3.78347e-28
8.17701e-29
1.14854e-30
4.39221e-30
1.20616e-27
1.05487e-22
1.03098e-22
2.3407e-24
4.43835e-25
1.20326e-26
3.46897e-26
1.46386e-26
1.4879e-26
8.09407e-27
3.13821e-27
8.38711e-27
4.26596e-27
9.40388e-27
1.42826e-27
1.03839e-27
9.37593e-27
4.41471e-27
3.10799e-29
8.06534e-27
4.95734e-29
)
;
    }
    frontAndBack
    {
        type            empty;
    }
}


// ************************************************************************* //
