/*--------------------------------*- C++ -*----------------------------------*\
| =========                 |                                                 |
| \\      /  F ield         | OpenFOAM: The Open Source CFD Toolbox           |
|  \\    /   O peration     | Version:  2312                                  |
|   \\  /    A nd           | Website:  www.openfoam.com                      |
|    \\/     M anipulation  |                                                 |
\*---------------------------------------------------------------------------*/
FoamFile
{
    version     2.0;
    format      ascii;
    arch        "LSB;label=32;scalar=64";
    class       surfaceScalarField;
    location    "5.875";
    object      fluxField;
}
// * * * * * * * * * * * * * * * * * * * * * * * * * * * * * * * * * * * * * //

dimensions      [0 3 -1 0 0 0 0];

oriented        oriented;

internalField   nonuniform List<scalar> 
760
(
-5e-05
4.04481e-18
-5e-05
-8.30773e-19
-5e-05
2.08678e-19
-5e-05
-3.51704e-20
-5e-05
1.41544e-20
-5e-05
1.15086e-21
-5e-05
2.59057e-21
-5e-05
3.5928e-21
-5e-05
4.56513e-21
-5e-05
1.8665e-21
-5e-05
2.21903e-21
-5e-05
2.91364e-21
-5e-05
3.47347e-21
-5e-05
1.36216e-21
-5e-05
-2.82987e-21
-5e-05
8.34907e-23
-5e-05
-7.46339e-22
-5e-05
1.1444e-21
-5e-05
1.05611e-21
1.11336e-21
-5e-05
-2.90305e-18
-5e-05
6.39278e-19
-5e-05
-1.43839e-19
-5e-05
3.31521e-20
-5e-05
-3.17247e-21
-5e-05
7.13619e-21
-5e-05
2.3958e-21
-5e-05
2.60899e-21
-5e-05
6.21675e-21
-5e-05
3.51821e-21
-5e-05
-3.15426e-21
-5e-05
-1.22895e-21
-5e-05
2.00873e-21
-5e-05
1.37804e-21
-5e-05
-3.89324e-21
-5e-05
2.00102e-22
-5e-05
2.42587e-21
-5e-05
1.50694e-21
-5e-05
-3.14967e-21
-2.95061e-21
-5e-05
-1.15343e-18
-5e-05
2.40058e-19
-5e-05
-4.90425e-20
-5e-05
1.36798e-20
-5e-05
3.00295e-21
-5e-05
6.27402e-21
-5e-05
2.57337e-22
-5e-05
-5.48319e-21
-5e-05
-2.24434e-21
-5e-05
2.08704e-21
-5e-05
-4.04178e-21
-5e-05
-4.69896e-21
-5e-05
-6.8617e-22
-5e-05
6.16519e-23
-5e-05
-2.24748e-21
-5e-05
9.54593e-22
-5e-05
3.38767e-21
-5e-05
1.16824e-21
-5e-05
-3.80528e-21
-3.3084e-21
-5e-05
2.4236e-18
-5e-05
-5.23769e-19
-5e-05
1.3508e-19
-5e-05
-1.96395e-20
-5e-05
1.38904e-20
-5e-05
7.69155e-21
-5e-05
6.23218e-21
-5e-05
-4.03743e-21
-5e-05
-9.12007e-21
-5e-05
-6.10135e-21
-5e-05
-6.45018e-21
-5e-05
-4.06176e-21
-5e-05
-2.06149e-21
-5e-05
-3.36312e-21
-5e-05
-2.82241e-21
-5e-05
-2.52542e-21
-5e-05
3.0659e-21
-5e-05
3.48521e-21
-5e-05
9.03227e-22
-3.26166e-22
-5e-05
-1.83557e-18
-5e-05
4.09799e-19
-5e-05
-8.61089e-20
-5e-05
3.10743e-20
-5e-05
4.80428e-21
-5e-05
1.12398e-20
-5e-05
6.84018e-21
-5e-05
-1.01549e-21
-5e-05
-5.82521e-21
-5e-05
-5.34305e-21
-5e-05
-4.46689e-21
-5e-05
1.76139e-22
-5e-05
1.67101e-21
-5e-05
6.17467e-23
-5e-05
3.91784e-22
-5e-05
-2.49252e-21
-5e-05
2.00903e-21
-5e-05
1.85628e-21
-5e-05
1.59918e-21
7.88691e-22
-5e-05
2.18387e-20
-5e-05
2.46451e-20
-5e-05
7.01714e-22
-5e-05
1.16159e-20
-5e-05
1.12163e-20
-5e-05
9.77e-21
-5e-05
5.64464e-21
-5e-05
1.9058e-21
-5e-05
2.66993e-21
-5e-05
1.61e-21
-5e-05
1.10833e-21
-5e-05
5.98261e-22
-5e-05
3.58435e-21
-5e-05
5.7609e-21
-5e-05
6.62995e-21
-5e-05
6.58958e-22
-5e-05
-2.56171e-21
-5e-05
-3.50325e-22
-5e-05
1.12071e-21
2.01846e-21
-5e-05
1.45213e-18
-5e-05
-2.98868e-19
-5e-05
7.79189e-20
-5e-05
-6.26007e-21
-5e-05
1.58761e-20
-5e-05
1.01962e-20
-5e-05
6.26921e-21
-5e-05
6.7767e-21
-5e-05
8.20188e-21
-5e-05
3.56234e-21
-5e-05
1.59791e-21
-5e-05
-2.38629e-21
-5e-05
1.87401e-22
-5e-05
5.00834e-21
-5e-05
6.27671e-21
-5e-05
3.01735e-21
-5e-05
-2.31072e-21
-5e-05
-3.5394e-22
-5e-05
1.78957e-21
2.63411e-21
-5e-05
-1.33605e-18
-5e-05
2.68655e-19
-5e-05
-4.88153e-20
-5e-05
2.04535e-20
-5e-05
5.52167e-21
-5e-05
6.85704e-21
-5e-05
5.51456e-22
-5e-05
4.12849e-21
-5e-05
5.93711e-21
-5e-05
4.30786e-21
-5e-05
3.29439e-21
-5e-05
-2.49163e-21
-5e-05
-4.39486e-21
-5e-05
1.03567e-21
-5e-05
1.62359e-21
-5e-05
2.31562e-21
-5e-05
1.84791e-21
-5e-05
1.57478e-22
-5e-05
1.06081e-21
1.55337e-21
-5e-05
2.07068e-19
-5e-05
-3.84222e-20
-5e-05
9.94839e-21
-5e-05
-8.32381e-22
-5e-05
2.26787e-21
-5e-05
2.90108e-21
-5e-05
3.69515e-21
-5e-05
5.9205e-21
-5e-05
4.0304e-21
-5e-05
2.90658e-21
-5e-05
3.31957e-21
-5e-05
1.75451e-22
-5e-05
-4.27479e-21
-5e-05
-6.35708e-22
-5e-05
2.97132e-21
-5e-05
2.91722e-21
-5e-05
3.43708e-21
-5e-05
3.53717e-21
-5e-05
2.36817e-21
9.88498e-22
-5e-05
4.0128e-20
-5e-05
-9.25351e-21
-5e-05
-7.33822e-21
-5e-05
3.11406e-23
-5e-05
2.54512e-21
-5e-05
3.60139e-21
-5e-05
8.04446e-21
-5e-05
8.22311e-21
-5e-05
2.14138e-21
-5e-05
-1.18218e-22
-5e-05
1.65138e-21
-5e-05
2.90663e-21
-5e-05
-8.8493e-22
-5e-05
-1.69178e-21
-5e-05
2.84525e-21
-5e-05
4.74808e-21
-5e-05
3.99937e-21
-5e-05
4.37321e-21
-5e-05
3.07363e-21
1.32876e-21
-5e-05
-2.17183e-19
-5e-05
3.96069e-20
-5e-05
-7.79156e-21
-5e-05
6.90391e-21
-5e-05
2.52739e-22
-5e-05
-3.43981e-21
-5e-05
1.53991e-21
-5e-05
3.93626e-21
-5e-05
2.92609e-22
-5e-05
1.56965e-21
-5e-05
3.17406e-21
-5e-05
6.30274e-21
-5e-05
6.32494e-21
-5e-05
2.48608e-21
-5e-05
7.4035e-22
-5e-05
2.74552e-21
-5e-05
2.60978e-21
-5e-05
1.02705e-21
-5e-05
1.70281e-21
2.08226e-21
-5e-05
9.89684e-19
-5e-05
-2.07779e-19
-5e-05
5.3679e-20
-5e-05
-7.83522e-21
-5e-05
-3.37668e-22
-5e-05
-6.54873e-21
-5e-05
-1.19238e-21
-5e-05
1.00333e-21
-5e-05
8.37656e-22
-5e-05
1.56859e-21
-5e-05
2.14982e-22
-5e-05
3.29797e-21
-5e-05
6.22343e-21
-5e-05
4.60104e-21
-5e-05
7.67587e-22
-5e-05
4.58485e-22
-5e-05
-1.13009e-21
-5e-05
-4.0163e-21
-5e-05
-1.26312e-21
1.82645e-22
-5e-05
-1.42021e-18
-5e-05
2.98833e-19
-5e-05
-6.75725e-20
-5e-05
1.34964e-20
-5e-05
-5.28635e-21
-5e-05
-1.53925e-21
-5e-05
-9.04311e-23
-5e-05
2.12512e-21
-5e-05
3.59071e-21
-5e-05
1.85325e-21
-5e-05
-2.50945e-22
-5e-05
-3.40666e-21
-5e-05
-2.46708e-21
-5e-05
-1.07303e-21
-5e-05
-2.38917e-21
-5e-05
-1.26621e-21
-5e-05
-2.26524e-21
-5e-05
-3.55809e-21
-5e-05
-4.07511e-21
-4.14786e-21
-5e-05
8.84951e-19
-5e-05
-1.73794e-19
-5e-05
4.53741e-20
-5e-05
-7.30202e-21
-5e-05
2.72876e-21
-5e-05
2.35215e-21
-5e-05
1.92094e-21
-5e-05
3.33334e-21
-5e-05
4.10642e-21
-5e-05
3.18686e-21
-5e-05
1.94384e-21
-5e-05
-2.56249e-21
-5e-05
-2.70381e-21
-5e-05
-4.24978e-21
-5e-05
-5.71231e-21
-5e-05
-4.50769e-21
-5e-05
-1.79951e-21
-5e-05
-4.53148e-22
-5e-05
-4.23276e-21
-4.9746e-21
-5e-05
8.75256e-19
-5e-05
-1.73185e-19
-5e-05
4.68132e-20
-5e-05
-5.90036e-21
-5e-05
3.07379e-21
-5e-05
3.19583e-21
-5e-05
5.62547e-22
-5e-05
-1.56281e-21
-5e-05
-1.33933e-21
-5e-05
-4.94863e-22
-5e-05
-1.23506e-21
-5e-05
-9.5241e-23
-5e-05
4.67584e-24
-5e-05
-4.3463e-21
-5e-05
-6.90822e-21
-5e-05
-8.1548e-21
-5e-05
-3.60759e-21
-5e-05
-2.38578e-21
-5e-05
-3.73378e-21
-1.96315e-21
-5e-05
-1.98391e-18
-5e-05
4.22932e-19
-5e-05
-9.21847e-20
-5e-05
2.30152e-20
-5e-05
-6.33475e-21
-5e-05
-1.63599e-21
-5e-05
-3.34098e-21
-5e-05
-3.99169e-21
-5e-05
-2.17221e-21
-5e-05
-2.44328e-22
-5e-05
-6.64953e-22
-5e-05
3.4962e-23
-5e-05
-2.84462e-21
-5e-05
-5.63321e-21
-5e-05
-8.16524e-21
-5e-05
-7.58073e-21
-5e-05
-2.97848e-21
-5e-05
-1.39454e-21
-5e-05
-1.3003e-21
7.74079e-22
-5e-05
1.39519e-18
-5e-05
-2.9062e-19
-5e-05
7.09713e-20
-5e-05
-1.33783e-20
-5e-05
3.42112e-21
-5e-05
-3.14199e-21
-5e-05
-2.06627e-21
-5e-05
-2.01563e-21
-5e-05
5.66696e-22
-5e-05
1.73617e-21
-5e-05
1.25141e-21
-5e-05
3.39383e-22
-5e-05
-3.952e-21
-5e-05
-3.77112e-21
-5e-05
-5.03496e-21
-5e-05
-5.03096e-21
-5e-05
-2.50943e-21
-5e-05
2.78107e-22
-5e-05
-1.18105e-22
7.04542e-22
-5e-05
1.37435e-18
-5e-05
-3.0313e-19
-5e-05
6.494e-20
-5e-05
-2.24481e-20
-5e-05
3.3723e-21
-5e-05
2.05758e-21
-5e-05
1.63479e-21
-5e-05
-1.82835e-21
-5e-05
-2.81729e-22
-5e-05
-9.91592e-22
-5e-05
-1.48127e-21
-5e-05
-1.34564e-21
-5e-05
6.02285e-22
-5e-05
1.39445e-21
-5e-05
8.57012e-22
-5e-05
-2.93508e-21
-5e-05
-5.52438e-21
-5e-05
-4.47826e-21
-5e-05
-2.6874e-21
-1.60355e-21
-5e-05
-2.47774e-18
-5e-05
5.10769e-19
-5e-05
-1.2642e-19
-5e-05
1.46948e-20
-5e-05
-7.87829e-21
-5e-05
5.97327e-21
-5e-05
3.24807e-21
-5e-05
-1.09963e-21
-5e-05
-4.85528e-22
-5e-05
-2.33909e-21
-5e-05
-4.50824e-21
-5e-05
-5.86422e-21
-5e-05
-9.66559e-22
-5e-05
-9.96781e-22
-5e-05
-7.04109e-22
-5e-05
-1.30591e-21
-5e-05
-4.39327e-21
-5e-05
-6.25064e-21
-5e-05
-3.43148e-21
-2.88447e-21
-5e-05
-5e-05
-5e-05
-5e-05
-5e-05
-5e-05
-5e-05
-5e-05
-5e-05
-5e-05
-5e-05
-5e-05
-5e-05
-5e-05
-5e-05
-5e-05
-5e-05
-5e-05
-5e-05
)
;

boundaryField
{
    movingWall
    {
        type            calculated;
        value           uniform -0;
    }
    fixedWalls
    {
        type            calculated;
        value           nonuniform List<scalar> 
60
(
5e-05
5e-05
5e-05
5e-05
5e-05
5e-05
5e-05
5e-05
5e-05
5e-05
5e-05
5e-05
5e-05
5e-05
5e-05
5e-05
5e-05
5e-05
5e-05
5e-05
-5e-05
-5e-05
-5e-05
-5e-05
-5e-05
-5e-05
-5e-05
-5e-05
-5e-05
-5e-05
-5e-05
-5e-05
-5e-05
-5e-05
-5e-05
-5e-05
-5e-05
-5e-05
-5e-05
-5e-05
0
0
0
0
0
0
0
0
0
0
0
0
0
0
0
0
0
0
0
0
)
;
    }
    frontAndBack
    {
        type            empty;
        value           nonuniform List<scalar> 0();
    }
}


// ************************************************************************* //
