/*--------------------------------*- C++ -*----------------------------------*\
| =========                 |                                                 |
| \\      /  F ield         | OpenFOAM: The Open Source CFD Toolbox           |
|  \\    /   O peration     | Version:  2312                                  |
|   \\  /    A nd           | Website:  www.openfoam.com                      |
|    \\/     M anipulation  |                                                 |
\*---------------------------------------------------------------------------*/
FoamFile
{
    version     2.0;
    format      ascii;
    arch        "LSB;label=32;scalar=64";
    class       volTensorField;
    location    "5.875";
    object      gradU;
}
// * * * * * * * * * * * * * * * * * * * * * * * * * * * * * * * * * * * * * //

dimensions      [0 0 -1 0 0 0 0];

internalField   nonuniform List<tensor> 
400
(
(-5.69206e-13 1.04393e-11 0 1.24683e-12 1.61793e-11 0 0 0 0)
(1.13841e-12 -1.24943e-11 0 -2.43945e-13 -3.32309e-12 0 0 0 0)
(-3.79471e-13 2.60775e-12 0 2.71051e-14 8.34714e-13 0 0 0 0)
(-2.71051e-14 -6.313e-13 0 2.71051e-14 -1.40682e-13 0 0 0 0)
(-5.42101e-14 1.11324e-13 0 8.13152e-14 5.66178e-14 0 0 0 0)
(-2.71051e-14 -4.13551e-14 0 5.42101e-14 4.60345e-15 0 0 0 0)
(0 6.52989e-15 0 0 1.03623e-14 0 0 0 0)
(0 5.13037e-15 0 2.71051e-14 1.43712e-14 0 0 0 0)
(-2.71051e-14 5.99416e-15 0 2.71051e-14 1.82605e-14 0 0 0 0)
(0 9.594e-15 0 -5.42101e-14 7.466e-15 0 0 0 0)
(0 3.71147e-15 0 -5.42101e-14 8.87613e-15 0 0 0 0)
(0 -3.55055e-15 0 0 1.16546e-14 0 0 0 0)
(0 -3.91459e-15 0 0 1.38939e-14 0 0 0 0)
(-2.71051e-14 -9.03741e-15 0 0 5.44864e-15 0 0 0 0)
(2.71051e-14 -1.16274e-15 0 -5.42101e-14 -1.13195e-14 0 0 0 0)
(0 -3.71069e-15 0 0 3.33963e-16 0 0 0 0)
(-2.71051e-14 -5.14716e-15 0 2.71051e-14 -2.98536e-15 0 0 0 0)
(0 7.88415e-15 0 0 4.5776e-15 0 0 0 0)
(0 6.22015e-15 0 0 4.22444e-15 0 0 0 0)
(-2.71051e-14 -9.95725e-15 0 0 4.45344e-15 0 0 0 0)
(1.5992e-12 2.41684e-12 0 2.98156e-13 -2.77915e-11 0 0 0 0)
(-2.35814e-12 -2.85022e-12 0 -2.71051e-13 5.8802e-12 0 0 0 0)
(6.50521e-13 5.74666e-13 0 -1.6263e-13 -1.41007e-12 0 0 0 0)
(5.42101e-14 -1.46797e-13 0 -5.42101e-14 2.7329e-13 0 0 0 0)
(8.13152e-14 3.39614e-14 0 -1.0842e-13 -6.93077e-14 0 0 0 0)
(-5.42101e-14 -4.90041e-15 0 -5.42101e-14 2.39413e-14 0 0 0 0)
(-2.71051e-14 3.23786e-15 0 -8.13152e-14 -7.79099e-16 0 0 0 0)
(2.71051e-14 2.76787e-15 0 -8.13152e-14 -3.93525e-15 0 0 0 0)
(-2.71051e-14 -1.28994e-14 0 -8.13152e-14 6.60647e-15 0 0 0 0)
(-5.42101e-14 -1.89784e-14 0 0 6.60685e-15 0 0 0 0)
(5.42101e-14 4.77108e-16 0 0 -2.14932e-14 0 0 0 0)
(0 8.5683e-15 0 0 -1.65704e-14 0 0 0 0)
(2.71051e-14 -2.29134e-15 0 2.71051e-14 -5.85897e-15 0 0 0 0)
(-2.71051e-14 -1.61759e-14 0 0 6.35105e-17 0 0 0 0)
(0 -3.95194e-15 0 5.42101e-14 -4.2535e-15 0 0 0 0)
(2.71051e-14 1.20448e-14 0 0 4.66446e-16 0 0 0 0)
(5.42101e-14 9.39079e-15 0 -2.71051e-14 1.26888e-14 0 0 0 0)
(-5.42101e-14 -6.7435e-16 0 0 1.45018e-15 0 0 0 0)
(0 -6.34431e-15 0 0 -1.68231e-14 0 0 0 0)
(5.42101e-14 1.27937e-15 0 0 -1.62559e-14 0 0 0 0)
(-4.87891e-13 -1.14719e-11 0 -3.84892e-12 6.99847e-12 0 0 0 0)
(6.77626e-13 1.38871e-11 0 1.11131e-12 -1.59688e-12 0 0 0 0)
(-2.43945e-13 -2.99917e-12 0 5.42101e-14 3.79185e-13 0 0 0 0)
(0 7.09462e-13 0 0 -7.78891e-14 0 0 0 0)
(0 -1.38025e-13 0 -2.71051e-14 2.47017e-14 0 0 0 0)
(-2.71051e-14 2.71735e-14 0 -8.13152e-14 -3.44866e-15 0 0 0 0)
(0 -2.13467e-14 0 0 -8.55384e-15 0 0 0 0)
(2.71051e-14 1.25159e-14 0 -8.13152e-14 -3.23687e-14 0 0 0 0)
(8.13152e-14 1.65363e-14 0 -2.71051e-14 -3.38443e-14 0 0 0 0)
(2.71051e-14 -1.85056e-14 0 5.42101e-14 -5.72469e-15 0 0 0 0)
(0 -1.94658e-14 0 0 -3.5501e-15 0 0 0 0)
(0 1.20836e-14 0 -5.42101e-14 -1.388e-14 0 0 0 0)
(0 1.27193e-14 0 -2.71051e-14 -1.07796e-14 0 0 0 0)
(0 -7.43194e-15 0 2.71051e-14 -5.26554e-15 0 0 0 0)
(0 -7.59802e-16 0 2.71051e-14 6.58305e-15 0 0 0 0)
(-5.42101e-14 1.32317e-14 0 0 3.01796e-15 0 0 0 0)
(-5.42101e-14 -4.16342e-15 0 2.71051e-14 3.84717e-15 0 0 0 0)
(5.42101e-14 -2.16278e-14 0 0 -1.35481e-15 0 0 0 0)
(2.71051e-14 -1.14859e-14 0 0 -2.62242e-15 0 0 0 0)
(-2.71051e-14 2.31217e-14 0 2.71051e-14 -1.43116e-15 0 0 0 0)
(-1.21973e-12 7.81842e-12 0 2.71051e-12 1.43081e-11 0 0 0 0)
(1.54499e-12 -9.4695e-12 0 -7.58942e-13 -3.05531e-12 0 0 0 0)
(-4.33681e-13 2.09365e-12 0 8.13152e-14 7.36489e-13 0 0 0 0)
(2.71051e-14 -5.0128e-13 0 5.42101e-14 -1.33277e-13 0 0 0 0)
(-2.71051e-14 1.08402e-13 0 1.0842e-13 4.35497e-14 0 0 0 0)
(0 -3.81559e-14 0 8.13152e-14 5.67011e-15 0 0 0 0)
(-5.42101e-14 -2.56822e-14 0 8.13152e-14 2.38994e-14 0 0 0 0)
(-5.42101e-14 -2.25226e-14 0 1.35525e-13 5.78303e-15 0 0 0 0)
(5.42101e-14 1.37447e-14 0 2.71051e-14 -2.75029e-14 0 0 0 0)
(5.42101e-14 1.13159e-14 0 2.71051e-14 -3.27536e-14 0 0 0 0)
(-5.42101e-14 -7.67823e-15 0 0 -9.63361e-15 0 0 0 0)
(0 1.33881e-15 0 5.42101e-14 2.54878e-15 0 0 0 0)
(5.42101e-14 6.32314e-15 0 -5.42101e-14 -5.5013e-15 0 0 0 0)
(8.13152e-14 1.18669e-15 0 0 -1.36991e-14 0 0 0 0)
(-5.42101e-14 4.33157e-15 0 -2.71051e-14 -2.2997e-15 0 0 0 0)
(8.13152e-14 9.30894e-15 0 0 -1.392e-14 0 0 0 0)
(2.71051e-14 5.01802e-15 0 -2.71051e-14 -1.28707e-15 0 0 0 0)
(-2.71051e-14 -7.14395e-15 0 0 9.26786e-15 0 0 0 0)
(0 -6.42066e-15 0 0 1.8834e-14 0 0 0 0)
(-2.71051e-14 5.33296e-15 0 0 1.19289e-14 0 0 0 0)
(1.46367e-12 -2.19111e-13 0 1.57209e-12 -1.70367e-11 0 0 0 0)
(-1.92446e-12 3.15428e-13 0 -2.71051e-13 3.73427e-12 0 0 0 0)
(5.14996e-13 -7.71377e-14 0 1.89735e-13 -8.84754e-13 0 0 0 0)
(0 1.65232e-14 0 1.0842e-13 2.02855e-13 0 0 0 0)
(2.71051e-14 9.22199e-16 0 5.42101e-14 -3.63443e-14 0 0 0 0)
(0 7.52316e-15 0 8.13152e-14 1.41929e-14 0 0 0 0)
(2.71051e-14 -2.12337e-14 0 8.13152e-14 2.432e-15 0 0 0 0)
(0 -3.88863e-14 0 8.13152e-14 1.20878e-14 0 0 0 0)
(-2.71051e-14 -2.20003e-14 0 1.0842e-13 1.31794e-14 0 0 0 0)
(-2.71051e-14 -6.36307e-16 0 2.71051e-14 3.0332e-15 0 0 0 0)
(0 1.58366e-14 0 1.0842e-13 7.93319e-15 0 0 0 0)
(0 1.62159e-14 0 0 1.69516e-14 0 0 0 0)
(-2.71051e-14 -3.52857e-15 0 1.0842e-13 1.493e-14 0 0 0 0)
(-2.71051e-14 -4.23034e-15 0 0 1.36995e-14 0 0 0 0)
(-2.71051e-14 -9.80749e-16 0 0 1.28568e-14 0 0 0 0)
(0 1.42443e-14 0 0 1.31588e-16 0 0 0 0)
(-5.42101e-14 1.90245e-14 0 -5.42101e-14 -4.22748e-15 0 0 0 0)
(0 -1.50674e-15 0 0 -6.5157e-15 0 0 0 0)
(5.42101e-14 -8.82483e-15 0 0 2.78382e-15 0 0 0 0)
(0 -7.6412e-15 0 0 4.45943e-15 0 0 0 0)
(1.0842e-13 -5.48399e-12 0 -2.60209e-12 7.42965e-12 0 0 0 0)
(1.35525e-13 6.68243e-12 0 7.04731e-13 -1.54062e-12 0 0 0 0)
(-2.71051e-14 -1.43776e-12 0 -8.13152e-14 3.47242e-13 0 0 0 0)
(-8.13152e-14 3.4713e-13 0 -2.71051e-14 -7.78334e-14 0 0 0 0)
(-8.13152e-14 -8.02602e-14 0 -2.71051e-14 2.5648e-14 0 0 0 0)
(0 6.20418e-16 0 -2.71051e-14 -5.87911e-15 0 0 0 0)
(0 -2.77873e-14 0 -2.71051e-14 -4.78214e-15 0 0 0 0)
(0 -1.17752e-14 0 -2.71051e-14 1.16852e-14 0 0 0 0)
(-2.71051e-14 4.69008e-15 0 0 3.39806e-14 0 0 0 0)
(-2.71051e-14 6.06962e-15 0 -2.71051e-14 2.78122e-14 0 0 0 0)
(-5.42101e-14 6.24018e-15 0 -5.42101e-14 2.23009e-14 0 0 0 0)
(0 8.33565e-15 0 0 1.68849e-15 0 0 0 0)
(5.42101e-14 3.071e-15 0 -5.42101e-14 7.65336e-15 0 0 0 0)
(0 -8.86571e-16 0 0 2.27966e-14 0 0 0 0)
(-5.42101e-14 -9.23632e-15 0 2.71051e-14 2.49527e-14 0 0 0 0)
(0 -7.7753e-15 0 0 1.26059e-14 0 0 0 0)
(5.42101e-14 -1.62927e-15 0 5.42101e-14 -1.82829e-14 0 0 0 0)
(0 -1.32655e-16 0 2.71051e-14 -8.82642e-15 0 0 0 0)
(2.71051e-14 4.55446e-15 0 0 -1.91389e-15 0 0 0 0)
(-2.71051e-14 -1.91029e-15 0 0 4.91906e-15 0 0 0 0)
(-4.33681e-13 5.66992e-12 0 -2.1684e-13 5.72117e-12 0 0 0 0)
(6.23416e-13 -6.76698e-12 0 -1.35525e-13 -1.29405e-12 0 0 0 0)
(-1.89735e-13 1.38565e-12 0 -2.43945e-13 3.08869e-13 0 0 0 0)
(2.71051e-14 -3.05071e-13 0 -8.13152e-14 -7.1504e-14 0 0 0 0)
(2.71051e-14 7.28765e-14 0 -1.0842e-13 1.86392e-14 0 0 0 0)
(0 -2.2907e-14 0 -5.42101e-14 1.70487e-15 0 0 0 0)
(2.71051e-14 -3.66947e-15 0 -5.42101e-14 2.49829e-15 0 0 0 0)
(0 -1.23638e-16 0 -5.42101e-14 1.94836e-14 0 0 0 0)
(-2.71051e-14 -5.87328e-15 0 -1.0842e-13 2.21278e-14 0 0 0 0)
(-2.71051e-14 -1.2316e-14 0 -8.13152e-14 7.80936e-15 0 0 0 0)
(2.71051e-14 -1.02872e-14 0 -5.42101e-14 1.95829e-15 0 0 0 0)
(0 1.56843e-15 0 -5.42101e-14 -1.19382e-14 0 0 0 0)
(0 1.75795e-14 0 -5.42101e-14 -1.35878e-14 0 0 0 0)
(0 1.3069e-14 0 -8.13152e-14 -3.01022e-15 0 0 0 0)
(0 -1.11714e-14 0 -2.71051e-14 -1.41299e-15 0 0 0 0)
(-2.71051e-14 -2.89913e-14 0 2.71051e-14 9.43357e-15 0 0 0 0)
(-2.71051e-14 -2.40786e-15 0 0 1.00393e-15 0 0 0 0)
(0 1.48623e-14 0 -8.13152e-14 -1.4461e-17 0 0 0 0)
(0 4.92066e-15 0 0 2.67543e-15 0 0 0 0)
(0 -1.06464e-14 0 -2.71051e-14 2.46263e-15 0 0 0 0)
(-2.71051e-13 -1.05687e-12 0 9.21572e-13 -1.11527e-11 0 0 0 0)
(8.13152e-14 1.27013e-12 0 -2.43945e-13 2.27009e-12 0 0 0 0)
(0 -2.15214e-13 0 5.42101e-14 -5.06937e-13 0 0 0 0)
(1.0842e-13 5.69e-14 0 -5.42101e-14 1.06854e-13 0 0 0 0)
(0 -7.0513e-15 0 0 -4.14177e-14 0 0 0 0)
(0 -1.55205e-14 0 -5.42101e-14 -1.33567e-14 0 0 0 0)
(0 -1.00086e-14 0 0 -2.2871e-14 0 0 0 0)
(-5.42101e-14 7.8543e-15 0 -5.42101e-14 -1.05928e-14 0 0 0 0)
(0 -6.98414e-15 0 0 -9.05907e-15 0 0 0 0)
(5.42101e-14 -1.40999e-14 0 5.42101e-14 2.98205e-15 0 0 0 0)
(0 -1.35074e-14 0 5.42101e-14 6.78593e-15 0 0 0 0)
(-5.42101e-14 -7.21045e-15 0 0 -4.21362e-16 0 0 0 0)
(5.42101e-14 1.1999e-14 0 5.42101e-14 -1.8329e-14 0 0 0 0)
(2.71051e-14 1.12882e-14 0 5.42101e-14 -1.58907e-14 0 0 0 0)
(5.42101e-14 3.20746e-15 0 0 -1.86125e-14 0 0 0 0)
(0 -5.35838e-15 0 2.71051e-14 -2.80691e-15 0 0 0 0)
(-5.42101e-14 -1.10773e-14 0 0 1.66345e-14 0 0 0 0)
(5.42101e-14 1.53884e-15 0 5.42101e-14 2.04567e-15 0 0 0 0)
(0 7.03155e-15 0 0 -2.91502e-15 0 0 0 0)
(0 -7.04835e-15 0 0 -4.32299e-15 0 0 0 0)
(2.98156e-13 -3.21271e-12 0 4.06576e-13 6.17248e-12 0 0 0 0)
(-2.98156e-13 3.87881e-12 0 -5.42101e-14 -1.22831e-12 0 0 0 0)
(5.42101e-14 -7.77593e-13 0 1.6263e-13 2.35055e-13 0 0 0 0)
(-5.42101e-14 1.60448e-13 0 5.42101e-14 -8.51436e-14 0 0 0 0)
(0 -4.73346e-14 0 1.0842e-13 -1.30152e-14 0 0 0 0)
(2.71051e-14 -4.36032e-15 0 8.13152e-14 -1.58238e-14 0 0 0 0)
(2.71051e-14 -9.0559e-16 0 5.42101e-14 1.25748e-14 0 0 0 0)
(0 1.36883e-14 0 5.42101e-14 7.16806e-15 0 0 0 0)
(2.71051e-14 7.7016e-15 0 8.13152e-14 -7.62685e-15 0 0 0 0)
(0 3.52901e-15 0 2.71051e-14 -5.60511e-15 0 0 0 0)
(0 -1.36906e-14 0 5.42101e-14 1.00733e-16 0 0 0 0)
(0 -2.35465e-14 0 1.0842e-13 1.06683e-14 0 0 0 0)
(0 2.11023e-15 0 5.42101e-14 4.80283e-16 0 0 0 0)
(0 1.27856e-14 0 5.42101e-14 -6.68553e-15 0 0 0 0)
(-2.71051e-14 1.91233e-15 0 5.42101e-14 5.39093e-15 0 0 0 0)
(0 6.25564e-15 0 0 2.40639e-15 0 0 0 0)
(0 2.44472e-15 0 0 6.35668e-15 0 0 0 0)
(-2.71051e-14 -4.68723e-15 0 5.42101e-14 1.35188e-14 0 0 0 0)
(-2.71051e-14 -1.44801e-15 0 0 5.22944e-15 0 0 0 0)
(0 -3.40837e-15 0 -5.42101e-14 -2.25947e-15 0 0 0 0)
(8.13152e-14 3.8873e-12 0 -1.87025e-12 -6.67762e-13 0 0 0 0)
(-1.35525e-13 -4.66729e-12 0 3.79471e-13 1.16675e-13 0 0 0 0)
(1.35525e-13 9.27952e-13 0 -1.6263e-13 -6.91464e-14 0 0 0 0)
(-2.71051e-14 -1.9117e-13 0 5.42101e-14 3.45409e-15 0 0 0 0)
(0 6.22684e-14 0 -1.0842e-13 1.10897e-15 0 0 0 0)
(0 1.00694e-14 0 -2.71051e-14 2.80121e-15 0 0 0 0)
(-5.42101e-14 1.29833e-14 0 -2.71051e-14 1.73973e-14 0 0 0 0)
(-5.42101e-14 -1.23473e-14 0 0 9.21042e-15 0 0 0 0)
(0 -1.97573e-14 0 0 -7.55609e-15 0 0 0 0)
(5.42101e-14 -6.37232e-15 0 2.71051e-14 -1.20992e-14 0 0 0 0)
(2.71051e-14 2.76606e-15 0 -2.71051e-14 -6.67275e-15 0 0 0 0)
(0 -6.83089e-15 0 -2.71051e-14 1.09247e-14 0 0 0 0)
(-2.71051e-14 -5.35487e-15 0 -2.71051e-14 1.35594e-14 0 0 0 0)
(0 1.61989e-14 0 -5.42101e-14 -4.22431e-15 0 0 0 0)
(2.71051e-14 1.22994e-14 0 -5.42101e-14 -5.04297e-16 0 0 0 0)
(-2.71051e-14 -4.39262e-15 0 -5.42101e-14 7.32343e-15 0 0 0 0)
(-5.42101e-14 3.50698e-17 0 0 2.24917e-15 0 0 0 0)
(8.13152e-14 4.11605e-16 0 -5.42101e-14 3.34417e-15 0 0 0 0)
(-2.71051e-14 -8.74667e-15 0 0 2.8218e-15 0 0 0 0)
(0 -1.00183e-14 0 5.42101e-14 1.36104e-15 0 0 0 0)
(-1.24683e-12 -3.7638e-12 0 1.49078e-12 -1.02924e-12 0 0 0 0)
(1.43657e-12 4.47743e-12 0 -2.1684e-13 1.95442e-13 0 0 0 0)
(-3.25261e-13 -8.90813e-13 0 2.71051e-14 -1.81339e-15 0 0 0 0)
(8.13152e-14 2.30703e-13 0 -1.35525e-13 2.74911e-14 0 0 0 0)
(-2.71051e-14 -4.79875e-14 0 -8.13152e-14 -9.16951e-15 0 0 0 0)
(2.71051e-14 1.1928e-14 0 -5.42101e-14 -2.81648e-14 0 0 0 0)
(8.13152e-14 5.50361e-15 0 -2.71051e-14 -2.60182e-14 0 0 0 0)
(2.71051e-14 -1.1265e-14 0 0 -1.71474e-14 0 0 0 0)
(2.71051e-14 -1.3608e-14 0 0 -7.39507e-15 0 0 0 0)
(-2.71051e-14 4.41234e-15 0 -5.42101e-14 6.75145e-15 0 0 0 0)
(-2.71051e-14 9.33332e-15 0 -8.13152e-14 6.09073e-15 0 0 0 0)
(0 -3.31435e-15 0 0 1.35845e-14 0 0 0 0)
(0 -1.30388e-14 0 -2.71051e-14 2.88395e-14 0 0 0 0)
(-2.71051e-14 -1.27817e-15 0 -5.42101e-14 1.67115e-14 0 0 0 0)
(0 1.34601e-14 0 -8.13152e-14 -8.4196e-15 0 0 0 0)
(0 9.00911e-15 0 0 -8.01023e-15 0 0 0 0)
(0 -1.53454e-15 0 -5.42101e-14 -5.55839e-15 0 0 0 0)
(0 -4.11459e-15 0 -5.42101e-14 -1.33847e-14 0 0 0 0)
(0 -3.43113e-15 0 2.71051e-14 -5.48325e-15 0 0 0 0)
(0 -7.59121e-15 0 0 3.01401e-15 0 0 0 0)
(1.35525e-12 3.0535e-12 0 -1.0842e-13 4.82747e-12 0 0 0 0)
(-1.57209e-12 -3.63986e-12 0 -2.1684e-13 -9.89542e-13 0 0 0 0)
(2.1684e-13 7.60001e-13 0 -8.13152e-14 2.45882e-13 0 0 0 0)
(-1.35525e-13 -1.98526e-13 0 0 -5.89565e-14 0 0 0 0)
(8.13152e-14 6.61258e-15 0 5.42101e-14 -2.36163e-15 0 0 0 0)
(0 -6.77928e-15 0 -2.71051e-14 -1.24357e-14 0 0 0 0)
(-2.71051e-14 2.40007e-14 0 -8.13152e-14 -1.09292e-14 0 0 0 0)
(0 6.27582e-15 0 -8.13152e-14 -1.17317e-14 0 0 0 0)
(0 4.14154e-15 0 -1.6263e-13 2.18019e-15 0 0 0 0)
(0 7.11348e-15 0 -1.35525e-13 -4.21394e-18 0 0 0 0)
(2.71051e-14 9.59908e-15 0 -8.13152e-14 -1.18363e-14 0 0 0 0)
(0 1.59178e-14 0 -1.0842e-13 -1.20191e-14 0 0 0 0)
(0 -2.22788e-15 0 -8.13152e-14 -4.06016e-16 0 0 0 0)
(0 -2.10602e-14 0 0 8.45983e-15 0 0 0 0)
(0 -1.24223e-14 0 0 1.08949e-16 0 0 0 0)
(0 -1.53141e-15 0 0 -9.14814e-15 0 0 0 0)
(-2.71051e-14 -5.33935e-15 0 0 -1.49595e-14 0 0 0 0)
(8.13152e-14 4.86739e-16 0 0 -2.01734e-14 0 0 0 0)
(0 7.65199e-15 0 -2.71051e-14 -1.18637e-14 0 0 0 0)
(0 -7.54908e-15 0 0 -7.59846e-15 0 0 0 0)
(-1.51788e-12 7.41231e-14 0 -4.06576e-13 -9.63956e-12 0 0 0 0)
(1.43657e-12 -1.04156e-13 0 2.43945e-13 2.02645e-12 0 0 0 0)
(-1.35525e-13 3.97721e-14 0 8.13152e-14 -4.85006e-13 0 0 0 0)
(1.35525e-13 -1.75409e-14 0 1.0842e-13 8.53263e-14 0 0 0 0)
(0 -1.46662e-15 0 2.71051e-14 -1.97947e-14 0 0 0 0)
(-5.42101e-14 3.36044e-15 0 2.71051e-14 2.00379e-14 0 0 0 0)
(-5.42101e-14 6.20755e-15 0 2.71051e-14 4.4078e-15 0 0 0 0)
(5.42101e-14 1.84432e-15 0 2.71051e-14 4.48716e-15 0 0 0 0)
(-5.42101e-14 -1.88049e-15 0 5.42101e-14 1.10122e-14 0 0 0 0)
(0 -9.60418e-15 0 8.13152e-14 1.13865e-15 0 0 0 0)
(0 -2.68155e-15 0 5.42101e-14 -1.86371e-15 0 0 0 0)
(0 8.11596e-15 0 0 -2.68185e-14 0 0 0 0)
(1.0842e-13 7.44014e-15 0 2.71051e-14 -3.47621e-14 0 0 0 0)
(0 -7.63203e-16 0 5.42101e-14 -2.26963e-14 0 0 0 0)
(2.71051e-14 -4.14791e-15 0 8.13152e-14 -1.2627e-14 0 0 0 0)
(5.42101e-14 -6.05931e-15 0 2.71051e-14 -6.89876e-15 0 0 0 0)
(0 -1.25598e-14 0 8.13152e-14 -4.54058e-15 0 0 0 0)
(-5.42101e-14 -1.01886e-15 0 8.13152e-14 1.83286e-15 0 0 0 0)
(0 9.1438e-15 0 0 -1.12479e-14 0 0 0 0)
(5.42101e-14 1.1871e-14 0 0 -1.7322e-14 0 0 0 0)
(1.16552e-12 -4.55961e-12 0 6.23416e-13 9.22063e-12 0 0 0 0)
(-1.0842e-12 5.51469e-12 0 -5.42101e-14 -1.89051e-12 0 0 0 0)
(1.35525e-13 -1.18112e-12 0 1.0842e-13 4.51786e-13 0 0 0 0)
(-1.6263e-13 2.66685e-13 0 -2.71051e-14 -8.31935e-14 0 0 0 0)
(0 -5.86759e-14 0 5.42101e-14 3.20604e-14 0 0 0 0)
(0 1.74232e-14 0 5.42101e-14 1.55656e-14 0 0 0 0)
(0 8.44995e-15 0 0 8.0455e-15 0 0 0 0)
(-2.71051e-14 1.28802e-14 0 0 4.83288e-15 0 0 0 0)
(2.71051e-14 7.93022e-16 0 8.13152e-14 2.06283e-15 0 0 0 0)
(0 -5.76244e-15 0 5.42101e-14 5.33445e-15 0 0 0 0)
(-2.71051e-14 -1.83581e-14 0 1.0842e-13 8.77915e-15 0 0 0 0)
(2.71051e-14 -1.69805e-14 0 8.13152e-14 3.37671e-15 0 0 0 0)
(-2.71051e-14 1.89439e-15 0 5.42101e-14 -9.46919e-16 0 0 0 0)
(0 1.07485e-15 0 0 -1.2707e-14 0 0 0 0)
(2.71051e-14 3.3752e-15 0 0 -1.32925e-14 0 0 0 0)
(-2.71051e-14 6.55505e-15 0 -2.71051e-14 -1.29659e-14 0 0 0 0)
(0 3.39227e-15 0 0 1.86289e-15 0 0 0 0)
(0 -6.22062e-15 0 0 1.24198e-14 0 0 0 0)
(0 -1.15029e-14 0 0 -6.306e-16 0 0 0 0)
(-2.71051e-14 2.10209e-14 0 2.71051e-14 -3.30697e-15 0 0 0 0)
(-9.21572e-13 7.40424e-12 0 -5.42101e-14 -3.87779e-14 0 0 0 0)
(9.21572e-13 -8.87299e-12 0 -2.1684e-13 2.43399e-15 0 0 0 0)
(-1.89735e-13 1.84708e-12 0 -2.43945e-13 5.7567e-15 0 0 0 0)
(1.0842e-13 -4.37267e-13 0 -8.13152e-14 5.60663e-15 0 0 0 0)
(0 9.72925e-14 0 -5.42101e-14 1.38013e-15 0 0 0 0)
(0 -2.06545e-14 0 -8.13152e-14 3.37471e-15 0 0 0 0)
(-5.42101e-14 -4.52521e-15 0 0 -5.43359e-15 0 0 0 0)
(5.42101e-14 -4.13835e-15 0 0 -1.95846e-14 0 0 0 0)
(2.71051e-14 -1.37893e-15 0 0 -2.1783e-14 0 0 0 0)
(0 -2.88785e-15 0 -5.42101e-14 -1.47269e-14 0 0 0 0)
(5.42101e-14 -4.63929e-15 0 -2.71051e-14 -1.27156e-14 0 0 0 0)
(-8.13152e-14 -1.61011e-15 0 0 9.86899e-15 0 0 0 0)
(2.71051e-14 -8.64355e-15 0 0 1.08339e-14 0 0 0 0)
(0 -1.31088e-14 0 0 -3.86074e-16 0 0 0 0)
(0 -4.40687e-15 0 0 -4.78366e-15 0 0 0 0)
(5.42101e-14 9.09613e-15 0 0 -1.45884e-14 0 0 0 0)
(0 1.28259e-14 0 -2.71051e-14 -7.23233e-15 0 0 0 0)
(0 -3.51235e-15 0 -2.71051e-14 -7.73051e-15 0 0 0 0)
(2.71051e-14 -6.58293e-15 0 0 1.99593e-15 0 0 0 0)
(-2.71051e-14 1.58086e-14 0 0 1.20458e-14 0 0 0 0)
(8.40257e-13 -4.59596e-12 0 -2.1684e-13 -1.14367e-11 0 0 0 0)
(-1.19262e-12 5.55922e-12 0 2.98156e-13 2.38447e-12 0 0 0 0)
(2.98156e-13 -1.17794e-12 0 1.89735e-13 -5.55992e-13 0 0 0 0)
(0 2.62309e-13 0 1.35525e-13 1.15662e-13 0 0 0 0)
(0 -6.09078e-14 0 1.0842e-13 -3.76342e-14 0 0 0 0)
(5.42101e-14 1.06095e-14 0 1.0842e-13 -1.93273e-14 0 0 0 0)
(0 -1.45094e-14 0 1.0842e-13 -1.56141e-14 0 0 0 0)
(2.71051e-14 -3.46914e-15 0 1.0842e-13 -9.71554e-15 0 0 0 0)
(0 5.65071e-15 0 5.42101e-14 -3.33152e-15 0 0 0 0)
(0 3.30491e-15 0 1.0842e-13 1.00214e-15 0 0 0 0)
(2.71051e-14 6.23778e-15 0 0 2.28043e-15 0 0 0 0)
(0 6.56906e-15 0 2.71051e-14 5.20812e-16 0 0 0 0)
(0 -8.36067e-15 0 2.71051e-14 -1.13972e-14 0 0 0 0)
(0 -1.45428e-14 0 2.71051e-14 -5.14767e-15 0 0 0 0)
(0 -1.08271e-14 0 0 -5.02808e-15 0 0 0 0)
(-2.71051e-14 4.10638e-15 0 2.71051e-14 2.29626e-15 0 0 0 0)
(-2.71051e-14 1.02502e-14 0 0 2.51646e-15 0 0 0 0)
(0 3.00763e-15 0 0 3.96494e-15 0 0 0 0)
(2.71051e-14 8.27344e-15 0 2.71051e-14 9.7339e-15 0 0 0 0)
(-2.71051e-14 6.97914e-15 0 -2.71051e-14 1.09489e-14 0 0 0 0)
(-7.86047e-13 -1.64797e-12 0 -1.49078e-12 1.35164e-11 0 0 0 0)
(1.24683e-12 2.0077e-12 0 4.33681e-13 -2.85421e-12 0 0 0 0)
(-3.79471e-13 -4.21723e-13 0 -5.42101e-14 6.52624e-13 0 0 0 0)
(5.42101e-14 8.1091e-14 0 5.42101e-14 -1.45574e-13 0 0 0 0)
(-5.42101e-14 -3.76971e-14 0 0 3.90235e-14 0 0 0 0)
(0 1.36557e-15 0 2.71051e-14 -6.02402e-15 0 0 0 0)
(-2.71051e-14 5.08654e-15 0 0 5.09884e-15 0 0 0 0)
(2.71051e-14 8.14424e-15 0 0 7.90426e-15 0 0 0 0)
(-2.71051e-14 9.33875e-15 0 0 1.09556e-14 0 0 0 0)
(-2.71051e-14 2.72411e-15 0 0 7.92199e-15 0 0 0 0)
(-2.71051e-14 -5.12062e-15 0 5.42101e-14 7.66544e-15 0 0 0 0)
(0 -1.52877e-14 0 2.71051e-14 1.21768e-15 0 0 0 0)
(0 -1.4312e-14 0 2.71051e-14 -4.42953e-15 0 0 0 0)
(0 -6.73972e-15 0 0 7.44835e-15 0 0 0 0)
(0 3.03706e-15 0 0 1.25211e-14 0 0 0 0)
(0 1.66407e-14 0 -2.71051e-14 1.01991e-14 0 0 0 0)
(0 1.44946e-14 0 0 1.87619e-15 0 0 0 0)
(2.71051e-14 3.70508e-15 0 2.71051e-14 6.69059e-15 0 0 0 0)
(-2.71051e-14 4.0104e-16 0 -2.71051e-14 4.72878e-15 0 0 0 0)
(0 -4.87425e-15 0 0 -2.78151e-16 0 0 0 0)
(-2.71051e-13 6.06624e-12 0 2.95445e-12 -8.33576e-14 0 0 0 0)
(2.98156e-13 -7.30456e-12 0 -9.21572e-13 -5.00398e-14 0 0 0 0)
(-2.71051e-14 1.53069e-12 0 0 -2.41252e-14 0 0 0 0)
(5.42101e-14 -3.51292e-13 0 -1.0842e-13 -3.62792e-14 0 0 0 0)
(0 7.86425e-14 0 -5.42101e-14 -1.95279e-16 0 0 0 0)
(0 -2.33151e-14 0 -2.71051e-14 2.07983e-14 0 0 0 0)
(0 -5.8107e-16 0 -5.42101e-14 1.48042e-14 0 0 0 0)
(0 2.38763e-15 0 -5.42101e-14 7.49096e-16 0 0 0 0)
(-2.71051e-14 5.66843e-15 0 -1.0842e-13 -3.3937e-15 0 0 0 0)
(2.71051e-14 1.47329e-17 0 -5.42101e-14 -1.0911e-14 0 0 0 0)
(5.42101e-14 -4.66524e-16 0 -2.71051e-14 -1.09307e-14 0 0 0 0)
(2.71051e-14 -5.52591e-15 0 -2.71051e-14 -6.74009e-15 0 0 0 0)
(-5.42101e-14 -2.13e-15 0 -2.71051e-14 1.82172e-14 0 0 0 0)
(-2.71051e-14 2.40791e-15 0 -2.71051e-14 2.06623e-14 0 0 0 0)
(-5.42101e-14 -8.0764e-15 0 0 2.35679e-14 0 0 0 0)
(-5.42101e-14 -6.53858e-15 0 0 8.38351e-15 0 0 0 0)
(0 6.74167e-15 0 -5.42101e-14 -1.20598e-14 0 0 0 0)
(5.42101e-14 5.86023e-15 0 -8.13152e-14 -1.90255e-14 0 0 0 0)
(0 1.3047e-15 0 0 -1.02772e-14 0 0 0 0)
(0 2.52851e-15 0 0 -9.23237e-15 0 0 0 0)
(1.30104e-12 -1.78137e-12 0 -1.35525e-13 -1.54084e-11 0 0 0 0)
(-1.73472e-12 2.06693e-12 0 1.35525e-13 3.25559e-12 0 0 0 0)
(3.79471e-13 -4.07963e-13 0 1.6263e-13 -7.65442e-13 0 0 0 0)
(0 1.05021e-13 0 5.42101e-14 1.48572e-13 0 0 0 0)
(5.42101e-14 1.93804e-14 0 5.42101e-14 -4.50024e-14 0 0 0 0)
(-5.42101e-14 1.63651e-14 0 2.71051e-14 1.56628e-14 0 0 0 0)
(0 -1.49627e-14 0 2.71051e-14 6.45312e-15 0 0 0 0)
(-2.71051e-14 -1.00537e-14 0 2.71051e-14 2.91491e-15 0 0 0 0)
(0 -2.32139e-15 0 8.13152e-14 -8.15194e-16 0 0 0 0)
(0 -4.81289e-15 0 2.71051e-14 -5.38999e-15 0 0 0 0)
(0 -9.49664e-16 0 0 -1.21079e-14 0 0 0 0)
(0 1.38601e-14 0 -2.71051e-14 -1.80743e-14 0 0 0 0)
(0 1.30904e-14 0 -2.71051e-14 -6.27538e-15 0 0 0 0)
(2.71051e-14 -1.389e-15 0 2.71051e-14 -9.56494e-15 0 0 0 0)
(5.42101e-14 -9.24174e-15 0 0 -6.24449e-15 0 0 0 0)
(-5.42101e-14 -1.8987e-14 0 5.42101e-14 6.51669e-15 0 0 0 0)
(0 -1.29144e-14 0 5.42101e-14 4.52443e-15 0 0 0 0)
(5.42101e-14 5.48767e-15 0 5.42101e-14 -7.08952e-15 0 0 0 0)
(0 1.01941e-14 0 0 -2.97631e-15 0 0 0 0)
(0 1.46353e-14 0 2.71051e-14 -5.12368e-15 0 0 0 0)
(-2.71051e-13 -6.08652e-12 0 -1.27394e-12 9.91097e-12 0 0 0 0)
(5.69206e-13 7.33835e-12 0 2.71051e-13 -2.04307e-12 0 0 0 0)
(-1.0842e-13 -1.57633e-12 0 -1.0842e-13 5.05682e-13 0 0 0 0)
(-5.42101e-14 3.69148e-13 0 -5.42101e-14 -5.87792e-14 0 0 0 0)
(-5.42101e-14 -5.42664e-14 0 -5.42101e-14 3.15132e-14 0 0 0 0)
(2.71051e-14 2.81403e-14 0 -5.42101e-14 -2.38931e-14 0 0 0 0)
(0 -1.33289e-14 0 -2.71051e-14 -1.29923e-14 0 0 0 0)
(0 -4.88068e-15 0 -2.71051e-14 4.39851e-15 0 0 0 0)
(2.71051e-14 -2.63647e-15 0 -2.71051e-14 1.94211e-15 0 0 0 0)
(-2.71051e-14 -1.1278e-14 0 -2.71051e-14 9.35636e-15 0 0 0 0)
(-2.71051e-14 -1.31509e-14 0 -2.71051e-14 1.8033e-14 0 0 0 0)
(0 3.06609e-16 0 0 2.34569e-14 0 0 0 0)
(-2.71051e-14 6.37938e-15 0 0 3.86624e-15 0 0 0 0)
(0 2.4388e-15 0 -2.71051e-14 3.98713e-15 0 0 0 0)
(0 8.00522e-15 0 0 2.81644e-15 0 0 0 0)
(0 4.23034e-15 0 -5.42101e-14 5.22364e-15 0 0 0 0)
(-2.71051e-14 -6.86453e-15 0 0 1.75731e-14 0 0 0 0)
(-2.71051e-14 -1.64051e-15 0 0 2.50026e-14 0 0 0 0)
(2.71051e-14 3.27054e-15 0 0 1.37259e-14 0 0 0 0)
(-2.71051e-14 1.06285e-14 0 -2.71051e-14 1.15379e-14 0 0 0 0)
)
;

boundaryField
{
    movingWall
    {
        type            extrapolatedCalculated;
        value           nonuniform List<tensor> 
20
(
(-2.71051e-13 -6.08652e-12 0 1.77636e-12 3.09198e-11 0 0 0 0)
(5.69206e-13 7.33835e-12 0 -7.54952e-13 -6.57369e-12 0 0 0 0)
(-1.0842e-13 -1.57633e-12 0 -4.88498e-13 1.56636e-12 0 0 0 0)
(-5.42101e-14 3.69148e-13 0 -3.10862e-13 -2.68358e-13 0 0 0 0)
(-5.42101e-14 -5.42664e-14 0 -2.22045e-13 8.97714e-14 0 0 0 0)
(2.71051e-14 2.81403e-14 0 -1.77636e-13 -5.12923e-14 0 0 0 0)
(0 -1.33289e-14 0 -2.66454e-13 -2.279e-14 0 0 0 0)
(0 -4.88068e-15 0 -1.77636e-13 2.02349e-15 0 0 0 0)
(2.71051e-14 -2.63647e-15 0 -2.66454e-13 -3.26725e-15 0 0 0 0)
(-2.71051e-14 -1.1278e-14 0 -2.22045e-13 1.25694e-14 0 0 0 0)
(-2.71051e-14 -1.31509e-14 0 -1.77636e-13 4.18446e-14 0 0 0 0)
(0 3.06609e-16 0 -1.77636e-13 6.51728e-14 0 0 0 0)
(-2.71051e-14 6.37938e-15 0 -1.77636e-13 4.06182e-14 0 0 0 0)
(0 2.4388e-15 0 -1.33227e-13 3.96553e-14 0 0 0 0)
(0 8.00522e-15 0 -8.88178e-14 3.0863e-14 0 0 0 0)
(0 4.23034e-15 0 -1.33227e-13 7.63436e-15 0 0 0 0)
(-2.71051e-14 -6.86453e-15 0 -8.88178e-14 1.39416e-14 0 0 0 0)
(-2.71051e-14 -1.64051e-15 0 0 3.50925e-14 0 0 0 0)
(2.71051e-14 3.27054e-15 0 0 2.05036e-14 0 0 0 0)
(-2.71051e-14 1.06285e-14 0 -4.44089e-14 2.20103e-14 0 0 0 0)
)
;
    }
    fixedWalls
    {
        type            extrapolatedCalculated;
        value           nonuniform List<tensor> 
60
(
(-4.08562e-12 5.26604e-11 0 1.24683e-12 1.61793e-11 0 0 0 0)
(9.05942e-12 1.20566e-11 0 2.98156e-13 -2.77915e-11 0 0 0 0)
(-2.84217e-12 -5.85054e-11 0 -3.84892e-12 6.99847e-12 0 0 0 0)
(-6.30607e-12 4.00505e-11 0 2.71051e-12 1.43081e-11 0 0 0 0)
(7.9492e-12 -1.27292e-12 0 1.57209e-12 -1.70367e-11 0 0 0 0)
(0 -2.80963e-11 0 -2.60209e-12 7.42965e-12 0 0 0 0)
(-2.57572e-12 2.84457e-11 0 -2.1684e-13 5.72117e-12 0 0 0 0)
(-8.88178e-13 -5.21157e-12 0 9.21572e-13 -1.11527e-11 0 0 0 0)
(1.28786e-12 -1.61652e-11 0 4.06576e-13 6.17248e-12 0 0 0 0)
(6.66134e-13 1.94783e-11 0 -1.87025e-12 -6.67762e-13 0 0 0 0)
(-6.21725e-12 -1.88363e-11 0 1.49078e-12 -1.02924e-12 0 0 0 0)
(6.66134e-12 1.53614e-11 0 -1.0842e-13 4.82747e-12 0 0 0 0)
(-6.75016e-12 4.73581e-13 0 -4.06576e-13 -9.63956e-12 0 0 0 0)
(5.10703e-12 -2.31969e-11 0 6.23416e-13 9.22063e-12 0 0 0 0)
(-4.17444e-12 3.73561e-11 0 -5.42101e-14 -3.87779e-14 0 0 0 0)
(4.79616e-12 -2.3352e-11 0 -2.1684e-13 -1.14367e-11 0 0 0 0)
(-4.9738e-12 -8.39066e-12 0 -1.49078e-12 1.35164e-11 0 0 0 0)
(-1.24345e-12 3.07137e-11 0 2.95445e-12 -8.33576e-14 0 0 0 0)
(6.88338e-12 -8.72409e-12 0 -1.35525e-13 -1.54084e-11 0 0 0 0)
(-1.77636e-12 -3.09198e-11 0 -1.27394e-12 9.91097e-12 0 0 0 0)
(0 -2.20937e-14 0 0 4.45344e-15 0 0 0 0)
(8.88178e-14 4.27992e-15 0 0 -1.62559e-14 0 0 0 0)
(-4.44089e-14 4.29299e-14 0 2.71051e-14 -1.43116e-15 0 0 0 0)
(-4.44089e-14 1.00046e-14 0 0 1.19289e-14 0 0 0 0)
(-4.44089e-14 -4.78591e-15 0 0 4.45943e-15 0 0 0 0)
(-4.44089e-14 -7.83314e-15 0 0 4.91906e-15 0 0 0 0)
(0 -2.44622e-14 0 -2.71051e-14 2.46263e-15 0 0 0 0)
(0 -1.76837e-14 0 0 -4.32299e-15 0 0 0 0)
(8.88178e-14 -7.17019e-15 0 -5.42101e-14 -2.25947e-15 0 0 0 0)
(0 -8.64579e-15 0 5.42101e-14 1.36104e-15 0 0 0 0)
(0 -1.26143e-14 0 0 3.01401e-15 0 0 0 0)
(0 -2.07018e-14 0 0 -7.59846e-15 0 0 0 0)
(8.88178e-14 1.77795e-14 0 0 -1.7322e-14 0 0 0 0)
(-4.44089e-14 4.85863e-14 0 2.71051e-14 -3.30697e-15 0 0 0 0)
(-4.44089e-14 3.10074e-14 0 0 1.20458e-14 0 0 0 0)
(-4.44089e-14 4.03011e-16 0 -2.71051e-14 1.09489e-14 0 0 0 0)
(0 -1.27883e-14 0 0 -2.78151e-16 0 0 0 0)
(0 1.51561e-15 0 0 -9.23237e-15 0 0 0 0)
(0 2.41412e-14 0 2.71051e-14 -5.12368e-15 0 0 0 0)
(-4.44089e-14 2.20103e-14 0 -2.71051e-14 1.15379e-14 0 0 0 0)
(-5.69206e-13 1.04393e-11 0 -4.08562e-12 5.26604e-11 0 0 0 0)
(1.13841e-12 -1.24943e-11 0 1.86517e-12 -1.09031e-11 0 0 0 0)
(-3.79471e-13 2.60775e-12 0 4.44089e-13 2.68311e-12 0 0 0 0)
(-2.71051e-14 -6.313e-13 0 3.10862e-13 -4.72126e-13 0 0 0 0)
(-5.42101e-14 1.11324e-13 0 2.66454e-13 1.57916e-13 0 0 0 0)
(-2.71051e-14 -4.13551e-14 0 2.22045e-13 -2.68311e-14 0 0 0 0)
(0 6.52989e-15 0 1.77636e-13 -7.50414e-15 0 0 0 0)
(0 5.13037e-15 0 1.77636e-13 -7.11506e-16 0 0 0 0)
(-2.71051e-14 5.99416e-15 0 1.33227e-13 1.30174e-14 0 0 0 0)
(0 9.594e-15 0 8.88178e-14 2.32651e-14 0 0 0 0)
(0 3.71147e-15 0 1.33227e-13 5.13934e-14 0 0 0 0)
(0 -3.55055e-15 0 8.88178e-14 3.8111e-14 0 0 0 0)
(0 -3.91459e-15 0 1.33227e-13 3.71911e-14 0 0 0 0)
(-2.71051e-14 -9.03741e-15 0 4.44089e-14 2.24526e-14 0 0 0 0)
(2.71051e-14 -1.16274e-15 0 4.44089e-14 1.04152e-15 0 0 0 0)
(0 -3.71069e-15 0 1.33227e-13 1.78017e-14 0 0 0 0)
(-2.71051e-14 -5.14716e-15 0 8.88178e-14 -1.38013e-14 0 0 0 0)
(0 7.88415e-15 0 0 -2.78694e-15 0 0 0 0)
(0 6.22015e-15 0 1.33227e-13 1.77353e-14 0 0 0 0)
(-2.71051e-14 -9.95725e-15 0 0 2.20937e-14 0 0 0 0)
)
;
    }
    frontAndBack
    {
        type            empty;
    }
}


// ************************************************************************* //
