/*--------------------------------*- C++ -*----------------------------------*\
| =========                 |                                                 |
| \\      /  F ield         | OpenFOAM: The Open Source CFD Toolbox           |
|  \\    /   O peration     | Version:  2312                                  |
|   \\  /    A nd           | Website:  www.openfoam.com                      |
|    \\/     M anipulation  |                                                 |
\*---------------------------------------------------------------------------*/
FoamFile
{
    version     2.0;
    format      ascii;
    arch        "LSB;label=32;scalar=64";
    class       volScalarField;
    location    "5.875";
    object      Lambda2Field;
}
// * * * * * * * * * * * * * * * * * * * * * * * * * * * * * * * * * * * * * //

dimensions      [0 0 -2 0 0 0 0];

internalField   nonuniform List<scalar> 
400
(
1.33401e-23
4.34392e-24
2.14681e-25
0
1.1991e-26
-1.50718e-27
0
1.39059e-28
6.07336e-28
-4.64351e-28
0
0
0
2.96877e-29
7.97716e-28
0
1.2945e-28
0
0
1.98331e-29
3.27803e-24
6.33338e-24
3.2972e-25
1.08966e-26
2.93005e-27
8.38838e-28
4.71397e-28
0
1.7836e-27
4.36505e-29
4.62013e-28
0
1.88258e-28
4.03358e-33
0
2.17571e-31
2.39456e-28
2.10303e-30
0
2.64254e-28
4.43926e-23
1.5892e-23
0
0
3.74118e-27
-1.47493e-27
0
0
1.17336e-27
-2.68508e-28
0
-4.624e-28
0
-1.73717e-28
0
9.10811e-30
1.4638e-28
1.83551e-30
3.98587e-29
6.28764e-28
2.26796e-23
9.57378e-24
3.58325e-25
-9.41164e-27
1.24876e-26
-3.07051e-27
8.50383e-28
-1.13651e-28
1.17359e-27
1.37951e-27
1.07545e-28
7.25771e-29
6.03555e-28
1.87665e-28
1.34947e-28
1.93768e-28
1.23616e-28
8.58932e-29
0
1.423e-28
1.79788e-24
3.61804e-24
2.50585e-25
1.79145e-27
7.84676e-28
6.11747e-28
0
-3.01593e-27
0
0
1.717e-27
0
3.52116e-28
1.87676e-28
1.65537e-28
0
3.27379e-28
0
2.7219e-29
0
1.42816e-23
4.72769e-24
1.17647e-25
-2.79681e-27
3.53965e-27
0
7.53177e-28
3.19168e-28
7.34684e-28
5.70167e-28
1.07261e-27
0
7.12376e-28
0
7.02459e-28
0
1.02545e-27
0
8.84875e-30
2.41972e-29
0
1.30574e-24
0
2.55416e-26
0
1.24179e-27
8.43753e-28
6.70243e-30
1.37147e-27
1.06246e-27
1.04381e-27
0
0
-1.05364e-27
3.02803e-28
-5.1128e-29
2.45733e-30
-1.20853e-27
0
2.88571e-28
0
0
0
8.3333e-27
0
8.4137e-28
0
0
0
0
0
1.77546e-31
1.43186e-27
8.64451e-28
3.48996e-28
-1.3736e-28
3.07384e-28
8.76056e-29
0
0
0
0
0
1.16366e-26
0
0
6.85592e-28
7.42045e-28
1.36094e-27
9.56539e-29
0
-2.43911e-27
1.14396e-28
6.93107e-28
8.16494e-28
0
0
0
2.78712e-29
1.84768e-28
0
-1.75273e-24
0
-9.62865e-27
0
-2.65086e-28
3.5252e-28
8.48318e-29
0
0
1.92622e-28
1.85152e-28
4.4727e-28
-8.60299e-28
6.79329e-29
2.91757e-28
5.05908e-30
0
2.70887e-29
-5.41242e-28
0
0
8.16489e-26
-2.4654e-26
4.26387e-27
8.8068e-29
7.93604e-28
2.94033e-28
1.00981e-28
0
0
0
3.53417e-28
3.48563e-28
0
0
8.31876e-29
2.23053e-28
0
0
1.50565e-24
1.76846e-24
0
3.47587e-27
9.30427e-28
1.83753e-28
0
-3.72686e-28
0
-9.64056e-28
0
-1.58136e-27
1.8116e-28
0
0
0
2.30913e-28
4.06966e-28
0
0
2.27383e-24
2.03832e-24
2.16012e-26
5.3788e-27
0
4.92602e-28
2.96861e-28
7.01251e-29
8.05866e-28
-7.79669e-28
0
0
1.50674e-27
0
3.97396e-28
0
0
0
0
3.00053e-28
0
8.76543e-25
0
0
0
9.44515e-28
0
2.33568e-29
7.99169e-28
-2.83926e-28
0
-6.46089e-28
7.87825e-28
0
1.7954e-28
0
0
0
0
5.80708e-28
4.4791e-25
1.92403e-24
0
3.55878e-26
0
1.67952e-27
3.46433e-29
3.83556e-28
4.74973e-28
1.56551e-28
4.13613e-28
9.73969e-29
1.36052e-28
0
0
2.12822e-28
0
9.52026e-29
1.48175e-29
1.45102e-28
1.70262e-24
3.07986e-24
0
3.55495e-26
0
1.52383e-27
0
0
3.06326e-28
3.58319e-28
1.49278e-29
1.78055e-28
0
-3.67684e-28
0
1.16576e-28
3.25991e-29
0
4.07658e-28
0
3.07463e-24
2.42529e-24
1.6686e-25
7.33469e-27
1.8781e-27
3.70139e-29
3.24664e-29
6.24774e-29
1.41828e-28
6.27579e-29
4.57095e-28
-4.12892e-28
0
0
0
-3.47025e-28
0
1.4519e-28
2.00637e-28
0
1.79959e-23
6.73418e-24
7.34684e-28
3.94033e-26
0
6.31958e-28
3.14999e-29
-1.28872e-28
1.20111e-28
1.18252e-28
3.09528e-28
1.95209e-28
5.45537e-28
3.61665e-28
5.71752e-28
7.02833e-29
0
0
0
0
1.93413e-24
3.28939e-24
7.7651e-26
5.6932e-27
3.3791e-27
6.88899e-28
0
0
0
-1.01402e-28
0
-4.89982e-29
0
5.38391e-29
6.0346e-29
0
0
3.47749e-28
0
3.96691e-28
7.82732e-24
2.31306e-24
1.82661e-25
-1.65565e-26
3.93487e-27
-7.90807e-28
3.61282e-28
1.32291e-28
2.24911e-28
3.93231e-28
7.30322e-28
0
2.51219e-29
-5.02067e-29
0
-2.02041e-28
3.20594e-28
6.25129e-28
1.91075e-28
0
)
;

boundaryField
{
    movingWall
    {
        type            calculated;
        value           nonuniform List<scalar> 
20
(
0
0
7.8179e-25
-4.27381e-26
1.49883e-26
-2.36783e-27
3.55154e-27
8.66984e-28
1.43718e-27
2.6622e-27
3.07074e-27
0
0
0
0
-5.05311e-28
1.34438e-27
7.34684e-28
4.23073e-28
1.24545e-29
)
;
    }
    fixedWalls
    {
        type            calculated;
        value           nonuniform List<scalar> 
60
(
8.2351e-23
8.56678e-23
2.33261e-22
1.48324e-22
6.11886e-23
7.31089e-23
4.66146e-25
0
0
-3.59834e-23
1.05735e-23
2.1639e-23
4.53721e-23
1.16204e-23
1.54009e-23
2.80668e-23
3.72473e-23
9.07489e-23
4.85633e-23
4.25453e-23
0
2.64254e-28
1.22827e-27
1.423e-28
2.56127e-29
2.41972e-29
6.63048e-28
0
9.4699e-28
-4.66837e-28
0
0
3.7908e-28
1.32787e-27
3.85466e-28
1.08955e-28
0
0
6.54349e-28
0
0
0
1.30207e-24
0
3.26013e-26
-8.44799e-27
1.15994e-27
9.11337e-28
1.53327e-27
8.52118e-28
4.94467e-28
0
0
1.0278e-28
4.68643e-28
-1.77463e-28
2.77525e-28
0
8.28691e-28
4.8813e-28
)
;
    }
    frontAndBack
    {
        type            empty;
    }
}


// ************************************************************************* //
