/*--------------------------------*- C++ -*----------------------------------*\
| =========                 |                                                 |
| \\      /  F ield         | OpenFOAM: The Open Source CFD Toolbox           |
|  \\    /   O peration     | Version:  2312                                  |
|   \\  /    A nd           | Website:  www.openfoam.com                      |
|    \\/     M anipulation  |                                                 |
\*---------------------------------------------------------------------------*/
FoamFile
{
    version     2.0;
    format      ascii;
    arch        "LSB;label=32;scalar=64";
    class       volVectorField;
    location    "5.875";
    object      LambVectorField;
}
// * * * * * * * * * * * * * * * * * * * * * * * * * * * * * * * * * * * * * //

dimensions      [0 1 -2 0 0 0 0];

internalField   nonuniform List<vector> 
400
(
(-1.2102e-24 -9.19249e-12 -9.19249e-12)
(-3.33918e-25 1.22504e-11 -0)
(-1.73104e-26 -2.58064e-12 -2.58064e-12)
(-7.77125e-28 6.58405e-13 -0)
(-1.18471e-29 -3.00086e-14 -3.00086e-14)
(-6.41029e-30 9.55652e-14 -0)
(1.22503e-31 -6.52989e-15 -6.52989e-15)
(-3.90878e-32 2.19747e-14 -0)
(6.8702e-31 2.11109e-14 2.11109e-14)
(-3.71103e-30 -6.38041e-14 0)
(-7.44196e-30 -5.79216e-14 -5.79216e-14)
(3.38288e-31 3.55055e-15 0)
(3.6397e-31 3.91459e-15 3.91459e-15)
(5.07284e-31 9.03741e-15 0)
(-1.38124e-31 -5.30474e-14 -5.30474e-14)
(1.65142e-31 3.71069e-15 0)
(-1.1128e-30 3.22522e-14 3.22522e-14)
(5.49315e-32 -7.88415e-15 -0)
(-2.75791e-31 -6.22015e-15 -6.22015e-15)
(5.49981e-31 9.95725e-15 0)
(-6.38603e-26 -2.11868e-12 -2.11868e-12)
(-1.54058e-26 2.57917e-12 -0)
(-1.20869e-27 -7.37296e-13 -7.37296e-13)
(-2.0971e-29 9.25865e-14 -0)
(-2.44024e-29 -1.42382e-13 -1.42382e-13)
(-5.57753e-30 -4.93097e-14 0)
(-1.03479e-29 -8.4553e-14 -8.4553e-14)
(-1.22333e-29 -8.4083e-14 0)
(-1.02666e-29 -6.84158e-14 -6.84158e-14)
(3.1309e-31 1.89784e-14 0)
(1.89517e-32 -4.77108e-16 -4.77108e-16)
(-1.82233e-31 -8.5683e-15 0)
(1.35108e-30 2.93964e-14 2.93964e-14)
(-2.66124e-32 1.61759e-14 -0)
(-6.73508e-30 5.81621e-14 5.81621e-14)
(4.9582e-31 -1.20448e-14 -0)
(-1.6969e-31 -3.64958e-14 -3.64958e-14)
(3.55675e-32 6.7435e-16 0)
(-1.32845e-32 6.34431e-15 6.34431e-15)
(1.3689e-32 -1.27937e-15 -0)
(-1.11497e-24 7.62301e-12 7.62301e-12)
(-4.03002e-25 -1.27758e-11 0)
(-2.25733e-26 3.05338e-12 3.05338e-12)
(-1.1015e-27 -7.09462e-13 0)
(-3.30859e-29 1.1092e-13 1.1092e-13)
(-1.86964e-29 -1.08489e-13 0)
(-5.66782e-31 2.13467e-14 2.13467e-14)
(3.85939e-30 -9.38311e-14 -0)
(-4.30339e-30 -4.36413e-14 -4.36413e-14)
(9.03357e-30 7.27157e-14 0)
(-1.68278e-30 1.94658e-14 1.94658e-14)
(4.66883e-30 -6.62937e-14 -0)
(-1.36949e-30 -3.98244e-14 -3.98244e-14)
(1.96055e-30 3.4537e-14 0)
(-1.11268e-30 2.78649e-14 2.78649e-14)
(-6.50583e-31 -1.32317e-14 0)
(2.88875e-30 3.12685e-14 3.12685e-14)
(1.62955e-31 2.16278e-14 0)
(-1.42302e-30 1.14859e-14 1.14859e-14)
(-4.27507e-31 3.98331e-15 -0)
(-5.11437e-25 -5.10792e-12 -5.10792e-12)
(-1.91126e-25 8.71056e-12 -0)
(-1.09294e-26 -2.01234e-12 -2.01234e-12)
(-5.58486e-28 5.5549e-13 -0)
(7.68917e-33 1.83774e-17 1.83774e-17)
(9.39349e-30 1.19471e-13 0)
(3.9423e-30 1.06997e-13 1.06997e-13)
(-2.81636e-29 1.58048e-13 -0)
(-2.51685e-30 1.33604e-14 1.33604e-14)
(-6.43405e-31 1.57892e-14 -0)
(-5.77581e-31 7.67823e-15 7.67823e-15)
(-6.21407e-30 5.28713e-14 -0)
(3.74307e-30 -6.05332e-14 -6.05332e-14)
(6.44382e-32 -1.18669e-15 -0)
(1.57083e-30 -3.14366e-14 -3.14366e-14)
(1.02258e-31 -9.30894e-15 -0)
(-1.38519e-30 -3.21231e-14 -3.21231e-14)
(2.80009e-31 7.14395e-15 0)
(-1.81821e-31 6.42066e-15 6.42066e-15)
(1.33385e-31 -5.33296e-15 -0)
(-5.70015e-27 1.7912e-12 1.7912e-12)
(-5.81313e-28 -5.86478e-13 0)
(-7.47806e-30 2.66873e-13 2.66873e-13)
(2.02003e-29 9.1897e-14 0)
(7.31167e-30 5.32879e-14 5.32879e-14)
(1.69011e-29 7.3792e-14 0)
(2.17857e-29 1.02549e-13 1.02549e-13)
(2.00725e-30 1.20202e-13 0)
(-2.30089e-29 1.30421e-13 1.30421e-13)
(-5.63994e-30 2.77414e-14 -0)
(-1.69228e-29 9.25836e-14 9.25836e-14)
(7.28722e-31 -1.62159e-14 -0)
(-2.30892e-30 1.11949e-13 1.11949e-13)
(-3.39376e-31 4.23034e-15 -0)
(-6.17167e-32 9.80749e-16 9.80749e-16)
(1.28244e-30 -1.42443e-14 -0)
(-5.82322e-30 -7.32346e-14 -7.32346e-14)
(1.50995e-31 1.50674e-15 0)
(5.68736e-31 8.82483e-15 8.82483e-15)
(9.14253e-32 7.6412e-15 0)
(-2.02427e-25 2.8819e-12 2.8819e-12)
(-9.20612e-26 -5.9777e-12 0)
(-4.63408e-27 1.35645e-12 1.35645e-12)
(-3.82901e-28 -3.74235e-13 0)
(2.92144e-30 5.31551e-14 5.31551e-14)
(-6.11499e-30 -2.77255e-14 0)
(4.17311e-32 6.82273e-16 6.82273e-16)
(8.78683e-31 -1.53298e-14 -0)
(2.65399e-31 -4.69008e-15 -4.69008e-15)
(3.45604e-31 -3.31747e-14 -0)
(-2.48376e-31 -6.04503e-14 -6.04503e-14)
(-4.33321e-31 -8.33565e-15 0)
(-5.01011e-30 -5.72811e-14 -5.72811e-14)
(7.33142e-32 8.86571e-16 0)
(2.85642e-30 3.63414e-14 3.63414e-14)
(-7.51799e-32 7.7753e-15 -0)
(4.72717e-32 5.58394e-14 5.58394e-14)
(-7.0714e-31 2.72377e-14 -0)
(2.18608e-33 -4.55446e-15 -4.55446e-15)
(3.74088e-32 1.91029e-15 0)
(-4.18633e-25 -5.88676e-12 -5.88676e-12)
(-9.55922e-26 6.63146e-12 -0)
(-5.61297e-27 -1.62959e-12 -1.62959e-12)
(-1.24972e-28 2.23756e-13 -0)
(-7.13749e-29 -1.81297e-13 -1.81297e-13)
(-5.3292e-30 -3.13031e-14 0)
(-8.32004e-30 -5.05406e-14 -5.05406e-14)
(-7.22328e-30 -5.40865e-14 0)
(-1.67546e-29 -1.02547e-13 -1.02547e-13)
(-5.16237e-30 -6.89992e-14 0)
(-1.76678e-30 -4.3923e-14 -4.3923e-14)
(1.56479e-30 -5.57785e-14 -0)
(-4.01368e-30 -7.17897e-14 -7.17897e-14)
(-1.39445e-29 -9.43841e-14 0)
(-2.97319e-30 -1.59336e-14 -1.59336e-14)
(2.02101e-30 5.60964e-14 0)
(-2.48767e-31 2.40786e-15 2.40786e-15)
(-1.14921e-30 -9.61775e-14 0)
(-2.22947e-31 -4.92066e-15 -4.92066e-15)
(-1.00654e-30 -1.64587e-14 0)
(-2.57769e-26 1.97844e-12 1.97844e-12)
(-3.72501e-27 -1.51407e-12 0)
(-8.82758e-29 2.69424e-13 2.69424e-13)
(-3.42348e-29 -1.1111e-13 0)
(1.70185e-30 7.0513e-15 7.0513e-15)
(-9.19277e-30 -3.86896e-14 0)
(8.62219e-31 1.00086e-14 1.00086e-14)
(-8.53493e-30 -6.20644e-14 0)
(1.15022e-30 6.98414e-15 6.98414e-15)
(4.62294e-30 6.831e-14 0)
(1.60434e-30 6.77175e-14 6.77175e-14)
(-4.85968e-31 7.21045e-15 -0)
(-2.04356e-30 4.22111e-14 4.22111e-14)
(2.25735e-30 4.29219e-14 0)
(-2.06784e-31 -3.20746e-15 -3.20746e-15)
(2.74857e-30 3.24634e-14 0)
(1.20587e-31 1.10773e-14 1.10773e-14)
(-1.37506e-30 5.26713e-14 -0)
(-1.84749e-31 -7.03155e-15 -7.03155e-15)
(3.11601e-31 7.04835e-15 0)
(-1.46267e-25 3.61929e-12 3.61929e-12)
(-3.25888e-26 -3.93302e-12 0)
(-1.52783e-27 9.40223e-13 9.40223e-13)
(-5.41838e-29 -1.06238e-13 0)
(-3.19084e-30 1.55755e-13 1.55755e-13)
(3.14243e-30 8.56755e-14 0)
(-3.53233e-30 5.51157e-14 5.51157e-14)
(1.11931e-30 4.05218e-14 0)
(5.35861e-30 7.36136e-14 7.36136e-14)
(2.46696e-30 2.3576e-14 0)
(7.33896e-30 6.79007e-14 6.79007e-14)
(-4.25821e-30 1.31967e-13 -0)
(-6.63657e-30 5.20999e-14 5.20999e-14)
(-4.62505e-31 4.14245e-14 -0)
(2.47914e-32 5.22978e-14 5.22978e-14)
(-4.97845e-32 -6.25564e-15 0)
(-1.54092e-31 -2.44472e-15 -2.44472e-15)
(1.9086e-30 5.88973e-14 0)
(2.33972e-32 1.44801e-15 1.44801e-15)
(-9.10645e-31 -5.08017e-14 0)
(-2.80369e-25 -5.75755e-12 -5.75755e-12)
(-4.95736e-26 5.04676e-12 -0)
(-2.20614e-27 -1.09058e-12 -1.09058e-12)
(-1.3332e-28 2.4538e-13 -0)
(-1.89808e-29 -1.70689e-13 -1.70689e-13)
(-2.95035e-30 -3.71745e-14 0)
(-8.49454e-30 -4.00883e-14 -4.00883e-14)
(2.58304e-30 1.23473e-14 0)
(1.74698e-30 1.97573e-14 1.97573e-14)
(3.89167e-31 3.34774e-14 0)
(-7.37787e-31 -2.98711e-14 -2.98711e-14)
(-7.96477e-31 -2.02742e-14 0)
(9.48524e-31 -2.17502e-14 -2.17502e-14)
(1.00427e-30 -7.0409e-14 -0)
(-7.87332e-30 -6.65095e-14 -6.65095e-14)
(-5.41668e-30 -4.98175e-14 0)
(-2.61104e-33 -3.50698e-17 -3.50698e-17)
(-5.9582e-30 -5.46217e-14 0)
(6.87215e-31 8.74667e-15 8.74667e-15)
(1.38826e-30 6.42284e-14 0)
(-2.47442e-25 5.25458e-12 5.25458e-12)
(-4.43735e-26 -4.69427e-12 0)
(-2.12629e-27 9.17919e-13 9.17919e-13)
(-1.99435e-28 -3.66228e-13 0)
(3.13165e-31 -3.33277e-14 -3.33277e-14)
(-4.2785e-30 -6.61381e-14 0)
(-3.58314e-30 -3.26087e-14 -3.26087e-14)
(1.34872e-30 1.1265e-14 0)
(-3.76554e-32 1.3608e-14 1.3608e-14)
(9.58682e-31 -5.86225e-14 -0)
(-3.74888e-30 -9.06485e-14 -9.06485e-14)
(2.55138e-31 3.31435e-15 0)
(-1.15523e-31 -1.40663e-14 -1.40663e-14)
(2.82699e-30 -5.29319e-14 -0)
(4.33022e-31 -9.47752e-14 -9.47752e-14)
(-7.31473e-31 -9.00911e-15 0)
(-4.50493e-30 -5.26756e-14 -5.26756e-14)
(-3.29865e-30 -5.00955e-14 0)
(1.35508e-30 3.05362e-14 3.05362e-14)
(2.39395e-31 7.59121e-15 0)
(-1.21428e-25 -3.16192e-12 -3.16192e-12)
(-2.69338e-26 3.42302e-12 -0)
(-1.68664e-27 -8.41317e-13 -8.41317e-13)
(-5.32861e-29 1.98526e-13 -0)
(9.28442e-31 4.75975e-14 4.75975e-14)
(4.11156e-30 -2.03258e-14 -0)
(5.08536e-30 -1.05316e-13 -1.05316e-13)
(-3.30427e-30 -8.7591e-14 0)
(-2.41344e-30 -1.66772e-13 -1.66772e-13)
(-1.12883e-29 -1.42639e-13 0)
(-7.78283e-30 -9.09142e-14 -9.09142e-14)
(-2.17753e-29 -1.24338e-13 0)
(-1.93594e-29 -7.90873e-14 -7.90873e-14)
(3.21908e-30 2.10602e-14 0)
(4.24631e-31 1.24223e-14 1.24223e-14)
(4.38414e-32 1.53141e-15 0)
(1.00747e-31 5.33935e-15 5.33935e-15)
(1.20543e-32 -4.86739e-16 -0)
(-8.25002e-31 -3.4757e-14 -3.4757e-14)
(3.90699e-31 7.54908e-15 0)
(-5.69124e-28 -4.80699e-13 -4.80699e-13)
(-1.54112e-28 3.48101e-13 -0)
(5.91556e-30 4.15431e-14 4.15431e-14)
(-5.66824e-30 1.25961e-13 -0)
(-9.43232e-31 2.85717e-14 2.85717e-14)
(-1.41675e-30 2.37446e-14 -0)
(1.23613e-32 2.08975e-14 2.08975e-14)
(6.08605e-32 2.52607e-14 0)
(1.06767e-30 5.60906e-14 5.60906e-14)
(-1.49068e-30 9.09193e-14 -0)
(-4.38106e-30 5.68917e-14 5.68917e-14)
(3.507e-31 -8.11596e-15 -0)
(8.16603e-32 1.96649e-14 1.96649e-14)
(1.71463e-30 5.49733e-14 0)
(-2.97364e-31 8.54631e-14 8.54631e-14)
(-3.41221e-31 3.31644e-14 -0)
(-6.0148e-30 9.3875e-14 9.3875e-14)
(-1.11881e-29 8.2334e-14 -0)
(6.79029e-31 -9.1438e-15 -9.1438e-15)
(5.2765e-31 -1.1871e-14 -0)
(-3.00575e-25 5.18303e-12 5.18303e-12)
(-6.90322e-26 -5.5689e-12 0)
(-3.66912e-27 1.28954e-12 1.28954e-12)
(-1.71825e-28 -2.9379e-13 0)
(-2.01435e-29 1.12886e-13 1.12886e-13)
(-7.00424e-32 3.67869e-14 -0)
(3.55639e-32 -8.44995e-15 -8.44995e-15)
(-1.06385e-30 -1.28802e-14 0)
(1.00325e-29 8.05221e-14 8.05221e-14)
(5.42906e-30 5.99725e-14 0)
(8.49025e-30 1.26778e-13 1.26778e-13)
(-9.14695e-30 9.82957e-14 -0)
(-5.37993e-30 5.23157e-14 5.23157e-14)
(7.96585e-32 -1.07485e-15 -0)
(3.10814e-31 -3.3752e-15 -3.3752e-15)
(1.3585e-30 -3.36601e-14 -0)
(9.00202e-32 -3.39227e-15 -3.39227e-15)
(-4.00409e-32 6.22062e-15 -0)
(-1.0208e-30 1.15029e-14 1.15029e-14)
(-7.39018e-31 6.08417e-15 -0)
(-6.96546e-25 -7.45845e-12 -7.45845e-12)
(-1.67477e-25 8.65615e-12 -0)
(-9.74474e-27 -2.09103e-12 -2.09103e-12)
(-3.12146e-28 3.55951e-13 -0)
(-4.35709e-29 -1.51503e-13 -1.51503e-13)
(-5.82283e-30 -6.06607e-14 0)
(3.66752e-31 4.52521e-15 4.52521e-15)
(2.09972e-31 4.13835e-15 0)
(5.46924e-32 1.37893e-15 1.37893e-15)
(-1.8963e-30 -5.13223e-14 0)
(-2.42282e-31 -2.24658e-14 -2.24658e-14)
(-1.5206e-32 1.61011e-15 -0)
(-4.59543e-32 8.64355e-15 8.64355e-15)
(-1.25687e-30 1.31088e-14 -0)
(-6.01118e-31 4.40687e-15 4.40687e-15)
(1.27299e-30 -9.09613e-15 -0)
(1.81461e-30 -3.9931e-14 -3.9931e-14)
(2.75778e-31 -2.35927e-14 -0)
(-5.30368e-31 6.58293e-15 6.58293e-15)
(1.22545e-30 -1.58086e-14 -0)
(-2.55653e-25 4.37912e-12 4.37912e-12)
(-6.53444e-26 -5.26107e-12 0)
(-3.81272e-27 1.36768e-12 1.36768e-12)
(-8.12582e-29 -1.26784e-13 0)
(-2.78781e-29 1.69328e-13 1.69328e-13)
(3.11459e-30 9.78107e-14 0)
(-7.19687e-30 1.2293e-13 1.2293e-13)
(-1.26715e-29 1.11889e-13 -0)
(-4.52749e-30 4.85594e-14 4.85594e-14)
(-5.9646e-30 1.05115e-13 -0)
(3.75433e-31 -6.23778e-15 -6.23778e-15)
(1.15709e-31 2.0536e-14 0)
(1.9519e-31 3.54657e-14 3.54657e-14)
(-3.24737e-30 4.16478e-14 -0)
(-1.51498e-30 1.08271e-14 1.08271e-14)
(-4.28336e-30 2.29987e-14 -0)
(1.01333e-30 -1.02502e-14 -1.02502e-14)
(2.51865e-31 -3.00763e-15 -0)
(-1.29531e-30 1.88316e-14 1.88316e-14)
(3.43408e-32 -3.40842e-14 -0)
(-3.2974e-27 1.57194e-13 1.57194e-13)
(-7.07823e-27 -1.57402e-12 0)
(-3.30637e-28 3.67513e-13 3.67513e-13)
(-7.51826e-30 -2.68809e-14 0)
(-3.34563e-30 3.76971e-14 3.76971e-14)
(-2.50401e-30 2.57395e-14 -0)
(3.81971e-31 -5.08654e-15 -5.08654e-15)
(3.78033e-31 -8.14424e-15 -0)
(-5.92804e-32 -9.33875e-15 -9.33875e-15)
(-1.27952e-31 -2.72411e-15 0)
(1.99285e-30 5.93307e-14 5.93307e-14)
(-1.79574e-31 4.23928e-14 -0)
(-4.94058e-30 4.14171e-14 4.14171e-14)
(-9.93139e-31 6.73972e-15 -0)
(5.66976e-31 -3.03706e-15 -3.03706e-15)
(5.11762e-30 -4.37457e-14 -0)
(2.93936e-31 -1.44946e-14 -1.44946e-14)
(6.5427e-31 2.34e-14 0)
(-4.61327e-31 -2.75061e-14 -2.75061e-14)
(1.55833e-31 4.87425e-15 0)
(-2.38936e-25 -3.11179e-12 -3.11179e-12)
(-1.02905e-25 6.38299e-12 -0)
(-5.7225e-27 -1.53069e-12 -1.53069e-12)
(-1.97897e-28 2.42871e-13 -0)
(-2.99709e-29 -1.32853e-13 -1.32853e-13)
(1.07623e-31 -3.78992e-15 -0)
(4.05233e-31 -5.3629e-14 -5.3629e-14)
(1.93608e-30 -5.65977e-14 -0)
(-1.86193e-30 -1.14089e-13 -1.14089e-13)
(-1.21879e-30 -5.42248e-14 0)
(-4.38667e-31 -2.66385e-14 -2.66385e-14)
(-3.84352e-31 -2.15791e-14 0)
(9.68824e-31 -2.49751e-14 -2.49751e-14)
(1.02963e-31 -2.9513e-14 -0)
(-1.18825e-31 8.0764e-15 8.0764e-15)
(-5.50893e-31 6.53858e-15 -0)
(4.88214e-30 -6.09518e-14 -6.09518e-14)
(1.46769e-30 -8.71754e-14 -0)
(2.80459e-32 -1.3047e-15 -1.3047e-15)
(9.5806e-33 -2.52851e-15 -0)
(-3.58962e-26 1.64584e-12 1.64584e-12)
(-7.7189e-27 -1.9314e-12 0)
(-6.50996e-28 5.70593e-13 5.70593e-13)
(4.22256e-30 -5.08108e-14 -0)
(-3.15916e-30 3.48297e-14 3.48297e-14)
(1.18892e-30 1.074e-14 0)
(3.06874e-30 4.20677e-14 4.20677e-14)
(-1.44645e-30 3.71587e-14 -0)
(-2.30747e-30 8.36365e-14 8.36365e-14)
(-1.98339e-30 3.19179e-14 -0)
(-7.19067e-32 9.49664e-16 9.49664e-16)
(2.93462e-30 -4.09652e-14 -0)
(-2.52761e-30 -4.01954e-14 -4.01954e-14)
(1.68875e-30 2.84941e-14 0)
(4.52781e-31 9.24174e-15 9.24174e-15)
(-2.42652e-30 7.31971e-14 -0)
(-9.45628e-30 6.71245e-14 6.71245e-14)
(-7.90738e-30 4.87224e-14 -0)
(8.76697e-31 -1.01941e-14 -1.01941e-14)
(-7.52587e-31 1.24698e-14 -0)
(-3.7201e-25 4.81259e-12 4.81259e-12)
(-1.16146e-25 -7.0673e-12 0)
(-5.7482e-27 1.46791e-12 1.46791e-12)
(-2.84029e-28 -4.23358e-13 0)
(-1.26443e-32 5.63401e-17 5.63401e-17)
(-1.05599e-29 -8.23505e-14 0)
(-7.84894e-31 -1.37761e-14 -1.37761e-14)
(1.12427e-31 -2.22244e-14 -0)
(-1.99862e-31 -2.44686e-14 -2.44686e-14)
(4.97341e-31 -1.58271e-14 -0)
(1.45977e-30 -1.39542e-14 -1.39542e-14)
(4.99564e-32 -3.06609e-16 -0)
(6.47797e-31 -6.37938e-15 -6.37938e-15)
(2.92892e-30 -2.95439e-14 -0)
(6.17662e-31 -8.00522e-15 -8.00522e-15)
(1.11539e-30 -5.84404e-14 -0)
(-2.39257e-31 6.86453e-15 6.86453e-15)
(-1.43924e-31 1.64051e-15 -0)
(1.67645e-31 -3.27054e-15 -3.27054e-15)
(2.07632e-30 -3.77335e-14 -0)
)
;

boundaryField
{
    movingWall
    {
        type            calculated;
        value           nonuniform List<vector> 
20
(
(0 7.86288e-12 -0)
(0 -8.09331e-12 -0)
(0 1.08783e-12 -0)
(0 -6.8001e-13 -0)
(0 -1.67778e-13 -0)
(0 -2.05776e-13 -0)
(0 -2.53125e-13 -0)
(0 -1.72755e-13 -0)
(0 -2.63817e-13 -0)
(0 -2.10767e-13 -0)
(0 -1.64485e-13 -0)
(0 -1.77942e-13 -0)
(0 -1.84015e-13 -0)
(0 -1.35666e-13 -0)
(0 -9.68231e-14 -0)
(0 -1.37457e-13 -0)
(0 -8.19533e-14 -0)
(0 1.64051e-15 -0)
(0 -3.27054e-15 -0)
(0 -5.50374e-14 -0)
)
;
    }
    fixedWalls
    {
        type            calculated;
        value           nonuniform List<vector> 
60
(
(0 -5.14136e-11 -0)
(0 -1.17585e-11 -0)
(0 5.46565e-11 -0)
(0 -3.734e-11 -0)
(0 2.84501e-12 -0)
(0 2.54942e-11 -0)
(0 -2.86625e-11 -0)
(0 6.13314e-12 -0)
(0 1.65718e-11 -0)
(0 -2.13486e-11 -0)
(0 2.03271e-11 -0)
(0 -1.54698e-11 -0)
(0 -8.80157e-13 -0)
(0 2.38203e-11 -0)
(0 -3.74103e-11 -0)
(0 2.31351e-11 -0)
(0 6.89988e-12 -0)
(0 -2.77592e-11 -0)
(0 8.58856e-12 -0)
(0 2.96458e-11 -0)
(0 2.20937e-14 -0)
(0 -4.27992e-15 -0)
(0 -1.58248e-14 -0)
(0 -1.00046e-14 -0)
(0 4.78591e-15 -0)
(0 7.83314e-15 -0)
(0 -2.64289e-15 -0)
(0 1.76837e-14 -0)
(0 -4.70399e-14 -0)
(0 6.28559e-14 -0)
(0 1.26143e-14 -0)
(0 2.07018e-14 -0)
(0 -1.77795e-14 -0)
(0 -2.14813e-14 -0)
(0 -3.10074e-14 -0)
(0 -2.75081e-14 -0)
(0 1.27883e-14 -0)
(0 -1.51561e-15 -0)
(0 2.96385e-15 -0)
(0 -4.91154e-14 -0)
(0 -1.45249e-11 -0)
(0 1.43595e-11 -0)
(0 -2.16366e-12 -0)
(0 9.42162e-13 -0)
(0 1.5513e-13 -0)
(0 2.634e-13 -0)
(0 1.71106e-13 -0)
(0 1.72505e-13 -0)
(0 1.27233e-13 -0)
(0 7.92238e-14 -0)
(0 1.29515e-13 -0)
(0 9.23684e-14 -0)
(0 1.37141e-13 -0)
(0 5.34463e-14 -0)
(0 4.55717e-14 -0)
(0 1.36937e-13 -0)
(0 9.3965e-14 -0)
(0 -7.88415e-15 -0)
(0 1.27007e-13 -0)
(0 9.95725e-15 -0)
)
;
    }
    frontAndBack
    {
        type            empty;
    }
}


// ************************************************************************* //
