/*--------------------------------*- C++ -*----------------------------------*\
| =========                 |                                                 |
| \\      /  F ield         | OpenFOAM: The Open Source CFD Toolbox           |
|  \\    /   O peration     | Version:  2312                                  |
|   \\  /    A nd           | Website:  www.openfoam.com                      |
|    \\/     M anipulation  |                                                 |
\*---------------------------------------------------------------------------*/
FoamFile
{
    version     2.0;
    format      ascii;
    arch        "LSB;label=32;scalar=64";
    class       volVectorField;
    location    "5.875";
    object      UzeroGrad;
}
// * * * * * * * * * * * * * * * * * * * * * * * * * * * * * * * * * * * * * //

dimensions      [0 1 -1 0 0 0 0];

internalField   nonuniform List<vector> 
400
(
(-1 1.31651e-13 0)
(-1 -2.72578e-14 0)
(-1 6.70779e-15 0)
(-1 -1.18032e-15 0)
(-1 3.94791e-16 0)
(-1 -6.70777e-17 0)
(-1 -1.87603e-17 0)
(-1 -1.77876e-18 0)
(-1 3.25434e-17 0)
(-1 5.81628e-17 0)
(-1 1.28483e-16 0)
(-1 9.52775e-17 0)
(-1 9.29779e-17 0)
(-1 5.61316e-17 0)
(-1 2.60379e-18 0)
(-1 4.45042e-17 0)
(-1 -3.45031e-17 0)
(-1 -6.96734e-18 0)
(-1 4.43383e-17 0)
(-1 5.52342e-17 0)
(-1 3.01415e-14 0)
(-1 -5.97316e-15 0)
(-1 1.63935e-15 0)
(-1 -2.26502e-16 0)
(-1 1.71387e-16 0)
(-1 1.13112e-16 0)
(-1 1.22383e-16 0)
(-1 1.45491e-16 0)
(-1 1.50062e-16 0)
(-1 1.64972e-17 0)
(-1 -3.97221e-17 0)
(-1 2.12683e-17 0)
(-1 4.59609e-17 0)
(-1 -1.64518e-18 0)
(-1 -1.15799e-16 0)
(-1 -4.11646e-17 0)
(-1 4.64958e-18 0)
(-1 5.27433e-17 0)
(-1 -2.09393e-18 0)
(-1 -1.06998e-17 0)
(-1 -1.46264e-13 0)
(-1 3.15443e-14 0)
(-1 -7.39291e-15 0)
(-1 1.55259e-15 0)
(-1 -2.98286e-16 0)
(-1 1.72335e-16 0)
(-1 -2.65513e-17 0)
(-1 -4.11312e-17 0)
(-1 9.86081e-17 0)
(-1 1.24231e-16 0)
(-1 -8.64482e-17 0)
(-1 -7.04264e-17 0)
(-1 3.43882e-17 0)
(-1 5.67667e-17 0)
(-1 -3.99312e-17 0)
(-1 4.91687e-17 0)
(-1 9.23853e-17 0)
(-1 7.53449e-18 0)
(-1 -1.23893e-16 0)
(-1 -1.07325e-16 0)
(-1 1.00126e-13 0)
(-1 -2.19419e-14 0)
(-1 5.43121e-15 0)
(-1 -1.00539e-15 0)
(-1 4.18404e-16 0)
(-1 7.86256e-17 0)
(-1 3.68448e-17 0)
(-1 -1.78196e-16 0)
(-1 -1.88382e-16 0)
(-1 -4.07497e-17 0)
(-1 -7.52231e-17 0)
(-1 -1.17532e-16 0)
(-1 -6.1835e-17 0)
(-1 -5.43006e-17 0)
(-1 -4.99681e-17 0)
(-1 -1.0985e-17 0)
(-1 4.31213e-17 0)
(-1 3.91952e-17 0)
(-1 -2.83182e-17 0)
(-1 -2.50114e-17 0)
(-1 -3.1823e-15 0)
(-1 9.91192e-16 0)
(-1 -2.8021e-17 0)
(-1 2.19814e-16 0)
(-1 1.37211e-16 0)
(-1 2.29036e-16 0)
(-1 2.12442e-16 0)
(-1 1.66991e-17 0)
(-1 -1.76421e-16 0)
(-1 -2.03304e-16 0)
(-1 -1.82784e-16 0)
(-1 -4.49386e-17 0)
(-1 -2.06248e-17 0)
(-1 -8.02243e-17 0)
(-1 -6.29282e-17 0)
(-1 -9.00317e-17 0)
(-1 7.95146e-17 0)
(-1 1.00213e-16 0)
(-1 6.44472e-17 0)
(-1 1.19648e-17 0)
(-1 -7.02407e-14 0)
(-1 1.54008e-14 0)
(-1 -3.41633e-15 0)
(-1 1.02316e-15 0)
(-1 5.49606e-17 0)
(-1 2.20555e-16 0)
(-1 6.11648e-17 0)
(-1 -5.73185e-17 0)
(-1 -5.65874e-17 0)
(-1 -1.04177e-17 0)
(-1 4.10876e-18 0)
(-1 5.19841e-17 0)
(-1 8.74653e-17 0)
(-1 8.26941e-17 0)
(-1 7.85996e-17 0)
(-1 -9.66907e-18 0)
(-1 8.46566e-19 0)
(-1 -2.59618e-17 0)
(-1 -4.79986e-19 0)
(-1 1.95828e-17 0)
(-1 7.11142e-14 0)
(-1 -1.4415e-14 0)
(-1 3.4444e-15 0)
(-1 -5.58519e-16 0)
(-1 3.93691e-16 0)
(-1 1.70245e-16 0)
(-1 1.64621e-16 0)
(-1 1.33551e-16 0)
(-1 1.63384e-16 0)
(-1 7.48178e-17 0)
(-1 4.02245e-17 0)
(-1 -2.80537e-17 0)
(-1 5.59088e-17 0)
(-1 1.47742e-16 0)
(-1 1.86599e-16 0)
(-1 3.60274e-17 0)
(-1 -1.03315e-16 0)
(-1 1.19488e-17 0)
(-1 4.53084e-17 0)
(-1 6.11554e-17 0)
(-1 -1.30289e-14 0)
(-1 2.46025e-15 0)
(-1 -3.27647e-16 0)
(-1 3.08116e-16 0)
(-1 2.41353e-16 0)
(-1 2.37603e-16 0)
(-1 8.61477e-17 0)
(-1 1.37517e-16 0)
(-1 1.64691e-16 0)
(-1 6.76759e-17 0)
(-1 2.36917e-17 0)
(-1 -6.73978e-17 0)
(-1 -4.84128e-17 0)
(-1 5.2592e-17 0)
(-1 6.44697e-17 0)
(-1 8.46666e-17 0)
(-1 1.08859e-17 0)
(-1 -2.61064e-17 0)
(-1 2.62743e-17 0)
(-1 4.42091e-17 0)
(-1 -4.04131e-14 0)
(-1 8.28595e-15 0)
(-1 -1.62496e-15 0)
(-1 5.10024e-16 0)
(-1 -2.04863e-17 0)
(-1 3.66783e-17 0)
(-1 -6.40895e-17 0)
(-1 2.76224e-17 0)
(-1 7.27937e-17 0)
(-1 1.04638e-16 0)
(-1 1.08084e-16 0)
(-1 -3.22673e-17 0)
(-1 -1.27382e-16 0)
(-1 -1.1165e-17 0)
(-1 4.74043e-19 0)
(-1 7.95833e-18 0)
(-1 6.30305e-17 0)
(-1 3.24055e-17 0)
(-1 1.61582e-17 0)
(-1 1.79255e-17 0)
(-1 4.86958e-14 0)
(-1 -9.82284e-15 0)
(-1 2.0229e-15 0)
(-1 -5.43319e-16 0)
(-1 1.11201e-16 0)
(-1 7.93651e-17 0)
(-1 2.11896e-16 0)
(-1 2.09198e-16 0)
(-1 8.84222e-17 0)
(-1 1.16248e-17 0)
(-1 2.4699e-17 0)
(-1 3.92853e-17 0)
(-1 -4.36099e-17 0)
(-1 -1.42633e-17 0)
(-1 1.18379e-16 0)
(-1 1.08731e-16 0)
(-1 7.44527e-17 0)
(-1 1.09081e-16 0)
(-1 7.85688e-17 0)
(-1 2.16145e-17 0)
(-1 -4.70907e-14 0)
(-1 9.4527e-15 0)
(-1 -2.31643e-15 0)
(-1 5.44565e-16 0)
(-1 -9.39654e-18 0)
(-1 6.46904e-17 0)
(-1 1.09883e-16 0)
(-1 1.19727e-16 0)
(-1 -2.76715e-18 0)
(-1 -1.63535e-17 0)
(-1 4.13563e-17 0)
(-1 7.69797e-17 0)
(-1 8.21275e-18 0)
(-1 -5.3408e-17 0)
(-1 -4.56893e-18 0)
(-1 8.11926e-17 0)
(-1 8.55222e-17 0)
(-1 6.58472e-17 0)
(-1 4.43763e-17 0)
(-1 3.15358e-17 0)
(-1 3.84034e-14 0)
(-1 -7.86842e-15 0)
(-1 2.00477e-15 0)
(-1 -2.68409e-16 0)
(-1 1.95061e-17 0)
(-1 -2.02283e-16 0)
(-1 -4.82867e-17 0)
(-1 3.77239e-17 0)
(-1 1.44715e-17 0)
(-1 7.91393e-17 0)
(-1 8.56063e-17 0)
(-1 1.7513e-16 0)
(-1 2.44785e-16 0)
(-1 1.52851e-16 0)
(-1 3.41829e-17 0)
(-1 2.86282e-17 0)
(-1 1.88689e-17 0)
(-1 -2.47654e-17 0)
(-1 2.37362e-17 0)
(-1 5.17545e-17 0)
(-1 1.18395e-15 0)
(-1 -4.42721e-16 0)
(-1 1.42396e-16 0)
(-1 -4.5e-17 0)
(-1 -3.30128e-17 0)
(-1 -5.96662e-17 0)
(-1 5.91521e-19 0)
(-1 2.40929e-18 0)
(-1 1.90347e-17 0)
(-1 -1.63956e-17 0)
(-1 -7.7007e-17 0)
(-1 -4.32111e-17 0)
(-1 4.15259e-18 0)
(-1 3.11903e-17 0)
(-1 -3.47944e-18 0)
(-1 -1.02888e-17 0)
(-1 -6.40725e-17 0)
(-1 -1.35887e-16 0)
(-1 -7.42612e-17 0)
(-1 -4.44487e-17 0)
(-1 -5.79922e-14 0)
(-1 1.2396e-14 0)
(-1 -2.8453e-15 0)
(-1 5.84855e-16 0)
(-1 -1.78441e-16 0)
(-1 -1.904e-18 0)
(-1 -4.20877e-18 0)
(-1 8.25955e-17 0)
(-1 1.24594e-16 0)
(-1 9.05257e-17 0)
(-1 6.69692e-17 0)
(-1 -9.30554e-17 0)
(-1 -1.02836e-16 0)
(-1 -7.41115e-17 0)
(-1 -9.20874e-17 0)
(-1 -4.03595e-17 0)
(-1 -2.65369e-17 0)
(-1 -6.4368e-18 0)
(-1 -8.87431e-17 0)
(-1 -1.21466e-16 0)
(-1 9.33902e-14 0)
(-1 -1.93478e-14 0)
(-1 4.66026e-15 0)
(-1 -8.76935e-16 0)
(-1 2.87592e-16 0)
(-1 9.59902e-17 0)
(-1 8.10465e-17 0)
(-1 5.07381e-17 0)
(-1 3.9663e-17 0)
(-1 3.69488e-17 0)
(-1 1.07845e-17 0)
(-1 -9.44408e-18 0)
(-1 -5.3166e-18 0)
(-1 -9.58796e-17 0)
(-1 -1.36405e-16 0)
(-1 -1.39948e-16 0)
(-1 -4.54436e-17 0)
(-1 -1.16891e-17 0)
(-1 -8.05672e-17 0)
(-1 -7.75184e-17 0)
(-1 -5.838e-14 0)
(-1 1.24204e-14 0)
(-1 -2.78773e-15 0)
(-1 6.40921e-16 0)
(-1 -1.6464e-16 0)
(-1 3.18431e-17 0)
(-1 -5.85447e-17 0)
(-1 -1.1325e-16 0)
(-1 -9.3236e-17 0)
(-1 -5.67434e-17 0)
(-1 -6.0187e-17 0)
(-1 5.63444e-18 0)
(-1 5.50363e-18 0)
(-1 -7.79722e-17 0)
(-1 -1.39924e-16 0)
(-1 -1.86244e-16 0)
(-1 -9.88602e-17 0)
(-1 -8.37419e-17 0)
(-1 -6.87839e-17 0)
(-1 -1.00753e-18 0)
(-1 -2.09766e-14 0)
(-1 4.49692e-15 0)
(-1 -8.9966e-16 0)
(-1 2.79688e-16 0)
(-1 -8.87503e-17 0)
(-1 -9.72827e-17 0)
(-1 -7.50946e-17 0)
(-1 -4.64173e-17 0)
(-1 6.34779e-18 0)
(-1 4.69702e-17 0)
(-1 3.35888e-17 0)
(-1 -4.23596e-18 0)
(-1 -1.19289e-16 0)
(-1 -1.47356e-16 0)
(-1 -1.86686e-16 0)
(-1 -1.16986e-16 0)
(-1 -2.0279e-17 0)
(-1 2.79603e-17 0)
(-1 1.67718e-17 0)
(-1 3.19707e-17 0)
(-1 7.67841e-14 0)
(-1 -1.61217e-14 0)
(-1 3.73851e-15 0)
(-1 -8.14822e-16 0)
(-1 2.25595e-16 0)
(-1 -2.83971e-17 0)
(-1 -7.55622e-18 0)
(-1 -3.42078e-17 0)
(-1 1.63201e-17 0)
(-1 2.24765e-17 0)
(-1 1.64674e-17 0)
(-1 1.78113e-17 0)
(-1 -3.87917e-17 0)
(-1 -3.48873e-18 0)
(-1 -1.47126e-17 0)
(-1 -8.42528e-17 0)
(-1 -8.00983e-17 0)
(-1 -1.6836e-17 0)
(-1 -2.1496e-17 0)
(-1 -3.78903e-18 0)
(-1 -2.18102e-14 0)
(-1 3.99652e-15 0)
(-1 -1.14091e-15 0)
(-1 -8.31036e-17 0)
(-1 -9.07031e-17 0)
(-1 1.107e-16 0)
(-1 7.29477e-17 0)
(-1 -3.89263e-17 0)
(-1 -2.75892e-17 0)
(-1 -6.21402e-17 0)
(-1 -7.57181e-17 0)
(-1 -7.16368e-17 0)
(-1 6.28831e-17 0)
(-1 5.92669e-17 0)
(-1 4.89931e-17 0)
(-1 -3.31505e-17 0)
(-1 -1.40877e-16 0)
(-1 -1.62294e-16 0)
(-1 -8.6e-17 0)
(-1 -6.0353e-17 0)
(-1 -7.72994e-14 0)
(-1 1.64342e-14 0)
(-1 -3.9159e-15 0)
(-1 6.70895e-16 0)
(-1 -2.24428e-16 0)
(-1 1.28231e-16 0)
(-1 5.6975e-17 0)
(-1 -5.05872e-18 0)
(-1 8.16811e-18 0)
(-1 -3.14234e-17 0)
(-1 -1.04612e-16 0)
(-1 -1.62932e-16 0)
(-1 -1.01545e-16 0)
(-1 -9.91381e-17 0)
(-1 -7.71574e-17 0)
(-1 -1.90859e-17 0)
(-1 -3.4854e-17 0)
(-1 -8.77312e-17 0)
(-1 -5.12591e-17 0)
(-1 -5.50258e-17 0)
)
;

boundaryField
{
    movingWall
    {
        type            zeroGradient;
    }
    fixedWalls
    {
        type            zeroGradient;
    }
    frontAndBack
    {
        type            empty;
    }
}


// ************************************************************************* //
