/*--------------------------------*- C++ -*----------------------------------*\
| =========                 |                                                 |
| \\      /  F ield         | OpenFOAM: The Open Source CFD Toolbox           |
|  \\    /   O peration     | Version:  2312                                  |
|   \\  /    A nd           | Website:  www.openfoam.com                      |
|    \\/     M anipulation  |                                                 |
\*---------------------------------------------------------------------------*/
FoamFile
{
    version     2.0;
    format      ascii;
    arch        "LSB;label=32;scalar=64";
    class       volScalarField;
    location    "5.875";
    object      zeroGradient(p);
}
// * * * * * * * * * * * * * * * * * * * * * * * * * * * * * * * * * * * * * //

dimensions      [0 2 -2 0 0 0 0];

internalField   nonuniform List<scalar> 
400
(
0
2.81191e-15
8.52009e-16
1.25034e-15
1.41248e-15
1.67756e-15
1.74073e-15
1.59541e-15
1.63419e-15
1.55959e-15
1.42431e-15
1.40739e-15
1.4974e-15
1.72484e-15
1.70237e-15
1.8422e-15
1.91589e-15
2.00859e-15
2.03617e-15
2.0817e-15
1.71553e-15
0
9.40808e-16
7.07292e-16
1.33825e-15
1.67537e-15
1.70734e-15
1.5842e-15
1.55971e-15
1.60395e-15
1.41959e-15
1.59739e-15
1.61489e-15
1.77178e-15
1.77256e-15
1.65496e-15
1.87838e-15
2.06272e-15
2.00127e-15
1.85457e-15
7.83244e-16
1.56324e-15
9.77425e-16
1.15514e-15
1.4174e-15
1.66637e-15
1.66926e-15
1.5762e-15
1.37395e-15
1.57622e-15
1.62399e-15
1.7268e-15
1.75838e-15
1.7391e-15
1.83969e-15
1.90259e-15
1.93744e-15
1.77406e-15
1.82008e-15
2.02589e-15
2.239e-16
2.35219e-15
1.02331e-15
1.44173e-15
1.4805e-15
1.60886e-15
1.72155e-15
1.68546e-15
1.48423e-15
1.5258e-15
1.90466e-15
2.01655e-15
1.69504e-15
1.63087e-15
1.92269e-15
1.67853e-15
1.80755e-15
1.72652e-15
1.77516e-15
2.13054e-15
9.42645e-16
0
9.95824e-16
1.2182e-15
1.52356e-15
1.64599e-15
1.5992e-15
1.61963e-15
1.79464e-15
1.8521e-15
2.1121e-15
2.07948e-15
1.89874e-15
1.88451e-15
1.98212e-15
1.83896e-15
1.79591e-15
1.51441e-15
1.66579e-15
2.0456e-15
4.7926e-16
2.39419e-15
1.08675e-15
1.47338e-15
1.73349e-15
1.77631e-15
1.65044e-15
1.63477e-15
1.72822e-15
1.83229e-15
2.231e-15
2.04053e-15
1.8382e-15
1.85926e-15
2.00655e-15
1.90346e-15
1.54267e-15
1.50177e-15
1.65271e-15
2.06807e-15
1.18035e-15
1.7118e-15
1.26545e-15
1.43131e-15
1.61737e-15
1.65252e-15
1.63681e-15
1.74147e-15
1.83131e-15
1.82682e-15
2.0263e-15
2.09277e-15
2.02699e-15
1.94684e-15
1.94465e-15
1.95073e-15
1.71925e-15
1.5484e-15
1.6921e-15
1.96095e-15
2.16721e-15
0
1.39842e-15
1.50886e-15
1.74703e-15
1.81383e-15
1.84543e-15
1.95884e-15
1.78378e-15
1.82961e-15
1.97185e-15
2.18369e-15
1.9141e-15
1.8623e-15
1.71565e-15
1.82271e-15
1.82051e-15
1.55314e-15
1.78839e-15
1.85021e-15
1.51561e-15
2.98953e-15
1.44166e-15
1.73602e-15
1.80356e-15
1.75961e-15
1.96285e-15
2.00348e-15
1.87574e-15
1.91006e-15
1.94764e-15
2.14306e-15
2.0087e-15
1.81734e-15
1.66996e-15
1.71568e-15
1.72844e-15
1.69684e-15
1.8067e-15
1.80133e-15
1.67479e-15
1.71963e-15
1.59654e-15
1.91337e-15
1.9314e-15
1.84732e-15
2.11239e-15
2.1749e-15
2.03669e-15
1.92723e-15
2.00313e-15
2.09155e-15
2.01455e-15
1.65952e-15
1.47639e-15
1.74571e-15
1.80308e-15
1.56402e-15
1.75066e-15
1.74706e-15
1.93731e-15
5.76972e-16
1.91324e-15
1.90749e-15
1.9312e-15
1.86281e-15
2.14081e-15
2.17039e-15
2.07319e-15
2.06681e-15
2.03111e-15
1.95241e-15
1.96186e-15
1.80106e-15
1.42498e-15
1.53997e-15
1.73666e-15
1.68676e-15
1.68552e-15
1.68921e-15
2.12592e-15
3.97738e-15
1.92595e-15
2.01402e-15
1.81085e-15
2.08092e-15
2.23195e-15
2.12377e-15
2.0812e-15
1.99682e-15
1.92856e-15
1.99118e-15
1.95279e-15
1.78197e-15
1.47422e-15
1.52325e-15
1.67414e-15
1.50151e-15
1.64018e-15
1.63505e-15
2.56749e-15
0
2.10081e-15
1.79735e-15
2.07622e-15
2.27055e-15
2.37846e-15
2.15599e-15
2.19383e-15
1.9975e-15
1.91754e-15
1.8876e-15
1.69396e-15
1.81759e-15
1.63501e-15
1.43505e-15
1.51293e-15
1.61684e-15
1.56439e-15
1.57575e-15
1.7672e-15
4.52994e-15
1.86509e-15
2.1439e-15
2.04513e-15
2.27059e-15
2.30361e-15
2.23607e-15
2.17638e-15
2.0062e-15
1.89663e-15
1.84981e-15
1.78e-15
1.71604e-15
1.68473e-15
1.54167e-15
1.44517e-15
1.47465e-15
1.57169e-15
1.80037e-15
2.17947e-15
1.23149e-15
2.08343e-15
1.92517e-15
2.03307e-15
2.16198e-15
2.35917e-15
2.181e-15
2.18407e-15
2.14118e-15
1.98454e-15
2.09573e-15
1.75009e-15
1.65033e-15
1.58048e-15
1.41771e-15
1.50695e-15
1.45477e-15
1.54075e-15
1.9812e-15
2.48198e-15
8.25807e-16
1.96791e-15
1.93091e-15
2.14241e-15
2.0193e-15
2.19953e-15
2.07215e-15
2.18652e-15
2.16706e-15
2.09915e-15
2.04626e-15
1.8057e-15
1.61599e-15
1.49015e-15
1.52311e-15
1.5004e-15
1.45664e-15
1.63894e-15
2.05753e-15
1.42545e-15
3.68784e-15
1.9414e-15
2.01483e-15
2.07987e-15
1.97053e-15
2.00917e-15
2.05986e-15
2.24664e-15
2.23427e-15
2.17017e-15
2.06651e-15
1.65822e-15
1.60111e-15
1.55899e-15
1.53968e-15
1.45022e-15
1.351e-15
1.72467e-15
2.00747e-15
2.23163e-15
1.83252e-15
1.84674e-15
1.79565e-15
1.87907e-15
1.92111e-15
1.92329e-15
2.0907e-15
2.22624e-15
2.09298e-15
1.99304e-15
1.86049e-15
1.88534e-15
1.68102e-15
1.68836e-15
1.72718e-15
1.59887e-15
1.43027e-15
1.67079e-15
1.96776e-15
2.65258e-15
5.48665e-16
1.90508e-15
1.67164e-15
1.78178e-15
1.9347e-15
1.86308e-15
2.0053e-15
2.10761e-15
2.0974e-15
2.0301e-15
1.87671e-15
1.79993e-15
1.62617e-15
1.58673e-15
1.8567e-15
1.71076e-15
1.53958e-15
1.75995e-15
1.95257e-15
1.36475e-15
3.4845e-15
1.68158e-15
2.10817e-15
1.8812e-15
1.75369e-15
1.71766e-15
1.80872e-15
1.97568e-15
2.01067e-15
1.95889e-15
1.83589e-15
1.67205e-15
1.65285e-15
1.66034e-15
1.74147e-15
1.70732e-15
1.66974e-15
1.76238e-15
2.13015e-15
)
;

boundaryField
{
    movingWall
    {
        type            zeroGradient;
    }
    fixedWalls
    {
        type            zeroGradient;
    }
    frontAndBack
    {
        type            empty;
    }
}


// ************************************************************************* //
