/*--------------------------------*- C++ -*----------------------------------*\
| =========                 |                                                 |
| \\      /  F ield         | OpenFOAM: The Open Source CFD Toolbox           |
|  \\    /   O peration     | Version:  2312                                  |
|   \\  /    A nd           | Website:  www.openfoam.com                      |
|    \\/     M anipulation  |                                                 |
\*---------------------------------------------------------------------------*/
FoamFile
{
    version     2.0;
    format      ascii;
    arch        "LSB;label=32;scalar=64";
    class       volScalarField;
    location    "5.875";
    object      zeroGradient(epsilon);
}
// * * * * * * * * * * * * * * * * * * * * * * * * * * * * * * * * * * * * * //

dimensions      [0 2 -3 0 0 0 0];

internalField   nonuniform List<scalar> 
400
(
4.49372e-06
4.49371e-06
4.4937e-06
4.49369e-06
4.49369e-06
4.49368e-06
4.49368e-06
4.49368e-06
4.49367e-06
4.49367e-06
4.49366e-06
4.49367e-06
4.49366e-06
4.49366e-06
4.49366e-06
4.49366e-06
4.49366e-06
4.49366e-06
4.49366e-06
4.49366e-06
4.86588e-06
4.77589e-06
4.7833e-06
4.78637e-06
4.79256e-06
4.7957e-06
4.80194e-06
4.80516e-06
4.81145e-06
4.81475e-06
4.82108e-06
4.82448e-06
4.83082e-06
4.83435e-06
4.8407e-06
4.84436e-06
4.85071e-06
4.8545e-06
4.85769e-06
4.86279e-06
5.40556e-06
5.30047e-06
5.30924e-06
5.31287e-06
5.32018e-06
5.32386e-06
5.33122e-06
5.33496e-06
5.34237e-06
5.34618e-06
5.35362e-06
5.35752e-06
5.36496e-06
5.36898e-06
5.37641e-06
5.38056e-06
5.38796e-06
5.39225e-06
5.39595e-06
5.40182e-06
5.90901e-06
5.79044e-06
5.80031e-06
5.80441e-06
5.81263e-06
5.81678e-06
5.82507e-06
5.82928e-06
5.83763e-06
5.84192e-06
5.8503e-06
5.8547e-06
5.86309e-06
5.86762e-06
5.87599e-06
5.88067e-06
5.88902e-06
5.89386e-06
5.89803e-06
5.90465e-06
6.28156e-06
6.15264e-06
6.16335e-06
6.1678e-06
6.17673e-06
6.18123e-06
6.19024e-06
6.19481e-06
6.20388e-06
6.20854e-06
6.21765e-06
6.22243e-06
6.23154e-06
6.23647e-06
6.24557e-06
6.25066e-06
6.25974e-06
6.26501e-06
6.26954e-06
6.27673e-06
6.52255e-06
6.38678e-06
6.39805e-06
6.40273e-06
6.41212e-06
6.41686e-06
6.42634e-06
6.43115e-06
6.4407e-06
6.4456e-06
6.45519e-06
6.46022e-06
6.46981e-06
6.475e-06
6.48458e-06
6.48994e-06
6.49949e-06
6.50505e-06
6.50982e-06
6.51739e-06
6.66832e-06
6.52836e-06
6.53997e-06
6.54479e-06
6.55447e-06
6.55935e-06
6.56912e-06
6.57408e-06
6.58391e-06
6.58897e-06
6.59884e-06
6.60403e-06
6.61391e-06
6.61926e-06
6.62913e-06
6.63466e-06
6.6445e-06
6.65023e-06
6.65515e-06
6.66295e-06
6.75621e-06
6.61373e-06
6.62555e-06
6.63045e-06
6.6403e-06
6.64527e-06
6.65521e-06
6.66026e-06
6.67026e-06
6.67541e-06
6.68546e-06
6.69074e-06
6.7008e-06
6.70625e-06
6.71629e-06
6.72193e-06
6.73194e-06
6.73778e-06
6.74278e-06
6.75073e-06
6.81289e-06
6.66878e-06
6.68073e-06
6.68569e-06
6.69565e-06
6.70067e-06
6.71072e-06
6.71583e-06
6.72595e-06
6.73115e-06
6.74132e-06
6.74666e-06
6.75683e-06
6.76234e-06
6.7725e-06
6.7782e-06
6.78833e-06
6.79423e-06
6.79929e-06
6.80733e-06
6.85449e-06
6.70919e-06
6.72123e-06
6.72623e-06
6.73627e-06
6.74133e-06
6.75147e-06
6.75661e-06
6.76681e-06
6.77206e-06
6.78231e-06
6.78769e-06
6.79795e-06
6.80351e-06
6.81375e-06
6.81949e-06
6.8297e-06
6.83565e-06
6.84075e-06
6.84886e-06
6.89001e-06
6.7437e-06
6.75583e-06
6.76086e-06
6.77097e-06
6.77607e-06
6.78627e-06
6.79145e-06
6.80172e-06
6.80701e-06
6.81732e-06
6.82275e-06
6.83307e-06
6.83867e-06
6.84898e-06
6.85477e-06
6.86505e-06
6.87104e-06
6.87618e-06
6.88434e-06
6.92444e-06
6.77714e-06
6.78934e-06
6.79441e-06
6.80459e-06
6.80972e-06
6.81999e-06
6.8252e-06
6.83554e-06
6.84086e-06
6.85124e-06
6.85671e-06
6.8671e-06
6.87273e-06
6.88311e-06
6.88894e-06
6.89929e-06
6.90532e-06
6.91049e-06
6.91871e-06
6.9606e-06
6.81227e-06
6.82456e-06
6.82966e-06
6.83991e-06
6.84508e-06
6.85542e-06
6.86067e-06
6.87108e-06
6.87644e-06
6.88689e-06
6.89239e-06
6.90286e-06
6.90853e-06
6.91898e-06
6.92485e-06
6.93527e-06
6.94134e-06
6.94655e-06
6.95483e-06
7.00037e-06
6.85091e-06
6.86329e-06
6.86843e-06
6.87875e-06
6.88396e-06
6.89438e-06
6.89967e-06
6.91016e-06
6.91556e-06
6.92609e-06
6.93163e-06
6.94217e-06
6.94789e-06
6.95842e-06
6.96433e-06
6.97483e-06
6.98095e-06
6.9862e-06
6.99454e-06
7.045e-06
6.89427e-06
6.90676e-06
6.91194e-06
6.92235e-06
6.9276e-06
6.9381e-06
6.94344e-06
6.95401e-06
6.95946e-06
6.97008e-06
6.97567e-06
6.9863e-06
6.99207e-06
7.00268e-06
7.00865e-06
7.01924e-06
7.02541e-06
7.0307e-06
7.03911e-06
7.09496e-06
6.9428e-06
6.9554e-06
6.96063e-06
6.97113e-06
6.97643e-06
6.98703e-06
6.99242e-06
7.00309e-06
7.00859e-06
7.01931e-06
7.02495e-06
7.03568e-06
7.0415e-06
7.05222e-06
7.05824e-06
7.06893e-06
7.07516e-06
7.0805e-06
7.08899e-06
7.14888e-06
6.9952e-06
7.00792e-06
7.0132e-06
7.02382e-06
7.02917e-06
7.03987e-06
7.04531e-06
7.05609e-06
7.06165e-06
7.07247e-06
7.07817e-06
7.08901e-06
7.09489e-06
7.10571e-06
7.1118e-06
7.12259e-06
7.12889e-06
7.13428e-06
7.14286e-06
7.20231e-06
7.04714e-06
7.05997e-06
7.0653e-06
7.07601e-06
7.08141e-06
7.09221e-06
7.09771e-06
7.10859e-06
7.1142e-06
7.12512e-06
7.13088e-06
7.14182e-06
7.14776e-06
7.15868e-06
7.16484e-06
7.17573e-06
7.18209e-06
7.18754e-06
7.1962e-06
7.24674e-06
7.09347e-06
7.10591e-06
7.11109e-06
7.12152e-06
7.1268e-06
7.13738e-06
7.14277e-06
7.15346e-06
7.159e-06
7.16977e-06
7.1755e-06
7.18631e-06
7.19228e-06
7.2031e-06
7.20932e-06
7.22013e-06
7.22663e-06
7.23205e-06
7.24076e-06
7.26665e-06
7.26663e-06
7.26662e-06
7.2666e-06
7.2666e-06
7.26659e-06
7.26658e-06
7.26658e-06
7.26657e-06
7.26657e-06
7.26656e-06
7.26656e-06
7.26656e-06
7.26655e-06
7.26655e-06
7.26655e-06
7.26655e-06
7.26655e-06
7.26655e-06
7.26655e-06
)
;

boundaryField
{
    movingWall
    {
        type            zeroGradient;
    }
    fixedWalls
    {
        type            zeroGradient;
    }
    frontAndBack
    {
        type            empty;
    }
}


// ************************************************************************* //
