# Probe 0 (0.1 0 0)
# Probe 1 (0.2 0 0)
# Time        0             1            
50            0.505025      0.543413     
100           0.545339      0.550221     
150           0.603996      0.559821     
200           0.643912      0.574785     
