# Probe 0 (0.1 0 0)
# Probe 1 (0.2 0 0)
# Time        0             1            
50            3.03466       2.75446      
100           3.44085       2.93013      
150           3.46432       2.87817      
200           3.32539       3.10936      
250           3.3551        3.01051      
275           3.353         3.03222      
