# Probe 0 (0.1 0 0)
# Probe 1 (0.2 0 0)
# Time        0             1            
50            101325        101325       
100           101325        101325       
150           101325        101325       
200           101325        101325       
