# Probe 0 (0.1 0 0)
# Probe 1 (0.2 0 0)
# Time        0             1            
50            1234.31       1235.15      
100           1230.49       1235.1       
150           1231.72       1234.04      
200           1230.78       1234.6       
250           1230.64       1234.38      
275           1230.57       1234.23      
