# Probe 0 (0.1 0 0)
# Probe 1 (0.2 0 0)
# Time        0             1            
50            (3.01479 -0.34671 0) (2.75327 -0.0809406 0)
100           (3.39502 -0.559742 0) (2.92905 -0.0796403 0)
150           (3.42711 -0.506378 0) (2.8705 -0.210005 0)
200           (3.31033 -0.316091 0) (3.09513 -0.297124 0)
250           (3.34072 -0.31033 0) (3.00173 -0.229732 0)
275           (3.33872 -0.309063 0) (3.02238 -0.244101 0)
