# Probe 0 (0.1 0 0)
# Probe 1 (0.2 0 0)
# Time        0             1            
50            (0.503592 -0.038015 0) (0.543409 -0.00215795 0)
100           (0.542668 -0.0539076 0) (0.550144 -0.00924365 0)
150           (0.599706 -0.0718633 0) (0.559713 -0.010976 0)
200           (0.637811 -0.0884324 0) (0.574673 -0.0113175 0)
