/*--------------------------------*- C++ -*----------------------------------*\
| =========                 |                                                 |
| \\      /  F ield         | OpenFOAM: The Open Source CFD Toolbox           |
|  \\    /   O peration     | Version:  2312                                  |
|   \\  /    A nd           | Website:  www.openfoam.com                      |
|    \\/     M anipulation  |                                                 |
\*---------------------------------------------------------------------------*/
FoamFile
{
    version     2.0;
    format      ascii;
    arch        "LSB;label=32;scalar=64";
    class       volScalarField;
    location    "200";
    object      epsilon;
}
// * * * * * * * * * * * * * * * * * * * * * * * * * * * * * * * * * * * * * //

dimensions      [0 2 -3 0 0 0 0];

internalField   nonuniform List<scalar> 
12225
(
430.923
270.341
194.517
149.305
122.293
106.378
96.304
89.2896
84.026
79.8565
76.4501
73.6347
71.33
69.4614
68.0638
67.0799
66.8498
66.3711
96.1461
89.3078
68.5677
52.9314
43.4825
37.5141
33.5822
30.8279
28.7672
27.137
25.7991
24.6741
23.7207
22.8941
22.182
21.562
20.9571
20.2782
40.0519
44.9579
39.5425
31.8806
26.5053
22.824
20.2658
18.419
17.0209
15.915
15.0114
14.2533
13.6078
13.0458
12.5477
12.105
11.6566
11.2291
24.7504
29.2902
27.6464
23.9067
20.378
17.6927
15.6888
14.1759
13.0031
12.0667
11.2998
10.6574
10.1105
9.63627
9.21628
8.84364
8.4793
8.15943
18.9911
21.9815
21.4133
19.5411
17.1373
15.1112
13.4852
12.1943
11.1607
10.3198
9.62393
9.03819
8.53812
8.10492
7.723
7.38478
7.06733
6.78883
16.4245
18.0573
17.7808
16.7062
15.0326
13.4837
12.1552
11.0478
10.1301
9.36587
8.72355
8.17765
7.70866
7.30127
6.94265
6.62507
6.33465
6.07823
15.1871
15.7959
15.5302
14.7472
13.5322
12.3248
11.231
10.2796
9.46526
8.7707
8.17668
7.66558
7.22265
6.83574
6.49456
6.19189
5.91861
5.67593
14.5758
14.4637
14.0739
13.3649
12.4239
11.4508
10.5358
9.71339
8.99004
8.3595
7.81096
7.33282
6.91435
6.54618
6.22018
5.93002
5.66919
5.43632
14.2764
13.6799
13.0992
12.4042
11.6014
10.7787
9.99325
9.27281
8.62643
8.05296
7.54659
7.0998
6.70493
6.35485
6.04317
5.76457
5.51405
5.28924
14.1343
13.2141
12.4653
11.7384
10.9957
10.2624
9.5656
8.92175
8.3374
7.81262
7.34389
6.92609
6.55361
6.22097
5.92311
5.6556
5.41443
5.19695
14.0699
12.9443
12.0605
11.2839
10.5572
9.87132
9.23099
8.64137
8.10443
7.61914
7.18247
6.79036
6.43837
6.12208
5.83737
5.58051
5.34814
5.13767
14.0445
12.8057
11.83
11.0064
10.2733
9.60593
8.99546
8.43861
7.93292
7.47542
7.06251
6.69029
6.35472
6.05195
5.77835
5.53063
5.30586
5.10157
14.0331
12.7252
11.6828
10.8171
10.0694
9.40698
8.81278
8.27711
7.79356
7.35704
6.96298
6.60715
6.2856
5.99467
5.73102
5.49165
5.27389
5.07543
14.0281
12.6775
11.5854
10.6818
9.91416
9.24777
8.66043
8.13782
7.67009
7.24996
6.87159
6.53013
6.22137
5.94162
5.68765
5.45661
5.24599
5.0536
14.0264
12.6532
11.5292
10.5964
9.80898
9.13329
8.54535
8.02816
7.56949
7.16019
6.79321
6.46289
6.16458
5.8944
5.64901
5.42559
5.22168
5.03516
14.0259
12.6429
11.5017
10.5502
9.74733
9.06149
8.4689
7.95167
7.49631
7.09252
6.73227
6.40923
6.11827
5.85519
5.61649
5.39925
5.20097
5.01953
14.0258
12.6391
11.4905
10.5294
9.71709
9.02362
8.42597
7.90631
7.4508
7.04863
6.69126
6.3719
6.08507
5.8263
5.59191
5.37884
5.18454
5.00681
14.0258
12.638
11.4869
10.5222
9.70575
9.00845
8.40773
7.88599
7.42941
7.02707
6.67028
6.35205
6.06674
5.80974
5.57726
5.36616
5.1738
4.99797
14.0258
12.6382
11.4875
10.5234
9.70749
9.01063
8.41013
7.88838
7.43159
7.02887
6.67157
6.35276
6.06683
5.8092
5.57611
5.36441
5.1715
4.99516
14.0259
12.6414
11.4973
10.5415
9.73412
9.04429
8.44865
7.9294
7.47297
7.06886
6.70888
6.38649
6.09643
5.83439
5.59681
5.38069
5.18353
5.00315
14.0266
12.6549
11.5315
10.5978
9.80857
9.13064
8.54051
8.02141
7.56112
7.15048
6.78238
6.4511
6.15197
5.88107
5.63506
5.41111
5.20674
5.01983
14.0313
12.7042
11.6361
10.749
9.9886
9.32212
8.72993
8.19982
7.72344
7.2944
6.90743
6.55794
6.24187
5.95559
5.69587
5.45982
5.24487
5.04874
14.0551
12.8563
11.9056
11.0921
10.3582
9.68411
9.06442
8.49763
7.98219
7.51553
7.09428
6.71459
6.37245
6.06398
5.78553
5.53376
5.30567
5.09853
14.1519
13.2596
12.5071
11.7751
11.0279
10.2917
9.59255
8.94591
8.35809
7.82929
7.35631
6.93431
6.55796
6.22198
5.92147
5.65203
5.4098
5.19122
14.4813
14.2086
13.7163
13.0175
12.1402
11.2328
10.3699
9.58385
8.88382
8.26736
7.72692
7.25339
6.83772
6.4717
6.14816
5.86097
5.60509
5.37561
15.4704
16.2816
16.0117
15.1835
13.902
12.638
11.4938
10.4979
9.64551
8.91979
8.30103
7.77104
7.31422
6.91786
6.57158
6.26709
5.99805
5.75767
18.3032
20.8542
20.4001
18.8305
16.6879
14.801
13.2296
11.9486
10.9076
10.0556
9.35061
8.76001
8.25901
7.82952
7.45731
7.13211
6.84639
6.59069
27.0838
31.5406
29.5748
25.4028
21.6397
18.7347
16.5372
14.8715
13.5875
12.5744
11.7555
11.0794
10.51
10.0242
9.60309
9.23573
8.91254
8.62089
62.9929
62.415
52.4713
41.5214
34.3599
29.4656
26.0539
23.6131
21.7995
20.3952
19.2664
18.332
17.5391
16.8574
16.2588
15.7349
15.2661
14.8413
317.812
196.896
144.161
113.625
94.0077
81.2644
72.7409
66.74
62.2805
58.7953
55.9515
53.5569
51.4936
49.6947
48.0974
46.6859
45.3977
44.2561
0.00796337
0.00555571
0.00820364
0.0115415
0.0151926
0.0188214
0.0222097
0.0252551
0.0279867
0.0303999
0.0325378
0.0344669
0.0362664
0.0380573
0.0401116
0.043127
0.0481609
0.0548358
0.0628281
0.072131
0.0829028
0.0953903
0.109889
0.126723
0.146225
0.168726
0.194539
0.223955
0.257206
0.294458
0.335786
0.381193
0.430588
0.483808
0.54059
0.600675
0.663761
0.729553
0.797552
0.867361
0.938597
1.01091
1.08394
1.15737
1.23089
1.30424
1.37713
1.44935
1.52067
1.59089
1.65981
1.72728
1.7931
1.85713
1.9192
1.97916
2.03684
2.09208
2.1447
2.19456
2.24146
2.2853
2.326
2.36363
2.39851
2.43078
2.4602
2.48689
2.51079
2.53193
2.55025
2.56575
2.57833
2.58797
2.5946
2.59763
2.60119
2.59946
2.5951
2.58808
2.57831
2.566
2.55107
2.53363
2.51365
2.49122
2.46616
2.43872
2.40945
2.37809
2.34494
2.31006
2.27346
2.23522
2.19547
2.15431
2.11187
2.06825
2.02359
1.97798
1.93156
1.88445
1.83676
1.78861
1.74011
1.69139
1.64258
1.59383
1.54531
1.49734
1.45076
1.41033
1.39205
1.39005
1.39092
1.39207
1.39299
1.39361
1.39396
1.39405
1.39387
1.39345
1.39282
1.39201
1.39105
1.38997
1.38878
1.38748
1.38609
1.38463
1.3831
1.38153
1.3799
1.37821
1.37648
1.37471
1.37291
1.37107
1.36921
1.36731
1.36538
1.3634
1.36135
1.35926
1.3571
1.3549
1.35263
1.3503
1.34791
1.34543
1.34286
1.34021
1.33746
1.33462
1.33168
1.32864
1.32549
1.32223
1.31886
1.31537
1.31175
1.30799
1.30399
1.2997
1.29513
1.2903
1.28519
1.27979
1.27403
1.26781
1.261
1.25336
1.24475
1.23442
1.2227
1.20649
1.18971
1.15854
1.13248
1.04049
0.0191202
0.010771
0.00900813
0.00926112
0.0102866
0.0117262
0.0134033
0.0152617
0.0172961
0.0194784
0.021808
0.0243108
0.0270385
0.0300738
0.0335433
0.0376199
0.0424659
0.0481071
0.0545418
0.0618008
0.0699469
0.0790598
0.0892231
0.100516
0.11301
0.126775
0.141894
0.158325
0.175972
0.194754
0.21457
0.235307
0.256843
0.278984
0.301572
0.324479
0.347578
0.370757
0.393905
0.416943
0.439803
0.462434
0.484795
0.506857
0.528593
0.549989
0.571029
0.591702
0.611996
0.631903
0.651406
0.670495
0.68915
0.707354
0.72508
0.742306
0.759
0.775134
0.790679
0.805619
0.819948
0.833703
0.846974
0.860021
0.873388
0.886701
0.899282
0.91117
0.922326
0.932729
0.94235
0.951167
0.959149
0.966283
0.972556
0.977968
0.982792
0.98644
0.989266
0.991209
0.992288
0.99238
0.991554
0.989868
0.98731
0.983864
0.979498
0.974277
0.968311
0.96156
0.954077
0.945872
0.936954
0.927352
0.917095
0.906213
0.894741
0.882711
0.870158
0.857118
0.843626
0.82972
0.815436
0.800812
0.785887
0.770702
0.755304
0.739747
0.724108
0.708531
0.693377
0.679772
0.670111
0.663805
0.658722
0.653984
0.649297
0.644569
0.639779
0.634923
0.630003
0.625028
0.620012
0.614966
0.609902
0.604835
0.599772
0.594723
0.589698
0.584703
0.579746
0.574834
0.56997
0.565167
0.560422
0.555738
0.551119
0.546568
0.542089
0.537682
0.533351
0.52909
0.524897
0.520773
0.51672
0.51274
0.508832
0.504998
0.501236
0.497541
0.493913
0.49035
0.486851
0.483415
0.480043
0.476731
0.473477
0.470279
0.467139
0.46405
0.461019
0.458026
0.455168
0.452393
0.449649
0.446929
0.444231
0.441558
0.438917
0.436305
0.433729
0.431159
0.428673
0.426079
0.423839
0.421013
0.419558
0.4165
0.417056
0.42078
0.0382167
0.0188503
0.0138748
0.0128026
0.0131476
0.0142066
0.0157305
0.0176244
0.0198554
0.0224103
0.0252903
0.0285101
0.0320981
0.0360977
0.0405647
0.0455593
0.0511288
0.0572912
0.0640492
0.0714047
0.0793619
0.0879245
0.0970909
0.106849
0.117173
0.128016
0.139253
0.150862
0.162906
0.175314
0.188039
0.201038
0.214266
0.22768
0.241242
0.254925
0.268703
0.282552
0.296454
0.310393
0.324356
0.338332
0.35231
0.366283
0.380239
0.394169
0.408064
0.421913
0.435704
0.449425
0.463061
0.476597
0.490017
0.503304
0.516438
0.529401
0.542174
0.55474
0.567086
0.579203
0.591091
0.602759
0.61425
0.625616
0.636812
0.647723
0.658232
0.66831
0.677925
0.687054
0.695669
0.703747
0.711267
0.718211
0.724565
0.730322
0.735487
0.739979
0.743831
0.747034
0.749581
0.751464
0.752656
0.753087
0.752916
0.75209
0.750598
0.748457
0.745705
0.742348
0.738404
0.733884
0.728801
0.723173
0.71702
0.710363
0.703225
0.695629
0.6876
0.679161
0.67034
0.661162
0.651653
0.641841
0.631755
0.621425
0.610886
0.60018
0.589366
0.578544
0.567914
0.557896
0.549101
0.541476
0.534504
0.527814
0.521227
0.514667
0.508104
0.501531
0.494948
0.488361
0.481777
0.475207
0.468658
0.462142
0.455666
0.44924
0.442873
0.436569
0.430333
0.42417
0.418086
0.412085
0.406171
0.400348
0.394617
0.388982
0.383448
0.378015
0.372684
0.367452
0.362319
0.357286
0.352352
0.347519
0.342789
0.338161
0.333635
0.329209
0.324881
0.320652
0.316521
0.312487
0.30855
0.304708
0.300961
0.297306
0.293745
0.290274
0.286898
0.283607
0.280416
0.27732
0.274309
0.271379
0.268527
0.265766
0.263097
0.26052
0.258044
0.255663
0.253433
0.251281
0.249449
0.247626
0.246545
0.245693
0.246621
0.252889
0.0572644
0.0269175
0.0193525
0.0174886
0.0175587
0.0185824
0.0202234
0.0223548
0.0249268
0.0279203
0.0313293
0.0351543
0.0393996
0.0440718
0.0491778
0.0547212
0.0606976
0.0670928
0.0738866
0.0810566
0.0885821
0.0964434
0.104622
0.113097
0.121849
0.130855
0.140126
0.149659
0.159391
0.169359
0.179546
0.189941
0.200529
0.211298
0.222236
0.233334
0.244582
0.25597
0.267489
0.279132
0.290891
0.302758
0.314727
0.326788
0.338934
0.351156
0.363445
0.375791
0.388182
0.400606
0.41305
0.425498
0.437937
0.450348
0.462716
0.475022
0.487249
0.49938
0.511401
0.523299
0.535066
0.546696
0.558182
0.569486
0.580559
0.591345
0.601791
0.611861
0.621524
0.63075
0.639512
0.647784
0.655541
0.662762
0.669427
0.675514
0.68101
0.685895
0.690166
0.693813
0.696831
0.699213
0.700958
0.702008
0.702389
0.702188
0.701364
0.699922
0.697882
0.695259
0.692065
0.688315
0.684025
0.67921
0.673892
0.66809
0.661826
0.655123
0.648003
0.64049
0.632608
0.624383
0.615839
0.607003
0.597902
0.588563
0.57902
0.569309
0.559482
0.549611
0.53982
0.530305
0.52129
0.512791
0.504631
0.496665
0.488804
0.480998
0.473225
0.465478
0.457757
0.450067
0.442416
0.434811
0.427261
0.419774
0.412358
0.405025
0.397783
0.390632
0.383578
0.376624
0.369776
0.363039
0.356415
0.349907
0.343517
0.33725
0.331107
0.325089
0.319194
0.313423
0.307774
0.302247
0.296838
0.291551
0.286386
0.281342
0.276416
0.271607
0.266913
0.262335
0.25787
0.253518
0.249276
0.245144
0.24112
0.237202
0.23339
0.229682
0.226079
0.222576
0.219175
0.215875
0.212673
0.209565
0.20655
0.203632
0.200813
0.198095
0.195486
0.192987
0.190629
0.188389
0.186387
0.184526
0.183131
0.182068
0.182358
0.185772
0.0708597
0.0335972
0.024638
0.0224181
0.0224077
0.0235003
0.0253
0.0276536
0.0304963
0.0337976
0.0375387
0.0417035
0.046275
0.0512337
0.056558
0.0622241
0.0682066
0.0744793
0.0810178
0.087801
0.0948132
0.102044
0.109486
0.117138
0.124999
0.133073
0.141367
0.149882
0.158612
0.167557
0.176728
0.186122
0.195734
0.205559
0.215591
0.225827
0.236262
0.24689
0.257708
0.26871
0.279892
0.29125
0.302776
0.314465
0.32631
0.338303
0.350435
0.362696
0.375079
0.387564
0.400139
0.412788
0.425495
0.438242
0.451009
0.463776
0.47652
0.48922
0.501855
0.514403
0.526847
0.539159
0.551299
0.563228
0.5749
0.586272
0.5973
0.607947
0.618179
0.627963
0.637269
0.646067
0.654331
0.662036
0.66916
0.675683
0.681591
0.686867
0.691497
0.695473
0.698788
0.701438
0.703422
0.70471
0.705264
0.705227
0.704543
0.703218
0.701269
0.698712
0.695561
0.691834
0.687548
0.682723
0.677381
0.671543
0.665233
0.658475
0.651293
0.643713
0.63576
0.62746
0.61884
0.609926
0.600747
0.591331
0.581709
0.571917
0.561997
0.552007
0.542025
0.532157
0.522508
0.51311
0.503925
0.494889
0.48595
0.47708
0.468265
0.459501
0.450789
0.442136
0.433548
0.425034
0.416602
0.408259
0.400013
0.391862
0.38381
0.375874
0.368062
0.360379
0.35283
0.345418
0.338146
0.331017
0.324032
0.317196
0.310509
0.303969
0.297577
0.29133
0.285229
0.279271
0.273456
0.267784
0.262253
0.256861
0.251603
0.246477
0.241483
0.23662
0.231884
0.227273
0.222787
0.218422
0.214176
0.210049
0.206038
0.202141
0.198357
0.194682
0.191117
0.187659
0.184306
0.181056
0.177907
0.174861
0.171917
0.169078
0.166349
0.163733
0.161248
0.158891
0.156724
0.154726
0.153062
0.15167
0.151245
0.152755
0.0780575
0.0387288
0.029504
0.0272371
0.0272479
0.0284221
0.0303392
0.0328309
0.0358204
0.0392654
0.0431357
0.0474027
0.0520366
0.0570053
0.0622762
0.0678178
0.0736019
0.0796047
0.0858085
0.092202
0.0987804
0.105544
0.112499
0.119652
0.127012
0.134589
0.142393
0.150431
0.158715
0.167236
0.175998
0.185009
0.194275
0.203794
0.213565
0.223589
0.233861
0.244381
0.255148
0.266162
0.277419
0.288916
0.300651
0.312617
0.324809
0.337219
0.349834
0.362641
0.375617
0.38876
0.402062
0.415504
0.429069
0.442734
0.456476
0.470267
0.484081
0.497887
0.511654
0.525345
0.53892
0.552342
0.565572
0.578565
0.591276
0.603659
0.615672
0.627272
0.638421
0.649081
0.659217
0.668797
0.67779
0.686169
0.693908
0.700988
0.707388
0.713093
0.718089
0.722369
0.725925
0.728755
0.730858
0.732209
0.732784
0.7327
0.731917
0.730445
0.728302
0.725504
0.722069
0.718018
0.713373
0.708156
0.702392
0.696105
0.689323
0.682072
0.674379
0.666273
0.657781
0.648932
0.639755
0.630278
0.620532
0.610545
0.60035
0.589981
0.579476
0.56888
0.558251
0.547655
0.537153
0.526782
0.516539
0.506408
0.496369
0.486408
0.476522
0.46671
0.456977
0.447329
0.437775
0.428323
0.418981
0.409757
0.400659
0.391693
0.382869
0.37419
0.36566
0.357286
0.34907
0.341016
0.333127
0.325404
0.317848
0.310452
0.303221
0.29616
0.289268
0.282545
0.275991
0.269602
0.263377
0.257317
0.251418
0.245677
0.240089
0.234652
0.229365
0.224224
0.219222
0.214359
0.209635
0.205044
0.200584
0.196253
0.192048
0.187967
0.184008
0.180167
0.176443
0.172834
0.169337
0.165951
0.162673
0.159503
0.156441
0.153488
0.150647
0.147921
0.145322
0.142853
0.140549
0.138417
0.136543
0.134936
0.13386
0.134315
0.0843014
0.0439148
0.0344029
0.0319753
0.0319086
0.0330577
0.0349824
0.0374929
0.0404962
0.0439374
0.0477764
0.0519774
0.0565055
0.061326
0.0664062
0.0717172
0.0772357
0.0829453
0.0888364
0.0949065
0.101159
0.107601
0.114243
0.121099
0.128179
0.135496
0.143062
0.150886
0.158979
0.167351
0.176006
0.18494
0.194167
0.20369
0.213512
0.223631
0.234045
0.244762
0.255787
0.267122
0.278769
0.290728
0.302997
0.315574
0.328457
0.34164
0.355112
0.36886
0.382876
0.397136
0.411617
0.426299
0.441153
0.456154
0.471268
0.486462
0.501701
0.516945
0.532152
0.54728
0.562283
0.577116
0.591729
0.606072
0.620095
0.633748
0.646982
0.65975
0.672008
0.683714
0.694828
0.705313
0.715135
0.724265
0.732674
0.740341
0.747244
0.753369
0.758702
0.763234
0.766962
0.769883
0.772
0.773283
0.773751
0.773465
0.772415
0.770615
0.768085
0.764843
0.760913
0.756318
0.751084
0.745239
0.73881
0.731826
0.724318
0.716316
0.707851
0.698954
0.689656
0.679989
0.669985
0.659675
0.64909
0.638263
0.627226
0.616013
0.604658
0.593203
0.581692
0.570172
0.558691
0.547282
0.535959
0.524728
0.513586
0.502535
0.491575
0.480712
0.469953
0.459306
0.448779
0.438383
0.428126
0.418015
0.408059
0.398264
0.388638
0.379185
0.36991
0.360818
0.351911
0.343193
0.334666
0.32633
0.318187
0.310235
0.302478
0.294914
0.287541
0.280358
0.273363
0.266554
0.259928
0.253476
0.247201
0.241102
0.235176
0.22942
0.223829
0.218401
0.213132
0.208017
0.203053
0.198232
0.193554
0.189017
0.184617
0.18035
0.176214
0.172206
0.168322
0.164561
0.16092
0.157396
0.153988
0.150695
0.147515
0.144448
0.141497
0.138664
0.135957
0.133381
0.130957
0.1287
0.126659
0.124876
0.123353
0.123102
0.117383
0.0555153
0.0411179
0.0371261
0.0364494
0.0372863
0.0390369
0.0414269
0.0443225
0.0476469
0.051348
0.0553846
0.0597204
0.0643228
0.0691636
0.0742198
0.0794748
0.084919
0.0905492
0.0963681
0.102384
0.108608
0.115054
0.121736
0.128668
0.13586
0.143327
0.151081
0.159132
0.167493
0.176174
0.185182
0.194526
0.204218
0.214265
0.224677
0.235463
0.246629
0.258182
0.270125
0.282461
0.295192
0.308316
0.32183
0.335725
0.349992
0.364624
0.379606
0.394922
0.410549
0.426463
0.442634
0.45903
0.475615
0.492351
0.509195
0.526102
0.543023
0.559908
0.576703
0.593354
0.609804
0.625996
0.641872
0.657374
0.672445
0.68703
0.701076
0.714534
0.727356
0.739498
0.750919
0.761583
0.771458
0.780514
0.788729
0.796081
0.802555
0.808141
0.812831
0.816622
0.819516
0.821519
0.822598
0.822811
0.822172
0.820696
0.818403
0.815316
0.811458
0.806857
0.801541
0.79554
0.788886
0.781612
0.77375
0.765336
0.756403
0.746986
0.737121
0.726842
0.716183
0.70518
0.693867
0.682278
0.670447
0.658406
0.646192
0.633837
0.621379
0.608857
0.59631
0.583777
0.571291
0.558875
0.546543
0.534305
0.52217
0.510145
0.498239
0.486462
0.474823
0.463333
0.452001
0.440835
0.429844
0.419037
0.408419
0.397997
0.387777
0.377763
0.367958
0.358365
0.348988
0.339827
0.330883
0.322156
0.313647
0.305354
0.297276
0.289413
0.281761
0.274318
0.267082
0.260049
0.253214
0.246577
0.240134
0.23388
0.227812
0.221924
0.21621
0.210668
0.205294
0.200086
0.195037
0.190144
0.185401
0.180805
0.176351
0.172038
0.167861
0.163817
0.159904
0.156119
0.152458
0.148919
0.145501
0.142203
0.139023
0.135963
0.133025
0.130213
0.127533
0.125
0.122627
0.120444
0.118501
0.116733
0.115902
0.158874
0.0692673
0.0483647
0.0421908
0.0406056
0.040934
0.0423713
0.0445334
0.0472339
0.0503691
0.0538735
0.0577001
0.0618125
0.0661809
0.070782
0.0755984
0.0806198
0.0858422
0.0912665
0.0968939
0.102739
0.108818
0.115145
0.121737
0.128613
0.135776
0.14324
0.151021
0.159134
0.167599
0.176433
0.185651
0.195268
0.205296
0.215748
0.226638
0.237976
0.249774
0.262039
0.27478
0.288
0.301703
0.315887
0.330548
0.345681
0.361274
0.377314
0.393783
0.410658
0.427914
0.445517
0.463432
0.481618
0.50003
0.518621
0.537336
0.556121
0.574916
0.593659
0.612286
0.630733
0.648931
0.666814
0.684316
0.70137
0.717913
0.733883
0.749221
0.763872
0.777784
0.79091
0.803207
0.814637
0.825165
0.834763
0.843407
0.85108
0.857767
0.863459
0.868153
0.87185
0.874554
0.876268
0.876991
0.876767
0.875605
0.873533
0.870576
0.866763
0.862122
0.856687
0.850489
0.843564
0.835949
0.827681
0.818797
0.809336
0.799337
0.788838
0.777879
0.766496
0.75473
0.742616
0.730193
0.717497
0.704563
0.691427
0.678124
0.664687
0.651152
0.637556
0.623934
0.610321
0.59675
0.583247
0.569831
0.55652
0.543326
0.530263
0.517342
0.504575
0.491972
0.479545
0.467303
0.455255
0.44341
0.431777
0.42036
0.409167
0.398203
0.387471
0.376975
0.366717
0.3567
0.346924
0.337389
0.328096
0.319043
0.310229
0.301653
0.293312
0.285203
0.277324
0.269671
0.26224
0.255028
0.24803
0.241242
0.234661
0.228281
0.222097
0.216104
0.2103
0.204677
0.199233
0.193961
0.188855
0.18391
0.179124
0.174489
0.170002
0.16566
0.161459
0.157396
0.153467
0.149671
0.146004
0.142464
0.139048
0.135757
0.13259
0.129548
0.126635
0.123856
0.121219
0.118739
0.116433
0.114344
0.112407
0.111145
0.203596
0.083341
0.0553505
0.0467777
0.0441384
0.0438827
0.044928
0.0467996
0.0492561
0.0521662
0.0554506
0.0590566
0.062947
0.0670947
0.0714802
0.0760853
0.0809096
0.0859564
0.0912356
0.0967513
0.102508
0.108519
0.114798
0.12136
0.128222
0.135407
0.142936
0.150831
0.159111
0.167779
0.176875
0.186424
0.196444
0.206952
0.217964
0.229497
0.241565
0.254184
0.267363
0.281114
0.295441
0.310348
0.325834
0.341895
0.35852
0.375697
0.393405
0.411622
0.430317
0.449456
0.468998
0.488897
0.509101
0.529554
0.550197
0.570963
0.591786
0.612592
0.633309
0.653861
0.67417
0.694161
0.713755
0.732878
0.751457
0.76942
0.7867
0.803234
0.818962
0.833831
0.84779
0.860797
0.872812
0.883804
0.893744
0.902613
0.910393
0.917077
0.922658
0.927138
0.930521
0.932817
0.934038
0.934199
0.93333
0.931445
0.928583
0.924778
0.920062
0.91447
0.908039
0.900807
0.892815
0.884104
0.874714
0.86469
0.854072
0.842905
0.83123
0.819089
0.806524
0.793577
0.780288
0.766696
0.75284
0.738757
0.724483
0.710055
0.695508
0.680875
0.666192
0.651493
0.63681
0.622176
0.607618
0.59316
0.57882
0.564617
0.550565
0.536679
0.522972
0.509454
0.496139
0.483035
0.470153
0.457501
0.445086
0.432915
0.420993
0.409326
0.397916
0.386767
0.375881
0.365259
0.354902
0.344809
0.334979
0.325412
0.316105
0.307056
0.298263
0.289721
0.281427
0.273378
0.265569
0.257995
0.250653
0.243537
0.236643
0.229964
0.223497
0.217236
0.211175
0.20531
0.199634
0.194144
0.188831
0.183693
0.178725
0.173919
0.169271
0.164772
0.160421
0.156214
0.152148
0.148221
0.144429
0.14077
0.137242
0.133843
0.130572
0.127431
0.124421
0.121546
0.118813
0.116232
0.113815
0.111597
0.109524
0.107945
0.248468
0.0968413
0.0616818
0.0506858
0.0469379
0.0460907
0.046719
0.048277
0.0504728
0.0531495
0.0562153
0.0596114
0.0632968
0.0672516
0.0714658
0.0759315
0.0806348
0.0855727
0.0907452
0.09616
0.101841
0.107807
0.114079
0.120678
0.127624
0.134941
0.142654
0.150776
0.159319
0.168322
0.177825
0.187859
0.19845
0.209619
0.221386
0.233772
0.246796
0.260474
0.274821
0.289846
0.305557
0.321954
0.339036
0.356793
0.375212
0.394271
0.413945
0.434199
0.454993
0.476283
0.498013
0.520126
0.542556
0.565233
0.588083
0.611026
0.63398
0.65686
0.67958
0.702051
0.724187
0.7459
0.767105
0.78772
0.807665
0.826863
0.845245
0.862744
0.879301
0.89486
0.909373
0.922799
0.935102
0.946252
0.956227
0.965012
0.972594
0.978971
0.984143
0.988118
0.990907
0.992525
0.992993
0.992344
0.990582
0.987745
0.983882
0.97903
0.973226
0.966511
0.958927
0.950518
0.941328
0.931402
0.920786
0.909527
0.897671
0.885264
0.872352
0.85898
0.845193
0.831033
0.816544
0.801767
0.786742
0.771508
0.756102
0.740561
0.724919
0.709212
0.693473
0.677734
0.662029
0.646388
0.630837
0.615403
0.600107
0.584967
0.570001
0.555224
0.54065
0.526291
0.51216
0.498265
0.484618
0.471225
0.458095
0.445232
0.432644
0.420333
0.408303
0.396557
0.385096
0.37392
0.36303
0.352426
0.342105
0.332066
0.322306
0.312823
0.303613
0.294672
0.285996
0.277582
0.269423
0.261516
0.253854
0.246434
0.239249
0.232293
0.225562
0.219049
0.212749
0.206656
0.200765
0.195069
0.189562
0.18424
0.179096
0.174125
0.169322
0.164679
0.160191
0.155853
0.15166
0.14761
0.143701
0.13993
0.136295
0.132793
0.129425
0.12619
0.123089
0.120124
0.1173
0.114626
0.112109
0.109775
0.107585
0.105768
0.290396
0.109036
0.0671135
0.0538236
0.0490143
0.0475905
0.0478122
0.0490626
0.0510058
0.0534582
0.0563256
0.0595535
0.0630978
0.0669235
0.0710074
0.0753338
0.0799139
0.0847555
0.0898712
0.0952743
0.100981
0.107012
0.113389
0.120142
0.127291
0.134853
0.142845
0.151301
0.160272
0.169801
0.179922
0.190673
0.202083
0.214177
0.226982
0.240522
0.25482
0.269894
0.285757
0.30242
0.319886
0.338152
0.357211
0.377044
0.397629
0.418935
0.440921
0.463541
0.486739
0.510454
0.534616
0.55915
0.583973
0.608998
0.634135
0.659289
0.684363
0.70926
0.733879
0.758124
0.781897
0.805103
0.827653
0.849459
0.870438
0.890515
0.909618
0.927683
0.944653
0.960476
0.975111
0.988519
1.00067
1.01155
1.02113
1.02941
1.03638
1.04206
1.04644
1.04955
1.05139
1.05201
1.05143
1.04966
1.04673
1.0427
1.03761
1.0315
1.02442
1.01642
1.00753
0.997813
0.987312
0.976075
0.964153
0.951595
0.93845
0.924767
0.910594
0.895979
0.880967
0.865604
0.849934
0.833998
0.817838
0.801495
0.785004
0.768404
0.751729
0.735013
0.718289
0.701589
0.684944
0.668382
0.651932
0.635619
0.619464
0.603488
0.587708
0.57214
0.556798
0.541694
0.526842
0.51225
0.497927
0.483883
0.470122
0.456652
0.443477
0.430601
0.418026
0.405754
0.393786
0.382123
0.370765
0.359709
0.348954
0.338498
0.328338
0.31847
0.308891
0.299596
0.290581
0.281841
0.273371
0.265166
0.257219
0.249525
0.242079
0.234875
0.227906
0.221166
0.21465
0.208351
0.202263
0.19638
0.190696
0.185205
0.179901
0.174778
0.169831
0.165053
0.160439
0.155981
0.151673
0.147513
0.143498
0.139624
0.135891
0.132295
0.128836
0.125514
0.122328
0.11928
0.116374
0.113614
0.111007
0.10857
0.106277
0.104276
0.326484
0.119297
0.0714825
0.0561704
0.0504148
0.0484535
0.0483124
0.0492795
0.0510018
0.0532891
0.0560132
0.0590945
0.0624914
0.0661879
0.0701746
0.0744483
0.0790103
0.0838687
0.0890375
0.0945361
0.100392
0.106618
0.113237
0.120266
0.127728
0.135675
0.144158
0.153221
0.162909
0.173267
0.184339
0.196168
0.208779
0.222207
0.236483
0.251634
0.267683
0.284645
0.302533
0.321348
0.341088
0.361738
0.383278
0.405676
0.428893
0.45288
0.477577
0.502917
0.528826
0.555219
0.582006
0.609092
0.636376
0.663751
0.691112
0.718349
0.745351
0.77201
0.798218
0.82387
0.848865
0.873106
0.896502
0.918967
0.940423
0.960796
0.980023
0.998045
1.01481
1.03029
1.04443
1.05722
1.06863
1.07866
1.08729
1.09453
1.10039
1.10488
1.10801
1.10981
1.11032
1.10958
1.10758
1.10436
1.09999
1.09451
1.08796
1.08039
1.07186
1.06241
1.05209
1.04096
1.02906
1.01645
1.00317
0.989287
0.97484
0.959884
0.944467
0.928638
0.912444
0.89593
0.879139
0.862116
0.844901
0.827532
0.810049
0.792487
0.774881
0.757263
0.739665
0.722117
0.70465
0.68729
0.670065
0.652998
0.636111
0.619425
0.602956
0.58672
0.570733
0.555005
0.539549
0.524374
0.509488
0.4949
0.480615
0.466638
0.452975
0.439627
0.426598
0.413888
0.401498
0.389428
0.377677
0.366244
0.355125
0.344319
0.333822
0.32363
0.313739
0.304145
0.294842
0.285826
0.27709
0.26863
0.260439
0.252511
0.244841
0.237422
0.230247
0.223311
0.216607
0.210128
0.203869
0.197823
0.191983
0.186343
0.180898
0.175641
0.170566
0.165668
0.16094
0.156375
0.151966
0.147708
0.143597
0.139633
0.135812
0.132133
0.128593
0.125192
0.12193
0.118807
0.115826
0.112989
0.110301
0.107774
0.105389
0.103244
0.354208
0.127051
0.0746647
0.0577383
0.0512076
0.0487826
0.048345
0.0491047
0.0506552
0.0527723
0.0553535
0.0583359
0.0616772
0.0653541
0.0693571
0.0736872
0.0783563
0.0833724
0.0887481
0.0944991
0.100634
0.107191
0.114216
0.12176
0.129867
0.138584
0.147965
0.158063
0.168931
0.180623
0.193194
0.206673
0.2211
0.236514
0.252945
0.270416
0.288944
0.308535
0.329188
0.350891
0.37362
0.397343
0.422014
0.447578
0.473969
0.50111
0.528915
0.557291
0.586136
0.61534
0.644792
0.674374
0.703965
0.733446
0.762696
0.791596
0.820028
0.847879
0.875041
0.901409
0.926886
0.951382
0.974812
0.997103
1.01818
1.038
1.05649
1.07362
1.08934
1.10365
1.1165
1.1279
1.13782
1.14629
1.1533
1.15886
1.16301
1.16574
1.16712
1.16713
1.16592
1.16335
1.15957
1.1546
1.1485
1.14132
1.1331
1.12389
1.11375
1.10273
1.09089
1.07827
1.06493
1.05092
1.03628
1.02108
1.00537
0.989188
0.972591
0.955625
0.938337
0.92077
0.902968
0.884974
0.866826
0.848562
0.830221
0.811835
0.79344
0.775066
0.756743
0.738498
0.72036
0.702356
0.684509
0.666842
0.649378
0.632132
0.615125
0.598369
0.581881
0.565671
0.549749
0.534125
0.518807
0.503801
0.489113
0.474749
0.460711
0.447002
0.433623
0.420577
0.407862
0.395478
0.383424
0.371698
0.360297
0.349218
0.338457
0.328011
0.317875
0.308044
0.298513
0.289277
0.28033
0.271665
0.263278
0.255162
0.24731
0.239716
0.232374
0.225277
0.218418
0.211791
0.20539
0.199207
0.193237
0.187473
0.181909
0.176539
0.171356
0.166355
0.161529
0.156873
0.152378
0.148035
0.143844
0.139801
0.135905
0.132154
0.128544
0.125075
0.121746
0.118558
0.11551
0.112605
0.109846
0.107242
0.104775
0.102515
0.373506
0.132494
0.0768167
0.0586603
0.0515215
0.0487357
0.0480822
0.0486459
0.0500536
0.0520939
0.0546452
0.0576408
0.0610464
0.0648431
0.0690195
0.0735744
0.0785059
0.0838286
0.089583
0.095809
0.102557
0.109867
0.11779
0.126384
0.135709
0.145824
0.156791
0.16867
0.181525
0.195417
0.210391
0.226493
0.243761
0.262228
0.281909
0.302809
0.324923
0.348232
0.372704
0.398293
0.424943
0.452582
0.481128
0.510487
0.540557
0.571224
0.602371
0.633871
0.665597
0.697416
0.729196
0.760805
0.792111
0.822989
0.853315
0.882972
0.911848
0.939837
0.966844
0.992776
1.01755
1.0411
1.06336
1.08427
1.10379
1.12187
1.13848
1.1536
1.16722
1.17933
1.18991
1.19899
1.20656
1.21265
1.21728
1.22045
1.22224
1.22261
1.22174
1.2195
1.21599
1.21127
1.20538
1.19838
1.1903
1.1812
1.17113
1.16014
1.14829
1.13563
1.12223
1.10811
1.09333
1.07795
1.06201
1.04556
1.02867
1.01137
0.993707
0.975733
0.95749
0.939019
0.920363
0.901559
0.882647
0.863662
0.844637
0.825607
0.806601
0.787649
0.768781
0.750022
0.731397
0.71293
0.694644
0.67656
0.658697
0.64107
0.623697
0.606593
0.589769
0.573236
0.557005
0.541083
0.525479
0.510198
0.495246
0.480626
0.46634
0.452393
0.438783
0.425513
0.412581
0.399987
0.387729
0.375805
0.364211
0.352945
0.342003
0.331381
0.321074
0.311077
0.301384
0.291991
0.282892
0.27408
0.26555
0.257295
0.24931
0.241586
0.234119
0.226901
0.219925
0.213186
0.206676
0.200389
0.194318
0.188457
0.1828
0.17734
0.172072
0.166989
0.162084
0.157353
0.152788
0.148377
0.14412
0.140014
0.136056
0.132245
0.128577
0.125052
0.121668
0.118424
0.11532
0.112357
0.109538
0.106866
0.104331
0.101979
0.383106
0.135253
0.0778007
0.0589042
0.0514091
0.0484007
0.0475859
0.0480834
0.0494896
0.0515955
0.0542755
0.0574611
0.06111
0.0651948
0.0697367
0.074761
0.0803054
0.086409
0.0931172
0.100487
0.108584
0.117472
0.127221
0.137904
0.149596
0.162368
0.176293
0.191436
0.207855
0.225598
0.244703
0.265217
0.287173
0.310567
0.33536
0.361503
0.388935
0.41758
0.447346
0.478131
0.509817
0.542278
0.575381
0.608984
0.642941
0.677107
0.711332
0.74547
0.779376
0.81291
0.845939
0.878332
0.909971
0.940741
0.970539
0.99927
1.02685
1.0532
1.07825
1.10194
1.12422
1.14506
1.16441
1.18225
1.19857
1.21335
1.22658
1.23827
1.24843
1.25707
1.2642
1.26985
1.27403
1.27682
1.27819
1.27815
1.27695
1.27434
1.27051
1.26548
1.25931
1.25203
1.2437
1.23438
1.22409
1.21288
1.20081
1.18793
1.17429
1.15992