/*--------------------------------*- C++ -*----------------------------------*\
| =========                 |                                                 |
| \\      /  F ield         | OpenFOAM: The Open Source CFD Toolbox           |
|  \\    /   O peration     | Version:  2312                                  |
|   \\  /    A nd           | Website:  www.openfoam.com                      |
|    \\/     M anipulation  |                                                 |
\*---------------------------------------------------------------------------*/
FoamFile
{
    version     2.0;
    format      ascii;
    arch        "LSB;label=32;scalar=64";
    class       volScalarField;
    location    "200";
    object      epsilon;
}
// * * * * * * * * * * * * * * * * * * * * * * * * * * * * * * * * * * * * * //

dimensions      [0 2 -3 0 0 0 0];

internalField   nonuniform List<scalar> 
12225
(
936.68
1509.32
1777.63
1793.89
1752.28
1670.08
1570.13
1481.17
1405.44
1342.29
1290.1
1247.27
1211.63
1182.75
1157.48
1139.69
1119.75
1113.6
109.951
259.888
333.733
359.03
363.453
361.196
352.06
342.401
334.396
328.036
323.491
320.397
318.374
316.677
315.938
314.934
313.99
315.026
30.0966
67.1241
93.1552
106.932
113.242
114.666
113.842
112.207
109.827
107.662
106.016
104.798
104.128
103.759
103.752
104.084
104.041
105.428
17.8795
29.1852
39.3764
46.5607
51.2401
53.7273
54.9838
55.0306
54.7774
54.1835
53.3799
52.5955
51.8301
51.2414
50.6013
50.3059
49.6547
49.8201
15.3567
19.0019
23.3949
27.0641
29.8989
31.8196
33.1276
33.7998
34.1561
34.1501
34.0465
33.8231
33.4646
33.1599
32.7192
32.4745
31.9251
31.8787
14.8221
15.8175
17.5546
19.4137
21.0169
22.256
23.2077
23.8475
24.2824
24.5114
24.6159
24.6046
24.5415
24.4334
24.231
24.1
23.785
23.7359
14.6762
14.8244
15.284
16.0988
16.9127
17.6177
18.2079
18.6579
18.9955
19.2241
19.3663
19.4419
19.4475
19.4285
19.3673
19.3059
19.139
19.1179
14.6551
14.4546
14.4764
14.6426
14.9525
15.2723
15.5694
15.8193
16.0198
16.1702
16.2726
16.3384
16.3632
16.3599
16.337
16.3088
16.2155
16.2075
14.668
14.3514
14.1557
14.0536
14.0616
14.1035
14.1817
14.2616
14.3315
14.3868
14.4228
14.444
14.4425
14.433
14.406
14.379
14.3113
14.2981
14.6758
14.3358
14.0557
13.8298
13.6742
13.5629
13.4897
13.4396
13.4014
13.3693
13.3368
13.3043
13.2657
13.2266
13.1779
13.1377
13.0706
13.0408
14.6776
14.3376
14.032
13.7594
13.5286
13.3341
13.1721
13.0366
12.9207
12.8202
12.7295
12.6476
12.5692
12.4972
12.4231
12.3594
12.2826
12.2316
14.6775
14.3395
14.0284
13.7428
13.4857
13.2562
13.0527
12.8729
12.713
12.5703
12.4411
12.3242
12.2154
12.1163
12.0204
11.9352
11.8455
11.7751
14.6772
14.3401
14.0281
13.739
13.4725
13.2281
13.0049
12.8015
12.6161
12.4472
12.2924
12.1508
12.0195
11.899
11.785
11.6816
11.5794
11.4922
14.677
14.3401
14.0279
13.7381
13.469
13.2193
12.9878
12.7735
12.575
12.3912
12.2208
12.063
11.916
11.7798
11.6517
11.5335
11.4202
11.3183
14.6769
14.34
14.0276
13.7375
13.4678
13.2168
12.9829
12.7648
12.5614
12.3716
12.1942
12.0284
11.8732
11.7282
11.5918
11.4644
11.3437
11.2318
14.6768
14.3398
14.0273
13.737
13.467
13.2156
12.981
12.762
12.5572
12.3655
12.1858
12.0173
11.8591
11.7105
11.5706
11.4391
11.315
11.1983
14.6768
14.3397
14.027
13.7366
13.4664
13.2147
12.9798
12.7604
12.5552
12.3629
12.1826
12.0134
11.8543
11.7046
11.5636
11.4308
11.3055
11.1872
14.6768
14.3397
14.0269
13.7363
13.466
13.2141
12.979
12.7594
12.5539
12.3614
12.1809
12.0113
11.8519
11.7019
11.5606
11.4274
11.3017
11.183
14.6768
14.3396
14.0268
13.7362
13.4658
13.2139
12.9787
12.759
12.5534
12.3608
12.1801
12.0105
11.851
11.7009
11.5596
11.4263
11.3006
11.1818
14.6768
14.3397
14.0269
13.7364
13.466
13.2142
12.9791
12.7596
12.5542
12.362
12.1817
12.0126
11.8537
11.7044
11.5639
11.4316
11.307
11.1893
14.6768
14.3398
14.0271
13.7367
13.4666
13.2153
12.9813
12.7632
12.56
12.3703
12.1933
12.0278
11.8731
11.7282
11.5925
11.4649
11.3456
11.2325
14.677
14.3398
14.0272
13.7378
13.4705
13.2242
12.9979
12.7899
12.5989
12.4233
12.2616
12.1121
11.974
11.8454
11.7262
11.614
11.5105
11.4108
14.6779
14.3385
14.0297
13.7522
13.5065
13.2916
13.1043
12.9407
12.7967
12.6686
12.5535
12.4484
12.352
12.2617
12.1781
12.0969
12.0234
11.9469
14.6794
14.3371
14.0751
13.8733
13.7321
13.6399
13.5806
13.5414
13.5132
13.4891
13.4659
13.44
13.4118
13.3785
13.3428
13.3003
13.2617
13.2079
14.6846
14.411
14.4216
14.4962
14.6899
14.9199
15.1432
15.3433
15.5101
15.6421
15.7416
15.8082
15.8507
15.8652
15.8597
15.8442
15.8166
15.7637
14.8082
15.0393
15.8732
16.9023
17.8694
18.7162
19.4032
19.9487
20.3518
20.6442
20.8373
20.9485
21.003
20.9966
20.9608
20.8956
20.8254
20.6949
15.6356
18.1168
21.7914
24.9291
27.3813
29.2533
30.5666
31.4805
32.0103
32.3209
32.3939
32.3464
32.2381
32.0054
31.7839
31.4668
31.2318
30.8844
19.9117
33.9065
45.1073
53.073
58.3548
61.743
63.5103
64.3162
64.2618
63.9363
63.3423
62.5117
61.7146
60.846
60.1639
59.3768
58.9033
58.2237
57.9094
118.805
155.104
177.267
189.652
195.63
196.475
195.563
193.299
190.23
187.178
184.41
182.004
179.923
178.32
176.843
176.002
174.94
557.18
767.372
897.453
964.606
979.938
973.468
956.348
928.693
899.54
871.178
844.707
820.591
798.871
779.435
762.088
746.601
732.733
720.314
0.067564
0.0601661
0.0991983
0.142843
0.185774
0.225355
0.260628
0.291773
0.321167
0.348449
0.374242
0.3994
0.42473
0.451007
0.479433
0.512838
0.556695
0.612594
0.677469
0.749837
0.829722
0.917905
1.01554
1.12402
1.24489
1.37979
1.5304
1.69847
1.88564
2.09361
2.32392
2.5781
2.8577
3.16478
3.49982
3.86214
4.25241
4.6706
5.1161
5.58887
6.08878
6.61591
7.17007
7.75139
8.3597
8.99524
9.65787
10.3479
11.0653
11.8104
12.5833
13.3844
14.2136
15.0716
15.9584
16.8744
17.8197
18.7949
19.7997
20.835
21.9002
22.9962
24.1224
25.2795
26.4668
27.685
28.9332
30.2121
31.5209
32.8602
34.2297
35.6307
37.0634
38.5308
40.036
41.5858
43.1897
44.8646
46.5735
48.3043
50.055
51.8265
53.6135
55.4158
57.2286
59.0503
60.8761
62.7032
64.5265
66.3417
68.1428
69.9244
71.6811
73.41
75.1133
76.8071
78.462
80.0888
81.679
83.2322
84.7434
86.21
87.628
88.9943
90.3057
91.559
92.7513
93.8797
94.9417
95.9347
96.8568
97.7058
98.4803
99.1787
99.8003
100.344
100.809
101.196
101.504
101.733
101.882
101.966
101.992
101.92
101.777
101.551
101.274
100.922
100.512
100.04
99.5104
98.9272
98.2922
97.6099
96.8823
96.1148
95.3117
94.4803
93.6169
92.7284
91.8179
90.8883
89.9421
88.9805
88.0059
87.0195
86.0233
85.0179
84.0051
82.985
81.9591
80.9269
79.8892
78.8455
77.7956
76.7396
75.6762
74.6052
73.5421
72.6909
72.426
72.2892
72.162
72.0282
71.8825
71.7204
71.5385
71.333
71.1007
70.839
70.5396
70.2219
69.8821
69.4921
69.0425
68.523
67.9033
67.0953
66.1573
61.6869
0.223785
0.125244
0.111556
0.117008
0.129435
0.14518
0.162983
0.182564
0.204177
0.22744
0.2523
0.278933
0.307675
0.339008
0.373601
0.412359
0.456278
0.505865
0.561108
0.62207
0.689028
0.762436
0.84283
0.930784
1.02686
1.13159
1.24547
1.36893
1.50235
1.64607
1.80034
1.96556
2.14223
2.3299
2.52857
2.73829
2.95799
3.1875
3.42653
3.675
3.93289
4.20024
4.47711
4.76366
5.05999
5.36631
5.68277
6.00959
6.34696
6.69509
7.05416
7.4244
7.80595
8.19903
8.60376
9.02034
9.44883
9.88941
10.3421
10.807
11.2842
11.7737
12.2754
12.7895
13.3158
13.8543
14.405
14.9678
15.5427
16.1298
16.7291
17.3408
17.965
18.6023
19.253
19.9176
20.5962
21.2874
21.9869
22.6938
23.4072
24.1265
24.8503
25.5779
26.3079
27.0393
27.7706
28.5005
29.2275
29.9501
30.6668
31.3766
32.0794
32.777
33.4742
34.1828
34.8782
35.563
36.2349
36.8928
37.5354
38.1612
38.7691
39.3576
39.9255
40.4716
40.9947
41.4935
41.9672
42.4146
42.8348
43.227
43.5905
43.9246
44.2288
44.5027
44.746
44.9585
45.1402
45.2911
45.4117
45.5038
45.5667
45.5951
45.5913
45.558
45.5012
45.4162
45.3064
45.1712
45.0122
44.8304
44.6269
44.4031
44.1603
43.9
43.624
43.3338
43.03
42.7147
42.389
42.0543
41.7114
41.3611
41.0044
40.6419
40.2746
39.9028
39.5273
39.1483
38.7665
38.3818
37.9946
37.6047
37.2124
36.8176
36.4206
36.0222
35.6294
35.2827
35.0482
34.8516
34.6601
34.4654
34.2638
34.0531
33.8318
33.5987
33.3526
33.0928
32.8174
32.5309
32.2327
31.9217
31.5931
31.2485
30.8834
30.5135
30.2092
29.7664
0.452817
0.216857
0.16906
0.16029
0.164531
0.175352
0.190489
0.209065
0.230811
0.255595
0.28339
0.314262
0.348364
0.38593
0.427275
0.472771
0.522776
0.577546
0.637235
0.701991
0.772007
0.847523
0.928808
1.01613
1.10975
1.20991
1.31684
1.43076
1.55195
1.68073
1.81658
1.95829
2.1058
2.26049
2.42259
2.59215
2.76911
2.9535
3.14545
3.34525
3.55301
3.76875
3.9926
4.22472
4.46527
4.71441
4.97228
5.23901
5.51474
5.79958
6.09366
6.39709
6.70995
7.03235
7.36437
7.70607
8.05751
8.41875
8.78982
9.17075
9.56154
9.96222
10.3728
10.7932
11.2234
11.6634
12.1132
12.5727
13.0419
13.5208
14.0093
14.5073
15.0149
15.532
16.0583
16.5936
17.1373
17.6884
18.246
18.8094
19.3781
19.9516
20.529
21.1099
21.6933
22.2786
22.8649
23.4515
24.0375
24.6222
25.2051
25.7859
26.3646
26.9416
27.5179
28.0921
28.6588
29.2174
29.7666
30.3055
30.8329
31.3477
31.8487
32.335
32.8054
33.2589
33.6945
34.1113
34.5082
34.8845
35.2393
35.5719
35.8817
36.1681
36.4307
36.6689
36.8826
37.0716
37.2357
37.3752
37.4901
37.5811
37.648
37.6876
37.6991
37.6878
37.6562
37.6024
37.5276
37.432
37.3167
37.1823
37.0299
36.8605
36.675
36.4748
36.2608
36.0343
35.7962
35.5476
35.2898
35.0235
34.7496
34.4689
34.182
33.8896
33.5924
33.2908
32.9853
32.6764
32.3641
32.049
31.7309
31.4102
31.0869
30.7611
30.4332
30.1039
29.7768
29.4664
29.1926
28.9356
28.6814
28.4249
28.1624
27.8923
27.6136
27.3258
27.0284
26.721
26.4032
26.0765
25.7416
25.3989
25.0482
24.6938
24.3374
24.0013
23.7314
23.5309
0.676092
0.304943
0.231011
0.213212
0.213364
0.222456
0.237348
0.256801
0.280304
0.307655
0.338793
0.373727
0.412507
0.455213
0.501947
0.552826
0.607957
0.667433
0.73133
0.799732
0.872744
0.950496
1.03314
1.12082
1.21369
1.31192
1.41561
1.52487
1.63974
1.76011
1.8864
2.01945
2.15963
2.30664
2.46061
2.62176
2.79005
2.96526
3.14725
3.33568
3.53158
3.73519
3.94667
4.16617
4.39382
4.62975
4.87409
5.12696
5.38844
5.65863
5.93763
6.22553
6.52242
6.8284
7.14354
7.46792
7.80161
8.14467
8.49716
8.85912
9.23059
9.61162
10.0022
10.4024
10.8122
11.2316
11.6606
12.0991
12.5472
13.0048
13.4718
13.9481
14.4335
14.928
15.4312
15.9427
16.4621
16.9889
17.5223
18.0621
18.6077
19.1585
19.7141
20.2739
20.8373
21.4036
21.9721
22.5423
23.1134
23.6849
24.2562
24.8268
25.3965
25.965
26.5313
27.0935
27.6495
28.1982
28.7384
29.2691
29.7891
30.2973
30.7926
31.2739
31.74
32.19
32.6227
33.0372
33.4326
33.8079
34.1623
34.495
34.8054
35.0929
35.3569
35.5971
35.813
36.0045
36.1715
36.3139
36.432
36.5259
36.5958
36.6385
36.6532
36.646
36.6174
36.5669
36.4951
36.4024
36.2897
36.1577
36.0074
35.8397
35.6557
35.4564
35.2427
35.0159
34.7769
34.5268
34.2665
33.9971
33.7192
33.4338
33.1415
32.843
32.5389
32.2297
31.916
31.5981
31.2763
30.951
30.6224
30.2906
29.9557
29.6179
29.2773
28.9346
28.5919
28.256
27.9346
27.6211
27.3085
26.9927
26.6699
26.3406
26.0042
25.6604
25.3091
24.9502
24.5839
24.2111
23.8328
23.45
23.0644
22.6806
22.3037
21.9547
21.6639
21.4667
0.860809
0.38646
0.29292
0.268568
0.266074
0.274312
0.289466
0.309935
0.335025
0.364434
0.398031
0.435759
0.477587
0.523497
0.573471
0.6275
0.685576
0.747707
0.813911
0.884235
0.958754
1.03757
1.12081
1.20863
1.30119
1.39865
1.5012
1.60899
1.72222
1.84109
1.9659
2.09697
2.23448
2.37849
2.52904
2.68614
2.84999
3.0209
3.19915
3.38516
3.57887
3.78035
3.98972
4.20713
4.43272
4.66666
4.90909
5.16022
5.42006
5.68871
5.96628
6.2529
6.54868
6.85375
7.16821
7.49219
7.82578
8.1691
8.52224
8.8853
9.25836
9.64151
10.0348
10.4384
10.8522
11.2763
11.7108
12.1556
12.6108
13.0762
13.552
14.0378
14.5337
15.0393
15.5545
16.0789
16.6122
17.1538
17.7033
18.2604
18.8246
19.3953
19.972
20.5543
21.1415
21.7329
22.3279
22.9259
23.5261
24.1278
24.7304
25.3331
25.9349
26.535
27.1321
27.7248
28.3115
28.8911
29.4625
30.0242
30.5752
31.1141
31.6398
32.151
32.6466
33.1254
33.5861
34.0278
34.4493
34.8497
35.228
35.5834
35.9151
36.2224
36.5048
36.7617
36.9927
37.1976
37.3761
37.5283
37.6542
37.7539
37.8276
37.8723
37.8878
37.879
37.8468
37.7908
37.7115
37.6096
37.4857
37.3408
37.1757
36.9915
36.7892
36.5699
36.3346
36.0845
35.8206
35.544
35.2557
34.9568
34.6481
34.3304
34.0047
33.6715
33.3317
32.9858
32.6343
32.2778
31.9166
31.5512
31.1818
30.8085
30.4316
30.0512
29.6676
29.2813
28.8937
28.5083
28.1285
27.752
27.3753
26.9963
26.6128
26.2242
25.8301
25.4304
25.0252
24.6146
24.1991
23.7794
23.3569
22.9329
22.5097
22.0919
21.685
21.3085
20.9833
20.7384
1.00284
0.459364
0.352158
0.323046
0.318693
0.326356
0.341737
0.362935
0.389096
0.419816
0.454891
0.494206
0.537675
0.585224
0.636781
0.692283
0.75168
0.814948
0.882089
0.953143
1.02818
1.10732
1.1907
1.27848
1.37085
1.46801
1.57016
1.67752
1.79032
1.90878
2.03315
2.16365
2.30047
2.44375
2.59365
2.75033
2.91401
3.08491
3.26327
3.44931
3.64316
3.84497
4.05488
4.27307
4.4997
4.73492
4.9789
5.23173
5.49365
5.76486
6.04552
6.3358
6.63588
6.94593
7.2661
7.59659
7.93754
8.28913
8.65152
9.02485
9.40929
9.80497
10.212
10.6306
11.0607
11.5025
11.9561
12.4215
12.8987
13.3877
13.8885
14.4009
14.9249
15.4602
16.0065
16.5637
17.1314
17.7091
18.2965
18.893
19.4983
20.1118
20.733
21.3612
21.9957
22.6359
23.2811
23.9303
24.5829
25.2379
25.8944
26.5514
27.2077
27.862
28.5132
29.1598
29.8005
30.4338
31.0584
31.673
32.2761
32.8664
33.4425
34.0029
34.5465
35.0717
35.5773
36.0621
36.5249
36.9645
37.3798
37.77
38.134
38.4712
38.7808
39.0622
39.3149
39.5387
39.7332
39.8984
40.0342
40.1408
40.2184
40.2636
40.2779
40.2644
40.2243
40.1575
40.0644
39.9459
39.8027
39.6358
39.4461
39.2346
39.0026
38.7512
38.4815
38.1946
37.8919
37.5744
37.2433
36.8995
36.5442
36.1784
35.8029
35.4185
35.0262
34.6266
34.2204
33.8081
33.3902
32.9673
32.5396
32.1076
31.6715
31.2316
30.7882
30.3419
29.8937
29.4455
28.9993
28.5543
28.1088
27.6614
27.2112
26.7575
26.3002
25.8395
25.3755
24.9087
24.4396
23.9691
23.4987
23.0301
22.5659
22.1104
21.671
21.2629
20.9006
20.6004
1.1132
0.525652
0.408477
0.375281
0.36912
0.375985
0.391218
0.412649
0.439264
0.470554
0.506246
0.546173
0.590215
0.638273
0.690258
0.746097
0.805735
0.869146
0.936341
1.00736
1.0823
1.16128
1.24444
1.33197
1.42406
1.52093
1.6228
1.72989
1.84243
1.96066
2.08481
2.21509
2.35172
2.49488
2.64479
2.80166
2.9657
3.13715
3.31624
3.50319
3.69819
3.90144
4.11315
4.33353
4.56279
4.80115
5.0488
5.30597
5.5729
5.84982
6.13698
6.4346
6.74292
7.06217
7.3926
7.73444
8.08793
8.45331
8.8308
9.22063
9.62303
10.0382
10.4663
10.9076
11.3622
11.8302
12.3119
12.8071
13.3161
13.8389
14.3753
14.9255
15.4891
16.0661
16.6562
17.2592
17.8746
18.5022
19.1414
19.7919
20.453
21.1242
21.8048
22.4941
23.1914
23.8959
24.6066
25.3227
26.0431
26.7668
27.4926
28.2193
28.9456
29.67
30.391
31.1072
31.8171
32.5191
33.2117
33.8933
34.5623
35.2173
35.8565
36.4784
37.0815
37.6643
38.2252
38.7629
39.276
39.7632
40.2232
40.6551
41.0577
41.4301
41.7716
42.0815
42.3592
42.6042
42.8163
42.9954
43.1413
43.2542
43.3343
43.3781
43.3885
43.3668
43.3147
43.2323
43.1201
42.9791
42.8099
42.6137
42.3916
42.1446
41.8741
41.5813
41.2675
40.9339
40.5818
40.2126
39.8274
39.4276
39.0141
38.5882
38.1508
37.7031
37.246
36.7802
36.3065
35.8257
35.3384
34.8453
34.3468
33.8435
33.3359
32.8244
32.3095
31.7917
31.272
30.7517
30.232
29.713
29.194
28.6744
28.1535
27.6313
27.1078
26.5832
26.058
25.5328
25.0083
24.4855
23.9658
23.4513
22.9446
22.4503
21.9748
21.531
21.1279
20.7716
1.33582
0.613288
0.469277
0.426931
0.416947
0.42186
0.43615
0.457148
0.483582
0.514794
0.550422
0.590247
0.634121
0.681933
0.733597
0.789044
0.848234
0.911154
0.977828
1.04831
1.1227
1.20113
1.28375
1.37075
1.46232
1.55869
1.66007
1.7667
1.87882
1.99665
2.12043
2.25039
2.38678
2.52981
2.67973
2.83677
3.0012
3.17326
3.3532
3.54129
3.73779
3.94295
4.15703
4.3803
4.61303
4.8555
5.10799
5.37079
5.6442
5.92853
6.22407
6.53115
6.85007
7.18116
7.52473
7.88111
8.25061
8.63356
9.03027
9.44104
9.86618
10.306
10.7607
11.2306
11.7159
12.2169
12.7336
13.2663
13.815
14.3798
14.9607
15.5577
16.1706
16.7992
17.4434
18.1029
18.7773
19.4661
20.1689
20.8851
21.6142
22.3554
23.1079
23.871
24.6438
25.4252
26.2142
27.0098
27.8106
28.6155
29.423
30.2317
31.04
31.8463
32.649
33.4464
34.2367
35.0182
35.7891
36.5477
37.2922
38.0208
38.7317
39.423
40.0932
40.7403
41.3629
41.9592
42.5278
43.0671
43.5758
44.0528
44.4967
44.9066
45.2816
45.621
45.924
46.1903
46.4193
46.6111
46.7654
46.8823
46.962
47.0012
47.0038
46.9698
46.9011
46.798
46.6612
46.4916
46.2902
46.058
45.7964
45.5065
45.1898
44.8476
44.4813
44.0923
43.6821
43.2522
42.8038
42.3383
41.857
41.3613
40.8523
40.3311
39.799
39.2567
38.7054
38.1459
37.5791
37.0057
36.4265
35.8422
35.2535
34.6611
34.0656
33.4677
32.8683
32.2686
31.6696
31.0718
30.4752
29.8796
29.2849
28.6914
28.0992
27.5088
26.9208
26.3358
25.7548
25.1789
24.6095
24.0486
23.4991
22.9652
22.4524
21.9714
21.527
21.1182
1.65337
0.718996
0.533265
0.476957
0.461079
0.462831
0.475357
0.495282
0.520979
0.551597
0.586663
0.625897
0.669121
0.716214
0.767093
0.821703
0.880019
0.942044
1.00782
1.0774
1.15091
1.22846
1.31023
1.39639
1.48715
1.58272
1.68333
1.78922
1.90062
2.01778
2.14093
2.27034
2.40627
2.54898
2.69874
2.85584
3.02054
3.19315
3.37396
3.56328
3.76144
3.96878
4.18562
4.4123
4.64915
4.89653
5.1548
5.42433
5.7055
5.9987
6.30433
6.62277
6.95445
7.29977
7.65915
8.033
8.42175
8.82581
9.24559
9.68149
10.1339
10.6032
11.0898
11.594
12.116
12.6562
13.2148
13.792
14.388
15.0027
15.6364
16.2888
16.9599
17.6496
18.3576
19.0835
19.8269
20.5875
21.3645
22.1573
22.9652
23.7874
24.623
25.471
26.3302
27.1996
28.0779
28.9637
29.8555
30.7519
31.6513
32.5519
33.452
34.3496
35.2429
36.13
37.0089
37.8776
38.7341
39.5764
40.4024
41.2103
41.9978
42.7631
43.5042
44.2191
44.906
45.5632
46.1889
46.7816
47.3396
47.8617
48.3465
48.793
49.2002
49.5672
49.8933
50.1781
50.421
50.622
50.7808
50.8977
50.972
51.0025
50.9918
50.9403
50.8494
50.7197
50.5521
50.3476
50.1073
49.8324
49.5243
49.1844
48.8142
48.4151
47.9888
47.5367
47.0606
46.5619
46.0421
45.5028
44.9455
44.3716
43.7824
43.1793
42.5637
41.9366
41.2992
40.6527
39.9981
39.3363
38.6684
37.9954
37.3181
36.6374
35.9543
35.2696
34.5843
33.8996
33.2167
32.5362
31.8586
31.1842
30.5134
29.8466
29.1841
28.5267
27.875
27.2298
26.5921
25.9632
25.3443
24.7377
24.1458
23.5724
23.0224
22.5042
22.0196
21.5629
1.97753
0.823465
0.593862
0.522449
0.499763
0.497865
0.50807
0.526461
0.551016
0.580675
0.614844
0.653175
0.695455
0.741551
0.791379
0.844894
0.902084
0.962965
1.02759
1.09602
1.16839
1.24482
1.32548
1.41054
1.5002
1.59471
1.69429
1.7992
1.9097
2.02596
2.14827
2.27693
2.41224
2.55451
2.70405
2.86117
3.02619
3.19943
3.38122
3.57191
3.77201
3.98195
4.20209
4.43284
4.67465
4.92794
5.19317
5.4708
5.7613
6.06517
6.38289
6.71498
7.06194
7.4243
7.80259
8.19733
8.60906
9.03829
9.48556
9.95136
10.4362
10.9405
11.4648
12.0095
12.5749
13.1614
13.7692
14.3987
15.05
15.7232
16.4183
17.1354
17.8742
18.6346
19.4162
20.2187
21.0416
21.8842
22.7459
23.6259
24.5233
25.4371
26.3662
27.3093
28.2653
29.2326
30.2097
31.1951
32.187
33.1837
34.1833
35.1836
36.1828
37.1787
38.169
39.1517
40.1244
41.0849
42.031
42.9604
43.8708
44.76
45.6257
46.4658
47.2781
48.0605
48.8109
49.5275
50.2084
50.8518
51.4561
52.0199
52.5417
53.0205
53.4552
53.8449
54.1889
54.4867
54.7378
54.942
55.0992
55.2095
55.2723
55.2878
55.257
55.1807
55.0605
54.8972
54.6917
54.4452
54.1589
53.8342
53.4726
53.0755
52.6445
52.1814
51.6878
51.1654
50.616
50.0413
49.4429
48.8226
48.182
47.5226
46.8461
46.1541
45.4479
44.7291
43.9989
43.2586
42.5097
41.7532
40.9904
40.2226
39.4509
38.6765
37.9005
37.1241
36.3484
35.5748
34.8045
34.0386
33.2779
32.523
31.7747
31.0335
30.3001
29.5754
28.8602
28.1553
27.4617
26.7807
26.1137
25.4625
24.8295
24.218
23.6319
23.0778
22.5553
22.0559
2.29065
0.920805
0.648119
0.561728
0.531954
0.526282
0.533957
0.550568
0.57374
0.602217
0.635289
0.67254
0.713721
0.758681
0.807331
0.85963
0.915573
0.975187
1.03852
1.10567
1.17675
1.25192
1.33133
1.41511
1.5035
1.59675
1.69513
1.79894
1.90855
2.02395
2.1455
2.27353
2.40837
2.55036
2.69985
2.8572
3.02278
3.19695
3.3801
3.57267
3.77547
3.98885
4.2133
4.44932
4.69746
4.95828
5.23232
5.52015
5.82234
6.13951
6.47226
6.82122
7.18703
7.57033
7.97178
8.39203
8.83172
9.29151
9.77203
10.2739
10.7977
11.3441
11.9135
12.5064
13.1234
13.7647
14.4308
15.1219
15.8382
16.5798
17.3467
18.1388
18.9559
19.7978
20.6641
21.5542
22.4675
23.4033
24.3607
25.3386
26.3361
27.3519
28.3846
29.4327
30.4947
31.5688
32.6533
33.7463
34.8456
35.9493
37.0552
38.1608
39.264
40.3621
41.4528
42.5337
43.6021
44.6556
45.6916
46.7076
47.7012
48.6699
49.6112
50.5228
51.4024
52.2476
53.0564
53.8266
54.5564
55.2439
55.8874
56.4854
57.0365
57.5395
57.9934
58.3973
58.7505
59.0525
59.3029
59.5015
59.6483
59.7432
59.7863
59.7779
59.7183
59.6082
59.4501
59.2448
58.9933
58.6968
58.3567
57.9745
57.5516
57.0899
56.5909
56.0566
55.4887
54.8892
54.2598
53.6025
52.919
52.2113
51.4812
50.7304
49.9607
49.174
48.3717
47.5556
46.7273
45.8883
45.0401
44.1842
43.322
42.4552
41.5851
40.7132
39.8408
38.9695
38.1007
37.2357
36.3763
35.5235
34.6787
33.8428
33.0168
32.2015
31.3979
30.6068
29.8293
29.0661
28.3185
27.5875
26.8744
26.181
25.5091
24.8617
24.2417
23.6543
23.0971
22.5609
2.58148
1.0081
0.694724
0.594131
0.557506
0.548081
0.553176
0.56791
0.589589
0.616781
0.64867
0.684778
0.724816
0.768614
0.816076
0.867159
0.921868
0.980247
1.04229
1.10811
1.17787
1.25178
1.3301
1.41279
1.50013
1.59236
1.68973
1.7925
1.90091
2.01534
2.13615
2.26368
2.39831
2.54044
2.69049
2.84889
3.01617
3.19264
3.37874
3.57492
3.78191
4.00038
4.23098
4.47436
4.73123
5.00234
5.28831
5.58979
5.9075
6.24217
6.59454
6.96538
7.35547
7.76559
8.19652
8.64906
9.12399
9.62207
10.1441
10.6907
11.2627
11.8606
12.4852
13.1369
13.8163
14.5238
15.2597
16.0243
16.8177
17.64
18.4911
19.3709
20.279
21.2151
22.1785
23.1687
24.1846
25.2255
26.2901
27.3772
28.4854
29.6133
30.7591
31.921
33.0973
34.2857
35.4842
36.6905
37.9022
39.117
40.3322
41.5454
42.7537
43.9544
45.1449
46.3223
47.4838
48.6267
49.7483
50.8457
51.9164
52.9576
53.9668
54.9415
55.8791
56.7775
57.6343
58.4475
59.215
59.935
60.6058
61.2258
61.7938
62.3086
62.7691
63.1746
63.5245
63.8184
64.0559
64.2368
64.3613
64.4295
64.4414
64.3984
64.2979
64.1439
63.9379
63.6809
63.3739
63.0183
62.6156
62.1674
61.6754
61.1413
60.567
59.9544
59.3054
58.6222
57.9066
57.1607
56.3866
55.5861
54.7614
53.9142
53.0467
52.1608
51.2583
50.3411
49.411
48.4697
47.5191
46.5607
45.5965
44.6281
43.6574
42.686
41.7156
40.7481
39.785
38.8282
37.8793
36.9399
36.0116
35.0956
34.1932
33.3055
32.4335
31.5784
30.7411
29.9226
29.1239
28.3462
27.5904
26.8581
26.1508
25.4709
24.8203
24.2031
23.6155
23.0486
2.84154
1.08355
0.73313
0.619587
0.576623
0.563628
0.566236
0.579122
0.599316
0.625233
0.655965
0.690974
0.72994
0.772674
0.819074
0.869061
0.922664
0.979989
1.04101
1.10584
1.1746
1.24741
1.32441
1.40588
1.4921
1.58334
1.67992
1.78216
1.89035
2.00488
2.12617
2.25454
2.39039
2.53421
2.68648
2.84767
3.01819
3.19841
3.38919
3.59129
3.8055
4.03255
4.27318
4.52817
4.79836
5.08463
5.38786
5.70884
6.0484
6.40745
6.78688
7.18763
7.61062
8.05677
8.52702
9.02228
9.54347
10.0915
10.6671
11.2713
11.9047
12.5681
13.262
13.9872
14.744
15.5329
16.3541
17.2079
18.0941
19.0129
19.9639
20.9469
21.9612
23.0063
24.0813
25.1854
26.3172
27.4757
28.6594
29.8666
31.0957
32.3447
33.6117
34.8944
36.1906
37.498
38.8139
40.1357
41.4608
42.7863
44.1094
45.4272
46.7367
48.0348
49.3185
50.5849
51.8309
53.0535
54.2499
55.417
56.552
57.6523
58.7152
59.738
60.7184
61.6538
62.5422
63.3814
64.1694
64.9045
65.5851
66.2097
66.777
67.2861
67.736
68.1262
68.4561
68.7254
68.934
69.0818
69.1692
69.1961
69.164
69.0702
68.9166
68.7064
68.4408
68.1208
67.7476
67.3229
66.8482
66.3251
65.7555
65.1411
64.484
63.7862
63.0497
62.2768
61.4695
60.6299
59.7603
58.8628
57.9394
56.9923
56.0236
55.0355
54.0301
53.0094
51.9754
50.9302
49.8756
48.8137
47.7465
46.676
45.6042
44.5333
43.4652
42.402
41.3457
40.2982
39.2615
38.2375
37.2281
36.2347
35.2588
34.3019
33.3652
32.4499
31.5569
30.6874
29.8422
29.0223
28.2286
27.4621
26.7241
26.0162
25.3397
24.6975
24.0847
23.4939
3.06533
1.14614
0.763216
0.638333
0.58977
0.57355
0.57391
0.585114
0.603966
0.628756
0.658509
0.692604
0.730704
0.772634
0.818323
0.867569
0.920397
0.976834
1.03692
1.10087
1.1689
1.24119
1.31795
1.39934
1.48564
1.57718
1.67433
1.77743
1.88689
2.00311
2.12649
2.25719
2.3959
2.54324
2.69982
2.86627
3.04329
3.23159
3.43194
3.64523
3.8723
4.11404
4.37139
4.64528
4.93676
5.24691
5.57665
5.92704
6.29914
6.69405
7.11287
7.5567
8.0266
8.52363
9.04885
9.60328
10.1879
10.8038
11.4517
12.1325
12.8471
13.596
14.3799
15.1993
16.0544
16.9457
17.8731
18.8367
19.8362
20.8713
21.9416
23.0463
24.1847
25.3557
26.5581
27.7908
29.052
30.3402
31.6535
32.99
34.3475
35.7237
37.1161
38.5223
39.9396
41.3651
42.7959
44.2292
45.6618
47.0907
48.5127
49.9246
51.3232
52.7053
54.0676
55.4069
56.7201
58.0041
59.2558
60.4723
61.6507
62.7883
63.8823
64.9304
65.9299
66.8788
67.7748
68.6159
69.4004
70.1267
70.7932
71.3987
71.9422
72.4228
72.8398
73.1928
73.4815
73.7059
73.8658
73.9614
73.9936
73.9631
73.8675
73.7073
73.4865
73.2062
72.8677
72.4722
72.0213
71.5167
70.9599
70.3527
69.6969
68.9945
68.2474
67.4579
66.628
65.7601
64.8563
63.919
62.9503
61.9525
60.9278
59.8785
58.8068
57.7152
56.6058
55.4809
54.3428
53.1937
52.0357
50.871
49.7018
48.5305
47.3594
46.191
45.0275
43.8713
42.7247
41.59
40.4693
39.3648
38.2785
37.2123
36.168
35.1472
34.1512
33.1814
32.2387
31.3242
30.4387
29.5829
28.7574
27.9629
27.2002
26.4704
25.7738
25.1126
24.481
23.8736
3.24835
1.19474
0.78487
0.650722
0.597596
0.578653
0.577261
0.587125
0.604953
0.628947
0.658107
0.691698
0.729385
0.77095
0.816177
0.865104
0.917786
0.974251
1.0346
1.09899
1.16762
1.2407
1.31844
1.40099
1.48876
1.58215
1.68157
1.78748
1.90034
2.02066
2.149
2.28596
2.43214
2.58828
2.75513
2.93352
3.12432
3.32844
3.54683
3.78051
4.03053
4.29798
4.58399
4.88973
5.21644
5.56536
5.93765
6.33462
6.75763
7.20802
7.68716
8.19623
8.73638
9.30875
9.91442
10.5545
11.2298
11.9415
12.6903
13.4768
14.3018
15.1658
16.069
17.0118
17.994
19.0158
20.0768
21.1765
22.3145
23.4898
24.7017
25.9489
27.2301
28.544
29.8888
31.2627
32.6638
34.09
35.5389
37.0081
38.4951
39.9971
41.5114
43.035
44.5648
46.0979
47.631
49.1608
50.684
52.1975
53.6977
55.1814
56.6452
58.0857
59.4998
60.8841
62.2355
63.5509
64.8273
66.0618
67.2515
68.3939
69.4865
70.5269
71.5128
72.4423
73.3133
74.1242
74.8733
75.5594
76.1811
76.7375
77.2279
77.6516
78.0082
78.2976
78.5196
78.6748
78.7625
78.7836
78.7413
78.6297
78.4515
78.2096
77.905
77.5392
77.1137
76.6297
76.0892
75.4936
74.8448
74.1444
73.3944
72.5967
71.7533
70.8664
69.9383
68.9713
67.9676
66.9297
65.8597
64.7601
63.633
62.481
61.3063
60.1115
58.899
57.6713
56.4307
55.1799
53.921
52.6563
51.3884
50.1198
48.8533
47.5916
46.3372
45.0929
43.8616
42.6453
41.4466
40.2677
39.1113
37.9793
36.8738
35.7964
34.7488
33.7323
32.7479
31.7965
30.8787
29.9951
29.1459
28.3313
27.5516
26.8072
26.0979
25.4249
24.7818
24.166
3.40412
1.23288
0.799877
0.658055
0.60129
0.580278
0.577727
0.586884
0.604281
0.628049
0.657086
0.690845
0.72893
0.77108
0.81704
0.866856
0.920596
0.978364
1.04031
1.10664
1.17759
1.25347
1.3346
1.42136
1.51417
1.61353
1.71996
1.83407
1.95647
2.08788
2.22902
2.38071
2.54381
2.71926
2.90806
3.11129
3.33008
3.5656
3.81909
4.09183
4.38515
4.70043
5.03905
5.40241
5.79188
6.20875
6.65464
7.13116
7.63995
8.18274
8.7614
9.37681
10.0299
10.7217
11.453
12.2248
13.0377
13.8922
14.789
15.7282
16.71
17.7344
18.8012
19.91
21.0603
22.2514
23.4823
24.7521
26.0594
27.4029
28.7809
30.1919
31.6338
33.1048
34.6025
36.1246
37.6688
39.2324
40.8127
42.4069
44.0122
45.6255
47.2437
48.8637
50.4822
52.0959
53.7016
55.296
56.8756
58.4371
59.9772
61.4925
62.9799
64.436
65.8577
67.2419
68.5856
69.8861
71.1403
72.3457
73.4997
74.5998
75.6441
76.6304
77.5569
78.4217
79.2233
79.9603
80.6315
81.236
81.7727
82.2411
82.6408
82.9713
83.2327
83.4254
83.5486
83.6049
83.5913
83.5137
83.3634
83.1485
82.868
82.5232
82.1154
81.6463
81.117
80.5295
79.8854
79.1864
78.4342
77.6304
76.777
75.8758
74.9289
73.9385
72.9068
71.8362
70.729
69.5876
68.4143
67.2113
65.9811
64.7261
63.4487
62.1516
60.8374
59.5088
58.1683
56.8188
55.4624
54.1016
52.7392
51.3781
50.0214
48.672
47.3329
46.0071
44.6965
43.404
42.133
40.8865
39.667
38.477
37.3185
36.1937
35.104
34.0509
33.0351
32.0574
31.1183
30.2178
29.3559
28.5318
27.7453
26.9965
26.2842
25.6089
24.9633
24.3493
3.532
1.26018
0.80828
0.66098
0.6021
0.580277
0.577634
0.587021
0.605006
0.629677
0.659958
0.69523
0.73513
0.779464
0.828153
0.881223
0.938787
1.00104
1.06823
1.14067
1.21876
1.30294
1.39373
1.49169
1.59745
1.71174
1.83531
1.96902
2.11381
2.27067
2.4407
2.62506
2.82501
3.0419
3.27714
3.53219
3.80861
4.10799
4.43194
4.78216
5.16033
5.56816
6.00733
6.47947
6.98618
7.52903
8.10964
8.72961
9.39053
10.0939
10.8416
11.6338
12.4708
13.353
14.2804
15.2532
16.2713
17.3343
18.4417
19.5931
20.7875
22.024
23.3014
24.6185
25.9738
27.3657
28.7926
30.2525
31.7436
33.2637
34.8108
36.3825
37.9765
39.5903
41.2214
42.8672
44.5249
46.1918
47.8651
49.5418
51.219
52.8937
54.5627
56.2231
57.8717
59.5054
61.1211
62.7155
64.2857
65.8285
67.3409
68.8199
70.2624
71.6657
73.0268
74.3432
75.6121
76.8313
77.9981
79.1102
80.1656
81.1622
82.0984
82.9727
83.7835
84.5295
85.2094
85.8223
86.3676
86.8446
87.2527
87.5915
87.8617
88.0619
88.1935
88.2577
88.2504
88.1819
88.0378
87.8308
87.558
87.2208
86.8198
86.356
85.8308
85.2457
84.6019
83.9016
83.1462
82.3373
81.4765
80.5654
79.6058
78.5995
77.5484
76.4547
75.3206
74.1484
72.9405
71.6993
70.4268
69.1253
67.7973
66.4452
65.0716
63.6792
62.2706
60.8489
59.4165
57.9742
56.5263
55.0757
53.6255
52.179
50.7397
49.3109
47.8959
46.4982
45.124
43.7735
42.4484
41.1522
39.8876
38.6568
37.4624
36.3064
35.1904
34.1157
33.0827
32.0921
31.1441
30.2387
29.375
28.5517
27.7683
27.0242
26.3179
25.6493
25.01
24.407
3.63061
1.27512
0.810384
0.660817
0.602014
0.581034
0.579623
0.590852
0.611237
0.638877
0.672719
0.71218
0.756967
0.806987
0.862289
0.923038
0.989504
1.06206
1.14118
1.22743
1.32145
1.424
1.53591
1.65814
1.79172
1.9378
2.09765
2.27263
2.46421
2.67401
2.90371
3.15512
3.43011
3.73064
4.05871
4.4164
4.80579
5.22893
5.68782
6.18443
6.72071
7.29848
7.91932
8.58467
9.29588
10.0543
10.8608
11.7162