/*--------------------------------*- C++ -*----------------------------------*\
| =========                 |                                                 |
| \\      /  F ield         | OpenFOAM: The Open Source CFD Toolbox           |
|  \\    /   O peration     | Version:  2312                                  |
|   \\  /    A nd           | Website:  www.openfoam.com                      |
|    \\/     M anipulation  |                                                 |
\*---------------------------------------------------------------------------*/
FoamFile
{
    version     2.0;
    format      ascii;
    arch        "LSB;label=32;scalar=64";
    class       volScalarField;
    location    "200";
    object      k;
}
// * * * * * * * * * * * * * * * * * * * * * * * * * * * * * * * * * * * * * //

dimensions      [0 2 -2 0 0 0 0];

internalField   nonuniform List<scalar> 
12225
(
0.308577
0.226137
0.18158
0.152223
0.133259
0.121431
0.113639
0.108051
0.103762
0.1003
0.0974275
0.0950201
0.093028
0.0913922
0.0901726
0.0892737
0.0891047
0.0886992
0.352584
0.255159
0.191001
0.157055
0.137422
0.125016
0.116356
0.109718
0.104296
0.0997028
0.0957463
0.0923058
0.0893209
0.086673
0.0844245
0.0823169
0.0806731
0.0792745
0.35828
0.290218
0.233322
0.195692
0.171255
0.154718
0.142837
0.133738
0.126397
0.120275
0.115066
0.110566
0.106657
0.103204
0.100205
0.0974623
0.0950998
0.0927666
0.361093
0.310635
0.263692
0.227392
0.201069
0.181823
0.167358
0.156084
0.146982
0.139427
0.133031
0.12753
0.122755
0.118555
0.11487
0.111547
0.108644
0.10584
0.3625
0.322852
0.283681
0.250487
0.22438
0.204095
0.188183
0.175457
0.165051
0.156367
0.148999
0.142661
0.137153
0.132317
0.128055
0.124241
0.120881
0.117715
0.363255
0.330517
0.297217
0.267428
0.242557
0.222284
0.205784
0.192237
0.180971
0.17147
0.163357
0.156348
0.15024
0.144869
0.140122
0.135886
0.13213
0.128642
0.363659
0.335491
0.306638
0.279981
0.256763
0.237112
0.220614
0.20674
0.194996
0.184967
0.176326
0.168814
0.162236
0.156432
0.151286
0.146691
0.142595
0.138818
0.363868
0.338777
0.313301
0.289337
0.267862
0.249151
0.233038
0.2192
0.207287
0.196981
0.188012
0.180156
0.173235
0.167101
0.161639
0.156751
0.15237
0.148344
0.363967
0.340953
0.318034
0.296314
0.276498
0.25886
0.243358
0.229804
0.217958
0.207583
0.198462
0.190408
0.183265
0.1769
0.171206
0.166091
0.161483
0.157253
0.364006
0.342382
0.321372
0.301486
0.283162
0.266608
0.251832
0.238721
0.227112
0.216829
0.207702
0.199578
0.192322
0.18582
0.179973
0.174698
0.169922
0.165535
0.364014
0.343299
0.323689
0.305268
0.288234
0.272705
0.258687
0.246106
0.234846
0.224773
0.215755
0.207666
0.200394
0.193838
0.187912
0.18254
0.177655
0.173159
0.364011
0.343822
0.325127
0.307749
0.291704
0.27702
0.263678
0.251613
0.24073
0.230922
0.22208
0.214099
0.206883
0.200344
0.194406
0.189
0.184063
0.179511
0.364004
0.344155
0.326122
0.309557
0.294332
0.280391
0.267675
0.256116
0.245627
0.236118
0.227494
0.219667
0.212554
0.206077
0.20017
0.194769
0.189819
0.185246
0.363996
0.344374
0.326843
0.310956
0.296467
0.283233
0.271152
0.260133
0.25009
0.240939
0.232597
0.224985
0.218032
0.211672
0.205844
0.200493
0.195568
0.191009
0.363989
0.344496
0.327303
0.311922
0.298031
0.285416
0.273923
0.263437
0.253858
0.245099
0.237083
0.229737
0.222996
0.216802
0.211102
0.205847
0.200992
0.196487
0.363984
0.344551
0.327549
0.312494
0.299029
0.28689
0.275884
0.265866
0.256717
0.248342
0.24066
0.2336
0.2271
0.221106
0.215569
0.210446
0.205697
0.201281
0.363981
0.344568
0.327651
0.312767
0.29955
0.287716
0.277048
0.267375
0.258562
0.250502
0.243106
0.236302
0.230026
0.224226
0.218854
0.21387
0.209238
0.204924
0.363979
0.344569
0.327677
0.312852
0.299734
0.288034
0.277526
0.268027
0.259393
0.251508
0.244278
0.237626
0.231487
0.225808
0.220542
0.21565
0.211095
0.206847
0.363979
0.344565
0.327659
0.312809
0.299654
0.287909
0.277349
0.267795
0.259106
0.251167
0.243886
0.237186
0.231003
0.225283
0.219979
0.215053
0.210469
0.206198
0.363982
0.344544
0.32755
0.312526
0.299114
0.287047
0.276123
0.266188
0.257118
0.248813
0.241189
0.234175
0.227707
0.221733
0.216206
0.211082
0.206327
0.201911
0.363986
0.344466
0.327228
0.311796
0.297855
0.285192
0.273654
0.263121
0.253493
0.244681
0.236607
0.229199
0.222391
0.216127
0.210352
0.205022
0.200094
0.195537
0.363994
0.344225
0.326403
0.310137
0.295242
0.281612
0.269165
0.257816
0.247481
0.23807
0.229497
0.221679
0.21454
0.208011
0.202029
0.196537
0.191487
0.186843
0.364001
0.343616
0.324617
0.306906
0.290544
0.275574
0.261978
0.249688
0.238602
0.228609
0.219595
0.211453
0.204083
0.197396
0.191315
0.185769
0.180701
0.176069
0.363989
0.342285
0.321213
0.301287
0.282923
0.266314
0.251458
0.238242
0.226509
0.216086
0.206808
0.198527
0.191109
0.184441
0.178426
0.17298
0.168033
0.163541
0.363901
0.339668
0.315264
0.292228
0.27139
0.253013
0.23699
0.223072
0.210974
0.200424
0.19118
0.183037
0.175826
0.169404
0.163656
0.158488
0.153817
0.149603
0.363618
0.334828
0.305352
0.278223
0.254661
0.23471
0.217936
0.203813
0.191851
0.181637
0.172836
0.165186
0.15848
0.152558
0.147291
0.142581
0.138339
0.134533
0.362909
0.325999
0.289014
0.256956
0.230975
0.210216
0.193582
0.180106
0.169022
0.159757
0.151893
0.14513
0.139243
0.134073
0.129489
0.125406
0.121727
0.118447
0.361263
0.309487
0.261541
0.224765
0.197903
0.178087
0.16317
0.151615
0.142376
0.134774
0.128371
0.122883
0.118109
0.113917
0.110192
0.106884
0.103879
0.101227
0.355887
0.276248
0.215134
0.177762
0.154165
0.138565
0.127644
0.119486
0.113028
0.107695
0.103161
0.0992357
0.0957873
0.0927411
0.0900049
0.087582
0.0853398
0.0833864
0.302816
0.220068
0.178771
0.152539
0.134434
0.121992
0.113306
0.106985
0.102164
0.0983167
0.0951203
0.0923866
0.0899983
0.0878898
0.0859963
0.0843055
0.0827475
0.0813544
0.000300058
0.000391191
0.000507004
0.000636405
0.000764294
0.000881545
0.000984349
0.00107232
0.00114818
0.00121313
0.0012692
0.00131869
0.00136394
0.00140805
0.00145746
0.00152788
0.0016428
0.00179037
0.00195981
0.00214832
0.00235676
0.00258737
0.00284282
0.0031257
0.00343818
0.00378192
0.00415794
0.00456669
0.00500774
0.0054798
0.00598073
0.00650783
0.00705786
0.00762721
0.00821189
0.0088084
0.00941332
0.0100237
0.0106352
0.0112447
0.0118495
0.0124474
0.0130365
0.013615
0.0141814
0.0147347
0.0152738
0.0157979
0.0163062
0.0167983
0.0172736
0.0177317
0.0181722
0.0185947
0.0189989
0.0193843
0.0197506
0.0200973
0.0204237
0.0207295
0.0210141
0.0212771
0.0215187
0.0217397
0.0219425
0.0221279
0.022295
0.0224446
0.0225768
0.0226917
0.0227892
0.0228694
0.0229319
0.0229764
0.0229972
0.0230169
0.0230107
0.0229955
0.0229556
0.0229016
0.022831
0.0227453
0.022644
0.0225276
0.022396
0.0222496
0.0220873
0.0219103
0.0217219
0.0215203
0.0213072
0.0210829
0.0208472
0.0206005
0.0203434
0.0200764
0.0198001
0.0195149
0.0192216
0.0189205
0.0186124
0.0182977
0.0179771
0.0176512
0.0173206
0.0169858
0.0166477
0.016307
0.0159649
0.0156232
0.0152876
0.0149874
0.0148347
0.0148064
0.014801
0.0147979
0.0147932
0.0147863
0.0147774
0.0147666
0.0147537
0.014739
0.0147228
0.0147052
0.0146865
0.0146667
0.0146461
0.0146246
0.0146025
0.0145796
0.0145563
0.0145324
0.0145082
0.0144834
0.0144582
0.0144325
0.0144066
0.0143804
0.0143538
0.014327
0.0142998
0.0142722
0.0142442
0.0142157
0.0141867
0.0141573
0.0141274
0.014097
0.014066
0.0140345
0.0140023
0.0139694
0.0139358
0.0139015
0.0138664
0.0138306
0.0137939
0.0137565
0.0137182
0.013679
0.0136387
0.0135978
0.013555
0.0135102
0.0134634
0.0134146
0.0133637
0.0133107
0.0132551
0.0131963
0.0131332
0.0130643
0.0129886
0.0129008
0.0128032
0.0126739
0.0125406
0.0123054
0.0121023
0.0114265
0.000537521
0.00062743
0.000845005
0.00107866
0.00129905
0.001504
0.00169661
0.0018803
0.00205807
0.00223429
0.00241225
0.00259414
0.00278148
0.00297569
0.00317874
0.00339347
0.00362262
0.00386611
0.00412341
0.00439486
0.00468172
0.00498577
0.00530893
0.00565289
0.00601902
0.00640822
0.00682105
0.00725784
0.00771851
0.00820262
0.00870939
0.00923786
0.00978702
0.0103558
0.0109407
0.0115405
0.0121538
0.0127793
0.0134158
0.0140622
0.0147174
0.0153804
0.0160503
0.0167261
0.0174069
0.0180918
0.0187799
0.0194703
0.0201621
0.0208543
0.021546
0.0222362
0.0229239
0.0236079
0.0242873
0.0249607
0.0256268
0.0262844
0.0269319
0.0275677
0.02819
0.0287969
0.0293863
0.0299559
0.0305039
0.0310329
0.0315456
0.0320408
0.0325179
0.0329761
0.0334147
0.0338331
0.0342302
0.0346051
0.0349571
0.0352872
0.0355922
0.035874
0.0361303
0.036362
0.0365688
0.0367509
0.0369081
0.0370405
0.0371475
0.0372299
0.0372838
0.037308
0.0373122
0.0372918
0.0372488
0.0371827
0.0370938
0.0369826
0.0368496
0.0366955
0.0365208
0.0363262
0.0361125
0.0358802
0.0356302
0.0353632
0.0350799
0.0347812
0.0344678
0.0341405
0.0338002
0.0334478
0.0330846
0.0327119
0.0323328
0.0319553
0.0315962
0.0312525
0.030909
0.0305607
0.0302066
0.029847
0.0294826
0.029114
0.0287419
0.0283669
0.0279896
0.0276107
0.0272306
0.0268499
0.0264692
0.0260888
0.0257093
0.0253311
0.0249546
0.0245802
0.0242081
0.0238385
0.0234719
0.0231085
0.0227487
0.0223928
0.0220409
0.0216934
0.0213504
0.0210119
0.0206778
0.0203485
0.0200242
0.0197051
0.0193914
0.0190831
0.0187803
0.0184829
0.018191
0.0179046
0.0176239
0.0173489
0.0170796
0.0168161
0.0165581
0.0163058
0.0160592
0.0158182
0.0155827
0.015353
0.0151278
0.0149069
0.0146905
0.014479
0.0142721
0.0140702
0.0138731
0.0136804
0.0134918
0.0133067
0.0131257
0.0129452
0.0127724
0.0125868
0.0124299
0.0122246
0.0120923
0.011759
0.000853124
0.00101006
0.0013614
0.00170136
0.00200752
0.00229018
0.00255944
0.00282268
0.00308535
0.00335156
0.00362424
0.00390538
0.00419628
0.00449797
0.00481142
0.0051376
0.0054773
0.0058308
0.00619832
0.00658037
0.00697794
0.00739234
0.00782511
0.00827781
0.00875194
0.00924882
0.00976939
0.010314
0.0108827
0.0114758
0.0120929
0.0127338
0.0133976
0.0140834
0.0147898
0.0155156
0.0162595
0.0170201
0.017796
0.0185857
0.0193876
0.0202003
0.0210223
0.0218523
0.0226888
0.0235305
0.0243761
0.0252244
0.0260741
0.026924
0.0277729
0.0286196
0.0294629
0.0303015
0.0311342
0.0319595
0.0327763
0.033583
0.0343782
0.0351606
0.0359286
0.0366808
0.0374162
0.0381336
0.0388326
0.0395124
0.0401723
0.0408108
0.0414269
0.0420194
0.0425871
0.043129
0.0436441
0.0441314
0.04459
0.0450196
0.0454188
0.0457876
0.046125
0.0464309
0.046705
0.0469472
0.0471574
0.0473357
0.0474818
0.0475955
0.0476768
0.0477215
0.0477359
0.0477212
0.0476766
0.0476023
0.0474988
0.0473668
0.0472069
0.04702
0.0468067
0.046568
0.0463047
0.0460177
0.0457079
0.0453763
0.0450239
0.0446517
0.0442607
0.043852
0.0434266
0.0429859
0.0425312
0.0420644
0.0415885
0.0411085
0.0406314
0.0401567
0.0396793
0.0391961
0.0387063
0.0382101
0.0377082
0.0372013
0.0366902
0.0361758
0.0356588
0.0351399
0.0346199
0.0340996
0.0335794
0.0330602
0.0325423
0.0320266
0.0315133
0.0310031
0.0304963
0.0299933
0.0294946
0.0290005
0.0285114
0.0280276
0.0275495
0.0270771
0.026611
0.0261506
0.0256963
0.0252485
0.0248074
0.0243732
0.0239461
0.0235264
0.0231137
0.0227083
0.02231
0.0219192
0.021536
0.0211604
0.0207923
0.0204317
0.0200787
0.0197332
0.0193953
0.0190649
0.018742
0.0184266
0.0181182
0.0178164
0.0175213
0.0172329
0.0169511
0.0166759
0.016407
0.0161443
0.0158876
0.0156366
0.0153916
0.0151504
0.0149181
0.0146829
0.0144712
0.0142315
0.0140685
0.0137494
0.00111761
0.00142523
0.00192046
0.00235759
0.00273887
0.00308729
0.00341892
0.00374423
0.00407036
0.00440225
0.00474317
0.00509519
0.00545946
0.00583659
0.00622692
0.0066307
0.00704817
0.00747964
0.00792562
0.008387
0.00886503
0.00936127
0.00987747
0.0104154
0.0109766
0.0115623
0.0121737
0.0128113
0.0134755
0.0141662
0.0148829
0.0156249
0.0163911
0.0171802
0.0179909
0.0188215
0.0196707
0.0205366
0.0214179
0.0223128
0.0232199
0.0241378
0.0250649
0.026
0.0269417
0.0278889
0.0288403
0.0297946
0.0307509
0.0317077
0.0326641
0.0336186
0.0345702
0.0355175
0.0364591
0.0373938
0.0383201
0.0392365
0.0401417
0.041034
0.0419122
0.0427746
0.0436201
0.0444473
0.0452547
0.046041
0.0468046
0.0475439
0.0482575
0.0489438
0.0496015
0.0502294
0.050826
0.0513904
0.0519216
0.0524185
0.0528804
0.0533065
0.0536961
0.0540489
0.0543645
0.0546427
0.0548833
0.0550863
0.0552518
0.0553796
0.05547
0.055519
0.0555325
0.0555111
0.0554546
0.0553635
0.0552385
0.0550802
0.0548895
0.0546673
0.0544145
0.0541322
0.0538214
0.0534832
0.0531186
0.0527288
0.052315
0.0518784
0.0514201
0.0509414
0.0504437
0.0499284
0.0493971
0.0488517
0.0482949
0.0477303
0.0471616
0.0465894
0.0460122
0.0454285
0.0448379
0.0442407
0.0436375
0.0430291
0.0424166
0.0418008
0.0411825
0.0405628
0.0399423
0.0393219
0.0387024
0.0380845
0.0374689
0.0368561
0.0362469
0.0356417
0.0350411
0.0344454
0.0338553
0.033271
0.0326929
0.0321215
0.0315571
0.0309999
0.0304502
0.029908
0.0293735
0.028847
0.0283287
0.0278187
0.0273171
0.0268242
0.0263397
0.0258634
0.0253957
0.0249367
0.0244866
0.0240455
0.023613
0.0231891
0.022774
0.0223677
0.0219701
0.0215812
0.0212009
0.0208291
0.0204657
0.0201103
0.0197629
0.0194233
0.0190916
0.0187675
0.0184509
0.0181418
0.0178401
0.0175455
0.0172583
0.0169776
0.0167061
0.0164385
0.0161899
0.0159307
0.0157432
0.0154247
0.00128857
0.00183784
0.00248266
0.00301294
0.00346528
0.00387413
0.00426048
0.00463744
0.00501378
0.00539545
0.0057864
0.00618904
0.00660471
0.007034
0.00747716
0.00793439
0.008406
0.0088926
0.00939512
0.00991487
0.0104535
0.0110127
0.0115944
0.0122003
0.0128319
0.0134902
0.014176
0.0148896
0.0156309
0.0163995
0.0171945
0.018015
0.0188597
0.0197274
0.0206165
0.0215256
0.0224532
0.0233979
0.0243582
0.0253327
0.0263202
0.0273193
0.0283288
0.0293476
0.0303743
0.031408
0.0324474
0.0334914
0.0345389
0.0355886
0.0366392
0.0376895
0.0387382
0.0397837
0.0408247
0.0418597
0.042887
0.043905
0.0449121
0.0459065
0.0468866
0.0478505
0.0487967
0.0497231
0.050628
0.0515096
0.0523658
0.053195
0.0539952
0.0547649
0.0555024
0.0562061
0.0568746
0.0575065
0.0581008
0.0586562
0.0591719
0.0596469
0.0600807
0.0604727
0.0608224
0.0611297
0.0613943
0.0616162
0.0617957
0.0619326
0.0620273
0.0620763
0.0620857
0.0620547
0.0619841
0.0618745
0.0617267
0.0615415
0.06132
0.0610632
0.0607721
0.060448
0.0600921
0.0597056
0.0592897
0.0588458
0.0583752
0.0578792
0.0573593
0.0568169
0.0562534
0.0556704
0.0550697
0.0544531
0.053823
0.0531822
0.0525332
0.0518772
0.0512141
0.0505436
0.049866
0.0491816
0.0484912
0.0477958
0.0470963
0.0463937
0.0456891
0.0449834
0.0442775
0.0435724
0.0428688
0.0421675
0.0414694
0.0407751
0.0400853
0.0394005
0.0387213
0.0380484
0.037382
0.0367228
0.036071
0.0354272
0.0347916
0.0341646
0.0335463
0.032937
0.0323369
0.031746
0.0311646
0.0305929
0.030031
0.0294789
0.0289367
0.0284042
0.0278817
0.027369
0.0268664
0.0263738
0.0258907
0.0254173
0.0249537
0.0244999
0.0240559
0.0236214
0.0231964
0.0227808
0.0223747
0.0219776
0.0215895
0.0212102
0.0208396
0.0204776
0.0201242
0.0197791
0.0194424
0.0191139
0.0187939
0.018482
0.0181799
0.0178854
0.0176073
0.0173293
0.0171105
0.0167821
0.00137451
0.00222819
0.00301852
0.00363706
0.00415645
0.00462082
0.00505525
0.00547523
0.00589108
0.00630989
0.00673649
0.00717402
0.00762436
0.00808862
0.00856747
0.00906149
0.00957141
0.0100982
0.0106432
0.0112079
0.0117941
0.0124035
0.0130378
0.0136985
0.0143865
0.0151028
0.0158475
0.0166207
0.0174221
0.0182509
0.0191064
0.0199875
0.0208929
0.0218216
0.0227723
0.0237437
0.0247345
0.0257435
0.0267696
0.0278114
0.028868
0.0299382
0.0310208
0.0321149
0.0332193
0.0343328
0.0354545
0.036583
0.0377172
0.0388558
0.0399973
0.0411404
0.0422836
0.0434251
0.0445635
0.0456968
0.0468233
0.047941
0.049048
0.0501422
0.0512216
0.052284
0.0533272
0.054349
0.0553473
0.0563197
0.0572642
0.0581787
0.059061
0.0599092
0.0607215
0.0614961
0.0622313
0.0629258
0.0635781
0.064187
0.0647514
0.0652706
0.0657436
0.06617
0.0665492
0.0668811
0.0671655
0.0674025
0.0675921
0.0677346
0.06783
0.067876
0.0678783
0.0678356
0.0677489
0.0676191
0.0674472
0.0672342
0.0669812
0.0666895
0.0663603
0.065995
0.0655949
0.0651613
0.0646958
0.0641998
0.0636748
0.0631223
0.0625439
0.0619411
0.0613155
0.0606688
0.0600028
0.0593194
0.0586207
0.057909
0.0571864
0.0564545
0.055714
0.0549655
0.0542094
0.0534465
0.0526777
0.051904
0.0511266
0.0503464
0.0495646
0.0487822
0.0480002
0.0472196
0.0464413
0.0456661
0.0448948
0.0441282
0.0433671
0.042612
0.0418637
0.0411225
0.0403892
0.0396641
0.0389477
0.0382404
0.0375426
0.0368545
0.0361764
0.0355085
0.0348511
0.0342043
0.0335682
0.032943
0.0323288
0.0317257
0.0311336
0.0305526
0.0299827
0.0294239
0.0288761
0.0283395
0.0278137
0.0272988
0.0267946
0.0263012
0.0258184
0.0253458
0.0248836
0.0244317
0.02399
0.0235581
0.0231361
0.0227238
0.022321
0.0219276
0.0215435
0.0211687
0.020803
0.0204465
0.0200993
0.0197615
0.0194342
0.0191168
0.0188145
0.0185187
0.0182703
0.0179361
0.00144483
0.00258825
0.0035083
0.00420709
0.00478691
0.00530009
0.00577542
0.00623052
0.00667717
0.00712359
0.00757557
0.00803713
0.00851097
0.00899895
0.00950242
0.0100225
0.0105605
0.0111176
0.0116953
0.0122952
0.012919
0.0135682
0.0142441
0.0149479
0.0156802
0.0164416
0.0172322
0.0180516
0.0188996
0.0197755
0.0206784
0.0216076
0.022562
0.0235406
0.0245425
0.0255666
0.0266119
0.0276774
0.0287621
0.029865
0.0309851
0.0321215
0.0332732
0.0344392
0.0356183
0.0368094
0.0380115
0.0392231
0.040443
0.0416697
0.0429017
0.0441374
0.045375
0.0466126
0.0478483
0.04908
0.0503054
0.0515225
0.0527287
0.0539217
0.055099
0.0562581
0.0573963
0.0585112
0.0596002
0.0606607
0.0616904
0.0626867
0.0636474
0.0645704
0.0654534
0.0662947
0.0670924
0.0678449
0.0685506
0.0692083
0.0698169
0.0703754
0.070883
0.0713391
0.0717434
0.0720955
0.0723954
0.0726432
0.0728391
0.0729834
0.073076
0.0731162
0.0731081
0.073051
0.0729459
0.072794
0.0725962
0.072354
0.0720686
0.0717414
0.0713737
0.0709671
0.0705231
0.0700433
0.0695292
0.0689824
0.0684047
0.0677976
0.0671629
0.0665023
0.0658174
0.0651101
0.0643822
0.0636355
0.0628721
0.0620941
0.0613034
0.0605018
0.0596905
0.0588705
0.0580428
0.0572082
0.0563679
0.055523
0.0546747
0.053824
0.0529723
0.0521204
0.0512696
0.0504209
0.0495752
0.0487334
0.0478964
0.047065
0.04624
0.045422
0.0446117
0.0438096
0.0430165
0.0422326
0.0414586
0.0406947
0.0399414
0.039199
0.0384677
0.0377478
0.0370396
0.0363431
0.0356585
0.0349859
0.0343255
0.0336773
0.0330412
0.0324174
0.0318057
0.0312063
0.0306189
0.0300436
0.0294803
0.0289288
0.028389
0.027861
0.0273444
0.0268391
0.0263451
0.0258621
0.02539
0.0249284
0.0244774
0.0240368
0.0236064
0.0231862
0.022776
0.0223757
0.0219854
0.021605
0.0212347
0.0208747
0.0205259
0.0201884
0.0198655
0.0195532
0.0192782
0.0189404
0.00180116
0.00295552
0.00395488
0.00471411
0.00534106
0.00589293
0.0064007
0.00688344
0.00735391
0.00782117
0.0082918
0.00877064
0.00926121
0.00976613
0.0102874
0.0108269
0.011386
0.0119663
0.0125693
0.0131967
0.0138498
0.0145298
0.0152379
0.0159749
0.0167414
0.0175376
0.0183635
0.019219
0.0201037
0.0210171
0.0219585
0.0229273
0.0239228
0.0249442
0.0259908
0.0270617
0.0281563
0.0292737
0.0304132
0.0315739
0.0327549
0.0339555
0.0351746
0.0364113
0.0376645
0.0389329
0.0402154
0.0415104
0.0428165
0.044132
0.0454552
0.0467842
0.0481168
0.0494509
0.0507841
0.0521141
0.0534383
0.0547539
0.0560583
0.0573486
0.0586219
0.0598754
0.061106
0.0623109
0.0634872
0.0646321
0.0657428
0.0668166
0.0678511
0.0688438
0.0697925
0.0706951
0.0715496
0.0723544
0.0731078
0.0738086
0.0744555
0.0750476
0.0755841
0.0760644
0.0764882
0.0768553
0.0771657
0.0774195
0.0776171
0.077759
0.0778449
0.077876
0.077854
0.0777794
0.0776532
0.0774768
0.0772514
0.0769785
0.0766595
0.0762959
0.0758895
0.0754416
0.0749542
0.0744288
0.0738671
0.0732711
0.0726424
0.0719829
0.0712943
0.0705786
0.0698374
0.0690728
0.0682864
0.0674803
0.0666564
0.0658168
0.0649634
0.064098
0.0632221
0.0623371
0.0614442
0.0605446
0.0596395
0.05873
0.0578176
0.0569033
0.0559883
0.0550739
0.0541612
0.0532512
0.052345
0.0514435
0.0505475
0.049658
0.0487758
0.0479015
0.0470358
0.0461794
0.0453328
0.0444965
0.043671
0.0428568
0.0420541
0.0412634
0.0404849
0.0397188
0.0389654
0.0382249
0.0374973
0.0367827
0.0360813
0.0353931
0.0347181
0.0340564
0.0334078
0.0327724
0.03215
0.0315406
0.0309442
0.0303604
0.0297893
0.0292307
0.0286844
0.0281503
0.0276282
0.0271179
0.0266193
0.026132
0.025656
0.0251911
0.0247369
0.0242934
0.0238607
0.0234385
0.0230268
0.0226258
0.0222355
0.0218564
0.0214889
0.0211338
0.020793
0.0204652
0.0201671
0.0198246
0.00220484
0.00327647
0.0043317
0.0051389
0.00580296
0.00638509
0.00691821
0.00742259
0.00791172
0.00839527
0.00888042
0.00937262
0.00987608
0.010394
0.0109291
0.0114834
0.0120588
0.012657
0.0132795
0.0139279
0.0146033
0.0153069
0.0160395
0.0168019
0.0175945
0.0184176
0.0192713
0.0201554
0.0210697
0.0220139
0.0229877
0.0239906
0.0250222
0.026082
0.0271696
0.0282843
0.0294257
0.0305931
0.0317859
0.0330035
0.0342451
0.0355097
0.0367966
0.0381046
0.0394326
0.0407792
0.042143
0.0435225
0.0449158
0.0463211
0.0477362
0.0491589
0.0505868
0.0520173
0.0534476
0.0548749
0.0562963
0.0577086
0.0591086
0.0604932
0.061859
0.0632028
0.0645213
0.0658112
0.0670693
0.0682926
0.069478
0.0706226
0.0717239
0.0727791
0.073786
0.0747423
0.075646
0.0764953
0.0772887
0.0780248
0.0787024
0.0793206
0.0798787
0.0803761
0.0808127
0.0811884
0.0815031
0.0817572
0.0819511
0.0820855
0.0821607
0.082178
0.0821387
0.0820431
0.081893
0.0816897
0.0814347
0.0811297
0.0807761
0.0803758
0.0799304
0.0794417
0.0789115
0.0783417
0.0777342
0.0770908
0.0764135
0.0757042
0.0749649
0.0741974
0.0734036
0.0725855
0.0717451
0.0708841
0.0700047
0.0691088
0.0681985
0.0672755
0.0663416
0.0653983
0.0644471
0.0634894
0.0625264
0.0615594
0.0605899
0.0596189
0.058648
0.0576781
0.0567105
0.0557463
0.0547865
0.0538321
0.0528841
0.0519434
0.0510106
0.0500866
0.0491721
0.0482677
0.0473741
0.0464916
0.0456209
0.0447623
0.0439162
0.043083
0.0422629
0.0414562
0.0406631
0.0398838
0.0391183
0.0383669
0.0376295
0.0369063
0.0361971
0.0355021
0.0348211
0.0341541
0.033501
0.0328618
0.0322362
0.0316242
0.0310256
0.0304403
0.029868
0.0293086
0.0287619
0.0282277
0.0277058
0.027196
0.026698
0.0262119
0.0257371
0.0252737
0.0248215
0.0243804
0.0239503
0.0235314
0.0231239
0.022728
0.0223443
0.0219736
0.0216172
0.021275
0.0209573
0.0206087
0.00260248
0.00353439
0.00462573
0.00547062
0.00616389
0.0067697
0.00732278
0.00784434
0.00834852
0.0088454
0.00934259
0.00984597
0.0103602
0.0108889
0.0114351
0.0120013
0.0125895
0.0132016
0.0138391
0.0145035
0.0151959
0.0159174
0.0166689
0.0174509
0.018264
0.0191084
0.0199845
0.0208924
0.0218319
0.0228031
0.0238058
0.02484
0.0259054
0.0270019
0.0281292
0.0292871
0.0304751
0.0316928
0.0329397
0.0342152
0.0355186
0.036849
0.0382054
0.0395866
0.0409913
0.0424181
0.0438652
0.0453307
0.0468126
0.0483086
0.0498161
0.0513326
0.0528552
0.0543808
0.0559064
0.0574285
0.0589437
0.0604486
0.0619395
0.0634129
0.064865
0.0662922
0.0676909
0.0690576
0.0703889
0.0716814
0.0729319
0.0741375
0.0752954
0.0764028
0.0774573
0.0784567
0.079399
0.0802824
0.0811054
0.0818666
0.082565
0.0831998
0.0837703
0.0842761
0.0847171
0.0850934
0.085405
0.0856526
0.0858366
0.0859579
0.0860173
0.086016
0.0859556
0.0858354
0.0856583
0.0854258
0.0851396
0.0848012
0.0844125
0.0839753
0.0834914
0.0829628
0.0823913
0.081779
0.0811279
0.08044
0.0797173
0.0789618
0.0781755
0.0773605
0.0765187
0.0756521
0.0747628
0.0738525
0.0729235
0.0719776
0.0710169
0.0700432
0.0690585
0.0680643
0.0670623
0.0660539
0.0650406
0.0640237
0.0630047
0.0619848
0.0609653
0.0599475
0.0589325
0.0579216
0.0569157
0.0559158
0.054923
0.0539381
0.0529619
0.0519951
0.0510386
0.050093
0.0491588
0.0482366
0.0473269
0.0464301
0.0455466
0.0446768
0.0438209
0.0429792
0.0421519
0.0413392
0.0405411
0.0397578
0.0389894
0.0382359
0.0374972
0.0367735
0.0360645
0.0353703
0.0346907
0.0340257
0.033375
0.0327386
0.0321163
0.0315078
0.0309131
0.0303318
0.0297639
0.029209
0.028667
0.0281376
0.0276207
0.0271161
0.0266234
0.0261427
0.0256737
0.0252163
0.0247705
0.0243363
0.0239139
0.0235035
0.0231058
0.0227214
0.0223513
0.0219961
0.0216617
0.0213063
0.00297329
0.00372584
0.0048348
0.00570775
0.00642327
0.00704726
0.00761602
0.00815141
0.00866803
0.00917628
0.00968398
0.0101973
0.010721
0.0112591
0.0118149
0.012391
0.0129898
0.0136131
0.0142627
0.0149398
0.0156456
0.0163813
0.0171477
0.0179457
0.0187758
0.0196386
0.0205345
0.0214639
0.0224271
0.0234241
0.0244552
0.0255206
0.0266204
0.0277547
0.0289234
0.0301264
0.0313635
0.0326344
0.0339386
0.0352755
0.0366443
0.0380441
0.0394736
0.0409316
0.0424164
0.0439263
0.0454591
0.0470127
0.0485844
0.0501717
0.0517714
0.0533806
0.0549958
0.0566135
0.0582301
0.0598418
0.0614448
0.063035
0.0646086
0.0661615
0.0676897
0.0691894
0.0706568
0.072088
0.0734795
0.0748279
0.0761299
0.0773824
0.0785827
0.0797279
0.0808159
0.0818443
0.0828112
0.0837151
0.0845544
0.0853279
0.0860347
0.0866742
0.0872457
0.0877492
0.0881847
0.0885522
0.0888523
0.0890854
0.0892525
0.0893543
0.0893921
0.0893678
0.0892812
0.089133
0.0889263
0.0886626
0.0883437
0.0879713
0.0875474
0.0870738
0.0865526
0.0859857
0.0853752
0.0847232
0.0840318
0.083303
0.082539
0.0817419
0.0809137
0.0800565
0.0791723
0.0782633
0.0773313
0.0763784
0.0754066
0.0744179
0.0734143
0.0723977
0.0713701
0.0703331
0.0692885
0.0682377
0.0671824
0.0661239
0.0650637
0.0640031
0.0629434
0.0618858
0.0608316
0.0597819
0.0587378
0.0577003
0.0566704
0.0556489
0.0546368
0.0536346
0.0526433
0.0516634
0.0506956
0.0497404
0.0487984
0.0478698
0.0469552
0.0460549
0.0451692
0.0442983
0.0434425
0.0426018
0.0417765
0.0409665
0.0401721
0.0393932
0.0386298
0.0378819
0.0371495
0.0364324
0.0357305
0.0350438
0.034372
0.033715
0.0330726
0.0324447
0.031831
0.0312313
0.0306453
0.030073
0.0295139
0.028968
0.0284349
0.0279146
0.0274067
0.0269112
0.0264278
0.0259565
0.0254972
0.02505
0.0246149
0.0241922
0.0237824
0.0233861
0.0230041
0.0226372
0.0222887
0.0219264
0.00330026
0.0038524
0.00496256
0.00585463
0.00658629
0.00722381
0.00780464
0.00835112
0.00887816
0.00939631
0.00991346
0.0104358
0.0109685
0.0115156
0.0120804
0.0126657
0.0132739
0.0139069
0.0145667
0.0152546
0.0159722
0.0167204
0.0175006
0.0183136
0.0191603
0.0200415
0.0209578
0.0219099
0.0228982
0.0239234
0.0249858
0.026086
0.0272243
0.0284011
0.0296164
0.0308703
0.0321626
0.033493
0.0348609
0.0362656
0.0377063
0.0391816
0.0406901
0.0422301
0.0437997
0.0453965
0.047018
0.0486614
0.0503238
0.0520017
0.0536918
0.0553903
0.0570933
0.0587968
0.0604968
0.0621889
0.0638689
0.0655326
0.0671757
0.0687938
0.0703829
0.0719389
0.0734578
0.0749358
0.0763694
0.0777552
0.0790898
0.0803704
0.0815942
0.0827587
0.0838616
0.0849009
0.0858749
0.0867821
0.0876213
0.0883914
0.0890917
0.0897216
0.090281
0.0907697
0.091188
0.0915363
0.0918151
0.0920251
0.0921674
0.092243
0.0922531
0.0922013
0.0920836
0.0919043
0.0916655
0.091369
0.0910166
0.0906101
0.0901516
0.0896431
0.0890865
0.088484
0.0878378
0.0871498
0.0864224
0.0856576
0.0848575
0.0840245
0.0831604
0.0822675
0.0813478
0.0804033
0.0794361
0.0784482
0.0774416
0.0764183
0.0753803
0.0743295
0.0732678
0.072197
0.0711187
0.0700347
0.0689464
0.0678554
0.066763
0.0656706
0.0645795
0.063491
0.0624063
0.0613265
0.0602527
0.059186
0.0581272
0.0570772
0.056037
0.0550073
0.0539887
0.0529821
0.051988
0.0510069
0.0500394
0.0490859
0.0481467
0.0472224
0.046313
0.045419
0.0445404
0.0436776
0.0428305
0.0419993
0.041184
0.0403848
0.0396015
0.0388342
0.0380829
0.0373473
0.0366274
0.0359231
0.0352342
0.0345605
0.0339019
0.0332581
0.0326289
0.0320141
0.0314135
0.0308268
0.0302537
0.0296941
0.0291478
0.0286145
0.028094
0.0275862
0.0270909
0.0266079
0.0261374
0.0256791
0.0252333
0.0248003
0.0243803
0.0239738
0.0235817
0.0232045
0.022844
0.0224753
0.00356958
0.00391746
0.00501449
0.0059183
0.00666131
0.00730848
0.00789834
0.00845366
0.00898949
0.0095165
0.0100427
0.0105741
0.0111158
0.0116717
0.0122454
0.0128397
0.0134573
0.0141003
0.0147706
0.0154701
0.0162003
0.0169627
0.0177586
0.0185893
0.0194559
0.0203593
0.0213006
0.0222807
0.0233005
0.0243608
0.0254624
0.0266061
0.0277923
0.0290214
0.0302936
0.0316089
0.0329672
0.0343678
0.0358101
0.0372931
0.0388153
0.0403752
0.0419708
0.0435998
0.0452597
0.0469475
0.0486601
0.050394
0.0521456
0.0539109
0.0556859
0.0574662
0.0592475
0.0610253
0.0627951
0.0645524
0.0662925
0.0680111
0.0697037
0.0713659
0.0729936
0.0745827
0.0761294
0.0776301
0.0790813
0.0804797
0.0818224
0.0831067
0.08433
0.0854902
0.0865852
0.0876133
0.0885731
0.0894632
0.0902829
0.0910312
0.0917077
0.0923119
0.092844
0.0933041
0.0936926
0.0940101
0.0942573
0.0944351
0.0945446
0.0945868
0.094565
0.0944787
0.0943266
0.0941134
0.0938408
0.0935106
0.0931247
0.092685
0.0921936
0.0916524
0.0910635
0.0904291
0.0897514
0.0890324
0.0882744
0.0874795
0.0866498
0.0857876
0.0848949
0.0839739
0.0830265
0.0820549
0.081061
0.0800468
0.0790144
0.0779657
0.0769026
0.075827
0.0747409
0.0736459
0.0725439
0.0714364
0.0703249
0.0692111
0.0680962
0.0669816
0.0658687
0.0647587
0.0636527
0.062552
0.0614575
0.0603703
0.0592914
0.0582216
0.0571617
0.0561125
0.0550747
0.0540492
0.0530363
0.0520368
0.0510511
0.0500797
0.0491229
0.0481812
0.0472547
0.0463438
0.0454487
0.0445695
0.0437064
0.0428594
0.0420287
0.0412143
0.0404162
0.0396344
0.0388688
0.0381193
0.0373858
0.0366681
0.0359661
0.0352797
0.0346086
0.0339526
0.0333115
0.032685
0.032073
0.0314751
0.0308912
0.0303209
0.0297641
0.0292206
0.0286901
0.0281725
0.0276676
0.0271753
0.0266956
0.0262285
0.0257739
0.0253323
0.0249038
0.024489
0.0240882
0.0237023
0.0233319
0.0229575
0.00377015
0.00392414
0.00500048
0.00590832
0.00665715
0.00731037
0.00790718
0.00847008
0.0090141
0.00954978
0.0100849
0.0106257
0.011177
0.0117426
0.0123263
0.0129314
0.0135604
0.014216
0.0149003
0.0156154
0.0163631
0.0171453
0.0179634
0.0188191
0.0197139
0.0206492
0.0216264
0.0226466
0.0237111
0.0248209
0.025977
0.0271801
0.0284308
0.0297294
0.0310759
0.0324701
0.0339115
0.0353991
0.0369317
0.0385076
0.0401248
0.0417809
0.0434732
0.0451987
0.0469538
0.0487349
0.0505381
0.0523592
0.0541937
0.0560372
0.0578849
0.0597322
0.0615744
0.0634065
0.0652239
0.0670219
0.068796
0.0705417
0.0722547
0.0739308
0.0755661
0.077157
0.0786997
0.0801912
0.0816282
0.083008
0.084328
0.0855859
0.0867796
0.0879072
0.0889672
0.0899582
0.0908791
0.0917289
0.0925072
0.0932134
0.093847
0.0944081
0.0948967
0.0953135
0.0956589
0.0959339
0.0961392
0.0962756
0.0963446
0.0963472