/*--------------------------------*- C++ -*----------------------------------*\
| =========                 |                                                 |
| \\      /  F ield         | OpenFOAM: The Open Source CFD Toolbox           |
|  \\    /   O peration     | Version:  2312                                  |
|   \\  /    A nd           | Website:  www.openfoam.com                      |
|    \\/     M anipulation  |                                                 |
\*---------------------------------------------------------------------------*/
FoamFile
{
    version     2.0;
    format      ascii;
    arch        "LSB;label=32;scalar=64";
    class       volScalarField;
    location    "200";
    object      k;
}
// * * * * * * * * * * * * * * * * * * * * * * * * * * * * * * * * * * * * * //

dimensions      [0 2 -2 0 0 0 0];

internalField   nonuniform List<scalar> 
12225
(
0.517801
0.711671
0.793718
0.798527
0.787812
0.760212
0.730348
0.702716
0.678615
0.658148
0.64098
0.626716
0.614719
0.604903
0.596283
0.590072
0.583467
0.580212
0.43595
0.440172
0.428456
0.403625
0.382555
0.365888
0.353097
0.344014
0.338605
0.335331
0.334317
0.334623
0.335604
0.336833
0.339373
0.340711
0.343532
0.344869
0.392668
0.393603
0.38542
0.366719
0.344563
0.324286
0.306854
0.291736
0.279827
0.26999
0.26276
0.256933
0.253095
0.249958
0.248265
0.247
0.246472
0.246364
0.37938
0.377787
0.372776
0.362581
0.349736
0.336123
0.322951
0.310362
0.299127
0.288698
0.279896
0.27174
0.265209
0.259008
0.254367
0.249768
0.246535
0.243093
0.374833
0.372715
0.368504
0.361905
0.353768
0.344753
0.335574
0.326356
0.31765
0.309205
0.301583
0.294215
0.287847
0.281567
0.276376
0.271011
0.266926
0.262351
0.37332
0.370313
0.366498
0.361537
0.355681
0.349193
0.342469
0.335581
0.328876
0.322237
0.316019
0.30993
0.304403
0.298948
0.294186
0.289316
0.28535
0.280957
0.372807
0.369124
0.36538
0.361161
0.356481
0.351419
0.346177
0.340795
0.335474
0.330169
0.325083
0.320079
0.315401
0.310796
0.306616
0.302401
0.298787
0.294882
0.372668
0.368557
0.364706
0.3608
0.356732
0.352487
0.34815
0.343735
0.339349
0.33498
0.330738
0.326564
0.322588
0.318687
0.315056
0.311435
0.308211
0.30481
0.372648
0.368314
0.364325
0.360503
0.356724
0.352934
0.349142
0.345341
0.341582
0.337857
0.334225
0.330661
0.327232
0.323878
0.320706
0.317572
0.314706
0.311745
0.372653
0.368223
0.364131
0.360295
0.356625
0.35306
0.349577
0.346152
0.342798
0.339508
0.336304
0.333176
0.330157
0.327214
0.324406
0.321653
0.319088
0.316486
0.372658
0.368194
0.364043
0.360168
0.356519
0.353045
0.349716
0.346501
0.343394
0.340379
0.337463
0.334635
0.331908
0.329264
0.326732
0.324265
0.32194
0.319619
0.372659
0.368186
0.364009
0.360106
0.356446
0.352994
0.349721
0.346599
0.343613
0.340746
0.337992
0.33534
0.332793
0.330336
0.327984
0.325706
0.323547
0.321418
0.372659
0.368182
0.363993
0.360072
0.356397
0.352944
0.349688
0.346606
0.343681
0.340895
0.338237
0.335695
0.333265
0.330935
0.328708
0.326564
0.324527
0.32254
0.372658
0.368179
0.363983
0.360052
0.356365
0.352902
0.349644
0.346573
0.343671
0.340923
0.338316
0.335839
0.333482
0.331234
0.329093
0.327044
0.325095
0.323216
0.372657
0.368176
0.363976
0.360039
0.356343
0.352871
0.349606
0.34653
0.343631
0.340892
0.338302
0.335849
0.333524
0.331317
0.32922
0.327223
0.325325
0.323513
0.372656
0.368173
0.363971
0.360029
0.356328
0.352849
0.349577
0.346495
0.34359
0.340848
0.338257
0.335808
0.333489
0.331292
0.329209
0.327231
0.325353
0.323567
0.372656
0.368171
0.363966
0.360021
0.356316
0.352833
0.349556
0.346468
0.343557
0.34081
0.338215
0.335761
0.333439
0.33124
0.329157
0.32718
0.325305
0.323524
0.372656
0.36817
0.363964
0.360017
0.356309
0.352823
0.349542
0.346451
0.343536
0.340784
0.338184
0.335726
0.3334
0.331198
0.32911
0.327131
0.325253
0.32347
0.372656
0.36817
0.363963
0.360016
0.356307
0.352819
0.349537
0.346444
0.343526
0.340772
0.33817
0.33571
0.333381
0.331176
0.329086
0.327104
0.325223
0.323437
0.372656
0.368171
0.363965
0.360018
0.356311
0.352825
0.349543
0.346451
0.343535
0.340781
0.338179
0.335717
0.333387
0.331179
0.329085
0.327098
0.32521
0.323418
0.372656
0.368172
0.363968
0.360024
0.35632
0.352838
0.34956
0.346471
0.343555
0.3408
0.338192
0.335721
0.333377
0.331152
0.329036
0.327023
0.325106
0.323281
0.372657
0.368174
0.363974
0.360038
0.356344
0.35287
0.349597
0.346503
0.343572
0.340789
0.338141
0.335616
0.333207
0.330905
0.328704
0.326599
0.324581
0.322657
0.372655
0.368177
0.363999
0.360092
0.356423
0.352955
0.349656
0.346502
0.343475
0.340564
0.337759
0.335056
0.332448
0.329937
0.327515
0.325188
0.322939
0.320795
0.372643
0.368215
0.364128
0.3603
0.356643
0.353099
0.349632
0.346231
0.342891
0.33962
0.336422
0.333309
0.330279
0.327346
0.324502
0.321769
0.319113
0.316595
0.372635
0.368469
0.364634
0.360891
0.357079
0.353161
0.349151
0.345099
0.341037
0.337016
0.333053
0.329189
0.325422
0.321791
0.318269
0.314911
0.311644
0.308583
0.37284
0.369539
0.366148
0.362224
0.357689
0.352687
0.347385
0.341958
0.336495
0.331119
0.325845
0.320768
0.315851
0.311185
0.306687
0.302475
0.298393
0.294645
0.37432
0.373097
0.370167
0.365153
0.358373
0.350669
0.34258
0.334481
0.326512
0.318892
0.311575
0.304748
0.298252
0.29229
0.286627
0.281508
0.276606
0.27226
0.381266
0.38572
0.382104
0.372933
0.359469
0.345683
0.332425
0.320092
0.308693
0.298461
0.289091
0.280905
0.273466
0.267062
0.261258
0.25629
0.251836
0.24797
0.407694
0.411613
0.403616
0.3866
0.368794
0.352501
0.33883
0.327434
0.317644
0.309894
0.303538
0.298699
0.294798
0.291968
0.289781
0.288269
0.287299
0.28661
0.44027
0.54501
0.604978
0.634792
0.641501
0.638675
0.631164
0.618938
0.605916
0.593112
0.581036
0.569924
0.559822
0.550705
0.542503
0.535129
0.528481
0.522493
0.00124254
0.0019063
0.00266011
0.00339249
0.00404265
0.0045988
0.00506736
0.00546288
0.00582291
0.0061472
0.00644567
0.00672985
0.00700953
0.00729317
0.00759219
0.00793236
0.00836472
0.00890642
0.00951965
0.0101828
0.0108908
0.0116465
0.0124553
0.0133241
0.0142597
0.015269
0.0163579
0.0175319
0.0187949
0.0201506
0.0216008
0.0231471
0.0247902
0.0265338
0.0283745
0.0303001
0.0323078
0.0343917
0.0365436
0.0387593
0.0410341
0.0433652
0.0457486
0.0481822
0.050663
0.0531895
0.0557593
0.0583717
0.0610247
0.0637182
0.0664505
0.0692218
0.0720306
0.0748775
0.077761
0.080682
0.0836386
0.0866319
0.0896599
0.0927237
0.0958211
0.098953
0.102117
0.105314
0.108541
0.1118
0.115086
0.118402
0.121743
0.125112
0.128506
0.131927
0.135377
0.13886
0.142382
0.145957
0.149604
0.153357
0.157162
0.160949
0.164737
0.168517
0.172283
0.176034
0.179762
0.183463
0.187129
0.190755
0.194333
0.197855
0.201312
0.204695
0.207995
0.211209
0.214344
0.217431
0.220419
0.223328
0.226144
0.228868
0.231494
0.234018
0.236435
0.238741
0.240932
0.243004
0.244955
0.246779
0.248475
0.25004
0.251471
0.252766
0.253925
0.254944
0.255825
0.256566
0.257167
0.257629
0.257953
0.258137
0.258181
0.258108
0.257939
0.257603
0.257129
0.256521
0.255823
0.254994
0.254061
0.253021
0.25188
0.250644
0.249316
0.247902
0.246408
0.244841
0.24321
0.241521
0.239774
0.237978
0.23614
0.234263
0.232354
0.230414
0.228447
0.226456
0.224445
0.222414
0.220368
0.218306
0.216232
0.214145
0.212047
0.209937
0.207815
0.205682
0.203537
0.20138
0.199233
0.19738
0.196571
0.196057
0.195573
0.195085
0.194584
0.194063
0.193515
0.192933
0.192312
0.191642
0.190931
0.190197
0.189409
0.188538
0.187568
0.186473
0.1852
0.183604
0.181704
0.173367
0.0027585
0.00410421
0.00577452
0.00718885
0.00840749
0.00949232
0.010483
0.0114072
0.0122848
0.0131497
0.0140251
0.0149258
0.0158613
0.0168373
0.0178583
0.0189296
0.0200564
0.0212408
0.0224813
0.023777
0.02513
0.0265446
0.028027
0.0295842
0.0312234
0.0329515
0.0347752
0.0367003
0.0387322
0.0408759
0.0431357
0.0455148
0.0480136
0.0506339
0.0533765
0.0562428
0.0592356
0.0623557
0.0655919
0.0689366
0.0723889
0.0759481
0.0796132
0.0833837
0.0872589
0.0912384
0.0953218
0.099509
0.1038
0.108194
0.112691
0.117292
0.121997
0.126805
0.131716
0.136731
0.14185
0.147072
0.152398
0.157826
0.163357
0.168991
0.174725
0.180561
0.186495
0.192528
0.198656
0.20488
0.211196
0.217603
0.224099
0.23068
0.237344
0.24409
0.250912
0.257809
0.264774
0.271801
0.278878
0.285997
0.293156
0.300349
0.307569
0.314811
0.322064
0.329323
0.336576
0.343815
0.351027
0.358202
0.365326
0.372382
0.379352
0.386216
0.392946
0.399513
0.40598
0.412337
0.418574
0.424683
0.430653
0.436475
0.442139
0.447635
0.452952
0.458082
0.463016
0.467744
0.472258
0.476551
0.480615
0.484445
0.488033
0.491374
0.494465
0.497302
0.499882
0.502204
0.504266
0.50607
0.507617
0.508915
0.509973
0.51079
0.511301
0.511528
0.511579
0.511376
0.510956
0.510317
0.509469
0.508419
0.507178
0.505755
0.50416
0.502404
0.500498
0.498453
0.496282
0.493996
0.491609
0.48913
0.486571
0.483937
0.481238
0.478481
0.475674
0.472821
0.469929
0.467002
0.464045
0.461059
0.458049
0.455012
0.451951
0.448863
0.445748
0.442603
0.439432
0.43631
0.433355
0.43042
0.427433
0.424372
0.421224
0.417978
0.414622
0.411147
0.407543
0.403803
0.399922
0.395896
0.391749
0.387431
0.382921
0.378218
0.373254
0.368163
0.363087
0.35078
0.00441771
0.00665488
0.00898959
0.0108555
0.0124485
0.0138848
0.015229
0.0165227
0.0177967
0.0190756
0.0203782
0.0217182
0.023105
0.0245451
0.0260432
0.0276033
0.0292286
0.0309215
0.0326836
0.0345175
0.0364267
0.0384163
0.0404927
0.0426626
0.0449331
0.0473116
0.049805
0.0524199
0.0551627
0.0580394
0.0610552
0.0642139
0.0675174
0.0709675
0.0745657
0.078313
0.0822095
0.0862539
0.0904436
0.0947766
0.099251
0.103866
0.108619
0.11351
0.118537
0.1237
0.128996
0.134424
0.139984
0.145675
0.151496
0.157445
0.163522
0.169727
0.176058
0.182515
0.189097
0.195804
0.202634
0.209587
0.216661
0.223855
0.231169
0.2386
0.246147
0.253807
0.261579
0.26946
0.277447
0.285539
0.293731
0.30202
0.310403
0.318875
0.327432
0.336068
0.344776
0.35355
0.36238
0.371261
0.380187
0.389149
0.39814
0.407153
0.416177
0.425203
0.434221
0.443219
0.452186
0.46111
0.469978
0.478776
0.487492
0.496113
0.504627
0.513029
0.52131
0.52946
0.537465
0.545312
0.552987
0.560479
0.567773
0.574857
0.581718
0.588343
0.594722
0.600841
0.60669
0.612259
0.617537
0.622518
0.627191
0.631551
0.63559
0.639305
0.642692
0.645747
0.648469
0.650859
0.652918
0.654651
0.656061
0.657151
0.657906
0.658278
0.658373
0.658168
0.657673
0.656892
0.655836
0.654515
0.652941
0.651125
0.649081
0.646821
0.64436
0.641712
0.63889
0.63591
0.632787
0.629534
0.626163
0.622685
0.619111
0.615451
0.611714
0.607908
0.604039
0.600116
0.596141
0.592121
0.588057
0.583952
0.579806
0.575619
0.571391
0.567119
0.562805
0.558486
0.554203
0.549892
0.545506
0.541025
0.536437
0.531728
0.526889
0.521911
0.516787
0.511511
0.506079
0.500488
0.494747
0.488845
0.482776
0.476559
0.470185
0.463847
0.457716
0.447151
0.00577619
0.00919895
0.0121537
0.0144222
0.0163362
0.0180594
0.0196784
0.0212467
0.022801
0.0243684
0.0259691
0.0276176
0.0293238
0.0310947
0.0329348
0.0348475
0.0368353
0.038901
0.0410473
0.0432781
0.0455984
0.0480142
0.0505326
0.0531614
0.0559085
0.0587819
0.0617892
0.0649375
0.0682331
0.0716809
0.0752842
0.0790463
0.0829706
0.0870599
0.0913156
0.0957379
0.100326
0.105079
0.109995
0.115072
0.120308
0.125701
0.131249
0.136952
0.142808
0.148814
0.15497
0.161275
0.167728
0.174327
0.181071
0.187961
0.194994
0.202171
0.209491
0.216953
0.224556
0.2323
0.240184
0.248208
0.256369
0.264667
0.273101
0.281669
0.290369
0.2992
0.308159
0.317244
0.326452
0.335779
0.345223
0.35478
0.364445
0.374214
0.38408
0.394038
0.404081
0.4142
0.424388
0.434638
0.444942
0.455292
0.465679
0.476093
0.486525
0.496963
0.507397
0.517815
0.528205
0.538553
0.548848
0.559076
0.569224
0.579279
0.589228
0.599058
0.608753
0.6183
0.627683
0.636886
0.645894
0.654692
0.663262
0.671591
0.679662
0.687462
0.694975
0.702189
0.709089
0.715663
0.7219
0.727788
0.733318
0.738482
0.743271
0.747679
0.751702
0.755334
0.758575
0.761423
0.763879
0.765946
0.767626
0.768924
0.76984
0.770308
0.770426
0.770189
0.769603
0.768673
0.767412
0.765829
0.763939
0.761755
0.759292
0.756564
0.753588
0.750379
0.746954
0.743329
0.739521
0.735545
0.731416
0.727148
0.722752
0.718241
0.713626
0.708916
0.704122
0.69925
0.694307
0.6893
0.684233
0.679108
0.673928
0.668692
0.663399
0.658047
0.652639
0.647195
0.641729
0.636209
0.630602
0.624892
0.619067
0.613116
0.607032
0.600809
0.594441
0.587927
0.581263
0.574453
0.567504
0.56042
0.553213
0.545922
0.538584
0.531415
0.524507
0.514996
0.00678905
0.0116127
0.0151979
0.0178665
0.0200922
0.0220829
0.0239458
0.0257459
0.0275268
0.02932
0.0311487
0.0330296
0.0349746
0.0369917
0.0390863
0.0412625
0.0435234
0.0458724
0.0483133
0.050851
0.0534914
0.0562411
0.059108
0.0620999
0.0652252
0.0684915
0.0719064
0.0754764
0.0792073
0.0831038
0.08717
0.0914093
0.0958241
0.100416
0.105185
0.110132
0.115254
0.120551
0.126021
0.131664
0.137476
0.143459
0.14961
0.155929
0.162413
0.169063
0.175876
0.182853
0.189992
0.197293
0.204755
0.212379
0.220162
0.228106
0.23621
0.244473
0.252895
0.261476
0.270215
0.279112
0.288166
0.297376
0.306741
0.31626
0.32593
0.335751
0.34572
0.355834
0.366091
0.376488
0.38702
0.397683
0.408474
0.419385
0.430412
0.441547
0.452783
0.464112
0.475525
0.487015
0.498573
0.510188
0.521852
0.533554
0.545283
0.557026
0.568773
0.58051
0.592223
0.6039
0.615526
0.627087
0.638567
0.649951
0.661222
0.672365
0.683361
0.694195
0.704848
0.715302
0.725541
0.735545
0.745297
0.754779
0.763974
0.772865
0.781435
0.789667
0.797548
0.805061
0.812194
0.818933
0.825267
0.831185
0.836679
0.84174
0.846362
0.850539
0.854269
0.857549
0.860379
0.862761
0.864697
0.866191
0.867246
0.867801
0.86794
0.867665
0.866983
0.865901
0.864429
0.86258
0.86037
0.857813
0.854924
0.851721
0.84822
0.84444
0.840399
0.836114
0.831604
0.826886
0.821977
0.816892
0.811647
0.806255
0.800729
0.795082
0.789325
0.783467
0.777517
0.771483
0.765371
0.759185
0.752928
0.746601
0.740205
0.733741
0.727211
0.720625
0.713991
0.707289
0.700499
0.693605
0.6866
0.679476
0.672229
0.664855
0.657352
0.649719
0.641961
0.634081
0.626092
0.618007
0.609853
0.601683
0.593567
0.585717
0.578163
0.569039
0.00751854
0.0138481
0.0180458
0.0211053
0.0236339
0.025879
0.0279662
0.0299713
0.0319447
0.0339228
0.0359323
0.0379932
0.0401198
0.0423225
0.0446086
0.0469838
0.0494525
0.0520194
0.0546893
0.0574678
0.0603612
0.0633767
0.0665217
0.0698043
0.073232
0.0768123
0.080552
0.0844572
0.0885329
0.0927838
0.0972131
0.101824
0.106618
0.111596
0.116759
0.122106
0.127638
0.133353
0.139251
0.145331
0.151593
0.158037
0.16466
0.171464
0.178446
0.185608
0.192948
0.200466
0.208163
0.216037
0.22409
0.232321
0.24073
0.249318
0.258084
0.267029
0.276154
0.285457
0.294939
0.3046
0.31444
0.324458
0.334652
0.345023
0.355569
0.366287
0.377177
0.388235
0.399458
0.410844
0.422388
0.434085
0.445931
0.45792
0.470044
0.482297
0.49467
0.507155
0.519744
0.532426
0.545192
0.558031
0.570933
0.583886
0.596876
0.609893
0.62292
0.635946
0.648954
0.661929
0.674856
0.687718
0.700497
0.713175
0.725733
0.738153
0.750415
0.762501
0.774391
0.786065
0.797503
0.808684
0.819589
0.830198
0.84049
0.850448
0.860051
0.869282
0.878123
0.886557
0.894569
0.902144
0.909268
0.915929
0.922116
0.92782
0.933032
0.937746
0.941958
0.945663
0.948861
0.951552
0.953739
0.955424
0.956611
0.957244
0.957401
0.957082
0.956296
0.955049
0.953355
0.951226
0.948679
0.94573
0.942394
0.938692
0.93464
0.930259
0.925568
0.920587
0.915335
0.909833
0.904098
0.898148
0.892001
0.885674
0.879181
0.872537
0.865755
0.858847
0.851825
0.844697
0.837472
0.830157
0.822757
0.815277
0.807719
0.800087
0.792385
0.784619
0.776793
0.768899
0.760924
0.752857
0.744693
0.736428
0.728061
0.719589
0.711015
0.702343
0.693576
0.684727
0.675808
0.666844
0.657869
0.648948
0.640168
0.631722
0.623598
0.614497
0.00805823
0.0158633
0.0206347
0.0240646
0.0268792
0.0293617
0.0316543
0.0338425
0.035983
0.0381168
0.0402743
0.0424787
0.0447473
0.0470931
0.0495259
0.0520534
0.054682
0.0574175
0.0602657
0.0632328
0.0663254
0.0695503
0.072915
0.0764265
0.0800921
0.0839183
0.0879114
0.0920767
0.096419
0.100942
0.10565
0.110543
0.115626
0.120898
0.126361
0.132015
0.137861
0.143898
0.150127
0.156548
0.163161
0.169966
0.176964
0.184154
0.191537
0.199114
0.206884
0.214849
0.223008
0.231363
0.239915
0.248663
0.25761
0.266755
0.276101
0.285646
0.295393
0.305342
0.315493
0.325847
0.336404
0.347163
0.358125
0.369288
0.380652
0.392214
0.403973
0.415927
0.428072
0.440405
0.452922
0.465617
0.478486
0.49152
0.504715
0.51806
0.531549
0.545171
0.558916
0.572775
0.586735
0.600786
0.614915
0.629108
0.643351
0.657631
0.671932
0.686238
0.700532
0.714796
0.729014
0.743165
0.757231
0.77119
0.785022
0.798706
0.812221
0.825545
0.838658
0.851537
0.864159
0.876504
0.888547
0.900269
0.911645
0.922656
0.93328
0.943496
0.953285
0.962629
0.971509
0.979909
0.987813
0.995208
1.00208
1.00842
1.01421
1.01946
1.02414
1.02827
1.03183
1.03482
1.03725
1.03912
1.04043
1.04113
1.0413
1.04093
1.04002
1.0386
1.03667
1.03424
1.03134
1.02797
1.02417
1.01994
1.0153
1.01029
1.00491
0.999197
0.993162
0.98683
0.980222
0.973358
0.966256
0.958938
0.951419
0.943716
0.935846
0.927824
0.919662
0.911373
0.902969
0.89446
0.885854
0.87716
0.868383
0.85953
0.850608
0.841623
0.83258
0.823478
0.814309
0.805071
0.795759
0.786374
0.776916
0.767388
0.757794
0.748142
0.738439
0.7287
0.718942
0.709195
0.699501
0.689928
0.68057
0.671596
0.662959
0.653698
0.00907311
0.0177311
0.0229664
0.026712
0.0297752
0.0324665
0.0349405
0.0372899
0.039576
0.0418434
0.0441254
0.046448
0.0488311
0.0512905
0.0538383
0.0564842
0.0592363
0.0621019
0.0650877
0.0682001
0.0714459
0.0748318
0.0783645
0.0820507
0.0858968
0.0899088
0.0940922
0.098452
0.102993
0.107718
0.112631
0.117734
0.12303
0.12852
0.134207
0.14009
0.146172
0.152453
0.158935
0.165618
0.172503
0.179592
0.186886
0.194386
0.202093
0.210009
0.218135
0.226472
0.235022
0.243786
0.252767
0.261966
0.271384
0.281024
0.290886
0.300972
0.311285
0.321824
0.332592
0.343588
0.354815
0.366272
0.377958
0.389875
0.40202
0.414393
0.426991
0.439812
0.452853
0.466111
0.479579
0.493254
0.507129
0.521197
0.535449
0.549878
0.564473
0.579225
0.594122
0.609153
0.624304
0.639563
0.654915
0.670346
0.685839
0.70138
0.716949
0.73253
0.748103
0.763649
0.779149
0.794579
0.809919
0.825147
0.840239
0.855172
0.869923
0.884469
0.898786
0.91285
0.926637
0.940123
0.953284
0.966095
0.978532
0.990573
1.00219
1.01337
1.02409
1.03432
1.04404
1.05325
1.06191
1.07002
1.07756
1.08451
1.09087
1.09663
1.10177
1.1063
1.11021
1.11349
1.11615
1.11819
1.1196
1.12037
1.12053
1.12009
1.11906
1.11744
1.11525
1.11251
1.10923
1.10543
1.10113
1.09635
1.09111
1.08544
1.07935
1.07286
1.06601
1.05881
1.05129
1.04347
1.03536
1.02701
1.01841
1.0096
1.00059
0.991395
0.982039
0.972534
0.962897
0.953141
0.943279
0.933323
0.923282
0.913167
0.902989
0.892757
0.882479
0.872158
0.861795
0.851391
0.840946
0.830463
0.819948
0.809405
0.798843
0.78827
0.777699
0.767146
0.756633
0.746191
0.735868
0.725732
0.715872
0.706434
0.697341
0.687848
0.0104642
0.0194152
0.0250047
0.029008
0.0322783
0.0351468
0.0377766
0.0402654
0.0426778
0.0450605
0.0474492
0.0498716
0.0523498
0.0549016
0.057541
0.0602797
0.0631273
0.066092
0.0691814
0.0724024
0.0757616
0.0792657
0.082921
0.0867336
0.0907093
0.0948537
0.099172
0.103669
0.108349
0.113216
0.118273
0.123523
0.128969
0.134614
0.140459
0.146508
0.152761
0.159222
0.165892
0.172773
0.179867
0.187176
0.194703
0.20245
0.210419
0.218613
0.227034
0.235685
0.244569
0.253687
0.263043
0.27264
0.282479
0.292564
0.302896
0.31348
0.324315
0.335406
0.346752
0.358357
0.370221
0.382345
0.39473
0.407375
0.420279
0.433443
0.446862
0.460536
0.47446
0.48863
0.503042
0.517689
0.532564
0.54766
0.562968
0.578477
0.594178
0.610058
0.626105
0.642305
0.658645
0.67511
0.691682
0.708346
0.725083
0.741876
0.758704
0.775549
0.792387
0.809199
0.825961
0.842651
0.859243
0.875713
0.892038
0.90819
0.924146
0.93988
0.955366
0.970578
0.985491
1.00008
1.01431
1.02817
1.04163
1.05465
1.06723
1.07933
1.09092
1.102
1.11253
1.12249
1.13188
1.14066
1.14883
1.15636
1.16325
1.16949
1.17506
1.17997
1.18419
1.18774
1.1906
1.19279
1.19429
1.1951
1.19524
1.19472
1.19354
1.19171
1.18925
1.18618
1.18251
1.17826
1.17345
1.1681
1.16223
1.15587
1.14905
1.14177
1.13407
1.12598
1.11752
1.10871
1.09957
1.09014
1.08044
1.07048
1.06029
1.04989
1.0393
1.02854
1.01764
1.0066
0.995449
0.9842
0.972868
0.961468
0.950015
0.938523
0.927004
0.915467
0.903919
0.892364
0.880809
0.869261
0.857727
0.846217
0.834741
0.823311
0.811942
0.800652
0.789466
0.778417
0.767552
0.756937
0.746652
0.736818
0.727337
0.717613
0.011798
0.0208266
0.0266984
0.0309145
0.0343569
0.0373737
0.0401354
0.0427431
0.0452639
0.0477459
0.0502261
0.0527335
0.0552915
0.0579193
0.0606323
0.0634434
0.0663634
0.0694015
0.0725658
0.0758637
0.0793018
0.0828868
0.0866246
0.0905212
0.094582
0.0988125
0.103218
0.107802
0.112571
0.117528
0.122677
0.128021
0.133564
0.13931
0.145262
0.151422
0.157794
0.164381
0.171186
0.178212
0.185462
0.19294
0.20065
0.208594
0.216776
0.225201
0.233871
0.242791
0.251964
0.261394
0.271085
0.281041
0.291265
0.30176
0.312531
0.323581
0.334912
0.346527
0.35843
0.370622
0.383106
0.395881
0.40895
0.422311
0.435966
0.449912
0.464147
0.478669
0.493473
0.508555
0.523909
0.539528
0.555404
0.571529
0.587893
0.604483
0.621289
0.638296
0.65549
0.672857
0.69038
0.708041
0.725824
0.743707
0.761673
0.779699
0.797764
0.815846
0.833921
0.851966
0.869955
0.887863
0.905664
0.923332
0.940839
0.958158
0.975263
0.992125
1.00872
1.02502
1.04099
1.05661
1.07185
1.08669
1.10109
1.11503
1.12848
1.14143
1.15384
1.16569
1.17695
1.18761
1.19765
1.20705
1.21578
1.22384
1.23121
1.23787
1.24383
1.24906
1.25357
1.25734
1.26037
1.26267
1.26424
1.26506
1.26516
1.26454
1.26318
1.26113
1.25838
1.25496
1.25089
1.24618
1.24085
1.23492
1.22842
1.22136
1.21379
1.20571
1.19716
1.18816
1.17874
1.16893
1.15875
1.14823
1.13739
1.12627
1.11488
1.10326
1.09143
1.0794
1.06721
1.05488
1.04243
1.02988
1.01725
1.00456
0.991833
0.979086
0.966337
0.953601
0.94089
0.928215
0.915586
0.903014
0.890512
0.87809
0.865763
0.853545
0.841454
0.829508
0.817734
0.806165
0.794846
0.783838
0.773209
0.763056
0.753266
0.743358
0.0130204
0.0219507
0.0280351
0.0324214
0.0360027
0.0391401
0.0420104
0.0447171
0.0473288
0.0498947
0.0524523
0.0550312
0.0576556
0.0603451
0.0631162
0.0659825
0.0689554
0.072045
0.0752596
0.0786071
0.0820943
0.0857278
0.0895137
0.0934579
0.0975658
0.101843
0.106294
0.110925
0.11574
0.120744
0.125941
0.131336
0.136933
0.142737
0.148751
0.15498
0.161428
0.168099
0.174997
0.182128
0.189495
0.197103
0.204957
0.213061
0.221421
0.230042
0.238929
0.248087
0.257521
0.267236
0.277236
0.287528
0.298116
0.309004
0.320197
0.331699
0.343514
0.355645
0.368097
0.380872
0.393971
0.407397
0.421151
0.435232
0.44964
0.464374
0.479431
0.494807
0.510499
0.526499
0.542803
0.5594
0.576284
0.593442
0.610863
0.628535
0.646443
0.664572
0.682907
0.701428
0.720119
0.738959
0.757927
0.777003
0.796164
0.815386
0.834646
0.853919
0.873179
0.892399
0.911554
0.930614
0.949553
0.968341
0.986951
1.00535
1.02352
1.04142
1.05902
1.07631
1.09324
1.10979
1.12594
1.14164
1.15689
1.17164
1.18587
1.19956
1.21267
1.22519
1.2371
1.24836
1.25896
1.26887
1.27809
1.28659
1.29436
1.30138
1.30765
1.31315
1.31788
1.32182
1.32498
1.32735
1.32894
1.32975
1.32977
1.32902
1.32747
1.32517
1.32212
1.31834
1.31386
1.30868
1.30282
1.29631
1.28917
1.28143
1.2731
1.26422
1.25482
1.24492
1.23454
1.22373
1.21251
1.2009
1.18895
1.17667
1.16409
1.15125
1.13818
1.12489
1.11143
1.09781
1.08407
1.07023
1.05632
1.04236
1.02838
1.0144
1.00045
0.986554
0.97272
0.958969
0.945315
0.931775
0.918364
0.905098
0.891993
0.879065
0.866334
0.853819
0.841548
0.829551
0.817871
0.80656
0.795675
0.785289
0.775281
0.765266
0.0141082
0.0227938
0.0290239
0.0335384
0.037226
0.0404568
0.0434124
0.0461978
0.0488827
0.0515166
0.0541371
0.056774
0.0594514
0.0621893
0.0650042
0.06791
0.0709188
0.0740406
0.0772846
0.0806585
0.0841695
0.0878244
0.0916296
0.0955912
0.0997148
0.104006
0.108471
0.113115
0.117943
0.12296
0.128172
0.133584
0.139202
0.14503
0.151074
0.157339
0.163832
0.170558
0.177522
0.184729
0.192187
0.1999
0.207876
0.21612
0.224639
0.233439
0.242527
0.25191
0.261594
0.271585
0.28189
0.292515
0.303466
0.314748
0.326366
0.338327
0.350635
0.363294
0.376308
0.38968
0.403412
0.417507
0.431964
0.446785
0.461967
0.477509
0.493407
0.509657
0.526254
0.543189
0.560456
0.578043
0.595941
0.614137
0.632617
0.651366
0.670369
0.689607
0.709061
0.728712
0.748539
0.76852
0.788631
0.808849
0.829148
0.849502
0.869886
0.890272
0.910632
0.930938
0.951161
0.971271
0.991239
1.01103
1.03063
1.04999
1.06908
1.08789
1.10637
1.12451
1.14226
1.1596
1.1765
1.19293
1.20887
1.22429
1.23915
1.25344
1.26712
1.28018
1.29259
1.30432
1.31536
1.32568
1.33526
1.3441
1.35216
1.35945
1.36594
1.37163
1.3765
1.38055
1.38377
1.38617
1.38773
1.38847
1.38839
1.38748
1.38571
1.38313
1.37977
1.37563
1.37072
1.36507
1.35869
1.3516
1.34383
1.33541
1.32635
1.31669
1.30645
1.29566
1.28436
1.27257
1.26033
1.24766
1.23461
1.2212
1.20746
1.19343
1.17915
1.16464
1.14993
1.13506
1.12007
1.10498
1.08982
1.07463
1.05945
1.04429
1.02919
1.01418
0.99928
0.984514
0.969902
0.955465
0.941221
0.92719
0.913391
0.899841
0.886563
0.873575
0.860903
0.848579
0.836637
0.825121
0.814074
0.803553
0.79343
0.783405
0.0150485
0.0233715
0.0296851
0.0342875
0.0380497
0.0413471
0.0443642
0.0472075
0.0499468
0.0526319
0.0553
0.0579806
0.0606975
0.0634701
0.0663151
0.0692462
0.0722754
0.0754131
0.0786684
0.0820497
0.0855643
0.0892196
0.0930219
0.0969778
0.101093
0.105375
0.109829
0.114461
0.119277
0.124284
0.129488
0.134895
0.140512
0.146345
0.1524
0.158686
0.165208
0.171974
0.178991
0.186266
0.193806
0.201619
0.209714
0.218097
0.226777
0.235762
0.245061
0.25468
0.264629
0.274914
0.285544
0.296526
0.307866
0.319572
0.331649
0.344104
0.356941
0.370166
0.383782
0.397792
0.412199
0.427005
0.442208
0.457809
0.473805
0.490193
0.506967
0.524123
0.541652
0.559545
0.577793
0.596383
0.615302
0.634535
0.654066
0.673878
0.693951
0.714266
0.7348
0.755532
0.776438
0.797492
0.81867
0.839944
0.861287
0.882671
0.904067
0.925445
0.946777
0.968032
0.98918
1.01019
1.03103
1.05167
1.07207
1.09222
1.11207
1.1316
1.15078
1.16957
1.18795
1.20589
1.22336
1.24033
1.25677
1.27267
1.28798
1.30269
1.31676
1.33018
1.34292
1.35496
1.36628
1.37686
1.38667
1.3957
1.40394
1.41137
1.41798
1.42375
1.42868
1.43275
1.43596
1.43831
1.4398
1.44042
1.4402
1.43908
1.43706
1.4342
1.43051
1.42599
1.42067
1.41455
1.40766
1.40001
1.39163
1.38255
1.37278
1.36236
1.35132
1.33969
1.3275
1.31477
1.30156
1.28788
1.27377
1.25928
1.24443
1.22927
1.21383
1.19814
1.18226
1.1662
1.15001
1.13373
1.1174
1.10104
1.08472
1.06845
1.05227
1.03622
1.02034
1.00464
0.989153
0.973906
0.958921
0.944222
0.929827
0.915758
0.902036
0.888681
0.875716
0.863172
0.851076
0.839462
0.828361
0.817812
0.807685
0.797765
0.0158368
0.0237047
0.0300439
0.034696
0.0385025
0.04184
0.0448952
0.047775
0.0505495
0.0532682
0.055968
0.0586774
0.0614197
0.0642137
0.0670757
0.0700191
0.0730556
0.0761956
0.0794483
0.0828221
0.086325
0.0899646
0.0937482
0.0976827
0.101775
0.106032
0.110462
0.11507
0.119864
0.124852
0.130041
0.135438
0.14105
0.146885
0.152951
0.159258
0.165814
0.172628
0.179708
0.187064
0.194705
0.202641
0.21088
0.219433
0.22831
0.237519
0.24707
0.256974
0.267239
0.277874
0.288888
0.30029
0.312087
0.324285
0.336893
0.349915
0.363357
0.377224
0.391519
0.406244
0.421401
0.436989
0.453008
0.469455
0.486325
0.503614
0.521314
0.539416
0.557912
0.576788
0.596032
0.615629
0.635564
0.655817
0.676371
0.697205
0.718297
0.739624
0.761161
0.782884
0.804766
0.82678
0.848897
0.87109
0.893328
0.915581
0.937819
0.960011
0.982126
1.00413
1.026
1.04769
1.06919
1.09044
1.11143
1.13213
1.1525
1.17251
1.19214
1.21135
1.23011
1.2484
1.2662
1.28347
1.30018
1.31632
1.33185
1.34676
1.36101
1.37458
1.38745
1.3996
1.41102
1.42167
1.43154
1.44061
1.44887
1.45631
1.4629
1.46864
1.47352
1.47752
1.48064
1.48287
1.48421
1.48466
1.48426
1.4829
1.48061
1.47744
1.47341
1.46852
1.46278
1.45621
1.44882
1.44064
1.43168
1.42198
1.41155
1.40042
1.38863
1.3762
1.36318
1.34958
1.33545
1.32083
1.30574
1.29024
1.27436
1.25814
1.24162
1.22484
1.20785
1.19068
1.17339
1.15601
1.13858
1.12116
1.10378
1.08649
1.06934
1.05235
1.03558
1.01905
1.0028
0.986848
0.97123
0.955969
0.94109
0.926617
0.912573
0.898976
0.885846
0.873203
0.861071
0.849478
0.838439
0.827982
0.817973
0.808283
0.0164702
0.0238044
0.0301173
0.0347869
0.0386113
0.0419651
0.0450361
0.047932
0.0507229
0.0534579
0.0561733
0.058897
0.0616513
0.0644544
0.0673216
0.0702657
0.0732985
0.0764301
0.0796701
0.0830274
0.0865105
0.0901277
0.0938871
0.0977963
0.101863
0.106096
0.110503
0.115092
0.119873
0.124853
0.130042
0.135446
0.141073
0.146932
0.153034
0.159393
0.166019
0.172922
0.180113
0.187604
0.195405
0.203529
0.211985
0.220786
0.229943
0.239466
0.249368
0.259658
0.270347
0.281446
0.292963
0.304907
0.317286
0.330105
0.343372
0.357092
0.371268
0.385904
0.401001
0.41656
0.432581
0.449059
0.465992
0.483374
0.501198
0.519454
0.538133
0.557222
0.576709
0.596578
0.616812
0.637394
0.658304
0.679521
0.701023
0.722787
0.744789
0.767002
0.7894
0.811955
0.83464
0.857424
0.880279
0.903173
0.926076
0.948958
0.971786
0.994529
1.01715
1.03963
1.06193
1.08402
1.10587
1.12744
1.14871
1.16965
1.19023
1.21041
1.23018
1.2495
1.26835
1.2867
1.30452
1.3218
1.3385
1.3546
1.37008
1.38492
1.39909
1.41256
1.42533
1.43737
1.44866
1.45919
1.46893
1.47786
1.48598
1.49327
1.49971
1.50529
1.50999
1.51382
1.51675
1.51879
1.51993
1.52016
1.51953
1.51787
1.51529
1.51181
1.50744
1.50218
1.49604
1.48904
1.48119
1.47251
1.46303
1.45275
1.44171
1.42994
1.41747
1.40433
1.39054
1.37615
1.3612
1.34572
1.32975
1.31333
1.29651
1.27932
1.26183
1.24406
1.22608
1.2079
1.18959
1.17119
1.15276
1.13435
1.11602
1.09781
1.07977
1.06196
1.04441
1.02716
1.01025
0.99373
0.977612
0.96194
0.94673
0.932001
0.917777
0.904072
0.890922
0.878334
0.866323
0.854904
0.844081
0.833868
0.824131
0.814831
0.017001
0.0237551
0.0300027
0.0346523
0.038462
0.0418033
0.0448644
0.0477533
0.0505399
0.0532725
0.0559867
0.0587095
0.0614623
0.0642629
0.0671259
0.0700637
0.0730879
0.0762087
0.0794361
0.0827794
0.0862478
0.0898505
0.0935961
0.0974936
0.101551
0.105779
0.110187
0.114785
0.119583
0.124592
0.129826
0.135287