/*--------------------------------*- C++ -*----------------------------------*\
| =========                 |                                                 |
| \\      /  F ield         | OpenFOAM: The Open Source CFD Toolbox           |
|  \\    /   O peration     | Version:  2312                                  |
|   \\  /    A nd           | Website:  www.openfoam.com                      |
|    \\/     M anipulation  |                                                 |
\*---------------------------------------------------------------------------*/
FoamFile
{
    version     2.0;
    format      ascii;
    arch        "LSB;label=32;scalar=64";
    class       volScalarField;
    location    "200";
    object      mag(U);
}
// * * * * * * * * * * * * * * * * * * * * * * * * * * * * * * * * * * * * * //

dimensions      [0 1 -1 0 0 0 0];

internalField   nonuniform List<scalar> 
12225
(
4.91717
4.70384
4.45476
4.20469
3.9806
3.79133
3.6328
3.50091
3.39179
3.30153
3.2266
3.16403
3.11154
3.06757
3.03105
3.00234
2.9767
2.96818
5.07624
5.14497
5.13418
5.08668
5.0275
4.9617
4.89051
4.81609
4.74185
4.67021
4.60247
4.53925
4.481
4.4278
4.37971
4.33663
4.29971
4.26729
5.00439
5.02835
5.0566
5.07537
5.08629
5.09033
5.08682
5.07654
5.06132
5.04287
5.02232
5.00059
4.97841
4.95639
4.93509
4.91477
4.89662
4.87819
4.99798
5.00998
5.03473
5.05417
5.06848
5.08019
5.08882
5.09408
5.09657
5.09698
5.09572
5.09317
5.08965
5.08553
5.08107
5.07645
5.072
5.06623
4.99929
5.00893
5.02801
5.04337
5.05562
5.06711
5.07722
5.08537
5.09183
5.09701
5.10115
5.10442
5.10698
5.10905
5.11071
5.11202
5.11296
5.11274
5.00015
5.00827
5.02345
5.0366
5.04774
5.05851
5.06841
5.07691
5.0842
5.09059
5.09625
5.10131
5.10585
5.10998
5.11376
5.11714
5.12002
5.12191
5.00029
5.00717
5.01994
5.03186
5.04227
5.05231
5.0617
5.07002
5.07738
5.08404
5.09013
5.09573
5.10092
5.10575
5.11023
5.1143
5.11783
5.12053
5.00029
5.0061
5.01707
5.02801
5.0378
5.04722
5.05612
5.06417
5.07143
5.07808
5.08423
5.08996
5.09531
5.10032
5.10497
5.1092
5.1129
5.11589
5.00031
5.00522
5.01462
5.02458
5.0338
5.04268
5.05115
5.05893
5.06603
5.07258
5.07868
5.08438
5.08971
5.09469
5.09931
5.10351
5.10718
5.11026
5.00032
5.00448
5.0125
5.02148
5.0301
5.03847
5.04653
5.05403
5.06095
5.06738
5.07337
5.07898
5.08422
5.0891
5.09361
5.0977
5.10129
5.10437
5.00031
5.00385
5.01069
5.01872
5.02671
5.03455
5.04218
5.04938
5.0561
5.06236
5.06822
5.0737
5.07882
5.08358
5.08795
5.09192
5.09542
5.09847
5.00029
5.00335
5.00928
5.0165
5.02389
5.03124
5.03845
5.04534
5.05183
5.05792
5.06363
5.06897
5.07396
5.07858
5.08283
5.08669
5.0901
5.09312
5.00027
5.00293
5.00808
5.01455
5.02136
5.02822
5.03501
5.04157
5.0478
5.05368
5.05921
5.0644
5.06924
5.07373
5.07785
5.08159
5.08493
5.08791
5.00024
5.00253
5.00694
5.01265
5.01882
5.02514
5.03145
5.03761
5.04352
5.04913
5.05444
5.05942
5.06408
5.0684
5.07237
5.07599
5.07923
5.08216
5.00022
5.00215
5.0059
5.01087
5.0164
5.02213
5.02793
5.03365
5.03918
5.04448
5.0495
5.05424
5.05867
5.06279
5.06658
5.07005
5.0732
5.07605
5.00019
5.00182
5.005
5.0093
5.01419
5.01936
5.02464
5.0299
5.03503
5.03997
5.04469
5.04914
5.05332
5.05722
5.06082
5.06414
5.06716
5.06993
5.00016
5.00155
5.00426
5.008
5.01234
5.01699
5.02179
5.02661
5.03136
5.03596
5.04036
5.04453
5.04847
5.05214
5.05556
5.05872
5.06162
5.0643
5.00014
5.00136
5.00375
5.00708
5.01101
5.01526
5.01968
5.02414
5.02856
5.03286
5.03699
5.04093
5.04464
5.04812
5.05138
5.0544
5.0572
5.05978
5.00013
5.00128
5.00353
5.0067
5.01044
5.0145
5.01872
5.023
5.02722
5.03134
5.0353
5.03907
5.04264
5.04599
5.04913
5.05206
5.05479
5.05732
5.00014
5.00136
5.00375
5.0071
5.01102
5.01522
5.01955
5.02389
5.02816
5.03229
5.03624
5.03999
5.04353
5.04685
5.04996
5.05286
5.05556
5.05807
5.00015
5.0015
5.00419
5.00795
5.01225
5.01676
5.02134
5.02589
5.03031
5.03455
5.03858
5.04237
5.04593
5.04926
5.05237
5.05527
5.05797
5.06047
5.00015
5.00165
5.00482
5.0092
5.01404
5.01897
5.0239
5.02874
5.03338
5.03777
5.04189
5.04575
5.04935
5.0527
5.05582
5.05871
5.0614
5.06389
5.00012
5.00172
5.00553
5.01076
5.01625
5.02165
5.02698
5.03213
5.03701
5.04155
5.04579
5.04972
5.05337
5.05674
5.05986
5.06276
5.06544
5.06792
5.00005
5.00169
5.0063
5.01247
5.0186
5.02454
5.03035
5.03589
5.04102
5.04575
5.05011
5.05414
5.05785
5.06125
5.06439
5.06727
5.06994
5.07239
4.99981
5.0012
5.00708
5.0143
5.02098
5.02753
5.03405
5.04015
5.04566
5.05066
5.05521
5.05936
5.06311
5.06652
5.0696
5.07241
5.07497
5.07729
4.99829
4.99842
5.00724
5.01679
5.0245
5.03189
5.03925
5.046
5.05195
5.05722
5.0619
5.06604
5.06966
5.07282
5.07557
5.07796
5.08003
5.08182
4.99438
4.9923
5.00594
5.02053
5.03162
5.04109
5.04958
5.05676
5.06264
5.06747
5.07139
5.07446
5.07677
5.07841
5.07948
5.08004
5.0802
5.08001
4.99493
4.99726
5.01308
5.03041
5.04576
5.05862
5.06801
5.07365
5.07615
5.07623
5.07438
5.07093
5.06622
5.06051
5.05404
5.047
5.03956
5.03194
5.0413
5.09322
5.10213
5.0923
5.08022
5.066
5.04632
5.02098
4.9917
4.96006
4.92721
4.89394
4.86083
4.82832
4.79667
4.76608
4.7366
4.70857
4.9737
4.89696
4.76596
4.60652
4.44794
4.30365
4.17527
4.06166
3.96175
3.87429
3.79756
3.72996
3.67009
3.61682
3.56915
3.52629
3.4873
3.45205
0.00298363
0.00812935
0.0134723
0.0185529
0.0227139
0.0257107
0.0274728
0.0280257
0.0273667
0.02573
0.0232923
0.0202239
0.0166843
0.0128277
0.00888302
0.00557041
0.00545974
0.00923704
0.0144987
0.0204844
0.0270588
0.0342198
0.042002
0.0504526
0.059621
0.0695556
0.0803001
0.0918921
0.10436
0.117725
0.131998
0.147176
0.16325
0.180194
0.197975
0.216551
0.235874
0.25589
0.276535
0.297748
0.319465
0.341622
0.364161
0.387025
0.410161
0.433521
0.457059
0.480736
0.504514
0.528361
0.552246
0.576142
0.600024
0.62387
0.647657
0.671366
0.694978
0.718473
0.741833
0.765039
0.788073
0.810914
0.833542
0.855935
0.878073
0.899933
0.921488
0.942714
0.963583
0.984065
1.00413
1.02375
1.04288
1.06151
1.07959
1.09709
1.11397
1.1302
1.14578
1.16074
1.17504
1.18867
1.2016
1.2138
1.22525
1.23592
1.24578
1.25479
1.26292
1.27013
1.27639
1.28164
1.28584
1.28892
1.29081
1.29145
1.29117
1.28993
1.28775
1.28463
1.28058
1.27559
1.26967
1.26283
1.25506
1.24638
1.2368
1.22634
1.21501
1.20282
1.18981
1.17598
1.16138
1.14601
1.12991
1.11311
1.09563
1.07751
1.05878
1.03947
1.01961
0.999233
0.978379
0.957071
0.935333
0.913195
0.890685
0.867834
0.844667
0.821208
0.797477
0.773496
0.749279
0.724842
0.700197
0.675351
0.650312
0.625079
0.599653
0.574034
0.548225
0.522222
0.496016
0.46959
0.442925
0.416003
0.388803
0.361303
0.333481
0.305314
0.276778
0.247851
0.218512
0.188745
0.158545
0.127914
0.096923
0.0658186
0.0356783
0.0173866
0.0384782
0.0701497
0.103753
0.138386
0.173856
0.210088
0.247028
0.28462
0.322796
0.361476
0.400549
0.439876
0.479293
0.518568
0.557429
0.595289
0.631841
0.663313
0.694404
0.68486
0.011611
0.0191206
0.0206367
0.0196917
0.0177038
0.0152576
0.012704
0.0103415
0.00864845
0.00838572
0.0102436
0.0139981
0.0191188
0.0252805
0.0323213
0.0401632
0.0487642
0.0580972
0.0681629
0.0789801
0.0905675
0.102944
0.116124
0.130118
0.14493
0.160552
0.176969
0.194153
0.212069
0.230671
0.249907
0.26972
0.290043
0.31081
0.331951
0.353401
0.375096
0.396977
0.41899
0.441089
0.463233
0.485383
0.507505
0.52957
0.551555
0.573438
0.595202
0.616831
0.638314
0.659638
0.680795
0.701775
0.722569
0.74317
0.763569
0.783757
0.803725
0.823463
0.842961
0.862207
0.88119
0.899897
0.918312
0.936422
0.95421
0.971661
0.988758
1.00548
1.02182
1.03775
1.05325
1.06831
1.0829
1.09701
1.11062
1.12373
1.13632
1.14837
1.15986
1.17075
1.18101
1.19063
1.19957
1.20782
1.21536
1.22216
1.22821
1.23348
1.23796
1.24164
1.24452
1.2466
1.2479
1.24846
1.24833
1.24759
1.24599
1.24351
1.24012
1.23583
1.23062
1.2245
1.21747
1.20953
1.20069
1.19097
1.18037
1.1689
1.15659
1.14345
1.1295
1.11476
1.09926
1.08301
1.06606
1.04842
1.03013
1.01121
0.991691
0.971608
0.95099
0.929869
0.908273
0.886233
0.863775
0.840925
0.817707
0.794147
0.770269
0.746095
0.721643
0.696931
0.671973
0.646782
0.621367
0.595734
0.569887
0.543825
0.517544
0.491044
0.464323
0.437374
0.410189
0.382749
0.355037
0.327034
0.298721
0.270079
0.241092
0.21175
0.182052
0.152023
0.121742
0.0914477
0.0619168
0.0366124
0.0315306
0.0539212
0.0849709
0.118706
0.153869
0.190039
0.227052
0.264832
0.303325
0.34248
0.382244
0.422554
0.463336
0.504502
0.545944
0.587529
0.629092
0.670416
0.711224
0.75101
0.789341
0.823971
0.856939
0.873297
0.0199392
0.0246898
0.0206462
0.0145416
0.00793179
0.00201038
0.00637307
0.0131334
0.0199893
0.0269423
0.0340886
0.0415521
0.0494553
0.0579032
0.0669765
0.0767325
0.0872086
0.0984249
0.110388
0.123097
0.136537
0.15069
0.165525
0.181008
0.197096
0.21374
0.230885
0.248474
0.266445
0.284737
0.303287
0.322032
0.340916
0.359892
0.378924
0.397976
0.417022
0.436037
0.455004
0.473911
0.492747
0.511506
0.530182
0.548772
0.567273
0.585682
0.603999
0.622219
0.640342
0.658363
0.676279
0.694086
0.711779
0.729352
0.746797
0.764107
0.781273
0.798287
0.815137
0.831812
0.848301
0.86459
0.880665
0.896511
0.912115
0.927458
0.942526
0.957301
0.971765
0.985901
0.999691
1.01312
1.02616
1.0388
1.05103
1.06282
1.07415
1.08499
1.09533
1.10512
1.11435
1.12298
1.13101
1.13839
1.14513
1.15118
1.15655
1.1612
1.16513
1.16832
1.17077
1.17247
1.17343
1.17364
1.17308
1.17172
1.16951
1.16645
1.16252
1.15772
1.15204
1.14547
1.13803
1.12972
1.12054
1.11051
1.09963
1.08791
1.07538
1.06205
1.04794
1.03307
1.01746
1.00114
0.98413
0.966459
0.948153
0.929241
0.909752
0.889713
0.869155
0.848105
0.826594
0.804649
0.782296
0.75956
0.736463
0.713027
0.689273
0.665222
0.640891
0.616297
0.591451
0.566365
0.541047
0.515502
0.489733
0.463738
0.437516
0.411066
0.384386
0.357474
0.330322
0.302924
0.275271
0.247361
0.219205
0.190828
0.162297
0.133763
0.105576
0.0786429
0.0556728
0.0446287
0.054488
0.078418
0.108001
0.140203
0.174008
0.209033
0.245089
0.282038
0.319793
0.35829
0.397472
0.437281
0.477655
0.518525
0.559808
0.601412
0.643225
0.685113
0.726915
0.768421
0.809369
0.84932
0.8879
0.923643
0.958264
0.983593
0.0235677
0.0236868
0.0166212
0.0102408
0.0101047
0.0163781
0.0244191
0.0328564
0.0414083
0.050042
0.0588105
0.0678045
0.0771262
0.0868725
0.0971241
0.10794
0.119356
0.131388
0.144031
0.157268
0.171065
0.185382
0.200167
0.215366
0.230919
0.246767
0.262851
0.279112
0.295498
0.311958
0.328449
0.344941
0.361408
0.377833
0.394202
0.410507
0.426745
0.442916
0.45902
0.475061
0.491044
0.506976
0.522862
0.538708
0.554517
0.570291
0.586032
0.60174
0.617413
0.633048
0.648642
0.664189
0.679684
0.695119
0.710486
0.725776
0.740978
0.756084
0.771079
0.785953
0.800692
0.815282
0.829708
0.843955
0.858007
0.871848
0.885461
0.898827
0.91193
0.92475
0.937268
0.949466
0.961324
0.972823
0.983942
0.99466
1.00495
1.0148
1.02416
1.03302
1.04136
1.04914
1.05634
1.06295
1.06895
1.0743
1.079
1.08303
1.08637
1.08901
1.09093
1.09213
1.09258
1.09228
1.0912
1.08932
1.08662
1.08309
1.07873
1.07352
1.06747
1.06058
1.05284
1.04427
1.03486
1.02462
1.01358
1.00173
0.989093
0.975688
0.961531
0.946642
0.931043
0.914757
0.897807
0.880219
0.862018
0.843232
0.823888
0.804012
0.783633
0.762779
0.741476
0.719752
0.697633
0.675143
0.6523
0.629126
0.605642
0.581865
0.557815
0.533505
0.508949
0.484158
0.459141
0.433905
0.408455
0.382795
0.35693
0.330867
0.304616
0.278194
0.25162
0.224931
0.19819
0.171511
0.145115
0.119443
0.0954328
0.075202
0.06319
0.0648892
0.0800421
0.103397
0.131079
0.161267
0.193137
0.226298
0.26055
0.295786
0.331933
0.368915
0.406668
0.445133
0.484251
0.52396
0.564195
0.604882
0.645937
0.687265
0.728753
0.770272
0.811664
0.852732
0.893237
0.932815
0.971182
1.00737
1.04308
1.07285
0.0216035
0.0175622
0.0116108
0.014072
0.0223484
0.0319504
0.0418071
0.0516797
0.0615216
0.0713565
0.0812433
0.0912595
0.101489
0.112009
0.122887
0.134169
0.145881
0.15803
0.170602
0.183572
0.1969
0.21054
0.224437
0.238539
0.252789
0.267137
0.281534
0.295938
0.310316
0.324639
0.33889
0.353059
0.367139
0.38113
0.395035
0.40886
0.422614
0.436309
0.449956
0.463567
0.477155
0.490728
0.504297
0.517866
0.531442
0.545028
0.558625
0.572233
0.585851
0.599475
0.613101
0.626723
0.640334
0.653925
0.667488
0.681014
0.69449
0.707905
0.721247
0.734504
0.74766
0.760701
0.773612
0.786378
0.798982
0.811408
0.823637
0.835652
0.847435
0.858966
0.870227
0.881198
0.891858
0.902188
0.912166
0.92177
0.930975
0.939758
0.948093
0.955956
0.963322
0.970169
0.976474
0.982216
0.987374
0.991929
0.995861
0.999152
1.00178
1.00374
1.00501
1.00558
1.00542
1.00453
1.00287
1.00044
0.997216
0.993203
0.988389
0.982771
0.976345
0.96911
0.961068
0.952224
0.942583
0.932153
0.920944
0.908969
0.89624
0.882775
0.86859
0.853704
0.838139
0.821915
0.805056
0.787587
0.769531
0.750915
0.731764
0.712106
0.691967
0.671374
0.650353
0.62893
0.607134
0.584985
0.562503
0.539709
0.516623
0.493266
0.469657
0.445812
0.421749
0.397484
0.373032
0.348411
0.323638
0.298738
0.273742
0.2487
0.223683
0.198804
0.174239
0.150292
0.127504
0.10687
0.0902158
0.0804759
0.0806594
0.0911444
0.109402
0.132618
0.158964
0.187424
0.217448
0.248727
0.281084
0.314412
0.348644
0.383735
0.419645
0.456326
0.493728
0.531796
0.570476
0.609706
0.649419
0.68954
0.729987
0.770663
0.81146
0.852252
0.892889
0.933192
0.972948
1.01186
1.04975
1.08596
1.12224
1.15417
0.015055
0.00952329
0.0141961
0.0248842
0.0362014
0.0474128
0.0584344
0.0692798
0.0799831
0.0905922
0.101165
0.111767
0.122462
0.133309
0.144357
0.155639
0.167172
0.178955
0.190974
0.203201
0.215601
0.228132
0.240749
0.253407
0.266066
0.278688
0.291242
0.303704
0.316057
0.328291
0.340403
0.352395
0.364275
0.376052
0.387739
0.39935
0.410901
0.42241
0.433892
0.445362
0.456834
0.468319
0.479827
0.491364
0.502937
0.514549
0.526202
0.537894
0.549625
0.56139
0.573185
0.585004
0.596839
0.608681
0.620522
0.63235
0.644155
0.655924
0.667645
0.679304
0.690887
0.702378
0.713763
0.725027
0.736151
0.74712
0.757915
0.76852
0.778915
0.789082
0.799001
0.808654
0.818019
0.827076
0.835804
0.844182
0.852185
0.859791
0.866977
0.873718
0.879992
0.885777
0.891052
0.895795
0.899986
0.903606
0.906635
0.909055
0.910849
0.912
0.912491
0.912306
0.911428
0.90984
0.907525
0.904472
0.90067
0.896113
0.890796
0.884714
0.877865
0.870249
0.861867
0.852724
0.842824
0.832177
0.820791
0.808678
0.795851
0.782325
0.768118
0.753248
0.737734
0.721598
0.704863
0.68755
0.669686
0.651294
0.632401
0.613033
0.593216
0.572977
0.552343
0.531342
0.510002
0.488346
0.466396
0.444176
0.421712
0.399029
0.376155
0.353118
0.329952
0.306693
0.283388
0.260096
0.236898
0.21391
0.191306
0.169357
0.14849
0.129392
0.113163
0.101428
0.0961259
0.0985941
0.108596
0.124607
0.144913
0.168217
0.193676
0.220771
0.249185
0.278718
0.309244
0.340682
0.372978
0.406094
0.440003
0.474681
0.510099
0.546221
0.583008
0.620413
0.658381
0.696854
0.735767
0.775046
0.814609
0.854364
0.894205
0.934013
0.973649
1.01295
1.05174
1.08979
1.12698
1.16289
1.19928
1.23212
0.00567407
0.012776
0.0259486
0.0387322
0.0510394
0.062928
0.0744887
0.0857931
0.0968937
0.107838
0.118674
0.12945
0.140212
0.151001
0.161848
0.172775
0.183791
0.194892
0.206065
0.217286
0.228528
0.239758
0.250944
0.262053
0.27306
0.283941
0.294681
0.305268
0.315699
0.325975
0.336105
0.346097
0.355966
0.365729
0.375403
0.385008
0.394562
0.404084
0.413593
0.423103
0.43263
0.442184
0.451777
0.461415
0.471105
0.480849
0.49065
0.500507
0.510418
0.520381
0.530388
0.540436
0.550515
0.560617
0.570733
0.580852
0.590963
0.601053
0.611109
0.621119
0.631067
0.640939
0.65072
0.660393
0.669943
0.679353
0.688606
0.697684
0.70657
0.715244
0.723688
0.731884
0.73981
0.747449
0.754778
0.761778
0.768426
0.774701
0.780582
0.786045
0.79107
0.795637
0.799724
0.803312
0.806382
0.808914
0.810891
0.812294
0.813106
0.813311
0.812893
0.811836
0.810125
0.807743
0.804678
0.800919
0.796457
0.791286
0.785402
0.7788
0.771479
0.763439
0.754683
0.745214
0.735038
0.724161
0.712595
0.70035
0.687439
0.673878
0.659682
0.64487
0.629461
0.613477
0.596941
0.579874
0.562303
0.544253
0.52575
0.506822
0.487498
0.467808
0.447782
0.427453
0.406857
0.386024
0.36499
0.343793
0.322478
0.301099
0.279719
0.258421
0.237308
0.216524
0.196264
0.176809
0.158567
0.142136
0.12836
0.118337
0.113251
0.113957
0.120546
0.132332
0.148266
0.16735
0.188809
0.212093
0.236835
0.262787
0.289786
0.317722
0.346522
0.376137
0.406531
0.437681
0.469569
0.502182
0.535506
0.569524
0.604212
0.639543
0.67548
0.711983
0.749
0.786477
0.82435
0.862548
0.900993
0.939595
0.978256
1.01686
1.05529
1.0934
1.13104
1.16803
1.20434
1.23967
1.27578
1.30875
0.00869859
0.0268648
0.0412714
0.0542829
0.0666397
0.0785358
0.0900855
0.101364
0.112419
0.123284
0.133994
0.144577
0.155063
0.165474
0.175829
0.186139
0.196407
0.206628
0.21679
0.226876
0.236866
0.246738
0.25647
0.266043
0.275442
0.284657
0.293681
0.302514
0.311161
0.319631
0.327937
0.336094
0.344121
0.352037
0.359863
0.367619
0.375326
0.383003
0.39067
0.39834
0.40603
0.413751
0.421513
0.429325
0.437191
0.445116
0.453102
0.461148
0.469253
0.477413
0.485624
0.493879
0.502171
0.510492
0.518831
0.527178
0.535523
0.543853
0.552155
0.560416
0.568622
0.576758
0.584811
0.592764
0.600601
0.608308
0.615867
0.623261
0.630474
0.637487
0.644285
0.650847
0.657157
0.663195
0.668942
0.67438
0.679488
0.684247
0.688637
0.692638
0.696232
0.699398
0.702119
0.704377
0.706152
0.707429
0.708191
0.70842
0.708101
0.707218
0.705757
0.703705
0.701046
0.697768
0.693859
0.689311
0.684116
0.678268
0.671764
0.664601
0.656778
0.648297
0.639159
0.62937
0.618934
0.607861
0.59616
0.583843
0.570923
0.557416
0.543339
0.528712
0.513555
0.497892
0.481747
0.465146
0.448117
0.430692
0.412903
0.394786
0.376381
0.35773
0.33888
0.319889
0.300822
0.28175
0.262763
0.243969
0.225511
0.207574
0.19041
0.174349
0.159836
0.147445
0.13787
0.131853
0.130021
0.132682
0.13971
0.150626
0.164784
0.18155
0.200392
0.220898
0.242766
0.265779
0.289782
0.314668
0.340361
0.366809
0.393979
0.421846
0.450396
0.47962
0.509509
0.540059
0.571264
0.603121
0.63562
0.668747
0.702483
0.7368
0.771669
0.807049
0.842897
0.879159
0.915774
0.952677
0.989791
1.02703
1.06431
1.10153
1.13856
1.1753
1.21161
1.24738
1.28261
1.31712
1.35261
1.38516
0.0218024
0.0434039
0.0581309
0.0707815
0.0826658
0.0940965
0.105202
0.116054
0.126687
0.137122
0.147376
0.157462
0.167393
0.177179
0.186825
0.196334
0.205704
0.21493
0.224002
0.232906
0.24163
0.250159
0.258482
0.266588
0.274471
0.282129
0.289562
0.296778
0.303785
0.310597
0.317231
0.323704
0.330036
0.336249
0.342363
0.348399
0.354378
0.36032
0.366242
0.37216
0.378088
0.384039
0.390023
0.396047
0.402118
0.40824
0.414414
0.420641
0.426919
0.433246
0.439616
0.446025
0.452464
0.458925
0.4654
0.471878
0.478349
0.4848
0.491219
0.497594
0.503912
0.510158
0.516319
0.52238
0.528327
0.534144
0.539817
0.54533
0.550667
0.555812
0.56075
0.565465
0.56994
0.574158
0.578103
0.581758
0.585106
0.58813
0.590812
0.593137
0.595086
0.596645
0.597796
0.598525
0.598816
0.598654
0.598025
0.596914
0.595307
0.593192
0.590556
0.587388
0.583675
0.579409
0.57458
0.56918
0.563205
0.55665
0.549514
0.541795
0.533495
0.524615
0.515161
0.505139
0.494555
0.483422
0.47175
0.459554
0.446851
0.433661
0.420006
0.405911
0.391405
0.376519
0.361291
0.345759
0.329973
0.313984
0.297856
0.281664
0.265497
0.249461
0.233689
0.218348
0.203646
0.18984
0.177248
0.166256
0.157308
0.150879
0.14741
0.147217
0.150414
0.156893
0.166362
0.178433
0.192703
0.208805
0.226428
0.245325
0.265302
0.286213
0.307949
0.330429
0.353593
0.377402
0.401827
0.426848
0.452455
0.478643
0.50541
0.532757
0.560687
0.589204
0.618309
0.648003
0.678288
0.70916
0.740612
0.772632
0.805203
0.838298
0.87189
0.905943
0.940416
0.975258
1.01041
1.04582
1.08141
1.1171
1.15281
1.18845
1.22392
1.25912
1.29395
1.32832
1.3623
1.39574
1.43031
1.46204
0.0356306
0.0606582
0.075541
0.0875974
0.0987213
0.109379
0.119733
0.129857
0.139778
0.149508
0.15905
0.168404
0.177571
0.186548
0.195333
0.203921
0.212306
0.220481
0.228438
0.236166
0.243656
0.250901
0.257894
0.264631
0.271111
0.277337
0.283315
0.289053
0.294565
0.299866
0.304973
0.309903
0.314678
0.319319
0.323844
0.328276
0.332634
0.336936
0.341199
0.345438
0.349667
0.353898
0.358142
0.362404
0.366693
0.371011
0.375361
0.379743
0.384157
0.388598
0.393063
0.397547
0.402042
0.406542
0.411037
0.415518
0.419974
0.424395
0.428769
0.433084
0.437328
0.441489
0.445554
0.449509
0.453342
0.457039
0.460587
0.463973
0.467183
0.470205
0.473024
0.475627
0.478001
0.480132
0.482007
0.483613
0.484935
0.48596
0.486676
0.487069
0.487126
0.486835
0.486183
0.485159
0.483751
0.481949
0.47974
0.477115
0.474064
0.470576
0.466644
0.46226
0.457417
0.452108
0.446329
0.440075
0.433346
0.426143
0.418466
0.410319
0.401709
0.392643
0.383131
0.373187
0.362827
0.352069
0.340938
0.32946
0.317669
0.305604
0.293311
0.280846
0.268275
0.255675
0.243142
0.230788
0.21875
0.207194
0.196318
0.186357
0.177581
0.17029
0.164796
0.161397
0.16034
0.161769
0.16571
0.172075
0.180681
0.191296
0.203672
0.21757
0.232775
0.249104
0.266403
0.284547
0.303437
0.322993
0.343155
0.363875
0.385117
0.406857
0.429079
0.45177
0.474927
0.498549
0.522637
0.547198
0.572237
0.597763
0.623785
0.650312
0.677353
0.704914
0.733002
0.761619
0.790767
0.820444
0.850644
0.881355
0.91256
0.944235
0.976355
1.00889
1.04179
1.07502
1.10852
1.14225
1.17612
1.21009
1.24405
1.27795
1.31169
1.34518
1.37837
1.41118
1.44373
1.47589
1.50928
1.53988
0.0492463
0.0777819
0.0928088
0.104197
0.114423
0.124131
0.133536
0.142726
0.151732
0.160559
0.169203
0.177656
0.185911
0.193956
0.201782
0.209379
0.216739
0.22385
0.230706
0.237297
0.243616
0.249658
0.25542
0.260902
0.266104
0.271032
0.275694
0.280099
0.284263
0.288198
0.291922
0.295453
0.298809
0.302009
0.305073
0.308019
0.310865
0.313627
0.316322
0.318961
0.32156
0.324128
0.326674
0.329206
0.331729
0.334247
0.336762
0.339274
0.341781
0.344281
0.346769
0.349242
0.351691
0.354111
0.356493
0.358828
0.361106
0.363318
0.365452
0.3675
0.369448
0.371288
0.373007
0.374594
0.37604
0.377333
0.378462
0.379418
0.38019
0.380769
0.381143
0.381305
0.381245
0.380953
0.380422
0.379641
0.378603
0.3773
0.375724
0.373868
0.371723
0.369284
0.366545
0.363499
0.360142
0.356469
0.352474
0.348156
0.34351
0.338534
0.333229
0.327593
0.32163
0.315341
0.308733
0.301814
0.294593
0.287086
0.279308
0.271283
0.263037
0.254602
0.246017
0.23733
0.228598
0.219889
0.211286
0.202886
0.194805
0.187182
0.180173
0.173957
0.168729
0.164692
0.162044
0.16096
0.161577
0.163976
0.168174
0.17413
0.18175
0.190909
0.201464
0.21327
0.226191
0.240095
0.254866
0.270402
0.286613
0.303424
0.320777
0.338621
0.356917
0.375631
0.394738
0.414217
0.434053
0.454235
0.474757
0.495615
0.516811
0.538346
0.560228
0.582463
0.605063
0.628037
0.651398
0.675156
0.699326
0.723918
0.748945
0.774419
0.800349
0.826744
0.85361
0.88095
0.908765
0.937054
0.96581
0.995022
1.02467
1.05474
1.0852
1.11603
1.14718
1.17861
1.21029
1.24215
1.27414
1.3062
1.33826
1.37024
1.40209
1.43373
1.46511
1.49622
1.52716
1.55782
1.58981
1.61902
0.0621381
0.0942157
0.109424
0.120146
0.129433
0.13811
0.14646
0.154594
0.162554
0.170349
0.177974
0.185417
0.192665
0.199703
0.206518
0.213095
0.219423
0.225489
0.231284
0.236799
0.242027
0.246963
0.251606
0.255955
0.260012
0.263783
0.267276
0.2705
0.273467
0.27619
0.278685
0.280967
0.283053
0.284959
0.286701
0.288297
0.289761
0.291106
0.292347
0.293495
0.29456
0.295551
0.296476
0.29734
0.298148
0.298902
0.299602
0.300249
0.300839
0.30137
0.301838
0.302237
0.302561
0.302802
0.302953
0.303005
0.302949
0.302775
0.302475
0.302039
0.301457
0.30072
0.299819
0.298746
0.297493
0.296052
0.294416
0.292577
0.290531
0.288271
0.285792
0.28309
0.280162
0.277004
0.273613
0.269989
0.26613
0.262035
0.257706
0.253143
0.248351
0.243332
0.238093
0.232639
0.226979
0.221125
0.215087
0.208883
0.20253
0.196052
0.189476
0.182837
0.176176
0.169544
0.163
0.156617
0.150484
0.144705
0.1394
0.134708
0.130783
0.127784
0.125872
0.125193
0.125861
0.127952
0.131489
0.136451
0.142775
0.15037
0.15913
0.168945
0.179708
0.191319
0.203688
0.216736
0.230393
0.244599
0.2593
0.274451
0.29001
0.305942
0.32222
0.338818
0.355717
0.372897
0.390343
0.408039
0.425969
0.444125
0.462499
0.481088
0.499888
0.518899
0.538122
0.557559
0.577214
0.597093
0.617202
0.637551
0.658149
0.679009
0.700143
0.721564
0.743287
0.765326
0.787696
0.81041
0.833483
0.856927
0.880755
0.904979
0.929607
0.954649
0.980109
1.00599
1.03229
1.05902
1.08615
1.11369
1.14161
1.1699
1.19853
1.22747
1.2567
1.28617
1.31584
1.34567
1.37561
1.4056
1.43558
1.4655
1.4953
1.52493
1.55437
1.5836
1.61276
1.64175
1.67211
1.69974
0.0739684
0.109577
0.125022
0.135122
0.143482
0.151111
0.158362
0.165381
0.172227
0.178918
0.185454
0.191825
0.198017
0.204015
0.209801
0.215361
0.220678
0.225739
0.230533
0.235049
0.239278
0.243216
0.246859
0.250205
0.253257
0.256017
0.258492
0.260691
0.262623
0.264299
0.265732
0.266935
0.26792
0.268703
0.269296
0.269713
0.269965
0.270063
0.270016
0.269833
0.269523
0.269092
0.268544
0.267882
0.267109
0.266224
0.265227
0.264115
0.262885
0.261532
0.260051
0.258435
0.256678
0.254772
0.252707
0.250474
0.248065
0.245469
0.242678
0.239681
0.236471
0.233039
0.229377
0.225478
0.221334
0.216939
0.212289
0.207378
0.202201
0.196756
0.191041
0.185052
0.17879
0.172254
0.165446
0.158367
0.151022
0.143415
0.135555
0.127452
0.119119
0.110577
0.101853
0.0929842
0.0840284
0.0750707
0.066245
0.0577691
0.0500058
0.043554
0.0393104
0.0382705
0.0409136
0.0468213
0.0551237
0.0650543
0.076101
0.0879496
0.100408
0.113354
0.126709
0.140416
0.154437
0.168741
0.183305
0.19811
0.213139
0.228381
0.243821
0.259449
0.275256
0.291232
0.307369
0.32366
0.340098
0.356676
0.373388
0.390226
0.407186
0.424261
0.441446
0.458734
0.476123
0.493614
0.511202
0.528891
0.546682
0.564573
0.582563
0.600655
0.618853
0.637163
0.655589
0.67414
0.692822
0.711644
0.730615
0.749745
0.769046
0.78853
0.808211
0.828102
0.84822
0.868578
0.889193
0.910079
0.931251
0.952723
0.974509
0.996621
1.01907
1.04187
1.06502
1.08854
1.11243
1.13669
1.16131
1.1863
1.21165
1.23735
1.26338
1.28972
1.31636
1.34326
1.3704
1.39774
1.42525
1.45289
1.48062
1.50839
1.53614
1.56385
1.59145
1.61892
1.64626
1.67346
1.70069
1.72782
1.75637
1.78222
0.0845441
0.123629
0.139368
0.1489
0.156373
0.16297
0.169119
0.175005
0.180709
0.186267
0.191685
0.196961
0.202084
0.207039
0.211809
0.216378
0.220727
0.224842
0.228706
0.232309
0.235639
0.238689
0.241454
0.243931
0.246118
0.248017
0.249634
0.250973
0.252044
0.252853
0.253412
0.253731
0.25382
0.25369
0.253352
0.252816
0.252091
0.251184
0.250103
0.248854
0.247442
0.245872
0.244146
0.242265
0.24023
0.23804
0.235694
0.233188
0.230519
0.227683
0.224675
0.221492
0.218125
0.21457
0.210819
0.206865
0.202703
0.198326
0.193731
0.188912
0.183868
0.178597
0.173099
0.167377
0.161435
0.15528
0.148921
0.142374
0.135656
0.128792
0.121815
0.114769
0.10771
0.100716
0.0938884
0.0873636
0.0813218
0.0759961
0.0716737
0.0686798
0.0673319
0.0678684
0.0703821
0.0748023
0.0809358
0.0885358
0.0973578
0.10719
0.117861
0.129236
0.141209
0.153699
0.166643
0.179988
0.193696
0.207731
0.222065
0.236674
0.251534
0.266627
0.281934
0.297439
0.313126
0.328982
0.344993
0.361145
0.377427
0.393827
0.410334
0.426937
0.443627
0.460394
0.477232
0.494131
0.511086
0.528091
0.54514
0.562228
0.57935
0.596502
0.613677
0.630875
0.648092
0.66533
0.68259
0.699878
0.717199
0.734552
0.751944
0.769379
0.786863
0.804406
0.822014
0.839698
0.857467
0.875331
0.893301
0.91139
0.929609
0.947973
0.966496
0.985194
1.00408
1.02317
1.04248
1.06203
1.08182
1.10187
1.1222
1.14282
1.16372
1.18494
1.20646
1.2283
1.25046
1.27294
1.29573
1.31884
1.34225
1.36596
1.38995
1.4142
1.43869
1.4634
1.4883
1.51336
1.53856
1.56386
1.58923
1.61463
1.64001
1.66535
1.69062
1.71579
1.74087
1.7659
1.79103
1.81615
1.84271
1.86662
0.093826
0.136292
0.152368
0.16138
0.168001
0.173587
0.178644
0.183397
0.187956
0.192374
0.196674
0.200858
0.204924
0.208857
0.212644
0.216265
0.219702
0.222936
0.225951
0.228732
0.231265
0.23354
0.23555
0.237289
0.238754
0.239945
0.240866
0.24152
0.241915
0.242056
0.241954
0.241618
0.241056
0.24028
0.239299
0.238122
0.236757
0.235213
0.233498
0.231618
0.229581
0.227394
0.225062
0.222593
0.219991
0.217263
0.214414
0.211451
0.208381
0.205213
0.201958
0.198626
0.19523
0.191782
0.188301
0.184805
0.18132
0.177872
0.174495
0.171226
0.168108
0.165189
0.162521
0.16016
0.158168
0.156607
0.15554
0.15503
0.155132
0.155901
0.157379
0.159598
0.162581
0.166338
0.170868
0.176159
0.182192
0.188941
0.196376
0.204462
0.213167
0.222453
0.232288
0.242637
0.25347
0.264756
0.276469
0.288584
0.301077
0.313926
0.32711
0.340608
0.354401
0.368472
0.382804
0.397381
0.412187
0.427207
0.442425
0.457826
0.473396
0.48912
0.504985
0.520977
0.537082
0.553287
0.569579
0.585946
0.602377
0.618859
0.635383
0.651938
0.668515
0.685107
0.701707
0.718307
0.734904
0.751492
0.768066
0.78462
0.801152
0.817657
0.834132
0.85058
0.867005
0.883417
0.899818
0.916213
0.932607
0.949009
0.965425
0.981866
0.998342
1.01486
1.03143
1.04807
1.06479
1.08159
1.0985
1.11552
1.13267
1.14998
1.16744
1.18507
1.2029
1.22093
1.23917
1.25764
1.27635
1.29531
1.31452
1.334
1.35375
1.37376
1.39405
1.41461
1.43543
1.45652
1.47786
1.49944
1.52124
1.54326
1.56546
1.58784
1.61037
1.63302
1.65576
1.67859
1.70145
1.72434
1.74721
1.77005
1.79284
1.81557
1.83827
1.86098
1.88387
1.90681
1.93122
1.95305
0.102173
0.147961
0.164387
0.172875
0.17863
0.183179
0.18711
0.190695
0.194076
0.197326
0.200484
0.203565
0.206571
0.209493
0.212317
0.215022
0.217588
0.219995
0.222223
0.224252
0.226069
0.227659
0.229014
0.230128
0.230996
0.23162
0.232001
0.232146
0.232063
0.231761
0.23125
0.230542
0.229651
0.22859
0.227375
0.226022
0.224545
0.222961
0.22129
0.219549
0.217759
0.215943
0.214124
0.212327
0.21058
0.208911
0.20735
0.205931
0.204689
0.203662
0.202888
0.202408
0.202259
0.20248
0.20311
0.204186
0.205741
0.207808
0.210413
0.213577
0.217318
0.221644
0.226561
0.232066
0.238154
0.244813
0.252027
0.25978
0.268049
0.276812
0.286045
0.295725
0.305828
0.316329
0.327206
0.338436
0.349998
0.361873
0.374041
0.386486
0.399191
0.412142
0.425325
0.438725
0.452333
0.466137
0.480128
0.494295
0.508628
0.523119
0.53776
0.552542
0.567457
0.582496
0.597654
0.612921
0.62829
0.643753
0.659301
0.674925
0.690616
0.706367
0.722167
0.738009
0.753883
0.769779
0.785689
0.801603
0.817514
0.833411
0.849289
0.865139
0.880955
0.896733
0.912467
0.928153
0.943789
0.959371