/*--------------------------------*- C++ -*----------------------------------*\
| =========                 |                                                 |
| \\      /  F ield         | OpenFOAM: The Open Source CFD Toolbox           |
|  \\    /   O peration     | Version:  2312                                  |
|   \\  /    A nd           | Website:  www.openfoam.com                      |
|    \\/     M anipulation  |                                                 |
\*---------------------------------------------------------------------------*/
FoamFile
{
    version     2.0;
    format      ascii;
    arch        "LSB;label=32;scalar=64";
    class       volScalarField;
    location    "200";
    object      mag(U);
}
// * * * * * * * * * * * * * * * * * * * * * * * * * * * * * * * * * * * * * //

dimensions      [0 1 -1 0 0 0 0];

internalField   nonuniform List<scalar> 
12225
(
0.984913
0.877292
0.765364
0.662617
0.593578
0.551023
0.522451
0.501575
0.485482
0.472531
0.461893
0.453202
0.446321
0.441206
0.438146
0.437437
0.440415
0.446201
1.04742
1.02191
0.978456
0.928525
0.884121
0.847787
0.81848
0.795256
0.776921
0.762214
0.750242
0.740496
0.732713
0.726781
0.722824
0.721039
0.722867
0.726984
1.00435
1.00816
1.00915
0.996014
0.976323
0.955224
0.935114
0.917527
0.902853
0.890756
0.880804
0.872684
0.866202
0.861257
0.857869
0.85607
0.856259
0.85671
0.999139
1.00559
1.01617
1.01573
1.0083
0.997421
0.985094
0.973112
0.962427
0.953242
0.945493
0.939081
0.933912
0.929918
0.927066
0.925253
0.924373
0.922887
0.999562
1.00583
1.01725
1.02161
1.02061
1.01614
1.00941
1.00193
0.9947
0.988157
0.982446
0.977612
0.973648
0.970522
0.968176
0.966446
0.965071
0.962825
0.999818
1.00551
1.0162
1.02262
1.02517
1.02471
1.0219
1.01787
1.0135
1.00924
1.00536
1.00196
0.999108
0.996789
0.994946
0.993401
0.991888
0.989489
0.999809
1.00489
1.01458
1.02177
1.02623
1.02826
1.02817
1.02674
1.02464
1.02232
1.02002
1.01792
1.01608
1.01452
1.01319
1.01192
1.01049
1.00826
0.999819
1.00429
1.01291
1.0202
1.02561
1.02914
1.0309
1.03137
1.03105
1.03031
1.02937
1.02839
1.02747
1.02662
1.02579
1.02486
1.02367
1.02179
0.999887
1.00378
1.01134
1.01838
1.02417
1.02857
1.03154
1.03336
1.03439
1.0349
1.03508
1.03507
1.03494
1.03473
1.0344
1.03386
1.033
1.03155
0.999967
1.00334
1.00991
1.01652
1.02236
1.0272
1.03093
1.03368
1.0357
1.03717
1.03824
1.03901
1.03957
1.03993
1.04006
1.03992
1.03943
1.03844
1.00003
1.00294
1.00863
1.01472
1.02041
1.02541
1.02957
1.03294
1.03565
1.03782
1.03958
1.04099
1.04211
1.04295
1.04351
1.04376
1.04365
1.04312
1.00007
1.00261
1.00759
1.01318
1.01861
1.02359
1.02794
1.03165
1.03478
1.03742
1.03963
1.04149
1.04301
1.04423
1.04514
1.04571
1.04595
1.0458
1.00009
1.00232
1.00666
1.01175
1.01689
1.02175
1.02616
1.03005
1.03346
1.03642
1.03898
1.04117
1.04302
1.04455
1.04575
1.04663
1.04717
1.04738
1.00011
1.00202
1.00574
1.01028
1.01503
1.01968
1.02404
1.02801
1.03159
1.03478
1.03759
1.04006
1.04219
1.044
1.04548
1.04665
1.04751
1.04807
1.00011
1.00172
1.00485
1.00884
1.01314
1.01749
1.02168
1.02562
1.02925
1.03256
1.03555
1.03821
1.04055
1.04258
1.04431
1.04574
1.04689
1.04778
1.00011
1.00145
1.00406
1.00749
1.01134
1.01532
1.01927
1.02307
1.02665
1.02997
1.03302
1.03578
1.03826
1.04045
1.04237
1.04402
1.04542
1.04659
1.0001
1.00122
1.00341
1.00637
1.00977
1.01338
1.01704
1.02064
1.02408
1.02733
1.03036
1.03314
1.03567
1.03795
1.03998
1.04178
1.04336
1.04474
1.00009
1.00106
1.00297
1.00559
1.00866
1.01196
1.01536
1.01874
1.02202
1.02515
1.02809
1.03081
1.03332
1.03561
1.03769
1.03955
1.04122
1.04271
1.00009
1.00101
1.00282
1.00534
1.00828
1.01146
1.01472
1.01797
1.02112
1.02412
1.02695
1.02957
1.03199
1.03421
1.03623
1.03805
1.0397
1.04119
1.00009
1.0011
1.00309
1.00581
1.00895
1.01226
1.0156
1.01886
1.02197
1.02489
1.02759
1.03007
1.03232
1.03437
1.03621
1.03785
1.03933
1.04064
1.00009
1.00122
1.00353
1.00664
1.0101
1.01366
1.01715
1.02045
1.02352
1.02631
1.02883
1.03109
1.0331
1.03487
1.03642
1.03779
1.03897
1.04
1.00006
1.00131
1.00409
1.00774
1.01163
1.01547
1.01909
1.02238
1.02528
1.02782
1.03001
1.03188
1.03347
1.0348
1.0359
1.03682
1.03756
1.03816
0.999972
1.00132
1.00473
1.00903
1.01338
1.01747
1.02109
1.02416
1.02668
1.0287
1.0303
1.03152
1.03244
1.0331
1.03355
1.03382
1.03394
1.03396
0.999828
1.00118
1.00541
1.01046
1.0152
1.01935
1.02269
1.02516
1.02688
1.02798
1.0286
1.02883
1.02876
1.02847
1.02802
1.02743
1.02675
1.02602
0.999538
1.00075
1.00618
1.01199
1.01684
1.0206
1.02306
1.02428
1.02456
1.02415
1.02327
1.02206
1.02064
1.0191
1.01748
1.01584
1.01418
1.01257
0.998544
0.999519
1.00686
1.01336
1.01764
1.02004
1.02054
1.01944
1.01732
1.01461
1.01159
1.00844
1.00528
1.00218
0.999169
0.996273
0.993493
0.990875
0.996379
0.997079
1.00687
1.01344
1.01563
1.01474
1.0113
1.0062
1.00035
0.99434
0.988455
0.982832
0.977534
0.972574
0.96794
0.96361
0.959553
0.955801
0.997526
0.998373
1.00659
1.0086
1.00433
0.996011
0.985168
0.973441
0.962061
0.951542
0.941975
0.93331
0.925456
0.918311
0.911778
0.905775
0.900222
0.895138
1.03262
1.0259
1.0081
0.983293
0.956988
0.93126
0.906993
0.885268
0.866556
0.850568
0.83676
0.824665
0.81394
0.804326
0.795623
0.787691
0.780378
0.773711
1.00442
0.957554
0.881658
0.795627
0.726493
0.677614
0.642465
0.616004
0.595286
0.578353
0.563956
0.551387
0.540239
0.530249
0.5212
0.512975
0.505365
0.498464
0.000740786
0.0021173
0.00376446
0.00548957
0.00697021
0.00806144
0.00871766
0.00894309
0.0087587
0.00822727
0.00740538
0.00634213
0.0050771
0.00364484
0.00211255
0.00104785
0.00228483
0.00439147
0.0068081
0.00950211
0.0124909
0.0158025
0.0194675
0.0235161
0.0279755
0.0328684
0.0382111
0.0440139
0.0502777
0.0569943
0.0641464
0.0717072
0.079642
0.0879088
0.0964586
0.105239
0.114194
0.123268
0.132404
0.141547
0.150643
0.159643
0.168501
0.177174
0.185623
0.193814
0.201716
0.209304
0.216553
0.223443
0.229957
0.236081
0.241801
0.247106
0.251986
0.256434
0.260441
0.264
0.267105
0.269746
0.271914
0.273602
0.274804
0.275515
0.275714
0.275449
0.274785
0.273727
0.272293
0.270492
0.268335
0.265829
0.262984
0.259809
0.256313
0.252507
0.248399
0.244002
0.239325
0.23438
0.229177
0.223729
0.218047
0.212142
0.206025
0.199707
0.193201
0.186519
0.179673
0.172675
0.165536
0.158271
0.150889
0.143402
0.135823
0.128161
0.120428
0.112636
0.104795
0.0969172
0.089013
0.081094
0.0731715
0.0652569
0.0573623
0.049501
0.0416885
0.0339456
0.0263032
0.0188253
0.0117077
0.00601284
0.0068255
0.0128005
0.0195875
0.0264672
0.033296
0.0400286
0.0466458
0.053137
0.0594951
0.0657147
0.0717912
0.0777203
0.0834982
0.0891212
0.0945865
0.0998913
0.105033
0.110011
0.114822
0.119466
0.123942
0.128249
0.132387
0.136356
0.140157
0.143789
0.147255
0.150556
0.153692
0.156668
0.159485
0.162145
0.164651
0.167006
0.169212
0.171273
0.173192
0.174973
0.176618
0.178132
0.179518
0.18078
0.181923
0.18295
0.183865
0.184671
0.185373
0.185973
0.186474
0.18688
0.187171
0.187357
0.187443
0.187434
0.187328
0.187123
0.18681
0.186377
0.185803
0.185063
0.184114
0.182891
0.181323
0.1792
0.176522
0.172177
0.168065
0.153391
0.00301775
0.00594164
0.00711459
0.00723341
0.00677189
0.00597608
0.00497094
0.00386632
0.00294773
0.00295377
0.00435015
0.00664713
0.00950339
0.0128054
0.0165171
0.0206308
0.0251522
0.0300944
0.0354735
0.0413041
0.0475966
0.0543552
0.0615767
0.0692492
0.0773512
0.0858517
0.0947105
0.103877
0.113291
0.122892
0.132612
0.142387
0.152152
0.161846
0.171413
0.180801
0.189964
0.198863
0.207462
0.215734
0.223655
0.231207
0.238376
0.245153
0.251529
0.2575
0.263063
0.268218
0.272965
0.277304
0.281238
0.284768
0.287896
0.290626
0.292961
0.294903
0.296457
0.297627
0.29842
0.298842
0.298902
0.298615
0.297994
0.297058
0.295838
0.294316
0.292449
0.290238
0.287682
0.284785
0.281553
0.277994
0.274114
0.269922
0.265426
0.260636
0.255559
0.250205
0.244584
0.238707
0.232583
0.226223
0.219639
0.21284
0.205837
0.198642
0.191265
0.183718
0.176011
0.168155
0.160163
0.152047
0.143818
0.135486
0.127065
0.118564
0.109997
0.101374
0.0927096
0.0840158
0.0753076
0.0666018
0.0579188
0.0492861
0.0407451
0.0323698
0.0243196
0.0170236
0.0118695
0.0119131
0.0170203
0.0240994
0.0317946
0.0396864
0.0476278
0.0555561
0.0634337
0.0712371
0.078951
0.0865644
0.094069
0.101458
0.108726
0.115867
0.122877
0.129753
0.136489
0.143084
0.149534
0.155837
0.16199
0.167992
0.173842
0.179538
0.185078
0.190463
0.195691
0.200763
0.205677
0.210435
0.215037
0.219484
0.223777
0.227918
0.231906
0.235744
0.239433
0.242974
0.246369
0.24962
0.252728
0.255696
0.258526
0.261221
0.263781
0.266211
0.268511
0.270685
0.272734
0.27466
0.276465
0.278151
0.279729
0.281196
0.282547
0.28378
0.284889
0.285869
0.286712
0.287408
0.287942
0.288288
0.288413
0.288265
0.287778
0.286808
0.28531
0.28253
0.279889
0.270321
0.00526307
0.00850124
0.00792496
0.00573564
0.00299384
0.000907419
0.00349501
0.00671313
0.0100761
0.0136045
0.0173523
0.0213786
0.025736
0.0304669
0.0356021
0.0411629
0.0471617
0.0536016
0.0604766
0.0677704
0.0754564
0.0834982
0.0918502
0.100459
0.109264
0.118201
0.127204
0.136206
0.145149
0.153978
0.162645
0.171107
0.17933
0.187288
0.194961
0.202335
0.209401
0.216154
0.222594
0.22872
0.234534
0.240038
0.245236
0.250128
0.254718
0.259005
0.262991
0.266676
0.270058
0.273136
0.275909
0.278374
0.28053
0.282375
0.283907
0.285124
0.286025
0.286611
0.286882
0.28684
0.286487
0.285826
0.28486
0.28359
0.282009
0.280109
0.277889
0.275348
0.272489
0.269315
0.265829
0.262038
0.257948
0.253565
0.248896
0.243949
0.238731
0.233253
0.227521
0.221546
0.215336
0.208902
0.202254
0.195402
0.188357
0.181128
0.173726
0.166162
0.158446
0.150589
0.142605
0.134504
0.126299
0.118003
0.109629
0.101191
0.0927055
0.0841899
0.0756658
0.0671608
0.0587119
0.0503743
0.0422377
0.0344635
0.0273739
0.0216508
0.0185827
0.0194336
0.0237462
0.0300252
0.0372514
0.0449355
0.0528475
0.0608669
0.0689259
0.0769834
0.0850094
0.092982
0.100885
0.108705
0.116434
0.124063
0.131585
0.138994
0.146286
0.153456
0.1605
0.167414
0.174197
0.180845
0.187355
0.193727
0.199958
0.206047
0.211993
0.217795
0.223453
0.228966
0.234334
0.239557
0.244635
0.24957
0.254363
0.259014
0.263524
0.267894
0.272126
0.27622
0.280178
0.284001
0.287691
0.29125
0.29468
0.297982
0.301159
0.304211
0.307141
0.309951
0.312643
0.315218
0.317677
0.320022
0.322258
0.324385
0.326401
0.328305
0.330092
0.33176
0.333302
0.334708
0.335962
0.337046
0.337933
0.338583
0.338944
0.338921
0.338473
0.337171
0.335923
0.330933
0.00632821
0.00844227
0.00631265
0.00392998
0.00488895
0.00842631
0.012575
0.0169199
0.0213916
0.0260038
0.0307993
0.03583
0.0411452
0.046784
0.0527714
0.0591167
0.0658145
0.0728459
0.0801802
0.0877762
0.0955839
0.103547
0.111604
0.119694
0.127755
0.135732
0.143574
0.151241
0.158696
0.165916
0.172882
0.179583
0.186016
0.192179
0.198077
0.203715
0.209101
0.214241
0.219144
0.223816
0.228261
0.232483
0.236484
0.240265
0.243823
0.247158
0.250264
0.253139
0.255776
0.258171
0.260318
0.262212
0.263845
0.265214
0.266312
0.267136
0.267681
0.267945
0.267924
0.267615
0.267018
0.26613
0.264949
0.263471
0.261694
0.259615
0.257235
0.254555
0.251578
0.248307
0.244745
0.240897
0.236768
0.232364
0.227691
0.222757
0.217569
0.212134
0.206462
0.20056
0.194439
0.188106
0.181572
0.174848
0.167943
0.160869
0.153636
0.146255
0.138737
0.131096
0.123345
0.1155
0.107577
0.099594
0.0915722
0.0835377
0.075523
0.0675717
0.059745
0.052134
0.0448822
0.0382253
0.0325565
0.0284906
0.0267763
0.0278478
0.0314094
0.036726
0.0431328
0.0501918
0.0576412
0.0653255
0.0731495
0.0810504
0.0889861
0.0969259
0.104846
0.112726
0.120551
0.128307
0.135984
0.143573
0.151067
0.15846
0.165745
0.172919
0.179976
0.186914
0.193729
0.200417
0.206978
0.213408
0.219706
0.225871
0.2319
0.237794
0.243552
0.249172
0.254656
0.260003
0.265214
0.270288
0.275228
0.280034
0.284705
0.289245
0.293652
0.29793
0.302078
0.306099
0.309994
0.313765
0.317412
0.320939
0.324346
0.327636
0.330809
0.333869
0.336816
0.339652
0.342379
0.344998
0.347511
0.34992
0.352223
0.35442
0.356509
0.358485
0.360345
0.362081
0.363682
0.365132
0.366411
0.367488
0.368328
0.368868
0.369091
0.368755
0.368513
0.366189
0.00572651
0.00584544
0.00421338
0.00684819
0.011528
0.0166165
0.021817
0.0270717
0.0323845
0.0377837
0.0433084
0.0489992
0.054892
0.0610112
0.0673669
0.0739532
0.0807496
0.0877229
0.0948299
0.102021
0.109242
0.116439
0.123559
0.130555
0.137385
0.144016
0.150424
0.156591
0.162508
0.168173
0.173587
0.178758
0.183696
0.188412
0.192917
0.197224
0.201342
0.20528
0.209047
0.212648
0.216084
0.219359
0.222471
0.225418
0.228195
0.230799
0.233222
0.235459
0.237501
0.239342
0.240973
0.242387
0.243576
0.244533
0.245252
0.245726
0.24595
0.245917
0.245625
0.245068
0.244242
0.243146
0.241774
0.240125
0.238196
0.235986
0.233498
0.230732
0.22769
0.224376
0.220793
0.216945
0.212837
0.208474
0.203863
0.199011
0.193924
0.18861
0.183077
0.177335
0.171391
0.165256
0.15894
0.152454
0.14581
0.139019
0.132096
0.125052
0.117904
0.110671
0.103372
0.0960321
0.0886812
0.0813559
0.0741041
0.0669902
0.0601036
0.053572
0.0475808
0.0423969
0.0383816
0.0359559
0.0354663
0.0370001
0.0403296
0.0450545
0.0507784
0.0571903
0.0640706
0.0712691
0.0786831
0.0862408
0.0938902
0.101592
0.109319
0.117046
0.124757
0.132434
0.140063
0.147633
0.155133
0.162555
0.169891
0.177134
0.184278
0.19132
0.198253
0.205075
0.211782
0.218371
0.22484
0.231185
0.237406
0.243501
0.249468
0.255307
0.261016
0.266596
0.272046
0.277366
0.282556
0.287617
0.292549
0.297354
0.302031
0.306581
0.311006
0.315307
0.319484
0.32354
0.327475
0.331292
0.334992
0.338575
0.342045
0.345403
0.348649
0.351788
0.354818
0.357743
0.360565
0.363283
0.365901
0.368418
0.370835
0.373152
0.375366
0.377476
0.379477
0.381364
0.383129
0.38476
0.386242
0.387553
0.38867
0.389553
0.390208
0.390497
0.390951
0.390155
0.00347684
0.00282244
0.00729903
0.0131575
0.0191173
0.0250435
0.0309265
0.0367823
0.0426352
0.0485133
0.054446
0.0604594
0.066573
0.0727957
0.079124
0.0855412
0.0920194
0.0985218
0.105006
0.111426
0.117739
0.123902
0.129881
0.135648
0.141181
0.146468
0.151503
0.156289
0.16083
0.165138
0.169224
0.173104
0.176794
0.180307
0.183657
0.186859
0.18992
0.192851
0.195656
0.19834
0.200905
0.20335
0.205673
0.207869
0.209935
0.211863
0.213647
0.215277
0.216747
0.218047
0.219169
0.220105
0.220845
0.221382
0.221709
0.221818
0.221704
0.221359
0.220779
0.21996
0.218896
0.217584
0.216022
0.214206
0.212136
0.209812
0.207233
0.204403
0.201323
0.197997
0.194427
0.190618
0.186575
0.182303
0.177809
0.173099
0.168181
0.163064
0.157755
0.152264
0.146601
0.140779
0.134809
0.128704
0.122481
0.116157
0.109752
0.103286
0.0967874
0.0902894
0.0838328
0.07747
0.0712684
0.0653162
0.0597307
0.0546664
0.0503217
0.046935
0.0447587
0.0440015
0.0447579
0.0469704
0.0504573
0.0549805
0.0603067
0.0662382
0.0726202
0.0793354
0.086296
0.0934366
0.100707
0.108068
0.115488
0.122941
0.130406
0.137866
0.145307
0.152716
0.160081
0.167391
0.174638
0.181814
0.18891
0.195922
0.202842
0.209667
0.216392
0.223013
0.229526
0.235928
0.242218
0.248392
0.254448
0.260386
0.266203
0.2719
0.277473
0.282924
0.288252
0.293457
0.298538
0.303497
0.308333
0.313048
0.317641
0.322114
0.326468
0.330703
0.334821
0.338822
0.342709
0.346482
0.350143
0.353694
0.357136
0.360471
0.363701
0.366827
0.36985
0.372773
0.375597
0.378323
0.380953
0.383488
0.385928
0.388273
0.390521
0.392672
0.394723
0.396669
0.398504
0.40022
0.401807
0.40325
0.404535
0.405642
0.406592
0.407312
0.408254
0.408409
0.000711507
0.00712675
0.0141415
0.0208346
0.0273063
0.0336211
0.0398249
0.0459516
0.0520267
0.0580707
0.0641001
0.0701261
0.0761534
0.0821778
0.0881865
0.0941576
0.100062
0.105867
0.111537
0.117038
0.122338
0.127412
0.132241
0.136813
0.141123
0.145173
0.148969
0.152523
0.15585
0.158966
0.161889
0.164637
0.167228
0.169676
0.171997
0.174202
0.176302
0.178304
0.180213
0.182033
0.183765
0.185406
0.186956
0.188409
0.18976
0.191003
0.192129
0.193132
0.194002
0.194731
0.19531
0.195731
0.195985
0.196064
0.195962
0.19567
0.195183
0.194494
0.193599
0.192493
0.191171
0.189632
0.187871
0.185888
0.183683
0.181254
0.178603
0.175733
0.172646
0.169345
0.165834
0.162118
0.158203
0.154095
0.149801
0.145329
0.140689
0.135889
0.130941
0.125859
0.120655
0.115348
0.109955
0.104498
0.0990048
0.0935057
0.0880383
0.0826476
0.0773901
0.0723363
0.0675741
0.0632116
0.0593786
0.0562241
0.0539056
0.0525693
0.0523218
0.0532049
0.0551859
0.058169
0.0620216
0.0666004
0.0717701
0.077413
0.083431
0.0897447
0.0962902
0.103016
0.109882
0.116854
0.123905
0.131011
0.138152
0.145308
0.152466
0.159613
0.166736
0.173827
0.180874
0.187871
0.194808
0.201678
0.208476
0.215195
0.221829
0.228375
0.234828
0.241184
0.24744
0.253593
0.259641
0.26558
0.27141
0.277128
0.282733
0.288223
0.293599
0.298859
0.304003
0.309031
0.313943
0.318738
0.323418
0.327983
0.332433
0.336769
0.340992
0.345102
0.349101
0.352989
0.356769
0.360441
0.364006
0.367467
0.370824
0.374079
0.377234
0.38029
0.383249
0.386113
0.388883
0.391561
0.394147
0.396644
0.399051
0.401368
0.403596
0.405733
0.407778
0.409727
0.411577
0.413322
0.414956
0.41647
0.417859
0.419116
0.420275
0.421303
0.422589
0.423366
0.00484167
0.0143525
0.0223001
0.0292941
0.0358766
0.0422311
0.0484343
0.0545278
0.0605336
0.0664626
0.0723189
0.078101
0.0838014
0.089407
0.0948995
0.100256
0.105449
0.110453
0.115241
0.11979
0.124082
0.128102
0.131846
0.135311
0.138504
0.141434
0.144115
0.146565
0.148801
0.150843
0.152711
0.154424
0.156
0.157455
0.158804
0.160058
0.161227
0.16232
0.16334
0.164292
0.165177
0.165993
0.16674
0.167412
0.168005
0.168514
0.168931
0.169249
0.169461
0.169559
0.169536
0.169383
0.169093
0.168659
0.168075
0.167335
0.166432
0.165362
0.164121
0.162704
0.16111
0.159335
0.157378
0.155239
0.152917
0.150415
0.147734
0.144877
0.141849
0.138653
0.135295
0.131783
0.128124
0.124326
0.1204
0.116358
0.112214
0.107984
0.103686
0.0993426
0.0949787
0.090625
0.0863174
0.0820992
0.0780222
0.0741476
0.070547
0.0673023
0.0645053
0.0622543
0.0606469
0.0597701
0.0596882
0.0604338
0.0620027
0.0643565
0.0674314
0.0711486
0.0754243
0.0801773
0.0853332
0.0908262
0.0965996
0.102605
0.108801
0.115153
0.121632
0.128212
0.134872
0.141594
0.148361
0.155158
0.161971
0.168788
0.175596
0.182386
0.189149
0.195877
0.202563
0.209199
0.215779
0.222297
0.228747
0.235123
0.241422
0.247638
0.253768
0.259809
0.265756
0.271608
0.277362
0.283016
0.288568
0.294016
0.299358
0.304594
0.309722
0.314743
0.319655
0.324458
0.329152
0.333738
0.338215
0.342584
0.346845
0.350999
0.355046
0.358987
0.362823
0.366556
0.370185
0.373713
0.377141
0.380469
0.3837
0.386834
0.389874
0.392821
0.395676
0.398441
0.401117
0.403707
0.406211
0.408631
0.410967
0.413219
0.415389
0.417475
0.419477
0.421393
0.423221
0.424958
0.426601
0.428146
0.429596
0.430954
0.43226
0.433509
0.435041
0.436235
0.00976765
0.0223154
0.0310519
0.0381132
0.0445465
0.0506807
0.0566312
0.0624483
0.0681509
0.0737424
0.0792171
0.0845638
0.0897671
0.0948081
0.0996657
0.104318
0.108741
0.112915
0.116822
0.120447
0.12378
0.126818
0.129562
0.132018
0.134197
0.136114
0.137784
0.139228
0.140465
0.141515
0.142399
0.143136
0.143744
0.144239
0.144636
0.144945
0.145179
0.145344
0.145446
0.145491
0.145479
0.145413
0.14529
0.145109
0.144867
0.14456
0.144183
0.143731
0.143199
0.142581
0.141871
0.141064
0.140155
0.139139
0.138011
0.136767
0.135403
0.133918
0.132307
0.130571
0.128707
0.126716
0.124598
0.122356
0.119991
0.117509
0.114913
0.112209
0.109406
0.106511
0.103535
0.100491
0.0973931
0.0942573
0.0911036
0.087955
0.084838
0.0817839
0.0788284
0.0760128
0.0733841
0.0709944
0.0689008
0.0671639
0.0658448
0.0650013
0.0646828
0.0649263
0.0657531
0.0671673
0.0691566
0.0716942
0.0747433
0.0782602
0.082199
0.0865132
0.091159
0.0960952
0.101285
0.106694
0.112293
0.118055
0.123957
0.129977
0.136097
0.142301
0.148574
0.154901
0.161272
0.167675
0.1741
0.180537
0.186976
0.193408
0.199824
0.206216
0.212579
0.218905
0.225188
0.231423
0.237605
0.243728
0.249787
0.255778
0.261698
0.267541
0.273305
0.278986
0.284582
0.29009
0.295508
0.300833
0.306064
0.311199
0.316237
0.321176
0.326016
0.330756
0.335396
0.339935
0.344372
0.348709
0.352945
0.35708
0.361115
0.36505
0.368885
0.372622
0.37626
0.379802
0.383247
0.386597
0.389854
0.393017
0.396089
0.399071
0.401965
0.404771
0.407491
0.410128
0.412681
0.415154
0.417547
0.419861
0.422097
0.424257
0.426341
0.42835
0.430282
0.432138
0.433918
0.43562
0.437244
0.438792
0.440271
0.441693
0.443101
0.444506
0.446212
0.447686
0.0147125
0.0303881
0.0398917
0.0469098
0.0530379
0.0587768
0.0642955
0.0696589
0.0748877
0.079981
0.0849274
0.0897098
0.0943078
0.0986994
0.102863
0.106776
0.110421
0.113781
0.116844
0.1196
0.122048
0.124187
0.126022
0.127565
0.128826
0.129823
0.130572
0.131093
0.131406
0.131529
0.131482
0.131284
0.130952
0.130501
0.129946
0.129299
0.128569
0.127767
0.126898
0.125969
0.124985
0.123946
0.122857
0.121717
0.120527
0.119286
0.117994
0.116649
0.115249
0.113794
0.112283
0.110713
0.109084
0.107396
0.105649
0.103844
0.101982
0.100064
0.0980936
0.0960743
0.0940105
0.0919078
0.089773
0.0876145
0.0854419
0.0832668
0.0811026
0.0789648
0.0768712
0.074842
0.0729004
0.0710719
0.0693851
0.0678707
0.0665618
0.0654926
0.0646975
0.0642095
0.0640588
0.0642708
0.0648651
0.0658536
0.0672411
0.0690247
0.0711955
0.0737382
0.0766335
0.079859
0.083391
0.0872053
0.0912783
0.0955876
0.100112
0.104832
0.109728
0.114784
0.119983
0.12531
0.130753
0.136297
0.141931
0.147644
0.153426
0.159267
0.165158
0.17109
0.177056
0.183047
0.189058
0.195081
0.201109
0.207136
0.213155
0.219159
0.225141
0.231096
0.237019
0.242904
0.248747
0.254543
0.260289
0.265979
0.27161
0.277178
0.28268
0.288112
0.293472
0.298756
0.303963
0.309089
0.314132
0.319092
0.323965
0.328751
0.333448
0.338055
0.342571
0.346995
0.351328
0.355568
0.359715
0.36377
0.367732
0.371601
0.375378
0.379063
0.382655
0.386157
0.389568
0.39289
0.396123
0.399267
0.402325
0.405297
0.408184
0.410988
0.413709
0.41635
0.418911
0.421395
0.423802
0.426134
0.428392
0.430578
0.432694
0.43474
0.436716
0.438626
0.440468
0.442244
0.443954
0.4456
0.447185
0.448713
0.450197
0.451652
0.453126
0.454638
0.456462
0.458123
0.0193525
0.038133
0.04842
0.0553562
0.0611009
0.0663435
0.0713188
0.0761139
0.080757
0.0852483
0.0895745
0.0937158
0.0976497
0.101353
0.104805
0.107985
0.110876
0.113465
0.115742
0.117703
0.119346
0.120674
0.121695
0.122418
0.122857
0.123026
0.122942
0.122622
0.122084
0.121345
0.120422
0.119332
0.11809
0.116711
0.115208
0.113591
0.111871
0.110056
0.108156
0.106176
0.104123
0.102003
0.099821
0.0975814
0.0952893
0.0929494
0.0905669
0.0881471
0.0856962
0.0832208
0.0807285
0.0782281
0.0757294
0.0732437
0.0707837
0.068364
0.0660012
0.0637136
0.0615221
0.0594499
0.0575224
0.0557673
0.054214
0.0528928
0.0518339
0.051066
0.0506147
0.0505006
0.0507379
0.0513334
0.0522865
0.0535895
0.0552291
0.0571873
0.0594436
0.0619765
0.0647642
0.0677858
0.0710218
0.0744544
0.0780675
0.0818468
0.0857797
0.0898553
0.0940638
0.0983961
0.102844
0.107401
0.112059
0.116811
0.121652
0.126576
0.131578
0.136652
0.141794
0.146999
0.152262
0.157577
0.16294
0.168347
0.173792
0.17927
0.184777
0.190309
0.195861
0.201428
0.207006
0.212591
0.218179
0.223765
0.229345
0.234915
0.240468
0.246002
0.25151
0.256989
0.262434
0.267842
0.273208
0.27853
0.283804
0.289027
0.294195
0.299306
0.304356
0.309343
0.314265
0.319118
0.323902
0.328613
0.333249
0.33781
0.342293
0.346698
0.351022
0.355265
0.359426
0.363505
0.3675
0.371412
0.37524
0.378984
0.382643
0.386219
0.38971
0.393118
0.396442
0.399683
0.402841
0.405918
0.408913
0.411828
0.414664
0.417421
0.420101
0.422704
0.425232
0.427686
0.430068
0.432378
0.434619
0.436791
0.438897
0.440937
0.442913
0.444827
0.446679
0.448472
0.450208
0.451886
0.453511
0.455085
0.456613
0.458103
0.45957
0.461034
0.462544
0.464124
0.46602
0.467803
0.0234527
0.0452151
0.0563165
0.0631773
0.0685181
0.0732237
0.0776017
0.0817685
0.0857659
0.0895995
0.0932587
0.0967248
0.099976
0.10299
0.105744
0.108221
0.110403
0.11228
0.113842
0.115088
0.116015
0.116628
0.116932
0.116938
0.116657
0.1161
0.115282
0.114217
0.11292
0.111405
0.109686
0.107778
0.105692
0.103439
0.10103
0.0984732
0.0957775
0.09295
0.0899978
0.0869274
0.0837449
0.0804566
0.0770689
0.0735889
0.0700241
0.0663835
0.0626773
0.0589179
0.0551204
0.0513039
0.0474925
0.0437173
0.04002
0.0364563
0.0331025
0.030062
0.0274717
0.0255002
0.0243269
0.0240927
0.0248431
0.0265084
0.0289404
0.0319704
0.0354484
0.0392563
0.0433069
0.0475368
0.0519002
0.0563641
0.0609041
0.0655024
0.0701458
0.0748245
0.0795312
0.0842608
0.0890095
0.0937747
0.0985547
0.103349
0.108156
0.112977
0.117811
0.122661
0.127525
0.132406
0.137303
0.142217
0.147148
0.152097
0.157063
0.162046
0.167047
0.172065
0.1771
0.18215
0.187215
0.192294
0.197385
0.202486
0.207596
0.212714
0.217836
0.222962
0.228089
0.233214
0.238336
0.243452
0.24856
0.253657
0.25874
0.263806
0.268852
0.273874
0.27887
0.283834
0.288766
0.293661
0.298517
0.303332
0.308102
0.312825
0.317499
0.322121
0.326689
0.3312
0.335654
0.340047
0.344377
0.348643
0.352844
0.356977
0.361042
0.365037
0.368961
0.372813
0.376592
0.380298
0.38393
0.387487
0.39097
0.394378
0.39771
0.400968
0.40415
0.407257
0.410289
0.413247
0.416131
0.418941
0.421678
0.424343
0.426936
0.429458
0.431911
0.434295
0.436611
0.438861
0.441045
0.443165
0.445223
0.447219
0.449156
0.451034
0.452856
0.454623
0.456337
0.458
0.459614
0.461182
0.462708
0.464195
0.465652
0.467088
0.468521
0.469973
0.471494
0.473109
0.475042
0.476898
0.026852
0.0513822
0.0633329
0.0701544
0.0751102
0.0792817
0.0830535
0.0865766
0.0899108
0.0930728
0.0960577
0.0988499
0.101429
0.103774
0.105865
0.107683
0.109215
0.11045
0.111378
0.111997
0.112305
0.112306
0.112003
0.111406
0.110522
0.109361
0.107936
0.106257
0.104337
0.102187
0.0998184
0.0972417
0.0944664
0.091501
0.088353
0.0850295
0.0815368
0.0778807
0.0740666
0.0701001
0.0659863
0.0617309
0.0573396
0.0528189
0.048176
0.0434193
0.0385588
0.0336077
0.028584
0.0235162
0.0184566
0.0135259
0.00908928
0.00648024
0.00794207
0.0121444
0.0172185
0.0226034
0.0281298
0.0337303
0.0393707
0.0450302
0.0506946
0.0563531
0.0619971
0.0676197
0.0732152
0.0787786
0.0843062
0.0897948
0.095242
0.100646
0.106006
0.111321
0.116591
0.121816
0.126998
0.132138
0.137237
0.142297
0.14732
0.152308
0.157264
0.162189
0.167086
0.171958
0.176807
0.181635
0.186443
0.191234
0.196008
0.200769
0.205516
0.210251
0.214976
0.219691
0.224397
0.229093
0.233781
0.23846
0.24313
0.24779
0.252441
0.257082
0.261712
0.26633
0.270935
0.275525
0.280101
0.28466
0.289201
0.293721
0.298218
0.302691
0.307136
0.311552
0.315936
0.320286
0.3246
0.328876
0.333113
0.337307
0.341458
0.345564
0.349622
0.353631
0.357589
0.361494
0.365346
0.369142
0.372881
0.376562
0.380184
0.383745
0.387244
0.390681
0.394055
0.397365
0.40061
0.403791
0.406907
0.409957
0.412941
0.415859
0.418712
0.421498
0.424219
0.426874
0.429463
0.431988
0.434449
0.436845
0.439178
0.441449
0.443658
0.445806
0.447895
0.449924
0.451896
0.453811
0.455671
0.457478
0.459232
0.460936
0.46259
0.464198
0.465761
0.467282
0.468763
0.470209
0.471623
0.473012
0.474384
0.475753
0.477136
0.478559
0.480069
0.481693
0.483634
0.485525
0.0294497
0.056456
0.0692843
0.0761223
0.0807401
0.0844116
0.0876014
0.0905001
0.0931884
0.095695
0.0980231
0.100163
0.1021
0.103815
0.10529
0.10651
0.107459
0.108128
0.108508
0.108595
0.108388
0.107889
0.107102
0.106034
0.104694
0.10309
0.101235
0.0991392
0.0968149
0.0942749
0.091532
0.0885992
0.0854899
0.082218
0.0787984
0.0752475
0.0715843
0.0678311
0.0640147
0.0601684
0.0563342
0.0525656
0.0489312
0.0455192
0.0424413
0.0398335
0.0378515
0.0366524
0.0363645
0.037053
0.0387021
0.0412248
0.044493
0.0483691
0.0527267
0.0574588
0.0624784
0.0677161
0.0731169
0.0786371
0.0842414
0.0899014
0.0955938
0.101299
0.107002
0.112688
0.118346
0.123969
0.129547
0.135076
0.14055
0.145965
0.151319
0.15661
0.161837
0.167
0.172098
0.177134
0.182107
0.187019
0.191873
0.196671
0.201414
0.206105
0.210747
0.215343
0.219895
0.224406
0.228877
0.23331
0.237709
0.242075
0.246411
0.250718
0.254998
0.259253
0.263483
0.267691
0.271878
0.276043
0.280189
0.284315
0.288422
0.292511
0.296582
0.300634
0.304668
0.308683
0.312679
0.316655
0.320611
0.324546
0.328458
0.332345
0.336207
0.340041
0.343846
0.347621
0.351365
0.355075
0.358751
0.36239
0.365993
0.369557
0.373081
0.376564
0.380003
0.383399
0.38675
0.390053
0.393309
0.396516
0.399673
0.40278
0.405834
0.408836
0.411784
0.414678
0.417518
0.420303
0.423033
0.425707
0.428324
0.430886
0.433391
0.435839
0.438231
0.440567
0.442846
0.445069
0.447237
0.44935
0.451409
0.453413
0.455364
0.457262
0.459109
0.460905
0.462651
0.464349
0.465999
0.467603
0.469164
0.470681
0.472157
0.473595
0.474997
0.476365
0.477704
0.479016
0.480309
0.481589
0.482867
0.484155
0.485475
0.486852
0.488333
0.489943
0.491868
0.493767
0.0312558
0.0603601
0.0740607
0.0809723
0.0853105
0.088534
0.0911887
0.093504
0.0955826
0.0974691
0.0991778
0.100707
0.102046
0.103182
0.104098
0.104781
0.105219
0.1054
0.10532
0.104974
0.104364
0.103493
0.102368
0.100999
0.0993975
0.097579
0.0955602
0.0933605
0.0910018
0.0885084
0.0859079
0.0832306
0.0805112
0.0777885
0.0751068
0.0725166
0.0700754
0.0678473
0.0659023
0.0643143
0.0631573
0.0625003
0.0624013
0.0629016
0.0640214
0.0657587
0.0680905
0.0709775
0.0743693
0.0782097
0.0824409
0.087007
0.0918555
0.096939
0.102215
0.107644
0.113193
0.118831
0.124533
0.130275
0.136037
0.141801
0.147552
0.153276
0.158962
0.164599
0.17018
0.175697
0.181144
0.186518
0.191813
0.197028
0.20216
0.207209
0.212175
0.217058
0.221858
0.226578
0.231218
0.235783
0.240272
0.24469
0.249039
0.253321
0.257539
0.261697
0.265797
0.269842
0.273835
0.277778
0.281674
0.285526
0.289336
0.293106
0.29684
0.300539
0.304204
0.307839
0.311444
0.315021
0.318572
0.322098
0.325599
0.329078
0.332535
0.33597
0.339384
0.342778
0.346152
0.349506
0.352839
0.356152
0.359444
0.362714
0.365961
0.369184
0.372383
0.375557
0.378704
0.381823
0.384915
0.387978
0.39101
0.394011
0.39698
0.399916
0.402818
0.405684
0.408514
0.411307
0.414062
0.416777
0.419452
0.422086
0.424679
0.427228
0.429735
0.432198
0.434616
0.436989
0.439317
0.4416
0.443835
0.446025
0.448168
0.450264
0.452313
0.454315
0.45627
0.458179
0.460042
0.461858
0.463629
0.465354
0.467035
0.468671
0.470265
0.471816
0.473326
0.474795
0.476225
0.477617
0.478973
0.480295
0.481584