/*--------------------------------*- C++ -*----------------------------------*\
| =========                 |                                                 |
| \\      /  F ield         | OpenFOAM: The Open Source CFD Toolbox           |
|  \\    /   O peration     | Version:  2312                                  |
|   \\  /    A nd           | Website:  www.openfoam.com                      |
|    \\/     M anipulation  |                                                 |
\*---------------------------------------------------------------------------*/
FoamFile
{
    version     2.0;
    format      ascii;
    arch        "LSB;label=32;scalar=64";
    class       volScalarField;
    location    "200";
    object      nut;
}
// * * * * * * * * * * * * * * * * * * * * * * * * * * * * * * * * * * * * * //

dimensions      [0 2 -1 0 0 0 0];

internalField   nonuniform List<scalar> 
12225
(
1.9887e-05
1.70245e-05
1.52554e-05
1.39678e-05
1.30688e-05
1.24753e-05
1.20684e-05
1.1768e-05
1.1532e-05
1.1338e-05
1.11745e-05
1.10355e-05
1.09194e-05
1.08223e-05
1.07517e-05
1.06929e-05
1.06892e-05
1.06685e-05
0.000116369
6.56109e-05
4.78844e-05
4.19403e-05
3.9088e-05
3.74954e-05
3.62836e-05
3.51445e-05
3.40318e-05
3.29682e-05
3.19803e-05
3.10785e-05
3.02706e-05
2.95316e-05
2.89188e-05
2.82834e-05
2.79491e-05
2.7892e-05
0.000288446
0.00016861
0.000123906
0.000108109
9.95861e-05
9.43912e-05
9.06071e-05
8.73949e-05
8.44759e-05
8.18056e-05
7.93814e-05
7.71921e-05
7.52376e-05
7.34791e-05
7.20215e-05
7.0624e-05
6.98281e-05
6.89735e-05
0.000474131
0.000296498
0.000226359
0.000194659
0.000178554
0.000168169
0.000160675
0.000154672
0.00014953
0.000144994
0.000140953
0.000137344
0.000134136
0.000131272
0.000128855
0.000126627
0.000125284
0.000123562
0.000622742
0.00042677
0.000338234
0.000288976
0.000264404
0.00024809
0.000236344
0.00022721
0.000219678
0.000213236
0.000207614
0.00020266
0.000198286
0.000194412
0.000191094
0.00018812
0.000186081
0.000183701
0.00072306
0.000544474
0.000447134
0.000385281
0.000352239
0.0003298
0.000313545
0.000301053
0.000290969
0.000282535
0.00027531
0.00026903
0.000263534
0.000258701
0.000254525
0.000250844
0.000248041
0.000245035
0.00078371
0.0006413
0.000544902
0.000478399
0.00043847
0.000410554
0.000390024
0.000374212
0.000361545
0.000351074
0.000342213
0.000334592
0.000327973
0.000322189
0.000317166
0.000312773
0.000309194
0.000305562
0.000817519
0.000714153
0.000627699
0.000563747
0.000519764
0.000487901
0.000463905
0.000445196
0.000430153
0.000417744
0.000407294
0.000398355
0.000390626
0.000383895
0.000378034
0.000372913
0.000368572
0.000364317
0.000835117
0.000764804
0.000694936
0.000637056
0.000593082
0.000559505
0.000533368
0.000512561
0.000495631
0.000481583
0.000469729
0.000459588
0.000450824
0.000443194
0.00043653
0.000430693
0.000425626
0.000420771
0.000843692
0.000798407
0.000745685
0.000696894
0.000656278
0.000623362
0.000596693
0.000574874
0.000556792
0.000541604
0.000528687
0.000517583
0.000507952
0.00049954
0.000492162
0.000485667
0.000479945
0.000474539
0.000847594
0.000819423
0.000781869
0.000743268
0.000708243
0.000678036
0.000652443
0.000630818
0.000612471
0.000596795
0.000583297
0.000571584
0.000561351
0.000552358
0.00054442
0.000537387
0.00053112
0.000525251
0.000849114
0.000830822
0.0008042
0.000774449
0.000745446
0.000718996
0.000695614
0.000675207
0.000657459
0.000642003
0.000628494
0.000616633
0.000606169
0.000596898
0.000588651
0.000581288
0.00057467
0.000568491
0.000849772
0.0008377
0.000819322
0.000797281
0.000774313
0.000752176
0.000731723
0.000713243
0.000696723
0.00068202
0.000668941
0.000657293
0.000646894
0.000637585
0.000629227
0.000621701
0.000614878
0.000608508
0.000850032
0.000841917
0.000829872
0.000814702
0.000797884
0.000780717
0.00076406
0.000748386
0.000733899
0.000720645
0.000708585
0.000697636
0.0006877
0.00067868
0.000670479
0.000663007
0.000656162
0.000649757
0.000850103
0.000844129
0.000836261
0.000826377
0.000814972
0.000802732
0.000790261
0.000777999
0.000766226
0.000755094
0.000744675
0.000734981
0.000725995
0.000717682
0.000709996
0.000702887
0.000696288
0.000690075
0.000850109
0.000845092
0.000839519
0.000833037
0.000825624
0.000817472
0.000808854
0.000800035
0.000791233
0.000782606
0.000774263
0.000766269
0.000758662
0.000751455
0.000744649
0.000738231
0.000732174
0.000726417
0.000850103
0.000845426
0.000840864
0.000836139
0.000831082
0.000825641
0.000819848
0.000813784
0.000807547
0.000801233
0.000794924
0.00078869
0.000782583
0.000776641
0.000770888
0.000765341
0.000760003
0.000754863
0.0008501
0.000845507
0.00084126
0.00083717
0.000833076
0.00082886
0.000824462
0.000819865
0.000815086
0.000810159
0.000805131
0.000800048
0.000794953
0.000789887
0.000784882
0.000779967
0.000775157
0.000770458
0.0008501
0.000845474
0.000841125
0.000836847
0.000832483
0.000827938
0.000823175
0.000818199
0.000813045
0.00080776
0.000802395
0.000796999
0.000791618
0.000786289
0.000781045
0.000775909
0.000770906
0.00076606
0.000850102
0.000845153
0.000839851
0.000833893
0.000827215
0.000819923
0.000812197
0.000804229
0.000796188
0.000788208
0.000780385
0.000772787
0.000765457
0.000758419
0.000751685
0.00074526
0.000739147
0.000733363
0.000850079
0.00084387
0.000835713
0.000825596
0.000814041
0.000801705
0.000789152
0.000776788
0.00076487
0.000753545
0.000742876
0.000732879
0.000723541
0.00071483
0.000706705
0.000699127
0.000692062
0.000685508
0.000849831
0.000839423
0.000824028
0.00080535
0.000785406
0.000765651
0.000746909
0.000729557
0.000713699
0.000699297
0.000686245
0.00067441
0.00066366
0.000653869
0.000644924
0.000636725
0.000629197
0.00062232
0.000848429
0.000826561
0.00079659
0.000764258
0.000733465
0.000705761
0.000681448
0.000660295
0.000641902
0.000625849
0.000611758
0.000599308
0.000588232
0.000578312
0.000569371
0.000561268
0.000553891
0.000547225
0.000842569
0.000795224
0.000742461
0.000693806
0.000653261
0.000620216
0.00059325
0.000571026
0.000552467
0.000536751
0.000523261
0.000511536
0.000501227
0.000492072
0.000483868
0.000476462
0.000469731
0.000463689
0.000823007
0.000730805
0.000652157
0.000590417
0.000546016
0.000512907
0.000487445
0.000467295
0.000450921
0.000437294
0.000425716
0.000415702
0.000406908
0.000399091
0.000392069
0.000385712
0.0003799
0.000374709
0.000769184
0.00061971
0.000524091
0.000458835
0.000419846
0.000392308
0.000371907
0.000356126
0.000343436
0.000332886
0.000323877
0.000316016
0.000309046
0.000302789
0.000297115
0.000291944
0.000287158
0.000282915
0.000647607
0.00045865
0.00036851
0.000315572
0.00028772
0.000268711
0.000254934
0.000244333
0.000235724
0.00022843
0.000222065
0.000216396
0.000211282
0.000206628
0.000202361
0.000198456
0.000194784
0.000191584
0.00043369
0.00027331
0.000208161
0.000178986
0.000162891
0.000152356
0.000144898
0.000139115
0.000134269
0.000130006
0.000126164
0.000122662
0.000119454
0.000116512
0.000113797
0.000111327
0.000108967
0.000106976
0.000180957
0.000110041
7.93852e-05
6.84934e-05
6.22531e-05
5.86455e-05
5.6282e-05
5.44153e-05
5.27438e-05
5.11804e-05
4.97133e-05
4.83468e-05
4.70815e-05
4.59194e-05
4.48421e-05
4.38742e-05
4.29357e-05
4.21659e-05
2.59675e-05
2.2137e-05
1.99521e-05
1.84303e-05
1.73019e-05
1.64819e-05
1.58842e-05
1.54348e-05
1.50831e-05
1.47963e-05
1.45538e-05
1.43432e-05
1.41566e-05
1.39898e-05
1.38382e-05
1.37015e-05
1.35743e-05
1.34596e-05
1.01755e-06
2.47903e-06
2.82006e-06
3.15826e-06
3.46045e-06
3.71604e-06
3.92643e-06
4.09773e-06
4.23946e-06
4.35697e-06
4.45569e-06
4.54071e-06
4.61663e-06
4.6886e-06
4.76615e-06
4.87161e-06
5.0433e-06
5.26093e-06
5.50192e-06
5.75862e-06
6.0298e-06
6.31618e-06
6.61895e-06
6.93875e-06
7.27576e-06
7.62929e-06
7.9982e-06
8.38079e-06
8.77496e-06
9.178e-06
9.58712e-06
9.99931e-06
1.04118e-05
1.08218e-05
1.12269e-05
1.16251e-05
1.20148e-05
1.23948e-05
1.27636e-05
1.312e-05
1.34636e-05
1.3794e-05
1.4111e-05
1.44146e-05
1.47049e-05
1.4982e-05
1.52461e-05
1.54976e-05
1.57367e-05
1.59637e-05
1.61788e-05
1.63825e-05
1.65749e-05
1.67563e-05
1.69269e-05
1.70869e-05
1.72364e-05
1.73755e-05
1.75043e-05
1.76227e-05
1.77309e-05
1.78289e-05
1.7917e-05
1.79957e-05
1.80664e-05
1.81291e-05
1.81839e-05
1.8231e-05
1.82707e-05
1.8303e-05
1.83281e-05
1.83458e-05
1.83562e-05
1.83589e-05
1.83452e-05
1.83553e-05
1.83201e-05
1.83082e-05
1.82754e-05
1.82387e-05
1.81951e-05
1.81454e-05
1.80894e-05
1.80273e-05
1.79589e-05
1.78845e-05
1.78035e-05
1.77165e-05
1.76246e-05
1.75271e-05
1.74246e-05
1.73172e-05
1.72048e-05
1.70874e-05
1.69653e-05
1.68386e-05
1.67074e-05
1.65719e-05
1.64323e-05
1.62887e-05
1.61412e-05
1.59901e-05
1.58355e-05
1.56776e-05
1.55164e-05
1.53523e-05
1.51853e-05
1.50158e-05
1.48442e-05
1.46712e-05
1.44986e-05
1.43343e-05
1.42281e-05
1.41943e-05
1.4175e-05
1.41574e-05
1.4139e-05
1.41196e-05
1.4099e-05
1.40774e-05
1.40546e-05
1.4031e-05
1.40065e-05
1.39811e-05
1.39551e-05
1.39285e-05
1.39013e-05
1.38735e-05
1.38453e-05
1.38166e-05
1.37876e-05
1.37581e-05
1.37284e-05
1.36983e-05
1.36678e-05
1.36369e-05
1.36058e-05
1.35744e-05
1.35428e-05
1.35109e-05
1.34788e-05
1.34464e-05
1.34136e-05
1.33806e-05
1.33472e-05
1.33136e-05
1.32796e-05
1.32453e-05
1.32107e-05
1.31758e-05
1.31404e-05
1.31046e-05
1.30684e-05
1.30318e-05
1.29948e-05
1.29573e-05
1.29194e-05
1.2881e-05
1.28421e-05
1.28027e-05
1.27626e-05
1.27225e-05
1.26815e-05
1.26394e-05
1.25961e-05
1.25518e-05
1.25063e-05
1.24596e-05
1.24116e-05
1.2362e-05
1.23103e-05
1.22558e-05
1.21979e-05
1.21342e-05
1.20659e-05
1.19823e-05
1.1897e-05
1.17631e-05
1.164e-05
1.12934e-05
1.36e-06
3.2894e-06
7.13389e-06
1.1307e-05
1.47646e-05
1.73612e-05
1.93282e-05
2.08495e-05
2.20402e-05
2.30658e-05
2.40144e-05
2.49131e-05
2.5752e-05
2.6499e-05
2.7111e-05
2.75495e-05
2.7813e-05
2.79629e-05
2.8056e-05
2.81279e-05
2.82023e-05
2.82978e-05
2.84301e-05
2.86121e-05
2.88521e-05
2.9153e-05
2.95109e-05
2.99439e-05
3.04695e-05
3.10929e-05
3.18163e-05
3.26401e-05
3.35642e-05
3.45967e-05
3.57227e-05
3.69407e-05
3.82483e-05
3.96432e-05
4.11232e-05
4.26849e-05
4.43249e-05
4.60393e-05
4.78243e-05
4.96758e-05
5.15895e-05
5.35612e-05
5.55865e-05
5.76612e-05
5.9781e-05
6.19417e-05
6.41393e-05
6.63695e-05
6.86286e-05
7.09124e-05
7.32173e-05
7.5539e-05
7.78736e-05
8.02162e-05
8.25612e-05
8.49012e-05
8.72261e-05
8.95206e-05
9.17616e-05
9.39071e-05
9.58843e-05
9.77485e-05
9.95916e-05
0.000101403
0.000103182
0.000104927
0.000106636
0.00010831
0.000109945
0.000111537
0.000113083
0.000114591
0.000116009
0.000117417
0.000118761
0.000120053
0.00012129
0.00012249
0.000123643
0.000124743
0.000125791
0.000126792
0.000127726
0.000128577
0.000129398
0.000130165
0.000130883
0.00013155
0.000132168
0.000132737
0.000133258
0.000133733
0.000134161
0.000134544
0.000134883
0.00013518
0.000135434
0.000135648
0.000135822
0.000135957
0.000136053
0.000136112
0.000136132
0.000136112
0.000136047
0.000135924
0.000135694
0.000135196
0.000134081
0.000132426
0.00013053
0.000128529
0.000126474
0.000124387
0.000122277
0.000120151
0.000118013
0.000115869
0.00011372
0.000111569
0.00010942
0.000107273
0.000105132
0.000103
0.000100877
9.87675e-05
9.66728e-05
9.45954e-05
9.25364e-05
9.04951e-05
8.84755e-05
8.648e-05
8.45104e-05
8.25683e-05
8.0655e-05
7.8772e-05
7.69207e-05
7.51006e-05
7.33125e-05
7.15582e-05
6.98391e-05
6.8156e-05
6.65098e-05
6.4901e-05
6.33295e-05
6.1795e-05
6.02981e-05
5.8839e-05
5.74182e-05
5.60359e-05
5.46915e-05
5.33848e-05
5.21153e-05
5.0883e-05
4.96872e-05
4.8528e-05
4.74031e-05
4.6317e-05
4.52506e-05
4.4208e-05
4.3196e-05
4.22162e-05
4.12677e-05
4.03512e-05
3.94644e-05
3.86054e-05
3.77714e-05
3.69614e-05
3.61709e-05
3.53975e-05
3.46404e-05
3.38672e-05
3.31425e-05
3.22919e-05
3.15546e-05
2.95751e-05
1.71401e-06
4.87102e-06
1.20223e-05
2.03487e-05
2.75878e-05
3.32271e-05
3.74792e-05
4.06865e-05
4.31492e-05
4.51117e-05
4.67437e-05
4.81471e-05
4.93733e-05
5.04425e-05
5.13618e-05
5.21418e-05
5.28092e-05
5.34085e-05
5.39853e-05
5.45779e-05
5.52186e-05
5.59367e-05
5.67603e-05
5.77168e-05
5.88335e-05
6.01382e-05
6.16839e-05
6.34623e-05
6.54307e-05
6.76067e-05
6.99935e-05
7.25906e-05
7.53952e-05
7.84028e-05
8.1604e-05
8.49895e-05
8.85493e-05
9.22721e-05
9.6146e-05
0.000100158
0.000104296
0.000108546
0.000112896
0.000117333
0.000121845
0.000126422
0.000131052
0.000135725
0.000140433
0.000145166
0.000149916
0.000154675
0.000159435
0.000164188
0.000168927
0.000173643
0.000178329
0.000182975
0.000187569
0.000192098
0.000196548
0.000200899
0.000205124
0.000209195
0.00021312
0.00021693
0.000220656
0.000224293
0.000227838
0.000231287
0.000234637
0.000237884
0.000241024
0.000244053
0.000246968
0.000249765
0.000252429
0.000254987
0.000257419
0.000259727
0.00026191
0.00026397
0.000265917
0.000267778
0.000269495
0.000271085
0.000272552
0.000273844
0.000275021
0.000276094
0.00027705
0.000277888
0.000278611
0.000279221
0.00027972
0.000280109
0.000280391
0.000280569
0.000280644
0.00028062
0.000280498
0.000280281
0.000279971
0.00027957
0.000279081
0.000278504
0.00027784
0.000277085
0.000276231
0.000275255
0.000274098
0.000272617
0.000270591
0.000268028
0.000265106
0.000261967
0.000258689
0.000255313
0.000251861
0.000248348
0.000244784
0.000241178
0.000237535
0.000233863
0.000230165
0.000226446
0.000222712
0.000218965
0.000215209
0.000211451
0.000207695
0.000203944
0.000200203
0.000196474
0.000192761
0.000189068
0.000185398
0.000181755
0.00017814
0.000174558
0.000171011
0.000167497
0.000164019
0.000160582
0.000157191
0.000153847
0.000150552
0.000147309
0.000144116
0.000140974
0.000137885
0.000134853
0.000131877
0.00012896
0.000126102
0.000123301
0.00012056
0.000117878
0.000115256
0.000112695
0.000110191
0.000107749
0.000105358
0.000103015
0.000100724
9.84875e-05
9.63057e-05
9.41718e-05
9.2084e-05
9.00411e-05
8.80373e-05
8.6072e-05
8.41289e-05
8.22116e-05
8.02949e-05
7.83561e-05
7.64457e-05
7.41913e-05
7.2229e-05
6.72789e-05
1.96307e-06
6.79167e-06
1.71521e-05
2.86038e-05
3.84495e-05
4.61632e-05
5.20196e-05
5.64414e-05
5.98195e-05
6.247e-05
6.46294e-05
6.64638e-05
6.80849e-05
6.95666e-05
7.0961e-05
7.23112e-05
7.36586e-05
7.5046e-05
7.65146e-05
7.81029e-05
7.98466e-05
8.17786e-05
8.39292e-05
8.63258e-05
8.89923e-05
9.19482e-05
9.51843e-05
9.87015e-05
0.000102534
0.000106645
0.00011103
0.00011568
0.000120581
0.00012572
0.000131079
0.000136639
0.000142383
0.00014829
0.000154344
0.000160525
0.000166815
0.000173197
0.000179656
0.000186176
0.000192743
0.000199345
0.000205969
0.000212605
0.000219241
0.000225868
0.000232477
0.000239059
0.000245604
0.000252103
0.000258548
0.000264928
0.000271234
0.000277455
0.000283577
0.000289588
0.000295471
0.00030121
0.000306789
0.000312212
0.000317486
0.00032262
0.000327623
0.000332491
0.00033722
0.000341807
0.000346245
0.000350532
0.000354662
0.000358632
0.000362439
0.000366082
0.000369554
0.000372859
0.000375989
0.000378943
0.000381722
0.000384324
0.00038675
0.000389034
0.000391163
0.000393088
0.000394835
0.000396348
0.0003977
0.000398892
0.000399918
0.000400777
0.000401471
0.000402003
0.000402374
0.000402589
0.000402651
0.000402561
0.000402324
0.000401943
0.000401422
0.000400763
0.000399971
0.000399047
0.000397996
0.000396818
0.000395515
0.000394085
0.000392517
0.000390793
0.000388862
0.000386638
0.000384008
0.000380958
0.000377585
0.000373969
0.000370167
0.00036622
0.000362154
0.000357988
0.000353736
0.000349409
0.000345015
0.000340563
0.000336059
0.00033151
0.000326921
0.000322297
0.000317641
0.000312964
0.00030827
0.000303565
0.000298853
0.000294139
0.000289427
0.000284722
0.000280028
0.000275348
0.000270687
0.000266048
0.000261437
0.000256854
0.000252304
0.00024779
0.000243319
0.000238891
0.00023451
0.000230177
0.000225891
0.000221652
0.000217466
0.000213337
0.000209267
0.000205259
0.000201308
0.000197419
0.000193593
0.000189831
0.000186134
0.000182502
0.000178933
0.00017543
0.00017199
0.000168608
0.000165284
0.000162021
0.000158818
0.000155671
0.000152576
0.000149532
0.000146528
0.000143565
0.000140621
0.000137702
0.000134766
0.000131798
0.000128816
0.000125452
0.000122322
0.000115265
2.10891e-06
9.0481e-06
2.25149e-05
3.64438e-05
4.82305e-05
5.74802e-05
6.4571e-05
6.99918e-05
7.41864e-05
7.75196e-05
8.02749e-05
8.2664e-05
8.48405e-05
8.69143e-05
8.89656e-05
9.10565e-05
9.32385e-05
9.55574e-05
9.80544e-05
0.000100767
0.000103727
0.000106965
0.000110505
0.000114363
0.000118554
0.00012308
0.000127939
0.000133124
0.000138635
0.000144458
0.000150562
0.000156932
0.000163549
0.000170391
0.000177436
0.000184661
0.000192046
0.000199568
0.000207207
0.000214943
0.000222756
0.000230631
0.00023855
0.000246498
0.000254463
0.000262432
0.000270393
0.000278334
0.000286244
0.000294117
0.000301943
0.000309711
0.000317414
0.000325042
0.000332586
0.000340037
0.000347386
0.000354622
0.000361735
0.000368712
0.000375539
0.000382208
0.000388718
0.000395071
0.000401266
0.000407304
0.000413186
0.000418907
0.000424462
0.000429846
0.000435054
0.00044008
0.000444919
0.000449568
0.000454022
0.000458277
0.000462327
0.000466172
0.00046981
0.000473239
0.000476458
0.000479465
0.000482261
0.000484867
0.000487312
0.000489499
0.000491475
0.000493178
0.000494698
0.000496014
0.000497128
0.00049804
0.000498753
0.000499269
0.00049959
0.000499721
0.000499663
0.000499422
0.000499
0.000498402
0.000497632
0.000496692
0.000495588
0.000494323
0.0004929
0.000491323
0.000489592
0.000487707
0.000485661
0.000483441
0.000481016
0.000478339
0.000475354
0.000472046
0.000468441
0.000464588
0.000460531
0.000456305
0.000451935
0.00044744
0.000442835
0.000438132
0.000433342
0.000428473
0.000423534
0.000418533
0.000413476
0.000408381
0.000403257
0.000398098
0.000392908
0.000387691
0.000382453
0.000377198
0.000371932
0.00036666
0.000361387
0.000356114
0.000350847
0.000345593
0.000340356
0.00033514
0.000329948
0.000324784
0.000319653
0.000314557
0.0003095
0.000304486
0.000299519
0.000294599
0.00028973
0.000284912
0.000280151
0.000275449
0.000270796
0.000266199
0.000261662
0.000257188
0.000252777
0.000248427
0.000244138
0.000239914
0.000235753
0.000231651
0.000227607
0.000223624
0.000219698
0.000215829
0.000212011
0.000208242
0.000204513
0.000200819
0.000197143
0.000193482
0.000189797
0.000186071
0.000182289
0.0001782
0.000174216
0.000165936
2.17834e-06
1.15375e-05
2.7794e-05
4.37101e-05
5.70632e-05
6.76121e-05
7.58096e-05
8.21796e-05
8.7197e-05
9.1259e-05
9.46833e-05
9.77156e-05
0.00010054
0.000103294
0.000106078
0.000108968
0.000112023
0.00011529
0.000118811
0.000122617
0.000126736
0.000131189
0.000135989
0.000141146
0.000146659
0.000152526
0.000158736
0.000165274
0.000172117
0.000179259
0.000186678
0.000194341
0.00020222
0.000210294
0.000218538
0.000226928
0.000235446
0.000244068
0.000252774
0.000261544
0.000270359
0.000279204
0.000288063
0.000296922
0.000305769
0.000314594
0.000323387
0.000332143
0.000340861
0.00034952
0.000358106
0.00036661
0.000375023
0.000383338
0.000391546
0.00039964
0.000407613
0.000415457
0.000423164
0.00043073
0.000438152
0.000445422
0.000452535
0.000459488
0.000466278
0.000472903
0.000479358
0.00048564
0.000491741
0.000497658
0.000503383
0.000508912
0.00051424
0.000519361
0.00052427
0.000528964
0.000533438
0.000537689
0.000541715
0.000545513
0.000549082
0.000552419
0.000555523
0.000558417
0.000561123
0.000563557
0.000565751
0.000567658
0.000569369
0.000570844
0.000572095
0.00057312
0.000573923
0.000574505
0.000574869
0.00057502
0.000574959
0.000574691
0.00057422
0.000573549
0.000572682
0.000571625
0.00057038
0.000568953
0.000567346
0.000565564
0.000563609
0.000561481
0.000559178
0.000556692
0.000554006
0.000551097
0.000547936
0.000544514
0.000540839
0.000536935
0.000532828
0.000528542
0.000524099
0.000519514
0.000514804
0.000509979
0.00050505
0.000500028
0.00049492
0.000489734
0.000484479
0.000479163
0.000473788
0.000468364
0.000462898
0.000457395
0.000451861
0.000446301
0.000440721
0.000435127
0.000429524
0.000423929
0.000418342
0.00041276
0.000407186
0.000401624
0.000396079
0.000390553
0.000385053
0.000379576
0.000374132
0.000368723
0.000363353
0.000358026
0.000352742
0.000347505
0.000342324
0.000337198
0.000332122
0.000327101
0.000322137
0.000317232
0.000312386
0.000307591
0.000302854
0.000298177
0.00029356
0.000288998
0.000284492
0.000280042
0.000275647
0.000271303
0.000267008
0.000262757
0.000258543
0.000254361
0.000250193
0.000246034
0.00024185
0.000237621
0.000233322
0.000228737
0.000224432
0.000215562
2.22864e-06
1.37292e-05
3.21989e-05
4.98187e-05
6.46317e-05
7.64782e-05
8.58143e-05
9.31839e-05
9.90862e-05
0.000103946
0.000108109
0.000111848
0.000115375
0.000118845
0.000122378
0.000126059
0.000129955
0.000134113
0.000138572
0.000143358
0.000148491
0.000153983
0.000159839
0.000166059
0.000172636
0.000179558
0.000186809
0.000194368
0.000202212
0.000210314
0.00021865
0.000227209
0.000235951
0.000244855
0.000253898
0.000263061
0.00027233
0.000281675
0.000291074
0.000300508
0.000309959
0.00031941
0.000328847
0.000338256
0.000347624
0.000356937
0.00036619
0.000375374
0.000384477
0.0003935
0.000402437
0.000411284
0.000420035
0.000428685
0.000437227
0.000445658
0.00045397
0.00046216
0.00047022
0.000478146
0.000485931
0.000493571
0.000501058
0.00050839
0.000515561
0.000522566
0.000529401
0.00053606
0.000542537
0.000548826
0.00055492
0.000560814
0.000566501
0.000571978
0.000577237
0.000582274
0.000587085
0.000591666
0.000596013
0.000600123
0.000603994
0.000607623
0.000611008
0.000614178
0.00061712
0.000619798
0.000622215
0.000624355
0.000626274
0.000627947
0.000629376
0.000630564
0.000631513
0.000632226
0.000632706
0.000632956
0.00063298
0.000632779
0.000632359
0.000631724
0.000630876
0.000629822
0.000628564
0.000627107
0.000625456
0.000623614
0.000621584
0.00061937
0.00061697
0.000614381
0.000611597
0.000608606
0.000605396
0.000601961
0.000598303
0.000594435
0.000590371
0.000586129
0.000581724
0.00057717
0.000572481
0.000567667
0.000562738
0.000557705
0.000552576
0.000547359
0.000542061
0.000536692
0.000531256
0.00052576
0.000520213
0.00051462
0.000508986
0.000503319
0.000497623
0.000491905
0.00048617
0.000480426
0.000474673
0.000468917
0.000463165
0.000457419
0.000451684
0.000445965
0.000440267
0.000434604
0.00042897
0.000423365
0.000417793
0.000412257
0.00040676
0.000401301
0.000395889
0.000390525
0.00038521
0.000379953
0.000374749
0.000369601
0.000364509
0.00035947
0.000354487
0.000349561
0.000344689
0.000339864
0.000335091
0.000330371
0.000325698
0.000321072
0.000316491
0.000311949
0.000307441
0.00030296
0.000298493
0.00029403
0.000289545
0.000285015
0.000280419
0.000275548
0.000271159
0.000262273
2.48737e-06
1.41611e-05
3.42355e-05
5.38718e-05
7.04381e-05
8.38215e-05
9.44544e-05
0.000102937
0.000109813
0.000115545
0.000120508
0.000125002
0.000129257
0.000133451
0.000137715
0.000142144
0.000146809
0.00015176
0.00015703
0.000162645
0.000168614
0.000174944
0.000181631
0.000188669
0.000196044
0.000203746
0.000211751
0.000220037
0.00022858
0.000237351
0.000246323
0.000255476
0.000264782
0.000274213
0.000283746
0.000293355
0.000303019
0.000312718
0.000322434
0.000332149
0.000341851
0.000351526
0.000361165
0.000370757
0.000380297
0.000389779
0.000399192
0.00040853
0.000417786
0.000426958
0.000436043
0.000445037
0.000453936
0.000462738
0.000471437
0.000480031
0.000488515
0.000496883
0.000505133
0.000513258
0.000521253
0.000529113
0.000536832
0.000544406
0.000551827
0.000559091
0.000566191
0.000573121
0.000579873
0.000586442
0.00059282
0.000599001
0.000604978
0.000610745
0.000616296
0.000621625
0.000626727
0.000631598
0.000636232
0.000640627
0.000644778
0.000648683
0.00065234
0.000655777
0.000658957
0.000661883
0.000664539
0.000666932
0.000669081
0.000670974
0.000672613
0.000674
0.000675139
0.000676031
0.00067668
0.000677087
0.000677257
0.000677191
0.000676895
0.000676371
0.000675624
0.000674658
0.000673477
0.000672086
0.000670488
0.000668689
0.000666692
0.0006645
0.000662115
0.000659538
0.000656768
0.000653799
0.000650628
0.000647252
0.000643674
0.000639899
0.000635939
0.000631803
0.000627504
0.000623054
0.000618462
0.00061374
0.000608898
0.000603943
0.000598885
0.000593732
0.000588492
0.000583172
0.00057778
0.000572321
0.000566802
0.000561231
0.000555614
0.000549956
0.000544263
0.000538542
0.000532798
0.000527037
0.000521263
0.000515481
0.000509696
0.000503912
0.000498135
0.000492368
0.000486617
0.000480886
0.000475175
0.00046949
0.000463833
0.000458209
0.00045262
0.000447076
0.000441577
0.000436121
0.000430708
0.000425345
0.000420031
0.00041477
0.000409567
0.000404417
0.000399322
0.000394281
0.000389291
0.00038435
0.000379459
0.000374616
0.000369812
0.000365051
0.000360329
0.000355643
0.000350986
0.000346352
0.000341731
0.000337113
0.000332477
0.0003278
0.000323065
0.000318089
0.000313571
0.000305184
2.75388e-06
1.39485e-05
3.49164e-05
5.63332e-05
7.46372e-05
8.96381e-05
0.000101662
0.000111344
0.00011927
0.000125935
0.000131745
0.000137021
0.000142015
0.000146919
0.000151875
0.000156988
0.000162333
0.000167958
0.000173899
0.000180184
0.000186814
0.000193783
0.000201086
0.000208707
0.000216626
0.000224848
0.000233346
0.000242096
0.000251071
0.000260236
0.000269559
0.000279015
0.000288578
0.000298226
0.000307936
0.000317688
0.000327463
0.000337243
0.000347013
0.000356762
0.000366476
0.000376147
0.000385768
0.000395332
0.000404834
0.00041427
0.000423635
0.000432926
0.000442141
0.000451278
0.000460335
0.000469312
0.000478205
0.000487014
0.000495734
0.000504364
0.0005129
0.000521337
0.000529672
0.000537899
0.000546014
0.000554009
0.00056188
0.00056962
0.000577222
0.000584679
0.000591984
0.000599129
0.000606107
0.00061291
0.000619531
0.000625961
0.000632194
0.000638222
0.000644038
0.000649636
0.000655009
0.000660153
0.000665062
0.000669731
0.000674156
0.000678333
0.000682266
0.00068596
0.000689395
0.000692575
0.000695491
0.000698148
0.000700547
0.000702681
0.000704553
0.000706168
0.000707528
0.000708634
0.000709489
0.000710096
0.000710456
0.000710574
0.000710453
0.000710096
0.000709507
0.00070869
0.00070765
0.000706391
0.000704917
0.000703233
0.000701343
0.000699252
0.000696962
0.000694477
0.000691797
0.000688924
0.000685856
0.000682595
0.000679144
0.000675507
0.00067169
0.000667704
0.000663555
0.000659255
0.000654812
0.000650235
0.000645534
0.000640716
0.000635791
0.000630766
0.000625648
0.000620446
0.000615166
0.000609815
0.0006044
0.000598927
0.000593402
0.000587832
0.000582224
0.000576581
0.000570912
0.00056522
0.000559512
0.000553792
0.000548064
0.000542334
0.000536607
0.000530885
0.000525175
0.00051948
0.000513802
0.000508147
0.000502516
0.000496913
0.000491342
0.000485808
0.000480309
0.000474848
0.000469429
0.000464053
0.000458728
0.000453454
0.00044823
0.000443061
0.000437947
0.000432887
0.000427879
0.00042292
0.000418009
0.000413143
0.000408317
0.000403531
0.000398781
0.000394058
0.000389363
0.000384687
0.000380023
0.000375361
0.000370685
0.000365975
0.000361216
0.000356261
0.000351659
0.000343918
2.99398e-06
1.349e-05
3.47922e-05
5.75808e-05
7.74702e-05
9.39913e-05
0.000107418
0.000118335
0.000127351
0.000134986
0.000141668
0.000147738
0.000153462
0.000159045
0.00016464
0.000170371
0.000176303
0.00018248
0.000188927
0.000195673
0.000202739
0.000210128
0.000217832
0.000225841
0.000234138
0.000242691
0.000251471
0.000260452
0.000269604
0.000278929
0.000288365
0.000297881
0.000307457
0.000317075
0.000326718
0.000336371
0.000346017
0.000355645
0.000365242
0.0003748
0.000384312
0.000393772
0.000403176
0.000412521
0.000421806
0.00043103
0.000440192
0.000449292
0.000458331
0.000467308
0.000476224
0.000485079
0.000493872
0.000502602
0.000511266
0.000519863
0.000528388
0.000536838
0.000545208
0.000553493
0.000561685
0.00056978
0.000577768
0.000585644
0.000593399
0.000601024
0.000608512
0.000615853
0.000623039
0.000630061
0.00063691
0.000643579
0.000650057
0.000656338
0.000662413
0.000668274
0.000673916
0.00067933
0.000684513
0.000689457
0.000694158
0.000698614
0.000702821
0.00070678
0.000710481
0.000713933
0.000717124
0.000720052
0.000722726
0.000725113
0.000727238
0.000729103
0.000730708
0.000732055
0.000733145
0.000733982
0.000734567
0.000734904
0.000734995
0.000734845
0.000734456
0.000733833
0.00073298
0.000731902
0.000730603
0.000729087
0.00072736
0.000725425
0.000723288
0.000720951
0.000718419
0.000715694
0.00071278
0.000709677
0.000706391
0.000702926
0.000699287
0.000695481
0.000691516
0.000687399
0.00068314
0.000678745
0.000674224
0.000669585
0.000664834
0.000659981
0.000655032
0.000649994
0.000644876
0.000639682
0.000634421
0.000629098
0.000623721
0.000618294
0.000612825
0.00060732
0.000601783
0.000596222
0.00059064
0.000585044
0.000579437
0.000573825
0.000568212
0.000562603
0.000557001
0.000551411
0.000545836
0.00054028
0.000534746
0.000529238
0.000523757
0.000518309
0.000512893
0.000507513
0.00050217
0.000496867
0.000491609
0.000486392
0.000481219
0.000476095
0.000471019
0.000466006
0.000461048
0.000456139
0.00045128
0.000446464
0.000441689
0.000436952
0.000432249
0.000427574
0.000422924
0.000418289
0.000413664
0.000409041
0.000404408
0.000399747
0.000395046
0.000390195
0.000385584
0.000378491
3.20218e-06
1.29012e-05
3.41069e-05
5.78477e-05
7.91099e-05
9.69771e-05
0.000111739
0.00012387
0.000133976
0.000142586
0.00015014
0.000156993
0.00016343
0.000169648
0.000175794
0.000181985
0.000188333
0.000194906
0.000201753
0.000208898
0.000216325
0.000224023
0.000231981
0.000240179
0.000248602
0.000257229
0.000266029
0.000274998
0.000284132
0.000293378
0.000302686
0.000312028
0.000321382
0.000330738
0.000340087
0.000349417
0.000358719
0.000367985
0.000377209
0.000386386
0.000395516
0.000404597
0.000413628
0.000422613
0.000431553
0.000440449
0.000449306
0.000458125
0.000466908
0.000475658
0.000484376
0.000493061
0.000501715
0.000510335
0.000518919
0.000527464
0.000535966
0.000544419
0.000552818
0.000561156
0.000569426
0.000577619
0.000585726
0.00059374
0.00060165
0.000609447
0.000617121
0.000624662
0.00063206
0.000639306
0.000646388
0.000653299
0.000660028
0.000666566
0.000672904
0.000679035
0.000684949
0.00069064
0.000696101
0.000701327
0.000706311
0.000711049
0.000715539
0.00071977
0.000723757
0.000727493
0.000730967
0.00073419
0.000737139
0.000739798
0.000742193
0.000744326
0.000746195
0.000747804
0.000749152
0.000750243
0.000751078
0.000751661
0.000751994
0.00075208
0.000751924
0.000751528
0.000750898
0.000750038
0.000748952
0.000747644
0.000746121
0.000744385
0.000742443
0.000740299