/*--------------------------------*- C++ -*----------------------------------*\
| =========                 |                                                 |
| \\      /  F ield         | OpenFOAM: The Open Source CFD Toolbox           |
|  \\    /   O peration     | Version:  2312                                  |
|   \\  /    A nd           | Website:  www.openfoam.com                      |
|    \\/     M anipulation  |                                                 |
\*---------------------------------------------------------------------------*/
FoamFile
{
    version     2.0;
    format      ascii;
    arch        "LSB;label=32;scalar=64";
    class       volScalarField;
    location    "200";
    object      nut;
}
// * * * * * * * * * * * * * * * * * * * * * * * * * * * * * * * * * * * * * //

dimensions      [0 2 -1 0 0 0 0];

internalField   nonuniform List<scalar> 
12225
(
2.57619e-05
3.0201e-05
3.18958e-05
3.19909e-05
3.18775e-05
3.1144e-05
3.0575e-05
3.00053e-05
2.94902e-05
2.90432e-05
2.86621e-05
2.83414e-05
2.8069e-05
2.78434e-05
2.7646e-05
2.74959e-05
2.73622e-05
2.72075e-05
0.000155567
6.70967e-05
4.95057e-05
4.08383e-05
3.62395e-05
3.33578e-05
3.18723e-05
3.11071e-05
3.08581e-05
3.08509e-05
3.10954e-05
3.14532e-05
3.18391e-05
3.22444e-05
3.28092e-05
3.31738e-05
3.38269e-05
3.39785e-05
0.00046108
0.000207721
0.000143517
0.000113188
9.43565e-05
8.25402e-05
7.44395e-05
6.82655e-05
6.41669e-05
6.09365e-05
5.86125e-05
5.6693e-05
5.53656e-05
5.41942e-05
5.34661e-05
5.27534e-05
5.255e-05
5.18132e-05
0.000724494
0.000440124
0.000317616
0.000254116
0.000214838
0.000189254
0.000170719
0.000157535
0.000147012
0.000138441
0.000132086
0.000126358
0.000122134
0.000117827
0.000115081
0.000111609
0.000110164
0.000106754
0.000823417
0.00065796
0.000522404
0.00043555
0.000376724
0.000336174
0.000305936
0.000283604
0.000265871
0.000251967
0.000240427
0.000230334
0.000222833
0.000215176
0.000210106
0.000203551
0.00020086
0.000194316
0.000846242
0.000780263
0.000688642
0.000605951
0.000541745
0.000493091
0.000454833
0.000425006
0.00040088
0.000381264
0.000365135
0.000351362
0.000339814
0.000329193
0.000321452
0.000312587
0.000308102
0.000299307
0.000852307
0.000827196
0.000786132
0.000729205
0.000676239
0.000630875
0.000592352
0.000560231
0.000533224
0.000510351
0.000491115
0.000474263
0.000460368
0.00044746
0.000436881
0.000426303
0.000419802
0.000409354
0.0008529
0.000845758
0.000826924
0.000800124
0.000765972
0.000732193
0.000700652
0.000672207
0.00064696
0.000624546
0.000604998
0.00058745
0.000572362
0.000558715
0.000546821
0.000535248
0.000527241
0.000515925
0.000852055
0.000850712
0.000843896
0.000832285
0.000814463
0.000794881
0.000773603
0.000752611
0.000732723
0.000714079
0.000697063
0.000681272
0.000667286
0.000654108
0.00064256
0.000631248
0.000622835
0.000611736
0.000851629
0.000851224
0.000848995
0.000844779
0.000837077
0.000827153
0.000815316
0.000802401
0.000789168
0.00077595
0.000763232
0.000750928
0.000739526
0.000728548
0.000718745
0.00070876
0.000701082
0.000691269
0.000851544
0.00085098
0.00085002
0.000848506
0.000845578
0.000841276
0.000835637
0.000828876
0.000821372
0.000813343
0.000805161
0.000796851
0.000788806
0.00078076
0.000773386
0.000765673
0.000759457
0.000751667
0.000851556
0.000850831
0.000850075
0.000849235
0.000847925
0.000845976
0.000843303
0.00083989
0.000835863
0.000831299
0.000826408
0.000821211
0.000815982
0.000810556
0.000805433
0.000799952
0.000795357
0.000789618
0.000851574
0.000850774
0.000850021
0.000849312
0.000848522
0.000847529
0.00084625
0.000844608
0.000842613
0.000840254
0.000837619
0.000834695
0.000831643
0.000828355
0.000825149
0.00082163
0.000818574
0.000814715
0.000851583
0.000850759
0.000849987
0.000849271
0.000848588
0.000847892
0.000847144
0.000846295
0.000845321
0.00084419
0.000842922
0.000841487
0.000839954
0.000838254
0.000836546
0.000834626
0.000832893
0.000830708
0.000851584
0.000850755
0.000849975
0.000849243
0.000848558
0.000847908
0.000847282
0.000846661
0.000846034
0.000845379
0.000844696
0.000843961
0.000843195
0.000842362
0.000841519
0.000840581
0.000839698
0.000838637
0.000851584
0.000850752
0.000849968
0.00084923
0.000848536
0.000847882
0.000847265
0.000846678
0.000846117
0.000845575
0.00084505
0.000844531
0.000844021
0.000843507
0.000843001
0.000842478
0.000841974
0.000841432
0.000851583
0.000850749
0.000849963
0.000849222
0.000848523
0.000847863
0.00084724
0.000846651
0.000846093
0.000845562
0.000845057
0.000844574
0.000844113
0.000843669
0.000843243
0.000842829
0.000842432
0.000842041
0.000851583
0.000850748
0.00084996
0.000849216
0.000848515
0.000847852
0.000847225
0.000846632
0.000846069
0.000845535
0.000845028
0.000844545
0.000844085
0.000843646
0.000843227
0.000842826
0.000842443
0.000842077
0.000851583
0.000850748
0.000849959
0.000849215
0.000848512
0.000847848
0.00084722
0.000846624
0.000846059
0.000845521
0.000845009
0.000844521
0.000844054
0.000843608
0.00084318
0.00084277
0.000842374
0.000841996
0.000851583
0.000850749
0.000849961
0.000849219
0.000848517
0.000847854
0.000847223
0.000846622
0.000846044
0.000845486
0.000844943
0.000844412
0.000843887
0.000843371
0.000842853
0.000842346
0.000841827
0.000841332
0.000851583
0.00085075
0.000849966
0.000849227
0.000848524
0.000847841
0.000847163
0.000846475
0.000845758
0.000845006
0.000844206
0.000843362
0.000842462
0.000841524
0.000840525
0.000839515
0.000838423
0.00083739
0.000851574
0.000850756
0.000849987
0.000849223
0.000848393
0.000847427
0.000846265
0.000844871
0.000843229
0.000841352
0.00083925
0.000836968
0.000834512
0.000831959
0.000829268
0.000826592
0.000823744
0.000821127
0.000851515
0.000850852
0.000849952
0.000848592
0.000846507
0.000843537
0.000839672
0.000835023
0.000829728
0.000823972
0.000817884
0.00081164
0.00080529
0.000799015
0.000792731
0.00078675
0.000780648
0.000775248
0.000851373
0.000851109
0.000847811
0.000842149
0.000833629
0.000822668
0.000810116
0.000796726
0.000783063
0.00076957
0.000756445
0.000743938
0.00073201
0.00072086
0.000710278
0.000700598
0.00069109
0.000682997
0.000851034
0.000847912
0.000829741
0.000808611
0.000781184
0.000752352
0.000724526
0.000698572
0.000674885
0.000653502
0.000634191
0.000616953
0.000601299
0.000587415
0.000574829
0.000563308
0.000552645
0.000543661
0.000844866
0.000817214
0.000760135
0.000698639
0.000644379
0.00059814
0.000559748
0.000527564
0.000500723
0.000477984
0.000458587
0.000442049
0.000427489
0.000415078
0.000403857
0.000394065
0.000384792
0.000377553
0.000806517
0.000691522
0.000565917
0.000481377
0.000422143
0.000378323
0.000345556
0.000319847
0.000299745
0.00028317
0.000269714
0.000258404
0.000248336
0.000240241
0.000232633
0.000226658
0.000220479
0.00021601
0.000657038
0.000394915
0.000291313
0.000235848
0.000199292
0.000174186
0.000156598
0.000143375
0.000133457
0.000125392
0.000118746
0.000113606
0.000109059
0.000105496
0.000102105
9.95609e-05
9.69034e-05
9.50476e-05
0.000258322
0.000128347
9.45273e-05
7.5882e-05
6.45435e-05
5.71646e-05
5.25896e-05
4.93406e-05
4.6978e-05
4.5435e-05
4.43009e-05
4.35437e-05
4.29745e-05
4.26409e-05
4.23823e-05
4.22913e-05
4.22078e-05
4.22605e-05
3.13102e-05
3.48374e-05
3.67037e-05
3.75972e-05
3.77954e-05
3.77121e-05
3.74896e-05
3.71248e-05
3.67322e-05
3.6342e-05
3.59702e-05
3.56245e-05
3.53074e-05
3.50188e-05
3.4757e-05
3.452e-05
3.43049e-05
3.411e-05
2.05659e-06
5.43592e-06
6.42005e-06
7.25138e-06
7.91752e-06
8.44625e-06
8.86718e-06
9.20534e-06
9.5015e-06
9.76017e-06
9.9914e-06
1.02058e-05
1.04114e-05
1.06143e-05
1.08205e-05
1.10425e-05
1.13117e-05
1.1654e-05
1.20391e-05
1.24454e-05
1.28656e-05
1.32996e-05
1.37485e-05
1.42149e-05
1.47005e-05
1.52072e-05
1.57358e-05
1.6287e-05
1.68603e-05
1.74552e-05
1.80702e-05
1.87041e-05
1.93547e-05
2.00215e-05
2.0704e-05
2.13945e-05
2.20913e-05
2.27916e-05
2.34924e-05
2.41919e-05
2.48887e-05
2.5582e-05
2.62709e-05
2.69549e-05
2.76333e-05
2.83062e-05
2.89731e-05
2.96343e-05
3.02894e-05
3.09388e-05
3.15823e-05
3.22203e-05
3.28527e-05
3.348e-05
3.41019e-05
3.47189e-05
3.5331e-05
3.59383e-05
3.65409e-05
3.71391e-05
3.77325e-05
3.83216e-05
3.89061e-05
3.94863e-05
4.00619e-05
4.06331e-05
4.11995e-05
4.17615e-05
4.23187e-05
4.28714e-05
4.34193e-05
4.3963e-05
4.45025e-05
4.50387e-05
4.55723e-05
4.61051e-05
4.66391e-05
4.71785e-05
4.77306e-05
4.8265e-05
4.8795e-05
4.93148e-05
4.98259e-05
5.03274e-05
5.08188e-05
5.12999e-05
5.17699e-05
5.22282e-05
5.26742e-05
5.3107e-05
5.35258e-05
5.39297e-05
5.4318e-05
5.46907e-05
5.50488e-05
5.53968e-05
5.5729e-05
5.60474e-05
5.63509e-05
5.66398e-05
5.69136e-05
5.71719e-05
5.74146e-05
5.76413e-05
5.78517e-05
5.80457e-05
5.82229e-05
5.83833e-05
5.85265e-05
5.86524e-05
5.8761e-05
5.8852e-05
5.89255e-05
5.89814e-05
5.90197e-05
5.90404e-05
5.90437e-05
5.90296e-05
5.89982e-05
5.89496e-05
5.88836e-05
5.88018e-05
5.87099e-05
5.8598e-05
5.84648e-05
5.83185e-05
5.81603e-05
5.79848e-05
5.77965e-05
5.75951e-05
5.73803e-05
5.71534e-05
5.69144e-05
5.66644e-05
5.64037e-05
5.61334e-05
5.58549e-05
5.55662e-05
5.52703e-05
5.49672e-05
5.46579e-05
5.4343e-05
5.40233e-05
5.3699e-05
5.33707e-05
5.3039e-05
5.27043e-05
5.2367e-05
5.20275e-05
5.16861e-05
5.13433e-05
5.09993e-05
5.06544e-05
5.03087e-05
4.99623e-05
4.96155e-05
4.92684e-05
4.89221e-05
4.85766e-05
4.82357e-05
4.80161e-05
4.78559e-05
4.77037e-05
4.7554e-05
4.74061e-05
4.7259e-05
4.71119e-05
4.69639e-05
4.68145e-05
4.66607e-05
4.65119e-05
4.63635e-05
4.62039e-05
4.60368e-05
4.5861e-05
4.56709e-05
4.54604e-05
4.52183e-05
4.49152e-05
4.38514e-05
3.06026e-06
1.21044e-05
2.69017e-05
3.97508e-05
4.91499e-05
5.58572e-05
6.06838e-05
6.41483e-05
6.65232e-05
6.84242e-05
7.01673e-05
7.18821e-05
7.3592e-05
7.52623e-05
7.68271e-05
7.8208e-05
7.93449e-05
8.0269e-05
8.10658e-05
8.17936e-05
8.24878e-05
8.31748e-05
8.38796e-05
8.46281e-05
8.5446e-05
8.63583e-05
8.73875e-05
8.85528e-05
8.98704e-05
9.13539e-05
9.30168e-05
9.48553e-05
9.68511e-05
9.9035e-05
0.000101407
0.000103968
0.000106761
0.000109785
0.000113002
0.000116382
0.000119915
0.000123595
0.000127413
0.00013136
0.000135429
0.000139612
0.000143902
0.000148293
0.000152781
0.000157359
0.000162023
0.000166771
0.000171598
0.000176502
0.000181481
0.000186533
0.000191656
0.000196849
0.000202111
0.000207441
0.000212838
0.000218301
0.00022383
0.000229422
0.000235077
0.000240793
0.000246567
0.000252397
0.000258279
0.000264207
0.000270177
0.000276181
0.00028221
0.000288253
0.000294298
0.00030033
0.000306342
0.000312337
0.000318352
0.000324383
0.000330438
0.000336512
0.000342607
0.00034872
0.000354847
0.000360986
0.000367133
0.000373283
0.000379431
0.000385569
0.000391683
0.000397753
0.00040374
0.000409574
0.000415143
0.000420239
0.000425303
0.000430276
0.000435171
0.000439977
0.00044469
0.000449303
0.000453811
0.000458207
0.000462484
0.000466637
0.000470659
0.000474545
0.00047829
0.000481888
0.000485335
0.000488625
0.000491754
0.00049472
0.000497518
0.000500146
0.000502601
0.000504883
0.000506989
0.000508921
0.000510678
0.000512254
0.000513676
0.000515003
0.000516076
0.000516912
0.00051766
0.000518218
0.000518621
0.000518873
0.000518977
0.000518937
0.000518761
0.000518453
0.000518021
0.000517468
0.000516799
0.000516018
0.000515143
0.000514177
0.000513131
0.000512014
0.000510834
0.000509599
0.000508315
0.000506989
0.000505626
0.000504234
0.000502817
0.000501379
0.000499926
0.000498461
0.000496986
0.000495503
0.000494012
0.00049251
0.000490992
0.00048944
0.000487772
0.000485591
0.00048224
0.000478415
0.000474404
0.000470275
0.000466051
0.000461735
0.000457322
0.000452808
0.000448188
0.000443453
0.00043862
0.000433619
0.00042851
0.0004232
0.000417703
0.000412
0.000405999
0.000399789
0.000392757
0.000372038
3.87895e-06
1.83801e-05
4.3021e-05
6.61658e-05
8.47676e-05
9.89492e-05
0.000109576
0.000117523
0.0001235
0.000128129
0.000131884
0.000135082
0.000137918
0.000140496
0.000142864
0.000145048
0.000147076
0.000148996
0.00015087
0.000152753
0.000154689
0.000156719
0.00015888
0.000161208
0.000163738
0.000166504
0.000169534
0.000172849
0.000176464
0.00018038
0.000184686
0.000189506
0.00019483
0.00020052
0.000206557
0.000212936
0.000219657
0.000226706
0.000234053
0.000241667
0.000249526
0.000257625
0.000265949
0.000274482
0.000283208
0.000292114
0.000301188
0.000310419
0.000319799
0.000329319
0.000338973
0.000348753
0.000358655
0.000368674
0.000378807
0.000389051
0.000399404
0.000409862
0.000420424
0.000431087
0.000441851
0.000452712
0.000463668
0.000474716
0.000485854
0.000497077
0.00050838
0.000519758
0.000531205
0.000542713
0.000554275
0.000565882
0.000577523
0.000589191
0.000600875
0.000612569
0.000624275
0.000635996
0.000647745
0.000659518
0.000671311
0.00068312
0.000694939
0.000706761
0.000718577
0.000730379
0.000742155
0.000753893
0.000765577
0.000777186
0.000788694
0.000800065
0.000811253
0.000822203
0.000832852
0.000843221
0.000853449
0.00086351
0.000873399
0.0008831
0.000892603
0.000901894
0.000910961
0.000919791
0.000928371
0.00093669
0.000944735
0.000952496
0.000959961
0.000967119
0.000973962
0.000980479
0.000986663
0.000992505
0.000997999
0.00100314
0.00100792
0.00101234
0.00101639
0.00102008
0.00102339
0.00102634
0.00102894
0.00103127
0.00103333
0.00103481
0.00103598
0.00103681
0.00103732
0.0010375
0.00103736
0.00103692
0.00103619
0.00103517
0.00103388
0.00103233
0.00103053
0.0010285
0.00102626
0.00102382
0.00102119
0.00101841
0.00101547
0.0010124
0.00100921
0.00100592
0.00100253
0.000999064
0.000995525
0.000991925
0.000988273
0.000984577
0.000980841
0.00097707
0.000973264
0.000969417
0.00096552
0.000961541
0.000957371
0.000952662
0.000946907
0.000940511
0.000933771
0.000926785
0.000919624
0.000912301
0.000904811
0.000897145
0.000889295
0.000881252
0.000873018
0.000864531
0.000855802
0.000846778
0.000837448
0.000827728
0.000817534
0.000806784
0.000794532
0.000764739
4.44141e-06
2.49747e-05
5.75474e-05
8.78005e-05
0.000112571
0.000131949
0.000146838
0.000158208
0.000166925
0.000173713
0.000179152
0.000183679
0.000187609
0.000191162
0.000194489
0.000197695
0.000200862
0.000204059
0.000207347
0.000210783
0.000214414
0.000218288
0.000222448
0.000226934
0.000231787
0.000237041
0.000242731
0.000248886
0.00025554
0.00026273
0.000270406
0.000278466
0.000286887
0.000295732
0.000304993
0.000314642
0.000324682
0.000335131
0.000345987
0.000357272
0.000368859
0.00038072
0.000392831
0.000405176
0.000417737
0.0004305
0.000443451
0.000456581
0.000469882
0.000483347
0.000496969
0.000510741
0.00052466
0.000538719
0.000552917
0.000567249
0.000581713
0.000596306
0.000611025
0.000625868
0.000640831
0.000655913
0.000671108
0.000686414
0.000701827
0.000717339
0.000732947
0.000748644
0.000764422
0.000780275
0.000796194
0.000812171
0.000828198
0.000844267
0.000860373
0.000876509
0.000892673
0.000908863
0.000925076
0.000941306
0.000957544
0.000973781
0.000990007
0.00100621
0.00102238
0.0010385
0.00105455
0.00107052
0.00108638
0.00110212
0.0011177
0.00113309
0.00114825
0.00116313
0.00117774
0.00119211
0.00120625
0.00122017
0.00123385
0.00124726
0.0012604
0.00127324
0.00128578
0.00129799
0.00130985
0.00132135
0.00133248
0.00134322
0.00135355
0.00136346
0.00137293
0.00138196
0.00139053
0.00139863
0.00140625
0.00141338
0.00142001
0.00142615
0.00143177
0.00143688
0.00144148
0.00144557
0.00144914
0.00145235
0.00145523
0.00145729
0.00145887
0.00145999
0.00146063
0.00146082
0.00146055
0.00145984
0.00145871
0.00145716
0.00145523
0.00145292
0.00145024
0.00144723
0.00144391
0.00144029
0.00143639
0.00143225
0.00142789
0.00142332
0.00141856
0.00141365
0.00140858
0.00140338
0.00139807
0.00139267
0.00138717
0.00138161
0.00137598
0.00137029
0.00136455
0.00135875
0.00135288
0.00134691
0.00134074
0.00133414
0.00132679
0.00131887
0.00131056
0.00130199
0.00129329
0.00128441
0.00127533
0.00126605
0.00125656
0.00124685
0.00123691
0.0012267
0.0012162
0.00120539
0.00119422
0.00118263
0.00117051
0.00115767
0.0011429
0.00111195
4.81896e-06
3.14056e-05
7.09673e-05
0.000106971
0.000136551
0.000159996
0.00017828
0.000192481
0.000203552
0.000212301
0.000219384
0.000225322
0.000230513
0.000235254
0.000239762
0.000244197
0.000248675
0.000253288
0.000258107
0.000263193
0.000268598
0.000274368
0.000280544
0.000287164
0.00029426
0.00030186
0.000309985
0.000318649
0.000327858
0.000337606
0.000347869
0.000358617
0.000369841
0.000381545
0.000393728
0.000406384
0.000419481
0.000432962
0.000446784
0.000460886
0.000475284
0.000489967
0.000504921
0.000520127
0.000535568
0.000551229
0.000567095
0.000583146
0.000599389
0.000615818
0.000632426
0.000649207
0.000666154
0.000683263
0.00070053
0.000717951
0.000735522
0.000753238
0.000771097
0.000789094
0.000807226
0.000825487
0.000843873
0.00086238
0.000881
0.000899728
0.000918557
0.00093748
0.00095649
0.000975577
0.000994734
0.00101395
0.00103323
0.00105254
0.0010719
0.00109129
0.0011107
0.00113013
0.00114957
0.00116901
0.00118843
0.00120783
0.0012272
0.00124651
0.00126576
0.00128492
0.00130398
0.00132293
0.00134173
0.00136036
0.00137881
0.00139705
0.00141505
0.0014328
0.00145029
0.00146752
0.0014845
0.00150121
0.00151762
0.00153374
0.00154952
0.00156496
0.00158004
0.00159473
0.00160902
0.00162289
0.00163632
0.00164929
0.00166179
0.00167379
0.00168529
0.00169626
0.00170669
0.00171657
0.00172588
0.00173461
0.00174276
0.00175032
0.00175726
0.0017636
0.00176933
0.00177444
0.00177894
0.00178299
0.0017866
0.0017893
0.0017914
0.00179292
0.00179386
0.00179424
0.00179405
0.00179332
0.00179207
0.0017903
0.00178804
0.00178531
0.00178213
0.00177853
0.00177452
0.00177014
0.00176541
0.00176036
0.00175502
0.00174941
0.00174357
0.0017375
0.00173124
0.0017248
0.00171822
0.00171151
0.00170469
0.00169777
0.00169077
0.00168371
0.00167658
0.00166939
0.00166213
0.00165477
0.00164725
0.00163942
0.0016311
0.00162234
0.00161323
0.00160385
0.00159426
0.00158449
0.00157453
0.00156438
0.00155404
0.00154348
0.00153271
0.00152171
0.00151044
0.00149889
0.00148704
0.00147484
0.00146225
0.00144899
0.00143373
0.00140524
5.07317e-06
3.75719e-05
8.32255e-05
0.000124097
0.00015774
0.000184691
0.000205977
0.000222753
0.000236039
0.000246698
0.000255449
0.000262873
0.000269426
0.000275462
0.000281248
0.000286982
0.00029281
0.000298844
0.000305165
0.000311841
0.000318924
0.000326457
0.000334477
0.000343013
0.000352089
0.000361722
0.000371921
0.00038269
0.000394023
0.00040591
0.000418333
0.000431274
0.000444717
0.000458649
0.000473052
0.000487901
0.000503164
0.000518806
0.000534793
0.000551097
0.000567708
0.000584609
0.000601785
0.000619222
0.000636904
0.000654819
0.00067296
0.000691321
0.000709884
0.000728638
0.000747574
0.000766686
0.000785967
0.000805413
0.000825018
0.000844776
0.000864685
0.000884738
0.000904931
0.000925259
0.000945717
0.0009663
0.000987003
0.00100782
0.00102874
0.00104977
0.00107088
0.00109209
0.00111337
0.00113472
0.00115614
0.00117761
0.00119914
0.00122069
0.00124229
0.0012639
0.00128553
0.00130716
0.00132878
0.00135039
0.00137197
0.0013935
0.00141498
0.00143639
0.00145772
0.00147894
0.00150005
0.00152102
0.00154183
0.00156247
0.00158292
0.00160316
0.00162317
0.00164294
0.00166246
0.00168171
0.00170068
0.00171936
0.00173774
0.00175578
0.00177348
0.0017908
0.00180774
0.00182427
0.00184037
0.00185601
0.00187119
0.00188587
0.00190005
0.00191369
0.00192678
0.00193931
0.00195125
0.00196259
0.00197332
0.00198341
0.00199287
0.00200166
0.00200979
0.00201725
0.00202403
0.00203012
0.00203553
0.00204043
0.00204478
0.00204817
0.00205089
0.00205293
0.00205432
0.00205504
0.00205513
0.00205458
0.00205342
0.00205167
0.00204934
0.00204646
0.00204305
0.00203914
0.00203476
0.00202992
0.00202468
0.00201904
0.00201305
0.00200673
0.00200012
0.00199324
0.00198612
0.00197879
0.00197128
0.0019636
0.0019558
0.00194787
0.00193986
0.00193177
0.00192361
0.0019154
0.00190712
0.00189878
0.00189032
0.00188166
0.00187269
0.00186342
0.00185388
0.00184413
0.00183421
0.00182414
0.00181392
0.00180355
0.00179302
0.00178234
0.00177149
0.00176045
0.00174922
0.00173778
0.00172611
0.00171422
0.00170197
0.00168916
0.00167453
0.0016497
5.24988e-06
4.30857e-05
9.38146e-05
0.000138882
0.000176161
0.000206364
0.00023051
0.000249797
0.000265285
0.000277885
0.000288362
0.000297341
0.000305327
0.000312716
0.000319813
0.000326848
0.000333995
0.00034138
0.0003491
0.000357224
0.000365808
0.000374891
0.000384504
0.000394671
0.000405408
0.000416722
0.000428616
0.000441087
0.000454126
0.000467719
0.000481849
0.000496497
0.000511643
0.000527268
0.000543346
0.000559853
0.00057676
0.000594039
0.000611663
0.000629612
0.000647866
0.000666411
0.000685229
0.000704307
0.000723632
0.00074319
0.000762971
0.000782965
0.00080316
0.000823546
0.000844114
0.000864856
0.000885767
0.00090684
0.000928068
0.000949447
0.000970971
0.000992634
0.00101443
0.00103636
0.00105841
0.00108057
0.00110285
0.00112524
0.00114772
0.00117029
0.00119296
0.0012157
0.00123851
0.00126138
0.00128431
0.00130729
0.00133031
0.00135337
0.00137644
0.00139953
0.00142263
0.00144572
0.00146879
0.00149184
0.00151485
0.00153781
0.0015607
0.00158352
0.00160624
0.00162886
0.00165136
0.00167371
0.00169592
0.00171795
0.00173979
0.00176144
0.00178286
0.00180405
0.00182499
0.00184567
0.00186608
0.00188619
0.00190599
0.00192546
0.00194459
0.00196333
0.00198169
0.00199964
0.00201714
0.00203419
0.00205077
0.00206684
0.00208239
0.00209739
0.00211183
0.00212569
0.00213894
0.00215156
0.00216354
0.00217487
0.00218552
0.00219547
0.00220472
0.00221326
0.00222107
0.00222815
0.00223448
0.00224028
0.00224539
0.00224956
0.00225298
0.00225566
0.00225761
0.00225882
0.00225931
0.0022591
0.00225821
0.00225665
0.00225443
0.0022516
0.00224816
0.00224415
0.00223959
0.00223451
0.00222895
0.00222294
0.00221651
0.0022097
0.00220254
0.00219506
0.00218729
0.00217927
0.00217104
0.00216261
0.00215403
0.00214532
0.0021365
0.00212759
0.00211863
0.00210962
0.00210056
0.00209147
0.00208231
0.00207304
0.00206361
0.00205399
0.00204422
0.00203431
0.00202429
0.00201418
0.00200399
0.00199372
0.00198337
0.00197293
0.0019624
0.00195178
0.00194106
0.00193022
0.00191928
0.00190822
0.00189698
0.00188536
0.00187223
0.00185151
5.54634e-06
4.61372e-05
0.000101157
0.000150417
0.000191369
0.000224877
0.000251922
0.000273759
0.000291499
0.000306099
0.000318364
0.00032896
0.000338427
0.000347196
0.000355605
0.000363911
0.000372309
0.000380944
0.000389922
0.000399321
0.000409197
0.000419589
0.000430527
0.000442027
0.000454102
0.000466753
0.000479979
0.000493773
0.000508124
0.000523017
0.000538434
0.000554355
0.000570759
0.000587623
0.000604922
0.000622633
0.000640729
0.000659187
0.000677984
0.000697097
0.000716509
0.000736202
0.000756161
0.000776371
0.000796819
0.000817493
0.000838381
0.000859472
0.000880756
0.000902224
0.000923867
0.000945676
0.000967645
0.000989768
0.00101204
0.00103445
0.00105699
0.00107967
0.00110246
0.00112538
0.00114841
0.00117155
0.00119478
0.00121812
0.00124154
0.00126504
0.00128863
0.00131228
0.001336
0.00135978
0.0013836
0.00140747
0.00143138
0.00145531
0.00147927
0.00150323
0.0015272
0.00155117
0.00157511
0.00159903
0.00162291
0.00164675
0.00167052
0.00169422
0.00171783
0.00174134
0.00176474
0.00178802
0.00181115
0.00183413
0.00185693
0.00187955
0.00190197
0.00192418
0.00194615
0.00196789
0.00198935
0.00201055
0.00203144
0.00205202
0.00207226
0.00209214
0.00211164
0.00213075
0.00214943
0.00216766
0.00218542
0.00220269
0.00221945
0.00223566
0.00225131
0.00226637
0.00228083
0.00229465
0.00230782
0.00232032
0.00233212
0.00234321
0.00235358
0.0023632
0.00237206
0.00238016
0.00238748
0.00239421
0.00240015
0.00240516
0.00240939
0.00241281
0.00241542
0.00241722
0.00241825
0.0024185
0.002418
0.00241677
0.00241481
0.00241216
0.00240883
0.00240486
0.00240027
0.00239509
0.00238936
0.00238312
0.00237639
0.00236922
0.00236164
0.00235369
0.0023454
0.00233682
0.00232799
0.00231893
0.00230969
0.0023003
0.00229079
0.0022812
0.00227154
0.00226185
0.00225214
0.00224242
0.0022327
0.00222294
0.00221314
0.00220326
0.00219333
0.00218336
0.00217337
0.00216338
0.00215338
0.0021434
0.00213343
0.00212347
0.00211352
0.0021036
0.00209368
0.00208378
0.00207391
0.00206407
0.00205423
0.00204422
0.00203306
0.00201638
5.9605e-06
4.71845e-05
0.000105522
0.000158781
0.000203371
0.00024021
0.00027019
0.000294615
0.00031465
0.000331294
0.000345391
0.000357639
0.000368611
0.000378765
0.000388463
0.000397988
0.000407554
0.00041732
0.000427405
0.000437895
0.00044885
0.000460311
0.000472306
0.000484852
0.000497957
0.00051162
0.000525837
0.000540601
0.000555899
0.000571719
0.000588043
0.000604849
0.000622114
0.000639817
0.000657934
0.000676442
0.00069532
0.000714545
0.000734095
0.000753949
0.000774085
0.000794483
0.00081513
0.000836012
0.000857115
0.000878428
0.00089994
0.00092164
0.000943518
0.000965566
0.000987776
0.00101014
0.00103265
0.0010553
0.00107808
0.00110099
0.00112402
0.00114717
0.00117043
0.0011938
0.00121727
0.00124084
0.0012645
0.00128825
0.00131208
0.00133598
0.00135997
0.00138402
0.00140813
0.0014323
0.00145652
0.00148078
0.00150509
0.00152943
0.0015538
0.00157818
0.00160258
0.00162698
0.00165137
0.00167575
0.0017001
0.00172442
0.0017487
0.00177291
0.00179706
0.00182113
0.00184511
0.00186899
0.00189275
0.00191638
0.00193986
0.00196318
0.00198634
0.0020093
0.00203206
0.0020546
0.00207691
0.00209896
0.00212075
0.00214224
0.00216342
0.00218426
0.00220476
0.00222487
0.00224459
0.00226388
0.00228272
0.00230109
0.00231896
0.0023363
0.0023531
0.00236932
0.00238493
0.00239992
0.00241426
0.00242793
0.00244089
0.00245314
0.00246464
0.00247538
0.00248535
0.00249451
0.00250291
0.0025106
0.00251747
0.00252341
0.00252853
0.00253278
0.00253615
0.00253866
0.00254032
0.00254115
0.00254116
0.00254036
0.00253878
0.00253642
0.00253332
0.0025295
0.00252499
0.00251982
0.00251403
0.00250765
0.00250072
0.00249329
0.00248538
0.00247704
0.00246832
0.00245926
0.0024499
0.00244028
0.00243045
0.00242044
0.00241031
0.00240008
0.0023898
0.00237949
0.00236919
0.00235892
0.00234868
0.0023385
0.00232836
0.00231826
0.00230821
0.00229822
0.00228831
0.0022785
0.00226879
0.0022592
0.00224974
0.0022404
0.0022312
0.00222215
0.00221324
0.00220449
0.00219592
0.00218755
0.00217935
0.00217119
0.00216224
0.0021494
6.33489e-06
4.74061e-05
0.000108025
0.000164635
0.000212573
0.000252501
0.000285348
0.000312326
0.000334643
0.000353331
0.000369263
0.000383165
0.000395632
0.000407144
0.000418087
0.000428759
0.000439393
0.000450163
0.0004612
0.000472596
0.000484419
0.000496713
0.00050951
0.000522828
0.000536673
0.000551043
0.000565931
0.000581325
0.000597214
0.000613611
0.00063049
0.000647823
0.000665586
0.000683755
0.000702312
0.000721234
0.000740504
0.000760103
0.000780017
0.00080023
0.000820691
0.000841381
0.000862292
0.000883411
0.000904726
0.000926226
0.000947901
0.000969742
0.000991742
0.00101389
0.00103618
0.00105861
0.00108117
0.00110385
0.00112665
0.00114957
0.00117259
0.00119573
0.00121896
0.00124229
0.00126572
0.00128924
0.00131285
0.00133655
0.00136033
0.00138419
0.00140813
0.00143215
0.00145624
0.00148039
0.00150461
0.00152889
0.00155323
0.00157761
0.00160204
0.00162651
0.00165102
0.00167554
0.00170009
0.00172464
0.0017492
0.00177375
0.00179828
0.00182279
0.00184725
0.00187167
0.00189603
0.00192031
0.00194452
0.00196862
0.00199261
0.00201648
0.00204021
0.00206378
0.00208719
0.00211041
0.00213343
0.00215622
0.00217878
0.00220108
0.0022231
0.00224482
0.00226621
0.00228727
0.00230795
0.00232823
0.0023481
0.00236752
0.00238647
0.00240491
0.00242283
0.00244019
0.00245697
0.00247313
0.00248864
0.00250349
0.00251765
0.00253108
0.00254376
0.00255568
0.0025668
0.00257711
0.00258663
0.00259535
0.00260323
0.00261023
0.00261633
0.00262153
0.00262575
0.00262906
0.00263146
0.00263297
0.00263359
0.00263335
0.00263224
0.00263029
0.00262752
0.00262396
0.00261963
0.00261457
0.00260881
0.00260238
0.00259534
0.00258772
0.00257956
0.00257091
0.00256182
0.00255233
0.0025425
0.00253237
0.002522
0.00251143
0.00250071
0.00248989
0.00247902
0.00246813
0.00245726
0.00244646
0.00243576
0.00242517
0.00241471
0.00240439
0.00239423
0.00238423
0.00237443
0.00236484
0.00235547
0.00234633
0.00233744
0.00232882
0.00232046
0.00231239
0.00230461
0.00229715
0.00229003
0.00228327
0.00227687
0.0022707
0.00226408
0.00225483
6.66088e-06
4.70947e-05
0.000109142
0.000168414
0.000219299
0.000261979
0.000297474
0.000326872
0.000351381
0.000372048
0.000389763
0.000405268
0.000419176
0.000431985
0.000444092
0.000455815
0.000467398
0.000479029
0.000490852
0.000502967
0.000515446
0.000528336
0.000541673
0.000555499
0.000569816
0.000584612
0.000599873
0.000615578
0.000631691
0.000648297
0.000665351
0.000682829
0.00070071
0.000718974
0.000737601
0.000756573
0.000775874
0.000795493
0.00081541
0.000835608
0.000855985
0.000876557
0.000897314
0.000918243
0.000939331
0.000960567
0.000981945
0.00100346
0.00102511
0.00104688
0.00106878
0.00109079
0.00111292
0.00113515
0.0011575
0.00117995
0.0012025
0.00122515
0.00124791
0.00127076
0.00129372
0.00131677
0.00133992
0.00136317
0.00138652
0.00140997
0.00143352
0.00145716
0.0014809
0.00150473
0.00152866
0.00155267
0.00157678
0.00160096
0.00162523
0.00164957
0.00167397
0.00169844
0.00172296
0.00174753
0.00177214
0.00179678
0.00182144
0.00184611
0.00187078
0.00189545
0.00192008
0.00194469
0.00196925
0.00199375
0.00201817
0.00204251
0.00206675
0.00209086
0.00211485
0.00213868
0.00216235
0.00218583
0.00220912
0.00223217
0.00225499
0.00227754
0.0022998
0.00232175
0.00234337
0.00236462
0.00238549
0.00240595
0.00242596
0.0024455
0.00246453
0.00248304
0.00250098
0.00251833
0.00253505
0.00255112
0.0025665
0.00258116
0.00259507
0.00260821
0.00262056
0.00263208
0.00264278
0.00265263
0.00266163
0.00266978
0.00267697
0.00268322
0.00268838
0.00269258
0.00269583
0.00269813
0.00269948
0.0026999
0.00269938
0.00269795
0.00269562
0.00269242
0.00268838
0.00268352
0.00267789
0.00267152
0.00266445
0.00265673
0.0026484
0.00263951
0.00263012
0.00262028
0.00261003
0.00259945
0.00258858
0.00257749
0.00256623
0.00255486
0.00254343
0.00253199
0.0025206
0.0025093
0.00249814
0.00248716
0.00247639
0.00246586
0.00245559
0.0024456
0.00243591
0.00242655
0.00241753
0.00240888
0.00240062
0.00239275
0.0023853
0.00237827
0.0023717
0.00236561
0.00236003
0.00235497
0.00235044
0.00234634
0.00234209
0.00233621
6.93934e-06
4.63844e-05
0.00010913
0.00017039
0.00022371
0.000268771
0.000306624
0.000338225
0.000364757
0.000387263