/*--------------------------------*- C++ -*----------------------------------*\
| =========                 |                                                 |
| \\      /  F ield         | OpenFOAM: The Open Source CFD Toolbox           |
|  \\    /   O peration     | Version:  2312                                  |
|   \\  /    A nd           | Website:  www.openfoam.com                      |
|    \\/     M anipulation  |                                                 |
\*---------------------------------------------------------------------------*/
FoamFile
{
    version     2.0;
    format      ascii;
    arch        "LSB;label=32;scalar=64";
    class       surfaceScalarField;
    location    "200";
    object      phi;
}
// * * * * * * * * * * * * * * * * * * * * * * * * * * * * * * * * * * * * * //

dimensions      [0 3 -1 0 0 0 0];

oriented        oriented;

internalField   nonuniform List<scalar> 
24170
(
2.95996e-07
2.28445e-08
2.5558e-07
4.04165e-08
2.24716e-07
3.08639e-08
1.99826e-07
2.48894e-08
1.82385e-07
1.7441e-08
1.70931e-07
1.14544e-08
1.63105e-07
7.82602e-09
1.57289e-07
5.81601e-09
1.5268e-07
4.60857e-09
1.48922e-07
3.75786e-09
1.45845e-07
3.07646e-09
1.43366e-07
2.4793e-09
1.41456e-07
1.91012e-09
1.40143e-07
1.313e-09
1.3953e-07
6.12722e-10
1.39863e-07
-3.33048e-10
1.41383e-07
-1.51992e-09
-7.95191e-09
1.49335e-07
3.52298e-07
1.22712e-08
3.41645e-07
5.10692e-08
3.2506e-07
4.74488e-08
3.09579e-07
4.03706e-08
2.95819e-07
3.12012e-08
2.8451e-07
2.27629e-08
2.75578e-07
1.6758e-08
2.68538e-07
1.28561e-08
2.62916e-07
1.02301e-08
2.58367e-07
8.30675e-09
2.54666e-07
6.77826e-09
2.51677e-07
5.46745e-09
2.49339e-07
4.24808e-09
2.47647e-07
3.00539e-09
2.46673e-07
1.58638e-09
2.46598e-07
-2.58231e-10
2.48135e-07
-3.05644e-09
-9.44501e-09
2.49628e-07
3.66866e-07
1.16569e-08
3.70225e-07
4.771e-08
3.66882e-07
5.07924e-08
3.6097e-07
4.62826e-08
3.53571e-07
3.85994e-08
3.45992e-07
3.03426e-08
3.39124e-07
2.36257e-08
3.33263e-07
1.87166e-08
3.28384e-07
1.51091e-08
3.24359e-07
1.23317e-08
3.21061e-07
1.00764e-08
3.18397e-07
8.13201e-09
3.16312e-07
6.33311e-09
3.1479e-07
4.52723e-09
3.13852e-07
2.52372e-09
3.13557e-07
3.66267e-11
3.13927e-07
-3.426e-09
-8.94624e-09
3.13428e-07
3.92617e-07
1.15788e-08
3.97383e-07
4.29434e-08
3.98502e-07
4.96736e-08
3.9699e-07
4.77949e-08
3.93494e-07
4.20958e-08
3.88932e-07
3.49043e-08
3.84191e-07
2.83667e-08
3.79782e-07
2.3125e-08
3.75906e-07
1.8985e-08
3.72599e-07
1.56396e-08
3.69833e-07
1.28421e-08
3.67571e-07
1.03934e-08
3.65783e-07
8.12139e-09
3.64448e-07
5.86194e-09
3.63548e-07
3.42385e-09
3.63032e-07
5.52334e-10
3.62679e-07
-3.07267e-09
-7.85011e-09
3.61583e-07
4.21387e-07
1.09045e-08
4.25871e-07
3.84594e-08
4.2861e-07
4.69342e-08
4.29335e-07
4.70698e-08
4.28264e-07
4.31674e-08
4.25907e-07
3.72612e-08
4.22944e-07
3.13293e-08
4.19887e-07
2.61825e-08
4.17015e-07
2.18564e-08
4.14456e-07
1.8199e-08
4.12254e-07
1.50443e-08
4.10417e-07
1.22299e-08
4.08939e-07
9.60014e-09
4.07799e-07
7.00124e-09
4.06958e-07
4.2653e-09
4.06312e-07
1.19762e-09
4.05612e-07
-2.37225e-09
-6.53445e-09
4.04296e-07
4.51784e-07
1.00295e-08
4.5597e-07
3.42736e-08
4.59428e-07
4.34755e-08
4.61442e-07
4.50557e-08
4.61965e-07
4.26445e-08
4.6123e-07
3.79958e-08
4.59715e-07
3.28448e-08
4.57854e-07
2.80431e-08
4.55935e-07
2.37758e-08
4.5412e-07
2.00138e-08
4.52496e-07
1.66679e-08
4.51104e-07
1.36225e-08
4.49953e-07
1.07514e-08
4.49028e-07
7.926e-09
4.48279e-07
5.0138e-09
4.47593e-07
1.8835e-09
4.46752e-07
-1.53039e-09
-5.18095e-09
4.45398e-07
4.84145e-07
9.15666e-09
4.88082e-07
3.03366e-08
4.91865e-07
3.96922e-08
4.9465e-07
4.22707e-08
4.96248e-07
4.10462e-08
4.96719e-07
3.75254e-08
4.96373e-07
3.31911e-08
4.95551e-07
2.88644e-08
4.9451e-07
2.48172e-08
4.93416e-07
2.11075e-08
4.92373e-07
1.77106e-08
4.91439e-07
1.4557e-08
4.90634e-07
1.15559e-08
4.8995e-07
8.6108e-09
4.89335e-07
5.62844e-09
4.88686e-07
2.53284e-09
4.87831e-07
-6.76314e-10
-3.90337e-09
4.86554e-07
5.1881e-07
8.30476e-09
5.22488e-07
2.66588e-08
5.26379e-07
3.58009e-08
5.29623e-07
3.90264e-08
5.31955e-07
3.87144e-08
5.33325e-07
3.61555e-08
5.33918e-07
3.25982e-08
5.33985e-07
2.87975e-08
5.33735e-07
2.50667e-08
5.33322e-07
2.15212e-08
5.32847e-07
1.8185e-08
5.32375e-07
1.50295e-08
5.31931e-07
1.19991e-08
5.31511e-07
9.03089e-09
5.31071e-07
6.0685e-09
5.30525e-07
3.07909e-09
5.29751e-07
9.73558e-11
-2.77549e-09
5.28623e-07
5.55981e-07
7.45776e-09
5.59387e-07
2.32522e-08
5.63261e-07
3.19272e-08
5.6677e-07
3.5517e-08
5.69604e-07
3.58808e-08
5.71646e-07
3.41136e-08
5.72988e-07
3.12558e-08
5.73804e-07
2.79819e-08
5.74254e-07
2.46166e-08
5.74466e-07
2.13091e-08
5.74533e-07
1.81181e-08
5.74515e-07
1.50479e-08
5.74439e-07
1.20749e-08
5.74303e-07
9.16664e-09
5.74074e-07
6.29805e-09
5.73686e-07
3.46672e-09
5.73061e-07
7.22126e-10
-1.84686e-09
5.72133e-07
5.95823e-07
6.61255e-09
5.98964e-07
2.01108e-08
6.02748e-07
2.81436e-08
6.06396e-07
3.18689e-08
6.0957e-07
3.27064e-08
6.12113e-07
3.15704e-08
6.1405e-07
2.93192e-08
6.15489e-07
2.6543e-08
6.16546e-07
2.35595e-08
6.17321e-07
2.0534e-08
6.17891e-07
1.75481e-08
6.18307e-07
1.46315e-08
6.18596e-07
1.17863e-08
6.18757e-07
9.00581e-09
6.18766e-07
6.28882e-09
6.1858e-07
3.65227e-09
6.18154e-07
1.14825e-09
-1.15155e-09
6.17459e-07
6.3852e-07
5.77423e-09
6.41408e-07
1.72225e-08
6.45061e-07
2.44908e-08
6.48762e-07
2.81672e-08
6.52162e-07
2.93069e-08
6.55076e-07
2.86558e-08
6.57481e-07
2.69146e-08
6.59433e-07
2.45913e-08
6.61008e-07
2.19839e-08
6.6228e-07
1.92622e-08
6.63307e-07
1.6521e-08
6.64131e-07
1.38079e-08
6.64772e-07
1.11449e-08
6.65234e-07
8.54428e-09
6.65501e-07
6.02173e-09
6.65548e-07
3.6047e-09
6.65355e-07
1.34154e-09
-7.12418e-10
6.64916e-07
5.74786e-07
5.07129e-09
5.77033e-07
1.49756e-08
5.80004e-07
2.15203e-08
5.83129e-07
2.50422e-08
5.86109e-07
2.63264e-08
5.88781e-07
2.59836e-08
5.91095e-07
2.4601e-08
5.93066e-07
2.26201e-08
5.94734e-07
2.03159e-08
5.96141e-07
1.78554e-08
5.97323e-07
1.53389e-08
5.98307e-07
1.28242e-08
5.99107e-07
1.03449e-08
5.99726e-07
7.92528e-09
6.00158e-07
5.58981e-09
6.00392e-07
3.37006e-09
6.00424e-07
1.3094e-09
-5.50613e-10
6.00263e-07
7.00587e-07
4.30029e-09
7.02986e-07
1.25765e-08
7.06234e-07
1.82716e-08
7.0977e-07
2.1507e-08
7.13256e-07
2.284e-08
7.16493e-07
2.27466e-08
7.19398e-07
2.16957e-08
7.21961e-07
2.00573e-08
7.242e-07
1.80767e-08
7.26144e-07
1.59117e-08
7.2782e-07
1.36632e-08
7.29249e-07
1.13952e-08
7.30443e-07
9.15038e-09
7.31407e-07
6.96095e-09
7.3214e-07
4.85717e-09
7.32639e-07
2.87136e-09
7.32908e-07
1.03986e-09
-6.06277e-10
7.32964e-07
8.53913e-07
3.47172e-09
8.56425e-07
1.00649e-08
8.59916e-07
1.47804e-08
8.63839e-07
1.75836e-08
8.67835e-07
1.88445e-08
8.71667e-07
1.8914e-08
8.75218e-07
1.81447e-08
8.78445e-07
1.68312e-08
8.81339e-07
1.5182e-08
8.83913e-07
1.33384e-08
8.86179e-07
1.13967e-08
8.88152e-07
9.42215e-09
8.89841e-07
7.46144e-09
8.91251e-07
5.55094e-09
8.92386e-07
3.72253e-09
8.93251e-07
2.00633e-09
8.93859e-07
4.31128e-10
-9.8051e-10
8.94234e-07
1.0408e-06
2.59837e-09
1.04338e-06
7.48498e-09
1.04706e-06
1.10923e-08
1.05134e-06
1.33101e-08
1.05582e-06
1.4359e-08
1.06026e-06
1.44798e-08
1.06448e-06
1.39182e-08
1.06842e-06
1.2892e-08
1.07204e-06
1.1566e-08
1.07532e-06
1.00584e-08
1.07826e-06
8.45357e-09
1.08087e-06
6.81232e-09
1.08315e-06
5.17992e-09
1.08511e-06
3.59192e-09
1.08676e-06
2.07809e-09
1.0881e-06
6.64014e-10
1.08916e-06
-6.2872e-10
-1.78445e-09
1.08996e-06
1.26858e-06
1.6936e-09
1.27121e-06
4.86301e-09
1.27505e-06
7.24549e-09
1.27964e-06
8.72492e-09
1.28458e-06
9.4125e-09
1.28961e-06
9.45582e-09
1.29452e-06
9.00832e-09
1.2992e-06
8.21318e-09
1.30358e-06
7.18624e-09
1.30762e-06
6.0152e-09
1.31131e-06
4.76569e-09
1.31463e-06
3.48725e-09
1.31759e-06
2.21789e-09
1.3202e-06
9.87666e-10
1.32246e-06
-1.79163e-10
1.32438e-06
-1.26303e-09
1.326e-06
-2.2489e-09
-3.12655e-09
1.32735e-06
1.54625e-06
7.5848e-10
1.54893e-06
2.18229e-09
1.55295e-06
3.23102e-09
1.55785e-06
3.8245e-09
1.56326e-06
4.00383e-09
1.56887e-06
3.83881e-09
1.57448e-06
3.40445e-09
1.57992e-06
2.77434e-09
1.58509e-06
2.01185e-09
1.58994e-06
1.1677e-09
1.59442e-06
2.81855e-10
1.59852e-06
-6.14026e-10
1.60224e-06
-1.49471e-09
1.60556e-06
-2.33991e-09
1.60852e-06
-3.13344e-09
1.61112e-06
-3.8627e-09
1.61339e-06
-4.51857e-09
-5.09524e-09
1.61536e-06
1.88476e-06
-2.37423e-10
1.8876e-06
-6.62342e-10
1.89192e-06
-1.08481e-09
1.89727e-06
-1.52668e-09
1.90327e-06
-1.99003e-09
1.90958e-06
-2.47479e-09
1.91596e-06
-2.97819e-09
1.92223e-06
-3.49431e-09
1.92826e-06
-4.01608e-09
1.93396e-06
-4.53594e-09
1.93929e-06
-5.04593e-09
1.94421e-06
-5.53789e-09
1.94872e-06
-6.00386e-09
1.95282e-06
-6.43652e-09
1.95651e-06
-6.82946e-09
1.95983e-06
-7.17755e-09
1.96279e-06
-7.4771e-09
-7.72621e-09
1.96542e-06
2.29748e-06
-1.38043e-09
2.30078e-06
-3.96161e-09
2.30581e-06
-6.11521e-09
2.31206e-06
-7.77889e-09
2.31907e-06
-8.99936e-09
2.32645e-06
-9.86076e-09
2.33392e-06
-1.04452e-08
2.34125e-06
-1.08269e-08
2.3483e-06
-1.10667e-08
2.35498e-06
-1.12095e-08
2.36122e-06
-1.1286e-08
2.367e-06
-1.13159e-08
2.3723e-06
-1.13117e-08
2.37715e-06
-1.12803e-08
2.38154e-06
-1.12256e-08
2.38551e-06
-1.11494e-08
2.38909e-06
-1.10527e-08
-1.09359e-08
2.3923e-06
1.68198e-06
-2.28519e-09
1.68461e-06
-6.59727e-09
1.68861e-06
-1.01155e-08
1.69351e-06
-1.26731e-08
1.69889e-06
-1.43875e-08
1.70447e-06
-1.54351e-08
1.71e-06
-1.59784e-08
1.71534e-06
-1.61654e-08
1.72039e-06
-1.61163e-08
1.7251e-06
-1.59173e-08
1.72944e-06
-1.5627e-08
1.73341e-06
-1.52843e-08
1.73701e-06
-1.49141e-08
1.74026e-06
-1.45317e-08
1.74318e-06
-1.41459e-08
1.74579e-06
-1.37615e-08
1.74812e-06
-1.33808e-08
-1.30048e-08
1.75019e-06
1.4643e-06
-3.13313e-09
1.46694e-06
-9.23668e-09
1.47093e-06
-1.41023e-08
1.47569e-06
-1.7429e-08
1.48078e-06
-1.94849e-08
1.48591e-06
-2.05651e-08
1.49086e-06
-2.09265e-08
1.4955e-06
-2.0806e-08
1.49977e-06
-2.0388e-08
1.50365e-06
-1.97972e-08
1.50714e-06
-1.91155e-08
1.51025e-06
-1.83958e-08
1.51301e-06
-1.76712e-08
1.51544e-06
-1.69609e-08
1.51757e-06
-1.62753e-08
1.51943e-06
-1.56191e-08
1.52104e-06
-1.49938e-08
-1.43991e-08
1.52244e-06
1.27475e-06
-3.86546e-09
1.27747e-06
-1.19647e-08
1.28157e-06
-1.81953e-08
1.28628e-06
-2.21412e-08
1.29116e-06
-2.43629e-08
1.29588e-06
-2.52917e-08
1.30025e-06
-2.52977e-08
1.30418e-06
-2.47313e-08
1.30764e-06
-2.38469e-08
1.31064e-06
-2.28033e-08
1.31323e-06
-2.1699e-08
1.31543e-06
-2.05954e-08
1.31728e-06
-1.95277e-08
1.31884e-06
-1.8514e-08
1.32012e-06
-1.75622e-08
1.32118e-06
-1.66736e-08
1.32203e-06
-1.58462e-08
-1.50765e-08
1.32271e-06
1.1096e-06
-4.37426e-09
1.11247e-06
-1.48347e-08
1.11672e-06
-2.2444e-08
1.12139e-06
-2.68142e-08
1.12602e-06
-2.8993e-08
1.13028e-06
-2.95436e-08
1.13396e-06
-2.89846e-08
1.13705e-06
-2.78157e-08
1.13956e-06
-2.63644e-08
1.14157e-06
-2.48134e-08
1.14314e-06
-2.32687e-08
1.14434e-06
-2.17906e-08
1.14522e-06
-2.04086e-08
1.14584e-06
-1.91332e-08
1.14624e-06
-1.79644e-08
1.14646e-06
-1.68968e-08
1.14654e-06
-1.59219e-08
-1.50313e-08
1.1465e-06
9.6571e-07
-4.56256e-09
9.68767e-07
-1.78917e-08
9.73159e-07
-2.68368e-08
9.77724e-07
-3.13784e-08
9.81986e-07
-3.32552e-08
9.85581e-07
-3.31384e-08
9.88364e-07
-3.17676e-08
9.90384e-07
-2.98362e-08
9.91756e-07
-2.77361e-08
9.92597e-07
-2.56544e-08
9.93015e-07
-2.36877e-08
9.93106e-07
-2.18814e-08
9.92945e-07
-2.02478e-08
9.92594e-07
-1.87814e-08
9.92098e-07
-1.74691e-08
9.91496e-07
-1.62948e-08
9.90816e-07
-1.52421e-08
-1.42961e-08
9.90081e-07
8.40225e-07
-4.25214e-09
8.43615e-07
-2.12822e-08
8.48104e-07
-3.13255e-08
8.52393e-07
-3.56672e-08
8.5603e-07
-3.68929e-08
8.58634e-07
-3.57417e-08
8.60162e-07
-3.32954e-08
8.60799e-07
-3.04739e-08
8.60763e-07
-2.77002e-08
8.60239e-07
-2.51306e-08
8.59377e-07
-2.28249e-08
8.58288e-07
-2.0793e-08
8.57056e-07
-1.90161e-08
8.5574e-07
-1.74646e-08
8.54379e-07
-1.6108e-08
8.53001e-07
-1.49176e-08
8.51628e-07
-1.38689e-08
-1.29409e-08
8.50273e-07
7.30266e-07
-2.78965e-09
7.34495e-07
-2.55113e-08
7.3904e-07
-3.58705e-08
7.42741e-07
-3.93678e-08
7.45272e-07
-3.94238e-08
7.46327e-07
-3.67974e-08
7.46087e-07
-3.30551e-08
7.4493e-07
-2.93173e-08
7.43193e-07
-2.59626e-08
7.4112e-07
-2.30581e-08
7.38883e-07
-2.05874e-08
7.36591e-07
-1.85013e-08
7.34313e-07
-1.67379e-08
7.32087e-07
-1.52389e-08
7.29935e-07
-1.39564e-08
7.27868e-07
-1.28506e-08
7.25892e-07
-1.18922e-08
-1.10563e-08
7.24007e-07
6.33369e-07
8.47479e-10
6.39168e-07
-3.13096e-08
6.43435e-07
-4.0138e-08
6.45902e-07
-4.18344e-08
6.46447e-07
-3.99692e-08
6.45064e-07
-3.54139e-08
6.42332e-07
-3.03239e-08
6.38878e-07
-2.58629e-08
6.35136e-07
-2.2221e-08
6.3137e-07
-1.92917e-08
6.27722e-07
-1.69392e-08
6.24259e-07
-1.50383e-08
6.21004e-07
-1.34835e-08
6.17959e-07
-1.21931e-08
6.15112e-07
-1.11093e-08
6.12449e-07
-1.01877e-08
6.09958e-07
-9.40117e-09
-8.72462e-09
6.07626e-07
5.5063e-07
4.76437e-09
5.5717e-07
-3.78501e-08
5.58702e-07
-4.167e-08
5.57857e-07
-4.09898e-08
5.54475e-07
-3.65866e-08
5.49103e-07
-3.00422e-08
5.42836e-07
-2.40565e-08
5.36478e-07
-1.95057e-08
5.30446e-07
-1.61889e-08
5.24898e-07
-1.37436e-08
5.19858e-07
-1.18992e-08
5.15291e-07
-1.04714e-08
5.11143e-07
-9.33557e-09
5.07359e-07
-8.40904e-09
5.0389e-07
-7.63975e-09
5.00693e-07
-6.99104e-09
4.97737e-07
-6.44487e-09
-5.98501e-09
4.94997e-07
4.9448e-07
-6.9549e-09
4.9079e-07
-3.41605e-08
4.79688e-07
-3.05674e-08
4.6816e-07
-2.94618e-08
4.55743e-07
-2.41697e-08
4.43507e-07
-1.78062e-08
4.32387e-07
-1.29366e-08
4.22694e-07
-9.81274e-09
4.14364e-07
-7.8587e-09
4.0719e-07
-6.57034e-09
4.0095e-07
-5.65931e-09
3.95454e-07
-4.97475e-09
3.90553e-07
-4.43519e-09
3.86139e-07
-3.99503e-09
3.82128e-07
-3.6283e-09
3.78456e-07
-3.31883e-09
3.75072e-07
-3.06165e-09
-2.8573e-09
3.71945e-07
4.13313e-07
3.79152e-07
3.48585e-07
3.19123e-07
2.94953e-07
2.77147e-07
2.6421e-07
2.54398e-07
2.46539e-07
2.39969e-07
2.34309e-07
2.29335e-07
2.24899e-07
2.20904e-07
2.17276e-07
2.13957e-07
2.10896e-07
2.08038e-07
8.86112e-10
-8.86354e-10
2.67727e-09
-1.79155e-09
4.76112e-09
-2.08433e-09
6.71385e-09
-1.95308e-09
8.28663e-09
-1.57328e-09
9.3604e-09
-1.07414e-09
9.90592e-09
-5.46079e-10
9.95025e-09
-4.47337e-11
9.55159e-09
3.98045e-10
8.78138e-09
7.69776e-10
7.7046e-09
1.07611e-09
6.37177e-09
1.33237e-09
4.81484e-09
1.5562e-09
3.05128e-09
1.76306e-09
1.08674e-09
1.96376e-09
-1.08171e-09
2.16787e-09
-3.46857e-09
2.38604e-09
-6.09385e-09
2.62464e-09
-8.98388e-09
2.88919e-09
-1.21706e-08
3.18605e-09
-1.56898e-08
3.51829e-09
-1.95772e-08
3.88667e-09
-2.38681e-08
4.29e-09
-2.85946e-08
4.72559e-09
-3.37846e-08
5.18899e-09
-3.94598e-08
5.67419e-09
-4.56344e-08
6.17361e-09
-5.23141e-08
6.67851e-09
-5.94945e-08
7.17927e-09
-6.71616e-08
7.66589e-09
-7.52906e-08
8.128e-09
-8.38477e-08
8.55582e-09
-9.27891e-08
8.94051e-09
-1.02065e-07
9.2748e-09
-1.11618e-07
9.55248e-09
-1.21389e-07
9.76945e-09
-1.31313e-07
9.92361e-09
-1.41329e-07
1.00145e-08
-1.51372e-07
1.00429e-08
-1.61384e-07
1.00108e-08
-1.71306e-07
9.92122e-09
-1.81084e-07
9.77793e-09
-1.9067e-07
9.58516e-09
-2.00018e-07
9.34751e-09
-2.09088e-07
9.06957e-09
-2.17844e-07
8.75594e-09
-2.26255e-07
8.41097e-09
-2.34295e-07
8.03878e-09
-2.41938e-07
7.64306e-09
-2.49166e-07
7.22725e-09
-2.5596e-07
6.79429e-09
-2.62308e-07
6.34679e-09
-2.68195e-07
5.88693e-09
-2.73613e-07
5.41659e-09
-2.7855e-07
4.9372e-09
-2.83001e-07
4.44986e-09
-2.86956e-07
3.95518e-09
-2.90411e-07
3.45336e-09
-2.93355e-07
2.94418e-09
-2.95783e-07
2.42721e-09
-2.97686e-07
1.90197e-09
-2.99054e-07
1.36777e-09
-2.99879e-07
8.24371e-10
-3.00158e-07
2.78382e-10
-2.99913e-07
-2.44547e-10
-2.99193e-07
-7.20818e-10
-2.98034e-07
-1.15878e-09
-2.96459e-07
-1.57582e-09
-2.9448e-07
-1.97842e-09
-2.92111e-07
-2.36943e-09
-2.8936e-07
-2.74977e-09
-2.86241e-07
-3.11978e-09
-2.8276e-07
-3.47926e-09
-2.78932e-07
-3.82836e-09
-2.74766e-07
-4.16478e-09
-2.70275e-07
-4.49124e-09
-2.65469e-07
-4.80512e-09
-2.60364e-07
-5.10495e-09
-2.54969e-07
-5.39419e-09
-2.49299e-07
-5.66975e-09
-2.43364e-07
-5.93218e-09
-2.37181e-07
-6.18166e-09
-2.3076e-07
-6.41817e-09
-2.24116e-07
-6.64218e-09
-2.17259e-07
-6.85309e-09
-2.10206e-07
-7.05069e-09
-2.02966e-07
-7.2343e-09
-1.95557e-07
-7.40357e-09
-1.8799e-07
-7.55951e-09
-1.80278e-07
-7.70199e-09
-1.72436e-07
-7.83203e-09
-1.64477e-07
-7.94912e-09
-1.56413e-07
-8.05385e-09
-1.48257e-07
-8.14602e-09
-1.40021e-07
-8.22601e-09
-1.31717e-07
-8.29364e-09
-1.23359e-07
-8.3494e-09
-1.14956e-07
-8.39318e-09
-1.06522e-07
-8.42543e-09
-9.80679e-08
-8.44606e-09
-8.96056e-08
-8.4554e-09
-8.11462e-08
-8.45349e-09
-7.27013e-08
-8.44047e-09
-6.42817e-08
-8.41641e-09
-5.58981e-08
-8.38107e-09
-4.75619e-08
-8.33444e-09
-3.9284e-08
-8.27603e-09
-3.1076e-08
-8.2062e-09
-2.29477e-08
-8.12607e-09
-1.49109e-08
-8.03441e-09
-6.9812e-09
-7.92676e-09
8.18701e-10
-7.79675e-09
8.49373e-09
-7.67146e-09
1.60425e-08
-7.54501e-09
2.34416e-08
-7.3951e-09
3.06859e-08
-7.24013e-09
3.77741e-08
-7.08374e-09
4.47049e-08
-6.9262e-09
5.14766e-08
-6.76709e-09
5.80872e-08
-6.60578e-09
6.45342e-08
-6.44205e-09
7.08151e-08
-6.27551e-09
7.69267e-08
-6.1063e-09
8.28666e-08
-5.93419e-09
8.86314e-08
-5.75969e-09
9.42193e-08
-5.58264e-09
9.96274e-08
-5.40373e-09
1.04855e-07
-5.22282e-09
1.09899e-07
-5.0407e-09
1.1476e-07
-4.85726e-09
1.19436e-07
-4.67332e-09
1.23927e-07
-4.48866e-09
1.28232e-07
-4.30413e-09
1.32353e-07
-4.11953e-09
1.36289e-07
-3.93578e-09
1.40042e-07
-3.75273e-09
1.43611e-07
-3.57119e-09
1.47e-07
-3.39098e-09
1.5021e-07
-3.21278e-09
1.53242e-07
-3.03655e-09
1.561e-07
-2.86274e-09
1.58787e-07
-2.69137e-09
1.61306e-07
-2.52263e-09
1.63659e-07
-2.35678e-09
1.6585e-07
-2.19419e-09
1.67882e-07
-2.03508e-09
1.69758e-07
-1.87967e-09
1.71483e-07
-1.7281e-09
1.73061e-07
-1.5805e-09
1.74495e-07
-1.43692e-09
1.7579e-07
-1.29749e-09
1.76949e-07
-1.16229e-09
1.77978e-07
-1.03145e-09
1.7888e-07
-9.05072e-10
1.7966e-07
-7.83123e-10
1.80322e-07
-6.65465e-10
1.80871e-07
-5.51969e-10
1.8131e-07
-4.42499e-10
1.81644e-07
-3.36788e-10
1.81875e-07
-2.34542e-10
1.82006e-07
-1.34375e-10
1.82032e-07
-2.8599e-11
1.81948e-07
8.07912e-11
1.81761e-07
1.83967e-10
1.81476e-07
2.81476e-10
1.81096e-07
3.76857e-10
1.8062e-07
4.73535e-10
1.80042e-07
5.75298e-10
1.79352e-07
6.86532e-10
1.78538e-07
8.12251e-10
1.77575e-07
9.59737e-10
1.76434e-07
1.13919e-09
1.75065e-07
1.36591e-09
1.734e-07
1.66332e-09
1.71331e-07
2.06664e-09
1.68688e-07
2.64113e-09
1.65205e-07
3.48092e-09
1.60329e-07
4.8738e-09
1.53282e-07
7.0453e-09
1.17749e-08
1.41506e-07
1.28146e-09
-2.16827e-09
3.20776e-09
-3.71856e-09
4.83323e-09
-3.71051e-09
5.83066e-09
-2.95099e-09
6.15266e-09
-1.89589e-09
5.83038e-09
-7.52282e-10
4.91054e-09
3.73167e-10
3.44299e-09
1.42239e-09
1.47195e-09
2.36846e-09
-9.65357e-10
3.20664e-09
-3.83828e-09
3.94839e-09
-7.12212e-09
4.61577e-09
-1.0802e-08
5.23541e-09
-1.48731e-08
5.83376e-09
-1.93436e-08
6.43356e-09
-2.42286e-08
7.05232e-09
-2.95457e-08
7.70247e-09
-3.53145e-08
8.3929e-09
-4.15555e-08
9.12955e-09
-4.82846e-08
9.91459e-09
-5.55126e-08
1.07456e-08
-6.32426e-08
1.1616e-08
-7.14689e-08
1.25156e-08
-8.01757e-08
1.34316e-08
-8.93365e-08
1.4349e-08
-9.89143e-08
1.52512e-08
-1.08861e-07
1.61198e-08
-1.19119e-07
1.69357e-08
-1.29622e-07
1.76812e-08
-1.40299e-07
1.83417e-08
-1.51077e-07
1.89049e-08
-1.61883e-07
1.93613e-08
-1.72647e-07
1.97039e-08
-1.83302e-07
1.99292e-08
-1.93787e-07
2.00364e-08
-2.04045e-07
2.00269e-08
-2.14027e-07
1.99048e-08
-2.2369e-07
1.96763e-08
-2.32996e-07
1.93488e-08
-2.41917e-07
1.89307e-08
-2.50427e-07
1.8431e-08
-2.58508e-07
1.78589e-08
-2.66147e-07
1.72234e-08
-2.73333e-07
1.6533e-08
-2.8006e-07
1.57959e-08
-2.86323e-07
1.50194e-08
-2.92122e-07
1.42099e-08
-2.97457e-07
1.33734e-08
-3.02329e-07
1.25147e-08
-3.06741e-07
1.16383e-08
-3.10694e-07
1.07477e-08
-3.14194e-07
9.84609e-09
-3.17244e-07
8.93598e-09
-3.19847e-07
8.01957e-09
-3.22009e-07
7.09867e-09
-3.23734e-07
6.1748e-09
-3.25029e-07
5.24929e-09
-3.25899e-07
4.32336e-09
-3.26354e-07
3.39832e-09
-3.26403e-07
2.47573e-09
-3.26059e-07
1.55758e-09
-3.25338e-07
6.4678e-10
-3.24263e-07
-2.50844e-10
-3.22859e-07
-1.12632e-09
-3.21128e-07
-1.97588e-09
-3.19045e-07
-2.80434e-09
-3.16589e-07
-3.61479e-09
-3.13758e-07
-4.40698e-09
-3.10555e-07
-5.18097e-09
-3.06988e-07
-5.93678e-09
-3.03063e-07
-6.674e-09
-2.98791e-07
-7.39211e-09
-2.94179e-07
-8.09032e-09
-2.89239e-07
-8.76793e-09
-2.8398e-07
-9.42386e-09
-2.78413e-07
-1.0058e-08
-2.72549e-07
-1.06689e-08
-2.66397e-07
-1.1256e-08
-2.59972e-07
-1.18192e-08
-2.53283e-07
-1.23576e-08
-2.46343e-07
-1.28707e-08
-2.39165e-07
-1.33586e-08
-2.31761e-07
-1.3821e-08
-2.24143e-07
-1.42587e-08
-2.16322e-07
-1.46713e-08
-2.08312e-07
-1.5058e-08
-2.00125e-07
-1.54183e-08
-1.91773e-07
-1.57518e-08
-1.83269e-07
-1.60586e-08
-1.74625e-07
-1.63404e-08
-1.65853e-07
-1.65967e-08
-1.56968e-07
-1.68283e-08
-1.4798e-07
-1.70353e-08
-1.38902e-07
-1.72177e-08
-1.29746e-07
-1.73761e-08
-1.20523e-07
-1.75104e-08
-1.11246e-07
-1.76211e-08
-1.01925e-07
-1.77084e-08
-9.25723e-08
-1.77728e-08
-8.31993e-08
-1.78144e-08
-7.38172e-08
-1.78336e-08
-6.4437e-08
-1.78306e-08
-5.50697e-08
-1.78056e-08
-4.5726e-08
-1.77586e-08
-3.64164e-08
-1.76897e-08
-2.71514e-08
-1.75985e-08
-1.79416e-08
-1.74849e-08
-8.79788e-09
-1.73488e-08
2.67558e-10
-1.71902e-08
9.24609e-09
-1.70114e-08
1.81338e-08
-1.68127e-08
2.69337e-08
-1.65946e-08
3.56267e-08
-1.63622e-08
4.41968e-08
-1.61128e-08
5.26487e-08
-1.58444e-08
6.09764e-08
-1.5565e-08
6.9174e-08
-1.52785e-08
7.72368e-08
-1.4986e-08
8.51604e-08
-1.46875e-08
9.29408e-08
-1.4383e-08
1.00574e-07
-1.40722e-08
1.08058e-07
-1.37551e-08
1.15387e-07
-1.34319e-08
1.2256e-07
-1.31027e-08
1.29572e-07
-1.2768e-08
1.36421e-07
-1.24281e-08
1.43104e-07
-1.20837e-08
1.4962e-07
-1.17353e-08
1.55966e-07
-1.13836e-08
1.6214e-07
-1.1029e-08
1.68141e-07
-1.06724e-08
1.73968e-07
-1.03142e-08
1.79621e-07
-9.95517e-09
1.85098e-07
-9.59573e-09
1.90399e-07
-9.23663e-09
1.95524e-07
-8.87831e-09
2.00473e-07
-8.52149e-09
2.05247e-07
-8.16664e-09
2.09845e-07
-7.8143e-09
2.1427e-07
-7.46487e-09
2.18522e-07
-7.11873e-09
2.22603e-07
-6.77635e-09
2.26515e-07
-6.43796e-09
2.3026e-07
-6.10414e-09
2.33838e-07
-5.77523e-09
2.37252e-07
-5.45179e-09
2.40503e-07
-5.13397e-09
2.43595e-07
-4.82225e-09
2.46528e-07
-4.51673e-09
2.49307e-07
-4.21778e-09
2.51932e-07
-3.92545e-09
2.54407e-07
-3.64005e-09
2.56734e-07
-3.36161e-09
2.58917e-07
-3.0905e-09
2.60957e-07
-2.82654e-09
2.62858e-07
-2.56974e-09
2.64623e-07
-2.31973e-09
2.66254e-07
-2.07646e-09
2.67753e-07
-1.83936e-09
2.69123e-07
-1.60788e-09
2.70366e-07
-1.38028e-09
2.71489e-07
-1.15475e-09
2.72497e-07
-9.30429e-10
2.73386e-07
-7.08413e-10
2.74153e-07
-4.8851e-10
2.74794e-07
-2.67996e-10
2.75306e-07
-4.14773e-11
2.75683e-07
1.96056e-10
2.75916e-07
4.50569e-10
2.75993e-07
7.31493e-10
2.75898e-07
1.05253e-09
2.75602e-07
1.43241e-09
2.75066e-07
1.89897e-09
2.74233e-07
2.49363e-09
2.73017e-07
3.28064e-09
2.71288e-07
4.36756e-09
2.68821e-07
5.94615e-09
2.65361e-07
8.33138e-09
2.60159e-07
1.2245e-08
1.88283e-08
2.53104e-07
9.20395e-10
-3.08909e-09
1.7137e-09
-4.5125e-09
1.7692e-09
-3.76657e-09
1.10025e-09
-2.28239e-09
-1.80792e-10
-6.15255e-10
-1.9912e-09
1.05783e-09
-4.28407e-09
2.66567e-09
-7.03651e-09
4.17456e-09
-1.024e-08
5.57158e-09
-1.38924e-08
6.85877e-09
-1.79948e-08
8.05043e-09
-2.2549e-08
9.16969e-09
-2.75581e-08
1.02442e-08
-3.3026e-08
1.13014e-08
-3.89579e-08
1.23651e-08
-4.53587e-08
1.34527e-08
-5.22309e-08
1.45743e-08
-5.95714e-08
1.57331e-08
-6.73694e-08
1.69271e-08
-7.5604e-08
1.81488e-08
-8.4245e-08
1.93862e-08
-9.32523e-08
2.06229e-08
-1.02577e-07
2.18399e-08
-1.12162e-07
2.30162e-08
-1.21943e-07
2.413e-08
-1.31853e-07
2.516e-08
-1.4182e-07
2.60867e-08
-1.51779e-07
2.6894e-08
-1.61667e-07
2.75683e-08
-1.71425e-07
2.80992e-08
-1.81001e-07
2.84805e-08
-1.9035e-07
2.87096e-08
-1.99434e-07
2.87873e-08
-2.08222e-07
2.87173e-08
-2.16692e-07
2.85057e-08
-2.24826e-07
2.81604e-08
-2.32612e-07
2.76907e-08
-2.40043e-07
2.71068e-08
-2.47115e-07
2.64197e-08
-2.53825e-07
2.56403e-08
-2.60173e-07
2.47792e-08
-2.66161e-07
2.38466e-08
-2.7179e-07
2.28521e-08
-2.77062e-07
2.18045e-08
-2.81978e-07
2.07115e-08
-2.86539e-07
1.95803e-08
-2.90746e-07
1.84168e-08
-2.94599e-07
1.72265e-08
-2.98098e-07
1.60139e-08
-3.01243e-07
1.4783e-08
-3.04033e-07
1.35371e-08
-3.06466e-07
1.22793e-08
-3.08543e-07
1.10121e-08
-3.10261e-07
9.73776e-09
-3.11621e-07
8.45852e-09
-3.12623e-07
7.17631e-09
-3.13267e-07
5.89311e-09
-3.13555e-07
4.61097e-09
-3.13489e-07
3.33212e-09
-3.13072e-07
2.05911e-09
-3.1231e-07
7.94886e-10
-3.11207e-07
-4.57034e-10
-3.09765e-07
-1.69273e-09
-3.07982e-07
-2.9093e-09
-3.05852e-07
-4.10666e-09
-3.0337e-07
-5.28608e-09
-3.00538e-07
-6.4471e-09
-2.97357e-07
-7.58791e-09
-2.93831e-07
-8.70685e-09
-2.89966e-07
-9.80238e-09
-2.85766e-07
-1.0873e-08
-2.81241e-07
-1.19173e-08
-2.76397e-07
-1.29339e-08
-2.71244e-07
-1.39213e-08
-2.65789e-07
-1.48784e-08
-2.60043e-07
-1.5804e-08
-2.54015e-07
-1.66966e-08
-2.47715e-07
-1.75555e-08
-2.41154e-07
-1.83796e-08
-2.34342e-07
-1.91683e-08
-2.27292e-07
-1.99207e-08
-2.20013e-07
-2.06365e-08
-2.12518e-07
-2.13152e-08
-2.04818e-07
-2.19575e-08
-1.96924e-07
-2.25635e-08
-1.88849e-07
-2.31322e-08
-1.80602e-07
-2.36631e-08
-1.72196e-07
-2.41555e-08
-1.63643e-07
-2.46097e-08
-1.54953e-07
-2.50265e-08
-1.4614e-07
-2.54065e-08
-1.37215e-07
-2.57501e-08
-1.28189e-07
-2.60573e-08
-1.19075e-07
-2.63288e-08
-1.09884e-07
-2.65646e-08
-1.00626e-07
-2.67653e-08
-9.13132e-08
-2.69312e-08
-8.19564e-08
-2.70628e-08
-7.25665e-08
-2.71604e-08
-6.31545e-08
-2.72246e-08
-5.37309e-08
-2.72557e-08
-4.43064e-08
-2.72541e-08
-3.48913e-08
-2.72202e-08
-2.54957e-08
-2.7154e-08
-1.61296e-08
-2.70558e-08
-6.80255e-09
-2.69254e-08
2.47576e-09
-2.67631e-08
1.1696e-08
-2.65686e-08
2.08495e-08
-2.63432e-08
2.99283e-08
-2.60893e-08
3.89262e-08
-2.58097e-08
4.78407e-08
-2.5508e-08
5.66661e-08
-2.51865e-08
6.53972e-08
-2.48425e-08
7.40298e-08
-2.44755e-08
8.25562e-08
-2.40898e-08
9.09682e-08
-2.36889e-08
9.9259e-08
-2.3275e-08
1.07422e-07
-2.28492e-08
1.15454e-07
-2.24123e-08
1.23348e-07
-2.19645e-08
1.31102e-07
-2.15065e-08
1.38711e-07
-2.10386e-08
1.46172e-07
-2.05614e-08
1.53482e-07
-2.00757e-08
1.60638e-07
-1.95821e-08
1.67637e-07
-1.90814e-08
1.74478e-07
-1.85746e-08
1.81159e-07
-1.80626e-08
1.87678e-07
-1.75463e-08
1.94033e-07
-1.70265e-08
2.00224e-07
-1.65041e-08
2.0625e-07
-1.598e-08
2.1211e-07
-1.54551e-08
2.17803e-07
-1.49302e-08
2.23331e-07
-1.4406e-08
2.28692e-07
-1.38833e-08
2.33887e-07
-1.33631e-08
2.38916e-07
-1.28459e-08
2.43782e-07
-1.23324e-08
2.48484e-07
-1.18232e-08
2.53024e-07
-1.13188e-08
2.57404e-07
-1.08199e-08
2.61625e-07
-1.03268e-08
2.65688e-07
-9.84014e-09
2.69596e-07
-9.36054e-09
2.73349e-07
-8.88839e-09
2.76949e-07
-8.42411e-09
2.80399e-07
-7.9681e-09
2.83701e-07
-7.52071e-09
2.86856e-07
-7.0822e-09
2.89868e-07
-6.65277e-09
2.92737e-07
-6.23262e-09
2.95467e-07
-5.82202e-09
2.9806e-07
-5.42095e-09
3.00518e-07
-5.02926e-09
3.02844e-07
-4.64673e-09
3.05039e-07
-4.27307e-09
3.07106e-07
-3.90777e-09
3.09046e-07
-3.54996e-09
3.10862e-07
-3.19814e-09
3.12558e-07
-2.85147e-09
3.14135e-07
-2.5089e-09
3.15593e-07
-2.16883e-09
3.16933e-07
-1.82925e-09
3.1815e-07
-1.48676e-09
3.19243e-07
-1.13597e-09
3.20207e-07
-7.69806e-10
3.21035e-07
-3.78761e-10
3.21715e-07
5.00172e-11
3.22232e-07
5.34243e-10
3.22565e-07
1.0987e-09
3.22682e-07
1.78048e-09
3.2254e-07
2.63399e-09
3.22077e-07
3.74293e-09
3.21203e-07
5.24066e-09
3.19788e-07
7.35973e-09
3.17688e-07
1.04298e-08
3.1473e-07
1.52025e-08
2.25374e-08
3.1102e-07
1.43135e-10
-3.23262e-09
-5.75473e-10
-3.79448e-09
-2.11992e-09
-2.22259e-09
-4.24782e-09
-1.54792e-10
-6.82901e-09
1.96561e-09
-9.80607e-09
4.03468e-09
-1.31604e-08
6.01967e-09
-1.68927e-08
7.9067e-09
-2.10138e-08
9.6924e-09
-2.55377e-08
1.13825e-08
-3.04783e-08
1.29908e-08
-3.58457e-08
1.45368e-08
-4.16449e-08
1.60431e-08
-4.78747e-08
1.7531e-08
-5.45275e-08
1.90176e-08
-6.15886e-08
2.05136e-08
-6.90366e-08
2.2022e-08
-7.68423e-08
2.35386e-08
-8.49686e-08
2.50531e-08
-9.33702e-08
2.65502e-08
-1.01995e-07
2.80107e-08
-1.10786e-07
2.94134e-08
-1.19682e-07
3.07357e-08
-1.28622e-07
3.19558e-08
-1.37545e-07
3.30532e-08
-1.46396e-07
3.40106e-08
-1.55124e-07
3.48142e-08
-1.63685e-07
3.54542e-08
-1.72042e-07
3.59245e-08
-1.80165e-07
3.62224e-08
-1.88034e-07
3.63487e-08
-1.95632e-07
3.6307e-08
-2.02948e-07
3.61038e-08
-2.09979e-07
3.57472e-08
-2.1672e-07
3.52469e-08
-2.23174e-07
3.46133e-08
-2.29341e-07
3.38574e-08
-2.35225e-07
3.29903e-08
-2.40828e-07
3.2023e-08
-2.46154e-07
3.09661e-08
-2.51205e-07
2.98295e-08
-2.55981e-07
2.86226e-08
-2.60483e-07
2.73538e-08
-2.64709e-07
2.60308e-08
-2.68659e-07
2.46606e-08
-2.72328e-07
2.32493e-08
-2.75714e-07
2.18023e-08
-2.78812e-07
2.03244e-08
-2.81617e-07
1.88196e-08
-2.84126e-07
1.72917e-08
-2.86333e-07
1.5744e-08
-2.88233e-07
1.41795e-08
-2.89822e-07
1.26011e-08
-2.91096e-07
1.10115e-08
-2.92051e-07
9.41307e-09
-2.92683e-07
7.80851e-09
-2.92991e-07
6.20039e-09
-2.92971e-07
4.59139e-09
-2.92624e-07
2.98437e-09
-2.91947e-07
1.38236e-09
-2.90941e-07
-2.11432e-10
-2.89605e-07
-1.79375e-09
-2.87936e-07
-3.36162e-09
-2.85933e-07
-4.91284e-09
-2.83593e-07
-6.44616e-09
-2.80919e-07
-7.96056e-09
-2.77912e-07
-9.45419e-09
-2.74575e-07
-1.09246e-08
-2.70913e-07
-1.23691e-08
-2.6693e-07
-1.37855e-08
-2.62632e-07
-1.51712e-08
-2.58025e-07
-1.65241e-08
-2.53116e-07
-1.78422e-08
-2.47914e-07
-1.91236e-08
-2.42426e-07
-2.03663e-08
-2.36661e-07
-2.15687e-08
-2.30628e-07
-2.27293e-08
-2.24337e-07
-2.38465e-08
-2.17797e-07
-2.49192e-08
-2.11018e-07
-2.59464e-08
-2.04011e-07
-2.69271e-08
-1.96787e-07
-2.78605e-08
-1.89355e-07
-2.87461e-08
-1.81728e-07
-2.95841e-08
-1.73915e-07
-3.0375e-08
-1.65929e-07
-3.1118e-08
-1.57778e-07
-3.18125e-08
-1.49475e-07
-3.24577e-08
-1.41029e-07
-3.30534e-08
-1.32453e-07
-3.36009e-08
-1.23757e-07
-3.41001e-08
-1.14954e-07
-3.45518e-08
-1.06053e-07
-3.49563e-08
-9.70664e-08
-3.53139e-08
-8.80043e-08
-3.56252e-08
-7.88776e-08
-3.58906e-08
-6.9697e-08
-3.61105e-08
-6.0473e-08
-3.62857e-08
-5.12159e-08
-3.64166e-08
-4.19362e-08
-3.65038e-08
-3.26439e-08
-3.65478e-08
-2.33489e-08
-3.65491e-08
-1.40611e-08
-3.65084e-08
-4.7898e-09
-3.64258e-08
4.45565e-09
-3.63016e-08
1.3666e-08
-3.6136e-08
2.28325e-08
-3.59296e-08
3.19472e-08
-3.56831e-08
4.10023e-08