/*--------------------------------*- C++ -*----------------------------------*\
| =========                 |                                                 |
| \\      /  F ield         | OpenFOAM: The Open Source CFD Toolbox           |
|  \\    /   O peration     | Version:  2312                                  |
|   \\  /    A nd           | Website:  www.openfoam.com                      |
|    \\/     M anipulation  |                                                 |
\*---------------------------------------------------------------------------*/
FoamFile
{
    version     2.0;
    format      ascii;
    arch        "LSB;label=32;scalar=64";
    class       surfaceScalarField;
    location    "200";
    object      phi;
}
// * * * * * * * * * * * * * * * * * * * * * * * * * * * * * * * * * * * * * //

dimensions      [0 3 -1 0 0 0 0];

oriented        oriented;

internalField   nonuniform List<scalar> 
24170
(
1.53242e-06
6.17804e-08
1.447e-06
8.54257e-08
1.37258e-06
7.44138e-08
1.30258e-06
6.99972e-08
1.23847e-06
6.41131e-08
1.18305e-06
5.54211e-08
1.13671e-06
4.63386e-08
1.0984e-06
3.83062e-08
1.06674e-06
3.16669e-08
1.04046e-06
2.62732e-08
1.01857e-06
2.18892e-08
1.00026e-06
1.83139e-08
9.8491e-07
1.53475e-08
9.72112e-07
1.27974e-08
9.61654e-07
1.04579e-08
9.53362e-07
8.29188e-09
9.46954e-07
6.40676e-09
2.23017e-09
9.44724e-07
1.74833e-06
2.20768e-08
1.75312e-06
8.0636e-08
1.74302e-06
8.451e-08
1.72705e-06
8.59696e-08
1.70651e-06
8.46458e-08
1.68301e-06
7.89215e-08
1.65804e-06
7.13113e-08
1.63269e-06
6.36524e-08
1.60784e-06
5.65241e-08
1.58406e-06
5.00527e-08
1.5617e-06
4.42432e-08
1.54097e-06
3.90457e-08
1.52195e-06
3.43646e-08
1.50466e-06
3.00859e-08
1.4891e-06
2.60148e-08
1.47533e-06
2.20657e-08
1.46395e-06
1.77878e-08
1.1253e-08
1.45493e-06
1.83576e-06
1.75745e-08
1.84805e-06
6.83444e-08
1.85522e-06
7.73382e-08
1.86076e-06
8.04361e-08
1.86374e-06
8.16611e-08
1.86367e-06
7.89959e-08
1.86098e-06
7.3993e-08
1.8563e-06
6.83315e-08
1.85016e-06
6.2665e-08
1.84303e-06
5.71885e-08
1.83528e-06
5.19855e-08
1.82725e-06
4.70826e-08
1.81916e-06
4.24477e-08
1.81124e-06
3.80087e-08
1.80363e-06
3.36255e-08
1.79659e-06
2.91053e-08
1.79027e-06
2.41098e-08
1.75777e-08
1.78394e-06
1.96288e-06
1.73852e-08
1.97288e-06
5.83489e-08
1.98013e-06
7.00856e-08
1.98645e-06
7.41206e-08
1.99185e-06
7.62604e-08
1.99582e-06
7.50208e-08
1.99845e-06
7.13642e-08
1.99997e-06
6.68145e-08
2.00056e-06
6.20701e-08
2.0004e-06
5.73471e-08
1.99965e-06
5.27328e-08
1.99847e-06
4.82696e-08
1.99698e-06
4.3939e-08
1.9953e-06
3.96829e-08
1.99354e-06
3.5385e-08
1.99178e-06
3.08616e-08
1.98995e-06
2.59405e-08
2.00489e-08
1.98748e-06
2.10464e-06
1.63114e-08
2.11225e-06
5.07359e-08
2.11851e-06
6.38257e-08
2.12408e-06
6.8555e-08
2.12934e-06
7.09978e-08
2.1339e-06
7.046e-08
2.13766e-06
6.76026e-08
2.14072e-06
6.37524e-08
2.14319e-06
5.9602e-08
2.14516e-06
5.53785e-08
2.14672e-06
5.11736e-08
2.14795e-06
4.7036e-08
2.14893e-06
4.29569e-08
2.14973e-06
3.88884e-08
2.15037e-06
3.47376e-08
2.15086e-06
3.03703e-08
2.15111e-06
2.56989e-08
2.04559e-08
2.1507e-06
2.25611e-06
1.4745e-08
2.26226e-06
4.45854e-08
2.26805e-06
5.80346e-08
2.27333e-06
6.32719e-08
2.27846e-06
6.58735e-08
2.28313e-06
6.57835e-08
2.28722e-06
6.35192e-08
2.29076e-06
6.02062e-08
2.29386e-06
5.65031e-08
2.29659e-06
5.26514e-08
2.29901e-06
4.87543e-08
2.30118e-06
4.48666e-08
2.30314e-06
4.09913e-08
2.30494e-06
3.70929e-08
2.30657e-06
3.31064e-08
2.30799e-06
2.8944e-08
2.30912e-06
2.45736e-08
1.99092e-08
2.30967e-06
2.41791e-06
1.31903e-08
2.42332e-06
3.91845e-08
2.42891e-06
5.24415e-08
2.43411e-06
5.80691e-08
2.43917e-06
6.0817e-08
2.44388e-06
6.1069e-08
2.44811e-06
5.92895e-08
2.45189e-06
5.64297e-08
2.45529e-06
5.3103e-08
2.45838e-06
4.95628e-08
2.4612e-06
4.59252e-08
2.46382e-06
4.22531e-08
2.46625e-06
3.85623e-08
2.46851e-06
3.48326e-08
2.47059e-06
3.10255e-08
2.47244e-06
2.70937e-08
2.47397e-06
2.30426e-08
1.8879e-08
2.475e-06
2.59123e-06
1.17501e-08
2.59612e-06
3.42967e-08
2.60154e-06
4.70184e-08
2.60671e-06
5.2897e-08
2.61176e-06
5.57717e-08
2.61653e-06
5.63012e-08
2.62088e-06
5.49356e-08
2.62483e-06
5.24789e-08
2.62844e-06
4.94933e-08
2.63176e-06
4.62388e-08
2.63485e-06
4.28428e-08
2.63772e-06
3.93774e-08
2.64041e-06
3.58711e-08
2.64292e-06
3.23211e-08
2.64524e-06
2.8712e-08
2.6473e-06
2.50285e-08
2.64905e-06
2.12987e-08
1.75697e-08
2.65035e-06
2.77702e-06
1.03972e-08
2.78144e-06
2.98784e-08
2.78665e-06
4.18087e-08
2.79179e-06
4.77603e-08
2.79685e-06
5.07096e-08
2.80169e-06
5.14603e-08
2.80617e-06
5.04525e-08
2.81029e-06
4.83625e-08
2.81408e-06
4.56984e-08
2.8176e-06
4.272e-08
2.82088e-06
3.95637e-08
2.82395e-06
3.631e-08
2.82682e-06
3.3e-08
2.82949e-06
2.96471e-08
2.83195e-06
2.62556e-08
2.83414e-06
2.28335e-08
2.83602e-06
1.94201e-08
1.60766e-08
2.83751e-06
2.97617e-06
9.11809e-09
2.98015e-06
2.58936e-08
2.98511e-06
3.68492e-08
2.99018e-06
4.26896e-08
2.99525e-06
4.56412e-08
3.00016e-06
4.65502e-08
3.00477e-06
4.58438e-08
3.00904e-06
4.40851e-08
3.01302e-06
4.17261e-08
3.01672e-06
3.90201e-08
3.02017e-06
3.61083e-08
3.0234e-06
3.30781e-08
3.02642e-06
2.99813e-08
3.02922e-06
2.68454e-08
3.03179e-06
2.36904e-08
3.03408e-06
2.0539e-08
3.03607e-06
1.74354e-08
1.44411e-08
3.0377e-06
3.18961e-06
7.91499e-09
3.19321e-06
2.22958e-08
3.1979e-06
3.21563e-08
3.20287e-06
3.77204e-08
3.20791e-06
4.05979e-08
3.21286e-06
4.15974e-08
3.21758e-06
4.11295e-08
3.222e-06
3.96615e-08
3.22614e-06
3.7588e-08
3.23001e-06
3.51495e-08
3.23363e-06
3.24875e-08
3.23701e-06
2.96936e-08
3.24017e-06
2.68276e-08
3.24309e-06
2.39278e-08
3.24575e-06
2.10252e-08
3.24814e-06
1.81513e-08
3.25022e-06
1.53501e-08
1.26781e-08
3.25199e-06
2.87138e-06
6.95073e-09
2.87415e-06
1.95283e-08
2.87791e-06
2.83982e-08
2.88201e-06
3.36161e-08
2.88623e-06
3.63791e-08
2.89042e-06
3.74061e-08
2.89446e-06
3.70884e-08
2.89829e-06
3.58305e-08
2.9019e-06
3.39798e-08
2.90529e-06
3.17603e-08
2.90846e-06
2.93109e-08
2.91143e-06
2.67243e-08
2.9142e-06
2.40646e-08
2.91675e-06
2.13763e-08
2.91908e-06
1.86962e-08
2.92117e-06
1.60599e-08
2.92301e-06
1.35085e-08
1.10941e-08
2.92459e-06
3.50011e-06
5.92182e-09
3.50304e-06
1.65951e-08
3.50711e-06
2.43299e-08
3.51166e-06
2.90595e-08
3.51642e-06
3.16196e-08
3.52121e-06
3.26211e-08
3.52587e-06
3.24232e-08
3.53034e-06
3.13651e-08
3.53457e-06
2.9744e-08
3.53857e-06
2.77634e-08
3.54233e-06
2.55554e-08
3.54584e-06
2.32114e-08
3.54911e-06
2.07969e-08
3.55212e-06
1.83605e-08
3.55488e-06
1.59422e-08
3.55736e-06
1.35787e-08
3.55956e-06
1.1307e-08
9.17303e-09
3.56148e-06
4.26651e-06
4.83698e-09
4.26957e-06
1.35325e-08
4.27391e-06
1.99893e-08
4.2789e-06
2.4074e-08
4.28419e-06
2.63252e-08
4.28958e-06
2.72316e-08
4.2949e-06
2.71066e-08
4.30004e-06
2.62253e-08
4.30495e-06
2.48318e-08
4.30961e-06
2.31042e-08
4.314e-06
2.11637e-08
4.31811e-06
1.90963e-08
4.32194e-06
1.69662e-08
4.32548e-06
1.48223e-08
4.32872e-06
1.27047e-08
4.33165e-06
1.06485e-08
4.33427e-06
8.68512e-09
6.85345e-09
4.33659e-06
5.20074e-06
3.70632e-09
5.2039e-06
1.03721e-08
5.20848e-06
1.54128e-08
5.21386e-06
1.86864e-08
5.21968e-06
2.05076e-08
5.22568e-06
2.12341e-08
5.23166e-06
2.11211e-08
5.23751e-06
2.03817e-08
5.24313e-06
1.92054e-08
5.2485e-06
1.77392e-08
5.25357e-06
1.60882e-08
5.25834e-06
1.43289e-08
5.26279e-06
1.25198e-08
5.2669e-06
1.07064e-08
5.27068e-06
8.92563e-09
5.27412e-06
7.20811e-09
5.27723e-06
5.57934e-09
4.07067e-09
5.28001e-06
6.33956e-06
2.53879e-09
6.34281e-06
7.12089e-09
6.34761e-06
1.06168e-08
6.35338e-06
1.29108e-08
6.35973e-06
1.41665e-08
6.36634e-06
1.46154e-08
6.37302e-06
1.44424e-08
6.3796e-06
1.38e-08
6.38599e-06
1.2823e-08
6.3921e-06
1.16216e-08
6.39791e-06
1.02784e-08
6.40339e-06
8.8555e-09
6.4085e-06
7.40097e-09
6.41326e-06
5.95286e-09
6.41764e-06
4.54147e-09
6.42166e-06
3.19137e-09
6.42532e-06
1.92134e-09
7.5566e-10
6.42863e-06
7.7278e-06
1.32933e-09
7.73118e-06
3.74374e-09
7.73623e-06
5.56214e-09
7.74243e-06
6.70852e-09
7.74935e-06
7.25315e-09
7.75664e-06
7.31695e-09
7.76408e-06
7.00639e-09
7.77147e-06
6.41101e-09
7.77868e-06
5.611e-09
7.78563e-06
4.6745e-09
7.79225e-06
3.65518e-09
7.79851e-06
2.59471e-09
7.80438e-06
1.52615e-09
7.80986e-06
4.75955e-10
7.81494e-06
-5.34782e-10
7.81962e-06
-1.48938e-09
7.82391e-06
-2.37578e-09
-3.17664e-09
7.82785e-06
9.42011e-06
4.15208e-11
9.42373e-06
1.22327e-10
9.4292e-06
8.59272e-11
9.43601e-06
-9.74847e-11
9.44368e-06
-4.14694e-10
9.45184e-06
-8.4334e-10
9.46021e-06
-1.36364e-09
9.46857e-06
-1.95433e-09
9.47677e-06
-2.59265e-09
9.48471e-06
-3.25775e-09
9.49229e-06
-3.93182e-09
9.49949e-06
-4.59943e-09
9.50626e-06
-5.2471e-09
9.5126e-06
-5.86328e-09
9.5185e-06
-6.43842e-09
9.52398e-06
-6.96482e-09
9.52904e-06
-7.43722e-09
-7.84495e-09
9.53371e-06
1.14831e-05
-1.42235e-09
1.14873e-05
-4.03833e-09
1.14936e-05
-6.24349e-09
1.15015e-05
-7.99796e-09
1.15104e-05
-9.33304e-09
1.15199e-05
-1.03437e-08
1.15297e-05
-1.11169e-08
1.15394e-05
-1.17094e-08
1.1549e-05
-1.2164e-08
1.15583e-05
-1.25168e-08
1.15671e-05
-1.27943e-08
1.15756e-05
-1.3013e-08
1.15835e-05
-1.31829e-08
1.15909e-05
-1.331e-08
1.15979e-05
-1.33981e-08
1.16044e-05
-1.34488e-08
1.16104e-05
-1.34637e-08
-1.34384e-08
1.1616e-05
8.40649e-06
-2.56156e-09
8.40972e-06
-7.26748e-09
8.41464e-06
-1.11616e-08
8.42072e-06
-1.40824e-08
8.4275e-06
-1.61151e-08
8.43465e-06
-1.74948e-08
8.44194e-06
-1.83996e-08
8.44917e-06
-1.89403e-08
8.45621e-06
-1.92123e-08
8.463e-06
-1.92987e-08
8.46946e-06
-1.92583e-08
8.47558e-06
-1.91303e-08
8.48133e-06
-1.89403e-08
8.48673e-06
-1.87066e-08
8.49177e-06
-1.84404e-08
8.49647e-06
-1.81495e-08
8.50085e-06
-1.78383e-08
-1.75058e-08
8.50491e-06
7.31837e-06
-3.64307e-09
7.32152e-06
-1.04181e-08
7.32633e-06
-1.59794e-08
7.33218e-06
-1.99289e-08
7.33856e-06
-2.24993e-08
7.3452e-06
-2.41341e-08
7.35188e-06
-2.5082e-08
7.35844e-06
-2.54973e-08
7.36476e-06
-2.55369e-08
7.3708e-06
-2.53324e-08
7.37651e-06
-2.49702e-08
7.38188e-06
-2.45057e-08
7.38692e-06
-2.39778e-08
7.39163e-06
-2.3413e-08
7.39602e-06
-2.28286e-08
7.4001e-06
-2.2235e-08
7.4039e-06
-2.16385e-08
-2.10395e-08
7.40743e-06
6.37105e-06
-4.62815e-09
6.37425e-06
-1.36206e-08
6.3792e-06
-2.09245e-08
6.38497e-06
-2.57042e-08
6.3911e-06
-2.8627e-08
6.39738e-06
-3.04139e-08
6.40361e-06
-3.13141e-08
6.40963e-06
-3.15204e-08
6.41537e-06
-3.12707e-08
6.42078e-06
-3.07453e-08
6.42586e-06
-3.00499e-08
6.43061e-06
-2.92521e-08
6.43503e-06
-2.84003e-08
6.43914e-06
-2.7527e-08
6.44296e-06
-2.66521e-08
6.44652e-06
-2.57869e-08
6.44981e-06
-2.49376e-08
-2.41043e-08
6.45288e-06
5.54624e-06
-5.4073e-09
5.54956e-06
-1.69357e-08
5.55477e-06
-2.61368e-08
5.56052e-06
-3.14587e-08
5.56644e-06
-3.45458e-08
5.57242e-06
-3.63883e-08
5.57824e-06
-3.714e-08
5.58378e-06
-3.70568e-08
5.58898e-06
-3.6474e-08
5.59384e-06
-3.56083e-08
5.59837e-06
-3.45747e-08
5.60257e-06
-3.34495e-08
5.60645e-06
-3.22881e-08
5.61005e-06
-3.11266e-08
5.61339e-06
-2.99853e-08
5.61647e-06
-2.88749e-08
5.61934e-06
-2.78001e-08
-2.67598e-08
5.62199e-06
4.82811e-06
-5.90562e-09
4.8316e-06
-2.04255e-08
4.83699e-06
-3.15341e-08
4.84262e-06
-3.70862e-08
4.84836e-06
-4.02862e-08
4.85409e-06
-4.21233e-08
4.85957e-06
-4.26164e-08
4.86468e-06
-4.21673e-08
4.86942e-06
-4.12173e-08
4.87381e-06
-3.99982e-08
4.87786e-06
-3.86241e-08
4.88159e-06
-3.71766e-08
4.88502e-06
-3.57166e-08
4.88817e-06
-3.42811e-08
4.89108e-06
-3.28899e-08
4.89375e-06
-3.15522e-08
4.89622e-06
-3.02702e-08
-2.90396e-08
4.8985e-06
4.20248e-06
-5.71112e-09
4.20659e-06
-2.45388e-08
4.212e-06
-3.69406e-08
4.21734e-06
-4.24258e-08
4.22296e-06
-4.59056e-08
4.22858e-06
-4.77418e-08
4.23384e-06
-4.78794e-08
4.23866e-06
-4.69892e-08
4.24307e-06
-4.56239e-08
4.24709e-06
-4.40165e-08
4.25074e-06
-4.22767e-08
4.25405e-06
-4.04911e-08
4.25706e-06
-3.87229e-08
4.25979e-06
-3.70084e-08
4.26226e-06
-3.5366e-08
4.26451e-06
-3.38036e-08
4.26656e-06
-3.23216e-08
-3.0913e-08
4.26844e-06
3.65584e-06
-2.90602e-09
3.66189e-06
-3.05933e-08
3.6679e-06
-4.29466e-08
3.67336e-06
-4.78924e-08
3.6791e-06
-5.16474e-08
3.6847e-06
-5.3335e-08
3.6898e-06
-5.2982e-08
3.69438e-06
-5.15738e-08
3.69849e-06
-4.97291e-08
3.70214e-06
-4.76667e-08
3.70536e-06
-4.54996e-08
3.70819e-06
-4.33221e-08
3.71067e-06
-4.12005e-08
3.71283e-06
-3.91688e-08
3.71471e-06
-3.72453e-08
3.71634e-06
-3.54366e-08
3.71776e-06
-3.37397e-08
-3.21493e-08
3.719e-06
3.17742e-06
4.70603e-09
3.18642e-06
-3.95886e-08
3.19424e-06
-5.07738e-08
3.20127e-06
-5.49181e-08
3.20802e-06
-5.83963e-08
3.2139e-06
-5.92152e-08
3.21881e-06
-5.78953e-08
3.22292e-06
-5.56868e-08
3.22635e-06
-5.31569e-08
3.22915e-06
-5.04662e-08
3.23138e-06
-4.77253e-08
3.23309e-06
-4.50341e-08
3.23435e-06
-4.24595e-08
3.23521e-06
-4.00305e-08
3.23573e-06
-3.77639e-08
3.23596e-06
-3.56676e-08
3.23595e-06
-3.37334e-08
-3.19826e-08
3.23578e-06
2.76711e-06
1.0327e-08
2.77706e-06
-4.95353e-08
2.78525e-06
-5.89697e-08
2.79389e-06
-6.35555e-08
2.8019e-06
-6.64018e-08
2.80797e-06
-6.52886e-08
2.81196e-06
-6.18875e-08
2.81416e-06
-5.78881e-08
2.81488e-06
-5.3878e-08
2.81439e-06
-4.99709e-08
2.8129e-06
-4.62422e-08
2.81063e-06
-4.27628e-08
2.80774e-06
-3.95656e-08
2.80436e-06
-3.66531e-08
2.80061e-06
-3.40166e-08
2.7966e-06
-3.16539e-08
2.79241e-06
-2.95452e-08
-2.77461e-08
2.78817e-06
2.44887e-06
-2.47413e-08
2.45701e-06
-5.76761e-08
2.45647e-06
-5.84295e-08
2.45387e-06
-6.09498e-08
2.44872e-06
-6.12525e-08
2.44055e-06
-5.71212e-08
2.42959e-06
-5.09305e-08
2.41646e-06
-4.47617e-08
2.40184e-06
-3.92511e-08
2.38631e-06
-3.44415e-08
2.37036e-06
-3.02959e-08
2.35435e-06
-2.6755e-08
2.33853e-06
-2.37432e-08
2.32306e-06
-2.11817e-08
2.30805e-06
-1.9004e-08
2.29356e-06
-1.7168e-08
2.27966e-06
-1.56427e-08
-1.45878e-08
2.2665e-06
2.0766e-06
2.01892e-06
1.96049e-06
1.89954e-06
1.83829e-06
1.78117e-06
1.73024e-06
1.68548e-06
1.64622e-06
1.61178e-06
1.58149e-06
1.55473e-06
1.53099e-06
1.50981e-06
1.4908e-06
1.47363e-06
1.45799e-06
1.4434e-06
3.29962e-09
-3.30595e-09
9.31144e-09
-6.02251e-09
1.58908e-08
-6.58889e-09
2.18369e-08
-5.95517e-09
2.65045e-08
-4.67613e-09
2.96173e-08
-3.12129e-09
3.11323e-08
-1.52341e-09
3.11425e-08
-1.90105e-11
2.98375e-08
1.29622e-09
2.74571e-08
2.37115e-09
2.42315e-08
3.21629e-09
2.03486e-08
3.87297e-09
1.59471e-08
4.39186e-09
1.11174e-08
4.81947e-09
5.91596e-09
5.19145e-09
3.77006e-10
5.52844e-09
-5.51708e-09
5.8845e-09
-1.18155e-08
6.28816e-09
-1.85506e-08
6.72577e-09
-2.57771e-08
7.21611e-09
-3.35546e-08
7.76827e-09
-4.19515e-08
8.38571e-09
-5.10296e-08
9.0683e-09
-6.08557e-08
9.8139e-09
-7.14845e-08
1.06186e-08
-8.29743e-08
1.1477e-08
-9.53662e-08
1.23819e-08
-1.08703e-07
1.33244e-08
-1.23007e-07
1.42942e-08
-1.383e-07
1.52805e-08
-1.5458e-07
1.62722e-08
-1.71848e-07
1.72567e-08
-1.90075e-07
1.82201e-08
-2.09234e-07
1.91503e-08
-2.29277e-07
2.00374e-08
-2.50158e-07
2.08724e-08
-2.71811e-07
2.16483e-08
-2.94177e-07
2.23589e-08
-3.17181e-07
2.2999e-08
-3.40754e-07
2.35663e-08
-3.6482e-07
2.40621e-08
-3.89316e-07
2.44886e-08
-4.14168e-07
2.48494e-08
-4.39323e-07
2.51483e-08
-4.64715e-07
2.53899e-08
-4.90299e-07
2.55784e-08
-5.1602e-07
2.57188e-08
-5.41841e-07
2.58153e-08
-5.67716e-07
2.58724e-08
-5.93616e-07
2.58936e-08
-6.19502e-07
2.58828e-08
-6.45353e-07
2.58426e-08
-6.71134e-07
2.5776e-08
-6.96827e-07
2.56847e-08
-7.22403e-07
2.55707e-08
-7.47847e-07
2.54347e-08
-7.7313e-07
2.52779e-08
-7.9824e-07
2.51004e-08
-8.23147e-07
2.49026e-08
-8.4784e-07
2.46839e-08
-8.72289e-07
2.44445e-08
-8.9648e-07
2.41833e-08
-9.20383e-07
2.39001e-08
-9.43983e-07
2.35931e-08
-9.67247e-07
2.32618e-08
-9.90157e-07
2.29041e-08
-1.01268e-06
2.25193e-08
-1.03479e-06
2.21052e-08
-1.05645e-06
2.16616e-08
-1.07764e-06
2.11867e-08
-1.09832e-06
2.068e-08
-1.11847e-06
2.01393e-08
-1.13803e-06
1.95632e-08
-1.15699e-06
1.89489e-08
-1.17529e-06
1.82966e-08
-1.1929e-06
1.76082e-08
-1.2098e-06
1.68933e-08
-1.22597e-06
1.61666e-08
-1.24141e-06
1.54416e-08
-1.25613e-06
1.47109e-08
-1.2701e-06
1.39629e-08
-1.28329e-06
1.31928e-08
-1.29569e-06
1.23973e-08
-1.30727e-06
1.15738e-08
-1.31799e-06
1.07216e-08
-1.32784e-06
9.83875e-09
-1.33676e-06
8.92464e-09
-1.34474e-06
7.97697e-09
-1.35174e-06
6.99356e-09
-1.35771e-06
5.96944e-09
-1.36261e-06
4.89937e-09
-1.3664e-06
3.77491e-09
-1.36899e-06
2.58756e-09
-1.37034e-06
1.33557e-09
-1.37042e-06
6.35498e-11
-1.36933e-06
-1.09793e-09
-1.36721e-06
-2.13657e-09
-1.36408e-06
-3.14444e-09
-1.35995e-06
-4.13981e-09
-1.35483e-06
-5.13161e-09
-1.34872e-06
-6.11969e-09
-1.34162e-06
-7.10295e-09
-1.33355e-06
-8.07921e-09
-1.32451e-06
-9.04617e-09
-1.3145e-06
-1.00018e-08
-1.30356e-06
-1.09435e-08
-1.29169e-06
-1.18696e-08
-1.27891e-06
-1.27769e-08
-1.26524e-06
-1.36642e-08
-1.25071e-06
-1.45282e-08
-1.23534e-06
-1.53681e-08
-1.21916e-06
-1.61806e-08
-1.2022e-06
-1.69651e-08
-1.18449e-06
-1.77187e-08
-1.16605e-06
-1.84413e-08
-1.14693e-06
-1.91305e-08
-1.12715e-06
-1.97861e-08
-1.10676e-06
-2.0406e-08
-1.08579e-06
-2.09905e-08
-1.06426e-06
-2.15388e-08
-1.04223e-06
-2.20515e-08
-1.01973e-06
-2.25277e-08
-9.96779e-07
-2.29704e-08
-9.73423e-07
-2.3385e-08
-9.49683e-07
-2.37717e-08
-9.25594e-07
-2.41252e-08
-9.01187e-07
-2.44442e-08
-8.76494e-07
-2.47329e-08
-8.5154e-07
-2.49931e-08
-8.26353e-07
-2.52292e-08
-8.0095e-07
-2.54404e-08
-7.75358e-07
-2.56315e-08
-7.49587e-07
-2.58012e-08
-7.2366e-07
-2.59561e-08
-6.9758e-07
-2.60942e-08
-6.71365e-07
-2.62234e-08
-6.45012e-07
-2.63399e-08
-6.18531e-07
-2.64512e-08
-5.91915e-07
-2.65549e-08
-5.65172e-07
-2.66605e-08
-5.38301e-07
-2.67714e-08
-5.11298e-07
-2.6895e-08
-4.84153e-07
-2.70345e-08
-4.56846e-07
-2.71916e-08
-4.29363e-07
-2.73663e-08
-4.01683e-07
-2.75599e-08
-3.73789e-07
-2.77731e-08
-3.45658e-07
-2.80076e-08
-3.17271e-07
-2.82632e-08
-2.88602e-07
-2.85414e-08
-2.59632e-07
-2.88429e-08
-2.30335e-07
-2.91666e-08
-2.0069e-07
-2.95137e-08
-1.70673e-07
-2.98829e-08
-1.4027e-07
-3.0269e-08
-1.09448e-07
-3.06856e-08
-7.82133e-08
-3.11002e-08
-4.66083e-08
-3.14705e-08
-1.47361e-08
-3.17415e-08
1.73861e-08
-3.1995e-08
4.98943e-08
-3.23902e-08
8.28892e-08
-3.2884e-08
1.16408e-07
-3.34175e-08
1.50474e-07
-3.39707e-08
1.85086e-07
-3.45259e-08
2.20228e-07
-3.50628e-08
2.55864e-07
-3.55646e-08
2.91943e-07
-3.60126e-08
3.28392e-07
-3.63906e-08
3.65121e-07
-3.66763e-08
4.02012e-07
-3.68446e-08
4.3892e-07
-3.68655e-08
4.75656e-07
-3.67014e-08
5.11974e-07
-3.62879e-08
5.4752e-07
-3.55221e-08
5.8174e-07
-3.42025e-08
6.1354e-07
-3.179e-08
6.40695e-07
-2.71477e-08
6.56436e-07
-1.57355e-08
1.6689e-08
6.39761e-07
4.94035e-09
-8.25403e-09
1.01085e-08
-1.12023e-08
1.36085e-08
-1.00969e-08
1.54075e-08
-7.76073e-09
1.57542e-08
-5.02844e-09
1.48392e-08
-2.21183e-09
1.27947e-08
5.15905e-10
9.7218e-09
3.04849e-09
5.6882e-09
5.32456e-09
7.35383e-10
7.31833e-09
-5.09101e-09
9.03734e-09
-1.17407e-08
1.05171e-08
-1.91632e-08
1.18092e-08
-2.73203e-08
1.29712e-08
-3.61915e-08
1.40578e-08
-4.5785e-08
1.51169e-08
-5.60949e-08
1.61898e-08
-6.71204e-08
1.73088e-08
-7.88953e-08
1.84962e-08
-9.14527e-08
1.97684e-08
-1.04822e-07
2.11335e-08
-1.19034e-07
2.25917e-08
-1.34107e-07
2.41369e-08
-1.50058e-07
2.57586e-08
-1.66887e-07
2.74427e-08
-1.84588e-07
2.91721e-08
-2.0314e-07
3.09279e-08
-2.22511e-07
3.26895e-08
-2.42658e-07
3.44356e-08
-2.63529e-07
3.61455e-08
-2.85062e-07
3.77998e-08
-3.07191e-07
3.93802e-08
-3.29843e-07
4.08673e-08
-3.52942e-07
4.22452e-08
-3.76412e-07
4.35033e-08
-4.00179e-07
4.46345e-08
-4.24169e-07
4.56354e-08
-4.48321e-07
4.65066e-08
-4.72575e-07
4.72497e-08
-4.96881e-07
4.78682e-08
-5.21189e-07
4.83675e-08
-5.4546e-07
4.87556e-08
-5.69655e-07
4.90413e-08
-5.93743e-07
4.92337e-08
-6.17698e-07
4.93418e-08
-6.41496e-07
4.93742e-08
-6.65119e-07
4.93393e-08
-6.8855e-07
4.92444e-08
-7.11776e-07
4.90961e-08
-7.34786e-07
4.89002e-08
-7.57568e-07
4.86615e-08
-7.80113e-07
4.83839e-08
-8.02411e-07
4.80705e-08
-8.24454e-07
4.77235e-08
-8.46232e-07
4.73445e-08
-8.67737e-07
4.69342e-08
-8.88956e-07
4.64931e-08
-9.09881e-07
4.60207e-08
-9.30499e-07
4.55164e-08
-9.50799e-07
4.4979e-08
-9.70766e-07
4.44076e-08
-9.90387e-07
4.38002e-08
-1.00965e-06
4.31554e-08
-1.02853e-06
4.2471e-08
-1.04701e-06
4.17451e-08
-1.06509e-06
4.09755e-08
-1.08273e-06
4.01604e-08
-1.09993e-06
3.9298e-08
-1.11665e-06
3.83868e-08
-1.13289e-06
3.74251e-08
-1.14863e-06
3.64117e-08
-1.16384e-06
3.53448e-08
-1.1785e-06
3.42238e-08
-1.1926e-06
3.30482e-08
-1.20613e-06
3.18204e-08
-1.21907e-06
3.0545e-08
-1.2314e-06
2.92292e-08
-1.24312e-06
2.78796e-08
-1.25418e-06
2.64981e-08
-1.26455e-06
2.50795e-08
-1.27421e-06
2.36185e-08
-1.28313e-06
2.21118e-08
-1.29129e-06
2.05572e-08
-1.29867e-06
1.89531e-08
-1.30525e-06
1.72993e-08
-1.31101e-06
1.55955e-08
-1.31593e-06
1.38418e-08
-1.31999e-06
1.20387e-08
-1.32319e-06
1.01867e-08
-1.32551e-06
8.28726e-09
-1.32695e-06
6.34253e-09
-1.32754e-06
4.35869e-09
-1.32731e-06
2.34818e-09
-1.32632e-06
3.34498e-10
-1.32461e-06
-1.65085e-09
-1.32211e-06
-3.61144e-09
-1.31868e-06
-5.57055e-09
-1.3143e-06
-7.53077e-09
-1.30896e-06
-9.48972e-09
-1.30265e-06
-1.14467e-08
-1.29538e-06
-1.33983e-08
-1.28715e-06
-1.53406e-08
-1.27796e-06
-1.7269e-08
-1.26783e-06
-1.9179e-08
-1.25676e-06
-2.10659e-08
-1.24478e-06
-2.29251e-08
-1.23189e-06
-2.4752e-08
-1.21813e-06
-2.65422e-08
-1.2035e-06
-2.82912e-08
-1.18803e-06
-2.99947e-08
-1.17175e-06
-3.16488e-08
-1.15468e-06
-3.32494e-08
-1.13685e-06
-3.47935e-08
-1.1183e-06
-3.62774e-08
-1.09904e-06
-3.76988e-08
-1.07913e-06
-3.9055e-08
-1.05857e-06
-4.03443e-08
-1.03742e-06
-4.15642e-08
-1.01571e-06
-4.27144e-08
-9.93464e-07
-4.3794e-08
-9.70724e-07
-4.48038e-08
-9.4752e-07
-4.57441e-08
-9.23888e-07
-4.66179e-08
-8.99859e-07
-4.74314e-08
-8.75459e-07
-4.81906e-08
-8.50718e-07
-4.88871e-08
-8.25665e-07
-4.95198e-08
-8.00326e-07
-5.0095e-08
-7.74726e-07
-5.06173e-08
-7.48887e-07
-5.10912e-08
-7.22831e-07
-5.15204e-08
-6.96573e-07
-5.19096e-08
-6.70131e-07
-5.22626e-08
-6.43515e-07
-5.25857e-08
-6.16736e-07
-5.2883e-08
-5.898e-07
-5.31613e-08
-5.62709e-07
-5.34239e-08
-5.35463e-07
-5.36754e-08
-5.0806e-07
-5.39221e-08
-4.80498e-07
-5.41718e-08
-4.52777e-07
-5.44371e-08
-4.24886e-07
-5.47249e-08
-3.96815e-07
-5.5046e-08
-3.68543e-07
-5.53999e-08
-3.40054e-07
-5.57938e-08
-3.11323e-07
-5.62251e-08
-2.8233e-07
-5.67014e-08
-2.5305e-07
-5.72206e-08
-2.2346e-07
-5.77885e-08
-1.93531e-07
-5.84024e-08
-1.63238e-07
-5.90693e-08
-1.32553e-07
-5.97826e-08
-1.0145e-07
-6.05486e-08
-6.99029e-08
-6.13604e-08
-3.78949e-08
-6.2209e-08
-5.43475e-09
-6.30767e-08
2.7484e-08
-6.3953e-08
6.09191e-08
-6.48409e-08
9.49636e-08
-6.57252e-08
1.29649e-07
-6.66219e-08
1.64904e-07
-6.75891e-08
2.00687e-07
-6.8614e-08
2.36988e-07
-6.96696e-08
2.73794e-07
-7.07297e-08
3.11077e-07
-7.17663e-08
3.48802e-07
-7.27473e-08
3.86916e-07
-7.36426e-08
4.25358e-07
-7.44214e-08
4.64049e-07
-7.50512e-08
5.02895e-07
-7.54953e-08
5.4178e-07
-7.57066e-08
5.80564e-07
-7.56291e-08
6.19064e-07
-7.51844e-08
6.57042e-07
-7.4253e-08
6.94156e-07
-7.26264e-08
7.29892e-07
-6.99334e-08
7.63364e-07
-6.52597e-08
7.93227e-07
-5.70126e-08
8.17462e-07
-3.99725e-08
-1.29319e-09
8.35446e-07
3.33486e-09
-1.15952e-08
4.98133e-09
-1.28574e-08
4.72553e-09
-9.84654e-09
3.04548e-09
-6.08506e-09
2.75676e-10
-2.26226e-09
-3.39321e-09
1.45358e-09
-7.8638e-09
4.98332e-09
-1.30949e-08
8.27628e-09
-1.90772e-08
1.13038e-08
-2.5819e-08
1.40569e-08
-3.3332e-08
1.65472e-08
-4.16248e-08
1.88066e-08
-5.06997e-08
2.08812e-08
-6.05565e-08
2.28248e-08
-7.11934e-08
2.46918e-08
-8.26112e-08
2.65316e-08
-9.48089e-08
2.83848e-08
-1.07785e-07
3.02821e-08
-1.21536e-07
3.22445e-08
-1.36054e-07
3.42835e-08
-1.51324e-07
3.64014e-08
-1.67328e-07
3.85922e-08
-1.84037e-07
4.08432e-08
-2.01418e-07
4.31363e-08
-2.19428e-07
4.54497e-08
-2.38019e-07
4.77594e-08
-2.57135e-07
5.00404e-08
-2.76716e-07
5.22677e-08
-2.96701e-07
5.44169e-08
-3.17024e-07
5.64645e-08
-3.37616e-07
5.83885e-08
-3.58411e-07
6.01724e-08
-3.79353e-07
6.18057e-08
-4.00392e-07
6.32807e-08
-4.21483e-07
6.45924e-08
-4.42591e-07
6.57387e-08
-4.63679e-07
6.67216e-08
-4.84722e-07
6.75466e-08
-5.05696e-07
6.82211e-08
-5.26584e-07
6.87534e-08
-5.47372e-07
6.91527e-08
-5.68049e-07
6.94298e-08
-5.88605e-07
6.95956e-08
-6.09035e-07
6.96613e-08
-6.29332e-07
6.9637e-08
-6.49492e-07
6.95326e-08
-6.6951e-07
6.93565e-08
-6.89384e-07
6.91165e-08
-7.09109e-07
6.88192e-08
-7.2868e-07
6.847e-08
-7.48094e-07
6.80732e-08
-7.67345e-07
6.76323e-08
-7.86426e-07
6.71496e-08
-8.05332e-07
6.66267e-08
-8.24054e-07
6.6064e-08
-8.42584e-07
6.54617e-08
-8.60913e-07
6.48191e-08
-8.7903e-07
6.41349e-08
-8.96924e-07
6.34076e-08
-9.14584e-07
6.26351e-08
-9.31994e-07
6.18153e-08
-9.49143e-07
6.09456e-08
-9.66013e-07
6.00235e-08
-9.82591e-07
5.90461e-08
-9.98859e-07
5.80107e-08
-1.0148e-06
5.69147e-08
-1.0304e-06
5.57555e-08
-1.04563e-06
5.45308e-08
-1.06049e-06
5.32387e-08
-1.07494e-06
5.18772e-08
-1.08897e-06
5.04448e-08
-1.10257e-06
4.89399e-08
-1.11571e-06
4.73619e-08
-1.12837e-06
4.57109e-08
-1.14054e-06
4.39885e-08
-1.1522e-06
4.21977e-08
-1.16331e-06
4.03424e-08
-1.17386e-06
3.84251e-08
-1.18381e-06
3.64455e-08
-1.19313e-06
3.44009e-08
-1.2018e-06
3.22887e-08
-1.2098e-06
3.01071e-08
-1.2171e-06
2.78551e-08
-1.22368e-06
2.55326e-08
-1.22952e-06
2.31401e-08
-1.23461e-06
2.06789e-08
-1.23892e-06
1.8151e-08
-1.24244e-06
1.55589e-08
-1.24516e-06
1.29064e-08
-1.24707e-06
1.01981e-08
-1.24817e-06
7.44088e-09
-1.24846e-06
4.64446e-09
-1.24794e-06
1.82162e-09
-1.2466e-06
-1.01183e-09
-1.24441e-06
-3.84735e-09
-1.24133e-06
-6.69388e-09
-1.23735e-06
-9.55982e-09
-1.23244e-06
-1.2439e-08
-1.22661e-06
-1.53251e-08
-1.21985e-06
-1.82116e-08
-1.21216e-06
-2.10918e-08
-1.20354e-06
-2.39588e-08
-1.19401e-06
-2.68055e-08
-1.18356e-06
-2.9625e-08
-1.17222e-06
-3.24099e-08
-1.15999e-06
-3.51539e-08
-1.14689e-06
-3.78496e-08
-1.13294e-06
-4.04907e-08
-1.11816e-06
-4.30704e-08
-1.10257e-06
-4.55826e-08
-1.08619e-06
-4.80213e-08
-1.06906e-06
-5.03812e-08
-1.0512e-06
-5.26569e-08
-1.03263e-06
-5.48442e-08
-1.0134e-06
-5.69389e-08
-9.93518e-07
-5.89378e-08
-9.73029e-07
-6.08377e-08
-9.51962e-07
-6.26366e-08
-9.30349e-07
-6.4333e-08
-9.08223e-07
-6.59265e-08
-8.85617e-07
-6.74179e-08
-8.62562e-07
-6.88082e-08
-8.3909e-07
-7.01004e-08
-8.15231e-07
-7.13017e-08
-7.91014e-07
-7.24212e-08
-7.66463e-07
-7.34528e-08
-7.41604e-07
-7.43944e-08
-7.1646e-07
-7.52543e-08
-6.91056e-07
-7.60387e-08
-6.65409e-07
-7.67534e-08
-6.39541e-07
-7.74049e-08
-6.13466e-07
-7.79996e-08
-5.87197e-07
-7.8545e-08
-5.60744e-07
-7.90487e-08
-5.34115e-07
-7.9519e-08
-5.07314e-07
-7.99639e-08
-4.80342e-07
-8.03906e-08
-4.53197e-07
-8.08058e-08
-4.25875e-07
-8.12191e-08
-3.98375e-07
-8.16423e-08
-3.70689e-07
-8.20892e-08
-3.4281e-07
-8.25727e-08
-3.14722e-07
-8.31023e-08
-2.86408e-07
-8.36846e-08
-2.57847e-07
-8.43248e-08
-2.29017e-07
-8.50264e-08
-1.99894e-07
-8.5794e-08
-1.70456e-07
-8.66317e-08
-1.40674e-07
-8.75418e-08
-1.10523e-07
-8.85261e-08
-7.99746e-08
-8.95892e-08
-4.90033e-08
-9.07273e-08
-1.75878e-08
-9.19365e-08
1.42893e-08
-9.32114e-08
4.66548e-08
-9.45479e-08
7.95404e-08
-9.59376e-08
1.12981e-07
-9.73686e-08
1.46998e-07
-9.88346e-08
1.81618e-07
-1.00323e-07
2.16857e-07
-1.01839e-07
2.52685e-07
-1.03395e-07
2.89066e-07
-1.04975e-07
3.25971e-07
-1.06555e-07
3.63365e-07
-1.08105e-07
4.01207e-07
-1.0959e-07
4.39448e-07
-1.10971e-07
4.78029e-07
-1.12207e-07
5.1688e-07
-1.13257e-07
5.55917e-07
-1.14073e-07
5.95042e-07
-1.14607e-07
6.3414e-07
-1.14791e-07
6.7307e-07
-1.14546e-07
7.11657e-07
-1.1376e-07
7.49677e-07
-1.12261e-07
7.86822e-07
-1.09762e-07
8.22657e-07
-1.0576e-07
8.56586e-07
-9.91809e-08
8.87817e-07
-8.82376e-08
9.16082e-07
-6.82304e-08
-2.9705e-08
9.44505e-07
4.90355e-10
-1.20908e-08
-1.4461e-09
-1.09279e-08
-4.78802e-09
-6.50889e-09
-9.04487e-09
-1.83152e-09
-1.40125e-08
2.70264e-09
-1.95973e-08
7.03578e-09
-2.57639e-08
1.11475e-08
-3.2512e-08
1.50218e-08
-3.98603e-08
1.86498e-08
-4.7839e-08
2.2033e-08
-5.64801e-08
2.5186e-08
-6.58122e-08
2.81362e-08
-7.5855e-08
3.09216e-08
-8.66188e-08
3.35861e-08
-9.8104e-08
3.61749e-08
-1.10303e-07
3.87288e-08
-1.23202e-07
4.12815e-08
-1.3678e-07
4.38574e-08
-1.51008e-07
4.6471e-08
-1.65854e-07
4.91272e-08
-1.81277e-07
5.18226e-08
-1.97233e-07
5.45458e-08
-2.13671e-07
5.72797e-08
-2.3054e-07
6.00028e-08
-2.47783e-07
6.26908e-08
-2.65345e-07
6.53185e-08
-2.83167e-07
6.78608e-08
-3.01196e-07
7.02939e-08
-3.19378e-07
7.2596e-08
-3.37665e-07
7.47485e-08
-3.56015e-07
7.67368e-08
-3.74397e-07
7.85512e-08
-3.92779e-07
8.0186e-08
-4.1114e-07
8.1639e-08
-4.29461e-07
8.29105e-08
-4.47728e-07
8.40034e-08
-4.65932e-07
8.49233e-08
-4.84065e-07
8.56779e-08
-5.02123e-07
8.62769e-08
-5.20103e-07
8.67311e-08
-5.38005e-07
8.70525e-08
-5.5583e-07
8.72527e-08
-5.73579e-07
8.73427e-08
-5.91252e-07
8.73331e-08
-6.0885e-07
8.72336e-08
-6.26372e-07
8.70533e-08
-6.43817e-07
8.67998e-08
-6.61182e-07
8.64801e-08
-6.78463e-07
8.60998e-08
-6.95658e-07
8.56635e-08
-7.12761e-07
8.51744e-08
-7.29765e-07
8.46351e-08
-7.46664e-07
8.40471e-08
-7.63449e-07
8.34107e-08
-7.80113e-07
8.2726e-08
-7.96645e-07
8.19918e-08
-8.13034e-07
8.12066e-08
-8.2927e-07
8.03684e-08
-8.45339e-07
7.94746e-08
-8.61229e-07
7.85224e-08
-8.76924e-07
7.75088e-08
-8.92412e-07
7.64304e-08
-9.07674e-07
7.52839e-08
-9.22696e-07
7.40657e-08
-9.3746e-07
7.27726e-08
-9.51949e-07
7.14012e-08
-9.66143e-07
6.99483e-08
-9.80025e-07
6.84112e-08
-9.93575e-07
6.67872e-08
-1.00677e-06
6.50741e-08
-1.0196e-06
6.32698e-08
-1.03203e-06
6.13728e-08
-1.04405e-06
5.93821e-08
-1.05564e-06
5.72972e-08
-1.06677e-06
5.51189e-08
-1.07742e-06
5.28485e-08
-1.08757e-06
5.04876e-08
-1.09718e-06
4.80371e-08
-1.10624e-06
4.54967e-08
-1.1147e-06
4.2865e-08
-1.12255e-06
4.01409e-08
-1.12977e-06
3.73238e-08
-1.13633e-06
3.44139e-08
-1.14221e-06
3.1412e-08
-1.14739e-06
2.83199e-08
-1.15185e-06
2.514e-08
-1.15558e-06
2.18759e-08
-1.15855e-06
1.85317e-08
-1.16076e-06
1.51128e-08
-1.16219e-06
1.16261e-08
-1.16283e-06
8.07902e-09
-1.16267e-06
4.48155e-09
-1.16169e-06
8.44078e-10
-1.15989e-06
-2.82341e-09
-1.15722e-06
-6.51651e-09
-1.15368e-06
-1.02373e-08
-1.14926e-06
-1.39857e-08
-1.14395e-06
-1.77543e-08
-1.13774e-06
-2.15345e-08
-1.13064e-06
-2.53167e-08
-1.12264e-06
-2.90917e-08
-1.11375e-06
-3.28497e-08
-1.10397e-06
-3.65813e-08
-1.09332e-06
-4.02771e-08
-1.0818e-06
-4.39278e-08
-1.06943e-06
-4.75242e-08
-1.05622e-06
-5.10572e-08
-1.04219e-06