/*--------------------------------*- C++ -*----------------------------------*\
| =========                 |                                                 |
| \\      /  F ield         | OpenFOAM: The Open Source CFD Toolbox           |
|  \\    /   O peration     | Version:  2312                                  |
|   \\  /    A nd           | Website:  www.openfoam.com                      |
|    \\/     M anipulation  |                                                 |
\*---------------------------------------------------------------------------*/
FoamFile
{
    version     2.0;
    format      ascii;
    arch        "LSB;label=32;scalar=64";
    class       volVectorField;
    location    "200";
    object      U;
}
// * * * * * * * * * * * * * * * * * * * * * * * * * * * * * * * * * * * * * //

dimensions      [0 1 -1 0 0 0 0];

internalField   nonuniform List<vector> 
12225
(
(4.84801 -0.821833 0)
(4.65544 -0.673001 0)
(4.43862 -0.378842 0)
(4.20056 -0.186339 0)
(3.97975 -0.0822544 0)
(3.7912 -0.0311117 0)
(3.63279 -0.00787799 0)
(3.50091 0.00207486 0)
(3.39178 0.00580085 0)
(3.30152 0.00672239 0)
(3.22659 0.00643716 0)
(3.16402 0.00568997 0)
(3.11154 0.00481437 0)
(3.06757 0.00387104 0)
(3.03105 0.00296357 0)
(3.00234 0.00146533 0)
(2.9767 0.00303785 0)
(2.96813 -0.0155265 0)
(5.07192 0.209539 0)
(5.13589 0.305562 0)
(5.12827 0.246301 0)
(5.08362 0.176554 0)
(5.02588 0.127537 0)
(4.96079 0.0953804 0)
(4.88994 0.0743221 0)
(4.81571 0.0601964 0)
(4.74158 0.0503639 0)
(4.67001 0.0431573 0)
(4.60232 0.0376072 0)
(4.53913 0.0331285 0)
(4.4809 0.0293457 0)
(4.42772 0.0260279 0)
(4.37965 0.02279 0)
(4.33658 0.0198249 0)
(4.29968 0.015405 0)
(4.26726 0.0137894 0)
(5.0041 0.0539798 0)
(5.02803 0.0569101 0)
(5.05646 0.0376048 0)
(5.07524 0.0373089 0)
(5.08609 0.0451184 0)
(5.09007 0.0508491 0)
(5.08654 0.0531286 0)
(5.07626 0.0531808 0)
(5.06105 0.0519322 0)
(5.04262 0.0499109 0)
(5.0221 0.0474489 0)
(5.00039 0.0447602 0)
(4.97823 0.0419372 0)
(4.95624 0.0389668 0)
(4.93496 0.0357631 0)
(4.91467 0.0321154 0)
(4.89654 0.0277725 0)
(4.87815 0.0207558 0)
(4.99797 0.0107168 0)
(5.0099 0.0290451 0)
(5.03457 0.0406458 0)
(5.05391 0.0514094 0)
(5.06814 0.0584421 0)
(5.07983 0.0606576 0)
(5.08847 0.0599561 0)
(5.09375 0.0580996 0)
(5.09627 0.0558369 0)
(5.0967 0.0533992 0)
(5.09546 0.050872 0)
(5.09294 0.0482925 0)
(5.08944 0.0456284 0)
(5.08535 0.0428122 0)
(5.08091 0.0396898 0)
(5.07633 0.0360171 0)
(5.0719 0.0314323 0)
(5.06617 0.0245316 0)
(4.99928 0.00746682 0)
(5.00882 0.0331204 0)
(5.0278 0.0460315 0)
(5.0431 0.0521548 0)
(5.05532 0.0556278 0)
(5.06679 0.0567498 0)
(5.07691 0.0562222 0)
(5.08507 0.0549381 0)
(5.09155 0.0533209 0)
(5.09675 0.0514892 0)
(5.10091 0.0494875 0)
(5.1042 0.0473367 0)
(5.10679 0.0450122 0)
(5.10887 0.0424468 0)
(5.11055 0.0395067 0)
(5.11189 0.0359752 0)
(5.11286 0.0316142 0)
(5.11268 0.0258509 0)
(5.00014 0.0091907 0)
(5.00817 0.0318001 0)
(5.02327 0.0424302 0)
(5.03638 0.0473395 0)
(5.04749 0.0508231 0)
(5.05824 0.0526076 0)
(5.06813 0.0527735 0)
(5.07664 0.0520195 0)
(5.08394 0.0507968 0)
(5.09035 0.0492701 0)
(5.09603 0.0475056 0)
(5.1011 0.0455374 0)
(5.10566 0.0433522 0)
(5.10982 0.0408911 0)
(5.11362 0.0380478 0)
(5.11702 0.0346589 0)
(5.11993 0.0306028 0)
(5.12185 0.0256375 0)
(5.00028 0.00895447 0)
(5.00709 0.0278103 0)
(5.0198 0.0378634 0)
(5.03168 0.0431781 0)
(5.04205 0.0469623 0)
(5.05208 0.0490341 0)
(5.06146 0.0494928 0)
(5.06978 0.0489893 0)
(5.07716 0.0479703 0)
(5.08383 0.0466108 0)
(5.08993 0.0449835 0)
(5.09555 0.0431243 0)
(5.10076 0.041026 0)
(5.1056 0.0386415 0)
(5.1101 0.0358917 0)
(5.11419 0.032668 0)
(5.11775 0.0289172 0)
(5.12047 0.0245623 0)
(5.00028 0.00793724 0)
(5.00605 0.0240757 0)
(5.01696 0.0339208 0)
(5.02786 0.0395068 0)
(5.03762 0.0432929 0)
(5.04701 0.0454202 0)
(5.05591 0.0460553 0)
(5.06396 0.0457481 0)
(5.07123 0.044897 0)
(5.07789 0.0436739 0)
(5.08406 0.0421562 0)
(5.0898 0.0403833 0)
(5.09517 0.0383573 0)
(5.10019 0.0360463 0)
(5.10486 0.0333983 0)
(5.10911 0.0303519 0)
(5.11283 0.0268975 0)
(5.11584 0.0230472 0)
(5.0003 0.00698007 0)
(5.00518 0.0209755 0)
(5.01453 0.0303098 0)
(5.02445 0.0358653 0)
(5.03364 0.0395495 0)
(5.0425 0.0416981 0)
(5.05097 0.0424859 0)
(5.05875 0.0423539 0)
(5.06586 0.0416515 0)
(5.07242 0.0405482 0)
(5.07853 0.0391272 0)
(5.08424 0.0374331 0)
(5.08959 0.0354785 0)
(5.09458 0.0332486 0)
(5.09922 0.0307164 0)
(5.10343 0.0278565 0)
(5.10712 0.024687 0)
(5.11022 0.0212612 0)
(5.00031 0.00614386 0)
(5.00445 0.0182485 0)
(5.01243 0.0268478 0)
(5.02138 0.0322127 0)
(5.02997 0.035766 0)
(5.03833 0.0379091 0)
(5.04638 0.0388103 0)
(5.05388 0.0388218 0)
(5.06081 0.0382479 0)
(5.06724 0.0372533 0)
(5.07324 0.0359246 0)
(5.07886 0.0343119 0)
(5.08411 0.0324377 0)
(5.08901 0.0303032 0)
(5.09353 0.0279029 0)
(5.09763 0.0252369 0)
(5.10125 0.0223392 0)
(5.10434 0.019278 0)
(5.0003 0.00537048 0)
(5.00382 0.0157819 0)
(5.01063 0.0235478 0)
(5.01864 0.0286188 0)
(5.0266 0.0319955 0)
(5.03444 0.0340797 0)
(5.04206 0.03504 0)
(5.04926 0.0351569 0)
(5.05598 0.0346901 0)
(5.06225 0.0337947 0)
(5.06812 0.0325577 0)
(5.07361 0.031033 0)
(5.07874 0.0292519 0)
(5.0835 0.0272289 0)
(5.08789 0.0249752 0)
(5.09187 0.0225078 0)
(5.09538 0.0198686 0)
(5.09844 0.0171268 0)
(5.00028 0.00468521 0)
(5.00333 0.0137076 0)
(5.00924 0.0206786 0)
(5.01643 0.0253998 0)
(5.0238 0.0285672 0)
(5.03115 0.0305506 0)
(5.03835 0.031516 0)
(5.04524 0.0316928 0)
(5.05173 0.031302 0)
(5.05782 0.0304863 0)
(5.06354 0.0293309 0)
(5.0689 0.0278918 0)
(5.07389 0.0262061 0)
(5.07853 0.0242979 0)
(5.08279 0.0221889 0)
(5.08665 0.0199061 0)
(5.09007 0.0174925 0)
(5.0931 0.0150146 0)
(5.00026 0.00404191 0)
(5.00291 0.0118081 0)
(5.00805 0.017972 0)
(5.0145 0.0222822 0)
(5.02129 0.0252038 0)
(5.02814 0.0270514 0)
(5.03493 0.0279832 0)
(5.04149 0.0281882 0)
(5.04772 0.0278525 0)
(5.0536 0.0271047 0)
(5.05914 0.0260265 0)
(5.06434 0.0246743 0)
(5.06919 0.0230892 0)
(5.07369 0.0213019 0)
(5.07781 0.019341 0)
(5.08156 0.0172389 0)
(5.08491 0.0150376 0)
(5.08789 0.012799 0)
(5.00024 0.00337356 0)
(5.00252 0.00983141 0)
(5.00692 0.0150755 0)
(5.01262 0.0188533 0)
(5.01878 0.0214411 0)
(5.02508 0.0230861 0)
(5.03139 0.0239317 0)
(5.03755 0.0241282 0)
(5.04346 0.0238262 0)
(5.04908 0.0231376 0)
(5.05439 0.0221384 0)
(5.05938 0.0208838 0)
(5.06404 0.0194162 0)
(5.06837 0.0177707 0)
(5.07234 0.0159798 0)
(5.07597 0.0140781 0)
(5.07922 0.0121041 0)
(5.08215 0.0101135 0)
(5.00022 0.00267906 0)
(5.00215 0.00778632 0)
(5.00589 0.0120116 0)
(5.01085 0.0151329 0)
(5.01637 0.0172875 0)
(5.0221 0.0186521 0)
(5.02789 0.0193469 0)
(5.03361 0.0194871 0)
(5.03915 0.019188 0)
(5.04444 0.0185428 0)
(5.04947 0.017619 0)
(5.05421 0.0164678 0)
(5.05865 0.015131 0)
(5.06277 0.0136444 0)
(5.06657 0.0120412 0)
(5.07004 0.0103547 0)
(5.07319 0.00861848 0)
(5.07605 0.00688011 0)
(5.00019 0.00195887 0)
(5.00182 0.00568139 0)
(5.00499 0.00879879 0)
(5.00928 0.0111381 0)
(5.01417 0.0127506 0)
(5.01934 0.0137467 0)
(5.02462 0.0142164 0)
(5.02988 0.0142426 0)
(5.03501 0.0139079 0)
(5.03996 0.0132837 0)
(5.04467 0.0124262 0)
(5.04913 0.0113797 0)
(5.05331 0.0101816 0)
(5.05721 0.00886511 0)
(5.06082 0.00746059 0)
(5.06414 0.00599726 0)
(5.06716 0.00450247 0)
(5.06993 0.00301531 0)
(5.00016 0.00121284 0)
(5.00155 0.00350971 0)
(5.00426 0.00543336 0)
(5.008 0.0068677 0)
(5.01233 0.00782139 0)
(5.01698 0.00835186 0)
(5.02178 0.00851467 0)
(5.02661 0.00836186 0)
(5.03135 0.00794591 0)
(5.03595 0.00731505 0)
(5.04035 0.00650971 0)
(5.04453 0.00556377 0)
(5.04846 0.00450678 0)
(5.05214 0.0033654 0)
(5.05556 0.00216409 0)
(5.05872 0.00092578 0)
(5.06162 -0.000329155 0)
(5.0643 -0.0015702 0)
(5.00014 0.000428031 0)
(5.00136 0.00122531 0)
(5.00375 0.00185306 0)
(5.00708 0.00225395 0)
(5.01101 0.00242412 0)
(5.01526 0.00238221 0)
(5.01968 0.00214903 0)
(5.02414 0.00174631 0)
(5.02856 0.00119779 0)
(5.03286 0.000526871 0)
(5.03699 -0.000245247 0)
(5.04092 -0.00109936 0)
(5.04464 -0.00201761 0)
(5.04812 -0.0029831 0)
(5.05137 -0.00397994 0)
(5.0544 -0.00499311 0)
(5.05719 -0.00600954 0)
(5.05978 -0.0070072 0)
(5.00013 -0.000434094 0)
(5.00128 -0.00128594 0)
(5.00353 -0.00210424 0)
(5.0067 -0.00288198 0)
(5.01044 -0.00362124 0)
(5.0145 -0.00433793 0)
(5.01872 -0.0050487 0)
(5.02299 -0.00576383 0)
(5.02722 -0.00648951 0)
(5.03134 -0.00722991 0)
(5.03529 -0.00798686 0)
(5.03906 -0.00875945 0)
(5.04263 -0.00954466 0)
(5.04598 -0.010338 0)
(5.04912 -0.011134 0)
(5.05205 -0.0119268 0)
(5.05477 -0.0127107 0)
(5.0573 -0.0134722 0)
(5.00014 -0.00125274 0)
(5.00136 -0.00368163 0)
(5.00375 -0.00588802 0)
(5.0071 -0.00778208 0)
(5.01101 -0.00936411 0)
(5.01521 -0.0106957 0)
(5.01954 -0.0118334 0)
(5.02387 -0.0128179 0)
(5.02814 -0.0136857 0)
(5.03227 -0.0144705 0)
(5.03622 -0.015198 0)
(5.03997 -0.0158854 0)
(5.0435 -0.0165438 0)
(5.04682 -0.0171805 0)
(5.04993 -0.0177993 0)
(5.05283 -0.0184018 0)
(5.05553 -0.0189884 0)
(5.05803 -0.0195522 0)
(5.00015 -0.00195533 0)
(5.00149 -0.0057769 0)
(5.00418 -0.00920375 0)
(5.00793 -0.0120121 0)
(5.01223 -0.0142331 0)
(5.01673 -0.0160129 0)
(5.02131 -0.0174474 0)
(5.02585 -0.0185976 0)
(5.03028 -0.0195296 0)
(5.03451 -0.0203063 0)
(5.03853 -0.0209745 0)
(5.04232 -0.0215657 0)
(5.04588 -0.0221024 0)
(5.04921 -0.0226005 0)
(5.05232 -0.0230704 0)
(5.05522 -0.0235185 0)
(5.05791 -0.0239485 0)
(5.06041 -0.0243573 0)
(5.00015 -0.00261125 0)
(5.00164 -0.00784722 0)
(5.0048 -0.0125187 0)
(5.00917 -0.0161559 0)
(5.014 -0.0188924 0)
(5.01892 -0.021011 0)
(5.02384 -0.0226437 0)
(5.02868 -0.0238733 0)
(5.03332 -0.0248028 0)
(5.0377 -0.0255242 0)
(5.04182 -0.0261008 0)
(5.04568 -0.0265752 0)
(5.04928 -0.0269796 0)
(5.05263 -0.0273372 0)
(5.05574 -0.0276633 0)
(5.05864 -0.0279675 0)
(5.06132 -0.0282556 0)
(5.06381 -0.0285268 0)
(5.00012 -0.00321363 0)
(5.00171 -0.00996083 0)
(5.0055 -0.0158775 0)
(5.01072 -0.0202247 0)
(5.0162 -0.0234062 0)
(5.02158 -0.0258096 0)
(5.0269 -0.0275494 0)
(5.03205 -0.0287568 0)
(5.03692 -0.0296034 0)
(5.04146 -0.0302146 0)
(5.04569 -0.0306631 0)
(5.04962 -0.0309988 0)
(5.05327 -0.0312607 0)
(5.05664 -0.0314769 0)
(5.05977 -0.0316652 0)
(5.06266 -0.0318366 0)
(5.06534 -0.0319971 0)
(5.06782 -0.0321467 0)
(5.00005 -0.00374322 0)
(5.00168 -0.0124909 0)
(5.00626 -0.0194931 0)
(5.01241 -0.0241118 0)
(5.01853 -0.0275872 0)
(5.02444 -0.0302833 0)
(5.03025 -0.0321216 0)
(5.03578 -0.0332699 0)
(5.04091 -0.0339938 0)
(5.04563 -0.0344591 0)
(5.04999 -0.0347493 0)
(5.05402 -0.0349229 0)
(5.05772 -0.0350266 0)
(5.06113 -0.0350926 0)
(5.06426 -0.0351403 0)
(5.06715 -0.0351808 0)
(5.06981 -0.0352193 0)
(5.07226 -0.0352539 0)
(4.99981 -0.00349712 0)
(5.00118 -0.0157236 0)
(5.00702 -0.0242001 0)
(5.01422 -0.0285142 0)
(5.02087 -0.0317218 0)
(5.02741 -0.0343787 0)
(5.03392 -0.0361819 0)
(5.04001 -0.0372603 0)
(5.04552 -0.037897 0)
(5.05051 -0.0382557 0)
(5.05507 -0.0384194 0)
(5.05921 -0.0384536 0)
(5.06297 -0.0384131 0)
(5.06637 -0.0383351 0)
(5.06946 -0.0382429 0)
(5.07227 -0.03815 0)
(5.07482 -0.0380622 0)
(5.07714 -0.0379774 0)
(4.99829 -0.000217241 0)
(4.99839 -0.0164703 0)
(5.00716 -0.0285449 0)
(5.01667 -0.0342708 0)
(5.02436 -0.037506 0)
(5.03174 -0.0394958 0)
(5.03908 -0.040539 0)
(5.04583 -0.0410363 0)
(5.05178 -0.0412666 0)
(5.05705 -0.041325 0)
(5.06174 -0.0412528 0)
(5.06587 -0.0410955 0)
(5.06949 -0.0408939 0)
(5.07265 -0.0406756 0)
(5.07541 -0.040458 0)
(5.0778 -0.0402529 0)
(5.07988 -0.0400635 0)
(5.08167 -0.0398852 0)
(4.99438 0.0017748 0)
(4.99229 -0.0104484 0)
(5.00589 -0.0233051 0)
(5.02041 -0.0347473 0)
(5.03144 -0.0428398 0)
(5.04088 -0.0468494 0)
(5.04935 -0.0481325 0)
(5.05653 -0.0481784 0)
(5.06242 -0.0477153 0)
(5.06725 -0.0470011 0)
(5.07118 -0.0461632 0)
(5.07426 -0.045296 0)
(5.07658 -0.0444594 0)
(5.07822 -0.0436804 0)
(5.07929 -0.0429748 0)
(5.07986 -0.0423509 0)
(5.08003 -0.0418058 0)
(5.07984 -0.0413466 0)
(4.99485 -0.0275962 0)
(4.9972 -0.0243343 0)
(5.01307 -0.00744779 0)
(5.03041 -0.00723866 0)
(5.04573 -0.016539 0)
(5.05856 -0.0255322 0)
(5.06791 -0.0318831 0)
(5.07352 -0.0361866 0)
(5.076 -0.0390295 0)
(5.07606 -0.0407345 0)
(5.0742 -0.0415978 0)
(5.07076 -0.041885 0)
(5.06605 -0.0418003 0)
(5.06034 -0.0414808 0)
(5.05388 -0.0410282 0)
(5.04684 -0.0405207 0)
(5.0394 -0.0400099 0)
(5.03178 -0.0395926 0)
(5.03832 -0.173435 0)
(5.08574 -0.276055 0)
(5.09644 -0.240759 0)
(5.08892 -0.185358 0)
(5.07821 -0.142596 0)
(5.06476 -0.112097 0)
(5.04551 -0.0903006 0)
(5.02042 -0.0748478 0)
(4.99129 -0.0638366 0)
(4.95974 -0.0557776 0)
(4.92696 -0.0496898 0)
(4.89373 -0.0449723 0)
(4.86066 -0.0412415 0)
(4.82817 -0.0382354 0)
(4.79653 -0.035778 0)
(4.76596 -0.0337654 0)
(4.73649 -0.0321188 0)
(4.70847 -0.0309617 0)
(4.92931 0.663075 0)
(4.86227 0.581861 0)
(4.75222 0.361628 0)
(4.602 0.20411 0)
(4.44661 0.108804 0)
(4.30331 0.0543216 0)
(4.1752 0.0240137 0)
(4.06166 0.00735937 0)
(3.96175 -0.00170442 0)
(3.87428 -0.00647852 0)
(3.79755 -0.00880829 0)
(3.72995 -0.0097601 0)
(3.67007 -0.00994768 0)
(3.61681 -0.00972788 0)
(3.56914 -0.00930663 0)
(3.52628 -0.00881769 0)
(3.48729 -0.00833712 0)
(3.45204 -0.00807277 0)
(0.00130375 -0.00268371 1.57816e-16)
(0.00559041 -0.00590201 -1.57631e-16)
(0.0111409 -0.00757527 0)
(0.0168837 -0.00769087 0)
(0.0217161 -0.00665834 0)
(0.0252187 -0.00500581 1.05258e-16)
(0.0272921 -0.00314625 0)
(0.0279935 -0.00134317 0)
(0.0273658 0.000228566 0)
(0.0256871 0.00148381 0)
(0.0231649 0.00243281 -1.00785e-16)
(0.019979 0.00313797 0)
(0.0162751 0.00367268 0)
(0.0121548 0.00410017 0)
(0.007682 0.00446036 0)
(0.00288891 0.00476274 -1.14416e-16)
(-0.00221341 0.00499095 0)
(-0.00765378 0.00517133 0)
(-0.0134702 0.0053635 0)
(-0.0197046 0.00559804 0)
(-0.0264105 0.00588772 0)
(-0.0336465 0.00623729 0)
(-0.0414725 0.00664832 0)
(-0.0499475 0.00712132 -7.40125e-17)
(-0.0591274 0.00765601 6.95181e-17)
(-0.0690645 0.00825085 -6.52533e-17)
(-0.0798051 0.00890246 -6.12174e-17)
(-0.0913887 0.00960523 0)
(-0.103846 0.0103517 0)
(-0.117198 0.0111323 5.04704e-17)
(-0.131457 0.0119358 4.73354e-17)
(-0.146623 0.0127485 0)
(-0.162686 0.0135579 0)
(-0.179621 0.014354 3.92027e-17)
(-0.197396 0.0151268 0)
(-0.215969 0.0158645 0)
(-0.235292 0.016556 -3.27901e-17)
(-0.255312 0.0171899 0)
(-0.275965 0.0177577 -2.93249e-17)
(-0.297188 0.018256 -5.56038e-17)
(-0.318918 0.0186858 0)
(-0.341091 0.0190486 0)
(-0.363647 0.0193477 0)
(-0.386529 0.0195864 0)
(-0.409684 0.0197693 0)
(-0.433064 0.0199008 -4.18555e-17)
(-0.456622 0.019986 -4.01493e-17)
(-0.480319 0.0200294 -3.85705e-17)
(-0.504116 0.0200357 0)
(-0.527982 0.0200088 3.57488e-17)
(-0.551885 0.0199528 0)
(-0.575799 0.0198707 -3.33092e-17)
(-0.599699 0.0197656 -3.22118e-17)
(-0.623561 0.0196399 0)
(-0.647364 0.0194956 0)
(-0.671088 0.0193339 0)
(-0.694714 0.0191564 -2.84841e-17)
(-0.718223 0.0189635 0)
(-0.741596 0.0187561 0)
(-0.764815 0.0185338 0)
(-0.78786 0.0182972 0)
(-0.810713 0.0180455 0)
(-0.833352 0.0177787 0)
(-0.855757 0.0174958 0)
(-0.877905 0.0171965 0)
(-0.899774 0.0168795 2.27833e-17)
(-0.92134 0.0165443 0)
(-0.942575 0.016189 0)
(-0.963453 0.0158123 -2.14425e-17)
(-0.983945 0.0154115 -2.10426e-17)
(-1.00402 0.0149847 0)
(-1.02364 0.0145299 2.03064e-17)
(-1.04279 0.0140471 -1.99682e-17)
(-1.06142 0.0135385 0)
(-1.07951 0.0130097 1.93475e-17)
(-1.09702 0.0124688 0)
(-1.11391 0.0119263 0)
(-1.13015 0.0113918 -1.85433e-17)
(-1.14573 0.0108717 0)
(-1.16069 0.0103539 1.80781e-17)
(-1.175 0.00982708 0)
(-1.18863 0.00928971 -1.76666e-17)
(-1.20157 0.0087385 -1.74797e-17)
(-1.21377 0.00817152 -1.7305e-17)
(-1.22523 0.00758741 -3.42841e-17)
(-1.2359 0.00698419 3.39814e-17)
(-1.24576 0.00636003 0)
(-1.25478 0.0057122 0)
(-1.26291 0.00503766 0)
(-1.27013 0.00433227 3.29956e-17)
(-1.27639 0.00359296 3.28049e-17)
(-1.28164 0.00281785 -3.26371e-17)
(-1.28584 0.00201113 0)
(-1.28892 0.00119117 3.23738e-17)
(-1.29081 0.000406761 3.22804e-17)
(-1.29145 -0.000279938 3.21919e-17)
(-1.29117 -0.000891121 0)
(-1.28993 -0.00148187 0)
(-1.28775 -0.00206007 0)
(-1.28463 -0.00263134 3.20315e-17)
(-1.28058 -0.00319668 0)
(-1.27559 -0.003756 0)
(-1.26967 -0.0043084 -3.21018e-17)
(-1.26282 -0.00485268 0)
(-1.25505 -0.00538789 0)
(-1.24637 -0.00591251 -3.23356e-17)
(-1.23679 -0.00642571 0)
(-1.22632 -0.00692579 0)
(-1.21498 -0.00741206 3.27357e-17)
(-1.2028 -0.00788275 3.29067e-17)
(-1.18978 -0.00833736 0)
(-1.17595 -0.00877415 -3.33065e-17)
(-1.16134 -0.00919282 0)
(-1.14597 -0.00959184 3.37847e-17)
(-1.12987 -0.00997112 0)
(-1.11306 -0.0103292 3.43435e-17)
(-1.09558 -0.010666 3.46539e-17)
(-1.07745 -0.0109803 0)
(-1.05872 -0.0112725 0)
(-1.0394 -0.0115422 0)
(-1.01954 -0.0117895 0)
(-0.999161 -0.012013 0)
(-0.978303 -0.0122173 0)
(-0.95699 -0.0124062 0)
(-0.935249 -0.0125739 3.79262e-17)
(-0.913107 -0.0127199 -3.84427e-17)
(-0.890592 -0.0128453 0)
(-0.867737 -0.0129501 0)
(-0.844566 -0.0130377 0)
(-0.821103 -0.0131096 0)
(-0.797369 -0.0131662 -8.28511e-17)
(-0.773383 -0.0132092 0)
(-0.749162 -0.0132387 8.56535e-17)
(-0.724721 -0.0132581 -8.71541e-17)
(-0.700071 -0.0132673 0)
(-0.675221 -0.0132703 0)
(-0.650176 -0.0132658 0)
(-0.624939 -0.013258 9.3911e-17)
(-0.599507 -0.0132478 9.58133e-17)
(-0.573881 -0.0132406 0)
(-0.548065 -0.0132394 9.99123e-17)
(-0.522054 -0.0132491 1.02123e-16)
(-0.495839 -0.013272 -1.04451e-16)
(-0.469401 -0.0133099 0)
(-0.442724 -0.0133642 0)
(-0.415786 -0.0134369 -1.12266e-16)
(-0.388567 -0.0135297 0)
(-0.361045 -0.013645 0)
(-0.333196 -0.0137843 0)
(-0.304995 -0.0139502 0)
(-0.276417 -0.0141452 1.29018e-16)
(-0.247434 -0.0143713 1.33135e-16)
(-0.218022 -0.0146319 0)
(-0.188154 -0.0149287 1.42405e-16)
(-0.157809 -0.0152622 0)
(-0.126954 -0.0156398 0)
(-0.0955793 -0.0160832 1.59701e-16)
(-0.0636944 -0.0165864 0)
(-0.0313215 -0.0170853 1.74384e-16)
(0.00138056 -0.0173317 0)
(0.0344099 -0.01722 0)
(0.068054 -0.0170188 1.62529e-16)
(0.102374 -0.0168629 0)
(0.13737 -0.0167439 1.47694e-16)
(0.173057 -0.0166511 0)
(0.209433 -0.016574 0)
(0.246476 -0.0165038 0)
(0.284145 -0.0164314 -1.2427e-16)
(0.322382 -0.016349 0)
(0.361111 -0.0162475 1.14997e-16)
(0.400225 -0.016113 0)
(0.439588 -0.0159336 0)
(0.479036 -0.0156975 0)
(0.51834 -0.0153811 0)
(0.557228 -0.0149468 0)
(0.595116 -0.0143298 0)
(0.631701 -0.0133354 0)
(0.663212 -0.0115898 -1.81314e-16)
(0.694362 -0.00762525 0)
(0.68485 0.00378833 0)
(0.00212707 -0.0114145 -4.25716e-16)
(0.00715964 -0.0177296 3.1273e-16)
(0.0108866 -0.0175315 0)
(0.0131366 -0.0146695 -1.04837e-16)
(0.0140851 -0.0107255 0)
(0.0138324 -0.0064387 -4.0744e-17)
(0.0125053 -0.00223808 7.69768e-17)
(0.010213 0.00162507 7.41417e-17)
(0.00705961 0.00499576 0)
(0.00305541 0.00780927 7.14722e-17)
(-0.00175399 0.0100923 3.49937e-17)
(-0.00732351 0.0119294 0)
(-0.0136067 0.0134307 0)
(-0.0205641 0.0147046 0)
(-0.0281705 0.0158458 0)
(-0.0364218 0.0169275 2.97496e-17)
(-0.0453197 0.018002 0)
(-0.0548633 0.0191129 -5.61837e-17)
(-0.0650698 0.0203003 0)
(-0.0759709 0.0215935 0)
(-0.0875965 0.023007 5.16164e-17)
(-0.0999752 0.0245426 0)
(-0.113131 0.0261929 -4.86074e-17)
(-0.127082 0.0279446 2.3549e-17)
(-0.141837 0.0297799 -2.27929e-17)
(-0.157396 0.0316777 2.20368e-17)
(-0.173747 0.0336143 2.12835e-17)
(-0.190868 0.0355639 0)
(-0.208727 0.0375004 0)
(-0.227281 0.0393992 -1.90752e-17)
(-0.246481 0.0412381 1.83681e-17)
(-0.266271 0.0429915 0)
(-0.286589 0.0446298 0)
(-0.307367 0.04613 -1.63794e-17)
(-0.328538 0.0474782 0)
(-0.350035 0.0486645 0)
(-0.371791 0.0496854 1.46248e-17)
(-0.393746 0.0505417 0)
(-0.415845 0.0512347 -1.35862e-17)
(-0.438041 0.0517679 2.62156e-17)
(-0.460288 0.0521498 0)
(-0.482547 0.0523914 0)
(-0.504781 0.0525049 4.73112e-17)
(-0.526961 0.0525026 4.57936e-17)
(-0.549061 0.0523968 4.43616e-17)
(-0.571058 0.0521992 -2.1505e-17)
(-0.592933 0.0519212 2.08665e-17)
(-0.614672 0.0515729 6.07898e-17)
(-0.63626 0.0511637 -3.93853e-17)
(-0.657687 0.0507014 -1.91524e-17)
(-0.678942 0.0501932 0)
(-0.700017 0.0496447 1.81553e-17)
(-0.720902 0.0490611 -1.76947e-17)
(-0.741589 0.048446 0)
(-0.762071 0.0478024 0)
(-0.782338 0.0471322 0)
(-0.802382 0.046437 1.60671e-17)
(-0.822193 0.0457176 0)
(-0.84176 0.0449745 -3.0728e-17)
(-0.861073 0.0442073 0)
(-0.88012 0.043416 -2.9446e-17)
(-0.898888 0.0425997 0)
(-0.917362 0.0417578 2.82744e-17)
(-0.935529 0.0408887 0)
(-0.953372 0.0399915 -2.72015e-17)
(-0.970876 0.0390647 1.33496e-17)
(-0.988024 0.0381079 0)
(-1.0048 0.03712 2.57566e-17)
(-1.02118 0.0361009 1.26574e-17)
(-1.03716 0.0350495 1.24458e-17)
(-1.0527 0.0339652 0)
(-1.0678 0.0328458 1.20494e-17)
(-1.08243 0.0316901 1.18638e-17)
(-1.09658 0.0304969 0)
(-1.11024 0.0292691 -1.1517e-17)
(-1.12338 0.0280129 2.27105e-17)
(-1.136 0.02674 0)
(-1.14809 0.0254627 1.1053e-17)
(-1.1596 0.0241871 0)
(-1.17052 0.022907 -3.23274e-17)
(-1.18081 0.0216137 0)
(-1.19045 0.020303 3.15643e-17)
(-1.19942 0.0189725 1.04024e-17)
(-1.20769 0.0176208 -1.02886e-17)
(-1.21525 0.0162477 -2.03597e-17)
(-1.22207 0.0148526 2.01521e-17)
(-1.22813 0.0134359 0)
(-1.23342 0.0119968 0)
(-1.23792 0.0105347 0)
(-1.24161 0.00904788 -5.82476e-17)
(-1.2445 0.00753446 -1.92547e-17)
(-1.24659 0.00599347 1.91026e-17)
(-1.24789 0.004428 0)
(-1.24845 0.00285264 1.88277e-17)
(-1.24833 0.0013092 -1.86967e-17)
(-1.24759 -0.000144563 -1.857e-17)
(-1.24599 -0.00152132 0)
(-1.2435 -0.00286636 0)
(-1.24011 -0.00418676 0)
(-1.23581 -0.00548692 -1.81458e-17)
(-1.2306 -0.00676561 0)
(-1.22447 -0.00802093 3.59614e-17)
(-1.21743 -0.00925032 5.3729e-17)
(-1.20949 -0.0104512 -3.56922e-17)
(-1.20064 -0.0116212 0)
(-1.1909 -0.0127577 -1.7741e-17)
(-1.18029 -0.0138587 0)
(-1.16881 -0.0149215 -3.53308e-17)
(-1.15648 -0.0159443 1.76381e-17)
(-1.14332 -0.0169247 1.7618e-17)
(-1.12936 -0.0178615 0)
(-1.1146 -0.0187525 5.2797e-17)
(-1.09908 -0.0195967 -3.51993e-17)
(-1.08282 -0.0203926 -1.76074e-17)
(-1.06585 -0.0211401 0)
(-1.0482 -0.0218377 -1.76425e-17)
(-1.02988 -0.0224858 -5.30092e-17)
(-1.01094 -0.0230835 0)
(-0.991409 -0.0236315 -3.54878e-17)
(-0.971308 -0.0241301 -3.55811e-17)
(-0.950673 -0.024581 -3.5687e-17)
(-0.929533 -0.0249852 0)
(-0.90792 -0.0253454 0)
(-0.885862 -0.025667 0)
(-0.863385 -0.0259535 1.81135e-17)
(-0.840517 -0.0261983 1.81977e-17)
(-0.81728 -0.026403 0)
(-0.793703 -0.0265725 3.67617e-17)
(-0.769806 -0.0267094 3.69626e-17)
(-0.745613 -0.0268173 0)
(-0.721142 -0.0268985 3.73983e-17)
(-0.69641 -0.0269563 7.52638e-17)
(-0.671431 -0.0269927 -3.78774e-17)
(-0.646218 -0.027012 -3.81322e-17)
(-0.62078 -0.0270163 0)
(-0.595122 -0.0270102 0)
(-0.569247 -0.0269948 0)
(-0.543155 -0.0269736 -3.92646e-17)
(-0.516842 -0.0269489 3.95735e-17)
(-0.490306 -0.0269261 7.97894e-17)
(-0.463542 -0.0269113 -4.02263e-17)
(-0.436546 -0.0269092 4.05668e-17)
(-0.409304 -0.0269248 4.09196e-17)
(-0.381798 -0.0269583 0)
(-0.354008 -0.0270124 0)
(-0.32591 -0.0270863 -4.20393e-17)
(-0.297481 -0.0271831 0)
(-0.268695 -0.0273025 0)
(-0.239525 -0.0274466 8.65323e-17)
(-0.209942 -0.0276149 0)
(-0.179915 -0.0278107 4.41495e-17)
(-0.149416 -0.0280315 -4.46145e-17)
(-0.118412 -0.0282803 0)
(-0.0868742 -0.028558 4.5591e-17)
(-0.0547773 -0.0288642 0)
(-0.0220951 -0.0291937 0)
(0.0111303 -0.0295007 -4.66162e-17)
(0.0449557 -0.0297738 9.19079e-17)
(0.0794858 -0.0300343 -4.52489e-17)
(0.114785 -0.0302557 0)
(0.150827 -0.030442 0)
(0.187554 -0.030632 4.34625e-17)
(0.224948 -0.0308394 0)
(0.263006 -0.0310529 4.2422e-17)
(0.30171 -0.0312601 0)
(0.341033 -0.0314459 0)
(0.380936 -0.0315971 0)
(0.421363 -0.0317004 4.0505e-17)
(0.462247 -0.031743 0)
(0.503504 -0.0317102 -3.96421e-17)
(0.54503 -0.0315842 0)
(0.586692 -0.031344 0)
(0.62833 -0.0309609 7.70024e-17)
(0.669727 -0.0303896 -7.63544e-17)
(0.71061 -0.0295503 0)
(0.750477 -0.028304 0)
(0.788904 -0.026257 0)
(0.823655 -0.0227931 2.24291e-16)
(0.856803 -0.0153005 0)
(0.873294 0.00233258 -1.53655e-16)
(0.00176412 -0.019861 -2.33762e-22)
(0.00414533 -0.0243393 -3.27358e-16)
(0.00460878 -0.0201252 0)
(0.00365905 -0.0140737 1.43857e-16)
(0.00166538 -0.00775498 0)
(-0.00120488 -0.00160931 0)
(-0.00483131 0.00415625 2.17364e-23)
(-0.00914951 0.00942188 -4.35852e-17)
(-0.0141395 0.0141297 -4.1343e-17)
(-0.0198052 0.0182659 -3.96798e-17)
(-0.0261577 0.0218588 0)
(-0.0332076 0.0249767 0)
(-0.0409604 0.0277142 3.62423e-17)
(-0.0494175 0.0301776 7.06645e-17)
(-0.0585789 0.0324708 -6.8967e-17)
(-0.0684455 0.0346856 0)
(-0.0790185 0.0368974 -6.58323e-17)
(-0.0902985 0.0391618 3.21731e-17)
(-0.102284 0.041515 0)
(-0.114973 0.0439779 -6.14262e-17)
(-0.128355 0.046556 -2.99833e-17)
(-0.142417 0.0492416 5.84999e-17)
(-0.15714 0.0520162 2.8512e-17)
(-0.172497 0.0548531 0)
(-0.188455 0.0577205 -5.40489e-17)
(-0.204974 0.060583 -5.25552e-17)
(-0.222009 0.0634033 0)
(-0.239508 0.0661442 -4.95807e-17)
(-0.257417 0.0687688 0)
(-0.275681 0.0712414 -4.66651e-17)
(-0.294239 0.0735299 -2.2616e-17)
(-0.31303 0.0756112 0)
(-0.331997 0.0774685 0)
(-0.351095 0.0790883 0)
(-0.370282 0.0804627 0)
(-0.389523 0.0815901 0)
(-0.408785 0.0824752 0)
(-0.42804 0.0831279 -3.61403e-17)
(-0.447266 0.0835611 5.25448e-17)
(-0.466445 0.0837889 0)
(-0.485565 0.0838263 0)
(-0.504613 0.0836911 0)
(-0.523581 0.0834017 6.93578e-23)
(-0.542463 0.0829762 -3.01978e-17)
(-0.561252 0.0824315 -5.87265e-17)
(-0.579944 0.0817834 5.71359e-17)
(-0.598536 0.0810461 2.781e-17)
(-0.617025 0.0802323 -2.70871e-17)
(-0.635406 0.079353 -7.46316e-23)
(-0.653676 0.0784173 -2.57395e-17)
(-0.671832 0.0774329 0)
(-0.689868 0.0764059 -2.45103e-17)
(-0.707781 0.0753411 -7.97743e-23)
(-0.725563 0.0742419 0)
(-0.743209 0.0731109 0)
(-0.760712 0.0719493 2.23559e-17)
(-0.778063 0.0707579 0)
(-0.795253 0.0695366 0)
(-0.812272 0.068285 -2.09639e-17)
(-0.82911 0.0670021 -4.10727e-17)
(-0.845754 0.0656867 2.01256e-17)
(-0.862193 0.0643373 0)
(-0.878412 0.0629524 -1.93511e-17)
(-0.894397 0.0615301 0)
(-0.910134 0.0600687 -1.86345e-17)
(-0.925607 0.0585665 -1.8296e-17)
(-0.940799 0.0570221 3.59408e-17)
(-0.955694 0.0554346 1.76569e-17)
(-0.970274 0.0538032 0)
(-0.984522 0.0521277 -3.41282e-17)
(-0.99842 0.0504079 0)
(-1.01195 0.0486439 -4.95443e-17)
(-1.02509 0.0468363 -3.25109e-17)
(-1.03783 0.0449864 -3.20119e-17)
(-1.05014 0.0430973 3.15318e-17)
(-1.06202 0.0411738 -4.66047e-17)
(-1.07343 0.0392221 0)
(-1.08435 0.0372469 0)
(-1.09476 0.0352496 2.97837e-17)
(-1.10462 0.0332275 4.40781e-17)
(-1.11391 0.0311778 0)
(-1.12261 0.0290988 -1.43157e-17)
(-1.13069 0.0269899 0)
(-1.13812 0.0248514 4.18975e-17)
(-1.1449 0.0226843 -4.63962e-23)
(-1.151 0.0204901 3.67372e-23)
(-1.1564 0.0182711 -2.69771e-17)
(-1.16109 0.0160299 0)
(-1.16504 0.0137698 2.64009e-17)
(-1.16826 0.0114953 4.6925e-24)
(-1.17073 0.0092129 0)
(-1.17245 0.00693208 0)
(-1.17342 0.00466642 0)
(-1.17364 0.00243276 -2.51617e-17)
(-1.17308 0.0002413 0)
(-1.17172 -0.00192244 0)
(-1.16951 -0.00406939 0)
(-1.16643 -0.00619235 0)
(-1.16249 -0.00828777 0)
(-1.15767 -0.0103522 -2.39256e-17)
(-1.15197 -0.0123814 0)
(-1.14538 -0.0143711 -2.35938e-17)
(-1.13792 -0.0163169 -2.34421e-17)
(-1.12958 -0.0182145 2.32996e-17)
(-1.12036 -0.0200596 0)
(-1.11029 -0.0218485 2.30421e-17)
(-1.09937 -0.0235773 0)
(-1.08762 -0.0252424 2.28201e-17)
(-1.07505 -0.0268405 -2.27222e-17)
(-1.06167 -0.0283686 -6.78978e-17)
(-1.04752 -0.0298239 0)
(-1.0326 -0.0312041 -6.74363e-17)
(-1.01694 -0.0325072 -2.24138e-17)
(-1.00057 -0.0337317 0)
(-0.983512 -0.0348763 -4.46173e-17)
(-0.96579 -0.0359406 -4.45353e-17)
(-0.947434 -0.036924 6.67031e-17)
(-0.928471 -0.0378266 0)
(-0.90893 -0.0386492 2.21902e-17)
(-0.888841 -0.0393929 2.21789e-17)
(-0.868231 -0.04006 6.65234e-17)
(-0.847131 -0.0406525 0)
(-0.825568 -0.0411741 0)
(-0.803572 -0.041631 0)
(-0.781166 -0.0420308 2.222e-17)
(-0.758378 -0.0423687 0)
(-0.735227 -0.0426444 0)
(-0.711737 -0.0428648 -2.23247e-17)
(-0.687928 -0.0430349 -2.23712e-17)
(-0.66382 -0.0431593 0)
(-0.639431 -0.0432425 0)
(-0.614774 -0.0432891 -4.50883e-17)
(-0.589864 -0.0433039 0)
(-0.564708 -0.0432919 4.53714e-17)
(-0.539315 -0.0432583 4.55271e-17)
(-0.513688 -0.0432081 0)
(-0.487828 -0.0431453 0)
(-0.461733 -0.0430739 -4.60526e-17)
(-0.435398 -0.0429991 -6.24282e-22)
(-0.408819 -0.0429275 -6.17038e-22)
(-0.381988 -0.0428673 0)
(-0.354899 -0.0428249 -9.37413e-17)
(-0.327537 -0.0428062 0)
(-0.299883 -0.0428129 0)
(-0.271915 -0.0428481 0)
(-0.243611 -0.0429117 4.77996e-17)
(-0.214944 -0.0430067 0)
(-0.185889 -0.0431336 -9.66018e-17)
(-0.156417 -0.0432936 -4.85617e-17)
(-0.126497 -0.0434863 0)
(-0.0961009 -0.0437147 -4.91007e-17)
(-0.0651976 -0.043977 0)
(-0.0337543 -0.044273 0)
(-0.00175507 -0.0445942 -1.49372e-16)
(0.0308229 -0.0449321 9.91206e-17)
(0.0640221 -0.045283 0)
(0.0978779 -0.0456526 9.74493e-17)
(0.132427 -0.0460424 -4.83105e-17)
(0.167696 -0.04644 0)
(0.203716 -0.0468472 0)
(0.240486 -0.0472777 0)
(0.277971 -0.0477233 -1.40636e-16)
(0.316144 -0.048172 0)
(0.354977 -0.0486099 -4.6295e-17)
(0.394437 -0.0490198 0)
(0.434483 -0.0493833 0)
(0.475064 -0.0496825 0)
(0.516118 -0.0498995 0)
(0.557569 -0.0500156 0)
(0.599329 -0.0500097 0)
(0.64129 -0.0498559 -8.90947e-17)
(0.683321 -0.049522 0)
(0.725264 -0.0489635 -4.41765e-17)
(0.766914 -0.0481119 1.32079e-16)
(0.808012 -0.0468486 0)
(0.848129 -0.0449632 0)
(0.886907 -0.0419772 -8.75968e-17)
(0.922899 -0.0370669 -8.77076e-17)
(0.957857 -0.0279001 8.8205e-17)
(0.983549 -0.00928679 9.02307e-17)
(0.000555718 -0.0235611 7.08411e-16)
(-0.000273795 -0.0236852 4.13072e-16)
(-0.00261483 -0.0164142 1.59383e-16)
(-0.00598868 -0.0083072 5.61597e-17)
(-0.0100957 -0.000425948 0)
(-0.0147944 0.00702625 -7.72179e-17)
(-0.020024 0.0139762 3.47363e-17)
(-0.0257706 0.0203818 0)
(-0.0320451 0.0262252 3.0475e-17)
(-0.0388716 0.031515 0)
(-0.0462802 0.036288 -5.64248e-17)
(-0.0542999 0.0406076 0)
(-0.0629533 0.044557 -2.6705e-17)
(-0.0722551 0.0482289 -5.21513e-17)
(-0.0822108 0.0517153 5.0978e-17)
(-0.0928182 0.055098 0)
(-0.104069 0.0584431 4.87666e-17)
(-0.115947 0.061798 0)
(-0.128433 0.0651917 0)
(-0.1415 0.0686362 4.55522e-17)
(-0.155116 0.072128 0)
(-0.169244 0.0756505 5.54672e-23)
(-0.183842 0.0791771 0)
(-0.198865 0.0826737 0)
(-0.214266 0.0861026 -5.02348e-23)
(-0.229994 0.0894241 3.90536e-17)
(-0.246 0.0925994 3.79721e-17)
(-0.262232 0.0955918 3.68982e-17)
(-0.278644 0.0983683 0)
(-0.295189 0.1009 6.95725e-17)
(-0.311827 0.103163 0)
(-0.328526 0.105142 3.27645e-17)
(-0.345258 0.106832 0)
(-0.362 0.108233 0)