/*--------------------------------*- C++ -*----------------------------------*\
| =========                 |                                                 |
| \\      /  F ield         | OpenFOAM: The Open Source CFD Toolbox           |
|  \\    /   O peration     | Version:  2312                                  |
|   \\  /    A nd           | Website:  www.openfoam.com                      |
|    \\/     M anipulation  |                                                 |
\*---------------------------------------------------------------------------*/
FoamFile
{
    version     2.0;
    format      ascii;
    arch        "LSB;label=32;scalar=64";
    class       volVectorField;
    location    "200";
    object      U;
}
// * * * * * * * * * * * * * * * * * * * * * * * * * * * * * * * * * * * * * //

dimensions      [0 1 -1 0 0 0 0];

internalField   nonuniform List<vector> 
12225
(
(0.908925 -0.379353 0)
(0.865075 -0.145897 0)
(0.76514 -0.0185123 0)
(0.662535 0.0104782 0)
(0.593497 0.00983272 0)
(0.550993 0.0057764 0)
(0.522439 0.00340505 0)
(0.50157 0.00238166 0)
(0.485479 0.00192646 0)
(0.472529 0.00164552 0)
(0.461891 0.00140825 0)
(0.4532 0.00117701 0)
(0.44632 0.000930085 0)
(0.441206 0.000636705 0)
(0.438146 0.000251942 0)
(0.437437 -0.000386359 0)
(0.440414 -0.000635693 0)
(0.446006 -0.0131981 0)
(1.04414 0.0828162 0)
(1.01927 0.0733973 0)
(0.977584 0.041306 0)
(0.928134 0.0269519 0)
(0.883901 0.0197244 0)
(0.847664 0.0144609 0)
(0.818409 0.0107698 0)
(0.795212 0.00840892 0)
(0.776891 0.00687385 0)
(0.762192 0.00577239 0)
(0.750226 0.00488609 0)
(0.740485 0.00409061 0)
(0.732706 0.00329231 0)
(0.726777 0.00239717 0)
(0.722823 0.00125442 0)
(0.721038 -0.000379431 0)
(0.722861 -0.00309798 0)
(0.726924 -0.00931299 0)
(1.0039 0.0297834 0)
(1.00736 0.0402854 0)
(1.00852 0.0355572 0)
(0.995501 0.0319804 0)
(0.975949 0.0270455 0)
(0.954981 0.021532 0)
(0.934959 0.0170386 0)
(0.917423 0.0138285 0)
(0.90278 0.0115204 0)
(0.890703 0.00974856 0)
(0.880765 0.0082796 0)
(0.872657 0.00695439 0)
(0.866184 0.00563889 0)
(0.861247 0.004191 0)
(0.857866 0.00240098 0)
(0.85607 -8.77313e-05 0)
(0.85625 -0.00401199 0)
(0.85663 -0.011682 0)
(0.999112 0.00731452 0)
(1.00521 0.0277703 0)
(1.01561 0.0338166 0)
(1.01516 0.0338907 0)
(1.00784 0.0305139 0)
(0.997088 0.0257709 0)
(0.984861 0.021414 0)
(0.972946 0.0179484 0)
(0.962307 0.0152218 0)
(0.953153 0.012996 0)
(0.945429 0.0110835 0)
(0.939035 0.00932831 0)
(0.933881 0.00758172 0)
(0.929901 0.00567918 0)
(0.92706 0.00339267 0)
(0.925253 0.000358703 0)
(0.924364 -0.00400161 0)
(0.922825 -0.0107589 0)
(0.999547 0.00549022 0)
(1.0055 0.0257756 0)
(1.01672 0.0329983 0)
(1.02104 0.0340704 0)
(1.02011 0.031989 0)
(1.01575 0.0282697 0)
(1.00912 0.024397 0)
(1.00171 0.0210015 0)
(0.994535 0.0181174 0)
(0.988033 0.0156297 0)
(0.982354 0.0134113 0)
(0.977546 0.0113299 0)
(0.973604 0.00924318 0)
(0.970497 0.00698808 0)
(0.968167 0.00435104 0)
(0.966445 0.00103008 0)
(0.965066 -0.00333721 0)
(0.962782 -0.00912604 0)
(0.999798 0.00628965 0)
(1.00523 0.0238596 0)
(1.01573 0.0310492 0)
(1.02208 0.0330123 0)
(1.02467 0.032097 0)
(1.02429 0.0293866 0)
(1.02157 0.0261425 0)
(1.01761 0.0230266 0)
(1.0133 0.0201885 0)
(1.00909 0.0176087 0)
(1.00524 0.015219 0)
(1.00188 0.0129213 0)
(0.999052 0.0105941 0)
(0.996757 0.00809322 0)
(0.994932 0.00524052 0)
(0.993399 0.00181634 0)
(0.991885 -0.00236771 0)
(0.989461 -0.00737729 0)
(0.99979 0.00613895 0)
(1.00466 0.0212772 0)
(1.01418 0.0285108 0)
(1.02129 0.0312297 0)
(1.02575 0.0312418 0)
(1.02784 0.0294245 0)
(1.02782 0.0268398 0)
(1.02645 0.0241145 0)
(1.02442 0.0214586 0)
(1.02214 0.018919 0)
(1.01989 0.0164763 0)
(1.01782 0.0140676 0)
(1.01602 0.0115999 0)
(1.01448 0.00895793 0)
(1.01317 0.00600807 0)
(1.01191 0.00260871 0)
(1.01049 -0.0013106 0)
(1.00825 -0.00568594 0)
(0.999804 0.00555724 0)
(1.00412 0.0187008 0)
(1.01258 0.0258308 0)
(1.01979 0.0290349 0)
(1.02518 0.0297297 0)
(1.02874 0.0286573 0)
(1.03055 0.0266913 0)
(1.03108 0.0243924 0)
(1.03082 0.0219949 0)
(1.03012 0.0195864 0)
(1.02923 0.0171838 0)
(1.02829 0.0147557 0)
(1.0274 0.0122389 0)
(1.02657 0.0095511 0)
(1.02577 0.00660322 0)
(1.02486 0.00331804 0)
(1.02367 -0.000302608 0)
(1.02178 -0.00414892 0)
(0.999874 0.0049732 0)
(1.00365 0.0163471 0)
(1.01108 0.0231534 0)
(1.01804 0.0265987 0)
(1.0238 0.0277719 0)
(1.02821 0.0272933 0)
(1.03122 0.0258692 0)
(1.03309 0.0239855 0)
(1.03416 0.0218781 0)
(1.03471 0.0196562 0)
(1.03493 0.0173613 0)
(1.03496 0.0149877 0)
(1.03487 0.0125 0)
(1.03468 0.00984782 0)
(1.03437 0.00698137 0)
(1.03385 0.00387169 0)
(1.033 0.000559792 0)
(1.03154 -0.00283885 0)
(0.999957 0.00443185 0)
(1.00324 0.0141983 0)
(1.00971 0.0205251 0)
(1.01624 0.0240265 0)
(1.02204 0.0255113 0)
(1.02688 0.0254848 0)
(1.03063 0.0245121 0)
(1.03343 0.023006 0)
(1.03548 0.0211904 0)
(1.03699 0.0191832 0)
(1.0381 0.0170408 0)
(1.03891 0.0147775 0)
(1.0395 0.0123816 0)
(1.03988 0.00983035 0)
(1.04004 0.00710556 0)
(1.03991 0.0042112 0)
(1.03943 0.00120542 0)
(1.03844 -0.00180769 0)
(1.00002 0.00390325 0)
(1.00287 0.0122234 0)
(1.00847 0.0179748 0)
(1.0145 0.0213911 0)
(1.02015 0.0230477 0)
(1.02514 0.023346 0)
(1.02932 0.0227328 0)
(1.03271 0.0215533 0)
(1.03545 0.0200123 0)
(1.03766 0.0182274 0)
(1.03945 0.0162635 0)
(1.04089 0.0141492 0)
(1.04204 0.0118917 0)
(1.04291 0.00948999 0)
(1.04349 0.00694912 0)
(1.04375 0.00429321 0)
(1.04365 0.00158421 0)
(1.04312 -0.00109042 0)
(1.00006 0.00341728 0)
(1.00256 0.0105514 0)
(1.00747 0.015721 0)
(1.013 0.0189595 0)
(1.0184 0.0206689 0)
(1.02338 0.021164 0)
(1.02773 0.0208016 0)
(1.03146 0.0198711 0)
(1.03461 0.0185559 0)
(1.03728 0.0169691 0)
(1.03952 0.0151788 0)
(1.0414 0.0132226 0)
(1.04295 0.0111202 0)
(1.04419 0.00888531 0)
(1.04512 0.00653713 0)
(1.0457 0.00410946 0)
(1.04595 0.0016613 0)
(1.0458 -0.000736267 0)
(1.00009 0.00294395 0)
(1.00228 0.00900599 0)
(1.00657 0.0135704 0)
(1.01162 0.0165625 0)
(1.01672 0.0182472 0)
(1.02158 0.0188616 0)
(1.02599 0.0186861 0)
(1.0299 0.0179592 0)
(1.03332 0.0168422 0)
(1.0363 0.0154409 0)
(1.03889 0.0138235 0)
(1.0411 0.0120334 0)
(1.04297 0.010099 0)
(1.04452 0.00804446 0)
(1.04574 0.00589761 0)
(1.04662 0.00369654 0)
(1.04717 0.00149462 0)
(1.04738 -0.000651492 0)
(1.00011 0.00243356 0)
(1.00199 0.00738056 0)
(1.00567 0.011243 0)
(1.01019 0.0138792 0)
(1.01492 0.0154441 0)
(1.01956 0.0161038 0)
(1.02391 0.0160643 0)
(1.02789 0.0155124 0)
(1.03148 0.014584 0)
(1.03469 0.0133735 0)
(1.03752 0.0119464 0)
(1.04001 0.0103486 0)
(1.04216 0.00861444 0)
(1.04398 0.00677446 0)
(1.04547 0.00486115 0)
(1.04664 0.00291263 0)
(1.04751 0.00097424 0)
(1.04807 -0.000909501 0)
(1.00011 0.0018941 0)
(1.0017 0.00569947 0)
(1.00481 0.00876815 0)
(1.00878 0.0109324 0)
(1.01307 0.0122666 0)
(1.01741 0.0128769 0)
(1.0216 0.0129023 0)
(1.02555 0.012479 0)
(1.02919 0.0117143 0)
(1.03251 0.0106879 0)
(1.0355 0.00945873 0)
(1.03817 0.00807147 0)
(1.04053 0.00656228 0)
(1.04257 0.00496377 0)
(1.0443 0.00330865 0)
(1.04574 0.00163151 0)
(1.04689 -3.12796e-05 0)
(1.04778 -0.00164577 0)
(1.00011 0.00133259 0)
(1.00144 0.00398663 0)
(1.00404 0.00617744 0)
(1.00746 0.00775369 0)
(1.0113 0.00873702 0)
(1.01528 0.00918732 0)
(1.01923 0.00918829 0)
(1.02303 0.00882942 0)
(1.02662 0.00818772 0)
(1.02995 0.00732437 0)
(1.033 0.00628776 0)
(1.03577 0.00511708 0)
(1.03825 0.00384559 0)
(1.04045 0.00250348 0)
(1.04237 0.00111976 0)
(1.04402 -0.000277066 0)
(1.04541 -0.00165951 0)
(1.04658 -0.00300284 0)
(1.0001 0.000753743 0)
(1.00122 0.00224847 0)
(1.0034 0.00348764 0)
(1.00636 0.00436484 0)
(1.00976 0.00487624 0)
(1.01337 0.00504857 0)
(1.01703 0.00492387 0)
(1.02063 0.00455145 0)
(1.02408 0.00397772 0)
(1.02733 0.00324247 0)
(1.03036 0.00237936 0)
(1.03314 0.00141739 0)
(1.03567 0.000382301 0)
(1.03795 -0.000702259 0)
(1.03998 -0.00181406 0)
(1.04178 -0.0029322 0)
(1.04335 -0.00403752 0)
(1.04472 -0.00511316 0)
(1.00009 0.000149859 0)
(1.00106 0.000450499 0)
(1.00297 0.000660274 0)
(1.00559 0.000731027 0)
(1.00866 0.000654714 0)
(1.01196 0.00043593 0)
(1.01536 8.5756e-05 0)
(1.01874 -0.000380151 0)
(1.02202 -0.000945097 0)
(1.02515 -0.0015931 0)
(1.02808 -0.00230897 0)
(1.03081 -0.00307813 0)
(1.03332 -0.00388639 0)
(1.0356 -0.00471997 0)
(1.03767 -0.00556556 0)
(1.03953 -0.00641061 0)
(1.04119 -0.0072437 0)
(1.04268 -0.0080548 0)
(1.00009 -0.000508038 0)
(1.00101 -0.00150813 0)
(1.00282 -0.00244557 0)
(1.00533 -0.00329925 0)
(1.00827 -0.00407134 0)
(1.01144 -0.00477581 0)
(1.01471 -0.00542918 0)
(1.01795 -0.006048 0)
(1.0211 -0.00664678 0)
(1.0241 -0.00723635 0)
(1.02692 -0.00782347 0)
(1.02954 -0.00841133 0)
(1.03195 -0.00900025 0)
(1.03417 -0.0095884 0)
(1.03618 -0.0101725 0)
(1.038 -0.0107486 0)
(1.03964 -0.0113125 0)
(1.04112 -0.0118599 0)
(1.00009 -0.00114557 0)
(1.00109 -0.0034242 0)
(1.00307 -0.00548229 0)
(1.00579 -0.00721229 0)
(1.00891 -0.00861688 0)
(1.01221 -0.0097376 0)
(1.01554 -0.010625 0)
(1.0188 -0.0113339 0)
(1.0219 -0.0119144 0)
(1.02481 -0.0124062 0)
(1.02751 -0.0128384 0)
(1.02998 -0.0132315 0)
(1.03223 -0.0135991 0)
(1.03427 -0.0139498 0)
(1.03611 -0.0142882 0)
(1.03775 -0.0146165 0)
(1.03922 -0.0149355 0)
(1.04053 -0.0152447 0)
(1.00009 -0.00170128 0)
(1.0012 -0.00515207 0)
(1.00349 -0.00820244 0)
(1.00658 -0.0106421 0)
(1.01003 -0.0125064 0)
(1.01357 -0.0138811 0)
(1.01704 -0.0148592 0)
(1.02034 -0.015541 0)
(1.02339 -0.0160147 0)
(1.02618 -0.0163471 0)
(1.0287 -0.0165864 0)
(1.03096 -0.0167667 0)
(1.03296 -0.0169113 0)
(1.03473 -0.0170356 0)
(1.03628 -0.0171492 0)
(1.03764 -0.0172577 0)
(1.03883 -0.0173643 0)
(1.03985 -0.0174704 0)
(1.00006 -0.00220847 0)
(1.00129 -0.00690648 0)
(1.00403 -0.0109549 0)
(1.00764 -0.014017 0)
(1.0115 -0.0162208 0)
(1.01532 -0.0177132 0)
(1.01892 -0.0186439 0)
(1.0222 -0.0191746 0)
(1.0251 -0.0194392 0)
(1.02763 -0.0195318 0)
(1.02982 -0.0195178 0)
(1.0317 -0.0194427 0)
(1.03328 -0.0193371 0)
(1.03462 -0.0192205 0)
(1.03573 -0.019105 0)
(1.03664 -0.0189977 0)
(1.03739 -0.0189019 0)
(1.03799 -0.0188197 0)
(0.999968 -0.00264945 0)
(1.00128 -0.00875796 0)
(1.00463 -0.0138017 0)
(1.00888 -0.0173692 0)
(1.01319 -0.0197744 0)
(1.01725 -0.0212237 0)
(1.02086 -0.0219414 0)
(1.02392 -0.0221765 0)
(1.02644 -0.0221162 0)
(1.02847 -0.0218809 0)
(1.03007 -0.0215505 0)
(1.03131 -0.0211787 0)
(1.03223 -0.0207994 0)
(1.0329 -0.020433 0)
(1.03335 -0.0200905 0)
(1.03363 -0.0197775 0)
(1.03376 -0.0194957 0)
(1.03378 -0.0192453 0)
(0.999824 -0.00297839 0)
(1.00112 -0.010823 0)
(1.00527 -0.01681 0)
(1.01025 -0.0206919 0)
(1.01494 -0.023116 0)
(1.01906 -0.0243188 0)
(1.02239 -0.024624 0)
(1.02487 -0.0244013 0)
(1.0266 -0.0238978 0)
(1.02772 -0.023255 0)
(1.02835 -0.0225611 0)
(1.0286 -0.0218717 0)
(1.02855 -0.0212178 0)
(1.02827 -0.0206148 0)
(1.02782 -0.0200688 0)
(1.02724 -0.0195803 0)
(1.02657 -0.0191465 0)
(1.02585 -0.0187643 0)
(0.999534 -0.00270434 0)
(1.00067 -0.0129702 0)
(1.00598 -0.0199594 0)
(1.0117 -0.0239342 0)
(1.0165 -0.0261228 0)
(1.02025 -0.0268055 0)
(1.02272 -0.0264636 0)
(1.02396 -0.0256187 0)
(1.02426 -0.0245734 0)
(1.02388 -0.0234765 0)
(1.02302 -0.0224119 0)
(1.02184 -0.0214251 0)
(1.02044 -0.0205343 0)
(1.01891 -0.0197425 0)
(1.0173 -0.0190454 0)
(1.01567 -0.0184355 0)
(1.01402 -0.0179037 0)
(1.01242 -0.017442 0)
(0.998543 -0.00076587 0)
(0.999416 -0.0143376 0)
(1.0066 -0.0227341 0)
(1.01301 -0.0268242 0)
(1.01724 -0.0285151 0)
(1.01965 -0.028337 0)
(1.02018 -0.0271018 0)
(1.01912 -0.0255088 0)
(1.01703 -0.0238855 0)
(1.01436 -0.022359 0)
(1.01137 -0.0209853 0)
(1.00825 -0.0197819 0)
(1.00511 -0.0187417 0)
(1.00202 -0.0178476 0)
(0.999023 -0.0170814 0)
(0.996137 -0.0164253 0)
(0.993367 -0.0158643 0)
(0.990755 -0.0153856 0)
(0.996379 0.000195098 0)
(0.996958 -0.0155091 0)
(1.00657 -0.0243978 0)
(1.01304 -0.0286981 0)
(1.0152 -0.0297411 0)
(1.01434 -0.0283924 0)
(1.01097 -0.026083 0)
(1.00592 -0.0237214 0)
(1.00012 -0.0216024 0)
(0.994144 -0.0197798 0)
(0.988286 -0.0182473 0)
(0.982686 -0.0169736 0)
(0.977405 -0.0159167 0)
(0.972458 -0.015036 0)
(0.967834 -0.0142995 0)
(0.963513 -0.0136806 0)
(0.959463 -0.0131622 0)
(0.955716 -0.0127288 0)
(0.997397 -0.0160931 0)
(0.997976 -0.0281575 0)
(1.00618 -0.028676 0)
(1.00816 -0.0298542 0)
(1.0039 -0.029247 0)
(0.995661 -0.0263979 0)
(0.9849 -0.0229885 0)
(0.973235 -0.0200096 0)
(0.961899 -0.0176289 0)
(0.951412 -0.0157587 0)
(0.941867 -0.0142927 0)
(0.933217 -0.0131377 0)
(0.925375 -0.0122163 0)
(0.918239 -0.0114694 0)
(0.911713 -0.0108575 0)
(0.905716 -0.0103507 0)
(0.900167 -0.00993634 0)
(0.895087 -0.00959909 0)
(1.02979 -0.0764091 0)
(1.02297 -0.0773724 0)
(1.00694 -0.0484426 0)
(0.982729 -0.0332981 0)
(0.956634 -0.0260545 0)
(0.931028 -0.0207735 0)
(0.906841 -0.0166204 0)
(0.885163 -0.0136163 0)
(0.86648 -0.0115165 0)
(0.850509 -0.0100309 0)
(0.836712 -0.00895327 0)
(0.824625 -0.00814902 0)
(0.813905 -0.00752965 0)
(0.804295 -0.00703771 0)
(0.795596 -0.0066402 0)
(0.787665 -0.00631238 0)
(0.780354 -0.00605168 0)
(0.773689 -0.00585121 0)
(0.947758 0.332584 0)
(0.943919 0.161021 0)
(0.88082 0.0384474 0)
(0.795614 -0.00442313 0)
(0.726387 -0.0124635 0)
(0.677534 -0.0104106 0)
(0.642423 -0.00728268 0)
(0.615983 -0.00517187 0)
(0.595272 -0.00399519 0)
(0.578343 -0.00334728 0)
(0.563948 -0.00295738 0)
(0.55138 -0.00269252 0)
(0.540233 -0.00249342 0)
(0.530244 -0.00233336 0)
(0.521195 -0.00220042 0)
(0.51297 -0.00208908 0)
(0.505361 -0.00199902 0)
(0.49846 -0.00194164 0)
(0.000304534 -0.000675295 1.41617e-14)
(0.00154882 -0.00144365 -1.68547e-14)
(0.00327349 -0.00185889 0)
(0.00513283 -0.00194663 0)
(0.00674363 -0.00176272 0)
(0.00793763 -0.00140741 1.37952e-14)
(0.00866208 -0.000982837 0)
(0.00892533 -0.00056333 0)
(0.00875654 -0.00019434 0)
(0.00822658 0.000106822 0)
(0.00739738 0.000344065 -1.33606e-14)
(0.00631975 0.000532354 0)
(0.00503025 0.00068812 0)
(0.00355054 0.000823723 0)
(0.0018899 0.000944008 0)
(4.80753e-05 0.00104675 -1.42041e-14)
(-0.00198285 0.00113524 0)
(-0.00421736 0.00122428 0)
(-0.00667723 0.0013285 0)
(-0.00938973 0.00145706 0)
(-0.012386 0.00161524 0)
(-0.0156989 0.00180642 0)
(-0.0193611 0.0020327 0)
(-0.0234038 0.00229522 -1.01702e-14)
(-0.027855 0.00259399 9.6466e-15)
(-0.0327377 0.00292832 -9.13495e-15)
(-0.0380687 0.00329657 -8.6392e-15)
(-0.0438584 0.00369611 0)
(-0.0501085 0.00412085 0)
(-0.0568115 0.00456171 7.27622e-15)
(-0.0639506 0.00500793 6.8707e-15)
(-0.0715 0.0054481 0)
(-0.0794253 0.00587066 0)
(-0.0876853 0.00626466 5.81323e-15)
(-0.0962312 0.00661985 0)
(-0.105011 0.00692887 0)
(-0.113968 0.00718639 -4.98459e-15)
(-0.123047 0.00738902 0)
(-0.13219 0.00753487 -4.54322e-15)
(-0.141341 0.00762357 -8.70267e-15)
(-0.150448 0.00765639 0)
(-0.159461 0.00763591 0)
(-0.168331 0.00756556 0)
(-0.177017 0.00744945 0)
(-0.185479 0.00729195 0)
(-0.193684 0.00709764 -7.02656e-15)
(-0.201599 0.00687097 -6.82898e-15)
(-0.209199 0.00661623 -6.64944e-15)
(-0.21646 0.00633737 0)
(-0.223361 0.00603803 6.33847e-15)
(-0.229886 0.00572136 0)
(-0.236019 0.00539015 -6.08303e-15)
(-0.241748 0.00504668 -5.97344e-15)
(-0.247061 0.00469276 0)
(-0.251949 0.00432966 0)
(-0.256403 0.00395813 0)
(-0.260417 0.00357844 -5.63685e-15)
(-0.263981 0.00319043 0)
(-0.26709 0.00279349 0)
(-0.269735 0.00238668 0)
(-0.271907 0.00196902 0)
(-0.273598 0.00154089 0)
(-0.274802 0.001108 0)
(-0.275514 0.000687837 0)
(-0.275714 0.000307319 0)
(-0.275449 -2.33683e-05 5.34537e-15)
(-0.274785 -0.000320226 0)
(-0.273726 -0.000599138 0)
(-0.272291 -0.000865975 -5.35403e-15)
(-0.27049 -0.00112319 -5.36732e-15)
(-0.268331 -0.00137177 0)
(-0.265824 -0.00161214 5.409e-15)
(-0.262978 -0.00184426 -5.43736e-15)
(-0.259801 -0.00206907 0)
(-0.256303 -0.00228213 5.50924e-15)
(-0.252494 -0.00249171 0)
(-0.248385 -0.00269129 0)
(-0.243985 -0.00287743 -5.65665e-15)
(-0.239306 -0.00306072 0)
(-0.234357 -0.00323366 5.78226e-15)
(-0.229152 -0.00339832 0)
(-0.223701 -0.00355501 -5.93112e-15)
(-0.218016 -0.00370382 -6.01469e-15)
(-0.212107 -0.00384506 -6.10468e-15)
(-0.205986 -0.00397847 -1.24029e-14)
(-0.199665 -0.00410387 1.26103e-14)
(-0.193155 -0.00422097 0)
(-0.186469 -0.00433035 0)
(-0.179618 -0.00443281 0)
(-0.172615 -0.00452819 1.35969e-14)
(-0.165472 -0.00461736 1.38862e-14)
(-0.158201 -0.00470002 -1.41944e-14)
(-0.150813 -0.00477672 0)
(-0.14332 -0.00484751 1.48723e-14)
(-0.135734 -0.00491275 1.52447e-14)
(-0.128064 -0.00497246 1.56412e-14)
(-0.120323 -0.00502706 0)
(-0.112521 -0.0050766 0)
(-0.10467 -0.00512144 0)
(-0.0967796 -0.00516162 1.75044e-14)
(-0.0888612 -0.00519742 0)
(-0.0809253 -0.0052289 0)
(-0.0729824 -0.00525616 -1.92535e-14)
(-0.065043 -0.0052792 0)
(-0.0571172 -0.00529781 0)
(-0.0492151 -0.00531186 -2.13899e-14)
(-0.0413475 -0.00532105 0)
(-0.0335252 -0.00532569 0)
(-0.0257581 -0.00532696 2.40209e-14)
(-0.018056 -0.00532675 2.50331e-14)
(-0.0104311 -0.00531633 0)
(-0.00290418 -0.00526498 -2.71107e-14)
(0.00450834 -0.00512468 0)
(0.0118176 -0.00491881 2.58784e-14)
(0.0190142 -0.00470432 0)
(0.0260825 -0.0044962 2.40623e-14)
(0.0330176 -0.00429669 2.3282e-14)
(0.0398175 -0.00410533 0)
(0.0464807 -0.00392133 0)
(0.0530049 -0.00374377 0)
(0.0593877 -0.00357206 0)
(0.0656264 -0.00340551 0)
(0.0717179 -0.00324384 0)
(0.077659 -0.00308657 0)
(0.0834466 -0.00293369 1.89877e-14)
(0.0890777 -0.00278484 -1.86218e-14)
(0.0945496 -0.00264016 0)
(0.09986 -0.00249933 0)
(0.105007 -0.00236256 0)
(0.109988 -0.00222959 0)
(0.114803 -0.00210064 -3.43245e-14)
(0.11945 -0.00197542 0)
(0.123928 -0.00185415 3.34374e-14)
(0.128238 -0.00173661 -3.30434e-14)
(0.132377 -0.00162307 0)
(0.136348 -0.00151334 0)
(0.14015 -0.00140761 0)
(0.143784 -0.0013057 3.1748e-14)
(0.14725 -0.00120772 3.14858e-14)
(0.150551 -0.00111358 0)
(0.153689 -0.00102328 3.10253e-14)
(0.156665 -0.000936747 3.08246e-14)
(0.159483 -0.000853918 -3.06422e-14)
(0.162143 -0.000774786 0)
(0.16465 -0.000699374 0)
(0.167005 -0.000627671 -3.01938e-14)
(0.169211 -0.000559629 0)
(0.171273 -0.000495185 0)
(0.173192 -0.000434263 0)
(0.174972 -0.000376784 0)
(0.176618 -0.000322671 2.97252e-14)
(0.178131 -0.000271851 2.9667e-14)
(0.179518 -0.000224242 0)
(0.18078 -0.000179761 2.95807e-14)
(0.181923 -0.000138282 0)
(0.18295 -9.96504e-05 0)
(0.183865 -6.36981e-05 2.95192e-14)
(0.184671 -3.02554e-05 0)
(0.185373 9.62458e-07 2.9518e-14)
(0.185973 3.02121e-05 0)
(0.186474 5.82237e-05 0)
(0.18688 8.7349e-05 2.95701e-14)
(0.187171 0.000116824 0)
(0.187356 0.000143417 2.96264e-14)
(0.187443 0.000166993 0)
(0.187434 0.000188747 0)
(0.187328 0.000209951 0)
(0.187123 0.000231893 -2.98258e-14)
(0.18681 0.000255966 0)
(0.186376 0.000283658 2.99698e-14)
(0.185803 0.000316951 0)
(0.185062 0.000358753 0)
(0.184113 0.000412965 0)
(0.182891 0.000486669 0)
(0.181322 0.00058768 0)
(0.179199 0.000738456 0)
(0.176519 0.000950626 0)
(0.172172 0.00135059 -6.29406e-14)
(0.168055 0.00187126 0)
(0.153357 0.0032206 0)
(0.000402661 -0.00299076 -4.32292e-14)
(0.00204831 -0.00557741 4.6429e-14)
(0.00368176 -0.00608786 0)
(0.00486124 -0.00535636 -2.01772e-14)
(0.00544935 -0.00402033 0)
(0.00544898 -0.002454 -8.06503e-15)
(0.00489262 -0.000878912 1.524e-14)
(0.00382272 0.000579008 1.46519e-14)
(0.00228986 0.00185625 0)
(0.000322838 0.00293607 1.394e-14)
(-0.00204715 0.00383835 6.74332e-15)
(-0.00479451 0.00460402 0)
(-0.00790149 0.00528023 0)
(-0.0113598 0.00591058 0)
(-0.0151715 0.00652979 0)
(-0.019348 0.00716119 5.63754e-15)
(-0.0239057 0.0078197 0)
(-0.0288632 0.00851992 -1.06519e-14)
(-0.0342391 0.00927638 0)
(-0.0400506 0.0100984 0)
(-0.0463109 0.0109881 9.74723e-15)
(-0.0530273 0.0119413 0)
(-0.0601998 0.0129487 -9.1141e-15)
(-0.0678198 0.0139976 4.39514e-15)
(-0.0758687 0.0150716 -4.23259e-15)
(-0.0843189 0.0161503 4.07115e-15)
(-0.093134 0.0172091 3.9123e-15)
(-0.102266 0.0182205 0)
(-0.111659 0.0191612 0)
(-0.121252 0.0200111 -3.4613e-15)
(-0.130978 0.0207523 3.32242e-15)
(-0.140774 0.0213695 0)
(-0.150575 0.0218515 0)
(-0.160318 0.0221919 -2.94808e-15)
(-0.169945 0.0223879 0)
(-0.179403 0.0224398 0)
(-0.188645 0.0223522 2.63926e-15)
(-0.197627 0.0221324 0)
(-0.206314 0.02179 -2.46705e-15)
(-0.214676 0.0213361 4.77979e-15)
(-0.222687 0.0207827 0)
(-0.230328 0.0201418 0)
(-0.237584 0.0194259 8.75786e-15)
(-0.244443 0.0186466 8.52703e-15)
(-0.250897 0.0178148 8.31216e-15)
(-0.256942 0.0169407 -4.05601e-15)
(-0.262574 0.0160334 3.96275e-15)
(-0.267793 0.0151007 1.16274e-14)
(-0.272598 0.0141496 -7.58936e-15)
(-0.276991 0.0131861 -3.71899e-15)
(-0.280972 0.0122151 0)
(-0.284546 0.0112409 3.5824e-15)
(-0.287713 0.0102669 -3.52085e-15)
(-0.290478 0.00929592 0)
(-0.292842 0.00833006 0)
(-0.294811 0.00737104 0)
(-0.296388 0.00642004 3.31343e-15)
(-0.297577 0.00547794 0)
(-0.298385 0.00454539 -6.46025e-15)
(-0.29882 0.00362308 0)
(-0.29889 0.00271171 -6.31796e-15)
(-0.29861 0.00181244 0)
(-0.297992 0.000928863 6.19787e-15)
(-0.297058 7.11512e-05 0)
(-0.295837 -0.000743809 -6.09169e-15)
(-0.294312 -0.00150756 3.02309e-15)
(-0.292441 -0.00222808 0)
(-0.290223 -0.00291514 5.96953e-15)
(-0.287659 -0.00357326 2.9689e-15)
(-0.284754 -0.00420486 2.95514e-15)
(-0.281512 -0.00481094 0)
(-0.277941 -0.00539191 2.93364e-15)
(-0.274049 -0.00594781 2.92579e-15)
(-0.269844 -0.00647858 0)
(-0.265334 -0.00698397 -2.91582e-15)
(-0.260529 -0.00746392 5.82775e-15)
(-0.255436 -0.00791817 0)
(-0.250066 -0.00834703 2.91522e-15)
(-0.244428 -0.00875038 0)
(-0.238533 -0.00912832 -8.77083e-15)
(-0.23239 -0.00948096 0)
(-0.226011 -0.00980894 8.81643e-15)
(-0.219406 -0.010113 2.9488e-15)
(-0.212586 -0.010394 -2.96037e-15)
(-0.205561 -0.0106517 -5.94727e-15)
(-0.198344 -0.0108862 5.97709e-15)
(-0.190943 -0.0110975 0)
(-0.183371 -0.0112854 0)
(-0.175638 -0.0114511 0)
(-0.167755 -0.0115962 -1.83967e-14)
(-0.159734 -0.0117211 -6.17923e-15)
(-0.151587 -0.0118264 6.22956e-15)
(-0.143324 -0.0119129 0)
(-0.134956 -0.011981 6.34027e-15)
(-0.126494 -0.0120313 -6.40067e-15)
(-0.117949 -0.0120644 -6.46448e-15)
(-0.109331 -0.012081 0)
(-0.100652 -0.0120814 0)
(-0.091921 -0.0120665 0)
(-0.0831491 -0.0120367 -6.75415e-15)
(-0.0743466 -0.0119924 0)
(-0.0655238 -0.0119343 1.38401e-14)
(-0.056691 -0.0118627 2.10252e-14)
(-0.0478581 -0.011778 -1.42007e-14)
(-0.039035 -0.0116802 0)
(-0.0302316 -0.0115695 -7.29549e-15)
(-0.0214577 -0.0114459 0)
(-0.0127238 -0.0113096 -1.50124e-14)
(-0.00404092 -0.0111605 7.6078e-15)
(0.0045811 -0.0109971 7.60194e-15)
(0.0131379 -0.0108207 0)
(0.0216271 -0.0106325 2.22588e-14)
(0.0300403 -0.0104151 -1.47228e-14)
(0.0383626 -0.0101646 -7.32428e-15)
(0.0465877 -0.00989907 0)
(0.0547151 -0.00963011 -7.28036e-15)
(0.062739 -0.00936233 -2.17969e-14)
(0.0706539 -0.0090969 0)
(0.0784553 -0.0088337 -1.44899e-14)
(0.0861389 -0.00857232 -1.44768e-14)
(0.093701 -0.00831244 -1.44681e-14)
(0.101138 -0.00805382 0)
(0.108446 -0.0077964 0)
(0.115621 -0.00754017 0)
(0.122661 -0.00728532 7.23714e-15)
(0.129562 -0.00703196 7.24271e-15)
(0.136321 -0.00678042 0)
(0.142935 -0.00653089 1.45185e-14)
(0.149402 -0.00628376 1.45402e-14)
(0.15572 -0.00603923 0)
(0.161886 -0.0057977 1.45934e-14)
(0.1679 -0.00555932 2.92494e-14)
(0.17376 -0.0053245 -1.4659e-14)
(0.179465 -0.00509331 -1.46964e-14)
(0.185014 -0.00486614 0)
(0.190406 -0.0046431 0)
(0.195641 -0.00442455 0)
(0.200719 -0.00421061 -1.48731e-14)
(0.205638 -0.00400149 1.49235e-14)
(0.210401 -0.0037973 2.99524e-14)
(0.215007 -0.00359817 -1.50311e-14)
(0.219458 -0.0034042 1.50882e-14)
(0.223754 -0.00321538 1.51475e-14)
(0.227898 -0.00303188 0)
(0.231889 -0.00285382 0)
(0.235729 -0.00268136 -1.53365e-14)
(0.23942 -0.00251451 0)
(0.242963 -0.00235335 0)
(0.246359 -0.00219784 3.10797e-14)
(0.249611 -0.00204801 0)
(0.252721 -0.00190377 1.56825e-14)
(0.25569 -0.00176514 -1.57557e-14)
(0.258521 -0.00163206 0)
(0.261216 -0.00150456 1.59052e-14)
(0.263778 -0.00138248 0)
(0.266208 -0.00126567 0)
(0.268509 -0.00115388 -1.61363e-14)
(0.270683 -0.00104695 3.24299e-14)
(0.272732 -0.00094458 -1.62943e-14)
(0.274659 -0.00084651 0)
(0.276464 -0.00075178 0)
(0.27815 -0.000657495 1.65366e-14)
(0.279728 -0.00056356 0)
(0.281196 -0.000473083 1.66993e-14)
(0.282547 -0.000386144 0)
(0.283779 -0.000301078 0)
(0.284889 -0.000215337 0)
(0.285869 -0.000126582 1.7032e-14)
(0.286712 -3.22066e-05 0)
(0.287408 7.14681e-05 -1.71966e-14)
(0.287942 0.000189817 0)
(0.288288 0.000330102 0)
(0.288413 0.000503046 3.4927e-14)
(0.288264 0.000724653 -3.5123e-14)
(0.287777 0.00101901 0)
(0.286804 0.00142935 0)
(0.285302 0.00202721 0)
(0.282515 0.00294328 1.08399e-13)
(0.279853 0.00445656 0)
(0.270227 0.00713033 -7.42832e-14)
(0.000371663 -0.00524993 -6.98174e-23)
(0.00132069 -0.00839803 -5.42427e-14)
(0.00169702 -0.00774113 0)
(0.0013958 -0.00556321 2.96801e-14)
(0.000518868 -0.00294854 0)
(-0.000859094 -0.000292177 0)
(-0.00268654 0.00223553 1.33973e-23)
(-0.00493226 0.00455401 -8.97953e-15)
(-0.00758395 0.00663413 -8.48128e-15)
(-0.0106379 0.00848039 -8.09946e-15)
(-0.0140945 0.0101217 0)
(-0.0179555 0.0116036 0)
(-0.0222235 0.0129791 7.2784e-15)
(-0.0269023 0.0143003 1.41231e-14)
(-0.0319966 0.0156118 -1.37254e-14)
(-0.0375123 0.0169474 0)
(-0.0434543 0.0183289 -1.3007e-14)
(-0.0498236 0.0197672 6.33452e-15)
(-0.056615 0.0212642 0)
(-0.0638149 0.0228142 -1.20006e-14)
(-0.0714014 0.0244032 -5.83194e-15)
(-0.0793436 0.0260105 1.13242e-14)
(-0.0876022 0.02761 5.49105e-15)
(-0.0961299 0.0291719 0)
(-0.104873 0.0306646 -1.02948e-14)
(-0.113771 0.032056 -9.95194e-15)
(-0.122763 0.0333164 0)
(-0.131785 0.0344193 -9.2764e-15)
(-0.140781 0.0353408 0)
(-0.149696 0.036063 -8.6385e-15)
(-0.158479 0.0365748 -4.1688e-15)
(-0.167087 0.0368713 0)
(-0.175481 0.0369526 0)
(-0.183632 0.0368238 0)
(-0.191515 0.0364942 0)
(-0.19911 0.0359764 0)
(-0.206406 0.0352854 0)
(-0.213393 0.0344381 -6.59767e-15)
(-0.220066 0.0334526 9.59905e-15)
(-0.226421 0.0323467 0)
(-0.232458 0.0311384 0)
(-0.238176 0.0298446 0)
(-0.243576 0.028481 -2.06054e-24)
(-0.24866 0.0270621 -5.56539e-15)
(-0.253428 0.0256007 -1.08527e-14)
(-0.257881 0.0241081 1.05908e-14)
(-0.262019 0.0225941 5.17206e-15)
(-0.265842 0.021067 -5.05589e-15)
(-0.26935 0.0195339 4.97886e-24)
(-0.272542 0.0180006 -4.84344e-15)
(-0.275416 0.016472 0)
(-0.277972 0.0149521 -4.65504e-15)
(-0.280208 0.0134443 9.06795e-24)
(-0.282122 0.0119514 0)
(-0.283713 0.0104758 0)
(-0.284981 0.00901945 4.34043e-15)
(-0.285925 0.00758434 0)
(-0.286545 0.00617231 0)
(-0.286842 0.00478546 -4.15128e-15)
(-0.28682 0.00342629 -8.19247e-15)
(-0.286479 0.00209797 4.04504e-15)
(-0.285825 0.000804543 0)
(-0.28486 -0.000448991 -3.94797e-15)
(-0.283586 -0.00165881 0)
(-0.281994 -0.0028272 -3.85972e-15)
(-0.280081 -0.00395938 -3.82119e-15)
(-0.277843 -0.00505586 7.57127e-15)
(-0.27528 -0.00611489 3.75286e-15)
(-0.272396 -0.00713568 0)
(-0.269192 -0.00811779 -7.39052e-15)
(-0.265675 -0.00906079 0)
(-0.261849 -0.00996431 -1.09429e-14)
(-0.257721 -0.0108279 -7.25467e-15)
(-0.253297 -0.0116513 -7.21866e-15)
(-0.248585 -0.0124341 7.18715e-15)
(-0.243592 -0.0131762 -1.07402e-14)
(-0.238328 -0.0138771 0)
(-0.232799 -0.0145368 0)
(-0.227016 -0.0151554 7.10349e-15)
(-0.220986 -0.0157332 1.06387e-14)
(-0.21472 -0.0162702 0)
(-0.208228 -0.0167669 -3.54084e-15)
(-0.201519 -0.0172241 0)
(-0.194604 -0.0176432 1.06264e-14)
(-0.187492 -0.018025 1.41732e-22)
(-0.180194 -0.0183692 -1.44349e-22)
(-0.172719 -0.0186762 -7.11391e-15)
(-0.165078 -0.0189463 0)
(-0.15728 -0.0191803 7.15221e-15)
(-0.149337 -0.01938 1.53411e-22)
(-0.141259 -0.0195468 0)
(-0.133056 -0.0196814 0)
(-0.12474 -0.019785 0)
(-0.11632 -0.0198583 -7.30207e-15)
(-0.107807 -0.0199023 0)
(-0.0992116 -0.0199179 0)
(-0.0905431 -0.0199061 0)
(-0.081812 -0.0198679 0)
(-0.0730282 -0.0198042 0)
(-0.0642017 -0.0197158 -7.58204e-15)
(-0.0553424 -0.0196037 0)
(-0.0464601 -0.0194687 -7.6989e-15)
(-0.0375645 -0.0193114 -7.76169e-15)
(-0.0286649 -0.0191326 7.82738e-15)
(-0.0197708 -0.0189326 0)
(-0.0108912 -0.018712 7.96756e-15)
(-0.00203536 -0.0184709 0)
(0.00678775 -0.0182097 8.01444e-15)
(0.01557 -0.0179293 -7.96728e-15)
(0.0243033 -0.0176313 -2.37725e-14)
(0.032981 -0.0173182 0)
(0.041598 -0.0169942 -2.35763e-14)
(0.0501519 -0.0166626 -7.84507e-15)
(0.0586377 -0.0163217 0)
(0.0670503 -0.0159698 -1.57077e-14)
(0.0753839 -0.0156109 -1.57375e-14)
(0.0836307 -0.0152476 2.36635e-14)
(0.0917834 -0.0148816 0)
(0.0998354 -0.0145136 7.93536e-15)
(0.107781 -0.0141437 7.96306e-15)
(0.115617 -0.0137723 2.39793e-14)
(0.123337 -0.0133995 0)
(0.130938 -0.0130257 0)
(0.138417 -0.0126512 0)
(0.14577 -0.0122764 8.13509e-15)
(0.152993 -0.0119018 0)
(0.160085 -0.0115279 0)
(0.167042 -0.0111553 -8.26303e-15)
(0.173863 -0.0107846 -8.30961e-15)
(0.180544 -0.0104162 0)
(0.187086 -0.0100507 0)
(0.193485 -0.00968859 -1.69206e-14)
(0.19974 -0.00933038 0)
(0.205851 -0.00897649 1.71391e-14)
(0.211818 -0.00862738 1.72535e-14)
(0.217638 -0.00828339 0)
(0.223312 -0.00794497 0)
(0.228839 -0.00761247 -1.76156e-14)
(0.23422 -0.00728622 -1.44379e-22)
(0.239455 -0.00696643 -1.39375e-22)
(0.244545 -0.00665338 0)
(0.24949 -0.00634726 -3.62794e-14)
(0.254291 -0.00604821 0)
(0.25895 -0.00575644 0)
(0.263467 -0.00547215 0)
(0.267844 -0.00519552 1.87059e-14)
(0.272081 -0.00492664 0)
(0.27618 -0.00466563 -3.80031e-14)
(0.280143 -0.00441253 -1.91523e-14)
(0.28397 -0.0041674 0)
(0.287664 -0.00393021 -1.94594e-14)
(0.291227 -0.00370096 0)
(0.29466 -0.0034796 0)
(0.297964 -0.00326615 -5.97914e-14)
(0.301143 -0.00306043 4.01796e-14)
(0.304198 -0.00286226 0)
(0.30713 -0.00267134 4.08228e-14)
(0.309941 -0.00248742 -2.05734e-14)
(0.312634 -0.00231009 0)
(0.31521 -0.00213879 0)
(0.317671 -0.00197255 0)
(0.320017 -0.00181076 -6.36819e-14)
(0.322254 -0.0016529 0)
(0.324381 -0.00149848 -2.15604e-14)
(0.326398 -0.00134667 0)
(0.328302 -0.00119583 0)
(0.33009 -0.00104327 0)
(0.331759 -0.000885843 0)
(0.333301 -0.000719588 0)
(0.334707 -0.000538943 0)
(0.335962 -0.00033617 -4.54609e-14)
(0.337046 -0.000100687 0)
(0.337933 0.000183333 -2.30607e-14)
(0.338582 0.000538937 6.9694e-14)
(0.338942 0.00100191 0)
(0.338917 0.00162937 0)
(0.338464 0.00252339 -4.75547e-14)
(0.337149 0.00383584 -4.80176e-14)
(0.335871 0.00591262 4.83595e-14)
(0.330804 0.00925004 4.94496e-14)
(0.0001941 -0.00632524 8.05614e-14)
(-3.04078e-05 -0.00844222 7.24487e-14)
(-0.00108786 -0.0062182 3.23103e-14)
(-0.00273888 -0.00281838 1.17105e-14)
(-0.00483176 0.000745617 0)
(-0.00730289 0.00420362 -1.59885e-14)