/*--------------------------------*- C++ -*----------------------------------*\
| =========                 |                                                 |
| \\      /  F ield         | OpenFOAM: The Open Source CFD Toolbox           |
|  \\    /   O peration     | Version:  2312                                  |
|   \\  /    A nd           | Website:  www.openfoam.com                      |
|    \\/     M anipulation  |                                                 |
\*---------------------------------------------------------------------------*/
FoamFile
{
    version     2.0;
    format      ascii;
    arch        "LSB;label=32;scalar=64";
    class       volScalarField;
    location    "0.25";
    object      blendingFactorField;
}
// * * * * * * * * * * * * * * * * * * * * * * * * * * * * * * * * * * * * * //

dimensions      [0 0 0 0 0 0 0];

internalField   nonuniform List<scalar> 
400
(
0
0
0
0
0
0
0
0
0
0
0
0
0
0
0
0
0
0
0
0
0
0
0
0
0
0
0
0
0
0
0
0
0
0
0
0
0
0
0
0
0
0
0
0
0
0
0
0
0
0
0
0
0
0
0
0
0
0
0
0
0
0
0
0
0
0
0
0
0
0
0
0
0
0
0
0
0
0
0
0
0
0
0
0
0
0
0
0
0
0
0
0
0
0
0
0
0
0
0
0
0
0
0
0
0
0
0
0
0
0
0
0
0
0
0
0
0
0
0
0
0
0
0
0
0
0
0
0
0
0
0
0
0
0
0
0
0
0
0
0
0
0
0
0
0
0
0
0
0
0
0
0
0
0
0
0
0
0
0
0
0
0
0
0
0
0
0
0
0
0
0
0
0
0
0
0
0
0
0
0
0
0
0
0
0
0
0
0
0
0
0
0
0
0
0
0
0
0
0
0
0
0
0
0
0
0
0
0
0
0
0
0
0
0
0
0
0
0.00772962
0.0284406
0.0178458
0.0202333
0.0338434
0.0208619
0
0
0
0
0.00552279
0.0154168
0.0220039
0.0254986
0.0256778
0.0256778
0.0218092
0.0125618
0
0.0138927
0.061079
0.0933448
0.0802171
0.0751648
0.0892838
0.0703549
0.0387366
0
0.00911112
0.0275758
0.0410735
0.0509383
0.0581112
0.0630372
0.0656389
0.0656389
0.0651384
0.0599104
0.0472459
0.0551944
0.126166
0.180035
0.160245
0.145157
0.157274
0.128299
0.0847558
0.0341707
0.0507954
0.0677566
0.0796785
0.088577
0.0958686
0.102335
0.108147
0.112714
0.114414
0.114414
0.110086
0.094073
0.205643
0.301754
0.26471
0.237749
0.241183
0.194867
0.133903
0.0759324
0.0973513
0.110421
0.118782
0.125261
0.131807
0.139602
0.149195
0.160514
0.17267
0.18334
0.186993
0.186993
0.294208
0.475988
0.419185
0.361379
0.344521
0.268559
0.182618
0.128647
0.143283
0.149124
0.1512
0.153221
0.1576
0.165789
0.178791
0.197731
0.223881
0.258815
0.304489
0.356707
0.356707
0.695915
0.792874
0.545879
0.456986
0.33292
0.221116
0.167938
0.170535
0.170535
0.164607
0.156676
0.151822
0.158841
0.173398
0.197846
0.236952
0.301845
0.418647
0.642844
0.940545
0.940545
1
0.750601
0.555644
0.378336
0.249183
0.130794
0.130794
0.113438
0.0860752
0.0596847
0.0413745
0.0352655
0.0471608
0.0699566
0.110511
0.182342
0.315319
0.629472
1
1
1
0.941006
0.579488
0.378336
0.249183
0.119203
0.00334071
0.0505908
0.120704
0.164787
0.189651
0.201505
0.20341
0.20341
0.196302
0.183622
0.169302
0.245444
0.245444
0.533311
1
0.941006
1
1
1
1
1
1
1
1
1
1
1
1
1
1
1
1
1
1
1
)
;

boundaryField
{
    movingWall
    {
        type            zeroGradient;
    }
    fixedWalls
    {
        type            zeroGradient;
    }
    frontAndBack
    {
        type            empty;
    }
}


// ************************************************************************* //
