/*--------------------------------*- C++ -*----------------------------------*\
| =========                 |                                                 |
| \\      /  F ield         | OpenFOAM: The Open Source CFD Toolbox           |
|  \\    /   O peration     | Version:  2312                                  |
|   \\  /    A nd           | Website:  www.openfoam.com                      |
|    \\/     M anipulation  |                                                 |
\*---------------------------------------------------------------------------*/
FoamFile
{
    version     2.0;
    format      ascii;
    arch        "LSB;label=32;scalar=64";
    class       volVectorField;
    location    "0.25";
    object      diffU;
}
// * * * * * * * * * * * * * * * * * * * * * * * * * * * * * * * * * * * * * //

dimensions      [0 1 -1 0 0 0 0];

internalField   nonuniform List<vector> 
400
(
(0 0 0)
(-0.000411312 9.99894e-05 0)
(-0.000951897 0.000133495 0)
(-0.0014857 0.000117257 0)
(-0.00197501 8.18098e-05 0)
(-0.00240036 4.07704e-05 0)
(-0.00275315 -2.81251e-06 0)
(-0.00302774 -4.87483e-05 0)
(-0.00322046 -9.73747e-05 0)
(-0.00332464 -0.000146708 0)
(-0.00334149 -0.000198258 0)
(-0.00326635 -0.000250141 0)
(-0.00310008 -0.000301809 0)
(-0.00284357 -0.000352621 0)
(-0.00249933 -0.000402071 0)
(-0.00207184 -0.000449263 0)
(-0.00157013 -0.00049007 0)
(-0.00101601 -0.000509506 0)
(-0.000450915 -0.00047634 0)
(-1.41071e-05 -0.000375186 0)
(-0.000105259 0.000413322 0)
(-0.000606213 0.000591888 0)
(-0.00114994 0.000642112 0)
(-0.00169275 0.000607102 0)
(-0.00219908 0.000525776 0)
(-0.00264739 0.000422169 0)
(-0.00302376 0.000306425 0)
(-0.00331871 0.000182011 0)
(-0.00352566 5.04182e-05 0)
(-0.00363941 -8.63903e-05 0)
(-0.00365686 -0.000226656 0)
(-0.00357615 -0.000368548 0)
(-0.00339736 -0.000509631 0)
(-0.00312246 -0.000647486 0)
(-0.00275612 -0.000779115 0)
(-0.00230688 -0.000899103 0)
(-0.00178907 -0.000994861 0)
(-0.00122606 -0.00104015 0)
(-0.000655498 -0.000995185 0)
(-0.000123202 -0.000817172 0)
(-0.000162352 0.000980453 0)
(-0.000715985 0.00114965 0)
(-0.00127413 0.00117639 0)
(-0.00182372 0.00111479 0)
(-0.00233648 0.000990923 0)
(-0.00279364 0.000827299 0)
(-0.00318037 0.000638091 0)
(-0.00348536 0.000430895 0)
(-0.00370054 0.00021022 0)
(-0.00382015 -2.01442e-05 0)
(-0.00384046 -0.000256703 0)
(-0.00375951 -0.000495644 0)
(-0.00357731 -0.00073262 0)
(-0.00329627 -0.000962512 0)
(-0.00292208 -0.00117845 0)
(-0.00246481 -0.00136968 0)
(-0.00193935 -0.00151854 0)
(-0.001366 -0.0015997 0)
(-0.000774956 -0.00158577 0)
(-0.000182992 -0.00142074 0)
(-0.000187245 0.00159412 0)
(-0.000788003 0.00175966 0)
(-0.00138759 0.00175279 0)
(-0.00197006 0.00165457 0)
(-0.00250941 0.00148291 0)
(-0.00298895 0.00125637 0)
(-0.00339491 0.000990703 0)
(-0.00371606 0.000696835 0)
(-0.00394399 0.000382277 0)
(-0.00407264 5.30106e-05 0)
(-0.00409792 -0.000285498 0)
(-0.00401749 -0.000627516 0)
(-0.00383093 -0.000966496 0)
(-0.00354023 -0.00129435 0)
(-0.00315067 -0.0016002 0)
(-0.00267158 -0.00186865 0)
(-0.00211635 -0.00207913 0)
(-0.0015034 -0.00220899 0)
(-0.000861454 -0.00223747 0)
(-0.000212455 -0.00207793 0)
(-0.000208802 0.00224767 0)
(-0.000860416 0.00242208 0)
(-0.0015187 0.00237959 0)
(-0.00215542 0.0022371 0)
(-0.00274153 0.00201026 0)
(-0.00325968 0.00171488 0)
(-0.00369702 0.0013676 0)
(-0.00404315 0.000982065 0)
(-0.00429014 0.000568524 0)
(-0.00443213 0.000135078 0)
(-0.00446482 -0.000311022 0)
(-0.00438533 -0.000762336 0)
(-0.00419231 -0.00121026 0)
(-0.00388645 -0.00164388 0)
(-0.00347137 -0.00204846 0)
(-0.00295454 -0.00240437 0)
(-0.00234794 -0.0026883 0)
(-0.00167101 -0.00287827 0)
(-0.000956936 -0.00295337 0)
(-0.0002422 -0.00278685 0)
(-0.000240903 0.0029506 0)
(-0.000956255 0.00314811 0)
(-0.00168827 0.00307164 0)
(-0.00239666 0.00287869 0)
(-0.00304657 0.00258771 0)
(-0.00361806 0.00221456 0)
(-0.00409841 0.00177754 0)
(-0.00447832 0.00129302 0)
(-0.00475087 0.000773669 0)
(-0.00491079 0.000229358 0)
(-0.00495384 -0.000331373 0)
(-0.00487644 -0.00089992 0)
(-0.00467577 -0.00146615 0)
(-0.00435037 -0.00201677 0)
(-0.00390117 -0.00253344 0)
(-0.00333303 -0.00299197 0)
(-0.00265683 -0.00336478 0)
(-0.00189487 -0.00362673 0)
(-0.00108783 -0.00375071 0)
(-0.000286988 -0.00356407 0)
(-0.000287504 0.00372345 0)
(-0.00108624 0.00395549 0)
(-0.00190956 0.00384578 0)
(-0.00270662 0.00359589 0)
(-0.00343563 0.00323029 0)
(-0.00407328 0.00276783 0)
(-0.00460673 0.00223019 0)
(-0.00502806 0.00163698 0)
(-0.00533199 0.00100315 0)
(-0.00551441 0.000339787 0)
(-0.0055714 -0.00034405 0)
(-0.00549862 -0.00103951 0)
(-0.00529127 -0.00173587 0)
(-0.00494472 -0.0024182 0)
(-0.00445596 -0.00306481 0)
(-0.00382601 -0.00364609 0)
(-0.00306397 -0.00412769 0)
(-0.0021952 -0.00447692 0)
(-0.00126925 -0.00465558 0)
(-0.000352141 -0.00443949 0)
(-0.000350135 0.00459125 0)
(-0.00125654 0.00486652 0)
(-0.00219277 0.00472107 0)
(-0.0030973 0.00440517 0)
(-0.00392052 0.00395178 0)
(-0.00463571 0.00338561 0)
(-0.00523045 0.00273384 0)
(-0.00569911 0.00202022 0)
(-0.00603904 0.00126193 0)
(-0.00624817 0.000470581 0)
(-0.00632346 -0.00034539 0)
(-0.00625983 -0.00117829 0)
(-0.00604991 -0.00201825 0)
(-0.0056847 -0.00284995 0)
(-0.00515529 -0.00364887 0)
(-0.00445654 -0.00437908 0)
(-0.00359336 -0.00499642 0)
(-0.00259284 -0.00545573 0)
(-0.00151427 -0.00570212 0)
(-0.000441567 -0.00545096 0)
(-0.000431204 0.00558264 0)
(-0.00147451 0.00590813 0)
(-0.00255012 0.00572004 0)
(-0.00358378 0.00532431 0)
(-0.0045168 0.00476534 0)
(-0.00531947 0.00407704 0)
(-0.00598125 0.00329463 0)
(-0.00650059 0.00244716 0)
(-0.0068792 0.00155393 0)
(-0.00711849 0.000626077 0)
(-0.00721722 -0.000330209 0)
(-0.00716984 -0.00131044 0)
(-0.00696588 -0.00230781 0)
(-0.00659034 -0.00330874 0)
(-0.00602563 -0.00428718 0)
(-0.00525633 -0.00520051 0)
(-0.00427836 -0.00599158 0)
(-0.00311685 -0.00659649 0)
(-0.00184129 -0.00693468 0)
(-0.000561438 -0.00664555 0)
(-0.000535316 0.00673211 0)
(-0.00175218 0.0071134 0)
(-0.00299981 0.00686969 0)
(-0.00418768 0.00637291 0)
(-0.00524621 0.00568345 0)
(-0.00614379 0.00484884 0)
(-0.00687444 0.00391559 0)
(-0.00744372 0.00291938 0)
(-0.00786047 0.00188124 0)
(-0.00813173 0.000810363 0)
(-0.00825962 -0.000291561 0)
(-0.00823881 -0.00142616 0)
(-0.00805532 -0.00259298 0)
(-0.00768644 -0.00378369 0)
(-0.00710205 -0.0049737 0)
(-0.00627007 -0.00611475 0)
(-0.00516876 -0.00713421 0)
(-0.0038127 -0.0079412 0)
(-0.00227952 -0.00841322 0)
(-0.000721614 -0.00808462 0)
(-0.000670644 0.00808433 0)
(-0.00210963 0.00852434 0)
(-0.00357022 0.0082027 0)
(-0.00494087 0.00757223 0)
(-0.00613916 0.00671663 0)
(-0.007134 0.00570347 0)
(-0.00792859 0.00459464 0)
(-0.00854038 0.00343374 0)
(-0.00898936 0.0022427 0)
(-0.00929134 0.00102649 0)
(-0.00945407 -0.000220855 0)
(-0.00947376 -0.00151059 0)
(-0.00933319 -0.00285361 0)
(-0.00900056 -0.00425228 0)
(-0.00842882 -0.00568924 0)
(-0.00756021 -0.00711513 0)
(-0.00634036 -0.00844225 0)
(-0.00475407 -0.00954381 0)
(-0.00287535 -0.0102241 0)
(-0.000936537 -0.00985223 0)
(-0.000851588 0.00970155 0)
(-0.0025807 0.0101965 0)
(-0.00430591 0.00975861 0)
(-0.00589031 0.00894384 0)
(-0.00723755 0.00787069 0)
(-0.00832227 0.00663568 0)
(-0.00916449 0.00532113 0)
(-0.00980063 0.00397949 0)
(-0.0102675 0.0026317 0)
(-0.0105936 0.00127517 0)
(-0.0107953 -0.000107735 0)
(-0.0108728 -0.0015426 0)
(-0.0108074 -0.00305775 0)
(-0.0105582 -0.00467426 0)
(-0.0100576 -0.00639212 0)
(-0.00921162 -0.00817228 0)
(-0.00790959 -0.00992155 0)
(-0.00606342 -0.0114729 0)
(-0.00370164 -0.0124976 0)
(-0.00122383 -0.0120609 0)
(-0.00110463 0.0116754 0)
(-0.00322362 0.0122061 0)
(-0.0052765 0.011585 0)
(-0.00710336 0.0105066 0)
(-0.00859625 0.0091416 0)
(-0.00974596 0.00762692 0)
(-0.0106011 0.00607074 0)
(-0.0112271 0.00453396 0)
(-0.0116844 0.00303282 0)
(-0.0120195 0.00155242 0)
(-0.0122603 5.85157e-05 0)
(-0.0124148 -0.00149457 0)
(-0.0124669 -0.00315879 0)
(-0.0123699 -0.00498423 0)
(-0.0120373 -0.007004 0)
(-0.0113312 -0.00921238 0)
(-0.0100523 -0.0115421 0)
(-0.00794886 -0.013809 0)
(-0.00487441 -0.015428 0)
(-0.00159462 -0.0148354 0)
(-0.0014782 0.0141679 0)
(-0.00413272 0.0146641 0)
(-0.00658264 0.013737 0)
(-0.00866589 0.0122691 0)
(-0.0102751 0.0105059 0)
(-0.0114353 0.00863591 0)
(-0.0122407 0.00679745 0)
(-0.0127983 0.00505631 0)
(-0.0132006 0.0034171 0)
(-0.0135161 0.00184562 0)
(-0.0137883 0.000285295 0)
(-0.0140366 -0.00133441 0)
(-0.0142539 -0.0030945 0)
(-0.014399 -0.00508418 0)
(-0.01438 -0.00738951 0)
(-0.0140248 -0.010076 0)
(-0.0130205 -0.0131862 0)
(-0.0107691 -0.0166693 0)
(-0.0066081 -0.0195008 0)
(-0.00204634 -0.0185408 0)
(-0.00205767 0.0173031 0)
(-0.0054626 0.0176776 0)
(-0.00834361 0.0162373 0)
(-0.0106507 0.014196 0)
(-0.0122972 0.0118959 0)
(-0.0133683 0.00958085 0)
(-0.0140229 0.00742122 0)
(-0.0144238 0.00547889 0)
(-0.0147023 0.00373559 0)
(-0.014952 0.00212825 0)
(-0.0152333 0.000572215 0)
(-0.0155809 -0.00102966 0)
(-0.016005 -0.0027887 0)
(-0.0164887 -0.00483755 0)
(-0.0169733 -0.00732765 0)
(-0.0173247 -0.0104416 0)
(-0.0171881 -0.0145317 0)
(-0.0153273 -0.020315 0)
(-0.00982624 -0.0262701 0)
(-0.00320989 -0.0242587 0)
(-0.00291589 0.0219827 0)
(-0.00725341 0.0214349 0)
(-0.0105715 0.0190433 0)
(-0.0129846 0.0161724 0)
(-0.0145171 0.0131787 0)
(-0.015345 0.0103299 0)
(-0.0157053 0.00782298 0)
(-0.0158287 0.00570358 0)
(-0.0158899 0.00391545 0)
(-0.0160064 0.00235374 0)
(-0.0162515 0.000898122 0)
(-0.0166691 -0.0005729 0)
(-0.0173003 -0.00218267 0)
(-0.0181914 -0.0040801 0)
(-0.0193931 -0.00646162 0)
(-0.0210322 -0.0096429 0)
(-0.0232589 -0.0144759 0)
(-0.024419 -0.0234707 0)
(-0.0198357 -0.0330509 0)
(-0.0124441 -0.0271969 0)
(-0.00483026 0.0245494 0)
(-0.0102674 0.0244706 0)
(-0.0131528 0.0212889 0)
(-0.0152091 0.0177723 0)
(-0.0163123 0.0141769 0)
(-0.0166645 0.0107391 0)
(-0.016535 0.00786327 0)
(-0.016219 0.00560992 0)
(-0.0159388 0.00386664 0)
(-0.0158351 0.00245637 0)
(-0.0159765 0.00120965 0)
(-0.0163994 -8.13117e-06 0)
(-0.017156 -0.00131219 0)
(-0.0183681 -0.00280087 0)
(-0.0202854 -0.0045741 0)
(-0.0237306 -0.00669808 0)
(-0.0308998 -0.00959095 0)
(-0.0399222 -0.0172807 0)
(-0.0463483 -0.0315474 0)
(-0.0475457 -0.047167 0)
(-0.00586574 0.0454666 0)
(-0.0107704 0.0373418 0)
(-0.0131555 0.0290668 0)
(-0.0145631 0.0221028 0)
(-0.0150504 0.0160579 0)
(-0.0147253 0.011158 0)
(-0.0137685 0.00750604 0)
(-0.0126628 0.005049 0)
(-0.0117665 0.00345561 0)
(-0.0112449 0.00233402 0)
(-0.011124 0.0014153 0)
(-0.0113912 0.000559723 0)
(-0.0120583 -0.000281011 0)
(-0.0132248 -0.0010462 0)
(-0.0152122 -0.00142366 0)
(-0.0188509 -0.000843745 0)
(-0.0276202 0.00281011 0)
(-0.0377665 -0.00587963 0)
(-0.0634848 -0.056952 0)
(-0.0696426 -0.142341 0)
(-0.00724829 0.0187504 0)
(-0.00907658 0.0119664 0)
(-0.00640285 0.00982405 0)
(-0.00257261 0.0101466 0)
(0.00206328 0.00844835 0)
(0.00655529 0.00588239 0)
(0.0105615 0.00402756 0)
(0.0137667 0.00298516 0)
(0.0159904 0.00231475 0)
(0.0173423 0.00177099 0)
(0.0180668 0.00127946 0)
(0.01835 0.000825029 0)
(0.0182679 0.000450099 0)
(0.0179125 0.000305131 0)
(0.0172071 0.00103324 0)
(0.0189018 0.00344765 0)
(0.0119356 0.0119682 0)
(0.0367611 0.0142 0)
(-0.0161658 -0.0179537 0)
(0.00371462 -0.182399 0)
(0.0408371 0.094956 0)
(0.0643519 0.0715519 0)
(0.0904939 0.0445241 0)
(0.111714 0.0274203 0)
(0.125223 0.0159367 0)
(0.132637 0.00767764 0)
(0.136236 0.0025865 0)
(0.138109 0.000488559 0)
(0.139517 0.000208727 0)
(0.140875 0.000472179 0)
(0.142125 0.00064056 0)
(0.143155 0.000633314 0)
(0.143905 0.000526133 0)
(0.144532 0.00036687 0)
(0.144678 0.000207838 0)
(0.147932 0.000521728 0)
(0.142442 0.000934242 0)
(0.182807 0.00195937 0)
(0.0700261 0.0256096 0)
(0.347211 -0.0797234 0)
)
;

boundaryField
{
    movingWall
    {
        type            calculated;
        value           uniform (1.00018 -0.000181252 0);
    }
    fixedWalls
    {
        type            calculated;
        value           uniform (0.000181574 -0.000181252 0);
    }
    frontAndBack
    {
        type            empty;
    }
}


// ************************************************************************* //
