/*--------------------------------*- C++ -*----------------------------------*\
| =========                 |                                                 |
| \\      /  F ield         | OpenFOAM: The Open Source CFD Toolbox           |
|  \\    /   O peration     | Version:  2312                                  |
|   \\  /    A nd           | Website:  www.openfoam.com                      |
|    \\/     M anipulation  |                                                 |
\*---------------------------------------------------------------------------*/
FoamFile
{
    version     2.0;
    format      ascii;
    arch        "LSB;label=32;scalar=64";
    class       volScalarField;
    location    "0.25";
    object      diffP;
}
// * * * * * * * * * * * * * * * * * * * * * * * * * * * * * * * * * * * * * //

dimensions      [0 2 -2 0 0 0 0];

internalField   nonuniform List<scalar> 
400
(
-3
-3
-3.00002
-3.00007
-3.00014
-3.00023
-3.00034
-3.00046
-3.0006
-3.00075
-3.0009
-3.00105
-3.0012
-3.00133
-3.00146
-3.00157
-3.00166
-3.00172
-3.00175
-3.00176
-3
-3
-3.00002
-3.00007
-3.00014
-3.00023
-3.00034
-3.00046
-3.0006
-3.00074
-3.00089
-3.00104
-3.00119
-3.00133
-3.00146
-3.00157
-3.00166
-3.00172
-3.00176
-3.00176
-3
-3
-3
-3.00005
-3.00012
-3.00021
-3.00032
-3.00045
-3.00059
-3.00074
-3.00089
-3.00104
-3.0012
-3.00134
-3.00147
-3.00159
-3.00168
-3.00175
-3.00179
-3.00179
-3
-3
-3
-3
-3.00007
-3.00017
-3.00029
-3.00042
-3.00057
-3.00072
-3.00089
-3.00105
-3.00121
-3.00137
-3.00151
-3.00164
-3.00174
-3.00182
-3.00185
-3.00185
-3
-3
-3
-3
-3
-3.0001
-3.00023
-3.00037
-3.00053
-3.0007
-3.00088
-3.00106
-3.00124
-3.00141
-3.00157
-3.00171
-3.00183
-3.00191
-3.00195
-3.00195
-3
-3
-3
-3
-3
-3.00001
-3.00015
-3.00031
-3.00048
-3.00067
-3.00087
-3.00107
-3.00127
-3.00147
-3.00165
-3.00181
-3.00194
-3.00204
-3.00208
-3.00208
-3
-3
-3
-3
-3
-3
-3.00005
-3.00022
-3.00042
-3.00063
-3.00085
-3.00108
-3.00131
-3.00153
-3.00174
-3.00193
-3.00209
-3.0022
-3.00225
-3.00225
-3
-3
-3
-3
-3
-3
-3
-3.00012
-3.00034
-3.00058
-3.00083
-3.00109
-3.00135
-3.00161
-3.00186
-3.00208
-3.00226
-3.0024
-3.00246
-3.00246
-3
-3
-3
-3
-3
-3
-3
-3
-3.00024
-3.00051
-3.00079
-3.00109
-3.00139
-3.0017
-3.00199
-3.00225
-3.00248
-3.00264
-3.00273
-3.00273
-3
-3
-3
-3
-3
-3
-3
-3
-3.00011
-3.00042
-3.00074
-3.00109
-3.00144
-3.00179
-3.00213
-3.00246
-3.00274
-3.00295
-3.00305
-3.00306
-3
-3
-3
-3
-3
-3
-3
-3
-3
-3.0003
-3.00067
-3.00107
-3.00147
-3.00189
-3.0023
-3.00269
-3.00304
-3.00331
-3.00346
-3.00348
-3
-3
-3
-3
-3
-3
-3
-3
-3
-3.00016
-3.00058
-3.00103
-3.00149
-3.00198
-3.00247
-3.00295
-3.0034
-3.00376
-3.00397
-3.004
-3
-3
-3
-3
-3
-3
-3
-3
-3
-3
-3.00045
-3.00096
-3.00149
-3.00205
-3.00263
-3.00323
-3.0038
-3.0043
-3.00462
-3.00465
-3
-3
-3
-3
-3
-3
-3
-3
-3
-3
-3.00028
-3.00085
-3.00145
-3.00209
-3.00277
-3.00349
-3.00424
-3.00495
-3.00542
-3.00546
-3
-3
-3
-3
-3
-3
-3
-3
-3
-3
-3.00007
-3.00069
-3.00136
-3.00207
-3.00285
-3.00371
-3.00467
-3.00569
-3.00648
-3.00654
-3
-3
-3
-3
-3
-3
-3
-3
-3
-3
-3
-3.00049
-3.0012
-3.00197
-3.00283
-3.0038
-3.00498
-3.00665
-3.00864
-3.00852
-3
-3
-3
-3
-3
-3
-3
-3
-3
-3
-3
-3.00022
-3.00096
-3.00175
-3.00261
-3.00356
-3.0048
-3.0074
-3.01117
-3.00854
-3
-3
-3
-3
-3
-3
-3
-3
-3
-3
-3
-3
-3.00066
-3.00142
-3.00217
-3.00282
-3.00328
-3.00376
-3.00146
-3
-3
-3
-3
-3
-3
-3
-3
-3
-3
-3
-3
-3
-3.00034
-3.00096
-3.00149
-3.00184
-3.00065
-3
-3
-3.0055
-3
-3.0011
-3
-3
-3
-3
-3
-3
-3
-3
-3
-3
-3.00023
-3.00089
-3.00139
-3.00169
-3.00014
-3
-3
-3.06093
)
;

boundaryField
{
    movingWall
    {
        type            calculated;
        value           nonuniform List<scalar> 
20
(
-3
-3.0011
-3
-3
-3
-3
-3
-3
-3
-3
-3
-3
-3.00023
-3.00089
-3.00139
-3.00169
-3.00014
-3
-3
-3.06093
)
;
    }
    fixedWalls
    {
        type            calculated;
        value           nonuniform List<scalar> 
60
(
-3
-3
-3
-3
-3
-3
-3
-3
-3
-3
-3
-3
-3
-3
-3
-3
-3
-3
-3
-3
-3.00176
-3.00176
-3.00179
-3.00185
-3.00195
-3.00208
-3.00225
-3.00246
-3.00273
-3.00306
-3.00348
-3.004
-3.00465
-3.00546
-3.00654
-3.00852
-3.00854
-3
-3.0055
-3.06093
-3
-3
-3.00002
-3.00007
-3.00014
-3.00023
-3.00034
-3.00046
-3.0006
-3.00075
-3.0009
-3.00105
-3.0012
-3.00133
-3.00146
-3.00157
-3.00166
-3.00172
-3.00175
-3.00176
)
;
    }
    frontAndBack
    {
        type            empty;
    }
}


// ************************************************************************* //
