/*--------------------------------*- C++ -*----------------------------------*\
| =========                 |                                                 |
| \\      /  F ield         | OpenFOAM: The Open Source CFD Toolbox           |
|  \\    /   O peration     | Version:  2312                                  |
|   \\  /    A nd           | Website:  www.openfoam.com                      |
|    \\/     M anipulation  |                                                 |
\*---------------------------------------------------------------------------*/
FoamFile
{
    version     2.0;
    format      ascii;
    arch        "LSB;label=32;scalar=64";
    class       volScalarField;
    location    "0.25";
    object      divPhi;
}
// * * * * * * * * * * * * * * * * * * * * * * * * * * * * * * * * * * * * * //

dimensions      [0 0 -1 0 0 0 0];

internalField   nonuniform List<scalar> 
400
(
-7.2898e-06
-2.74349e-07
-3.45083e-07
-3.29156e-07
-2.8881e-07
-2.5381e-07
-2.27065e-07
-2.09209e-07
-1.95791e-07
-1.86763e-07
-1.79327e-07
-1.75037e-07
-1.71894e-07
-1.69687e-07
-1.66288e-07
-1.61353e-07
-1.44395e-07
-1.35849e-07
-2.09368e-07
-7.13402e-08
-1.57452e-07
-2.28932e-07
-2.79057e-07
-2.7564e-07
-2.56862e-07
-2.32081e-07
-2.14787e-07
-1.99176e-07
-1.89651e-07
-1.80315e-07
-1.75024e-07
-1.69925e-07
-1.67928e-07
-1.66264e-07
-1.62353e-07
-1.52215e-07
-1.49983e-07
-1.58622e-07
-1.25054e-07
-1.20154e-07
7.88853e-08
-9.71116e-08
-1.75874e-07
-2.02598e-07
-2.01927e-07
-1.94622e-07
-1.84732e-07
-1.76923e-07
-1.69365e-07
-1.63778e-07
-1.58835e-07
-1.55742e-07
-1.53683e-07
-1.52278e-07
-1.49786e-07
-1.4446e-07
-1.26729e-07
-1.16844e-07
-2.20094e-07
-4.73841e-08
-5.99422e-08
-8.15914e-08
-1.24762e-07
-1.47969e-07
-1.57327e-07
-1.57594e-07
-1.55435e-07
-1.51406e-07
-1.47638e-07
-1.43709e-07
-1.40648e-07
-1.38255e-07
-1.37099e-07
-1.36875e-07
-1.3388e-07
-1.23268e-07
-1.23121e-07
-1.518e-07
-7.29917e-08
-1.16129e-07
7.63438e-08
-2.82394e-08
-7.80731e-08
-1.04712e-07
-1.17119e-07
-1.23108e-07
-1.24678e-07
-1.24653e-07
-1.23218e-07
-1.2155e-07
-1.19882e-07
-1.18778e-07
-1.18449e-07
-1.17768e-07
-1.16539e-07
-1.13467e-07
-9.4912e-08
-7.23227e-08
-2.10741e-07
-1.79711e-08
-7.44656e-08
-4.67823e-08
-5.92459e-08
-7.37697e-08
-8.50014e-08
-9.16663e-08
-9.57323e-08
-9.74346e-08
-9.79749e-08
-9.77104e-08
-9.72394e-08
-9.71672e-08
-9.71597e-08
-9.81594e-08
-9.60009e-08
-8.54027e-08
-8.80661e-08
-1.28405e-07
-1.24242e-08
-9.96594e-08
6.13283e-08
-5.89702e-09
-3.1532e-08
-4.62384e-08
-5.56354e-08
-6.24471e-08
-6.6727e-08
-6.95914e-08
-7.11171e-08
-7.1868e-08
-7.26325e-08
-7.30421e-08
-7.40137e-08
-7.39279e-08
-7.32064e-08
-7.23352e-08
-5.39738e-08
-1.92766e-08
-1.79084e-07
1.47337e-08
-6.52897e-08
-2.03651e-08
-1.69643e-08
-2.18994e-08
-2.8306e-08
-3.36138e-08
-3.80037e-08
-4.10513e-08
-4.31664e-08
-4.48526e-08
-4.58871e-08
-4.71648e-08
-4.79531e-08
-4.92287e-08
-4.74288e-08
-3.72478e-08
-4.24614e-08
-8.98892e-08
5.22544e-08
-7.27802e-08
7.97362e-08
2.79349e-08
1.25784e-08
4.96386e-09
-3.26072e-10
-4.97132e-09
-8.62634e-09
-1.16537e-08
-1.40812e-08
-1.58726e-08
-1.76832e-08
-1.8969e-08
-2.02556e-08
-2.01131e-08
-1.95833e-08
-2.07406e-08
-4.09876e-09
3.84184e-08
-1.28683e-07
4.69052e-08
-1.90665e-08
2.51058e-08
3.19517e-08
3.07536e-08
2.74867e-08
2.42006e-08
2.09929e-08
1.824e-08
1.59241e-08
1.37692e-08
1.2116e-08
1.05486e-08
9.69964e-09
8.60685e-09
1.01207e-08
1.89246e-08
1.05573e-08
-4.04816e-08
1.14042e-07
-3.7837e-08
1.18019e-07
7.55834e-08
6.39467e-08
5.91468e-08
5.61008e-08
5.33279e-08
5.08525e-08
4.85302e-08
4.63415e-08
4.4501e-08
4.26088e-08
4.13015e-08
4.02395e-08
4.06409e-08
4.08795e-08
3.70695e-08
4.95871e-08
9.52823e-08
-6.36126e-08
7.55003e-08
4.40742e-08
7.99189e-08
8.53813e-08
8.48642e-08
8.33134e-08
8.14858e-08
7.97508e-08
7.78525e-08
7.62635e-08
7.44272e-08
7.31299e-08
7.19315e-08
7.1515e-08
7.08692e-08
7.16576e-08
7.77616e-08
6.64771e-08
1.5724e-08
1.6761e-07
5.12657e-09
1.55344e-07
1.22665e-07
1.13169e-07
1.10097e-07
1.08354e-07
1.07454e-07
1.06209e-07
1.05383e-07
1.04077e-07
1.03217e-07
1.02145e-07
1.01682e-07
1.01519e-07
1.02549e-07
1.02612e-07
9.61718e-08
1.02388e-07
1.47683e-07
1.65646e-08
9.98756e-08
1.0425e-07
1.28287e-07
1.30724e-07
1.3039e-07
1.29896e-07
1.29834e-07
1.29437e-07
1.29362e-07
1.28824e-07
1.28723e-07
1.28408e-07
1.28925e-07
1.29659e-07
1.30325e-07
1.30288e-07
1.33247e-07
1.2093e-07
7.64598e-08
2.09282e-07
5.32252e-08
1.77014e-07
1.55337e-07
1.49384e-07
1.46856e-07
1.47589e-07
1.47246e-07
1.48753e-07
1.48516e-07
1.49984e-07
1.49912e-07
1.51599e-07
1.52446e-07
1.54542e-07
1.56237e-07
1.57181e-07
1.48557e-07
1.4647e-07
1.86196e-07
1.03354e-07
1.13776e-07
1.51409e-07
1.60284e-07
1.59401e-07
1.5912e-07
1.59627e-07
1.60826e-07
1.62102e-07
1.63474e-07
1.64851e-07
1.66378e-07
1.68472e-07
1.70954e-07
1.73635e-07
1.75524e-07
1.74729e-07
1.72276e-07
1.59353e-07
1.27914e-07
2.22304e-07
9.16702e-08
1.81669e-07
1.76195e-07
1.72021e-07
1.73496e-07
1.72348e-07
1.75836e-07
1.75718e-07
1.79137e-07
1.79397e-07
1.8281e-07
1.84415e-07
1.88376e-07
1.90266e-07
1.93449e-07
1.9244e-07
1.81925e-07
1.69757e-07
1.97292e-07
1.71589e-07
1.11198e-07
1.80758e-07
1.83358e-07
1.84952e-07
1.84625e-07
1.87074e-07
1.87688e-07
1.90377e-07
1.909e-07
1.93394e-07
1.94673e-07
1.97792e-07
2.00039e-07
2.03313e-07
2.04494e-07
2.01707e-07
1.91958e-07
1.78477e-07
1.67303e-07
2.13171e-07
1.01216e-07
1.8204e-07
1.81642e-07
1.82812e-07
1.82476e-07
1.83876e-07
1.83775e-07
1.8509e-07
1.85008e-07
1.86328e-07
1.87105e-07
1.89319e-07
1.90984e-07
1.92807e-07
1.93244e-07
1.90187e-07
1.77463e-07
1.61804e-07
1.82057e-07
2.00863e-07
9.47887e-08
8.79757e-08
8.62419e-08
8.40711e-08
8.36829e-08
8.24628e-08
8.27278e-08
8.21414e-08
8.26422e-08
8.25524e-08
8.33921e-08
8.38315e-08
8.47275e-08
8.54231e-08
8.55877e-08
8.16137e-08
7.31965e-08
7.16894e-08
8.89866e-08
9.46328e-08
0
)
;

boundaryField
{
    movingWall
    {
        type            extrapolatedCalculated;
        value           nonuniform List<scalar> 
20
(
8.79757e-08
8.62419e-08
8.40711e-08
8.36829e-08
8.24628e-08
8.27278e-08
8.21414e-08
8.26422e-08
8.25524e-08
8.33921e-08
8.38315e-08
8.47275e-08
8.54231e-08
8.55877e-08
8.16137e-08
7.31965e-08
7.16894e-08
8.89866e-08
9.46328e-08
0
)
;
    }
    fixedWalls
    {
        type            extrapolatedCalculated;
        value           nonuniform List<scalar> 
60
(
-7.2898e-06
-1.57452e-07
7.88853e-08
-5.99422e-08
7.63438e-08
-7.44656e-08
6.13283e-08
-6.52897e-08
7.97362e-08
-1.90665e-08
1.18019e-07
4.40742e-08
1.55344e-07
1.0425e-07
1.77014e-07
1.51409e-07
1.81669e-07
1.80758e-07
1.8204e-07
8.79757e-08
-7.13402e-08
-1.20154e-07
-4.73841e-08
-1.16129e-07
-1.79711e-08
-9.96594e-08
1.47337e-08
-7.27802e-08
4.69052e-08
-3.7837e-08
7.55003e-08
5.12657e-09
9.98756e-08
5.32252e-08
1.13776e-07
9.16702e-08
1.11198e-07
1.01216e-07
9.47887e-08
0
-7.2898e-06
-2.74349e-07
-3.45083e-07
-3.29156e-07
-2.8881e-07
-2.5381e-07
-2.27065e-07
-2.09209e-07
-1.95791e-07
-1.86763e-07
-1.79327e-07
-1.75037e-07
-1.71894e-07
-1.69687e-07
-1.66288e-07
-1.61353e-07
-1.44395e-07
-1.35849e-07
-2.09368e-07
-7.13402e-08
)
;
    }
    frontAndBack
    {
        type            empty;
    }
}


// ************************************************************************* //
