/*--------------------------------*- C++ -*----------------------------------*\
| =========                 |                                                 |
| \\      /  F ield         | OpenFOAM: The Open Source CFD Toolbox           |
|  \\    /   O peration     | Version:  2312                                  |
|   \\  /    A nd           | Website:  www.openfoam.com                      |
|    \\/     M anipulation  |                                                 |
\*---------------------------------------------------------------------------*/
FoamFile
{
    version     2.0;
    format      ascii;
    arch        "LSB;label=32;scalar=64";
    class       volScalarField;
    location    "0.25";
    object      flowTypeField;
}
// * * * * * * * * * * * * * * * * * * * * * * * * * * * * * * * * * * * * * //

dimensions      [0 0 0 0 0 0 0];

internalField   nonuniform List<scalar> 
400
(
0.249636
0.219244
0.141436
0.0884835
0.0554167
0.0360708
0.0251369
0.0190555
0.0155792
0.0140526
0.014116
0.0155276
0.0188277
0.0249517
0.0358488
0.0550384
0.0876169
0.139746
0.218372
0.25253
0.218239
0.594199
0.728884
0.808793
0.833398
0.81673
0.774564
0.715102
0.643938
0.577033
0.569553
0.630038
0.708862
0.774944
0.819909
0.835974
0.809773
0.731156
0.603844
0.220907
0.140731
0.715779
0.833629
0.918433
0.977614
0.987664
0.968455
0.954927
0.942011
0.930967
0.928154
0.93656
0.949585
0.964724
0.986352
0.97656
0.917241
0.836409
0.726143
0.141286
0.0893744
0.781701
0.890615
0.948167
0.993767
0.974369
0.953726
0.938767
0.926726
0.918675
0.917742
0.924765
0.937182
0.953562
0.97613
0.990589
0.945899
0.89224
0.789423
0.0892346
0.0575461
0.799876
0.916595
0.956461
0.987876
0.988281
0.972823
0.963175
0.95708
0.953867
0.953823
0.957154
0.963861
0.974707
0.991711
0.983491
0.952928
0.91604
0.805284
0.0574902
0.0388312
0.791719
0.92171
0.954771
0.978771
0.997432
0.990635
0.984198
0.981023
0.97975
0.97991
0.981606
0.985513
0.993163
0.993373
0.973711
0.950144
0.919483
0.797086
0.0390911
0.0280946
0.775753
0.91784
0.950049
0.971874
0.988713
0.999197
0.995615
0.993489
0.992826
0.992982
0.99406
0.996936
0.996576
0.984412
0.966289
0.944605
0.914872
0.783226
0.0286639
0.0217571
0.760351
0.911594
0.945192
0.967446
0.984415
0.994745
0.999632
0.998525
0.998018
0.998147
0.999035
0.998332
0.991989
0.979679
0.961124
0.938959
0.90848
0.771342
0.0226098
0.0177776
0.74756
0.905068
0.940617
0.964324
0.982266
0.993028
0.998004
0.999821
0.999698
0.999821
0.999304
0.996593
0.989886
0.976722
0.956859
0.933393
0.902095
0.763148
0.0189723
0.0150597
0.737176
0.89839
0.935951
0.961568
0.980895
0.992368
0.997602
0.999486
0.999981
0.999856
0.998923
0.995974
0.988615
0.974159
0.9525
0.927495
0.895914
0.758698
0.0168371
0.01298
0.728468
0.89115
0.930867
0.958874
0.980002
0.992447
0.998078
0.999895
0.999341
0.999447
0.999546
0.996262
0.988002
0.971806
0.947865
0.921259
0.890268
0.758082
0.0159238
0.0110924
0.720797
0.883253
0.925823
0.957162
0.980805
0.994657
0.99905
0.996704
0.995952
0.995932
0.996966
0.999346
0.989871
0.971314
0.944394
0.916083
0.886154
0.760613
0.0164103
0.00918491
0.715095
0.876977
0.924357
0.960963
0.988613
0.995114
0.987537
0.984317
0.982882
0.982416
0.983401
0.987623
0.998868
0.978776
0.947113
0.916235
0.88527
0.76232
0.0200814
0.00636238
0.715753
0.881669
0.938818
0.985356
0.9795
0.958845
0.947779
0.941422
0.93749
0.935757
0.937383
0.943818
0.958991
0.988852
0.9679
0.930582
0.893027
0.742331
0.0151974
0.00785638
0.739475
0.924242
0.996119
0.93053
0.882551
0.849759
0.825281
0.80515
0.790373
0.784642
0.789328
0.80607
0.839594
0.8959
0.972733
0.964829
0.87663
0.538102
-0.139646
-0.0190046
0.795921
0.940456
0.815587
0.712733
0.626337
0.545929
0.460031
0.370114
0.299698
0.281385
0.322374
0.403231
0.511029
0.646741
0.820426
0.991971
0.757615
0.149209
-0.280962
0.0775497
0.980668
0.633358
0.398892
0.152302
-0.0871637
-0.365312
-0.653176
-0.699286
-0.557873
-0.450713
-0.368669
-0.273788
-0.125346
0.126101
0.464852
0.709954
0.697982
0.711503
0.218844
-0.00549397
0.183568
-0.0710546
-0.395139
-0.454533
-0.321913
-0.205763
-0.127244
-0.0824738
-0.0610441
-0.0521063
-0.0481011
-0.0425282
-0.0236889
0.026665
0.151022
0.0732936
-0.32457
-0.174881
0.42634
0.745726
-0.0123382
-0.00435353
-0.00771142
-0.0281591
-0.027946
-0.0175603
-0.0102317
-0.0075084
-0.00663548
-0.00613789
-0.00536543
-0.00331603
0.00375873
0.0197227
0.0660307
0.0680886
-0.124406
-0.4023
0.483839
0.0874474
-0.0246087
-0.0222844
-0.014735
-0.0103874
-0.00712689
-0.00386698
-0.0012826
-6.53117e-06
0.00023642
8.91022e-05
-6.12686e-05
-0.000144404
-0.000172935
8.63224e-05
0.00039971
0.000982666
0.014701
-0.0381047
0.0711001
)
;

boundaryField
{
    movingWall
    {
        type            calculated;
        value           nonuniform List<scalar> 
20
(
0.0482874
-0.0103832
-0.0108077
-0.00750567
-0.00545143
-0.00380071
-0.00207389
-0.000688795
-4.33251e-06
0.000126211
4.7627e-05
-3.27926e-05
-7.73695e-05
-9.27673e-05
4.58506e-05
0.000213639
0.000471476
0.00779203
-0.0205363
0.0392019
)
;
    }
    fixedWalls
    {
        type            calculated;
        value           nonuniform List<scalar> 
60
(
0.121876
0.0954186
0.0508593
0.0288215
0.0164
0.00945241
0.00559661
0.00334767
0.00189264
0.000794843
-0.000213426
-0.00136157
-0.00283504
-0.00499167
-0.00593887
-0.0176927
0.0172075
-0.00389049
0.670514
0.196909
0.123728
0.0956103
0.0501343
0.0279003
0.0155179
0.00863201
0.0047813
0.00247681
0.000940028
-0.00018651
-0.000992483
-0.00131906
-0.000560804
-0.00620353
-0.0911754
-0.202584
0.164005
0.18963
0.572969
0.356135
0.123341
0.0994207
0.055606
0.0337096
0.0213775
0.0145414
0.0108321
0.00885452
0.00773222
0.00727769
0.00735966
0.00785553
0.00897923
0.0110604
0.0148186
0.021622
0.0337153
0.0550398
0.0983469
0.12389
)
;
    }
    frontAndBack
    {
        type            empty;
    }
}


// ************************************************************************* //
