/*--------------------------------*- C++ -*----------------------------------*\
| =========                 |                                                 |
| \\      /  F ield         | OpenFOAM: The Open Source CFD Toolbox           |
|  \\    /   O peration     | Version:  2312                                  |
|   \\  /    A nd           | Website:  www.openfoam.com                      |
|    \\/     M anipulation  |                                                 |
\*---------------------------------------------------------------------------*/
FoamFile
{
    version     2.0;
    format      ascii;
    arch        "LSB;label=32;scalar=64";
    class       surfaceScalarField;
    location    "0.25";
    object      fluxField;
}
// * * * * * * * * * * * * * * * * * * * * * * * * * * * * * * * * * * * * * //

dimensions      [0 3 -1 0 0 0 0];

oriented        oriented;

internalField   nonuniform List<scalar> 
760
(
-1.93615e-08
1.93957e-08
-4.31589e-08
2.63596e-08
-7.00186e-08
2.84528e-08
-9.55964e-08
2.71716e-08
-1.18463e-07
2.42523e-08
-1.37917e-07
2.06361e-08
-1.53601e-07
1.66529e-08
-1.65284e-07
1.23942e-08
-1.72706e-07
7.88871e-09
-1.75732e-07
3.23517e-09
-1.74275e-07
-1.56022e-09
-1.68239e-07
-6.40461e-09
-1.5767e-07
-1.12234e-08
-1.42651e-07
-1.59401e-08
-1.23358e-07
-2.0467e-08
-1.00128e-07
-2.46465e-08
-7.37323e-08
-2.80607e-08
-4.57519e-08
-2.96787e-08
-2.07043e-08
-2.77255e-08
-2.07463e-08
-2.68655e-08
4.3907e-08
-5.29825e-08
5.2601e-08
-8.01458e-08
5.45253e-08
-1.06374e-07
5.211e-08
-1.3024e-07
4.69801e-08
-1.50857e-07
4.02993e-08
-1.6764e-07
3.26755e-08
-1.80188e-07
2.43853e-08
-1.88206e-07
1.55786e-08
-1.91486e-07
6.39926e-09
-1.89904e-07
-3.02136e-09
-1.83416e-07
-1.25422e-08
-1.72074e-07
-2.19937e-08
-1.56043e-07
-3.11873e-08
-1.35654e-07
-3.98765e-08
-1.11478e-07
-4.7657e-08
-8.44572e-08
-5.37723e-08
-5.61177e-08
-5.69336e-08
-2.85462e-08
-5.54613e-08
-4.68851e-08
-3.10371e-08
7.34269e-08
-5.88317e-08
8.17953e-08
-8.65251e-08
8.22922e-08
-1.13084e-07
7.82967e-08
-1.37332e-07
7.09083e-08
-1.58429e-07
6.11544e-08
-1.75722e-07
4.97825e-08
-1.88726e-07
3.72559e-08
-1.97096e-07
2.3875e-08
-2.00594e-07
9.88428e-09
-1.99078e-07
-4.4924e-09
-1.92499e-07
-1.90164e-08
-1.80918e-07
-3.34153e-08
-1.64537e-07
-4.7359e-08
-1.43751e-07
-6.04037e-08
-1.19183e-07
-7.18956e-08
-9.17125e-08
-8.08791e-08
-6.26027e-08
-8.61546e-08
-3.30274e-08
-8.65183e-08
-7.8404e-08
-3.34599e-08
1.05107e-07
-6.34686e-08
1.13606e-07
-9.30199e-08
1.12372e-07
-1.21065e-07
1.06354e-07
-1.46538e-07
9.63917e-08
-1.68675e-07
8.3344e-08
-1.86853e-07
6.80201e-08
-2.0058e-07
5.10351e-08
-2.09494e-07
3.28327e-08
-2.13343e-07
1.37648e-08
-2.11964e-07
-5.85038e-09
-2.05289e-07
-2.56837e-08
-1.93358e-07
-4.53563e-08
-1.76351e-07
-6.43931e-08
-1.54635e-07
-8.2154e-08
-1.28777e-07
-9.77627e-08
-9.95725e-08
-1.10123e-07
-6.82001e-08
-1.18119e-07
-3.59264e-08
-1.20708e-07
-1.12557e-07
-3.58091e-08
1.39019e-07
-6.85567e-08
1.48317e-07
-1.00932e-07
1.45343e-07
-1.31502e-07
1.36957e-07
-1.59109e-07
1.24012e-07
-1.82996e-07
1.07299e-07
-2.02583e-07
8.76909e-08
-2.17411e-07
6.59397e-08
-2.27135e-07
4.26174e-08
-2.31502e-07
1.81735e-08
-2.30333e-07
-6.99727e-09
-2.2352e-07
-3.24938e-08
-2.11048e-07
-5.78477e-08
-1.93024e-07
-8.24534e-08
-1.69726e-07
-1.05485e-07
-1.41641e-07
-1.25846e-07
-1.09553e-07
-1.42264e-07
-7.47775e-08
-1.53562e-07
-3.90571e-08
-1.5854e-07
-1.49711e-07
-3.90077e-08
1.75914e-07
-7.51919e-08
1.86653e-07
-1.11202e-07
1.81998e-07
-1.45159e-07
1.70927e-07
-1.75694e-07
1.54513e-07
-2.01991e-07
1.33622e-07
-2.23497e-07
1.09256e-07
-2.39808e-07
8.23126e-08
-2.5062e-07
5.3483e-08
-2.55694e-07
2.32913e-08
-2.54836e-07
-7.82296e-09
-2.47884e-07
-3.94232e-08
-2.34732e-07
-7.09879e-08
-2.15367e-07
-1.01812e-07
-1.89934e-07
-1.30894e-07
-1.58825e-07
-1.56889e-07
-1.22871e-07
-1.78249e-07
-8.36463e-08
-1.93528e-07
-4.34491e-08
-2.01095e-07
-1.91026e-07
-4.34224e-08
2.1693e-07
-8.39738e-08
2.29613e-07
-1.24483e-07
2.23234e-07
-1.62635e-07
2.09089e-07
-1.96802e-07
1.88614e-07
-2.26079e-07
1.62898e-07
-2.49948e-07
1.33163e-07
-2.6808e-07
1.00493e-07
-2.80239e-07
6.56894e-08
-2.86224e-07
2.93218e-08
-2.85829e-07
-8.17338e-09
-2.78826e-07
-4.63825e-08
-2.64978e-07
-8.47904e-08
-2.44096e-07
-1.22641e-07
-2.16128e-07
-1.58779e-07
-1.81328e-07
-1.91567e-07
-1.40558e-07
-2.1904e-07
-9.569e-08
-2.39254e-07
-4.96134e-08
-2.4988e-07
-2.38199e-07
-4.92456e-08
2.6341e-07
-9.53116e-08
2.78429e-07
-1.4133e-07
2.7009e-07
-1.84524e-07
2.523e-07
-2.22984e-07
2.26991e-07
-2.55733e-07
1.95629e-07
-2.82318e-07
1.59774e-07
-3.02532e-07
1.20747e-07
-3.16259e-07
7.9459e-08
-3.23369e-07
3.64791e-08
-3.23661e-07
-7.82735e-09
-3.16822e-07
-5.31556e-08
-3.02444e-07
-9.90888e-08
-2.80078e-07
-1.44905e-07
-2.49374e-07
-1.89339e-07
-2.10326e-07
-2.30427e-07
-1.63734e-07
-2.65637e-07
-1.11756e-07
-2.92243e-07
-5.79746e-08
-3.06857e-07
-2.9335e-07
-5.67216e-08
3.16931e-07
-1.09695e-07
3.34601e-07
-1.62426e-07
3.23806e-07
-2.11593e-07
3.01493e-07
-2.54985e-07
2.70282e-07
-2.91597e-07
2.3221e-07
-3.21125e-07
1.89318e-07
-3.43574e-07
1.43226e-07
-3.59021e-07
9.49419e-08
-3.67471e-07
4.49736e-08
-3.68755e-07
-6.48163e-09
-3.62472e-07
-5.93524e-08
-3.47984e-07
-1.13457e-07
-3.24478e-07
-1.68248e-07
-2.91128e-07
-2.2246e-07
-2.47446e-07
-2.73819e-07
-1.93959e-07
-3.19082e-07
-1.33032e-07
-3.5438e-07
-6.9147e-08
-3.74635e-07
-3.59192e-07
-6.62661e-08
3.79474e-07
-1.27879e-07
4.00006e-07
-1.88766e-07
3.85872e-07
-2.44926e-07
3.57691e-07
-2.93829e-07
3.19065e-07
-3.34535e-07
2.7287e-07
-3.67033e-07
2.21818e-07
-3.91684e-07
1.67891e-07
-4.08884e-07
1.12161e-07
-4.18863e-07
5.4984e-08
-4.2154e-07
-3.74779e-09
-4.16432e-07
-6.43563e-08
-4.02623e-07
-1.27102e-07
-3.78791e-07
-1.91837e-07
-3.43382e-07
-2.57511e-07
-2.9505e-07
-3.21685e-07
-2.33615e-07
-3.80349e-07
-1.61384e-07
-4.28063e-07
-8.4107e-08
-4.56871e-07
-4.39359e-07
-7.85855e-08
4.5371e-07
-1.51075e-07
4.77084e-07
-2.21856e-07
4.58095e-07
-2.86079e-07
4.21964e-07
-3.40908e-07
3.73746e-07
-3.85644e-07
3.17541e-07
-4.20803e-07
2.56957e-07
-4.47322e-07
1.94393e-07
-4.66096e-07
1.30923e-07
-4.77714e-07
6.66042e-08
-4.82274e-07
8.47869e-10
-4.79252e-07
-6.72671e-08
-4.67423e-07
-1.38721e-07
-4.44813e-07
-2.14101e-07
-4.08804e-07
-2.92971e-07
-3.56593e-07
-3.73123e-07
-2.86439e-07
-4.50032e-07
-1.99814e-07
-5.16355e-07
-1.04376e-07
-5.5898e-07
-5.38766e-07
-9.48859e-08
5.43486e-07
-1.81244e-07
5.69127e-07
-2.63984e-07
5.42654e-07
-3.37275e-07
4.95324e-07
-3.98074e-07
4.3437e-07
-4.46248e-07
3.65628e-07
-4.83207e-07
2.93859e-07
-5.10781e-07
2.21899e-07
-5.30606e-07
1.50676e-07
-5.43802e-07
7.97524e-08
-5.5078e-07
7.83214e-09
-5.51084e-07
-6.68665e-08
-5.43219e-07
-1.46351e-07
-5.24473e-07
-2.324e-07
-4.90809e-07
-3.25841e-07
-4.37109e-07
-4.25554e-07
-3.58404e-07
-5.27528e-07
-2.53205e-07
-6.22984e-07
-1.32216e-07
-6.89077e-07
-6.63346e-07
-1.17285e-07
6.55144e-07
-2.21582e-07
6.80818e-07
-3.18575e-07
6.42114e-07
-4.01569e-07
5.78456e-07
-4.67634e-07
5.00251e-07
-5.17755e-07
4.15633e-07
-5.54783e-07
3.30767e-07
-5.81865e-07
2.48819e-07
-6.01675e-07
1.70311e-07
-6.16073e-07
9.40135e-08
-6.25957e-07
1.76579e-08
-6.31122e-07
-6.16617e-08
-6.29999e-07
-1.4727e-07
-6.19257e-07
-2.42648e-07
-5.93289e-07
-3.50775e-07
-5.43666e-07
-4.73146e-07
-4.59108e-07
-6.09144e-07
-3.29661e-07
-7.52894e-07
-1.70804e-07
-8.64158e-07
-8.25344e-07
-1.49352e-07
7.95837e-07
-2.76963e-07
8.17606e-07
-3.90292e-07
7.5842e-07
-4.82603e-07
6.7069e-07
-5.51839e-07
5.69107e-07
-6.00979e-07
4.64481e-07
-6.35055e-07
3.6453e-07
-6.59053e-07
2.72443e-07
-6.76996e-07
1.8788e-07
-6.91687e-07
1.08409e-07
-7.04699e-07
3.05004e-08
-7.1634e-07
-5.00389e-08
-7.25402e-07
-1.38017e-07
-7.28555e-07
-2.38981e-07
-7.19199e-07
-3.58866e-07
-6.85211e-07
-5.03876e-07
-6.03818e-07
-6.83884e-07
-4.43508e-07
-9.15545e-07
-2.2544e-07
-1.13521e-06
-1.06093e-06
-1.97085e-07
9.91209e-07
-3.54234e-07
9.86875e-07
-4.83936e-07
8.91077e-07
-5.82776e-07
7.68273e-07
-6.50717e-07
6.35928e-07
-6.93861e-07
5.0683e-07
-7.20248e-07
3.90168e-07
-7.37232e-07
2.88624e-07
-7.50438e-07
2.00339e-07
-7.63712e-07
1.21112e-07
-7.79434e-07
4.5821e-08
-7.98726e-07
-3.10013e-08
-8.2142e-07
-1.15222e-07
-8.45627e-07
-2.13879e-07
-8.66528e-07
-3.35669e-07
-8.71898e-07
-4.93049e-07
-8.21962e-07
-7.16127e-07
-6.37917e-07
-1.08558e-06
-3.34982e-07
-1.47396e-06
-1.27733e-06
-2.63311e-07
1.17237e-06
-4.54701e-07
1.1567e-06
-5.9798e-07
1.01737e-06
-6.9662e-07
8.57681e-07
-7.55632e-07
6.92953e-07
-7.85336e-07
5.35787e-07
-7.97427e-07
4.01219e-07
-8.02044e-07
2.919e-07
-8.06487e-07
2.03615e-07
-8.15526e-07
1.29315e-07
-8.32093e-07
6.1757e-08
-8.58314e-07
-5.46315e-09
-8.96372e-07
-7.83088e-08
-9.48691e-07
-1.62962e-07
-1.01971e-06
-2.6683e-07
-1.11636e-06
-3.99462e-07
-1.20103e-06
-5.92608e-07
-1.11544e-06
-1.00972e-06
-8.16072e-07
-1.6059e-06
-1.85004e-06
-3.86521e-07
1.75946e-06
-5.94585e-07
1.55437e-06
-7.18128e-07
1.26795e-06
-7.97114e-07
1.00594e-06
-8.33496e-07
7.64932e-07
-8.39064e-07
5.56491e-07
-8.27927e-07
3.93295e-07
-8.13023e-07
2.75536e-07
-8.03426e-07
1.92119e-07
-8.04368e-07
1.28822e-07
-8.18474e-07
7.46864e-08
-8.47964e-07
2.28524e-08
-8.97183e-07
-3.07674e-08
-9.75418e-07
-8.71143e-08
-1.10948e-06
-1.40881e-07
-1.37484e-06
-1.79483e-07
-1.77963e-06
-1.60458e-07
-2.16584e-06
-5.69945e-07
-2.35643e-06
-2.20342e-06
-4.72863e-06
-4.24982e-07
1.61449e-06
-6.07225e-07
1.24177e-06
-7.02043e-07
9.81333e-07
-7.49416e-07
8.15299e-07
-7.5347e-07
6.21718e-07
-7.21423e-07
4.35073e-07
-6.69862e-07
2.97402e-07
-6.19811e-07
2.09917e-07
-5.84363e-07
1.53322e-07
-5.68302e-07
1.11688e-07
-5.7196e-07
7.64316e-08
-5.95316e-07
4.36814e-08
-6.41157e-07
1.32898e-08
-7.20006e-07
-9.46421e-09
-8.60658e-07
-6.97804e-10
-1.17086e-06
7.41603e-08
-1.64375e-06
3.7852e-07
-2.54036e-06
2.17072e-07
-3.33726e-06
-1.86358e-06
-8.10943e-06
-4.172e-07
2.85172e-06
-3.96064e-07
2.09702e-06
-2.33465e-07
1.36777e-06
-2.18121e-08
9.48236e-07
2.06386e-07
6.1869e-07
4.18842e-07
3.48063e-07
5.99126e-07
1.74414e-07
7.34847e-07
9.59056e-08
8.24238e-07
7.21496e-08
8.76148e-07
6.5142e-08
9.01343e-07
5.70631e-08
9.06369e-07
4.55212e-08
8.95432e-07
3.34684e-08
8.68912e-07
2.58626e-08
8.93643e-07
4.00897e-08
7.61857e-07
1.08297e-07
1.20834e-06
3.31623e-07
5.05804e-07
4.13047e-07
-3.20359e-07
2.00462e-07
-6.544e-06
2.62065e-06
3.86207e-06
5.04611e-06
5.91433e-06
6.43741e-06
6.71274e-06
6.84955e-06
6.93158e-06
7.00073e-06
7.06593e-06
7.12294e-06
7.16743e-06
7.20184e-06
7.22117e-06
7.30618e-06
7.25029e-06
8.12215e-06
6.31175e-06
1.04219e-05
)
;

boundaryField
{
    movingWall
    {
        type            calculated;
        value           uniform 0;
    }
    fixedWalls
    {
        type            calculated;
        value           uniform 0;
    }
    frontAndBack
    {
        type            empty;
        value           nonuniform List<scalar> 0();
    }
}


// ************************************************************************* //
