/*--------------------------------*- C++ -*----------------------------------*\
| =========                 |                                                 |
| \\      /  F ield         | OpenFOAM: The Open Source CFD Toolbox           |
|  \\    /   O peration     | Version:  2312                                  |
|   \\  /    A nd           | Website:  www.openfoam.com                      |
|    \\/     M anipulation  |                                                 |
\*---------------------------------------------------------------------------*/
FoamFile
{
    version     2.0;
    format      ascii;
    arch        "LSB;label=32;scalar=64";
    class       volVectorField;
    location    "0.25";
    object      gradPhi;
}
// * * * * * * * * * * * * * * * * * * * * * * * * * * * * * * * * * * * * * //

dimensions      [0 2 -1 0 0 0 0];

internalField   nonuniform List<vector> 
400
(
(-3.62293e-06 3.62257e-06 0)
(-5.0022e-06 5.00218e-06 0)
(-5.41348e-06 5.41346e-06 0)
(-5.15521e-06 5.1552e-06 0)
(-4.58949e-06 4.58947e-06 0)
(-3.89917e-06 3.89916e-06 0)
(-3.14445e-06 3.14444e-06 0)
(-2.34035e-06 2.34034e-06 0)
(-1.49044e-06 1.49043e-06 0)
(-6.12775e-07 6.12766e-07 0)
(2.91014e-07 -2.91023e-07 0)
(1.20477e-06 -1.20478e-06 0)
(2.11452e-06 -2.11453e-06 0)
(3.00647e-06 -3.00648e-06 0)
(3.86547e-06 -3.86548e-06 0)
(4.664e-06 -4.66401e-06 0)
(5.32539e-06 -5.3254e-06 0)
(5.64971e-06 -5.64972e-06 0)
(5.26619e-06 -5.2662e-06 0)
(3.88296e-06 -3.88297e-06 0)
(-5.10564e-06 5.10564e-06 0)
(-5.49508e-06 5.49506e-06 0)
(-5.47315e-06 5.47314e-06 0)
(-5.24114e-06 5.24113e-06 0)
(-4.7753e-06 4.77529e-06 0)
(-4.12886e-06 4.12884e-06 0)
(-3.36194e-06 3.36193e-06 0)
(-2.51333e-06 2.51332e-06 0)
(-1.60873e-06 1.60872e-06 0)
(-6.58667e-07 6.58658e-07 0)
(3.14075e-07 -3.14083e-07 0)
(1.29624e-06 -1.29624e-06 0)
(2.26882e-06 -2.26882e-06 0)
(3.20849e-06 -3.20849e-06 0)
(4.08213e-06 -4.08213e-06 0)
(4.83806e-06 -4.83806e-06 0)
(5.40317e-06 -5.40318e-06 0)
(5.71621e-06 -5.71622e-06 0)
(5.79883e-06 -5.79884e-06 0)
(5.43584e-06 -5.43584e-06 0)
(-5.90523e-06 5.90523e-06 0)
(-5.86279e-06 5.86279e-06 0)
(-5.5944e-06 5.59439e-06 0)
(-5.29128e-06 5.29127e-06 0)
(-4.84175e-06 4.84174e-06 0)
(-4.22172e-06 4.22171e-06 0)
(-3.46295e-06 3.46294e-06 0)
(-2.60476e-06 2.60476e-06 0)
(-1.67788e-06 1.67787e-06 0)
(-7.02367e-07 7.02359e-07 0)
(3.01097e-07 -3.01105e-07 0)
(1.31466e-06 -1.31467e-06 0)
(2.31647e-06 -2.31648e-06 0)
(3.27777e-06 -3.27778e-06 0)
(4.15817e-06 -4.15818e-06 0)
(4.90571e-06 -4.90572e-06 0)
(5.4764e-06 -5.4764e-06 0)
(5.88475e-06 -5.88476e-06 0)
(6.23222e-06 -6.23223e-06 0)
(6.29788e-06 -6.29788e-06 0)
(-6.33899e-06 6.33899e-06 0)
(-6.34202e-06 6.34202e-06 0)
(-5.98881e-06 5.98881e-06 0)
(-5.58775e-06 5.58774e-06 0)
(-5.07936e-06 5.07935e-06 0)
(-4.42576e-06 4.42575e-06 0)
(-3.63869e-06 3.63868e-06 0)
(-2.74921e-06 2.7492e-06 0)
(-1.78651e-06 1.7865e-06 0)
(-7.72661e-07 7.72654e-07 0)
(2.73454e-07 -2.73461e-07 0)
(1.33354e-06 -1.33354e-06 0)
(2.38589e-06 -2.3859e-06 0)
(3.40117e-06 -3.40118e-06 0)
(4.33951e-06 -4.33952e-06 0)
(5.15579e-06 -5.1558e-06 0)
(5.82261e-06 -5.82262e-06 0)
(6.36133e-06 -6.36134e-06 0)
(6.81171e-06 -6.81172e-06 0)
(6.82475e-06 -6.82475e-06 0)
(-6.75879e-06 6.75879e-06 0)
(-6.92358e-06 6.92358e-06 0)
(-6.57324e-06 6.57324e-06 0)
(-6.09768e-06 6.09768e-06 0)
(-5.50248e-06 5.50248e-06 0)
(-4.77236e-06 4.77235e-06 0)
(-3.91901e-06 3.91901e-06 0)
(-2.96915e-06 2.96914e-06 0)
(-1.94851e-06 1.94851e-06 0)
(-8.76644e-07 8.76638e-07 0)
(2.31196e-07 -2.31202e-07 0)
(1.36037e-06 -1.36037e-06 0)
(2.49274e-06 -2.49275e-06 0)
(3.60215e-06 -3.60215e-06 0)
(4.65138e-06 -4.65139e-06 0)
(5.59676e-06 -5.59676e-06 0)
(6.40465e-06 -6.40466e-06 0)
(7.0643e-06 -7.0643e-06 0)
(7.54095e-06 -7.54096e-06 0)
(7.39697e-06 -7.39697e-06 0)
(-7.34521e-06 7.34521e-06 0)
(-7.65009e-06 7.65009e-06 0)
(-7.31727e-06 7.31727e-06 0)
(-6.77979e-06 6.77979e-06 0)
(-6.08606e-06 6.08605e-06 0)
(-5.25172e-06 5.25172e-06 0)
(-4.30178e-06 4.30178e-06 0)
(-3.26542e-06 3.26541e-06 0)
(-2.16599e-06 2.16599e-06 0)
(-1.01844e-06 1.01844e-06 0)
(1.68269e-07 -1.68274e-07 0)
(1.38703e-06 -1.38704e-06 0)
(2.62684e-06 -2.62685e-06 0)
(3.86758e-06 -3.86759e-06 0)
(5.0744e-06 -5.0744e-06 0)
(6.1978e-06 -6.1978e-06 0)
(7.1828e-06 -7.18281e-06 0)
(7.97548e-06 -7.97549e-06 0)
(8.48522e-06 -8.48522e-06 0)
(8.21636e-06 -8.21636e-06 0)
(-8.16532e-06 8.16532e-06 0)
(-8.57387e-06 8.57387e-06 0)
(-8.23479e-06 8.23479e-06 0)
(-7.62157e-06 7.62157e-06 0)
(-6.8102e-06 6.81019e-06 0)
(-5.84599e-06 5.84598e-06 0)
(-4.77338e-06 4.77338e-06 0)
(-3.62905e-06 3.62904e-06 0)
(-2.43531e-06 2.43531e-06 0)
(-1.20094e-06 1.20094e-06 0)
(7.4531e-08 -7.45346e-08 0)
(1.3959e-06 -1.39591e-06 0)
(2.76369e-06 -2.7637e-06 0)
(4.16767e-06 -4.16768e-06 0)
(5.57644e-06 -5.57645e-06 0)
(6.93123e-06 -6.93123e-06 0)
(8.14861e-06 -8.14861e-06 0)
(9.12756e-06 -9.12756e-06 0)
(9.72639e-06 -9.7264e-06 0)
(9.37839e-06 -9.37838e-06 0)
(-9.25233e-06 9.25233e-06 0)
(-9.74211e-06 9.74211e-06 0)
(-9.35738e-06 9.35738e-06 0)
(-8.63111e-06 8.63111e-06 0)
(-7.66595e-06 7.66595e-06 0)
(-6.5381e-06 6.5381e-06 0)
(-5.31544e-06 5.31544e-06 0)
(-4.0451e-06 4.0451e-06 0)
(-2.74859e-06 2.74859e-06 0)
(-1.42611e-06 1.42611e-06 0)
(-6.36781e-08 6.36758e-08 0)
(1.3612e-06 -1.36121e-06 0)
(2.86685e-06 -2.86685e-06 0)
(4.45967e-06 -4.45967e-06 0)
(6.11709e-06 -6.11709e-06 0)
(7.77298e-06 -7.77298e-06 0)
(9.31233e-06 -9.31233e-06 0)
(1.05778e-05 -1.05778e-05 0)
(1.13563e-05 -1.13563e-05 0)
(1.09617e-05 -1.09617e-05 0)
(-1.06497e-05 1.06497e-05 0)
(-1.12079e-05 1.12079e-05 0)
(-1.07257e-05 1.07257e-05 0)
(-9.82559e-06 9.82559e-06 0)
(-8.64808e-06 8.64808e-06 0)
(-7.30822e-06 7.30822e-06 0)
(-5.90268e-06 5.90268e-06 0)
(-4.49088e-06 4.49088e-06 0)
(-3.09201e-06 3.09201e-06 0)
(-1.69375e-06 1.69375e-06 0)
(-2.63063e-07 2.63062e-07 0)
(1.24818e-06 -1.24818e-06 0)
(2.88488e-06 -2.88488e-06 0)
(4.68152e-06 -4.68153e-06 0)
(6.63651e-06 -6.63651e-06 0)
(8.68609e-06 -8.68609e-06 0)
(1.06853e-05 -1.06853e-05 0)
(1.24031e-05 -1.24031e-05 0)
(1.35011e-05 -1.35011e-05 0)
(1.30808e-05 -1.30808e-05 0)
(-1.24337e-05 1.24337e-05 0)
(-1.3045e-05 1.3045e-05 0)
(-1.239e-05 1.239e-05 0)
(-1.12228e-05 1.12228e-05 0)
(-9.74424e-06 9.74424e-06 0)
(-8.12377e-06 8.12378e-06 0)
(-6.4947e-06 6.49471e-06 0)
(-4.92945e-06 4.92945e-06 0)
(-3.44094e-06 3.44094e-06 0)
(-1.99815e-06 1.99815e-06 0)
(-5.4229e-07 5.42291e-07 0)
(1.0113e-06 -1.0113e-06 0)
(2.74465e-06 -2.74465e-06 0)
(4.73813e-06 -4.73813e-06 0)
(7.03334e-06 -7.03334e-06 0)
(9.59305e-06 -9.59304e-06 0)
(1.22583e-05 -1.22583e-05 0)
(1.47062e-05 -1.47062e-05 0)
(1.63629e-05 -1.63629e-05 0)
(1.59172e-05 -1.59172e-05 0)
(-1.47353e-05 1.47353e-05 0)
(-1.53637e-05 1.53637e-05 0)
(-1.44125e-05 1.44126e-05 0)
(-1.28325e-05 1.28325e-05 0)
(-1.09211e-05 1.09211e-05 0)
(-8.92526e-06 8.92526e-06 0)
(-7.02385e-06 7.02385e-06 0)
(-5.30006e-06 5.30006e-06 0)
(-3.75273e-06 3.75273e-06 0)
(-2.3227e-06 2.32271e-06 0)
(-9.19205e-07 9.19207e-07 0)
(5.93662e-07 -5.9366e-07 0)
(2.34383e-06 -2.34383e-06 0)
(4.48296e-06 -4.48296e-06 0)
(7.13158e-06 -7.13158e-06 0)
(1.03299e-05 -1.03299e-05 0)
(1.39619e-05 -1.39619e-05 0)
(1.76254e-05 -1.76254e-05 0)
(2.02943e-05 -2.02943e-05 0)
(1.97455e-05 -1.97455e-05 0)
(-1.77805e-05 1.77805e-05 0)
(-1.83291e-05 1.83291e-05 0)
(-1.68641e-05 1.68641e-05 0)
(-1.46399e-05 1.46399e-05 0)
(-1.21039e-05 1.21039e-05 0)
(-9.60674e-06 9.60674e-06 0)
(-7.37912e-06 7.37912e-06 0)
(-5.50587e-06 5.50588e-06 0)
(-3.9576e-06 3.9576e-06 0)
(-2.63485e-06 2.63486e-06 0)
(-1.39787e-06 1.39787e-06 0)
(-7.16756e-08 7.16792e-08 0)
(1.54741e-06 -1.54741e-06 0)
(3.69897e-06 -3.69896e-06 0)
(6.63411e-06 -6.63411e-06 0)
(1.05651e-05 -1.05651e-05 0)
(1.55755e-05 -1.55755e-05 0)
(2.13398e-05 -2.13398e-05 0)
(2.59617e-05 -2.59617e-05 0)
(2.49485e-05 -2.49485e-05 0)
(-2.19726e-05 2.19726e-05 0)
(-2.21762e-05 2.21762e-05 0)
(-1.97972e-05 1.97972e-05 0)
(-1.65683e-05 1.65683e-05 0)
(-1.31419e-05 1.31419e-05 0)
(-9.98833e-06 9.98834e-06 0)
(-7.38588e-06 7.38588e-06 0)
(-5.39909e-06 5.39909e-06 0)
(-3.94592e-06 3.94593e-06 0)
(-2.86913e-06 2.86914e-06 0)
(-1.97041e-06 1.97041e-06 0)
(-1.04069e-06 1.0407e-06 0)
(2.00224e-07 -2.00219e-07 0)
(2.09118e-06 -2.09117e-06 0)
(5.06581e-06 -5.06581e-06 0)
(9.65588e-06 -9.65587e-06 0)
(1.65207e-05 -1.65207e-05 0)
(2.60348e-05 -2.60348e-05 0)
(3.46759e-05 -3.46759e-05 0)
(3.20111e-05 -3.20111e-05 0)
(-2.79968e-05 2.79968e-05 0)
(-2.7196e-05 2.7196e-05 0)
(-2.31775e-05 2.31775e-05 0)
(-1.84077e-05 1.84077e-05 0)
(-1.37585e-05 1.37585e-05 0)
(-9.78175e-06 9.78175e-06 0)
(-6.78447e-06 6.78447e-06 0)
(-4.76879e-06 4.7688e-06 0)
(-3.5594e-06 3.5594e-06 0)
(-2.91663e-06 2.91664e-06 0)
(-2.58662e-06 2.58662e-06 0)
(-2.32479e-06 2.32479e-06 0)
(-1.82672e-06 1.82673e-06 0)
(-6.80005e-07 6.80012e-07 0)
(1.73113e-06 -1.73112e-06 0)
(6.40526e-06 -6.40526e-06 0)
(1.53645e-05 -1.53645e-05 0)
(3.17908e-05 -3.17908e-05 0)
(4.86876e-05 -4.86876e-05 0)
(4.17863e-05 -4.17863e-05 0)
(-3.70369e-05 3.70369e-05 0)
(-3.35637e-05 3.35637e-05 0)
(-2.66274e-05 2.66274e-05 0)
(-1.96588e-05 1.96588e-05 0)
(-1.34862e-05 1.34862e-05 0)
(-8.56759e-06 8.56759e-06 0)
(-5.228e-06 5.22801e-06 0)
(-3.34415e-06 3.34415e-06 0)
(-2.59188e-06 2.59189e-06 0)
(-2.61835e-06 2.61836e-06 0)
(-3.11798e-06 3.11798e-06 0)
(-3.83695e-06 3.83695e-06 0)
(-4.52789e-06 4.52789e-06 0)
(-4.86224e-06 4.86224e-06 0)
(-4.26799e-06 4.268e-06 0)
(-1.46106e-06 1.46107e-06 0)
(7.88708e-06 -7.88707e-06 0)
(3.5426e-05 -3.54259e-05 0)
(6.9694e-05 -6.9694e-05 0)
(6.179e-05 -6.179e-05 0)
(-4.94521e-05 4.94522e-05 0)
(-4.1335e-05 4.1335e-05 0)
(-2.94766e-05 2.94766e-05 0)
(-1.94859e-05 1.94859e-05 0)
(-1.17091e-05 1.17091e-05 0)
(-5.85437e-06 5.85438e-06 0)
(-2.33644e-06 2.33645e-06 0)
(-8.30305e-07 8.30313e-07 0)
(-8.08427e-07 8.08436e-07 0)
(-1.7516e-06 1.75161e-06 0)
(-3.27548e-06 3.27549e-06 0)
(-5.20109e-06 5.2011e-06 0)
(-7.57593e-06 7.57594e-06 0)
(-1.04601e-05 1.04601e-05 0)
(-1.39736e-05 1.39736e-05 0)
(-1.82694e-05 1.82695e-05 0)
(-2.08871e-05 2.08871e-05 0)
(5.23689e-06 -5.23688e-06 0)
(8.79704e-05 -8.79704e-05 0)
(0.000149475 -0.000149475 0)
(-7.37999e-05 7.37999e-05 0)
(-4.49863e-05 4.49863e-05 0)
(-2.57447e-05 2.57447e-05 0)
(-1.53993e-05 1.53994e-05 0)
(-7.24496e-06 7.24497e-06 0)
(-1.03872e-06 1.03873e-06 0)
(2.37114e-06 -2.37113e-06 0)
(3.1723e-06 -3.1723e-06 0)
(2.06333e-06 -2.06332e-06 0)
(-1.21734e-07 1.21743e-07 0)
(-2.8074e-06 2.8074e-06 0)
(-5.82279e-06 5.8228e-06 0)
(-9.77953e-06 9.77954e-06 0)
(-1.56421e-05 1.56421e-05 0)
(-2.59575e-05 2.59575e-05 0)
(-4.67208e-05 4.67208e-05 0)
(-8.96786e-05 8.96787e-05 0)
(-0.00011908 0.00011908 0)
(5.20633e-05 -5.20633e-05 0)
(0.000424155 -0.000424155 0)
(-8.18887e-05 8.18887e-05 0)
(-3.94631e-05 3.94631e-05 0)
(-1.81662e-05 1.81662e-05 0)
(-1.1227e-05 1.1227e-05 0)
(-1.5725e-06 1.57251e-06 0)
(6.94214e-06 -6.94213e-06 0)
(1.09453e-05 -1.09452e-05 0)
(1.05562e-05 -1.05562e-05 0)
(7.32407e-06 -7.32406e-06 0)
(3.20523e-06 -3.20522e-06 0)
(-7.61609e-07 7.61619e-07 0)
(-4.75811e-06 4.75812e-06 0)
(-9.11835e-06 9.11836e-06 0)
(-1.62216e-05 1.62216e-05 0)
(-2.87325e-05 2.87325e-05 0)
(-5.31908e-05 5.31908e-05 0)
(-0.000125662 0.000125662 0)
(-0.000164098 0.000164098 0)
(-0.000117105 0.000117105 0)
(0.000632992 -0.000632992 0)
(-7.61619e-05 7.61619e-05 0)
(-9.53755e-06 9.53756e-06 0)
(3.64374e-05 -3.64374e-05 0)
(4.51522e-05 -4.51522e-05 0)
(4.39857e-05 -4.39857e-05 0)
(4.26624e-05 -4.26624e-05 0)
(3.7698e-05 -3.7698e-05 0)
(2.80451e-05 -2.80451e-05 0)
(1.76333e-05 -1.76333e-05 0)
(9.94564e-06 -9.94563e-06 0)
(4.74171e-06 -4.7417e-06 0)
(7.61999e-07 -7.61989e-07 0)
(-2.84348e-06 2.84349e-06 0)
(-5.07167e-06 5.07168e-06 0)
(-5.72817e-06 5.72818e-06 0)
(-9.52453e-07 9.52462e-07 0)
(3.14092e-05 -3.14092e-05 0)
(-1.11479e-05 1.11479e-05 0)
(-0.000345762 0.000345762 0)
(0.000158732 -0.000158732 0)
(0.000476402 -0.000476402 0)
(0.000331795 -0.000331795 0)
(0.000214897 -0.000214897 0)
(0.000154521 -0.000154521 0)
(0.000103695 -0.000103695 0)
(5.86739e-05 -5.86739e-05 0)
(2.94384e-05 -2.94384e-05 0)
(1.69114e-05 -1.69113e-05 0)
(1.39902e-05 -1.39902e-05 0)
(1.30447e-05 -1.30447e-05 0)
(1.13103e-05 -1.13103e-05 0)
(8.78726e-06 -8.78725e-06 0)
(6.11509e-06 -6.11509e-06 0)
(4.25396e-06 -4.25395e-06 0)
(6.56265e-06 -6.56264e-06 0)
(1.92969e-05 -1.92969e-05 0)
(5.94888e-05 -5.94888e-05 0)
(7.14066e-05 -7.14066e-05 0)
(3.24373e-05 -3.24373e-05 0)
(-0.00163303 0.00163303 0)
)
;

boundaryField
{
    movingWall
    {
        type            extrapolatedCalculated;
        value           nonuniform List<vector> 
20
(
(0.000476402 -0.000476402 0)
(0.000331795 -0.000331795 0)
(0.000214897 -0.000214897 0)
(0.000154521 -0.000154521 0)
(0.000103695 -0.000103695 0)
(5.86739e-05 -5.86739e-05 0)
(2.94384e-05 -2.94384e-05 0)
(1.69114e-05 -1.69113e-05 0)
(1.39902e-05 -1.39902e-05 0)
(1.30447e-05 -1.30447e-05 0)
(1.13103e-05 -1.13103e-05 0)
(8.78726e-06 -8.78725e-06 0)
(6.11509e-06 -6.11509e-06 0)
(4.25396e-06 -4.25395e-06 0)
(6.56265e-06 -6.56264e-06 0)
(1.92969e-05 -1.92969e-05 0)
(5.94888e-05 -5.94888e-05 0)
(7.14066e-05 -7.14066e-05 0)
(3.24373e-05 -3.24373e-05 0)
(-0.00163303 0.00163303 0)
)
;
    }
    fixedWalls
    {
        type            extrapolatedCalculated;
        value           nonuniform List<vector> 
60
(
(-3.62293e-06 3.62257e-06 0)
(-5.10564e-06 5.10564e-06 0)
(-5.90523e-06 5.90523e-06 0)
(-6.33899e-06 6.33899e-06 0)
(-6.75879e-06 6.75879e-06 0)
(-7.34521e-06 7.34521e-06 0)
(-8.16532e-06 8.16532e-06 0)
(-9.25233e-06 9.25233e-06 0)
(-1.06497e-05 1.06497e-05 0)
(-1.24337e-05 1.24337e-05 0)
(-1.47353e-05 1.47353e-05 0)
(-1.77805e-05 1.77805e-05 0)
(-2.19726e-05 2.19726e-05 0)
(-2.79968e-05 2.79968e-05 0)
(-3.70369e-05 3.70369e-05 0)
(-4.94521e-05 4.94522e-05 0)
(-7.37999e-05 7.37999e-05 0)
(-8.18887e-05 8.18887e-05 0)
(-7.61619e-05 7.61619e-05 0)
(0.000476402 -0.000476402 0)
(3.88296e-06 -3.88297e-06 0)
(5.43584e-06 -5.43584e-06 0)
(6.29788e-06 -6.29788e-06 0)
(6.82475e-06 -6.82475e-06 0)
(7.39697e-06 -7.39697e-06 0)
(8.21636e-06 -8.21636e-06 0)
(9.37839e-06 -9.37838e-06 0)
(1.09617e-05 -1.09617e-05 0)
(1.30808e-05 -1.30808e-05 0)
(1.59172e-05 -1.59172e-05 0)
(1.97455e-05 -1.97455e-05 0)
(2.49485e-05 -2.49485e-05 0)
(3.20111e-05 -3.20111e-05 0)
(4.17863e-05 -4.17863e-05 0)
(6.179e-05 -6.179e-05 0)
(0.000149475 -0.000149475 0)
(0.000424155 -0.000424155 0)
(0.000632992 -0.000632992 0)
(0.000158732 -0.000158732 0)
(-0.00163303 0.00163303 0)
(-3.62293e-06 3.62257e-06 0)
(-5.0022e-06 5.00218e-06 0)
(-5.41348e-06 5.41346e-06 0)
(-5.15521e-06 5.1552e-06 0)
(-4.58949e-06 4.58947e-06 0)
(-3.89917e-06 3.89916e-06 0)
(-3.14445e-06 3.14444e-06 0)
(-2.34035e-06 2.34034e-06 0)
(-1.49044e-06 1.49043e-06 0)
(-6.12775e-07 6.12766e-07 0)
(2.91014e-07 -2.91023e-07 0)
(1.20477e-06 -1.20478e-06 0)
(2.11452e-06 -2.11453e-06 0)
(3.00647e-06 -3.00648e-06 0)
(3.86547e-06 -3.86548e-06 0)
(4.664e-06 -4.66401e-06 0)
(5.32539e-06 -5.3254e-06 0)
(5.64971e-06 -5.64972e-06 0)
(5.26619e-06 -5.2662e-06 0)
(3.88296e-06 -3.88297e-06 0)
)
;
    }
    frontAndBack
    {
        type            empty;
    }
}


// ************************************************************************* //
