/*--------------------------------*- C++ -*----------------------------------*\
| =========                 |                                                 |
| \\      /  F ield         | OpenFOAM: The Open Source CFD Toolbox           |
|  \\    /   O peration     | Version:  2312                                  |
|   \\  /    A nd           | Website:  www.openfoam.com                      |
|    \\/     M anipulation  |                                                 |
\*---------------------------------------------------------------------------*/
FoamFile
{
    version     2.0;
    format      ascii;
    arch        "LSB;label=32;scalar=64";
    class       volTensorField;
    location    "0.25";
    object      gradU;
}
// * * * * * * * * * * * * * * * * * * * * * * * * * * * * * * * * * * * * * //

dimensions      [0 0 -1 0 0 0 0];

internalField   nonuniform List<tensor> 
400
(
(-0.0774461 0.0462494 0 -0.0468408 0.0775827 0 0 0 0)
(-0.0951897 0.0133495 0 -0.138067 0.105438 0 0 0 0)
(-0.107438 0.00172672 0 -0.246498 0.113811 0 0 0 0)
(-0.102311 -0.00516848 0 -0.354159 0.108686 0 0 0 0)
(-0.0914663 -0.00764862 0 -0.453724 0.0970091 0 0 0 0)
(-0.0778145 -0.00846224 0 -0.541089 0.0825444 0 0 0 0)
(-0.0627375 -0.00895187 0 -0.614006 0.0666117 0 0 0 0)
(-0.0467303 -0.00945622 0 -0.67096 0.0495768 0 0 0 0)
(-0.02969 -0.00979594 0 -0.710927 0.0315548 0 0 0 0)
(-0.0121033 -0.0100883 0 -0.732719 0.0129407 0 0 0 0)
(0.00582854 -0.0103434 0 -0.73615 -0.00624087 0 0 0 0)
(0.0241411 -0.0103551 0 -0.720565 -0.0256184 0 0 0 0)
(0.042278 -0.010248 0 -0.686059 -0.0448935 0 0 0 0)
(0.0600745 -0.0100262 0 -0.632917 -0.0637603 0 0 0 0)
(0.0771732 -0.00966423 0 -0.56186 -0.0818681 0 0 0 0)
(0.0929203 -0.00879995 0 -0.474187 -0.0985861 0 0 0 0)
(0.105583 -0.00602425 0 -0.372235 -0.112243 0 0 0 0)
(0.111922 0.001373 0 -0.260522 -0.118715 0 0 0 0)
(0.10019 0.0134319 0 -0.146956 -0.110902 0 0 0 0)
(0.0828171 0.0489022 0 -0.0500457 -0.0829854 0 0 0 0)
(-0.107462 0.136772 0 -0.0162352 0.0980453 0 0 0 0)
(-0.104468 0.0228789 0 -0.0304673 0.104966 0 0 0 0)
(-0.108653 0.00152144 0 -0.0322236 0.10429 0 0 0 0)
(-0.104914 -0.0116336 0 -0.0338024 0.0997534 0 0 0 0)
(-0.0954639 -0.0184934 0 -0.0361471 0.0909113 0 0 0 0)
(-0.0824678 -0.0219351 0 -0.0393284 0.0786528 0 0 0 0)
(-0.0671328 -0.0240157 0 -0.042722 0.0640903 0 0 0 0)
(-0.0501903 -0.0256007 0 -0.0457625 0.0479643 0 0 0 0)
(-0.0320698 -0.0268401 0 -0.0480079 0.0307594 0 0 0 0)
(-0.01312 -0.0277074 0 -0.0495519 0.0126563 0 0 0 0)
(0.00632576 -0.0282158 0 -0.0498969 -0.00584456 0 0 0 0)
(0.0259504 -0.0282975 0 -0.0493162 -0.0245502 0 0 0 0)
(0.0453697 -0.0278938 0 -0.0477232 -0.0430811 0 0 0 0)
(0.0641239 -0.0269484 0 -0.0452697 -0.0609891 0 0 0 0)
(0.0815573 -0.0251616 0 -0.0422745 -0.0776381 0 0 0 0)
(0.0967044 -0.0215746 0 -0.0392973 -0.0920419 0 0 0 0)
(0.108082 -0.0141046 0 -0.0369217 -0.102847 0 0 0 0)
(0.113358 -3.23676e-05 0 -0.0349993 -0.109019 0 0 0 0)
(0.110286 0.0222976 0 -0.0324041 -0.110943 0 0 0 0)
(0.114185 0.144985 0 -0.0168884 -0.104555 0 0 0 0)
(-0.124149 0.249261 0 -0.00819857 0.118079 0 0 0 0)
(-0.111178 0.0195941 0 -0.018179 0.116777 0 0 0 0)
(-0.110774 -0.00348581 0 -0.0237655 0.111068 0 0 0 0)
(-0.106235 -0.0185471 0 -0.027731 0.104747 0 0 0 0)
(-0.0969924 -0.0287492 0 -0.0310332 0.095713 0 0 0 0)
(-0.0843894 -0.0352832 0 -0.034156 0.0834204 0 0 0 0)
(-0.0691716 -0.0396404 0 -0.0371155 0.0684278 0 0 0 0)
(-0.0520162 -0.0427871 0 -0.0397351 0.0514824 0 0 0 0)
(-0.0334793 -0.0451039 0 -0.0418325 0.0331859 0 0 0 0)
(-0.0139923 -0.0466923 0 -0.0433228 0.0139401 0 0 0 0)
(0.00606417 -0.0475499 0 -0.0441058 -0.00588418 0 0 0 0)
(0.0263148 -0.0475917 0 -0.0441341 -0.0258968 0 0 0 0)
(0.0463246 -0.0466868 0 -0.0433576 -0.0456864 0 0 0 0)
(0.0655232 -0.0445832 0 -0.0417778 -0.0646866 0 0 0 0)
(0.0831456 -0.040717 0 -0.039455 -0.0821084 0 0 0 0)
(0.0982732 -0.0340084 0 -0.0364699 -0.0969542 0 0 0 0)
(0.109881 -0.0230017 0 -0.0327276 -0.108427 0 0 0 0)
(0.116439 -0.00672343 0 -0.0277339 -0.116884 0 0 0 0)
(0.118301 0.0178961 0 -0.0205956 -0.124228 0 0 0 0)
(0.13211 0.2644 0 -0.00892531 -0.126075 0 0 0 0)
(-0.13384 0.371628 0 -0.00464502 0.126721 0 0 0 0)
(-0.120035 0.0158674 0 -0.0144431 0.127243 0 0 0 0)
(-0.118205 -0.0105086 0 -0.024457 0.12032 0 0 0 0)
(-0.112182 -0.0269884 0 -0.03317 0.112231 0 0 0 0)
(-0.101889 -0.03982 0 -0.0405049 0.101933 0 0 0 0)
(-0.0885501 -0.0492203 0 -0.0466039 0.0887585 0 0 0 0)
(-0.0727119 -0.0559538 0 -0.0516643 0.0729506 0 0 0 0)
(-0.0549074 -0.0608426 0 -0.0557788 0.0551171 0 0 0 0)
(-0.0356575 -0.0643824 0 -0.0589608 0.0358304 0 0 0 0)
(-0.0153933 -0.0667775 0 -0.0611971 0.0155222 0 0 0 0)
(0.00551449 -0.0680526 0 -0.0624359 -0.00543191 0 0 0 0)
(0.0266985 -0.0680998 0 -0.0625822 -0.0266693 0 0 0 0)
(0.047726 -0.0666836 0 -0.0615003 -0.047764 0 0 0 0)
(0.0680266 -0.0633704 0 -0.0590184 -0.0681364 0 0 0 0)
(0.0868652 -0.0574293 0 -0.0549288 -0.0870012 0 0 0 0)
(0.103432 -0.0478932 0 -0.0489732 -0.103469 0 0 0 0)
(0.116818 -0.0340343 0 -0.0408597 -0.116977 0 0 0 0)
(0.12549 -0.0158334 0 -0.0305011 -0.127857 0 0 0 0)
(0.129095 0.0131062 0 -0.018198 -0.13676 0 0 0 0)
(0.143706 0.395289 0 -0.0059208 -0.136612 0 0 0 0)
(-0.143237 0.503225 0 -0.00536581 0.135649 0 0 0 0)
(-0.13099 0.0131926 0 -0.0168252 0.138845 0 0 0 0)
(-0.129501 -0.0184979 0 -0.0300679 0.131885 0 0 0 0)
(-0.122283 -0.0369339 0 -0.0426601 0.122411 0 0 0 0)
(-0.110426 -0.0522215 0 -0.0537156 0.110481 0 0 0 0)
(-0.0955488 -0.0642659 0 -0.0629115 0.0958183 0 0 0 0)
(-0.0783465 -0.0732818 0 -0.0703502 0.0786833 0 0 0 0)
(-0.0593127 -0.0799072 0 -0.0762256 0.0596182 0 0 0 0)
(-0.0388977 -0.0846987 0 -0.0806882 0.0391392 0 0 0 0)
(-0.0174674 -0.0879546 0 -0.0838152 0.0176348 0 0 0 0)
(0.0046791 -0.0897414 0 -0.0855918 -0.00458754 0 0 0 0)
(0.0272504 -0.0899238 0 -0.0858942 -0.0272404 0 0 0 0)
(0.0498884 -0.0881539 0 -0.0844839 -0.0499656 0 0 0 0)
(0.0720947 -0.0838204 0 -0.081014 -0.0722415 0 0 0 0)
(0.0931908 -0.0760492 0 -0.0750503 -0.0933244 0 0 0 0)
(0.112342 -0.063984 0 -0.0661451 -0.112332 0 0 0 0)
(0.128353 -0.0473904 0 -0.0540481 -0.128565 0 0 0 0)
(0.139101 -0.026507 0 -0.0391471 -0.141774 0 0 0 0)
(0.142882 0.00914178 0 -0.0226374 -0.151325 0 0 0 0)
(0.156228 0.537772 0 -0.00745329 -0.148615 0 0 0 0)
(-0.156031 0.646122 0 -0.00787023 0.147578 0 0 0 0)
(-0.144737 0.0121036 0 -0.0225828 0.153342 0 0 0 0)
(-0.14404 -0.0269422 0 -0.0390857 0.146619 0 0 0 0)
(-0.13583 -0.0483924 0 -0.0551199 0.135879 0 0 0 0)
(-0.12214 -0.0664131 0 -0.0694105 0.122004 0 0 0 0)
(-0.105185 -0.0810178 0 -0.0813596 0.105294 0 0 0 0)
(-0.0860259 -0.0921539 0 -0.0909711 0.0862595 0 0 0 0)
(-0.0652453 -0.100387 0 -0.0984913 0.0654917 0 0 0 0)
(-0.043247 -0.106366 0 -0.104184 0.0434623 0 0 0 0)
(-0.020297 -0.110504 0 -0.108228 0.0204709 0 0 0 0)
(0.00343551 -0.112928 0 -0.110658 -0.00330278 0 0 0 0)
(0.0278065 -0.113478 0 -0.111328 -0.0277176 0 0 0 0)
(0.0526061 -0.111685 0 -0.109895 -0.0525612 0 0 0 0)
(0.0774602 -0.106729 0 -0.105827 -0.0774324 0 0 0 0)
(0.101734 -0.09752 0 -0.098459 -0.101634 0 0 0 0)
(0.124434 -0.0831335 0 -0.0871471 -0.124172 0 0 0 0)
(0.143816 -0.0634759 0 -0.0716027 -0.143938 0 0 0 0)
(0.1569 -0.0385934 0 -0.052419 -0.159865 0 0 0 0)
(0.160789 0.0062654 0 -0.031231 -0.170221 0 0 0 0)
(0.173796 0.695228 0 -0.0109941 -0.165264 0 0 0 0)
(-0.17369 0.804145 0 -0.0109232 0.164065 0 0 0 0)
(-0.162206 0.0122329 0 -0.0300287 0.171841 0 0 0 0)
(-0.162038 -0.0359608 0 -0.05045 0.164944 0 0 0 0)
(-0.152607 -0.061549 0 -0.070064 0.152649 0 0 0 0)
(-0.136666 -0.082806 0 -0.0873957 0.136407 0 0 0 0)
(-0.117109 -0.10001 0 -0.101765 0.117105 0 0 0 0)
(-0.0954782 -0.113084 0 -0.113203 0.0956302 0 0 0 0)
(-0.0725261 -0.122704 0 -0.122079 0.0727204 0 0 0 0)
(-0.0486348 -0.12972 0 -0.128817 0.0488257 0 0 0 0)
(-0.023941 -0.13472 0 -0.133738 0.0241222 0 0 0 0)
(0.00157911 -0.13793 0 -0.136962 -0.00140169 0 0 0 0)
(0.0280133 -0.139182 0 -0.138339 -0.0278372 0 0 0 0)
(0.0553896 -0.137869 0 -0.137414 -0.0552099 0 0 0 0)
(0.0835309 -0.132893 0 -0.133432 -0.0833187 0 0 0 0)
(0.111871 -0.122789 0 -0.125412 -0.111542 0 0 0 0)
(0.139199 -0.106288 0 -0.112351 -0.138711 0 0 0 0)
(0.163081 -0.0830831 0 -0.0936527 -0.163164 0 0 0 0)
(0.179473 -0.0527895 0 -0.0697968 -0.1829 0 0 0 0)
(0.184306 0.00374285 0 -0.0426442 -0.195141 0 0 0 0)
(0.198454 0.873257 0 -0.0154579 -0.188689 0 0 0 0)
(-0.196983 0.982027 0 -0.01437 0.185918 0 0 0 0)
(-0.184264 0.0129823 0 -0.0388269 0.195264 0 0 0 0)
(-0.184076 -0.0461345 0 -0.0640559 0.187426 0 0 0 0)
(-0.172775 -0.076929 0 -0.0877158 0.172842 0 0 0 0)
(-0.153841 -0.101957 0 -0.108117 0.153505 0 0 0 0)
(-0.130992 -0.121795 0 -0.124619 0.130921 0 0 0 0)
(-0.10634 -0.136538 0 -0.137452 0.106444 0 0 0 0)
(-0.080859 -0.147191 0 -0.147253 0.0810183 0 0 0 0)
(-0.054906 -0.154964 0 -0.154721 0.0550784 0 0 0 0)
(-0.0284419 -0.160732 0 -0.160408 0.028629 0 0 0 0)
(-0.0011655 -0.164887 0 -0.164582 0.00138413 0 0 0 0)
(0.0273548 -0.167286 0 -0.167123 -0.0270926 0 0 0 0)
(0.0575128 -0.167166 0 -0.167461 -0.0571936 0 0 0 0)
(0.0894618 -0.163062 0 -0.164562 -0.0890539 0 0 0 0)
(0.122816 -0.152912 0 -0.156968 -0.122238 0 0 0 0)
(0.156193 -0.134755 0 -0.143031 -0.155442 0 0 0 0)
(0.18637 -0.107665 0 -0.121439 -0.186389 0 0 0 0)
(0.207909 -0.0705695 0 -0.0921643 -0.211957 0 0 0 0)
(0.215127 0.000476445 0 -0.0572046 -0.22791 0 0 0 0)
(0.231899 1.07906 0 -0.0209298 -0.220606 0 0 0 0)
(-0.226887 1.18533 0 -0.0185182 0.214086 0 0 0 0)
(-0.211891 0.0137402 0 -0.0495639 0.224688 0 0 0 0)
(-0.210926 -0.0583826 0 -0.0807043 0.214862 0 0 0 0)
(-0.196668 -0.0954693 0 -0.109038 0.196774 0 0 0 0)
(-0.173569 -0.124727 0 -0.132569 0.173166 0 0 0 0)
(-0.146445 -0.147072 0 -0.150808 0.146323 0 0 0 0)
(-0.118112 -0.162987 0 -0.1644 0.118176 0 0 0 0)
(-0.0897951 -0.17407 0 -0.174461 0.0899158 0 0 0 0)
(-0.0617897 -0.182109 0 -0.182143 0.0619316 0 0 0 0)
(-0.0338013 -0.188414 0 -0.188356 0.0339782 0 0 0 0)
(-0.00513549 -0.193651 0 -0.193617 0.00538287 0 0 0 0)
(0.0251335 -0.19776 0 -0.197899 -0.0247872 0 0 0 0)
(0.0579499 -0.19983 0 -0.200541 -0.0574733 0 0 0 0)
(0.0940246 -0.197938 0 -0.200174 -0.0933736 0 0 0 0)
(0.133402 -0.189177 0 -0.194676 -0.132483 0 0 0 0)
(0.174727 -0.17044 0 -0.181353 -0.173567 0 0 0 0)
(0.213948 -0.139598 0 -0.15754 -0.213778 0 0 0 0)
(0.243707 -0.0943097 0 -0.121986 -0.248547 0 0 0 0)
(0.255541 -0.00490605 0 -0.0765247 -0.27111 0 0 0 0)
(0.276588 1.32177 0 -0.0280047 -0.263366 0 0 0 0)
(-0.265065 1.4208 0 -0.0239439 0.25017 0 0 0 0)
(-0.24645 0.0137581 0 -0.0635117 0.261621 0 0 0 0)
(-0.24355 -0.0740494 0 -0.10201 0.248266 0 0 0 0)
(-0.22464 -0.118624 0 -0.135709 0.224792 0 0 0 0)
(-0.195611 -0.152407 0 -0.162236 0.195129 0 0 0 0)
(-0.162823 -0.176785 0 -0.181453 0.162643 0 0 0 0)
(-0.129993 -0.192946 0 -0.194734 0.130001 0 0 0 0)
(-0.0986027 -0.203435 0 -0.203978 0.0986572 0 0 0 0)
(-0.0688009 -0.210902 0 -0.211016 0.0688773 0 0 0 0)
(-0.0399154 -0.21728 0 -0.217285 0.0400415 0 0 0 0)
(-0.010708 -0.223653 0 -0.223685 0.0109354 0 0 0 0)
(0.0204305 -0.230142 0 -0.230391 -0.0200154 0 0 0 0)
(0.0552374 -0.235753 0 -0.236731 -0.0545802 0 0 0 0)
(0.095327 -0.238072 0 -0.241022 -0.0943539 0 0 0 0)
(0.141637 -0.233106 0 -0.240318 -0.140206 0 0 0 0)
(0.193329 -0.21605 0 -0.230389 -0.191463 0 0 0 0)
(0.245737 -0.182645 0 -0.206199 -0.245067 0 0 0 0)
(0.288924 -0.127901 0 -0.163722 -0.294732 0 0 0 0)
(0.309109 -0.014342 0 -0.103406 -0.328947 0 0 0 0)
(0.336428 1.61353 0 -0.0375098 -0.320668 0 0 0 0)
(-0.314342 1.69712 0 -0.0316271 0.296944 0 0 0 0)
(-0.289958 0.0118363 0 -0.0828518 0.30831 0 0 0 0)
(-0.283124 -0.0952113 0 -0.13061 0.288892 0 0 0 0)
(-0.256894 -0.148607 0 -0.170263 0.257093 0 0 0 0)
(-0.219313 -0.186876 0 -0.199133 0.218724 0 0 0 0)
(-0.178943 -0.212199 0 -0.217848 0.178684 0 0 0 0)
(-0.140637 -0.226973 0 -0.229004 0.140554 0 0 0 0)
(-0.106077 -0.235194 0 -0.23569 0.106011 0 0 0 0)
(-0.0750958 -0.240725 0 -0.240698 0.0750454 0 0 0 0)
(-0.0464707 -0.246356 0 -0.246191 0.0464809 0 0 0 0)
(-0.0182422 -0.253708 0 -0.253568 0.0183826 0 0 0 0)
(0.0120872 -0.263275 0 -0.263395 -0.0116435 0 0 0 0)
(0.0473194 -0.274168 0 -0.275212 -0.0464766 0 0 0 0)
(0.0904378 -0.283563 0 -0.287174 -0.0890568 0 0 0 0)
(0.144035 -0.286286 0 -0.295555 -0.141842 0 0 0 0)
(0.208846 -0.275301 0 -0.294154 -0.205752 0 0 0 0)
(0.280615 -0.242867 0 -0.274083 -0.278735 0 0 0 0)
(0.3465 -0.17819 0 -0.225072 -0.353169 0 0 0 0)
(0.381753 -0.0308423 0 -0.142212 -0.408435 0 0 0 0)
(0.417504 1.97139 0 -0.0502219 -0.397629 0 0 0 0)
(-0.379544 2.02606 0 -0.0433986 0.359104 0 0 0 0)
(-0.345432 0.00570633 0 -0.111399 0.368173 0 0 0 0)
(-0.330961 -0.125266 0 -0.170628 0.338234 0 0 0 0)
(-0.293164 -0.188792 0 -0.216249 0.293438 0 0 0 0)
(-0.243196 -0.230816 0 -0.245709 0.242497 0 0 0 0)
(-0.192694 -0.254956 0 -0.261196 0.192345 0 0 0 0)
(-0.147835 -0.265619 0 -0.267251 0.14761 0 0 0 0)
(-0.110297 -0.268944 0 -0.268668 0.110022 0 0 0 0)
(-0.0793013 -0.270432 0 -0.269503 0.0790117 0 0 0 0)
(-0.0527851 -0.273943 0 -0.272814 0.0525927 0 0 0 0)
(-0.0279125 -0.281777 0 -0.280625 0.0279371 0 0 0 0)
(-0.00121381 -0.295001 0 -0.294106 0.0016026 0 0 0 0)
(0.0314588 -0.313166 0 -0.313372 -0.0305179 0 0 0 0)
(0.0749838 -0.333437 0 -0.336932 -0.0731954 0 0 0 0)
(0.134656 -0.349802 0 -0.360844 -0.131476 0 0 0 0)
(0.214801 -0.352943 0 -0.377094 -0.209725 0 0 0 0)
(0.31482 -0.330062 0 -0.371197 -0.309984 0 0 0 0)
(0.420795 -0.257601 0 -0.319479 -0.426517 0 0 0 0)
(0.483959 -0.0588021 0 -0.199906 -0.520388 0 0 0 0)
(0.528862 2.4196 0 -0.0658079 -0.498321 0 0 0 0)
(-0.46914 2.4244 0 -0.0626614 0.446634 0 0 0 0)
(-0.417187 -0.00903355 0 -0.155202 0.446764 0 0 0 0)
(-0.387975 -0.169947 0 -0.227673 0.39784 0 0 0 0)
(-0.331975 -0.244344 0 -0.277557 0.332529 0 0 0 0)
(-0.26426 -0.287969 0 -0.303753 0.263524 0 0 0 0)
(-0.200486 -0.307086 0 -0.311305 0.200022 0 0 0 0)
(-0.148109 -0.309296 0 -0.307621 0.147632 0 0 0 0)
(-0.108329 -0.303792 0 -0.299772 0.107682 0 0 0 0)
(-0.0792418 -0.298154 0 -0.293316 0.0785403 0 0 0 0)
(-0.0575927 -0.297431 0 -0.292245 0.0570444 0 0 0 0)
(-0.0395349 -0.304698 0 -0.299295 0.039303 0 0 0 0)
(-0.0206595 -0.32173 0 -0.316379 0.0208192 0 0 0 0)
(0.00449386 -0.348966 0 -0.344647 -0.00367474 0 0 0 0)
(0.0429654 -0.384522 0 -0.384084 -0.0409924 0 0 0 0)
(0.103872 -0.422815 0 -0.432243 -0.0997392 0 0 0 0)
(0.198494 -0.453808 0 -0.481317 -0.19037 0 0 0 0)
(0.338229 -0.459659 0 -0.511091 -0.326461 0 0 0 0)
(0.517791 -0.388594 0 -0.470567 -0.519641 0 0 0 0)
(0.635425 -0.102647 0 -0.290646 -0.700322 0 0 0 0)
(0.683218 2.9901 0 -0.0822506 -0.647993 0 0 0 0)
(-0.597407 2.91945 0 -0.0953038 0.562772 0 0 0 0)
(-0.510444 -0.0430876 0 -0.223898 0.547153 0 0 0 0)
(-0.453316 -0.239502 0 -0.30671 0.465225 0 0 0 0)
(-0.369243 -0.323108 0 -0.354734 0.368936 0 0 0 0)
(-0.276944 -0.363322 0 -0.370094 0.275426 0 0 0 0)
(-0.196562 -0.370848 0 -0.362239 0.195393 0 0 0 0)
(-0.136302 -0.357959 0 -0.342183 0.135049 0 0 0 0)
(-0.0959913 -0.338035 0 -0.319677 0.0944936 0 0 0 0)
(-0.0717738 -0.32107 0 -0.301794 0.0702767 0 0 0 0)
(-0.0587648 -0.31318 0 -0.293258 0.0575832 0 0 0 0)
(-0.0520468 -0.318002 0 -0.297296 0.0513699 0 0 0 0)
(-0.0465654 -0.337979 0 -0.31661 0.0464911 0 0 0 0)
(-0.0362462 -0.374978 0 -0.353808 0.0370089 0 0 0 0)
(-0.0126125 -0.429502 0 -0.411879 0.0146682 0 0 0 0)
(0.0374223 -0.499179 0 -0.493601 -0.0323644 0 0 0 0)
(0.135954 -0.579665 0 -0.599357 -0.122918 0 0 0 0)
(0.32557 -0.659333 0 -0.713574 -0.298962 0 0 0 0)
(0.64124 -0.631462 0 -0.737842 -0.650603 0 0 0 0)
(0.872275 -0.187154 0 -0.495183 -1.0842 0 0 0 0)
(0.901758 3.76791 0 -0.161527 -0.942327 0 0 0 0)
(-0.788341 3.53432 0 -0.143769 0.781485 0 0 0 0)
(-0.628594 -0.106581 0 -0.312069 0.677075 0 0 0 0)
(-0.518811 -0.348164 0 -0.398882 0.530629 0 0 0 0)
(-0.395359 -0.434143 0 -0.431869 0.390331 0 0 0 0)
(-0.271765 -0.461512 0 -0.4242 0.267281 0 0 0 0)
(-0.172574 -0.447463 0 -0.390971 0.169395 0 0 0 0)
(-0.105547 -0.410195 0 -0.346456 0.102552 0 0 0 0)
(-0.067939 -0.368564 0 -0.303034 0.0647269 0 0 0 0)
(-0.0528225 -0.335064 0 -0.268933 0.0498356 0 0 0 0)
(-0.0530946 -0.316337 0 -0.249031 0.0508121 0 0 0 0)
(-0.062887 -0.315791 0 -0.246323 0.0612827 0 0 0 0)
(-0.0771716 -0.336091 0 -0.263253 0.0761506 0 0 0 0)
(-0.0907754 -0.380789 0 -0.304641 0.0911828 0 0 0 0)
(-0.0968279 -0.453895 0 -0.37924 0.100408 0 0 0 0)
(-0.083605 -0.560402 0 -0.501305 0.0927895 0 0 0 0)
(-0.0214797 -0.720406 0 -0.70074 0.0433079 0 0 0 0)
(0.199744 -0.987343 0 -1.02384 -0.128971 0 0 0 0)
(0.736182 -1.17383 0 -1.36499 -0.680144 0 0 0 0)
(1.21174 -0.394371 0 -1.32276 -1.35502 0 0 0 0)
(1.33993 5.01663 0 -1.03977 -0.865605 0 0 0 0)
(-1.05325 4.37801 0 -0.27726 0.724629 0 0 0 0)
(-0.765557 -0.293944 0 -0.480484 0.679295 0 0 0 0)
(-0.573117 -0.526246 0 -0.480921 0.505161 0 0 0 0)
(-0.394561 -0.586456 0 -0.455844 0.357634 0 0 0 0)
(-0.236046 -0.584258 0 -0.401506 0.228102 0 0 0 0)
(-0.118818 -0.535576 0 -0.329611 0.115825 0 0 0 0)
(-0.0483649 -0.462628 0 -0.251202 0.0442049 0 0 0 0)
(-0.0184676 -0.390752 0 -0.179516 0.0131025 0 0 0 0)
(-0.0177712 -0.334984 0 -0.123648 0.0131048 0 0 0 0)
(-0.0361553 -0.301733 0 -0.0883053 0.0328122 0 0 0 0)
(-0.0662686 -0.292664 0 -0.074318 0.0637437 0 0 0 0)
(-0.104883 -0.308079 0 -0.081846 0.102152 0 0 0 0)
(-0.152233 -0.35072 0 -0.115103 0.147651 0 0 0 0)
(-0.209277 -0.427895 0 -0.187946 0.203667 0 0 0 0)
(-0.284078 -0.55628 0 -0.331218 0.275355 0 0 0 0)
(-0.386585 -0.801426 0 -0.640586 0.374349 0 0 0 0)
(-0.338677 -1.38278 0 -1.37117 0.494076 0 0 0 0)
(0.342327 -1.85751 0 -2.45949 0.303433 0 0 0 0)
(1.19749 -0.372615 0 -3.6522 -0.527732 0 0 0 0)
(3.26429 5.98853 0 -4.43358 -2.29083 0 0 0 0)
(-1.54608 4.93825 0 -0.294985 2.34839 0 0 0 0)
(-0.832255 -0.32605 0 -0.351697 1.59069 0 0 0 0)
(-0.494171 -0.669826 0 -0.2584 1.00235 0 0 0 0)
(-0.315943 -0.711202 0 -0.157853 0.593041 0 0 0 0)
(-0.145532 -0.70332 0 -0.0533292 0.287914 0 0 0 0)
(-0.0222709 -0.631361 0 0.0619754 0.0828182 0 0 0 0)
(0.0445478 -0.512918 0 0.193676 -0.031694 0 0 0 0)
(0.0596153 -0.399664 0 0.316587 -0.0654583 0 0 0 0)
(0.0383879 -0.315355 0 0.412346 -0.0459841 0 0 0 0)
(-0.00376454 -0.265698 0 0.476151 -0.00197158 0 0 0 0)
(-0.0564277 -0.24645 0 0.512746 0.0517178 0 0 0 0)
(-0.117957 -0.252184 0 0.527788 0.113262 0 0 0 0)
(-0.196876 -0.279274 0 0.524204 0.190166 0 0 0 0)
(-0.312943 -0.326191 0 0.496657 0.303389 0 0 0 0)
(-0.536245 -0.389721 0 0.418085 0.503796 0 0 0 0)
(-1.06143 -0.501685 0 0.218125 0.879915 0 0 0 0)
(-1.61916 -1.05826 0 -0.436122 1.7286 0 0 0 0)
(-1.54485 -2.19564 0 -1.33476 1.75911 0 0 0 0)
(-0.762348 -2.98864 0 -4.36491 -2.39011 0 0 0 0)
(9.42571 7.83519 0 -5.71985 -11.5144 0 0 0 0)
(-1.69993 8.31709 0 -0.241802 -0.579898 0 0 0 0)
(-0.728972 -1.63998 0 0.119086 -1.25041 0 0 0 0)
(-0.379272 -1.52389 0 0.674997 -1.14648 0 0 0 0)
(-0.18949 -1.30089 0 1.26365 -0.762568 0 0 0 0)
(-0.0162177 -1.09448 0 1.83755 -0.572853 0 0 0 0)
(0.128187 -0.855185 0 2.32198 -0.485672 0 0 0 0)
(0.206247 -0.610904 0 2.70965 -0.383572 0 0 0 0)
(0.200202 -0.405042 0 2.99856 -0.262476 0 0 0 0)
(0.141793 -0.271498 0 3.19292 -0.155188 0 0 0 0)
(0.0642449 -0.204031 0 3.31774 -0.0685379 0 0 0 0)
(-0.0146316 -0.17743 0 3.40433 0.00698063 0 0 0 0)
(-0.0934248 -0.169631 0 3.47494 0.083316 0 0 0 0)
(-0.183363 -0.160593 0 3.54239 0.176229 0 0 0 0)
(-0.315396 -0.114265 0 3.62807 0.3106 0 0 0 0)
(-0.56261 0.0202459 0 3.74925 0.560734 0 0 0 0)
(-1.24079 0.423377 0 4.26324 1.01457 0 0 0 0)
(-1.89156 -0.503588 0 4.28354 2.15591 0 0 0 0)
(-3.58646 -5.97621 0 7.66833 3.14807 0 0 0 0)
(-3.18761 -13.6461 0 3.01824 1.35937 0 0 0 0)
(13.3491 19.893 0 5.12603 -13.5232 0 0 0 0)
(-1.6688 3.10794 0 4.67028 4.94894 0 0 0 0)
(0.0845434 -0.892637 0 7.51223 3.42101 0 0 0 0)
(0.650396 -0.181983 0 10.3649 1.54573 0 0 0 0)
(0.846613 -0.137569 0 12.6277 0.531746 0 0 0 0)
(0.912791 -0.426424 0 14.0273 -0.0121153 0 0 0 0)
(0.849826 -0.442079 0 14.7362 -0.34804 0 0 0 0)
(0.721136 -0.289723 0 15.0004 -0.491954 0 0 0 0)
(0.542886 -0.17128 0 15.0772 -0.456044 0 0 0 0)
(0.35756 -0.121416 0 15.1284 -0.324689 0 0 0 0)
(0.207644 -0.10353 0 15.212 -0.186184 0 0 0 0)
(0.100777 -0.0945965 0 15.3249 -0.0774741 0 0 0 0)
(0.0201042 -0.0829359 0 15.4547 0.00735912 0 0 0 0)
(-0.0437482 -0.0519898 0 15.5963 0.0807144 0 0 0 0)
(-0.106079 0.0583144 0 15.7757 0.141307 0 0 0 0)
(0.0989226 0.314252 0 15.989 0.16315 0 0 0 0)
(-0.527143 1.09349 0 16.6783 0.136547 0 0 0 0)
(1.78594 1.07524 0 17.0062 -0.187587 0 0 0 0)
(-2.81015 -2.99219 0 22.0574 0.783899 0 0 0 0)
(-3.30465 -19.6599 0 13.3511 8.25617 0 0 0 0)
(1.28144 19.999 0 41.6854 6.26174 0 0 0 0)
(10.4826 16.687 0 196.677 -11.4069 0 0 0 0)
(4.96568 -5.04319 0 194.509 -8.38808 0 0 0 0)
(4.73617 -4.41315 0 191.627 -5.47106 0 0 0 0)
(3.4729 -2.85874 0 189.122 -3.79294 0 0 0 0)
(2.09232 -1.97427 0 187.308 -2.47476 0 0 0 0)
(1.10131 -1.33502 0 186.117 -1.39225 0 0 0 0)
(0.547218 -0.718908 0 185.357 -0.697656 0 0 0 0)
(0.328148 -0.237777 0 184.849 -0.383622 0 0 0 0)
(0.276592 -0.00163799 0 184.486 -0.288599 0 0 0 0)
(0.260803 0.0431833 0 184.215 -0.260568 0 0 0 0)
(0.228049 0.0161135 0 184.017 -0.228252 0 0 0 0)
(0.17793 -0.0114427 0 183.886 -0.182085 0 0 0 0)
(0.13765 -0.0266444 0 183.819 -0.133874 0 0 0 0)
(0.0773134 -0.0318295 0 183.792 -0.103451 0 0 0 0)
(0.340052 0.0154858 0 183.848 -0.160359 0 0 0 0)
(-0.223568 0.0726404 0 183.353 -0.433188 0 0 0 0)
(3.48747 0.143764 0 184.599 -1.32649 0 0 0 0)
(-7.24161 2.46754 0 178.079 -1.65219 0 0 0 0)
(16.4404 -8.16828 0 194.65 -0.801846 0 0 0 0)
(-41.6874 5.37513 0 164.944 26.176 0 0 0 0)
)
;

boundaryField
{
    movingWall
    {
        type            extrapolatedCalculated;
        value           nonuniform List<tensor> 
20
(
(10.4826 16.687 0 383.738 -38.0549 0 0 0 0)
(4.96568 -5.04319 0 374.332 -28.6932 0 0 0 0)
(4.73617 -4.41315 0 363.875 -17.8821 0 0 0 0)
(3.4729 -2.85874 0 355.387 -11.0406 0 0 0 0)
(2.09232 -1.97427 0 349.983 -6.44719 0 0 0 0)
(1.10131 -1.33502 0 347.018 -3.14356 0 0 0 0)
(0.547218 -0.718908 0 345.578 -1.1071 0 0 0 0)
(0.328148 -0.237777 0 344.829 -0.267925 0 0 0 0)
(0.276592 -0.00163799 0 344.266 -0.155992 0 0 0 0)
(0.260803 0.0431833 0 343.723 -0.261373 0 0 0 0)
(0.228049 0.0161135 0 343.222 -0.328725 0 0 0 0)
(0.17793 -0.0114427 0 342.81 -0.325827 0 0 0 0)
(0.13765 -0.0266444 0 342.511 -0.282954 0 0 0 0)
(0.0773134 -0.0318295 0 342.26 -0.219249 0 0 0 0)
(0.340052 0.0154858 0 342.201 -0.155636 0 0 0 0)
(-0.223568 0.0726404 0 340.9 -0.281192 0 0 0 0)
(3.48747 0.143764 0 343.096 -0.446198 0 0 0 0)
(-7.24161 2.46754 0 326.95 -0.856247 0 0 0 0)
(16.4404 -8.16828 0 372.062 -10.3164 0 0 0 0)
(-41.6874 5.37513 0 261.188 31.8169 0 0 0 0)
)
;
    }
    fixedWalls
    {
        type            extrapolatedCalculated;
        value           nonuniform List<tensor> 
60
(
(-0.0726297 0.072501 0 -0.0468408 0.0775827 0 0 0 0)
(-0.114733 0.23783 0 -0.0162352 0.0980453 0 0 0 0)
(-0.13757 0.464682 0 -0.00819857 0.118079 0 0 0 0)
(-0.147528 0.710148 0 -0.00464502 0.126721 0 0 0 0)
(-0.15615 0.971568 0 -0.00536581 0.135649 0 0 0 0)
(-0.168991 1.25274 0 -0.00787023 0.147578 0 0 0 0)
(-0.187631 1.56188 0 -0.0109232 0.164065 0 0 0 0)
(-0.212684 1.909 0 -0.01437 0.185918 0 0 0 0)
(-0.245111 2.30556 0 -0.0185182 0.214086 0 0 0 0)
(-0.286756 2.76535 0 -0.0239439 0.25017 0 0 0 0)
(-0.340887 3.30623 0 -0.0316271 0.296944 0 0 0 0)
(-0.413265 3.95312 0 -0.0433986 0.359104 0 0 0 0)
(-0.514482 4.74265 0 -0.0626614 0.446634 0 0 0 0)
(-0.66391 5.73966 0 -0.0953038 0.562772 0 0 0 0)
(-0.895697 6.99374 0 -0.143769 0.781485 0 0 0 0)
(-1.23899 8.8656 0 -0.27726 0.724629 0 0 0 0)
(-2.00474 9.89226 0 -0.294985 2.34839 0 0 0 0)
(-2.41893 18.2591 0 -0.241802 -0.579898 0 0 0 0)
(-2.97194 7.57267 0 4.67028 4.94894 0 0 0 0)
(16.2622 38.0549 0 196.677 -11.4069 0 0 0 0)
(0.0782725 0.0775736 0 -0.0500457 -0.0829854 0 0 0 0)
(0.12191 0.254368 0 -0.0168884 -0.104555 0 0 0 0)
(0.145826 0.495794 0 -0.00892531 -0.126075 0 0 0 0)
(0.157612 0.75867 0 -0.0059208 -0.136612 0 0 0 0)
(0.169509 1.04224 0 -0.00745329 -0.148615 0 0 0 0)
(0.187425 1.35313 0 -0.0109941 -0.165264 0 0 0 0)
(0.213486 1.70329 0 -0.0154579 -0.188689 0 0 0 0)
(0.249256 2.10788 0 -0.0209298 -0.220606 0 0 0 0)
(0.297205 2.58572 0 -0.0280047 -0.263366 0 0 0 0)
(0.361275 3.16135 0 -0.0375098 -0.320668 0 0 0 0)
(0.447244 3.86839 0 -0.0502219 -0.397629 0 0 0 0)
(0.562163 4.75186 0 -0.0658079 -0.498321 0 0 0 0)
(0.710476 5.86168 0 -0.0822506 -0.647993 0 0 0 0)
(0.891165 7.34383 0 -0.161527 -0.942327 0 0 0 0)
(1.35659 9.63098 0 -1.03977 -0.865605 0 0 0 0)
(5.05026 10.8063 0 -4.43358 -2.29083 0 0 0 0)
(19.0909 18.7943 0 -5.71985 -11.5144 0 0 0 0)
(27.9297 56.8638 0 5.12603 -13.5232 0 0 0 0)
(-1.41322 72.8871 0 41.6854 6.26174 0 0 0 0)
(-138.812 31.8169 0 164.944 26.176 0 0 0 0)
(-0.0774461 0.0462494 0 -0.0726297 0.072501 0 0 0 0)
(-0.0951897 0.0133495 0 -0.237155 0.112497 0 0 0 0)
(-0.107438 0.00172672 0 -0.453388 0.125899 0 0 0 0)
(-0.102311 -0.00516848 0 -0.666909 0.119404 0 0 0 0)
(-0.0914663 -0.00764862 0 -0.862633 0.105225 0 0 0 0)
(-0.0778145 -0.00846224 0 -1.03277 0.0888091 0 0 0 0)
(-0.0627375 -0.00895187 0 -1.17389 0.071376 0 0 0 0)
(-0.0467303 -0.00945622 0 -1.28372 0.0530017 0 0 0 0)
(-0.02969 -0.00979594 0 -1.36081 0.0335511 0 0 0 0)
(-0.0121033 -0.0100883 0 -1.40248 0.0138179 0 0 0 0)
(0.00582854 -0.0103434 0 -1.40923 -0.00680206 0 0 0 0)
(0.0241411 -0.0103551 0 -1.37917 -0.0275556 0 0 0 0)
(0.042278 -0.010248 0 -1.31266 -0.0482226 0 0 0 0)
(0.0600745 -0.0100262 0 -1.21006 -0.0685475 0 0 0 0)
(0.0771732 -0.00966423 0 -1.07236 -0.0883274 0 0 0 0)
(0.0929203 -0.00879995 0 -0.901365 -0.107204 0 0 0 0)
(0.105583 -0.00602425 0 -0.700682 -0.123527 0 0 0 0)
(0.111922 0.001373 0 -0.479034 -0.131301 0 0 0 0)
(0.10019 0.0134319 0 -0.252996 -0.118035 0 0 0 0)
(0.0828171 0.0489022 0 -0.0782725 -0.0775736 0 0 0 0)
)
;
    }
    frontAndBack
    {
        type            empty;
    }
}


// ************************************************************************* //
