/*--------------------------------*- C++ -*----------------------------------*\
| =========                 |                                                 |
| \\      /  F ield         | OpenFOAM: The Open Source CFD Toolbox           |
|  \\    /   O peration     | Version:  2312                                  |
|   \\  /    A nd           | Website:  www.openfoam.com                      |
|    \\/     M anipulation  |                                                 |
\*---------------------------------------------------------------------------*/
FoamFile
{
    version     2.0;
    format      ascii;
    arch        "LSB;label=32;scalar=64";
    class       volVectorField;
    location    "0.25";
    object      LambVectorField;
}
// * * * * * * * * * * * * * * * * * * * * * * * * * * * * * * * * * * * * * //

dimensions      [0 1 -2 0 0 0 0];

internalField   nonuniform List<vector> 
400
(
(-1.68728e-05 -1.69028e-05 -3.06911e-09)
(-4.25848e-05 -8.9773e-05 0)
(-7.81281e-05 -0.000281356 -3.18909e-07)
(-0.000104177 -0.000581862 0)
(-0.000117346 -0.000961998 -2.07463e-06)
(-0.000118255 -0.00137521 0)
(-0.000107966 -0.00177567 -5.21111e-06)
(-8.7652e-05 -0.00212297 0)
(-5.88092e-05 -0.00238527 -8.11476e-06)
(-2.49631e-05 -0.0025337 0)
(1.23424e-05 -0.00255706 -9.0087e-06)
(4.89256e-05 -0.00244875 -0)
(8.14733e-05 -0.00221778 -7.27797e-06)
(0.000106744 -0.00188434 -0)
(0.000121935 -0.00148039 -3.96878e-06)
(0.000124729 -0.00104871 -0)
(0.000113093 -0.000641494 -1.12371e-06)
(8.5968e-05 -0.000313642 -0)
(4.73286e-05 -0.000101444 -6.41621e-08)
(1.91894e-05 -1.93623e-05 -0)
(-9.09739e-05 -4.38874e-05 -1.25884e-08)
(-4.12441e-05 -4.20254e-05 0)
(-2.77845e-05 -4.49319e-05 -5.98273e-08)
(-1.74769e-05 -4.15515e-05 0)
(-1.24817e-05 -4.20275e-05 -1.00053e-07)
(-1.04955e-05 -4.92048e-05 0)
(-9.12263e-06 -5.99598e-05 -1.92191e-07)
(-7.32408e-06 -7.05724e-05 0)
(-4.90395e-06 -7.84739e-05 -2.90921e-07)
(-2.07221e-06 -8.34673e-05 0)
(9.84401e-07 -8.32216e-05 -3.19441e-07)
(3.93671e-06 -7.89826e-05 -0)
(6.51156e-06 -7.09681e-05 -2.5399e-07)
(8.54201e-06 -6.05341e-05 -0)
(1.02312e-05 -5.02724e-05 -1.47685e-07)
(1.27223e-05 -4.41022e-05 -0)
(1.85642e-05 -4.49645e-05 -8.86092e-08)
(3.0033e-05 -4.92208e-05 -0)
(4.45235e-05 -4.57893e-05 -3.83289e-08)
(0.000102939 -4.93352e-05 -0)
(-0.000299092 -8.85469e-05 -3.04536e-08)
(-5.02723e-05 -3.39036e-05 0)
(-2.75327e-05 -2.95214e-05 -4.29744e-08)
(-1.19027e-05 -1.84163e-05 0)
(-2.6772e-06 -5.75113e-06 -1.44817e-08)
(1.1368e-06 3.35356e-06 0)
(2.0688e-06 8.48877e-06 2.85388e-08)
(1.86827e-06 1.11914e-05 0)
(1.28064e-06 1.26997e-05 4.93017e-08)
(5.42848e-07 1.34837e-05 0)
(-2.59863e-07 1.38525e-05 5.57151e-08)
(-1.08703e-06 1.36266e-05 -0)
(-1.83561e-06 1.2514e-05 4.70389e-08)
(-2.19171e-06 9.75658e-06 -0)
(-1.25849e-06 3.91688e-06 1.21566e-08)
(2.92528e-06 -6.51398e-06 -0)
(1.30062e-05 -2.06277e-05 -4.37498e-08)
(2.98022e-05 -3.25153e-05 -0)
(5.40624e-05 -3.68185e-05 -3.5218e-08)
(0.000338783 -9.96452e-05 -0)
(-0.000668024 -0.000138777 -5.11835e-08)
(-5.88299e-05 -2.93883e-05 0)
(-2.69768e-05 -2.18873e-05 -3.43449e-08)
(-1.13482e-05 -1.33004e-05 0)
(-1.13972e-06 -1.84295e-06 -4.95936e-09)
(3.76142e-06 8.29539e-06 0)
(5.02709e-06 1.53413e-05 5.4868e-08)
(4.44645e-06 1.97368e-05 0)
(3.05527e-06 2.23674e-05 9.22782e-08)
(1.30728e-06 2.37402e-05 0)
(-5.85518e-07 2.40368e-05 1.02865e-07)
(-2.4623e-06 2.31687e-05 -0)
(-4.07016e-06 2.07981e-05 8.34524e-08)
(-4.84422e-06 1.61973e-05 -0)
(-3.54813e-06 8.33239e-06 2.77655e-08)
(1.82242e-06 -3.08146e-06 -0)
(1.29539e-05 -1.56844e-05 -3.60415e-08)
(2.97421e-05 -2.47146e-05 -0)
(6.4368e-05 -3.26511e-05 -3.4056e-08)
(0.000760964 -0.000158088 -0)
(-0.00123533 -0.000198542 -7.75059e-08)
(-7.81463e-05 -3.12783e-05 0)
(-2.96289e-05 -1.96722e-05 -3.34481e-08)
(-1.38481e-05 -1.33822e-05 0)
(-3.27446e-06 -4.36758e-06 -1.27669e-08)
(2.56801e-06 4.66063e-06 0)
(4.54066e-06 1.13706e-05 4.4102e-08)
(4.28288e-06 1.55538e-05 0)
(3.00702e-06 1.79341e-05 8.01961e-08)
(1.30944e-06 1.90982e-05 0)
(-5.38495e-07 1.92807e-05 8.95858e-08)
(-2.34153e-06 1.84028e-05 -0)
(-3.77648e-06 1.60523e-05 7.02108e-08)
(-4.10461e-06 1.14162e-05 -0)
(-1.8653e-06 3.64921e-06 1.33303e-08)
(4.80429e-06 -6.77734e-06 -0)
(1.66913e-05 -1.68409e-05 -4.25995e-08)
(3.40908e-05 -2.34171e-05 -0)
(8.80958e-05 -3.6181e-05 -4.11924e-08)
(0.00142064 -0.000231052 -0)
(-0.00204821 -0.000276297 -1.16729e-07)
(-0.000115484 -3.94672e-05 0)
(-3.95017e-05 -2.27066e-05 -4.24578e-08)
(-2.05856e-05 -1.73449e-05 0)
(-8.29959e-06 -9.6759e-06 -3.12352e-08)
(-8.18819e-07 -1.29861e-06 0)
(2.31697e-06 5.06263e-06 2.1668e-08)
(2.79433e-06 8.83237e-06 0)
(2.08301e-06 1.07593e-05 5.30698e-08)
(9.34477e-07 1.15893e-05 0)
(-3.4074e-07 1.16562e-05 5.98595e-08)
(-1.54471e-06 1.08717e-05 -0)
(-2.2995e-06 8.69288e-06 4.22243e-08)
(-1.65587e-06 4.08841e-06 -0)
(2.20855e-06 -3.83342e-06 -1.56509e-08)
(1.12813e-05 -1.41065e-05 -0)
(2.58718e-05 -2.30671e-05 -6.54737e-08)
(4.76357e-05 -2.87081e-05 -0)
(0.000133842 -4.7598e-05 -6.04211e-08)
(0.00238902 -0.000330909 -0)
(-0.0031826 -0.000382331 -1.79343e-07)
(-0.000174826 -5.35801e-05 0)
(-5.83486e-05 -3.02989e-05 -6.33591e-08)
(-3.21624e-05 -2.4593e-05 0)
(-1.56579e-05 -1.66018e-05 -6.00523e-08)
(-5.17448e-06 -7.4656e-06 0)
(-2.86778e-07 -5.69444e-07 -2.72667e-09)
(1.13729e-06 3.25859e-06 0)
(1.06891e-06 4.97594e-06 2.74351e-08)
(5.11533e-07 5.59206e-06 0)
(-1.57585e-07 5.56877e-06 3.2037e-08)
(-7.23684e-07 4.78953e-06 -0)
(-7.07683e-07 2.49131e-06 1.36345e-08)
(1.20557e-06 -2.76273e-06 -0)
(7.56391e-06 -1.21648e-05 -5.64147e-08)
(2.10054e-05 -2.42958e-05 -0)
(4.17125e-05 -3.43043e-05 -1.11336e-07)
(7.30574e-05 -4.04224e-05 -0)
(0.000207551 -6.72992e-05 -9.76391e-08)
(0.00378436 -0.00047432 -0)
(-0.00475531 -0.000529793 -2.81696e-07)
(-0.000261521 -7.45076e-05 0)
(-8.78566e-05 -4.25516e-05 -1.01032e-07)
(-4.94725e-05 -3.53683e-05 0)
(-2.54593e-05 -2.52687e-05 -1.03655e-07)
(-1.00735e-05 -1.36049e-05 0)
(-2.66415e-06 -4.94614e-06 -2.67686e-08)
(-1.36156e-07 -3.63707e-07 0)
(3.50101e-07 1.50906e-06 9.38728e-09)
(2.1094e-07 2.08073e-06 0)
(-5.01394e-08 1.9871e-06 1.29262e-08)
(-1.62993e-07 1.05302e-06 -0)
(5.42272e-07 -1.8395e-06 -1.14628e-08)
(4.00438e-06 -8.80232e-06 -0)
(1.4062e-05 -2.16423e-05 -1.15502e-07)
(3.47397e-05 -3.83834e-05 -0)
(6.63249e-05 -5.19965e-05 -1.96283e-07)
(0.000113901 -5.99129e-05 -0)
(0.000318449 -9.78181e-05 -1.65884e-07)
(0.00579662 -0.000685447 -0)
(-0.00693883 -0.000737691 -4.52041e-07)
(-0.000385483 -0.000104837 0)
(-0.000131727 -6.09762e-05 -1.66568e-07)
(-7.47035e-05 -5.10911e-05 0)
(-3.87904e-05 -3.68439e-05 -1.73107e-07)
(-1.59117e-05 -2.05554e-05 0)
(-4.90916e-06 -8.70407e-06 -5.36417e-08)
(-1.02942e-06 -2.61707e-06 0)
(-5.96378e-08 -2.42677e-07 -1.71349e-09)
(4.66418e-08 4.21746e-07 0)
(-5.17751e-09 2.57172e-07 1.90276e-09)
(1.56668e-07 -1.01997e-06 -0)
(1.51213e-06 -5.08233e-06 -3.63257e-08)
(6.99449e-06 -1.51451e-05 -0)
(2.25779e-05 -3.41324e-05 -2.11867e-07)
(5.47796e-05 -5.93486e-05 -0)
(0.000104251 -8.00216e-05 -3.56891e-07)
(0.000177552 -9.12889e-05 -0)
(0.000483671 -0.000144875 -2.93063e-07)
(0.00872536 -0.0010029 -0)
(-0.00998805 -0.00103572 -7.42501e-07)
(-0.000563656 -0.000149421 0)
(-0.000197151 -8.89547e-05 -2.83e-07)
(-0.000111976 -7.46473e-05 0)
(-5.7644e-05 -5.33496e-05 -2.8957e-07)
(-2.34813e-05 -2.95279e-05 0)
(-7.3252e-06 -1.26162e-05 -8.90203e-08)
(-1.68456e-06 -4.1428e-06 0)
(-2.35127e-07 -9.16803e-07 -7.37297e-09)
(-4.25123e-09 -3.56406e-08 0)
(3.56306e-09 -2.72657e-07 -2.30155e-09)
(3.1007e-07 -2.09727e-06 -0)
(2.36e-06 -8.06021e-06 -6.63911e-08)
(1.06272e-05 -2.32106e-05 -0)
(3.45631e-05 -5.25294e-05 -3.82604e-07)
(8.50775e-05 -9.2507e-05 -0)
(0.000163772 -0.000126023 -6.74267e-07)
(0.000277971 -0.00014308 -0)
(0.000733173 -0.000219195 -5.39459e-07)
(0.0130488 -0.0014912 -0)
(-0.0142891 -0.00147327 -1.25554e-06)
(-0.000824316 -0.00021695 0)
(-0.000296778 -0.000132807 -4.98266e-07)
(-0.000167915 -0.000110936 0)
(-8.45526e-05 -7.74781e-05 -4.89718e-07)
(-3.32442e-05 -4.13274e-05 0)
(-9.69918e-06 -1.64706e-05 -1.3358e-07)
(-1.79611e-06 -4.3335e-06 0)
(6.4024e-08 2.42232e-07 2.22149e-09)
(1.99414e-07 1.5641e-06 0)
(-5.57038e-09 1.35532e-06 1.30594e-08)
(1.59236e-07 -1.15657e-06 -0)
(2.78873e-06 -9.9291e-06 -9.44731e-08)
(1.46997e-05 -3.3155e-05 -0)
(5.10561e-05 -7.98136e-05 -6.87227e-07)
(0.000130728 -0.00014596 -0)
(0.000257871 -0.000203585 -1.32777e-06)
(0.000438931 -0.000231391 -0)
(0.00111848 -0.00034045 -1.04073e-06)
(0.0195509 -0.00226038 -0)
(-0.020452 -0.00213808 -2.20898e-06)
(-0.00121529 -0.000323476 0)
(-0.00045089 -0.00020356 -9.13473e-07)
(-0.000250548 -0.000166716 0)
(-0.000119917 -0.000110493 -8.19759e-07)
(-4.25392e-05 -5.30659e-05 0)
(-8.98051e-06 -1.52538e-05 -1.42563e-07)
(1.14849e-06 2.75538e-06 0)
(2.61243e-06 9.70416e-06 1.01399e-07)
(1.64482e-06 1.2169e-05 0)
(8.46801e-08 1.26436e-05 1.38787e-07)
(-1.21835e-06 9.89316e-06 -0)
(5.91979e-07 -2.26152e-06 -2.48519e-08)
(1.5702e-05 -3.75329e-05 -0)
(6.85836e-05 -0.000113066 -1.1577e-06)
(0.000192994 -0.000226858 -0)
(0.000400668 -0.00033283 -2.69298e-06)
(0.000698709 -0.000386431 -0)
(0.00173788 -0.000547937 -2.12776e-06)
(0.0295258 -0.00349301 -0)
(-0.0294881 -0.00319886 -4.11439e-06)
(-0.00181064 -0.000497733 0)
(-0.000679227 -0.000315076 -1.71971e-06)
(-0.000354983 -0.000241959 0)
(-0.000147153 -0.00013855 -1.21617e-06)
(-3.29411e-05 -4.18822e-05 0)
(1.04739e-05 1.80642e-05 1.9478e-07)
(1.89539e-05 4.58596e-05 0)
(1.55504e-05 5.741e-05 6.81226e-07)
(8.99068e-06 6.32737e-05 0)
(1.29547e-06 6.72236e-05 8.36388e-07)
(-7.02836e-06 6.74112e-05 -0)
(-1.2861e-05 5.46333e-05 6.91029e-07)
(-2.10263e-06 5.49472e-06 -0)
(6.43243e-05 -0.000115198 -1.40758e-06)
(0.00024844 -0.000316707 -0)
(0.000584307 -0.000526347 -5.38658e-06)
(0.00111711 -0.000666478 -0)
(0.00286638 -0.000950521 -4.80582e-06)
(0.0450227 -0.00545707 -0)
(-0.0432592 -0.00500382 -8.30523e-06)
(-0.0026842 -0.000780069 0)
(-0.000935432 -0.000454616 -3.07512e-06)
(-0.000393748 -0.000279804 0)
(-7.23755e-05 -7.08143e-05 -7.4048e-07)
(7.59085e-05 0.000100012 0)
(0.000110097 0.000195976 2.43447e-06)
(9.61523e-05 0.000238288 0)
(6.93615e-05 0.000257954 3.45198e-06)
(4.03806e-05 0.000272894 0)
(9.6606e-06 0.000289267 4.04101e-06)
(-2.46422e-05 0.000303833 -0)
(-6.16736e-05 0.0003056 4.41149e-06)
(-8.64025e-05 0.000256948 -0)
(-4.02114e-05 8.12321e-05 1.18287e-06)
(0.000194839 -0.000279741 -0)
(0.000705405 -0.000716099 -9.45399e-06)
(0.001754 -0.00116493 -0)
(0.00595098 -0.00209142 -1.42e-05)
(0.0721429 -0.00875445 -0)
(-0.064309 -0.00823613 -1.84427e-05)
(-0.00366978 -0.00115981 0)
(-0.000832715 -0.00043238 -3.68612e-06)
(3.26903e-05 2.463e-05 0)
(0.000450614 0.0004656 5.81012e-06)
(0.000551483 0.000765465 0)
(0.000484575 0.000905383 1.28605e-05)
(0.000370908 0.000957087 0)
(0.000259028 0.000984299 1.46502e-05)
(0.000155443 0.00101858 0)
(5.23415e-05 0.00107083 1.65067e-05)
(-6.17961e-05 0.00114811 -0)
(-0.000198554 0.00123258 1.99513e-05)
(-0.000347616 0.00124452 -0)
(-0.000422333 0.0010138 1.73917e-05)
(-0.000201778 0.000344277 -0)
(0.000523805 -0.000634008 -1.10125e-05)
(0.00384863 -0.00296457 -0)
(0.0242205 -0.00929111 -9.29838e-05)
(0.145823 -0.0205401 -0)
(-0.103179 -0.0144196 -4.46641e-05)
(-0.00403228 -0.00138693 0)
(0.000871343 0.000487376 5.24077e-06)
(0.00213599 0.00171966 0)
(0.00244157 0.00268621 3.94836e-05)
(0.00216493 0.00319795 0)
(0.0016923 0.00335888 5.3362e-05)
(0.00124309 0.00338195 0)
(0.000865783 0.00339649 5.45868e-05)
(0.000541037 0.00345497 0)
(0.000235677 0.00358809 5.89633e-05)
(-8.86036e-05 0.00381218 -0)
(-0.000471567 0.00411902 7.20083e-05)
(-0.000935523 0.00440858 -0)
(-0.00141347 0.00440551 8.62363e-05)
(-0.00152182 0.00341203 -0)
(-0.000166016 0.000272235 6.38132e-06)
(0.0140199 -0.0148092 -0)
(0.107799 -0.0656483 -0.0013141)
(0.28156 -0.131586 -0)
(-0.129421 -0.0262281 -0.000131451)
(-0.000632257 -0.000267991 0)
(0.00883338 0.00548611 7.3154e-05)
(0.00993458 0.00851643 0)
(0.00933265 0.0107208 0.000176828)
(0.00757148 0.01168 0)
(0.00568421 0.0118118 0.000197452)
(0.00414793 0.0117469 0)
(0.00294565 0.0117308 0.000189105)
(0.00195672 0.011882 0)
(0.00105597 0.0122671 0.000198212)
(0.00013503 0.0129327 0)
(-0.000908683 0.0139304 0.000241519)
(-0.00215555 0.0152636 -0)
(-0.00354857 0.0165334 0.000338389)
(-0.00469088 0.0172122 -0)
(-0.00585412 0.0193369 0.000601016)
(-0.0147207 0.0345248 -0)
(0.0431683 -0.0640377 -0.00297967)
(0.636895 -0.646945 -0)
(-0.390695 -0.0517583 -0.000312999)
(0.0660057 0.0192653 0)
(0.0643132 0.0293267 0.000391131)
(0.0571485 0.0378133 0)
(0.0476137 0.0446606 0.000680267)
(0.0360267 0.0473615 0)
(0.0255261 0.046322 0.000646195)
(0.0178017 0.0437173 0)
(0.0125996 0.041393 0.000494566)
(0.00885821 0.0402414 0)
(0.00571847 0.0404939 0.000457808)
(0.00270054 0.0421778 0)
(-0.000369405 0.0453239 0.000554758)
(-0.00323694 0.0501713 -0)
(-0.00463295 0.0574036 0.00088366)
(-0.00254388 0.0730822 -0)
(0.01432 0.13309 0.00370015)
(-0.0777518 0.517785 -0)
(-0.946049 1.06096 0.0675474)
(2.09927 -1.03109 -0)
(0.0295778 0.011608 8.62459e-05)
(0.1021 0.0778135 0)
(0.105525 0.0694454 0.000457258)
(0.131838 0.0351579 0)
(0.12473 -0.0271976 5.11778e-05)
(0.0920357 -0.0967422 0)
(0.0643534 -0.158711 0.00164742)
(0.0482829 -0.207152 0)
(0.0380636 -0.241081 0.00381121)
(0.0298997 -0.262825 0)
(0.0225235 -0.275782 0.00493244)
(0.0156352 -0.282294 0)
(0.00987957 -0.28302 0.00511878)
(0.00764466 -0.278684 0)
(0.0190369 -0.266871 0.00454361)
(0.0565559 -0.291751 0)
(0.193553 -0.187254 0.002201)
(0.360244 -0.916302 0)
(-0.586685 0.539644 0.00882178)
(-3.95164 -0.076619 0)
(17.1238 -7.3176 0.297501)
(14.3145 -12.8053 0)
(8.76405 -17.7049 1.59897)
(5.29897 -21.412 0)
(3.05084 -23.6681 2.95948)
(1.47317 -24.829 0)
(0.515011 -25.3164 3.4444)
(0.123973 -25.5285 0)
(0.0719462 -25.7057 3.58172)
(0.120343 -25.9117 0)
(0.151214 -26.1178 3.70726)
(0.149797 -26.2925 0)
(0.13005 -26.4229 3.79758)
(0.100758 -26.535 0)
(0.0715275 -26.5631 3.83827)
(0.128842 -27.0798 0)
(0.205758 -26.2406 3.73301)
(0.375918 -32.0712 0)
(5.23087 -14.1658 0.9894)
(-12.6924 -55.375 0)
)
;

boundaryField
{
    movingWall
    {
        type            calculated;
        value           nonuniform List<vector> 
20
(
(0 -367.051 0)
(0 -379.375 0)
(0 -368.288 0)
(0 -358.246 0)
(0 -351.958 0)
(0 -348.353 0)
(0 -346.297 0)
(0 -345.067 0)
(0 -344.267 0)
(0 -343.679 0)
(0 -343.206 0)
(0 -342.822 0)
(0 -342.537 0)
(0 -342.292 0)
(0 -342.186 0)
(0 -340.827 0)
(0 -342.952 0)
(0 -324.482 0)
(0 -380.23 0)
(0 -255.813 0)
)
;
    }
    fixedWalls
    {
        type            calculated;
        value           uniform (-0 0 0);
    }
    frontAndBack
    {
        type            empty;
    }
}


// ************************************************************************* //
