/*--------------------------------*- C++ -*----------------------------------*\
| =========                 |                                                 |
| \\      /  F ield         | OpenFOAM: The Open Source CFD Toolbox           |
|  \\    /   O peration     | Version:  2312                                  |
|   \\  /    A nd           | Website:  www.openfoam.com                      |
|    \\/     M anipulation  |                                                 |
\*---------------------------------------------------------------------------*/
FoamFile
{
    version     2.0;
    format      ascii;
    arch        "LSB;label=32;scalar=64";
    class       volScalarField;
    location    "0.25";
    object      Lambda2Field;
}
// * * * * * * * * * * * * * * * * * * * * * * * * * * * * * * * * * * * * * //

dimensions      [0 0 -2 0 0 0 0];

internalField   nonuniform List<scalar> 
400
(
0.00383154
0.0070355
0.0110813
0.0116424
0.0118043
0.0096593
0.00941667
0.00768749
0.00784202
0.00723766
0.00764824
0.00753994
0.0088109
0.00897626
0.0113623
0.0118776
0.0133448
0.0117738
0.00800577
0.00441132
0.00924702
0.0102165
0.011112
0.010344
0.00901126
0.00704894
0.00522105
0.00347212
0.00231701
0.00153314
0.00144789
0.00199824
0.00328547
0.00493961
0.00716458
0.00931953
0.0112283
0.0118864
0.0114405
0.0083159
0.0133339
0.0120044
0.0123536
0.0114863
0.0100545
0.00816411
0.00615523
0.00435058
0.00299079
0.00221717
0.002134
0.00277106
0.00411425
0.00604694
0.00834868
0.0106404
0.0125329
0.0137445
0.0136266
0.0132183
0.0161361
0.0141792
0.0142295
0.01348
0.0119943
0.010135
0.00817783
0.00640854
0.00506749
0.00432354
0.00427934
0.00497308
0.00637883
0.00836764
0.0107001
0.0130436
0.0150371
0.0162306
0.0164269
0.0156148
0.0177595
0.0169364
0.0173266
0.0165286
0.0149991
0.0131726
0.0112936
0.00960897
0.00834721
0.00767704
0.00770303
0.00846596
0.00993644
0.0119883
0.014392
0.0168507
0.0190358
0.0203867
0.0202082
0.01691
0.0191908
0.0206754
0.0218006
0.0211171
0.0194969
0.0176554
0.0157838
0.0141442
0.012952
0.0123717
0.0125082
0.0134016
0.0150371
0.0172906
0.0199314
0.0226635
0.0252281
0.0266407
0.0256573
0.0178572
0.0212948
0.0259433
0.0280704
0.0276014
0.025849
0.023891
0.0219176
0.0202397
0.0190754
0.0185903
0.0188933
0.0200292
0.0219932
0.0246743
0.0278426
0.0311823
0.0343764
0.0358604
0.0337997
0.0194003
0.024573
0.033449
0.0368137
0.0365992
0.0345966
0.0323182
0.0300758
0.0282125
0.0269909
0.0265916
0.0271388
0.0286913
0.0312651
0.0347644
0.0389485
0.0434365
0.0478084
0.0496685
0.0462324
0.0221396
0.0293711
0.0442076
0.049161
0.0490882
0.0465369
0.0435902
0.0407456
0.0384316
0.0369878
0.0366315
0.0375205
0.0397508
0.0433774
0.0483406
0.0542936
0.0609503
0.067766
0.0707877
0.0656344
0.0266473
0.0360293
0.0598453
0.0668035
0.0665615
0.0628252
0.0585312
0.0544714
0.0512189
0.0492371
0.0488049
0.0501424
0.0534234
0.0587893
0.0661247
0.0754945
0.0862426
0.0978577
0.104218
0.0969388
0.0340273
0.0448511
0.0830564
0.0924808
0.0912967
0.0850911
0.0781553
0.0717343
0.0666712
0.0635737
0.0628101
0.064665
0.0694811
0.0774193
0.0890738
0.10435
0.122867
0.144274
0.159808
0.149903
0.0464634
0.0557365
0.118599
0.130702
0.126771
0.115574
0.10359
0.0927763
0.0843614
0.0791253
0.0775014
0.0798528
0.0867633
0.0988017
0.117222
0.142747
0.176012
0.218194
0.258858
0.245443
0.0655639
0.0677131
0.175218
0.18879
0.178027
0.15687
0.135607
0.116942
0.102526
0.0934661
0.0901765
0.0927469
0.102216
0.120005
0.148689
0.191325
0.252133
0.339005
0.45068
0.431923
0.141077
0.0775895
0.269591
0.278133
0.250731
0.210054
0.172257
0.140467
0.116621
0.101518
0.0948623
0.097059
0.109169
0.133777
0.176225
0.245107
0.356355
0.548621
0.874342
0.841921
0.159792
0.113316
0.426804
0.406688
0.338887
0.266356
0.202744
0.152301
0.114991
0.0923092
0.0808223
0.081569
0.0940385
0.124244
0.180331
0.284136
0.490459
0.967232
2.02309
1.96509
-2.86533
0
0.59429
0.495218
0.38539
0.288075
0.188957
0.118352
0.0688704
0.041633
0.0271745
0.0261232
0.0353301
0.0634534
0.12098
0.263353
0.648199
1.8519
3.27922
2.01092
-15.7911
0.597083
0.772051
0.353127
0.163788
0.0428465
-0.0179229
0
-0.12217
0
-0.1259
0
-0.118884
0
-0.0639616
0.12462
0.662951
3.0692
5.15316
4.50394
43.9165
0
0
0
-1.06178
0
-1.57535
0
-1.07803
0
-0.66582
0
-0.564893
0
-0.308029
0.392434
2.50113
1.38433
-32.919
0
279.312
11.51
0
0
0
0
-2.49404
0
-1.68239
0
-1.37384
0
-1.07044
0
0.656623
4.96017
14.9127
18.191
-42.0884
0
620.687
3390.65
-608.418
0
-497.598
0
-220.012
0
-38.7048
0
8.00131
3.01717
-1.68976
0
-3.44018
2.93037
0
34.0135
0
0
676.164
)
;

boundaryField
{
    movingWall
    {
        type            calculated;
        value           nonuniform List<scalar> 
20
(
5663.75
0
0
0
0
-104.718
0
-71.5265
0
14.8133
5.57238
0
0
0
5.38089
0
52.2215
0
0
1414.33
)
;
    }
    fixedWalls
    {
        type            calculated;
        value           nonuniform List<scalar> 
60
(
0.00187907
0.00496372
0.0147301
0.0077383
0.0187488
0.00155721
0.0175979
0
0.0164436
0
0.00976118
0
0
0
0
0
1.00215
0
38.0696
7108.03
0.00224435
0.00575351
0.0164464
0.00877394
0.0205313
0.000967062
0.0186463
0
0.0148104
0
0.003388
0
0.0189244
-0.15553
0
-19.1213
151.955
235.793
2869.45
763.658
0.00263881
0.00505028
0.010452
0.00976114
0.014771
0.00991382
0.0143679
0.0105686
0.0141966
0.0131061
0.0146091
0.0125787
0.0152031
0.0110886
0.0161912
0.0113397
0.0150473
0.00903155
0.00643078
0.00218997
)
;
    }
    frontAndBack
    {
        type            empty;
    }
}


// ************************************************************************* //
