/*--------------------------------*- C++ -*----------------------------------*\
| =========                 |                                                 |
| \\      /  F ield         | OpenFOAM: The Open Source CFD Toolbox           |
|  \\    /   O peration     | Version:  2312                                  |
|   \\  /    A nd           | Website:  www.openfoam.com                      |
|    \\/     M anipulation  |                                                 |
\*---------------------------------------------------------------------------*/
FoamFile
{
    version     2.0;
    format      ascii;
    arch        "LSB;label=32;scalar=64";
    class       volScalarField;
    location    "0.25";
    object      magP;
}
// * * * * * * * * * * * * * * * * * * * * * * * * * * * * * * * * * * * * * //

dimensions      [0 2 -2 0 0 0 0];

internalField   nonuniform List<scalar> 
400
(
1.85522e-08
6.64331e-07
1.24783e-05
3.5728e-05
7.03979e-05
0.000115579
0.000169973
0.000232104
0.000300343
0.000372995
0.000448183
0.00052379
0.000597661
0.000667481
0.000730847
0.000785321
0.000828577
0.000858763
0.000875199
0.000877983
0
0
1.18185e-05
3.61292e-05
7.13557e-05
0.000116544
0.000170606
0.00023224
0.000299948
0.000372087
0.000446778
0.000522007
0.000595619
0.000665346
0.000728869
0.0007839
0.000828305
0.000860136
0.000877562
0.000880366
0
0
0
2.32007e-05
5.99854e-05
0.000106632
0.000162085
0.000225159
0.000294445
0.000368331
0.000444975
0.000522361
0.000598317
0.000670565
0.000736784
0.000794691
0.000842054
0.000876361
0.000894521
0.00089645
0
0
0
0
3.4629e-05
8.41278e-05
0.000142839
0.000209547
0.000282867
0.000361178
0.000442626
0.000525144
0.000606485
0.00068427
0.000756034
0.000819253
0.000871198
0.000908422
0.000926927
0.000927295
0
0
0
0
0
4.98266e-05
0.00011334
0.000185595
0.000265145
0.000350323
0.000439206
0.000529632
0.000619215
0.000705377
0.000785365
0.0008562
0.000914421
0.000955596
0.000975149
0.000974373
0
0
0
0
0
4.05334e-06
7.37271e-05
0.000153215
0.000240969
0.000335235
0.000433992
0.000534948
0.000635528
0.000732884
0.00082386
0.00090487
0.000971575
0.00101848
0.00104037
0.00103908
0
0
0
0
0
0
2.33216e-05
0.000111663
0.000209519
0.00031503
0.000426064
0.00054019
0.000654623
0.0007662
0.000871286
0.000965567
0.00104365
0.00109874
0.0011246
0.00112338
0
0
0
0
0
0
0
5.96046e-05
0.000169489
0.000288441
0.000414225
0.000544291
0.00067566
0.00080486
0.000927737
0.00103914
0.00113238
0.00119888
0.00123079
0.00123027
0
0
0
0
0
0
0
0
0.000119128
0.000253797
0.000396902
0.00054584
0.000697505
0.000848185
0.000993236
0.00112658
0.00123995
0.00132228
0.00136308
0.00136401
0
0
0
0
0
0
0
0
5.62616e-05
0.000209004
0.000372061
0.000542919
0.000718459
0.000894918
0.00106732
0.00122868
0.00136883
0.00147326
0.00152716
0.00153058
0
0
0
0
0
0
0
0
0
0.000151549
0.000337145
0.00053295
0.000735984
0.000942809
0.00114849
0.00134545
0.00152143
0.00165725
0.00173098
0.00173823
0
0
0
0
0
0
0
0
0
7.86115e-05
0.00028943
0.00051263
0.000746415
0.000988093
0.00123348
0.00147517
0.00169935
0.00188103
0.00198611
0.00199842
0
0
0
0
0
0
0
0
0
0
0.000224931
0.000477741
0.000744709
0.00102487
0.00131605
0.00161279
0.00190178
0.00215219
0.00230892
0.00232607
0
0
0
0
0
0
0
0
0
0
0.000140672
0.000423817
0.000724552
0.00104463
0.00138564
0.00174713
0.00212113
0.00247395
0.00271224
0.00273065
0
0
0
0
0
0
0
0
0
0
3.42431e-05
0.000346664
0.000678923
0.00103642
0.00142619
0.00185629
0.00233416
0.00284514
0.0032409
0.00327239
0
0
0
0
0
0
0
0
0
0
0
0.000242641
0.000599555
0.000985853
0.00141377
0.0018992
0.00248992
0.0033242
0.00431879
0.00426152
0
0
0
0
0
0
0
0
0
0
0
0.000112374
0.000479967
0.000873625
0.0013033
0.00178123
0.00240238
0.00369954
0.00558476
0.00427156
0
0
0
0
0
0
0
0
0
0
0
0
0.000328792
0.000708755
0.00108445
0.00140798
0.00164192
0.001881
0.000728987
0
0
0
0
0
0
0
0
0
0
0
0
0
0.000167876
0.000479191
0.000744249
0.000918314
0.00032701
0
0
0.00274875
0
0.000551707
0
0
0
0
0
0
0
0
0
0
0.000115633
0.000444695
0.000696983
0.000846289
7.06813e-05
0
0
0.0304653
)
;

boundaryField
{
    movingWall
    {
        type            calculated;
        value           nonuniform List<scalar> 
20
(
0
0.000551707
0
0
0
0
0
0
0
0
0
0
0.000115633
0.000444695
0.000696983
0.000846289
7.06813e-05
0
0
0.0304653
)
;
    }
    fixedWalls
    {
        type            calculated;
        value           nonuniform List<scalar> 
60
(
1.85522e-08
0
0
0
0
0
0
0
0
0
0
0
0
0
0
0
0
0
0
0
0.000877983
0.000880366
0.00089645
0.000927295
0.000974373
0.00103908
0.00112338
0.00123027
0.00136401
0.00153058
0.00173823
0.00199842
0.00232607
0.00273065
0.00327239
0.00426152
0.00427156
0
0.00274875
0.0304653
1.85522e-08
6.64331e-07
1.24783e-05
3.5728e-05
7.03979e-05
0.000115579
0.000169973
0.000232104
0.000300343
0.000372995
0.000448183
0.00052379
0.000597661
0.000667481
0.000730847
0.000785321
0.000828577
0.000858763
0.000875199
0.000877983
)
;
    }
    frontAndBack
    {
        type            empty;
    }
}


// ************************************************************************* //
