/*--------------------------------*- C++ -*----------------------------------*\
| =========                 |                                                 |
| \\      /  F ield         | OpenFOAM: The Open Source CFD Toolbox           |
|  \\    /   O peration     | Version:  2312                                  |
|   \\  /    A nd           | Website:  www.openfoam.com                      |
|    \\/     M anipulation  |                                                 |
\*---------------------------------------------------------------------------*/
FoamFile
{
    version     2.0;
    format      ascii;
    arch        "LSB;label=32;scalar=64";
    class       volScalarField;
    location    "0.25";
    object      magSqrP;
}
// * * * * * * * * * * * * * * * * * * * * * * * * * * * * * * * * * * * * * //

dimensions      [0 4 -4 0 0 0 0];

internalField   nonuniform List<scalar> 
400
(
3.44183e-16
4.41335e-13
1.55707e-10
1.27649e-09
4.95586e-09
1.33586e-08
2.88908e-08
5.38722e-08
9.02061e-08
1.39126e-07
2.00868e-07
2.74356e-07
3.57198e-07
4.45531e-07
5.34138e-07
6.16729e-07
6.8654e-07
7.37474e-07
7.65974e-07
7.70854e-07
0
0
1.39676e-10
1.30532e-09
5.09164e-09
1.35825e-08
2.91064e-08
5.39353e-08
8.99686e-08
1.38449e-07
1.99611e-07
2.72491e-07
3.54761e-07
4.42685e-07
5.31251e-07
6.145e-07
6.86089e-07
7.39834e-07
7.70115e-07
7.75044e-07
0
0
0
5.38274e-10
3.59824e-09
1.13703e-08
2.62716e-08
5.06964e-08
8.66981e-08
1.35668e-07
1.98003e-07
2.72861e-07
3.57983e-07
4.49657e-07
5.42851e-07
6.31534e-07
7.09055e-07
7.68009e-07
8.00168e-07
8.03623e-07
0
0
0
0
1.19916e-09
7.07749e-09
2.04028e-08
4.39101e-08
8.00135e-08
1.3045e-07
1.95918e-07
2.75777e-07
3.67825e-07
4.68225e-07
5.71588e-07
6.71176e-07
7.58986e-07
8.25231e-07
8.59194e-07
8.59875e-07
0
0
0
0
0
2.48269e-09
1.2846e-08
3.44453e-08
7.03019e-08
1.22726e-07
1.92902e-07
2.8051e-07
3.83427e-07
4.97556e-07
6.16798e-07
7.33079e-07
8.36166e-07
9.13164e-07
9.50915e-07
9.49402e-07
0
0
0
0
0
1.64296e-11
5.43569e-09
2.34747e-08
5.80662e-08
1.12383e-07
1.88349e-07
2.86169e-07
4.03896e-07
5.37119e-07
6.78745e-07
8.18789e-07
9.43958e-07
1.0373e-06
1.08237e-06
1.07968e-06
0
0
0
0
0
0
5.43896e-10
1.24686e-08
4.38983e-08
9.92441e-08
1.81531e-07
2.91805e-07
4.28531e-07
5.87063e-07
7.59139e-07
9.3232e-07
1.08921e-06
1.20723e-06
1.26473e-06
1.26199e-06
0
0
0
0
0
0
0
3.55271e-09
2.87266e-08
8.31983e-08
1.71582e-07
2.96252e-07
4.56517e-07
6.478e-07
8.60696e-07
1.07981e-06
1.28228e-06
1.43732e-06
1.51485e-06
1.51355e-06
0
0
0
0
0
0
0
0
1.41914e-08
6.4413e-08
1.57531e-07
2.97942e-07
4.86513e-07
7.19418e-07
9.86518e-07
1.26919e-06
1.53746e-06
1.74842e-06
1.85798e-06
1.86052e-06
0
0
0
0
0
0
0
0
3.16536e-09
4.36825e-08
1.38429e-07
2.94761e-07
5.16184e-07
8.00878e-07
1.13917e-06
1.50967e-06
1.87369e-06
2.17048e-06
2.33222e-06
2.34269e-06
0
0
0
0
0
0
0
0
0
2.29672e-08
1.13667e-07
2.84036e-07
5.41672e-07
8.88889e-07
1.31904e-06
1.81023e-06
2.31474e-06
2.74649e-06
2.99628e-06
3.02143e-06
0
0
0
0
0
0
0
0
0
6.17977e-09
8.37696e-08
2.62789e-07
5.57135e-07
9.76329e-07
1.52148e-06
2.17614e-06
2.88779e-06
3.53829e-06
3.94462e-06
3.99367e-06
0
0
0
0
0
0
0
0
0
0
5.05941e-08
2.28236e-07
5.54592e-07
1.05035e-06
1.73198e-06
2.6011e-06
3.61677e-06
4.63194e-06
5.33111e-06
5.41059e-06
0
0
0
0
0
0
0
0
0
0
1.97885e-08
1.79621e-07
5.24976e-07
1.09125e-06
1.92e-06
3.05246e-06
4.49919e-06
6.12043e-06
7.35623e-06
7.45644e-06
0
0
0
0
0
0
0
0
0
0
1.17259e-09
1.20176e-07
4.60936e-07
1.07417e-06
2.03402e-06
3.44582e-06
5.44829e-06
8.0948e-06
1.05034e-05
1.07085e-05
0
0
0
0
0
0
0
0
0
0
0
5.88748e-08
3.59467e-07
9.71905e-07
1.99873e-06
3.60696e-06
6.19968e-06
1.10503e-05
1.86519e-05
1.81606e-05
0
0
0
0
0
0
0
0
0
0
0
1.2628e-08
2.30369e-07
7.63221e-07
1.69858e-06
3.17278e-06
5.77144e-06
1.36866e-05
3.11895e-05
1.82463e-05
0
0
0
0
0
0
0
0
0
0
0
0
1.08104e-07
5.02334e-07
1.17602e-06
1.9824e-06
2.69591e-06
3.53817e-06
5.31421e-07
0
0
0
0
0
0
0
0
0
0
0
0
0
2.81823e-08
2.29624e-07
5.53907e-07
8.433e-07
1.06935e-07
0
0
7.55562e-06
0
3.04381e-07
0
0
0
0
0
0
0
0
0
0
1.3371e-08
1.97754e-07
4.85785e-07
7.16205e-07
4.99584e-09
0
0
0.000928136
)
;

boundaryField
{
    movingWall
    {
        type            calculated;
        value           nonuniform List<scalar> 
20
(
0
3.04381e-07
0
0
0
0
0
0
0
0
0
0
1.3371e-08
1.97754e-07
4.85785e-07
7.16205e-07
4.99584e-09
0
0
0.000928136
)
;
    }
    fixedWalls
    {
        type            calculated;
        value           nonuniform List<scalar> 
60
(
3.44183e-16
0
0
0
0
0
0
0
0
0
0
0
0
0
0
0
0
0
0
0
7.70854e-07
7.75044e-07
8.03623e-07
8.59875e-07
9.49402e-07
1.07968e-06
1.26199e-06
1.51355e-06
1.86052e-06
2.34269e-06
3.02143e-06
3.99367e-06
5.41059e-06
7.45644e-06
1.07085e-05
1.81606e-05
1.82463e-05
0
7.55562e-06
0.000928136
3.44183e-16
4.41335e-13
1.55707e-10
1.27649e-09
4.95586e-09
1.33586e-08
2.88908e-08
5.38722e-08
9.02061e-08
1.39126e-07
2.00868e-07
2.74356e-07
3.57198e-07
4.45531e-07
5.34138e-07
6.16729e-07
6.8654e-07
7.37474e-07
7.65974e-07
7.70854e-07
)
;
    }
    frontAndBack
    {
        type            empty;
    }
}


// ************************************************************************* //
