/*--------------------------------*- C++ -*----------------------------------*\
| =========                 |                                                 |
| \\      /  F ield         | OpenFOAM: The Open Source CFD Toolbox           |
|  \\    /   O peration     | Version:  2312                                  |
|   \\  /    A nd           | Website:  www.openfoam.com                      |
|    \\/     M anipulation  |                                                 |
\*---------------------------------------------------------------------------*/
FoamFile
{
    version     2.0;
    format      ascii;
    arch        "LSB;label=32;scalar=64";
    class       volScalarField;
    location    "0.25";
    object      magSqrU;
}
// * * * * * * * * * * * * * * * * * * * * * * * * * * * * * * * * * * * * * //

dimensions      [0 2 -2 0 0 0 0];

internalField   nonuniform List<scalar> 
400
(
6.58216e-08
4.30611e-07
1.38382e-06
2.8689e-06
4.72005e-06
6.71568e-06
8.64447e-06
1.03172e-05
1.15809e-05
1.22947e-05
1.24123e-05
1.18929e-05
1.07838e-05
9.18086e-06
7.23603e-06
5.1497e-06
3.16384e-06
1.54196e-06
4.8712e-07
7.59016e-08
4.35793e-07
1.21835e-06
2.45085e-06
4.13458e-06
6.1674e-06
8.36713e-06
1.0512e-05
1.2384e-05
1.37973e-05
1.46089e-05
1.47357e-05
1.41556e-05
1.29166e-05
1.1134e-05
8.98748e-06
6.70773e-06
4.54542e-06
2.71915e-06
1.36318e-06
4.97283e-07
1.46784e-06
2.57691e-06
3.96229e-06
5.70094e-06
7.71459e-06
9.8691e-06
1.1974e-05
1.38211e-05
1.5224e-05
1.60398e-05
1.61824e-05
1.5631e-05
1.44332e-05
1.27057e-05
1.06271e-05
8.41572e-06
6.28664e-06
4.40699e-06
2.88762e-06
1.66923e-06
3.28796e-06
4.70722e-06
6.20281e-06
7.99977e-06
1.00108e-05
1.2119e-05
1.41647e-05
1.59626e-05
1.73378e-05
1.81532e-05
1.83249e-05
1.78313e-05
1.67168e-05
1.50908e-05
1.31173e-05
1.09878e-05
8.8824e-06
6.95086e-06
5.31592e-06
3.75263e-06
6.05205e-06
7.86307e-06
9.44888e-06
1.131e-05
1.33472e-05
1.54376e-05
1.74424e-05
1.92016e-05
2.05584e-05
2.13863e-05
2.16058e-05
2.11943e-05
2.01898e-05
1.86881e-05
1.68305e-05
1.47775e-05
1.26838e-05
1.0706e-05
8.98086e-06
6.96874e-06
9.987e-06
1.23793e-05
1.40776e-05
1.60105e-05
1.80881e-05
2.01771e-05
2.21552e-05
2.38881e-05
2.52409e-05
2.61008e-05
2.6395e-05
2.60999e-05
2.52448e-05
2.39077e-05
2.22016e-05
2.02526e-05
1.81914e-05
1.61829e-05
1.43524e-05
1.1663e-05
1.54667e-05
1.872e-05
2.05898e-05
2.26084e-05
2.47228e-05
2.68008e-05
2.87429e-05
3.04463e-05
3.18022e-05
3.27157e-05
3.31232e-05
3.30012e-05
3.23688e-05
3.12828e-05
2.98216e-05
2.80658e-05
2.61079e-05
2.41018e-05
2.21245e-05
1.84174e-05
2.30595e-05
2.75482e-05
2.96703e-05
3.17863e-05
3.39092e-05
3.59287e-05
3.77877e-05
3.94289e-05
4.07788e-05
4.17665e-05
4.23424e-05
4.24857e-05
4.22059e-05
4.15351e-05
4.05065e-05
3.91338e-05
3.7436e-05
3.55175e-05
3.33558e-05
2.81582e-05
3.35979e-05
3.98232e-05
4.22874e-05
4.4489e-05
4.65436e-05
4.83945e-05
5.00622e-05
5.15599e-05
5.28654e-05
5.39427e-05
5.47643e-05
5.53184e-05
5.56083e-05
5.56401e-05
5.53881e-05
5.47637e-05
5.36509e-05
5.20348e-05
4.97007e-05
4.23392e-05
4.83085e-05
5.69514e-05
5.9837e-05
6.20474e-05
6.38556e-05
6.53121e-05
6.65715e-05
6.77591e-05
6.89284e-05
7.00944e-05
7.1266e-05
7.24527e-05
7.36629e-05
7.48832e-05
7.60187e-05
7.68302e-05
7.69697e-05
7.61711e-05
7.38222e-05
6.3279e-05
6.90462e-05
8.1037e-05
8.43666e-05
8.63559e-05
8.75325e-05
8.81476e-05
8.85839e-05
8.91406e-05
8.99816e-05
9.11947e-05
9.28471e-05
9.49926e-05
9.76723e-05
0.000100885
0.000104477
0.000108014
0.00011078
0.000112018
0.000110205
9.4778e-05
9.87372e-05
0.000115328
0.000118938
0.000120135
0.000119877
0.000118786
0.000117625
0.000116956
0.000117095
0.000118226
0.000120497
0.000124052
0.000129033
0.000135529
0.000143416
0.000152088
0.00016034
0.000166501
0.000166771
0.000143102
0.000142234
0.000165041
0.000168236
0.000167301
0.000163966
0.000159524
0.000155354
0.00015239
0.000151131
0.000151871
0.000154858
0.000160394
0.00016885
0.000180608
0.00019585
0.000214104
0.000233801
0.000251819
0.000258027
0.0002179
0.000208653
0.000238999
0.000239473
0.00023329
0.000223557
0.000212695
0.000203015
0.00019591
0.000192031
0.000191734
0.000195374
0.000203485
0.00021687
0.000236632
0.000263999
0.000299726
0.000343422
0.000391773
0.000419344
0.000342038
0.000310717
0.000350796
0.000342247
0.000324043
0.000301576
0.000278899
0.000259566
0.000245355
0.000236872
0.00023436
0.000238185
0.000249176
0.000268804
0.000299578
0.00034536
0.000411745
0.00050764
0.000645893
0.000780782
0.000591226
0.000500837
0.000522537
0.000485211
0.000440791
0.00039454
0.000351559
0.000316459
0.00029096
0.000275076
0.000268477
0.000271211
0.000284098
0.000309622
0.000352768
0.00042261
0.000539547
0.000753794
0.00114759
0.00148111
0.000889252
0.000636723
0.000716894
0.000638773
0.000559204
0.000478202
0.000403043
0.000344157
0.000302516
0.000276252
0.000263491
0.000263016
0.000274958
0.000301871
0.000350954
0.000438196
0.00061426
0.00105459
0.0019007
0.00314886
0.00448556
0.0021203
0.00152792
0.00103332
0.000713987
0.000495722
0.000350794
0.000253699
0.000192334
0.000155983
0.000136891
0.000130366
0.000134478
0.000149824
0.00018048
0.000238513
0.000362676
0.000781884
0.00147253
0.00727632
0.0250848
0.000413611
0.00023328
0.000143461
0.000114251
7.80109e-05
7.7392e-05
0.000125458
0.000194581
0.000256149
0.0002983
0.000322016
0.000331105
0.000327513
0.000314624
0.000291343
0.000363615
0.000285767
0.00154488
0.000583097
0.0332158
0.010704
0.00926347
0.0101549
0.0132012
0.0158951
0.0176062
0.0185184
0.0190244
0.0194146
0.0197951
0.0201487
0.0204422
0.0206568
0.0208373
0.0208793
0.0218308
0.0202393
0.0333567
0.00554342
0.126757
)
;

boundaryField
{
    movingWall
    {
        type            calculated;
        value           uniform 1;
    }
    fixedWalls
    {
        type            calculated;
        value           uniform 0;
    }
    frontAndBack
    {
        type            empty;
    }
}


// ************************************************************************* //
