/*--------------------------------*- C++ -*----------------------------------*\
| =========                 |                                                 |
| \\      /  F ield         | OpenFOAM: The Open Source CFD Toolbox           |
|  \\    /   O peration     | Version:  2312                                  |
|   \\  /    A nd           | Website:  www.openfoam.com                      |
|    \\/     M anipulation  |                                                 |
\*---------------------------------------------------------------------------*/
FoamFile
{
    version     2.0;
    format      ascii;
    arch        "LSB;label=32;scalar=64";
    class       volScalarField;
    location    "0.25";
    object      magU;
}
// * * * * * * * * * * * * * * * * * * * * * * * * * * * * * * * * * * * * * //

dimensions      [0 1 -1 0 0 0 0];

internalField   nonuniform List<scalar> 
400
(
0.000256557
0.00065621
0.00117636
0.00169378
0.00217257
0.00259146
0.00294015
0.00321204
0.00340307
0.00350638
0.00352311
0.00344861
0.00328387
0.00302999
0.00268999
0.00226929
0.00177872
0.00124176
0.00069794
0.000275502
0.000660146
0.00110379
0.00156552
0.00203337
0.00248343
0.0028926
0.00324222
0.00351909
0.00371447
0.00382216
0.0038387
0.00376239
0.00359397
0.00333676
0.00299791
0.00258993
0.002132
0.00164898
0.00116755
0.000705183
0.00121155
0.00160528
0.00199055
0.00238766
0.00277752
0.00314151
0.00346035
0.00371768
0.0039018
0.00400497
0.00402274
0.00395361
0.00379911
0.00356451
0.00325992
0.00290099
0.00250732
0.00209928
0.0016993
0.00129199
0.00181327
0.00216961
0.00249054
0.00282839
0.00316399
0.00348123
0.00376361
0.00399533
0.00416387
0.00426066
0.00428076
0.00422272
0.00408862
0.00388469
0.00362177
0.00331478
0.00298034
0.00263645
0.00230563
0.00193717
0.00246009
0.00280412
0.0030739
0.00336303
0.00365339
0.00392907
0.00417641
0.00438196
0.00453414
0.00462453
0.0046482
0.00460373
0.0044933
0.00432297
0.00410249
0.00384415
0.00356143
0.003272
0.00299681
0.00263984
0.00316022
0.00351842
0.00375201
0.00400131
0.00425301
0.0044919
0.00470693
0.00488754
0.00502403
0.00510889
0.00513761
0.00510881
0.00502442
0.00488955
0.00471186
0.00450029
0.00426514
0.0040228
0.00378846
0.00341512
0.00393278
0.00432667
0.0045376
0.00475483
0.00497221
0.00517695
0.00536124
0.00551781
0.00563934
0.00571976
0.00575528
0.00574467
0.00568936
0.00559311
0.00546091
0.00529772
0.00510959
0.00490936
0.00470367
0.00429155
0.00480203
0.00524863
0.00544705
0.00563793
0.00582316
0.00599405
0.00614717
0.00627925
0.00638583
0.0064627
0.0065071
0.00651811
0.00649661
0.00644477
0.00636447
0.0062557
0.0061185
0.00595965
0.00577545
0.00530643
0.00579637
0.00631056
0.00650287
0.00667001
0.00682228
0.00695661
0.00707546
0.00718052
0.00727086
0.00734457
0.00740029
0.00743763
0.0074571
0.00745923
0.00744232
0.00740025
0.00732468
0.00721352
0.00704987
0.00650686
0.00695043
0.00754662
0.00773544
0.00787702
0.00799097
0.00808159
0.00815914
0.00823159
0.00830231
0.00837224
0.00844192
0.00851192
0.00858271
0.00865351
0.00871887
0.00876528
0.00877323
0.0087276
0.00859198
0.00795481
0.0083094
0.00900205
0.00918513
0.00929279
0.00935588
0.0093887
0.0094119
0.00944143
0.00948586
0.00954959
0.00963572
0.00974641
0.00988293
0.0100441
0.0102214
0.010393
0.0105252
0.0105839
0.0104978
0.0097354
0.00993666
0.0107391
0.0109059
0.0109606
0.0109488
0.0108989
0.0108455
0.0108146
0.010821
0.0108732
0.0109771
0.0111378
0.0113593
0.0116417
0.0119756
0.0123324
0.0126626
0.0129035
0.012914
0.0119625
0.0119262
0.0128468
0.0129706
0.0129345
0.0128049
0.0126303
0.0124641
0.0123446
0.0122936
0.0123236
0.0124442
0.0126647
0.0129942
0.013439
0.0139946
0.0146323
0.0152906
0.0158688
0.0160632
0.0147614
0.0144448
0.0154596
0.0154749
0.0152738
0.0149518
0.0145841
0.0142483
0.0139968
0.0138575
0.0138468
0.0139776
0.0142648
0.0147265
0.0153829
0.0162481
0.0173126
0.0185317
0.0197933
0.0204779
0.0184943
0.0176272
0.0187295
0.0184999
0.0180012
0.017366
0.0167003
0.016111
0.0156638
0.0153907
0.0153088
0.0154333
0.0157853
0.0163952
0.0173083
0.0185839
0.0202915
0.0225309
0.0254144
0.0279425
0.0243151
0.0223794
0.0228591
0.0220275
0.020995
0.019863
0.0187499
0.0177893
0.0170575
0.0165854
0.0163853
0.0164685
0.0168552
0.0175961
0.0187821
0.0205575
0.0232281
0.0274553
0.033876
0.0384851
0.0298203
0.0252334
0.0267749
0.025274
0.0236475
0.0218678
0.0200759
0.0185515
0.017393
0.0166208
0.0162324
0.0162178
0.0165819
0.0173744
0.0187338
0.0209331
0.0247843
0.0324745
0.0435971
0.0561147
0.0669743
0.0460467
0.0390887
0.0321453
0.0267205
0.0222648
0.0187295
0.0159279
0.0138685
0.0124893
0.0117
0.0114178
0.0115965
0.0122403
0.0134343
0.0154439
0.019044
0.0279622
0.0383736
0.0853014
0.158382
0.0203374
0.0152735
0.0119775
0.0106888
0.00883238
0.00879727
0.0112008
0.0139492
0.0160046
0.0172714
0.0179448
0.0181963
0.0180973
0.0177376
0.0170688
0.0190687
0.0169046
0.039305
0.0241474
0.182252
0.10346
0.0962469
0.100771
0.114897
0.126076
0.132688
0.136083
0.137929
0.139336
0.140695
0.141946
0.142976
0.143725
0.144351
0.144497
0.147753
0.142265
0.182638
0.0744542
0.356029
)
;

boundaryField
{
    movingWall
    {
        type            calculated;
        value           uniform 1;
    }
    fixedWalls
    {
        type            calculated;
        value           uniform 0;
    }
    frontAndBack
    {
        type            empty;
    }
}


// ************************************************************************* //
