/*--------------------------------*- C++ -*----------------------------------*\
| =========                 |                                                 |
| \\      /  F ield         | OpenFOAM: The Open Source CFD Toolbox           |
|  \\    /   O peration     | Version:  2312                                  |
|   \\  /    A nd           | Website:  www.openfoam.com                      |
|    \\/     M anipulation  |                                                 |
\*---------------------------------------------------------------------------*/
FoamFile
{
    version     2.0;
    format      ascii;
    arch        "LSB;label=32;scalar=64";
    class       volScalarField;
    location    "0.25";
    object      staticP;
}
// * * * * * * * * * * * * * * * * * * * * * * * * * * * * * * * * * * * * * //

dimensions      [1 -1 -2 0 0 0 0];

internalField   nonuniform List<scalar> 
400
(
1
1
1.00001
1.00004
1.00007
1.00012
1.00017
1.00023
1.0003
1.00037
1.00045
1.00052
1.0006
1.00067
1.00073
1.00079
1.00083
1.00086
1.00088
1.00088
1
1
1.00001
1.00004
1.00007
1.00012
1.00017
1.00023
1.0003
1.00037
1.00045
1.00052
1.0006
1.00067
1.00073
1.00078
1.00083
1.00086
1.00088
1.00088
1
1
1
1.00002
1.00006
1.00011
1.00016
1.00023
1.00029
1.00037
1.00044
1.00052
1.0006
1.00067
1.00074
1.00079
1.00084
1.00088
1.00089
1.0009
1
1
1
1
1.00003
1.00008
1.00014
1.00021
1.00028
1.00036
1.00044
1.00053
1.00061
1.00068
1.00076
1.00082
1.00087
1.00091
1.00093
1.00093
1
1
1
1
1
1.00005
1.00011
1.00019
1.00027
1.00035
1.00044
1.00053
1.00062
1.00071
1.00079
1.00086
1.00091
1.00096
1.00098
1.00097
1
1
1
1
1
1
1.00007
1.00015
1.00024
1.00034
1.00043
1.00053
1.00064
1.00073
1.00082
1.0009
1.00097
1.00102
1.00104
1.00104
1
1
1
1
1
1
1.00002
1.00011
1.00021
1.00032
1.00043
1.00054
1.00065
1.00077
1.00087
1.00097
1.00104
1.0011
1.00112
1.00112
1
1
1
1
1
1
1
1.00006
1.00017
1.00029
1.00041
1.00054
1.00068
1.0008
1.00093
1.00104
1.00113
1.0012
1.00123
1.00123
1
1
1
1
1
1
1
1
1.00012
1.00025
1.0004
1.00055
1.0007
1.00085
1.00099
1.00113
1.00124
1.00132
1.00136
1.00136
1
1
1
1
1
1
1
1
1.00006
1.00021
1.00037
1.00054
1.00072
1.00089
1.00107
1.00123
1.00137
1.00147
1.00153
1.00153
1
1
1
1
1
1
1
1
1
1.00015
1.00034
1.00053
1.00074
1.00094
1.00115
1.00135
1.00152
1.00166
1.00173
1.00174
1
1
1
1
1
1
1
1
1
1.00008
1.00029
1.00051
1.00075
1.00099
1.00123
1.00148
1.0017
1.00188
1.00199
1.002
1
1
1
1
1
1
1
1
1
1
1.00022
1.00048
1.00074
1.00102
1.00132
1.00161
1.0019
1.00215
1.00231
1.00233
1
1
1
1
1
1
1
1
1
1
1.00014
1.00042
1.00072
1.00104
1.00139
1.00175
1.00212
1.00247
1.00271
1.00273
1
1
1
1
1
1
1
1
1
1
1.00003
1.00035
1.00068
1.00104
1.00143
1.00186
1.00233
1.00285
1.00324
1.00327
1
1
1
1
1
1
1
1
1
1
1
1.00024
1.0006
1.00099
1.00141
1.0019
1.00249
1.00332
1.00432
1.00426
1
1
1
1
1
1
1
1
1
1
1
1.00011
1.00048
1.00087
1.0013
1.00178
1.0024
1.0037
1.00558
1.00427
1
1
1
1
1
1
1
1
1
1
1
1
1.00033
1.00071
1.00108
1.00141
1.00164
1.00188
1.00073
1
1
1
1
1
1
1
1
1
1
1
1
1
1.00017
1.00048
1.00074
1.00092
1.00033
1
1
1.00275
1
1.00055
1
1
1
1
1
1
1
1
1
1
1.00012
1.00044
1.0007
1.00085
1.00007
1
1
1.03047
)
;

boundaryField
{
    movingWall
    {
        type            calculated;
        value           nonuniform List<scalar> 
20
(
1
1.00055
1
1
1
1
1
1
1
1
1
1
1.00012
1.00044
1.0007
1.00085
1.00007
1
1
1.03047
)
;
    }
    fixedWalls
    {
        type            calculated;
        value           nonuniform List<scalar> 
60
(
1
1
1
1
1
1
1
1
1
1
1
1
1
1
1
1
1
1
1
1
1.00088
1.00088
1.0009
1.00093
1.00097
1.00104
1.00112
1.00123
1.00136
1.00153
1.00174
1.002
1.00233
1.00273
1.00327
1.00426
1.00427
1
1.00275
1.03047
1
1
1.00001
1.00004
1.00007
1.00012
1.00017
1.00023
1.0003
1.00037
1.00045
1.00052
1.0006
1.00067
1.00073
1.00079
1.00083
1.00086
1.00088
1.00088
)
;
    }
    frontAndBack
    {
        type            empty;
    }
}


// ************************************************************************* //
