/*--------------------------------*- C++ -*----------------------------------*\
| =========                 |                                                 |
| \\      /  F ield         | OpenFOAM: The Open Source CFD Toolbox           |
|  \\    /   O peration     | Version:  2312                                  |
|   \\  /    A nd           | Website:  www.openfoam.com                      |
|    \\/     M anipulation  |                                                 |
\*---------------------------------------------------------------------------*/
FoamFile
{
    version     2.0;
    format      ascii;
    arch        "LSB;label=32;scalar=64";
    class       volVectorField;
    location    "0.25";
    object      UNear;
}
// * * * * * * * * * * * * * * * * * * * * * * * * * * * * * * * * * * * * * //

dimensions      [0 1 -1 0 0 0 0];

internalField   nonuniform List<vector> 
400
(
(-0.000181574 0.000181252 0)
(-0.000592887 0.000281242 0)
(-0.00113347 0.000314747 0)
(-0.00166727 0.000298509 0)
(-0.00215658 0.000263062 0)
(-0.00258193 0.000222023 0)
(-0.00293473 0.00017844 0)
(-0.00320931 0.000132504 0)
(-0.00340203 8.38777e-05 0)
(-0.00350621 3.45448e-05 0)
(-0.00352306 -1.70051e-05 0)
(-0.00344792 -6.88889e-05 0)
(-0.00328165 -0.000120556 0)
(-0.00302514 -0.000171369 0)
(-0.00268091 -0.000220818 0)
(-0.00225341 -0.000268011 0)
(-0.00175171 -0.000308818 0)
(-0.00119759 -0.000328253 0)
(-0.000632489 -0.000295088 0)
(-0.000195681 -0.000193934 0)
(-0.000286833 0.000594575 0)
(-0.000787787 0.00077314 0)
(-0.00133151 0.000823364 0)
(-0.00187432 0.000788355 0)
(-0.00238065 0.000707029 0)
(-0.00282896 0.000603421 0)
(-0.00320533 0.000487677 0)
(-0.00350029 0.000363264 0)
(-0.00370724 0.000231671 0)
(-0.00382099 9.48621e-05 0)
(-0.00383844 -4.54036e-05 0)
(-0.00375773 -0.000187296 0)
(-0.00357893 -0.000328379 0)
(-0.00330403 -0.000466234 0)
(-0.00293769 -0.000597863 0)
(-0.00248846 -0.00071785 0)
(-0.00197065 -0.000813609 0)
(-0.00140764 -0.000858896 0)
(-0.000837072 -0.000813932 0)
(-0.000304776 -0.00063592 0)
(-0.000343926 0.00116171 0)
(-0.000897559 0.0013309 0)
(-0.00145571 0.00135765 0)
(-0.0020053 0.00129604 0)
(-0.00251805 0.00117218 0)
(-0.00297522 0.00100855 0)
(-0.00336195 0.000819343 0)
(-0.00366694 0.000612147 0)
(-0.00388211 0.000391472 0)
(-0.00400173 0.000161108 0)
(-0.00402203 -7.54507e-05 0)
(-0.00394109 -0.000314391 0)
(-0.00375889 -0.000551367 0)
(-0.00347784 -0.000781259 0)
(-0.00310365 -0.000997199 0)
(-0.00264638 -0.00118843 0)
(-0.00212092 -0.00133728 0)
(-0.00154758 -0.00141845 0)
(-0.00095653 -0.00140452 0)
(-0.000364566 -0.00123949 0)
(-0.000368819 0.00177537 0)
(-0.000969578 0.00194091 0)
(-0.00156917 0.00193404 0)
(-0.00215163 0.00183583 0)
(-0.00269099 0.00166416 0)
(-0.00317052 0.00143763 0)
(-0.00357649 0.00117196 0)
(-0.00389764 0.000878087 0)
(-0.00412556 0.00056353 0)
(-0.00425421 0.000234263 0)
(-0.00427949 -0.000104245 0)
(-0.00419907 -0.000446263 0)
(-0.00401251 -0.000785243 0)
(-0.00372181 -0.0011131 0)
(-0.00333224 -0.00141895 0)
(-0.00285316 -0.00168739 0)
(-0.00229792 -0.00189788 0)
(-0.00168498 -0.00202774 0)
(-0.00104303 -0.00205621 0)
(-0.000394029 -0.00189667 0)
(-0.000390376 0.00242892 0)
(-0.00104199 0.00260333 0)
(-0.00170028 0.00256085 0)
(-0.00233699 0.00241835 0)
(-0.0029231 0.00219151 0)
(-0.00344126 0.00189614 0)
(-0.00387859 0.00154885 0)
(-0.00422472 0.00116332 0)
(-0.00447172 0.000749777 0)
(-0.0046137 0.000316331 0)
(-0.00464639 -0.00012977 0)
(-0.00456691 -0.000581084 0)
(-0.00437389 -0.00102901 0)
(-0.00406802 -0.00146262 0)
(-0.00365294 -0.00186721 0)
(-0.00313612 -0.00222312 0)
(-0.00252952 -0.00250705 0)
(-0.00185259 -0.00269702 0)
(-0.00113851 -0.00277212 0)
(-0.000423774 -0.0026056 0)
(-0.000422477 0.00313185 0)
(-0.00113783 0.00332936 0)
(-0.00186985 0.00325289 0)
(-0.00257823 0.00305994 0)
(-0.00322814 0.00276897 0)
(-0.00379964 0.00239581 0)
(-0.00427999 0.00195879 0)
(-0.00465989 0.00147427 0)
(-0.00493244 0.000954921 0)
(-0.00509237 0.000410611 0)
(-0.00513541 -0.000150121 0)
(-0.00505801 -0.000718667 0)
(-0.00485735 -0.0012849 0)
(-0.00453195 -0.00183551 0)
(-0.00408275 -0.00235219 0)
(-0.00351461 -0.00281071 0)
(-0.00283841 -0.00318353 0)
(-0.00207645 -0.00344547 0)
(-0.0012694 -0.00356946 0)
(-0.000468562 -0.00338282 0)
(-0.000469078 0.0039047 0)
(-0.00126782 0.00413675 0)
(-0.00209113 0.00402703 0)
(-0.00288819 0.00377714 0)
(-0.00361721 0.00341154 0)
(-0.00425485 0.00294908 0)
(-0.0047883 0.00241144 0)
(-0.00520964 0.00181823 0)
(-0.00551356 0.0011844 0)
(-0.00569598 0.000521039 0)
(-0.00575297 -0.000162798 0)
(-0.00568019 -0.00085826 0)
(-0.00547284 -0.00155462 0)
(-0.0051263 -0.00223695 0)
(-0.00463753 -0.00288355 0)
(-0.00400759 -0.00346483 0)
(-0.00324555 -0.00394643 0)
(-0.00237678 -0.00429567 0)
(-0.00145082 -0.00447433 0)
(-0.000533715 -0.00425824 0)
(-0.000531709 0.0047725 0)
(-0.00143812 0.00504777 0)
(-0.00237435 0.00490233 0)
(-0.00327887 0.00458643 0)
(-0.0041021 0.00413304 0)
(-0.00481728 0.00356686 0)
(-0.00541202 0.00291509 0)
(-0.00588068 0.00220147 0)
(-0.00622061 0.00144318 0)
(-0.00642974 0.000651833 0)
(-0.00650503 -0.000164138 0)
(-0.0064414 -0.000997039 0)
(-0.00623148 -0.001837 0)
(-0.00586627 -0.0026687 0)
(-0.00533686 -0.00346762 0)
(-0.00463811 -0.00419783 0)
(-0.00377493 -0.00481517 0)
(-0.00277442 -0.00527448 0)
(-0.00169584 -0.00552087 0)
(-0.000623141 -0.00526971 0)
(-0.000612779 0.00576389 0)
(-0.00165609 0.00608938 0)
(-0.00273169 0.00590129 0)
(-0.00376535 0.00550556 0)
(-0.00469838 0.0049466 0)
(-0.00550104 0.00425829 0)
(-0.00616283 0.00347588 0)
(-0.00668217 0.00262842 0)
(-0.00706078 0.00173518 0)
(-0.00730006 0.000807329 0)
(-0.00739879 -0.000148956 0)
(-0.00735142 -0.00112919 0)
(-0.00714745 -0.00212656 0)
(-0.00677192 -0.00312749 0)
(-0.00620721 -0.00410593 0)
(-0.0054379 -0.00501926 0)
(-0.00445994 -0.00581033 0)
(-0.00329842 -0.00641524 0)
(-0.00202287 -0.00675342 0)
(-0.000743012 -0.0064643 0)
(-0.000716891 0.00691336 0)
(-0.00193376 0.00729466 0)
(-0.00318139 0.00705094 0)
(-0.00436925 0.00655416 0)
(-0.00542779 0.0058647 0)
(-0.00632536 0.00503009 0)
(-0.00705602 0.00409685 0)
(-0.0076253 0.00310063 0)
(-0.00804204 0.00206249 0)
(-0.00831331 0.000991616 0)
(-0.0084412 -0.000110309 0)
(-0.00842039 -0.00124491 0)
(-0.00823689 -0.00241173 0)
(-0.00786801 -0.00360244 0)
(-0.00728362 -0.00479245 0)
(-0.00645165 -0.0059335 0)
(-0.00535034 -0.00695295 0)
(-0.00399428 -0.00775995 0)
(-0.00246109 -0.00823196 0)
(-0.000903188 -0.00790337 0)
(-0.000852218 0.00826559 0)
(-0.0022912 0.00870559 0)
(-0.0037518 0.00838395 0)
(-0.00512244 0.00775348 0)
(-0.00632074 0.00689788 0)
(-0.00731558 0.00588472 0)
(-0.00811017 0.00477589 0)
(-0.00872195 0.00361499 0)
(-0.00917093 0.00242396 0)
(-0.00947291 0.00120774 0)
(-0.00963564 -3.96026e-05 0)
(-0.00965533 -0.00132934 0)
(-0.00951477 -0.00267236 0)
(-0.00918214 -0.00407102 0)
(-0.00861039 -0.00550799 0)
(-0.00774179 -0.00693388 0)
(-0.00652193 -0.008261 0)
(-0.00493564 -0.00936255 0)
(-0.00305693 -0.0100429 0)
(-0.00111811 -0.00967098 0)
(-0.00103316 0.0098828 0)
(-0.00276227 0.0103778 0)
(-0.00448749 0.00993987 0)
(-0.00607189 0.00912509 0)
(-0.00741912 0.00805194 0)
(-0.00850385 0.00681693 0)
(-0.00934606 0.00550239 0)
(-0.0099822 0.00416074 0)
(-0.010449 0.00281295 0)
(-0.0107752 0.00145642 0)
(-0.0109769 7.35173e-05 0)
(-0.0110543 -0.00136135 0)
(-0.010989 -0.0028765 0)
(-0.0107398 -0.00449301 0)
(-0.0102392 -0.00621087 0)
(-0.00939319 -0.00799102 0)
(-0.00809116 -0.0097403 0)
(-0.00624499 -0.0112916 0)
(-0.00388321 -0.0123163 0)
(-0.00140541 -0.0118797 0)
(-0.0012862 0.0118566 0)
(-0.00340519 0.0123873 0)
(-0.00545808 0.0117663 0)
(-0.00728494 0.0106879 0)
(-0.00877782 0.00932286 0)
(-0.00992753 0.00780817 0)
(-0.0107827 0.00625199 0)
(-0.0114086 0.00471521 0)
(-0.011866 0.00321407 0)
(-0.012201 0.00173367 0)
(-0.0124419 0.000239768 0)
(-0.0125964 -0.00131331 0)
(-0.0126485 -0.00297754 0)
(-0.0125515 -0.00480298 0)
(-0.0122188 -0.00682275 0)
(-0.0115127 -0.00903113 0)
(-0.0102339 -0.0113608 0)
(-0.00813044 -0.0136277 0)
(-0.00505599 -0.0152468 0)
(-0.00177619 -0.0146542 0)
(-0.00165978 0.0143491 0)
(-0.0043143 0.0148454 0)
(-0.00676422 0.0139183 0)
(-0.00884746 0.0124504 0)
(-0.0104566 0.0106872 0)
(-0.0116169 0.00881716 0)
(-0.0124223 0.0069787 0)
(-0.0129799 0.00523756 0)
(-0.0133822 0.00359835 0)
(-0.0136977 0.00202687 0)
(-0.0139698 0.000466548 0)
(-0.0142181 -0.00115315 0)
(-0.0144355 -0.00291324 0)
(-0.0145806 -0.00490293 0)
(-0.0145616 -0.00720826 0)
(-0.0142064 -0.00989472 0)
(-0.0132021 -0.0130049 0)
(-0.0109507 -0.0164881 0)
(-0.00678967 -0.0193195 0)
(-0.00222791 -0.0183596 0)
(-0.00223924 0.0174844 0)
(-0.00564417 0.0178589 0)
(-0.00852518 0.0164185 0)
(-0.0108323 0.0143772 0)
(-0.0124788 0.0120771 0)
(-0.0135499 0.0097621 0)
(-0.0142045 0.00760248 0)
(-0.0146054 0.00566015 0)
(-0.0148839 0.00391684 0)
(-0.0151336 0.0023095 0)
(-0.0154148 0.000753467 0)
(-0.0157625 -0.000848403 0)
(-0.0161866 -0.00260745 0)
(-0.0166702 -0.0046563 0)
(-0.0171548 -0.0071464 0)
(-0.0175063 -0.0102603 0)
(-0.0173696 -0.0143505 0)
(-0.0155089 -0.0201337 0)
(-0.0100078 -0.0260888 0)
(-0.00339146 -0.0240775 0)
(-0.00309747 0.022164 0)
(-0.00743499 0.0216161 0)
(-0.010753 0.0192246 0)
(-0.0131662 0.0163537 0)
(-0.0146987 0.01336 0)
(-0.0155266 0.0105111 0)
(-0.0158868 0.00800423 0)
(-0.0160103 0.00588483 0)
(-0.0160715 0.00409671 0)
(-0.016188 0.00253499 0)
(-0.0164331 0.00107937 0)
(-0.0168507 -0.000391647 0)
(-0.0174819 -0.00200142 0)
(-0.018373 -0.00389885 0)
(-0.0195747 -0.00628037 0)
(-0.0212138 -0.00946165 0)
(-0.0234405 -0.0142946 0)
(-0.0246005 -0.0232895 0)
(-0.0200172 -0.0328697 0)
(-0.0126257 -0.0270156 0)
(-0.00501184 0.0247306 0)
(-0.010449 0.0246518 0)
(-0.0133344 0.0214701 0)
(-0.0153907 0.0179536 0)
(-0.0164938 0.0143581 0)
(-0.016846 0.0109204 0)
(-0.0167165 0.00804453 0)
(-0.0164006 0.00579117 0)
(-0.0161204 0.00404789 0)
(-0.0160167 0.00263763 0)
(-0.016158 0.0013909 0)
(-0.016581 0.000173121 0)
(-0.0173376 -0.00113094 0)
(-0.0185497 -0.00261962 0)
(-0.020467 -0.00439285 0)
(-0.0239122 -0.00651683 0)
(-0.0310813 -0.00940969 0)
(-0.0401038 -0.0170994 0)
(-0.0465298 -0.0313661 0)
(-0.0477273 -0.0469858 0)
(-0.00604732 0.0456479 0)
(-0.010952 0.037523 0)
(-0.013337 0.029248 0)
(-0.0147447 0.0222841 0)
(-0.0152319 0.0162391 0)
(-0.0149069 0.0113393 0)
(-0.0139501 0.00768729 0)
(-0.0128444 0.00523025 0)
(-0.0119481 0.00363687 0)
(-0.0114265 0.00251527 0)
(-0.0113056 0.00159655 0)
(-0.0115728 0.000740976 0)
(-0.0122398 -9.97587e-05 0)
(-0.0134064 -0.000864952 0)
(-0.0153938 -0.00124241 0)
(-0.0190325 -0.000662493 0)
(-0.0278017 0.00299136 0)
(-0.0379481 -0.00569838 0)
(-0.0636663 -0.0567708 0)
(-0.0698242 -0.14216 0)
(-0.00742986 0.0189317 0)
(-0.00925815 0.0121477 0)
(-0.00658443 0.0100053 0)
(-0.00275419 0.0103279 0)
(0.0018817 0.0086296 0)
(0.00637372 0.00606364 0)
(0.01038 0.00420881 0)
(0.0135851 0.00316641 0)
(0.0158088 0.00249601 0)
(0.0171607 0.00195225 0)
(0.0178853 0.00146071 0)
(0.0181685 0.00100628 0)
(0.0180863 0.000631351 0)
(0.017731 0.000486383 0)
(0.0170255 0.0012145 0)
(0.0187202 0.0036289 0)
(0.0117541 0.0121494 0)
(0.0365796 0.0143813 0)
(-0.0163474 -0.0177724 0)
(0.00353305 -0.182218 0)
(0.0406555 0.0951372 0)
(0.0641703 0.0717331 0)
(0.0903123 0.0447053 0)
(0.111532 0.0276016 0)
(0.125041 0.016118 0)
(0.132455 0.00785889 0)
(0.136054 0.00276775 0)
(0.137927 0.000669812 0)
(0.139336 0.00038998 0)
(0.140693 0.000653432 0)
(0.141944 0.000821812 0)
(0.142974 0.000814567 0)
(0.143723 0.000707386 0)
(0.14435 0.000548122 0)
(0.144496 0.000389091 0)
(0.147751 0.000702981 0)
(0.142261 0.00111549 0)
(0.182626 0.00214062 0)
(0.0698445 0.0257909 0)
(0.34703 -0.0795422 0)
)
;

boundaryField
{
    movingWall
    {
        type            fixedValue;
        value           uniform (1 0 0);
    }
    fixedWalls
    {
        type            calculated;
        value           nonuniform List<vector> 
60
(
(-7.26297e-05 7.2501e-05 0)
(-0.000114733 0.00023783 0)
(-0.00013757 0.000464682 0)
(-0.000147528 0.000710148 0)
(-0.00015615 0.000971568 0)
(-0.000168991 0.00125274 0)
(-0.000187631 0.00156188 0)
(-0.000212684 0.001909 0)
(-0.000245111 0.00230556 0)
(-0.000286756 0.00276535 0)
(-0.000340887 0.00330623 0)
(-0.000413265 0.00395312 0)
(-0.000514482 0.00474265 0)
(-0.00066391 0.00573966 0)
(-0.000895697 0.00699374 0)
(-0.00123899 0.0088656 0)
(-0.00200474 0.00989226 0)
(-0.00241893 0.0182591 0)
(-0.00297194 0.00757267 0)
(0.166262 0.0380549 0)
(-7.82725e-05 -7.75736e-05 0)
(-0.00012191 -0.000254368 0)
(-0.000145826 -0.000495794 0)
(-0.000157612 -0.00075867 0)
(-0.000169509 -0.00104224 0)
(-0.000187425 -0.00135313 0)
(-0.000213486 -0.00170329 0)
(-0.000249256 -0.00210788 0)
(-0.000297205 -0.00258572 0)
(-0.000361275 -0.00316135 0)
(-0.000447244 -0.00386839 0)
(-0.000562163 -0.00475186 0)
(-0.000710476 -0.00586168 0)
(-0.000891165 -0.00734383 0)
(-0.00135659 -0.00963098 0)
(-0.00505026 -0.0108063 0)
(-0.0190909 -0.0187943 0)
(-0.0279297 -0.0568638 0)
(0.00141322 -0.0728871 0)
(0.288812 -0.0318169 0)
(-7.26297e-05 7.2501e-05 0)
(-0.000237155 0.000112497 0)
(-0.000453388 0.000125899 0)
(-0.000666909 0.000119404 0)
(-0.000862633 0.000105225 0)
(-0.00103277 8.88091e-05 0)
(-0.00117389 7.1376e-05 0)
(-0.00128372 5.30017e-05 0)
(-0.00136081 3.35511e-05 0)
(-0.00140248 1.38179e-05 0)
(-0.00140923 -6.80206e-06 0)
(-0.00137917 -2.75556e-05 0)
(-0.00131266 -4.82226e-05 0)
(-0.00121006 -6.85475e-05 0)
(-0.00107236 -8.83274e-05 0)
(-0.000901365 -0.000107204 0)
(-0.000700682 -0.000123527 0)
(-0.000479034 -0.000131301 0)
(-0.000252996 -0.000118035 0)
(-7.82725e-05 -7.75736e-05 0)
)
;
    }
    frontAndBack
    {
        type            empty;
    }
}


// ************************************************************************* //
