/*--------------------------------*- C++ -*----------------------------------*\
| =========                 |                                                 |
| \\      /  F ield         | OpenFOAM: The Open Source CFD Toolbox           |
|  \\    /   O peration     | Version:  2312                                  |
|   \\  /    A nd           | Website:  www.openfoam.com                      |
|    \\/     M anipulation  |                                                 |
\*---------------------------------------------------------------------------*/
FoamFile
{
    version     2.0;
    format      ascii;
    arch        "LSB;label=32;scalar=64";
    class       volVectorField;
    location    "0.25";
    object      URandom;
}
// * * * * * * * * * * * * * * * * * * * * * * * * * * * * * * * * * * * * * //

dimensions      [0 1 -1 0 0 0 0];

internalField   nonuniform List<vector> 
400
(
(0.090767 -0.00175099 -0.0415285)
(0.0700674 -0.037125 -0.0600658)
(0.0126175 0.048827 -0.0863566)
(-0.0766504 0.0298001 -0.0592215)
(-0.0702187 -0.0423193 0.0596178)
(-0.0910633 0.0190623 0.0426155)
(0.0371364 0.0193857 0.0895845)
(0.076687 0.0594836 0.00969639)
(-0.0825206 0.0106493 0.060238)
(-0.0893384 0.0335859 -0.0388219)
(0.014404 -0.0983959 0.000458146)
(0.0233723 -0.0682027 -0.0681063)
(-0.0593183 -0.068539 -0.0466777)
(-0.0869381 0.0418686 0.0345147)
(0.0441338 -0.0878096 0.0116875)
(-0.0705237 -0.0669977 -0.029771)
(0.0496791 0.0286601 -0.0807197)
(-0.0353368 -0.0671476 0.0661037)
(-0.0753059 -0.06154 0.0259411)
(-0.0619665 -0.0521301 0.0590508)
(0.0390758 -0.0625026 0.0668531)
(0.0524809 -0.0272615 0.079853)
(0.0378155 -0.0829043 0.0381731)
(0.0694281 0.0554919 -0.0438576)
(-0.0617253 0.0608912 -0.0534423)
(-0.0334068 -0.0306088 0.0899488)
(-0.0634679 0.080161 0.00453629)
(0.0374298 0.0792989 -0.045759)
(-0.0588708 -0.0782175 -0.028332)
(-0.0620834 0.081345 -0.0019737)
(-0.0729647 -0.0188908 0.0697597)
(0.018089 0.0233992 -0.0946911)
(0.0266893 0.09298 -0.0194262)
(-0.0344358 0.0216838 -0.0924131)
(-0.0748305 -0.064197 -0.0280459)
(-0.00378555 0.0987485 0.0102352)
(0.0959709 0.0192348 -0.00234655)
(-0.00982222 -0.0745568 0.0670657)
(0.00738783 -0.0667558 0.0747263)
(-0.001318 0.0947628 -0.0299677)
(0.0245501 -0.0420237 -0.0866909)
(0.0555644 0.0718899 0.042819)
(-0.0458576 -0.0776119 -0.0423353)
(0.0281425 0.0906602 0.0332439)
(-0.0314173 -0.0310541 0.090146)
(0.0893247 -0.0348482 0.0139653)
(-0.0647437 0.00113743 -0.0789441)
(-0.0611014 -0.0225919 0.0785039)
(-0.081485 -0.0523721 0.0345514)
(0.0435533 -0.0861459 -0.0170183)
(-0.0604639 0.0733426 -0.0377373)
(0.0192415 -0.087634 0.0428702)
(0.0305821 0.0806877 -0.0471265)
(-0.0693925 0.00150433 0.0751667)
(-0.0701349 -0.024979 0.070226)
(0.0368626 0.0364615 -0.0837945)
(0.0337974 -0.064593 -0.0686192)
(0.0396417 -0.0385705 0.0832056)
(0.0663159 -0.0747784 0.00952383)
(-0.0263277 -0.0786017 0.0578014)
(-0.074767 0.0235303 0.0631794)
(-0.0619709 -0.00675842 0.0787601)
(-0.043882 0.0866259 -0.0322011)
(-0.0467644 0.0193012 -0.0877762)
(0.089499 0.0324345 0.0235414)
(0.070654 -0.0410881 0.0523594)
(-0.0179709 -0.0787502 -0.0583546)
(0.0151275 -0.0265765 0.0942565)
(0.081522 -0.00971353 0.0505854)
(0.0666472 -0.0666859 0.0222414)
(-0.00616595 0.0307704 0.0950957)
(0.0588237 -0.0343013 -0.0698711)
(0.015606 -0.0538338 0.082468)
(0.0353189 -0.0679701 -0.0632927)
(-0.0711528 -0.0224521 -0.0704129)
(-0.0279389 0.0947324 0.00859801)
(-0.0949401 -0.0343511 -0.0190843)
(0.0549767 0.0573502 -0.0571289)
(-0.0219674 -0.0969476 0.0236179)
(-0.00136788 -0.100021 0.0192512)
(-0.0510405 0.0424778 0.0763587)
(-0.0976026 -0.0233687 -0.00122472)
(0.0433354 0.067305 0.0614815)
(-0.0985935 -0.0174804 -0.0184048)
(-0.0830813 0.00386399 -0.0597651)
(0.0121728 -0.091911 0.0309262)
(0.0825111 -0.0363858 -0.0331328)
(-0.0532542 0.0678761 -0.0560849)
(-0.0699201 0.0754257 0.0118332)
(0.0130616 0.0596869 0.078503)
(0.020077 0.0376522 0.089226)
(0.0835595 0.0401051 -0.0240495)
(0.0137225 0.054899 0.0808986)
(0.0485838 0.0292995 -0.0792558)
(0.0370597 0.0668049 -0.0602214)
(-0.0793925 0.0169624 0.0617809)
(0.095003 0.00924528 -0.0186896)
(0.0185288 0.061262 0.0741205)
(0.0579635 -0.0572901 -0.0594537)
(0.0599035 0.0257638 -0.0745373)
(-0.0462905 -0.0455278 -0.074353)
(0.0274569 0.0805133 0.056789)
(-0.0896889 0.00548008 0.0477793)
(0.0675103 0.0406175 -0.0606385)
(-0.0169558 0.0456774 -0.0892772)
(0.0148292 -0.0341401 -0.0912036)
(-0.0562409 0.0871395 -0.00665653)
(0.030935 -0.0110212 0.0926114)
(0.0703212 0.0502102 0.0437129)
(0.037465 0.0114102 0.0898214)
(-0.0821285 -0.0146403 -0.0621458)
(0.0284364 0.0370164 0.0863376)
(0.0695928 -0.0602991 0.031217)
(-0.0124263 0.0973131 -0.0103555)
(-0.0650942 0.050135 -0.0593523)
(0.0214934 -0.0339168 0.0916898)
(0.0610899 -0.0691969 0.0394386)
(0.0122942 -0.0767958 0.0664321)
(-0.0038929 -0.0669283 -0.0773226)
(0.0703982 0.0450983 -0.0512589)
(0.0316472 0.0815555 -0.0542116)
(0.0918139 -0.0264476 0.0200098)
(-0.0642136 0.0503916 -0.0631754)
(0.0773722 -0.0558341 0.00218348)
(0.0374997 -0.0322015 0.0839113)
(-0.0531077 0.0854268 -0.028475)
(0.0840368 -0.0363876 0.0245913)
(0.0403551 0.0895359 -0.0151481)
(0.000476027 -0.0254503 0.0962014)
(0.0294148 0.065352 0.0675587)
(0.0864414 -0.00452548 0.0384858)
(-0.0511451 -0.0866959 -0.0237666)
(0.0802891 -0.03536 -0.0387568)
(-0.0604846 0.0164148 0.0811638)
(0.00844423 -0.0188474 0.0978469)
(0.0496219 -0.0878646 -0.000748011)
(0.035825 -0.0954188 0.0103098)
(0.0313665 0.0497815 0.0770523)
(0.0657271 -0.0276314 -0.0703625)
(0.0760914 0.0368419 -0.04939)
(0.0578236 0.05146 0.066445)
(0.0639471 -0.0555869 0.0452572)
(0.0024769 0.0611653 -0.0825285)
(0.0367429 -0.0562795 0.0685098)
(-0.0612511 -0.0610339 -0.0498725)
(0.0201251 0.0531302 -0.0831947)
(-0.0120047 -0.0873165 -0.0426004)
(0.00775423 -0.0899867 -0.0362688)
(-0.0298733 0.00119594 0.0971622)
(0.0658029 -0.0628076 0.0274835)
(0.0365621 0.0305728 0.0848555)
(0.00657293 -0.0630013 -0.0773699)
(-0.0806341 0.0189036 0.0635143)
(-0.0275664 0.0429702 -0.0862913)
(-0.0559234 -0.0846255 -0.0292302)
(0.0740646 -0.0658687 -0.00160806)
(-0.0736388 -0.0324655 0.0659887)
(-0.0280129 0.0913044 0.00596221)
(-0.084472 -0.0383146 0.0455266)
(-0.0662229 0.0612442 -0.0356733)
(-0.0715809 0.072984 0.0210946)
(0.0608126 0.0645892 0.0517247)
(-0.0687136 0.0246644 0.0727622)
(0.065095 0.00404712 -0.0724991)
(-0.0574136 0.0412179 -0.0768473)
(0.0278648 -0.0652969 0.0636301)
(0.0670112 -0.00452632 -0.0676869)
(-0.0238748 -0.0932133 -0.0227766)
(-0.0417274 -0.00856234 -0.0932319)
(0.0635582 0.0695961 -0.0157232)
(-0.00295358 0.0657691 0.0750669)
(-0.058799 0.08462 0.00047712)
(-0.0757936 -0.0103847 -0.0722462)
(0.00902024 0.0819538 -0.0501178)
(0.0697581 -0.0496482 -0.046424)
(-0.0636014 0.0629091 0.044752)
(0.0177121 -0.0798792 0.0634209)
(0.0958783 -0.0125212 0.0112557)
(-0.0461892 0.0397411 -0.0767306)
(0.0298353 0.0472177 0.0786334)
(-0.0205935 0.0498248 0.0881109)
(-0.0600612 0.0884477 0.00594933)
(0.0846037 -0.0352455 -0.0224676)
(-0.0479614 -0.0612524 -0.0591777)
(-0.0313962 0.101573 0.0128667)
(0.0153195 0.0895115 0.0489324)
(0.0671272 -0.0366013 -0.0532965)
(-0.0926254 -0.0301819 0.0408321)
(0.0327538 0.0716394 -0.0591164)
(-0.075086 0.0589484 -0.0467164)
(-0.0750281 -0.0242751 -0.070585)
(0.0559002 -0.0407803 0.065573)
(0.0488742 -0.0801518 -0.0263591)
(-0.0644789 -0.0308288 0.077807)
(0.0022881 0.0380059 0.0898704)
(-0.0183942 0.0380227 -0.0890238)
(0.0703669 -0.0703213 0.0158541)
(-0.100293 -0.022442 0.0226038)
(0.0790525 -0.062184 -0.0210883)
(0.0137636 -0.100853 -0.0338405)
(0.0371633 -0.084127 0.00429423)
(-0.0624701 0.0359649 -0.0750695)
(0.0683221 -0.0364951 0.052832)
(-0.0550053 0.0600284 -0.0691305)
(-0.0107959 -0.0255702 -0.0944764)
(0.0658664 -0.026384 0.060026)
(0.055858 -0.0681321 -0.0243413)
(0.0187121 -0.0493459 0.0802653)
(0.0402425 0.0838365 0.030501)
(-0.051786 -0.0605246 0.0663228)
(-0.0783538 0.0693917 -0.0213801)
(0.00650914 -0.0804727 0.0589494)
(0.0764778 0.0461445 0.014906)
(-0.0643919 0.0269437 -0.0773949)
(-0.0637703 0.00725535 -0.0824286)
(-0.0374145 0.0599531 -0.0681591)
(-0.0369808 0.00744066 -0.0939453)
(0.0833333 0.00333365 -0.0452482)
(-0.0562819 0.048501 -0.0611532)
(0.0568282 -0.0179807 0.0810751)
(0.0764087 -0.0113789 -0.0595877)
(0.0430121 -0.078458 0.00359207)
(-0.0650983 -0.0691845 0.008103)
(-0.00924712 0.0922393 -0.0555153)
(0.0227071 0.0426833 -0.088843)
(-0.0770154 0.0405096 -0.064583)
(-0.0493362 0.0653152 0.0694494)
(-0.0797325 -0.0519572 0.0445608)
(-0.0498191 0.00842974 0.0917521)
(-0.0805013 0.0154504 -0.0703025)
(-0.0185973 -0.0535795 0.0840433)
(0.0744645 -0.0437624 0.0298106)
(0.0404656 0.0629251 -0.0549779)
(-0.0312683 0.0547681 0.077889)
(-0.0126316 -0.0707557 -0.076343)
(0.04983 0.0215407 0.07497)
(0.0166423 0.0757027 0.0456919)
(0.00254671 0.0868458 0.0170807)
(0.0786217 -0.039209 -0.0496963)
(0.0227967 -0.0647928 -0.0813293)
(-0.0781469 -0.0458591 0.0275923)
(0.0669859 0.0466352 0.0622268)
(-0.00188593 0.101997 -0.0429611)
(-0.0732963 -0.0623612 -0.0175027)
(0.0598009 0.0472239 -0.0621327)
(0.000666109 0.1026 0.0300375)
(0.0752833 -0.00410164 -0.0498543)
(-0.0697365 -0.0757969 0.0107543)
(-0.0448629 -0.0428936 -0.0823729)
(-0.0455596 -0.00921721 -0.0936338)
(0.0527255 -0.0272907 0.0706773)
(0.0110329 -0.0960916 0.0214179)
(0.0322047 0.0218642 0.085855)
(-0.0415789 0.078466 0.0471559)
(0.0563808 -0.0760242 -0.0224779)
(0.0343305 0.0489405 0.0673623)
(0.0165779 -0.00169418 0.0958524)
(-0.0914664 0.0392212 0.0161895)
(0.080638 0.0333077 -0.0172915)
(0.0436153 -0.096863 -0.0343705)
(-0.0519969 0.0697585 -0.0663022)
(-0.0516946 0.0450449 -0.082723)
(0.0661946 0.0818606 -0.00780053)
(0.0590462 0.0834787 -0.0185856)
(-0.02508 -0.0576685 -0.0715098)
(-0.0882597 0.0122263 -0.0641425)
(0.0539425 0.00954141 0.0747606)
(-0.103821 0.0136293 0.0409564)
(0.0624284 0.0572835 0.0370226)
(0.0782914 0.0326846 0.0244564)
(0.0185979 0.0943816 0.0109224)
(-0.00385058 0.00937382 0.0989025)
(-0.101033 0.0438248 0.0177907)
(0.0609076 -0.00792841 0.0655163)
(-0.00625009 0.087142 -0.0320773)
(0.0557199 -0.0582797 0.0526232)
(-0.00126611 0.073817 -0.0481611)
(0.0655614 0.0299195 0.0446345)
(0.0617051 -0.0485697 0.06673)
(-0.0667855 -0.00175042 -0.0745416)
(0.0648867 -0.0557933 -0.0111575)
(-0.0580158 -0.0326369 0.0686104)
(0.0732798 0.0452104 0.0497892)
(-0.0477575 0.0820221 0.0637236)
(0.0534779 0.0779231 -0.0362495)
(0.0294542 -0.0515797 0.0662407)
(-0.0499684 -0.071853 -0.049069)
(-0.0425078 0.0349883 0.0914402)
(-0.0529872 0.0565288 0.0760271)
(-0.0417229 0.0869565 0.0461292)
(0.0442027 -0.0544088 0.0583342)
(-0.0675537 -0.0432907 -0.0742719)
(0.0484848 0.0433154 -0.0608991)
(0.0202947 0.0583525 -0.0682897)
(-0.099278 0.0494655 -0.00713378)
(0.0584612 -0.0310005 0.0616343)
(0.0102367 -0.0324185 -0.0944004)
(-0.101876 -0.0365061 -0.0476723)
(-0.0835474 0.0275019 0.0414724)
(0.00497777 -0.123366 -0.00847581)
(0.0283622 0.111217 0.0328597)
(0.0349166 0.0930254 -0.055741)
(-0.0313505 -0.0117406 0.0928273)
(-0.0707928 0.0662963 0.0646909)
(0.0793486 0.0402906 0.0207332)
(-0.103777 0.0315578 0.0420591)
(-0.0270179 -0.0912008 0.00587075)
(0.0486249 0.0261271 -0.07357)
(-0.0340385 -0.0921949 -0.0201272)
(0.0556804 -0.0395557 -0.0553473)
(-0.0682061 -0.0784769 0.0314698)
(-0.0818253 -0.0720532 0.0253558)
(-0.0706735 0.00811886 0.0840728)
(-0.00268641 0.077138 0.0564531)
(-0.0596822 0.0851452 0.00572339)
(0.0109264 0.0182477 -0.0905495)
(-0.0317854 0.0562954 -0.0703378)
(0.0203322 -0.0401688 -0.0877276)
(-0.0330286 -0.010741 0.096649)
(0.0224166 -0.0462442 -0.0916641)
(0.0537414 -0.0179615 -0.0687419)
(0.0789809 0.0623135 -0.0241639)
(-0.0654317 -0.0631692 -0.0110481)
(-0.0874425 0.0123644 -0.069118)
(-0.0649741 -0.0688077 -0.027076)
(-0.0638994 -0.0197629 0.0827316)
(0.00708254 0.103551 0.0176644)
(0.0391231 -0.0360664 -0.0718684)
(0.0614432 0.0496439 0.0436451)
(0.06132 -0.0231748 0.057903)
(0.0282034 -0.072238 0.0510965)
(0.0253496 -0.0780231 -0.0461214)
(-0.0326107 0.097647 -0.00310715)
(-0.0939028 0.0631205 0.000373853)
(-0.0934974 0.0623531 0.0145446)
(0.0330256 0.0363535 0.0701443)
(-0.0409533 -0.0981527 -0.0450248)
(-0.0570949 -0.0575393 0.0898661)
(-0.0897631 0.0284636 -0.0674632)
(-0.0688062 -0.142255 0.0218948)
(0.0158178 0.136248 -0.0362429)
(0.0727758 0.0149442 0.0497981)
(0.032903 -0.0379682 -0.057826)
(0.0443582 -0.0577306 -0.0102219)
(0.0697603 0.0495143 -0.0408544)
(-0.0583847 -0.0493702 -0.0665135)
(-0.0472573 0.0490492 0.0847338)
(0.0676147 -0.0497904 0.0223397)
(-0.0640488 0.0847879 0.0264579)
(0.0380404 0.0388794 -0.0789346)
(0.0582991 -0.0287319 -0.0650797)
(0.0367647 0.0762273 -0.0443317)
(0.0419225 -0.083186 0.0127719)
(-0.0840005 -0.0631431 -0.0337328)
(-0.0364323 -0.0213954 0.0956621)
(-0.0858216 -0.0584575 -0.046893)
(-0.111217 -0.0430273 -0.0304008)
(-0.0289478 0.0495495 -0.0828654)
(-0.00725087 -0.134471 0.0279268)
(-0.14442 -0.202052 -0.0291251)
(-0.0501484 -0.0478314 0.0609739)
(-0.0315815 -0.0369283 0.0842212)
(0.0266279 -0.0265276 -0.0869614)
(0.0699613 0.0202126 -0.067932)
(0.0173004 -0.0452154 -0.0828431)
(0.0204633 -0.0388862 -0.08821)
(-0.0800867 -0.0379251 -0.00636465)
(0.0144092 0.0359712 -0.0944625)
(-0.0110985 0.0763355 -0.0618363)
(0.082008 0.0737596 0.0252689)
(-0.00610676 -0.0646795 0.0710624)
(0.0239162 0.0689467 0.073151)
(0.00521882 0.0441861 0.0890921)
(0.0375007 -0.0172882 0.0964014)
(0.101564 -0.0313408 -0.0423493)
(0.0843479 -0.0405982 0.0611307)
(-0.0196362 0.0844075 0.0615907)
(0.106051 -0.0394909 0.0476604)
(-0.104439 -0.011375 0.0468934)
(0.0345727 -0.122354 -0.0738433)
(0.0821315 0.147238 0.0746004)
(0.000515187 0.0142362 -0.0514017)
(0.0249125 0.02324 -0.0725404)
(0.176082 9.83426e-05 -0.0712521)
(0.110098 -0.0472149 0.0759319)
(0.208531 0.0724557 0.00630887)
(0.0850646 -0.0614405 -0.0572481)
(0.113697 0.0627949 -0.0745208)
(0.0594321 0.0257247 0.0545303)
(0.0529541 -0.0368963 0.0298635)
(0.111271 -0.0793453 -0.0513068)
(0.180827 0.0773911 0.0519923)
(0.108734 -0.0610371 -0.0704514)
(0.088883 -0.024241 0.0794284)
(0.1843 0.00427297 -0.0916547)
(0.174346 0.0771424 -0.0587342)
(0.0924734 0.0513977 -0.0706607)
(0.279735 0.0260062 -0.000365736)
(0.136083 -0.00543584 0.0680984)
(0.284167 -0.156706 -0.0096982)
)
;

boundaryField
{
    movingWall
    {
        type            fixedValue;
        value           uniform (1 0 0);
    }
    fixedWalls
    {
        type            noSlip;
    }
    frontAndBack
    {
        type            empty;
    }
}


// ************************************************************************* //
