/*--------------------------------*- C++ -*----------------------------------*\
| =========                 |                                                 |
| \\      /  F ield         | OpenFOAM: The Open Source CFD Toolbox           |
|  \\    /   O peration     | Version:  2312                                  |
|   \\  /    A nd           | Website:  www.openfoam.com                      |
|    \\/     M anipulation  |                                                 |
\*---------------------------------------------------------------------------*/
FoamFile
{
    version     2.0;
    format      ascii;
    arch        "LSB;label=32;scalar=64";
    class       volScalarField;
    location    "0.25";
    object      Ux;
}
// * * * * * * * * * * * * * * * * * * * * * * * * * * * * * * * * * * * * * //

dimensions      [0 1 -1 0 0 0 0];

internalField   nonuniform List<scalar> 
400
(
-0.000181574
-0.000592887
-0.00113347
-0.00166727
-0.00215658
-0.00258193
-0.00293473
-0.00320931
-0.00340203
-0.00350621
-0.00352306
-0.00344792
-0.00328165
-0.00302514
-0.00268091
-0.00225341
-0.00175171
-0.00119759
-0.000632489
-0.000195681
-0.000286833
-0.000787787
-0.00133151
-0.00187432
-0.00238065
-0.00282896
-0.00320533
-0.00350029
-0.00370724
-0.00382099
-0.00383844
-0.00375773
-0.00357893
-0.00330403
-0.00293769
-0.00248846
-0.00197065
-0.00140764
-0.000837072
-0.000304776
-0.000343926
-0.000897559
-0.00145571
-0.0020053
-0.00251805
-0.00297522
-0.00336195
-0.00366694
-0.00388211
-0.00400173
-0.00402203
-0.00394109
-0.00375889
-0.00347784
-0.00310365
-0.00264638
-0.00212092
-0.00154758
-0.00095653
-0.000364566
-0.000368819
-0.000969578
-0.00156917
-0.00215163
-0.00269099
-0.00317052
-0.00357649
-0.00389764
-0.00412556
-0.00425421
-0.00427949
-0.00419907
-0.00401251
-0.00372181
-0.00333224
-0.00285316
-0.00229792
-0.00168498
-0.00104303
-0.000394029
-0.000390376
-0.00104199
-0.00170028
-0.00233699
-0.0029231
-0.00344126
-0.00387859
-0.00422472
-0.00447172
-0.0046137
-0.00464639
-0.00456691
-0.00437389
-0.00406802
-0.00365294
-0.00313612
-0.00252952
-0.00185259
-0.00113851
-0.000423774
-0.000422477
-0.00113783
-0.00186985
-0.00257823
-0.00322814
-0.00379964
-0.00427999
-0.00465989
-0.00493244
-0.00509237
-0.00513541
-0.00505801
-0.00485735
-0.00453195
-0.00408275
-0.00351461
-0.00283841
-0.00207645
-0.0012694
-0.000468562
-0.000469078
-0.00126782
-0.00209113
-0.00288819
-0.00361721
-0.00425485
-0.0047883
-0.00520964
-0.00551356
-0.00569598
-0.00575297
-0.00568019
-0.00547284
-0.0051263
-0.00463753
-0.00400759
-0.00324555
-0.00237678
-0.00145082
-0.000533715
-0.000531709
-0.00143812
-0.00237435
-0.00327887
-0.0041021
-0.00481728
-0.00541202
-0.00588068
-0.00622061
-0.00642974
-0.00650503
-0.0064414
-0.00623148
-0.00586627
-0.00533686
-0.00463811
-0.00377493
-0.00277442
-0.00169584
-0.000623141
-0.000612779
-0.00165609
-0.00273169
-0.00376535
-0.00469838
-0.00550104
-0.00616283
-0.00668217
-0.00706078
-0.00730006
-0.00739879
-0.00735142
-0.00714745
-0.00677192
-0.00620721
-0.0054379
-0.00445994
-0.00329842
-0.00202287
-0.000743012
-0.000716891
-0.00193376
-0.00318139
-0.00436925
-0.00542779
-0.00632536
-0.00705602
-0.0076253
-0.00804204
-0.00831331
-0.0084412
-0.00842039
-0.00823689
-0.00786801
-0.00728362
-0.00645165
-0.00535034
-0.00399428
-0.00246109
-0.000903188
-0.000852218
-0.0022912
-0.0037518
-0.00512244
-0.00632074
-0.00731558
-0.00811017
-0.00872195
-0.00917093
-0.00947291
-0.00963564
-0.00965533
-0.00951477
-0.00918214
-0.00861039
-0.00774179
-0.00652193
-0.00493564
-0.00305693
-0.00111811
-0.00103316
-0.00276227
-0.00448749
-0.00607189
-0.00741912
-0.00850385
-0.00934606
-0.0099822
-0.010449
-0.0107752
-0.0109769
-0.0110543
-0.010989
-0.0107398
-0.0102392
-0.00939319
-0.00809116
-0.00624499
-0.00388321
-0.00140541
-0.0012862
-0.00340519
-0.00545808
-0.00728494
-0.00877782
-0.00992753
-0.0107827
-0.0114086
-0.011866
-0.012201
-0.0124419
-0.0125964
-0.0126485
-0.0125515
-0.0122188
-0.0115127
-0.0102339
-0.00813044
-0.00505599
-0.00177619
-0.00165978
-0.0043143
-0.00676422
-0.00884746
-0.0104566
-0.0116169
-0.0124223
-0.0129799
-0.0133822
-0.0136977
-0.0139698
-0.0142181
-0.0144355
-0.0145806
-0.0145616
-0.0142064
-0.0132021
-0.0109507
-0.00678967
-0.00222791
-0.00223924
-0.00564417
-0.00852518
-0.0108323
-0.0124788
-0.0135499
-0.0142045
-0.0146054
-0.0148839
-0.0151336
-0.0154148
-0.0157625
-0.0161866
-0.0166702
-0.0171548
-0.0175063
-0.0173696
-0.0155089
-0.0100078
-0.00339146
-0.00309747
-0.00743499
-0.010753
-0.0131662
-0.0146987
-0.0155266
-0.0158868
-0.0160103
-0.0160715
-0.016188
-0.0164331
-0.0168507
-0.0174819
-0.018373
-0.0195747
-0.0212138
-0.0234405
-0.0246005
-0.0200172
-0.0126257
-0.00501184
-0.010449
-0.0133344
-0.0153907
-0.0164938
-0.016846
-0.0167165
-0.0164006
-0.0161204
-0.0160167
-0.016158
-0.016581
-0.0173376
-0.0185497
-0.020467
-0.0239122
-0.0310813
-0.0401038
-0.0465298
-0.0477273
-0.00604732
-0.010952
-0.013337
-0.0147447
-0.0152319
-0.0149069
-0.0139501
-0.0128444
-0.0119481
-0.0114265
-0.0113056
-0.0115728
-0.0122398
-0.0134064
-0.0153938
-0.0190325
-0.0278017
-0.0379481
-0.0636663
-0.0698242
-0.00742986
-0.00925815
-0.00658443
-0.00275419
0.0018817
0.00637372
0.01038
0.0135851
0.0158088
0.0171607
0.0178853
0.0181685
0.0180863
0.017731
0.0170255
0.0187202
0.0117541
0.0365796
-0.0163474
0.00353305
0.0406555
0.0641703
0.0903123
0.111532
0.125041
0.132455
0.136054
0.137927
0.139336
0.140693
0.141944
0.142974
0.143723
0.14435
0.144496
0.147751
0.142261
0.182626
0.0698445
0.34703
)
;

boundaryField
{
    movingWall
    {
        type            calculated;
        value           uniform 1;
    }
    fixedWalls
    {
        type            calculated;
        value           uniform 0;
    }
    frontAndBack
    {
        type            empty;
    }
}


// ************************************************************************* //
