/*--------------------------------*- C++ -*----------------------------------*\
| =========                 |                                                 |
| \\      /  F ield         | OpenFOAM: The Open Source CFD Toolbox           |
|  \\    /   O peration     | Version:  2312                                  |
|   \\  /    A nd           | Website:  www.openfoam.com                      |
|    \\/     M anipulation  |                                                 |
\*---------------------------------------------------------------------------*/
FoamFile
{
    version     2.0;
    format      ascii;
    arch        "LSB;label=32;scalar=64";
    class       volScalarField;
    location    "0.25";
    object      Uy;
}
// * * * * * * * * * * * * * * * * * * * * * * * * * * * * * * * * * * * * * //

dimensions      [0 1 -1 0 0 0 0];

internalField   nonuniform List<scalar> 
400
(
0.000181252
0.000281242
0.000314747
0.000298509
0.000263062
0.000222023
0.00017844
0.000132504
8.38777e-05
3.45448e-05
-1.70051e-05
-6.88889e-05
-0.000120556
-0.000171369
-0.000220818
-0.000268011
-0.000308818
-0.000328253
-0.000295088
-0.000193934
0.000594575
0.00077314
0.000823364
0.000788355
0.000707029
0.000603421
0.000487677
0.000363264
0.000231671
9.48621e-05
-4.54036e-05
-0.000187296
-0.000328379
-0.000466234
-0.000597863
-0.00071785
-0.000813609
-0.000858896
-0.000813932
-0.00063592
0.00116171
0.0013309
0.00135765
0.00129604
0.00117218
0.00100855
0.000819343
0.000612147
0.000391472
0.000161108
-7.54507e-05
-0.000314391
-0.000551367
-0.000781259
-0.000997199
-0.00118843
-0.00133728
-0.00141845
-0.00140452
-0.00123949
0.00177537
0.00194091
0.00193404
0.00183583
0.00166416
0.00143763
0.00117196
0.000878087
0.00056353
0.000234263
-0.000104245
-0.000446263
-0.000785243
-0.0011131
-0.00141895
-0.00168739
-0.00189788
-0.00202774
-0.00205621
-0.00189667
0.00242892
0.00260333
0.00256085
0.00241835
0.00219151
0.00189614
0.00154885
0.00116332
0.000749777
0.000316331
-0.00012977
-0.000581084
-0.00102901
-0.00146262
-0.00186721
-0.00222312
-0.00250705
-0.00269702
-0.00277212
-0.0026056
0.00313185
0.00332936
0.00325289
0.00305994
0.00276897
0.00239581
0.00195879
0.00147427
0.000954921
0.000410611
-0.000150121
-0.000718667
-0.0012849
-0.00183551
-0.00235219
-0.00281071
-0.00318353
-0.00344547
-0.00356946
-0.00338282
0.0039047
0.00413675
0.00402703
0.00377714
0.00341154
0.00294908
0.00241144
0.00181823
0.0011844
0.000521039
-0.000162798
-0.00085826
-0.00155462
-0.00223695
-0.00288355
-0.00346483
-0.00394643
-0.00429567
-0.00447433
-0.00425824
0.0047725
0.00504777
0.00490233
0.00458643
0.00413304
0.00356686
0.00291509
0.00220147
0.00144318
0.000651833
-0.000164138
-0.000997039
-0.001837
-0.0026687
-0.00346762
-0.00419783
-0.00481517
-0.00527448
-0.00552087
-0.00526971
0.00576389
0.00608938
0.00590129
0.00550556
0.0049466
0.00425829
0.00347588
0.00262842
0.00173518
0.000807329
-0.000148956
-0.00112919
-0.00212656
-0.00312749
-0.00410593
-0.00501926
-0.00581033
-0.00641524
-0.00675342
-0.0064643
0.00691336
0.00729466
0.00705094
0.00655416
0.0058647
0.00503009
0.00409685
0.00310063
0.00206249
0.000991616
-0.000110309
-0.00124491
-0.00241173
-0.00360244
-0.00479245
-0.0059335
-0.00695295
-0.00775995
-0.00823196
-0.00790337
0.00826559
0.00870559
0.00838395
0.00775348
0.00689788
0.00588472
0.00477589
0.00361499
0.00242396
0.00120774
-3.96026e-05
-0.00132934
-0.00267236
-0.00407102
-0.00550799
-0.00693388
-0.008261
-0.00936255
-0.0100429
-0.00967098
0.0098828
0.0103778
0.00993987
0.00912509
0.00805194
0.00681693
0.00550239
0.00416074
0.00281295
0.00145642
7.35173e-05
-0.00136135
-0.0028765
-0.00449301
-0.00621087
-0.00799102
-0.0097403
-0.0112916
-0.0123163
-0.0118797
0.0118566
0.0123873
0.0117663
0.0106879
0.00932286
0.00780817
0.00625199
0.00471521
0.00321407
0.00173367
0.000239768
-0.00131331
-0.00297754
-0.00480298
-0.00682275
-0.00903113
-0.0113608
-0.0136277
-0.0152468
-0.0146542
0.0143491
0.0148454
0.0139183
0.0124504
0.0106872
0.00881716
0.0069787
0.00523756
0.00359835
0.00202687
0.000466548
-0.00115315
-0.00291324
-0.00490293
-0.00720826
-0.00989472
-0.0130049
-0.0164881
-0.0193195
-0.0183596
0.0174844
0.0178589
0.0164185
0.0143772
0.0120771
0.0097621
0.00760248
0.00566015
0.00391684
0.0023095
0.000753467
-0.000848403
-0.00260745
-0.0046563
-0.0071464
-0.0102603
-0.0143505
-0.0201337
-0.0260888
-0.0240775
0.022164
0.0216161
0.0192246
0.0163537
0.01336
0.0105111
0.00800423
0.00588483
0.00409671
0.00253499
0.00107937
-0.000391647
-0.00200142
-0.00389885
-0.00628037
-0.00946165
-0.0142946
-0.0232895
-0.0328697
-0.0270156
0.0247306
0.0246518
0.0214701
0.0179536
0.0143581
0.0109204
0.00804453
0.00579117
0.00404789
0.00263763
0.0013909
0.000173121
-0.00113094
-0.00261962
-0.00439285
-0.00651683
-0.00940969
-0.0170994
-0.0313661
-0.0469858
0.0456479
0.037523
0.029248
0.0222841
0.0162391
0.0113393
0.00768729
0.00523025
0.00363687
0.00251527
0.00159655
0.000740976
-9.97587e-05
-0.000864952
-0.00124241
-0.000662493
0.00299136
-0.00569838
-0.0567708
-0.14216
0.0189317
0.0121477
0.0100053
0.0103279
0.0086296
0.00606364
0.00420881
0.00316641
0.00249601
0.00195225
0.00146071
0.00100628
0.000631351
0.000486383
0.0012145
0.0036289
0.0121494
0.0143813
-0.0177724
-0.182218
0.0951372
0.0717331
0.0447053
0.0276016
0.016118
0.00785889
0.00276775
0.000669812
0.00038998
0.000653432
0.000821812
0.000814567
0.000707386
0.000548122
0.000389091
0.000702981
0.00111549
0.00214062
0.0257909
-0.0795422
)
;

boundaryField
{
    movingWall
    {
        type            calculated;
        value           uniform 0;
    }
    fixedWalls
    {
        type            calculated;
        value           uniform 0;
    }
    frontAndBack
    {
        type            empty;
    }
}


// ************************************************************************* //
