/*--------------------------------*- C++ -*----------------------------------*\
| =========                 |                                                 |
| \\      /  F ield         | OpenFOAM: The Open Source CFD Toolbox           |
|  \\    /   O peration     | Version:  2312                                  |
|   \\  /    A nd           | Website:  www.openfoam.com                      |
|    \\/     M anipulation  |                                                 |
\*---------------------------------------------------------------------------*/
FoamFile
{
    version     2.0;
    format      ascii;
    arch        "LSB;label=32;scalar=64";
    class       volScalarField;
    location    "0.25";
    object      zeroGradient(epsilon);
}
// * * * * * * * * * * * * * * * * * * * * * * * * * * * * * * * * * * * * * //

dimensions      [0 2 -3 0 0 0 0];

internalField   nonuniform List<scalar> 
400
(
0.00368016
0.0045232
0.00503284
0.00523795
0.00531199
0.00534298
0.005361
0.00537412
0.00538402
0.00539085
0.00539598
0.00539984
0.00540045
0.00539713
0.00538765
0.00536233
0.00528738
0.00506939
0.0045337
0.00368046
0.00453437
0.00396626
0.00396998
0.0039797
0.00398332
0.00398454
0.00398476
0.00398441
0.00398362
0.00398251
0.00398156
0.00398098
0.00398017
0.00397897
0.00397734
0.00397501
0.00397116
0.00396329
0.00396581
0.00452365
0.00507384
0.00396383
0.00376422
0.00369199
0.00366673
0.00365901
0.00365654
0.0036553
0.00365426
0.00365325
0.00365233
0.00365157
0.00365087
0.00365051
0.00365186
0.00365968
0.00368739
0.0037648
0.00397073
0.00503358
0.00530079
0.00397194
0.00368654
0.00357423
0.00353263
0.00351945
0.0035156
0.00351422
0.00351341
0.00351275
0.00351222
0.00351177
0.0035115
0.00351202
0.00351567
0.00353021
0.00357576
0.0036939
0.00398265
0.00523978
0.00539087
0.00397664
0.00365863
0.00352907
0.00347963
0.00346367
0.00345915
0.00345781
0.00345726
0.00345694
0.00345669
0.00345653
0.00345666
0.00345781
0.00346288
0.0034811
0.00353532
0.0036707
0.00398961
0.00531726
0.00543833
0.00398037
0.00365047
0.00351466
0.00346225
0.0034452
0.00344045
0.00343918
0.00343881
0.00343867
0.00343855
0.0034386
0.00343897
0.00344045
0.00344623
0.00346615
0.003524
0.00366584
0.00399548
0.00535499
0.00547803
0.00398412
0.00364878
0.00351103
0.00345783
0.00344051
0.00343572
0.00343449
0.00343421
0.00343409
0.00343406
0.00343422
0.0034347
0.00343637
0.00344251
0.00346321
0.0035226
0.00366708
0.004002
0.0053848
0.00552094
0.00398834
0.00364889
0.00351061
0.00345739
0.00344009
0.0034353
0.00343408
0.00343381
0.00343365
0.00343368
0.0034339
0.00343446
0.00343628
0.00344272
0.00346402
0.00352445
0.00367065
0.00400995
0.00541593
0.0055711
0.0039933
0.00364951
0.00351103
0.00345802
0.00344083
0.00343605
0.00343482
0.00343455
0.00343439
0.00343447
0.00343476
0.00343545
0.00343748
0.0034443
0.00346629
0.00352785
0.00367585
0.00402006
0.00545158
0.00563134
0.00399939
0.00365057
0.00351197
0.00345928
0.00344219
0.00343735
0.00343605
0.00343573
0.00343555
0.00343568
0.00343608
0.00343697
0.00343932
0.00344671
0.00346968
0.00353282
0.00368317
0.00403336
0.00549377
0.00570514
0.00400709
0.00365224
0.00351353
0.00346114
0.00344406
0.00343906
0.0034376
0.00343718
0.00343695
0.00343713
0.00343769
0.00343889
0.00344177
0.00345008
0.0034746
0.00354013
0.00369385
0.00405148
0.00554479
0.00579775
0.00401722
0.00365499
0.00351609
0.0034639
0.00344662
0.00344127
0.00343952
0.0034389
0.00343859
0.00343884
0.00343966
0.00344135
0.0034451
0.00345493
0.00348206
0.0035516
0.00371059
0.00407746
0.00560769
0.00591763
0.00403126
0.00365982
0.00352061
0.0034684
0.00345064
0.00344468
0.00344247
0.00344154
0.00344113
0.00344151
0.00344276
0.00344527
0.0034505
0.00346298
0.00349477
0.00357179
0.00374032
0.00411855
0.00568678
0.00607935
0.00405221
0.0036695
0.00353026
0.00347812
0.00345971
0.00345302
0.00345032
0.00344911
0.0034488
0.00344961
0.00345178
0.00345588
0.00346382
0.00348117
0.00352202
0.00361516
0.00380602
0.00420155
0.00579669
0.00630367
0.00408749
0.00369392
0.00355803
0.00350824
0.0034907
0.00348444
0.00348224
0.00348178
0.00348268
0.00348508
0.00348962
0.00349732
0.00351075
0.00353759
0.00359741
0.00373091
0.00399176
0.00445266
0.0060557
0.00663726
0.00416223
0.00377536
0.00366082
0.00362602
0.00361835
0.00361894
0.00362238
0.00362704
0.00363278
0.00364025
0.00365102
0.00366744
0.0036924
0.00373716
0.00383506
0.004069
0.0045762
0.00560913
0.0075585
0.00701104
0.00439515
0.00411264
0.0040931
0.00412607
0.00416696
0.0042015
0.00422878
0.00425143
0.00427221
0.00429383
0.00432004
0.00435702
0.00440627
0.00447896
0.00463218
0.00504723
0.00646672
0.0115417
0.0192919
0.00784848
0.00533562
0.00573366
0.0062319
0.00662668
0.00691851
0.00711147
0.00723161
0.00731218
0.00737715
0.0074388
0.00750611
0.00758808
0.00768942
0.00778927
0.0079906
0.00842932
0.0124062
0.0307273
0.0643172
0.00952569
0.0123689
0.0179129
0.0222431
0.0253557
0.0274848
0.0286516
0.0291239
0.0293047
0.0294488
0.0296208
0.0298268
0.0300673
0.0303388
0.0306008
0.031134
0.0301642
0.0309595
0.0468413
0.130067
0.0525023
0.0975276
0.148658
0.184298
0.210024
0.228005
0.238006
0.241632
0.242156
0.242035
0.24202
0.242208
0.242765
0.243338
0.243253
0.241786
0.237565
0.220691
0.231424
0.182389
)
;

boundaryField
{
    movingWall
    {
        type            zeroGradient;
    }
    fixedWalls
    {
        type            zeroGradient;
    }
    frontAndBack
    {
        type            empty;
    }
}


// ************************************************************************* //
