/*--------------------------------*- C++ -*----------------------------------*\
| =========                 |                                                 |
| \\      /  F ield         | OpenFOAM: The Open Source CFD Toolbox           |
|  \\    /   O peration     | Version:  2312                                  |
|   \\  /    A nd           | Website:  www.openfoam.com                      |
|    \\/     M anipulation  |                                                 |
\*---------------------------------------------------------------------------*/
FoamFile
{
    version     2.0;
    format      ascii;
    arch        "LSB;label=32;scalar=64";
    class       volScalarField;
    location    "281";
    object      nut;
}
// * * * * * * * * * * * * * * * * * * * * * * * * * * * * * * * * * * * * * //

dimensions      [0 2 -1 0 0 0 0];

internalField   nonuniform List<scalar> 
12225
(
2.70507e-05
3.5584e-05
4.05203e-05
4.31919e-05
4.44508e-05
4.4963e-05
4.49759e-05
4.47472e-05
4.45657e-05
4.4201e-05
4.38553e-05
4.35241e-05
4.32273e-05
4.29454e-05
4.27115e-05
4.24752e-05
4.23129e-05
4.20925e-05
0.000216418
8.45158e-05
5.58945e-05
4.40579e-05
3.83785e-05
3.53504e-05
3.38604e-05
3.30681e-05
3.28556e-05
3.28778e-05
3.32152e-05
3.36055e-05
3.42283e-05
3.48018e-05
3.558e-05
3.62461e-05
3.70661e-05
3.7774e-05
0.000573252
0.00031164
0.000194369
0.000142165
0.000113216
9.44932e-05
8.20291e-05
7.33121e-05
6.68e-05
6.19624e-05
5.80407e-05
5.51127e-05
5.25313e-05
5.07111e-05
4.89104e-05
4.77834e-05
4.66459e-05
4.53059e-05
0.000751695
0.000624911
0.000451568
0.000351002
0.000289062
0.000246569
0.000216699
0.000194295
0.000177764
0.000164289
0.000154046
0.000145062
0.000138201
0.000131713
0.000126906
0.000121889
0.000118423
0.000113681
0.000825685
0.000787937
0.000687196
0.000591601
0.000517092
0.000458118
0.000413491
0.000377229
0.000349674
0.000325962
0.000307901
0.000291298
0.000278924
0.000266585
0.000257885
0.000248255
0.000241912
0.000233806
0.000847344
0.000838162
0.000802523
0.000753212
0.000699336
0.000648238
0.000604837
0.000565863
0.000534207
0.000505359
0.000482494
0.00046072
0.000444084
0.000427078
0.000414959
0.000401175
0.000392309
0.000380428
0.00085136
0.000849321
0.000839117
0.000823757
0.000798276
0.000768412
0.000739173
0.00070955
0.000683358
0.000657722
0.000636207
0.000614796
0.000597704
0.000579789
0.000566524
0.000551233
0.00054125
0.000527084
0.000851688
0.000851471
0.000849544
0.000844613
0.000835855
0.000824557
0.000810184
0.000793464
0.000777243
0.000760012
0.00074456
0.000728288
0.000714565
0.000699768
0.00068816
0.000674775
0.000665432
0.000652318
0.000851749
0.000851443
0.000851043
0.000849885
0.000847535
0.000843618
0.000838594
0.00083127
0.000823649
0.000814989
0.000806297
0.000796549
0.000787793
0.00077807
0.000769834
0.000760516
0.000753046
0.000743773
0.000851786
0.000851366
0.000851069
0.000850609
0.000850033
0.000848808
0.000847331
0.000844857
0.000841997
0.000838303
0.000834501
0.000829861
0.000825421
0.000820272
0.000815566
0.000810276
0.000805553
0.000799749
0.000851794
0.000851356
0.000851021
0.000850624
0.000850325
0.000849824
0.000849338
0.000848517
0.000847604
0.00084626
0.000844872
0.000843007
0.000841199
0.000838881
0.000836816
0.000834102
0.00083204
0.000828842
0.000851792
0.000851359
0.000851001
0.000850611
0.000850306
0.000849938
0.000849631
0.00084921
0.000848815
0.000848233
0.000847676
0.000846875
0.000846137
0.000845092
0.000844212
0.000842914
0.000841974
0.000840423
0.000851787
0.000851362
0.000850989
0.000850608
0.00085028
0.000849936
0.000849644
0.000849319
0.00084904
0.000848697
0.000848398
0.000848001
0.000847658
0.000847179
0.000846786
0.00084621
0.000845771
0.0008451
0.000851783
0.000851364
0.00085098
0.000850605
0.000850263
0.000849925
0.000849622
0.000849315
0.000849043
0.000848758
0.000848506
0.000848232
0.00084799
0.000847714
0.000847472
0.000847185
0.000846936
0.000846635
0.000851781
0.000851364
0.000850974
0.0008506
0.000850251
0.000849916
0.000849602
0.0008493
0.000849018
0.000848744
0.000848488
0.000848238
0.000848004
0.000847773
0.000847556
0.00084734
0.000847136
0.000846932
0.00085178
0.000851363
0.00085097
0.000850596
0.000850242
0.000849906
0.000849588
0.000849285
0.000848998
0.000848724
0.000848463
0.000848213
0.000847976
0.000847748
0.000847531
0.000847322
0.000847123
0.000846931
0.000851779
0.000851362
0.000850967
0.000850592
0.000850236
0.000849899
0.000849578
0.000849273
0.000848984
0.000848707
0.000848444
0.000848192
0.000847952
0.000847722
0.000847502
0.000847292
0.00084709
0.000846898
0.000851779
0.000851362
0.000850965
0.000850589
0.000850233
0.000849894
0.000849572
0.000849265
0.000848974
0.000848695
0.00084843
0.000848177
0.000847934
0.000847703
0.000847481
0.000847269
0.000847066
0.000846871
0.000851779
0.000851362
0.000850965
0.000850589
0.000850232
0.000849892
0.00084957
0.000849262
0.00084897
0.000848691
0.000848424
0.00084817
0.000847927
0.000847694
0.000847471
0.000847258
0.000847054
0.000846858
0.000851779
0.000851362
0.000850966
0.000850591
0.000850234
0.000849895
0.000849573
0.000849266
0.000848973
0.000848695
0.000848428
0.000848174
0.00084793
0.000847697
0.000847473
0.000847259
0.000847052
0.000846855
0.000851779
0.000851364
0.000850968
0.000850595
0.000850238
0.000849902
0.000849578
0.000849274
0.000848979
0.0008487
0.000848427
0.000848168
0.00084791
0.000847667
0.00084742
0.000847187
0.000846947
0.000846723
0.000851776
0.000851369
0.000850969
0.000850603
0.000850243
0.00084991
0.000849573
0.000849254
0.000848916
0.000848587
0.000848223
0.000847865
0.000847456
0.00084706
0.000846596
0.00084616
0.000845637
0.00084517
0.000851766
0.000851388
0.000850969
0.000850624
0.000850209
0.000849789
0.000849234
0.000848616
0.000847803
0.000846896
0.000845768
0.00084456
0.000843125
0.000841663
0.000839961
0.00083833
0.000836387
0.000834699
0.000851746
0.000851484
0.00085091
0.000850388
0.000849138
0.000847445
0.000844951
0.000841942
0.000838073
0.000833848
0.000828961
0.000823928
0.000818453
0.000813001
0.000807324
0.000801604
0.00079592
0.000790797
0.000851902
0.000851484
0.000848989
0.000845043
0.000837097
0.00082746
0.000815895
0.000802854
0.00078838
0.00077437
0.000759663
0.000746077
0.000732119
0.000719683
0.00070682
0.00069584
0.000684088
0.000674695
0.000852286
0.000845091
0.000826114
0.00080337
0.000769312
0.000735477
0.000700809
0.000669707
0.000639499
0.000613594
0.000588613
0.000567746
0.000547316
0.000530659
0.000513866
0.00050061
0.000486568
0.000476068
0.000832326
0.000795026
0.000710426
0.000628093
0.000558113
0.000503168
0.000455763
0.000418871
0.000386625
0.000361594
0.000338764
0.000321228
0.000304415
0.000291772
0.000278912
0.000269549
0.00025937
0.000252305
0.000733649
0.00054378
0.000397994
0.000313132
0.000257946
0.000219673
0.000190514
0.000169567
0.000152553
0.000139992
0.000129095
0.000121018
0.000113528
0.000108076
0.000102634
9.88117e-05
9.46879e-05
9.19152e-05
0.000325677
0.000164837
0.000111413
8.60789e-05
7.08262e-05
6.13549e-05
5.50186e-05
5.08857e-05
4.79533e-05
4.60099e-05
4.45906e-05
4.36882e-05
4.30394e-05
4.2695e-05
4.24553e-05
4.24393e-05
4.24359e-05
4.26225e-05
3.2663e-05
3.90563e-05
4.3892e-05
4.69717e-05
4.93653e-05
5.11698e-05
5.25342e-05
5.34594e-05
5.4114e-05
5.44634e-05
5.46906e-05
5.46974e-05
5.46544e-05
5.455e-05
5.43772e-05
5.41699e-05
5.3945e-05
5.37084e-05
2.84192e-06
7.83028e-06
9.40077e-06
1.06688e-05
1.16632e-05
1.24484e-05
1.30793e-05
1.3595e-05
1.40246e-05
1.44108e-05
1.47836e-05
1.51476e-05
1.55135e-05
1.58897e-05
1.62796e-05
1.6682e-05
1.70945e-05
1.75172e-05
1.79604e-05
1.84575e-05
1.90621e-05
1.97663e-05
2.0533e-05
2.1348e-05
2.22101e-05
2.31217e-05
2.40854e-05
2.51015e-05
2.61675e-05
2.7276e-05
2.84152e-05
2.95783e-05
3.07578e-05
3.19448e-05
3.31339e-05
3.43199e-05
3.54995e-05
3.66703e-05
3.78305e-05
3.89795e-05
4.01172e-05
4.12445e-05
4.23631e-05
4.34757e-05
4.45863e-05
4.57005e-05
4.68258e-05
4.79731e-05
4.91155e-05
5.02509e-05
5.13808e-05
5.25057e-05
5.3626e-05
5.47423e-05
5.58548e-05
5.69641e-05
5.80703e-05
5.91737e-05
6.02743e-05
6.13723e-05
6.24676e-05
6.35604e-05
6.46503e-05
6.57374e-05
6.68215e-05
6.79022e-05
6.89794e-05
7.00527e-05
7.11217e-05
7.21862e-05
7.32456e-05
7.42996e-05
7.53476e-05
7.63893e-05
7.74239e-05
7.84512e-05
7.94704e-05
8.04812e-05
8.14827e-05
8.24746e-05
8.34561e-05
8.44268e-05
8.53859e-05
8.6333e-05
8.72672e-05
8.81882e-05
8.90952e-05
8.99876e-05
9.08648e-05
9.17261e-05
9.25708e-05
9.33981e-05
9.42073e-05
9.49975e-05
9.57678e-05
9.65171e-05
9.72441e-05
9.79478e-05
9.86269e-05
9.92808e-05
9.99098e-05
0.000100518
0.000101107
0.000101671
0.000102213
0.000102732
0.000103228
0.0001037
0.000104148
0.000104573
0.000104972
0.000105347
0.000105697
0.000106021
0.00010632
0.000106594
0.000106841
0.000107062
0.000107257
0.000107426
0.000107568
0.000107684
0.000107773
0.000107835
0.000107872
0.000107881
0.000107865
0.000107822
0.000107753
0.000107658
0.000107537
0.000107391
0.000107224
0.000107027
0.000106803
0.000106551
0.00010628
0.00010599
0.000105671
0.00010533
0.000104966
0.00010458
0.000104172
0.000103742
0.000103292
0.000102822
0.000102332
0.000101822
0.000101294
0.000100747
0.000100183
9.96026e-05
9.90055e-05
9.83928e-05
9.77651e-05
9.71233e-05
9.64679e-05
9.57997e-05
9.51195e-05
9.44279e-05
9.3726e-05
9.30146e-05
9.22951e-05
9.15702e-05
9.08493e-05
9.02258e-05
8.97915e-05
8.9382e-05
8.89712e-05
8.85568e-05
8.81387e-05
8.7717e-05
8.72912e-05
8.68606e-05
8.64227e-05
8.59725e-05
8.54997e-05
8.49731e-05
8.43334e-05
8.24735e-05
4.46855e-06
1.83207e-05
4.06027e-05
5.99687e-05
7.418e-05
8.41959e-05
9.12886e-05
9.63481e-05
9.99035e-05
0.000102255
0.000103967
0.00010561
0.00010741
0.000109394
0.000111497
0.000113627
0.0001157
0.000117662
0.000119503
0.000121278
0.000122797
0.000124126
0.000125434
0.000126825
0.000128376
0.000130156
0.000132251
0.000134768
0.000137861
0.000141614
0.000145813
0.000150441
0.000155476
0.000160915
0.000166728
0.000172875
0.000179351
0.000186117
0.000193139
0.000200382
0.00020781
0.00021539
0.000223086
0.000230866
0.0002387
0.000246561
0.000254436
0.000262328
0.000270276
0.000278263
0.000286302
0.000294391
0.000302534
0.000310734
0.000318995
0.000327319
0.000335711
0.000344173
0.00035271
0.000361324
0.00037002
0.0003788
0.000387665
0.000396619
0.000405662
0.000414795
0.00042402
0.000433337
0.000442744
0.000452242
0.000461829
0.000471504
0.000481264
0.000491106
0.000501028
0.000511026
0.000521096
0.000531233
0.000541433
0.000551691
0.000562001
0.000572358
0.000582755
0.000593187
0.000603648
0.000614129
0.000624627
0.000635133
0.000645641
0.000656146
0.000666641
0.000677121
0.000687581
0.000698013
0.000708411
0.000718765
0.000729062
0.000739279
0.000749375
0.000759279
0.000768858
0.000777892
0.000786349
0.000794749
0.000802995
0.000811106
0.000819071
0.000826888
0.000834548
0.000842046
0.000849377
0.000856535
0.000863513
0.000870308
0.000876913
0.000883323
0.000889535
0.000895542
0.000901342
0.000906931
0.000912304
0.000917457
0.000922388
0.000927092
0.000931568
0.000935811
0.000939821
0.000943597
0.000947137
0.000950442
0.000953513
0.000956339
0.000958938
0.000961368
0.000963459
0.000965169
0.00096669
0.000968138
0.000969273
0.000970153
0.000970795
0.000971198
0.000971367
0.000971302
0.000971006
0.000970485
0.000969742
0.00096878
0.000967604
0.000966217
0.000964625
0.000962832
0.000960844
0.000958665
0.000956302
0.00095376
0.000951045
0.000948164
0.000945123
0.000941927
0.000938583
0.000935092
0.000931452
0.000927627
0.000923414
0.000917814
0.000910551
0.000902748
0.000894743
0.00088663
0.000878446
0.000870205
0.000861913
0.000853567
0.000845146
0.000836601
0.000827781
0.000818415
0.00080708
0.000779127
5.78473e-06
2.73171e-05
6.28171e-05
9.56679e-05
0.0001221
0.000142135
0.000156825
0.000167493
0.000175297
0.000181099
0.000185633
0.000189486
0.000193047
0.00019653
0.000200024
0.000203539
0.000207048
0.000210513
0.000213898
0.000217167
0.000220587
0.000224339
0.000228537
0.000233283
0.000238673
0.000244787
0.000251672
0.000259318
0.000267619
0.000276471
0.000286065
0.000296399
0.000307432
0.000319131
0.000331806
0.000345205
0.00035907
0.000373338
0.000387952
0.000402858
0.000418012
0.000433371
0.000448899
0.000464562
0.000480337
0.000496205
0.000512153
0.000528183
0.000544312
0.000560538
0.000576866
0.0005933
0.000609845
0.000626505
0.000643287
0.000660195
0.000677235
0.000694411
0.000711728
0.000729195
0.000746815
0.000764592
0.000782528
0.000800625
0.000818883
0.000837303
0.000855883
0.000874623
0.00089352
0.000912571
0.00093177
0.000951115
0.000970598
0.000990213
0.00100995
0.00102981
0.00104977
0.00106984
0.00108999
0.00111022
0.00113052
0.00115087
0.00117127
0.0011917
0.00121215
0.0012326
0.00125305
0.00127347
0.00129387
0.00131421
0.00133449
0.00135469
0.0013748
0.0013948
0.00141467
0.00143438
0.0014539
0.00147319
0.00149219
0.00151082
0.001529
0.00154666
0.00156392
0.00158094
0.00159767
0.00161411
0.00163024
0.00164605
0.00166153
0.00167667
0.00169145
0.00170587
0.0017199
0.00173355
0.00174679
0.00175963
0.00177205
0.00178404
0.0017956
0.0018067
0.00181736
0.00182756
0.00183729
0.00184655
0.00185533
0.00186363
0.00187144
0.00187876
0.00188559
0.00189193
0.00189778
0.00190314
0.00190802
0.00191252
0.00191641
0.0019195
0.0019222
0.00192461
0.00192645
0.00192778
0.00192861
0.00192895
0.00192881
0.00192819
0.0019271
0.00192555
0.00192354
0.00192108
0.00191818
0.00191485
0.00191109
0.00190693
0.00190236
0.0018974
0.00189207
0.00188636
0.00188031
0.00187391
0.00186718
0.00186013
0.00185279
0.00184514
0.0018372
0.00182889
0.00182
0.0018097
0.00179773
0.00178488
0.0017716
0.00175804
0.00174429
0.00173038
0.00171634
0.00170215
0.00168779
0.00167314
0.00165793
0.00164139
0.00162076
0.0015786
6.72015e-06
3.76677e-05
8.43681e-05
0.000126422
0.000160185
0.000186094
0.000205482
0.000219807
0.000230406
0.000238416
0.000244759
0.000250146
0.000255083
0.000259897
0.00026478
0.000269832
0.000275108
0.000280645
0.000286495
0.000292738
0.000299499
0.0003069
0.000315041
0.000324008
0.000333871
0.000344673
0.000356436
0.000369155
0.000382807
0.000397385
0.000412913
0.000429378
0.000446763
0.000465032
0.000483761
0.000502934
0.000522604
0.000542717
0.000563208
0.00058401
0.000605079
0.000626402
0.000647948
0.000669695
0.000691632
0.000713765
0.000736123
0.000758672
0.000781372
0.000804221
0.000827223
0.000850383
0.000873706
0.000897199
0.000920868
0.000944719
0.000968757
0.000992987
0.00101741
0.00104205
0.00106689
0.00109194
0.00111721
0.00114269
0.00116839
0.00119429
0.00122041
0.00124674
0.00127326
0.00129998
0.00132688
0.00135397
0.00138123
0.00140865
0.00143621
0.00146392
0.00149175
0.00151969
0.00154773
0.00157585
0.00160403
0.00163227
0.00166054
0.00168882
0.00171711
0.00174537
0.00177359
0.00180175
0.00182984
0.00185782
0.00188569
0.00191342
0.00194097
0.00196834
0.00199549
0.00202238
0.00204898
0.00207525
0.00210113
0.00212657
0.00215152
0.002176
0.00220007
0.00222377
0.00224706
0.00226995
0.00229241
0.00231442
0.00233597
0.00235704
0.0023776
0.00239766
0.00241719
0.00243618
0.00245461
0.00247247
0.00248975
0.00250643
0.00252251
0.00253797
0.0025528
0.002567
0.00258055
0.00259344
0.00260568
0.00261724
0.00262813
0.00263834
0.00264787
0.00265672
0.00266489
0.00267238
0.00267927
0.00268564
0.00269098
0.00269536
0.00269932
0.00270268
0.00270531
0.00270724
0.00270849
0.00270906
0.00270896
0.00270821
0.00270679
0.00270474
0.00270205
0.00269874
0.00269482
0.0026903
0.00268519
0.00267951
0.00267327
0.00266648
0.00265915
0.00265132
0.00264298
0.00263417
0.00262489
0.00261516
0.002605
0.00259442
0.00258342
0.00257194
0.00255981
0.00254651
0.00253185
0.00251625
0.00250007
0.00248349
0.00246661
0.00244949
0.00243216
0.00241463
0.00239687
0.00237876
0.00235997
0.00233956
0.0023143
0.0022695
7.37678e-06
4.83099e-05
0.000105021
0.000154466
0.000193982
0.000224303
0.000247153
0.000264253
0.000277135
0.000287091
0.000295168
0.000302174
0.000308699
0.000315149
0.000321784
0.00032877
0.000336212
0.00034419
0.000352781
0.000362071
0.000372153
0.000383114
0.00039503
0.000407963
0.000421953
0.000437023
0.000453175
0.000470395
0.000488655
0.000507926
0.000528166
0.000549316
0.000571298
0.000594011
0.000617325
0.000641188
0.000665569
0.000690419
0.000715695
0.000741364
0.000767384
0.000793695
0.000820266
0.000847075
0.000874102
0.000901327
0.000928714
0.000956268
0.000984017
0.00101197
0.00104012
0.00106848
0.00109706
0.00112585
0.00115487
0.00118411
0.00121358
0.00124329
0.00127323
0.0013034
0.00133382
0.00136449
0.00139541
0.00142658
0.00145799
0.00148964
0.00152153
0.00155365
0.00158599
0.00161854
0.0016513
0.00168424
0.00171737
0.00175066
0.00178411
0.00181769
0.00185139
0.00188519
0.00191909
0.00195304
0.00198705
0.00202108
0.00205513
0.00208916
0.00212315
0.00215709
0.00219095
0.0022247
0.00225834
0.00229182
0.00232512
0.00235823
0.00239111
0.00242373
0.00245606
0.00248808
0.00251974
0.00255101
0.00258186
0.00261228
0.00264224
0.00267174
0.00270078
0.00272937
0.00275748
0.00278511
0.00281221
0.00283879
0.00286481
0.00289026
0.00291512
0.00293937
0.00296299
0.00298597
0.00300829
0.00302993
0.00305089
0.00307114
0.00309068
0.00310948
0.00312755
0.00314486
0.0031614
0.00317718
0.00319217
0.00320637
0.00321977
0.00323237
0.00324417
0.00325516
0.00326535
0.00327474
0.00328355
0.00329147
0.00329828
0.00330403
0.00330934
0.00331381
0.00331744
0.00332026
0.00332226
0.00332347
0.00332387
0.00332349
0.00332234
0.00332042
0.00331775
0.00331433
0.00331018
0.00330531
0.00329974
0.00329347
0.00328653
0.00327893
0.00327068
0.00326181
0.00325233
0.00324226
0.00323163
0.00322044
0.00320872
0.00319648
0.00318373
0.00317043
0.00315646
0.00314153
0.00312552
0.00310863
0.00309109
0.00307307
0.00305467
0.00303596
0.00301698
0.00299777
0.00297829
0.00295845
0.00293791
0.00291567
0.0028886
0.00284584
7.84558e-06
5.8085e-05
0.000123878
0.000179917
0.000224486
0.000258721
0.000284686
0.000304351
0.000319419
0.000331308
0.000341163
0.000349872
0.000358095
0.000366301
0.000374804
0.000383814
0.000393472
0.00040388
0.000415122
0.000427273
0.000440406
0.000454582
0.00046985
0.000486244
0.00050378
0.000522459
0.000542263
0.000563162
0.000585112
0.000608063
0.000631953
0.000656711
0.000682259
0.000708516
0.000735406
0.000762872
0.000790867
0.000819344
0.000848258
0.000877571
0.000907242
0.000937234
0.000967519
0.000998075
0.00102888
0.00105993
0.0010912
0.0011227
0.00115443
0.00118639
0.00121859
0.00125102
0.0012837
0.00131662
0.00134979
0.00138321
0.00141689
0.00145082
0.00148503
0.0015195
0.00155423
0.00158921
0.00162445
0.00165994
0.00169567
0.00173164
0.00176784
0.00180426
0.0018409
0.00187774
0.00191477
0.00195199
0.00198937
0.0020269
0.00206457
0.00210236
0.00214026
0.00217823
0.00221628
0.00225437
0.00229249
0.00233061
0.00236872
0.00240679
0.00244481
0.00248274
0.00252056
0.00255825
0.00259579
0.00263315
0.0026703
0.00270722
0.00274389
0.00278026
0.00281631
0.00285202
0.00288735
0.00292228
0.00295679
0.00299084
0.00302442
0.00305753
0.00309015
0.00312226
0.00315386
0.00318491
0.00321539
0.00324529
0.00327458
0.00330325
0.00333127
0.00335862
0.00338529
0.00341125
0.00343649
0.00346099
0.00348473
0.00350771
0.0035299
0.00355129
0.00357187
0.00359162
0.00361054
0.00362861
0.00364582
0.00366217
0.00367764
0.00369224
0.00370595
0.00371877
0.00373071
0.00374187
0.00375233
0.00376166
0.00376988
0.0037771
0.00378369
0.00378937
0.00379413
0.00379799
0.00380096
0.00380304
0.00380425
0.0038046
0.00380409
0.00380273
0.00380054
0.00379753
0.0037937
0.00378907
0.00378366
0.00377748
0.00377054
0.00376286
0.00375446
0.00374535
0.00373556
0.00372509
0.00371398
0.00370224
0.0036899
0.00367696
0.00366343
0.00364931
0.00363451
0.0036189
0.00360238
0.00358505
0.00356707
0.00354855
0.0035296
0.00351029
0.00349068
0.00347082
0.0034507
0.00343026
0.00340919
0.00338658
0.0033597
0.00332077
8.18172e-06
6.71581e-05
0.000140796
0.000202627
0.000251777
0.000289721
0.000318756
0.000341028
0.000358366
0.000372287
0.000384018
0.000394515
0.000404498
0.00041449
0.000424852
0.000435833
0.000447597
0.00046026
0.000473907
0.000488602
0.000504398
0.000521333
0.000539433
0.000558708
0.000579154
0.000600753
0.000623472
0.000647268
0.000672089
0.000697877
0.000724566
0.000752088
0.000780375
0.00080936
0.000838982
0.000869186
0.000899924
0.00093115
0.000962821
0.000994901
0.00102736
0.00106015
0.00109327
0.00112669
0.00116039
0.00119436
0.00122859
0.00126309
0.00129783
0.00133283
0.00136808
0.00140358
0.00143933
0.00147534
0.0015116
0.00154812
0.00158489
0.00162193
0.00165922
0.00169678
0.00173458
0.00177264
0.00181094
0.00184948
0.00188825
0.00192726
0.00196648
0.00200592
0.00204555
0.00208538
0.00212539
0.00216556
0.00220589
0.00224635
0.00228694
0.00232764
0.00236842
0.00240927
0.00245018
0.00249112
0.00253207
0.00257301
0.00261393
0.00265479
0.00269559
0.00273628
0.00277686
0.00281729
0.00285756
0.00289763
0.00293748
0.00297709
0.00301642
0.00305546
0.00309417
0.00313253
0.00317051
0.00320808
0.00324523
0.00328192
0.00331814
0.00335388
0.00338911
0.00342382
0.00345798
0.00349157
0.00352458
0.00355697
0.00358872
0.00361982
0.00365025
0.00367997
0.00370897
0.00373724
0.00376475
0.00379149
0.00381743
0.00384257
0.00386688
0.00389035
0.00391297
0.00393472
0.00395559
0.00397557
0.00399465
0.00401281
0.00403006
0.00404638
0.00406176
0.00407621
0.00408974
0.00410254
0.00411436
0.00412513
0.00413471
0.0041434
0.00415127
0.00415819
0.00416414
0.00416914
0.0041732
0.00417633
0.00417853
0.00417982
0.00418021
0.00417969
0.0041783
0.00417602
0.00417288
0.0041689
0.00416407
0.00415842
0.00415196
0.00414471
0.00413668
0.00412788
0.00411834
0.00410808
0.00409711
0.00408545
0.00407313
0.00406016
0.00404655
0.0040323
0.00401738
0.00400171
0.00398525
0.00396804
0.00395018
0.00393176
0.00391288
0.0038936
0.00387401
0.00385416
0.00383408
0.00381373
0.0037929
0.00377078
0.00374509
0.00371004
8.44691e-06
7.4794e-05
0.000154974
0.000222009
0.000275483
0.00031712
0.000349313
0.000374324
0.000394076
0.000410165
0.000423881
0.000436241
0.00044802
0.000459786
0.000471945
0.000484776
0.000498466
0.000513141
0.000528886
0.000545757
0.00056379
0.000583006
0.000603411
0.000625
0.000647753
0.000671641
0.00069662
0.000722639
0.000749643
0.00077757
0.000806359
0.000835947
0.000866272
0.000897277
0.000928925
0.000961154
0.000993914
0.00102716
0.00106085
0.00109496
0.00112945
0.0011643
0.00119949
0.001235
0.0012708
0.00130689
0.00134326
0.00137991
0.00141683
0.001454
0.00149142
0.00152909
0.00156701
0.00160517
0.00164358
0.00168224
0.00172114
0.00176028
0.00179967
0.00183929
0.00187916
0.00191925
0.00195958
0.00200012
0.00204089
0.00208186
0.00212304
0.00216442
0.00220598
0.00224772
0.00228962
0.00233168
0.00237388
0.00241621
0.00245865
0.00250119
0.00254382
0.00258651
0.00262925
0.00267202
0.0027148
0.00275758
0.00280032
0.00284302
0.00288565
0.00292819
0.00297062
0.0030129
0.00305503
0.00309696
0.00313869
0.00318018
0.00322141
0.00326235
0.00330297
0.00334326
0.00338317
0.0034227
0.00346181
0.00350048
0.00353868
0.00357641
0.00361363
0.00365032
0.00368646
0.00372203
0.003757
0.00379135
0.00382506
0.0038581
0.00389044
0.00392208
0.00395299
0.00398314
0.00401251
0.0040411
0.00406887
0.00409582
0.00412192
0.00414715
0.00417151
0.00419498
0.00421755
0.00423919
0.00425991
0.00427969
0.00429852
0.0043164
0.00433331
0.00434924
0.00436429
0.00437855
0.00439167
0.00440383
0.00441479
0.0044249
0.00443407
0.00444224
0.00444943
0.00445563
0.00446087
0.00446515
0.00446847
0.00447085
0.00447229
0.00447281
0.00447241
0.0044711
0.0044689
0.00446582
0.00446186
0.00445705
0.00445139
0.00444491
0.00443761
0.0044295
0.00442062
0.00441096
0.00440056
0.00438943
0.00437759
0.00436506
0.00435185
0.00433796
0.0043234
0.00430812
0.00429211
0.00427539
0.00425803
0.0042401
0.00422168
0.00420285
0.00418369
0.00416427
0.00414465
0.00412484
0.00410468
0.00408352
0.00405952
0.00402872
8.95222e-06
7.84659e-05
0.000164422
0.000236939
0.00029496
0.000340537
0.000376088
0.00040401
0.000426327
0.000444708
0.000460505
0.000474788
0.000488376
0.000501883
0.00051575
0.000530285
0.000545697
0.000562122
0.000579647
0.000598326
0.000618182
0.000639223
0.000661439
0.000684815
0.00070933
0.000734966
0.000761651
0.000789327
0.000817936
0.000847419
0.000877717
0.00090877
0.000940519
0.0009729
0.00100589
0.00103945
0.00107356
0.00110817
0.00114325
0.00117876
0.00121466
0.00125092
0.00128749
0.00132435
0.0013615
0.00139894
0.00143668
0.00147472
0.00151303
0.00155158
0.00159036
0.00162937
0.0016686
0.00170806
0.00174774
0.00178764
0.00182776
0.00186811
0.00190867
0.00194945
0.00199044
0.00203165
0.00207306
0.00211467
0.00215649
0.0021985
0.00224071
0.00228309
0.00232566
0.00236839
0.00241129
0.00245434
0.00249753
0.00254085
0.00258429
0.00262784
0.00267148
0.0027152
0.00275898
0.00280281
0.00284667
0.00289054
0.00293441
0.00297825
0.00302204
0.00306577
0.00310941
0.00315293
0.00319632
0.00323956
0.0032826
0.00332544
0.00336805
0.00341039
0.00345245
0.0034942
0.0035356
0.00357664
0.00361728
0.00365751
0.0036973
0.00373662
0.00377545
0.00381376
0.00385153
0.00388873
0.00392534
0.00396134
0.00399669
0.00403138
0.00406537
0.00409866
0.0041312
0.00416299
0.004194
0.00422421
0.0042536
0.00428216
0.00430985
0.00433668
0.00436261
0.00438764
0.00441175
0.00443493
0.00445716
0.00447844
0.00449875
0.00451809
0.00453644
0.0045538
0.00457032
0.00458585
0.00460036
0.00461386
0.00462623
0.00463773
0.00464821
0.00465767
0.00466612
0.00467359
0.00468006
0.00468556
0.0046901
0.00469367
0.00469629
0.00469796
0.00469871
0.00469853
0.00469744
0.00469545
0.00469256
0.00468881
0.00468418
0.00467871
0.00467239
0.00466525
0.0046573
0.00464855
0.00463903
0.00462874
0.00461771
0.00460595
0.00459349
0.00458032
0.00456646
0.00455189
0.00453662
0.00452066
0.00450406
0.00448689
0.0044692
0.00445109
0.00443264
0.00441394
0.00439506
0.00437605
0.00435681
0.00433683
0.00431468
0.00428813
9.50744e-06
7.98284e-05
0.000170248
0.000247871
0.000310337
0.000359918
0.000398929
0.000429872
0.000454856
0.000475616
0.000493557
0.000509792
0.000525183
0.000540377
0.00055585
0.000571936
0.000588863
0.000606777
0.000625776
0.000645923
0.000667245
0.000689711
0.00071329
0.000737938
0.000763585
0.000790216
0.000817842
0.000846423
0.000875907
0.000906241
0.00093737
0.000969244
0.00100182
0.00103504
0.0010689
0.00110333
0.00113829
0.00117373
0.00120961
0.00124589
0.00128255
0.00131957
0.00135695
0.00139465
0.00143266
0.00147094
0.00150947
0.00154817
0.00158713
0.00162629
0.00166565
0.00170519
0.00174491
0.00178482
0.00182492
0.00186521
0.00190569
0.00194636
0.00198723
0.00202828
0.00206954
0.00211098
0.00215262
0.00219445
0.00223647
0.00227868
0.00232109
0.00236368
0.00240645
0.0024494
0.00249253
0.00253583
0.00257929
0.00262291
0.00266667
0.00271057
0.00275459
0.00279873
0.00284297
0.0028873
0.00293169
0.00297615
0.00302063
0.00306514
0.00310965
0.00315414
0.00319858
0.00324296
0.00328724
0.00333142
0.00337545
0.00341932
0.003463
0.00350646
0.00354967
0.00359261
0.00363524
0.00367755
0.00371949
0.00376105
0.00380219
0.00384289
0.00388313
0.00392286
0.00396207
0.00400073
0.00403881
0.00407628
0.00411313
0.00414931
0.00418481
0.0042196
0.00425366
0.00428697
0.00431949
0.00435121
0.00438212
0.00441218
0.00444138
0.0044697
0.00449712
0.00452364
0.00454922
0.00457387
0.00459756
0.00462028
0.00464203
0.00466279
0.00468256
0.00470134
0.00471922
0.00473607
0.00475194
0.0047668
0.00478061
0.00479349
0.00480532
0.00481609
0.00482586
0.00483462
0.0048424
0.00484919
0.00485501
0.00485986
0.00486375
0.00486669
0.0048687
0.00486977
0.00486992
0.00486917
0.00486751
0.00486497
0.00486156
0.00485728
0.00485215
0.00484618
0.00483938
0.00483176
0.00482335
0.00481415
0.00480418
0.00479346
0.004782
0.00476982
0.00475692
0.00474332
0.00472901
0.00471403
0.0046984
0.00468218
0.00466543
0.00464824
0.0046307
0.0046129
0.00459494
0.0045769
0.00455872
0.00454001
0.00451968
0.00449656
9.99488e-06
8.00037e-05
0.000173536
0.000255475
0.000321983
0.000375396
0.000417816
0.000451785
0.000479462
0.000502628
0.000522729
0.000540911
0.000558067
0.000574873
0.000591835
0.000609327
0.000627585
0.000646732
0.000666828
0.000687866
0.000709933
0.00073309
0.000757334
0.000782649
0.000809024
0.000836451
0.000864865
0.000894182
0.000924343
0.000955294
0.000986986
0.00101937
0.00105241
0.00108605
0.00112026
0.00115498
0.00119015
0.00122576
0.00126177
0.00129815
0.00133488
0.00137193
0.00140928
0.0014469
0.00148476
0.00152287
0.00156122
0.00159988
0.00163878
0.00167782
0.00171696
0.0017562
0.00179557
0.00183508
0.00187474
0.00191455
0.00195453
0.00199467
0.00203499
0.00207548
0.00211616
0.00215703
0.00219809
0.00223935
0.00228082
0.00232249
0.00236438
0.00240648
0.0024488
0.00249133
0.00253408
0.00257704
0.00262022
0.00266361
0.00270719
0.00275097
0.00279494
0.00283908
0.00288339
0.00292785
0.00297244
0.00301716
0.00306198
0.00310688
0.00315185
0.00319686
0.00324189
0.00328692
0.00333191
0.00337685
0.00342171
0.00346646
0.00351107
0.00355552
0.00359976
0.00364378
0.00368753
0.003731
0.00377414
0.00381694
0.00385935
0.00390134
0.0039429
0.00398397
0.00402455
0.00406459
0.00410408
0.00414297
0.00418124
0.00421886
0.00425581
0.00429206
0.00432758
0.00436235
0.00439635
0.00442954
0.00446192
0.00449345
0.00452413
0.00455392
0.00458281
0.00461078
0.00463782
0.00466392
0.00468905
0.00471321
0.00473639
0.00475857
0.00477976
0.00479995
0.00481917
0.00483739
0.00485465
0.00487091
0.00488616
0.0049005
0.00491368
0.00492581
0.00493693
0.00494706
0.0049562
0.00496435
0.00497153
0.00497774
0.00498299
0.00498729
0.00499065
0.00499308
0.0049946
0.00499521
0.00499491
0.00499373
0.00499167
0.00498875
0.00498496
0.00498033
0.00497486
0.00496857
0.00496146
0.00495355
0.00494485
0.00493538
0.00492514
0.00491416
0.00490245
0.00489001
0.00487687
0.00486304
0.00484856
0.00483346
0.00481783
0.00480173
0.00478525
0.0047685
0.0047516
0.00473462
0.00471758
0.00470017
0.00468155
0.0046613
1.04109e-05
7.93256e-05
0.000174795
0.000260194
0.000330229
0.000387154
0.000432807
0.000469705
0.000500018
0.000525549
0.000547763
0.000567846
0.000586713
0.000605016
0.000623228
0.000641648
0.00066062
0.000680389
0.000701099
0.000722868
0.00074576
0.000769706
0.000794673
0.000820635
0.000847557
0.000875379
0.000904019
0.000933459
0.000963659