/*--------------------------------*- C++ -*----------------------------------*\
| =========                 |                                                 |
| \\      /  F ield         | OpenFOAM: The Open Source CFD Toolbox           |
|  \\    /   O peration     | Version:  2312                                  |
|   \\  /    A nd           | Website:  www.openfoam.com                      |
|    \\/     M anipulation  |                                                 |
\*---------------------------------------------------------------------------*/
FoamFile
{
    version     2.0;
    format      ascii;
    arch        "LSB;label=32;scalar=64";
    class       surfaceScalarField;
    location    "281";
    object      phi;
}
// * * * * * * * * * * * * * * * * * * * * * * * * * * * * * * * * * * * * * //

dimensions      [0 3 -1 0 0 0 0];

oriented        oriented;

internalField   nonuniform List<scalar> 
24170
(
3.11644e-06
7.19616e-08
3.01269e-06
1.0376e-07
2.91728e-06
9.54097e-08
2.82625e-06
9.1026e-08
2.74024e-06
8.60093e-08
2.66274e-06
7.75059e-08
2.59485e-06
6.78877e-08
2.53594e-06
5.89093e-08
2.48489e-06
5.10454e-08
2.44063e-06
4.42663e-08
2.40218e-06
3.8446e-08
2.36874e-06
3.34418e-08
2.33963e-06
2.91059e-08
2.31432e-06
2.53158e-08
2.29249e-06
2.18317e-08
2.27366e-06
1.88289e-08
2.25762e-06
1.60365e-08
1.26763e-08
2.24494e-06
3.46686e-06
2.23489e-08
3.48677e-06
8.38532e-08
3.49349e-06
8.86963e-08
3.49229e-06
9.2229e-08
3.48432e-06
9.39764e-08
3.47072e-06
9.11102e-08
3.45278e-06
8.58252e-08
3.43174e-06
7.99514e-08
3.4087e-06
7.40833e-08
3.38457e-06
6.83979e-08
3.36005e-06
6.29639e-08
3.33565e-06
5.78383e-08
3.31175e-06
5.30053e-08
3.28862e-06
4.84526e-08
3.26644e-06
4.40112e-08
3.24543e-06
3.98329e-08
3.22638e-06
3.50914e-08
2.88586e-08
3.2102e-06
3.66722e-06
1.76453e-08
3.68039e-06
7.06838e-08
3.69009e-06
7.89937e-08
3.70005e-06
8.22711e-08
3.70916e-06
8.4865e-08
3.71624e-06
8.40289e-08
3.7212e-06
8.08639e-08
3.72424e-06
7.69107e-08
3.7256e-06
7.27291e-08
3.72552e-06
6.84725e-08
3.72427e-06
6.42184e-08
3.72207e-06
6.004e-08
3.71912e-06
5.5952e-08
3.71563e-06
5.1943e-08
3.71173e-06
4.79088e-08
3.70778e-06
4.37834e-08
3.70379e-06
3.90789e-08
3.32403e-08
3.69941e-06
3.92502e-06
1.80143e-08
3.93555e-06
6.01507e-08
3.94312e-06
7.14304e-08
3.95015e-06
7.52398e-08
3.95683e-06
7.81859e-08
3.96262e-06
7.82402e-08
3.96758e-06
7.59033e-08
3.97191e-06
7.25849e-08
3.97569e-06
6.89444e-08
3.97899e-06
6.51697e-08
3.98187e-06
6.13424e-08
3.98438e-06
5.75316e-08
3.98657e-06
5.37552e-08
3.98852e-06
4.99942e-08
3.99027e-06
4.61593e-08
3.99191e-06
4.21423e-08
3.99329e-06
3.76983e-08
3.25266e-08
3.99401e-06
4.20803e-06
1.71108e-08
4.21607e-06
5.21072e-08
4.22223e-06
6.52709e-08
4.22774e-06
6.97363e-08
4.23318e-06
7.27431e-08
4.23821e-06
7.32118e-08
4.24273e-06
7.1376e-08
4.24686e-06
6.84618e-08
4.25065e-06
6.51552e-08
4.25415e-06
6.1667e-08
4.25741e-06
5.80851e-08
4.26046e-06
5.44766e-08
4.26335e-06
5.08649e-08
4.26611e-06
4.72318e-08
4.26877e-06
4.35068e-08
4.27131e-06
3.96005e-08
4.27363e-06
3.53776e-08
3.07038e-08
4.27545e-06
4.51074e-06
1.54583e-08
4.51711e-06
4.5732e-08
4.52281e-06
5.95799e-08
4.52795e-06
6.45931e-08
4.53309e-06
6.76046e-08
4.53795e-06
6.83519e-08
4.54238e-06
6.69469e-08
4.54643e-06
6.44095e-08
4.55018e-06
6.14043e-08
4.55368e-06
5.81627e-08
4.55699e-06
5.47844e-08
4.56012e-06
5.13398e-08
4.56313e-06
4.78601e-08
4.56602e-06
4.43343e-08
4.56882e-06
4.07148e-08
4.57148e-06
3.69391e-08
4.57392e-06
3.29391e-08
2.86814e-08
4.57594e-06
4.83439e-06
1.37922e-08
4.83991e-06
4.02075e-08
4.84553e-06
5.39634e-08
4.85064e-06
5.94747e-08
4.85571e-06
6.25422e-08
4.86054e-06
6.3521e-08
4.86498e-06
6.25002e-08
4.86908e-06
6.03168e-08
4.87288e-06
5.75971e-08
4.87646e-06
5.45892e-08
4.87983e-06
5.14058e-08
4.88305e-06
4.81219e-08
4.88614e-06
4.47771e-08
4.8891e-06
4.1371e-08
4.89194e-06
3.78784e-08
4.89461e-06
3.4264e-08
4.89704e-06
3.0507e-08
2.66309e-08
4.89909e-06
5.1811e-06
1.22688e-08
5.18607e-06
3.52393e-08
5.19158e-06
4.84575e-08
5.1967e-06
5.43501e-08
5.20176e-06
5.74846e-08
5.20664e-06
5.86424e-08
5.21118e-06
5.79553e-08
5.2154e-06
5.61023e-08
5.21934e-06
5.3659e-08
5.22304e-06
5.08841e-08
5.22655e-06
4.79007e-08
5.22988e-06
4.47883e-08
5.23306e-06
4.15948e-08
5.2361e-06
3.83322e-08
5.23898e-06
3.49951e-08
5.24167e-06
3.15725e-08
5.24411e-06
2.80731e-08
2.45442e-08
5.24619e-06
5.55276e-06
1.08502e-08
5.55723e-06
3.07614e-08
5.56253e-06
4.3163e-08
5.56763e-06
4.92434e-08
5.5727e-06
5.24127e-08
5.57766e-06
5.36899e-08
5.58233e-06
5.32818e-08
5.5867e-06
5.17328e-08
5.5908e-06
4.95566e-08
5.59467e-06
4.70157e-08
5.59833e-06
4.42403e-08
5.6018e-06
4.13143e-08
5.60511e-06
3.82926e-08
5.60824e-06
3.51995e-08
5.61119e-06
3.2046e-08
5.61392e-06
2.88404e-08
5.61639e-06
2.56075e-08
2.24043e-08
5.61853e-06
5.95111e-06
9.51537e-09
5.95514e-06
2.67282e-08
5.96018e-06
3.81263e-08
5.96524e-06
4.41827e-08
5.97031e-06
4.73384e-08
5.97532e-06
4.86799e-08
5.98011e-06
4.84921e-08
5.98463e-06
4.72127e-08
5.9889e-06
4.52883e-08
5.99294e-06
4.29778e-08
5.99676e-06
4.04158e-08
6.00039e-06
3.76895e-08
6.00382e-06
3.48589e-08
6.00706e-06
3.19591e-08
6.0101e-06
2.90134e-08
6.01289e-06
2.6044e-08
6.01542e-06
2.30831e-08
2.01896e-08
6.01763e-06
6.37806e-06
8.26515e-09
6.38171e-06
2.30833e-08
6.38648e-06
3.33569e-08
6.39146e-06
3.91933e-08
6.39652e-06
4.22795e-08
6.40156e-06
4.36373e-08
6.40645e-06
4.36108e-08
6.4111e-06
4.25612e-08
6.41552e-06
4.08691e-08
6.41971e-06
3.87813e-08
6.42369e-06
3.64346e-08
6.42747e-06
3.39177e-08
6.43103e-06
3.12942e-08
6.43438e-06
2.86069e-08
6.43751e-06
2.5888e-08
6.44038e-06
2.31676e-08
6.44299e-06
2.04807e-08
1.78834e-08
6.44529e-06
5.74183e-06
7.26764e-09
5.74464e-06
2.02701e-08
5.74847e-06
2.95313e-08
5.75262e-06
3.50451e-08
5.75687e-06
3.80251e-08
5.76114e-06
3.93654e-08
5.76532e-06
3.94319e-08
5.76934e-06
3.85443e-08
5.77318e-06
3.70323e-08
5.77683e-06
3.51259e-08
5.7803e-06
3.2961e-08
5.7836e-06
3.06262e-08
5.7867e-06
2.81872e-08
5.78962e-06
2.56908e-08
5.79233e-06
2.31737e-08
5.79483e-06
2.067e-08
5.7971e-06
1.82136e-08
1.58588e-08
5.79912e-06
6.99922e-06
6.20036e-09
7.00221e-06
1.72796e-08
7.00637e-06
2.53755e-08
7.011e-06
3.04079e-08
7.01584e-06
3.31928e-08
7.02073e-06
3.44683e-08
7.02557e-06
3.45982e-08
7.03025e-06
3.38617e-08
7.03475e-06
3.25357e-08
7.03904e-06
3.08281e-08
7.04313e-06
2.88698e-08
7.04701e-06
2.67483e-08
7.05067e-06
2.45289e-08
7.0541e-06
2.22607e-08
7.05729e-06
1.99831e-08
7.06023e-06
1.77314e-08
7.06291e-06
1.55372e-08
1.34503e-08
7.06531e-06
8.53198e-06
5.07124e-09
8.53511e-06
1.41419e-08
8.53957e-06
2.09193e-08
8.54468e-06
2.52915e-08
8.55011e-06
2.77663e-08
8.55567e-06
2.89108e-08
8.56121e-06
2.90591e-08
8.56662e-06
2.84505e-08
8.57184e-06
2.73092e-08
8.57686e-06
2.58146e-08
8.58164e-06
2.40879e-08
8.58618e-06
2.22122e-08
8.59045e-06
2.025e-08
8.59447e-06
1.825e-08
8.5982e-06
1.62512e-08
8.60164e-06
1.42878e-08
8.60479e-06
1.23873e-08
1.05937e-08
8.60765e-06
1.04004e-05
3.89126e-09
1.04037e-05
1.08799e-08
1.04084e-05
1.61883e-08
1.0414e-05
1.97097e-08
1.042e-05
2.17346e-08
1.04263e-05
2.26613e-08
1.04325e-05
2.27673e-08
1.04387e-05
2.22495e-08
1.04448e-05
2.12818e-08
1.04506e-05
2.00093e-08
1.04561e-05
1.85369e-08
1.04614e-05
1.69392e-08
1.04664e-05
1.52723e-08
1.0471e-05
1.35809e-08
1.04754e-05
1.19006e-08
1.04794e-05
1.02616e-08
1.04831e-05
8.68635e-09
7.21231e-09
1.04865e-05
1.2678e-05
2.66798e-09
1.26814e-05
7.49233e-09
1.26864e-05
1.11849e-08
1.26924e-05
1.36634e-08
1.26991e-05
1.50777e-08
1.27061e-05
1.56782e-08
1.27132e-05
1.56662e-08
1.27202e-05
1.51896e-08
1.27272e-05
1.43737e-08
1.27338e-05
1.33251e-08
1.27403e-05
1.21256e-08
1.27464e-05
1.08354e-08
1.27521e-05
9.50022e-09
1.27576e-05
8.15648e-09
1.27626e-05
6.83316e-09
1.27673e-05
5.55421e-09
1.27717e-05
4.33596e-09
3.20884e-09
1.27757e-05
1.54545e-05
1.39299e-09
1.5458e-05
3.93602e-09
1.54633e-05
5.85505e-09
1.54699e-05
7.09696e-09
1.54773e-05
7.72703e-09
1.54851e-05
7.87537e-09
1.54931e-05
7.65788e-09
1.55011e-05
7.16437e-09
1.5509e-05
6.47059e-09
1.55167e-05
5.6417e-09
1.55241e-05
4.7296e-09
1.55311e-05
3.7737e-09
1.55378e-05
2.8044e-09
1.55441e-05
1.84586e-09
1.55501e-05
9.17276e-10
1.55556e-05
3.42607e-11
1.55607e-05
-7.93712e-10
-1.54383e-09
1.55655e-05
1.8839e-05
2.69383e-11
1.88429e-05
8.63779e-11
1.88487e-05
2.24224e-11
1.8856e-05
-1.85381e-10
1.88642e-05
-5.22734e-10
1.88731e-05
-9.59905e-10
1.88822e-05
-1.47285e-09
1.88914e-05
-2.0395e-09
1.89005e-05
-2.63766e-09
1.89094e-05
-3.24785e-09
1.8918e-05
-3.85466e-09
1.89262e-05
-4.44591e-09
1.8934e-05
-5.01159e-09
1.89414e-05
-5.54341e-09
1.89483e-05
-6.03481e-09
1.89549e-05
-6.48026e-09
1.89609e-05
-6.87784e-09
-7.21292e-09
1.89666e-05
2.29649e-05
-1.53174e-09
2.29693e-05
-4.35175e-09
2.29761e-05
-6.74806e-09
2.29846e-05
-8.68737e-09
2.29943e-05
-1.01876e-08
2.30046e-05
-1.13348e-08
2.30154e-05
-1.22182e-08
2.30262e-05
-1.28922e-08
2.3037e-05
-1.33935e-08
2.30475e-05
-1.37573e-08
2.30577e-05
-1.40144e-08
2.30674e-05
-1.41868e-08
2.30767e-05
-1.42897e-08
2.30855e-05
-1.43342e-08
2.30938e-05
-1.43289e-08
2.31016e-05
-1.42798e-08
2.31089e-05
-1.41932e-08
-1.40629e-08
2.31157e-05
1.68119e-05
-2.73728e-09
1.68153e-05
-7.76436e-09
1.68205e-05
-1.19695e-08
1.68271e-05
-1.52064e-08
1.68344e-05
-1.75172e-08
1.68422e-05
-1.91351e-08
1.68502e-05
-2.02536e-08
1.68583e-05
-2.09725e-08
1.68663e-05
-2.13691e-08
1.6874e-05
-2.15235e-08
1.68815e-05
-2.15013e-08
1.68887e-05
-2.13489e-08
1.68955e-05
-2.10997e-08
1.6902e-05
-2.0779e-08
1.6908e-05
-2.04059e-08
1.69137e-05
-1.99939e-08
1.69191e-05
-1.95541e-08
-1.90857e-08
1.69241e-05
1.46357e-05
-3.87369e-09
1.4639e-05
-1.10363e-08
1.4644e-05
-1.70149e-08
1.46502e-05
-2.14092e-08
1.46571e-05
-2.43578e-08
1.46643e-05
-2.63334e-08
1.46716e-05
-2.76105e-08
1.4679e-05
-2.83081e-08
1.46861e-05
-2.8553e-08
1.46931e-05
-2.84763e-08
1.46998e-05
-2.81736e-08
1.47061e-05
-2.77084e-08
1.47122e-05
-2.71286e-08
1.47178e-05
-2.64718e-08
1.47232e-05
-2.57656e-08
1.47282e-05
-2.50296e-08
1.4733e-05
-2.42785e-08
-2.35155e-08
1.47374e-05
1.27412e-05
-4.90182e-09
1.27444e-05
-1.4291e-08
1.27495e-05
-2.2136e-08
1.27556e-05
-2.74603e-08
1.27621e-05
-3.08262e-08
1.27688e-05
-3.30774e-08
1.27756e-05
-3.44582e-08
1.27824e-05
-3.5068e-08
1.2789e-05
-3.5108e-08
1.27953e-05
-3.47698e-08
1.28013e-05
-3.41722e-08
1.28069e-05
-3.33923e-08
1.28123e-05
-3.24908e-08
1.28173e-05
-3.15153e-08
1.28221e-05
-3.04996e-08
1.28265e-05
-2.94663e-08
1.28307e-05
-2.84306e-08
-2.73965e-08
1.28345e-05
1.10917e-05
-5.6918e-09
1.1095e-05
-1.7569e-08
1.11004e-05
-2.7538e-08
1.11064e-05
-3.3447e-08
1.11125e-05
-3.69805e-08
1.11189e-05
-3.94221e-08
1.11253e-05
-4.08301e-08
1.11315e-05
-4.12893e-08
1.11375e-05
-4.10963e-08
1.11432e-05
-4.04877e-08
1.11486e-05
-3.95926e-08
1.11537e-05
-3.85006e-08
1.11585e-05
-3.72863e-08
1.1163e-05
-3.60074e-08
1.11672e-05
-3.47026e-08
1.11711e-05
-3.33977e-08
1.11748e-05
-3.21111e-08
-3.08514e-08
1.11783e-05
9.65567e-06
-6.14841e-09
9.65906e-06
-2.09626e-08
9.66466e-06
-3.31312e-08
9.67045e-06
-3.9239e-08
9.67637e-06
-4.29014e-08
9.68243e-06
-4.54857e-08
9.68839e-06
-4.67844e-08
9.6941e-06
-4.69974e-08
9.69954e-06
-4.65396e-08
9.70471e-06
-4.56586e-08
9.70959e-06
-4.44747e-08
9.71418e-06
-4.30862e-08
9.71847e-06
-4.15799e-08
9.72248e-06
-4.00213e-08
9.72623e-06
-3.84525e-08
9.72974e-06
-3.69e-08
9.733e-06
-3.53769e-08
-3.38776e-08
9.73603e-06
8.40505e-06
-5.84197e-09
8.40934e-06
-2.52546e-08
8.41475e-06
-3.8541e-08
8.41986e-06
-4.43516e-08
8.42544e-06
-4.84824e-08
8.43132e-06
-5.13598e-08
8.43704e-06
-5.25142e-08
8.44248e-06
-5.24369e-08
8.44763e-06
-5.16831e-08
8.45247e-06
-5.05021e-08
8.45701e-06
-4.90106e-08
8.46124e-06
-4.73175e-08
8.46518e-06
-4.55196e-08
8.46884e-06
-4.36879e-08
8.47226e-06
-4.18668e-08
8.47544e-06
-4.00853e-08
8.47843e-06
-3.83676e-08
-3.67241e-08
8.48128e-06
7.31386e-06
-2.41486e-09
7.32071e-06
-3.21078e-08
7.3265e-06
-4.43322e-08
7.33132e-06
-4.91749e-08
7.33671e-06
-5.38718e-08
7.34239e-06
-5.70317e-08
7.34793e-06
-5.80582e-08
7.35325e-06
-5.77568e-08
7.35832e-06
-5.67538e-08
7.3631e-06
-5.52821e-08
7.36757e-06
-5.34752e-08
7.37171e-06
-5.14635e-08
7.37555e-06
-4.93602e-08
7.3791e-06
-4.72408e-08
7.38239e-06
-4.51551e-08
7.38544e-06
-4.31331e-08
7.38826e-06
-4.11854e-08
-3.92608e-08
7.39079e-06
6.36063e-06
7.02386e-09
6.37028e-06
-4.17648e-08
6.37818e-06
-5.22233e-08
6.38526e-06
-5.62591e-08
6.39239e-06
-6.10003e-08
6.39901e-06
-6.3653e-08
6.40501e-06
-6.4054e-08
6.41056e-06
-6.33123e-08
6.41577e-06
-6.19618e-08
6.42062e-06
-6.01378e-08
6.42512e-06
-5.79662e-08
6.42924e-06
-5.55886e-08
6.43301e-06
-5.31332e-08
6.43645e-06
-5.06771e-08
6.43957e-06
-4.82783e-08
6.44242e-06
-4.59778e-08
6.44504e-06
-4.38072e-08
-4.17932e-08
6.44757e-06
5.53889e-06
1.35963e-08
5.54754e-06
-5.04127e-08
5.5559e-06
-6.05872e-08
5.56614e-06
-6.64977e-08
5.57735e-06
-7.2204e-08
5.58784e-06
-7.41497e-08
5.59706e-06
-7.32749e-08
5.60503e-06
-7.12747e-08
5.6118e-06
-6.8736e-08
5.61746e-06
-6.57992e-08
5.62208e-06
-6.25879e-08
5.62575e-06
-5.92571e-08
5.62856e-06
-5.59423e-08
5.6306e-06
-5.2718e-08
5.63196e-06
-4.96359e-08
5.63275e-06
-4.67651e-08
5.63306e-06
-4.4116e-08
-4.17815e-08
5.63304e-06
4.87081e-06
-2.96045e-08
4.8865e-06
-6.61087e-08
4.89726e-06
-7.13398e-08
4.906e-06
-7.52397e-08
4.91305e-06
-7.92582e-08
4.91734e-06
-7.84326e-08
4.91817e-06
-7.41112e-08
4.91544e-06
-6.85451e-08
4.90946e-06
-6.27541e-08
4.90074e-06
-5.7079e-08
4.88984e-06
-5.16905e-08
4.87727e-06
-4.6688e-08
4.86349e-06
-4.2153e-08
4.84885e-06
-3.80778e-08
4.83366e-06
-3.44486e-08
4.81818e-06
-3.12888e-08
4.80268e-06
-2.86138e-08
-2.69204e-08
4.78782e-06
4.17307e-06
4.10696e-06
4.03562e-06
3.96038e-06
3.88113e-06
3.80269e-06
3.72858e-06
3.66004e-06
3.59728e-06
3.5402e-06
3.48851e-06
3.44183e-06
3.39967e-06
3.36159e-06
3.32715e-06
3.29586e-06
3.26724e-06
3.24032e-06
5.9097e-09
-5.91256e-09
1.78183e-08
-1.19127e-08
3.16013e-08
-1.37872e-08
4.48954e-08
-1.32974e-08
5.63442e-08
-1.14526e-08
6.52864e-08
-8.94535e-09
7.15021e-08
-6.21965e-09
7.50287e-08
-3.52985e-09
7.60409e-08
-1.01647e-09
7.48266e-08
1.211e-09
7.17619e-08
3.06013e-09
6.72352e-08
4.52318e-09
6.15537e-08
5.67658e-09
5.49251e-08
6.62484e-09
4.74452e-08
7.47451e-09
3.91247e-08
8.31631e-09
2.9906e-08
9.21283e-09
1.97008e-08
1.02006e-08
8.41254e-09
1.12818e-08
-4.0715e-09
1.24794e-08
-1.79801e-08
1.39022e-08
-3.35111e-08
1.55268e-08
-5.08015e-08
1.72844e-08
-7.00055e-08
1.91999e-08
-9.12806e-08
2.12692e-08
-1.14757e-07
2.34717e-08
-1.40538e-07
2.57753e-08
-1.68682e-07
2.81391e-08
-1.99203e-07
3.05147e-08
-2.32055e-07
3.28468e-08
-2.67139e-07
3.50784e-08
-3.0431e-07
3.7166e-08
-3.43394e-07
3.90784e-08
-3.84192e-07
4.07927e-08
-4.2649e-07
4.22931e-08
-4.70062e-07
4.35679e-08
-5.14682e-07
4.46149e-08
-5.60127e-07
4.54411e-08
-6.0619e-07
4.60592e-08
-6.5268e-07
4.6486e-08
-6.99424e-07
4.6741e-08
-7.46273e-07
4.68457e-08
-7.93098e-07
4.68217e-08
-8.39791e-07
4.66904e-08
-8.86266e-07
4.64722e-08
-9.32458e-07
4.61897e-08
-9.78333e-07
4.58723e-08
-1.02389e-06
4.55557e-08
-1.06915e-06
4.52586e-08
-1.11413e-06
4.49767e-08
-1.15884e-06
4.47065e-08
-1.20329e-06
4.44457e-08
-1.24749e-06
4.41928e-08
-1.29144e-06
4.39461e-08
-1.33514e-06
4.37037e-08
-1.37861e-06
4.34635e-08
-1.42184e-06
4.32234e-08
-1.46482e-06
4.29807e-08
-1.50756e-06
4.27328e-08
-1.55004e-06
4.24767e-08
-1.59225e-06
4.22096e-08
-1.63419e-06
4.19283e-08
-1.67582e-06
4.16301e-08
-1.71714e-06
4.13118e-08
-1.75811e-06
4.09707e-08
-1.79872e-06
4.06041e-08
-1.83893e-06
4.02093e-08
-1.87872e-06
3.9784e-08
-1.91805e-06
3.93259e-08
-1.95688e-06
3.88327e-08
-1.99519e-06
3.83029e-08
-2.03293e-06
3.77344e-08
-2.07005e-06
3.71258e-08
-2.10653e-06
3.64756e-08
-2.14232e-06
3.5783e-08
-2.17737e-06
3.50465e-08
-2.21164e-06
3.42659e-08
-2.24508e-06
3.34402e-08
-2.27766e-06
3.25694e-08
-2.30931e-06
3.16528e-08
-2.34001e-06
3.06907e-08
-2.3697e-06
2.96828e-08
-2.39833e-06
2.86297e-08
-2.42586e-06
2.75311e-08
-2.45225e-06
2.63879e-08
-2.47746e-06
2.52002e-08
-2.50143e-06
2.39691e-08
-2.52413e-06
2.26947e-08
-2.5455e-06
2.13777e-08
-2.56552e-06
2.00182e-08
-2.58413e-06
1.86157e-08
-2.6013e-06
1.71697e-08
-2.61699e-06
1.56791e-08
-2.63113e-06
1.41414e-08
-2.64368e-06
1.25527e-08
-2.6546e-06
1.09077e-08
-2.6638e-06
9.19964e-09
-2.67122e-06
7.41832e-09
-2.67677e-06
5.54717e-09
-2.68035e-06
3.56912e-09
-2.68186e-06
1.50408e-09
-2.68134e-06
-5.2734e-10
-2.67899e-06
-2.35927e-09
-2.67496e-06
-4.03263e-09
-2.6693e-06
-5.67509e-09
-2.662e-06
-7.31147e-09
-2.65306e-06
-8.95157e-09
-2.64247e-06
-1.05971e-08
-2.63023e-06
-1.22466e-08
-2.61634e-06
-1.38993e-08
-2.60079e-06
-1.55524e-08
-2.58359e-06
-1.72049e-08
-2.56474e-06
-1.88538e-08
-2.54425e-06
-2.04979e-08
-2.52211e-06
-2.21342e-08
-2.49835e-06
-2.37617e-08
-2.47298e-06
-2.53771e-08
-2.446e-06
-2.69795e-08
-2.41743e-06
-2.85657e-08
-2.3873e-06
-3.0135e-08
-2.35561e-06
-3.16847e-08
-2.32241e-06
-3.32133e-08
-2.28769e-06
-3.47177e-08
-2.2515e-06
-3.61962e-08
-2.21386e-06
-3.76455e-08
-2.1748e-06
-3.90644e-08
-2.13434e-06
-4.04501e-08
-2.09254e-06
-4.1802e-08
-2.04942e-06
-4.31178e-08
-2.00501e-06
-4.43978e-08
-1.95936e-06
-4.564e-08
-1.91251e-06
-4.68439e-08
-1.86449e-06
-4.8007e-08
-1.81534e-06
-4.91311e-08
-1.76512e-06
-5.02093e-08
-1.71386e-06
-5.12359e-08
-1.66163e-06
-5.22164e-08
-1.60846e-06
-5.31533e-08
-1.5544e-06
-5.4041e-08
-1.4995e-06
-5.48769e-08
-1.44383e-06
-5.56606e-08
-1.38743e-06
-5.63921e-08
-1.33034e-06
-5.70709e-08
-1.27264e-06
-5.76965e-08
-1.21437e-06
-5.82689e-08
-1.15557e-06
-5.87879e-08
-1.09632e-06
-5.92539e-08
-1.03665e-06
-5.96668e-08
-9.76627e-07
-6.00273e-08
-9.16296e-07
-6.03358e-08
-8.55709e-07
-6.05934e-08
-7.94917e-07
-6.08009e-08
-7.33968e-07
-6.09597e-08
-6.7291e-07
-6.10709e-08
-6.11788e-07
-6.11363e-08
-5.50648e-07
-6.11571e-08
-4.8953e-07
-6.11355e-08
-4.28477e-07
-6.10728e-08
-3.67527e-07
-6.09708e-08
-3.06719e-07
-6.08301e-08
-2.4609e-07
-6.06523e-08
-1.85678e-07
-6.04359e-08
-1.25514e-07
-6.01878e-08
-6.56228e-08
-5.99162e-08
-6.10273e-09
-5.95449e-08
5.30782e-08
-5.92057e-08
1.1192e-07
-5.88654e-08
1.70299e-07
-5.84021e-08
2.28211e-07
-5.7934e-08
2.85657e-07
-5.74676e-08
3.42625e-07
-5.69883e-08
3.99075e-07
-5.64703e-08
4.54928e-07
-5.58721e-08
5.10031e-07
-5.51222e-08
5.64099e-07
-5.40858e-08
6.1656e-07
-5.24773e-08
6.66212e-07
-4.96671e-08
7.10076e-07
-4.38783e-08
7.41173e-07
-3.1109e-08
1.11155e-08
7.30047e-07
1.14404e-08
-1.7356e-08
2.33322e-08
-2.38083e-08
3.19372e-08
-2.23951e-08
3.74372e-08
-1.87995e-08
4.04044e-08
-1.44219e-08
4.12211e-08
-9.76388e-09
4.0113e-08
-5.11364e-09
3.72385e-08
-6.57227e-10
3.2727e-08
3.49287e-09
2.66601e-08
7.27601e-09
1.90451e-08
1.06728e-08
9.85934e-09
1.3707e-08
-9.1636e-10
1.64498e-08
-1.3301e-08
1.90074e-08
-2.73251e-08
2.14962e-08
-4.30337e-08
2.40227e-08
-6.04961e-08
2.66729e-08
-7.98014e-08
2.95038e-08
-1.01067e-07
3.2545e-08
-1.24402e-07
3.5813e-08
-1.49824e-07
3.93211e-08
-1.7736e-07
4.30612e-08
-2.07082e-07
4.70047e-08
-2.38996e-07
5.1112e-08
-2.73055e-07
5.53257e-08
-3.09159e-07
5.95734e-08
-3.47159e-07
6.37727e-08
-3.86861e-07
6.7839e-08
-4.28045e-07
7.16954e-08
-4.70482e-07
7.52815e-08
-5.13953e-07
7.85468e-08
-5.58237e-07
8.14478e-08
-6.03118e-07
8.39562e-08
-6.48388e-07
8.60602e-08
-6.93859e-07
8.77621e-08
-7.39366e-07
8.90721e-08
-7.84766e-07
9.00127e-08
-8.29945e-07
9.06177e-08
-8.74814e-07
9.0926e-08
-9.19308e-07
9.09783e-08
-9.63385e-07
9.08159e-08
-1.00702e-06
9.04783e-08
-1.0502e-06
9.0003e-08
-1.09294e-06
8.94242e-08
-1.13524e-06
8.87734e-08
-1.17713e-06
8.80804e-08
-1.21864e-06
8.7374e-08
-1.25976e-06
8.66771e-08
-1.3005e-06
8.60007e-08
-1.34087e-06
8.53462e-08
-1.38088e-06
8.47125e-08
-1.42054e-06
8.40976e-08
-1.45984e-06
8.34983e-08
-1.49881e-06
8.29108e-08
-1.53744e-06
8.23306e-08
-1.57573e-06
8.17528e-08
-1.61368e-06
8.11725e-08
-1.65129e-06
8.05841e-08
-1.68854e-06
7.99822e-08
-1.72543e-06
7.93613e-08
-1.76194e-06
7.87157e-08
-1.79805e-06
7.80401e-08
-1.83375e-06
7.73291e-08
-1.86902e-06
7.65775e-08
-1.90383e-06
7.57805e-08
-1.93816e-06
7.49334e-08
-1.97199e-06
7.40319e-08
-2.00528e-06
7.3072e-08
-2.03801e-06
7.20498e-08
-2.07014e-06
7.09622e-08
-2.10164e-06
6.98059e-08
-2.13249e-06
6.85781e-08
-2.16264e-06
6.72766e-08
-2.19207e-06
6.58992e-08
-2.22073e-06
6.44441e-08
-2.2486e-06
6.29099e-08
-2.27563e-06
6.12956e-08
-2.30179e-06
5.96003e-08
-2.32705e-06
5.78236e-08
-2.35136e-06
5.59651e-08
-2.3747e-06
5.40249e-08
-2.39702e-06
5.20032e-08
-2.4183e-06
4.99005e-08
-2.43848e-06
4.77173e-08
-2.45755e-06
4.54546e-08
-2.47547e-06
4.31133e-08
-2.4922e-06
4.06948e-08
-2.5077e-06
3.82001e-08
-2.52195e-06
3.56304e-08
-2.53492e-06
3.29864e-08
-2.54657e-06
3.02692e-08
-2.55688e-06
2.74794e-08
-2.56582e-06
2.46178e-08
-2.57337e-06
2.16849e-08
-2.5795e-06
1.86814e-08
-2.5842e-06
1.56085e-08
-2.58748e-06
1.24682e-08
-2.58932e-06
9.26395e-09
-2.58978e-06
6.0044e-09
-2.58893e-06
2.71477e-09
-2.58688e-06
-5.57964e-10
-2.58363e-06
-3.77945e-09
-2.57902e-06
-6.97567e-09
-2.57288e-06
-1.01831e-08
-2.56515e-06
-1.3405e-08
-2.55583e-06
-1.6641e-08
-2.5449e-06
-1.98915e-08
-2.53235e-06
-2.31545e-08
-2.51817e-06
-2.64268e-08
-2.50237e-06
-2.9705e-08
-2.48494e-06
-3.29848e-08
-2.46589e-06
-3.62626e-08
-2.44521e-06
-3.95339e-08
-2.42291e-06
-4.27949e-08
-2.39901e-06
-4.60412e-08
-2.3735e-06
-4.92689e-08
-2.34641e-06
-5.24737e-08
-2.31774e-06
-5.56515e-08
-2.2875e-06
-5.87984e-08
-2.25573e-06
-6.19106e-08
-2.22243e-06
-6.49842e-08
-2.18763e-06
-6.80152e-08
-2.15135e-06
-7.09988e-08
-2.11362e-06
-7.39305e-08
-2.07446e-06
-7.68056e-08
-2.03391e-06
-7.96202e-08
-1.99199e-06
-8.237e-08
-1.94874e-06
-8.5052e-08
-1.90419e-06
-8.76627e-08
-1.85838e-06
-9.02001e-08
-1.81135e-06
-9.26621e-08
-1.76314e-06
-9.50474e-08
-1.71379e-06
-9.73536e-08
-1.66333e-06
-9.95794e-08
-1.61182e-06
-1.01714e-07
-1.5593e-06
-1.03749e-07
-1.50581e-06
-1.05692e-07
-1.45141e-06
-1.07546e-07
-1.39614e-06
-1.09301e-07
-1.34005e-06
-1.10953e-07
-1.2832e-06
-1.12501e-07
-1.22564e-06
-1.13945e-07
-1.16743e-06
-1.15283e-07
-1.1086e-06
-1.16516e-07
-1.04923e-06
-1.17641e-07
-9.89354e-07
-1.1866e-07
-9.29034e-07
-1.19572e-07
-8.68323e-07
-1.20379e-07
-8.07272e-07
-1.2108e-07
-7.45933e-07
-1.21677e-07
-6.84358e-07
-1.22172e-07
-6.22597e-07
-1.22567e-07
-5.60699e-07
-1.22864e-07
-4.98712e-07
-1.23066e-07
-4.36681e-07
-1.23175e-07
-3.74651e-07
-1.23196e-07
-3.12665e-07
-1.23131e-07
-2.50763e-07
-1.22985e-07
-1.88984e-07
-1.22761e-07
-1.27365e-07
-1.2246e-07
-6.59411e-08
-1.22088e-07
-4.74127e-09
-1.21648e-07
5.62124e-08
-1.21153e-07
1.16887e-07
-1.20603e-07
1.773e-07
-1.1997e-07
2.37348e-07
-1.19266e-07
2.96943e-07
-1.18472e-07
3.56133e-07
-1.17604e-07
4.14911e-07
-1.16723e-07
4.73261e-07
-1.15829e-07
5.31158e-07
-1.14896e-07
5.88554e-07
-1.13878e-07
6.45365e-07
-1.12693e-07
7.01436e-07
-1.11204e-07
7.5649e-07
-1.0915e-07
8.1003e-07
-1.06027e-07
8.6106e-07
-1.00706e-07
9.08037e-07
-9.08633e-08
9.47498e-07
-7.05767e-08
-2.18585e-08
9.80465e-07
9.20897e-09
-2.65675e-08
1.50141e-08
-2.96163e-08
1.70636e-08
-2.44467e-08
1.63744e-08
-1.81118e-08
1.36195e-08
-1.16684e-08
9.18806e-09
-5.3337e-09
3.27834e-09
7.94738e-10
-4.02808e-09
6.64803e-09
-1.27194e-08
1.21829e-08
-2.28302e-08
1.73856e-08
-3.44291e-08
2.22703e-08
-4.76037e-08
2.68805e-08
-6.24438e-08
3.12886e-08
-7.90263e-08
3.55887e-08
-9.74132e-08
3.98817e-08
-1.17652e-07
4.42603e-08
-1.39778e-07
4.87975e-08
-1.63816e-07
5.35402e-08
-1.89779e-07
5.8507e-08
-2.17658e-07
6.36902e-08
-2.47399e-07
6.90614e-08
-2.78914e-07
7.45746e-08
-3.12077e-07
8.0167e-08
-3.46729e-07
8.57619e-08
-3.82677e-07
9.12726e-08
-4.19713e-07
9.66084e-08
-4.57624e-07
1.01682e-07
-4.96201e-07
1.06415e-07
-5.35253e-07
1.10746e-07
-5.74599e-07
1.14626e-07
-6.14077e-07
1.18024e-07
-6.53553e-07
1.20922e-07
-6.92916e-07
1.23317e-07
-7.32076e-07
1.25219e-07
-7.70966e-07
1.26651e-07
-8.09548e-07
1.27653e-07
-8.47808e-07
1.28271e-07
-8.85744e-07
1.28552e-07
-9.23362e-07
1.28542e-07
-9.60675e-07
1.2829e-07
-9.97699e-07
1.27839e-07
-1.03445e-06
1.27233e-07
-1.07096e-06
1.2651e-07
-1.10724e-06
1.25704e-07
-1.14331e-06
1.24844e-07
-1.17919e-06
1.23956e-07
-1.21488e-06
1.23061e-07
-1.25038e-06
1.22175e-07
-1.28568e-06
1.21305e-07
-1.32079e-06
1.20455e-07
-1.35571e-06
1.19625e-07
-1.39042e-06
1.18811e-07
-1.42493e-06
1.1801e-07
-1.45924e-06
1.17217e-07
-1.49334e-06
1.16425e-07
-1.52722e-06
1.15629e-07
-1.56087e-06
1.14822e-07
-1.59428e-06
1.13995e-07
-1.62744e-06
1.13142e-07
-1.66034e-06
1.12255e-07
-1.69295e-06
1.11327e-07
-1.72526e-06
1.1035e-07
-1.75725e-06
1.09318e-07
-1.7889e-06
1.08224e-07
-1.82018e-06
1.0706e-07
-1.85107e-06
1.05821e-07
-1.88154e-06
1.04501e-07
-1.91157e-06
1.03095e-07
-1.94112e-06
1.01598e-07
-1.97016e-06
1.00004e-07
-1.99867e-06
9.83103e-08
-2.0266e-06
9.65126e-08
-2.05393e-06
9.46077e-08
-2.08063e-06
9.25928e-08
-2.10665e-06
9.04653e-08
-2.13197e-06
8.82235e-08
-2.15654e-06
8.58658e-08
-2.18033e-06
8.3391e-08
-2.20331e-06
8.07985e-08
-2.22543e-06
7.80879e-08
-2.24667e-06
7.52593e-08
-2.26698e-06
7.23129e-08
-2.28633e-06
6.92496e-08
-2.30469e-06
6.60702e-08
-2.32201e-06
6.27763e-08
-2.33827e-06
5.93693e-08
-2.35342e-06
5.58512e-08
-2.36745e-06
5.2224e-08
-2.38031e-06
4.84899e-08
-2.39197e-06
4.46512e-08
-2.40241e-06
4.07101e-08
-2.4116e-06
3.66696e-08
-2.41952e-06
3.25327e-08
-2.42614e-06
2.83032e-08
-2.43145e-06
2.39856e-08
-2.43542e-06
1.95859e-08
-2.43807e-06
1.51117e-08
-2.43938e-06
1.05728e-08
-2.43936e-06
5.98321e-09
-2.43802e-06
1.36375e-09
-2.43531e-06
-3.26421e-09
-2.4312e-06
-7.89933e-09
-2.42561e-06
-1.25658e-08
-2.41852e-06
-1.72771e-08
-2.40991e-06
-2.20268e-08
-2.39974e-06
-2.68084e-08
-2.38802e-06
-3.16164e-08
-2.37474e-06
-3.64451e-08
-2.35988e-06
-4.12889e-08
-2.34345e-06
-4.61417e-08
-2.32544e-06
-5.09978e-08
-2.30585e-06
-5.58509e-08
-2.28469e-06
-6.06949e-08
-2.26196e-06
-6.55235e-08
-2.23767e-06
-7.0331e-08
-2.21183e-06
-7.51108e-08
-2.18445e-06
-7.98571e-08
-2.15554e-06
-8.45636e-08
-2.12511e-06
-8.92245e-08
-2.09319e-06
-9.3834e-08
-2.05979e-06
-9.83865e-08
-2.02493e-06
-1.02876e-07
-1.98864e-06
-1.07295e-07
-1.95093e-06
-1.11638e-07
-1.91184e-06
-1.15897e-07
-1.87139e-06
-1.20068e-07
-1.82962e-06
-1.24143e-07
-1.78655e-06
-1.28118e-07
-1.74223e-06
-1.31987e-07
-1.69668e-06
-1.35747e-07
-1.64994e-06
-1.39394e-07
-1.60206e-06
-1.42926e-07
-1.55307e-06
-1.46342e-07
-1.503e-06
-1.49635e-07
-1.45192e-06
-1.52796e-07
-1.39985e-06
-1.55812e-07
-1.34684e-06
-1.5869e-07
-1.29295e-06
-1.61431e-07
-1.23822e-06
-1.64027e-07
-1.18269e-06
-1.6647e-07
-1.12643e-06
-1.68758e-07
-1.06948e-06
-1.70891e-07
-1.0119e-06
-1.72866e-07
-9.53725e-07
-1.74683e-07
-8.95023e-07
-1.76341e-07
-8.35841e-07
-1.7784e-07
-7.76233e-07
-1.7918e-07
-7.1625e-07
-1.80362e-07
-6.55944e-07
-1.81386e-07
-5.95366e-07
-1.82255e-07
-5.34568e-07
-1.82972e-07
-4.73598e-07
-1.83539e-07
-4.12504e-07
-1.8396e-07
-3.51333e-07
-1.84239e-07
-2.90131e-07
-1.8438e-07
-2.28942e-07
-1.84389e-07
-1.67805e-07
-1.84271e-07
-1.06763e-07
-1.84032e-07
-4.58488e-08
-1.83678e-07
1.49031e-08
-1.83216e-07
7.54587e-08
-1.82647e-07
1.35786e-07
-1.81979e-07
1.95852e-07
-1.81223e-07
2.5563e-07
-1.80384e-07
3.15118e-07
-1.79462e-07
3.7429e-07
-1.78441e-07
4.3312e-07
-1.77305e-07
4.916e-07
-1.76088e-07
5.49706e-07
-1.74832e-07
6.07412e-07
-1.73538e-07
6.64685e-07
-1.72172e-07
7.21474e-07
-1.7067e-07
7.77695e-07
-1.68917e-07
8.33206e-07
-1.66718e-07
8.87769e-07
-1.63716e-07
9.40983e-07
-1.59244e-07
9.92221e-07
-1.51947e-07
1.04064e-06
-1.39282e-07
1.0857e-06
-1.15646e-07
-6.80957e-08
1.13194e-06
3.62213e-09
-3.01919e-08
2.51336e-09
-2.851e-08
-1.21536e-09
-2.07196e-08
-6.71075e-09
-1.26176e-08
-1.36297e-08
-4.7506e-09
-2.18072e-08
2.84289e-09
-3.11796e-08
1.01662e-08
-4.17498e-08
1.72173e-08
-5.35652e-08
2.39972e-08
-6.66994e-08
3.05189e-08
-8.12417e-08
3.68116e-08
-9.72846e-08
4.29225e-08
-1.14912e-07
4.89151e-08
-1.34187e-07
5.4863e-08
-1.55146e-07
6.08399e-08
-1.77796e-07
6.69088e-08
-2.02112e-07
7.3113e-08
-2.28044e-07
7.94706e-08
-2.5551e-07
8.59721e-08
-2.84403e-07
9.25825e-08
-3.14587e-07
9.92446e-08
-3.459e-07
1.05886e-07
-3.7816e-07
1.12426e-07
-4.11176e-07
1.18777e-07
-4.44757e-07
1.24852e-07
-4.78721e-07
1.30572e-07
-5.12907e-07
1.35866e-07
-5.47174e-07
1.40682e-07
-5.81408e-07
1.44978e-07
-6.15516e-07
1.48733e-07
-6.49428e-07
1.51935e-07
-6.83099e-07
1.54591e-07
-7.16503e-07
1.5672e-07
-7.49637e-07
1.58352e-07
-7.82517e-07
1.59529e-07
-8.15163e-07
1.60298e-07
-8.47601e-07
1.60708e-07
-8.79857e-07
1.60807e-07
-9.1196e-07
1.60644e-07
-9.43937e-07
1.60265e-07
-9.75809e-07
1.5971e-07
-1.0076e-06
1.5902e-07
-1.03932e-06
1.58228e-07
-1.07098e-06
1.57365e-07
-1.10259e-06
1.56455e-07
-1.13415e-06
1.55518e-07
-1.16567e-06
1.54572e-07
-1.19712e-06
1.53627e-07
-1.22851e-06
1.52691e-07
-1.25982e-06
1.51767e-07
-1.29105e-06
1.50853e-07
-1.32219e-06
1.49947e-07
-1.35322e-06
1.49044e-07
-1.38414e-06
1.48139e-07
-1.41494e-06
1.47225e-07
-1.44561e-06
1.46294e-07
-1.47613e-06
1.45337e-07
-1.50648e-06
1.44347e-07
-1.53666e-06
1.43315e-07
-1.56663e-06
1.42231e-07
-1.59639e-06
1.41087e-07
-1.62592e-06
1.39874e-07
-1.65519e-06
1.38584e-07
-1.68417e-06
1.37207e-07
-1.71285e-06
1.35737e-07
-1.7412e-06
1.34166e-07
-1.76918e-06
1.32487e-07
-1.79678e-06
1.30692e-07
-1.82396e-06
1.28776e-07
-1.85069e-06
1.26733e-07
-1.87694e-06
1.24558e-07
-1.90268e-06
1.22247e-07
-1.92786e-06
1.19794e-07
-1.95247e-06
1.17197e-07
-1.97646e-06
1.14453e-07
-1.99979e-06
1.11559e-07
-2.02244e-06
1.08513e-07
-2.04437e-06
1.05314e-07
-2.06553e-06
1.01961e-07
-2.0859e-06
9.84537e-08
-2.10543e-06
9.4792e-08
-2.1241e-06
9.09765e-08
-2.14186e-06
8.70083e-08
-2.15868e-06
8.28887e-08
-2.17452e-06
7.86197e-08
-2.18936e-06
7.42035e-08
-2.20315e-06
6.96427e-08
-2.21587e-06
6.49406e-08
-2.22748e-06
6.01002e-08
-2.23795e-06
5.51252e-08
-2.24726e-06
5.00197e-08
-2.25538e-06
4.47881e-08
-2.26228e-06
3.94356e-08
-2.26795e-06
3.39682e-08
-2.27236e-06
2.8393e-08
-2.27549e-06
2.2718e-08
-2.27734e-06
1.69528e-08
-2.27787e-06
1.11082e-08
-2.27709e-06
5.19707e-09
-2.27496e-06
-7.671e-10
-2.27145e-06
-6.77494e-09
-2.26653e-06
-1.28293e-08
-2.26016e-06
-1.89419e-08
-2.25232e-06
-2.51157e-08
-2.24301e-06
-3.13439e-08
-2.2322e-06
-3.76172e-08
-2.2199e-06
-4.39278e-08
-2.20608e-06