/*--------------------------------*- C++ -*----------------------------------*\
| =========                 |                                                 |
| \\      /  F ield         | OpenFOAM: The Open Source CFD Toolbox           |
|  \\    /   O peration     | Version:  2312                                  |
|   \\  /    A nd           | Website:  www.openfoam.com                      |
|    \\/     M anipulation  |                                                 |
\*---------------------------------------------------------------------------*/
FoamFile
{
    version     2.0;
    format      ascii;
    arch        "LSB;label=32;scalar=64";
    class       volVectorField;
    location    "2.625";
    object      diffU;
}
// * * * * * * * * * * * * * * * * * * * * * * * * * * * * * * * * * * * * * //

dimensions      [0 1 -1 0 0 0 0];

internalField   nonuniform List<vector> 
400
(
(0 0 0)
(9.09706e-05 -1.08021e-05 0)
(6.68859e-05 -8.01528e-06 0)
(7.57092e-05 -8.45521e-06 0)
(7.41597e-05 -8.10844e-06 0)
(7.5012e-05 -7.98184e-06 0)
(7.48528e-05 -7.90385e-06 0)
(7.48458e-05 -7.89922e-06 0)
(7.48332e-05 -7.92859e-06 0)
(7.49118e-05 -7.95548e-06 0)
(7.50221e-05 -7.95978e-06 0)
(7.51135e-05 -7.94454e-06 0)
(7.51605e-05 -7.9259e-06 0)
(7.51763e-05 -7.91602e-06 0)
(7.51848e-05 -7.91467e-06 0)
(7.5196e-05 -7.91503e-06 0)
(7.5206e-05 -7.91349e-06 0)
(7.52109e-05 -7.91137e-06 0)
(7.52124e-05 -7.91023e-06 0)
(7.52129e-05 -7.90978e-06 0)
(-1.24596e-05 2.4853e-06 0)
(9.38107e-05 -1.50538e-05 0)
(6.57996e-05 -8.59599e-06 0)
(7.59917e-05 -9.64642e-06 0)
(7.41524e-05 -8.49707e-06 0)
(7.50817e-05 -8.1248e-06 0)
(7.48783e-05 -7.8749e-06 0)
(7.486e-05 -7.87173e-06 0)
(7.48415e-05 -7.96669e-06 0)
(7.4923e-05 -8.05063e-06 0)
(7.50363e-05 -8.0615e-06 0)
(7.51271e-05 -8.01273e-06 0)
(7.51701e-05 -7.95594e-06 0)
(7.51816e-05 -7.92729e-06 0)
(7.51876e-05 -7.9241e-06 0)
(7.51979e-05 -7.92531e-06 0)
(7.52073e-05 -7.92064e-06 0)
(7.52115e-05 -7.91436e-06 0)
(7.52126e-05 -7.91112e-06 0)
(7.52129e-05 -7.90984e-06 0)
(-1.78165e-05 1.70219e-05 0)
(9.43408e-05 -2.24965e-05 0)
(6.53074e-05 -8.78589e-06 0)
(7.60267e-05 -1.11049e-05 0)
(7.4315e-05 -8.86997e-06 0)
(7.52642e-05 -8.25162e-06 0)
(7.50189e-05 -7.81301e-06 0)
(7.49328e-05 -7.82478e-06 0)
(7.48706e-05 -7.99822e-06 0)
(7.49391e-05 -8.14654e-06 0)
(7.50586e-05 -8.16364e-06 0)
(7.51544e-05 -8.07725e-06 0)
(7.51925e-05 -7.97951e-06 0)
(7.51942e-05 -7.93297e-06 0)
(7.51933e-05 -7.93068e-06 0)
(7.52012e-05 -7.93444e-06 0)
(7.52097e-05 -7.92685e-06 0)
(7.52128e-05 -7.91646e-06 0)
(7.52129e-05 -7.91153e-06 0)
(7.52129e-05 -7.90983e-06 0)
(-2.5038e-05 3.12295e-05 0)
(9.44384e-05 -3.25338e-05 0)
(6.47064e-05 -9.36745e-06 0)
(7.60019e-05 -1.30892e-05 0)
(7.45313e-05 -9.34184e-06 0)
(7.54844e-05 -8.36561e-06 0)
(7.52211e-05 -7.65863e-06 0)
(7.50626e-05 -7.68838e-06 0)
(7.4944e-05 -7.97932e-06 0)
(7.49796e-05 -8.23325e-06 0)
(7.5091e-05 -8.27436e-06 0)
(7.5187e-05 -8.1453e-06 0)
(7.5221e-05 -7.99566e-06 0)
(7.52127e-05 -7.92792e-06 0)
(7.52026e-05 -7.93078e-06 0)
(7.52061e-05 -7.94149e-06 0)
(7.5213e-05 -7.93207e-06 0)
(7.52146e-05 -7.9173e-06 0)
(7.52133e-05 -7.9111e-06 0)
(7.52129e-05 -7.90969e-06 0)
(1.66854e-05 3.48733e-05 0)
(8.49479e-05 -4.3803e-05 0)
(6.91903e-05 -9.84887e-06 0)
(7.54493e-05 -1.52574e-05 0)
(7.49171e-05 -9.77244e-06 0)
(7.54115e-05 -8.4807e-06 0)
(7.52901e-05 -7.46795e-06 0)
(7.51727e-05 -7.50488e-06 0)
(7.50896e-05 -7.91589e-06 0)
(7.51004e-05 -8.29204e-06 0)
(7.51645e-05 -8.37301e-06 0)
(7.52212e-05 -8.20743e-06 0)
(7.52385e-05 -8.00439e-06 0)
(7.52283e-05 -7.91389e-06 0)
(7.52171e-05 -7.92372e-06 0)
(7.52154e-05 -7.9446e-06 0)
(7.52169e-05 -7.93523e-06 0)
(7.52159e-05 -7.91668e-06 0)
(7.52138e-05 -7.90975e-06 0)
(7.52129e-05 -7.90934e-06 0)
(0.000145926 2.62134e-05 0)
(6.00575e-05 -4.46962e-05 0)
(8.21873e-05 -1.02009e-05 0)
(7.39802e-05 -1.56257e-05 0)
(7.54111e-05 -9.89609e-06 0)
(7.47582e-05 -8.53764e-06 0)
(7.50312e-05 -7.46181e-06 0)
(7.51785e-05 -7.48548e-06 0)
(7.53173e-05 -7.90971e-06 0)
(7.53432e-05 -8.30406e-06 0)
(7.5305e-05 -8.39076e-06 0)
(7.52562e-05 -8.21703e-06 0)
(7.52335e-05 -8.00247e-06 0)
(7.52333e-05 -7.90675e-06 0)
(7.52356e-05 -7.91796e-06 0)
(7.52302e-05 -7.94133e-06 0)
(7.52218e-05 -7.93254e-06 0)
(7.52165e-05 -7.91404e-06 0)
(7.52142e-05 -7.90799e-06 0)
(7.52131e-05 -7.90875e-06 0)
(0.000235442 2.78491e-05 0)
(4.26108e-05 -3.15104e-05 0)
(9.11403e-05 -9.45382e-06 0)
(7.29674e-05 -1.29113e-05 0)
(7.58962e-05 -9.38384e-06 0)
(7.44507e-05 -8.4508e-06 0)
(7.49817e-05 -7.78656e-06 0)
(7.52631e-05 -7.80876e-06 0)
(7.55108e-05 -8.07055e-06 0)
(7.55223e-05 -8.28439e-06 0)
(7.54083e-05 -8.28951e-06 0)
(7.52908e-05 -8.13847e-06 0)
(7.52428e-05 -7.98205e-06 0)
(7.52469e-05 -7.91561e-06 0)
(7.52537e-05 -7.92012e-06 0)
(7.52426e-05 -7.93072e-06 0)
(7.52263e-05 -7.92158e-06 0)
(7.52175e-05 -7.90906e-06 0)
(7.52147e-05 -7.90622e-06 0)
(7.52132e-05 -7.9079e-06 0)
(0.000193532 1.67404e-05 0)
(4.77822e-05 -1.77556e-05 0)
(8.70235e-05 -8.98354e-06 0)
(7.29138e-05 -1.03621e-05 0)
(7.5851e-05 -8.99539e-06 0)
(7.47756e-05 -8.45831e-06 0)
(7.53138e-05 -8.13048e-06 0)
(7.55032e-05 -8.09338e-06 0)
(7.56371e-05 -8.16523e-06 0)
(7.55756e-05 -8.20642e-06 0)
(7.54413e-05 -8.15608e-06 0)
(7.53281e-05 -8.04938e-06 0)
(7.52805e-05 -7.95776e-06 0)
(7.52735e-05 -7.91817e-06 0)
(7.52668e-05 -7.91425e-06 0)
(7.52483e-05 -7.9141e-06 0)
(7.52298e-05 -7.90754e-06 0)
(7.52197e-05 -7.90251e-06 0)
(7.52154e-05 -7.9035e-06 0)
(7.52132e-05 -7.90678e-06 0)
(0.000174247 -4.03509e-07 0)
(5.10778e-05 -1.15301e-05 0)
(8.50761e-05 -8.99281e-06 0)
(7.32226e-05 -9.36831e-06 0)
(7.61532e-05 -8.92301e-06 0)
(7.52182e-05 -8.55684e-06 0)
(7.56316e-05 -8.30859e-06 0)
(7.56668e-05 -8.1783e-06 0)
(7.56876e-05 -8.12934e-06 0)
(7.55863e-05 -8.09618e-06 0)
(7.54632e-05 -8.04537e-06 0)
(7.53689e-05 -7.98125e-06 0)
(7.53208e-05 -7.92831e-06 0)
(7.52974e-05 -7.90151e-06 0)
(7.5276e-05 -7.89472e-06 0)
(7.52522e-05 -7.89393e-06 0)
(7.5233e-05 -7.8932e-06 0)
(7.52216e-05 -7.89462e-06 0)
(7.52158e-05 -7.89948e-06 0)
(7.52132e-05 -7.90549e-06 0)
(0.000168348 -3.11284e-06 0)
(5.15333e-05 -8.20042e-06 0)
(8.44996e-05 -8.84192e-06 0)
(7.31891e-05 -8.64282e-06 0)
(7.62436e-05 -8.85156e-06 0)
(7.53793e-05 -8.60905e-06 0)
(7.57873e-05 -8.41985e-06 0)
(7.5783e-05 -8.2156e-06 0)
(7.57664e-05 -8.0719e-06 0)
(7.5641e-05 -7.98191e-06 0)
(7.55054e-05 -7.9323e-06 0)
(7.54018e-05 -7.90401e-06 0)
(7.53435e-05 -7.88573e-06 0)
(7.53104e-05 -7.87416e-06 0)
(7.52825e-05 -7.86956e-06 0)
(7.52558e-05 -7.87132e-06 0)
(7.52351e-05 -7.87724e-06 0)
(7.52227e-05 -7.88538e-06 0)
(7.5216e-05 -7.89478e-06 0)
(7.52131e-05 -7.90413e-06 0)
(0.000172838 -7.18903e-06 0)
(5.0091e-05 -5.29369e-06 0)
(8.50147e-05 -9.07745e-06 0)
(7.31527e-05 -8.23216e-06 0)
(7.64504e-05 -8.9304e-06 0)
(7.55345e-05 -8.69212e-06 0)
(7.59401e-05 -8.48861e-06 0)
(7.58936e-05 -8.19047e-06 0)
(7.58392e-05 -7.9644e-06 0)
(7.56838e-05 -7.84066e-06 0)
(7.55314e-05 -7.80935e-06 0)
(7.54193e-05 -7.82233e-06 0)
(7.53555e-05 -7.83728e-06 0)
(7.53176e-05 -7.84016e-06 0)
(7.52859e-05 -7.83988e-06 0)
(7.52569e-05 -7.84673e-06 0)
(7.52355e-05 -7.86045e-06 0)
(7.52228e-05 -7.8756e-06 0)
(7.5216e-05 -7.88979e-06 0)
(7.52131e-05 -7.90275e-06 0)
(0.000187676 -8.54355e-06 0)
(4.66808e-05 -2.4912e-06 0)
(8.65664e-05 -9.08712e-06 0)
(7.29951e-05 -7.70883e-06 0)
(7.66729e-05 -8.97229e-06 0)
(7.561e-05 -8.78069e-06 0)
(7.6052e-05 -8.5771e-06 0)
(7.59929e-05 -8.17453e-06 0)
(7.59203e-05 -7.84692e-06 0)
(7.57315e-05 -7.67672e-06 0)
(7.55489e-05 -7.66325e-06 0)
(7.54195e-05 -7.72579e-06 0)
(7.53513e-05 -7.78277e-06 0)
(7.53146e-05 -7.8045e-06 0)
(7.52839e-05 -7.80942e-06 0)
(7.52549e-05 -7.8216e-06 0)
(7.52337e-05 -7.84367e-06 0)
(7.52218e-05 -7.8661e-06 0)
(7.52157e-05 -7.88502e-06 0)
(7.52131e-05 -7.90146e-06 0)
(0.00021565 -1.86215e-05 0)
(4.0773e-05 2.09841e-06 0)
(8.96724e-05 -9.48142e-06 0)
(7.27589e-05 -7.03639e-06 0)
(7.69809e-05 -8.99304e-06 0)
(7.56008e-05 -8.84688e-06 0)
(7.61111e-05 -8.63954e-06 0)
(7.60682e-05 -8.11102e-06 0)
(7.60009e-05 -7.671e-06 0)
(7.57773e-05 -7.46242e-06 0)
(7.55517e-05 -7.48878e-06 0)
(7.5396e-05 -7.62322e-06 0)
(7.53254e-05 -7.73358e-06 0)
(7.52982e-05 -7.77469e-06 0)
(7.52754e-05 -7.78146e-06 0)
(7.52493e-05 -7.79726e-06 0)
(7.52296e-05 -7.82793e-06 0)
(7.52196e-05 -7.85791e-06 0)
(7.52151e-05 -7.88105e-06 0)
(7.5213e-05 -7.90037e-06 0)
(0.00026619 -2.1894e-05 0)
(3.14868e-05 7.1176e-06 0)
(9.55159e-05 -8.55155e-06 0)
(7.26907e-05 -5.4932e-06 0)
(7.75117e-05 -8.54851e-06 0)
(7.55004e-05 -8.74798e-06 0)
(7.6069e-05 -8.70247e-06 0)
(7.60574e-05 -8.09619e-06 0)
(7.60261e-05 -7.52112e-06 0)
(7.57843e-05 -7.23911e-06 0)
(7.55205e-05 -7.29309e-06 0)
(7.5343e-05 -7.50931e-06 0)
(7.52786e-05 -7.68838e-06 0)
(7.527e-05 -7.75491e-06 0)
(7.52609e-05 -7.76053e-06 0)
(7.52401e-05 -7.77615e-06 0)
(7.52228e-05 -7.81457e-06 0)
(7.5216e-05 -7.8521e-06 0)
(7.52142e-05 -7.87855e-06 0)
(7.5213e-05 -7.89965e-06 0)
(0.000347141 -4.66177e-05 0)
(1.68425e-05 1.98238e-05 0)
(0.000104269 -7.76994e-06 0)
(7.19345e-05 -2.71204e-06 0)
(7.7725e-05 -7.75859e-06 0)
(7.48949e-05 -8.5789e-06 0)
(7.57307e-05 -8.89055e-06 0)
(7.59285e-05 -8.20334e-06 0)
(7.6055e-05 -7.40573e-06 0)
(7.58167e-05 -6.97558e-06 0)
(7.5484e-05 -7.04352e-06 0)
(7.52557e-05 -7.37403e-06 0)
(7.5196e-05 -7.65616e-06 0)
(7.5223e-05 -7.75738e-06 0)
(7.5241e-05 -7.75349e-06 0)
(7.52282e-05 -7.76069e-06 0)
(7.52131e-05 -7.80487e-06 0)
(7.52108e-05 -7.84981e-06 0)
(7.5213e-05 -7.87816e-06 0)
(7.5213e-05 -7.89939e-06 0)
(0.000478216 -5.01192e-05 0)
(-6.02568e-06 3.44016e-05 0)
(0.00011661 -3.7493e-06 0)
(7.04559e-05 2.4546e-06 0)
(7.73896e-05 -5.94644e-06 0)
(7.35491e-05 -8.18667e-06 0)
(7.49668e-05 -9.25331e-06 0)
(7.56828e-05 -8.48493e-06 0)
(7.61327e-05 -7.33174e-06 0)
(7.58953e-05 -6.64681e-06 0)
(7.54171e-05 -6.7243e-06 0)
(7.50905e-05 -7.23181e-06 0)
(7.50517e-05 -7.66837e-06 0)
(7.51555e-05 -7.80725e-06 0)
(7.52235e-05 -7.7683e-06 0)
(7.52189e-05 -7.74894e-06 0)
(7.52011e-05 -7.79753e-06 0)
(7.52035e-05 -7.85238e-06 0)
(7.52116e-05 -7.88091e-06 0)
(7.52131e-05 -7.89961e-06 0)
(0.000705125 -0.000204726 0)
(-4.65192e-05 9.19539e-05 0)
(0.000138 -2.1573e-07 0)
(6.68621e-05 1.32689e-05 0)
(7.52819e-05 -3.03426e-06 0)
(7.00212e-05 -7.85235e-06 0)
(7.27417e-05 -1.04148e-05 0)
(7.4771e-05 -9.53171e-06 0)
(7.61187e-05 -7.65559e-06 0)
(7.61126e-05 -6.35272e-06 0)
(7.54471e-05 -6.29616e-06 0)
(7.49066e-05 -7.0347e-06 0)
(7.48412e-05 -7.72325e-06 0)
(7.5053e-05 -7.92559e-06 0)
(7.52119e-05 -7.8155e-06 0)
(7.5222e-05 -7.73841e-06 0)
(7.51898e-05 -7.7899e-06 0)
(7.51927e-05 -7.86094e-06 0)
(7.52097e-05 -7.88796e-06 0)
(7.52136e-05 -7.90024e-06 0)
(0.00110759 -0.00037864 0)
(-0.000106664 0.000230023 0)
(0.000176205 1.31961e-06 0)
(6.44172e-05 3.49715e-05 0)
(7.39067e-05 -8.73545e-07 0)
(6.55911e-05 -8.7022e-06 0)
(6.89284e-05 -1.39165e-05 0)
(7.25016e-05 -1.23387e-05 0)
(7.54578e-05 -8.77207e-06 0)
(7.6344e-05 -5.9884e-06 0)
(7.57612e-05 -5.47426e-06 0)
(7.49211e-05 -6.59466e-06 0)
(7.46455e-05 -7.80802e-06 0)
(7.48852e-05 -8.18339e-06 0)
(7.51635e-05 -7.94203e-06 0)
(7.52307e-05 -7.72798e-06 0)
(7.51902e-05 -7.76789e-06 0)
(7.51831e-05 -7.8724e-06 0)
(7.5206e-05 -7.90192e-06 0)
(7.52142e-05 -7.90152e-06 0)
(5.56445e-05 -0.000254772 0)
(0.000115221 0.000365007 0)
(7.06412e-05 7.77948e-06 0)
(8.27089e-05 6.30832e-05 0)
(7.36195e-05 4.98311e-06 0)
(7.40411e-05 -6.528e-06 0)
(7.22674e-05 -1.67268e-05 0)
(7.25449e-05 -1.60322e-05 0)
(7.32756e-05 -1.13319e-05 0)
(7.42318e-05 -6.63459e-06 0)
(7.48299e-05 -4.9156e-06 0)
(7.50118e-05 -5.97028e-06 0)
(7.49861e-05 -7.70926e-06 0)
(7.49852e-05 -8.44101e-06 0)
(7.50625e-05 -8.1545e-06 0)
(7.51452e-05 -7.7631e-06 0)
(7.51835e-05 -7.74211e-06 0)
(7.5195e-05 -7.87711e-06 0)
(7.52051e-05 -7.91934e-06 0)
(7.52125e-05 -7.90458e-06 0)
(-0.00286064 -0.0002281 0)
(0.000636262 0.000247394 0)
(-0.000215414 -2.48737e-06 0)
(0.000109405 3.83673e-05 0)
(6.74874e-05 1.28786e-06 0)
(9.29232e-05 -6.15273e-06 0)
(8.34679e-05 -1.32958e-05 0)
(7.65335e-05 -1.34618e-05 0)
(7.09394e-05 -1.07074e-05 0)
(7.03605e-05 -7.59813e-06 0)
(7.26726e-05 -6.22924e-06 0)
(7.50456e-05 -6.69524e-06 0)
(7.58211e-05 -7.75072e-06 0)
(7.53996e-05 -8.25587e-06 0)
(7.49499e-05 -8.10565e-06 0)
(7.49666e-05 -7.84894e-06 0)
(7.51593e-05 -7.81555e-06 0)
(7.5228e-05 -7.89337e-06 0)
(7.52098e-05 -7.91981e-06 0)
(7.52084e-05 -7.90811e-06 0)
)
;

boundaryField
{
    movingWall
    {
        type            calculated;
        value           uniform (7.52129e-05 -7.90973e-06 0);
    }
    fixedWalls
    {
        type            calculated;
        value           uniform (7.52129e-05 -7.90973e-06 0);
    }
    frontAndBack
    {
        type            empty;
    }
}


// ************************************************************************* //
