/*--------------------------------*- C++ -*----------------------------------*\
| =========                 |                                                 |
| \\      /  F ield         | OpenFOAM: The Open Source CFD Toolbox           |
|  \\    /   O peration     | Version:  2312                                  |
|   \\  /    A nd           | Website:  www.openfoam.com                      |
|    \\/     M anipulation  |                                                 |
\*---------------------------------------------------------------------------*/
FoamFile
{
    version     2.0;
    format      ascii;
    arch        "LSB;label=32;scalar=64";
    class       volScalarField;
    location    "2.625";
    object      enstrophyField;
}
// * * * * * * * * * * * * * * * * * * * * * * * * * * * * * * * * * * * * * //

dimensions      [0 0 -2 0 0 0 0];

internalField   nonuniform List<scalar> 
400
(
0.000140957
8.97645e-06
2.01747e-06
9.36219e-09
3.34629e-08
1.43971e-09
3.01993e-09
2.41683e-09
2.41364e-09
1.56624e-09
7.15422e-10
2.3985e-10
7.64925e-11
3.13002e-11
1.47632e-11
5.44129e-12
1.29917e-12
2.16448e-13
2.69681e-14
1.28374e-15
2.21919e-06
1.04422e-06
2.44009e-07
2.38874e-10
9.33509e-09
6.84505e-10
3.78846e-11
1.59841e-10
2.34093e-10
7.45917e-11
9.62256e-15
2.09345e-11
1.42703e-11
9.70765e-13
2.11798e-13
1.47211e-14
2.58691e-13
2.9094e-13
8.37755e-14
1.1251e-14
2.62738e-06
3.4942e-06
7.79352e-07
4.4428e-11
3.06141e-08
2.14024e-09
3.53067e-11
7.52155e-10
8.99871e-10
2.46306e-10
1.07202e-12
7.70818e-11
4.35876e-11
1.56952e-12
1.35914e-12
9.33405e-14
7.58069e-13
7.52746e-13
1.72306e-13
1.82253e-14
1.99736e-06
4.86847e-06
1.21084e-06
1.81811e-09
8.49337e-08
1.1795e-08
8.24031e-10
1.57151e-09
2.91733e-09
1.04084e-09
1.61293e-12
2.2454e-10
1.46887e-10
4.74111e-12
6.97639e-12
1.19749e-12
1.44687e-12
1.59367e-12
2.2203e-13
8.09503e-15
0.000134601
5.34716e-07
6.12135e-07
2.20114e-08
1.73862e-07
4.59263e-08
6.79555e-09
1.58961e-09
6.7331e-09
3.36792e-09
8.37135e-11
4.48233e-10
3.94905e-10
1.80053e-11
2.03062e-11
6.36305e-12
1.81752e-12
2.77501e-12
2.0665e-13
1.97332e-15
0.000245133
1.75399e-07
2.53509e-07
3.88297e-08
1.86598e-07
5.7634e-08
9.25623e-09
1.44866e-09
7.68557e-09
4.07673e-09
1.22916e-10
5.07682e-10
4.68079e-10
2.16886e-11
2.5354e-11
8.74026e-12
1.60284e-12
2.62712e-12
9.54884e-14
4.53901e-14
6.28293e-06
3.1319e-06
9.47085e-07
6.45646e-09
8.08285e-08
1.24798e-08
6.4595e-10
1.85245e-09
3.16341e-09
1.01885e-09
4.55658e-13
2.77529e-10
1.54655e-10
2.38252e-12
1.07072e-11
1.91223e-12
9.36724e-13
7.39017e-13
4.60126e-18
1.46717e-13
2.88791e-05
5.8451e-06
9.05555e-07
3.56642e-10
1.3558e-08
4.74304e-11
4.06026e-10
9.611e-10
4.19925e-10
1.50502e-11
5.22341e-11
7.22958e-11
1.41698e-11
2.40624e-13
1.65648e-12
4.10871e-14
1.20999e-13
2.408e-17
1.4205e-13
4.14336e-13
4.22538e-06
7.61429e-07
1.0978e-07
2.11273e-10
8.77184e-10
5.74643e-13
4.5169e-11
5.05865e-11
1.11313e-11
1.73082e-12
1.29313e-11
9.39184e-12
1.39248e-12
5.72945e-14
3.3497e-13
1.75106e-13
1.81371e-13
4.27762e-13
6.62625e-13
1.03963e-12
1.74925e-07
1.12444e-07
7.2561e-10
1.81379e-11
3.46966e-10
6.65875e-11
3.60864e-11
7.33159e-11
3.36922e-11
8.86084e-12
4.71113e-13
7.31726e-14
1.18997e-13
8.10811e-14
2.48981e-13
7.71642e-13
1.37726e-12
1.74265e-12
1.79504e-12
2.10352e-12
1.2787e-06
4.39287e-08
1.25264e-07
5.81687e-10
3.95343e-09
2.22771e-10
2.80913e-10
4.93893e-10
1.9177e-10
2.08066e-11
3.16423e-12
1.04155e-11
3.28478e-12
2.28044e-13
3.11925e-13
1.938e-12
3.75557e-12
4.05148e-12
3.60912e-12
3.60917e-12
7.23035e-06
3.84949e-07
4.87614e-07
1.29369e-09
1.28371e-08
5.40838e-10
9.46551e-10
1.54329e-09
5.64837e-10
4.06408e-11
2.40459e-11
4.63277e-11
1.18141e-11
2.63868e-13
2.20482e-13
3.5489e-12
7.42985e-12
7.29292e-12
5.94025e-12
5.4157e-12
3.13766e-05
2.96075e-06
1.63522e-06
3.14258e-09
3.50943e-08
1.07249e-09
2.58364e-09
4.0868e-09
1.47331e-09
8.38215e-11
8.76635e-11
1.4149e-10
3.10005e-11
5.39099e-14
7.77686e-16
5.01786e-12
1.23958e-11
1.12265e-11
8.3607e-12
7.19797e-12
8.5083e-05
6.94638e-06
3.70109e-06
3.42322e-09
7.9956e-08
1.52312e-09
5.32699e-09
8.72599e-09
3.22376e-09
1.77949e-10
2.05208e-10
3.24977e-10
6.75608e-11
4.53885e-14
8.66871e-13
5.42892e-12
1.76924e-11
1.52248e-11
1.03061e-11
8.48903e-12
0.000248647
2.91544e-05
9.51807e-06
2.52271e-08
1.65015e-07
3.35659e-09
1.09189e-08
1.72872e-08
6.28511e-09
3.15469e-10
4.35277e-10
6.48787e-10
1.22415e-10
1.46823e-12
5.80532e-12
4.56195e-12
2.27051e-11
1.84639e-11
1.10804e-11
8.82139e-12
0.000640398
6.02051e-05
2.15684e-05
4.13359e-08
3.36049e-07
1.22748e-08
3.62004e-08
4.7403e-08
1.57428e-08
4.85178e-10
1.50178e-09
1.76989e-09
2.43343e-10
2.45151e-11
3.82209e-11
2.63866e-12
3.21292e-11
2.13047e-11
9.6707e-12
7.81797e-12
0.00263776
0.000465579
9.56057e-05
5.18479e-08
1.55554e-06
1.6669e-09
9.50038e-08
1.76443e-07
7.42615e-08
4.14728e-09
5.26447e-09
7.90776e-09
1.1743e-09
1.5856e-10
3.05625e-10
9.58212e-13
6.23041e-11
3.00985e-11
5.67436e-12
5.24896e-12
0.0013348
0.000238099
8.15266e-05
1.6272e-06
8.82478e-06
1.45571e-06
4.99965e-08
2.7163e-07
4.22592e-07
1.34092e-07
6.01967e-13
2.97429e-08
1.50265e-08
2.18804e-11
1.82894e-09
3.14677e-10
9.53122e-11
9.29014e-11
3.00726e-12
1.11696e-12
0.083816
0.0011538
4.02263e-05
1.14168e-05
1.99661e-05
1.20256e-05
2.89048e-06
9.28925e-09
9.68277e-07
7.68771e-07
7.04213e-08
4.25802e-08
6.64802e-08
4.60492e-09
3.97369e-09
2.28773e-09
3.45318e-11
2.46729e-10
4.87752e-12
5.26909e-13
0.042641
0.00341692
0.00127122
1.03347e-05
1.44931e-05
1.91101e-08
1.99897e-08
7.70011e-09
6.02097e-10
9.18421e-09
2.04089e-08
1.7857e-08
6.95257e-09
7.83536e-10
2.06084e-13
2.82042e-12
8.11997e-11
5.72711e-11
3.26904e-12
6.63484e-14
)
;

boundaryField
{
    movingWall
    {
        type            calculated;
        value           nonuniform List<scalar> 
20
(
0.685422
0.0304998
0.00940556
9.87647e-05
2.84424e-05
1.58247e-05
3.30526e-06
3.09748e-07
6.3057e-07
1.11473e-06
4.28552e-07
2.39901e-08
3.80485e-09
7.68618e-10
2.07954e-09
2.41403e-09
3.34972e-10
9.61166e-12
3.65225e-12
4.39374e-13
)
;
    }
    fixedWalls
    {
        type            calculated;
        value           nonuniform List<scalar> 
60
(
0.000189198
1.76398e-05
6.30622e-05
7.44872e-05
1.41995e-10
3.38366e-05
4.55333e-05
0.000127672
1.52403e-05
2.12101e-06
1.35232e-06
1.02819e-05
7.36417e-05
0.000175646
0.000672925
0.00138771
0.0100344
0.00347313
0.0444254
0.0735816
1.05692e-16
9.97391e-16
8.55324e-16
2.64114e-16
1.67349e-14
8.85578e-14
2.73472e-13
6.88229e-13
1.42564e-12
2.50302e-12
3.8869e-12
5.45303e-12
6.96795e-12
8.10432e-12
8.5867e-12
8.43519e-12
7.64289e-12
5.04175e-12
1.09628e-12
6.39302e-13
0.000467779
2.5238e-05
6.35636e-06
2.16032e-08
1.0979e-07
5.07909e-09
1.15929e-08
1.04199e-08
1.06956e-08
6.87981e-09
2.99509e-09
9.29867e-10
2.83382e-10
1.24182e-10
6.41387e-11
2.35162e-11
4.86908e-12
6.19009e-13
5.50136e-14
1.11264e-15
)
;
    }
    frontAndBack
    {
        type            empty;
    }
}


// ************************************************************************* //
