/*--------------------------------*- C++ -*----------------------------------*\
| =========                 |                                                 |
| \\      /  F ield         | OpenFOAM: The Open Source CFD Toolbox           |
|  \\    /   O peration     | Version:  2312                                  |
|   \\  /    A nd           | Website:  www.openfoam.com                      |
|    \\/     M anipulation  |                                                 |
\*---------------------------------------------------------------------------*/
FoamFile
{
    version     2.0;
    format      ascii;
    arch        "LSB;label=32;scalar=64";
    class       volScalarField;
    location    "2.625";
    object      flowTypeField;
}
// * * * * * * * * * * * * * * * * * * * * * * * * * * * * * * * * * * * * * //

dimensions      [0 0 0 0 0 0 0];

internalField   nonuniform List<scalar> 
400
(
0.0367847
0.401462
0.138274
0.775938
-0.0778704
0.331442
-0.0829828
0.0368252
0.0825022
0.129811
0.174666
0.179542
0.0681418
-0.0308944
0.0917413
0.224015
0.313453
0.318368
0.262103
0.260649
0.656672
0.771737
0.570078
0.965356
0.269066
0.582264
0.721891
-0.206752
-0.0544118
0.524605
0.993331
0.649064
0.498521
0.625727
0.67868
0.917855
0.620434
0.338002
0.157698
0.0157114
0.66061
0.64557
0.381611
0.986271
0.186731
0.466698
0.837723
-0.0747598
-0.316623
0.270222
0.936381
0.488536
0.386019
0.637255
0.0773837
0.778872
0.456674
0.224082
0.114553
-0.0044096
0.728346
0.634827
0.384662
0.923172
0.145508
0.155013
0.501298
0.037241
-0.352797
-0.173073
0.9248
0.342339
0.220141
0.549187
-0.374374
0.22075
0.353734
0.148514
0.162148
0.141257
0.0755773
0.827916
0.625091
0.62422
0.132408
-0.28624
-0.128961
-0.0380586
-0.452363
-0.651484
0.493356
0.212946
0.0430948
0.29374
-0.42343
-0.476444
0.31735
0.0885826
0.229383
0.515998
0.0193289
0.906635
0.769605
0.576447
0.143766
-0.367882
-0.127287
0.123605
-0.417193
-0.870349
0.407183
0.201015
0.0190162
0.220932
-0.819682
-0.157345
0.437513
0.138028
0.359531
0.130196
0.686365
0.790094
0.56102
0.905168
0.153659
0.134721
0.659526
0.304041
-0.193238
-0.384589
0.965569
0.36367
0.235176
0.65429
-0.440886
0.489879
0.619149
0.417945
0.993336
0.108785
0.303949
0.637064
0.45104
0.96829
0.35608
0.897703
0.70127
0.284038
-0.328481
0.75386
0.679381
0.555997
0.631386
0.867759
0.515873
0.926894
0.848111
0.995384
0.437129
0.0787163
0.586783
0.822773
0.739724
0.968524
0.760239
0.98522
0.84589
0.663299
0.706189
0.924325
0.807005
0.776965
0.847712
0.94204
0.83796
0.871604
0.820356
0.576763
0.269785
0.042829
0.886966
0.923413
0.975432
0.989831
0.844053
0.794224
0.834225
0.652496
0.714607
0.862073
0.961696
0.977428
0.950822
0.938826
0.879693
0.767993
0.602192
0.379716
0.169892
0.0237959
0.736289
0.953545
0.733996
0.945534
0.582727
0.65594
0.599229
0.409445
0.545338
0.82202
0.910526
0.771736
0.777672
0.907515
0.87733
0.677372
0.46065
0.26655
0.111485
0.0146223
0.544392
0.884916
0.580646
0.930343
0.399969
0.510835
0.381144
0.25232
0.439154
0.797279
0.802598
0.628239
0.657615
0.901798
0.896206
0.604593
0.364477
0.197675
0.0769645
0.00912783
0.364137
0.760389
0.428848
0.916608
0.223914
0.460821
0.171996
0.0749377
0.284736
0.752672
0.70815
0.529705
0.579037
0.952816
0.992711
0.552659
0.30063
0.159578
0.0579202
0.00554816
0.314235
0.733927
0.364043
0.938768
0.11262
0.605507
-0.065282
-0.113592
0.137237
0.689882
0.648079
0.480596
0.553132
0.960978
0.718274
0.525562
0.27105
0.150081
0.0487791
0.00234553
0.241502
0.6381
0.283872
0.891734
0.174968
0.676959
0.100711
-0.169279
0.099934
0.666694
0.614647
0.483103
0.593104
0.863093
0.11352
0.502048
0.265381
0.170816
0.0525059
-0.00221294
0.268581
0.652457
0.246723
0.909024
0.303088
0.701423
0.296205
-0.0817394
0.0490781
0.67702
0.506508
0.424582
0.619709
0.722217
0.191159
0.42624
0.238226
0.227742
0.102972
-0.0148604
0.162351
0.473832
0.0778806
0.937787
0.191896
0.929362
0.472653
0.0998771
-0.0144293
0.422741
0.414611
0.233463
0.465384
0.646764
0.193031
0.609089
0.132937
0.234263
0.291484
-0.0310633
0.470947
0.742341
0.473215
0.799032
0.0535128
-0.190716
0.628457
0.288666
-0.051185
-0.543131
0.992852
0.122204
-0.0908197
0.881779
0.107035
-0.389788
0.127497
-0.00268472
0.486815
0.138226
-0.030986
0.35363
0.771413
-0.0565122
0.0989636
-0.751835
-0.625918
0.752816
-0.391746
-0.590359
-0.133399
-0.0421834
-0.474912
-0.707733
-0.223292
-0.408875
0.355101
-0.230165
0.153995
0.18223
0.217655
0.64747
0.196372
0.810653
-0.0123937
0.903866
0.886279
0.910601
0.960677
0.777623
0.666939
0.54445
0.273931
0.635562
0.989343
0.937298
0.609091
0.140988
0.213472
0.685633
)
;

boundaryField
{
    movingWall
    {
        type            calculated;
        value           nonuniform List<scalar> 
20
(
0.0250987
0.290206
-0.0623826
0.5586
-0.125383
0.224987
0.367633
0.642491
0.444724
0.234468
0.26754
0.579635
0.650819
0.734595
0.499405
0.321521
0.442865
0.643284
0.402484
0.521605
)
;
    }
    fixedWalls
    {
        type            calculated;
        value           nonuniform List<scalar> 
60
(
0.392612
0.786535
0.65299
0.661434
0.999292
0.733491
0.813205
0.615574
0.820794
0.924809
0.942214
0.867215
0.735258
0.705098
0.61519
0.627067
0.43488
0.763596
0.249388
0.627302
0.406886
0.0263169
0.0456562
0.511261
0.025394
0.0224909
0.0412095
0.0325714
0.018147
0.0104994
0.00723627
0.00520632
0.00379419
0.00188765
-0.00219875
-0.0144033
-0.0256162
0.052637
0.309693
0.41014
0.0079784
0.217936
0.0284906
0.679812
-0.0756216
0.094756
-0.0498589
0.0173357
0.0390582
0.0475683
0.048427
0.0293802
-0.0363041
-0.0453467
0.0208397
0.0682706
0.102038
0.106985
0.0941186
0.312675
)
;
    }
    frontAndBack
    {
        type            empty;
    }
}


// ************************************************************************* //
