/*--------------------------------*- C++ -*----------------------------------*\
| =========                 |                                                 |
| \\      /  F ield         | OpenFOAM: The Open Source CFD Toolbox           |
|  \\    /   O peration     | Version:  2312                                  |
|   \\  /    A nd           | Website:  www.openfoam.com                      |
|    \\/     M anipulation  |                                                 |
\*---------------------------------------------------------------------------*/
FoamFile
{
    version     2.0;
    format      ascii;
    arch        "LSB;label=32;scalar=64";
    class       surfaceScalarField;
    location    "2.625";
    object      fluxField;
}
// * * * * * * * * * * * * * * * * * * * * * * * * * * * * * * * * * * * * * //

dimensions      [0 3 -1 0 0 0 0];

oriented        oriented;

internalField   nonuniform List<scalar> 
760
(
-5.00015e-05
4.57619e-10
-4.99998e-05
-2.50911e-10
-5.00002e-05
-1.97954e-11
-5e-05
-5.70544e-11
-5e-05
-1.96511e-11
-5e-05
-7.17942e-12
-5e-05
1.0179e-12
-5e-05
1.21283e-12
-5e-05
-1.89548e-12
-5e-05
-4.6662e-12
-5e-05
-5.0454e-12
-5e-05
-3.44515e-12
-5e-05
-1.55951e-12
-5e-05
-5.96268e-13
-5e-05
-4.82674e-13
-5e-05
-5.21929e-13
-5e-05
-3.66837e-13
-5e-05
-1.56766e-13
-5e-05
-4.72797e-14
-3.97031e-15
-5.00017e-05
8.83168e-10
-4.99998e-05
-5.43272e-10
-5.00002e-05
-3.90605e-11
-5e-05
-1.23298e-10
-5e-05
-3.86896e-11
-5e-05
-1.39241e-11
-5e-05
3.28891e-12
-5e-05
3.07361e-12
-5e-05
-3.63611e-12
-5e-05
-9.44282e-12
-5e-05
-1.01419e-11
-5e-05
-6.76288e-12
-5e-05
-2.89994e-12
-5e-05
-1.01988e-12
-5e-05
-8.82851e-13
-5e-05
-1.00715e-12
-5e-05
-7.00701e-13
-5e-05
-2.84072e-13
-5e-05
-7.95417e-14
-5.27189e-15
-5.00018e-05
1.60177e-09
-4.99998e-05
-9.80273e-10
-5.00002e-05
-5.83469e-11
-5e-05
-2.09367e-10
-5e-05
-5.98087e-11
-5e-05
-1.99444e-11
-5e-05
8.6957e-12
-5e-05
7.65735e-12
-5e-05
-3.95184e-12
-5e-05
-1.40083e-11
-5e-05
-1.54637e-11
-5e-05
-1.00772e-11
-5e-05
-3.89272e-12
-5e-05
-1.03577e-12
-5e-05
-1.04989e-12
-5e-05
-1.41184e-12
-5e-05
-9.86409e-13
-5e-05
-3.5754e-13
-5e-05
-7.92192e-14
-1.4244e-15
-5.0002e-05
2.04806e-09
-4.99998e-05
-1.51293e-09
-5.00002e-05
-8.49215e-11
-5e-05
-3.13178e-10
-5e-05
-8.23704e-11
-5e-05
-2.56713e-11
-5e-05
1.73221e-11
-5e-05
1.56549e-11
-5e-05
-1.89369e-12
-5e-05
-1.76458e-11
-5e-05
-2.06979e-11
-5e-05
-1.33318e-11
-5e-05
-4.51474e-12
-5e-05
-5.58917e-13
-5e-05
-8.75892e-13
-5e-05
-1.66593e-12
-5e-05
-1.19596e-12
-5e-05
-3.63088e-13
-5e-05
-3.47752e-14
1.09373e-14
-5.00012e-05
1.92265e-09
-4.99999e-05
-1.81699e-09
-5.00001e-05
-1.05757e-10
-5e-05
-3.76591e-10
-5e-05
-9.62268e-11
-5e-05
-2.9972e-11
-5e-05
2.22424e-11
-5e-05
2.07275e-11
-5e-05
-1.53402e-13
-5e-05
-1.94161e-11
-5e-05
-2.36077e-11
-5e-05
-1.51249e-11
-5e-05
-4.68502e-12
-5e-05
-2.95635e-14
-5e-05
-5.55536e-13
-5e-05
-1.66177e-12
-5e-05
-1.20768e-12
-5e-05
-2.81563e-13
-5e-05
4.30612e-14
3.4327e-14
-4.99986e-05
1.74705e-09
-5.00002e-05
-1.50968e-09
-4.99999e-05
-9.58811e-11
-5e-05
-3.1794e-10
-5e-05
-8.65118e-11
-5e-05
-2.92244e-11
-5e-05
1.42772e-11
-5e-05
1.31305e-11
-5e-05
-4.01976e-12
-5e-05
-1.92248e-11
-5e-05
-2.15201e-11
-5e-05
-1.34011e-11
-5e-05
-4.12652e-12
-5e-05
-7.25153e-14
-5e-05
-4.65611e-13
-5e-05
-1.31467e-12
-5e-05
-8.66368e-13
-5e-05
-9.1037e-14
-5e-05
1.31135e-13
7.01631e-14
-4.99968e-05
1.51022e-09
-5.00004e-05
-8.36165e-10
-4.99997e-05
-6.54473e-11
-5e-05
-1.86348e-10
-5e-05
-6.39942e-11
-5e-05
-2.72412e-11
-5e-05
-2.43942e-12
-5e-05
-2.06709e-12
-5e-05
-1.0408e-11
-5e-05
-1.67839e-11
-5e-05
-1.56532e-11
-5e-05
-9.20984e-12
-5e-05
-3.00877e-12
-5e-05
-3.57978e-13
-5e-05
-3.72734e-13
-5e-05
-6.34036e-13
-5e-05
-2.41492e-13
-5e-05
1.97187e-13
-5e-05
2.43393e-13
1.19529e-13
-4.99977e-05
8.03908e-10
-5.00004e-05
-3.36656e-10
-4.99998e-05
-5.3922e-11
-5e-05
-9.77726e-11
-5e-05
-5.24733e-11
-5e-05
-2.98922e-11
-5e-05
-1.54901e-11
-5e-05
-1.13055e-11
-5e-05
-1.18778e-11
-5e-05
-1.20786e-11
-5e-05
-9.54971e-12
-5e-05
-5.27927e-12
-5e-05
-1.66512e-12
-5e-05
-5.42442e-15
-5e-05
2.62188e-13
-5e-05
2.85675e-13
-5e-05
4.68078e-13
-5e-05
5.58302e-13
-5e-05
4.11989e-13
1.7979e-13
-4.99981e-05
3.07578e-10
-5.00004e-05
-9.77762e-11
-4.99998e-05
-5.03816e-11
-5e-05
-5.47916e-11
-5e-05
-4.88776e-11
-5e-05
-3.36607e-11
-5e-05
-2.27245e-11
-5e-05
-1.43609e-11
-5e-05
-9.54458e-12
-5e-05
-6.46566e-12
-5e-05
-3.95536e-12
-5e-05
-1.64492e-12
-5e-05
1.35491e-13
-5e-05
1.09491e-12
-5e-05
1.37937e-12
-5e-05
1.35528e-12
-5e-05
1.22558e-12
-5e-05
9.86715e-13
-5e-05
6.30014e-13
2.46081e-13
-4.99983e-05
1.3794e-10
-5.00004e-05
5.81339e-11
-4.99998e-05
-5.24978e-11
-5e-05
-2.63879e-11
-5e-05
-4.90624e-11
-5e-05
-3.70428e-11
-5e-05
-2.72249e-11
-5e-05
-1.46651e-11
-5e-05
-5.42115e-12
-5e-05
-7.77286e-14
-5e-05
1.94514e-12
-5e-05
2.32821e-12
-5e-05
2.41124e-12
-5e-05
2.62855e-12
-5e-05
2.75052e-12
-5e-05
2.53541e-12
-5e-05
2.04419e-12
-5e-05
1.46223e-12
-5e-05
8.72289e-13
3.14743e-13
-4.99982e-05
2.1719e-12
-5.00004e-05
2.00864e-10
-4.99998e-05
-5.86277e-11
-5e-05
-3.03829e-12
-5e-05
-5.20807e-11
-5e-05
-4.13338e-11
-5e-05
-3.1156e-11
-5e-05
-1.36385e-11
-5e-05
2.03435e-13
-5e-05
7.55205e-12
-5e-05
8.67156e-12
-5e-05
6.78361e-12
-5e-05
4.98539e-12
-5e-05
4.36995e-12
-5e-05
4.25406e-12
-5e-05
3.77826e-12
-5e-05
2.8835e-12
-5e-05
1.94409e-12
-5e-05
1.11634e-12
3.81513e-13
-4.99979e-05
-2.83639e-10
-5.00004e-05
3.85667e-10
-4.99998e-05
-6.8727e-11
-5e-05
2.6856e-11
-5e-05
-5.36469e-11
-5e-05
-4.52027e-11
-5e-05
-3.49293e-11
-5e-05
-1.16523e-11
-5e-05
7.53864e-12
-5e-05
1.70081e-11
-5e-05
1.66858e-11
-5e-05
1.17613e-11
-5e-05
7.57799e-12
-5e-05
6.00674e-12
-5e-05
5.71461e-12
-5e-05
5.01491e-12
-5e-05
3.69666e-12
-5e-05
2.3861e-12
-5e-05
1.33479e-12
4.40781e-13
-4.99974e-05
-6.17401e-10
-5.00005e-05
6.25887e-10
-4.99997e-05
-5.53379e-11
-5e-05
8.22467e-11
-4.99999e-05
-4.30524e-11
-5e-05
-4.43849e-11
-5e-05
-3.80637e-11
-5e-05
-9.69379e-12
-5e-05
1.56837e-11
-5e-05
2.79482e-11
-5e-05
2.59398e-11
-5e-05
1.71732e-11
-5e-05
9.93769e-12
-5e-05
7.24651e-12
-5e-05
6.93699e-12
-5e-05
6.15129e-12
-5e-05
4.42404e-12
-5e-05
2.73619e-12
-5e-05
1.4966e-12
4.85904e-13
-4.99963e-05
-1.31731e-09
-5.00006e-05
1.06902e-09
-4.99996e-05
-1.25509e-11
-5e-05
1.90355e-10
-4.99999e-05
-1.21911e-11
-5e-05
-3.76854e-11
-5e-05
-4.43389e-11
-5e-05
-1.20019e-11
-5e-05
2.23154e-11
-5e-05
4.01193e-11
-5e-05
3.70713e-11
-5e-05
2.34028e-11
-5e-05
1.1873e-11
-5e-05
7.67927e-12
-5e-05
7.63604e-12
-5e-05
7.06545e-12
-5e-05
5.00042e-12
-5e-05
2.93886e-12
-5e-05
1.56896e-12
5.10429e-13
-4.99947e-05
-2.02294e-09
-5.00007e-05
1.75112e-09
-4.99994e-05
1.07505e-10
-5e-05
3.8905e-10
-4.99999e-05
5.28608e-11
-5e-05
-2.36527e-11
-5e-05
-5.81099e-11
-5e-05
-2.17203e-11
-5e-05
2.705e-11
-5e-05
5.49269e-11
-5e-05
5.1291e-11
-5e-05
3.03405e-11
-5e-05
1.23732e-11
-5e-05
6.37073e-12
-5e-05
7.4416e-12
-5e-05
7.74573e-12
-5e-05
5.42651e-12
-5e-05
2.93191e-12
-5e-05
1.5099e-12
5.11372e-13
-4.9992e-05
-5.97564e-09
-5.0001e-05
3.55437e-09
-4.99991e-05
2.96361e-10
-5.00001e-05
7.88573e-10
-5e-05
1.70969e-10
-5e-05
-5.48891e-12
-5e-05
-9.62162e-11
-5e-05
-5.49293e-11
-5e-05
2.08033e-11
-5e-05
7.04984e-11
-5e-05
6.9975e-11
-5e-05
3.88238e-11
-5e-05
1.06961e-11
-5e-05
2.16557e-12
-5e-05
5.89141e-12
-5e-05
8.30289e-12
-5e-05
5.80069e-12
-5e-05
2.65363e-12
-5e-05
1.26493e-12
4.9021e-13
-4.99873e-05
-1.41887e-08
-5.00015e-05
8.4449e-09
-4.99986e-05
4.23083e-10
-5.00002e-05
1.6015e-09
-5.00001e-05
2.97792e-10
-5.00002e-05
-1.83771e-11
-5.00001e-05
-2.12797e-10
-5e-05
-1.51273e-10
-5e-05
-1.5205e-11
-5e-05
8.69586e-11
-5e-05
1.01226e-10
-5e-05
5.47526e-11
-5e-05
7.20481e-12
-5e-05
-7.23782e-12
-5e-05
1.54815e-12
-5e-05
8.82685e-12
-5e-05
6.54155e-12
-5e-05
2.153e-12
-5e-05
7.39616e-13
4.42412e-13
-4.99787e-05
-1.54398e-08
-5.0002e-05
1.52712e-08
-4.99977e-05
6.22964e-10
-5.00003e-05
2.84686e-09
-5.00003e-05
4.98226e-10
-5.00004e-05
1.47315e-11
-5.00002e-05
-3.70597e-10
-5.00001e-05
-3.13786e-10
-5e-05
-1.07112e-10
-5e-05
7.99118e-11
-5e-05
1.3574e-10
-5e-05
8.13632e-11
-5e-05
7.55459e-12
-5e-05
-2.01233e-11
-5e-05
-6.92689e-12
-5e-05
8.20956e-12
-5e-05
7.73638e-12
-5e-05
1.74875e-12
-5e-05
-4.49897e-14
3.34013e-13
-4.99995e-05
-1.16763e-08
-4.99991e-05
1.57055e-08
-4.99999e-05
5.27789e-10
-4.99999e-05
2.93175e-09
-5.00001e-05
5.52261e-10
-5.00001e-05
7.84684e-11
-5.00001e-05
-3.55078e-10
-5.00001e-05
-3.41864e-10
-5.00001e-05
-1.55496e-10
-5e-05
3.96685e-11
-5e-05
1.16866e-10
-5e-05
7.88486e-11
-5e-05
8.98708e-12
-5e-05
-2.19353e-11
-5e-05
-1.10174e-11
-5e-05
5.18555e-12
-5e-05
6.54501e-12
-5e-05
1.22463e-12
-5e-05
-4.92294e-13
1.69428e-13
-5.00594e-05
-4.99932e-05
-5.00064e-05
-4.99993e-05
-4.99998e-05
-4.99994e-05
-4.99998e-05
-5.00001e-05
-5.00002e-05
-5.00002e-05
-5.00001e-05
-5e-05
-5e-05
-5e-05
-5e-05
-5e-05
-5e-05
-5e-05
-5e-05
)
;

boundaryField
{
    movingWall
    {
        type            calculated;
        value           uniform -0;
    }
    fixedWalls
    {
        type            calculated;
        value           nonuniform List<scalar> 
60
(
5e-05
5e-05
5e-05
5e-05
5e-05
5e-05
5e-05
5e-05
5e-05
5e-05
5e-05
5e-05
5e-05
5e-05
5e-05
5e-05
5e-05
5e-05
5e-05
5e-05
-5e-05
-5e-05
-5e-05
-5e-05
-5e-05
-5e-05
-5e-05
-5e-05
-5e-05
-5e-05
-5e-05
-5e-05
-5e-05
-5e-05
-5e-05
-5e-05
-5e-05
-5e-05
-5e-05
-5e-05
0
0
0
0
0
0
0
0
0
0
0
0
0
0
0
0
0
0
0
0
)
;
    }
    frontAndBack
    {
        type            empty;
        value           nonuniform List<scalar> 0();
    }
}


// ************************************************************************* //
