/*--------------------------------*- C++ -*----------------------------------*\
| =========                 |                                                 |
| \\      /  F ield         | OpenFOAM: The Open Source CFD Toolbox           |
|  \\    /   O peration     | Version:  2312                                  |
|   \\  /    A nd           | Website:  www.openfoam.com                      |
|    \\/     M anipulation  |                                                 |
\*---------------------------------------------------------------------------*/
FoamFile
{
    version     2.0;
    format      ascii;
    arch        "LSB;label=32;scalar=64";
    class       volVectorField;
    location    "2.625";
    object      LambVectorField;
}
// * * * * * * * * * * * * * * * * * * * * * * * * * * * * * * * * * * * * * //

dimensions      [0 1 -2 0 0 0 0];

internalField   nonuniform List<vector> 
400
(
(-1.32807e-07 -0.0167915 -0.0167928)
(-1.22552e-08 0.00423702 -0)
(2.12028e-10 -0.00200873 -0.00200875)
(-7.46424e-11 0.000136837 -0)
(5.14051e-11 -0.000258701 -0.000258701)
(3.86929e-12 -5.36603e-05 -0)
(-4.57262e-13 -7.77165e-05 -7.77165e-05)
(-7.31045e-13 -6.95245e-05 0)
(1.31049e-12 -6.94787e-05 -6.94787e-05)
(2.56044e-12 -5.59687e-05 -0)
(1.89327e-12 -3.78265e-05 -3.78265e-05)
(7.6233e-13 -2.19021e-05 -0)
(1.99952e-13 -1.23687e-05 -1.23687e-05)
(4.97818e-14 -7.91204e-06 -0)
(2.68438e-14 -5.43383e-06 -5.43383e-06)
(1.74866e-14 -3.29888e-06 -0)
(6.06814e-15 -1.61194e-06 -1.61194e-06)
(1.07688e-15 -6.57948e-07 -0)
(1.17115e-16 -2.32242e-07 -2.32242e-07)
(2.41473e-18 -5.06704e-08 -0)
(-2.18997e-08 -0.00210693 -0.00210712)
(-1.03242e-08 0.00144512 -0)
(4.7941e-10 -0.00069859 -0.000698596)
(-3.79596e-11 2.18574e-05 -0)
(8.02535e-11 -0.000136639 -0.000136639)
(7.9576e-12 -3.70001e-05 -0)
(-3.032e-13 -8.70456e-06 -8.70456e-06)
(6.79398e-13 1.78797e-05 0)
(-1.23242e-12 2.16376e-05 2.16376e-05)
(-1.72097e-12 1.22141e-05 -0)
(2.10538e-14 -1.38727e-07 -1.38727e-07)
(6.66473e-13 -6.47063e-06 -0)
(2.46893e-13 -5.34235e-06 -5.34235e-06)
(2.44662e-14 -1.39339e-06 -0)
(-9.35053e-15 6.50843e-07 6.50843e-07)
(-2.67272e-15 1.71587e-07 -0)
(7.84675e-15 -7.19293e-07 -7.19293e-07)
(3.5348e-15 -7.6281e-07 -0)
(5.67702e-16 -4.0933e-07 -4.0933e-07)
(1.66742e-17 -1.50007e-07 -0)
(-5.71515e-08 -0.00229254 -0.00229275)
(-3.85611e-08 0.00264351 -0)
(1.09387e-09 -0.00124849 -0.00124851)
(-3.01192e-11 9.42634e-06 -0)
(2.37606e-10 -0.000247444 -0.000247444)
(2.23685e-11 -6.54253e-05 -0)
(-8.12788e-13 -8.40317e-06 -8.40318e-06)
(3.29468e-12 3.87855e-05 0)
(-3.75392e-12 4.24234e-05 4.24234e-05)
(-5.25602e-12 2.21949e-05 -0)
(3.71794e-13 -1.46426e-06 -1.46426e-06)
(2.07992e-12 -1.24163e-05 -0)
(6.51549e-13 -9.33676e-06 -9.33676e-06)
(4.11686e-14 -1.77173e-06 -0)
(-3.45362e-14 1.64872e-06 1.64872e-06)
(-1.06762e-14 4.32066e-07 -0)
(2.1079e-14 -1.23132e-06 -1.23132e-06)
(8.25636e-15 -1.22698e-06 -0)
(1.05359e-15 -5.87036e-07 -5.87036e-07)
(1.90384e-17 -1.90921e-07 -0)
(7.82268e-08 0.00199888 0.00199908)
(-7.68372e-08 0.00312035 -0)
(2.26846e-09 -0.00155619 -0.00155621)
(3.12328e-10 -6.03011e-05 -0)
(5.90242e-10 -0.00041215 -0.00041215)
(7.00192e-11 -0.000153591 -0)
(-1.01939e-11 -4.05963e-05 -4.05963e-05)
(1.24093e-11 5.60627e-05 0)
(-5.31536e-12 7.6385e-05 7.6385e-05)
(-1.47607e-11 4.56255e-05 -0)
(-6.54908e-13 1.79607e-06 1.79607e-06)
(4.99216e-12 -2.11915e-05 -0)
(1.47275e-12 -1.71399e-05 -1.71399e-05)
(5.60265e-14 -3.07932e-06 -0)
(-7.86227e-14 3.73534e-06 3.73534e-06)
(-4.91569e-14 1.54757e-06 -0)
(3.7998e-14 -1.7011e-06 -1.7011e-06)
(1.35195e-14 -1.78531e-06 -0)
(9.15607e-16 -6.66378e-07 -6.66378e-07)
(-5.43858e-18 -1.2724e-07 0)
(7.01959e-07 0.0164084 0.0164093)
(-3.71184e-08 0.00103412 -0)
(2.1456e-09 -0.00110647 -0.00110648)
(1.54165e-09 -0.000209816 -0)
(1.09841e-09 -0.000589682 -0.000589682)
(1.73046e-10 -0.000303072 -0)
(-5.15031e-11 -0.000116581 -0.000116581)
(2.28271e-11 5.63845e-05 0)
(-7.1498e-13 0.000116044 0.000116044)
(-3.13772e-11 8.20721e-05 -0)
(-5.99456e-12 1.29394e-05 1.29394e-05)
(8.91333e-12 -2.9941e-05 -0)
(2.6604e-12 -2.81036e-05 -2.81036e-05)
(2.4977e-14 -6.00089e-06 -0)
(-8.91383e-14 6.37279e-06 6.37279e-06)
(-1.24406e-13 3.56737e-06 -0)
(4.86202e-14 -1.90658e-06 -1.90658e-06)
(1.63753e-14 -2.35585e-06 -0)
(1.09315e-17 -6.42885e-07 -6.42885e-07)
(2.4799e-17 6.28223e-08 0)
(7.55552e-07 0.0221404 0.0221388)
(2.1788e-08 -0.000592291 -0)
(1.63142e-09 -0.000712047 -0.000712042)
(2.15025e-09 -0.000278675 -0)
(1.21346e-09 -0.000610897 -0.000610897)
(2.13182e-10 -0.000339512 -0)
(-6.09437e-11 -0.000136061 -0.000136061)
(2.28361e-11 5.38267e-05 0)
(3.12281e-15 0.00012398 0.00012398)
(-3.56066e-11 9.02965e-05 -0)
(-7.54203e-12 1.56791e-05 1.56791e-05)
(9.79206e-12 -3.18648e-05 -0)
(2.83743e-12 -3.05967e-05 -3.05967e-05)
(-1.96245e-14 -6.58613e-06 0)
(-5.86348e-14 7.12096e-06 7.12096e-06)
(-1.32109e-13 4.18097e-06 -0)
(4.08326e-14 -1.79044e-06 -1.79044e-06)
(9.88311e-15 -2.29221e-06 -0)
(-7.60157e-16 -4.37009e-07 -4.37009e-07)
(2.94768e-16 3.01298e-07 0)
(1.26759e-07 0.00354427 0.0035437)
(-5.90668e-08 0.00250284 -0)
(2.12511e-09 -0.00137627 -0.00137624)
(5.68358e-10 -0.000113635 -0)
(5.9269e-10 -0.000402066 -0.000402065)
(8.54813e-11 -0.000157986 -0)
(-4.42713e-12 -3.5943e-05 -3.5943e-05)
(6.14563e-12 6.08678e-05 0)
(-1.27915e-11 7.95413e-05 7.95413e-05)
(-1.69126e-11 4.51409e-05 -0)
(3.62549e-13 -9.54629e-07 -9.54629e-07)
(5.38914e-12 -2.35597e-05 -0)
(1.27198e-12 -1.75872e-05 -1.75872e-05)
(1.28361e-14 -2.1829e-06 -0)
(-4.80819e-14 4.62757e-06 4.62757e-06)
(-4.10464e-14 1.95562e-06 -0)
(1.6218e-14 -1.36874e-06 -1.36874e-06)
(-8.14697e-16 -1.21574e-06 0)
(-1.06356e-17 -3.03357e-09 -3.03357e-09)
(9.90325e-16 5.41695e-07 0)
(-1.87338e-07 -0.00759899 -0.00759809)
(-3.3664e-08 0.00341919 -0)
(1.4451e-09 -0.00134576 -0.00134574)
(-6.54952e-11 2.67074e-05 -0)
(1.78775e-10 -0.000164669 -0.000164669)
(5.34297e-12 -9.73966e-06 -0)
(-6.29054e-12 2.84965e-05 2.84965e-05)
(-8.05176e-12 4.38429e-05 -0)
(-7.40453e-12 2.89801e-05 2.89801e-05)
(-1.62777e-12 5.48637e-06 -0)
(2.51791e-12 -1.0221e-05 -1.0221e-05)
(1.67923e-12 -1.20246e-05 -0)
(2.55668e-13 -5.32349e-06 -5.32349e-06)
(-5.85418e-15 6.9372e-07 -0)
(-8.22537e-15 1.82015e-06 1.82015e-06)
(-1.25342e-15 2.8666e-07 -0)
(-1.07693e-15 -4.91934e-07 -4.91934e-07)
(5.00867e-17 6.93974e-09 0)
(3.32053e-15 5.33011e-07 5.33011e-07)
(2.68812e-15 9.10314e-07 0)
(-2.18207e-08 -0.00290673 -0.00290644)
(-4.46767e-09 0.00123407 -0)
(5.075e-10 -0.000468568 -0.000468564)
(-2.99824e-11 2.0556e-05 -0)
(4.24412e-11 -4.18851e-05 -4.18851e-05)
(6.93731e-13 -1.07205e-06 -0)
(-3.79097e-12 9.50463e-06 9.50462e-06)
(-2.70139e-12 1.00585e-05 -0)
(-1.03619e-12 4.71833e-06 4.71832e-06)
(3.46899e-13 -1.86055e-06 -0)
(6.89803e-13 -5.08552e-06 -5.08552e-06)
(3.09976e-13 -4.33401e-06 -0)
(3.10042e-14 -1.66882e-06 -1.66882e-06)
(2.78318e-15 3.3851e-07 0)
(1.22828e-14 8.18498e-07 8.18498e-07)
(9.34995e-15 5.91787e-07 0)
(9.95808e-15 6.02281e-07 6.02281e-07)
(1.39803e-14 9.24946e-07 0)
(1.17995e-14 1.15119e-06 1.15119e-06)
(6.11196e-15 1.44196e-06 0)
(-2.83727e-09 -0.000591426 -0.000591371)
(-1.3785e-10 0.000474235 -0)
(-3.55116e-11 3.80945e-05 3.80942e-05)
(4.41533e-12 -6.02295e-06 -0)
(-2.48102e-11 2.63426e-05 2.63425e-05)
(8.07025e-12 -1.15401e-05 -0)
(4.33373e-12 -8.49545e-06 -8.49545e-06)
(3.7038e-12 -1.21092e-05 -0)
(1.33125e-12 -8.2088e-06 -8.20879e-06)
(3.03842e-13 -4.20971e-06 -0)
(2.1912e-14 -9.70683e-07 -9.70682e-07)
(2.19007e-15 3.82551e-07 0)
(1.17074e-14 4.87847e-07 4.87847e-07)
(1.43256e-14 4.02694e-07 0)
(2.83453e-14 7.05665e-07 7.05665e-07)
(4.77185e-14 1.24229e-06 0)
(5.39219e-14 1.65968e-06 1.65968e-06)
(4.54662e-14 1.8669e-06 0)
(2.83279e-14 1.89475e-06 1.89475e-06)
(1.14957e-14 2.05111e-06 0)
(1.15253e-09 0.00159903 0.00159887)
(-7.75415e-10 -0.000296415 0)
(-5.84477e-10 0.000500522 0.000500517)
(1.09975e-11 -3.41083e-05 -0)
(-9.07583e-11 8.89205e-05 8.89204e-05)
(1.65147e-11 -2.11079e-05 -0)
(1.3721e-11 -2.37028e-05 -2.37028e-05)
(8.82324e-12 -3.1429e-05 -0)
(1.07072e-12 -1.95842e-05 -1.95841e-05)
(-4.45541e-13 -6.45083e-06 0)
(2.52518e-13 2.51564e-06 2.51564e-06)
(3.98919e-13 4.56411e-06 0)
(1.85702e-13 2.56312e-06 2.56312e-06)
(4.69818e-14 6.75343e-07 0)
(5.51726e-14 7.89842e-07 7.89842e-07)
(1.24041e-13 1.96876e-06 0)
(1.35054e-13 2.74065e-06 2.74065e-06)
(9.71687e-14 2.84657e-06 0)
(5.35746e-14 2.68668e-06 2.68668e-06)
(1.87669e-14 2.6867e-06 0)
(-2.41025e-09 0.0038023 0.00380187)
(-4.75442e-09 -0.000877464 0)
(-1.16271e-09 0.000987525 0.000987514)
(-1.02189e-11 -5.08664e-05 0)
(-1.70256e-10 0.000160231 0.000160231)
(2.86448e-11 -3.28888e-05 -0)
(2.90369e-11 -4.35098e-05 -4.35097e-05)
(1.47117e-11 -5.55569e-05 -0)
(-2.11109e-12 -3.36106e-05 -3.36106e-05)
(-2.10077e-12 -9.01563e-06 0)
(1.70932e-12 6.93482e-06 6.93482e-06)
(1.77057e-12 9.62577e-06 0)
(6.17157e-13 4.86088e-06 4.86088e-06)
(7.64453e-14 7.26455e-07 0)
(6.66106e-14 6.64051e-07 6.64051e-07)
(2.34782e-13 2.66417e-06 0)
(2.54658e-13 3.85483e-06 3.85483e-06)
(1.66622e-13 3.81914e-06 0)
(8.51806e-14 3.44681e-06 3.44681e-06)
(2.72352e-14 3.29111e-06 0)
(-8.48552e-08 0.00792058 0.00791947)
(-2.43539e-08 -0.0024335 0)
(-2.84231e-09 0.00180841 0.00180838)
(-6.92377e-11 -7.92792e-05 0)
(-2.87004e-10 0.000264931 0.00026493)
(4.34031e-11 -4.63139e-05 -0)
(5.24611e-11 -7.18837e-05 -7.18837e-05)
(1.81982e-11 -9.04079e-05 -0)
(-1.29592e-11 -5.42827e-05 -5.42827e-05)
(-5.79164e-12 -1.29477e-05 0)
(5.57381e-12 1.32411e-05 1.32411e-05)
(4.81971e-12 1.6822e-05 0)
(1.38706e-12 7.87408e-06 7.87408e-06)
(4.43413e-14 3.28359e-07 0)
(-5.05894e-15 -3.94382e-08 -3.94382e-08)
(3.56299e-13 3.16792e-06 0)
(4.07313e-13 4.97911e-06 4.97911e-06)
(2.45527e-13 4.73846e-06 0)
(1.17273e-13 4.08918e-06 4.08918e-06)
(3.5498e-14 3.7942e-06 0)
(-1.82422e-07 0.0130423 0.0130398)
(-5.60114e-08 -0.00372746 0)
(-1.7462e-09 0.00272064 0.00272058)
(-1.99951e-10 -8.27434e-05 0)
(-2.55443e-10 0.000399889 0.000399888)
(4.62651e-11 -5.51927e-05 -0)
(8.18253e-11 -0.000103218 -0.000103218)
(2.46328e-11 -0.000132106 -0)
(-3.12041e-11 -8.02964e-05 -8.02963e-05)
(-1.26514e-11 -1.88653e-05 0)
(1.24924e-11 2.02587e-05 2.02587e-05)
(1.02083e-11 2.54942e-05 0)
(2.57304e-12 1.16242e-05 1.16242e-05)
(-4.66465e-14 -3.01292e-07 0)
(-1.9646e-13 -1.31672e-06 -1.31672e-06)
(4.40165e-13 3.29512e-06 0)
(5.66044e-13 5.94852e-06 5.94852e-06)
(3.18018e-13 5.51811e-06 0)
(1.41584e-13 4.54008e-06 4.54008e-06)
(4.15353e-14 4.12045e-06 0)
(-8.63191e-07 0.022294 0.0222879)
(-2.11774e-07 -0.00763647 0)
(6.09899e-10 0.00436292 0.00436279)
(-1.16751e-09 -0.000224621 0)
(8.68254e-11 0.00057448 0.000574479)
(5.48276e-11 -8.1934e-05 -0)
(1.44942e-10 -0.000147776 -0.000147776)
(5.45952e-11 -0.000185942 -0)
(-5.65074e-11 -0.000112117 -0.000112117)
(-2.34645e-11 -2.51185e-05 0)
(2.55576e-11 2.95052e-05 2.95051e-05)
(1.92968e-11 3.60218e-05 0)
(3.9676e-12 1.56471e-05 1.56471e-05)
(-2.61067e-13 -1.71361e-06 0)
(-5.32368e-13 -3.40744e-06 -3.40744e-06)
(4.50179e-13 3.02058e-06 0)
(7.06618e-13 6.73871e-06 6.73871e-06)
(3.64141e-13 6.07683e-06 0)
(1.48632e-13 4.70753e-06 4.70753e-06)
(4.34183e-14 4.20033e-06 0)
(-1.5106e-06 0.0357738 0.0357594)
(-4.64289e-07 -0.010974 0)
(2.73251e-08 0.00656758 0.00656731)
(-2.98002e-09 -0.000287528 0)
(1.60954e-09 0.000819814 0.000819812)
(4.33919e-11 -0.000156683 -0)
(3.61522e-10 -0.000269074 -0.000269074)
(1.77107e-10 -0.000307906 -0)
(-1.0256e-10 -0.000177442 -0.000177441)
(-3.93408e-11 -3.11505e-05 0)
(6.49672e-11 5.48047e-05 5.48046e-05)
(4.03337e-11 5.9496e-05 0)
(5.32466e-12 2.2061e-05 2.2061e-05)
(-7.17582e-13 -7.00216e-06 0)
(-1.23651e-12 -8.7431e-06 -8.7431e-06)
(3.69377e-13 2.29724e-06 0)
(8.99419e-13 8.01613e-06 8.01613e-06)
(3.74381e-13 6.52759e-06 0)
(1.26759e-13 4.39789e-06 4.39789e-06)
(4.00089e-14 3.95423e-06 0)
(-1.42953e-05 0.0725871 0.0725414)
(-3.04733e-06 -0.0305186 0)
(1.06392e-07 0.0138271 0.0138262)
(-6.81989e-09 -0.000322021 0)
(8.5995e-09 0.00176383 0.00176383)
(-3.31333e-12 -5.77394e-05 0)
(1.09196e-09 -0.0004359 -0.000435901)
(9.63522e-10 -0.000594043 -0)
(-9.79406e-11 -0.000385386 -0.000385386)
(-1.41804e-10 -9.10744e-05 0)
(1.65569e-10 0.000102611 0.000102611)
(1.10044e-10 0.00012576 0)
(9.03735e-12 4.84623e-05 4.84624e-05)
(2.82382e-13 -1.78079e-05 -0)
(-2.32968e-12 -2.47235e-05 -2.47235e-05)
(-2.37172e-13 -1.38435e-06 0)
(1.3376e-12 1.11628e-05 1.11628e-05)
(3.78556e-13 7.75867e-06 0)
(7.33542e-14 3.36879e-06 3.36879e-06)
(3.07494e-14 3.24005e-06 0)
(1.9155e-05 -0.0516149 -0.0515616)
(-5.19215e-06 -0.0218259 0)
(1.17851e-07 0.0127679 0.0127666)
(7.73575e-08 0.00180401 0)
(2.956e-08 0.00420114 0.00420115)
(-1.35218e-09 0.0017063 -0)
(-1.89945e-09 0.000316219 0.000316221)
(3.26441e-09 -0.000737064 -0)
(7.92779e-10 -0.000919338 -0.000919338)
(-9.94991e-10 -0.000517865 0)
(-2.67229e-12 -1.09724e-06 -1.09724e-06)
(3.20743e-10 0.000243897 0)
(1.76323e-11 0.000173358 0.000173358)
(-1.81029e-12 6.6152e-06 -0)
(1.95373e-12 -6.04804e-05 -6.04804e-05)
(-4.55954e-12 -2.50869e-05 0)
(1.95828e-12 1.38067e-05 1.38067e-05)
(5.08823e-13 1.3631e-05 0)
(1.91536e-14 2.45245e-06 2.45245e-06)
(1.2265e-14 1.49463e-06 0)
(0.000101073 -0.409437 -0.409445)
(1.79139e-05 0.0480355 0)
(-1.40725e-07 -0.00896958 -0.00896962)
(3.39237e-07 0.00477842 0)
(8.14723e-08 0.0063192 0.00631921)
(6.77628e-09 0.00490421 0)
(-2.11995e-08 0.00240437 0.00240438)
(1.10712e-09 -0.000136303 -0)
(4.76227e-09 -0.0013916 -0.00139161)
(-1.58115e-09 -0.00123998 0)
(-1.12367e-09 -0.00037529 -0.00037529)
(5.65976e-10 0.000291823 0)
(7.31001e-11 0.000364638 0.000364638)
(-5.09854e-11 9.5968e-05 -0)
(2.1821e-11 -8.91481e-05 -8.91481e-05)
(-9.91854e-12 -6.76421e-05 0)
(1.393e-12 8.31046e-06 8.31046e-06)
(7.24654e-13 2.22139e-05 0)
(-3.00136e-14 3.12331e-06 3.12331e-06)
(-5.29132e-15 -1.02656e-06 0)
(-6.43024e-05 0.292888 0.293748)
(-2.11052e-05 -0.0826206 0)
(2.7341e-07 0.0504373 0.0504519)
(-2.10393e-07 -0.00454622 0)
(4.95188e-08 0.00538393 0.00538397)
(-3.43494e-10 -0.000195496 0)
(-1.07693e-09 0.000199947 0.000199945)
(6.88995e-10 -0.000124097 -0)
(-9.70844e-11 3.47017e-05 3.47018e-05)
(4.22309e-11 0.000135531 0)
(3.39516e-10 0.000202035 0.000202035)
(2.29516e-10 0.000188982 0)
(1.87505e-11 0.00011792 0.00011792)
(-1.37023e-11 3.95863e-05 -0)
(-1.25784e-13 6.42003e-07 6.42003e-07)
(1.44378e-13 2.37504e-06 0)
(1.2002e-12 1.27436e-05 1.27436e-05)
(1.7513e-13 1.07024e-05 0)
(-2.57798e-14 2.55697e-06 2.55697e-06)
(-5.91112e-16 -3.64276e-07 0)
)
;

boundaryField
{
    movingWall
    {
        type            calculated;
        value           nonuniform List<vector> 
20
(
(0 1.17083 -0)
(0 -0.246981 -0)
(0 0.137154 -0)
(0 -0.0140545 -0)
(0 0.0075422 -0)
(0 -0.00562578 -0)
(0 -0.00257109 -0)
(0 -0.000787081 -0)
(0 0.001123 -0)
(0 0.00149314 -0)
(0 0.0009258 -0)
(0 0.000219044 -0)
(0 -8.72336e-05 -0)
(0 -3.92076e-05 -0)
(0 6.44909e-05 -0)
(0 6.94843e-05 -0)
(0 2.58833e-05 -0)
(0 4.38444e-06 -0)
(0 2.70268e-06 -0)
(0 9.37415e-07 -0)
)
;
    }
    fixedWalls
    {
        type            calculated;
        value           nonuniform List<vector> 
60
(
(0 -0.0194524 -0)
(0 -0.00593966 -0)
(0 -0.0112305 -0)
(0 -0.0122055 -0)
(0 -1.6852e-05 -0)
(0 0.00822637 -0)
(0 -0.00954288 -0)
(0 -0.0159795 -0)
(0 -0.00552092 -0)
(0 -0.00205962 -0)
(0 0.00164458 -0)
(0 0.00453472 -0)
(0 0.012136 -0)
(0 0.0187428 -0)
(0 0.0366858 -0)
(0 0.0526822 -0)
(0 0.141664 -0)
(0 0.0833443 -0)
(0 -0.298078 -0)
(0 0.383619 -0)
(0 -1.45391e-08 -0)
(0 -4.4663e-08 -0)
(0 -4.136e-08 -0)
(0 2.29832e-08 -0)
(0 1.82947e-07 -0)
(0 4.20851e-07 -0)
(0 7.39557e-07 -0)
(0 1.17323e-06 -0)
(0 1.68857e-06 -0)
(0 2.23742e-06 -0)
(0 2.78815e-06 -0)
(0 3.30243e-06 -0)
(0 3.73308e-06 -0)
(0 4.026e-06 -0)
(0 4.14408e-06 -0)
(0 4.10736e-06 -0)
(0 3.9097e-06 -0)
(0 3.17545e-06 -0)
(0 1.48073e-06 -0)
(0 1.13075e-06 -0)
(0 -0.0305869 -0)
(0 0.00710464 -0)
(0 -0.00356549 -0)
(0 0.000207861 -0)
(0 -0.000468593 -0)
(0 -0.000100788 -0)
(0 -0.000152269 -0)
(0 -0.00014436 -0)
(0 -0.000146257 -0)
(0 -0.000117301 -0)
(0 -7.73962e-05 -0)
(0 -4.31246e-05 -0)
(0 -2.38068e-05 -0)
(0 -1.57596e-05 -0)
(0 -1.1326e-05 -0)
(0 -6.85802e-06 -0)
(0 -3.1206e-06 -0)
(0 -1.11266e-06 -0)
(0 -3.31703e-07 -0)
(0 -4.7173e-08 -0)
)
;
    }
    frontAndBack
    {
        type            empty;
    }
}


// ************************************************************************* //
