/*--------------------------------*- C++ -*----------------------------------*\
| =========                 |                                                 |
| \\      /  F ield         | OpenFOAM: The Open Source CFD Toolbox           |
|  \\    /   O peration     | Version:  2312                                  |
|   \\  /    A nd           | Website:  www.openfoam.com                      |
|    \\/     M anipulation  |                                                 |
\*---------------------------------------------------------------------------*/
FoamFile
{
    version     2.0;
    format      ascii;
    arch        "LSB;label=32;scalar=64";
    class       volScalarField;
    location    "2.625";
    object      Lambda2Field;
}
// * * * * * * * * * * * * * * * * * * * * * * * * * * * * * * * * * * * * * //

dimensions      [0 0 -2 0 0 0 0];

internalField   nonuniform List<scalar> 
400
(
2.71765e-05
0
5.98664e-07
5.08954e-08
0
1.45441e-10
0
1.82043e-10
4.66166e-10
5.32668e-10
3.66682e-10
1.27171e-10
1.22349e-11
-1.70647e-12
3.36847e-12
3.98456e-12
1.75913e-12
2.84994e-13
2.78144e-14
5.01866e-16
3.42786e-06
9.94148e-07
4.25902e-08
7.05248e-08
1.06439e-08
2.29679e-09
5.21611e-10
-2.44632e-11
0
3.39143e-10
4.2944e-10
2.19229e-10
5.70507e-11
8.57621e-12
2.8365e-12
3.94593e-12
2.26243e-12
4.39656e-13
3.84079e-14
0
8.27478e-06
2.8935e-06
2.71093e-07
1.18519e-07
1.66251e-08
4.83646e-09
1.94863e-09
-3.91486e-11
0
2.39988e-10
4.91542e-10
2.86177e-10
8.93094e-11
1.52011e-11
2.68998e-13
2.93231e-12
2.36577e-12
5.5443e-13
5.03918e-14
-4.21035e-17
9.19342e-06
8.35289e-06
1.37173e-06
1.72279e-07
3.11186e-08
3.00418e-09
3.43974e-09
0
0
-2.59695e-10
5.23597e-10
3.55268e-10
1.06529e-10
2.54959e-11
0
8.50127e-13
2.46205e-12
6.52492e-13
1.01071e-13
2.97385e-15
3.55861e-05
1.68551e-05
5.30306e-06
6.27946e-08
5.96387e-08
-1.5344e-08
0
-1.07475e-10
0
-1.60598e-09
3.27031e-10
3.06555e-10
3.71922e-11
2.11577e-11
0
-2.78146e-12
2.47573e-12
5.86581e-13
1.55003e-13
7.80706e-15
2.504e-05
1.69278e-05
6.50929e-06
4.74736e-08
7.5454e-08
-2.19458e-08
0
4.13882e-10
0
-2.0281e-09
2.87744e-10
3.17954e-10
1.86245e-11
1.57816e-11
0
-2.04131e-12
4.44202e-12
9.72953e-13
1.62001e-13
1.2525e-14
9.8269e-06
1.1837e-05
1.38785e-06
2.76317e-07
4.16231e-08
3.41228e-10
6.60851e-09
1.87787e-09
0
-4.03928e-10
7.34752e-10
4.95033e-10
1.23993e-10
2.60303e-11
0
7.14815e-12
8.01988e-12
1.82012e-12
1.96988e-13
3.45755e-14
1.33623e-05
1.81409e-06
6.54352e-09
1.25501e-07
1.37964e-08
6.75073e-09
5.29978e-09
9.04952e-10
0
3.60097e-10
6.98703e-10
4.02029e-10
1.32177e-10
2.38239e-11
7.22826e-12
1.41762e-11
8.88944e-12
2.24649e-12
3.74614e-13
6.54102e-14
5.07556e-06
5.90826e-07
5.2846e-10
2.97501e-08
3.83143e-09
3.93649e-09
2.65268e-09
5.32952e-10
1.70956e-10
5.58502e-10
5.46307e-10
2.89132e-10
1.01438e-10
3.17881e-11
2.13314e-11
1.84186e-11
9.23518e-12
2.75026e-12
6.49652e-13
8.02855e-14
4.84421e-07
4.45464e-07
7.0631e-10
1.29151e-08
2.74377e-10
1.54852e-09
1.5559e-09
7.90836e-10
5.56089e-10
7.89003e-10
6.10414e-10
2.76043e-10
9.32901e-11
4.04663e-11
3.01688e-11
2.19191e-11
1.05987e-11
3.41962e-12
8.68258e-13
8.45282e-14
1.57922e-06
4.17587e-07
2.50076e-09
8.43791e-09
1.48126e-10
1.31387e-09
1.71525e-09
1.11722e-09
9.78883e-10
1.07181e-09
7.07652e-10
3.04409e-10
1.02086e-10
4.83685e-11
3.62381e-11
2.48972e-11
1.20949e-11
3.97067e-12
1.00872e-12
8.72118e-14
6.97061e-06
5.97081e-07
2.41564e-09
1.38465e-08
7.72014e-10
5.01539e-10
1.73794e-09
1.33805e-09
1.48846e-09
1.55137e-09
9.63353e-10
4.1812e-10
1.33857e-10
4.80338e-11
3.60318e-11
2.70738e-11
1.35926e-11
4.43164e-12
1.07016e-12
8.16613e-14
1.69182e-05
0
2.95409e-09
4.76034e-08
4.15625e-09
0
1.57428e-09
6.85699e-10
1.53243e-09
2.01107e-09
1.45966e-09
6.56055e-10
2.0592e-10
4.59457e-11
2.9033e-11
2.75353e-11
1.54207e-11
5.01101e-12
1.09777e-12
6.77915e-14
5.17509e-05
0
3.91455e-08
1.86975e-07
3.0997e-08
1.80492e-09
6.23537e-10
-1.56519e-09
1.20994e-09
2.45995e-09
2.13003e-09
1.13999e-09
3.70949e-10
5.7223e-11
1.55607e-11
2.47728e-11
1.82801e-11
6.28079e-12
1.11597e-12
3.48857e-14
2.40938e-05
0
2.35809e-07
6.31422e-07
9.48005e-08
2.52384e-08
4.3543e-09
-4.05099e-09
1.43384e-09
3.66244e-09
3.55944e-09
2.31653e-09
8.80396e-10
1.31624e-10
1.51139e-12
1.82819e-11
2.2394e-11
9.17413e-12
1.29147e-12
-3.86626e-14
0.000429022
2.26467e-05
5.78623e-07
2.66534e-06
3.55658e-07
1.66446e-07
5.02485e-08
-4.59644e-09
1.62241e-09
5.67713e-09
6.55257e-09
4.44731e-09
2.08407e-09
4.52778e-10
2.32021e-11
6.79453e-12
2.64422e-11
1.62101e-11
2.45175e-12
-2.24108e-13
0.00139304
0.000163783
1.1681e-06
1.07437e-05
8.35435e-07
5.89996e-07
3.27015e-07
2.62639e-08
0
1.04346e-08
1.21989e-08
6.0896e-09
3.83395e-09
1.62335e-09
1.72965e-10
7.40089e-12
2.19239e-11
2.40241e-11
6.55795e-12
-2.95061e-13
0.000297911
0.000977604
3.19881e-05
2.44672e-05
7.39794e-07
-2.76483e-07
4.40662e-07
3.08044e-07
0
-6.11062e-08
2.28018e-08
8.87454e-09
0
2.7475e-09
5.13154e-10
-1.26493e-10
3.18328e-11
-4.46233e-13
1.10468e-11
3.59343e-13
0
0.00195281
0.00119296
-1.14272e-06
5.21988e-06
-5.86878e-06
0
2.27683e-07
0
-3.58005e-07
0
-3.23602e-09
0
-2.23209e-09
0
-9.42474e-10
5.99899e-11
-7.49058e-11
2.03084e-12
1.74546e-13
0.00805918
0.00237412
0
0.000135949
0
2.51044e-06
2.41536e-06
1.60449e-06
7.45231e-07
2.86412e-07
2.459e-07
9.35241e-08
7.2058e-09
7.44464e-09
3.55683e-09
1.34075e-09
6.46117e-10
2.11163e-11
2.23086e-12
8.66765e-13
)
;

boundaryField
{
    movingWall
    {
        type            calculated;
        value           nonuniform List<scalar> 
20
(
0.0362045
0.00115178
0
0.000337487
0
1.08252e-05
5.09968e-06
1.43288e-06
1.38337e-06
8.84732e-07
3.11249e-07
8.89502e-08
3.92227e-08
1.02413e-08
6.15502e-09
3.29569e-09
5.87742e-10
8.85272e-11
2.01607e-12
1.92994e-12
)
;
    }
    fixedWalls
    {
        type            calculated;
        value           nonuniform List<scalar> 
60
(
5.85988e-06
0
2.72494e-05
0
7.4472e-05
6.65123e-05
4.89972e-06
0
4.00007e-06
1.90155e-07
1.52829e-06
2.21603e-07
4.96257e-06
0
8.15841e-06
0
0.0010895
0
0.0391032
0
1.50553e-16
1.82007e-17
0
0
0
0
1.60995e-14
2.83034e-14
2.53618e-14
2.2011e-14
2.63426e-14
3.3004e-14
3.93322e-14
2.71166e-14
0
-2.35967e-13
0
5.39153e-13
1.21852e-12
1.46652e-13
2.02542e-05
0
1.54741e-06
4.5759e-08
0
0
0
3.67227e-10
8.98143e-10
7.10444e-10
3.23387e-10
5.68059e-11
0
-1.00972e-11
2.78448e-12
3.69418e-12
1.20635e-12
1.60015e-13
1.20093e-14
8.06056e-16
)
;
    }
    frontAndBack
    {
        type            empty;
    }
}


// ************************************************************************* //
