/*--------------------------------*- C++ -*----------------------------------*\
| =========                 |                                                 |
| \\      /  F ield         | OpenFOAM: The Open Source CFD Toolbox           |
|  \\    /   O peration     | Version:  2312                                  |
|   \\  /    A nd           | Website:  www.openfoam.com                      |
|    \\/     M anipulation  |                                                 |
\*---------------------------------------------------------------------------*/
FoamFile
{
    version     2.0;
    format      ascii;
    arch        "LSB;label=32;scalar=64";
    class       volVectorField;
    location    "2.625";
    object      U;
}
// * * * * * * * * * * * * * * * * * * * * * * * * * * * * * * * * * * * * * //

dimensions      [0 1 -1 0 0 0 0];

internalField   nonuniform List<vector> 
400
(
(-1.00008 7.90973e-06 0)
(-0.999984 -2.89236e-06 0)
(-1.00001 -1.05554e-07 0)
(-1 -5.45484e-07 0)
(-1 -1.98705e-07 0)
(-1 -7.21071e-08 0)
(-1 5.88372e-09 0)
(-1 1.05149e-08 0)
(-1 -1.88617e-08 0)
(-1 -4.57477e-08 0)
(-1 -5.00515e-08 0)
(-1 -3.48063e-08 0)
(-1 -1.6166e-08 0)
(-1 -6.2919e-09 0)
(-1 -4.94014e-09 0)
(-1 -5.30077e-09 0)
(-1 -3.7645e-09 0)
(-1 -1.63673e-09 0)
(-1 -5.0428e-10 0)
(-1 -4.76557e-11 0)
(-1.00009 1.0395e-05 0)
(-0.999981 -7.14408e-06 0)
(-1.00001 -6.86261e-07 0)
(-0.999999 -1.73669e-06 0)
(-1 -5.8734e-07 0)
(-1 -2.1507e-07 0)
(-1 3.48323e-08 0)
(-1 3.79984e-08 0)
(-1 -5.69575e-08 0)
(-1 -1.409e-07 0)
(-1 -1.51765e-07 0)
(-1 -1.03e-07 0)
(-1 -4.62144e-08 0)
(-1 -1.75588e-08 0)
(-1 -1.43668e-08 0)
(-1 -1.55764e-08 0)
(-1 -1.0909e-08 0)
(-1 -4.63391e-09 0)
(-1 -1.38691e-09 0)
(-1 -1.11157e-10 0)
(-1.00009 2.49317e-05 0)
(-0.999981 -1.45868e-05 0)
(-1.00001 -8.76158e-07 0)
(-0.999999 -3.19521e-06 0)
(-1 -9.60243e-07 0)
(-1 -3.41894e-07 0)
(-1 9.6724e-08 0)
(-1 8.49462e-08 0)
(-1 -8.8487e-08 0)
(-1 -2.36812e-07 0)
(-1 -2.53913e-07 0)
(-1 -1.67516e-07 0)
(-1 -6.97832e-08 0)
(-1 -2.32363e-08 0)
(-1 -2.09473e-08 0)
(-1 -2.47096e-08 0)
(-1 -1.71191e-08 0)
(-1 -6.72898e-09 0)
(-1 -1.79476e-09 0)
(-1 -9.97188e-11 0)
(-1.0001 3.91393e-05 0)
(-0.999981 -2.46241e-05 0)
(-1.00001 -1.45772e-06 0)
(-0.999999 -5.17947e-06 0)
(-1 -1.43211e-06 0)
(-1 -4.55882e-07 0)
(-1 2.51104e-07 0)
(-1 2.21348e-07 0)
(-1 -6.95865e-08 0)
(-1 -3.23518e-07 0)
(-1 -3.64634e-07 0)
(-1 -2.35574e-07 0)
(-1 -8.59255e-08 0)
(-1 -1.81944e-08 0)
(-1 -2.10483e-08 0)
(-1 -3.17639e-08 0)
(-1 -2.23373e-08 0)
(-1 -7.5726e-09 0)
(-1 -1.37401e-09 0)
(-1 4.27427e-11 0)
(-1.00006 4.27831e-05 0)
(-0.99999 -3.58933e-05 0)
(-1.00001 -1.93914e-06 0)
(-1 -7.34764e-06 0)
(-1 -1.86271e-06 0)
(-1 -5.70972e-07 0)
(-1 4.4178e-07 0)
(-1 4.04847e-07 0)
(-1 -6.16128e-09 0)
(-1 -3.82313e-07 0)
(-1 -4.63281e-07 0)
(-1 -2.97696e-07 0)
(-1 -9.46642e-08 0)
(-1 -4.16222e-09 0)
(-1 -1.39873e-08 0)
(-1 -3.48732e-08 0)
(-1 -2.55013e-08 0)
(-1 -6.95093e-09 0)
(-1 -1.70038e-11 0)
(-1 3.94749e-10 0)
(-0.999929 3.41231e-05 0)
(-1.00002 -3.67865e-05 0)
(-0.999993 -2.29116e-06 0)
(-1 -7.716e-06 0)
(-1 -1.98636e-06 0)
(-1 -6.27907e-07 0)
(-1 4.47916e-07 0)
(-1 4.24253e-07 0)
(-1 2.5188e-11 0)
(-1 -3.9433e-07 0)
(-1 -4.81026e-07 0)
(-1 -3.073e-07 0)
(-1 -9.27365e-08 0)
(-1 2.97968e-09 0)
(-1 -8.23412e-09 0)
(-1 -3.15977e-08 0)
(-1 -2.28059e-08 0)
(-1 -4.3116e-09 0)
(-1 1.73945e-09 0)
(-1 9.78329e-10 0)
(-0.99984 3.57588e-05 0)
(-1.00003 -2.36007e-05 0)
(-0.999984 -1.54409e-06 0)
(-1 -5.00161e-06 0)
(-0.999999 -1.47411e-06 0)
(-1 -5.41069e-07 0)
(-1 1.23171e-07 0)
(-1 1.00967e-07 0)
(-1 -1.60815e-07 0)
(-1 -3.74662e-07 0)
(-1 -3.7978e-07 0)
(-1 -2.28744e-07 0)
(-1 -7.23242e-08 0)
(-1 -5.88029e-09 0)
(-1 -1.03903e-08 0)
(-1 -2.09889e-08 0)
(-1 -1.18488e-08 0)
(-1 6.70122e-10 0)
(-1 3.50597e-09 0)
(-1 1.8282e-09 0)
(-0.999882 2.46501e-05 0)
(-1.00003 -9.8459e-06 0)
(-0.999988 -1.07381e-06 0)
(-1 -2.45233e-06 0)
(-0.999999 -1.08566e-06 0)
(-1 -5.48579e-07 0)
(-1 -2.20748e-07 0)
(-1 -1.8365e-07 0)
(-1 -2.55503e-07 0)
(-1 -2.96694e-07 0)
(-1 -2.46348e-07 0)
(-1 -1.39649e-07 0)
(-1 -4.80264e-08 0)
(-1 -8.43883e-09 0)
(-1 -4.51905e-09 0)
(-1 -4.37251e-09 0)
(-1 2.18917e-09 0)
(-1 7.21737e-09 0)
(-1 6.22977e-09 0)
(-1 2.95296e-09 0)
(-0.999901 7.50622e-06 0)
(-1.00002 -3.62036e-06 0)
(-0.99999 -1.08308e-06 0)
(-1 -1.45858e-06 0)
(-0.999999 -1.01328e-06 0)
(-1 -6.47108e-07 0)
(-1 -3.98855e-07 0)
(-1 -2.68569e-07 0)
(-1 -2.1961e-07 0)
(-1 -1.8645e-07 0)
(-1 -1.35641e-07 0)
(-1 -7.15217e-08 0)
(-1 -1.85785e-08 0)
(-1 8.22185e-09 0)
(-1 1.50066e-08 0)
(-1 1.57995e-08 0)
(-1 1.6534e-08 0)
(-1 1.51147e-08 0)
(-1 1.02498e-08 0)
(-1 4.23864e-09 0)
(-0.999907 4.79689e-06 0)
(-1.00002 -2.90686e-07 0)
(-0.999991 -9.32189e-07 0)
(-1 -7.33085e-07 0)
(-0.999999 -9.41828e-07 0)
(-1 -6.9932e-07 0)
(-0.999999 -5.10123e-07 0)
(-0.999999 -3.05867e-07 0)
(-0.999999 -1.62173e-07 0)
(-1 -7.21764e-08 0)
(-1 -2.25738e-08 0)
(-1 5.7249e-09 0)
(-1 2.39981e-08 0)
(-1 3.55745e-08 0)
(-1 4.01682e-08 0)
(-1 3.84117e-08 0)
(-1 3.24894e-08 0)
(-1 2.43539e-08 0)
(-1 1.49507e-08 0)
(-1 5.60461e-09 0)
(-0.999902 7.20698e-07 0)
(-1.00003 2.61604e-06 0)
(-0.99999 -1.16772e-06 0)
(-1 -3.22429e-07 0)
(-0.999999 -1.02067e-06 0)
(-1 -7.82394e-07 0)
(-0.999999 -5.78875e-07 0)
(-0.999999 -2.80735e-07 0)
(-0.999999 -5.46729e-08 0)
(-1 6.90672e-08 0)
(-1 1.00379e-07 0)
(-1 8.74035e-08 0)
(-1 7.24514e-08 0)
(-1 6.95674e-08 0)
(-1 6.98527e-08 0)
(-1 6.30048e-08 0)
(-1 4.92781e-08 0)
(-1 3.41354e-08 0)
(-1 1.99408e-08 0)
(-1 6.98513e-09 0)
(-0.999888 -6.33822e-07 0)
(-1.00003 5.41853e-06 0)
(-0.999989 -1.17739e-06 0)
(-1 2.00898e-07 0)
(-0.999999 -1.06256e-06 0)
(-1 -8.70958e-07 0)
(-0.999999 -6.67366e-07 0)
(-0.999999 -2.64803e-07 0)
(-0.999999 6.28103e-08 0)
(-0.999999 2.33015e-07 0)
(-1 2.46483e-07 0)
(-1 1.83941e-07 0)
(-1 1.26964e-07 0)
(-1 1.05231e-07 0)
(-1 1.0031e-07 0)
(-1 8.81256e-08 0)
(-1 6.6062e-08 0)
(-1 4.36282e-08 0)
(-1 2.47129e-08 0)
(-1 8.27537e-09 0)
(-0.99986 -1.07118e-05 0)
(-1.00003 1.00081e-05 0)
(-0.999986 -1.57169e-06 0)
(-1 8.73342e-07 0)
(-0.999998 -1.08331e-06 0)
(-1 -9.3715e-07 0)
(-0.999999 -7.29805e-07 0)
(-0.999999 -2.01289e-07 0)
(-0.999999 2.38735e-07 0)
(-0.999999 4.4731e-07 0)
(-1 4.20948e-07 0)
(-1 2.86512e-07 0)
(-1 1.76155e-07 0)
(-1 1.35039e-07 0)
(-1 1.28275e-07 0)
(-1 1.12471e-07 0)
(-1 8.18044e-08 0)
(-1 5.18158e-08 0)
(-1 2.86787e-08 0)
(-1 9.35585e-09 0)
(-0.999809 -1.39843e-05 0)
(-1.00004 1.50273e-05 0)
(-0.99998 -6.41822e-07 0)
(-1 2.41653e-06 0)
(-0.999998 -6.38783e-07 0)
(-1 -8.38246e-07 0)
(-0.999999 -7.92741e-07 0)
(-0.999999 -1.86462e-07 0)
(-0.999999 3.88612e-07 0)
(-0.999999 6.70619e-07 0)
(-1 6.16643e-07 0)
(-1 4.00416e-07 0)
(-1 2.21352e-07 0)
(-1 1.54821e-07 0)
(-1 1.49204e-07 0)
(-1 1.33581e-07 0)
(-1 9.51572e-08 0)
(-1 5.76317e-08 0)
(-1 3.11854e-08 0)
(-1 1.00803e-08 0)
(-0.999728 -3.8708e-05 0)
(-1.00006 2.77336e-05 0)
(-0.999971 1.39787e-07 0)
(-1 5.19769e-06 0)
(-0.999997 1.51137e-07 0)
(-1 -6.69168e-07 0)
(-0.999999 -9.80817e-07 0)
(-0.999999 -2.93614e-07 0)
(-0.999999 5.04004e-07 0)
(-0.999999 9.34152e-07 0)
(-1 8.66207e-07 0)
(-1 5.35697e-07 0)
(-1 2.53569e-07 0)
(-1 1.52349e-07 0)
(-1 1.56237e-07 0)
(-1 1.49037e-07 0)
(-1 1.04859e-07 0)
(-1 5.99228e-08 0)
(-1 3.15732e-08 0)
(-1 1.03369e-08 0)
(-0.999597 -4.22095e-05 0)
(-1.00008 4.23113e-05 0)
(-0.999959 4.16043e-06 0)
(-1 1.03643e-05 0)
(-0.999998 1.96329e-06 0)
(-1 -2.76941e-07 0)
(-1 -1.34358e-06 0)
(-1 -5.75198e-07 0)
(-0.999999 5.77995e-07 0)
(-0.999999 1.26292e-06 0)
(-1 1.18543e-06 0)
(-1 6.77923e-07 0)
(-1 2.41361e-07 0)
(-1 1.0248e-07 0)
(-1 1.41427e-07 0)
(-1 1.60792e-07 0)
(-1 1.12201e-07 0)
(-1 5.73537e-08 0)
(-1 2.88227e-08 0)
(-1 1.0118e-08 0)
(-0.99937 -0.000196816 0)
(-1.00012 9.98636e-05 0)
(-0.999937 7.694e-06 0)
(-1.00001 2.11786e-05 0)
(-1 4.87547e-06 0)
(-1.00001 5.73845e-08 0)
(-1 -2.50507e-06 0)
(-1 -1.62198e-06 0)
(-0.999999 2.54136e-07 0)
(-0.999999 1.55701e-06 0)
(-1 1.61357e-06 0)
(-1 8.7503e-07 0)
(-1 1.86482e-07 0)
(-1 -1.58572e-08 0)
(-1 9.42295e-08 0)
(-1 1.71324e-07 0)
(-1 1.19826e-07 0)
(-1 4.87914e-08 0)
(-1 2.17747e-08 0)
(-1 9.4904e-09 0)
(-0.998968 -0.000370731 0)
(-1.00018 0.000237932 0)
(-0.999899 9.22934e-06 0)
(-1.00001 4.28813e-05 0)
(-1 7.03619e-06 0)
(-1.00001 -7.9247e-07 0)
(-1.00001 -6.00681e-06 0)
(-1 -4.42895e-06 0)
(-1 -8.62337e-07 0)
(-0.999999 1.92133e-06 0)
(-0.999999 2.43547e-06 0)
(-1 1.31507e-06 0)
(-1 1.0171e-07 0)
(-1 -2.73656e-07 0)
(-1 -3.23036e-08 0)
(-1 1.8175e-07 0)
(-1 1.41836e-07 0)
(-1 3.73285e-08 0)
(-1 7.80999e-09 0)
(-1 8.20608e-09 0)
(-1.00002 -0.000246863 0)
(-0.99996 0.000372916 0)
(-1 1.56892e-05 0)
(-0.999993 7.09929e-05 0)
(-1 1.28928e-05 0)
(-1 1.38173e-06 0)
(-1 -8.81709e-06 0)
(-1 -8.1225e-06 0)
(-1 -3.42215e-06 0)
(-1 1.27514e-06 0)
(-1 2.99413e-06 0)
(-1 1.93945e-06 0)
(-1 2.00473e-07 0)
(-1 -5.31275e-07 0)
(-1 -2.44772e-07 0)
(-1 1.46633e-07 0)
(-1 1.6762e-07 0)
(-1 3.26216e-08 0)
(-1 -9.60958e-09 0)
(-1 5.15443e-09 0)
(-1.00294 -0.00022019 0)
(-0.999439 0.000255304 0)
(-1.00029 5.42236e-06 0)
(-0.999966 4.62771e-05 0)
(-1.00001 9.19759e-06 0)
(-0.999982 1.757e-06 0)
(-0.999992 -5.38602e-06 0)
(-0.999999 -5.55204e-06 0)
(-1 -2.7977e-06 0)
(-1 3.11598e-07 0)
(-1 1.68049e-06 0)
(-1 1.21449e-06 0)
(-0.999999 1.5901e-07 0)
(-1 -3.46139e-07 0)
(-1 -1.95924e-07 0)
(-1 6.07895e-08 0)
(-1 9.41808e-08 0)
(-1 1.63636e-08 0)
(-1 -1.00822e-08 0)
(-1 1.6227e-09 0)
)
;

boundaryField
{
    movingWall
    {
        type            fixedValue;
        value           uniform (-1 -0 -0);
    }
    fixedWalls
    {
        type            noSlip;
    }
    frontAndBack
    {
        type            empty;
    }
}


// ************************************************************************* //
