/*--------------------------------*- C++ -*----------------------------------*\
| =========                 |                                                 |
| \\      /  F ield         | OpenFOAM: The Open Source CFD Toolbox           |
|  \\    /   O peration     | Version:  2312                                  |
|   \\  /    A nd           | Website:  www.openfoam.com                      |
|    \\/     M anipulation  |                                                 |
\*---------------------------------------------------------------------------*/
FoamFile
{
    version     2.0;
    format      ascii;
    arch        "LSB;label=32;scalar=64";
    class       volVectorField;
    location    "2.625";
    object      URandom;
}
// * * * * * * * * * * * * * * * * * * * * * * * * * * * * * * * * * * * * * //

dimensions      [0 1 -1 0 0 0 0];

internalField   nonuniform List<vector> 
400
(
(-0.909127 -0.00192433 -0.0415285)
(-0.929324 -0.0374091 -0.0600658)
(-0.986257 0.0485122 -0.0863566)
(-1.07498 0.029501 -0.0592215)
(-1.06806 -0.0425826 0.0596178)
(-1.08848 0.0188402 0.0426155)
(-0.959929 0.0192073 0.0895845)
(-0.920104 0.0593512 0.00969639)
(-1.07912 0.0105654 0.060238)
(-1.08583 0.0335513 -0.0388219)
(-0.982073 -0.098379 0.000458146)
(-0.97318 -0.0681338 -0.0681063)
(-1.05604 -0.0684185 -0.0466777)
(-1.08391 0.04204 0.0345147)
(-0.953185 -0.0875887 0.0116875)
(-1.06827 -0.0667297 -0.029771)
(-0.948569 0.0289689 -0.0807197)
(-1.03414 -0.0668193 0.0661037)
(-1.07467 -0.0612449 0.0259411)
(-1.06177 -0.0519362 0.0590508)
(-0.960725 -0.0630867 0.0668531)
(-0.946713 -0.0280418 0.079853)
(-0.960862 -0.0837284 0.0381731)
(-0.928697 0.0547018 -0.0438576)
(-1.05935 0.0601836 -0.0534423)
(-1.03058 -0.0312124 0.0899488)
(-1.06026 0.0796734 0.00453629)
(-0.95907 0.0789357 -0.045759)
(-1.05516 -0.0784492 -0.028332)
(-1.05826 0.08125 -0.0019737)
(-1.06913 -0.0188456 0.0697597)
(-0.978153 0.0235864 -0.0946911)
(-0.969732 0.0933084 -0.0194262)
(-1.03113 0.02215 -0.0924131)
(-1.07189 -0.0635992 -0.0280459)
(-1.0013 0.0994663 0.0102352)
(-0.902058 0.0200484 -0.00234655)
(-1.00841 -0.0736979 0.0670657)
(-0.991775 -0.0659419 0.0747263)
(-1.00101 0.0953987 -0.0299677)
(-0.975199 -0.0431604 -0.0866909)
(-0.943519 0.0705444 0.042819)
(-1.04441 -0.0789705 -0.0423353)
(-0.969851 0.089361 0.0332439)
(-1.0289 -0.0322272 0.090146)
(-0.9077 -0.035857 0.0139653)
(-1.06138 0.00031818 -0.0789441)
(-1.05743 -0.023204 0.0785039)
(-1.0776 -0.0527637 0.0345514)
(-0.952445 -0.0863072 -0.0170183)
(-1.05644 0.0734178 -0.0377373)
(-0.976817 -0.0873198 0.0428702)
(-0.965659 0.081239 -0.0471265)
(-1.06591 0.00228557 0.0751667)
(-1.06703 -0.0239818 0.070226)
(-0.960491 0.0376499 -0.0837945)
(-0.964082 -0.0632557 -0.0686192)
(-0.958811 -0.037152 0.0832056)
(-0.932728 -0.0733738 0.00952383)
(-1.02596 -0.0773622 0.0578014)
(-1.0745 0.0217941 0.0631794)
(-1.06098 -0.00872395 0.0787601)
(-1.04232 0.0846904 -0.0322011)
(-1.04461 0.0174602 -0.0877762)
(-0.907811 0.0307689 0.0235414)
(-0.926175 -0.0425261 0.0523594)
(-1.01439 -0.0799219 -0.0583546)
(-0.980975 -0.0274543 0.0942565)
(-0.914353 -0.0102771 0.0505854)
(-0.929099 -0.0669205 0.0222414)
(-1.00189 0.0308743 0.0950957)
(-0.936977 -0.0338553 -0.0698711)
(-0.980382 -0.0530486 0.082468)
(-0.960959 -0.066857 -0.0632927)
(-1.06782 -0.0210332 -0.0704129)
(-1.02509 0.0964198 0.00859801)
(-1.09264 -0.0324533 -0.0190843)
(-0.943338 0.0593779 -0.0571289)
(-1.02092 -0.0948914 0.0236179)
(-1.00097 -0.0981246 0.0192512)
(-1.05071 0.0400917 0.0763587)
(-1.09655 -0.0260079 -0.00122472)
(-0.95497 0.0647423 0.0614815)
(-1.09626 -0.0199061 -0.0184048)
(-1.08016 0.00167062 -0.0597651)
(-0.984386 -0.0938077 0.0309262)
(-0.91361 -0.0379342 -0.0331328)
(-1.04903 0.0667131 -0.0560849)
(-1.06545 0.0746759 0.0118332)
(-0.982325 0.0593702 0.078503)
(-0.975277 0.0377815 0.089226)
(-0.911874 0.0406859 -0.0240495)
(-0.981904 0.0559279 0.0808986)
(-0.947348 0.0307621 -0.0792558)
(-0.959287 0.0686721 -0.0602214)
(-1.07626 0.0191854 0.0617809)
(-0.902468 0.0117523 -0.0186896)
(-0.979619 0.063959 0.0741205)
(-0.940898 -0.054518 -0.0594537)
(-0.939673 0.0283694 -0.0745373)
(-1.0458 -0.0486255 -0.074353)
(-0.97142 0.0771471 0.056789)
(-1.08781 0.00222489 0.0477793)
(-0.929913 0.0375499 -0.0606385)
(-1.01373 0.0429065 -0.0892772)
(-0.981372 -0.0365365 -0.0912036)
(-1.05196 0.0851812 -0.00665653)
(-0.964405 -0.012495 0.0926114)
(-0.924746 0.0492553 0.0437129)
(-0.957442 0.0109992 0.0898214)
(-1.07699 -0.0144907 -0.0621458)
(-0.966506 0.0377348 0.0863376)
(-0.92555 -0.0590143 0.031217)
(-1.00789 0.0991486 -0.0103555)
(-1.06101 0.0524872 -0.0593523)
(-0.974992 -0.0311061 0.0916898)
(-0.936072 -0.0660134 0.0394386)
(-0.985629 -0.0733503 0.0664321)
(-1.00262 -0.0633588 -0.0773226)
(-0.929133 0.0484812 -0.0512589)
(-0.967723 0.0776865 -0.0542116)
(-0.906951 -0.0306079 0.0200098)
(-1.06211 0.046363 -0.0631754)
(-0.919742 -0.0596162 0.00218348)
(-0.958882 -0.0356145 0.0839113)
(-1.04885 0.0824772 -0.028475)
(-0.911175 -0.0387989 0.0245913)
(-0.954435 0.0877178 -0.0151481)
(-0.99401 -0.0266348 0.0962014)
(-0.964889 0.0648306 0.0675587)
(-0.907805 -0.00436306 0.0384858)
(-1.04546 -0.0858378 -0.0237666)
(-0.914238 -0.0338054 -0.0387568)
(-1.05536 0.0186518 0.0811638)
(-0.986918 -0.0159638 0.0978469)
(-0.94637 -0.0843998 -0.000748011)
(-0.960929 -0.0914724 0.0103098)
(-0.966257 0.0540772 0.0770523)
(-0.932822 -0.0231571 -0.0703625)
(-0.923375 0.0411002 -0.04939)
(-0.941526 0.0467121 0.066445)
(-0.934642 -0.0606445 0.0452572)
(-0.995137 0.0562619 -0.0825285)
(-0.959981 -0.0608684 0.0685098)
(-1.05715 -0.065168 -0.0498725)
(-0.975058 0.0495628 -0.0831947)
(-1.00659 -0.0902318 -0.0426004)
(-0.986365 -0.0921884 -0.0362688)
(-1.02365 -0.000247495 0.0971622)
(-0.927767 -0.0634597 0.0274835)
(-0.956933 0.0307367 0.0848555)
(-0.986986 -0.0620044 -0.0773699)
(-1.0744 0.0207406 0.0635143)
(-1.0217 0.0456389 -0.0862913)
(-1.05059 -0.0811578 -0.0292302)
(-0.921297 -0.0616709 -0.00160806)
(-1.06986 -0.0276503 0.0659887)
(-1.02524 0.0965788 0.00596221)
(-1.08278 -0.0327938 0.0455266)
(-1.0656 0.0665139 -0.0356733)
(-1.07087 0.0672276 0.0210946)
(-0.937555 0.0584962 0.0517247)
(-1.06597 0.0187621 0.0727622)
(-0.931142 -0.0014599 -0.0724991)
(-1.05271 0.0362703 -0.0768473)
(-0.966634 -0.0695559 0.0636301)
(-0.926826 -0.0080026 -0.0676869)
(-1.01719 -0.095842 -0.0227766)
(-1.03467 -0.0102977 -0.0932319)
(-0.929141 0.0687885 -0.0157232)
(-0.995555 0.065918 0.0750669)
(-1.05145 0.0857491 0.00047712)
(-1.06865 -0.0082582 -0.0722462)
(-0.984208 0.0850812 -0.0501178)
(-0.924035 -0.0455422 -0.046424)
(-1.05816 0.0679284 0.044752)
(-0.977828 -0.0740688 0.0634209)
(-0.900823 -0.00610597 0.0112557)
(-1.04417 0.0464945 -0.0767306)
(-0.969422 0.053682 0.0786334)
(-1.01978 0.0429162 0.0881109)
(-1.05815 0.0811527 0.00594933)
(-0.912206 -0.0422974 -0.0224676)
(-1.04359 -0.0678073 -0.0591777)
(-1.02597 0.0957074 0.0128667)
(-0.978355 0.0844808 0.0489324)
(-0.925816 -0.0406987 -0.0532965)
(-1.085 -0.0332828 0.0408321)
(-0.959204 0.0695768 -0.0591164)
(-1.06677 0.0579567 -0.0467164)
(-1.06659 -0.0241648 -0.070585)
(-0.935679 -0.0395354 0.065573)
(-0.942889 -0.07774 -0.0263591)
(-1.05661 -0.0272263 0.077807)
(-0.990428 0.0427984 0.0898704)
(-1.01194 0.0439562 -0.0890238)
(-0.924283 -0.0633683 0.0158541)
(-1.0963 -0.014682 0.0226038)
(-0.918486 -0.053952 -0.0210883)
(-0.985333 -0.09295 -0.0338405)
(-0.961887 -0.0923918 0.00429423)
(-1.0602 0.0272619 -0.0750695)
(-0.927916 -0.0448803 0.052832)
(-1.04988 0.0522746 -0.0691305)
(-1.00447 -0.0324691 -0.0944764)
(-0.926818 -0.0322695 0.060026)
(-0.936031 -0.0729086 -0.0243413)
(-0.972565 -0.0529612 0.0802653)
(-0.950586 0.0814125 0.030501)
(-1.04231 -0.0617323 0.0663228)
(-1.06872 0.0694314 -0.0213801)
(-0.983835 -0.0791433 0.0589494)
(-0.914007 0.0488169 0.014906)
(-1.05521 0.0310148 -0.0773949)
(-1.05516 0.0127634 -0.0824286)
(-1.02967 0.0668871 -0.0681591)
(-1.03046 0.0157017 -0.0939453)
(-0.911731 0.0126962 -0.0452482)
(-1.05322 0.0585439 -0.0611532)
(-0.942054 -0.00830976 0.0810751)
(-0.922446 -0.0212623 -0.0595877)
(-0.954254 -0.0888304 0.00359207)
(-1.0606 -0.0791256 0.008103)
(-1.00318 0.0831144 -0.0555153)
(-0.969872 0.0346303 -0.088843)
(-1.06851 0.0336918 -0.064583)
(-1.03999 0.0598121 0.0694494)
(-1.06975 -0.0561182 0.0445608)
(-1.03937 0.00561686 0.0917521)
(-1.06973 0.0139942 -0.0703025)
(-1.00762 -0.0536528 0.0840433)
(-0.914481 -0.0424009 0.0298106)
(-0.948545 0.0658017 -0.0549779)
(-1.02053 0.0592612 0.077889)
(-1.00239 -0.0645447 -0.076343)
(-0.940777 0.0295318 0.07497)
(-0.975267 0.0854431 0.0456919)
(-0.991208 0.0981375 0.0170807)
(-0.917495 -0.0268926 -0.0496963)
(-0.975798 -0.0529131 -0.0813293)
(-1.07672 -0.0577264 0.0275923)
(-0.929643 0.0342579 0.0622268)
(-0.996413 0.0902291 -0.0429611)
(-1.06601 -0.0730481 -0.0175027)
(-0.93142 0.0379 -0.0621327)
(-0.989406 0.0947911 0.0300375)
(-0.913933 -0.0103544 -0.0498543)
(-1.05833 -0.0805123 0.0107543)
(-1.033 -0.0461074 -0.0823729)
(-1.03336 -0.0109504 -0.0936338)
(-0.934832 -0.02753 0.0706773)
(-0.976371 -0.094778 0.0214179)
(-0.955147 0.024842 0.085855)
(-1.02903 0.0832691 0.0471559)
(-0.9314 -0.0692013 -0.0224779)
(-0.954157 0.0579718 0.0673623)
(-0.973188 0.00966674 0.0958524)
(-1.08334 0.052849 0.0161895)
(-0.914306 0.0485545 -0.0172915)
(-0.954609 -0.0822088 -0.0343705)
(-1.05015 0.0553953 -0.0663022)
(-1.04742 0.0302146 -0.082723)
(-0.927021 0.0679417 -0.00780053)
(-0.932109 0.0710308 -0.0185856)
(-1.01462 -0.0683564 -0.0715098)
(-1.07664 0.0034083 -0.0641425)
(-0.933634 0.00256192 0.0747606)
(-1.09084 0.00839158 0.0409564)
(-0.924189 0.0536855 0.0370226)
(-0.90801 0.0306584 0.0244564)
(-0.967432 0.0939157 0.0109224)
(-0.989632 0.0105274 0.0989025)
(-1.0866 0.0467382 0.0177907)
(-0.924512 -0.00302532 0.0655163)
(-0.991688 0.0943504 -0.0320773)
(-0.930074 -0.0483849 0.0526232)
(-0.988064 0.086822 -0.0481611)
(-0.923488 0.0464076 0.0446345)
(-0.931505 -0.0292502 0.06673)
(-1.06456 0.0166092 -0.0745416)
(-0.932602 -0.0733163 -0.0111575)
(-1.05243 -0.0504681 0.0686104)
(-0.918166 0.028792 0.0497892)
(-1.03693 0.0676501 0.0637236)
(-0.934041 0.0658461 -0.0362495)
(-0.956996 -0.0613425 0.0662407)
(-1.03576 -0.0794565 -0.049069)
(-1.0279 0.0293279 0.0914402)
(-1.0381 0.0526125 0.0760271)
(-1.02659 0.0846479 0.0461292)
(-0.940382 -0.0551614 0.0583342)
(-1.05179 -0.0424418 -0.0742719)
(-0.935329 0.0459231 -0.0608991)
(-0.963035 0.0630089 -0.0682897)
(-1.08212 0.056612 -0.00713378)
(-0.924033 -0.02074 0.0616343)
(-0.972394 -0.0180679 -0.0944004)
(-1.08637 -0.0163723 -0.0476723)
(-1.07354 0.0535907 0.0414724)
(-0.991631 -0.099288 -0.00847581)
(-0.968137 0.0890113 0.0328597)
(-0.95773 0.0714516 -0.055741)
(-1.02056 -0.030961 0.0928273)
(-1.05763 0.0499529 0.0646909)
(-0.905951 0.0269326 0.0207332)
(-1.08825 0.0210465 0.0420591)
(-1.01113 -0.0992064 0.00587075)
(-0.935364 0.0202417 -0.07357)
(-1.01797 -0.0962911 -0.0201272)
(-0.928131 -0.0420894 -0.0553473)
(-1.05177 -0.0795551 0.0314698)
(-1.06497 -0.0716608 0.0253558)
(-1.05319 0.0101205 0.0840728)
(-0.984313 0.081037 0.0564531)
(-1.04011 0.0914257 0.00572339)
(-0.96786 0.0277095 -0.0905495)
(-1.00834 0.0705902 -0.0703378)
(-0.955067 -0.0168792 -0.0877276)
(-1.01301 0.0221287 0.096649)
(-0.964958 -0.0192285 -0.0916641)
(-0.940617 -0.0428889 -0.0687419)
(-0.910692 0.0377615 -0.0241639)
(-1.05203 -0.0846316 -0.0110481)
(-1.07206 -0.005568 -0.069118)
(-1.04848 -0.083161 -0.027076)
(-1.04706 -0.0306832 0.0827316)
(-0.976203 0.0955044 0.0176644)
(-0.944477 -0.0418592 -0.0718684)
(-0.922436 0.0455963 0.0436451)
(-0.922662 -0.0258108 0.057903)
(-0.955638 -0.0736273 0.0510965)
(-0.95807 -0.0781953 -0.0461214)
(-1.01527 0.0987781 -0.00310715)
(-1.07535 0.0657401 0.000373853)
(-1.07303 0.066746 0.0145446)
(-0.943062 0.0428705 0.0701443)
(-1.00987 -0.0887428 -0.0450248)
(-1.01699 -0.0404398 0.0898661)
(-1.04323 0.0598298 -0.0674632)
(-1.02108 -0.0952696 0.0218948)
(-0.977103 0.0902293 -0.0362429)
(-0.916454 -0.0223409 0.0497981)
(-0.953659 -0.067207 -0.057826)
(-0.940908 -0.0799719 -0.0102219)
(-0.915009 0.0332822 -0.0408544)
(-1.04349 -0.0607103 -0.0665135)
(-1.03331 0.0413559 0.0847338)
(-0.919544 -0.0550251 0.0223397)
(-1.0521 0.0811502 0.0264579)
(-0.950532 0.0363661 -0.0789346)
(-0.930395 -0.030326 -0.0650797)
(-0.951663 0.0754877 -0.0443317)
(-0.945838 -0.0830861 0.0127719)
(-1.07059 -0.0622784 -0.0337328)
(-1.02104 -0.0201531 0.0956621)
(-1.06679 -0.0577948 -0.046893)
(-1.08342 -0.0460185 -0.0304008)
(-0.991 0.0552479 -0.0828654)
(-0.943585 -0.0777006 0.0279268)
(-1.0746 -0.0598926 -0.0291251)
(-1.04274 -0.06701 0.0609739)
(-1.02228 -0.0487031 0.0842212)
(-0.966792 -0.0365172 -0.0869614)
(-0.927277 0.00995568 -0.067932)
(-0.984583 -0.0538321 -0.0828431)
(-0.985912 -0.0449484 -0.08821)
(-1.09047 -0.0421428 -0.00636465)
(-0.999179 0.0327967 -0.0944625)
(-1.02691 0.073836 -0.0618363)
(-0.935154 0.0718087 0.0252689)
(-1.02399 -0.0661372 0.0710624)
(-0.994252 0.0679423 0.073151)
(-1.01287 0.043555 0.0890921)
(-0.98023 -0.0177751 0.0964014)
(-0.915462 -0.0325556 -0.0423493)
(-0.934372 -0.0442269 0.0611307)
(-1.03139 0.0722583 0.0615907)
(-0.930529 -0.0538722 0.0476604)
(-1.08809 0.00639744 0.0468934)
(-0.96896 0.059864 -0.0738433)
(-0.96146 0.0518809 0.0746004)
(-1.06309 -0.0572416 -0.0514017)
(-1.06569 -0.0214599 -0.0725404)
(-0.935416 -0.0274569 -0.0712521)
(-1.01495 -0.0633237 0.0759319)
(-0.923907 0.0645986 0.00630887)
(-1.05098 -0.0642136 -0.0572481)
(-1.02423 0.0621195 -0.0745208)
(-1.07991 0.0253319 0.0545303)
(-1.08774 -0.0375494 0.0298635)
(-1.03068 -0.0801655 -0.0513068)
(-0.962147 0.0765777 0.0519923)
(-1.03499 -0.0617443 -0.0704514)
(-1.05547 -0.0247895 0.0794284)
(-0.960197 0.00388369 -0.0916547)
(-0.973405 0.0764395 -0.0587342)
(-1.04979 0.0502823 -0.0706607)
(-0.90289 0.0238656 -0.000365736)
(-0.933762 -0.0312267 0.0680984)
(-1.06286 -0.077164 -0.0096982)
)
;

boundaryField
{
    movingWall
    {
        type            fixedValue;
        value           uniform (1 0 0);
    }
    fixedWalls
    {
        type            noSlip;
    }
    frontAndBack
    {
        type            empty;
    }
}


// ************************************************************************* //
