/*--------------------------------*- C++ -*----------------------------------*\
| =========                 |                                                 |
| \\      /  F ield         | OpenFOAM: The Open Source CFD Toolbox           |
|  \\    /   O peration     | Version:  2312                                  |
|   \\  /    A nd           | Website:  www.openfoam.com                      |
|    \\/     M anipulation  |                                                 |
\*---------------------------------------------------------------------------*/
FoamFile
{
    version     2.0;
    format      ascii;
    arch        "LSB;label=32;scalar=64";
    class       volScalarField;
    location    "2.625";
    object      zeroGradient(epsilon);
}
// * * * * * * * * * * * * * * * * * * * * * * * * * * * * * * * * * * * * * //

dimensions      [0 2 -3 0 0 0 0];

internalField   nonuniform List<scalar> 
400
(
0.000279708
0.000180474
0.000156908
0.000135292
0.000127787
0.000123914
0.000122293
0.000121887
0.000121659
0.000121617
0.000121588
0.000121582
0.000121576
0.000121573
0.00012157
0.000121568
0.000121567
0.000121566
0.000121565
0.000121565
0.000789749
0.000465889
0.000442065
0.000399649
0.000387526
0.000380731
0.000378758
0.00037838
0.000378452
0.000379018
0.000379835
0.000380548
0.000381337
0.000382093
0.000382944
0.000383774
0.000384682
0.000385573
0.000386055
0.000386996
0.00207241
0.00153301
0.00151462
0.00148348
0.00147536
0.00147232
0.00147303
0.00147772
0.00148519
0.00149236
0.00150042
0.00150801
0.00151626
0.00152492
0.0015336
0.0015431
0.00155236
0.0015625
0.00156755
0.00157778
0.00386591
0.00319362
0.00323644
0.00324979
0.00326847
0.00327939
0.00329967
0.00331516
0.00333944
0.00335865
0.00338533
0.00340725
0.00343624
0.00346124
0.0034926
0.00352067
0.00355454
0.00358578
0.00360411
0.00363879
0.00546858
0.00465414
0.00480958
0.00485457
0.00491407
0.00494089
0.00498405
0.00500706
0.00505116
0.00508015
0.00512919
0.00516442
0.0052179
0.0052595
0.00531788
0.00536581
0.00542935
0.00548418
0.00551868
0.00558231
0.00651732
0.00560646
0.00583909
0.00590863
0.00599382
0.00603347
0.00609052
0.00612032
0.00617615
0.00621243
0.00627624
0.00632117
0.00639136
0.00644559
0.0065225
0.0065861
0.00667025
0.00674388
0.0067899
0.0068752
0.0071881
0.00621543
0.00649776
0.00658512
0.00668502
0.00673395
0.00679936
0.00683409
0.00689695
0.00693851
0.00701064
0.00706304
0.00714314
0.0072063
0.00729512
0.00736933
0.00746718
0.00755353
0.00760731
0.00770724
0.00764886
0.00664877
0.00695426
0.00705052
0.00716103
0.00721518
0.00728566
0.0073239
0.00739148
0.00743647
0.00751458
0.0075717
0.00765899
0.00772824
0.00782537
0.00790715
0.00801448
0.00810996
0.00816906
0.00827934
0.00804182
0.00699345
0.00732314
0.00742351
0.00755647
0.00760437
0.00767105
0.00772796
0.00777651
0.00784654
0.00791128
0.00798533
0.00806966
0.00814927
0.00824986
0.00833962
0.00845363
0.00855704
0.00862041
0.00873913
0.00841701
0.0073119
0.00766193
0.00776843
0.00790948
0.00796007
0.00803018
0.00809033
0.00813888
0.00821617
0.00828029
0.00836219
0.00844851
0.00853497
0.00864028
0.00873659
0.00885731
0.00896775
0.00903529
0.00916189
0.00881223
0.0076389
0.00800945
0.00812247
0.00827399
0.00832712
0.00839973
0.00846013
0.00851535
0.00859463
0.00866047
0.00875057
0.00883758
0.00893269
0.00904165
0.00914575
0.00927266
0.00939143
0.00946276
0.0095976
0.00924771
0.00799858
0.00839476
0.00851669
0.00867232
0.00873187
0.00881014
0.00887501
0.00892934
0.00901303
0.00908606
0.00917574
0.00927377
0.00936993
0.00948932
0.00959795
0.00973454
0.00986089
0.00993716
0.0100813
0.00970976
0.00840989
0.00883652
0.00896855
0.00913873
0.00920173
0.00928426
0.00935367
0.0094123
0.00949708
0.00957858
0.00967036
0.00977788
0.0098782
0.0100077
0.0101232
0.01027
0.0104064
0.010488
0.0106431
0.0101993
0.00889634
0.00936228
0.0095066
0.00969197
0.00976765
0.00984772
0.00992595
0.00999033
0.0100749
0.0101679
0.0102612
0.0103802
0.0104867
0.0106266
0.0107519
0.0109103
0.0110584
0.0111473
0.0113158
0.0107472
0.00946987
0.00999827
0.0101614
0.0103675
0.010456
0.0105421
0.0106286
0.0106923
0.0107881
0.0108836
0.0109882
0.0111152
0.011232
0.0113847
0.0115216
0.0116953
0.0118579
0.0119556
0.012141
0.0114009
0.0101589
0.0108452
0.0109896
0.0112029
0.0113276
0.0114091
0.0115097
0.0115723
0.0116812
0.0117805
0.0118988
0.0120356
0.0121666
0.012334
0.0124872
0.0126795
0.0128615
0.0129704
0.0131776
0.0123955
0.0111222
0.0119108
0.0120706
0.0123138
0.0124544
0.0125447
0.0126512
0.0127201
0.0128444
0.0129435
0.0130875
0.013229
0.0133855
0.0135673
0.0137458
0.0139605
0.0141704
0.0142937
0.0145303
0.0142717
0.0125954
0.0134751
0.0136403
0.0139131
0.01406
0.0141592
0.0142746
0.0143514
0.0144881
0.0145975
0.0147705
0.0149191
0.0151167
0.0153122
0.0155342
0.0157756
0.0160314
0.0161741
0.0164539
0.0182348
0.0151536
0.0158158
0.0160253
0.0162684
0.0163686
0.0164862
0.0165821
0.01667
0.0168114
0.0169322
0.0171237
0.0172875
0.0175219
0.0177338
0.0180128
0.0182795
0.0186051
0.0187701
0.0191098
0.0214918
0.0215997
0.0216266
0.0216415
0.021641
0.0216315
0.0216127
0.0215958
0.0215818
0.0215739
0.0215649
0.0215616
0.0215563
0.0215548
0.0215525
0.021552
0.0215514
0.0215513
0.0215512
0.0215513
)
;

boundaryField
{
    movingWall
    {
        type            zeroGradient;
    }
    fixedWalls
    {
        type            zeroGradient;
    }
    frontAndBack
    {
        type            empty;
    }
}


// ************************************************************************* //
