/*--------------------------------*- C++ -*----------------------------------*\
| =========                 |                                                 |
| \\      /  F ield         | OpenFOAM: The Open Source CFD Toolbox           |
|  \\    /   O peration     | Version:  2312                                  |
|   \\  /    A nd           | Website:  www.openfoam.com                      |
|    \\/     M anipulation  |                                                 |
\*---------------------------------------------------------------------------*/
FoamFile
{
    version     2.0;
    format      ascii;
    arch        "LSB;label=32;scalar=64";
    class       volScalarField;
    location    "0.375";
    object      diffP;
}
// * * * * * * * * * * * * * * * * * * * * * * * * * * * * * * * * * * * * * //

dimensions      [0 2 -2 0 0 0 0];

internalField   nonuniform List<scalar> 
400
(
-3
-3
-3
-3.00002
-3.00007
-3.00013
-3.00021
-3.0003
-3.00041
-3.00053
-3.00066
-3.00079
-3.00092
-3.00105
-3.00117
-3.00127
-3.00135
-3.0014
-3.00143
-3.00142
-3.00001
-3
-3.00001
-3.00003
-3.00008
-3.00014
-3.00022
-3.00031
-3.00041
-3.00053
-3.00065
-3.00078
-3.00091
-3.00104
-3.00115
-3.00125
-3.00134
-3.00139
-3.00142
-3.00142
-3
-3
-3
-3.00002
-3.00007
-3.00013
-3.0002
-3.0003
-3.0004
-3.00052
-3.00064
-3.00077
-3.0009
-3.00103
-3.00116
-3.00127
-3.00135
-3.00142
-3.00145
-3.00145
-3
-3
-3
-3
-3.00003
-3.00009
-3.00017
-3.00026
-3.00037
-3.00049
-3.00062
-3.00076
-3.00091
-3.00105
-3.00118
-3.0013
-3.0014
-3.00148
-3.00151
-3.0015
-3
-3
-3
-3
-3
-3.00003
-3.00011
-3.00021
-3.00033
-3.00046
-3.0006
-3.00075
-3.00091
-3.00107
-3.00122
-3.00136
-3.00148
-3.00156
-3.0016
-3.00158
-3
-3
-3
-3
-3
-3
-3.00003
-3.00014
-3.00027
-3.00041
-3.00056
-3.00073
-3.00091
-3.0011
-3.00128
-3.00144
-3.00158
-3.00168
-3.00172
-3.00171
-3
-3
-3
-3
-3
-3
-3
-3.00005
-3.00018
-3.00034
-3.00051
-3.00071
-3.00091
-3.00112
-3.00134
-3.00154
-3.00171
-3.00183
-3.00189
-3.00187
-3
-3
-3
-3
-3
-3
-3
-3
-3.00008
-3.00025
-3.00044
-3.00066
-3.0009
-3.00115
-3.00141
-3.00165
-3.00187
-3.00203
-3.00211
-3.00209
-3
-3
-3
-3
-3
-3
-3
-3
-3
-3.00013
-3.00034
-3.00059
-3.00086
-3.00116
-3.00147
-3.00178
-3.00206
-3.00228
-3.00239
-3.00238
-3
-3
-3
-3
-3
-3
-3
-3
-3
-3
-3.00021
-3.00048
-3.0008
-3.00115
-3.00153
-3.00192
-3.00229
-3.00259
-3.00275
-3.00275
-3
-3
-3
-3
-3
-3
-3
-3
-3
-3
-3.00002
-3.00033
-3.00068
-3.00109
-3.00155
-3.00205
-3.00254
-3.00297
-3.00322
-3.00323
-3
-3
-3
-3
-3
-3
-3
-3
-3
-3
-3
-3.00011
-3.0005
-3.00097
-3.00152
-3.00214
-3.00281
-3.00344
-3.00383
-3.00385
-3
-3
-3
-3
-3
-3
-3
-3
-3
-3
-3
-3
-3.00023
-3.00075
-3.00138
-3.00215
-3.00306
-3.00399
-3.0046
-3.00459
-3
-3
-3
-3
-3
-3
-3
-3
-3
-3
-3
-3
-3
-3.00038
-3.00107
-3.00197
-3.00318
-3.00467
-3.00578
-3.00556
-3
-3
-3
-3
-3
-3
-3
-3
-3
-3
-3
-3
-3
-3
-3.00049
-3.00142
-3.00291
-3.0054
-3.00792
-3.00721
-3
-3
-3
-3
-3
-3
-3
-3
-3
-3
-3
-3
-3
-3
-3
-3.00016
-3.00104
-3.00355
-3.00768
-3.0079
-3
-3
-3
-3
-3
-3
-3
-3
-3
-3
-3
-3
-3
-3
-3
-3
-3
-3
-3
-3.00008
-3
-3
-3
-3
-3
-3
-3
-3
-3
-3
-3
-3
-3
-3
-3
-3
-3
-3
-3
-3
-3
-3
-3
-3
-3
-3
-3
-3
-3
-3
-3
-3
-3
-3
-3
-3
-3
-3
-3
-3.012
-3.00081
-3.00372
-3.00168
-3
-3
-3
-3
-3
-3
-3
-3
-3
-3
-3
-3
-3
-3
-3
-3
-3.0808
)
;

boundaryField
{
    movingWall
    {
        type            calculated;
        value           nonuniform List<scalar> 
20
(
-3.00081
-3.00372
-3.00168
-3
-3
-3
-3
-3
-3
-3
-3
-3
-3
-3
-3
-3
-3
-3
-3
-3.0808
)
;
    }
    fixedWalls
    {
        type            calculated;
        value           nonuniform List<scalar> 
60
(
-3
-3.00001
-3
-3
-3
-3
-3
-3
-3
-3
-3
-3
-3
-3
-3
-3
-3
-3
-3
-3.00081
-3.00142
-3.00142
-3.00145
-3.0015
-3.00158
-3.00171
-3.00187
-3.00209
-3.00238
-3.00275
-3.00323
-3.00385
-3.00459
-3.00556
-3.00721
-3.0079
-3.00008
-3
-3.012
-3.0808
-3
-3
-3
-3.00002
-3.00007
-3.00013
-3.00021
-3.0003
-3.00041
-3.00053
-3.00066
-3.00079
-3.00092
-3.00105
-3.00117
-3.00127
-3.00135
-3.0014
-3.00143
-3.00142
)
;
    }
    frontAndBack
    {
        type            empty;
    }
}


// ************************************************************************* //
