/*--------------------------------*- C++ -*----------------------------------*\
| =========                 |                                                 |
| \\      /  F ield         | OpenFOAM: The Open Source CFD Toolbox           |
|  \\    /   O peration     | Version:  2312                                  |
|   \\  /    A nd           | Website:  www.openfoam.com                      |
|    \\/     M anipulation  |                                                 |
\*---------------------------------------------------------------------------*/
FoamFile
{
    version     2.0;
    format      ascii;
    arch        "LSB;label=32;scalar=64";
    class       volVectorField;
    location    "0.375";
    object      diffU;
}
// * * * * * * * * * * * * * * * * * * * * * * * * * * * * * * * * * * * * * //

dimensions      [0 1 -1 0 0 0 0];

internalField   nonuniform List<vector> 
400
(
(0 0 0)
(-0.000493541 0.000171982 0)
(-0.00122304 0.000246219 0)
(-0.00196397 0.00023958 0)
(-0.00266117 0.000197719 0)
(-0.00328044 0.00014409 0)
(-0.0038055 8.57685e-05 0)
(-0.00422635 2.375e-05 0)
(-0.00453663 -4.29732e-05 0)
(-0.00472378 -0.000112922 0)
(-0.00478579 -0.000184894 0)
(-0.00471435 -0.00026331 0)
(-0.00450337 -0.000343196 0)
(-0.00415086 -0.000424611 0)
(-0.00365674 -0.000505964 0)
(-0.0030272 -0.000583218 0)
(-0.00228072 -0.000645226 0)
(-0.00146006 -0.00066402 0)
(-0.000635278 -0.000590766 0)
(-4.77783e-05 -0.00041012 0)
(-0.00017479 0.000493617 0)
(-0.0008303 0.000820211 0)
(-0.00158165 0.000941345 0)
(-0.00234238 0.00092694 0)
(-0.0030664 0.000836518 0)
(-0.0037229 0.00070664 0)
(-0.00428894 0.000554759 0)
(-0.00474738 0.000387477 0)
(-0.00508559 0.000206578 0)
(-0.00529271 1.37441e-05 0)
(-0.00536047 -0.000189527 0)
(-0.00528158 -0.000402109 0)
(-0.00505173 -0.000620667 0)
(-0.00467022 -0.000840501 0)
(-0.00414196 -0.0010539 0)
(-0.00348051 -0.00124658 0)
(-0.00271008 -0.00139221 0)
(-0.00186824 -0.00144569 0)
(-0.00101223 -0.00134129 0)
(-0.000239435 -0.00100445 0)
(-0.000273243 0.00124221 0)
(-0.00101233 0.00158361 0)
(-0.00178208 0.00168411 0)
(-0.00254884 0.00164458 0)
(-0.00327662 0.00150802 0)
(-0.00394152 0.00130678 0)
(-0.00452114 0.00106159 0)
(-0.00499581 0.00078403 0)
(-0.00535003 0.000480099 0)
(-0.00557138 0.000153868 0)
(-0.00565005 -0.00019105 0)
(-0.00557819 -0.00055086 0)
(-0.00535101 -0.000918672 0)
(-0.00496839 -0.00128463 0)
(-0.00443661 -0.00163331 0)
(-0.00377029 -0.00194107 0)
(-0.00299166 -0.002174 0)
(-0.0021307 -0.0022877 0)
(-0.00123461 -0.00223006 0)
(-0.000351528 -0.00188715 0)
(-0.000313085 0.00206088 0)
(-0.00111709 0.00241441 0)
(-0.00193823 0.00247906 0)
(-0.00274479 0.00240112 0)
(-0.00350413 0.00221245 0)
(-0.00419687 0.0019382 0)
(-0.00480343 0.00159886 0)
(-0.00530456 0.00120901 0)
(-0.00568386 0.000778156 0)
(-0.00592779 0.000313018 0)
(-0.0060255 -0.000180503 0)
(-0.0059676 -0.000695205 0)
(-0.00574755 -0.00122107 0)
(-0.00536378 -0.00174271 0)
(-0.00482044 -0.00223732 0)
(-0.00412909 -0.00267337 0)
(-0.00330736 -0.00301178 0)
(-0.00238121 -0.00320963 0)
(-0.00139747 -0.00321976 0)
(-0.000410392 -0.00286881 0)
(-0.000336634 0.00293101 0)
(-0.00120293 0.0033105 0)
(-0.00209657 0.00333543 0)
(-0.00297051 0.00320944 0)
(-0.00378928 0.00296087 0)
(-0.00453398 0.00260894 0)
(-0.00518702 0.00217246 0)
(-0.00573046 0.00166764 0)
(-0.00614819 0.00110654 0)
(-0.00642625 0.000498159 0)
(-0.00655218 -0.000149624 0)
(-0.00651495 -0.000826967 0)
(-0.00630542 -0.00152102 0)
(-0.00591777 -0.00221147 0)
(-0.00535146 -0.00286882 0)
(-0.00461266 -0.00345433 0)
(-0.00371448 -0.00392339 0)
(-0.00268319 -0.00423039 0)
(-0.00157375 -0.00432191 0)
(-0.000465648 -0.00394845 0)
(-0.000366876 0.00385356 0)
(-0.0013046 0.00428266 0)
(-0.00228781 0.00427209 0)
(-0.00325098 0.0040924 0)
(-0.00415268 0.00377565 0)
(-0.00497159 0.00333852 0)
(-0.00569068 0.00279888 0)
(-0.00629326 0.00217395 0)
(-0.00676409 0.00147765 0)
(-0.00708922 0.000720418 0)
(-0.00725494 -8.87218e-05 0)
(-0.00724791 -0.000939312 0)
(-0.00705498 -0.00181608 0)
(-0.00666428 -0.00269511 0)
(-0.00606798 -0.00354105 0)
(-0.00526468 -0.00430751 0)
(-0.00426216 -0.0049413 0)
(-0.00308913 -0.00538663 0)
(-0.0018132 -0.00557123 0)
(-0.000545379 -0.00515316 0)
(-0.000411931 0.00484644 0)
(-0.00143938 0.00534853 0)
(-0.00253089 0.00530891 0)
(-0.00360359 0.00507207 0)
(-0.00460885 0.00467902 0)
(-0.00552156 0.00414755 0)
(-0.00632452 0.00349632 0)
(-0.00700228 0.00274408 0)
(-0.00754098 0.00190595 0)
(-0.00792732 0.000992899 0)
(-0.00814695 1.34891e-05 0)
(-0.00818373 -0.00102263 0)
(-0.00801923 -0.00210025 0)
(-0.0076337 -0.0031937 0)
(-0.0070089 -0.00426292 0)
(-0.00613205 -0.00525297 0)
(-0.00500208 -0.00609757 0)
(-0.00364815 -0.0067212 0)
(-0.00215298 -0.0070191 0)
(-0.000664275 -0.00653817 0)
(-0.000474217 0.00593523 0)
(-0.00161559 0.00653059 0)
(-0.00283778 0.00646651 0)
(-0.00404113 0.00616855 0)
(-0.00516919 0.00569021 0)
(-0.00619295 0.00505378 0)
(-0.00709514 0.00428101 0)
(-0.0078623 0.00339305 0)
(-0.00848299 0.00240618 0)
(-0.00894557 0.00133059 0)
(-0.00923581 0.000172663 0)
(-0.00933517 -0.00106124 0)
(-0.00921935 -0.00235921 0)
(-0.00885841 -0.0036971 0)
(-0.00821955 -0.00503262 0)
(-0.00727212 -0.00630242 0)
(-0.00599756 -0.00742256 0)
(-0.00441838 -0.00828606 0)
(-0.00263161 -0.00873693 0)
(-0.000834718 -0.00818152 0)
(-0.000555212 0.00714928 0)
(-0.00183933 0.00785607 0)
(-0.00321893 0.00776833 0)
(-0.00457592 0.00740204 0)
(-0.00584541 0.00682662 0)
(-0.00699502 0.00607225 0)
(-0.00800879 0.00516649 0)
(-0.00887672 0.00413415 0)
(-0.00959168 0.00299259 0)
(-0.0101456 0.0017502 0)
(-0.010526 0.00040882 0)
(-0.0107132 -0.00103173 0)
(-0.0106771 -0.00256732 0)
(-0.0103759 -0.00418066 0)
(-0.0097571 -0.0058327 0)
(-0.00876185 -0.00745528 0)
(-0.00733793 -0.0089447 0)
(-0.00548312 -0.0101481 0)
(-0.00330255 -0.0108258 0)
(-0.00107351 -0.0101885 0)
(-0.000657836 0.008522 0)
(-0.00211932 0.00935744 0)
(-0.00368827 0.00924145 0)
(-0.00522406 0.00879361 0)
(-0.00665268 0.00810406 0)
(-0.00793972 0.00721503 0)
(-0.0090729 0.00616288 0)
(-0.0100487 0.00497776 0)
(-0.0108668 0.00367805 0)
(-0.0115256 0.00226923 0)
(-0.0120174 0.000746223 0)
(-0.0123241 -0.000901557 0)
(-0.0124122 -0.00268394 0)
(-0.0122276 -0.00459869 0)
(-0.0116932 -0.00662064 0)
(-0.010708 -0.00868822 0)
(-0.00915748 -0.0106844 0)
(-0.0069751 -0.0123947 0)
(-0.00424866 -0.0134355 0)
(-0.00140371 -0.0127051 0)
(-0.000788301 0.0100943 0)
(-0.00247146 0.0110745 0)
(-0.00426802 0.0109172 0)
(-0.00600937 0.0103648 0)
(-0.00761199 0.00953554 0)
(-0.00904224 0.00848934 0)
(-0.0102957 0.00727489 0)
(-0.011379 0.00592918 0)
(-0.0123028 0.00447187 0)
(-0.0130758 0.00290434 0)
(-0.0136994 0.0012127 0)
(-0.0141626 -0.000628307 0)
(-0.0144335 -0.00264935 0)
(-0.0144502 -0.00487511 0)
(-0.0141106 -0.00731268 0)
(-0.0132561 -0.00993338 0)
(-0.0116632 -0.0126356 0)
(-0.00911489 -0.0151381 0)
(-0.00559929 -0.0167887 0)
(-0.0018508 -0.0159269 0)
(-0.000958994 0.0119229 0)
(-0.00292405 0.0130575 0)
(-0.00499355 0.012831 0)
(-0.00696597 0.0121351 0)
(-0.00875011 0.0111281 0)
(-0.0103188 0.00989425 0)
(-0.0116816 0.00849827 0)
(-0.0128608 0.00698534 0)
(-0.0138825 0.00537618 0)
(-0.0147699 0.00366763 0)
(-0.0155392 0.00183555 0)
(-0.0161951 -0.000162622 0)
(-0.0167184 -0.00238262 0)
(-0.0170531 -0.0048923 0)
(-0.017084 -0.00775807 0)
(-0.0165908 -0.0110356 0)
(-0.0151742 -0.0147232 0)
(-0.0122721 -0.0185113 0)
(-0.00755182 -0.021209 0)
(-0.00241078 -0.0200198 0)
(-0.00119409 0.0140846 0)
(-0.00352712 0.0153712 0)
(-0.00591705 0.0150201 0)
(-0.00813586 0.014117 0)
(-0.0100923 0.0128768 0)
(-0.0117761 0.0114151 0)
(-0.0132197 0.00981515 0)
(-0.0144668 0.00813016 0)
(-0.0155623 0.00638092 0)
(-0.0165483 0.00456024 0)
(-0.0174621 0.00263565 0)
(-0.0183328 0.000549095 0)
(-0.019175 -0.00178358 0)
(-0.0199697 -0.00448198 0)
(-0.0206294 -0.00770353 0)
(-0.0209161 -0.0116777 0)
(-0.0201867 -0.0167309 0)
(-0.0171104 -0.0228189 0)
(-0.0105016 -0.0277614 0)
(-0.00299264 -0.0256829 0)
(-0.00153737 0.0167448 0)
(-0.00435034 0.0181075 0)
(-0.00709791 0.0175178 0)
(-0.00954939 0.0163039 0)
(-0.0116361 0.0147539 0)
(-0.0133828 0.0130153 0)
(-0.0148542 0.0111875 0)
(-0.0161193 0.00932805 0)
(-0.0172429 0.00745585 0)
(-0.0182861 0.0055616 0)
(-0.0193116 0.00361121 0)
(-0.0203867 0.00154078 0)
(-0.0215843 -0.000752333 0)
(-0.022973 -0.00342623 0)
(-0.0246017 -0.00674317 0)
(-0.0264189 -0.011211 0)
(-0.0276832 -0.0179664 0)
(-0.0256857 -0.028251 0)
(-0.0171325 -0.0381393 0)
(-0.0048606 -0.0344054 0)
(-0.00206965 0.0198847 0)
(-0.00551215 0.0212979 0)
(-0.00857153 0.0202885 0)
(-0.0111712 0.0186231 0)
(-0.0132881 0.016678 0)
(-0.0150041 0.0146169 0)
(-0.0164205 0.012544 0)
(-0.0176295 0.0105128 0)
(-0.0187101 0.00853847 0)
(-0.019737 0.00661344 0)
(-0.020796 0.00471332 0)
(-0.0219989 0.00279098 0)
(-0.0235003 0.000768055 0)
(-0.0255273 -0.00148911 0)
(-0.0284557 -0.00424566 0)
(-0.0330044 -0.00820062 0)
(-0.0395038 -0.0156393 0)
(-0.0441082 -0.0306501 0)
(-0.0369794 -0.047792 0)
(-0.0159681 -0.0432085 0)
(-0.00275568 0.0246918 0)
(-0.00689735 0.0251415 0)
(-0.0101935 0.0232431 0)
(-0.0127535 0.0209085 0)
(-0.0147165 0.0184913 0)
(-0.0162571 0.0160882 0)
(-0.0175064 0.0137788 0)
(-0.0185554 0.0116073 0)
(-0.0194887 0.00955988 0)
(-0.0203888 0.00763519 0)
(-0.021344 0.00584287 0)
(-0.0224955 0.00418734 0)
(-0.0240745 0.00268936 0)
(-0.0264817 0.00141421 0)
(-0.0304974 0.0004922 0)
(-0.0382468 -0.000258182 0)
(-0.0534465 -0.0044068 0)
(-0.0684705 -0.0248339 0)
(-0.0663886 -0.0666178 0)
(-0.0387527 -0.0746011 0)
(-0.00445373 0.0267641 0)
(-0.00925799 0.0277876 0)
(-0.011772 0.0253004 0)
(-0.0136143 0.0225951 0)
(-0.0149725 0.0199287 0)
(-0.0160573 0.0173097 0)
(-0.0169479 0.0148359 0)
(-0.0177209 0.0125237 0)
(-0.0184064 0.0103899 0)
(-0.0190309 0.00845497 0)
(-0.0196636 0.00676206 0)
(-0.0204244 0.00540181 0)
(-0.0215268 0.00455722 0)
(-0.0233189 0.00465733 0)
(-0.0263759 0.00672179 0)
(-0.0323938 0.0119051 0)
(-0.0468386 0.013789 0)
(-0.0641232 -0.0218523 0)
(-0.0677942 -0.105662 0)
(-0.0520608 -0.155442 0)
(-0.00549391 0.0467204 0)
(-0.00926641 0.0401697 0)
(-0.0102841 0.0328109 0)
(-0.0106888 0.0272303 0)
(-0.0110026 0.0230748 0)
(-0.0111817 0.0195309 0)
(-0.0111695 0.0164517 0)
(-0.0110787 0.0137026 0)
(-0.0109281 0.0112074 0)
(-0.0107012 0.00900638 0)
(-0.0104184 0.0072046 0)
(-0.0101431 0.00593668 0)
(-0.00991374 0.00545612 0)
(-0.00959425 0.00620566 0)
(-0.00885135 0.00946287 0)
(-0.00631216 0.0162426 0)
(-0.00554374 0.0229063 0)
(0.00441696 0.00143345 0)
(-0.0262199 -0.0916334 0)
(-0.0344742 -0.22703 0)
(-0.00609262 0.019972 0)
(-0.0068326 0.0125404 0)
(-0.00152206 0.0110892 0)
(0.00427877 0.0129153 0)
(0.0106992 0.0130028 0)
(0.0163464 0.0117291 0)
(0.0211842 0.0102547 0)
(0.0252695 0.0088393 0)
(0.0288003 0.00745469 0)
(0.0319268 0.00617521 0)
(0.0347095 0.00512942 0)
(0.0371878 0.00440203 0)
(0.0394413 0.00406521 0)
(0.0419199 0.00422394 0)
(0.0449431 0.00543615 0)
(0.0524132 0.00708622 0)
(0.0549997 0.00990825 0)
(0.0895511 -0.00240301 0)
(0.0270386 -0.0180756 0)
(0.0508228 -0.208883 0)
(0.0410219 0.0927487 0)
(0.063947 0.0693619 0)
(0.0896511 0.0435849 0)
(0.111514 0.029453 0)
(0.128014 0.0221055 0)
(0.141481 0.0176821 0)
(0.153206 0.0144282 0)
(0.163313 0.0115566 0)
(0.171635 0.00876751 0)
(0.178133 0.00615132 0)
(0.183015 0.00401325 0)
(0.186733 0.0025852 0)
(0.18977 0.00186414 0)
(0.192776 0.00163461 0)
(0.195371 0.00158514 0)
(0.200751 0.00126854 0)
(0.196695 0.000147341 0)
(0.227135 -0.00624214 0)
(0.103567 -0.00134515 0)
(0.367659 -0.0967693 0)
)
;

boundaryField
{
    movingWall
    {
        type            calculated;
        value           uniform (1.00018 -0.000182811 0);
    }
    fixedWalls
    {
        type            calculated;
        value           uniform (0.000182652 -0.000182811 0);
    }
    frontAndBack
    {
        type            empty;
    }
}


// ************************************************************************* //
