/*--------------------------------*- C++ -*----------------------------------*\
| =========                 |                                                 |
| \\      /  F ield         | OpenFOAM: The Open Source CFD Toolbox           |
|  \\    /   O peration     | Version:  2312                                  |
|   \\  /    A nd           | Website:  www.openfoam.com                      |
|    \\/     M anipulation  |                                                 |
\*---------------------------------------------------------------------------*/
FoamFile
{
    version     2.0;
    format      ascii;
    arch        "LSB;label=32;scalar=64";
    class       volScalarField;
    location    "0.375";
    object      divU;
}
// * * * * * * * * * * * * * * * * * * * * * * * * * * * * * * * * * * * * * //

dimensions      [0 0 -1 0 0 0 0];

internalField   nonuniform List<scalar> 
400
(
3.94782e-05
0.0134779
0.00827547
0.00940128
0.00833889
0.00720162
0.00602414
0.00457183
0.00318008
0.00172936
6.36083e-05
-0.0017385
-0.00347502
-0.00528549
-0.00705858
-0.00881542
-0.0104669
-0.00986421
-0.0154154
-5.89982e-05
-0.0128179
0.000477232
-0.00741889
-0.0079759
-0.00702149
-0.0059858
-0.00486588
-0.00363623
-0.00222586
-0.000809748
0.000498022
0.00211913
0.00358811
0.00497562
0.00623644
0.00740231
0.0083488
0.00741797
-0.00104883
0.0139932
-0.00836147
0.0085368
0.000120225
-0.00203568
-0.00167449
-0.00129569
-0.00101836
-0.000735731
-0.000399101
-7.41206e-05
0.000221349
0.000594126
0.000940017
0.00121974
0.00146796
0.00181557
0.00200074
-0.000688326
-0.00992856
0.00870875
-0.0106687
0.0101749
0.0023611
-0.000103452
7.71226e-05
0.000286179
0.000318273
0.000317105
0.000320533
0.000265289
0.000161948
0.000183977
0.000146995
2.71247e-05
-8.18558e-05
-1.70153e-05
-0.000151255
-0.00328027
-0.0121025
0.0111868
-0.0112185
0.0108306
0.00254532
-0.000142908
-2.78995e-05
0.000256964
0.000353861
0.000376217
0.000370667
0.000341158
0.000308221
0.000265305
0.000215844
0.000155884
0.000137535
0.000283428
-4.46608e-06
-0.00362822
-0.0133928
0.0120352
-0.0121346
0.0117093
0.00271044
-0.000224921
-0.000245812
6.12875e-05
0.000219136
0.000303463
0.0003452
0.000389441
0.000442491
0.000429292
0.000439757
0.00047692
0.000551395
0.000718101
0.000136162
-0.00418478
-0.0153443
0.013416
-0.0134939
0.0128973
0.00302139
-0.000180684
-0.000341515
-4.12612e-05
0.000141954
0.000264361
0.000347761
0.000420588
0.000497891
0.000578551
0.000690465
0.000834195
0.00100793
0.00119078
0.000263355
-0.00503313
-0.0181823
0.0154199
-0.015227
0.0143979
0.00338739
-0.000144361
-0.000422351
-0.000124396
8.17468e-05
0.000222936
0.000337238
0.000447774
0.000573345
0.000736229
0.000968076
0.00128316
0.00165063
0.00196843
0.000661453
-0.00609088
-0.0223085
0.0181333
-0.0173083
0.0163129
0.00383432
-0.000142026
-0.000526146
-0.000211967
1.66988e-05
0.00018216
0.000300092
0.000435676
0.000599745
0.000857273
0.00125462
0.00183902
0.00260058
0.00333696
0.00168613
-0.00733091
-0.0288967
0.0217812
-0.0197393
0.0187972
0.00441381
-0.000167226
-0.000673904
-0.00031368
-5.33037e-05
0.000115731
0.000233949
0.000356026
0.000532776
0.000857283
0.00145513
0.00245747
0.00395479
0.0057604
0.00420254
-0.00812023
-0.0391456
0.027921
-0.0224198
0.0220307
0.00515962
-0.000245668
-0.00088048
-0.000445541
-0.000132603
4.45205e-05
0.000124145
0.000185226
0.000259243
0.000478641
0.00136548
0.00292864
0.00566835
0.00999433
0.0102489
-0.00525804
-0.0509425
0.0500649
-0.0258123
0.0262203
0.00609296
-0.000437173
-0.00115998
-0.000569529
-0.000173873
6.25245e-06
-3.3681e-06
-8.09828e-05
-0.000223107
-0.000183841
0.000776153
0.00275953
0.00714618
0.0165413
0.0223355
-0.00585191
-0.111135
0.0571981
-0.0264554
0.0327036
0.00780847
-0.000646496
-0.00145506
-0.000631158
-0.000144342
4.74979e-06
-0.000183324
-0.000585882
-0.00088414
-0.000943976
-0.000659245
0.00116576
0.00685103
0.026728
0.056243
-0.00546101
-0.281257
-0.0526016
-0.0452908
0.0366157
0.00694208
-0.0032045
-0.00321665
-0.00163795
-0.000766063
-0.000603773
-0.000922859
-0.00155129
-0.00229083
-0.00308126
-0.00347197
-0.00245005
0.00120293
0.0395624
0.182479
0.271958
0.0794455
0.483272
-1.81486e-05
0.0532115
0.00662506
-0.0111936
-0.00954303
-0.00595006
-0.00340909
-0.00103992
-0.000348489
-0.00123481
-0.00301972
-0.00576927
-0.00867207
-0.0114977
-0.0241729
-0.00953073
0.245584
0.594154
-0.0338406
1.31172
-0.313893
-0.094819
-0.084423
-0.0550892
-0.0253045
-0.0097175
-0.000633104
0.00286279
0.00180251
-0.00137748
-0.00579369
-0.0119659
-0.019709
-0.0276518
-0.0797648
-0.284337
-0.0795278
-0.414428
-2.81527
-0.672648
0.795163
0.770997
0.521151
0.312129
0.214058
0.146731
0.100921
0.0636792
0.033752
0.0113997
-0.00317546
-0.0113828
-0.0127711
-0.00576604
-0.0104276
-0.396195
-0.44163
0.531175
-1.29532
-3.22091
-2.19177
-2.00374
-1.56335
-1.03983
-0.74188
-0.574747
-0.447819
-0.344311
-0.25577
-0.177003
-0.107454
-0.0495097
0.00568003
0.0628988
0.199646
-0.151124
0.684836
-0.12269
4.86956
0.761844
3.27378
3.37628
2.18854
1.4444
1.10983
0.863612
0.68997
0.547017
0.421741
0.305414
0.206967
0.138034
0.114013
0.0930714
0.261556
-0.491738
1.4379
-3.56367
5.15599
5.27651
-0.848273
-3.36387
-0.747266
-0.437127
-0.550681
-0.458448
-0.321726
-0.233286
-0.176782
-0.131234
-0.0908212
-0.059736
-0.0251079
-0.0622852
0.0587123
-0.739677
1.59633
-8.48483
15.9579
-16.5575
)
;

boundaryField
{
    movingWall
    {
        type            extrapolatedCalculated;
        value           nonuniform List<scalar> 
20
(
-0.848273
-3.36387
-0.747266
-0.437127
-0.550681
-0.458448
-0.321726
-0.233286
-0.176782
-0.131234
-0.0908212
-0.059736
-0.0251079
-0.0622852
0.0587123
-0.739677
1.59633
-8.48483
15.9579
-16.5575
)
;
    }
    fixedWalls
    {
        type            extrapolatedCalculated;
        value           nonuniform List<scalar> 
60
(
3.94782e-05
-0.0128179
-0.00836147
-0.0106687
-0.0112185
-0.0121346
-0.0134939
-0.015227
-0.0173083
-0.0197393
-0.0224198
-0.0258123
-0.0264554
-0.0452908
-1.81486e-05
-0.313893
0.795163
-2.19177
3.27378
-0.848273
-5.89982e-05
0.0139932
0.00870875
0.0111868
0.0120352
0.013416
0.0154199
0.0181333
0.0217812
0.027921
0.0500649
0.0571981
-0.0526016
0.483272
1.31172
-0.672648
-3.22091
0.761844
5.27651
-16.5575
3.94782e-05
0.0134779
0.00827547
0.00940128
0.00833889
0.00720162
0.00602414
0.00457183
0.00318008
0.00172936
6.36083e-05
-0.0017385
-0.00347502
-0.00528549
-0.00705858
-0.00881542
-0.0104669
-0.00986421
-0.0154154
-5.89982e-05
)
;
    }
    frontAndBack
    {
        type            empty;
    }
}


// ************************************************************************* //
