/*--------------------------------*- C++ -*----------------------------------*\
| =========                 |                                                 |
| \\      /  F ield         | OpenFOAM: The Open Source CFD Toolbox           |
|  \\    /   O peration     | Version:  2312                                  |
|   \\  /    A nd           | Website:  www.openfoam.com                      |
|    \\/     M anipulation  |                                                 |
\*---------------------------------------------------------------------------*/
FoamFile
{
    version     2.0;
    format      ascii;
    arch        "LSB;label=32;scalar=64";
    class       volScalarField;
    location    "0.375";
    object      enstrophyField;
}
// * * * * * * * * * * * * * * * * * * * * * * * * * * * * * * * * * * * * * //

dimensions      [0 0 -2 0 0 0 0];

internalField   nonuniform List<scalar> 
400
(
0.00580717
0.0187282
0.0524097
0.106868
0.179843
0.263298
0.347729
0.424148
0.485197
0.524275
0.53677
0.520498
0.476201
0.407128
0.320432
0.226717
0.139144
0.0702401
0.0256898
0.00829188
0.0190651
0.00467078
0.00221624
0.0011522
0.000780712
0.000719417
0.000785948
0.000887365
0.000966526
0.00101923
0.00100535
0.000936159
0.000837402
0.000738426
0.000698598
0.000819218
0.00130983
0.00260322
0.00541391
0.0260804
0.0554359
0.00265492
0.000871731
0.000256106
4.99286e-05
3.79112e-06
3.41505e-07
2.9568e-06
5.08413e-06
6.50538e-06
7.88201e-06
8.65235e-06
7.20022e-06
2.22233e-06
2.4275e-06
5.81978e-05
0.000314151
0.00104381
0.00308731
0.076932
0.120261
0.00185303
0.00045364
0.00012021
1.2371e-05
2.23167e-06
2.00399e-05
3.703e-05
4.78588e-05
5.38628e-05
5.62748e-05
5.38831e-05
4.33274e-05
2.23538e-05
1.24916e-06
2.30579e-05
0.000174019
0.000593458
0.00231174
0.170356
0.221839
0.0017519
0.000308838
8.6638e-05
1.15407e-05
9.37299e-07
1.4603e-05
2.98082e-05
3.98211e-05
4.48788e-05
4.57787e-05
4.1488e-05
2.97037e-05
1.11825e-05
1.09753e-07
3.28225e-05
0.000159732
0.000478647
0.0024337
0.323186
0.367836
0.00214508
0.000297798
9.33482e-05
2.15817e-05
5.84141e-07
3.66459e-06
1.22078e-05
1.8448e-05
2.13183e-05
2.11013e-05
1.71578e-05
8.8158e-06
4.08763e-07
1.01412e-05
7.09762e-05
0.000217315
0.000561212
0.00330245
0.557293
0.569024
0.00299127
0.000374015
0.000128416
4.2318e-05
7.47569e-06
4.8798e-09
2.2768e-06
5.21321e-06
6.51907e-06
6.00842e-06
3.50496e-06
2.23859e-07
4.94712e-06
4.25931e-05
0.000149284
0.000356909
0.000831156
0.00501439
0.908686
0.841717
0.00433593
0.000531425
0.000192137
7.41584e-05
2.06415e-05
2.77128e-06
7.32455e-10
6.91361e-07
1.16213e-06
8.21671e-07
2.99605e-08
2.41657e-06
2.36449e-05
0.000102082
0.00028767
0.000620232
0.00135512
0.00786389
1.43856
1.20973
0.00630317
0.000785869
0.000290917
0.000118127
3.75271e-05
7.86519e-06
7.75777e-07
1.37606e-10
7.01498e-08
7.26457e-10
8.2304e-07
9.65176e-06
5.38484e-05
0.000198042
0.000524622
0.00109113
0.00228201
0.0124287
2.25095
1.70721
0.00913393
0.00117739
0.000438288
0.00017671
5.62139e-05
1.23037e-05
1.514e-06
3.35076e-08
1.2495e-08
3.39959e-08
1.85282e-06
1.75804e-05
9.47472e-05
0.000348418
0.000926572
0.0019145
0.00387801
0.0197292
3.52511
2.38397
0.0132456
0.00177366
0.000648834
0.000246394
7.01338e-05
1.17611e-05
4.15414e-07
4.16476e-07
1.10798e-06
5.85659e-07
3.93673e-07
1.76489e-05
0.000131528
0.000552805
0.00156681
0.00329681
0.00654273
0.0316082
5.56347
3.31576
0.0192814
0.00264042
0.000897375
0.000286617
5.41398e-05
1.13876e-06
5.87134e-06
1.69314e-05
2.32466e-05
2.27575e-05
1.14935e-05
6.96641e-07
0.000103637
0.000704898
0.00241388
0.00548979
0.0113949
0.0575897
8.82213
4.62074
0.0278899
0.00361332
0.000968545
0.000169404
2.96017e-08
6.30521e-05
0.000154347
0.000219413
0.000262305
0.00028488
0.000259049
0.000136396
1.2866e-12
0.00051835
0.00320566
0.00935474
0.0283967
0.225574
15.417
6.51369
0.0380321
0.00362041
0.000368478
4.30532e-05
0.000572729
0.00118329
0.00161807
0.00191387
0.00215102
0.00235938
0.0024321
0.00205905
0.000938309
8.62318e-06
0.00374184
0.0259259
0.2329
2.06518
36.2565
9.14488
0.0435378
0.000885294
0.000825762
0.0042854
0.00793522
0.0105384
0.0123162
0.0136724
0.0148341
0.0160223
0.0168629
0.0160195
0.0113252
0.00332741
0.000943055
0.0549073
0.565211
6.73357
77.5349
13.8248
0.0263856
0.00533015
0.0266534
0.0491681
0.0669531
0.0781517
0.0851802
0.0914086
0.0978206
0.104894
0.11177
0.112651
0.0970468
0.0703942
0.151779
1.48625
8.90252
1.79595
156.549
16.6208
0.00409876
0.130148
0.276506
0.404941
0.516955
0.618598
0.71075
0.797496
0.886514
0.977024
1.05957
1.11083
1.08382
1.03656
3.09195
33.3419
184.971
150.959
328.858
39.5113
1.33414
2.68872
3.81684
5.56819
7.61544
9.66254
11.633
13.4696
15.1033
16.4984
17.6185
18.4219
18.7468
18.7775
25.4638
68.0332
359.694
522.604
232.017
0.929951
33.6989
49.5612
72.3474
98.2838
120.763
139.888
156.984
171.545
182.709
190.527
195.901
199.724
202.005
202.73
205.215
224.144
314.258
565.376
154.073
16253.3
19848.6
19054.4
18165.2
17548.6
17116.5
16783
16515.5
16296.2
16111.2
15952.7
15817
15701.8
15592.9
15495.3
15288.7
15420.9
14199
19213.6
11013.3
)
;

boundaryField
{
    movingWall
    {
        type            calculated;
        value           nonuniform List<scalar> 
20
(
67497.5
71976.2
67786.9
63944.4
61265.6
59253.4
57597.3
56217.8
55098.6
54217.8
53537.7
53006
52572.3
52161.4
51829.5
51173.3
51889.1
47854.4
67601.2
29581.5
)
;
    }
    fixedWalls
    {
        type            calculated;
        value           nonuniform List<scalar> 
60
(
0.00808152
0.0443709
0.170435
0.408441
0.782383
1.31557
2.04512
3.0296
4.35479
6.14332
8.57385
11.9211
16.6164
23.5203
33.2017
51.9
61.0797
179.081
5.8152
12699.6
0.0121953
0.0644519
0.244183
0.589492
1.15483
2.01604
3.30522
5.25012
8.23841
12.9369
20.4695
32.3931
54.5491
112.299
212.17
556.997
1901.94
3236.16
935.998
7146.55
0.00804181
0.0435418
0.161901
0.364487
0.636168
0.943998
1.25331
1.53252
1.75603
1.89809
1.94506
1.88757
1.7266
1.47426
1.15504
0.80647
0.477528
0.219474
0.0621499
0.012121
)
;
    }
    frontAndBack
    {
        type            empty;
    }
}


// ************************************************************************* //
