/*--------------------------------*- C++ -*----------------------------------*\
| =========                 |                                                 |
| \\      /  F ield         | OpenFOAM: The Open Source CFD Toolbox           |
|  \\    /   O peration     | Version:  2312                                  |
|   \\  /    A nd           | Website:  www.openfoam.com                      |
|    \\/     M anipulation  |                                                 |
\*---------------------------------------------------------------------------*/
FoamFile
{
    version     2.0;
    format      ascii;
    arch        "LSB;label=32;scalar=64";
    class       volScalarField;
    location    "0.375";
    object      flowTypeField;
}
// * * * * * * * * * * * * * * * * * * * * * * * * * * * * * * * * * * * * * //

dimensions      [0 0 0 0 0 0 0];

internalField   nonuniform List<scalar> 
400
(
0.229055
0.209291
0.144681
0.0935787
0.0596892
0.0389292
0.0268477
0.0200522
0.0162438
0.0142701
0.0143077
0.0160434
0.0195591
0.0262938
0.0381043
0.0582094
0.0908361
0.140569
0.208746
0.239162
0.20662
0.489412
0.635309
0.721878
0.754081
0.742383
0.700676
0.639652
0.568307
0.500577
0.481204
0.534361
0.620999
0.698829
0.74892
0.761734
0.729415
0.648126
0.517419
0.213218
0.142541
0.620156
0.761807
0.860766
0.932825
0.979368
0.992964
0.976035
0.962763
0.951032
0.943664
0.947151
0.960285
0.981823
0.983988
0.93291
0.862419
0.772886
0.646424
0.143172
0.0933382
0.693317
0.832505
0.907722
0.968054
0.985372
0.952826
0.929399
0.911181
0.898379
0.894866
0.903758
0.923393
0.951703
0.9898
0.961185
0.904417
0.838693
0.713364
0.0926182
0.060933
0.72001
0.870477
0.927441
0.971863
0.991493
0.964776
0.946631
0.934776
0.928359
0.927964
0.934651
0.948976
0.971428
0.997405
0.959667
0.918906
0.870185
0.735261
0.0605362
0.0408713
0.716445
0.884158
0.932215
0.965847
0.994095
0.984679
0.971085
0.963449
0.960272
0.961045
0.966311
0.977311
0.995449
0.979274
0.949916
0.919201
0.878747
0.732103
0.0412786
0.0289169
0.699325
0.883861
0.929562
0.958069
0.981709
0.999516
0.989359
0.983718
0.981843
0.982942
0.987496
0.997011
0.986977
0.964897
0.939588
0.913482
0.8761
0.721297
0.0301872
0.0217539
0.679231
0.8775
0.924234
0.951501
0.973637
0.990088
0.999836
0.994956
0.993535
0.994711
0.999033
0.991856
0.976439
0.955049
0.930787
0.906138
0.869984
0.712406
0.0239375
0.0172897
0.660637
0.869166
0.91832
0.946499
0.969015
0.985501
0.995388
0.999939
0.998637
0.999866
0.995713
0.986313
0.970281
0.948094
0.923294
0.89893
0.864214
0.709081
0.0207114
0.0142894
0.6445
0.86023
0.912363
0.942694
0.966738
0.984087
0.994352
0.999162
0.999498
0.999203
0.994456
0.984219
0.966719
0.942764
0.916809
0.892907
0.860863
0.712491
0.01981
0.0120138
0.63054
0.851149
0.90691
0.94053
0.967146
0.986174
0.997363
0.997369
0.995803
0.997072
0.997748
0.986236
0.966459
0.939756
0.91218
0.889513
0.86185
0.722286
0.0212761
0.00990442
0.618709
0.843181
0.904288
0.943203
0.974135
0.996106
0.991037
0.984813
0.982571
0.983499
0.989055
0.997551
0.973978
0.942529
0.911883
0.890428
0.866278
0.730865
0.028996
0.00779141
0.611311
0.841608
0.912238
0.960628
0.999444
0.973631
0.957894
0.949481
0.945607
0.945738
0.952037
0.9688
0.999997
0.957539
0.918579
0.894995
0.85817
0.66653
0.0215729
0.00421307
0.614668
0.860828
0.950711
0.981643
0.930117
0.895149
0.872925
0.85897
0.85107
0.849779
0.859235
0.886017
0.935594
0.995146
0.931028
0.882265
0.762708
0.440264
-0.0868284
0.00676206
0.645876
0.936169
0.932005
0.836084
0.762768
0.709287
0.668427
0.636705
0.615701
0.6096
0.629614
0.688902
0.792266
0.919201
0.973211
0.884785
0.752194
0.391031
-0.0612095
-0.0171492
0.732761
0.85485
0.656804
0.498922
0.369966
0.264266
0.174774
0.0975072
0.0375034
0.0189645
0.0818621
0.244504
0.481023
0.716842
0.774523
0.593836
0.337313
0.731657
0.154724
0.0517553
0.92714
0.511313
0.173215
-0.0901056
-0.288625
-0.404602
-0.433307
-0.401864
-0.336782
-0.252606
-0.149441
-0.0116361
0.183767
0.40582
0.368432
-0.145835
-0.485986
-0.26324
0.196111
-0.0007026
0.216309
-0.0645679
-0.267484
-0.239389
-0.182822
-0.143196
-0.117317
-0.0970942
-0.0773237
-0.0558932
-0.0301485
0.00448436
0.0615535
0.141651
0.160236
-0.137138
-0.654227
-0.25888
0.339167
0.768873
-0.0339099
0.0153789
0.0206165
-0.00470506
-0.0154931
-0.0159807
-0.014995
-0.0138174
-0.0116957
-0.00865212
-0.00496744
-0.000448886
0.0073899
0.0160144
0.0252052
-0.0226402
-0.114958
-0.358747
0.581947
0.0852551
-0.0240309
-0.0201169
-0.0109229
-0.00600799
-0.00394088
-0.00318799
-0.00300629
-0.00292626
-0.00260999
-0.00197451
-0.00119395
-0.00052456
-0.000146763
-0.000188906
-0.000810155
-0.0041624
0.000653343
-0.0452671
0.11178
)
;

boundaryField
{
    movingWall
    {
        type            calculated;
        value           nonuniform List<scalar> 
20
(
0.0469585
-0.0102261
-0.00969271
-0.00542157
-0.00300843
-0.00199087
-0.00163792
-0.00157713
-0.0015624
-0.00141008
-0.00107432
-0.000652538
-0.000288314
-8.23486e-05
-0.000108228
-0.000447898
-0.00230296
1.5722e-06
-0.0244344
0.064079
)
;
    }
    fixedWalls
    {
        type            calculated;
        value           nonuniform List<scalar> 
60
(
0.116449
0.0969005
0.0550756
0.0323594
0.0190283
0.0112748
0.00683795
0.00424959
0.00264508
0.00151904
0.000550363
-0.00052962
-0.0018783
-0.00402811
-0.00389037
-0.0143204
0.00959164
-0.000744469
0.623747
0.192588
0.120919
0.0961839
0.0524882
0.0296455
0.0164934
0.0088792
0.00445051
0.00175497
4.99618e-05
-0.000904534
-0.000878359
0.00166041
-0.00610041
-0.0727099
-0.0809014
0.0608254
0.0802953
0.123821
0.495619
0.415476
0.11778
0.101053
0.0593894
0.0366384
0.0233252
0.0157049
0.0114777
0.00922093
0.00801378
0.00741073
0.00756737
0.00831669
0.0096232
0.0120738
0.0163457
0.0237386
0.0363164
0.0576277
0.0980421
0.120425
)
;
    }
    frontAndBack
    {
        type            empty;
    }
}


// ************************************************************************* //
