/*--------------------------------*- C++ -*----------------------------------*\
| =========                 |                                                 |
| \\      /  F ield         | OpenFOAM: The Open Source CFD Toolbox           |
|  \\    /   O peration     | Version:  2312                                  |
|   \\  /    A nd           | Website:  www.openfoam.com                      |
|    \\/     M anipulation  |                                                 |
\*---------------------------------------------------------------------------*/
FoamFile
{
    version     2.0;
    format      ascii;
    arch        "LSB;label=32;scalar=64";
    class       volTensorField;
    location    "0.375";
    object      gradU;
}
// * * * * * * * * * * * * * * * * * * * * * * * * * * * * * * * * * * * * * //

dimensions      [0 0 -1 0 0 0 0];

internalField   nonuniform List<tensor> 
400
(
(-0.0858845 0.0537605 0 -0.0540094 0.085924 0 0 0 0)
(-0.122304 0.0246219 0 -0.168915 0.135782 0 0 0 0)
(-0.147043 0.00675979 0 -0.316999 0.155319 0 0 0 0)
(-0.143813 -0.00485 0 -0.467166 0.153214 0 0 0 0)
(-0.131647 -0.00954892 0 -0.609287 0.139986 0 0 0 0)
(-0.114434 -0.0111951 0 -0.736865 0.121635 0 0 0 0)
(-0.0945909 -0.012034 0 -0.845975 0.100615 0 0 0 0)
(-0.0731131 -0.0128742 0 -0.933904 0.077685 0 0 0 0)
(-0.0497427 -0.0136672 0 -0.998753 0.0529228 0 0 0 0)
(-0.0249151 -0.0141921 0 -1.03818 0.0266445 0 0 0 0)
(0.000943403 -0.0150388 0 -1.05116 -0.000879795 0 0 0 0)
(0.0282412 -0.0158302 0 -1.03612 -0.0299797 0 0 0 0)
(0.056349 -0.0161301 0 -0.992041 -0.059824 0 0 0 0)
(0.0846634 -0.0162767 0 -0.918638 -0.0899489 0 0 0 0)
(0.112365 -0.0158607 0 -0.8164 -0.119424 0 0 0 0)
(0.137602 -0.0139262 0 -0.687302 -0.146417 0 0 0 0)
(0.156714 -0.00808017 0 -0.535611 -0.167181 0 0 0 0)
(0.164544 0.00544601 0 -0.369361 -0.174409 0 0 0 0)
(0.141228 0.02539 0 -0.201281 -0.156644 0 0 0 0)
(0.104836 0.0635263 0 -0.0652517 -0.104895 0 0 0 0)
(-0.137039 0.167945 0 -0.0273243 0.124221 0 0 0 0)
(-0.140686 0.0447728 0 -0.0518789 0.141163 0 0 0 0)
(-0.151208 0.0106729 0 -0.0559039 0.143789 0 0 0 0)
(-0.148476 -0.0104827 0 -0.058487 0.1405 0 0 0 0)
(-0.138052 -0.0220301 0 -0.0615449 0.13103 0 0 0 0)
(-0.122254 -0.0281758 0 -0.0661078 0.116269 0 0 0 0)
(-0.102448 -0.0319163 0 -0.0715634 0.0975822 0 0 0 0)
(-0.0796642 -0.0348181 0 -0.0769457 0.076028 0 0 0 0)
(-0.0545331 -0.0373732 0 -0.0813397 0.0523073 0 0 0 0)
(-0.0274888 -0.0396105 0 -0.0847599 0.026679 0 0 0 0)
(0.00111365 -0.0415853 0 -0.0864261 -0.000615626 0 0 0 0)
(0.0308741 -0.043114 0 -0.0863843 -0.028755 0 0 0 0)
(0.0611356 -0.0438392 0 -0.0847635 -0.0575475 0 0 0 0)
(0.0909773 -0.0433232 0 -0.081753 -0.0860017 0 0 0 0)
(0.118971 -0.0406076 0 -0.0779866 -0.112735 0 0 0 0)
(0.143188 -0.0338309 0 -0.0743085 -0.135786 0 0 0 0)
(0.161226 -0.0199113 0 -0.071094 -0.152878 0 0 0 0)
(0.169785 0.00509135 0 -0.0670643 -0.162368 0 0 0 0)
(0.162881 0.0441236 0 -0.0599332 -0.16393 0 0 0 0)
(0.161696 0.198012 0 -0.0303749 -0.147703 0 0 0 0)
(-0.165088 0.319145 0 -0.0138295 0.156726 0 0 0 0)
(-0.150883 0.0441898 0 -0.0286789 0.15942 0 0 0 0)
(-0.153651 0.00609665 0 -0.0356581 0.153772 0 0 0 0)
(-0.149454 -0.0176089 0 -0.040241 0.147418 0 0 0 0)
(-0.139268 -0.03378 0 -0.0437729 0.137593 0 0 0 0)
(-0.124452 -0.0446432 0 -0.0473968 0.123157 0 0 0 0)
(-0.105429 -0.0522746 0 -0.0514482 0.10441 0 0 0 0)
(-0.0828894 -0.0581492 0 -0.0557174 0.0821537 0 0 0 0)
(-0.0575569 -0.0630162 0 -0.0598274 0.0571578 0 0 0 0)
(-0.0300015 -0.067115 0 -0.0635079 0.0299274 0 0 0 0)
(-0.000681052 -0.0704729 0 -0.0665025 0.000902401 0 0 0 0)
(0.0299038 -0.0727621 0 -0.0686022 -0.0293096 0 0 0 0)
(0.0609803 -0.0733768 0 -0.069582 -0.0600403 0 0 0 0)
(0.0914403 -0.071464 0 -0.0693557 -0.0902205 0 0 0 0)
(0.11981 -0.0656447 0 -0.0678481 -0.118342 0 0 0 0)
(0.144494 -0.0540691 0 -0.0648578 -0.142679 0 0 0 0)
(0.163958 -0.034662 0 -0.059728 -0.161958 0 0 0 0)
(0.175705 -0.00560616 0 -0.0512967 -0.176394 0 0 0 0)
(0.177918 0.0400543 0 -0.0385244 -0.187846 0 0 0 0)
(0.195144 0.375159 0 -0.0170958 -0.186435 0 0 0 0)
(-0.179548 0.484091 0 -0.00633903 0.168879 0 0 0 0)
(-0.162514 0.041818 0 -0.0190595 0.172689 0 0 0 0)
(-0.16277 -0.0013288 0 -0.0314499 0.165131 0 0 0 0)
(-0.15659 -0.0266608 0 -0.0421663 0.156487 0 0 0 0)
(-0.145208 -0.0462919 0 -0.051266 0.145285 0 0 0 0)
(-0.12993 -0.0613588 0 -0.0592461 0.130216 0 0 0 0)
(-0.110769 -0.0729191 0 -0.0665883 0.111087 0 0 0 0)
(-0.0880434 -0.0820707 0 -0.0734649 0.0883605 0 0 0 0)
(-0.0623237 -0.0895996 0 -0.079816 0.0626442 0 0 0 0)
(-0.0341638 -0.0958659 0 -0.0854868 0.0344291 0 0 0 0)
(-0.00398065 -0.100822 0 -0.0902134 0.0041426 0 0 0 0)
(0.0277946 -0.104057 0 -0.0936756 -0.0276106 0 0 0 0)
(0.0603821 -0.10475 0 -0.0954412 -0.0602351 0 0 0 0)
(0.0927112 -0.101625 0 -0.0949385 -0.0926841 0 0 0 0)
(0.123469 -0.0930659 0 -0.0914853 -0.123551 0 0 0 0)
(0.151308 -0.0774466 0 -0.0842374 -0.151325 0 0 0 0)
(0.174787 -0.053626 0 -0.0722818 -0.174939 0 0 0 0)
(0.190989 -0.0207973 0 -0.0552489 -0.194269 0 0 0 0)
(0.197082 0.0340818 0 -0.0339143 -0.209184 0 0 0 0)
(0.217317 0.572294 0 -0.0114121 -0.20613 0 0 0 0)
(-0.190486 0.660713 0 -0.00537914 0.179268 0 0 0 0)
(-0.175994 0.040442 0 -0.0187508 0.186825 0 0 0 0)
(-0.176758 -0.0101056 0 -0.0349586 0.179303 0 0 0 0)
(-0.16927 -0.0374555 0 -0.0506189 0.169127 0 0 0 0)
(-0.156348 -0.060051 0 -0.0648553 0.15632 0 0 0 0)
(-0.139774 -0.0788412 0 -0.077472 0.140031 0 0 0 0)
(-0.119648 -0.09413 0 -0.0887258 0.120001 0 0 0 0)
(-0.0961172 -0.106592 0 -0.0988707 0.0964934 0 0 0 0)
(-0.0695788 -0.116948 0 -0.108023 0.0699495 0 0 0 0)
(-0.0403988 -0.125617 0 -0.116143 0.04074 0 0 0 0)
(-0.00886986 -0.132513 0 -0.122944 0.00917808 0 0 0 0)
(0.0246759 -0.13714 0 -0.128031 -0.0244106 0 0 0 0)
(0.0597174 -0.13845 0 -0.130743 -0.0595015 0 0 0 0)
(0.0953962 -0.13478 0 -0.130051 -0.0952404 0 0 0 0)
(0.130511 -0.124286 0 -0.124754 -0.130373 0 0 0 0)
(0.163698 -0.105457 0 -0.113559 -0.163415 0 0 0 0)
(0.192947 -0.0776063 0 -0.0954798 -0.192951 0 0 0 0)
(0.214073 -0.0398518 0 -0.070792 -0.217701 0 0 0 0)
(0.221755 0.0281938 0 -0.0415729 -0.235147 0 0 0 0)
(0.24047 0.790474 0 -0.0134987 -0.228435 0 0 0 0)
(-0.203678 0.850184 0 -0.0075297 0.191543 0 0 0 0)
(-0.192094 0.0418537 0 -0.0236456 0.203803 0 0 0 0)
(-0.194638 -0.0190263 0 -0.0434312 0.197349 0 0 0 0)
(-0.186487 -0.0496444 0 -0.0633081 0.186262 0 0 0 0)
(-0.172061 -0.0753876 0 -0.0819575 0.171815 0 0 0 0)
(-0.1538 -0.0976772 0 -0.0987581 0.153862 0 0 0 0)
(-0.132167 -0.116457 0 -0.11375 0.132386 0 0 0 0)
(-0.107341 -0.132123 0 -0.127182 0.107644 0 0 0 0)
(-0.0795955 -0.145353 0 -0.139279 0.0799407 0 0 0 0)
(-0.0490845 -0.156637 0 -0.150108 0.049474 0 0 0 0)
(-0.0158689 -0.165973 0 -0.159477 0.0163114 0 0 0 0)
(0.0199961 -0.172736 0 -0.166878 -0.0195668 0 0 0 0)
(0.0583622 -0.17558 0 -0.171381 -0.0579225 0 0 0 0)
(0.0986996 -0.172497 0 -0.171593 -0.0982227 0 0 0 0)
(0.139961 -0.16124 0 -0.165744 -0.13941 0 0 0 0)
(0.180582 -0.140024 0 -0.151939 -0.179864 0 0 0 0)
(0.217554 -0.107912 0 -0.12876 -0.217418 0 0 0 0)
(0.244896 -0.0629933 0 -0.0964959 -0.249081 0 0 0 0)
(0.254375 0.0233474 0 -0.0579232 -0.26972 0 0 0 0)
(0.272388 1.03588 0 -0.0198627 -0.258972 0 0 0 0)
(-0.221662 1.05606 0 -0.0107341 0.208168 0 0 0 0)
(-0.211896 0.0462476 0 -0.0310992 0.224793 0 0 0 0)
(-0.216421 -0.0276465 0 -0.0549967 0.219442 0 0 0 0)
(-0.207796 -0.0629893 0 -0.0790152 0.207616 0 0 0 0)
(-0.191798 -0.0924515 0 -0.101651 0.191456 0 0 0 0)
(-0.171567 -0.11827 0 -0.122136 0.171526 0 0 0 0)
(-0.148071 -0.140347 0 -0.140446 0.148213 0 0 0 0)
(-0.121646 -0.159038 0 -0.156904 0.12191 0 0 0 0)
(-0.0925049 -0.175118 0 -0.171889 0.0928526 0 0 0 0)
(-0.0605967 -0.189246 0 -0.185635 0.0610173 0 0 0 0)
(-0.0256406 -0.201553 0 -0.198087 0.0261385 0 0 0 0)
(0.0127717 -0.211374 0 -0.208726 -0.0121931 0 0 0 0)
(0.055003 -0.217106 0 -0.216437 -0.0543126 0 0 0 0)
(0.101033 -0.216267 0 -0.219412 -0.100199 0 0 0 0)
(0.150165 -0.205927 0 -0.215157 -0.149157 0 0 0 0)
(0.200681 -0.183465 0 -0.200744 -0.199491 0 0 0 0)
(0.24839 -0.146823 0 -0.17354 -0.248126 0 0 0 0)
(0.28491 -0.0921531 0 -0.132925 -0.289943 0 0 0 0)
(0.298388 0.0183023 0 -0.0818415 -0.31657 0 0 0 0)
(0.318256 1.31917 0 -0.0289339 -0.302836 0 0 0 0)
(-0.245511 1.28314 0 -0.0143282 0.230284 0 0 0 0)
(-0.236356 0.0531281 0 -0.0399947 0.250754 0 0 0 0)
(-0.242554 -0.0362034 0 -0.0688048 0.245942 0 0 0 0)
(-0.233142 -0.07763 0 -0.097233 0.232997 0 0 0 0)
(-0.215182 -0.111478 0 -0.123656 0.21476 0 0 0 0)
(-0.192595 -0.140921 0 -0.147346 0.19247 0 0 0 0)
(-0.166935 -0.166073 0 -0.168427 0.167016 0 0 0 0)
(-0.138784 -0.187483 0 -0.187445 0.139007 0 0 0 0)
(-0.108327 -0.206246 0 -0.20507 0.108664 0 0 0 0)
(-0.0752823 -0.223351 0 -0.221827 0.07573 0 0 0 0)
(-0.0389598 -0.239183 0 -0.237901 0.0395331 0 0 0 0)
(0.00164599 -0.253187 0 -0.252943 -0.000909764 0 0 0 0)
(0.0476758 -0.263586 0 -0.265784 -0.0467077 0 0 0 0)
(0.0999796 -0.267341 0 -0.274218 -0.0986965 0 0 0 0)
(0.158629 -0.260532 0 -0.27482 -0.156978 0 0 0 0)
(0.222199 -0.238994 0 -0.26298 -0.220231 0 0 0 0)
(0.285374 -0.198364 0 -0.233585 -0.284713 0 0 0 0)
(0.336595 -0.131437 0 -0.183497 -0.342685 0 0 0 0)
(0.358366 0.0104538 0 -0.114957 -0.380674 0 0 0 0)
(0.383164 1.65528 0 -0.0409236 -0.36503 0 0 0 0)
(-0.275984 1.5371 0 -0.0183619 0.258676 0 0 0 0)
(-0.266372 0.0619053 0 -0.0503726 0.282685 0 0 0 0)
(-0.273659 -0.0454034 0 -0.0850486 0.277493 0 0 0 0)
(-0.262648 -0.0941714 0 -0.118293 0.262506 0 0 0 0)
(-0.241911 -0.132978 0 -0.148349 0.241384 0 0 0 0)
(-0.216338 -0.166013 0 -0.174676 0.216126 0 0 0 0)
(-0.18817 -0.19381 0 -0.197776 0.188187 0 0 0 0)
(-0.158289 -0.21739 0 -0.218635 0.158471 0 0 0 0)
(-0.126887 -0.238395 0 -0.238379 0.127187 0 0 0 0)
(-0.0934281 -0.258377 0 -0.258002 0.0938638 0 0 0 0)
(-0.0567562 -0.278193 0 -0.278155 0.057356 0 0 0 0)
(-0.0151113 -0.297615 0 -0.298898 0.0159686 0 0 0 0)
(0.0337276 -0.314893 0 -0.319286 -0.032473 0 0 0 0)
(0.0919977 -0.326538 0 -0.336915 -0.0901587 0 0 0 0)
(0.161403 -0.327462 0 -0.347364 -0.158802 0 0 0 0)
(0.241917 -0.3112 0 -0.343592 -0.23858 0 0 0 0)
(0.327873 -0.269277 0 -0.315992 -0.326187 0 0 0 0)
(0.403538 -0.188115 0 -0.255672 -0.410869 0 0 0 0)
(0.440961 -0.00404259 0 -0.161705 -0.469858 0 0 0 0)
(0.474137 2.06487 0 -0.056899 -0.452355 0 0 0 0)
(-0.314246 1.82451 0 -0.0233089 0.294506 0 0 0 0)
(-0.303043 0.071945 0 -0.0632137 0.32184 0 0 0 0)
(-0.310474 -0.0563825 0 -0.104908 0.314888 0 0 0 0)
(-0.296442 -0.113739 0 -0.143346 0.296274 0 0 0 0)
(-0.271566 -0.157858 0 -0.176658 0.270892 0 0 0 0)
(-0.242022 -0.194118 0 -0.204721 0.241709 0 0 0 0)
(-0.210894 -0.223727 0 -0.228688 0.21084 0 0 0 0)
(-0.179387 -0.248483 0 -0.250223 0.179503 0 0 0 0)
(-0.147694 -0.270853 0 -0.271112 0.147928 0 0 0 0)
(-0.115059 -0.293183 0 -0.293025 0.115415 0 0 0 0)
(-0.0798549 -0.317079 0 -0.317339 0.0803876 0 0 0 0)
(-0.0394853 -0.343016 0 -0.344941 0.0403426 0 0 0 0)
(0.00965796 -0.369713 0 -0.375643 -0.00820283 0 0 0 0)
(0.0719025 -0.39367 0 -0.407436 -0.069445 0 0 0 0)
(0.151952 -0.408953 0 -0.43535 -0.147998 0 0 0 0)
(0.253571 -0.406379 0 -0.449427 -0.24781 0 0 0 0)
(0.373294 -0.370653 0 -0.432532 -0.369091 0 0 0 0)
(0.490882 -0.275108 0 -0.363176 -0.499002 0 0 0 0)
(0.557139 -0.0310329 0 -0.229674 -0.596285 0 0 0 0)
(0.601768 2.5775 0 -0.0777285 -0.573847 0 0 0 0)
(-0.362507 2.15344 0 -0.0301158 0.340087 0 0 0 0)
(-0.347972 0.0822872 0 -0.0804737 0.370002 0 0 0 0)
(-0.353791 -0.0709692 0 -0.130528 0.358951 0 0 0 0)
(-0.334397 -0.138168 0 -0.174191 0.334151 0 0 0 0)
(-0.303286 -0.187544 0 -0.209743 0.302406 0 0 0 0)
(-0.268368 -0.226064 0 -0.237908 0.267922 0 0 0 0)
(-0.233672 -0.256016 0 -0.260866 0.233539 0 0 0 0)
(-0.200714 -0.280302 0 -0.281214 0.200758 0 0 0 0)
(-0.169689 -0.302484 0 -0.301571 0.169813 0 0 0 0)
(-0.139655 -0.325917 0 -0.324429 0.13984 0 0 0 0)
(-0.108673 -0.353265 0 -0.352183 0.108932 0 0 0 0)
(-0.0734148 -0.386205 0 -0.387092 0.0738935 0 0 0 0)
(-0.0287669 -0.42468 0 -0.430622 0.0301324 0 0 0 0)
(0.03229 -0.466332 0 -0.482551 -0.0293614 0 0 0 0)
(0.119411 -0.505827 0 -0.539078 -0.113743 0 0 0 0)
(0.244735 -0.532294 0 -0.588273 -0.234741 0 0 0 0)
(0.414124 -0.520469 0 -0.60167 -0.403875 0 0 0 0)
(0.606395 -0.415308 0 -0.5297 -0.611654 0 0 0 0)
(0.726409 -0.0788874 0 -0.330316 -0.777352 0 0 0 0)
(0.781539 3.235 0 -0.100707 -0.731475 0 0 0 0)
(-0.424835 2.5346 0 -0.0405785 0.399023 0 0 0 0)
(-0.403456 0.0908084 0 -0.105566 0.429676 0 0 0 0)
(-0.404191 -0.0922335 0 -0.164903 0.410284 0 0 0 0)
(-0.375656 -0.170284 0 -0.212648 0.375219 0 0 0 0)
(-0.335283 -0.224087 0 -0.24803 0.334123 0 0 0 0)
(-0.293145 -0.262985 0 -0.273391 0.292576 0 0 0 0)
(-0.2542 -0.290891 0 -0.2924 0.254026 0 0 0 0)
(-0.220092 -0.312209 0 -0.308782 0.220098 0 0 0 0)
(-0.190909 -0.331771 0 -0.325952 0.190905 0 0 0 0)
(-0.165671 -0.354063 0 -0.347244 0.16559 0 0 0 0)
(-0.142519 -0.383025 0 -0.376279 0.142295 0 0 0 0)
(-0.117924 -0.421816 0 -0.417022 0.11774 0 0 0 0)
(-0.085801 -0.472968 0 -0.474148 0.0865772 0 0 0 0)
(-0.0365536 -0.537545 0 -0.551943 0.0393131 0 0 0 0)
(0.0462311 -0.614332 0 -0.65188 -0.0390849 0 0 0 0)
(0.190978 -0.696511 0 -0.765993 -0.174437 0 0 0 0)
(0.431867 -0.747566 0 -0.852349 -0.409531 0 0 0 0)
(0.762236 -0.648585 0 -0.799548 -0.768088 0 0 0 0)
(0.986132 -0.150854 0 -0.490235 -1.09727 0 0 0 0)
(1.03279 4.08632 0 -0.114184 -0.975592 0 0 0 0)
(-0.508651 2.98214 0 -0.0578376 0.482196 0 0 0 0)
(-0.472296 0.0935488 0 -0.142629 0.505 0 0 0 0)
(-0.460873 -0.125426 0 -0.210436 0.468682 0 0 0 0)
(-0.417524 -0.214329 0 -0.258342 0.416877 0 0 0 0)
(-0.364029 -0.270187 0 -0.288594 0.362574 0 0 0 0)
(-0.312738 -0.306161 0 -0.306404 0.312107 0 0 0 0)
(-0.269063 -0.328494 0 -0.317264 0.268919 0 0 0 0)
(-0.234266 -0.343423 0 -0.325854 0.23427 0 0 0 0)
(-0.208151 -0.356992 0 -0.336044 0.207967 0 0 0 0)
(-0.189982 -0.374527 0 -0.351623 0.189396 0 0 0 0)
(-0.17845 -0.401115 0 -0.377245 0.177566 0 0 0 0)
(-0.171284 -0.441923 0 -0.419162 0.17034 0 0 0 0)
(-0.163688 -0.503107 0 -0.486591 0.163028 0 0 0 0)
(-0.145441 -0.591994 0 -0.591996 0.146607 0 0 0 0)
(-0.094639 -0.719577 0 -0.751774 0.10149 0 0 0 0)
(0.0442657 -0.90274 0 -0.982811 -0.0175378 0 0 0 0)
(0.380569 -1.11412 0 -1.2509 -0.324326 0 0 0 0)
(0.96851 -1.10304 0 -1.34136 -0.973971 0 0 0 0)
(1.41177 -0.286392 0 -0.958067 -1.69303 0 0 0 0)
(1.38596 5.30786 0 -0.244982 -1.43856 0 0 0 0)
(-0.625301 3.52179 0 -0.0875567 0.580011 0 0 0 0)
(-0.556054 0.0772944 0 -0.198503 0.592669 0 0 0 0)
(-0.519905 -0.180356 0 -0.265449 0.526847 0 0 0 0)
(-0.453815 -0.276392 0 -0.303539 0.45061 0 0 0 0)
(-0.383345 -0.328858 0 -0.319579 0.380129 0 0 0 0)
(-0.321815 -0.356639 0 -0.322795 0.320177 0 0 0 0)
(-0.273649 -0.368727 0 -0.32008 0.272883 0 0 0 0)
(-0.238872 -0.373161 0 -0.316274 0.238268 0 0 0 0)
(-0.216678 -0.376645 0 -0.314776 0.215755 0 0 0 0)
(-0.206871 -0.384464 0 -0.318874 0.20532 0 0 0 0)
(-0.210058 -0.402082 0 -0.333388 0.207767 0 0 0 0)
(-0.22727 -0.436354 0 -0.36661 0.224189 0 0 0 0)
(-0.258636 -0.496701 0 -0.432529 0.255164 0 0 0 0)
(-0.301737 -0.599084 0 -0.555764 0.299287 0 0 0 0)
(-0.344584 -0.778477 0 -0.78263 0.345787 0 0 0 0)
(-0.30815 -1.12233 0 -1.20884 0.347713 0 0 0 0)
(0.07332 -1.704 0 -1.93171 0.109159 0 0 0 0)
(1.05507 -2.01729 0 -2.69978 -0.783114 0 0 0 0)
(2.08251 -0.615443 0 -2.64777 -2.00306 0 0 0 0)
(2.23584 7.21791 0 -1.29755 -1.75257 0 0 0 0)
(-0.794711 4.15482 0 -0.121831 0.794693 0 0 0 0)
(-0.650188 0.0403848 0 -0.254701 0.7034 0 0 0 0)
(-0.565909 -0.267485 0 -0.309564 0.572534 0 0 0 0)
(-0.471654 -0.361048 0 -0.320409 0.46046 0 0 0 0)
(-0.383285 -0.400621 0 -0.308042 0.373741 0 0 0 0)
(-0.313239 -0.413406 0 -0.287428 0.307289 0 0 0 0)
(-0.262542 -0.410402 0 -0.265224 0.259133 0 0 0 0)
(-0.228962 -0.400552 0 -0.243605 0.227922 0 0 0 0)
(-0.210752 -0.38994 0 -0.224577 0.210403 0 0 0 0)
(-0.208594 -0.382515 0 -0.21027 0.20736 0 0 0 0)
(-0.226186 -0.382246 0 -0.203236 0.223166 0 0 0 0)
(-0.270425 -0.394526 0 -0.210881 0.264655 0 0 0 0)
(-0.352841 -0.428009 0 -0.249015 0.344169 0 0 0 0)
(-0.495542 -0.501371 0 -0.350871 0.484044 0 0 0 0)
(-0.74771 -0.671151 0 -0.589574 0.723537 0 0 0 0)
(-1.10481 -1.13937 0 -1.1828 1.09528 0 0 0 0)
(-1.11038 -2.24495 0 -2.57633 1.35596 0 0 0 0)
(0.252446 -3.21527 0 -4.27848 0.341709 0 0 0 0)
(2.81401 -1.25585 0 -4.92561 -2.84785 0 0 0 0)
(5.33128 9.06349 0 -3.38921 -4.01956 0 0 0 0)
(-1.00183 5.01988 0 -0.238408 0.68794 0 0 0 0)
(-0.743787 -0.144864 0 -0.374584 0.648968 0 0 0 0)
(-0.585612 -0.423295 0 -0.320046 0.501189 0 0 0 0)
(-0.452293 -0.475185 0 -0.244302 0.397204 0 0 0 0)
(-0.350365 -0.48203 0 -0.168444 0.325061 0 0 0 0)
(-0.278997 -0.471248 0 -0.105316 0.269279 0 0 0 0)
(-0.229825 -0.448094 0 -0.0527417 0.229192 0 0 0 0)
(-0.198225 -0.42189 0 -0.00914299 0.201088 0 0 0 0)
(-0.183343 -0.397207 0 0.0303641 0.185146 0 0 0 0)
(-0.18553 -0.371701 0 0.0706123 0.184153 0 0 0 0)
(-0.210668 -0.344786 0 0.11324 0.204874 0 0 0 0)
(-0.273049 -0.315351 0 0.15745 0.261083 0 0 0 0)
(-0.398626 -0.277312 0 0.197348 0.378917 0 0 0 0)
(-0.642296 -0.219716 0 0.220844 0.614644 0 0 0 0)
(-1.17651 -0.167239 0 0.207979 1.09674 0 0 0 0)
(-2.29491 -0.4899 0 0.0610597 2.01057 0 0 0 0)
(-3.02236 -2.45757 0 -0.733479 2.94283 0 0 0 0)
(-1.29421 -6.2211 0 -2.0015 0.879777 0 0 0 0)
(2.97177 -4.97671 0 -3.08148 -5.78705 0 0 0 0)
(10.5507 14.0853 0 -3.60926 -11.2233 0 0 0 0)
(-1.4077 5.49173 0 -0.273823 2.20286 0 0 0 0)
(-0.731826 -0.146366 0 -0.236906 1.50282 0 0 0 0)
(-0.435628 -0.519249 0 -0.0090578 0.956779 0 0 0 0)
(-0.320052 -0.537176 0 0.206472 0.632181 0 0 0 0)
(-0.244298 -0.528545 0 0.371389 0.458356 0 0 0 0)
(-0.197536 -0.509275 0 0.507539 0.344267 0 0 0 0)
(-0.166369 -0.478594 0 0.633699 0.26729 0 0 0 0)
(-0.145856 -0.444598 0 0.747668 0.209535 0 0 0 0)
(-0.130996 -0.406875 0 0.856055 0.164748 0 0 0 0)
(-0.125719 -0.362786 0 0.968765 0.137119 0 0 0 0)
(-0.139349 -0.305315 0 1.09256 0.136173 0 0 0 0)
(-0.186317 -0.220484 0 1.23524 0.174934 0 0 0 0)
(-0.289447 -0.0744483 0 1.41608 0.276675 0 0 0 0)
(-0.484911 0.216457 0 1.68875 0.479145 0 0 0 0)
(-0.907495 0.724774 0 2.16461 0.897067 0 0 0 0)
(-2.04627 0.706723 0 3.19347 1.65008 0 0 0 0)
(-3.17294 -3.37574 0 4.79028 2.73131 0 0 0 0)
(-2.09556 -11.9451 0 7.28874 2.62674 0 0 0 0)
(1.20624 -13.3589 0 4.01686 -2.50156 0 0 0 0)
(12.022 26.0738 0 0.42785 -15.2429 0 0 0 0)
(-1.51256 8.72557 0 -0.163889 -0.67921 0 0 0 0)
(-0.479021 -1.39095 0 0.242539 -1.52472 0 0 0 0)
(-0.142234 -1.29394 0 1.02499 -1.42112 0 0 0 0)
(-0.0718466 -0.973607 0 1.7893 -0.967982 0 0 0 0)
(-0.0492985 -0.769944 0 2.56718 -0.692581 0 0 0 0)
(-0.0166867 -0.662314 0 3.24036 -0.55806 0 0 0 0)
(0.0103042 -0.582826 0 3.8132 -0.458123 0 0 0 0)
(0.0241309 -0.524432 0 4.29905 -0.368442 0 0 0 0)
(0.0377531 -0.469624 0 4.72067 -0.293523 0 0 0 0)
(0.0509723 -0.400277 0 5.09577 -0.227975 0 0 0 0)
(0.0558098 -0.306971 0 5.43731 -0.163264 0 0 0 0)
(0.0504687 -0.174849 0 5.76122 -0.0999784 0 0 0 0)
(0.0548813 0.0268987 0 6.09681 -0.0492013 0 0 0 0)
(0.106238 0.400676 0 6.52388 -0.0433393 0 0 0 0)
(0.328209 1.00369 0 7.1319 -0.128564 0 0 0 0)
(0.330761 1.34434 0 8.4807 -0.481886 0 0 0 0)
(1.07291 -1.48091 0 10.1838 -0.388076 0 0 0 0)
(-2.06762 -11.454 0 15.3674 1.94493 0 0 0 0)
(-3.88912 -22.8464 0 9.48328 8.75868 0 0 0 0)
(6.10595 31.8298 0 10.2884 -5.3441 0 0 0 0)
(-1.32905 3.2878 0 4.65158 4.60283 0 0 0 0)
(0.457056 -0.888277 0 7.32134 2.91922 0 0 0 0)
(1.11114 0.0374925 0 9.99352 1.0774 0 0 0 0)
(1.22213 0.191363 0 12.2203 0.222272 0 0 0 0)
(1.20676 -0.118623 0 13.9016 -0.0969296 0 0 0 0)
(1.04849 -0.274816 0 15.2663 -0.184879 0 0 0 0)
(0.892317 -0.288977 0 16.4376 -0.202347 0 0 0 0)
(0.761615 -0.279998 0 17.4391 -0.214598 0 0 0 0)
(0.665727 -0.266408 0 18.2563 -0.243985 0 0 0 0)
(0.59092 -0.232527 0 18.8834 -0.285506 0 0 0 0)
(0.526102 -0.177319 0 19.3433 -0.319135 0 0 0 0)
(0.473181 -0.106421 0 19.6876 -0.335147 0 0 0 0)
(0.473211 -0.0178092 0 19.9684 -0.359197 0 0 0 0)
(0.550177 0.137094 0 20.2371 -0.457106 0 0 0 0)
(1.04933 0.286228 0 20.4223 -0.787773 0 0 0 0)
(1.00566 0.44721 0 20.7063 -1.4974 0 0 0 0)
(3.71379 -0.948922 0 20.2239 -2.27589 0 0 0 0)
(-2.79612 -2.79839 0 22.2718 -0.767559 0 0 0 0)
(-3.87283 -20.648 0 12.9787 9.02883 0 0 0 0)
(-7.74961 22.6593 0 40.2134 13.0261 0 0 0 0)
(10.4604 16.2476 0 196.544 -11.3086 0 0 0 0)
(4.86292 -4.91638 0 194.325 -8.22679 0 0 0 0)
(4.75671 -3.99089 0 191.224 -5.50397 0 0 0 0)
(3.83627 -2.14794 0 188.457 -4.2734 0 0 0 0)
(2.99672 -1.1771 0 186.165 -3.5474 0 0 0 0)
(2.51923 -0.767732 0 184.254 -2.97768 0 0 0 0)
(2.18313 -0.612544 0 182.598 -2.50485 0 0 0 0)
(1.84287 -0.56607 0 181.178 -2.07616 0 0 0 0)
(1.482 -0.540532 0 179.993 -1.65878 0 0 0 0)
(1.13798 -0.475426 0 179.031 -1.26922 0 0 0 0)
(0.860008 -0.356612 0 178.264 -0.95083 0 0 0 0)
(0.675549 -0.214911 0 177.644 -0.735285 0 0 0 0)
(0.604389 -0.0950597 0 177.115 -0.629497 0 0 0 0)
(0.560131 -0.0278996 0 176.567 -0.622417 0 0 0 0)
(0.797404 -0.0366061 0 176.005 -0.738692 0 0 0 0)
(0.132361 -0.14378 0 174.72 -0.872038 0 0 0 0)
(2.63846 -0.751069 0 174.867 -1.04212 0 0 0 0)
(-9.31279 -0.149249 0 168.368 0.827952 0 0 0 0)
(14.0524 -9.05271 0 186.976 1.90552 0 0 0 0)
(-47.0861 9.77488 0 158.188 30.5286 0 0 0 0)
)
;

boundaryField
{
    movingWall
    {
        type            extrapolatedCalculated;
        value           nonuniform List<tensor> 
20
(
(10.4604 16.2476 0 383.664 -37.1726 0 0 0 0)
(4.86292 -4.91638 0 374.494 -27.8179 0 0 0 0)
(4.75671 -3.99089 0 364.213 -17.5071 0 0 0 0)
(3.83627 -2.14794 0 355.467 -11.8543 0 0 0 0)
(2.99672 -1.1771 0 348.868 -8.91534 0 0 0 0)
(2.51923 -0.767732 0 343.481 -7.14596 0 0 0 0)
(2.18313 -0.612544 0 338.791 -5.84441 0 0 0 0)
(1.84287 -0.56607 0 334.748 -4.69578 0 0 0 0)
(1.482 -0.540532 0 331.419 -3.58013 0 0 0 0)
(1.13798 -0.475426 0 328.82 -2.53365 0 0 0 0)
(0.860008 -0.356612 0 326.867 -1.67843 0 0 0 0)
(0.675549 -0.214911 0 325.38 -1.10721 0 0 0 0)
(0.604389 -0.0950597 0 324.165 -0.818781 0 0 0 0)
(0.560131 -0.0278996 0 322.962 -0.726967 0 0 0 0)
(0.797404 -0.0366061 0 321.925 -0.707182 0 0 0 0)
(0.132361 -0.14378 0 319.773 -0.580542 0 0 0 0)
(2.63846 -0.751069 0 321.395 -0.132061 0 0 0 0)
(-9.31279 -0.149249 0 309.219 2.42373 0 0 0 0)
(14.0524 -9.05271 0 358.646 0.464936 0 0 0 0)
(-47.0861 9.77488 0 253.009 38.6346 0 0 0 0)
)
;
    }
    fixedWalls
    {
        type            extrapolatedCalculated;
        value           nonuniform List<tensor> 
60
(
(-0.0730608 0.0731246 0 -0.0540094 0.085924 0 0 0 0)
(-0.142977 0.270571 0 -0.0273243 0.124221 0 0 0 0)
(-0.182358 0.570011 0 -0.0138295 0.156726 0 0 0 0)
(-0.198295 0.897477 0 -0.00633903 0.168879 0 0 0 0)
(-0.207714 1.24553 0 -0.00537914 0.179268 0 0 0 0)
(-0.219811 1.61455 0 -0.0075297 0.191543 0 0 0 0)
(-0.237833 2.0117 0 -0.0107341 0.208168 0 0 0 0)
(-0.262748 2.44722 0 -0.0143282 0.230284 0 0 0 0)
(-0.295146 2.93284 0 -0.0183619 0.258676 0 0 0 0)
(-0.336195 3.48192 0 -0.0233089 0.294506 0 0 0 0)
(-0.388381 4.11086 0 -0.0301158 0.340087 0 0 0 0)
(-0.456658 4.84227 0 -0.0405785 0.399023 0 0 0 0)
(-0.550695 5.70695 0 -0.0578376 0.482196 0 0 0 0)
(-0.688009 6.77105 0 -0.0875567 0.580011 0 0 0 0)
(-0.900922 8.027 0 -0.121831 0.794693 0 0 0 0)
(-1.17533 9.94983 0 -0.238408 0.68794 0 0 0 0)
(-1.85455 10.7788 0 -0.273823 2.20286 0 0 0 0)
(-2.27063 18.7613 0 -0.163889 -0.67921 0 0 0 0)
(-2.51011 8.06192 0 4.65158 4.60283 0 0 0 0)
(16.3357 37.1726 0 196.544 -11.3086 0 0 0 0)
(0.0921721 0.0909232 0 -0.0652517 -0.104895 0 0 0 0)
(0.168835 0.328657 0 -0.0303749 -0.147703 0 0 0 0)
(0.213672 0.681736 0 -0.0170958 -0.186435 0 0 0 0)
(0.237218 1.0744 0 -0.0114121 -0.20613 0 0 0 0)
(0.25932 1.50626 0 -0.0134987 -0.228435 0 0 0 0)
(0.291212 1.98814 0 -0.0198627 -0.258972 0 0 0 0)
(0.338771 2.54214 0 -0.0289339 -0.302836 0 0 0 0)
(0.406948 3.19948 0 -0.0409236 -0.36503 0 0 0 0)
(0.502465 4.00227 0 -0.056899 -0.452355 0 0 0 0)
(0.634544 5.00891 0 -0.0777285 -0.573847 0 0 0 0)
(0.813379 6.29765 0 -0.100707 -0.731475 0 0 0 0)
(1.03737 7.9348 0 -0.114184 -0.975592 0 0 0 0)
(1.27012 10.2 0 -0.244982 -1.43856 0 0 0 0)
(2.0173 13.689 0 -1.29755 -1.75257 0 0 0 0)
(6.46031 17.2103 0 -3.38921 -4.01956 0 0 0 0)
(15.5741 29.7673 0 -3.60926 -11.2233 0 0 0 0)
(20.8974 62.1035 0 0.42785 -15.2429 0 0 0 0)
(13.8627 90.7391 0 10.2884 -5.3441 0 0 0 0)
(-20.2561 83.4799 0 40.2134 13.0261 0 0 0 0)
(-146.991 38.6346 0 158.188 30.5286 0 0 0 0)
(-0.0858845 0.0537605 0 -0.0730608 0.0731246 0 0 0 0)
(-0.122304 0.0246219 0 -0.270477 0.141917 0 0 0 0)
(-0.147043 0.00675979 0 -0.562275 0.171612 0 0 0 0)
(-0.143813 -0.00485 0 -0.85865 0.168956 0 0 0 0)
(-0.131647 -0.00954892 0 -1.13753 0.152212 0 0 0 0)
(-0.114434 -0.0111951 0 -1.38524 0.130761 0 0 0 0)
(-0.0945909 -0.012034 0 -1.59526 0.107432 0 0 0 0)
(-0.0731131 -0.0128742 0 -1.7636 0.0826246 0 0 0 0)
(-0.0497427 -0.0136672 0 -1.88771 0.0559353 0 0 0 0)
(-0.0249151 -0.0141921 0 -1.96257 0.0279556 0 0 0 0)
(0.000943403 -0.0150388 0 -1.98738 -0.000833093 0 0 0 0)
(0.0282412 -0.0158302 0 -1.9588 -0.0321996 0 0 0 0)
(0.056349 -0.0161301 0 -1.87441 -0.0641539 0 0 0 0)
(0.0846634 -0.0162767 0 -1.7334 -0.0967198 0 0 0 0)
(0.112365 -0.0158607 0 -1.53576 -0.129261 0 0 0 0)
(0.137602 -0.0139262 0 -1.28394 -0.160163 0 0 0 0)
(0.156714 -0.00808017 0 -0.98535 -0.184966 0 0 0 0)
(0.164544 0.00544601 0 -0.657085 -0.192483 0 0 0 0)
(0.141228 0.02539 0 -0.327172 -0.163182 0 0 0 0)
(0.104836 0.0635263 0 -0.0921721 -0.0909232 0 0 0 0)
)
;
    }
    frontAndBack
    {
        type            empty;
    }
}


// ************************************************************************* //
