/*--------------------------------*- C++ -*----------------------------------*\
| =========                 |                                                 |
| \\      /  F ield         | OpenFOAM: The Open Source CFD Toolbox           |
|  \\    /   O peration     | Version:  2312                                  |
|   \\  /    A nd           | Website:  www.openfoam.com                      |
|    \\/     M anipulation  |                                                 |
\*---------------------------------------------------------------------------*/
FoamFile
{
    version     2.0;
    format      ascii;
    arch        "LSB;label=32;scalar=64";
    class       volVectorField;
    location    "0.375";
    object      LambVectorField;
}
// * * * * * * * * * * * * * * * * * * * * * * * * * * * * * * * * * * * * * //

dimensions      [0 1 -2 0 0 0 0];

internalField   nonuniform List<vector> 
400
(
(-1.97016e-05 -1.96844e-05 -3.59539e-09)
(-6.86654e-05 -0.000130868 0)
(-0.000138902 -0.000455103 -6.39734e-07)
(-0.000195278 -0.000992419 0)
(-0.000228219 -0.00170555 -4.85027e-06)
(-0.000237223 -0.00251306 0)
(-0.00022398 -0.00332589 -1.32642e-05)
(-0.000190249 -0.00406083 0)
(-0.000137753 -0.0046489 -2.19395e-05)
(-7.15656e-05 -0.00502413 0)
(2.15796e-06 -0.00514789 -2.55769e-05)
(8.21326e-05 -0.00499637 -0)
(0.000156521 -0.00457314 -2.14299e-05)
(0.000218191 -0.00391039 -0)
(0.000258696 -0.00307359 -1.18007e-05)
(0.000269624 -0.00216144 -0)
(0.000243938 -0.00129951 -3.20117e-06)
(0.00018036 -0.0006157 -0)
(9.24714e-05 -0.000185401 -1.51645e-07)
(2.92723e-05 -2.96743e-05 -0)
(-0.000132086 -6.97974e-05 -2.49485e-08)
(-9.69438e-05 -9.79035e-05 0)
(-7.48428e-05 -0.000117461 -2.07237e-07)
(-5.32728e-05 -0.000121212 0)
(-4.02787e-05 -0.000128386 -4.17133e-07)
(-3.37386e-05 -0.000148145 0)
(-2.92426e-05 -0.000177286 -7.92752e-07)
(-2.40248e-05 -0.00020769 0)
(-1.71201e-05 -0.000231626 -1.22026e-06)
(-8.87436e-06 -0.000247209 0)
(3.01116e-07 -0.000248558 -1.37779e-06)
(9.48908e-06 -0.000236439 -0)
(1.7919e-05 -0.000214214 -1.12128e-06)
(2.52749e-05 -0.000186495 -0)
(3.25605e-05 -0.00016165 -6.99074e-07)
(4.30587e-05 -0.000148276 -0)
(6.19001e-05 -0.000148058 -4.28291e-07)
(9.11238e-05 -0.000147984 -0)
(0.000120548 -0.000124335 -1.48565e-07)
(0.000187653 -9.63993e-05 -0)
(-0.000474497 -0.000151801 -6.92055e-08)
(-0.000128717 -8.70768e-05 0)
(-7.7953e-05 -8.20368e-05 -1.6118e-07)
(-4.13576e-05 -6.18194e-05 0)
(-1.68963e-05 -3.4568e-05 -1.1958e-07)
(-4.10171e-06 -1.13563e-05 0)
(1.02843e-06 3.88742e-06 1.82856e-08)
(2.35115e-06 1.25929e-05 0)
(2.11387e-06 1.76425e-05 9.76101e-08)
(1.21442e-06 2.0755e-05 0)
(-3.2712e-08 2.31581e-05 1.35074e-07)
(-1.53104e-06 2.39645e-05 -0)
(-2.79244e-06 2.09991e-05 1.16202e-07)
(-2.32289e-06 1.08596e-05 -0)
(3.19604e-06 -1.01781e-05 -4.70153e-08)
(1.89693e-05 -4.2647e-05 -0)
(4.99111e-05 -7.95672e-05 -2.52571e-07)
(9.61733e-05 -0.000105699 -0)
(0.000160871 -0.000111367 -1.57836e-07)
(0.000668536 -0.000209535 -0)
(-0.00110037 -0.000243124 -1.20526e-07)
(-0.000158112 -7.9125e-05 0)
(-8.01785e-05 -6.38832e-05 -1.35488e-07)
(-4.00651e-05 -4.53914e-05 0)
(-1.19143e-05 -1.83385e-05 -6.76101e-08)
(4.48099e-06 9.25244e-06 0)
(1.12795e-05 3.15661e-05 1.57391e-07)
(1.19778e-05 4.72219e-05 0)
(9.40166e-06 5.73952e-05 3.3671e-07)
(5.14626e-06 6.34209e-05 0)
(2.44938e-08 6.58619e-05 4.08881e-07)
(-5.31919e-06 6.38461e-05 -0)
(-9.66499e-06 5.52034e-05 3.27368e-07)
(-1.043e-05 3.70855e-05 -0)
(-3.24737e-06 7.90792e-06 3.9564e-08)
(1.6913e-05 -2.92804e-05 -0)
(5.27766e-05 -6.51088e-05 -2.27231e-07)
(0.000104279 -8.83293e-05 -0)
(0.000206501 -0.000107442 -1.69772e-07)
(0.00156783 -0.000346164 -0)
(-0.00207409 -0.000345892 -1.79617e-07)
(-0.000206779 -8.20163e-05 0)
(-8.7439e-05 -5.66458e-05 -1.29109e-07)
(-4.46537e-05 -4.15064e-05 0)
(-1.51032e-05 -1.90823e-05 -7.57937e-08)
(3.82235e-06 6.45783e-06 0)
(1.27285e-05 2.90191e-05 1.55823e-07)
(1.42876e-05 4.56561e-05 0)
(1.15065e-05 5.6498e-05 3.5768e-07)
(6.45155e-06 6.2613e-05 0)
(3.17552e-07 6.44427e-05 4.34011e-07)
(-5.86769e-06 6.10092e-05 -0)
(-1.03144e-05 5.00076e-05 3.24453e-07)
(-9.59387e-06 2.885e-05 -0)
(1.25844e-06 -2.59281e-06 -1.43489e-08)
(2.65063e-05 -3.88524e-05 -0)
(6.68574e-05 -6.96556e-05 -2.71457e-07)
(0.000125233 -8.86698e-05 -0)
(0.000288771 -0.000122539 -2.15227e-07)
(0.00302747 -0.000521215 -0)
(-0.00346205 -0.000471338 -2.59013e-07)
(-0.000292485 -9.74138e-05 0)
(-0.000108721 -6.02913e-05 -1.48948e-07)
(-5.84151e-05 -4.69161e-05 0)
(-2.60067e-05 -2.84827e-05 -1.23482e-07)
(-3.8061e-06 -5.57107e-06 0)
(8.07216e-06 1.59006e-05 9.33893e-08)
(1.16452e-05 3.19989e-05 0)
(1.0086e-05 4.21959e-05 2.93124e-07)
(5.89779e-06 4.74829e-05 0)
(6.1124e-07 4.83172e-05 3.59364e-07)
(-4.43154e-06 4.35278e-05 -0)
(-6.85811e-06 3.03908e-05 2.19957e-07)
(-2.27155e-06 6.19081e-06 -0)
(1.51241e-05 -2.81503e-05 -1.75957e-07)
(4.91432e-05 -6.49015e-05 -0)
(9.9204e-05 -9.26646e-05 -4.11876e-07)
(0.000174342 -0.000109613 -0)
(0.00043792 -0.000162204 -3.23735e-07)
(0.00524739 -0.000768611 -0)
(-0.00536517 -0.000634297 -3.77142e-07)
(-0.000427832 -0.000125459 0)
(-0.0001502 -7.42157e-05 -2.01387e-07)
(-8.42144e-05 -6.06781e-05 0)
(-4.47278e-05 -4.40808e-05 -2.11213e-07)
(-1.67442e-05 -2.20565e-05 0)
(-3.63464e-07 -6.42848e-07 -4.18312e-09)
(6.24574e-06 1.5332e-05 0)
(6.7446e-06 2.49396e-05 1.92624e-07)
(4.2453e-06 2.92838e-05 0)
(6.80482e-07 2.88748e-05 2.40516e-07)
(-2.22354e-06 2.2151e-05 -0)
(-1.28299e-06 5.48802e-06 4.50121e-08)
(9.47076e-06 -2.45864e-05 -0)
(3.76579e-05 -6.63754e-05 -4.77342e-07)
(8.76077e-05 -0.000109112 -0)
(0.000158027 -0.000138522 -7.18201e-07)
(0.000266579 -0.000156188 -0)
(0.000684612 -0.0002339 -5.46304e-07)
(0.00856766 -0.00114174 -0)
(-0.00793799 -0.00085227 -5.5983e-07)
(-0.000625171 -0.000167457 0)
(-0.000216777 -9.84702e-05 -2.97423e-07)
(-0.000124505 -8.27986e-05 0)
(-7.15249e-05 -6.51777e-05 -3.48821e-07)
(-3.3646e-05 -4.09644e-05 0)
(-1.0509e-05 -1.71338e-05 -1.24697e-07)
(1.36863e-07 3.07914e-07 0)
(3.04437e-06 1.01899e-05 8.83016e-08)
(2.30726e-06 1.39164e-05 0)
(4.55693e-07 1.20738e-05 1.13717e-07)
(-2.15029e-07 2.32985e-06 -0)
(4.78469e-06 -2.06698e-05 -1.94337e-07)
(2.41669e-05 -6.21732e-05 -0)
(6.9297e-05 -0.000120056 -1.00873e-06)
(0.000146786 -0.000178812 -0)
(0.000254986 -0.000217668 -1.34524e-06)
(0.000421854 -0.000239529 -0)
(0.00107278 -0.000352938 -9.93263e-07)
(0.0135675 -0.00172567 -0)
(-0.0114048 -0.00114772 -8.4686e-07)
(-0.000902589 -0.000227024 0)
(-0.000315224 -0.000134856 -4.58725e-07)
(-0.000182956 -0.000114782 0)
(-0.000107739 -9.26545e-05 -5.58528e-07)
(-5.41901e-05 -6.2183e-05 0)
(-2.12161e-05 -3.24885e-05 -2.66128e-07)
(-5.37727e-06 -1.12845e-05 0)
(5.26784e-08 1.62151e-07 1.58492e-09)
(7.2404e-07 3.86861e-06 0)
(2.25513e-08 4.08181e-07 4.37106e-09)
(1.08916e-06 -1.39793e-05 -0)
(1.04765e-05 -4.77131e-05 -5.18151e-07)
(4.14885e-05 -0.000109573 -0)
(0.000112443 -0.00019782 -1.96628e-06)
(0.00023557 -0.000289731 -0)
(0.000409309 -0.000351322 -2.64215e-06)
(0.000673227 -0.000382766 -0)
(0.00167801 -0.000549486 -1.91507e-06)
(0.0212297 -0.00266529 -0)
(-0.0160849 -0.00155307 -1.30533e-06)
(-0.00128945 -0.000311131 0)
(-0.000457321 -0.00018784 -7.27113e-07)
(-0.000265765 -0.000160077 0)
(-0.000155789 -0.0001285 -8.78344e-07)
(-7.84408e-05 -8.61231e-05 0)
(-3.14783e-05 -4.59129e-05 -4.24949e-07)
(-8.98e-06 -1.78037e-05 0)
(-9.99473e-07 -2.8604e-06 -3.16058e-08)
(3.87624e-07 1.85087e-06 0)
(-2.42248e-07 -3.18118e-06 -3.88104e-08)
(1.38359e-06 -2.40756e-05 -0)
(1.48308e-05 -7.46831e-05 -9.40624e-07)
(6.07876e-05 -0.000170835 -0)
(0.000169943 -0.000313494 -3.72301e-06)
(0.000366142 -0.000468824 -0)
(0.000649829 -0.000577958 -5.3982e-06)
(0.00107548 -0.000630371 -0)
(0.00263254 -0.000880243 -3.90064e-06)
(0.0332494 -0.00421214 -0)
(-0.0224408 -0.00212013 -2.05855e-06)
(-0.00183225 -0.000431986 0)
(-0.00066111 -0.000265079 -1.17978e-06)
(-0.000379958 -0.000223056 0)
(-0.000215736 -0.000173032 -1.34872e-06)
(-0.000102708 -0.000109255 0)
(-3.61696e-05 -5.08195e-05 -5.32503e-07)
(-5.57107e-06 -1.05384e-05 0)
(4.24815e-06 1.1395e-05 1.42272e-07)
(4.59557e-06 1.97367e-05 0)
(1.51032e-06 1.50241e-05 2.08565e-07)
(3.95299e-07 -1.27289e-05 -0)
(1.46542e-05 -8.68374e-05 -1.26923e-06)
(7.61043e-05 -0.00023733 -0)
(0.000237073 -0.000475261 -6.79302e-06)
(0.000545824 -0.000752286 -0)
(0.00101118 -0.000961901 -1.13946e-05)
(0.00171076 -0.00106356 -0)
(0.00417519 -0.00145375 -8.40548e-06)
(0.0525178 -0.00678299 -0)
(-0.0311742 -0.00293994 -3.35637e-06)
(-0.00260005 -0.000610076 0)
(-0.000945702 -0.000376151 -1.94704e-06)
(-0.000521843 -0.000302848 0)
(-0.00027081 -0.000213871 -1.91046e-06)
(-0.000104859 -0.000109275 0)
(-1.3101e-05 -1.79048e-05 -2.12427e-07)
(2.45635e-05 4.46968e-05 0)
(3.23487e-05 8.18474e-05 1.15119e-06)
(2.62546e-05 0.000101955 0)
(1.36168e-05 0.000106067 1.66757e-06)
(9.6797e-08 7.85224e-05 0)
(2.59659e-06 -1.99496e-05 -3.3717e-07)
(6.78027e-05 -0.000248143 -0)
(0.00028443 -0.000648314 -1.11942e-05)
(0.000754076 -0.00116545 -0)
(0.00152359 -0.00160914 -2.47113e-05)
(0.00276692 -0.0018802 -0)
(0.0071359 -0.00262493 -2.03025e-05)
(0.0833255 -0.0108937 -0)
(-0.0433726 -0.00418526 -5.762e-06)
(-0.00367352 -0.000876165 0)
(-0.00129239 -0.000518533 -3.1629e-06)
(-0.000629368 -0.000366117 0)
(-0.000240385 -0.000189128 -1.94328e-06)
(-2.82198e-06 -2.90979e-06 0)
(0.000112273 0.000150503 2.01709e-06)
(0.000146056 0.000257386 0)
(0.000137498 0.000329829 5.19315e-06)
(0.000108637 0.000383211 0)
(6.72757e-05 0.000421175 7.43155e-06)
(1.66595e-05 0.000421444 0)
(-2.64389e-05 0.000319718 6.18899e-06)
(6.89639e-09 -3.23268e-08 -0)
(0.000242151 -0.000670103 -1.39462e-05)
(0.000920407 -0.00168939 -0)
(0.00226349 -0.00278618 -5.67528e-05)
(0.0053945 -0.00412116 -0)
(0.0185238 -0.00717637 -7.66745e-05)
(0.141598 -0.0176319 -0)
(-0.0610977 -0.00620816 -1.06782e-05)
(-0.00504441 -0.00125019 0)
(-0.0015062 -0.000619525 -4.51049e-06)
(-0.000447564 -0.000264195 0)
(0.000138603 0.00010967 1.29616e-06)
(0.000446686 0.000459119 0)
(0.000553136 0.000731507 1.09996e-05)
(0.000541044 0.000927371 0)
(0.000472594 0.0010781 1.87865e-05)
(0.000376775 0.00121136 0)
(0.000260623 0.00133913 2.61053e-05)
(0.00012021 0.00143458 0)
(-3.65476e-05 0.00139684 3.0405e-05)
(-0.000140505 0.0010031 -0)
(2.72443e-05 -0.000102926 -2.55096e-06)
(0.00095403 -0.00230125 -0)
(0.00404951 -0.00634533 -0.000176818)
(0.0191564 -0.017655 -0)
(0.0771401 -0.0351901 -0.000609321)
(0.291421 -0.0429456 -0)
(-0.0858217 -0.00963233 -2.16949e-05)
(-0.00633866 -0.00168046 0)
(-0.0008614 -0.000368362 -3.22471e-06)
(0.000764251 0.00046141 0)
(0.00156095 0.0012471 1.67994e-05)
(0.00186443 0.00191319 0)
(0.00184765 0.00241041 4.00203e-05)
(0.00167865 0.00279557 0)
(0.00144217 0.00312415 5.90238e-05)
(0.00117062 0.00343106 0)
(0.000876455 0.00375539 7.87831e-05)
(0.000546125 0.00407354 0)
(0.0001702 0.00423911 0.000100395)
(-0.000196599 0.00386937 -0)
(-0.000331435 0.00233623 6.69059e-05)
(0.000348208 -0.00144129 -0)
(0.00512202 -0.0131514 -0.000521933)
(0.0323932 -0.0470906 -0)
(0.174714 -0.136376 -0.005068)
(0.535787 -0.201121 -0)
(-0.130798 -0.0154506 -4.53989e-05)
(-0.00581749 -0.00162642 0)
(0.0024187 0.00107133 1.11163e-05)
(0.00486962 0.00298673 0)
(0.00585593 0.00467216 6.96111e-05)
(0.00595408 0.00601584 0)
(0.00551975 0.00699342 0.000123707)
(0.00486632 0.00773407 0)
(0.0041657 0.00841091 0.000165454)
(0.00345801 0.00909904 0)
(0.00275991 0.00985975 0.000212247)
(0.00206621 0.0107222 0)
(0.0013633 0.0115139 0.000279294)
(0.000703585 0.0117473 0)
(0.000253276 0.0115117 0.000353181)
(-4.15261e-05 0.0211731 -0)
(-0.00728256 0.0924617 0.00495864)
(-0.104018 0.289689 -0)
(-0.12591 0.126168 0.00839914)
(1.3168 -0.688945 -0)
(-0.155364 -0.0267313 -0.000123937)
(-0.00253245 -0.000854757 0)
(0.0130013 0.00609916 7.29133e-05)
(0.0169388 0.0102601 0)
(0.018099 0.0136387 0.000206696)
(0.0177866 0.016513 0)
(0.0167052 0.0190542 0.000326408)
(0.0151496 0.0213459 0)
(0.0133526 0.0234767 0.000436411)
(0.0115016 0.0255838 0)
(0.00970805 0.0277426 0.000550587)
(0.00812969 0.0299982 0)
(0.00706513 0.0323584 0.000702484)
(0.00712611 0.0346011 0)
(0.00994148 0.0382399 0.0010156)
(0.0300595 0.0810094 0)
(0.114094 0.383976 0.0180551)
(-0.416789 1.23685 -0)
(-1.83279 1.18115 0.080291)
(3.98177 -1.33983 -0)
(-0.416944 -0.0504616 -0.000286448)
(0.0659153 0.0154349 0)
(0.0765101 0.0242717 0.000254047)
(0.07574 0.0300367 0)
(0.0776136 0.0373265 0.000417506)
(0.0769361 0.0443515 0)
(0.0731258 0.0499042 0.000566518)
(0.0669761 0.0543189 0)
(0.0591184 0.0576684 0.000640742)
(0.0505042 0.059818 0)
(0.0424354 0.0608956 0.000645559)
(0.0363257 0.0612942 0)
(0.0342278 0.0612842 0.000618749)
(0.0391179 0.059866 0)
(0.0591108 0.0553623 0.000500143)
(0.117218 0.0463493 0)
(0.269328 0.0667969 0.000382505)
(0.0433504 -0.11357 0)
(-2.95657 0.853587 0.0225369)
(4.88663 -0.74656 -0)
(0.0274867 0.00855811 5.37045e-05)
(0.104452 0.0575925 0)
(0.112225 0.0169722 2.89327e-05)
(0.157556 -0.0492718 0)
(0.184866 -0.147445 0.00155062)
(0.185124 -0.251202 0)
(0.174583 -0.351282 0.00737746)
(0.159864 -0.444518 0)
(0.141467 -0.530076 0.0151695)
(0.121539 -0.606818 0)
(0.103698 -0.673985 0.0232706)
(0.0907523 -0.73248 0)
(0.0849017 -0.784631 0.0308036)
(0.0885756 -0.838919 0)
(0.113144 -0.901298 0.0403425)
(0.147264 -1.05814 0)
(0.213656 -1.16063 0.0636224)
(-0.0556607 -2.24049 0)
(-0.601676 -0.903075 0.0242529)
(-3.66354 -0.888942 0)
(16.7552 -7.36315 0.300705)
(13.8562 -12.7045 0)
(8.54409 -17.4655 1.56261)
(5.64875 -21.2203 0)
(4.17555 -23.9482 3.06132)
(3.30539 -26.1433 0)
(2.67689 -28.0354 4.29008)
(2.13358 -29.6479 0)
(1.61583 -30.9529 5.30693)
(1.13702 -31.9431 0)
(0.749504 -32.6576 5.97085)
(0.492317 -33.1797 0)
(0.362741 -33.5969 6.36954)
(0.320946 -34.0111 0)
(0.311234 -34.3614 6.70695)
(0.25379 -35.0721 0)
(0.0579808 -34.5111 6.78186)
(-1.0211 -38.2454 0)
(-0.227852 -20.2663 2.09522)
(-14.3347 -54.5385 0)
)
;

boundaryField
{
    movingWall
    {
        type            calculated;
        value           nonuniform List<vector> 
20
(
(0 -367.417 0)
(0 -379.411 0)
(0 -368.204 0)
(0 -357.615 0)
(0 -350.045 0)
(0 -344.248 0)
(0 -339.403 0)
(0 -335.314 0)
(0 -331.96 0)
(0 -329.295 0)
(0 -327.224 0)
(0 -325.595 0)
(0 -324.26 0)
(0 -322.99 0)
(0 -321.961 0)
(0 -319.917 0)
(0 -322.146 0)
(0 -309.368 0)
(0 -367.699 0)
(0 -243.234 0)
)
;
    }
    fixedWalls
    {
        type            calculated;
        value           uniform (-0 0 0);
    }
    frontAndBack
    {
        type            empty;
    }
}


// ************************************************************************* //
