/*--------------------------------*- C++ -*----------------------------------*\
| =========                 |                                                 |
| \\      /  F ield         | OpenFOAM: The Open Source CFD Toolbox           |
|  \\    /   O peration     | Version:  2312                                  |
|   \\  /    A nd           | Website:  www.openfoam.com                      |
|    \\/     M anipulation  |                                                 |
\*---------------------------------------------------------------------------*/
FoamFile
{
    version     2.0;
    format      ascii;
    arch        "LSB;label=32;scalar=64";
    class       volScalarField;
    location    "0.375";
    object      magSqrU;
}
// * * * * * * * * * * * * * * * * * * * * * * * * * * * * * * * * * * * * * //

dimensions      [0 2 -2 0 0 0 0];

internalField   nonuniform List<scalar> 
400
(
6.67818e-08
5.83115e-07
2.16003e-06
4.78642e-06
8.23211e-06
1.20999e-05
1.59775e-05
1.9482e-05
2.22912e-05
2.4078e-05
2.46854e-05
2.39871e-05
2.19846e-05
1.88378e-05
1.48454e-05
1.04635e-05
6.28204e-06
2.93007e-06
8.35436e-07
1.04767e-07
5.8532e-07
2.03213e-06
4.37647e-06
7.60735e-06
1.15954e-05
1.60445e-05
2.05392e-05
2.46305e-05
2.7906e-05
3.00183e-05
3.07263e-05
2.99059e-05
2.75905e-05
2.39829e-05
1.94611e-05
1.45503e-05
9.83054e-06
5.80104e-06
2.76982e-06
8.53252e-07
2.23854e-06
4.54823e-06
7.34556e-06
1.08004e-05
1.48255e-05
1.92277e-05
2.36742e-05
2.77513e-05
3.105e-05
3.32222e-05
3.40204e-05
3.33228e-05
3.11629e-05
2.77472e-05
2.34415e-05
1.87172e-05
1.40411e-05
9.78215e-06
6.19987e-06
3.19012e-06
5.27991e-06
8.43489e-06
1.15837e-05
1.52466e-05
1.93296e-05
2.36789e-05
2.80353e-05
3.20466e-05
3.53394e-05
3.75834e-05
3.85412e-05
3.80881e-05
3.62453e-05
3.31962e-05
2.92519e-05
2.47939e-05
2.01833e-05
1.5735e-05
1.17198e-05
7.56627e-06
9.96552e-06
1.41231e-05
1.75729e-05
2.14498e-05
2.5659e-05
3.00405e-05
3.43807e-05
3.8389e-05
4.1742e-05
4.41413e-05
4.53591e-05
4.52728e-05
4.38859e-05
4.13306e-05
3.7841e-05
3.36978e-05
2.91796e-05
2.4596e-05
2.02171e-05
1.46003e-05
1.65943e-05
2.21523e-05
2.59494e-05
3.00672e-05
3.44645e-05
3.8966e-05
4.33866e-05
4.74918e-05
5.10144e-05
5.36959e-05
5.53266e-05
5.57855e-05
5.50509e-05
5.31922e-05
5.03482e-05
4.66865e-05
4.23995e-05
3.77843e-05
3.30185e-05
2.52344e-05
2.56469e-05
3.32267e-05
3.75223e-05
4.19493e-05
4.65959e-05
5.12901e-05
5.58793e-05
6.01899e-05
6.40174e-05
6.7154e-05
6.94207e-05
7.07016e-05
7.09474e-05
7.01608e-05
6.83656e-05
6.5582e-05
6.18658e-05
5.74255e-05
5.21901e-05
4.11079e-05
3.78619e-05
4.83034e-05
5.33365e-05
5.81802e-05
6.31347e-05
6.80702e-05
7.2892e-05
7.7508e-05
8.17961e-05
8.56148e-05
8.88338e-05
9.13605e-05
9.31343e-05
9.4091e-05
9.41177e-05
9.30232e-05
9.0609e-05
8.68321e-05
8.10931e-05
6.50144e-05
5.4304e-05
6.8712e-05
7.47915e-05
8.01739e-05
8.54697e-05
9.06449e-05
9.57147e-05
0.000100708
0.000105621
0.000110409
0.000115024
0.000119439
0.00012362
0.000127465
0.00013072
0.000132893
0.00013333
0.000131407
0.000125421
0.000101691
7.64801e-05
9.63154e-05
0.000103801
0.000109809
0.000115394
0.000120701
0.000125933
0.000131311
0.000136996
0.000143096
0.000149703
0.000156936
0.000164886
0.000173513
0.000182481
0.000190949
0.000197522
0.000200365
0.000195271
0.000159324
0.000106563
0.000133771
0.000143019
0.000149593
0.000155203
0.000160305
0.000165412
0.000171027
0.000177553
0.000185318
0.000194658
0.000205984
0.000219716
0.000236139
0.000255132
0.000275674
0.000295398
0.000310104
0.000309186
0.000252013
0.000147851
0.000184956
0.000196151
0.000202834
0.000207731
0.000211828
0.000216121
0.000221514
0.00022873
0.000238404
0.00025125
0.00026823
0.000290486
0.00031925
0.000355521
0.000399131
0.000447255
0.000491054
0.000501924
0.000400233
0.000205454
0.000255691
0.000268334
0.000273681
0.000276127
0.000277524
0.000279581
0.000283711
0.000290987
0.000302421
0.000319283
0.000343357
0.000377281
0.000424599
0.000489703
0.000577289
0.000688752
0.000811443
0.000874731
0.000660335
0.000289503
0.000355082
0.000366317
0.000366524
0.000362786
0.000358213
0.00035539
0.000356211
0.000362
0.000374093
0.000394422
0.000426068
0.000474126
0.000546706
0.000657303
0.000829262
0.00109276
0.00145699
0.00174051
0.00119662
0.000407777
0.000493853
0.000495711
0.000482572
0.000465749
0.000449668
0.000437635
0.00043167
0.000432996
0.000442983
0.000464077
0.000500864
0.000561785
0.000662708
0.000836662
0.00116567
0.00181392
0.00288993
0.00364765
0.00211206
0.000627378
0.000691445
0.000656439
0.000612187
0.000570705
0.000535012
0.00050783
0.00049012
0.000481882
0.000484306
0.000499705
0.000533396
0.000596658
0.00071354
0.000941724
0.00147683
0.00289393
0.00532093
0.00884533
0.00705404
0.000747631
0.00087147
0.000792308
0.000709189
0.00063415
0.000569721
0.000519017
0.000481995
0.000457337
0.000443772
0.000442106
0.000455838
0.000493768
0.000575748
0.000753031
0.00120734
0.00240621
0.00460481
0.0157468
0.0268347
0.00223213
0.00171761
0.00119814
0.000869667
0.000666027
0.000517779
0.000405577
0.000319623
0.000253186
0.000202899
0.000166957
0.000144069
0.000133735
0.0001364
0.000174652
0.000311976
0.000565897
2.05417e-05
0.00906031
0.0526609
0.000445595
0.000211093
0.000129965
0.000188338
0.00028446
0.000403159
0.000550004
0.000710751
0.000877302
0.00104812
0.00122032
0.0013904
0.00155929
0.00176142
0.00203507
0.00278087
0.00310674
0.00799166
0.00104139
0.04612
0.0103041
0.00890236
0.00992021
0.013273
0.0168376
0.0202844
0.0236296
0.0267492
0.0294759
0.0317063
0.0334451
0.0348085
0.0359476
0.0370957
0.0381018
0.0402296
0.0386172
0.0515441
0.0106897
0.144368
)
;

boundaryField
{
    movingWall
    {
        type            calculated;
        value           uniform 1;
    }
    fixedWalls
    {
        type            calculated;
        value           uniform 0;
    }
    frontAndBack
    {
        type            empty;
    }
}


// ************************************************************************* //
