/*--------------------------------*- C++ -*----------------------------------*\
| =========                 |                                                 |
| \\      /  F ield         | OpenFOAM: The Open Source CFD Toolbox           |
|  \\    /   O peration     | Version:  2312                                  |
|   \\  /    A nd           | Website:  www.openfoam.com                      |
|    \\/     M anipulation  |                                                 |
\*---------------------------------------------------------------------------*/
FoamFile
{
    version     2.0;
    format      ascii;
    arch        "LSB;label=32;scalar=64";
    class       volScalarField;
    location    "0.375";
    object      magU;
}
// * * * * * * * * * * * * * * * * * * * * * * * * * * * * * * * * * * * * * //

dimensions      [0 1 -1 0 0 0 0];

internalField   nonuniform List<scalar> 
400
(
0.000258422
0.00076362
0.0014697
0.00218779
0.00286916
0.00347849
0.00399719
0.00441384
0.00472136
0.00490693
0.00496844
0.00489766
0.00468877
0.00434025
0.00385297
0.00323473
0.0025064
0.00171174
0.000914022
0.000323677
0.000765062
0.00142553
0.002092
0.00275814
0.0034052
0.00400555
0.00453202
0.00496291
0.00528261
0.00547889
0.00554313
0.00546863
0.00525267
0.00489724
0.00441147
0.00381449
0.00313537
0.00240853
0.00166428
0.000923717
0.00149618
0.00213266
0.00271027
0.0032864
0.00385038
0.00438494
0.00486561
0.00526795
0.00557226
0.00576387
0.0058327
0.00577259
0.00558237
0.00526756
0.00484164
0.00432634
0.00374715
0.00312764
0.00248995
0.00178609
0.0022978
0.00290429
0.00340348
0.0039047
0.00439655
0.0048661
0.00529484
0.00566097
0.0059447
0.00613053
0.00620815
0.00617156
0.00602041
0.00576161
0.00540851
0.00497935
0.00449258
0.00396674
0.00342342
0.00275069
0.00315682
0.00375807
0.004192
0.00463139
0.00506547
0.00548092
0.0058635
0.00619589
0.00646081
0.00664389
0.00673491
0.0067285
0.00662464
0.00642889
0.00615151
0.00580498
0.00540181
0.00495943
0.00449634
0.00382104
0.0040736
0.00470663
0.00509405
0.00548336
0.00587065
0.00624227
0.00658685
0.00689143
0.00714244
0.00732775
0.00743819
0.00746897
0.00741963
0.0072933
0.00709565
0.00683275
0.00651149
0.0061469
0.00574617
0.00502338
0.00506427
0.00576426
0.00612555
0.00647683
0.00682612
0.00716171
0.00747525
0.00775821
0.00800109
0.00819475
0.00833191
0.00840843
0.00842303
0.0083762
0.00826835
0.00809827
0.00786548
0.00757796
0.00722427
0.00641154
0.00615321
0.00695006
0.00730319
0.00762759
0.00794573
0.00825047
0.00853768
0.00880386
0.00904412
0.00925283
0.00942517
0.00955827
0.00965061
0.00970005
0.00970143
0.00964485
0.00951888
0.00931838
0.00900517
0.00806315
0.00736912
0.00828927
0.00864821
0.00895399
0.00924498
0.00952076
0.00978339
0.0100354
0.0102772
0.0105076
0.0107249
0.0109288
0.0111184
0.0112901
0.0114333
0.0115279
0.0115469
0.0114633
0.0111991
0.0100842
0.00874529
0.00981404
0.0101883
0.010479
0.0107422
0.0109864
0.011222
0.0114591
0.0117045
0.0119623
0.0122353
0.0125274
0.0128408
0.0131724
0.0135086
0.0138184
0.0140543
0.014155
0.0139739
0.0126223
0.0103229
0.0115659
0.0119591
0.0122308
0.012458
0.0126612
0.0128613
0.0130777
0.0133249
0.0136132
0.013952
0.0143521
0.0148228
0.0153668
0.0159729
0.0166034
0.0171871
0.0176098
0.0175837
0.0158749
0.0121594
0.0135999
0.0140054
0.014242
0.0144129
0.0145543
0.014701
0.0148833
0.0151238
0.0154403
0.0158509
0.0163777
0.0170436
0.0178676
0.0188553
0.0199783
0.0211484
0.0221597
0.0224037
0.0200058
0.0143337
0.0159903
0.0163809
0.0165433
0.0166171
0.0166591
0.0167207
0.0168437
0.0170583
0.0173902
0.0178685
0.0185299
0.0194237
0.0206058
0.0221292
0.0240268
0.0262441
0.0284858
0.0295758
0.025697
0.0170148
0.0188436
0.0191394
0.0191448
0.0190469
0.0189265
0.0188518
0.0188736
0.0190263
0.0193415
0.0198601
0.0206414
0.0217744
0.0233817
0.0256379
0.0287969
0.033057
0.0381706
0.0417194
0.0345922
0.0201935
0.0222228
0.0222646
0.0219675
0.0215812
0.0212054
0.0209197
0.0207767
0.0208086
0.0210472
0.0215424
0.02238
0.023702
0.0257431
0.0289251
0.0341418
0.0425901
0.0537581
0.0603958
0.0459572
0.0250475
0.0262953
0.0256211
0.0247424
0.0238894
0.0231303
0.0225351
0.0221386
0.0219518
0.022007
0.0223541
0.0230954
0.0244266
0.0267122
0.0306875
0.0384296
0.0537952
0.0729447
0.0940496
0.0839883
0.0273428
0.0295207
0.028148
0.0266306
0.0251823
0.0238688
0.0227819
0.0219544
0.0213854
0.0210659
0.0210263
0.0213504
0.0222209
0.0239947
0.0274414
0.0347468
0.0490531
0.0678587
0.125486
0.163813
0.0472455
0.041444
0.0346141
0.0294901
0.0258075
0.0227548
0.0201389
0.017878
0.0159118
0.0142442
0.0129212
0.0120029
0.0115644
0.0116791
0.0132156
0.0176628
0.0237886
0.00453229
0.0951857
0.22948
0.0211091
0.014529
0.0114002
0.0137236
0.0168659
0.0200788
0.0234522
0.0266599
0.0296193
0.0323746
0.0349331
0.0372881
0.0394878
0.0419693
0.0451117
0.052734
0.0557382
0.0893961
0.0322706
0.214756
0.101509
0.0943523
0.0996003
0.115208
0.12976
0.142423
0.153719
0.163552
0.171686
0.178063
0.18288
0.18657
0.189598
0.192602
0.195197
0.200573
0.196513
0.227033
0.103391
0.379958
)
;

boundaryField
{
    movingWall
    {
        type            calculated;
        value           uniform 1;
    }
    fixedWalls
    {
        type            calculated;
        value           uniform 0;
    }
    frontAndBack
    {
        type            empty;
    }
}


// ************************************************************************* //
