/*--------------------------------*- C++ -*----------------------------------*\
| =========                 |                                                 |
| \\      /  F ield         | OpenFOAM: The Open Source CFD Toolbox           |
|  \\    /   O peration     | Version:  2312                                  |
|   \\  /    A nd           | Website:  www.openfoam.com                      |
|    \\/     M anipulation  |                                                 |
\*---------------------------------------------------------------------------*/
FoamFile
{
    version     2.0;
    format      ascii;
    arch        "LSB;label=32;scalar=64";
    class       volScalarField;
    location    "0.375";
    object      pNear;
}
// * * * * * * * * * * * * * * * * * * * * * * * * * * * * * * * * * * * * * //

dimensions      [0 2 -2 0 0 0 0];

internalField   nonuniform List<scalar> 
400
(
3.55293e-08
0
0
1.16174e-05
3.33734e-05
6.4345e-05
0.000103915
0.000151237
0.00020527
0.00026483
0.00032853
0.000394558
0.00046072
0.000524595
0.000583375
0.000634066
0.000673783
0.000700352
0.00071322
0.000712392
4.20859e-06
0
3.5347e-06
1.6996e-05
3.90236e-05
6.94056e-05
0.000107788
0.000153566
0.000205896
0.000263732
0.000325742
0.000390211
0.000455084
0.000518016
0.000576373
0.000627407
0.000668509
0.00069734
0.000711733
0.000710993
0
0
0
9.94927e-06
3.27041e-05
6.34351e-05
0.000101864
0.000147577
0.000199927
0.000258008
0.000320577
0.000386048
0.000452437
0.000517441
0.000578466
0.000632759
0.00067753
0.000709587
0.000724933
0.00072285
0
0
0
0
1.29874e-05
4.47543e-05
8.44428e-05
0.000131694
0.000186005
0.000246615
0.000312421
0.000381856
0.000453039
0.000523601
0.000590766
0.000651389
0.000701895
0.000737718
0.000753439
0.000749064
0
0
0
0
0
1.45274e-05
5.62063e-05
0.000106132
0.000163906
0.00022891
0.000300172
0.000376232
0.000455189
0.000534533
0.000611119
0.000681098
0.000739741
0.000780903
0.00079804
0.000791905
0
0
0
0
0
0
1.73393e-05
7.06604e-05
0.000132964
0.000203804
0.000282376
0.000367376
0.000456878
0.000548192
0.000637691
0.00072061
0.000790755
0.000840079
0.000860633
0.000853598
0
0
0
0
0
0
0
2.4292e-05
9.18244e-05
0.000169581
0.000257011
0.000353018
0.000455769
0.000562437
0.000668894
0.000769305
0.000855654
0.000917336
0.000944122
0.000937143
0
0
0
0
0
0
0
0
3.84701e-05
0.00012383
0.000221304
0.000330151
0.000448812
0.000574502
0.000702713
0.000826494
0.000935573
0.00101569
0.00105276
0.001047
0
0
0
0
0
0
0
0
0
6.3406e-05
0.000171642
0.000294776
0.000431831
0.000580417
0.000736014
0.000890742
0.00103167
0.00113924
0.00119274
0.00118971
0
0
0
0
0
0
0
0
0
0
0.000103436
0.000241633
0.000399034
0.000574246
0.000763528
0.0009588
0.00114444
0.0012933
0.0013731
0.00137444
0
0
0
0
0
0
0
0
0
0
1.10752e-05
0.000163968
0.000342488
0.000547134
0.000776351
0.0010237
0.00127216
0.00148454
0.00160777
0.00161427
0
0
0
0
0
0
0
0
0
0
0
5.36515e-05
0.000251759
0.000486215
0.00075976
0.00107134
0.00140725
0.00171914
0.00191479
0.00192434
0
0
0
0
0
0
0
0
0
0
0
0
0.000113986
0.000373837
0.00069043
0.00107434
0.00152776
0.00199553
0.00230073
0.00229686
0
0
0
0
0
0
0
0
0
0
0
0
0
0.000187951
0.000534139
0.000983742
0.00158849
0.00233746
0.00288871
0.00278115
0
0
0
0
0
0
0
0
0
0
0
0
0
0
0.000244566
0.000712369
0.00145467
0.00269863
0.00396067
0.00360391
0
0
0
0
0
0
0
0
0
0
0
0
0
0
0
8.24553e-05
0.000521042
0.00177563
0.00383923
0.00395116
0
0
0
0
0
0
0
0
0
0
0
0
0
0
0
0
0
0
0
3.7689e-05
0
0
0
0
0
0
0
0
0
0
0
0
0
0
0
0
0
0
0
0
0
0
0
0
0
0
0
0
0
0
0
0
0
0
0
0
0
0
0
0.00600125
0.000403832
0.00186172
0.000840989
0
0
0
0
0
0
0
0
0
0
0
0
0
0
0
0
0.0403976
)
;

boundaryField
{
    movingWall
    {
        type            zeroGradient;
    }
    fixedWalls
    {
        type            calculated;
        value           nonuniform List<scalar> 
60
(
6.61488e-07
2.95134e-06
6.31288e-07
0
0
0
0
0
0
0
0
0
0
0
0
0
0
0
6.05747e-05
0.000343257
0.000712182
0.000712981
0.000725004
0.000751558
0.000794733
0.000856876
0.000941091
0.00105193
0.00119601
0.00138271
0.00162481
0.00193371
0.00231363
0.00283192
0.00353258
0.00331205
0.000619056
0.000905841
0.0102605
0.0352381
3.01999e-08
5.3294e-09
1.74261e-06
1.31382e-05
3.47557e-05
6.56347e-05
0.000105078
0.000152243
0.000206099
0.000265451
0.000328879
0.000394578
0.000460377
0.00052383
0.000582162
0.00063242
0.000671811
0.000698297
0.000711166
0.000712516
)
;
    }
    frontAndBack
    {
        type            empty;
    }
}


// ************************************************************************* //
