/*--------------------------------*- C++ -*----------------------------------*\
| =========                 |                                                 |
| \\      /  F ield         | OpenFOAM: The Open Source CFD Toolbox           |
|  \\    /   O peration     | Version:  2312                                  |
|   \\  /    A nd           | Website:  www.openfoam.com                      |
|    \\/     M anipulation  |                                                 |
\*---------------------------------------------------------------------------*/
FoamFile
{
    version     2.0;
    format      ascii;
    arch        "LSB;label=32;scalar=64";
    class       volScalarField;
    location    "0.375";
    object      QField;
}
// * * * * * * * * * * * * * * * * * * * * * * * * * * * * * * * * * * * * * //

dimensions      [0 0 -2 0 0 0 0];

internalField   nonuniform List<scalar> 
400
(
-0.00447597
-0.0124476
-0.0206957
-0.0243
-0.0242468
-0.0221684
-0.0196978
-0.017703
-0.0162827
-0.0153978
-0.015809
-0.0172487
-0.0193727
-0.0225678
-0.0263678
-0.0297188
-0.0305275
-0.0266864
-0.017012
-0.00685158
-0.0124342
-0.0175368
-0.0211455
-0.0214739
-0.0194448
-0.016077
-0.0122812
-0.00873581
-0.00589241
-0.00409075
-0.00359474
-0.00461216
-0.00723417
-0.011366
-0.016579
-0.0219568
-0.0260635
-0.0272262
-0.0240566
-0.0178685
-0.02146
-0.0227865
-0.0234098
-0.0227409
-0.020641
-0.017443
-0.0136973
-0.0100496
-0.00705992
-0.0051602
-0.00468723
-0.00586811
-0.00876697
-0.0132062
-0.0186324
-0.0241231
-0.0286246
-0.0312808
-0.0318781
-0.0299681
-0.0272532
-0.0272674
-0.0269203
-0.0256285
-0.0234697
-0.0205542
-0.0171605
-0.0138089
-0.0110557
-0.0093715
-0.00911201
-0.010515
-0.0136346
-0.018241
-0.0237689
-0.0294206
-0.0344533
-0.0382523
-0.0400706
-0.0382644
-0.030594
-0.0321217
-0.0320466
-0.0305241
-0.0283349
-0.0256808
-0.0227096
-0.0198135
-0.0175001
-0.0162353
-0.016373
-0.0181605
-0.0216546
-0.0266138
-0.0325203
-0.0387262
-0.0446392
-0.049425
-0.0509729
-0.0442616
-0.0326115
-0.0381596
-0.039238
-0.0378783
-0.0357412
-0.0333103
-0.0307442
-0.0283582
-0.0266075
-0.0259409
-0.0267276
-0.0292172
-0.0334715
-0.0392937
-0.0462364
-0.0537555
-0.0611951
-0.0670775
-0.0672576
-0.0499657
-0.0348069
-0.0461943
-0.0490122
-0.0481189
-0.0461187
-0.0438732
-0.0416572
-0.0397835
-0.0386902
-0.0388281
-0.0405953
-0.0442749
-0.0499771
-0.0575751
-0.0667048
-0.0768638
-0.0871117
-0.0948569
-0.0929628
-0.0582109
-0.0381522
-0.0571424
-0.0621452
-0.0618695
-0.0599973
-0.0578328
-0.0558519
-0.0544348
-0.0540661
-0.0552465
-0.0584423
-0.0640433
-0.0722839
-0.0831774
-0.0965006
-0.111786
-0.127585
-0.139464
-0.135219
-0.0721262
-0.0431666
-0.0721811
-0.0797999
-0.0800864
-0.0781206
-0.0757546
-0.0737422
-0.0726134
-0.0729668
-0.0754314
-0.0806361
-0.0891975
-0.101636
-0.11831
-0.139379
-0.164642
-0.192037
-0.213897
-0.207843
-0.0969891
-0.0500201
-0.0929835
-0.10368
-0.104132
-0.101452
-0.098239
-0.0956285
-0.0943765
-0.0952797
-0.0991891
-0.107041
-0.119913
-0.138959
-0.165389
-0.200526
-0.245475
-0.298099
-0.344864
-0.339341
-0.144978
-0.0584313
-0.122128
-0.136257
-0.135807
-0.131052
-0.125684
-0.121357
-0.11912
-0.120036
-0.125266
-0.136252
-0.154922
-0.183743
-0.225977
-0.286262
-0.370583
-0.480405
-0.590892
-0.590733
-0.24589
-0.0666689
-0.163769
-0.181043
-0.177164
-0.167606
-0.157665
-0.14963
-0.144846
-0.144587
-0.15038
-0.164404
-0.189791
-0.231685
-0.298131
-0.402278
-0.566836
-0.81405
-1.10404
-1.156
-0.540989
-0.0727895
-0.225167
-0.242397
-0.229427
-0.209962
-0.191417
-0.176575
-0.166787
-0.163254
-0.167674
-0.183005
-0.214414
-0.271493
-0.371781
-0.550564
-0.887999
-1.51708
-2.42288
-2.66455
-0.693454
-0.0543251
-0.314213
-0.321785
-0.288389
-0.250817
-0.218159
-0.192696
-0.174936
-0.165308
-0.165071
-0.177692
-0.210923
-0.280832
-0.423255
-0.728412
-1.46386
-3.28363
-6.27248
-5.80095
5.44713
-0.125366
-0.447056
-0.406806
-0.332861
-0.266657
-0.215079
-0.176882
-0.149762
-0.131915
-0.123686
-0.128163
-0.154767
-0.228018
-0.415781
-0.936689
-2.55772
-7.28936
-13.6702
-14.1997
9.28867
0.507578
-0.536957
-0.428976
-0.295741
-0.195085
-0.124758
-0.0763074
-0.043718
-0.0218844
-0.0079192
-0.00411704
-0.0216366
-0.096319
-0.34626
-1.25555
-4.58415
-10.6969
-13.5901
-32.5335
-67.5756
-1.59721
-1.13448
-0.421503
-0.091419
0.08432
0.190471
0.258816
0.30185
0.326726
0.334216
0.314599
0.239758
0.0253416
-0.597884
-2.38294
-5.6334
7.50446
81.5606
50.6435
-194.407
2.45738
1.06773
1.52841
1.81163
2.01073
2.15545
2.21771
2.24567
2.20586
2.0281
1.65998
1.0023
-0.166697
-2.61856
-7.20042
-11.5603
14.665
171.997
182.595
-360.107
-21.4108
7.83763
0.822455
-2.06687
1.53208
4.00159
4.56951
4.71948
4.7012
4.22219
3.26203
1.93659
0.185645
-3.02588
-6.67206
-10.7659
10.7387
64.4714
233.017
-1012.15
-3311.66
915.37
736.971
388.4
208.504
133.956
106.381
98.7336
94.8337
83.6715
62.7534
37.6811
16.4561
4.57752
5.85382
25.0059
128.588
17.4183
1719.42
-2983.75
)
;

boundaryField
{
    movingWall
    {
        type            calculated;
        value           nonuniform List<scalar> 
20
(
-6622.47
1705.88
1370.26
718.045
383.934
245.699
194.765
180.837
173.837
153.446
115.121
69.1798
30.3202
8.60334
11.2205
45.9002
241.041
23.5791
3253.26
-4292.29
)
;
    }
    fixedWalls
    {
        type            calculated;
        value           nonuniform List<scalar> 
60
(
-0.00232826
-0.0103676
-0.0206973
-0.0277987
-0.0305366
-0.0299463
-0.0279153
-0.0254424
-0.0224949
-0.0178518
-0.00828169
0.0142749
0.0645335
0.193799
0.261978
1.56356
-1.13385
4.61701
-49.0542
-7490.77
-0.0037355
-0.0149545
-0.0281812
-0.0366366
-0.0389054
-0.0359262
-0.0290378
-0.0176139
0.000432203
0.0252036
0.0392503
-0.106022
0.671684
14.2267
32.3617
-67.3554
-345.108
-1007.64
-3620.87
-10599
-0.00235249
-0.0106973
-0.0214336
-0.0284626
-0.0309005
-0.0304713
-0.0293595
-0.0287459
-0.0285822
-0.0285495
-0.0298885
-0.0319176
-0.0338494
-0.0364028
-0.0388827
-0.0399192
-0.0369486
-0.0280936
-0.014739
-0.00367668
)
;
    }
    frontAndBack
    {
        type            empty;
    }
}


// ************************************************************************* //
