/*--------------------------------*- C++ -*----------------------------------*\
| =========                 |                                                 |
| \\      /  F ield         | OpenFOAM: The Open Source CFD Toolbox           |
|  \\    /   O peration     | Version:  2312                                  |
|   \\  /    A nd           | Website:  www.openfoam.com                      |
|    \\/     M anipulation  |                                                 |
\*---------------------------------------------------------------------------*/
FoamFile
{
    version     2.0;
    format      ascii;
    arch        "LSB;label=32;scalar=64";
    class       volScalarField;
    location    "0.375";
    object      staticP;
}
// * * * * * * * * * * * * * * * * * * * * * * * * * * * * * * * * * * * * * //

dimensions      [1 -1 -2 0 0 0 0];

internalField   nonuniform List<scalar> 
400
(
1
1
1
1.00001
1.00003
1.00006
1.0001
1.00015
1.00021
1.00026
1.00033
1.00039
1.00046
1.00052
1.00058
1.00063
1.00067
1.0007
1.00071
1.00071
1
1
1
1.00002
1.00004
1.00007
1.00011
1.00015
1.00021
1.00026
1.00033
1.00039
1.00046
1.00052
1.00058
1.00063
1.00067
1.0007
1.00071
1.00071
1
1
1
1.00001
1.00003
1.00006
1.0001
1.00015
1.0002
1.00026
1.00032
1.00039
1.00045
1.00052
1.00058
1.00063
1.00068
1.00071
1.00072
1.00072
1
1
1
1
1.00001
1.00004
1.00008
1.00013
1.00019
1.00025
1.00031
1.00038
1.00045
1.00052
1.00059
1.00065
1.0007
1.00074
1.00075
1.00075
1
1
1
1
1
1.00001
1.00006
1.00011
1.00016
1.00023
1.0003
1.00038
1.00046
1.00053
1.00061
1.00068
1.00074
1.00078
1.0008
1.00079
1
1
1
1
1
1
1.00002
1.00007
1.00013
1.0002
1.00028
1.00037
1.00046
1.00055
1.00064
1.00072
1.00079
1.00084
1.00086
1.00085
1
1
1
1
1
1
1
1.00002
1.00009
1.00017
1.00026
1.00035
1.00046
1.00056
1.00067
1.00077
1.00086
1.00092
1.00094
1.00094
1
1
1
1
1
1
1
1
1.00004
1.00012
1.00022
1.00033
1.00045
1.00057
1.0007
1.00083
1.00094
1.00102
1.00105
1.00105
1
1
1
1
1
1
1
1
1
1.00006
1.00017
1.00029
1.00043
1.00058
1.00074
1.00089
1.00103
1.00114
1.00119
1.00119
1
1
1
1
1
1
1
1
1
1
1.0001
1.00024
1.0004
1.00057
1.00076
1.00096
1.00114
1.00129
1.00137
1.00137
1
1
1
1
1
1
1
1
1
1
1.00001
1.00016
1.00034
1.00055
1.00078
1.00102
1.00127
1.00148
1.00161
1.00161
1
1
1
1
1
1
1
1
1
1
1
1.00005
1.00025
1.00049
1.00076
1.00107
1.00141
1.00172
1.00191
1.00192
1
1
1
1
1
1
1
1
1
1
1
1
1.00011
1.00037
1.00069
1.00107
1.00153
1.002
1.0023
1.0023
1
1
1
1
1
1
1
1
1
1
1
1
1
1.00019
1.00053
1.00098
1.00159
1.00234
1.00289
1.00278
1
1
1
1
1
1
1
1
1
1
1
1
1
1
1.00024
1.00071
1.00145
1.0027
1.00396
1.0036
1
1
1
1
1
1
1
1
1
1
1
1
1
1
1
1.00008
1.00052
1.00178
1.00384
1.00395
1
1
1
1
1
1
1
1
1
1
1
1
1
1
1
1
1
1
1
1.00004
1
1
1
1
1
1
1
1
1
1
1
1
1
1
1
1
1
1
1
1
1
1
1
1
1
1
1
1
1
1
1
1
1
1
1
1
1
1
1
1.006
1.0004
1.00186
1.00084
1
1
1
1
1
1
1
1
1
1
1
1
1
1
1
1
1.0404
)
;

boundaryField
{
    movingWall
    {
        type            calculated;
        value           nonuniform List<scalar> 
20
(
1.0004
1.00186
1.00084
1
1
1
1
1
1
1
1
1
1
1
1
1
1
1
1
1.0404
)
;
    }
    fixedWalls
    {
        type            calculated;
        value           nonuniform List<scalar> 
60
(
1
1
1
1
1
1
1
1
1
1
1
1
1
1
1
1
1
1
1
1.0004
1.00071
1.00071
1.00072
1.00075
1.00079
1.00085
1.00094
1.00105
1.00119
1.00137
1.00161
1.00192
1.0023
1.00278
1.0036
1.00395
1.00004
1
1.006
1.0404
1
1
1
1.00001
1.00003
1.00006
1.0001
1.00015
1.00021
1.00026
1.00033
1.00039
1.00046
1.00052
1.00058
1.00063
1.00067
1.0007
1.00071
1.00071
)
;
    }
    frontAndBack
    {
        type            empty;
    }
}


// ************************************************************************* //
