/*--------------------------------*- C++ -*----------------------------------*\
| =========                 |                                                 |
| \\      /  F ield         | OpenFOAM: The Open Source CFD Toolbox           |
|  \\    /   O peration     | Version:  2312                                  |
|   \\  /    A nd           | Website:  www.openfoam.com                      |
|    \\/     M anipulation  |                                                 |
\*---------------------------------------------------------------------------*/
FoamFile
{
    version     2.0;
    format      ascii;
    arch        "LSB;label=32;scalar=64";
    class       volScalarField;
    location    "0.375";
    object      staticCoeffP;
}
// * * * * * * * * * * * * * * * * * * * * * * * * * * * * * * * * * * * * * //

dimensions      [0 0 0 0 0 0 0];

internalField   nonuniform List<scalar> 
400
(
7.10587e-08
0
0
2.32348e-05
6.67467e-05
0.00012869
0.000207829
0.000302473
0.00041054
0.000529661
0.000657061
0.000789116
0.00092144
0.00104919
0.00116675
0.00126813
0.00134757
0.0014007
0.00142644
0.00142478
8.41718e-06
0
7.06939e-06
3.39921e-05
7.80473e-05
0.000138811
0.000215577
0.000307131
0.000411792
0.000527463
0.000651483
0.000780423
0.000910168
0.00103603
0.00115275
0.00125481
0.00133702
0.00139468
0.00142347
0.00142199
0
0
0
1.98985e-05
6.54082e-05
0.00012687
0.000203728
0.000295153
0.000399853
0.000516016
0.000641154
0.000772097
0.000904873
0.00103488
0.00115693
0.00126552
0.00135506
0.00141917
0.00144987
0.0014457
0
0
0
0
2.59749e-05
8.95087e-05
0.000168886
0.000263388
0.00037201
0.000493231
0.000624842
0.000763713
0.000906078
0.0010472
0.00118153
0.00130278
0.00140379
0.00147544
0.00150688
0.00149813
0
0
0
0
0
2.90548e-05
0.000112413
0.000212264
0.000327812
0.00045782
0.000600344
0.000752464
0.000910379
0.00106907
0.00122224
0.0013622
0.00147948
0.00156181
0.00159608
0.00158381
0
0
0
0
0
0
3.46786e-05
0.000141321
0.000265929
0.000407609
0.000564752
0.000734751
0.000913756
0.00109638
0.00127538
0.00144122
0.00158151
0.00168016
0.00172127
0.0017072
0
0
0
0
0
0
0
4.85839e-05
0.000183649
0.000339162
0.000514023
0.000706036
0.000911539
0.00112487
0.00133779
0.00153861
0.00171131
0.00183467
0.00188824
0.00187429
0
0
0
0
0
0
0
0
7.69403e-05
0.00024766
0.000442608
0.000660301
0.000897624
0.001149
0.00140543
0.00165299
0.00187115
0.00203138
0.00210551
0.00209401
0
0
0
0
0
0
0
0
0
0.000126812
0.000343284
0.000589551
0.000863662
0.00116083
0.00147203
0.00178148
0.00206335
0.00227848
0.00238547
0.00237942
0
0
0
0
0
0
0
0
0
0
0.000206872
0.000483266
0.000798067
0.00114849
0.00152706
0.0019176
0.00228887
0.0025866
0.00274619
0.00274889
0
0
0
0
0
0
0
0
0
0
2.21504e-05
0.000327935
0.000684976
0.00109427
0.0015527
0.0020474
0.00254432
0.00296908
0.00321555
0.00322854
0
0
0
0
0
0
0
0
0
0
0
0.000107303
0.000503519
0.00097243
0.00151952
0.00214268
0.0028145
0.00343827
0.00382957
0.00384868
0
0
0
0
0
0
0
0
0
0
0
0
0.000227972
0.000747674
0.00138086
0.00214867
0.00305551
0.00399106
0.00460147
0.00459373
0
0
0
0
0
0
0
0
0
0
0
0
0
0.000375902
0.00106828
0.00196748
0.00317699
0.00467492
0.00577742
0.00556231
0
0
0
0
0
0
0
0
0
0
0
0
0
0
0.000489132
0.00142474
0.00290934
0.00539725
0.00792134
0.00720782
0
0
0
0
0
0
0
0
0
0
0
0
0
0
0
0.000164911
0.00104208
0.00355127
0.00767847
0.00790232
0
0
0
0
0
0
0
0
0
0
0
0
0
0
0
0
0
0
0
7.53781e-05
0
0
0
0
0
0
0
0
0
0
0
0
0
0
0
0
0
0
0
0
0
0
0
0
0
0
0
0
0
0
0
0
0
0
0
0
0
0
0
0.0120025
0.000807663
0.00372344
0.00168198
0
0
0
0
0
0
0
0
0
0
0
0
0
0
0
0
0.0807951
)
;

boundaryField
{
    movingWall
    {
        type            calculated;
        value           nonuniform List<scalar> 
20
(
0.000807663
0.00372344
0.00168198
0
0
0
0
0
0
0
0
0
0
0
0
0
0
0
0
0.0807951
)
;
    }
    fixedWalls
    {
        type            calculated;
        value           nonuniform List<scalar> 
60
(
7.10587e-08
8.41718e-06
0
0
0
0
0
0
0
0
0
0
0
0
0
0
0
0
0
0.000807663
0.00142478
0.00142199
0.0014457
0.00149813
0.00158381
0.0017072
0.00187429
0.00209401
0.00237942
0.00274889
0.00322854
0.00384868
0.00459373
0.00556231
0.00720782
0.00790232
7.53781e-05
0
0.0120025
0.0807951
7.10587e-08
0
0
2.32348e-05
6.67467e-05
0.00012869
0.000207829
0.000302473
0.00041054
0.000529661
0.000657061
0.000789116
0.00092144
0.00104919
0.00116675
0.00126813
0.00134757
0.0014007
0.00142644
0.00142478
)
;
    }
    frontAndBack
    {
        type            empty;
    }
}


// ************************************************************************* //
