/*--------------------------------*- C++ -*----------------------------------*\
| =========                 |                                                 |
| \\      /  F ield         | OpenFOAM: The Open Source CFD Toolbox           |
|  \\    /   O peration     | Version:  2312                                  |
|   \\  /    A nd           | Website:  www.openfoam.com                      |
|    \\/     M anipulation  |                                                 |
\*---------------------------------------------------------------------------*/
FoamFile
{
    version     2.0;
    format      ascii;
    arch        "LSB;label=32;scalar=64";
    class       volVectorField;
    location    "0.375";
    object      URandom;
}
// * * * * * * * * * * * * * * * * * * * * * * * * * * * * * * * * * * * * * //

dimensions      [0 1 -1 0 0 0 0];

internalField   nonuniform List<vector> 
400
(
(0.090766 -0.00174943 -0.0415285)
(0.0699841 -0.0370514 -0.0600658)
(0.0123453 0.0489413 -0.0863566)
(-0.0771297 0.029924 -0.0592215)
(-0.070906 -0.0422018 0.0596178)
(-0.0919445 0.0191672 0.0426155)
(0.036083 0.0194759 0.0895845)
(0.0754873 0.0595577 0.00969639)
(-0.0838379 0.0107053 0.060238)
(-0.0907386 0.0336212 -0.0388219)
(0.0129586 -0.098381 0.000458146)
(0.0219232 -0.0682143 -0.0681063)
(-0.0607227 -0.0685788 -0.0466777)
(-0.0882464 0.0417982 0.0345147)
(0.0429753 -0.0879119 0.0116875)
(-0.0714802 -0.0671301 -0.029771)
(0.0489674 0.0285065 -0.0807197)
(-0.0357819 -0.0673005 0.0661037)
(-0.0754913 -0.0616529 0.0259411)
(-0.0620012 -0.0521635 0.0590508)
(0.0390052 -0.0624207 0.0668531)
(0.0522558 -0.0270316 0.079853)
(0.0373827 -0.0826035 0.0381731)
(0.0687774 0.0558133 -0.0438576)
(-0.0625937 0.0612035 -0.0534423)
(-0.0344834 -0.0303228 0.0899488)
(-0.0647342 0.0804109 0.00453629)
(0.036 0.0795059 -0.045759)
(-0.0604318 -0.0780598 -0.028332)
(-0.0637378 0.0814467 -0.0019737)
(-0.0746694 -0.0188522 0.0697597)
(0.0163825 0.0233672 -0.0946911)
(0.0250339 0.0928705 -0.0194262)
(-0.0359847 0.0214923 -0.0924131)
(-0.0762174 -0.0644702 -0.0280459)
(-0.00496026 0.0984026 0.0102352)
(0.0950488 0.0188391 -0.00234655)
(-0.0104655 -0.0749608 0.0670657)
(0.00703002 -0.0671004 0.0747263)
(-0.00143531 0.094577 -0.0299677)
(0.0244381 -0.0417603 -0.0866909)
(0.055267 0.0723255 0.042819)
(-0.0463666 -0.0771027 -0.0423353)
(0.0274163 0.0911916 0.0332439)
(-0.0323585 -0.0305354 0.090146)
(0.0881757 -0.0343671 0.0139653)
(-0.0660856 0.00156249 -0.0789441)
(-0.0626129 -0.0222372 0.0785039)
(-0.0831355 -0.0521007 0.0345514)
(0.041801 -0.0859703 -0.0170183)
(-0.0622746 0.0734098 -0.0377373)
(0.0174217 -0.0876876 0.0428702)
(0.0288073 0.0805032 -0.0471265)
(-0.0710657 0.00118377 0.0751667)
(-0.0716505 -0.0254323 0.070226)
(0.0355561 0.0358917 -0.0837945)
(0.0327441 -0.0652469 -0.0686192)
(0.0388759 -0.0392569 0.0832056)
(0.0658551 -0.0754211 0.00952383)
(-0.0264973 -0.0790665 0.0578014)
(-0.0748939 0.0239986 0.0631794)
(-0.0623011 -0.00610211 0.0787601)
(-0.0444337 0.0873537 -0.0322011)
(-0.0475402 0.0200493 -0.0877762)
(0.0885032 0.0331656 0.0235414)
(0.069445 -0.0404047 0.0523594)
(-0.0193805 -0.0781405 -0.0583546)
(0.013538 -0.0260627 0.0942565)
(0.079781 -0.00931609 0.0505854)
(0.064791 -0.0664243 0.0222414)
(-0.0080946 0.0308769 0.0950957)
(0.0568725 -0.0343674 -0.0698711)
(0.0136883 -0.0540868 0.082468)
(0.0334943 -0.0684169 -0.0632927)
(-0.0728236 -0.0230876 -0.0704129)
(-0.0293975 0.0939293 0.00859801)
(-0.0961322 -0.0352822 -0.0190843)
(0.0540978 0.0563511 -0.0571289)
(-0.0225045 -0.0979283 0.0236179)
(-0.00156689 -0.100811 0.0192512)
(-0.0511694 0.0431627 0.0763587)
(-0.0979462 -0.0224787 -0.00122472)
(0.0427564 0.0682624 0.0614815)
(-0.0994096 -0.0165065 -0.0184048)
(-0.0841301 0.00481616 -0.0597651)
(0.0108974 -0.0910153 0.0309262)
(0.08102 -0.0355793 -0.0331328)
(-0.0549426 0.0685632 -0.0560849)
(-0.0717792 0.0759653 0.0118332)
(0.0110664 0.0600515 0.078503)
(0.0179886 0.0378152 0.089226)
(0.0814288 0.0400421 -0.0240495)
(0.0116083 0.0545898 0.0808986)
(0.0465514 0.0287334 -0.0792558)
(0.0351785 0.0659861 -0.0602214)
(-0.0810517 0.015914 0.0617809)
(0.0936353 0.00801175 -0.0186896)
(0.0175156 0.0599114 0.0741205)
(0.0573456 -0.0586571 -0.0594537)
(0.0596789 0.0246038 -0.0745373)
(-0.0464175 -0.0446233 -0.074353)
(0.0271074 0.0816494 0.056789)
(-0.0902895 0.00668209 0.0477793)
(0.0666549 0.0418328 -0.0606385)
(-0.018063 0.0468669 -0.0892772)
(0.0134746 -0.0330146 -0.0912036)
(-0.0578342 0.0881624 -0.00665653)
(0.029119 -0.0101387 0.0926114)
(0.0683069 0.0509157 0.0437129)
(0.0352855 0.0119028 0.0898214)
(-0.0844306 -0.0143961 -0.0621458)
(0.0260639 0.0369786 0.0863376)
(0.0672125 -0.0606475 0.031217)
(-0.0147413 0.0966363 -0.0103555)
(-0.0672621 0.0491289 -0.0593523)
(0.0195607 -0.0352308 0.0916898)
(0.0594835 -0.0707718 0.0394386)
(0.0110989 -0.0785541 0.0664321)
(-0.00461935 -0.0687472 -0.0773226)
(0.0701388 0.0435108 -0.0512589)
(0.0315217 0.08268 -0.0542116)
(0.0914597 -0.025053 0.0200098)
(-0.064836 0.0518563 -0.0631754)
(0.0764742 -0.0543564 0.00218348)
(0.0363254 -0.0307512 0.0839113)
(-0.054557 0.0868081 -0.028475)
(0.082318 -0.0351199 0.0245913)
(0.0383798 0.0906446 -0.0151481)
(-0.00173404 -0.0245459 0.0962014)
(0.0270008 0.0660067 0.0675587)
(0.0838648 -0.00416638 0.0384858)
(-0.0538313 -0.0866774 -0.0237666)
(0.07756 -0.0357228 -0.0387568)
(-0.0631747 0.0156409 0.0811638)
(0.00589021 -0.0200439 0.0978469)
(0.0473148 -0.0894699 -0.000748011)
(0.0338858 -0.0973872 0.0103098)
(0.0299124 0.0475388 0.0770523)
(0.0648423 -0.0299934 -0.0703625)
(0.0757782 0.0347448 -0.04939)
(0.0576984 0.0528055 0.066445)
(0.063587 -0.0539212 0.0452572)
(0.00183081 0.0629123 -0.0825285)
(0.035798 -0.0545146 0.0685098)
(-0.0625009 -0.0592939 -0.0498725)
(0.0185668 0.0548 -0.0831947)
(-0.0138704 -0.0857678 -0.0426004)
(0.00558996 -0.0886123 -0.0362688)
(-0.0323183 0.00234175 0.0971622)
(0.0631044 -0.061946 0.0274835)
(0.0336487 0.0310924 0.0848555)
(0.00349651 -0.0628827 -0.0773699)
(-0.0838047 0.0185642 0.0635143)
(-0.0307412 0.0421246 -0.0862913)
(-0.0589887 -0.0860076 -0.0292302)
(0.0712479 -0.0677905 -0.00160806)
(-0.0760441 -0.0348901 0.0659887)
(-0.0298395 0.0884756 0.00596221)
(-0.0855905 -0.0413479 0.0455266)
(-0.0666171 0.0585151 -0.0356733)
(-0.071706 0.0745522 0.0210946)
(0.0604467 0.0665387 0.0517247)
(-0.0693835 0.0267143 0.0727622)
(0.0641018 0.00612641 -0.0724991)
(-0.0587433 0.0432807 -0.0768473)
(0.0261882 -0.0633001 0.0636301)
(0.0649826 -0.0026529 -0.0676869)
(-0.0262521 -0.0915248 -0.0227766)
(-0.0444409 -0.00712212 -0.0932319)
(0.06053 0.0707217 -0.0157232)
(-0.0062634 0.0665097 0.0750669)
(-0.0623434 0.0849003 0.00047712)
(-0.0795058 -0.0106427 -0.0722462)
(0.00523363 0.0810834 -0.0501178)
(0.0660255 -0.0511921 -0.046424)
(-0.067108 0.0606559 0.044752)
(0.0146515 -0.0828307 0.0634209)
(0.093511 -0.0160712 0.0112557)
(-0.0476516 0.0358515 -0.0767306)
(0.0293221 0.0436763 0.0786334)
(-0.0207171 0.0516162 0.0881109)
(-0.0604294 0.0906932 0.00594933)
(0.0839141 -0.0328722 -0.0224676)
(-0.0489988 -0.0588301 -0.0591777)
(-0.0328038 0.103995 0.0128667)
(0.0135225 0.0918793 0.0489324)
(0.0649276 -0.0343525 -0.0532965)
(-0.0952314 -0.0281219 0.0408321)
(0.0297464 0.0734378 -0.0591164)
(-0.078481 0.0604088 -0.0467164)
(-0.0787869 -0.0232357 -0.070585)
(0.0518138 -0.0402542 0.065573)
(0.0445163 -0.0802412 -0.0263591)
(-0.0690211 -0.0316422 0.077807)
(-0.00230412 0.0363605 0.0898704)
(-0.0228332 0.0354508 -0.0890238)
(0.0663771 -0.07387 0.0158541)
(-0.103457 -0.0268939 0.0226038)
(0.0770822 -0.0672048 -0.0210883)
(0.0130805 -0.105472 -0.0338405)
(0.0370445 -0.0821154 0.00429423)
(-0.062833 0.0385166 -0.0750695)
(0.0676232 -0.0337791 0.052832)
(-0.0560749 0.0628226 -0.0691305)
(-0.0122698 -0.0227497 -0.0944764)
(0.0639571 -0.0235966 0.060026)
(0.0534898 -0.0654503 -0.0243413)
(0.0158725 -0.0468489 0.0802653)
(0.036928 0.0860672 0.030501)
(-0.0555716 -0.0586452 0.0663228)
(-0.0826002 0.0708268 -0.0213801)
(0.00181925 -0.0795889 0.0589494)
(0.0713765 0.0463503 0.014906)
(-0.0698426 0.0263224 -0.0773949)
(-0.0694532 0.00563347 -0.0824286)
(-0.0431115 0.0571364 -0.0681591)
(-0.0423048 0.00324885 -0.0939453)
(0.0789714 -0.00225906 -0.0452482)
(-0.0590069 0.041938 -0.0611532)
(0.0559129 -0.0240539 0.0810751)
(0.0763003 -0.009156 -0.0595877)
(0.0426677 -0.0755955 0.00359207)
(-0.065787 -0.0661106 0.008103)
(-0.0103239 0.0954321 -0.0555153)
(0.0211935 0.0459423 -0.088843)
(-0.079013 0.0437698 -0.064583)
(-0.0518544 0.0684939 0.0694494)
(-0.0827938 -0.0489498 0.0445608)
(-0.0534352 0.0111758 0.0917521)
(-0.0846786 0.0178445 -0.0703025)
(-0.0233422 -0.0516347 0.0840433)
(0.0691412 -0.0423809 0.0298106)
(0.0345536 0.0636018 -0.0549779)
(-0.0377643 0.0545516 0.077889)
(-0.019659 -0.07212 -0.076343)
(0.0424498 0.0186789 0.07497)
(0.0093766 0.0709026 0.0456919)
(-0.00366304 0.079809 0.0170807)
(0.0747704 -0.0479189 -0.0496963)
(0.0216087 -0.0727501 -0.0813293)
(-0.0782374 -0.0434483 0.0275923)
(0.0666814 0.0498019 0.0622268)
(-0.00252755 0.105434 -0.0429611)
(-0.0743299 -0.0587492 -0.0175027)
(0.0583038 0.0509606 -0.0621327)
(-0.00136515 0.10639 0.0300375)
(0.0726636 -0.000355662 -0.0498543)
(-0.0729773 -0.0721991 0.0107543)
(-0.0487419 -0.0395439 -0.0823729)
(-0.0500894 -0.00620783 -0.0936338)
(0.0475226 -0.024712 0.0706773)
(0.00511383 -0.0940464 0.0214179)
(0.0254956 0.023241 0.085855)
(-0.0491798 0.0789698 0.0471559)
(0.0477875 -0.0767222 -0.0224779)
(0.0247446 0.0464767 0.0673623)
(0.00644237 -0.00688146 0.0958524)
(-0.100629 0.0302128 0.0161895)
(0.0750097 0.0209759 -0.0172915)
(0.0422162 -0.107709 -0.0343705)
(-0.0520572 0.072337 -0.0663022)
(-0.0519133 0.0484898 -0.082723)
(0.0656783 0.0856429 -0.00780053)
(0.0581616 0.0875151 -0.0185856)
(-0.026442 -0.0534191 -0.0715098)
(-0.0902083 0.0166073 -0.0641425)
(0.051328 0.013933 0.0747606)
(-0.107143 0.0179026 0.0409564)
(0.058385 0.0613238 0.0370226)
(0.0735203 0.0364021 0.0244564)
(0.0130735 0.0977091 0.0109224)
(-0.0102018 0.0122506 0.0989025)
(-0.108364 0.0461685 0.0177907)
(0.0523325 -0.0062689 0.0655163)
(-0.0164728 0.0877899 -0.0320773)
(0.0433248 -0.0594132 0.0526232)
(-0.0159299 0.0690382 -0.0481611)
(0.0506438 0.0183393 0.0446345)
(0.0511796 -0.0672067 0.06673)
(-0.0696009 -0.0176134 -0.0745416)
(0.0648737 -0.0532102 -0.0111575)
(-0.0580664 -0.0290151 0.0686104)
(0.0730508 0.0492632 0.0497892)
(-0.0482791 0.0864508 0.0637236)
(0.052486 0.0827068 -0.0362495)
(0.0278173 -0.0465421 0.0662407)
(-0.052367 -0.0667287 -0.049069)
(-0.0457145 0.0400238 0.0914402)
(-0.056996 0.0613333 0.0760271)
(-0.0465089 0.0914432 0.0461292)
(0.0386388 -0.0502661 0.0583342)
(-0.0739728 -0.0394685 -0.0742719)
(0.0409884 0.0468737 -0.0608991)
(0.011255 0.0617025 -0.0682897)
(-0.110761 0.052549 -0.00713378)
(0.0427804 -0.028758 0.0616343)
(-0.0120801 -0.0335245 -0.0944004)
(-0.130658 -0.0468396 -0.0476723)
(-0.110702 0.00598152 0.0414724)
(-0.00778155 -0.142314 -0.00847581)
(0.0285214 0.113928 0.0328597)
(0.0352715 0.0967336 -0.055741)
(-0.0309737 -0.00753922 0.0928273)
(-0.0705628 0.0710339 0.0646909)
(0.0791481 0.0456047 0.0207332)
(-0.10469 0.0373178 0.0420591)
(-0.0288202 -0.0852434 0.00587075)
(0.0458971 0.0320323 -0.07357)
(-0.0376384 -0.086549 -0.0201272)
(0.0512969 -0.0342726 -0.0553473)
(-0.0732997 -0.0735306 0.0314698)
(-0.0876528 -0.0672914 0.0253558)
(-0.0774488 0.0129925 0.0840728)
(-0.0109778 0.0826339 0.0564531)
(-0.0707876 0.0921005 0.00572339)
(-0.00628931 0.0276339 -0.0905495)
(-0.0619741 0.0663661 -0.0703378)
(-0.0237203 -0.0415304 -0.0877276)
(-0.0795826 -0.0443063 0.096649)
(-0.00389307 -0.0936468 -0.0916641)
(0.0541168 -0.0157452 -0.0687419)
(0.0799893 0.0656321 -0.0241639)
(-0.0640519 -0.0591561 -0.0110481)
(-0.0858487 0.0171887 -0.069118)
(-0.0636354 -0.0630544 -0.027076)
(-0.0632933 -0.0131908 0.0827316)
(0.00666854 0.110526 0.0176644)
(0.03762 -0.029151 -0.0718684)
(0.0589745 0.0561688 0.0436451)
(0.0581231 -0.0171746 0.057903)
(0.0245151 -0.066684 0.0510965)
(0.0213236 -0.0726116 -0.0461214)
(-0.0369826 0.103518 -0.00310715)
(-0.0988546 0.0705803 0.000373853)
(-0.0995889 0.0736505 0.0145446)
(0.0243613 0.0549583 0.0701443)
(-0.0568933 -0.0747711 -0.0450248)
(-0.081297 -0.0621094 0.0898661)
(-0.11121 -0.0456499 -0.0674632)
(-0.0733224 -0.250528 0.0218948)
(0.0161885 0.137503 -0.0362429)
(0.0742787 0.0177736 0.0497981)
(0.0357732 -0.0342225 -0.057826)
(0.0482315 -0.0526016 -0.0102219)
(0.073807 0.0565328 -0.0408544)
(-0.0548422 -0.0409958 -0.0665135)
(-0.0446593 0.0579964 0.0847338)
(0.0691977 -0.0411352 0.0223397)
(-0.0632116 0.0925412 0.0264579)
(0.0385831 0.0455533 -0.0789346)
(0.0590036 -0.022941 -0.0650797)
(0.0380117 0.0816058 -0.0443317)
(0.0440659 -0.0774473 0.0127719)
(-0.080371 -0.0558897 -0.0337328)
(-0.0300725 -0.0105073 0.0956621)
(-0.0732839 -0.0413696 -0.046893)
(-0.0891415 -0.0229296 -0.0304008)
(0.0132346 0.0568641 -0.0828654)
(0.0300129 -0.169151 0.0279268)
(-0.109253 -0.28674 -0.0291251)
(-0.0489938 -0.0466083 0.0609739)
(-0.0293386 -0.0363528 0.0842212)
(0.0315076 -0.0252609 -0.0869614)
(0.0768116 0.0229828 -0.067932)
(0.0259353 -0.0406593 -0.0828431)
(0.0302533 -0.0330379 -0.08821)
(-0.0694652 -0.0316965 -0.00636465)
(0.025911 0.0418269 -0.0944625)
(0.00171037 0.081477 -0.0618363)
(0.0965915 0.0781654 0.0252689)
(0.0105348 -0.060828 0.0710624)
(0.0427529 0.0725252 0.073151)
(0.0263912 0.0478028 0.0890921)
(0.061507 -0.0133678 0.0964014)
(0.129298 -0.0269364 -0.0423493)
(0.117858 -0.036958 0.0611307)
(0.0234268 0.0823492 0.0615907)
(0.15884 -0.0560924 0.0476604)
(-0.0612354 -0.0114954 0.0468934)
(0.0816798 -0.148836 -0.0738433)
(0.0823152 0.145033 0.0746004)
(0.000109186 0.0120479 -0.0514017)
(0.0240686 0.0223024 -0.0725404)
(0.175882 0.00213264 -0.0712521)
(0.112888 -0.0410445 0.0759319)
(0.217374 0.0824617 0.00630887)
(0.102034 -0.0495972 -0.0572481)
(0.138899 0.0738646 -0.0745208)
(0.0915484 0.0342851 0.0545303)
(0.0902106 -0.0312156 0.0298635)
(0.152159 -0.0759711 -0.0513068)
(0.224403 0.0793445 0.0519923)
(0.154599 -0.0596975 -0.0704514)
(0.137127 -0.0229717 0.0794284)
(0.234992 0.00565184 -0.0916547)
(0.227163 0.0778908 -0.0587342)
(0.146725 0.0506123 -0.0706607)
(0.324062 0.0178062 -0.000365736)
(0.169623 -0.0323891 0.0680984)
(0.304614 -0.17375 -0.0096982)
)
;

boundaryField
{
    movingWall
    {
        type            fixedValue;
        value           uniform (1 0 0);
    }
    fixedWalls
    {
        type            noSlip;
    }
    frontAndBack
    {
        type            empty;
    }
}


// ************************************************************************* //
