/*--------------------------------*- C++ -*----------------------------------*\
| =========                 |                                                 |
| \\      /  F ield         | OpenFOAM: The Open Source CFD Toolbox           |
|  \\    /   O peration     | Version:  2312                                  |
|   \\  /    A nd           | Website:  www.openfoam.com                      |
|    \\/     M anipulation  |                                                 |
\*---------------------------------------------------------------------------*/
FoamFile
{
    version     2.0;
    format      ascii;
    arch        "LSB;label=32;scalar=64";
    class       volScalarField;
    location    "0.375";
    object      Ux;
}
// * * * * * * * * * * * * * * * * * * * * * * * * * * * * * * * * * * * * * //

dimensions      [0 1 -1 0 0 0 0];

internalField   nonuniform List<scalar> 
400
(
-0.000182652
-0.000676193
-0.00140569
-0.00214663
-0.00284382
-0.0034631
-0.00398816
-0.00440901
-0.00471929
-0.00490643
-0.00496844
-0.004897
-0.00468603
-0.00433351
-0.00383939
-0.00320986
-0.00246337
-0.00164271
-0.00081793
-0.00023043
-0.000357442
-0.00101295
-0.0017643
-0.00252503
-0.00324905
-0.00390555
-0.0044716
-0.00493003
-0.00526824
-0.00547537
-0.00554313
-0.00546423
-0.00523439
-0.00485287
-0.00432461
-0.00366316
-0.00289273
-0.0020509
-0.00119488
-0.000422087
-0.000455895
-0.00119498
-0.00196473
-0.0027315
-0.00345927
-0.00412417
-0.00470379
-0.00517846
-0.00553268
-0.00575403
-0.0058327
-0.00576084
-0.00553366
-0.00515104
-0.00461926
-0.00395294
-0.00317431
-0.00231336
-0.00141726
-0.00053418
-0.000495737
-0.00129974
-0.00212088
-0.00292744
-0.00368678
-0.00437952
-0.00498608
-0.00548721
-0.00586651
-0.00611044
-0.00620815
-0.00615025
-0.00593021
-0.00554643
-0.00500309
-0.00431174
-0.00349001
-0.00256386
-0.00158012
-0.000593044
-0.000519285
-0.00138558
-0.00227923
-0.00315316
-0.00397193
-0.00471664
-0.00536967
-0.00591311
-0.00633084
-0.0066089
-0.00673483
-0.0066976
-0.00648807
-0.00610042
-0.00553411
-0.00479531
-0.00389713
-0.00286585
-0.0017564
-0.0006483
-0.000549528
-0.00148725
-0.00247046
-0.00343363
-0.00433533
-0.00515424
-0.00587334
-0.00647591
-0.00694675
-0.00727187
-0.00743759
-0.00743056
-0.00723763
-0.00684694
-0.00625064
-0.00544733
-0.00444481
-0.00327178
-0.00199585
-0.000728031
-0.000594582
-0.00162203
-0.00271354
-0.00378624
-0.0047915
-0.00570422
-0.00650717
-0.00718493
-0.00772363
-0.00810998
-0.0083296
-0.00836638
-0.00820188
-0.00781635
-0.00719155
-0.0063147
-0.00518473
-0.00383081
-0.00233564
-0.000846927
-0.000656869
-0.00179824
-0.00302043
-0.00422379
-0.00535185
-0.00637561
-0.00727779
-0.00804495
-0.00866564
-0.00912822
-0.00941846
-0.00951782
-0.009402
-0.00904106
-0.0084022
-0.00745477
-0.00618021
-0.00460103
-0.00281427
-0.00101737
-0.000737864
-0.00202198
-0.00340159
-0.00475857
-0.00602807
-0.00717767
-0.00819144
-0.00905938
-0.00977433
-0.0103282
-0.0107086
-0.0108958
-0.0108597
-0.0105585
-0.00993975
-0.00894451
-0.00752058
-0.00566577
-0.0034852
-0.00125616
-0.000840488
-0.00230197
-0.00387092
-0.00540671
-0.00683533
-0.00812237
-0.00925556
-0.0102313
-0.0110494
-0.0117082
-0.0122
-0.0125068
-0.0125949
-0.0124102
-0.0118758
-0.0108907
-0.00934013
-0.00715775
-0.00443132
-0.00158636
-0.000970953
-0.00265412
-0.00445067
-0.00619203
-0.00779464
-0.00922489
-0.0104783
-0.0115616
-0.0124855
-0.0132585
-0.013882
-0.0143452
-0.0146162
-0.0146329
-0.0142933
-0.0134388
-0.0118459
-0.00929754
-0.00578195
-0.00203345
-0.00114165
-0.00310671
-0.0051762
-0.00714862
-0.00893276
-0.0105014
-0.0118642
-0.0130434
-0.0140651
-0.0149525
-0.0157218
-0.0163777
-0.0169011
-0.0172357
-0.0172666
-0.0167734
-0.0153568
-0.0124547
-0.00773448
-0.00259343
-0.00137674
-0.00370977
-0.0060997
-0.00831851
-0.0102749
-0.0119588
-0.0134023
-0.0146494
-0.015745
-0.0167309
-0.0176448
-0.0185154
-0.0193576
-0.0201523
-0.020812
-0.0210987
-0.0203694
-0.017293
-0.0106843
-0.00317529
-0.00172002
-0.00453299
-0.00728056
-0.00973204
-0.0118187
-0.0135655
-0.0150369
-0.016302
-0.0174256
-0.0184688
-0.0194943
-0.0205693
-0.021767
-0.0231557
-0.0247844
-0.0266015
-0.0278659
-0.0258683
-0.0173151
-0.00504325
-0.00225231
-0.0056948
-0.00875419
-0.0113539
-0.0134707
-0.0151867
-0.0166031
-0.0178122
-0.0188927
-0.0199197
-0.0209787
-0.0221815
-0.0236829
-0.02571
-0.0286383
-0.0331871
-0.0396865
-0.0442908
-0.037162
-0.0161508
-0.00293833
-0.00708
-0.0103762
-0.0129361
-0.0148991
-0.0164398
-0.0176891
-0.018738
-0.0196713
-0.0205715
-0.0215266
-0.0226781
-0.0242571
-0.0266644
-0.0306801
-0.0384295
-0.0536292
-0.0686531
-0.0665712
-0.0389354
-0.00463638
-0.00944064
-0.0119546
-0.0137969
-0.0151552
-0.0162399
-0.0171305
-0.0179036
-0.0185891
-0.0192136
-0.0198463
-0.020607
-0.0217095
-0.0235015
-0.0265586
-0.0325765
-0.0470213
-0.0643058
-0.0679769
-0.0522434
-0.00567656
-0.00944906
-0.0104668
-0.0108714
-0.0111852
-0.0113644
-0.0113521
-0.0112613
-0.0111108
-0.0108838
-0.0106011
-0.0103257
-0.0100964
-0.0097769
-0.00903401
-0.00649481
-0.00572639
0.00423431
-0.0264026
-0.0346569
-0.00627528
-0.00701525
-0.00170471
0.00409612
0.0105166
0.0161637
0.0210015
0.0250869
0.0286177
0.0317442
0.0345269
0.0370052
0.0392587
0.0417373
0.0447604
0.0522306
0.0548171
0.0893685
0.0268559
0.0506401
0.0408392
0.0637643
0.0894684
0.111331
0.127831
0.141299
0.153023
0.16313
0.171452
0.17795
0.182832
0.18655
0.189587
0.192594
0.195189
0.200568
0.196512
0.226952
0.103384
0.367477
)
;

boundaryField
{
    movingWall
    {
        type            calculated;
        value           uniform 1;
    }
    fixedWalls
    {
        type            calculated;
        value           uniform 0;
    }
    frontAndBack
    {
        type            empty;
    }
}


// ************************************************************************* //
