/*--------------------------------*- C++ -*----------------------------------*\
| =========                 |                                                 |
| \\      /  F ield         | OpenFOAM: The Open Source CFD Toolbox           |
|  \\    /   O peration     | Version:  2312                                  |
|   \\  /    A nd           | Website:  www.openfoam.com                      |
|    \\/     M anipulation  |                                                 |
\*---------------------------------------------------------------------------*/
FoamFile
{
    version     2.0;
    format      ascii;
    arch        "LSB;label=32;scalar=64";
    class       volScalarField;
    location    "0.375";
    object      Uy;
}
// * * * * * * * * * * * * * * * * * * * * * * * * * * * * * * * * * * * * * //

dimensions      [0 1 -1 0 0 0 0];

internalField   nonuniform List<scalar> 
400
(
0.000182811
0.000354793
0.000429031
0.000422391
0.000380531
0.000326902
0.00026858
0.000206561
0.000139838
6.98891e-05
-2.08273e-06
-8.0499e-05
-0.000160385
-0.0002418
-0.000323152
-0.000400407
-0.000462415
-0.000481208
-0.000407954
-0.000227308
0.000676429
0.00100302
0.00112416
0.00110975
0.00101933
0.000889451
0.000737571
0.000570288
0.00038939
0.000196556
-6.71522e-06
-0.000219298
-0.000437855
-0.000657689
-0.000871087
-0.00106376
-0.0012094
-0.00126288
-0.00115848
-0.000821642
0.00142503
0.00176642
0.00186692
0.00182739
0.00169083
0.00148959
0.0012444
0.000966841
0.000662911
0.00033668
-8.23899e-06
-0.000368049
-0.00073586
-0.00110182
-0.0014505
-0.00175826
-0.00199119
-0.00210488
-0.00204725
-0.00170434
0.00224369
0.00259722
0.00266187
0.00258393
0.00239526
0.00212102
0.00178168
0.00139182
0.000960968
0.000495829
2.30879e-06
-0.000512394
-0.00103826
-0.00155989
-0.00205451
-0.00249055
-0.00282897
-0.00302681
-0.00303695
-0.002686
0.00311382
0.00349331
0.00351824
0.00339226
0.00314368
0.00279175
0.00235527
0.00185045
0.00128935
0.000680971
3.3187e-05
-0.000644155
-0.00133821
-0.00202866
-0.00268601
-0.00327151
-0.00374058
-0.00404758
-0.0041391
-0.00376564
0.00403637
0.00446547
0.00445491
0.00427521
0.00395846
0.00352133
0.00298169
0.00235676
0.00166046
0.000903229
9.40896e-05
-0.0007565
-0.00163327
-0.0025123
-0.00335824
-0.0041247
-0.00475849
-0.00520382
-0.00538842
-0.00497035
0.00502925
0.00553134
0.00549173
0.00525488
0.00486183
0.00433036
0.00367914
0.00292689
0.00208876
0.00117571
0.000196301
-0.000839823
-0.00191744
-0.00301088
-0.00408011
-0.00507016
-0.00591476
-0.00653838
-0.00683629
-0.00635536
0.00611804
0.0067134
0.00664933
0.00635136
0.00587303
0.00523659
0.00446382
0.00357586
0.00258899
0.0015134
0.000355474
-0.000878431
-0.0021764
-0.00351429
-0.00484981
-0.00611961
-0.00723975
-0.00810325
-0.00855412
-0.00799871
0.00733209
0.00803888
0.00795114
0.00758485
0.00700943
0.00625507
0.0053493
0.00431696
0.0031754
0.00193301
0.000591632
-0.000848921
-0.00238451
-0.00399785
-0.00564989
-0.00727247
-0.00876189
-0.00996524
-0.010643
-0.0100057
0.00870481
0.00954025
0.00942426
0.00897642
0.00828687
0.00739784
0.00634569
0.00516057
0.00386086
0.00245204
0.000929034
-0.000718745
-0.00250113
-0.00441588
-0.00643783
-0.00850541
-0.0105016
-0.0122119
-0.0132527
-0.0125223
0.0102772
0.0112573
0.0111
0.0105476
0.00971835
0.00867215
0.0074577
0.00611199
0.00465468
0.00308716
0.00139551
-0.000445495
-0.00246654
-0.0046923
-0.00712986
-0.00975057
-0.0124528
-0.0149553
-0.0166059
-0.0157441
0.0121057
0.0132403
0.0130138
0.0123179
0.0113109
0.0100771
0.00868108
0.00716815
0.00555899
0.00385044
0.00201836
2.01893e-05
-0.00219981
-0.00470949
-0.00757526
-0.0108528
-0.0145404
-0.0183285
-0.0210262
-0.019837
0.0142674
0.015554
0.0152029
0.0142998
0.0130596
0.0115979
0.00999797
0.00831297
0.00656373
0.00474305
0.00281846
0.000731906
-0.00160077
-0.00429917
-0.00752071
-0.0114949
-0.0165481
-0.0226361
-0.0275786
-0.0255001
0.0169276
0.0182903
0.0177006
0.0164867
0.0149367
0.0131981
0.0113703
0.00951086
0.00763866
0.00574441
0.00379402
0.00172359
-0.000569521
-0.00324342
-0.00656036
-0.0110282
-0.0177836
-0.0280682
-0.0379565
-0.0342226
0.0200675
0.0214807
0.0204713
0.0188059
0.0168609
0.0147997
0.0127268
0.0106957
0.00872128
0.00679625
0.00489613
0.00297379
0.000950867
-0.0013063
-0.00406285
-0.00801781
-0.0154565
-0.0304673
-0.0476092
-0.0430257
0.0248746
0.0253243
0.0234259
0.0210913
0.0186741
0.016271
0.0139616
0.0117901
0.00974269
0.00781801
0.00602568
0.00437015
0.00287217
0.00159702
0.000675012
-7.53704e-05
-0.00422399
-0.0246511
-0.066435
-0.0744182
0.0269469
0.0279704
0.0254832
0.0227779
0.0201115
0.0174925
0.0150187
0.0127065
0.0105727
0.00863778
0.00694487
0.00558463
0.00474003
0.00484014
0.0069046
0.0120879
0.0139718
-0.0216695
-0.10548
-0.155259
0.0469032
0.0403525
0.0329937
0.0274131
0.0232576
0.0197137
0.0166345
0.0138854
0.0113902
0.00918919
0.00738741
0.00611949
0.00563893
0.00638847
0.00964568
0.0164254
0.0230891
0.00161626
-0.0914506
-0.226848
0.0201548
0.0127232
0.011272
0.0130981
0.0131857
0.0119119
0.0104375
0.00902211
0.00763751
0.00635803
0.00531223
0.00458484
0.00424802
0.00440675
0.00561896
0.00726903
0.0100911
-0.00222019
-0.0178928
-0.2087
0.0929315
0.0695447
0.0437677
0.0296359
0.0222883
0.0178649
0.014611
0.0117395
0.00895033
0.00633413
0.00419606
0.00276801
0.00204695
0.00181742
0.00176796
0.00145136
0.000330153
-0.00605933
-0.00116234
-0.0965865
)
;

boundaryField
{
    movingWall
    {
        type            calculated;
        value           uniform 0;
    }
    fixedWalls
    {
        type            calculated;
        value           uniform 0;
    }
    frontAndBack
    {
        type            empty;
    }
}


// ************************************************************************* //
