/*--------------------------------*- C++ -*----------------------------------*\
| =========                 |                                                 |
| \\      /  F ield         | OpenFOAM: The Open Source CFD Toolbox           |
|  \\    /   O peration     | Version:  2312                                  |
|   \\  /    A nd           | Website:  www.openfoam.com                      |
|    \\/     M anipulation  |                                                 |
\*---------------------------------------------------------------------------*/
FoamFile
{
    version     2.0;
    format      ascii;
    arch        "LSB;label=32;scalar=64";
    class       volVectorField;
    location    "0.375";
    object      zeroGradient(U);
}
// * * * * * * * * * * * * * * * * * * * * * * * * * * * * * * * * * * * * * //

dimensions      [0 1 -1 0 0 0 0];

internalField   nonuniform List<vector> 
400
(
(-0.000182652 0.000182811 0)
(-0.000676193 0.000354793 0)
(-0.00140569 0.000429031 0)
(-0.00214663 0.000422391 0)
(-0.00284382 0.000380531 0)
(-0.0034631 0.000326902 0)
(-0.00398816 0.00026858 0)
(-0.00440901 0.000206561 0)
(-0.00471929 0.000139838 0)
(-0.00490643 6.98891e-05 0)
(-0.00496844 -2.08273e-06 0)
(-0.004897 -8.0499e-05 0)
(-0.00468603 -0.000160385 0)
(-0.00433351 -0.0002418 0)
(-0.00383939 -0.000323152 0)
(-0.00320986 -0.000400407 0)
(-0.00246337 -0.000462415 0)
(-0.00164271 -0.000481208 0)
(-0.00081793 -0.000407954 0)
(-0.00023043 -0.000227308 0)
(-0.000357442 0.000676429 0)
(-0.00101295 0.00100302 0)
(-0.0017643 0.00112416 0)
(-0.00252503 0.00110975 0)
(-0.00324905 0.00101933 0)
(-0.00390555 0.000889451 0)
(-0.0044716 0.000737571 0)
(-0.00493003 0.000570288 0)
(-0.00526824 0.00038939 0)
(-0.00547537 0.000196556 0)
(-0.00554313 -6.71522e-06 0)
(-0.00546423 -0.000219298 0)
(-0.00523439 -0.000437855 0)
(-0.00485287 -0.000657689 0)
(-0.00432461 -0.000871087 0)
(-0.00366316 -0.00106376 0)
(-0.00289273 -0.0012094 0)
(-0.0020509 -0.00126288 0)
(-0.00119488 -0.00115848 0)
(-0.000422087 -0.000821642 0)
(-0.000455895 0.00142503 0)
(-0.00119498 0.00176642 0)
(-0.00196473 0.00186692 0)
(-0.0027315 0.00182739 0)
(-0.00345927 0.00169083 0)
(-0.00412417 0.00148959 0)
(-0.00470379 0.0012444 0)
(-0.00517846 0.000966841 0)
(-0.00553268 0.000662911 0)
(-0.00575403 0.00033668 0)
(-0.0058327 -8.23899e-06 0)
(-0.00576084 -0.000368049 0)
(-0.00553366 -0.00073586 0)
(-0.00515104 -0.00110182 0)
(-0.00461926 -0.0014505 0)
(-0.00395294 -0.00175826 0)
(-0.00317431 -0.00199119 0)
(-0.00231336 -0.00210488 0)
(-0.00141726 -0.00204725 0)
(-0.00053418 -0.00170434 0)
(-0.000495737 0.00224369 0)
(-0.00129974 0.00259722 0)
(-0.00212088 0.00266187 0)
(-0.00292744 0.00258393 0)
(-0.00368678 0.00239526 0)
(-0.00437952 0.00212102 0)
(-0.00498608 0.00178168 0)
(-0.00548721 0.00139182 0)
(-0.00586651 0.000960968 0)
(-0.00611044 0.000495829 0)
(-0.00620815 2.30879e-06 0)
(-0.00615025 -0.000512394 0)
(-0.00593021 -0.00103826 0)
(-0.00554643 -0.00155989 0)
(-0.00500309 -0.00205451 0)
(-0.00431174 -0.00249055 0)
(-0.00349001 -0.00282897 0)
(-0.00256386 -0.00302681 0)
(-0.00158012 -0.00303695 0)
(-0.000593044 -0.002686 0)
(-0.000519285 0.00311382 0)
(-0.00138558 0.00349331 0)
(-0.00227923 0.00351824 0)
(-0.00315316 0.00339226 0)
(-0.00397193 0.00314368 0)
(-0.00471664 0.00279175 0)
(-0.00536967 0.00235527 0)
(-0.00591311 0.00185045 0)
(-0.00633084 0.00128935 0)
(-0.0066089 0.000680971 0)
(-0.00673483 3.3187e-05 0)
(-0.0066976 -0.000644155 0)
(-0.00648807 -0.00133821 0)
(-0.00610042 -0.00202866 0)
(-0.00553411 -0.00268601 0)
(-0.00479531 -0.00327151 0)
(-0.00389713 -0.00374058 0)
(-0.00286585 -0.00404758 0)
(-0.0017564 -0.0041391 0)
(-0.0006483 -0.00376564 0)
(-0.000549528 0.00403637 0)
(-0.00148725 0.00446547 0)
(-0.00247046 0.00445491 0)
(-0.00343363 0.00427521 0)
(-0.00433533 0.00395846 0)
(-0.00515424 0.00352133 0)
(-0.00587334 0.00298169 0)
(-0.00647591 0.00235676 0)
(-0.00694675 0.00166046 0)
(-0.00727187 0.000903229 0)
(-0.00743759 9.40896e-05 0)
(-0.00743056 -0.0007565 0)
(-0.00723763 -0.00163327 0)
(-0.00684694 -0.0025123 0)
(-0.00625064 -0.00335824 0)
(-0.00544733 -0.0041247 0)
(-0.00444481 -0.00475849 0)
(-0.00327178 -0.00520382 0)
(-0.00199585 -0.00538842 0)
(-0.000728031 -0.00497035 0)
(-0.000594582 0.00502925 0)
(-0.00162203 0.00553134 0)
(-0.00271354 0.00549173 0)
(-0.00378624 0.00525488 0)
(-0.0047915 0.00486183 0)
(-0.00570422 0.00433036 0)
(-0.00650717 0.00367914 0)
(-0.00718493 0.00292689 0)
(-0.00772363 0.00208876 0)
(-0.00810998 0.00117571 0)
(-0.0083296 0.000196301 0)
(-0.00836638 -0.000839823 0)
(-0.00820188 -0.00191744 0)
(-0.00781635 -0.00301088 0)
(-0.00719155 -0.00408011 0)
(-0.0063147 -0.00507016 0)
(-0.00518473 -0.00591476 0)
(-0.00383081 -0.00653838 0)
(-0.00233564 -0.00683629 0)
(-0.000846927 -0.00635536 0)
(-0.000656869 0.00611804 0)
(-0.00179824 0.0067134 0)
(-0.00302043 0.00664933 0)
(-0.00422379 0.00635136 0)
(-0.00535185 0.00587303 0)
(-0.00637561 0.00523659 0)
(-0.00727779 0.00446382 0)
(-0.00804495 0.00357586 0)
(-0.00866564 0.00258899 0)
(-0.00912822 0.0015134 0)
(-0.00941846 0.000355474 0)
(-0.00951782 -0.000878431 0)
(-0.009402 -0.0021764 0)
(-0.00904106 -0.00351429 0)
(-0.0084022 -0.00484981 0)
(-0.00745477 -0.00611961 0)
(-0.00618021 -0.00723975 0)
(-0.00460103 -0.00810325 0)
(-0.00281427 -0.00855412 0)
(-0.00101737 -0.00799871 0)
(-0.000737864 0.00733209 0)
(-0.00202198 0.00803888 0)
(-0.00340159 0.00795114 0)
(-0.00475857 0.00758485 0)
(-0.00602807 0.00700943 0)
(-0.00717767 0.00625507 0)
(-0.00819144 0.0053493 0)
(-0.00905938 0.00431696 0)
(-0.00977433 0.0031754 0)
(-0.0103282 0.00193301 0)
(-0.0107086 0.000591632 0)
(-0.0108958 -0.000848921 0)
(-0.0108597 -0.00238451 0)
(-0.0105585 -0.00399785 0)
(-0.00993975 -0.00564989 0)
(-0.00894451 -0.00727247 0)
(-0.00752058 -0.00876189 0)
(-0.00566577 -0.00996524 0)
(-0.0034852 -0.010643 0)
(-0.00125616 -0.0100057 0)
(-0.000840488 0.00870481 0)
(-0.00230197 0.00954025 0)
(-0.00387092 0.00942426 0)
(-0.00540671 0.00897642 0)
(-0.00683533 0.00828687 0)
(-0.00812237 0.00739784 0)
(-0.00925556 0.00634569 0)
(-0.0102313 0.00516057 0)
(-0.0110494 0.00386086 0)
(-0.0117082 0.00245204 0)
(-0.0122 0.000929034 0)
(-0.0125068 -0.000718745 0)
(-0.0125949 -0.00250113 0)
(-0.0124102 -0.00441588 0)
(-0.0118758 -0.00643783 0)
(-0.0108907 -0.00850541 0)
(-0.00934013 -0.0105016 0)
(-0.00715775 -0.0122119 0)
(-0.00443132 -0.0132527 0)
(-0.00158636 -0.0125223 0)
(-0.000970953 0.0102772 0)
(-0.00265412 0.0112573 0)
(-0.00445067 0.0111 0)
(-0.00619203 0.0105476 0)
(-0.00779464 0.00971835 0)
(-0.00922489 0.00867215 0)
(-0.0104783 0.0074577 0)
(-0.0115616 0.00611199 0)
(-0.0124855 0.00465468 0)
(-0.0132585 0.00308716 0)
(-0.013882 0.00139551 0)
(-0.0143452 -0.000445495 0)
(-0.0146162 -0.00246654 0)
(-0.0146329 -0.0046923 0)
(-0.0142933 -0.00712986 0)
(-0.0134388 -0.00975057 0)
(-0.0118459 -0.0124528 0)
(-0.00929754 -0.0149553 0)
(-0.00578195 -0.0166059 0)
(-0.00203345 -0.0157441 0)
(-0.00114165 0.0121057 0)
(-0.00310671 0.0132403 0)
(-0.0051762 0.0130138 0)
(-0.00714862 0.0123179 0)
(-0.00893276 0.0113109 0)
(-0.0105014 0.0100771 0)
(-0.0118642 0.00868108 0)
(-0.0130434 0.00716815 0)
(-0.0140651 0.00555899 0)
(-0.0149525 0.00385044 0)
(-0.0157218 0.00201836 0)
(-0.0163777 2.01893e-05 0)
(-0.0169011 -0.00219981 0)
(-0.0172357 -0.00470949 0)
(-0.0172666 -0.00757526 0)
(-0.0167734 -0.0108528 0)
(-0.0153568 -0.0145404 0)
(-0.0124547 -0.0183285 0)
(-0.00773448 -0.0210262 0)
(-0.00259343 -0.019837 0)
(-0.00137674 0.0142674 0)
(-0.00370977 0.015554 0)
(-0.0060997 0.0152029 0)
(-0.00831851 0.0142998 0)
(-0.0102749 0.0130596 0)
(-0.0119588 0.0115979 0)
(-0.0134023 0.00999797 0)
(-0.0146494 0.00831297 0)
(-0.015745 0.00656373 0)
(-0.0167309 0.00474305 0)
(-0.0176448 0.00281846 0)
(-0.0185154 0.000731906 0)
(-0.0193576 -0.00160077 0)
(-0.0201523 -0.00429917 0)
(-0.020812 -0.00752071 0)
(-0.0210987 -0.0114949 0)
(-0.0203694 -0.0165481 0)
(-0.017293 -0.0226361 0)
(-0.0106843 -0.0275786 0)
(-0.00317529 -0.0255001 0)
(-0.00172002 0.0169276 0)
(-0.00453299 0.0182903 0)
(-0.00728056 0.0177006 0)
(-0.00973204 0.0164867 0)
(-0.0118187 0.0149367 0)
(-0.0135655 0.0131981 0)
(-0.0150369 0.0113703 0)
(-0.016302 0.00951086 0)
(-0.0174256 0.00763866 0)
(-0.0184688 0.00574441 0)
(-0.0194943 0.00379402 0)
(-0.0205693 0.00172359 0)
(-0.021767 -0.000569521 0)
(-0.0231557 -0.00324342 0)
(-0.0247844 -0.00656036 0)
(-0.0266015 -0.0110282 0)
(-0.0278659 -0.0177836 0)
(-0.0258683 -0.0280682 0)
(-0.0173151 -0.0379565 0)
(-0.00504325 -0.0342226 0)
(-0.00225231 0.0200675 0)
(-0.0056948 0.0214807 0)
(-0.00875419 0.0204713 0)
(-0.0113539 0.0188059 0)
(-0.0134707 0.0168609 0)
(-0.0151867 0.0147997 0)
(-0.0166031 0.0127268 0)
(-0.0178122 0.0106957 0)
(-0.0188927 0.00872128 0)
(-0.0199197 0.00679625 0)
(-0.0209787 0.00489613 0)
(-0.0221815 0.00297379 0)
(-0.0236829 0.000950867 0)
(-0.02571 -0.0013063 0)
(-0.0286383 -0.00406285 0)
(-0.0331871 -0.00801781 0)
(-0.0396865 -0.0154565 0)
(-0.0442908 -0.0304673 0)
(-0.037162 -0.0476092 0)
(-0.0161508 -0.0430257 0)
(-0.00293833 0.0248746 0)
(-0.00708 0.0253243 0)
(-0.0103762 0.0234259 0)
(-0.0129361 0.0210913 0)
(-0.0148991 0.0186741 0)
(-0.0164398 0.016271 0)
(-0.0176891 0.0139616 0)
(-0.018738 0.0117901 0)
(-0.0196713 0.00974269 0)
(-0.0205715 0.00781801 0)
(-0.0215266 0.00602568 0)
(-0.0226781 0.00437015 0)
(-0.0242571 0.00287217 0)
(-0.0266644 0.00159702 0)
(-0.0306801 0.000675012 0)
(-0.0384295 -7.53704e-05 0)
(-0.0536292 -0.00422399 0)
(-0.0686531 -0.0246511 0)
(-0.0665712 -0.066435 0)
(-0.0389354 -0.0744182 0)
(-0.00463638 0.0269469 0)
(-0.00944064 0.0279704 0)
(-0.0119546 0.0254832 0)
(-0.0137969 0.0227779 0)
(-0.0151552 0.0201115 0)
(-0.0162399 0.0174925 0)
(-0.0171305 0.0150187 0)
(-0.0179036 0.0127065 0)
(-0.0185891 0.0105727 0)
(-0.0192136 0.00863778 0)
(-0.0198463 0.00694487 0)
(-0.020607 0.00558463 0)
(-0.0217095 0.00474003 0)
(-0.0235015 0.00484014 0)
(-0.0265586 0.0069046 0)
(-0.0325765 0.0120879 0)
(-0.0470213 0.0139718 0)
(-0.0643058 -0.0216695 0)
(-0.0679769 -0.10548 0)
(-0.0522434 -0.155259 0)
(-0.00567656 0.0469032 0)
(-0.00944906 0.0403525 0)
(-0.0104668 0.0329937 0)
(-0.0108714 0.0274131 0)
(-0.0111852 0.0232576 0)
(-0.0113644 0.0197137 0)
(-0.0113521 0.0166345 0)
(-0.0112613 0.0138854 0)
(-0.0111108 0.0113902 0)
(-0.0108838 0.00918919 0)
(-0.0106011 0.00738741 0)
(-0.0103257 0.00611949 0)
(-0.0100964 0.00563893 0)
(-0.0097769 0.00638847 0)
(-0.00903401 0.00964568 0)
(-0.00649481 0.0164254 0)
(-0.00572639 0.0230891 0)
(0.00423431 0.00161626 0)
(-0.0264026 -0.0914506 0)
(-0.0346569 -0.226848 0)
(-0.00627528 0.0201548 0)
(-0.00701525 0.0127232 0)
(-0.00170471 0.011272 0)
(0.00409612 0.0130981 0)
(0.0105166 0.0131857 0)
(0.0161637 0.0119119 0)
(0.0210015 0.0104375 0)
(0.0250869 0.00902211 0)
(0.0286177 0.00763751 0)
(0.0317442 0.00635803 0)
(0.0345269 0.00531223 0)
(0.0370052 0.00458484 0)
(0.0392587 0.00424802 0)
(0.0417373 0.00440675 0)
(0.0447604 0.00561896 0)
(0.0522306 0.00726903 0)
(0.0548171 0.0100911 0)
(0.0893685 -0.00222019 0)
(0.0268559 -0.0178928 0)
(0.0506401 -0.2087 0)
(0.0408392 0.0929315 0)
(0.0637643 0.0695447 0)
(0.0894684 0.0437677 0)
(0.111331 0.0296359 0)
(0.127831 0.0222883 0)
(0.141299 0.0178649 0)
(0.153023 0.014611 0)
(0.16313 0.0117395 0)
(0.171452 0.00895033 0)
(0.17795 0.00633413 0)
(0.182832 0.00419606 0)
(0.18655 0.00276801 0)
(0.189587 0.00204695 0)
(0.192594 0.00181742 0)
(0.195189 0.00176796 0)
(0.200568 0.00145136 0)
(0.196512 0.000330153 0)
(0.226952 -0.00605933 0)
(0.103384 -0.00116234 0)
(0.367477 -0.0965865 0)
)
;

boundaryField
{
    movingWall
    {
        type            zeroGradient;
    }
    fixedWalls
    {
        type            zeroGradient;
    }
    frontAndBack
    {
        type            empty;
    }
}


// ************************************************************************* //
