/*--------------------------------*- C++ -*----------------------------------*\
| =========                 |                                                 |
| \\      /  F ield         | OpenFOAM: The Open Source CFD Toolbox           |
|  \\    /   O peration     | Version:  2312                                  |
|   \\  /    A nd           | Website:  www.openfoam.com                      |
|    \\/     M anipulation  |                                                 |
\*---------------------------------------------------------------------------*/
FoamFile
{
    version     2.0;
    format      ascii;
    arch        "LSB;label=32;scalar=64";
    class       volScalarField;
    location    "0.375";
    object      zeroGradient(epsilon);
}
// * * * * * * * * * * * * * * * * * * * * * * * * * * * * * * * * * * * * * //

dimensions      [0 2 -3 0 0 0 0];

internalField   nonuniform List<scalar> 
400
(
0.00185689
0.00248195
0.00292989
0.00315668
0.00326144
0.00331281
0.00334319
0.00336479
0.0033813
0.00339338
0.00340198
0.00340901
0.00341093
0.00340582
0.00338791
0.00334118
0.00322789
0.00297582
0.00249156
0.00185837
0.00249029
0.00235379
0.00249514
0.00257206
0.00260479
0.00261787
0.00262343
0.00262622
0.00262785
0.00262884
0.00262955
0.00263057
0.00263089
0.00262974
0.00262506
0.00261136
0.00257597
0.00249482
0.00235324
0.00248441
0.00297658
0.00249646
0.00252013
0.00254582
0.00255765
0.00256237
0.00256411
0.00256468
0.00256482
0.00256485
0.0025649
0.00256503
0.002565
0.00256449
0.0025627
0.0025578
0.00254569
0.00251965
0.00249538
0.00293308
0.003238
0.00257918
0.00254662
0.00254665
0.00254737
0.0025477
0.00254778
0.00254765
0.00254744
0.00254727
0.00254719
0.00254718
0.0025472
0.00254724
0.00254729
0.00254741
0.00254727
0.00254669
0.00257366
0.00316099
0.00336965
0.00261784
0.00255994
0.00254771
0.00254264
0.00254058
0.00253979
0.00253941
0.00253918
0.00253905
0.00253898
0.00253906
0.00253931
0.00253985
0.00254113
0.0025441
0.00254988
0.00256042
0.00260867
0.00326929
0.00344473
0.00263657
0.00256674
0.00254906
0.00254133
0.00253812
0.00253695
0.00253651
0.00253634
0.00253625
0.00253627
0.00253652
0.00253701
0.00253794
0.00253996
0.00254439
0.00255282
0.00256783
0.00262518
0.00332819
0.00350187
0.00264811
0.00257112
0.00255094
0.00254214
0.00253849
0.00253719
0.00253675
0.00253663
0.00253657
0.00253672
0.00253714
0.00253785
0.0025391
0.00254164
0.00254691
0.00255657
0.00257348
0.00263629
0.00337339
0.00355823
0.0026581
0.00257494
0.00255326
0.00254397
0.00254017
0.00253885
0.00253845
0.00253835
0.00253838
0.00253871
0.00253936
0.00254038
0.00254206
0.00254519
0.00255121
0.00256173
0.00257983
0.00264755
0.00341902
0.00362125
0.00266893
0.00257916
0.00255618
0.00254662
0.00254273
0.00254137
0.00254096
0.00254086
0.00254101
0.00254155
0.00254253
0.00254404
0.00254641
0.00255047
0.00255761
0.00256929
0.00258872
0.00266199
0.00347184
0.00369509
0.00268182
0.00258444
0.00256002
0.00255013
0.00254608
0.00254458
0.00254408
0.00254395
0.00254421
0.00254503
0.0025465
0.0025488
0.00255234
0.00255803
0.00256727
0.00258118
0.00260281
0.00268267
0.00353683
0.00378367
0.00269778
0.00259137
0.00256519
0.00255477
0.00255035
0.00254852
0.00254779
0.00254757
0.00254791
0.00254909
0.00255129
0.00255483
0.00256036
0.00256907
0.00258252
0.00260146
0.00262774
0.00271526
0.00362002
0.00389224
0.00271815
0.00260081
0.00257232
0.002561
0.00255587
0.00255344
0.00255228
0.00255184
0.00255224
0.00255389
0.00255715
0.00256265
0.00257159
0.00258604
0.00260866
0.00264045
0.00267992
0.00277718
0.00373175
0.00402875
0.002745
0.00261412
0.00258262
0.00256997
0.0025638
0.00256055
0.00255882
0.00255812
0.00255865
0.002561
0.00256582
0.00257442
0.00258926
0.00261504
0.00265935
0.00272897
0.00281789
0.00294676
0.00392568
0.00420654
0.0027816
0.00263403
0.00259938
0.00258575
0.00257897
0.00257526
0.00257337
0.0025729
0.00257417
0.00257792
0.0025853
0.00259881
0.00262388
0.0026726
0.00277061
0.00295752
0.00324812
0.00362215
0.00460419
0.00443642
0.0028333
0.00266857
0.00263402
0.00262274
0.00261862
0.00261761
0.00261839
0.00262086
0.00262536
0.00263276
0.00264496
0.00266629
0.00270792
0.00280031
0.00302209
0.00353642
0.00459142
0.00676706
0.00836823
0.00476462
0.0029157
0.00274749
0.00272913
0.00273486
0.00274688
0.00276079
0.00277513
0.00278984
0.0028054
0.00282304
0.00284552
0.00287942
0.00294394
0.00310262
0.003553
0.00481753
0.00854196
0.0184365
0.0262843
0.00505888
0.00311282
0.0030087
0.00306788
0.00314495
0.00322221
0.00329575
0.00336286
0.00342307
0.00347727
0.00352767
0.0035786
0.0036391
0.00373469
0.00394916
0.00457497
0.00666444
0.0141924
0.0368994
0.0656644
0.0057253
0.00380976
0.00421526
0.00467887
0.00508352
0.00546636
0.00582771
0.00615309
0.00643496
0.00667206
0.00686885
0.00703752
0.00719647
0.00738192
0.00762073
0.00800925
0.00846754
0.0134113
0.0435383
0.103475
0.00720264
0.00966679
0.014183
0.0175678
0.0200456
0.0222479
0.0243312
0.0262334
0.0278691
0.0291731
0.0301331
0.0308105
0.031287
0.0316939
0.0318727
0.0321796
0.0312591
0.0362678
0.047449
0.141346
0.0484866
0.0902318
0.133123
0.160206
0.177371
0.189688
0.199544
0.207926
0.215033
0.220567
0.224236
0.22618
0.226738
0.2266
0.226022
0.224576
0.223663
0.220582
0.234535
0.195414
)
;

boundaryField
{
    movingWall
    {
        type            zeroGradient;
    }
    fixedWalls
    {
        type            zeroGradient;
    }
    frontAndBack
    {
        type            empty;
    }
}


// ************************************************************************* //
