/*--------------------------------*- C++ -*----------------------------------*\
| =========                 |                                                 |
| \\      /  F ield         | OpenFOAM: The Open Source CFD Toolbox           |
|  \\    /   O peration     | Version:  2312                                  |
|   \\  /    A nd           | Website:  www.openfoam.com                      |
|    \\/     M anipulation  |                                                 |
\*---------------------------------------------------------------------------*/
FoamFile
{
    version     2.0;
    format      ascii;
    arch        "LSB;label=32;scalar=64";
    class       volVectorField;
    location    "3.5";
    object      ddtU;
}
// * * * * * * * * * * * * * * * * * * * * * * * * * * * * * * * * * * * * * //

dimensions      [0 1 -2 0 0 0 0];

internalField   nonuniform List<vector> 
400
(
(-2.76438e-08 -3.30035e-07 0)
(4.46763e-09 7.20101e-08 0)
(-2.71159e-09 -1.67176e-08 0)
(-2.3781e-10 3.62827e-09 0)
(-6.61871e-10 -8.51076e-10 0)
(-4.2828e-10 1.38604e-10 0)
(-3.78741e-10 -7.60646e-11 0)
(-2.98472e-10 -2.30281e-11 0)
(-2.41851e-10 -2.75111e-11 0)
(-1.92579e-10 -2.10936e-11 0)
(-1.52212e-10 -1.82147e-11 0)
(-1.18217e-10 -1.53902e-11 0)
(-8.93952e-11 -1.32733e-11 0)
(-6.42153e-11 -1.18568e-11 0)
(-4.22773e-11 -9.97012e-12 0)
(-2.40252e-11 -7.4497e-12 0)
(-1.20348e-11 -4.44107e-12 0)
(-5.63993e-12 -3.44104e-12 0)
(2.17604e-12 -3.86598e-12 0)
(7.06102e-12 2.45572e-12 0)
(8.55961e-08 3.5434e-07 0)
(-1.6891e-08 -7.69442e-08 0)
(6.1315e-09 1.77423e-08 0)
(-2.05145e-09 -4.01273e-09 0)
(-1.15019e-10 7.01358e-10 0)
(-5.75473e-10 -3.30292e-10 0)
(-3.29514e-10 -7.47025e-11 0)
(-2.97229e-10 -1.02139e-10 0)
(-2.28528e-10 -7.42229e-11 0)
(-1.85496e-10 -6.3629e-11 0)
(-1.46216e-10 -5.35545e-11 0)
(-1.14131e-10 -4.57012e-11 0)
(-8.65086e-11 -3.95938e-11 0)
(-6.22613e-11 -3.5195e-11 0)
(-4.0945e-11 -2.9946e-11 0)
(-2.367e-11 -2.26122e-11 0)
(-1.20792e-11 -1.29108e-11 0)
(-4.66294e-12 -9.57963e-12 0)
(2.75335e-12 -1.24956e-11 0)
(6.66134e-12 7.66395e-12 0)
(-1.53995e-07 -4.0592e-07 0)
(2.90076e-08 9.02122e-08 0)
(-1.31865e-08 -2.0796e-08 0)
(1.83551e-09 4.39275e-09 0)
(-1.32865e-09 -1.28375e-09 0)
(-2.04681e-10 -6.52161e-12 0)
(-3.71525e-10 -2.38667e-10 0)
(-2.39408e-10 -1.41299e-10 0)
(-2.08278e-10 -1.2425e-10 0)
(-1.63225e-10 -1.00718e-10 0)
(-1.31184e-10 -8.59513e-11 0)
(-1.02496e-10 -7.33687e-11 0)
(-7.82263e-11 -6.38576e-11 0)
(-5.66658e-11 -5.69544e-11 0)
(-3.75255e-11 -4.84565e-11 0)
(-2.12275e-11 -3.66719e-11 0)
(-1.06137e-11 -2.12564e-11 0)
(-5.10703e-12 -1.58392e-11 0)
(2.08722e-12 -2.01423e-11 0)
(6.4837e-12 1.24788e-11 0)
(2.26167e-07 5.10124e-07 0)
(-4.38767e-08 -1.10557e-07 0)
(1.56515e-08 2.47763e-08 0)
(-4.48359e-09 -6.2978e-09 0)
(5.42988e-10 7.40308e-10 0)
(-6.80767e-10 -6.44092e-10 0)
(-1.83364e-10 -2.01407e-10 0)
(-2.28129e-10 -2.12856e-10 0)
(-1.58495e-10 -1.55617e-10 0)
(-1.36513e-10 -1.32189e-10 0)
(-1.08691e-10 -1.12326e-10 0)
(-8.67306e-11 -9.6737e-11 0)
(-6.668e-11 -8.47082e-11 0)
(-4.84945e-11 -7.59313e-11 0)
(-3.193e-11 -6.49143e-11 0)
(-1.86073e-11 -4.9318e-11 0)
(-9.68114e-12 -2.84557e-11 0)
(-3.06422e-12 -2.11123e-11 0)
(2.9754e-12 -2.73915e-11 0)
(5.68434e-12 1.70711e-11 0)
(-3.62716e-07 -7.33569e-07 0)
(6.68356e-08 1.4743e-07 0)
(-2.87132e-08 -3.74443e-08 0)
(5.08216e-09 6.17197e-09 0)
(-1.85416e-09 -2.28644e-09 0)
(2.79821e-10 -4.96723e-11 0)
(-2.43516e-10 -3.69561e-10 0)
(-9.8721e-11 -2.06969e-10 0)
(-1.23634e-10 -1.84237e-10 0)
(-9.74554e-11 -1.51308e-10 0)
(-8.38662e-11 -1.31823e-10 0)
(-6.73683e-11 -1.14472e-10 0)
(-5.28466e-11 -1.01211e-10 0)
(-3.89022e-11 -9.14417e-11 0)
(-2.6068e-11 -7.85103e-11 0)
(-1.46549e-11 -5.97362e-11 0)
(-7.06102e-12 -3.45659e-11 0)
(-3.28626e-12 -2.592e-11 0)
(2.08722e-12 -3.3471e-11 0)
(5.15143e-12 2.11741e-11 0)
(4.87543e-07 8.89618e-07 0)
(-8.94751e-08 -2.01425e-07 0)
(4.13927e-08 4.6662e-08 0)
(-6.68898e-09 -1.10741e-08 0)
(2.72022e-09 1.86933e-09 0)
(-6.42952e-10 -8.75016e-10 0)
(1.1533e-10 -1.75282e-10 0)
(-1.16152e-10 -2.47255e-10 0)
(-5.47562e-11 -1.82647e-10 0)
(-6.6569e-11 -1.62642e-10 0)
(-5.50004e-11 -1.42819e-10 0)
(-4.74287e-11 -1.26281e-10 0)
(-3.79474e-11 -1.12916e-10 0)
(-2.83329e-11 -1.02986e-10 0)
(-1.88294e-11 -8.90241e-11 0)
(-1.12799e-11 -6.80413e-11 0)
(-5.9508e-12 -3.9297e-11 0)
(-7.99361e-13 -2.9494e-11 0)
(3.15303e-12 -3.86283e-11 0)
(3.9968e-12 2.47623e-11 0)
(-5.39626e-07 -9.91744e-07 0)
(1.0737e-07 2.32531e-07 0)
(-4.73928e-08 -5.50618e-08 0)
(9.73057e-09 1.23429e-08 0)
(-3.26641e-09 -3.26165e-09 0)
(9.63718e-10 3.9401e-10 0)
(-2.11076e-10 -3.91953e-10 0)
(6.42153e-11 -1.71252e-10 0)
(-4.17222e-11 -1.88034e-10 0)
(-2.46025e-11 -1.60276e-10 0)
(-3.13971e-11 -1.47302e-10 0)
(-2.69784e-11 -1.32111e-10 0)
(-2.31815e-11 -1.19871e-10 0)
(-1.78746e-11 -1.10534e-10 0)
(-1.23235e-11 -9.61867e-11 0)
(-6.83897e-12 -7.37513e-11 0)
(-3.01981e-12 -4.26174e-11 0)
(-1.06581e-12 -3.23369e-11 0)
(2.04281e-12 -4.24792e-11 0)
(3.28626e-12 2.76744e-11 0)
(5.46916e-07 1.08566e-06 0)
(-1.06664e-07 -2.57127e-07 0)
(4.84628e-08 6.05919e-08 0)
(-8.98179e-09 -1.45013e-08 0)
(3.63691e-09 3.15395e-09 0)
(-7.94609e-10 -1.00418e-09 0)
(3.00115e-10 -1.08191e-11 0)
(-5.17364e-11 -2.23739e-10 0)
(2.85993e-11 -1.56417e-10 0)
(-7.41629e-12 -1.57593e-10 0)
(-5.35127e-12 -1.44604e-10 0)
(-9.4591e-12 -1.33177e-10 0)
(-9.12603e-12 -1.22441e-10 0)
(-7.63833e-12 -1.14272e-10 0)
(-5.08482e-12 -1.00196e-10 0)
(-3.64153e-12 -7.71804e-11 0)
(-2.06501e-12 -4.4513e-11 0)
(1.55431e-12 -3.3958e-11 0)
(2.9754e-12 -4.51522e-11 0)
(1.95399e-12 2.98693e-11 0)
(-5.47087e-07 -1.15907e-06 0)
(1.10841e-07 2.77108e-07 0)
(-4.88647e-08 -6.57195e-08 0)
(1.01332e-08 1.55365e-08 0)
(-3.44909e-09 -3.8704e-09 0)
(1.07181e-09 7.2203e-10 0)
(-1.72617e-10 -3.67897e-10 0)
(1.3558e-10 -1.04912e-10 0)
(1.3789e-11 -1.61003e-10 0)
(2.71783e-11 -1.421e-10 0)
(1.06137e-11 -1.39754e-10 0)
(7.08322e-12 -1.29854e-10 0)
(3.15303e-12 -1.2142e-10 0)
(1.42109e-12 -1.14591e-10 0)
(5.10703e-13 -1.01225e-10 0)
(3.33067e-13 -7.82193e-11 0)
(5.77316e-13 -4.50193e-11 0)
(9.76996e-13 -3.46786e-11 0)
(1.64313e-12 -4.66003e-11 0)
(1.11022e-12 3.1236e-11 0)
(5.14985e-07 1.23149e-06 0)
(-1.01741e-07 -2.94882e-07 0)
(4.5813e-08 6.98663e-08 0)
(-8.74183e-09 -1.67976e-08 0)
(3.50924e-09 3.88425e-09 0)
(-7.60081e-10 -1.06787e-09 0)
(3.35243e-10 1.01085e-10 0)
(-9.05942e-12 -1.8453e-10 0)
(7.20313e-11 -1.19065e-10 0)
(3.25073e-11 -1.35565e-10 0)
(2.96652e-11 -1.29711e-10 0)
(1.95177e-11 -1.24188e-10 0)
(1.38556e-11 -1.17303e-10 0)
(9.4591e-12 -1.12005e-10 0)
(6.35048e-12 -9.96177e-11 0)
(2.75335e-12 -7.72563e-11 0)
(1.06581e-12 -4.43147e-11 0)
(3.28626e-12 -3.44058e-11 0)
(2.4647e-12 -4.68522e-11 0)
(-2.44249e-13 3.17141e-11 0)
(-4.93669e-07 -1.29256e-06 0)
(1.00273e-07 3.10842e-07 0)
(-4.42952e-08 -7.37139e-08 0)
(9.16986e-09 1.76701e-08 0)
(-3.16753e-09 -4.29813e-09 0)
(9.92895e-10 9.18069e-10 0)
(-1.3507e-10 -3.452e-10 0)
(1.56986e-10 -5.23865e-11 0)
(4.62297e-11 -1.29597e-10 0)
(5.75096e-11 -1.16205e-10 0)
(3.87246e-11 -1.21071e-10 0)
(3.12417e-11 -1.15732e-10 0)
(2.26485e-11 -1.11006e-10 0)
(1.61204e-11 -1.06959e-10 0)
(1.04139e-11 -9.57647e-11 0)
(5.75096e-12 -7.44818e-11 0)
(3.30846e-12 -4.24597e-11 0)
(2.37588e-12 -3.32472e-11 0)
(8.43769e-13 -4.61457e-11 0)
(-1.02141e-12 3.12778e-11 0)
(4.458e-07 1.35242e-06 0)
(-8.86239e-08 -3.25201e-07 0)
(3.9715e-08 7.71081e-08 0)
(-7.70433e-09 -1.85785e-08 0)
(3.0604e-09 4.37793e-09 0)
(-6.60649e-10 -1.13031e-09 0)
(3.1628e-10 1.72403e-10 0)
(1.8785e-11 -1.54397e-10 0)
(9.23261e-11 -8.61502e-11 0)
(5.67324e-11 -1.10253e-10 0)
(5.1692e-11 -1.08288e-10 0)
(3.91243e-11 -1.06602e-10 0)
(3.01759e-11 -1.02715e-10 0)
(2.19602e-11 -9.99731e-11 0)
(1.48326e-11 -8.99372e-11 0)
(7.4607e-12 -7.01075e-11 0)
(3.24185e-12 -3.96429e-11 0)
(4.06342e-12 -3.13161e-11 0)
(1.55431e-12 -4.44107e-11 0)
(-2.26485e-12 2.98791e-11 0)
(-4.12488e-07 -1.40195e-06 0)
(8.39378e-08 3.37717e-07 0)
(-3.70908e-08 -8.01327e-08 0)
(7.67537e-09 1.92684e-08 0)
(-2.66216e-09 -4.6588e-09 0)
(8.4639e-10 1.04468e-09 0)
(-9.36584e-11 -3.37131e-10 0)
(1.57074e-10 -1.60681e-11 0)
(6.55476e-11 -1.03135e-10 0)
(7.45626e-11 -9.05079e-11 0)
(5.64437e-11 -9.84099e-11 0)
(4.70068e-11 -9.56286e-11 0)
(3.60156e-11 -9.32679e-11 0)
(2.65343e-11 -9.13132e-11 0)
(1.75415e-11 -8.25682e-11 0)
(9.59233e-12 -6.43905e-11 0)
(5.08482e-12 -3.58577e-11 0)
(3.37508e-12 -2.862e-11 0)
(1.9984e-13 -4.20297e-11 0)
(-2.95319e-12 2.77317e-11 0)
(3.56726e-07 1.44955e-06 0)
(-7.1138e-08 -3.49182e-07 0)
(3.18253e-08 8.27938e-08 0)
(-6.20626e-09 -1.99911e-08 0)
(2.47158e-09 4.73286e-09 0)
(-5.145e-10 -1.19399e-09 0)
(2.79021e-10 2.16576e-10 0)
(4.17666e-11 -1.34627e-10 0)
(1.01696e-10 -5.99232e-11 0)
(7.17648e-11 -8.59833e-11 0)
(6.54143e-11 -8.46969e-11 0)
(5.20028e-11 -8.46739e-11 0)
(4.10116e-11 -8.2517e-11 0)
(3.05089e-11 -8.13721e-11 0)
(2.07168e-11 -7.3777e-11 0)
(1.06137e-11 -5.74683e-11 0)
(4.86278e-12 -3.16088e-11 0)
(4.996e-12 -2.55311e-11 0)
(9.54792e-13 -3.85111e-11 0)
(-4.01901e-12 2.47971e-11 0)
(-3.14464e-07 -1.48712e-06 0)
(6.39618e-08 3.5838e-07 0)
(-2.82711e-08 -8.50768e-08 0)
(5.86131e-09 2.04625e-08 0)
(-2.01124e-09 -4.94623e-09 0)
(6.72351e-10 1.12754e-09 0)
(-4.24105e-11 -3.37244e-10 0)
(1.50102e-10 9.03875e-12 0)
(7.98694e-11 -8.13982e-11 0)
(8.4821e-11 -6.62604e-11 0)
(6.80789e-11 -7.43587e-11 0)
(5.71543e-11 -7.22401e-11 0)
(4.4853e-11 -7.11123e-11 0)
(3.35509e-11 -7.02693e-11 0)
(2.24931e-11 -6.39188e-11 0)
(1.22347e-11 -4.97619e-11 0)
(6.37268e-12 -2.6732e-11 0)
(4.86278e-12 -2.18116e-11 0)
(2.22045e-13 -3.44975e-11 0)
(-4.59632e-12 2.14687e-11 0)
(2.56813e-07 1.52224e-06 0)
(-5.12493e-08 -3.66796e-07 0)
(2.29564e-08 8.69313e-08 0)
(-4.45235e-09 -2.10127e-08 0)
(1.81721e-09 4.97104e-09 0)
(-3.3562e-10 -1.24463e-09 0)
(2.37987e-10 2.44146e-10 0)
(6.62137e-11 -1.19702e-10 0)
(1.07159e-10 -3.73699e-11 0)
(8.26228e-11 -6.25643e-11 0)
(7.42073e-11 -5.98023e-11 0)
(6.04405e-11 -6.03354e-11 0)
(4.82281e-11 -5.87674e-11 0)
(3.61933e-11 -5.85238e-11 0)
(2.4758e-11 -5.31242e-11 0)
(1.29896e-11 -4.12799e-11 0)
(6.19504e-12 -2.17896e-11 0)
(6.03961e-12 -1.8241e-11 0)
(9.10383e-13 -2.94774e-11 0)
(-5.35127e-12 1.76447e-11 0)
(-2.12454e-07 -1.54788e-06 0)
(4.33258e-08 3.72974e-07 0)
(-1.90689e-08 -8.85846e-08 0)
(4.01479e-09 2.12863e-08 0)
(-1.31659e-09 -5.15284e-09 0)
(5.02887e-10 1.18255e-09 0)
(1.55209e-11 -3.36503e-10 0)
(1.43663e-10 2.96052e-11 0)
(9.27702e-11 -6.08612e-11 0)
(9.21041e-11 -4.22375e-11 0)
(7.60725e-11 -4.91285e-11 0)
(6.37712e-11 -4.70253e-11 0)
(5.06706e-11 -4.64535e-11 0)
(3.82361e-11 -4.61212e-11 0)
(2.58904e-11 -4.20272e-11 0)
(1.39888e-11 -3.25619e-11 0)
(7.32747e-12 -1.67393e-11 0)
(5.90639e-12 -1.44058e-11 0)
(2.88658e-13 -2.44117e-11 0)
(-5.61773e-12 1.35577e-11 0)
(1.48813e-07 1.57086e-06 0)
(-2.93707e-08 -3.78527e-07 0)
(1.33502e-08 8.96616e-08 0)
(-2.47791e-09 -2.17043e-08 0)
(1.11786e-09 5.12832e-09 0)
(-1.26921e-10 -1.2788e-09 0)
(1.96465e-10 2.6503e-10 0)
(9.34364e-11 -1.05439e-10 0)
(1.11111e-10 -1.68709e-11 0)
(9.11715e-11 -3.95629e-11 0)
(8.00693e-11 -3.53208e-11 0)
(6.58584e-11 -3.54984e-11 0)
(5.27578e-11 -3.44519e-11 0)
(3.98348e-11 -3.42441e-11 0)
(2.72227e-11 -3.10723e-11 0)
(1.44995e-11 -2.40487e-11 0)
(6.9722e-12 -1.24064e-11 0)
(5.90639e-12 -1.08782e-11 0)
(4.44089e-14 -1.84901e-11 0)
(-6.19504e-12 8.94364e-12 0)
(-1.10413e-07 -1.5841e-06 0)
(2.27605e-08 3.81085e-07 0)
(-9.71532e-09 -9.04998e-08 0)
(2.17057e-09 2.16927e-08 0)
(-5.76428e-10 -5.2361e-09 0)
(3.34976e-10 1.21569e-09 0)
(8.15792e-11 -3.19053e-10 0)
(1.37312e-10 5.39676e-11 0)
(1.04894e-10 -3.44154e-11 0)
(9.70779e-11 -1.39613e-11 0)
(8.15348e-11 -1.97249e-11 0)
(6.79456e-11 -1.80686e-11 0)
(5.43565e-11 -1.80007e-11 0)
(4.13003e-11 -1.81391e-11 0)
(2.80886e-11 -1.65645e-11 0)
(1.48992e-11 -1.26325e-11 0)
(8.19345e-12 -4.48998e-12 0)
(8.26006e-12 -3.44431e-12 0)
(1.33227e-12 -1.11068e-11 0)
(-6.41709e-12 4.16753e-12 0)
(5.24848e-08 1.59704e-06 0)
(-1.15134e-08 -3.87604e-07 0)
(5.40696e-09 9.18847e-08 0)
(-9.5961e-10 -2.23518e-08 0)
(6.06581e-10 5.34279e-09 0)
(3.97904e-11 -1.29632e-09 0)
(1.74527e-10 3.10395e-10 0)
(1.1422e-10 -7.79892e-11 0)
(1.13642e-10 1.61867e-11 0)
(9.57012e-11 -7.39927e-12 0)
(8.2423e-11 -2.19224e-12 0)
(6.78568e-11 -3.68594e-12 0)
(5.45786e-11 -3.39594e-12 0)
(4.16112e-11 -3.87634e-12 0)
(2.83773e-11 -3.56322e-12 0)
(1.52545e-11 -2.36551e-12 0)
(1.00364e-11 7.58322e-13 0)
(1.20348e-11 7.87584e-13 0)
(4.19664e-12 -3.31532e-12 0)
(-6.43929e-12 8.87129e-13 0)
)
;

boundaryField
{
    movingWall
    {
        type            calculated;
        value           uniform (0 0 0);
    }
    fixedWalls
    {
        type            calculated;
        value           uniform (0 0 0);
    }
    frontAndBack
    {
        type            empty;
    }
}


// ************************************************************************* //
