/*--------------------------------*- C++ -*----------------------------------*\
| =========                 |                                                 |
| \\      /  F ield         | OpenFOAM: The Open Source CFD Toolbox           |
|  \\    /   O peration     | Version:  2312                                  |
|   \\  /    A nd           | Website:  www.openfoam.com                      |
|    \\/     M anipulation  |                                                 |
\*---------------------------------------------------------------------------*/
FoamFile
{
    version     2.0;
    format      ascii;
    arch        "LSB;label=32;scalar=64";
    class       volVectorField;
    location    "3.5";
    object      diffU;
}
// * * * * * * * * * * * * * * * * * * * * * * * * * * * * * * * * * * * * * //

dimensions      [0 1 -1 0 0 0 0];

internalField   nonuniform List<vector> 
400
(
(0 0 0)
(-9.36082e-09 -2.76659e-07 0)
(-7.40835e-09 -2.13221e-07 0)
(-8.10633e-09 -2.28137e-07 0)
(-7.97742e-09 -2.24726e-07 0)
(-8.02052e-09 -2.25517e-07 0)
(-8.00961e-09 -2.25334e-07 0)
(-8.01172e-09 -2.25376e-07 0)
(-8.01073e-09 -2.25366e-07 0)
(-8.01077e-09 -2.25368e-07 0)
(-8.01066e-09 -2.25368e-07 0)
(-8.01064e-09 -2.25368e-07 0)
(-8.01062e-09 -2.25368e-07 0)
(-8.01059e-09 -2.25368e-07 0)
(-8.01054e-09 -2.25368e-07 0)
(-8.01047e-09 -2.25368e-07 0)
(-8.0104e-09 -2.25368e-07 0)
(-8.01035e-09 -2.25368e-07 0)
(-8.01032e-09 -2.25368e-07 0)
(-8.01025e-09 -2.25368e-07 0)
(-3.46491e-08 -4.55886e-07 0)
(-2.96901e-09 -1.72958e-07 0)
(-1.02636e-08 -2.37757e-07 0)
(-7.59501e-09 -2.22551e-07 0)
(-8.16717e-09 -2.2602e-07 0)
(-7.97184e-09 -2.25218e-07 0)
(-8.02174e-09 -2.25402e-07 0)
(-8.00765e-09 -2.2536e-07 0)
(-8.01153e-09 -2.2537e-07 0)
(-8.01037e-09 -2.25367e-07 0)
(-8.01065e-09 -2.25368e-07 0)
(-8.01056e-09 -2.25368e-07 0)
(-8.01058e-09 -2.25368e-07 0)
(-8.01056e-09 -2.25368e-07 0)
(-8.01052e-09 -2.25368e-07 0)
(-8.01046e-09 -2.25368e-07 0)
(-8.01039e-09 -2.25368e-07 0)
(-8.01035e-09 -2.25368e-07 0)
(-8.01032e-09 -2.25368e-07 0)
(-8.01025e-09 -2.25368e-07 0)
(3.65507e-08 1.55191e-08 0)
(-1.64901e-08 -2.8019e-07 0)
(-4.2504e-09 -2.12392e-07 0)
(-8.71935e-09 -2.28326e-07 0)
(-7.75481e-09 -2.24686e-07 0)
(-8.07879e-09 -2.25529e-07 0)
(-7.99348e-09 -2.25333e-07 0)
(-8.016e-09 -2.25377e-07 0)
(-8.00906e-09 -2.25366e-07 0)
(-8.01081e-09 -2.25368e-07 0)
(-8.01033e-09 -2.25368e-07 0)
(-8.0105e-09 -2.25368e-07 0)
(-8.01049e-09 -2.25368e-07 0)
(-8.0105e-09 -2.25368e-07 0)
(-8.01048e-09 -2.25368e-07 0)
(-8.01043e-09 -2.25368e-07 0)
(-8.01037e-09 -2.25368e-07 0)
(-8.01033e-09 -2.25368e-07 0)
(-8.01032e-09 -2.25368e-07 0)
(-8.01025e-09 -2.25368e-07 0)
(-7.03574e-08 -4.8086e-07 0)
(3.8284e-09 -1.67049e-07 0)
(-1.33389e-08 -2.39218e-07 0)
(-7.03419e-09 -2.22231e-07 0)
(-8.37713e-09 -2.26107e-07 0)
(-7.91604e-09 -2.25201e-07 0)
(-8.03446e-09 -2.25408e-07 0)
(-8.00217e-09 -2.25359e-07 0)
(-8.01199e-09 -2.2537e-07 0)
(-8.00961e-09 -2.25367e-07 0)
(-8.01043e-09 -2.25368e-07 0)
(-8.01031e-09 -2.25368e-07 0)
(-8.01042e-09 -2.25368e-07 0)
(-8.01043e-09 -2.25368e-07 0)
(-8.01042e-09 -2.25368e-07 0)
(-8.01039e-09 -2.25368e-07 0)
(-8.01035e-09 -2.25368e-07 0)
(-8.01032e-09 -2.25368e-07 0)
(-8.0103e-09 -2.25368e-07 0)
(-8.01025e-09 -2.25368e-07 0)
(6.94352e-08 4.56006e-08 0)
(-2.29359e-08 -2.88081e-07 0)
(-1.24e-09 -2.10536e-07 0)
(-9.25043e-09 -2.28788e-07 0)
(-7.52897e-09 -2.24573e-07 0)
(-8.12813e-09 -2.25554e-07 0)
(-7.9765e-09 -2.25327e-07 0)
(-8.01946e-09 -2.25378e-07 0)
(-8.00718e-09 -2.25366e-07 0)
(-8.01066e-09 -2.25368e-07 0)
(-8.00989e-09 -2.25367e-07 0)
(-8.01027e-09 -2.25368e-07 0)
(-8.01028e-09 -2.25368e-07 0)
(-8.01035e-09 -2.25368e-07 0)
(-8.01036e-09 -2.25368e-07 0)
(-8.01034e-09 -2.25368e-07 0)
(-8.01031e-09 -2.25368e-07 0)
(-8.0103e-09 -2.25368e-07 0)
(-8.01029e-09 -2.25368e-07 0)
(-8.01025e-09 -2.25368e-07 0)
(-9.45304e-08 -5.08975e-07 0)
(8.94654e-09 -1.58926e-07 0)
(-1.56559e-08 -2.41094e-07 0)
(-6.56013e-09 -2.21696e-07 0)
(-8.5588e-09 -2.26232e-07 0)
(-7.86694e-09 -2.25167e-07 0)
(-8.04673e-09 -2.25415e-07 0)
(-7.997e-09 -2.25357e-07 0)
(-8.01243e-09 -2.2537e-07 0)
(-8.00883e-09 -2.25367e-07 0)
(-8.01018e-09 -2.25367e-07 0)
(-8.01002e-09 -2.25367e-07 0)
(-8.01022e-09 -2.25367e-07 0)
(-8.01026e-09 -2.25368e-07 0)
(-8.01029e-09 -2.25368e-07 0)
(-8.01029e-09 -2.25368e-07 0)
(-8.01029e-09 -2.25368e-07 0)
(-8.01029e-09 -2.25368e-07 0)
(-8.01028e-09 -2.25368e-07 0)
(-8.01024e-09 -2.25368e-07 0)
(8.30092e-08 7.00565e-08 0)
(-2.59368e-08 -2.95104e-07 0)
(8.61432e-11 -2.08851e-07 0)
(-9.55367e-09 -2.29261e-07 0)
(-7.41245e-09 -2.24448e-07 0)
(-8.16015e-09 -2.25584e-07 0)
(-7.96611e-09 -2.25316e-07 0)
(-8.02212e-09 -2.25379e-07 0)
(-8.0059e-09 -2.25364e-07 0)
(-8.01058e-09 -2.25368e-07 0)
(-8.00953e-09 -2.25367e-07 0)
(-8.01006e-09 -2.25367e-07 0)
(-8.01008e-09 -2.25367e-07 0)
(-8.01019e-09 -2.25368e-07 0)
(-8.01023e-09 -2.25368e-07 0)
(-8.01025e-09 -2.25368e-07 0)
(-8.01025e-09 -2.25368e-07 0)
(-8.01026e-09 -2.25368e-07 0)
(-8.01027e-09 -2.25368e-07 0)
(-8.01024e-09 -2.25368e-07 0)
(-9.9354e-08 -5.32231e-07 0)
(9.99114e-09 -1.52569e-07 0)
(-1.61277e-08 -2.42613e-07 0)
(-6.44998e-09 -2.21278e-07 0)
(-8.60367e-09 -2.26336e-07 0)
(-7.85398e-09 -2.25137e-07 0)
(-8.05072e-09 -2.25421e-07 0)
(-7.99542e-09 -2.25354e-07 0)
(-8.01263e-09 -2.2537e-07 0)
(-8.00851e-09 -2.25366e-07 0)
(-8.01003e-09 -2.25367e-07 0)
(-8.00984e-09 -2.25367e-07 0)
(-8.01006e-09 -2.25367e-07 0)
(-8.01012e-09 -2.25367e-07 0)
(-8.01018e-09 -2.25368e-07 0)
(-8.0102e-09 -2.25368e-07 0)
(-8.01024e-09 -2.25368e-07 0)
(-8.01025e-09 -2.25368e-07 0)
(-8.01025e-09 -2.25368e-07 0)
(-8.01024e-09 -2.25368e-07 0)
(8.21083e-08 9.25994e-08 0)
(-2.57973e-08 -3.01029e-07 0)
(2.02894e-11 -2.07431e-07 0)
(-9.5512e-09 -2.29632e-07 0)
(-7.41399e-09 -2.24353e-07 0)
(-8.161e-09 -2.25607e-07 0)
(-7.96598e-09 -2.25309e-07 0)
(-8.02232e-09 -2.2538e-07 0)
(-8.00582e-09 -2.25363e-07 0)
(-8.01054e-09 -2.25367e-07 0)
(-8.00943e-09 -2.25367e-07 0)
(-8.00995e-09 -2.25367e-07 0)
(-8.00997e-09 -2.25367e-07 0)
(-8.01008e-09 -2.25367e-07 0)
(-8.01013e-09 -2.25368e-07 0)
(-8.01017e-09 -2.25368e-07 0)
(-8.0102e-09 -2.25368e-07 0)
(-8.01023e-09 -2.25368e-07 0)
(-8.01024e-09 -2.25368e-07 0)
(-8.01023e-09 -2.25368e-07 0)
(-9.43319e-08 -5.54206e-07 0)
(8.98324e-09 -1.46922e-07 0)
(-1.56852e-08 -2.43958e-07 0)
(-6.53707e-09 -2.2093e-07 0)
(-8.57325e-09 -2.2642e-07 0)
(-7.8627e-09 -2.25115e-07 0)
(-8.04905e-09 -2.25426e-07 0)
(-7.99634e-09 -2.25352e-07 0)
(-8.01261e-09 -2.2537e-07 0)
(-8.00861e-09 -2.25366e-07 0)
(-8.01002e-09 -2.25367e-07 0)
(-8.0098e-09 -2.25367e-07 0)
(-8.00999e-09 -2.25367e-07 0)
(-8.01004e-09 -2.25367e-07 0)
(-8.0101e-09 -2.25368e-07 0)
(-8.01014e-09 -2.25368e-07 0)
(-8.01019e-09 -2.25368e-07 0)
(-8.01022e-09 -2.25368e-07 0)
(-8.01022e-09 -2.25368e-07 0)
(-8.01023e-09 -2.25368e-07 0)
(7.39745e-08 1.13796e-07 0)
(-2.417e-08 -3.06405e-07 0)
(-7.08777e-10 -2.06153e-07 0)
(-9.41117e-09 -2.29956e-07 0)
(-7.46889e-09 -2.24272e-07 0)
(-8.14799e-09 -2.25626e-07 0)
(-7.97039e-09 -2.25303e-07 0)
(-8.02149e-09 -2.25381e-07 0)
(-8.00638e-09 -2.25362e-07 0)
(-8.0106e-09 -2.25367e-07 0)
(-8.00953e-09 -2.25366e-07 0)
(-8.00996e-09 -2.25367e-07 0)
(-8.00994e-09 -2.25367e-07 0)
(-8.01003e-09 -2.25367e-07 0)
(-8.01007e-09 -2.25368e-07 0)
(-8.01012e-09 -2.25368e-07 0)
(-8.01016e-09 -2.25368e-07 0)
(-8.0102e-09 -2.25368e-07 0)
(-8.01022e-09 -2.25368e-07 0)
(-8.01023e-09 -2.25368e-07 0)
(-8.37222e-08 -5.74403e-07 0)
(6.86556e-09 -1.41844e-07 0)
(-1.47385e-08 -2.45163e-07 0)
(-6.72214e-09 -2.20626e-07 0)
(-8.50412e-09 -2.26493e-07 0)
(-7.88162e-09 -2.25096e-07 0)
(-8.04466e-09 -2.2543e-07 0)
(-7.99841e-09 -2.2535e-07 0)
(-8.01255e-09 -2.25369e-07 0)
(-8.00895e-09 -2.25365e-07 0)
(-8.01012e-09 -2.25367e-07 0)
(-8.00987e-09 -2.25367e-07 0)
(-8.01001e-09 -2.25367e-07 0)
(-8.01003e-09 -2.25367e-07 0)
(-8.01007e-09 -2.25368e-07 0)
(-8.01011e-09 -2.25368e-07 0)
(-8.01017e-09 -2.25368e-07 0)
(-8.0102e-09 -2.25368e-07 0)
(-8.0102e-09 -2.25368e-07 0)
(-8.01023e-09 -2.25368e-07 0)
(6.12752e-08 1.32698e-07 0)
(-2.16442e-08 -3.11124e-07 0)
(-1.84519e-09 -2.05034e-07 0)
(-9.19242e-09 -2.30234e-07 0)
(-7.55447e-09 -2.24204e-07 0)
(-8.12709e-09 -2.25642e-07 0)
(-7.97719e-09 -2.25299e-07 0)
(-8.02009e-09 -2.25381e-07 0)
(-8.00728e-09 -2.25362e-07 0)
(-8.01074e-09 -2.25367e-07 0)
(-8.00976e-09 -2.25366e-07 0)
(-8.01007e-09 -2.25367e-07 0)
(-8.01001e-09 -2.25367e-07 0)
(-8.01005e-09 -2.25367e-07 0)
(-8.01007e-09 -2.25367e-07 0)
(-8.01011e-09 -2.25368e-07 0)
(-8.01015e-09 -2.25368e-07 0)
(-8.01019e-09 -2.25368e-07 0)
(-8.0102e-09 -2.25368e-07 0)
(-8.01022e-09 -2.25368e-07 0)
(-6.94001e-08 -5.91781e-07 0)
(4.028e-09 -1.3753e-07 0)
(-1.34623e-08 -2.46186e-07 0)
(-6.96918e-09 -2.20372e-07 0)
(-8.4105e-09 -2.26554e-07 0)
(-7.90685e-09 -2.25081e-07 0)
(-8.03858e-09 -2.25433e-07 0)
(-8.00118e-09 -2.25349e-07 0)
(-8.01245e-09 -2.2537e-07 0)
(-8.00946e-09 -2.25365e-07 0)
(-8.01031e-09 -2.25367e-07 0)
(-8.01004e-09 -2.25367e-07 0)
(-8.0101e-09 -2.25367e-07 0)
(-8.01007e-09 -2.25367e-07 0)
(-8.01009e-09 -2.25367e-07 0)
(-8.01011e-09 -2.25368e-07 0)
(-8.01016e-09 -2.25368e-07 0)
(-8.01019e-09 -2.25368e-07 0)
(-8.01019e-09 -2.25368e-07 0)
(-8.01022e-09 -2.25368e-07 0)
(4.54927e-08 1.48314e-07 0)
(-1.85173e-08 -3.14977e-07 0)
(-3.25424e-09 -2.0412e-07 0)
(-8.92152e-09 -2.30459e-07 0)
(-7.66017e-09 -2.2415e-07 0)
(-8.10102e-09 -2.25655e-07 0)
(-7.98554e-09 -2.25295e-07 0)
(-8.01833e-09 -2.25382e-07 0)
(-8.0084e-09 -2.25362e-07 0)
(-8.01094e-09 -2.25367e-07 0)
(-8.01009e-09 -2.25366e-07 0)
(-8.01024e-09 -2.25367e-07 0)
(-8.01013e-09 -2.25367e-07 0)
(-8.01012e-09 -2.25367e-07 0)
(-8.01011e-09 -2.25367e-07 0)
(-8.01012e-09 -2.25368e-07 0)
(-8.01016e-09 -2.25368e-07 0)
(-8.01018e-09 -2.25368e-07 0)
(-8.01019e-09 -2.25368e-07 0)
(-8.01022e-09 -2.25368e-07 0)
(-5.27459e-08 -6.05447e-07 0)
(7.45472e-10 -1.34184e-07 0)
(-1.198e-08 -2.46978e-07 0)
(-7.25408e-09 -2.20178e-07 0)
(-8.3019e-09 -2.266e-07 0)
(-7.93601e-09 -2.25069e-07 0)
(-8.03157e-09 -2.25436e-07 0)
(-8.00438e-09 -2.25349e-07 0)
(-8.01238e-09 -2.2537e-07 0)
(-8.01007e-09 -2.25365e-07 0)
(-8.01056e-09 -2.25367e-07 0)
(-8.01027e-09 -2.25367e-07 0)
(-8.01023e-09 -2.25367e-07 0)
(-8.01016e-09 -2.25367e-07 0)
(-8.01014e-09 -2.25367e-07 0)
(-8.01014e-09 -2.25368e-07 0)
(-8.01017e-09 -2.25368e-07 0)
(-8.01019e-09 -2.25368e-07 0)
(-8.01018e-09 -2.25368e-07 0)
(-8.01022e-09 -2.25368e-07 0)
(2.81764e-08 1.59888e-07 0)
(-1.51132e-08 -3.17804e-07 0)
(-4.79548e-09 -2.03449e-07 0)
(-8.62823e-09 -2.30622e-07 0)
(-7.77536e-09 -2.2411e-07 0)
(-8.07294e-09 -2.25664e-07 0)
(-7.9947e-09 -2.25293e-07 0)
(-8.01653e-09 -2.25383e-07 0)
(-8.00965e-09 -2.25362e-07 0)
(-8.01118e-09 -2.25367e-07 0)
(-8.01046e-09 -2.25366e-07 0)
(-8.01045e-09 -2.25367e-07 0)
(-8.01028e-09 -2.25367e-07 0)
(-8.01021e-09 -2.25367e-07 0)
(-8.01016e-09 -2.25367e-07 0)
(-8.01015e-09 -2.25368e-07 0)
(-8.01018e-09 -2.25368e-07 0)
(-8.01019e-09 -2.25368e-07 0)
(-8.01018e-09 -2.25368e-07 0)
(-8.01022e-09 -2.25368e-07 0)
(-3.46668e-08 -6.14811e-07 0)
(-2.81665e-09 -1.31913e-07 0)
(-1.03708e-08 -2.47511e-07 0)
(-7.56395e-09 -2.20045e-07 0)
(-8.18477e-09 -2.26631e-07 0)
(-7.96809e-09 -2.25062e-07 0)
(-8.02423e-09 -2.25438e-07 0)
(-8.00791e-09 -2.25349e-07 0)
(-8.0123e-09 -2.25371e-07 0)
(-8.01069e-09 -2.25366e-07 0)
(-8.01079e-09 -2.25367e-07 0)
(-8.01048e-09 -2.25367e-07 0)
(-8.01035e-09 -2.25367e-07 0)
(-8.01024e-09 -2.25367e-07 0)
(-8.01018e-09 -2.25367e-07 0)
(-8.01015e-09 -2.25368e-07 0)
(-8.01017e-09 -2.25368e-07 0)
(-8.01018e-09 -2.25368e-07 0)
(-8.01017e-09 -2.25368e-07 0)
(-8.01022e-09 -2.25368e-07 0)
(1.07112e-08 1.66935e-07 0)
(-1.17205e-08 -3.19483e-07 0)
(-6.36448e-09 -2.03055e-07 0)
(-8.33553e-09 -2.30711e-07 0)
(-7.8956e-09 -2.2409e-07 0)
(-8.04466e-09 -2.25669e-07 0)
(-8.00453e-09 -2.25293e-07 0)
(-8.0147e-09 -2.25384e-07 0)
(-8.01093e-09 -2.25363e-07 0)
(-8.01136e-09 -2.25368e-07 0)
(-8.01078e-09 -2.25367e-07 0)
(-8.01061e-09 -2.25367e-07 0)
(-8.01041e-09 -2.25367e-07 0)
(-8.01029e-09 -2.25367e-07 0)
(-8.01021e-09 -2.25368e-07 0)
(-8.01018e-09 -2.25368e-07 0)
(-8.0102e-09 -2.25368e-07 0)
(-8.01019e-09 -2.25368e-07 0)
(-8.01017e-09 -2.25368e-07 0)
(-8.01021e-09 -2.25368e-07 0)
(-1.67808e-08 -6.19947e-07 0)
(-6.02058e-09 -1.30212e-07 0)
(-8.91802e-09 -2.47929e-07 0)
(-7.81386e-09 -2.19925e-07 0)
(-8.09114e-09 -2.26668e-07 0)
(-7.99377e-09 -2.25055e-07 0)
(-8.01931e-09 -2.25442e-07 0)
(-8.01054e-09 -2.25349e-07 0)
(-8.01228e-09 -2.25372e-07 0)
(-8.01114e-09 -2.25366e-07 0)
(-8.01098e-09 -2.25368e-07 0)
(-8.01066e-09 -2.25367e-07 0)
(-8.01048e-09 -2.25368e-07 0)
(-8.01034e-09 -2.25368e-07 0)
(-8.01026e-09 -2.25368e-07 0)
(-8.01023e-09 -2.25368e-07 0)
(-8.01024e-09 -2.25368e-07 0)
(-8.01022e-09 -2.25368e-07 0)
(-8.01016e-09 -2.25368e-07 0)
(-8.01021e-09 -2.25368e-07 0)
)
;

boundaryField
{
    movingWall
    {
        type            calculated;
        value           uniform (-8.01023e-09 -2.25368e-07 0);
    }
    fixedWalls
    {
        type            calculated;
        value           uniform (-8.01023e-09 -2.25368e-07 0);
    }
    frontAndBack
    {
        type            empty;
    }
}


// ************************************************************************* //
