/*--------------------------------*- C++ -*----------------------------------*\
| =========                 |                                                 |
| \\      /  F ield         | OpenFOAM: The Open Source CFD Toolbox           |
|  \\    /   O peration     | Version:  2312                                  |
|   \\  /    A nd           | Website:  www.openfoam.com                      |
|    \\/     M anipulation  |                                                 |
\*---------------------------------------------------------------------------*/
FoamFile
{
    version     2.0;
    format      ascii;
    arch        "LSB;label=32;scalar=64";
    class       volScalarField;
    location    "3.5";
    object      divPhi;
}
// * * * * * * * * * * * * * * * * * * * * * * * * * * * * * * * * * * * * * //

dimensions      [0 0 -1 0 0 0 0];

internalField   nonuniform List<scalar> 
400
(
4.18502e-11
1.20959e-12
1.50213e-12
1.37598e-12
1.1209e-12
9.26199e-13
7.30229e-13
6.53486e-13
5.52605e-13
4.99154e-13
4.47902e-13
4.19144e-13
3.89354e-13
3.49463e-13
3.61687e-13
3.17547e-13
2.72671e-13
2.56148e-13
4.27793e-13
1.35525e-13
1.84314e-12
9.8475e-13
1.2092e-12
1.11984e-12
9.97535e-13
8.40562e-13
6.92526e-13
6.30629e-13
5.46572e-13
5.20429e-13
4.4673e-13
4.28701e-13
4.13509e-13
3.4928e-13
3.58349e-13
3.09813e-13
3.20325e-13
3.1601e-13
2.24473e-13
2.1684e-13
-1.65341e-12
2.20094e-13
6.26472e-13
7.79296e-13
7.05601e-13
6.50682e-13
5.7324e-13
5.24923e-13
4.82665e-13
4.76067e-13
3.90119e-13
3.61571e-13
3.70358e-13
3.31882e-13
3.41897e-13
3.14993e-13
2.62918e-13
2.16976e-13
4.60224e-13
8.13152e-14
6.23416e-13
1.24667e-13
3.2104e-13
4.76776e-13
4.56087e-13
4.63731e-13
4.63385e-13
4.45636e-13
3.72523e-13
3.31553e-13
3.55804e-13
3.34568e-13
3.03045e-13
2.90112e-13
2.59111e-13
2.55828e-13
2.30036e-13
2.96689e-13
1.10403e-13
2.1684e-13
-1.70762e-12
-1.95804e-13
6.12966e-14
2.07432e-13
2.54992e-13
3.15327e-13
2.80978e-13
3.04781e-13
2.8415e-13
2.90611e-13
2.81758e-13
2.53724e-13
2.44479e-13
2.30841e-13
2.36976e-13
2.22348e-13
1.60969e-13
1.20135e-13
4.30716e-13
2.71051e-14
4.87891e-13
-1.09018e-13
-8.67049e-15
2.02055e-14
1.42591e-13
1.46089e-13
1.76996e-13
1.8529e-13
2.15313e-13
1.71932e-13
1.91871e-13
1.75858e-13
1.63318e-13
1.90451e-13
1.51427e-13
1.67942e-13
1.43489e-13
2.41104e-13
-3.04862e-14
1.6263e-13
-1.43657e-12
-2.98954e-13
-1.72014e-13
-6.17841e-14
-1.94762e-14
4.95625e-14
6.24336e-14
6.24961e-14
9.23224e-14
1.0206e-13
1.1234e-13
1.27144e-13
1.01085e-13
1.12351e-13
1.13061e-13
8.7247e-14
7.66849e-14
-2.74556e-14
3.45045e-13
-5.42101e-14
3.79471e-13
-2.10961e-13
-1.94424e-13
-1.39511e-13
-1.10033e-13
-8.69644e-14
-3.40703e-14
-1.29556e-14
-7.90485e-17
7.24258e-15
3.11329e-14
-1.31175e-14
5.17406e-14
1.93028e-14
5.51769e-14
2.57085e-14
1.19318e-14
1.32803e-13
-1.63716e-13
1.0842e-13
-1.35525e-12
-3.43977e-13
-2.55368e-13
-2.725e-13
-2.06889e-13
-1.67116e-13
-1.59674e-13
-1.5643e-13
-9.22569e-14
-4.53095e-14
-6.01076e-14
-9.12873e-14
-1.73564e-14
-4.94197e-14
-2.86449e-14
-1.1399e-14
-6.27908e-14
-1.26847e-13
2.2607e-13
-1.0842e-13
1.0842e-13
-2.72081e-13
-3.2665e-13
-3.0521e-13
-2.85628e-13
-2.4921e-13
-2.34471e-13
-1.95159e-13
-2.15508e-13
-1.49852e-13
-1.52911e-13
-1.22688e-13
-1.08536e-13
-1.1194e-13
-1.02889e-13
-1.08148e-13
-7.10195e-14
2.83028e-14
-2.87274e-13
2.71051e-14
-1.32815e-12
-4.08575e-13
-4.11644e-13
-3.87907e-13
-3.22469e-13
-3.31529e-13
-2.80515e-13
-2.93229e-13
-2.58358e-13
-2.57634e-13
-2.07357e-13
-1.92585e-13
-1.73198e-13
-1.93499e-13
-1.23176e-13
-1.57497e-13
-1.60879e-13
-2.60858e-13
7.51593e-14
-1.89735e-13
-2.43945e-13
-4.08612e-13
-4.76427e-13
-4.52224e-13
-3.99712e-13
-4.17901e-13
-3.9324e-13
-3.30825e-13
-3.28621e-13
-2.85727e-13
-2.80545e-13
-2.76816e-13
-2.60763e-13
-2.37447e-13
-2.13416e-13
-2.32539e-13
-2.13191e-13
-8.57727e-14
-3.97652e-13
-5.42101e-14
-1.32815e-12
-5.14052e-13
-5.17647e-13
-4.61198e-13
-4.72429e-13
-4.90463e-13
-4.1173e-13
-4.25941e-13
-3.65697e-13
-3.63621e-13
-3.27768e-13
-3.36935e-13
-2.77829e-13
-2.82621e-13
-2.66222e-13
-2.56973e-13
-2.50463e-13
-3.81533e-13
-5.55266e-14
-2.1684e-13
-5.69206e-13
-5.23279e-13
-5.49115e-13
-5.04598e-13
-5.39844e-13
-5.00271e-13
-4.8378e-13
-4.66114e-13
-4.19203e-13
-4.38329e-13
-3.9138e-13
-3.51959e-13
-3.66909e-13
-3.53944e-13
-3.24515e-13
-3.3159e-13
-3.16282e-13
-1.91748e-13
-4.23635e-13
-1.0842e-13
-1.19262e-12
-5.90492e-13
-5.50089e-13
-5.48244e-13
-5.53946e-13
-5.17947e-13
-5.03848e-13
-4.77371e-13
-4.6637e-13
-4.46869e-13
-4.07211e-13
-3.97575e-13
-3.6998e-13
-3.86931e-13
-3.58272e-13
-3.47346e-13
-2.91862e-13
-3.98031e-13
-1.88467e-13
-2.1684e-13
-8.40257e-13
-5.4792e-13
-5.5816e-13
-5.58671e-13
-5.75073e-13
-5.21135e-13
-5.19924e-13
-4.68715e-13
-4.84627e-13
-4.47613e-13
-4.54489e-13
-3.92692e-13
-4.02016e-13
-4.02008e-13
-3.89588e-13
-3.39779e-13
-3.38503e-13
-2.58846e-13
-4.07677e-13
-1.6263e-13
-1.0571e-12
-5.73396e-13
-5.60981e-13
-5.23008e-13
-5.56973e-13
-5.51593e-13
-5.16703e-13
-4.96599e-13
-4.594e-13
-4.55697e-13
-4.41146e-13
-4.31074e-13
-4.33911e-13
-3.83278e-13
-4.05864e-13
-3.3777e-13
-3.68142e-13
-3.36578e-13
-3.3052e-13
-2.1684e-13
-8.94467e-13
-5.5359e-13
-5.3052e-13
-5.05001e-13
-5.13934e-13
-5.25712e-13
-5.04009e-13
-5.07736e-13
-4.32878e-13
-4.4922e-13
-4.60191e-13
-4.27185e-13
-3.99639e-13
-4.14619e-13
-4.21922e-13
-3.82454e-13
-3.23662e-13
-2.98994e-13
-4.30662e-13
-1.89735e-13
-8.94467e-13
-5.38039e-13
-4.66728e-13
-4.80717e-13
-5.06476e-13
-5.07535e-13
-4.47974e-13
-4.46392e-13
-4.47234e-13
-4.09643e-13
-4.16519e-13
-4.19905e-13
-4.04362e-13
-3.83205e-13
-3.83814e-13
-3.47964e-13
-3.02949e-13
-3.52211e-13
-3.76658e-13
-1.89735e-13
-3.79471e-13
-2.43945e-13
-2.43945e-13
-2.43945e-13
-2.1684e-13
-1.89735e-13
-2.1684e-13
-2.1684e-13
-2.1684e-13
-2.1684e-13
-2.1684e-13
-2.1684e-13
-1.89735e-13
-1.89735e-13
-1.89735e-13
-1.35525e-13
-1.6263e-13
-1.89735e-13
-1.89735e-13
-2.71051e-14
)
;

boundaryField
{
    movingWall
    {
        type            extrapolatedCalculated;
        value           nonuniform List<scalar> 
20
(
-3.79471e-13
-2.43945e-13
-2.43945e-13
-2.43945e-13
-2.1684e-13
-1.89735e-13
-2.1684e-13
-2.1684e-13
-2.1684e-13
-2.1684e-13
-2.1684e-13
-2.1684e-13
-1.89735e-13
-1.89735e-13
-1.89735e-13
-1.35525e-13
-1.6263e-13
-1.89735e-13
-1.89735e-13
-2.71051e-14
)
;
    }
    fixedWalls
    {
        type            extrapolatedCalculated;
        value           nonuniform List<scalar> 
60
(
4.18502e-11
1.84314e-12
-1.65341e-12
6.23416e-13
-1.70762e-12
4.87891e-13
-1.43657e-12
3.79471e-13
-1.35525e-12
1.0842e-13
-1.32815e-12
-2.43945e-13
-1.32815e-12
-5.69206e-13
-1.19262e-12
-8.40257e-13
-1.0571e-12
-8.94467e-13
-8.94467e-13
-3.79471e-13
1.35525e-13
2.1684e-13
8.13152e-14
2.1684e-13
2.71051e-14
1.6263e-13
-5.42101e-14
1.0842e-13
-1.0842e-13
2.71051e-14
-1.89735e-13
-5.42101e-14
-2.1684e-13
-1.0842e-13
-2.1684e-13
-1.6263e-13
-2.1684e-13
-1.89735e-13
-1.89735e-13
-2.71051e-14
4.18502e-11
1.20959e-12
1.50213e-12
1.37598e-12
1.1209e-12
9.26199e-13
7.30229e-13
6.53486e-13
5.52605e-13
4.99154e-13
4.47902e-13
4.19144e-13
3.89354e-13
3.49463e-13
3.61687e-13
3.17547e-13
2.72671e-13
2.56148e-13
4.27793e-13
1.35525e-13
)
;
    }
    frontAndBack
    {
        type            empty;
    }
}


// ************************************************************************* //
