/*--------------------------------*- C++ -*----------------------------------*\
| =========                 |                                                 |
| \\      /  F ield         | OpenFOAM: The Open Source CFD Toolbox           |
|  \\    /   O peration     | Version:  2312                                  |
|   \\  /    A nd           | Website:  www.openfoam.com                      |
|    \\/     M anipulation  |                                                 |
\*---------------------------------------------------------------------------*/
FoamFile
{
    version     2.0;
    format      ascii;
    arch        "LSB;label=32;scalar=64";
    class       volScalarField;
    location    "3.5";
    object      divU;
}
// * * * * * * * * * * * * * * * * * * * * * * * * * * * * * * * * * * * * * //

dimensions      [0 0 -1 0 0 0 0];

internalField   nonuniform List<scalar> 
400
(
1.50909e-07
-6.28958e-07
1.01141e-07
-5.21527e-08
7.47681e-09
-3.21835e-09
7.60307e-10
-1.80826e-10
5.95944e-11
-1.16837e-11
5.57835e-12
5.07166e-13
1.78433e-12
1.39105e-12
1.35666e-12
8.67538e-13
-2.93402e-13
-4.50647e-13
2.23813e-12
7.04731e-13
-6.0786e-07
2.08547e-06
-3.79633e-07
1.90719e-07
-3.36689e-08
1.33795e-08
-3.48959e-09
9.12504e-10
-2.88453e-10
7.70997e-11
-1.9553e-11
7.3812e-12
-5.59337e-13
1.6937e-12
1.19489e-12
2.16579e-13
-8.53315e-13
7.94159e-13
2.23116e-12
4.06576e-13
1.11071e-06
-3.48928e-06
6.30939e-07
-3.18482e-07
5.53789e-08
-2.2177e-08
5.75592e-09
-1.47404e-09
4.88213e-10
-1.16769e-10
3.63166e-11
-8.79277e-12
3.73621e-12
2.02011e-13
1.32004e-12
8.66154e-13
-6.43812e-13
-8.55524e-13
1.86862e-12
7.86047e-13
-2.0427e-06
4.91269e-06
-9.00739e-07
4.50055e-07
-7.69355e-08
3.16807e-08
-7.94544e-09
2.11995e-09
-6.85289e-10
1.69234e-10
-4.94284e-11
1.45301e-11
-3.18033e-12
1.99257e-12
9.44392e-13
-1.17829e-13
-1.08004e-12
9.60951e-13
2.29397e-12
8.13152e-14
3.44046e-06
-6.25517e-06
1.18101e-06
-5.75382e-07
9.97627e-08
-4.12872e-08
1.01468e-08
-2.79716e-09
8.81586e-10
-2.2027e-10
6.45898e-11
-1.81485e-11
5.16785e-12
-9.70439e-13
1.0861e-12
4.82754e-13
-7.38634e-13
-9.67702e-13
1.68043e-12
5.69206e-13
-4.51074e-06
7.18517e-06
-1.38208e-06
6.62328e-07
-1.18155e-07
4.82183e-08
-1.19963e-08
3.30859e-09
-1.05796e-09
2.59595e-10
-7.92859e-11
2.12213e-11
-6.02189e-12
2.22776e-12
4.95037e-13
-5.51782e-13
-1.59757e-12
1.04919e-12
2.26367e-12
-2.71051e-13
4.98374e-06
-7.6566e-06
1.48633e-06
-7.08026e-07
1.28982e-07
-5.24225e-08
1.31722e-08
-3.68594e-09
1.17172e-09
-2.96017e-10
8.75384e-11
-2.5479e-11
6.52767e-12
-1.83771e-12
9.67612e-13
9.10205e-14
-1.03251e-12
-1.08452e-12
1.41863e-12
3.79471e-13
-5.07996e-06
7.73018e-06
-1.5022e-06
7.15306e-07
-1.30848e-07
5.30462e-08
-1.33916e-08
3.73522e-09
-1.19833e-09
2.98956e-10
-9.14705e-11
2.46401e-11
-7.53755e-12
2.31779e-12
2.5744e-13
-9.76163e-13
-1.90696e-12
1.19668e-12
1.96143e-12
-5.14996e-13
5.03557e-06
-7.6441e-06
1.4902e-06
-7.08634e-07
1.30581e-07
-5.29296e-08
1.34032e-08
-3.76999e-09
1.20066e-09
-3.0626e-10
9.06004e-11
-2.67466e-11
6.62464e-12
-2.16239e-12
8.03902e-13
-2.75326e-13
-1.23729e-12
-9.68414e-13
1.14602e-12
1.35525e-13
-4.81321e-06
7.32699e-06
-1.42421e-06
6.78862e-07
-1.24541e-07
5.05386e-08
-1.27904e-08
3.58055e-09
-1.14836e-09
2.88366e-10
-8.8413e-11
2.36991e-11
-7.53533e-12
2.17332e-12
1.07292e-13
-1.34446e-12
-2.12022e-12
1.26313e-12
1.75461e-12
-7.86047e-13
4.5628e-06
-6.96056e-06
1.35536e-06
-6.45649e-07
1.19004e-07
-4.82707e-08
1.22463e-08
-3.44338e-09
1.09655e-09
-2.80666e-10
8.28779e-11
-2.47089e-11
5.85112e-12
-1.98365e-12
5.95172e-13
-6.08709e-13
-1.34287e-12
-8.26623e-13
8.91964e-13
-1.0842e-13
-4.19342e-06
6.42652e-06
-1.2468e-06
5.95578e-07
-1.09132e-07
4.43356e-08
-1.12286e-08
3.14057e-09
-1.0062e-09
2.53251e-10
-7.77078e-11
2.05696e-11
-6.87411e-12
1.88948e-12
1.37252e-13
-1.64299e-12
-2.35416e-12
1.21686e-12
1.45911e-12
-8.94467e-13
3.8274e-06
-5.88063e-06
1.14287e-06
-5.45512e-07
1.00424e-07
-4.07442e-08
1.0352e-08
-2.90229e-09
9.22713e-10
-2.37096e-10
6.95435e-11
-2.10536e-11
4.70046e-12
-1.74154e-12
4.16094e-13
-9.22709e-13
-1.38899e-12
-4.40301e-13
5.95944e-13
-2.98156e-13
-3.3735e-06
5.2085e-06
-1.00837e-06
4.82704e-07
-8.83115e-08
3.58956e-08
-9.09872e-09
2.53725e-09
-8.11461e-10
2.04387e-10
-6.30298e-11
1.62778e-11
-5.90667e-12
1.48882e-12
9.61765e-14
-1.78668e-12
-2.32122e-12
1.15811e-12
1.03632e-12
-8.67362e-13
2.93301e-06
-4.5401e-06
8.80386e-07
-4.2117e-07
7.74308e-08
-3.14031e-08
7.99614e-09
-2.23079e-09
7.07214e-10
-1.83137e-10
5.29509e-11
-1.65088e-11
3.32353e-12
-1.37313e-12
3.02336e-13
-1.34634e-12
-1.60485e-12
-2.57345e-14
2.08414e-13
-4.06576e-13
-2.44064e-06
3.79384e-06
-7.32893e-07
3.51572e-07
-6.42335e-08
2.60952e-08
-6.62873e-09
1.83451e-09
-5.8882e-10
1.46089e-10
-4.72215e-11
1.04048e-11
-5.46716e-12
3.33726e-13
-4.45837e-13
-2.24459e-12
-2.43906e-12
1.11172e-12
6.35811e-13
-7.04731e-13
1.97188e-06
-3.0701e-06
5.95142e-07
-2.84732e-07
5.2428e-08
-2.11887e-08
5.41124e-09
-1.503e-09
4.7098e-10
-1.24315e-10
3.50634e-11
-1.10371e-11
2.33616e-12
-2.98954e-13
8.81136e-13
-7.10871e-13
-8.23744e-13
9.08858e-13
2.02593e-13
-6.77626e-13
-1.44163e-06
2.26176e-06
-4.35325e-07
2.09705e-07
-3.83892e-08
1.55385e-08
-3.98407e-09
1.08959e-09
-3.48542e-10
8.94538e-11
-2.66e-11
7.38917e-12
-2.57918e-12
1.10741e-12
6.46816e-13
-1.4389e-12
-2.51417e-12
3.08303e-13
3.54549e-13
-7.04731e-13
9.87536e-07
-1.5374e-06
2.96779e-07
-1.4108e-07
2.54671e-08
-1.02192e-08
2.58594e-09
-6.98573e-10
2.1703e-10
-5.88566e-11
1.28152e-11
-8.28614e-12
-2.15947e-12
-2.26353e-12
-1.68608e-12
-4.04808e-12
-3.35335e-12
6.69923e-13
1.11534e-13
-3.52366e-13
-4.5036e-07
6.82169e-07
-1.54462e-07
7.26859e-08
-1.57903e-08
6.08265e-09
-1.63915e-09
4.8621e-10
-1.47316e-10
4.23381e-11
-1.14925e-11
4.25549e-12
-2.43945e-13
2.33103e-12
1.40946e-12
-8.13152e-13
2.98156e-13
2.6563e-12
-7.86047e-13
-4.33681e-13
)
;

boundaryField
{
    movingWall
    {
        type            extrapolatedCalculated;
        value           nonuniform List<scalar> 
20
(
-4.5036e-07
6.82169e-07
-1.54462e-07
7.26859e-08
-1.57903e-08
6.08265e-09
-1.63915e-09
4.8621e-10
-1.47316e-10
4.23381e-11
-1.14925e-11
4.25549e-12
-2.43945e-13
2.33103e-12
1.40946e-12
-8.13152e-13
2.98156e-13
2.6563e-12
-7.86047e-13
-4.33681e-13
)
;
    }
    fixedWalls
    {
        type            extrapolatedCalculated;
        value           nonuniform List<scalar> 
60
(
1.50909e-07
-6.0786e-07
1.11071e-06
-2.0427e-06
3.44046e-06
-4.51074e-06
4.98374e-06
-5.07996e-06
5.03557e-06
-4.81321e-06
4.5628e-06
-4.19342e-06
3.8274e-06
-3.3735e-06
2.93301e-06
-2.44064e-06
1.97188e-06
-1.44163e-06
9.87536e-07
-4.5036e-07
7.04731e-13
4.06576e-13
7.86047e-13
8.13152e-14
5.69206e-13
-2.71051e-13
3.79471e-13
-5.14996e-13
1.35525e-13
-7.86047e-13
-1.0842e-13
-8.94467e-13
-2.98156e-13
-8.67362e-13
-4.06576e-13
-7.04731e-13
-6.77626e-13
-7.04731e-13
-3.52366e-13
-4.33681e-13
1.50909e-07
-6.28958e-07
1.01141e-07
-5.21527e-08
7.47681e-09
-3.21835e-09
7.60307e-10
-1.80826e-10
5.95944e-11
-1.16837e-11
5.57835e-12
5.07166e-13
1.78433e-12
1.39105e-12
1.35666e-12
8.67538e-13
-2.93402e-13
-4.50647e-13
2.23813e-12
7.04731e-13
)
;
    }
    frontAndBack
    {
        type            empty;
    }
}


// ************************************************************************* //
