/*--------------------------------*- C++ -*----------------------------------*\
| =========                 |                                                 |
| \\      /  F ield         | OpenFOAM: The Open Source CFD Toolbox           |
|  \\    /   O peration     | Version:  2312                                  |
|   \\  /    A nd           | Website:  www.openfoam.com                      |
|    \\/     M anipulation  |                                                 |
\*---------------------------------------------------------------------------*/
FoamFile
{
    version     2.0;
    format      ascii;
    arch        "LSB;label=32;scalar=64";
    class       volScalarField;
    location    "3.5";
    object      enstrophyField;
}
// * * * * * * * * * * * * * * * * * * * * * * * * * * * * * * * * * * * * * //

dimensions      [0 0 -2 0 0 0 0];

internalField   nonuniform List<scalar> 
400
(
1.85676e-10
2.35254e-10
1.25867e-11
6.99003e-13
3.76548e-14
2.02423e-15
1.15874e-16
5.42269e-18
4.35383e-19
4.30377e-21
7.94522e-21
2.19384e-21
2.80818e-21
2.21388e-21
1.6952e-21
1.06481e-21
5.72259e-22
3.04652e-22
1.46812e-22
3.2542e-23
2.30392e-10
2.53706e-10
1.39133e-11
7.6257e-13
4.17687e-14
2.28683e-15
1.25079e-16
6.83099e-18
3.79241e-19
1.84449e-20
1.78591e-21
4.11061e-24
1.53903e-22
1.03469e-22
7.72293e-23
1.86673e-23
1.24572e-24
1.3991e-24
4.33483e-24
8.92319e-23
2.45916e-10
2.7544e-10
1.50912e-11
8.2625e-13
4.52316e-14
2.47255e-15
1.35493e-16
7.37396e-18
4.01075e-19
2.4342e-20
5.30535e-22
4.90444e-22
1.9713e-22
2.87422e-22
1.90419e-22
4.84413e-23
3.39073e-24
3.67947e-24
1.22942e-23
2.31642e-22
2.64634e-10
3.07736e-10
1.69316e-11
9.3056e-13
5.1079e-14
2.80417e-15
1.53281e-16
8.43958e-18
4.64338e-19
2.20539e-20
2.80059e-21
1.06931e-22
5.54482e-22
4.78726e-22
3.5678e-22
8.93961e-23
5.2375e-24
5.34366e-24
2.58981e-23
4.15858e-22
2.70113e-10
3.41271e-10
1.89795e-11
1.05283e-12
5.83026e-14
3.21856e-15
1.78155e-16
9.7647e-18
5.34266e-19
3.42094e-20
4.36912e-22
1.07945e-21
5.85007e-22
7.81139e-22
5.24873e-22
1.37754e-22
6.93434e-24
6.4851e-24
4.51437e-23
6.03742e-22
2.66204e-10
3.66886e-10
2.05416e-11
1.1499e-12
6.43458e-14
3.60437e-15
2.00881e-16
1.12782e-17
6.33606e-19
2.94539e-20
4.43745e-21
2.79364e-22
1.0909e-21
9.70432e-22
7.25189e-22
1.89346e-22
7.31284e-24
6.14889e-24
6.93507e-23
7.80625e-22
2.65678e-10
3.91865e-10
2.1988e-11
1.23365e-12
6.92642e-14
3.884e-15
2.18729e-16
1.22119e-17
6.78334e-19
4.55757e-20
4.51943e-22
1.69326e-21
9.80134e-22
1.28074e-21
8.7856e-22
2.43553e-22
6.49516e-24
4.13336e-24
9.9998e-23
9.08076e-22
2.71825e-10
4.18986e-10
2.35593e-11
1.32446e-12
7.44292e-14
4.1885e-15
2.34775e-16
1.32689e-17
7.56482e-19
3.46226e-20
5.76955e-21
4.30689e-22
1.52174e-21
1.36819e-21
1.02858e-21
2.83523e-22
4.57988e-24
2.03094e-24
1.37054e-22
9.83156e-22
2.81518e-10
4.47073e-10
2.5172e-11
1.41692e-12
7.98075e-14
4.49048e-15
2.53684e-16
1.42357e-17
7.8945e-19
5.42402e-20
4.72911e-22
2.08187e-21
1.21173e-21
1.58088e-21
1.09584e-21
3.18615e-22
2.94284e-24
4.08883e-25
1.75166e-22
9.97511e-22
2.93447e-10
4.76236e-10
2.68489e-11
1.51339e-12
8.52882e-14
4.81317e-15
2.70763e-16
1.53215e-17
8.80487e-19
3.99482e-20
6.70212e-21
4.72829e-22
1.68982e-21
1.50818e-21
1.1511e-21
3.35018e-22
1.23252e-24
3.9994e-26
2.12703e-22
9.53439e-22
3.0632e-10
5.05083e-10
2.85035e-11
1.60814e-12
9.07799e-14
5.12029e-15
2.89692e-16
1.6322e-17
9.03033e-19
6.22751e-20
6.1121e-22
2.1863e-21
1.19863e-21
1.58895e-21
1.11292e-21
3.44344e-22
3.36776e-25
1.0955e-24
2.46035e-22
8.66605e-22
3.19571e-10
5.33713e-10
3.01442e-11
1.70219e-12
9.61083e-14
5.43245e-15
3.06361e-16
1.73358e-17
1.00058e-18
4.59679e-20
7.14332e-21
3.71895e-22
1.54408e-21
1.35434e-21
1.05126e-21
3.19294e-22
7.91828e-26
2.84077e-24
2.75668e-22
7.45222e-22
3.32786e-10
5.60768e-10
3.16913e-11
1.79051e-12
1.01205e-13
5.71716e-15
3.23659e-16
1.82892e-17
1.01214e-18
6.86455e-20
9.2322e-22
1.96785e-21
9.40351e-22
1.29586e-21
9.09665e-22
2.86158e-22
1.24764e-26
5.23484e-24
2.93837e-22
6.06191e-22
3.453e-10
5.86421e-10
3.31566e-11
1.87422e-12
1.05938e-13
5.99297e-15
3.38529e-16
1.9151e-17
1.10551e-18
5.24456e-20
6.99189e-21
1.88197e-22
1.15026e-21
9.65072e-22
7.66118e-22
2.33332e-22
5.26319e-26
5.9616e-24
2.91488e-22
4.63938e-22
3.57563e-10
6.09535e-10
3.44744e-11
1.94925e-12
1.10252e-13
6.23387e-15
3.52969e-16
1.99764e-17
1.10952e-18
7.26322e-20
1.46901e-21
1.4941e-21
5.48606e-22
8.27266e-22
5.74609e-22
1.83199e-22
4.18504e-26
6.56996e-24
2.648e-22
3.37166e-22
3.68776e-10
6.30355e-10
3.5661e-11
2.01687e-12
1.1407e-13
6.4553e-15
3.65028e-16
2.0646e-17
1.18819e-18
5.89912e-20
6.39457e-21
3.6952e-23
6.83965e-22
5.24385e-22
4.319e-22
1.29248e-22
3.70876e-26
6.43619e-24
2.1861e-22
2.23881e-22
3.77409e-10
6.47191e-10
3.66142e-11
2.07075e-12
1.17142e-13
6.626e-15
3.75038e-16
2.12439e-17
1.18428e-18
7.45611e-20
2.1538e-21
1.01637e-21
2.30438e-22
4.18184e-22
2.86286e-22
9.75688e-23
2.15519e-25
8.17622e-24
1.65851e-22
1.38131e-22
3.87878e-10
6.62142e-10
3.74657e-11
2.1192e-12
1.19877e-13
6.78351e-15
3.83739e-16
2.17055e-17
1.24099e-18
6.51399e-20
5.41717e-21
1.01163e-23
2.70928e-22
1.63289e-22
1.45517e-22
4.03748e-23
3.30152e-25
3.66934e-24
1.13991e-22
6.53464e-23
3.92844e-10
6.7266e-10
3.81233e-11
2.15997e-12
1.22396e-13
6.93633e-15
3.93201e-16
2.22892e-17
1.26027e-18
7.31958e-20
3.60462e-21
3.53327e-22
1.46299e-25
2.74302e-23
1.01898e-23
3.6059e-26
2.49243e-23
3.23077e-24
6.03323e-23
1.34147e-23
4.18972e-10
6.85603e-10
3.9583e-11
2.23282e-12
1.29874e-13
7.28646e-15
4.42735e-16
2.1699e-17
1.98379e-18
1.91738e-20
2.84651e-20
1.98184e-21
1.46474e-21
2.04033e-22
9.32034e-24
7.89267e-24
9.95031e-24
2.27847e-23
4.66113e-23
1.86171e-23
)
;

boundaryField
{
    movingWall
    {
        type            calculated;
        value           nonuniform List<scalar> 
20
(
5.59471e-10
7.21913e-10
4.35659e-11
2.43024e-12
1.48726e-13
8.33321e-15
5.46115e-16
2.40923e-17
3.21877e-18
6.72188e-22
8.30818e-20
1.17737e-20
6.26208e-21
1.16251e-21
1.12541e-22
2.73515e-26
5.35147e-25
3.31647e-23
2.86551e-22
7.13716e-23
)
;
    }
    fixedWalls
    {
        type            calculated;
        value           nonuniform List<scalar> 
60
(
4.23291e-09
4.59479e-09
4.99255e-09
5.56358e-09
6.13883e-09
6.58956e-09
7.03915e-09
7.52213e-09
8.02449e-09
8.54413e-09
9.05916e-09
9.56957e-09
1.00527e-08
1.05106e-08
1.09235e-08
1.1295e-08
1.15968e-08
1.18628e-08
1.2033e-08
1.22989e-08
9.72015e-23
4.60696e-22
1.21173e-21
2.20658e-21
3.29204e-21
4.35818e-21
5.25075e-21
5.90859e-21
6.26347e-21
6.31005e-21
6.07409e-21
5.60542e-21
4.9307e-21
4.12478e-21
3.24128e-21
2.34614e-21
1.55157e-21
8.73043e-22
3.42188e-22
9.86386e-23
1.0087e-10
2.15944e-10
1.06326e-11
6.18295e-13
3.09727e-14
1.60752e-15
9.6401e-17
3.35076e-18
4.54148e-19
1.52538e-21
2.27647e-20
1.23399e-20
1.22712e-20
1.00745e-20
7.49703e-21
4.5643e-21
2.23874e-21
1.18028e-21
6.48496e-22
6.97057e-23
)
;
    }
    frontAndBack
    {
        type            empty;
    }
}


// ************************************************************************* //
