/*--------------------------------*- C++ -*----------------------------------*\
| =========                 |                                                 |
| \\      /  F ield         | OpenFOAM: The Open Source CFD Toolbox           |
|  \\    /   O peration     | Version:  2312                                  |
|   \\  /    A nd           | Website:  www.openfoam.com                      |
|    \\/     M anipulation  |                                                 |
\*---------------------------------------------------------------------------*/
FoamFile
{
    version     2.0;
    format      ascii;
    arch        "LSB;label=32;scalar=64";
    class       volScalarField;
    location    "3.5";
    object      flowTypeField;
}
// * * * * * * * * * * * * * * * * * * * * * * * * * * * * * * * * * * * * * //

dimensions      [0 0 0 0 0 0 0];

internalField   nonuniform List<scalar> 
400
(
-0.105568
-0.0166707
-0.0336652
-0.0264398
-0.0467745
-0.044668
-0.074715
-0.0333415
-0.224705
0.425422
-0.455045
0.100467
-0.0156868
0.0408643
0.0581038
0.0828421
0.079558
0.0451156
0.193985
0.448135
-0.188825
-0.0259625
-0.058626
-0.0349718
-0.0717856
-0.0626336
-0.0763676
-0.0734004
-0.137859
0.0774763
-0.376745
0.808543
-0.320101
-0.13445
0.214015
0.610983
0.875241
0.805806
0.714247
0.291042
-0.153768
-0.0130287
-0.0465321
-0.00429267
-0.0457561
-0.015654
0.00196983
-0.0434135
0.0976192
-0.0655107
0.457933
-0.0123241
-0.181411
-0.754765
-0.161582
0.369745
0.787407
0.664664
0.510558
0.151558
-0.110894
0.00160537
-0.0332281
0.0276974
-0.0285495
0.0402865
0.0319923
0.0637885
0.112753
0.217944
0.159946
0.44212
-0.190402
-0.779346
-0.554328
0.0459614
0.719005
0.617478
0.311274
0.0795295
-0.0553456
0.0172563
-0.0113119
0.056122
0.00426919
0.0832508
0.0879083
0.110406
0.204049
0.212599
0.55456
0.159858
-0.196149
-0.437612
-0.655544
-0.320446
0.653254
0.525852
0.0641053
0.0525281
-0.00434297
0.0299005
0.00917784
0.0770135
0.0332152
0.114608
0.124619
0.150283
0.254551
0.258713
0.310042
0.249205
-0.0476659
-0.335377
-0.453314
-0.895514
0.620343
0.529917
-0.0730153
0.028807
0.032635
0.0374399
0.0226539
0.0890698
0.0525712
0.136674
0.145629
0.192406
0.259871
0.310831
0.56189
0.216453
-0.106868
-0.178667
-0.307504
-0.557281
0.620253
0.576619
-0.191014
0.0221737
0.0521324
0.0388219
0.0281979
0.0890212
0.0592243
0.13582
0.152875
0.180876
0.286871
0.27213
0.333406
0.149447
0.0309792
-0.141682
-0.191976
-0.271122
0.678274
0.659298
-0.181063
0.014794
0.0634685
0.0381542
0.0306938
0.0859886
0.0604154
0.134301
0.144369
0.193276
0.248929
0.30815
0.531513
0.220803
-0.0145482
-0.0533079
-0.12273
-0.151452
0.731618
0.845244
-0.146357
0.0124353
0.0689025
0.0352927
0.0306594
0.0780616
0.0578478
0.120844
0.137302
0.162635
0.259407
0.236901
0.309957
0.179294
0.0802682
-0.0309716
-0.0613988
-0.0459708
0.827967
0.940482
-0.109316
0.0120777
0.0718421
0.0322561
0.0300385
0.07051
0.0541887
0.111991
0.121129
0.164944
0.208872
0.271163
0.462906
0.21921
0.0687225
0.0222269
-0.0232806
-0.00231656
0.903045
0.764
-0.0692377
0.0125426
0.0726683
0.0284901
0.0285618
0.0610098
0.0496648
0.0961747
0.110539
0.13088
0.213621
0.184319
0.279067
0.315532
0.132076
0.0491431
0.0192362
0.0588523
0.953347
0.588268
-0.0572491
0.0169007
0.0723916
0.0250827
0.0270738
0.0527809
0.0450248
0.0856074
0.0929484
0.12993
0.157743
0.227117
0.378043
0.240032
0.169561
0.0923574
0.0511742
0.0896268
0.97874
0.514798
-0.0350388
0.0254754
0.0715952
0.0216483
0.0254388
0.0441279
0.0407711
0.0709105
0.0831522
0.0966358
0.164752
0.124121
0.261298
0.527276
0.209681
0.137512
0.0910108
0.131877
0.95493
0.376151
-0.0351321
0.0406636
0.0695884
0.0185724
0.0237251
0.0367288
0.0362059
0.061095
0.0659284
0.0968499
0.103325
0.188192
0.303426
0.301254
0.317272
0.181749
0.128939
0.156889
0.948596
0.310938
-0.0166449
0.0576676
0.0674131
0.0157909
0.0220912
0.0297639
0.032678
0.0485742
0.0593465
0.0643469
0.120719
0.0684526
0.261907
0.794113
0.324004
0.252055
0.163266
0.179581
0.943973
0.154911
-0.0247733
0.0951679
0.0665053
0.0138279
0.0211276
0.0249105
0.0295576
0.0428847
0.0445451
0.0718267
0.0587519
0.155074
0.290312
0.377484
0.496895
0.274356
0.17192
0.116311
0.802325
-0.119815
-0.0131999
0.139077
0.0615803
0.0113858
0.0192086
0.0192994
0.0270495
0.0321968
0.0431245
0.0414216
0.0868413
0.0501961
0.277345
0.900273
0.499209
0.449553
0.288531
0.238631
0.745318
0.184312
-0.005882
0.256948
0.0612343
0.00971438
0.0170787
0.0144705
0.0201948
0.0252542
0.0226087
0.0418411
0.0246005
0.115866
0.264547
0.595658
0.984869
0.74633
0.747455
0.967897
-0.0220951
0.425037
-0.0309352
0.555189
0.0335001
0.00485003
0.00842599
0.00682077
0.00718859
0.0163693
-0.00979952
0.0722428
-0.157176
0.53203
-0.368689
0.365682
0.128717
0.374552
0.671869
0.374151
-0.191107
0.33927
0.287971
0.512421
)
;

boundaryField
{
    movingWall
    {
        type            calculated;
        value           nonuniform List<scalar> 
20
(
0.740914
0.262116
0.245112
0.253184
0.234139
0.242382
0.200135
0.293182
-0.00956618
0.932808
-0.315721
0.177647
-0.0402928
0.0852365
0.129707
0.892921
0.622389
0.29387
0.143873
0.274439
)
;
    }
    fixedWalls
    {
        type            calculated;
        value           nonuniform List<scalar> 
60
(
-0.0199903
-0.0323631
-0.0189336
-0.00185564
0.0174386
0.0318523
0.0398446
0.0415856
0.0410276
0.0381847
0.0351304
0.0312667
0.0277699
0.0241903
0.0210081
0.0180976
0.0160217
0.0135017
0.0125138
0.00654954
0.154324
0.0744384
0.0312946
0.0168576
0.0123042
0.00771148
0.00678145
0.00548425
0.00485637
0.00462296
0.00439361
0.00450445
0.00619671
0.0076757
0.0092108
0.0135531
0.0166238
0.0336791
0.105199
0.180103
0.801833
0.272422
0.299493
0.277992
0.293467
0.305752
0.263669
0.389432
0.0731542
0.783548
-0.221454
0.0471653
-0.00835819
0.0174768
0.0209008
0.0231121
0.0133896
0.00419764
0.0626715
0.289823
)
;
    }
    frontAndBack
    {
        type            empty;
    }
}


// ************************************************************************* //
