/*--------------------------------*- C++ -*----------------------------------*\
| =========                 |                                                 |
| \\      /  F ield         | OpenFOAM: The Open Source CFD Toolbox           |
|  \\    /   O peration     | Version:  2312                                  |
|   \\  /    A nd           | Website:  www.openfoam.com                      |
|    \\/     M anipulation  |                                                 |
\*---------------------------------------------------------------------------*/
FoamFile
{
    version     2.0;
    format      ascii;
    arch        "LSB;label=32;scalar=64";
    class       surfaceScalarField;
    location    "3.5";
    object      fluxField;
}
// * * * * * * * * * * * * * * * * * * * * * * * * * * * * * * * * * * * * * //

dimensions      [0 3 -1 0 0 0 0];

oriented        oriented;

internalField   nonuniform List<scalar> 
760
(
-5e-05
-1.28764e-13
-5e-05
2.79691e-14
-5e-05
-6.07676e-15
-5e-05
1.1887e-15
-5e-05
-2.76015e-16
-5e-05
1.34811e-19
-5e-05
-2.99891e-17
-5e-05
-1.71188e-17
-5e-05
-8.83866e-18
-5e-05
-4.68952e-18
-5e-05
-1.82414e-18
-5e-05
-8.96424e-19
-5e-05
-8.14303e-19
-5e-05
-1.61058e-18
-5e-05
-2.67627e-18
-5e-05
-3.42875e-18
-5e-05
-3.08879e-18
-5e-05
-1.94903e-18
-5e-05
-1.94769e-18
-2.55513e-18
-5e-05
2.59213e-13
-5e-05
-6.03021e-14
-5e-05
1.46651e-14
-5e-05
-3.54247e-15
-5e-05
7.27596e-16
-5e-05
-2.90701e-16
-5e-05
-7.1422e-18
-5e-05
-4.41916e-17
-5e-05
-1.30108e-17
-5e-05
-7.59295e-18
-5e-05
-2.06934e-18
-5e-05
-7.16126e-19
-5e-05
-8.78447e-19
-5e-05
-2.67333e-18
-5e-05
-4.919e-18
-5e-05
-6.53916e-18
-5e-05
-6.00026e-18
-5e-05
-3.68426e-18
-5e-05
-3.85356e-18
-5.00951e-18
-5e-05
-3.65137e-13
-5e-05
8.74066e-14
-5e-05
-2.18683e-14
-5e-05
4.44735e-15
-5e-05
-1.44161e-15
-5e-05
1.31818e-16
-5e-05
-1.38094e-16
-5e-05
-2.33471e-17
-5e-05
-2.06888e-17
-5e-05
-4.94682e-18
-5e-05
-6.04133e-19
-5e-05
1.03409e-18
-5e-05
4.63619e-20
-5e-05
-2.95138e-18
-5e-05
-6.50724e-18
-5e-05
-9.05339e-18
-5e-05
-8.44832e-18
-5e-05
-5.17411e-18
-5e-05
-5.50951e-18
-7.27789e-18
-5e-05
3.86901e-13
-5e-05
-1.09884e-13
-5e-05
2.45116e-14
-5e-05
-7.08264e-15
-5e-05
1.37077e-15
-5e-05
-5.14757e-16
-5e-05
2.8929e-17
-5e-05
-5.50617e-17
-5e-05
-5.99485e-18
-5e-05
-1.70341e-18
-5e-05
4.42093e-18
-5e-05
4.33726e-18
-5e-05
2.24068e-18
-5e-05
-2.29368e-18
-5e-05
-7.27878e-18
-5e-05
-1.08444e-17
-5e-05
-1.02989e-17
-5e-05
-6.2582e-18
-5e-05
-6.86684e-18
-9.28774e-18
-5e-05
-3.15979e-13
-5e-05
9.32033e-14
-5e-05
-2.23707e-14
-5e-05
6.29587e-15
-5e-05
-1.74609e-15
-5e-05
3.51747e-16
-5e-05
-1.51142e-16
-5e-05
1.27387e-17
-5e-05
-5.76135e-18
-5e-05
1.08045e-17
-5e-05
1.08145e-17
-5e-05
9.63882e-18
-5e-05
5.58811e-18
-5e-05
-6.28857e-19
-5e-05
-7.16204e-18
-5e-05
-1.18123e-17
-5e-05
-1.14739e-17
-5e-05
-6.92332e-18
-5e-05
-7.86726e-18
-1.09759e-17
-5e-05
2.95419e-13
-5e-05
-8.23647e-14
-5e-05
1.97767e-14
-5e-05
-5.55082e-15
-5e-05
1.38554e-15
-5e-05
-3.9534e-16
-5e-05
1.01092e-16
-5e-05
-1.7534e-17
-5e-05
2.56759e-17
-5e-05
1.94028e-17
-5e-05
2.07209e-17
-5e-05
1.58085e-17
-5e-05
1.00142e-17
-5e-05
1.87831e-18
-5e-05
-6.19172e-18
-5e-05
-1.19625e-17
-5e-05
-1.19665e-17
-5e-05
-7.1306e-18
-5e-05
-8.50072e-18
-1.23093e-17
-5e-05
-2.85968e-13
-5e-05
7.65628e-14
-5e-05
-1.82186e-14
-5e-05
4.90756e-15
-5e-05
-1.20687e-15
-5e-05
3.40504e-16
-5e-05
-5.65968e-17
-5e-05
5.56451e-17
-5e-05
3.00858e-17
-5e-05
3.62727e-17
-5e-05
2.95079e-17
-5e-05
2.31273e-17
-5e-05
1.48931e-17
-5e-05
5.0429e-18
-5e-05
-4.52181e-18
-5e-05
-1.13478e-17
-5e-05
-1.17913e-17
-5e-05
-6.92542e-18
-5e-05
-8.75942e-18
-1.32718e-17
-5e-05
2.77603e-13
-5e-05
-7.15503e-14
-5e-05
1.72599e-14
-5e-05
-4.36785e-15
-5e-05
1.18124e-15
-5e-05
-2.21674e-16
-5e-05
1.31572e-16
-5e-05
3.72236e-17
-5e-05
5.76957e-17
-5e-05
4.615e-17
-5e-05
3.97993e-17
-5e-05
2.99583e-17
-5e-05
2.00368e-17
-5e-05
8.5009e-18
-5e-05
-2.33444e-18
-5e-05
-1.01171e-17
-5e-05
-1.10545e-17
-5e-05
-6.32802e-18
-5e-05
-8.67115e-18
-1.38589e-17
-5e-05
-2.71791e-13
-5e-05
6.96246e-14
-5e-05
-1.6343e-14
-5e-05
4.33061e-15
-5e-05
-9.28512e-16
-5e-05
3.45744e-16
-5e-05
1.53597e-17
-5e-05
9.08361e-17
-5e-05
6.32676e-17
-5e-05
5.97938e-17
-5e-05
4.77629e-17
-5e-05
3.65798e-17
-5e-05
2.48039e-17
-5e-05
1.2009e-17
-5e-05
1.26437e-19
-5e-05
-8.42396e-18
-5e-05
-9.85708e-18
-5e-05
-5.4395e-18
-5e-05
-8.26514e-18
-1.40825e-17
-5e-05
2.58113e-13
-5e-05
-6.47962e-14
-5e-05
1.5612e-14
-5e-05
-3.75262e-15
-5e-05
1.07704e-15
-5e-05
-1.24652e-16
-5e-05
1.58705e-16
-5e-05
7.49861e-17
-5e-05
8.29968e-17
-5e-05
6.70094e-17
-5e-05
5.5363e-17
-5e-05
4.18796e-17
-5e-05
2.90227e-17
-5e-05
1.5241e-17
-5e-05
2.65601e-18
-5e-05
-6.46186e-18
-5e-05
-8.35664e-18
-5e-05
-4.32596e-18
-5e-05
-7.598e-18
-1.39709e-17
-5e-05
-2.46812e-13
-5e-05
6.21473e-14
-5e-05
-1.45177e-14
-5e-05
3.83792e-15
-5e-05
-7.51471e-16
-5e-05
3.45018e-16
-5e-05
5.782e-17
-5e-05
1.14008e-16
-5e-05
8.47137e-17
-5e-05
7.55841e-17
-5e-05
6.01573e-17
-5e-05
4.60745e-17
-5e-05
3.22609e-17
-5e-05
1.7983e-17
-5e-05
5.0277e-18
-5e-05
-4.39412e-18
-5e-05
-6.66475e-18
-5e-05
-3.09334e-18
-5e-05
-6.7159e-18
-1.35605e-17
-5e-05
2.25738e-13
-5e-05
-5.58148e-14
-5e-05
1.34753e-14
-5e-05
-3.12784e-15
-5e-05
9.52498e-16
-5e-05
-5.77272e-17
-5e-05
1.70424e-16
-5e-05
9.63225e-17
-5e-05
9.66343e-17
-5e-05
7.82206e-17
-5e-05
6.37178e-17
-5e-05
4.84698e-17
-5e-05
3.44057e-17
-5e-05
1.9988e-17
-5e-05
7.04775e-18
-5e-05
-2.40975e-18
-5e-05
-4.93213e-18
-5e-05
-1.8032e-18
-5e-05
-5.69998e-18
-1.288e-17
-5e-05
-2.08698e-13
-5e-05
5.20385e-14
-5e-05
-1.21037e-14
-5e-05
3.22595e-15
-5e-05
-5.74811e-16
-5e-05
3.24298e-16
-5e-05
8.34517e-17
-5e-05
1.22904e-16
-5e-05
9.3581e-17
-5e-05
8.11167e-17
-5e-05
6.43047e-17
-5e-05
4.92923e-17
-5e-05
3.51852e-17
-5e-05
2.11199e-17
-5e-05
8.55402e-18
-5e-05
-6.37253e-19
-5e-05
-3.27459e-18
-5e-05
-6.04743e-19
-5e-05
-4.61473e-18
-1.19425e-17
-5e-05
1.81719e-13
-5e-05
-4.42839e-14
-5e-05
1.07323e-14
-5e-05
-2.39194e-15
-5e-05
7.89002e-16
-5e-05
2.57098e-19
-5e-05
1.66964e-16
-5e-05
1.0399e-16
-5e-05
9.77298e-17
-5e-05
7.85813e-17
-5e-05
6.31318e-17
-5e-05
4.80406e-17
-5e-05
3.4546e-17
-5e-05
2.12228e-17
-5e-05
9.43627e-18
-5e-05
7.93386e-19
-5e-05
-1.83391e-18
-5e-05
4.115e-19
-5e-05
-3.55596e-18
-1.07614e-17
-5e-05
-1.59928e-13
-5e-05
3.9364e-14
-5e-05
-9.065e-15
-5e-05
2.4639e-15
-5e-05
-3.65808e-16
-5e-05
2.83733e-16
-5e-05
9.87132e-17
-5e-05
1.17645e-16
-5e-05
8.97692e-17
-5e-05
7.52059e-17
-5e-05
5.89504e-17
-5e-05
4.49126e-17
-5e-05
3.23405e-17
-5e-05
2.02159e-17
-5e-05
9.56913e-18
-5e-05
1.75728e-18
-5e-05
-7.06146e-19
-5e-05
1.1252e-18
-5e-05
-2.61097e-18
-9.36084e-18
-5e-05
1.29414e-13
-5e-05
-3.13234e-14
-5e-05
7.70058e-15
-5e-05
-1.59614e-15
-5e-05
6.23914e-16
-5e-05
4.94818e-17
-5e-05
1.50936e-16
-5e-05
9.63613e-17
-5e-05
8.46448e-17
-5e-05
6.63038e-17
-5e-05
5.2149e-17
-5e-05
3.93082e-17
-5e-05
2.83403e-17
-5e-05
1.78779e-17
-5e-05
8.79255e-18
-5e-05
2.14936e-18
-5e-05
5.43085e-20
-5e-05
1.55187e-18
-5e-05
-1.77906e-18
-7.79506e-18
-5e-05
-1.04705e-13
-5e-05
2.54471e-14
-5e-05
-5.63934e-15
-5e-05
1.71777e-15
-5e-05
-1.51499e-16
-5e-05
2.35708e-16
-5e-05
9.35503e-17
-5e-05
9.4544e-17
-5e-05
6.87593e-17
-5e-05
5.5515e-17
-5e-05
4.2471e-17
-5e-05
3.20436e-17
-5e-05
2.30745e-17
-5e-05
1.47382e-17
-5e-05
7.54542e-18
-5e-05
2.33628e-18
-5e-05
6.81755e-19
-5e-05
1.79931e-18
-5e-05
-1.00645e-18
-6.12205e-18
-5e-05
7.14617e-14
-5e-05
-1.65128e-14
-5e-05
4.21196e-15
-5e-05
-5.07301e-16
-5e-05
3.54673e-16
-5e-05
1.06787e-16
-5e-05
9.31853e-17
-5e-05
6.87493e-17
-5e-05
5.12154e-17
-5e-05
4.02934e-17
-5e-05
3.04297e-17
-5e-05
2.28537e-17
-5e-05
1.64314e-17
-5e-05
1.05835e-17
-5e-05
5.57594e-18
-5e-05
1.95776e-18
-5e-05
8.21577e-19
-5e-05
1.79147e-18
-5e-05
-1.34979e-19
-4.32291e-18
-5e-05
-5.69339e-14
-5e-05
2.6028e-14
-5e-05
-6.21622e-15
-5e-05
2.50046e-15
-5e-05
-5.504e-16
-5e-05
2.7527e-16
-5e-05
-9.38927e-18
-5e-05
5.40284e-17
-5e-05
2.19414e-17
-5e-05
2.19658e-17
-5e-05
1.48657e-17
-5e-05
1.13455e-17
-5e-05
7.92369e-18
-5e-05
5.01776e-18
-5e-05
2.5126e-18
-5e-05
7.09152e-19
-5e-05
2.86521e-19
-5e-05
1.23135e-18
-5e-05
3.93802e-19
-2.2791e-18
-5e-05
-5e-05
-5e-05
-5e-05
-5e-05
-5e-05
-5e-05
-5e-05
-5e-05
-5e-05
-5e-05
-5e-05
-5e-05
-5e-05
-5e-05
-5e-05
-5e-05
-5e-05
-5e-05
)
;

boundaryField
{
    movingWall
    {
        type            calculated;
        value           uniform -0;
    }
    fixedWalls
    {
        type            calculated;
        value           nonuniform List<scalar> 
60
(
5e-05
5e-05
5e-05
5e-05
5e-05
5e-05
5e-05
5e-05
5e-05
5e-05
5e-05
5e-05
5e-05
5e-05
5e-05
5e-05
5e-05
5e-05
5e-05
5e-05
-5e-05
-5e-05
-5e-05
-5e-05
-5e-05
-5e-05
-5e-05
-5e-05
-5e-05
-5e-05
-5e-05
-5e-05
-5e-05
-5e-05
-5e-05
-5e-05
-5e-05
-5e-05
-5e-05
-5e-05
0
0
0
0
0
0
0
0
0
0
0
0
0
0
0
0
0
0
0
0
)
;
    }
    frontAndBack
    {
        type            empty;
        value           nonuniform List<scalar> 0();
    }
}


// ************************************************************************* //
