/*--------------------------------*- C++ -*----------------------------------*\
| =========                 |                                                 |
| \\      /  F ield         | OpenFOAM: The Open Source CFD Toolbox           |
|  \\    /   O peration     | Version:  2312                                  |
|   \\  /    A nd           | Website:  www.openfoam.com                      |
|    \\/     M anipulation  |                                                 |
\*---------------------------------------------------------------------------*/
FoamFile
{
    version     2.0;
    format      ascii;
    arch        "LSB;label=32;scalar=64";
    class       volVectorField;
    location    "3.5";
    object      gradPhi;
}
// * * * * * * * * * * * * * * * * * * * * * * * * * * * * * * * * * * * * * //

dimensions      [0 2 -1 0 0 0 0];

internalField   nonuniform List<vector> 
400
(
(-0.02 -2.18896e-11 0)
(-2.13856e-11 2.13856e-11 0)
(5.64296e-13 -5.64221e-13 0)
(-1.23284e-12 1.23291e-12 0)
(1.70313e-13 -1.70257e-13 0)
(-4.51426e-14 4.51898e-14 0)
(2.84616e-14 -2.84252e-14 0)
(2.44845e-16 -2.12626e-16 0)
(3.31038e-15 -3.28325e-15 0)
(6.12114e-16 -5.86261e-16 0)
(5.22778e-16 -5.00732e-16 0)
(2.06795e-16 -1.85041e-16 0)
(2.18376e-16 -2.00083e-16 0)
(3.58996e-16 -3.41669e-16 0)
(5.691e-16 -5.51122e-16 0)
(7.21301e-16 -7.05117e-16 0)
(6.45201e-16 -6.31467e-16 0)
(3.98701e-16 -3.85637e-16 0)
(4.11936e-16 -3.90607e-16 0)
(5.29396e-16 -5.21226e-16 0)
(-0.02 6.70403e-11 0)
(6.56384e-11 -6.56383e-11 0)
(-2.16163e-12 2.16169e-12 0)
(3.97671e-12 -3.97665e-12 0)
(-5.48682e-13 5.48732e-13 0)
(1.90819e-13 -1.90778e-13 0)
(-7.17645e-14 7.17994e-14 0)
(1.50166e-14 -1.49848e-14 0)
(-3.70742e-15 3.73342e-15 0)
(1.89259e-15 -1.86647e-15 0)
(-1.75362e-16 1.97808e-16 0)
(1.0257e-16 -8.21926e-17 0)
(2.15067e-17 -1.47522e-19 0)
(2.48154e-16 -2.30402e-16 0)
(4.73147e-16 -4.56887e-16 0)
(6.28657e-16 -6.12961e-16 0)
(5.98879e-16 -5.81731e-16 0)
(3.95392e-16 -3.80543e-16 0)
(4.10282e-16 -3.99124e-16 0)
(4.94654e-16 -4.83766e-16 0)
(-0.02 -1.12136e-10 0)
(-1.10192e-10 1.10192e-10 0)
(3.94539e-12 -3.94536e-12 0)
(-6.70902e-12 6.70906e-12 0)
(9.9619e-13 -9.96155e-13 0)
(-3.03663e-13 3.03695e-13 0)
(1.36644e-13 -1.36613e-13 0)
(-1.90185e-14 1.90441e-14 0)
(9.89473e-15 -9.87215e-15 0)
(-2.4865e-15 2.51042e-15 0)
(2.465e-16 -2.27802e-16 0)
(-4.79765e-16 4.98087e-16 0)
(-1.09188e-16 1.27947e-16 0)
(6.61744e-17 -4.9659e-17 0)
(3.42453e-16 -3.24728e-16 0)
(5.39322e-16 -5.25579e-16 0)
(5.11198e-16 -4.97538e-16 0)
(2.79587e-16 -2.67871e-16 0)
(3.40798e-16 -3.17539e-16 0)
(4.74802e-16 -4.72229e-16 0)
(-0.02 1.55089e-10 0)
(1.51299e-10 -1.51299e-10 0)
(-4.76756e-12 4.76758e-12 0)
(9.56322e-12 -9.56319e-12 0)
(-1.28603e-12 1.28605e-12 0)
(4.47252e-13 -4.47229e-13 0)
(-1.80744e-13 1.80768e-13 0)
(2.72275e-14 -2.72066e-14 0)
(-1.47139e-14 1.47329e-14 0)
(2.18541e-15 -2.16885e-15 0)
(-1.67918e-15 1.69777e-15 0)
(-3.97047e-16 4.13357e-16 0)
(-4.76456e-16 4.91302e-16 0)
(-8.93355e-17 1.03621e-16 0)
(1.72054e-16 -1.58638e-16 0)
(3.57342e-16 -3.44482e-16 0)
(3.82157e-16 -3.68918e-16 0)
(2.69661e-16 -2.54868e-16 0)
(2.99439e-16 -2.93963e-16 0)
(3.98701e-16 -3.88811e-16 0)
(-0.02 -1.83127e-10 0)
(-1.76766e-10 1.76766e-10 0)
(4.36334e-12 -4.36334e-12 0)
(-1.18001e-11 1.18001e-11 0)
(1.48226e-12 -1.48225e-12 0)
(-5.88208e-13 5.88224e-13 0)
(2.14453e-13 -2.14439e-13 0)
(-4.03945e-14 4.04093e-14 0)
(1.50927e-14 -1.50789e-14 0)
(-6.04834e-15 6.06406e-15 0)
(-3.65614e-16 3.78479e-16 0)
(-1.36154e-15 1.37425e-15 0)
(-5.8399e-16 5.96093e-16 0)
(-3.4907e-16 3.60244e-16 0)
(-8.27181e-18 2.05773e-17 0)
(2.24993e-16 -2.14449e-16 0)
(2.53117e-16 -2.44688e-16 0)
(1.04225e-16 -9.82744e-17 0)
(2.00178e-16 -1.79141e-16 0)
(3.57342e-16 -3.56822e-16 0)
(-0.02 1.93722e-10 0)
(1.85751e-10 -1.85751e-10 0)
(-3.45222e-12 3.45222e-12 0)
(1.26479e-11 -1.26479e-11 0)
(-1.60988e-12 1.60988e-12 0)
(6.30896e-13 -6.30888e-13 0)
(-2.55736e-13 2.55745e-13 0)
(3.73968e-14 -3.73879e-14 0)
(-2.44912e-14 2.45009e-14 0)
(2.3889e-15 -2.37898e-15 0)
(-3.10689e-15 3.1153e-15 0)
(-8.70194e-16 8.78376e-16 0)
(-9.74419e-16 9.82566e-16 0)
(-4.61567e-16 4.72319e-16 0)
(-1.90252e-16 1.97655e-16 0)
(1.8198e-17 -9.49655e-18 0)
(9.5953e-17 -8.89654e-17 0)
(9.26442e-17 -8.06877e-17 0)
(1.50547e-16 -1.53164e-16 0)
(2.56426e-16 -2.4747e-16 0)
(-0.02 -1.98497e-10 0)
(-1.8949e-10 1.8949e-10 0)
(2.80957e-12 -2.80958e-12 0)
(-1.29293e-11 1.29293e-11 0)
(1.57352e-12 -1.57352e-12 0)
(-6.6909e-13 6.69092e-13 0)
(2.51072e-13 -2.51069e-13 0)
(-4.95713e-14 4.95758e-14 0)
(1.90715e-14 -1.90678e-14 0)
(-8.00049e-15 8.00605e-15 0)
(-5.34359e-16 5.3948e-16 0)
(-1.88763e-15 1.89356e-15 0)
(-8.78466e-16 8.83224e-16 0)
(-6.70016e-16 6.75077e-16 0)
(-3.29218e-16 3.3554e-16 0)
(-1.00916e-16 1.04385e-16 0)
(-2.15067e-17 2.51201e-17 0)
(-8.27181e-17 8.14397e-17 0)
(4.30134e-17 -2.45915e-17 0)
(2.10104e-16 -2.13056e-16 0)
(-0.02 1.9793e-10 0)
(1.88768e-10 -1.88768e-10 0)
(-2.49248e-12 2.49247e-12 0)
(1.28212e-11 -1.28212e-11 0)
(-1.55906e-12 1.55905e-12 0)
(6.46119e-13 -6.46122e-13 0)
(-2.63164e-13 2.63162e-13 0)
(4.01282e-14 -4.01301e-14 0)
(-2.62961e-14 2.62954e-14 0)
(2.83227e-15 -2.8318e-15 0)
(-3.37324e-15 3.37594e-15 0)
(-9.41332e-16 9.40309e-16 0)
(-1.14316e-15 1.14543e-15 0)
(-6.58436e-16 6.59421e-16 0)
(-4.41714e-16 4.44339e-16 0)
(-2.69661e-16 2.70684e-16 0)
(-1.60473e-16 1.62103e-16 0)
(-7.44463e-17 8.11966e-17 0)
(0 -7.81976e-18 0)
(1.00916e-16 -9.61317e-17 0)
(-0.02 -1.9402e-10 0)
(-1.84804e-10 1.84804e-10 0)
(2.27696e-12 -2.27697e-12 0)
(-1.25446e-11 1.25446e-11 0)
(1.4898e-12 -1.4898e-12 0)
(-6.43983e-13 6.43974e-13 0)
(2.46343e-13 -2.46351e-13 0)
(-4.73925e-14 4.7386e-14 0)
(1.95215e-14 -1.9527e-14 0)
(-7.58855e-15 7.58679e-15 0)
(-3.01094e-16 2.97659e-16 0)
(-1.77844e-15 1.77418e-15 0)
(-8.5365e-16 8.53065e-16 0)
(-7.49426e-16 7.47374e-16 0)
(-4.96308e-16 4.94542e-16 0)
(-3.20946e-16 3.20695e-16 0)
(-2.33265e-16 2.29367e-16 0)
(-2.26647e-16 2.20121e-16 0)
(-9.76073e-17 1.10291e-16 0)
(5.62483e-17 -6.28326e-17 0)
(-0.02 1.86667e-10 0)
(1.77812e-10 -1.77812e-10 0)
(-2.11785e-12 2.11783e-12 0)
(1.20331e-11 -1.20331e-11 0)
(-1.43296e-12 1.43294e-12 0)
(6.07038e-13 -6.0705e-13 0)
(-2.45155e-13 2.45143e-13 0)
(3.89006e-14 -3.89112e-14 0)
(-2.39651e-14 2.39547e-14 0)
(3.25082e-15 -3.25783e-15 0)
(-2.80745e-15 2.80073e-15 0)
(-6.46855e-16 6.4082e-16 0)
(-9.62838e-16 9.56315e-16 0)
(-6.18731e-16 6.13514e-16 0)
(-5.17815e-16 5.12639e-16 0)
(-4.23516e-16 4.18001e-16 0)
(-3.19292e-16 3.16718e-16 0)
(-1.85288e-16 1.86651e-16 0)
(-1.24077e-16 1.08503e-16 0)
(-4.1359e-17 4.35014e-17 0)
(-0.02 -1.76707e-10 0)
(-1.68246e-10 1.68246e-10 0)
(1.96387e-12 -1.96389e-12 0)
(-1.1379e-11 1.1379e-11 0)
(1.34334e-12 -1.34336e-12 0)
(-5.81389e-13 5.81374e-13 0)
(2.26161e-13 -2.26176e-13 0)
(-4.19083e-14 4.18941e-14 0)
(1.85851e-14 -1.85989e-14 0)
(-6.20551e-15 6.19218e-15 0)
(2.34919e-16 -2.45313e-16 0)
(-1.25731e-15 1.2474e-15 0)
(-5.60828e-16 5.51065e-16 0)
(-5.98879e-16 5.89523e-16 0)
(-4.83073e-16 4.7739e-16 0)
(-4.03664e-16 3.95977e-16 0)
(-3.35835e-16 3.26189e-16 0)
(-2.96131e-16 2.83698e-16 0)
(-2.01832e-16 2.05147e-16 0)
(-7.61006e-17 6.69144e-17 0)
(-0.02 1.64196e-10 0)
(1.56358e-10 -1.56358e-10 0)
(-1.79894e-12 1.79892e-12 0)
(1.05542e-11 -1.05542e-11 0)
(-1.25201e-12 1.25199e-12 0)
(5.34972e-13 -5.34993e-13 0)
(-2.15136e-13 2.15116e-13 0)
(3.55291e-14 -3.55447e-14 0)
(-1.99533e-14 1.99363e-14 0)
(3.62967e-15 -3.64432e-15 0)
(-1.84958e-15 1.83406e-15 0)
(-1.20768e-16 1.06919e-16 0)
(-5.39322e-16 5.26881e-16 0)
(-3.80503e-16 3.69142e-16 0)
(-4.16899e-16 4.0613e-16 0)
(-4.31788e-16 4.19087e-16 0)
(-3.77194e-16 3.66013e-16 0)
(-2.33265e-16 2.2966e-16 0)
(-2.00178e-16 1.79647e-16 0)
(-1.5551e-16 1.52992e-16 0)
(-0.02 -1.49786e-10 0)
(-1.42608e-10 1.42608e-10 0)
(1.62752e-12 -1.62755e-12 0)
(-9.62328e-12 9.62325e-12 0)
(1.13959e-12 -1.13961e-12 0)
(-4.92181e-13 4.92158e-13 0)
(1.94665e-13 -1.94687e-13 0)
(-3.47267e-14 3.4706e-14 0)
(1.65585e-14 -1.65779e-14 0)
(-4.39564e-15 4.37764e-15 0)
(8.88392e-16 -9.04959e-16 0)
(-5.19469e-16 5.03859e-16 0)
(-8.43724e-17 6.96198e-17 0)
(-2.74624e-16 2.6066e-16 0)
(-3.19292e-16 3.05002e-16 0)
(-3.50725e-16 3.37591e-16 0)
(-3.27564e-16 3.15266e-16 0)
(-2.87859e-16 2.6846e-16 0)
(-2.44845e-16 2.42078e-16 0)
(-1.86943e-16 1.76148e-16 0)
(-0.02 1.33599e-10 0)
(1.27203e-10 -1.27203e-10 0)
(-1.43351e-12 1.43349e-12 0)
(8.57137e-12 -8.57139e-12 0)
(-1.0211e-12 1.02108e-12 0)
(4.37994e-13 -4.38018e-13 0)
(-1.7606e-13 1.76036e-13 0)
(3.03311e-14 -3.03542e-14 0)
(-1.49951e-14 1.49742e-14 0)
(3.88444e-15 -3.90551e-15 0)
(-6.93177e-16 6.73091e-16 0)
(5.32704e-16 -5.49629e-16 0)
(2.97785e-17 -4.78221e-17 0)
(-8.27181e-18 -7.63189e-18 0)
(-1.91906e-16 1.74623e-16 0)
(-3.19292e-16 3.03911e-16 0)
(-3.20946e-16 3.05707e-16 0)
(-1.91906e-16 1.81606e-16 0)
(-2.13413e-16 1.93014e-16 0)
(-2.54772e-16 2.49144e-16 0)
(-0.02 -1.161e-10 0)
(-1.1052e-10 1.1052e-10 0)
(1.2191e-12 -1.21912e-12 0)
(-7.4451e-12 7.44507e-12 0)
(8.87414e-13 -8.87442e-13 0)
(-3.8252e-13 3.82495e-13 0)
(1.54362e-13 -1.54387e-13 0)
(-2.60661e-14 2.6042e-14 0)
(1.38106e-14 -1.38341e-14 0)
(-2.29294e-15 2.27098e-15 0)
(1.60804e-15 -1.62709e-15 0)
(3.4907e-16 -3.69554e-16 0)
(4.93e-16 -5.12439e-16 0)
(1.58819e-16 -1.77832e-16 0)
(-4.63221e-17 2.94829e-17 0)
(-2.00178e-16 1.82171e-16 0)
(-2.33265e-16 2.18061e-16 0)
(-1.86943e-16 1.67224e-16 0)
(-2.18376e-16 2.09625e-16 0)
(-2.86204e-16 2.74013e-16 0)
(-0.02 9.77191e-11 0)
(9.30392e-11 -9.30392e-11 0)
(-1.03935e-12 1.03932e-12 0)
(6.2618e-12 -6.26183e-12 0)
(-7.57838e-13 7.5781e-13 0)
(3.24432e-13 -3.24459e-13 0)
(-1.30253e-13 1.30227e-13 0)
(2.41007e-14 -2.41244e-14 0)
(-9.2942e-15 9.27037e-15 0)
(4.16899e-15 -4.19183e-15 0)
(6.18731e-16 -6.40688e-16 0)
(1.27055e-15 -1.28996e-15 0)
(6.81597e-16 -7.03623e-16 0)
(4.36751e-16 -4.56119e-16 0)
(1.10842e-16 -1.2896e-16 0)
(-1.2904e-16 1.11509e-16 0)
(-1.9356e-16 1.75206e-16 0)
(-8.60268e-17 7.33666e-17 0)
(-1.73708e-16 1.53025e-16 0)
(-3.25909e-16 3.18734e-16 0)
(-0.02 -7.8545e-11 0)
(-7.47629e-11 7.47629e-11 0)
(8.03752e-13 -8.0378e-13 0)
(-5.04926e-12 5.04924e-12 0)
(6.15083e-13 -6.1511e-13 0)
(-2.61882e-13 2.61855e-13 0)
(1.09907e-13 -1.09934e-13 0)
(-1.6044e-14 1.6019e-14 0)
(1.12133e-14 -1.12365e-14 0)
(1.27386e-16 -1.49482e-16 0)
(2.45342e-15 -2.47673e-15 0)
(1.28709e-15 -1.30703e-15 0)
(1.10842e-15 -1.13052e-15 0)
(6.23694e-16 -6.42809e-16 0)
(2.59735e-16 -2.79996e-16 0)
(-1.15805e-17 -6.67582e-18 0)
(-9.42986e-17 7.71227e-17 0)
(-5.29396e-17 3.54158e-17 0)
(-1.80325e-16 1.63778e-16 0)
(-3.4907e-16 3.3861e-16 0)
(-0.02 5.87803e-11 0)
(5.5958e-11 -5.5958e-11 0)
(-5.9449e-13 5.94464e-13 0)
(3.72734e-12 -3.72737e-12 0)
(-4.58662e-13 4.58636e-13 0)
(1.97933e-13 -1.97959e-13 0)
(-7.54984e-14 7.54733e-14 0)
(1.7614e-14 -1.76392e-14 0)
(-2.46169e-15 2.44078e-15 0)
(4.6074e-15 -4.63057e-15 0)
(2.06133e-15 -2.08398e-15 0)
(1.99681e-15 -2.01778e-15 0)
(1.3086e-15 -1.32914e-15 0)
(8.47033e-16 -8.67574e-16 0)
(3.95392e-16 -4.16866e-16 0)
(6.61744e-17 -8.35494e-17 0)
(-6.61744e-17 4.96578e-17 0)
(-3.63959e-17 2.22079e-17 0)
(-2.00178e-16 1.77952e-16 0)
(-3.70577e-16 3.59993e-16 0)
(-0.02 -4.15127e-11 0)
(-4.02037e-11 4.02037e-11 0)
(1.13494e-12 -1.13497e-12 0)
(-2.81845e-12 2.81843e-12 0)
(4.38747e-13 -4.38771e-13 0)
(-1.5107e-13 1.51044e-13 0)
(7.21517e-14 -7.21739e-14 0)
(-5.56858e-15 5.5447e-15 0)
(9.73757e-15 -9.75989e-15 0)
(2.54937e-15 -2.57029e-15 0)
(3.23097e-15 -3.25178e-15 0)
(2.06961e-15 -2.09079e-15 0)
(1.58653e-15 -1.60621e-15 0)
(9.82691e-16 -1.00132e-15 0)
(4.93e-16 -5.13091e-16 0)
(1.32349e-16 -1.50064e-16 0)
(1.15805e-17 -2.74247e-17 0)
(6.45201e-17 -8.12655e-17 0)
(-1.1746e-16 9.89231e-17 0)
(-4.05319e-16 3.95652e-16 0)
(-0.02 1.75769e-11 0)
(1.71523e-11 -1.71523e-11 0)
(-8.50818e-13 8.50806e-13 0)
(1.37403e-12 -1.37404e-12 0)
(-2.1012e-13 2.10108e-13 0)
(1.01593e-13 -1.01602e-13 0)
(-2.07986e-14 2.07862e-14 0)
(1.4115e-14 -1.41252e-14 0)
(2.99109e-15 -3.00256e-15 0)
(4.81585e-15 -4.8259e-15 0)
(2.94145e-15 -2.95124e-15 0)
(2.36905e-15 -2.37916e-15 0)
(1.64278e-15 -1.65352e-15 0)
(1.06706e-15 -1.07588e-15 0)
(5.59174e-16 -5.67634e-16 0)
(2.03486e-16 -2.1164e-16 0)
(1.19114e-16 -1.25799e-16 0)
(2.71315e-16 -2.819e-16 0)
(6.61744e-17 -7.60348e-17 0)
(-4.6653e-16 4.66643e-16 0)
)
;

boundaryField
{
    movingWall
    {
        type            extrapolatedCalculated;
        value           nonuniform List<vector> 
20
(
(-0.02 1.75769e-11 0)
(1.71523e-11 -1.71523e-11 0)
(-8.50818e-13 8.50806e-13 0)
(1.37403e-12 -1.37404e-12 0)
(-2.1012e-13 2.10108e-13 0)
(1.01593e-13 -1.01602e-13 0)
(-2.07986e-14 2.07862e-14 0)
(1.4115e-14 -1.41252e-14 0)
(2.99109e-15 -3.00256e-15 0)
(4.81585e-15 -4.8259e-15 0)
(2.94145e-15 -2.95124e-15 0)
(2.36905e-15 -2.37916e-15 0)
(1.64278e-15 -1.65352e-15 0)
(1.06706e-15 -1.07588e-15 0)
(5.59174e-16 -5.67634e-16 0)
(2.03486e-16 -2.1164e-16 0)
(1.19114e-16 -1.25799e-16 0)
(2.71315e-16 -2.819e-16 0)
(6.61744e-17 -7.60348e-17 0)
(-4.6653e-16 4.66643e-16 0)
)
;
    }
    fixedWalls
    {
        type            extrapolatedCalculated;
        value           nonuniform List<vector> 
60
(
(-0.02 -2.18896e-11 0)
(-0.02 6.70403e-11 0)
(-0.02 -1.12136e-10 0)
(-0.02 1.55089e-10 0)
(-0.02 -1.83127e-10 0)
(-0.02 1.93722e-10 0)
(-0.02 -1.98497e-10 0)
(-0.02 1.9793e-10 0)
(-0.02 -1.9402e-10 0)
(-0.02 1.86667e-10 0)
(-0.02 -1.76707e-10 0)
(-0.02 1.64196e-10 0)
(-0.02 -1.49786e-10 0)
(-0.02 1.33599e-10 0)
(-0.02 -1.161e-10 0)
(-0.02 9.77191e-11 0)
(-0.02 -7.8545e-11 0)
(-0.02 5.87803e-11 0)
(-0.02 -4.15127e-11 0)
(-0.02 1.75769e-11 0)
(5.29396e-16 -5.21226e-16 0)
(4.94654e-16 -4.83766e-16 0)
(4.74802e-16 -4.72229e-16 0)
(3.98701e-16 -3.88811e-16 0)
(3.57342e-16 -3.56822e-16 0)
(2.56426e-16 -2.4747e-16 0)
(2.10104e-16 -2.13056e-16 0)
(1.00916e-16 -9.61317e-17 0)
(5.62483e-17 -6.28326e-17 0)
(-4.1359e-17 4.35014e-17 0)
(-7.61006e-17 6.69144e-17 0)
(-1.5551e-16 1.52992e-16 0)
(-1.86943e-16 1.76148e-16 0)
(-2.54772e-16 2.49144e-16 0)
(-2.86204e-16 2.74013e-16 0)
(-3.25909e-16 3.18734e-16 0)
(-3.4907e-16 3.3861e-16 0)
(-3.70577e-16 3.59993e-16 0)
(-4.05319e-16 3.95652e-16 0)
(-4.6653e-16 4.66643e-16 0)
(-0.02 -2.18896e-11 0)
(-2.13856e-11 2.13856e-11 0)
(5.64296e-13 -5.64221e-13 0)
(-1.23284e-12 1.23291e-12 0)
(1.70313e-13 -1.70257e-13 0)
(-4.51426e-14 4.51898e-14 0)
(2.84616e-14 -2.84252e-14 0)
(2.44845e-16 -2.12626e-16 0)
(3.31038e-15 -3.28325e-15 0)
(6.12114e-16 -5.86261e-16 0)
(5.22778e-16 -5.00732e-16 0)
(2.06795e-16 -1.85041e-16 0)
(2.18376e-16 -2.00083e-16 0)
(3.58996e-16 -3.41669e-16 0)
(5.691e-16 -5.51122e-16 0)
(7.21301e-16 -7.05117e-16 0)
(6.45201e-16 -6.31467e-16 0)
(3.98701e-16 -3.85637e-16 0)
(4.11936e-16 -3.90607e-16 0)
(5.29396e-16 -5.21226e-16 0)
)
;
    }
    frontAndBack
    {
        type            empty;
    }
}


// ************************************************************************* //
