/*--------------------------------*- C++ -*----------------------------------*\
| =========                 |                                                 |
| \\      /  F ield         | OpenFOAM: The Open Source CFD Toolbox           |
|  \\    /   O peration     | Version:  2312                                  |
|   \\  /    A nd           | Website:  www.openfoam.com                      |
|    \\/     M anipulation  |                                                 |
\*---------------------------------------------------------------------------*/
FoamFile
{
    version     2.0;
    format      ascii;
    arch        "LSB;label=32;scalar=64";
    class       volScalarField;
    location    "3.5";
    object      initialResidual:p;
}
// * * * * * * * * * * * * * * * * * * * * * * * * * * * * * * * * * * * * * //

dimensions      [0 0 0 0 0 0 0];

internalField   nonuniform List<scalar> 
400
(
-3.52854e-16
1.54277e-15
-2.75806e-16
9.35715e-17
-4.79431e-18
2.26607e-17
1.11651e-17
7.72995e-18
3.7695e-18
1.58763e-18
2.68839e-19
-4.26769e-19
-8.22671e-19
-8.56329e-19
-9.39103e-19
-9.49072e-19
-6.79299e-19
-5.61417e-19
-1.37112e-18
1.76583e-18
-7.18018e-16
-4.74734e-15
7.82894e-16
-2.10885e-16
1.07503e-16
3.11937e-18
1.86759e-17
6.11266e-18
4.34566e-18
1.588e-18
4.46496e-19
-2.98905e-19
-6.37846e-19
-7.05044e-19
-8.80138e-19
-7.64212e-19
-4.21412e-19
-6.02336e-19
-1.35975e-18
1.81123e-18
-6.03629e-16
8.19974e-15
-1.42429e-15
4.05015e-16
-1.37775e-16
4.7008e-17
2.01433e-18
9.89528e-18
3.34269e-18
1.88195e-18
3.95425e-19
-2.76381e-19
-6.23295e-19
-6.09035e-19
-7.12356e-19
-7.15961e-19
-5.14321e-19
-4.16996e-19
-1.13747e-18
1.61394e-18
-3.34059e-15
-1.095e-14
2.0263e-15
-4.91198e-16
2.4566e-16
-1.96339e-17
2.72919e-17
2.98095e-18
4.41389e-18
1.20556e-18
4.77657e-19
-2.16223e-19
-4.49547e-19
-4.86053e-19
-6.79738e-19
-5.10987e-19
-2.50239e-19
-4.7213e-19
-1.1963e-18
1.58964e-18
1.69111e-15
1.94446e-14
-2.86027e-15
8.97952e-16
-3.18065e-16
6.96203e-17
-1.39219e-17
1.07628e-17
2.12336e-18
1.84483e-18
3.30588e-19
-5.54791e-20
-3.71167e-19
-3.36651e-19
-4.00012e-19
-4.36762e-19
-2.7067e-19
-2.5242e-19
-8.70295e-19
1.28948e-18
2.54771e-15
-2.98996e-14
3.94996e-15
-1.43493e-15
4.76105e-16
-7.22171e-17
4.40296e-17
-2.19818e-18
4.50844e-18
5.74026e-19
5.72381e-19
-2.43143e-20
-1.40795e-19
-2.06376e-19
-3.58598e-19
-1.42074e-19
1.08018e-19
-2.71862e-19
-9.15767e-19
1.22443e-18
-8.04323e-15
3.45226e-14
-5.08772e-15
1.92193e-15
-6.00127e-16
1.33144e-16
-4.4672e-17
1.32852e-17
-9.43487e-19
1.80953e-18
1.95746e-19
1.75597e-19
-2.8173e-20
4.62861e-21
2.16894e-20
-2.30322e-20
4.81821e-20
-4.81165e-20
-4.91046e-19
8.22134e-19
1.12105e-14
-3.60718e-14
5.40725e-15
-2.01314e-15
6.26171e-16
-1.26948e-16
5.47846e-17
-8.98746e-18
4.10088e-18
-3.97558e-19
5.90639e-19
1.5738e-19
2.33728e-19
2.05944e-19
9.24215e-20
3.10039e-19
4.79812e-19
-7.53895e-20
-5.9176e-19
7.58081e-19
-1.24163e-14
3.60507e-14
-5.58553e-15
2.10813e-15
-6.63e-16
1.41997e-16
-5.58992e-17
1.12974e-17
-3.04085e-18
1.32332e-18
4.06041e-20
4.34821e-19
3.45267e-19
4.08951e-19
4.49625e-19
4.25916e-19
4.04849e-19
1.84313e-19
-1.51252e-19
3.358e-19
1.27096e-14
-3.44628e-14
5.29242e-15
-1.99583e-15
6.00878e-16
-1.37293e-16
4.88932e-17
-1.23508e-17
2.61708e-18
-1.0805e-18
4.95654e-19
3.33077e-19
5.98756e-19
5.68543e-19
4.93757e-19
7.67401e-19
8.52177e-19
1.45005e-19
-2.32038e-19
2.33665e-19
-1.19274e-14
3.26817e-14
-5.1311e-15
1.93288e-15
-6.17778e-16
1.23994e-16
-5.66388e-17
7.52137e-18
-4.41976e-18
5.67358e-19
-7.67489e-20
5.51059e-19
6.43735e-19
7.5667e-19
8.33363e-19
8.48305e-19
7.58087e-19
3.39196e-19
2.02532e-19
-1.60651e-19
1.16004e-14
-2.99526e-14
4.64226e-15
-1.7609e-15
5.17683e-16
-1.28473e-16
3.78472e-17
-1.39036e-17
7.59669e-19
-1.66783e-18
2.36667e-19
4.37164e-19
8.38387e-19
8.64887e-19
8.19653e-19
1.13515e-18
1.12791e-18
3.26608e-19
1.50735e-19
-2.97636e-19
-1.01865e-14
2.73289e-14
-4.32431e-15
1.61923e-15
-5.27266e-16
9.73947e-17
-5.19064e-17
3.6298e-18
-5.25904e-18
-2.43729e-19
-3.037e-19
6.13193e-19
8.34474e-19
9.64618e-19
1.08598e-18
1.18621e-18
1.01657e-18
4.38696e-19
5.11996e-19
-6.29918e-19
9.59869e-15
-2.40296e-14
3.73464e-15
-1.42657e-15
4.07823e-16
-1.09893e-16
2.56012e-17
-1.39202e-17
-8.41871e-19
-2.0141e-18
1.83681e-20
4.46961e-19
1.01303e-18
1.05471e-18
1.05946e-18
1.3612e-18
1.31736e-18
4.43231e-19
4.78785e-19
-7.43876e-19
-7.73869e-15
2.085e-14
-3.3134e-15
1.23185e-15
-4.10994e-16
6.73908e-17
-4.35938e-17
2.56563e-19
-5.39965e-18
-7.40143e-19
-3.16598e-19
6.53088e-19
1.04465e-18
1.1212e-18
1.28125e-18
1.436e-18
1.22831e-18
5.52179e-19
7.82672e-19
-1.00239e-18
7.1119e-15
-1.73588e-14
2.69171e-15
-1.04006e-15
2.84935e-16
-8.54795e-17
1.34837e-17
-1.27388e-17
-1.98287e-18
-1.97252e-18
-2.31024e-20
6.21138e-19
1.15812e-18
1.19559e-18
1.25107e-18
1.55962e-18
1.43371e-18
6.00666e-19
7.53671e-19
-1.10382e-18
-5.04401e-15
1.40041e-14
-2.24425e-15
8.21967e-16
-2.86145e-16
3.63921e-17
-3.45384e-17
-3.29155e-18
-5.53766e-18
-1.42002e-18
-4.8096e-19
5.47411e-19
1.05607e-18
1.16884e-18
1.35829e-18
1.53761e-18
1.33487e-18
6.0018e-19
9.09631e-19
-1.26555e-18
4.33877e-15
-1.02071e-14
1.56142e-15
-6.16896e-16
1.53222e-16
-5.92972e-17
-1.15992e-19
-1.23811e-17
-4.09971e-18
-2.65911e-18
-6.29322e-19
3.31333e-19
1.0018e-18
1.16e-18
1.2752e-18
1.60946e-18
1.54326e-18
6.54704e-19
8.44104e-19
-1.35069e-18
-2.14315e-15
7.01666e-15
-1.12781e-15
3.98498e-16
-1.48512e-16
7.23327e-18
-2.39428e-17
-6.84171e-18
-5.92318e-18
-2.47114e-18
-1.07377e-18
9.63634e-20
7.00951e-19
8.34198e-19
1.08314e-18
1.55908e-18
1.31013e-18
4.47585e-19
7.9012e-19
-1.41555e-18
1.60036e-15
-3.09376e-15
5.78313e-16
-2.04067e-16
4.6521e-17
-2.97604e-17
-6.11754e-18
-9.15341e-18
-4.45581e-18
-2.92964e-18
-1.34306e-18
-4.81233e-19
1.36004e-19
2.32071e-19
5.40244e-19
9.86481e-19
5.88202e-19
1.12003e-19
8.68062e-19
-1.3417e-18
)
;

boundaryField
{
    movingWall
    {
        type            zeroGradient;
    }
    fixedWalls
    {
        type            zeroGradient;
    }
    frontAndBack
    {
        type            empty;
    }
}


// ************************************************************************* //
