/*--------------------------------*- C++ -*----------------------------------*\
| =========                 |                                                 |
| \\      /  F ield         | OpenFOAM: The Open Source CFD Toolbox           |
|  \\    /   O peration     | Version:  2312                                  |
|   \\  /    A nd           | Website:  www.openfoam.com                      |
|    \\/     M anipulation  |                                                 |
\*---------------------------------------------------------------------------*/
FoamFile
{
    version     2.0;
    format      ascii;
    arch        "LSB;label=32;scalar=64";
    class       volScalarField;
    location    "3.5";
    object      initialResidual:k;
}
// * * * * * * * * * * * * * * * * * * * * * * * * * * * * * * * * * * * * * //

dimensions      [0 0 0 0 0 0 0];

internalField   nonuniform List<scalar> 
400
(
-8.32655e-12
-8.33301e-12
-8.32651e-12
-8.33039e-12
-8.3237e-12
-8.32972e-12
-8.32516e-12
-8.32614e-12
-8.32938e-12
-8.326e-12
-8.32717e-12
-8.32885e-12
-8.32374e-12
-8.32931e-12
-8.3234e-12
-8.32828e-12
-8.32444e-12
-8.32628e-12
-8.32599e-12
-8.32594e-12
-1.55612e-11
-1.54696e-11
-1.56039e-11
-1.55348e-11
-1.55378e-11
-1.55218e-11
-1.55194e-11
-1.55117e-11
-1.5509e-11
-1.5489e-11
-1.55115e-11
-1.54801e-11
-1.55029e-11
-1.5476e-11
-1.54953e-11
-1.54738e-11
-1.54896e-11
-1.54798e-11
-1.54823e-11
-1.54787e-11
-2.58139e-11
-2.56488e-11
-2.58792e-11
-2.57618e-11
-2.57598e-11
-2.57407e-11
-2.57012e-11
-2.57339e-11
-2.56547e-11
-2.57357e-11
-2.56203e-11
-2.57053e-11
-2.5619e-11
-2.56557e-11
-2.56398e-11
-2.56225e-11
-2.56482e-11
-2.56309e-11
-2.5635e-11
-2.56301e-11
-3.39392e-11
-3.40797e-11
-3.38356e-11
-3.38643e-11
-3.38684e-11
-3.38568e-11
-3.38043e-11
-3.38529e-11
-3.37376e-11
-3.38056e-11
-3.37088e-11
-3.37716e-11
-3.3695e-11
-3.37221e-11
-3.37047e-11
-3.3664e-11
-3.37103e-11
-3.36859e-11
-3.36884e-11
-3.36829e-11
-3.91002e-11
-3.87959e-11
-3.92333e-11
-3.89965e-11
-3.90086e-11
-3.88899e-11
-3.89277e-11
-3.88493e-11
-3.88763e-11
-3.88287e-11
-3.88292e-11
-3.87741e-11
-3.88074e-11
-3.87271e-11
-3.87911e-11
-3.87097e-11
-3.8766e-11
-3.8729e-11
-3.87359e-11
-3.87255e-11
-4.19518e-11
-4.21119e-11
-4.1816e-11
-4.18657e-11
-4.18452e-11
-4.17496e-11
-4.18106e-11
-4.1707e-11
-4.17478e-11
-4.17001e-11
-4.16685e-11
-4.16701e-11
-4.16243e-11
-4.15964e-11
-4.16302e-11
-4.15417e-11
-4.16115e-11
-4.15767e-11
-4.15793e-11
-4.15703e-11
-4.36279e-11
-4.3423e-11
-4.3732e-11
-4.34731e-11
-4.35178e-11
-4.33978e-11
-4.34331e-11
-4.33378e-11
-4.33678e-11
-4.33059e-11
-4.33093e-11
-4.3261e-11
-4.32687e-11
-4.31874e-11
-4.3263e-11
-4.31643e-11
-4.32325e-11
-4.31886e-11
-4.31963e-11
-4.31844e-11
-4.46662e-11
-4.43043e-11
-4.48035e-11
-4.45359e-11
-4.45187e-11
-4.45213e-11
-4.43499e-11
-4.44845e-11
-4.42605e-11
-4.43842e-11
-4.4246e-11
-4.42737e-11
-4.42613e-11
-4.41948e-11
-4.42686e-11
-4.41681e-11
-4.42399e-11
-4.41918e-11
-4.42002e-11
-4.4188e-11
-4.5361e-11
-4.55072e-11
-4.5225e-11
-4.52554e-11
-4.52362e-11
-4.51178e-11
-4.5179e-11
-4.51694e-11
-4.5036e-11
-4.51967e-11
-4.4914e-11
-4.50923e-11
-4.49081e-11
-4.50426e-11
-4.48991e-11
-4.49014e-11
-4.49423e-11
-4.49197e-11
-4.49219e-11
-4.49156e-11
-4.60298e-11
-4.57377e-11
-4.61811e-11
-4.58595e-11
-4.59001e-11
-4.57695e-11
-4.58038e-11
-4.5709e-11
-4.57412e-11
-4.56433e-11
-4.56854e-11
-4.56206e-11
-4.56238e-11
-4.55615e-11
-4.5604e-11
-4.55156e-11
-4.55849e-11
-4.55378e-11
-4.55461e-11
-4.55343e-11
-4.66416e-11
-4.63517e-11
-4.6752e-11
-4.64884e-11
-4.65043e-11
-4.63741e-11
-4.64117e-11
-4.63029e-11
-4.63424e-11
-4.62794e-11
-4.62532e-11
-4.6227e-11
-4.6213e-11
-4.61473e-11
-4.62083e-11
-4.61137e-11
-4.61838e-11
-4.61361e-11
-4.61436e-11
-4.61317e-11
-4.72337e-11
-4.7421e-11
-4.70786e-11
-4.70868e-11
-4.71043e-11
-4.70563e-11
-4.69673e-11
-4.71872e-11
-4.67603e-11
-4.70379e-11
-4.67626e-11
-4.69418e-11
-4.67583e-11
-4.68622e-11
-4.6765e-11
-4.67251e-11
-4.68011e-11
-4.67645e-11
-4.67666e-11
-4.67579e-11
-4.79739e-11
-4.77333e-11
-4.80652e-11
-4.78044e-11
-4.7833e-11
-4.77025e-11
-4.77372e-11
-4.76501e-11
-4.76492e-11
-4.76171e-11
-4.75657e-11
-4.75348e-11
-4.75397e-11
-4.74587e-11
-4.75322e-11
-4.7425e-11
-4.75035e-11
-4.74509e-11
-4.74594e-11
-4.74466e-11
-4.87843e-11
-4.8363e-11
-4.89534e-11
-4.86258e-11
-4.86131e-11
-4.85656e-11
-4.8457e-11
-4.85537e-11
-4.83218e-11
-4.84857e-11
-4.82623e-11
-4.83769e-11
-4.82628e-11
-4.82704e-11
-4.82839e-11
-4.82106e-11
-4.82769e-11
-4.82291e-11
-4.82384e-11
-4.82257e-11
-4.96311e-11
-4.99694e-11
-4.93326e-11
-4.97562e-11
-4.9289e-11
-4.94827e-11
-4.93065e-11
-4.95231e-11
-4.91727e-11
-4.94702e-11
-4.91071e-11
-4.929e-11
-4.91563e-11
-4.9148e-11
-4.91808e-11
-4.91565e-11
-4.9138e-11
-4.91349e-11
-4.91259e-11
-4.91247e-11
-5.07209e-11
-5.09109e-11
-5.05702e-11
-5.05009e-11
-5.05996e-11
-5.05701e-11
-5.04187e-11
-5.04685e-11
-5.03658e-11
-5.02857e-11
-5.03906e-11
-5.02412e-11
-5.03221e-11
-5.02166e-11
-5.02749e-11
-5.01932e-11
-5.02093e-11
-5.01865e-11
-5.01885e-11
-5.01834e-11
-5.20698e-11
-5.17144e-11
-5.22028e-11
-5.18883e-11
-5.18945e-11
-5.17694e-11
-5.17741e-11
-5.1746e-11
-5.16438e-11
-5.16535e-11
-5.15891e-11
-5.1543e-11
-5.15763e-11
-5.14674e-11
-5.15588e-11
-5.14354e-11
-5.152e-11
-5.1462e-11
-5.14719e-11
-5.14568e-11
-5.35473e-11
-5.37999e-11
-5.33299e-11
-5.34307e-11
-5.33425e-11
-5.33436e-11
-5.32093e-11
-5.34712e-11
-5.29825e-11
-5.33252e-11
-5.29548e-11
-5.32128e-11
-5.29471e-11
-5.30558e-11
-5.29929e-11
-5.29355e-11
-5.30129e-11
-5.29728e-11
-5.29731e-11
-5.29637e-11
-5.5142e-11
-5.48444e-11
-5.52541e-11
-5.49549e-11
-5.49643e-11
-5.48515e-11
-5.48318e-11
-5.48473e-11
-5.46576e-11
-5.48285e-11
-5.45367e-11
-5.47308e-11
-5.45119e-11
-5.45812e-11
-5.45513e-11
-5.44921e-11
-5.45587e-11
-5.45088e-11
-5.45192e-11
-5.4505e-11
-5.554e-11
-5.55776e-11
-5.55552e-11
-5.55533e-11
-5.555e-11
-5.55512e-11
-5.55563e-11
-5.55513e-11
-5.55534e-11
-5.55568e-11
-5.55438e-11
-5.55579e-11
-5.55429e-11
-5.55547e-11
-5.55447e-11
-5.55501e-11
-5.55478e-11
-5.5549e-11
-5.55484e-11
-5.55484e-11
)
;

boundaryField
{
    movingWall
    {
        type            zeroGradient;
    }
    fixedWalls
    {
        type            zeroGradient;
    }
    frontAndBack
    {
        type            empty;
    }
}


// ************************************************************************* //
