/*--------------------------------*- C++ -*----------------------------------*\
| =========                 |                                                 |
| \\      /  F ield         | OpenFOAM: The Open Source CFD Toolbox           |
|  \\    /   O peration     | Version:  2312                                  |
|   \\  /    A nd           | Website:  www.openfoam.com                      |
|    \\/     M anipulation  |                                                 |
\*---------------------------------------------------------------------------*/
FoamFile
{
    version     2.0;
    format      ascii;
    arch        "LSB;label=32;scalar=64";
    class       volScalarField;
    location    "3.5";
    object      initialResidual:Uy;
}
// * * * * * * * * * * * * * * * * * * * * * * * * * * * * * * * * * * * * * //

dimensions      [0 0 0 0 0 0 0];

internalField   nonuniform List<scalar> 
400
(
-1.01671e-13
4.16783e-14
-9.37817e-15
2.07856e-15
-4.94952e-16
7.35106e-17
-4.76363e-17
-1.62978e-17
-1.84864e-17
-1.44854e-17
-1.25906e-17
-1.07626e-17
-9.34572e-18
-8.38673e-18
-7.51147e-18
-6.55861e-18
-5.17939e-18
-3.86622e-18
-7.24555e-18
-1.91047e-18
1.09436e-13
-4.45953e-14
9.90532e-15
-2.34536e-15
3.86933e-16
-2.01412e-16
-5.23533e-17
-6.75818e-17
-5.05816e-17
-4.36317e-17
-3.70662e-17
-3.18547e-17
-2.77905e-17
-2.47922e-17
-2.2369e-17
-1.98532e-17
-1.47878e-17
-1.16417e-17
-2.17761e-17
-5.49943e-18
-1.25679e-13
5.1769e-14
-1.18757e-14
2.44287e-15
-7.71448e-16
-2.49269e-17
-1.53445e-16
-9.57201e-17
-8.48166e-17
-6.9828e-17
-6.00381e-17
-5.15457e-17
-4.508e-17
-4.03083e-17
-3.63432e-17
-3.2202e-17
-2.42515e-17
-1.90197e-17
-3.54497e-17
-9.013e-18
1.5674e-13
-6.45374e-14
1.38506e-14
-3.62744e-15
4.2731e-16
-3.80859e-16
-1.34317e-16
-1.43437e-16
-1.09443e-16
-9.37441e-17
-8.01123e-17
-6.91464e-17
-6.06175e-17
-5.42913e-17
-4.90549e-17
-4.36735e-17
-3.27207e-17
-2.57855e-17
-4.82071e-17
-1.22278e-17
-2.24708e-13
8.71586e-14
-2.04256e-14
3.78303e-15
-1.28721e-15
-5.05801e-17
-2.46223e-16
-1.51352e-16
-1.34816e-16
-1.11681e-16
-9.69005e-17
-8.38293e-17
-7.38178e-17
-6.63428e-17
-6.008e-17
-5.35218e-17
-4.03178e-17
-3.1816e-17
-5.94894e-17
-1.51204e-17
2.7765e-13
-1.16612e-13
2.61256e-14
-6.53581e-15
9.81836e-16
-5.71206e-16
-1.55787e-16
-1.89824e-16
-1.44454e-16
-1.26123e-16
-1.09208e-16
-9.52942e-17
-8.43135e-17
-7.60747e-17
-6.91302e-17
-6.18136e-17
-4.65397e-17
-3.68648e-17
-6.91319e-17
-1.75642e-17
-3.12426e-13
1.32042e-13
-3.16408e-14
6.82802e-15
-2.01312e-15
1.15772e-16
-3.07943e-16
-1.63006e-16
-1.59151e-16
-1.32842e-16
-1.17805e-16
-1.03236e-16
-9.19291e-17
-8.33458e-17
-7.59949e-17
-6.80912e-17
-5.14579e-17
-4.08975e-17
-7.68098e-17
-1.95355e-17
3.41109e-13
-1.4646e-13
3.40652e-14
-8.50646e-15
1.60533e-15
-7.08353e-16
-1.09216e-16
-2.06733e-16
-1.51014e-16
-1.38587e-16
-1.21675e-16
-1.07986e-16
-9.66308e-17
-8.80425e-17
-8.05773e-17
-7.24749e-17
-5.48466e-17
-4.37472e-17
-8.245e-17
-2.09715e-17
-3.65645e-13
1.56525e-13
-3.77273e-14
8.53937e-15
-2.39719e-15
2.59396e-16
-3.23919e-16
-1.48782e-16
-1.60987e-16
-1.35364e-16
-1.23186e-16
-1.09377e-16
-9.86191e-17
-9.02525e-17
-8.2929e-17
-7.47952e-17
-5.67332e-17
-4.54397e-17
-8.59257e-17
-2.18569e-17
3.87496e-13
-1.67276e-13
3.93925e-14
-9.77133e-15
2.00052e-15
-7.61635e-16
-6.40836e-17
-1.99189e-16
-1.41551e-16
-1.35153e-16
-1.20267e-16
-1.08335e-16
-9.79907e-17
-9.01339e-17
-8.31038e-17
-7.52036e-17
-5.7133e-17
-4.58807e-17
-8.72366e-17
-2.2192e-17
-4.0789e-13
1.75404e-13
-4.22477e-14
9.74627e-15
-2.6334e-15
3.66804e-16
-3.16327e-16
-1.25289e-16
-1.48848e-16
-1.25491e-16
-1.16501e-16
-1.04509e-16
-9.51777e-17
-8.78359e-17
-8.12707e-17
-7.37766e-17
-5.60527e-17
-4.51719e-17
-8.64422e-17
-2.19704e-17
4.25986e-13
-1.84138e-13
4.35937e-14
-1.07275e-14
2.29924e-15
-7.86931e-16
-1.99835e-17
-1.80906e-16
-1.22991e-16
-1.21365e-16
-1.08832e-16
-9.90528e-17
-9.02524e-17
-8.36386e-17
-7.75761e-17
-7.06311e-17
-5.3692e-17
-4.32492e-17
-8.36138e-17
-2.12656e-17
-4.42399e-13
1.90577e-13
-4.58392e-14
1.06892e-14
-2.80754e-15
4.56972e-16
-2.99802e-16
-9.71576e-17
-1.28898e-16
-1.07596e-16
-1.01323e-16
-9.1344e-17
-8.37029e-17
-7.76921e-17
-7.22783e-17
-6.59987e-17
-4.99493e-17
-4.03384e-17
-7.89381e-17
-2.00428e-17
4.5682e-13
-1.97526e-13
4.69055e-14
-1.14701e-14
2.53566e-15
-7.97716e-16
2.277e-17
-1.56901e-16
-9.87854e-17
-1.00779e-16
-9.02525e-17
-8.25709e-17
-7.54874e-17
-7.02829e-17
-6.54787e-17
-5.98856e-17
-4.53121e-17
-3.64694e-17
-7.23902e-17
-1.84024e-17
-4.69216e-13
2.023e-13
-4.85914e-14
1.1413e-14
-2.93105e-15
5.33459e-16
-2.77208e-16
-6.57932e-17
-1.0345e-16
-8.38355e-17
-7.98458e-17
-7.18912e-17
-6.60393e-17
-6.14715e-17
-5.73899e-17
-5.26641e-17
-3.95128e-17
-3.18763e-17
-6.4251e-17
-1.62853e-17
4.79874e-13
-2.07425e-13
4.93278e-14
-1.19959e-14
2.71261e-15
-7.92891e-16
6.47268e-17
-1.27446e-16
-6.96502e-17
-7.44933e-17
-6.58895e-17
-6.04425e-17
-5.51944e-17
-5.15747e-17
-4.81553e-17
-4.42219e-17
-3.31258e-17
-2.66251e-17
-5.45388e-17
-1.38256e-17
-4.88305e-13
2.10605e-13
-5.05269e-14
1.19302e-14
-3.00449e-15
6.00495e-16
-2.47478e-16
-3.03188e-17
-7.26263e-17
-5.48067e-17
-5.30754e-17
-4.74055e-17
-4.35908e-17
-4.06608e-17
-3.80823e-17
-3.51068e-17
-2.59006e-17
-2.09146e-17
-4.38467e-17
-1.10061e-17
4.95311e-13
-2.13992e-13
5.09573e-14
-1.2328e-14
2.84834e-15
-7.74583e-16
1.07894e-16
-9.37462e-17
-3.68244e-17
-4.43121e-17
-3.77253e-17
-3.46401e-17
-3.14727e-17
-2.94174e-17
-2.75109e-17
-2.53972e-17
-1.86656e-17
-1.48357e-17
-3.21873e-17
-8.08324e-18
-4.99583e-13
2.15432e-13
-5.15335e-14
1.22347e-14
-3.00633e-15
6.56039e-16
-2.09431e-16
6.76071e-18
-3.86714e-17
-2.31421e-17
-2.34607e-17
-2.01888e-17
-1.8375e-17
-1.70427e-17
-1.59847e-17
-1.50804e-17
-1.02045e-17
-7.37343e-18
-1.96972e-17
-5.22855e-18
5.03314e-13
-2.18225e-13
5.22684e-14
-1.25889e-14
3.01067e-15
-7.45781e-16
1.62309e-16
-5.43438e-17
7.36965e-19
-1.08018e-17
-6.64558e-18
-6.46003e-18
-5.54649e-18
-5.20024e-18
-4.89626e-18
-4.6539e-18
-2.74485e-18
-1.61368e-18
-6.55398e-18
-1.93643e-18
)
;

boundaryField
{
    movingWall
    {
        type            zeroGradient;
    }
    fixedWalls
    {
        type            zeroGradient;
    }
    frontAndBack
    {
        type            empty;
    }
}


// ************************************************************************* //
