/*--------------------------------*- C++ -*----------------------------------*\
| =========                 |                                                 |
| \\      /  F ield         | OpenFOAM: The Open Source CFD Toolbox           |
|  \\    /   O peration     | Version:  2312                                  |
|   \\  /    A nd           | Website:  www.openfoam.com                      |
|    \\/     M anipulation  |                                                 |
\*---------------------------------------------------------------------------*/
FoamFile
{
    version     2.0;
    format      ascii;
    arch        "LSB;label=32;scalar=64";
    class       volScalarField;
    location    "3.5";
    object      initialResidual:Ux;
}
// * * * * * * * * * * * * * * * * * * * * * * * * * * * * * * * * * * * * * //

dimensions      [0 0 0 0 0 0 0];

internalField   nonuniform List<scalar> 
400
(
-8.33773e-15
2.66157e-15
-1.51917e-15
-3.24942e-16
-5.20708e-16
-3.62252e-16
-3.03224e-16
-2.37793e-16
-1.92263e-16
-1.55583e-16
-1.26825e-16
-1.03392e-16
-8.40257e-17
-6.74374e-17
-5.29836e-17
-3.96954e-17
-2.87991e-17
-2.17179e-17
-1.22718e-17
-3.38813e-19
2.67757e-14
-1.06547e-14
2.45516e-15
-1.41416e-15
-2.48052e-16
-4.34962e-16
-2.73991e-16
-2.35245e-16
-1.83921e-16
-1.5067e-16
-1.22603e-16
-1.00255e-16
-8.15794e-17
-6.55942e-17
-5.13776e-17
-3.8889e-17
-2.8196e-17
-2.07218e-17
-1.1933e-17
-3.79471e-19
-4.82548e-14
1.77243e-14
-6.38174e-15
9.48223e-16
-8.34368e-16
-2.38552e-16
-2.96021e-16
-2.0488e-16
-1.72862e-16
-1.38378e-16
-1.13902e-16
-9.31668e-17
-7.6111e-17
-6.13523e-17
-4.84706e-17
-3.62937e-17
-2.638e-17
-2.00171e-17
-1.12215e-17
-3.11708e-19
7.00546e-14
-2.73616e-14
7.05127e-15
-2.724e-15
1.4094e-16
-4.71845e-16
-1.90989e-16
-1.97182e-16
-1.4594e-16
-1.23335e-16
-1.00722e-16
-8.33277e-17
-6.83657e-17
-5.53553e-17
-4.35375e-17
-3.33392e-17
-2.43403e-17
-1.75641e-17
-1.00763e-17
-4.06576e-19
-1.12537e-13
4.16147e-14
-1.31876e-14
2.9404e-15
-1.08634e-15
4.33681e-19
-2.3679e-16
-1.33038e-16
-1.27075e-16
-1.00946e-16
-8.5469e-17
-7.07984e-17
-5.86486e-17
-4.78065e-17
-3.81368e-17
-2.8772e-17
-2.10471e-17
-1.59039e-17
-8.77526e-18
-2.98156e-19
1.52388e-13
-5.60853e-14
1.79137e-14
-4.68547e-15
1.04804e-15
-5.00881e-16
-4.18705e-17
-1.35444e-16
-8.65397e-17
-8.11458e-17
-6.69224e-17
-5.7029e-17
-4.76033e-17
-3.91533e-17
-3.11302e-17
-2.43268e-17
-1.80249e-17
-1.24615e-17
-7.07442e-18
-4.47233e-19
-1.7131e-13
6.61254e-14
-2.17085e-14
5.82727e-15
-1.70546e-15
3.98024e-16
-2.01004e-16
-3.48232e-17
-7.33259e-17
-5.34512e-17
-4.95887e-17
-4.19044e-17
-3.57787e-17
-2.98156e-17
-2.42997e-17
-1.8567e-17
-1.37558e-17
-1.02457e-17
-5.32614e-18
-2.71051e-19
1.73515e-13
-6.58749e-14
2.17454e-14
-5.77389e-15
1.63115e-15
-5.19489e-16
9.50845e-17
-7.605e-17
-2.46453e-17
-3.63411e-17
-2.95242e-17
-2.73016e-17
-2.3683e-17
-2.01391e-17
-1.62427e-17
-1.34238e-17
-1.01576e-17
-6.1935e-18
-3.38136e-18
-4.33681e-19
-1.74596e-13
6.80394e-14
-2.23099e-14
6.19486e-15
-1.68113e-15
5.32513e-16
-1.31283e-16
3.59413e-17
-2.10403e-17
-8.77526e-18
-1.36067e-17
-1.23057e-17
-1.17433e-17
-1.04219e-17
-9.11407e-18
-7.20317e-18
-5.53621e-18
-3.7405e-18
-1.52466e-18
-2.30393e-19
1.63947e-13
-6.25005e-14
2.0795e-14
-5.43948e-15
1.68468e-15
-4.25258e-16
1.65829e-16
-1.71507e-17
2.46995e-17
4.66207e-18
4.75694e-18
1.12486e-18
-2.50722e-19
-1.11131e-18
-1.17229e-18
-2.08709e-18
-1.8567e-18
4.20128e-19
4.81115e-19
-3.79471e-19
-1.5764e-13
6.16256e-14
-2.01186e-14
5.72346e-15
-1.45224e-15
5.62281e-16
-5.95769e-17
8.49947e-17
2.39134e-17
2.86026e-17
1.82214e-17
1.44877e-17
1.051e-17
7.85369e-18
5.5091e-18
3.81504e-18
2.71728e-18
2.73761e-18
2.20906e-18
-1.49078e-19
1.4215e-13
-5.42767e-14
1.81836e-14
-4.66828e-15
1.5575e-15
-3.0567e-16
2.04074e-16
3.34476e-17
6.29244e-17
3.90381e-17
3.37322e-17
2.58176e-17
2.05456e-17
1.6114e-17
1.26784e-17
8.52454e-18
6.06476e-18
6.47133e-18
4.06576e-18
-2.30393e-19
-1.31738e-13
5.16539e-14
-1.67531e-14
4.88626e-15
-1.1415e-15
5.40183e-16
6.2816e-18
1.19344e-16
6.06408e-17
5.86553e-17
4.46149e-17
3.69374e-17
2.95852e-17
2.37305e-17
1.83569e-17
1.36677e-17
1.0117e-17
8.65329e-18
5.59042e-18
-9.48677e-20
1.13872e-13
-4.34499e-14
1.46917e-14
-3.66122e-15
1.33578e-15
-1.77193e-16
2.22783e-16
7.58264e-17
9.21843e-17
6.66513e-17
5.71239e-17
4.61192e-17
3.76896e-17
3.05067e-17
2.43539e-17
1.75912e-17
1.28681e-17
1.1872e-17
7.27771e-18
-1.89735e-19
-1.00377e-13
3.94601e-14
-1.2659e-14
3.82526e-15
-7.82204e-16
4.87017e-16
6.68478e-17
1.43149e-16
9.02734e-17
8.19386e-17
6.56078e-17
5.47319e-17
4.48114e-17
3.6497e-17
2.88601e-17
2.16705e-17
1.6114e-17
1.37423e-17
8.61941e-18
-9.48677e-20
8.20523e-14
-3.12e-14
1.07166e-14
-2.52773e-15
1.06299e-15
-4.56856e-17
2.29004e-16
1.11483e-16
1.13997e-16
8.81185e-17
7.49251e-17
6.15691e-17
5.0883e-17
4.15249e-17
3.33595e-17
2.46792e-17
1.81536e-17
1.61411e-17
9.96111e-18
-1.89735e-19
-6.77708e-14
2.68217e-14
-8.41531e-15
2.72057e-15
-4.18251e-16
4.23259e-16
1.20767e-16
1.595e-16
1.13076e-16
9.9069e-17
8.09154e-17
6.75729e-17
5.5728e-17
4.5672e-17
3.64427e-17
2.74168e-17
2.04711e-17
1.7476e-17
1.06997e-17
-1.0842e-19
4.75597e-14
-1.77987e-14
6.36964e-15
-1.28451e-15
7.53629e-16
9.00836e-17
2.25351e-16
1.40899e-16
1.28674e-16
1.03155e-16
8.67904e-17
7.18284e-17
5.95159e-17
4.87417e-17
3.916e-17
2.92938e-17
2.17111e-17
1.86754e-17
1.12147e-17
-1.76183e-19
-3.51193e-14
1.41872e-14
-4.13778e-15
1.59e-15
-5.07745e-17
3.47534e-16
1.69454e-16
1.68248e-16
1.2925e-16
1.09525e-16
9.02327e-17
7.51013e-17
6.21112e-17
5.10049e-17
4.07796e-17
3.04254e-17
2.27479e-17
2.00306e-17
1.20279e-17
-3.52366e-19
1.71997e-14
-6.80994e-15
2.84699e-15
-3.43414e-16
5.17036e-16
1.85704e-16
2.21516e-16
1.59683e-16
1.3703e-16
1.11402e-16
9.28009e-17
7.67073e-17
6.348e-17
5.20891e-17
4.16672e-17
3.09201e-17
2.31816e-17
2.12978e-17
1.32747e-17
-5.96311e-19
)
;

boundaryField
{
    movingWall
    {
        type            zeroGradient;
    }
    fixedWalls
    {
        type            zeroGradient;
    }
    frontAndBack
    {
        type            empty;
    }
}


// ************************************************************************* //
