/*--------------------------------*- C++ -*----------------------------------*\
| =========                 |                                                 |
| \\      /  F ield         | OpenFOAM: The Open Source CFD Toolbox           |
|  \\    /   O peration     | Version:  2312                                  |
|   \\  /    A nd           | Website:  www.openfoam.com                      |
|    \\/     M anipulation  |                                                 |
\*---------------------------------------------------------------------------*/
FoamFile
{
    version     2.0;
    format      ascii;
    arch        "LSB;label=32;scalar=64";
    class       volScalarField;
    location    "3.5";
    object      initialResidual:epsilon;
}
// * * * * * * * * * * * * * * * * * * * * * * * * * * * * * * * * * * * * * //

dimensions      [0 0 0 0 0 0 0];

internalField   nonuniform List<scalar> 
400
(
0
0
0
0
0
0
0
0
0
0
0
0
0
0
0
0
0
0
0
0
0
-2.65807e-11
-2.66496e-11
-2.66754e-11
-2.67626e-11
-2.68094e-11
-2.69052e-11
-2.69488e-11
-2.70505e-11
-2.70938e-11
-2.72014e-11
-2.72428e-11
-2.73574e-11
-2.7397e-11
-2.75163e-11
-2.75581e-11
-2.76778e-11
-2.77262e-11
-5.54908e-11
0
0
-5.04951e-11
-5.06833e-11
-5.07429e-11
-5.09436e-11
-5.10528e-11
-5.1273e-11
-5.13769e-11
-5.16098e-11
-5.17142e-11
-5.19607e-11
-5.20618e-11
-5.23233e-11
-5.24225e-11
-5.26937e-11
-5.2799e-11
-5.30713e-11
-5.31918e-11
-1.06483e-10
0
0
-7.2173e-11
-7.25174e-11
-7.26024e-11
-7.2918e-11
-7.30942e-11
-7.34436e-11
-7.36133e-11
-7.39825e-11
-7.41557e-11
-7.45444e-11
-7.47164e-11
-7.51279e-11
-7.52999e-11
-7.57268e-11
-7.59105e-11
-7.63399e-11
-7.65482e-11
-1.5325e-10
0
0
-8.69488e-11
-8.7257e-11
-8.74105e-11
-8.78243e-11
-8.80473e-11
-8.84873e-11
-8.87084e-11
-8.91726e-11
-8.93992e-11
-8.98897e-11
-9.01164e-11
-9.06347e-11
-9.08642e-11
-9.14017e-11
-9.1647e-11
-9.21902e-11
-9.24661e-11
-1.85137e-10
0
0
-9.55714e-11
-9.60173e-11
-9.61571e-11
-9.66147e-11
-9.68675e-11
-9.73648e-11
-9.76153e-11
-9.81393e-11
-9.83977e-11
-9.89503e-11
-9.92099e-11
-9.97945e-11
-1.00058e-10
-1.00665e-10
-1.00947e-10
-1.01559e-10
-1.01878e-10
-2.03996e-10
0
0
-1.00618e-10
-1.01065e-10
-1.01228e-10
-1.01714e-10
-1.01986e-10
-1.02514e-10
-1.02784e-10
-1.03341e-10
-1.03619e-10
-1.04207e-10
-1.04487e-10
-1.05109e-10
-1.05394e-10
-1.06039e-10
-1.06345e-10
-1.06998e-10
-1.07342e-10
-2.14945e-10
0
0
-1.03814e-10
-1.04206e-10
-1.04398e-10
-1.04914e-10
-1.05191e-10
-1.05744e-10
-1.06021e-10
-1.06604e-10
-1.06891e-10
-1.07503e-10
-1.07795e-10
-1.08441e-10
-1.08739e-10
-1.09409e-10
-1.0973e-10
-1.10408e-10
-1.10767e-10
-2.21808e-10
0
0
-1.06055e-10
-1.06544e-10
-1.0671e-10
-1.07232e-10
-1.0752e-10
-1.08085e-10
-1.08372e-10
-1.08969e-10
-1.09264e-10
-1.09895e-10
-1.10194e-10
-1.10859e-10
-1.11165e-10
-1.11855e-10
-1.12184e-10
-1.1288e-10
-1.13252e-10
-2.26785e-10
0
0
-1.08056e-10
-1.08461e-10
-1.08665e-10
-1.09204e-10
-1.095e-10
-1.10075e-10
-1.10371e-10
-1.10978e-10
-1.11284e-10
-1.11924e-10
-1.12234e-10
-1.12911e-10
-1.13228e-10
-1.1393e-10
-1.1427e-10
-1.14982e-10
-1.15363e-10
-2.31013e-10
0
0
-1.09904e-10
-1.10372e-10
-1.10563e-10
-1.11109e-10
-1.1141e-10
-1.11999e-10
-1.123e-10
-1.1292e-10
-1.13233e-10
-1.13887e-10
-1.14204e-10
-1.14894e-10
-1.15219e-10
-1.15936e-10
-1.16285e-10
-1.17011e-10
-1.17402e-10
-2.35096e-10
0
0
-1.11845e-10
-1.12383e-10
-1.12556e-10
-1.13109e-10
-1.13416e-10
-1.14019e-10
-1.14324e-10
-1.14964e-10
-1.15279e-10
-1.15951e-10
-1.16273e-10
-1.1698e-10
-1.17312e-10
-1.18045e-10
-1.18402e-10
-1.19143e-10
-1.19545e-10
-2.39387e-10
0
0
-1.14038e-10
-1.14563e-10
-1.14752e-10
-1.15318e-10
-1.15634e-10
-1.16249e-10
-1.16565e-10
-1.17213e-10
-1.17542e-10
-1.18225e-10
-1.18559e-10
-1.1928e-10
-1.19623e-10
-1.20371e-10
-1.20739e-10
-1.21497e-10
-1.2191e-10
-2.44123e-10
0
0
-1.16585e-10
-1.17005e-10
-1.17237e-10
-1.17831e-10
-1.18151e-10
-1.18785e-10
-1.19107e-10
-1.19775e-10
-1.2011e-10
-1.20813e-10
-1.21155e-10
-1.21896e-10
-1.22249e-10
-1.23016e-10
-1.23396e-10
-1.24174e-10
-1.246e-10
-2.49508e-10
0
0
-1.19354e-10
-1.19971e-10
-1.20144e-10
-1.20744e-10
-1.21074e-10
-1.21726e-10
-1.22058e-10
-1.22747e-10
-1.23092e-10
-1.23816e-10
-1.2417e-10
-1.24932e-10
-1.25297e-10
-1.26086e-10
-1.2648e-10
-1.27281e-10
-1.27721e-10
-2.55759e-10
0
0
-1.22757e-10
-1.23397e-10
-1.2358e-10
-1.24191e-10
-1.24537e-10
-1.25212e-10
-1.25555e-10
-1.26267e-10
-1.26627e-10
-1.27372e-10
-1.27743e-10
-1.28527e-10
-1.28911e-10
-1.29725e-10
-1.30137e-10
-1.30961e-10
-1.31422e-10
-2.63168e-10
0
0
-1.26954e-10
-1.27476e-10
-1.27715e-10
-1.28367e-10
-1.28724e-10
-1.29423e-10
-1.29784e-10
-1.3052e-10
-1.30898e-10
-1.31672e-10
-1.3206e-10
-1.32875e-10
-1.33276e-10
-1.34122e-10
-1.34554e-10
-1.35412e-10
-1.35895e-10
-2.72123e-10
0
0
-1.31773e-10
-1.32435e-10
-1.32643e-10
-1.33313e-10
-1.33688e-10
-1.34418e-10
-1.34795e-10
-1.35568e-10
-1.35961e-10
-1.36772e-10
-1.37178e-10
-1.38031e-10
-1.38453e-10
-1.39336e-10
-1.39793e-10
-1.40686e-10
-1.41198e-10
-2.82736e-10
0
0
-1.37572e-10
-1.38136e-10
-1.3836e-10
-1.39032e-10
-1.39405e-10
-1.40138e-10
-1.40514e-10
-1.41294e-10
-1.41688e-10
-1.42517e-10
-1.42922e-10
-1.43805e-10
-1.44225e-10
-1.45147e-10
-1.45606e-10
-1.46544e-10
-1.47066e-10
-2.94038e-10
0
0
0
0
0
0
0
0
0
0
0
0
0
0
0
0
0
0
0
0
0
)
;

boundaryField
{
    movingWall
    {
        type            zeroGradient;
    }
    fixedWalls
    {
        type            zeroGradient;
    }
    frontAndBack
    {
        type            empty;
    }
}


// ************************************************************************* //
