/*--------------------------------*- C++ -*----------------------------------*\
| =========                 |                                                 |
| \\      /  F ield         | OpenFOAM: The Open Source CFD Toolbox           |
|  \\    /   O peration     | Version:  2312                                  |
|   \\  /    A nd           | Website:  www.openfoam.com                      |
|    \\/     M anipulation  |                                                 |
\*---------------------------------------------------------------------------*/
FoamFile
{
    version     2.0;
    format      ascii;
    arch        "LSB;label=32;scalar=64";
    class       volScalarField;
    location    "3.5";
    object      k;
}
// * * * * * * * * * * * * * * * * * * * * * * * * * * * * * * * * * * * * * //

dimensions      [0 2 -2 0 0 0 0];

internalField   nonuniform List<scalar> 
400
(
4.02495e-05
4.02487e-05
4.02482e-05
4.02476e-05
4.02473e-05
4.02467e-05
4.02465e-05
4.0246e-05
4.02459e-05
4.02454e-05
4.02453e-05
4.0245e-05
4.02449e-05
4.02448e-05
4.02447e-05
4.02446e-05
4.02445e-05
4.02445e-05
4.02445e-05
4.02445e-05
5.44723e-05
5.4472e-05
5.44483e-05
5.44405e-05
5.44242e-05
5.44169e-05
5.44028e-05
5.43968e-05
5.43845e-05
5.43799e-05
5.43692e-05
5.43661e-05
5.43575e-05
5.43553e-05
5.43491e-05
5.43476e-05
5.43438e-05
5.43431e-05
5.43418e-05
5.43414e-05
7.29538e-05
7.29523e-05
7.29103e-05
7.28954e-05
7.28668e-05
7.28527e-05
7.28288e-05
7.28162e-05
7.27964e-05
7.27856e-05
7.27697e-05
7.27609e-05
7.27486e-05
7.2742e-05
7.2733e-05
7.27288e-05
7.27232e-05
7.27211e-05
7.27192e-05
7.27185e-05
8.73597e-05
8.73564e-05
8.72985e-05
8.72741e-05
8.72335e-05
8.72124e-05
8.71775e-05
8.71591e-05
8.71301e-05
8.71145e-05
8.70909e-05
8.70783e-05
8.706e-05
8.70506e-05
8.70374e-05
8.70314e-05
8.70232e-05
8.70203e-05
8.70174e-05
8.70165e-05
9.64018e-05
9.63994e-05
9.63229e-05
9.62973e-05
9.62448e-05
9.62205e-05
9.61761e-05
9.61552e-05
9.6117e-05
9.61006e-05
9.60682e-05
9.60562e-05
9.60301e-05
9.60218e-05
9.60027e-05
9.59974e-05
9.59859e-05
9.59831e-05
9.59792e-05
9.59781e-05
0.00010155
0.000101546
0.000101466
0.000101432
0.000101376
0.000101348
0.000101298
0.000101275
0.000101232
0.000101213
0.000101179
0.000101163
0.000101136
0.000101125
0.000101105
0.000101098
0.000101086
0.000101083
0.000101078
0.000101077
0.000104463
0.00010446
0.00010437
0.000104339
0.000104277
0.000104248
0.000104195
0.00010417
0.000104125
0.000104105
0.000104067
0.000104053
0.000104023
0.000104012
0.00010399
0.000103983
0.00010397
0.000103966
0.000103962
0.00010396
0.000106238
0.000106235
0.000106141
0.000106109
0.000106045
0.000106015
0.000105961
0.000105934
0.000105889
0.000105866
0.000105829
0.000105812
0.000105782
0.00010577
0.000105748
0.000105741
0.000105727
0.000105723
0.000105718
0.000105717
0.000107483
0.000107478
0.000107388
0.00010735
0.000107287
0.000107254
0.0001072
0.000107171
0.000107126
0.000107102
0.000107066
0.000107045
0.000107018
0.000107002
0.000106983
0.000106973
0.00010696
0.000106955
0.000106951
0.00010695
0.000108512
0.000108508
0.00010841
0.000108376
0.00010831
0.000108277
0.000108222
0.000108193
0.000108145
0.000108123
0.000108083
0.000108066
0.000108034
0.000108022
0.000107999
0.000107991
0.000107977
0.000107973
0.000107968
0.000107967
0.000109482
0.000109478
0.000109379
0.000109345
0.000109277
0.000109245
0.000109186
0.000109159
0.000109109
0.000109087
0.000109046
0.000109029
0.000108997
0.000108984
0.00010896
0.000108952
0.000108938
0.000108934
0.000108929
0.000108928
0.000110486
0.00011048
0.000110385
0.000110345
0.000110278
0.000110244
0.000110186
0.000110155
0.000110109
0.000110082
0.000110044
0.000110023
0.000109993
0.000109977
0.000109956
0.000109946
0.000109933
0.000109928
0.000109923
0.000109921
0.000111581
0.000111577
0.000111475
0.000111438
0.000111368
0.000111334
0.000111274
0.000111245
0.000111193
0.00011117
0.000111128
0.00011111
0.000111076
0.000111063
0.000111039
0.000111031
0.000111015
0.000111011
0.000111006
0.000111005
0.000112812
0.000112808
0.000112702
0.000112666
0.000112594
0.000112559
0.000112498
0.000112467
0.000112417
0.000112391
0.00011235
0.000112329
0.000112297
0.000112282
0.000112258
0.000112248
0.000112234
0.000112229
0.000112224
0.000112223
0.000114224
0.000114218
0.000114117
0.000114072
0.000114004
0.000113964
0.000113904
0.000113871
0.00011382
0.000113792
0.000113752
0.000113729
0.000113697
0.00011368
0.000113657
0.000113646
0.000113633
0.000113627
0.000113622
0.00011362
0.000115875
0.000115869
0.000115764
0.000115721
0.000115645
0.000115609
0.000115545
0.000115513
0.000115458
0.000115432
0.000115386
0.000115367
0.000115331
0.000115316
0.00011529
0.00011528
0.000115266
0.00011526
0.000115255
0.000115253
0.000117822
0.000117817
0.000117702
0.000117662
0.000117583
0.000117546
0.000117478
0.000117446
0.000117389
0.000117363
0.000117316
0.000117296
0.000117258
0.000117244
0.000117216
0.000117207
0.00011719
0.000117185
0.00011718
0.000117178
0.000120031
0.000120024
0.000119911
0.000119864
0.000119785
0.000119745
0.000119676
0.00011964
0.000119585
0.000119554
0.000119509
0.000119483
0.000119449
0.00011943
0.000119405
0.000119393
0.000119377
0.000119371
0.000119366
0.000119364
0.000122153
0.000122151
0.000122034
0.000121992
0.000121912
0.000121872
0.000121804
0.00012177
0.000121713
0.000121683
0.000121637
0.000121612
0.000121576
0.000121558
0.000121532
0.00012152
0.000121504
0.000121498
0.000121492
0.00012149
0.000122889
0.000122883
0.000122885
0.000122879
0.000122882
0.000122877
0.000122879
0.000122875
0.000122877
0.000122874
0.000122875
0.000122874
0.000122874
0.000122874
0.000122873
0.000122873
0.000122873
0.000122873
0.000122873
0.000122873
)
;

boundaryField
{
    movingWall
    {
        type            kqRWallFunction;
        value           nonuniform List<scalar> 
20
(
0.000122889
0.000122883
0.000122885
0.000122879
0.000122882
0.000122877
0.000122879
0.000122875
0.000122877
0.000122874
0.000122875
0.000122874
0.000122874
0.000122874
0.000122873
0.000122873
0.000122873
0.000122873
0.000122873
0.000122873
)
;
    }
    fixedWalls
    {
        type            kqRWallFunction;
        value           nonuniform List<scalar> 
60
(
4.02495e-05
5.44723e-05
7.29538e-05
8.73597e-05
9.64018e-05
0.00010155
0.000104463
0.000106238
0.000107483
0.000108512
0.000109482
0.000110486
0.000111581
0.000112812
0.000114224
0.000115875
0.000117822
0.000120031
0.000122153
0.000122889
4.02445e-05
5.43414e-05
7.27185e-05
8.70165e-05
9.59781e-05
0.000101077
0.00010396
0.000105717
0.00010695
0.000107967
0.000108928
0.000109921
0.000111005
0.000112223
0.00011362
0.000115253
0.000117178
0.000119364
0.00012149
0.000122873
4.02495e-05
4.02487e-05
4.02482e-05
4.02476e-05
4.02473e-05
4.02467e-05
4.02465e-05
4.0246e-05
4.02459e-05
4.02454e-05
4.02453e-05
4.0245e-05
4.02449e-05
4.02448e-05
4.02447e-05
4.02446e-05
4.02445e-05
4.02445e-05
4.02445e-05
4.02445e-05
)
;
    }
    frontAndBack
    {
        type            empty;
    }
}


// ************************************************************************* //
