/*--------------------------------*- C++ -*----------------------------------*\
| =========                 |                                                 |
| \\      /  F ield         | OpenFOAM: The Open Source CFD Toolbox           |
|  \\    /   O peration     | Version:  2312                                  |
|   \\  /    A nd           | Website:  www.openfoam.com                      |
|    \\/     M anipulation  |                                                 |
\*---------------------------------------------------------------------------*/
FoamFile
{
    version     2.0;
    format      ascii;
    arch        "LSB;label=32;scalar=64";
    class       volScalarField;
    location    "3.5";
    object      L_P;
}
// * * * * * * * * * * * * * * * * * * * * * * * * * * * * * * * * * * * * * //

dimensions      [0 0 0 0 0 0 0];

internalField   nonuniform List<scalar> 
400
(
-162.781
-162.782
-162.782
-162.782
-162.782
-162.783
-162.783
-162.783
-162.783
-162.783
-162.783
-162.783
-162.783
-162.783
-162.783
-162.783
-162.784
-162.784
-162.784
-162.784
-157.515
-157.701
-157.692
-157.687
-157.679
-157.674
-157.665
-157.66
-157.65
-157.644
-157.635
-157.628
-157.618
-157.611
-157.6
-157.592
-157.581
-157.573
-157.567
-157.557
-152.431
-152.655
-152.645
-152.64
-152.63
-152.625
-152.614
-152.609
-152.597
-152.591
-152.579
-152.572
-152.559
-152.551
-152.538
-152.53
-152.516
-152.507
-152.5
-152.487
-149.296
-149.547
-149.536
-149.532
-149.521
-149.516
-149.505
-149.498
-149.486
-149.479
-149.466
-149.458
-149.445
-149.436
-149.422
-149.412
-149.397
-149.386
-149.378
-149.365
-147.583
-147.85
-147.84
-147.834
-147.824
-147.818
-147.807
-147.8
-147.788
-147.78
-147.767
-147.758
-147.745
-147.735
-147.72
-147.71
-147.694
-147.683
-147.674
-147.66
-146.678
-146.954
-146.943
-146.938
-146.928
-146.922
-146.91
-146.903
-146.891
-146.883
-146.87
-146.861
-146.847
-146.837
-146.822
-146.811
-146.795
-146.783
-146.774
-146.76
-146.186
-146.466
-146.456
-146.451
-146.441
-146.435
-146.423
-146.416
-146.404
-146.396
-146.382
-146.373
-146.359
-146.349
-146.333
-146.322
-146.306
-146.294
-146.286
-146.27
-145.893
-146.176
-146.166
-146.161
-146.15
-146.144
-146.133
-146.126
-146.113
-146.105
-146.092
-146.083
-146.068
-146.058
-146.043
-146.032
-146.015
-146.003
-145.994
-145.979
-145.691
-145.975
-145.965
-145.96
-145.949
-145.943
-145.932
-145.925
-145.912
-145.904
-145.891
-145.882
-145.867
-145.857
-145.841
-145.83
-145.813
-145.802
-145.793
-145.777
-145.525
-145.811
-145.801
-145.796
-145.785
-145.779
-145.768
-145.761
-145.748
-145.74
-145.727
-145.717
-145.703
-145.693
-145.677
-145.666
-145.649
-145.637
-145.628
-145.613
-145.37
-145.658
-145.647
-145.642
-145.632
-145.626
-145.614
-145.607
-145.595
-145.586
-145.573
-145.564
-145.549
-145.539
-145.523
-145.512
-145.495
-145.483
-145.474
-145.459
-145.211
-145.5
-145.49
-145.485
-145.474
-145.468
-145.457
-145.45
-145.437
-145.429
-145.415
-145.406
-145.391
-145.381
-145.365
-145.354
-145.337
-145.325
-145.316
-145.301
-145.04
-145.33
-145.32
-145.315
-145.304
-145.298
-145.287
-145.28
-145.267
-145.259
-145.245
-145.236
-145.221
-145.211
-145.195
-145.184
-145.167
-145.155
-145.146
-145.13
-144.849
-145.141
-145.131
-145.126
-145.115
-145.109
-145.098
-145.091
-145.078
-145.07
-145.056
-145.047
-145.032
-145.022
-145.006
-144.994
-144.977
-144.965
-144.956
-144.94
-144.632
-144.927
-144.916
-144.911
-144.9
-144.895
-144.883
-144.876
-144.863
-144.855
-144.841
-144.832
-144.817
-144.807
-144.791
-144.779
-144.762
-144.75
-144.741
-144.725
-144.383
-144.679
-144.668
-144.664
-144.653
-144.647
-144.636
-144.628
-144.616
-144.607
-144.594
-144.584
-144.569
-144.559
-144.543
-144.531
-144.514
-144.502
-144.492
-144.476
-144.093
-144.392
-144.382
-144.376
-144.366
-144.36
-144.349
-144.341
-144.329
-144.32
-144.306
-144.297
-144.282
-144.271
-144.255
-144.243
-144.226
-144.213
-144.204
-144.188
-143.77
-144.071
-144.061
-144.056
-144.045
-144.04
-144.028
-144.021
-144.008
-144
-143.985
-143.976
-143.961
-143.95
-143.934
-143.922
-143.905
-143.892
-143.883
-143.867
-143.464
-143.76
-143.751
-143.746
-143.736
-143.73
-143.719
-143.712
-143.7
-143.691
-143.678
-143.668
-143.653
-143.643
-143.627
-143.615
-143.598
-143.585
-143.576
-143.559
-143.36
-143.361
-143.361
-143.361
-143.361
-143.362
-143.361
-143.362
-143.362
-143.362
-143.362
-143.362
-143.362
-143.362
-143.362
-143.362
-143.362
-143.362
-143.362
-143.362
)
;

boundaryField
{
    movingWall
    {
        type            calculated;
        value           nonuniform List<scalar> 
20
(
-143.36
-143.361
-143.361
-143.361
-143.361
-143.362
-143.361
-143.362
-143.362
-143.362
-143.362
-143.362
-143.362
-143.362
-143.362
-143.362
-143.362
-143.362
-143.362
-143.362
)
;
    }
    fixedWalls
    {
        type            calculated;
        value           nonuniform List<scalar> 
60
(
-162.781
-157.515
-152.431
-149.296
-147.583
-146.678
-146.186
-145.893
-145.691
-145.525
-145.37
-145.211
-145.04
-144.849
-144.632
-144.383
-144.093
-143.77
-143.464
-143.36
-162.784
-157.557
-152.487
-149.365
-147.66
-146.76
-146.27
-145.979
-145.777
-145.613
-145.459
-145.301
-145.13
-144.94
-144.725
-144.476
-144.188
-143.867
-143.559
-143.362
-162.781
-162.782
-162.782
-162.782
-162.782
-162.783
-162.783
-162.783
-162.783
-162.783
-162.783
-162.783
-162.783
-162.783
-162.783
-162.783
-162.784
-162.784
-162.784
-162.784
)
;
    }
    frontAndBack
    {
        type            empty;
    }
}


// ************************************************************************* //
