/*--------------------------------*- C++ -*----------------------------------*\
| =========                 |                                                 |
| \\      /  F ield         | OpenFOAM: The Open Source CFD Toolbox           |
|  \\    /   O peration     | Version:  2312                                  |
|   \\  /    A nd           | Website:  www.openfoam.com                      |
|    \\/     M anipulation  |                                                 |
\*---------------------------------------------------------------------------*/
FoamFile
{
    version     2.0;
    format      ascii;
    arch        "LSB;label=32;scalar=64";
    class       volScalarField;
    location    "3.5";
    object      magP;
}
// * * * * * * * * * * * * * * * * * * * * * * * * * * * * * * * * * * * * * //

dimensions      [0 2 -2 0 0 0 0];

internalField   nonuniform List<scalar> 
400
(
0
5.69894e-10
7.66383e-12
2.65568e-12
0
0
0
0
0
0
0
0
0
0
0
0
6.89765e-14
2.54863e-13
3.65227e-13
4.12613e-13
0
0
0
0
0
0
0
0
0
0
0
0
0
0
0
0
1.31273e-13
3.05289e-13
4.12755e-13
4.5893e-13
0
3.42435e-09
9.6558e-11
1.84567e-10
0
0
0
0
0
0
0
0
0
0
0
1.62405e-14
2.53124e-13
4.10247e-13
5.05197e-13
5.46235e-13
0
0
0
0
9.73769e-12
0
0
0
0
0
0
0
0
0
0
2.27285e-13
4.24729e-13
5.54831e-13
6.37472e-13
6.74919e-13
0
6.24355e-09
2.57725e-10
4.04871e-10
0
8.44703e-12
0
0
0
0
0
0
0
1.17423e-14
2.7732e-13
4.86832e-13
6.40429e-13
7.41849e-13
8.04608e-13
8.3412e-13
7.65987e-10
0
0
0
3.44774e-11
0
4.7529e-12
0
0
0
0
6.38414e-15
2.69599e-13
4.73778e-13
6.46746e-13
7.87221e-13
8.87705e-13
9.52349e-13
9.98105e-13
1.02248e-12
0
7.40548e-09
2.42413e-10
5.07686e-10
0
2.1061e-11
0
1.56355e-12
5.83789e-14
7.72501e-13
6.95773e-13
8.20955e-13
8.88388e-13
9.69317e-13
1.04207e-12
1.10875e-12
1.15801e-12
1.18913e-12
1.21228e-12
1.2268e-12
9.36784e-10
0
0
0
4.79365e-11
0
1.08555e-11
1.62519e-12
2.74227e-12
1.79724e-12
1.76023e-12
1.59064e-12
1.52206e-12
1.46955e-12
1.44902e-12
1.44473e-12
1.43853e-12
1.43114e-12
1.43701e-12
1.44625e-12
0
7.35823e-09
2.36574e-10
5.16185e-10
0
2.74707e-11
0
5.48178e-12
3.1415e-12
3.23249e-12
2.64721e-12
2.37532e-12
2.12887e-12
1.96577e-12
1.8514e-12
1.77694e-12
1.72166e-12
1.68258e-12
1.66711e-12
1.66745e-12
8.8143e-10
0
0
0
5.23509e-11
0
1.48246e-11
5.18607e-12
5.55771e-12
4.08949e-12
3.59897e-12
3.07128e-12
2.71505e-12
2.43608e-12
2.24056e-12
2.10298e-12
1.99768e-12
1.92386e-12
1.89405e-12
1.89083e-12
0
6.71394e-09
2.26395e-10
4.78305e-10
0
3.03518e-11
2.46218e-12
8.5726e-12
5.77246e-12
5.31785e-12
4.35044e-12
3.75406e-12
3.25023e-12
2.8807e-12
2.60644e-12
2.40908e-12
2.26242e-12
2.16256e-12
2.11515e-12
2.10484e-12
7.55052e-10
0
0
0
5.24492e-11
0
1.73864e-11
8.14343e-12
7.81423e-12
6.00091e-12
5.14444e-12
4.33756e-12
3.74936e-12
3.28618e-12
2.94642e-12
2.698e-12
2.5107e-12
2.38282e-12
2.32436e-12
2.31202e-12
0
5.69139e-09
2.04162e-10
4.12236e-10
0
3.10618e-11
6.6947e-12
1.0973e-11
7.93173e-12
7.00202e-12
5.75034e-12
4.89709e-12
4.19185e-12
3.6585e-12
3.25673e-12
2.96087e-12
2.74079e-12
2.59326e-12
2.52169e-12
2.50346e-12
6.02796e-10
0
0
0
4.97677e-11
3.63781e-12
1.88924e-11
1.05423e-11
9.56286e-12
7.52981e-12
6.38076e-12
5.36285e-12
4.5948e-12
3.98923e-12
3.5375e-12
3.20292e-12
2.95155e-12
2.78193e-12
2.70193e-12
2.68153e-12
0
4.41525e-09
1.72421e-10
3.27679e-10
0
3.02233e-11
1.04708e-11
1.27519e-11
9.63145e-12
8.2976e-12
6.84431e-12
5.79655e-12
4.94137e-12
4.2848e-12
3.787e-12
3.41656e-12
3.14045e-12
2.95559e-12
2.86491e-12
2.83896e-12
4.41495e-10
0
0
0
4.5104e-11
1.0069e-11
1.94757e-11
1.23597e-11
1.08079e-11
8.67011e-12
7.3048e-12
6.1409e-12
5.24387e-12
4.53643e-12
4.00308e-12
3.60444e-12
3.30474e-12
3.10292e-12
3.00499e-12
2.97667e-12
0
3.007e-09
1.32357e-10
2.33014e-10
8.42248e-12
2.80881e-11
1.34976e-11
1.38348e-11
1.08062e-11
9.17384e-12
7.61089e-12
6.43564e-12
5.4839e-12
4.74396e-12
4.18043e-12
3.75788e-12
3.44075e-12
3.22734e-12
3.12128e-12
3.09045e-12
2.67506e-10
0
0
0
3.82544e-11
1.53172e-11
1.89776e-11
1.34395e-11
1.14866e-11
9.38107e-12
7.89346e-12
6.65384e-12
5.68019e-12
4.91042e-12
4.32563e-12
3.88523e-12
3.55133e-12
3.32403e-12
3.21257e-12
3.18152e-12
0
1.53482e-09
8.87564e-11
1.27471e-10
1.71948e-11
2.39894e-11
1.5584e-11
1.41699e-11
1.14934e-11
9.67036e-12
8.08389e-12
6.83766e-12
5.83275e-12
5.04367e-12
4.44089e-12
3.98228e-12
3.63164e-12
3.3974e-12
3.28558e-12
3.25016e-12
1.26854e-10
0
4.07059e-11
0
3.1483e-11
1.76911e-11
1.79963e-11
1.39164e-11
1.18123e-11
9.76517e-12
8.21472e-12
6.93579e-12
5.92073e-12
5.11815e-12
4.50416e-12
4.03276e-12
3.67483e-12
3.44433e-12
3.33412e-12
3.29077e-12
)
;

boundaryField
{
    movingWall
    {
        type            calculated;
        value           nonuniform List<scalar> 
20
(
1.26854e-10
0
4.07059e-11
0
3.1483e-11
1.76911e-11
1.79963e-11
1.39164e-11
1.18123e-11
9.76517e-12
8.21472e-12
6.93579e-12
5.92073e-12
5.11815e-12
4.50416e-12
4.03276e-12
3.67483e-12
3.44433e-12
3.33412e-12
3.29077e-12
)
;
    }
    fixedWalls
    {
        type            calculated;
        value           nonuniform List<scalar> 
60
(
0
0
0
0
0
7.65987e-10
0
9.36784e-10
0
8.8143e-10
0
7.55052e-10
0
6.02796e-10
0
4.41495e-10
0
2.67506e-10
0
1.26854e-10
4.12613e-13
4.5893e-13
5.46235e-13
6.74919e-13
8.3412e-13
1.02248e-12
1.2268e-12
1.44625e-12
1.66745e-12
1.89083e-12
2.10484e-12
2.31202e-12
2.50346e-12
2.68153e-12
2.83896e-12
2.97667e-12
3.09045e-12
3.18152e-12
3.25016e-12
3.29077e-12
0
5.69894e-10
7.66383e-12
2.65568e-12
0
0
0
0
0
0
0
0
0
0
0
0
6.89765e-14
2.54863e-13
3.65227e-13
4.12613e-13
)
;
    }
    frontAndBack
    {
        type            empty;
    }
}


// ************************************************************************* //
