/*--------------------------------*- C++ -*----------------------------------*\
| =========                 |                                                 |
| \\      /  F ield         | OpenFOAM: The Open Source CFD Toolbox           |
|  \\    /   O peration     | Version:  2312                                  |
|   \\  /    A nd           | Website:  www.openfoam.com                      |
|    \\/     M anipulation  |                                                 |
\*---------------------------------------------------------------------------*/
FoamFile
{
    version     2.0;
    format      ascii;
    arch        "LSB;label=32;scalar=64";
    class       volScalarField;
    location    "3.5";
    object      magSqrP;
}
// * * * * * * * * * * * * * * * * * * * * * * * * * * * * * * * * * * * * * //

dimensions      [0 4 -4 0 0 0 0];

internalField   nonuniform List<scalar> 
400
(
0
3.24779e-19
5.87343e-23
7.05263e-24
0
0
0
0
0
0
0
0
0
0
0
0
4.75776e-27
6.49549e-26
1.33391e-25
1.70249e-25
0
0
0
0
0
0
0
0
0
0
0
0
0
0
0
0
1.72325e-26
9.32014e-26
1.70367e-25
2.10616e-25
0
1.17261e-17
9.32345e-21
3.40649e-20
0
0
0
0
0
0
0
0
0
0
0
2.63752e-28
6.40719e-26
1.68303e-25
2.55224e-25
2.98372e-25
0
0
0
0
9.48226e-23
0
0
0
0
0
0
0
0
0
0
5.16587e-26
1.80395e-25
3.07837e-25
4.06371e-25
4.55516e-25
0
3.89819e-17
6.64223e-20
1.63921e-19
0
7.13523e-23
0
0
0
0
0
0
0
1.37881e-28
7.69064e-26
2.37005e-25
4.10149e-25
5.5034e-25
6.47394e-25
6.95756e-25
5.86736e-19
0
0
0
1.18869e-21
0
2.259e-23
0
0
0
0
4.07572e-29
7.26838e-26
2.24465e-25
4.18281e-25
6.19716e-25
7.88021e-25
9.06969e-25
9.96213e-25
1.04547e-24
0
5.48412e-17
5.87639e-20
2.57745e-19
0
4.43567e-22
0
2.44467e-24
3.4081e-27
5.96757e-25
4.84101e-25
6.73968e-25
7.89233e-25
9.39575e-25
1.08591e-24
1.22932e-24
1.341e-24
1.41403e-24
1.46961e-24
1.50503e-24
8.77564e-19
0
0
0
2.29791e-21
0
1.17841e-22
2.64125e-24
7.52004e-24
3.23007e-24
3.09842e-24
2.53013e-24
2.31667e-24
2.15957e-24
2.09965e-24
2.08723e-24
2.06937e-24
2.04816e-24
2.06501e-24
2.09164e-24
0
5.41436e-17
5.59673e-20
2.66447e-19
0
7.5464e-22
0
3.005e-23
9.86902e-24
1.0449e-23
7.00771e-24
5.64214e-24
4.53209e-24
3.86424e-24
3.42769e-24
3.15753e-24
2.96411e-24
2.83108e-24
2.77926e-24
2.7804e-24
7.76919e-19
0
0
0
2.74062e-21
0
2.19768e-22
2.68953e-23
3.08882e-23
1.67239e-23
1.29526e-23
9.43276e-24
7.37152e-24
5.9345e-24
5.02009e-24
4.42253e-24
3.99071e-24
3.70124e-24
3.58742e-24
3.57523e-24
0
4.50769e-17
5.12546e-20
2.28775e-19
0
9.2123e-22
6.06235e-24
7.34894e-23
3.33213e-23
2.82795e-23
1.89263e-23
1.40929e-23
1.0564e-23
8.29843e-24
6.79353e-24
5.80369e-24
5.11853e-24
4.67668e-24
4.47386e-24
4.43037e-24
5.70103e-19
0
0
0
2.75092e-21
0
3.02287e-22
6.63155e-23
6.10621e-23
3.60109e-23
2.64653e-23
1.88145e-23
1.40577e-23
1.0799e-23
8.68139e-24
7.2792e-24
6.30363e-24
5.67781e-24
5.40267e-24
5.34545e-24
0
3.23919e-17
4.1682e-20
1.69938e-19
0
9.64837e-22
4.4819e-23
1.20407e-22
6.29123e-23
4.90283e-23
3.30664e-23
2.39815e-23
1.75716e-23
1.33846e-23
1.06063e-23
8.76673e-24
7.51194e-24
6.72499e-24
6.35891e-24
6.2673e-24
3.63363e-19
0
0
0
2.47683e-21
1.32336e-23
3.56924e-22
1.11139e-22
9.14484e-23
5.6698e-23
4.07141e-23
2.87602e-23
2.11122e-23
1.5914e-23
1.25139e-23
1.02587e-23
8.71164e-24
7.73911e-24
7.30042e-24
7.19062e-24
0
1.94944e-17
2.97289e-20
1.07373e-19
0
9.13451e-22
1.09637e-22
1.62611e-22
9.27648e-23
6.88502e-23
4.68445e-23
3.36e-23
2.44172e-23
1.83595e-23
1.43414e-23
1.16729e-23
9.86244e-24
8.73548e-24
8.20772e-24
8.05969e-24
1.94918e-19
0
0
0
2.03437e-21
1.01384e-22
3.79305e-22
1.52761e-22
1.16811e-22
7.51707e-23
5.33602e-23
3.77107e-23
2.74981e-23
2.05792e-23
1.60247e-23
1.2992e-23
1.09213e-23
9.62813e-24
9.02999e-24
8.86058e-24
0
9.04204e-18
1.75183e-20
5.42957e-20
7.09382e-23
7.88942e-22
1.82184e-22
1.91401e-22
1.16775e-22
8.41594e-23
5.79256e-23
4.14175e-23
3.00731e-23
2.25051e-23
1.7476e-23
1.41217e-23
1.18388e-23
1.04157e-23
9.74242e-24
9.55085e-24
7.15593e-20
0
0
0
1.4634e-21
2.34617e-22
3.60149e-22
1.80621e-22
1.31941e-22
8.80045e-23
6.23067e-23
4.42735e-23
3.22646e-23
2.41122e-23
1.87111e-23
1.5095e-23
1.26119e-23
1.10492e-23
1.03206e-23
1.01221e-23
0
2.35568e-18
7.87769e-21
1.62489e-20
2.9566e-22
5.75491e-22
2.42861e-22
2.00785e-22
1.32099e-22
9.35159e-23
6.53493e-23
4.67537e-23
3.4021e-23
2.54386e-23
1.97215e-23
1.58585e-23
1.31888e-23
1.15423e-23
1.07951e-23
1.05635e-23
1.6092e-20
0
1.65697e-21
0
9.9118e-22
3.12974e-22
3.23867e-22
1.93666e-22
1.39531e-22
9.53585e-23
6.74816e-23
4.81051e-23
3.5055e-23
2.61955e-23
2.02875e-23
1.62631e-23
1.35044e-23
1.18634e-23
1.11163e-23
1.08292e-23
)
;

boundaryField
{
    movingWall
    {
        type            calculated;
        value           nonuniform List<scalar> 
20
(
1.6092e-20
0
1.65697e-21
0
9.9118e-22
3.12974e-22
3.23867e-22
1.93666e-22
1.39531e-22
9.53585e-23
6.74816e-23
4.81051e-23
3.5055e-23
2.61955e-23
2.02875e-23
1.62631e-23
1.35044e-23
1.18634e-23
1.11163e-23
1.08292e-23
)
;
    }
    fixedWalls
    {
        type            calculated;
        value           nonuniform List<scalar> 
60
(
0
0
0
0
0
5.86736e-19
0
8.77564e-19
0
7.76919e-19
0
5.70103e-19
0
3.63363e-19
0
1.94918e-19
0
7.15593e-20
0
1.6092e-20
1.70249e-25
2.10616e-25
2.98372e-25
4.55516e-25
6.95756e-25
1.04547e-24
1.50503e-24
2.09164e-24
2.7804e-24
3.57523e-24
4.43037e-24
5.34545e-24
6.2673e-24
7.19062e-24
8.05969e-24
8.86058e-24
9.55085e-24
1.01221e-23
1.05635e-23
1.08292e-23
0
3.24779e-19
5.87343e-23
7.05263e-24
0
0
0
0
0
0
0
0
0
0
0
0
4.75776e-27
6.49549e-26
1.33391e-25
1.70249e-25
)
;
    }
    frontAndBack
    {
        type            empty;
    }
}


// ************************************************************************* //
