/*--------------------------------*- C++ -*----------------------------------*\
| =========                 |                                                 |
| \\      /  F ield         | OpenFOAM: The Open Source CFD Toolbox           |
|  \\    /   O peration     | Version:  2312                                  |
|   \\  /    A nd           | Website:  www.openfoam.com                      |
|    \\/     M anipulation  |                                                 |
\*---------------------------------------------------------------------------*/
FoamFile
{
    version     2.0;
    format      ascii;
    arch        "LSB;label=32;scalar=64";
    class       volVectorField;
    location    "3.5";
    object      momentum1:momentum;
}
// * * * * * * * * * * * * * * * * * * * * * * * * * * * * * * * * * * * * * //

dimensions      [1 1 -1 0 0 0 0];

internalField   nonuniform List<vector> 
400
(
(-2.5e-07 5.63419e-14 0)
(-2.5e-07 -1.28228e-14 0)
(-2.5e-07 3.03657e-15 0)
(-2.5e-07 -6.92366e-16 0)
(-2.5e-07 1.60423e-16 0)
(-2.5e-07 -3.73327e-17 0)
(-2.5e-07 8.37819e-18 0)
(-2.5e-07 -1.99576e-18 0)
(-2.5e-07 4.17779e-19 0)
(-2.5e-07 -1.12974e-19 0)
(-2.5e-07 1.62953e-20 0)
(-2.5e-07 -8.30143e-21 0)
(-2.5e-07 -1.74257e-21 0)
(-2.5e-07 -4.78558e-21 0)
(-2.5e-07 -7.03166e-21 0)
(-2.5e-07 -8.63429e-21 0)
(-2.5e-07 -7.53649e-21 0)
(-2.5e-07 -5.44038e-21 0)
(-2.5e-07 -4.64423e-21 0)
(-2.5e-07 -6.44423e-21 0)
(-2.5e-07 -5.76295e-14 0)
(-2.5e-07 1.31025e-14 0)
(-2.5e-07 -3.09734e-15 0)
(-2.5e-07 7.04253e-16 0)
(-2.5e-07 -1.63183e-16 0)
(-2.5e-07 3.7334e-17 0)
(-2.5e-07 -8.67808e-18 0)
(-2.5e-07 1.82458e-18 0)
(-2.5e-07 -5.06166e-19 0)
(-2.5e-07 6.60787e-20 0)
(-2.5e-07 -3.45366e-20 0)
(-2.5e-07 -6.62819e-22 0)
(-2.5e-07 -6.40046e-21 0)
(-2.5e-07 -1.13202e-20 0)
(-2.5e-07 -1.97311e-20 0)
(-2.5e-07 -2.56532e-20 0)
(-2.5e-07 -2.33514e-20 0)
(-2.5e-07 -1.40499e-20 0)
(-2.5e-07 -1.48326e-20 0)
(-2.5e-07 -1.9107e-20 0)
(-2.5e-07 6.02217e-14 0)
(-2.5e-07 -1.37055e-14 0)
(-2.5e-07 3.24399e-15 0)
(-2.5e-07 -7.39678e-16 0)
(-2.5e-07 1.70459e-16 0)
(-2.5e-07 -4.0241e-17 0)
(-2.5e-07 8.60666e-18 0)
(-2.5e-07 -2.26649e-18 0)
(-2.5e-07 3.76058e-19 0)
(-2.5e-07 -1.42008e-19 0)
(-2.5e-07 1.38433e-20 0)
(-2.5e-07 -6.49845e-21 0)
(-2.5e-07 -2.38401e-21 0)
(-2.5e-07 -1.54131e-20 0)
(-2.5e-07 -2.94589e-20 0)
(-2.5e-07 -3.97384e-20 0)
(-2.5e-07 -3.66512e-20 0)
(-2.5e-07 -2.27927e-20 0)
(-2.5e-07 -2.3703e-20 0)
(-2.5e-07 -3.09881e-20 0)
(-2.5e-07 -6.3873e-14 0)
(-2.5e-07 1.45796e-14 0)
(-2.5e-07 -3.46268e-15 0)
(-2.5e-07 7.84152e-16 0)
(-2.5e-07 -1.84875e-16 0)
(-2.5e-07 4.15592e-17 0)
(-2.5e-07 -9.9876e-18 0)
(-2.5e-07 2.03302e-18 0)
(-2.5e-07 -5.82946e-19 0)
(-2.5e-07 9.254e-20 0)
(-2.5e-07 -1.98846e-20 0)
(-2.5e-07 1.68393e-20 0)
(-2.5e-07 2.84763e-21 0)
(-2.5e-07 -1.41007e-20 0)
(-2.5e-07 -3.56135e-20 0)
(-2.5e-07 -5.07955e-20 0)
(-2.5e-07 -4.7832e-20 0)
(-2.5e-07 -2.89484e-20 0)
(-2.5e-07 -3.13921e-20 0)
(-2.5e-07 -4.17908e-20 0)
(-2.5e-07 6.77421e-14 0)
(-2.5e-07 -1.56784e-14 0)
(-2.5e-07 3.70779e-15 0)
(-2.5e-07 -8.54978e-16 0)
(-2.5e-07 1.98583e-16 0)
(-2.5e-07 -4.67068e-17 0)
(-2.5e-07 1.02769e-17 0)
(-2.5e-07 -2.58364e-18 0)
(-2.5e-07 5.22997e-19 0)
(-2.5e-07 -1.09574e-19 0)
(-2.5e-07 6.40939e-20 0)
(-2.5e-07 2.65333e-20 0)
(-2.5e-07 1.95592e-20 0)
(-2.5e-07 -8.83603e-21 0)
(-2.5e-07 -3.71743e-20 0)
(-2.5e-07 -5.76483e-20 0)
(-2.5e-07 -5.51568e-20 0)
(-2.5e-07 -3.36336e-20 0)
(-2.5e-07 -3.72763e-20 0)
(-2.5e-07 -5.10866e-20 0)
(-2.5e-07 -7.09018e-14 0)
(-2.5e-07 1.66104e-14 0)
(-2.5e-07 -3.9315e-15 0)
(-2.5e-07 9.17937e-16 0)
(-2.5e-07 -2.16043e-16 0)
(-2.5e-07 5.02242e-17 0)
(-2.5e-07 -1.17883e-17 0)
(-2.5e-07 2.71103e-18 0)
(-2.5e-07 -5.80611e-19 0)
(-2.5e-07 2.17619e-19 0)
(-2.5e-07 4.40514e-20 0)
(-2.5e-07 6.9855e-20 0)
(-2.5e-07 3.63219e-20 0)
(-2.5e-07 2.54746e-21 0)
(-2.5e-07 -3.4446e-20 0)
(-2.5e-07 -6.04748e-20 0)
(-2.5e-07 -5.95824e-20 0)
(-2.5e-07 -3.55996e-20 0)
(-2.5e-07 -4.13963e-20 0)
(-2.5e-07 -5.86728e-20 0)
(-2.5e-07 7.3856e-14 0)
(-2.5e-07 -1.74341e-14 0)
(-2.5e-07 4.12927e-15 0)
(-2.5e-07 -9.73445e-16 0)
(-2.5e-07 2.29899e-16 0)
(-2.5e-07 -5.41777e-17 0)
(-2.5e-07 1.27992e-17 0)
(-2.5e-07 -2.88636e-18 0)
(-2.5e-07 8.3737e-19 0)
(-2.5e-07 -2.35909e-20 0)
(-2.5e-07 1.63158e-19 0)
(-2.5e-07 8.82305e-20 0)
(-2.5e-07 6.38198e-20 0)
(-2.5e-07 1.62356e-20 0)
(-2.5e-07 -2.74711e-20 0)
(-2.5e-07 -5.91504e-20 0)
(-2.5e-07 -6.00824e-20 0)
(-2.5e-07 -3.57065e-20 0)
(-2.5e-07 -4.36109e-20 0)
(-2.5e-07 -6.44207e-20 0)
(-2.5e-07 -7.67157e-14 0)
(-2.5e-07 1.81997e-14 0)
(-2.5e-07 -4.31145e-15 0)
(-2.5e-07 1.02252e-15 0)
(-2.5e-07 -2.41967e-16 0)
(-2.5e-07 5.75827e-17 0)
(-2.5e-07 -1.33652e-17 0)
(-2.5e-07 3.44282e-18 0)
(-2.5e-07 -5.36512e-19 0)
(-2.5e-07 3.86318e-19 0)
(-2.5e-07 1.31921e-19 0)
(-2.5e-07 1.43043e-19 0)
(-2.5e-07 8.51108e-20 0)
(-2.5e-07 3.41933e-20 0)
(-2.5e-07 -1.7747e-20 0)
(-2.5e-07 -5.43277e-20 0)
(-2.5e-07 -5.78309e-20 0)
(-2.5e-07 -3.35477e-20 0)
(-2.5e-07 -4.39833e-20 0)
(-2.5e-07 -6.82976e-20 0)
(-2.5e-07 7.94917e-14 0)
(-2.5e-07 -1.89152e-14 0)
(-2.5e-07 4.48405e-15 0)
(-2.5e-07 -1.0662e-15 0)
(-2.5e-07 2.5378e-16 0)
(-2.5e-07 -5.97994e-17 0)
(-2.5e-07 1.46809e-17 0)
(-2.5e-07 -3.07058e-18 0)
(-2.5e-07 1.11347e-18 0)
(-2.5e-07 7.5182e-20 0)
(-2.5e-07 2.66072e-19 0)
(-2.5e-07 1.5654e-19 0)
(-2.5e-07 1.15257e-19 0)
(-2.5e-07 5.08157e-20 0)
(-2.5e-07 -5.59741e-21 0)
(-2.5e-07 -4.68428e-20 0)
(-2.5e-07 -5.27139e-20 0)
(-2.5e-07 -2.97324e-20 0)
(-2.5e-07 -4.27282e-20 0)
(-2.5e-07 -7.02912e-20 0)
(-2.5e-07 -8.22097e-14 0)
(-2.5e-07 1.96115e-14 0)
(-2.5e-07 -4.64748e-15 0)
(-2.5e-07 1.10951e-15 0)
(-2.5e-07 -2.63065e-16 0)
(-2.5e-07 6.32569e-17 0)
(-2.5e-07 -1.45273e-17 0)
(-2.5e-07 3.97894e-18 0)
(-2.5e-07 -4.80793e-19 0)
(-2.5e-07 5.22756e-19 0)
(-2.5e-07 2.11558e-19 0)
(-2.5e-07 2.09258e-19 0)
(-2.5e-07 1.32781e-19 0)
(-2.5e-07 6.92748e-20 0)
(-2.5e-07 6.86178e-21 0)
(-2.5e-07 -3.73968e-20 0)
(-2.5e-07 -4.58568e-20 0)
(-2.5e-07 -2.46626e-20 0)
(-2.5e-07 -3.99232e-20 0)
(-2.5e-07 -7.05339e-20 0)
(-2.5e-07 8.47908e-14 0)
(-2.5e-07 -2.02594e-14 0)
(-2.5e-07 4.8036e-15 0)
(-2.5e-07 -1.14703e-15 0)
(-2.5e-07 2.73835e-16 0)
(-2.5e-07 -6.45034e-17 0)
(-2.5e-07 1.61144e-17 0)
(-2.5e-07 -3.22908e-18 0)
(-2.5e-07 1.31076e-18 0)
(-2.5e-07 1.47338e-19 0)
(-2.5e-07 3.42072e-19 0)
(-2.5e-07 2.09538e-19 0)
(-2.5e-07 1.57446e-19 0)
(-2.5e-07 8.31357e-20 0)
(-2.5e-07 1.96984e-20 0)
(-2.5e-07 -2.72218e-20 0)
(-2.5e-07 -3.77095e-20 0)
(-2.5e-07 -1.8597e-20 0)
(-2.5e-07 -3.60568e-20 0)
(-2.5e-07 -6.91747e-20 0)
(-2.5e-07 -8.72589e-14 0)
(-2.5e-07 2.08809e-14 0)
(-2.5e-07 -4.94878e-15 0)
(-2.5e-07 1.18541e-15 0)
(-2.5e-07 -2.8135e-16 0)
(-2.5e-07 6.79536e-17 0)
(-2.5e-07 -1.55362e-17 0)
(-2.5e-07 4.36916e-18 0)
(-2.5e-07 -4.63625e-19 0)
(-2.5e-07 6.08503e-19 0)
(-2.5e-07 2.59501e-19 0)
(-2.5e-07 2.51207e-19 0)
(-2.5e-07 1.65163e-19 0)
(-2.5e-07 9.66939e-20 0)
(-2.5e-07 3.05787e-20 0)
(-2.5e-07 -1.67194e-20 0)
(-2.5e-07 -2.89379e-20 0)
(-2.5e-07 -1.23364e-20 0)
(-2.5e-07 -3.11022e-20 0)
(-2.5e-07 -6.64299e-20 0)
(-2.5e-07 8.95163e-14 0)
(-2.5e-07 -2.14391e-14 0)
(-2.5e-07 5.08353e-15 0)
(-2.5e-07 -1.21669e-15 0)
(-2.5e-07 2.90875e-16 0)
(-2.5e-07 -6.85308e-17 0)
(-2.5e-07 1.72404e-17 0)
(-2.5e-07 -3.40594e-18 0)
(-2.5e-07 1.42997e-18 0)
(-2.5e-07 1.73703e-19 0)
(-2.5e-07 3.77677e-19 0)
(-2.5e-07 2.33491e-19 0)
(-2.5e-07 1.78894e-19 0)
(-2.5e-07 1.03186e-19 0)
(-2.5e-07 3.98988e-20 0)
(-2.5e-07 -7.37803e-21 0)
(-2.5e-07 -2.03833e-20 0)
(-2.5e-07 -5.69563e-21 0)
(-2.5e-07 -2.58976e-20 0)
(-2.5e-07 -6.23703e-20 0)
(-2.5e-07 -9.16033e-14 0)
(-2.5e-07 2.19594e-14 0)
(-2.5e-07 -5.20457e-15 0)
(-2.5e-07 1.24895e-15 0)
(-2.5e-07 -2.96623e-16 0)
(-2.5e-07 7.17738e-17 0)
(-2.5e-07 -1.64059e-17 0)
(-2.5e-07 4.63498e-18 0)
(-2.5e-07 -4.94158e-19 0)
(-2.5e-07 6.37464e-19 0)
(-2.5e-07 2.6537e-19 0)
(-2.5e-07 2.59432e-19 0)
(-2.5e-07 1.72958e-19 0)
(-2.5e-07 1.08013e-19 0)
(-2.5e-07 4.56415e-20 0)
(-2.5e-07 1.0055e-21 0)
(-2.5e-07 -1.23626e-20 0)
(-2.5e-07 -3.51796e-22 0)
(-2.5e-07 -2.02497e-20 0)
(-2.5e-07 -5.70549e-20 0)
(-2.5e-07 9.34205e-14 0)
(-2.5e-07 -2.24023e-14 0)
(-2.5e-07 5.31189e-15 0)
(-2.5e-07 -1.27287e-15 0)
(-2.5e-07 3.04513e-16 0)
(-2.5e-07 -7.17712e-17 0)
(-2.5e-07 1.80755e-17 0)
(-2.5e-07 -3.59508e-18 0)
(-2.5e-07 1.47146e-18 0)
(-2.5e-07 1.48349e-19 0)
(-2.5e-07 3.65948e-19 0)
(-2.5e-07 2.20974e-19 0)
(-2.5e-07 1.72502e-19 0)
(-2.5e-07 1.04215e-19 0)
(-2.5e-07 4.87213e-20 0)
(-2.5e-07 6.92836e-21 0)
(-2.5e-07 -5.97653e-21 0)
(-2.5e-07 4.4668e-21 0)
(-2.5e-07 -1.53098e-20 0)
(-2.5e-07 -5.05586e-20 0)
(-2.5e-07 -9.50197e-14 0)
(-2.5e-07 2.27959e-14 0)
(-2.5e-07 -5.40254e-15 0)
(-2.5e-07 1.29751e-15 0)
(-2.5e-07 -3.08171e-16 0)
(-2.5e-07 7.46086e-17 0)
(-2.5e-07 -1.70884e-17 0)
(-2.5e-07 4.77153e-18 0)
(-2.5e-07 -5.73765e-19 0)
(-2.5e-07 6.03709e-19 0)
(-2.5e-07 2.23556e-19 0)
(-2.5e-07 2.28152e-19 0)
(-2.5e-07 1.50903e-19 0)
(-2.5e-07 9.79442e-20 0)
(-2.5e-07 4.697e-20 0)
(-2.5e-07 1.06444e-20 0)
(-2.5e-07 -1.08492e-21 0)
(-2.5e-07 6.78523e-21 0)
(-2.5e-07 -1.07998e-20 0)
(-2.5e-07 -4.30498e-20 0)
(-2.5e-07 9.63139e-14 0)
(-2.5e-07 -2.31092e-14 0)
(-2.5e-07 5.47955e-15 0)
(-2.5e-07 -1.31347e-15 0)
(-2.5e-07 3.1441e-16 0)
(-2.5e-07 -7.41138e-17 0)
(-2.5e-07 1.85978e-17 0)
(-2.5e-07 -3.80792e-18 0)
(-2.5e-07 1.42021e-18 0)
(-2.5e-07 5.93287e-20 0)
(-2.5e-07 2.97934e-19 0)
(-2.5e-07 1.6493e-19 0)
(-2.5e-07 1.325e-19 0)
(-2.5e-07 8.08348e-20 0)
(-2.5e-07 4.09555e-20 0)
(-2.5e-07 1.08491e-20 0)
(-2.5e-07 1.62801e-21 0)
(-2.5e-07 8.73346e-21 0)
(-2.5e-07 -6.99075e-21 0)
(-2.5e-07 -3.49009e-20 0)
(-2.5e-07 -9.73609e-14 0)
(-2.5e-07 2.33636e-14 0)
(-2.5e-07 -5.53594e-15 0)
(-2.5e-07 1.33065e-15 0)
(-2.5e-07 -3.15925e-16 0)
(-2.5e-07 7.64708e-17 0)
(-2.5e-07 -1.76623e-17 0)
(-2.5e-07 4.75336e-18 0)
(-2.5e-07 -7.3262e-19 0)
(-2.5e-07 4.95822e-19 0)
(-2.5e-07 1.26776e-19 0)
(-2.5e-07 1.55506e-19 0)
(-2.5e-07 9.82444e-20 0)
(-2.5e-07 6.6547e-20 0)
(-2.5e-07 3.44987e-20 0)
(-2.5e-07 1.25136e-20 0)
(-2.5e-07 5.18954e-21 0)
(-2.5e-07 9.25962e-21 0)
(-2.5e-07 -3.07374e-21 0)
(-2.5e-07 -2.63197e-20 0)
(-2.5e-07 9.80755e-14 0)
(-2.5e-07 -2.35288e-14 0)
(-2.5e-07 5.57806e-15 0)
(-2.5e-07 -1.33572e-15 0)
(-2.5e-07 3.19472e-16 0)
(-2.5e-07 -7.5403e-17 0)
(-2.5e-07 1.85941e-17 0)
(-2.5e-07 -4.06586e-18 0)
(-2.5e-07 1.24477e-18 0)
(-2.5e-07 -9.2887e-20 0)
(-2.5e-07 1.77521e-19 0)
(-2.5e-07 7.30314e-20 0)
(-2.5e-07 6.60695e-20 0)
(-2.5e-07 3.92885e-20 0)
(-2.5e-07 2.12606e-20 0)
(-2.5e-07 7.06394e-21 0)
(-2.5e-07 3.02623e-21 0)
(-2.5e-07 8.65509e-21 0)
(-2.5e-07 1.72394e-21 0)
(-2.5e-07 -1.69094e-20 0)
(-2.5e-07 -9.86449e-14 0)
(-2.5e-07 2.3789e-14 0)
(-2.5e-07 -5.64022e-15 0)
(-2.5e-07 1.36072e-15 0)
(-2.5e-07 -3.24976e-16 0)
(-2.5e-07 7.81557e-17 0)
(-2.5e-07 -1.8688e-17 0)
(-2.5e-07 4.60615e-18 0)
(-2.5e-07 -1.02536e-18 0)
(-2.5e-07 3.12545e-19 0)
(-2.5e-07 -2.88638e-20 0)
(-2.5e-07 4.04233e-20 0)
(-2.5e-07 1.31674e-20 0)
(-2.5e-07 1.08891e-20 0)
(-2.5e-07 3.86539e-21 0)
(-2.5e-07 2.7582e-23 0)
(-2.5e-07 -1.6102e-22 0)
(-2.5e-07 3.65845e-21 0)
(-2.5e-07 2.21407e-21 0)
(-2.5e-07 -5.88161e-21 0)
)
;

boundaryField
{
    movingWall
    {
        type            calculated;
        value           uniform (0 0 0);
    }
    fixedWalls
    {
        type            calculated;
        value           uniform (0 0 0);
    }
    frontAndBack
    {
        type            empty;
    }
}


// ************************************************************************* //
