/*--------------------------------*- C++ -*----------------------------------*\
| =========                 |                                                 |
| \\      /  F ield         | OpenFOAM: The Open Source CFD Toolbox           |
|  \\    /   O peration     | Version:  2312                                  |
|   \\  /    A nd           | Website:  www.openfoam.com                      |
|    \\/     M anipulation  |                                                 |
\*---------------------------------------------------------------------------*/
FoamFile
{
    version     2.0;
    format      ascii;
    arch        "LSB;label=32;scalar=64";
    class       volVectorField;
    location    "3.5";
    object      norm_U_composite;
}
// * * * * * * * * * * * * * * * * * * * * * * * * * * * * * * * * * * * * * //

dimensions      [0 0 0 0 0 0 0];

internalField   nonuniform List<vector> 
400
(
(-0.5 1.12684e-07 0)
(-0.5 -2.56456e-08 0)
(-0.5 6.07315e-09 0)
(-0.5 -1.38473e-09 0)
(-0.5 3.20845e-10 0)
(-0.5 -7.46654e-11 0)
(-0.5 1.67564e-11 0)
(-0.5 -3.99153e-12 0)
(-0.5 8.35559e-13 0)
(-0.5 -2.25948e-13 0)
(-0.5 3.25905e-14 0)
(-0.5 -1.66029e-14 0)
(-0.5 -3.48514e-15 0)
(-0.5 -9.57116e-15 0)
(-0.5 -1.40633e-14 0)
(-0.5 -1.72686e-14 0)
(-0.5 -1.5073e-14 0)
(-0.5 -1.08808e-14 0)
(-0.5 -9.28846e-15 0)
(-0.5 -1.28885e-14 0)
(-0.5 -1.15259e-07 0)
(-0.5 2.6205e-08 0)
(-0.5 -6.19469e-09 0)
(-0.5 1.40851e-09 0)
(-0.5 -3.26366e-10 0)
(-0.5 7.4668e-11 0)
(-0.5 -1.73562e-11 0)
(-0.5 3.64915e-12 0)
(-0.5 -1.01233e-12 0)
(-0.5 1.32157e-13 0)
(-0.5 -6.90732e-14 0)
(-0.5 -1.32564e-15 0)
(-0.5 -1.28009e-14 0)
(-0.5 -2.26404e-14 0)
(-0.5 -3.94621e-14 0)
(-0.5 -5.13063e-14 0)
(-0.5 -4.67028e-14 0)
(-0.5 -2.80998e-14 0)
(-0.5 -2.96653e-14 0)
(-0.5 -3.82141e-14 0)
(-0.5 1.20443e-07 0)
(-0.5 -2.7411e-08 0)
(-0.5 6.48799e-09 0)
(-0.5 -1.47936e-09 0)
(-0.5 3.40917e-10 0)
(-0.5 -8.04821e-11 0)
(-0.5 1.72133e-11 0)
(-0.5 -4.53299e-12 0)
(-0.5 7.52116e-13 0)
(-0.5 -2.84016e-13 0)
(-0.5 2.76865e-14 0)
(-0.5 -1.29969e-14 0)
(-0.5 -4.76803e-15 0)
(-0.5 -3.08262e-14 0)
(-0.5 -5.89179e-14 0)
(-0.5 -7.94769e-14 0)
(-0.5 -7.33024e-14 0)
(-0.5 -4.55854e-14 0)
(-0.5 -4.74059e-14 0)
(-0.5 -6.19762e-14 0)
(-0.5 -1.27746e-07 0)
(-0.5 2.91591e-08 0)
(-0.5 -6.92535e-09 0)
(-0.5 1.5683e-09 0)
(-0.5 -3.6975e-10 0)
(-0.5 8.31184e-11 0)
(-0.5 -1.99752e-11 0)
(-0.5 4.06604e-12 0)
(-0.5 -1.16589e-12 0)
(-0.5 1.8508e-13 0)
(-0.5 -3.97692e-14 0)
(-0.5 3.36786e-14 0)
(-0.5 5.69527e-15 0)
(-0.5 -2.82015e-14 0)
(-0.5 -7.12269e-14 0)
(-0.5 -1.01591e-13 0)
(-0.5 -9.56641e-14 0)
(-0.5 -5.78967e-14 0)
(-0.5 -6.27843e-14 0)
(-0.5 -8.35816e-14 0)
(-0.5 1.35484e-07 0)
(-0.5 -3.13568e-08 0)
(-0.5 7.41559e-09 0)
(-0.5 -1.70996e-09 0)
(-0.5 3.97165e-10 0)
(-0.5 -9.34136e-11 0)
(-0.5 2.05538e-11 0)
(-0.5 -5.16728e-12 0)
(-0.5 1.04599e-12 0)
(-0.5 -2.19148e-13 0)
(-0.5 1.28188e-13 0)
(-0.5 5.30665e-14 0)
(-0.5 3.91184e-14 0)
(-0.5 -1.76721e-14 0)
(-0.5 -7.43487e-14 0)
(-0.5 -1.15297e-13 0)
(-0.5 -1.10314e-13 0)
(-0.5 -6.72672e-14 0)
(-0.5 -7.45526e-14 0)
(-0.5 -1.02173e-13 0)
(-0.5 -1.41804e-07 0)
(-0.5 3.32209e-08 0)
(-0.5 -7.863e-09 0)
(-0.5 1.83587e-09 0)
(-0.5 -4.32087e-10 0)
(-0.5 1.00448e-10 0)
(-0.5 -2.35766e-11 0)
(-0.5 5.42205e-12 0)
(-0.5 -1.16122e-12 0)
(-0.5 4.35238e-13 0)
(-0.5 8.81028e-14 0)
(-0.5 1.3971e-13 0)
(-0.5 7.26439e-14 0)
(-0.5 5.09493e-15 0)
(-0.5 -6.88921e-14 0)
(-0.5 -1.2095e-13 0)
(-0.5 -1.19165e-13 0)
(-0.5 -7.11992e-14 0)
(-0.5 -8.27927e-14 0)
(-0.5 -1.17346e-13 0)
(-0.5 1.47712e-07 0)
(-0.5 -3.48682e-08 0)
(-0.5 8.25853e-09 0)
(-0.5 -1.94689e-09 0)
(-0.5 4.59798e-10 0)
(-0.5 -1.08355e-10 0)
(-0.5 2.55985e-11 0)
(-0.5 -5.77273e-12 0)
(-0.5 1.67474e-12 0)
(-0.5 -4.71817e-14 0)
(-0.5 3.26316e-13 0)
(-0.5 1.76461e-13 0)
(-0.5 1.2764e-13 0)
(-0.5 3.24713e-14 0)
(-0.5 -5.49423e-14 0)
(-0.5 -1.18301e-13 0)
(-0.5 -1.20165e-13 0)
(-0.5 -7.14129e-14 0)
(-0.5 -8.72218e-14 0)
(-0.5 -1.28841e-13 0)
(-0.5 -1.53431e-07 0)
(-0.5 3.63994e-08 0)
(-0.5 -8.62291e-09 0)
(-0.5 2.04504e-09 0)
(-0.5 -4.83935e-10 0)
(-0.5 1.15165e-10 0)
(-0.5 -2.67304e-11 0)
(-0.5 6.88563e-12 0)
(-0.5 -1.07302e-12 0)
(-0.5 7.72636e-13 0)
(-0.5 2.63842e-13 0)
(-0.5 2.86085e-13 0)
(-0.5 1.70222e-13 0)
(-0.5 6.83867e-14 0)
(-0.5 -3.54939e-14 0)
(-0.5 -1.08655e-13 0)
(-0.5 -1.15662e-13 0)
(-0.5 -6.70955e-14 0)
(-0.5 -8.79665e-14 0)
(-0.5 -1.36595e-13 0)
(-0.5 1.58983e-07 0)
(-0.5 -3.78305e-08 0)
(-0.5 8.9681e-09 0)
(-0.5 -2.1324e-09 0)
(-0.5 5.0756e-10 0)
(-0.5 -1.19599e-10 0)
(-0.5 2.93618e-11 0)
(-0.5 -6.14116e-12 0)
(-0.5 2.22694e-12 0)
(-0.5 1.50364e-13 0)
(-0.5 5.32143e-13 0)
(-0.5 3.1308e-13 0)
(-0.5 2.30515e-13 0)
(-0.5 1.01631e-13 0)
(-0.5 -1.11948e-14 0)
(-0.5 -9.36857e-14 0)
(-0.5 -1.05428e-13 0)
(-0.5 -5.94648e-14 0)
(-0.5 -8.54565e-14 0)
(-0.5 -1.40582e-13 0)
(-0.5 -1.64419e-07 0)
(-0.5 3.92229e-08 0)
(-0.5 -9.29496e-09 0)
(-0.5 2.21901e-09 0)
(-0.5 -5.2613e-10 0)
(-0.5 1.26514e-10 0)
(-0.5 -2.90546e-11 0)
(-0.5 7.95788e-12 0)
(-0.5 -9.61586e-13 0)
(-0.5 1.04551e-12 0)
(-0.5 4.23115e-13 0)
(-0.5 4.18516e-13 0)
(-0.5 2.65563e-13 0)
(-0.5 1.3855e-13 0)
(-0.5 1.37236e-14 0)
(-0.5 -7.47936e-14 0)
(-0.5 -9.17137e-14 0)
(-0.5 -4.93251e-14 0)
(-0.5 -7.98463e-14 0)
(-0.5 -1.41068e-13 0)
(-0.5 1.69582e-07 0)
(-0.5 -4.05189e-08 0)
(-0.5 9.6072e-09 0)
(-0.5 -2.29406e-09 0)
(-0.5 5.47671e-10 0)
(-0.5 -1.29007e-10 0)
(-0.5 3.22287e-11 0)
(-0.5 -6.45816e-12 0)
(-0.5 2.62152e-12 0)
(-0.5 2.94676e-13 0)
(-0.5 6.84145e-13 0)
(-0.5 4.19076e-13 0)
(-0.5 3.14891e-13 0)
(-0.5 1.66271e-13 0)
(-0.5 3.93967e-14 0)
(-0.5 -5.44435e-14 0)
(-0.5 -7.54191e-14 0)
(-0.5 -3.71941e-14 0)
(-0.5 -7.21136e-14 0)
(-0.5 -1.38349e-13 0)
(-0.5 -1.74518e-07 0)
(-0.5 4.17618e-08 0)
(-0.5 -9.89756e-09 0)
(-0.5 2.37082e-09 0)
(-0.5 -5.627e-10 0)
(-0.5 1.35907e-10 0)
(-0.5 -3.10723e-11 0)
(-0.5 8.73832e-12 0)
(-0.5 -9.27249e-13 0)
(-0.5 1.21701e-12 0)
(-0.5 5.19002e-13 0)
(-0.5 5.02414e-13 0)
(-0.5 3.30327e-13 0)
(-0.5 1.93388e-13 0)
(-0.5 6.11574e-14 0)
(-0.5 -3.34388e-14 0)
(-0.5 -5.78759e-14 0)
(-0.5 -2.46728e-14 0)
(-0.5 -6.22044e-14 0)
(-0.5 -1.3286e-13 0)
(-0.5 1.79033e-07 0)
(-0.5 -4.28781e-08 0)
(-0.5 1.01671e-08 0)
(-0.5 -2.43338e-09 0)
(-0.5 5.8175e-10 0)
(-0.5 -1.37062e-10 0)
(-0.5 3.44808e-11 0)
(-0.5 -6.81187e-12 0)
(-0.5 2.85994e-12 0)
(-0.5 3.47406e-13 0)
(-0.5 7.55354e-13 0)
(-0.5 4.66982e-13 0)
(-0.5 3.57788e-13 0)
(-0.5 2.06372e-13 0)
(-0.5 7.97976e-14 0)
(-0.5 -1.47561e-14 0)
(-0.5 -4.07666e-14 0)
(-0.5 -1.13913e-14 0)
(-0.5 -5.17951e-14 0)
(-0.5 -1.24741e-13 0)
(-0.5 -1.83207e-07 0)
(-0.5 4.39189e-08 0)
(-0.5 -1.04091e-08 0)
(-0.5 2.4979e-09 0)
(-0.5 -5.93246e-10 0)
(-0.5 1.43548e-10 0)
(-0.5 -3.28118e-11 0)
(-0.5 9.26995e-12 0)
(-0.5 -9.88317e-13 0)
(-0.5 1.27493e-12 0)
(-0.5 5.3074e-13 0)
(-0.5 5.18864e-13 0)
(-0.5 3.45915e-13 0)
(-0.5 2.16026e-13 0)
(-0.5 9.12829e-14 0)
(-0.5 2.011e-15 0)
(-0.5 -2.47252e-14 0)
(-0.5 -7.03592e-16 0)
(-0.5 -4.04994e-14 0)
(-0.5 -1.1411e-13 0)
(-0.5 1.86841e-07 0)
(-0.5 -4.48046e-08 0)
(-0.5 1.06238e-08 0)
(-0.5 -2.54574e-09 0)
(-0.5 6.09026e-10 0)
(-0.5 -1.43542e-10 0)
(-0.5 3.61511e-11 0)
(-0.5 -7.19016e-12 0)
(-0.5 2.94291e-12 0)
(-0.5 2.96698e-13 0)
(-0.5 7.31896e-13 0)
(-0.5 4.41949e-13 0)
(-0.5 3.45004e-13 0)
(-0.5 2.0843e-13 0)
(-0.5 9.74426e-14 0)
(-0.5 1.38567e-14 0)
(-0.5 -1.19531e-14 0)
(-0.5 8.9336e-15 0)
(-0.5 -3.06197e-14 0)
(-0.5 -1.01117e-13 0)
(-0.5 -1.90039e-07 0)
(-0.5 4.55918e-08 0)
(-0.5 -1.08051e-08 0)
(-0.5 2.59501e-09 0)
(-0.5 -6.16342e-10 0)
(-0.5 1.49217e-10 0)
(-0.5 -3.41768e-11 0)
(-0.5 9.54306e-12 0)
(-0.5 -1.14753e-12 0)
(-0.5 1.20742e-12 0)
(-0.5 4.47112e-13 0)
(-0.5 4.56304e-13 0)
(-0.5 3.01807e-13 0)
(-0.5 1.95888e-13 0)
(-0.5 9.394e-14 0)
(-0.5 2.12889e-14 0)
(-0.5 -2.16984e-15 0)
(-0.5 1.35705e-14 0)
(-0.5 -2.15997e-14 0)
(-0.5 -8.60996e-14 0)
(-0.5 1.92628e-07 0)
(-0.5 -4.62183e-08 0)
(-0.5 1.09591e-08 0)
(-0.5 -2.62694e-09 0)
(-0.5 6.28821e-10 0)
(-0.5 -1.48228e-10 0)
(-0.5 3.71955e-11 0)
(-0.5 -7.61583e-12 0)
(-0.5 2.84043e-12 0)
(-0.5 1.18657e-13 0)
(-0.5 5.95868e-13 0)
(-0.5 3.29861e-13 0)
(-0.5 2.65e-13 0)
(-0.5 1.6167e-13 0)
(-0.5 8.1911e-14 0)
(-0.5 2.16983e-14 0)
(-0.5 3.25602e-15 0)
(-0.5 1.74669e-14 0)
(-0.5 -1.39815e-14 0)
(-0.5 -6.98017e-14 0)
(-0.5 -1.94722e-07 0)
(-0.5 4.67272e-08 0)
(-0.5 -1.10719e-08 0)
(-0.5 2.66129e-09 0)
(-0.5 -6.31851e-10 0)
(-0.5 1.52942e-10 0)
(-0.5 -3.53245e-11 0)
(-0.5 9.50671e-12 0)
(-0.5 -1.46524e-12 0)
(-0.5 9.91643e-13 0)
(-0.5 2.53552e-13 0)
(-0.5 3.11011e-13 0)
(-0.5 1.96489e-13 0)
(-0.5 1.33094e-13 0)
(-0.5 6.89975e-14 0)
(-0.5 2.50272e-14 0)
(-0.5 1.03791e-14 0)
(-0.5 1.85192e-14 0)
(-0.5 -6.14748e-15 0)
(-0.5 -5.26393e-14 0)
(-0.5 1.96151e-07 0)
(-0.5 -4.70575e-08 0)
(-0.5 1.11561e-08 0)
(-0.5 -2.67144e-09 0)
(-0.5 6.38944e-10 0)
(-0.5 -1.50806e-10 0)
(-0.5 3.71882e-11 0)
(-0.5 -8.13173e-12 0)
(-0.5 2.48955e-12 0)
(-0.5 -1.85774e-13 0)
(-0.5 3.55043e-13 0)
(-0.5 1.46063e-13 0)
(-0.5 1.32139e-13 0)
(-0.5 7.8577e-14 0)
(-0.5 4.25213e-14 0)
(-0.5 1.41279e-14 0)
(-0.5 6.05247e-15 0)
(-0.5 1.73102e-14 0)
(-0.5 3.44789e-15 0)
(-0.5 -3.38188e-14 0)
(-0.5 -1.9729e-07 0)
(-0.5 4.75781e-08 0)
(-0.5 -1.12804e-08 0)
(-0.5 2.72145e-09 0)
(-0.5 -6.49952e-10 0)
(-0.5 1.56311e-10 0)
(-0.5 -3.7376e-11 0)
(-0.5 9.21229e-12 0)
(-0.5 -2.05072e-12 0)
(-0.5 6.25089e-13 0)
(-0.5 -5.77276e-14 0)
(-0.5 8.08466e-14 0)
(-0.5 2.63347e-14 0)
(-0.5 2.17781e-14 0)
(-0.5 7.73078e-15 0)
(-0.5 5.51639e-17 0)
(-0.5 -3.22039e-16 0)
(-0.5 7.31691e-15 0)
(-0.5 4.42814e-15 0)
(-0.5 -1.17632e-14 0)
)
;

boundaryField
{
    movingWall
    {
        type            calculated;
        value           uniform (-0.5 -0 -0);
    }
    fixedWalls
    {
        type            calculated;
        value           uniform (-0.5 -0 -0);
    }
    frontAndBack
    {
        type            empty;
    }
}


// ************************************************************************* //
