/*--------------------------------*- C++ -*----------------------------------*\
| =========                 |                                                 |
| \\      /  F ield         | OpenFOAM: The Open Source CFD Toolbox           |
|  \\    /   O peration     | Version:  2312                                  |
|   \\  /    A nd           | Website:  www.openfoam.com                      |
|    \\/     M anipulation  |                                                 |
\*---------------------------------------------------------------------------*/
FoamFile
{
    version     2.0;
    format      ascii;
    arch        "LSB;label=32;scalar=64";
    class       volScalarField;
    location    "3.5";
    object      norm_k_field;
}
// * * * * * * * * * * * * * * * * * * * * * * * * * * * * * * * * * * * * * //

dimensions      [0 0 0 0 0 0 0];

internalField   nonuniform List<scalar> 
400
(
4.02495e+10
70624.7
5.25103e+06
1.51496e+07
4.02473e+10
4.02467e+10
4.02465e+10
4.0246e+10
4.02459e+10
4.02454e+10
4.02453e+10
4.0245e+10
4.02449e+10
4.02448e+10
4.02447e+10
4.02446e+10
5.75115e+08
1.5729e+08
1.09889e+08
9.72999e+07
5.44723e+10
5.4472e+10
5.44483e+10
5.44405e+10
5.44242e+10
5.44169e+10
5.44028e+10
5.43968e+10
5.43845e+10
5.43799e+10
5.43692e+10
5.43661e+10
5.43575e+10
5.43553e+10
5.43491e+10
5.43476e+10
4.10847e+08
1.77424e+08
1.31338e+08
1.18152e+08
7.29538e+10
21304
755086
394952
7.28668e+10
7.28527e+10
7.28288e+10
7.28162e+10
7.27964e+10
7.27856e+10
7.27697e+10
7.27609e+10
7.27486e+10
7.2742e+10
7.2733e+10
4.2185e+09
2.86172e+08
1.76831e+08
1.43658e+08
1.32884e+08
8.73597e+10
8.73564e+10
8.72985e+10
8.72741e+10
8.95742e+06
8.72124e+10
8.71775e+10
8.71591e+10
8.71301e+10
8.71145e+10
8.70909e+10
8.70783e+10
8.706e+10
8.70506e+10
8.70374e+10
3.81239e+08
2.0441e+08
1.56559e+08
1.3629e+08
1.28738e+08
9.64018e+10
15439.8
373741
237846
9.62448e+10
1.13897e+07
9.61761e+10
9.61552e+10
9.6117e+10
9.61006e+10
9.60682e+10
9.60562e+10
9.60301e+10
7.5357e+09
3.44937e+08
1.96784e+08
1.49644e+08
1.29209e+08
1.19139e+08
1.14927e+08
132574
1.01546e+11
1.01466e+11
1.01432e+11
2.94028e+06
1.01348e+11
2.13085e+07
1.01275e+11
1.01232e+11
1.01213e+11
1.01179e+11
1.37001e+10
3.73749e+08
2.12994e+08
1.56088e+08
1.28261e+08
1.13745e+08
1.06029e+08
1.01169e+08
9.87583e+07
1.04463e+11
14105.7
430546
205518
1.04277e+11
4.94956e+06
1.04195e+11
6.65818e+07
1.75357e+09
1.3459e+08
1.49356e+08
1.26592e+08
1.1696e+08
1.07194e+08
9.96958e+07
9.37001e+07
8.97054e+07
8.73572e+07
8.56868e+07
8.46723e+07
113407
1.06235e+11
1.06141e+11
1.06109e+11
2.21215e+06
1.06015e+11
9.76017e+06
6.51422e+07
3.85996e+07
5.88722e+07
6.00882e+07
6.648e+07
6.94536e+07
7.19257e+07
7.29286e+07
7.31401e+07
7.34453e+07
7.38217e+07
7.35169e+07
7.30467e+07
1.07483e+11
14606.5
453927
207968
1.07287e+11
3.90418e+06
1.072e+11
1.95469e+07
3.40894e+07
3.31226e+07
4.04295e+07
4.50467e+07
5.0246e+07
5.44051e+07
5.77534e+07
6.01664e+07
6.20904e+07
6.35285e+07
6.41151e+07
6.4101e+07
123108
1.08508e+11
1.0841e+11
1.08376e+11
2.06888e+06
1.08277e+11
7.29966e+06
2.08583e+07
1.94551e+07
2.64328e+07
3.00233e+07
3.51746e+07
3.97762e+07
4.43243e+07
4.81804e+07
5.13269e+07
5.40243e+07
5.60939e+07
5.69738e+07
5.707e+07
1.09482e+11
16306.1
483134
228609
1.09277e+11
3.59916e+06
4.43272e+07
1.2732e+07
1.88983e+07
2.05096e+07
2.50598e+07
2.90352e+07
3.35248e+07
3.78194e+07
4.17882e+07
4.52069e+07
4.81299e+07
5.03493e+07
5.14751e+07
5.17263e+07
146329
1.1048e+11
1.10385e+11
1.10345e+11
2.10252e+06
1.10244e+11
6.3371e+06
1.35253e+07
1.4089e+07
1.83412e+07
2.13867e+07
2.53592e+07
2.93287e+07
3.34564e+07
3.73058e+07
4.07357e+07
4.37681e+07
4.61141e+07
4.72713e+07
4.75228e+07
1.11581e+11
19604.5
546009
270326
1.11368e+11
3.58415e+06
1.66187e+07
1.01372e+07
1.40171e+07
1.58746e+07
1.93221e+07
2.26843e+07
2.64919e+07
3.03493e+07
3.40847e+07
3.74867e+07
4.04901e+07
4.27912e+07
4.40032e+07
4.43229e+07
187148
1.12808e+11
1.12702e+11
1.12666e+11
2.26234e+06
3.09328e+07
5.95436e+06
1.06672e+07
1.17544e+07
1.49241e+07
1.76049e+07
2.09418e+07
2.44347e+07
2.81391e+07
3.17248e+07
3.50347e+07
3.80126e+07
4.03277e+07
4.15195e+07
4.18345e+07
1.14224e+11
25868.9
661847
348121
1.14004e+11
3.77061e+06
1.08772e+07
8.92899e+06
1.18164e+07
1.37122e+07
1.66175e+07
1.96167e+07
2.30045e+07
2.65249e+07
3.00044e+07
3.32536e+07
3.6172e+07
3.84318e+07
3.96461e+07
4.00077e+07
262461
1.15869e+11
1.15764e+11
1.15721e+11
2.56392e+06
1.14806e+07
5.93244e+06
9.34518e+06
1.06818e+07
1.33123e+07
1.57938e+07
1.87835e+07
2.19892e+07
2.54143e+07
2.87931e+07
3.1974e+07
3.48683e+07
3.71337e+07
3.83417e+07
3.87058e+07
1.17822e+11
39180.9
889274
504954
1.3959e+07
4.18475e+06
8.70299e+06
8.48859e+06
1.08621e+07
1.27918e+07
1.54122e+07
1.82231e+07
2.13782e+07
2.47091e+07
2.80324e+07
3.11814e+07
3.40495e+07
3.6299e+07
3.75301e+07
3.79039e+07
448701
1.20024e+11
1.19911e+11
1.19864e+11
3.1312e+06
7.81713e+06
6.30586e+06
8.90145e+06
1.041e+07
1.27428e+07
1.51383e+07
1.79544e+07
2.10253e+07
2.43168e+07
2.75976e+07
3.0722e+07
3.36053e+07
3.59008e+07
3.71442e+07
3.7506e+07
1.22153e+11
79586.6
1.37492e+06
957007
7.08966e+06
5.08005e+06
7.81547e+06
8.59296e+06
1.05888e+07
1.25817e+07
1.5045e+07
1.7783e+07
2.08402e+07
2.40963e+07
2.73603e+07
3.05075e+07
3.34478e+07
3.57514e+07
3.6966e+07
3.73682e+07
968730
1.22883e+11
3.01877e+06
1.22879e+11
3.903e+06
6.94529e+06
6.82765e+06
8.8289e+06
1.04015e+07
1.25816e+07
1.49561e+07
1.77134e+07
2.07497e+07
2.40027e+07
2.72739e+07
3.04612e+07
3.34273e+07
3.56637e+07
3.68422e+07
3.73274e+07
)
;

boundaryField
{
    movingWall
    {
        type            calculated;
        value           nonuniform List<scalar> 
20
(
968730
1.22883e+11
3.01877e+06
1.22879e+11
3.903e+06
6.94529e+06
6.82765e+06
8.8289e+06
1.04015e+07
1.25816e+07
1.49561e+07
1.77134e+07
2.07497e+07
2.40027e+07
2.72739e+07
3.04612e+07
3.34273e+07
3.56637e+07
3.68422e+07
3.73274e+07
)
;
    }
    fixedWalls
    {
        type            calculated;
        value           nonuniform List<scalar> 
60
(
4.02495e+10
5.44723e+10
7.29538e+10
8.73597e+10
9.64018e+10
132574
1.04463e+11
113407
1.07483e+11
123108
1.09482e+11
146329
1.11581e+11
187148
1.14224e+11
262461
1.17822e+11
448701
1.22153e+11
968730
9.72999e+07
1.18152e+08
1.32884e+08
1.28738e+08
1.14927e+08
9.87583e+07
8.46723e+07
7.30467e+07
6.4101e+07
5.707e+07
5.17263e+07
4.75228e+07
4.43229e+07
4.18345e+07
4.00077e+07
3.87058e+07
3.79039e+07
3.7506e+07
3.73682e+07
3.73274e+07
4.02495e+10
70624.7
5.25103e+06
1.51496e+07
4.02473e+10
4.02467e+10
4.02465e+10
4.0246e+10
4.02459e+10
4.02454e+10
4.02453e+10
4.0245e+10
4.02449e+10
4.02448e+10
4.02447e+10
4.02446e+10
5.75115e+08
1.5729e+08
1.09889e+08
9.72999e+07
)
;
    }
    frontAndBack
    {
        type            empty;
    }
}


// ************************************************************************* //
