/*--------------------------------*- C++ -*----------------------------------*\
| =========                 |                                                 |
| \\      /  F ield         | OpenFOAM: The Open Source CFD Toolbox           |
|  \\    /   O peration     | Version:  2312                                  |
|   \\  /    A nd           | Website:  www.openfoam.com                      |
|    \\/     M anipulation  |                                                 |
\*---------------------------------------------------------------------------*/
FoamFile
{
    version     2.0;
    format      ascii;
    arch        "LSB;label=32;scalar=64";
    class       volVectorField;
    location    "3.5";
    object      norm_U_L1;
}
// * * * * * * * * * * * * * * * * * * * * * * * * * * * * * * * * * * * * * //

dimensions      [0 0 0 0 0 0 0];

internalField   nonuniform List<vector> 
400
(
(-0.0025 5.63419e-10 0)
(-0.0025 -1.28228e-10 0)
(-0.0025 3.03657e-11 0)
(-0.0025 -6.92366e-12 0)
(-0.0025 1.60423e-12 0)
(-0.0025 -3.73327e-13 0)
(-0.0025 8.37819e-14 0)
(-0.0025 -1.99576e-14 0)
(-0.0025 4.17779e-15 0)
(-0.0025 -1.12974e-15 0)
(-0.0025 1.62953e-16 0)
(-0.0025 -8.30143e-17 0)
(-0.0025 -1.74257e-17 0)
(-0.0025 -4.78558e-17 0)
(-0.0025 -7.03166e-17 0)
(-0.0025 -8.63429e-17 0)
(-0.0025 -7.53649e-17 0)
(-0.0025 -5.44038e-17 0)
(-0.0025 -4.64423e-17 0)
(-0.0025 -6.44423e-17 0)
(-0.0025 -5.76295e-10 0)
(-0.0025 1.31025e-10 0)
(-0.0025 -3.09734e-11 0)
(-0.0025 7.04253e-12 0)
(-0.0025 -1.63183e-12 0)
(-0.0025 3.7334e-13 0)
(-0.0025 -8.67808e-14 0)
(-0.0025 1.82458e-14 0)
(-0.0025 -5.06166e-15 0)
(-0.0025 6.60787e-16 0)
(-0.0025 -3.45366e-16 0)
(-0.0025 -6.62819e-18 0)
(-0.0025 -6.40046e-17 0)
(-0.0025 -1.13202e-16 0)
(-0.0025 -1.97311e-16 0)
(-0.0025 -2.56532e-16 0)
(-0.0025 -2.33514e-16 0)
(-0.0025 -1.40499e-16 0)
(-0.0025 -1.48326e-16 0)
(-0.0025 -1.9107e-16 0)
(-0.0025 6.02217e-10 0)
(-0.0025 -1.37055e-10 0)
(-0.0025 3.24399e-11 0)
(-0.0025 -7.39678e-12 0)
(-0.0025 1.70459e-12 0)
(-0.0025 -4.0241e-13 0)
(-0.0025 8.60666e-14 0)
(-0.0025 -2.26649e-14 0)
(-0.0025 3.76058e-15 0)
(-0.0025 -1.42008e-15 0)
(-0.0025 1.38433e-16 0)
(-0.0025 -6.49845e-17 0)
(-0.0025 -2.38401e-17 0)
(-0.0025 -1.54131e-16 0)
(-0.0025 -2.94589e-16 0)
(-0.0025 -3.97384e-16 0)
(-0.0025 -3.66512e-16 0)
(-0.0025 -2.27927e-16 0)
(-0.0025 -2.3703e-16 0)
(-0.0025 -3.09881e-16 0)
(-0.0025 -6.3873e-10 0)
(-0.0025 1.45796e-10 0)
(-0.0025 -3.46268e-11 0)
(-0.0025 7.84152e-12 0)
(-0.0025 -1.84875e-12 0)
(-0.0025 4.15592e-13 0)
(-0.0025 -9.9876e-14 0)
(-0.0025 2.03302e-14 0)
(-0.0025 -5.82946e-15 0)
(-0.0025 9.254e-16 0)
(-0.0025 -1.98846e-16 0)
(-0.0025 1.68393e-16 0)
(-0.0025 2.84763e-17 0)
(-0.0025 -1.41007e-16 0)
(-0.0025 -3.56135e-16 0)
(-0.0025 -5.07955e-16 0)
(-0.0025 -4.7832e-16 0)
(-0.0025 -2.89484e-16 0)
(-0.0025 -3.13921e-16 0)
(-0.0025 -4.17908e-16 0)
(-0.0025 6.77421e-10 0)
(-0.0025 -1.56784e-10 0)
(-0.0025 3.70779e-11 0)
(-0.0025 -8.54978e-12 0)
(-0.0025 1.98583e-12 0)
(-0.0025 -4.67068e-13 0)
(-0.0025 1.02769e-13 0)
(-0.0025 -2.58364e-14 0)
(-0.0025 5.22997e-15 0)
(-0.0025 -1.09574e-15 0)
(-0.0025 6.40939e-16 0)
(-0.0025 2.65333e-16 0)
(-0.0025 1.95592e-16 0)
(-0.0025 -8.83603e-17 0)
(-0.0025 -3.71743e-16 0)
(-0.0025 -5.76483e-16 0)
(-0.0025 -5.51568e-16 0)
(-0.0025 -3.36336e-16 0)
(-0.0025 -3.72763e-16 0)
(-0.0025 -5.10866e-16 0)
(-0.0025 -7.09018e-10 0)
(-0.0025 1.66104e-10 0)
(-0.0025 -3.9315e-11 0)
(-0.0025 9.17937e-12 0)
(-0.0025 -2.16043e-12 0)
(-0.0025 5.02242e-13 0)
(-0.0025 -1.17883e-13 0)
(-0.0025 2.71103e-14 0)
(-0.0025 -5.80611e-15 0)
(-0.0025 2.17619e-15 0)
(-0.0025 4.40514e-16 0)
(-0.0025 6.9855e-16 0)
(-0.0025 3.63219e-16 0)
(-0.0025 2.54746e-17 0)
(-0.0025 -3.4446e-16 0)
(-0.0025 -6.04748e-16 0)
(-0.0025 -5.95824e-16 0)
(-0.0025 -3.55996e-16 0)
(-0.0025 -4.13963e-16 0)
(-0.0025 -5.86728e-16 0)
(-0.0025 7.3856e-10 0)
(-0.0025 -1.74341e-10 0)
(-0.0025 4.12927e-11 0)
(-0.0025 -9.73445e-12 0)
(-0.0025 2.29899e-12 0)
(-0.0025 -5.41777e-13 0)
(-0.0025 1.27992e-13 0)
(-0.0025 -2.88636e-14 0)
(-0.0025 8.3737e-15 0)
(-0.0025 -2.35909e-16 0)
(-0.0025 1.63158e-15 0)
(-0.0025 8.82305e-16 0)
(-0.0025 6.38198e-16 0)
(-0.0025 1.62356e-16 0)
(-0.0025 -2.74711e-16 0)
(-0.0025 -5.91504e-16 0)
(-0.0025 -6.00824e-16 0)
(-0.0025 -3.57065e-16 0)
(-0.0025 -4.36109e-16 0)
(-0.0025 -6.44207e-16 0)
(-0.0025 -7.67157e-10 0)
(-0.0025 1.81997e-10 0)
(-0.0025 -4.31145e-11 0)
(-0.0025 1.02252e-11 0)
(-0.0025 -2.41967e-12 0)
(-0.0025 5.75827e-13 0)
(-0.0025 -1.33652e-13 0)
(-0.0025 3.44282e-14 0)
(-0.0025 -5.36512e-15 0)
(-0.0025 3.86318e-15 0)
(-0.0025 1.31921e-15 0)
(-0.0025 1.43043e-15 0)
(-0.0025 8.51108e-16 0)
(-0.0025 3.41933e-16 0)
(-0.0025 -1.7747e-16 0)
(-0.0025 -5.43277e-16 0)
(-0.0025 -5.78309e-16 0)
(-0.0025 -3.35477e-16 0)
(-0.0025 -4.39833e-16 0)
(-0.0025 -6.82976e-16 0)
(-0.0025 7.94917e-10 0)
(-0.0025 -1.89152e-10 0)
(-0.0025 4.48405e-11 0)
(-0.0025 -1.0662e-11 0)
(-0.0025 2.5378e-12 0)
(-0.0025 -5.97994e-13 0)
(-0.0025 1.46809e-13 0)
(-0.0025 -3.07058e-14 0)
(-0.0025 1.11347e-14 0)
(-0.0025 7.5182e-16 0)
(-0.0025 2.66072e-15 0)
(-0.0025 1.5654e-15 0)
(-0.0025 1.15257e-15 0)
(-0.0025 5.08157e-16 0)
(-0.0025 -5.59741e-17 0)
(-0.0025 -4.68428e-16 0)
(-0.0025 -5.27139e-16 0)
(-0.0025 -2.97324e-16 0)
(-0.0025 -4.27282e-16 0)
(-0.0025 -7.02912e-16 0)
(-0.0025 -8.22097e-10 0)
(-0.0025 1.96115e-10 0)
(-0.0025 -4.64748e-11 0)
(-0.0025 1.10951e-11 0)
(-0.0025 -2.63065e-12 0)
(-0.0025 6.32569e-13 0)
(-0.0025 -1.45273e-13 0)
(-0.0025 3.97894e-14 0)
(-0.0025 -4.80793e-15 0)
(-0.0025 5.22756e-15 0)
(-0.0025 2.11558e-15 0)
(-0.0025 2.09258e-15 0)
(-0.0025 1.32781e-15 0)
(-0.0025 6.92748e-16 0)
(-0.0025 6.86178e-17 0)
(-0.0025 -3.73968e-16 0)
(-0.0025 -4.58568e-16 0)
(-0.0025 -2.46626e-16 0)
(-0.0025 -3.99232e-16 0)
(-0.0025 -7.05339e-16 0)
(-0.0025 8.47908e-10 0)
(-0.0025 -2.02594e-10 0)
(-0.0025 4.8036e-11 0)
(-0.0025 -1.14703e-11 0)
(-0.0025 2.73835e-12 0)
(-0.0025 -6.45034e-13 0)
(-0.0025 1.61144e-13 0)
(-0.0025 -3.22908e-14 0)
(-0.0025 1.31076e-14 0)
(-0.0025 1.47338e-15 0)
(-0.0025 3.42072e-15 0)
(-0.0025 2.09538e-15 0)
(-0.0025 1.57446e-15 0)
(-0.0025 8.31357e-16 0)
(-0.0025 1.96984e-16 0)
(-0.0025 -2.72218e-16 0)
(-0.0025 -3.77095e-16 0)
(-0.0025 -1.8597e-16 0)
(-0.0025 -3.60568e-16 0)
(-0.0025 -6.91747e-16 0)
(-0.0025 -8.72589e-10 0)
(-0.0025 2.08809e-10 0)
(-0.0025 -4.94878e-11 0)
(-0.0025 1.18541e-11 0)
(-0.0025 -2.8135e-12 0)
(-0.0025 6.79536e-13 0)
(-0.0025 -1.55362e-13 0)
(-0.0025 4.36916e-14 0)
(-0.0025 -4.63625e-15 0)
(-0.0025 6.08503e-15 0)
(-0.0025 2.59501e-15 0)
(-0.0025 2.51207e-15 0)
(-0.0025 1.65163e-15 0)
(-0.0025 9.66939e-16 0)
(-0.0025 3.05787e-16 0)
(-0.0025 -1.67194e-16 0)
(-0.0025 -2.89379e-16 0)
(-0.0025 -1.23364e-16 0)
(-0.0025 -3.11022e-16 0)
(-0.0025 -6.64299e-16 0)
(-0.0025 8.95163e-10 0)
(-0.0025 -2.14391e-10 0)
(-0.0025 5.08353e-11 0)
(-0.0025 -1.21669e-11 0)
(-0.0025 2.90875e-12 0)
(-0.0025 -6.85308e-13 0)
(-0.0025 1.72404e-13 0)
(-0.0025 -3.40594e-14 0)
(-0.0025 1.42997e-14 0)
(-0.0025 1.73703e-15 0)
(-0.0025 3.77677e-15 0)
(-0.0025 2.33491e-15 0)
(-0.0025 1.78894e-15 0)
(-0.0025 1.03186e-15 0)
(-0.0025 3.98988e-16 0)
(-0.0025 -7.37803e-17 0)
(-0.0025 -2.03833e-16 0)
(-0.0025 -5.69563e-17 0)
(-0.0025 -2.58976e-16 0)
(-0.0025 -6.23703e-16 0)
(-0.0025 -9.16033e-10 0)
(-0.0025 2.19594e-10 0)
(-0.0025 -5.20457e-11 0)
(-0.0025 1.24895e-11 0)
(-0.0025 -2.96623e-12 0)
(-0.0025 7.17738e-13 0)
(-0.0025 -1.64059e-13 0)
(-0.0025 4.63498e-14 0)
(-0.0025 -4.94158e-15 0)
(-0.0025 6.37464e-15 0)
(-0.0025 2.6537e-15 0)
(-0.0025 2.59432e-15 0)
(-0.0025 1.72958e-15 0)
(-0.0025 1.08013e-15 0)
(-0.0025 4.56415e-16 0)
(-0.0025 1.0055e-17 0)
(-0.0025 -1.23626e-16 0)
(-0.0025 -3.51796e-18 0)
(-0.0025 -2.02497e-16 0)
(-0.0025 -5.70549e-16 0)
(-0.0025 9.34205e-10 0)
(-0.0025 -2.24023e-10 0)
(-0.0025 5.31189e-11 0)
(-0.0025 -1.27287e-11 0)
(-0.0025 3.04513e-12 0)
(-0.0025 -7.17712e-13 0)
(-0.0025 1.80755e-13 0)
(-0.0025 -3.59508e-14 0)
(-0.0025 1.47146e-14 0)
(-0.0025 1.48349e-15 0)
(-0.0025 3.65948e-15 0)
(-0.0025 2.20974e-15 0)
(-0.0025 1.72502e-15 0)
(-0.0025 1.04215e-15 0)
(-0.0025 4.87213e-16 0)
(-0.0025 6.92836e-17 0)
(-0.0025 -5.97653e-17 0)
(-0.0025 4.4668e-17 0)
(-0.0025 -1.53098e-16 0)
(-0.0025 -5.05586e-16 0)
(-0.0025 -9.50197e-10 0)
(-0.0025 2.27959e-10 0)
(-0.0025 -5.40254e-11 0)
(-0.0025 1.29751e-11 0)
(-0.0025 -3.08171e-12 0)
(-0.0025 7.46086e-13 0)
(-0.0025 -1.70884e-13 0)
(-0.0025 4.77153e-14 0)
(-0.0025 -5.73765e-15 0)
(-0.0025 6.03709e-15 0)
(-0.0025 2.23556e-15 0)
(-0.0025 2.28152e-15 0)
(-0.0025 1.50903e-15 0)
(-0.0025 9.79442e-16 0)
(-0.0025 4.697e-16 0)
(-0.0025 1.06444e-16 0)
(-0.0025 -1.08492e-17 0)
(-0.0025 6.78523e-17 0)
(-0.0025 -1.07998e-16 0)
(-0.0025 -4.30498e-16 0)
(-0.0025 9.63139e-10 0)
(-0.0025 -2.31092e-10 0)
(-0.0025 5.47955e-11 0)
(-0.0025 -1.31347e-11 0)
(-0.0025 3.1441e-12 0)
(-0.0025 -7.41138e-13 0)
(-0.0025 1.85978e-13 0)
(-0.0025 -3.80792e-14 0)
(-0.0025 1.42021e-14 0)
(-0.0025 5.93287e-16 0)
(-0.0025 2.97934e-15 0)
(-0.0025 1.6493e-15 0)
(-0.0025 1.325e-15 0)
(-0.0025 8.08348e-16 0)
(-0.0025 4.09555e-16 0)
(-0.0025 1.08491e-16 0)
(-0.0025 1.62801e-17 0)
(-0.0025 8.73346e-17 0)
(-0.0025 -6.99075e-17 0)
(-0.0025 -3.49009e-16 0)
(-0.0025 -9.73609e-10 0)
(-0.0025 2.33636e-10 0)
(-0.0025 -5.53594e-11 0)
(-0.0025 1.33065e-11 0)
(-0.0025 -3.15925e-12 0)
(-0.0025 7.64708e-13 0)
(-0.0025 -1.76623e-13 0)
(-0.0025 4.75336e-14 0)
(-0.0025 -7.3262e-15 0)
(-0.0025 4.95822e-15 0)
(-0.0025 1.26776e-15 0)
(-0.0025 1.55506e-15 0)
(-0.0025 9.82444e-16 0)
(-0.0025 6.6547e-16 0)
(-0.0025 3.44987e-16 0)
(-0.0025 1.25136e-16 0)
(-0.0025 5.18954e-17 0)
(-0.0025 9.25962e-17 0)
(-0.0025 -3.07374e-17 0)
(-0.0025 -2.63197e-16 0)
(-0.0025 9.80755e-10 0)
(-0.0025 -2.35288e-10 0)
(-0.0025 5.57806e-11 0)
(-0.0025 -1.33572e-11 0)
(-0.0025 3.19472e-12 0)
(-0.0025 -7.5403e-13 0)
(-0.0025 1.85941e-13 0)
(-0.0025 -4.06586e-14 0)
(-0.0025 1.24477e-14 0)
(-0.0025 -9.2887e-16 0)
(-0.0025 1.77521e-15 0)
(-0.0025 7.30314e-16 0)
(-0.0025 6.60695e-16 0)
(-0.0025 3.92885e-16 0)
(-0.0025 2.12606e-16 0)
(-0.0025 7.06394e-17 0)
(-0.0025 3.02623e-17 0)
(-0.0025 8.65509e-17 0)
(-0.0025 1.72394e-17 0)
(-0.0025 -1.69094e-16 0)
(-0.0025 -9.86449e-10 0)
(-0.0025 2.3789e-10 0)
(-0.0025 -5.64022e-11 0)
(-0.0025 1.36072e-11 0)
(-0.0025 -3.24976e-12 0)
(-0.0025 7.81557e-13 0)
(-0.0025 -1.8688e-13 0)
(-0.0025 4.60615e-14 0)
(-0.0025 -1.02536e-14 0)
(-0.0025 3.12545e-15 0)
(-0.0025 -2.88638e-16 0)
(-0.0025 4.04233e-16 0)
(-0.0025 1.31674e-16 0)
(-0.0025 1.08891e-16 0)
(-0.0025 3.86539e-17 0)
(-0.0025 2.7582e-19 0)
(-0.0025 -1.6102e-18 0)
(-0.0025 3.65845e-17 0)
(-0.0025 2.21407e-17 0)
(-0.0025 -5.88161e-17 0)
)
;

boundaryField
{
    movingWall
    {
        type            calculated;
        value           uniform (-0.0025 -0 -0);
    }
    fixedWalls
    {
        type            calculated;
        value           uniform (-0.0025 -0 -0);
    }
    frontAndBack
    {
        type            empty;
    }
}


// ************************************************************************* //
