/*--------------------------------*- C++ -*----------------------------------*\
| =========                 |                                                 |
| \\      /  F ield         | OpenFOAM: The Open Source CFD Toolbox           |
|  \\    /   O peration     | Version:  2312                                  |
|   \\  /    A nd           | Website:  www.openfoam.com                      |
|    \\/     M anipulation  |                                                 |
\*---------------------------------------------------------------------------*/
FoamFile
{
    version     2.0;
    format      ascii;
    arch        "LSB;label=32;scalar=64";
    class       volScalarField;
    location    "3.5";
    object      nut;
}
// * * * * * * * * * * * * * * * * * * * * * * * * * * * * * * * * * * * * * //

dimensions      [0 2 -1 0 0 0 0];

internalField   nonuniform List<scalar> 
400
(
3.53983e-06
3.53977e-06
3.53979e-06
3.53972e-06
3.53975e-06
3.53968e-06
3.53972e-06
3.53965e-06
3.53968e-06
3.53963e-06
3.53966e-06
3.53962e-06
3.53963e-06
3.53961e-06
3.53962e-06
3.53961e-06
3.53961e-06
3.53961e-06
3.53961e-06
3.53961e-06
4.10851e-06
4.28834e-06
4.27096e-06
4.26397e-06
4.24994e-06
4.24272e-06
4.22904e-06
4.22172e-06
4.20832e-06
4.20094e-06
4.18776e-06
4.18034e-06
4.16742e-06
4.15991e-06
4.14728e-06
4.13967e-06
4.12732e-06
4.1196e-06
4.11345e-06
4.10364e-06
4.74519e-06
4.99549e-06
4.97091e-06
4.96088e-06
4.94113e-06
4.93079e-06
4.91172e-06
4.90118e-06
4.88269e-06
4.87201e-06
4.85404e-06
4.84328e-06
4.82573e-06
4.81497e-06
4.79777e-06
4.78705e-06
4.77019e-06
4.75949e-06
4.75109e-06
4.73765e-06
5.18722e-06
5.49508e-06
5.46505e-06
5.45229e-06
5.42797e-06
5.41509e-06
5.39155e-06
5.37846e-06
5.35568e-06
5.34245e-06
5.32032e-06
5.30701e-06
5.28546e-06
5.27213e-06
5.25109e-06
5.23781e-06
5.21724e-06
5.20397e-06
5.19372e-06
5.17726e-06
5.44646e-06
5.79099e-06
5.75661e-06
5.74283e-06
5.71523e-06
5.70096e-06
5.67442e-06
5.65991e-06
5.63412e-06
5.61958e-06
5.59447e-06
5.5799e-06
5.55545e-06
5.54084e-06
5.51707e-06
5.50238e-06
5.47934e-06
5.4645e-06
5.45306e-06
5.43471e-06
5.58864e-06
5.95361e-06
5.91772e-06
5.90253e-06
5.87348e-06
5.85819e-06
5.83003e-06
5.8146e-06
5.78729e-06
5.77173e-06
5.74529e-06
5.72959e-06
5.70396e-06
5.6882e-06
5.66324e-06
5.64749e-06
5.62324e-06
5.60742e-06
5.59536e-06
5.57593e-06
5.66758e-06
6.04422e-06
6.00661e-06
5.99136e-06
5.96119e-06
5.94543e-06
5.91638e-06
5.90043e-06
5.87223e-06
5.85624e-06
5.82882e-06
5.81279e-06
5.78617e-06
5.77007e-06
5.7442e-06
5.72805e-06
5.70298e-06
5.68668e-06
5.67424e-06
5.65422e-06
5.71511e-06
6.0987e-06
6.06029e-06
6.04482e-06
6.01397e-06
5.99795e-06
5.96841e-06
5.95203e-06
5.92353e-06
5.90697e-06
5.87931e-06
5.86275e-06
5.83579e-06
5.81927e-06
5.793e-06
5.7765e-06
5.75101e-06
5.73438e-06
5.72173e-06
5.70136e-06
5.74809e-06
6.13629e-06
6.09802e-06
6.08178e-06
6.05088e-06
6.03447e-06
6.00457e-06
5.98794e-06
5.95912e-06
5.94222e-06
5.91444e-06
5.89737e-06
5.87041e-06
5.85332e-06
5.82711e-06
5.81009e-06
5.78452e-06
5.76754e-06
5.75481e-06
5.73416e-06
5.77526e-06
6.16754e-06
6.1282e-06
6.11236e-06
6.08091e-06
6.0644e-06
6.03421e-06
6.01745e-06
5.98817e-06
5.97138e-06
5.94291e-06
5.9261e-06
5.89849e-06
5.88158e-06
5.8548e-06
5.83784e-06
5.81185e-06
5.7948e-06
5.7819e-06
5.76106e-06
5.80073e-06
6.19665e-06
6.15702e-06
6.14097e-06
6.10913e-06
6.09259e-06
6.06194e-06
6.0452e-06
6.01549e-06
5.99864e-06
5.9699e-06
5.9529e-06
5.92505e-06
5.90799e-06
5.88093e-06
5.86383e-06
5.8376e-06
5.82039e-06
5.80737e-06
5.78635e-06
5.82688e-06
6.22642e-06
6.18697e-06
6.17028e-06
6.13834e-06
6.12149e-06
6.0907e-06
6.0735e-06
6.044e-06
6.02647e-06
5.99788e-06
5.9803e-06
5.95254e-06
5.93496e-06
5.90798e-06
5.89048e-06
5.86416e-06
5.84669e-06
5.83359e-06
5.81236e-06
5.85538e-06
6.25915e-06
6.21877e-06
6.20232e-06
6.16988e-06
6.15295e-06
6.1217e-06
6.10457e-06
6.07432e-06
6.05706e-06
6.0278e-06
6.01042e-06
5.98202e-06
5.96462e-06
5.93702e-06
5.91959e-06
5.89284e-06
5.87528e-06
5.86201e-06
5.84059e-06
5.88722e-06
6.29564e-06
6.2546e-06
6.23808e-06
6.20523e-06
6.18803e-06
6.15655e-06
6.13903e-06
6.10872e-06
6.09094e-06
6.06165e-06
6.04378e-06
6.01533e-06
5.99747e-06
5.96977e-06
5.95196e-06
5.92504e-06
5.90719e-06
5.89381e-06
5.87214e-06
5.92338e-06
6.33687e-06
6.29615e-06
6.27857e-06
6.24587e-06
6.22808e-06
6.19637e-06
6.17843e-06
6.14786e-06
6.12968e-06
6.10015e-06
6.0819e-06
6.05318e-06
6.03502e-06
6.00703e-06
5.98892e-06
5.96178e-06
5.9436e-06
5.9301e-06
5.90814e-06
5.96552e-06
6.38526e-06
6.34369e-06
6.32619e-06
6.29248e-06
6.2748e-06
6.2424e-06
6.22441e-06
6.1931e-06
6.175e-06
6.14454e-06
6.12644e-06
6.09696e-06
6.07872e-06
6.05016e-06
6.0319e-06
6.0043e-06
5.9859e-06
5.97219e-06
5.94992e-06
6.01481e-06
6.44195e-06
6.39903e-06
6.38168e-06
6.34722e-06
6.32931e-06
6.29615e-06
6.27802e-06
6.24604e-06
6.22769e-06
6.19674e-06
6.17833e-06
6.14826e-06
6.12986e-06
6.10067e-06
6.08221e-06
6.05398e-06
6.03536e-06
6.02137e-06
5.99874e-06
6.07004e-06
6.5049e-06
6.46188e-06
6.4436e-06
6.40881e-06
6.39034e-06
6.3568e-06
6.33797e-06
6.30583e-06
6.28666e-06
6.25559e-06
6.23632e-06
6.2062e-06
6.18696e-06
6.15766e-06
6.13851e-06
6.11e-06
6.09086e-06
6.07669e-06
6.05362e-06
6.12266e-06
6.55325e-06
6.51104e-06
6.49378e-06
6.45983e-06
6.44182e-06
6.40905e-06
6.39059e-06
6.35894e-06
6.34e-06
6.30937e-06
6.29009e-06
6.26028e-06
6.24085e-06
6.21168e-06
6.1922e-06
6.16368e-06
6.14407e-06
6.12981e-06
6.10642e-06
6.14089e-06
6.14061e-06
6.14088e-06
6.14047e-06
6.14084e-06
6.1404e-06
6.14075e-06
6.1404e-06
6.14063e-06
6.14045e-06
6.14053e-06
6.14047e-06
6.14049e-06
6.14047e-06
6.14048e-06
6.14047e-06
6.14047e-06
6.14047e-06
6.14047e-06
6.14047e-06
)
;

boundaryField
{
    movingWall
    {
        type            nutkWallFunction;
        blending        stepwise;
        value           uniform 0;
    }
    fixedWalls
    {
        type            nutkWallFunction;
        blending        stepwise;
        value           uniform 0;
    }
    frontAndBack
    {
        type            empty;
    }
}


// ************************************************************************* //
