/*--------------------------------*- C++ -*----------------------------------*\
| =========                 |                                                 |
| \\      /  F ield         | OpenFOAM: The Open Source CFD Toolbox           |
|  \\    /   O peration     | Version:  2312                                  |
|   \\  /    A nd           | Website:  www.openfoam.com                      |
|    \\/     M anipulation  |                                                 |
\*---------------------------------------------------------------------------*/
FoamFile
{
    version     2.0;
    format      ascii;
    arch        "LSB;label=32;scalar=64";
    class       volScalarField;
    location    "3.5";
    object      P_A;
}
// * * * * * * * * * * * * * * * * * * * * * * * * * * * * * * * * * * * * * //

dimensions      [1 -1 -3 0 0 0 0];

internalField   nonuniform List<scalar> 
400
(
5.27066e-29
5.27024e-29
5.26995e-29
5.26968e-29
5.26945e-29
5.26921e-29
5.26904e-29
5.26882e-29
5.26871e-29
5.26849e-29
5.26845e-29
5.26828e-29
5.26823e-29
5.26817e-29
5.2681e-29
5.26807e-29
5.26803e-29
5.26802e-29
5.268e-29
5.268e-29
1.77226e-28
1.69791e-28
1.70147e-28
1.70317e-28
1.70649e-28
1.70836e-28
1.71189e-28
1.71401e-28
1.71772e-28
1.72009e-28
1.72397e-28
1.72659e-28
1.7307e-28
1.73351e-28
1.73789e-28
1.74088e-28
1.74555e-28
1.74871e-28
1.75113e-28
1.75527e-28
5.71329e-28
5.42651e-28
5.43924e-28
5.44522e-28
5.45734e-28
5.46401e-28
5.47712e-28
5.48465e-28
5.49868e-28
5.50706e-28
5.52203e-28
5.53127e-28
5.54716e-28
5.55729e-28
5.5741e-28
5.58514e-28
5.60293e-28
5.61481e-28
5.62406e-28
5.63978e-28
1.17595e-27
1.10988e-27
1.11265e-27
1.11385e-27
1.1165e-27
1.11794e-27
1.1208e-27
1.12246e-27
1.12555e-27
1.12743e-27
1.13074e-27
1.13284e-27
1.13638e-27
1.1387e-27
1.14248e-27
1.14503e-27
1.14905e-27
1.15181e-27
1.15391e-27
1.15752e-27
1.74459e-27
1.64061e-27
1.64452e-27
1.64649e-27
1.65039e-27
1.65264e-27
1.65693e-27
1.65955e-27
1.66417e-27
1.66719e-27
1.67214e-27
1.67556e-27
1.68088e-27
1.68466e-27
1.6904e-27
1.6945e-27
1.70071e-27
1.7051e-27
1.70836e-27
1.71404e-27
2.14872e-27
2.01659e-27
2.02164e-27
2.02385e-27
2.02878e-27
2.03153e-27
2.03686e-27
2.04013e-27
2.0459e-27
2.04967e-27
2.05594e-27
2.06015e-27
2.06695e-27
2.07161e-27
2.07893e-27
2.08406e-27
2.09194e-27
2.0975e-27
2.10164e-27
2.10884e-27
2.40639e-27
2.25608e-27
2.26145e-27
2.26413e-27
2.26958e-27
2.27268e-27
2.27869e-27
2.28238e-27
2.28887e-27
2.29316e-27
2.30017e-27
2.30504e-27
2.31262e-27
2.31802e-27
2.32622e-27
2.33212e-27
2.34101e-27
2.34737e-27
2.35205e-27
2.36024e-27
2.57432e-27
2.41205e-27
2.41776e-27
2.42064e-27
2.42642e-27
2.42977e-27
2.43624e-27
2.44013e-27
2.44722e-27
2.45171e-27
2.45937e-27
2.4645e-27
2.47273e-27
2.4785e-27
2.48735e-27
2.4937e-27
2.50329e-27
2.51015e-27
2.5152e-27
2.52404e-27
2.69735e-27
2.52612e-27
2.53239e-27
2.53514e-27
2.54136e-27
2.54479e-27
2.55158e-27
2.55565e-27
2.56311e-27
2.56777e-27
2.57594e-27
2.58118e-27
2.59002e-27
2.59589e-27
2.60543e-27
2.61195e-27
2.62217e-27
2.62933e-27
2.63468e-27
2.64399e-27
2.80216e-27
2.62349e-27
2.62966e-27
2.63279e-27
2.63915e-27
2.64274e-27
2.64981e-27
2.65408e-27
2.66174e-27
2.66676e-27
2.67503e-27
2.68075e-27
2.68974e-27
2.69607e-27
2.70582e-27
2.71277e-27
2.72332e-27
2.73087e-27
2.73642e-27
2.74615e-27
2.90394e-27
2.71794e-27
2.72435e-27
2.72758e-27
2.73411e-27
2.73791e-27
2.74515e-27
2.74968e-27
2.75754e-27
2.76282e-27
2.7714e-27
2.77734e-27
2.78668e-27
2.79328e-27
2.8034e-27
2.81066e-27
2.82161e-27
2.82948e-27
2.83525e-27
2.84537e-27
3.01212e-27
2.81817e-27
2.82512e-27
2.8282e-27
2.83509e-27
2.83896e-27
2.84656e-27
2.8511e-27
2.85956e-27
2.86474e-27
2.87392e-27
2.87984e-27
2.88977e-27
2.89644e-27
2.90716e-27
2.91458e-27
2.92608e-27
2.93422e-27
2.94025e-27
2.9508e-27
3.13348e-27
2.93081e-27
2.93773e-27
2.94117e-27
2.94825e-27
2.95233e-27
2.96017e-27
2.96505e-27
2.9736e-27
2.97928e-27
2.98861e-27
2.99505e-27
3.00518e-27
3.01238e-27
3.02334e-27
3.03126e-27
3.04316e-27
3.05174e-27
3.05801e-27
3.06904e-27
3.27427e-27
3.06134e-27
3.06847e-27
3.07212e-27
3.0795e-27
3.08372e-27
3.092e-27
3.097e-27
3.10613e-27
3.11189e-27
3.12186e-27
3.12843e-27
3.13922e-27
3.14661e-27
3.15825e-27
3.16646e-27
3.17901e-27
3.18799e-27
3.19459e-27
3.20617e-27
3.44165e-27
3.21623e-27
3.2242e-27
3.22754e-27
3.23566e-27
3.23988e-27
3.2487e-27
3.25386e-27
3.26356e-27
3.26953e-27
3.28013e-27
3.28698e-27
3.29842e-27
3.30619e-27
3.31851e-27
3.32716e-27
3.34049e-27
3.34993e-27
3.35694e-27
3.36917e-27
3.64533e-27
3.40487e-27
3.41313e-27
3.4169e-27
3.42516e-27
3.42989e-27
3.43911e-27
3.44474e-27
3.45485e-27
3.46145e-27
3.47237e-27
3.47996e-27
3.4919e-27
3.50032e-27
3.51332e-27
3.52263e-27
3.53678e-27
3.5469e-27
3.55435e-27
3.5674e-27
3.89686e-27
3.6378e-27
3.6462e-27
3.65051e-27
3.65924e-27
3.66437e-27
3.67409e-27
3.68026e-27
3.691e-27
3.69816e-27
3.70989e-27
3.71808e-27
3.73082e-27
3.74003e-27
3.75387e-27
3.76402e-27
3.7791e-27
3.7901e-27
3.79807e-27
3.81215e-27
4.19804e-27
3.91637e-27
3.92585e-27
3.93004e-27
3.93966e-27
3.94502e-27
3.95567e-27
3.96208e-27
3.974e-27
3.98139e-27
3.99442e-27
4.00292e-27
4.0171e-27
4.02674e-27
4.04205e-27
4.05285e-27
4.06936e-27
4.08124e-27
4.08992e-27
4.10521e-27
4.5035e-27
4.20735e-27
4.21636e-27
4.22098e-27
4.2307e-27
4.23633e-27
4.24722e-27
4.2541e-27
4.26625e-27
4.27427e-27
4.28775e-27
4.29694e-27
4.31173e-27
4.32217e-27
4.33827e-27
4.34999e-27
4.3675e-27
4.38046e-27
4.38974e-27
4.40624e-27
4.61312e-27
4.61242e-27
4.61246e-27
4.61185e-27
4.61203e-27
4.61146e-27
4.61164e-27
4.6112e-27
4.61131e-27
4.61105e-27
4.61105e-27
4.61097e-27
4.61092e-27
4.61089e-27
4.61085e-27
4.61084e-27
4.61083e-27
4.61082e-27
4.61082e-27
4.61082e-27
)
;

boundaryField
{
    movingWall
    {
        type            calculated;
        value           nonuniform List<scalar> 
20
(
4.61312e-27
4.61242e-27
4.61246e-27
4.61185e-27
4.61203e-27
4.61146e-27
4.61164e-27
4.6112e-27
4.61131e-27
4.61105e-27
4.61105e-27
4.61097e-27
4.61092e-27
4.61089e-27
4.61085e-27
4.61084e-27
4.61083e-27
4.61082e-27
4.61082e-27
4.61082e-27
)
;
    }
    fixedWalls
    {
        type            calculated;
        value           nonuniform List<scalar> 
60
(
5.27066e-29
1.77226e-28
5.71329e-28
1.17595e-27
1.74459e-27
2.14872e-27
2.40639e-27
2.57432e-27
2.69735e-27
2.80216e-27
2.90394e-27
3.01212e-27
3.13348e-27
3.27427e-27
3.44165e-27
3.64533e-27
3.89686e-27
4.19804e-27
4.5035e-27
4.61312e-27
5.268e-29
1.75527e-28
5.63978e-28
1.15752e-27
1.71404e-27
2.10884e-27
2.36024e-27
2.52404e-27
2.64399e-27
2.74615e-27
2.84537e-27
2.9508e-27
3.06904e-27
3.20617e-27
3.36917e-27
3.5674e-27
3.81215e-27
4.10521e-27
4.40624e-27
4.61082e-27
5.27066e-29
5.27024e-29
5.26995e-29
5.26968e-29
5.26945e-29
5.26921e-29
5.26904e-29
5.26882e-29
5.26871e-29
5.26849e-29
5.26845e-29
5.26828e-29
5.26823e-29
5.26817e-29
5.2681e-29
5.26807e-29
5.26803e-29
5.26802e-29
5.268e-29
5.268e-29
)
;
    }
    frontAndBack
    {
        type            empty;
    }
}


// ************************************************************************* //
