/*--------------------------------*- C++ -*----------------------------------*\
| =========                 |                                                 |
| \\      /  F ield         | OpenFOAM: The Open Source CFD Toolbox           |
|  \\    /   O peration     | Version:  2312                                  |
|   \\  /    A nd           | Website:  www.openfoam.com                      |
|    \\/     M anipulation  |                                                 |
\*---------------------------------------------------------------------------*/
FoamFile
{
    version     2.0;
    format      ascii;
    arch        "LSB;label=32;scalar=64";
    class       surfaceScalarField;
    location    "3.5";
    object      PecletNoField;
}
// * * * * * * * * * * * * * * * * * * * * * * * * * * * * * * * * * * * * * //

dimensions      [0 0 0 0 0 0 0];

oriented        oriented;

internalField   nonuniform List<scalar> 
760
(
369.282
7.91716e-07
369.282
7.6849e-07
369.283
2.02879e-08
369.283
4.43434e-08
369.284
6.12663e-09
369.284
1.62656e-09
369.285
1.02364e-09
369.285
7.65908e-12
369.286
1.18324e-10
369.286
2.11337e-11
369.286
1.80591e-11
369.286
6.67538e-12
369.286
7.22138e-12
369.287
1.23348e-11
369.287
1.99055e-11
369.287
2.54746e-11
369.287
2.28239e-11
369.287
1.39424e-11
369.287
1.41253e-11
1.88555e-11
352.152
1.56481e-06
350.149
1.51116e-06
350.448
5.46294e-08
350.706
9.38839e-08
350.968
1.29654e-08
351.225
4.99042e-09
351.484
1.48844e-09
351.741
5.21838e-10
351.998
1.54745e-11
352.253
8.43649e-11
352.509
1.04306e-11
352.762
9.20746e-12
353.016
6.90614e-12
353.267
1.97437e-11
353.52
3.48249e-11
353.77
4.55661e-11
354.021
4.19828e-11
354.195
2.65306e-11
354.395
2.73599e-11
3.48456e-11
336.24
2.23789e-06
333.707
2.16262e-06
334.093
7.71421e-08
334.426
1.30381e-07
334.763
2.03391e-08
335.093
5.21015e-09
335.425
3.07685e-09
335.752
1.27039e-10
336.081
3.1159e-10
336.405
1.90917e-12
336.731
1.75887e-11
337.052
7.65675e-12
337.374
2.40057e-12
337.693
2.06643e-11
338.011
4.43523e-11
338.327
6.14044e-11
338.642
5.70484e-11
338.862
3.45104e-11
339.113
3.6977e-11
4.93808e-11
325.921
2.87603e-06
322.996
2.72834e-06
323.443
7.75002e-08
323.831
1.79447e-07
324.222
2.14612e-08
324.605
9.29176e-09
324.992
2.81752e-09
325.371
7.52613e-10
325.753
1.71375e-10
326.128
6.81858e-11
326.506
3.77504e-11
326.878
2.08571e-11
327.251
1.35864e-11
327.619
1.68146e-11
327.988
4.84714e-11
328.353
7.11817e-11
328.718
6.77487e-11
328.972
4.20275e-11
329.262
4.5722e-11
6.09576e-11
320.129
3.06182e-06
316.981
2.87945e-06
317.466
6.13637e-08
317.884
1.95992e-07
318.307
2.57648e-08
318.721
9.47748e-09
319.139
4.0283e-09
319.55
5.41689e-10
319.962
3.10871e-10
320.369
1.25923e-10
320.776
4.93151e-11
321.178
6.4468e-11
321.582
3.24738e-11
321.979
5.05506e-12
322.378
4.71707e-11
322.771
7.71299e-11
323.166
7.47315e-11
323.441
4.46446e-11
323.753
5.09003e-11
7.16804e-11
317.035
3.1577e-06
313.762
2.94844e-06
314.265
4.72544e-08
314.703
2.02097e-07
315.143
2.50044e-08
315.575
1.04324e-08
316.009
4.05826e-09
316.437
6.41289e-10
316.867
4.65354e-10
317.289
4.97633e-11
317.714
1.47615e-10
318.131
9.18395e-11
318.551
6.34382e-11
318.965
9.99592e-12
319.379
4.05363e-11
319.788
7.68779e-11
320.198
7.70379e-11
320.484
4.6906e-11
320.808
5.54384e-11
7.91006e-11
315.34
3.18008e-06
312.004
2.96011e-06
312.52
4.0572e-08
312.964
2.02385e-07
313.415
2.43161e-08
313.855
1.05594e-08
314.299
3.83361e-09
314.736
9.17897e-10
315.174
1.36336e-10
315.606
3.01606e-10
316.04
1.64005e-10
316.466
1.51233e-10
316.895
9.11044e-11
317.317
3.13248e-11
317.74
2.97301e-11
318.157
7.32497e-11
318.576
7.59264e-11
318.868
4.41246e-11
319.199
5.59985e-11
8.55791e-11
314.329
3.11891e-06
310.955
2.90434e-06
311.477
3.70496e-08
311.927
1.97269e-07
312.384
2.43736e-08
312.829
9.64078e-09
313.279
4.40773e-09
313.72
3.4104e-10
314.164
6.88792e-10
314.601
2.11879e-10
315.039
2.69746e-10
315.472
1.80437e-10
315.905
1.26989e-10
316.333
5.20624e-11
316.761
1.55997e-11
317.183
6.44899e-11
317.608
7.05897e-11
317.903
4.14338e-11
318.237
5.61036e-11
8.84195e-11
313.633
3.04185e-06
310.228
2.82266e-06
310.754
3.36844e-08
311.21
1.92799e-07
311.669
2.20426e-08
312.119
1.04414e-08
312.573
3.29046e-09
313.018
1.14022e-09
313.466
7.61719e-11
313.906
4.4918e-10
314.349
2.78551e-10
314.784
2.35829e-10
315.222
1.5359e-10
315.652
7.55108e-11
316.084
4.03468e-14
316.51
5.42317e-11
316.936
6.31945e-11
317.235
3.43803e-11
317.571
5.24994e-11
9.02468e-11
313.06
2.87492e-06
309.638
2.6767e-06
310.168
3.19748e-08
310.624
1.80635e-07
311.087
2.25124e-08
311.54
8.4552e-09
311.996
4.35318e-09
312.445
7.54162e-11
312.895
8.24537e-10
313.339
3.46485e-10
313.784
3.65829e-10
314.222
2.5552e-10
314.663
1.83377e-10
315.096
9.46801e-11
315.531
1.61937e-11
315.959
4.09543e-11
316.389
5.30814e-11
316.689
2.8419e-11
317.028
4.89772e-11
8.87186e-11
312.526
2.71688e-06
309.084
2.51725e-06
309.617
2.88023e-08
310.077
1.71856e-07
310.542
1.91854e-08
310.998
9.60697e-09
311.457
2.68893e-09
311.909
1.22907e-09
312.362
2.42963e-10
312.808
5.39243e-10
313.256
3.57526e-10
313.696
2.94149e-10
314.139
2.00353e-10
314.575
1.13035e-10
315.013
3.11841e-11
315.443
2.84164e-11
315.876
4.27046e-11
316.178
1.94137e-11
316.519
4.24136e-11
8.6457e-11
311.98
2.47039e-06
308.514
2.30075e-06
309.05
2.6765e-08
309.515
1.54494e-07
309.983
1.9602e-08
310.441
6.98736e-09
310.905
3.99412e-09
311.357
1.22174e-10
311.813
8.63233e-10
312.262
4.24672e-10
312.713
4.14148e-10
313.157
2.96962e-10
313.602
2.16495e-10
314.041
1.24406e-10
314.481
4.38825e-11
314.915
1.51919e-11
315.35
3.11049e-11
315.654
1.21403e-11
315.996
3.66726e-11
8.14754e-11
311.386
2.25307e-06
307.902
2.08468e-06
308.441
2.34101e-08
308.907
1.42473e-07
309.379
1.56388e-08
309.841
8.24479e-09
310.306
2.04555e-09
310.763
1.19829e-09
311.222
3.46382e-10
311.673
5.59992e-10
312.127
3.85124e-10
312.574
3.12093e-10
313.022
2.18246e-10
313.464
1.32318e-10
313.907
5.33566e-11
314.343
4.57033e-12
314.781
2.11369e-11
315.087
3.67041e-12
315.432
2.898e-11
7.57673e-11
310.724
1.95158e-06
307.217
1.81833e-06
307.762
2.0684e-08
308.23
1.21461e-07
308.706
1.58629e-08
309.171
5.28668e-09
309.64
3.40027e-09
310.099
2.56302e-10
310.562
8.09815e-10
311.017
4.37518e-10
311.474
4.05186e-10
311.924
2.9429e-10
312.375
2.1627e-10
312.82
1.31789e-10
313.266
5.87008e-11
313.706
4.95441e-12
314.147
1.1504e-11
314.455
2.03924e-12
314.802
2.28529e-11
6.77667e-11
309.979
1.69396e-06
306.438
1.56417e-06
306.986
1.67232e-08
307.461
1.0721e-07
307.939
1.14534e-08
308.409
6.49546e-09
308.882
1.36807e-09
309.346
1.05932e-09
309.813
3.79945e-10
310.272
5.06678e-10
310.732
3.53684e-10
311.186
2.82061e-10
311.641
1.99782e-10
312.09
1.25918e-10
312.54
5.94732e-11
312.982
1.06312e-11
313.427
4.65378e-12
313.738
7.2715e-12
314.088
1.62259e-11
5.90002e-11
309.112
1.36648e-06
305.54
1.27505e-06
306.092
1.50714e-08
306.573
8.45747e-08
307.057
1.17996e-08
307.53
3.47617e-09
308.007
2.63835e-09
308.475
3.13841e-10
308.946
6.64573e-10
309.41
3.75779e-10
309.876
3.32817e-10
310.334
2.41288e-10
310.794
1.77372e-10
311.246
1.11386e-10
311.701
5.5289e-11
312.147
1.40726e-11
312.596
8.2484e-13
312.91
9.54185e-12
313.263
1.13966e-11
4.88564e-11
308.102
1.08601e-06
304.498
9.98779e-07
305.057
9.44286e-09
305.54
6.95495e-08
306.03
7.0208e-09
306.509
4.53909e-09
306.992
7.37625e-10
307.465
8.03889e-10
307.941
3.17084e-10
308.409
3.69891e-10
308.88
2.55359e-10
309.343
2.00148e-10
309.807
1.41831e-10
310.265
9.1122e-11
310.724
4.64249e-11
311.176
1.38188e-11
311.63
3.21993e-12
311.947
1.06131e-11
312.304
6.25709e-12
3.81341e-11
306.985
7.43517e-07
303.336
6.97298e-07
303.901
8.61808e-09
304.392
4.38526e-08
304.886
6.95685e-09
305.37
1.50589e-09
305.859
1.56833e-09
306.337
2.62171e-10
306.819
3.9071e-10
307.293
2.26692e-10
307.769
1.90482e-10
308.237
1.37425e-10
308.707
1.00403e-10
309.17
6.40561e-11
309.634
3.33873e-11
310.092
1.11876e-11
310.551
4.74763e-12
310.872
1.12662e-11
311.233
7.10674e-13
2.68126e-11
306.036
5.4479e-07
302.441
5.24634e-07
302.986
2.60569e-08
303.457
4.21043e-08
303.936
6.44491e-09
304.406
3.11834e-09
304.881
6.38598e-10
305.348
4.34206e-10
305.82
9.23878e-11
306.285
1.48579e-10
306.754
9.09477e-11
307.216
7.33616e-11
307.682
5.10333e-11
308.142
3.32255e-11
308.605
1.75455e-11
309.063
6.54569e-12
309.523
3.8942e-12
309.848
8.73174e-12
310.21
2.35619e-12
1.44709e-11
309.775
309.775
309.776
309.777
309.777
309.778
309.778
309.779
309.779
309.78
309.78
309.78
309.78
309.78
309.78
309.78
309.78
309.78
309.78
)
;

boundaryField
{
    movingWall
    {
        type            calculated;
        value           uniform 0;
    }
    fixedWalls
    {
        type            calculated;
        value           nonuniform List<scalar> 
60
(
250
250
250
250
250
250
250
250
250
250
250
250
250
250
250
250
250
250
250
250
250
250
250
250
250
250
250
250
250
250
250
250
250
250
250
250
250
250
250
250
0
0
0
0
0
0
0
0
0
0
0
0
0
0
0
0
0
0
0
0
)
;
    }
    frontAndBack
    {
        type            empty;
        value           nonuniform List<scalar> 0();
    }
}


// ************************************************************************* //
