/*--------------------------------*- C++ -*----------------------------------*\
| =========                 |                                                 |
| \\      /  F ield         | OpenFOAM: The Open Source CFD Toolbox           |
|  \\    /   O peration     | Version:  2312                                  |
|   \\  /    A nd           | Website:  www.openfoam.com                      |
|    \\/     M anipulation  |                                                 |
\*---------------------------------------------------------------------------*/
FoamFile
{
    version     2.0;
    format      ascii;
    arch        "LSB;label=32;scalar=64";
    class       surfaceScalarField;
    location    "3.5";
    object      phi;
}
// * * * * * * * * * * * * * * * * * * * * * * * * * * * * * * * * * * * * * //

dimensions      [0 3 -1 0 0 0 0];

oriented        oriented;

internalField   nonuniform List<scalar> 
760
(
-5e-05
-1.09448e-13
-5e-05
1.06928e-13
-5e-05
-2.8211e-15
-5e-05
6.16456e-15
-5e-05
-8.51286e-16
-5e-05
2.25949e-16
-5e-05
-1.42126e-16
-5e-05
-1.06313e-18
-5e-05
-1.64163e-17
-5e-05
-2.93131e-18
-5e-05
-2.50366e-18
-5e-05
-9.25206e-19
-5e-05
-1.00042e-18
-5e-05
-1.70834e-18
-5e-05
-2.75561e-18
-5e-05
-3.52559e-18
-5e-05
-3.15733e-18
-5e-05
-1.92818e-18
-5e-05
-1.95304e-18
-2.60613e-18
-5e-05
2.25753e-13
-5e-05
-2.21263e-13
-5e-05
7.98734e-15
-5e-05
-1.37187e-14
-5e-05
1.89237e-15
-5e-05
-7.2794e-16
-5e-05
2.16871e-16
-5e-05
-7.59872e-17
-5e-05
2.25084e-18
-5e-05
-1.22637e-17
-5e-05
-1.51462e-18
-5e-05
-1.33617e-18
-5e-05
-1.00115e-18
-5e-05
-2.86035e-18
-5e-05
-5.04004e-18
-5e-05
-6.59039e-18
-5e-05
-6.06599e-18
-5e-05
-3.8309e-18
-5e-05
-3.94865e-18
-5.02496e-18
-5e-05
-3.34927e-13
-5e-05
3.29697e-13
-5e-05
-1.17395e-14
-5e-05
1.98266e-14
-5e-05
-3.0884e-15
-5e-05
7.90533e-16
-5e-05
-4.66192e-16
-5e-05
1.92335e-17
-5e-05
-4.71099e-17
-5e-05
2.88423e-19
-5e-05
-2.65363e-18
-5e-05
1.15427e-18
-5e-05
-3.6142e-19
-5e-05
-3.10865e-18
-5e-05
-6.66368e-18
-5e-05
-9.21829e-18
-5e-05
-8.55368e-18
-5e-05
-5.17026e-18
-5e-05
-5.53635e-18
-7.38611e-18
-5e-05
4.40517e-13
-5e-05
-4.26796e-13
-5e-05
1.20984e-14
-5e-05
-2.79894e-14
-5e-05
3.34185e-15
-5e-05
-1.44561e-15
-5e-05
4.37646e-16
-5e-05
-1.16799e-16
-5e-05
2.65544e-17
-5e-05
-1.05558e-17
-5e-05
5.83522e-18
-5e-05
3.22105e-18
-5e-05
2.09509e-18
-5e-05
-2.59054e-18
-5e-05
-7.45687e-18
-5e-05
-1.09407e-17
-5e-05
-1.03983e-17
-5e-05
-6.44459e-18
-5e-05
-7.00616e-18
-9.33016e-18
-5e-05
-4.75119e-13
-5e-05
4.57034e-13
-5e-05
-9.71827e-15
-5e-05
3.10111e-14
-5e-05
-4.06939e-15
-5e-05
1.49551e-15
-5e-05
-6.34547e-16
-5e-05
8.52471e-17
-5e-05
-4.884e-17
-5e-05
1.97645e-17
-5e-05
7.72762e-18
-5e-05
1.00923e-17
-5e-05
5.07555e-18
-5e-05
-7.89323e-19
-5e-05
-7.35399e-18
-5e-05
-1.20129e-17
-5e-05
-1.16217e-17
-5e-05
-6.93597e-18
-5e-05
-7.90186e-18
-1.11143e-17
-5e-05
4.93489e-13
-5e-05
-4.71718e-13
-5e-05
7.54282e-15
-5e-05
-3.22282e-14
-5e-05
3.98003e-15
-5e-05
-1.65894e-15
-5e-05
6.44176e-16
-5e-05
-1.01692e-16
-5e-05
7.36644e-17
-5e-05
7.86957e-18
-5e-05
2.33041e-17
-5e-05
1.44842e-17
-5e-05
9.98838e-18
-5e-05
1.57227e-18
-5e-05
-6.36571e-18
-5e-05
-1.20604e-17
-5e-05
-1.20665e-17
-5e-05
-7.3394e-18
-5e-05
-8.66769e-18
-1.23516e-17
-5e-05
-4.98997e-13
-5e-05
4.75733e-13
-5e-05
-6.50509e-15
-5e-05
3.24182e-14
-5e-05
-3.88756e-15
-5e-05
1.68652e-15
-5e-05
-6.11169e-16
-5e-05
1.46186e-16
-5e-05
-2.16745e-17
-5e-05
4.78998e-17
-5e-05
2.60015e-17
-5e-05
2.3952e-17
-5e-05
1.44045e-17
-5e-05
4.94766e-18
-5e-05
-4.68801e-18
-5e-05
-1.15385e-17
-5e-05
-1.19409e-17
-5e-05
-6.93221e-18
-5e-05
-8.79064e-18
-1.34169e-17
-5e-05
4.90655e-13
-5e-05
-4.68107e-13
-5e-05
5.95726e-15
-5e-05
-3.1688e-14
-5e-05
3.90768e-15
-5e-05
-1.54409e-15
-5e-05
7.04642e-16
-5e-05
-5.44641e-17
-5e-05
1.09803e-16
-5e-05
3.37408e-17
-5e-05
4.28812e-17
-5e-05
2.86535e-17
-5e-05
2.01317e-17
-5e-05
8.24476e-18
-5e-05
-2.46632e-18
-5e-05
-1.01851e-17
-5e-05
-1.11304e-17
-5e-05
-6.52622e-18
-5e-05
-8.82974e-18
-1.38976e-17
-5e-05
-4.79446e-13
-5e-05
4.55913e-13
-5e-05
-5.4276e-15
-5e-05
3.1035e-14
-5e-05
-3.54134e-15
-5e-05
1.67578e-15
-5e-05
-5.27111e-16
-5e-05
1.82466e-16
-5e-05
1.21674e-17
-5e-05
7.16748e-17
-5e-05
4.43695e-17
-5e-05
3.75245e-17
-5e-05
2.4397e-17
-5e-05
1.19816e-17
-5e-05
6.39131e-21
-5e-05
-8.5816e-18
-5e-05
-9.98358e-18
-5e-05
-5.42562e-18
-5e-05
-8.27829e-18
-1.42117e-17
-5e-05
4.53891e-13
-5e-05
-4.33146e-13
-5e-05
5.16156e-15
-5e-05
-2.91304e-14
-5e-05
3.62337e-15
-5e-05
-1.35947e-15
-5e-05
6.98601e-16
-5e-05
-1.20902e-17
-5e-05
1.31941e-16
-5e-05
5.53856e-17
-5e-05
5.83732e-17
-5e-05
4.07286e-17
-5e-05
2.91786e-17
-5e-05
1.50492e-17
-5e-05
2.56959e-18
-5e-05
-6.49159e-18
-5e-05
-8.39999e-18
-5e-05
-4.49236e-18
-5e-05
-7.73577e-18
-1.39942e-17
-5e-05
-4.29641e-13
-5e-05
4.08084e-13
-5e-05
-4.6579e-15
-5e-05
2.77644e-14
-5e-05
-3.09341e-15
-5e-05
1.5474e-15
-5e-05
-4.32281e-16
-5e-05
1.9738e-16
-5e-05
3.89464e-17
-5e-05
8.63465e-17
-5e-05
5.71466e-17
-5e-05
4.69656e-17
-5e-05
3.19339e-17
-5e-05
1.79968e-17
-5e-05
4.95654e-18
-5e-05
-4.51171e-18
-5e-05
-6.76905e-18
-5e-05
-3.07388e-18
-5e-05
-6.71004e-18
-1.36596e-17
-5e-05
3.91337e-13
-5e-05
-3.73706e-13
-5e-05
4.3367e-15
-5e-05
-2.50068e-14
-5e-05
3.16653e-15
-5e-05
-1.12757e-15
-5e-05
6.43301e-16
-5e-05
1.96565e-17
-5e-05
1.38628e-16
-5e-05
6.81249e-17
-5e-05
6.63169e-17
-5e-05
4.75002e-17
-5e-05
3.45683e-17
-5e-05
1.98425e-17
-5e-05
6.98718e-18
-5e-05
-2.41627e-18
-5e-05
-4.93898e-18
-5e-05
-1.92557e-18
-5e-05
-5.8118e-18
-1.28947e-17
-5e-05
-3.57591e-13
-5e-05
3.39331e-13
-5e-05
-3.80103e-15
-5e-05
2.31095e-14
-5e-05
-2.53154e-15
-5e-05
1.33322e-15
-5e-05
-3.30134e-16
-5e-05
1.93186e-16
-5e-05
5.57382e-17
-5e-05
9.00131e-17
-5e-05
6.17921e-17
-5e-05
5.00195e-17
-5e-05
3.49164e-17
-5e-05
2.11458e-17
-5e-05
8.51219e-18
-5e-05
-7.28317e-19
-5e-05
-3.36266e-18
-5e-05
-5.83274e-19
-5e-05
-4.60141e-18
-1.20139e-17
-5e-05
3.10405e-13
-5e-05
-2.96683e-13
-5e-05
3.36641e-15
-5e-05
-1.97475e-14
-5e-05
2.57384e-15
-5e-05
-8.56868e-16
-5e-05
5.50044e-16
-5e-05
4.14152e-17
-5e-05
1.30609e-16
-5e-05
7.04855e-17
-5e-05
6.51576e-17
-5e-05
4.72713e-17
-5e-05
3.46773e-17
-5e-05
2.11077e-17
-5e-05
9.38531e-18
-5e-05
7.9124e-19
-5e-05
-1.83412e-18
-5e-05
3.24758e-19
-5e-05
-3.63634e-18
-1.07682e-17
-5e-05
-2.70093e-13
-5e-05
2.55915e-13
-5e-05
-2.72922e-15
-5e-05
1.74778e-14
-5e-05
-1.86337e-15
-5e-05
1.05561e-15
-5e-05
-2.21893e-16
-5e-05
1.71625e-16
-5e-05
6.1439e-17
-5e-05
8.18404e-17
-5e-05
5.70221e-17
-5e-05
4.54235e-17
-5e-05
3.21151e-17
-5e-05
2.02185e-17
-5e-05
9.53273e-18
-5e-05
1.7021e-18
-5e-05
-7.43815e-19
-5e-05
1.16088e-18
-5e-05
-2.58822e-18
-9.39816e-18
-5e-05
2.18503e-13
-5e-05
-2.09281e-13
-5e-05
2.4674e-15
-5e-05
-1.38313e-14
-5e-05
1.92568e-15
-5e-05
-5.66687e-16
-5e-05
4.29241e-16
-5e-05
5.1003e-17
-5e-05
1.07791e-16
-5e-05
6.08812e-17
-5e-05
5.38187e-17
-5e-05
3.89738e-17
-5e-05
2.8597e-17
-5e-05
1.79379e-17
-5e-05
8.88793e-18
-5e-05
2.25964e-18
-5e-05
1.32215e-19
-5e-05
1.52771e-18
-5e-05
-1.82309e-18
-7.80449e-18
-5e-05
-1.74223e-13
-5e-05
1.64533e-13
-5e-05
-1.5515e-15
-5e-05
1.14149e-14
-5e-05
-1.14987e-15
-5e-05
7.42588e-16
-5e-05
-1.20428e-16
-5e-05
1.31098e-16
-5e-05
5.16084e-17
-5e-05
6.01338e-17
-5e-05
4.1435e-17
-5e-05
3.24386e-17
-5e-05
2.29444e-17
-5e-05
1.47239e-17
-5e-05
7.48795e-18
-5e-05
2.22626e-18
-5e-05
5.17828e-19
-5e-05
1.70479e-18
-5e-05
-1.0042e-18
-6.11144e-18
-5e-05
1.19679e-13
-5e-05
-1.15257e-13
-5e-05
1.42082e-15
-5e-05
-7.22194e-15
-5e-05
1.14331e-15
-5e-05
-2.47208e-16
-5e-05
2.56938e-16
-5e-05
4.29023e-17
-5e-05
6.38123e-17
-5e-05
3.6981e-17
-5e-05
3.10151e-17
-5e-05
2.23497e-17
-5e-05
1.62986e-17
-5e-05
1.0386e-17
-5e-05
5.40362e-18
-5e-05
1.80852e-18
-5e-05
7.66118e-19
-5e-05
1.81583e-18
-5e-05
-1.14442e-19
-4.31147e-18
-5e-05
-8.78843e-14
-5e-05
8.57615e-14
-5e-05
-4.25403e-15
-5e-05
6.8702e-15
-5e-05
-1.05054e-15
-5e-05
5.08012e-16
-5e-05
-1.03931e-16
-5e-05
7.06258e-17
-5e-05
1.50128e-17
-5e-05
2.41295e-17
-5e-05
1.47562e-17
-5e-05
1.18958e-17
-5e-05
8.2676e-18
-5e-05
5.37942e-18
-5e-05
2.83817e-18
-5e-05
1.0582e-18
-5e-05
6.28994e-19
-5e-05
1.4095e-18
-5e-05
3.80174e-19
-2.33321e-18
-5e-05
-5e-05
-5e-05
-5e-05
-5e-05
-5e-05
-5e-05
-5e-05
-5e-05
-5e-05
-5e-05
-5e-05
-5e-05
-5e-05
-5e-05
-5e-05
-5e-05
-5e-05
-5e-05
)
;

boundaryField
{
    movingWall
    {
        type            calculated;
        value           uniform 0;
    }
    fixedWalls
    {
        type            calculated;
        value           nonuniform List<scalar> 
60
(
5e-05
5e-05
5e-05
5e-05
5e-05
5e-05
5e-05
5e-05
5e-05
5e-05
5e-05
5e-05
5e-05
5e-05
5e-05
5e-05
5e-05
5e-05
5e-05
5e-05
-5e-05
-5e-05
-5e-05
-5e-05
-5e-05
-5e-05
-5e-05
-5e-05
-5e-05
-5e-05
-5e-05
-5e-05
-5e-05
-5e-05
-5e-05
-5e-05
-5e-05
-5e-05
-5e-05
-5e-05
0
0
0
0
0
0
0
0
0
0
0
0
0
0
0
0
0
0
0
0
)
;
    }
    frontAndBack
    {
        type            empty;
        value           nonuniform List<scalar> 0();
    }
}


// ************************************************************************* //
