/*--------------------------------*- C++ -*----------------------------------*\
| =========                 |                                                 |
| \\      /  F ield         | OpenFOAM: The Open Source CFD Toolbox           |
|  \\    /   O peration     | Version:  2312                                  |
|   \\  /    A nd           | Website:  www.openfoam.com                      |
|    \\/     M anipulation  |                                                 |
\*---------------------------------------------------------------------------*/
FoamFile
{
    version     2.0;
    format      ascii;
    arch        "LSB;label=32;scalar=64";
    class       volScalarField;
    location    "3.5";
    object      powk;
}
// * * * * * * * * * * * * * * * * * * * * * * * * * * * * * * * * * * * * * //

dimensions      [0 0.5 -0.5 0 0 0 0];

internalField   nonuniform List<scalar> 
400
(
2.53983
2.53983
2.53983
2.53982
2.53982
2.53982
2.53982
2.53982
2.53982
2.53982
2.53982
2.53982
2.53982
2.53982
2.53982
2.53982
2.53982
2.53982
2.53982
2.53982
2.54296
2.54295
2.54295
2.54295
2.54295
2.54294
2.54294
2.54294
2.54294
2.54294
2.54293
2.54293
2.54293
2.54293
2.54293
2.54293
2.54293
2.54293
2.54293
2.54293
2.54621
2.54621
2.5462
2.5462
2.5462
2.54619
2.54619
2.54619
2.54618
2.54618
2.54618
2.54618
2.54618
2.54618
2.54617
2.54617
2.54617
2.54617
2.54617
2.54617
2.54834
2.54834
2.54833
2.54833
2.54832
2.54832
2.54831
2.54831
2.54831
2.54831
2.5483
2.5483
2.5483
2.5483
2.54829
2.54829
2.54829
2.54829
2.54829
2.54829
2.54954
2.54954
2.54953
2.54953
2.54952
2.54952
2.54952
2.54951
2.54951
2.54951
2.5495
2.5495
2.5495
2.5495
2.54949
2.54949
2.54949
2.54949
2.54949
2.54949
2.55019
2.55019
2.55018
2.55018
2.55017
2.55017
2.55016
2.55016
2.55015
2.55015
2.55015
2.55014
2.55014
2.55014
2.55014
2.55014
2.55014
2.55013
2.55013
2.55013
2.55055
2.55055
2.55054
2.55053
2.55053
2.55052
2.55052
2.55051
2.55051
2.55051
2.5505
2.5505
2.5505
2.55049
2.55049
2.55049
2.55049
2.55049
2.55049
2.55049
2.55076
2.55076
2.55075
2.55075
2.55074
2.55074
2.55073
2.55073
2.55072
2.55072
2.55071
2.55071
2.55071
2.55071
2.5507
2.5507
2.5507
2.5507
2.5507
2.5507
2.55091
2.55091
2.5509
2.55089
2.55089
2.55088
2.55088
2.55087
2.55087
2.55086
2.55086
2.55086
2.55086
2.55085
2.55085
2.55085
2.55085
2.55085
2.55085
2.55085
2.55103
2.55103
2.55102
2.55102
2.55101
2.551
2.551
2.55099
2.55099
2.55099
2.55098
2.55098
2.55098
2.55097
2.55097
2.55097
2.55097
2.55097
2.55097
2.55097
2.55115
2.55114
2.55113
2.55113
2.55112
2.55112
2.55111
2.55111
2.5511
2.5511
2.55109
2.55109
2.55109
2.55109
2.55108
2.55108
2.55108
2.55108
2.55108
2.55108
2.55126
2.55126
2.55125
2.55125
2.55124
2.55123
2.55123
2.55122
2.55122
2.55122
2.55121
2.55121
2.5512
2.5512
2.5512
2.5512
2.5512
2.5512
2.5512
2.5512
2.55139
2.55139
2.55138
2.55137
2.55136
2.55136
2.55135
2.55135
2.55134
2.55134
2.55134
2.55133
2.55133
2.55133
2.55133
2.55133
2.55132
2.55132
2.55132
2.55132
2.55153
2.55153
2.55152
2.55151
2.5515
2.5515
2.55149
2.55149
2.55148
2.55148
2.55148
2.55147
2.55147
2.55147
2.55147
2.55147
2.55146
2.55146
2.55146
2.55146
2.55169
2.55169
2.55168
2.55167
2.55167
2.55166
2.55165
2.55165
2.55164
2.55164
2.55164
2.55163
2.55163
2.55163
2.55163
2.55162
2.55162
2.55162
2.55162
2.55162
2.55188
2.55188
2.55186
2.55186
2.55185
2.55185
2.55184
2.55184
2.55183
2.55183
2.55182
2.55182
2.55182
2.55181
2.55181
2.55181
2.55181
2.55181
2.55181
2.55181
2.55209
2.55209
2.55208
2.55207
2.55207
2.55206
2.55205
2.55205
2.55204
2.55204
2.55204
2.55203
2.55203
2.55203
2.55203
2.55202
2.55202
2.55202
2.55202
2.55202
2.55234
2.55233
2.55232
2.55232
2.55231
2.5523
2.5523
2.55229
2.55229
2.55228
2.55228
2.55228
2.55227
2.55227
2.55227
2.55227
2.55226
2.55226
2.55226
2.55226
2.55256
2.55256
2.55255
2.55255
2.55254
2.55253
2.55253
2.55252
2.55252
2.55251
2.55251
2.55251
2.5525
2.5525
2.5525
2.5525
2.55249
2.55249
2.55249
2.55249
2.55264
2.55264
2.55264
2.55264
2.55264
2.55264
2.55264
2.55264
2.55264
2.55264
2.55264
2.55264
2.55264
2.55264
2.55264
2.55264
2.55264
2.55264
2.55264
2.55264
)
;

boundaryField
{
    movingWall
    {
        type            calculated;
        value           nonuniform List<scalar> 
20
(
2.55264
2.55264
2.55264
2.55264
2.55264
2.55264
2.55264
2.55264
2.55264
2.55264
2.55264
2.55264
2.55264
2.55264
2.55264
2.55264
2.55264
2.55264
2.55264
2.55264
)
;
    }
    fixedWalls
    {
        type            calculated;
        value           nonuniform List<scalar> 
60
(
2.53983
2.54296
2.54621
2.54834
2.54954
2.55019
2.55055
2.55076
2.55091
2.55103
2.55115
2.55126
2.55139
2.55153
2.55169
2.55188
2.55209
2.55234
2.55256
2.55264
2.53982
2.54293
2.54617
2.54829
2.54949
2.55013
2.55049
2.5507
2.55085
2.55097
2.55108
2.5512
2.55132
2.55146
2.55162
2.55181
2.55202
2.55226
2.55249
2.55264
2.53983
2.53983
2.53983
2.53982
2.53982
2.53982
2.53982
2.53982
2.53982
2.53982
2.53982
2.53982
2.53982
2.53982
2.53982
2.53982
2.53982
2.53982
2.53982
2.53982
)
;
    }
    frontAndBack
    {
        type            empty;
    }
}


// ************************************************************************* //
