/*--------------------------------*- C++ -*----------------------------------*\
| =========                 |                                                 |
| \\      /  F ield         | OpenFOAM: The Open Source CFD Toolbox           |
|  \\    /   O peration     | Version:  2312                                  |
|   \\  /    A nd           | Website:  www.openfoam.com                      |
|    \\/     M anipulation  |                                                 |
\*---------------------------------------------------------------------------*/
FoamFile
{
    version     2.0;
    format      ascii;
    arch        "LSB;label=32;scalar=64";
    class       volScalarField;
    location    "3.5";
    object      QField;
}
// * * * * * * * * * * * * * * * * * * * * * * * * * * * * * * * * * * * * * //

dimensions      [0 0 -2 0 0 0 0];

internalField   nonuniform List<scalar> 
400
(
3.20851e-11
7.78635e-12
7.98282e-13
3.64433e-14
3.24274e-15
1.70882e-16
1.52803e-17
3.54992e-19
1.32228e-19
-1.10237e-20
3.43094e-21
-5.44661e-22
8.69952e-23
-1.95718e-22
-2.21132e-22
-2.09358e-22
-1.07436e-22
-3.00475e-23
-8.51741e-23
-9.55324e-23
6.17481e-11
1.469e-11
1.52774e-12
6.79803e-14
5.78719e-15
3.43196e-16
2.2578e-17
1.28668e-18
1.22361e-19
-3.8602e-22
9.01018e-22
-1.54124e-22
5.66948e-23
2.30393e-23
-5.28005e-23
-1.50736e-22
-1.39849e-22
-5.95293e-23
-7.3351e-23
-1.03265e-22
5.74296e-11
1.30813e-11
1.48138e-12
5.77484e-14
5.31836e-15
3.20952e-16
1.60294e-17
1.6745e-18
2.30127e-20
9.62824e-21
-9.93865e-22
5.05285e-23
5.81885e-23
1.40923e-22
4.64769e-23
-8.98147e-23
-1.18006e-22
-4.31426e-23
-5.06866e-23
-9.72299e-23
4.9646e-11
1.1076e-11
1.45967e-12
4.67477e-14
5.71643e-15
2.56526e-16
2.10984e-17
1.0187e-18
1.01792e-19
-1.39748e-21
-4.81496e-23
-1.98107e-22
1.54052e-22
2.37644e-22
1.64179e-22
-9.02207e-24
-9.48325e-23
-4.46653e-23
-3.13593e-23
-7.80678e-23
3.27637e-11
7.36816e-12
1.11724e-12
3.28877e-14
4.47421e-15
2.14672e-16
1.38272e-17
1.1875e-18
4.44381e-20
7.96181e-22
-3.57166e-22
-3.24236e-22
1.73804e-22
3.3126e-22
2.51672e-22
5.07572e-23
-7.50998e-23
-2.98667e-23
-5.17978e-24
-7.04961e-23
1.24657e-11
2.49983e-12
5.70997e-13
1.14347e-14
2.407e-15
1.08602e-16
6.61917e-18
7.78452e-19
-2.08458e-20
5.95702e-21
-2.6372e-21
-2.20996e-23
1.12827e-22
3.67496e-22
3.11412e-22
9.45349e-23
-6.16994e-23
-2.89578e-23
1.13587e-23
-4.76484e-23
-6.11169e-12
-2.35805e-12
6.16481e-14
-1.41882e-14
2.04903e-16
-5.03805e-17
-5.21067e-19
-4.12026e-19
4.28603e-20
-1.58378e-20
1.18565e-21
-8.69423e-22
1.92328e-22
3.31123e-22
3.16522e-22
1.11941e-22
-5.53556e-23
-2.60232e-23
2.79571e-23
-4.20471e-23
-1.86421e-11
-5.3348e-12
-2.7857e-13
-2.83167e-14
-1.40038e-15
-1.16565e-16
-1.03608e-17
-1.78016e-19
-1.3546e-19
9.12007e-21
-4.47576e-21
1.25626e-22
-7.20388e-23
3.00117e-22
2.77998e-22
9.5638e-23
-5.8233e-23
-2.23677e-23
3.74869e-23
-2.98288e-23
-2.80642e-11
-7.65953e-12
-5.3432e-13
-4.06028e-14
-2.39753e-15
-2.08648e-16
-1.02291e-17
-1.34901e-18
2.40459e-20
-2.29443e-20
1.81282e-21
-1.15653e-21
5.62119e-23
1.54229e-22
2.13707e-22
7.28309e-23
-5.90592e-23
-2.84299e-23
3.96636e-23
-2.54285e-23
-3.50614e-11
-9.27742e-12
-7.37947e-13
-4.75535e-14
-3.36117e-15
-2.27984e-16
-1.81063e-17
-6.97346e-19
-1.7352e-19
9.07378e-21
-4.81822e-21
2.89494e-23
-2.92225e-22
9.02428e-23
1.2548e-22
2.90528e-23
-6.67518e-23
-2.05508e-23
3.93171e-23
-2.32987e-23
-4.0681e-11
-1.05677e-11
-9.01601e-13
-5.40597e-14
-3.91723e-15
-2.89326e-16
-1.58723e-17
-1.7932e-18
-1.52212e-21
-2.41936e-20
1.4724e-21
-1.26681e-21
-1.72841e-22
-7.19066e-23
4.96661e-23
1.77996e-24
-6.39175e-23
-2.97474e-23
3.02055e-23
-2.22879e-23
-4.52174e-11
-1.15708e-11
-1.04744e-12
-5.82112e-14
-4.61538e-15
-2.96316e-16
-2.25688e-17
-1.0758e-18
-1.85088e-19
6.59714e-21
-4.65251e-21
-2.89627e-22
-5.17854e-22
-1.45435e-22
-4.20376e-23
-4.11015e-23
-6.6809e-23
-1.89681e-23
2.93067e-23
-2.56736e-23
-4.86711e-11
-1.23064e-11
-1.15977e-12
-6.18685e-14
-4.95064e-15
-3.40685e-16
-1.95479e-17
-2.06646e-18
-2.44203e-20
-2.40901e-20
6.13451e-22
-1.41415e-21
-4.51423e-22
-2.89058e-22
-1.03332e-22
-6.14586e-23
-5.35407e-23
-2.28061e-23
1.94017e-23
-3.24726e-23
-5.16733e-11
-1.29619e-11
-1.26774e-12
-6.4534e-14
-5.48888e-15
-3.40371e-16
-2.55804e-17
-1.31679e-18
-1.92914e-19
3.91807e-21
-4.71027e-21
-7.55785e-22
-7.54791e-22
-3.55688e-22
-1.68772e-22
-8.00695e-23
-4.70181e-23
-1.08488e-23
1.96524e-23
-4.06293e-23
-5.31858e-11
-1.31998e-11
-1.32875e-12
-6.56226e-14
-5.59684e-15
-3.70996e-16
-2.13739e-17
-2.25557e-18
-3.51003e-20
-2.47141e-20
-4.34852e-22
-1.70772e-21
-7.41344e-22
-4.482e-22
-1.9525e-22
-7.99616e-23
-2.8888e-23
-8.60702e-24
8.54956e-24
-4.37073e-23
-5.41902e-11
-1.3355e-11
-1.37901e-12
-6.57379e-14
-5.90441e-15
-3.52312e-16
-2.69958e-17
-1.35233e-18
-1.97705e-19
1.3625e-21
-5.03416e-21
-1.33056e-21
-9.55033e-22
-4.72496e-22
-2.01339e-22
-6.64312e-23
-1.9458e-23
-2.17633e-24
1.05219e-23
-5.18026e-23
-5.56628e-11
-1.36912e-11
-1.43755e-12
-6.79694e-14
-5.97878e-15
-3.95895e-16
-2.19596e-17
-2.41285e-18
-4.61653e-20
-2.46662e-20
-1.86809e-21
-1.91922e-21
-9.02094e-22
-4.35744e-22
-1.43159e-22
-2.88097e-23
-8.52799e-24
1.9753e-24
4.28334e-24
-5.16086e-23
-5.32075e-11
-1.28695e-11
-1.4015e-12
-6.30615e-14
-6.11394e-15
-3.45639e-16
-2.82112e-17
-1.36332e-18
-1.97742e-19
-3.24701e-21
-5.40043e-21
-1.80467e-21
-1.07529e-21
-4.83961e-22
-1.65682e-22
-3.2218e-23
-4.46488e-24
-1.98204e-24
1.38379e-24
-6.05877e-23
-5.41046e-11
-1.21448e-11
-1.3038e-12
-5.44088e-14
-4.82512e-15
-3.16516e-16
-1.5268e-17
-1.78767e-18
-4.16229e-20
-1.99664e-20
-3.44379e-21
-2.54044e-21
-1.25962e-21
-6.3384e-22
-2.37488e-22
-5.98958e-23
6.69904e-24
-8.09339e-24
3.51832e-24
-7.52339e-23
-2.99495e-11
-6.4827e-12
-6.66507e-13
-2.82373e-14
-1.76969e-15
-2.28054e-16
9.85301e-18
-3.52427e-18
4.76559e-19
-9.22658e-20
1.12705e-20
-3.59341e-21
-4.96693e-22
-3.88048e-22
-1.1535e-22
-1.47593e-23
2.7232e-24
-3.18704e-23
-5.26447e-23
-8.01799e-23
)
;

boundaryField
{
    movingWall
    {
        type            calculated;
        value           nonuniform List<scalar> 
20
(
-1.98006e-12
-3.20333e-13
1.63931e-12
-1.3017e-14
7.24858e-15
-9.17688e-17
5.66321e-17
-6.04883e-18
1.31024e-18
-2.09381e-19
3.47377e-20
-6.07244e-21
5.20113e-22
-2.24501e-22
-2.46041e-23
-2.30694e-24
-3.24174e-24
-3.759e-23
-1.08701e-22
-7.4411e-23
)
;
    }
    fixedWalls
    {
        type            calculated;
        value           nonuniform List<scalar> 
60
(
1.66282e-10
3.20488e-10
2.99551e-10
2.6105e-10
1.74908e-10
6.93502e-11
-2.7667e-11
-9.3424e-11
-1.43091e-10
-1.80176e-10
-2.10171e-10
-2.34544e-10
-2.5329e-10
-2.69665e-10
-2.78181e-10
-2.83973e-10
-2.92159e-10
-2.79582e-10
-2.84514e-10
-1.57854e-10
-3.78949e-23
-7.6387e-23
-7.79123e-23
-7.39829e-23
-8.11291e-23
-6.63474e-23
-7.13799e-23
-6.47034e-23
-6.12857e-23
-5.86351e-23
-5.38428e-23
-5.09498e-23
-6.1844e-23
-6.43048e-23
-6.07993e-23
-6.53553e-23
-5.33347e-23
-6.29144e-23
-8.99124e-23
-5.19269e-23
4.25906e-12
3.68039e-12
-5.58691e-13
1.88176e-14
-1.23641e-15
-5.80867e-17
8.27418e-18
-1.5372e-18
2.14038e-19
-3.59393e-20
7.51651e-21
-1.2399e-21
2.04283e-22
-3.64763e-22
-3.26583e-22
-2.2079e-22
-6.15905e-23
-9.06903e-24
-8.91443e-23
-7.99309e-23
)
;
    }
    frontAndBack
    {
        type            empty;
    }
}


// ************************************************************************* //
