/*--------------------------------*- C++ -*----------------------------------*\
| =========                 |                                                 |
| \\      /  F ield         | OpenFOAM: The Open Source CFD Toolbox           |
|  \\    /   O peration     | Version:  2312                                  |
|   \\  /    A nd           | Website:  www.openfoam.com                      |
|    \\/     M anipulation  |                                                 |
\*---------------------------------------------------------------------------*/
FoamFile
{
    version     2.0;
    format      ascii;
    arch        "LSB;label=32;scalar=64";
    class       surfaceScalarField;
    location    "3.5";
    object      surfaceDivU;
}
// * * * * * * * * * * * * * * * * * * * * * * * * * * * * * * * * * * * * * //

dimensions      [0 0 -1 0 0 0 0];

internalField   nonuniform List<scalar> 
760
(
-2.39025e-07
-2.28476e-07
-2.63908e-07
7.28255e-07
2.44943e-08
-1.39246e-07
-2.23379e-08
6.92834e-08
2.12923e-09
-1.30961e-08
-1.22902e-09
5.08057e-09
2.89741e-10
-1.36464e-09
-6.06157e-11
3.65839e-10
2.39553e-11
-1.1443e-10
-3.05266e-12
3.2708e-11
3.04276e-12
-6.98735e-12
1.14575e-12
3.94419e-12
1.58769e-12
6.12496e-13
1.37386e-12
1.54238e-12
1.1121e-12
1.27578e-12
2.87068e-13
5.42058e-13
-3.72024e-13
-5.73359e-13
8.9374e-13
1.71756e-13
1.47143e-12
2.23464e-12
5.55654e-13
7.38804e-07
2.51425e-07
8.52917e-07
-7.01904e-07
-9.44566e-08
1.25653e-07
7.85252e-08
-6.38811e-08
-1.01447e-08
1.0855e-08
4.94495e-09
-4.39876e-09
-1.28854e-09
1.13317e-09
3.12025e-10
-2.80767e-10
-1.05677e-10
9.98797e-11
2.87733e-11
-1.98347e-11
-6.08592e-12
8.38177e-12
3.41093e-12
-7.0578e-13
5.67182e-13
1.58844e-12
1.4443e-12
9.47856e-13
7.05735e-13
1.25747e-12
-3.18368e-13
5.41366e-13
-2.95782e-14
-7.48564e-13
1.51266e-12
-3.06825e-14
1.31887e-12
2.04989e-12
5.96311e-13
-1.18928e-06
-4.65996e-07
-1.42917e-06
7.11706e-07
1.56229e-07
-1.349e-07
-1.31551e-07
6.57866e-08
1.6601e-08
-1.07783e-08
-8.21054e-09
4.75184e-09
2.14094e-09
-1.09476e-09
-4.92913e-10
3.22955e-10
1.85722e-10
-9.85379e-11
-4.02263e-11
2.62323e-11
1.37619e-11
-6.5559e-12
-2.52828e-12
2.86867e-12
1.96911e-12
2.77939e-13
7.61026e-13
1.09729e-12
1.0931e-12
1.13222e-12
1.11171e-13
3.74162e-13
-7.49668e-13
-8.61926e-13
5.06549e-13
5.27136e-14
1.32733e-12
2.0813e-12
4.33681e-13
1.43499e-06
6.9888e-07
2.00597e-06
-6.71242e-07
-2.25342e-07
1.40138e-07
1.8656e-07
-6.26637e-08
-2.26274e-08
1.14136e-08
1.18676e-08
-4.80326e-09
-2.91274e-09
1.10068e-09
7.1733e-10
-3.38607e-10
-2.58027e-10
9.81486e-11
5.99026e-11
-2.55183e-11
-1.74491e-11
7.58071e-12
5.67488e-12
-1.80919e-12
-5.93879e-13
9.9376e-13
1.46848e-12
5.11067e-13
4.13282e-13
1.01524e-12
-5.98934e-13
1.82463e-13
-5.95443e-14
-9.09337e-13
1.62746e-12
-3.37534e-15
1.18764e-12
1.9872e-12
3.25261e-13
-1.40736e-06
-5.3514e-07
-2.53708e-06
4.64998e-07
3.02816e-07
-1.00532e-07
-2.3781e-07
4.3473e-08
2.92377e-08
-9.19605e-09
-1.55702e-08
3.46557e-09
3.67481e-09
-9.24757e-10
-9.57789e-10
2.55714e-10
3.30658e-10
-8.81881e-11
-7.78402e-11
1.96622e-11
2.32207e-11
-7.34803e-12
-6.49032e-12
1.53642e-12
2.09871e-12
-4.27021e-13
5.78283e-14
6.28659e-13
7.84425e-13
7.90566e-13
-1.2794e-13
-3.4514e-14
-8.53168e-13
-1.1681e-12
3.56362e-13
4.07464e-14
1.12482e-12
1.97205e-12
1.49078e-13
1.33721e-06
2.36499e-07
2.90155e-06
-2.35714e-07
-3.59875e-07
5.21279e-08
2.72087e-07
-2.28489e-08
-3.49682e-08
5.41338e-09
1.8111e-08
-2.10208e-09
-4.34386e-09
5.87955e-10
1.12531e-09
-1.88675e-10
-3.99184e-10
5.68796e-11
9.01544e-11
-1.82111e-11
-2.90323e-11
4.12625e-12
7.59972e-12
-2.12885e-12
-1.89707e-12
2.52888e-13
1.3614e-12
1.95023e-13
-2.83728e-14
7.31324e-13
-1.07467e-12
-2.30381e-13
-2.74185e-13
-1.31504e-12
1.65643e-12
-1.76608e-14
9.96311e-13
1.84115e-12
5.42101e-14
-1.33643e-06
-4.81099e-08
-3.08513e-06
3.67888e-08
3.89154e-07
-7.93216e-09
-2.89522e-07
3.63976e-09
3.82795e-08
-9.33112e-10
-1.96252e-08
3.11818e-10
4.74313e-09
-1.09717e-10
-1.25711e-09
2.46387e-11
4.37852e-10
-1.33049e-11
-1.04239e-10
1.46966e-12
3.10297e-11
-1.96606e-12
-9.47568e-12
-4.19473e-13
2.34498e-12
-5.04938e-13
-4.35049e-13
2.4004e-13
5.29316e-13
6.12526e-13
-4.70747e-13
-4.42571e-13
-1.05852e-12
-1.46974e-12
1.67059e-13
5.60804e-14
8.99053e-13
1.69003e-12
-6.77626e-14
1.32511e-06
-2.21931e-08
3.11399e-06
4.30359e-08
-3.93446e-07
-5.99971e-09
2.92229e-07
3.33587e-09
-3.89008e-08
-1.33542e-10
1.98273e-08
5.82549e-11
-4.82821e-09
5.77657e-12
1.26844e-09
-1.73841e-11
-4.49687e-10
1.16602e-12
1.03743e-10
-3.65191e-12
-3.34152e-11
-4.35052e-13
8.55126e-12
-1.05326e-12
-2.60988e-12
-4.56454e-13
1.28762e-12
7.77011e-14
-3.59362e-13
5.30671e-13
-1.44156e-12
-6.25745e-13
-3.55142e-13
-1.57213e-12
1.57905e-12
1.14131e-13
7.23218e-13
1.55373e-12
-1.89735e-13
-1.30427e-06
1.11183e-07
-3.07695e-06
-1.58557e-07
3.90782e-07
3.29941e-08
-2.89027e-07
-1.48858e-08
3.88255e-08
3.0199e-09
-1.97632e-08
-1.19554e-09
4.81661e-09
3.06401e-10
-1.28466e-09
-9.47181e-11
4.47202e-10
2.6154e-11
-1.0783e-10
-8.94686e-12
3.19269e-11
1.09368e-12
-1.0061e-11
-1.52375e-12
2.23112e-12
-4.55346e-13
-6.79244e-13
5.4671e-15
2.64288e-13
4.55597e-13
-7.56308e-13
-8.09893e-13
-1.10285e-12
-1.67875e-12
8.88035e-14
1.47357e-13
6.40773e-13
1.45032e-12
-3.25261e-13
1.25689e-06
-1.25203e-07
2.95139e-06
1.83217e-07
-3.72674e-07
-3.44236e-08
2.77161e-07
1.66065e-08
-3.70012e-08
-2.76868e-09
1.88741e-08
1.13393e-09
-4.60492e-09
-2.72034e-10
1.2161e-09
6.85843e-11
-4.29994e-10
-2.59029e-11
9.99766e-11
3.85009e-12
-3.2357e-11
-2.76755e-12
8.08189e-12
-5.04921e-13
-2.681e-12
-8.42103e-13
1.14031e-12
9.48354e-14
-6.18584e-13
3.51232e-13
-1.73234e-12
-9.76584e-13
-4.28544e-13
-1.73154e-12
1.50887e-12
2.18253e-13
4.84281e-13
1.32329e-12
-4.47233e-13
-1.19888e-06
1.84691e-07
-2.8026e-06
-2.67017e-07
3.54857e-07
5.42828e-08
-2.63323e-07
-2.50359e-08
3.53664e-08
4.93575e-09
-1.80122e-08
-1.96755e-09
4.40147e-09
5.08842e-10
-1.17342e-09
-1.51404e-10
4.07942e-10
4.51739e-11
-9.88941e-11
-1.37074e-11
2.90845e-11
2.58507e-12
-9.42891e-12
-2.06966e-12
1.93374e-12
-5.11493e-13
-6.9424e-13
-4.70863e-14
-6.76843e-15
3.66212e-13
-9.75789e-13
-1.12585e-12
-1.08475e-12
-1.84852e-12
3.26709e-14
1.95117e-13
3.91772e-13
1.17554e-12
-5.01444e-13
1.11655e-06
-1.83009e-07
2.58986e-06
2.72946e-07
-3.2561e-07
-5.19661e-08
2.43223e-07
2.50326e-08
-3.23982e-08
-4.35405e-09
1.65535e-08
1.79571e-09
-4.04404e-09
-4.38309e-10
1.06719e-09
1.19142e-10
-3.76475e-10
-4.17442e-11
8.77718e-11
8.07772e-12
-2.85691e-11
-4.08212e-12
6.84776e-12
-2.41966e-13
-2.49231e-12
-1.08683e-12
1.01337e-12
7.39704e-14
-7.52869e-13
2.76673e-13
-1.99858e-12
-1.28285e-12
-5.68653e-13
-1.87157e-12
1.33798e-12
3.88277e-13
2.82323e-13
1.02753e-12
-5.96311e-13
-1.02661e-06
2.2695e-07
-2.36888e-06
-3.36065e-07
2.98677e-07
6.72458e-08
-2.22544e-07
-3.14041e-08
2.98399e-08
6.0562e-09
-1.51961e-08
-2.4243e-09
3.72487e-09
6.26653e-10
-9.89788e-10
-1.82517e-10
3.42809e-10
5.56262e-11
-8.37762e-11
-1.63543e-11
2.4245e-11
3.25685e-12
-8.17655e-12
-2.38787e-12
1.47946e-12
-6.03105e-13
-6.62722e-13
-1.26361e-13
-2.53308e-13
2.56135e-13
-1.15585e-12
-1.35469e-12
-9.14644e-13
-1.8551e-12
7.78213e-14
3.58904e-13
1.48894e-13
8.16133e-13
-5.82759e-13
9.17499e-07
-2.20248e-07
2.10006e-06
3.34198e-07
-2.62835e-07
-6.39942e-08
1.97196e-07
3.07673e-08
-2.6208e-08
-5.44037e-09
1.33984e-08
2.24626e-09
-3.28073e-09
-5.51289e-10
8.62897e-10
1.53231e-10
-3.03537e-10
-5.21234e-11
7.06787e-11
1.06249e-11
-2.3376e-11
-5.03947e-12
5.18557e-12
-1.15488e-13
-2.20893e-12
-1.29157e-12
7.92497e-13
5.78449e-14
-8.45252e-13
1.99256e-13
-2.05395e-12
-1.56651e-12
-5.81555e-13
-1.96304e-12
1.09722e-12
5.66188e-13
8.44807e-14
6.22368e-13
-6.36969e-13
-8.03549e-07
2.46184e-07
-1.82986e-06
-3.73129e-07
2.29608e-07
7.37461e-08
-1.71869e-07
-3.4799e-08
2.30139e-08
6.59863e-09
-1.17035e-08
-2.65394e-09
2.88267e-09
6.83707e-10
-7.61789e-10
-1.98142e-10
2.62038e-10
5.91969e-11
-6.50932e-11
-1.85244e-11
1.8221e-11
2.86469e-12
-6.59263e-12
-3.052e-12
9.75199e-13
-1.07182e-12
-5.35396e-13
-5.19701e-13
-5.22001e-13
-7.17504e-14
-1.4756e-12
-1.79546e-12
-8.15295e-13
-2.02196e-12
9.13397e-14
5.42995e-13
-9.9081e-14
4.22112e-13
-5.55654e-13
6.76604e-07
-2.34377e-07
1.53048e-06
3.6187e-07
-1.90661e-07
-6.88757e-08
1.43669e-07
3.34198e-08
-1.90692e-08
-5.90278e-09
9.73323e-09
2.45325e-09
-2.39711e-09
-6.08742e-10
6.22844e-10
1.65756e-10
-2.21366e-10
-5.89203e-11
4.94335e-11
1.08866e-11
-1.84084e-11
-6.07902e-12
2.46881e-12
-3.16181e-13
-2.56672e-12
-1.5655e-12
-5.60555e-14
1.7386e-14
-1.34521e-12
2.17649e-13
-2.34183e-12
-1.47773e-12
-6.63669e-13
-1.6314e-12
8.73767e-13
1.01029e-12
-3.44605e-14
4.19202e-13
-6.91179e-13
-5.4911e-07
2.65127e-07
-1.23748e-06
-4.04173e-07
1.55205e-07
7.99086e-08
-1.16152e-07
-3.75137e-08
1.56196e-08
7.01938e-09
-7.88872e-09
-2.82509e-09
1.95412e-09
7.13585e-10
-5.16008e-10
-2.06705e-10
1.73332e-10
6.12186e-11
-4.4626e-11
-1.74308e-11
1.20132e-11
4.23172e-12
-4.35049e-12
-1.82399e-12
1.0186e-12
-1.21509e-13
2.91091e-13
4.04229e-13
8.51324e-14
7.63976e-13
-7.67307e-13
-1.07489e-12
4.2557e-14
-1.66896e-12
5.55726e-13
6.0858e-13
-2.37517e-13
2.78571e-13
-6.91179e-13
4.10064e-07
-2.27046e-07
9.13216e-07
3.62178e-07
-1.1281e-07
-6.92728e-08
8.56578e-08
3.43121e-08
-1.14253e-08
-6.46106e-09
5.77722e-09
2.65964e-09
-1.44724e-09
-6.99065e-10
3.70522e-10
1.95506e-10
-1.29544e-10
-6.57564e-11
3.14269e-11
1.52986e-11
-9.60541e-12
-6.89241e-12
2.405e-12
-4.48484e-13
-7.35884e-13
-2.36933e-12
8.77114e-13
-5.7806e-13
-3.96044e-13
-5.19631e-13
-1.97654e-12
-2.74349e-12
-1.10294e-12
-2.93376e-12
3.31426e-13
4.89113e-13
-1.75091e-13
2.33041e-13
-5.28549e-13
-2.74933e-07
2.68588e-07
-6.20312e-07
-4.27616e-07
7.78493e-08
7.11584e-08
-5.78067e-08
-3.41973e-08
7.62392e-09
4.83838e-09
-3.81665e-09
-2.0683e-09
9.43684e-10
4.73395e-10
-2.40772e-10
-1.06181e-10
7.90865e-11
3.48568e-11
-2.30207e-11
-8.25926e-12
2.26452e-12
6.61322e-13
-5.22281e-12
-2.01532e-12
-2.2115e-12
-1.20171e-12
-1.9748e-12
3.37512e-14
-2.86708e-12
-1.38307e-13
-3.70071e-12
-2.43061e-12
-1.34172e-12
-1.5276e-12
3.90728e-13
1.66311e-12
-1.20416e-13
-3.37257e-13
-3.93023e-13
1.15905e-07
2.63854e-07
-4.08882e-08
2.84478e-08
-4.85384e-09
2.22175e-09
-5.7647e-10
1.69447e-10
-5.24889e-11
1.54228e-11
-3.61852e-12
2.00577e-12
1.04354e-12
1.87025e-12
2.98156e-13
-2.57498e-13
1.47723e-12
9.35124e-13
-6.09864e-13
)
;

boundaryField
{
    movingWall
    {
        type            calculated;
        value           nonuniform List<scalar> 
20
(
-4.5036e-07
6.82169e-07
-1.54462e-07
7.26859e-08
-1.57903e-08
6.08265e-09
-1.63915e-09
4.8621e-10
-1.47316e-10
4.23381e-11
-1.14925e-11
4.25549e-12
-2.43945e-13
2.33103e-12
1.40946e-12
-8.13152e-13
2.98156e-13
2.6563e-12
-7.86047e-13
-4.33681e-13
)
;
    }
    fixedWalls
    {
        type            calculated;
        value           nonuniform List<scalar> 
60
(
1.50909e-07
-6.0786e-07
1.11071e-06
-2.0427e-06
3.44046e-06
-4.51074e-06
4.98374e-06
-5.07996e-06
5.03557e-06
-4.81321e-06
4.5628e-06
-4.19342e-06
3.8274e-06
-3.3735e-06
2.93301e-06
-2.44064e-06
1.97188e-06
-1.44163e-06
9.87536e-07
-4.5036e-07
7.04731e-13
4.06576e-13
7.86047e-13
8.13152e-14
5.69206e-13
-2.71051e-13
3.79471e-13
-5.14996e-13
1.35525e-13
-7.86047e-13
-1.0842e-13
-8.94467e-13
-2.98156e-13
-8.67362e-13
-4.06576e-13
-7.04731e-13
-6.77626e-13
-7.04731e-13
-3.52366e-13
-4.33681e-13
1.50909e-07
-6.28958e-07
1.01141e-07
-5.21527e-08
7.47681e-09
-3.21835e-09
7.60307e-10
-1.80826e-10
5.95944e-11
-1.16837e-11
5.57835e-12
5.07166e-13
1.78433e-12
1.39105e-12
1.35666e-12
8.67538e-13
-2.93402e-13
-4.50647e-13
2.23813e-12
7.04731e-13
)
;
    }
    frontAndBack
    {
        type            empty;
        value           nonuniform List<scalar> 0();
    }
}


// ************************************************************************* //
