/*--------------------------------*- C++ -*----------------------------------*\
| =========                 |                                                 |
| \\      /  F ield         | OpenFOAM: The Open Source CFD Toolbox           |
|  \\    /   O peration     | Version:  2312                                  |
|   \\  /    A nd           | Website:  www.openfoam.com                      |
|    \\/     M anipulation  |                                                 |
\*---------------------------------------------------------------------------*/
FoamFile
{
    version     2.0;
    format      ascii;
    arch        "LSB;label=32;scalar=64";
    class       surfaceScalarField;
    location    "3.5";
    object      surfaceK;
}
// * * * * * * * * * * * * * * * * * * * * * * * * * * * * * * * * * * * * * //

dimensions      [0 2 -2 0 0 0 0];

internalField   nonuniform List<scalar> 
760
(
4.02491e-05
4.73609e-05
4.02485e-05
4.73604e-05
4.02479e-05
4.73483e-05
4.02475e-05
4.7344e-05
4.0247e-05
4.73357e-05
4.02466e-05
4.73318e-05
4.02462e-05
4.73246e-05
4.02459e-05
4.73214e-05
4.02456e-05
4.73152e-05
4.02454e-05
4.73126e-05
4.02452e-05
4.73073e-05
4.0245e-05
4.73056e-05
4.02448e-05
4.73012e-05
4.02447e-05
4.73e-05
4.02446e-05
4.72969e-05
4.02446e-05
4.72961e-05
4.02445e-05
4.72942e-05
4.02445e-05
4.72938e-05
4.02445e-05
4.72931e-05
4.7293e-05
5.44721e-05
6.37131e-05
5.44601e-05
6.37122e-05
5.44444e-05
6.36793e-05
5.44323e-05
6.36679e-05
5.44205e-05
6.36455e-05
5.44098e-05
6.36348e-05
5.43998e-05
6.36158e-05
5.43906e-05
6.36065e-05
5.43822e-05
6.35904e-05
5.43746e-05
6.35828e-05
5.43677e-05
6.35695e-05
5.43618e-05
6.35635e-05
5.43564e-05
6.3553e-05
5.43522e-05
6.35487e-05
5.43483e-05
6.3541e-05
5.43457e-05
6.35382e-05
5.43435e-05
6.35335e-05
5.43424e-05
6.35321e-05
5.43416e-05
6.35305e-05
6.353e-05
7.29531e-05
8.01568e-05
7.29313e-05
8.01543e-05
7.29029e-05
8.01044e-05
7.28811e-05
8.00848e-05
7.28598e-05
8.00502e-05
7.28407e-05
8.00325e-05
7.28225e-05
8.00031e-05
7.28063e-05
7.99877e-05
7.2791e-05
7.99632e-05
7.27777e-05
7.99501e-05
7.27653e-05
7.99303e-05
7.27547e-05
7.99196e-05
7.27453e-05
7.99043e-05
7.27375e-05
7.98963e-05
7.27309e-05
7.98852e-05
7.2726e-05
7.98801e-05
7.27222e-05
7.98732e-05
7.27201e-05
7.98707e-05
7.27188e-05
7.98683e-05
7.98675e-05
8.73581e-05
9.18808e-05
8.73275e-05
9.18779e-05
8.72863e-05
9.18107e-05
8.72538e-05
9.17857e-05
8.72229e-05
9.17392e-05
8.71949e-05
9.17164e-05
8.71683e-05
9.16768e-05
8.71446e-05
9.16571e-05
8.71223e-05
9.16235e-05
8.71027e-05
9.16075e-05
8.70846e-05
9.15796e-05
8.70692e-05
9.15673e-05
8.70553e-05
9.15451e-05
8.7044e-05
9.15362e-05
8.70344e-05
9.15201e-05
8.70273e-05
9.15144e-05
8.70218e-05
9.15046e-05
8.70189e-05
9.15017e-05
8.70169e-05
9.14983e-05
9.14973e-05
9.64006e-05
9.8976e-05
9.63612e-05
9.89725e-05
9.63101e-05
9.88942e-05
9.6271e-05
9.88648e-05
9.62326e-05
9.88104e-05
9.61983e-05
9.87841e-05
9.61657e-05
9.87372e-05
9.61361e-05
9.8715e-05
9.61088e-05
9.86747e-05
9.60844e-05
9.86569e-05
9.60622e-05
9.86234e-05
9.60432e-05
9.86097e-05
9.6026e-05
9.85832e-05
9.60123e-05
9.85733e-05
9.60001e-05
9.8554e-05
9.59917e-05
9.85478e-05
9.59845e-05
9.85361e-05
9.59812e-05
9.85328e-05
9.59787e-05
9.85288e-05
9.85276e-05
0.000101548
0.000103007
0.000101506
0.000103003
0.000101449
0.000102918
0.000101404
0.000102886
0.000101362
0.000102827
0.000101323
0.000102798
0.000101287
0.000102747
0.000101254
0.000102723
0.000101223
0.000102679
0.000101196
0.000102659
0.000101171
0.000102623
0.00010115
0.000102608
0.000101131
0.000102579
0.000101115
0.000102568
0.000101102
0.000102548
0.000101092
0.000102541
0.000101084
0.000102528
0.00010108
0.000102524
0.000101078
0.00010252
0.000102519
0.000104462
0.000105351
0.000104415
0.000105347
0.000104354
0.000105256
0.000104308
0.000105224
0.000104263
0.000105161
0.000104222
0.000105131
0.000104183
0.000105078
0.000104148
0.000105052
0.000104115
0.000105007
0.000104086
0.000104986
0.00010406
0.000104948
0.000104038
0.000104932
0.000104017
0.000104902
0.000104001
0.000104891
0.000103986
0.000104869
0.000103977
0.000104862
0.000103968
0.000104848
0.000103964
0.000104845
0.000103961
0.00010484
0.000104839
0.000106237
0.000106861
0.000106188
0.000106856
0.000106125
0.000106765
0.000106077
0.00010673
0.00010603
0.000106666
0.000105988
0.000106635
0.000105947
0.00010658
0.000105911
0.000106553
0.000105878
0.000106508
0.000105848
0.000106484
0.000105821
0.000106448
0.000105797
0.000106429
0.000105776
0.0001064
0.000105759
0.000106386
0.000105744
0.000106365
0.000105734
0.000106357
0.000105725
0.000106344
0.000105721
0.000106339
0.000105718
0.000106335
0.000106333
0.000107481
0.000107997
0.000107433
0.000107993
0.000107369
0.000107899
0.000107319
0.000107863
0.000107271
0.000107799
0.000107227
0.000107766
0.000107186
0.000107711
0.000107149
0.000107682
0.000107114
0.000107636
0.000107084
0.000107612
0.000107056
0.000107574
0.000107031
0.000107556
0.00010701
0.000107526
0.000106992
0.000107512
0.000106978
0.000107491
0.000106966
0.000107482
0.000106958
0.000107469
0.000106953
0.000107464
0.00010695
0.00010746
0.000107458
0.00010851
0.000108997
0.000108459
0.000108993
0.000108393
0.000108895
0.000108343
0.00010886
0.000108294
0.000108793
0.000108249
0.000108761
0.000108207
0.000108704
0.000108169
0.000108676
0.000108134
0.000108627
0.000108103
0.000108605
0.000108074
0.000108564
0.00010805
0.000108547
0.000108028
0.000108515
0.00010801
0.000108503
0.000107995
0.00010848
0.000107984
0.000108472
0.000107975
0.000108458
0.000107971
0.000108453
0.000107967
0.000108449
0.000108447
0.00010948
0.000109984
0.000109429
0.000109979
0.000109362
0.000109882
0.000109311
0.000109845
0.000109261
0.000109777
0.000109215
0.000109744
0.000109173
0.000109686
0.000109134
0.000109657
0.000109098
0.000109609
0.000109067
0.000109585
0.000109037
0.000109545
0.000109013
0.000109526
0.00010899
0.000109495
0.000108972
0.000109481
0.000108956
0.000109458
0.000108945
0.000109449
0.000108936
0.000109435
0.000108932
0.000109431
0.000108928
0.000109426
0.000109424
0.000110483
0.000111034
0.000110433
0.000111028
0.000110365
0.00011093
0.000110312
0.000110892
0.000110261
0.000110823
0.000110215
0.000110789
0.000110171
0.00011073
0.000110132
0.0001107
0.000110095
0.000110651
0.000110063
0.000110626
0.000110033
0.000110586
0.000110008
0.000110566
0.000109985
0.000110535
0.000109967
0.00011052
0.000109951
0.000110497
0.000109939
0.000110488
0.00010993
0.000110474
0.000109925
0.000110469
0.000109922
0.000110465
0.000110463
0.000111579
0.000112197
0.000111526
0.000112192
0.000111456
0.000112089
0.000111403
0.000112052
0.000111351
0.000111981
0.000111304
0.000111946
0.000111259
0.000111886
0.000111219
0.000111856
0.000111182
0.000111805
0.000111149
0.000111781
0.000111119
0.000111739
0.000111093
0.000111719
0.00011107
0.000111687
0.000111051
0.000111672
0.000111035
0.000111648
0.000111023
0.00011164
0.000111013
0.000111625
0.000111009
0.00011162
0.000111005
0.000111615
0.000111614
0.00011281
0.000113518
0.000112755
0.000113513
0.000112684
0.00011341
0.00011263
0.000113369
0.000112576
0.000113299
0.000112528
0.000113261
0.000112483
0.000113201
0.000112442
0.000113169
0.000112404
0.000113119
0.00011237
0.000113091
0.00011234
0.000113051
0.000112313
0.000113029
0.000112289
0.000112997
0.00011227
0.000112981
0.000112253
0.000112958
0.000112241
0.000112947
0.000112232
0.000112933
0.000112227
0.000112928
0.000112223
0.000112923
0.000112921
0.000114221
0.00011505
0.000114167
0.000115043
0.000114095
0.00011494
0.000114038
0.000114897
0.000113984
0.000114825
0.000113934
0.000114787
0.000113887
0.000114724
0.000113846
0.000114692
0.000113806
0.000114639
0.000113772
0.000114612
0.00011374
0.000114569
0.000113713
0.000114548
0.000113689
0.000114514
0.000113669
0.000114498
0.000113652
0.000114473
0.000113639
0.000114463
0.00011363
0.000114449
0.000113624
0.000114443
0.000113621
0.000114439
0.000114437
0.000115872
0.000116849
0.000115816
0.000116843
0.000115742
0.000116733
0.000115683
0.000116691
0.000115627
0.000116614
0.000115577
0.000116577
0.000115529
0.000116511
0.000115485
0.000116479
0.000115445
0.000116424
0.000115409
0.000116398
0.000115376
0.000116351
0.000115349
0.000116331
0.000115323
0.000116294
0.000115303
0.00011628
0.000115285
0.000116253
0.000115273
0.000116244
0.000115263
0.000116228
0.000115258
0.000116223
0.000115254
0.000116217
0.000116216
0.000117819
0.000118926
0.00011776
0.00011892
0.000117682
0.000118807
0.000117623
0.000118763
0.000117564
0.000118684
0.000117512
0.000118645
0.000117462
0.000118577
0.000117418
0.000118543
0.000117376
0.000118487
0.000117339
0.000118458
0.000117306
0.000118412
0.000117277
0.000118389
0.000117251
0.000118353
0.00011723
0.000118337
0.000117211
0.00011831
0.000117198
0.0001183
0.000117188
0.000118284
0.000117183
0.000118278
0.000117179
0.000118273
0.000118271
0.000120027
0.000121092
0.000119967
0.000121088
0.000119888
0.000120973
0.000119825
0.000120928
0.000119765
0.000120849
0.00011971
0.000120808
0.000119658
0.00012074
0.000119613
0.000120705
0.000119569
0.000120649
0.000119531
0.000120618
0.000119496
0.000120573
0.000119466
0.000120548
0.000119439
0.000120513
0.000119417
0.000120494
0.000119399
0.000120468
0.000119385
0.000120456
0.000119374
0.00012044
0.000119368
0.000120434
0.000119365
0.000120429
0.000120427
0.000122152
0.000122521
0.000122093
0.000122517
0.000122013
0.000122459
0.000121952
0.000122436
0.000121892
0.000122397
0.000121838
0.000122375
0.000121787
0.000122342
0.000121741
0.000122322
0.000121698
0.000122295
0.00012166
0.000122279
0.000121624
0.000122256
0.000121594
0.000122243
0.000121567
0.000122225
0.000121545
0.000122216
0.000121526
0.000122203
0.000121512
0.000122196
0.000121501
0.000122188
0.000121495
0.000122185
0.000121491
0.000122183
0.000122182
0.000122886
0.000122884
0.000122882
0.000122881
0.000122879
0.000122878
0.000122877
0.000122876
0.000122876
0.000122875
0.000122874
0.000122874
0.000122874
0.000122873
0.000122873
0.000122873
0.000122873
0.000122873
0.000122873
)
;

boundaryField
{
    movingWall
    {
        type            calculated;
        value           nonuniform List<scalar> 
20
(
0.000122889
0.000122883
0.000122885
0.000122879
0.000122882
0.000122877
0.000122879
0.000122875
0.000122877
0.000122874
0.000122875
0.000122874
0.000122874
0.000122874
0.000122873
0.000122873
0.000122873
0.000122873
0.000122873
0.000122873
)
;
    }
    fixedWalls
    {
        type            calculated;
        value           nonuniform List<scalar> 
60
(
4.02495e-05
5.44723e-05
7.29538e-05
8.73597e-05
9.64018e-05
0.00010155
0.000104463
0.000106238
0.000107483
0.000108512
0.000109482
0.000110486
0.000111581
0.000112812
0.000114224
0.000115875
0.000117822
0.000120031
0.000122153
0.000122889
4.02445e-05
5.43414e-05
7.27185e-05
8.70165e-05
9.59781e-05
0.000101077
0.00010396
0.000105717
0.00010695
0.000107967
0.000108928
0.000109921
0.000111005
0.000112223
0.00011362
0.000115253
0.000117178
0.000119364
0.00012149
0.000122873
4.02495e-05
4.02487e-05
4.02482e-05
4.02476e-05
4.02473e-05
4.02467e-05
4.02465e-05
4.0246e-05
4.02459e-05
4.02454e-05
4.02453e-05
4.0245e-05
4.02449e-05
4.02448e-05
4.02447e-05
4.02446e-05
4.02445e-05
4.02445e-05
4.02445e-05
4.02445e-05
)
;
    }
    frontAndBack
    {
        type            empty;
        value           nonuniform List<scalar> 0();
    }
}


// ************************************************************************* //
