/*--------------------------------*- C++ -*----------------------------------*\
| =========                 |                                                 |
| \\      /  F ield         | OpenFOAM: The Open Source CFD Toolbox           |
|  \\    /   O peration     | Version:  2312                                  |
|   \\  /    A nd           | Website:  www.openfoam.com                      |
|    \\/     M anipulation  |                                                 |
\*---------------------------------------------------------------------------*/
FoamFile
{
    version     2.0;
    format      ascii;
    arch        "LSB;label=32;scalar=64";
    class       surfaceScalarField;
    location    "3.5";
    object      surfaceP;
}
// * * * * * * * * * * * * * * * * * * * * * * * * * * * * * * * * * * * * * //

dimensions      [0 2 -2 0 0 0 0];

internalField   nonuniform List<scalar> 
760
(
2.84947e-10
0
2.88779e-10
2.84947e-10
5.15976e-12
3.83192e-12
1.32784e-12
1.32784e-12
0
0
0
0
0
0
0
0
0
0
0
0
0
0
0
0
0
0
0
0
0
0
3.44883e-14
0
1.6192e-13
1.00125e-13
3.10045e-13
2.80076e-13
3.8892e-13
3.88991e-13
4.35771e-13
0
0
0
1.71217e-09
0
4.8279e-11
0
9.22834e-11
0
0
0
0
0
0
0
0
0
0
0
0
0
0
0
0
0
0
0
0
0
0
6.56364e-14
8.12023e-15
2.18281e-13
1.92199e-13
3.59022e-13
3.57768e-13
4.35842e-13
4.58976e-13
5.02582e-13
1.71217e-09
0
1.76045e-09
1.71217e-09
1.40562e-10
4.8279e-11
9.22834e-11
9.22834e-11
0
4.86884e-12
0
0
0
0
0
0
0
0
0
0
0
0
0
0
0
0
0
0
8.12023e-15
0
1.34682e-13
1.21763e-13
3.31686e-13
3.38927e-13
4.57722e-13
4.82539e-13
5.25716e-13
5.71334e-13
6.10577e-13
0
0
0
3.12177e-09
0
1.28863e-10
4.86884e-12
2.02436e-10
4.86884e-12
4.86884e-12
0
4.22351e-12
0
0
0
0
0
0
0
0
0
0
0
0
0
0
0
5.87113e-15
1.13643e-13
1.3866e-13
3.26007e-13
3.57059e-13
4.8978e-13
5.32579e-13
5.96151e-13
6.4834e-13
6.56196e-13
7.2104e-13
7.5452e-13
3.12177e-09
3.82993e-10
3.25064e-09
3.12177e-09
3.31298e-10
1.28863e-10
2.02436e-10
2.02436e-10
4.22351e-12
1.72387e-11
4.22351e-12
4.22351e-12
0
2.37645e-12
0
0
0
0
0
0
0
0
0
3.19207e-15
5.87113e-15
1.348e-13
1.44531e-13
2.4276e-13
3.82076e-13
4.62033e-13
5.6363e-13
6.37026e-13
6.91139e-13
7.64067e-13
7.73228e-13
8.47099e-13
8.19364e-13
9.01356e-13
9.283e-13
3.82993e-10
3.82993e-10
0
3.70274e-09
0
1.21206e-10
1.72387e-11
2.53843e-10
1.72387e-11
1.72387e-11
2.37645e-12
1.05305e-11
2.37645e-12
2.37645e-12
0
7.81773e-13
0
2.91895e-14
0
3.8625e-13
3.19207e-15
3.47887e-13
1.37992e-13
4.1367e-13
3.71689e-13
5.78994e-13
5.60262e-13
7.21547e-13
7.16983e-13
8.44408e-13
8.37463e-13
9.47983e-13
9.20027e-13
1.02286e-12
9.75227e-13
1.07074e-12
1.01029e-12
1.10519e-12
1.12464e-12
3.70274e-09
4.68392e-10
3.82395e-09
3.70274e-09
3.7505e-10
1.21206e-10
2.53843e-10
2.53843e-10
1.05305e-11
2.39682e-11
1.05305e-11
1.05305e-11
7.81773e-13
5.42773e-12
8.10962e-13
1.59437e-12
4.1544e-13
1.40032e-12
7.34137e-13
1.28487e-12
7.58364e-13
1.228e-12
8.54672e-13
1.2058e-12
9.28852e-13
1.20522e-12
1.00569e-12
1.21943e-12
1.07541e-12
1.24554e-12
1.13338e-12
1.27674e-12
1.17357e-12
1.29827e-12
1.2007e-12
1.31013e-12
1.21954e-12
1.32465e-12
1.33652e-12
4.68392e-10
4.68392e-10
0
3.67912e-09
0
1.18287e-10
2.39682e-11
2.58093e-10
2.39682e-11
2.39682e-11
5.42773e-12
1.37354e-11
6.24033e-12
5.42773e-12
2.18373e-12
3.55349e-12
2.26975e-12
2.94188e-12
1.77874e-12
2.51486e-12
1.67544e-12
2.20372e-12
1.55635e-12
1.98298e-12
1.4958e-12
1.82547e-12
1.45928e-12
1.71766e-12
1.44687e-12
1.65021e-12
1.44163e-12
1.61084e-12
1.43484e-12
1.58009e-12
1.43408e-12
1.55686e-12
1.44163e-12
1.55206e-12
1.55685e-12
3.67912e-09
4.40715e-10
3.7974e-09
3.67912e-09
3.7638e-10
1.18287e-10
2.58093e-10
2.58093e-10
1.37354e-11
2.61755e-11
1.37354e-11
1.37354e-11
2.74089e-12
7.41228e-12
4.31164e-12
5.33393e-12
3.18699e-12
4.34961e-12
2.93985e-12
3.66099e-12
2.51126e-12
3.12309e-12
2.25209e-12
2.7233e-12
2.04732e-12
2.42196e-12
1.90859e-12
2.20093e-12
1.81417e-12
2.04598e-12
1.7493e-12
1.93996e-12
1.70212e-12
1.85967e-12
1.67485e-12
1.80322e-12
1.66728e-12
1.78058e-12
1.77914e-12
4.40715e-10
4.40715e-10
0
3.35697e-09
0
1.13197e-10
2.61755e-11
2.39152e-10
2.61755e-11
2.61755e-11
7.41228e-12
1.51759e-11
1.00053e-11
8.64337e-12
5.37189e-12
6.87933e-12
4.8236e-12
5.66509e-12
3.84423e-12
4.70367e-12
3.33512e-12
3.9747e-12
2.89317e-12
3.41267e-12
2.57557e-12
2.98264e-12
2.33832e-12
2.65839e-12
2.17177e-12
2.4235e-12
2.05033e-12
2.25603e-12
1.96077e-12
2.13005e-12
1.90895e-12
2.04321e-12
1.89244e-12
2.0046e-12
1.99784e-12
3.35697e-09
3.77526e-10
3.47017e-09
3.35697e-09
3.5235e-10
1.13197e-10
2.39152e-10
2.39152e-10
1.51759e-11
2.62246e-11
1.6407e-11
1.51759e-11
5.51739e-12
9.9243e-12
7.17253e-12
8.35802e-12
5.54515e-12
6.79334e-12
4.83414e-12
5.65938e-12
4.05225e-12
4.74744e-12
3.50214e-12
4.04581e-12
3.06546e-12
3.49979e-12
2.74357e-12
3.08344e-12
2.50776e-12
2.77643e-12
2.33575e-12
2.55354e-12
2.21249e-12
2.38656e-12
2.13886e-12
2.27269e-12
2.11e-12
2.21976e-12
2.20843e-12
3.77526e-10
3.77526e-10
0
2.84569e-09
0
1.02081e-10
2.62246e-11
2.06118e-10
2.62246e-11
2.62246e-11
8.69321e-12
1.55309e-11
1.27649e-11
1.20406e-11
7.97883e-12
9.55822e-12
6.90757e-12
7.87298e-12
5.57267e-12
6.50146e-12
4.741e-12
5.44739e-12
4.04346e-12
4.61733e-12
3.51777e-12
3.9706e-12
3.1163e-12
3.47234e-12
2.82221e-12
3.10157e-12
2.60435e-12
2.82943e-12
2.44676e-12
2.62575e-12
2.35359e-12
2.48804e-12
2.31819e-12
2.42303e-12
2.40774e-12
2.84569e-09
3.01398e-10
2.94778e-09
2.84569e-09
3.08199e-10
1.02081e-10
2.06118e-10
2.06118e-10
1.55309e-11
2.48839e-11
1.88783e-11
1.73498e-11
8.83385e-12
1.27936e-11
9.45237e-12
1.07576e-11
7.46688e-12
8.7473e-12
6.37618e-12
7.26591e-12
5.32372e-12
6.06555e-12
4.54447e-12
5.12997e-12
3.92517e-12
4.39332e-12
3.45761e-12
3.82387e-12
3.1088e-12
3.39711e-12
2.85083e-12
3.08189e-12
2.66703e-12
2.84617e-12
2.55747e-12
2.68759e-12
2.51257e-12
2.61181e-12
2.5925e-12
3.01398e-10
3.01398e-10
0
2.20762e-09
0
8.62103e-11
2.48839e-11
1.63839e-10
2.67028e-11
2.48839e-11
1.12651e-11
1.69306e-11
1.47173e-11
1.46816e-11
1.00526e-11
1.16471e-11
8.54634e-12
9.59716e-12
6.95528e-12
7.9137e-12
5.8718e-12
6.61253e-12
4.97882e-12
5.5797e-12
4.29202e-12
4.76809e-12
3.76337e-12
4.13702e-12
3.37021e-12
3.66225e-12
3.07723e-12
3.30974e-12
2.86674e-12
3.046e-12
2.74193e-12
2.86876e-12
2.69173e-12
2.78342e-12
2.76025e-12
2.20762e-09
2.20748e-10
2.29383e-09
2.20762e-09
2.5005e-10
8.62103e-11
1.63839e-10
1.63839e-10
1.51117e-11
2.2552e-11
2.03471e-11
2.01461e-11
1.16113e-11
1.49733e-11
1.11917e-11
1.25558e-11
8.96452e-12
1.02197e-11
7.57095e-12
8.48385e-12
6.32043e-12
7.07456e-12
5.36896e-12
5.96873e-12
4.61308e-12
5.09262e-12
4.0359e-12
4.41061e-12
3.60178e-12
3.89504e-12
3.27851e-12
3.5105e-12
3.04802e-12
3.22259e-12
2.91025e-12
3.02925e-12
2.85194e-12
2.93495e-12
2.90782e-12
2.20748e-10
2.20748e-10
0
1.5035e-09
0
6.61784e-11
2.2552e-11
1.16507e-10
2.75865e-11
2.67632e-11
1.47724e-11
1.90785e-11
1.59177e-11
1.64867e-11
1.15838e-11
1.30972e-11
9.739e-12
1.08071e-11
7.98746e-12
8.92197e-12
6.72285e-12
7.45785e-12
5.69238e-12
6.28827e-12
4.89015e-12
5.36388e-12
4.26976e-12
4.64019e-12
3.80376e-12
4.09175e-12
3.45459e-12
3.68116e-12
3.20383e-12
3.37274e-12
3.05396e-12
3.16513e-12
2.99083e-12
3.06314e-12
3.03356e-12
1.5035e-09
1.33753e-10
1.56968e-09
1.5035e-09
1.82686e-10
6.61784e-11
1.20718e-10
1.16507e-10
1.82553e-11
2.33384e-11
2.07928e-11
2.17027e-11
1.36662e-11
1.62376e-11
1.23205e-11
1.36372e-11
9.99004e-12
1.11464e-11
8.39237e-12
9.27746e-12
7.02326e-12
7.75217e-12
5.95977e-12
6.54474e-12
5.11393e-12
5.58205e-12
4.46219e-12
4.82719e-12
3.96915e-12
4.25303e-12
3.59932e-12
3.82156e-12
3.33405e-12
3.49604e-12
3.17431e-12
3.27568e-12
3.10587e-12
3.16693e-12
3.13598e-12
1.33753e-10
1.33753e-10
0
7.67411e-10
0
4.43782e-11
1.91272e-11
6.37356e-11
2.67858e-11
2.77246e-11
1.71474e-11
1.96533e-11
1.62086e-11
1.72808e-11
1.24631e-11
1.38047e-11
1.04338e-11
1.149e-11
8.63726e-12
9.52572e-12
7.27365e-12
7.98867e-12
6.16701e-12
6.74575e-12
5.29531e-12
5.75647e-12
4.61802e-12
4.97704e-12
4.10543e-12
4.38326e-12
3.71828e-12
3.93375e-12
3.43768e-12
3.59148e-12
3.2683e-12
3.36072e-12
3.19705e-12
3.24908e-12
3.21584e-12
7.67411e-10
6.34272e-11
8.11789e-10
7.67411e-10
1.08114e-10
6.47311e-11
7.2333e-11
6.37356e-11
2.05921e-11
2.43389e-11
1.97867e-11
2.08402e-11
1.48769e-11
1.67901e-11
1.28316e-11
1.40431e-11
1.05819e-11
1.16529e-11
8.87713e-12
9.71777e-12
7.46078e-12
8.1493e-12
6.33521e-12
6.88673e-12
5.43821e-12
5.87674e-12
4.74228e-12
5.08091e-12
4.21158e-12
4.47253e-12
3.80696e-12
4.00752e-12
3.51452e-12
3.65323e-12
3.34149e-12
3.42087e-12
3.26787e-12
3.30985e-12
3.27046e-12
6.34272e-11
2.03529e-11
2.03529e-11
1.57415e-11
2.4587e-11
1.78437e-11
1.59563e-11
1.28644e-11
1.07887e-11
8.98994e-12
7.57525e-12
6.42826e-12
5.51944e-12
4.81116e-12
4.26846e-12
3.85379e-12
3.55958e-12
3.38922e-12
3.31245e-12
)
;

boundaryField
{
    movingWall
    {
        type            calculated;
        value           nonuniform List<scalar> 
20
(
1.26854e-10
0
4.07059e-11
0
3.1483e-11
1.76911e-11
1.79963e-11
1.39164e-11
1.18123e-11
9.76517e-12
8.21472e-12
6.93579e-12
5.92073e-12
5.11815e-12
4.50416e-12
4.03276e-12
3.67483e-12
3.44433e-12
3.33412e-12
3.29077e-12
)
;
    }
    fixedWalls
    {
        type            calculated;
        value           nonuniform List<scalar> 
60
(
0
0
0
0
0
7.65987e-10
0
9.36784e-10
0
8.8143e-10
0
7.55052e-10
0
6.02796e-10
0
4.41495e-10
0
2.67506e-10
0
1.26854e-10
4.12613e-13
4.5893e-13
5.46235e-13
6.74919e-13
8.3412e-13
1.02248e-12
1.2268e-12
1.44625e-12
1.66745e-12
1.89083e-12
2.10484e-12
2.31202e-12
2.50346e-12
2.68153e-12
2.83896e-12
2.97667e-12
3.09045e-12
3.18152e-12
3.25016e-12
3.29077e-12
0
5.69894e-10
7.66383e-12
2.65568e-12
0
0
0
0
0
0
0
0
0
0
0
0
6.89765e-14
2.54863e-13
3.65227e-13
4.12613e-13
)
;
    }
    frontAndBack
    {
        type            empty;
        value           nonuniform List<scalar> 0();
    }
}


// ************************************************************************* //
