/*--------------------------------*- C++ -*----------------------------------*\
| =========                 |                                                 |
| \\      /  F ield         | OpenFOAM: The Open Source CFD Toolbox           |
|  \\    /   O peration     | Version:  2312                                  |
|   \\  /    A nd           | Website:  www.openfoam.com                      |
|    \\/     M anipulation  |                                                 |
\*---------------------------------------------------------------------------*/
FoamFile
{
    version     2.0;
    format      ascii;
    arch        "LSB;label=32;scalar=64";
    class       surfaceVectorField;
    location    "3.5";
    object      surfaceU;
}
// * * * * * * * * * * * * * * * * * * * * * * * * * * * * * * * * * * * * * //

dimensions      [0 1 -1 0 0 0 0];

internalField   nonuniform List<vector> 
760
(
(-1 8.70382e-08 0)
(-1 -2.57528e-09 0)
(-1 -1.95724e-08 0)
(-1 5.59383e-10 0)
(-1 4.68842e-09 0)
(-1 -1.21535e-10 0)
(-1 -1.06389e-09 0)
(-1 2.3774e-11 0)
(-1 2.4618e-10 0)
(-1 -5.52029e-12 0)
(-1 -5.7909e-11 0)
(-1 2.69623e-15 0)
(-1 1.27648e-11 0)
(-1 -5.99782e-13 0)
(-1 -3.15597e-12 0)
(-1 -3.42376e-13 0)
(-1 6.09611e-13 0)
(-1 -1.76773e-13 0)
(-1 -1.93357e-13 0)
(-1 -9.37904e-14 0)
(-1 1.59876e-14 0)
(-1 -3.64827e-14 0)
(-1 -2.0088e-14 0)
(-1 -1.79285e-14 0)
(-1 -1.30563e-14 0)
(-1 -1.62861e-14 0)
(-1 -2.36345e-14 0)
(-1 -3.22115e-14 0)
(-1 -3.13319e-14 0)
(-1 -5.35254e-14 0)
(-1 -3.23416e-14 0)
(-1 -6.85749e-14 0)
(-1 -2.59537e-14 0)
(-1 -6.17758e-14 0)
(-1 -2.01692e-14 0)
(-1 -3.89806e-14 0)
(-1 -2.21769e-14 0)
(-1 -3.89537e-14 0)
(-1 -5.11026e-14 0)
(-1 -8.90541e-08 0)
(-1 5.18426e-09 0)
(-1 2.00103e-08 0)
(-1 -1.20604e-09 0)
(-1 -4.78618e-09 0)
(-1 2.93302e-10 0)
(-1 1.08214e-09 0)
(-1 -7.08495e-11 0)
(-1 -2.51698e-10 0)
(-1 1.45519e-11 0)
(-1 5.73119e-11 0)
(-1 -5.81402e-12 0)
(-1 -1.3707e-11 0)
(-1 -1.42844e-13 0)
(-1 2.63682e-12 0)
(-1 -8.83832e-13 0)
(-1 -8.80175e-13 0)
(-1 -2.60216e-13 0)
(-1 6.30841e-14 0)
(-1 -1.51859e-13 0)
(-1 -7.03989e-14 0)
(-1 -4.13867e-14 0)
(-1 -1.41266e-14 0)
(-1 -1.43225e-14 0)
(-1 -3.54413e-14 0)
(-1 -1.75689e-14 0)
(-1 -6.21025e-14 0)
(-1 -5.34665e-14 0)
(-1 -9.07684e-14 0)
(-1 -9.838e-14 0)
(-1 -9.80091e-14 0)
(-1 -1.30783e-13 0)
(-1 -7.48026e-14 0)
(-1 -1.20005e-13 0)
(-1 -5.77651e-14 0)
(-1 -7.36852e-14 0)
(-1 -6.78794e-14 0)
(-1 -7.70712e-14 0)
(-1 -1.0019e-13 0)
(-1 9.30323e-08 0)
(-1 -7.30274e-09 0)
(-1 -2.0923e-08 0)
(-1 1.74813e-09 0)
(-1 5.00863e-09 0)
(-1 -4.37366e-10 0)
(-1 -1.13844e-09 0)
(-1 8.89471e-11 0)
(-1 2.60435e-10 0)
(-1 -2.88323e-11 0)
(-1 -6.32688e-11 0)
(-1 2.63636e-12 0)
(-1 1.26803e-11 0)
(-1 -2.76188e-12 0)
(-1 -3.78087e-12 0)
(-1 -4.66942e-13 0)
(-1 4.681e-13 0)
(-1 -4.13776e-13 0)
(-1 -2.5633e-13 0)
(-1 -9.89364e-14 0)
(-1 1.46896e-14 0)
(-1 -1.20827e-14 0)
(-1 -1.77649e-14 0)
(-1 2.06817e-14 0)
(-1 -3.55942e-14 0)
(-1 9.27239e-16 0)
(-1 -8.97441e-14 0)
(-1 -5.90276e-14 0)
(-1 -1.38395e-13 0)
(-1 -1.30145e-13 0)
(-1 -1.52779e-13 0)
(-1 -1.81068e-13 0)
(-1 -1.18888e-13 0)
(-1 -1.68966e-13 0)
(-1 -9.29913e-14 0)
(-1 -1.03482e-13 0)
(-1 -1.09382e-13 0)
(-1 -1.1019e-13 0)
(-1 -1.45558e-13 0)
(-1 -9.8587e-08 0)
(-1 7.73802e-09 0)
(-1 2.22338e-08 0)
(-1 -2.19769e-09 0)
(-1 -5.35705e-09 0)
(-1 4.90233e-10 0)
(-1 1.19855e-09 0)
(-1 -1.41653e-10 0)
(-1 -2.86631e-10 0)
(-1 2.74153e-11 0)
(-1 6.31432e-11 0)
(-1 -1.02951e-11 0)
(-1 -1.59091e-11 0)
(-1 5.78581e-13 0)
(-1 2.90015e-12 0)
(-1 -1.10123e-12 0)
(-1 -9.80812e-13 0)
(-1 -1.19897e-13 0)
(-1 1.45311e-13 0)
(-1 -3.40682e-14 0)
(-1 -6.09055e-15 0)
(-1 8.84187e-14 0)
(-1 3.93739e-14 0)
(-1 8.67451e-14 0)
(-1 -2.25062e-14 0)
(-1 4.48137e-14 0)
(-1 -9.94284e-14 0)
(-1 -4.58735e-14 0)
(-1 -1.72818e-13 0)
(-1 -1.45576e-13 0)
(-1 -1.97255e-13 0)
(-1 -2.16887e-13 0)
(-1 -1.53561e-13 0)
(-1 -2.05978e-13 0)
(-1 -1.20681e-13 0)
(-1 -1.25164e-13 0)
(-1 -1.46366e-13 0)
(-1 -1.37337e-13 0)
(-1 -1.85755e-13 0)
(-1 1.04127e-07 0)
(-1 -6.31958e-09 0)
(-1 -2.39412e-08 0)
(-1 1.86407e-09 0)
(-1 5.70563e-09 0)
(-1 -4.47415e-10 0)
(-1 -1.31279e-09 0)
(-1 1.25917e-10 0)
(-1 3.03752e-10 0)
(-1 -3.49218e-11 0)
(-1 -7.28598e-11 0)
(-1 7.03493e-12 0)
(-1 1.53865e-11 0)
(-1 -3.02284e-12 0)
(-1 -4.12128e-12 0)
(-1 2.54773e-13 0)
(-1 8.26847e-13 0)
(-1 -1.15227e-13 0)
(-1 -9.09604e-14 0)
(-1 2.1609e-13 0)
(-1 1.81254e-13 0)
(-1 2.16291e-13 0)
(-1 9.21849e-14 0)
(-1 1.92776e-13 0)
(-1 2.14463e-14 0)
(-1 1.11762e-13 0)
(-1 -9.20207e-14 0)
(-1 -1.25771e-14 0)
(-1 -1.89645e-13 0)
(-1 -1.43241e-13 0)
(-1 -2.2561e-13 0)
(-1 -2.36246e-13 0)
(-1 -1.77581e-13 0)
(-1 -2.29478e-13 0)
(-1 -1.4182e-13 0)
(-1 -1.38466e-13 0)
(-1 -1.76726e-13 0)
(-1 -1.57345e-13 0)
(-1 -2.19519e-13 0)
(-1 -1.08583e-07 0)
(-1 5.90838e-09 0)
(-1 2.53579e-08 0)
(-1 -1.64729e-09 0)
(-1 -6.02713e-09 0)
(-1 3.95533e-10 0)
(-1 1.40379e-09 0)
(-1 -1.11016e-10 0)
(-1 -3.31638e-10 0)
(-1 2.77107e-11 0)
(-1 7.68719e-11 0)
(-1 -7.90681e-12 0)
(-1 -1.81546e-11 0)
(-1 2.02185e-12 0)
(-1 4.26083e-12 0)
(-1 -3.50679e-13 0)
(-1 -7.25984e-13 0)
(-1 5.13518e-13 0)
(-1 5.23341e-13 0)
(-1 3.88057e-13 0)
(-1 2.27813e-13 0)
(-1 4.14418e-13 0)
(-1 2.12354e-13 0)
(-1 3.16171e-13 0)
(-1 7.77388e-14 0)
(-1 2.00283e-13 0)
(-1 -6.37972e-14 0)
(-1 3.75662e-14 0)
(-1 -1.89842e-13 0)
(-1 -1.23834e-13 0)
(-1 -2.40114e-13 0)
(-1 -2.39251e-13 0)
(-1 -1.90364e-13 0)
(-1 -2.39329e-13 0)
(-1 -1.53992e-13 0)
(-1 -1.42612e-13 0)
(-1 -2.00138e-13 0)
(-1 -1.70014e-13 0)
(-1 -2.46187e-13 0)
(-1 1.12844e-07 0)
(-1 -5.71936e-09 0)
(-1 -2.66097e-08 0)
(-1 1.53126e-09 0)
(-1 6.31164e-09 0)
(-1 -3.64372e-10 0)
(-1 -1.48709e-09 0)
(-1 9.81513e-11 0)
(-1 3.51442e-10 0)
(-1 -2.41373e-11 0)
(-1 -8.27568e-11 0)
(-1 6.81007e-12 0)
(-1 1.98257e-11 0)
(-1 -1.13194e-12 0)
(-1 -4.09799e-12 0)
(-1 1.1129e-12 0)
(-1 1.62756e-12 0)
(-1 6.01716e-13 0)
(-1 2.79134e-13 0)
(-1 7.25454e-13 0)
(-1 5.02777e-13 0)
(-1 5.90158e-13 0)
(-1 3.04101e-13 0)
(-1 4.62546e-13 0)
(-1 1.60111e-13 0)
(-1 2.97861e-13 0)
(-1 -2.2471e-14 0)
(-1 1.00858e-13 0)
(-1 -1.73243e-13 0)
(-1 -9.04362e-14 0)
(-1 -2.38466e-13 0)
(-1 -2.26956e-13 0)
(-1 -1.91578e-13 0)
(-1 -2.35827e-13 0)
(-1 -1.58635e-13 0)
(-1 -1.38508e-13 0)
(-1 -2.16063e-13 0)
(-1 -1.75188e-13 0)
(-1 -2.65437e-13 0)
(-1 -1.17032e-07 0)
(-1 5.55205e-09 0)
(-1 2.77765e-08 0)
(-1 -1.43101e-09 0)
(-1 -6.57786e-09 0)
(-1 3.45198e-10 0)
(-1 1.56111e-09 0)
(-1 -8.73571e-11 0)
(-1 -3.6877e-10 0)
(-1 2.36247e-11 0)
(-1 8.8435e-11 0)
(-1 -4.43349e-12 0)
(-1 -1.98448e-11 0)
(-1 2.63143e-12 0)
(-1 5.81261e-12 0)
(-1 7.44473e-13 0)
(-1 -3.00388e-13 0)
(-1 1.15391e-12 0)
(-1 1.03648e-12 0)
(-1 9.23e-13 0)
(-1 5.49928e-13 0)
(-1 7.95985e-13 0)
(-1 4.56307e-13 0)
(-1 5.99165e-13 0)
(-1 2.38608e-13 0)
(-1 4.00737e-13 0)
(-1 3.28928e-14 0)
(-1 1.70018e-13 0)
(-1 -1.44149e-13 0)
(-1 -4.66887e-14 0)
(-1 -2.24317e-13 0)
(-1 -2.02341e-13 0)
(-1 -1.82757e-13 0)
(-1 -2.2109e-13 0)
(-1 -1.55062e-13 0)
(-1 -1.2656e-13 0)
(-1 -2.24562e-13 0)
(-1 -1.73423e-13 0)
(-1 -2.77177e-13 0)
(-1 1.21153e-07 0)
(-1 -5.43583e-09 0)
(-1 -2.88623e-08 0)
(-1 1.39249e-09 0)
(-1 6.83571e-09 0)
(-1 -3.2686e-10 0)
(-1 -1.62484e-09 0)
(-1 8.66121e-11 0)
(-1 3.87961e-10 0)
(-1 -1.85702e-11 0)
(-1 -9.0237e-11 0)
(-1 6.91488e-12 0)
(-1 2.32207e-11 0)
(-1 3.07194e-13 0)
(-1 -3.91422e-12 0)
(-1 1.81672e-12 0)
(-1 2.3773e-12 0)
(-1 1.26535e-12 0)
(-1 6.82507e-13 0)
(-1 1.19588e-12 0)
(-1 8.45223e-13 0)
(-1 9.55258e-13 0)
(-1 5.43594e-13 0)
(-1 7.31596e-13 0)
(-1 3.32146e-13 0)
(-1 4.96078e-13 0)
(-1 9.04365e-14 0)
(-1 2.40181e-13 0)
(-1 -1.0488e-13 0)
(-1 2.52873e-15 0)
(-1 -1.99114e-13 0)
(-1 -1.68479e-13 0)
(-1 -1.64893e-13 0)
(-1 -1.97142e-13 0)
(-1 -1.44921e-13 0)
(-1 -1.0879e-13 0)
(-1 -2.26039e-13 0)
(-1 -1.65303e-13 0)
(-1 -2.8165e-13 0)
(-1 -1.25196e-07 0)
(-1 5.16225e-09 0)
(-1 2.9928e-08 0)
(-1 -1.29592e-09 0)
(-1 -7.07595e-09 0)
(-1 3.12239e-10 0)
(-1 1.69288e-09 0)
(-1 -7.50524e-11 0)
(-1 -3.99616e-10 0)
(-1 2.15408e-11 0)
(-1 9.74591e-11 0)
(-1 -2.49303e-12 0)
(-1 -2.10968e-11 0)
(-1 3.1741e-12 0)
(-1 6.9963e-12 0)
(-1 1.49972e-12 0)
(-1 8.39251e-14 0)
(-1 1.65994e-12 0)
(-1 1.46863e-12 0)
(-1 1.34019e-12 0)
(-1 8.41631e-13 0)
(-1 1.10726e-12 0)
(-1 6.84079e-13 0)
(-1 8.37593e-13 0)
(-1 4.04112e-13 0)
(-1 5.80454e-13 0)
(-1 1.52273e-13 0)
(-1 3.04821e-13 0)
(-1 -6.10701e-14 0)
(-1 5.31203e-14 0)
(-1 -1.66507e-13 0)
(-1 -1.29237e-13 0)
(-1 -1.41039e-13 0)
(-1 -1.67133e-13 0)
(-1 -1.29171e-13 0)
(-1 -8.65192e-14 0)
(-1 -2.20914e-13 0)
(-1 -1.5196e-13 0)
(-1 -2.79417e-13 0)
(-1 1.29063e-07 0)
(-1 -4.93624e-09 0)
(-1 -3.09117e-08 0)
(-1 1.24295e-09 0)
(-1 7.31314e-09 0)
(-1 -2.90355e-10 0)
(-1 -1.74639e-09 0)
(-1 7.67585e-11 0)
(-1 4.18664e-10 0)
(-1 -1.50294e-11 0)
(-1 -9.6778e-11 0)
(-1 6.90036e-12 0)
(-1 2.57706e-11 0)
(-1 1.1564e-12 0)
(-1 -3.83664e-12 0)
(-1 2.28016e-12 0)
(-1 2.9162e-12 0)
(-1 1.69427e-12 0)
(-1 9.78821e-13 0)
(-1 1.51168e-12 0)
(-1 1.10322e-12 0)
(-1 1.20315e-12 0)
(-1 7.33968e-13 0)
(-1 9.21491e-13 0)
(-1 4.81163e-13 0)
(-1 6.45218e-13 0)
(-1 2.05668e-13 0)
(-1 3.59659e-13 0)
(-1 -1.50468e-14 0)
(-1 1.00554e-13 0)
(-1 -1.29863e-13 0)
(-1 -8.78824e-14 0)
(-1 -1.12613e-13 0)
(-1 -1.33295e-13 0)
(-1 -1.09308e-13 0)
(-1 -6.18669e-14 0)
(-1 -2.10463e-13 0)
(-1 -1.34318e-13 0)
(-1 -2.71209e-13 0)
(-1 -1.32756e-07 0)
(-1 4.51477e-09 0)
(-1 3.18643e-08 0)
(-1 -1.1163e-09 0)
(-1 -7.52674e-09 0)
(-1 2.69507e-10 0)
(-1 1.80812e-09 0)
(-1 -6.25567e-11 0)
(-1 -4.26793e-10 0)
(-1 1.905e-11 0)
(-1 1.04835e-10 0)
(-1 -1.15454e-12 0)
(-1 -2.2334e-11 0)
(-1 3.40848e-12 0)
(-1 7.81107e-12 0)
(-1 1.92645e-12 0)
(-1 2.89757e-13 0)
(-1 1.93269e-12 0)
(-1 1.73601e-12 0)
(-1 1.56441e-12 0)
(-1 1.02142e-12 0)
(-1 1.27436e-12 0)
(-1 8.32741e-13 0)
(-1 9.69397e-13 0)
(-1 5.23714e-13 0)
(-1 6.88115e-13 0)
(-1 2.54545e-13 0)
(-1 3.9976e-13 0)
(-1 2.77185e-14 0)
(-1 1.40955e-13 0)
(-1 -9.13147e-14 0)
(-1 -4.81949e-14 0)
(-1 -8.25487e-14 0)
(-1 -9.86425e-14 0)
(-1 -8.68773e-14 0)
(-1 -3.60641e-14 0)
(-1 -1.95064e-13 0)
(-1 -1.14e-13 0)
(-1 -2.576e-13 0)
(-1 1.36154e-07 0)
(-1 -4.17396e-09 0)
(-1 -3.2711e-08 0)
(-1 1.04077e-09 0)
(-1 7.73369e-09 0)
(-1 -2.42074e-10 0)
(-1 -1.85163e-09 0)
(-1 6.45191e-11 0)
(-1 4.44688e-10 0)
(-1 -1.14962e-11 0)
(-1 -1.02581e-10 0)
(-1 6.48596e-12 0)
(-1 2.76689e-11 0)
(-1 1.66903e-12 0)
(-1 -3.95194e-12 0)
(-1 2.45808e-12 0)
(-1 3.20734e-12 0)
(-1 1.87162e-12 0)
(-1 1.10276e-12 0)
(-1 1.62233e-12 0)
(-1 1.22234e-12 0)
(-1 1.28609e-12 0)
(-1 8.24771e-13 0)
(-1 9.85846e-13 0)
(-1 5.64161e-13 0)
(-1 7.03704e-13 0)
(-1 2.8617e-13 0)
(-1 4.22398e-13 0)
(-1 6.50415e-14 0)
(-1 1.7108e-13 0)
(-1 -5.55227e-14 0)
(-1 -1.27451e-14 0)
(-1 -5.21579e-14 0)
(-1 -6.54919e-14 0)
(-1 -6.31864e-14 0)
(-1 -1.20949e-14 0)
(-1 -1.76536e-13 0)
(-1 -9.22945e-14 0)
(-1 -2.3885e-13 0)
(-1 -1.39288e-07 0)
(-1 3.63437e-09 0)
(-1 3.35097e-08 0)
(-1 -8.85678e-10 0)
(-1 -7.91124e-09 0)
(-1 2.14647e-10 0)
(-1 1.90465e-09 0)
(-1 -4.78388e-11 0)
(-1 -4.49699e-10 0)
(-1 1.578e-11 0)
(-1 1.10736e-10 0)
(-1 5.14196e-15 0)
(-1 -2.35418e-11 0)
(-1 3.33928e-12 0)
(-1 8.28164e-12 0)
(-1 2.07979e-12 0)
(-1 2.86611e-13 0)
(-1 1.9546e-12 0)
(-1 1.80567e-12 0)
(-1 1.57163e-12 0)
(-1 1.0496e-12 0)
(-1 1.26264e-12 0)
(-1 8.64779e-13 0)
(-1 9.60813e-13 0)
(-1 5.61941e-13 0)
(-1 6.90919e-13 0)
(-1 3.07309e-13 0)
(-1 4.24455e-13 0)
(-1 9.32939e-14 0)
(-1 1.88725e-13 0)
(-1 -2.27142e-14 0)
(-1 1.58677e-14 0)
(-1 -2.54288e-14 0)
(-1 -3.66783e-14 0)
(-1 -4.1203e-14 0)
(-1 8.23e-15 0)
(-1 -1.54609e-13 0)
(-1 -7.11191e-14 0)
(-1 -2.15227e-13 0)
(-1 1.42036e-07 0)
(-1 -3.19855e-09 0)
(-1 -3.41808e-08 0)
(-1 7.8728e-10 0)
(-1 8.07805e-09 0)
(-1 -1.813e-10 0)
(-1 -1.93671e-09 0)
(-1 4.9278e-11 0)
(-1 4.65484e-10 0)
(-1 -7.31616e-12 0)
(-1 -1.07391e-10 0)
(-1 5.67467e-12 0)
(-1 2.89609e-11 0)
(-1 1.97426e-12 0)
(-1 -4.24725e-12 0)
(-1 2.3529e-12 0)
(-1 3.23961e-12 0)
(-1 1.79538e-12 0)
(-1 1.02859e-12 0)
(-1 1.50412e-12 0)
(-1 1.17384e-12 0)
(-1 1.17901e-12 0)
(-1 7.86952e-13 0)
(-1 8.98252e-13 0)
(-1 5.53433e-13 0)
(-1 6.4681e-13 0)
(-1 3.05872e-13 0)
(-1 4.04318e-13 0)
(-1 1.11299e-13 0)
(-1 1.91383e-13 0)
(-1 1.90366e-15 0)
(-1 3.51456e-14 0)
(-1 -3.01947e-15 0)
(-1 -1.41229e-14 0)
(-1 -2.16861e-14 0)
(-1 2.2504e-14 0)
(-1 -1.31737e-13 0)
(-1 -5.22194e-14 0)
(-1 -1.87217e-13 0)
(-1 -1.44448e-07 0)
(-1 2.58827e-09 0)
(-1 3.47868e-08 0)
(-1 -6.26467e-10 0)
(-1 -8.21007e-09 0)
(-1 1.54012e-10 0)
(-1 1.97867e-09 0)
(-1 -3.19228e-11 0)
(-1 -4.67125e-10 0)
(-1 1.24783e-11 0)
(-1 1.1504e-10 0)
(-1 9.89636e-13 0)
(-1 -2.46338e-11 0)
(-1 3.01871e-12 0)
(-1 8.39553e-12 0)
(-1 1.92723e-12 0)
(-1 5.9889e-14 0)
(-1 1.6929e-12 0)
(-1 1.65453e-12 0)
(-1 1.32608e-12 0)
(-1 9.03416e-13 0)
(-1 1.04298e-12 0)
(-1 7.5811e-13 0)
(-1 7.86164e-13 0)
(-1 4.97695e-13 0)
(-1 5.66807e-13 0)
(-1 2.89828e-13 0)
(-1 3.57558e-13 0)
(-1 1.15229e-13 0)
(-1 1.75851e-13 0)
(-1 1.9119e-14 0)
(-1 4.29872e-14 0)
(-1 1.14006e-14 0)
(-1 1.08617e-15 0)
(-1 -8.02922e-15 0)
(-1 3.10374e-14 0)
(-1 -1.07699e-13 0)
(-1 -3.55812e-14 0)
(-1 -1.55901e-13 0)
(-1 1.46409e-07 0)
(-1 -2.09411e-09 0)
(-1 -3.52592e-08 0)
(-1 5.08942e-10 0)
(-1 8.33216e-09 0)
(-1 -1.12787e-10 0)
(-1 -1.99812e-09 0)
(-1 3.43553e-11 0)
(-1 4.80593e-10 0)
(-1 -3.02998e-12 0)
(-1 -1.11032e-10 0)
(-1 4.71416e-12 0)
(-1 2.95797e-11 0)
(-1 1.87101e-12 0)
(-1 -4.77541e-12 0)
(-1 1.89088e-12 0)
(-1 2.95908e-12 0)
(-1 1.37519e-12 0)
(-1 7.14526e-13 0)
(-1 1.1103e-12 0)
(-1 9.25729e-13 0)
(-1 8.4942e-13 0)
(-1 5.94861e-13 0)
(-1 6.40872e-13 0)
(-1 4.2667e-13 0)
(-1 4.61489e-13 0)
(-1 2.43581e-13 0)
(-1 2.94763e-13 0)
(-1 1.03609e-13 0)
(-1 1.50908e-13 0)
(-1 2.49543e-14 0)
(-1 4.67255e-14 0)
(-1 2.07229e-14 0)
(-1 1.36351e-14 0)
(-1 3.48542e-15 0)
(-1 3.59862e-14 0)
(-1 -8.37832e-14 0)
(-1 -2.0129e-14 0)
(-1 -1.22441e-13 0)
(-1 -1.47995e-07 0)
(-1 1.42923e-09 0)
(-1 3.56554e-08 0)
(-1 -3.30257e-10 0)
(-1 -8.41059e-09 0)
(-1 8.42391e-11 0)
(-1 2.02944e-09 0)
(-1 -1.0146e-11 0)
(-1 -4.78909e-10 0)
(-1 7.09345e-12 0)
(-1 1.17617e-10 0)
(-1 2.13574e-12 0)
(-1 -2.58178e-11 0)
(-1 1.86371e-12 0)
(-1 8.04147e-12 0)
(-1 1.37499e-12 0)
(-1 -4.73597e-13 0)
(-1 1.02431e-12 0)
(-1 1.24519e-12 0)
(-1 8.05869e-13 0)
(-1 5.64563e-13 0)
(-1 6.08594e-13 0)
(-1 5.075e-13 0)
(-1 4.57074e-13 0)
(-1 3.29583e-13 0)
(-1 3.28628e-13 0)
(-1 2.02091e-13 0)
(-1 2.11671e-13 0)
(-1 9.40247e-14 0)
(-1 1.11519e-13 0)
(-1 3.54063e-14 0)
(-1 3.91551e-14 0)
(-1 2.88983e-14 0)
(-1 1.64315e-14 0)
(-1 1.23718e-14 0)
(-1 3.58294e-14 0)
(-1 -5.87868e-14 0)
(-1 -2.69959e-15 0)
(-1 -8.64581e-14 0)
(-1 1.49094e-07 0)
(-1 -1.13868e-09 0)
(-1 -3.59014e-08 0)
(-1 5.2056e-10 0)
(-1 8.48468e-09 0)
(-1 -1.24324e-10 0)
(-1 -2.03249e-09 0)
(-1 5.00092e-11 0)
(-1 4.88138e-10 0)
(-1 -1.1008e-11 0)
(-1 -1.13618e-10 0)
(-1 5.5054e-12 0)
(-1 2.90565e-11 0)
(-1 -1.87785e-13 0)
(-1 -5.64218e-12 0)
(-1 1.08057e-12 0)
(-1 2.30377e-12 0)
(-1 4.38828e-13 0)
(-1 1.69268e-13 0)
(-1 4.39315e-13 0)
(-1 5.01105e-13 0)
(-1 2.97315e-13 0)
(-1 2.78202e-13 0)
(-1 2.26909e-13 0)
(-1 2.10716e-13 0)
(-1 1.58474e-13 0)
(-1 1.21098e-13 0)
(-1 1.00355e-13 0)
(-1 5.66492e-14 0)
(-1 5.02521e-14 0)
(-1 2.01803e-14 0)
(-1 1.4183e-14 0)
(-1 2.33626e-14 0)
(-1 5.73043e-15 0)
(-1 2.07581e-14 0)
(-1 2.46271e-14 0)
(-1 -3.03709e-14 0)
(-1 7.87603e-15 0)
(-1 -4.5582e-14 0)
(-1 -1.49712e-07 0)
(-1 3.62976e-08 0)
(-1 -8.559e-09 0)
(-1 2.07149e-09 0)
(-1 -4.93641e-10 0)
(-1 1.18935e-10 0)
(-1 -2.81637e-11 0)
(-1 7.16157e-12 0)
(-1 -1.42563e-12 0)
(-1 5.67362e-13 0)
(-1 2.3119e-14 0)
(-1 1.07181e-13 0)
(-1 4.81128e-14 0)
(-1 2.95089e-14 0)
(-1 7.78594e-15 0)
(-1 -2.66875e-16 0)
(-1 6.99487e-15 0)
(-1 1.17451e-14 0)
(-1 -7.33507e-15 0)
)
;

boundaryField
{
    movingWall
    {
        type            calculated;
        value           uniform (-1 -0 -0);
    }
    fixedWalls
    {
        type            calculated;
        value           uniform (-1 -0 -0);
    }
    frontAndBack
    {
        type            empty;
        value           nonuniform List<vector> 0();
    }
}


// ************************************************************************* //
