/*--------------------------------*- C++ -*----------------------------------*\
| =========                 |                                                 |
| \\      /  F ield         | OpenFOAM: The Open Source CFD Toolbox           |
|  \\    /   O peration     | Version:  2312                                  |
|   \\  /    A nd           | Website:  www.openfoam.com                      |
|    \\/     M anipulation  |                                                 |
\*---------------------------------------------------------------------------*/
FoamFile
{
    version     2.0;
    format      ascii;
    arch        "LSB;label=32;scalar=64";
    class       volScalarField;
    location    "3.5";
    object      turbulenceProperties:L;
}
// * * * * * * * * * * * * * * * * * * * * * * * * * * * * * * * * * * * * * //

dimensions      [0 1 0 0 0 0 0];

internalField   nonuniform List<scalar> 
400
(
0.00101869
0.00101868
0.00101869
0.00101868
0.00101869
0.00101868
0.00101869
0.00101868
0.00101869
0.00101868
0.00101869
0.00101869
0.00101869
0.00101869
0.00101869
0.00101869
0.00101869
0.00101869
0.00101869
0.00101869
0.00101633
0.00106082
0.00105675
0.0010551
0.00105178
0.00105007
0.00104682
0.00104506
0.00104186
0.00104008
0.00103692
0.00103511
0.00103199
0.00103015
0.00102709
0.00102521
0.00102219
0.00102029
0.00101877
0.00101635
0.00101431
0.00106782
0.00106287
0.00106084
0.00105682
0.00105471
0.0010508
0.00104864
0.00104483
0.00104262
0.00103888
0.00103664
0.00103298
0.00103072
0.0010271
0.00102484
0.00102127
0.00101899
0.0010172
0.00101433
0.00101325
0.00107341
0.0010679
0.00106555
0.00106105
0.00105866
0.00105427
0.00105182
0.00104754
0.00104504
0.00104086
0.00103833
0.00103422
0.00103167
0.00102763
0.00102506
0.00102109
0.00101851
0.00101652
0.0010133
0.00101277
0.00107685
0.00107088
0.00106846
0.00106362
0.00106109
0.0010564
0.00105381
0.00104922
0.0010466
0.0010421
0.00103945
0.00103503
0.00103236
0.00102803
0.00102532
0.00102109
0.00101834
0.00101623
0.00101281
0.00101252
0.00107867
0.00107259
0.00107001
0.00106504
0.00106242
0.00105757
0.00105489
0.00105016
0.00104744
0.00104281
0.00104004
0.00103553
0.00103273
0.0010283
0.00102547
0.00102113
0.00101827
0.0010161
0.00101258
0.00101241
0.0010797
0.00107345
0.00107088
0.0010658
0.00106314
0.00105821
0.00105548
0.00105067
0.0010479
0.00104319
0.00104039
0.00103578
0.00103295
0.00102843
0.00102557
0.00102115
0.00101824
0.00101604
0.00101246
0.00101233
0.0010803
0.00107396
0.00107139
0.00106624
0.00106355
0.00105858
0.00105581
0.00105098
0.00104815
0.00104343
0.00104057
0.00103594
0.00103306
0.00102851
0.00102561
0.00102115
0.00101822
0.001016
0.00101238
0.00101226
0.00108065
0.00107436
0.00107169
0.00106656
0.00106383
0.00105883
0.00105603
0.00105117
0.00104831
0.00104359
0.00104067
0.00103605
0.00103311
0.00102858
0.00102562
0.00102116
0.00101819
0.00101596
0.00101232
0.00101222
0.00108099
0.00107458
0.00107197
0.00106678
0.00106404
0.00105902
0.00105621
0.00105131
0.00104847
0.00104366
0.00104079
0.00103609
0.00103318
0.00102859
0.00102565
0.00102115
0.00101817
0.00101593
0.00101227
0.00101216
0.00108127
0.00107484
0.0010722
0.00106698
0.00106425
0.00105917
0.00105638
0.00105143
0.00104859
0.00104376
0.00104087
0.00103616
0.00103323
0.00102861
0.00102566
0.00102114
0.00101815
0.00101589
0.00101222
0.0010121
0.00108152
0.00107514
0.00107243
0.0010672
0.00106444
0.00105936
0.00105651
0.0010516
0.00104868
0.00104389
0.00104093
0.00103624
0.00103325
0.00102865
0.00102565
0.00102113
0.00101811
0.00101585
0.00101216
0.00101204
0.00108185
0.00107536
0.0010727
0.00106742
0.00106465
0.00105954
0.00105671
0.00105171
0.00104883
0.00104397
0.00104104
0.00103628
0.00103332
0.00102866
0.00102567
0.00102111
0.00101809
0.00101581
0.0010121
0.00101198
0.0010822
0.00107565
0.00107299
0.00106768
0.00106488
0.00105975
0.00105688
0.0010519
0.00104896
0.0010441
0.00104112
0.00103637
0.00103336
0.0010287
0.00102567
0.0010211
0.00101805
0.00101576
0.00101204
0.00101188
0.00108255
0.00107607
0.00107327
0.001068
0.00106515
0.00106
0.00105709
0.00105209
0.00104911
0.00104424
0.00104122
0.00103645
0.00103342
0.00102873
0.00102568
0.00102109
0.001018
0.00101571
0.00101196
0.00101179
0.00108301
0.00107645
0.00107368
0.00106831
0.00106548
0.00106027
0.00105736
0.00105229
0.00104933
0.00104436
0.00104138
0.00103653
0.00103349
0.00102875
0.00102569
0.00102106
0.00101796
0.00101565
0.00101187
0.00101169
0.00108356
0.00107686
0.00107413
0.00106869
0.00106584
0.00106056
0.00105765
0.00105252
0.00104955
0.00104454
0.00104153
0.00103662
0.00103358
0.00102878
0.00102571
0.00102102
0.0010179
0.00101557
0.00101176
0.00101154
0.00108404
0.00107738
0.00107454
0.00106909
0.00106619
0.0010609
0.00105791
0.00105279
0.00104973
0.00104474
0.00104163
0.00103675
0.00103362
0.00102883
0.00102568
0.00102099
0.00101781
0.00101547
0.00101162
0.00101141
0.00108255
0.00107609
0.00107342
0.00106816
0.00106536
0.00106024
0.00105733
0.00105234
0.00104934
0.00104446
0.00104138
0.00103659
0.00103346
0.00102874
0.00102556
0.0010209
0.00101768
0.00101534
0.00101148
0.00101138
0.00101136
0.0010114
0.00101135
0.0010114
0.00101135
0.0010114
0.00101136
0.00101139
0.00101137
0.00101138
0.00101137
0.00101138
0.00101137
0.00101138
0.00101137
0.00101138
0.00101137
0.00101138
0.00101138
)
;

boundaryField
{
    movingWall
    {
        type            calculated;
        value           nonuniform List<scalar> 
20
(
0.00101138
0.00101136
0.0010114
0.00101135
0.0010114
0.00101135
0.0010114
0.00101136
0.00101139
0.00101137
0.00101138
0.00101137
0.00101138
0.00101137
0.00101138
0.00101137
0.00101138
0.00101137
0.00101138
0.00101138
)
;
    }
    fixedWalls
    {
        type            calculated;
        value           nonuniform List<scalar> 
60
(
0.00101869
0.00101633
0.00101431
0.00101325
0.00101277
0.00101252
0.00101241
0.00101233
0.00101226
0.00101222
0.00101216
0.0010121
0.00101204
0.00101198
0.00101188
0.00101179
0.00101169
0.00101154
0.00101141
0.00101138
0.00101869
0.00101635
0.00101433
0.0010133
0.00101281
0.00101258
0.00101246
0.00101238
0.00101232
0.00101227
0.00101222
0.00101216
0.0010121
0.00101204
0.00101196
0.00101187
0.00101176
0.00101162
0.00101148
0.00101138
0.00101869
0.00101868
0.00101869
0.00101868
0.00101869
0.00101868
0.00101869
0.00101868
0.00101869
0.00101868
0.00101869
0.00101869
0.00101869
0.00101869
0.00101869
0.00101869
0.00101869
0.00101869
0.00101869
0.00101869
)
;
    }
    frontAndBack
    {
        type            empty;
    }
}


// ************************************************************************* //
