/*--------------------------------*- C++ -*----------------------------------*\
| =========                 |                                                 |
| \\      /  F ield         | OpenFOAM: The Open Source CFD Toolbox           |
|  \\    /   O peration     | Version:  2312                                  |
|   \\  /    A nd           | Website:  www.openfoam.com                      |
|    \\/     M anipulation  |                                                 |
\*---------------------------------------------------------------------------*/
FoamFile
{
    version     2.0;
    format      ascii;
    arch        "LSB;label=32;scalar=64";
    class       volScalarField;
    location    "3.5";
    object      turbulenceProperties:epsilon;
}
// * * * * * * * * * * * * * * * * * * * * * * * * * * * * * * * * * * * * * //

dimensions      [0 2 -3 0 0 0 0];

internalField   nonuniform List<scalar> 
400
(
4.11891e-05
4.1188e-05
4.11869e-05
4.11864e-05
4.11854e-05
4.1185e-05
4.11842e-05
4.11839e-05
4.11832e-05
4.11829e-05
4.11825e-05
4.11822e-05
4.11819e-05
4.11818e-05
4.11816e-05
4.11815e-05
4.11814e-05
4.11813e-05
4.11813e-05
4.11813e-05
6.49993e-05
6.22731e-05
6.24719e-05
6.25564e-05
6.27254e-05
6.28154e-05
6.29857e-05
6.30812e-05
6.32533e-05
6.3354e-05
6.35283e-05
6.36338e-05
6.38107e-05
6.39208e-05
6.41007e-05
6.42152e-05
6.43984e-05
6.45173e-05
6.46107e-05
6.47643e-05
0.000100945
9.58832e-05
9.62465e-05
9.64015e-05
9.67111e-05
9.68763e-05
9.71885e-05
9.73639e-05
9.76794e-05
9.78646e-05
9.81841e-05
9.83783e-05
9.87026e-05
9.89053e-05
9.92353e-05
9.9446e-05
9.9782e-05
0.000100001
0.000100172
0.000100454
0.000132413
0.000124985
0.000125505
0.000125729
0.000126174
0.000126413
0.000126864
0.000127119
0.000127574
0.000127845
0.000128307
0.000128592
0.000129062
0.00012936
0.000129839
0.00013015
0.000130639
0.000130963
0.000131213
0.000131627
0.000153567
0.000144424
0.000145056
0.000145326
0.000145869
0.00014616
0.000146709
0.000147021
0.000147576
0.000147908
0.000148472
0.000148822
0.000149396
0.000149764
0.000150349
0.000150734
0.000151332
0.000151734
0.000152039
0.000152549
0.000166073
0.000155878
0.000156576
0.000156876
0.000157477
0.0001578
0.000158408
0.000158754
0.00015937
0.000159739
0.000160364
0.000160755
0.000161391
0.000161802
0.000162452
0.000162882
0.000163546
0.000163995
0.000164335
0.000164904
0.00017329
0.00016248
0.000163217
0.000163534
0.000164168
0.00016451
0.000165152
0.000165519
0.000166169
0.00016656
0.000167221
0.000167635
0.000168309
0.000168744
0.000169432
0.000169888
0.000170591
0.000171068
0.000171428
0.000172031
0.000177738
0.000166548
0.000167309
0.000167636
0.000168291
0.000168644
0.000169307
0.000169686
0.000170359
0.000170763
0.000171446
0.000171874
0.000172571
0.000173021
0.000173732
0.000174205
0.000174932
0.000175427
0.000175799
0.000176423
0.000180885
0.000169424
0.000170202
0.000170536
0.000171206
0.000171567
0.000172245
0.000172633
0.000173321
0.000173734
0.000174433
0.000174872
0.000175584
0.000176046
0.000176773
0.000177257
0.000178001
0.000178508
0.000178889
0.000179528
0.000183494
0.000171811
0.000172602
0.000172942
0.000173625
0.000173992
0.000174683
0.000175078
0.000175778
0.0001762
0.000176912
0.000177359
0.000178084
0.000178555
0.000179296
0.00017979
0.000180547
0.000181065
0.000181453
0.000182104
0.000185972
0.000174077
0.000174881
0.000175227
0.000175921
0.000176295
0.000176997
0.000177399
0.000178112
0.000178541
0.000179265
0.00017972
0.000180458
0.000180937
0.000181691
0.000182194
0.000182965
0.000183492
0.000183887
0.00018455
0.000188548
0.000176431
0.000177249
0.000177601
0.000178306
0.000178687
0.000179402
0.000179811
0.000180536
0.000180973
0.00018171
0.000182173
0.000182924
0.000183412
0.00018418
0.000184692
0.000185477
0.000186014
0.000186416
0.000187091
0.000191368
0.000179009
0.000179842
0.0001802
0.000180919
0.000181307
0.000182035
0.000182452
0.000183191
0.000183636
0.000184387
0.00018486
0.000185625
0.000186124
0.000186906
0.000187429
0.000188228
0.000188777
0.000189187
0.000189876
0.000194556
0.000181921
0.000182772
0.000183137
0.000183871
0.000184267
0.00018501
0.000185437
0.000186191
0.000186646
0.000187413
0.000187896
0.000188678
0.000189187
0.000189986
0.000190521
0.000191338
0.000191899
0.000192318
0.000193022
0.000198239
0.000185282
0.000186152
0.000186527
0.000187278
0.000187683
0.000188444
0.000188881
0.000189653
0.00019012
0.000190905
0.0001914
0.000192201
0.000192723
0.000193541
0.000194091
0.000194927
0.000195503
0.000195932
0.000196654
0.000202571
0.000189234
0.000190127
0.000190512
0.000191284
0.000191701
0.000192482
0.000192931
0.000193725
0.000194205
0.000195012
0.000195521
0.000196345
0.000196882
0.000197724
0.000198289
0.00019915
0.000199743
0.000200184
0.000200927
0.000207717
0.000193928
0.000194849
0.000195246
0.000196042
0.000196472
0.000197278
0.000197742
0.000198561
0.000199057
0.00019989
0.000200417
0.000201267
0.000201823
0.000202691
0.000203277
0.000204165
0.000204779
0.000205235
0.000206003
0.000213617
0.000199313
0.000200264
0.000200675
0.000201498
0.000201943
0.000202778
0.000203258
0.000204105
0.00020462
0.000205482
0.000206029
0.000206909
0.000207487
0.000208386
0.000208995
0.000209915
0.000210554
0.000211026
0.000211823
0.000219336
0.000204919
0.000205852
0.000206256
0.000207069
0.000207513
0.000208339
0.000208824
0.000209666
0.000210189
0.000211051
0.000211611
0.000212495
0.000213091
0.000213999
0.00021463
0.000215566
0.000216233
0.000216715
0.000217539
0.000221327
0.000221318
0.000221313
0.000221309
0.000221305
0.000221302
0.000221299
0.000221296
0.000221294
0.000221292
0.00022129
0.00022129
0.000221288
0.000221288
0.000221287
0.000221287
0.000221287
0.000221287
0.000221287
0.000221287
)
;

boundaryField
{
    movingWall
    {
        type            epsilonWallFunction;
        blending        stepwise;
        value           nonuniform List<scalar> 
20
(
0.000221327
0.000221318
0.000221313
0.000221309
0.000221305
0.000221302
0.000221299
0.000221296
0.000221294
0.000221292
0.00022129
0.00022129
0.000221288
0.000221288
0.000221287
0.000221287
0.000221287
0.000221287
0.000221287
0.000221287
)
;
    }
    fixedWalls
    {
        type            epsilonWallFunction;
        blending        stepwise;
        value           nonuniform List<scalar> 
60
(
4.11891e-05
6.49993e-05
0.000100945
0.000132413
0.000153567
0.000166073
0.00017329
0.000177738
0.000180885
0.000183494
0.000185972
0.000188548
0.000191368
0.000194556
0.000198239
0.000202571
0.000207717
0.000213617
0.000219336
0.000221327
4.11813e-05
6.47643e-05
0.000100454
0.000131627
0.000152549
0.000164904
0.000172031
0.000176423
0.000179528
0.000182104
0.00018455
0.000187091
0.000189876
0.000193022
0.000196654
0.000200927
0.000206003
0.000211823
0.000217539
0.000221287
4.11891e-05
4.1188e-05
4.11869e-05
4.11864e-05
4.11854e-05
4.1185e-05
4.11842e-05
4.11839e-05
4.11832e-05
4.11829e-05
4.11825e-05
4.11822e-05
4.11819e-05
4.11818e-05
4.11816e-05
4.11815e-05
4.11814e-05
4.11813e-05
4.11813e-05
4.11813e-05
)
;
    }
    frontAndBack
    {
        type            empty;
    }
}


// ************************************************************************* //
