/*--------------------------------*- C++ -*----------------------------------*\
| =========                 |                                                 |
| \\      /  F ield         | OpenFOAM: The Open Source CFD Toolbox           |
|  \\    /   O peration     | Version:  2312                                  |
|   \\  /    A nd           | Website:  www.openfoam.com                      |
|    \\/     M anipulation  |                                                 |
\*---------------------------------------------------------------------------*/
FoamFile
{
    version     2.0;
    format      ascii;
    arch        "LSB;label=32;scalar=64";
    class       volScalarField;
    location    "3.5";
    object      turbulenceProperties:nuEff;
}
// * * * * * * * * * * * * * * * * * * * * * * * * * * * * * * * * * * * * * //

dimensions      [0 2 -1 0 0 0 0];

internalField   nonuniform List<scalar> 
400
(
1.35398e-05
1.35398e-05
1.35398e-05
1.35397e-05
1.35397e-05
1.35397e-05
1.35397e-05
1.35396e-05
1.35397e-05
1.35396e-05
1.35397e-05
1.35396e-05
1.35396e-05
1.35396e-05
1.35396e-05
1.35396e-05
1.35396e-05
1.35396e-05
1.35396e-05
1.35396e-05
1.41085e-05
1.42883e-05
1.4271e-05
1.4264e-05
1.42499e-05
1.42427e-05
1.4229e-05
1.42217e-05
1.42083e-05
1.42009e-05
1.41878e-05
1.41803e-05
1.41674e-05
1.41599e-05
1.41473e-05
1.41397e-05
1.41273e-05
1.41196e-05
1.41134e-05
1.41036e-05
1.47452e-05
1.49955e-05
1.49709e-05
1.49609e-05
1.49411e-05
1.49308e-05
1.49117e-05
1.49012e-05
1.48827e-05
1.4872e-05
1.4854e-05
1.48433e-05
1.48257e-05
1.4815e-05
1.47978e-05
1.4787e-05
1.47702e-05
1.47595e-05
1.47511e-05
1.47376e-05
1.51872e-05
1.54951e-05
1.5465e-05
1.54523e-05
1.5428e-05
1.54151e-05
1.53915e-05
1.53785e-05
1.53557e-05
1.53424e-05
1.53203e-05
1.5307e-05
1.52855e-05
1.52721e-05
1.52511e-05
1.52378e-05
1.52172e-05
1.5204e-05
1.51937e-05
1.51773e-05
1.54465e-05
1.5791e-05
1.57566e-05
1.57428e-05
1.57152e-05
1.5701e-05
1.56744e-05
1.56599e-05
1.56341e-05
1.56196e-05
1.55945e-05
1.55799e-05
1.55554e-05
1.55408e-05
1.55171e-05
1.55024e-05
1.54793e-05
1.54645e-05
1.54531e-05
1.54347e-05
1.55886e-05
1.59536e-05
1.59177e-05
1.59025e-05
1.58735e-05
1.58582e-05
1.583e-05
1.58146e-05
1.57873e-05
1.57717e-05
1.57453e-05
1.57296e-05
1.5704e-05
1.56882e-05
1.56632e-05
1.56475e-05
1.56232e-05
1.56074e-05
1.55954e-05
1.55759e-05
1.56676e-05
1.60442e-05
1.60066e-05
1.59914e-05
1.59612e-05
1.59454e-05
1.59164e-05
1.59004e-05
1.58722e-05
1.58562e-05
1.58288e-05
1.58128e-05
1.57862e-05
1.57701e-05
1.57442e-05
1.5728e-05
1.5703e-05
1.56867e-05
1.56742e-05
1.56542e-05
1.57151e-05
1.60987e-05
1.60603e-05
1.60448e-05
1.6014e-05
1.59979e-05
1.59684e-05
1.5952e-05
1.59235e-05
1.5907e-05
1.58793e-05
1.58627e-05
1.58358e-05
1.58193e-05
1.5793e-05
1.57765e-05
1.5751e-05
1.57344e-05
1.57217e-05
1.57014e-05
1.57481e-05
1.61363e-05
1.6098e-05
1.60818e-05
1.60509e-05
1.60345e-05
1.60046e-05
1.59879e-05
1.59591e-05
1.59422e-05
1.59144e-05
1.58974e-05
1.58704e-05
1.58533e-05
1.58271e-05
1.58101e-05
1.57845e-05
1.57675e-05
1.57548e-05
1.57342e-05
1.57753e-05
1.61675e-05
1.61282e-05
1.61124e-05
1.60809e-05
1.60644e-05
1.60342e-05
1.60175e-05
1.59882e-05
1.59714e-05
1.59429e-05
1.59261e-05
1.58985e-05
1.58816e-05
1.58548e-05
1.58378e-05
1.58119e-05
1.57948e-05
1.57819e-05
1.57611e-05
1.58007e-05
1.61966e-05
1.6157e-05
1.6141e-05
1.61091e-05
1.60926e-05
1.60619e-05
1.60452e-05
1.60155e-05
1.59986e-05
1.59699e-05
1.59529e-05
1.59251e-05
1.5908e-05
1.58809e-05
1.58638e-05
1.58376e-05
1.58204e-05
1.58074e-05
1.57863e-05
1.58269e-05
1.62264e-05
1.6187e-05
1.61703e-05
1.61383e-05
1.61215e-05
1.60907e-05
1.60735e-05
1.6044e-05
1.60265e-05
1.59979e-05
1.59803e-05
1.59525e-05
1.5935e-05
1.5908e-05
1.58905e-05
1.58642e-05
1.58467e-05
1.58336e-05
1.58124e-05
1.58554e-05
1.62591e-05
1.62188e-05
1.62023e-05
1.61699e-05
1.61529e-05
1.61217e-05
1.61046e-05
1.60743e-05
1.60571e-05
1.60278e-05
1.60104e-05
1.5982e-05
1.59646e-05
1.5937e-05
1.59196e-05
1.58928e-05
1.58753e-05
1.5862e-05
1.58406e-05
1.58872e-05
1.62956e-05
1.62546e-05
1.62381e-05
1.62052e-05
1.6188e-05
1.61566e-05
1.6139e-05
1.61087e-05
1.60909e-05
1.60617e-05
1.60438e-05
1.60153e-05
1.59975e-05
1.59698e-05
1.5952e-05
1.5925e-05
1.59072e-05
1.58938e-05
1.58721e-05
1.59234e-05
1.63369e-05
1.62961e-05
1.62786e-05
1.62459e-05
1.62281e-05
1.61964e-05
1.61784e-05
1.61479e-05
1.61297e-05
1.61002e-05
1.60819e-05
1.60532e-05
1.6035e-05
1.6007e-05
1.59889e-05
1.59618e-05
1.59436e-05
1.59301e-05
1.59081e-05
1.59655e-05
1.63853e-05
1.63437e-05
1.63262e-05
1.62925e-05
1.62748e-05
1.62424e-05
1.62244e-05
1.61931e-05
1.6175e-05
1.61445e-05
1.61264e-05
1.6097e-05
1.60787e-05
1.60502e-05
1.60319e-05
1.60043e-05
1.59859e-05
1.59722e-05
1.59499e-05
1.60148e-05
1.6442e-05
1.6399e-05
1.63817e-05
1.63472e-05
1.63293e-05
1.62961e-05
1.6278e-05
1.6246e-05
1.62277e-05
1.61967e-05
1.61783e-05
1.61483e-05
1.61299e-05
1.61007e-05
1.60822e-05
1.6054e-05
1.60354e-05
1.60214e-05
1.59987e-05
1.607e-05
1.65049e-05
1.64619e-05
1.64436e-05
1.64088e-05
1.63903e-05
1.63568e-05
1.6338e-05
1.63058e-05
1.62867e-05
1.62556e-05
1.62363e-05
1.62062e-05
1.6187e-05
1.61577e-05
1.61385e-05
1.611e-05
1.60909e-05
1.60767e-05
1.60536e-05
1.61227e-05
1.65533e-05
1.6511e-05
1.64938e-05
1.64598e-05
1.64418e-05
1.64091e-05
1.63906e-05
1.63589e-05
1.634e-05
1.63094e-05
1.62901e-05
1.62603e-05
1.62408e-05
1.62117e-05
1.61922e-05
1.61637e-05
1.61441e-05
1.61298e-05
1.61064e-05
1.61409e-05
1.61406e-05
1.61409e-05
1.61405e-05
1.61408e-05
1.61404e-05
1.61407e-05
1.61404e-05
1.61406e-05
1.61404e-05
1.61405e-05
1.61405e-05
1.61405e-05
1.61405e-05
1.61405e-05
1.61405e-05
1.61405e-05
1.61405e-05
1.61405e-05
1.61405e-05
)
;

boundaryField
{
    movingWall
    {
        type            calculated;
        value           uniform 1e-05;
    }
    fixedWalls
    {
        type            calculated;
        value           uniform 1e-05;
    }
    frontAndBack
    {
        type            empty;
    }
}


// ************************************************************************* //
