/*--------------------------------*- C++ -*----------------------------------*\
| =========                 |                                                 |
| \\      /  F ield         | OpenFOAM: The Open Source CFD Toolbox           |
|  \\    /   O peration     | Version:  2312                                  |
|   \\  /    A nd           | Website:  www.openfoam.com                      |
|    \\/     M anipulation  |                                                 |
\*---------------------------------------------------------------------------*/
FoamFile
{
    version     2.0;
    format      ascii;
    arch        "LSB;label=32;scalar=64";
    class       volSymmTensorField;
    location    "3.5";
    object      turbulenceProperties:R;
}
// * * * * * * * * * * * * * * * * * * * * * * * * * * * * * * * * * * * * * //

dimensions      [0 2 -2 0 0 0 0];

internalField   nonuniform List<symmTensor> 
400
(
(2.6833e-05 -5.50259e-11 -0 2.6833e-05 -0 2.6833e-05)
(2.68325e-05 7.41691e-11 -0 2.68325e-05 -0 2.68325e-05)
(2.68322e-05 -1.65911e-11 -0 2.68322e-05 -0 2.68322e-05)
(2.68317e-05 3.95935e-12 -0 2.68317e-05 -0 2.68317e-05)
(2.68315e-05 -8.83525e-13 -0 2.68315e-05 -0 2.68315e-05)
(2.68311e-05 2.0533e-13 -0 2.68311e-05 -0 2.68311e-05)
(2.6831e-05 -4.618e-14 -0 2.6831e-05 -0 2.6831e-05)
(2.68306e-05 1.08847e-14 -0 2.68306e-05 -0 2.68306e-05)
(2.68306e-05 -2.02854e-15 -0 2.68306e-05 -0 2.68306e-05)
(2.68302e-05 8.08488e-16 -0 2.68302e-05 -0 2.68302e-05)
(2.68302e-05 1.49796e-16 -0 2.68302e-05 -0 2.68302e-05)
(2.683e-05 2.8554e-16 -0 2.683e-05 -0 2.683e-05)
(2.683e-05 2.55313e-16 -0 2.683e-05 -0 2.683e-05)
(2.68298e-05 2.50508e-16 -0 2.68298e-05 -0 2.68298e-05)
(2.68298e-05 2.17e-16 -0 2.68298e-05 -0 2.68298e-05)
(2.68297e-05 1.64774e-16 -0 2.68297e-05 -0 2.68297e-05)
(2.68297e-05 1.10704e-16 -0 2.68297e-05 -0 2.68297e-05)
(2.68297e-05 7.9182e-17 -0 2.68297e-05 -0 2.68297e-05)
(2.68296e-05 6.34953e-17 -0 2.68296e-05 -0 2.68296e-05)
(2.68296e-05 -2.84339e-18 -0 2.68296e-05 -0 2.68296e-05)
(3.63149e-05 5.81591e-11 -0 3.63148e-05 -0 3.63148e-05)
(3.63147e-05 -9.04837e-11 -0 3.63147e-05 -0 3.63147e-05)
(3.62988e-05 1.98322e-11 -0 3.62988e-05 -0 3.62988e-05)
(3.62936e-05 -4.74308e-12 -0 3.62936e-05 -0 3.62936e-05)
(3.62828e-05 1.03914e-12 -0 3.62828e-05 -0 3.62828e-05)
(3.62779e-05 -2.37486e-13 -0 3.62779e-05 -0 3.62779e-05)
(3.62685e-05 5.32486e-14 -0 3.62685e-05 -0 3.62685e-05)
(3.62645e-05 -1.19952e-14 -0 3.62645e-05 -0 3.62645e-05)
(3.62563e-05 2.2552e-15 -0 3.62563e-05 -0 3.62563e-05)
(3.62533e-05 -7.78167e-16 -0 3.62533e-05 -0 3.62533e-05)
(3.62461e-05 -2.66826e-17 -0 3.62461e-05 -0 3.62461e-05)
(3.62441e-05 -1.06081e-16 -0 3.62441e-05 -0 3.62441e-05)
(3.62383e-05 -3.7584e-17 -0 3.62383e-05 -0 3.62383e-05)
(3.62369e-05 -1.54784e-17 -0 3.62369e-05 -0 3.62369e-05)
(3.62327e-05 -3.9887e-18 -0 3.62327e-05 -0 3.62327e-05)
(3.62317e-05 -1.33046e-17 -0 3.62317e-05 -0 3.62317e-05)
(3.62292e-05 -3.17976e-17 -0 3.62292e-05 -0 3.62292e-05)
(3.62287e-05 -2.11839e-17 -0 3.62287e-05 -0 3.62287e-05)
(3.62278e-05 4.53008e-18 -0 3.62278e-05 -0 3.62278e-05)
(3.62276e-05 -5.66003e-17 -0 3.62276e-05 -0 3.62276e-05)
(4.86359e-05 -7.13469e-11 -0 4.86359e-05 -0 4.86359e-05)
(4.86349e-05 1.10457e-10 -0 4.86349e-05 -0 4.86349e-05)
(4.86069e-05 -2.42521e-11 -0 4.86069e-05 -0 4.86069e-05)
(4.8597e-05 5.82076e-12 -0 4.85969e-05 -0 4.8597e-05)
(4.85779e-05 -1.27866e-12 -0 4.85779e-05 -0 4.85779e-05)
(4.85685e-05 2.91707e-13 -0 4.85685e-05 -0 4.85685e-05)
(4.85525e-05 -6.83613e-14 -0 4.85525e-05 -0 4.85525e-05)
(4.85442e-05 1.34497e-14 -0 4.85442e-05 -0 4.85442e-05)
(4.85309e-05 -3.92548e-15 -0 4.85309e-05 -0 4.85309e-05)
(4.85238e-05 3.36789e-16 -0 4.85238e-05 -0 4.85238e-05)
(4.85132e-05 -3.681e-16 -0 4.85132e-05 -0 4.85132e-05)
(4.85073e-05 -8.88127e-17 -0 4.85073e-05 -0 4.85073e-05)
(4.84991e-05 -6.14039e-17 -0 4.84991e-05 -0 4.84991e-05)
(4.84947e-05 -1.11514e-17 -0 4.84947e-05 -0 4.84947e-05)
(4.84886e-05 -2.62828e-19 -0 4.84886e-05 -0 4.84886e-05)
(4.84859e-05 -1.95747e-17 -0 4.84859e-05 -0 4.84859e-05)
(4.84821e-05 -5.22455e-17 -0 4.84821e-05 -0 4.84821e-05)
(4.84808e-05 -3.63904e-17 -0 4.84808e-05 -0 4.84808e-05)
(4.84794e-05 7.59058e-18 -0 4.84794e-05 -0 4.84794e-05)
(4.8479e-05 -1.05312e-16 -0 4.8479e-05 -0 4.8479e-05)
(5.82399e-05 8.52205e-11 -0 5.82398e-05 -0 5.82398e-05)
(5.82375e-05 -1.29242e-10 -0 5.82376e-05 -0 5.82376e-05)
(5.8199e-05 2.85118e-11 -0 5.8199e-05 -0 5.8199e-05)
(5.81827e-05 -6.85905e-12 -0 5.81827e-05 -0 5.81827e-05)
(5.81557e-05 1.48972e-12 -0 5.81557e-05 -0 5.81557e-05)
(5.81416e-05 -3.52094e-13 -0 5.81416e-05 -0 5.81416e-05)
(5.81183e-05 7.60858e-14 -0 5.81183e-05 -0 5.81183e-05)
(5.8106e-05 -1.8369e-14 -0 5.8106e-05 -0 5.8106e-05)
(5.80867e-05 3.15293e-15 -0 5.80867e-05 -0 5.80867e-05)
(5.80763e-05 -1.28449e-15 -0 5.80763e-05 -0 5.80763e-05)
(5.80606e-05 -7.59765e-17 -0 5.80606e-05 -0 5.80606e-05)
(5.80522e-05 -1.74122e-16 -0 5.80522e-05 -0 5.80522e-05)
(5.804e-05 -4.51858e-17 -0 5.804e-05 -0 5.804e-05)
(5.80338e-05 -9.1665e-19 -0 5.80338e-05 -0 5.80338e-05)
(5.80249e-05 1.38799e-17 -0 5.80249e-05 -0 5.80249e-05)
(5.80209e-05 -1.88375e-17 -0 5.80209e-05 -0 5.80209e-05)
(5.80155e-05 -7.42996e-17 -0 5.80155e-05 -0 5.80155e-05)
(5.80135e-05 -5.14297e-17 -0 5.80135e-05 -0 5.80135e-05)
(5.80116e-05 1.5981e-17 -0 5.80116e-05 -0 5.80116e-05)
(5.8011e-05 -1.538e-16 -0 5.8011e-05 -0 5.8011e-05)
(6.42678e-05 -1.00259e-10 -0 6.42679e-05 -0 6.42679e-05)
(6.42663e-05 1.45365e-10 -0 6.42662e-05 -0 6.42662e-05)
(6.42153e-05 -3.27992e-11 -0 6.42153e-05 -0 6.42153e-05)
(6.41982e-05 7.78887e-12 -0 6.41982e-05 -0 6.41982e-05)
(6.41632e-05 -1.74396e-12 -0 6.41632e-05 -0 6.41632e-05)
(6.4147e-05 4.01421e-13 -0 6.4147e-05 -0 6.4147e-05)
(6.41174e-05 -9.31871e-14 -0 6.41174e-05 -0 6.41174e-05)
(6.41035e-05 1.91526e-14 -0 6.41035e-05 -0 6.41035e-05)
(6.4078e-05 -5.32736e-15 -0 6.4078e-05 -0 6.4078e-05)
(6.4067e-05 5.93163e-16 -0 6.4067e-05 -0 6.4067e-05)
(6.40455e-05 -4.43783e-16 -0 6.40455e-05 -0 6.40455e-05)
(6.40374e-05 -6.04646e-17 -0 6.40374e-05 -0 6.40374e-05)
(6.40201e-05 -3.28328e-17 -0 6.40201e-05 -0 6.40201e-05)
(6.40145e-05 3.24758e-17 -0 6.40145e-05 -0 6.40145e-05)
(6.40018e-05 3.66885e-17 -0 6.40018e-05 -0 6.40018e-05)
(6.39983e-05 -1.21739e-17 -0 6.39983e-05 -0 6.39983e-05)
(6.39906e-05 -8.48621e-17 -0 6.39906e-05 -0 6.39906e-05)
(6.39887e-05 -5.84862e-17 -0 6.39887e-05 -0 6.39887e-05)
(6.39861e-05 2.4323e-17 -0 6.39861e-05 -0 6.39861e-05)
(6.39854e-05 -1.95332e-16 -0 6.39854e-05 -0 6.39854e-05)
(6.77002e-05 1.1378e-10 -0 6.77001e-05 -0 6.77001e-05)
(6.7697e-05 -1.57699e-10 -0 6.76971e-05 -0 6.76971e-05)
(6.76437e-05 3.63608e-11 -0 6.76437e-05 -0 6.76437e-05)
(6.76215e-05 -8.59325e-12 -0 6.76216e-05 -0 6.76216e-05)
(6.7584e-05 1.97016e-12 -0 6.7584e-05 -0 6.7584e-05)
(6.75652e-05 -4.59867e-13 -0 6.75652e-05 -0 6.75652e-05)
(6.75322e-05 1.04746e-13 -0 6.75322e-05 -0 6.75322e-05)
(6.75165e-05 -2.4519e-14 -0 6.75165e-05 -0 6.75165e-05)
(6.74882e-05 5.02927e-15 -0 6.74882e-05 -0 6.74882e-05)
(6.74755e-05 -1.48346e-15 -0 6.74755e-05 -0 6.74755e-05)
(6.74524e-05 1.37914e-16 -0 6.74524e-05 -0 6.74524e-05)
(6.74421e-05 -1.00004e-16 -0 6.74421e-05 -0 6.74421e-05)
(6.74242e-05 4.07052e-17 -0 6.74242e-05 -0 6.74242e-05)
(6.74166e-05 7.1439e-17 -0 6.74166e-05 -0 6.74166e-05)
(6.74035e-05 6.98506e-17 -0 6.74035e-05 -0 6.74035e-05)
(6.73987e-05 3.66568e-18 -0 6.73987e-05 -0 6.73987e-05)
(6.73908e-05 -9.03984e-17 -0 6.73908e-05 -0 6.73908e-05)
(6.73883e-05 -6.19172e-17 -0 6.73883e-05 -0 6.73883e-05)
(6.73856e-05 3.73849e-17 -0 6.73856e-05 -0 6.73856e-05)
(6.73848e-05 -2.26063e-16 -0 6.73848e-05 -0 6.73848e-05)
(6.96422e-05 -1.25176e-10 -0 6.96423e-05 -0 6.96423e-05)
(6.96399e-05 1.67946e-10 -0 6.96398e-05 -0 6.96398e-05)
(6.95801e-05 -3.92657e-11 -0 6.95801e-05 -0 6.95801e-05)
(6.95592e-05 9.27902e-12 -0 6.95591e-05 -0 6.95591e-05)
(6.95182e-05 -2.16522e-12 -0 6.95182e-05 -0 6.95182e-05)
(6.94985e-05 5.08593e-13 -0 6.94985e-05 -0 6.94985e-05)
(6.94636e-05 -1.19023e-13 -0 6.94636e-05 -0 6.94636e-05)
(6.94469e-05 2.7304e-14 -0 6.94469e-05 -0 6.94469e-05)
(6.94168e-05 -6.60896e-15 -0 6.94168e-05 -0 6.94168e-05)
(6.94036e-05 1.3906e-15 -0 6.94036e-05 -0 6.94036e-05)
(6.93783e-05 -3.46187e-16 -0 6.93783e-05 -0 6.93783e-05)
(6.93685e-05 1.23677e-16 -0 6.93685e-05 -0 6.93685e-05)
(6.93483e-05 7.70772e-17 -0 6.93483e-05 -0 6.93483e-05)
(6.93414e-05 1.29375e-16 -0 6.93414e-05 -0 6.93414e-05)
(6.93265e-05 1.05641e-16 -0 6.93265e-05 -0 6.93265e-05)
(6.93222e-05 2.30182e-17 -0 6.93222e-05 -0 6.93222e-05)
(6.93132e-05 -8.64056e-17 -0 6.93132e-05 -0 6.93132e-05)
(6.93109e-05 -5.8584e-17 -0 6.93109e-05 -0 6.93109e-05)
(6.93078e-05 5.01002e-17 -0 6.93078e-05 -0 6.93078e-05)
(6.9307e-05 -2.47705e-16 -0 6.9307e-05 -0 6.9307e-05)
(7.08256e-05 1.34285e-10 -0 7.08255e-05 -0 7.08255e-05)
(7.08231e-05 -1.76714e-10 -0 7.08232e-05 -0 7.08232e-05)
(7.0761e-05 4.16794e-11 -0 7.0761e-05 -0 7.0761e-05)
(7.07395e-05 -9.8412e-12 -0 7.07396e-05 -0 7.07396e-05)
(7.06966e-05 2.32216e-12 -0 7.06966e-05 -0 7.06966e-05)
(7.06764e-05 -5.47948e-13 -0 7.06764e-05 -0 7.06764e-05)
(7.06406e-05 1.29173e-13 -0 7.06406e-05 -0 7.06406e-05)
(7.06225e-05 -3.04236e-14 -0 7.06225e-05 -0 7.06225e-05)
(7.05927e-05 7.19812e-15 -0 7.05927e-05 -0 7.05927e-05)
(7.05776e-05 -1.60434e-15 -0 7.05776e-05 -0 7.05776e-05)
(7.05529e-05 5.12675e-16 -0 7.05529e-05 -0 7.05529e-05)
(7.05413e-05 4.74817e-17 -0 7.05413e-05 -0 7.05413e-05)
(7.05214e-05 1.8623e-16 -0 7.05214e-05 -0 7.05214e-05)
(7.05134e-05 1.74438e-16 -0 7.05134e-05 -0 7.05134e-05)
(7.04984e-05 1.47495e-16 -0 7.04984e-05 -0 7.04984e-05)
(7.04937e-05 4.76817e-17 -0 7.04937e-05 -0 7.04937e-05)
(7.04845e-05 -7.81992e-17 -0 7.04845e-05 -0 7.04845e-05)
(7.04821e-05 -5.19692e-17 -0 7.04821e-05 -0 7.04821e-05)
(7.04789e-05 6.43331e-17 -0 7.04789e-05 -0 7.04789e-05)
(7.0478e-05 -2.59306e-16 -0 7.0478e-05 -0 7.0478e-05)
(7.16556e-05 -1.42167e-10 -0 7.16557e-05 -0 7.16557e-05)
(7.16521e-05 1.84726e-10 -0 7.16519e-05 -0 7.1652e-05)
(7.15919e-05 -4.38074e-11 -0 7.15919e-05 -0 7.15919e-05)
(7.15667e-05 1.0344e-11 -0 7.15667e-05 -0 7.15667e-05)
(7.15247e-05 -2.45424e-12 -0 7.15247e-05 -0 7.15247e-05)
(7.15029e-05 5.82394e-13 -0 7.15029e-05 -0 7.15029e-05)
(7.14664e-05 -1.37254e-13 -0 7.14664e-05 -0 7.14664e-05)
(7.14477e-05 3.30421e-14 -0 7.14477e-05 -0 7.14477e-05)
(7.14173e-05 -7.50889e-15 -0 7.14173e-05 -0 7.14173e-05)
(7.1401e-05 2.07118e-15 -0 7.1401e-05 -0 7.1401e-05)
(7.13771e-05 -2.03055e-16 -0 7.13771e-05 -0 7.13771e-05)
(7.13636e-05 3.30987e-16 -0 7.13636e-05 -0 7.13636e-05)
(7.1345e-05 2.07523e-16 -0 7.1345e-05 -0 7.1345e-05)
(7.13347e-05 2.36792e-16 -0 7.13347e-05 -0 7.13347e-05)
(7.13217e-05 1.82455e-16 -0 7.13217e-05 -0 7.13217e-05)
(7.1315e-05 7.23346e-17 -0 7.1315e-05 -0 7.1315e-05)
(7.1307e-05 -6.5147e-17 -0 7.1307e-05 -0 7.1307e-05)
(7.13036e-05 -4.08588e-17 -0 7.13036e-05 -0 7.13036e-05)
(7.13008e-05 7.90126e-17 -0 7.13008e-05 -0 7.13008e-05)
(7.12998e-05 -2.62337e-16 -0 7.12998e-05 -0 7.12998e-05)
(7.23411e-05 1.49306e-10 -0 7.2341e-05 -0 7.2341e-05)
(7.23383e-05 -1.92351e-10 -0 7.23384e-05 -0 7.23384e-05)
(7.22732e-05 4.58003e-11 -0 7.22732e-05 -0 7.22732e-05)
(7.22508e-05 -1.08052e-11 -0 7.22508e-05 -0 7.22508e-05)
(7.22067e-05 2.57824e-12 -0 7.22067e-05 -0 7.22067e-05)
(7.21849e-05 -6.10783e-13 -0 7.21849e-05 -0 7.21849e-05)
(7.21477e-05 1.45736e-13 -0 7.21477e-05 -0 7.21477e-05)
(7.21289e-05 -3.43091e-14 -0 7.21289e-05 -0 7.21289e-05)
(7.2097e-05 8.61058e-15 -0 7.2097e-05 -0 7.2097e-05)
(7.20821e-05 -1.61956e-15 -0 7.20821e-05 -0 7.20821e-05)
(7.20552e-05 8.0242e-16 -0 7.20552e-05 -0 7.20552e-05)
(7.2044e-05 1.91232e-16 -0 7.2044e-05 -0 7.2044e-05)
(7.20229e-05 3.17646e-16 -0 7.20229e-05 -0 7.20229e-05)
(7.20146e-05 2.6946e-16 -0 7.20146e-05 -0 7.20146e-05)
(7.19993e-05 2.18712e-16 -0 7.19993e-05 -0 7.19993e-05)
(7.1994e-05 9.50975e-17 -0 7.1994e-05 -0 7.1994e-05)
(7.19847e-05 -5.00828e-17 -0 7.19847e-05 -0 7.19847e-05)
(7.19819e-05 -2.91465e-17 -0 7.19819e-05 -0 7.19819e-05)
(7.19788e-05 9.2925e-17 -0 7.19788e-05 -0 7.19788e-05)
(7.19778e-05 -2.57507e-16 -0 7.19778e-05 -0 7.19778e-05)
(7.29881e-05 -1.55886e-10 -0 7.29882e-05 -0 7.29882e-05)
(7.29855e-05 1.99573e-10 -0 7.29854e-05 -0 7.29854e-05)
(7.29196e-05 -4.7653e-11 -0 7.29196e-05 -0 7.29196e-05)
(7.28965e-05 1.12405e-11 -0 7.28965e-05 -0 7.28965e-05)
(7.28511e-05 -2.68755e-12 -0 7.28511e-05 -0 7.28511e-05)
(7.28297e-05 6.39607e-13 -0 7.28297e-05 -0 7.28297e-05)
(7.27908e-05 -1.5124e-13 -0 7.27908e-05 -0 7.27908e-05)
(7.27727e-05 3.70534e-14 -0 7.27727e-05 -0 7.27727e-05)
(7.27393e-05 -8.16443e-15 -0 7.27393e-05 -0 7.27393e-05)
(7.27248e-05 2.53163e-15 -0 7.27248e-05 -0 7.27248e-05)
(7.26973e-05 -8.83363e-17 -0 7.26973e-05 -0 7.26973e-05)
(7.26858e-05 4.85612e-16 -0 7.26858e-05 -0 7.26858e-05)
(7.26644e-05 3.09052e-16 -0 7.26644e-05 -0 7.26644e-05)
(7.2656e-05 3.17998e-16 -0 7.2656e-05 -0 7.2656e-05)
(7.26402e-05 2.41749e-16 -0 7.26402e-05 -0 7.26402e-05)
(7.2635e-05 1.1542e-16 -0 7.2635e-05 -0 7.2635e-05)
(7.26254e-05 -3.54872e-17 -0 7.26254e-05 -0 7.26254e-05)
(7.26227e-05 -1.6311e-17 -0 7.26227e-05 -0 7.26227e-05)
(7.26194e-05 1.06156e-16 -0 7.26194e-05 -0 7.26194e-05)
(7.26184e-05 -2.46229e-16 -0 7.26184e-05 -0 7.26184e-05)
(7.36575e-05 1.6211e-10 -0 7.36574e-05 -0 7.36574e-05)
(7.36535e-05 -2.06571e-10 -0 7.36536e-05 -0 7.36536e-05)
(7.35899e-05 4.94453e-11 -0 7.35899e-05 -0 7.35899e-05)
(7.35635e-05 -1.16547e-11 -0 7.35635e-05 -0 7.35635e-05)
(7.35185e-05 2.79626e-12 -0 7.35185e-05 -0 7.35185e-05)
(7.34959e-05 -6.6367e-13 -0 7.34959e-05 -0 7.34959e-05)
(7.34572e-05 1.59054e-13 -0 7.34572e-05 -0 7.34572e-05)
(7.3437e-05 -3.74721e-14 -0 7.3437e-05 -0 7.3437e-05)
(7.34059e-05 9.63353e-15 -0 7.34059e-05 -0 7.34059e-05)
(7.33881e-05 -1.65903e-15 -0 7.33881e-05 -0 7.33881e-05)
(7.33627e-05 9.97508e-16 -0 7.33627e-05 -0 7.33627e-05)
(7.33484e-05 2.88236e-16 -0 7.33484e-05 -0 7.33484e-05)
(7.33287e-05 4.05008e-16 -0 7.33287e-05 -0 7.33287e-05)
(7.3318e-05 3.30119e-16 -0 7.3318e-05 -0 7.3318e-05)
(7.3304e-05 2.65135e-16 -0 7.3304e-05 -0 7.3304e-05)
(7.32972e-05 1.31611e-16 -0 7.32972e-05 -0 7.32972e-05)
(7.32884e-05 -1.82285e-17 -0 7.32884e-05 -0 7.32884e-05)
(7.3285e-05 -3.81303e-18 -0 7.3285e-05 -0 7.3285e-05)
(7.3282e-05 1.15472e-16 -0 7.3282e-05 -0 7.3282e-05)
(7.32809e-05 -2.2912e-16 -0 7.32809e-05 -0 7.32809e-05)
(7.43874e-05 -1.67833e-10 -0 7.43875e-05 -0 7.43875e-05)
(7.43845e-05 2.13167e-10 -0 7.43844e-05 -0 7.43844e-05)
(7.43165e-05 -5.1097e-11 -0 7.43165e-05 -0 7.43165e-05)
(7.4292e-05 1.20434e-11 -0 7.4292e-05 -0 7.4292e-05)
(7.42452e-05 -2.89136e-12 -0 7.42452e-05 -0 7.42452e-05)
(7.42227e-05 6.88984e-13 -0 7.42227e-05 -0 7.42227e-05)
(7.41824e-05 -1.63189e-13 -0 7.41824e-05 -0 7.41824e-05)
(7.41634e-05 4.02923e-14 -0 7.41634e-05 -0 7.41634e-05)
(7.4129e-05 -8.75271e-15 -0 7.4129e-05 -0 7.4129e-05)
(7.41136e-05 2.85472e-15 -0 7.41136e-05 -0 7.41136e-05)
(7.40853e-05 -2.92982e-17 -0 7.40853e-05 -0 7.40853e-05)
(7.40732e-05 5.78751e-16 -0 7.40732e-05 -0 7.40732e-05)
(7.40509e-05 3.64167e-16 -0 7.40509e-05 -0 7.40509e-05)
(7.40423e-05 3.59591e-16 -0 7.40423e-05 -0 7.40423e-05)
(7.40257e-05 2.71902e-16 -0 7.40257e-05 -0 7.40257e-05)
(7.40204e-05 1.43861e-16 -0 7.40204e-05 -0 7.40204e-05)
(7.40103e-05 -7.00043e-18 -0 7.40103e-05 -0 7.40103e-05)
(7.40076e-05 6.90759e-18 -0 7.40076e-05 -0 7.40076e-05)
(7.40042e-05 1.23675e-16 -0 7.40042e-05 -0 7.40042e-05)
(7.40031e-05 -2.09064e-16 -0 7.40031e-05 -0 7.40031e-05)
(7.52082e-05 1.73295e-10 -0 7.52081e-05 -0 7.52081e-05)
(7.52052e-05 -2.19543e-10 -0 7.52053e-05 -0 7.52053e-05)
(7.51349e-05 5.26957e-11 -0 7.51349e-05 -0 7.51349e-05)
(7.51106e-05 -1.24154e-11 -0 7.51106e-05 -0 7.51106e-05)
(7.50625e-05 2.98745e-12 -0 7.50625e-05 -0 7.50625e-05)
(7.50391e-05 -7.09727e-13 -0 7.50391e-05 -0 7.50391e-05)
(7.49988e-05 1.70479e-13 -0 7.49988e-05 -0 7.49988e-05)
(7.49782e-05 -4.01525e-14 -0 7.49782e-05 -0 7.49782e-05)
(7.49448e-05 1.04524e-14 -0 7.49448e-05 -0 7.49448e-05)
(7.49271e-05 -1.72833e-15 -0 7.49271e-05 -0 7.49271e-05)
(7.49001e-05 1.11639e-15 -0 7.49001e-05 -0 7.49001e-05)
(7.48859e-05 3.29561e-16 -0 7.48859e-05 -0 7.48859e-05)
(7.48647e-05 4.4015e-16 -0 7.48647e-05 -0 7.48647e-05)
(7.48544e-05 3.47371e-16 -0 7.48544e-05 -0 7.48544e-05)
(7.48388e-05 2.77368e-16 -0 7.48388e-05 -0 7.48388e-05)
(7.48323e-05 1.47614e-16 -0 7.48323e-05 -0 7.48323e-05)
(7.48227e-05 8.35596e-18 -0 7.48227e-05 -0 7.48227e-05)
(7.48194e-05 1.6875e-17 -0 7.48194e-05 -0 7.48194e-05)
(7.48161e-05 1.25052e-16 -0 7.48161e-05 -0 7.48161e-05)
(7.4815e-05 -1.84283e-16 -0 7.4815e-05 -0 7.4815e-05)
(7.61495e-05 -1.78132e-10 -0 7.61496e-05 -0 7.61495e-05)
(7.61451e-05 2.25413e-10 -0 7.6145e-05 -0 7.6145e-05)
(7.60779e-05 -5.41468e-11 -0 7.60779e-05 -0 7.60779e-05)
(7.60481e-05 1.27546e-11 -0 7.60481e-05 -0 7.60481e-05)
(7.60024e-05 -3.06859e-12 -0 7.60024e-05 -0 7.60024e-05)
(7.59762e-05 7.31744e-13 -0 7.59762e-05 -0 7.59762e-05)
(7.5936e-05 -1.73322e-13 -0 7.5936e-05 -0 7.5936e-05)
(7.59138e-05 4.3017e-14 -0 7.59138e-05 -0 7.59138e-05)
(7.58803e-05 -9.25312e-15 -0 7.58803e-05 -0 7.58803e-05)
(7.58612e-05 3.08489e-15 -0 7.58612e-05 -0 7.58612e-05)
(7.58344e-05 -2.37696e-17 -0 7.58344e-05 -0 7.58344e-05)
(7.58191e-05 6.08753e-16 -0 7.58191e-05 -0 7.58191e-05)
(7.57978e-05 3.64907e-16 -0 7.57978e-05 -0 7.57978e-05)
(7.57869e-05 3.52134e-16 -0 7.57869e-05 -0 7.57869e-05)
(7.57712e-05 2.63883e-16 -0 7.57712e-05 -0 7.57712e-05)
(7.57642e-05 1.47428e-16 -0 7.57642e-05 -0 7.57642e-05)
(7.57551e-05 1.34651e-17 -0 7.57551e-05 -0 7.57551e-05)
(7.57512e-05 2.28338e-17 -0 7.57512e-05 -0 7.57512e-05)
(7.57481e-05 1.24575e-16 -0 7.57481e-05 -0 7.57481e-05)
(7.57468e-05 -1.57906e-16 -0 7.57468e-05 -0 7.57468e-05)
(7.72504e-05 1.82671e-10 -0 7.72503e-05 -0 7.72503e-05)
(7.72461e-05 -2.31065e-10 -0 7.72461e-05 -0 7.72461e-05)
(7.71757e-05 5.55294e-11 -0 7.71757e-05 -0 7.71757e-05)
(7.71472e-05 -1.30767e-11 -0 7.71472e-05 -0 7.71472e-05)
(7.7097e-05 3.1505e-12 -0 7.7097e-05 -0 7.7097e-05)
(7.70725e-05 -7.48216e-13 -0 7.70725e-05 -0 7.70725e-05)
(7.70298e-05 1.80094e-13 -0 7.70298e-05 -0 7.70298e-05)
(7.70084e-05 -4.22378e-14 -0 7.70084e-05 -0 7.70084e-05)
(7.69722e-05 1.11024e-14 -0 7.69722e-05 -0 7.69722e-05)
(7.69548e-05 -1.81774e-15 -0 7.69548e-05 -0 7.69548e-05)
(7.69241e-05 1.15122e-15 -0 7.69241e-05 -0 7.69241e-05)
(7.6911e-05 3.03414e-16 -0 7.6911e-05 -0 7.6911e-05)
(7.68871e-05 4.09597e-16 -0 7.68871e-05 -0 7.68871e-05)
(7.68771e-05 3.08568e-16 -0 7.68771e-05 -0 7.68771e-05)
(7.686e-05 2.44725e-16 -0 7.686e-05 -0 7.686e-05)
(7.68535e-05 1.3491e-16 -0 7.68535e-05 -0 7.68535e-05)
(7.68437e-05 2.01728e-17 -0 7.68437e-05 -0 7.68437e-05)
(7.68401e-05 2.50457e-17 -0 7.68401e-05 -0 7.68401e-05)
(7.68367e-05 1.13222e-16 -0 7.68367e-05 -0 7.68367e-05)
(7.68355e-05 -1.30418e-16 -0 7.68355e-05 -0 7.68355e-05)
(7.85478e-05 -1.86999e-10 -0 7.85478e-05 -0 7.85478e-05)
(7.85446e-05 2.36355e-10 -0 7.85445e-05 -0 7.85445e-05)
(7.84682e-05 -5.68182e-11 -0 7.84682e-05 -0 7.84682e-05)
(7.84414e-05 1.33826e-11 -0 7.84414e-05 -0 7.84414e-05)
(7.83887e-05 -3.22092e-12 -0 7.83887e-05 -0 7.83887e-05)
(7.83639e-05 7.69219e-13 -0 7.83639e-05 -0 7.83639e-05)
(7.83186e-05 -1.81689e-13 -0 7.83186e-05 -0 7.83186e-05)
(7.82976e-05 4.53509e-14 -0 7.82976e-05 -0 7.82976e-05)
(7.82594e-05 -9.71124e-15 -0 7.82594e-05 -0 7.82594e-05)
(7.8242e-05 3.18646e-15 -0 7.8242e-05 -0 7.8242e-05)
(7.82104e-05 -1.16802e-16 -0 7.82104e-05 -0 7.82104e-05)
(7.81971e-05 5.39129e-16 -0 7.81971e-05 -0 7.81971e-05)
(7.81717e-05 2.81642e-16 -0 7.81717e-05 -0 7.81717e-05)
(7.81625e-05 2.71649e-16 -0 7.81625e-05 -0 7.81625e-05)
(7.81437e-05 1.95588e-16 -0 7.81437e-05 -0 7.81437e-05)
(7.8138e-05 1.06395e-16 -0 7.8138e-05 -0 7.8138e-05)
(7.81266e-05 6.27197e-18 -0 7.81266e-05 -0 7.81266e-05)
(7.81236e-05 1.7208e-17 -0 7.81236e-05 -0 7.81236e-05)
(7.81198e-05 1.00525e-16 -0 7.81198e-05 -0 7.81198e-05)
(7.81186e-05 -1.01332e-16 -0 7.81186e-05 -0 7.81186e-05)
(8.00204e-05 1.90268e-10 -0 8.00204e-05 -0 8.00204e-05)
(8.00158e-05 -2.41132e-10 -0 8.00158e-05 -0 8.00158e-05)
(7.99408e-05 5.79636e-11 -0 7.99408e-05 -0 7.99408e-05)
(7.99094e-05 -1.36429e-11 -0 7.99094e-05 -0 7.99094e-05)
(7.98567e-05 3.29217e-12 -0 7.98567e-05 -0 7.98567e-05)
(7.98297e-05 -7.80471e-13 -0 7.98297e-05 -0 7.98297e-05)
(7.97842e-05 1.8861e-13 -0 7.97842e-05 -0 7.97842e-05)
(7.97603e-05 -4.40806e-14 -0 7.97603e-05 -0 7.97603e-05)
(7.97234e-05 1.15434e-14 -0 7.97234e-05 -0 7.97234e-05)
(7.97024e-05 -2.05306e-15 -0 7.97024e-05 -0 7.97024e-05)
(7.96725e-05 1.05197e-15 -0 7.96725e-05 -0 7.96725e-05)
(7.96555e-05 1.70397e-16 -0 7.96555e-05 -0 7.96555e-05)
(7.96324e-05 2.9721e-16 -0 7.96324e-05 -0 7.96324e-05)
(7.96199e-05 2.03706e-16 -0 7.96199e-05 -0 7.96199e-05)
(7.96031e-05 1.61127e-16 -0 7.96031e-05 -0 7.96031e-05)
(7.95952e-05 8.87709e-17 -0 7.95952e-05 -0 7.95952e-05)
(7.95847e-05 2.08705e-17 -0 7.95847e-05 -0 7.95847e-05)
(7.95808e-05 2.37642e-17 -0 7.95808e-05 -0 7.95808e-05)
(7.95772e-05 8.12109e-17 -0 7.95772e-05 -0 7.95772e-05)
(7.95759e-05 -7.31436e-17 -0 7.95759e-05 -0 7.95759e-05)
(8.14353e-05 -1.93521e-10 -0 8.14353e-05 -0 8.14353e-05)
(8.14343e-05 2.44563e-10 -0 8.14342e-05 -0 8.14342e-05)
(8.1356e-05 -5.87458e-11 -0 8.1356e-05 -0 8.1356e-05)
(8.13279e-05 1.38215e-11 -0 8.13279e-05 -0 8.13279e-05)
(8.12747e-05 -3.31705e-12 -0 8.12747e-05 -0 8.12747e-05)
(8.12483e-05 7.91829e-13 -0 8.12483e-05 -0 8.12483e-05)
(8.12026e-05 -1.86034e-13 -0 8.12026e-05 -0 8.12026e-05)
(8.11798e-05 4.60299e-14 -0 8.11798e-05 -0 8.11798e-05)
(8.11417e-05 -1.01156e-14 -0 8.11417e-05 -0 8.11417e-05)
(8.11217e-05 2.98735e-15 -0 8.11217e-05 -0 8.11217e-05)
(8.10912e-05 -3.01761e-16 -0 8.10912e-05 -0 8.10912e-05)
(8.10746e-05 3.93624e-16 -0 8.10746e-05 -0 8.10746e-05)
(8.1051e-05 1.65605e-16 -0 8.1051e-05 -0 8.1051e-05)
(8.10385e-05 1.77492e-16 -0 8.10385e-05 -0 8.10385e-05)
(8.10211e-05 1.32093e-16 -0 8.10211e-05 -0 8.10211e-05)
(8.10131e-05 9.19917e-17 -0 8.10131e-05 -0 8.10131e-05)
(8.10024e-05 3.56719e-17 -0 8.10024e-05 -0 8.10024e-05)
(8.09983e-05 2.2019e-17 -0 8.09983e-05 -0 8.09983e-05)
(8.09946e-05 5.80301e-17 -0 8.09946e-05 -0 8.09946e-05)
(8.09933e-05 -4.25535e-17 -0 8.09933e-05 -0 8.09933e-05)
(8.19258e-05 1.89983e-10 -0 8.19257e-05 -0 8.19257e-05)
(8.19222e-05 -2.29499e-10 -0 8.19222e-05 -0 8.19222e-05)
(8.19231e-05 5.5545e-11 -0 8.19231e-05 -0 8.19231e-05)
(8.19195e-05 -1.31344e-11 -0 8.19195e-05 -0 8.19195e-05)
(8.19213e-05 3.17113e-12 -0 8.19213e-05 -0 8.19213e-05)
(8.19178e-05 -7.63326e-13 -0 8.19178e-05 -0 8.19178e-05)
(8.19195e-05 1.7859e-13 -0 8.19195e-05 -0 8.19195e-05)
(8.19167e-05 -4.63134e-14 -0 8.19167e-05 -0 8.19167e-05)
(8.19179e-05 8.86094e-15 -0 8.19179e-05 -0 8.19179e-05)
(8.19163e-05 -3.69269e-15 -0 8.19163e-05 -0 8.19163e-05)
(8.19165e-05 -1.28358e-16 -0 8.19165e-05 -0 8.19165e-05)
(8.1916e-05 -5.93063e-16 -0 8.1916e-05 -0 8.1916e-05)
(8.19159e-05 -1.87268e-16 -0 8.19159e-05 -0 8.19159e-05)
(8.19157e-05 -7.83468e-17 -0 8.19157e-05 -0 8.19157e-05)
(8.19156e-05 2.68443e-17 -0 8.19156e-05 -0 8.19156e-05)
(8.19155e-05 4.41758e-17 -0 8.19155e-05 -0 8.19155e-05)
(8.19155e-05 9.55649e-18 -0 8.19155e-05 -0 8.19155e-05)
(8.19154e-05 2.9784e-17 -0 8.19154e-05 -0 8.19154e-05)
(8.19154e-05 1.06152e-16 -0 8.19154e-05 -0 8.19154e-05)
(8.19154e-05 1.94527e-17 -0 8.19154e-05 -0 8.19154e-05)
)
;

boundaryField
{
    movingWall
    {
        type            kqRWallFunction;
        value           nonuniform List<symmTensor> 
20
(
(8.19257e-05 0 -0 8.19257e-05 -0 8.19257e-05)
(8.19222e-05 -0 -0 8.19222e-05 -0 8.19222e-05)
(8.19231e-05 0 -0 8.19231e-05 -0 8.19231e-05)
(8.19195e-05 -0 -0 8.19195e-05 -0 8.19195e-05)
(8.19213e-05 0 -0 8.19213e-05 -0 8.19213e-05)
(8.19178e-05 -0 -0 8.19178e-05 -0 8.19178e-05)
(8.19195e-05 0 -0 8.19195e-05 -0 8.19195e-05)
(8.19167e-05 -0 -0 8.19167e-05 -0 8.19167e-05)
(8.19179e-05 0 -0 8.19179e-05 -0 8.19179e-05)
(8.19163e-05 -0 -0 8.19163e-05 -0 8.19163e-05)
(8.19165e-05 -0 -0 8.19165e-05 -0 8.19165e-05)
(8.1916e-05 -0 -0 8.1916e-05 -0 8.1916e-05)
(8.19159e-05 -0 -0 8.19159e-05 -0 8.19159e-05)
(8.19157e-05 -0 -0 8.19157e-05 -0 8.19157e-05)
(8.19156e-05 -0 -0 8.19156e-05 -0 8.19156e-05)
(8.19155e-05 0 -0 8.19155e-05 -0 8.19155e-05)
(8.19155e-05 -0 -0 8.19155e-05 -0 8.19155e-05)
(8.19154e-05 0 -0 8.19154e-05 -0 8.19154e-05)
(8.19154e-05 0 -0 8.19154e-05 -0 8.19154e-05)
(8.19154e-05 0 -0 8.19154e-05 -0 8.19154e-05)
)
;
    }
    fixedWalls
    {
        type            kqRWallFunction;
        value           nonuniform List<symmTensor> 
60
(
(2.6833e-05 -0 -0 2.6833e-05 -0 2.6833e-05)
(3.63148e-05 0 -0 3.63148e-05 -0 3.63148e-05)
(4.86359e-05 -0 -0 4.86359e-05 -0 4.86359e-05)
(5.82398e-05 0 -0 5.82398e-05 -0 5.82398e-05)
(6.42679e-05 -0 -0 6.42679e-05 -0 6.42679e-05)
(6.77001e-05 0 -0 6.77001e-05 -0 6.77001e-05)
(6.96423e-05 -0 -0 6.96423e-05 -0 6.96423e-05)
(7.08255e-05 0 -0 7.08255e-05 -0 7.08255e-05)
(7.16557e-05 -0 -0 7.16557e-05 -0 7.16557e-05)
(7.2341e-05 0 -0 7.2341e-05 -0 7.2341e-05)
(7.29882e-05 -0 -0 7.29882e-05 -0 7.29882e-05)
(7.36574e-05 0 -0 7.36574e-05 -0 7.36574e-05)
(7.43875e-05 -0 -0 7.43875e-05 -0 7.43875e-05)
(7.52081e-05 0 -0 7.52081e-05 -0 7.52081e-05)
(7.61495e-05 -0 -0 7.61495e-05 -0 7.61495e-05)
(7.72503e-05 0 -0 7.72503e-05 -0 7.72503e-05)
(7.85478e-05 -0 -0 7.85478e-05 -0 7.85478e-05)
(8.00204e-05 0 -0 8.00204e-05 -0 8.00204e-05)
(8.14353e-05 -0 -0 8.14353e-05 -0 8.14353e-05)
(8.19257e-05 0 -0 8.19257e-05 -0 8.19257e-05)
(2.68296e-05 -0 -0 2.68296e-05 -0 2.68296e-05)
(3.62276e-05 -0 -0 3.62276e-05 -0 3.62276e-05)
(4.8479e-05 -0 -0 4.8479e-05 -0 4.8479e-05)
(5.8011e-05 -0 -0 5.8011e-05 -0 5.8011e-05)
(6.39854e-05 -0 -0 6.39854e-05 -0 6.39854e-05)
(6.73848e-05 -0 -0 6.73848e-05 -0 6.73848e-05)
(6.9307e-05 -0 -0 6.9307e-05 -0 6.9307e-05)
(7.0478e-05 -0 -0 7.0478e-05 -0 7.0478e-05)
(7.12998e-05 -0 -0 7.12998e-05 -0 7.12998e-05)
(7.19778e-05 -0 -0 7.19778e-05 -0 7.19778e-05)
(7.26184e-05 -0 -0 7.26184e-05 -0 7.26184e-05)
(7.32809e-05 -0 -0 7.32809e-05 -0 7.32809e-05)
(7.40031e-05 -0 -0 7.40031e-05 -0 7.40031e-05)
(7.4815e-05 -0 -0 7.4815e-05 -0 7.4815e-05)
(7.57468e-05 -0 -0 7.57468e-05 -0 7.57468e-05)
(7.68355e-05 -0 -0 7.68355e-05 -0 7.68355e-05)
(7.81186e-05 -0 -0 7.81186e-05 -0 7.81186e-05)
(7.95759e-05 -0 -0 7.95759e-05 -0 7.95759e-05)
(8.09933e-05 -0 -0 8.09933e-05 -0 8.09933e-05)
(8.19154e-05 -0 -0 8.19154e-05 -0 8.19154e-05)
(2.6833e-05 -0 -0 2.6833e-05 -0 2.6833e-05)
(2.68325e-05 0 -0 2.68325e-05 -0 2.68325e-05)
(2.68322e-05 -0 -0 2.68322e-05 -0 2.68322e-05)
(2.68317e-05 0 -0 2.68317e-05 -0 2.68317e-05)
(2.68315e-05 -0 -0 2.68315e-05 -0 2.68315e-05)
(2.68311e-05 0 -0 2.68311e-05 -0 2.68311e-05)
(2.6831e-05 -0 -0 2.6831e-05 -0 2.6831e-05)
(2.68306e-05 0 -0 2.68306e-05 -0 2.68306e-05)
(2.68306e-05 -0 -0 2.68306e-05 -0 2.68306e-05)
(2.68302e-05 0 -0 2.68302e-05 -0 2.68302e-05)
(2.68302e-05 0 -0 2.68302e-05 -0 2.68302e-05)
(2.683e-05 0 -0 2.683e-05 -0 2.683e-05)
(2.683e-05 0 -0 2.683e-05 -0 2.683e-05)
(2.68298e-05 0 -0 2.68298e-05 -0 2.68298e-05)
(2.68298e-05 0 -0 2.68298e-05 -0 2.68298e-05)
(2.68297e-05 0 -0 2.68297e-05 -0 2.68297e-05)
(2.68297e-05 0 -0 2.68297e-05 -0 2.68297e-05)
(2.68297e-05 0 -0 2.68297e-05 -0 2.68297e-05)
(2.68296e-05 0 -0 2.68296e-05 -0 2.68296e-05)
(2.68296e-05 0 -0 2.68296e-05 -0 2.68296e-05)
)
;
    }
    frontAndBack
    {
        type            empty;
    }
}


// ************************************************************************* //
