/*--------------------------------*- C++ -*----------------------------------*\
| =========                 |                                                 |
| \\      /  F ield         | OpenFOAM: The Open Source CFD Toolbox           |
|  \\    /   O peration     | Version:  2312                                  |
|   \\  /    A nd           | Website:  www.openfoam.com                      |
|    \\/     M anipulation  |                                                 |
\*---------------------------------------------------------------------------*/
FoamFile
{
    version     2.0;
    format      ascii;
    arch        "LSB;label=32;scalar=64";
    class       volScalarField;
    location    "3.5";
    object      turbulenceProperties:I;
}
// * * * * * * * * * * * * * * * * * * * * * * * * * * * * * * * * * * * * * //

dimensions      [0 0 0 0 0 0 0];

internalField   nonuniform List<scalar> 
400
(
0.00518006
0.00518001
0.00517998
0.00517994
0.00517992
0.00517988
0.00517987
0.00517983
0.00517982
0.00517979
0.00517979
0.00517977
0.00517976
0.00517975
0.00517975
0.00517974
0.00517974
0.00517974
0.00517973
0.00517973
0.00602618
0.00602617
0.00602485
0.00602442
0.00602352
0.00602312
0.00602233
0.006022
0.00602132
0.00602107
0.00602048
0.00602031
0.00601983
0.00601971
0.00601936
0.00601928
0.00601907
0.00601903
0.00601896
0.00601894
0.00697394
0.00697387
0.00697186
0.00697115
0.00696978
0.00696911
0.00696796
0.00696736
0.00696641
0.0069659
0.00696514
0.00696472
0.00696413
0.00696381
0.00696338
0.00696318
0.00696291
0.00696281
0.00696272
0.00696269
0.0076315
0.00763136
0.00762883
0.00762776
0.00762599
0.00762506
0.00762354
0.00762273
0.00762146
0.00762078
0.00761975
0.0076192
0.0076184
0.00761799
0.00761741
0.00761715
0.00761679
0.00761666
0.00761654
0.00761649
0.00801673
0.00801662
0.00801344
0.00801238
0.00801019
0.00800918
0.00800733
0.00800646
0.00800487
0.00800419
0.00800284
0.00800234
0.00800126
0.00800091
0.00800011
0.00799989
0.00799941
0.0079993
0.00799913
0.00799909
0.00822801
0.00822782
0.00822458
0.00822323
0.00822095
0.0082198
0.0082178
0.00821684
0.00821512
0.00821435
0.00821294
0.00821231
0.00821123
0.00821076
0.00820996
0.00820967
0.00820919
0.00820904
0.00820887
0.00820882
0.0083452
0.00834505
0.00834147
0.00834021
0.00833776
0.00833658
0.00833448
0.00833348
0.00833167
0.00833088
0.00832936
0.00832877
0.00832757
0.00832715
0.00832625
0.00832599
0.00832545
0.00832532
0.00832513
0.00832508
0.00841579
0.00841565
0.00841195
0.00841068
0.00840813
0.00840693
0.0084048
0.00840372
0.00840195
0.00840105
0.00839958
0.00839889
0.0083977
0.00839723
0.00839633
0.00839605
0.0083955
0.00839536
0.00839517
0.00839512
0.00846497
0.00846475
0.0084612
0.00845971
0.00845723
0.00845594
0.00845378
0.00845267
0.00845088
0.00844991
0.0084485
0.0084477
0.0084466
0.00844599
0.00844522
0.00844482
0.00844435
0.00844415
0.00844398
0.00844392
0.00850535
0.0085052
0.00850137
0.00850005
0.00849745
0.00849617
0.00849398
0.00849288
0.00849099
0.00849012
0.00848854
0.00848788
0.00848663
0.00848614
0.00848524
0.00848492
0.00848438
0.00848422
0.00848403
0.00848397
0.00854331
0.00854315
0.0085393
0.00853794
0.00853528
0.00853403
0.00853175
0.00853069
0.00852873
0.00852788
0.00852627
0.0085256
0.00852434
0.00852385
0.00852292
0.00852261
0.00852205
0.00852189
0.0085217
0.00852164
0.00858239
0.00858216
0.00857845
0.00857692
0.00857429
0.00857297
0.00857072
0.00856954
0.00856773
0.00856668
0.0085652
0.00856437
0.00856322
0.0085626
0.00856177
0.00856138
0.00856086
0.00856067
0.00856049
0.00856043
0.00862482
0.00862464
0.0086207
0.00861928
0.00861656
0.00861526
0.00861292
0.00861182
0.00860982
0.00860893
0.00860728
0.00860658
0.00860528
0.00860478
0.00860382
0.00860351
0.00860293
0.00860277
0.00860257
0.00860251
0.00867226
0.0086721
0.00866804
0.00866664
0.00866386
0.00866251
0.00866018
0.00865899
0.00865707
0.00865604
0.00865448
0.00865367
0.00865244
0.00865184
0.00865094
0.00865057
0.00865001
0.00864982
0.00864963
0.00864957
0.00872637
0.00872611
0.00872226
0.00872056
0.00871793
0.00871643
0.00871412
0.00871285
0.00871093
0.00870984
0.0087083
0.00870741
0.0087062
0.00870557
0.00870467
0.00870426
0.00870374
0.00870352
0.00870334
0.00870327
0.00878922
0.00878898
0.00878497
0.00878335
0.00878049
0.00877909
0.00877666
0.00877544
0.00877338
0.00877239
0.00877064
0.00876989
0.00876853
0.00876796
0.00876698
0.00876661
0.00876605
0.00876585
0.00876566
0.00876559
0.00886272
0.00886254
0.00885823
0.00885672
0.00885374
0.00885234
0.00884978
0.00884859
0.00884643
0.00884545
0.00884366
0.00884291
0.00884148
0.00884095
0.00883989
0.00883957
0.00883893
0.00883876
0.00883854
0.00883848
0.00894541
0.00894515
0.00894096
0.00893921
0.00893626
0.00893475
0.0089322
0.00893086
0.0089288
0.00892762
0.00892595
0.008925
0.0089237
0.008923
0.00892206
0.00892161
0.00892103
0.00892081
0.0089206
0.00892053
0.00902415
0.00902409
0.00901976
0.0090182
0.00901525
0.00901378
0.00901125
0.00900998
0.00900787
0.00900676
0.00900507
0.00900415
0.00900283
0.00900214
0.00900117
0.00900073
0.00900013
0.00899991
0.0089997
0.00899963
0.00905128
0.00905109
0.00905114
0.00905094
0.00905104
0.00905084
0.00905094
0.00905079
0.00905085
0.00905076
0.00905078
0.00905075
0.00905074
0.00905073
0.00905072
0.00905072
0.00905072
0.00905072
0.00905071
0.00905071
)
;

boundaryField
{
    movingWall
    {
        type            calculated;
        value           nonuniform List<scalar> 
20
(
0.00905128
0.00905109
0.00905114
0.00905094
0.00905104
0.00905084
0.00905094
0.00905079
0.00905085
0.00905076
0.00905078
0.00905075
0.00905074
0.00905073
0.00905072
0.00905072
0.00905072
0.00905072
0.00905071
0.00905071
)
;
    }
    fixedWalls
    {
        type            calculated;
        value           nonuniform List<scalar> 
60
(
0.00518006
0.00602618
0.00697394
0.0076315
0.00801673
0.00822801
0.0083452
0.00841579
0.00846497
0.00850535
0.00854331
0.00858239
0.00862482
0.00867226
0.00872637
0.00878922
0.00886272
0.00894541
0.00902415
0.00905128
0.00517973
0.00601894
0.00696269
0.00761649
0.00799909
0.00820882
0.00832508
0.00839512
0.00844392
0.00848397
0.00852164
0.00856043
0.00860251
0.00864957
0.00870327
0.00876559
0.00883848
0.00892053
0.00899963
0.00905071
0.00518006
0.00518001
0.00517998
0.00517994
0.00517992
0.00517988
0.00517987
0.00517983
0.00517982
0.00517979
0.00517979
0.00517977
0.00517976
0.00517975
0.00517975
0.00517974
0.00517974
0.00517974
0.00517973
0.00517973
)
;
    }
    frontAndBack
    {
        type            empty;
    }
}


// ************************************************************************* //
