/*--------------------------------*- C++ -*----------------------------------*\
| =========                 |                                                 |
| \\      /  F ield         | OpenFOAM: The Open Source CFD Toolbox           |
|  \\    /   O peration     | Version:  2312                                  |
|   \\  /    A nd           | Website:  www.openfoam.com                      |
|    \\/     M anipulation  |                                                 |
\*---------------------------------------------------------------------------*/
FoamFile
{
    version     2.0;
    format      ascii;
    arch        "LSB;label=32;scalar=64";
    class       volScalarField;
    location    "3.5";
    object      turbulenceProperties:omega;
}
// * * * * * * * * * * * * * * * * * * * * * * * * * * * * * * * * * * * * * //

dimensions      [0 0 -1 0 0 0 0];

internalField   nonuniform List<scalar> 
400
(
11.3705
11.3704
11.3702
11.3703
11.3701
11.3702
11.37
11.37
11.3699
11.3699
11.3698
11.3699
11.3698
11.3698
11.3698
11.3698
11.3698
11.3698
11.3698
11.3698
13.2584
12.7024
12.7485
12.7676
12.8059
12.826
12.8641
12.885
12.9231
12.9447
12.9829
13.0052
13.0434
13.0665
13.1047
13.1285
13.1669
13.1913
13.2108
13.2423
15.3743
14.6036
14.6674
14.694
14.747
14.7751
14.8276
14.8569
14.9091
14.9395
14.9916
15.0231
15.0752
15.1075
15.1598
15.1928
15.2453
15.2792
15.3058
15.3491
16.8413
15.8972
15.974
16.0069
16.0711
16.1054
16.1693
16.2052
16.2687
16.3061
16.3695
16.4082
16.4716
16.5115
16.5751
16.616
16.6799
16.7219
16.7543
16.8074
17.6999
16.6464
16.7326
16.7683
16.84
16.8779
16.9491
16.9888
17.0598
17.101
17.172
17.2147
17.2858
17.3298
17.401
17.4465
17.5178
17.5648
17.601
17.6602
18.1708
17.0562
17.1461
17.1846
17.2599
17.3002
17.3753
17.4173
17.4922
17.536
17.6107
17.6562
17.7309
17.778
17.8529
17.9014
17.9765
18.0266
18.0647
18.1274
18.4318
17.2826
17.3759
17.4149
17.4927
17.5341
17.6113
17.6547
17.7318
17.7769
17.8539
17.9007
17.9778
18.0261
18.1034
18.1534
18.2308
18.2824
18.3217
18.3863
18.589
17.4193
17.5143
17.5538
17.6331
17.6751
17.7536
17.7979
17.876
17.9223
18.0003
18.0482
18.1264
18.1758
18.2544
18.3053
18.384
18.4367
18.4766
18.5424
18.699
17.5151
17.6103
17.6511
17.7308
17.7736
17.853
17.8979
17.9768
18.0238
18.1024
18.1514
18.23
18.2806
18.3595
18.4115
18.4908
18.5444
18.5847
18.6513
18.789
17.5933
17.6903
17.7307
17.8115
17.8546
17.9347
17.9799
18.0598
18.1069
18.1868
18.2356
18.3156
18.3661
18.4462
18.4985
18.5788
18.6327
18.6735
18.7407
18.8739
17.6673
17.765
17.8058
17.8874
17.9307
18.0118
18.0572
18.138
18.1853
18.266
18.3152
18.3959
18.4469
18.5277
18.5804
18.6615
18.7159
18.757
18.8249
18.9614
17.7438
17.8415
17.8833
17.9654
18.0093
18.0908
18.1371
18.2179
18.2664
18.3472
18.3975
18.4783
18.5304
18.6114
18.665
18.7465
18.8017
18.8431
18.9116
19.0562
17.8262
17.9255
17.9672
18.0502
18.0944
18.1769
18.2233
18.3055
18.3538
18.4359
18.4862
18.5683
18.6204
18.7028
18.7565
18.8391
18.8946
18.9365
19.0058
19.1622
17.9184
18.0191
18.061
18.145
18.1897
18.2729
18.3201
18.4027
18.4521
18.5346
18.5859
18.6685
18.7215
18.8044
18.8591
18.9423
18.9987
19.041
19.111
19.2836
18.0243
18.1249
18.1685
18.2526
18.2985
18.3824
18.4304
18.5138
18.5641
18.6473
18.6995
18.783
18.8368
18.9206
18.9761
19.0602
19.1175
19.1602
19.2311
19.4242
18.1464
18.2486
18.2923
18.3784
18.4243
18.5096
18.558
18.6431
18.6935
18.7787
18.8309
18.9161
18.9704
19.0557
19.1118
19.1972
19.2553
19.2986
19.3706
19.5886
18.289
18.3938
18.4375
18.5251
18.5717
18.6587
18.7076
18.7942
18.8453
18.9318
18.985
19.0717
19.1267
19.2136
19.2705
19.3575
19.4165
19.4606
19.5338
19.7743
18.4513
18.5567
18.6021
18.6907
18.7384
18.8265
18.8768
18.9642
19.017
19.1043
19.1593
19.2467
19.3035
19.3912
19.4498
19.538
19.5984
19.6432
19.7178
19.951
18.6398
18.7426
18.786
18.8723
18.919
19.005
19.0545
19.1404
19.1928
19.2788
19.3339
19.4203
19.4778
19.565
19.6247
19.7128
19.7748
19.8198
19.8954
20.0115
20.0116
20.0109
20.0114
20.0106
20.0112
20.0105
20.0109
20.0105
20.0107
20.0105
20.0105
20.0104
20.0104
20.0104
20.0104
20.0104
20.0104
20.0104
20.0104
)
;

boundaryField
{
    movingWall
    {
        type            calculated;
        value           nonuniform List<scalar> 
20
(
20.0115
20.0116
20.0109
20.0114
20.0106
20.0112
20.0105
20.0109
20.0105
20.0107
20.0105
20.0105
20.0104
20.0104
20.0104
20.0104
20.0104
20.0104
20.0104
20.0104
)
;
    }
    fixedWalls
    {
        type            calculated;
        value           nonuniform List<scalar> 
60
(
11.3705
13.2584
15.3743
16.8413
17.6999
18.1708
18.4318
18.589
18.699
18.789
18.8739
18.9614
19.0562
19.1622
19.2836
19.4242
19.5886
19.7743
19.951
20.0115
11.3698
13.2423
15.3491
16.8074
17.6602
18.1274
18.3863
18.5424
18.6513
18.7407
18.8249
18.9116
19.0058
19.111
19.2311
19.3706
19.5338
19.7178
19.8954
20.0104
11.3705
11.3704
11.3702
11.3703
11.3701
11.3702
11.37
11.37
11.3699
11.3699
11.3698
11.3699
11.3698
11.3698
11.3698
11.3698
11.3698
11.3698
11.3698
11.3698
)
;
    }
    frontAndBack
    {
        type            empty;
    }
}


// ************************************************************************* //
