/*--------------------------------*- C++ -*----------------------------------*\
| =========                 |                                                 |
| \\      /  F ield         | OpenFOAM: The Open Source CFD Toolbox           |
|  \\    /   O peration     | Version:  2312                                  |
|   \\  /    A nd           | Website:  www.openfoam.com                      |
|    \\/     M anipulation  |                                                 |
\*---------------------------------------------------------------------------*/
FoamFile
{
    version     2.0;
    format      ascii;
    arch        "LSB;label=32;scalar=64";
    class       volSymmTensorField;
    location    "3.5";
    object      turbulenceProperties:devReff;
}
// * * * * * * * * * * * * * * * * * * * * * * * * * * * * * * * * * * * * * //

dimensions      [0 2 -2 0 0 0 0];

internalField   nonuniform List<symmTensor> 
400
(
(-1.66719e-11 -2.10474e-10 -0 1.53097e-11 -0 1.36218e-12)
(1.43842e-11 2.837e-10 -0 -8.70686e-12 -0 -5.6773e-12)
(-2.48413e-12 -6.34613e-11 -0 1.57118e-12 -0 9.12953e-13)
(1.07027e-12 1.51448e-11 -0 -5.99512e-13 -0 -4.70755e-13)
(-1.64876e-13 -3.37954e-12 -0 9.73867e-14 -0 6.74894e-14)
(5.81152e-14 7.8541e-13 -0 -2.90649e-14 -0 -2.90503e-14)
(-1.69741e-14 -1.76643e-13 -0 1.01112e-14 -0 6.8629e-15)
(1.41016e-15 4.16357e-14 -0 2.2205e-16 -0 -1.63221e-15)
(-2.03323e-15 -7.75938e-15 -0 1.49531e-15 -0 5.37926e-16)
(-2.97032e-16 3.09259e-15 -0 4.02493e-16 -0 -1.05462e-16)
(-2.98291e-16 5.72989e-16 -0 2.47938e-16 -0 5.03526e-17)
(-1.06254e-16 1.09224e-15 -0 1.01676e-16 -0 4.57789e-18)
(-1.20415e-16 9.76609e-16 -0 1.04309e-16 -0 1.61061e-17)
(-1.99565e-16 9.58235e-16 -0 1.87009e-16 -0 1.25562e-17)
(-3.14377e-16 8.30062e-16 -0 3.02131e-16 -0 1.22458e-17)
(-3.87052e-16 6.3029e-16 -0 3.79222e-16 -0 7.83075e-18)
(-3.29271e-16 4.2346e-16 -0 3.3192e-16 -0 -2.64836e-18)
(-2.02977e-16 3.02885e-16 -0 2.07045e-16 -0 -4.06772e-18)
(-2.51372e-16 2.4288e-16 -0 2.31169e-16 -0 2.02022e-17)
(-2.89451e-16 -1.08765e-17 -0 2.83107e-16 -0 6.34399e-18)
(5.52249e-11 1.99717e-10 -0 -4.95076e-11 -0 -5.71733e-12)
(-4.98205e-11 -3.01483e-10 -0 2.99552e-11 -0 1.98652e-11)
(9.59169e-12 6.62672e-11 -0 -5.97987e-12 -0 -3.61182e-12)
(-4.1671e-12 -1.58667e-11 -0 2.35349e-12 -0 1.81361e-12)
(7.54118e-13 3.48421e-12 -0 -4.34265e-13 -0 -3.19854e-13)
(-2.87219e-13 -7.97236e-13 -0 1.60179e-13 -0 1.2704e-13)
(6.88056e-14 1.7916e-13 -0 -3.57031e-14 -0 -3.31024e-14)
(-2.03835e-14 -4.04084e-14 -0 1.17318e-14 -0 8.65166e-15)
(4.99017e-15 7.6141e-15 -0 -2.25797e-15 -0 -2.7322e-15)
(-1.78973e-15 -2.63053e-15 -0 1.05979e-15 -0 7.29939e-16)
(3.41954e-16 -9.03983e-17 -0 -1.57062e-16 -0 -1.84893e-16)
(-1.19252e-16 -3.59843e-16 -0 4.93992e-17 -0 6.98527e-17)
(3.20878e-18 -1.27769e-16 -0 2.03064e-18 -0 -5.23942e-18)
(-1.522e-16 -5.26869e-17 -0 1.36294e-16 -0 1.59064e-17)
(-2.76341e-16 -1.36063e-17 -0 2.65084e-16 -0 1.12563e-17)
(-3.55922e-16 -4.5444e-17 -0 3.53882e-16 -0 2.0399e-18)
(-3.12887e-16 -1.08839e-16 -0 3.20969e-16 -0 -8.08148e-18)
(-2.10766e-16 -7.26062e-17 -0 2.03386e-16 -0 7.38003e-18)
(-2.57391e-16 1.55429e-17 -0 2.36289e-16 -0 2.1102e-17)
(-2.84468e-16 -1.94527e-16 -0 2.80697e-16 -0 3.77091e-18)
(-9.54861e-11 -2.21703e-10 -0 8.45677e-11 -0 1.09184e-11)
(8.74842e-11 3.3157e-10 -0 -5.2602e-11 -0 -3.48823e-11)
(-1.69698e-11 -7.30401e-11 -0 1.06727e-11 -0 6.29716e-12)
(7.3093e-12 1.75541e-11 -0 -4.13279e-12 -0 -3.17651e-12)
(-1.36252e-12 -3.86645e-12 -0 8.10899e-13 -0 5.51616e-13)
(4.91962e-13 8.8331e-13 -0 -2.71215e-13 -0 -2.20747e-13)
(-1.30063e-13 -2.07541e-13 -0 7.28422e-14 -0 5.72204e-14)
(3.17717e-14 4.08915e-14 -0 -1.71283e-14 -0 -1.46434e-14)
(-1.06021e-14 -1.19651e-14 -0 5.75812e-15 -0 4.84396e-15)
(2.63054e-15 1.02806e-15 -0 -1.47268e-15 -0 -1.15786e-15)
(-5.45355e-16 -1.12644e-15 -0 1.85621e-16 -0 3.59734e-16)
(3.8202e-16 -2.72186e-16 -0 -2.94925e-16 -0 -8.70944e-17)
(3.60268e-17 -1.88647e-16 -0 -7.28573e-17 -0 3.68305e-17)
(-3.66849e-17 -3.43111e-17 -0 3.48199e-17 -0 1.86495e-18)
(-2.14019e-16 -8.10643e-19 -0 2.01019e-16 -0 1.3e-17)
(-3.14507e-16 -6.04657e-17 -0 3.05966e-16 -0 8.54115e-18)
(-2.76845e-16 -1.6177e-16 -0 2.83056e-16 -0 -6.2109e-18)
(-1.58919e-16 -1.12849e-16 -0 1.67417e-16 -0 -8.49789e-18)
(-2.32001e-16 2.35671e-17 -0 2.13709e-16 -0 1.82921e-17)
(-2.83022e-16 -3.276e-16 -0 2.75233e-16 -0 7.78872e-18)
(1.32735e-10 2.4951e-10 -0 -1.12053e-10 -0 -2.0682e-11)
(-1.25953e-10 -3.64438e-10 -0 7.52047e-11 -0 5.07483e-11)
(2.43114e-11 8.06831e-11 -0 -1.50248e-11 -0 -9.28665e-12)
(-1.06978e-11 -1.94392e-11 -0 6.06157e-12 -0 4.63625e-12)
(1.92973e-12 4.23424e-12 -0 -1.13842e-12 -0 -7.91306e-13)
(-7.30884e-13 -1.0023e-12 -0 4.0531e-13 -0 3.25574e-13)
(1.83623e-13 2.17206e-13 -0 -1.02094e-13 -0 -8.15283e-14)
(-4.73708e-14 -5.2522e-14 -0 2.56363e-14 -0 2.17345e-14)
(1.58358e-14 9.04e-15 -0 -8.82043e-15 -0 -7.01535e-15)
(-3.06386e-15 -3.68879e-15 -0 1.33288e-15 -0 1.73098e-15)
(1.62548e-15 -2.18781e-16 -0 -1.12068e-15 -0 -5.04796e-16)
(1.07724e-16 -5.0222e-16 -0 -2.56109e-16 -0 1.48384e-16)
(3.33059e-16 -1.30677e-16 -0 -3.00695e-16 -0 -3.23649e-17)
(4.0032e-17 -2.65532e-18 -0 -6.01942e-17 -0 2.01623e-17)
(-1.13503e-16 4.03124e-17 -0 1.03819e-16 -0 9.68444e-18)
(-2.15956e-16 -5.4802e-17 -0 2.17141e-16 -0 -1.1847e-18)
(-2.03233e-16 -2.16711e-16 -0 2.14258e-16 -0 -1.10249e-17)
(-1.51101e-16 -1.50257e-16 -0 1.4148e-16 -0 9.62019e-18)
(-2.11489e-16 4.67509e-17 -0 1.88236e-16 -0 2.32524e-17)
(-2.45896e-16 -4.50869e-16 -0 2.44964e-16 -0 9.31955e-19)
(-1.57713e-10 -2.84341e-10 -0 1.22285e-10 -0 3.54286e-11)
(1.57356e-10 3.96384e-10 -0 -9.15059e-11 -0 -6.58503e-11)
(-3.07214e-11 -8.97759e-11 -0 1.83155e-11 -0 1.24059e-11)
(1.37624e-11 2.13517e-11 -0 -7.72369e-12 -0 -6.03876e-12)
(-2.48225e-12 -4.79538e-12 -0 1.43705e-12 -0 1.0452e-12)
(9.73171e-13 1.10555e-12 -0 -5.41005e-13 -0 -4.32166e-13)
(-2.3464e-13 -2.5741e-13 -0 1.2861e-13 -0 1.0603e-13)
(6.68986e-14 5.29916e-14 -0 -3.76963e-14 -0 -2.92023e-14)
(-1.83477e-14 -1.47829e-14 -0 9.15925e-15 -0 9.18846e-15)
(6.1501e-15 1.64869e-15 -0 -3.85652e-15 -0 -2.29358e-15)
(-5.4512e-16 -1.23704e-15 -0 -1.26259e-16 -0 6.71379e-16)
(1.03782e-15 -1.68826e-16 -0 -8.49302e-16 -0 -1.8852e-16)
(3.09194e-16 -9.19331e-17 -0 -3.6288e-16 -0 5.36859e-17)
(2.26817e-16 9.10875e-17 -0 -2.16899e-16 -0 -9.91754e-18)
(-8.06751e-18 1.03188e-16 -0 -3.21217e-18 -0 1.12797e-17)
(-1.30216e-16 -3.42987e-17 -0 1.25129e-16 -0 5.08646e-18)
(-1.30179e-16 -2.39739e-16 -0 1.37845e-16 -0 -7.66533e-18)
(-6.20798e-17 -1.65516e-16 -0 7.21831e-17 -0 -1.01032e-17)
(-1.58505e-16 6.89273e-17 -0 1.41091e-16 -0 1.74144e-17)
(-2.20094e-16 -5.54746e-16 -0 2.14274e-16 -0 5.8196e-18)
(1.70002e-10 3.17372e-10 -0 -1.23124e-10 -0 -4.68775e-11)
(-1.75247e-10 -4.2258e-10 -0 9.88271e-11 -0 7.64196e-11)
(3.46998e-11 9.78047e-11 -0 -2.00335e-11 -0 -1.46664e-11)
(-1.55507e-11 -2.31518e-11 -0 8.52893e-12 -0 7.0218e-12)
(2.89838e-12 5.3245e-12 -0 -1.64803e-12 -0 -1.25035e-12)
(-1.11432e-12 -1.24487e-12 -0 6.0455e-13 -0 5.09771e-13)
(2.85146e-13 2.84412e-13 -0 -1.58544e-13 -0 -1.26601e-13)
(-7.35954e-14 -6.6687e-14 -0 3.87127e-14 -0 3.48827e-14)
(2.62401e-14 1.37195e-14 -0 -1.51053e-14 -0 -1.11348e-14)
(-4.37386e-15 -4.05366e-15 -0 1.64449e-15 -0 2.72937e-15)
(2.9123e-15 3.7796e-16 -0 -2.08007e-15 -0 -8.32236e-16)
(3.31556e-16 -2.74542e-16 -0 -5.53967e-16 -0 2.2241e-16)
(6.81951e-16 1.12068e-16 -0 -6.19002e-16 -0 -6.29486e-17)
(2.68176e-16 1.97031e-16 -0 -2.9142e-16 -0 2.32438e-17)
(1.11288e-16 1.93191e-16 -0 -1.16437e-16 -0 5.14948e-18)
(-7.39893e-18 1.01565e-17 -0 1.31014e-17 -0 -5.70242e-18)
(-2.84258e-17 -2.51157e-16 -0 4.49944e-17 -0 -1.65686e-17)
(-4.75468e-17 -1.72337e-16 -0 3.6714e-17 -0 1.08327e-17)
(-1.26104e-16 1.04199e-16 -0 1.02568e-16 -0 2.35361e-17)
(-1.60649e-16 -6.3149e-16 -0 1.63401e-16 -0 -2.75159e-18)
(-1.76982e-10 -3.46041e-10 -0 1.24927e-10 -0 5.20554e-11)
(1.84191e-10 4.45809e-10 -0 -1.02295e-10 -0 -8.18961e-11)
(-3.65869e-11 -1.04636e-10 -0 2.07262e-11 -0 1.58608e-11)
(1.64344e-11 2.47663e-11 -0 -8.88615e-12 -0 -7.5482e-12)
(-3.07595e-12 -5.79742e-12 -0 1.70349e-12 -0 1.37247e-12)
(1.2084e-12 1.36403e-12 -0 -6.51133e-13 -0 -5.57267e-13)
(-2.99618e-13 -3.20199e-13 -0 1.59848e-13 -0 1.39769e-13)
(8.7453e-14 7.35785e-14 -0 -4.83808e-14 -0 -3.90722e-14)
(-2.42371e-14 -1.78635e-14 -0 1.18386e-14 -0 1.23985e-14)
(8.39843e-15 3.76517e-15 -0 -5.26918e-15 -0 -3.12924e-15)
(-7.34882e-16 -9.40111e-16 -0 -1.88908e-16 -0 9.2379e-16)
(1.46299e-15 3.36443e-16 -0 -1.19442e-15 -0 -2.68576e-16)
(4.7866e-16 2.10287e-16 -0 -5.47406e-16 -0 6.8746e-17)
(4.37995e-16 3.53593e-16 -0 -4.18621e-16 -0 -1.93746e-17)
(1.90169e-16 2.89549e-16 -0 -2.0025e-16 -0 1.00812e-17)
(7.52338e-17 6.32032e-17 -0 -7.62897e-17 -0 1.05589e-18)
(4.36545e-17 -2.37915e-16 -0 -3.28284e-17 -0 -1.08261e-17)
(4.82674e-17 -1.61604e-16 -0 -3.70084e-17 -0 -1.1259e-17)
(-6.23615e-17 1.38394e-16 -0 4.74e-17 -0 1.49614e-17)
(-1.28434e-16 -6.85795e-16 -0 1.24484e-16 -0 3.94992e-18)
(1.77295e-10 3.6925e-10 -0 -1.24074e-10 -0 -5.32214e-11)
(-1.85003e-10 -4.6647e-10 -0 1.02039e-10 -0 8.29638e-11)
(3.6726e-11 1.10454e-10 -0 -2.06422e-11 -0 -1.60838e-11)
(-1.64932e-11 -2.61216e-11 -0 8.84188e-12 -0 7.6513e-12)
(3.0998e-12 6.18345e-12 -0 -1.70287e-12 -0 -1.39693e-12)
(-1.20346e-12 -1.46151e-12 -0 6.37703e-13 -0 5.65753e-13)
(3.09162e-13 3.45601e-13 -0 -1.666e-13 -0 -1.42562e-13)
(-8.17967e-14 -8.15383e-14 -0 4.20738e-14 -0 3.97229e-14)
(2.89593e-14 1.93498e-14 -0 -1.62383e-14 -0 -1.27211e-14)
(-5.08376e-15 -4.32036e-15 -0 1.91341e-15 -0 3.17035e-15)
(3.24378e-15 1.38467e-15 -0 -2.27557e-15 -0 -9.68209e-16)
(3.45708e-16 1.28471e-16 -0 -6.06284e-16 -0 2.60576e-16)
(8.10697e-16 5.05347e-16 -0 -7.3117e-16 -0 -7.95262e-17)
(3.88852e-16 4.74196e-16 -0 -4.13238e-16 -0 2.43866e-17)
(2.70768e-16 4.02104e-16 -0 -2.73565e-16 -0 2.79651e-18)
(1.76075e-16 1.30226e-16 -0 -1.65705e-16 -0 -1.0369e-17)
(1.32844e-16 -2.14174e-16 -0 -1.12846e-16 -0 -1.99979e-17)
(5.00863e-17 -1.42596e-16 -0 -6.26423e-17 -0 1.25559e-17)
(-2.98224e-17 1.76769e-16 -0 9.36045e-18 -0 2.04619e-17)
(-6.25989e-17 -7.14122e-16 -0 6.81693e-17 -0 -5.57038e-18)
(-1.74949e-10 -3.89495e-10 -0 1.22082e-10 -0 5.28671e-11)
(1.82688e-10 4.85765e-10 -0 -1.00456e-10 -0 -8.22317e-11)
(-3.63132e-11 -1.15646e-10 -0 2.03204e-11 -0 1.59928e-11)
(1.63139e-11 2.73522e-11 -0 -8.71649e-12 -0 -7.5974e-12)
(-3.06549e-12 -6.51026e-12 -0 1.6682e-12 -0 1.39729e-12)
(1.20438e-12 1.54751e-12 -0 -6.38585e-13 -0 -5.65799e-13)
(-3.00896e-13 -3.65836e-13 -0 1.57888e-13 -0 1.43008e-13)
(8.72231e-14 8.82231e-14 -0 -4.70402e-14 -0 -4.01829e-14)
(-2.48371e-14 -2.01096e-14 -0 1.20629e-14 -0 1.27742e-14)
(8.24978e-15 5.55673e-15 -0 -4.99494e-15 -0 -3.25484e-15)
(-9.08382e-16 -5.46376e-16 -0 -5.27575e-17 -0 9.6114e-16)
(1.40909e-15 8.92231e-16 -0 -1.1256e-15 -0 -2.83484e-16)
(4.6501e-16 5.61031e-16 -0 -5.35125e-16 -0 7.01152e-17)
(4.90354e-16 6.41336e-16 -0 -4.6764e-16 -0 -2.27141e-17)
(2.94908e-16 4.95568e-16 -0 -3.03248e-16 -0 8.33992e-18)
(2.19939e-16 1.96833e-16 -0 -2.17041e-16 -0 -2.89794e-18)
(1.77042e-16 -1.7777e-16 -0 -1.64123e-16 -0 -1.29189e-17)
(1.32523e-16 -1.11701e-16 -0 -1.223e-16 -0 -1.02223e-17)
(2.73065e-17 2.16311e-16 -0 -3.92398e-17 -0 1.19333e-17)
(-3.09913e-17 -7.19836e-16 -0 2.95704e-17 -0 1.42086e-18)
(1.68114e-10 4.07832e-10 -0 -1.17495e-10 -0 -5.06197e-11)
(-1.75332e-10 -5.04227e-10 -0 9.6359e-11 -0 7.89729e-11)
(3.47496e-11 1.20537e-10 -0 -1.94363e-11 -0 -1.53133e-11)
(-1.5626e-11 -2.84829e-11 -0 8.33397e-12 -0 7.29205e-12)
(2.92832e-12 6.81814e-12 -0 -1.59316e-12 -0 -1.33515e-12)
(-1.14295e-12 -1.61794e-12 -0 6.01701e-13 -0 5.41248e-13)
(2.91832e-13 3.87252e-13 -0 -1.5511e-13 -0 -1.36722e-13)
(-7.84994e-14 -9.13252e-14 -0 4.02652e-14 -0 3.82342e-14)
(2.70034e-14 2.29899e-14 -0 -1.47634e-14 -0 -1.224e-14)
(-5.21886e-15 -4.33178e-15 -0 2.14846e-15 -0 3.07041e-15)
(2.8485e-15 2.15263e-15 -0 -1.90892e-15 -0 -9.39582e-16)
(1.72129e-16 5.13926e-16 -0 -4.23687e-16 -0 2.51558e-16)
(6.96551e-16 8.56166e-16 -0 -6.16568e-16 -0 -7.99835e-17)
(3.64741e-16 7.27602e-16 -0 -3.87688e-16 -0 2.29469e-17)
(3.18384e-16 5.92273e-16 -0 -3.19616e-16 -0 1.23183e-18)
(2.76905e-16 2.57996e-16 -0 -2.62755e-16 -0 -1.41504e-17)
(2.34698e-16 -1.36256e-16 -0 -2.12248e-16 -0 -2.24503e-17)
(1.14259e-16 -7.94442e-17 -0 -1.27482e-16 -0 1.3223e-17)
(4.7469e-17 2.53642e-16 -0 -6.58496e-17 -0 1.83806e-17)
(3.03246e-17 -7.04485e-16 -0 -2.22008e-17 -0 -8.12381e-18)
(-1.59953e-10 -4.24621e-10 -0 1.11889e-10 -0 4.80637e-11)
(1.66765e-10 5.2164e-10 -0 -9.16069e-11 -0 -7.51584e-11)
(-3.30926e-11 -1.25049e-10 -0 1.84935e-11 -0 1.45991e-11)
(1.48754e-11 2.95447e-11 -0 -7.92775e-12 -0 -6.9476e-12)
(-2.7917e-12 -7.08679e-12 -0 1.51367e-12 -0 1.27803e-12)
(1.0962e-12 1.68942e-12 -0 -5.78333e-13 -0 -5.17867e-13)
(-2.7523e-13 -4.0073e-13 -0 1.44097e-13 -0 1.31133e-13)
(7.86752e-14 9.83473e-14 -0 -4.18421e-14 -0 -3.68332e-14)
(-2.31956e-14 -2.17368e-14 -0 1.14878e-14 -0 1.17078e-14)
(7.08442e-15 6.75198e-15 -0 -4.09095e-15 -0 -2.99347e-15)
(-1.15214e-15 -2.36306e-16 -0 2.69808e-16 -0 8.82329e-16)
(1.06114e-15 1.30137e-15 -0 -7.98252e-16 -0 -2.62885e-16)
(2.88305e-16 8.30654e-16 -0 -3.50426e-16 -0 6.21209e-17)
(3.91125e-16 8.56248e-16 -0 -3.70036e-16 -0 -2.10894e-17)
(2.88691e-16 6.52821e-16 -0 -2.95004e-16 -0 6.3132e-18)
(2.75522e-16 3.12255e-16 -0 -2.6897e-16 -0 -6.55178e-18)
(2.42594e-16 -9.62781e-17 -0 -2.28479e-16 -0 -1.4115e-17)
(1.73212e-16 -4.43349e-17 -0 -1.64608e-16 -0 -8.60432e-18)
(9.2597e-17 2.88951e-16 -0 -1.02073e-16 -0 9.47582e-18)
(5.43604e-17 -6.71763e-16 -0 -5.3095e-17 -0 -1.26531e-18)
(1.48324e-10 4.40322e-10 -0 -1.04078e-10 -0 -4.42458e-11)
(-1.54352e-10 -5.38338e-10 -0 8.48324e-11 -0 6.95196e-11)
(3.05342e-11 1.29364e-10 -0 -1.70796e-11 -0 -1.34546e-11)
(-1.3742e-11 -3.05432e-11 -0 7.32154e-12 -0 6.42044e-12)
(2.56827e-12 7.35167e-12 -0 -1.39413e-12 -0 -1.17414e-12)
(-1.00495e-12 -1.74783e-12 -0 5.28447e-13 -0 4.76504e-13)
(2.55397e-13 4.20197e-13 -0 -1.34946e-13 -0 -1.20451e-13)
(-6.9581e-14 -9.91698e-14 -0 3.59276e-14 -0 3.36534e-14)
(2.30544e-14 2.55725e-14 -0 -1.22922e-14 -0 -1.07622e-14)
(-5.07346e-15 -4.41194e-15 -0 2.36772e-15 -0 2.70574e-15)
(2.11303e-15 2.66061e-15 -0 -1.28435e-15 -0 -8.28673e-16)
(-1.31826e-16 7.70212e-16 -0 -8.71978e-17 -0 2.19023e-16)
(4.19861e-16 1.0854e-15 -0 -3.46793e-16 -0 -7.30684e-17)
(2.15352e-16 8.86347e-16 -0 -2.35478e-16 -0 2.01255e-17)
(2.54143e-16 7.13909e-16 -0 -2.55611e-16 -0 1.46769e-18)
(2.86809e-16 3.5504e-16 -0 -2.69535e-16 -0 -1.72739e-17)
(2.6995e-16 -4.9313e-17 -0 -2.44922e-16 -0 -2.50288e-17)
(1.3756e-16 -1.03347e-17 -0 -1.50558e-16 -0 1.29977e-17)
(9.78291e-17 3.13414e-16 -0 -1.13258e-16 -0 1.54284e-17)
(1.04696e-16 -6.23314e-16 -0 -9.53856e-17 -0 -9.31035e-18)
(-1.36018e-10 -4.54464e-10 -0 9.55618e-11 -0 4.04566e-11)
(1.41514e-10 5.53735e-10 -0 -7.77715e-11 -0 -6.37427e-11)
(-2.80334e-11 -1.33263e-10 -0 1.56761e-11 -0 1.23573e-11)
(1.26083e-11 3.14611e-11 -0 -6.71594e-12 -0 -5.89238e-12)
(-2.3627e-12 -7.57762e-12 -0 1.28013e-12 -0 1.08256e-12)
(9.26885e-13 1.80875e-12 -0 -4.88126e-13 -0 -4.38759e-13)
(-2.3374e-13 -4.29764e-13 -0 1.22479e-13 -0 1.11261e-13)
(6.57446e-14 1.06296e-13 -0 -3.45847e-14 -0 -3.116e-14)
(-2.01688e-14 -2.31621e-14 -0 1.02807e-14 -0 9.88808e-15)
(5.44829e-15 7.56777e-15 -0 -2.91015e-15 -0 -2.53814e-15)
(-1.41087e-15 -7.79033e-17 -0 6.67805e-16 -0 7.4306e-16)
(5.54714e-16 1.54166e-15 -0 -3.3003e-16 -0 -2.24684e-16)
(-2.81229e-19 9.72937e-16 -0 -4.9688e-17 -0 4.99692e-17)
(1.81466e-16 9.62464e-16 -0 -1.63014e-16 -0 -1.84515e-17)
(1.8324e-16 7.2988e-16 -0 -1.87642e-16 -0 4.40252e-18)
(2.45545e-16 3.86887e-16 -0 -2.35642e-16 -0 -9.90334e-18)
(2.40261e-16 -1.888e-17 -0 -2.25502e-16 -0 -1.47588e-17)
(1.61466e-16 1.86646e-17 -0 -1.56837e-16 -0 -4.62955e-18)
(1.25014e-16 3.34653e-16 -0 -1.31364e-16 -0 6.35014e-18)
(1.25473e-16 -5.67014e-16 -0 -1.22139e-16 -0 -3.33452e-18)
(1.21082e-10 4.67653e-10 -0 -8.53514e-11 -0 -3.57304e-11)
(-1.25725e-10 -5.68264e-10 -0 6.91409e-11 -0 5.65839e-11)
(2.48238e-11 1.36947e-10 -0 -1.38967e-11 -0 -1.09271e-11)
(-1.11807e-11 -3.23181e-11 -0 5.95525e-12 -0 5.22546e-12)
(2.08495e-12 7.80185e-12 -0 -1.13088e-12 -0 -9.54072e-13)
(-8.16736e-13 -1.85666e-12 -0 4.2935e-13 -0 3.87386e-13)
(2.068e-13 4.47387e-13 -0 -1.08797e-13 -0 -9.80027e-14)
(-5.70402e-14 -1.05558e-13 -0 2.97412e-14 -0 2.72991e-14)
(1.79635e-14 2.7563e-14 -0 -9.2491e-15 -0 -8.71443e-15)
(-4.71158e-15 -4.56586e-15 -0 2.51898e-15 -0 2.19261e-15)
(1.19893e-15 2.95811e-15 -0 -5.2411e-16 -0 -6.74822e-16)
(-5.08712e-16 8.74851e-16 -0 3.34683e-16 -0 1.74029e-16)
(4.44706e-17 1.17186e-15 -0 1.87147e-17 -0 -6.31853e-17)
(-1.87381e-17 9.26567e-16 -0 2.78719e-18 -0 1.59509e-17)
(1.10869e-16 7.4199e-16 -0 -1.11792e-16 -0 9.22608e-19)
(2.20549e-16 3.95622e-16 -0 -2.01561e-16 -0 -1.89886e-17)
(2.32689e-16 2.24588e-17 -0 -2.08116e-16 -0 -2.45733e-17)
(1.04621e-16 4.54419e-17 -0 -1.16973e-16 -0 1.23517e-17)
(1.12654e-16 3.37228e-16 -0 -1.23639e-16 -0 1.09846e-17)
(1.6816e-16 -4.98109e-16 -0 -1.59071e-16 -0 -9.08906e-18)
(-1.05792e-10 -4.78859e-10 -0 7.46569e-11 -0 3.11356e-11)
(1.09827e-10 5.8113e-10 -0 -6.03797e-11 -0 -4.94474e-11)
(-2.17102e-11 -1.40147e-10 -0 1.21456e-11 -0 9.5646e-12)
(9.77376e-12 3.3069e-11 -0 -5.20306e-12 -0 -4.57069e-12)
(-1.82733e-12 -7.98158e-12 -0 9.88707e-13 -0 8.3862e-13)
(7.16284e-13 1.90665e-12 -0 -3.76543e-13 -0 -3.39741e-13)
(-1.81522e-13 -4.53036e-13 -0 9.51824e-14 -0 8.63391e-14)
(4.98884e-14 1.12641e-13 -0 -2.58279e-14 -0 -2.40605e-14)
(-1.62548e-14 -2.43041e-14 -0 8.6416e-15 -0 7.61322e-15)
(3.50278e-15 8.1176e-15 -0 -1.53361e-15 -0 -1.96917e-15)
(-1.67549e-15 -6.27352e-17 -0 1.10703e-15 -0 5.68458e-16)
(-4.87081e-17 1.60968e-15 -0 2.25571e-16 -0 -1.76863e-16)
(-3.54325e-16 9.67741e-16 -0 3.1878e-16 -0 3.55449e-17)
(-9.98453e-17 9.35618e-16 -0 1.14503e-16 -0 -1.46578e-17)
(1.02989e-17 7.03173e-16 -0 -1.36559e-17 -0 3.35699e-18)
(1.52043e-16 3.93595e-16 -0 -1.37668e-16 -0 -1.4375e-17)
(1.78373e-16 3.60507e-17 -0 -1.61191e-16 -0 -1.7182e-17)
(9.14215e-17 6.12513e-17 -0 -9.12267e-17 -0 -1.94799e-19)
(1.16138e-16 3.34648e-16 -0 -1.18284e-16 -0 2.14613e-18)
(1.87045e-16 -4.25175e-16 -0 -1.8264e-16 -0 -4.40426e-18)
(8.89106e-11 4.88883e-10 -0 -6.29332e-11 -0 -2.59774e-11)
(-9.215e-11 -5.92938e-10 -0 5.07079e-11 -0 4.14421e-11)
(1.8163e-11 1.43064e-10 -0 -1.01775e-11 -0 -7.98545e-12)
(-8.18338e-12 -3.37475e-11 -0 4.35683e-12 -0 3.82655e-12)
(1.52436e-12 8.15728e-12 -0 -8.26682e-13 -0 -6.97682e-13)
(-5.96758e-13 -1.94063e-12 -0 3.13628e-13 -0 2.83129e-13)
(1.50341e-13 4.68595e-13 -0 -7.85632e-14 -0 -7.17775e-14)
(-4.24474e-14 -1.10096e-13 -0 2.26049e-14 -0 1.98425e-14)
(1.2049e-14 2.90295e-14 -0 -5.6926e-15 -0 -6.35643e-15)
(-4.30232e-15 -4.76145e-15 -0 2.72712e-15 -0 1.5752e-15)
(1.37783e-16 3.02479e-15 -0 3.7033e-16 -0 -5.08113e-16)
(-9.46795e-16 7.98668e-16 -0 8.34914e-16 -0 1.11881e-16)
(-3.98007e-16 1.0814e-15 -0 4.56565e-16 -0 -5.85582e-17)
(-3.07693e-16 8.16187e-16 -0 3.04215e-16 -0 3.47832e-18)
(-9.00832e-17 6.49219e-16 -0 9.48984e-17 -0 -4.81524e-18)
(9.84565e-17 3.58572e-16 -0 -7.43712e-17 -0 -2.40853e-17)
(1.49291e-16 5.377e-17 -0 -1.23328e-16 -0 -2.59633e-17)
(3.08985e-17 6.6887e-17 -0 -4.27318e-17 -0 1.18333e-17)
(9.25795e-17 3.02804e-16 -0 -9.94394e-17 -0 6.85992e-18)
(2.1474e-16 -3.49611e-16 -0 -2.07266e-16 -0 -7.474e-18)
(-7.21008e-11 -4.97897e-10 -0 5.10479e-11 -0 2.10529e-11)
(7.4772e-11 6.03254e-10 -0 -4.11197e-11 -0 -3.36523e-11)
(-1.47631e-11 -1.4561e-10 -0 8.25659e-12 -0 6.5065e-12)
(6.65348e-12 3.43531e-11 -0 -3.54389e-12 -0 -3.10959e-12)
(-1.24414e-12 -8.29547e-12 -0 6.72774e-13 -0 5.71367e-13)
(4.85657e-13 1.98455e-12 -0 -2.54992e-13 -0 -2.30665e-13)
(-1.25058e-13 -4.70261e-13 -0 6.62695e-14 -0 5.87882e-14)
(3.23846e-14 1.17589e-13 -0 -1.6074e-14 -0 -1.63107e-14)
(-1.22665e-14 -2.52591e-14 -0 7.16554e-15 -0 5.10093e-15)
(1.28902e-15 8.30306e-15 -0 5.57994e-17 -0 -1.34482e-15)
(-2.01133e-15 -3.05292e-16 -0 1.63267e-15 -0 3.78657e-16)
(-7.02228e-16 1.41174e-15 -0 8.21231e-16 -0 -1.19003e-16)
(-7.30406e-16 7.39726e-16 -0 7.05343e-16 -0 2.50632e-17)
(-3.98535e-16 7.14806e-16 -0 4.01841e-16 -0 -3.30576e-18)
(-1.79813e-16 5.16188e-16 -0 1.70225e-16 -0 9.5884e-18)
(3.94016e-17 2.81323e-16 -0 -3.1725e-17 -0 -7.67658e-18)
(9.8225e-17 1.6632e-17 -0 -8.94045e-17 -0 -8.82046e-18)
(1.23193e-17 4.57199e-17 -0 -2.20308e-17 -0 9.71146e-18)
(9.49631e-17 2.67473e-16 -0 -9.69946e-17 -0 2.0315e-18)
(2.28646e-16 -2.70253e-16 -0 -2.21387e-16 -0 -7.25829e-18)
(5.35375e-11 5.03722e-10 -0 -3.80928e-11 -0 -1.54447e-11)
(-5.53138e-11 -6.11824e-10 -0 3.04271e-11 -0 2.48867e-11)
(1.08524e-11 1.47665e-10 -0 -6.07487e-12 -0 -4.77751e-12)
(-4.89044e-12 -3.48156e-11 -0 2.59157e-12 -0 2.29887e-12)
(9.0634e-13 8.42911e-12 -0 -4.86393e-13 -0 -4.19947e-13)
(-3.5648e-13 -2.0018e-12 -0 1.86692e-13 -0 1.69788e-13)
(8.68408e-14 4.85316e-13 -0 -4.33965e-14 -0 -4.34443e-14)
(-2.71068e-14 -1.13631e-13 -0 1.52391e-14 -0 1.18677e-14)
(5.2892e-15 2.98494e-14 -0 -1.50033e-15 -0 -3.78887e-15)
(-3.92606e-15 -5.3188e-15 -0 2.95466e-15 -0 9.71395e-16)
(-9.89601e-16 2.73361e-15 -0 1.27775e-15 -0 -2.88152e-16)
(-1.35376e-15 4.43629e-16 -0 1.27372e-15 -0 8.00403e-17)
(-8.05429e-16 7.76102e-16 -0 8.3335e-16 -0 -2.79212e-17)
(-5.61924e-16 5.32957e-16 -0 5.49965e-16 -0 1.1959e-17)
(-2.688e-16 4.22797e-16 -0 2.61689e-16 -0 7.11096e-18)
(-1.80397e-17 2.33384e-16 -0 3.34549e-17 -0 -1.54151e-17)
(7.17973e-17 5.50285e-17 -0 -4.49088e-17 -0 -2.68885e-17)
(-7.89611e-18 6.27805e-17 -0 4.45249e-18 -0 3.44362e-18)
(1.04758e-16 2.14854e-16 -0 -1.08421e-16 -0 3.66218e-18)
(2.45853e-16 -1.9397e-16 -0 -2.38458e-16 -0 -7.39531e-18)
(-3.77896e-11 -5.09594e-10 -0 2.71751e-11 -0 1.06145e-11)
(3.95655e-11 6.17757e-10 -0 -2.25995e-11 -0 -1.6966e-11)
(-7.91095e-12 -1.48971e-10 -0 4.64419e-12 -0 3.26675e-12)
(3.49947e-12 3.51058e-11 -0 -1.94817e-12 -0 -1.5513e-12)
(-6.7809e-13 -8.45194e-12 -0 3.98634e-13 -0 2.79456e-13)
(2.46192e-13 2.02103e-12 -0 -1.34177e-13 -0 -1.12015e-13)
(-7.00425e-14 -4.76303e-13 -0 4.17539e-14 -0 2.82886e-14)
(1.33362e-14 1.18058e-13 -0 -5.70297e-15 -0 -7.63324e-15)
(-8.56493e-15 -2.60232e-14 -0 6.19803e-15 -0 2.3669e-15)
(-1.11335e-15 7.69926e-15 -0 1.75457e-15 -0 -6.41222e-16)
(-2.3096e-15 -7.80036e-16 -0 2.17015e-15 -0 1.39446e-16)
(-1.32001e-15 1.01941e-15 -0 1.40989e-15 -0 -8.98739e-17)
(-1.05997e-15 4.30139e-16 -0 1.08334e-15 -0 -2.33636e-17)
(-6.74214e-16 4.61895e-16 -0 6.9868e-16 -0 -2.44656e-17)
(-3.60929e-16 3.44746e-16 -0 3.79112e-16 -0 -1.81827e-17)
(-7.43953e-17 2.40552e-16 -0 1.18068e-16 -0 -4.36729e-17)
(3.22446e-18 9.35463e-17 -0 3.29817e-17 -0 -3.62061e-17)
(-8.65424e-17 5.78569e-17 -0 7.94414e-17 -0 7.10098e-18)
(6.58814e-17 1.52699e-16 -0 -6.70573e-17 -0 1.17586e-18)
(2.7114e-16 -1.1224e-16 -0 -2.67243e-16 -0 -3.8964e-18)
(1.7044e-11 4.99357e-10 -0 -1.21978e-11 -0 -4.84613e-12)
(-1.80417e-11 -6.03238e-10 -0 1.07013e-11 -0 7.34042e-12)
(4.12689e-12 1.45996e-10 -0 -2.46479e-12 -0 -1.6621e-12)
(-1.88712e-12 -3.45243e-11 -0 1.10499e-12 -0 7.82123e-13)
(4.10897e-13 8.33512e-12 -0 -2.40984e-13 -0 -1.69913e-13)
(-1.66446e-13 -2.00645e-12 -0 1.00995e-13 -0 6.5451e-14)
(3.64888e-14 4.69418e-13 -0 -1.88506e-14 -0 -1.76382e-14)
(-1.74397e-14 -1.21737e-13 -0 1.2208e-14 -0 5.2317e-15)
(3.37167e-16 2.3291e-14 -0 1.24801e-15 -0 -1.58518e-15)
(-3.74769e-15 -9.7064e-15 -0 3.29199e-15 -0 4.55695e-16)
(-1.67232e-15 -3.37391e-16 -0 1.79592e-15 -0 -1.23605e-16)
(-1.55638e-15 -1.55889e-15 -0 1.51067e-15 -0 4.57043e-17)
(-1.0177e-15 -4.92241e-16 -0 1.02042e-15 -0 -2.72104e-18)
(-6.97791e-16 -2.05938e-16 -0 6.72851e-16 -0 2.49396e-17)
(-3.54889e-16 7.05612e-17 -0 3.39663e-16 -0 1.52261e-17)
(-7.42716e-17 1.16118e-16 -0 8.292e-17 -0 -8.64837e-18)
(-4.32481e-17 2.51196e-17 -0 4.01224e-17 -0 3.12568e-18)
(-2.16328e-16 7.82884e-17 -0 1.87662e-16 -0 2.86655e-17)
(-3.38659e-17 2.79024e-16 -0 4.23575e-17 -0 -8.49161e-18)
(3.03423e-16 5.11322e-17 -0 -2.98855e-16 -0 -4.56852e-18)
)
;

boundaryField
{
    movingWall
    {
        type            calculated;
        value           nonuniform List<symmTensor> 
20
(
(1.06125e-09 2.64341e-10 -0 -2.10894e-09 -0 1.04769e-09)
(-2.64233e-10 -3.6406e-10 -0 5.12741e-10 -0 -2.48508e-10)
(6.25534e-11 8.60821e-11 -0 -1.2152e-10 -0 5.89669e-11)
(-1.56169e-11 -2.04755e-11 -0 2.958e-11 -0 -1.39631e-11)
(3.7063e-12 4.80663e-12 -0 -7.05277e-12 -0 3.34647e-12)
(-9.29444e-13 -1.15932e-12 -0 1.71521e-12 -0 -7.85769e-13)
(2.21695e-13 2.57907e-13 -0 -4.09856e-13 -0 1.88161e-13)
(-5.84965e-14 -7.1886e-14 -0 1.02947e-13 -0 -4.44501e-14)
(1.17312e-14 8.97652e-15 -0 -2.22713e-14 -0 1.05402e-14)
(-5.06998e-15 -7.60531e-15 -0 7.5357e-15 -0 -2.46572e-15)
(-3.31799e-16 -1.89935e-15 -0 -2.95921e-16 -0 6.2772e-16)
(-1.09291e-15 -1.87076e-15 -0 1.19323e-15 -0 -1.00319e-16)
(-5.59677e-16 -8.8284e-16 -0 4.90516e-16 -0 6.91605e-17)
(-4.14667e-16 -4.07769e-16 -0 3.81558e-16 -0 3.31086e-17)
(-1.94103e-16 -6.31355e-17 -0 1.58898e-16 -0 3.52054e-17)
(-2.73993e-17 2.98724e-17 -0 1.41409e-17 -0 1.32583e-17)
(-1.74367e-17 -3.93925e-17 -0 6.14203e-18 -0 1.12947e-17)
(-1.40216e-16 6.24421e-17 -0 1.28643e-16 -0 1.15726e-17)
(-3.40974e-17 3.15716e-16 -0 5.24739e-17 -0 -1.83765e-17)
(1.8995e-16 9.01349e-17 -0 -1.89081e-16 -0 -8.69371e-19)
)
;
    }
    fixedWalls
    {
        type            calculated;
        value           nonuniform List<symmTensor> 
60
(
(-4.6155e-11 -8.82842e-10 -0 2.8228e-11 -0 1.79269e-11)
(1.5242e-10 8.85522e-10 -0 -9.17292e-11 -0 -6.0691e-11)
(-2.54308e-10 -9.27839e-10 -0 1.52128e-10 -0 1.0218e-10)
(3.52573e-10 9.89084e-10 -0 -2.06368e-10 -0 -1.46205e-10)
(-4.31786e-10 -1.0597e-09 -0 2.44008e-10 -0 1.87778e-10)
(4.77745e-10 1.12086e-09 -0 -2.63328e-10 -0 -2.14416e-10)
(-5.00941e-10 -1.17687e-09 -0 2.73726e-10 -0 2.27215e-10)
(5.02195e-10 1.22835e-09 -0 -2.73641e-10 -0 -2.28555e-10)
(-4.95283e-10 -1.27689e-09 -0 2.69617e-10 -0 2.25666e-10)
(4.74513e-10 1.32349e-09 -0 -2.58453e-10 -0 -2.1606e-10)
(-4.50717e-10 -1.36726e-09 -0 2.45555e-10 -0 2.05161e-10)
(4.16399e-10 1.40884e-09 -0 -2.27101e-10 -0 -1.89297e-10)
(-3.81107e-10 -1.44658e-09 -0 2.07931e-10 -0 1.73176e-10)
(3.37824e-10 1.48143e-09 -0 -1.84529e-10 -0 -1.53295e-10)
(-2.9446e-10 -1.51138e-09 -0 1.60896e-10 -0 1.33564e-10)
(2.46306e-10 1.53763e-09 -0 -1.34727e-10 -0 -1.11579e-10)
(-1.99238e-10 -1.5591e-09 -0 1.08984e-10 -0 9.02544e-11)
(1.46866e-10 1.57524e-09 -0 -8.04797e-11 -0 -6.63864e-11)
(-1.03271e-10 -1.58709e-09 -0 5.67715e-11 -0 4.64999e-11)
(4.82948e-11 1.58827e-09 -0 -2.64247e-11 -0 -2.187e-11)
(-1.66428e-16 -6.67869e-17 -0 1.85419e-16 -0 -1.89909e-17)
(-1.60189e-16 -3.07881e-16 -0 1.7827e-16 -0 -1.80808e-17)
(-1.49308e-16 -4.99333e-16 -0 1.65389e-16 -0 -1.60811e-17)
(-1.28203e-16 -6.7299e-16 -0 1.44496e-16 -0 -1.62926e-17)
(-1.08967e-16 -8.23349e-16 -0 1.22012e-16 -0 -1.30442e-17)
(-8.05586e-17 -9.43915e-16 -0 9.36156e-17 -0 -1.3057e-17)
(-6.00089e-17 -1.03669e-15 -0 6.85035e-17 -0 -8.49458e-18)
(-2.98655e-17 -1.09845e-15 -0 3.84147e-17 -0 -8.5492e-18)
(-1.07005e-17 -1.13008e-15 -0 1.42956e-17 -0 -3.59509e-18)
(1.83723e-17 -1.13369e-15 -0 -1.36519e-17 -0 -4.72038e-18)
(3.40366e-17 -1.1114e-15 -0 -3.34343e-17 -0 -6.0232e-19)
(5.60407e-17 -1.06694e-15 -0 -5.52381e-17 -0 -8.02678e-19)
(7.17774e-17 -1.0028e-15 -0 -7.33887e-17 -0 1.61131e-18)
(9.42625e-17 -9.17486e-16 -0 -9.4378e-17 -0 1.15547e-19)
(1.08993e-16 -8.12733e-16 -0 -1.10517e-16 -0 1.52373e-18)
(1.25243e-16 -6.92591e-16 -0 -1.25253e-16 -0 9.69136e-21)
(1.358e-16 -5.59769e-16 -0 -1.34821e-16 -0 -9.79452e-19)
(1.39163e-16 -4.24367e-16 -0 -1.41548e-16 -0 2.38402e-18)
(1.61675e-16 -2.79495e-16 -0 -1.6259e-16 -0 9.1469e-19)
(2.00516e-16 -4.77561e-17 -0 -1.91422e-16 -0 -9.09398e-18)
(5.92101e-10 -2.06117e-10 -0 -1.19752e-09 -0 6.0542e-10)
(-1.26899e-10 2.18624e-10 -0 2.68614e-10 -0 -1.41715e-10)
(3.07175e-11 -5.09293e-11 -0 -6.39439e-11 -0 3.32265e-11)
(-6.62647e-12 1.1889e-11 -0 1.43911e-11 -0 -7.76462e-12)
(1.59676e-12 -2.75138e-12 -0 -3.36514e-12 -0 1.76838e-12)
(-3.55297e-13 6.49343e-13 -0 7.74971e-13 -0 -4.19674e-13)
(7.76305e-14 -1.43842e-13 -0 -1.72866e-13 -0 9.52357e-14)
(-1.97902e-14 3.7796e-14 -0 4.18273e-14 -0 -2.20372e-14)
(3.19033e-15 -5.53187e-15 -0 -8.27963e-15 -0 5.08931e-15)
(-1.29938e-15 3.76421e-15 -0 2.45727e-15 -0 -1.15789e-15)
(2.15066e-18 1.29638e-15 -0 -2.61799e-16 -0 2.59649e-16)
(-1.4312e-16 1.71528e-15 -0 2.04383e-16 -0 -6.12628e-17)
(-8.5808e-17 1.53847e-15 -0 7.07851e-17 -0 1.50228e-17)
(-1.55491e-16 1.46178e-15 -0 1.54315e-16 -0 1.17623e-18)
(-2.35828e-16 1.25529e-15 -0 2.3042e-16 -0 5.40728e-18)
(-2.86533e-16 9.59476e-16 -0 2.81415e-16 -0 5.11765e-18)
(-2.41213e-16 6.43588e-16 -0 2.4119e-16 -0 2.24564e-20)
(-1.5597e-16 4.62718e-16 -0 1.65031e-16 -0 -9.06096e-18)
(-1.83257e-16 3.68169e-16 -0 1.65936e-16 -0 1.73207e-17)
(-2.14383e-16 2.9365e-17 -0 2.10299e-16 -0 4.08379e-18)
)
;
    }
    frontAndBack
    {
        type            empty;
    }
}


// ************************************************************************* //
