/*--------------------------------*- C++ -*----------------------------------*\
| =========                 |                                                 |
| \\      /  F ield         | OpenFOAM: The Open Source CFD Toolbox           |
|  \\    /   O peration     | Version:  2312                                  |
|   \\  /    A nd           | Website:  www.openfoam.com                      |
|    \\/     M anipulation  |                                                 |
\*---------------------------------------------------------------------------*/
FoamFile
{
    version     2.0;
    format      ascii;
    arch        "LSB;label=32;scalar=64";
    class       volVectorField;
    location    "3.5";
    object      UMean;
}
// * * * * * * * * * * * * * * * * * * * * * * * * * * * * * * * * * * * * * //

dimensions      [0 1 -1 0 0 0 0];

internalField   nonuniform List<vector> 
400
(
(-0.285847 0.000106994 0)
(-0.286718 0.000483424 0)
(-0.288337 0.00072718 0)
(-0.290204 0.000849675 0)
(-0.292266 0.000962648 0)
(-0.294572 0.00111196 0)
(-0.297192 0.00130776 0)
(-0.300147 0.00151779 0)
(-0.303307 0.00163019 0)
(-0.306358 0.00152964 0)
(-0.308834 0.0011569 0)
(-0.310249 0.000532626 0)
(-0.310225 -0.000317624 0)
(-0.308448 -0.00122273 0)
(-0.304957 -0.00206064 0)
(-0.30015 -0.00261156 0)
(-0.294745 -0.00262598 0)
(-0.289595 -0.0019171 0)
(-0.286172 -0.000771119 0)
(-0.285352 0.000188262 0)
(-0.286311 0.00105153 0)
(-0.28805 0.00226026 0)
(-0.29043 0.00292033 0)
(-0.293093 0.0032631 0)
(-0.295963 0.00359715 0)
(-0.299091 0.00402063 0)
(-0.302522 0.00447067 0)
(-0.306173 0.00478422 0)
(-0.309849 0.00474949 0)
(-0.313246 0.00417595 0)
(-0.315982 0.00296679 0)
(-0.317643 0.00113807 0)
(-0.31783 -0.00119541 0)
(-0.316257 -0.00378217 0)
(-0.312761 -0.00621869 0)
(-0.30751 -0.00793024 0)
(-0.301042 -0.00828906 0)
(-0.294219 -0.00673366 0)
(-0.288289 -0.00350387 0)
(-0.285708 -0.00020034 0)
(-0.286753 0.0029171 0)
(-0.288993 0.00468508 0)
(-0.291656 0.00564417 0)
(-0.294637 0.00624236 0)
(-0.297872 0.00684392 0)
(-0.301392 0.00754965 0)
(-0.305222 0.00823492 0)
(-0.309302 0.00864806 0)
(-0.313455 0.00848549 0)
(-0.317401 0.0074813 0)
(-0.320764 0.00547102 0)
(-0.323105 0.00241588 0)
(-0.323998 -0.0015356 0)
(-0.323138 -0.00605326 0)
(-0.320309 -0.01057 0)
(-0.315345 -0.0142125 0)
(-0.308355 -0.015829 0)
(-0.299939 -0.0141952 0)
(-0.291409 -0.00884969 0)
(-0.286131 -0.00206741 0)
(-0.287009 0.00522056 0)
(-0.289547 0.00736373 0)
(-0.29235 0.00854245 0)
(-0.295439 0.00940599 0)
(-0.298795 0.01031 0)
(-0.302488 0.0113391 0)
(-0.306563 0.0123295 0)
(-0.310976 0.0129409 0)
(-0.315554 0.0127545 0)
(-0.319991 0.0113903 0)
(-0.323881 0.00860606 0)
(-0.326782 0.00436049 0)
(-0.328308 -0.00117663 0)
(-0.328165 -0.00759689 0)
(-0.326182 -0.0142639 0)
(-0.322111 -0.0202632 0)
(-0.315604 -0.0241557 0)
(-0.306541 -0.0239064 0)
(-0.295871 -0.0174904 0)
(-0.287168 -0.00565944 0)
(-0.287097 0.00775664 0)
(-0.289748 0.0101941 0)
(-0.292553 0.0115189 0)
(-0.295601 0.0126139 0)
(-0.298922 0.013834 0)
(-0.302607 0.0152456 0)
(-0.306728 0.0166226 0)
(-0.311248 0.0175143 0)
(-0.315973 0.0173628 0)
(-0.320548 0.0156642 0)
(-0.324547 0.0121333 0)
(-0.327586 0.00678275 0)
(-0.329388 -0.000144058 0)
(-0.329775 -0.00817492 0)
(-0.328567 -0.0166988 0)
(-0.325657 -0.0249551 0)
(-0.320495 -0.0316504 0)
(-0.312189 -0.0343238 0)
(-0.300678 -0.0290203 0)
(-0.289309 -0.0127283 0)
(-0.28705 0.0103216 0)
(-0.289645 0.013008 0)
(-0.292327 0.0144336 0)
(-0.295205 0.0157351 0)
(-0.298331 0.0172719 0)
(-0.301801 0.0190859 0)
(-0.305702 0.0208752 0)
(-0.310001 0.0220628 0)
(-0.3145 0.0219349 0)
(-0.31887 0.0198919 0)
(-0.322766 0.0156585 0)
(-0.325896 0.00931096 0)
(-0.327969 0.00118661 0)
(-0.328721 -0.00823497 0)
(-0.328029 -0.0182801 0)
(-0.325926 -0.0282906 0)
(-0.322129 -0.037452 0)
(-0.315453 -0.0437572 0)
(-0.304495 -0.0419626 0)
(-0.291589 -0.0234136 0)
(-0.286907 0.0127454 0)
(-0.289306 0.0156611 0)
(-0.291753 0.0171549 0)
(-0.294336 0.0186155 0)
(-0.297103 0.020419 0)
(-0.300137 0.022592 0)
(-0.303525 0.0247519 0)
(-0.307261 0.0262107 0)
(-0.311213 0.026141 0)
(-0.315174 0.0238874 0)
(-0.318937 0.0191691 0)
(-0.322233 0.0120394 0)
(-0.324677 0.00280737 0)
(-0.325859 -0.00796551 0)
(-0.32562 -0.0194701 0)
(-0.324043 -0.0308995 0)
(-0.321167 -0.0418422 0)
(-0.316157 -0.0513691 0)
(-0.306633 -0.0545135 0)
(-0.293335 -0.0370481 0)
(-0.286704 0.0148877 0)
(-0.288797 0.0180347 0)
(-0.290918 0.019562 0)
(-0.293101 0.021109 0)
(-0.295369 0.0230773 0)
(-0.297773 0.0254938 0)
(-0.300376 0.0279272 0)
(-0.303241 0.0296591 0)
(-0.30636 0.0297703 0)
(-0.309685 0.0275355 0)
(-0.313154 0.0226467 0)
(-0.316531 0.0150271 0)
(-0.319335 0.0048571 0)
(-0.321092 -0.00723181 0)
(-0.321504 -0.0202003 0)
(-0.320612 -0.0329714 0)
(-0.318539 -0.045312 0)
(-0.314946 -0.0572643 0)
(-0.307177 -0.0656556 0)
(-0.294336 -0.0523484 0)
(-0.286467 0.0166526 0)
(-0.288181 0.0200366 0)
(-0.289912 0.0215633 0)
(-0.291629 0.0231084 0)
(-0.293306 0.025106 0)
(-0.294945 0.0275984 0)
(-0.296593 0.030159 0)
(-0.298356 0.0321054 0)
(-0.300346 0.0325106 0)
(-0.30268 0.0306221 0)
(-0.305484 0.0259675 0)
(-0.308625 0.0182233 0)
(-0.311693 0.00742233 0)
(-0.314089 -0.00579926 0)
(-0.315399 -0.0200634 0)
(-0.315587 -0.0341511 0)
(-0.314638 -0.0477908 0)
(-0.312463 -0.0616832 0)
(-0.306598 -0.0751086 0)
(-0.294786 -0.0680537 0)
(-0.286223 0.0179893 0)
(-0.287523 0.0216146 0)
(-0.288833 0.0231087 0)
(-0.29006 0.0245557 0)
(-0.291124 0.0264252 0)
(-0.291965 0.028793 0)
(-0.292603 0.0313113 0)
(-0.293149 0.033355 0)
(-0.293797 0.0340802 0)
(-0.294784 0.0326891 0)
(-0.29637 0.0286153 0)
(-0.298701 0.0213515 0)
(-0.301641 0.0105794 0)
(-0.304599 -0.00320988 0)
(-0.307143 -0.0185087 0)
(-0.308889 -0.0338946 0)
(-0.309512 -0.0488317 0)
(-0.309028 -0.0645457 0)
(-0.305244 -0.0826402 0)
(-0.295059 -0.0833952 0)
(-0.285997 0.0188924 0)
(-0.286892 0.022757 0)
(-0.287789 0.0241874 0)
(-0.288545 0.0254488 0)
(-0.289031 0.0270479 0)
(-0.28914 0.029098 0)
(-0.288855 0.0313534 0)
(-0.288243 0.0332824 0)
(-0.287519 0.0341817 0)
(-0.286974 0.0333091 0)
(-0.286994 0.0300518 0)
(-0.287885 0.0237909 0)
(-0.290003 0.0138643 0)
(-0.293307 0.000381566 0)
(-0.297186 -0.0153281 0)
(-0.300745 -0.0316875 0)
(-0.303288 -0.0479594 0)
(-0.304806 -0.0654544 0)
(-0.303333 -0.0880874 0)
(-0.295353 -0.0979981 0)
(-0.28582 0.019402 0)
(-0.286361 0.0234945 0)
(-0.286883 0.0248311 0)
(-0.287215 0.0258369 0)
(-0.287202 0.0270564 0)
(-0.286713 0.0286341 0)
(-0.285693 0.0304188 0)
(-0.284173 0.0319951 0)
(-0.282327 0.0328027 0)
(-0.280445 0.0322323 0)
(-0.278926 0.029718 0)
(-0.278225 0.0246719 0)
(-0.278978 0.0164745 0)
(-0.281785 0.00462706 0)
(-0.286482 -0.0104775 0)
(-0.291765 -0.0272899 0)
(-0.296329 -0.0448681 0)
(-0.299986 -0.0641122 0)
(-0.301052 -0.0912592 0)
(-0.295736 -0.111748 0)
(-0.285726 0.0196129 0)
(-0.285999 0.0238896 0)
(-0.286206 0.0250974 0)
(-0.286177 0.025794 0)
(-0.285749 0.0265682 0)
(-0.284803 0.0275919 0)
(-0.283269 0.0287866 0)
(-0.281162 0.0298493 0)
(-0.278613 0.0303534 0)
(-0.27588 0.0298224 0)
(-0.273334 0.0278014 0)
(-0.271466 0.0238583 0)
(-0.270916 0.0174789 0)
(-0.272582 0.00810231 0)
(-0.276894 -0.00494209 0)
(-0.282978 -0.0212992 0)
(-0.289216 -0.0395807 0)
(-0.294855 -0.0603823 0)
(-0.298604 -0.0919801 0)
(-0.296251 -0.124617 0)
(-0.285744 0.0197099 0)
(-0.285875 0.0240521 0)
(-0.285842 0.0250584 0)
(-0.285504 0.0253919 0)
(-0.284722 0.0256884 0)
(-0.283419 0.0261455 0)
(-0.281543 0.0267347 0)
(-0.279109 0.0272524 0)
(-0.276228 0.0273834 0)
(-0.273119 0.0267689 0)
(-0.270111 0.0250723 0)
(-0.267648 0.0220112 0)
(-0.26625 0.0172589 0)
(-0.266646 0.0101997 0)
(-0.269741 -8.09174e-05 0)
(-0.275416 -0.0145988 0)
(-0.282497 -0.0325031 0)
(-0.289714 -0.0543792 0)
(-0.296056 -0.0898721 0)
(-0.296885 -0.136194 0)
(-0.285926 0.0197059 0)
(-0.286101 0.0240261 0)
(-0.285881 0.0247351 0)
(-0.28525 0.0246488 0)
(-0.284134 0.0244598 0)
(-0.282509 0.024383 0)
(-0.280368 0.0244244 0)
(-0.277744 0.0244529 0)
(-0.274732 0.0242479 0)
(-0.27152 0.02355 0)
(-0.268384 0.0221181 0)
(-0.265664 0.0197513 0)
(-0.263763 0.0162208 0)
(-0.263195 0.0110693 0)
(-0.264806 0.00336078 0)
(-0.269253 -0.00824007 0)
(-0.276241 -0.0244187 0)
(-0.284514 -0.0465731 0)
(-0.292831 -0.084382 0)
(-0.297369 -0.14593 0)
(-0.286358 0.0206762 0)
(-0.286697 0.024243 0)
(-0.286345 0.0242862 0)
(-0.285419 0.0236256 0)
(-0.283942 0.0229191 0)
(-0.281976 0.0223479 0)
(-0.27956 0.0219253 0)
(-0.276754 0.0215581 0)
(-0.273649 0.0210919 0)
(-0.270397 0.0203444 0)
(-0.267213 0.0191372 0)
(-0.264358 0.0173102 0)
(-0.26214 0.0146947 0)
(-0.260925 0.0109862 0)
(-0.261343 0.00542967 0)
(-0.264201 -0.00326483 0)
(-0.270578 -0.0165546 0)
(-0.278375 -0.0380443 0)
(-0.287602 -0.0757348 0)
(-0.297154 -0.15472 0)
(-0.287324 0.019358 0)
(-0.288346 0.0227287 0)
(-0.287542 0.0226078 0)
(-0.286034 0.0217523 0)
(-0.284027 0.0207823 0)
(-0.281608 0.0198955 0)
(-0.278814 0.0191619 0)
(-0.275722 0.0185343 0)
(-0.27242 0.0179063 0)
(-0.269026 0.0171488 0)
(-0.265701 0.0161298 0)
(-0.262635 0.0147236 0)
(-0.260094 0.0128198 0)
(-0.258375 0.010199 0)
(-0.257978 0.00637386 0)
(-0.259351 0.0001235 0)
(-0.264884 -0.00977555 0)
(-0.269556 -0.0302355 0)
(-0.280555 -0.0657271 0)
(-0.295575 -0.165114 0)
(-0.288654 0.0312836 0)
(-0.289729 0.030105 0)
(-0.288088 0.0261416 0)
(-0.285832 0.0226546 0)
(-0.283161 0.0201669 0)
(-0.280047 0.0183276 0)
(-0.276564 0.0169504 0)
(-0.272848 0.0158834 0)
(-0.269004 0.0149753 0)
(-0.265132 0.0141027 0)
(-0.261354 0.0131681 0)
(-0.257852 0.0120956 0)
(-0.254838 0.010794 0)
(-0.252513 0.00911253 0)
(-0.251394 0.00678481 0)
(-0.251309 0.00263868 0)
(-0.256231 -0.00452011 0)
(-0.253958 -0.022752 0)
(-0.275708 -0.0521526 0)
(-0.288351 -0.173378 0)
(-0.290497 0.0116882 0)
(-0.292358 0.00719796 0)
(-0.286593 0.00745223 0)
(-0.280183 0.0094065 0)
(-0.273572 0.00987528 0)
(-0.267135 0.00953424 0)
(-0.261044 0.00911565 0)
(-0.255289 0.0087765 0)
(-0.249823 0.00845875 0)
(-0.244614 0.00810814 0)
(-0.239676 0.00770263 0)
(-0.235066 0.00722133 0)
(-0.230901 0.00663733 0)
(-0.227193 0.00583401 0)
(-0.22458 0.0047355 0)
(-0.221888 0.00244886 0)
(-0.226557 -0.000744631 0)
(-0.217512 -0.0120211 0)
(-0.268984 -0.0270974 0)
(-0.244467 -0.151461 0)
(-0.257202 0.0656633 0)
(-0.242296 0.0480299 0)
(-0.224905 0.0294412 0)
(-0.210194 0.0192361 0)
(-0.199028 0.0139632 0)
(-0.189734 0.0109054 0)
(-0.181322 0.00890797 0)
(-0.173544 0.00750081 0)
(-0.166339 0.00645025 0)
(-0.15964 0.00563693 0)
(-0.153399 0.00498012 0)
(-0.147601 0.00442717 0)
(-0.14231 0.00394121 0)
(-0.137482 0.00347834 0)
(-0.13379 0.00297711 0)
(-0.129663 0.00227879 0)
(-0.133511 0.00144592 0)
(-0.117638 -0.00157107 0)
(-0.203017 0.00405495 0)
(-0.0268186 -0.0684686 0)
)
;

boundaryField
{
    movingWall
    {
        type            calculated;
        value           uniform (0.428571 0 0);
    }
    fixedWalls
    {
        type            calculated;
        value           uniform (-0.285714 0 0);
    }
    frontAndBack
    {
        type            empty;
    }
}


// ************************************************************************* //
