/*--------------------------------*- C++ -*----------------------------------*\
| =========                 |                                                 |
| \\      /  F ield         | OpenFOAM: The Open Source CFD Toolbox           |
|  \\    /   O peration     | Version:  2312                                  |
|   \\  /    A nd           | Website:  www.openfoam.com                      |
|    \\/     M anipulation  |                                                 |
\*---------------------------------------------------------------------------*/
FoamFile
{
    version     2.0;
    format      ascii;
    arch        "LSB;label=32;scalar=64";
    class       volSymmTensorField;
    location    "3.5";
    object      UPrime2Mean;
}
// * * * * * * * * * * * * * * * * * * * * * * * * * * * * * * * * * * * * * //

dimensions      [0 2 -2 0 0 0 0];

internalField   nonuniform List<symmTensor> 
400
(
(0.204011 3.01159e-05 0 2.58836e-08 0 0)
(0.203508 0.000137859 0 1.71e-07 0 0)
(0.20259 0.000206312 0 3.927e-07 0 0)
(0.201533 0.000239749 0 5.53494e-07 0 0)
(0.200376 0.00026961 0 8.00059e-07 0 0)
(0.199093 0.000308086 0 1.34033e-06 0 0)
(0.197655 0.000356407 0 2.47744e-06 0 0)
(0.196066 0.000403417 0 4.45232e-06 0 0)
(0.194415 0.00041919 0 6.27474e-06 0 0)
(0.192873 0.000378922 0 6.30931e-06 0 0)
(0.191668 0.000275707 0 4.14105e-06 0 0)
(0.191008 0.000119515 0 1.33997e-06 0 0)
(0.191052 -8.80974e-05 0 2.12947e-07 0 0)
(0.191949 -0.000311048 0 1.98347e-06 0 0)
(0.193705 -0.000527571 0 6.40992e-06 0 0)
(0.196176 -0.000685485 0 1.10535e-05 0 0)
(0.199048 -0.00071254 0 1.14826e-05 0 0)
(0.201882 -0.000537895 0 5.65707e-06 0 0)
(0.203821 -0.000220353 0 5.51356e-07 0 0)
(0.20429 5.44327e-05 0 4.13713e-07 0 0)
(0.203747 0.000299481 0 8.31143e-07 0 0)
(0.202751 0.000641132 0 4.5272e-06 0 0)
(0.201411 0.000821124 0 7.9462e-06 0 0)
(0.199924 0.000908007 0 1.0404e-05 0 0)
(0.198342 0.000987391 0 1.41741e-05 0 0)
(0.196645 0.00108241 0 2.17217e-05 0 0)
(0.19483 0.00117063 0 3.39172e-05 0 0)
(0.192958 0.0012083 0 4.70663e-05 0 0)
(0.191142 0.00115036 0 5.31089e-05 0 0)
(0.189529 0.00096772 0 4.56857e-05 0 0)
(0.188279 0.000654819 0 2.69824e-05 0 0)
(0.187556 0.000222984 0 7.74084e-06 0 0)
(0.187517 -0.000308674 0 2.07558e-06 0 0)
(0.188289 -0.00090164 0 2.07687e-05 0 0)
(0.189968 -0.0014877 0 6.37571e-05 0 0)
(0.192527 -0.00195033 0 0.00011192 0 0)
(0.195783 -0.00212547 0 0.000129257 0 0)
(0.199365 -0.00181437 0 8.50105e-05 0 0)
(0.202621 -0.00098796 0 1.80549e-05 0 0)
(0.204086 -5.60557e-05 0 1.81884e-06 0 0)
(0.203495 0.00082936 0 7.40076e-06 0 0)
(0.202219 0.00132317 0 2.19201e-05 0 0)
(0.200727 0.00157624 0 3.35125e-05 0 0)
(0.199078 0.00171996 0 4.32809e-05 0 0)
(0.197318 0.00185207 0 5.85095e-05 0 0)
(0.195446 0.00199217 0 8.55982e-05 0 0)
(0.193468 0.00210034 0 0.000123124 0 0)
(0.191435 0.00211533 0 0.000157383 0 0)
(0.189444 0.00198181 0 0.000167355 0 0)
(0.187619 0.00166638 0 0.000140407 0 0)
(0.186112 0.00115837 0 8.42393e-05 0 0)
(0.185091 0.000461692 0 2.60843e-05 0 0)
(0.184723 -0.000400689 0 4.20238e-06 0 0)
(0.185149 -0.00138381 0 5.21226e-05 0 0)
(0.186484 -0.00239696 0 0.000182075 0 0)
(0.188836 -0.00328458 0 0.000360569 0 0)
(0.192214 -0.00380388 0 0.000485936 0 0)
(0.196426 -0.00361278 0 0.000418614 0 0)
(0.200918 -0.00240996 0 0.000158102 0 0)
(0.203844 -0.000588749 0 5.0545e-06 0 0)
(0.20335 0.00148301 0 2.6109e-05 0 0)
(0.201907 0.00207341 0 5.75272e-05 0 0)
(0.200343 0.00237534 0 8.18155e-05 0 0)
(0.198643 0.00257615 0 0.00010588 0 0)
(0.19683 0.00276741 0 0.000143265 0 0)
(0.194883 0.00296057 0 0.000203956 0 0)
(0.1928 0.00310541 0 0.000281372 0 0)
(0.190618 0.00312522 0 0.00034518 0 0)
(0.188426 0.00294832 0 0.000355781 0 0)
(0.186357 0.0025255 0 0.000293747 0 0)
(0.184575 0.00183266 0 0.000177875 0 0)
(0.183261 0.00087131 0 6.00635e-05 0 0)
(0.182576 -0.000332885 0 6.70289e-06 0 0)
(0.182653 -0.00172137 0 7.80173e-05 0 0)
(0.183598 -0.00318994 0 0.000304379 0 0)
(0.185546 -0.00457139 0 0.0006649 0 0)
(0.188688 -0.0055868 0 0.00103587 0 0)
(0.193137 -0.005794 0 0.00113542 0 0)
(0.198578 -0.00455081 0 0.000675133 0 0)
(0.203264 -0.00158965 0 6.12341e-05 0 0)
(0.203297 0.00220236 0 6.11831e-05 0 0)
(0.201796 0.00286677 0 0.000114232 0 0)
(0.20023 0.00319831 0 0.000154024 0 0)
(0.198553 0.00344947 0 0.000198153 0 0)
(0.196759 0.00370794 0 0.000267548 0 0)
(0.194813 0.0039783 0 0.000374941 0 0)
(0.192694 0.00419556 0 0.000502861 0 0)
(0.190433 0.00426124 0 0.000598025 0 0)
(0.188124 0.00407605 0 0.000600559 0 0)
(0.185924 0.00356292 0 0.000488725 0 0)
(0.184022 0.00268276 0 0.000299647 0 0)
(0.182588 0.00144257 0 0.000112262 0 0)
(0.181745 -0.000113596 0 1.53996e-05 0 0)
(0.181573 -0.00190308 0 8.7528e-05 0 0)
(0.182164 -0.00382143 0 0.000375107 0 0)
(0.18359 -0.00572151 0 0.000883695 0 0)
(0.186135 -0.00734363 0 0.00154089 0 0)
(0.190256 -0.00819069 0 0.00205747 0 0)
(0.196082 -0.00732361 0 0.00175066 0 0)
(0.20209 -0.00347935 0 0.000410639 0 0)
(0.203315 0.00293233 0 0.000111945 0 0)
(0.201854 0.00365973 0 0.000188767 0 0)
(0.200352 0.0040133 0 0.000244853 0 0)
(0.198763 0.00431481 0 0.000312627 0 0)
(0.197062 0.00465244 0 0.000420152 0 0)
(0.195209 0.00502476 0 0.000580153 0 0)
(0.193169 0.00534888 0 0.000759595 0 0)
(0.190964 0.00549494 0 0.000880059 0 0)
(0.188695 0.00532107 0 0.000863894 0 0)
(0.186519 0.00471552 0 0.000696356 0 0)
(0.184605 0.00363024 0 0.000438232 0 0)
(0.183097 0.00208929 0 0.000188132 0 0)
(0.182125 0.000173225 0 4.79696e-05 0 0)
(0.181801 -0.00201589 0 0.000105208 0 0)
(0.182172 -0.00435103 0 0.000418291 0 0)
(0.183225 -0.00670815 0 0.00100679 0 0)
(0.185109 -0.00892926 0 0.00186034 0 0)
(0.188457 -0.0105958 0 0.0028455 0 0)
(0.194049 -0.010546 0 0.00319776 0 0)
(0.200845 -0.00630115 0 0.00135198 0 0)
(0.203391 0.00362425 0 0.000172214 0 0)
(0.202044 0.00441481 0 0.000272667 0 0)
(0.200666 0.00478812 0 0.00034348 0 0)
(0.199231 0.00513692 0 0.000433519 0 0)
(0.197708 0.00555637 0 0.000576528 0 0)
(0.196061 0.00604408 0 0.000784043 0 0)
(0.194246 0.00649603 0 0.00100613 0 0)
(0.192273 0.0067459 0 0.00114382 0 0)
(0.190211 0.00660572 0 0.00111051 0 0)
(0.188174 0.00593 0 0.000903183 0 0)
(0.186275 0.00466104 0 0.000598221 0 0)
(0.184659 0.00282861 0 0.000301465 0 0)
(0.183513 0.000527222 0 0.000121928 0 0)
(0.183015 -0.00209743 0 0.000157111 0 0)
(0.183216 -0.00486446 0 0.000473593 0 0)
(0.18405 -0.00761612 0 0.00109515 0 0)
(0.18548 -0.0103069 0 0.00204373 0 0)
(0.187964 -0.0127755 0 0.00334783 0 0)
(0.192846 -0.0139021 0 0.00456931 0 0)
(0.199881 -0.00996012 0 0.00298707 0 0)
(0.203508 0.00423974 0 0.000232012 0 0)
(0.202329 0.00509919 0 0.000354385 0 0)
(0.201129 0.00548978 0 0.000435772 0 0)
(0.199906 0.00587557 0 0.000541072 0 0)
(0.198642 0.00636422 0 0.000707476 0 0)
(0.197312 0.00695816 0 0.000945549 0 0)
(0.195884 0.00753988 0 0.00119419 0 0)
(0.194325 0.00791804 0 0.0013485 0 0)
(0.192647 0.0078549 0 0.00131495 0 0)
(0.190885 0.00716481 0 0.00109479 0 0)
(0.189087 0.0057761 0 0.000772794 0 0)
(0.187393 0.00369427 0 0.000452397 0 0)
(0.186059 0.00100299 0 0.000244557 0 0)
(0.185308 -0.00210327 0 0.000255754 0 0)
(0.18524 -0.00534212 0 0.000554412 0 0)
(0.185782 -0.00847589 0 0.00117293 0 0)
(0.186831 -0.0115291 0 0.00215731 0 0)
(0.188557 -0.0146265 0 0.00362503 0 0)
(0.192497 -0.0170962 0 0.00560341 0 0)
(0.199317 -0.0141837 0 0.00506629 0 0)
(0.203644 0.00474941 0 0.000280718 0 0)
(0.202677 0.00568574 0 0.000421978 0 0)
(0.201692 0.00608931 0 0.000508462 0 0)
(0.200723 0.00649424 0 0.00061863 0 0)
(0.199778 0.00702375 0 0.00079062 0 0)
(0.198858 0.00769081 0 0.00103452 0 0)
(0.197937 0.00837646 0 0.00128839 0 0)
(0.196959 0.00888383 0 0.00145392 0 0)
(0.195866 0.00894529 0 0.00143827 0 0)
(0.194602 0.00834311 0 0.00124318 0 0)
(0.193114 0.00694695 0 0.000941873 0 0)
(0.1915 0.00469609 0 0.000624882 0 0)
(0.190003 0.00165033 0 0.000407529 0 0)
(0.188935 -0.00194833 0 0.000395669 0 0)
(0.188439 -0.00566524 0 0.00064906 0 0)
(0.188456 -0.00918591 0 0.00121934 0 0)
(0.188947 -0.0125545 0 0.00219577 0 0)
(0.189911 -0.0161304 0 0.00374553 0 0)
(0.192792 -0.0199406 0 0.00628631 0 0)
(0.199057 -0.0186284 0 0.00720406 0 0)
(0.203784 0.0051383 0 0.000310523 0 0)
(0.20305 0.00615617 0 0.000466531 0 0)
(0.202302 0.00656675 0 0.000552833 0 0)
(0.201606 0.00696586 0 0.000656707 0 0)
(0.201005 0.00749277 0 0.000814777 0 0)
(0.200533 0.00817577 0 0.00103768 0 0)
(0.200184 0.00891688 0 0.00127552 0 0)
(0.199896 0.00952473 0 0.00144059 0 0)
(0.199562 0.00973221 0 0.00145085 0 0)
(0.199047 0.00928554 0 0.00129955 0 0)
(0.198212 0.00801003 0 0.00105183 0 0)
(0.197001 0.00577134 0 0.000786895 0 0)
(0.195524 0.00253576 0 0.000589018 0 0)
(0.194118 -0.00144748 0 0.000551221 0 0)
(0.192959 -0.00562661 0 0.000727986 0 0)
(0.192145 -0.00956008 0 0.0011999 0 0)
(0.191797 -0.0132431 0 0.00212042 0 0)
(0.191839 -0.017235 0 0.00371456 0 0)
(0.19355 -0.0222873 0 0.00664833 0 0)
(0.198895 -0.0230276 0 0.009149 0 0)
(0.203912 0.00540267 0 0.000317945 0 0)
(0.203411 0.00650315 0 0.000483906 0 0)
(0.202898 0.00691181 0 0.000565748 0 0)
(0.202472 0.00727819 0 0.00065477 0 0)
(0.202203 0.00775565 0 0.000784634 0 0)
(0.202158 0.00838685 0 0.000965808 0 0)
(0.202356 0.00910342 0 0.00116373 0 0)
(0.202762 0.00973712 0 0.00130789 0 0)
(0.203253 0.010049 0 0.0013337 0 0)
(0.203654 0.00978352 0 0.00123101 0 0)
(0.203735 0.00873436 0 0.00105532 0 0)
(0.203328 0.00671605 0 0.000875791 0 0)
(0.202258 0.00356625 0 0.000740091 0 0)
(0.200578 -0.00055296 0 0.000685026 0 0)
(0.198601 -0.00505347 0 0.000760192 0 0)
(0.196738 -0.00937718 0 0.00109391 0 0)
(0.195303 -0.013422 0 0.00190698 0 0)
(0.194227 -0.0178119 0 0.0034998 0 0)
(0.194641 -0.0240468 0 0.00672769 0 0)
(0.198721 -0.0272329 0 0.0107824 0 0)
(0.204013 0.00555395 0 0.000304693 0 0)
(0.203716 0.00673127 0 0.00047515 0 0)
(0.203421 0.0071274 0 0.000550024 0 0)
(0.203241 0.00743611 0 0.000619879 0 0)
(0.203265 0.00782291 0 0.000715056 0 0)
(0.203579 0.00833952 0 0.000844528 0 0)
(0.204223 0.00894546 0 0.000986912 0 0)
(0.205191 0.00950619 0 0.0010922 0 0)
(0.206383 0.00982313 0 0.00111401 0 0)
(0.207618 0.00967361 0 0.00104511 0 0)
(0.208647 0.0088565 0 0.000931317 0 0)
(0.209187 0.00718466 0 0.000836934 0 0)
(0.208864 0.00448926 0 0.000795589 0 0)
(0.207364 0.000711525 0 0.000769418 0 0)
(0.204792 -0.00382431 0 0.000757806 0 0)
(0.201868 -0.00846586 0 0.000925354 0 0)
(0.199245 -0.0129395 0 0.00157128 0 0)
(0.19695 -0.0177582 0 0.00309799 0 0)
(0.195944 -0.0251468 0 0.00654274 0 0)
(0.198498 -0.0311828 0 0.0121082 0 0)
(0.204065 0.00561665 0 0.000276844 0 0)
(0.203926 0.0068559 0 0.000445328 0 0)
(0.203815 0.00722566 0 0.00051204 0 0)
(0.203849 0.00745588 0 0.000562436 0 0)
(0.204121 0.00772382 0 0.000624145 0 0)
(0.20471 0.00808644 0 0.00070466 0 0)
(0.205669 0.00852367 0 0.000791726 0 0)
(0.207002 0.00893528 0 0.000853901 0 0)
(0.208634 0.00916691 0 0.000861579 0 0)
(0.210404 0.00903911 0 0.00081065 0 0)
(0.212069 0.00838528 0 0.000736412 0 0)
(0.21331 0.00706609 0 0.000696605 0 0)
(0.21373 0.00494396 0 0.000720107 0 0)
(0.212809 0.00189558 0 0.000761967 0 0)
(0.210359 -0.00215834 0 0.000729728 0 0)
(0.206896 -0.00688914 0 0.0007456 0 0)
(0.203273 -0.0117297 0 0.00117426 0 0)
(0.19983 -0.0170077 0 0.00254209 0 0)
(0.197332 -0.0255353 0 0.00610669 0 0)
(0.198203 -0.0348549 0 0.013181 0 0)
(0.204053 0.00564546 0 0.000243759 0 0)
(0.204001 0.00690631 0 0.000402652 0 0)
(0.204031 0.00722502 0 0.000459708 0 0)
(0.20425 0.00735661 0 0.000492456 0 0)
(0.204734 0.00748993 0 0.000526455 0 0)
(0.205539 0.00768591 0 0.000568551 0 0)
(0.206704 0.00793703 0 0.000612184 0 0)
(0.208232 0.00817454 0 0.00064015 0 0)
(0.21006 0.00828385 0 0.000635404 0 0)
(0.21205 0.00812999 0 0.000596161 0 0)
(0.213981 0.00758946 0 0.000545774 0 0)
(0.215561 0.00657283 0 0.00052581 0 0)
(0.21646 0.00499759 0 0.000566084 0 0)
(0.216248 0.00270544 0 0.000639933 0 0)
(0.214446 -0.000544401 0 0.000664057 0 0)
(0.211181 -0.00490043 0 0.000604288 0 0)
(0.207057 -0.00986187 0 0.00080142 0 0)
(0.202697 -0.0155606 0 0.00190413 0 0)
(0.198757 -0.0251188 0 0.00540534 0 0)
(0.197844 -0.0381413 0 0.0140142 0 0)
(0.203944 0.00564133 0 0.000210932 0 0)
(0.203875 0.00689437 0 0.00035372 0 0)
(0.204016 0.00713034 0 0.00039932 0 0)
(0.20441 0.00714382 0 0.000416824 0 0)
(0.205094 0.00713696 0 0.000430111 0 0)
(0.206089 0.00717264 0 0.000445704 0 0)
(0.207409 0.00725158 0 0.000460749 0 0)
(0.209041 0.00732839 0 0.000466827 0 0)
(0.210931 0.00732371 0 0.000455444 0 0)
(0.212958 0.00714192 0 0.000425886 0 0)
(0.214937 0.00669649 0 0.000391034 0 0)
(0.216643 0.00592514 0 0.000374801 0 0)
(0.217819 0.00476997 0 0.000400541 0 0)
(0.218158 0.00311082 0 0.000468639 0 0)
(0.217188 0.000678458 0 0.000527537 0 0)
(0.214592 -0.00287727 0 0.000502165 0 0)
(0.210529 -0.00754873 0 0.000522748 0 0)
(0.205586 -0.0135316 0 0.00128784 0 0)
(0.200548 -0.0237782 0 0.00443639 0 0)
(0.197568 -0.0409337 0 0.0145768 0 0)
(0.203692 0.00591446 0 0.000204571 0 0)
(0.203537 0.00694383 0 0.000317783 0 0)
(0.203756 0.00698883 0 0.000343257 0 0)
(0.204324 0.00683723 0 0.000344173 0 0)
(0.205219 0.00667936 0 0.000341184 0 0)
(0.206413 0.00656606 0 0.000339283 0 0)
(0.20789 0.0064993 0 0.000337498 0 0)
(0.209619 0.00644657 0 0.000331769 0 0)
(0.211544 0.00635375 0 0.000318189 0 0)
(0.213569 0.00615597 0 0.000296281 0 0)
(0.215549 0.00579153 0 0.000271705 0 0)
(0.217309 0.00521088 0 0.000255838 0 0)
(0.218655 0.00436982 0 0.000262345 0 0)
(0.219365 0.00318799 0 0.00030021 0 0)
(0.219079 0.00144838 0 0.000351555 0 0)
(0.217369 -0.00123003 0 0.000367685 0 0)
(0.213646 -0.00518185 0 0.000342893 0 0)
(0.209025 -0.0112341 0 0.000805804 0 0)
(0.203489 -0.021607 0 0.00332716 0 0)
(0.197692 -0.0435657 0 0.015027 0 0)
(0.203124 0.00552952 0 0.000165551 0 0)
(0.202599 0.00648351 0 0.000247713 0 0)
(0.203068 0.00647978 0 0.000265337 0 0)
(0.203969 0.00627255 0 0.000262456 0 0)
(0.205167 0.00603741 0 0.000254018 0 0)
(0.206622 0.00582834 0 0.000244718 0 0)
(0.208314 0.00566371 0 0.000235837 0 0)
(0.2102 0.00552626 0 0.000226055 0 0)
(0.212228 0.00537971 0 0.000213516 0 0)
(0.214319 0.00517996 0 0.000197618 0 0)
(0.216365 0.00488294 0 0.00018022 0 0)
(0.218238 0.0044495 0 0.000165666 0 0)
(0.219767 0.00384985 0 0.000159763 0 0)
(0.220768 0.00302381 0 0.000168107 0 0)
(0.220952 0.00183087 0 0.000191249 0 0)
(0.220084 -8.93987e-05 0 0.000209309 0 0)
(0.216788 -0.00308962 0 0.000218703 0 0)
(0.214069 -0.00909727 0 0.000515043 0 0)
(0.207509 -0.0190476 0 0.00231803 0 0)
(0.198624 -0.0468516 0 0.015642 0 0)
(0.202349 0.00891781 0 0.000418251 0 0)
(0.201808 0.00855593 0 0.000409008 0 0)
(0.202742 0.00746929 0 0.000328784 0 0)
(0.204063 0.00651145 0 0.000261518 0 0)
(0.205632 0.0058394 0 0.000218708 0 0)
(0.207479 0.00535249 0 0.000189791 0 0)
(0.209563 0.00499714 0 0.00016937 0 0)
(0.211806 0.00472732 0 0.000153548 0 0)
(0.214144 0.00449661 0 0.000139506 0 0)
(0.216513 0.00426617 0 0.000125821 0 0)
(0.218828 0.00400499 0 0.00011236 0 0)
(0.220967 0.0036897 0 9.99096e-05 0 0)
(0.222792 0.00329308 0 8.92974e-05 0 0)
(0.224176 0.00277098 0 8.09703e-05 0 0)
(0.224803 0.002042 0 7.59426e-05 0 0)
(0.224797 0.000752247 0 7.34549e-05 0 0)
(0.221774 -0.00145687 0 9.60862e-05 0 0)
(0.223223 -0.00703465 0 0.000343063 0 0)
(0.210227 -0.0152711 0 0.00135301 0 0)
(0.20291 -0.050068 0 0.0153458 0 0)
(0.201366 0.00333251 0 6.39042e-05 0 0)
(0.200305 0.00203092 0 2.40821e-05 0 0)
(0.203591 0.00213216 0 2.68756e-05 0 0)
(0.207281 0.00272064 0 4.43889e-05 0 0)
(0.211135 0.00289254 0 5.0803e-05 0 0)
(0.214937 0.00282859 0 4.94195e-05 0 0)
(0.218582 0.00273869 0 4.68293e-05 0 0)
(0.222071 0.00266853 0 4.46219e-05 0 0)
(0.225425 0.00260104 0 4.23786e-05 0 0)
(0.228655 0.00251918 0 3.96658e-05 0 0)
(0.231744 0.00241539 0 3.64693e-05 0 0)
(0.234648 0.00228258 0 3.28948e-05 0 0)
(0.237285 0.00211165 0 2.89944e-05 0 0)
(0.239641 0.00186457 0 2.40547e-05 0 0)
(0.2413 0.00151194 0 1.79189e-05 0 0)
(0.242997 0.00076404 0 9.57268e-06 0 0)
(0.240031 -0.000307408 0 1.67087e-05 0 0)
(0.24571 -0.0039865 0 0.00013693 0 0)
(0.214037 -0.00807143 0 0.00041091 0 0)
(0.229326 -0.0467714 0 0.0105782 0 0)
(0.2209 0.0195489 0 0.00176111 0 0)
(0.22966 0.0146022 0 0.00101123 0 0)
(0.240439 0.00920045 0 0.000410242 0 0)
(0.249722 0.00615292 0 0.00018722 0 0)
(0.256936 0.00454973 0 0.000103575 0 0)
(0.263037 0.00360849 0 6.53596e-05 0 0)
(0.268641 0.00298922 0 4.47363e-05 0 0)
(0.273893 0.00255019 0 3.23704e-05 0 0)
(0.278822 0.00222022 0 2.43622e-05 0 0)
(0.283462 0.00196305 0 1.89108e-05 0 0)
(0.287834 0.0017536 0 1.49912e-05 0 0)
(0.29194 0.00157524 0 1.20252e-05 0 0)
(0.295724 0.00141584 0 9.65933e-06 0 0)
(0.299206 0.00126012 0 7.58999e-06 0 0)
(0.301888 0.00108411 0 5.53628e-06 0 0)
(0.30487 0.000828767 0 3.05604e-06 0 0)
(0.302099 0.000507525 0 1.20776e-06 0 0)
(0.313197 -0.000639481 0 8.32817e-06 0 0)
(0.254655 0.00115879 0 6.73791e-05 0 0)
(0.381439 -0.0269448 0 0.00192871 0 0)
)
;

boundaryField
{
    movingWall
    {
        type            calculated;
        value           uniform (0.816327 0 0 0 0 0);
    }
    fixedWalls
    {
        type            calculated;
        value           uniform (0.204082 0 0 0 0 0);
    }
    frontAndBack
    {
        type            empty;
    }
}


// ************************************************************************* //
