/*--------------------------------*- C++ -*----------------------------------*\
| =========                 |                                                 |
| \\      /  F ield         | OpenFOAM: The Open Source CFD Toolbox           |
|  \\    /   O peration     | Version:  2312                                  |
|   \\  /    A nd           | Website:  www.openfoam.com                      |
|    \\/     M anipulation  |                                                 |
\*---------------------------------------------------------------------------*/
FoamFile
{
    version     2.0;
    format      ascii;
    arch        "LSB;label=32;scalar=64";
    class       volScalarField;
    location    "3.5";
    object      Uy;
}
// * * * * * * * * * * * * * * * * * * * * * * * * * * * * * * * * * * * * * //

dimensions      [0 1 -1 0 0 0 0];

internalField   nonuniform List<scalar> 
400
(
2.25368e-07
-5.12912e-08
1.21463e-08
-2.76947e-09
6.41691e-10
-1.49331e-10
3.35127e-11
-7.98306e-12
1.67112e-12
-4.51896e-13
6.5181e-14
-3.32057e-14
-6.97029e-15
-1.91423e-14
-2.81266e-14
-3.45372e-14
-3.0146e-14
-2.17615e-14
-1.85769e-14
-2.57769e-14
-2.30518e-07
5.24099e-08
-1.23894e-08
2.81701e-09
-6.52731e-10
1.49336e-10
-3.47123e-11
7.29831e-12
-2.02466e-12
2.64315e-13
-1.38146e-13
-2.65127e-15
-2.56018e-14
-4.52808e-14
-7.89242e-14
-1.02613e-13
-9.34056e-14
-5.61996e-14
-5.93305e-14
-7.64282e-14
2.40887e-07
-5.4822e-08
1.2976e-08
-2.95871e-09
6.81835e-10
-1.60964e-10
3.44266e-11
-9.06597e-12
1.50423e-12
-5.68033e-13
5.5373e-14
-2.59938e-14
-9.53605e-15
-6.16523e-14
-1.17836e-13
-1.58954e-13
-1.46605e-13
-9.11707e-14
-9.48118e-14
-1.23952e-13
-2.55492e-07
5.83183e-08
-1.38507e-08
3.13661e-09
-7.395e-10
1.66237e-10
-3.99504e-11
8.13209e-12
-2.33178e-12
3.7016e-13
-7.95383e-14
6.73572e-14
1.13905e-14
-5.6403e-14
-1.42454e-13
-2.03182e-13
-1.91328e-13
-1.15793e-13
-1.25569e-13
-1.67163e-13
2.70968e-07
-6.27137e-08
1.48312e-08
-3.41991e-09
7.9433e-10
-1.86827e-10
4.11075e-11
-1.03346e-11
2.09199e-12
-4.38296e-13
2.56376e-13
1.06133e-13
7.82368e-14
-3.53441e-14
-1.48697e-13
-2.30593e-13
-2.20627e-13
-1.34534e-13
-1.49105e-13
-2.04346e-13
-2.83607e-07
6.64418e-08
-1.5726e-08
3.67175e-09
-8.64174e-10
2.00897e-10
-4.71532e-11
1.08441e-11
-2.32244e-12
8.70477e-13
1.76206e-13
2.7942e-13
1.45288e-13
1.01899e-14
-1.37784e-13
-2.41899e-13
-2.3833e-13
-1.42398e-13
-1.65585e-13
-2.34691e-13
2.95424e-07
-6.97364e-08
1.65171e-08
-3.89378e-09
9.19595e-10
-2.16711e-10
5.11969e-11
-1.15455e-11
3.34948e-12
-9.43634e-14
6.52631e-13
3.52922e-13
2.55279e-13
6.49426e-14
-1.09885e-13
-2.36602e-13
-2.40329e-13
-1.42826e-13
-1.74444e-13
-2.57683e-13
-3.06863e-07
7.27989e-08
-1.72458e-08
4.09008e-09
-9.6787e-10
2.30331e-10
-5.34608e-11
1.37713e-11
-2.14605e-12
1.54527e-12
5.27684e-13
5.72171e-13
3.40443e-13
1.36773e-13
-7.09878e-14
-2.17311e-13
-2.31324e-13
-1.34191e-13
-1.75933e-13
-2.7319e-13
3.17967e-07
-7.56609e-08
1.79362e-08
-4.2648e-09
1.01512e-09
-2.39198e-10
5.87237e-11
-1.22823e-11
4.45388e-12
3.00728e-13
1.06429e-12
6.26159e-13
4.6103e-13
2.03263e-13
-2.23897e-14
-1.87371e-13
-2.10856e-13
-1.1893e-13
-1.70913e-13
-2.81165e-13
-3.28839e-07
7.84459e-08
-1.85899e-08
4.43802e-09
-1.05226e-09
2.53027e-10
-5.81093e-11
1.59158e-11
-1.92317e-12
2.09102e-12
8.4623e-13
8.37033e-13
5.31125e-13
2.77099e-13
2.74471e-14
-1.49587e-13
-1.83427e-13
-9.86502e-14
-1.59693e-13
-2.82136e-13
3.39163e-07
-8.10377e-08
1.92144e-08
-4.58813e-09
1.09534e-09
-2.58014e-10
6.44575e-11
-1.29163e-11
5.24305e-12
5.89352e-13
1.36829e-12
8.38153e-13
6.29783e-13
3.32543e-13
7.87934e-14
-1.08887e-13
-1.50838e-13
-7.43881e-14
-1.44227e-13
-2.76699e-13
-3.49036e-07
8.35236e-08
-1.97951e-08
4.74164e-09
-1.1254e-09
2.71814e-10
-6.21447e-11
1.74766e-11
-1.8545e-12
2.43401e-12
1.038e-12
1.00483e-12
6.60653e-13
3.86776e-13
1.22315e-13
-6.68777e-14
-1.15752e-13
-4.93456e-14
-1.24409e-13
-2.6572e-13
3.58065e-07
-8.57562e-08
2.03341e-08
-4.86676e-09
1.1635e-09
-2.74123e-10
6.89616e-11
-1.36237e-11
5.71987e-12
6.94811e-13
1.51071e-12
9.33965e-13
7.15576e-13
4.12745e-13
1.59595e-13
-2.95121e-14
-8.15333e-14
-2.27825e-14
-1.0359e-13
-2.49481e-13
-3.66413e-07
8.78378e-08
-2.08183e-08
4.99579e-09
-1.18649e-09
2.87095e-10
-6.56236e-11
1.85399e-11
-1.97663e-12
2.54986e-12
1.06148e-12
1.03773e-12
6.91831e-13
4.32052e-13
1.82566e-13
4.02199e-15
-4.94504e-14
-1.40718e-15
-8.09988e-14
-2.2822e-13
3.73682e-07
-8.96091e-08
2.12476e-08
-5.09147e-09
1.21805e-09
-2.87085e-10
7.23021e-11
-1.43803e-11
5.88583e-12
5.93397e-13
1.46379e-12
8.83897e-13
6.90007e-13
4.16859e-13
1.94885e-13
2.77135e-14
-2.39061e-14
1.78672e-14
-6.12394e-14
-2.02235e-13
-3.80079e-07
9.11837e-08
-2.16102e-08
5.19003e-09
-1.23268e-09
2.98434e-10
-6.83536e-11
1.90861e-11
-2.29506e-12
2.41484e-12
8.94224e-13
9.12607e-13
6.03613e-13
3.91777e-13
1.8788e-13
4.25778e-14
-4.33969e-15
2.71409e-14
-4.31993e-14
-1.72199e-13
3.85255e-07
-9.24366e-08
2.19182e-08
-5.25387e-09
1.25764e-09
-2.96455e-10
7.4391e-11
-1.52317e-11
5.68085e-12
2.37315e-13
1.19174e-12
6.59721e-13
5.30001e-13
3.23339e-13
1.63822e-13
4.33965e-14
6.51203e-15
3.49338e-14
-2.7963e-14
-1.39603e-13
-3.89444e-07
9.34545e-08
-2.21438e-08
5.32258e-09
-1.2637e-09
3.05883e-10
-7.0649e-11
1.90134e-11
-2.93048e-12
1.98329e-12
5.07104e-13
6.22023e-13
3.92978e-13
2.66188e-13
1.37995e-13
5.00545e-14
2.07582e-14
3.70385e-14
-1.2295e-14
-1.05279e-13
3.92302e-07
-9.4115e-08
2.23122e-08
-5.34288e-09
1.27789e-09
-3.01612e-10
7.43764e-11
-1.62635e-11
4.9791e-12
-3.71548e-13
7.10085e-13
2.92125e-13
2.64278e-13
1.57154e-13
8.50426e-14
2.82557e-14
1.21049e-14
3.46203e-14
6.89577e-15
-6.76376e-14
-3.94579e-07
9.51561e-08
-2.25609e-08
5.44289e-09
-1.2999e-09
3.12623e-10
-7.4752e-11
1.84246e-11
-4.10144e-12
1.25018e-12
-1.15455e-13
1.61693e-13
5.26695e-14
4.35562e-14
1.54616e-14
1.10328e-16
-6.44078e-16
1.46338e-14
8.85629e-15
-2.35264e-14
)
;

boundaryField
{
    movingWall
    {
        type            calculated;
        value           uniform -0;
    }
    fixedWalls
    {
        type            calculated;
        value           uniform -0;
    }
    frontAndBack
    {
        type            empty;
    }
}


// ************************************************************************* //
