/*--------------------------------*- C++ -*----------------------------------*\
| =========                 |                                                 |
| \\      /  F ield         | OpenFOAM: The Open Source CFD Toolbox           |
|  \\    /   O peration     | Version:  2312                                  |
|   \\  /    A nd           | Website:  www.openfoam.com                      |
|    \\/     M anipulation  |                                                 |
\*---------------------------------------------------------------------------*/
FoamFile
{
    version     2.0;
    format      ascii;
    arch        "LSB;label=32;scalar=64";
    class       volVectorField;
    location    "3.5";
    object      vorticityField;
}
// * * * * * * * * * * * * * * * * * * * * * * * * * * * * * * * * * * * * * //

dimensions      [0 0 -1 0 0 0 0];

internalField   nonuniform List<vector> 
400
(
(0 -0 1.92705e-05)
(0 -0 -2.16912e-05)
(0 -0 5.01732e-06)
(0 -0 -1.18237e-06)
(0 -0 2.74426e-07)
(0 -0 -6.36275e-08)
(0 -0 1.52233e-08)
(0 -0 -3.29323e-09)
(0 -0 9.33148e-10)
(0 -0 -9.27768e-11)
(0 -0 1.26057e-10)
(0 -0 6.62396e-11)
(0 -0 7.49424e-11)
(0 -0 6.65415e-11)
(0 -0 5.82272e-11)
(0 -0 4.61477e-11)
(0 -0 3.38307e-11)
(0 -0 2.46841e-11)
(0 -0 1.71354e-11)
(0 -0 8.06746e-12)
(0 -0 -2.14659e-05)
(0 -0 2.25258e-05)
(0 -0 -5.27509e-06)
(0 -0 1.23497e-06)
(0 -0 -2.89029e-07)
(0 -0 6.76288e-08)
(0 -0 -1.58164e-08)
(0 -0 3.69621e-09)
(0 -0 -8.70908e-10)
(0 -0 1.92067e-10)
(0 -0 -5.97648e-11)
(0 -0 -2.86727e-12)
(0 -0 -1.75444e-11)
(0 -0 -1.43853e-11)
(0 -0 -1.24281e-11)
(0 -0 -6.1102e-12)
(0 -0 1.57843e-12)
(0 -0 1.67278e-12)
(0 -0 -2.94443e-12)
(0 -0 1.3359e-11)
(0 -0 2.21773e-05)
(0 -0 -2.34708e-05)
(0 -0 5.49386e-06)
(0 -0 -1.2855e-06)
(0 -0 3.00771e-07)
(0 -0 -7.03214e-08)
(0 -0 1.64616e-08)
(0 -0 -3.8403e-09)
(0 -0 8.95629e-10)
(0 -0 -2.20645e-10)
(0 -0 3.25741e-11)
(0 -0 -3.13191e-11)
(0 -0 -1.9856e-11)
(0 -0 -2.39759e-11)
(0 -0 -1.95151e-11)
(0 -0 -9.8429e-12)
(0 -0 2.60412e-12)
(0 -0 2.71274e-12)
(0 -0 -4.95868e-12)
(0 -0 2.15241e-11)
(0 -0 -2.30058e-05)
(0 -0 2.48087e-05)
(0 -0 -5.81921e-06)
(0 -0 1.36423e-06)
(0 -0 -3.19622e-07)
(0 -0 7.48888e-08)
(0 -0 -1.75089e-08)
(0 -0 4.10843e-09)
(0 -0 -9.63678e-10)
(0 -0 2.10019e-10)
(0 -0 -7.4841e-11)
(0 -0 -1.4624e-11)
(0 -0 -3.33011e-11)
(0 -0 -3.09427e-11)
(0 -0 -2.67125e-11)
(0 -0 -1.33713e-11)
(0 -0 3.23651e-12)
(0 -0 3.26915e-12)
(0 -0 -7.19696e-12)
(0 -0 2.88395e-11)
(0 -0 2.32428e-05)
(0 -0 -2.61255e-05)
(0 -0 6.16108e-06)
(0 -0 -1.45109e-06)
(0 -0 3.41475e-07)
(0 -0 -8.02317e-08)
(0 -0 1.88762e-08)
(0 -0 -4.41921e-09)
(0 -0 1.0337e-09)
(0 -0 -2.6157e-10)
(0 -0 2.95605e-11)
(0 -0 -4.64639e-11)
(0 -0 -3.42055e-11)
(0 -0 -3.95257e-11)
(0 -0 -3.23998e-11)
(0 -0 -1.65984e-11)
(0 -0 3.72407e-12)
(0 -0 3.60142e-12)
(0 -0 -9.50197e-12)
(0 -0 3.47489e-11)
(0 -0 -2.3074e-05)
(0 -0 2.70882e-05)
(0 -0 -6.40962e-06)
(0 -0 1.51651e-06)
(0 -0 -3.58736e-07)
(0 -0 8.49042e-08)
(0 -0 -2.0044e-08)
(0 -0 4.74936e-09)
(0 -0 -1.1257e-09)
(0 -0 2.42709e-10)
(0 -0 -9.42067e-11)
(0 -0 -2.36374e-11)
(0 -0 -4.67097e-11)
(0 -0 -4.40552e-11)
(0 -0 -3.80838e-11)
(0 -0 -1.946e-11)
(0 -0 3.82435e-12)
(0 -0 3.50682e-12)
(0 -0 -1.17772e-11)
(0 -0 3.95127e-11)
(0 -0 2.30511e-05)
(0 -0 -2.79952e-05)
(0 -0 6.63144e-06)
(0 -0 -1.57076e-06)
(0 -0 3.72194e-07)
(0 -0 -8.81363e-08)
(0 -0 2.09155e-08)
(0 -0 -4.94204e-09)
(0 -0 1.16476e-09)
(0 -0 -3.01913e-10)
(0 -0 3.00647e-11)
(0 -0 -5.81938e-11)
(0 -0 -4.42749e-11)
(0 -0 -5.0611e-11)
(0 -0 -4.1918e-11)
(0 -0 -2.20705e-11)
(0 -0 3.60421e-12)
(0 -0 2.87519e-12)
(0 -0 -1.4142e-11)
(0 -0 4.26163e-11)
(0 -0 -2.33163e-05)
(0 -0 2.89478e-05)
(0 -0 -6.8643e-06)
(0 -0 1.62755e-06)
(0 -0 -3.85822e-07)
(0 -0 9.1526e-08)
(0 -0 -2.16691e-08)
(0 -0 5.15148e-09)
(0 -0 -1.23003e-09)
(0 -0 2.63145e-10)
(0 -0 -1.0742e-10)
(0 -0 -2.93492e-11)
(0 -0 -5.51678e-11)
(0 -0 -5.23104e-11)
(0 -0 -4.5356e-11)
(0 -0 -2.38127e-11)
(0 -0 3.02651e-12)
(0 -0 2.01541e-12)
(0 -0 -1.65562e-11)
(0 -0 4.43431e-11)
(0 -0 2.37284e-05)
(0 -0 -2.99023e-05)
(0 -0 7.09536e-06)
(0 -0 -1.6834e-06)
(0 -0 3.99518e-07)
(0 -0 -9.47679e-08)
(0 -0 2.25248e-08)
(0 -0 -5.33585e-09)
(0 -0 1.25654e-09)
(0 -0 -3.29364e-10)
(0 -0 3.07542e-11)
(0 -0 -6.4527e-11)
(0 -0 -4.92286e-11)
(0 -0 -5.62295e-11)
(0 -0 -4.68154e-11)
(0 -0 -2.52434e-11)
(0 -0 2.42604e-12)
(0 -0 9.04304e-13)
(0 -0 -1.87172e-11)
(0 -0 4.46657e-11)
(0 -0 -2.42259e-05)
(0 -0 3.08621e-05)
(0 -0 -7.32788e-06)
(0 -0 1.73976e-06)
(0 -0 -4.13009e-07)
(0 -0 9.81139e-08)
(0 -0 -2.32707e-08)
(0 -0 5.53561e-09)
(0 -0 -1.32702e-09)
(0 -0 2.82659e-10)
(0 -0 -1.15777e-10)
(0 -0 -3.07516e-11)
(0 -0 -5.81346e-11)
(0 -0 -5.49215e-11)
(0 -0 -4.79812e-11)
(0 -0 -2.5885e-11)
(0 -0 1.57004e-12)
(0 -0 -2.82822e-13)
(0 -0 -2.06254e-11)
(0 -0 4.36678e-11)
(0 -0 2.47516e-05)
(0 -0 -3.17831e-05)
(0 -0 7.55029e-06)
(0 -0 -1.7934e-06)
(0 -0 4.26098e-07)
(0 -0 -1.01196e-07)
(0 -0 2.40704e-08)
(0 -0 -5.71349e-09)
(0 -0 1.3439e-09)
(0 -0 -3.52917e-10)
(0 -0 3.49631e-11)
(0 -0 -6.61257e-11)
(0 -0 -4.89618e-11)
(0 -0 -5.63729e-11)
(0 -0 -4.71787e-11)
(0 -0 -2.62429e-11)
(0 -0 8.20702e-13)
(0 -0 -1.48021e-12)
(0 -0 -2.21827e-11)
(0 -0 4.16318e-11)
(0 -0 -2.52813e-05)
(0 -0 3.26715e-05)
(0 -0 -7.76456e-06)
(0 -0 1.8451e-06)
(0 -0 -4.38425e-07)
(0 -0 1.04235e-07)
(0 -0 -2.47532e-08)
(0 -0 5.88826e-09)
(0 -0 -1.41463e-09)
(0 -0 3.03209e-10)
(0 -0 -1.19527e-10)
(0 -0 -2.72725e-11)
(0 -0 -5.55711e-11)
(0 -0 -5.20449e-11)
(0 -0 -4.58532e-11)
(0 -0 -2.52703e-11)
(0 -0 3.97952e-13)
(0 -0 -2.3836e-12)
(0 -0 -2.34805e-11)
(0 -0 3.86063e-11)
(0 -0 2.57987e-05)
(0 -0 -3.34893e-05)
(0 -0 7.96132e-06)
(0 -0 -1.89236e-06)
(0 -0 4.49901e-07)
(0 -0 -1.06931e-07)
(0 -0 2.54425e-08)
(0 -0 -6.048e-09)
(0 -0 1.42278e-09)
(0 -0 -3.70528e-10)
(0 -0 4.29702e-11)
(0 -0 -6.27352e-11)
(0 -0 -4.33671e-11)
(0 -0 -5.09089e-11)
(0 -0 -4.26536e-11)
(0 -0 -2.39231e-11)
(0 -0 1.57964e-13)
(0 -0 -3.23569e-12)
(0 -0 -2.4242e-11)
(0 -0 3.48193e-11)
(0 -0 -2.62793e-05)
(0 -0 3.42468e-05)
(0 -0 -8.14329e-06)
(0 -0 1.93609e-06)
(0 -0 -4.60299e-07)
(0 -0 1.0948e-07)
(0 -0 -2.60203e-08)
(0 -0 6.18886e-09)
(0 -0 -1.48695e-09)
(0 -0 3.23869e-10)
(0 -0 -1.18253e-10)
(0 -0 -1.94009e-11)
(0 -0 -4.79638e-11)
(0 -0 -4.39334e-11)
(0 -0 -3.91438e-11)
(0 -0 -2.16024e-11)
(0 -0 3.24444e-13)
(0 -0 -3.453e-12)
(0 -0 -2.41449e-11)
(0 -0 3.04611e-11)
(0 -0 2.67418e-05)
(0 -0 -3.49152e-05)
(0 -0 8.30354e-06)
(0 -0 -1.97446e-06)
(0 -0 4.69578e-07)
(0 -0 -1.11659e-07)
(0 -0 2.65695e-08)
(0 -0 -6.32082e-09)
(0 -0 1.48965e-09)
(0 -0 -3.81136e-10)
(0 -0 5.42035e-11)
(0 -0 -5.46644e-11)
(0 -0 -3.31242e-11)
(0 -0 -4.06759e-11)
(0 -0 -3.39001e-11)
(0 -0 -1.91415e-11)
(0 -0 2.89311e-13)
(0 -0 -3.6249e-12)
(0 -0 -2.30131e-11)
(0 -0 2.59679e-11)
(0 -0 -2.71579e-05)
(0 -0 3.55065e-05)
(0 -0 -8.44524e-06)
(0 -0 2.00842e-06)
(0 -0 -4.77641e-07)
(0 -0 1.13625e-07)
(0 -0 -2.70196e-08)
(0 -0 6.42588e-09)
(0 -0 -1.54155e-09)
(0 -0 3.43486e-10)
(0 -0 -1.13089e-10)
(0 -0 -8.59674e-12)
(0 -0 -3.69855e-11)
(0 -0 -3.23847e-11)
(0 -0 -2.93905e-11)
(0 -0 -1.60778e-11)
(0 -0 2.72351e-13)
(0 -0 -3.58781e-12)
(0 -0 -2.09098e-11)
(0 -0 2.11604e-11)
(0 -0 2.7474e-05)
(0 -0 -3.59775e-05)
(0 -0 8.55735e-06)
(0 -0 -2.03507e-06)
(0 -0 4.84029e-07)
(0 -0 -1.15117e-07)
(0 -0 2.73875e-08)
(0 -0 -6.51827e-09)
(0 -0 1.53901e-09)
(0 -0 -3.86163e-10)
(0 -0 6.56323e-11)
(0 -0 -4.50858e-11)
(0 -0 -2.1468e-11)
(0 -0 -2.892e-11)
(0 -0 -2.39285e-11)
(0 -0 -1.39692e-11)
(0 -0 -6.56535e-13)
(0 -0 -4.04381e-12)
(0 -0 -1.82127e-11)
(0 -0 1.66211e-11)
(0 -0 -2.78524e-05)
(0 -0 3.63907e-05)
(0 -0 -8.65629e-06)
(0 -0 2.05874e-06)
(0 -0 -4.89646e-07)
(0 -0 1.16478e-07)
(0 -0 -2.77034e-08)
(0 -0 6.58871e-09)
(0 -0 -1.57543e-09)
(0 -0 3.60943e-10)
(0 -0 -1.04088e-10)
(0 -0 4.49807e-12)
(0 -0 -2.32778e-11)
(0 -0 -1.80715e-11)
(0 -0 -1.70597e-11)
(0 -0 -8.98607e-12)
(0 -0 8.12591e-13)
(0 -0 -2.709e-12)
(0 -0 -1.50991e-11)
(0 -0 1.14321e-11)
(0 -0 2.80301e-05)
(0 -0 -3.66786e-05)
(0 -0 8.73193e-06)
(0 -0 -2.07844e-06)
(0 -0 4.94764e-07)
(0 -0 -1.17782e-07)
(0 -0 2.80429e-08)
(0 -0 -6.67671e-09)
(0 -0 1.58762e-09)
(0 -0 -3.82611e-10)
(0 -0 8.49072e-11)
(0 -0 -2.6583e-11)
(0 -0 -5.40923e-13)
(0 -0 -7.40678e-12)
(0 -0 -4.51437e-12)
(0 -0 2.68548e-13)
(0 -0 7.06036e-12)
(0 -0 2.54196e-12)
(0 -0 -1.09847e-11)
(0 -0 5.17972e-12)
(0 -0 -2.89473e-05)
(0 -0 3.70298e-05)
(0 -0 -8.89753e-06)
(0 -0 2.11321e-06)
(0 -0 -5.09655e-07)
(0 -0 1.20718e-07)
(0 -0 -2.97569e-08)
(0 -0 6.58771e-09)
(0 -0 -1.99188e-09)
(0 -0 1.95826e-10)
(0 -0 -2.386e-10)
(0 -0 -6.29577e-11)
(0 -0 -5.41247e-11)
(0 -0 -2.02007e-11)
(0 -0 -4.31748e-12)
(0 -0 3.97308e-12)
(0 -0 4.46101e-12)
(0 -0 6.75052e-12)
(0 -0 9.65519e-12)
(0 -0 6.10198e-12)
)
;

boundaryField
{
    movingWall
    {
        type            calculated;
        value           nonuniform List<vector> 
20
(
(0 -0 -3.34506e-05)
(0 -0 3.79977e-05)
(0 -0 -9.33444e-06)
(0 -0 2.20465e-06)
(0 -0 -5.45391e-07)
(0 -0 1.29099e-07)
(0 -0 -3.30489e-08)
(0 -0 6.94151e-09)
(0 -0 -2.53723e-09)
(0 -0 3.66657e-11)
(0 -0 -4.07632e-10)
(0 -0 -1.53451e-10)
(0 -0 -1.11911e-10)
(0 -0 -4.82185e-11)
(0 -0 -1.50027e-11)
(0 -0 -2.33887e-13)
(0 -0 -1.03455e-12)
(0 -0 8.14428e-12)
(0 -0 2.39396e-11)
(0 -0 1.19475e-11)
)
;
    }
    fixedWalls
    {
        type            calculated;
        value           nonuniform List<vector> 
60
(
(0 -0 9.20099e-05)
(0 -0 -9.58623e-05)
(0 -0 9.99255e-05)
(0 -0 -0.000105485)
(0 -0 0.000110805)
(0 -0 -0.0001148)
(0 -0 0.000118652)
(0 -0 -0.000122655)
(0 -0 0.000126685)
(0 -0 -0.000130722)
(0 -0 0.000134604)
(0 -0 -0.000138344)
(0 -0 0.000141794)
(0 -0 -0.000144987)
(0 -0 0.000147807)
(0 -0 -0.0001503)
(0 -0 0.000152294)
(0 -0 -0.000154031)
(0 -0 0.000155132)
(0 -0 -0.000156837)
(0 -0 1.39428e-11)
(0 -0 3.03544e-11)
(0 -0 4.92286e-11)
(0 -0 6.64316e-11)
(0 -0 8.11423e-11)
(0 -0 9.33615e-11)
(0 -0 1.02477e-10)
(0 -0 1.08707e-10)
(0 -0 1.11924e-10)
(0 -0 1.12339e-10)
(0 -0 1.10219e-10)
(0 -0 1.05881e-10)
(0 -0 9.93046e-11)
(0 -0 9.0827e-11)
(0 -0 8.05143e-11)
(0 -0 6.85002e-11)
(0 -0 5.57058e-11)
(0 -0 4.17862e-11)
(0 -0 2.61606e-11)
(0 -0 1.40455e-11)
(0 -0 1.42036e-05)
(0 -0 -2.07819e-05)
(0 -0 4.61142e-06)
(0 -0 -1.11202e-06)
(0 -0 2.48888e-07)
(0 -0 -5.67012e-08)
(0 -0 1.38853e-08)
(0 -0 -2.58873e-09)
(0 -0 9.53045e-10)
(0 -0 5.52337e-11)
(0 -0 2.13376e-10)
(0 -0 1.57098e-10)
(0 -0 1.5666e-10)
(0 -0 1.41947e-10)
(0 -0 1.2245e-10)
(0 -0 9.55437e-11)
(0 -0 6.69139e-11)
(0 -0 4.85856e-11)
(0 -0 3.60138e-11)
(0 -0 1.18073e-11)
)
;
    }
    frontAndBack
    {
        type            empty;
    }
}


// ************************************************************************* //
