/*--------------------------------*- C++ -*----------------------------------*\
| =========                 |                                                 |
| \\      /  F ield         | OpenFOAM: The Open Source CFD Toolbox           |
|  \\    /   O peration     | Version:  2312                                  |
|   \\  /    A nd           | Website:  www.openfoam.com                      |
|    \\/     M anipulation  |                                                 |
\*---------------------------------------------------------------------------*/
FoamFile
{
    version     2.0;
    format      ascii;
    arch        "LSB;label=32;scalar=64";
    class       volVectorField;
    location    "3.5";
    object      wallShearStress;
}
// * * * * * * * * * * * * * * * * * * * * * * * * * * * * * * * * * * * * * //

dimensions      [0 2 -2 0 0 0 0];

internalField   uniform (0 0 0);

boundaryField
{
    movingWall
    {
        type            calculated;
        value           uniform (0 0 0);
    }
    fixedWalls
    {
        type            calculated;
        value           nonuniform List<vector> 
60
(
(-4.6155e-11 -8.82842e-10 0)
(1.5242e-10 8.85522e-10 0)
(-2.54308e-10 -9.27839e-10 0)
(3.52573e-10 9.89084e-10 0)
(-4.31786e-10 -1.0597e-09 0)
(4.77745e-10 1.12086e-09 0)
(-5.00941e-10 -1.17687e-09 0)
(5.02195e-10 1.22835e-09 0)
(-4.95283e-10 -1.27689e-09 0)
(4.74513e-10 1.32349e-09 0)
(-4.50717e-10 -1.36726e-09 0)
(4.16399e-10 1.40884e-09 0)
(-3.81107e-10 -1.44658e-09 0)
(3.37824e-10 1.48143e-09 0)
(-2.9446e-10 -1.51138e-09 0)
(2.46306e-10 1.53763e-09 0)
(-1.99238e-10 -1.5591e-09 0)
(1.46866e-10 1.57524e-09 0)
(-1.03271e-10 -1.58709e-09 0)
(4.82948e-11 1.58827e-09 0)
(1.66428e-16 6.67869e-17 0)
(1.60189e-16 3.07881e-16 0)
(1.49308e-16 4.99333e-16 0)
(1.28203e-16 6.7299e-16 0)
(1.08967e-16 8.23349e-16 0)
(8.05586e-17 9.43915e-16 0)
(6.00089e-17 1.03669e-15 0)
(2.98655e-17 1.09845e-15 0)
(1.07005e-17 1.13008e-15 0)
(-1.83723e-17 1.13369e-15 0)
(-3.40366e-17 1.1114e-15 0)
(-5.60407e-17 1.06694e-15 0)
(-7.17774e-17 1.0028e-15 0)
(-9.42625e-17 9.17486e-16 0)
(-1.08993e-16 8.12733e-16 0)
(-1.25243e-16 6.92591e-16 0)
(-1.358e-16 5.59769e-16 0)
(-1.39163e-16 4.24367e-16 0)
(-1.61675e-16 2.79495e-16 0)
(-2.00516e-16 4.77561e-17 0)
(-2.06117e-10 -1.19752e-09 0)
(2.18624e-10 2.68614e-10 0)
(-5.09293e-11 -6.39439e-11 0)
(1.1889e-11 1.43911e-11 0)
(-2.75138e-12 -3.36514e-12 0)
(6.49343e-13 7.74971e-13 0)
(-1.43842e-13 -1.72866e-13 0)
(3.7796e-14 4.18273e-14 0)
(-5.53187e-15 -8.27963e-15 0)
(3.76421e-15 2.45727e-15 0)
(1.29638e-15 -2.61799e-16 0)
(1.71528e-15 2.04383e-16 0)
(1.53847e-15 7.07851e-17 0)
(1.46178e-15 1.54315e-16 0)
(1.25529e-15 2.3042e-16 0)
(9.59476e-16 2.81415e-16 0)
(6.43588e-16 2.4119e-16 0)
(4.62718e-16 1.65031e-16 0)
(3.68169e-16 1.65936e-16 0)
(2.9365e-17 2.10299e-16 0)
)
;
    }
    frontAndBack
    {
        type            empty;
    }
}


// ************************************************************************* //
