/*--------------------------------*- C++ -*----------------------------------*\
| =========                 |                                                 |
| \\      /  F ield         | OpenFOAM: The Open Source CFD Toolbox           |
|  \\    /   O peration     | Version:  2312                                  |
|   \\  /    A nd           | Website:  www.openfoam.com                      |
|    \\/     M anipulation  |                                                 |
\*---------------------------------------------------------------------------*/
FoamFile
{
    version     2.0;
    format      ascii;
    arch        "LSB;label=32;scalar=64";
    class       volScalarField;
    location    "3.5";
    object      yPlus;
}
// * * * * * * * * * * * * * * * * * * * * * * * * * * * * * * * * * * * * * //

dimensions      [0 0 0 0 0 0 0];

internalField   uniform 0;

boundaryField
{
    movingWall
    {
        type            calculated;
        value           nonuniform List<scalar> 
20
(
0.00993324
0.00487793
0.00237588
0.00116688
0.000570618
0.000279757
0.000137205
6.78734e-05
3.38563e-05
1.96422e-05
1.37462e-05
1.06693e-05
7.99573e-06
5.46506e-06
2.77518e-06
9.27828e-07
1.25005e-06
2.40764e-06
4.18186e-06
2.96705e-06
)
;
    }
    fixedWalls
    {
        type            calculated;
        value           nonuniform List<scalar> 
60
(
0.00750849
0.00761663
0.00782582
0.00810847
0.00839372
0.00860975
0.00879101
0.00894664
0.00908971
0.00921927
0.00933985
0.00944924
0.00954865
0.00963743
0.00971458
0.00978139
0.00983554
0.0098787
0.00990894
0.00993324
2.81459e-06
4.42903e-06
5.59165e-06
6.47587e-06
7.15363e-06
7.66229e-06
8.0275e-06
8.26443e-06
8.384e-06
8.39867e-06
8.31764e-06
8.15191e-06
7.89993e-06
7.55849e-06
7.11829e-06
6.57475e-06
5.92972e-06
5.16377e-06
4.19999e-06
2.96705e-06
0.00750849
0.00358151
0.00174365
0.000832336
0.000400789
0.000193446
9.15404e-05
4.50574e-05
2.08822e-05
1.32647e-05
1.04127e-05
1.01504e-05
9.85135e-06
9.49559e-06
8.82111e-06
7.77565e-06
6.45827e-06
5.48981e-06
4.8196e-06
2.81459e-06
)
;
    }
    frontAndBack
    {
        type            empty;
    }
}


// ************************************************************************* //
