/*--------------------------------*- C++ -*----------------------------------*\
| =========                 |                                                 |
| \\      /  F ield         | OpenFOAM: The Open Source CFD Toolbox           |
|  \\    /   O peration     | Version:  2312                                  |
|   \\  /    A nd           | Website:  www.openfoam.com                      |
|    \\/     M anipulation  |                                                 |
\*---------------------------------------------------------------------------*/
FoamFile
{
    version     2.0;
    format      ascii;
    arch        "LSB;label=32;scalar=64";
    class       volVectorField;
    location    "7.75";
    object      diffU;
}
// * * * * * * * * * * * * * * * * * * * * * * * * * * * * * * * * * * * * * //

dimensions      [0 1 -1 0 0 0 0];

internalField   nonuniform List<vector> 
400
(
(0 0 0)
(-5.10703e-15 -1.07586e-14 0)
(-3.88578e-15 -9.29222e-15 0)
(-4.44089e-15 -9.62155e-15 0)
(-4.32987e-15 -9.66945e-15 0)
(-4.44089e-15 -9.6913e-15 0)
(-4.32987e-15 -9.75121e-15 0)
(-4.32987e-15 -9.76327e-15 0)
(-4.10783e-15 -9.70193e-15 0)
(-4.21885e-15 -9.63252e-15 0)
(-4.21885e-15 -9.54855e-15 0)
(-4.32987e-15 -9.46866e-15 0)
(-4.55191e-15 -9.46317e-15 0)
(-4.55191e-15 -9.55417e-15 0)
(-4.66294e-15 -9.56939e-15 0)
(-4.66294e-15 -9.53425e-15 0)
(-4.88498e-15 -9.59796e-15 0)
(-4.88498e-15 -9.69252e-15 0)
(-4.66294e-15 -9.73334e-15 0)
(-4.66294e-15 -9.65898e-15 0)
(-1.31006e-14 -6.42761e-15 0)
(-2.77556e-15 -9.82283e-15 0)
(-5.77316e-15 -9.4531e-15 0)
(-4.66294e-15 -9.625e-15 0)
(-4.88498e-15 -9.67553e-15 0)
(-5.10703e-15 -9.70273e-15 0)
(-4.88498e-15 -9.72339e-15 0)
(-5.10703e-15 -9.63797e-15 0)
(-5.10703e-15 -9.53712e-15 0)
(-5.32907e-15 -9.44726e-15 0)
(-5.32907e-15 -9.54694e-15 0)
(-5.55112e-15 -9.58115e-15 0)
(-5.10703e-15 -9.6271e-15 0)
(-4.88498e-15 -9.71772e-15 0)
(-5.10703e-15 -9.78173e-15 0)
(-4.55191e-15 -9.69608e-15 0)
(-4.44089e-15 -9.54002e-15 0)
(-4.55191e-15 -9.61827e-15 0)
(-4.66294e-15 -9.76283e-15 0)
(-4.88498e-15 -9.67772e-15 0)
(-3.21965e-15 -1.7522e-14 0)
(-3.9968e-15 -7.7963e-15 0)
(-4.32987e-15 -9.63073e-15 0)
(-4.10783e-15 -9.35807e-15 0)
(-4.66294e-15 -9.48362e-15 0)
(-4.44089e-15 -9.64181e-15 0)
(-4.66294e-15 -9.63954e-15 0)
(-5.10703e-15 -9.62675e-15 0)
(-5.10703e-15 -9.61825e-15 0)
(-4.55191e-15 -9.50434e-15 0)
(-4.66294e-15 -9.58606e-15 0)
(-4.32987e-15 -9.61564e-15 0)
(-4.44089e-15 -9.6718e-15 0)
(-4.66294e-15 -9.72385e-15 0)
(-4.88498e-15 -9.75734e-15 0)
(-5.10703e-15 -9.78723e-15 0)
(-5.32907e-15 -9.69995e-15 0)
(-5.10703e-15 -9.74495e-15 0)
(-5.10703e-15 -9.81179e-15 0)
(-4.66294e-15 -9.72172e-15 0)
(-1.15463e-14 -1.42101e-14 0)
(-3.9968e-15 -8.82506e-15 0)
(-5.10703e-15 -9.77412e-15 0)
(-4.44089e-15 -9.47621e-15 0)
(-4.55191e-15 -9.48764e-15 0)
(-4.32987e-15 -9.53039e-15 0)
(-4.44089e-15 -9.46779e-15 0)
(-4.66294e-15 -9.53847e-15 0)
(-4.66294e-15 -9.67282e-15 0)
(-4.55191e-15 -9.72694e-15 0)
(-4.66294e-15 -9.68582e-15 0)
(-4.88498e-15 -9.6218e-15 0)
(-4.55191e-15 -9.59861e-15 0)
(-4.66294e-15 -9.60598e-15 0)
(-4.32987e-15 -9.57439e-15 0)
(-4.32987e-15 -9.62663e-15 0)
(-4.44089e-15 -9.72482e-15 0)
(-4.44089e-15 -9.8288e-15 0)
(-4.66294e-15 -9.86568e-15 0)
(-4.55191e-15 -9.77707e-15 0)
(1.66533e-15 -1.63176e-15 0)
(-5.10703e-15 -1.15381e-14 0)
(-3.77476e-15 -9.2695e-15 0)
(-4.44089e-15 -9.62518e-15 0)
(-4.32987e-15 -9.48414e-15 0)
(-4.21885e-15 -9.38311e-15 0)
(-4.32987e-15 -9.2732e-15 0)
(-4.32987e-15 -9.40863e-15 0)
(-4.21885e-15 -9.59837e-15 0)
(-4.32987e-15 -9.69018e-15 0)
(-4.32987e-15 -9.68048e-15 0)
(-4.55191e-15 -9.71338e-15 0)
(-4.55191e-15 -9.79646e-15 0)
(-4.32987e-15 -9.80612e-15 0)
(-4.32987e-15 -9.71902e-15 0)
(-4.55191e-15 -9.61237e-15 0)
(-4.44089e-15 -9.60826e-15 0)
(-4.55191e-15 -9.64564e-15 0)
(-4.66294e-15 -9.76416e-15 0)
(-4.44089e-15 -9.75926e-15 0)
(-1.08802e-14 -1.55194e-14 0)
(-4.66294e-15 -8.85924e-15 0)
(-5.77316e-15 -9.69347e-15 0)
(-4.88498e-15 -9.66113e-15 0)
(-5.10703e-15 -9.70477e-15 0)
(-4.88498e-15 -9.71048e-15 0)
(-4.44089e-15 -9.69229e-15 0)
(-3.77476e-15 -9.67253e-15 0)
(-3.9968e-15 -9.54552e-15 0)
(-4.21885e-15 -9.47488e-15 0)
(-4.55191e-15 -9.47587e-15 0)
(-4.44089e-15 -9.57753e-15 0)
(-4.44089e-15 -9.65049e-15 0)
(-4.55191e-15 -9.69839e-15 0)
(-4.55191e-15 -9.71884e-15 0)
(-4.55191e-15 -9.63655e-15 0)
(-4.55191e-15 -9.59808e-15 0)
(-4.66294e-15 -9.63536e-15 0)
(-4.55191e-15 -9.71015e-15 0)
(-4.66294e-15 -9.71658e-15 0)
(7.99361e-15 -1.03414e-14 0)
(-7.10543e-15 -9.28085e-15 0)
(-3.55271e-15 -9.84463e-15 0)
(-5.10703e-15 -9.77842e-15 0)
(-4.88498e-15 -9.84248e-15 0)
(-4.88498e-15 -9.82821e-15 0)
(-4.88498e-15 -9.83485e-15 0)
(-4.88498e-15 -9.64849e-15 0)
(-5.10703e-15 -9.44765e-15 0)
(-4.88498e-15 -9.4825e-15 0)
(-4.66294e-15 -9.62353e-15 0)
(-4.55191e-15 -9.69111e-15 0)
(-4.55191e-15 -9.62189e-15 0)
(-4.44089e-15 -9.63036e-15 0)
(-4.44089e-15 -9.68894e-15 0)
(-4.88498e-15 -9.67713e-15 0)
(-4.55191e-15 -9.53071e-15 0)
(-4.32987e-15 -9.52483e-15 0)
(-4.55191e-15 -9.64935e-15 0)
(-4.66294e-15 -9.71006e-15 0)
(-1.53211e-14 4.97713e-15 0)
(-3.10862e-15 -1.15606e-14 0)
(-5.9952e-15 -9.07067e-15 0)
(-4.55191e-15 -9.68463e-15 0)
(-5.10703e-15 -9.70157e-15 0)
(-4.88498e-15 -9.69771e-15 0)
(-5.32907e-15 -9.69225e-15 0)
(-5.10703e-15 -9.59542e-15 0)
(-5.32907e-15 -9.58642e-15 0)
(-5.10703e-15 -9.74013e-15 0)
(-4.88498e-15 -9.90281e-15 0)
(-4.88498e-15 -9.85168e-15 0)
(-4.88498e-15 -9.78868e-15 0)
(-4.66294e-15 -9.79264e-15 0)
(-4.44089e-15 -9.66478e-15 0)
(-4.55191e-15 -9.56613e-15 0)
(-4.88498e-15 -9.54857e-15 0)
(-4.66294e-15 -9.61268e-15 0)
(-4.55191e-15 -9.63231e-15 0)
(-4.55191e-15 -9.62543e-15 0)
(-1.04361e-14 -2.39461e-14 0)
(-3.77476e-15 -7.68342e-15 0)
(-5.10703e-15 -1.03053e-14 0)
(-4.32987e-15 -9.80421e-15 0)
(-4.55191e-15 -9.72873e-15 0)
(-4.55191e-15 -9.67276e-15 0)
(-4.88498e-15 -9.69725e-15 0)
(-4.88498e-15 -9.72495e-15 0)
(-4.88498e-15 -9.77214e-15 0)
(-4.44089e-15 -9.81401e-15 0)
(-4.32987e-15 -9.76794e-15 0)
(-4.88498e-15 -9.81142e-15 0)
(-4.88498e-15 -9.86655e-15 0)
(-5.10703e-15 -9.78595e-15 0)
(-5.10703e-15 -9.59531e-15 0)
(-5.10703e-15 -9.46882e-15 0)
(-4.66294e-15 -9.58142e-15 0)
(-4.66294e-15 -9.74869e-15 0)
(-4.66294e-15 -9.70339e-15 0)
(-4.66294e-15 -9.59453e-15 0)
(-2.22045e-16 -1.14558e-14 0)
(-5.10703e-15 -1.01485e-14 0)
(-3.77476e-15 -9.91473e-15 0)
(-4.55191e-15 -9.81425e-15 0)
(-4.55191e-15 -9.50133e-15 0)
(-4.44089e-15 -9.44831e-15 0)
(-4.21885e-15 -9.41824e-15 0)
(-4.44089e-15 -9.48239e-15 0)
(-4.66294e-15 -9.69447e-15 0)
(-4.88498e-15 -9.78285e-15 0)
(-4.88498e-15 -9.70225e-15 0)
(-4.88498e-15 -9.64982e-15 0)
(-4.88498e-15 -9.67786e-15 0)
(-5.10703e-15 -9.64735e-15 0)
(-5.10703e-15 -9.67525e-15 0)
(-5.10703e-15 -9.72798e-15 0)
(-4.66294e-15 -9.79246e-15 0)
(-4.55191e-15 -9.7053e-15 0)
(-4.66294e-15 -9.70884e-15 0)
(-4.66294e-15 -9.68547e-15 0)
(-2.44249e-15 4.46393e-15 0)
(-5.77316e-15 -1.26106e-14 0)
(-4.55191e-15 -8.93695e-15 0)
(-5.55112e-15 -9.78566e-15 0)
(-5.32907e-15 -9.76207e-15 0)
(-5.10703e-15 -9.80341e-15 0)
(-5.10703e-15 -9.71391e-15 0)
(-4.55191e-15 -9.65679e-15 0)
(-4.44089e-15 -9.72944e-15 0)
(-4.32987e-15 -9.78027e-15 0)
(-4.32987e-15 -9.6953e-15 0)
(-4.32987e-15 -9.4926e-15 0)
(-4.32987e-15 -9.52638e-15 0)
(-4.44089e-15 -9.64165e-15 0)
(-4.32987e-15 -9.74865e-15 0)
(-4.32987e-15 -9.84153e-15 0)
(-4.55191e-15 -9.87678e-15 0)
(-4.66294e-15 -9.73901e-15 0)
(-4.55191e-15 -9.66175e-15 0)
(-4.66294e-15 -9.63929e-15 0)
(1.55431e-15 -1.44661e-14 0)
(-5.32907e-15 -8.2722e-15 0)
(-3.9968e-15 -9.78149e-15 0)
(-3.9968e-15 -9.39088e-15 0)
(-3.9968e-15 -9.61985e-15 0)
(-4.44089e-15 -9.66213e-15 0)
(-4.55191e-15 -9.82957e-15 0)
(-4.66294e-15 -9.96382e-15 0)
(-4.55191e-15 -9.83454e-15 0)
(-4.66294e-15 -9.68196e-15 0)
(-5.10703e-15 -9.68413e-15 0)
(-4.88498e-15 -9.69722e-15 0)
(-4.66294e-15 -9.72216e-15 0)
(-4.66294e-15 -9.72155e-15 0)
(-4.55191e-15 -9.66466e-15 0)
(-4.55191e-15 -9.69488e-15 0)
(-4.44089e-15 -9.71646e-15 0)
(-4.66294e-15 -9.69422e-15 0)
(-4.55191e-15 -9.56979e-15 0)
(-4.55191e-15 -9.57135e-15 0)
(-7.99361e-15 -1.36761e-14 0)
(-4.32987e-15 -8.21096e-15 0)
(-5.32907e-15 -9.88968e-15 0)
(-4.88498e-15 -9.54593e-15 0)
(-4.88498e-15 -9.5756e-15 0)
(-4.66294e-15 -9.54529e-15 0)
(-4.44089e-15 -9.63804e-15 0)
(-4.55191e-15 -9.75634e-15 0)
(-4.66294e-15 -9.6901e-15 0)
(-4.55191e-15 -9.61233e-15 0)
(-4.32987e-15 -9.69167e-15 0)
(-4.66294e-15 -9.83461e-15 0)
(-4.66294e-15 -9.74254e-15 0)
(-4.66294e-15 -9.62788e-15 0)
(-5.10703e-15 -9.6721e-15 0)
(-5.10703e-15 -9.74331e-15 0)
(-4.88498e-15 -9.79807e-15 0)
(-4.88498e-15 -9.73925e-15 0)
(-4.88498e-15 -9.62351e-15 0)
(-4.88498e-15 -9.63633e-15 0)
(-8.21565e-15 -6.03155e-15 0)
(-3.88578e-15 -1.06599e-14 0)
(-4.55191e-15 -9.58715e-15 0)
(-4.21885e-15 -9.9421e-15 0)
(-4.32987e-15 -9.8123e-15 0)
(-4.32987e-15 -9.71749e-15 0)
(-4.10783e-15 -9.70288e-15 0)
(-4.55191e-15 -9.75196e-15 0)
(-4.44089e-15 -9.775e-15 0)
(-4.44089e-15 -9.69373e-15 0)
(-4.55191e-15 -9.49944e-15 0)
(-4.55191e-15 -9.54075e-15 0)
(-4.88498e-15 -9.58516e-15 0)
(-4.55191e-15 -9.61492e-15 0)
(-4.32987e-15 -9.74176e-15 0)
(-4.44089e-15 -9.81417e-15 0)
(-4.44089e-15 -9.82278e-15 0)
(-4.66294e-15 -9.76687e-15 0)
(-4.55191e-15 -9.72455e-15 0)
(-4.55191e-15 -9.6758e-15 0)
(-3.33067e-16 -9.13761e-15 0)
(-5.10703e-15 -9.94017e-15 0)
(-4.21885e-15 -9.74212e-15 0)
(-4.66294e-15 -9.74071e-15 0)
(-5.10703e-15 -9.75054e-15 0)
(-4.88498e-15 -9.75725e-15 0)
(-4.66294e-15 -9.71276e-15 0)
(-4.66294e-15 -9.66623e-15 0)
(-4.66294e-15 -9.67467e-15 0)
(-4.88498e-15 -9.58971e-15 0)
(-4.88498e-15 -9.46317e-15 0)
(-4.66294e-15 -9.48983e-15 0)
(-4.66294e-15 -9.60091e-15 0)
(-4.66294e-15 -9.71733e-15 0)
(-4.66294e-15 -9.70167e-15 0)
(-4.55191e-15 -9.66772e-15 0)
(-4.66294e-15 -9.63619e-15 0)
(-4.55191e-15 -9.69357e-15 0)
(-4.66294e-15 -9.68373e-15 0)
(-4.66294e-15 -9.64421e-15 0)
(-6.88338e-15 -1.33485e-14 0)
(-3.88578e-15 -8.68315e-15 0)
(-4.66294e-15 -9.65006e-15 0)
(-4.66294e-15 -9.53155e-15 0)
(-4.88498e-15 -9.72371e-15 0)
(-4.66294e-15 -9.82028e-15 0)
(-5.10703e-15 -9.73749e-15 0)
(-4.88498e-15 -9.6319e-15 0)
(-5.10703e-15 -9.62142e-15 0)
(-5.10703e-15 -9.6521e-15 0)
(-5.10703e-15 -9.6481e-15 0)
(-4.88498e-15 -9.60319e-15 0)
(-4.66294e-15 -9.59608e-15 0)
(-5.10703e-15 -9.72258e-15 0)
(-5.10703e-15 -9.78078e-15 0)
(-5.10703e-15 -9.75819e-15 0)
(-4.88498e-15 -9.77051e-15 0)
(-4.66294e-15 -9.69954e-15 0)
(-4.88498e-15 -9.67395e-15 0)
(-4.66294e-15 -9.67508e-15 0)
(-2.33147e-15 -4.66518e-15 0)
(-4.88498e-15 -1.02608e-14 0)
(-4.32987e-15 -9.21603e-15 0)
(-4.66294e-15 -9.56803e-15 0)
(-4.32987e-15 -9.59502e-15 0)
(-4.21885e-15 -9.58684e-15 0)
(-4.44089e-15 -9.64119e-15 0)
(-4.55191e-15 -9.67966e-15 0)
(-4.32987e-15 -9.68706e-15 0)
(-4.32987e-15 -9.71601e-15 0)
(-4.32987e-15 -9.57539e-15 0)
(-4.55191e-15 -9.45969e-15 0)
(-4.66294e-15 -9.52925e-15 0)
(-4.55191e-15 -9.61659e-15 0)
(-4.55191e-15 -9.79226e-15 0)
(-4.66294e-15 -9.93065e-15 0)
(-4.55191e-15 -9.87012e-15 0)
(-4.66294e-15 -9.69136e-15 0)
(-4.66294e-15 -9.71443e-15 0)
(-4.55191e-15 -9.70064e-15 0)
(-1.13243e-14 -4.61834e-15 0)
(-4.10783e-15 -1.04545e-14 0)
(-5.55112e-15 -9.42473e-15 0)
(-4.66294e-15 -9.62033e-15 0)
(-5.10703e-15 -9.65023e-15 0)
(-5.10703e-15 -9.61048e-15 0)
(-4.88498e-15 -9.58315e-15 0)
(-5.10703e-15 -9.57205e-15 0)
(-4.88498e-15 -9.52819e-15 0)
(-5.32907e-15 -9.57305e-15 0)
(-5.10703e-15 -9.62224e-15 0)
(-4.88498e-15 -9.64855e-15 0)
(-4.66294e-15 -9.69143e-15 0)
(-4.66294e-15 -9.65798e-15 0)
(-4.66294e-15 -9.71821e-15 0)
(-4.55191e-15 -9.78026e-15 0)
(-4.88498e-15 -9.69038e-15 0)
(-4.88498e-15 -9.71488e-15 0)
(-4.66294e-15 -9.72977e-15 0)
(-4.66294e-15 -9.6456e-15 0)
(-7.54952e-15 -1.84669e-14 0)
(-5.10703e-15 -8.72918e-15 0)
(-5.32907e-15 -9.97464e-15 0)
(-5.10703e-15 -9.57409e-15 0)
(-4.88498e-15 -9.56064e-15 0)
(-5.10703e-15 -9.68883e-15 0)
(-5.10703e-15 -9.71317e-15 0)
(-5.10703e-15 -9.72089e-15 0)
(-4.55191e-15 -9.6831e-15 0)
(-4.55191e-15 -9.70354e-15 0)
(-4.55191e-15 -9.8392e-15 0)
(-4.32987e-15 -9.85401e-15 0)
(-4.55191e-15 -9.70816e-15 0)
(-4.44089e-15 -9.69531e-15 0)
(-4.66294e-15 -9.75995e-15 0)
(-4.44089e-15 -9.73354e-15 0)
(-4.66294e-15 -9.60026e-15 0)
(-4.66294e-15 -9.73204e-15 0)
(-4.66294e-15 -9.73023e-15 0)
(-4.66294e-15 -9.66448e-15 0)
(3.9968e-15 -1.30986e-14 0)
(-5.77316e-15 -9.66604e-15 0)
(-3.10862e-15 -9.71937e-15 0)
(-4.21885e-15 -9.6597e-15 0)
(-3.77476e-15 -9.57472e-15 0)
(-3.88578e-15 -9.69808e-15 0)
(-3.9968e-15 -9.76623e-15 0)
(-3.88578e-15 -9.80355e-15 0)
(-4.10783e-15 -9.80351e-15 0)
(-4.10783e-15 -9.74853e-15 0)
(-4.44089e-15 -9.70098e-15 0)
(-4.55191e-15 -9.65635e-15 0)
(-4.66294e-15 -9.58803e-15 0)
(-4.55191e-15 -9.61947e-15 0)
(-4.55191e-15 -9.68407e-15 0)
(-4.66294e-15 -9.69598e-15 0)
(-4.66294e-15 -9.59533e-15 0)
(-4.66294e-15 -9.67581e-15 0)
(-4.55191e-15 -9.69784e-15 0)
(-4.66294e-15 -9.67896e-15 0)
)
;

boundaryField
{
    movingWall
    {
        type            calculated;
        value           uniform (-4.66294e-15 -9.64683e-15 0);
    }
    fixedWalls
    {
        type            calculated;
        value           uniform (-4.66294e-15 -9.64683e-15 0);
    }
    frontAndBack
    {
        type            empty;
    }
}


// ************************************************************************* //
