/*--------------------------------*- C++ -*----------------------------------*\
| =========                 |                                                 |
| \\      /  F ield         | OpenFOAM: The Open Source CFD Toolbox           |
|  \\    /   O peration     | Version:  2312                                  |
|   \\  /    A nd           | Website:  www.openfoam.com                      |
|    \\/     M anipulation  |                                                 |
\*---------------------------------------------------------------------------*/
FoamFile
{
    version     2.0;
    format      ascii;
    arch        "LSB;label=32;scalar=64";
    class       volScalarField;
    location    "7.75";
    object      divPhi;
}
// * * * * * * * * * * * * * * * * * * * * * * * * * * * * * * * * * * * * * //

dimensions      [0 0 -1 0 0 0 0];

internalField   nonuniform List<scalar> 
400
(
5.42101e-14
-9.92438e-15
-4.19893e-15
1.90402e-14
-9.88311e-15
-2.77502e-15
-4.70864e-15
1.50663e-14
-3.3559e-15
-1.75545e-15
8.10441e-15
-3.0307e-15
6.32648e-15
-1.79301e-14
2.75089e-15
-1.01241e-15
-8.5498e-16
1.46937e-14
-9.59549e-15
0
0
1.56175e-15
-2.69045e-14
-5.79164e-15
-1.2983e-14
-8.95247e-15
1.68124e-15
-2.89755e-14
1.85844e-14
8.66541e-15
2.67322e-15
1.02303e-14
1.36781e-14
-2.27895e-14
1.30332e-14
-1.75453e-14
2.41546e-15
-2.1856e-14
-1.42225e-14
0
2.71051e-14
-2.68473e-16
-6.66599e-15
2.43972e-15
-9.58121e-15
-1.34605e-14
1.17188e-15
-1.32732e-14
2.51602e-14
-2.57155e-14
-3.79826e-15
2.81763e-14
-1.90838e-14
-2.47244e-15
1.2566e-14
3.90965e-15
1.03701e-14
-4.97584e-15
-1.60901e-14
2.71051e-14
-2.71051e-14
-2.85097e-14
-5.45482e-15
2.46669e-15
2.02582e-14
-4.86059e-14
1.94443e-14
-1.60914e-14
1.3292e-14
-1.34546e-14
-4.07755e-15
-1.93416e-15
1.71159e-14
-1.02416e-14
1.50396e-14
-7.06691e-15
2.7146e-14
1.24366e-14
-4.31155e-15
-2.71051e-14
2.71051e-14
-3.23905e-14
-8.08633e-15
-5.47961e-15
-1.27136e-14
2.75574e-14
-2.76991e-14
8.98866e-15
2.9202e-14
2.0847e-16
-2.11956e-14
-1.61303e-14
1.52648e-14
-2.07265e-14
-8.54999e-15
-1.53424e-14
6.04467e-16
2.63802e-14
-2.01674e-14
0
2.71051e-14
-1.49263e-14
-1.87729e-15
-1.39558e-14
7.41623e-15
-2.92744e-14
1.66162e-14
1.53198e-15
4.80443e-15
-1.42431e-14
7.02318e-15
-3.25738e-15
-3.09813e-14
2.36724e-14
-1.80677e-14
2.57911e-15
4.82802e-15
1.15662e-14
1.57725e-14
0
-2.71051e-14
4.55319e-14
-3.81954e-14
1.2043e-14
-4.23566e-15
7.95636e-15
4.76129e-15
1.0098e-14
-4.86626e-15
7.82747e-15
-4.32815e-15
-2.35937e-16
2.0199e-14
-3.44081e-14
1.04375e-14
2.5896e-14
5.58571e-15
-6.26277e-15
-1.53249e-14
2.71051e-14
0
2.2828e-14
-1.44188e-14
4.75778e-17
-1.72644e-14
1.37557e-14
1.55774e-14
4.3195e-15
-1.56397e-14
1.5118e-14
-1.69932e-14
5.83275e-15
-1.67138e-14
-1.06725e-14
-7.67332e-15
2.7772e-14
-1.7444e-15
-1.32394e-14
-7.50245e-15
0
0
-1.38788e-15
9.4611e-15
4.40611e-15
8.71392e-15
-5.82488e-15
-3.37222e-14
-2.78732e-15
1.8564e-14
9.93079e-16
-9.04235e-15
2.54896e-14
9.88431e-15
-8.79888e-15
-1.73397e-15
6.68924e-15
-3.33407e-15
-1.40266e-14
-2.03519e-14
0
0
1.17619e-14
9.98985e-15
3.13216e-15
1.1538e-14
1.02793e-14
-1.11299e-14
3.65818e-15
-2.50413e-15
-1.03531e-14
-1.31577e-14
3.51372e-14
-2.48385e-14
-1.15505e-15
-5.50534e-15
1.57179e-15
-1.6418e-15
1.65898e-14
3.09587e-14
-2.71051e-14
0
2.13484e-14
1.18587e-14
-2.6074e-14
6.81067e-15
-7.50383e-15
1.18813e-15
1.78437e-14
-2.79809e-14
-9.26442e-15
1.05666e-14
-6.42401e-15
1.58443e-14
-3.39427e-15
-1.2194e-14
8.5633e-15
-1.0308e-14
-1.85538e-14
2.4295e-14
2.71051e-14
0
-8.25144e-15
8.76387e-15
-3.97341e-15
-2.27416e-15
2.87034e-15
-1.10559e-14
-2.08071e-14
-2.58928e-15
-2.88058e-14
4.54414e-15
-8.11489e-15
-3.48055e-15
5.27033e-15
-1.25909e-14
1.09742e-14
-4.06808e-15
-1.78924e-14
1.2237e-14
-2.71051e-14
0
-1.55488e-14
1.29651e-14
7.68807e-15
-2.48925e-14
1.43299e-14
-3.96736e-14
2.99644e-14
-1.31425e-14
1.3121e-14
-2.43605e-14
-6.49642e-15
2.18477e-15
2.63326e-14
-4.61175e-15
-3.37597e-15
-6.60217e-15
-1.76902e-14
2.49135e-14
0
2.71051e-14
-7.39782e-16
-3.53507e-15
6.5733e-15
2.51921e-14
-7.14948e-15
-2.95732e-14
1.95058e-14
-1.77762e-14
2.23249e-14
9.12758e-15
4.94474e-16
7.2019e-15
-1.10021e-14
1.24621e-14
5.95036e-15
-1.92682e-14
1.50719e-14
-1.0962e-14
0
-2.71051e-14
-3.35814e-16
1.08691e-14
-1.16594e-14
1.71379e-14
1.2293e-14
-3.27568e-14
2.47361e-14
1.7372e-16
-1.45489e-14
-7.4796e-15
2.56448e-14
1.9671e-14
-1.99132e-14
3.04331e-14
1.57484e-14
-1.13288e-15
7.24871e-15
-3.38063e-14
0
0
7.89782e-15
2.57527e-14
-1.25887e-14
-2.24703e-14
2.54512e-14
2.73704e-15
-9.43177e-17
1.46053e-15
2.41316e-14
-2.28768e-14
-1.30589e-14
1.22478e-14
-2.63575e-14
-9.33832e-16
-8.32055e-15
-1.48746e-14
2.47745e-14
-1.03893e-14
0
0
8.08658e-15
-2.09052e-14
1.00221e-14
1.4778e-14
-2.16145e-14
4.88844e-15
1.05385e-15
5.7458e-15
1.59243e-14
-1.50435e-14
-2.41335e-14
5.75103e-15
3.76056e-16
-1.38847e-14
1.19608e-14
-4.76781e-16
1.81266e-14
-1.40467e-14
0
0
-3.74607e-15
2.18171e-14
-3.43325e-15
1.43017e-14
5.25021e-16
-2.75632e-15
3.08342e-15
1.68657e-14
-1.30038e-14
9.57322e-15
-8.9907e-17
1.46966e-14
-8.6199e-15
2.98792e-14
6.40013e-15
-4.01521e-15
-2.63285e-14
3.0655e-14
0
0
-4.63057e-15
5.21428e-15
1.46331e-14
3.55691e-16
-3.17473e-14
1.70445e-14
6.5335e-15
-5.35585e-15
-2.65244e-14
2.6202e-14
5.86905e-16
-2.63444e-14
3.60298e-15
1.15871e-14
1.70772e-15
-4.81915e-15
2.68254e-14
1.8275e-14
-2.71051e-14
0
-2.71051e-14
0
-2.71051e-14
0
0
0
0
0
2.71051e-14
-2.71051e-14
0
0
0
2.71051e-14
0
-2.71051e-14
0
0
2.71051e-14
)
;

boundaryField
{
    movingWall
    {
        type            extrapolatedCalculated;
        value           nonuniform List<scalar> 
20
(
0
-2.71051e-14
0
-2.71051e-14
0
0
0
0
0
2.71051e-14
-2.71051e-14
0
0
0
2.71051e-14
0
-2.71051e-14
0
0
2.71051e-14
)
;
    }
    fixedWalls
    {
        type            extrapolatedCalculated;
        value           nonuniform List<scalar> 
60
(
5.42101e-14
0
2.71051e-14
-2.71051e-14
2.71051e-14
2.71051e-14
-2.71051e-14
0
0
0
0
0
0
2.71051e-14
-2.71051e-14
0
0
0
0
0
0
0
2.71051e-14
-2.71051e-14
0
0
2.71051e-14
0
0
-2.71051e-14
2.71051e-14
-2.71051e-14
0
0
0
0
0
0
-2.71051e-14
2.71051e-14
5.42101e-14
-9.92438e-15
-4.19893e-15
1.90402e-14
-9.88311e-15
-2.77502e-15
-4.70864e-15
1.50663e-14
-3.3559e-15
-1.75545e-15
8.10441e-15
-3.0307e-15
6.32648e-15
-1.79301e-14
2.75089e-15
-1.01241e-15
-8.5498e-16
1.46937e-14
-9.59549e-15
0
)
;
    }
    frontAndBack
    {
        type            empty;
    }
}


// ************************************************************************* //
