/*--------------------------------*- C++ -*----------------------------------*\
| =========                 |                                                 |
| \\      /  F ield         | OpenFOAM: The Open Source CFD Toolbox           |
|  \\    /   O peration     | Version:  2312                                  |
|   \\  /    A nd           | Website:  www.openfoam.com                      |
|    \\/     M anipulation  |                                                 |
\*---------------------------------------------------------------------------*/
FoamFile
{
    version     2.0;
    format      ascii;
    arch        "LSB;label=32;scalar=64";
    class       volScalarField;
    location    "7.75";
    object      enstrophyField;
}
// * * * * * * * * * * * * * * * * * * * * * * * * * * * * * * * * * * * * * //

dimensions      [0 0 -2 0 0 0 0];

internalField   nonuniform List<scalar> 
400
(
7.27063e-25
5.3835e-25
1.40979e-26
4.22586e-27
1.87182e-27
3.34225e-29
5.88288e-28
1.21396e-29
9.84238e-29
1.17634e-28
1.34239e-28
1.96866e-27
1.0424e-27
5.64117e-29
1.57932e-27
4.08076e-30
1.25245e-28
9.16391e-29
5.62619e-30
4.86535e-29
2.1562e-25
9.59542e-26
1.0992e-27
1.21763e-27
2.70427e-27
1.22134e-27
5.63836e-28
4.99421e-27
8.12705e-27
1.41664e-27
2.30697e-27
3.21267e-29
2.30298e-27
1.19557e-28
4.28345e-28
3.07184e-27
1.92144e-27
5.09726e-28
1.16474e-27
1.07873e-28
2.9268e-25
4.27486e-25
2.82013e-26
1.08219e-28
6.01588e-27
7.68961e-27
3.27656e-28
3.11904e-28
1.10466e-28
3.04944e-27
4.2731e-27
4.04004e-27
2.11453e-27
3.65904e-29
3.8415e-27
1.17473e-27
8.93691e-30
6.25371e-29
2.69863e-30
2.87625e-28
3.7156e-25
1.52364e-25
7.11916e-27
4.1036e-28
5.28888e-28
1.96849e-30
3.89573e-28
5.18342e-27
8.09848e-27
4.03426e-28
1.37625e-28
6.41755e-28
4.11473e-28
3.04628e-28
1.58347e-27
2.39796e-27
8.27377e-27
7.50393e-27
1.20233e-27
3.04472e-29
1.55777e-25
2.32875e-25
4.49139e-26
5.36171e-28
3.07461e-27
1.16156e-27
3.2557e-30
9.93162e-27
3.39204e-27
6.23603e-28
4.32915e-28
2.1654e-27
4.30002e-29
1.87423e-28
1.87691e-28
7.2892e-28
2.82686e-28
7.45745e-28
6.45435e-29
2.63927e-28
6.7166e-25
2.77677e-25
9.03149e-27
1.40878e-27
2.91693e-27
3.40836e-27
1.6823e-27
4.60719e-27
5.1086e-27
1.87123e-27
9.65571e-28
4.64925e-29
7.67945e-28
2.33623e-29
5.54072e-28
7.67596e-28
7.08529e-33
7.33899e-28
6.20487e-28
8.16534e-28
9.15596e-26
3.68464e-27
1.23788e-27
2.29559e-32
1.2396e-29
2.91175e-31
4.92903e-27
1.51807e-26
1.60615e-26
4.12532e-27
5.56086e-28
3.71784e-28
1.81712e-27
2.08092e-28
5.05046e-28
1.25186e-28
8.96145e-28
7.03788e-29
1.71547e-28
2.16056e-29
4.84902e-24
1.49652e-24
7.11887e-26
1.47078e-26
4.03649e-28
1.41932e-27
5.23196e-29
5.6001e-29
2.35856e-27
6.37928e-27
2.13633e-27
2.15319e-27
1.80687e-27
4.39035e-27
2.95384e-27
2.16683e-27
1.22783e-27
1.75434e-28
3.33617e-28
4.71202e-28
3.78529e-24
1.20717e-24
1.03979e-25
1.66207e-27
2.32358e-27
2.8697e-28
6.45696e-27
3.94307e-27
4.06986e-27
8.79051e-32
3.60372e-28
4.86188e-29
3.24354e-30
1.47042e-27
6.38768e-27
4.05946e-28
3.37819e-27
7.43797e-29
1.1883e-28
3.78955e-28
5.45186e-25
7.92211e-26
1.99599e-29
1.56407e-26
6.95123e-27
6.27062e-28
2.80784e-28
3.34834e-27
1.63313e-27
3.02434e-31
8.16402e-28
3.11069e-27
3.28604e-27
3.28496e-27
3.99423e-27
4.32785e-27
2.57295e-30
3.49649e-29
1.96587e-30
5.06414e-29
4.53217e-25
8.97917e-25
4.7926e-26
1.34198e-26
1.56715e-27
1.74209e-27
2.37169e-27
3.26452e-28
7.78294e-28
2.80654e-28
4.13778e-28
1.42669e-28
1.11084e-28
1.21679e-27
2.7527e-27
2.24605e-27
9.66156e-28
2.31187e-28
1.46758e-28
3.47646e-28
1.95297e-26
5.5424e-26
1.66219e-27
7.23739e-28
3.30773e-27
5.23134e-27
6.21432e-27
3.53993e-28
3.39455e-27
8.88166e-28
1.16473e-30
2.71478e-28
3.04353e-28
5.39744e-28
6.17022e-27
5.32921e-27
1.47294e-27
1.07569e-28
7.75875e-28
7.02362e-29
2.7643e-25
2.3331e-26
3.14317e-27
1.7119e-27
1.47285e-27
1.9495e-29
2.83624e-27
5.2199e-28
8.06898e-29
1.47793e-27
2.92141e-27
1.29353e-29
2.80376e-27
2.0122e-28
2.16173e-27
2.23164e-27
8.24218e-32
1.52364e-28
5.29607e-29
5.72216e-30
1.38246e-25
4.54059e-26
6.71271e-28
1.23109e-27
2.52257e-28
7.2379e-28
2.79858e-28
1.97876e-28
1.69532e-29
3.34287e-27
2.41566e-27
3.67434e-29
2.75086e-29
1.22611e-28
2.74799e-27
1.94144e-27
2.50326e-28
4.8251e-29
4.14671e-29
1.3508e-28
6.49082e-27
5.55961e-28
1.98926e-28
1.42408e-27
1.38108e-27
7.13629e-30
6.90574e-27
7.25342e-30
3.95759e-27
5.24951e-27
4.16814e-27
9.4855e-29
2.96146e-27
2.53752e-27
6.42764e-27
6.60884e-27
3.00623e-28
1.13028e-29
1.74912e-27
4.66125e-28
1.62226e-27
5.8736e-26
3.5989e-27
2.71195e-29
6.07081e-27
1.545e-27
6.25595e-28
6.7361e-29
1.58087e-27
3.52658e-27
2.92036e-27
1.35285e-29
7.12736e-29
1.70563e-28
6.33794e-30
5.2687e-31
1.71977e-29
4.66153e-29
1.33977e-27
2.32593e-28
3.78838e-25
9.15834e-26
1.57889e-26
7.18157e-28
3.18128e-28
1.22971e-27
4.30812e-29
1.23124e-27
4.72464e-28
2.13709e-27
3.28479e-28
1.06452e-29
1.23084e-28
5.79059e-27
3.66506e-27
1.92179e-27
2.86308e-28
1.21192e-28
4.31095e-31
7.37015e-29
4.6482e-25
1.15507e-25
1.35691e-26
5.01173e-28
1.52326e-27
3.87407e-27
3.62598e-27
5.31397e-28
3.64622e-28
4.42223e-29
1.08857e-27
2.39406e-29
3.93336e-28
3.58611e-30
7.47634e-29
1.32238e-27
2.13768e-29
7.7552e-30
2.39926e-29
6.22178e-28
2.72665e-24
5.11929e-25
4.54006e-26
8.20473e-29
7.18729e-27
1.1367e-26
6.23017e-27
8.78057e-27
1.37681e-27
7.69168e-27
7.62215e-27
8.44863e-28
9.23452e-28
1.3409e-29
4.78288e-28
9.27655e-28
1.13325e-32
8.44604e-29
2.0704e-28
5.10473e-29
2.46653e-26
2.04832e-26
3.35779e-27
1.04623e-28
1.26871e-27
6.1457e-28
1.37081e-28
1.27421e-27
1.78277e-27
2.07778e-27
2.01152e-27
2.1454e-27
6.80035e-30
1.53152e-28
1.89243e-28
6.47242e-28
2.03404e-30
5.25364e-29
3.58843e-28
3.45539e-29
)
;

boundaryField
{
    movingWall
    {
        type            calculated;
        value           nonuniform List<scalar> 
20
(
4.8572e-24
5.63521e-27
1.93665e-25
1.84514e-26
6.17529e-26
4.25478e-26
3.2744e-26
4.71657e-26
2.58888e-26
2.69812e-26
4.80545e-27
1.55141e-27
6.80035e-30
6.05708e-28
6.75596e-28
3.93728e-29
2.03404e-30
5.25364e-29
9.72119e-28
3.45539e-29
)
;
    }
    fixedWalls
    {
        type            calculated;
        value           nonuniform List<scalar> 
60
(
8.86668e-24
1.34489e-24
5.48692e-24
2.67547e-24
4.96699e-24
4.49863e-24
1.67345e-26
2.9589e-23
2.61913e-23
1.18076e-24
1.50244e-23
9.59968e-25
1.85336e-25
2.17844e-25
2.32314e-27
7.98644e-25
2.94357e-24
3.26018e-24
1.28678e-23
3.2928e-25
1.1793e-29
7.63252e-29
4.4864e-28
3.12275e-28
1.01117e-27
1.51275e-27
3.19767e-28
6.36125e-28
1.912e-29
1.19417e-28
4.53733e-28
4.76815e-30
8.82626e-30
1.20384e-28
3.39456e-28
1.24913e-28
2.31635e-28
3.54133e-28
2.49034e-29
8.25791e-29
5.11737e-25
2.82441e-25
1.94354e-26
8.00631e-27
9.82829e-27
4.70389e-27
9.8593e-27
8.23037e-27
2.18342e-26
1.31702e-26
1.30008e-26
7.77365e-27
1.40235e-27
1.51419e-27
1.98353e-30
4.08076e-30
2.66384e-27
2.83353e-27
5.62619e-30
4.86535e-29
)
;
    }
    frontAndBack
    {
        type            empty;
    }
}


// ************************************************************************* //
