/*--------------------------------*- C++ -*----------------------------------*\
| =========                 |                                                 |
| \\      /  F ield         | OpenFOAM: The Open Source CFD Toolbox           |
|  \\    /   O peration     | Version:  2312                                  |
|   \\  /    A nd           | Website:  www.openfoam.com                      |
|    \\/     M anipulation  |                                                 |
\*---------------------------------------------------------------------------*/
FoamFile
{
    version     2.0;
    format      ascii;
    arch        "LSB;label=32;scalar=64";
    class       volTensorField;
    location    "7.75";
    object      gradU;
}
// * * * * * * * * * * * * * * * * * * * * * * * * * * * * * * * * * * * * * //

dimensions      [0 0 -1 0 0 0 0];

internalField   nonuniform List<tensor> 
400
(
(4.33681e-13 8.53506e-13 0 -3.52366e-13 1.28661e-12 0 0 0 0)
(-4.06576e-13 -9.29222e-13 0 1.0842e-13 -1.28777e-13 0 0 0 0)
(5.42101e-14 1.13706e-13 0 -5.42101e-14 5.48354e-14 0 0 0 0)
(-2.71051e-14 -3.77231e-14 0 5.42101e-14 4.71112e-15 0 0 0 0)
(0 -6.97513e-15 0 5.42101e-14 -5.13095e-15 0 0 0 0)
(0 -8.17588e-15 0 0 -1.00364e-14 0 0 0 0)
(0 -7.1962e-15 0 2.71051e-14 -1.80934e-14 0 0 0 0)
(2.71051e-14 4.92738e-15 0 0 -1.07568e-14 0 0 0 0)
(2.71051e-14 1.30748e-14 0 2.71051e-14 5.46093e-15 0 0 0 0)
(-2.71051e-14 1.53384e-14 0 0 2.13894e-14 0 0 0 0)
(0 1.63853e-14 0 0 1.98178e-14 0 0 0 0)
(-2.71051e-14 8.53797e-15 0 -5.42101e-14 2.43856e-14 0 0 0 0)
(-2.71051e-14 -8.55043e-15 0 -5.42101e-14 2.03399e-14 0 0 0 0)
(-2.71051e-14 -1.06218e-14 0 0 2.17806e-15 0 0 0 0)
(0 1.99175e-15 0 -5.42101e-14 -5.74522e-15 0 0 0 0)
(0 -2.85684e-15 0 0 6.33402e-15 0 0 0 0)
(-5.42101e-14 -1.58269e-14 0 0 1.55695e-14 0 0 0 0)
(0 -1.3538e-14 0 0 -1.71201e-15 0 0 0 0)
(5.42101e-14 3.35446e-15 0 0 -2.02498e-14 0 0 0 0)
(0 9.86443e-15 0 0 -4.30293e-15 0 0 0 0)
(-6.50521e-13 3.04323e-13 0 -3.52366e-13 -1.7522e-12 0 0 0 0)
(7.58942e-13 -3.02548e-13 0 1.35525e-13 2.96231e-13 0 0 0 0)
(-1.6263e-13 1.97821e-14 0 -2.71051e-14 -3.38516e-14 0 0 0 0)
(2.71051e-14 -2.22432e-14 0 2.71051e-14 2.63483e-14 0 0 0 0)
(-2.71051e-14 -7.77236e-15 0 -8.13152e-14 1.85834e-14 0 0 0 0)
(0 -4.78657e-15 0 -5.42101e-14 4.94922e-15 0 0 0 0)
(2.71051e-14 6.47578e-15 0 -2.71051e-14 1.11665e-14 0 0 0 0)
(-2.71051e-14 1.8627e-14 0 -8.13152e-14 1.36514e-14 0 0 0 0)
(0 1.90714e-14 0 -1.0842e-13 8.368e-15 0 0 0 0)
(-5.42101e-14 -9.81595e-16 0 -5.42101e-14 1.28179e-14 0 0 0 0)
(-5.42101e-14 -1.33891e-14 0 -8.13152e-14 -3.75062e-15 0 0 0 0)
(5.42101e-14 -8.01582e-15 0 0 -1.4698e-14 0 0 0 0)
(5.42101e-14 -1.36571e-14 0 5.42101e-14 -2.08627e-14 0 0 0 0)
(0 -1.54633e-14 0 0 -1.69686e-14 0 0 0 0)
(2.71051e-14 2.16421e-15 0 -2.71051e-14 -1.87955e-14 0 0 0 0)
(8.13152e-14 2.41715e-14 0 -5.42101e-14 -2.52979e-14 0 0 0 0)
(0 7.78084e-15 0 -5.42101e-14 -1.01998e-14 0 0 0 0)
(-2.71051e-14 -2.22812e-14 0 -5.42101e-14 -5.24327e-15 0 0 0 0)
(-5.42101e-14 -5.94538e-15 0 -5.42101e-14 -7.84539e-15 0 0 0 0)
(5.42101e-14 1.46883e-14 0 0 -6.27452e-15 0 0 0 0)
(1.89735e-13 -6.02458e-13 0 1.6263e-13 -7.78252e-13 0 0 0 0)
(-8.13152e-14 7.89122e-13 0 -1.35525e-13 9.97763e-14 0 0 0 0)
(-2.71051e-14 -1.56177e-13 0 8.13152e-14 -3.21022e-14 0 0 0 0)
(-2.71051e-14 1.47118e-14 0 0 1.48799e-14 0 0 0 0)
(-2.71051e-14 -2.83742e-14 0 8.13152e-14 1.87892e-14 0 0 0 0)
(0 -1.55928e-14 0 1.0842e-13 1.72338e-14 0 0 0 0)
(-8.13152e-14 1.506e-15 0 2.71051e-14 2.556e-14 0 0 0 0)
(-2.71051e-14 2.12891e-15 0 2.71051e-14 9.94991e-15 0 0 0 0)
(2.71051e-14 1.22412e-14 0 2.71051e-14 -1.35695e-14 0 0 0 0)
(5.42101e-14 3.21982e-15 0 8.13152e-14 -2.79685e-14 0 0 0 0)
(2.71051e-14 -1.11305e-14 0 8.13152e-14 -1.3888e-14 0 0 0 0)
(2.71051e-14 -8.57414e-15 0 8.13152e-14 -4.06497e-15 0 0 0 0)
(-2.71051e-14 -1.08211e-14 0 5.42101e-14 2.8489e-15 0 0 0 0)
(-2.71051e-14 -8.55458e-15 0 0 1.11741e-14 0 0 0 0)
(-8.13152e-14 -6.33753e-15 0 8.13152e-14 2.07342e-14 0 0 0 0)
(-5.42101e-14 5.73886e-15 0 5.42101e-14 6.94449e-15 0 0 0 0)
(5.42101e-14 4.22774e-15 0 0 -1.84799e-14 0 0 0 0)
(0 -1.11837e-14 0 0 -2.10534e-14 0 0 0 0)
(2.71051e-14 2.3232e-15 0 0 -1.0285e-14 0 0 0 0)
(5.42101e-14 2.39844e-14 0 0 -9.93522e-15 0 0 0 0)
(-6.50521e-13 -3.74153e-13 0 4.87891e-13 1.58902e-12 0 0 0 0)
(6.50521e-13 4.43601e-13 0 -1.0842e-13 -3.7418e-13 0 0 0 0)
(-2.71051e-14 -6.51143e-14 0 5.42101e-14 3.61232e-14 0 0 0 0)
(5.42101e-14 2.86482e-14 0 0 -2.67107e-14 0 0 0 0)
(0 -5.4184e-15 0 2.71051e-14 -5.21218e-17 0 0 0 0)
(0 1.98418e-15 0 0 2.58703e-14 0 0 0 0)
(-2.71051e-14 -8.08142e-16 0 2.71051e-14 3.66343e-14 0 0 0 0)
(-2.71051e-14 -2.05025e-14 0 8.13152e-14 2.18125e-14 0 0 0 0)
(0 -1.8847e-14 0 1.0842e-13 1.98858e-15 0 0 0 0)
(2.71051e-14 -1.30008e-15 0 2.71051e-14 -1.85842e-14 0 0 0 0)
(-2.71051e-14 1.05144e-14 0 2.71051e-14 -9.442e-15 0 0 0 0)
(0 8.72107e-15 0 -2.71051e-14 -9.7736e-15 0 0 0 0)
(2.71051e-14 1.58199e-15 0 -2.71051e-14 -1.24666e-14 0 0 0 0)
(0 2.42195e-15 0 2.71051e-14 -8.22618e-15 0 0 0 0)
(2.71051e-14 -2.0654e-15 0 5.42101e-14 3.83208e-15 0 0 0 0)
(0 -1.50425e-14 0 5.42101e-14 1.74861e-14 0 0 0 0)
(0 -2.0217e-14 0 1.0842e-13 9.16985e-15 0 0 0 0)
(-2.71051e-14 -1.40863e-14 0 1.0842e-13 9.93089e-15 0 0 0 0)
(0 5.17275e-15 0 5.42101e-14 4.76322e-15 0 0 0 0)
(-2.71051e-14 3.49085e-14 0 2.71051e-14 -3.75395e-15 0 0 0 0)
(5.69206e-13 6.12381e-13 0 5.42101e-14 -1.30925e-13 0 0 0 0)
(-5.42101e-13 -7.63775e-13 0 -8.13152e-14 -3.4179e-15 0 0 0 0)
(5.42101e-14 1.91293e-13 0 -1.0842e-13 8.06437e-15 0 0 0 0)
(-5.42101e-14 -2.14635e-14 0 -5.42101e-14 -1.84921e-14 0 0 0 0)
(0 2.42068e-14 0 -5.42101e-14 -2.17132e-14 0 0 0 0)
(2.71051e-14 2.10936e-14 0 -2.71051e-14 -1.80091e-14 0 0 0 0)
(-2.71051e-14 -2.55174e-15 0 0 -2.24491e-14 0 0 0 0)
(0 -3.25168e-14 0 1.0842e-13 -1.34059e-14 0 0 0 0)
(0 -2.81555e-14 0 5.42101e-14 1.27298e-14 0 0 0 0)
(0 -8.21076e-15 0 2.71051e-14 2.52062e-14 0 0 0 0)
(0 -2.31992e-15 0 2.71051e-14 2.09954e-14 0 0 0 0)
(-2.71051e-14 -1.15988e-14 0 5.42101e-14 4.42649e-15 0 0 0 0)
(2.71051e-14 -9.27364e-15 0 0 -5.18786e-15 0 0 0 0)
(0 7.74414e-15 0 2.71051e-14 -9.24087e-15 0 0 0 0)
(0 1.93748e-14 0 0 -1.44453e-14 0 0 0 0)
(-2.71051e-14 1.10766e-14 0 -2.71051e-14 -9.91727e-16 0 0 0 0)
(0 -3.3275e-15 0 -2.71051e-14 1.26737e-14 0 0 0 0)
(-2.71051e-14 -1.55903e-14 0 -5.42101e-14 1.93443e-14 0 0 0 0)
(2.71051e-14 -1.13616e-14 0 0 1.55532e-14 0 0 0 0)
(-2.71051e-14 2.29751e-14 0 0 6.04915e-15 0 0 0 0)
(-6.23416e-13 -5.08496e-13 0 6.50521e-13 -8.70968e-13 0 0 0 0)
(5.42101e-13 5.82591e-13 0 -1.6263e-13 2.25725e-13 0 0 0 0)
(-5.42101e-14 -8.01885e-14 0 5.42101e-14 -5.75126e-14 0 0 0 0)
(8.13152e-14 -1.12933e-15 0 -5.42101e-14 -1.53243e-14 0 0 0 0)
(0 -4.93545e-15 0 -8.13152e-14 -3.58348e-14 0 0 0 0)
(5.42101e-14 1.24822e-15 0 -8.13152e-14 -4.45103e-14 0 0 0 0)
(1.0842e-13 3.79514e-15 0 -5.42101e-14 -5.61653e-14 0 0 0 0)
(5.42101e-14 1.46764e-14 0 -8.13152e-14 -2.3986e-14 0 0 0 0)
(-5.42101e-14 1.9765e-14 0 -8.13152e-14 1.50713e-14 0 0 0 0)
(-5.42101e-14 6.96555e-15 0 -5.42101e-14 2.07681e-14 0 0 0 0)
(-2.71051e-14 -1.02653e-14 0 -5.42101e-14 5.69496e-15 0 0 0 0)
(2.71051e-14 -1.74622e-14 0 -2.71051e-14 2.22713e-15 0 0 0 0)
(0 -1.20854e-14 0 2.71051e-14 1.74571e-14 0 0 0 0)
(-2.71051e-14 -6.83554e-15 0 0 1.75753e-14 0 0 0 0)
(0 6.18375e-15 0 -2.71051e-14 3.0085e-15 0 0 0 0)
(0 1.20765e-14 0 -2.71051e-14 -6.47638e-15 0 0 0 0)
(0 1.1904e-16 0 0 7.75504e-15 0 0 0 0)
(-2.71051e-14 -1.12068e-14 0 2.71051e-14 1.20815e-14 0 0 0 0)
(0 -8.12241e-15 0 2.71051e-14 1.14812e-14 0 0 0 0)
(0 1.33062e-14 0 -2.71051e-14 4.92037e-15 0 0 0 0)
(1.02999e-12 -3.28616e-14 0 -4.60786e-13 2.04965e-12 0 0 0 0)
(-1.16552e-12 4.96808e-14 0 1.35525e-13 -2.70133e-13 0 0 0 0)
(1.89735e-13 -4.97571e-14 0 0 6.22806e-14 0 0 0 0)
(-1.35525e-13 2.1427e-16 0 0 -2.35026e-15 0 0 0 0)
(2.71051e-14 -4.97916e-15 0 0 3.20291e-16 0 0 0 0)
(0 7.63119e-16 0 0 1.27724e-15 0 0 0 0)
(0 1.79726e-14 0 -8.13152e-14 3.37746e-18 0 0 0 0)
(-2.71051e-14 3.87199e-14 0 -1.35525e-13 7.71143e-15 0 0 0 0)
(2.71051e-14 1.65986e-14 0 -1.6263e-13 -4.08991e-15 0 0 0 0)
(5.42101e-14 -1.75871e-14 0 -1.0842e-13 -2.65248e-14 0 0 0 0)
(2.71051e-14 -2.08609e-14 0 -5.42101e-14 -4.26941e-14 0 0 0 0)
(0 1.63381e-16 0 -2.71051e-14 -2.7415e-14 0 0 0 0)
(2.71051e-14 6.07452e-15 0 -5.42101e-14 -1.3819e-14 0 0 0 0)
(0 -6.70449e-15 0 -2.71051e-14 -9.42541e-15 0 0 0 0)
(-5.42101e-14 -4.67689e-15 0 2.71051e-14 5.40685e-15 0 0 0 0)
(0 1.58232e-14 0 0 7.04213e-15 0 0 0 0)
(5.42101e-14 1.52304e-14 0 -2.71051e-14 4.95077e-15 0 0 0 0)
(0 -1.18641e-14 0 0 2.26752e-15 0 0 0 0)
(-5.42101e-14 -1.85228e-14 0 0 7.78398e-15 0 0 0 0)
(0 6.57353e-15 0 0 9.11575e-15 0 0 0 0)
(-9.21572e-13 1.27102e-12 0 -1.84314e-12 -1.36047e-12 0 0 0 0)
(9.48677e-13 -1.40478e-12 0 3.25261e-13 1.59743e-13 0 0 0 0)
(-1.6263e-13 1.87594e-13 0 -1.89735e-13 -4.60654e-14 0 0 0 0)
(8.13152e-14 -6.30896e-14 0 1.0842e-13 -2.57919e-15 0 0 0 0)
(-2.71051e-14 -1.30794e-15 0 2.71051e-14 1.13757e-14 0 0 0 0)
(0 9.31306e-16 0 5.42101e-14 1.55451e-14 0 0 0 0)
(0 1.02293e-14 0 0 1.37606e-14 0 0 0 0)
(0 1.05831e-14 0 0 -7.64669e-15 0 0 0 0)
(0 -1.44712e-14 0 5.42101e-14 -3.24481e-14 0 0 0 0)
(0 -3.16387e-14 0 8.13152e-14 -3.31505e-14 0 0 0 0)
(2.71051e-14 -1.11555e-14 0 5.42101e-14 -1.44417e-14 0 0 0 0)
(0 1.1413e-14 0 -5.42101e-14 -1.20313e-14 0 0 0 0)
(5.42101e-14 5.90422e-15 0 -5.42101e-14 -2.4466e-14 0 0 0 0)
(2.71051e-14 1.23903e-14 0 -8.13152e-14 -1.55588e-14 0 0 0 0)
(2.71051e-14 2.26513e-14 0 -5.42101e-14 9.36293e-15 0 0 0 0)
(-5.42101e-14 1.16204e-14 0 -5.42101e-14 2.08311e-14 0 0 0 0)
(0 -4.65557e-15 0 -5.42101e-14 -5.07158e-15 0 0 0 0)
(2.71051e-14 -8.37359e-15 0 -2.71051e-14 -2.23864e-14 0 0 0 0)
(0 -1.27418e-15 0 -2.71051e-14 -5.40414e-15 0 0 0 0)
(-2.71051e-14 -3.59355e-15 0 2.71051e-14 1.15525e-14 0 0 0 0)
(-4.87891e-13 -1.23359e-12 0 1.51788e-12 -1.64329e-12 0 0 0 0)
(5.42101e-13 1.36408e-12 0 -1.89735e-13 1.41209e-13 0 0 0 0)
(-5.42101e-14 -2.12079e-13 0 2.43945e-13 -8.44063e-14 0 0 0 0)
(5.42101e-14 5.76553e-14 0 0 -1.29617e-14 0 0 0 0)
(-2.71051e-14 1.31451e-14 0 8.13152e-14 2.00238e-14 0 0 0 0)
(-2.71051e-14 3.14801e-15 0 2.71051e-14 2.49398e-14 0 0 0 0)
(-5.42101e-14 -5.21926e-15 0 1.0842e-13 2.7401e-14 0 0 0 0)
(0 -7.48883e-15 0 8.13152e-14 1.13028e-14 0 0 0 0)
(5.42101e-14 -8.90526e-15 0 8.13152e-14 -1.08051e-14 0 0 0 0)
(5.42101e-14 4.19297e-16 0 0 -4.27219e-15 0 0 0 0)
(-5.42101e-14 2.58377e-16 0 2.71051e-14 2.00558e-14 0 0 0 0)
(-5.42101e-14 -9.86092e-15 0 0 2.01863e-14 0 0 0 0)
(0 2.54698e-15 0 0 1.10823e-14 0 0 0 0)
(-2.71051e-14 2.71244e-14 0 -2.71051e-14 1.45288e-14 0 0 0 0)
(0 3.1713e-14 0 -8.13152e-14 -1.04782e-15 0 0 0 0)
(2.71051e-14 1.38866e-15 0 -2.71051e-14 -1.61855e-14 0 0 0 0)
(5.42101e-14 -2.79871e-14 0 5.42101e-14 -2.4389e-14 0 0 0 0)
(0 -1.21967e-14 0 0 -9.2615e-15 0 0 0 0)
(0 1.54162e-14 0 0 -7.65303e-15 0 0 0 0)
(0 4.2512e-16 0 -2.71051e-14 -6.00446e-15 0 0 0 0)
(4.06576e-13 -2.31057e-13 0 8.13152e-13 2.841e-12 0 0 0 0)
(-3.52366e-13 1.54103e-13 0 -2.43945e-13 -4.92719e-13 0 0 0 0)
(5.42101e-14 3.34233e-14 0 2.71051e-14 1.36833e-13 0 0 0 0)
(-8.13152e-14 4.13405e-14 0 -1.35525e-13 1.85521e-15 0 0 0 0)
(2.71051e-14 3.65935e-14 0 -8.13152e-14 -3.33465e-15 0 0 0 0)
(0 8.30855e-15 0 -2.71051e-14 -1.30647e-14 0 0 0 0)
(0 -3.40764e-15 0 -2.71051e-14 -1.66575e-15 0 0 0 0)
(-2.71051e-14 -2.76231e-14 0 5.42101e-14 6.81669e-15 0 0 0 0)
(-2.71051e-14 -3.00462e-14 0 2.71051e-14 4.27003e-15 0 0 0 0)
(-5.42101e-14 -7.77733e-16 0 0 3.37338e-15 0 0 0 0)
(0 1.33029e-14 0 -2.71051e-14 7.26386e-15 0 0 0 0)
(0 2.43948e-15 0 8.13152e-14 3.18823e-14 0 0 0 0)
(-2.71051e-14 2.46783e-16 0 8.13152e-14 3.40167e-14 0 0 0 0)
(0 2.60164e-16 0 8.13152e-14 1.443e-14 0 0 0 0)
(0 -8.06307e-15 0 8.13152e-14 -1.5334e-14 0 0 0 0)
(2.71051e-14 -1.17208e-14 0 8.13152e-14 -3.72712e-14 0 0 0 0)
(5.42101e-14 2.26846e-15 0 0 -2.95356e-14 0 0 0 0)
(0 8.3624e-15 0 0 9.67937e-16 0 0 0 0)
(0 1.98286e-15 0 0 4.16397e-15 0 0 0 0)
(0 1.00639e-14 0 0 -4.47552e-15 0 0 0 0)
(1.0842e-13 1.1147e-12 0 1.6263e-13 -3.01037e-13 0 0 0 0)
(-1.89735e-13 -1.34009e-12 0 0 1.87627e-13 0 0 0 0)
(0 2.82495e-13 0 -2.71051e-14 1.33239e-14 0 0 0 0)
(-1.0842e-13 -8.25127e-14 0 8.13152e-14 4.23366e-14 0 0 0 0)
(5.42101e-14 -1.77478e-15 0 5.42101e-14 -1.18522e-14 0 0 0 0)
(5.42101e-14 4.81691e-15 0 -5.42101e-14 -2.13824e-14 0 0 0 0)
(2.71051e-14 1.46621e-14 0 -5.42101e-14 -4.11328e-14 0 0 0 0)
(8.13152e-14 -1.55305e-15 0 -2.71051e-14 -4.81433e-14 0 0 0 0)
(2.71051e-14 -1.23486e-14 0 2.71051e-14 -1.40068e-14 0 0 0 0)
(0 3.41313e-15 0 2.71051e-14 1.00888e-14 0 0 0 0)
(0 2.87673e-14 0 0 1.8124e-15 0 0 0 0)
(0 1.6892e-14 0 0 -4.74039e-15 0 0 0 0)
(0 -1.49053e-14 0 0 -4.43071e-15 0 0 0 0)
(0 -2.22263e-14 0 2.71051e-14 -7.42027e-15 0 0 0 0)
(0 -1.99882e-14 0 5.42101e-14 1.05963e-15 0 0 0 0)
(0 -1.28129e-14 0 5.42101e-14 3.31008e-15 0 0 0 0)
(-5.42101e-14 1.0252e-14 0 5.42101e-14 7.59987e-15 0 0 0 0)
(2.71051e-14 2.15029e-14 0 0 1.10752e-15 0 0 0 0)
(0 9.97276e-15 0 2.71051e-14 1.3905e-14 0 0 0 0)
(-2.71051e-14 7.36666e-16 0 2.71051e-14 1.14119e-14 0 0 0 0)
(5.42101e-13 -3.44467e-13 0 -5.42101e-13 -1.81401e-12 0 0 0 0)
(-5.42101e-13 4.68464e-13 0 1.35525e-13 4.39965e-13 0 0 0 0)
(1.35525e-13 -1.11868e-13 0 -5.42101e-14 -9.52735e-14 0 0 0 0)
(0 1.61644e-14 0 5.42101e-14 2.39731e-14 0 0 0 0)
(-5.42101e-14 -2.71254e-14 0 5.42101e-14 1.86475e-14 0 0 0 0)
(-5.42101e-14 -2.09721e-14 0 8.13152e-14 2.58121e-14 0 0 0 0)
(-2.71051e-14 -3.01686e-14 0 8.13152e-14 7.58638e-15 0 0 0 0)
(0 -4.9706e-16 0 -2.71051e-14 -9.95584e-15 0 0 0 0)
(0 2.81859e-14 0 -5.42101e-14 3.93379e-15 0 0 0 0)
(-5.42101e-14 1.50415e-14 0 -2.71051e-14 1.67943e-14 0 0 0 0)
(-2.71051e-14 -1.52626e-15 0 0 3.62995e-16 0 0 0 0)
(8.13152e-14 -3.80363e-15 0 -2.71051e-14 -3.42013e-14 0 0 0 0)
(0 -2.43309e-15 0 -2.71051e-14 -2.16153e-14 0 0 0 0)
(0 5.7505e-15 0 -2.71051e-14 1.37727e-15 0 0 0 0)
(2.71051e-14 2.66727e-15 0 -1.0842e-13 7.65514e-15 0 0 0 0)
(0 -5.18057e-15 0 -1.0842e-13 9.82257e-15 0 0 0 0)
(0 6.59024e-17 0 -5.42101e-14 7.87045e-15 0 0 0 0)
(-2.71051e-14 1.46676e-14 0 0 -2.3459e-17 0 0 0 0)
(2.71051e-14 1.22872e-14 0 -2.71051e-14 3.82402e-15 0 0 0 0)
(-2.71051e-14 -1.52529e-14 0 -2.71051e-14 2.95589e-16 0 0 0 0)
(-2.98156e-13 -2.59342e-13 0 -1.00289e-12 8.43458e-13 0 0 0 0)
(2.43945e-13 3.78644e-13 0 1.6263e-13 -2.38769e-13 0 0 0 0)
(-2.71051e-14 -1.33497e-13 0 -5.42101e-14 1.94342e-14 0 0 0 0)
(2.71051e-14 3.14082e-14 0 -2.71051e-14 -5.51222e-14 0 0 0 0)
(5.42101e-14 6.41876e-17 0 -5.42101e-14 -1.92454e-14 0 0 0 0)
(2.71051e-14 -6.2442e-15 0 0 -5.53538e-15 0 0 0 0)
(2.71051e-14 -2.11058e-14 0 5.42101e-14 1.26687e-14 0 0 0 0)
(-2.71051e-14 -5.20564e-15 0 2.71051e-14 2.11865e-14 0 0 0 0)
(-2.71051e-14 1.44015e-14 0 2.71051e-14 5.95421e-15 0 0 0 0)
(5.42101e-14 -1.57672e-16 0 5.42101e-14 -1.17648e-15 0 0 0 0)
(-2.71051e-14 -2.22283e-14 0 5.42101e-14 1.8469e-14 0 0 0 0)
(-2.71051e-14 -5.08632e-15 0 0 1.56474e-14 0 0 0 0)
(0 2.06732e-14 0 -5.42101e-14 1.37002e-14 0 0 0 0)
(-5.42101e-14 7.04412e-15 0 2.71051e-14 1.06632e-14 0 0 0 0)
(-2.71051e-14 -1.15429e-14 0 5.42101e-14 -7.70992e-15 0 0 0 0)
(2.71051e-14 -1.25976e-14 0 5.42101e-14 -1.19289e-14 0 0 0 0)
(0 4.06009e-16 0 0 -1.06321e-14 0 0 0 0)
(0 1.74565e-14 0 0 -7.265e-15 0 0 0 0)
(0 1.02918e-14 0 0 -1.54761e-14 0 0 0 0)
(5.42101e-14 -3.38295e-15 0 0 -1.04454e-14 0 0 0 0)
(-2.71051e-13 2.60222e-13 0 7.86047e-13 4.53851e-13 0 0 0 0)
(3.52366e-13 -3.5556e-13 0 -5.42101e-14 -1.72921e-13 0 0 0 0)
(-2.71051e-14 7.17795e-14 0 1.0842e-13 1.47564e-14 0 0 0 0)
(2.71051e-14 -2.25152e-14 0 2.71051e-14 -1.94783e-14 0 0 0 0)
(-2.71051e-14 2.24614e-14 0 0 -1.74937e-14 0 0 0 0)
(2.71051e-14 1.0942e-14 0 -2.71051e-14 -2.11963e-14 0 0 0 0)
(-2.71051e-14 -3.44674e-15 0 -2.71051e-14 -7.47163e-15 0 0 0 0)
(0 -7.21156e-15 0 -2.71051e-14 9.01157e-15 0 0 0 0)
(0 5.82293e-15 0 0 1.5428e-15 0 0 0 0)
(0 2.75563e-14 0 -5.42101e-14 2.26217e-15 0 0 0 0)
(-2.71051e-14 1.52977e-14 0 -5.42101e-14 2.285e-14 0 0 0 0)
(-2.71051e-14 -8.57245e-15 0 0 3.44785e-14 0 0 0 0)
(0 -7.41735e-15 0 0 1.41628e-14 0 0 0 0)
(5.42101e-14 -1.56596e-14 0 0 -8.94512e-15 0 0 0 0)
(0 -1.99248e-14 0 5.42101e-14 -2.95714e-15 0 0 0 0)
(0 -8.1027e-15 0 5.42101e-14 7.55872e-15 0 0 0 0)
(-2.71051e-14 4.72981e-15 0 2.71051e-14 1.61884e-14 0 0 0 0)
(0 9.82354e-15 0 0 4.56799e-15 0 0 0 0)
(0 9.10682e-15 0 0 -6.02258e-15 0 0 0 0)
(-2.71051e-14 1.06685e-14 0 2.71051e-14 -7.8809e-16 0 0 0 0)
(4.06576e-13 2.15883e-14 0 1.35525e-13 -7.31698e-13 0 0 0 0)
(-4.06576e-13 -6.04506e-14 0 -2.71051e-14 1.97675e-13 0 0 0 0)
(5.42101e-14 1.99463e-14 0 0 -6.29124e-15 0 0 0 0)
(-1.0842e-13 -8.41922e-16 0 -5.42101e-14 4.10556e-14 0 0 0 0)
(-2.71051e-14 -1.6538e-15 0 -5.42101e-14 8.85929e-15 0 0 0 0)
(2.71051e-14 3.77791e-15 0 0 -1.02796e-14 0 0 0 0)
(5.42101e-14 9.10203e-15 0 -1.0842e-13 -3.46033e-15 0 0 0 0)
(0 3.80879e-15 0 0 1.20051e-14 0 0 0 0)
(0 7.65213e-15 0 -8.13152e-14 1.53582e-14 0 0 0 0)
(-5.42101e-14 2.11496e-14 0 -8.13152e-14 4.16296e-15 0 0 0 0)
(5.42101e-14 9.9881e-15 0 -8.13152e-14 -1.4866e-14 0 0 0 0)
(0 -1.37735e-14 0 0 -6.24415e-15 0 0 0 0)
(0 -2.27504e-14 0 5.42101e-14 -1.09192e-15 0 0 0 0)
(0 -1.00759e-14 0 -8.13152e-14 -1.07661e-14 0 0 0 0)
(0 4.96093e-15 0 -1.0842e-13 -3.90195e-15 0 0 0 0)
(2.71051e-14 6.54792e-15 0 -1.0842e-13 5.59838e-15 0 0 0 0)
(-2.71051e-14 -2.58472e-15 0 -2.71051e-14 5.22727e-15 0 0 0 0)
(0 -4.75454e-15 0 0 6.73333e-15 0 0 0 0)
(0 4.93573e-15 0 -5.42101e-14 5.05933e-15 0 0 0 0)
(0 3.42772e-15 0 -2.71051e-14 7.22968e-17 0 0 0 0)
(-1.35525e-13 -2.73801e-13 0 -2.1684e-13 4.47243e-13 0 0 0 0)
(1.89735e-13 3.69847e-13 0 2.71051e-14 -3.20664e-14 0 0 0 0)
(-5.42101e-14 -8.48399e-14 0 0 5.26087e-14 0 0 0 0)
(0 -7.36471e-15 0 0 1.72684e-14 0 0 0 0)
(0 -2.88738e-14 0 8.13152e-14 1.55519e-14 0 0 0 0)
(-5.42101e-14 -1.37759e-15 0 5.42101e-14 1.70412e-14 0 0 0 0)
(-2.71051e-14 1.88379e-14 0 5.42101e-14 7.15645e-15 0 0 0 0)
(0 1.1607e-14 0 0 -1.34317e-15 0 0 0 0)
(0 -2.01922e-15 0 5.42101e-14 -1.2391e-15 0 0 0 0)
(0 -2.66795e-15 0 8.13152e-14 -1.26299e-14 0 0 0 0)
(2.71051e-14 4.89054e-15 0 8.13152e-14 -1.12216e-14 0 0 0 0)
(0 5.20163e-15 0 0 3.01317e-15 0 0 0 0)
(0 -1.19393e-14 0 0 7.16608e-15 0 0 0 0)
(-2.71051e-14 -1.84696e-14 0 0 1.00739e-14 0 0 0 0)
(0 -3.56032e-15 0 0 -9.05878e-15 0 0 0 0)
(2.71051e-14 1.02652e-15 0 0 -2.62931e-14 0 0 0 0)
(5.42101e-14 5.86476e-15 0 0 -2.33933e-14 0 0 0 0)
(-5.42101e-14 9.6556e-15 0 0 2.21069e-16 0 0 0 0)
(5.42101e-14 2.44579e-15 0 5.42101e-14 -3.07003e-15 0 0 0 0)
(0 5.53687e-15 0 2.71051e-14 -5.64321e-15 0 0 0 0)
(2.1684e-13 4.36765e-13 0 -4.33681e-13 8.73019e-13 0 0 0 0)
(-1.89735e-13 -4.55085e-13 0 -2.71051e-14 -1.7714e-13 0 0 0 0)
(2.71051e-14 6.9281e-14 0 -1.0842e-13 2.25337e-14 0 0 0 0)
(-2.71051e-14 -3.78987e-14 0 0 -8.87874e-15 0 0 0 0)
(5.42101e-14 -1.88095e-15 0 -2.71051e-14 7.34814e-15 0 0 0 0)
(-2.71051e-14 -4.61757e-15 0 -5.42101e-14 2.09804e-14 0 0 0 0)
(0 -9.28237e-15 0 0 1.5434e-14 0 0 0 0)
(0 -4.58676e-15 0 -5.42101e-14 5.98565e-15 0 0 0 0)
(0 -3.63462e-15 0 2.71051e-14 9.32252e-15 0 0 0 0)
(0 1.11671e-14 0 -5.42101e-14 7.90435e-15 0 0 0 0)
(0 2.56312e-14 0 0 2.58598e-15 0 0 0 0)
(-2.71051e-14 4.61415e-15 0 0 -4.53636e-15 0 0 0 0)
(0 -1.56897e-14 0 0 -9.53528e-15 0 0 0 0)
(0 -2.63007e-14 0 8.13152e-14 6.46033e-15 0 0 0 0)
(-2.71051e-14 -3.1406e-14 0 5.42101e-14 6.25624e-15 0 0 0 0)
(2.71051e-14 -7.78658e-15 0 5.42101e-14 -2.20747e-15 0 0 0 0)
(-2.71051e-14 2.39294e-14 0 0 8.01268e-15 0 0 0 0)
(0 1.55687e-14 0 0 -1.53362e-15 0 0 0 0)
(2.71051e-14 -9.28542e-16 0 0 -5.58124e-15 0 0 0 0)
(-2.71051e-14 1.2141e-14 0 0 2.94773e-15 0 0 0 0)
(-6.23416e-13 4.22078e-13 0 -5.42101e-13 -1.38017e-12 0 0 0 0)
(5.69206e-13 -4.80639e-13 0 0 1.53166e-13 0 0 0 0)
(-2.71051e-14 8.34217e-14 0 -8.13152e-14 -7.58615e-14 0 0 0 0)
(2.71051e-14 -2.25503e-14 0 -5.42101e-14 -6.06789e-16 0 0 0 0)
(-2.71051e-14 9.8527e-16 0 -5.42101e-14 3.43746e-15 0 0 0 0)
(0 6.70832e-15 0 -8.13152e-14 -1.01997e-14 0 0 0 0)
(0 3.84322e-15 0 -8.13152e-14 -7.19778e-15 0 0 0 0)
(0 5.49546e-15 0 -2.71051e-14 -4.12296e-15 0 0 0 0)
(0 -1.00521e-16 0 -2.71051e-14 3.95792e-16 0 0 0 0)
(-5.42101e-14 -9.40449e-15 0 0 1.24676e-15 0 0 0 0)
(5.42101e-14 -7.55017e-15 0 -5.42101e-14 -2.63808e-14 0 0 0 0)
(8.13152e-14 -6.91962e-15 0 0 -3.9432e-14 0 0 0 0)
(0 -9.42618e-16 0 2.71051e-14 -1.78911e-14 0 0 0 0)
(0 -2.6781e-15 0 0 -7.8717e-15 0 0 0 0)
(0 -1.22281e-14 0 0 3.23102e-15 0 0 0 0)
(0 2.78296e-15 0 5.42101e-14 1.97108e-14 0 0 0 0)
(-5.42101e-14 6.53862e-15 0 0 2.69859e-14 0 0 0 0)
(5.42101e-14 -3.93832e-15 0 0 -4.06806e-15 0 0 0 0)
(0 6.92714e-15 0 0 -1.5798e-15 0 0 0 0)
(0 8.17038e-15 0 -2.71051e-14 3.61657e-15 0 0 0 0)
(-3.52366e-13 -7.90244e-13 0 1.54499e-12 -8.4803e-13 0 0 0 0)
(2.1684e-13 8.49228e-13 0 -1.6263e-13 7.88512e-14 0 0 0 0)
(0 -8.44919e-14 0 2.1684e-13 -2.94645e-14 0 0 0 0)
(8.13152e-14 4.14002e-14 0 5.42101e-14 -3.93696e-15 0 0 0 0)
(-2.71051e-14 -1.14738e-14 0 1.0842e-13 7.55107e-15 0 0 0 0)
(0 -1.52528e-14 0 1.35525e-13 -8.7596e-15 0 0 0 0)
(0 -3.20566e-15 0 1.0842e-13 -1.83083e-14 0 0 0 0)
(2.71051e-14 3.00681e-15 0 1.35525e-13 -2.31501e-14 0 0 0 0)
(8.13152e-14 1.7351e-15 0 5.42101e-14 -2.75319e-14 0 0 0 0)
(0 -1.56095e-14 0 1.0842e-13 -1.75475e-14 0 0 0 0)
(2.71051e-14 -1.50476e-14 0 1.0842e-13 -7.87392e-15 0 0 0 0)
(0 1.31038e-14 0 5.42101e-14 -7.79882e-16 0 0 0 0)
(-2.71051e-14 1.58706e-14 0 -2.71051e-14 1.03398e-14 0 0 0 0)
(0 -5.1786e-15 0 0 3.85065e-15 0 0 0 0)
(0 -3.8235e-15 0 2.71051e-14 3.41433e-15 0 0 0 0)
(0 1.59683e-14 0 -2.71051e-14 8.42841e-15 0 0 0 0)
(-2.71051e-14 1.50549e-16 0 0 9.50525e-15 0 0 0 0)
(0 -1.2997e-14 0 0 3.90674e-15 0 0 0 0)
(0 6.75609e-15 0 2.71051e-14 3.19307e-15 0 0 0 0)
(0 1.01042e-14 0 0 -3.33579e-15 0 0 0 0)
(7.58942e-13 -3.47101e-13 0 -5.69206e-13 1.22719e-12 0 0 0 0)
(-7.04731e-13 3.37927e-13 0 1.35525e-13 -8.98454e-14 0 0 0 0)
(1.35525e-13 6.33503e-16 0 -8.13152e-14 4.00348e-14 0 0 0 0)
(-5.42101e-14 1.44653e-14 0 0 -5.98707e-15 0 0 0 0)
(2.71051e-14 -3.83737e-15 0 -5.42101e-14 -1.58307e-14 0 0 0 0)
(0 -1.9151e-14 0 -5.42101e-14 9.32414e-15 0 0 0 0)
(-2.71051e-14 -1.05472e-14 0 -2.71051e-14 1.85732e-14 0 0 0 0)
(0 -3.72815e-15 0 -5.42101e-14 2.3077e-14 0 0 0 0)
(-2.71051e-14 5.5021e-15 0 -5.42101e-14 1.92945e-14 0 0 0 0)
(-2.71051e-14 1.02535e-14 0 -5.42101e-14 1.58398e-14 0 0 0 0)
(-2.71051e-14 9.2174e-15 0 -5.42101e-14 2.46505e-14 0 0 0 0)
(-2.71051e-14 1.12941e-14 0 -5.42101e-14 2.167e-14 0 0 0 0)
(0 3.68791e-15 0 0 2.52634e-16 0 0 0 0)
(0 -9.60353e-15 0 -2.71051e-14 2.11154e-15 0 0 0 0)
(-2.71051e-14 -7.65035e-15 0 -2.71051e-14 1.50348e-14 0 0 0 0)
(0 8.87387e-15 0 -2.71051e-14 1.35854e-14 0 0 0 0)
(0 2.01695e-15 0 0 -9.80737e-15 0 0 0 0)
(2.71051e-14 -1.02505e-14 0 0 1.14179e-14 0 0 0 0)
(-2.71051e-14 -3.15397e-16 0 -2.71051e-14 1.34401e-14 0 0 0 0)
(0 8.3131e-15 0 0 4.9772e-15 0 0 0 0)
)
;

boundaryField
{
    movingWall
    {
        type            extrapolatedCalculated;
        value           nonuniform List<tensor> 
20
(
(7.58942e-13 -3.47101e-13 0 -3.4639e-12 1.38072e-12 0 0 0 0)
(-7.04731e-13 3.37927e-13 0 4.44089e-13 7.68138e-15 0 0 0 0)
(1.35525e-13 6.33503e-16 0 -6.21725e-13 2.90151e-14 0 0 0 0)
(-5.42101e-14 1.44653e-14 0 -1.77636e-13 5.14737e-15 0 0 0 0)
(2.71051e-14 -3.83737e-15 0 -3.55271e-13 -2.88462e-14 0 0 0 0)
(0 -1.9151e-14 0 -3.10862e-13 2.04968e-14 0 0 0 0)
(-2.71051e-14 -1.05472e-14 0 -2.66454e-13 4.77578e-14 0 0 0 0)
(0 -3.72815e-15 0 -3.10862e-13 6.26858e-14 0 0 0 0)
(-2.71051e-14 5.5021e-15 0 -2.22045e-13 6.26704e-14 0 0 0 0)
(-2.71051e-14 1.02535e-14 0 -2.22045e-13 4.06774e-14 0 0 0 0)
(-2.71051e-14 9.2174e-15 0 -8.88178e-14 2.16566e-14 0 0 0 0)
(-2.71051e-14 1.12941e-14 0 -4.44089e-14 3.80784e-15 0 0 0 0)
(0 3.68791e-15 0 0 -2.35196e-14 0 0 0 0)
(0 -9.60353e-15 0 -4.44089e-14 -1.09438e-14 0 0 0 0)
(-2.71051e-14 -7.65035e-15 0 -4.44089e-14 1.48945e-14 0 0 0 0)
(0 8.87387e-15 0 0 1.96576e-14 0 0 0 0)
(0 2.01695e-15 0 0 -2.0601e-14 0 0 0 0)
(2.71051e-14 -1.02505e-14 0 0 1.15898e-14 0 0 0 0)
(-2.71051e-14 -3.15397e-16 0 -4.44089e-14 2.0401e-14 0 0 0 0)
(0 8.3131e-15 0 0 1.28514e-14 0 0 0 0)
)
;
    }
    fixedWalls
    {
        type            extrapolatedCalculated;
        value           nonuniform List<tensor> 
60
(
(1.86517e-12 3.85873e-12 0 -3.52366e-13 1.28661e-12 0 0 0 0)
(-3.37508e-12 1.28769e-12 0 -3.52366e-13 -1.7522e-12 0 0 0 0)
(5.77316e-13 -3.15005e-12 0 1.6263e-13 -7.78252e-13 0 0 0 0)
(-2.75335e-12 -1.82532e-12 0 4.87891e-13 1.58902e-12 0 0 0 0)
(2.53131e-12 3.20603e-12 0 5.42101e-14 -1.30925e-13 0 0 0 0)
(-2.4869e-12 -2.34902e-12 0 6.50521e-13 -8.70968e-13 0 0 0 0)
(5.06262e-12 -2.7784e-13 0 -4.60786e-13 2.04965e-12 0 0 0 0)
(-4.26326e-12 5.84958e-12 0 -1.84314e-12 -1.36047e-12 0 0 0 0)
(-2.30926e-12 -5.71971e-12 0 1.51788e-12 -1.64329e-12 0 0 0 0)
(1.77636e-12 -7.2357e-13 0 8.13152e-13 2.841e-12 0 0 0 0)
(8.88178e-13 5.64431e-12 0 1.6263e-13 -3.01037e-13 0 0 0 0)
(2.4869e-12 -1.92772e-12 0 -5.42101e-13 -1.81401e-12 0 0 0 0)
(-1.33227e-12 -1.61172e-12 0 -1.00289e-12 8.43458e-13 0 0 0 0)
(-1.42109e-12 1.44611e-12 0 7.86047e-13 4.53851e-13 0 0 0 0)
(1.73195e-12 2.03689e-13 0 1.35525e-13 -7.31698e-13 0 0 0 0)
(-8.88178e-13 -1.48068e-12 0 -2.1684e-13 4.47243e-13 0 0 0 0)
(9.32587e-13 1.99266e-12 0 -4.33681e-13 8.73019e-13 0 0 0 0)
(-2.66454e-12 2.0114e-12 0 -5.42101e-13 -1.38017e-12 0 0 0 0)
(-1.15463e-12 -3.52804e-12 0 1.54499e-12 -8.4803e-13 0 0 0 0)
(3.4639e-12 -1.38072e-12 0 -5.69206e-13 1.22719e-12 0 0 0 0)
(0 4.85655e-15 0 0 -4.30293e-15 0 0 0 0)
(8.88178e-14 1.23552e-14 0 0 -6.27452e-15 0 0 0 0)
(0 2.99546e-14 0 0 -9.93522e-15 0 0 0 0)
(-4.44089e-14 5.2096e-14 0 2.71051e-14 -3.75395e-15 0 0 0 0)
(-8.88178e-14 4.49705e-14 0 0 6.04915e-15 0 0 0 0)
(0 2.78995e-14 0 -2.71051e-14 4.92037e-15 0 0 0 0)
(0 2.5289e-14 0 0 9.11575e-15 0 0 0 0)
(-4.44089e-14 -8.56355e-15 0 2.71051e-14 1.15525e-14 0 0 0 0)
(0 -2.09212e-14 0 -2.71051e-14 -6.00446e-15 0 0 0 0)
(0 1.54543e-14 0 0 -4.47552e-15 0 0 0 0)
(0 -3.01914e-15 0 2.71051e-14 1.14119e-14 0 0 0 0)
(-4.44089e-14 -3.01931e-14 0 -2.71051e-14 2.95589e-16 0 0 0 0)
(8.88178e-14 -4.20149e-15 0 0 -1.04454e-14 0 0 0 0)
(-4.44089e-14 1.15883e-14 0 2.71051e-14 -7.8809e-16 0 0 0 0)
(0 -1.04913e-15 0 -2.71051e-14 7.22968e-17 0 0 0 0)
(0 1.12992e-14 0 2.71051e-14 -5.64321e-15 0 0 0 0)
(-4.44089e-14 2.15237e-14 0 0 2.94773e-15 0 0 0 0)
(0 -4.91774e-16 0 -2.71051e-14 3.61657e-15 0 0 0 0)
(0 7.0574e-15 0 0 -3.33579e-15 0 0 0 0)
(0 1.28514e-14 0 0 4.9772e-15 0 0 0 0)
(4.33681e-13 8.53506e-13 0 1.86517e-12 3.85873e-12 0 0 0 0)
(-4.06576e-13 -9.29222e-13 0 -1.77636e-13 -4.44711e-13 0 0 0 0)
(5.42101e-14 1.13706e-13 0 3.10862e-13 1.41846e-13 0 0 0 0)
(-2.71051e-14 -3.77231e-14 0 8.88178e-14 1.01126e-14 0 0 0 0)
(0 -6.97513e-15 0 1.33227e-13 -9.04597e-15 0 0 0 0)
(0 -8.17588e-15 0 8.88178e-14 -1.77879e-14 0 0 0 0)
(0 -7.1962e-15 0 1.33227e-13 -4.17495e-14 0 0 0 0)
(2.71051e-14 4.92738e-15 0 1.33227e-13 -4.65727e-14 0 0 0 0)
(2.71051e-14 1.30748e-14 0 2.22045e-13 -2.204e-14 0 0 0 0)
(-2.71051e-14 1.53384e-14 0 1.77636e-13 5.72654e-15 0 0 0 0)
(0 1.63853e-14 0 1.77636e-13 3.93137e-14 0 0 0 0)
(-2.71051e-14 8.53797e-15 0 1.33227e-13 7.12678e-14 0 0 0 0)
(-2.71051e-14 -8.55043e-15 0 4.44089e-14 7.34656e-14 0 0 0 0)
(-2.71051e-14 -1.06218e-14 0 4.44089e-14 3.70661e-14 0 0 0 0)
(0 1.99175e-15 0 0 3.09783e-14 0 0 0 0)
(0 -2.85684e-15 0 0 4.50331e-14 0 0 0 0)
(-5.42101e-14 -1.58269e-14 0 -8.88178e-14 1.95509e-14 0 0 0 0)
(0 -1.3538e-14 0 -8.88178e-14 -1.82744e-14 0 0 0 0)
(5.42101e-14 3.35446e-15 0 0 -3.46012e-14 0 0 0 0)
(0 9.86443e-15 0 0 -4.85655e-15 0 0 0 0)
)
;
    }
    frontAndBack
    {
        type            empty;
    }
}


// ************************************************************************* //
