/*--------------------------------*- C++ -*----------------------------------*\
| =========                 |                                                 |
| \\      /  F ield         | OpenFOAM: The Open Source CFD Toolbox           |
|  \\    /   O peration     | Version:  2312                                  |
|   \\  /    A nd           | Website:  www.openfoam.com                      |
|    \\/     M anipulation  |                                                 |
\*---------------------------------------------------------------------------*/
FoamFile
{
    version     2.0;
    format      ascii;
    arch        "LSB;label=32;scalar=64";
    class       volVectorField;
    location    "7.75";
    object      gradPhi;
}
// * * * * * * * * * * * * * * * * * * * * * * * * * * * * * * * * * * * * * //

dimensions      [0 2 -1 0 0 0 0];

internalField   nonuniform List<vector> 
400
(
(-0.02 -7.26014e-18 0)
(-3.30872e-18 3.56954e-18 0)
(-3.30872e-18 2.50056e-18 0)
(0 9.52009e-19 0)
(0 -4.94155e-19 0)
(0 -1.38751e-19 0)
(0 -2.35432e-19 0)
(1.65436e-18 -6.01936e-19 0)
(0 -1.67795e-19 0)
(0 -8.77724e-20 0)
(0 4.05221e-19 0)
(-1.65436e-18 1.20372e-18 0)
(-1.65436e-18 1.67158e-18 0)
(0 4.5875e-19 0)
(0 1.37545e-19 0)
(-1.65436e-18 1.30463e-18 0)
(-1.65436e-18 1.3125e-18 0)
(1.65436e-18 -6.20566e-19 0)
(1.65436e-18 -1.83503e-18 0)
(0 -1.94617e-19 0)
(-0.02 5.6118e-18 0)
(4.96308e-18 -3.49145e-18 0)
(0 -1.13528e-18 0)
(0 1.13662e-19 0)
(-1.65436e-18 1.20026e-18 0)
(0 -3.08873e-19 0)
(1.65436e-18 -1.03576e-18 0)
(-1.65436e-18 5.08416e-19 0)
(0 1.09702e-18 0)
(-3.30872e-18 3.23155e-18 0)
(-1.65436e-18 1.08369e-18 0)
(1.65436e-18 -6.92202e-19 0)
(3.30872e-18 -2.34292e-18 0)
(0 -1.59822e-18 0)
(1.65436e-18 -2.19639e-18 0)
(3.30872e-18 -3.53715e-18 0)
(1.65436e-18 -1.19173e-18 0)
(-1.65436e-18 8.83021e-19 0)
(-1.65436e-18 1.1239e-18 0)
(0 -1.74497e-20 0)
(-0.02 -1.88028e-17 0)
(-1.65436e-17 1.75268e-17 0)
(1.65436e-18 -1.69858e-18 0)
(-1.65436e-18 1.76682e-18 0)
(-1.65436e-18 1.52534e-18 0)
(-1.65436e-18 1.12985e-18 0)
(-1.65436e-18 2.68504e-18 0)
(-1.65436e-18 7.85111e-19 0)
(1.65436e-18 -1.02647e-18 0)
(1.65436e-18 -3.0743e-18 0)
(1.65436e-18 -1.67883e-18 0)
(1.65436e-18 -4.57953e-19 0)
(-1.65436e-18 1.07241e-18 0)
(-1.65436e-18 1.01585e-18 0)
(-1.65436e-18 2.68715e-18 0)
(-3.30872e-18 2.428e-18 0)
(1.65436e-18 -9.5752e-19 0)
(1.65436e-18 -1.8665e-18 0)
(0 -1.44863e-18 0)
(1.65436e-18 -1.33764e-18 0)
(-0.02 2.78379e-17 0)
(2.64698e-17 -2.85171e-17 0)
(-1.65436e-18 1.41581e-18 0)
(3.30872e-18 -2.70916e-18 0)
(3.30872e-18 -1.21853e-18 0)
(-3.30872e-18 9.53237e-19 0)
(0 9.13621e-19 0)
(-1.65436e-18 1.21435e-18 0)
(0 7.61845e-19 0)
(0 -7.42203e-19 0)
(0 -1.39646e-20 0)
(0 -1.50271e-19 0)
(1.65436e-18 -9.00516e-19 0)
(0 -3.88456e-19 0)
(1.65436e-18 -1.23157e-18 0)
(0 -5.48828e-19 0)
(0 8.38796e-19 0)
(0 8.70622e-19 0)
(-1.65436e-18 5.88926e-19 0)
(-1.65436e-18 1.84609e-19 0)
(-0.02 -1.89597e-17 0)
(-1.65436e-17 1.6069e-17 0)
(0 -1.31575e-19 0)
(-1.65436e-18 9.57938e-19 0)
(0 -2.93341e-19 0)
(1.65436e-18 -2.57594e-19 0)
(-1.65436e-18 3.53334e-19 0)
(0 -1.01252e-19 0)
(1.65436e-18 -5.59754e-19 0)
(0 6.83151e-19 0)
(-1.65436e-18 4.99349e-19 0)
(-1.65436e-18 6.45445e-19 0)
(1.65436e-18 -9.25558e-20 0)
(0 -5.24246e-19 0)
(0 1.75773e-19 0)
(-1.65436e-18 9.41476e-19 0)
(0 2.81744e-20 0)
(0 6.97182e-19 0)
(-1.65436e-18 5.62462e-19 0)
(0 6.58208e-19 0)
(-0.02 2.49028e-17 0)
(1.65436e-17 -1.67451e-17 0)
(1.65436e-18 -1.0448e-18 0)
(3.30872e-18 -3.13432e-18 0)
(1.65436e-18 -1.70401e-18 0)
(1.65436e-18 -2.84159e-18 0)
(4.96308e-18 -4.5605e-18 0)
(3.30872e-18 -3.08334e-18 0)
(-1.65436e-18 1.49063e-18 0)
(-1.65436e-18 1.98793e-18 0)
(-1.65436e-18 1.41094e-18 0)
(0 -7.11606e-19 0)
(-1.65436e-18 3.98198e-19 0)
(0 8.64689e-19 0)
(0 -4.75885e-19 0)
(0 -4.59175e-19 0)
(-1.65436e-18 1.56643e-18 0)
(0 6.14553e-19 0)
(0 4.41738e-19 0)
(0 1.3238e-20 0)
(-0.02 -2.25902e-17 0)
(-1.98523e-17 2.06412e-17 0)
(-1.65436e-18 8.94598e-19 0)
(-3.30872e-18 2.6552e-18 0)
(0 -5.82595e-19 0)
(0 5.06285e-19 0)
(0 7.62506e-19 0)
(-1.65436e-18 1.78355e-18 0)
(0 -4.83534e-19 0)
(1.65436e-18 -1.60698e-18 0)
(3.30872e-18 -3.27807e-18 0)
(1.65436e-18 -1.20418e-18 0)
(0 -1.51491e-19 0)
(0 -1.93518e-19 0)
(-1.65436e-18 1.42526e-18 0)
(1.65436e-18 -1.89406e-19 0)
(0 -1.31737e-18 0)
(0 4.63802e-19 0)
(-1.65436e-18 1.15564e-18 0)
(0 3.34714e-19 0)
(-0.02 1.72263e-17 0)
(1.48893e-17 -1.19772e-17 0)
(0 -1.66422e-19 0)
(0 -1.95502e-18 0)
(0 7.03817e-19 0)
(0 2.89966e-19 0)
(0 5.40804e-19 0)
(0 -2.88923e-19 0)
(0 -5.38674e-19 0)
(0 -9.90724e-19 0)
(0 -6.33252e-19 0)
(1.65436e-18 -1.05182e-18 0)
(1.65436e-18 -1.84564e-18 0)
(1.65436e-18 -1.52372e-18 0)
(0 -9.05539e-19 0)
(0 1.44905e-18 0)
(-1.65436e-18 9.88747e-19 0)
(1.65436e-18 -1.70408e-18 0)
(0 -9.64131e-19 0)
(-1.65436e-18 1.18712e-18 0)
(-0.02 2.4904e-18 0)
(0 1.49971e-18 0)
(4.96308e-18 -5.58227e-18 0)
(1.65436e-18 -1.13733e-18 0)
(-1.65436e-18 1.29891e-18 0)
(-1.65436e-18 1.73148e-18 0)
(-3.30872e-18 1.60078e-18 0)
(0 -3.55341e-19 0)
(3.30872e-18 -2.35557e-18 0)
(3.30872e-18 -2.0615e-18 0)
(-3.30872e-18 1.75279e-18 0)
(-1.65436e-18 2.33809e-18 0)
(-1.65436e-18 1.32991e-18 0)
(0 1.44893e-18 0)
(0 2.96967e-19 0)
(0 -1.05414e-18 0)
(1.65436e-18 -1.43474e-18 0)
(0 -3.93605e-20 0)
(0 -6.42475e-19 0)
(1.65436e-18 -7.04949e-19 0)
(-0.02 7.74048e-19 0)
(8.27181e-18 -8.82928e-18 0)
(-6.61744e-18 6.8027e-18 0)
(0 1.29156e-18 0)
(0 1.41205e-19 0)
(0 -5.50045e-19 0)
(0 -2.25634e-19 0)
(0 1.67753e-18 0)
(-1.65436e-18 1.6571e-18 0)
(-3.30872e-18 2.1432e-18 0)
(0 -2.05767e-19 0)
(1.65436e-18 4.82383e-19 0)
(-3.30872e-18 9.74368e-19 0)
(0 3.82191e-19 0)
(0 -1.88568e-19 0)
(1.65436e-18 -1.61113e-18 0)
(3.30872e-18 -2.62589e-18 0)
(0 1.75565e-19 0)
(0 1.21028e-18 0)
(0 -1.08834e-18 0)
(-0.02 2.34786e-18 0)
(0 4.79326e-19 0)
(0 1.4487e-18 0)
(-4.96308e-18 2.60545e-18 0)
(1.65436e-18 -1.59162e-18 0)
(1.65436e-18 -2.24441e-18 0)
(1.65436e-18 -2.09461e-18 0)
(4.96308e-18 -3.35648e-18 0)
(0 -1.27384e-18 0)
(1.65436e-18 -1.30082e-18 0)
(1.65436e-18 -1.69039e-19 0)
(-1.65436e-18 6.32445e-19 0)
(0 6.78887e-19 0)
(0 -1.11961e-19 0)
(0 -3.34434e-19 0)
(0 3.49575e-19 0)
(-3.30872e-18 2.27719e-18 0)
(0 -4.01925e-19 0)
(1.65436e-18 -3.33182e-19 0)
(-1.65436e-18 1.89161e-18 0)
(-0.02 -2.54908e-17 0)
(-2.48154e-17 2.42698e-17 0)
(4.96308e-18 -5.57575e-18 0)
(0 -2.50221e-19 0)
(-1.65436e-18 2.25626e-18 0)
(-3.30872e-18 3.22921e-18 0)
(-1.65436e-18 7.43053e-19 0)
(0 -5.77288e-19 0)
(0 -8.56729e-20 0)
(-3.30872e-18 3.08869e-18 0)
(-1.65436e-18 1.05413e-18 0)
(1.65436e-18 -2.79505e-18 0)
(3.30872e-18 -2.3215e-18 0)
(1.65436e-18 -9.22023e-19 0)
(0 -1.9845e-20 0)
(0 1.20545e-19 0)
(1.65436e-18 -1.04325e-18 0)
(-1.65436e-18 3.30665e-20 0)
(0 7.52349e-19 0)
(-1.65436e-18 9.23903e-20 0)
(-0.02 1.37736e-17 0)
(9.92617e-18 -1.12069e-17 0)
(-1.65436e-18 1.56532e-18 0)
(3.30872e-18 -2.12743e-18 0)
(1.65436e-18 -2.48617e-18 0)
(1.65436e-18 -2.13753e-18 0)
(0 -7.56315e-20 0)
(0 1.18332e-18 0)
(-1.65436e-18 8.27591e-19 0)
(1.65436e-18 -1.96942e-18 0)
(0 -8.99782e-20 0)
(-1.65436e-18 1.43618e-18 0)
(-1.65436e-18 1.63852e-18 0)
(-1.65436e-18 2.40837e-18 0)
(0 3.98958e-19 0)
(0 -7.17509e-19 0)
(0 -1.26705e-19 0)
(-1.65436e-18 1.01123e-20 0)
(1.65436e-18 -7.21424e-19 0)
(3.30872e-18 -1.84247e-18 0)
(-0.02 1.06295e-17 0)
(1.15805e-17 -1.28121e-17 0)
(0 5.30242e-19 0)
(0 -1.41099e-18 0)
(1.65436e-18 -2.06277e-19 0)
(0 2.81284e-19 0)
(-1.65436e-18 5.05019e-19 0)
(0 8.32321e-19 0)
(0 -2.31687e-19 0)
(0 4.60198e-19 0)
(0 1.6744e-18 0)
(-1.65436e-18 1.7048e-18 0)
(0 2.50856e-19 0)
(1.65436e-18 -1.86674e-18 0)
(0 -5.01559e-19 0)
(0 4.66317e-19 0)
(0 7.21953e-19 0)
(0 2.82853e-19 0)
(0 -4.38526e-19 0)
(-1.65436e-18 6.48191e-19 0)
(-0.02 -1.76481e-17 0)
(-1.65436e-17 1.62832e-17 0)
(1.65436e-18 -6.35042e-19 0)
(-3.30872e-18 3.15413e-18 0)
(0 9.52543e-19 0)
(1.65436e-18 -1.73838e-18 0)
(0 -1.51444e-18 0)
(1.65436e-18 2.61517e-19 0)
(-1.65436e-18 8.97498e-19 0)
(0 8.66817e-19 0)
(0 -8.30359e-19 0)
(0 -9.77357e-20 0)
(0 6.23453e-19 0)
(0 -4.45558e-19 0)
(1.65436e-18 -4.56703e-19 0)
(0 4.89902e-19 0)
(-1.65436e-18 9.06764e-19 0)
(1.65436e-18 -3.91161e-19 0)
(-1.65436e-18 2.13039e-19 0)
(0 6.56049e-19 0)
(-0.02 8.30138e-18 0)
(9.92617e-18 -1.04303e-17 0)
(-1.65436e-18 3.45468e-18 0)
(0 -4.64698e-20 0)
(-1.65436e-18 7.30098e-19 0)
(-1.65436e-18 2.01316e-18 0)
(-1.65436e-18 1.77469e-18 0)
(0 1.1373e-19 0)
(0 6.43404e-20 0)
(1.65436e-18 -7.76482e-19 0)
(0 -7.6986e-19 0)
(0 -5.79935e-19 0)
(1.65436e-18 -3.71157e-19 0)
(-3.30872e-18 1.03304e-18 0)
(0 -2.13095e-19 0)
(1.65436e-18 -1.20345e-18 0)
(1.65436e-18 -2.04234e-18 0)
(0 8.7629e-19 0)
(0 -1.84401e-19 0)
(1.65436e-18 -1.45148e-18 0)
(-0.02 -7.13516e-18 0)
(-4.96308e-18 4.0752e-18 0)
(0 3.77612e-19 0)
(0 -2.2471e-19 0)
(1.65436e-18 -8.48093e-19 0)
(-1.65436e-18 3.5722e-19 0)
(0 1.0757e-19 0)
(0 5.74082e-20 0)
(0 2.14264e-19 0)
(1.65436e-18 -4.10363e-19 0)
(-1.65436e-18 3.91665e-19 0)
(0 8.01523e-19 0)
(0 -3.24839e-19 0)
(0 -1.85746e-20 0)
(-1.65436e-18 7.07709e-19 0)
(1.65436e-18 -3.41184e-19 0)
(-1.65436e-18 7.19893e-19 0)
(1.65436e-18 -3.32395e-19 0)
(0 -1.82873e-19 0)
(-1.65436e-18 6.90269e-19 0)
(-0.02 7.6604e-18 0)
(0 -1.94689e-18 0)
(4.96308e-18 -3.2849e-18 0)
(-1.65436e-18 6.82485e-19 0)
(0 1.33144e-18 0)
(0 -2.48277e-19 0)
(0 -3.82238e-19 0)
(0 1.01479e-19 0)
(0 5.55995e-19 0)
(-1.65436e-18 1.2641e-18 0)
(1.65436e-18 -1.47967e-18 0)
(3.30872e-18 -2.86358e-18 0)
(0 -9.07975e-19 0)
(0 -4.49798e-19 0)
(1.65436e-18 -5.22312e-19 0)
(-1.65436e-18 1.07722e-18 0)
(0 1.17833e-18 0)
(0 -8.67504e-19 0)
(0 -4.75419e-19 0)
(0 6.74967e-19 0)
(-0.02 8.68155e-18 0)
(-1.65436e-18 1.31103e-18 0)
(3.30872e-18 -2.18539e-18 0)
(1.65436e-18 -1.80719e-18 0)
(0 6.57952e-19 0)
(-1.65436e-18 -2.58364e-19 0)
(1.65436e-18 -3.6521e-19 0)
(1.65436e-18 -1.18275e-18 0)
(3.30872e-18 -2.46633e-18 0)
(1.65436e-18 -2.03128e-18 0)
(0 -5.23815e-19 0)
(0 3.38406e-20 0)
(0 6.58454e-19 0)
(0 6.11144e-19 0)
(0 4.40651e-19 0)
(0 -2.34621e-19 0)
(-1.65436e-18 1.31506e-18 0)
(0 1.30244e-18 0)
(0 7.36251e-19 0)
(0 -1.20668e-18 0)
(-0.02 -1.23507e-17 0)
(-1.65436e-18 2.31528e-19 0)
(-1.65436e-18 2.44979e-18 0)
(-1.65436e-18 6.23596e-19 0)
(1.65436e-18 -1.37304e-18 0)
(0 2.32113e-19 0)
(0 5.03025e-19 0)
(-1.65436e-18 1.02858e-18 0)
(-1.65436e-18 1.62305e-18 0)
(0 1.32622e-18 0)
(-3.30872e-18 1.40041e-18 0)
(0 1.32591e-18 0)
(0 -3.80309e-20 0)
(0 -1.80149e-19 0)
(0 7.75896e-19 0)
(-1.65436e-18 1.26987e-18 0)
(0 -1.1143e-18 0)
(0 1.39819e-20 0)
(0 4.41504e-19 0)
(0 8.12266e-19 0)
)
;

boundaryField
{
    movingWall
    {
        type            extrapolatedCalculated;
        value           nonuniform List<vector> 
20
(
(-0.02 -1.23507e-17 0)
(-1.65436e-18 2.31528e-19 0)
(-1.65436e-18 2.44979e-18 0)
(-1.65436e-18 6.23596e-19 0)
(1.65436e-18 -1.37304e-18 0)
(0 2.32113e-19 0)
(0 5.03025e-19 0)
(-1.65436e-18 1.02858e-18 0)
(-1.65436e-18 1.62305e-18 0)
(0 1.32622e-18 0)
(-3.30872e-18 1.40041e-18 0)
(0 1.32591e-18 0)
(0 -3.80309e-20 0)
(0 -1.80149e-19 0)
(0 7.75896e-19 0)
(-1.65436e-18 1.26987e-18 0)
(0 -1.1143e-18 0)
(0 1.39819e-20 0)
(0 4.41504e-19 0)
(0 8.12266e-19 0)
)
;
    }
    fixedWalls
    {
        type            extrapolatedCalculated;
        value           nonuniform List<vector> 
60
(
(-0.02 -7.26014e-18 0)
(-0.02 5.6118e-18 0)
(-0.02 -1.88028e-17 0)
(-0.02 2.78379e-17 0)
(-0.02 -1.89597e-17 0)
(-0.02 2.49028e-17 0)
(-0.02 -2.25902e-17 0)
(-0.02 1.72263e-17 0)
(-0.02 2.4904e-18 0)
(-0.02 7.74048e-19 0)
(-0.02 2.34786e-18 0)
(-0.02 -2.54908e-17 0)
(-0.02 1.37736e-17 0)
(-0.02 1.06295e-17 0)
(-0.02 -1.76481e-17 0)
(-0.02 8.30138e-18 0)
(-0.02 -7.13516e-18 0)
(-0.02 7.6604e-18 0)
(-0.02 8.68155e-18 0)
(-0.02 -1.23507e-17 0)
(0 -1.94617e-19 0)
(0 -1.74497e-20 0)
(1.65436e-18 -1.33764e-18 0)
(-1.65436e-18 1.84609e-19 0)
(0 6.58208e-19 0)
(0 1.3238e-20 0)
(0 3.34714e-19 0)
(-1.65436e-18 1.18712e-18 0)
(1.65436e-18 -7.04949e-19 0)
(0 -1.08834e-18 0)
(-1.65436e-18 1.89161e-18 0)
(-1.65436e-18 9.23903e-20 0)
(3.30872e-18 -1.84247e-18 0)
(-1.65436e-18 6.48191e-19 0)
(0 6.56049e-19 0)
(1.65436e-18 -1.45148e-18 0)
(-1.65436e-18 6.90269e-19 0)
(0 6.74967e-19 0)
(0 -1.20668e-18 0)
(0 8.12266e-19 0)
(-0.02 -7.26014e-18 0)
(-3.30872e-18 3.56954e-18 0)
(-3.30872e-18 2.50056e-18 0)
(0 9.52009e-19 0)
(0 -4.94155e-19 0)
(0 -1.38751e-19 0)
(0 -2.35432e-19 0)
(1.65436e-18 -6.01936e-19 0)
(0 -1.67795e-19 0)
(0 -8.77724e-20 0)
(0 4.05221e-19 0)
(-1.65436e-18 1.20372e-18 0)
(-1.65436e-18 1.67158e-18 0)
(0 4.5875e-19 0)
(0 1.37545e-19 0)
(-1.65436e-18 1.30463e-18 0)
(-1.65436e-18 1.3125e-18 0)
(1.65436e-18 -6.20566e-19 0)
(1.65436e-18 -1.83503e-18 0)
(0 -1.94617e-19 0)
)
;
    }
    frontAndBack
    {
        type            empty;
    }
}


// ************************************************************************* //
