/*--------------------------------*- C++ -*----------------------------------*\
| =========                 |                                                 |
| \\      /  F ield         | OpenFOAM: The Open Source CFD Toolbox           |
|  \\    /   O peration     | Version:  2312                                  |
|   \\  /    A nd           | Website:  www.openfoam.com                      |
|    \\/     M anipulation  |                                                 |
\*---------------------------------------------------------------------------*/
FoamFile
{
    version     2.0;
    format      ascii;
    arch        "LSB;label=32;scalar=64";
    class       volVectorField;
    location    "7.75";
    object      LambVectorField;
}
// * * * * * * * * * * * * * * * * * * * * * * * * * * * * * * * * * * * * * //

dimensions      [0 1 -2 0 0 0 0];

internalField   nonuniform List<vector> 
400
(
(-1.16328e-26 -1.20587e-12 -1.20587e-12)
(-1.15363e-27 1.03764e-12 -0)
(-5.95457e-29 -1.67916e-13 -1.67916e-13)
(2.32421e-30 9.19332e-14 0)
(-1.3837e-30 6.11852e-14 6.11852e-14)
(-3.6358e-31 8.17588e-15 -0)
(-3.58015e-30 3.43013e-14 3.43013e-14)
(5.73704e-31 -4.92738e-15 -0)
(-7.73065e-31 1.40302e-14 1.40302e-14)
(-2.19591e-31 -1.53384e-14 0)
(-1.61042e-30 -1.63853e-14 -1.63853e-14)
(-1.11798e-29 -6.27481e-14 0)
(-8.38604e-30 -4.56597e-14 -4.56597e-14)
(9.84276e-31 1.06218e-14 0)
(-4.35259e-30 -5.62019e-14 -5.62019e-14)
(3.21631e-31 2.85684e-15 0)
(7.73575e-31 1.58269e-14 1.58269e-14)
(-6.18498e-31 1.3538e-14 -0)
(2.90171e-31 -3.35446e-15 -3.35446e-15)
(1.19768e-31 -9.86443e-15 -0)
(-2.11402e-27 -6.56689e-13 -6.56689e-13)
(-7.7097e-29 4.38073e-13 -0)
(-9.08382e-30 -4.68871e-14 -4.68871e-14)
(1.07726e-30 4.93483e-14 0)
(2.11028e-30 -7.35428e-14 -7.35428e-14)
(2.76247e-30 -4.94235e-14 -0)
(2.57096e-30 -3.35808e-14 -3.35808e-14)
(-8.85886e-31 -9.99421e-14 0)
(-1.3987e-29 -1.27492e-13 -1.27492e-13)
(-1.06232e-29 -5.32285e-14 0)
(-6.78535e-30 -6.7926e-14 -6.7926e-14)
(5.26528e-31 8.01582e-15 0)
(1.33937e-30 6.78672e-14 6.78672e-14)
(-1.09611e-30 1.54633e-14 -0)
(3.94836e-30 -2.92693e-14 -2.92693e-14)
(3.85971e-30 -7.83816e-14 -0)
(-6.62171e-30 -6.1991e-14 -6.1991e-14)
(-9.12076e-31 -3.19289e-14 0)
(5.59847e-30 -4.82647e-14 -4.82647e-14)
(4.53692e-31 -1.46883e-14 -0)
(-6.02516e-27 7.65089e-13 7.65089e-13)
(-1.71109e-27 -9.24647e-13 0)
(3.82379e-30 2.37492e-13 2.37492e-13)
(-4.24825e-30 -1.47118e-14 0)
(1.79034e-29 1.09689e-13 1.09689e-13)
(6.22844e-31 1.24013e-13 0)
(1.86642e-31 2.55991e-14 2.55991e-14)
(5.01582e-31 2.49761e-14 0)
(4.24808e-31 1.48638e-14 1.48638e-14)
(1.11282e-29 7.80953e-14 0)
(5.61868e-30 9.24457e-14 9.24457e-14)
(2.80364e-30 8.98893e-14 0)
(-1.62338e-30 6.50312e-14 6.50312e-14)
(-6.5888e-31 8.55458e-15 -0)
(-9.68641e-30 8.76527e-14 8.76527e-14)
(-6.80517e-30 4.84712e-14 -0)
(2.24579e-31 -4.22774e-15 -4.22774e-15)
(-1.09732e-30 1.11837e-14 -0)
(3.83228e-31 -2.3232e-15 -2.3232e-15)
(1.79611e-30 -2.39844e-14 -0)
(-3.93376e-27 8.62044e-13 8.62044e-13)
(-4.53636e-28 -5.52021e-13 0)
(-1.51882e-29 1.19324e-13 1.19324e-13)
(-4.8882e-30 -2.86482e-14 0)
(5.17765e-30 3.25235e-14 3.25235e-14)
(-2.31047e-31 -1.98418e-15 0)
(4.99756e-30 2.79132e-14 2.79132e-14)
(1.10333e-29 1.01818e-13 0)
(-3.30713e-30 1.27267e-13 1.27267e-13)
(-2.27546e-30 2.84051e-14 -0)
(-6.46812e-31 1.65907e-14 1.65907e-14)
(-8.9696e-31 -3.58261e-14 0)
(-1.38341e-30 -2.8687e-14 -2.8687e-14)
(1.00846e-30 2.46831e-14 0)
(4.0768e-30 5.62755e-14 5.62755e-14)
(1.39907e-30 6.92527e-14 0)
(-1.00314e-29 1.28637e-13 1.28637e-13)
(-2.22922e-29 1.22507e-13 -0)
(-1.07316e-29 4.90374e-14 4.90374e-14)
(1.01633e-30 -7.80349e-15 -0)
(-4.47378e-27 -5.58171e-13 -5.58171e-13)
(-1.29071e-27 6.82459e-13 -0)
(-1.13091e-28 -2.99713e-13 -2.99713e-13)
(-7.09199e-31 -3.27466e-14 0)
(-1.27582e-29 -7.84169e-14 -7.84169e-14)
(-1.27112e-29 -4.81987e-14 0)
(9.53417e-31 2.55174e-15 2.55174e-15)
(3.35723e-29 1.40937e-13 0)
(3.99191e-30 8.23656e-14 8.23656e-14)
(-1.53083e-30 3.53158e-14 -0)
(-9.89908e-31 2.9425e-14 2.9425e-14)
(-4.37933e-30 6.58089e-14 -0)
(-1.38761e-30 9.27364e-15 9.27364e-15)
(-3.08386e-30 1.93609e-14 -0)
(1.39863e-30 -1.93748e-14 -1.93748e-14)
(-1.31594e-30 -3.81817e-14 0)
(-9.17294e-31 -2.37776e-14 -2.37776e-14)
(-4.59684e-32 -3.86198e-14 0)
(-1.333e-30 1.13616e-14 1.13616e-14)
(2.583e-30 -2.29751e-14 -0)
(-6.80639e-27 1.15902e-12 1.15902e-12)
(-5.86931e-28 -7.45221e-13 0)
(-6.26847e-30 1.34399e-13 1.34399e-13)
(7.58652e-31 -5.30808e-14 -0)
(4.425e-30 -7.63797e-14 -7.63797e-14)
(5.2549e-30 -8.25634e-14 -0)
(2.63646e-30 -5.80052e-14 -5.80052e-14)
(2.46655e-30 -9.59916e-14 -0)
(-1.02406e-29 -1.0108e-13 -1.0108e-13)
(-1.05195e-29 -6.11757e-14 0)
(-7.51312e-30 -4.39448e-14 -4.39448e-14)
(-6.68264e-31 -9.64287e-15 0)
(-1.43218e-31 3.91904e-14 3.91904e-14)
(-3.52388e-31 6.83554e-15 -0)
(2.39712e-30 -3.32888e-14 -3.32888e-14)
(-4.02986e-31 -3.91815e-14 0)
(-5.80379e-33 -1.1904e-16 -1.1904e-16)
(4.39648e-31 3.83119e-14 0)
(-2.23036e-30 3.52275e-14 3.52275e-14)
(2.81863e-30 -4.04112e-14 -0)
(2.97237e-28 -4.27924e-13 -4.27924e-13)
(3.14178e-29 8.58445e-14 0)
(-9.84161e-30 4.97571e-14 4.97571e-14)
(2.81949e-32 -2.1427e-16 -0)
(-9.74176e-31 4.97916e-15 4.97916e-15)
(1.38413e-31 -7.63119e-16 -0)
(1.8668e-29 -9.92877e-14 -9.92877e-14)
(2.87821e-31 -1.74245e-13 -0)
(-3.56987e-29 -1.79229e-13 -1.79229e-13)
(-1.49269e-29 -9.08331e-14 0)
(-7.773e-31 -3.33492e-14 -3.33492e-14)
(1.20731e-30 -2.72684e-14 -0)
(-1.5036e-30 -6.02846e-14 -6.02846e-14)
(-3.36005e-31 -2.04006e-14 0)
(-1.33812e-30 3.17819e-14 3.17819e-14)
(4.79419e-31 -1.58232e-14 -0)
(-4.91635e-30 -4.23354e-14 -4.23354e-14)
(1.44749e-30 1.18641e-14 0)
(-4.65441e-32 1.85228e-14 1.85228e-14)
(4.15595e-31 -6.57353e-15 -0)
(-4.55415e-26 -3.11417e-12 -3.11417e-12)
(-3.31084e-27 1.73004e-12 -0)
(-2.17404e-28 -3.77329e-13 -3.77329e-13)
(-6.48222e-30 1.7151e-13 -0)
(-1.55508e-30 2.8413e-14 2.8413e-14)
(-2.71053e-30 5.32788e-14 -0)
(4.64598e-31 -1.02293e-14 -1.02293e-14)
(-5.44171e-31 -1.05831e-14 0)
(4.14923e-30 6.86813e-14 6.86813e-14)
(-1.05378e-29 1.12954e-13 -0)
(-1.67319e-29 6.53657e-14 6.53657e-14)
(1.34428e-29 -6.56231e-14 -0)
(8.52687e-30 -6.01143e-14 -6.01143e-14)
(1.36629e-29 -9.37054e-14 -0)
(1.379e-30 -7.68614e-14 -7.68614e-14)
(-5.31295e-30 -6.58305e-14 0)
(-4.86935e-30 -4.95545e-14 -4.95545e-14)
(-6.39693e-31 -1.87315e-14 0)
(-3.75236e-31 -2.58309e-14 -2.58309e-14)
(6.57223e-31 3.06986e-14 0)
(-3.9344e-26 2.75147e-12 2.75147e-12)
(-3.05079e-27 -1.55382e-12 0)
(-3.00268e-28 4.56025e-13 4.56025e-13)
(9.07365e-30 -5.76553e-14 -0)
(-5.58271e-30 6.817e-14 6.817e-14)
(-6.21115e-31 2.3957e-14 -0)
(-5.72899e-30 1.13639e-13 1.13639e-13)
(-6.93726e-30 8.8804e-14 -0)
(-1.13048e-29 9.02204e-14 9.02204e-14)
(7.00945e-32 -4.19297e-16 -0)
(-3.25138e-30 2.68467e-14 2.68467e-14)
(-1.62298e-30 9.86092e-15 -0)
(5.59617e-31 -2.54698e-15 -2.54698e-15)
(7.54429e-30 -5.42295e-14 -0)
(-5.8239e-30 -1.13028e-13 -1.13028e-13)
(-5.07222e-30 -2.84937e-14 0)
(5.37674e-30 8.21972e-14 8.21972e-14)
(-1.24234e-30 1.21967e-14 -0)
(8.71852e-31 -1.54162e-14 -1.54162e-14)
(-1.43991e-30 -2.75302e-14 0)
(-1.88889e-27 1.04421e-12 1.04421e-12)
(1.99679e-28 -3.98048e-13 -0)
(1.69264e-30 -6.31821e-15 -6.31821e-15)
(2.96094e-29 -1.76866e-13 -0)
(-1.71565e-29 -1.17909e-13 -1.17909e-13)
(-7.03043e-30 -3.54136e-14 0)
(-5.41704e-30 -2.36974e-14 -2.36974e-14)
(1.34572e-29 8.18332e-14 0)
(-2.72261e-30 5.71513e-14 5.71513e-14)
(-1.05783e-31 7.77733e-16 -0)
(2.23925e-30 -4.0408e-14 -4.0408e-14)
(-2.35522e-31 7.88757e-14 -0)
(-2.51484e-30 8.10684e-14 8.10684e-14)
(-4.19992e-32 8.1055e-14 -0)
(-2.54009e-30 8.93782e-14 8.93782e-14)
(-7.54977e-30 9.3036e-14 -0)
(3.3035e-31 -2.26846e-15 -2.26846e-15)
(4.88902e-31 -8.3624e-15 -0)
(1.22945e-31 -1.98286e-15 -1.98286e-15)
(3.88827e-31 -1.00639e-14 -0)
(-1.34344e-26 -9.52069e-13 -9.52069e-13)
(-3.97172e-27 1.34009e-12 -0)
(-2.19781e-28 -3.096e-13 -3.096e-13)
(-2.27435e-29 1.63828e-13 -0)
(-6.45172e-30 5.59849e-14 5.59849e-14)
(9.24206e-30 -5.9027e-14 -0)
(4.61935e-30 -6.88723e-14 -6.88723e-14)
(2.5429e-31 -2.5552e-14 -0)
(-3.25894e-30 3.94536e-14 3.94536e-14)
(-3.16139e-30 2.36919e-14 -0)
(1.39436e-30 -2.87673e-14 -2.87673e-14)
(-2.60533e-30 -1.6892e-14 0)
(1.79533e-30 1.49053e-14 1.49053e-14)
(2.5563e-31 4.93314e-14 0)
(-7.55442e-30 7.41983e-14 7.41983e-14)
(-1.30494e-29 6.70231e-14 -0)
(-1.01079e-29 4.39581e-14 4.39581e-14)
(1.98213e-30 -2.15029e-14 -0)
(-2.5552e-31 1.71323e-14 1.71323e-14)
(1.99024e-31 2.63684e-14 0)
(9.52459e-28 -1.97635e-13 -1.97635e-13)
(-4.57667e-28 -3.32938e-13 0)
(-7.76411e-30 5.76575e-14 5.76575e-14)
(9.73796e-30 3.80457e-14 0)
(2.1948e-30 8.13355e-14 8.13355e-14)
(-1.56502e-30 1.02287e-13 -0)
(-2.03721e-29 1.11484e-13 1.11484e-13)
(8.43437e-30 -2.6608e-14 -0)
(1.54663e-29 -8.2396e-14 -8.2396e-14)
(1.4805e-30 -4.21465e-14 -0)
(-5.69171e-32 1.52626e-15 1.52626e-15)
(1.17416e-30 -2.33014e-14 -0)
(1.8585e-30 -2.4672e-14 -2.4672e-14)
(2.45499e-30 -3.28556e-14 -0)
(1.97994e-30 -1.11087e-13 -1.11087e-13)
(4.96047e-30 -1.0324e-13 -0)
(3.77918e-30 -5.4276e-14 -5.4276e-14)
(6.95082e-31 -1.46676e-14 -0)
(-3.03504e-30 -3.93922e-14 -3.93922e-14)
(-8.94631e-31 -1.18521e-14 0)
(2.99596e-27 -7.43545e-13 -7.43545e-13)
(-3.10168e-28 -2.16014e-13 0)
(-1.92546e-29 7.92865e-14 7.92865e-14)
(-5.90433e-30 -5.85133e-14 0)
(-3.8662e-30 -5.42743e-14 -5.42743e-14)
(6.34084e-31 6.2442e-15 0)
(6.6222e-31 7.53159e-14 7.53159e-14)
(-3.53835e-30 3.23107e-14 -0)
(-5.49603e-31 1.27035e-14 1.27035e-14)
(1.87596e-30 5.43678e-14 0)
(-3.42754e-30 7.64384e-14 7.64384e-14)
(-9.55097e-31 5.08632e-15 -0)
(7.16661e-30 -7.48833e-14 -7.48833e-14)
(3.80246e-31 2.00609e-14 0)
(-1.66108e-30 6.5753e-14 6.5753e-14)
(-6.44524e-30 6.68077e-14 -0)
(6.14044e-32 -4.06009e-16 -4.06009e-16)
(1.61323e-30 -1.74565e-14 -0)
(-2.40064e-31 -1.02918e-14 -1.02918e-14)
(3.55335e-32 3.38295e-15 0)
(1.901e-27 5.25824e-13 5.25824e-13)
(-3.05287e-28 3.0135e-13 -0)
(2.18682e-30 3.66407e-14 3.66407e-14)
(-1.46513e-29 4.96203e-14 -0)
(3.71667e-30 -2.24614e-14 -2.24614e-14)
(2.68818e-30 -3.80471e-14 -0)
(1.32603e-30 -2.36583e-14 -2.36583e-14)
(2.09123e-30 -1.98935e-14 -0)
(7.46294e-31 -5.82293e-15 -5.82293e-15)
(3.8342e-30 -8.17664e-14 -0)
(-1.02453e-29 -6.95078e-14 -6.95078e-14)
(9.09403e-31 8.57245e-15 0)
(4.57453e-31 7.41735e-15 7.41735e-15)
(4.99711e-31 1.56596e-14 0)
(-7.03707e-30 7.41349e-14 7.41349e-14)
(-1.04273e-29 6.23128e-14 -0)
(-3.93691e-30 2.23752e-14 2.23752e-14)
(1.17921e-30 -9.82354e-15 -0)
(7.07728e-31 -9.10682e-15 -9.10682e-15)
(-4.76181e-31 1.64366e-14 -0)
(5.80192e-29 1.13937e-13 1.13937e-13)
(-9.78155e-30 3.33455e-14 -0)
(1.90055e-30 -1.99463e-14 -1.99463e-14)
(5.01004e-30 -5.33682e-14 -0)
(5.45023e-30 -5.25563e-14 -5.25563e-14)
(4.17137e-31 -3.77791e-15 -0)
(7.7475e-30 -1.17522e-13 -1.17522e-13)
(7.38696e-32 -3.80879e-15 -0)
(2.47648e-30 -8.89673e-14 -8.89673e-14)
(-5.85348e-30 -1.02465e-13 0)
(-1.67688e-29 -9.13033e-14 -9.13033e-14)
(2.16255e-30 1.37735e-14 0)
(3.53439e-30 7.69605e-14 7.69605e-14)
(5.02213e-30 -7.12393e-14 -0)
(6.21713e-30 -1.13381e-13 -1.13381e-13)
(2.40137e-30 -1.14968e-13 -0)
(-2.61027e-31 -2.45203e-14 -2.45203e-14)
(-2.22201e-31 4.75454e-15 -0)
(2.18248e-30 -5.91458e-14 -5.91458e-14)
(-8.00822e-32 -3.05328e-14 0)
(-2.10851e-28 5.69607e-14 5.69607e-14)
(-3.30296e-28 -3.42742e-13 0)
(-2.73988e-31 8.48399e-14 8.48399e-14)
(8.49067e-31 7.36471e-15 0)
(-8.47095e-30 1.10189e-13 1.10189e-13)
(-9.64167e-30 5.55877e-14 -0)
(-3.20657e-30 3.53722e-14 3.53722e-14)
(-1.73288e-31 -1.1607e-14 0)
(1.4292e-30 5.62293e-14 5.62293e-14)
(-4.41967e-31 8.39831e-14 -0)
(-9.64549e-32 7.64246e-14 7.64246e-14)
(-2.27014e-31 -5.20163e-15 0)
(6.0597e-31 1.19393e-14 1.19393e-14)
(-1.39908e-30 1.84696e-14 -0)
(-4.76876e-31 3.56032e-15 3.56032e-15)
(1.14306e-31 -1.02652e-15 -0)
(7.25335e-31 -5.86476e-15 -5.86476e-15)
(5.08906e-31 -9.6556e-15 -0)
(-1.40389e-30 5.17643e-14 5.17643e-14)
(-6.09256e-31 2.15682e-14 -0)
(-4.33626e-27 -8.70446e-13 -8.70446e-13)
(-2.62781e-28 4.2798e-13 -0)
(-7.65544e-29 -1.77701e-13 -1.77701e-13)
(2.98668e-30 3.78987e-14 0)
(-1.30702e-30 -2.52241e-14 -2.52241e-14)
(-2.97543e-30 -4.95925e-14 0)
(5.23596e-32 9.28237e-15 9.28237e-15)
(1.62895e-30 -4.96234e-14 -0)
(-1.23656e-30 3.07397e-14 3.07397e-14)
(4.5223e-30 -6.53772e-14 -0)
(-1.8312e-30 -2.56312e-14 -2.56312e-14)
(-8.63489e-31 -4.61415e-15 0)
(1.84489e-30 1.56897e-14 1.56897e-14)
(3.25453e-30 1.07616e-13 0)
(-1.24504e-29 8.56161e-14 8.56161e-14)
(-1.75958e-29 6.19967e-14 -0)
(5.34314e-30 -2.39294e-14 -2.39294e-14)
(6.93178e-31 -1.55687e-14 -0)
(-6.27698e-32 9.28542e-16 9.28542e-16)
(6.53296e-31 -1.2141e-14 -0)
(-4.84837e-27 -9.64179e-13 -9.64179e-13)
(-3.88219e-28 4.80639e-13 -0)
(-3.65893e-29 -1.64737e-13 -1.64737e-13)
(-8.39024e-31 -3.16598e-14 0)
(1.87396e-31 -5.51954e-14 -5.51954e-14)
(-3.2e-30 -8.80235e-14 0)
(-5.42357e-30 -8.51584e-14 -8.51584e-14)
(-2.43807e-30 -3.26005e-14 0)
(-3.20389e-30 -2.70045e-14 -2.70045e-14)
(6.93872e-31 9.40449e-15 0)
(-1.14773e-30 -4.66599e-14 -4.66599e-14)
(-1.19071e-32 6.91962e-15 -0)
(-1.25089e-30 2.80477e-14 2.80477e-14)
(-2.98527e-32 2.6781e-15 -0)
(-8.72838e-31 1.22281e-14 1.22281e-14)
(-6.86183e-30 5.14272e-14 -0)
(2.84757e-31 -6.53862e-15 -6.53862e-15)
(-2.67971e-31 3.93832e-15 -0)
(5.7449e-31 -6.92714e-15 -6.92714e-15)
(-4.33688e-32 -3.52754e-14 0)
(-2.0597e-26 2.33523e-12 2.33523e-12)
(-9.2854e-28 -1.01186e-12 0)
(-9.87799e-29 3.01332e-13 3.01332e-13)
(9.31783e-31 1.28099e-14 0)
(1.03338e-29 1.19894e-13 1.19894e-13)
(-6.33257e-30 1.50778e-13 -0)
(-7.40493e-30 1.11626e-13 1.11626e-13)
(-9.81377e-30 1.32518e-13 -0)
(-1.90321e-30 5.2475e-14 5.2475e-14)
(-7.03308e-30 1.2403e-13 -0)
(-2.37507e-29 1.23468e-13 1.23468e-13)
(-8.51642e-30 4.11063e-14 -0)
(2.6355e-30 -4.29756e-14 -4.29756e-14)
(-2.51033e-31 5.1786e-15 -0)
(-3.49837e-30 3.09286e-14 3.09286e-14)
(3.73488e-30 -4.30733e-14 -0)
(-7.01126e-33 -1.50549e-16 -1.50549e-16)
(-1.1074e-30 1.2997e-14 -0)
(-1.69707e-30 2.0349e-14 2.0349e-14)
(1.78273e-31 -1.01042e-14 -0)
(7.66664e-28 -2.22105e-13 -2.22105e-13)
(3.88681e-30 -2.02402e-13 -0)
(5.94437e-30 -8.19487e-14 -8.19487e-14)
(1.86146e-31 -1.44653e-14 -0)
(-3.63266e-30 -5.03727e-14 -5.03727e-14)
(1.7965e-30 -3.50591e-14 -0)
(1.97691e-30 -1.65578e-14 -1.65578e-14)
(7.91126e-30 -5.0482e-14 -0)
(9.35548e-30 -5.97122e-14 -5.97122e-14)
(6.55553e-30 -6.44636e-14 -0)
(3.43406e-30 -6.34275e-14 -6.34275e-14)
(6.23573e-31 -6.55042e-14 -0)
(-2.16846e-31 -3.68791e-15 -3.68791e-15)
(-4.78833e-31 -1.75015e-14 0)
(7.2442e-31 -1.94547e-14 -1.94547e-14)
(1.76815e-30 -3.59789e-14 -0)
(-1.03878e-31 -2.01695e-15 -2.01695e-15)
(-2.97003e-31 1.02505e-14 -0)
(1.36634e-30 -2.67897e-14 -2.67897e-14)
(2.67087e-31 -8.3131e-15 -0)
)
;

boundaryField
{
    movingWall
    {
        type            calculated;
        value           nonuniform List<vector> 
20
(
(0 -3.11679e-12 -0)
(0 1.06162e-13 -0)
(0 -6.22358e-13 -0)
(0 -1.92101e-13 -0)
(0 -3.51434e-13 -0)
(0 -2.91711e-13 -0)
(0 -2.55906e-13 -0)
(0 -3.07134e-13 -0)
(0 -2.27547e-13 -0)
(0 -2.32298e-13 -0)
(0 -9.80352e-14 -0)
(0 -5.5703e-14 -0)
(0 -3.68791e-15 -0)
(0 -3.48054e-14 -0)
(0 -3.67586e-14 -0)
(0 -8.87387e-15 -0)
(0 -2.01695e-15 -0)
(0 1.02505e-14 -0)
(0 -4.40935e-14 -0)
(0 -8.3131e-15 -0)
)
;
    }
    fixedWalls
    {
        type            calculated;
        value           nonuniform List<vector> 
60
(
(0 -4.2111e-12 -0)
(0 -1.64005e-12 -0)
(0 3.31268e-12 -0)
(0 2.31321e-12 -0)
(0 -3.15182e-12 -0)
(0 2.99954e-12 -0)
(0 -1.82945e-13 -0)
(0 -7.69273e-12 -0)
(0 7.23759e-12 -0)
(0 1.53672e-12 -0)
(0 -5.48167e-12 -0)
(0 1.38562e-12 -0)
(0 6.08828e-13 -0)
(0 -6.60067e-13 -0)
(0 -6.81636e-14 -0)
(0 1.26384e-12 -0)
(0 -2.42634e-12 -0)
(0 -2.5535e-12 -0)
(0 5.07303e-12 -0)
(0 8.11517e-13 -0)
(0 -4.85655e-15 -0)
(0 -1.23552e-14 -0)
(0 -2.99546e-14 -0)
(0 -2.4991e-14 -0)
(0 -4.49705e-14 -0)
(0 -5.50045e-14 -0)
(0 -2.5289e-14 -0)
(0 3.56686e-14 -0)
(0 -6.18385e-15 -0)
(0 -1.54543e-14 -0)
(0 3.01242e-14 -0)
(0 3.08809e-15 -0)
(0 4.20149e-15 -0)
(0 1.55167e-14 -0)
(0 -2.60559e-14 -0)
(0 1.58059e-14 -0)
(0 -2.15237e-14 -0)
(0 -2.66133e-14 -0)
(0 -7.0574e-15 -0)
(0 -1.28514e-14 -0)
(0 1.01167e-12 -0)
(0 7.51586e-13 -0)
(0 1.97157e-13 -0)
(0 1.26541e-13 -0)
(0 1.40202e-13 -0)
(0 9.69937e-14 -0)
(0 1.40423e-13 -0)
(0 1.28299e-13 -0)
(0 2.0897e-13 -0)
(0 1.62297e-13 -0)
(0 1.6125e-13 -0)
(0 1.24689e-13 -0)
(0 5.29594e-14 -0)
(0 5.50308e-14 -0)
(0 -1.99175e-15 -0)
(0 2.85684e-15 -0)
(0 -7.2991e-14 -0)
(0 -7.52798e-14 -0)
(0 -3.35446e-15 -0)
(0 -9.86443e-15 -0)
)
;
    }
    frontAndBack
    {
        type            empty;
    }
}


// ************************************************************************* //
