/*--------------------------------*- C++ -*----------------------------------*\
| =========                 |                                                 |
| \\      /  F ield         | OpenFOAM: The Open Source CFD Toolbox           |
|  \\    /   O peration     | Version:  2312                                  |
|   \\  /    A nd           | Website:  www.openfoam.com                      |
|    \\/     M anipulation  |                                                 |
\*---------------------------------------------------------------------------*/
FoamFile
{
    version     2.0;
    format      ascii;
    arch        "LSB;label=32;scalar=64";
    class       volScalarField;
    location    "7.75";
    object      Lambda2Field;
}
// * * * * * * * * * * * * * * * * * * * * * * * * * * * * * * * * * * * * * //

dimensions      [0 0 -2 0 0 0 0];

internalField   nonuniform List<scalar> 
400
(
0
0
0
-1.31029e-27
0
0
0
1.15708e-28
4.33427e-28
4.57506e-28
0
1.31812e-28
1.1982e-27
4.74395e-30
0
0
3.05031e-28
0
4.12868e-28
0
3.15945e-25
4.675e-26
1.15933e-27
9.13295e-29
1.36669e-27
2.59481e-28
2.31082e-28
-7.7997e-28
0
2.1751e-28
2.25629e-27
2.1603e-28
8.4639e-28
0
5.08781e-28
0
0
1.23536e-27
9.66221e-28
3.93697e-29
0
-9.69907e-26
0
2.21411e-28
0
-1.39357e-27
8.5796e-28
1.56705e-28
5.71164e-28
1.04406e-27
0
0
1.48073e-28
1.2486e-28
1.83532e-27
3.5933e-28
3.45976e-28
0
1.07131e-28
9.87085e-29
2.40632e-25
9.19157e-26
0
7.13464e-28
0
0
7.12779e-28
-9.32481e-28
0
3.10133e-28
4.42957e-28
-1.40862e-28
3.18274e-28
6.5647e-29
6.22719e-28
-5.09693e-28
0
-7.92561e-28
2.80416e-28
9.6029e-28
1.28227e-25
6.21181e-26
0
1.50549e-27
0
0
5.05591e-28
-3.34576e-27
0
0
0
0
4.8414e-29
2.09905e-28
0
0
9.0192e-29
1.21935e-27
2.74174e-28
3.65922e-29
5.78604e-26
0
0
2.96055e-28
4.01327e-28
1.87966e-27
3.78996e-27
0
1.17425e-27
5.37091e-29
1.0717e-27
4.78274e-28
0
3.08891e-28
0
-2.8539e-28
0
0
0
-3.36455e-28
1.07603e-24
7.97046e-26
4.49782e-27
5.52373e-30
6.3006e-30
0
0
-4.51284e-27
0
2.61037e-27
1.86555e-27
0
4.05383e-28
1.81725e-28
1.5499e-28
0
5.97621e-29
0
1.46364e-28
0
0
0
0
-2.28037e-28
2.95778e-28
5.04862e-29
0
0
0
-1.47375e-27
1.29941e-28
-4.73946e-28
1.18195e-27
-2.72834e-28
0
0
2.52379e-28
7.28119e-28
3.45368e-29
3.6058e-29
0
0
0
1.68005e-28
1.80358e-27
7.0732e-28
2.37286e-27
-4.81201e-28
1.42755e-27
1.82516e-29
5.89424e-28
4.07485e-28
0
-5.25295e-31
0
2.24332e-28
7.66736e-28
0
0
0
0
8.6569e-26
3.84468e-27
0
0
-5.4517e-29
9.23643e-29
-7.62766e-28
0
1.13797e-29
0
1.98367e-28
7.54751e-28
2.11553e-29
0
0
8.73639e-28
0
0
0
1.93039e-25
3.52041e-26
0
0
8.27841e-28
1.9608e-28
0
2.35988e-27
2.50629e-28
9.2513e-29
0
0
0
-5.47385e-28
0
-6.83635e-28
1.0966e-27
1.22661e-30
2.70312e-28
1.50198e-28
4.80609e-25
2.57057e-25
1.59725e-26
8.76272e-28
5.31124e-28
0
0
1.34728e-29
0
0
7.1413e-31
1.27282e-27
6.5949e-29
-1.53971e-28
4.45498e-28
5.61679e-28
0
5.50324e-34
6.95154e-29
4.13519e-28
3.48987e-25
1.1859e-25
7.97155e-27
0
1.10333e-27
3.06405e-29
0
3.07768e-28
4.66152e-28
0
0
2.44842e-28
0
3.04634e-28
1.08942e-28
0
0
0
0
1.09106e-28
2.78015e-25
4.91767e-26
8.33574e-27
0
4.32159e-28
1.52697e-28
2.89178e-28
1.9547e-28
0
-1.48871e-27
0
7.34684e-28
0
8.00151e-29
0
-3.82114e-28
5.1543e-28
0
0
2.89791e-28
1.6823e-25
4.07139e-26
1.39043e-28
1.73121e-27
8.24337e-28
1.0567e-28
1.95189e-27
0
0
0
1.49289e-27
0
0
8.1932e-28
0
0
2.47695e-28
0
0
-9.29033e-29
7.77382e-26
1.1053e-26
2.93874e-27
0
0
2.15724e-28
1.38522e-27
0
0
-5.74295e-29
1.13236e-27
0
0
1.01483e-28
0
6.91325e-28
5.55844e-28
4.88717e-32
8.11898e-28
1.50077e-28
0
4.37138e-26
0
7.8832e-29
2.64042e-28
6.90495e-28
0
2.48649e-28
0
-5.4289e-28
0
2.05786e-29
0
-2.09691e-27
0
0
2.07357e-28
0
3.13658e-29
8.68913e-30
1.59839e-25
2.34599e-26
0
1.22282e-27
6.81272e-28
-4.41455e-28
0
-1.31956e-28
2.72462e-30
1.55442e-30
1.64953e-27
1.55488e-27
0
0
0
1.50864e-28
7.38925e-28
1.65491e-29
0
-2.08379e-28
0
-9.10905e-26
0
2.25981e-27
0
-1.99041e-27
0
9.43425e-28
1.54047e-27
-1.38447e-27
0
7.10361e-28
1.38464e-28
0
0
-3.61783e-28
9.03554e-29
0
1.83124e-28
0
7.73564e-25
5.38698e-26
3.23017e-27
3.5845e-29
9.42708e-28
1.03818e-27
6.99386e-28
2.02104e-28
4.36415e-28
0
2.35008e-28
0
0
2.60304e-28
5.28029e-28
-5.59639e-29
0
1.30368e-28
3.68606e-28
0
)
;

boundaryField
{
    movingWall
    {
        type            calculated;
        value           nonuniform List<scalar> 
20
(
1.77831e-24
1.50129e-25
1.79732e-26
0
2.09799e-27
5.95333e-27
3.54503e-27
1.15894e-27
0
-6.22071e-28
0
0
0
4.26482e-28
8.99388e-28
0
0
1.34324e-28
7.4869e-28
0
)
;
    }
    fixedWalls
    {
        type            calculated;
        value           nonuniform List<scalar> 
60
(
2.11919e-24
2.61645e-24
0
1.63443e-24
2.67443e-24
0
4.33746e-24
0
0
2.56707e-24
1.7068e-24
4.33563e-24
2.42046e-24
1.34269e-24
5.64149e-25
5.21098e-25
5.54011e-27
8.14501e-25
0
2.29191e-24
0
3.93697e-29
0
1.42616e-27
5.42178e-28
-7.32006e-28
0
0
5.6707e-28
0
0
8.18474e-28
1.13519e-28
3.14724e-28
2.84368e-29
3.06264e-28
1.24506e-28
1.33296e-29
0
0
1.78002e-24
3.30367e-25
3.82856e-26
-2.6158e-27
0
-4.09754e-28
0
1.39114e-27
3.63788e-27
2.75745e-27
2.91062e-27
1.87217e-27
3.54968e-28
2.6298e-28
0
0
3.11987e-27
1.20242e-27
1.20006e-27
0
)
;
    }
    frontAndBack
    {
        type            empty;
    }
}


// ************************************************************************* //
