/*--------------------------------*- C++ -*----------------------------------*\
| =========                 |                                                 |
| \\      /  F ield         | OpenFOAM: The Open Source CFD Toolbox           |
|  \\    /   O peration     | Version:  2312                                  |
|   \\  /    A nd           | Website:  www.openfoam.com                      |
|    \\/     M anipulation  |                                                 |
\*---------------------------------------------------------------------------*/
FoamFile
{
    version     2.0;
    format      ascii;
    arch        "LSB;label=32;scalar=64";
    class       volScalarField;
    location    "7.75";
    object      QField;
}
// * * * * * * * * * * * * * * * * * * * * * * * * * * * * * * * * * * * * * //

dimensions      [0 0 -2 0 0 0 0];

internalField   nonuniform List<scalar> 
400
(
8.58722e-25
1.53104e-25
9.13664e-27
1.91728e-27
3.78122e-28
0
1.95053e-28
-2.91563e-28
-2.06375e-28
-5.79761e-28
0
-1.98128e-28
-1.01483e-27
-5.90365e-29
1.07973e-28
0
-8.44023e-28
0
-1.09774e-27
0
1.24707e-24
2.65825e-25
6.04148e-27
1.31708e-27
-1.13571e-27
-2.59481e-28
4.78194e-28
1.14463e-27
2.06772e-27
-7.4807e-28
-8.85419e-28
-7.96779e-28
-3.90619e-28
0
-4.50791e-28
-7.4676e-28
4.218e-28
-1.06575e-27
1.03e-28
-3.40143e-28
-4.96839e-26
9.88326e-26
1.35697e-26
-4.0332e-28
1.79797e-27
1.69057e-27
-2.11923e-27
-3.27397e-28
-6.99602e-28
-1.77799e-27
5.28644e-28
5.87026e-28
5.09391e-28
-3.02875e-28
-1.17066e-27
-6.87566e-28
-1.0018e-27
0
-2.78776e-28
-5.38589e-28
-8.51146e-25
-1.95317e-25
2.55073e-27
-1.44799e-27
1.46866e-28
0
-9.71069e-28
1.07593e-27
2.0434e-27
-4.68486e-28
-2.90671e-29
2.36385e-28
-2.95029e-28
-6.5647e-29
2.15834e-28
8.15458e-28
2.19193e-27
1.25807e-27
-2.80416e-28
-8.44447e-28
-1.07721e-25
-6.02536e-26
2.11772e-26
-1.61079e-28
1.31225e-27
8.36046e-29
6.08485e-28
3.52548e-27
1.52631e-27
2.22553e-28
6.28817e-29
5.08791e-28
-1.40617e-28
-2.09905e-28
0
3.27113e-28
-9.0192e-29
-1.36948e-27
4.21571e-28
-1.63963e-28
8.73763e-25
2.17113e-25
7.46479e-27
-1.30732e-27
-4.01327e-28
-2.31141e-27
-5.88372e-27
-1.06869e-28
7.90177e-28
-7.48236e-28
-7.10848e-28
-4.12947e-28
3.27575e-28
-4.76379e-28
1.67611e-28
3.27333e-28
0
-2.37089e-29
2.20158e-28
3.60665e-28
2.09598e-24
3.08111e-25
1.18168e-26
3.1852e-28
8.6815e-30
0
1.46144e-27
5.0385e-27
2.58857e-27
-3.34471e-27
-2.2881e-27
4.42845e-30
-4.52635e-29
-1.81725e-28
-1.66338e-28
0
6.81202e-28
0
-4.2197e-28
0
3.59645e-24
6.08464e-25
4.30848e-26
6.63047e-27
-2.72886e-28
-5.04862e-29
0
0
7.84485e-28
2.5727e-27
2.13301e-28
6.18698e-28
-1.00624e-27
5.85795e-28
1.48171e-27
-4.99311e-28
-2.52379e-28
-8.33752e-28
-3.45368e-29
-2.15729e-28
2.67418e-24
3.35364e-25
5.63114e-26
-7.02654e-28
-1.61165e-27
-7.61322e-28
-9.19541e-28
6.08955e-28
1.38385e-28
-2.31596e-28
-1.09423e-27
-1.0943e-27
0
3.41405e-28
2.57875e-27
-4.0107e-28
1.95053e-28
0
0
1.15229e-29
1.34297e-24
2.1121e-25
6.51181e-27
5.45182e-27
2.88522e-27
2.25204e-28
-9.23643e-29
1.31268e-27
6.98665e-28
-1.82871e-28
3.60576e-28
-1.98367e-28
-9.42092e-28
-2.11553e-29
6.5565e-28
-5.71585e-29
-1.60113e-27
0
0
0
-2.13922e-25
-3.55996e-26
7.65704e-27
2.11939e-27
-5.46299e-28
-8.98015e-28
-3.20071e-28
-3.95688e-27
-4.49469e-29
-9.2513e-29
0
0
0
6.02445e-28
1.08356e-27
6.94591e-28
-9.67754e-28
3.00195e-29
-2.70312e-28
-3.29286e-28
-1.17011e-24
-3.01994e-25
-1.89763e-26
-8.76272e-28
4.59589e-28
3.06071e-28
2.24754e-27
-1.34728e-29
1.52796e-27
-5.02718e-28
-9.839e-30
-2.88418e-27
-6.5949e-29
1.55868e-28
4.96679e-28
-5.61679e-28
3.57258e-30
6.35857e-31
4.36695e-28
-4.21444e-28
-5.11572e-25
-1.19826e-25
-7.76363e-27
-6.42768e-28
-1.03982e-27
-1.50037e-28
1.48753e-27
-4.33162e-28
-5.51743e-28
-5.52299e-29
7.04394e-28
-4.24124e-28
1.1207e-27
-7.68983e-28
8.3472e-28
3.59586e-28
0
0
0
-5.66245e-28
-3.27563e-25
-8.02064e-26
-8.18232e-27
8.23174e-29
4.74169e-28
-2.77941e-28
1.09095e-28
-1.9547e-28
0
1.49383e-27
2.09936e-28
-9.34543e-28
0
-4.84916e-28
1.08013e-27
4.39248e-28
-5.6699e-28
0
0
-2.67809e-28
-3.00417e-25
-8.20084e-26
-3.41049e-28
-4.4969e-27
-3.29784e-28
-2.78628e-28
7.9926e-28
0
6.22234e-28
1.49411e-27
6.29621e-30
0
1.2333e-27
-8.1932e-28
5.37865e-28
8.61671e-28
-2.11744e-28
0
2.67567e-28
9.29085e-29
-1.19984e-25
-1.61088e-26
-2.85193e-27
0
2.34788e-27
-8.49128e-28
-1.21518e-27
0
1.09462e-28
2.16944e-28
-7.01837e-28
0
0
-2.73053e-28
0
-7.12675e-28
-1.26815e-27
-1.19842e-29
-2.99013e-28
-1.50077e-28
3.78722e-25
2.12747e-26
8.12224e-27
2.40659e-28
3.4736e-28
-8.18993e-28
0
-2.48649e-28
9.85167e-29
6.05369e-28
0
1.22958e-28
0
2.13865e-27
1.53295e-27
3.62278e-28
-2.17184e-28
0
-1.5128e-28
-7.98985e-29
1.08923e-24
8.71831e-26
8.83968e-27
-1.2389e-27
-3.97608e-29
5.45488e-28
3.12512e-28
1.48955e-28
-2.72462e-30
-6.75872e-29
-1.8394e-27
-3.20642e-27
2.55497e-29
0
0
-1.50864e-28
-1.46291e-27
-2.2053e-28
0
2.21459e-28
1.51973e-24
1.55208e-25
1.83213e-26
-2.56444e-27
1.03932e-27
2.06714e-27
3.47558e-28
-1.03498e-27
-2.33282e-27
1.69238e-27
1.41804e-27
-7.10361e-28
1.49913e-28
0
1.03636e-28
4.32821e-28
-2.5764e-28
0
-1.83124e-28
0
7.33793e-25
1.75192e-26
5.47725e-27
3.24559e-28
-6.37115e-28
-1.03818e-27
-7.8931e-28
-2.02104e-28
-2.24709e-28
1.26501e-28
-1.68478e-28
2.48851e-29
0
-2.60304e-28
-6.14881e-28
2.40527e-28
0
3.09483e-28
-3.72843e-28
0
)
;

boundaryField
{
    movingWall
    {
        type            calculated;
        value           nonuniform List<scalar> 
20
(
-1.54434e-25
-1.55483e-25
4.32615e-27
2.29052e-27
-2.14519e-27
-5.95333e-27
-4.10483e-27
-1.15894e-27
-4.76974e-28
1.17416e-27
2.31665e-28
3.98345e-28
0
-4.26482e-28
-7.4346e-28
0
0
3.14142e-28
-5.66977e-28
0
)
;
    }
    fixedWalls
    {
        type            calculated;
        value           nonuniform List<scalar> 
60
(
3.75943e-24
6.36753e-24
6.29962e-26
-3.48458e-24
-5.05212e-25
3.6941e-24
1.02486e-23
1.65816e-23
1.24766e-23
5.63501e-24
-1.18531e-24
-5.55627e-24
-2.74008e-24
-1.78167e-24
-1.29487e-24
-7.18303e-25
1.67835e-24
4.7679e-24
6.42994e-24
3.46494e-24
0
-5.5729e-28
0
-1.24536e-27
-5.37272e-28
7.56216e-28
0
-2.80921e-28
-5.6707e-28
0
8.18338e-29
-8.31514e-28
-9.27735e-28
-2.79105e-28
-2.84368e-29
-3.06264e-28
-1.30906e-28
-1.33296e-29
0
0
8.15217e-26
1.57457e-26
-2.76574e-26
3.07638e-27
9.29274e-28
7.26164e-28
9.58726e-28
-1.91882e-27
-3.50059e-27
-2.87987e-27
-2.91062e-27
-3.0692e-27
-1.61157e-27
-5.32974e-28
0
0
-2.46557e-27
-1.20242e-27
-1.87573e-27
0
)
;
    }
    frontAndBack
    {
        type            empty;
    }
}


// ************************************************************************* //
