/*--------------------------------*- C++ -*----------------------------------*\
| =========                 |                                                 |
| \\      /  F ield         | OpenFOAM: The Open Source CFD Toolbox           |
|  \\    /   O peration     | Version:  2312                                  |
|   \\  /    A nd           | Website:  www.openfoam.com                      |
|    \\/     M anipulation  |                                                 |
\*---------------------------------------------------------------------------*/
FoamFile
{
    version     2.0;
    format      ascii;
    arch        "LSB;label=32;scalar=64";
    class       volScalarField;
    location    "7.75";
    object      Uy;
}
// * * * * * * * * * * * * * * * * * * * * * * * * * * * * * * * * * * * * * //

dimensions      [0 1 -1 0 0 0 0];

internalField   nonuniform List<scalar> 
400
(
9.64683e-15
-1.11178e-15
3.54616e-16
2.52815e-17
-2.26149e-17
-4.44698e-17
-1.04374e-16
-1.16432e-16
-5.50999e-17
1.43164e-17
9.82844e-17
1.7817e-16
1.83664e-16
9.26653e-17
7.74457e-17
1.12583e-16
4.88773e-17
-4.56859e-17
-8.6503e-17
-1.21414e-17
3.21922e-15
-1.75991e-16
1.93738e-16
2.18298e-17
-2.86945e-17
-5.58938e-17
-7.65603e-17
8.86399e-18
1.09709e-16
1.99578e-16
9.98933e-17
6.56862e-17
1.97351e-17
-7.08847e-17
-1.34898e-16
-4.92426e-17
1.06817e-16
2.85659e-17
-1.15995e-16
-3.08879e-17
-7.87512e-15
1.85054e-15
1.61007e-17
2.88765e-16
1.63219e-16
5.02241e-18
7.29097e-18
2.00824e-17
2.858e-17
1.42495e-16
6.07782e-17
3.11899e-17
-2.49632e-17
-7.70207e-17
-1.10509e-16
-1.40396e-16
-5.31204e-17
-9.81186e-17
-1.64957e-16
-7.48866e-17
-4.5633e-15
8.21772e-16
-1.27285e-16
1.70628e-16
1.59197e-16
1.16444e-16
1.79039e-16
1.08363e-16
-2.59857e-17
-8.01073e-17
-3.89865e-17
2.50365e-17
4.82241e-17
4.08563e-17
7.24436e-17
2.02024e-17
-7.79818e-17
-1.81968e-16
-2.18845e-16
-1.3024e-16
8.01508e-15
-1.89127e-15
3.77332e-16
2.16572e-17
1.62698e-16
2.63725e-16
3.73634e-16
2.38208e-16
4.84658e-17
-4.33469e-17
-3.36418e-17
-6.65461e-17
-1.4963e-16
-1.59283e-16
-7.21882e-17
3.44652e-17
3.85781e-17
1.19028e-18
-1.17325e-16
-1.12426e-16
-5.87255e-15
7.87593e-16
-4.66409e-17
-1.42924e-17
-5.79342e-17
-6.36469e-17
-4.5452e-17
-2.56955e-17
1.01312e-16
1.71955e-16
1.70967e-16
6.93014e-17
-3.65442e-18
-5.15524e-17
-7.20098e-17
1.02851e-17
4.87548e-17
1.14755e-17
-6.33132e-17
-6.97486e-17
-6.94601e-16
3.65985e-16
-1.97793e-16
-1.31586e-16
-1.9565e-16
-1.81377e-16
-1.88019e-16
-1.65182e-18
1.99179e-16
1.64334e-16
2.33079e-17
-4.42748e-17
2.49417e-17
1.64704e-17
-4.21032e-17
-3.02985e-17
1.16129e-16
1.22005e-16
-2.51281e-18
-6.32225e-17
1.4624e-14
-1.91373e-15
5.76165e-16
-3.7795e-17
-5.47313e-17
-5.08744e-17
-4.54182e-17
5.14188e-17
6.04128e-17
-9.32932e-17
-2.55974e-16
-2.04849e-16
-1.41844e-16
-1.45806e-16
-1.79414e-17
8.07064e-17
9.82625e-17
3.41507e-17
1.45266e-17
2.14089e-17
-1.42993e-14
1.96341e-15
-6.58447e-16
-1.57378e-16
-8.18939e-17
-2.59262e-17
-5.04137e-17
-7.81188e-17
-1.25302e-16
-1.67171e-16
-1.21109e-16
-1.64588e-16
-2.19718e-16
-1.39118e-16
5.15261e-17
1.78012e-16
6.54127e-17
-1.01859e-16
-5.65542e-17
5.2303e-17
-1.80892e-15
-5.01644e-16
-2.67898e-16
-1.67412e-16
1.45507e-16
1.98523e-16
2.28592e-16
1.64447e-16
-4.76386e-17
-1.36015e-16
-5.5416e-17
-2.98599e-18
-3.10212e-17
-5.18157e-19
-2.84195e-17
-8.11489e-17
-1.45628e-16
-5.84643e-17
-6.20037e-17
-3.86357e-17
1.41108e-14
-2.96377e-15
7.09887e-16
-1.38826e-16
-1.1524e-16
-1.56573e-16
-6.70712e-17
-9.95186e-18
-8.26018e-17
-1.33438e-16
-4.84705e-17
1.54235e-16
1.20449e-16
5.1819e-18
-1.01814e-16
-1.947e-16
-2.29943e-16
-9.21798e-17
-1.49145e-17
7.54784e-18
-4.8193e-15
1.37463e-15
-1.34659e-16
2.55954e-16
2.69845e-17
-1.53002e-17
-1.82736e-16
-3.16986e-16
-1.87707e-16
-3.51274e-17
-3.72919e-17
-5.03899e-17
-7.53283e-17
-7.47208e-17
-1.78232e-17
-4.80481e-17
-6.96289e-17
-4.73891e-17
7.70466e-17
7.54829e-17
-4.02929e-15
1.43587e-15
-2.42848e-16
1.00906e-16
7.12345e-17
1.01548e-16
8.79257e-18
-1.0951e-16
-4.32638e-17
3.4505e-17
-4.48405e-17
-1.87778e-16
-9.57037e-17
1.89546e-17
-2.52625e-17
-9.64744e-17
-1.51239e-16
-9.24144e-17
2.33257e-17
1.05037e-17
3.61528e-15
-1.01306e-15
5.96829e-17
-2.95268e-16
-1.6547e-16
-7.0654e-17
-5.60492e-17
-1.05121e-16
-1.28165e-16
-4.68922e-17
1.47398e-16
1.06084e-16
6.16734e-17
3.19108e-17
-9.49225e-17
-1.67337e-16
-1.75949e-16
-1.20039e-16
-7.77141e-17
-2.89709e-17
5.09222e-16
-2.93339e-16
-9.52836e-17
-9.38768e-17
-1.03703e-16
-1.10415e-16
-6.59237e-17
-1.93945e-17
-2.78359e-17
5.71268e-17
1.8366e-16
1.57008e-16
4.59247e-17
-7.04966e-17
-5.48339e-17
-2.08873e-17
1.06453e-17
-4.67345e-17
-3.69e-17
2.62283e-18
-3.7017e-15
9.63687e-16
-3.22947e-18
1.15289e-16
-7.68766e-17
-1.7345e-16
-9.06524e-17
1.49296e-17
2.54174e-17
-5.26257e-18
-1.26209e-18
4.36429e-17
5.07542e-17
-7.57502e-17
-1.33942e-16
-1.11353e-16
-1.23677e-16
-5.27058e-17
-2.71208e-17
-2.82479e-17
4.98165e-15
-6.14003e-16
4.30804e-16
7.8807e-17
5.18165e-17
5.99974e-17
5.64076e-18
-3.28262e-17
-4.02268e-17
-6.91725e-17
7.14441e-17
1.87139e-16
1.17586e-16
3.02421e-17
-1.45422e-16
-2.83818e-16
-2.23287e-16
-4.45238e-17
-6.76004e-17
-5.38092e-17
5.02849e-15
-8.07716e-16
2.22108e-16
2.65012e-17
-3.39514e-18
3.63539e-17
6.3688e-17
7.47862e-17
1.18643e-16
7.37809e-17
2.45977e-17
-1.72077e-18
-4.45985e-17
-1.1147e-17
-7.13796e-17
-1.33428e-16
-4.355e-17
-6.8042e-17
-8.29332e-17
1.22943e-18
-8.82009e-15
9.17658e-16
-3.27811e-16
7.27391e-17
8.61911e-17
-4.19993e-17
-6.6337e-17
-7.40559e-17
-3.62689e-17
-5.67048e-17
-1.92364e-16
-2.07181e-16
-6.13254e-17
-4.84749e-17
-1.13111e-16
-8.67099e-17
4.65712e-17
-8.52044e-17
-8.33984e-17
-1.76435e-17
-3.45181e-15
-1.92035e-17
-7.25378e-17
-1.28684e-17
7.21156e-17
-5.12421e-17
-1.19395e-16
-1.56715e-16
-1.56676e-16
-1.01694e-16
-5.41416e-17
-9.51959e-18
5.87991e-17
2.73595e-17
-3.72362e-17
-4.9144e-17
5.15025e-17
-2.89745e-17
-5.10026e-17
-3.21285e-17
)
;

boundaryField
{
    movingWall
    {
        type            calculated;
        value           uniform -0;
    }
    fixedWalls
    {
        type            calculated;
        value           uniform -0;
    }
    frontAndBack
    {
        type            empty;
    }
}


// ************************************************************************* //
