/*--------------------------------*- C++ -*----------------------------------*\
| =========                 |                                                 |
| \\      /  F ield         | OpenFOAM: The Open Source CFD Toolbox           |
|  \\    /   O peration     | Version:  2312                                  |
|   \\  /    A nd           | Website:  www.openfoam.com                      |
|    \\/     M anipulation  |                                                 |
\*---------------------------------------------------------------------------*/
FoamFile
{
    version     2.0;
    format      ascii;
    arch        "LSB;label=32;scalar=64";
    class       volVectorField;
    location    "7.75";
    object      UzeroGrad;
}
// * * * * * * * * * * * * * * * * * * * * * * * * * * * * * * * * * * * * * //

dimensions      [0 1 -1 0 0 0 0];

internalField   nonuniform List<vector> 
400
(
(-1 9.64683e-15 0)
(-1 -1.11178e-15 0)
(-1 3.54616e-16 0)
(-1 2.52815e-17 0)
(-1 -2.26149e-17 0)
(-1 -4.44698e-17 0)
(-1 -1.04374e-16 0)
(-1 -1.16432e-16 0)
(-1 -5.50999e-17 0)
(-1 1.43164e-17 0)
(-1 9.82844e-17 0)
(-1 1.7817e-16 0)
(-1 1.83664e-16 0)
(-1 9.26653e-17 0)
(-1 7.74457e-17 0)
(-1 1.12583e-16 0)
(-1 4.88773e-17 0)
(-1 -4.56859e-17 0)
(-1 -8.6503e-17 0)
(-1 -1.21414e-17 0)
(-1 3.21922e-15 0)
(-1 -1.75991e-16 0)
(-1 1.93738e-16 0)
(-1 2.18298e-17 0)
(-1 -2.86945e-17 0)
(-1 -5.58938e-17 0)
(-1 -7.65603e-17 0)
(-1 8.86399e-18 0)
(-1 1.09709e-16 0)
(-1 1.99578e-16 0)
(-1 9.98933e-17 0)
(-1 6.56862e-17 0)
(-1 1.97351e-17 0)
(-1 -7.08847e-17 0)
(-1 -1.34898e-16 0)
(-1 -4.92426e-17 0)
(-1 1.06817e-16 0)
(-1 2.85659e-17 0)
(-1 -1.15995e-16 0)
(-1 -3.08879e-17 0)
(-1 -7.87512e-15 0)
(-1 1.85054e-15 0)
(-1 1.61007e-17 0)
(-1 2.88765e-16 0)
(-1 1.63219e-16 0)
(-1 5.02241e-18 0)
(-1 7.29097e-18 0)
(-1 2.00824e-17 0)
(-1 2.858e-17 0)
(-1 1.42495e-16 0)
(-1 6.07782e-17 0)
(-1 3.11899e-17 0)
(-1 -2.49632e-17 0)
(-1 -7.70207e-17 0)
(-1 -1.10509e-16 0)
(-1 -1.40396e-16 0)
(-1 -5.31204e-17 0)
(-1 -9.81186e-17 0)
(-1 -1.64957e-16 0)
(-1 -7.48866e-17 0)
(-1 -4.5633e-15 0)
(-1 8.21772e-16 0)
(-1 -1.27285e-16 0)
(-1 1.70628e-16 0)
(-1 1.59197e-16 0)
(-1 1.16444e-16 0)
(-1 1.79039e-16 0)
(-1 1.08363e-16 0)
(-1 -2.59857e-17 0)
(-1 -8.01073e-17 0)
(-1 -3.89865e-17 0)
(-1 2.50365e-17 0)
(-1 4.82241e-17 0)
(-1 4.08563e-17 0)
(-1 7.24436e-17 0)
(-1 2.02024e-17 0)
(-1 -7.79818e-17 0)
(-1 -1.81968e-16 0)
(-1 -2.18845e-16 0)
(-1 -1.3024e-16 0)
(-1 8.01508e-15 0)
(-1 -1.89127e-15 0)
(-1 3.77332e-16 0)
(-1 2.16572e-17 0)
(-1 1.62698e-16 0)
(-1 2.63725e-16 0)
(-1 3.73634e-16 0)
(-1 2.38208e-16 0)
(-1 4.84658e-17 0)
(-1 -4.33469e-17 0)
(-1 -3.36418e-17 0)
(-1 -6.65461e-17 0)
(-1 -1.4963e-16 0)
(-1 -1.59283e-16 0)
(-1 -7.21882e-17 0)
(-1 3.44652e-17 0)
(-1 3.85781e-17 0)
(-1 1.19028e-18 0)
(-1 -1.17325e-16 0)
(-1 -1.12426e-16 0)
(-1 -5.87255e-15 0)
(-1 7.87593e-16 0)
(-1 -4.66409e-17 0)
(-1 -1.42924e-17 0)
(-1 -5.79342e-17 0)
(-1 -6.36469e-17 0)
(-1 -4.5452e-17 0)
(-1 -2.56955e-17 0)
(-1 1.01312e-16 0)
(-1 1.71955e-16 0)
(-1 1.70967e-16 0)
(-1 6.93014e-17 0)
(-1 -3.65442e-18 0)
(-1 -5.15524e-17 0)
(-1 -7.20098e-17 0)
(-1 1.02851e-17 0)
(-1 4.87548e-17 0)
(-1 1.14755e-17 0)
(-1 -6.33132e-17 0)
(-1 -6.97486e-17 0)
(-1 -6.94601e-16 0)
(-1 3.65985e-16 0)
(-1 -1.97793e-16 0)
(-1 -1.31586e-16 0)
(-1 -1.9565e-16 0)
(-1 -1.81377e-16 0)
(-1 -1.88019e-16 0)
(-1 -1.65182e-18 0)
(-1 1.99179e-16 0)
(-1 1.64334e-16 0)
(-1 2.33079e-17 0)
(-1 -4.42748e-17 0)
(-1 2.49417e-17 0)
(-1 1.64704e-17 0)
(-1 -4.21032e-17 0)
(-1 -3.02985e-17 0)
(-1 1.16129e-16 0)
(-1 1.22005e-16 0)
(-1 -2.51281e-18 0)
(-1 -6.32225e-17 0)
(-1 1.4624e-14 0)
(-1 -1.91373e-15 0)
(-1 5.76165e-16 0)
(-1 -3.7795e-17 0)
(-1 -5.47313e-17 0)
(-1 -5.08744e-17 0)
(-1 -4.54182e-17 0)
(-1 5.14188e-17 0)
(-1 6.04128e-17 0)
(-1 -9.32932e-17 0)
(-1 -2.55974e-16 0)
(-1 -2.04849e-16 0)
(-1 -1.41844e-16 0)
(-1 -1.45806e-16 0)
(-1 -1.79414e-17 0)
(-1 8.07064e-17 0)
(-1 9.82625e-17 0)
(-1 3.41507e-17 0)
(-1 1.45266e-17 0)
(-1 2.14089e-17 0)
(-1 -1.42993e-14 0)
(-1 1.96341e-15 0)
(-1 -6.58447e-16 0)
(-1 -1.57378e-16 0)
(-1 -8.18939e-17 0)
(-1 -2.59262e-17 0)
(-1 -5.04137e-17 0)
(-1 -7.81188e-17 0)
(-1 -1.25302e-16 0)
(-1 -1.67171e-16 0)
(-1 -1.21109e-16 0)
(-1 -1.64588e-16 0)
(-1 -2.19718e-16 0)
(-1 -1.39118e-16 0)
(-1 5.15261e-17 0)
(-1 1.78012e-16 0)
(-1 6.54127e-17 0)
(-1 -1.01859e-16 0)
(-1 -5.65542e-17 0)
(-1 5.2303e-17 0)
(-1 -1.80892e-15 0)
(-1 -5.01644e-16 0)
(-1 -2.67898e-16 0)
(-1 -1.67412e-16 0)
(-1 1.45507e-16 0)
(-1 1.98523e-16 0)
(-1 2.28592e-16 0)
(-1 1.64447e-16 0)
(-1 -4.76386e-17 0)
(-1 -1.36015e-16 0)
(-1 -5.5416e-17 0)
(-1 -2.98599e-18 0)
(-1 -3.10212e-17 0)
(-1 -5.18157e-19 0)
(-1 -2.84195e-17 0)
(-1 -8.11489e-17 0)
(-1 -1.45628e-16 0)
(-1 -5.84643e-17 0)
(-1 -6.20037e-17 0)
(-1 -3.86357e-17 0)
(-1 1.41108e-14 0)
(-1 -2.96377e-15 0)
(-1 7.09887e-16 0)
(-1 -1.38826e-16 0)
(-1 -1.1524e-16 0)
(-1 -1.56573e-16 0)
(-1 -6.70712e-17 0)
(-1 -9.95186e-18 0)
(-1 -8.26018e-17 0)
(-1 -1.33438e-16 0)
(-1 -4.84705e-17 0)
(-1 1.54235e-16 0)
(-1 1.20449e-16 0)
(-1 5.1819e-18 0)
(-1 -1.01814e-16 0)
(-1 -1.947e-16 0)
(-1 -2.29943e-16 0)
(-1 -9.21798e-17 0)
(-1 -1.49145e-17 0)
(-1 7.54784e-18 0)
(-1 -4.8193e-15 0)
(-1 1.37463e-15 0)
(-1 -1.34659e-16 0)
(-1 2.55954e-16 0)
(-1 2.69845e-17 0)
(-1 -1.53002e-17 0)
(-1 -1.82736e-16 0)
(-1 -3.16986e-16 0)
(-1 -1.87707e-16 0)
(-1 -3.51274e-17 0)
(-1 -3.72919e-17 0)
(-1 -5.03899e-17 0)
(-1 -7.53283e-17 0)
(-1 -7.47208e-17 0)
(-1 -1.78232e-17 0)
(-1 -4.80481e-17 0)
(-1 -6.96289e-17 0)
(-1 -4.73891e-17 0)
(-1 7.70466e-17 0)
(-1 7.54829e-17 0)
(-1 -4.02929e-15 0)
(-1 1.43587e-15 0)
(-1 -2.42848e-16 0)
(-1 1.00906e-16 0)
(-1 7.12345e-17 0)
(-1 1.01548e-16 0)
(-1 8.79257e-18 0)
(-1 -1.0951e-16 0)
(-1 -4.32638e-17 0)
(-1 3.4505e-17 0)
(-1 -4.48405e-17 0)
(-1 -1.87778e-16 0)
(-1 -9.57037e-17 0)
(-1 1.89546e-17 0)
(-1 -2.52625e-17 0)
(-1 -9.64744e-17 0)
(-1 -1.51239e-16 0)
(-1 -9.24144e-17 0)
(-1 2.33257e-17 0)
(-1 1.05037e-17 0)
(-1 3.61528e-15 0)
(-1 -1.01306e-15 0)
(-1 5.96829e-17 0)
(-1 -2.95268e-16 0)
(-1 -1.6547e-16 0)
(-1 -7.0654e-17 0)
(-1 -5.60492e-17 0)
(-1 -1.05121e-16 0)
(-1 -1.28165e-16 0)
(-1 -4.68922e-17 0)
(-1 1.47398e-16 0)
(-1 1.06084e-16 0)
(-1 6.16734e-17 0)
(-1 3.19108e-17 0)
(-1 -9.49225e-17 0)
(-1 -1.67337e-16 0)
(-1 -1.75949e-16 0)
(-1 -1.20039e-16 0)
(-1 -7.77141e-17 0)
(-1 -2.89709e-17 0)
(-1 5.09222e-16 0)
(-1 -2.93339e-16 0)
(-1 -9.52836e-17 0)
(-1 -9.38768e-17 0)
(-1 -1.03703e-16 0)
(-1 -1.10415e-16 0)
(-1 -6.59237e-17 0)
(-1 -1.93945e-17 0)
(-1 -2.78359e-17 0)
(-1 5.71268e-17 0)
(-1 1.8366e-16 0)
(-1 1.57008e-16 0)
(-1 4.59247e-17 0)
(-1 -7.04966e-17 0)
(-1 -5.48339e-17 0)
(-1 -2.08873e-17 0)
(-1 1.06453e-17 0)
(-1 -4.67345e-17 0)
(-1 -3.69e-17 0)
(-1 2.62283e-18 0)
(-1 -3.7017e-15 0)
(-1 9.63687e-16 0)
(-1 -3.22947e-18 0)
(-1 1.15289e-16 0)
(-1 -7.68766e-17 0)
(-1 -1.7345e-16 0)
(-1 -9.06524e-17 0)
(-1 1.49296e-17 0)
(-1 2.54174e-17 0)
(-1 -5.26257e-18 0)
(-1 -1.26209e-18 0)
(-1 4.36429e-17 0)
(-1 5.07542e-17 0)
(-1 -7.57502e-17 0)
(-1 -1.33942e-16 0)
(-1 -1.11353e-16 0)
(-1 -1.23677e-16 0)
(-1 -5.27058e-17 0)
(-1 -2.71208e-17 0)
(-1 -2.82479e-17 0)
(-1 4.98165e-15 0)
(-1 -6.14003e-16 0)
(-1 4.30804e-16 0)
(-1 7.8807e-17 0)
(-1 5.18165e-17 0)
(-1 5.99974e-17 0)
(-1 5.64076e-18 0)
(-1 -3.28262e-17 0)
(-1 -4.02268e-17 0)
(-1 -6.91725e-17 0)
(-1 7.14441e-17 0)
(-1 1.87139e-16 0)
(-1 1.17586e-16 0)
(-1 3.02421e-17 0)
(-1 -1.45422e-16 0)
(-1 -2.83818e-16 0)
(-1 -2.23287e-16 0)
(-1 -4.45238e-17 0)
(-1 -6.76004e-17 0)
(-1 -5.38092e-17 0)
(-1 5.02849e-15 0)
(-1 -8.07716e-16 0)
(-1 2.22108e-16 0)
(-1 2.65012e-17 0)
(-1 -3.39514e-18 0)
(-1 3.63539e-17 0)
(-1 6.3688e-17 0)
(-1 7.47862e-17 0)
(-1 1.18643e-16 0)
(-1 7.37809e-17 0)
(-1 2.45977e-17 0)
(-1 -1.72077e-18 0)
(-1 -4.45985e-17 0)
(-1 -1.1147e-17 0)
(-1 -7.13796e-17 0)
(-1 -1.33428e-16 0)
(-1 -4.355e-17 0)
(-1 -6.8042e-17 0)
(-1 -8.29332e-17 0)
(-1 1.22943e-18 0)
(-1 -8.82009e-15 0)
(-1 9.17658e-16 0)
(-1 -3.27811e-16 0)
(-1 7.27391e-17 0)
(-1 8.61911e-17 0)
(-1 -4.19993e-17 0)
(-1 -6.6337e-17 0)
(-1 -7.40559e-17 0)
(-1 -3.62689e-17 0)
(-1 -5.67048e-17 0)
(-1 -1.92364e-16 0)
(-1 -2.07181e-16 0)
(-1 -6.13254e-17 0)
(-1 -4.84749e-17 0)
(-1 -1.13111e-16 0)
(-1 -8.67099e-17 0)
(-1 4.65712e-17 0)
(-1 -8.52044e-17 0)
(-1 -8.33984e-17 0)
(-1 -1.76435e-17 0)
(-1 -3.45181e-15 0)
(-1 -1.92035e-17 0)
(-1 -7.25378e-17 0)
(-1 -1.28684e-17 0)
(-1 7.21156e-17 0)
(-1 -5.12421e-17 0)
(-1 -1.19395e-16 0)
(-1 -1.56715e-16 0)
(-1 -1.56676e-16 0)
(-1 -1.01694e-16 0)
(-1 -5.41416e-17 0)
(-1 -9.51959e-18 0)
(-1 5.87991e-17 0)
(-1 2.73595e-17 0)
(-1 -3.72362e-17 0)
(-1 -4.9144e-17 0)
(-1 5.15025e-17 0)
(-1 -2.89745e-17 0)
(-1 -5.10026e-17 0)
(-1 -3.21285e-17 0)
)
;

boundaryField
{
    movingWall
    {
        type            zeroGradient;
    }
    fixedWalls
    {
        type            zeroGradient;
    }
    frontAndBack
    {
        type            empty;
    }
}


// ************************************************************************* //
