/*--------------------------------*- C++ -*----------------------------------*\
| =========                 |                                                 |
| \\      /  F ield         | OpenFOAM: The Open Source CFD Toolbox           |
|  \\    /   O peration     | Version:  2312                                  |
|   \\  /    A nd           | Website:  www.openfoam.com                      |
|    \\/     M anipulation  |                                                 |
\*---------------------------------------------------------------------------*/
FoamFile
{
    version     2.0;
    format      ascii;
    arch        "LSB;label=32;scalar=64";
    class       volVectorField;
    location    "7.75";
    object      vorticityField;
}
// * * * * * * * * * * * * * * * * * * * * * * * * * * * * * * * * * * * * * //

dimensions      [0 0 -1 0 0 0 0];

internalField   nonuniform List<vector> 
400
(
(0 -0 1.20587e-12)
(0 -0 -1.03764e-12)
(0 -0 1.67916e-13)
(0 -0 -9.19332e-14)
(0 -0 -6.11852e-14)
(0 -0 -8.17588e-15)
(0 -0 -3.43013e-14)
(0 -0 4.92738e-15)
(0 -0 -1.40302e-14)
(0 -0 1.53384e-14)
(0 -0 1.63853e-14)
(0 -0 6.27481e-14)
(0 -0 4.56597e-14)
(0 -0 -1.06218e-14)
(0 -0 5.62019e-14)
(0 -0 -2.85684e-15)
(0 -0 -1.58269e-14)
(0 -0 -1.3538e-14)
(0 -0 3.35446e-15)
(0 -0 9.86443e-15)
(0 -0 6.56689e-13)
(0 -0 -4.38073e-13)
(0 -0 4.68871e-14)
(0 -0 -4.93483e-14)
(0 -0 7.35428e-14)
(0 -0 4.94235e-14)
(0 -0 3.35808e-14)
(0 -0 9.99421e-14)
(0 -0 1.27492e-13)
(0 -0 5.32285e-14)
(0 -0 6.7926e-14)
(0 -0 -8.01582e-15)
(0 -0 -6.78672e-14)
(0 -0 -1.54633e-14)
(0 -0 2.92693e-14)
(0 -0 7.83816e-14)
(0 -0 6.1991e-14)
(0 -0 3.19289e-14)
(0 -0 4.82647e-14)
(0 -0 1.46883e-14)
(0 -0 -7.65089e-13)
(0 -0 9.24647e-13)
(0 -0 -2.37492e-13)
(0 -0 1.47118e-14)
(0 -0 -1.09689e-13)
(0 -0 -1.24013e-13)
(0 -0 -2.55991e-14)
(0 -0 -2.49761e-14)
(0 -0 -1.48638e-14)
(0 -0 -7.80953e-14)
(0 -0 -9.24457e-14)
(0 -0 -8.98893e-14)
(0 -0 -6.50312e-14)
(0 -0 -8.55458e-15)
(0 -0 -8.76527e-14)
(0 -0 -4.84712e-14)
(0 -0 4.22774e-15)
(0 -0 -1.11837e-14)
(0 -0 2.3232e-15)
(0 -0 2.39844e-14)
(0 -0 -8.62044e-13)
(0 -0 5.52021e-13)
(0 -0 -1.19324e-13)
(0 -0 2.86482e-14)
(0 -0 -3.25235e-14)
(0 -0 1.98418e-15)
(0 -0 -2.79132e-14)
(0 -0 -1.01818e-13)
(0 -0 -1.27267e-13)
(0 -0 -2.84051e-14)
(0 -0 -1.65907e-14)
(0 -0 3.58261e-14)
(0 -0 2.8687e-14)
(0 -0 -2.46831e-14)
(0 -0 -5.62755e-14)
(0 -0 -6.92527e-14)
(0 -0 -1.28637e-13)
(0 -0 -1.22507e-13)
(0 -0 -4.90374e-14)
(0 -0 7.80349e-15)
(0 -0 5.58171e-13)
(0 -0 -6.82459e-13)
(0 -0 2.99713e-13)
(0 -0 3.27466e-14)
(0 -0 7.84169e-14)
(0 -0 4.81987e-14)
(0 -0 -2.55174e-15)
(0 -0 -1.40937e-13)
(0 -0 -8.23656e-14)
(0 -0 -3.53158e-14)
(0 -0 -2.9425e-14)
(0 -0 -6.58089e-14)
(0 -0 -9.27364e-15)
(0 -0 -1.93609e-14)
(0 -0 1.93748e-14)
(0 -0 3.81817e-14)
(0 -0 2.37776e-14)
(0 -0 3.86198e-14)
(0 -0 -1.13616e-14)
(0 -0 2.29751e-14)
(0 -0 -1.15902e-12)
(0 -0 7.45221e-13)
(0 -0 -1.34399e-13)
(0 -0 5.30808e-14)
(0 -0 7.63797e-14)
(0 -0 8.25634e-14)
(0 -0 5.80052e-14)
(0 -0 9.59916e-14)
(0 -0 1.0108e-13)
(0 -0 6.11757e-14)
(0 -0 4.39448e-14)
(0 -0 9.64287e-15)
(0 -0 -3.91904e-14)
(0 -0 -6.83554e-15)
(0 -0 3.32888e-14)
(0 -0 3.91815e-14)
(0 -0 1.1904e-16)
(0 -0 -3.83119e-14)
(0 -0 -3.52275e-14)
(0 -0 4.04112e-14)
(0 -0 4.27924e-13)
(0 -0 -8.58445e-14)
(0 -0 -4.97571e-14)
(0 -0 2.1427e-16)
(0 -0 -4.97916e-15)
(0 -0 7.63119e-16)
(0 -0 9.92877e-14)
(0 -0 1.74245e-13)
(0 -0 1.79229e-13)
(0 -0 9.08331e-14)
(0 -0 3.33492e-14)
(0 -0 2.72684e-14)
(0 -0 6.02846e-14)
(0 -0 2.04006e-14)
(0 -0 -3.17819e-14)
(0 -0 1.58232e-14)
(0 -0 4.23354e-14)
(0 -0 -1.18641e-14)
(0 -0 -1.85228e-14)
(0 -0 6.57353e-15)
(0 -0 3.11417e-12)
(0 -0 -1.73004e-12)
(0 -0 3.77329e-13)
(0 -0 -1.7151e-13)
(0 -0 -2.8413e-14)
(0 -0 -5.32788e-14)
(0 -0 1.02293e-14)
(0 -0 1.05831e-14)
(0 -0 -6.86813e-14)
(0 -0 -1.12954e-13)
(0 -0 -6.53657e-14)
(0 -0 6.56231e-14)
(0 -0 6.01143e-14)
(0 -0 9.37054e-14)
(0 -0 7.68614e-14)
(0 -0 6.58305e-14)
(0 -0 4.95545e-14)
(0 -0 1.87315e-14)
(0 -0 2.58309e-14)
(0 -0 -3.06986e-14)
(0 -0 -2.75147e-12)
(0 -0 1.55382e-12)
(0 -0 -4.56025e-13)
(0 -0 5.76553e-14)
(0 -0 -6.817e-14)
(0 -0 -2.3957e-14)
(0 -0 -1.13639e-13)
(0 -0 -8.8804e-14)
(0 -0 -9.02204e-14)
(0 -0 4.19297e-16)
(0 -0 -2.68467e-14)
(0 -0 -9.86092e-15)
(0 -0 2.54698e-15)
(0 -0 5.42295e-14)
(0 -0 1.13028e-13)
(0 -0 2.84937e-14)
(0 -0 -8.21972e-14)
(0 -0 -1.21967e-14)
(0 -0 1.54162e-14)
(0 -0 2.75302e-14)
(0 -0 -1.04421e-12)
(0 -0 3.98048e-13)
(0 -0 6.31821e-15)
(0 -0 1.76866e-13)
(0 -0 1.17909e-13)
(0 -0 3.54136e-14)
(0 -0 2.36974e-14)
(0 -0 -8.18332e-14)
(0 -0 -5.71513e-14)
(0 -0 -7.77733e-16)
(0 -0 4.0408e-14)
(0 -0 -7.88757e-14)
(0 -0 -8.10684e-14)
(0 -0 -8.1055e-14)
(0 -0 -8.93782e-14)
(0 -0 -9.3036e-14)
(0 -0 2.26846e-15)
(0 -0 8.3624e-15)
(0 -0 1.98286e-15)
(0 -0 1.00639e-14)
(0 -0 9.52069e-13)
(0 -0 -1.34009e-12)
(0 -0 3.096e-13)
(0 -0 -1.63828e-13)
(0 -0 -5.59849e-14)
(0 -0 5.9027e-14)
(0 -0 6.88723e-14)
(0 -0 2.5552e-14)
(0 -0 -3.94536e-14)
(0 -0 -2.36919e-14)
(0 -0 2.87673e-14)
(0 -0 1.6892e-14)
(0 -0 -1.49053e-14)
(0 -0 -4.93314e-14)
(0 -0 -7.41983e-14)
(0 -0 -6.70231e-14)
(0 -0 -4.39581e-14)
(0 -0 2.15029e-14)
(0 -0 -1.71323e-14)
(0 -0 -2.63684e-14)
(0 -0 1.97635e-13)
(0 -0 3.32938e-13)
(0 -0 -5.76575e-14)
(0 -0 -3.80457e-14)
(0 -0 -8.13355e-14)
(0 -0 -1.02287e-13)
(0 -0 -1.11484e-13)
(0 -0 2.6608e-14)
(0 -0 8.2396e-14)
(0 -0 4.21465e-14)
(0 -0 -1.52626e-15)
(0 -0 2.33014e-14)
(0 -0 2.4672e-14)
(0 -0 3.28556e-14)
(0 -0 1.11087e-13)
(0 -0 1.0324e-13)
(0 -0 5.4276e-14)
(0 -0 1.46676e-14)
(0 -0 3.93922e-14)
(0 -0 1.18521e-14)
(0 -0 7.43545e-13)
(0 -0 2.16014e-13)
(0 -0 -7.92865e-14)
(0 -0 5.85133e-14)
(0 -0 5.42743e-14)
(0 -0 -6.2442e-15)
(0 -0 -7.53159e-14)
(0 -0 -3.23107e-14)
(0 -0 -1.27035e-14)
(0 -0 -5.43678e-14)
(0 -0 -7.64384e-14)
(0 -0 -5.08632e-15)
(0 -0 7.48833e-14)
(0 -0 -2.00609e-14)
(0 -0 -6.5753e-14)
(0 -0 -6.68077e-14)
(0 -0 4.06009e-16)
(0 -0 1.74565e-14)
(0 -0 1.02918e-14)
(0 -0 -3.38295e-15)
(0 -0 -5.25824e-13)
(0 -0 -3.0135e-13)
(0 -0 -3.66407e-14)
(0 -0 -4.96203e-14)
(0 -0 2.24614e-14)
(0 -0 3.80471e-14)
(0 -0 2.36583e-14)
(0 -0 1.98935e-14)
(0 -0 5.82293e-15)
(0 -0 8.17664e-14)
(0 -0 6.95078e-14)
(0 -0 -8.57245e-15)
(0 -0 -7.41735e-15)
(0 -0 -1.56596e-14)
(0 -0 -7.41349e-14)
(0 -0 -6.23128e-14)
(0 -0 -2.23752e-14)
(0 -0 9.82354e-15)
(0 -0 9.10682e-15)
(0 -0 -1.64366e-14)
(0 -0 -1.13937e-13)
(0 -0 -3.33455e-14)
(0 -0 1.99463e-14)
(0 -0 5.33682e-14)
(0 -0 5.25563e-14)
(0 -0 3.77791e-15)
(0 -0 1.17522e-13)
(0 -0 3.80879e-15)
(0 -0 8.89673e-14)
(0 -0 1.02465e-13)
(0 -0 9.13033e-14)
(0 -0 -1.37735e-14)
(0 -0 -7.69605e-14)
(0 -0 7.12393e-14)
(0 -0 1.13381e-13)
(0 -0 1.14968e-13)
(0 -0 2.45203e-14)
(0 -0 -4.75454e-15)
(0 -0 5.91458e-14)
(0 -0 3.05328e-14)
(0 -0 -5.69607e-14)
(0 -0 3.42742e-13)
(0 -0 -8.48399e-14)
(0 -0 -7.36471e-15)
(0 -0 -1.10189e-13)
(0 -0 -5.55877e-14)
(0 -0 -3.53722e-14)
(0 -0 1.1607e-14)
(0 -0 -5.62293e-14)
(0 -0 -8.39831e-14)
(0 -0 -7.64246e-14)
(0 -0 5.20163e-15)
(0 -0 -1.19393e-14)
(0 -0 -1.84696e-14)
(0 -0 -3.56032e-15)
(0 -0 1.02652e-15)
(0 -0 5.86476e-15)
(0 -0 9.6556e-15)
(0 -0 -5.17643e-14)
(0 -0 -2.15682e-14)
(0 -0 8.70446e-13)
(0 -0 -4.2798e-13)
(0 -0 1.77701e-13)
(0 -0 -3.78987e-14)
(0 -0 2.52241e-14)
(0 -0 4.95925e-14)
(0 -0 -9.28237e-15)
(0 -0 4.96234e-14)
(0 -0 -3.07397e-14)
(0 -0 6.53772e-14)
(0 -0 2.56312e-14)
(0 -0 4.61415e-15)
(0 -0 -1.56897e-14)
(0 -0 -1.07616e-13)
(0 -0 -8.56161e-14)
(0 -0 -6.19967e-14)
(0 -0 2.39294e-14)
(0 -0 1.55687e-14)
(0 -0 -9.28542e-16)
(0 -0 1.2141e-14)
(0 -0 9.64179e-13)
(0 -0 -4.80639e-13)
(0 -0 1.64737e-13)
(0 -0 3.16598e-14)
(0 -0 5.51954e-14)
(0 -0 8.80235e-14)
(0 -0 8.51584e-14)
(0 -0 3.26005e-14)
(0 -0 2.70045e-14)
(0 -0 -9.40449e-15)
(0 -0 4.66599e-14)
(0 -0 -6.91962e-15)
(0 -0 -2.80477e-14)
(0 -0 -2.6781e-15)
(0 -0 -1.22281e-14)
(0 -0 -5.14272e-14)
(0 -0 6.53862e-15)
(0 -0 -3.93832e-15)
(0 -0 6.92714e-15)
(0 -0 3.52754e-14)
(0 -0 -2.33523e-12)
(0 -0 1.01186e-12)
(0 -0 -3.01332e-13)
(0 -0 -1.28099e-14)
(0 -0 -1.19894e-13)
(0 -0 -1.50778e-13)
(0 -0 -1.11626e-13)
(0 -0 -1.32518e-13)
(0 -0 -5.2475e-14)
(0 -0 -1.2403e-13)
(0 -0 -1.23468e-13)
(0 -0 -4.11063e-14)
(0 -0 4.29756e-14)
(0 -0 -5.1786e-15)
(0 -0 -3.09286e-14)
(0 -0 4.30733e-14)
(0 -0 1.50549e-16)
(0 -0 -1.2997e-14)
(0 -0 -2.0349e-14)
(0 -0 1.01042e-14)
(0 -0 2.22105e-13)
(0 -0 2.02402e-13)
(0 -0 8.19487e-14)
(0 -0 1.44653e-14)
(0 -0 5.03727e-14)
(0 -0 3.50591e-14)
(0 -0 1.65578e-14)
(0 -0 5.0482e-14)
(0 -0 5.97122e-14)
(0 -0 6.44636e-14)
(0 -0 6.34275e-14)
(0 -0 6.55042e-14)
(0 -0 3.68791e-15)
(0 -0 1.75015e-14)
(0 -0 1.94547e-14)
(0 -0 3.59789e-14)
(0 -0 2.01695e-15)
(0 -0 -1.02505e-14)
(0 -0 2.67897e-14)
(0 -0 8.3131e-15)
)
;

boundaryField
{
    movingWall
    {
        type            calculated;
        value           nonuniform List<vector> 
20
(
(0 -0 3.11679e-12)
(0 -0 -1.06162e-13)
(0 -0 6.22358e-13)
(0 -0 1.92101e-13)
(0 -0 3.51434e-13)
(0 -0 2.91711e-13)
(0 -0 2.55906e-13)
(0 -0 3.07134e-13)
(0 -0 2.27547e-13)
(0 -0 2.32298e-13)
(0 -0 9.80352e-14)
(0 -0 5.5703e-14)
(0 -0 3.68791e-15)
(0 -0 3.48054e-14)
(0 -0 3.67586e-14)
(0 -0 8.87387e-15)
(0 -0 2.01695e-15)
(0 -0 -1.02505e-14)
(0 -0 4.40935e-14)
(0 -0 8.3131e-15)
)
;
    }
    fixedWalls
    {
        type            calculated;
        value           nonuniform List<vector> 
60
(
(0 -0 4.2111e-12)
(0 -0 1.64005e-12)
(0 -0 -3.31268e-12)
(0 -0 -2.31321e-12)
(0 -0 3.15182e-12)
(0 -0 -2.99954e-12)
(0 -0 1.82945e-13)
(0 -0 7.69273e-12)
(0 -0 -7.23759e-12)
(0 -0 -1.53672e-12)
(0 -0 5.48167e-12)
(0 -0 -1.38562e-12)
(0 -0 -6.08828e-13)
(0 -0 6.60067e-13)
(0 -0 6.81636e-14)
(0 -0 -1.26384e-12)
(0 -0 2.42634e-12)
(0 -0 2.5535e-12)
(0 -0 -5.07303e-12)
(0 -0 -8.11517e-13)
(0 -0 4.85655e-15)
(0 -0 1.23552e-14)
(0 -0 2.99546e-14)
(0 -0 2.4991e-14)
(0 -0 4.49705e-14)
(0 -0 5.50045e-14)
(0 -0 2.5289e-14)
(0 -0 -3.56686e-14)
(0 -0 6.18385e-15)
(0 -0 1.54543e-14)
(0 -0 -3.01242e-14)
(0 -0 -3.08809e-15)
(0 -0 -4.20149e-15)
(0 -0 -1.55167e-14)
(0 -0 2.60559e-14)
(0 -0 -1.58059e-14)
(0 -0 2.15237e-14)
(0 -0 2.66133e-14)
(0 -0 7.0574e-15)
(0 -0 1.28514e-14)
(0 -0 -1.01167e-12)
(0 -0 -7.51586e-13)
(0 -0 -1.97157e-13)
(0 -0 -1.26541e-13)
(0 -0 -1.40202e-13)
(0 -0 -9.69937e-14)
(0 -0 -1.40423e-13)
(0 -0 -1.28299e-13)
(0 -0 -2.0897e-13)
(0 -0 -1.62297e-13)
(0 -0 -1.6125e-13)
(0 -0 -1.24689e-13)
(0 -0 -5.29594e-14)
(0 -0 -5.50308e-14)
(0 -0 1.99175e-15)
(0 -0 -2.85684e-15)
(0 -0 7.2991e-14)
(0 -0 7.52798e-14)
(0 -0 3.35446e-15)
(0 -0 9.86443e-15)
)
;
    }
    frontAndBack
    {
        type            empty;
    }
}


// ************************************************************************* //
