/*--------------------------------*- C++ -*----------------------------------*\
| =========                 |                                                 |
| \\      /  F ield         | OpenFOAM: The Open Source CFD Toolbox           |
|  \\    /   O peration     | Version:  2312                                  |
|   \\  /    A nd           | Website:  www.openfoam.com                      |
|    \\/     M anipulation  |                                                 |
\*---------------------------------------------------------------------------*/
FoamFile
{
    version     2.0;
    format      ascii;
    arch        "LSB;label=32;scalar=64";
    class       volScalarField;
    location    "7.75";
    object      zeroGradient(epsilon);
}
// * * * * * * * * * * * * * * * * * * * * * * * * * * * * * * * * * * * * * //

dimensions      [0 2 -3 0 0 0 0];

internalField   nonuniform List<scalar> 
400
(
1.51032e-06
1.51032e-06
1.51032e-06
1.51031e-06
1.51031e-06
1.51031e-06
1.51031e-06
1.51031e-06
1.51031e-06
1.51031e-06
1.51031e-06
1.51031e-06
1.51031e-06
1.51031e-06
1.51031e-06
1.51031e-06
1.51031e-06
1.51031e-06
1.51031e-06
1.51031e-06
1.56334e-06
1.54349e-06
1.54517e-06
1.54586e-06
1.54726e-06
1.54796e-06
1.54936e-06
1.55008e-06
1.55149e-06
1.55223e-06
1.55364e-06
1.5544e-06
1.55581e-06
1.55659e-06
1.558e-06
1.55881e-06
1.56022e-06
1.56105e-06
1.56175e-06
1.56288e-06
1.64636e-06
1.62474e-06
1.6266e-06
1.62736e-06
1.6289e-06
1.62967e-06
1.63121e-06
1.63199e-06
1.63354e-06
1.63433e-06
1.63588e-06
1.63669e-06
1.63824e-06
1.63907e-06
1.64061e-06
1.64146e-06
1.643e-06
1.64387e-06
1.64464e-06
1.64584e-06
1.73222e-06
1.70908e-06
1.71107e-06
1.71188e-06
1.71353e-06
1.71435e-06
1.71601e-06
1.71684e-06
1.7185e-06
1.71935e-06
1.721e-06
1.72187e-06
1.72353e-06
1.72441e-06
1.72606e-06
1.72697e-06
1.72861e-06
1.72955e-06
1.73037e-06
1.73166e-06
1.80304e-06
1.77862e-06
1.78072e-06
1.78157e-06
1.78331e-06
1.78418e-06
1.78592e-06
1.7868e-06
1.78855e-06
1.78945e-06
1.7912e-06
1.79211e-06
1.79386e-06
1.79479e-06
1.79653e-06
1.7975e-06
1.79923e-06
1.80022e-06
1.80108e-06
1.80244e-06
1.85361e-06
1.82825e-06
1.83042e-06
1.83131e-06
1.83311e-06
1.83402e-06
1.83583e-06
1.83674e-06
1.83856e-06
1.83949e-06
1.8413e-06
1.84225e-06
1.84406e-06
1.84504e-06
1.84684e-06
1.84784e-06
1.84964e-06
1.85067e-06
1.85156e-06
1.85298e-06
1.88663e-06
1.86065e-06
1.86288e-06
1.8638e-06
1.86564e-06
1.86657e-06
1.86842e-06
1.86936e-06
1.87122e-06
1.87217e-06
1.87403e-06
1.875e-06
1.87686e-06
1.87785e-06
1.8797e-06
1.88072e-06
1.88257e-06
1.88362e-06
1.88454e-06
1.88598e-06
1.90741e-06
1.88105e-06
1.88331e-06
1.88424e-06
1.88611e-06
1.88705e-06
1.88893e-06
1.88988e-06
1.89176e-06
1.89273e-06
1.89462e-06
1.8956e-06
1.89749e-06
1.8985e-06
1.90038e-06
1.90142e-06
1.90328e-06
1.90435e-06
1.90528e-06
1.90675e-06
1.92078e-06
1.89416e-06
1.89644e-06
1.89737e-06
1.89926e-06
1.90021e-06
1.90211e-06
1.90307e-06
1.90497e-06
1.90595e-06
1.90785e-06
1.90885e-06
1.91075e-06
1.91177e-06
1.91367e-06
1.91472e-06
1.9166e-06
1.91768e-06
1.91862e-06
1.92011e-06
1.93014e-06
1.90334e-06
1.90564e-06
1.90658e-06
1.90848e-06
1.90944e-06
1.91135e-06
1.91231e-06
1.91423e-06
1.91521e-06
1.91713e-06
1.91813e-06
1.92005e-06
1.92107e-06
1.92298e-06
1.92404e-06
1.92594e-06
1.92702e-06
1.92797e-06
1.92946e-06
1.93763e-06
1.91069e-06
1.91301e-06
1.91395e-06
1.91586e-06
1.91682e-06
1.91874e-06
1.91971e-06
1.92164e-06
1.92263e-06
1.92456e-06
1.92556e-06
1.92749e-06
1.92852e-06
1.93044e-06
1.9315e-06
1.93341e-06
1.9345e-06
1.93545e-06
1.93695e-06
1.9445e-06
1.91744e-06
1.91976e-06
1.92071e-06
1.92263e-06
1.92359e-06
1.92552e-06
1.9265e-06
1.92844e-06
1.92943e-06
1.93136e-06
1.93238e-06
1.93431e-06
1.93535e-06
1.93728e-06
1.93834e-06
1.94026e-06
1.94136e-06
1.94231e-06
1.94382e-06
1.95147e-06
1.92427e-06
1.92661e-06
1.92756e-06
1.92949e-06
1.93046e-06
1.9324e-06
1.93338e-06
1.93532e-06
1.93632e-06
1.93827e-06
1.93928e-06
1.94123e-06
1.94227e-06
1.94421e-06
1.94528e-06
1.9472e-06
1.94831e-06
1.94927e-06
1.95078e-06
1.95894e-06
1.9316e-06
1.93395e-06
1.93491e-06
1.93684e-06
1.93782e-06
1.93977e-06
1.94075e-06
1.94271e-06
1.94371e-06
1.94566e-06
1.94669e-06
1.94864e-06
1.94969e-06
1.95163e-06
1.95271e-06
1.95465e-06
1.95576e-06
1.95672e-06
1.95824e-06
1.9671e-06
1.93961e-06
1.94197e-06
1.94293e-06
1.94488e-06
1.94586e-06
1.94782e-06
1.94881e-06
1.95078e-06
1.95178e-06
1.95375e-06
1.95478e-06
1.95674e-06
1.9578e-06
1.95975e-06
1.96084e-06
1.96278e-06
1.9639e-06
1.96487e-06
1.9664e-06
1.97591e-06
1.94826e-06
1.95063e-06
1.9516e-06
1.95356e-06
1.95454e-06
1.95652e-06
1.95751e-06
1.95949e-06
1.9605e-06
1.96248e-06
1.96351e-06
1.96549e-06
1.96655e-06
1.96852e-06
1.96961e-06
1.97157e-06
1.97269e-06
1.97366e-06
1.97521e-06
1.98498e-06
1.95716e-06
1.95954e-06
1.96052e-06
1.96249e-06
1.96348e-06
1.96547e-06
1.96647e-06
1.96846e-06
1.96947e-06
1.97147e-06
1.97251e-06
1.97449e-06
1.97556e-06
1.97754e-06
1.97864e-06
1.98061e-06
1.98174e-06
1.98272e-06
1.98427e-06
1.99348e-06
1.96551e-06
1.96791e-06
1.96889e-06
1.97088e-06
1.97187e-06
1.97386e-06
1.97487e-06
1.97687e-06
1.97789e-06
1.9799e-06
1.98094e-06
1.98294e-06
1.98401e-06
1.98601e-06
1.98711e-06
1.98909e-06
1.99022e-06
1.99121e-06
1.99277e-06
2.00022e-06
1.97267e-06
1.97499e-06
1.97594e-06
1.97787e-06
1.97884e-06
1.98079e-06
1.98177e-06
1.98373e-06
1.98474e-06
1.98671e-06
1.98775e-06
1.98972e-06
1.99079e-06
1.99276e-06
1.99387e-06
1.99583e-06
1.99699e-06
1.99796e-06
1.99953e-06
2.00331e-06
2.00331e-06
2.00331e-06
2.00331e-06
2.00331e-06
2.00331e-06
2.00331e-06
2.00331e-06
2.0033e-06
2.00331e-06
2.0033e-06
2.00331e-06
2.0033e-06
2.0033e-06
2.0033e-06
2.0033e-06
2.0033e-06
2.0033e-06
2.0033e-06
2.0033e-06
)
;

boundaryField
{
    movingWall
    {
        type            zeroGradient;
    }
    fixedWalls
    {
        type            zeroGradient;
    }
    frontAndBack
    {
        type            empty;
    }
}


// ************************************************************************* //
