/*--------------------------------*- C++ -*----------------------------------*\
| =========                 |                                                 |
| \\      /  F ield         | OpenFOAM: The Open Source CFD Toolbox           |
|  \\    /   O peration     | Version:  2312                                  |
|   \\  /    A nd           | Website:  www.openfoam.com                      |
|    \\/     M anipulation  |                                                 |
\*---------------------------------------------------------------------------*/
FoamFile
{
    version     2.0;
    format      ascii;
    arch        "LSB;label=32;scalar=64";
    class       volScalarField;
    location    "150";
    object      k;
}
// * * * * * * * * * * * * * * * * * * * * * * * * * * * * * * * * * * * * * //

dimensions      [0 2 -2 0 0 0 0];

internalField   nonuniform List<scalar> 
12225
(
0.571497
0.987649
1.28117
1.45558
1.54168
1.57745
1.57569
1.56727
1.54719
1.52379
1.50055
1.47812
1.45808
1.43919
1.42357
1.40794
1.39728
1.38275
0.438448
0.496881
0.521947
0.534909
0.542869
0.54741
0.550206
0.552234
0.556032
0.559336
0.565663
0.570868
0.579615
0.586584
0.596737
0.604931
0.615099
0.624709
0.387569
0.417494
0.424188
0.421529
0.415058
0.40494
0.393835
0.382763
0.371986
0.362366
0.353304
0.34605
0.339026
0.334286
0.329135
0.326658
0.323033
0.322279
0.376179
0.384819
0.388123
0.387414
0.385438
0.381124
0.375697
0.369548
0.36313
0.356552
0.35012
0.343798
0.337829
0.332067
0.326784
0.321697
0.317168
0.312737
0.374177
0.375375
0.376396
0.375928
0.3748
0.372502
0.36962
0.366133
0.362489
0.358469
0.35456
0.350373
0.346525
0.342391
0.338799
0.334834
0.331618
0.327866
0.373736
0.372545
0.371997
0.371082
0.369918
0.368264
0.366341
0.364031
0.361642
0.358968
0.356375
0.353539
0.350919
0.348052
0.345526
0.34271
0.340358
0.33764
0.373769
0.371726
0.370231
0.368831
0.367466
0.36594
0.364345
0.362552
0.360735
0.358751
0.356815
0.354733
0.352772
0.350669
0.348753
0.346679
0.34486
0.342841
0.373818
0.371563
0.369621
0.36786
0.366251
0.364663
0.363122
0.361522
0.359946
0.358299
0.356697
0.355028
0.353431
0.351773
0.350218
0.348594
0.34711
0.345533
0.373833
0.371554
0.369458
0.367511
0.365723
0.364025
0.362429
0.360862
0.359356
0.357853
0.356402
0.354945
0.353544
0.352133
0.350789
0.349431
0.348155
0.34685
0.373832
0.37156
0.369425
0.36741
0.36553
0.363753
0.362087
0.360493
0.358981
0.357517
0.356117
0.35475
0.35344
0.352154
0.350923
0.349711
0.348556
0.347411
0.37383
0.371561
0.369417
0.367384
0.365468
0.363653
0.361942
0.360317
0.35878
0.35731
0.355913
0.354572
0.353291
0.352056
0.350876
0.349733
0.348639
0.34758
0.373828
0.371559
0.369412
0.367375
0.365448
0.36362
0.36189
0.360248
0.358691
0.35721
0.355804
0.354461
0.353183
0.35196
0.350793
0.349674
0.348603
0.347576
0.373827
0.371557
0.369407
0.367369
0.365437
0.363604
0.361865
0.360214
0.358647
0.357157
0.355741
0.354392
0.353109
0.351885
0.350719
0.349605
0.348541
0.347525
0.373827
0.371555
0.369403
0.367362
0.365428
0.363591
0.361849
0.360193
0.35862
0.357124
0.355701
0.354347
0.353058
0.35183
0.350659
0.349543
0.348477
0.347462
0.373826
0.371553
0.369399
0.367357
0.36542
0.363581
0.361835
0.360177
0.3586
0.357101
0.355674
0.354316
0.353022
0.35179
0.350615
0.349496
0.348426
0.347408
0.373826
0.371552
0.369396
0.367352
0.365413
0.363572
0.361824
0.360163
0.358584
0.357082
0.355652
0.354291
0.352995
0.351759
0.350582
0.349459
0.348387
0.347365
0.373825
0.371551
0.369395
0.367349
0.365408
0.363566
0.361816
0.360153
0.358571
0.357067
0.355635
0.354272
0.352973
0.351735
0.350555
0.34943
0.348356
0.347332
0.373825
0.371551
0.369393
0.367347
0.365405
0.363561
0.36181
0.360145
0.358562
0.357057
0.355623
0.354258
0.352957
0.351718
0.350536
0.349409
0.348334
0.347308
0.373825
0.371551
0.369393
0.367347
0.365404
0.36356
0.361808
0.360143
0.358559
0.357052
0.355618
0.354252
0.35295
0.35171
0.350527
0.349399
0.348323
0.347296
0.373825
0.371551
0.369394
0.367348
0.365406
0.363562
0.361811
0.360146
0.358562
0.357056
0.355621
0.354256
0.352954
0.351714
0.350531
0.349404
0.348328
0.347301
0.373826
0.371552
0.369396
0.367351
0.36541
0.363567
0.361816
0.360152
0.35857
0.357065
0.355632
0.354268
0.352968
0.351729
0.350549
0.349422
0.348348
0.347322
0.373826
0.371553
0.369398
0.367355
0.365416
0.363575
0.361828
0.360168
0.358591
0.357091
0.355664
0.354306
0.353011
0.351778
0.350601
0.349478
0.348406
0.347381
0.373826
0.371555
0.369401
0.367363
0.365432
0.363605
0.361875
0.360237
0.358681
0.357203
0.355793
0.35445
0.353166
0.351938
0.35076
0.349633
0.34855
0.34751
0.373827
0.371555
0.369413
0.367418
0.365544
0.363793
0.362138
0.360572
0.35907
0.357632
0.356239
0.354895
0.353587
0.352321
0.351088
0.349892
0.348726
0.347598
0.373819
0.371564
0.369582
0.367846
0.366223
0.364712
0.363219
0.361753
0.360266
0.358786
0.357287
0.355799
0.354305
0.352832
0.351359
0.349921
0.348492
0.347106
0.373767
0.371946
0.370917
0.369978
0.368912
0.367767
0.366326
0.364737
0.362933
0.361061
0.359059
0.357053
0.354969
0.352923
0.350842
0.348822
0.346788
0.344835
0.374093
0.3752
0.37726
0.377562
0.377091
0.375807
0.373488
0.370864
0.367802
0.364686
0.361327
0.358026
0.354601
0.351289
0.34792
0.344697
0.341468
0.338409
0.377677
0.394076
0.402944
0.402353
0.400307
0.396045
0.390665
0.385166
0.379133
0.373303
0.367221
0.361476
0.355718
0.350305
0.345127
0.340198
0.335725
0.331324
0.405777
0.438977
0.451189
0.45581
0.459113
0.462264
0.464978
0.467236
0.469235
0.470857
0.47251
0.473949
0.475576
0.477107
0.479255
0.480884
0.483736
0.485458
0.479013
0.684924
0.865147
0.990805
1.09437
1.17583
1.23937
1.28339
1.31501
1.33203
1.34316
1.34347
1.34134
1.33621
1.32773
1.3176
1.30665
1.29519
0.00730141
0.0123219
0.0173767
0.021549
0.0248058
0.0274655
0.0299084
0.0321365
0.0342792
0.0364973
0.0389774
0.0419151
0.0453226
0.0490731
0.0530765
0.0573015
0.0617397
0.0663958
0.0712707
0.0763694
0.0816907
0.0872418
0.0930283
0.0990752
0.105304
0.111702
0.118262
0.12499
0.131896
0.139021
0.14642
0.153959
0.161627
0.169426
0.177347
0.185399
0.193578
0.2019
0.210367
0.218993
0.227775
0.236732
0.245862
0.25518
0.26468
0.274365
0.284211
0.294241
0.304445
0.314838
0.325412
0.336183
0.347139
0.358298
0.369645
0.381199
0.392943
0.404896
0.417038
0.429389
0.441926
0.454671
0.467599
0.480731
0.494039
0.507547
0.521224
0.535093
0.549122
0.563337
0.577703
0.592246
0.60693
0.621781
0.636762
0.651899
0.667152
0.68255
0.698052
0.713688
0.729413
0.745259
0.761179
0.777206
0.793284
0.809447
0.825641
0.841896
0.858162
0.87445
0.890727
0.906957
0.923113
0.939153
0.955049
0.970758
0.986266
1.00158
1.01677
1.03201
1.04698
1.06174
1.07626
1.09048
1.10437
1.11788
1.13097
1.1436
1.15569
1.1672
1.17806
1.18821
1.19758
1.20611
1.21374
1.2204
1.22604
1.23058
1.23377
1.235
1.23557
1.23414
1.23167
1.22776
1.22213
1.21497
1.20628
1.19599
1.18383
1.17028
1.15537
1.1392
1.12192
1.10362
1.08448
1.06459
1.04414
1.02323
1.00206
0.980835
0.959864
0.941292
0.926579
0.912451
0.898312
0.884136
0.869969
0.855875
0.841907
0.828112
0.814526
0.801181
0.788102
0.77531
0.762822
0.750651
0.73881
0.727304
0.71614
0.705322
0.69486
0.684731
0.674939
0.665511
0.656463
0.647788
0.63948
0.631531
0.623936
0.616687
0.609774
0.603182
0.596891
0.590862
0.585042
0.579328
0.573526
0.567148
0.560028
0.533541
0.0185921
0.0325452
0.0442497
0.0530829
0.0604137
0.0668323
0.0727411
0.0785572
0.0845417
0.0908484
0.0975498
0.104654
0.112138
0.119973
0.128128
0.136592
0.145366
0.154457
0.163878
0.173638
0.183742
0.194197
0.205001
0.216148
0.227619
0.239395
0.251459
0.263802
0.276413
0.289282
0.302397
0.315744
0.329318
0.34312
0.357152
0.37142
0.38593
0.400695
0.415728
0.431038
0.446638
0.462545
0.478777
0.495357
0.51231
0.529638
0.547281
0.565251
0.583553
0.602199
0.621192
0.640543
0.660255
0.680336
0.70079
0.721623
0.742835
0.764433
0.786415
0.808786
0.831541
0.854685
0.878212
0.902124
0.926413
0.951081
0.976117
1.00152
1.02729
1.05341
1.07987
1.10668
1.13382
1.16129
1.18908
1.21717
1.24557
1.27426
1.30324
1.3325
1.36203
1.39182
1.42187
1.45217
1.48271
1.51348
1.54447
1.57568
1.60709
1.63871
1.67052
1.70248
1.73457
1.76676
1.79901
1.83127
1.86347
1.89554
1.92738
1.95889
1.99038
2.02177
2.05304
2.08413
2.11498
2.14551
2.17566
2.20532
2.23441
2.26281
2.29039
2.31702
2.34256
2.36684
2.3897
2.41098
2.43049
2.44811
2.46361
2.47655
2.48625
2.49365
2.4969
2.4987
2.49668
2.49132
2.48263
2.47063
2.45536
2.43699
2.41566
2.39154
2.36485
2.33582
2.30471
2.27176
2.23726
2.20147
2.16464
2.12709
2.08915
2.05121
2.0135
1.9758
1.9382
1.90087
1.86398
1.82765
1.79199
1.75709
1.723
1.68978
1.65747
1.62609
1.59565
1.56618
1.53768
1.51014
1.48356
1.45794
1.43327
1.40946
1.38657
1.3646
1.34354
1.32337
1.30406
1.2856
1.26795
1.25109
1.23498
1.21959
1.20487
1.19079
1.17725
1.16418
1.15135
1.13858
1.12348
1.08582
0.0284802
0.0525058
0.0682723
0.0800631
0.0900952
0.0992645
0.108069
0.11684
0.125798
0.135079
0.144749
0.154831
0.165318
0.176194
0.187442
0.199055
0.211035
0.223389
0.236125
0.249252
0.262776
0.276697
0.291013
0.305714
0.320786
0.336215
0.351987
0.368094
0.384523
0.401265
0.418312
0.435659
0.453305
0.471252
0.489505
0.508072
0.526959
0.546176
0.565732
0.585635
0.605894
0.626523
0.647533
0.668934
0.690736
0.712941
0.735551
0.758575
0.782022
0.805901
0.830221
0.85499
0.880214
0.905901
0.932056
0.958684
0.985787
1.01337
1.04143
1.06997
1.09899
1.12848
1.15845
1.18888
1.21978
1.25113
1.28293
1.31517
1.34783
1.38092
1.4144
1.44829
1.48255
1.51719
1.55217
1.58749
1.62313
1.65908
1.69532
1.73183
1.76861
1.80562
1.84287
1.88032
1.91797
1.95581
1.9938
2.03195
2.07023
2.10864
2.14717
2.18578
2.22446
2.26319
2.30194
2.34071
2.37948
2.41822
2.45692
2.49553
2.53407
2.5725
2.61077
2.64882
2.68659
2.72399
2.76094
2.79734
2.83307
2.868
2.90197
2.93482
2.96636
2.99639
3.02469
3.05102
3.07515
3.09681
3.11577
3.13169
3.14422
3.15333
3.15778
3.1598
3.15752
3.1511
3.14055
3.12593
3.10729
3.08481
3.05864
3.02903
2.99622
2.96051
2.92219
2.88159
2.83903
2.79483
2.74931
2.70284
2.65584
2.60871
2.5616
2.51451
2.46758
2.42099
2.37492
2.32952
2.28492
2.24123
2.19854
2.15689
2.11635
2.07694
2.0387
2.00163
1.96574
1.93104
1.89751
1.86515
1.83394
1.80385
1.77488
1.747
1.7202
1.69447
1.66976
1.64605
1.62332
1.60152
1.58064
1.56063
1.54146
1.52308
1.50544
1.48849
1.47211
1.45621
1.4398
1.40801
0.0365181
0.0708421
0.0907215
0.105211
0.117439
0.128601
0.139325
0.149987
0.160833
0.172012
0.183606
0.195652
0.208155
0.221107
0.234496
0.248316
0.262564
0.277244
0.292358
0.307911
0.323902
0.340328
0.357178
0.374443
0.392113
0.410181
0.428636
0.44747
0.466673
0.486237
0.506156
0.526426
0.547048
0.568023
0.589354
0.611048
0.633111
0.655552
0.678377
0.701596
0.72522
0.749259
0.773723
0.798624
0.823972
0.849775
0.876042
0.902785
0.930014
0.957739
0.98597
1.01472
1.04399
1.07379
1.10413
1.13501
1.16643
1.19841
1.23094
1.26402
1.29765
1.33182
1.36653
1.40178
1.43756
1.47386
1.51067
1.54798
1.58577
1.62403
1.66275
1.70191
1.74148
1.78146
1.82182
1.86254
1.9036
1.94497
1.98664
2.02858
2.07076
2.11317
2.15578
2.19858
2.24152
2.28461
2.3278
2.3711
2.41447
2.45791
2.50139
2.54491
2.58844
2.63196
2.67547
2.71895
2.76239
2.80576
2.84905
2.89223
2.93528
2.97814
3.02079
3.06315
3.10518
3.14678
3.18787
3.22836
3.26812
3.307
3.34487
3.38152
3.41677
3.45038
3.48212
3.51173
3.53892
3.5634
3.58491
3.60312
3.61777
3.62851
3.63431
3.6369
3.63494
3.62835
3.61711
3.60126
3.58089
3.55613
3.52717
3.49427
3.45771
3.41781
3.3749
3.32933
3.28147
3.2317
3.18042
3.12804
3.07496
3.02156
2.96804
2.91453
2.8612
2.80823
2.75582
2.70414
2.65334
2.60352
2.55479
2.50722
2.46087
2.41578
2.37198
2.32948
2.28829
2.24841
2.20984
2.17256
2.13656
2.10181
2.0683
2.036
2.00489
1.97494
1.94612
1.91841
1.89177
1.86617
1.84158
1.81796
1.7953
1.77356
1.75271
1.73275
1.71362
1.69534
1.67704
1.64893
0.0430129
0.0873415
0.111237
0.128352
0.142631
0.155548
0.167856
0.180001
0.192267
0.204834
0.217815
0.231267
0.245216
0.259667
0.274617
0.290061
0.305992
0.322408
0.339307
0.356686
0.374541
0.392867
0.411655
0.430898
0.450588
0.470715
0.49127
0.512243
0.533626
0.555412
0.577597
0.600178
0.623154
0.646525
0.670296
0.694471
0.719056
0.744058
0.769485
0.795348
0.821657
0.848424
0.87566
0.903378
0.931589
0.960304
0.989536
1.0193
1.0496
1.08045
1.11187
1.14387
1.17645
1.20962
1.24339
1.27778
1.31277
1.34838
1.38461
1.42146
1.45893
1.49701
1.5357
1.575
1.61489
1.65536
1.69641
1.73802
1.78017
1.82284
1.86602
1.90969
1.95383
1.9984
2.04339
2.08876
2.13449
2.18056
2.22692
2.27356
2.32044
2.36752
2.41479
2.46221
2.50974
2.55737
2.60507
2.6528
2.70055
2.7483
2.79603
2.84372
2.89135
2.9389
2.98636
3.03371
3.08093
3.12801
3.17491
3.22163
3.26812
3.31436
3.3603
3.40589
3.45108
3.4958
3.53997
3.58349
3.62624
3.66811
3.70892
3.74851
3.78665
3.82314
3.85771
3.89009
3.91998
3.94708
3.97106
3.99161
4.00846
4.02125
4.029
4.03268
4.03182
4.02593
4.015
3.99903
3.97809
3.95231
3.9219
3.88709
3.84819
3.80554
3.75949
3.71044
3.6588
3.60499
3.54945
3.4926
3.43486
3.37659
3.31805
3.25945
3.20099
3.14289
3.08533
3.02852
2.97261
2.91774
2.864
2.81148
2.76025
2.71036
2.66184
2.61471
2.56897
2.52464
2.4817
2.44014
2.39994
2.36109
2.32355
2.28731
2.25233
2.21859
2.18605
2.15469
2.12447
2.09537
2.06736
2.0404
2.01449
1.9896
1.96574
1.94294
1.92121
1.90059
1.88029
1.85361
0.049131
0.101916
0.129473
0.149038
0.165231
0.179758
0.193479
0.206902
0.22035
0.234039
0.248108
0.262642
0.277689
0.293271
0.309396
0.326062
0.343267
0.361006
0.379271
0.398058
0.417361
0.43717
0.45748
0.478281
0.499564
0.52132
0.54354
0.566216
0.58934
0.612906
0.636911
0.661352
0.686228
0.71154
0.737292
0.763489
0.790136
0.817243
0.844816
0.872868
0.901408
0.93045
0.960004
0.990086
1.02071
1.05188
1.08362
1.11594
1.14886
1.18238
1.21653
1.2513
1.28673
1.32281
1.35956
1.39698
1.43508
1.47387
1.51335
1.55351
1.59437
1.63591
1.67813
1.72103
1.7646
1.80882
1.85368
1.89917
1.94527
1.99195
2.0392
2.087
2.1353
2.18409
2.23334
2.28301
2.33306
2.38347
2.43419
2.48519
2.53642
2.58786
2.63946
2.69118
2.74299
2.79485
2.84672
2.89857
2.95037
3.0021
3.05372
3.10522
3.15656
3.20773
3.2587
3.30945
3.35997
3.41022
3.4602
3.50988
3.55924
3.60824
3.65685
3.70505
3.75277
3.79997
3.84657
3.89249
3.93764
3.98189
4.02511
4.06711
4.10771
4.14668
4.18376
4.21869
4.25115
4.28082
4.30735
4.33042
4.3497
4.36483
4.37512
4.38065
4.38153
4.37713
4.36737
4.3522
4.33168
4.30592
4.2751
4.23946
4.19932
4.15502
4.10696
4.05555
4.00125
3.94449
3.88573
3.82541
3.76396
3.70176
3.63912
3.57628
3.5135
3.45101
3.38903
3.32777
3.26739
3.20804
3.14985
3.09291
3.0373
2.98306
2.93023
2.87885
2.82893
2.78045
2.73344
2.68786
2.6437
2.60095
2.55957
2.51954
2.48083
2.44341
2.40725
2.37231
2.33858
2.30601
2.27459
2.24429
2.21512
2.18706
2.16015
2.13445
2.11001
2.08689
2.06436
2.03749
0.0568168
0.114798
0.145377
0.167062
0.184956
0.200935
0.215931
0.230497
0.244987
0.259642
0.274624
0.290043
0.305965
0.322432
0.339462
0.357065
0.375241
0.393987
0.413297
0.433164
0.453581
0.474539
0.49603
0.518046
0.540577
0.563615
0.587152
0.61118
0.635693
0.660686
0.686155
0.7121
0.73852
0.765417
0.792794
0.820656
0.849011
0.877866
0.907231
0.937117
0.967534
0.998497
1.03002
1.06211
1.09479
1.12808
1.16198
1.19652
1.2317
1.26755
1.30408
1.34131
1.37925
1.4179
1.45729
1.49743
1.53831
1.57996
1.62237
1.66554
1.70948
1.75418
1.79965
1.84587
1.89284
1.94053
1.98895
2.03807
2.08787
2.13833
2.18942
2.24111
2.29338
2.34618
2.39949
2.45327
2.50746
2.56204
2.61695
2.67215
2.72759
2.78323
2.83902
2.8949
2.95084
3.00678
3.06268
3.1185
3.17419
3.22972
3.28506
3.34017
3.39501
3.44956
3.50379
3.55767
3.61118
3.6643
3.717
3.76928
3.82111
3.87246
3.92332
3.97366
4.02345
4.07265
4.1212
4.16904
4.21609
4.26225
4.30741
4.3514
4.39406
4.43517
4.47449
4.51175
4.54663
4.57882
4.60796
4.63368
4.65562
4.67339
4.68654
4.69459
4.6978
4.69558
4.68775
4.67422
4.65498
4.63013
4.59982
4.56432
4.52391
4.47896
4.42988
4.37711
4.32109
4.26228
4.20117
4.13821
4.07384
4.00846
3.94243
3.87603
3.80955
3.74325
3.67738
3.61215
3.54776
3.48437
3.42211
3.3611
3.30141
3.2431
3.18623
3.13083
3.0769
3.02446
2.97351
2.92403
2.87601
2.82942
2.78425
2.74046
2.69802
2.65691
2.61709
2.57854
2.54122
2.50511
2.47019
2.43645
2.4039
2.37254
2.34244
2.31366
2.28629
2.2604
2.23531
2.2071
0.0639512
0.125657
0.158769
0.182273
0.201656
0.218925
0.235066
0.25066
0.266083
0.281594
0.29737
0.313539
0.330185
0.347362
0.365103
0.383426
0.40234
0.421845
0.441939
0.462617
0.483871
0.505696
0.528082
0.551022
0.574507
0.598531
0.623086
0.648165
0.673765
0.699882
0.726513
0.753657
0.781316
0.809493
0.838191
0.867416
0.897175
0.927478
0.958335
0.989757
1.02176
1.05435
1.08754
1.12136
1.15582
1.19093
1.22672
1.26319
1.30037
1.33828
1.37693
1.41635
1.45653
1.49752
1.5393
1.5819
1.62534
1.66961
1.71472
1.76068
1.8075
1.85516
1.90367
1.95302
2.0032
2.0542
2.106
2.15859
2.21194
2.26603
2.32082
2.37629
2.4324
2.48911
2.54638
2.60416
2.66241
2.72107
2.7801
2.83944
2.89902
2.9588
3.01872
3.07871
3.13872
3.19868
3.25855
3.31827
3.37778
3.43703
3.49599
3.5546
3.61281
3.6706
3.72792
3.78475
3.84105
3.8968
3.95198
4.00658
4.06057
4.11395
4.1667
4.2188
4.27024
4.32099
4.37103
4.42031
4.46879
4.51638
4.56299
4.6085
4.65277
4.6956
4.73678
4.77605
4.81312
4.84765
4.8793
4.90766
4.93236
4.95299
4.96911
4.98023
4.98624
4.98677
4.98152
4.97033
4.95314
4.93003
4.90112
4.86665
4.82692
4.78227
4.73311
4.67988
4.62303
4.56304
4.5004
4.43557
4.36902
4.30117
4.23241
4.16306
4.09345
4.02388
3.95459
3.88585
3.81785
3.75078
3.68478
3.61999
3.55648
3.49434
3.43362
3.37436
3.31658
3.26029
3.20549
3.15218
3.10033
3.04993
3.00096
2.95339
2.90719
2.86232
2.81877
2.7765
2.73549
2.69572
2.65717
2.61984
2.58374
2.54891
2.51541
2.48333
2.45278
2.42382
2.3958
2.36547
0.0701697
0.134459
0.169644
0.194676
0.215333
0.233723
0.25087
0.267377
0.28363
0.299897
0.316368
0.333179
0.350427
0.368178
0.386476
0.405349
0.424813
0.444875
0.465537
0.486799
0.508656
0.531103
0.554135
0.577745
0.601928
0.626677
0.651987
0.677854
0.704274
0.731246
0.758769
0.786844
0.815473
0.84466
0.874411
0.904732
0.935631
0.967119
0.999205
1.0319
1.06523
1.0992
1.13382
1.16912
1.20511
1.24181
1.27925
1.31744
1.35639
1.39614
1.4367
1.4781
1.52034
1.56345
1.60744
1.65233
1.69813
1.74486
1.79252
1.84111
1.89065
1.94113
1.99254
2.04489
2.09817
2.15235
2.20743
2.26339
2.32019
2.37782
2.43624
2.49541
2.55529
2.61585
2.67703
2.73877
2.80104
2.86376
2.92687
2.99031
3.05402
3.11792
3.18195
3.24603
3.31009
3.37407
3.43788
3.50147
3.56476
3.62769
3.69021
3.75225
3.81376
3.87468
3.93498
3.99462
4.05355
4.11175
4.1692
4.22587
4.28176
4.33685
4.39114
4.44463
4.4973
4.54917
4.60021
4.65042
4.69978
4.74824
4.79574
4.84221
4.88752
4.93153
4.97405
5.01486
5.05368
5.0902
5.12407
5.1549
5.18227
5.20575
5.22489
5.23924
5.24847
5.25216
5.25003
5.24179
5.22736
5.20675
5.18008
5.14753
5.10938
5.06595
5.01763
4.96484
4.90806
4.84774
4.78439
4.71849
4.65052
4.58091
4.5101
4.43844
4.36629
4.29397
4.22177
4.14996
4.07877
4.00839
3.93899
3.87071
3.80366
3.73792
3.67356
3.61062
3.54912
3.4891
3.43054
3.37345
3.31782
3.26363
3.21086
3.15948
3.10947
3.06079
3.01343
2.96735
2.92254
2.87897
2.83665
2.79557
2.75576
2.71727
2.68016
2.64455
2.61055
2.57821
2.54693
2.514
0.0754123
0.141295
0.178113
0.20439
0.226101
0.245434
0.26344
0.280732
0.297702
0.314621
0.331686
0.349037
0.366778
0.384984
0.403708
0.422986
0.442841
0.463288
0.484335
0.505986
0.528241
0.5511
0.57456
0.598617
0.623269
0.648512
0.674343
0.700761
0.727763
0.755352
0.783526
0.812291
0.84165
0.871609
0.902174
0.933354
0.965159
0.9976
1.03069
1.06444
1.09887
1.134
1.16984
1.20641
1.24373
1.28183
1.32073
1.36044
1.401
1.44242
1.48473
1.52794
1.57208
1.61718
1.66324
1.71029
1.75834
1.8074
1.85749
1.90862
1.96078
2.01398
2.06821
2.12349
2.17978
2.23708
2.29537
2.35464
2.41485
2.47597
2.53797
2.6008
2.66443
2.7288
2.79386
2.85955
2.9258
2.99256
3.05974
3.12728
3.1951
3.26311
3.33124
3.3994
3.46751
3.53547
3.60321
3.67064
3.73768
3.80426
3.87028
3.93569
4.00041
4.06438
4.12755
4.18985
4.25126
4.31173
4.37123
4.42974
4.48724
4.54373
4.59921
4.65368
4.70715
4.75963
4.81116
4.86172
4.91135
4.96003
5.00775
5.05447
5.10013
5.14461
5.18778
5.22946
5.26941
5.30735
5.34295
5.37583
5.40556
5.4317
5.45377
5.47129
5.48385
5.49103
5.49241
5.4877
5.47664
5.45925
5.43559
5.4058
5.3701
5.32879
5.28222
5.23081
5.175
5.11526
5.05208
4.98594
4.91735
4.84676
4.77462
4.70133
4.62727
4.5528
4.47823
4.40385
4.32992
4.25666
4.18424
4.11282
4.04253
3.97346
3.9057
3.83928
3.77425
3.71064
3.64845
3.58769
3.52835
3.47041
3.41386
3.35867
3.30483
3.2523
3.20107
3.15111
3.1024
3.05493
3.00871
2.96375
2.92007
2.87774
2.83684
2.79748
2.75978
2.72378
2.68893
2.65291
0.0796781
0.146302
0.184346
0.211594
0.234142
0.254234
0.27294
0.290877
0.308438
0.325894
0.343442
0.361226
0.379351
0.397899
0.416928
0.43648
0.456587
0.477269
0.49854
0.520411
0.542887
0.565971
0.589666
0.613974
0.638894
0.664427
0.690573
0.717332
0.744706
0.772699
0.801314
0.830557
0.860435
0.890956
0.922129
0.953964
0.986474
1.01967
1.05357
1.08818
1.12353
1.15964
1.19652
1.23419
1.27269
1.31204
1.35225
1.39335
1.43538
1.47835
1.52229
1.56722
1.61317
1.66015
1.7082
1.75733
1.80756
1.8589
1.91136
1.96496
2.0197
2.07558
2.1326
2.19075
2.25003
2.31043
2.37191
2.43446
2.49804
2.56264
2.6282
2.69467
2.76202
2.83019
2.89911
2.96872
3.03895
3.10972
3.18095
3.25256
3.32446
3.39656
3.46876
3.54096
3.61306
3.68497
3.75659
3.8278
3.89852
3.96865
4.0381
4.10678
4.1746
4.24149
4.30738
4.3722
4.43589
4.49841
4.55972
4.61979
4.67859
4.73612
4.79239
4.8474
4.90117
4.95374
5.00514
5.05542
5.10461
5.15277
5.19992
5.24608
5.29122
5.33531
5.37827
5.41996
5.46021
5.49879
5.5354
5.56968
5.60123
5.62959
5.65427
5.67478
5.69062
5.70136
5.70658
5.70582
5.69869
5.68512
5.66518
5.63894
5.60655
5.56826
5.52439
5.47531
5.42143
5.36321
5.30113
5.23567
5.16733
5.0966
5.02393
4.94977
4.87451
4.79855
4.72223
4.64585
4.56971
4.49404
4.41905
4.3449
4.27174
4.19967
4.1288
4.05917
3.99084
3.92385
3.8582
3.79391
3.73097
3.66938
3.60912
3.55017
3.49253
3.43615
3.38103
3.32715
3.2745
3.22306
3.17286
3.12391
3.07624
3.02993
2.98507
2.94178
2.90017
2.86029
2.82161
2.78214
0.0829868
0.149625
0.18852
0.216485
0.239661
0.260329
0.279571
0.298004
0.316019
0.333886
0.351798
0.369898
0.388294
0.407069
0.426286
0.445992
0.466223
0.487005
0.50836
0.530301
0.552842
0.575991
0.599756
0.624142
0.649157
0.674803
0.701084
0.728006
0.755572
0.783788
0.812663
0.842206
0.872428
0.903338
0.93495
0.967275
1.00033
1.03412
1.06867
1.104
1.14013
1.17708
1.21487
1.25354
1.2931
1.33358
1.37502
1.41743
1.46086
1.50531
1.55083
1.59743
1.64515
1.694
1.74402
1.79521
1.84761
1.90122
1.95606
2.01214
2.06947
2.12804
2.18785
2.2489
2.31118
2.37467
2.43935
2.50518
2.57215
2.64021
2.70932
2.77943
2.85049
2.92242
2.99517
3.06866
3.14281
3.21755
3.29277
3.36838
3.44428
3.52038
3.59655
3.6727
3.7487
3.82443
3.89979
3.97466
4.04892
4.12246
4.19517
4.26694
4.33767
4.40728
4.47567
4.54276
4.60848
4.67276
4.73557
4.79685
4.85657
4.91473
4.97132
5.02636
5.07988
5.13191
5.18252
5.23178
5.27976
5.32655
5.37223
5.41688
5.46054
5.50323
5.54494
5.58561
5.62515
5.66339
5.70009
5.73493
5.76754
5.79749
5.82428
5.84739
5.86629
5.8805
5.88967
5.89304
5.89037
5.88115
5.86557
5.84362
5.81537
5.78101
5.74079
5.69503
5.6441
5.58842
5.52845
5.46465
5.39753
5.32758
5.25528
5.18108
5.10543
5.02872
4.95134
4.87363
4.79588
4.71837
4.64132
4.56492
4.48933
4.41468
4.34106
4.26856
4.19723
4.12712
4.05825
3.99063
3.92428
3.85919
3.79535
3.73275
3.67138
3.61121
3.55225
3.49447
3.43786
3.38244
3.32822
3.27522
3.2235
3.17312
3.12419
3.07682
3.03113
2.98719
2.94449
2.90134
0.0853801
0.151409
0.190811
0.219255
0.242863
0.26393
0.283546
0.302322
0.320649
0.338791
0.35694
0.375235
0.393786
0.412674
0.431964
0.451708
0.471946
0.492708
0.51402
0.535904
0.558377
0.581455
0.60515
0.629474
0.654438
0.680052
0.706325
0.733265
0.760878
0.789178
0.818175
0.847884
0.878319
0.909495
0.941426
0.974128
1.00762
1.04191
1.07702
1.11297
1.14979
1.1875
1.22614
1.26574
1.30632
1.34791
1.39055
1.43427
1.47909
1.52504
1.57216
1.62047
1.67
1.72078
1.77282
1.82614
1.88078
1.93673
1.99403
2.05266
2.11264
2.17397
2.23665
2.30066
2.36599
2.43262
2.50053
2.56968
2.64004
2.71158
2.78422
2.85794
2.93265
3.0083
3.08481
3.16209
3.24007
3.31864
3.39772
3.47718
3.55693
3.63684
3.7168
3.79668
3.87635
3.95569
4.03456
4.11282
4.19035
4.26702
4.34269
4.41726
4.49059
4.56258
4.63313
4.70213
4.7695
4.83516
4.89903
4.96108
5.02124
5.07951
5.13587
5.19034
5.24295
5.29375
5.34282
5.39024
5.43613
5.48062
5.52385
5.56595
5.60703
5.64719
5.6865
5.72498
5.76265
5.79942
5.83512
5.86951
5.90228
5.933
5.9612
5.98635
6.00787
6.02525
6.03804
6.0458
6.04778
6.04362
6.03296
6.016
5.99271
5.96317
5.92757
5.88618
5.83928
5.78723
5.73045
5.6694
5.60456
5.53641
5.46546
5.39217
5.317
5.2404
5.16276
5.08445
5.00581
4.92711
4.84861
4.77052
4.69302
4.61626
4.54035
4.46538
4.39143
4.31854
4.24675
4.17609
4.10658
4.03821
3.97098
3.9049
3.83994
3.77612
3.7134
3.6518
3.59131
3.53194
3.47372
3.41668
3.36087
3.30639
3.25332
3.20181
3.15194
3.10382
3.05697
3.00998
0.0868043
0.151655
0.1913
0.220043
0.243921
0.265233
0.285068
0.30404
0.322537
0.34082
0.359076
0.377444
0.396032
0.414921
0.434178
0.453854
0.473993
0.49463
0.515795
0.537515
0.559815
0.582715
0.606234
0.63039
0.655199
0.680677
0.706839
0.733697
0.761265
0.789559
0.818598
0.8484
0.878983
0.910367
0.942571
0.975614
1.00951
1.04429
1.07995
1.11652
1.154
1.19248
1.23199
1.27255
1.3142
1.35697
1.4009
1.44601
1.49233
1.53991
1.58877
1.63893
1.69043
1.74328
1.79751
1.85313
1.91017
1.96864
2.02854
2.08989
2.15268
2.2169
2.28256
2.34964
2.41811
2.48796
2.55915
2.63165
2.70542
2.7804
2.85655
2.93379
3.01207
3.09131
3.17142
3.25233
3.33392
3.4161
3.49877
3.58181
3.66509
3.74849
3.83189
3.91513
3.99809
4.08062
4.16257
4.24379
4.32414
4.40348
4.48165
4.55852
4.63395
4.70782
4.78
4.85038
4.91885
4.98532
5.04969
5.11189
5.17188
5.2296
5.28505
5.33824
5.38918
5.43795
5.48462
5.52931
5.57215
5.61332
5.65302
5.69145
5.72879
5.76523
5.8009
5.83593
5.87049
5.90456
5.93808
5.97089
6.00274
6.03328
6.06204
6.08849
6.11205
6.13217
6.14834
6.16011
6.16696
6.16819
6.16329
6.15198
6.13441
6.11059
6.08064
6.04469
6.00296
5.95572
5.90331
5.84617
5.78475
5.71954
5.65102
5.57968
5.50601
5.43045
5.35344
5.27538
5.19662
5.11748
5.03823
4.95911
4.88031
4.80201
4.72433
4.64738
4.57126
4.49601
4.4217
4.34835
4.27598
4.20463
4.13428
4.06495
3.99664
3.92933
3.86304
3.79777
3.73351
3.6703
3.60816
3.54714
3.4873
3.42873
3.37153
3.31584
3.26177
3.20941
3.15835
3.10744
0.0875746
0.151012
0.19055
0.219307
0.243219
0.264566
0.284433
0.303431
0.321942
0.340224
0.358459
0.376785
0.395305
0.414102
0.433241
0.452776
0.472752
0.493207
0.514175
0.535689
0.557776
0.580461
0.603768
0.62772
0.65234
0.67765
0.703669
0.730417
0.757914
0.786183
0.815248
0.845133
0.875863
0.907461
0.939953
0.973363
1.00771
1.04302
1.07931
1.1166
1.15488
1.19429
1.23483
1.27655
1.31947
1.36363
1.40907
1.45582
1.50392
1.55341
1.60429
1.65661
1.71037
1.76561
1.82233
1.88056
1.9403
2.00155
2.06433
2.12864
2.19446
2.26178
2.3306
2.40088
2.47261
2.54575
2.62026
2.6961
2.77322
2.85157
2.93108
3.01169
3.09332
3.17588
3.2593
3.34347
3.4283
3.51367
3.59947
3.68558
3.77187
3.8582
3.94444
4.03044
4.11604
4.2011
4.28546
4.36895
4.45141
4.53268
4.61261
4.69104
4.76783
4.84282
4.91588
4.98687
5.05567
5.12215
5.18622
5.24779
5.30677
5.36313
5.41682
5.46784
5.51622
5.56203
5.60535
5.64631
5.68506
5.72181
5.75687
5.79047
5.82288
5.85437
5.88517
5.91534
5.94512
5.97486
6.00462
6.03437
6.06397
6.09312
6.12142
6.14836
6.17336
6.19587
6.21531
6.23116
6.24292
6.25024
6.25204
6.24738
6.23627
6.21904
6.19577
6.16641
6.13107
6.08986
6.04309
5.99112
5.93438
5.87332
5.80843
5.74018
5.66909
5.59563
5.52025
5.44337
5.36539
5.28663
5.20742
5.128
5.0486
4.9694
4.89057
4.81222
4.73445
4.65735
4.58096
4.50535
4.43055
4.35657
4.28345
4.21118
4.13979
4.06927
3.99964
3.9309
3.86308
3.7962
3.73029
3.66542
3.60165
3.53908
3.47782
3.418
3.35974
3.30316
3.24789
3.19306
0.0875406
0.14924
0.188351
0.216942
0.240743
0.261992
0.281763
0.300657
0.319052
0.337204
0.355293
0.373453
0.391786
0.410375
0.429285
0.448571
0.46828
0.488455
0.509136
0.530358
0.552156
0.574563
0.59761
0.621327
0.645746
0.670896
0.696805
0.723504
0.751023
0.779394
0.808645
0.838808
0.869907
0.901972
0.935037
0.969139
1.00432
1.04057
1.07792
1.11638
1.15593
1.19669
1.23871
1.28204
1.32671
1.37277
1.42025
1.46919
1.51963
1.57161
1.62512
1.68018
1.73681
1.79501
1.8548
1.91617
1.97912
2.04365
2.10976
2.17743
2.24664
2.31737
2.3896
2.46329
2.5384
2.6149
2.69274
2.77186
2.85222
2.93373
3.01635
3.09999
3.18456
3.27
3.3562
3.44306
3.53048
3.61835
3.70654
3.79493
3.88339
3.97178
4.05995
4.14775
4.23502
4.32161
4.40735
4.49206
4.57557
4.65771
4.73832
4.81722
4.89425
4.96926
5.04209
5.1126
5.18062
5.24602
5.30868
5.36849
5.42536
5.47922
5.53002
5.57773
5.62239
5.66407
5.70286
5.7389
5.77234
5.80334
5.83206
5.85901
5.88459
5.90918
5.93315
5.95685
5.98102
6.00571
6.031
6.05695
6.08351
6.11047
6.13747
6.16405
6.18969
6.21379
6.23578
6.25512
6.27125
6.28382
6.29254
6.29584
6.29326
6.28415
6.26933
6.24842
6.22084
6.18705
6.1473
6.10188
6.05119
5.99565
5.93568
5.87178
5.80446
5.73424
5.66156
5.58689
5.51064
5.43317
5.35483
5.27591
5.19664
5.11725
5.0379
4.95874
4.8799
4.80145
4.72349
4.64606
4.56923
4.49302
4.41747
4.3426
4.26842
4.19497
4.12225
4.05028
3.97909
3.90872
3.83922
3.77063
3.70306
3.63659
3.57135
3.50748
3.44509
3.38433
3.32487
3.26616
0.0868383
0.146024
0.184483
0.212722
0.236241
0.257231
0.276757
0.295416
0.313584
0.33151
0.349371
0.367301
0.385401
0.403755
0.422431
0.441486
0.460972
0.480937
0.501423
0.522475
0.544133
0.566437
0.589427
0.613141
0.637622
0.662908
0.689034
0.716036
0.743954
0.772831
0.802715
0.833666
0.865668
0.89876
0.932984
0.968377
1.00496
1.04267
1.08161
1.12183
1.1634
1.20637
1.25079
1.29667
1.34407
1.39301
1.44353
1.49564
1.54937
1.60473
1.66173
1.72037
1.78063
1.84252
1.90601
1.97111
2.03778
2.10602
2.17579
2.24706
2.31981
2.39399
2.46957
2.54651
2.62475
2.70424
2.78493
2.86676
2.94967
3.03359
3.11845
3.20417
3.29067
3.37787
3.46567
3.55398
3.64269
3.73168
3.82085
3.91006
3.99919
4.0881
4.17664
4.26466
4.35201
4.43852
4.52402
4.60833
4.69128
4.77269
4.85238
4.93018