/*--------------------------------*- C++ -*----------------------------------*\
| =========                 |                                                 |
| \\      /  F ield         | OpenFOAM: The Open Source CFD Toolbox           |
|  \\    /   O peration     | Version:  2312                                  |
|   \\  /    A nd           | Website:  www.openfoam.com                      |
|    \\/     M anipulation  |                                                 |
\*---------------------------------------------------------------------------*/
FoamFile
{
    version     2.0;
    format      ascii;
    arch        "LSB;label=32;scalar=64";
    class       volScalarField;
    location    "150";
    object      p;
}
// * * * * * * * * * * * * * * * * * * * * * * * * * * * * * * * * * * * * * //

dimensions      [0 2 -2 0 0 0 0];

internalField   nonuniform List<scalar> 
12225
(
498.551
496.393
495.3
494.987
494.809
494.63
494.482
494.37
494.278
494.194
494.116
494.042
493.971
493.901
493.829
493.755
493.665
493.608
495.42
494.633
494.428
494.515
494.54
494.475
494.392
494.317
494.247
494.177
494.108
494.04
493.973
493.906
493.836
493.763
493.682
493.577
495.04
495.106
494.987
494.899
494.791
494.648
494.513
494.402
494.307
494.221
494.141
494.065
493.993
493.922
493.851
493.778
493.698
493.614
495.168
495.255
494.996
494.803
494.681
494.559
494.445
494.35
494.269
494.193
494.121
494.051
493.984
493.918
493.851
493.783
493.713
493.645
495.176
495.161
494.914
494.749
494.656
494.557
494.455
494.364
494.283
494.208
494.135
494.065
493.998
493.932
493.867
493.801
493.737
493.677
495.115
495.07
494.883
494.743
494.653
494.556
494.455
494.365
494.284
494.208
494.136
494.068
494.002
493.937
493.874
493.813
493.754
493.7
495.052
495.01
494.866
494.735
494.641
494.547
494.451
494.363
494.284
494.21
494.14
494.072
494.008
493.946
493.885
493.827
493.773
493.723
494.997
494.96
494.842
494.721
494.627
494.538
494.447
494.362
494.285
494.213
494.144
494.078
494.016
493.955
493.897
493.843
493.791
493.746
494.945
494.911
494.814
494.705
494.614
494.529
494.444
494.362
494.287
494.216
494.149
494.085
494.024
493.966
493.91
493.858
493.81
493.768
494.896
494.866
494.784
494.687
494.601
494.521
494.44
494.362
494.289
494.22
494.155
494.093
494.033
493.977
493.924
493.875
493.83
493.789
494.85
494.823
494.754
494.669
494.588
494.512
494.435
494.361
494.29
494.224
494.161
494.101
494.043
493.989
493.939
493.892
493.848
493.81
494.811
494.787
494.727
494.651
494.576
494.503
494.431
494.36
494.292
494.228
494.166
494.108
494.053
494.001
493.952
493.907
493.866
493.828
494.774
494.753
494.702
494.634
494.564
494.495
494.426
494.359
494.294
494.231
494.172
494.116
494.062
494.012
493.965
493.922
493.882
493.846
494.737
494.718
494.674
494.614
494.55
494.486
494.421
494.357
494.295
494.236
494.179
494.125
494.074
494.025
493.98
493.939
493.9
493.866
494.699
494.683
494.645
494.593
494.535
494.476
494.416
494.356
494.298
494.241
494.187
494.135
494.086
494.04
493.997
493.957
493.92
493.887
494.664
494.65
494.618
494.573
494.521
494.467
494.411
494.356
494.301
494.247
494.196
494.147
494.1
494.056
494.015
493.977
493.942
493.909
494.635
494.623
494.595
494.556
494.509
494.46
494.409
494.357
494.305
494.255
494.206
494.16
494.116
494.074
494.034
493.998
493.964
493.932
494.616
494.606
494.581
494.546
494.503
494.458
494.41
494.361
494.313
494.265
494.219
494.174
494.132
494.092
494.054
494.019
493.986
493.955
494.616
494.606
494.583
494.549
494.509
494.465
494.419
494.372
494.325
494.279
494.234
494.191
494.15
494.111
494.075
494.04
494.008
493.977
494.641
494.63
494.606
494.571
494.528
494.483
494.436
494.388
494.341
494.294
494.249
494.206
494.165
494.126
494.09
494.055
494.023
493.993
494.675
494.664
494.637
494.598
494.552
494.503
494.454
494.404
494.355
494.307
494.261
494.217
494.175
494.136
494.099
494.064
494.032
494.001
494.718
494.706
494.675
494.629
494.577
494.526
494.473
494.42
494.368
494.318
494.271
494.225
494.183
494.143
494.105
494.07
494.037
494.007
494.765
494.754
494.719
494.663
494.603
494.547
494.491
494.435
494.38
494.328
494.279
494.232
494.188
494.147
494.108
494.073
494.039
494.008
494.814
494.805
494.764
494.696
494.63
494.569
494.508
494.447
494.389
494.335
494.285
494.237
494.192
494.15
494.112
494.076
494.042
494.011
494.865
494.864
494.801
494.72
494.656
494.595
494.528
494.46
494.398
494.341
494.287
494.237
494.191
494.148
494.108
494.072
494.038
494.006
494.912
494.96
494.844
494.723
494.66
494.608
494.543
494.476
494.415
494.357
494.303
494.252
494.204
494.161
494.12
494.082
494.048
494.015
494.895
495.093
494.96
494.781
494.676
494.595
494.516
494.444
494.381
494.324
494.271
494.222
494.177
494.135
494.097
494.062
494.03
493.998
494.754
495.001
495.025
494.97
494.887
494.778
494.667
494.57
494.485
494.409
494.339
494.277
494.221
494.171
494.126
494.085
494.048
494.013
495.026
494.395
494.277
494.417
494.504
494.497
494.455
494.411
494.365
494.317
494.269
494.222
494.178
494.137
494.099
494.064
494.032
494.002
498.08
496.313
495.3
495.019
494.892
494.75
494.62
494.52
494.438
494.365
494.299
494.24
494.188
494.142
494.1
494.063
494.031
494.005
493.146
493.146
493.146
493.144
493.141
493.138
493.135
493.133
493.129
493.126
493.122
493.118
493.114
493.109
493.103
493.097
493.09
493.083
493.074
493.065
493.055
493.044
493.033
493.02
493.006
492.992
492.976
492.96
492.942
492.924
492.905
492.885
492.865
492.845
492.823
492.801
492.779
492.757
492.734
492.71
492.687
492.663
492.639
492.615
492.591
492.567
492.543
492.519
492.495
492.471
492.447
492.423
492.4
492.377
492.355
492.333
492.312
492.292
492.272
492.254
492.236
492.22
492.204
492.191
492.179
492.168
492.16
492.153
492.148
492.146
492.147
492.15
492.156
492.165
492.178
492.193
492.213
492.237
492.264
492.297
492.334
492.376
492.423
492.477
492.536
492.602
492.675
492.755
492.843
492.939
493.044
493.156
493.278
493.41
493.552
493.705
493.87
494.048
494.239
494.443
494.662
494.895
495.144
495.409
495.69
495.988
496.303
496.635
496.985
497.351
497.735
498.135
498.551
498.982
499.428
499.885
500.354
500.833
501.318
501.809
502.303
502.797
503.29
503.778
504.259
504.731
505.192
505.64
506.073
506.489
506.887
507.267
507.628
507.968
508.288
508.589
508.869
509.13
509.372
509.596
509.803
509.995
510.171
510.332
510.48
510.614
510.736
510.846
510.946
511.036
511.118
511.192
511.258
511.318
511.372
511.421
511.466
511.506
511.543
511.577
511.608
511.636
511.663
511.689
511.713
511.736
511.758
511.779
511.8
511.821
511.842
511.864
511.885
511.907
511.931
511.956
511.985
512.021
512.077
512.148
493.147
493.147
493.146
493.144
493.142
493.141
493.139
493.138
493.137
493.135
493.132
493.13
493.126
493.122
493.118
493.113
493.107
493.1
493.092
493.084
493.075
493.065
493.053
493.041
493.028
493.014
492.999
492.982
492.965
492.948
492.929
492.91
492.89
492.869
492.848
492.827
492.805
492.783
492.76
492.737
492.714
492.691
492.667
492.644
492.62
492.596
492.572
492.548
492.524
492.501
492.477
492.454
492.431
492.409
492.387
492.365
492.344
492.324
492.305
492.286
492.269
492.252
492.237
492.223
492.211
492.201
492.192
492.185
492.181
492.178
492.179
492.181
492.187
492.196
492.208
492.223
492.242
492.265
492.292
492.324
492.36
492.401
492.447
492.499
492.557
492.621
492.692
492.77
492.856
492.95
493.051
493.162
493.281
493.411
493.551
493.701
493.864
494.038
494.226
494.426
494.64
494.869
495.113
495.372
495.648
495.939
496.248
496.574
496.917
497.276
497.653
498.047
498.456
498.88
499.319
499.771
500.234
500.707
501.188
501.675
502.165
502.657
503.148
503.635
504.116
504.589
505.051
505.501
505.937
506.357
506.759
507.144
507.509
507.855
508.18
508.486
508.773
509.04
509.288
509.518
509.729
509.925
510.104
510.269
510.42
510.557
510.683
510.797
510.9
510.993
511.078
511.155
511.224
511.286
511.343
511.394
511.441
511.483
511.522
511.557
511.589
511.62
511.648
511.674
511.699
511.722
511.745
511.767
511.788
511.81
511.831
511.852
511.874
511.896
511.92
511.945
511.975
512.011
512.066
512.128
493.154
493.152
493.15
493.147
493.146
493.145
493.145
493.145
493.145
493.144
493.143
493.142
493.139
493.136
493.132
493.127
493.122
493.116
493.109
493.1
493.091
493.081
493.07
493.058
493.046
493.032
493.017
493.001
492.985
492.967
492.949
492.931
492.912
492.892
492.871
492.851
492.829
492.808
492.786
492.763
492.741
492.718
492.695
492.672
492.649
492.626
492.602
492.579
492.556
492.533
492.51
492.487
492.464
492.442
492.421
492.399
492.379
492.359
492.34
492.322
492.304
492.288
492.273
492.26
492.248
492.237
492.228
492.222
492.217
492.214
492.214
492.217
492.222
492.23
492.242
492.257
492.275
492.298
492.324
492.355
492.39
492.43
492.475
492.526
492.582
492.645
492.714
492.789
492.873
492.963
493.062
493.17
493.286
493.412
493.548
493.695
493.854
494.024
494.206
494.402
494.611
494.834
495.071
495.324
495.593
495.878
496.179
496.497
496.832
497.184
497.553
497.938
498.338
498.755
499.185
499.629
500.085
500.551
501.025
501.506
501.992
502.479
502.966
503.451
503.931
504.403
504.865
505.316
505.754
506.177
506.583
506.971
507.341
507.692
508.023
508.335
508.628
508.901
509.155
509.391
509.61
509.813
509.999
510.171
510.328
510.472
510.604
510.723
510.832
510.931
511.02
511.101
511.175
511.241
511.301
511.356
511.405
511.45
511.491
511.528
511.563
511.595
511.624
511.651
511.677
511.702
511.725
511.748
511.769
511.791
511.812
511.834
511.855
511.877
511.901
511.927
511.957
511.992
512.045
512.091
493.168
493.164
493.158
493.154
493.152
493.151
493.15
493.15
493.15
493.149
493.148
493.147
493.145
493.142
493.138
493.134
493.129
493.123
493.116
493.108
493.099
493.089
493.078
493.066
493.054
493.04
493.026
493.011
492.995
492.978
492.96
492.942
492.924
492.904
492.885
492.864
492.844
492.823
492.801
492.78
492.758
492.735
492.713
492.69
492.668
492.645
492.622
492.599
492.576
492.554
492.531
492.509
492.487
492.465
492.443
492.422
492.402
492.382
492.363
492.345
492.328
492.312
492.297
492.284
492.271
492.261
492.252
492.245
492.24
492.237
492.237
492.239
492.244
492.252
492.263
492.277
492.295
492.317
492.342
492.372
492.406
492.445
492.489
492.539
492.594
492.655
492.722
492.796
492.877
492.966
493.062
493.167
493.281
493.404
493.537
493.681
493.836
494.002
494.181
494.372
494.577
494.795
495.028
495.275
495.539
495.818
496.113
496.426
496.754
497.1
497.462
497.841
498.235
498.645
499.07
499.508
499.958
500.418
500.888
501.365
501.846
502.33
502.815
503.298
503.776
504.248
504.711
505.163
505.602
506.027
506.435
506.827
507.201
507.556
507.891
508.208
508.506
508.784
509.044
509.286
509.511
509.719
509.912
510.089
510.252
510.401
510.538
510.662
510.776
510.879
510.972
511.057
511.134
511.204
511.267
511.324
511.376
511.423
511.466
511.505
511.541
511.574
511.605
511.634
511.66
511.685
511.709
511.732
511.754
511.776
511.797
511.818
511.84
511.862
511.885
511.911
511.94
511.972
512.02
512.049
493.183
493.178
493.169
493.163
493.159
493.156
493.155
493.154
493.153
493.152
493.151
493.149
493.147
493.144
493.14
493.135
493.13
493.124
493.117
493.109
493.1
493.09
493.079
493.068
493.055
493.042
493.028
493.013
492.997
492.981
492.964
492.946
492.928
492.909
492.89
492.87
492.85
492.829
492.808
492.787
492.766
492.744
492.722
492.7
492.677
492.655
492.633
492.61
492.587
492.565
492.543
492.521
492.499
492.477
492.456
492.435
492.415
492.395
492.376
492.358
492.341
492.325
492.31
492.297
492.285
492.274
492.265
492.258
492.253
492.25
492.249
492.251
492.256
492.263
492.273
492.287
492.304
492.325
492.35
492.379
492.412
492.45
492.493
492.541
492.595
492.655
492.72
492.793
492.872
492.959
493.053
493.156
493.267
493.388
493.518
493.659
493.81
493.973
494.148
494.336
494.537
494.751
494.98
495.224
495.483
495.758
496.049
496.356
496.681
497.022
497.38
497.754
498.145
498.551
498.972
499.406
499.853
500.311
500.778
501.253
501.733
502.217
502.701
503.184
503.662
504.135
504.599
505.053
505.494
505.921
506.333
506.727
507.104
507.462
507.802
508.122
508.424
508.706
508.97
509.216
509.445
509.657
509.854
510.035
510.201
510.354
510.493
510.621
510.737
510.843
510.939
511.026
511.105
511.177
511.242
511.301
511.355
511.403
511.447
511.488
511.525
511.559
511.59
511.619
511.646
511.672
511.696
511.719
511.741
511.763
511.784
511.805
511.826
511.848
511.871
511.895
511.923
511.951
511.994
512.007
493.198
493.191
493.18
493.171
493.165
493.161
493.158
493.156
493.154
493.153
493.151
493.149
493.146
493.142
493.138
493.134
493.128
493.121
493.114
493.106
493.097
493.087
493.076
493.065
493.052
493.039
493.025
493.011
492.995
492.979
492.962
492.945
492.927
492.909
492.89
492.87
492.851
492.83
492.81
492.789
492.768
492.747
492.725
492.703
492.681
492.659
492.637
492.614
492.592
492.57
492.548
492.526
492.504
492.483
492.461
492.441
492.421
492.401
492.382
492.364
492.347
492.331
492.316
492.302
492.29
492.279
492.27
492.263
492.258
492.254
492.254
492.255
492.259
492.266
492.276
492.289
492.306
492.326
492.35
492.378
492.411
492.448
492.49
492.537
492.589
492.647
492.711
492.782
492.86
492.944
493.037
493.137
493.246
493.364
493.492
493.63
493.778
493.938
494.11
494.294
494.491
494.702
494.928
495.168
495.423
495.695
495.982
496.286
496.607
496.945
497.3
497.672
498.06
498.463
498.882
499.315
499.761
500.218
500.685
501.16
501.64
502.124
502.61
503.094
503.575
504.05
504.517
504.973
505.417
505.847
506.261
506.659
507.039
507.4
507.743
508.067
508.371
508.657
508.924
509.173
509.404
509.619
509.818
510.001
510.169
510.324
510.465
510.595
510.713
510.82
510.917
511.006
511.086
511.159
511.225
511.285
511.339
511.389
511.434
511.475
511.512
511.546
511.578
511.607
511.634
511.66
511.684
511.707
511.729
511.75
511.771
511.792
511.812
511.834
511.856
511.879
511.904
511.929
511.967
511.966
493.21
493.201
493.188
493.177
493.17
493.164
493.16
493.157
493.154
493.152
493.149
493.146
493.143
493.139
493.135
493.129
493.123
493.117
493.109
493.101
493.091
493.081
493.071
493.059
493.047
493.033
493.02
493.005
492.99
492.974
492.957
492.94
492.923
492.905
492.886
492.867
492.848
492.828
492.807
492.787
492.766
492.745
492.723
492.702
492.68
492.658
492.636
492.614
492.592
492.57
492.548
492.526
492.504
492.483
492.461
492.441
492.421
492.401
492.382
492.364
492.347
492.331
492.316
492.302
492.29
492.279
492.269
492.262
492.256
492.253
492.252
492.253
492.257
492.263
492.273
492.286
492.302
492.321
492.345
492.372
492.403
492.44
492.48
492.526
492.577
492.634
492.697
492.766
492.842
492.925
493.015
493.113
493.22
493.336
493.461
493.596
493.742
493.899
494.067
494.249
494.443
494.651
494.873
495.11
495.362
495.63
495.915
496.216
496.534
496.87
497.222
497.592
497.978
498.381
498.799
499.231
499.677
500.135
500.602
501.079
501.561
502.047
502.535
503.022
503.506
503.984
504.454
504.914
505.361
505.794
506.212
506.613
506.996
507.36
507.706
508.033
508.34
508.628
508.897
509.148
509.381
509.598
509.798
509.982
510.152
510.307
510.45
510.58
510.699
510.807
510.905
510.994
511.075
511.148
511.215
511.275
511.33
511.379
511.424
511.465
511.502
511.536
511.568
511.597
511.624
511.649
511.673
511.696
511.717
511.738
511.759
511.779
511.799
511.82
511.841
511.862
511.886
511.907
511.94
511.928
493.216
493.207
493.193
493.181
493.172
493.166
493.161
493.156
493.153
493.149
493.146
493.142
493.139
493.134
493.129
493.123
493.117
493.11
493.102
493.093
493.084
493.074
493.063
493.051
493.039
493.026
493.012
492.998
492.982
492.967
492.95
492.934
492.916
492.898
492.88
492.861
492.842
492.822
492.802
492.781
492.761
492.74
492.718
492.697
492.675
492.653
492.631
492.609
492.587
492.565
492.543
492.521
492.5
492.478
492.457
492.436
492.416
492.397
492.378
492.36
492.342
492.326
492.311
492.297
492.284
492.273
492.264
492.256
492.25
492.247
492.245
492.246
492.25
492.256
492.265
492.277
492.293
492.312
492.334
492.361
492.392
492.427
492.467
492.511
492.561
492.617
492.678
492.746
492.82
492.901
492.989
493.085
493.19
493.303
493.426
493.559
493.702
493.856
494.022
494.2
494.392
494.597
494.816
495.05
495.3
495.565
495.847
496.146
496.462
496.796
497.147
497.515
497.901
498.303
498.721
499.154
499.601
500.06
500.53
501.008
501.493
501.983
502.474
502.965
503.452
503.934
504.408
504.871
505.323
505.759
506.181
506.585
506.971
507.338
507.686
508.015
508.324
508.614
508.885
509.137
509.372
509.589
509.79
509.975
510.145
510.301
510.444
510.574
510.693
510.801
510.899
510.989
511.07
511.143
511.209
511.269
511.324
511.373
511.418
511.458
511.495
511.529
511.56
511.589
511.616
511.64
511.664
511.686
511.707
511.728
511.748
511.767
511.787
511.806
511.826
511.846
511.867
511.886
511.914
511.892
493.218
493.209
493.194
493.182
493.172
493.165
493.159
493.154
493.15
493.146
493.142
493.137
493.133
493.128
493.122
493.116
493.11
493.102
493.094
493.085
493.076
493.066
493.055
493.043
493.03
493.017
493.003
492.989
492.974
492.958
492.942
492.925
492.908
492.89
492.872
492.853
492.834
492.814
492.794
492.774
492.753
492.732
492.711
492.69
492.668
492.646
492.624
492.602
492.58
492.558
492.536
492.514
492.492
492.471
492.449
492.429
492.408
492.389
492.37
492.351
492.334
492.318
492.302
492.288
492.275
492.264
492.255
492.247
492.241
492.237
492.235
492.236
492.239
492.245
492.254
492.265
492.28
492.299
492.321
492.347
492.377
492.411
492.45
492.494
492.543
492.597
492.657
492.723
492.795
492.875
492.961
493.055
493.158
493.269
493.389
493.52
493.66
493.812
493.975
494.151
494.34
494.542
494.759
494.99
495.237
495.501
495.78
496.078
496.392
496.724
497.074
497.442
497.827
498.23
498.649
499.083
499.532
499.993
500.466
500.947
501.436
501.93
502.425
502.92
503.412
503.898
504.377
504.844
505.3
505.74
506.165
506.572
506.961
507.331
507.681
508.012
508.322
508.613
508.885
509.138
509.373
509.591
509.791
509.976
510.146
510.302
510.445
510.575
510.693
510.801
510.899
510.988
511.069
511.141
511.207
511.267
511.321
511.37
511.414
511.454
511.49
511.524
511.554
511.582
511.608
511.633
511.656
511.677
511.698
511.718
511.737
511.756
511.775
511.793
511.812
511.83
511.849
511.864
511.889
511.859
493.215
493.207
493.192
493.18
493.17
493.162
493.156
493.15
493.145
493.141
493.136
493.131
493.127
493.121
493.115
493.109
493.102
493.094
493.086
493.077
493.067
493.057
493.046
493.034
493.021
493.008
492.995
492.98
492.965
492.949
492.933
492.916
492.899
492.881
492.863
492.844
492.825
492.806
492.786
492.765
492.745
492.724
492.702
492.681
492.659
492.637
492.615
492.593
492.571
492.548
492.526
492.504
492.482
492.461
492.439
492.418
492.398
492.378
492.359
492.341
492.323
492.307
492.291
492.277
492.264
492.253
492.243
492.235
492.229
492.225
492.223
492.223
492.226
492.232
492.24
492.252
492.266
492.284
492.306
492.331
492.36
492.394
492.432
492.475
492.522
492.575
492.634
492.699
492.77
492.847
492.932
493.024
493.125
493.234
493.352
493.48
493.618
493.767
493.928
494.101
494.288
494.488
494.702
494.931
495.176
495.437
495.716
496.011
496.325
496.656
497.005
497.373
497.759
498.162
498.582
499.019
499.47
499.934
500.41
500.896
501.389
501.887
502.387
502.888
503.385
503.876
504.359
504.831
505.291
505.735
506.163
506.573
506.965
507.337
507.689
508.02
508.332
508.624
508.896
509.149
509.384
509.601
509.802
509.986
510.155
510.31
510.452
510.582
510.699
510.806
510.903
510.991
511.071
511.143
511.208
511.267
511.32
511.368
511.412
511.451
511.487
511.519
511.549
511.577
511.602
511.626
511.648
511.669
511.689
511.708
511.727
511.745
511.763
511.781
511.798
511.815
511.831
511.843
511.865
511.827
493.209
493.201
493.187
493.175
493.166
493.158
493.151
493.145
493.14
493.135
493.13
493.125
493.12
493.114
493.108
493.101
493.094
493.086
493.078
493.069
493.059
493.048
493.037
493.025
493.013
493
492.986
492.971
492.956
492.941
492.924
492.908
492.89
492.872
492.854
492.835
492.816
492.796
492.776
492.756
492.735
492.714
492.693
492.671
492.649
492.627
492.605
492.582
492.56
492.538
492.515
492.493
492.471
492.449
492.428
492.407
492.386
492.366
492.347
492.328
492.311
492.294
492.279
492.264
492.251
492.24
492.23
492.222
492.216
492.212
492.21
492.21
492.213
492.218
492.227
492.238
492.252
492.269
492.291
492.315
492.344
492.377
492.414
492.456
492.503
492.554
492.612
492.675
492.745
492.821
492.904
492.994
493.093
493.2
493.316
493.441
493.577
493.724
493.883
494.054
494.238
494.435
494.647
494.875
495.118
495.377
495.654
495.949
496.261
496.592
496.942
497.31
497.696
498.101
498.523
498.962
499.416
499.884
500.364
500.854
501.352
501.855
502.361
502.867
503.369
503.866
504.354
504.831
505.294
505.743
506.174
506.587
506.981
507.354
507.707
508.04
508.352
508.644
508.916
509.169
509.403
509.619
509.819
510.002
510.17
510.324
510.465
510.593
510.709
510.815
510.911
510.998
511.076
511.147
511.211
511.269
511.321
511.368
511.411
511.449
511.484
511.516
511.545
511.571
511.596
511.619
511.641
511.661
511.68
511.699
511.717
511.734
511.751
511.768
511.784
511.799
511.814
511.823
511.841
511.798
493.199
493.192
493.18
493.169
493.16
493.152
493.146
493.14
493.135
493.129
493.124
493.119
493.113
493.108
493.101
493.094
493.087
493.079
493.07
493.061
493.051
493.041
493.029
493.017
493.005
492.992
492.978
492.963
492.948
492.932
492.916
492.899
492.882
492.864
492.845
492.826
492.807
492.787
492.767
492.746
492.726
492.704
492.683
492.661
492.639
492.616
492.594
492.571
492.549
492.526
492.504
492.481
492.459
492.437
492.415
492.394
492.374
492.353
492.334
492.316
492.298
492.281
492.266
492.252
492.239
492.227
492.218
492.21
492.203
492.199
492.197
492.198
492.2
492.206
492.214
492.225
492.239
492.256
492.277
492.301
492.329
492.361
492.398
492.439
492.485
492.536
492.592
492.654
492.722
492.796
492.878
492.966
493.063
493.168
493.282
493.406
493.54
493.684
493.841
494.01
494.191
494.387
494.597
494.823
495.064
495.322
495.598
495.891
496.203
496.534
496.884
497.253
497.64
498.047
498.471
498.913
499.37
499.842
500.327
500.822
501.325
501.834
502.346
502.857
503.366
503.868
504.361
504.843
505.31
505.762
506.196
506.612
507.007
507.382
507.736
508.069
508.381
508.672
508.943
509.195
509.428
509.643
509.841
510.023
510.19
510.342
510.481
510.608
510.723
510.827
510.921
511.007
511.084
511.154
511.216
511.273
511.324
511.369
511.411
511.448
511.482
511.513
511.541
511.567
511.591
511.613
511.634
511.653
511.672
511.69
511.707
511.724
511.74
511.755
511.77
511.784
511.796
511.803
511.818
511.77
493.188
493.182
493.171
493.162
493.153
493.146
493.14
493.134
493.129
493.124
493.119
493.113
493.108
493.102
493.095
493.088
493.081
493.073
493.064
493.055
493.045
493.034
493.023
493.011
492.998
492.984
492.97
492.956
492.941
492.925
492.908
492.891
492.874
492.856
492.837
492.818
492.799
492.779
492.758
492.737
492.716
492.695
492.673
492.651
492.629
492.606
492.583
492.561
492.538
492.515
492.492
492.47
492.447
492.425
492.404
492.382
492.362
492.342
492.322
492.304
492.286
492.27
492.254
492.24
492.227
492.216
492.207
492.199
492.193
492.189
492.187
492.187
492.19
492.196
492.204
492.215
492.229
492.246
492.266
492.29
492.318
492.35
492.386
492.426
492.471
492.521
492.576
492.637
492.703
492.777
492.856
492.943
493.038
493.142
493.254
493.375
493.507
493.65
493.804
493.971
494.151
494.344
494.553
494.776
495.016
495.273
495.548
495.841
496.152
496.483
496.833
497.203
497.592
498
498.427
498.872
499.333
499.81
500.299
500.8
501.309
501.824
502.342
502.86
503.374
503.882
504.38
504.866
505.338
505.793
506.23
506.647
507.044
507.419
507.773
508.106
508.417
508.708
508.978
509.228
509.46
509.673
509.869
510.049
510.213
510.364
510.501
510.625
510.739
510.841
510.934
511.017
511.093
511.161
511.222
511.277
511.327
511.371
511.411
511.448
511.48
511.51
511.537
511.562
511.585
511.607
511.627
511.646
511.664
511.681
511.697
511.713
511.729
511.743
511.757
511.769
511.779
511.783
511.796
511.744
493.176
493.171
493.162
493.153
493.146
493.14
493.134
493.129
493.124
493.119
493.114
493.108
493.103
493.097
493.09
493.083
493.076
493.068
493.059
493.049
493.039
493.029
493.017
493.005
492.992
492.979
492.965
492.95
492.935
492.919
492.902
492.885
492.867
492.849
492.83
492.811
492.791
492.771
492.75
492.729
492.708
492.686
492.664
492.642
492.62
492.597
492.574
492.551
492.528
492.505
492.482
492.46
492.437
492.415
492.394
492.373
492.352
492.332
492.313
492.295
492.277
492.261
492.246
492.232
492.22
492.209
492.199
492.192
492.186
492.183
492.181
492.182
492.185
492.19
492.199
492.21
492.224
492.241
492.261
492.285
492.313
492.344
492.379
492.419
492.463
492.512
492.566
492.626
492.691
492.763
492.841
492.927
493.02
493.121
493.232
493.351
493.481
493.622
493.774
493.939
494.117
494.308
494.515
494.737
494.976
495.232
495.505
495.798
496.109
496.44
496.791
497.162
497.553
497.963
498.393
498.842
499.307
499.788
500.283
500.79
501.305
501.827
502.351
502.875
503.395
503.908
504.411
504.901
505.376
505.834
506.273
506.692
507.089
507.465
507.819
508.151
508.461
508.75
509.018
509.266
509.496
509.707
509.9
510.078
510.24
510.388
510.523
510.645
510.756
510.857
510.947
511.029
511.103
511.169
511.229
511.282
511.331
511.374
511.413
511.448
511.479
511.508
511.534
511.558
511.58
511.601
511.62
511.638
511.656
511.672
511.688
511.703
511.718
511.731
511.744
511.754
511.763
511.765
511.775
511.72
493.163
493.159
493.152
493.145
493.139
493.134
493.129
493.124
493.119
493.115
493.11
493.105
493.099
493.093
493.087
493.08
493.072
493.064
493.055
493.046
493.036
493.025
493.013
493.001
492.988
492.975
492.961
492.946
492.93
492.914
492.898
492.88
492.862
492.844
492.825
492.806
492.786
492.765
492.745
492.723
492.702
492.68
492.658
492.635
492.613
492.59
492.567
492.544
492.521
492.498
492.476
492.453
492.431
492.409
492.388
492.367
492.346
492.327
492.308
492.29
492.273
492.257
492.243
492.229
492.218
492.207
492.198
492.191
492.186
492.183
492.182
492.183
492.187
492.192
492.201
492.212
492.226
492.244
492.264
492.288
492.315
492.346
492.381
492.42
492.464
492.512
492.565
492.624
492.688
492.758
492.835
492.919
493.01
493.11
493.218
493.336
493.464
493.602
493.753
493.915
494.091
494.282
494.487
494.707
494.945
495.2
495.473
495.764
496.076
496.407
496.759
497.132
497.525
497.938
498.371
498.823
499.293
499.779
500.28
500.792
501.314
501.842
502.372
502.902
503.428
503.946
504.454
504.947
505.425
505.885
506.325
506.745
507.142
507.518
507.87
508.201
508.509
508.796
509.062
509.308
509.534
509.743
509.934
510.109
510.268
510.414
510.546
510.666
510.775
510.873
510.962
511.042
511.113
511.178
511.236
511.288
511.334
511.376
511.414
511.447
511.478
511.505
511.531
511.554
511.575
511.595
511.613
511.631
511.648
511.664
511.679
511.693
511.707
511.72
511.731
511.74
511.747
511.747
511.755
511.698
493.151
493.147
493.142
493.137
493.132
493.128
493.124
493.12
493.116
493.112
493.107
493.102
493.097
493.091
493.085
493.078
493.071
493.063
493.054
493.044
493.034
493.023
493.012
493
492.987
492.973
492.959
492.944
492.929
492.912
492.896
492.878
492.86
492.842
492.823
492.803
492.783
492.763
492.742
492.721
492.699
492.677
492.655
492.633
492.61
492.588
492.565
492.542
492.519
492.497
492.474
492.452
492.43
492.409
492.388
492.368
492.348
492.329
492.311
492.293
492.277
492.262
492.248
492.236
492.224
492.215
492.207
492.2
492.196
492.193
492.193
492.195
492.199
492.205
492.214
492.226
492.24
492.257
492.278
492.301
492.329
492.359
492.394
492.432
492.475
492.523
492.575
492.632
492.695
492.764
492.839
492.922
493.011
493.109
493.216
493.332
493.458
493.595
493.743
493.904
494.078
494.267
494.47
494.69
494.926
495.18
495.452
495.744
496.056
496.388
496.741
497.115
497.511
497.927
498.363
498.819
499.294
499.785
500.291
500.809
501.336
501.87
502.407
502.942
503.473
503.995
504.507
505.004
505.484
505.945
506.386
506.805
507.202
507.576
507.927
508.255
508.561
508.846
509.109
509.352
509.575
509.781
509.969
510.141
510.297
510.44
510.57
510.687
510.793
510.889
510.976
511.054
511.124
511.186
511.243
511.293
511.338
511.378
511.415
511.447
511.476
511.503
511.527
511.549
511.57
511.589
511.607
511.624
511.64
511.656
511.67
511.684
511.697
511.709
511.719
511.727
511.732
511.73
511.736
511.677
493.139
493.137
493.133
493.129
493.126
493.123
493.12
493.117
493.114
493.11
493.106
493.102
493.097
493.092
493.086
493.079
493.072
493.064
493.055
493.046
493.036
493.025
493.014
493.001
492.989
492.975
492.961
492.946
492.931
492.915
492.898
492.881
492.863
492.844
492.825
492.806
492.786
492.766
492.745
492.724
492.703
492.681
492.659
492.637
492.615
492.593
492.57
492.548
492.526
492.504
492.482
492.461
492.44
492.419
492.399
492.379
492.36
492.342
492.325
492.309
492.293
492.279
492.266
492.254
492.244
492.235
492.228
492.223
492.219
492.217
492.217
492.22
492.224
492.231
492.241
492.253
492.267
492.285
492.305
492.329
492.356
492.386
492.42
492.458
492.5
492.547
492.598
492.654
492.716
492.784
492.858
492.938
493.026
493.122
493.227
493.341
493.466
493.601
493.747
493.906
494.079
494.266
494.468
494.686
494.921
495.175
495.447
495.738
496.05
496.383
496.737
497.113
497.511
497.93
498.37
498.83
499.308
499.804
500.315
500.839
501.372
501.912
502.453
502.994
503.529
504.056
504.57
505.069
505.551
506.013
506.454
506.872
507.267
507.64
507.988
508.314
508.617
508.899
509.158
509.398
509.618
509.82
510.005
510.174
510.327
510.467
510.594
510.709
510.813
510.906
510.99
511.066
511.134
511.195
511.249
511.298
511.342
511.381
511.415
511.447
511.475
511.501
511.524
511.545
511.565
511.583
511.601
511.617
511.633
511.648
511.662
511.675
511.688
511.699
511.708
511.715
511.718
511.715
511.718
511.658
493.129
493.128
493.125
493.123
493.121
493.119
493.117
493.115
493.113
493.11
493.107
493.104
493.099
493.094
493.089
493.082
493.075
493.068
493.059
493.05
493.041
493.03
493.019
493.007
492.995
492.982
492.968
492.953
492.938
492.922
492.906
492.889
492.872
492.853
492.835
492.816
492.796
492.777
492.756
492.736
492.715
492.694
492.672
492.651
492.629
492.608
492.586
492.565
492.543
492.522
492.501
492.481
492.46
492.441
492.421
492.403
492.385
492.368
492.352
492.336
492.322
492.309
492.296
492.286
492.276
492.268
492.262
492.257
492.254
492.253
492.254
492.257
492.262
492.27
492.279
492.292
492.307
492.324
492.345
492.368
492.395
492.425
492.458
492.496
492.537
492.583
492.633