/*--------------------------------*- C++ -*----------------------------------*\
| =========                 |                                                 |
| \\      /  F ield         | OpenFOAM: The Open Source CFD Toolbox           |
|  \\    /   O peration     | Version:  2312                                  |
|   \\  /    A nd           | Website:  www.openfoam.com                      |
|    \\/     M anipulation  |                                                 |
\*---------------------------------------------------------------------------*/
FoamFile
{
    version     2.0;
    format      ascii;
    arch        "LSB;label=32;scalar=64";
    class       volVectorField;
    location    "150";
    object      U;
}
// * * * * * * * * * * * * * * * * * * * * * * * * * * * * * * * * * * * * * //

dimensions      [0 1 -1 0 0 0 0];

internalField   nonuniform List<vector> 
12225
(
(9.84118 -0.956374 0)
(9.59255 -0.887949 0)
(9.31758 -0.594498 0)
(9.01477 -0.370019 0)
(8.72588 -0.225988 0)
(8.46729 -0.137882 0)
(8.24025 -0.0845008 0)
(8.04203 -0.0516484 0)
(7.87017 -0.0312547 0)
(7.72125 -0.0186268 0)
(7.59228 -0.0106887 0)
(7.4801 -0.00575862 0)
(7.38262 -0.00276571 0)
(7.29778 -0.00107047 0)
(7.22404 -0.000212289 0)
(7.16229 -0.000600044 0)
(7.10322 0.00231832 0)
(7.07601 -0.0176229 0)
(10.0722 0.255857 0)
(10.1867 0.418352 0)
(10.2285 0.38414 0)
(10.2296 0.3104 0)
(10.2114 0.245675 0)
(10.1794 0.195424 0)
(10.1335 0.157661 0)
(10.076 0.129647 0)
(10.0106 0.10879 0)
(9.94108 0.0930487 0)
(9.86954 0.0808611 0)
(9.79783 0.0712349 0)
(9.727 0.0634165 0)
(9.65822 0.0569331 0)
(9.59185 0.051135 0)
(9.5289 0.0464623 0)
(9.46987 0.0398648 0)
(9.41683 0.0397755 0)
(10.0032 0.0599568 0)
(10.0309 0.0482956 0)
(10.0614 0.00999539 0)
(10.0898 -8.66112e-06 0)
(10.1152 0.00814993 0)
(10.1377 0.0194001 0)
(10.1548 0.0289816 0)
(10.1658 0.036457 0)
(10.1716 0.0420058 0)
(10.1732 0.0458465 0)
(10.1713 0.048293 0)
(10.1666 0.0496384 0)
(10.1595 0.0501176 0)
(10.1507 0.0498773 0)
(10.1407 0.0489468 0)
(10.1299 0.0473295 0)
(10.1192 0.0447024 0)
(10.1074 0.0397559 0)
(9.99715 0.00991722 0)
(10.009 0.026093 0)
(10.0342 0.0382972 0)
(10.0554 0.0533785 0)
(10.0722 0.064902 0)
(10.0876 0.0702336 0)
(10.1016 0.0713759 0)
(10.1135 0.0706081 0)
(10.1238 0.0690148 0)
(10.1328 0.0670221 0)
(10.1407 0.0648282 0)
(10.1476 0.0625542 0)
(10.1536 0.0602182 0)
(10.159 0.0577965 0)
(10.1638 0.0551458 0)
(10.1682 0.0521201 0)
(10.1721 0.0482151 0)
(10.1752 0.0423452 0)
(9.99907 0.00680846 0)
(10.0082 0.0342995 0)
(10.0279 0.0483435 0)
(10.0436 0.0548774 0)
(10.0559 0.0583349 0)
(10.0679 0.0595047 0)
(10.0794 0.0592606 0)
(10.0899 0.0585023 0)
(10.0993 0.0575901 0)
(10.1079 0.056558 0)
(10.116 0.0553962 0)
(10.1236 0.0540984 0)
(10.1307 0.0526384 0)
(10.1375 0.0509561 0)
(10.144 0.0489274 0)
(10.1503 0.0463892 0)
(10.1562 0.0430044 0)
(10.1614 0.0384685 0)
(10.0002 0.00924146 0)
(10.008 0.0334037 0)
(10.0236 0.0440616 0)
(10.0369 0.0483792 0)
(10.0478 0.0518283 0)
(10.0586 0.054212 0)
(10.0691 0.0552278 0)
(10.0786 0.0553724 0)
(10.0873 0.0550376 0)
(10.0953 0.0543535 0)
(10.1029 0.0533726 0)
(10.1101 0.0521359 0)
(10.117 0.0506517 0)
(10.1236 0.0488874 0)
(10.13 0.0467535 0)
(10.1361 0.0441262 0)
(10.1419 0.0408277 0)
(10.147 0.0367397 0)
(10.0003 0.00912271 0)
(10.007 0.0287492 0)
(10.0201 0.0388758 0)
(10.0323 0.0439983 0)
(10.0426 0.0480868 0)
(10.0526 0.0508737 0)
(10.0623 0.0521 0)
(10.0713 0.052313 0)
(10.0794 0.0519756 0)
(10.0871 0.0512619 0)
(10.0943 0.0502402 0)
(10.1012 0.048954 0)
(10.1078 0.0474165 0)
(10.1141 0.0455989 0)
(10.1202 0.0434342 0)
(10.126 0.0408323 0)
(10.1313 0.037699 0)
(10.1361 0.0340015 0)
(10.0004 0.00814066 0)
(10.006 0.0246994 0)
(10.0171 0.0348613 0)
(10.0283 0.040494 0)
(10.0382 0.0445563 0)
(10.0476 0.047252 0)
(10.0567 0.0485102 0)
(10.0653 0.0488016 0)
(10.0732 0.0485382 0)
(10.0806 0.047886 0)
(10.0876 0.0469119 0)
(10.0942 0.0456565 0)
(10.1006 0.0441362 0)
(10.1067 0.0423313 0)
(10.1124 0.0401983 0)
(10.1179 0.0376814 0)
(10.1229 0.0347416 0)
(10.1274 0.0314024 0)
(10.0004 0.00720454 0)
(10.0052 0.0215035 0)
(10.0146 0.0312412 0)
(10.0248 0.0369058 0)
(10.0341 0.0407856 0)
(10.043 0.0433935 0)
(10.0517 0.0447335 0)
(10.06 0.0451475 0)
(10.0676 0.0449828 0)
(10.0748 0.0444041 0)
(10.0816 0.0434833 0)
(10.0881 0.042264 0)
(10.0943 0.0407688 0)
(10.1001 0.0389916 0)
(10.1057 0.036911 0)
(10.1109 0.0345014 0)
(10.1156 0.0317593 0)
(10.1198 0.0287377 0)
(10.0004 0.00636481 0)
(10.0045 0.0187274 0)
(10.0125 0.0277147 0)
(10.0216 0.0332373 0)
(10.0304 0.0369645 0)
(10.0388 0.0394944 0)
(10.047 0.0408849 0)
(10.0549 0.0413862 0)
(10.0624 0.041294 0)
(10.0694 0.0407727 0)
(10.076 0.0398993 0)
(10.0823 0.0387202 0)
(10.0883 0.0372636 0)
(10.094 0.0355361 0)
(10.0993 0.0335341 0)
(10.1043 0.0312557 0)
(10.1088 0.0287174 0)
(10.1128 0.0259853 0)
(10.0004 0.00557419 0)
(10.0039 0.0162278 0)
(10.0107 0.0243478 0)
(10.0189 0.0296203 0)
(10.027 0.0331746 0)
(10.0349 0.0355847 0)
(10.0427 0.0369637 0)
(10.0502 0.0375071 0)
(10.0574 0.0374619 0)
(10.0642 0.0369853 0)
(10.0706 0.0361565 0)
(10.0768 0.0350235 0)
(10.0826 0.0336192 0)
(10.088 0.0319606 0)
(10.0932 0.0300581 0)
(10.0979 0.0279256 0)
(10.1022 0.0255906 0)
(10.1062 0.0231229 0)
(10.0003 0.00486864 0)
(10.0034 0.0141247 0)
(10.0093 0.0214184 0)
(10.0167 0.0263665 0)
(10.0242 0.0297176 0)
(10.0317 0.0319809 0)
(10.039 0.0333062 0)
(10.0462 0.0338555 0)
(10.0531 0.0338342 0)
(10.0597 0.0333876 0)
(10.0659 0.0325953 0)
(10.0719 0.0315069 0)
(10.0775 0.0301585 0)
(10.0828 0.0285747 0)
(10.0877 0.0267753 0)
(10.0923 0.0247836 0)
(10.0965 0.0226313 0)
(10.1003 0.0203873 0)
(10.0003 0.00420688 0)
(10.003 0.0121971 0)
(10.0082 0.0186522 0)
(10.0148 0.0231941 0)
(10.0217 0.026303 0)
(10.0287 0.0283965 0)
(10.0357 0.0296382 0)
(10.0426 0.0301678 0)
(10.0492 0.0301546 0)
(10.0555 0.0297291 0)
(10.0615 0.0289696 0)
(10.0673 0.0279269 0)
(10.0727 0.0266393 0)
(10.0778 0.0251369 0)
(10.0825 0.0234455 0)
(10.087 0.0215941 0)
(10.091 0.0196151 0)
(10.0947 0.017576 0)
(10.0003 0.00351743 0)
(10.0026 0.0101878 0)
(10.0071 0.0156843 0)
(10.0129 0.0196815 0)
(10.0193 0.0224538 0)
(10.0258 0.0243128 0)
(10.0323 0.0254181 0)
(10.0388 0.0258897 0)
(10.0451 0.0258619 0)
(10.0511 0.0254467 0)
(10.0569 0.0247183 0)
(10.0624 0.0237271 0)
(10.0676 0.0225129 0)
(10.0725 0.0211085 0)
(10.077 0.0195439 0)
(10.0813 0.0178506 0)
(10.0851 0.0160597 0)
(10.0887 0.0142342 0)
(10.0002 0.00279658 0)
(10.0022 0.00809304 0)
(10.0061 0.0125256 0)
(10.0112 0.0158374 0)
(10.0169 0.0181604 0)
(10.0229 0.0197049 0)
(10.029 0.0206087 0)
(10.035 0.0209721 0)
(10.041 0.0208975 0)
(10.0467 0.0204757 0)
(10.0522 0.0197731 0)
(10.0574 0.0188378 0)
(10.0623 0.0177082 0)
(10.067 0.0164179 0)
(10.0714 0.0149975 0)
(10.0754 0.013478 0)
(10.0791 0.0118869 0)
(10.0826 0.0102808 0)
(10.0002 0.00204477 0)
(10.0019 0.00591606 0)
(10.0052 0.00918715 0)
(10.0097 0.0116712 0)
(10.0148 0.0134166 0)
(10.0203 0.0145495 0)
(10.0259 0.0151729 0)
(10.0315 0.0153646 0)
(10.037 0.0151991 0)
(10.0424 0.0147449 0)
(10.0476 0.0140565 0)
(10.0525 0.013176 0)
(10.0572 0.012138 0)
(10.0617 0.0109732 0)
(10.0658 0.0097095 0)
(10.0697 0.0083745 0)
(10.0733 0.00699057 0)
(10.0766 0.00560622 0)
(10.0002 0.00126069 0)
(10.0016 0.00364544 0)
(10.0045 0.00565559 0)
(10.0084 0.00717077 0)
(10.013 0.00820072 0)
(10.018 0.00880971 0)
(10.0231 0.00906152 0)
(10.0284 0.00900792 0)
(10.0335 0.00869749 0)
(10.0386 0.00817595 0)
(10.0435 0.00748253 0)
(10.0482 0.0066491 0)
(10.0526 0.0057029 0)
(10.0569 0.00466813 0)
(10.0608 0.00356719 0)
(10.0645 0.00242131 0)
(10.0679 0.0012468 0)
(10.0711 8.29426e-05 0)
(10.0002 0.000429218 0)
(10.0014 0.00123114 0)
(10.004 0.00185969 0)
(10.0075 0.00225721 0)
(10.0117 0.00242329 0)
(10.0163 0.00238102 0)
(10.0211 0.00215616 0)
(10.026 0.00177208 0)
(10.0309 0.00125212 0)
(10.0357 0.000618963 0)
(10.0403 -0.000107162 0)
(10.0448 -0.000908669 0)
(10.049 -0.00176978 0)
(10.0531 -0.00267575 0)
(10.0569 -0.00361282 0)
(10.0604 -0.00456753 0)
(10.0637 -0.00553072 0)
(10.0668 -0.00647237 0)
(10.0001 -0.000492092 0)
(10.0014 -0.0014486 0)
(10.0037 -0.00237624 0)
(10.0071 -0.00326726 0)
(10.0112 -0.00411727 0)
(10.0156 -0.0049373 0)
(10.0202 -0.00574166 0)
(10.0249 -0.00653829 0)
(10.0296 -0.00732985 0)
(10.0343 -0.00811851 0)
(10.0388 -0.00890598 0)
(10.0431 -0.00969301 0)
(10.0472 -0.0104786 0)
(10.0511 -0.0112609 0)
(10.0548 -0.0120372 0)
(10.0583 -0.0128036 0)
(10.0616 -0.013559 0)
(10.0646 -0.0142839 0)
(10.0002 -0.00136369 0)
(10.0014 -0.00399431 0)
(10.0039 -0.00641258 0)
(10.0075 -0.00852963 0)
(10.0117 -0.0103325 0)
(10.0162 -0.0118758 0)
(10.021 -0.0132159 0)
(10.0258 -0.0143877 0)
(10.0305 -0.0154196 0)
(10.0352 -0.0163406 0)
(10.0397 -0.0171761 0)
(10.0441 -0.0179441 0)
(10.0482 -0.0186577 0)
(10.0521 -0.0193266 0)
(10.0558 -0.0199583 0)
(10.0593 -0.0205573 0)
(10.0625 -0.0211289 0)
(10.0656 -0.0216619 0)
(10.0002 -0.002102 0)
(10.0016 -0.00618603 0)
(10.0043 -0.00990423 0)
(10.0083 -0.0130251 0)
(10.0128 -0.0155552 0)
(10.0177 -0.0176445 0)
(10.0227 -0.0193915 0)
(10.0277 -0.0208363 0)
(10.0326 -0.0220241 0)
(10.0374 -0.0230125 0)
(10.0421 -0.0238509 0)
(10.0465 -0.0245736 0)
(10.0507 -0.0252061 0)
(10.0547 -0.025768 0)
(10.0584 -0.0262748 0)
(10.0619 -0.0267372 0)
(10.0652 -0.0271645 0)
(10.0683 -0.0275521 0)
(10.0002 -0.0027842 0)
(10.0017 -0.00831532 0)
(10.0049 -0.0133636 0)
(10.0094 -0.0173975 0)
(10.0145 -0.0204978 0)
(10.0197 -0.0229965 0)
(10.025 -0.0250471 0)
(10.0304 -0.02669 0)
(10.0356 -0.0279859 0)
(10.0406 -0.0290133 0)
(10.0454 -0.0298343 0)
(10.05 -0.0304941 0)
(10.0543 -0.0310289 0)
(10.0583 -0.0314694 0)
(10.0621 -0.0318389 0)
(10.0656 -0.0321544 0)
(10.069 -0.0324283 0)
(10.072 -0.0326597 0)
(10.0001 -0.00339107 0)
(10.0017 -0.0104202 0)
(10.0055 -0.0168078 0)
(10.0109 -0.0216671 0)
(10.0166 -0.0253076 0)
(10.0222 -0.0281851 0)
(10.0279 -0.0304273 0)
(10.0336 -0.0321188 0)
(10.0391 -0.0334035 0)
(10.0444 -0.0343995 0)
(10.0493 -0.035172 0)
(10.054 -0.0357655 0)
(10.0585 -0.0362204 0)
(10.0626 -0.0365721 0)
(10.0665 -0.036847 0)
(10.0701 -0.0370635 0)
(10.0735 -0.0372366 0)
(10.0766 -0.0373709 0)
(10.0001 -0.00387824 0)
(10.0016 -0.0129081 0)
(10.0061 -0.0203492 0)
(10.0124 -0.0254249 0)
(10.0188 -0.0294963 0)
(10.025 -0.0329737 0)
(10.0311 -0.0355891 0)
(10.0372 -0.0373729 0)
(10.0429 -0.0385904 0)
(10.0484 -0.0394427 0)
(10.0536 -0.0400276 0)
(10.0584 -0.0404103 0)
(10.063 -0.0406494 0)
(10.0672 -0.0407929 0)
(10.0712 -0.0408731 0)
(10.0749 -0.0409118 0)
(10.0783 -0.0409221 0)
(10.0815 -0.0409003 0)
(9.9998 -0.00355424 0)
(10.0011 -0.0165634 0)
(10.0069 -0.0255435 0)
(10.0141 -0.0297273 0)
(10.0207 -0.0330592 0)
(10.0272 -0.0365253 0)
(10.0341 -0.0394689 0)
(10.0408 -0.041658 0)
(10.0471 -0.0432521 0)
(10.053 -0.0443983 0)
(10.0585 -0.0451769 0)
(10.0637 -0.0456626 0)
(10.0685 -0.0459321 0)
(10.073 -0.0460499 0)
(10.0771 -0.0460635 0)
(10.081 -0.0460063 0)
(10.0846 -0.0459038 0)
(10.088 -0.0457657 0)
(9.99829 -3.55965e-06 0)
(9.99797 -0.0176293 0)
(10.0068 -0.0315202 0)
(10.0162 -0.0376128 0)
(10.0233 -0.0403184 0)
(10.0302 -0.0418785 0)
(10.0378 -0.0428436 0)
(10.0454 -0.0435479 0)
(10.0525 -0.0441585 0)
(10.0592 -0.0446829 0)
(10.0654 -0.0450882 0)
(10.0713 -0.0453863 0)
(10.0767 -0.0455989 0)
(10.0817 -0.0457534 0)
(10.0863 -0.0458645 0)
(10.0906 -0.0459485 0)
(10.0945 -0.0460107 0)
(10.0981 -0.0460185 0)
(9.99413 0.00277382 0)
(9.98996 -0.00760747 0)
(10.0032 -0.0228716 0)
(10.0185 -0.0396976 0)
(10.0302 -0.0530949 0)
(10.0403 -0.0608728 0)
(10.05 -0.0644158 0)
(10.0592 -0.0656708 0)
(10.0676 -0.0657661 0)
(10.0754 -0.0651492 0)
(10.0827 -0.0641028 0)
(10.0894 -0.0628169 0)
(10.0956 -0.0614542 0)
(10.1012 -0.0600948 0)
(10.1063 -0.0588038 0)
(10.1109 -0.0576106 0)
(10.1151 -0.0565411 0)
(10.119 -0.0555476 0)
(9.9942 -0.0305092 0)
(9.99525 -0.0134625 0)
(10.0085 0.0215101 0)
(10.0272 0.0320037 0)
(10.0469 0.0241242 0)
(10.0667 0.0115767 0)
(10.0849 -0.000146896 0)
(10.1006 -0.0103686 0)
(10.1138 -0.0190147 0)
(10.1249 -0.0260941 0)
(10.1341 -0.0317017 0)
(10.1415 -0.0360806 0)
(10.1473 -0.0394617 0)
(10.1516 -0.0420627 0)
(10.1546 -0.0440466 0)
(10.1564 -0.0455829 0)
(10.1574 -0.046801 0)
(10.1573 -0.047846 0)
(10.0368 -0.209414 0)
(10.1083 -0.365902 0)
(10.1423 -0.352753 0)
(10.1567 -0.298044 0)
(10.1696 -0.247635 0)
(10.1819 -0.206807 0)
(10.1884 -0.174374 0)
(10.1866 -0.149015 0)
(10.1773 -0.129302 0)
(10.1618 -0.113783 0)
(10.1412 -0.101391 0)
(10.1166 -0.0913664 0)
(10.0891 -0.083178 0)
(10.0594 -0.0764204 0)
(10.0284 -0.0708128 0)
(9.99644 -0.0661751 0)
(9.96416 -0.0623573 0)
(9.93221 -0.0596601 0)
(9.92866 0.765531 0)
(9.83923 0.742067 0)
(9.7053 0.524426 0)
(9.52629 0.348776 0)
(9.33176 0.22768 0)
(9.14048 0.146973 0)
(8.95862 0.0935676 0)
(8.78865 0.0579714 0)
(8.63199 0.0341045 0)
(8.48925 0.0180853 0)
(8.3598 0.00741832 0)
(8.24285 0.000438475 0)
(8.13721 -0.00411129 0)
(8.04181 -0.00696684 0)
(7.95556 -0.00864678 0)
(7.87747 -0.00958682 0)
(7.80618 -0.010071 0)
(7.74133 -0.0106846 0)
(0.00961096 -0.0203058 4.75633e-17)
(0.0282585 -0.0312684 -3.48117e-17)
(0.0461059 -0.0297447 0)
(0.0601275 -0.0221941 0)
(0.067852 -0.0123072 0)
(0.068886 -0.0023188 2.19697e-17)
(0.0637678 0.0063175 0)
(0.054073 0.0129251 0)
(0.040916 0.0175927 0)
(0.0252085 0.0207952 0)
(0.00764702 0.0229529 -2.55555e-17)
(-0.0112935 0.0241984 0)
(-0.0314546 0.024853 0)
(-0.0528192 0.0254011 0)
(-0.0753637 0.0260461 0)
(-0.099119 0.0268366 -1.62246e-17)
(-0.124125 0.0277523 0)
(-0.150405 0.0287568 0)
(-0.17796 0.0298034 0)
(-0.206765 0.0308513 0)
(-0.236764 0.0318591 0)
(-0.267884 0.0327959 0)
(-0.300035 0.0336324 0)
(-0.333113 0.0343509 -8.63193e-18)
(-0.367008 0.0349312 8.09514e-18)
(-0.401603 0.0353645 -7.6141e-18)
(-0.436778 0.0356515 -7.18233e-18)
(-0.472416 0.0358042 0)
(-0.508408 0.0358366 0)
(-0.544648 0.0357731 6.12495e-18)
(-0.581034 0.0356537 5.8349e-18)
(-0.617567 0.0354998 0)
(-0.654206 0.0353046 0)
(-0.690912 0.0350795 5.10685e-18)
(-0.727658 0.0348278 0)
(-0.764424 0.0345586 0)
(-0.801199 0.0342782 -4.54191e-18)
(-0.837975 0.0339969 0)
(-0.87475 0.0337204 -4.23118e-18)
(-0.911527 0.0334518 -8.18281e-18)
(-0.948308 0.0331922 0)
(-0.985101 0.0329451 0)
(-1.02191 0.0327109 0)
(-1.05875 0.0324908 0)
(-1.09562 0.0322824 0)
(-1.13253 0.0320832 -6.82949e-18)
(-1.16949 0.0318878 -6.64582e-18)
(-1.2065 0.0316978 -6.47156e-18)
(-1.24357 0.0315125 0)
(-1.28069 0.0313319 6.1486e-18)
(-1.31787 0.031154 0)
(-1.35511 0.0309782 -5.85559e-18)
(-1.39241 0.0308028 -5.71906e-18)
(-1.42976 0.030627 0)
(-1.46715 0.0304486 0)
(-1.50459 0.030266 0)
(-1.54204 0.030078 -5.22975e-18)
(-1.57952 0.0298834 0)
(-1.61699 0.029681 0)
(-1.65445 0.029469 0)
(-1.69187 0.0292478 0)
(-1.72925 0.0290157 0)
(-1.76655 0.0287728 0)
(-1.80376 0.0285171 0)
(-1.84085 0.0282495 0)
(-1.87781 0.027968 4.38604e-18)
(-1.9146 0.0276743 0)
(-1.95121 0.0273666 0)
(-1.9876 0.027047 -4.16551e-18)
(-2.02374 0.0267131 -4.09754e-18)
(-2.05962 0.0263678 0)
(-2.0952 0.0260084 3.96932e-18)
(-2.13046 0.0256385 -3.9089e-18)
(-2.16535 0.0252559 0)
(-2.19987 0.0248662 3.7949e-18)
(-2.23396 0.0244675 0)
(-2.2676 0.0240666 0)
(-2.30074 0.0236606 -3.64005e-18)
(-2.33334 0.0232518 0)
(-2.36536 0.0228297 3.54694e-18)
(-2.39674 0.0223936 0)
(-2.42746 0.0219321 -3.46145e-18)
(-2.45743 0.0214427 -3.42149e-18)
(-2.48663 0.0209079 -3.3833e-18)
(-2.51498 0.0203233 -6.69383e-18)
(-2.54241 0.0196699 6.62454e-18)
(-2.56884 0.0189438 0)
(-2.59418 0.0181283 0)
(-2.61834 0.0172227 0)
(-2.6412 0.0162265 6.38323e-18)
(-2.66268 0.0151373 6.332e-18)
(-2.68266 0.013968 -6.28455e-18)
(-2.70099 0.012726 0)
(-2.71749 0.0114235 6.20174e-18)
(-2.73197 0.0100603 6.16691e-18)
(-2.74418 0.00863558 6.13695e-18)
(-2.75389 0.00714503 0)
(-2.76084 0.00560193 0)
(-2.76477 0.00408366 0)
(-2.76597 0.00263509 6.06273e-18)
(-2.76451 0.00118663 0)
(-2.76027 -0.000321792 0)
(-2.75312 -0.00191213 -6.0498e-18)
(-2.74292 -0.00359835 0)
(-2.72951 -0.00538309 0)
(-2.71271 -0.00727702 -6.08328e-18)
(-2.69237 -0.00927877 0)
(-2.66834 -0.0113991 0)
(-2.64046 -0.0136348 6.17227e-18)
(-2.60862 -0.0159943 6.21622e-18)
(-2.57268 -0.018471 0)
(-2.53254 -0.0210687 -6.32871e-18)
(-2.48812 -0.0237763 0)
(-2.43936 -0.026591 6.47817e-18)
(-2.3862 -0.0294976 0)
(-2.32865 -0.0324845 6.67046e-18)
(-2.2667 -0.0355331 6.78453e-18)
(-2.20042 -0.0385925 0)
(-2.12988 -0.0416787 0)
(-2.05515 -0.044753 0)
(-1.97643 -0.0477405 0)
(-1.8939 -0.050677 0)
(-1.80776 -0.0535084 0)
(-1.71836 -0.0561829 0)
(-1.62595 -0.0587072 8.29795e-18)
(-1.53089 -0.0610287 -8.58657e-18)
(-1.43354 -0.0631275 0)
(-1.3343 -0.0649773 0)
(-1.23359 -0.0665812 0)
(-1.13182 -0.0679125 0)
(-1.02942 -0.0689755 -2.10501e-17)
(-0.92681 -0.0697586 0)
(-0.824401 -0.0702783 2.31987e-17)
(-0.722592 -0.0705316 -2.44383e-17)
(-0.621751 -0.0705432 0)
(-0.522228 -0.0703171 0)
(-0.424332 -0.0699 0)
(-0.328365 -0.0692743 3.08129e-17)
(-0.234556 -0.0684533 3.28508e-17)
(-0.143142 -0.0674589 0)
(-0.0539526 -0.0660551 3.69589e-17)
(0.0340009 -0.0636405 3.64961e-17)
(0.11998 -0.060368 -3.4562e-17)
(0.202384 -0.0568125 0)
(0.281131 -0.053295 0)
(0.356049 -0.0498914 -3.03019e-17)
(0.427106 -0.0466282 0)
(0.494339 -0.0435145 0)
(0.55782 -0.0405522 0)
(0.617641 -0.0377396 0)
(0.673907 -0.0350736 2.62117e-17)
(0.726737 -0.03255 2.5662e-17)
(0.776256 -0.0301649 0)
(0.822599 -0.0279144 2.47405e-17)
(0.865905 -0.0257945 0)
(0.90632 -0.0238014 0)
(0.943992 -0.0219316 2.37005e-17)
(0.979075 -0.020182 0)
(1.01173 -0.018549 2.31757e-17)
(1.04211 -0.0170293 0)
(1.07038 -0.0156206 0)
(1.09672 -0.0143212 2.25661e-17)
(1.12128 -0.0131274 0)
(1.14423 -0.012035 2.22451e-17)
(1.16576 -0.0110398 0)
(1.18603 -0.0101384 0)
(1.2052 -0.00932825 0)
(1.22344 -0.00860557 -2.17198e-17)
(1.2409 -0.0079645 0)
(1.25773 -0.00739781 2.14885e-17)
(1.27405 -0.00689479 0)
(1.28996 -0.00644126 0)
(1.30551 -0.00601383 0)
(1.32065 -0.00557557 0)
(1.33525 -0.00505653 0)
(1.34864 -0.00432124 0)
(1.36029 -0.00305546 0)
(1.36527 -0.00023826 -4.1622e-17)
(1.36572 0.00603415 0)
(1.30599 0.0207764 0)
(0.00982279 -0.0593412 -9.98625e-17)
(0.0200155 -0.0583474 5.11638e-17)
(0.0221255 -0.0411996 0)
(0.019799 -0.0224999 -1.6456e-17)
(0.0139135 -0.00435762 0)
(0.00508025 0.0121763 -6.71111e-18)
(-0.00635205 0.0263438 1.27201e-17)
(-0.0204669 0.0378348 1.21088e-17)
(-0.0372198 0.0468142 0)
(-0.0565207 0.0537164 1.11219e-17)
(-0.0782248 0.0590522 5.33446e-18)
(-0.102068 0.063294 0)
(-0.127718 0.0668532 0)
(-0.154934 0.0700504 0)
(-0.18356 0.0730746 0)
(-0.213453 0.0760063 4.33283e-18)
(-0.244483 0.0788494 0)
(-0.276527 0.0815701 -7.97413e-18)
(-0.309469 0.0841166 0)
(-0.343193 0.0864391 0)
(-0.377583 0.0884943 7.05612e-18)
(-0.412525 0.0902559 0)
(-0.447909 0.0917087 -6.52247e-18)
(-0.48363 0.0928482 3.13888e-18)
(-0.519594 0.0936718 -3.02387e-18)
(-0.55572 0.0941835 2.91602e-18)
(-0.59194 0.0944025 2.81505e-18)
(-0.628201 0.0943639 0)
(-0.664458 0.094108 0)
(-0.700679 0.0936815 -2.54984e-18)
(-0.736833 0.0931315 2.47277e-18)
(-0.772898 0.0924936 0)
(-0.808851 0.091787 0)
(-0.844683 0.0910319 -2.2682e-18)
(-0.880391 0.0902442 0)
(-0.915977 0.0894395 0)
(-0.951447 0.0886286 2.09827e-18)
(-0.986809 0.0878221 0)
(-1.02207 0.087027 -2.00043e-18)
(-1.05723 0.08625 3.90966e-18)
(-1.09231 0.0854929 0)
(-1.12731 0.0847594 0)
(-1.16223 0.0840495 7.32287e-18)
(-1.1971 0.0833634 7.17087e-18)
(-1.2319 0.0826986 7.02456e-18)
(-1.26664 0.0820539 -3.44195e-18)
(-1.30134 0.0814251 3.3738e-18)
(-1.336 0.0808092 9.9263e-18)
(-1.37061 0.0802022 -6.49225e-18)
(-1.40518 0.0796011 -3.18554e-18)
(-1.43971 0.0790016 0)
(-1.47419 0.0784002 3.07105e-18)
(-1.50861 0.0777934 -3.01709e-18)
(-1.54296 0.0771778 0)
(-1.57724 0.0765496 0)
(-1.61143 0.0759053 0)
(-1.64552 0.0752419 2.81668e-18)
(-1.67949 0.0745564 0)
(-1.71332 0.0738465 -5.4521e-18)
(-1.747 0.0731089 0)
(-1.78052 0.0723427 -5.28149e-18)
(-1.81384 0.0715456 0)
(-1.84695 0.0707169 5.12109e-18)
(-1.87982 0.0698535 0)
(-1.91244 0.0689556 -4.97021e-18)
(-1.94477 0.0680204 2.44923e-18)
(-1.9768 0.0670492 0)
(-2.00851 0.0660396 4.76049e-18)
(-2.03985 0.0649935 2.34723e-18)
(-2.07081 0.0639082 2.31536e-18)
(-2.10136 0.0627855 0)
(-2.13147 0.0616216 2.25478e-18)
(-2.16111 0.0604174 2.22545e-18)
(-2.19024 0.0591677 0)
(-2.21883 0.0578735 -2.17e-18)
(-2.24685 0.0565286 4.28737e-18)
(-2.27426 0.0551364 0)
(-2.30101 0.0536927 2.09311e-18)
(-2.32708 0.0522018 0)
(-2.35241 0.0506572 -6.13765e-18)
(-2.37695 0.0490624 0)
(-2.40067 0.0474094 6.00463e-18)
(-2.4235 0.0456999 1.98036e-18)
(-2.44538 0.0439221 -1.96018e-18)
(-2.46626 0.0420769 -3.88087e-18)
(-2.48607 0.0401497 3.8427e-18)
(-2.50473 0.0381368 0)
(-2.52215 0.0360172 0)
(-2.53824 0.0337807 0)
(-2.55292 0.0314084 -1.11076e-17)
(-2.56612 0.0288819 -3.67052e-18)
(-2.57775 0.0261875 3.63987e-18)
(-2.58774 0.0233115 0)
(-2.59602 0.0202502 3.58251e-18)
(-2.60251 0.0169958 -3.55539e-18)
(-2.60721 0.0135566 -3.52995e-18)
(-2.61011 0.00995431 0)
(-2.61125 0.0062468 0)
(-2.61064 0.00251224 0)
(-2.60789 -0.00123258 -3.43732e-18)
(-2.60261 -0.00505636 0)
(-2.59463 -0.00900296 6.79371e-18)
(-2.58377 -0.0130905 1.01359e-17)
(-2.56987 -0.0173244 -6.72377e-18)
(-2.55277 -0.0216984 0)
(-2.5323 -0.0262097 -3.33294e-18)
(-2.50831 -0.0308445 0)
(-2.48064 -0.0355978 -6.62155e-18)
(-2.44916 -0.0404513 3.30226e-18)
(-2.41373 -0.0453958 3.29582e-18)
(-2.37423 -0.050407 0)
(-2.33055 -0.0554691 9.86904e-18)
(-2.28262 -0.0605513 -6.57964e-18)
(-2.23036 -0.0656305 -3.29296e-18)
(-2.17374 -0.0706701 0)
(-2.11276 -0.0756428 -3.3065e-18)
(-2.04742 -0.080513 -9.95072e-18)
(-1.9778 -0.0852606 0)
(-1.904 -0.0898398 -6.69387e-18)
(-1.82614 -0.0942116 -6.7332e-18)
(-1.74441 -0.0982984 -6.78305e-18)
(-1.65901 -0.102021 0)
(-1.57019 -0.105414 0)
(-1.4783 -0.108458 0)
(-1.38366 -0.111091 3.52745e-18)
(-1.28665 -0.113278 3.57444e-18)
(-1.18766 -0.115005 0)
(-1.08713 -0.116253 7.34923e-18)
(-0.985496 -0.117021 7.46389e-18)
(-0.883191 -0.117301 0)
(-0.780658 -0.117112 7.72302e-18)
(-0.678327 -0.116461 1.57224e-17)
(-0.576612 -0.115385 -8.01433e-18)
(-0.475906 -0.113903 -8.16646e-18)
(-0.376573 -0.112063 0)
(-0.278953 -0.109888 0)
(-0.183325 -0.107424 0)
(-0.0899865 -0.104719 -8.88641e-18)
(0.00121706 -0.10199 8.94194e-18)
(0.0899386 -0.0992988 1.77342e-17)
(0.175508 -0.0963342 -8.79598e-18)
(0.257457 -0.0925814 8.73744e-18)
(0.335674 -0.0880402 8.70353e-18)
(0.410424 -0.0831942 0)
(0.481874 -0.0783166 0)
(0.549996 -0.0735191 -8.6312e-18)
(0.614772 -0.0688551 0)
(0.676217 -0.0643567 0)
(0.734373 -0.0600386 1.72195e-17)
(0.789299 -0.0559124 0)
(0.841073 -0.0519816 8.60927e-18)
(0.889789 -0.0482507 -8.61631e-18)
(0.935553 -0.0447198 0)
(0.978479 -0.0413895 8.62826e-18)
(1.01869 -0.038258 0)
(1.05633 -0.0353245 0)
(1.09152 -0.0325866 -8.66223e-18)
(1.12442 -0.0300426 1.73473e-17)
(1.15518 -0.0276897 -8.68717e-18)
(1.18395 -0.0255251 0)
(1.21089 -0.023546 0)
(1.23617 -0.0217493 8.72424e-18)
(1.25995 -0.0201318 0)
(1.28239 -0.0186883 8.74777e-18)
(1.30367 -0.0174151 0)
(1.32395 -0.0163057 0)
(1.34339 -0.0153534 0)
(1.36215 -0.0145474 8.7797e-18)
(1.38039 -0.0138768 0)
(1.39825 -0.0133255 -8.78536e-18)
(1.41584 -0.0128731 0)
(1.43325 -0.0124873 0)
(1.45055 -0.0121208 1.75607e-17)
(1.4677 -0.011694 -1.75527e-17)
(1.48458 -0.0110629 0)
(1.50072 -0.00995323 0)
(1.51575 -0.00770552 0)
(1.52678 -0.00289374 5.28014e-17)
(1.53837 0.00827553 0)
(1.53106 0.0327193 -3.58512e-17)
(0.000705166 -0.0761803 -1.11801e-21)
(-0.00127145 -0.0545214 -5.00647e-17)
(-0.00897809 -0.0277457 0)
(-0.0195726 -0.00324559 2.08502e-17)
(-0.032154 0.018863 0)
(-0.0462494 0.0386456 0)
(-0.0617514 0.0560565 6.89036e-23)
(-0.0787479 0.0710436 -6.51213e-18)
(-0.0973641 0.0836811 -6.20902e-18)
(-0.117689 0.0942072 -5.9646e-18)
(-0.13974 0.102971 0)
(-0.16345 0.110361 0)
(-0.188682 0.116729 5.37733e-18)
(-0.215268 0.122345 1.04048e-17)
(-0.243032 0.127394 -1.00662e-17)
(-0.271795 0.131981 0)
(-0.301392 0.136148 -9.41929e-18)
(-0.331674 0.139897 4.55575e-18)
(-0.362511 0.143211 0)
(-0.393789 0.146066 -8.53098e-18)
(-0.425413 0.148445 -4.12935e-18)
(-0.457298 0.150338 7.99868e-18)
(-0.489371 0.151745 3.87459e-18)
(-0.521567 0.152683 0)
(-0.553829 0.15318 -7.28005e-18)
(-0.586117 0.153275 -7.06143e-18)
(-0.61841 0.153014 0)
(-0.650691 0.152447 -6.65961e-18)
(-0.682946 0.151628 0)
(-0.715165 0.150609 -6.30219e-18)
(-0.747337 0.149439 -3.06918e-18)
(-0.779452 0.148159 0)
(-0.811504 0.146802 0)
(-0.843489 0.145398 0)
(-0.875407 0.14397 0)
(-0.907259 0.142537 0)
(-0.939049 0.141115 0)
(-0.970781 0.139714 -5.2146e-18)
(-1.00246 0.138342 7.66099e-18)
(-1.03409 0.137003 0)
(-1.06567 0.135702 0)
(-1.09722 0.134438 0)
(-1.12873 0.133212 1.93729e-22)
(-1.16021 0.13202 -4.63559e-18)
(-1.19166 0.130859 -9.10381e-18)
(-1.22309 0.129725 8.94206e-18)
(-1.25449 0.128615 4.39303e-18)
(-1.28586 0.127522 -4.31734e-18)
(-1.3172 0.126441 -1.99254e-22)
(-1.34852 0.125365 -4.17375e-18)
(-1.37979 0.124288 0)
(-1.41103 0.123203 -4.03858e-18)
(-1.44221 0.122106 -1.99641e-22)
(-1.47334 0.12099 0)
(-1.50439 0.11985 0)
(-1.53536 0.118682 3.79059e-18)
(-1.56623 0.11748 0)
(-1.59699 0.116241 0)
(-1.62763 0.114961 -3.62174e-18)
(-1.65811 0.113637 -7.13619e-18)
(-1.68843 0.112266 3.51583e-18)
(-1.71857 0.110846 0)
(-1.7485 0.109374 -3.41564e-18)
(-1.77821 0.107849 0)
(-1.80768 0.106268 -3.32087e-18)
(-1.83687 0.104631 -3.27474e-18)
(-1.86577 0.102937 6.46068e-18)
(-1.89436 0.101183 3.18708e-18)
(-1.9226 0.0993712 0)
(-1.95047 0.0974987 -6.2067e-18)
(-1.97795 0.0955654 0)
(-2.00501 0.093569 -9.07209e-18)
(-2.03161 0.0915086 -5.972e-18)
(-2.05774 0.0893804 -5.89783e-18)
(-2.08335 0.0871829 5.82562e-18)
(-2.10841 0.0849117 -8.63281e-18)
(-2.1329 0.0825655 0)
(-2.15677 0.0801395 0)
(-2.17998 0.0776315 5.55542e-18)
(-2.20249 0.0750355 8.23834e-18)
(-2.22427 0.072349 0)
(-2.24526 0.0695647 -2.68543e-18)
(-2.26542 0.0666782 0)
(-2.2847 0.0636801 7.88436e-18)
(-2.30304 0.0605649 -2.61302e-22)
(-2.32038 0.057321 2.56228e-22)
(-2.33666 0.0539404 -5.09536e-18)
(-2.3518 0.0504084 0)
(-2.36574 0.0467136 4.99511e-18)
(-2.3784 0.0428415 -2.21542e-22)
(-2.38972 0.0387794 0)
(-2.39964 0.0345179 0)
(-2.40808 0.0300553 0)
(-2.41496 0.0253929 -4.76769e-18)
(-2.42021 0.0205373 0)
(-2.42374 0.0154954 0)
(-2.42545 0.010273 0)
(-2.42521 0.00486667 0)
(-2.42286 -0.000753052 0)
(-2.41821 -0.00660901 -4.52933e-18)
(-2.41108 -0.0127031 0)
(-2.40132 -0.019034 -4.45574e-18)
(-2.38875 -0.0256025 -4.42088e-18)
(-2.37322 -0.0324019 4.38736e-18)
(-2.35457 -0.0394247 0)
(-2.33263 -0.0466561 4.32458e-18)
(-2.30726 -0.0540815 0)
(-2.2783 -0.0616806 4.268e-18)
(-2.24562 -0.0694315 -4.24226e-18)
(-2.20909 -0.0773056 -1.26544e-17)
(-2.16858 -0.0852708 0)
(-2.124 -0.0932882 -1.25288e-17)
(-2.07527 -0.101314 -4.15793e-18)
(-2.02233 -0.109299 0)
(-1.96515 -0.117187 -8.26054e-18)
(-1.90373 -0.124922 -8.24012e-18)
(-1.83809 -0.132442 1.23384e-17)
(-1.76832 -0.13969 0)
(-1.69453 -0.146601 4.10683e-18)
(-1.61686 -0.153118 4.10749e-18)
(-1.53553 -0.159144 1.23384e-17)
(-1.45071 -0.164566 0)
(-1.36272 -0.169363 0)
(-1.27188 -0.173527 0)
(-1.17856 -0.176983 4.16981e-18)
(-1.08312 -0.179683 0)
(-0.985987 -0.1816 0)
(-0.887582 -0.182719 -4.25584e-18)
(-0.788342 -0.18304 -4.29108e-18)
(-0.688703 -0.182573 0)
(-0.589098 -0.181346 0)
(-0.489943 -0.179395 -8.83779e-18)
(-0.391636 -0.17677 0)
(-0.294553 -0.173525 9.04251e-18)
(-0.199032 -0.169723 9.15042e-18)
(-0.105388 -0.165433 0)
(-0.0137871 -0.160787 0)
(0.0754784 -0.155871 -9.31428e-18)
(0.162027 -0.150643 -3.45309e-21)
(0.245565 -0.145092 -3.32565e-21)
(0.325899 -0.139271 0)
(0.402885 -0.133185 -1.85296e-17)
(0.476509 -0.12682 0)
(0.546865 -0.120257 0)
(0.614008 -0.11365 0)
(0.677939 -0.1071 9.34706e-18)
(0.738667 -0.100674 0)
(0.796224 -0.0944194 -1.88143e-17)
(0.85066 -0.0883685 -9.4435e-18)
(0.902044 -0.0825448 0)
(0.95046 -0.0769638 -9.51616e-18)
(0.996008 -0.0716386 0)
(1.0388 -0.0665772 0)
(1.07894 -0.0617862 -2.889e-17)
(1.11657 -0.0572691 1.93366e-17)
(1.15183 -0.0530287 0)
(1.18485 -0.0490663 1.94898e-17)
(1.21577 -0.045382 -9.78326e-18)
(1.24476 -0.0419751 0)
(1.27196 -0.0388437 0)
(1.29754 -0.0359861 0)
(1.32165 -0.0333986 -2.97637e-17)
(1.34446 -0.0310776 0)
(1.36614 -0.0290166 -9.98169e-18)
(1.38684 -0.0272097 0)
(1.40673 -0.0256479 0)
(1.42597 -0.0243215 0)
(1.44471 -0.023215 0)
(1.4631 -0.0223119 0)
(1.48127 -0.0215875 0)
(1.49935 -0.0210103 -2.02398e-17)
(1.51742 -0.0205313 0)
(1.53553 -0.0200796 -1.01386e-17)
(1.55367 -0.0195375 3.04359e-17)
(1.57175 -0.018703 0)
(1.58943 -0.0172036 0)
(1.60654 -0.0142706 -2.0349e-17)
(1.62126 -0.00844523 -2.04052e-17)
(1.63719 0.00348032 2.05264e-17)
(1.6447 0.0290242 2.07651e-17)
(-0.00844406 -0.0639445 1.48694e-16)
(-0.0186146 -0.0312669 5.97641e-17)
(-0.0319921 -0.000472082 2.20483e-17)
(-0.0475524 0.0265605 7.86415e-18)
(-0.0641108 0.0506884 0)
(-0.0812616 0.0723593 -1.11941e-17)
(-0.0990579 0.0917311 5.10481e-18)
(-0.117642 0.108858 0)
(-0.137155 0.123822 4.53277e-18)
(-0.157709 0.136776 0)
(-0.179367 0.14794 -8.36862e-18)
(-0.202133 0.157567 0)
(-0.225952 0.165907 -3.91228e-18)
(-0.250731 0.173177 -7.57731e-18)
(-0.276346 0.179544 7.34016e-18)
(-0.302665 0.185124 0)
(-0.329562 0.189991 6.89031e-18)
(-0.356919 0.194184 0)
(-0.384635 0.197727 0)
(-0.412624 0.200635 6.27278e-18)
(-0.440817 0.202924 0)
(-0.469157 0.204612 4.62381e-23)
(-0.4976 0.205727 0)
(-0.526116 0.206305 0)
(-0.554683 0.206394 -4.65247e-23)
(-0.583287 0.206051 5.2536e-18)
(-0.611917 0.205335 5.11276e-18)
(-0.640566 0.204304 4.9792e-18)
(-0.669226 0.203016 0)
(-0.697892 0.201522 9.46586e-18)
(-0.726559 0.199873 0)
(-0.755222 0.198111 4.51195e-18)
(-0.783877 0.196273 0)
(-0.812522 0.19439 0)
(-0.841156 0.192486 -4.22108e-18)
(-0.869776 0.190584 0)
(-0.898385 0.188699 4.0496e-18)
(-0.926981 0.186842 -7.49663e-23)
(-0.955566 0.185023 -7.78551e-18)
(-0.984141 0.183246 7.63823e-18)
(-1.01271 0.181513 0)
(-1.04127 0.179828 0)
(-1.06982 0.178187 3.61517e-18)
(-1.09838 0.176587 0)
(-1.12692 0.175024 3.49117e-18)
(-1.15547 0.173491 -3.43239e-18)
(-1.184 0.171984 -3.37552e-18)
(-1.21253 0.170494 0)
(-1.24104 0.169013 3.26701e-18)
(-1.26954 0.167533 3.21516e-18)
(-1.29801 0.166047 -6.32973e-18)
(-1.32645 0.164546 3.11577e-18)
(-1.35484 0.163024 3.06809e-18)