/*--------------------------------*- C++ -*----------------------------------*\
| =========                 |                                                 |
| \\      /  F ield         | OpenFOAM: The Open Source CFD Toolbox           |
|  \\    /   O peration     | Version:  2312                                  |
|   \\  /    A nd           | Website:  www.openfoam.com                      |
|    \\/     M anipulation  |                                                 |
\*---------------------------------------------------------------------------*/
FoamFile
{
    version     2.0;
    format      ascii;
    arch        "LSB;label=32;scalar=64";
    class       volVectorField;
    location    "8.125";
    object      diffU;
}
// * * * * * * * * * * * * * * * * * * * * * * * * * * * * * * * * * * * * * //

dimensions      [0 1 -1 0 0 0 0];

internalField   nonuniform List<vector> 
400
(
(0 0 0)
(0 -5.03527e-14 0)
(0 -3.99122e-14 0)
(-4.44089e-16 -4.23629e-14 0)
(-3.33067e-16 -4.19837e-14 0)
(-3.33067e-16 -4.20264e-14 0)
(-3.33067e-16 -4.19906e-14 0)
(-4.44089e-16 -4.20104e-14 0)
(-4.44089e-16 -4.20085e-14 0)
(-1.11022e-16 -4.19017e-14 0)
(-5.55112e-16 -4.18861e-14 0)
(-6.66134e-16 -4.1959e-14 0)
(-4.44089e-16 -4.19765e-14 0)
(-5.55112e-16 -4.19725e-14 0)
(-5.55112e-16 -4.19049e-14 0)
(-6.66134e-16 -4.19023e-14 0)
(-9.99201e-16 -4.19508e-14 0)
(-6.66134e-16 -4.20176e-14 0)
(-7.77156e-16 -4.19824e-14 0)
(-6.66134e-16 -4.19713e-14 0)
(-1.66533e-15 -2.81092e-14 0)
(-1.44329e-15 -4.44592e-14 0)
(-1.66533e-15 -4.13167e-14 0)
(-1.22125e-15 -4.21002e-14 0)
(-1.22125e-15 -4.20705e-14 0)
(-1.22125e-15 -4.19748e-14 0)
(-1.22125e-15 -4.19166e-14 0)
(-9.99201e-16 -4.19903e-14 0)
(-9.99201e-16 -4.20551e-14 0)
(-1.44329e-15 -4.19998e-14 0)
(-1.22125e-15 -4.19305e-14 0)
(-9.99201e-16 -4.19695e-14 0)
(-1.22125e-15 -4.19827e-14 0)
(-1.44329e-15 -4.20213e-14 0)
(-1.66533e-15 -4.20722e-14 0)
(-1.22125e-15 -4.20453e-14 0)
(-9.99201e-16 -4.20816e-14 0)
(-7.77156e-16 -4.2041e-14 0)
(-7.77156e-16 -4.19354e-14 0)
(-7.77156e-16 -4.19566e-14 0)
(1.9984e-15 -7.18772e-14 0)
(-1.22125e-15 -3.61301e-14 0)
(-4.44089e-16 -4.33956e-14 0)
(-5.55112e-16 -4.17801e-14 0)
(-7.77156e-16 -4.21155e-14 0)
(-5.55112e-16 -4.20629e-14 0)
(-6.66134e-16 -4.20769e-14 0)
(-5.55112e-16 -4.20976e-14 0)
(-2.22045e-16 -4.20899e-14 0)
(-3.33067e-16 -4.20688e-14 0)
(-6.66134e-16 -4.20365e-14 0)
(-4.44089e-16 -4.19174e-14 0)
(-3.33067e-16 -4.17868e-14 0)
(-5.55112e-16 -4.17809e-14 0)
(-6.66134e-16 -4.19946e-14 0)
(-9.99201e-16 -4.21288e-14 0)
(-1.22125e-15 -4.22425e-14 0)
(-1.22125e-15 -4.21609e-14 0)
(-9.99201e-16 -4.2089e-14 0)
(-7.77156e-16 -4.20236e-14 0)
(-8.32667e-15 -5.22247e-14 0)
(9.99201e-16 -4.00963e-14 0)
(-6.66134e-16 -4.26299e-14 0)
(-6.66134e-16 -4.20458e-14 0)
(-5.55112e-16 -4.21773e-14 0)
(-4.44089e-16 -4.21922e-14 0)
(-3.33067e-16 -4.21119e-14 0)
(-5.55112e-16 -4.19723e-14 0)
(-7.77156e-16 -4.19052e-14 0)
(-9.99201e-16 -4.1844e-14 0)
(-7.77156e-16 -4.185e-14 0)
(-1.44329e-15 -4.18933e-14 0)
(-9.99201e-16 -4.18987e-14 0)
(-9.99201e-16 -4.18264e-14 0)
(-4.44089e-16 -4.18642e-14 0)
(-3.33067e-16 -4.20013e-14 0)
(-4.44089e-16 -4.21143e-14 0)
(-6.66134e-16 -4.21382e-14 0)
(-7.77156e-16 -4.21593e-14 0)
(-7.77156e-16 -4.20442e-14 0)
(6.77236e-15 -1.20664e-14 0)
(-2.55351e-15 -4.8272e-14 0)
(-2.22045e-16 -4.05971e-14 0)
(-7.77156e-16 -4.23382e-14 0)
(-7.77156e-16 -4.2003e-14 0)
(-7.77156e-16 -4.21114e-14 0)
(-1.22125e-15 -4.20661e-14 0)
(-9.99201e-16 -4.20414e-14 0)
(-7.77156e-16 -4.19965e-14 0)
(-6.66134e-16 -4.18828e-14 0)
(-6.66134e-16 -4.17897e-14 0)
(-4.44089e-16 -4.1864e-14 0)
(-5.55112e-16 -4.20339e-14 0)
(-7.77156e-16 -4.21257e-14 0)
(-5.55112e-16 -4.21346e-14 0)
(-5.55112e-16 -4.20922e-14 0)
(-4.44089e-16 -4.20318e-14 0)
(-4.44089e-16 -4.19603e-14 0)
(-5.55112e-16 -4.19557e-14 0)
(-6.66134e-16 -4.19513e-14 0)
(-6.77236e-15 -7.12144e-14 0)
(-2.22045e-16 -3.59577e-14 0)
(-1.44329e-15 -4.35402e-14 0)
(-6.66134e-16 -4.18082e-14 0)
(-7.77156e-16 -4.21347e-14 0)
(-6.66134e-16 -4.19826e-14 0)
(-7.77156e-16 -4.19747e-14 0)
(-7.77156e-16 -4.20178e-14 0)
(-1.22125e-15 -4.20579e-14 0)
(-1.22125e-15 -4.20184e-14 0)
(-1.22125e-15 -4.20092e-14 0)
(-7.77156e-16 -4.19633e-14 0)
(-5.55112e-16 -4.19917e-14 0)
(-6.66134e-16 -4.21094e-14 0)
(-6.66134e-16 -4.2121e-14 0)
(-6.66134e-16 -4.2079e-14 0)
(-7.77156e-16 -4.19542e-14 0)
(-9.99201e-16 -4.1892e-14 0)
(-7.77156e-16 -4.18747e-14 0)
(-7.77156e-16 -4.19208e-14 0)
(4.88498e-15 -3.15272e-14 0)
(-7.77156e-16 -4.38447e-14 0)
(3.33067e-16 -4.17618e-14 0)
(-7.77156e-16 -4.21505e-14 0)
(-5.55112e-16 -4.20058e-14 0)
(-5.55112e-16 -4.18908e-14 0)
(-6.66134e-16 -4.17853e-14 0)
(-3.33067e-16 -4.17992e-14 0)
(-2.22045e-16 -4.18775e-14 0)
(-4.44089e-16 -4.2031e-14 0)
(-5.55112e-16 -4.21806e-14 0)
(-6.66134e-16 -4.2214e-14 0)
(-6.66134e-16 -4.21263e-14 0)
(-4.44089e-16 -4.20252e-14 0)
(-5.55112e-16 -4.18787e-14 0)
(-7.77156e-16 -4.18066e-14 0)
(-7.77156e-16 -4.18718e-14 0)
(-9.99201e-16 -4.1994e-14 0)
(-7.77156e-16 -4.19276e-14 0)
(-5.55112e-16 -4.19587e-14 0)
(-1.27676e-14 -1.29517e-14 0)
(5.55112e-16 -4.88396e-14 0)
(-2.77556e-15 -4.04598e-14 0)
(-9.99201e-16 -4.25388e-14 0)
(-1.44329e-15 -4.21005e-14 0)
(-1.22125e-15 -4.22176e-14 0)
(-9.99201e-16 -4.21028e-14 0)
(-9.99201e-16 -4.19635e-14 0)
(-9.99201e-16 -4.18301e-14 0)
(-7.77156e-16 -4.18226e-14 0)
(-7.77156e-16 -4.18883e-14 0)
(-1.22125e-15 -4.2085e-14 0)
(-9.99201e-16 -4.20558e-14 0)
(-1.22125e-15 -4.19696e-14 0)
(-1.44329e-15 -4.19701e-14 0)
(-1.44329e-15 -4.19176e-14 0)
(-7.77156e-16 -4.19435e-14 0)
(-9.99201e-16 -4.20028e-14 0)
(-9.99201e-16 -4.20291e-14 0)
(-7.77156e-16 -4.20231e-14 0)
(2.03171e-14 -9.25629e-14 0)
(-4.32987e-15 -3.14205e-14 0)
(1.33227e-15 -4.4604e-14 0)
(-7.77156e-16 -4.15853e-14 0)
(-3.33067e-16 -4.21552e-14 0)
(-6.66134e-16 -4.19254e-14 0)
(-9.99201e-16 -4.19411e-14 0)
(-1.22125e-15 -4.19084e-14 0)
(-1.22125e-15 -4.19177e-14 0)
(-1.22125e-15 -4.19087e-14 0)
(-9.99201e-16 -4.18866e-14 0)
(-9.99201e-16 -4.20287e-14 0)
(-7.77156e-16 -4.21622e-14 0)
(-7.77156e-16 -4.20998e-14 0)
(-4.44089e-16 -4.20505e-14 0)
(-4.44089e-16 -4.19694e-14 0)
(-9.99201e-16 -4.19184e-14 0)
(-6.66134e-16 -4.18951e-14 0)
(-7.77156e-16 -4.20171e-14 0)
(-7.77156e-16 -4.20475e-14 0)
(-1.54321e-14 -2.08218e-14 0)
(1.44329e-15 -4.58461e-14 0)
(-2.10942e-15 -4.10175e-14 0)
(-1.22125e-15 -4.21109e-14 0)
(-1.66533e-15 -4.18292e-14 0)
(-1.22125e-15 -4.18011e-14 0)
(-9.99201e-16 -4.18567e-14 0)
(-9.99201e-16 -4.20227e-14 0)
(-7.77156e-16 -4.21188e-14 0)
(-4.44089e-16 -4.21196e-14 0)
(-3.33067e-16 -4.20595e-14 0)
(-5.55112e-16 -4.19985e-14 0)
(-5.55112e-16 -4.20823e-14 0)
(-1.22125e-15 -4.213e-14 0)
(-1.44329e-15 -4.20727e-14 0)
(-9.99201e-16 -4.19124e-14 0)
(-7.77156e-16 -4.18728e-14 0)
(-9.99201e-16 -4.19725e-14 0)
(-7.77156e-16 -4.20472e-14 0)
(-6.66134e-16 -4.20019e-14 0)
(1.22125e-15 -4.00596e-14 0)
(-1.44329e-15 -4.29637e-14 0)
(-1.11022e-16 -4.17572e-14 0)
(-5.55112e-16 -4.20829e-14 0)
(-4.44089e-16 -4.20658e-14 0)
(-3.33067e-16 -4.22105e-14 0)
(-2.22045e-16 -4.22377e-14 0)
(-3.33067e-16 -4.22545e-14 0)
(-3.33067e-16 -4.2229e-14 0)
(-4.44089e-16 -4.20564e-14 0)
(-2.22045e-16 -4.19172e-14 0)
(-4.44089e-16 -4.18249e-14 0)
(-5.55112e-16 -4.17745e-14 0)
(-4.44089e-16 -4.18723e-14 0)
(-7.77156e-16 -4.19972e-14 0)
(-1.22125e-15 -4.21273e-14 0)
(-9.99201e-16 -4.21156e-14 0)
(-5.55112e-16 -4.20733e-14 0)
(-7.77156e-16 -4.20572e-14 0)
(-6.66134e-16 -4.20127e-14 0)
(1.13243e-14 -3.68672e-14 0)
(-1.88738e-15 -4.24902e-14 0)
(5.55112e-16 -4.17662e-14 0)
(-3.33067e-16 -4.18029e-14 0)
(0 -4.18117e-14 0)
(-2.22045e-16 -4.18747e-14 0)
(-4.44089e-16 -4.19947e-14 0)
(-7.77156e-16 -4.20303e-14 0)
(-5.55112e-16 -4.20277e-14 0)
(-1.22125e-15 -4.20391e-14 0)
(-1.22125e-15 -4.19933e-14 0)
(-7.77156e-16 -4.18692e-14 0)
(-9.99201e-16 -4.19314e-14 0)
(-7.77156e-16 -4.18764e-14 0)
(-4.44089e-16 -4.17823e-14 0)
(-4.44089e-16 -4.19096e-14 0)
(-5.55112e-16 -4.20894e-14 0)
(-9.99201e-16 -4.20609e-14 0)
(-7.77156e-16 -4.20132e-14 0)
(-5.55112e-16 -4.2011e-14 0)
(-1.45439e-14 -5.28086e-14 0)
(1.11022e-15 -3.96607e-14 0)
(-2.33147e-15 -4.24203e-14 0)
(-9.99201e-16 -4.17803e-14 0)
(-1.22125e-15 -4.1898e-14 0)
(-1.22125e-15 -4.18587e-14 0)
(-1.22125e-15 -4.18966e-14 0)
(-1.44329e-15 -4.18816e-14 0)
(-1.22125e-15 -4.18334e-14 0)
(-1.22125e-15 -4.19839e-14 0)
(-1.44329e-15 -4.21306e-14 0)
(-9.99201e-16 -4.2111e-14 0)
(-7.77156e-16 -4.20533e-14 0)
(-9.99201e-16 -4.20156e-14 0)
(-1.22125e-15 -4.19869e-14 0)
(-7.77156e-16 -4.19627e-14 0)
(-7.77156e-16 -4.19839e-14 0)
(-7.77156e-16 -4.20433e-14 0)
(-7.77156e-16 -4.20305e-14 0)
(-7.77156e-16 -4.19816e-14 0)
(3.44169e-15 -5.0892e-14 0)
(-9.99201e-16 -4.06451e-14 0)
(-1.11022e-16 -4.2306e-14 0)
(-7.77156e-16 -4.18424e-14 0)
(-4.44089e-16 -4.18895e-14 0)
(-6.66134e-16 -4.19466e-14 0)
(-3.33067e-16 -4.18868e-14 0)
(-4.44089e-16 -4.19022e-14 0)
(-3.33067e-16 -4.20193e-14 0)
(-3.33067e-16 -4.20739e-14 0)
(-2.22045e-16 -4.21502e-14 0)
(-3.33067e-16 -4.21671e-14 0)
(-4.44089e-16 -4.19121e-14 0)
(-5.55112e-16 -4.19239e-14 0)
(-5.55112e-16 -4.20513e-14 0)
(-5.55112e-16 -4.20764e-14 0)
(-6.66134e-16 -4.20702e-14 0)
(-6.66134e-16 -4.19913e-14 0)
(-7.77156e-16 -4.1933e-14 0)
(-6.66134e-16 -4.19595e-14 0)
(-5.55112e-16 -1.44482e-14 0)
(-1.22125e-15 -4.75249e-14 0)
(-9.99201e-16 -4.06508e-14 0)
(-9.99201e-16 -4.22024e-14 0)
(-6.66134e-16 -4.19549e-14 0)
(-7.77156e-16 -4.20149e-14 0)
(-7.77156e-16 -4.20405e-14 0)
(-7.77156e-16 -4.20661e-14 0)
(-5.55112e-16 -4.20543e-14 0)
(-7.77156e-16 -4.20027e-14 0)
(-7.77156e-16 -4.19773e-14 0)
(-9.99201e-16 -4.19799e-14 0)
(-9.99201e-16 -4.19674e-14 0)
(-5.55112e-16 -4.18973e-14 0)
(-9.99201e-16 -4.18483e-14 0)
(-9.99201e-16 -4.18825e-14 0)
(-9.99201e-16 -4.19832e-14 0)
(-1.22125e-15 -4.20034e-14 0)
(-7.77156e-16 -4.19823e-14 0)
(-6.66134e-16 -4.19542e-14 0)
(-5.88418e-15 -7.67624e-14 0)
(-1.11022e-16 -3.50297e-14 0)
(-1.44329e-15 -4.36901e-14 0)
(-5.55112e-16 -4.17081e-14 0)
(-7.77156e-16 -4.20383e-14 0)
(-7.77156e-16 -4.18681e-14 0)
(-7.77156e-16 -4.20205e-14 0)
(-7.77156e-16 -4.203e-14 0)
(-1.22125e-15 -4.19048e-14 0)
(-9.99201e-16 -4.18932e-14 0)
(-1.44329e-15 -4.19567e-14 0)
(-1.22125e-15 -4.20363e-14 0)
(-1.44329e-15 -4.21053e-14 0)
(-9.99201e-16 -4.19964e-14 0)
(-9.99201e-16 -4.19249e-14 0)
(-7.77156e-16 -4.18663e-14 0)
(-7.77156e-16 -4.19547e-14 0)
(-7.77156e-16 -4.21085e-14 0)
(-7.77156e-16 -4.21076e-14 0)
(-7.77156e-16 -4.19932e-14 0)
(-2.9976e-15 -3.52365e-14 0)
(-2.22045e-16 -4.35524e-14 0)
(-7.77156e-16 -4.17757e-14 0)
(-1.22125e-15 -4.21312e-14 0)
(-1.22125e-15 -4.19725e-14 0)
(-7.77156e-16 -4.19143e-14 0)
(-6.66134e-16 -4.18934e-14 0)
(-4.44089e-16 -4.1931e-14 0)
(-5.55112e-16 -4.19163e-14 0)
(-4.44089e-16 -4.18166e-14 0)
(-5.55112e-16 -4.17823e-14 0)
(-7.77156e-16 -4.19433e-14 0)
(-9.99201e-16 -4.20931e-14 0)
(-9.99201e-16 -4.2157e-14 0)
(-1.22125e-15 -4.21405e-14 0)
(-6.66134e-16 -4.19372e-14 0)
(-5.55112e-16 -4.18851e-14 0)
(-6.66134e-16 -4.20027e-14 0)
(-7.77156e-16 -4.20886e-14 0)
(-5.55112e-16 -4.20199e-14 0)
(-5.44009e-15 -1.76428e-15 0)
(-9.99201e-16 -5.02482e-14 0)
(-2.10942e-15 -4.03202e-14 0)
(-1.22125e-15 -4.25844e-14 0)
(-1.44329e-15 -4.21956e-14 0)
(-1.22125e-15 -4.21491e-14 0)
(-1.44329e-15 -4.20379e-14 0)
(-1.22125e-15 -4.20275e-14 0)
(-1.44329e-15 -4.20073e-14 0)
(-9.99201e-16 -4.18811e-14 0)
(-7.77156e-16 -4.18089e-14 0)
(-6.66134e-16 -4.17476e-14 0)
(-6.66134e-16 -4.17602e-14 0)
(-9.99201e-16 -4.18827e-14 0)
(-1.22125e-15 -4.20992e-14 0)
(-1.22125e-15 -4.21995e-14 0)
(-7.77156e-16 -4.20518e-14 0)
(-7.77156e-16 -4.19734e-14 0)
(-9.99201e-16 -4.20224e-14 0)
(-6.66134e-16 -4.20412e-14 0)
(4.21885e-15 -7.32075e-14 0)
(-2.33147e-15 -3.62384e-14 0)
(-1.22125e-15 -4.36787e-14 0)
(-1.22125e-15 -4.19732e-14 0)
(-1.22125e-15 -4.21437e-14 0)
(-1.44329e-15 -4.19989e-14 0)
(-1.44329e-15 -4.20604e-14 0)
(-9.99201e-16 -4.20987e-14 0)
(-9.99201e-16 -4.20397e-14 0)
(-9.99201e-16 -4.2054e-14 0)
(-9.99201e-16 -4.20527e-14 0)
(-1.22125e-15 -4.19751e-14 0)
(-1.22125e-15 -4.18889e-14 0)
(-5.55112e-16 -4.19136e-14 0)
(-3.33067e-16 -4.20501e-14 0)
(-4.44089e-16 -4.2216e-14 0)
(-7.77156e-16 -4.21156e-14 0)
(-9.99201e-16 -4.20156e-14 0)
(-6.66134e-16 -4.20491e-14 0)
(-6.66134e-16 -4.20467e-14 0)
(1.44329e-15 -7.06552e-14 0)
(0 -3.66988e-14 0)
(5.55112e-16 -4.34187e-14 0)
(-2.22045e-16 -4.18602e-14 0)
(0 -4.2044e-14 0)
(-1.11022e-16 -4.20041e-14 0)
(0 -4.20817e-14 0)
(-3.33067e-16 -4.21296e-14 0)
(-3.33067e-16 -4.20358e-14 0)
(-5.55112e-16 -4.20143e-14 0)
(-3.33067e-16 -4.19906e-14 0)
(-3.33067e-16 -4.20855e-14 0)
(-2.22045e-16 -4.21417e-14 0)
(-4.44089e-16 -4.21226e-14 0)
(-5.55112e-16 -4.20265e-14 0)
(-6.66134e-16 -4.20159e-14 0)
(-9.99201e-16 -4.19659e-14 0)
(-7.77156e-16 -4.19856e-14 0)
(-6.66134e-16 -4.20581e-14 0)
(-6.66134e-16 -4.20165e-14 0)
)
;

boundaryField
{
    movingWall
    {
        type            calculated;
        value           uniform (-7.77156e-16 -4.20109e-14 0);
    }
    fixedWalls
    {
        type            calculated;
        value           uniform (-7.77156e-16 -4.20109e-14 0);
    }
    frontAndBack
    {
        type            empty;
    }
}


// ************************************************************************* //
