/*--------------------------------*- C++ -*----------------------------------*\
| =========                 |                                                 |
| \\      /  F ield         | OpenFOAM: The Open Source CFD Toolbox           |
|  \\    /   O peration     | Version:  2312                                  |
|   \\  /    A nd           | Website:  www.openfoam.com                      |
|    \\/     M anipulation  |                                                 |
\*---------------------------------------------------------------------------*/
FoamFile
{
    version     2.0;
    format      ascii;
    arch        "LSB;label=32;scalar=64";
    class       volScalarField;
    location    "8.125";
    object      flowTypeField;
}
// * * * * * * * * * * * * * * * * * * * * * * * * * * * * * * * * * * * * * //

dimensions      [0 0 0 0 0 0 0];

internalField   nonuniform List<scalar> 
400
(
0.437117
0.0340875
0.0563997
-0.0654214
0.818448
0.453401
0.896768
-0.060793
0.528822
0.252086
0.768479
0.26319
0.648951
-0.12873
-0.0838033
0.320913
0.210065
0.821633
0.502829
0.695123
0.829409
0.366748
0.287743
0.283102
-0.185446
-0.27637
0.0396558
0.612805
0.921891
-0.161239
-0.0158987
0.182057
0.652899
0.883867
0.923613
0.961425
0.633167
-0.212409
-0.128873
0.0666599
0.455646
0.106929
-0.148755
0.225175
-0.327821
0.0532448
0.0140517
-0.0230127
0.366731
0.121964
0.281626
-0.429763
0.505859
-0.264574
-0.133725
0.0941219
-0.0382695
0.46749
0.709004
0.24326
0.731642
0.332413
0.43608
0.332233
0.488874
0.168446
-0.400003
-0.182461
-0.0719784
0.434588
0.729169
0.75554
0.241401
0.284499
0.636063
-0.144975
-0.0352673
0.0782527
0.124952
0.0662714
0.261595
0.0821779
-0.0250906
0.244555
-0.721082
0.612279
0.0206884
0.679617
0.272651
-0.282131
0.0996693
-0.291085
-0.237254
-0.0374988
0.85926
0.178332
-0.20083
-0.0300671
0.924335
0.735947
0.290555
0.0949071
-0.0650609
0.286312
-0.626742
0.697573
0.0539246
0.207757
0.0575182
0.117679
0.294547
0.961825
0.481514
-0.0713457
0.177568
-0.0237909
-0.00548366
-0.142119
0.107987
-0.809704
0.704741
0.321413
0.177601
0.959106
-0.225807
-0.242137
0.360598
0.644135
0.401131
-0.0943108
-0.0282066
-0.05389
-0.158384
-0.375418
-0.164141
0.0330259
0.607476
0.8528
0.0748864
0.509388
0.867112
0.230749
0.214493
0.233823
0.594273
0.00601613
-0.200687
-0.315105
0.033742
0.080483
0.96987
0.648149
0.540417
0.175652
0.624861
0.54779
0.852954
0.178341
0.246998
-0.0507598
0.152424
0.0842924
-0.0162897
0.00946718
0.645035
0.636966
0.960985
-0.0581303
0.96529
0.161411
0.0982914
-0.0705362
-0.247798
0.745419
0.190557
0.197653
-0.00280762
0.0403999
0.00665576
0.0865341
0.348643
0.132495
0.0515898
-0.114156
0.0377249
0.275257
-0.114788
-0.0465402
0.0572541
0.135741
0.221399
0.0248065
0.600571
0.164427
0.0274288
0.066375
-0.0384713
0.266812
0.831094
0.327496
0.16158
0.599387
0.362308
-0.1511
-0.0780615
-0.131668
0.0572071
0.282665
0.380674
-0.29522
-0.403952
0.504686
0.116585
-0.151638
0.143675
-0.0793885
0.902979
0.727081
0.709622
0.173064
0.123226
0.359982
0.0332316
0.691304
0.233908
0.361547
0.269534
0.0736815
0.218936
0.0152282
-0.0944588
0.0192822
0.96773
0.034242
0.150249
-0.434101
0.304216
-0.136821
0.747957
0.259823
0.92805
0.383333
0.533544
0.0776683
0.150148
0.00611647
0.686466
0.601138
0.155232
-0.360296
-0.130794
0.728809
0.377672
0.690957
0.803183
0.504153
0.0248519
-0.0527354
0.328479
0.653196
0.445169
0.0898877
-0.0088872
0.790822
-0.181861
0.0425305
0.108634
-0.0684645
-0.189046
-0.237379
-0.119248
0.114878
-0.119373
-0.216548
0.230917
0.317861
-0.305774
-0.0981327
0.821751
0.5038
0.107167
-0.017102
-0.200972
0.0775741
-0.127442
0.635224
0.116777
0.324177
-0.051885
0.0275489
-0.00649277
0.0977348
0.0500512
-0.203324
0.257287
0.402659
0.550155
0.96319
0.90933
0.468418
0.261264
0.0471503
0.0168756
0.0987151
0.349537
0.716808
-0.290512
0.409753
0.267481
0.224498
-0.15046
-0.505681
0.602615
-0.058052
0.370738
-0.0835665
-0.555346
-0.278389
0.232383
0.298802
0.920023
0.60109
0.44185
0.451869
-0.160656
0.222049
0.171932
0.0416592
-0.182626
0.00384744
-0.0714213
-0.167673
0.0290295
0.525136
0.195725
0.226454
0.373489
0.248446
0.888036
0.473495
0.46087
0.0820336
-0.0349123
0.128939
0.798063
-0.434511
-0.121466
-0.015493
-0.314279
-0.116863
0.360044
0.0290485
0.33812
0.159247
-0.372692
0.236833
0.250605
-0.0357171
0.118624
-0.14337
0.513591
0.129638
-0.207477
0.720567
0.0572916
0.114057
-0.00489357
0.0509149
0.0412839
0.00571681
0.492662
0.380941
0.185376
0.391114
-0.521401
0.0442184
-0.167191
0.121346
0.198277
0.662639
0.693511
0.0977979
0.259455
-0.0910112
0.287453
0.0867435
0.48348
0.45169
0.0417626
0.248051
0.432249
0.0296025
0.133675
-0.0667995
-0.186811
0.223023
0.0604601
0.604272
0.146685
0.154769
)
;

boundaryField
{
    movingWall
    {
        type            calculated;
        value           nonuniform List<scalar> 
20
(
0.839117
0.119128
0.973825
-0.43107
0.0470312
0.0141541
0.0440482
0.0483708
-0.0500962
-0.050362
0.0513415
0.0962798
0.0420475
-0.00822412
-0.116034
0.256419
0.0521912
0.622419
0.13538
0.0489361
)
;
    }
    fixedWalls
    {
        type            calculated;
        value           nonuniform List<scalar> 
60
(
0.0500985
0.370334
0.0778095
0.378107
0.0533467
0.0501227
0.334646
0.259532
0.0867319
0.106015
0.381767
0.319679
0.451404
0.12584
-0.0528938
0.0397799
0.615311
0.075094
0.0854396
0.160673
0.602711
0.026504
0.419583
0.110146
0.481074
-0.73623
0.713044
-0.108864
0.00978612
0.367405
0.438423
0.645649
0.0768789
0.517271
0.880771
-0.210898
0.686353
0.2421
0.625724
0.390229
0.774462
0.163518
0.538094
-0.20183
0.197709
-0.0032422
0.0210749
-0.0133226
0.098029
0.0577356
0.0995202
-0.0741265
-0.00472695
0.0923374
0.159332
0.364465
0.15528
0.0840798
0.532544
0.0627592
)
;
    }
    frontAndBack
    {
        type            empty;
    }
}


// ************************************************************************* //
