/*--------------------------------*- C++ -*----------------------------------*\
| =========                 |                                                 |
| \\      /  F ield         | OpenFOAM: The Open Source CFD Toolbox           |
|  \\    /   O peration     | Version:  2312                                  |
|   \\  /    A nd           | Website:  www.openfoam.com                      |
|    \\/     M anipulation  |                                                 |
\*---------------------------------------------------------------------------*/
FoamFile
{
    version     2.0;
    format      ascii;
    arch        "LSB;label=32;scalar=64";
    class       surfaceScalarField;
    location    "8.125";
    object      fluxField;
}
// * * * * * * * * * * * * * * * * * * * * * * * * * * * * * * * * * * * * * //

dimensions      [0 3 -1 0 0 0 0];

oriented        oriented;

internalField   nonuniform List<scalar> 
760
(
-5e-05
1.39782e-18
-5e-05
-2.69749e-19
-5e-05
6.98249e-20
-5e-05
-1.10332e-20
-5e-05
-8.10428e-22
-5e-05
5.15976e-22
-5e-05
2.86701e-21
-5e-05
5.29745e-22
-5e-05
-1.04238e-21
-5e-05
3.00912e-21
-5e-05
5.13359e-21
-5e-05
2.33518e-21
-5e-05
1.56657e-21
-5e-05
7.02146e-22
-5e-05
1.11983e-21
-5e-05
1.85504e-21
-5e-05
-2.62927e-22
-5e-05
-9.18718e-22
-5e-05
2.60271e-21
2.3506e-21
-5e-05
-3.99113e-19
-5e-05
8.58161e-20
-5e-05
-1.72614e-20
-5e-05
3.53899e-21
-5e-05
-4.10421e-21
-5e-05
-3.97937e-22
-5e-05
7.08458e-22
-5e-05
-1.6507e-21
-5e-05
-3.07858e-21
-5e-05
-1.16617e-21
-5e-05
1.37253e-21
-5e-05
3.37455e-21
-5e-05
6.31002e-21
-5e-05
5.49205e-21
-5e-05
-1.12426e-21
-5e-05
-3.80621e-21
-5e-05
-7.55525e-21
-5e-05
-4.50005e-21
-5e-05
-6.38092e-23
1.04333e-21
-5e-05
-1.002e-18
-5e-05
1.94887e-19
-5e-05
-5.00915e-20
-5e-05
4.90109e-21
-5e-05
-6.77387e-21
-5e-05
-5.83196e-21
-5e-05
-4.17469e-21
-5e-05
-1.20074e-21
-5e-05
6.68658e-22
-5e-05
2.727e-21
-5e-05
3.38419e-21
-5e-05
5.27882e-21
-5e-05
8.40948e-21
-5e-05
1.03634e-20
-5e-05
4.07543e-21
-5e-05
-2.70478e-21
-5e-05
-8.37206e-21
-5e-05
-6.9308e-21
-5e-05
-5.66232e-21
-1.14837e-21
-5e-05
4.93268e-19
-5e-05
-1.08662e-19
-5e-05
1.9873e-20
-5e-05
-9.05371e-21
-5e-05
-3.96233e-21
-5e-05
-7.04458e-21
-5e-05
-3.90301e-21
-5e-05
2.04564e-22
-5e-05
3.00406e-21
-5e-05
7.3753e-21
-5e-05
9.55556e-21
-5e-05
6.61347e-21
-5e-05
2.23004e-21
-5e-05
1.74329e-21
-5e-05
5.75008e-22
-5e-05
-1.79092e-21
-5e-05
-3.10691e-21
-5e-05
-1.91707e-21
-5e-05
-2.32904e-21
6.58969e-22
-5e-05
1.85259e-20
-5e-05
-5.19537e-21
-5e-05
-2.88433e-21
-5e-05
-3.11467e-21
-5e-05
-2.89718e-21
-5e-05
-1.804e-21
-5e-05
-4.72881e-22
-5e-05
-9.32963e-22
-5e-05
-8.12395e-22
-5e-05
3.01543e-21
-5e-05
5.57644e-21
-5e-05
4.8622e-21
-5e-05
-9.48307e-23
-5e-05
-5.33163e-21
-5e-05
-5.84405e-21
-5e-05
-3.73372e-21
-5e-05
8.96494e-22
-5e-05
4.23929e-21
-5e-05
4.78586e-21
3.74354e-21
-5e-05
-4.67992e-19
-5e-05
1.05488e-19
-5e-05
-3.2004e-20
-5e-05
1.57934e-21
-5e-05
-2.96642e-21
-5e-05
3.71218e-21
-5e-05
6.54661e-21
-5e-05
5.12315e-21
-5e-05
2.16167e-21
-5e-05
-6.8796e-22
-5e-05
-4.19779e-21
-5e-05
-3.888e-21
-5e-05
-2.40326e-21
-5e-05
-2.81908e-21
-5e-05
5.55023e-22
-5e-05
3.40758e-21
-5e-05
4.89698e-21
-5e-05
3.39798e-21
-5e-05
5.48763e-21
3.5571e-21
-5e-05
9.88575e-19
-5e-05
-2.1656e-19
-5e-05
4.50068e-20
-5e-05
-1.66862e-20
-5e-05
-2.11209e-21
-5e-05
-2.16426e-21
-5e-05
3.34507e-21
-5e-05
6.47897e-21
-5e-05
7.85692e-21
-5e-05
4.20733e-21
-5e-05
-1.17573e-21
-5e-05
-6.9293e-21
-5e-05
-4.00547e-21
-5e-05
6.77009e-22
-5e-05
4.32797e-21
-5e-05
7.44154e-21
-5e-05
5.16273e-21
-5e-05
6.27661e-22
-5e-05
1.62848e-21
1.00128e-21
-5e-05
-5.37319e-19
-5e-05
9.40445e-20
-5e-05
-2.60469e-20
-5e-05
-2.55714e-21
-5e-05
-5.84751e-21
-5e-05
-3.02908e-21
-5e-05
-5.50194e-22
-5e-05
3.74765e-21
-5e-05
6.85347e-21
-5e-05
7.26411e-21
-5e-05
6.17426e-21
-5e-05
-2.2967e-21
-5e-05
-4.90301e-21
-5e-05
-1.1882e-21
-5e-05
3.32203e-23
-5e-05
3.37025e-21
-5e-05
3.99962e-21
-5e-05
3.10049e-21
-5e-05
-6.08368e-22
-1.2189e-21
-5e-05
-7.34072e-19
-5e-05
1.68882e-19
-5e-05
-3.99896e-20
-5e-05
8.14156e-21
-5e-05
9.35517e-22
-5e-05
7.38422e-21
-5e-05
5.60181e-21
-5e-05
2.26764e-21
-5e-05
-3.66055e-22
-5e-05
-1.59854e-22
-5e-05
1.89257e-21
-5e-05
-1.35302e-22
-5e-05
-5.56592e-21
-5e-05
-5.2002e-21
-5e-05
-2.53316e-21
-5e-05
3.50015e-21
-5e-05
5.76797e-21
-5e-05
3.85873e-21
-5e-05
-1.06137e-21
-6.89162e-22
-5e-05
5.7851e-19
-5e-05
-1.19698e-19
-5e-05
3.11804e-20
-5e-05
-4.29734e-21
-5e-05
3.17218e-21
-5e-05
2.5661e-22
-5e-05
-1.81356e-21
-5e-05
-6.38492e-21
-5e-05
-8.15014e-21
-5e-05
-3.85299e-21
-5e-05
1.12829e-21
-5e-05
4.96175e-21
-5e-05
4.12721e-21
-5e-05
4.87102e-22
-5e-05
-1.20142e-21
-5e-05
-4.46871e-22
-5e-05
8.36658e-22
-5e-05
-5.96552e-22
-5e-05
-2.06274e-21
1.81503e-22
-5e-05
1.77376e-19
-5e-05
-3.5801e-20
-5e-05
1.2463e-20
-5e-05
3.40307e-21
-5e-05
3.61028e-21
-5e-05
-1.58394e-21
-5e-05
-5.26362e-21
-5e-05
-6.57389e-21
-5e-05
-5.87087e-21
-5e-05
-1.84082e-21
-5e-05
2.78518e-21
-5e-05
8.19399e-21
-5e-05
7.9006e-21
-5e-05
6.82733e-21
-5e-05
6.05858e-21
-5e-05
-3.75378e-22
-5e-05
-4.57853e-21
-5e-05
-2.80874e-21
-5e-05
-1.21194e-21
-4.61637e-23
-5e-05
-1.41347e-19
-5e-05
4.67744e-20
-5e-05
-4.11564e-21
-5e-05
1.09673e-20
-5e-05
7.8047e-21
-5e-05
7.21208e-21
-5e-05
3.26377e-21
-5e-05
2.74967e-21
-5e-05
4.01856e-21
-5e-05
-2.8738e-23
-5e-05
-2.54888e-21
-5e-05
1.0402e-21
-5e-05
9.29968e-22
-5e-05
3.24573e-21
-5e-05
6.31584e-21
-5e-05
3.74e-21
-5e-05
-1.28607e-21
-5e-05
-2.05962e-21
-5e-05
-5.4453e-22
7.32893e-22
-5e-05
-4.91968e-19
-5e-05
9.29021e-20
-5e-05
-1.76113e-20
-5e-05
9.97962e-21
-5e-05
5.8589e-21
-5e-05
5.41586e-21
-5e-05
5.96023e-21
-5e-05
5.95252e-21
-5e-05
4.22677e-21
-5e-05
-8.97997e-22
-5e-05
-6.47342e-21
-5e-05
-6.40607e-21
-5e-05
1.41308e-21
-5e-05
2.05943e-21
-5e-05
-4.08313e-22
-5e-05
-4.29512e-22
-5e-05
-8.04949e-22
-5e-05
-3.19008e-22
-5e-05
1.45914e-21
2.02071e-21
-5e-05
4.6704e-19
-5e-05
-1.03702e-19
-5e-05
2.66264e-20
-5e-05
-5.72144e-22
-5e-05
4.4357e-21
-5e-05
1.5086e-21
-5e-05
2.3647e-21
-5e-05
1.33972e-21
-5e-05
-1.29534e-21
-5e-05
-1.36857e-21
-5e-05
-2.64194e-21
-5e-05
-3.1284e-21
-5e-05
3.56041e-21
-5e-05
5.01803e-21
-5e-05
3.05579e-21
-5e-05
1.57434e-21
-5e-05
-7.87551e-22
-5e-05
6.78439e-22
-5e-05
2.66308e-21
2.70366e-21
-5e-05
-1.79719e-19
-5e-05
3.66824e-20
-5e-05
-7.97736e-21
-5e-05
2.78476e-21
-5e-05
7.16522e-22
-5e-05
3.4704e-21
-5e-05
-9.78354e-22
-5e-05
-1.8556e-21
-5e-05
1.56864e-21
-5e-05
3.14835e-21
-5e-05
2.19645e-21
-5e-05
1.41043e-22
-5e-05
-1.26924e-21
-5e-05
3.20391e-21
-5e-05
6.21584e-21
-5e-05
6.82536e-21
-5e-05
2.09957e-21
-5e-05
-2.25175e-21
-5e-05
-1.70024e-21
1.86164e-21
-5e-05
-6.99426e-19
-5e-05
1.35993e-19
-5e-05
-3.60983e-20
-5e-05
4.56457e-21
-5e-05
2.76184e-22
-5e-05
5.98644e-21
-5e-05
2.69739e-21
-5e-05
1.52057e-21
-5e-05
5.01948e-21
-5e-05
7.8018e-21
-5e-05
7.07164e-21
-5e-05
1.05657e-21
-5e-05
-4.41295e-21
-5e-05
-3.28878e-21
-5e-05
-1.08772e-21
-5e-05
5.4593e-21
-5e-05
4.55175e-21
-5e-05
-2.23484e-21
-5e-05
-4.35782e-21
2.19399e-22
-5e-05
1.17553e-18
-5e-05
-2.44468e-19
-5e-05
4.81502e-20
-5e-05
-1.73442e-20
-5e-05
-3.65606e-21
-5e-05
-1.03964e-21
-5e-05
2.26452e-21
-5e-05
1.58236e-21
-5e-05
2.45639e-21
-5e-05
8.10452e-21
-5e-05
1.0768e-20
-5e-05
8.27545e-21
-5e-05
4.21256e-21
-5e-05
-4.44452e-22
-5e-05
-5.44427e-21
-5e-05
-2.86946e-21
-5e-05
2.1244e-21
-5e-05
1.14226e-21
-5e-05
-2.2279e-21
-9.80397e-22
-5e-05
2.26251e-19
-5e-05
-6.16179e-20
-5e-05
5.73354e-22
-5e-05
-1.33935e-20
-5e-05
-7.93573e-21
-5e-05
-3.15348e-21
-5e-05
-1.91018e-21
-5e-05
-2.60945e-21
-5e-05
-6.29115e-22
-5e-05
2.16961e-21
-5e-05
4.00664e-21
-5e-05
7.47876e-21
-5e-05
9.3181e-21
-5e-05
5.64004e-21
-5e-05
-3.185e-21
-5e-05
-9.83929e-21
-5e-05
-3.63722e-21
-5e-05
8.19853e-22
-5e-05
-1.23875e-21
-1.64969e-21
-5e-05
-1.49602e-18
-5e-05
2.77115e-19
-5e-05
-7.68884e-20
-5e-05
4.71362e-21
-5e-05
-4.14622e-21
-5e-05
4.7199e-22
-5e-05
-3.00588e-21
-5e-05
-5.16058e-21
-5e-05
-1.34201e-21
-5e-05
-1.16005e-21
-5e-05
-5.37877e-22
-5e-05
-9.69722e-22
-5e-05
-2.19276e-22
-5e-05
-3.57455e-22
-5e-05
-1.36935e-21
-5e-05
-5.25053e-21
-5e-05
-1.49084e-21
-5e-05
5.15361e-22
-5e-05
-2.13226e-21
-1.03393e-21
-5e-05
-5e-05
-5e-05
-5e-05
-5e-05
-5e-05
-5e-05
-5e-05
-5e-05
-5e-05
-5e-05
-5e-05
-5e-05
-5e-05
-5e-05
-5e-05
-5e-05
-5e-05
-5e-05
)
;

boundaryField
{
    movingWall
    {
        type            calculated;
        value           uniform -0;
    }
    fixedWalls
    {
        type            calculated;
        value           nonuniform List<scalar> 
60
(
5e-05
5e-05
5e-05
5e-05
5e-05
5e-05
5e-05
5e-05
5e-05
5e-05
5e-05
5e-05
5e-05
5e-05
5e-05
5e-05
5e-05
5e-05
5e-05
5e-05
-5e-05
-5e-05
-5e-05
-5e-05
-5e-05
-5e-05
-5e-05
-5e-05
-5e-05
-5e-05
-5e-05
-5e-05
-5e-05
-5e-05
-5e-05
-5e-05
-5e-05
-5e-05
-5e-05
-5e-05
0
0
0
0
0
0
0
0
0
0
0
0
0
0
0
0
0
0
0
0
)
;
    }
    frontAndBack
    {
        type            empty;
        value           nonuniform List<scalar> 0();
    }
}


// ************************************************************************* //
