/*--------------------------------*- C++ -*----------------------------------*\
| =========                 |                                                 |
| \\      /  F ield         | OpenFOAM: The Open Source CFD Toolbox           |
|  \\    /   O peration     | Version:  2312                                  |
|   \\  /    A nd           | Website:  www.openfoam.com                      |
|    \\/     M anipulation  |                                                 |
\*---------------------------------------------------------------------------*/
FoamFile
{
    version     2.0;
    format      ascii;
    arch        "LSB;label=32;scalar=64";
    class       volTensorField;
    location    "8.125";
    object      gradU;
}
// * * * * * * * * * * * * * * * * * * * * * * * * * * * * * * * * * * * * * //

dimensions      [0 0 -1 0 0 0 0];

internalField   nonuniform List<tensor> 
400
(
(1.6263e-13 3.36692e-12 0 0 5.59127e-12 0 0 0 0)
(0 -3.99122e-12 0 0 -1.079e-12 0 0 0 0)
(-5.42101e-14 7.98973e-13 0 0 2.79299e-13 0 0 0 0)
(-5.42101e-14 -2.07156e-13 0 2.71051e-14 -4.41327e-14 0 0 0 0)
(2.71051e-14 3.36557e-14 0 2.71051e-14 -3.24171e-15 0 0 0 0)
(0 -6.86487e-16 0 0 2.0639e-15 0 0 0 0)
(-2.71051e-14 1.59833e-15 0 0 1.1468e-14 0 0 0 0)
(0 -1.78451e-15 0 2.71051e-14 2.11898e-15 0 0 0 0)
(2.71051e-14 1.08663e-14 0 2.71051e-14 -4.16954e-15 0 0 0 0)
(0 1.22384e-14 0 0 1.20365e-14 0 0 0 0)
(-2.71051e-14 -5.7257e-15 0 0 2.05343e-14 0 0 0 0)
(0 -9.04301e-15 0 0 9.3407e-15 0 0 0 0)
(0 -1.35188e-15 0 0 6.26628e-15 0 0 0 0)
(0 7.16396e-15 0 -5.42101e-14 2.80858e-15 0 0 0 0)
(0 7.01982e-15 0 -8.13152e-14 4.47932e-15 0 0 0 0)
(-5.42101e-14 -4.59013e-15 0 -5.42101e-14 7.42014e-15 0 0 0 0)
(0 -1.15295e-14 0 -5.42101e-14 -1.05171e-15 0 0 0 0)
(2.71051e-14 -3.16245e-15 0 0 -3.67487e-15 0 0 0 0)
(0 4.63305e-15 0 0 1.04108e-14 0 0 0 0)
(-2.71051e-14 -6.81973e-15 0 0 9.40242e-15 0 0 0 0)
(-1.6263e-13 1.14535e-12 0 1.89735e-13 -7.18772e-12 0 0 0 0)
(5.42101e-14 -1.32075e-12 0 -1.6263e-13 1.42226e-12 0 0 0 0)
(0 2.35891e-13 0 -5.42101e-14 -3.48345e-13 0 0 0 0)
(5.42101e-14 -7.53852e-14 0 0 5.82887e-14 0 0 0 0)
(0 1.25409e-14 0 -5.42101e-14 -1.31751e-14 0 0 0 0)
(0 1.53962e-14 0 -5.42101e-14 -3.65565e-15 0 0 0 0)
(0 -1.54326e-15 0 -5.42101e-14 -8.63419e-15 0 0 0 0)
(2.71051e-14 -1.3853e-14 0 -2.71051e-14 -8.7218e-15 0 0 0 0)
(-2.71051e-14 -9.48789e-16 0 0 -8.14477e-15 0 0 0 0)
(0 1.24655e-14 0 -5.42101e-14 -1.67012e-14 0 0 0 0)
(0 3.0299e-15 0 -5.42101e-14 -1.50442e-14 0 0 0 0)
(0 -5.22504e-15 0 0 4.1575e-15 0 0 0 0)
(0 -5.18024e-15 0 0 1.89738e-14 0 0 0 0)
(-1.0842e-13 -8.95092e-15 0 0 1.91596e-14 0 0 0 0)
(5.42101e-14 -2.40826e-15 0 0 -8.97636e-15 0 0 0 0)
(5.42101e-14 -9.40897e-16 0 0 -2.2645e-14 0 0 0 0)
(8.13152e-14 4.34515e-16 0 -2.71051e-14 -2.91693e-14 0 0 0 0)
(0 1.4625e-14 0 -5.42101e-14 -1.43253e-14 0 0 0 0)
(0 8.44424e-15 0 -5.42101e-14 -1.06661e-14 0 0 0 0)
(0 -1.29935e-14 0 0 -5.2291e-15 0 0 0 0)
(2.1684e-13 -2.39854e-12 0 -6.77626e-13 -2.41155e-12 0 0 0 0)
(-2.1684e-13 2.84816e-12 0 2.71051e-13 4.36282e-13 0 0 0 0)
(5.42101e-14 -5.65e-13 0 1.0842e-13 -1.3132e-13 0 0 0 0)
(-2.71051e-14 1.28014e-13 0 2.71051e-14 5.44843e-15 0 0 0 0)
(0 -2.82886e-14 0 8.13152e-14 -1.06786e-14 0 0 0 0)
(0 3.85446e-15 0 1.0842e-13 -2.17361e-14 0 0 0 0)
(2.71051e-14 -3.46781e-15 0 1.0842e-13 -1.95326e-14 0 0 0 0)
(0 -1.29509e-15 0 5.42101e-14 1.79986e-15 0 0 0 0)
(2.71051e-14 2.88692e-15 0 2.71051e-14 1.49889e-14 0 0 0 0)
(-2.71051e-14 5.33894e-15 0 8.13152e-14 1.55727e-14 0 0 0 0)
(0 1.5133e-14 0 5.42101e-14 8.04667e-15 0 0 0 0)
(0 2.4975e-14 0 -5.42101e-14 7.6171e-15 0 0 0 0)
(0 1.36502e-14 0 2.71051e-14 8.39783e-15 0 0 0 0)
(0 -2.07862e-14 0 5.42101e-14 1.94856e-14 0 0 0 0)
(-5.42101e-14 -3.47848e-14 0 1.35525e-13 2.07988e-14 0 0 0 0)
(-8.13152e-14 -2.47831e-14 0 8.13152e-14 4.40575e-15 0 0 0 0)
(0 -3.20984e-15 0 8.13152e-14 -3.26724e-15 0 0 0 0)
(2.71051e-14 1.53408e-14 0 0 -9.72304e-15 0 0 0 0)
(5.42101e-14 1.37293e-14 0 0 -2.2394e-14 0 0 0 0)
(0 9.07543e-15 0 0 -8.76679e-15 0 0 0 0)
(-5.96311e-13 -8.29919e-13 0 4.87891e-13 5.98108e-12 0 0 0 0)
(7.58942e-13 9.59483e-13 0 -1.35525e-13 -1.21419e-12 0 0 0 0)
(-1.6263e-13 -1.94942e-13 0 0 2.79858e-13 0 0 0 0)
(0 4.52566e-14 0 0 -5.58192e-14 0 0 0 0)
(2.71051e-14 -1.46436e-14 0 0 1.12462e-14 0 0 0 0)
(0 6.54227e-15 0 0 -4.8505e-15 0 0 0 0)
(0 2.19927e-14 0 -5.42101e-14 1.08672e-15 0 0 0 0)
(-2.71051e-14 2.06685e-14 0 -5.42101e-14 5.62121e-15 0 0 0 0)
(-2.71051e-14 1.2824e-14 0 -5.42101e-14 9.34162e-15 0 0 0 0)
(-5.42101e-14 5.52319e-15 0 -2.71051e-14 1.85932e-14 0 0 0 0)
(0 -4.92567e-15 0 0 2.46855e-14 0 0 0 0)
(-2.71051e-14 -4.87388e-15 0 0 5.33858e-15 0 0 0 0)
(2.71051e-14 6.68827e-15 0 -2.71051e-14 -2.47177e-14 0 0 0 0)
(5.42101e-14 3.45002e-15 0 -5.42101e-14 -3.44806e-14 0 0 0 0)
(5.42101e-14 -1.74881e-14 0 0 -1.40017e-14 0 0 0 0)
(2.71051e-14 -2.50069e-14 0 2.71051e-14 3.65544e-15 0 0 0 0)
(-2.71051e-14 -1.36943e-14 0 5.42101e-14 2.10606e-14 0 0 0 0)
(-5.42101e-14 -4.50183e-15 0 1.0842e-13 2.0055e-14 0 0 0 0)
(0 9.40049e-15 0 8.13152e-14 1.33331e-14 0 0 0 0)
(0 1.81673e-14 0 0 7.22935e-15 0 0 0 0)
(5.42101e-13 2.36834e-12 0 1.6263e-13 -1.89897e-12 0 0 0 0)
(-7.04731e-13 -2.85306e-12 0 -1.35525e-13 4.13867e-13 0 0 0 0)
(1.89735e-13 5.93376e-13 0 -5.42101e-14 -9.10293e-14 0 0 0 0)
(-5.42101e-14 -1.40598e-13 0 -2.71051e-14 2.37562e-14 0 0 0 0)
(0 2.26801e-14 0 -2.71051e-14 4.26061e-15 0 0 0 0)
(-5.42101e-14 -6.30498e-15 0 -2.71051e-14 2.09623e-14 0 0 0 0)
(-2.71051e-14 7.0039e-15 0 -5.42101e-14 1.37205e-14 0 0 0 0)
(2.71051e-14 6.9598e-15 0 0 -4.5501e-15 0 0 0 0)
(8.13152e-14 1.58589e-14 0 -5.42101e-14 -1.52658e-14 0 0 0 0)
(0 2.06828e-14 0 -5.42101e-14 -1.74395e-14 0 0 0 0)
(2.71051e-14 1.87833e-15 0 -5.42101e-14 -1.59165e-14 0 0 0 0)
(0 -2.44282e-14 0 8.13152e-14 -7.00509e-15 0 0 0 0)
(-2.71051e-14 -2.6169e-14 0 5.42101e-14 -9.2995e-15 0 0 0 0)
(0 -1.00702e-14 0 5.42101e-14 -2.82997e-14 0 0 0 0)
(2.71051e-14 3.35131e-15 0 0 -2.56762e-14 0 0 0 0)
(0 1.02793e-14 0 0 -7.77123e-15 0 0 0 0)
(0 1.31897e-14 0 -2.71051e-14 1.60136e-14 0 0 0 0)
(0 7.61327e-15 0 -5.42101e-14 2.46254e-14 0 0 0 0)
(0 9.03657e-16 0 0 2.84596e-14 0 0 0 0)
(-5.42101e-14 -1.1487e-14 0 0 1.23383e-14 0 0 0 0)
(-5.42101e-13 -2.31502e-12 0 -2.1684e-13 -1.94607e-12 0 0 0 0)
(5.42101e-13 2.76742e-12 0 1.89735e-13 4.42735e-13 0 0 0 0)
(-5.42101e-14 -5.85053e-13 0 5.42101e-14 -1.16479e-13 0 0 0 0)
(8.13152e-14 1.40546e-13 0 2.71051e-14 1.8776e-14 0 0 0 0)
(0 -1.74375e-14 0 2.71051e-14 -2.76961e-16 0 0 0 0)
(-2.71051e-14 1.60022e-14 0 2.71051e-14 2.20647e-14 0 0 0 0)
(0 -3.51974e-15 0 5.42101e-14 2.8078e-14 0 0 0 0)
(-5.42101e-14 -8.31786e-15 0 5.42101e-14 2.42245e-14 0 0 0 0)
(-2.71051e-14 -6.53673e-17 0 8.13152e-14 1.18963e-14 0 0 0 0)
(0 4.87255e-15 0 5.42101e-14 -1.48136e-14 0 0 0 0)
(2.71051e-14 5.50873e-15 0 5.42101e-14 -3.90969e-14 0 0 0 0)
(8.13152e-14 1.74309e-15 0 0 -3.50008e-14 0 0 0 0)
(2.71051e-14 -1.46063e-14 0 0 -9.23371e-15 0 0 0 0)
(-2.71051e-14 -1.29267e-14 0 5.42101e-14 1.00502e-14 0 0 0 0)
(0 3.04033e-15 0 -2.71051e-14 2.55963e-14 0 0 0 0)
(0 1.66829e-14 0 -2.71051e-14 2.85652e-14 0 0 0 0)
(-2.71051e-14 1.87024e-14 0 -2.71051e-14 1.6002e-14 0 0 0 0)
(0 7.94421e-15 0 -5.42101e-14 -3.36526e-15 0 0 0 0)
(0 -2.88668e-15 0 -2.71051e-14 2.80706e-15 0 0 0 0)
(0 -2.26306e-14 0 2.71051e-14 -7.45748e-16 0 0 0 0)
(5.69206e-13 8.65005e-13 0 -5.69206e-13 5.82627e-12 0 0 0 0)
(-4.60786e-13 -1.02347e-12 0 8.13152e-14 -1.28819e-12 0 0 0 0)
(0 1.69417e-13 0 -1.35525e-13 3.08043e-13 0 0 0 0)
(-8.13152e-14 -2.4396e-14 0 -2.71051e-14 -7.30621e-14 0 0 0 0)
(2.71051e-14 2.59689e-14 0 -8.13152e-14 3.41733e-15 0 0 0 0)
(0 2.205e-14 0 -5.42101e-14 -2.35058e-14 0 0 0 0)
(0 9.16363e-15 0 0 -1.28062e-14 0 0 0 0)
(5.42101e-14 -9.22192e-15 0 -2.71051e-14 5.42327e-15 0 0 0 0)
(-2.71051e-14 -2.31791e-14 0 0 2.2781e-14 0 0 0 0)
(-2.71051e-14 -3.03104e-14 0 2.71051e-14 1.95812e-14 0 0 0 0)
(-2.71051e-14 -1.83089e-14 0 2.71051e-14 1.20883e-14 0 0 0 0)
(0 5.43503e-15 0 -8.13152e-14 -1.21652e-14 0 0 0 0)
(2.71051e-14 1.8882e-14 0 -5.42101e-14 -6.40884e-15 0 0 0 0)
(0 2.47599e-14 0 -5.42101e-14 1.39844e-14 0 0 0 0)
(-2.71051e-14 2.18663e-14 0 -8.13152e-14 1.50918e-14 0 0 0 0)
(-2.71051e-14 6.84912e-16 0 -1.0842e-13 1.61359e-14 0 0 0 0)
(-5.42101e-14 -1.87408e-14 0 0 1.06297e-15 0 0 0 0)
(5.42101e-14 -5.58162e-15 0 0 -1.10813e-14 0 0 0 0)
(2.71051e-14 3.52317e-15 0 -5.42101e-14 -1.54366e-14 0 0 0 0)
(-2.71051e-14 -1.35483e-14 0 0 -1.02233e-14 0 0 0 0)
(-1.0571e-12 2.22306e-12 0 1.54499e-12 -6.10358e-12 0 0 0 0)
(1.00289e-12 -2.7508e-12 0 -3.52366e-13 1.24242e-12 0 0 0 0)
(-1.6263e-13 6.30077e-13 0 8.13152e-14 -2.84215e-13 0 0 0 0)
(1.35525e-13 -1.64079e-13 0 0 5.65162e-14 0 0 0 0)
(0 3.21188e-14 0 5.42101e-14 -1.49417e-14 0 0 0 0)
(0 -2.21347e-16 0 -5.42101e-14 -3.45927e-15 0 0 0 0)
(2.71051e-14 2.54093e-14 0 -5.42101e-14 -1.5581e-14 0 0 0 0)
(0 2.72693e-14 0 -8.13152e-14 -1.09253e-14 0 0 0 0)
(5.42101e-14 1.40925e-14 0 -8.13152e-14 -4.01377e-15 0 0 0 0)
(0 -5.82018e-15 0 -8.13152e-14 1.22271e-14 0 0 0 0)
(-5.42101e-14 -2.62377e-14 0 -2.71051e-14 2.94e-14 0 0 0 0)
(0 -1.6754e-14 0 -2.71051e-14 1.85304e-14 0 0 0 0)
(-2.71051e-14 1.15433e-14 0 0 -3.59016e-15 0 0 0 0)
(-5.42101e-14 8.5739e-15 0 -5.42101e-14 -7.46085e-15 0 0 0 0)
(0 5.19183e-15 0 0 -1.7179e-14 0 0 0 0)
(5.42101e-14 2.65412e-15 0 2.71051e-14 -1.62851e-14 0 0 0 0)
(8.13152e-14 -8.51473e-15 0 0 -4.65243e-15 0 0 0 0)
(-5.42101e-14 -8.55538e-15 0 5.42101e-14 9.89134e-15 0 0 0 0)
(5.42101e-14 -2.02871e-15 0 5.42101e-14 -8.94738e-15 0 0 0 0)
(0 3.02933e-15 0 -2.71051e-14 -8.88069e-15 0 0 0 0)
(1.76183e-12 -3.99615e-12 0 -2.71051e-13 -7.87012e-13 0 0 0 0)
(-1.89735e-12 4.79589e-12 0 8.13152e-14 2.99352e-13 0 0 0 0)
(3.52366e-13 -1.01648e-12 0 8.13152e-14 -5.57707e-14 0 0 0 0)
(-1.6263e-13 2.44877e-13 0 -5.42101e-14 4.27948e-14 0 0 0 0)
(0 -3.40066e-14 0 -5.42101e-14 2.71321e-14 0 0 0 0)
(-5.42101e-14 2.14106e-14 0 0 4.16532e-14 0 0 0 0)
(-8.13152e-14 1.69763e-15 0 0 2.4608e-14 0 0 0 0)
(0 2.34535e-15 0 -2.71051e-14 -5.92006e-15 0 0 0 0)
(0 -2.66838e-17 0 0 -2.88781e-14 0 0 0 0)
(0 3.10334e-15 0 5.42101e-14 -2.96959e-14 0 0 0 0)
(2.71051e-14 -1.20056e-14 0 2.71051e-14 -1.71268e-14 0 0 0 0)
(5.42101e-14 -2.75551e-14 0 8.13152e-14 8.6456e-15 0 0 0 0)
(0 -7.10927e-15 0 2.71051e-14 -2.65162e-15 0 0 0 0)
(5.42101e-14 1.1171e-14 0 0 -1.6048e-14 0 0 0 0)
(0 1.3042e-14 0 0 -1.02655e-14 0 0 0 0)
(-2.71051e-14 1.32115e-14 0 8.13152e-14 5.19568e-16 0 0 0 0)
(-2.71051e-14 7.43569e-15 0 -5.42101e-14 7.07341e-15 0 0 0 0)
(0 -9.87657e-15 0 0 3.03294e-15 0 0 0 0)
(0 -1.52489e-14 0 0 -1.81201e-15 0 0 0 0)
(0 4.27973e-15 0 0 2.11894e-15 0 0 0 0)
(-1.24683e-12 1.7354e-12 0 -1.95156e-12 5.25033e-12 0 0 0 0)
(1.32815e-12 -2.01956e-12 0 2.98156e-13 -1.15432e-12 0 0 0 0)
(-2.71051e-13 3.73519e-13 0 -1.6263e-13 2.8468e-13 0 0 0 0)
(5.42101e-14 -8.11767e-14 0 5.42101e-14 -4.97556e-14 0 0 0 0)
(0 3.09772e-14 0 0 8.94664e-15 0 0 0 0)
(5.42101e-14 -2.74543e-15 0 5.42101e-14 -2.85104e-14 0 0 0 0)
(2.71051e-14 -2.2164e-14 0 8.13152e-14 -2.96615e-14 0 0 0 0)
(5.42101e-14 -2.62168e-14 0 1.0842e-13 -3.46102e-14 0 0 0 0)
(5.42101e-14 -9.68328e-15 0 1.0842e-13 -3.11364e-14 0 0 0 0)
(0 5.93114e-15 0 5.42101e-14 -1.47725e-14 0 0 0 0)
(0 1.21038e-14 0 5.42101e-14 -3.05709e-15 0 0 0 0)
(0 -2.27883e-15 0 5.42101e-14 2.03882e-14 0 0 0 0)
(-1.0842e-13 -1.31503e-14 0 2.71051e-14 3.87725e-14 0 0 0 0)
(-2.71051e-14 9.59996e-16 0 5.42101e-14 2.27492e-14 0 0 0 0)
(0 2.17594e-14 0 0 5.32698e-15 0 0 0 0)
(8.13152e-14 1.99931e-14 0 -1.0842e-13 -1.57881e-14 0 0 0 0)
(0 -6.00136e-15 0 5.42101e-14 -1.97253e-14 0 0 0 0)
(0 -1.74408e-14 0 0 -1.78211e-14 0 0 0 0)
(2.71051e-14 -2.9427e-15 0 0 -4.00548e-15 0 0 0 0)
(-2.71051e-14 2.7224e-15 0 2.71051e-14 3.48266e-15 0 0 0 0)
(1.35525e-13 9.98531e-14 0 2.71051e-12 -1.60454e-12 0 0 0 0)
(-1.35525e-13 -1.69757e-13 0 -3.52366e-13 3.35588e-13 0 0 0 0)
(8.13152e-14 8.80832e-14 0 2.71051e-13 -7.48697e-14 0 0 0 0)
(-2.71051e-14 -3.08562e-14 0 5.42101e-14 3.08017e-14 0 0 0 0)
(0 -1.27614e-14 0 1.6263e-13 1.75242e-15 0 0 0 0)
(2.71051e-14 -1.71975e-14 0 8.13152e-14 -7.36221e-15 0 0 0 0)
(2.71051e-14 -4.40214e-15 0 5.42101e-14 -1.38003e-14 0 0 0 0)
(-2.71051e-14 8.70471e-16 0 2.71051e-14 -7.55869e-16 0 0 0 0)
(-2.71051e-14 1.9811e-14 0 0 9.1171e-15 0 0 0 0)
(2.71051e-14 3.11826e-14 0 -5.42101e-14 8.04867e-15 0 0 0 0)
(0 2.31551e-14 0 -5.42101e-14 6.62753e-15 0 0 0 0)
(-2.71051e-14 1.42745e-14 0 0 1.2929e-14 0 0 0 0)
(0 -4.74829e-15 0 -5.42101e-14 1.50936e-14 0 0 0 0)
(0 -2.22745e-14 0 2.71051e-14 2.53609e-14 0 0 0 0)
(-1.0842e-13 -2.54953e-14 0 1.0842e-13 2.904e-14 0 0 0 0)
(-2.71051e-14 -1.18408e-14 0 8.13152e-14 2.85973e-16 0 0 0 0)
(8.13152e-14 5.40264e-15 0 0 -2.16607e-14 0 0 0 0)
(2.71051e-14 5.8432e-15 0 0 -8.84873e-15 0 0 0 0)
(-2.71051e-14 6.05492e-15 0 0 3.40321e-15 0 0 0 0)
(0 4.80255e-15 0 2.71051e-14 -9.10665e-16 0 0 0 0)
(1.11131e-12 4.66448e-13 0 -1.5992e-12 -1.27489e-12 0 0 0 0)
(-1.0842e-12 -4.89896e-13 0 2.71051e-13 3.30301e-13 0 0 0 0)
(1.6263e-13 6.8733e-14 0 -1.89735e-13 -6.63144e-14 0 0 0 0)
(-8.13152e-14 -4.55453e-15 0 -2.71051e-14 3.02567e-14 0 0 0 0)
(2.71051e-14 -7.18665e-15 0 -5.42101e-14 1.67777e-14 0 0 0 0)
(-5.42101e-14 -1.82981e-14 0 -8.13152e-14 3.51841e-14 0 0 0 0)
(-2.71051e-14 -1.55576e-14 0 -8.13152e-14 3.41096e-14 0 0 0 0)
(-2.71051e-14 -3.29946e-15 0 -1.35525e-13 3.72942e-14 0 0 0 0)
(-8.13152e-14 -8.78746e-16 0 -1.0842e-13 3.95577e-14 0 0 0 0)
(-2.71051e-14 3.44157e-15 0 -8.13152e-14 7.24832e-15 0 0 0 0)
(2.71051e-14 1.69841e-14 0 -1.0842e-13 -2.13362e-14 0 0 0 0)
(0 6.18723e-15 0 -5.42101e-14 -2.86152e-14 0 0 0 0)
(5.42101e-14 -7.18367e-16 0 0 -2.78825e-14 0 0 0 0)
(2.71051e-14 1.49064e-14 0 -2.71051e-14 -1.43264e-14 0 0 0 0)
(2.71051e-14 -3.31556e-15 0 -5.42101e-14 1.02902e-15 0 0 0 0)
(0 -3.07077e-14 0 5.42101e-14 1.64615e-14 0 0 0 0)
(-5.42101e-14 -1.51361e-14 0 2.71051e-14 1.31698e-14 0 0 0 0)
(0 7.62314e-15 0 -5.42101e-14 2.99646e-15 0 0 0 0)
(2.71051e-14 4.99536e-15 0 0 2.66964e-15 0 0 0 0)
(-2.71051e-14 2.29861e-16 0 -2.71051e-14 3.11623e-15 0 0 0 0)
(-1.19262e-12 -8.44739e-13 0 -7.31836e-13 -1.40248e-12 0 0 0 0)
(1.21973e-12 1.03882e-12 0 1.0842e-13 1.84511e-13 0 0 0 0)
(-2.1684e-13 -2.11961e-13 0 -8.13152e-14 -5.39826e-14 0 0 0 0)
(1.0842e-13 5.22359e-14 0 -8.13152e-14 -3.95052e-15 0 0 0 0)
(0 -7.83403e-15 0 -5.42101e-14 -7.78322e-15 0 0 0 0)
(0 1.34385e-16 0 -5.42101e-14 -7.18489e-15 0 0 0 0)
(0 -2.292e-15 0 0 1.07859e-14 0 0 0 0)
(-5.42101e-14 6.31862e-15 0 2.71051e-14 1.28114e-14 0 0 0 0)
(5.42101e-14 -1.02349e-14 0 5.42101e-14 8.32849e-16 0 0 0 0)
(0 -2.97113e-14 0 8.13152e-14 -3.47703e-15 0 0 0 0)
(0 -1.27084e-14 0 8.13152e-14 -1.56982e-14 0 0 0 0)
(8.13152e-14 7.72815e-15 0 2.71051e-14 -2.97851e-14 0 0 0 0)
(-5.42101e-14 9.54049e-15 0 5.42101e-14 1.93244e-15 0 0 0 0)
(-2.71051e-14 6.63707e-15 0 0 -4.74518e-15 0 0 0 0)
(2.71051e-14 5.29264e-15 0 0 -2.68966e-14 0 0 0 0)
(5.42101e-14 3.00035e-16 0 -2.71051e-14 -1.6678e-14 0 0 0 0)
(0 -8.0624e-15 0 0 1.92449e-15 0 0 0 0)
(0 -4.65697e-15 0 8.13152e-14 6.96245e-15 0 0 0 0)
(0 6.17469e-15 0 0 8.01467e-15 0 0 0 0)
(0 -9.83314e-16 0 0 5.15125e-15 0 0 0 0)
(4.06576e-13 -7.51526e-13 0 1.35525e-12 3.83603e-12 0 0 0 0)
(-3.52366e-13 8.58607e-13 0 -2.71051e-13 -7.86416e-13 0 0 0 0)
(0 -1.19728e-13 0 1.35525e-13 1.76951e-13 0 0 0 0)
(0 4.16449e-14 0 5.42101e-14 -4.22071e-14 0 0 0 0)
(0 -1.0421e-14 0 5.42101e-14 -5.69279e-15 0 0 0 0)
(0 2.70969e-16 0 5.42101e-14 -1.5629e-14 0 0 0 0)
(0 4.43863e-15 0 5.42101e-14 -1.43822e-14 0 0 0 0)
(2.71051e-14 -1.32525e-14 0 8.13152e-14 -1.84512e-14 0 0 0 0)
(0 -1.71672e-14 0 5.42101e-14 -2.20884e-14 0 0 0 0)
(0 -1.30895e-14 0 5.42101e-14 -1.8823e-15 0 0 0 0)
(0 -9.32391e-15 0 5.42101e-14 1.53259e-14 0 0 0 0)
(0 2.38178e-14 0 0 1.31107e-14 0 0 0 0)
(-2.71051e-14 2.43215e-14 0 -2.71051e-14 8.58933e-15 0 0 0 0)
(0 -1.39226e-14 0 5.42101e-14 1.18344e-14 0 0 0 0)
(0 -1.52484e-14 0 0 1.38564e-14 0 0 0 0)
(-2.71051e-14 -1.88658e-15 0 -2.71051e-14 8.01542e-15 0 0 0 0)
(0 8.50441e-15 0 -2.71051e-14 6.95906e-17 0 0 0 0)
(-2.71051e-14 1.37133e-14 0 -8.13152e-14 3.98979e-15 0 0 0 0)
(2.71051e-14 3.18416e-15 0 0 4.81577e-15 0 0 0 0)
(-2.71051e-14 -1.29361e-14 0 0 2.73182e-15 0 0 0 0)
(0 2.20488e-12 0 -9.21572e-13 -2.58703e-12 0 0 0 0)
(-8.13152e-14 -2.62026e-12 0 1.0842e-13 5.61537e-13 0 0 0 0)
(2.71051e-14 5.32247e-13 0 -1.35525e-13 -1.38415e-13 0 0 0 0)
(5.42101e-14 -1.30408e-13 0 0 1.34276e-14 0 0 0 0)
(2.71051e-14 1.8744e-14 0 -5.42101e-14 -1.48767e-14 0 0 0 0)
(-2.71051e-14 -8.55498e-15 0 0 7.84719e-15 0 0 0 0)
(0 -5.11417e-15 0 -5.42101e-14 -1.33722e-14 0 0 0 0)
(2.71051e-14 -1.38767e-15 0 -2.71051e-14 -1.27813e-14 0 0 0 0)
(0 6.33399e-15 0 -1.0842e-13 1.14559e-14 0 0 0 0)
(-2.71051e-14 7.70303e-15 0 -5.42101e-14 1.80677e-14 0 0 0 0)
(0 2.28462e-15 0 -1.35525e-13 1.93536e-14 0 0 0 0)
(-5.42101e-14 9.91575e-16 0 -1.0842e-13 1.30778e-14 0 0 0 0)
(5.42101e-14 8.26418e-15 0 -1.0842e-13 -1.93186e-14 0 0 0 0)
(0 1.19042e-14 0 -5.42101e-14 -7.25646e-15 0 0 0 0)
(-5.42101e-14 1.47368e-15 0 -5.42101e-14 1.26402e-14 0 0 0 0)
(0 -1.34868e-14 0 0 2.10041e-14 0 0 0 0)
(-2.71051e-14 -1.2088e-14 0 0 1.15485e-14 0 0 0 0)
(2.71051e-14 8.92067e-17 0 0 -1.17207e-14 0 0 0 0)
(8.13152e-14 4.91672e-15 0 0 -1.74533e-14 0 0 0 0)
(-2.71051e-14 -8.5309e-15 0 -2.71051e-14 -3.3681e-15 0 0 0 0)
(-4.33681e-13 -2.77702e-12 0 -2.71051e-13 -2.07883e-12 0 0 0 0)
(4.33681e-13 3.30723e-12 0 1.0842e-13 3.97244e-13 0 0 0 0)
(-5.42101e-14 -6.67838e-13 0 0 -1.12484e-13 0 0 0 0)
(8.13152e-14 1.65183e-13 0 0 7.11927e-15 0 0 0 0)
(-2.71051e-14 -1.60014e-14 0 -5.42101e-14 -1.76135e-15 0 0 0 0)
(0 1.77548e-15 0 0 1.00642e-14 0 0 0 0)
(0 -1.61898e-14 0 2.71051e-14 1.4703e-14 0 0 0 0)
(-5.42101e-14 1.15756e-14 0 5.42101e-14 1.35047e-14 0 0 0 0)
(0 1.36818e-14 0 5.42101e-14 1.38034e-14 0 0 0 0)
(-2.71051e-14 -5.19177e-15 0 2.71051e-14 1.86138e-14 0 0 0 0)
(0 -1.43139e-14 0 2.71051e-14 1.95008e-14 0 0 0 0)
(0 -1.48544e-14 0 2.71051e-14 3.66209e-15 0 0 0 0)
(0 3.9873e-15 0 0 -1.25748e-14 0 0 0 0)
(2.71051e-14 1.80362e-14 0 -5.42101e-14 -2.59708e-14 0 0 0 0)
(5.42101e-14 1.30121e-14 0 -2.71051e-14 -2.92142e-14 0 0 0 0)
(0 -2.97829e-15 0 2.71051e-14 -5.46427e-15 0 0 0 0)
(0 -2.42204e-14 0 2.71051e-14 9.8087e-15 0 0 0 0)
(0 -1.52884e-14 0 5.42101e-14 6.76108e-17 0 0 0 0)
(0 1.15368e-14 0 0 -1.06303e-14 0 0 0 0)
(0 7.88532e-15 0 2.71051e-14 -6.56894e-15 0 0 0 0)
(-1.89735e-13 5.23292e-13 0 8.13152e-14 7.49981e-12 0 0 0 0)
(2.43945e-13 -6.53914e-13 0 -8.13152e-14 -1.52184e-12 0 0 0 0)
(-1.0842e-13 1.42122e-13 0 -5.42101e-14 3.36994e-13 0 0 0 0)
(-2.71051e-14 -1.96853e-14 0 -8.13152e-14 -8.7635e-14 0 0 0 0)
(2.71051e-14 2.16889e-14 0 -8.13152e-14 -1.5729e-14 0 0 0 0)
(5.42101e-14 7.90936e-15 0 -5.42101e-14 -2.81043e-14 0 0 0 0)
(5.42101e-14 -1.67368e-15 0 -8.13152e-14 -1.73148e-15 0 0 0 0)
(0 -2.28729e-15 0 -5.42101e-14 2.47184e-16 0 0 0 0)
(0 1.14431e-14 0 -5.42101e-14 -1.02524e-14 0 0 0 0)
(0 1.34004e-14 0 0 1.21089e-15 0 0 0 0)
(-2.71051e-14 -1.26671e-14 0 8.13152e-14 1.47856e-14 0 0 0 0)
(-2.71051e-14 -3.1084e-14 0 5.42101e-14 2.88755e-14 0 0 0 0)
(-5.42101e-14 -2.13687e-14 0 8.13152e-14 3.4502e-14 0 0 0 0)
(0 -4.73525e-15 0 0 1.13773e-14 0 0 0 0)
(0 2.19802e-14 0 0 -1.74262e-14 0 0 0 0)
(1.0842e-13 2.55361e-14 0 -8.13152e-14 -3.3315e-14 0 0 0 0)
(0 -6.55614e-15 0 0 -9.70937e-15 0 0 0 0)
(-5.42101e-14 -2.03498e-14 0 2.71051e-14 1.35084e-14 0 0 0 0)
(2.71051e-14 -1.71984e-15 0 0 8.51966e-15 0 0 0 0)
(-2.71051e-14 8.66835e-15 0 2.71051e-14 -4.79919e-15 0 0 0 0)
(-4.87891e-13 3.20094e-12 0 7.31836e-13 -3.7971e-12 0 0 0 0)
(3.52366e-13 -3.85559e-12 0 -2.43945e-13 7.314e-13 0 0 0 0)
(-5.42101e-14 7.66372e-13 0 -5.42101e-14 -1.90307e-13 0 0 0 0)
(1.0842e-13 -1.8754e-13 0 0 1.58028e-14 0 0 0 0)
(0 4.35292e-14 0 5.42101e-14 -1.71187e-14 0 0 0 0)
(0 1.5773e-14 0 -2.71051e-14 -8.45536e-15 0 0 0 0)
(0 1.21617e-14 0 -8.13152e-14 -1.66988e-14 0 0 0 0)
(0 3.05474e-15 0 -8.13152e-14 -1.67672e-14 0 0 0 0)
(0 1.46455e-14 0 -2.71051e-14 -1.2342e-14 0 0 0 0)
(2.71051e-14 1.98462e-14 0 -8.13152e-14 -2.37397e-14 0 0 0 0)
(5.42101e-14 1.33508e-14 0 -2.71051e-14 -2.70456e-14 0 0 0 0)
(2.71051e-14 4.86207e-15 0 -5.42101e-14 -3.18675e-15 0 0 0 0)
(-2.71051e-14 -1.35109e-14 0 -5.42101e-14 2.04222e-14 0 0 0 0)
(-8.13152e-14 -3.38921e-14 0 5.42101e-14 2.4338e-14 0 0 0 0)
(0 -3.16802e-14 0 8.13152e-14 9.03709e-15 0 0 0 0)
(2.71051e-14 4.73857e-15 0 5.42101e-14 -2.78793e-14 0 0 0 0)
(5.42101e-14 2.2603e-14 0 -2.71051e-14 -2.30465e-14 0 0 0 0)
(0 2.94058e-15 0 -8.13152e-14 -1.28962e-15 0 0 0 0)
(0 -6.77078e-15 0 0 3.95661e-15 0 0 0 0)
(0 4.16484e-15 0 -2.71051e-14 -2.67716e-15 0 0 0 0)
(3.52366e-13 -2.54241e-12 0 6.50521e-13 -6.88909e-12 0 0 0 0)
(-5.42101e-13 2.95288e-12 0 1.0842e-13 1.35493e-12 0 0 0 0)
(1.0842e-13 -5.73474e-13 0 2.71051e-13 -3.09847e-13 0 0 0 0)
(0 1.53503e-13 0 1.0842e-13 7.24283e-14 0 0 0 0)
(-5.42101e-14 -2.5693e-15 0 1.35525e-13 1.5158e-14 0 0 0 0)
(0 8.32924e-15 0 8.13152e-14 1.45019e-14 0 0 0 0)
(5.42101e-14 -9.98556e-15 0 1.6263e-13 -4.3828e-15 0 0 0 0)
(2.71051e-14 2.06951e-15 0 1.0842e-13 -1.02045e-14 0 0 0 0)
(0 4.47069e-15 0 1.0842e-13 -2.85158e-15 0 0 0 0)
(0 -1.30314e-15 0 5.42101e-14 -1.33186e-14 0 0 0 0)
(-2.71051e-14 7.88583e-15 0 2.71051e-14 -1.81781e-14 0 0 0 0)
(0 1.63837e-14 0 5.42101e-14 -3.37939e-14 0 0 0 0)
(2.71051e-14 6.15603e-15 0 8.13152e-14 -3.81495e-14 0 0 0 0)
(1.0842e-13 -1.61203e-14 0 5.42101e-14 -2.399e-14 0 0 0 0)
(0 -3.02371e-14 0 5.42101e-14 7.26257e-15 0 0 0 0)
(-2.71051e-14 -6.54746e-15 0 5.42101e-14 1.8355e-14 0 0 0 0)
(-2.71051e-14 2.00336e-14 0 -5.42101e-14 8.58553e-15 0 0 0 0)
(0 6.6533e-15 0 5.42101e-14 -1.21797e-15 0 0 0 0)
(2.71051e-14 -3.10738e-15 0 2.71051e-14 -3.57402e-15 0 0 0 0)
(-2.71051e-14 7.38891e-15 0 0 2.46304e-15 0 0 0 0)
(2.98156e-13 -2.33321e-12 0 -7.04731e-13 5.98408e-12 0 0 0 0)
(-8.13152e-14 2.72365e-12 0 8.13152e-14 -1.10846e-12 0 0 0 0)
(-2.71051e-14 -5.16132e-13 0 -8.13152e-14 3.07554e-13 0 0 0 0)
(-5.42101e-14 1.37465e-13 0 -2.71051e-14 -1.88545e-14 0 0 0 0)
(0 -1.43972e-14 0 -5.42101e-14 1.65849e-14 0 0 0 0)
(0 -3.76789e-15 0 0 -1.88796e-15 0 0 0 0)
(0 -1.25447e-14 0 -2.71051e-14 1.20235e-14 0 0 0 0)
(-5.42101e-14 4.58596e-15 0 -2.71051e-14 2.06423e-14 0 0 0 0)
(-2.71051e-14 1.15314e-14 0 -2.71051e-14 5.36804e-15 0 0 0 0)
(0 4.51968e-15 0 0 4.64019e-15 0 0 0 0)
(2.71051e-14 -7.12453e-15 0 -2.71051e-14 2.15151e-15 0 0 0 0)
(0 -1.51093e-14 0 0 3.87889e-15 0 0 0 0)
(0 -3.70697e-15 0 -2.71051e-14 8.77105e-16 0 0 0 0)
(-2.71051e-14 1.152e-14 0 -5.42101e-14 1.42982e-15 0 0 0 0)
(0 1.06648e-14 0 -5.42101e-14 5.47742e-15 0 0 0 0)
(-5.42101e-14 6.06153e-15 0 -5.42101e-14 2.10021e-14 0 0 0 0)
(0 3.03001e-15 0 5.42101e-14 5.96335e-15 0 0 0 0)
(2.71051e-14 -9.21898e-15 0 0 -2.06145e-15 0 0 0 0)
(0 -3.08977e-15 0 -2.71051e-14 8.52902e-15 0 0 0 0)
(-2.71051e-14 5.27582e-15 0 -2.71051e-14 4.13571e-15 0 0 0 0)
)
;

boundaryField
{
    movingWall
    {
        type            extrapolatedCalculated;
        value           nonuniform List<tensor> 
20
(
(2.98156e-13 -2.33321e-12 0 -8.88178e-13 1.14577e-11 0 0 0 0)
(-8.13152e-14 2.72365e-12 0 -3.10862e-13 -2.12484e-12 0 0 0 0)
(-2.71051e-14 -5.16132e-13 0 -5.32907e-13 5.63093e-13 0 0 0 0)
(-5.42101e-14 1.37465e-13 0 -2.22045e-13 -6.03116e-14 0 0 0 0)
(0 -1.43972e-14 0 -3.10862e-13 1.32309e-14 0 0 0 0)
(0 -3.76789e-15 0 -2.66454e-13 -2.72264e-15 0 0 0 0)
(0 -1.25447e-14 0 -3.10862e-13 2.83024e-14 0 0 0 0)
(-5.42101e-14 4.58596e-15 0 -1.77636e-13 4.74562e-14 0 0 0 0)
(-2.71051e-14 1.15314e-14 0 -1.77636e-13 9.95863e-15 0 0 0 0)
(0 4.51968e-15 0 -8.88178e-14 1.33048e-15 0 0 0 0)
(2.71051e-14 -7.12453e-15 0 -1.77636e-13 -8.1201e-15 0 0 0 0)
(0 -1.51093e-14 0 -1.77636e-13 2.98286e-14 0 0 0 0)
(0 -3.70697e-15 0 -2.22045e-13 5.23172e-14 0 0 0 0)
(-2.71051e-14 1.152e-14 0 -1.33227e-13 4.46565e-14 0 0 0 0)
(0 1.06648e-14 0 -8.88178e-14 6.23721e-15 0 0 0 0)
(-5.42101e-14 6.06153e-15 0 -4.44089e-14 1.99727e-15 0 0 0 0)
(0 3.03001e-15 0 8.88178e-14 -1.80089e-14 0 0 0 0)
(2.71051e-14 -9.21898e-15 0 0 -1.01228e-14 0 0 0 0)
(0 -3.08977e-15 0 -4.44089e-14 1.8867e-14 0 0 0 0)
(-2.71051e-14 5.27582e-15 0 -4.44089e-14 2.23631e-15 0 0 0 0)
)
;
    }
    fixedWalls
    {
        type            extrapolatedCalculated;
        value           nonuniform List<tensor> 
60
(
(3.10862e-13 1.68044e-11 0 0 5.59127e-12 0 0 0 0)
(-3.55271e-13 5.5607e-12 0 1.89735e-13 -7.18772e-12 0 0 0 0)
(1.11022e-12 -1.19465e-11 0 -6.77626e-13 -2.41155e-12 0 0 0 0)
(-3.01981e-12 -4.08551e-12 0 4.87891e-13 5.98108e-12 0 0 0 0)
(3.01981e-12 1.19778e-11 0 1.6263e-13 -1.89897e-12 0 0 0 0)
(-2.39808e-12 -1.16814e-11 0 -2.1684e-13 -1.94607e-12 0 0 0 0)
(2.26485e-12 4.19351e-12 0 -5.69206e-13 5.82627e-12 0 0 0 0)
(-4.79616e-12 1.16237e-11 0 1.54499e-12 -6.10358e-12 0 0 0 0)
(8.43769e-12 -2.02208e-11 0 -2.71051e-13 -7.87012e-13 0 0 0 0)
(-5.86198e-12 8.47564e-12 0 -1.95156e-12 5.25033e-12 0 0 0 0)
(7.99361e-13 7.80526e-13 0 2.71051e-12 -1.60454e-12 0 0 0 0)
(4.84057e-12 2.05749e-12 0 -1.5992e-12 -1.27489e-12 0 0 0 0)
(-5.50671e-12 -4.31905e-12 0 -7.31836e-13 -1.40248e-12 0 0 0 0)
(1.68754e-12 -3.55245e-12 0 1.35525e-12 3.83603e-12 0 0 0 0)
(8.88178e-14 1.10251e-11 0 -9.21572e-13 -2.58703e-12 0 0 0 0)
(-2.04281e-12 -1.39006e-11 0 -2.71051e-13 -2.07883e-12 0 0 0 0)
(-8.88178e-13 2.70976e-12 0 8.13152e-14 7.49981e-12 0 0 0 0)
(-1.86517e-12 1.60987e-11 0 7.31836e-13 -3.7971e-12 0 0 0 0)
(1.9984e-12 -1.24786e-11 0 6.50521e-13 -6.88909e-12 0 0 0 0)
(8.88178e-13 -1.14577e-11 0 -7.04731e-13 5.98408e-12 0 0 0 0)
(-4.44089e-14 -1.58598e-14 0 0 9.40242e-15 0 0 0 0)
(0 -2.17498e-14 0 0 -5.2291e-15 0 0 0 0)
(0 5.05655e-15 0 0 -8.76679e-15 0 0 0 0)
(0 1.33173e-14 0 0 7.22935e-15 0 0 0 0)
(-4.44089e-14 -2.38609e-14 0 0 1.23383e-14 0 0 0 0)
(0 -3.60357e-14 0 2.71051e-14 -7.45748e-16 0 0 0 0)
(-8.88178e-14 -2.08779e-14 0 0 -1.02233e-14 0 0 0 0)
(0 4.85746e-15 0 -2.71051e-14 -8.88069e-15 0 0 0 0)
(0 1.46449e-14 0 0 2.11894e-15 0 0 0 0)
(-4.44089e-14 -3.61832e-15 0 2.71051e-14 3.48266e-15 0 0 0 0)
(-4.44089e-14 7.14274e-16 0 2.71051e-14 -9.10665e-16 0 0 0 0)
(-8.88178e-14 2.43452e-17 0 -2.71051e-14 3.11623e-15 0 0 0 0)
(0 -1.17506e-14 0 0 5.15125e-15 0 0 0 0)
(-4.44089e-14 -2.05806e-14 0 0 2.73182e-15 0 0 0 0)
(-4.44089e-14 -2.26779e-14 0 -2.71051e-14 -3.3681e-15 0 0 0 0)
(0 -7.10826e-15 0 2.71051e-14 -6.56894e-15 0 0 0 0)
(-8.88178e-14 3.59787e-15 0 2.71051e-14 -4.79919e-15 0 0 0 0)
(-4.44089e-14 1.20885e-14 0 -2.71051e-14 -2.67716e-15 0 0 0 0)
(-4.44089e-14 1.43065e-14 0 0 2.46304e-15 0 0 0 0)
(-4.44089e-14 2.23631e-15 0 -2.71051e-14 4.13571e-15 0 0 0 0)
(1.6263e-13 3.36692e-12 0 3.10862e-13 1.68044e-11 0 0 0 0)
(0 -3.99122e-12 0 3.10862e-13 -3.3367e-12 0 0 0 0)
(-5.42101e-14 7.98973e-13 0 3.10862e-13 8.395e-13 0 0 0 0)
(-5.42101e-14 -2.07156e-13 0 1.33227e-13 -1.40805e-13 0 0 0 0)
(2.71051e-14 3.36557e-14 0 1.77636e-13 1.08759e-14 0 0 0 0)
(0 -6.86487e-16 0 1.77636e-13 -6.18175e-15 0 0 0 0)
(-2.71051e-14 1.59833e-15 0 1.77636e-13 8.12999e-15 0 0 0 0)
(0 -1.78451e-15 0 1.33227e-13 2.11576e-16 0 0 0 0)
(2.71051e-14 1.08663e-14 0 1.33227e-13 9.91931e-16 0 0 0 0)
(0 1.22384e-14 0 2.66454e-13 4.36768e-14 0 0 0 0)
(-2.71051e-14 -5.7257e-15 0 8.88178e-14 4.99456e-14 0 0 0 0)
(0 -9.04301e-15 0 4.44089e-14 2.0774e-14 0 0 0 0)
(0 -1.35188e-15 0 1.33227e-13 1.37735e-14 0 0 0 0)
(0 7.16396e-15 0 8.88178e-14 1.53665e-14 0 0 0 0)
(0 7.01982e-15 0 8.88178e-14 4.24294e-14 0 0 0 0)
(-5.42101e-14 -4.59013e-15 0 4.44089e-14 4.34458e-14 0 0 0 0)
(0 -1.15295e-14 0 -8.88178e-14 2.40689e-14 0 0 0 0)
(2.71051e-14 -3.16245e-15 0 4.44089e-14 -2.67234e-15 0 0 0 0)
(0 4.63305e-15 0 0 1.14191e-14 0 0 0 0)
(-2.71051e-14 -6.81973e-15 0 4.44089e-14 1.58598e-14 0 0 0 0)
)
;
    }
    frontAndBack
    {
        type            empty;
    }
}


// ************************************************************************* //
