/*--------------------------------*- C++ -*----------------------------------*\
| =========                 |                                                 |
| \\      /  F ield         | OpenFOAM: The Open Source CFD Toolbox           |
|  \\    /   O peration     | Version:  2312                                  |
|   \\  /    A nd           | Website:  www.openfoam.com                      |
|    \\/     M anipulation  |                                                 |
\*---------------------------------------------------------------------------*/
FoamFile
{
    version     2.0;
    format      ascii;
    arch        "LSB;label=32;scalar=64";
    class       volScalarField;
    location    "8.125";
    object      QField;
}
// * * * * * * * * * * * * * * * * * * * * * * * * * * * * * * * * * * * * * //

dimensions      [0 0 -2 0 0 0 0];

internalField   nonuniform List<scalar> 
400
(
9.0931e-25
0
-1.51409e-26
8.00741e-27
-1.00011e-27
0
-3.10841e-28
4.83693e-29
-4.07547e-28
0
-5.56584e-28
0
0
3.88359e-28
5.70818e-28
-6.51078e-28
-6.25017e-28
-9.96076e-29
0
-2.54853e-28
9.51627e-25
-1.37693e-25
1.27877e-26
3.15983e-27
6.79841e-28
8.34631e-28
-8.36601e-29
-6.11892e-28
2.20764e-28
6.75754e-28
1.64251e-28
0
0
-2.07729e-27
-4.86609e-28
-1.22759e-27
-2.36013e-27
7.92822e-28
4.57763e-28
0
-2.14824e-24
-8.66598e-25
5.41385e-26
-3.6175e-27
2.30029e-27
-4.17901e-28
-1.53451e-28
7.02071e-29
3.28026e-28
-8.56235e-28
-8.2036e-28
1.3539e-27
-3.6999e-28
1.12682e-27
3.58671e-27
1.65699e-27
2.61009e-28
-2.63543e-28
-1.21398e-27
0
-3.16167e-24
-7.91469e-25
-4.55134e-26
0
3.04828e-28
0
1.19223e-27
9.68078e-28
4.41986e-28
-8.58235e-28
0
-1.44703e-28
-4.8869e-28
-1.68217e-27
-7.59034e-28
7.76895e-28
1.71518e-28
-5.99092e-28
-7.64402e-28
0
-1.4146e-24
-6.78327e-25
1.48955e-26
-5.09874e-27
6.14747e-28
-1.30727e-27
7.78692e-30
-1.23331e-28
-3.81629e-28
1.12122e-27
-3.29592e-28
1.98638e-27
1.67069e-27
5.45905e-28
-6.95956e-28
0
3.57507e-28
4.12716e-28
0
-6.68859e-28
5.52978e-25
-2.85071e-25
3.80301e-26
-2.28274e-27
4.72644e-28
-1.03181e-27
1.90805e-28
-8.62299e-28
-3.17133e-28
-2.64142e-28
-1.35835e-27
-2.84609e-27
-2.5028e-28
4.28348e-28
8.24084e-29
4.52192e-28
7.31954e-29
4.30656e-28
-7.82436e-29
6.13403e-28
3.80871e-24
6.76804e-25
2.29603e-26
5.2798e-27
2.20429e-27
1.19533e-27
0
4.40355e-29
-6.1748e-28
2.90816e-28
1.6861e-28
4.4195e-28
8.49882e-28
1.34223e-27
1.369e-27
-3.63105e-28
-5.76239e-29
-6.00717e-28
-2.27419e-28
2.77103e-28
3.01748e-24
2.76715e-25
-5.01283e-27
7.65937e-27
-1.74116e-27
-1.19992e-29
9.55117e-28
2.21741e-27
9.28349e-28
-4.73269e-28
-2.30495e-27
-4.54118e-28
9.73116e-29
8.69246e-28
0
-9.54759e-28
-3.78313e-28
-7.24224e-29
-3.75062e-28
8.21103e-29
-2.46974e-24
-9.57955e-25
6.30038e-26
6.31508e-27
-1.8435e-27
-2.25803e-27
-2.001e-27
6.35709e-29
0
-1.68232e-28
-1.3881e-28
2.70933e-27
1.92697e-28
-8.69962e-28
0
-1.08838e-27
2.11365e-28
0
0
0
-3.15955e-24
-9.30966e-25
-1.64171e-26
1.70334e-27
0
-1.39672e-27
9.98291e-28
9.66208e-28
-6.38041e-28
-3.21528e-28
-6.56149e-28
1.23536e-28
-3.84728e-27
-6.6866e-28
0
8.83842e-28
3.25334e-28
0
-1.08569e-28
-1.68188e-28
-4.88107e-25
-1.05297e-25
-2.9963e-26
8.37836e-28
2.07539e-27
1.19887e-27
-1.35416e-28
-3.10628e-30
-2.4712e-28
1.90857e-27
1.25524e-27
-3.50441e-28
-2.57405e-28
6.03751e-28
-3.8432e-28
9.55082e-28
-1.76135e-27
-2.39845e-28
-9.22441e-29
-1.30173e-28
-6.70856e-25
-2.25327e-25
2.25635e-27
-2.58378e-27
6.51706e-29
-3.39525e-27
-2.18961e-27
-1.45802e-27
-3.31192e-27
8.33854e-29
1.2631e-27
3.3541e-28
-1.51152e-27
1.57207e-29
-1.51845e-28
1.66467e-27
-3.03673e-28
4.13251e-28
7.23608e-29
-7.82351e-29
1.05442e-24
1.12424e-25
-5.53006e-27
3.81925e-27
-4.24684e-28
7.28501e-30
0
-8.65772e-28
5.99984e-28
2.41598e-27
1.03338e-27
-2.63145e-27
-6.21949e-28
1.28618e-28
-7.29034e-28
-8.95985e-28
0
3.78682e-28
0
0
2.57815e-24
5.09832e-25
1.62262e-26
-2.25757e-27
5.64925e-28
-1.46893e-29
-2.40619e-28
5.77506e-28
9.30633e-28
7.09581e-28
5.0545e-28
0
4.26422e-28
7.54748e-28
0
-2.68394e-28
2.30513e-28
1.00696e-27
1.30532e-28
-7.40461e-29
2.03195e-24
2.38428e-25
6.83812e-26
7.27912e-28
6.12881e-28
-2.12699e-28
-2.7724e-28
-3.8405e-28
6.86733e-28
-7.21436e-29
3.09623e-28
-6.0144e-28
-1.5126e-28
6.45326e-28
-6.05338e-28
0
-3.13022e-28
-3.17691e-28
-1.41922e-27
-1.39938e-28
1.48835e-25
-1.86293e-25
6.09775e-27
5.78905e-28
-8.19698e-28
0
4.38826e-28
-1.35961e-27
-7.41693e-28
-3.63804e-28
3.87978e-28
4.02628e-28
0
2.73803e-28
-1.23101e-27
8.07266e-29
6.56496e-28
8.28788e-28
0
-2.13732e-28
-1.46553e-24
-4.2442e-25
-2.88325e-26
7.74635e-28
1.3373e-27
-1.09477e-27
-2.29959e-28
-1.23994e-28
6.20332e-28
0
6.29262e-28
9.02393e-28
-1.32759e-28
0
0
-1.53555e-27
0
-1.80709e-28
2.30926e-28
-1.04874e-28
-4.89995e-25
-6.82834e-25
5.18617e-26
1.71335e-27
-2.35972e-27
4.27527e-28
9.88928e-28
2.48397e-28
3.96968e-28
9.7033e-28
-1.10427e-27
1.77196e-28
-1.28597e-27
-1.41755e-28
2.57608e-27
-1.01255e-27
-6.36697e-28
2.39114e-28
0
1.12888e-28
-7.73588e-25
-1.05466e-24
1.21847e-25
-1.66429e-26
-4.73515e-28
-6.77293e-28
1.38636e-27
-5.00971e-28
-4.84713e-28
7.06436e-29
2.78972e-28
-8.88164e-28
-1.53462e-27
-1.72712e-27
1.63916e-27
-1.42575e-28
8.5331e-28
-3.60676e-28
-1.26484e-29
-6.67609e-29
1.39899e-25
-1.31339e-25
-5.03056e-26
4.74811e-27
-7.80476e-28
0
-3.40025e-28
-9.94719e-28
1.67059e-28
0
-1.34794e-28
0
-1.00478e-28
5.85745e-28
5.7814e-28
-8.09931e-28
-1.64257e-28
-5.58756e-29
-8.37484e-29
3.09029e-29
)
;

boundaryField
{
    movingWall
    {
        type            calculated;
        value           nonuniform List<scalar> 
20
(
1.34387e-24
1.01946e-24
-2.90313e-25
3.3793e-26
-4.47556e-27
-1.00397e-27
-3.89968e-27
-1.75797e-27
1.77846e-27
4.01428e-28
-1.48567e-27
-2.68396e-27
-8.23112e-28
3.24357e-28
9.47225e-28
1.60914e-28
-2.69119e-28
-2.74378e-28
-1.37213e-28
1.73678e-28
)
;
    }
    fixedWalls
    {
        type            calculated;
        value           nonuniform List<scalar> 
60
(
1.73812e-24
1.49853e-24
-1.07726e-23
-1.60684e-23
-7.68247e-24
2.13384e-24
1.55826e-23
1.13153e-23
-1.21214e-23
-1.42366e-23
-3.39822e-24
-2.88087e-24
4.56224e-24
1.12879e-23
9.93063e-24
4.78894e-25
-6.88152e-24
-4.69933e-24
-5.64954e-24
-2.75966e-24
-4.17551e-28
0
0
0
-5.47929e-28
9.7675e-28
9.08011e-28
1.31662e-28
0
-5.65864e-29
2.10812e-29
-2.76117e-28
0
-1.21317e-28
-4.65112e-28
1.9267e-28
3.28733e-28
4.46549e-28
-1.09381e-28
-1.23047e-28
1.68625e-24
1.24072e-24
-2.9388e-25
3.52318e-26
-5.68367e-27
1.21945e-28
-5.04284e-28
2.37745e-28
-1.4208e-27
-3.26097e-27
-8.45234e-28
4.0159e-28
1.80107e-28
-6.36288e-28
-6.23485e-28
-2.15136e-27
-1.02403e-27
6.80068e-29
0
-1.27025e-28
)
;
    }
    frontAndBack
    {
        type            empty;
    }
}


// ************************************************************************* //
