/*--------------------------------*- C++ -*----------------------------------*\
| =========                 |                                                 |
| \\      /  F ield         | OpenFOAM: The Open Source CFD Toolbox           |
|  \\    /   O peration     | Version:  2312                                  |
|   \\  /    A nd           | Website:  www.openfoam.com                      |
|    \\/     M anipulation  |                                                 |
\*---------------------------------------------------------------------------*/
FoamFile
{
    version     2.0;
    format      ascii;
    arch        "LSB;label=32;scalar=64";
    class       volVectorField;
    location    "8.125";
    object      UNear;
}
// * * * * * * * * * * * * * * * * * * * * * * * * * * * * * * * * * * * * * //

dimensions      [0 1 -1 0 0 0 0];

internalField   nonuniform List<vector> 
400
(
(-1 4.20109e-14 0)
(-1 -8.34174e-15 0)
(-1 2.09875e-15 0)
(-1 -3.52012e-16 0)
(-1 2.71898e-17 0)
(-1 -1.54544e-17 0)
(-1 2.0325e-17 0)
(-1 5.28941e-19 0)
(-1 2.47983e-18 0)
(-1 1.09192e-16 0)
(-1 1.24864e-16 0)
(-1 5.1935e-17 0)
(-1 3.44339e-17 0)
(-1 3.84162e-17 0)
(-1 1.06073e-16 0)
(-1 1.08614e-16 0)
(-1 6.01722e-17 0)
(-1 -6.68086e-18 0)
(-1 2.85477e-17 0)
(-1 3.96496e-17 0)
(-1 1.39018e-14 0)
(-1 -2.44823e-15 0)
(-1 6.94245e-16 0)
(-1 -8.93152e-17 0)
(-1 -5.96069e-17 0)
(-1 3.60934e-17 0)
(-1 9.43553e-17 0)
(-1 2.06609e-17 0)
(-1 -4.41752e-17 0)
(-1 1.1173e-17 0)
(-1 8.04794e-17 0)
(-1 4.1472e-17 0)
(-1 2.8229e-17 0)
(-1 -1.03304e-17 0)
(-1 -6.12803e-17 0)
(-1 -3.4413e-17 0)
(-1 -7.06892e-17 0)
(-1 -3.00679e-17 0)
(-1 7.55606e-17 0)
(-1 5.43746e-17 0)
(-1 -2.98663e-14 0)
(-1 5.88087e-15 0)
(-1 -1.3847e-15 0)
(-1 2.30875e-16 0)
(-1 -1.04562e-16 0)
(-1 -5.20109e-17 0)
(-1 -6.60169e-17 0)
(-1 -8.6689e-17 0)
(-1 -7.89679e-17 0)
(-1 -5.78198e-17 0)
(-1 -2.55784e-17 0)
(-1 9.351e-17 0)
(-1 2.24172e-16 0)
(-1 2.30012e-16 0)
(-1 1.63099e-17 0)
(-1 -1.17836e-16 0)
(-1 -2.31521e-16 0)
(-1 -1.49934e-16 0)
(-1 -7.81129e-17 0)
(-1 -1.26414e-17 0)
(-1 -1.02138e-14 0)
(-1 1.91459e-15 0)
(-1 -6.18959e-16 0)
(-1 -3.48309e-17 0)
(-1 -1.66393e-16 0)
(-1 -1.81267e-16 0)
(-1 -1.00971e-16 0)
(-1 3.86595e-17 0)
(-1 1.05714e-16 0)
(-1 1.669e-16 0)
(-1 1.60946e-16 0)
(-1 1.17643e-16 0)
(-1 1.12207e-16 0)
(-1 1.84526e-16 0)
(-1 1.46707e-16 0)
(-1 9.64445e-18 0)
(-1 -1.03362e-16 0)
(-1 -1.27298e-16 0)
(-1 -1.4838e-16 0)
(-1 -3.32934e-17 0)
(-1 2.99445e-14 0)
(-1 -6.26108e-15 0)
(-1 1.41388e-15 0)
(-1 -3.27317e-16 0)
(-1 7.90007e-18 0)
(-1 -1.00516e-16 0)
(-1 -5.51497e-17 0)
(-1 -3.04769e-17 0)
(-1 1.44484e-17 0)
(-1 1.28113e-16 0)
(-1 2.21276e-16 0)
(-1 1.46896e-16 0)
(-1 -2.30055e-17 0)
(-1 -1.14794e-16 0)
(-1 -1.23707e-16 0)
(-1 -8.12811e-17 0)
(-1 -2.09146e-17 0)
(-1 5.06156e-17 0)
(-1 5.52182e-17 0)
(-1 5.96521e-17 0)
(-1 -2.92035e-14 0)
(-1 6.05326e-15 0)
(-1 -1.52925e-15 0)
(-1 2.02731e-16 0)
(-1 -1.23787e-16 0)
(-1 2.83558e-17 0)
(-1 3.62345e-17 0)
(-1 -6.84159e-18 0)
(-1 -4.69442e-17 0)
(-1 -7.49526e-18 0)
(-1 1.78137e-18 0)
(-1 4.7592e-17 0)
(-1 1.92123e-17 0)
(-1 -9.84712e-17 0)
(-1 -1.10055e-16 0)
(-1 -6.80678e-17 0)
(-1 5.67743e-17 0)
(-1 1.18956e-16 0)
(-1 1.36216e-16 0)
(-1 9.00893e-17 0)
(-1 1.04838e-14 0)
(-1 -1.83373e-15 0)
(-1 2.49091e-16 0)
(-1 -1.39557e-16 0)
(-1 5.13046e-18 0)
(-1 1.20131e-16 0)
(-1 2.2563e-16 0)
(-1 2.11768e-16 0)
(-1 1.33411e-16 0)
(-1 -2.00231e-17 0)
(-1 -1.69693e-16 0)
(-1 -2.03112e-16 0)
(-1 -1.15343e-16 0)
(-1 -1.42921e-17 0)
(-1 1.32256e-16 0)
(-1 2.04371e-16 0)
(-1 1.39105e-16 0)
(-1 1.6963e-17 0)
(-1 8.32888e-17 0)
(-1 5.21947e-17 0)
(-1 2.90592e-14 0)
(-1 -6.82866e-15 0)
(-1 1.55118e-15 0)
(-1 -5.2789e-16 0)
(-1 -8.9614e-17 0)
(-1 -2.06702e-16 0)
(-1 -9.18275e-17 0)
(-1 4.73911e-17 0)
(-1 1.80866e-16 0)
(-1 1.88316e-16 0)
(-1 1.22664e-16 0)
(-1 -7.40603e-17 0)
(-1 -4.48761e-17 0)
(-1 4.13724e-17 0)
(-1 4.08629e-17 0)
(-1 9.32908e-17 0)
(-1 6.74041e-17 0)
(-1 8.14347e-18 0)
(-1 -1.81497e-17 0)
(-1 -1.21437e-17 0)
(-1 -5.0552e-14 0)
(-1 1.05904e-14 0)
(-1 -2.59306e-15 0)
(-1 4.25605e-16 0)
(-1 -1.44286e-16 0)
(-1 8.55387e-17 0)
(-1 6.98198e-17 0)
(-1 1.02515e-16 0)
(-1 9.32733e-17 0)
(-1 1.02248e-16 0)
(-1 1.24307e-16 0)
(-1 -1.78078e-17 0)
(-1 -1.51244e-16 0)
(-1 -8.89005e-17 0)
(-1 -3.95341e-17 0)
(-1 4.15194e-17 0)
(-1 9.25807e-17 0)
(-1 1.15876e-16 0)
(-1 -6.18503e-18 0)
(-1 -3.66123e-17 0)
(-1 2.11891e-14 0)
(-1 -3.83514e-15 0)
(-1 9.93474e-16 0)
(-1 -9.9942e-17 0)
(-1 1.81707e-16 0)
(-1 2.0983e-16 0)
(-1 1.54253e-16 0)
(-1 -1.18095e-17 0)
(-1 -1.07915e-16 0)
(-1 -1.08642e-16 0)
(-1 -4.8604e-17 0)
(-1 1.23957e-17 0)
(-1 -7.13923e-17 0)
(-1 -1.19107e-16 0)
(-1 -6.17924e-17 0)
(-1 9.84864e-17 0)
(-1 1.38138e-16 0)
(-1 3.84728e-17 0)
(-1 -3.62698e-17 0)
(-1 9.04579e-18 0)
(-1 1.95131e-15 0)
(-1 -9.52783e-16 0)
(-1 2.53742e-16 0)
(-1 -7.19517e-17 0)
(-1 -5.48199e-17 0)
(-1 -1.99566e-16 0)
(-1 -2.26795e-16 0)
(-1 -2.43587e-16 0)
(-1 -2.1809e-16 0)
(-1 -4.54771e-17 0)
(-1 9.37358e-17 0)
(-1 1.86074e-16 0)
(-1 2.36481e-16 0)
(-1 1.38591e-16 0)
(-1 1.37357e-17 0)
(-1 -1.16361e-16 0)
(-1 -1.04672e-16 0)
(-1 -6.23349e-17 0)
(-1 -4.62399e-17 0)
(-1 -1.78569e-18 0)
(-1 5.14373e-15 0)
(-1 -4.79255e-16 0)
(-1 2.44776e-16 0)
(-1 2.08075e-16 0)
(-1 1.99231e-16 0)
(-1 1.36208e-16 0)
(-1 1.62502e-17 0)
(-1 -1.93682e-17 0)
(-1 -1.67444e-17 0)
(-1 -2.81556e-17 0)
(-1 1.76712e-17 0)
(-1 1.41685e-16 0)
(-1 7.95435e-17 0)
(-1 1.34502e-16 0)
(-1 2.28608e-16 0)
(-1 1.01346e-16 0)
(-1 -7.84692e-17 0)
(-1 -5.00145e-17 0)
(-1 -2.23775e-18 0)
(-1 -6.08629e-20 0)
(-1 -1.07976e-14 0)
(-1 2.35023e-15 0)
(-1 -4.09402e-16 0)
(-1 2.30615e-16 0)
(-1 1.12957e-16 0)
(-1 1.52275e-16 0)
(-1 1.14301e-16 0)
(-1 1.29355e-16 0)
(-1 1.77487e-16 0)
(-1 2.70061e-17 0)
(-1 -1.19626e-16 0)
(-1 -1.00078e-16 0)
(-1 -4.23448e-17 0)
(-1 -4.67274e-18 0)
(-1 2.40259e-17 0)
(-1 4.82536e-17 0)
(-1 2.70263e-17 0)
(-1 -3.23703e-17 0)
(-1 -1.95434e-17 0)
(-1 2.93766e-17 0)
(-1 -8.88111e-15 0)
(-1 1.36585e-15 0)
(-1 -2.9505e-16 0)
(-1 1.68569e-16 0)
(-1 1.21399e-16 0)
(-1 6.43592e-17 0)
(-1 1.24109e-16 0)
(-1 1.08746e-16 0)
(-1 -8.41595e-18 0)
(-1 -6.2926e-17 0)
(-1 -1.39311e-16 0)
(-1 -1.56165e-16 0)
(-1 9.88679e-17 0)
(-1 8.705e-17 0)
(-1 -4.03584e-17 0)
(-1 -6.54341e-17 0)
(-1 -5.92242e-17 0)
(-1 1.961e-17 0)
(-1 7.7909e-17 0)
(-1 5.14516e-17 0)
(-1 2.75627e-14 0)
(-1 -5.51393e-15 0)
(-1 1.3601e-15 0)
(-1 -1.91455e-16 0)
(-1 5.60289e-17 0)
(-1 -4.01506e-18 0)
(-1 -2.95209e-17 0)
(-1 -5.51568e-17 0)
(-1 -4.33975e-17 0)
(-1 8.18312e-18 0)
(-1 3.36328e-17 0)
(-1 3.10293e-17 0)
(-1 4.35486e-17 0)
(-1 1.13671e-16 0)
(-1 1.6259e-16 0)
(-1 1.28408e-16 0)
(-1 2.77222e-17 0)
(-1 7.52758e-18 0)
(-1 2.86142e-17 0)
(-1 5.66948e-17 0)
(-1 -3.47515e-14 0)
(-1 6.98122e-15 0)
(-1 -1.6792e-15 0)
(-1 3.02846e-16 0)
(-1 -2.73681e-17 0)
(-1 1.42831e-16 0)
(-1 -9.6133e-18 0)
(-1 -1.90672e-17 0)
(-1 1.06143e-16 0)
(-1 1.17751e-16 0)
(-1 5.42253e-17 0)
(-1 -2.53875e-17 0)
(-1 -9.43182e-17 0)
(-1 1.44855e-17 0)
(-1 8.60435e-17 0)
(-1 1.44607e-16 0)
(-1 5.62606e-17 0)
(-1 -9.75974e-17 0)
(-1 -9.66238e-17 0)
(-1 1.77706e-17 0)
(-1 6.77441e-15 0)
(-1 -1.54149e-15 0)
(-1 2.35269e-16 0)
(-1 -1.20263e-16 0)
(-1 3.84154e-17 0)
(-1 9.66266e-17 0)
(-1 1.17509e-16 0)
(-1 7.98899e-17 0)
(-1 9.46362e-17 0)
(-1 1.94321e-16 0)
(-1 2.2864e-16 0)
(-1 6.76502e-17 0)
(-1 -8.21996e-17 0)
(-1 -1.46037e-16 0)
(-1 -1.29552e-16 0)
(-1 7.37651e-17 0)
(-1 1.25809e-16 0)
(-1 8.20369e-18 0)
(-1 -7.76889e-17 0)
(-1 -8.99467e-18 0)
(-1 4.02467e-14 0)
(-1 -8.23723e-15 0)
(-1 1.69074e-15 0)
(-1 -5.73504e-16 0)
(-1 -1.84658e-16 0)
(-1 -1.38212e-16 0)
(-1 -2.69281e-17 0)
(-1 -1.65954e-17 0)
(-1 3.61928e-18 0)
(-1 1.2986e-16 0)
(-1 2.02081e-16 0)
(-1 2.63368e-16 0)
(-1 2.50702e-16 0)
(-1 1.28259e-16 0)
(-1 -8.82187e-17 0)
(-1 -1.88543e-16 0)
(-1 -4.0833e-17 0)
(-1 3.74866e-17 0)
(-1 -1.14272e-17 0)
(-1 -3.02212e-17 0)
(-1 -3.11966e-14 0)
(-1 5.77251e-15 0)
(-1 -1.6678e-15 0)
(-1 3.7766e-17 0)
(-1 -1.32771e-16 0)
(-1 1.2073e-17 0)
(-1 -4.9479e-17 0)
(-1 -8.77826e-17 0)
(-1 -2.87839e-17 0)
(-1 -4.30757e-17 0)
(-1 -4.18153e-17 0)
(-1 3.57826e-17 0)
(-1 1.22022e-16 0)
(-1 9.7343e-17 0)
(-1 -3.91811e-17 0)
(-1 -2.05028e-16 0)
(-1 -1.04656e-16 0)
(-1 -4.69247e-18 0)
(-1 -3.81228e-17 0)
(-1 -3.57663e-17 0)
(-1 -2.86442e-14 0)
(-1 5.31209e-15 0)
(-1 -1.40773e-15 0)
(-1 1.50779e-16 0)
(-1 -3.30772e-17 0)
(-1 6.8066e-18 0)
(-1 -7.07561e-17 0)
(-1 -1.1864e-16 0)
(-1 -2.48966e-17 0)
(-1 -3.32621e-18 0)
(-1 2.03002e-17 0)
(-1 -7.45715e-17 0)
(-1 -1.30793e-16 0)
(-1 -1.11641e-16 0)
(-1 -1.5593e-17 0)
(-1 -4.99318e-18 0)
(-1 4.50223e-17 0)
(-1 2.53069e-17 0)
(-1 -4.71674e-17 0)
(-1 -5.59078e-18 0)
)
;

boundaryField
{
    movingWall
    {
        type            fixedValue;
        value           uniform (-1 -0 -0);
    }
    fixedWalls
    {
        type            calculated;
        value           nonuniform List<vector> 
60
(
(-1 1.68044e-14 0)
(-1 5.5607e-15 0)
(-1 -1.19465e-14 0)
(-1 -4.08551e-15 0)
(-1 1.19778e-14 0)
(-1 -1.16814e-14 0)
(-1 4.19351e-15 0)
(-1 1.16237e-14 0)
(-1 -2.02208e-14 0)
(-1 8.47564e-15 0)
(-1 7.80526e-16 0)
(-1 2.05749e-15 0)
(-1 -4.31905e-15 0)
(-1 -3.55245e-15 0)
(-1 1.10251e-14 0)
(-1 -1.39006e-14 0)
(-1 2.70976e-15 0)
(-1 1.60987e-14 0)
(-1 -1.24786e-14 0)
(-1 -1.14577e-14 0)
(-1 1.58598e-17 0)
(-1 2.17498e-17 0)
(-1 -5.05655e-18 0)
(-1 -1.33173e-17 0)
(-1 2.38609e-17 0)
(-1 3.60357e-17 0)
(-1 2.08779e-17 0)
(-1 -4.85746e-18 0)
(-1 -1.46449e-17 0)
(-1 3.61832e-18 0)
(-1 -7.14274e-19 0)
(-1 -2.43452e-20 0)
(-1 1.17506e-17 0)
(-1 2.05806e-17 0)
(-1 2.26779e-17 0)
(-1 7.10826e-18 0)
(-1 -3.59787e-18 0)
(-1 -1.20885e-17 0)
(-1 -1.43065e-17 0)
(-1 -2.23631e-18 0)
(-1 1.68044e-14 0)
(-1 -3.3367e-15 0)
(-1 8.395e-16 0)
(-1 -1.40805e-16 0)
(-1 1.08759e-17 0)
(-1 -6.18175e-18 0)
(-1 8.12999e-18 0)
(-1 2.11576e-19 0)
(-1 9.91931e-19 0)
(-1 4.36768e-17 0)
(-1 4.99456e-17 0)
(-1 2.0774e-17 0)
(-1 1.37735e-17 0)
(-1 1.53665e-17 0)
(-1 4.24294e-17 0)
(-1 4.34458e-17 0)
(-1 2.40689e-17 0)
(-1 -2.67234e-18 0)
(-1 1.14191e-17 0)
(-1 1.58598e-17 0)
)
;
    }
    frontAndBack
    {
        type            empty;
    }
}


// ************************************************************************* //
