/*--------------------------------*- C++ -*----------------------------------*\
| =========                 |                                                 |
| \\      /  F ield         | OpenFOAM: The Open Source CFD Toolbox           |
|  \\    /   O peration     | Version:  2312                                  |
|   \\  /    A nd           | Website:  www.openfoam.com                      |
|    \\/     M anipulation  |                                                 |
\*---------------------------------------------------------------------------*/
FoamFile
{
    version     2.0;
    format      ascii;
    arch        "LSB;label=32;scalar=64";
    class       volVectorField;
    location    "8.125";
    object      vorticityField;
}
// * * * * * * * * * * * * * * * * * * * * * * * * * * * * * * * * * * * * * //

dimensions      [0 0 -1 0 0 0 0];

internalField   nonuniform List<vector> 
400
(
(0 -0 3.36692e-12)
(0 -0 -3.99122e-12)
(0 -0 7.98973e-13)
(0 -0 -2.34261e-13)
(0 -0 6.55069e-15)
(0 -0 -6.86487e-16)
(0 -0 1.59833e-15)
(0 -0 -2.88896e-14)
(0 -0 -1.62387e-14)
(0 -0 1.22384e-14)
(0 -0 -5.7257e-15)
(0 -0 -9.04301e-15)
(0 -0 -1.35188e-15)
(0 -0 6.13741e-14)
(0 -0 8.8335e-14)
(0 -0 4.962e-14)
(0 -0 4.26806e-14)
(0 -0 -3.16245e-15)
(0 -0 4.63305e-15)
(0 -0 -6.81973e-15)
(0 -0 9.55617e-13)
(0 -0 -1.15812e-12)
(0 -0 2.90102e-13)
(0 -0 -7.53852e-14)
(0 -0 6.6751e-14)
(0 -0 6.96063e-14)
(0 -0 5.26669e-14)
(0 -0 1.3252e-14)
(0 -0 -9.48789e-16)
(0 -0 6.66756e-14)
(0 -0 5.724e-14)
(0 -0 -5.22504e-15)
(0 -0 -5.18024e-15)
(0 -0 -8.95092e-15)
(0 -0 -2.40826e-15)
(0 -0 -9.40897e-16)
(0 -0 2.75396e-14)
(0 -0 6.88351e-14)
(0 -0 6.26544e-14)
(0 -0 -1.29935e-14)
(0 -0 -1.72091e-12)
(0 -0 2.57711e-12)
(0 -0 -6.7342e-13)
(0 -0 1.00909e-13)
(0 -0 -1.09604e-13)
(0 -0 -1.04566e-13)
(0 -0 -1.11888e-13)
(0 -0 -5.55052e-14)
(0 -0 -2.42181e-14)
(0 -0 -7.59762e-14)
(0 -0 -3.90771e-14)
(0 -0 7.91851e-14)
(0 -0 -1.34548e-14)
(0 -0 -7.49963e-14)
(0 -0 -1.7031e-13)
(0 -0 -1.06098e-13)
(0 -0 -8.4525e-14)
(0 -0 1.53408e-14)
(0 -0 1.37293e-14)
(0 -0 9.07543e-15)
(0 -0 -1.31781e-12)
(0 -0 1.09501e-12)
(0 -0 -1.94942e-13)
(0 -0 4.52566e-14)
(0 -0 -1.46436e-14)
(0 -0 6.54227e-15)
(0 -0 7.62028e-14)
(0 -0 7.48786e-14)
(0 -0 6.70341e-14)
(0 -0 3.26282e-14)
(0 -0 -4.92567e-15)
(0 -0 -4.87388e-15)
(0 -0 3.37933e-14)
(0 -0 5.76601e-14)
(0 -0 -1.74881e-14)
(0 -0 -5.2112e-14)
(0 -0 -6.79044e-14)
(0 -0 -1.12922e-13)
(0 -0 -7.19147e-14)
(0 -0 1.81673e-14)
(0 -0 2.20571e-12)
(0 -0 -2.71754e-12)
(0 -0 6.47586e-13)
(0 -0 -1.13493e-13)
(0 -0 4.97852e-14)
(0 -0 2.08001e-14)
(0 -0 6.1214e-14)
(0 -0 6.9598e-15)
(0 -0 7.00691e-14)
(0 -0 7.48929e-14)
(0 -0 5.60884e-14)
(0 -0 -1.05743e-13)
(0 -0 -8.03791e-14)
(0 -0 -6.42803e-14)
(0 -0 3.35131e-15)
(0 -0 1.02793e-14)
(0 -0 4.02947e-14)
(0 -0 6.18234e-14)
(0 -0 9.03657e-16)
(0 -0 -1.1487e-14)
(0 -0 -2.09818e-12)
(0 -0 2.57769e-12)
(0 -0 -6.39263e-13)
(0 -0 1.13441e-13)
(0 -0 -4.45426e-14)
(0 -0 -1.11029e-14)
(0 -0 -5.77298e-14)
(0 -0 -6.2528e-14)
(0 -0 -8.13805e-14)
(0 -0 -4.93376e-14)
(0 -0 -4.87014e-14)
(0 -0 1.74309e-15)
(0 -0 -1.46063e-14)
(0 -0 -6.71368e-14)
(0 -0 3.01454e-14)
(0 -0 4.3788e-14)
(0 -0 4.58074e-14)
(0 -0 6.21543e-14)
(0 -0 2.42184e-14)
(0 -0 -4.97356e-14)
(0 -0 1.43421e-12)
(0 -0 -1.10478e-12)
(0 -0 3.04943e-13)
(0 -0 2.70905e-15)
(0 -0 1.07284e-13)
(0 -0 7.62601e-14)
(0 -0 9.16363e-15)
(0 -0 1.78831e-14)
(0 -0 -2.31791e-14)
(0 -0 -5.74154e-14)
(0 -0 -4.54139e-14)
(0 -0 8.67502e-14)
(0 -0 7.30921e-14)
(0 -0 7.897e-14)
(0 -0 1.03181e-13)
(0 -0 1.09105e-13)
(0 -0 -1.87408e-14)
(0 -0 -5.58162e-15)
(0 -0 5.77333e-14)
(0 -0 -1.35483e-14)
(0 -0 6.78067e-13)
(0 -0 -2.39844e-12)
(0 -0 5.48761e-13)
(0 -0 -1.64079e-13)
(0 -0 -2.20913e-14)
(0 -0 5.39888e-14)
(0 -0 7.96194e-14)
(0 -0 1.08584e-13)
(0 -0 9.54077e-14)
(0 -0 7.5495e-14)
(0 -0 8.6739e-16)
(0 -0 1.03511e-14)
(0 -0 1.15433e-14)
(0 -0 6.2784e-14)
(0 -0 5.19183e-15)
(0 -0 -2.44509e-14)
(0 -0 -8.51473e-15)
(0 -0 -6.27655e-14)
(0 -0 -5.62388e-14)
(0 -0 3.01344e-14)
(0 -0 -3.7251e-12)
(0 -0 4.71458e-12)
(0 -0 -1.0978e-12)
(0 -0 2.99087e-13)
(0 -0 2.02035e-14)
(0 -0 2.14106e-14)
(0 -0 1.69763e-15)
(0 -0 2.94504e-14)
(0 -0 -2.66838e-17)
(0 -0 -5.11068e-14)
(0 -0 -3.91107e-14)
(0 -0 -1.0887e-13)
(0 -0 -3.42143e-14)
(0 -0 1.1171e-14)
(0 -0 1.3042e-14)
(0 -0 -6.81037e-14)
(0 -0 6.16458e-14)
(0 -0 -9.87657e-15)
(0 -0 -1.52489e-14)
(0 -0 4.27973e-15)
(0 -0 3.68696e-12)
(0 -0 -2.31772e-12)
(0 -0 5.3615e-13)
(0 -0 -1.35387e-13)
(0 -0 3.09772e-14)
(0 -0 -5.69555e-14)
(0 -0 -1.03479e-13)
(0 -0 -1.34637e-13)
(0 -0 -1.18104e-13)
(0 -0 -4.8279e-14)
(0 -0 -4.21063e-14)
(0 -0 -5.64889e-14)
(0 -0 -4.02554e-14)
(0 -0 -5.32501e-14)
(0 -0 2.17594e-14)
(0 -0 1.28413e-13)
(0 -0 -6.02115e-14)
(0 -0 -1.74408e-14)
(0 -0 -2.9427e-15)
(0 -0 -2.43827e-14)
(0 -0 -2.61065e-12)
(0 -0 1.82609e-13)
(0 -0 -1.82967e-13)
(0 -0 -8.50663e-14)
(0 -0 -1.75392e-13)
(0 -0 -9.85127e-14)
(0 -0 -5.86123e-14)
(0 -0 -2.62346e-14)
(0 -0 1.9811e-14)
(0 -0 8.53927e-14)
(0 -0 7.73653e-14)
(0 -0 1.42745e-14)
(0 -0 4.94618e-14)
(0 -0 -4.93795e-14)
(0 -0 -1.33915e-13)
(0 -0 -9.31559e-14)
(0 -0 5.40264e-15)
(0 -0 5.8432e-15)
(0 -0 6.05492e-15)
(0 -0 -2.23025e-14)
(0 -0 2.06565e-12)
(0 -0 -7.60946e-13)
(0 -0 2.58468e-13)
(0 -0 2.25505e-14)
(0 -0 4.70235e-14)
(0 -0 6.30171e-14)
(0 -0 6.57575e-14)
(0 -0 1.32226e-13)
(0 -0 1.07541e-13)
(0 -0 8.47567e-14)
(0 -0 1.25404e-13)
(0 -0 6.03973e-14)
(0 -0 -7.18367e-16)
(0 -0 4.20115e-14)
(0 -0 5.08945e-14)
(0 -0 -8.49178e-14)
(0 -0 -4.22411e-14)
(0 -0 6.18332e-14)
(0 -0 4.99536e-15)
(0 -0 2.73349e-14)
(0 -0 -1.12903e-13)
(0 -0 9.30402e-13)
(0 -0 -1.30646e-13)
(0 -0 1.33551e-13)
(0 -0 4.63761e-14)
(0 -0 5.43445e-14)
(0 -0 -2.292e-15)
(0 -0 -2.07864e-14)
(0 -0 -6.4445e-14)
(0 -0 -1.11026e-13)
(0 -0 -9.40235e-14)
(0 -0 -1.93769e-14)
(0 -0 -4.46696e-14)
(0 -0 6.63707e-15)
(0 -0 5.29264e-15)
(0 -0 2.74051e-14)
(0 -0 -8.0624e-15)
(0 -0 -8.59721e-14)
(0 -0 6.17469e-15)
(0 -0 -9.83314e-16)
(0 -0 -2.10678e-12)
(0 -0 1.12966e-12)
(0 -0 -2.55254e-13)
(0 -0 -1.25652e-14)
(0 -0 -6.46311e-14)
(0 -0 -5.39391e-14)
(0 -0 -4.97715e-14)
(0 -0 -9.45676e-14)
(0 -0 -7.13773e-14)
(0 -0 -6.72996e-14)
(0 -0 -6.3534e-14)
(0 -0 2.38178e-14)
(0 -0 5.14266e-14)
(0 -0 -6.81327e-14)
(0 -0 -1.52484e-14)
(0 -0 2.52185e-14)
(0 -0 3.56095e-14)
(0 -0 9.50285e-14)
(0 -0 3.18416e-15)
(0 -0 -1.29361e-14)
(0 -0 3.12645e-12)
(0 -0 -2.72868e-12)
(0 -0 6.67772e-13)
(0 -0 -1.30408e-13)
(0 -0 7.29541e-14)
(0 -0 -8.55498e-15)
(0 -0 4.90959e-14)
(0 -0 2.57174e-14)
(0 -0 1.14754e-13)
(0 -0 6.19131e-14)
(0 -0 1.3781e-13)
(0 -0 1.09412e-13)
(0 -0 1.16684e-13)
(0 -0 6.61143e-14)
(0 -0 5.56838e-14)
(0 -0 -1.34868e-14)
(0 -0 -1.2088e-14)
(0 -0 8.92067e-17)
(0 -0 4.91672e-15)
(0 -0 1.85742e-14)
(0 -0 -2.50597e-12)
(0 -0 3.19881e-12)
(0 -0 -6.67838e-13)
(0 -0 1.65183e-13)
(0 -0 3.82087e-14)
(0 -0 1.77548e-15)
(0 -0 -4.32949e-14)
(0 -0 -4.26345e-14)
(0 -0 -4.05283e-14)
(0 -0 -3.22968e-14)
(0 -0 -4.14189e-14)
(0 -0 -4.19594e-14)
(0 -0 3.9873e-15)
(0 -0 7.22463e-14)
(0 -0 4.01172e-14)
(0 -0 -3.00833e-14)
(0 -0 -5.13255e-14)
(0 -0 -6.94986e-14)
(0 -0 1.15368e-14)
(0 -0 -1.92197e-14)
(0 -0 4.41977e-13)
(0 -0 -5.72599e-13)
(0 -0 1.96333e-13)
(0 -0 6.16298e-14)
(0 -0 1.03004e-13)
(0 -0 6.21195e-14)
(0 -0 7.96415e-14)
(0 -0 5.19228e-14)
(0 -0 6.56532e-14)
(0 -0 1.34004e-14)
(0 -0 -9.39822e-14)
(0 -0 -8.52941e-14)
(0 -0 -1.02684e-13)
(0 -0 -4.73525e-15)
(0 -0 2.19802e-14)
(0 -0 1.06851e-13)
(0 -0 -6.55614e-15)
(0 -0 -4.74549e-14)
(0 -0 -1.71984e-15)
(0 -0 -1.84367e-14)
(0 -0 2.46911e-12)
(0 -0 -3.61165e-12)
(0 -0 8.20582e-13)
(0 -0 -1.8754e-13)
(0 -0 -1.06809e-14)
(0 -0 4.2878e-14)
(0 -0 9.34768e-14)
(0 -0 8.43699e-14)
(0 -0 4.17506e-14)
(0 -0 1.01161e-13)
(0 -0 4.04559e-14)
(0 -0 5.90722e-14)
(0 -0 4.06992e-14)
(0 -0 -8.81022e-14)
(0 -0 -1.12995e-13)
(0 -0 -4.94715e-14)
(0 -0 4.97081e-14)
(0 -0 8.42557e-14)
(0 -0 -6.77078e-15)
(0 -0 3.12699e-14)
(0 -0 -3.19293e-12)
(0 -0 2.84446e-12)
(0 -0 -8.44525e-13)
(0 -0 4.50831e-14)
(0 -0 -1.38095e-13)
(0 -0 -7.29859e-14)
(0 -0 -1.72616e-13)
(0 -0 -1.06351e-13)
(0 -0 -1.0395e-13)
(0 -0 -5.55133e-14)
(0 -0 -1.92192e-14)
(0 -0 -3.78264e-14)
(0 -0 -7.51591e-14)
(0 -0 -7.03304e-14)
(0 -0 -8.44472e-14)
(0 -0 -6.07576e-14)
(0 -0 7.42437e-14)
(0 -0 -4.75568e-14)
(0 -0 -3.02124e-14)
(0 -0 7.38891e-15)
(0 -0 -1.62848e-12)
(0 -0 2.64234e-12)
(0 -0 -4.34816e-13)
(0 -0 1.6457e-13)
(0 -0 3.98129e-14)
(0 -0 -3.76789e-15)
(0 -0 1.45604e-14)
(0 -0 3.1691e-14)
(0 -0 3.86365e-14)
(0 -0 4.51968e-15)
(0 -0 1.99805e-14)
(0 -0 -1.51093e-14)
(0 -0 2.33981e-14)
(0 -0 6.57301e-14)
(0 -0 6.48749e-14)
(0 -0 6.02716e-14)
(0 -0 -5.11801e-14)
(0 -0 -9.21898e-15)
(0 -0 2.40153e-14)
(0 -0 3.23809e-14)
)
;

boundaryField
{
    movingWall
    {
        type            calculated;
        value           nonuniform List<vector> 
20
(
(0 -0 -1.44504e-12)
(0 -0 3.03451e-12)
(0 -0 1.67755e-14)
(0 -0 3.5951e-13)
(0 -0 2.96465e-13)
(0 -0 2.62686e-13)
(0 -0 2.98318e-13)
(0 -0 1.82222e-13)
(0 -0 1.89167e-13)
(0 -0 9.33375e-14)
(0 -0 1.70511e-13)
(0 -0 1.62526e-13)
(0 -0 2.18338e-13)
(0 -0 1.44747e-13)
(0 -0 9.94826e-14)
(0 -0 5.04705e-14)
(0 -0 -8.57878e-14)
(0 -0 -9.21898e-15)
(0 -0 4.13191e-14)
(0 -0 4.96847e-14)
)
;
    }
    fixedWalls
    {
        type            calculated;
        value           nonuniform List<vector> 
60
(
(0 -0 1.68044e-11)
(0 -0 5.37097e-12)
(0 -0 -1.12689e-11)
(0 -0 -4.57341e-12)
(0 -0 1.18152e-11)
(0 -0 -1.14645e-11)
(0 -0 4.76272e-12)
(0 -0 1.00787e-11)
(0 -0 -1.99497e-11)
(0 -0 1.04272e-11)
(0 -0 -1.92998e-12)
(0 -0 3.65669e-12)
(0 -0 -3.58721e-12)
(0 -0 -4.9077e-12)
(0 -0 1.19467e-11)
(0 -0 -1.36295e-11)
(0 -0 2.62845e-12)
(0 -0 1.53668e-11)
(0 -0 -1.31292e-11)
(0 -0 -1.0753e-11)
(0 -0 -1.58598e-14)
(0 -0 -2.17498e-14)
(0 -0 5.05655e-15)
(0 -0 1.33173e-14)
(0 -0 -2.38609e-14)
(0 -0 -6.31408e-14)
(0 -0 -2.08779e-14)
(0 -0 3.19625e-14)
(0 -0 1.46449e-14)
(0 -0 -3.07234e-14)
(0 -0 -2.63908e-14)
(0 -0 2.71294e-14)
(0 -0 -1.17506e-14)
(0 -0 -2.05806e-14)
(0 -0 4.42715e-15)
(0 -0 -3.42133e-14)
(0 -0 -2.35072e-14)
(0 -0 3.91935e-14)
(0 -0 1.43065e-14)
(0 -0 2.93414e-14)
(0 -0 3.05606e-12)
(0 -0 -4.30208e-12)
(0 -0 4.8811e-13)
(0 -0 -3.40383e-13)
(0 -0 -1.4398e-13)
(0 -0 -1.78322e-13)
(0 -0 -1.76037e-13)
(0 -0 -1.35011e-13)
(0 -0 -1.2236e-13)
(0 -0 -2.54215e-13)
(0 -0 -9.45435e-14)
(0 -0 -5.34519e-14)
(0 -0 -1.34579e-13)
(0 -0 -8.16539e-14)
(0 -0 -8.1798e-14)
(0 -0 -4.89991e-14)
(0 -0 7.72883e-14)
(0 -0 -4.75714e-14)
(0 -0 4.63305e-15)
(0 -0 -5.12287e-14)
)
;
    }
    frontAndBack
    {
        type            empty;
    }
}


// ************************************************************************* //
