/*--------------------------------*- C++ -*----------------------------------*\
| =========                 |                                                 |
| \\      /  F ield         | OpenFOAM: The Open Source CFD Toolbox           |
|  \\    /   O peration     | Version:  2312                                  |
|   \\  /    A nd           | Website:  www.openfoam.com                      |
|    \\/     M anipulation  |                                                 |
\*---------------------------------------------------------------------------*/
FoamFile
{
    version     2.0;
    format      ascii;
    arch        "LSB;label=32;scalar=64";
    class       volScalarField;
    location    "8.125";
    object      zeroGradient(p);
}
// * * * * * * * * * * * * * * * * * * * * * * * * * * * * * * * * * * * * * //

dimensions      [0 2 -2 0 0 0 0];

internalField   nonuniform List<scalar> 
400
(
2.69177e-16
2.2388e-15
1.0944e-15
1.23075e-15
9.46948e-16
1.10686e-15
1.29243e-15
1.34298e-15
1.20254e-15
1.42484e-15
1.66216e-15
1.58213e-15
1.61184e-15
1.69993e-15
1.65667e-15
1.77526e-15
1.61689e-15
1.57602e-15
1.68274e-15
2.07352e-15
1.72879e-15
0
9.9016e-16
9.52406e-16
1.09371e-15
1.1833e-15
1.3223e-15
1.28531e-15
1.39237e-15
1.48165e-15
1.6337e-15
1.55388e-15
1.59395e-15
1.89739e-15
1.62933e-15
1.61168e-15
1.52572e-15
1.69192e-15
1.81907e-15
1.91908e-15
1.82754e-15
1.0504e-15
1.11799e-15
1.2092e-15
1.282e-15
1.34345e-15
1.32579e-15
1.36841e-15
1.37782e-15
1.51506e-15
1.56862e-15
1.60701e-15
1.54856e-15
1.76e-15
1.79314e-15
1.84705e-15
1.70363e-15
1.71184e-15
1.71529e-15
1.86476e-15
1.27758e-15
1.86006e-15
1.29682e-15
1.25758e-15
1.34227e-15
1.53224e-15
1.53306e-15
1.51038e-15
1.43955e-15
1.44465e-15
1.67987e-15
1.71255e-15
1.61563e-15
1.59599e-15
1.61984e-15
1.66867e-15
1.70152e-15
1.70727e-15
1.72634e-15
1.95998e-15
1.38564e-15
1.65715e-15
1.28007e-15
1.37903e-15
1.43703e-15
1.80621e-15
1.67902e-15
1.48355e-15
1.38291e-15
1.5472e-15
1.56804e-15
1.64557e-15
1.68914e-15
1.68879e-15
1.65977e-15
1.66648e-15
1.55239e-15
1.52854e-15
1.69861e-15
2.01643e-15
1.28966e-15
6.67329e-16
1.53949e-15
1.28437e-15
1.42798e-15
1.68633e-15
1.66468e-15
1.63443e-15
1.56359e-15
1.57541e-15
1.62626e-15
1.52833e-15
1.58172e-15
1.65199e-15
1.8359e-15
1.71213e-15
1.55563e-15
1.52957e-15
1.70101e-15
1.84585e-15
1.11348e-15
2.66505e-15
1.47154e-15
1.57937e-15
1.47738e-15
1.58037e-15
1.50987e-15
1.43264e-15
1.605e-15
1.6528e-15
1.75241e-15
1.655e-15
1.66112e-15
1.74958e-15
1.80817e-15
1.97531e-15
1.61467e-15
1.43615e-15
1.61956e-15
1.82017e-15
1.27797e-15
0
1.47514e-15
1.26496e-15
1.401e-15
1.58404e-15
1.59301e-15
1.53428e-15
1.41728e-15
1.50733e-15
1.67605e-15
1.65817e-15
1.88219e-15
1.95472e-15
1.80598e-15
1.68042e-15
1.46689e-15
1.66852e-15
1.52153e-15
1.72267e-15
5.62411e-16
2.2157e-15
1.26146e-15
1.41167e-15
1.36021e-15
1.49541e-15
1.58729e-15
1.47454e-15
1.51287e-15
1.54915e-15
1.37564e-15
1.62827e-15
1.8732e-15
1.7889e-15
1.79081e-15
1.74212e-15
1.5324e-15
1.58409e-15
1.62789e-15
1.82641e-15
3.85033e-16
7.2978e-16
1.09352e-15
1.23877e-15
1.27695e-15
1.36515e-15
1.37782e-15
1.37742e-15
1.45824e-15
1.56211e-15
1.49875e-15
1.62341e-15
1.88767e-15
1.64478e-15
1.60281e-15
1.41676e-15
1.53825e-15
1.57372e-15
1.65573e-15
1.85624e-15
3.59494e-16
6.03577e-16
8.84303e-16
1.14742e-15
1.14422e-15
1.19807e-15
1.22946e-15
1.3795e-15
1.57873e-15
1.61139e-15
1.5616e-15
1.65835e-15
1.57654e-15
1.51047e-15
1.63814e-15
1.44284e-15
1.33257e-15
1.51977e-15
1.75219e-15
1.81418e-15
5.61449e-16
1.38051e-15
6.7239e-16
9.24095e-16
9.92449e-16
1.19195e-15
1.19827e-15
1.3579e-15
1.5759e-15
1.58023e-15
1.61563e-15
1.61351e-15
1.42749e-15
1.31852e-15
1.278e-15
1.31321e-15
1.45819e-15
1.48555e-15
1.63593e-15
1.83413e-15
8.3273e-16
0
6.29763e-16
7.03816e-16
8.00443e-16
9.45872e-16
1.0589e-15
1.30308e-15
1.23088e-15
1.46057e-15
1.57757e-15
1.44424e-15
1.5784e-15
1.37137e-15
1.13892e-15
1.06587e-15
1.38266e-15
1.5638e-15
1.61347e-15
1.77986e-15
4.70451e-16
1.42844e-15
4.4817e-16
6.79912e-16
6.82673e-16
8.53141e-16
9.11004e-16
1.08322e-15
1.13728e-15
1.30083e-15
1.45914e-15
1.61072e-15
1.50573e-15
1.28278e-15
1.12409e-15
1.2183e-15
1.33069e-15
1.31771e-15
1.36067e-15
1.61954e-15
7.57983e-16
0
2.72426e-16
5.08785e-16
5.12129e-16
7.72861e-16
8.77076e-16
9.96882e-16
1.10538e-15
1.22847e-15
1.42229e-15
1.64569e-15
1.4352e-15
1.26102e-15
1.2337e-15
1.16578e-15
1.28326e-15
1.19613e-15
1.12912e-15
1.44571e-15
8.46446e-16
0
4.53208e-16
4.75105e-16
5.68281e-16
5.34521e-16
6.29676e-16
8.9462e-16
9.27601e-16
1.04583e-15
1.30344e-15
1.50748e-15
1.59593e-15
1.16189e-15
1.01588e-15
1.088e-15
1.13352e-15
1.21142e-15
1.17359e-15
1.3161e-15
5.23676e-16
1.55318e-15
3.45012e-16
6.13846e-16
4.57317e-16
2.99926e-16
4.78434e-16
7.11281e-16
7.56771e-16
9.438e-16
1.09802e-15
1.28032e-15
1.37889e-15
1.17287e-15
1.07696e-15
7.39396e-16
9.92749e-16
1.25796e-15
1.11919e-15
1.32905e-15
9.3395e-16
0
4.44701e-16
3.04532e-16
5.35674e-16
4.488e-16
4.91775e-16
6.30739e-16
7.30946e-16
8.09735e-16
8.18632e-16
1.10957e-15
1.16558e-15
1.13427e-15
1.03742e-15
6.44905e-16
8.03843e-16
1.06543e-15
1.13173e-15
1.27946e-15
7.3881e-16
0
4.32777e-16
3.94946e-16
5.27616e-16
3.046e-16
1.84374e-16
3.90668e-16
5.62449e-16
7.74056e-16
9.12225e-16
9.74158e-16
9.25796e-16
6.31458e-16
7.66693e-16
8.10068e-16
7.89267e-16
7.74262e-16
8.80068e-16
1.37767e-15
0
1.7598e-15
4.37381e-16
4.82092e-16
3.41483e-16
2.87163e-16
2.15398e-16
4.47173e-16
4.62975e-16
6.51762e-16
7.18202e-16
8.6304e-16
8.96709e-16
6.28774e-16
6.30657e-16
7.68948e-16
5.93597e-16
4.94994e-16
9.34513e-16
1.42872e-15
)
;

boundaryField
{
    movingWall
    {
        type            zeroGradient;
    }
    fixedWalls
    {
        type            zeroGradient;
    }
    frontAndBack
    {
        type            empty;
    }
}


// ************************************************************************* //
