/*--------------------------------*- C++ -*----------------------------------*\
| =========                 |                                                 |
| \\      /  F ield         | OpenFOAM: The Open Source CFD Toolbox           |
|  \\    /   O peration     | Version:  2312                                  |
|   \\  /    A nd           | Website:  www.openfoam.com                      |
|    \\/     M anipulation  |                                                 |
\*---------------------------------------------------------------------------*/
FoamFile
{
    version     2.0;
    format      ascii;
    arch        "LSB;label=32;scalar=64";
    class       volVectorField;
    location    "6.75";
    object      diffU;
}
// * * * * * * * * * * * * * * * * * * * * * * * * * * * * * * * * * * * * * //

dimensions      [0 1 -1 0 0 0 0];

internalField   nonuniform List<vector> 
400
(
(0 0 0)
(1.79856e-14 -2.03039e-13 0)
(1.38778e-14 -1.58598e-13 0)
(1.36557e-14 -1.68879e-13 0)
(1.36557e-14 -1.66588e-13 0)
(1.36557e-14 -1.67016e-13 0)
(1.31006e-14 -1.67008e-13 0)
(1.33227e-14 -1.67158e-13 0)
(1.31006e-14 -1.67157e-13 0)
(1.29896e-14 -1.67153e-13 0)
(1.29896e-14 -1.67142e-13 0)
(1.31006e-14 -1.67068e-13 0)
(1.28786e-14 -1.66982e-13 0)
(1.29896e-14 -1.67039e-13 0)
(1.26565e-14 -1.67179e-13 0)
(1.32117e-14 -1.67215e-13 0)
(1.28786e-14 -1.67103e-13 0)
(1.29896e-14 -1.67096e-13 0)
(1.28786e-14 -1.67086e-13 0)
(1.29896e-14 -1.67104e-13 0)
(3.9746e-14 -1.65542e-13 0)
(4.44089e-15 -1.67426e-13 0)
(1.26565e-14 -1.66969e-13 0)
(1.22125e-14 -1.67108e-13 0)
(1.22125e-14 -1.67033e-13 0)
(1.22125e-14 -1.66989e-13 0)
(1.26565e-14 -1.66997e-13 0)
(1.28786e-14 -1.67019e-13 0)
(1.24345e-14 -1.6705e-13 0)
(1.22125e-14 -1.67049e-13 0)
(1.24345e-14 -1.67047e-13 0)
(1.26565e-14 -1.67013e-13 0)
(1.24345e-14 -1.67071e-13 0)
(1.28786e-14 -1.67245e-13 0)
(1.28786e-14 -1.67306e-13 0)
(1.28786e-14 -1.67223e-13 0)
(1.28786e-14 -1.66984e-13 0)
(1.26565e-14 -1.67161e-13 0)
(1.28786e-14 -1.67157e-13 0)
(1.28786e-14 -1.67104e-13 0)
(5.55112e-15 -3.08368e-13 0)
(1.4766e-14 -1.36643e-13 0)
(1.24345e-14 -1.74414e-13 0)
(1.22125e-14 -1.65555e-13 0)
(1.24345e-14 -1.67391e-13 0)
(1.24345e-14 -1.66951e-13 0)
(1.24345e-14 -1.67004e-13 0)
(1.28786e-14 -1.66961e-13 0)
(1.26565e-14 -1.67084e-13 0)
(1.26565e-14 -1.6719e-13 0)
(1.26565e-14 -1.67201e-13 0)
(1.26565e-14 -1.67278e-13 0)
(1.31006e-14 -1.67381e-13 0)
(1.31006e-14 -1.67335e-13 0)
(1.31006e-14 -1.67167e-13 0)
(1.28786e-14 -1.66945e-13 0)
(1.26565e-14 -1.66965e-13 0)
(1.29896e-14 -1.67231e-13 0)
(1.29896e-14 -1.6721e-13 0)
(1.28786e-14 -1.67149e-13 0)
(-8.21565e-15 -4.54317e-14 0)
(1.79856e-14 -1.9347e-13 0)
(1.17684e-14 -1.60943e-13 0)
(1.26565e-14 -1.68454e-13 0)
(1.22125e-14 -1.66831e-13 0)
(1.26565e-14 -1.67264e-13 0)
(1.28786e-14 -1.67228e-13 0)
(1.31006e-14 -1.67192e-13 0)
(1.32117e-14 -1.67097e-13 0)
(1.31006e-14 -1.67147e-13 0)
(1.28786e-14 -1.67234e-13 0)
(1.31006e-14 -1.6729e-13 0)
(1.28786e-14 -1.67236e-13 0)
(1.24345e-14 -1.67143e-13 0)
(1.22125e-14 -1.67125e-13 0)
(1.24345e-14 -1.67048e-13 0)
(1.28786e-14 -1.67154e-13 0)
(1.26565e-14 -1.67205e-13 0)
(1.26565e-14 -1.67205e-13 0)
(1.29896e-14 -1.67184e-13 0)
(3.73035e-14 -1.91164e-13 0)
(6.43929e-15 -1.62318e-13 0)
(1.37668e-14 -1.68178e-13 0)
(1.31006e-14 -1.6689e-13 0)
(1.33227e-14 -1.67232e-13 0)
(1.33227e-14 -1.67296e-13 0)
(1.31006e-14 -1.67379e-13 0)
(1.29896e-14 -1.67279e-13 0)
(1.32117e-14 -1.6709e-13 0)
(1.31006e-14 -1.66988e-13 0)
(1.32117e-14 -1.67134e-13 0)
(1.29896e-14 -1.67171e-13 0)
(1.28786e-14 -1.67142e-13 0)
(1.29896e-14 -1.67192e-13 0)
(1.31006e-14 -1.67192e-13 0)
(1.33227e-14 -1.6717e-13 0)
(1.31006e-14 -1.67155e-13 0)
(1.32117e-14 -1.67122e-13 0)
(1.31006e-14 -1.6721e-13 0)
(1.32117e-14 -1.67182e-13 0)
(3.77476e-15 -2.52761e-13 0)
(1.70974e-14 -1.48285e-13 0)
(1.42109e-14 -1.71367e-13 0)
(1.36557e-14 -1.66053e-13 0)
(1.38778e-14 -1.67338e-13 0)
(1.38778e-14 -1.67113e-13 0)
(1.34337e-14 -1.67182e-13 0)
(1.35447e-14 -1.67145e-13 0)
(1.29896e-14 -1.67105e-13 0)
(1.29896e-14 -1.67132e-13 0)
(1.31006e-14 -1.67193e-13 0)
(1.31006e-14 -1.67105e-13 0)
(1.28786e-14 -1.67055e-13 0)
(1.29896e-14 -1.67132e-13 0)
(1.29896e-14 -1.67173e-13 0)
(1.26565e-14 -1.67197e-13 0)
(1.29896e-14 -1.67153e-13 0)
(1.28786e-14 -1.67008e-13 0)
(1.31006e-14 -1.67081e-13 0)
(1.32117e-14 -1.67166e-13 0)
(4.44089e-15 -4.36395e-14 0)
(1.39888e-14 -1.93451e-13 0)
(1.19904e-14 -1.61076e-13 0)
(1.28786e-14 -1.68494e-13 0)
(1.29896e-14 -1.66819e-13 0)
(1.29896e-14 -1.67149e-13 0)
(1.29896e-14 -1.66991e-13 0)
(1.29896e-14 -1.66918e-13 0)
(1.26565e-14 -1.66861e-13 0)
(1.29896e-14 -1.67017e-13 0)
(1.28786e-14 -1.67043e-13 0)
(1.26565e-14 -1.67046e-13 0)
(1.29896e-14 -1.67006e-13 0)
(1.28786e-14 -1.67025e-13 0)
(1.28786e-14 -1.67158e-13 0)
(1.28786e-14 -1.67272e-13 0)
(1.29896e-14 -1.67174e-13 0)
(1.26565e-14 -1.67033e-13 0)
(1.29896e-14 -1.67013e-13 0)
(1.31006e-14 -1.67109e-13 0)
(2.23155e-14 -2.07791e-13 0)
(8.65974e-15 -1.59252e-13 0)
(1.17684e-14 -1.69496e-13 0)
(1.15463e-14 -1.67065e-13 0)
(1.17684e-14 -1.67433e-13 0)
(1.19904e-14 -1.67196e-13 0)
(1.22125e-14 -1.671e-13 0)
(1.19904e-14 -1.67009e-13 0)
(1.22125e-14 -1.67022e-13 0)
(1.19904e-14 -1.67114e-13 0)
(1.22125e-14 -1.67132e-13 0)
(1.24345e-14 -1.67164e-13 0)
(1.24345e-14 -1.67168e-13 0)
(1.22125e-14 -1.67123e-13 0)
(1.24345e-14 -1.67166e-13 0)
(1.26565e-14 -1.67205e-13 0)
(1.24345e-14 -1.67125e-13 0)
(1.24345e-14 -1.67148e-13 0)
(1.28786e-14 -1.67134e-13 0)
(1.28786e-14 -1.67113e-13 0)
(1.06581e-14 -2.28446e-13 0)
(1.60982e-14 -1.53866e-13 0)
(1.40998e-14 -1.70449e-13 0)
(1.34337e-14 -1.6667e-13 0)
(1.35447e-14 -1.67512e-13 0)
(1.34337e-14 -1.67156e-13 0)
(1.32117e-14 -1.67049e-13 0)
(1.33227e-14 -1.67005e-13 0)
(1.33227e-14 -1.67076e-13 0)
(1.35447e-14 -1.67085e-13 0)
(1.32117e-14 -1.67112e-13 0)
(1.32117e-14 -1.67136e-13 0)
(1.33227e-14 -1.67122e-13 0)
(1.31006e-14 -1.67138e-13 0)
(1.28786e-14 -1.67139e-13 0)
(1.28786e-14 -1.67174e-13 0)
(1.28786e-14 -1.67266e-13 0)
(1.29896e-14 -1.6727e-13 0)
(1.31006e-14 -1.67179e-13 0)
(1.31006e-14 -1.6713e-13 0)
(1.13243e-14 -6.83638e-14 0)
(1.19904e-14 -1.89047e-13 0)
(1.24345e-14 -1.62141e-13 0)
(1.26565e-14 -1.68374e-13 0)
(1.26565e-14 -1.66941e-13 0)
(1.26565e-14 -1.67196e-13 0)
(1.26565e-14 -1.67183e-13 0)
(1.28786e-14 -1.67196e-13 0)
(1.28786e-14 -1.6714e-13 0)
(1.28786e-14 -1.67133e-13 0)
(1.29896e-14 -1.67109e-13 0)
(1.32117e-14 -1.67124e-13 0)
(1.32117e-14 -1.6701e-13 0)
(1.32117e-14 -1.66961e-13 0)
(1.32117e-14 -1.66972e-13 0)
(1.32117e-14 -1.67014e-13 0)
(1.31006e-14 -1.67241e-13 0)
(1.26565e-14 -1.67288e-13 0)
(1.28786e-14 -1.67192e-13 0)
(1.28786e-14 -1.67133e-13 0)
(1.08802e-14 -2.65798e-13 0)
(1.35447e-14 -1.45547e-13 0)
(1.28786e-14 -1.72251e-13 0)
(1.31006e-14 -1.66098e-13 0)
(1.29896e-14 -1.67531e-13 0)
(1.31006e-14 -1.67265e-13 0)
(1.31006e-14 -1.67357e-13 0)
(1.29896e-14 -1.67218e-13 0)
(1.29896e-14 -1.6708e-13 0)
(1.32117e-14 -1.67144e-13 0)
(1.26565e-14 -1.6713e-13 0)
(1.28786e-14 -1.67102e-13 0)
(1.24345e-14 -1.67124e-13 0)
(1.28786e-14 -1.67121e-13 0)
(1.28786e-14 -1.67051e-13 0)
(1.31006e-14 -1.66987e-13 0)
(1.32117e-14 -1.67005e-13 0)
(1.28786e-14 -1.67196e-13 0)
(1.28786e-14 -1.67269e-13 0)
(1.31006e-14 -1.67152e-13 0)
(1.69864e-14 -7.67434e-14 0)
(1.22125e-14 -1.87119e-13 0)
(1.33227e-14 -1.62722e-13 0)
(1.22125e-14 -1.68358e-13 0)
(1.26565e-14 -1.67003e-13 0)
(1.24345e-14 -1.67295e-13 0)
(1.24345e-14 -1.67181e-13 0)
(1.19904e-14 -1.67091e-13 0)
(1.22125e-14 -1.66982e-13 0)
(1.22125e-14 -1.66991e-13 0)
(1.26565e-14 -1.66986e-13 0)
(1.24345e-14 -1.66938e-13 0)
(1.26565e-14 -1.67104e-13 0)
(1.24345e-14 -1.67289e-13 0)
(1.24345e-14 -1.67266e-13 0)
(1.26565e-14 -1.6717e-13 0)
(1.29896e-14 -1.67092e-13 0)
(1.31006e-14 -1.67102e-13 0)
(1.29896e-14 -1.67109e-13 0)
(1.28786e-14 -1.67105e-13 0)
(1.69864e-14 -1.90358e-13 0)
(1.04361e-14 -1.62544e-13 0)
(1.19904e-14 -1.68437e-13 0)
(1.29896e-14 -1.66986e-13 0)
(1.24345e-14 -1.67182e-13 0)
(1.26565e-14 -1.67144e-13 0)
(1.26565e-14 -1.67157e-13 0)
(1.24345e-14 -1.67219e-13 0)
(1.26565e-14 -1.6729e-13 0)
(1.28786e-14 -1.67217e-13 0)
(1.26565e-14 -1.67161e-13 0)
(1.24345e-14 -1.67136e-13 0)
(1.28786e-14 -1.67181e-13 0)
(1.31006e-14 -1.67226e-13 0)
(1.28786e-14 -1.67263e-13 0)
(1.26565e-14 -1.67238e-13 0)
(1.26565e-14 -1.67325e-13 0)
(1.24345e-14 -1.67257e-13 0)
(1.28786e-14 -1.67163e-13 0)
(1.28786e-14 -1.67136e-13 0)
(6.43929e-15 -2.51892e-13 0)
(1.63203e-14 -1.48342e-13 0)
(1.43219e-14 -1.71569e-13 0)
(1.33227e-14 -1.6615e-13 0)
(1.35447e-14 -1.67473e-13 0)
(1.35447e-14 -1.67154e-13 0)
(1.35447e-14 -1.67123e-13 0)
(1.36557e-14 -1.67123e-13 0)
(1.35447e-14 -1.67256e-13 0)
(1.35447e-14 -1.67214e-13 0)
(1.37668e-14 -1.67137e-13 0)
(1.39888e-14 -1.67215e-13 0)
(1.34337e-14 -1.67184e-13 0)
(1.36557e-14 -1.67081e-13 0)
(1.34337e-14 -1.67026e-13 0)
(1.33227e-14 -1.67114e-13 0)
(1.33227e-14 -1.67157e-13 0)
(1.32117e-14 -1.67208e-13 0)
(1.31006e-14 -1.67192e-13 0)
(1.31006e-14 -1.67122e-13 0)
(6.66134e-15 -1.05504e-14 0)
(1.39888e-14 -2.01538e-13 0)
(1.22125e-14 -1.59126e-13 0)
(1.29896e-14 -1.68891e-13 0)
(1.26565e-14 -1.66803e-13 0)
(1.26565e-14 -1.673e-13 0)
(1.26565e-14 -1.67174e-13 0)
(1.26565e-14 -1.67179e-13 0)
(1.28786e-14 -1.6723e-13 0)
(1.24345e-14 -1.67195e-13 0)
(1.24345e-14 -1.67123e-13 0)
(1.22125e-14 -1.67125e-13 0)
(1.26565e-14 -1.6703e-13 0)
(1.26565e-14 -1.66965e-13 0)
(1.26565e-14 -1.67001e-13 0)
(1.26565e-14 -1.67157e-13 0)
(1.26565e-14 -1.67074e-13 0)
(1.26565e-14 -1.67072e-13 0)
(1.26565e-14 -1.67141e-13 0)
(1.28786e-14 -1.67142e-13 0)
(3.58602e-14 -2.72976e-13 0)
(6.21725e-15 -1.43991e-13 0)
(1.28786e-14 -1.72511e-13 0)
(1.22125e-14 -1.65909e-13 0)
(1.24345e-14 -1.67279e-13 0)
(1.26565e-14 -1.66974e-13 0)
(1.24345e-14 -1.67168e-13 0)
(1.24345e-14 -1.67258e-13 0)
(1.24345e-14 -1.6733e-13 0)
(1.24345e-14 -1.67265e-13 0)
(1.24345e-14 -1.67196e-13 0)
(1.24345e-14 -1.67202e-13 0)
(1.26565e-14 -1.67236e-13 0)
(1.26565e-14 -1.67222e-13 0)
(1.31006e-14 -1.67128e-13 0)
(1.28786e-14 -1.67043e-13 0)
(1.28786e-14 -1.67097e-13 0)
(1.28786e-14 -1.67171e-13 0)
(1.28786e-14 -1.67238e-13 0)
(1.29896e-14 -1.67209e-13 0)
(-1.44329e-14 -1.93448e-13 0)
(1.9984e-14 -1.61368e-13 0)
(1.19904e-14 -1.68332e-13 0)
(1.29896e-14 -1.66926e-13 0)
(1.22125e-14 -1.67212e-13 0)
(1.26565e-14 -1.67125e-13 0)
(1.29896e-14 -1.67178e-13 0)
(1.28786e-14 -1.67241e-13 0)
(1.31006e-14 -1.67228e-13 0)
(1.32117e-14 -1.67162e-13 0)
(1.32117e-14 -1.67195e-13 0)
(1.32117e-14 -1.67211e-13 0)
(1.29896e-14 -1.67257e-13 0)
(1.29896e-14 -1.67218e-13 0)
(1.26565e-14 -1.6708e-13 0)
(1.26565e-14 -1.6702e-13 0)
(1.29896e-14 -1.6718e-13 0)
(1.28786e-14 -1.67182e-13 0)
(1.28786e-14 -1.6718e-13 0)
(1.28786e-14 -1.67184e-13 0)
(9.99201e-15 -4.46386e-14 0)
(1.22125e-14 -1.93392e-13 0)
(1.19904e-14 -1.60867e-13 0)
(1.22125e-14 -1.68485e-13 0)
(1.22125e-14 -1.66972e-13 0)
(1.24345e-14 -1.67436e-13 0)
(1.24345e-14 -1.67348e-13 0)
(1.24345e-14 -1.6739e-13 0)
(1.24345e-14 -1.67342e-13 0)
(1.26565e-14 -1.67268e-13 0)
(1.26565e-14 -1.67231e-13 0)
(1.26565e-14 -1.6715e-13 0)
(1.24345e-14 -1.67089e-13 0)
(1.26565e-14 -1.67026e-13 0)
(1.24345e-14 -1.67167e-13 0)
(1.31006e-14 -1.67212e-13 0)
(1.29896e-14 -1.67198e-13 0)
(1.28786e-14 -1.67119e-13 0)
(1.29896e-14 -1.67139e-13 0)
(1.28786e-14 -1.67145e-13 0)
(4.44089e-14 -2.12293e-13 0)
(5.9952e-15 -1.5768e-13 0)
(1.44329e-14 -1.69411e-13 0)
(1.31006e-14 -1.66676e-13 0)
(1.32117e-14 -1.67317e-13 0)
(1.31006e-14 -1.67258e-13 0)
(1.29896e-14 -1.67341e-13 0)
(1.28786e-14 -1.67389e-13 0)
(1.26565e-14 -1.67335e-13 0)
(1.26565e-14 -1.6727e-13 0)
(1.22125e-14 -1.67224e-13 0)
(1.26565e-14 -1.67169e-13 0)
(1.24345e-14 -1.6716e-13 0)
(1.28786e-14 -1.67161e-13 0)
(1.26565e-14 -1.67264e-13 0)
(1.24345e-14 -1.6731e-13 0)
(1.26565e-14 -1.67176e-13 0)
(1.26565e-14 -1.67126e-13 0)
(1.28786e-14 -1.67183e-13 0)
(1.28786e-14 -1.6718e-13 0)
(-2.22045e-16 -2.58345e-13 0)
(1.70974e-14 -1.47594e-13 0)
(1.35447e-14 -1.71693e-13 0)
(1.38778e-14 -1.66107e-13 0)
(1.37668e-14 -1.67282e-13 0)
(1.37668e-14 -1.67039e-13 0)
(1.35447e-14 -1.67126e-13 0)
(1.36557e-14 -1.67143e-13 0)
(1.34337e-14 -1.67104e-13 0)
(1.33227e-14 -1.67108e-13 0)
(1.34337e-14 -1.67202e-13 0)
(1.33227e-14 -1.67243e-13 0)
(1.32117e-14 -1.67229e-13 0)
(1.33227e-14 -1.67193e-13 0)
(1.32117e-14 -1.67163e-13 0)
(1.32117e-14 -1.67263e-13 0)
(1.28786e-14 -1.67223e-13 0)
(1.28786e-14 -1.67174e-13 0)
(1.28786e-14 -1.67186e-13 0)
(1.29896e-14 -1.67188e-13 0)
)
;

boundaryField
{
    movingWall
    {
        type            calculated;
        value           uniform (1.28786e-14 -1.67137e-13 0);
    }
    fixedWalls
    {
        type            calculated;
        value           uniform (1.28786e-14 -1.67137e-13 0);
    }
    frontAndBack
    {
        type            empty;
    }
}


// ************************************************************************* //
