/*--------------------------------*- C++ -*----------------------------------*\
| =========                 |                                                 |
| \\      /  F ield         | OpenFOAM: The Open Source CFD Toolbox           |
|  \\    /   O peration     | Version:  2312                                  |
|   \\  /    A nd           | Website:  www.openfoam.com                      |
|    \\/     M anipulation  |                                                 |
\*---------------------------------------------------------------------------*/
FoamFile
{
    version     2.0;
    format      ascii;
    arch        "LSB;label=32;scalar=64";
    class       volScalarField;
    location    "6.75";
    object      divPhi;
}
// * * * * * * * * * * * * * * * * * * * * * * * * * * * * * * * * * * * * * //

dimensions      [0 0 -1 0 0 0 0];

internalField   nonuniform List<scalar> 
400
(
-8.13152e-14
1.52191e-14
-1.61692e-16
-1.35724e-14
-5.2269e-15
1.60346e-14
9.79818e-15
-1.5324e-14
1.01482e-14
-1.77564e-14
2.50428e-16
1.5203e-15
1.97142e-14
-1.32703e-14
1.27504e-14
-1.73269e-14
1.47044e-14
3.23479e-15
-2.12366e-14
2.71051e-14
2.71051e-14
-2.08881e-14
-2.09652e-14
4.37331e-15
7.26395e-15
-5.70247e-15
-6.73743e-15
3.17952e-14
7.30482e-15
1.00329e-15
4.55756e-15
1.07722e-14
-6.9802e-15
-8.04506e-15
1.83494e-15
1.65601e-14
-1.30824e-14
-8.83926e-15
1.24024e-14
-2.71051e-14
0
-8.86e-15
4.20561e-15
5.67108e-15
1.85155e-14
-2.44485e-14
4.67165e-15
1.38864e-14
-8.90684e-15
-6.06946e-15
-1.43222e-14
2.47406e-14
3.72886e-15
-5.11599e-15
-9.14639e-15
4.596e-15
-9.59007e-15
3.26668e-15
-2.81531e-15
0
0
-3.91194e-14
2.16408e-14
5.63613e-15
-1.13748e-14
8.40572e-16
1.81881e-14
-2.78196e-14
-2.00179e-14
1.56447e-14
1.86896e-14
-2.21822e-14
1.98385e-16
6.37774e-15
-2.15034e-14
-1.20826e-14
-1.00433e-14
-9.05146e-16
2.87794e-14
-2.71051e-14
0
4.76537e-16
1.01817e-15
8.51765e-15
-1.29922e-14
-8.62739e-15
-1.42712e-15
1.20624e-14
-3.59334e-15
-3.81283e-14
-9.5898e-16
2.91772e-14
-2.55096e-14
4.11453e-14
7.31517e-15
-5.77336e-16
-1.99389e-14
1.92559e-14
-3.06986e-14
2.71051e-14
-2.71051e-14
2.54232e-14
-1.55767e-14
-1.54538e-17
4.21474e-15
-2.68185e-14
1.39298e-14
-4.32911e-15
-1.2104e-14
-1.23669e-14
-1.09542e-14
6.50834e-15
2.78679e-14
-1.35841e-14
5.9303e-15
-1.55054e-17
-1.40154e-15
-9.09716e-15
1.53583e-15
0
0
-2.73193e-14
1.86609e-14
-1.25464e-14
2.67237e-14
-8.50926e-15
-9.85594e-15
-1.6225e-14
-1.49243e-14
9.22114e-15
-2.52393e-14
3.325e-14
-2.94131e-14
1.64658e-14
-6.28357e-15
1.22261e-14
9.41348e-15
6.04165e-15
1.28227e-14
0
2.71051e-14
1.32746e-14
-3.66036e-15
-3.13141e-14
1.91839e-14
-1.13629e-14
-1.87383e-14
-5.67031e-15
1.62494e-14
8.23647e-15
9.31331e-15
5.50289e-15
5.58695e-15
-6.66136e-15
-1.13982e-14
3.78998e-14
1.23186e-15
-4.35166e-15
1.08647e-14
0
-2.71051e-14
3.32484e-15
-4.34984e-15
6.25762e-15
-2.22149e-14
-6.30959e-15
1.12893e-14
-1.09996e-14
-2.74453e-15
3.4599e-15
-4.80994e-15
9.76893e-16
1.94502e-14
-3.30338e-15
-4.61823e-15
3.56733e-14
-1.75978e-14
-1.25672e-14
6.62575e-15
-2.71051e-14
2.71051e-14
-1.19141e-15
-1.31208e-14
2.42666e-14
1.52097e-15
-1.49614e-14
2.64465e-14
-4.55778e-14
1.02359e-14
4.03704e-16
2.10804e-14
-3.65624e-15
-1.69768e-14
-4.32566e-15
-4.14265e-15
9.59306e-15
1.49641e-14
1.40213e-14
-2.52351e-14
2.71051e-14
0
-3.22127e-15
-2.55213e-14
-2.06898e-15
-1.34682e-14
1.92042e-14
-9.12435e-15
1.51463e-14
3.12973e-15
-8.67113e-15
-4.47753e-16
2.84998e-15
2.41365e-14
-2.08157e-14
4.48495e-15
5.53301e-15
-2.62655e-15
-2.88908e-14
-2.17878e-14
0
0
1.44246e-14
-1.10571e-14
2.77418e-14
-3.14326e-14
-1.02202e-14
-4.7871e-16
5.21652e-16
-8.26292e-15
-2.2642e-14
1.98285e-14
-5.48678e-15
-5.62743e-15
9.62085e-15
-9.17566e-15
1.45705e-14
1.18482e-15
-1.40096e-14
1.4977e-14
2.71051e-14
-2.71051e-14
-1.01395e-16
-1.11625e-14
-9.40277e-15
5.82283e-15
-5.49991e-15
7.0295e-15
1.88784e-15
1.29378e-15
-8.82239e-15
-5.30889e-15
-1.29063e-14
-6.19096e-15
-7.14848e-15
-4.86618e-15
-3.69409e-15
-1.64415e-14
6.17924e-15
-2.05026e-14
-2.71051e-14
0
2.28167e-14
-1.08305e-14
-1.2217e-14
1.3323e-14
-1.71043e-14
1.59869e-14
-9.95011e-15
-1.83746e-14
-2.99306e-15
1.01453e-14
-2.95721e-14
-8.80347e-15
1.99682e-14
-1.89612e-14
-4.39624e-15
3.09302e-14
6.80857e-15
8.16063e-15
2.71051e-14
2.71051e-14
-7.48091e-15
-2.77438e-14
5.90822e-15
2.73298e-14
1.49371e-15
-3.32276e-15
-1.40004e-14
1.93458e-14
-3.48598e-14
2.87242e-14
1.827e-14
-2.81317e-14
-8.72705e-15
1.84783e-14
-2.48408e-14
7.59113e-15
2.96322e-17
7.52404e-15
-2.71051e-14
-2.71051e-14
-9.97868e-15
1.92409e-14
-5.96936e-15
-1.08674e-15
1.45025e-14
-9.3196e-15
6.01679e-15
-2.28122e-14
-1.55589e-14
1.98424e-14
1.69144e-14
-2.47386e-14
-2.3498e-16
-8.60216e-15
3.73964e-16
3.70292e-15
-7.17349e-15
1.57927e-14
2.71051e-14
2.71051e-14
-2.31787e-14
-3.27621e-16
-1.82172e-16
-1.25795e-14
2.58201e-16
4.86436e-15
1.52135e-14
2.2326e-14
1.29632e-14
-2.06091e-14
-1.02727e-14
-2.34836e-15
2.48658e-15
-1.26046e-14
-1.50327e-14
1.41836e-14
-1.04813e-14
-7.01071e-15
0
0
-3.33393e-15
-1.75142e-14
2.83475e-16
-7.38933e-15
-1.13987e-14
-2.3412e-14
1.84823e-15
-9.88476e-15
2.37681e-14
9.10768e-15
-2.82376e-15
-3.32763e-15
-1.00214e-14
-2.8719e-15
1.73895e-14
-7.95627e-15
-1.54324e-14
-5.17946e-15
0
0
-1.20001e-14
6.10301e-15
1.47002e-14
-2.91354e-14
1.55671e-14
-7.5983e-15
-2.26128e-14
1.80624e-15
-1.07992e-14
1.47199e-14
9.3932e-15
1.59862e-14
-3.94401e-14
9.90748e-17
-2.16533e-15
9.56829e-15
-5.09007e-15
-7.2998e-15
0
0
0
0
-2.71051e-14
2.71051e-14
-2.71051e-14
0
0
0
-2.71051e-14
0
2.71051e-14
0
-2.71051e-14
0
0
2.71051e-14
0
0
0
)
;

boundaryField
{
    movingWall
    {
        type            extrapolatedCalculated;
        value           nonuniform List<scalar> 
20
(
0
0
0
-2.71051e-14
2.71051e-14
-2.71051e-14
0
0
0
-2.71051e-14
0
2.71051e-14
0
-2.71051e-14
0
0
2.71051e-14
0
0
0
)
;
    }
    fixedWalls
    {
        type            extrapolatedCalculated;
        value           nonuniform List<scalar> 
60
(
-8.13152e-14
2.71051e-14
0
0
0
-2.71051e-14
0
2.71051e-14
-2.71051e-14
2.71051e-14
0
0
-2.71051e-14
0
2.71051e-14
-2.71051e-14
2.71051e-14
0
0
0
2.71051e-14
-2.71051e-14
0
-2.71051e-14
2.71051e-14
0
0
0
-2.71051e-14
2.71051e-14
0
2.71051e-14
-2.71051e-14
2.71051e-14
-2.71051e-14
2.71051e-14
0
0
0
0
-8.13152e-14
1.52191e-14
-1.61692e-16
-1.35724e-14
-5.2269e-15
1.60346e-14
9.79818e-15
-1.5324e-14
1.01482e-14
-1.77564e-14
2.50428e-16
1.5203e-15
1.97142e-14
-1.32703e-14
1.27504e-14
-1.73269e-14
1.47044e-14
3.23479e-15
-2.12366e-14
2.71051e-14
)
;
    }
    frontAndBack
    {
        type            empty;
    }
}


// ************************************************************************* //
