/*--------------------------------*- C++ -*----------------------------------*\
| =========                 |                                                 |
| \\      /  F ield         | OpenFOAM: The Open Source CFD Toolbox           |
|  \\    /   O peration     | Version:  2312                                  |
|   \\  /    A nd           | Website:  www.openfoam.com                      |
|    \\/     M anipulation  |                                                 |
\*---------------------------------------------------------------------------*/
FoamFile
{
    version     2.0;
    format      ascii;
    arch        "LSB;label=32;scalar=64";
    class       volScalarField;
    location    "6.75";
    object      divU;
}
// * * * * * * * * * * * * * * * * * * * * * * * * * * * * * * * * * * * * * //

dimensions      [0 0 -1 0 0 0 0];

internalField   nonuniform List<scalar> 
400
(
1.61004e-11
-2.20972e-12
4.37035e-13
-1.98443e-13
6.52626e-14
-5.44139e-14
-2.2706e-16
9.66228e-15
6.68338e-15
-1.99407e-14
8.57895e-15
1.93541e-14
2.21043e-14
-2.8058e-14
-2.11813e-14
3.77404e-14
-3.54531e-14
2.87927e-14
3.12427e-15
-2.71051e-14
-2.89753e-11
3.91493e-12
-7.65048e-13
2.69445e-13
-6.91784e-14
6.04758e-14
2.72811e-14
2.93765e-14
-1.30674e-14
3.46871e-15
2.59384e-15
-2.88153e-14
-1.78257e-14
2.36446e-14
7.20692e-15
3.76386e-14
-4.87522e-14
4.24516e-14
-9.28274e-15
0
1.14654e-11
-1.88782e-12
3.52524e-13
-1.90326e-13
8.65183e-14
-2.1254e-14
4.18099e-15
3.91957e-14
-7.19835e-14
-6.36471e-15
-1.61428e-14
2.47785e-14
4.70652e-14
6.78742e-15
-1.74261e-15
-5.31939e-14
4.25995e-14
1.09582e-14
-4.11592e-14
0
1.00831e-11
-5.52191e-13
8.1684e-14
-7.98024e-14
2.10764e-14
-1.55353e-15
4.79898e-14
7.41593e-15
8.73065e-15
-1.32534e-14
1.76612e-14
8.44452e-15
-6.45734e-14
-6.04458e-15
-5.85094e-14
5.98562e-14
2.35457e-14
-3.23694e-14
6.7276e-14
0
-1.89735e-11
2.1503e-12
-3.64476e-13
1.87354e-13
-2.9604e-14
-1.35745e-14
-1.59772e-15
1.20856e-14
7.90727e-15
-1.17131e-14
-5.30272e-15
-2.72482e-14
7.652e-15
4.92031e-14
-9.09798e-15
-9.29225e-15
-3.39859e-15
1.43905e-14
2.54003e-14
-5.42101e-14
1.42844e-11
-2.07437e-12
3.72832e-13
-1.89915e-13
3.87517e-14
1.15628e-15
-1.70071e-14
2.10672e-14
-2.34751e-14
-1.46071e-14
3.09681e-14
-1.479e-14
-5.85378e-15
3.87597e-14
-3.28359e-14
-1.95427e-14
2.18662e-14
-3.86981e-15
4.50824e-14
-5.42101e-14
3.7405e-12
-2.97923e-13
7.20398e-14
-2.007e-14
2.92317e-14
-7.12945e-15
1.82878e-14
-1.95324e-14
1.19234e-14
1.43392e-14
-4.43063e-14
6.0632e-14
-1.7117e-14
1.25523e-14
-5.00117e-15
3.38623e-14
-2.95402e-14
-1.78246e-14
3.98462e-14
-5.42101e-14
-1.79435e-11
2.87459e-12
-6.21336e-13
1.35231e-13
1.4211e-14
-7.78716e-15
-1.45621e-14
-1.08425e-15
-9.56497e-15
-1.95725e-14
1.11365e-13
-2.57571e-15
-5.58312e-14
5.55394e-14
-3.0908e-15
1.66414e-14
-1.16374e-14
1.2667e-14
5.03377e-14
0
1.40133e-11
-2.6257e-12
4.93662e-13
-2.12474e-13
3.63957e-14
-3.4889e-14
4.17323e-15
-1.97224e-14
5.7809e-15
5.60202e-15
-4.89424e-14
2.85367e-14
-1.29118e-14
-9.58826e-15
-1.08684e-14
8.68852e-15
-2.32896e-14
5.28912e-14
-9.68878e-15
-5.42101e-14
-4.01155e-12
9.70879e-13
-1.20269e-13
8.86282e-14
7.36315e-15
-1.87053e-14
-2.66279e-14
4.02739e-14
5.36273e-15
-2.67127e-16
5.7696e-14
4.83126e-15
-1.30623e-14
-7.96117e-15
-1.98705e-15
2.73256e-14
-2.42663e-14
6.08615e-15
-1.86693e-14
0
-9.75782e-13
3.77645e-13
-9.69995e-14
3.60301e-14
-2.59755e-14
2.55928e-14
6.71411e-16
-3.51113e-15
4.83079e-14
-4.03198e-14
1.57582e-14
-3.07952e-14
-2.24769e-14
1.34991e-14
-4.21042e-15
1.17267e-14
1.77433e-14
-2.9543e-14
4.37944e-14
-2.71051e-14
7.91468e-12
-2.10805e-12
4.47049e-13
-1.61141e-13
3.60681e-14
1.05318e-14
-3.35945e-14
-5.78772e-14
2.73309e-14
3.36326e-14
1.26881e-14
-7.08505e-15
-2.8193e-14
3.05187e-15
1.62086e-15
4.08839e-14
-1.43364e-14
1.857e-14
-5.40754e-14
0
-1.73201e-11
3.39596e-12
-6.54559e-13
2.49318e-13
-3.80483e-14
2.46167e-14
-6.31018e-16
-3.39837e-14
5.4108e-14
-1.57557e-14
-8.36538e-14
-7.72326e-15
7.21918e-14
2.37919e-14
-5.57847e-14
-7.80809e-15
6.23452e-15
-1.91454e-14
4.60939e-14
0
1.76725e-11
-3.10554e-12
6.28926e-13
-2.66457e-13
5.39883e-14
-1.80617e-14
2.4797e-14
-2.99289e-14
5.90675e-15
4.07509e-14
2.85482e-14
-6.60827e-15
-4.82437e-14
2.27748e-14
-2.95894e-14
2.82925e-16
3.1351e-14
-5.74624e-16
-5.85073e-15
-5.42101e-14
-2.6563e-12
1.04295e-12
-1.97074e-13
8.29412e-14
-3.50057e-14
2.70679e-14
-6.83255e-15
-1.62575e-14
-1.51668e-15
-4.56217e-14
-4.53943e-15
-5.28825e-15
2.7883e-14
-1.83899e-14
-1.26841e-14
7.44257e-15
1.02989e-14
3.09806e-15
4.37271e-14
0
-1.66425e-11
1.69892e-12
-3.04493e-13
1.16793e-13
5.45579e-15
1.75137e-14
-7.21439e-15
4.58931e-15
-1.28383e-15
1.18204e-14
-1.1739e-14
-1.38649e-14
5.18016e-15
3.76136e-14
6.58612e-15
-6.0258e-15
-3.24248e-16
-7.91847e-15
1.27009e-14
-2.71051e-14
2.08167e-11
-2.29248e-12
4.53307e-13
-2.22082e-13
8.99635e-15
2.55205e-14
-2.52469e-14
1.8512e-14
2.46316e-14
1.14408e-14
-1.5179e-14
1.84647e-14
-7.18536e-15
2.95535e-15
-5.15086e-14
3.13038e-14
-1.03996e-14
-2.72112e-15
2.26058e-14
0
-2.24972e-12
5.97086e-13
-1.69658e-13
7.39825e-14
5.26923e-14
-1.4883e-14
-1.44179e-14
-2.33891e-14
-1.31636e-14
2.77965e-14
8.98345e-15
-3.15498e-14
2.96002e-14
-1.84445e-14
1.13909e-14
8.3676e-14
-3.71046e-14
-2.42642e-14
-4.8498e-15
0
-1.88922e-11
1.57186e-12
-3.578e-13
9.48671e-14
-3.24739e-14
5.1906e-14
-1.93091e-14
-2.58085e-14
1.06881e-14
-1.03513e-14
1.18374e-14
1.33591e-14
-1.15614e-14
4.62311e-14
-6.94507e-14
2.43194e-14
-1.25107e-14
5.15456e-14
-9.49711e-15
0
1.27394e-11
-1.51788e-12
3.52366e-13
-1.0842e-13
2.71051e-14
-2.71051e-14
0
2.71051e-14
-2.71051e-14
0
2.71051e-14
2.71051e-14
0
0
0
0
-2.71051e-14
0
2.71051e-14
-2.71051e-14
)
;

boundaryField
{
    movingWall
    {
        type            extrapolatedCalculated;
        value           nonuniform List<scalar> 
20
(
1.27394e-11
-1.51788e-12
3.52366e-13
-1.0842e-13
2.71051e-14
-2.71051e-14
0
2.71051e-14
-2.71051e-14
0
2.71051e-14
2.71051e-14
0
0
0
0
-2.71051e-14
0
2.71051e-14
-2.71051e-14
)
;
    }
    fixedWalls
    {
        type            extrapolatedCalculated;
        value           nonuniform List<scalar> 
60
(
1.61004e-11
-2.89753e-11
1.14654e-11
1.00831e-11
-1.89735e-11
1.42844e-11
3.7405e-12
-1.79435e-11
1.40133e-11
-4.01155e-12
-9.75782e-13
7.91468e-12
-1.73201e-11
1.76725e-11
-2.6563e-12
-1.66425e-11
2.08167e-11
-2.24972e-12
-1.88922e-11
1.27394e-11
-2.71051e-14
0
0
0
-5.42101e-14
-5.42101e-14
-5.42101e-14
0
-5.42101e-14
0
-2.71051e-14
0
0
-5.42101e-14
0
-2.71051e-14
0
0
0
-2.71051e-14
1.61004e-11
-2.20972e-12
4.37035e-13
-1.98443e-13
6.52626e-14
-5.44139e-14
-2.2706e-16
9.66228e-15
6.68338e-15
-1.99407e-14
8.57895e-15
1.93541e-14
2.21043e-14
-2.8058e-14
-2.11813e-14
3.77404e-14
-3.54531e-14
2.87927e-14
3.12427e-15
-2.71051e-14
)
;
    }
    frontAndBack
    {
        type            empty;
    }
}


// ************************************************************************* //
