/*--------------------------------*- C++ -*----------------------------------*\
| =========                 |                                                 |
| \\      /  F ield         | OpenFOAM: The Open Source CFD Toolbox           |
|  \\    /   O peration     | Version:  2312                                  |
|   \\  /    A nd           | Website:  www.openfoam.com                      |
|    \\/     M anipulation  |                                                 |
\*---------------------------------------------------------------------------*/
FoamFile
{
    version     2.0;
    format      ascii;
    arch        "LSB;label=32;scalar=64";
    class       volScalarField;
    location    "6.75";
    object      enstrophyField;
}
// * * * * * * * * * * * * * * * * * * * * * * * * * * * * * * * * * * * * * //

dimensions      [0 0 -2 0 0 0 0];

internalField   nonuniform List<scalar> 
400
(
6.86088e-23
1.20662e-22
5.56023e-24
3.41218e-25
8.72282e-27
2.38861e-27
1.0121e-28
2.38594e-27
1.22455e-31
1.55462e-27
1.97e-27
1.27859e-28
1.6322e-27
1.09868e-27
1.56076e-28
1.08398e-27
7.09869e-29
1.46826e-30
3.07723e-31
3.5576e-29
8.46743e-26
2.80367e-26
1.39989e-26
8.32884e-27
1.52387e-26
1.38209e-26
3.06573e-27
1.19483e-27
3.0672e-27
3.76757e-28
4.72333e-28
1.33874e-27
2.99863e-27
2.76473e-28
3.11351e-28
3.7411e-27
1.94819e-29
1.50449e-28
2.28104e-28
8.95534e-31
1.96949e-23
7.21572e-23
3.79698e-24
2.1003e-25
9.7442e-27
1.21502e-28
3.9446e-28
6.13291e-28
8.62448e-27
4.33419e-27
4.06121e-27
2.60381e-27
5.35576e-28
1.17842e-27
7.23162e-27
2.76631e-27
3.29626e-28
3.00108e-28
6.20756e-28
3.61547e-29
2.02626e-23
5.73611e-23
2.67247e-24
2.2457e-25
1.37579e-28
1.09615e-26
2.74488e-27
9.85163e-29
2.56406e-28
2.30491e-27
8.55433e-28
1.4777e-27
8.75393e-28
2.13042e-27
4.50385e-29
1.63275e-27
4.70926e-27
1.27478e-29
2.28058e-30
9.14992e-28
4.93145e-24
2.83212e-24
2.27143e-25
8.79259e-29
2.06693e-26
1.12925e-26
1.37618e-27
1.77232e-30
4.22854e-28
1.00755e-29
1.02875e-27
2.93275e-31
2.25015e-30
3.72525e-27
5.64139e-27
2.74499e-28
1.1633e-29
5.2928e-28
1.81621e-27
6.95673e-29
5.58869e-24
2.72353e-23
1.30281e-24
8.11748e-26
1.34263e-27
2.44087e-27
2.85913e-28
2.90495e-29
1.54237e-27
1.68986e-28
4.44752e-28
2.30729e-27
3.76063e-30
1.17906e-28
2.12593e-28
3.47279e-27
1.77836e-28
5.85826e-28
1.24332e-28
3.51836e-30
3.05837e-23
5.94415e-23
3.75299e-24
6.39159e-26
5.25547e-26
1.48828e-26
8.64919e-27
1.54256e-26
2.55009e-27
4.07427e-27
5.56701e-27
1.67492e-27
1.58441e-27
2.18341e-27
1.60194e-27
1.55365e-27
5.53709e-27
4.74406e-27
1.08576e-27
7.11011e-29
7.60606e-24
6.52544e-24
4.71493e-25
1.15668e-26
8.08615e-28
1.96195e-29
1.74921e-28
1.87776e-28
7.04773e-28
4.25862e-27
5.15848e-28
1.67004e-27
1.25811e-27
3.60754e-28
3.35191e-29
8.40107e-30
1.62995e-29
3.92576e-28
2.78993e-28
3.68338e-30
6.71747e-24
1.49849e-23
9.27132e-25
1.25118e-26
1.23266e-26
1.93083e-27
2.19197e-27
6.17705e-27
6.78258e-27
1.67224e-27
6.44266e-27
1.52312e-27
1.47714e-27
6.06476e-27
6.27485e-27
7.90058e-28
4.14042e-27
1.03647e-27
9.82639e-29
6.20385e-30
2.91246e-23
4.17131e-23
2.42626e-24
9.06187e-26
1.47864e-26
4.47599e-28
3.69045e-28
1.71385e-27
5.56904e-28
4.83036e-30
1.51983e-27
6.84988e-28
2.4808e-27
7.05872e-30
2.39411e-28
1.45723e-27
1.48696e-27
1.21046e-29
9.08618e-28
1.27385e-29
3.40249e-23
4.3755e-23
2.34042e-24
1.38468e-25
6.80606e-27
1.51454e-28
1.10752e-29
5.93716e-27
3.93522e-27
5.34942e-27
1.70444e-27
3.35904e-27
1.36735e-27
6.69766e-27
4.48593e-27
1.7294e-27
2.18738e-28
1.43292e-27
2.5735e-28
1.08026e-28
2.05939e-23
3.44423e-23
1.9692e-24
9.16423e-26
1.28711e-26
2.01313e-27
5.17296e-27
2.75226e-27
6.88433e-28
3.54988e-28
1.43064e-29
1.17449e-28
3.98859e-27
1.30517e-28
7.11374e-29
2.56059e-27
1.85814e-27
3.21933e-28
4.89051e-32
2.2376e-28
3.46732e-25
1.64275e-24
1.52701e-25
1.46835e-28
4.72311e-27
8.85985e-27
1.02272e-26
1.54699e-26
9.15735e-27
7.5158e-27
5.02772e-27
9.45623e-27
1.99575e-27
1.45983e-26
6.0084e-27
3.82984e-27
4.2239e-28
1.31246e-28
7.42181e-29
3.03196e-28
1.54901e-23
2.94904e-23
1.63436e-24
8.3902e-26
8.12939e-27
6.12759e-28
4.81518e-30
8.16652e-28
4.11375e-29
7.62517e-28
6.15276e-33
1.14595e-29
8.94894e-29
2.4499e-27
5.4251e-30
8.56932e-29
4.39661e-29
5.94203e-30
6.36604e-28
8.08497e-30
4.34158e-23
9.63517e-23
5.87326e-24
2.17349e-25
4.33917e-26
2.54374e-27
1.09017e-26
8.44274e-27
5.70904e-27
7.09419e-27
1.01513e-26
1.04887e-26
7.74079e-27
6.1923e-27
6.12926e-28
1.9645e-28
6.34561e-28
2.21069e-29
2.46083e-29
3.90537e-28
1.91095e-23
4.46527e-23
2.40203e-24
1.36884e-25
1.36807e-27
6.11252e-29
1.5379e-27
9.38013e-28
1.50725e-27
2.30708e-27
2.81615e-27
3.63877e-27
1.57987e-27
9.43209e-28
1.6066e-28
1.64574e-27
7.9877e-28
9.9866e-29
7.18087e-30
1.50468e-28
1.35621e-25
1.83422e-24
1.00084e-25
6.26981e-27
1.97334e-28
5.70606e-30
6.81475e-29
1.23327e-29
3.14066e-29
2.84237e-28
5.10461e-28
5.54364e-28
1.43005e-27
1.57244e-28
5.10713e-27
2.06607e-27
1.30145e-28
1.3924e-33
2.71986e-32
4.04823e-29
7.00349e-24
5.21567e-23
2.52394e-24
1.86356e-25
2.76673e-28
7.07687e-28
1.08858e-29
2.01529e-31
4.36398e-27
4.27372e-27
7.23495e-27
4.56025e-27
7.77401e-28
3.07874e-29
1.04023e-27
1.30973e-27
6.59524e-28
1.80347e-27
3.26056e-30
5.09224e-31
3.22555e-24
7.22108e-24
5.64169e-25
1.94026e-28
3.07307e-26
1.36148e-26
1.10555e-26
9.09979e-27
7.63269e-27
2.47142e-27
2.53593e-27
2.80384e-27
3.243e-27
2.0848e-27
4.62846e-27
1.03358e-27
1.68753e-28
1.50744e-27
1.46247e-29
1.6459e-28
1.41688e-23
3.52302e-23
1.33578e-24
1.66278e-25
8.95604e-28
7.68412e-27
2.51929e-27
3.49347e-27
1.66437e-27
1.48685e-28
9.10278e-29
2.97209e-28
1.24377e-29
1.85399e-27
2.01826e-28
1.8085e-29
3.92041e-29
6.88762e-30
9.38686e-31
6.8759e-28
)
;

boundaryField
{
    movingWall
    {
        type            calculated;
        value           nonuniform List<scalar> 
20
(
7.69632e-23
5.35888e-23
1.25592e-24
3.535e-25
3.434e-26
6.87537e-26
3.27991e-26
4.90268e-26
2.54318e-26
1.40742e-26
2.17469e-26
1.5297e-26
9.55159e-27
1.69867e-26
7.96483e-27
8.09152e-27
3.92041e-29
6.88762e-30
9.38686e-31
1.47899e-27
)
;
    }
    fixedWalls
    {
        type            calculated;
        value           nonuniform List<scalar> 
60
(
2.14155e-21
4.60698e-27
1.33618e-21
1.03562e-21
5.86506e-23
4.77891e-22
1.1282e-21
1.42551e-22
2.73434e-22
7.78351e-22
8.00261e-22
6.31333e-22
3.40998e-23
5.40284e-22
1.7841e-21
8.09965e-22
3.15963e-23
9.29562e-22
1.45052e-22
5.9996e-22
8.76561e-29
8.91951e-29
1.19367e-29
6.32675e-28
1.64064e-28
6.77243e-29
1.28713e-28
4.56232e-29
3.65596e-30
1.56882e-30
1.84754e-29
1.03063e-28
3.83636e-28
1.72024e-29
4.21168e-28
4.17905e-28
1.77759e-28
5.04612e-30
4.79956e-29
1.13142e-27
1.66986e-22
1.60252e-22
4.54924e-24
6.15889e-25
7.75889e-27
6.22603e-26
5.30916e-27
1.8529e-26
3.90047e-27
9.18425e-28
6.42596e-28
2.65186e-27
4.27747e-30
2.05952e-27
2.53116e-27
7.88492e-27
7.09869e-29
9.11444e-28
3.07723e-31
1.39625e-27
)
;
    }
    frontAndBack
    {
        type            empty;
    }
}


// ************************************************************************* //
