/*--------------------------------*- C++ -*----------------------------------*\
| =========                 |                                                 |
| \\      /  F ield         | OpenFOAM: The Open Source CFD Toolbox           |
|  \\    /   O peration     | Version:  2312                                  |
|   \\  /    A nd           | Website:  www.openfoam.com                      |
|    \\/     M anipulation  |                                                 |
\*---------------------------------------------------------------------------*/
FoamFile
{
    version     2.0;
    format      ascii;
    arch        "LSB;label=32;scalar=64";
    class       volScalarField;
    location    "6.75";
    object      epsilonzeroGrad;
}
// * * * * * * * * * * * * * * * * * * * * * * * * * * * * * * * * * * * * * //

dimensions      [0 2 -3 0 0 0 0];

internalField   nonuniform List<scalar> 
400
(
2.57903e-06
2.57903e-06
2.57903e-06
2.57902e-06
2.57902e-06
2.57902e-06
2.57902e-06
2.57901e-06
2.57902e-06
2.57901e-06
2.57902e-06
2.57901e-06
2.57902e-06
2.57901e-06
2.57901e-06
2.57901e-06
2.57901e-06
2.57901e-06
2.57901e-06
2.57901e-06
2.71651e-06
2.67507e-06
2.67854e-06
2.67996e-06
2.68285e-06
2.68431e-06
2.6872e-06
2.68871e-06
2.69161e-06
2.69317e-06
2.69607e-06
2.69767e-06
2.70058e-06
2.70224e-06
2.70515e-06
2.70685e-06
2.70977e-06
2.71152e-06
2.71299e-06
2.71533e-06
2.92392e-06
2.87748e-06
2.88143e-06
2.88304e-06
2.88632e-06
2.88796e-06
2.89124e-06
2.89292e-06
2.8962e-06
2.89793e-06
2.9012e-06
2.90297e-06
2.90624e-06
2.90805e-06
2.91132e-06
2.91317e-06
2.91644e-06
2.91834e-06
2.91998e-06
2.92256e-06
3.12778e-06
3.07694e-06
3.08126e-06
3.08303e-06
3.08661e-06
3.08841e-06
3.092e-06
3.09384e-06
3.09742e-06
3.09931e-06
3.10289e-06
3.10483e-06
3.10841e-06
3.11039e-06
3.11396e-06
3.11599e-06
3.11957e-06
3.12164e-06
3.12343e-06
3.12627e-06
3.28695e-06
3.23256e-06
3.23718e-06
3.23906e-06
3.24289e-06
3.24481e-06
3.24865e-06
3.25061e-06
3.25445e-06
3.25647e-06
3.2603e-06
3.26237e-06
3.26619e-06
3.26831e-06
3.27214e-06
3.27431e-06
3.27813e-06
3.28035e-06
3.28227e-06
3.2853e-06
3.39487e-06
3.33803e-06
3.34285e-06
3.34482e-06
3.34882e-06
3.35083e-06
3.35484e-06
3.35689e-06
3.3609e-06
3.363e-06
3.36701e-06
3.36917e-06
3.37317e-06
3.37538e-06
3.37938e-06
3.38165e-06
3.38564e-06
3.38796e-06
3.38997e-06
3.39314e-06
3.46248e-06
3.40408e-06
3.40903e-06
3.41106e-06
3.41516e-06
3.41722e-06
3.42134e-06
3.42345e-06
3.42756e-06
3.42973e-06
3.43384e-06
3.43606e-06
3.44017e-06
3.44244e-06
3.44655e-06
3.44888e-06
3.45298e-06
3.45537e-06
3.45743e-06
3.46068e-06
3.50393e-06
3.44458e-06
3.44961e-06
3.45167e-06
3.45583e-06
3.45793e-06
3.46211e-06
3.46426e-06
3.46844e-06
3.47064e-06
3.47481e-06
3.47707e-06
3.48124e-06
3.48356e-06
3.48773e-06
3.4901e-06
3.49427e-06
3.4967e-06
3.49879e-06
3.5021e-06
3.53049e-06
3.47052e-06
3.4756e-06
3.47768e-06
3.48189e-06
3.48401e-06
3.48823e-06
3.4904e-06
3.49462e-06
3.49685e-06
3.50107e-06
3.50335e-06
3.50756e-06
3.5099e-06
3.51411e-06
3.51651e-06
3.52072e-06
3.52317e-06
3.52529e-06
3.52863e-06
3.54946e-06
3.48906e-06
3.49418e-06
3.49627e-06
3.50051e-06
3.50265e-06
3.5069e-06
3.50909e-06
3.51334e-06
3.51558e-06
3.51983e-06
3.52213e-06
3.52637e-06
3.52873e-06
3.53297e-06
3.53538e-06
3.53963e-06
3.54209e-06
3.54422e-06
3.54759e-06
3.56516e-06
3.5044e-06
3.50954e-06
3.51165e-06
3.51591e-06
3.51806e-06
3.52234e-06
3.52453e-06
3.52881e-06
3.53107e-06
3.53534e-06
3.53765e-06
3.54192e-06
3.54429e-06
3.54856e-06
3.55099e-06
3.55525e-06
3.55774e-06
3.55988e-06
3.56327e-06
3.57997e-06
3.51887e-06
3.52405e-06
3.52617e-06
3.53045e-06
3.53261e-06
3.53691e-06
3.53912e-06
3.54342e-06
3.54569e-06
3.54999e-06
3.55231e-06
3.55661e-06
3.55899e-06
3.56328e-06
3.56572e-06
3.57001e-06
3.57251e-06
3.57466e-06
3.57807e-06
3.5953e-06
3.53385e-06
3.53905e-06
3.54118e-06
3.54549e-06
3.54766e-06
3.55199e-06
3.55421e-06
3.55854e-06
3.56082e-06
3.56514e-06
3.56748e-06
3.57179e-06
3.57419e-06
3.57851e-06
3.58096e-06
3.58528e-06
3.58779e-06
3.58996e-06
3.59338e-06
3.61197e-06
3.55014e-06
3.55537e-06
3.55751e-06
3.56185e-06
3.56404e-06
3.56839e-06
3.57062e-06
3.57498e-06
3.57727e-06
3.58162e-06
3.58397e-06
3.58831e-06
3.59073e-06
3.59507e-06
3.59754e-06
3.60188e-06
3.60441e-06
3.60659e-06
3.61004e-06
3.63046e-06
3.5682e-06
3.57347e-06
3.57563e-06
3.58e-06
3.5822e-06
3.58658e-06
3.58883e-06
3.59321e-06
3.59552e-06
3.5999e-06
3.60227e-06
3.60664e-06
3.60907e-06
3.61344e-06
3.61593e-06
3.6203e-06
3.62285e-06
3.62504e-06
3.62851e-06
3.6508e-06
3.58808e-06
3.59339e-06
3.59556e-06
3.59996e-06
3.60218e-06
3.60659e-06
3.60886e-06
3.61327e-06
3.6156e-06
3.62001e-06
3.62239e-06
3.6268e-06
3.62925e-06
3.63365e-06
3.63616e-06
3.64056e-06
3.64312e-06
3.64533e-06
3.64883e-06
3.67224e-06
3.60903e-06
3.61438e-06
3.61657e-06
3.621e-06
3.62323e-06
3.62768e-06
3.62997e-06
3.63441e-06
3.63676e-06
3.6412e-06
3.64361e-06
3.64805e-06
3.65051e-06
3.65495e-06
3.65748e-06
3.66192e-06
3.6645e-06
3.66673e-06
3.67025e-06
3.69287e-06
3.62921e-06
3.63459e-06
3.6368e-06
3.64126e-06
3.64351e-06
3.64799e-06
3.65029e-06
3.65477e-06
3.65713e-06
3.6616e-06
3.66403e-06
3.6685e-06
3.67099e-06
3.67545e-06
3.678e-06
3.68247e-06
3.68507e-06
3.68732e-06
3.69087e-06
3.7096e-06
3.64681e-06
3.65203e-06
3.65416e-06
3.65851e-06
3.6607e-06
3.66508e-06
3.66734e-06
3.67173e-06
3.67407e-06
3.67846e-06
3.68088e-06
3.68528e-06
3.68778e-06
3.69219e-06
3.69477e-06
3.69919e-06
3.70185e-06
3.70407e-06
3.70763e-06
3.71719e-06
3.71718e-06
3.71718e-06
3.71717e-06
3.71718e-06
3.71717e-06
3.71717e-06
3.71716e-06
3.71717e-06
3.71716e-06
3.71717e-06
3.71716e-06
3.71716e-06
3.71716e-06
3.71716e-06
3.71716e-06
3.71716e-06
3.71716e-06
3.71716e-06
3.71716e-06
)
;

boundaryField
{
    movingWall
    {
        type            zeroGradient;
    }
    fixedWalls
    {
        type            zeroGradient;
    }
    frontAndBack
    {
        type            empty;
    }
}


// ************************************************************************* //
