/*--------------------------------*- C++ -*----------------------------------*\
| =========                 |                                                 |
| \\      /  F ield         | OpenFOAM: The Open Source CFD Toolbox           |
|  \\    /   O peration     | Version:  2312                                  |
|   \\  /    A nd           | Website:  www.openfoam.com                      |
|    \\/     M anipulation  |                                                 |
\*---------------------------------------------------------------------------*/
FoamFile
{
    version     2.0;
    format      ascii;
    arch        "LSB;label=32;scalar=64";
    class       surfaceScalarField;
    location    "6.75";
    object      fluxField;
}
// * * * * * * * * * * * * * * * * * * * * * * * * * * * * * * * * * * * * * //

dimensions      [0 3 -1 0 0 0 0];

oriented        oriented;

internalField   nonuniform List<scalar> 
760
(
-5e-05
4.21831e-18
-5e-05
-9.04797e-19
-5e-05
2.17679e-19
-5e-05
-4.28345e-20
-5e-05
1.63156e-20
-5e-05
6.72532e-21
-5e-05
6.7195e-21
-5e-05
2.41557e-21
-5e-05
1.67085e-21
-5e-05
1.79109e-21
-5e-05
2.14474e-21
-5e-05
4.83852e-21
-5e-05
5.52609e-21
-5e-05
-2.38235e-22
-5e-05
-5.29533e-21
-5e-05
-4.11743e-21
-5e-05
4.68926e-21
-5e-05
4.21916e-22
-5e-05
7.81067e-22
1.6623e-21
-5e-05
-3.4909e-18
-5e-05
7.55116e-19
-5e-05
-1.77709e-19
-5e-05
4.02561e-20
-5e-05
-3.74208e-21
-5e-05
8.3427e-21
-5e-05
6.82026e-21
-5e-05
7.34414e-21
-5e-05
3.50941e-21
-5e-05
8.67178e-22
-5e-05
6.4846e-22
-5e-05
-4.27554e-22
-5e-05
-4.45642e-21
-5e-05
-7.64138e-21
-5e-05
-4.97453e-21
-5e-05
2.63339e-21
-5e-05
8.14074e-21
-5e-05
-2.93963e-21
-5e-05
-2.32069e-21
5.2939e-22
-5e-05
-4.88152e-19
-5e-05
1.04026e-19
-5e-05
-2.70656e-20
-5e-05
6.62862e-21
-5e-05
1.30078e-21
-5e-05
1.46276e-21
-5e-05
1.04525e-21
-5e-05
3.02266e-21
-5e-05
2.33292e-21
-5e-05
-1.59118e-21
-5e-05
-4.03569e-21
-5e-05
-7.3579e-21
-5e-05
-8.5625e-21
-5e-05
-5.07941e-21
-5e-05
-4.35652e-22
-5e-05
7.03033e-21
-5e-05
3.87361e-21
-5e-05
-4.0367e-21
-5e-05
-3.51354e-21
-1.47027e-21
-5e-05
2.44195e-18
-5e-05
-5.37847e-19
-5e-05
1.28841e-19
-5e-05
-2.67269e-20
-5e-05
5.26909e-21
-5e-05
-7.16465e-21
-5e-05
-8.33134e-21
-5e-05
-4.92228e-21
-5e-05
2.18266e-21
-5e-05
3.46291e-21
-5e-05
-2.36096e-21
-5e-05
-4.66513e-21
-5e-05
-2.59081e-21
-5e-05
-1.51115e-21
-5e-05
-1.07483e-21
-5e-05
1.41153e-21
-5e-05
-8.8984e-22
-5e-05
-1.31608e-21
-5e-05
-3.50979e-21
-2.29704e-21
-5e-05
-2.74128e-18
-5e-05
5.91784e-19
-5e-05
-1.31777e-19
-5e-05
3.32859e-20
-5e-05
-7.40101e-21
-5e-05
-3.39362e-21
-5e-05
-7.17569e-21
-5e-05
-3.75485e-21
-5e-05
1.97682e-21
-5e-05
3.84799e-21
-5e-05
-1.32568e-21
-5e-05
-3.57878e-23
-5e-05
1.913e-21
-5e-05
-1.25176e-21
-5e-05
-2.2745e-21
-5e-05
-2.32306e-21
-5e-05
-8.49648e-22
-5e-05
3.59762e-21
-5e-05
-4.26179e-22
-1.85953e-21
-5e-05
9.46836e-19
-5e-05
-1.86555e-19
-5e-05
4.57741e-20
-5e-05
-6.82116e-21
-5e-05
2.91165e-21
-5e-05
2.8907e-22
-5e-05
2.52449e-21
-5e-05
5.2668e-21
-5e-05
7.68376e-21
-5e-05
3.12448e-21
-5e-05
9.65768e-22
-5e-05
3.07877e-21
-5e-05
5.31282e-21
-5e-05
2.91367e-21
-5e-05
-1.43272e-21
-5e-05
-4.88568e-21
-5e-05
-1.30972e-21
-5e-05
5.80881e-21
-5e-05
4.49433e-21
-3.61047e-23
-5e-05
2.07109e-18
-5e-05
-4.60728e-19
-5e-05
9.25489e-20
-5e-05
-3.21226e-20
-5e-05
5.31656e-22
-5e-05
-1.78236e-21
-5e-05
4.57194e-21
-5e-05
8.66942e-21
-5e-05
9.75712e-21
-5e-05
3.58481e-21
-5e-05
2.47594e-21
-5e-05
1.60547e-21
-5e-05
2.497e-21
-5e-05
3.13806e-21
-5e-05
-1.25029e-21
-5e-05
-5.08696e-21
-5e-05
-6.08789e-22
-5e-05
2.32012e-21
-5e-05
3.18529e-21
1.2883e-21
-5e-05
-2.54907e-18
-5e-05
5.28913e-19
-5e-05
-1.41781e-19
-5e-05
1.34789e-20
-5e-05
-1.6776e-20
-5e-05
-1.94679e-21
-5e-05
3.13574e-21
-5e-05
6.5052e-21
-5e-05
4.38502e-21
-5e-05
1.88315e-21
-5e-05
7.36233e-22
-5e-05
-6.43928e-22
-5e-05
-4.05266e-22
-5e-05
3.32315e-22
-5e-05
-7.727e-22
-5e-05
-2.61591e-21
-5e-05
-2.90934e-21
-5e-05
-3.60952e-21
-5e-05
-9.68092e-22
7.66022e-22
-5e-05
9.36604e-19
-5e-05
-2.15968e-19
-5e-05
4.21004e-20
-5e-05
-1.92371e-20
-5e-05
-4.45361e-21
-5e-05
-1.946e-21
-5e-05
1.04331e-21
-5e-05
1.84566e-21
-5e-05
1.44523e-21
-5e-05
1.4005e-21
-5e-05
1.31692e-21
-5e-05
3.57902e-22
-5e-05
3.54831e-21
-5e-05
4.3792e-21
-5e-05
4.05917e-21
-5e-05
2.17213e-21
-5e-05
-5.82239e-21
-5e-05
-7.106e-21
-5e-05
-2.42219e-21
2.79712e-22
-5e-05
2.80261e-21
-5e-05
-8.00194e-21
-5e-05
-2.9621e-21
-5e-05
-4.948e-21
-5e-05
-4.93548e-21
-5e-05
-4.67634e-21
-5e-05
-6.65698e-21
-5e-05
-3.48404e-21
-5e-05
1.34068e-21
-5e-05
-6.67816e-23
-5e-05
8.71469e-22
-5e-05
1.20781e-21
-5e-05
3.51068e-21
-5e-05
4.78597e-21
-5e-05
6.2795e-21
-5e-05
6.83139e-21
-5e-05
7.09698e-22
-5e-05
-5.25473e-21
-5e-05
-4.66734e-21
-2.69212e-22
-5e-05
-2.06687e-19
-5e-05
4.02011e-20
-5e-05
-1.74736e-20
-5e-05
-4.545e-21
-5e-05
-6.49388e-21
-5e-05
-7.15432e-21
-5e-05
-6.60841e-21
-5e-05
-8.77782e-22
-5e-05
5.30072e-21
-5e-05
3.47258e-21
-5e-05
3.93955e-21
-5e-05
5.85372e-21
-5e-05
1.15705e-21
-5e-05
-3.40148e-21
-5e-05
-1.0526e-21
-5e-05
2.93167e-21
-5e-05
4.43583e-21
-5e-05
-6.09497e-22
-5e-05
-2.60392e-21
4.16828e-22
-5e-05
1.67932e-18
-5e-05
-3.8471e-19
-5e-05
7.78809e-20
-5e-05
-2.67326e-20
-5e-05
2.24077e-21
-5e-05
-4.14331e-21
-5e-05
-1.62235e-21
-5e-05
-9.16768e-22
-5e-05
5.64724e-23
-5e-05
1.63188e-21
-5e-05
3.17202e-21
-5e-05
5.005e-21
-5e-05
-2.71981e-22
-5e-05
-6.0133e-21
-5e-05
-6.37105e-21
-5e-05
-3.33156e-21
-5e-05
-3.58409e-21
-5e-05
-2.13376e-21
-5e-05
3.36759e-23
8.33912e-22
-5e-05
-2.69939e-18
-5e-05
5.84716e-19
-5e-05
-1.43311e-19
-5e-05
2.84483e-20
-5e-05
-9.51208e-21
-5e-05
-6.22093e-22
-5e-05
-1.57754e-22
-5e-05
-1.71966e-21
-5e-05
-6.80179e-21
-5e-05
-3.93893e-21
-5e-05
-5.84664e-22
-5e-05
-1.93082e-21
-5e-05
-2.28084e-21
-5e-05
-8.28293e-22
-5e-05
-3.93656e-22
-5e-05
-1.95202e-21
-5e-05
-5.21763e-21
-5e-05
-4.78634e-21
-5e-05
-2.02906e-21
4.0376e-22
-5e-05
1.79579e-18
-5e-05
-3.90138e-19
-5e-05
8.94689e-20
-5e-05
-1.91805e-20
-5e-05
-5.54628e-23
-5e-05
-4.51544e-21
-5e-05
-5.77025e-22
-5e-05
-7.05958e-22
-5e-05
-5.29958e-21
-5e-05
-3.36479e-21
-5e-05
3.60779e-22
-5e-05
-1.65207e-21
-5e-05
1.49161e-21
-5e-05
5.69371e-21
-5e-05
6.15519e-21
-5e-05
7.07312e-23
-5e-05
1.06149e-21
-5e-05
-1.43656e-22
-5e-05
-1.46268e-21
2.46724e-22
-5e-05
1.2687e-18
-5e-05
-2.81363e-19
-5e-05
6.59279e-20
-5e-05
-1.3146e-20
-5e-05
4.8011e-21
-5e-05
-9.29394e-24
-5e-05
-1.70814e-21
-5e-05
-4.06436e-21
-5e-05
-7.15543e-21
-5e-05
-4.62916e-21
-5e-05
-1.13486e-21
-5e-05
-1.32206e-21
-5e-05
1.94479e-22
-5e-05
2.17879e-21
-5e-05
3.60525e-21
-5e-05
1.86064e-21
-5e-05
2.57474e-21
-5e-05
7.74514e-22
-5e-05
-2.62076e-21
-1.92677e-21
-5e-05
-3.30374e-18
-5e-05
7.22885e-19
-5e-05
-1.64215e-19
-5e-05
3.59745e-20
-5e-05
-5.41232e-21
-5e-05
4.37843e-21
-5e-05
-1.8036e-21
-5e-05
-5.62894e-21
-5e-05
-7.09722e-21
-5e-05
-3.82117e-21
-5e-05
-2.93476e-21
-5e-05
-3.46623e-21
-5e-05
-5.48122e-21
-5e-05
-4.14914e-21
-5e-05
1.64653e-21
-5e-05
5.26981e-21
-5e-05
-8.1062e-23
-5e-05
-1.97962e-21
-5e-05
-3.60103e-21
-2.98535e-21
-5e-05
2.40469e-18
-5e-05
-5.12133e-19
-5e-05
1.26879e-19
-5e-05
-2.84155e-20
-5e-05
2.24909e-21
-5e-05
-7.1724e-21
-5e-05
-6.31173e-21
-5e-05
-8.92453e-21
-5e-05
-7.39462e-21
-5e-05
-3.91607e-21
-5e-05
-3.79474e-21
-5e-05
-2.16009e-21
-5e-05
-1.79634e-21
-5e-05
7.38838e-22
-5e-05
6.75376e-22
-5e-05
1.04969e-21
-5e-05
-2.5999e-21
-5e-05
-6.80281e-22
-5e-05
-1.1248e-21
-1.377e-21
-5e-05
1.93356e-18
-5e-05
-4.19935e-19
-5e-05
9.98871e-20
-5e-05
-2.2162e-20
-5e-05
-3.79448e-22
-5e-05
-1.0497e-20
-5e-05
-1.03807e-20
-5e-05
-1.26235e-20
-5e-05
-1.00672e-20
-5e-05
-6.60341e-21
-5e-05
-4.5304e-21
-5e-05
-1.11119e-21
-5e-05
6.23798e-22
-5e-05
2.16514e-21
-5e-05
-3.92854e-21
-5e-05
-6.18604e-21
-5e-05
-2.49989e-21
-5e-05
7.10205e-22
-5e-05
-1.21245e-21
-1.28027e-21
-5e-05
-3.40909e-18
-5e-05
7.25003e-19
-5e-05
-1.70765e-19
-5e-05
3.72693e-20
-5e-05
-8.11846e-21
-5e-05
-5.76034e-22
-5e-05
-4.82728e-21
-5e-05
-6.45212e-21
-5e-05
-4.10423e-21
-5e-05
-2.58782e-21
-5e-05
-3.81692e-21
-5e-05
-3.43648e-21
-5e-05
-2.89035e-21
-5e-05
-1.99475e-21
-5e-05
-3.81015e-21
-5e-05
-7.47268e-21
-5e-05
-3.12769e-21
-5e-05
-6.66133e-22
-5e-05
-2.37428e-21
-2.36074e-21
-5e-05
-5e-05
-5e-05
-5e-05
-5e-05
-5e-05
-5e-05
-5e-05
-5e-05
-5e-05
-5e-05
-5e-05
-5e-05
-5e-05
-5e-05
-5e-05
-5e-05
-5e-05
-5e-05
)
;

boundaryField
{
    movingWall
    {
        type            calculated;
        value           uniform -0;
    }
    fixedWalls
    {
        type            calculated;
        value           nonuniform List<scalar> 
60
(
5e-05
5e-05
5e-05
5e-05
5e-05
5e-05
5e-05
5e-05
5e-05
5e-05
5e-05
5e-05
5e-05
5e-05
5e-05
5e-05
5e-05
5e-05
5e-05
5e-05
-5e-05
-5e-05
-5e-05
-5e-05
-5e-05
-5e-05
-5e-05
-5e-05
-5e-05
-5e-05
-5e-05
-5e-05
-5e-05
-5e-05
-5e-05
-5e-05
-5e-05
-5e-05
-5e-05
-5e-05
0
0
0
0
0
0
0
0
0
0
0
0
0
0
0
0
0
0
0
0
)
;
    }
    frontAndBack
    {
        type            empty;
        value           nonuniform List<scalar> 0();
    }
}


// ************************************************************************* //
