/*--------------------------------*- C++ -*----------------------------------*\
| =========                 |                                                 |
| \\      /  F ield         | OpenFOAM: The Open Source CFD Toolbox           |
|  \\    /   O peration     | Version:  2312                                  |
|   \\  /    A nd           | Website:  www.openfoam.com                      |
|    \\/     M anipulation  |                                                 |
\*---------------------------------------------------------------------------*/
FoamFile
{
    version     2.0;
    format      ascii;
    arch        "LSB;label=32;scalar=64";
    class       volVectorField;
    location    "6.75";
    object      gradPhi;
}
// * * * * * * * * * * * * * * * * * * * * * * * * * * * * * * * * * * * * * //

dimensions      [0 2 -1 0 0 0 0];

internalField   nonuniform List<vector> 
400
(
(-0.02 9.00773e-17 0)
(1.40621e-16 -1.40185e-16 0)
(-4.30134e-17 4.336e-17 0)
(4.96308e-18 -6.09963e-18 0)
(-1.65436e-18 2.44916e-18 0)
(-1.65436e-18 2.15698e-18 0)
(-1.65436e-18 1.84516e-18 0)
(-1.65436e-18 5.89055e-19 0)
(0 5.07412e-19 0)
(-1.65436e-18 4.67435e-19 0)
(0 1.25214e-20 0)
(0 7.60152e-20 0)
(0 9.8571e-19 0)
(0 6.91737e-19 0)
(0 -7.17732e-19 0)
(0 -8.66346e-19 0)
(0 7.3522e-19 0)
(0 1.6174e-19 0)
(0 2.93422e-19 0)
(0 8.79701e-19 0)
(-0.02 -1.77281e-16 0)
(-2.49809e-16 2.48916e-16 0)
(7.7755e-17 -7.82896e-17 0)
(-1.32349e-17 1.17393e-17 0)
(3.30872e-18 -2.08596e-18 0)
(1.65436e-18 -1.08685e-18 0)
(0 -8.26781e-19 0)
(0 1.00071e-18 0)
(0 -1.42171e-19 0)
(0 -4.17271e-19 0)
(0 2.15357e-19 0)
(0 4.62597e-19 0)
(1.65436e-18 -1.33472e-18 0)
(1.65436e-18 -2.44924e-18 0)
(0 -5.45774e-19 0)
(0 3.39099e-19 0)
(-1.65436e-18 1.32116e-18 0)
(0 -6.03703e-19 0)
(1.65436e-18 -1.02856e-18 0)
(0 -1.14341e-18 0)
(-0.02 5.67712e-17 0)
(7.61006e-17 -7.6648e-17 0)
(-2.97785e-17 2.83636e-17 0)
(4.96308e-18 -4.00087e-18 0)
(1.65436e-18 -7.92673e-19 0)
(0 -9.37303e-19 0)
(1.65436e-18 -7.84799e-19 0)
(0 -8.95445e-19 0)
(0 5.4467e-19 0)
(0 -3.53638e-19 0)
(0 -9.43988e-19 0)
(1.65436e-18 -2.01209e-18 0)
(3.30872e-18 -2.17505e-18 0)
(0 1.46453e-19 0)
(-1.65436e-18 8.06186e-19 0)
(-3.30872e-18 3.46755e-18 0)
(1.65436e-18 -1.18063e-18 0)
(1.65436e-18 -7.49955e-19 0)
(-1.65436e-18 5.94369e-19 0)
(0 1.6389e-19 0)
(-0.02 9.5817e-17 0)
(1.1746e-16 -1.1942e-16 0)
(-3.30872e-17 3.33978e-17 0)
(6.61744e-18 -5.42276e-18 0)
(-1.65436e-18 1.21599e-18 0)
(1.65436e-18 -1.44605e-18 0)
(1.65436e-18 -2.03468e-18 0)
(1.65436e-18 -2.0853e-18 0)
(0 -5.55551e-19 0)
(0 1.08571e-18 0)
(0 2.95336e-19 0)
(-1.65436e-18 3.64369e-19 0)
(-1.65436e-18 2.53398e-18 0)
(-1.65436e-18 1.92994e-18 0)
(-1.65436e-18 7.374e-19 0)
(3.30872e-18 -3.54444e-18 0)
(0 -1.37791e-18 0)
(0 1.14666e-18 0)
(1.65436e-18 -1.13077e-18 0)
(0 -7.27332e-19 0)
(-0.02 -1.30302e-16 0)
(-1.75362e-16 1.75452e-16 0)
(5.45939e-17 -5.3886e-17 0)
(-8.27181e-18 8.27559e-18 0)
(1.65436e-18 -1.43612e-18 0)
(-1.65436e-18 8.81854e-19 0)
(0 3.74492e-19 0)
(0 6.38844e-19 0)
(0 -5.34026e-19 0)
(-1.65436e-18 2.18545e-20 0)
(0 3.72825e-19 0)
(0 1.21272e-18 0)
(-1.65436e-18 6.98526e-20 0)
(3.30872e-18 -9.72129e-19 0)
(1.65436e-18 -1.26957e-18 0)
(0 5.75265e-19 0)
(-1.65436e-18 8.60471e-19 0)
(0 1.00805e-18 0)
(-3.30872e-18 1.09186e-18 0)
(0 6.3236e-19 0)
(-0.02 7.10075e-17 0)
(1.14151e-16 -1.13949e-16 0)
(-3.80503e-17 3.71173e-17 0)
(4.96308e-18 -4.49241e-18 0)
(0 8.60347e-19 0)
(-1.65436e-18 4.45697e-19 0)
(-1.65436e-18 2.1231e-18 0)
(-1.65436e-18 1.89093e-18 0)
(-3.30872e-18 2.28497e-18 0)
(0 -6.71834e-20 0)
(0 -4.99762e-19 0)
(0 2.21809e-19 0)
(0 1.31362e-18 0)
(-1.65436e-18 1.32929e-18 0)
(-1.65436e-18 1.28601e-18 0)
(1.65436e-18 -1.32716e-18 0)
(1.65436e-18 -1.78364e-18 0)
(0 -6.24014e-20 0)
(-1.65436e-18 1.61172e-18 0)
(0 -8.0924e-20 0)
(-0.02 4.1947e-17 0)
(4.46678e-17 -4.465e-17 0)
(-8.27181e-18 7.13289e-18 0)
(6.61744e-18 -6.04756e-18 0)
(1.65436e-18 -2.29807e-19 0)
(0 -4.3979e-19 0)
(0 1.65965e-19 0)
(-1.65436e-18 7.60458e-19 0)
(0 -1.41011e-19 0)
(1.65436e-18 -2.75851e-19 0)
(-3.30872e-18 1.99625e-18 0)
(1.65436e-18 -1.81678e-20 0)
(0 -1.5088e-18 0)
(0 1.47243e-19 0)
(0 -6.10694e-19 0)
(0 6.1208e-19 0)
(-1.65436e-18 1.896e-18 0)
(1.65436e-18 -5.98312e-19 0)
(1.65436e-18 -7.90909e-19 0)
(-1.65436e-18 1.33809e-18 0)
(-0.02 -8.61207e-17 0)
(-1.37312e-16 1.37555e-16 0)
(4.46678e-17 -4.44841e-17 0)
(-8.27181e-18 7.19313e-18 0)
(3.30872e-18 -3.08749e-18 0)
(0 -1.42682e-19 0)
(0 -4.44119e-19 0)
(0 -8.27519e-19 0)
(1.65436e-18 -1.15182e-18 0)
(0 -4.92335e-20 0)
(3.30872e-18 -2.33813e-18 0)
(0 -3.21048e-20 0)
(0 3.94751e-19 0)
(1.65436e-18 -1.15636e-18 0)
(0 -2.55731e-19 0)
(0 -7.15694e-20 0)
(0 -4.09081e-19 0)
(0 -5.19665e-19 0)
(1.65436e-18 -1.45315e-18 0)
(1.65436e-18 -1.66604e-18 0)
(-0.02 4.19849e-17 0)
(8.10637e-17 -8.18126e-17 0)
(-3.47416e-17 3.52021e-17 0)
(3.30872e-18 -3.54242e-18 0)
(-1.65436e-18 1.99582e-18 0)
(0 2.52665e-19 0)
(0 1.46126e-19 0)
(0 -2.66462e-19 0)
(0 -9.49698e-19 0)
(0 -2.38828e-19 0)
(-1.65436e-18 2.00434e-18 0)
(0 -2.263e-19 0)
(0 6.93162e-19 0)
(-1.65436e-18 1.52315e-18 0)
(-1.65436e-18 1.69425e-18 0)
(0 1.24393e-18 0)
(1.65436e-18 -2.29673e-18 0)
(1.65436e-18 -1.76603e-18 0)
(-1.65436e-18 1.14331e-18 0)
(-1.65436e-18 1.16185e-18 0)
(-0.02 3.56709e-18 0)
(-8.27181e-18 7.9057e-18 0)
(8.27181e-18 -8.57006e-18 0)
(0 9.00449e-19 0)
(0 -1.68459e-19 0)
(0 -4.32588e-19 0)
(3.30872e-18 -1.95265e-18 0)
(0 -1.72891e-18 0)
(0 6.49021e-19 0)
(0 -1.5281e-19 0)
(1.65436e-18 -1.41599e-18 0)
(0 -2.31657e-19 0)
(0 -4.66099e-19 0)
(0 -5.11138e-20 0)
(0 2.37789e-20 0)
(0 1.4065e-18 0)
(-3.30872e-18 2.98335e-18 0)
(0 1.32943e-18 0)
(0 -1.59304e-18 0)
(1.65436e-18 -1.20171e-18 0)
(-0.02 2.88107e-18 0)
(4.96308e-18 -4.16725e-18 0)
(1.65436e-18 -1.97528e-18 0)
(0 3.84731e-20 0)
(-1.65436e-18 6.05793e-19 0)
(1.65436e-18 -1.00223e-18 0)
(0 -4.23288e-19 0)
(0 3.25701e-19 0)
(-1.65436e-18 9.99944e-19 0)
(-1.65436e-18 9.01511e-19 0)
(-1.65436e-18 1.6341e-18 0)
(-1.65436e-18 1.68056e-18 0)
(1.65436e-18 -6.54841e-19 0)
(1.65436e-18 -2.17976e-18 0)
(1.65436e-18 -9.23873e-19 0)
(1.65436e-18 -1.55826e-18 0)
(0 4.7572e-19 0)
(-1.65436e-18 5.64902e-19 0)
(-1.65436e-18 1.72367e-19 0)
(0 9.54339e-19 0)
(-0.02 1.64317e-17 0)
(2.81241e-17 -2.62228e-17 0)
(-1.8198e-17 1.69862e-17 0)
(3.30872e-18 -2.57522e-18 0)
(0 4.57036e-19 0)
(-1.65436e-18 1.23929e-18 0)
(-1.65436e-18 1.78753e-18 0)
(0 6.2402e-19 0)
(1.65436e-18 -1.92489e-18 0)
(0 -6.98545e-19 0)
(1.65436e-18 -1.6967e-18 0)
(0 -4.16838e-19 0)
(0 1.22231e-18 0)
(0 1.66577e-19 0)
(0 -2.03828e-18 0)
(1.65436e-18 -9.03377e-19 0)
(3.30872e-18 -2.51994e-18 0)
(0 -6.11197e-19 0)
(-1.65436e-18 1.83824e-18 0)
(0 4.86481e-19 0)
(-0.02 -6.99437e-17 0)
(-1.05879e-16 1.07694e-16 0)
(4.1359e-17 -4.20181e-17 0)
(-8.27181e-18 7.62954e-18 0)
(1.65436e-18 -8.47735e-19 0)
(0 2.36013e-19 0)
(0 3.75411e-19 0)
(0 6.83093e-20 0)
(1.65436e-18 -8.77418e-19 0)
(0 -6.64271e-19 0)
(-1.65436e-18 1.45364e-18 0)
(1.65436e-18 -1.72623e-18 0)
(3.30872e-18 -2.73868e-18 0)
(-1.65436e-18 5.16787e-19 0)
(-1.65436e-18 1.57073e-18 0)
(0 4.42022e-19 0)
(-1.65436e-18 4.73935e-19 0)
(0 -3.45809e-19 0)
(1.65436e-18 -1.77398e-18 0)
(1.65436e-18 -1.7909e-18 0)
(-0.02 7.47454e-17 0)
(1.20768e-16 -1.19472e-16 0)
(-4.46678e-17 4.47399e-17 0)
(4.96308e-18 -5.56172e-18 0)
(0 3.75009e-19 0)
(0 -5.8022e-19 0)
(1.65436e-18 -9.07383e-19 0)
(0 -5.91897e-19 0)
(-1.65436e-18 3.71832e-19 0)
(1.65436e-18 -1.06379e-18 0)
(1.65436e-18 -1.93779e-18 0)
(-1.65436e-18 5.21959e-19 0)
(-1.65436e-18 2.57988e-18 0)
(0 1.35584e-18 0)
(-3.30872e-18 2.00575e-18 0)
(0 -3.51075e-20 0)
(0 1.01334e-18 0)
(-1.65436e-18 1.38672e-18 0)
(0 1.43316e-18 0)
(-1.65436e-18 2.0716e-18 0)
(-0.02 7.06427e-18 0)
(3.30872e-18 -2.87013e-18 0)
(3.30872e-18 -3.55617e-18 0)
(0 -4.4899e-19 0)
(0 2.05559e-18 0)
(-1.65436e-18 9.29901e-19 0)
(0 3.8977e-19 0)
(0 -2.02513e-19 0)
(1.65436e-18 -8.24482e-19 0)
(-3.30872e-18 1.11717e-18 0)
(0 9.28941e-19 0)
(1.65436e-18 -3.184e-19 0)
(0 -9.66411e-19 0)
(0 -7.95115e-20 0)
(1.65436e-18 -8.3853e-19 0)
(-1.65436e-18 3.33025e-19 0)
(0 1.88297e-19 0)
(0 -3.38947e-19 0)
(1.65436e-18 -1.38708e-18 0)
(0 -2.01521e-18 0)
(-0.02 -1.23377e-16 0)
(-1.68745e-16 1.69282e-16 0)
(4.79765e-17 -4.64399e-17 0)
(-8.27181e-18 7.53764e-18 0)
(1.65436e-18 -2.77608e-18 0)
(0 6.50437e-19 0)
(0 -2.99842e-19 0)
(0 -3.54395e-19 0)
(-1.65436e-18 6.02605e-19 0)
(0 -3.90204e-19 0)
(1.65436e-18 -4.44087e-19 0)
(1.65436e-18 -6.77787e-20 0)
(0 -1.1856e-18 0)
(3.30872e-18 -2.2859e-18 0)
(1.65436e-18 -1.35402e-18 0)
(-1.65436e-18 1.26074e-18 0)
(0 -1.9441e-19 0)
(0 -3.60156e-19 0)
(0 4.13434e-19 0)
(0 3.50673e-19 0)
(-0.02 1.52401e-16 0)
(1.98523e-16 -1.99882e-16 0)
(-5.79026e-17 5.86527e-17 0)
(9.92617e-18 -9.19741e-18 0)
(-3.30872e-18 2.13587e-18 0)
(3.30872e-18 -2.06747e-18 0)
(1.65436e-18 -6.46055e-19 0)
(1.65436e-18 -8.95418e-19 0)
(0 -4.53596e-19 0)
(0 7.08503e-20 0)
(0 -6.67322e-19 0)
(0 -4.10263e-21 0)
(0 1.11951e-18 0)
(-1.65436e-18 1.49133e-18 0)
(-1.65436e-18 1.15513e-18 0)
(0 -7.70334e-19 0)
(1.65436e-18 -8.3122e-19 0)
(0 -1.65389e-19 0)
(0 2.15082e-19 0)
(0 2.2846e-19 0)
(-0.02 6.91624e-18 0)
(-4.96308e-18 5.05799e-18 0)
(4.96308e-18 -6.28034e-18 0)
(0 2.32824e-20 0)
(1.65436e-18 -1.09574e-18 0)
(0 -5.82844e-19 0)
(0 -1.41382e-18 0)
(1.65436e-18 -6.68263e-19 0)
(0 -2.55285e-19 0)
(1.65436e-18 -8.15009e-19 0)
(0 1.30584e-19 0)
(0 3.72447e-19 0)
(0 -4.89636e-20 0)
(-1.65436e-18 7.29856e-19 0)
(3.30872e-18 -2.22387e-18 0)
(1.65436e-18 -2.44465e-18 0)
(0 2.48261e-19 0)
(-1.65436e-18 1.10769e-18 0)
(0 9.15625e-20 0)
(0 6.75292e-19 0)
(-0.02 -1.63432e-16 0)
(-2.05141e-16 2.0421e-16 0)
(5.29396e-17 -5.30292e-17 0)
(-9.92617e-18 1.02076e-17 0)
(0 -1.0873e-18 0)
(0 1.34829e-18 0)
(-1.65436e-18 2.14594e-18 0)
(-3.30872e-18 1.48745e-18 0)
(0 5.8455e-19 0)
(-1.65436e-18 9.82143e-19 0)
(0 2.8061e-19 0)
(1.65436e-18 -7.44405e-19 0)
(1.65436e-18 -3.8956e-19 0)
(0 -1.47094e-18 0)
(-1.65436e-18 1.5038e-18 0)
(0 3.77511e-19 0)
(1.65436e-18 -4.79024e-19 0)
(0 -8.38134e-19 0)
(0 -1.06017e-19 0)
(1.65436e-18 -1.52694e-18 0)
(-0.02 8.88456e-17 0)
(1.27386e-16 -1.26794e-16 0)
(-3.47416e-17 3.35762e-17 0)
(4.96308e-18 -6.15602e-18 0)
(0 1.45677e-18 0)
(0 5.769e-19 0)
(0 3.79915e-19 0)
(-1.65436e-18 1.13064e-18 0)
(-1.65436e-18 1.26494e-18 0)
(-1.65436e-18 5.39959e-19 0)
(0 6.19258e-19 0)
(0 8.85593e-19 0)
(0 5.55942e-19 0)
(-1.65436e-18 6.16753e-19 0)
(0 -4.95374e-21 0)
(0 1.46352e-18 0)
(0 8.76838e-19 0)
(0 2.54503e-19 0)
(0 3.6499e-19 0)
(-1.65436e-18 1.20973e-18 0)
)
;

boundaryField
{
    movingWall
    {
        type            extrapolatedCalculated;
        value           nonuniform List<vector> 
20
(
(-0.02 8.88456e-17 0)
(1.27386e-16 -1.26794e-16 0)
(-3.47416e-17 3.35762e-17 0)
(4.96308e-18 -6.15602e-18 0)
(0 1.45677e-18 0)
(0 5.769e-19 0)
(0 3.79915e-19 0)
(-1.65436e-18 1.13064e-18 0)
(-1.65436e-18 1.26494e-18 0)
(-1.65436e-18 5.39959e-19 0)
(0 6.19258e-19 0)
(0 8.85593e-19 0)
(0 5.55942e-19 0)
(-1.65436e-18 6.16753e-19 0)
(0 -4.95374e-21 0)
(0 1.46352e-18 0)
(0 8.76838e-19 0)
(0 2.54503e-19 0)
(0 3.6499e-19 0)
(-1.65436e-18 1.20973e-18 0)
)
;
    }
    fixedWalls
    {
        type            extrapolatedCalculated;
        value           nonuniform List<vector> 
60
(
(-0.02 9.00773e-17 0)
(-0.02 -1.77281e-16 0)
(-0.02 5.67712e-17 0)
(-0.02 9.5817e-17 0)
(-0.02 -1.30302e-16 0)
(-0.02 7.10075e-17 0)
(-0.02 4.1947e-17 0)
(-0.02 -8.61207e-17 0)
(-0.02 4.19849e-17 0)
(-0.02 3.56709e-18 0)
(-0.02 2.88107e-18 0)
(-0.02 1.64317e-17 0)
(-0.02 -6.99437e-17 0)
(-0.02 7.47454e-17 0)
(-0.02 7.06427e-18 0)
(-0.02 -1.23377e-16 0)
(-0.02 1.52401e-16 0)
(-0.02 6.91624e-18 0)
(-0.02 -1.63432e-16 0)
(-0.02 8.88456e-17 0)
(0 8.79701e-19 0)
(0 -1.14341e-18 0)
(0 1.6389e-19 0)
(0 -7.27332e-19 0)
(0 6.3236e-19 0)
(0 -8.0924e-20 0)
(-1.65436e-18 1.33809e-18 0)
(1.65436e-18 -1.66604e-18 0)
(-1.65436e-18 1.16185e-18 0)
(1.65436e-18 -1.20171e-18 0)
(0 9.54339e-19 0)
(0 4.86481e-19 0)
(1.65436e-18 -1.7909e-18 0)
(-1.65436e-18 2.0716e-18 0)
(0 -2.01521e-18 0)
(0 3.50673e-19 0)
(0 2.2846e-19 0)
(0 6.75292e-19 0)
(1.65436e-18 -1.52694e-18 0)
(-1.65436e-18 1.20973e-18 0)
(-0.02 9.00773e-17 0)
(1.40621e-16 -1.40185e-16 0)
(-4.30134e-17 4.336e-17 0)
(4.96308e-18 -6.09963e-18 0)
(-1.65436e-18 2.44916e-18 0)
(-1.65436e-18 2.15698e-18 0)
(-1.65436e-18 1.84516e-18 0)
(-1.65436e-18 5.89055e-19 0)
(0 5.07412e-19 0)
(-1.65436e-18 4.67435e-19 0)
(0 1.25214e-20 0)
(0 7.60152e-20 0)
(0 9.8571e-19 0)
(0 6.91737e-19 0)
(0 -7.17732e-19 0)
(0 -8.66346e-19 0)
(0 7.3522e-19 0)
(0 1.6174e-19 0)
(0 2.93422e-19 0)
(0 8.79701e-19 0)
)
;
    }
    frontAndBack
    {
        type            empty;
    }
}


// ************************************************************************* //
