/*--------------------------------*- C++ -*----------------------------------*\
| =========                 |                                                 |
| \\      /  F ield         | OpenFOAM: The Open Source CFD Toolbox           |
|  \\    /   O peration     | Version:  2312                                  |
|   \\  /    A nd           | Website:  www.openfoam.com                      |
|    \\/     M anipulation  |                                                 |
\*---------------------------------------------------------------------------*/
FoamFile
{
    version     2.0;
    format      ascii;
    arch        "LSB;label=32;scalar=64";
    class       volTensorField;
    location    "6.75";
    object      gradU;
}
// * * * * * * * * * * * * * * * * * * * * * * * * * * * * * * * * * * * * * //

dimensions      [0 0 -1 0 0 0 0];

internalField   nonuniform List<tensor> 
400
(
(-7.86047e-13 1.31235e-11 0 1.40946e-12 1.68732e-11 0 0 0 0)
(1.40946e-12 -1.58598e-11 0 -3.25261e-13 -3.61919e-12 0 0 0 0)
(-4.33681e-13 3.41605e-12 0 8.13152e-14 8.70715e-13 0 0 0 0)
(-2.71051e-14 -7.98992e-13 0 2.71051e-14 -1.71338e-13 0 0 0 0)
(0 1.86292e-13 0 5.42101e-14 6.52626e-14 0 0 0 0)
(-8.13152e-14 -4.20124e-14 0 2.71051e-14 2.69013e-14 0 0 0 0)
(-2.71051e-14 -1.42274e-14 0 0 2.6878e-14 0 0 0 0)
(0 -1.48687e-14 0 5.42101e-14 9.66228e-15 0 0 0 0)
(0 4.94884e-16 0 0 6.68338e-15 0 0 0 0)
(-2.71051e-14 1.55042e-15 0 -5.42101e-14 7.16438e-15 0 0 0 0)
(0 8.55933e-15 0 -5.42101e-14 8.57895e-15 0 0 0 0)
(0 1.59912e-14 0 0 1.93541e-14 0 0 0 0)
(0 2.92488e-15 0 -5.42101e-14 2.21043e-14 0 0 0 0)
(-2.71051e-14 -1.97709e-14 0 2.71051e-14 -9.52938e-16 0 0 0 0)
(0 -1.76678e-14 0 0 -2.11813e-14 0 0 0 0)
(5.42101e-14 7.64871e-15 0 5.42101e-14 -1.64697e-14 0 0 0 0)
(-5.42101e-14 1.19153e-14 0 0 1.8757e-14 0 0 0 0)
(2.71051e-14 1.71363e-15 0 0 1.68767e-15 0 0 0 0)
(0 -7.84504e-16 0 0 3.12427e-15 0 0 0 0)
(-2.71051e-14 -8.43517e-15 0 0 6.64921e-15 0 0 0 0)
(1.87025e-12 1.30581e-13 0 5.42101e-13 -3.08368e-11 0 0 0 0)
(-2.73761e-12 -1.42672e-13 0 -3.79471e-13 6.63965e-12 0 0 0 0)
(8.13152e-13 3.18e-14 0 -1.35525e-13 -1.58155e-12 0 0 0 0)
(-5.42101e-14 -6.46064e-15 0 -1.35525e-13 3.32362e-13 0 0 0 0)
(0 1.19472e-14 0 -1.6263e-13 -8.02309e-14 0 0 0 0)
(5.42101e-14 3.62785e-15 0 -1.6263e-13 6.46948e-15 0 0 0 0)
(2.71051e-14 -3.01158e-15 0 -8.13152e-14 4.03062e-16 0 0 0 0)
(0 -5.3259e-15 0 -5.42101e-14 1.97143e-14 0 0 0 0)
(-2.71051e-14 -2.99278e-15 0 -8.13152e-14 7.35425e-15 0 0 0 0)
(0 3.45147e-16 0 -2.71051e-14 -3.69567e-15 0 0 0 0)
(0 3.63038e-15 0 -2.71051e-14 -5.98511e-15 0 0 0 0)
(0 -2.4658e-15 0 -5.42101e-14 -2.10643e-14 0 0 0 0)
(2.71051e-14 -2.32319e-14 0 5.42101e-14 -3.993e-14 0 0 0 0)
(5.42101e-14 -2.35148e-14 0 0 -2.96126e-14 0 0 0 0)
(0 2.15105e-15 0 2.71051e-14 1.28317e-15 0 0 0 0)
(0 3.22896e-14 0 -5.42101e-14 2.70033e-14 0 0 0 0)
(-5.42101e-14 6.24211e-15 0 0 1.38059e-14 0 0 0 0)
(5.42101e-14 -1.73464e-14 0 0 -1.34462e-14 0 0 0 0)
(0 5.74605e-15 0 2.71051e-14 -1.2407e-14 0 0 0 0)
(0 -1.33831e-15 0 0 -4.53165e-15 0 0 0 0)
(-5.42101e-13 -1.10737e-11 0 -4.79759e-12 1.2011e-11 0 0 0 0)
(7.04731e-13 1.33954e-11 0 1.38236e-12 -2.60436e-12 0 0 0 0)
(-2.43945e-13 -2.89124e-12 0 -1.35525e-13 6.02575e-13 0 0 0 0)
(-5.42101e-14 7.0233e-13 0 5.42101e-14 -1.3451e-13 0 0 0 0)
(5.42101e-14 -1.39601e-13 0 0 2.01714e-14 0 0 0 0)
(0 3.86215e-14 0 5.42101e-14 -2.75197e-14 0 0 0 0)
(2.71051e-14 -9.82653e-16 0 2.71051e-14 -2.31001e-14 0 0 0 0)
(5.42101e-14 -7.91752e-15 0 2.71051e-14 -1.72859e-14 0 0 0 0)
(-5.42101e-14 -2.2915e-14 0 1.0842e-13 -4.70594e-15 0 0 0 0)
(0 -1.17889e-14 0 8.13152e-14 -9.83342e-15 0 0 0 0)
(0 -8.80931e-15 0 8.13152e-14 -1.87366e-14 0 0 0 0)
(5.42101e-14 -1.79537e-14 0 5.42101e-14 -2.77214e-14 0 0 0 0)
(5.42101e-14 -5.62339e-15 0 2.71051e-14 -1.64243e-14 0 0 0 0)
(0 2.14423e-14 0 -2.71051e-14 1.02479e-14 0 0 0 0)
(-2.71051e-14 3.89481e-14 0 -8.13152e-14 1.81555e-14 0 0 0 0)
(-8.13152e-14 2.01715e-14 0 -5.42101e-14 1.75877e-14 0 0 0 0)
(5.42101e-14 -2.85342e-14 0 -5.42101e-14 -1.70685e-14 0 0 0 0)
(2.71051e-14 -2.44993e-14 0 0 -4.3883e-15 0 0 0 0)
(-2.71051e-14 8.13003e-15 0 -2.71051e-14 -4.77144e-15 0 0 0 0)
(0 8.50349e-15 0 0 -7.99866e-15 0 0 0 0)
(-1.6263e-12 9.53723e-12 0 3.17129e-12 1.17204e-11 0 0 0 0)
(2.00577e-12 -1.15511e-11 0 -8.40257e-13 -2.56749e-12 0 0 0 0)
(-5.42101e-13 2.50165e-12 0 1.89735e-13 6.23627e-13 0 0 0 0)
(5.42101e-14 -5.88865e-13 0 8.13152e-14 -1.33422e-13 0 0 0 0)
(0 1.18937e-13 0 1.35525e-13 1.58733e-14 0 0 0 0)
(2.71051e-14 -3.96437e-14 0 1.0842e-13 -3.45096e-14 0 0 0 0)
(8.13152e-14 7.22224e-15 0 8.13152e-14 -3.75064e-14 0 0 0 0)
(2.71051e-14 1.30682e-14 0 2.71051e-14 -3.17798e-14 0 0 0 0)
(0 4.4597e-15 0 2.71051e-14 -6.01048e-16 0 0 0 0)
(-2.71051e-14 -1.36855e-14 0 5.42101e-14 2.02163e-14 0 0 0 0)
(0 -1.42576e-14 0 2.71051e-14 6.69891e-15 0 0 0 0)
(0 -1.53533e-16 0 5.42101e-14 1.07711e-14 0 0 0 0)
(-8.13152e-14 1.47373e-14 0 -2.71051e-14 2.38868e-14 0 0 0 0)
(-2.71051e-14 1.10651e-14 0 -5.42101e-14 1.42731e-14 0 0 0 0)
(-5.42101e-14 9.49089e-15 0 0 -2.5567e-15 0 0 0 0)
(8.13152e-14 -2.93441e-15 0 5.42101e-14 -2.24752e-14 0 0 0 0)
(5.42101e-14 -1.57339e-14 0 8.13152e-14 -1.90538e-14 0 0 0 0)
(-5.42101e-14 -5.04932e-15 0 0 1.08825e-14 0 0 0 0)
(5.42101e-14 2.13569e-15 0 0 1.50214e-17 0 0 0 0)
(0 1.14318e-14 0 5.42101e-14 -3.30707e-15 0 0 0 0)
(1.76183e-12 -1.9208e-12 0 1.21973e-12 -2.07329e-11 0 0 0 0)
(-2.35814e-12 2.29865e-12 0 -8.13152e-14 4.51853e-12 0 0 0 0)
(6.77626e-13 -4.57167e-13 0 2.1684e-13 -1.04247e-12 0 0 0 0)
(-5.42101e-14 9.45761e-14 0 8.13152e-14 2.40051e-13 0 0 0 0)
(2.71051e-14 -4.06885e-14 0 1.6263e-13 -5.06804e-14 0 0 0 0)
(-2.71051e-14 -1.47581e-14 0 1.35525e-13 1.50841e-14 0 0 0 0)
(0 1.74722e-15 0 5.42101e-14 4.62259e-15 0 0 0 0)
(0 2.89878e-14 0 2.71051e-14 4.6697e-15 0 0 0 0)
(0 2.90811e-14 0 0 -8.23374e-16 0 0 0 0)
(0 -4.48898e-15 0 0 1.54032e-15 0 0 0 0)
(0 -1.82546e-14 0 2.71051e-14 4.14113e-15 0 0 0 0)
(-5.42101e-14 -7.65866e-16 0 0 1.85174e-14 0 0 0 0)
(0 -2.12139e-15 0 0 1.80153e-14 0 0 0 0)
(5.42101e-14 -5.00112e-15 0 8.13152e-14 1.03755e-15 0 0 0 0)
(0 2.1998e-15 0 1.0842e-13 -4.79868e-15 0 0 0 0)
(0 3.67435e-15 0 2.71051e-14 -1.49384e-14 0 0 0 0)
(0 4.82348e-15 0 0 1.60768e-16 0 0 0 0)
(0 -5.43047e-15 0 2.71051e-14 1.96548e-14 0 0 0 0)
(0 -6.05952e-15 0 5.42101e-14 1.23344e-14 0 0 0 0)
(-5.42101e-14 1.17955e-14 0 0 1.75003e-15 0 0 0 0)
(-4.87891e-13 -6.67718e-12 0 -3.33392e-12 1.47525e-11 0 0 0 0)
(1.02999e-12 8.13936e-12 0 7.58942e-13 -3.11336e-12 0 0 0 0)
(-3.25261e-13 -1.77683e-12 0 -1.6263e-13 7.10203e-13 0 0 0 0)
(-2.71051e-14 4.02926e-13 0 0 -1.60428e-13 0 0 0 0)
(0 -1.0603e-13 0 -5.42101e-14 4.12506e-14 0 0 0 0)
(-2.71051e-14 1.56593e-14 0 -5.42101e-14 1.47308e-14 0 0 0 0)
(-5.42101e-14 -3.19215e-15 0 -2.71051e-14 3.88007e-14 0 0 0 0)
(-2.71051e-14 7.62226e-15 0 0 3.60866e-14 0 0 0 0)
(-5.42101e-14 1.33031e-15 0 -5.42101e-14 2.28278e-14 0 0 0 0)
(0 -8.72101e-15 0 -2.71051e-14 -2.89401e-15 0 0 0 0)
(2.71051e-14 2.7195e-15 0 -2.71051e-14 9.16579e-15 0 0 0 0)
(-2.71051e-14 1.37206e-14 0 -5.42101e-14 1.24582e-14 0 0 0 0)
(-2.71051e-14 -2.74249e-15 0 0 1.35993e-14 0 0 0 0)
(2.71051e-14 -1.17489e-14 0 -2.71051e-14 1.66617e-14 0 0 0 0)
(-2.71051e-14 -6.48503e-15 0 -2.71051e-14 3.36709e-15 0 0 0 0)
(0 2.02504e-15 0 -8.13152e-14 -1.02505e-14 0 0 0 0)
(2.71051e-14 1.88592e-14 0 0 -1.84029e-15 0 0 0 0)
(0 7.12435e-15 0 -2.71051e-14 8.84478e-15 0 0 0 0)
(2.71051e-14 -1.57691e-14 0 0 1.9682e-14 0 0 0 0)
(-5.42101e-14 -2.65268e-15 0 0 7.29372e-15 0 0 0 0)
(-7.58942e-13 9.71831e-12 0 1.89735e-12 4.49702e-12 0 0 0 0)
(7.86047e-13 -1.17436e-11 0 -8.40257e-13 -1.09669e-12 0 0 0 0)
(-1.0842e-13 2.49576e-12 0 -2.43945e-13 1.87099e-13 0 0 0 0)
(8.13152e-14 -5.74376e-13 0 -2.1684e-13 -1.01206e-13 0 0 0 0)
(2.71051e-14 1.34471e-13 0 -1.89735e-13 -9.51998e-15 0 0 0 0)
(0 -1.7208e-14 0 -1.89735e-13 -8.28573e-15 0 0 0 0)
(0 2.31031e-14 0 -1.0842e-13 8.18984e-15 0 0 0 0)
(-2.71051e-14 1.30148e-14 0 -1.6263e-13 1.36105e-14 0 0 0 0)
(0 -9.89957e-15 0 -8.13152e-14 8.29347e-15 0 0 0 0)
(0 -1.81509e-14 0 -1.0842e-13 1.84132e-15 0 0 0 0)
(-5.42101e-14 -2.90237e-15 0 -1.0842e-13 6.0407e-15 0 0 0 0)
(5.42101e-14 3.66762e-15 0 -5.42101e-14 -5.89316e-15 0 0 0 0)
(0 2.08211e-15 0 -5.42101e-14 -1.12633e-14 0 0 0 0)
(0 -1.52333e-14 0 -8.13152e-14 8.9757e-16 0 0 0 0)
(0 -2.47124e-14 0 -8.13152e-14 7.29725e-16 0 0 0 0)
(2.71051e-14 -1.53303e-15 0 5.42101e-14 -8.05086e-16 0 0 0 0)
(-2.71051e-14 2.39187e-14 0 -8.13152e-14 2.80373e-15 0 0 0 0)
(0 1.60918e-14 0 -8.13152e-14 -1.39548e-14 0 0 0 0)
(5.42101e-14 -7.61058e-15 0 -5.42101e-14 -5.23614e-15 0 0 0 0)
(-5.42101e-14 -1.51802e-14 0 -2.71051e-14 5.29763e-15 0 0 0 0)
(5.42101e-13 -3.27685e-12 0 6.23416e-13 -1.84807e-11 0 0 0 0)
(-1.0842e-12 3.82944e-12 0 2.1684e-13 3.95856e-12 0 0 0 0)
(3.25261e-13 -7.81339e-13 0 1.89735e-13 -9.37321e-13 0 0 0 0)
(-5.42101e-14 2.06307e-13 0 5.42101e-14 1.82406e-13 0 0 0 0)
(8.13152e-14 -1.31097e-14 0 2.71051e-14 -6.92308e-14 0 0 0 0)
(0 3.33692e-14 0 2.71051e-14 -6.57702e-16 0 0 0 0)
(0 1.87041e-14 0 0 -5.74482e-15 0 0 0 0)
(0 7.72589e-15 0 2.71051e-14 -8.65688e-15 0 0 0 0)
(0 -1.04389e-14 0 2.71051e-14 -2.14884e-14 0 0 0 0)
(0 -1.09738e-14 0 8.13152e-14 -6.80665e-15 0 0 0 0)
(1.0842e-13 -5.01498e-15 0 2.71051e-14 -6.95884e-15 0 0 0 0)
(0 -3.58339e-15 0 5.42101e-14 -8.99761e-15 0 0 0 0)
(-5.42101e-14 4.04824e-15 0 5.42101e-14 -1.16091e-14 0 0 0 0)
(5.42101e-14 2.44137e-16 0 2.71051e-14 -1.1223e-14 0 0 0 0)
(0 -8.18768e-15 0 0 1.91037e-15 0 0 0 0)
(0 4.09904e-15 0 0 9.88418e-15 0 0 0 0)
(0 5.70955e-15 0 0 -9.20221e-15 0 0 0 0)
(2.71051e-14 -9.15517e-16 0 2.71051e-14 -2.37185e-14 0 0 0 0)
(5.42101e-14 3.48333e-15 0 2.71051e-14 -1.66135e-14 0 0 0 0)
(0 -2.71418e-15 0 0 -2.08913e-15 0 0 0 0)
(8.13152e-14 -4.80378e-12 0 -1.13841e-12 1.39427e-11 0 0 0 0)
(3.52366e-13 5.79972e-12 0 3.25261e-13 -2.97952e-12 0 0 0 0)
(-2.43945e-13 -1.2804e-12 0 8.13152e-14 7.35527e-13 0 0 0 0)
(-8.13152e-14 2.93714e-13 0 1.35525e-13 -1.30864e-13 0 0 0 0)
(0 -4.85931e-14 0 1.0842e-13 4.92897e-14 0 0 0 0)
(-2.71051e-14 4.62779e-14 0 1.0842e-13 3.1644e-18 0 0 0 0)
(0 1.51039e-14 0 8.13152e-14 -8.36973e-15 0 0 0 0)
(0 -2.72877e-15 0 1.0842e-13 -1.86381e-14 0 0 0 0)
(2.71051e-14 -8.04934e-15 0 1.0842e-13 -1.17592e-14 0 0 0 0)
(0 -3.62138e-15 0 5.42101e-14 -1.93058e-15 0 0 0 0)
(-5.42101e-14 -5.09333e-15 0 1.0842e-13 2.32276e-15 0 0 0 0)
(2.71051e-14 -9.82608e-16 0 5.42101e-14 4.00732e-15 0 0 0 0)
(-2.71051e-14 -1.43269e-16 0 5.42101e-14 1.58143e-14 0 0 0 0)
(-2.71051e-14 -1.71387e-15 0 1.0842e-13 1.61875e-14 0 0 0 0)
(-2.71051e-14 -3.60522e-15 0 1.0842e-13 1.93275e-14 0 0 0 0)
(0 -1.26456e-14 0 2.71051e-14 1.91522e-14 0 0 0 0)
(0 -9.68399e-15 0 8.13152e-14 -1.16522e-14 0 0 0 0)
(5.42101e-14 8.68052e-15 0 5.42101e-14 -1.39859e-14 0 0 0 0)
(0 1.40188e-14 0 0 -5.81641e-15 0 0 0 0)
(-5.42101e-14 3.52246e-15 0 0 -1.94524e-15 0 0 0 0)
(-2.71051e-13 7.68633e-12 0 5.42101e-14 -3.73521e-12 0 0 0 0)
(1.35525e-13 -9.37774e-12 0 -2.43945e-13 8.31863e-13 0 0 0 0)
(5.42101e-14 2.06732e-12 0 -1.35525e-13 -1.8025e-13 0 0 0 0)
(2.71051e-14 -4.7993e-13 0 -5.42101e-14 5.71565e-14 0 0 0 0)
(0 1.17758e-13 0 -5.42101e-14 -1.92746e-15 0 0 0 0)
(0 -2.42903e-14 0 -5.42101e-14 -1.09214e-14 0 0 0 0)
(0 6.27626e-17 0 -2.71051e-14 -3.08011e-14 0 0 0 0)
(5.42101e-14 4.33644e-15 0 -5.42101e-14 -2.13188e-14 0 0 0 0)
(0 6.2687e-15 0 -2.71051e-14 -4.18171e-16 0 0 0 0)
(0 3.10817e-15 0 0 -5.86914e-15 0 0 0 0)
(5.42101e-14 9.22922e-16 0 -5.42101e-14 -1.78182e-15 0 0 0 0)
(0 9.90814e-15 0 -2.71051e-14 3.39965e-15 0 0 0 0)
(0 1.62285e-14 0 -5.42101e-14 -1.50518e-16 0 0 0 0)
(0 3.75732e-15 0 0 1.6271e-15 0 0 0 0)
(0 -5.22306e-15 0 -2.71051e-14 8.88133e-15 0 0 0 0)
(0 -2.68806e-14 0 2.71051e-14 1.8637e-14 0 0 0 0)
(-5.42101e-14 -2.74285e-14 0 2.71051e-14 2.61284e-14 0 0 0 0)
(0 4.92028e-15 0 0 7.40509e-15 0 0 0 0)
(0 1.5524e-14 0 -2.71051e-14 -8.98057e-15 0 0 0 0)
(0 5.04747e-15 0 0 -2.19569e-15 0 0 0 0)
(-1.35525e-13 -7.70712e-12 0 5.42101e-13 -8.37958e-13 0 0 0 0)
(1.89735e-13 9.35468e-12 0 0 1.92812e-13 0 0 0 0)
(-2.71051e-14 -2.0551e-12 0 1.0842e-13 -5.80461e-14 0 0 0 0)
(2.71051e-14 4.72037e-13 0 -5.42101e-14 1.612e-15 0 0 0 0)
(-2.71051e-14 -1.16671e-13 0 0 -6.23363e-15 0 0 0 0)
(2.71051e-14 1.74042e-14 0 0 -9.91193e-15 0 0 0 0)
(0 4.70642e-15 0 0 1.9427e-16 0 0 0 0)
(-2.71051e-14 2.76542e-14 0 -8.13152e-14 1.0425e-14 0 0 0 0)
(2.71051e-14 7.40034e-15 0 -8.13152e-14 1.58401e-14 0 0 0 0)
(-5.42101e-14 -4.98502e-15 0 -1.0842e-13 1.41574e-14 0 0 0 0)
(0 4.17546e-15 0 -5.42101e-14 1.22723e-14 0 0 0 0)
(-5.42101e-14 6.48692e-16 0 -8.13152e-14 1.85836e-14 0 0 0 0)
(0 -1.91582e-15 0 -5.42101e-14 -9.41452e-15 0 0 0 0)
(5.42101e-14 7.31797e-15 0 -1.0842e-13 -3.27498e-14 0 0 0 0)
(2.71051e-14 1.34047e-14 0 -8.13152e-14 -2.93284e-14 0 0 0 0)
(2.71051e-14 4.60143e-15 0 -5.42101e-14 -1.55989e-14 0 0 0 0)
(0 -2.09159e-14 0 0 1.49045e-14 0 0 0 0)
(-5.42101e-14 -2.64284e-14 0 2.71051e-14 1.85809e-14 0 0 0 0)
(2.71051e-14 4.41805e-15 0 2.71051e-14 8.25368e-15 0 0 0 0)
(-2.71051e-14 1.46987e-14 0 0 2.74416e-15 0 0 0 0)
(3.52366e-13 7.04118e-12 0 6.23416e-13 7.54403e-12 0 0 0 0)
(-4.06576e-13 -8.59783e-12 0 -2.98156e-13 -1.69964e-12 0 0 0 0)
(5.42101e-14 1.87612e-12 0 -1.0842e-13 3.81418e-13 0 0 0 0)
(-8.13152e-14 -4.28118e-13 0 0 -8.87504e-14 0 0 0 0)
(0 1.06234e-13 0 -5.42101e-14 3.49386e-14 0 0 0 0)
(0 -1.78624e-14 0 -8.13152e-14 1.2044e-14 0 0 0 0)
(-5.42101e-14 2.03997e-14 0 -8.13152e-14 1.99442e-14 0 0 0 0)
(-5.42101e-14 1.99823e-14 0 -5.42101e-14 -1.55943e-16 0 0 0 0)
(5.42101e-14 1.00011e-14 0 -2.71051e-14 -2.0977e-14 0 0 0 0)
(5.42101e-14 -4.59665e-16 0 -2.71051e-14 -7.3628e-15 0 0 0 0)
(2.71051e-14 5.3491e-15 0 0 -3.0701e-15 0 0 0 0)
(0 -1.17787e-14 0 -2.71051e-14 -3.39487e-15 0 0 0 0)
(-2.71051e-14 -3.5105e-14 0 5.42101e-14 -5.71611e-15 0 0 0 0)
(0 -1.61566e-14 0 0 -1.04473e-14 0 0 0 0)
(2.71051e-14 1.19279e-14 0 0 -2.12738e-14 0 0 0 0)
(5.42101e-14 1.73523e-14 0 -5.42101e-14 -2.50529e-14 0 0 0 0)
(2.71051e-14 6.75125e-15 0 -5.42101e-14 -3.20797e-14 0 0 0 0)
(2.71051e-14 -1.73056e-15 0 -2.71051e-14 -6.09706e-15 0 0 0 0)
(-5.42101e-14 -3.12746e-16 0 0 1.05504e-14 0 0 0 0)
(0 -5.95036e-15 0 -2.71051e-14 1.66833e-15 0 0 0 0)
(1.89735e-13 -1.86274e-12 0 -1.02999e-12 -1.75149e-11 0 0 0 0)
(-4.87891e-13 2.19207e-12 0 3.79471e-13 3.8777e-12 0 0 0 0)
(2.1684e-13 -4.44212e-13 0 1.0842e-13 -8.84768e-13 0 0 0 0)
(2.71051e-14 1.25557e-13 0 1.0842e-13 2.20723e-13 0 0 0 0)
(0 -1.58765e-14 0 8.13152e-14 -4.70114e-14 0 0 0 0)
(0 2.40989e-15 0 1.35525e-13 1.40849e-14 0 0 0 0)
(0 -7.49356e-15 0 1.35525e-13 5.85838e-15 0 0 0 0)
(-2.71051e-14 -1.3267e-14 0 1.6263e-13 -3.21158e-15 0 0 0 0)
(8.13152e-14 1.9349e-16 0 1.35525e-13 -2.7433e-14 0 0 0 0)
(0 1.29219e-14 0 1.35525e-13 -2.22832e-14 0 0 0 0)
(-8.13152e-14 8.14338e-15 0 1.0842e-13 -1.50267e-14 0 0 0 0)
(2.71051e-14 -1.99732e-15 0 1.35525e-13 -2.77433e-14 0 0 0 0)
(8.13152e-14 -8.9682e-15 0 5.42101e-14 -8.03543e-15 0 0 0 0)
(0 -8.2397e-15 0 1.6263e-13 2.074e-14 0 0 0 0)
(-8.13152e-14 -1.20096e-15 0 1.0842e-13 2.39096e-14 0 0 0 0)
(0 -6.20445e-15 0 8.13152e-14 5.51815e-15 0 0 0 0)
(0 -1.96006e-15 0 2.71051e-14 -6.53418e-15 0 0 0 0)
(0 1.62016e-14 0 0 -1.06103e-14 0 0 0 0)
(5.42101e-14 1.21834e-14 0 0 -8.25094e-15 0 0 0 0)
(0 2.48001e-15 0 2.71051e-14 -1.72061e-15 0 0 0 0)
(-2.98156e-13 -6.59597e-12 0 -1.02999e-12 1.79807e-11 0 0 0 0)
(7.86047e-13 8.03226e-12 0 3.52366e-13 -3.89941e-12 0 0 0 0)
(-2.98156e-13 -1.78086e-12 0 2.71051e-14 9.3112e-13 0 0 0 0)
(-8.13152e-14 4.09639e-13 0 0 -1.90515e-13 0 0 0 0)
(2.71051e-14 -1.00405e-13 0 2.71051e-14 3.78265e-14 0 0 0 0)
(0 3.50074e-14 0 0 -1.55734e-14 0 0 0 0)
(2.71051e-14 3.10328e-15 0 0 -1.67708e-15 0 0 0 0)
(-2.71051e-14 -1.33091e-14 0 2.71051e-14 4.05482e-15 0 0 0 0)
(0 -9.07056e-15 0 0 6.00884e-15 0 0 0 0)
(2.71051e-14 1.19466e-14 0 -2.71051e-14 2.29655e-15 0 0 0 0)
(2.71051e-14 -1.1093e-16 0 0 3.78177e-15 0 0 0 0)
(0 -4.78738e-15 0 0 1.11499e-15 0 0 0 0)
(-5.42101e-14 1.33783e-14 0 0 1.50898e-14 0 0 0 0)
(0 1.57884e-14 0 -5.42101e-14 2.6088e-14 0 0 0 0)
(-5.42101e-14 -3.29396e-15 0 0 2.61954e-14 0 0 0 0)
(0 -1.30915e-14 0 0 8.09102e-15 0 0 0 0)
(0 -9.37722e-15 0 0 2.51165e-14 0 0 0 0)
(-2.71051e-14 -3.44733e-15 0 0 1.85708e-14 0 0 0 0)
(0 8.57697e-15 0 -2.71051e-14 2.26551e-15 0 0 0 0)
(-5.42101e-14 4.02119e-15 0 0 -6.28146e-16 0 0 0 0)
(-5.42101e-13 1.22186e-11 0 2.90024e-12 -2.10836e-12 0 0 0 0)
(5.96311e-13 -1.48575e-11 0 -9.75782e-13 4.35099e-13 0 0 0 0)
(-1.0842e-13 3.26469e-12 0 -1.6263e-13 -9.41641e-14 0 0 0 0)
(5.42101e-14 -7.67736e-13 0 -1.0842e-13 2.41379e-14 0 0 0 0)
(-5.42101e-14 1.59065e-13 0 -1.35525e-13 1.94263e-14 0 0 0 0)
(0 -3.70937e-14 0 -1.0842e-13 1.80246e-14 0 0 0 0)
(0 1.21346e-14 0 -1.35525e-13 -4.52445e-15 0 0 0 0)
(0 -5.58111e-15 0 -1.35525e-13 -1.34336e-14 0 0 0 0)
(0 -1.56478e-15 0 -1.0842e-13 -7.42343e-15 0 0 0 0)
(-2.71051e-14 1.06948e-14 0 -1.0842e-13 -5.05747e-15 0 0 0 0)
(0 6.96183e-15 0 -1.35525e-13 -5.98255e-15 0 0 0 0)
(0 9.3107e-15 0 -1.35525e-13 1.32002e-15 0 0 0 0)
(2.71051e-14 1.60048e-14 0 -1.0842e-13 -5.18852e-15 0 0 0 0)
(0 2.86588e-15 0 -1.0842e-13 -1.40597e-14 0 0 0 0)
(0 -1.9198e-14 0 -5.42101e-14 -1.01998e-14 0 0 0 0)
(0 -7.28335e-15 0 -2.71051e-14 7.15964e-15 0 0 0 0)
(0 8.51967e-15 0 -2.71051e-14 6.05301e-15 0 0 0 0)
(0 -6.64934e-15 0 0 3.67268e-15 0 0 0 0)
(5.42101e-14 -7.01546e-15 0 0 -4.63232e-15 0 0 0 0)
(0 8.4265e-16 0 -2.71051e-14 -8.69398e-15 0 0 0 0)
(1.65341e-12 -8.26924e-12 0 -2.08709e-12 -1.82897e-11 0 0 0 0)
(-2.33103e-12 1.00465e-11 0 5.96311e-13 4.01699e-12 0 0 0 0)
(6.23416e-13 -2.19182e-12 0 0 -9.2057e-13 0 0 0 0)
(-8.13152e-14 5.23229e-13 0 0 1.96482e-13 0 0 0 0)
(5.42101e-14 -1.06518e-13 0 -5.42101e-14 -4.08537e-14 0 0 0 0)
(0 1.10567e-14 0 0 1.75509e-14 0 0 0 0)
(0 -2.83549e-14 0 2.71051e-14 -3.81838e-16 0 0 0 0)
(0 -1.62081e-14 0 2.71051e-14 -6.25829e-15 0 0 0 0)
(0 -6.944e-16 0 5.42101e-14 2.32847e-16 0 0 0 0)
(0 1.33875e-14 0 8.13152e-14 3.23197e-15 0 0 0 0)
(0 6.26656e-15 0 8.13152e-14 -7.19959e-15 0 0 0 0)
(0 -3.99335e-15 0 8.13152e-14 -8.57667e-15 0 0 0 0)
(2.71051e-14 -2.00142e-15 0 5.42101e-14 -2.27028e-14 0 0 0 0)
(5.42101e-14 1.07772e-14 0 5.42101e-14 -2.53117e-14 0 0 0 0)
(2.71051e-14 1.79254e-14 0 0 -7.83488e-15 0 0 0 0)
(-2.71051e-14 3.16131e-15 0 -5.42101e-14 1.36367e-14 0 0 0 0)
(0 -1.28642e-14 0 2.71051e-14 -1.06232e-14 0 0 0 0)
(0 -1.41327e-14 0 0 -1.10165e-14 0 0 0 0)
(2.71051e-14 -3.78969e-15 0 0 -3.92108e-15 0 0 0 0)
(-2.71051e-14 1.73475e-14 0 0 -4.2343e-15 0 0 0 0)
(-2.03288e-12 -2.05417e-12 0 -2.57498e-12 2.28337e-11 0 0 0 0)
(2.6563e-12 2.51163e-12 0 5.96311e-13 -4.94007e-12 0 0 0 0)
(-7.04731e-13 -5.55822e-13 0 -1.0842e-13 1.16438e-12 0 0 0 0)
(2.71051e-14 1.1198e-13 0 0 -2.5756e-13 0 0 0 0)
(-2.71051e-14 -1.98662e-14 0 0 3.06456e-14 0 0 0 0)
(8.13152e-14 3.37818e-15 0 0 -4.62033e-14 0 0 0 0)
(0 -1.16745e-14 0 0 -1.80325e-14 0 0 0 0)
(2.71051e-14 -4.96642e-15 0 0 -1.31824e-14 0 0 0 0)
(2.71051e-14 7.92548e-15 0 0 -1.18959e-15 0 0 0 0)
(0 3.26236e-15 0 2.71051e-14 -3.79621e-16 0 0 0 0)
(0 -4.84681e-15 0 2.71051e-14 -3.43995e-15 0 0 0 0)
(0 -6.19253e-15 0 2.71051e-14 5.22454e-15 0 0 0 0)
(-2.71051e-14 -7.30202e-16 0 -5.42101e-14 1.47395e-14 0 0 0 0)
(-2.71051e-14 1.77338e-14 0 0 1.95519e-14 0 0 0 0)
(-5.42101e-14 1.97504e-14 0 -8.13152e-14 -3.88461e-15 0 0 0 0)
(5.42101e-14 -1.00717e-14 0 5.42101e-14 -1.68805e-14 0 0 0 0)
(0 -1.61335e-14 0 0 -1.00754e-14 0 0 0 0)
(0 5.27712e-17 0 0 5.19735e-15 0 0 0 0)
(0 -2.33232e-16 0 0 9.90492e-15 0 0 0 0)
(0 8.99803e-15 0 0 6.43339e-15 0 0 0 0)
(-3.52366e-13 9.62439e-12 0 5.8818e-12 -1.88452e-12 0 0 0 0)
(2.1684e-13 -1.16229e-11 0 -1.40946e-12 3.68795e-13 0 0 0 0)
(-5.42101e-14 2.49069e-12 0 2.43945e-13 -1.07968e-13 0 0 0 0)
(5.42101e-14 -6.10501e-13 0 0 2.5014e-14 0 0 0 0)
(5.42101e-14 1.04838e-13 0 8.13152e-14 -1.05141e-14 0 0 0 0)
(0 -3.76215e-14 0 0 -1.32985e-14 0 0 0 0)
(0 4.666e-15 0 0 -1.6276e-14 0 0 0 0)
(0 6.34869e-16 0 0 -1.4796e-14 0 0 0 0)
(0 1.21084e-14 0 -8.13152e-14 -1.06901e-14 0 0 0 0)
(2.71051e-14 1.11372e-14 0 -8.13152e-14 -1.07494e-14 0 0 0 0)
(0 1.18707e-14 0 -1.0842e-13 -2.94264e-15 0 0 0 0)
(-2.71051e-14 1.41861e-14 0 -8.13152e-14 4.19562e-15 0 0 0 0)
(2.71051e-14 1.23259e-14 0 -2.71051e-14 9.68055e-15 0 0 0 0)
(-2.71051e-14 -7.84696e-15 0 0 5.70523e-15 0 0 0 0)
(2.71051e-14 -1.8507e-14 0 2.71051e-14 -1.84156e-14 0 0 0 0)
(1.0842e-13 -3.02945e-15 0 -5.42101e-14 -2.89429e-14 0 0 0 0)
(-2.71051e-14 9.21364e-15 0 -2.71051e-14 4.00049e-16 0 0 0 0)
(-2.71051e-14 5.84764e-15 0 -5.42101e-14 5.56194e-15 0 0 0 0)
(0 -2.55365e-15 0 0 -3.50586e-16 0 0 0 0)
(0 1.00918e-15 0 0 3.8691e-16 0 0 0 0)
(2.46656e-12 -3.56989e-12 0 -1.02999e-12 -2.13706e-11 0 0 0 0)
(-3.00866e-12 4.28817e-12 0 4.87891e-13 4.57975e-12 0 0 0 0)
(7.31836e-13 -8.99603e-13 0 1.6263e-13 -1.08261e-12 0 0 0 0)
(-1.35525e-13 2.09434e-13 0 1.89735e-13 2.37725e-13 0 0 0 0)
(0 -5.81787e-14 0 1.89735e-13 -3.09561e-14 0 0 0 0)
(0 -2.38373e-15 0 1.6263e-13 3.96839e-14 0 0 0 0)
(-5.42101e-14 -1.31721e-14 0 1.35525e-13 2.22138e-14 0 0 0 0)
(-5.42101e-14 6.19478e-16 0 1.35525e-13 2.46857e-14 0 0 0 0)
(0 1.19721e-14 0 1.35525e-13 2.38517e-14 0 0 0 0)
(-2.71051e-14 1.10099e-14 0 8.13152e-14 1.60623e-14 0 0 0 0)
(0 1.00982e-14 0 8.13152e-14 2.85393e-15 0 0 0 0)
(2.71051e-14 6.43066e-15 0 8.13152e-14 -9.30117e-15 0 0 0 0)
(0 7.79405e-16 0 8.13152e-14 -1.40566e-14 0 0 0 0)
(5.42101e-14 -1.03624e-14 0 5.42101e-14 -1.66396e-14 0 0 0 0)
(-8.13152e-14 -1.48978e-14 0 8.13152e-14 4.73525e-16 0 0 0 0)
(2.71051e-14 8.74402e-15 0 5.42101e-14 -5.14655e-15 0 0 0 0)
(0 1.83714e-14 0 0 -2.51118e-15 0 0 0 0)
(5.42101e-14 -6.97864e-16 0 5.42101e-14 -5.50535e-15 0 0 0 0)
(0 -5.40826e-15 0 0 -4.64731e-15 0 0 0 0)
(0 8.96171e-15 0 2.71051e-14 -4.32187e-15 0 0 0 0)
(-8.94467e-13 -7.16645e-12 0 -1.84314e-12 1.36364e-11 0 0 0 0)
(1.38236e-12 8.66512e-12 0 2.71051e-13 -2.90001e-12 0 0 0 0)
(-3.25261e-13 -1.85133e-12 0 -2.1684e-13 6.8306e-13 0 0 0 0)
(2.71051e-14 4.41152e-13 0 -1.35525e-13 -1.49077e-13 0 0 0 0)
(0 -9.32026e-14 0 -1.35525e-13 3.24739e-14 0 0 0 0)
(-2.71051e-14 1.55484e-14 0 -1.0842e-13 2.30414e-15 0 0 0 0)
(-2.71051e-14 -1.03323e-14 0 -8.13152e-14 1.93091e-14 0 0 0 0)
(0 2.27272e-15 0 -8.13152e-14 2.58085e-14 0 0 0 0)
(-5.42101e-14 3.48504e-15 0 -5.42101e-14 1.64169e-14 0 0 0 0)
(0 -9.86061e-15 0 -2.71051e-14 1.03513e-14 0 0 0 0)
(0 -1.34928e-14 0 0 1.52677e-14 0 0 0 0)
(0 -2.72438e-15 0 -2.71051e-14 1.37459e-14 0 0 0 0)
(0 4.98752e-15 0 0 1.15614e-14 0 0 0 0)
(0 6.68315e-15 0 -5.42101e-14 7.979e-15 0 0 0 0)
(-2.71051e-14 -7.01397e-15 0 -2.71051e-14 1.52406e-14 0 0 0 0)
(-2.71051e-14 -6.01415e-15 0 0 2.98907e-14 0 0 0 0)
(-2.71051e-14 8.85484e-15 0 0 1.25107e-14 0 0 0 0)
(0 3.7115e-15 0 0 2.66453e-15 0 0 0 0)
(2.71051e-14 -1.37017e-15 0 0 9.49711e-15 0 0 0 0)
(-2.71051e-14 9.97837e-15 0 -2.71051e-14 9.44297e-15 0 0 0 0)
)
;

boundaryField
{
    movingWall
    {
        type            extrapolatedCalculated;
        value           nonuniform List<tensor> 
20
(
(-8.94467e-13 -7.16645e-12 0 5.24025e-12 3.6483e-11 0 0 0 0)
(1.38236e-12 8.66512e-12 0 -1.68754e-12 -7.8172e-12 0 0 0 0)
(-3.25261e-13 -1.85133e-12 0 -2.66454e-13 1.82252e-12 0 0 0 0)
(2.71051e-14 4.41152e-13 0 -3.9968e-13 -4.11873e-13 0 0 0 0)
(0 -9.32026e-14 0 -3.55271e-13 5.79159e-14 0 0 0 0)
(-2.71051e-14 1.55484e-14 0 -3.55271e-13 -3.90629e-14 0 0 0 0)
(-2.71051e-14 -1.03323e-14 0 -2.66454e-13 -4.27792e-15 0 0 0 0)
(0 2.27272e-15 0 -3.10862e-13 2.26618e-15 0 0 0 0)
(-5.42101e-14 3.48504e-15 0 -2.22045e-13 -1.33688e-14 0 0 0 0)
(0 -9.86061e-15 0 -1.77636e-13 -1.1674e-14 0 0 0 0)
(0 -1.34928e-14 0 -2.22045e-13 2.60736e-14 0 0 0 0)
(0 -2.72438e-15 0 -1.77636e-13 4.22972e-14 0 0 0 0)
(0 4.98752e-15 0 -1.33227e-13 3.69711e-14 0 0 0 0)
(0 6.68315e-15 0 -1.77636e-13 2.23471e-14 0 0 0 0)
(-2.71051e-14 -7.01397e-15 0 -1.33227e-13 1.02385e-14 0 0 0 0)
(-2.71051e-14 -6.01415e-15 0 -1.33227e-13 5.0403e-14 0 0 0 0)
(-2.71051e-14 8.85484e-15 0 0 3.42951e-14 0 0 0 0)
(0 3.7115e-15 0 0 1.49836e-14 0 0 0 0)
(2.71051e-14 -1.37017e-15 0 0 1.94491e-14 0 0 0 0)
(-2.71051e-14 9.97837e-15 0 -4.44089e-14 2.04643e-14 0 0 0 0)
)
;
    }
    fixedWalls
    {
        type            extrapolatedCalculated;
        value           nonuniform List<tensor> 
60
(
(-5.15143e-12 6.68548e-11 0 1.40946e-12 1.68732e-11 0 0 0 0)
(1.0747e-11 6.3809e-13 0 5.42101e-13 -3.08368e-11 0 0 0 0)
(-2.93099e-12 -5.64925e-11 0 -4.79759e-12 1.2011e-11 0 0 0 0)
(-8.43769e-12 4.86821e-11 0 3.17129e-12 1.17204e-11 0 0 0 0)
(9.76996e-12 -9.61084e-12 0 1.21973e-12 -2.07329e-11 0 0 0 0)
(-3.64153e-12 -3.42496e-11 0 -3.33392e-12 1.47525e-11 0 0 0 0)
(-3.37508e-12 4.9399e-11 0 1.89735e-12 4.49702e-12 0 0 0 0)
(3.77476e-12 -1.62616e-11 0 6.23416e-13 -1.84807e-11 0 0 0 0)
(-8.88178e-13 -2.45236e-11 0 -1.13841e-12 1.39427e-11 0 0 0 0)
(-6.21725e-13 3.95093e-11 0 5.42101e-14 -3.73521e-12 0 0 0 0)
(-7.99361e-13 -3.94644e-11 0 5.42101e-13 -8.37958e-13 0 0 0 0)
(1.64313e-12 3.61574e-11 0 6.23416e-13 7.54403e-12 0 0 0 0)
(1.64313e-12 -9.2883e-12 0 -1.02999e-12 -1.75149e-11 0 0 0 0)
(-2.57572e-12 -3.3902e-11 0 -1.02999e-12 1.79807e-11 0 0 0 0)
(-2.4869e-12 6.26346e-11 0 2.90024e-12 -2.10836e-12 0 0 0 0)
(9.19265e-12 -4.23354e-11 0 -2.08709e-12 -1.82897e-11 0 0 0 0)
(-1.09246e-11 -1.05244e-11 0 -2.57498e-12 2.28337e-11 0 0 0 0)
(-1.15463e-12 4.89993e-11 0 5.8818e-12 -1.88452e-12 0 0 0 0)
(1.26121e-11 -1.80624e-11 0 -1.02999e-12 -2.13706e-11 0 0 0 0)
(-5.24025e-12 -3.6483e-11 0 -1.84314e-12 1.36364e-11 0 0 0 0)
(-4.44089e-14 -1.32406e-14 0 0 6.64921e-15 0 0 0 0)
(0 -1.33563e-14 0 0 -4.53165e-15 0 0 0 0)
(0 4.88605e-15 0 0 -7.99866e-15 0 0 0 0)
(-4.44089e-14 1.86383e-14 0 5.42101e-14 -3.30707e-15 0 0 0 0)
(-1.33227e-13 1.81143e-14 0 0 1.75003e-15 0 0 0 0)
(-1.33227e-13 1.16382e-14 0 0 7.29372e-15 0 0 0 0)
(-8.88178e-14 -1.10606e-14 0 -2.71051e-14 5.29763e-15 0 0 0 0)
(0 -9.55229e-15 0 0 -2.08913e-15 0 0 0 0)
(-8.88178e-14 -2.70405e-15 0 0 -1.94524e-15 0 0 0 0)
(0 -1.77134e-15 0 0 -2.19569e-15 0 0 0 0)
(-8.88178e-14 6.07872e-15 0 0 2.74416e-15 0 0 0 0)
(0 -1.2748e-14 0 -2.71051e-14 1.66833e-15 0 0 0 0)
(0 -5.94609e-16 0 2.71051e-14 -1.72061e-15 0 0 0 0)
(-8.88178e-14 -5.86555e-15 0 0 -6.28146e-16 0 0 0 0)
(0 1.91798e-15 0 -2.71051e-14 -8.69398e-15 0 0 0 0)
(-4.44089e-14 2.89104e-14 0 0 -4.2343e-15 0 0 0 0)
(0 1.88552e-14 0 0 6.43339e-15 0 0 0 0)
(0 3.17683e-15 0 0 3.8691e-16 0 0 0 0)
(0 1.73075e-14 0 2.71051e-14 -4.32187e-15 0 0 0 0)
(-4.44089e-14 2.04643e-14 0 -2.71051e-14 9.44297e-15 0 0 0 0)
(-7.86047e-13 1.31235e-11 0 -5.15143e-12 6.68548e-11 0 0 0 0)
(1.40946e-12 -1.58598e-11 0 2.04281e-12 -1.4361e-11 0 0 0 0)
(-4.33681e-13 3.41605e-12 0 3.9968e-13 3.41546e-12 0 0 0 0)
(-2.71051e-14 -7.98992e-13 0 3.10862e-13 -6.96786e-13 0 0 0 0)
(0 1.86292e-13 0 3.10862e-13 2.19492e-13 0 0 0 0)
(-8.13152e-14 -4.20124e-14 0 3.10862e-13 4.83821e-14 0 0 0 0)
(-2.71051e-14 -1.42274e-14 0 8.88178e-14 5.14426e-14 0 0 0 0)
(0 -1.48687e-14 0 1.77636e-13 -8.52764e-15 0 0 0 0)
(0 4.94884e-16 0 8.88178e-14 -8.03228e-15 0 0 0 0)
(-2.71051e-14 1.55042e-15 0 4.44089e-14 -6.5481e-15 0 0 0 0)
(0 8.55933e-15 0 4.44089e-14 -1.83059e-15 0 0 0 0)
(0 1.59912e-14 0 8.88178e-14 2.76892e-14 0 0 0 0)
(0 2.92488e-15 0 0 6.21342e-14 0 0 0 0)
(-2.71051e-14 -1.97709e-14 0 4.44089e-14 3.93888e-14 0 0 0 0)
(0 -1.76678e-14 0 -8.88178e-14 -1.69492e-14 0 0 0 0)
(5.42101e-14 7.64871e-15 0 1.33227e-13 -3.12825e-14 0 0 0 0)
(-5.42101e-14 1.19153e-14 0 0 1.36456e-14 0 0 0 0)
(2.71051e-14 1.71363e-15 0 4.44089e-14 1.63786e-14 0 0 0 0)
(0 -7.84504e-16 0 0 2.05001e-14 0 0 0 0)
(-2.71051e-14 -8.43517e-15 0 4.44089e-14 1.32406e-14 0 0 0 0)
)
;
    }
    frontAndBack
    {
        type            empty;
    }
}


// ************************************************************************* //
