/*--------------------------------*- C++ -*----------------------------------*\
| =========                 |                                                 |
| \\      /  F ield         | OpenFOAM: The Open Source CFD Toolbox           |
|  \\    /   O peration     | Version:  2312                                  |
|   \\  /    A nd           | Website:  www.openfoam.com                      |
|    \\/     M anipulation  |                                                 |
\*---------------------------------------------------------------------------*/
FoamFile
{
    version     2.0;
    format      ascii;
    arch        "LSB;label=32;scalar=64";
    class       volVectorField;
    location    "6.75";
    object      LambVectorField;
}
// * * * * * * * * * * * * * * * * * * * * * * * * * * * * * * * * * * * * * //

dimensions      [0 1 -2 0 0 0 0];

internalField   nonuniform List<vector> 
400
(
(-1.95784e-24 -1.1714e-11 -1.1714e-11)
(-5.57729e-25 1.55346e-11 -0)
(-2.84741e-26 -3.33473e-12 -3.33473e-12)
(-1.43903e-27 8.26097e-13 -0)
(-7.24774e-29 -1.32082e-13 -1.32082e-13)
(8.36012e-30 6.91175e-14 0)
(1.82974e-30 1.42274e-14 1.42274e-14)
(-1.4727e-30 6.90788e-14 -0)
(9.93763e-33 -4.94884e-16 -4.94884e-16)
(9.12815e-31 -5.57605e-14 -0)
(2.87262e-31 -6.27694e-14 -6.27694e-14)
(-1.10696e-30 -1.59912e-14 0)
(-8.87509e-30 -5.7135e-14 -5.7135e-14)
(4.61596e-30 4.68759e-14 0)
(-7.48641e-31 1.76678e-14 1.76678e-14)
(-3.64139e-30 4.65614e-14 -0)
(-4.06478e-31 -1.19153e-14 -1.19153e-14)
(-7.0167e-32 -1.71363e-15 0)
(4.02061e-32 7.84504e-16 7.84504e-16)
(2.79216e-31 8.43517e-15 0)
(6.56467e-28 4.1152e-13 4.1152e-13)
(6.85329e-29 -2.36798e-13 -0)
(-2.81946e-29 -1.67325e-13 -1.67325e-13)
(-3.68937e-30 -1.29065e-13 0)
(-1.81377e-29 -1.74578e-13 -1.74578e-13)
(-2.46158e-29 -1.66258e-13 0)
(-1.09761e-29 -7.83036e-14 -7.83036e-14)
(-5.7655e-30 -4.88842e-14 0)
(-6.80735e-30 -7.83224e-14 -7.83224e-14)
(-2.416e-30 -2.74502e-14 0)
(-2.77744e-30 -3.07354e-14 -3.07354e-14)
(-6.43274e-30 -5.17443e-14 0)
(5.08856e-30 7.7442e-14 7.7442e-14)
(-2.53963e-30 2.35148e-14 -0)
(-4.22821e-30 2.4954e-14 2.4954e-14)
(7.48143e-30 -8.64997e-14 -0)
(-9.57891e-31 -6.24211e-15 -6.24211e-15)
(-4.17524e-31 1.73464e-14 -0)
(-4.27343e-31 2.1359e-14 2.1359e-14)
(4.4687e-32 1.33831e-15 0)
(-8.86387e-25 6.27614e-12 6.27614e-12)
(-3.66328e-25 -1.20131e-11 0)
(-2.0053e-26 2.75571e-12 2.75571e-12)
(-1.0251e-27 -6.4812e-13 0)
(-3.53998e-29 1.39601e-13 1.39601e-13)
(2.89402e-30 1.55886e-14 0)
(3.72547e-30 2.80877e-14 2.80877e-14)
(6.15779e-30 3.50226e-14 0)
(7.02142e-30 1.31335e-13 1.31335e-13)
(-4.96496e-30 9.31041e-14 -0)
(-5.8065e-30 9.01245e-14 9.01245e-14)
(-1.02054e-29 7.21638e-14 -0)
(-7.98458e-30 3.27284e-14 3.27284e-14)
(9.59558e-30 -4.85474e-14 -0)
(3.55274e-30 -1.20263e-13 -1.20263e-13)
(-1.42684e-29 -7.43816e-14 0)
(-4.42071e-30 -2.56759e-14 -2.56759e-14)
(-2.29106e-30 2.44993e-14 -0)
(2.56581e-30 -3.52351e-14 -3.52351e-14)
(1.03871e-31 -8.50349e-15 -0)
(-7.74768e-25 -6.36594e-12 -6.36594e-12)
(-2.82049e-25 1.07108e-11 -0)
(-1.43206e-26 -2.31191e-12 -2.31191e-12)
(-8.82301e-28 6.7018e-13 -0)
(5.06941e-30 1.65879e-14 1.65879e-14)
(-1.88248e-29 1.48064e-13 -0)
(-6.72965e-30 7.40929e-14 7.40929e-14)
(-7.70863e-31 1.40368e-14 -0)
(9.02534e-31 2.26454e-14 2.26454e-14)
(-7.00695e-31 6.78956e-14 -0)
(-4.01218e-30 4.13626e-14 4.13626e-14)
(-8.31198e-30 5.43636e-14 -0)
(4.12296e-30 -4.18424e-14 -4.18424e-14)
(3.60478e-31 -6.52752e-14 -0)
(-1.14985e-31 -9.49089e-15 -9.49089e-15)
(5.10795e-30 5.71445e-14 0)
(-1.67203e-30 9.70491e-14 9.70491e-14)
(-3.43115e-31 5.04932e-15 -0)
(1.44633e-31 -2.13569e-15 -2.13569e-15)
(-1.99329e-30 4.27783e-14 -0)
(-7.54578e-26 3.14053e-12 3.14053e-12)
(-1.14693e-26 -2.37996e-12 0)
(-7.01377e-28 6.74007e-13 6.74007e-13)
(-3.28127e-30 -1.32609e-14 0)
(-1.92839e-29 2.03319e-13 2.03319e-13)
(-2.39621e-29 1.50283e-13 -0)
(-1.27184e-29 5.24629e-14 5.24629e-14)
(2.67298e-31 -1.88272e-15 -0)
(-1.37993e-30 -2.90811e-14 -2.90811e-14)
(6.68124e-31 4.48898e-15 0)
(1.1619e-31 4.53596e-14 4.53596e-14)
(-2.58169e-32 7.65866e-16 -0)
(-1.0813e-32 2.12139e-15 2.12139e-15)
(-4.74078e-30 8.63163e-14 -0)
(-5.85363e-30 1.0622e-13 1.0622e-13)
(-7.71463e-31 2.34307e-14 -0)
(8.85825e-32 -4.82348e-15 -4.82348e-15)
(4.98101e-31 3.25355e-14 0)
(-4.37977e-30 6.02696e-14 6.02696e-14)
(5.3417e-31 -1.17955e-14 -0)
(-2.86264e-25 3.34326e-12 3.34326e-12)
(-1.39138e-25 -7.38042e-12 0)
(-6.82879e-27 1.6142e-12 1.6142e-12)
(-4.36771e-28 -4.02926e-13 0)
(-1.04258e-29 5.18195e-14 5.18195e-14)
(-1.656e-30 -6.98695e-14 0)
(1.06655e-30 -2.39129e-14 -2.39129e-14)
(6.2656e-32 -7.62226e-15 -0)
(-1.75627e-30 -5.55404e-14 -5.55404e-14)
(-9.34457e-32 -1.8384e-14 0)
(1.65791e-30 -2.98246e-14 -2.98246e-14)
(-2.19266e-30 -6.79307e-14 0)
(2.23834e-31 2.74249e-15 2.74249e-15)
(-7.45244e-32 -1.53562e-14 0)
(7.3967e-31 -2.062e-14 -2.062e-14)
(5.00018e-30 -8.33402e-14 -0)
(2.94602e-31 -1.88592e-14 -1.88592e-14)
(-4.40174e-30 -3.42294e-14 0)
(8.77115e-31 1.57691e-14 1.57691e-14)
(-7.71814e-32 2.65268e-15 -0)
(-9.65868e-25 -7.82095e-12 -7.82095e-12)
(-2.86916e-25 1.09034e-11 -0)
(-1.66065e-26 -2.73971e-12 -2.73971e-12)
(-4.8512e-28 3.57536e-13 -0)
(-1.02987e-28 -3.24206e-13 -3.24206e-13)
(2.09424e-30 -1.72527e-13 -0)
(-1.91472e-29 -1.31523e-13 -1.31523e-13)
(-3.84473e-29 -1.75645e-13 0)
(-1.96913e-29 -7.14156e-14 -7.14156e-14)
(-1.0823e-29 -9.02693e-14 0)
(-9.94183e-30 -1.05518e-13 -1.05518e-13)
(-5.2595e-30 -5.78777e-14 0)
(-7.36841e-30 -5.62922e-14 -5.62922e-14)
(-7.38093e-30 -6.60819e-14 0)
(1.21342e-30 -5.66028e-14 -5.66028e-14)
(-7.5493e-30 5.57431e-14 -0)
(3.86922e-30 -1.05234e-13 -1.05234e-13)
(-1.01067e-29 -9.7407e-14 0)
(-5.78536e-30 -4.65995e-14 -4.65995e-14)
(-3.29739e-31 -1.19249e-14 0)
(-1.58561e-25 3.90027e-12 3.90027e-12)
(-2.84866e-26 -3.6126e-12 0)
(-2.29122e-27 9.71075e-13 9.71075e-13)
(-1.09421e-29 -1.52097e-13 0)
(-1.19194e-29 4.02148e-14 4.02148e-14)
(3.70559e-31 -6.26411e-15 -0)
(-6.97608e-31 -1.87041e-14 -1.87041e-14)
(2.4783e-30 1.93792e-14 0)
(4.30088e-30 3.75439e-14 3.75439e-14)
(2.16844e-30 9.22889e-14 0)
(1.54764e-31 3.212e-14 3.212e-14)
(-1.54041e-30 5.77935e-14 -0)
(-1.5558e-30 5.01619e-14 5.01619e-14)
(3.71453e-31 2.68609e-14 0)
(-2.33957e-31 8.18768e-15 8.18768e-15)
(2.78932e-31 -4.09904e-15 -0)
(-7.0891e-32 -5.70955e-15 -5.70955e-15)
(-3.06897e-31 2.80206e-14 -0)
(7.70312e-32 2.36217e-14 2.36217e-14)
(6.48165e-32 2.71418e-15 0)
(-2.2472e-25 3.66537e-12 3.66537e-12)
(-7.26527e-26 -5.47446e-12 0)
(-4.5097e-27 1.36171e-12 1.36171e-12)
(-7.39082e-29 -1.58189e-13 0)
(-5.88246e-29 1.57013e-13 1.57013e-13)
(-1.16303e-30 6.21423e-14 -0)
(5.83536e-30 6.62113e-14 6.62113e-14)
(1.47076e-29 1.11149e-13 0)
(7.08656e-30 1.1647e-13 1.1647e-13)
(2.9974e-30 5.78315e-14 0)
(2.79595e-30 1.13514e-13 1.13514e-13)
(4.94828e-32 5.51927e-14 0)
(8.04697e-31 5.43534e-14 5.43534e-14)
(-5.9048e-32 1.10134e-13 -0)
(-2.61445e-31 1.12025e-13 1.12025e-13)
(-1.45441e-30 3.97507e-14 -0)
(-1.17198e-29 9.09992e-14 9.09992e-14)
(-6.07493e-30 4.55296e-14 -0)
(5.88577e-31 -1.40188e-14 -1.40188e-14)
(-2.38123e-32 -3.52246e-15 0)
(-7.53849e-25 -7.63212e-12 -7.63212e-12)
(-2.00121e-25 9.13379e-12 -0)
(-1.1005e-26 -2.20285e-12 -2.20285e-12)
(-5.26488e-28 4.2572e-13 -0)
(-3.37921e-29 -1.71968e-13 -1.71968e-13)
(1.76899e-30 -2.99199e-14 -0)
(1.26059e-30 -2.71678e-14 -2.71678e-14)
(3.42478e-30 -5.85466e-14 -0)
(1.01315e-31 -3.33738e-14 -3.33738e-14)
(-1.30243e-32 -3.10817e-15 0)
(-1.54626e-30 -5.5133e-14 -5.5133e-14)
(-4.967e-31 -3.70132e-14 0)
(-8.95467e-30 -7.04386e-14 -7.04386e-14)
(-6.60176e-31 -3.75732e-15 0)
(-3.60398e-30 -2.1882e-14 -2.1882e-14)
(6.6658e-30 5.39857e-14 0)
(-5.67726e-30 5.45336e-14 5.45336e-14)
(7.42035e-31 -4.92028e-15 -0)
(2.34047e-30 -4.26291e-14 -4.26291e-14)
(-2.23519e-32 -5.04747e-15 0)
(-8.13878e-25 8.24923e-12 8.24923e-12)
(-2.01966e-25 -9.35468e-12 0)
(-1.10649e-26 2.16352e-12 2.16352e-12)
(-5.46655e-28 -5.26247e-13 0)
(-4.59592e-29 1.16671e-13 1.16671e-13)
(2.22651e-30 -1.74042e-14 -0)
(1.03484e-30 -4.70642e-15 -4.70642e-15)
(8.81181e-30 -1.08969e-13 -0)
(-5.02689e-30 -8.87155e-14 -8.87155e-14)
(7.0973e-31 -1.03435e-13 -0)
(-3.9777e-31 -5.83856e-14 -5.83856e-14)
(-2.85997e-30 -8.19639e-14 0)
(-6.95501e-31 -5.22943e-14 -5.22943e-14)
(-1.82112e-30 -1.15738e-13 0)
(-8.19133e-30 -9.47199e-14 -9.47199e-14)
(-8.80891e-30 -5.88115e-14 0)
(2.77123e-30 2.09159e-14 2.09159e-14)
(-3.17867e-30 5.35335e-14 -0)
(-2.98993e-30 2.2687e-14 2.2687e-14)
(2.23374e-31 -1.46987e-14 -0)
(-5.80125e-25 -6.41777e-12 -6.41777e-12)
(-1.65842e-25 8.29967e-12 -0)
(-8.76242e-27 -1.98454e-12 -1.98454e-12)
(-5.22552e-28 4.28118e-13 -0)
(-2.15261e-29 -1.60444e-13 -1.60444e-13)
(1.0041e-29 -6.34528e-14 -0)
(4.52199e-30 -1.01715e-13 -1.01715e-13)
(-3.39458e-30 -7.41924e-14 0)
(-5.76502e-30 -3.71062e-14 -3.71062e-14)
(-3.88396e-30 -2.66454e-14 0)
(-8.06478e-31 -5.3491e-15 -5.3491e-15)
(-3.05387e-30 -1.53264e-14 0)
(2.9458e-30 8.93151e-14 8.93151e-14)
(-2.45247e-30 1.61566e-14 -0)
(1.53373e-30 -1.19279e-14 -1.19279e-14)
(2.32686e-30 -7.15624e-14 -0)
(-2.73956e-30 -6.09614e-14 -6.09614e-14)
(-8.88041e-31 -2.53745e-14 0)
(8.64233e-33 3.12746e-16 3.12746e-16)
(-6.74199e-31 -2.11547e-14 0)
(-1.9337e-26 8.32744e-13 8.32744e-13)
(-8.32596e-27 -1.81259e-12 0)
(-7.1848e-28 5.52632e-13 5.52632e-13)
(-2.59239e-30 -1.71368e-14 0)
(-4.32847e-30 9.71917e-14 9.71917e-14)
(-9.96881e-31 1.33115e-13 -0)
(-2.9228e-30 1.43019e-13 1.43019e-13)
(-1.44982e-29 1.75897e-13 -0)
(-2.07202e-29 1.35332e-13 1.35332e-13)
(-9.86829e-30 1.22603e-13 -0)
(-2.39543e-30 1.00277e-13 1.00277e-13)
(1.29862e-31 1.37523e-13 0)
(-2.77109e-30 6.31783e-14 6.31783e-14)
(-1.51626e-29 1.7087e-13 -0)
(-1.38406e-29 1.09621e-13 1.09621e-13)
(-8.81737e-30 8.75196e-14 -0)
(-5.47304e-30 2.90651e-14 2.90651e-14)
(1.94983e-30 -1.62016e-14 -0)
(3.20262e-31 -1.21834e-14 -1.21834e-14)
(3.66057e-32 2.4625e-14 0)
(-4.71745e-25 5.56598e-12 5.56598e-12)
(-1.44345e-25 -7.6799e-12 0)
(-8.0135e-27 1.80796e-12 1.80796e-12)
(-4.04172e-28 -4.09639e-13 0)
(-4.28367e-29 1.2751e-13 1.2751e-13)
(6.0895e-31 -3.50074e-14 -0)
(-4.38379e-32 -3.10328e-15 -3.10328e-15)
(5.51166e-31 4.04142e-14 0)
(-1.07908e-30 9.07056e-15 9.07056e-15)
(3.00962e-30 -3.90517e-14 -0)
(5.5645e-35 1.1093e-16 1.1093e-16)
(-3.74263e-31 4.78738e-15 -0)
(6.33759e-31 -1.33783e-14 -1.33783e-14)
(-3.89234e-30 -6.99985e-14 0)
(3.64023e-31 3.29396e-15 3.29396e-15)
(2.96736e-31 1.30915e-14 0)
(-1.91319e-31 9.37722e-15 9.37722e-15)
(-2.45125e-31 3.44733e-15 -0)
(1.95808e-30 -3.5682e-14 -3.5682e-14)
(-5.89662e-32 -4.02119e-15 0)
(-1.45913e-24 -9.31834e-12 -9.31834e-12)
(-4.77543e-25 1.38818e-11 -0)
(-2.74566e-26 -3.42732e-12 -3.42732e-12)
(-1.15636e-27 6.59316e-13 -0)
(-9.83134e-29 -2.9459e-13 -2.9459e-13)
(1.16421e-29 -7.13266e-14 -0)
(5.49403e-30 -1.4766e-13 -1.4766e-13)
(5.44158e-30 -1.29944e-13 -0)
(9.93952e-30 -1.06855e-13 -1.06855e-13)
(6.85198e-30 -1.19115e-13 -0)
(-1.98478e-30 -1.42487e-13 -1.42487e-13)
(-1.75168e-30 -1.44836e-13 0)
(-1.3318e-29 -1.24425e-13 -1.24425e-13)
(-1.91571e-29 -1.11286e-13 0)
(-4.75099e-30 -3.50122e-14 -3.50122e-14)
(3.93206e-31 -1.98217e-14 -0)
(-2.23944e-30 -3.56247e-14 -3.56247e-14)
(4.34599e-31 6.64934e-15 0)
(-2.54771e-32 7.01546e-15 7.01546e-15)
(1.34008e-31 -2.79477e-14 -0)
(-6.5431e-25 6.18215e-12 6.18215e-12)
(-2.18735e-25 -9.45015e-12 0)
(-1.17788e-26 2.19182e-12 2.19182e-12)
(-6.42543e-28 -5.23229e-13 0)
(-7.41128e-30 5.23081e-14 5.23081e-14)
(-1.80059e-30 -1.10567e-14 0)
(-1.72582e-30 5.546e-14 5.546e-14)
(-5.22782e-30 4.33131e-14 -0)
(-1.06075e-29 5.49045e-14 5.49045e-14)
(-8.67044e-30 6.79277e-14 -0)
(-4.45218e-30 7.50486e-14 7.50486e-14)
(-5.54307e-30 8.53085e-14 -0)
(-5.57941e-30 5.62115e-14 5.62115e-14)
(-3.69141e-30 4.34329e-14 -0)
(-1.52627e-31 -1.79254e-14 -1.79254e-14)
(-5.40799e-30 -5.73714e-14 0)
(1.60387e-30 3.99692e-14 3.99692e-14)
(-4.85868e-31 1.41327e-14 -0)
(-3.83513e-31 3.78969e-15 3.78969e-15)
(1.25381e-30 -1.73475e-14 -0)
(1.37029e-26 -5.20809e-13 -5.20809e-13)
(-1.10498e-26 -1.91532e-12 0)
(-5.34472e-28 4.47402e-13 4.47402e-13)
(-2.36221e-29 -1.1198e-13 0)
(-1.48614e-30 1.98662e-14 1.98662e-14)
(-4.15051e-32 -3.37818e-15 0)
(-4.78956e-31 1.16745e-14 1.16745e-14)
(-5.18788e-31 4.96642e-15 -0)
(7.18761e-31 -7.92548e-15 -7.92548e-15)
(-6.0094e-31 2.38427e-14 -0)
(-1.85533e-30 3.19519e-14 3.19519e-14)
(-2.45311e-30 3.32976e-14 -0)
(6.41714e-30 -5.34799e-14 -5.34799e-14)
(1.43599e-30 -1.77338e-14 -0)
(-5.79577e-30 -1.01066e-13 -1.01066e-13)
(7.49074e-30 6.42818e-14 0)
(-6.99713e-31 1.61335e-14 1.61335e-14)
(2.36445e-33 -5.27712e-17 -0)
(-9.99222e-33 2.33232e-16 2.33232e-16)
(4.24149e-31 -8.99803e-15 -0)
(-4.58461e-25 -3.74259e-12 -3.74259e-12)
(-2.68148e-25 1.02134e-11 -0)
(-1.40866e-26 -2.24675e-12 -2.24675e-12)
(-8.22691e-28 6.10501e-13 -0)
(-3.87596e-30 -2.35233e-14 -2.35233e-14)
(-1.12557e-29 3.76215e-14 -0)
(9.86596e-31 -4.666e-15 -4.666e-15)
(1.60318e-31 -6.34869e-16 -0)
(1.91607e-29 -9.34235e-14 -9.34235e-14)
(1.21518e-29 -9.24523e-14 -0)
(1.12741e-29 -1.20291e-13 -1.20291e-13)
(1.21586e-30 -9.55013e-14 -0)
(-1.89813e-30 -3.9431e-14 -3.9431e-14)
(8.67308e-31 7.84696e-15 0)
(-1.38349e-30 4.56121e-14 4.56121e-14)
(3.81511e-30 -5.11807e-14 -0)
(2.20186e-30 -3.63187e-14 -3.63187e-14)
(-1.05668e-30 -6.00577e-14 0)
(-5.48969e-33 2.55365e-15 2.55365e-15)
(8.015e-33 -1.00918e-15 -0)
(-1.14692e-25 2.5399e-12 2.5399e-12)
(-3.59397e-26 -3.80028e-12 0)
(-2.41583e-27 1.06223e-12 1.06223e-12)
(-9.083e-30 -1.96991e-14 0)
(-4.46119e-29 2.47914e-13 2.47914e-13)
(-1.9917e-29 1.65014e-13 -0)
(-3.03025e-29 1.48697e-13 1.48697e-13)
(-3.40528e-29 1.34906e-13 -0)
(-2.4413e-29 1.23553e-13 1.23553e-13)
(-9.32937e-30 7.03053e-14 -0)
(-6.23097e-30 7.1217e-14 7.1217e-14)
(-2.37506e-30 7.48845e-14 -0)
(-1.86731e-30 8.05358e-14 8.05358e-14)
(-1.54472e-30 6.45725e-14 -0)
(-1.22007e-29 9.62129e-14 9.62129e-14)
(-7.86107e-30 4.54661e-14 -0)
(7.23273e-31 -1.83714e-14 -1.83714e-14)
(5.93763e-31 5.4908e-14 0)
(-2.50664e-31 5.40826e-15 5.40826e-15)
(-7.85042e-31 1.81433e-14 -0)
(-4.85526e-25 5.32331e-12 5.32331e-12)
(-1.64045e-25 -8.39407e-12 0)
(-7.44725e-27 1.63449e-12 1.63449e-12)
(-5.93795e-28 -5.76677e-13 0)
(6.12789e-30 -4.23227e-14 -4.23227e-14)
(-1.21064e-29 -1.23969e-13 0)
(-7.59147e-31 -7.09829e-14 -7.09829e-14)
(4.73563e-31 -8.35879e-14 -0)
(-1.92829e-30 -5.76952e-14 -5.76952e-14)
(-5.03279e-31 -1.72444e-14 0)
(-8.79515e-31 1.34928e-14 1.34928e-14)
(2.57809e-30 -2.43807e-14 -0)
(4.60986e-31 -4.98752e-15 -4.98752e-15)
(3.40197e-30 -6.08933e-14 -0)
(5.14258e-31 -2.00911e-14 -2.00911e-14)
(-7.57828e-31 6.01415e-15 -0)
(7.59195e-31 -8.85484e-15 -8.85484e-15)
(1.39029e-31 -3.7115e-15 -0)
(-6.66217e-32 1.37017e-15 1.37017e-15)
(1.89722e-30 -3.70834e-14 -0)
)
;

boundaryField
{
    movingWall
    {
        type            calculated;
        value           nonuniform List<vector> 
20
(
(0 1.24067e-11 -0)
(0 -1.03527e-11 -0)
(0 1.58488e-12 -0)
(0 -8.40832e-13 -0)
(0 -2.62069e-13 -0)
(0 -3.7082e-13 -0)
(0 -2.56121e-13 -0)
(0 -3.13135e-13 -0)
(0 -2.2553e-13 -0)
(0 -1.67775e-13 -0)
(0 -2.08552e-13 -0)
(0 -1.74911e-13 -0)
(0 -1.38214e-13 -0)
(0 -1.84319e-13 -0)
(0 -1.26213e-13 -0)
(0 -1.27213e-13 -0)
(0 -8.85484e-15 -0)
(0 -3.7115e-15 -0)
(0 1.37017e-15 -0)
(0 -5.43873e-14 -0)
)
;
    }
    fixedWalls
    {
        type            calculated;
        value           nonuniform List<vector> 
60
(
(0 -6.54453e-11 -0)
(0 -9.59894e-14 -0)
(0 5.16949e-11 -0)
(0 -4.55108e-11 -0)
(0 1.08306e-11 -0)
(0 3.09157e-11 -0)
(0 -4.75017e-11 -0)
(0 1.6885e-11 -0)
(0 2.33852e-11 -0)
(0 -3.94551e-11 -0)
(0 4.00065e-11 -0)
(0 -3.5534e-11 -0)
(0 8.25831e-12 -0)
(0 3.2872e-11 -0)
(0 -5.97344e-11 -0)
(0 4.02484e-11 -0)
(0 7.94937e-12 -0)
(0 -4.31176e-11 -0)
(0 1.70324e-11 -0)
(0 3.46399e-11 -0)
(0 1.32406e-14 -0)
(0 1.33563e-14 -0)
(0 -4.88605e-15 -0)
(0 3.55718e-14 -0)
(0 -1.81143e-14 -0)
(0 -1.16382e-14 -0)
(0 -1.60445e-14 -0)
(0 9.55229e-15 -0)
(0 2.70405e-15 -0)
(0 1.77134e-15 -0)
(0 -6.07872e-15 -0)
(0 -1.43571e-14 -0)
(0 2.76997e-14 -0)
(0 5.86555e-15 -0)
(0 -2.9023e-14 -0)
(0 -2.89104e-14 -0)
(0 -1.88552e-14 -0)
(0 -3.17683e-15 -0)
(0 9.79751e-15 -0)
(0 -4.75694e-14 -0)
(0 -1.82749e-11 -0)
(0 1.79026e-11 -0)
(0 -3.01637e-12 -0)
(0 1.10985e-12 -0)
(0 1.2457e-13 -0)
(0 3.52875e-13 -0)
(0 1.03045e-13 -0)
(0 1.92504e-13 -0)
(0 8.8323e-14 -0)
(0 4.28585e-14 -0)
(0 3.58496e-14 -0)
(0 7.28267e-14 -0)
(0 -2.92488e-15 -0)
(0 6.41798e-14 -0)
(0 -7.115e-14 -0)
(0 1.25578e-13 -0)
(0 -1.19153e-14 -0)
(0 4.26953e-14 -0)
(0 7.84504e-16 -0)
(0 5.28441e-14 -0)
)
;
    }
    frontAndBack
    {
        type            empty;
    }
}


// ************************************************************************* //
