/*--------------------------------*- C++ -*----------------------------------*\
| =========                 |                                                 |
| \\      /  F ield         | OpenFOAM: The Open Source CFD Toolbox           |
|  \\    /   O peration     | Version:  2312                                  |
|   \\  /    A nd           | Website:  www.openfoam.com                      |
|    \\/     M anipulation  |                                                 |
\*---------------------------------------------------------------------------*/
FoamFile
{
    version     2.0;
    format      ascii;
    arch        "LSB;label=32;scalar=64";
    class       volScalarField;
    location    "6.75";
    object      magSqrP;
}
// * * * * * * * * * * * * * * * * * * * * * * * * * * * * * * * * * * * * * //

dimensions      [0 4 -4 0 0 0 0];

internalField   nonuniform List<scalar> 
400
(
2.72356e-32
9.15239e-30
1.39367e-30
2.29321e-30
2.07117e-30
1.71984e-30
1.15003e-30
1.45058e-30
2.11662e-30
2.35572e-30
2.06291e-30
1.79627e-30
2.34711e-30
2.72085e-30
2.66848e-30
2.17054e-30
2.8353e-30
2.2416e-30
2.61018e-30
3.21519e-30
4.59986e-30
0
1.66157e-30
1.45599e-30
1.97468e-30
1.20627e-30
1.1356e-30
1.515e-30
2.15978e-30
2.32327e-30
2.49109e-30
2.39593e-30
2.43643e-30
2.34911e-30
2.49374e-30
2.52717e-30
2.59437e-30
2.03686e-30
2.65518e-30
2.88303e-30
1.14467e-30
7.29441e-30
1.70563e-30
2.57344e-30
1.60714e-30
1.56768e-30
1.31004e-30
1.35239e-30
2.32609e-30
2.50001e-30
2.66694e-30
2.54686e-30
2.50577e-30
2.65544e-30
2.96397e-30
3.47548e-30
2.28239e-30
2.2667e-30
2.59707e-30
2.79341e-30
6.79474e-31
3.31044e-30
2.2113e-30
2.41205e-30
1.82877e-30
1.94376e-30
1.72742e-30
1.7282e-30
2.1299e-30
2.5911e-30
2.80019e-30
2.86567e-30
3.45467e-30
3.08927e-30
3.41787e-30
2.4922e-30
2.09154e-30
2.86596e-30
2.47524e-30
2.90559e-30
2.59801e-30
0
1.74767e-30
1.99441e-30
2.09441e-30
2.0925e-30
1.99254e-30
2.13022e-30
2.25383e-30
2.39875e-30
2.87969e-30
3.45623e-30
3.74812e-30
3.36347e-30
3.79994e-30
2.8703e-30
2.39869e-30
2.48976e-30
2.84076e-30
3.49376e-30
2.86027e-31
1.02063e-29
1.88262e-30
2.62923e-30
1.59536e-30
1.70951e-30
2.21418e-30
2.60052e-30
2.47908e-30
2.21427e-30
3.1018e-30
3.95423e-30
4.57262e-30
3.81668e-30
4.09815e-30
2.83976e-30
2.58903e-30
2.49364e-30
2.99758e-30
3.78299e-30
2.05028e-30
1.78042e-30
1.51826e-30
2.10219e-30
1.87682e-30
1.94077e-30
2.00619e-30
2.37581e-30
2.05086e-30
2.48078e-30
3.60112e-30
4.42337e-30
4.89643e-30
4.41557e-30
4.12362e-30
3.62207e-30
3.40113e-30
2.46613e-30
2.6271e-30
3.84952e-30
4.52946e-30
0
2.54573e-30
1.91804e-30
1.79398e-30
2.11995e-30
2.3145e-30
2.26017e-30
1.93343e-30
2.79399e-30
3.45769e-30
4.42192e-30
5.7654e-30
4.52397e-30
4.34231e-30
3.91771e-30
3.19376e-30
2.40301e-30
2.31522e-30
3.15174e-30
6.78221e-31
1.35891e-29
1.90573e-30
2.36834e-30
1.87597e-30
2.40895e-30
2.23465e-30
2.32446e-30
2.14647e-30
2.97525e-30
4.29658e-30
4.16629e-30
4.97251e-30
4.71132e-30
4.50124e-30
4.26036e-30
2.6658e-30
2.00174e-30
2.19024e-30
3.39462e-30
1.44834e-30
2.75832e-31
2.2884e-30
1.99237e-30
2.03532e-30
2.29234e-30
1.99687e-30
2.23827e-30
2.68061e-30
3.17242e-30
3.94138e-30
4.16732e-30
4.24786e-30
4.05433e-30
4.1529e-30
3.75133e-30
3.25783e-30
2.10539e-30
1.62326e-30
2.98311e-30
1.61575e-30
1.24848e-30
2.09515e-30
2.11961e-30
2.21385e-30
2.0905e-30
2.33648e-30
2.67333e-30
2.21415e-30
3.12503e-30
3.79111e-30
4.34168e-30
4.07577e-30
3.54204e-30
3.79936e-30
2.89147e-30
2.38135e-30
1.87696e-30
1.87767e-30
3.21357e-30
1.73534e-30
8.75956e-30
1.98623e-30
2.61135e-30
2.08646e-30
2.12674e-30
2.73676e-30
2.88641e-30
1.60811e-30
2.63608e-30
3.53347e-30
3.98192e-30
3.87256e-30
3.35908e-30
3.0453e-30
2.66796e-30
1.76552e-30
1.86637e-30
2.34475e-30
3.01226e-30
2.67747e-30
0
2.25062e-30
2.41235e-30
2.09926e-30
1.98108e-30
2.34815e-30
2.57889e-30
1.77695e-30
2.83139e-30
4.01107e-30
3.4148e-30
2.84986e-30
2.99663e-30
3.50733e-30
2.39848e-30
1.89096e-30
1.8362e-30
1.921e-30
2.59342e-30
5.39802e-31
1.70348e-29
2.26683e-30
3.15367e-30
1.76659e-30
2.07683e-30
2.00189e-30
2.04995e-30
2.09341e-30
2.76726e-30
3.35226e-30
3.71873e-30
3.27348e-30
2.96813e-30
3.34427e-30
2.03859e-30
1.97793e-30
2.11608e-30
1.95626e-30
2.92319e-30
1.94219e-30
3.10763e-31
2.73642e-30
2.34585e-30
2.23934e-30
1.84559e-30
2.03154e-30
2.15848e-30
1.9875e-30
3.16833e-30
3.67271e-30
3.54326e-30
2.93597e-30
2.92672e-30
2.5867e-30
2.16415e-30
1.95985e-30
1.95609e-30
1.79959e-30
2.48122e-30
3.45556e-30
0
2.36009e-30
2.35212e-30
2.17015e-30
1.9e-30
2.10032e-30
2.10362e-30
2.22959e-30
2.76389e-30
3.35007e-30
3.38217e-30
2.8973e-30
2.48906e-30
2.52829e-30
2.24328e-30
2.06172e-30
2.0941e-30
2.05853e-30
2.80375e-30
4.2576e-31
1.17455e-29
2.33261e-30
3.21709e-30
2.25348e-30
1.91168e-30
2.3816e-30
2.47876e-30
2.59248e-30
2.94038e-30
2.9914e-30
2.92029e-30
2.98297e-30
3.05116e-30
2.84982e-30
1.76535e-30
2.14911e-30
2.26084e-30
2.22739e-30
3.03088e-30
2.16394e-30
3.72057e-31
1.88956e-30
2.3664e-30
2.10118e-30
2.27177e-30
2.48067e-30
2.92977e-30
2.99915e-30
3.14827e-30
3.39636e-30
3.40054e-30
2.8213e-30
2.91287e-30
2.53774e-30
1.83705e-30
2.5327e-30
2.56235e-30
2.40904e-30
3.1809e-30
2.90234e-30
0
1.98275e-30
2.12282e-30
2.47192e-30
2.30267e-30
2.65458e-30
2.95516e-30
3.46466e-30
3.53082e-30
3.58326e-30
3.35787e-30
3.43995e-30
2.78219e-30
3.47167e-30
2.28849e-30
2.46571e-30
2.04596e-30
2.60369e-30
3.18636e-30
1.68645e-32
6.75228e-30
1.34536e-30
2.73325e-30
2.3267e-30
2.63441e-30
2.41479e-30
2.82915e-30
4.18416e-30
4.19515e-30
3.79309e-30
3.61616e-30
3.70508e-30
3.04759e-30
2.704e-30
2.54921e-30
2.66586e-30
2.12824e-30
2.51531e-30
3.83437e-30
)
;

boundaryField
{
    movingWall
    {
        type            calculated;
        value           nonuniform List<scalar> 
20
(
1.68645e-32
6.75228e-30
1.34536e-30
2.73325e-30
2.3267e-30
2.63441e-30
2.41479e-30
2.82915e-30
4.18416e-30
4.19515e-30
3.79309e-30
3.61616e-30
3.70508e-30
3.04759e-30
2.704e-30
2.54921e-30
2.66586e-30
2.12824e-30
2.51531e-30
3.83437e-30
)
;
    }
    fixedWalls
    {
        type            calculated;
        value           nonuniform List<scalar> 
60
(
2.72356e-32
4.59986e-30
1.14467e-30
6.79474e-31
2.59801e-30
2.86027e-31
2.05028e-30
4.52946e-30
6.78221e-31
1.44834e-30
1.61575e-30
1.73534e-30
2.67747e-30
5.39802e-31
1.94219e-30
3.45556e-30
4.2576e-31
2.16394e-30
2.90234e-30
1.68645e-32
3.21519e-30
2.88303e-30
2.79341e-30
2.90559e-30
3.49376e-30
3.78299e-30
3.84952e-30
3.15174e-30
3.39462e-30
2.98311e-30
3.21357e-30
3.01226e-30
2.59342e-30
2.92319e-30
2.48122e-30
2.80375e-30
3.03088e-30
3.1809e-30
3.18636e-30
3.83437e-30
2.72356e-32
9.15239e-30
1.39367e-30
2.29321e-30
2.07117e-30
1.71984e-30
1.15003e-30
1.45058e-30
2.11662e-30
2.35572e-30
2.06291e-30
1.79627e-30
2.34711e-30
2.72085e-30
2.66848e-30
2.17054e-30
2.8353e-30
2.2416e-30
2.61018e-30
3.21519e-30
)
;
    }
    frontAndBack
    {
        type            empty;
    }
}


// ************************************************************************* //
