/*--------------------------------*- C++ -*----------------------------------*\
| =========                 |                                                 |
| \\      /  F ield         | OpenFOAM: The Open Source CFD Toolbox           |
|  \\    /   O peration     | Version:  2312                                  |
|   \\  /    A nd           | Website:  www.openfoam.com                      |
|    \\/     M anipulation  |                                                 |
\*---------------------------------------------------------------------------*/
FoamFile
{
    version     2.0;
    format      ascii;
    arch        "LSB;label=32;scalar=64";
    class       volScalarField;
    location    "6.75";
    object      pNear;
}
// * * * * * * * * * * * * * * * * * * * * * * * * * * * * * * * * * * * * * //

dimensions      [0 2 -2 0 0 0 0];

internalField   nonuniform List<scalar> 
400
(
1.65032e-16
3.02529e-15
1.18054e-15
1.51434e-15
1.43916e-15
1.31143e-15
1.0724e-15
1.2044e-15
1.45486e-15
1.53483e-15
1.43628e-15
1.34025e-15
1.53203e-15
1.6495e-15
1.63355e-15
1.47327e-15
1.68384e-15
1.4972e-15
1.61561e-15
1.7931e-15
2.14473e-15
0
1.28902e-15
1.20664e-15
1.40523e-15
1.0983e-15
1.06565e-15
1.23085e-15
1.46962e-15
1.52423e-15
1.57832e-15
1.54788e-15
1.56091e-15
1.53268e-15
1.57916e-15
1.58971e-15
1.61071e-15
1.42719e-15
1.62947e-15
1.69795e-15
1.06989e-15
2.70082e-15
1.306e-15
1.60419e-15
1.26773e-15
1.25207e-15
1.14457e-15
1.16292e-15
1.52515e-15
1.58114e-15
1.63308e-15
1.59589e-15
1.58296e-15
1.62955e-15
1.72162e-15
1.86426e-15
1.51076e-15
1.50556e-15
1.61154e-15
1.67135e-15
8.24302e-16
1.81946e-15
1.48704e-15
1.55308e-15
1.35232e-15
1.39419e-15
1.31431e-15
1.31461e-15
1.45942e-15
1.60969e-15
1.67338e-15
1.69283e-15
1.85867e-15
1.75763e-15
1.84875e-15
1.57867e-15
1.44621e-15
1.69292e-15
1.57329e-15
1.70458e-15
1.61183e-15
0
1.32199e-15
1.41224e-15
1.44721e-15
1.44655e-15
1.41157e-15
1.45953e-15
1.50128e-15
1.54879e-15
1.69696e-15
1.85909e-15
1.93601e-15
1.83398e-15
1.94934e-15
1.69419e-15
1.54877e-15
1.5779e-15
1.68546e-15
1.86916e-15
5.34815e-16
3.19473e-15
1.37209e-15
1.62149e-15
1.26308e-15
1.30748e-15
1.48801e-15
1.61261e-15
1.57451e-15
1.48804e-15
1.76119e-15
1.98852e-15
2.13837e-15
1.95363e-15
2.02439e-15
1.68516e-15
1.60905e-15
1.57913e-15
1.73135e-15
1.94499e-15
1.43188e-15
1.33432e-15
1.23218e-15
1.44989e-15
1.36997e-15
1.39311e-15
1.4164e-15
1.54137e-15
1.43208e-15
1.57505e-15
1.89766e-15
2.10318e-15
2.21279e-15
2.10132e-15
2.03067e-15
1.90317e-15
1.84422e-15
1.57039e-15
1.62083e-15
1.96202e-15
2.12825e-15
0
1.59553e-15
1.38493e-15
1.33939e-15
1.456e-15
1.52135e-15
1.50339e-15
1.39048e-15
1.67152e-15
1.85949e-15
2.10284e-15
2.40112e-15
2.12696e-15
2.08382e-15
1.97932e-15
1.78711e-15
1.55017e-15
1.52158e-15
1.77532e-15
8.23542e-16
3.68634e-15
1.38048e-15
1.53894e-15
1.36966e-15
1.55208e-15
1.49488e-15
1.52462e-15
1.46508e-15
1.72489e-15
2.07282e-15
2.04115e-15
2.22991e-15
2.17056e-15
2.12161e-15
2.06406e-15
1.63273e-15
1.41483e-15
1.47995e-15
1.84245e-15
1.20347e-15
5.25197e-16
1.51275e-15
1.41151e-15
1.42665e-15
1.51405e-15
1.41311e-15
1.49609e-15
1.63726e-15
1.78113e-15
1.98529e-15
2.0414e-15
2.06103e-15
2.01354e-15
2.03787e-15
1.93683e-15
1.80494e-15
1.45099e-15
1.27407e-15
1.72717e-15
1.27112e-15
1.11736e-15
1.44746e-15
1.45589e-15
1.4879e-15
1.44586e-15
1.52855e-15
1.63503e-15
1.488e-15
1.76777e-15
1.94708e-15
2.08367e-15
2.01885e-15
1.88203e-15
1.94919e-15
1.70043e-15
1.54316e-15
1.37002e-15
1.37028e-15
1.79264e-15
1.31732e-15
2.95966e-15
1.40934e-15
1.61597e-15
1.44446e-15
1.45833e-15
1.65432e-15
1.69894e-15
1.26811e-15
1.6236e-15
1.87975e-15
1.99548e-15
1.96788e-15
1.83278e-15
1.74508e-15
1.63339e-15
1.32873e-15
1.36615e-15
1.53126e-15
1.73559e-15
1.6363e-15
0
1.50021e-15
1.55317e-15
1.44888e-15
1.40751e-15
1.53237e-15
1.60589e-15
1.33302e-15
1.68267e-15
2.00277e-15
1.84792e-15
1.68815e-15
1.73108e-15
1.87279e-15
1.5487e-15
1.37512e-15
1.35507e-15
1.386e-15
1.61041e-15
7.34712e-16
4.12732e-15
1.5056e-15
1.77586e-15
1.32913e-15
1.44112e-15
1.41488e-15
1.43176e-15
1.44686e-15
1.66351e-15
1.83092e-15
1.9284e-15
1.80928e-15
1.72283e-15
1.82874e-15
1.42779e-15
1.40639e-15
1.45467e-15
1.39866e-15
1.70973e-15
1.39362e-15
5.57461e-16
1.65421e-15
1.53162e-15
1.49644e-15
1.35852e-15
1.42532e-15
1.46918e-15
1.40979e-15
1.77998e-15
1.91643e-15
1.88235e-15
1.71347e-15
1.71076e-15
1.60832e-15
1.47111e-15
1.39995e-15
1.3986e-15
1.34149e-15
1.57519e-15
1.85891e-15
0
1.53626e-15
1.53366e-15
1.47314e-15
1.37841e-15
1.44925e-15
1.45039e-15
1.49318e-15
1.6625e-15
1.83032e-15
1.83907e-15
1.70215e-15
1.57768e-15
1.59006e-15
1.49776e-15
1.43587e-15
1.4471e-15
1.43476e-15
1.67444e-15
6.52503e-16
3.42717e-15
1.52729e-15
1.79362e-15
1.50116e-15
1.38264e-15
1.54324e-15
1.57441e-15
1.61012e-15
1.71475e-15
1.72957e-15
1.70889e-15
1.72713e-15
1.74676e-15
1.68814e-15
1.32866e-15
1.46599e-15
1.50361e-15
1.49244e-15
1.74094e-15
1.47103e-15
6.09965e-16
1.37461e-15
1.53831e-15
1.44955e-15
1.50724e-15
1.57501e-15
1.71166e-15
1.73181e-15
1.77434e-15
1.84292e-15
1.84405e-15
1.67967e-15
1.70671e-15
1.59303e-15
1.35538e-15
1.59145e-15
1.60073e-15
1.55211e-15
1.78351e-15
1.70362e-15
0
1.4081e-15
1.45699e-15
1.57223e-15
1.51746e-15
1.62929e-15
1.71906e-15
1.86136e-15
1.87905e-15
1.89295e-15
1.83245e-15
1.85471e-15
1.66799e-15
1.86324e-15
1.51277e-15
1.57026e-15
1.43037e-15
1.61359e-15
1.78504e-15
1.29863e-16
2.59852e-15
1.1599e-15
1.65326e-15
1.52535e-15
1.62309e-15
1.55396e-15
1.68201e-15
2.04552e-15
2.04821e-15
1.94758e-15
1.90162e-15
1.92486e-15
1.74573e-15
1.64439e-15
1.59662e-15
1.63275e-15
1.45885e-15
1.58597e-15
1.95815e-15
)
;

boundaryField
{
    movingWall
    {
        type            zeroGradient;
    }
    fixedWalls
    {
        type            calculated;
        value           nonuniform List<scalar> 
60
(
4.61986e-16
1.68655e-15
1.19428e-15
9.7927e-16
1.33215e-15
8.30928e-16
1.40178e-15
1.82809e-15
1.07624e-15
1.15663e-15
1.2679e-15
1.35824e-15
1.45321e-15
9.68787e-16
1.36458e-15
1.60816e-15
9.56244e-16
1.38314e-15
1.43267e-15
3.65927e-16
1.77882e-15
1.70823e-15
1.68032e-15
1.72428e-15
1.85585e-15
1.93617e-15
1.93146e-15
1.81339e-15
1.81509e-15
1.75428e-15
1.77426e-15
1.72537e-15
1.64408e-15
1.67465e-15
1.61026e-15
1.66953e-15
1.73735e-15
1.77735e-15
1.81078e-15
1.93219e-15
5.94071e-16
2.31954e-15
1.50732e-15
1.45299e-15
1.43127e-15
1.29473e-15
1.12805e-15
1.22217e-15
1.42929e-15
1.50806e-15
1.43666e-15
1.38342e-15
1.52088e-15
1.62949e-15
1.6119e-15
1.5289e-15
1.62426e-15
1.54295e-15
1.62447e-15
1.76647e-15
)
;
    }
    frontAndBack
    {
        type            empty;
    }
}


// ************************************************************************* //
