/*--------------------------------*- C++ -*----------------------------------*\
| =========                 |                                                 |
| \\      /  F ield         | OpenFOAM: The Open Source CFD Toolbox           |
|  \\    /   O peration     | Version:  2312                                  |
|   \\  /    A nd           | Website:  www.openfoam.com                      |
|    \\/     M anipulation  |                                                 |
\*---------------------------------------------------------------------------*/
FoamFile
{
    version     2.0;
    format      ascii;
    arch        "LSB;label=32;scalar=64";
    class       volScalarField;
    location    "6.75";
    object      QField;
}
// * * * * * * * * * * * * * * * * * * * * * * * * * * * * * * * * * * * * * //

dimensions      [0 0 -2 0 0 0 0];

internalField   nonuniform List<scalar> 
400
(
-3.17602e-23
-1.02597e-23
-6.55389e-25
2.63009e-26
-1.00989e-26
-1.04873e-27
-7.2853e-28
8.06035e-28
0
-1.10142e-28
4.64002e-28
0
1.58558e-28
5.6172e-28
0
-1.30746e-27
-1.01682e-27
4.57443e-29
0
-1.80227e-28
-5.77433e-23
-1.82309e-23
-1.28173e-24
-1.8893e-26
1.94298e-27
9.40709e-28
-2.33962e-28
-2.88717e-28
-4.42696e-28
9.35523e-30
9.84016e-29
-1.33671e-28
1.771e-28
-1.6053e-27
-5.83042e-29
1.75042e-27
-7.48421e-28
-7.28919e-28
-1.55747e-28
0
-5.96384e-23
-2.03527e-23
-5.38832e-25
-3.07816e-26
1.0935e-27
-2.09368e-27
-5.99494e-28
-7.22466e-28
2.73956e-27
9.5862e-28
7.1633e-28
-5.29506e-28
-7.37943e-28
5.81195e-28
2.67496e-27
-3.36652e-28
-2.47213e-27
-1.18945e-28
3.49695e-28
0
-4.93063e-23
-1.48557e-23
-8.1272e-25
4.06508e-26
-1.6119e-26
3.36279e-27
-3.63711e-27
-1.21561e-27
-1.2088e-28
1.93929e-28
3.86452e-28
8.32305e-30
-1.5429e-27
2.12967e-28
1.38599e-28
-1.6685e-27
2.46497e-28
-5.89941e-28
8.1431e-31
-6.19718e-28
-3.4185e-23
-1.04684e-23
-6.07274e-25
-2.07037e-26
5.24349e-27
1.59124e-27
-9.4717e-29
-7.85715e-28
0
0
4.94792e-28
-1.00383e-27
0
4.62913e-28
-2.38503e-28
-9.95935e-29
0
1.47193e-28
3.28487e-28
-9.48692e-29
-2.94588e-23
-9.38403e-24
-5.19967e-25
4.34842e-27
-5.74788e-27
4.49616e-28
-2.18991e-27
-9.78129e-28
-1.16538e-27
-2.36384e-28
3.22151e-28
4.06114e-28
-3.68609e-28
1.33163e-28
-2.67042e-28
1.64666e-28
-4.98812e-29
1.93106e-28
5.33482e-28
-3.95393e-28
-2.1852e-23
-1.07297e-23
5.88544e-25
-1.32778e-25
2.52558e-26
-3.26497e-27
2.50484e-27
1.74769e-27
-8.04985e-28
-1.96793e-27
-6.42143e-28
-1.20647e-28
1.12872e-28
-1.2387e-27
-2.00949e-27
6.12838e-29
1.86896e-27
1.30851e-27
-6.96422e-28
-6.98645e-28
-7.97554e-24
-5.12226e-24
-1.56626e-25
-2.10722e-26
-5.27417e-27
-9.04473e-28
0
-2.09411e-28
2.82946e-28
8.92334e-28
-6.18548e-28
1.94256e-28
4.09873e-28
-6.15017e-28
0
0
0
-6.18077e-28
-9.95037e-28
0
-4.33493e-24
-2.9363e-24
-7.53127e-26
-2.91644e-26
5.26848e-27
-5.01755e-27
-1.22817e-27
2.95854e-28
5.53978e-28
1.96315e-28
4.26302e-28
1.61886e-28
-4.20881e-28
-2.52945e-28
-1.32994e-28
3.4276e-28
7.87455e-28
-1.22875e-27
0
1.05452e-28
5.95753e-25
-2.17492e-24
2.70403e-25
-2.44678e-26
6.38365e-27
-1.31678e-27
1.70118e-30
-9.20617e-28
1.69913e-28
0
-4.65609e-29
2.68561e-28
8.79746e-28
0
-1.41571e-28
7.28601e-28
-6.7297e-28
0
4.20779e-28
0
4.29161e-24
3.65833e-26
2.24388e-25
2.56328e-26
1.68963e-28
-2.68663e-28
0
1.96613e-27
1.03111e-27
-1.30795e-27
2.26352e-28
-9.54671e-28
-1.03857e-28
-9.81955e-28
2.95059e-28
-1.73364e-28
0
-2.9093e-28
1.03965e-28
-7.43806e-29
-1.73133e-24
-1.87246e-24
2.24086e-25
7.21675e-27
5.75894e-27
-1.45248e-27
5.77628e-28
1.0917e-27
-8.66084e-28
-4.11597e-28
-8.32152e-29
-3.19262e-28
2.05798e-27
0
-5.76627e-28
-4.17453e-28
-5.03535e-28
-2.12168e-28
-5.71937e-28
-1.61285e-28
-5.24179e-24
-2.72372e-24
-1.43692e-25
-7.6302e-27
1.291e-27
-3.26601e-28
1.01557e-27
2.24467e-27
-2.25694e-27
-1.75124e-27
3.38994e-28
-4.81295e-28
-1.67235e-28
1.34002e-27
-1.814e-27
5.04516e-28
5.31275e-29
0
-4.47285e-28
-6.72209e-29
-1.21549e-23
-5.89542e-24
-2.29348e-25
1.54918e-26
3.74677e-27
0
-4.54574e-29
2.50838e-28
0
3.86062e-28
1.02505e-28
0
-8.18019e-28
8.55892e-28
-1.42005e-27
0
0
-5.03361e-28
2.32479e-28
3.40519e-29
-3.42939e-23
-1.42383e-23
5.41147e-25
-8.19296e-26
2.05042e-26
-4.0217e-27
1.64455e-27
-7.56381e-28
-1.69654e-28
1.29661e-27
9.43504e-28
1.26184e-27
1.59461e-27
3.1072e-28
-1.04072e-27
-1.97416e-28
2.30926e-28
0
-2.51119e-28
2.28401e-29
-4.74991e-23
-1.53546e-23
-5.73899e-25
-1.5977e-26
-7.98905e-27
0
7.68561e-28
4.39321e-28
3.76435e-29
-1.08861e-27
-5.09566e-28
3.2472e-28
-5.06864e-28
-1.95638e-27
-2.12365e-28
-1.98248e-28
3.48684e-28
0
-1.06281e-28
1.14771e-28
-5.17076e-23
-1.462e-23
-8.80834e-25
-6.98118e-27
-8.30651e-28
-3.75703e-27
0
-3.57309e-28
-3.22439e-29
-8.84265e-29
1.31373e-28
1.67849e-28
-4.391e-28
-5.29955e-28
1.81659e-27
-3.69106e-28
0
0
0
0
-5.59446e-23
-1.6302e-23
-6.0174e-25
1.35601e-27
-9.09493e-27
0
0
0
9.84593e-28
6.14257e-28
1.28703e-27
1.03983e-27
5.96487e-28
-1.5464e-28
2.47615e-30
-3.30223e-27
2.38893e-28
1.66244e-28
0
0
-5.63888e-23
-1.58711e-23
-6.4599e-25
-7.19549e-26
1.10386e-26
3.87666e-28
5.80934e-28
-1.42217e-27
-1.62253e-27
-1.33064e-27
-8.21134e-28
-7.75019e-28
-6.33774e-29
-3.40287e-28
1.17291e-27
-6.13512e-28
0
-2.60614e-28
0
-2.42908e-28
-2.54061e-23
-6.35754e-24
-6.23616e-25
5.57465e-26
-1.26313e-26
1.62331e-27
-1.36354e-27
1.84807e-28
-7.01039e-28
-2.67272e-28
0
-7.38445e-29
0
3.62294e-28
-6.03212e-28
-8.1019e-28
-3.39104e-28
0
2.5742e-28
1.4512e-29
)
;

boundaryField
{
    movingWall
    {
        type            calculated;
        value           nonuniform List<scalar> 
20
(
4.92118e-24
3.81657e-24
-1.08609e-24
1.65156e-25
-3.31122e-26
6.58272e-27
-2.63711e-27
7.06505e-28
1.49856e-27
-1.7516e-27
-2.996e-27
-4.83947e-28
6.64472e-28
1.18717e-27
-1.21196e-27
-2.16742e-27
-9.29572e-28
0
5.2717e-28
-1.11558e-28
)
;
    }
    fixedWalls
    {
        type            calculated;
        value           nonuniform List<scalar> 
60
(
-1.81151e-22
-3.31748e-22
-3.06232e-22
-2.53279e-22
-1.90837e-22
-1.67907e-22
-1.08905e-22
-5.96223e-23
-4.03016e-23
1.80469e-25
2.20635e-23
-1.01453e-23
-3.83461e-23
-8.12321e-23
-1.76412e-22
-2.56489e-22
-2.76549e-22
-2.86028e-22
-2.88133e-22
-1.38701e-22
-2.95284e-28
0
0
-8.63524e-28
-2.33151e-28
-9.71718e-28
-7.70321e-28
0
1.72772e-28
0
-2.4373e-28
-3.45535e-28
1.61169e-29
5.57906e-29
5.19868e-29
1.88041e-28
0
0
-4.69122e-28
1.35335e-28
1.50536e-23
1.21574e-23
-2.84655e-24
2.67263e-25
-5.79112e-26
9.12589e-27
-1.30704e-28
2.64121e-27
-4.39546e-29
1.08634e-28
-3.80111e-28
-1.4203e-27
0
-1.89632e-28
-1.56922e-27
-2.71484e-27
-7.3973e-28
3.67841e-28
0
1.57109e-29
)
;
    }
    frontAndBack
    {
        type            empty;
    }
}


// ************************************************************************* //
