/*--------------------------------*- C++ -*----------------------------------*\
| =========                 |                                                 |
| \\      /  F ield         | OpenFOAM: The Open Source CFD Toolbox           |
|  \\    /   O peration     | Version:  2312                                  |
|   \\  /    A nd           | Website:  www.openfoam.com                      |
|    \\/     M anipulation  |                                                 |
\*---------------------------------------------------------------------------*/
FoamFile
{
    version     2.0;
    format      ascii;
    arch        "LSB;label=32;scalar=64";
    class       volScalarField;
    location    "6.75";
    object      Uy;
}
// * * * * * * * * * * * * * * * * * * * * * * * * * * * * * * * * * * * * * //

dimensions      [0 1 -1 0 0 0 0];

internalField   nonuniform List<scalar> 
400
(
1.67137e-13
-3.59025e-14
8.53865e-15
-1.74197e-15
5.48731e-16
1.20955e-16
1.28606e-16
-2.13191e-17
-2.00807e-17
-1.63703e-17
-4.57647e-18
6.92231e-17
1.55335e-16
9.84719e-17
-4.23731e-17
-7.82063e-17
3.4114e-17
4.09464e-17
5.12503e-17
3.31014e-17
1.59523e-15
-2.89414e-16
1.68502e-16
2.85854e-17
1.03895e-16
1.48058e-16
1.40174e-16
1.17942e-16
8.69145e-17
8.8014e-17
9.0366e-17
1.24318e-16
6.5708e-17
-1.08001e-16
-1.6944e-16
-8.64908e-17
1.53456e-16
-2.40698e-17
-2.00076e-17
3.33907e-17
-1.41231e-13
3.04941e-14
-7.27688e-15
1.58166e-15
-2.53578e-16
1.8565e-16
1.32637e-16
1.75824e-16
5.34618e-17
-5.33269e-17
-6.44276e-17
-1.4142e-16
-2.43965e-16
-1.97654e-16
-2.95414e-17
1.91827e-16
1.72173e-16
-9.35154e-17
-7.28198e-17
-1.22151e-17
1.21705e-13
-2.6333e-14
6.19426e-15
-1.31651e-15
3.05609e-16
-1.2714e-16
-9.08271e-17
-5.49172e-17
3.98551e-17
-1.03202e-17
-9.70001e-17
-1.52896e-16
-9.85354e-17
-5.52243e-18
1.21153e-17
8.93865e-17
-1.72288e-17
-6.79528e-17
-6.7722e-17
-4.65959e-17
-2.40271e-14
4.81911e-15
-1.04061e-15
2.47439e-16
-9.48457e-17
-1.59446e-16
-2.42426e-16
-1.41974e-16
4.74513e-17
1.48836e-16
2.56153e-18
-3.37095e-17
-5.09713e-18
-5.49234e-17
-5.51084e-17
-3.29253e-17
-1.83649e-17
1.53094e-17
-7.26696e-17
-4.52858e-17
-8.56241e-14
1.88523e-14
-4.23046e-15
1.084e-15
-2.01195e-16
2.37014e-17
-4.46013e-17
-8.22014e-18
3.16214e-17
5.08298e-18
-5.55887e-17
3.2278e-17
8.16171e-17
4.85305e-18
-3.58715e-17
-5.99972e-17
-1.56211e-17
1.28595e-16
5.56224e-17
-2.90956e-17
1.23498e-13
-2.63144e-14
6.06142e-15
-1.35684e-15
3.17661e-16
-1.21386e-17
1.45581e-16
2.18892e-16
2.75729e-16
1.19896e-16
9.42195e-17
9.08726e-17
1.30896e-16
1.11694e-16
-2.14375e-17
-1.3543e-16
-3.67678e-17
1.03757e-16
1.24151e-16
2.76514e-17
-4.06539e-14
7.88533e-15
-2.35947e-15
7.19415e-17
-2.96395e-16
-5.91559e-17
3.72971e-17
1.27885e-16
1.14556e-16
2.34962e-17
4.8183e-18
-2.66537e-17
-3.10156e-17
1.38287e-17
-2.85742e-17
-6.80481e-17
1.24162e-17
-1.09526e-17
3.26103e-18
2.38807e-17
-6.1309e-14
1.32712e-14
-3.31179e-15
4.67216e-16
-3.74647e-16
-1.87156e-17
8.81325e-17
1.32323e-16
6.08448e-17
5.18298e-17
2.4631e-17
8.96547e-19
1.48049e-17
-5.36146e-19
-2.3338e-18
-3.65883e-17
-1.2879e-16
-1.33428e-16
-4.19847e-17
6.76014e-18
9.87732e-14
-2.19099e-14
4.9958e-15
-1.2367e-15
1.96502e-16
-5.91243e-17
-4.64002e-17
-5.84967e-17
-3.03577e-18
4.19033e-18
2.80459e-17
1.34196e-17
1.27127e-16
1.75704e-16
1.64701e-16
1.23473e-16
-1.04106e-16
-1.50812e-16
-5.49031e-17
4.42834e-18
-9.86611e-14
2.15898e-14
-5.11429e-15
1.03878e-15
-3.93921e-16
-1.27929e-16
-2.19879e-16
-8.0865e-17
5.66631e-17
-6.86159e-18
6.81282e-18
3.4893e-17
1.32997e-17
1.57348e-17
8.64795e-17
1.49782e-16
1.32494e-16
-5.93773e-17
-1.3179e-16
-1.51968e-17
9.03936e-14
-1.99818e-14
4.41534e-15
-1.22058e-15
1.34166e-16
-1.58244e-16
-4.44575e-17
4.57537e-17
1.55366e-16
1.45765e-16
1.50769e-16
1.99256e-16
3.29821e-17
-1.51794e-16
-1.28584e-16
-3.25151e-17
4.49393e-17
3.49974e-17
2.76337e-17
3.18699e-17
-2.32208e-14
4.59339e-15
-1.30011e-15
1.51277e-16
-4.45354e-17
-7.48885e-18
-2.04365e-17
-8.24244e-17
-1.53107e-16
-8.04895e-17
-2.38882e-17
9.44299e-19
-4.38614e-17
-8.87377e-17
-1.26258e-16
-1.00747e-16
-1.88303e-16
-1.20348e-16
-2.62867e-17
1.48652e-18
-8.4755e-14
1.87952e-14
-4.43234e-15
9.86654e-16
-3.35948e-16
-1.73949e-17
1.41263e-17
1.36379e-17
-1.18965e-16
-7.70676e-17
5.01621e-19
-7.81769e-17
-4.73722e-17
5.5606e-17
1.10512e-16
2.26664e-17
-2.04025e-17
-7.11059e-17
-5.48757e-17
1.46639e-17
1.56587e-13
-3.44008e-14
8.01109e-15
-1.75387e-15
3.33729e-16
-1.63223e-16
-3.72073e-17
-4.18763e-17
-9.30184e-17
-5.75241e-17
1.39295e-17
1.20942e-17
1.07037e-16
1.72142e-16
1.35695e-16
-1.98371e-17
6.28619e-17
6.53596e-17
-3.63156e-18
-4.79494e-18
-1.05839e-13
2.31462e-14
-5.37398e-15
1.22803e-15
-1.41685e-16
1.62851e-16
-3.11182e-17
-1.20698e-16
-1.93199e-16
-1.27642e-16
-5.93239e-17
-6.49767e-17
-9.92574e-17
-8.4991e-17
8.51456e-18
9.42628e-17
4.01276e-17
-3.43791e-17
-1.01199e-16
-7.22759e-17
-2.63109e-14
5.76917e-15
-1.19461e-15
2.10949e-16
-7.48075e-17
1.22862e-17
-4.10257e-17
-1.04459e-16
-9.06899e-17
-2.52044e-17
-5.80663e-17
-7.36725e-17
-1.19992e-16
-8.09745e-17
5.73466e-17
1.1653e-16
-4.33701e-17
-4.48056e-17
-4.28424e-17
-4.7138e-17
1.22498e-13
-2.62545e-14
6.26978e-15
-1.34757e-15
1.64771e-16
-2.99182e-16
-2.11444e-16
-2.52522e-16
-2.05095e-16
-1.31438e-16
-9.37233e-17
-1.27313e-17
4.8138e-17
1.10528e-16
-3.03316e-17
-7.4542e-17
-6.06261e-17
1.75944e-17
-2.14974e-18
-7.94207e-18
-4.5156e-14
9.45711e-15
-2.27429e-15
4.61088e-16
-1.79949e-16
-1.20699e-16
-2.03786e-16
-2.52419e-16
-1.97591e-16
-1.32698e-16
-8.74927e-17
-3.17163e-17
-2.31861e-17
-2.39222e-17
-1.2681e-16
-1.729e-16
-3.93696e-17
1.08138e-17
-4.63482e-17
-4.32689e-17
-9.12075e-14
1.9543e-14
-4.55631e-15
1.02968e-15
-1.4479e-16
9.76572e-17
1.06948e-17
-5.66545e-18
3.3422e-17
2.9185e-17
-6.5184e-17
-1.05743e-16
-9.24278e-17
-5.58677e-17
-2.55963e-17
-1.26007e-16
-8.57379e-17
-3.74591e-17
-4.86228e-17
-5.11608e-17
)
;

boundaryField
{
    movingWall
    {
        type            calculated;
        value           uniform -0;
    }
    fixedWalls
    {
        type            calculated;
        value           uniform -0;
    }
    frontAndBack
    {
        type            empty;
    }
}


// ************************************************************************* //
