/*--------------------------------*- C++ -*----------------------------------*\
| =========                 |                                                 |
| \\      /  F ield         | OpenFOAM: The Open Source CFD Toolbox           |
|  \\    /   O peration     | Version:  2312                                  |
|   \\  /    A nd           | Website:  www.openfoam.com                      |
|    \\/     M anipulation  |                                                 |
\*---------------------------------------------------------------------------*/
FoamFile
{
    version     2.0;
    format      ascii;
    arch        "LSB;label=32;scalar=64";
    class       volVectorField;
    location    "6.75";
    object      vorticityField;
}
// * * * * * * * * * * * * * * * * * * * * * * * * * * * * * * * * * * * * * //

dimensions      [0 0 -1 0 0 0 0];

internalField   nonuniform List<vector> 
400
(
(0 -0 1.1714e-11)
(0 -0 -1.55346e-11)
(0 -0 3.33473e-12)
(0 -0 -8.26097e-13)
(0 -0 1.32082e-13)
(0 -0 -6.91175e-14)
(0 -0 -1.42274e-14)
(0 -0 -6.90788e-14)
(0 -0 4.94884e-16)
(0 -0 5.57605e-14)
(0 -0 6.27694e-14)
(0 -0 1.59912e-14)
(0 -0 5.7135e-14)
(0 -0 -4.68759e-14)
(0 -0 -1.76678e-14)
(0 -0 -4.65614e-14)
(0 -0 1.19153e-14)
(0 -0 1.71363e-15)
(0 -0 -7.84504e-16)
(0 -0 -8.43517e-15)
(0 -0 -4.1152e-13)
(0 -0 2.36798e-13)
(0 -0 1.67325e-13)
(0 -0 1.29065e-13)
(0 -0 1.74578e-13)
(0 -0 1.66258e-13)
(0 -0 7.83036e-14)
(0 -0 4.88842e-14)
(0 -0 7.83224e-14)
(0 -0 2.74502e-14)
(0 -0 3.07354e-14)
(0 -0 5.17443e-14)
(0 -0 -7.7442e-14)
(0 -0 -2.35148e-14)
(0 -0 -2.4954e-14)
(0 -0 8.64997e-14)
(0 -0 6.24211e-15)
(0 -0 -1.73464e-14)
(0 -0 -2.1359e-14)
(0 -0 -1.33831e-15)
(0 -0 -6.27614e-12)
(0 -0 1.20131e-11)
(0 -0 -2.75571e-12)
(0 -0 6.4812e-13)
(0 -0 -1.39601e-13)
(0 -0 -1.55886e-14)
(0 -0 -2.80877e-14)
(0 -0 -3.50226e-14)
(0 -0 -1.31335e-13)
(0 -0 -9.31041e-14)
(0 -0 -9.01245e-14)
(0 -0 -7.21638e-14)
(0 -0 -3.27284e-14)
(0 -0 4.85474e-14)
(0 -0 1.20263e-13)
(0 -0 7.43816e-14)
(0 -0 2.56759e-14)
(0 -0 -2.44993e-14)
(0 -0 3.52351e-14)
(0 -0 8.50349e-15)
(0 -0 6.36594e-12)
(0 -0 -1.07108e-11)
(0 -0 2.31191e-12)
(0 -0 -6.7018e-13)
(0 -0 -1.65879e-14)
(0 -0 -1.48064e-13)
(0 -0 -7.40929e-14)
(0 -0 -1.40368e-14)
(0 -0 -2.26454e-14)
(0 -0 -6.78956e-14)
(0 -0 -4.13626e-14)
(0 -0 -5.43636e-14)
(0 -0 4.18424e-14)
(0 -0 6.52752e-14)
(0 -0 9.49089e-15)
(0 -0 -5.71445e-14)
(0 -0 -9.70491e-14)
(0 -0 -5.04932e-15)
(0 -0 2.13569e-15)
(0 -0 -4.27783e-14)
(0 -0 -3.14053e-12)
(0 -0 2.37996e-12)
(0 -0 -6.74007e-13)
(0 -0 1.32609e-14)
(0 -0 -2.03319e-13)
(0 -0 -1.50283e-13)
(0 -0 -5.24629e-14)
(0 -0 1.88272e-15)
(0 -0 2.90811e-14)
(0 -0 -4.48898e-15)
(0 -0 -4.53596e-14)
(0 -0 -7.65866e-16)
(0 -0 -2.12139e-15)
(0 -0 -8.63163e-14)
(0 -0 -1.0622e-13)
(0 -0 -2.34307e-14)
(0 -0 4.82348e-15)
(0 -0 -3.25355e-14)
(0 -0 -6.02696e-14)
(0 -0 1.17955e-14)
(0 -0 -3.34326e-12)
(0 -0 7.38042e-12)
(0 -0 -1.6142e-12)
(0 -0 4.02926e-13)
(0 -0 -5.18195e-14)
(0 -0 6.98695e-14)
(0 -0 2.39129e-14)
(0 -0 7.62226e-15)
(0 -0 5.55404e-14)
(0 -0 1.8384e-14)
(0 -0 2.98246e-14)
(0 -0 6.79307e-14)
(0 -0 -2.74249e-15)
(0 -0 1.53562e-14)
(0 -0 2.062e-14)
(0 -0 8.33402e-14)
(0 -0 1.88592e-14)
(0 -0 3.42294e-14)
(0 -0 -1.57691e-14)
(0 -0 -2.65268e-15)
(0 -0 7.82095e-12)
(0 -0 -1.09034e-11)
(0 -0 2.73971e-12)
(0 -0 -3.57536e-13)
(0 -0 3.24206e-13)
(0 -0 1.72527e-13)
(0 -0 1.31523e-13)
(0 -0 1.75645e-13)
(0 -0 7.14156e-14)
(0 -0 9.02693e-14)
(0 -0 1.05518e-13)
(0 -0 5.78777e-14)
(0 -0 5.62922e-14)
(0 -0 6.60819e-14)
(0 -0 5.66028e-14)
(0 -0 -5.57431e-14)
(0 -0 1.05234e-13)
(0 -0 9.7407e-14)
(0 -0 4.65995e-14)
(0 -0 1.19249e-14)
(0 -0 -3.90027e-12)
(0 -0 3.6126e-12)
(0 -0 -9.71075e-13)
(0 -0 1.52097e-13)
(0 -0 -4.02148e-14)
(0 -0 6.26411e-15)
(0 -0 1.87041e-14)
(0 -0 -1.93792e-14)
(0 -0 -3.75439e-14)
(0 -0 -9.22889e-14)
(0 -0 -3.212e-14)
(0 -0 -5.77935e-14)
(0 -0 -5.01619e-14)
(0 -0 -2.68609e-14)
(0 -0 -8.18768e-15)
(0 -0 4.09904e-15)
(0 -0 5.70955e-15)
(0 -0 -2.80206e-14)
(0 -0 -2.36217e-14)
(0 -0 -2.71418e-15)
(0 -0 -3.66537e-12)
(0 -0 5.47446e-12)
(0 -0 -1.36171e-12)
(0 -0 1.58189e-13)
(0 -0 -1.57013e-13)
(0 -0 -6.21423e-14)
(0 -0 -6.62113e-14)
(0 -0 -1.11149e-13)
(0 -0 -1.1647e-13)
(0 -0 -5.78315e-14)
(0 -0 -1.13514e-13)
(0 -0 -5.51927e-14)
(0 -0 -5.43534e-14)
(0 -0 -1.10134e-13)
(0 -0 -1.12025e-13)
(0 -0 -3.97507e-14)
(0 -0 -9.09992e-14)
(0 -0 -4.55296e-14)
(0 -0 1.40188e-14)
(0 -0 3.52246e-15)
(0 -0 7.63212e-12)
(0 -0 -9.13379e-12)
(0 -0 2.20285e-12)
(0 -0 -4.2572e-13)
(0 -0 1.71968e-13)
(0 -0 2.99199e-14)
(0 -0 2.71678e-14)
(0 -0 5.85466e-14)
(0 -0 3.33738e-14)
(0 -0 3.10817e-15)
(0 -0 5.5133e-14)
(0 -0 3.70132e-14)
(0 -0 7.04386e-14)
(0 -0 3.75732e-15)
(0 -0 2.1882e-14)
(0 -0 -5.39857e-14)
(0 -0 -5.45336e-14)
(0 -0 4.92028e-15)
(0 -0 4.26291e-14)
(0 -0 5.04747e-15)
(0 -0 -8.24923e-12)
(0 -0 9.35468e-12)
(0 -0 -2.16352e-12)
(0 -0 5.26247e-13)
(0 -0 -1.16671e-13)
(0 -0 1.74042e-14)
(0 -0 4.70642e-15)
(0 -0 1.08969e-13)
(0 -0 8.87155e-14)
(0 -0 1.03435e-13)
(0 -0 5.83856e-14)
(0 -0 8.19639e-14)
(0 -0 5.22943e-14)
(0 -0 1.15738e-13)
(0 -0 9.47199e-14)
(0 -0 5.88115e-14)
(0 -0 -2.09159e-14)
(0 -0 -5.35335e-14)
(0 -0 -2.2687e-14)
(0 -0 1.46987e-14)
(0 -0 6.41777e-12)
(0 -0 -8.29967e-12)
(0 -0 1.98454e-12)
(0 -0 -4.28118e-13)
(0 -0 1.60444e-13)
(0 -0 6.34528e-14)
(0 -0 1.01715e-13)
(0 -0 7.41924e-14)
(0 -0 3.71062e-14)
(0 -0 2.66454e-14)
(0 -0 5.3491e-15)
(0 -0 1.53264e-14)
(0 -0 -8.93151e-14)
(0 -0 -1.61566e-14)
(0 -0 1.19279e-14)
(0 -0 7.15624e-14)
(0 -0 6.09614e-14)
(0 -0 2.53745e-14)
(0 -0 -3.12746e-16)
(0 -0 2.11547e-14)
(0 -0 -8.32744e-13)
(0 -0 1.81259e-12)
(0 -0 -5.52632e-13)
(0 -0 1.71368e-14)
(0 -0 -9.71917e-14)
(0 -0 -1.33115e-13)
(0 -0 -1.43019e-13)
(0 -0 -1.75897e-13)
(0 -0 -1.35332e-13)
(0 -0 -1.22603e-13)
(0 -0 -1.00277e-13)
(0 -0 -1.37523e-13)
(0 -0 -6.31783e-14)
(0 -0 -1.7087e-13)
(0 -0 -1.09621e-13)
(0 -0 -8.75196e-14)
(0 -0 -2.90651e-14)
(0 -0 1.62016e-14)
(0 -0 1.21834e-14)
(0 -0 -2.4625e-14)
(0 -0 -5.56598e-12)
(0 -0 7.6799e-12)
(0 -0 -1.80796e-12)
(0 -0 4.09639e-13)
(0 -0 -1.2751e-13)
(0 -0 3.50074e-14)
(0 -0 3.10328e-15)
(0 -0 -4.04142e-14)
(0 -0 -9.07056e-15)
(0 -0 3.90517e-14)
(0 -0 -1.1093e-16)
(0 -0 -4.78738e-15)
(0 -0 1.33783e-14)
(0 -0 6.99985e-14)
(0 -0 -3.29396e-15)
(0 -0 -1.30915e-14)
(0 -0 -9.37722e-15)
(0 -0 -3.44733e-15)
(0 -0 3.5682e-14)
(0 -0 4.02119e-15)
(0 -0 9.31834e-12)
(0 -0 -1.38818e-11)
(0 -0 3.42732e-12)
(0 -0 -6.59316e-13)
(0 -0 2.9459e-13)
(0 -0 7.13266e-14)
(0 -0 1.4766e-13)
(0 -0 1.29944e-13)
(0 -0 1.06855e-13)
(0 -0 1.19115e-13)
(0 -0 1.42487e-13)
(0 -0 1.44836e-13)
(0 -0 1.24425e-13)
(0 -0 1.11286e-13)
(0 -0 3.50122e-14)
(0 -0 1.98217e-14)
(0 -0 3.56247e-14)
(0 -0 -6.64934e-15)
(0 -0 -7.01546e-15)
(0 -0 2.79477e-14)
(0 -0 -6.18215e-12)
(0 -0 9.45015e-12)
(0 -0 -2.19182e-12)
(0 -0 5.23229e-13)
(0 -0 -5.23081e-14)
(0 -0 1.10567e-14)
(0 -0 -5.546e-14)
(0 -0 -4.33131e-14)
(0 -0 -5.49045e-14)
(0 -0 -6.79277e-14)
(0 -0 -7.50486e-14)
(0 -0 -8.53085e-14)
(0 -0 -5.62115e-14)
(0 -0 -4.34329e-14)
(0 -0 1.79254e-14)
(0 -0 5.73714e-14)
(0 -0 -3.99692e-14)
(0 -0 -1.41327e-14)
(0 -0 -3.78969e-15)
(0 -0 1.73475e-14)
(0 -0 5.20809e-13)
(0 -0 1.91532e-12)
(0 -0 -4.47402e-13)
(0 -0 1.1198e-13)
(0 -0 -1.98662e-14)
(0 -0 3.37818e-15)
(0 -0 -1.16745e-14)
(0 -0 -4.96642e-15)
(0 -0 7.92548e-15)
(0 -0 -2.38427e-14)
(0 -0 -3.19519e-14)
(0 -0 -3.32976e-14)
(0 -0 5.34799e-14)
(0 -0 1.77338e-14)
(0 -0 1.01066e-13)
(0 -0 -6.42818e-14)
(0 -0 -1.61335e-14)
(0 -0 5.27712e-17)
(0 -0 -2.33232e-16)
(0 -0 8.99803e-15)
(0 -0 3.74259e-12)
(0 -0 -1.02134e-11)
(0 -0 2.24675e-12)
(0 -0 -6.10501e-13)
(0 -0 2.35233e-14)
(0 -0 -3.76215e-14)
(0 -0 4.666e-15)
(0 -0 6.34869e-16)
(0 -0 9.34235e-14)
(0 -0 9.24523e-14)
(0 -0 1.20291e-13)
(0 -0 9.55013e-14)
(0 -0 3.9431e-14)
(0 -0 -7.84696e-15)
(0 -0 -4.56121e-14)
(0 -0 5.11807e-14)
(0 -0 3.63187e-14)
(0 -0 6.00577e-14)
(0 -0 -2.55365e-15)
(0 -0 1.00918e-15)
(0 -0 -2.5399e-12)
(0 -0 3.80028e-12)
(0 -0 -1.06223e-12)
(0 -0 1.96991e-14)
(0 -0 -2.47914e-13)
(0 -0 -1.65014e-13)
(0 -0 -1.48697e-13)
(0 -0 -1.34906e-13)
(0 -0 -1.23553e-13)
(0 -0 -7.03053e-14)
(0 -0 -7.1217e-14)
(0 -0 -7.48845e-14)
(0 -0 -8.05358e-14)
(0 -0 -6.45725e-14)
(0 -0 -9.62129e-14)
(0 -0 -4.54661e-14)
(0 -0 1.83714e-14)
(0 -0 -5.4908e-14)
(0 -0 -5.40826e-15)
(0 -0 -1.81433e-14)
(0 -0 -5.32331e-12)
(0 -0 8.39407e-12)
(0 -0 -1.63449e-12)
(0 -0 5.76677e-13)
(0 -0 4.23227e-14)
(0 -0 1.23969e-13)
(0 -0 7.09829e-14)
(0 -0 8.35879e-14)
(0 -0 5.76952e-14)
(0 -0 1.72444e-14)
(0 -0 -1.34928e-14)
(0 -0 2.43807e-14)
(0 -0 4.98752e-15)
(0 -0 6.08933e-14)
(0 -0 2.00911e-14)
(0 -0 -6.01415e-15)
(0 -0 8.85484e-15)
(0 -0 3.7115e-15)
(0 -0 -1.37017e-15)
(0 -0 3.70834e-14)
)
;

boundaryField
{
    movingWall
    {
        type            calculated;
        value           nonuniform List<vector> 
20
(
(0 -0 -1.24067e-11)
(0 -0 1.03527e-11)
(0 -0 -1.58488e-12)
(0 -0 8.40832e-13)
(0 -0 2.62069e-13)
(0 -0 3.7082e-13)
(0 -0 2.56121e-13)
(0 -0 3.13135e-13)
(0 -0 2.2553e-13)
(0 -0 1.67775e-13)
(0 -0 2.08552e-13)
(0 -0 1.74911e-13)
(0 -0 1.38214e-13)
(0 -0 1.84319e-13)
(0 -0 1.26213e-13)
(0 -0 1.27213e-13)
(0 -0 8.85484e-15)
(0 -0 3.7115e-15)
(0 -0 -1.37017e-15)
(0 -0 5.43873e-14)
)
;
    }
    fixedWalls
    {
        type            calculated;
        value           nonuniform List<vector> 
60
(
(0 -0 6.54453e-11)
(0 -0 9.59894e-14)
(0 -0 -5.16949e-11)
(0 -0 4.55108e-11)
(0 -0 -1.08306e-11)
(0 -0 -3.09157e-11)
(0 -0 4.75017e-11)
(0 -0 -1.6885e-11)
(0 -0 -2.33852e-11)
(0 -0 3.94551e-11)
(0 -0 -4.00065e-11)
(0 -0 3.5534e-11)
(0 -0 -8.25831e-12)
(0 -0 -3.2872e-11)
(0 -0 5.97344e-11)
(0 -0 -4.02484e-11)
(0 -0 -7.94937e-12)
(0 -0 4.31176e-11)
(0 -0 -1.70324e-11)
(0 -0 -3.46399e-11)
(0 -0 -1.32406e-14)
(0 -0 -1.33563e-14)
(0 -0 4.88605e-15)
(0 -0 -3.55718e-14)
(0 -0 1.81143e-14)
(0 -0 1.16382e-14)
(0 -0 1.60445e-14)
(0 -0 -9.55229e-15)
(0 -0 -2.70405e-15)
(0 -0 -1.77134e-15)
(0 -0 6.07872e-15)
(0 -0 1.43571e-14)
(0 -0 -2.76997e-14)
(0 -0 -5.86555e-15)
(0 -0 2.9023e-14)
(0 -0 2.89104e-14)
(0 -0 1.88552e-14)
(0 -0 3.17683e-15)
(0 -0 -9.79751e-15)
(0 -0 4.75694e-14)
(0 -0 1.82749e-11)
(0 -0 -1.79026e-11)
(0 -0 3.01637e-12)
(0 -0 -1.10985e-12)
(0 -0 -1.2457e-13)
(0 -0 -3.52875e-13)
(0 -0 -1.03045e-13)
(0 -0 -1.92504e-13)
(0 -0 -8.8323e-14)
(0 -0 -4.28585e-14)
(0 -0 -3.58496e-14)
(0 -0 -7.28267e-14)
(0 -0 2.92488e-15)
(0 -0 -6.41798e-14)
(0 -0 7.115e-14)
(0 -0 -1.25578e-13)
(0 -0 1.19153e-14)
(0 -0 -4.26953e-14)
(0 -0 -7.84504e-16)
(0 -0 -5.28441e-14)
)
;
    }
    frontAndBack
    {
        type            empty;
    }
}


// ************************************************************************* //
