/*--------------------------------*- C++ -*----------------------------------*\
| =========                 |                                                 |
| \\      /  F ield         | OpenFOAM: The Open Source CFD Toolbox           |
|  \\    /   O peration     | Version:  2312                                  |
|   \\  /    A nd           | Website:  www.openfoam.com                      |
|    \\/     M anipulation  |                                                 |
\*---------------------------------------------------------------------------*/
FoamFile
{
    version     2.0;
    format      ascii;
    arch        "LSB;label=32;scalar=64";
    class       volScalarField;
    location    "1.125";
    object      diffP;
}
// * * * * * * * * * * * * * * * * * * * * * * * * * * * * * * * * * * * * * //

dimensions      [0 2 -2 0 0 0 0];

internalField   nonuniform List<scalar> 
400
(
-3
-3
-3.00001
-3.00007
-3.00016
-3.00029
-3.00046
-3.00068
-3.00094
-3.00125
-3.00161
-3.00202
-3.00246
-3.00291
-3.00333
-3.00367
-3.00389
-3.004
-3.00402
-3.00397
-3.00001
-3
-3.00002
-3.00008
-3.00017
-3.0003
-3.00047
-3.00068
-3.00094
-3.00124
-3.00159
-3.00199
-3.00241
-3.00285
-3.00326
-3.0036
-3.00384
-3.00396
-3.00398
-3.00393
-3
-3
-3
-3.00003
-3.00012
-3.00025
-3.00042
-3.00062
-3.00087
-3.00117
-3.00151
-3.00191
-3.00234
-3.0028
-3.00323
-3.0036
-3.00385
-3.00396
-3.00396
-3.00389
-3
-3
-3
-3
-3
-3.00012
-3.00027
-3.00047
-3.00071
-3.00101
-3.00136
-3.00177
-3.00224
-3.00275
-3.00325
-3.00368
-3.00394
-3.00401
-3.00395
-3.00384
-3
-3
-3
-3
-3
-3
-3.00004
-3.00023
-3.00046
-3.00074
-3.0011
-3.00154
-3.00206
-3.00266
-3.0033
-3.00383
-3.00411
-3.0041
-3.00391
-3.00374
-3
-3
-3
-3
-3
-3
-3
-3
-3.00009
-3.00035
-3.0007
-3.00116
-3.00174
-3.00248
-3.00332
-3.00405
-3.00435
-3.00417
-3.00379
-3.00354
-3
-3
-3
-3
-3
-3
-3
-3
-3
-3
-3.00011
-3.00055
-3.00117
-3.00202
-3.00314
-3.00417
-3.00451
-3.00405
-3.00343
-3.00309
-3
-3
-3
-3
-3
-3
-3
-3
-3
-3
-3
-3
-3.00007
-3.00082
-3.00178
-3.00277
-3.00349
-3.00347
-3.00288
-3.00241
-3
-3
-3
-3
-3
-3
-3
-3
-3
-3
-3
-3
-3
-3
-3
-3
-3
-3.00066
-3.00221
-3.00239
-3
-3
-3
-3
-3
-3
-3
-3
-3
-3
-3
-3
-3
-3
-3
-3
-3
-3
-3
-3.00218
-3
-3
-3
-3
-3
-3
-3
-3
-3
-3
-3
-3
-3
-3
-3
-3
-3
-3
-3
-3
-3
-3
-3
-3
-3
-3
-3
-3
-3
-3
-3
-3
-3
-3
-3
-3
-3
-3
-3
-3
-3
-3
-3
-3
-3
-3
-3
-3
-3
-3
-3
-3
-3
-3
-3
-3
-3
-3
-3
-3
-3
-3
-3
-3
-3
-3
-3
-3
-3
-3
-3
-3
-3
-3
-3
-3
-3
-3
-3
-3
-3
-3
-3
-3
-3
-3
-3
-3
-3
-3
-3
-3
-3
-3
-3
-3
-3
-3
-3
-3
-3
-3
-3
-3
-3
-3
-3
-3
-3
-3
-3
-3
-3
-3
-3
-3
-3
-3
-3
-3
-3
-3
-3
-3
-3
-3
-3
-3
-3
-3
-3
-3
-3
-3
-3
-3
-3
-3
-3
-3
-3
-3
-3
-3
-3
-3
-3
-3
-3
-3
-3
-3
-3
-3
-3
-3
-3
-3
-3
-3
-3
-3
-3
-3
-3
-3
-3
-3
-3
-3
-3
-3
-3
-3
-3
-3
-3
-3
-3.00202
-3.02793
-3
-3.00286
-3.00124
-3
-3
-3
-3
-3
-3
-3
-3
-3
-3
-3
-3
-3
-3
-3.0036
-3.00743
-3.1133
)
;

boundaryField
{
    movingWall
    {
        type            calculated;
        value           nonuniform List<scalar> 
20
(
-3
-3.00286
-3.00124
-3
-3
-3
-3
-3
-3
-3
-3
-3
-3
-3
-3
-3
-3
-3.0036
-3.00743
-3.1133
)
;
    }
    fixedWalls
    {
        type            calculated;
        value           nonuniform List<scalar> 
60
(
-3
-3.00001
-3
-3
-3
-3
-3
-3
-3
-3
-3
-3
-3
-3
-3
-3
-3
-3
-3
-3
-3.00397
-3.00393
-3.00389
-3.00384
-3.00374
-3.00354
-3.00309
-3.00241
-3.00239
-3.00218
-3
-3
-3
-3
-3
-3
-3
-3
-3.02793
-3.1133
-3
-3
-3.00001
-3.00007
-3.00016
-3.00029
-3.00046
-3.00068
-3.00094
-3.00125
-3.00161
-3.00202
-3.00246
-3.00291
-3.00333
-3.00367
-3.00389
-3.004
-3.00402
-3.00397
)
;
    }
    frontAndBack
    {
        type            empty;
    }
}


// ************************************************************************* //
