/*--------------------------------*- C++ -*----------------------------------*\
| =========                 |                                                 |
| \\      /  F ield         | OpenFOAM: The Open Source CFD Toolbox           |
|  \\    /   O peration     | Version:  2312                                  |
|   \\  /    A nd           | Website:  www.openfoam.com                      |
|    \\/     M anipulation  |                                                 |
\*---------------------------------------------------------------------------*/
FoamFile
{
    version     2.0;
    format      ascii;
    arch        "LSB;label=32;scalar=64";
    class       volVectorField;
    location    "1.125";
    object      diffU;
}
// * * * * * * * * * * * * * * * * * * * * * * * * * * * * * * * * * * * * * //

dimensions      [0 1 -1 0 0 0 0];

internalField   nonuniform List<vector> 
400
(
(0 0 0)
(-0.00114905 0.000525981 0)
(-0.00317618 0.000869658 0)
(-0.00547271 0.000998065 0)
(-0.00787499 0.00101966 0)
(-0.0102731 0.000996664 0)
(-0.0126062 0.000948477 0)
(-0.0148169 0.000873511 0)
(-0.0168281 0.000755361 0)
(-0.0185422 0.000563004 0)
(-0.0198107 0.00027423 0)
(-0.0203564 -5.41297e-05 0)
(-0.0201828 -0.000577867 0)
(-0.0189311 -0.00114801 0)
(-0.016638 -0.0017245 0)
(-0.0133937 -0.00219056 0)
(-0.00954068 -0.00240283 0)
(-0.00560477 -0.00221146 0)
(-0.00211151 -0.00152533 0)
(-0.000144503 -0.000625661 0)
(-0.00052528 0.00115938 0)
(-0.00241213 0.00245929 0)
(-0.00481715 0.00318098 0)
(-0.00743109 0.00348899 0)
(-0.0101402 0.00356778 0)
(-0.0128646 0.00351793 0)
(-0.0155357 0.0033714 0)
(-0.0180745 0.00311724 0)
(-0.0203809 0.00271492 0)
(-0.0223293 0.00210476 0)
(-0.0237565 0.00123392 0)
(-0.0244548 9.05838e-05 0)
(-0.0242419 -0.00133633 0)
(-0.0229332 -0.00295814 0)
(-0.020464 -0.0045551 0)
(-0.0169384 -0.00582131 0)
(-0.0126971 -0.00641098 0)
(-0.0082761 -0.00606914 0)
(-0.00410456 -0.00470983 0)
(-0.00090091 -0.00245399 0)
(-0.000909615 0.00317067 0)
(-0.00315432 0.00483916 0)
(-0.00564804 0.00569917 0)
(-0.00828941 0.0061179 0)
(-0.0110156 0.00625969 0)
(-0.0137817 0.00621159 0)
(-0.0165368 0.00599379 0)
(-0.0192086 0.00557754 0)
(-0.0217011 0.00489776 0)
(-0.0238881 0.00386735 0)
(-0.0256013 0.00240392 0)
(-0.026625 0.000458611 0)
(-0.0267194 -0.00196494 0)
(-0.025634 -0.00472526 0)
(-0.0231946 -0.00748721 0)
(-0.0194345 -0.00972336 0)
(-0.0147249 -0.0108528 0)
(-0.00974129 -0.0105377 0)
(-0.00501573 -0.00879627 0)
(-0.00123931 -0.00550512 0)
(-0.0010725 0.00547477 0)
(-0.00349921 0.00738709 0)
(-0.00606147 0.00829805 0)
(-0.00873015 0.00878649 0)
(-0.0114769 0.00899365 0)
(-0.0142877 0.00897962 0)
(-0.0171421 0.00874469 0)
(-0.0199952 0.00823776 0)
(-0.022774 0.00736421 0)
(-0.025366 0.00599711 0)
(-0.0275992 0.00400152 0)
(-0.0292251 0.00126799 0)
(-0.0299088 -0.00223597 0)
(-0.0292324 -0.00636601 0)
(-0.0267866 -0.0106624 0)
(-0.022439 -0.0142741 0)
(-0.016645 -0.0161865 0)
(-0.010493 -0.0158508 0)
(-0.00497958 -0.0134079 0)
(-0.00108013 -0.00869823 0)
(-0.00110945 0.00790916 0)
(-0.00360606 0.010036 0)
(-0.0062145 0.0109672 0)
(-0.00891692 0.0115095 0)
(-0.0117066 0.0117965 0)
(-0.0145964 0.0118635 0)
(-0.0176027 0.0116904 0)
(-0.0207202 0.0112026 0)
(-0.0239162 0.01027 0)
(-0.02711 0.00870968 0)
(-0.0301366 0.0063012 0)
(-0.0327083 0.00282287 0)
(-0.0343676 -0.00187963 0)
(-0.0344305 -0.00773966 0)
(-0.0320329 -0.0142205 0)
(-0.0266538 -0.0199643 0)
(-0.0187988 -0.0230631 0)
(-0.0103604 -0.0223365 0)
(-0.00363877 -0.0183241 0)
(-0.000336843 -0.0114426 0)
(-0.00108441 0.0103545 0)
(-0.00357545 0.0127107 0)
(-0.00619495 0.0136665 0)
(-0.00891542 0.0142692 0)
(-0.0117474 0.0146649 0)
(-0.0147283 0.0148768 0)
(-0.0179152 0.0148713 0)
(-0.0213558 0.0145553 0)
(-0.0250792 0.0137628 0)
(-0.029066 0.0122385 0)
(-0.0331929 0.00963523 0)
(-0.0371717 0.0055545 0)
(-0.0404732 -0.000395281 0)
(-0.0421223 -0.00842027 0)
(-0.0405514 -0.0181491 0)
(-0.0342935 -0.0274809 0)
(-0.0235202 -0.0327515 0)
(-0.0106542 -0.030904 0)
(-0.000703715 -0.0229614 0)
(0.00136078 -0.0124553 0)
(-0.00102473 0.0127391 0)
(-0.00345373 0.0153594 0)
(-0.00604021 0.0163635 0)
(-0.00874181 0.0170473 0)
(-0.0115843 0.0175901 0)
(-0.0146288 0.0180207 0)
(-0.0179765 0.0183081 0)
(-0.0217398 0.0183553 0)
(-0.0260349 0.0179711 0)
(-0.0309497 0.0168269 0)
(-0.036481 0.0144315 0)
(-0.0424931 0.0101732 0)
(-0.0486686 0.00330413 0)
(-0.0541114 -0.00702532 0)
(-0.056624 -0.020824 0)
(-0.0530524 -0.0357359 0)
(-0.0411607 -0.0460422 0)
(-0.0217974 -0.0449249 0)
(-0.00128185 -0.0297849 0)
(0.00392608 -0.0111298 0)
(-0.000940113 0.0150117 0)
(-0.00325862 0.0179316 0)
(-0.00576065 0.0190108 0)
(-0.00838681 0.0197989 0)
(-0.0111751 0.0205266 0)
(-0.0142071 0.0212489 0)
(-0.0176261 0.0219591 0)
(-0.0216137 0.0225821 0)
(-0.0263929 0.0229332 0)
(-0.0322133 0.0226528 0)
(-0.0393114 0.0211736 0)
(-0.0480468 0.0178128 0)
(-0.0591204 0.0116358 0)
(-0.0723982 0.000987009 0)
(-0.084791 -0.0167145 0)
(-0.0891582 -0.0412645 0)
(-0.0789271 -0.0633413 0)
(-0.0544475 -0.0687444 0)
(-0.0199236 -0.0485995 0)
(0.00489652 -0.0124612 0)
(-0.000835583 0.0171304 0)
(-0.00299955 0.0203756 0)
(-0.00536011 0.0215475 0)
(-0.00783765 0.022451 0)
(-0.0104752 0.0233843 0)
(-0.0133654 0.0244476 0)
(-0.016681 0.0256829 0)
(-0.0206585 0.0270701 0)
(-0.0256218 0.0284883 0)
(-0.0320081 0.0296725 0)
(-0.0403607 0.0302632 0)
(-0.05189 0.02999 0)
(-0.0691884 0.027852 0)
(-0.0923422 0.0187493 0)
(-0.112825 -0.00551923 0)
(-0.1214 -0.044169 0)
(-0.11601 -0.0834339 0)
(-0.0934301 -0.103871 0)
(-0.0530123 -0.0861287 0)
(-0.00305524 -0.0239606 0)
(-0.000717862 0.0190604 0)
(-0.00269045 0.0226412 0)
(-0.00485247 0.0239044 0)
(-0.00709859 0.024909 0)
(-0.00946469 0.0260317 0)
(-0.012038 0.0274325 0)
(-0.0149945 0.0292198 0)
(-0.0185842 0.0314566 0)
(-0.0231699 0.0341458 0)
(-0.0292778 0.0372797 0)
(-0.0375275 0.041065 0)
(-0.0496423 0.0459579 0)
(-0.0688489 0.0495274 0)
(-0.0932327 0.0412681 0)
(-0.113087 0.00932978 0)
(-0.12255 -0.0430634 0)
(-0.122948 -0.0973877 0)
(-0.111811 -0.137722 0)
(-0.0791732 -0.138379 0)
(-0.0259571 -0.0642361 0)
(-0.000599702 0.0207797 0)
(-0.00235881 0.0246843 0)
(-0.00427537 0.0260123 0)
(-0.00620971 0.0270665 0)
(-0.00817697 0.0283099 0)
(-0.0102399 0.0299667 0)
(-0.0125444 0.0322142 0)
(-0.015299 0.0352013 0)
(-0.0188032 0.0390686 0)
(-0.0234756 0.0440889 0)
(-0.0297075 0.0509897 0)
(-0.0385788 0.0605901 0)
(-0.0523722 0.0680111 0)
(-0.0693413 0.0586322 0)
(-0.0815047 0.0214366 0)
(-0.0853513 -0.034905 0)
(-0.0886095 -0.0948947 0)
(-0.0929121 -0.15071 0)
(-0.08157 -0.185384 0)
(-0.0389893 -0.128776 0)
(-0.00050142 0.0223009 0)
(-0.00205207 0.0264826 0)
(-0.00369926 0.0278145 0)
(-0.00525897 0.0288238 0)
(-0.00671737 0.0300612 0)
(-0.00809965 0.03181 0)
(-0.00949817 0.0343005 0)
(-0.0110381 0.0377392 0)
(-0.0128756 0.0423478 0)
(-0.0151711 0.048512 0)
(-0.0178772 0.0570578 0)
(-0.0209086 0.0686584 0)
(-0.024654 0.0769213 0)
(-0.0307561 0.0684335 0)
(-0.033159 0.0306329 0)
(-0.0315823 -0.0262096 0)
(-0.0346019 -0.0828728 0)
(-0.0475611 -0.137506 0)
(-0.0590356 -0.200937 0)
(-0.0368128 -0.190801 0)
(-0.000454224 0.023638 0)
(-0.00185019 0.0280409 0)
(-0.00323135 0.0292784 0)
(-0.00438104 0.0301062 0)
(-0.00525727 0.0311627 0)
(-0.00584861 0.0327778 0)
(-0.00619032 0.0352092 0)
(-0.006317 0.0386727 0)
(-0.00623587 0.0433741 0)
(-0.00584923 0.0495876 0)
(-0.00476456 0.0578337 0)
(-0.00204327 0.0683171 0)
(0.00272481 0.0758432 0)
(0.00734694 0.0679112 0)
(0.0113916 0.0322175 0)
(0.0127677 -0.0233506 0)
(0.00680178 -0.07466 0)
(-0.00635449 -0.117983 0)
(-0.0290328 -0.18599 0)
(-0.0267138 -0.235425 0)
(-0.000504534 0.0250037 0)
(-0.00183835 0.0294408 0)
(-0.00299941 0.0304166 0)
(-0.00373299 0.0308802 0)
(-0.00399537 0.0315488 0)
(-0.00376007 0.0327828 0)
(-0.00302282 0.0348389 0)
(-0.00175231 0.0378941 0)
(0.000126644 0.042075 0)
(0.00286097 0.04746 0)
(0.00693502 0.0540872 0)
(0.013442 0.0616604 0)
(0.0230456 0.0665943 0)
(0.0339914 0.0586817 0)
(0.0415381 0.0295878 0)
(0.0427134 -0.0174373 0)
(0.0321262 -0.0636918 0)
(0.0159614 -0.103386 0)
(-0.00705281 -0.164182 0)
(-0.0176633 -0.255371 0)
(-0.000725372 0.0261815 0)
(-0.00219642 0.0306695 0)
(-0.00315941 0.031212 0)
(-0.00346721 0.0311098 0)
(-0.00310357 0.0311918 0)
(-0.00206396 0.0318234 0)
(-0.000333898 0.0332385 0)
(0.00215787 0.0355711 0)
(0.00553072 0.0388444 0)
(0.0100004 0.0429686 0)
(0.0159546 0.0476078 0)
(0.0240973 0.0520035 0)
(0.0349688 0.0536458 0)
(0.0472117 0.0459156 0)
(0.0555195 0.0234686 0)
(0.0558818 -0.0114926 0)
(0.0452212 -0.0491314 0)
(0.0271445 -0.0859451 0)
(0.00535478 -0.143257 0)
(-0.0135912 -0.261709 0)
(-0.00127695 0.0288884 0)
(-0.00293919 0.0322428 0)
(-0.00377132 0.0317509 0)
(-0.0036086 0.0307973 0)
(-0.00261819 0.0301347 0)
(-0.000836 0.0300113 0)
(0.00175334 0.0306242 0)
(0.00522709 0.0320505 0)
(0.00970188 0.034243 0)
(0.0153429 0.037016 0)
(0.0223531 0.0399057 0)
(0.0309452 0.042002 0)
(0.0412765 0.0414468 0)
(0.0520528 0.0347544 0)
(0.0592347 0.0186238 0)
(0.0594641 -0.0063158 0)
(0.0501046 -0.0354087 0)
(0.0337761 -0.0689072 0)
(0.0143131 -0.121054 0)
(-0.0113662 -0.263865 0)
(-0.00232336 0.0279587 0)
(-0.00475434 0.0314618 0)
(-0.00488473 0.0307237 0)
(-0.00392416 0.0293512 0)
(-0.00214843 0.0280844 0)
(0.000257825 0.0273187 0)
(0.00355623 0.0271763 0)
(0.00779845 0.0276936 0)
(0.0130902 0.0288313 0)
(0.0195283 0.03039 0)
(0.0271504 0.0319544 0)
(0.035861 0.0327652 0)
(0.0453484 0.0315128 0)
(0.0544693 0.026434 0)
(0.0605532 0.015487 0)
(0.0609343 -0.00177698 0)
(0.0525111 -0.023382 0)
(0.0416677 -0.0541697 0)
(0.0223359 -0.100978 0)
(-0.00751797 -0.26795 0)
(-0.00397621 0.0453966 0)
(-0.00613351 0.0430355 0)
(-0.00466178 0.0370287 0)
(-0.00236204 0.0319215 0)
(0.000375575 0.0285029 0)
(0.00389392 0.0261416 0)
(0.00819435 0.024555 0)
(0.0133322 0.0237103 0)
(0.0193914 0.0234914 0)
(0.0264682 0.0237358 0)
(0.0345689 0.0241471 0)
(0.0434964 0.0241803 0)
(0.052693 0.0229959 0)
(0.0611695 0.0195981 0)
(0.0668883 0.0130277 0)
(0.0682237 0.00208213 0)
(0.0595495 -0.0129029 0)
(0.0591686 -0.0404925 0)
(0.0251636 -0.0785302 0)
(0.00546237 -0.268459 0)
(-0.0058387 0.0178458 0)
(-0.00844719 0.0103274 0)
(-0.000750851 0.0103203 0)
(0.00753912 0.013241 0)
(0.0164021 0.0140827 0)
(0.025237 0.0136495 0)
(0.0337776 0.0131387 0)
(0.0421145 0.0128492 0)
(0.0504632 0.0127292 0)
(0.059043 0.0127223 0)
(0.0679949 0.0127727 0)
(0.0773016 0.0127307 0)
(0.0865886 0.0122755 0)
(0.0953133 0.01086 0)
(0.101619 0.00814156 0)
(0.106353 0.00283742 0)
(0.0983902 -0.00403548 0)
(0.108163 -0.0220564 0)
(0.0304401 -0.0429547 0)
(0.0714239 -0.22626 0)
(0.0409747 0.0923411 0)
(0.062849 0.069721 0)
(0.0882658 0.0438122 0)
(0.110106 0.0291971 0)
(0.126902 0.0214619 0)
(0.140932 0.0168872 0)
(0.153651 0.0138577 0)
(0.165476 0.0116993 0)
(0.176571 0.0100725 0)
(0.18712 0.00880971 0)
(0.197269 0.00779577 0)
(0.207091 0.00692511 0)
(0.21642 0.00614207 0)
(0.22515 0.00535014 0)
(0.23185 0.00445424 0)
(0.238452 0.00318104 0)
(0.232091 0.001698 0)
(0.252589 -0.0033904 0)
(0.125903 0.0032677 0)
(0.37849 -0.0983477 0)
)
;

boundaryField
{
    movingWall
    {
        type            calculated;
        value           uniform (1.00023 -0.000226182 0);
    }
    fixedWalls
    {
        type            calculated;
        value           uniform (0.00022602 -0.000226182 0);
    }
    frontAndBack
    {
        type            empty;
    }
}


// ************************************************************************* //
