/*--------------------------------*- C++ -*----------------------------------*\
| =========                 |                                                 |
| \\      /  F ield         | OpenFOAM: The Open Source CFD Toolbox           |
|  \\    /   O peration     | Version:  2312                                  |
|   \\  /    A nd           | Website:  www.openfoam.com                      |
|    \\/     M anipulation  |                                                 |
\*---------------------------------------------------------------------------*/
FoamFile
{
    version     2.0;
    format      ascii;
    arch        "LSB;label=32;scalar=64";
    class       volScalarField;
    location    "1.125";
    object      enstrophyField;
}
// * * * * * * * * * * * * * * * * * * * * * * * * * * * * * * * * * * * * * //

dimensions      [0 0 -2 0 0 0 0];

internalField   nonuniform List<scalar> 
400
(
0.0191231
0.119212
0.397605
0.912038
1.70493
2.76562
4.05294
5.49472
6.97531
8.34049
9.4187
9.86173
9.5847
8.4747
6.66546
4.5318
2.5694
1.15678
0.340635
0.0510745
0.124035
0.0810784
0.0613048
0.0513122
0.0502315
0.0548542
0.0623005
0.0697586
0.074517
0.0746904
0.071307
0.0683893
0.0608253
0.0606964
0.0682057
0.0875664
0.121838
0.170392
0.212512
0.304688
0.405849
0.0653621
0.0318291
0.0172903
0.0102304
0.00669578
0.00472691
0.00340041
0.00233208
0.0014736
0.000941816
0.000806078
0.00116677
0.00301882
0.00877141
0.0227913
0.0490934
0.0913122
0.174502
0.983959
0.913149
0.0536285
0.0193229
0.00875319
0.00390835
0.00160041
0.000524925
8.59562e-05
3.26186e-06
9.91735e-05
0.000187851
0.000118823
1.01446e-06
0.000684803
0.00432679
0.0143688
0.0311814
0.0577244
0.166787
2.15308
1.69454
0.0491174
0.0129121
0.00514725
0.00194981
0.000559395
6.28765e-05
1.78464e-05
0.000176179
0.000361444
0.000429773
0.000274453
1.74749e-08
0.00150702
0.0118603
0.0453589
0.101389
0.120061
0.218991
3.6109
2.7455
0.0499192
0.0095795
0.00338854
0.00117736
0.000284999
1.36932e-05
3.94137e-05
0.000196135
0.000414383
0.000576722
0.000301898
0.000532176
0.0185685
0.152931
0.695753
1.7934
2.25293
1.29472
4.71291
4.03466
0.0547012
0.00785786
0.00243565
0.000804262
0.000193704
1.03528e-05
3.12914e-05
0.000230281
0.000769387
0.00143194
0.000318209
0.0104934
0.188976
1.20575
4.39456
10.6804
18.0304
14.053
6.81784
5.51336
0.0628305
0.00704728
0.00187073
0.000581169
0.000142839
7.12614e-06
5.74601e-05
0.00058614
0.00245806
0.00461104
9.92871e-05
0.068227
0.488121
0.972964
2.359
11.2193
37.3028
58.3347
22.8418
7.12005
0.0740716
0.00681277
0.00150501
0.000409453
8.37034e-05
4.1359e-07
0.000250983
0.0019256
0.00673459
0.0107519
0.00332692
0.011435
0.785842
5.99347
9.91163
1.22934
14.9431
96.827
98.688
8.78562
0.0883389
0.00699789
0.00124674
0.000253724
1.95858e-05
6.32909e-05
0.000939438
0.00495512
0.0130143
0.0195009
0.117551
2.31253
19.9703
66.877
101.911
74.492
8.61519
52.0644
283.451
10.4424
0.105534
0.00755279
0.00104867
0.000116754
5.78961e-06
0.000342474
0.00239223
0.00989433
0.0238824
0.0495875
0.685901
10.6504
59.4606
150.451
214.863
208.39
119.721
0.0161354
526.708
12.0493
0.125249
0.00841416
0.000873569
2.20921e-05
0.000115457
0.000902627
0.00436774
0.0161021
0.0425303
0.115037
1.38979
15.3026
75.6162
175.855
223.925
213.64
209.35
56.0028
718.244
13.59
0.147245
0.00932197
0.00064175
1.2683e-05
0.000429357
0.00168474
0.00628148
0.0217851
0.0638146
0.184995
1.33516
11.5707
58.7238
137.712
164.119
130.185
152.867
143.525
807.272
15.2176
0.165838
0.00935004
0.0002384
0.000315328
0.0012227
0.00277633
0.00767265
0.0242146
0.0736305
0.212473
0.929361
6.20319
29.546
72.2967
93.0163
77.3371
89.7652
173.674
824.091
16.864
0.187967
0.00734688
0.000104601
0.00220117
0.00384853
0.00528933
0.00943368
0.0237123
0.0691385
0.203726
0.657256
2.95701
11.6348
28.2037
39.9177
42.7173
62.653
194.301
792.882
19.9596
0.146905
0.000391318
0.00671886
0.0151576
0.016787
0.0171287
0.0204386
0.0336437
0.0746969
0.192811
0.522517
1.5536
4.52417
10.6278
17.4551
24.417
50.1691
224.59
715.908
19.5764
0.177566
0.0074444
0.0754992
0.126315
0.158933
0.183989
0.208019
0.244515
0.320176
0.484183
0.844062
1.57491
3.16072
6.43133
11.3424
19.1195
53.0334
252.296
618.28
42.6885
0.109278
1.16249
1.99782
2.95982
4.18388
5.33101
6.25858
6.97418
7.55011
8.16077
9.07026
10.4984
12.9094
17.1589
25.4535
39.1203
87.2814
278.648
358.036
1.33258
29.2674
40.5126
59.0849
79.5284
95.1952
106.956
116.362
123.727
128.975
132.342
134.63
137.112
141.312
149.618
166.359
194.904
269.909
464.952
54.3562
16250.5
19891.7
19080
18148.1
17474.4
16962.7
16529.5
16139.7
15776.3
15427.6
15087.1
14752.7
14433.3
14140.2
13930.4
13751.5
14054
13417.4
18799.9
10598.4
)
;

boundaryField
{
    movingWall
    {
        type            calculated;
        value           nonuniform List<scalar> 
20
(
67509.4
72125.4
68020.2
64183.3
61446.4
59332.6
57510.9
55871.1
54367.8
52965.4
51639.8
50377.6
49197.6
48111.8
47298.8
46508
47404.6
44669.9
64521.3
28615.9
)
;
    }
    fixedWalls
    {
        type            calculated;
        value           nonuniform List<scalar> 
60
(
0.0177105
0.208133
0.99894
2.64584
5.29857
8.92022
13.3731
18.4604
23.9459
29.576
35.1181
40.4666
45.5629
51.1977
56.6083
69.6865
66.6305
172.992
3.73657
12720.9
0.0479066
0.500602
2.26738
5.44029
8.99926
9.96978
8.03149
15.6361
79.1171
426.243
1378.42
2812.69
4247.17
5074.86
5404.2
5496.56
5555.3
4940.09
1410.38
6705.42
0.0177176
0.20288
0.991355
2.63234
5.24965
8.7887
13.1101
17.9871
23.0562
27.8195
31.6249
33.193
32.4347
28.4875
22.0538
14.4726
7.6229
2.92836
0.597971
0.0505847
)
;
    }
    frontAndBack
    {
        type            empty;
    }
}


// ************************************************************************* //
