/*--------------------------------*- C++ -*----------------------------------*\
| =========                 |                                                 |
| \\      /  F ield         | OpenFOAM: The Open Source CFD Toolbox           |
|  \\    /   O peration     | Version:  2312                                  |
|   \\  /    A nd           | Website:  www.openfoam.com                      |
|    \\/     M anipulation  |                                                 |
\*---------------------------------------------------------------------------*/
FoamFile
{
    version     2.0;
    format      ascii;
    arch        "LSB;label=32;scalar=64";
    class       surfaceScalarField;
    location    "1.125";
    object      fluxField;
}
// * * * * * * * * * * * * * * * * * * * * * * * * * * * * * * * * * * * * * //

dimensions      [0 3 -1 0 0 0 0];

oriented        oriented;

internalField   nonuniform List<scalar> 
760
(
-4.00272e-08
4.02937e-08
-1.19432e-07
8.5941e-08
-2.27523e-07
1.12575e-07
-3.44993e-07
1.23486e-07
-4.65004e-07
1.25995e-07
-5.83284e-07
1.24174e-07
-6.96878e-07
1.19306e-07
-8.02426e-07
1.11078e-07
-8.95558e-07
9.80661e-08
-9.70122e-07
7.80033e-08
-1.01548e-06
4.90127e-08
-1.02478e-06
1.22204e-08
-9.89149e-07
-3.6546e-08
-9.00528e-07
-9.13447e-08
-7.62094e-07
-1.45681e-07
-5.84661e-07
-1.88988e-07
-3.89937e-07
-2.09036e-07
-2.04208e-07
-1.95706e-07
-6.77013e-08
-1.4457e-07
-6.56821e-08
-8.47362e-08
1.1956e-07
-1.92033e-07
1.93771e-07
-3.17507e-07
2.33313e-07
-4.50583e-07
2.51481e-07
-5.86421e-07
2.56996e-07
-7.21309e-07
2.54547e-07
-8.51557e-07
2.45439e-07
-9.72685e-07
2.28679e-07
-1.07906e-06
2.01626e-07
-1.16345e-06
1.60612e-07
-1.21658e-06
1.02255e-07
-1.22872e-06
2.50389e-08
-1.19068e-06
-7.12229e-08
-1.09623e-06
-1.80776e-07
-9.46362e-07
-2.89749e-07
-7.52188e-07
-3.77308e-07
-5.35631e-07
-4.20286e-07
-3.20817e-07
-4.03863e-07
-1.36438e-07
-3.26343e-07
-1.87669e-07
-1.12899e-07
2.27445e-07
-2.3136e-07
3.16966e-07
-3.59737e-07
3.6124e-07
-4.93927e-07
3.83919e-07
-6.31235e-07
3.92643e-07
-7.69264e-07
3.91089e-07
-9.04935e-07
3.79771e-07
-1.03404e-06
3.56692e-07
-1.15103e-06
3.17858e-07
-1.24854e-06
2.57921e-07
-1.31696e-06
1.71445e-07
-1.34491e-06
5.4474e-08
-1.32014e-06
-9.37138e-08
-1.23202e-06
-2.65973e-07
-1.07703e-06
-4.42431e-07
-8.65285e-07
-5.88627e-07
-6.22955e-07
-6.64675e-07
-3.80227e-07
-6.48404e-07
-1.67677e-07
-5.43795e-07
-3.43775e-07
-1.25594e-07
3.45907e-07
-2.50318e-07
4.46887e-07
-3.81092e-07
4.92939e-07
-5.16478e-07
5.1871e-07
-6.55417e-07
5.31063e-07
-7.97046e-07
5.32388e-07
-9.39733e-07
5.22186e-07
-1.08053e-06
4.97317e-07
-1.2148e-06
4.52165e-07
-1.33543e-06
3.78979e-07
-1.43191e-06
2.68877e-07
-1.48965e-06
1.13581e-07
-1.48983e-06
-9.15809e-08
-1.41178e-06
-3.41333e-07
-1.24194e-06
-6.10764e-07
-9.884e-07
-8.4465e-07
-6.8975e-07
-9.69932e-07
-3.98115e-07
-9.43372e-07
-1.62794e-07
-7.8199e-07
-4.92211e-07
-1.29189e-07
4.679e-07
-2.56815e-07
5.79978e-07
-3.89587e-07
6.27151e-07
-5.2689e-07
6.55777e-07
-6.68878e-07
6.72844e-07
-8.16279e-07
6.79816e-07
-9.69371e-07
6.7535e-07
-1.12721e-06
6.55255e-07
-1.28696e-06
6.12129e-07
-1.44247e-06
5.35013e-07
-1.58242e-06
4.0972e-07
-1.6882e-06
2.20743e-07
-1.73125e-06
-4.55636e-08
-1.67289e-06
-3.92689e-07
-1.47847e-06
-7.9793e-07
-1.14762e-06
-1.17482e-06
-7.40282e-07
-1.38405e-06
-3.61281e-07
-1.3197e-06
-1.10691e-07
-1.02083e-06
-5.86139e-07
-1.27798e-07
5.88648e-07
-2.55561e-07
7.13062e-07
-3.8906e-07
7.6206e-07
-5.27872e-07
7.94222e-07
-6.73194e-07
8.17683e-07
-8.27388e-07
8.33745e-07
-9.93076e-07
8.40792e-07
-1.17218e-06
8.34072e-07
-1.36493e-06
8.04655e-07
-1.56777e-06
7.37945e-07
-1.77041e-06
6.12977e-07
-1.95242e-06
4.04502e-07
-2.07619e-06
8.40302e-08
-2.07814e-06
-3.74831e-07
-1.88242e-06
-9.63017e-07
-1.45665e-06
-1.56911e-06
-8.65662e-07
-1.95853e-06
-2.95249e-07
-1.88441e-06
5.12559e-09
-1.30735e-06
-5.78319e-07
-1.23263e-07
7.05079e-07
-2.4865e-07
8.43583e-07
-3.80851e-07
8.95666e-07
-5.19454e-07
9.32464e-07
-6.66629e-07
9.64226e-07
-8.26434e-07
9.93049e-07
-1.00421e-06
1.01799e-06
-1.20567e-06
1.03474e-06
-1.43592e-06
1.03392e-06
-1.69707e-06
9.98302e-07
-1.98565e-06
9.01435e-07
-2.29035e-06
7.1096e-07
-2.5808e-06
3.84807e-07
-2.77969e-06
-1.39649e-07
-2.75321e-06
-9.27154e-07
-2.36663e-06
-1.9137e-06
-1.58525e-06
-2.72328e-06
-5.88282e-07
-2.83042e-06
5.48047e-08
-1.9483e-06
-5.78466e-07
-1.16269e-07
8.14861e-07
-2.36783e-07
9.68987e-07
-3.64987e-07
1.02527e-06
-5.00349e-07
1.06756e-06
-6.45857e-07
1.10908e-06
-8.07132e-07
1.15372e-06
-9.92297e-07
1.20236e-06
-1.21147e-06
1.25262e-06
-1.47646e-06
1.29685e-06
-1.79942e-06
1.31944e-06
-2.19526e-06
1.29723e-06
-2.69048e-06
1.20638e-06
-3.29927e-06
9.98503e-07
-3.94103e-06
5.04717e-07
-4.36003e-06
-5.44535e-07
-4.21343e-06
-2.12453e-06
-3.34566e-06
-3.65807e-06
-1.87058e-06
-4.30406e-06
-3.86978e-07
-3.3569e-06
-8.99236e-07
-1.07179e-07
9.16077e-07
-2.20292e-07
1.08673e-06
-3.41245e-07
1.14761e-06
-4.69122e-07
1.19531e-06
-6.07315e-07
1.24671e-06
-7.62461e-07
1.30831e-06
-9.4479e-07
1.38388e-06
-1.16831e-06
1.47448e-06
-1.45205e-06
1.57716e-06
-1.82052e-06
1.68511e-06
-2.31757e-06
1.79452e-06
-3.03826e-06
1.91001e-06
-4.04957e-06
1.94579e-06
-5.14049e-06
1.51175e-06
-5.86694e-06
1.06573e-07
-5.94656e-06
-2.1695e-06
-5.24731e-06
-4.50923e-06
-3.67236e-06
-6.0285e-06
-1.41299e-06
-5.60139e-06
-2.19361e-06
-9.65088e-08
1.00731e-06
-1.99874e-07
1.19445e-06
-3.10077e-07
1.25923e-06
-4.25383e-07
1.3107e-06
-5.48868e-07
1.36985e-06
-6.87114e-07
1.44629e-06
-8.50769e-07
1.54716e-06
-1.05515e-06
1.67776e-06
-1.32249e-06
1.84167e-06
-1.68143e-06
2.04552e-06
-2.19055e-06
2.31268e-06
-2.97358e-06
2.67501e-06
-4.06334e-06
2.94977e-06
-5.1693e-06
2.50882e-06
-5.90222e-06
7.80469e-07
-6.14875e-06
-1.9379e-06
-5.88028e-06
-4.79575e-06
-4.7859e-06
-7.19949e-06
-2.63956e-06
-8.08278e-06
-4.81399e-06
-8.52638e-08
1.08832e-06
-1.77156e-07
1.29048e-06
-2.73428e-07
1.35698e-06
-3.70968e-07
1.40857e-06
-4.71722e-07
1.47058e-06
-5.80909e-07
1.55573e-06
-7.07388e-07
1.67418e-06
-8.63857e-07
1.83482e-06
-1.06827e-06
2.04672e-06
-1.34088e-06
2.32633e-06
-1.71846e-06
2.7125e-06
-2.28508e-06
3.24252e-06
-3.05414e-06
3.63462e-06
-3.78245e-06
3.18795e-06
-4.1827e-06
1.31305e-06
-4.36032e-06
-1.51656e-06
-4.54934e-06
-4.43288e-06
-4.37335e-06
-7.19409e-06
-3.02528e-06
-9.64672e-06
-7.97813e-06
-7.51381e-08
1.15978e-06
-1.55084e-07
1.3744e-06
-2.35257e-07
1.43863e-06
-3.1071e-07
1.48456e-06
-3.81726e-07
1.5419e-06
-4.51246e-07
1.626e-06
-5.24707e-07
1.74905e-06
-6.09143e-07
1.92161e-06
-7.12469e-07
2.15436e-06
-8.37509e-07
2.4638e-06
-9.80946e-07
2.8836e-06
-1.15037e-06
3.43569e-06
-1.39655e-06
3.83042e-06
-1.60918e-06
3.41993e-06
-1.62983e-06
1.58257e-06
-1.66591e-06
-1.2277e-06
-2.06537e-06
-3.92701e-06
-2.67622e-06
-6.3759e-06
-2.40751e-06
-9.66187e-06
-1.06444e-05
-6.89114e-08
1.22735e-06
-1.3834e-07
1.44835e-06
-2.01611e-07
1.50368e-06
-2.52259e-07
1.53597e-06
-2.88948e-07
1.57909e-06
-3.12274e-07
1.65032e-06
-3.23984e-07
1.76251e-06
-3.25123e-07
1.92548e-06
-3.13428e-07
2.14754e-06
-2.76646e-07
2.4375e-06
-1.81497e-07
2.80933e-06
5.73759e-09
3.26075e-06
2.40493e-07
3.57225e-06
4.57163e-07
3.17613e-06
5.92681e-07
1.55644e-06
4.77935e-07
-1.00839e-06
-1.18627e-10
-3.44749e-06
-8.95983e-07
-5.5229e-06
-1.40497e-06
-8.74299e-06
-1.22586e-05
-6.98732e-08
1.29094e-06
-1.32245e-07
1.51407e-06
-1.79611e-07
1.55202e-06
-2.0451e-07
1.56106e-06
-2.05187e-07
1.57982e-06
-1.80873e-07
1.62647e-06
-1.30679e-07
1.71325e-06
-5.19427e-08
1.84794e-06
6.33894e-08
2.03429e-06
2.33599e-07
2.27202e-06
4.98125e-07
2.55368e-06
9.00889e-07
2.85291e-06
1.41462e-06
3.01731e-06
1.87694e-06
2.62624e-06
2.09499e-06
1.33772e-06
1.85969e-06
-7.11939e-07
1.19089e-06
-2.80927e-06
2.11413e-07
-4.72197e-06
-6.29203e-07
-7.67466e-06
-1.29157e-05
-8.43459e-08
1.38806e-06
-1.45197e-07
1.58412e-06
-1.76967e-07
1.58538e-06
-1.7557e-07
1.55898e-06
-1.40489e-07
1.54447e-06
-7.12474e-08
1.55718e-06
3.42984e-08
1.60788e-06
1.80914e-07
1.70185e-06
3.76978e-07
1.83849e-06
6.37576e-07
2.01092e-06
9.89997e-07
2.19915e-06
1.46535e-06
2.36145e-06
2.04321e-06
2.38862e-06
2.55698e-06
2.02806e-06
2.77373e-06
1.06362e-06
2.51627e-06
-4.33901e-07
1.79784e-06
-2.10219e-06
8.01181e-07
-3.86e-06
-2.17211e-07
-6.59647e-06
-1.3128e-05
-1.16705e-07
1.43249e-06
-1.79064e-07
1.60393e-06
-1.95799e-07
1.57317e-06
-1.66971e-07
1.51502e-06
-9.76558e-08
1.46679e-06
1.16324e-08
1.44456e-06
1.6321e-07
1.45632e-06
3.61923e-07
1.50491e-06
6.1482e-07
1.58817e-06
9.311e-07
1.69646e-06
1.32116e-06
1.80781e-06
1.79424e-06
1.88049e-06
2.32193e-06
1.8353e-06
2.77089e-06
1.54102e-06
2.95617e-06
8.64079e-07
2.72792e-06
-1.9101e-07
2.08571e-06
-1.45846e-06
1.19093e-06
-3.06561e-06
6.23702e-08
-5.53951e-06
-1.32841e-05
-1.88243e-07
1.84519e-06
-2.52278e-07
1.87374e-06
-2.31523e-07
1.70512e-06
-1.63116e-07
1.54312e-06
-5.85661e-08
1.42599e-06
8.40504e-08
1.34782e-06
2.72566e-07
1.30459e-06
5.10915e-07
1.29641e-06
8.04162e-07
1.31938e-06
1.15567e-06
1.36445e-06
1.56399e-06
1.41384e-06
2.01893e-06
1.43495e-06
2.48414e-06
1.37403e-06
2.86426e-06
1.16211e-06
3.02588e-06
7.24177e-07
2.82483e-06
1.89376e-08
2.34317e-06
-8.95813e-07
1.58879e-06
-2.35525e-06
3.59148e-07
-4.4764e-06
-1.33989e-05
-2.64044e-07
1.59237e-06
-2.81183e-07
1.34538e-06
-1.86897e-07
1.19504e-06
-6.09625e-08
1.14037e-06
9.54364e-08
1.07595e-06
2.90906e-07
1.00609e-06
5.26863e-07
9.53651e-07
8.06788e-07
9.25295e-07
1.13519e-06
9.16824e-07
1.51463e-06
9.2276e-07
1.94033e-06
9.34304e-07
2.39343e-06
9.34085e-07
2.83526e-06
8.93095e-07
3.19014e-06
7.72763e-07
3.3665e-06
5.40542e-07
3.18303e-06
1.34298e-07
2.95665e-06
-4.12151e-07
2.097e-06
-1.55241e-06
7.54348e-07
-3.02581e-06
-1.23567e-05
-3.68448e-07
2.76598e-06
-2.41252e-07
2.01252e-06
1.58406e-07
1.36462e-06
5.87229e-07
1.07226e-06
1.02968e-06
8.99924e-07
1.46407e-06
7.74726e-07
1.886e-06
6.86218e-07
2.30314e-06
6.2502e-07
2.72635e-06
5.81351e-07
3.16465e-06
5.49609e-07
3.62111e-06
5.25522e-07
4.08595e-06
5.02705e-07
4.53625e-06
4.71748e-07
4.91199e-06
4.16564e-07
5.18798e-06
3.26204e-07
5.10727e-06
1.61771e-07
5.15252e-06
-4.71279e-08
3.45377e-06
-6.2486e-07
2.5353e-06
-9.80867e-07
-8.10389e-06
2.58429e-06
3.76657e-06
4.948e-06
5.9139e-06
6.68454e-06
7.35328e-06
7.96687e-06
8.53987e-06
9.08097e-06
9.59841e-06
1.00977e-05
1.05765e-05
1.10279e-05
1.14137e-05
1.17462e-05
1.17523e-05
1.21057e-05
9.451e-06
1.25985e-05
)
;

boundaryField
{
    movingWall
    {
        type            calculated;
        value           uniform 0;
    }
    fixedWalls
    {
        type            calculated;
        value           uniform 0;
    }
    frontAndBack
    {
        type            empty;
        value           nonuniform List<scalar> 0();
    }
}


// ************************************************************************* //
