/*--------------------------------*- C++ -*----------------------------------*\
| =========                 |                                                 |
| \\      /  F ield         | OpenFOAM: The Open Source CFD Toolbox           |
|  \\    /   O peration     | Version:  2312                                  |
|   \\  /    A nd           | Website:  www.openfoam.com                      |
|    \\/     M anipulation  |                                                 |
\*---------------------------------------------------------------------------*/
FoamFile
{
    version     2.0;
    format      ascii;
    arch        "LSB;label=32;scalar=64";
    class       volVectorField;
    location    "1.125";
    object      LambVectorField;
}
// * * * * * * * * * * * * * * * * * * * * * * * * * * * * * * * * * * * * * //

dimensions      [0 1 -2 0 0 0 0];

internalField   nonuniform List<vector> 
400
(
(-4.42335e-05 -4.42019e-05 -9.99051e-09)
(-0.000367271 -0.000671429 0)
(-0.00097721 -0.00303389 -1.03219e-05)
(-0.00165345 -0.00769661 0)
(-0.00230055 -0.0149592 -0.000121184)
(-0.00287596 -0.0246925 0)
(-0.00334435 -0.0365344 -0.000468817)
(-0.00364552 -0.0498677 0)
(-0.00366612 -0.0636981 -0.00108632)
(-0.00322322 -0.0766536 0)
(-0.00217189 -0.0869634 -0.00174246)
(-0.000764102 -0.0914088 0)
(0.00153978 -0.0893558 -0.00182365)
(0.00379513 -0.0788691 -0)
(0.0054706 -0.0615731 -0.00103837)
(0.00591392 -0.0410034 -0)
(0.00493422 -0.02214 -0.000216235)
(0.00301969 -0.00886887 -0)
(0.0010723 -0.00192937 -4.50996e-06)
(0.000127677 -0.000118422 -0)
(-0.000690102 -0.000374196 -2.81134e-07)
(-0.00108141 -0.00106235 0)
(-0.00119304 -0.0017659 -8.90573e-06)
(-0.00119016 -0.00245296 0)
(-0.00120253 -0.00328567 -3.40599e-05)
(-0.00124013 -0.0043359 0)
(-0.00126991 -0.00556373 -8.76942e-05)
(-0.00124883 -0.00683561 0)
(-0.00113541 -0.00795528 -0.000163934)
(-0.000900906 -0.00871759 0)
(-0.000551395 -0.00905681 -0.000217205)
(-0.000117151 -0.00912784 0)
(0.000387204 -0.00853402 -0.00020881)
(0.000951854 -0.008069 -0)
(0.00159884 -0.00764165 -0.000158106)
(0.0023415 -0.00718311 -0)
(0.00305304 -0.00637932 -8.24407e-05)
(0.00341093 -0.00496325 -0)
(0.00292306 -0.00282327 -1.22264e-05)
(0.00173908 -0.00087971 -0)
(-0.00306037 -0.00102314 -1.16192e-06)
(-0.00183142 -0.00122219 0)
(-0.001495 -0.00148206 -8.7057e-06)
(-0.00117974 -0.00158352 0)
(-0.000927749 -0.00160802 -1.80769e-05)
(-0.000744991 -0.001621 0)
(-0.000604773 -0.00162986 -2.7321e-05)
(-0.000478616 -0.00160272 0)
(-0.000349938 -0.0014975 -3.28359e-05)
(-0.00022223 -0.00130911 0)
(-0.000114149 -0.00112093 -2.89505e-05)
(-2.74955e-05 -0.00107811 0)
(8.39939e-05 -0.00130165 -3.50734e-05)
(0.000349589 -0.00200938 -0)
(0.000961718 -0.00310204 -7.26516e-05)
(0.00202766 -0.00419754 -0)
(0.00332984 -0.00468483 -7.00423e-05)
(0.0044066 -0.00425949 -0)
(0.00506291 -0.00309664 -1.62318e-05)
(0.00740543 -0.0020556 -0)
(-0.0077043 -0.00175483 -2.27869e-06)
(-0.00249336 -0.00122002 0)
(-0.00167574 -0.00123603 -7.77153e-06)
(-0.00119248 -0.00118501 0)
(-0.000815145 -0.00103468 -1.21088e-05)
(-0.000520825 -0.000821126 0)
(-0.000290669 -0.000562751 -9.77393e-06)
(-0.000110975 -0.000265131 0)
(1.93871e-05 5.87457e-05 1.35115e-06)
(8.76462e-05 0.000360427 0)
(8.19457e-05 0.000539337 1.50072e-05)
(2.30338e-05 0.000454013 0)
(2.86275e-06 -4.29241e-05 -1.29351e-06)
(0.000227224 -0.0010902 -0)
(0.000970826 -0.00251284 -6.78785e-05)
(0.00238142 -0.00384221 -0)
(0.00398571 -0.00421311 -7.10793e-05)
(0.00530889 -0.00364208 -0)
(0.0076132 -0.00300654 -1.56509e-05)
(0.0175806 -0.00271043 -0)
(-0.0149767 -0.00245852 -3.28328e-06)
(-0.00321643 -0.00120107 0)
(-0.00179876 -0.00103498 -6.66584e-06)
(-0.00119073 -0.00092766 0)
(-0.00075078 -0.000745157 -8.8917e-06)
(-0.00040438 -0.000495787 0)
(-0.000133632 -0.00019993 -3.56449e-06)
(6.82792e-05 0.00012514 0)
(0.000197027 0.000453179 1.09407e-05)
(0.000240255 0.000734971 0)
(0.00019137 0.000890172 2.70279e-05)
(7.14355e-05 0.00077161 0)
(3.09109e-07 -6.46723e-06 -2.23725e-07)
(0.000412492 -0.00190265 -0)
(0.00215533 -0.00496834 -0.000160273)
(0.005945 -0.00809605 -0)
(0.0102837 -0.00856707 -0.000162987)
(0.0108345 -0.00518759 -0)
(0.0119772 -0.00255773 -9.8851e-06)
(0.0301423 -0.0015126 -0)
(-0.0247935 -0.0030707 -4.02393e-06)
(-0.00408771 -0.00120116 0)
(-0.00192297 -0.000888765 -5.70673e-06)
(-0.0011933 -0.000752551 0)
(-0.000722595 -0.000581016 -6.95676e-06)
(-0.000360577 -0.000357029 0)
(-7.90079e-05 -9.49366e-05 -1.72227e-06)
(0.000131237 0.000191614 0)
(0.000277063 0.000501191 1.26827e-05)
(0.000358837 0.000843267 0)
(0.000334917 0.00113498 3.79299e-05)
(0.000142044 0.000918946 0)
(5.51675e-06 -0.00132779 -5.404e-05)
(0.00157908 -0.00816092 -0)
(0.00991221 -0.0225519 -0.000919607)
(0.0321503 -0.04072 -0)
(0.061599 -0.0449726 -0.00106793)
(0.0651198 -0.0230955 -0)
(0.036585 -0.0014961 -1.39098e-06)
(0.0375454 0.00348388 0)
(-0.0368298 -0.00355295 -4.44386e-06)
(-0.00515509 -0.00121712 0)
(-0.00207972 -0.00078555 -4.92244e-06)
(-0.0012056 -0.000625906 0)
(-0.000714546 -0.00047367 -5.5942e-06)
(-0.000359147 -0.000292383 0)
(-8.4337e-05 -8.28275e-05 -1.50767e-06)
(0.000146996 0.00017377 0)
(0.000390526 0.000563578 1.48001e-05)
(0.000668946 0.00122294 0)
(0.00078441 0.00196439 7.21066e-05)
(0.000262349 0.00107769 0)
(-0.000511429 -0.00708328 -0.000346334)
(0.00417996 -0.0334054 -0)
(0.0319863 -0.0882823 -0.00501885)
(0.105274 -0.157952 -0)
(0.211752 -0.191281 -0.00791649)
(0.268418 -0.132252 -0)
(0.156705 -0.00799397 -1.20539e-05)
(0.0402632 0.013663 0)
(-0.0505997 -0.00387232 -4.51563e-06)
(-0.00643668 -0.00123526 0)
(-0.00228382 -0.00071074 -4.25496e-06)
(-0.00122488 -0.000526825 0)
(-0.000707527 -0.0003887 -4.43162e-06)
(-0.000362972 -0.00024395 0)
(-8.37542e-05 -6.73957e-05 -1.20316e-06)
(0.000244507 0.000234124 0)
(0.000792944 0.000911394 2.42604e-05)
(0.00160416 0.00227448 0)
(0.00205505 0.00379685 0.000150117)
(0.000254199 0.000680243 0)
(-0.00438178 -0.0219224 -0.00130102)
(-0.00119869 -0.0717564 0)
(0.0230007 -0.118596 -0.0100827)
(0.0891392 -0.194151 -0)
(0.298973 -0.374944 -0.029678)
(0.591823 -0.47224 -0)
(0.522498 -0.217644 -0.00438544)
(0.0826963 0.0315678 0)
(-0.0654967 -0.00400607 -4.25286e-06)
(-0.00792949 -0.0012415 0)
(-0.00254161 -0.000652061 -3.6425e-06)
(-0.00124415 -0.000442402 0)
(-0.000675651 -0.000306232 -3.27705e-06)
(-0.000319244 -0.000175853 0)
(2.35641e-05 1.53769e-05 2.59977e-07)
(0.000611563 0.00046791 0)
(0.00178197 0.00160407 4.14617e-05)
(0.00346995 0.00374099 0)
(0.00447102 0.0059517 0.00024156)
(0.00246477 0.00425116 0)
(0.0042462 0.0104974 0.000728671)
(0.023789 0.11605 0)
(-0.0183257 0.391408 0.0442491)
(-0.195648 0.54152 -0)
(-0.130471 0.18226 0.0211852)
(0.566607 -0.512002 -0)
(1.19542 -0.740863 -0.0394423)
(0.333446 -0.0460986 -0)
(-0.0808455 -0.00395657 -3.73453e-06)
(-0.00961186 -0.00122588 0)
(-0.00285474 -0.000600804 -3.05118e-06)
(-0.00125512 -0.000365752 0)
(-0.000591501 -0.000218299 -2.11547e-06)
(-0.000173108 -7.67571e-05 0)
(0.000331292 0.000171244 2.60643e-06)
(0.00137332 0.000815348 0)
(0.00342174 0.00232907 5.44909e-05)
(0.00605096 0.00475996 0)
(0.00815454 0.00745589 0.000281486)
(0.0223934 0.0241798 0)
(0.107 0.148552 0.0102612)
(0.262238 0.590646 0)
(0.110517 1.31049 0.148496)
(-0.611572 1.75282 -0)
(-1.18594 1.50346 0.185187)
(-0.570738 0.465058 -0)
(1.40976 -0.810218 -0.0643307)
(1.52406 -0.623412 -0)
(-0.0959966 -0.00377354 -3.1159e-06)
(-0.0114444 -0.00118753 0)
(-0.00322483 -0.000553243 -2.49036e-06)
(-0.00124991 -0.000294734 0)
(-0.000436058 -0.000128406 -1.07899e-06)
(0.000102741 3.56136e-05 0)
(0.000849013 0.000334222 4.26817e-06)
(0.00245051 0.00107386 0)
(0.00552768 0.00267688 5.0939e-05)
(0.00968513 0.00518004 0)
(0.0161289 0.00942668 0.000282174)
(0.0712304 0.0454498 0)
(0.314934 0.242756 0.0127685)
(0.641856 0.758638 0)
(0.375775 1.41774 0.115873)
(-0.718886 1.774 -0)
(-1.93267 1.81359 0.161111)
(-2.32858 1.44121 -0)
(0.033262 -0.0146939 -0.0012019)
(4.17226 -1.27279 -0)
(-0.110586 -0.00357103 -2.59771e-06)
(-0.0133677 -0.00114018 0)
(-0.00363755 -0.000509203 -1.99876e-06)
(-0.00121426 -0.000229266 0)
(-0.000201324 -4.61536e-05 -3.20462e-07)
(0.000486817 0.000126516 0)
(0.00146698 0.000413164 4.01768e-06)
(0.00354839 0.00105279 0)
(0.00764014 0.00235116 3.0804e-05)
(0.0142146 0.0044906 0)
(0.0274768 0.00868338 0.000157197)
(0.114845 0.0352358 0)
(0.426794 0.137641 0.0034245)
(0.844353 0.381008 0)
(0.57873 0.6261 0.0209024)
(-0.549873 0.673143 -0)
(-1.70837 0.719919 0.0250733)
(-2.80904 0.977826 -0)
(-2.12417 0.627181 0.0371678)
(7.223 -1.40381 -0)
(-0.124414 -0.00354641 -2.41242e-06)
(-0.0153397 -0.0011267 0)
(-0.00402864 -0.000472079 -1.63215e-06)
(-0.00108669 -0.000165052 0)
(0.000158089 2.76164e-05 1.51429e-07)
(0.000967142 0.00017801 0)
(0.00205692 0.00037245 2.38977e-06)
(0.00435996 0.000733372 0)
(0.0091009 0.00134882 8.71594e-06)
(0.0177961 0.00217039 0)
(0.035316 0.00303561 1.51495e-05)
(0.112007 0.00370827 0)
(0.365935 -0.0120205 3.00368e-05)
(0.738427 -0.0771717 0)
(0.538431 -0.185303 0.00206901)
(-0.418953 -0.227221 0)
(-1.20106 -0.106106 0.000697731)
(-2.059 0.115062 -0)
(-3.14732 0.495719 0.0145042)
(9.45063 -1.08248 -0)
(-0.139188 -0.00403032 -2.94436e-06)
(-0.0170856 -0.0011889 0)
(-0.00419035 -0.000441072 -1.42265e-06)
(-0.000679233 -8.64481e-05 0)
(0.00079796 0.000106011 4.47515e-07)
(0.00163233 0.000197117 0)
(0.00261292 0.000242091 7.86516e-07)
(0.00472219 0.000245068 0)
(0.00930909 2.18693e-05 2.17327e-09)
(0.0182994 -0.00101115 0)
(0.0354057 -0.00437345 2.93415e-05)
(0.0843731 -0.018018 0)
(0.23536 -0.0803767 0.00183416)
(0.452833 -0.259559 0)
(0.358504 -0.496765 0.0205224)
(-0.23475 -0.579501 0)
(-0.78931 -0.396737 0.012656)
(-1.38223 -0.210836 0)
(-3.05569 0.135658 0.000987428)
(10.3583 -0.726266 -0)
(-0.153365 -0.00552528 -5.25671e-06)
(-0.0189432 -0.00148528 0)
(-0.00381087 -0.000410375 -1.3893e-06)
(0.000453237 5.34181e-05 0)
(0.00208459 0.000220919 7.35568e-07)
(0.00281181 0.000200906 0)
(0.00344193 5.7589e-05 3.22451e-08)
(0.00491706 -0.000265357 0)
(0.00850847 -0.00115521 6.12806e-06)
(0.0160622 -0.00363468 0)
(0.0305333 -0.0100399 0.000157913)
(0.0598824 -0.0273689 0)
(0.13101 -0.0844902 0.00293542)
(0.222581 -0.226652 0)
(0.17796 -0.415281 0.0229623)
(-0.100666 -0.497289 0)
(-0.452035 -0.415894 0.0187132)
(-0.959539 -0.301326 0)
(-2.81956 -0.101103 0.000518533)
(10.4127 -0.550224 -0)
(-0.183951 -0.00949601 -1.42722e-05)
(-0.0175996 -0.00171568 0)
(-0.000894579 -0.000111828 -4.47014e-07)
(0.00359627 0.000444514 0)
(0.00528621 0.000495213 1.40849e-06)
(0.00554048 0.000194596 0)
(0.00571003 -0.000282688 4.31754e-07)
(0.00652575 -0.00101112 0)
(0.00894123 -0.00245802 2.32919e-05)
(0.0143947 -0.00584291 0)
(0.0249213 -0.0137406 0.000304039)
(0.0431685 -0.0314033 0)
(0.073458 -0.0723607 0.00297044)
(0.105223 -0.155897 0)
(0.0869058 -0.272053 0.0160535)
(-0.0359804 -0.350008 0)
(-0.24586 -0.348557 0.0173855)
(-0.68797 -0.336067 0)
(-2.56082 -0.29856 0.00420583)
(9.97591 -0.438644 -0)
(-0.176359 -0.015952 -4.06678e-05)
(-0.0188838 -0.00296794 0)
(0.00377649 0.000623612 3.18713e-06)
(0.0114933 0.0016127 0)
(0.0142295 0.00119345 2.83379e-06)
(0.0155297 -1.79314e-05 0)
(0.0166227 -0.00202015 6.72751e-06)
(0.0180085 -0.0048843 0)
(0.0203201 -0.008996 0.000115726)
(0.0244997 -0.0154461 0)
(0.0316675 -0.0264951 0.000713366)
(0.042865 -0.0462998 0)
(0.0563294 -0.080082 0.00361349)
(0.0670304 -0.136381 0)
(0.0563545 -0.216361 0.0130524)
(-0.00738625 -0.289144 0)
(-0.14319 -0.323319 0.0169047)
(-0.555558 -0.426803 0)
(-2.2632 -0.496658 0.0109811)
(9.41446 -0.272316 -0)
(-0.421553 -0.0388285 -0.000163166)
(0.0202248 0.00297308 0)
(0.0568058 0.00745287 3.64282e-05)
(0.0642602 0.00517329 0)
(0.0698987 -0.000363871 5.44187e-08)
(0.0762744 -0.0106102 0)
(0.0809175 -0.0260188 0.000207326)
(0.0846862 -0.0463691 0)
(0.0885793 -0.0715778 0.00137181)
(0.0931137 -0.101974 0)
(0.0984677 -0.138745 0.0047649)
(0.103951 -0.184296 0)
(0.106409 -0.240416 0.0126139)
(0.100732 -0.309667 0)
(0.0776433 -0.390516 0.0260327)
(0.0164696 -0.485157 0)
(-0.11213 -0.524738 0.0311293)
(-0.532007 -0.778763 0)
(-1.84853 -0.588704 0.0146808)
(7.1778 0.140122 0)
(0.0295031 0.00990084 6.00458e-05)
(0.0807436 0.066357 0)
(0.0949335 0.0087932 8.58982e-06)
(0.146397 -0.0794977 0)
(0.180461 -0.204009 0.00330005)
(0.191459 -0.345107 0)
(0.195471 -0.490716 0.0164643)
(0.199468 -0.63902 0)
(0.203796 -0.790264 0.0397006)
(0.207963 -0.944647 0)
(0.211481 -1.10254 0.074718)
(0.212612 -1.26475 0)
(0.207024 -1.43014 0.123511)
(0.186375 -1.59855 0)
(0.144749 -1.75393 0.177835)
(0.0558818 -1.93581 0)
(-0.075209 -1.93811 0.190253)
(-0.507202 -2.5078 0)
(-1.30298 -0.921359 0.0278381)
(-2.35675 -0.742346 0)
(16.688 -7.34618 0.299347)
(13.9515 -12.4906 0)
(8.60274 -17.1982 1.51413)
(5.6056 -20.9339 0)
(4.05449 -23.6815 2.99987)
(3.15209 -25.9164 0)
(2.56075 -27.8959 4.27994)
(2.14258 -29.6895 0)
(1.82936 -31.3243 5.52389)
(1.58721 -32.8291 0)
(1.39347 -34.2278 6.74433)
(1.22839 -35.5334 0)
(1.08198 -36.7317 7.94115)
(0.937758 -37.8249 0)
(0.781234 -38.6616 8.95494)
(0.565054 -39.5075 0)
(0.322597 -38.8732 9.01333)
(-0.51834 -41.3404 0)
(0.677486 -24.3696 3.06269)
(-14.2856 -55.0719 0)
)
;

boundaryField
{
    movingWall
    {
        type            calculated;
        value           nonuniform List<vector> 
20
(
(0 -367.449 0)
(0 -379.804 0)
(0 -368.836 0)
(0 -358.283 0)
(0 -350.561 0)
(0 -344.478 0)
(0 -339.149 0)
(0 -334.279 0)
(0 -329.751 0)
(0 -325.47 0)
(0 -321.371 0)
(0 -317.419 0)
(0 -313.68 0)
(0 -310.199 0)
(0 -307.567 0)
(0 -304.985 0)
(0 -307.911 0)
(0 -298.898 0)
(0 -359.225 0)
(0 -239.232 0)
)
;
    }
    fixedWalls
    {
        type            calculated;
        value           uniform (-0 0 0);
    }
    frontAndBack
    {
        type            empty;
    }
}


// ************************************************************************* //
