/*--------------------------------*- C++ -*----------------------------------*\
| =========                 |                                                 |
| \\      /  F ield         | OpenFOAM: The Open Source CFD Toolbox           |
|  \\    /   O peration     | Version:  2312                                  |
|   \\  /    A nd           | Website:  www.openfoam.com                      |
|    \\/     M anipulation  |                                                 |
\*---------------------------------------------------------------------------*/
FoamFile
{
    version     2.0;
    format      ascii;
    arch        "LSB;label=32;scalar=64";
    class       volScalarField;
    location    "1.125";
    object      Lambda2Field;
}
// * * * * * * * * * * * * * * * * * * * * * * * * * * * * * * * * * * * * * //

dimensions      [0 0 -2 0 0 0 0];

internalField   nonuniform List<scalar> 
400
(
0.0160733
0.0650528
0.146833
0.192681
0.230142
0.221925
0.241147
0.213913
0.255315
0.262916
0.304346
0.360666
0.511198
0.590792
0.697214
0.666198
0.608359
0.416006
0.192078
0.0435901
0.0776032
0.143663
0.226293
0.250949
0.292806
0.278277
0.28634
0.249226
0.229982
0.187339
0.16181
0.162396
0.220949
0.338708
0.539059
0.677295
0.761915
0.622669
0.43894
0.160489
0.157294
0.196939
0.247779
0.273344
0.298187
0.302046
0.301168
0.283155
0.258046
0.227166
0.205423
0.2188
0.298026
0.460039
0.690595
0.899437
0.971638
0.897081
0.678664
0.351479
0.22496
0.235861
0.265701
0.286333
0.307182
0.321472
0.332681
0.337277
0.338089
0.340994
0.362601
0.430466
0.577941
0.825552
1.15161
1.42553
1.49061
1.34354
0.98428
0.509719
0.263991
0.257827
0.280074
0.299063
0.321613
0.348098
0.380109
0.417934
0.465729
0.533551
0.641879
0.826413
1.13494
1.60316
2.22601
2.79148
2.81673
2.25817
1.44256
0.774191
0.280416
0.265625
0.287846
0.308418
0.336985
0.37904
0.439146
0.522912
0.642214
0.8168
1.08055
1.508
2.22051
3.37758
4.97784
6.21817
6.34159
3.98265
1.87207
1.47006
0.283524
0.262282
0.286932
0.312257
0.349557
0.409785
0.503345
0.645174
0.861111
1.19582
1.73899
2.69253
4.51821
7.64935
12.0591
15.2654
14.8507
7.15108
0.121585
0.970521
0.27877
0.249598
0.275628
0.305707
0.352068
0.431121
0.561112
0.769993
1.10671
1.66866
2.69477
4.82007
9.37292
17.4113
25.8484
30.9076
32.3751
24.1822
6.10138
-1.40711
0.267575
0.228644
0.252844
0.284795
0.337341
0.432135
0.596045
0.872238
1.34155
2.19134
3.95854
7.95948
15.4216
22.9102
25.387
23.3099
32.4578
40.8436
34.3297
-1.27441
0.247999
0.200573
0.218812
0.247356
0.300648
0.404152
0.5929
0.924514
1.5168
2.65063
5.06428
10.4767
16.4703
6.62267
0
-37.3366
0
18.8181
52.5447
36.9963
0.215406
0.166836
0.175638
0.194423
0.242098
0.344363
0.543192
0.908178
1.58289
2.85098
5.45392
10.0244
8.4538
-20.5895
0
-102.45
0
-56.9076
33.176
108.395
0.16174
0.128442
0.127163
0.13204
0.167731
0.262775
0.461038
0.831484
1.51289
2.78459
5.1845
7.50873
0.804172
-34.5692
0
-109.674
0
-91.146
0
127.897
0.0743284
0.0869503
0.0783906
0.0696081
0.0939409
0.182977
0.380278
0.748772
1.4023
2.5554
4.62723
6.5782
0.679945
-27.2435
0
-78.1789
0
-57.7519
0
98.1476
0
0.0421107
0.036918
0.0202657
0.0409831
0.133136
0.337568
0.706899
1.33146
2.32542
4.0139
5.84663
3.2471
-9.91274
0
-38.4043
0
-17.3649
0
59.1906
0
0.00145656
0.0127505
6.00097e-06
0.0295198
0.136559
0.357188
0.732145
1.32331
2.17953
3.37937
4.65096
4.22672
0
0
-10.7661
0
-0.00762136
0
25.8092
0
-0.010882
0.0100907
0.0186759
0.069363
0.202177
0.44694
0.823775
1.39001
2.12021
2.99238
3.75868
3.70283
1.54495
0
-1.68757
2.03591
0
0
6.51531
0
0
0
0
0.0272095
0.100051
0.464834
0.814871
1.5105
2.09749
2.93575
3.11697
2.73984
0.835909
0
-2.66772
0
-10.4233
0.616631
26.607
0
0
0
0
0
0
0.0499646
0.593414
1.66553
2.32552
3.04085
2.64225
1.21961
-1.55547
0
-11.0901
0
-31.8148
10.2126
261.959
9.62846
0
0.148027
0
2.45516
0
1.30131
0
2.54163
0.584866
3.31076
1.28631
0.168541
-3.99895
0
-18.9872
0
-16.4919
0
959.3
3300.05
-585.016
0
-364.537
0
-92.3621
0
-43.491
0
-24.1058
0
-16.3144
0
-15.4351
0
0
0
0
0
1606.74
)
;

boundaryField
{
    movingWall
    {
        type            calculated;
        value           nonuniform List<scalar> 
20
(
5547.14
0
0
0
0
0
0
0
0
0
0
0
0
0
0
0
0
0
0
2870.43
)
;
    }
    fixedWalls
    {
        type            calculated;
        value           nonuniform List<scalar> 
60
(
0
0.0386212
0.131536
0.145345
0.279313
0.200129
0.323918
0.236051
0.334224
0.270782
0.290914
0.191014
0.0710612
-0.00774131
0
0
0
0
31.3262
6855.41
0
0.100378
0.304345
0.488348
1.11835
1.06037
1.03731
0
0
17.6447
180.748
90.9743
275.518
0
73.935
0
182.396
738.225
3537.45
2161.66
0.00819131
0.041395
0.122665
0.171734
0.230562
0.226884
0.269429
0.248152
0.350182
0.389487
0.527166
0.573123
0.913305
0.953811
1.00769
0.712889
0.606745
0.316973
0.149485
0.000328071
)
;
    }
    frontAndBack
    {
        type            empty;
    }
}


// ************************************************************************* //
