/*--------------------------------*- C++ -*----------------------------------*\
| =========                 |                                                 |
| \\      /  F ield         | OpenFOAM: The Open Source CFD Toolbox           |
|  \\    /   O peration     | Version:  2312                                  |
|   \\  /    A nd           | Website:  www.openfoam.com                      |
|    \\/     M anipulation  |                                                 |
\*---------------------------------------------------------------------------*/
FoamFile
{
    version     2.0;
    format      ascii;
    arch        "LSB;label=32;scalar=64";
    class       volScalarField;
    location    "1.125";
    object      magSqrU;
}
// * * * * * * * * * * * * * * * * * * * * * * * * * * * * * * * * * * * * * //

dimensions      [0 2 -2 0 0 0 0];

internalField   nonuniform List<scalar> 
400
(
1.02243e-07
2.45656e-06
1.27758e-05
3.39743e-05
6.71785e-05
0.000111728
0.000166046
0.000227499
0.000291807
0.000352867
0.00040172
0.000423666
0.000416645
0.000367845
0.00028664
0.000189356
0.000100126
3.79395e-05
7.15181e-06
2.96871e-07
2.48424e-06
1.41716e-05
3.70423e-05
7.24338e-05
0.000121853
0.000185382
0.000261376
0.000346087
0.000433294
0.000514175
0.000577292
0.000609242
0.00059991
0.000543811
0.000446818
0.000325922
0.000205259
0.000106426
3.8857e-05
6.23308e-06
1.28283e-05
3.70845e-05
6.96144e-05
0.00011276
0.000168442
0.000237662
0.00031968
0.000411387
0.000507053
0.00059825
0.000673968
0.000721447
0.000729079
0.000688982
0.000601246
0.000476732
0.000336455
0.000205676
0.000100922
3.00144e-05
3.4187e-05
7.18392e-05
0.000112195
0.000161441
0.000221964
0.000295395
0.000382128
0.000480536
0.000586616
0.000693681
0.000792118
0.000869604
0.000912148
0.000905499
0.000838598
0.000711047
0.000539363
0.000359025
0.000200855
7.34816e-05
6.79672e-05
0.000119998
0.000166771
0.000221321
0.000286933
0.000365867
0.000459866
0.000569359
0.000693017
0.000827107
0.000964495
0.00109397
0.00119945
0.00125753
0.00123648
0.00111212
0.000883469
0.000600937
0.000342471
0.000126124
0.000113668
0.000181815
0.000234236
0.000293682
0.000365107
0.000451731
0.000557036
0.000684267
0.000836045
0.00101339
0.00121407
0.001432
0.00165646
0.00186053
0.00198403
0.00193442
0.00162178
0.00105951
0.000517757
0.00015084
0.000169662
0.000256451
0.000314483
0.000378796
0.000456903
0.000553615
0.00067485
0.000827769
0.00102078
0.00126273
0.00156225
0.00193307
0.00240315
0.00299878
0.00365619
0.00409954
0.00381197
0.00248301
0.000875989
0.000132579
0.000233554
0.000341846
0.000405901
0.000475183
0.000560664
0.000669496
0.000810885
0.000997192
0.00124492
0.00157576
0.00202116
0.00265567
0.00366271
0.00527575
0.00749976
0.00967368
0.0102487
0.00768394
0.00274599
0.00017151
0.000302376
0.000434837
0.000505297
0.000579279
0.000671972
0.000793523
0.000957126
0.00118125
0.00149263
0.00193297
0.00257688
0.0036291
0.00560674
0.00892895
0.0128086
0.0167239
0.0204344
0.0195136
0.0102136
0.000574087
0.000372862
0.000531423
0.000608077
0.000685426
0.000783386
0.000915407
0.00109873
0.00135762
0.00172881
0.00227716
0.00313029
0.00461983
0.00724676
0.0104563
0.0129312
0.0169089
0.0246123
0.0314573
0.0253905
0.00478282
0.000441928
0.000627213
0.00070872
0.000786312
0.000884917
0.00102114
0.00121546
0.00149613
0.00190619
0.0025256
0.00351909
0.00520443
0.0074229
0.00830391
0.00714918
0.00852609
0.0168539
0.0313201
0.0409741
0.0180629
0.000507999
0.000718547
0.000801688
0.000873989
0.000965534
0.00109563
0.00128665
0.00156825
0.0019842
0.00261248
0.00360917
0.00519175
0.00657074
0.00567405
0.00206684
0.00168691
0.00804345
0.0211293
0.0437966
0.0376908
0.000569962
0.000803337
0.000882475
0.000941276
0.00101533
0.00112616
0.00129684
0.00155593
0.00194274
0.00251832
0.00339586
0.00470333
0.0057928
0.00469341
0.00117726
0.000692034
0.00558363
0.0139099
0.0353644
0.0560444
0.00063708
0.000884393
0.000949383
0.000983284
0.00102747
0.00110548
0.00124012
0.00145707
0.0017894
0.00228091
0.00299496
0.00400461
0.00498571
0.00461024
0.00259556
0.0021014
0.00504551
0.0108895
0.0269344
0.0654191
0.000698272
0.000960411
0.000999823
0.000995582
0.000998175
0.00103242
0.0011202
0.00128518
0.00155465
0.00196133
0.00253548
0.00329778
0.00410925
0.00433672
0.00361881
0.0032245
0.00441628
0.00807234
0.0204841
0.0685642
0.000849918
0.00106426
0.00103851
0.000977159
0.000929875
0.000915432
0.000954079
0.0010668
0.00127791
0.0016155
0.00210018
0.00272689
0.00342178
0.00390966
0.00383735
0.00354624
0.00372567
0.00584269
0.0147979
0.0696396
0.000800886
0.00102893
0.000984012
0.000892043
0.000807125
0.000758722
0.000761988
0.000836856
0.00100983
0.00130993
0.00176051
0.00235829
0.00304339
0.0036531
0.00388627
0.00368789
0.00326992
0.00462731
0.0106398
0.0717363
0.00209909
0.00191201
0.00141182
0.00104017
0.000825382
0.000708716
0.000677602
0.000744726
0.000929836
0.00126283
0.00177349
0.002468
0.00329205
0.00410711
0.00461952
0.00462901
0.00367998
0.00509561
0.0067534
0.0719765
0.000363378
0.000186604
0.000112184
0.000234848
0.000466409
0.000818085
0.00130433
0.00192561
0.00269161
0.00362709
0.0047616
0.00610852
0.00761478
0.00916449
0.0103505
0.0112723
0.00965071
0.0121269
0.00273862
0.0561606
0.0102292
0.00881425
0.00969038
0.0129394
0.0165171
0.020091
0.0237376
0.0274496
0.0312037
0.0350109
0.0388902
0.0428442
0.0467802
0.0506218
0.0536715
0.0567633
0.0537651
0.0636972
0.0158069
0.152712
)
;

boundaryField
{
    movingWall
    {
        type            calculated;
        value           uniform 1;
    }
    fixedWalls
    {
        type            calculated;
        value           uniform 0;
    }
    frontAndBack
    {
        type            empty;
    }
}


// ************************************************************************* //
