/*--------------------------------*- C++ -*----------------------------------*\
| =========                 |                                                 |
| \\      /  F ield         | OpenFOAM: The Open Source CFD Toolbox           |
|  \\    /   O peration     | Version:  2312                                  |
|   \\  /    A nd           | Website:  www.openfoam.com                      |
|    \\/     M anipulation  |                                                 |
\*---------------------------------------------------------------------------*/
FoamFile
{
    version     2.0;
    format      ascii;
    arch        "LSB;label=32;scalar=64";
    class       volScalarField;
    location    "1.125";
    object      magU;
}
// * * * * * * * * * * * * * * * * * * * * * * * * * * * * * * * * * * * * * //

dimensions      [0 1 -1 0 0 0 0];

internalField   nonuniform List<scalar> 
400
(
0.000319755
0.00156734
0.00357433
0.00582875
0.00819625
0.0105701
0.0128859
0.0150831
0.0170824
0.0187848
0.020043
0.0205831
0.0204119
0.0191793
0.0169305
0.0137607
0.0100063
0.0061595
0.00267429
0.000544859
0.00157615
0.00376452
0.00608624
0.00851081
0.0110387
0.0136155
0.0161671
0.0186034
0.0208157
0.0226754
0.0240269
0.0246828
0.0244931
0.0233198
0.0211381
0.0180533
0.0143268
0.0103163
0.00623354
0.00249661
0.00358166
0.0060897
0.00834353
0.0106188
0.0129785
0.0154163
0.0178796
0.0202827
0.0225178
0.0244591
0.0259609
0.0268598
0.0270015
0.0262485
0.0245203
0.0218342
0.0183427
0.0143414
0.010046
0.00547854
0.00584697
0.0084758
0.0105922
0.012706
0.0148985
0.0171871
0.0195481
0.0219211
0.0242201
0.0263378
0.0281446
0.029489
0.0302018
0.0300915
0.0289586
0.0266655
0.0232242
0.018948
0.0141723
0.00857214
0.00824422
0.0109544
0.012914
0.0148768
0.0169391
0.0191276
0.0214445
0.0238612
0.0263252
0.0287595
0.0310563
0.0330752
0.0346331
0.0354616
0.0351636
0.0333485
0.0297232
0.024514
0.018506
0.0112305
0.0106615
0.0134839
0.0153048
0.0171371
0.0191078
0.021254
0.0236016
0.0261585
0.0289144
0.0318338
0.0348435
0.0378418
0.0406996
0.0431338
0.0445424
0.043982
0.0402713
0.0325501
0.0227543
0.0122817
0.0130254
0.0160141
0.0177337
0.0194627
0.0213753
0.023529
0.0259779
0.028771
0.0319496
0.0355349
0.0395253
0.0439667
0.0490219
0.0547611
0.0604665
0.0640276
0.0617411
0.0498298
0.0295971
0.0115143
0.0152825
0.0184891
0.020147
0.0217987
0.0236784
0.0258746
0.028476
0.0315784
0.0352835
0.0396958
0.0449573
0.0515332
0.0605203
0.0726344
0.0866011
0.0983549
0.101236
0.0876581
0.0524022
0.0130962
0.017389
0.0208527
0.0224788
0.0240682
0.0259224
0.0281695
0.0309375
0.0343694
0.0386346
0.0439656
0.050763
0.060242
0.0748782
0.0944931
0.113175
0.129321
0.142949
0.139691
0.101062
0.0239601
0.0193096
0.0230526
0.0246592
0.0261806
0.027989
0.0302557
0.0331471
0.0368459
0.0415789
0.0477196
0.055949
0.0679693
0.0851279
0.102256
0.113715
0.130034
0.156883
0.177362
0.159344
0.0691579
0.0210221
0.0250442
0.0266218
0.0280412
0.0297476
0.0319553
0.0348635
0.0386799
0.04366
0.0502553
0.0593219
0.0721417
0.0861562
0.0911258
0.0845528
0.0923368
0.129822
0.176975
0.202421
0.134398
0.0225388
0.0268057
0.0283141
0.0295633
0.031073
0.0331004
0.0358699
0.0396012
0.0445444
0.0511125
0.0600764
0.0720538
0.0810601
0.0753263
0.0454625
0.041072
0.0896853
0.145359
0.209276
0.194141
0.0238739
0.0283432
0.0297065
0.0306802
0.0318642
0.0335584
0.0360116
0.0394453
0.0440766
0.0501828
0.058274
0.0685808
0.0761104
0.0685084
0.0343112
0.0263065
0.0747237
0.11794
0.188054
0.236737
0.0252405
0.0297387
0.0308121
0.0313574
0.0320541
0.0332488
0.0352153
0.0381716
0.0423013
0.0477589
0.0547262
0.063282
0.0706095
0.0678988
0.0509466
0.0458411
0.0710317
0.104353
0.164117
0.255772
0.0264248
0.0309905
0.03162
0.0315528
0.0315939
0.0321313
0.0334694
0.0358494
0.039429
0.0442869
0.0503535
0.0574263
0.0641034
0.0658538
0.0601566
0.0567847
0.0664551
0.0898462
0.143123
0.261848
0.0291533
0.0326229
0.032226
0.0312595
0.0304939
0.0302561
0.0308882
0.0326619
0.0357479
0.0401933
0.0458277
0.0522196
0.0584959
0.0625273
0.0619464
0.0595503
0.0610383
0.0764375
0.121647
0.263893
0.0282999
0.032077
0.031369
0.0298671
0.0284099
0.0275449
0.0276041
0.0289285
0.0317778
0.036193
0.0419585
0.0485622
0.0551669
0.0604408
0.0623399
0.060728
0.0571832
0.0680244
0.103149
0.267836
0.0458159
0.0437266
0.0375742
0.0322516
0.0287295
0.0266217
0.0260308
0.0272897
0.0304932
0.0355363
0.0421128
0.049679
0.0573764
0.0640868
0.0679671
0.0680368
0.0606628
0.0713835
0.0821791
0.268284
0.0190625
0.0136603
0.0105917
0.0153247
0.0215965
0.0286022
0.0361155
0.0438817
0.0518808
0.0602254
0.0690043
0.078157
0.0872627
0.0957313
0.101737
0.106171
0.098238
0.110122
0.0523318
0.236982
0.101139
0.0938842
0.0984397
0.113751
0.128519
0.141743
0.15407
0.165679
0.176646
0.187112
0.197206
0.206988
0.216287
0.224993
0.231671
0.23825
0.231873
0.252383
0.125725
0.390783
)
;

boundaryField
{
    movingWall
    {
        type            calculated;
        value           uniform 1;
    }
    fixedWalls
    {
        type            calculated;
        value           uniform 0;
    }
    frontAndBack
    {
        type            empty;
    }
}


// ************************************************************************* //
