/*--------------------------------*- C++ -*----------------------------------*\
| =========                 |                                                 |
| \\      /  F ield         | OpenFOAM: The Open Source CFD Toolbox           |
|  \\    /   O peration     | Version:  2312                                  |
|   \\  /    A nd           | Website:  www.openfoam.com                      |
|    \\/     M anipulation  |                                                 |
\*---------------------------------------------------------------------------*/
FoamFile
{
    version     2.0;
    format      ascii;
    arch        "LSB;label=32;scalar=64";
    class       volScalarField;
    location    "1.125";
    object      pzeroGrad;
}
// * * * * * * * * * * * * * * * * * * * * * * * * * * * * * * * * * * * * * //

dimensions      [0 2 -2 0 0 0 0];

internalField   nonuniform List<scalar> 
400
(
6.54231e-09
0
6.67052e-06
3.39521e-05
7.93793e-05
0.000144322
0.000230149
0.00033836
0.000470414
0.000626857
0.000807215
0.00101115
0.00123217
0.00145529
0.00166312
0.00183316
0.00194742
0.00200187
0.0020086
0.00198562
3.41325e-06
0
9.93443e-06
3.9491e-05
8.627e-05
0.000151193
0.000235655
0.000341171
0.000469156
0.000620523
0.000795674
0.000993707
0.00120747
0.00142579
0.001631
0.00180155
0.00191947
0.00197862
0.00198843
0.00196421
0
0
0
1.41882e-05
6.10379e-05
0.000125072
0.000207541
0.000310114
0.000434601
0.000582702
0.000755764
0.000953506
0.00117113
0.00139841
0.00161679
0.00180057
0.00192536
0.00198106
0.00198024
0.00194498
0
0
0
0
0
5.78881e-05
0.000136623
0.000235252
0.000356368
0.000503068
0.000678488
0.000884277
0.00111835
0.00137268
0.00162572
0.00183911
0.0019711
0.0020066
0.00197444
0.00191844
0
0
0
0
0
0
2.12117e-05
0.000112879
0.000228213
0.000372217
0.000550779
0.000768917
0.00102918
0.00133057
0.00164759
0.00191548
0.00205563
0.00204861
0.00195596
0.00186926
0
0
0
0
0
0
0
0
4.34084e-05
0.000177292
0.000352425
0.000580263
0.000872295
0.00123941
0.00166108
0.00202557
0.002174
0.00208355
0.00189631
0.00176815
0
0
0
0
0
0
0
0
0
0
5.4515e-05
0.000276093
0.000586498
0.00100887
0.00157216
0.00208441
0.00225701
0.00202398
0.00171513
0.00154413
0
0
0
0
0
0
0
0
0
0
0
0
3.56052e-05
0.000408391
0.000889928
0.00138569
0.00174363
0.00173372
0.00143825
0.00120682
0
0
0
0
0
0
0
0
0
0
0
0
0
0
0
0
0
0.000328797
0.0011046
0.00119748
0
0
0
0
0
0
0
0
0
0
0
0
0
0
0
0
0
0
0
0.00109197
0
0
0
0
0
0
0
0
0
0
0
0
0
0
0
0
0
0
0
0
0
0
0
0
0
0
0
0
0
0
0
0
0
0
0
0
0
0
0
0
0
0
0
0
0
0
0
0
0
0
0
0
0
0
0
0
0
0
0
0
0
0
0
0
0
0
0
0
0
0
0
0
0
0
0
0
0
0
0
0
0
0
0
0
0
0
0
0
0
0
0
0
0
0
0
0
0
0
0
0
0
0
0
0
0
0
0
0
0
0
0
0
0
0
0
0
0
0
0
0
0
0
0
0
0
0
0
0
0
0
0
0
0
0
0
0
0
0
0
0
0
0
0
0
0
0
0
0
0
0
0
0
0
0
0
0
0
0
0
0
0
0
0
0
0
0
0
0
0
0
0
0
0
0
0
0
0
0
0.00101157
0.013964
0
0.00143041
0.00062138
0
0
0
0
0
0
0
0
0
0
0
0
0
0
0.00180223
0.00371646
0.0566524
)
;

boundaryField
{
    movingWall
    {
        type            zeroGradient;
    }
    fixedWalls
    {
        type            zeroGradient;
    }
    frontAndBack
    {
        type            empty;
    }
}


// ************************************************************************* //
