/*--------------------------------*- C++ -*----------------------------------*\
| =========                 |                                                 |
| \\      /  F ield         | OpenFOAM: The Open Source CFD Toolbox           |
|  \\    /   O peration     | Version:  2312                                  |
|   \\  /    A nd           | Website:  www.openfoam.com                      |
|    \\/     M anipulation  |                                                 |
\*---------------------------------------------------------------------------*/
FoamFile
{
    version     2.0;
    format      ascii;
    arch        "LSB;label=32;scalar=64";
    class       volScalarField;
    location    "1.125";
    object      QField;
}
// * * * * * * * * * * * * * * * * * * * * * * * * * * * * * * * * * * * * * //

dimensions      [0 0 -2 0 0 0 0];

internalField   nonuniform List<scalar> 
400
(
-0.0162439
-0.0742842
-0.154825
-0.21206
-0.24219
-0.251789
-0.252054
-0.251976
-0.263069
-0.29188
-0.307226
-0.387505
-0.511733
-0.614734
-0.714195
-0.74534
-0.656012
-0.455802
-0.210013
-0.0457121
-0.0704375
-0.144578
-0.216939
-0.261636
-0.283809
-0.288264
-0.278606
-0.256747
-0.225588
-0.190716
-0.161899
-0.163608
-0.220388
-0.350893
-0.533187
-0.697178
-0.744811
-0.645071
-0.431253
-0.19282
-0.148575
-0.206013
-0.246854
-0.277067
-0.296754
-0.305331
-0.301785
-0.285491
-0.258493
-0.227541
-0.206735
-0.221576
-0.302683
-0.467985
-0.694632
-0.901054
-0.979715
-0.90412
-0.69547
-0.393986
-0.211443
-0.246516
-0.267638
-0.287617
-0.306377
-0.32222
-0.333039
-0.337664
-0.338167
-0.341994
-0.364881
-0.434053
-0.583872
-0.835348
-1.15636
-1.43741
-1.52287
-1.35916
-0.995328
-0.58205
-0.249972
-0.269443
-0.283146
-0.29958
-0.321142
-0.348164
-0.380283
-0.418183
-0.466323
-0.535084
-0.644682
-0.831456
-1.14757
-1.63869
-2.2649
-2.79605
-2.86209
-2.27444
-1.42342
-0.881887
-0.266824
-0.277098
-0.29088
-0.309232
-0.337517
-0.379693
-0.439789
-0.523721
-0.642848
-0.81709
-1.08308
-1.5166
-2.25516
-3.49466
-5.2042
-6.54092
-6.19757
-4.03421
-1.81183
-1.49115
-0.270822
-0.273333
-0.289938
-0.313055
-0.350652
-0.411061
-0.504984
-0.647707
-0.864655
-1.19929
-1.73903
-2.70411
-4.60485
-8.05339
-12.6863
-15.9673
-14.6522
-7.97072
-0.0996227
-1.43051
-0.267396
-0.25997
-0.278543
-0.306288
-0.353328
-0.432701
-0.56349
-0.774549
-1.11508
-1.67808
-2.6945
-4.82176
-9.43036
-17.4551
-26.311
-32.3629
-33.5474
-24.22
-4.32116
2.24517
-0.257935
-0.238186
-0.255608
-0.285049
-0.338457
-0.4336
-0.59855
-0.878436
-1.35647
-2.20793
-3.96045
-8.15208
-16.4216
-24.5301
-25.3714
-25.9595
-35.8043
-45.0001
-33.7919
4.56405
-0.24031
-0.209186
-0.221415
-0.247508
-0.301288
-0.404838
-0.594014
-0.928771
-1.52847
-2.66022
-5.14537
-10.7108
-16.7169
-8.39764
18.5105
37.557
24.7062
-20.2918
-64.2285
-38.0215
-0.209903
-0.1746
-0.178046
-0.195008
-0.242069
-0.344953
-0.544752
-0.91046
-1.58557
-2.90648
-5.65794
-10.0358
-7.56172
21.1842
71.3519
104.626
101.212
58.1544
-38.1498
-119.103
-0.157535
-0.135381
-0.129185
-0.132823
-0.168226
-0.26433
-0.464757
-0.84006
-1.5318
-2.86785
-5.41776
-7.78089
-0.647385
34.7085
87.8308
111.204
102.956
94.1966
27.9348
-150.736
-0.0728777
-0.0942088
-0.0803086
-0.0704144
-0.0945537
-0.184679
-0.384235
-0.758248
-1.42046
-2.62285
-4.76026
-6.71048
-0.776119
27.4014
68.1132
79.0028
59.4782
58.493
53.567
-116.9
0.0777621
-0.0468397
-0.0376707
-0.0203419
-0.0409837
-0.133802
-0.338903
-0.710935
-1.33455
-2.35454
-4.02422
-5.89762
-3.60098
10.685
32.8267
39.1007
26.1915
21.1112
37.8951
-61.6121
0.311558
-0.0128242
-0.0135577
-2.11537e-05
-0.0296712
-0.136611
-0.356932
-0.733954
-1.32257
-2.18252
-3.39216
-4.79473
-4.70283
0.533186
9.20875
11.0157
5.25748
3.02272
19.9853
-26.2102
0.901139
0.0534567
-0.0216712
-0.0276639
-0.0786494
-0.20829
-0.446887
-0.830265
-1.38827
-2.13088
-3.00051
-3.82181
-3.91948
-1.84217
1.47579
1.8429
-2.05169
1.06559
14.0204
-23.1938
0.373101
-0.188117
0.0250204
0.0636615
-0.00739668
-0.1778
-0.481801
-0.929297
-1.52241
-2.21468
-2.86396
-3.18776
-2.71057
-0.843451
1.79735
2.72938
0.612387
11.1295
2.28045
-61.3494
4.19268
-0.164121
-0.310067
0.165813
0.196245
-0.0826201
-0.590117
-1.29715
-2.1247
-2.94059
-3.44786
-3.15405
-1.51012
1.86064
6.67485
11.4387
17.781
32.5964
-12.6873
-286.143
-19.7861
6.54898
-1.6231
-4.69879
-1.76287
-0.314293
-0.641353
-1.38107
-2.07219
-2.68681
-2.99923
-2.39489
0.0271207
4.63738
12.2878
20.6933
43.2164
50.067
175.662
-1175.07
-3308.29
906.326
749.401
404.243
217.517
131.193
87.3218
62.1331
46.2109
35.3902
28.5033
24.5275
23.3264
25.7843
34.423
45.618
110.008
-52.2794
1800.51
-3100.79
)
;

boundaryField
{
    movingWall
    {
        type            calculated;
        value           nonuniform List<scalar> 
20
(
-6618.44
1687.28
1395
750.309
403.279
243.058
161.853
115.454
86.2839
66.5681
54.1219
46.9861
44.7785
48.8861
64.1772
83.9525
200.822
-60.3826
3303.34
-4331.23
)
;
    }
    fixedWalls
    {
        type            calculated;
        value           nonuniform List<scalar> 
60
(
-0.0057294
-0.0448717
-0.121675
-0.200552
-0.256795
-0.289024
-0.307834
-0.320121
-0.326222
-0.319755
-0.288894
-0.214258
-0.0705696
0.199314
0.668076
1.75415
1.3597
8.11503
-43.8823
-7457.29
-0.0150107
-0.122392
-0.328151
-0.616037
-1.17972
-2.09948
-1.54122
5.81372
22.4962
-17.7707
-142.712
-251.582
-249.738
-152.735
-70.5566
-66.9395
-181.641
-855.726
-3857.15
-10990.3
-0.00564046
-0.0477265
-0.125276
-0.195907
-0.239677
-0.261316
-0.276708
-0.301914
-0.358077
-0.45535
-0.530928
-0.70409
-0.913043
-1.00936
-1.03513
-0.927219
-0.686318
-0.385298
-0.135473
-0.0180973
)
;
    }
    frontAndBack
    {
        type            empty;
    }
}


// ************************************************************************* //
