/*--------------------------------*- C++ -*----------------------------------*\
| =========                 |                                                 |
| \\      /  F ield         | OpenFOAM: The Open Source CFD Toolbox           |
|  \\    /   O peration     | Version:  2312                                  |
|   \\  /    A nd           | Website:  www.openfoam.com                      |
|    \\/     M anipulation  |                                                 |
\*---------------------------------------------------------------------------*/
FoamFile
{
    version     2.0;
    format      ascii;
    arch        "LSB;label=32;scalar=64";
    class       volScalarField;
    location    "1.125";
    object      staticP;
}
// * * * * * * * * * * * * * * * * * * * * * * * * * * * * * * * * * * * * * //

dimensions      [1 -1 -2 0 0 0 0];

internalField   nonuniform List<scalar> 
400
(
1
1
1.00001
1.00003
1.00008
1.00014
1.00023
1.00034
1.00047
1.00063
1.00081
1.00101
1.00123
1.00146
1.00166
1.00183
1.00195
1.002
1.00201
1.00199
1
1
1.00001
1.00004
1.00009
1.00015
1.00024
1.00034
1.00047
1.00062
1.0008
1.00099
1.00121
1.00143
1.00163
1.0018
1.00192
1.00198
1.00199
1.00196
1
1
1
1.00001
1.00006
1.00013
1.00021
1.00031
1.00043
1.00058
1.00076
1.00095
1.00117
1.0014
1.00162
1.0018
1.00193
1.00198
1.00198
1.00194
1
1
1
1
1
1.00006
1.00014
1.00024
1.00036
1.0005
1.00068
1.00088
1.00112
1.00137
1.00163
1.00184
1.00197
1.00201
1.00197
1.00192
1
1
1
1
1
1
1.00002
1.00011
1.00023
1.00037
1.00055
1.00077
1.00103
1.00133
1.00165
1.00192
1.00206
1.00205
1.00196
1.00187
1
1
1
1
1
1
1
1
1.00004
1.00018
1.00035
1.00058
1.00087
1.00124
1.00166
1.00203
1.00217
1.00208
1.0019
1.00177
1
1
1
1
1
1
1
1
1
1
1.00005
1.00028
1.00059
1.00101
1.00157
1.00208
1.00226
1.00202
1.00172
1.00154
1
1
1
1
1
1
1
1
1
1
1
1
1.00004
1.00041
1.00089
1.00139
1.00174
1.00173
1.00144
1.00121
1
1
1
1
1
1
1
1
1
1
1
1
1
1
1
1
1
1.00033
1.0011
1.0012
1
1
1
1
1
1
1
1
1
1
1
1
1
1
1
1
1
1
1
1.00109
1
1
1
1
1
1
1
1
1
1
1
1
1
1
1
1
1
1
1
1
1
1
1
1
1
1
1
1
1
1
1
1
1
1
1
1
1
1
1
1
1
1
1
1
1
1
1
1
1
1
1
1
1
1
1
1
1
1
1
1
1
1
1
1
1
1
1
1
1
1
1
1
1
1
1
1
1
1
1
1
1
1
1
1
1
1
1
1
1
1
1
1
1
1
1
1
1
1
1
1
1
1
1
1
1
1
1
1
1
1
1
1
1
1
1
1
1
1
1
1
1
1
1
1
1
1
1
1
1
1
1
1
1
1
1
1
1
1
1
1
1
1
1
1
1
1
1
1
1
1
1
1
1
1
1
1
1
1
1
1
1
1
1
1
1
1
1
1
1
1
1
1
1
1
1
1
1
1
1.00101
1.01396
1
1.00143
1.00062
1
1
1
1
1
1
1
1
1
1
1
1
1
1
1.0018
1.00372
1.05665
)
;

boundaryField
{
    movingWall
    {
        type            calculated;
        value           nonuniform List<scalar> 
20
(
1
1.00143
1.00062
1
1
1
1
1
1
1
1
1
1
1
1
1
1
1.0018
1.00372
1.05665
)
;
    }
    fixedWalls
    {
        type            calculated;
        value           nonuniform List<scalar> 
60
(
1
1
1
1
1
1
1
1
1
1
1
1
1
1
1
1
1
1
1
1
1.00199
1.00196
1.00194
1.00192
1.00187
1.00177
1.00154
1.00121
1.0012
1.00109
1
1
1
1
1
1
1
1
1.01396
1.05665
1
1
1.00001
1.00003
1.00008
1.00014
1.00023
1.00034
1.00047
1.00063
1.00081
1.00101
1.00123
1.00146
1.00166
1.00183
1.00195
1.002
1.00201
1.00199
)
;
    }
    frontAndBack
    {
        type            empty;
    }
}


// ************************************************************************* //
