/*--------------------------------*- C++ -*----------------------------------*\
| =========                 |                                                 |
| \\      /  F ield         | OpenFOAM: The Open Source CFD Toolbox           |
|  \\    /   O peration     | Version:  2312                                  |
|   \\  /    A nd           | Website:  www.openfoam.com                      |
|    \\/     M anipulation  |                                                 |
\*---------------------------------------------------------------------------*/
FoamFile
{
    version     2.0;
    format      ascii;
    arch        "LSB;label=32;scalar=64";
    class       volScalarField;
    location    "1.125";
    object      staticCoeffP;
}
// * * * * * * * * * * * * * * * * * * * * * * * * * * * * * * * * * * * * * //

dimensions      [0 0 0 0 0 0 0];

internalField   nonuniform List<scalar> 
400
(
1.30846e-08
0
1.3341e-05
6.79042e-05
0.000158759
0.000288644
0.000460298
0.00067672
0.000940828
0.00125371
0.00161443
0.0020223
0.00246435
0.00291057
0.00332624
0.00366633
0.00389485
0.00400374
0.00401719
0.00397125
6.82649e-06
0
1.98689e-05
7.89819e-05
0.00017254
0.000302385
0.000471311
0.000682341
0.000938312
0.00124105
0.00159135
0.00198741
0.00241495
0.00285158
0.00326199
0.0036031
0.00383894
0.00395725
0.00397685
0.00392842
0
0
0
2.83765e-05
0.000122076
0.000250144
0.000415082
0.000620228
0.000869202
0.0011654
0.00151153
0.00190701
0.00234225
0.00279682
0.00323358
0.00360114
0.00385072
0.00396213
0.00396047
0.00388997
0
0
0
0
0
0.000115776
0.000273247
0.000470504
0.000712736
0.00100614
0.00135698
0.00176855
0.00223669
0.00274537
0.00325143
0.00367822
0.00394219
0.00401319
0.00394889
0.00383687
0
0
0
0
0
0
4.24233e-05
0.000225757
0.000456426
0.000744434
0.00110156
0.00153783
0.00205837
0.00266113
0.00329518
0.00383096
0.00411126
0.00409722
0.00391192
0.00373852
0
0
0
0
0
0
0
0
8.68168e-05
0.000354585
0.000704851
0.00116053
0.00174459
0.00247882
0.00332216
0.00405114
0.00434801
0.0041671
0.00379262
0.00353629
0
0
0
0
0
0
0
0
0
0
0.00010903
0.000552185
0.001173
0.00201773
0.00314432
0.00416883
0.00451402
0.00404797
0.00343026
0.00308826
0
0
0
0
0
0
0
0
0
0
0
0
7.12103e-05
0.000816781
0.00177986
0.00277139
0.00348726
0.00346744
0.0028765
0.00241363
0
0
0
0
0
0
0
0
0
0
0
0
0
0
0
0
0
0.000657594
0.00220921
0.00239496
0
0
0
0
0
0
0
0
0
0
0
0
0
0
0
0
0
0
0
0.00218394
0
0
0
0
0
0
0
0
0
0
0
0
0
0
0
0
0
0
0
0
0
0
0
0
0
0
0
0
0
0
0
0
0
0
0
0
0
0
0
0
0
0
0
0
0
0
0
0
0
0
0
0
0
0
0
0
0
0
0
0
0
0
0
0
0
0
0
0
0
0
0
0
0
0
0
0
0
0
0
0
0
0
0
0
0
0
0
0
0
0
0
0
0
0
0
0
0
0
0
0
0
0
0
0
0
0
0
0
0
0
0
0
0
0
0
0
0
0
0
0
0
0
0
0
0
0
0
0
0
0
0
0
0
0
0
0
0
0
0
0
0
0
0
0
0
0
0
0
0
0
0
0
0
0
0
0
0
0
0
0
0
0
0
0
0
0
0
0
0
0
0
0
0
0
0
0
0
0
0.00202314
0.027928
0
0.00286082
0.00124276
0
0
0
0
0
0
0
0
0
0
0
0
0
0
0.00360447
0.00743293
0.113305
)
;

boundaryField
{
    movingWall
    {
        type            calculated;
        value           nonuniform List<scalar> 
20
(
0
0.00286082
0.00124276
0
0
0
0
0
0
0
0
0
0
0
0
0
0
0.00360447
0.00743293
0.113305
)
;
    }
    fixedWalls
    {
        type            calculated;
        value           nonuniform List<scalar> 
60
(
1.30846e-08
6.82649e-06
0
0
0
0
0
0
0
0
0
0
0
0
0
0
0
0
0
0
0.00397125
0.00392842
0.00388997
0.00383687
0.00373852
0.00353629
0.00308826
0.00241363
0.00239496
0.00218394
0
0
0
0
0
0
0
0
0.027928
0.113305
1.30846e-08
0
1.3341e-05
6.79042e-05
0.000158759
0.000288644
0.000460298
0.00067672
0.000940828
0.00125371
0.00161443
0.0020223
0.00246435
0.00291057
0.00332624
0.00366633
0.00389485
0.00400374
0.00401719
0.00397125
)
;
    }
    frontAndBack
    {
        type            empty;
    }
}


// ************************************************************************* //
