/*--------------------------------*- C++ -*----------------------------------*\
| =========                 |                                                 |
| \\      /  F ield         | OpenFOAM: The Open Source CFD Toolbox           |
|  \\    /   O peration     | Version:  2312                                  |
|   \\  /    A nd           | Website:  www.openfoam.com                      |
|    \\/     M anipulation  |                                                 |
\*---------------------------------------------------------------------------*/
FoamFile
{
    version     2.0;
    format      ascii;
    arch        "LSB;label=32;scalar=64";
    class       volVectorField;
    location    "1.125";
    object      URandom;
}
// * * * * * * * * * * * * * * * * * * * * * * * * * * * * * * * * * * * * * //

dimensions      [0 1 -1 0 0 0 0];

internalField   nonuniform List<vector> 
400
(
(0.0907226 -0.00170606 -0.0415285)
(0.0692852 -0.036654 -0.0600658)
(0.0103488 0.0496081 -0.0863566)
(-0.0806818 0.0307258 -0.0592215)
(-0.0761632 -0.0413365 0.0596178)
(-0.0989806 0.0200631 0.0426155)
(0.0272389 0.0203819 0.0895845)
(0.0648534 0.0604508 0.00969639)
(-0.0961727 0.011547 0.060238)
(-0.1046 0.0343405 -0.0388219)
(-0.00210969 -0.0978785 0.000458146)
(0.00623776 -0.0679618 -0.0681063)
(-0.0764455 -0.0687701 -0.0466777)
(-0.10307 0.0411181 0.0345147)
(0.0299507 -0.0890871 0.0116875)
(-0.0818901 -0.0686941 -0.029771)
(0.0416641 0.0267922 -0.0807197)
(-0.03997 -0.0688046 0.0661037)
(-0.0770109 -0.0625441 0.0259411)
(-0.0621413 -0.0523357 0.0590508)
(0.0386113 -0.0617116 0.0668531)
(0.0506306 -0.0253492 0.079853)
(0.0341038 -0.0803205 0.0381731)
(0.0636453 0.0584188 -0.0438576)
(-0.0697108 0.0639781 -0.0534423)
(-0.0436684 -0.0274681 0.0899488)
(-0.0760244 0.0832709 0.00453629)
(0.0226296 0.0822791 -0.045759)
(-0.0757705 -0.0755081 -0.028332)
(-0.0808177 0.0835811 -0.0019737)
(-0.0931088 -0.0173853 0.0697597)
(-0.00283402 0.0239033 -0.0946911)
(0.00580035 0.0921982 -0.0194262)
(-0.054291 0.0194181 -0.0924131)
(-0.0925829 -0.0679281 -0.0280459)
(-0.0184615 0.0938712 0.0102352)
(0.0850185 0.0138637 -0.00234655)
(-0.0169167 -0.0795409 0.0670657)
(0.00389432 -0.0704255 0.0747263)
(-0.00214015 0.0931709 -0.0299677)
(0.0237584 -0.0397885 -0.0866909)
(0.0530816 0.0756244 0.042819)
(-0.0502759 -0.0730442 -0.0423353)
(0.0216323 0.0957083 0.0332439)
(-0.0401409 -0.0257404 0.090146)
(0.0782921 -0.0294189 0.0139653)
(-0.0781446 0.00653806 -0.0789441)
(-0.076869 -0.0174004 0.0785039)
(-0.09953 -0.0476397 0.0345514)
(0.0234408 -0.0822135 -0.0170183)
(-0.0822692 0.0760482 -0.0377373)
(-0.00366847 -0.0866348 0.0428702)
(0.00739557 0.0795003 -0.0471265)
(-0.0917746 -0.00221349 0.0751667)
(-0.0904518 -0.0312428 0.070226)
(0.0198485 0.0281528 -0.0837945)
(0.0209675 -0.0738823 -0.0686192)
(0.031222 -0.0474636 0.0832056)
(0.0620306 -0.0819439 0.00952383)
(-0.0274285 -0.0826411 0.0578014)
(-0.0756967 0.0274559 0.0631794)
(-0.0647265 -0.00108606 0.0787601)
(-0.0486004 0.0932161 -0.0322011)
(-0.0535689 0.026478 -0.0877762)
(0.080487 0.0399902 0.0235414)
(0.0593108 -0.0333199 0.0523594)
(-0.0317625 -0.0709513 -0.0583546)
(-0.00119605 -0.0189906 0.0942565)
(0.0626475 -0.00268666 0.0505854)
(0.0453094 -0.0606969 0.0222414)
(-0.0297117 0.0351023 0.0950957)
(0.0335716 -0.0323609 -0.0698711)
(-0.0105164 -0.0550583 0.082468)
(0.00958224 -0.0729968 -0.0632927)
(-0.0948332 -0.0314694 -0.0704129)
(-0.0477508 0.0823719 0.00859801)
(-0.109513 -0.0484136 -0.0190843)
(0.0459427 0.0437534 -0.0571289)
(-0.0261299 -0.108073 0.0236179)
(-0.00228 -0.106597 0.0192512)
(-0.0519856 0.0481842 0.0763587)
(-0.100393 -0.0157098 -0.00122472)
(0.0385951 0.0759375 0.0614815)
(-0.105399 -0.00816298 -0.0184048)
(-0.0920909 0.0136952 -0.0597651)
(0.000791601 -0.0817174 0.0309262)
(0.0685611 -0.0260181 -0.0331328)
(-0.0699757 0.0781415 -0.0560849)
(-0.0895906 0.0851721 0.0118332)
(-0.00966074 0.0683064 0.078503)
(-0.00563922 0.0443094 0.089226)
(0.055192 0.0437353 -0.0240495)
(-0.0164972 0.0542746 0.0808986)
(0.0179953 0.0232486 -0.0792558)
(0.00845374 0.0546778 -0.0602214)
(-0.103136 -0.000552629 0.0617809)
(0.0785076 -0.0110846 -0.0186896)
(0.00979497 0.0418487 0.0741205)
(0.0552372 -0.0726159 -0.0594537)
(0.0597644 0.017153 -0.0745373)
(-0.0471784 -0.038079 -0.074353)
(0.0247932 0.0901208 0.056789)
(-0.09424 0.0161199 0.0477793)
(0.0609471 0.0520529 -0.0606385)
(-0.0257011 0.0577995 -0.0892772)
(0.00367453 -0.0214329 -0.0912036)
(-0.0701021 0.100278 -0.00665653)
(0.0140131 0.00228602 0.0926114)
(0.0499484 0.0632442 0.0437129)
(0.0132654 0.0234642 0.0898214)
(-0.110412 -0.0046288 -0.0621458)
(-0.00390329 0.0435158 0.0863376)
(0.0337509 -0.0591833 0.031217)
(-0.0502427 0.0909545 -0.0103555)
(-0.101789 0.0345643 -0.0593523)
(-0.00951152 -0.0583608 0.0916898)
(0.0401821 -0.0985386 0.0394386)
(0.00349045 -0.104028 0.0664321)
(-0.00355323 -0.0860941 -0.0773226)
(0.0720015 0.036252 -0.0512589)
(0.0308656 0.090616 -0.0542116)
(0.089402 -0.0149987 0.0200098)
(-0.0683887 0.0629542 -0.0631754)
(0.0712926 -0.0423377 0.00218348)
(0.0293066 -0.0177968 0.0839113)
(-0.0637076 0.100725 -0.028475)
(0.0706226 -0.0202648 0.0245913)
(0.0235988 0.106299 -0.0151481)
(-0.0202713 -0.00843743 0.0962014)
(0.00393511 0.0818841 0.0675587)
(0.0554874 0.010295 0.0384858)
(-0.088184 -0.0754382 -0.0237666)
(0.0368672 -0.0302751 -0.0387568)
(-0.109696 0.0118526 0.0811638)
(-0.0437683 -0.0365616 0.0978469)
(0.000351011 -0.119909 -0.000748011)
(-0.00231621 -0.137288 0.0103098)
(0.0117198 0.00937845 0.0770523)
(0.06567 -0.0527157 -0.0703625)
(0.0803252 0.0301966 -0.04939)
(0.0571892 0.0619254 0.066445)
(0.0619006 -0.0424769 0.0452572)
(-0.00113542 0.0754999 -0.0825285)
(0.031409 -0.0408409 0.0685098)
(-0.0685501 -0.0444141 -0.0498725)
(0.0105092 0.0710385 -0.0831947)
(-0.0244448 -0.0680463 -0.0426004)
(-0.00820482 -0.0693799 -0.0362688)
(-0.0502716 0.0229121 0.0971622)
(0.0397934 -0.0405804 0.0274835)
(0.00352972 0.0521367 0.0848555)
(-0.0352585 -0.0439653 -0.0773699)
(-0.133749 0.0326026 0.0635143)
(-0.0943243 0.0468521 -0.0862913)
(-0.135604 -0.0976462 -0.0292302)
(-0.0106815 -0.102709 -0.00160806)
(-0.149017 -0.0907655 0.0659887)
(-0.079912 0.0280606 0.00596221)
(-0.102926 -0.0811671 0.0455266)
(-0.0609292 0.0542788 -0.0356733)
(-0.0720297 0.0845767 0.0210946)
(0.0592431 0.0791015 0.0517247)
(-0.071568 0.0405368 0.0727622)
(0.0607967 0.0212188 -0.0724991)
(-0.0634164 0.0598818 -0.0768473)
(0.0197744 -0.0448814 0.0636301)
(0.056267 0.0179068 -0.0676869)
(-0.0380772 -0.0685454 -0.0227766)
(-0.0605144 0.018417 -0.0932319)
(0.0386241 0.0986874 -0.0157232)
(-0.0361415 0.0964075 0.0750669)
(-0.103564 0.115965 0.00047712)
(-0.138061 0.01982 -0.0722462)
(-0.0767761 0.104057 -0.0501178)
(-0.037086 -0.0508353 -0.046424)
(-0.17979 0.0239855 0.044752)
(-0.094064 -0.157277 0.0634209)
(0.00552064 -0.10975 0.0112557)
(-0.0974047 -0.039408 -0.0767306)
(0.027297 0.0299476 0.0786334)
(-0.0208205 0.062198 0.0881109)
(-0.0610439 0.10402 0.00594933)
(0.0827066 -0.0181658 -0.0224676)
(-0.0509167 -0.0426714 -0.0591777)
(-0.0356592 0.121966 0.0128667)
(0.00938086 0.11214 0.0489324)
(0.0589627 -0.0112522 -0.0532965)
(-0.10381 -0.00159978 0.0408321)
(0.0173999 0.103949 -0.0591164)
(-0.0962765 0.0954626 -0.0467164)
(-0.10434 0.0171264 -0.070585)
(0.0144522 0.00664871 0.065573)
(-0.0119638 -0.0279865 -0.0263591)
(-0.15007 0.014268 0.077807)
(-0.103741 0.0523543 0.0898704)
(-0.134718 0.00111894 -0.0890238)
(-0.0474572 -0.16053 0.0158541)
(-0.208336 -0.152178 0.0226038)
(0.00211429 -0.192105 -0.0210883)
(-0.0115163 -0.15696 -0.0338405)
(0.0371898 -0.0713867 0.00429423)
(-0.0627638 0.0521698 -0.0750695)
(0.0675725 -0.0186406 0.052832)
(-0.0563186 0.0795677 -0.0691305)
(-0.0128781 -0.00393203 -0.0944764)
(0.0627161 -0.0020759 0.060026)
(0.0511977 -0.0404676 -0.0243413)
(0.011909 -0.0175334 0.0802653)
(0.0303842 0.120707 0.030501)
(-0.0660147 -0.0174173 0.0663228)
(-0.0986517 0.120647 -0.0213801)
(-0.0226404 -0.0183271 0.0589494)
(0.0333944 0.117054 0.014906)
(-0.124777 0.089873 -0.0773949)
(-0.136891 0.0344261 -0.0824286)
(-0.11525 0.0322082 -0.0681591)
(-0.119294 -0.0789668 -0.0939453)
(-0.00486916 -0.137788 -0.0452482)
(-0.135021 -0.126614 -0.0611532)
(0.018731 -0.13686 0.0810751)
(0.0767145 0.00126542 -0.0595877)
(0.0434963 -0.0621271 0.00359207)
(-0.0645361 -0.0510837 0.008103)
(-0.00866023 0.112164 -0.0555153)
(0.0231829 0.0649187 -0.088843)
(-0.0768373 0.0657289 -0.064583)
(-0.0497144 0.0943394 0.0694494)
(-0.0810144 -0.0181526 0.0445608)
(-0.0524717 0.0481908 0.0917521)
(-0.0851233 0.0627322 -0.0703025)
(-0.0257236 0.00363087 0.0840433)
(0.0643842 0.0264835 0.0298106)
(0.0265747 0.142949 -0.0549779)
(-0.0515107 0.127921 0.077889)
(-0.0357774 -0.0336857 -0.076343)
(0.0274148 0.00354829 0.07497)
(-0.0100944 0.00279639 0.0456919)
(-0.0389954 -0.0391423 0.0170807)
(0.0232433 -0.227603 -0.0496963)
(-0.0128367 -0.243488 -0.0813293)
(-0.0775409 -0.0338515 0.0275923)
(0.0683149 0.0625149 0.0622268)
(0.000114783 0.119735 -0.0429611)
(-0.0706184 -0.0427167 -0.0175027)
(0.0630954 0.0692899 -0.0621327)
(0.00451901 0.127796 0.0300375)
(0.0796496 0.0250817 -0.0498543)
(-0.0648709 -0.0416133 0.0107543)
(-0.0394588 -0.00250732 -0.0823729)
(-0.0394338 0.0388629 -0.0936338)
(0.0601768 0.0305294 0.0706773)
(0.02136 -0.0262351 0.0214179)
(0.047352 0.100911 0.085855)
(-0.0219066 0.151406 0.0471559)
(0.0797652 -0.0367578 -0.0224779)
(0.0583849 0.0348472 0.0673623)
(0.0333875 -0.0647672 0.0958524)
(-0.0899165 -0.0649074 0.0161895)
(0.0564352 -0.13721 -0.0172915)
(0.0184516 -0.317408 -0.0343705)
(-0.0510677 0.0806392 -0.0663022)
(-0.0494447 0.0598665 -0.082723)
(0.0697334 0.0985851 -0.00780053)
(0.0639346 0.102135 -0.0185856)
(-0.0188447 -0.0365808 -0.0715098)
(-0.0806289 0.0364181 -0.0641425)
(0.063116 0.0376278 0.0747606)
(-0.0928197 0.046512 0.0409564)
(0.0757112 0.0959863 0.0370226)
(0.094624 0.0783439 0.0244564)
(0.0392768 0.148229 0.0109224)
(0.0235835 0.0724136 0.0989025)
(-0.0637775 0.113558 0.0177907)
(0.109254 0.0558824 0.0655163)
(0.0496236 0.124164 -0.0320773)
(0.112414 -0.0655962 0.0526232)
(0.0438362 0.0233563 -0.0481611)
(0.0922474 -0.0567523 0.0446345)
(0.0612159 -0.193206 0.06673)
(-0.0824469 -0.238536 -0.0745416)
(0.0661746 -0.0468699 -0.0111575)
(-0.054794 -0.0196001 0.0686104)
(0.0784196 0.0602301 0.0497892)
(-0.0406184 0.0989809 0.0637236)
(0.0626271 0.0972639 -0.0362495)
(0.0407141 -0.0292922 0.0662407)
(-0.0363238 -0.0459908 -0.049069)
(-0.0259705 0.0651255 0.0914402)
(-0.0327986 0.0916825 0.0760271)
(-0.0168148 0.127842 0.0461292)
(0.0753461 -0.00732832 0.0583342)
(-0.02792 0.00978736 -0.0742719)
(0.0994141 0.0997948 -0.0608991)
(0.0839506 0.109151 -0.0682897)
(-0.0268296 0.0803067 -0.00713378)
(0.131623 -0.0320066 0.0616343)
(0.0726016 -0.0669732 -0.0944004)
(-0.0594488 -0.102091 -0.0476723)
(-0.0684108 -0.08944 0.0414724)
(-0.00544798 -0.360771 -0.00847581)
(0.0299567 0.118168 0.0328597)
(0.0391863 0.103878 -0.055741)
(-0.0245948 0.00101194 0.0928273)
(-0.0614613 0.080966 0.0646909)
(0.091203 0.0572916 0.0207332)
(-0.0893121 0.0512842 0.0420591)
(-0.00960375 -0.0683546 0.00587075)
(0.0696362 0.052519 -0.07357)
(-0.00849117 -0.0618225 -0.0201272)
(0.0869853 -0.00484844 -0.0553473)
(-0.0296459 -0.0394244 0.0314698)
(-0.0342555 -0.0294334 0.0253558)
(-0.0121412 0.0517932 0.0840728)
(0.0675134 0.116017 0.0564531)
(0.0189012 0.110276 0.00572339)
(0.0913783 0.0216197 -0.0905495)
(0.0415336 0.0354076 -0.0703378)
(0.0784828 -0.0855603 -0.0877276)
(0.00107568 -0.0986996 0.096649)
(0.02345 -0.282867 -0.0916641)
(0.0562038 -0.0145073 -0.0687419)
(0.0844496 0.0693496 -0.0241639)
(-0.057208 -0.0536895 -0.0110481)
(-0.076202 0.0239882 -0.069118)
(-0.0508547 -0.0548553 -0.027076)
(-0.0470216 -0.0031384 0.0827316)
(0.0271293 0.122909 0.0176644)
(0.0630961 -0.0139378 -0.0718684)
(0.0904278 0.0746535 0.0436451)
(0.096639 0.00480381 0.057903)
(0.0712858 -0.0414483 0.0510965)
(0.0775656 -0.0452048 -0.0461214)
(0.0298493 0.130517 -0.00310715)
(-0.0211099 0.0924004 0.000373853)
(-0.0127032 0.0824591 0.0145446)
(0.117646 0.0413196 0.0701443)
(0.042413 -0.111899 -0.0450248)
(0.0244505 -0.0943834 0.0898661)
(-0.0211234 -0.0409223 -0.0674632)
(-0.028823 -0.362994 0.0218948)
(0.0176629 0.136223 -0.0362429)
(0.0773683 0.0206828 0.0497981)
(0.0413522 -0.0299613 -0.057826)
(0.0565149 -0.0478671 -0.0102219)
(0.0851418 0.0620043 -0.0408544)
(-0.0398099 -0.0343416 -0.0665135)
(-0.0253389 0.0661431 0.0847338)
(0.0935652 -0.0310842 0.0223397)
(-0.0329354 0.104869 0.0264579)
(0.075709 0.0603261 -0.0789346)
(0.103948 -0.00595517 -0.0650797)
(0.0916078 0.0998928 -0.0443317)
(0.106629 -0.0598641 0.0127719)
(-0.00965063 -0.0424538 -0.0337328)
(0.0456238 -0.00689909 0.0956621)
(0.00120856 -0.0554867 -0.046893)
(-0.0240916 -0.0586954 -0.0304008)
(0.0679429 0.0149815 -0.0828654)
(0.081353 -0.156005 0.0279268)
(-0.0693599 -0.328126 -0.0291251)
(-0.0487832 -0.0486911 0.0609739)
(-0.0309965 -0.0385223 0.0842212)
(0.0322355 -0.0259864 -0.0869614)
(0.0800286 0.0233519 -0.067932)
(0.0315948 -0.039536 -0.0828431)
(0.0391006 -0.0310742 -0.08821)
(-0.0569151 -0.0287691 -0.00636465)
(0.0427125 0.0458802 -0.0944625)
(0.0233299 0.0867948 -0.0618363)
(0.123664 0.0847559 0.0252689)
(0.0437769 -0.0531413 0.0710624)
(0.0828233 0.0808973 0.073151)
(0.0734951 0.0560564 0.0890921)
(0.114857 -0.00668835 0.0964014)
(0.185931 -0.0241876 -0.0423493)
(0.171754 -0.0411635 0.0611307)
(0.0667738 0.0684488 0.0615907)
(0.177408 -0.0757024 0.0476604)
(-0.0578772 -0.0363311 0.0468934)
(0.102238 -0.16617 -0.0738433)
(0.0822246 0.144668 0.0746004)
(-0.00103217 0.0124503 -0.0514017)
(0.02264 0.0225731 -0.0725404)
(0.17443 0.00192008 -0.0712521)
(0.111733 -0.0416448 0.0759319)
(0.216781 0.0817102 0.00630887)
(0.102435 -0.0501244 -0.0572481)
(0.141019 0.0740506 -0.0745208)
(0.0964415 0.0356334 0.0545303)
(0.0991545 -0.0285139 0.0298635)
(0.16637 -0.0721452 -0.0513068)
(0.244718 0.0837278 0.0519923)
(0.181205 -0.0553762 -0.0704514)
(0.169457 -0.0192128 0.0794284)
(0.271428 0.00856431 -0.0916547)
(0.264821 0.0798467 -0.0587342)
(0.182078 0.0522064 -0.0706607)
(0.349473 0.0207013 -0.000365736)
(0.191915 -0.0277329 0.0680984)
(0.315402 -0.175286 -0.0096982)
)
;

boundaryField
{
    movingWall
    {
        type            fixedValue;
        value           uniform (1 0 0);
    }
    fixedWalls
    {
        type            noSlip;
    }
    frontAndBack
    {
        type            empty;
    }
}


// ************************************************************************* //
