/*--------------------------------*- C++ -*----------------------------------*\
| =========                 |                                                 |
| \\      /  F ield         | OpenFOAM: The Open Source CFD Toolbox           |
|  \\    /   O peration     | Version:  2312                                  |
|   \\  /    A nd           | Website:  www.openfoam.com                      |
|    \\/     M anipulation  |                                                 |
\*---------------------------------------------------------------------------*/
FoamFile
{
    version     2.0;
    format      ascii;
    arch        "LSB;label=32;scalar=64";
    class       volScalarField;
    location    "1.125";
    object      Ux;
}
// * * * * * * * * * * * * * * * * * * * * * * * * * * * * * * * * * * * * * //

dimensions      [0 1 -1 0 0 0 0];

internalField   nonuniform List<scalar> 
400
(
-0.00022602
-0.00137507
-0.0034022
-0.00569873
-0.00810101
-0.0104992
-0.0128322
-0.0150429
-0.0170541
-0.0187682
-0.0200367
-0.0205824
-0.0204088
-0.0191571
-0.016864
-0.0136197
-0.0097667
-0.00583079
-0.00233753
-0.000370523
-0.0007513
-0.00263815
-0.00504317
-0.00765711
-0.0103662
-0.0130906
-0.0157618
-0.0183005
-0.0206069
-0.0225553
-0.0239825
-0.0246808
-0.0244679
-0.0231592
-0.0206901
-0.0171644
-0.0129231
-0.00850212
-0.00433058
-0.00112693
-0.00113564
-0.00338034
-0.00587406
-0.00851543
-0.0112417
-0.0140077
-0.0167628
-0.0194346
-0.0219271
-0.0241142
-0.0258273
-0.026851
-0.0269454
-0.02586
-0.0234206
-0.0196605
-0.0149509
-0.00996731
-0.00524175
-0.00146533
-0.00129852
-0.00372523
-0.00628749
-0.00895617
-0.0117029
-0.0145137
-0.0173681
-0.0202212
-0.023
-0.025592
-0.0278252
-0.0294512
-0.0301348
-0.0294585
-0.0270127
-0.022665
-0.016871
-0.010719
-0.0052056
-0.00130615
-0.00133547
-0.00383208
-0.00644052
-0.00914294
-0.0119327
-0.0148225
-0.0178287
-0.0209462
-0.0241422
-0.027336
-0.0303626
-0.0329344
-0.0345937
-0.0346565
-0.0322589
-0.0268799
-0.0190248
-0.0105864
-0.00386479
-0.000562863
-0.00131043
-0.00380147
-0.00642097
-0.00914144
-0.0119734
-0.0149543
-0.0181412
-0.0215818
-0.0253052
-0.029292
-0.0334189
-0.0373977
-0.0406992
-0.0423483
-0.0407774
-0.0345196
-0.0237463
-0.0108802
-0.000929735
0.00113476
-0.00125075
-0.00367975
-0.00626623
-0.00896783
-0.0118103
-0.0148548
-0.0182025
-0.0219659
-0.0262609
-0.0311757
-0.036707
-0.0427192
-0.0488947
-0.0543374
-0.05685
-0.0532785
-0.0413868
-0.0220234
-0.00150787
0.00370006
-0.00116613
-0.00348464
-0.00598667
-0.00861283
-0.0114011
-0.0144332
-0.0178521
-0.0218397
-0.0266189
-0.0324393
-0.0395374
-0.0482728
-0.0593465
-0.0726242
-0.085017
-0.0893842
-0.0791531
-0.0546735
-0.0201496
0.0046705
-0.0010616
-0.00322557
-0.00558613
-0.00806367
-0.0107012
-0.0135914
-0.016907
-0.0208846
-0.0258478
-0.0322342
-0.0405867
-0.052116
-0.0694144
-0.0925682
-0.113051
-0.121626
-0.116236
-0.0936561
-0.0532383
-0.00328126
-0.000943882
-0.00291647
-0.00507849
-0.00732461
-0.00969071
-0.012264
-0.0152205
-0.0188102
-0.023396
-0.0295038
-0.0377535
-0.0498684
-0.0690749
-0.0934587
-0.113313
-0.122776
-0.123174
-0.112037
-0.0793993
-0.0261831
-0.000825722
-0.00258483
-0.00450139
-0.00643573
-0.00840299
-0.0104659
-0.0127705
-0.015525
-0.0190292
-0.0237017
-0.0299335
-0.0388049
-0.0525983
-0.0695673
-0.0817307
-0.0855773
-0.0888355
-0.0931381
-0.081796
-0.0392153
-0.000727439
-0.00227809
-0.00392528
-0.00548499
-0.00694339
-0.00832567
-0.00972419
-0.0112641
-0.0131016
-0.0153972
-0.0181032
-0.0211347
-0.02488
-0.0309821
-0.033385
-0.0318083
-0.0348279
-0.0477871
-0.0592616
-0.0370388
-0.000680244
-0.00207621
-0.00345737
-0.00460706
-0.00548329
-0.00607463
-0.00641634
-0.00654302
-0.00646189
-0.00607525
-0.00499058
-0.00226929
0.00249879
0.00712092
0.0111656
0.0125416
0.00657576
-0.00658051
-0.0292588
-0.0269398
-0.000730553
-0.00206437
-0.00322543
-0.00395901
-0.00422139
-0.00398609
-0.00324884
-0.00197833
-9.93756e-05
0.00263495
0.006709
0.013216
0.0228196
0.0337654
0.0413121
0.0424874
0.0319002
0.0157353
-0.00727883
-0.0178893
-0.000951392
-0.00242244
-0.00338543
-0.00369323
-0.00332959
-0.00228998
-0.000559918
0.00193185
0.0053047
0.00977441
0.0157286
0.0238713
0.0347428
0.0469857
0.0552935
0.0556558
0.0449952
0.0269185
0.00512876
-0.0138172
-0.00150297
-0.00316521
-0.00399734
-0.00383462
-0.00284421
-0.00106202
0.00152732
0.00500107
0.00947586
0.0151169
0.0221271
0.0307192
0.0410505
0.0518268
0.0590087
0.0592381
0.0498785
0.03355
0.0140871
-0.0115923
-0.00254938
-0.00498036
-0.00511075
-0.00415018
-0.00237445
3.18047e-05
0.00333021
0.00757243
0.0128642
0.0193023
0.0269244
0.035635
0.0451224
0.0542432
0.0603272
0.0607082
0.052285
0.0414416
0.0221099
-0.00774399
-0.00420223
-0.00635953
-0.0048878
-0.00258806
0.000149555
0.0036679
0.00796833
0.0131062
0.0191654
0.0262422
0.0343429
0.0432704
0.052467
0.0609435
0.0666622
0.0679977
0.0593235
0.0589426
0.0249376
0.00523636
-0.00606472
-0.00867321
-0.000976871
0.0073131
0.016176
0.025011
0.0335516
0.0418884
0.0502372
0.0588169
0.0677689
0.0770756
0.0863626
0.0950872
0.101393
0.106127
0.0981641
0.107937
0.0302141
0.0711979
0.0407487
0.062623
0.0880398
0.10988
0.126676
0.140706
0.153425
0.16525
0.176345
0.186894
0.197043
0.206865
0.216194
0.224924
0.231624
0.238226
0.231865
0.252363
0.125677
0.378264
)
;

boundaryField
{
    movingWall
    {
        type            calculated;
        value           uniform 1;
    }
    fixedWalls
    {
        type            calculated;
        value           uniform 0;
    }
    frontAndBack
    {
        type            empty;
    }
}


// ************************************************************************* //
