/*--------------------------------*- C++ -*----------------------------------*\
| =========                 |                                                 |
| \\      /  F ield         | OpenFOAM: The Open Source CFD Toolbox           |
|  \\    /   O peration     | Version:  2312                                  |
|   \\  /    A nd           | Website:  www.openfoam.com                      |
|    \\/     M anipulation  |                                                 |
\*---------------------------------------------------------------------------*/
FoamFile
{
    version     2.0;
    format      ascii;
    arch        "LSB;label=32;scalar=64";
    class       volScalarField;
    location    "1.125";
    object      Uy;
}
// * * * * * * * * * * * * * * * * * * * * * * * * * * * * * * * * * * * * * //

dimensions      [0 1 -1 0 0 0 0];

internalField   nonuniform List<scalar> 
400
(
0.000226182
0.000752162
0.00109584
0.00122425
0.00124584
0.00122285
0.00117466
0.00109969
0.000981543
0.000789186
0.000500412
0.000172052
-0.000351685
-0.000921828
-0.00149832
-0.00196438
-0.00217665
-0.00198528
-0.00129914
-0.00039948
0.00138556
0.00268548
0.00340716
0.00371518
0.00379396
0.00374411
0.00359759
0.00334342
0.0029411
0.00233094
0.0014601
0.000316765
-0.00111015
-0.00273196
-0.00432891
-0.00559513
-0.00618479
-0.00584296
-0.00448365
-0.0022278
0.00339685
0.00506535
0.00592536
0.00634408
0.00648587
0.00643777
0.00621998
0.00580372
0.00512394
0.00409353
0.00263011
0.000684792
-0.00173876
-0.00449908
-0.00726103
-0.00949718
-0.0106267
-0.0103116
-0.00857009
-0.00527894
0.00570095
0.00761327
0.00852423
0.00901267
0.00921983
0.0092058
0.00897087
0.00846394
0.00759039
0.0062233
0.0042277
0.00149417
-0.00200979
-0.00613983
-0.0104362
-0.0140479
-0.0159604
-0.0156246
-0.0131817
-0.00847205
0.00813534
0.0102622
0.0111933
0.0117357
0.0120227
0.0120897
0.0119166
0.0114288
0.0104962
0.00893586
0.00652738
0.00304905
-0.00165345
-0.00751348
-0.0139943
-0.0197381
-0.0228369
-0.0221103
-0.0180979
-0.0112164
0.0105807
0.0129369
0.0138927
0.0144954
0.0148911
0.0151029
0.0150974
0.0147814
0.013989
0.0124647
0.00986142
0.00578068
-0.000169099
-0.00819408
-0.0179229
-0.0272547
-0.0325253
-0.0306778
-0.0227353
-0.0122292
0.0129653
0.0155856
0.0165897
0.0172735
0.0178162
0.0182469
0.0185342
0.0185814
0.0181972
0.0170531
0.0146577
0.0103994
0.00353031
-0.00679914
-0.0205978
-0.0355097
-0.045816
-0.0446987
-0.0295587
-0.0109036
0.0152379
0.0181577
0.019237
0.020025
0.0207528
0.0214751
0.0221853
0.0228083
0.0231594
0.022879
0.0213997
0.018039
0.011862
0.00121319
-0.0164884
-0.0410384
-0.0631152
-0.0685182
-0.0483733
-0.012235
0.0173565
0.0206018
0.0217737
0.0226772
0.0236105
0.0246738
0.025909
0.0272963
0.0287145
0.0298987
0.0304894
0.0302162
0.0280781
0.0189755
-0.00529305
-0.0439428
-0.0832078
-0.103644
-0.0859025
-0.0237344
0.0192866
0.0228674
0.0241306
0.0251352
0.0262579
0.0276587
0.029446
0.0316827
0.034372
0.0375059
0.0412912
0.0461841
0.0497536
0.0414943
0.00955596
-0.0428372
-0.0971616
-0.137496
-0.138153
-0.0640099
0.0210059
0.0249105
0.0262385
0.0272927
0.0285361
0.0301929
0.0324404
0.0354275
0.0392948
0.0443151
0.0512159
0.0608162
0.0682372
0.0588583
0.0216628
-0.0346788
-0.0946685
-0.150484
-0.185158
-0.12855
0.0225271
0.0267087
0.0280407
0.02905
0.0302873
0.0320362
0.0345266
0.0379654
0.042574
0.0487382
0.0572839
0.0688845
0.0771475
0.0686597
0.0308591
-0.0259834
-0.0826466
-0.13728
-0.20071
-0.190575
0.0238642
0.0282671
0.0295046
0.0303323
0.0313888
0.033004
0.0354354
0.0388988
0.0436003
0.0498137
0.0580599
0.0685432
0.0760694
0.0681374
0.0324436
-0.0231245
-0.0744338
-0.117756
-0.185764
-0.235199
0.0252299
0.029667
0.0306428
0.0311064
0.031775
0.033009
0.0350651
0.0381203
0.0423012
0.0476862
0.0543134
0.0618866
0.0668205
0.0589079
0.029814
-0.0172112
-0.0634656
-0.10316
-0.163956
-0.255145
0.0264077
0.0308957
0.0314382
0.0313359
0.031418
0.0320496
0.0334647
0.0357973
0.0390705
0.0431948
0.0478339
0.0522297
0.053872
0.0461418
0.0236948
-0.0112664
-0.0489052
-0.0857189
-0.143031
-0.261483
0.0291146
0.032469
0.0319771
0.0310234
0.0303609
0.0302375
0.0308504
0.0322767
0.0344691
0.0372422
0.0401319
0.0422282
0.041673
0.0349805
0.01885
-0.00608961
-0.0351825
-0.068681
-0.120828
-0.263639
0.0281849
0.031688
0.0309498
0.0295773
0.0283105
0.0275449
0.0274025
0.0279198
0.0290575
0.0306162
0.0321805
0.0329914
0.0317389
0.0266602
0.0157132
-0.0015508
-0.0231558
-0.0539435
-0.100752
-0.267724
0.0456227
0.0432616
0.0372549
0.0321476
0.0287291
0.0263678
0.0247812
0.0239365
0.0237176
0.0239619
0.0243732
0.0244065
0.0232221
0.0198243
0.0132539
0.00230831
-0.0126767
-0.0402663
-0.078304
-0.268233
0.018072
0.0105536
0.0105465
0.0134672
0.0143089
0.0138756
0.0133649
0.0130754
0.0129553
0.0129485
0.0129989
0.0129569
0.0125017
0.0110862
0.00836774
0.00306361
-0.0038093
-0.0218302
-0.0427285
-0.226034
0.0925673
0.0699472
0.0440384
0.0294233
0.021688
0.0171134
0.0140839
0.0119255
0.0102987
0.00903589
0.00802195
0.00715129
0.00636826
0.00557632
0.00468042
0.00340722
0.00192418
-0.00316422
0.00349388
-0.0981215
)
;

boundaryField
{
    movingWall
    {
        type            calculated;
        value           uniform 0;
    }
    fixedWalls
    {
        type            calculated;
        value           uniform 0;
    }
    frontAndBack
    {
        type            empty;
    }
}


// ************************************************************************* //
