/*--------------------------------*- C++ -*----------------------------------*\
| =========                 |                                                 |
| \\      /  F ield         | OpenFOAM: The Open Source CFD Toolbox           |
|  \\    /   O peration     | Version:  2312                                  |
|   \\  /    A nd           | Website:  www.openfoam.com                      |
|    \\/     M anipulation  |                                                 |
\*---------------------------------------------------------------------------*/
FoamFile
{
    version     2.0;
    format      ascii;
    arch        "LSB;label=32;scalar=64";
    class       volVectorField;
    location    "1.125";
    object      UzeroGrad;
}
// * * * * * * * * * * * * * * * * * * * * * * * * * * * * * * * * * * * * * //

dimensions      [0 1 -1 0 0 0 0];

internalField   nonuniform List<vector> 
400
(
(-0.00022602 0.000226182 0)
(-0.00137507 0.000752162 0)
(-0.0034022 0.00109584 0)
(-0.00569873 0.00122425 0)
(-0.00810101 0.00124584 0)
(-0.0104992 0.00122285 0)
(-0.0128322 0.00117466 0)
(-0.0150429 0.00109969 0)
(-0.0170541 0.000981543 0)
(-0.0187682 0.000789186 0)
(-0.0200367 0.000500412 0)
(-0.0205824 0.000172052 0)
(-0.0204088 -0.000351685 0)
(-0.0191571 -0.000921828 0)
(-0.016864 -0.00149832 0)
(-0.0136197 -0.00196438 0)
(-0.0097667 -0.00217665 0)
(-0.00583079 -0.00198528 0)
(-0.00233753 -0.00129914 0)
(-0.000370523 -0.00039948 0)
(-0.0007513 0.00138556 0)
(-0.00263815 0.00268548 0)
(-0.00504317 0.00340716 0)
(-0.00765711 0.00371518 0)
(-0.0103662 0.00379396 0)
(-0.0130906 0.00374411 0)
(-0.0157618 0.00359759 0)
(-0.0183005 0.00334342 0)
(-0.0206069 0.0029411 0)
(-0.0225553 0.00233094 0)
(-0.0239825 0.0014601 0)
(-0.0246808 0.000316765 0)
(-0.0244679 -0.00111015 0)
(-0.0231592 -0.00273196 0)
(-0.0206901 -0.00432891 0)
(-0.0171644 -0.00559513 0)
(-0.0129231 -0.00618479 0)
(-0.00850212 -0.00584296 0)
(-0.00433058 -0.00448365 0)
(-0.00112693 -0.0022278 0)
(-0.00113564 0.00339685 0)
(-0.00338034 0.00506535 0)
(-0.00587406 0.00592536 0)
(-0.00851543 0.00634408 0)
(-0.0112417 0.00648587 0)
(-0.0140077 0.00643777 0)
(-0.0167628 0.00621998 0)
(-0.0194346 0.00580372 0)
(-0.0219271 0.00512394 0)
(-0.0241142 0.00409353 0)
(-0.0258273 0.00263011 0)
(-0.026851 0.000684792 0)
(-0.0269454 -0.00173876 0)
(-0.02586 -0.00449908 0)
(-0.0234206 -0.00726103 0)
(-0.0196605 -0.00949718 0)
(-0.0149509 -0.0106267 0)
(-0.00996731 -0.0103116 0)
(-0.00524175 -0.00857009 0)
(-0.00146533 -0.00527894 0)
(-0.00129852 0.00570095 0)
(-0.00372523 0.00761327 0)
(-0.00628749 0.00852423 0)
(-0.00895617 0.00901267 0)
(-0.0117029 0.00921983 0)
(-0.0145137 0.0092058 0)
(-0.0173681 0.00897087 0)
(-0.0202212 0.00846394 0)
(-0.023 0.00759039 0)
(-0.025592 0.0062233 0)
(-0.0278252 0.0042277 0)
(-0.0294512 0.00149417 0)
(-0.0301348 -0.00200979 0)
(-0.0294585 -0.00613983 0)
(-0.0270127 -0.0104362 0)
(-0.022665 -0.0140479 0)
(-0.016871 -0.0159604 0)
(-0.010719 -0.0156246 0)
(-0.0052056 -0.0131817 0)
(-0.00130615 -0.00847205 0)
(-0.00133547 0.00813534 0)
(-0.00383208 0.0102622 0)
(-0.00644052 0.0111933 0)
(-0.00914294 0.0117357 0)
(-0.0119327 0.0120227 0)
(-0.0148225 0.0120897 0)
(-0.0178287 0.0119166 0)
(-0.0209462 0.0114288 0)
(-0.0241422 0.0104962 0)
(-0.027336 0.00893586 0)
(-0.0303626 0.00652738 0)
(-0.0329344 0.00304905 0)
(-0.0345937 -0.00165345 0)
(-0.0346565 -0.00751348 0)
(-0.0322589 -0.0139943 0)
(-0.0268799 -0.0197381 0)
(-0.0190248 -0.0228369 0)
(-0.0105864 -0.0221103 0)
(-0.00386479 -0.0180979 0)
(-0.000562863 -0.0112164 0)
(-0.00131043 0.0105807 0)
(-0.00380147 0.0129369 0)
(-0.00642097 0.0138927 0)
(-0.00914144 0.0144954 0)
(-0.0119734 0.0148911 0)
(-0.0149543 0.0151029 0)
(-0.0181412 0.0150974 0)
(-0.0215818 0.0147814 0)
(-0.0253052 0.013989 0)
(-0.029292 0.0124647 0)
(-0.0334189 0.00986142 0)
(-0.0373977 0.00578068 0)
(-0.0406992 -0.000169099 0)
(-0.0423483 -0.00819408 0)
(-0.0407774 -0.0179229 0)
(-0.0345196 -0.0272547 0)
(-0.0237463 -0.0325253 0)
(-0.0108802 -0.0306778 0)
(-0.000929735 -0.0227353 0)
(0.00113476 -0.0122292 0)
(-0.00125075 0.0129653 0)
(-0.00367975 0.0155856 0)
(-0.00626623 0.0165897 0)
(-0.00896783 0.0172735 0)
(-0.0118103 0.0178162 0)
(-0.0148548 0.0182469 0)
(-0.0182025 0.0185342 0)
(-0.0219659 0.0185814 0)
(-0.0262609 0.0181972 0)
(-0.0311757 0.0170531 0)
(-0.036707 0.0146577 0)
(-0.0427192 0.0103994 0)
(-0.0488947 0.00353031 0)
(-0.0543374 -0.00679914 0)
(-0.05685 -0.0205978 0)
(-0.0532785 -0.0355097 0)
(-0.0413868 -0.045816 0)
(-0.0220234 -0.0446987 0)
(-0.00150787 -0.0295587 0)
(0.00370006 -0.0109036 0)
(-0.00116613 0.0152379 0)
(-0.00348464 0.0181577 0)
(-0.00598667 0.019237 0)
(-0.00861283 0.020025 0)
(-0.0114011 0.0207528 0)
(-0.0144332 0.0214751 0)
(-0.0178521 0.0221853 0)
(-0.0218397 0.0228083 0)
(-0.0266189 0.0231594 0)
(-0.0324393 0.022879 0)
(-0.0395374 0.0213997 0)
(-0.0482728 0.018039 0)
(-0.0593465 0.011862 0)
(-0.0726242 0.00121319 0)
(-0.085017 -0.0164884 0)
(-0.0893842 -0.0410384 0)
(-0.0791531 -0.0631152 0)
(-0.0546735 -0.0685182 0)
(-0.0201496 -0.0483733 0)
(0.0046705 -0.012235 0)
(-0.0010616 0.0173565 0)
(-0.00322557 0.0206018 0)
(-0.00558613 0.0217737 0)
(-0.00806367 0.0226772 0)
(-0.0107012 0.0236105 0)
(-0.0135914 0.0246738 0)
(-0.016907 0.025909 0)
(-0.0208846 0.0272963 0)
(-0.0258478 0.0287145 0)
(-0.0322342 0.0298987 0)
(-0.0405867 0.0304894 0)
(-0.052116 0.0302162 0)
(-0.0694144 0.0280781 0)
(-0.0925682 0.0189755 0)
(-0.113051 -0.00529305 0)
(-0.121626 -0.0439428 0)
(-0.116236 -0.0832078 0)
(-0.0936561 -0.103644 0)
(-0.0532383 -0.0859025 0)
(-0.00328126 -0.0237344 0)
(-0.000943882 0.0192866 0)
(-0.00291647 0.0228674 0)
(-0.00507849 0.0241306 0)
(-0.00732461 0.0251352 0)
(-0.00969071 0.0262579 0)
(-0.012264 0.0276587 0)
(-0.0152205 0.029446 0)
(-0.0188102 0.0316827 0)
(-0.023396 0.034372 0)
(-0.0295038 0.0375059 0)
(-0.0377535 0.0412912 0)
(-0.0498684 0.0461841 0)
(-0.0690749 0.0497536 0)
(-0.0934587 0.0414943 0)
(-0.113313 0.00955596 0)
(-0.122776 -0.0428372 0)
(-0.123174 -0.0971616 0)
(-0.112037 -0.137496 0)
(-0.0793993 -0.138153 0)
(-0.0261831 -0.0640099 0)
(-0.000825722 0.0210059 0)
(-0.00258483 0.0249105 0)
(-0.00450139 0.0262385 0)
(-0.00643573 0.0272927 0)
(-0.00840299 0.0285361 0)
(-0.0104659 0.0301929 0)
(-0.0127705 0.0324404 0)
(-0.015525 0.0354275 0)
(-0.0190292 0.0392948 0)
(-0.0237017 0.0443151 0)
(-0.0299335 0.0512159 0)
(-0.0388049 0.0608162 0)
(-0.0525983 0.0682372 0)
(-0.0695673 0.0588583 0)
(-0.0817307 0.0216628 0)
(-0.0855773 -0.0346788 0)
(-0.0888355 -0.0946685 0)
(-0.0931381 -0.150484 0)
(-0.081796 -0.185158 0)
(-0.0392153 -0.12855 0)
(-0.000727439 0.0225271 0)
(-0.00227809 0.0267087 0)
(-0.00392528 0.0280407 0)
(-0.00548499 0.02905 0)
(-0.00694339 0.0302873 0)
(-0.00832567 0.0320362 0)
(-0.00972419 0.0345266 0)
(-0.0112641 0.0379654 0)
(-0.0131016 0.042574 0)
(-0.0153972 0.0487382 0)
(-0.0181032 0.0572839 0)
(-0.0211347 0.0688845 0)
(-0.02488 0.0771475 0)
(-0.0309821 0.0686597 0)
(-0.033385 0.0308591 0)
(-0.0318083 -0.0259834 0)
(-0.0348279 -0.0826466 0)
(-0.0477871 -0.13728 0)
(-0.0592616 -0.20071 0)
(-0.0370388 -0.190575 0)
(-0.000680244 0.0238642 0)
(-0.00207621 0.0282671 0)
(-0.00345737 0.0295046 0)
(-0.00460706 0.0303323 0)
(-0.00548329 0.0313888 0)
(-0.00607463 0.033004 0)
(-0.00641634 0.0354354 0)
(-0.00654302 0.0388988 0)
(-0.00646189 0.0436003 0)
(-0.00607525 0.0498137 0)
(-0.00499058 0.0580599 0)
(-0.00226929 0.0685432 0)
(0.00249879 0.0760694 0)
(0.00712092 0.0681374 0)
(0.0111656 0.0324436 0)
(0.0125416 -0.0231245 0)
(0.00657576 -0.0744338 0)
(-0.00658051 -0.117756 0)
(-0.0292588 -0.185764 0)
(-0.0269398 -0.235199 0)
(-0.000730553 0.0252299 0)
(-0.00206437 0.029667 0)
(-0.00322543 0.0306428 0)
(-0.00395901 0.0311064 0)
(-0.00422139 0.031775 0)
(-0.00398609 0.033009 0)
(-0.00324884 0.0350651 0)
(-0.00197833 0.0381203 0)
(-9.93756e-05 0.0423012 0)
(0.00263495 0.0476862 0)
(0.006709 0.0543134 0)
(0.013216 0.0618866 0)
(0.0228196 0.0668205 0)
(0.0337654 0.0589079 0)
(0.0413121 0.029814 0)
(0.0424874 -0.0172112 0)
(0.0319002 -0.0634656 0)
(0.0157353 -0.10316 0)
(-0.00727883 -0.163956 0)
(-0.0178893 -0.255145 0)
(-0.000951392 0.0264077 0)
(-0.00242244 0.0308957 0)
(-0.00338543 0.0314382 0)
(-0.00369323 0.0313359 0)
(-0.00332959 0.031418 0)
(-0.00228998 0.0320496 0)
(-0.000559918 0.0334647 0)
(0.00193185 0.0357973 0)
(0.0053047 0.0390705 0)
(0.00977441 0.0431948 0)
(0.0157286 0.0478339 0)
(0.0238713 0.0522297 0)
(0.0347428 0.053872 0)
(0.0469857 0.0461418 0)
(0.0552935 0.0236948 0)
(0.0556558 -0.0112664 0)
(0.0449952 -0.0489052 0)
(0.0269185 -0.0857189 0)
(0.00512876 -0.143031 0)
(-0.0138172 -0.261483 0)
(-0.00150297 0.0291146 0)
(-0.00316521 0.032469 0)
(-0.00399734 0.0319771 0)
(-0.00383462 0.0310234 0)
(-0.00284421 0.0303609 0)
(-0.00106202 0.0302375 0)
(0.00152732 0.0308504 0)
(0.00500107 0.0322767 0)
(0.00947586 0.0344691 0)
(0.0151169 0.0372422 0)
(0.0221271 0.0401319 0)
(0.0307192 0.0422282 0)
(0.0410505 0.041673 0)
(0.0518268 0.0349805 0)
(0.0590087 0.01885 0)
(0.0592381 -0.00608961 0)
(0.0498785 -0.0351825 0)
(0.03355 -0.068681 0)
(0.0140871 -0.120828 0)
(-0.0115923 -0.263639 0)
(-0.00254938 0.0281849 0)
(-0.00498036 0.031688 0)
(-0.00511075 0.0309498 0)
(-0.00415018 0.0295773 0)
(-0.00237445 0.0283105 0)
(3.18047e-05 0.0275449 0)
(0.00333021 0.0274025 0)
(0.00757243 0.0279198 0)
(0.0128642 0.0290575 0)
(0.0193023 0.0306162 0)
(0.0269244 0.0321805 0)
(0.035635 0.0329914 0)
(0.0451224 0.0317389 0)
(0.0542432 0.0266602 0)
(0.0603272 0.0157132 0)
(0.0607082 -0.0015508 0)
(0.052285 -0.0231558 0)
(0.0414416 -0.0539435 0)
(0.0221099 -0.100752 0)
(-0.00774399 -0.267724 0)
(-0.00420223 0.0456227 0)
(-0.00635953 0.0432616 0)
(-0.0048878 0.0372549 0)
(-0.00258806 0.0321476 0)
(0.000149555 0.0287291 0)
(0.0036679 0.0263678 0)
(0.00796833 0.0247812 0)
(0.0131062 0.0239365 0)
(0.0191654 0.0237176 0)
(0.0262422 0.0239619 0)
(0.0343429 0.0243732 0)
(0.0432704 0.0244065 0)
(0.052467 0.0232221 0)
(0.0609435 0.0198243 0)
(0.0666622 0.0132539 0)
(0.0679977 0.00230831 0)
(0.0593235 -0.0126767 0)
(0.0589426 -0.0402663 0)
(0.0249376 -0.078304 0)
(0.00523636 -0.268233 0)
(-0.00606472 0.018072 0)
(-0.00867321 0.0105536 0)
(-0.000976871 0.0105465 0)
(0.0073131 0.0134672 0)
(0.016176 0.0143089 0)
(0.025011 0.0138756 0)
(0.0335516 0.0133649 0)
(0.0418884 0.0130754 0)
(0.0502372 0.0129553 0)
(0.0588169 0.0129485 0)
(0.0677689 0.0129989 0)
(0.0770756 0.0129569 0)
(0.0863626 0.0125017 0)
(0.0950872 0.0110862 0)
(0.101393 0.00836774 0)
(0.106127 0.00306361 0)
(0.0981641 -0.0038093 0)
(0.107937 -0.0218302 0)
(0.0302141 -0.0427285 0)
(0.0711979 -0.226034 0)
(0.0407487 0.0925673 0)
(0.062623 0.0699472 0)
(0.0880398 0.0440384 0)
(0.10988 0.0294233 0)
(0.126676 0.021688 0)
(0.140706 0.0171134 0)
(0.153425 0.0140839 0)
(0.16525 0.0119255 0)
(0.176345 0.0102987 0)
(0.186894 0.00903589 0)
(0.197043 0.00802195 0)
(0.206865 0.00715129 0)
(0.216194 0.00636826 0)
(0.224924 0.00557632 0)
(0.231624 0.00468042 0)
(0.238226 0.00340722 0)
(0.231865 0.00192418 0)
(0.252363 -0.00316422 0)
(0.125677 0.00349388 0)
(0.378264 -0.0981215 0)
)
;

boundaryField
{
    movingWall
    {
        type            zeroGradient;
    }
    fixedWalls
    {
        type            zeroGradient;
    }
    frontAndBack
    {
        type            empty;
    }
}


// ************************************************************************* //
