/*--------------------------------*- C++ -*----------------------------------*\
| =========                 |                                                 |
| \\      /  F ield         | OpenFOAM: The Open Source CFD Toolbox           |
|  \\    /   O peration     | Version:  2312                                  |
|   \\  /    A nd           | Website:  www.openfoam.com                      |
|    \\/     M anipulation  |                                                 |
\*---------------------------------------------------------------------------*/
FoamFile
{
    version     2.0;
    format      ascii;
    arch        "LSB;label=32;scalar=64";
    class       volVectorField;
    location    "1.125";
    object      vorticityField;
}
// * * * * * * * * * * * * * * * * * * * * * * * * * * * * * * * * * * * * * //

dimensions      [0 0 -1 0 0 0 0];

internalField   nonuniform List<vector> 
400
(
(0 -0 0.195566)
(0 -0 0.488287)
(0 -0 0.891745)
(0 -0 1.35058)
(0 -0 1.84658)
(0 -0 2.35186)
(0 -0 2.84708)
(0 -0 3.31503)
(0 -0 3.73505)
(0 -0 4.08423)
(0 -0 4.34021)
(0 -0 4.44111)
(0 -0 4.37829)
(0 -0 4.11696)
(0 -0 3.65115)
(0 -0 3.01058)
(0 -0 2.26689)
(0 -0 1.52104)
(0 -0 0.825391)
(0 -0 0.319608)
(0 -0 0.498066)
(0 -0 0.402687)
(0 -0 0.350156)
(0 -0 0.32035)
(0 -0 0.316959)
(0 -0 0.331222)
(0 -0 0.352989)
(0 -0 0.37352)
(0 -0 0.386049)
(0 -0 0.386498)
(0 -0 0.377643)
(0 -0 0.369836)
(0 -0 0.348784)
(0 -0 0.348415)
(0 -0 0.369339)
(0 -0 0.418489)
(0 -0 0.493636)
(0 -0 0.583767)
(0 -0 0.651938)
(0 -0 0.780626)
(0 -0 0.900942)
(0 -0 0.361558)
(0 -0 0.252306)
(0 -0 0.185958)
(0 -0 0.143041)
(0 -0 0.115722)
(0 -0 0.0972308)
(0 -0 0.0824671)
(0 -0 0.0682946)
(0 -0 0.0542881)
(0 -0 0.0434008)
(0 -0 0.0401517)
(0 -0 0.0483068)
(0 -0 0.0777023)
(0 -0 0.132449)
(0 -0 0.213501)
(0 -0 0.313348)
(0 -0 0.427346)
(0 -0 0.590765)
(0 -0 1.40282)
(0 -0 1.35141)
(0 -0 0.327501)
(0 -0 0.196586)
(0 -0 0.132312)
(0 -0 0.0884121)
(0 -0 0.0565758)
(0 -0 0.0324014)
(0 -0 0.0131115)
(0 -0 -0.00255416)
(0 -0 -0.0140836)
(0 -0 -0.019383)
(0 -0 -0.0154158)
(0 -0 0.0014244)
(0 -0 0.0370082)
(0 -0 0.0930246)
(0 -0 0.169522)
(0 -0 0.249725)
(0 -0 0.339778)
(0 -0 0.577559)
(0 -0 2.07513)
(0 -0 1.84095)
(0 -0 0.313424)
(0 -0 0.160699)
(0 -0 0.101462)
(0 -0 0.0624469)
(0 -0 0.0334483)
(0 -0 0.011214)
(0 -0 -0.00597434)
(0 -0 -0.0187712)
(0 -0 -0.0268866)
(0 -0 -0.029318)
(0 -0 -0.0234287)
(0 -0 0.000186948)
(0 -0 0.0549003)
(0 -0 0.154015)
(0 -0 0.301194)
(0 -0 0.45031)
(0 -0 0.490022)
(0 -0 0.661802)
(0 -0 2.68734)
(0 -0 2.34329)
(0 -0 0.315972)
(0 -0 0.138416)
(0 -0 0.0823231)
(0 -0 0.0485254)
(0 -0 0.0238746)
(0 -0 0.0052332)
(0 -0 -0.00887848)
(0 -0 -0.0198058)
(0 -0 -0.0287883)
(0 -0 -0.0339624)
(0 -0 -0.0245723)
(0 -0 0.0326244)
(0 -0 0.192709)
(0 -0 0.553048)
(0 -0 1.17962)
(0 -0 1.89388)
(0 -0 2.1227)
(0 -0 1.60917)
(0 -0 3.07015)
(0 -0 2.84065)
(0 -0 0.33076)
(0 -0 0.125362)
(0 -0 0.0697946)
(0 -0 0.0401064)
(0 -0 0.0196827)
(0 -0 0.00455034)
(0 -0 -0.00791093)
(0 -0 -0.0214607)
(0 -0 -0.0392272)
(0 -0 -0.0535153)
(0 -0 -0.0252273)
(0 -0 0.144868)
(0 -0 0.614778)
(0 -0 1.5529)
(0 -0 2.96464)
(0 -0 4.62178)
(0 -0 6.00506)
(0 -0 5.3015)
(0 -0 3.69265)
(0 -0 3.32065)
(0 -0 0.354487)
(0 -0 0.118721)
(0 -0 0.0611675)
(0 -0 0.0340931)
(0 -0 0.016902)
(0 -0 0.00377522)
(0 -0 -0.0107201)
(0 -0 -0.0342386)
(0 -0 -0.070115)
(0 -0 -0.0960317)
(0 -0 -0.0140916)
(0 -0 0.369397)
(0 -0 0.98805)
(0 -0 1.39497)
(0 -0 2.17209)
(0 -0 4.73695)
(0 -0 8.63745)
(0 -0 10.8014)
(0 -0 6.75897)
(0 -0 3.7736)
(0 -0 0.384894)
(0 -0 0.116728)
(0 -0 0.0548636)
(0 -0 0.0286165)
(0 -0 0.0129386)
(0 -0 -0.000909494)
(0 -0 -0.0224046)
(0 -0 -0.0620581)
(0 -0 -0.116057)
(0 -0 -0.146642)
(0 -0 -0.0815711)
(0 -0 -0.151228)
(0 -0 -1.25367)
(0 -0 -3.46221)
(0 -0 -4.45233)
(0 -0 -1.56802)
(0 -0 5.46683)
(0 -0 13.916)
(0 -0 14.0491)
(0 -0 4.19181)
(0 -0 0.420331)
(0 -0 0.118304)
(0 -0 0.0499348)
(0 -0 0.0225266)
(0 -0 0.00625872)
(0 -0 -0.0112509)
(0 -0 -0.043346)
(0 -0 -0.0995502)
(0 -0 -0.161334)
(0 -0 -0.197489)
(0 -0 -0.484872)
(0 -0 -2.1506)
(0 -0 -6.31986)
(0 -0 -11.5652)
(0 -0 -14.2766)
(0 -0 -12.2059)
(0 -0 -4.15095)
(0 -0 10.2043)
(0 -0 23.8097)
(0 -0 4.56999)
(0 -0 0.459422)
(0 -0 0.122905)
(0 -0 0.0457966)
(0 -0 0.0152809)
(0 -0 -0.00340282)
(0 -0 -0.0261715)
(0 -0 -0.0691698)
(0 -0 -0.140672)
(0 -0 -0.218552)
(0 -0 -0.314921)
(0 -0 -1.17124)
(0 -0 -4.61528)
(0 -0 -10.9051)
(0 -0 -17.3465)
(0 -0 -20.7299)
(0 -0 -20.4152)
(0 -0 -15.4739)
(0 -0 0.179641)
(0 -0 32.4564)
(0 -0 4.90904)
(0 -0 0.500498)
(0 -0 0.129724)
(0 -0 0.0417988)
(0 -0 0.00664712)
(0 -0 -0.0151959)
(0 -0 -0.0424883)
(0 -0 -0.0934638)
(0 -0 -0.179456)
(0 -0 -0.291651)
(0 -0 -0.47966)
(0 -0 -1.66721)
(0 -0 -5.53219)
(0 -0 -12.2977)
(0 -0 -18.7539)
(0 -0 -21.1625)
(0 -0 -20.6708)
(0 -0 -20.4621)
(0 -0 -10.5833)
(0 -0 37.901)
(0 -0 5.21344)
(0 -0 0.542669)
(0 -0 0.136543)
(0 -0 0.035826)
(0 -0 -0.00503646)
(0 -0 -0.0293038)
(0 -0 -0.0580471)
(0 -0 -0.112085)
(0 -0 -0.208735)
(0 -0 -0.357252)
(0 -0 -0.608269)
(0 -0 -1.63411)
(0 -0 -4.81055)
(0 -0 -10.8373)
(0 -0 -16.5959)
(0 -0 -18.1173)
(0 -0 -16.136)
(0 -0 -17.4853)
(0 -0 -16.9426)
(0 -0 40.1814)
(0 -0 5.5168)
(0 -0 0.575912)
(0 -0 0.136748)
(0 -0 0.0218358)
(0 -0 -0.0251129)
(0 -0 -0.0494511)
(0 -0 -0.0745161)
(0 -0 -0.123876)
(0 -0 -0.220067)
(0 -0 -0.383746)
(0 -0 -0.651878)
(0 -0 -1.36335)
(0 -0 -3.52227)
(0 -0 -7.68713)
(0 -0 -12.0247)
(0 -0 -13.6394)
(0 -0 -12.4368)
(0 -0 -13.3989)
(0 -0 -18.6373)
(0 -0 40.5978)
(0 -0 5.80758)
(0 -0 0.613135)
(0 -0 0.121218)
(0 -0 -0.0144638)
(0 -0 -0.0663502)
(0 -0 -0.0877329)
(0 -0 -0.102853)
(0 -0 -0.137358)
(0 -0 -0.217772)
(0 -0 -0.371856)
(0 -0 -0.638319)
(0 -0 -1.14652)
(0 -0 -2.43188)
(0 -0 -4.82386)
(0 -0 -7.51048)
(0 -0 -8.93507)
(0 -0 -9.24308)
(0 -0 -11.194)
(0 -0 -19.713)
(0 -0 39.8216)
(0 -0 6.31816)
(0 -0 0.542042)
(0 -0 0.0279756)
(0 -0 -0.115921)
(0 -0 -0.174112)
(0 -0 -0.183232)
(0 -0 -0.185088)
(0 -0 -0.202181)
(0 -0 -0.259398)
(0 -0 -0.386515)
(0 -0 -0.620985)
(0 -0 -1.02227)
(0 -0 -1.76273)
(0 -0 -3.00805)
(0 -0 -4.61038)
(0 -0 -5.90849)
(0 -0 -6.98813)
(0 -0 -10.0169)
(0 -0 -21.1939)
(0 -0 37.8394)
(0 -0 6.25721)
(0 -0 0.59593)
(0 -0 -0.12202)
(0 -0 -0.388585)
(0 -0 -0.502623)
(0 -0 -0.563796)
(0 -0 -0.606612)
(0 -0 -0.64501)
(0 -0 -0.699306)
(0 -0 -0.80022)
(0 -0 -0.984056)
(0 -0 -1.29928)
(0 -0 -1.77477)
(0 -0 -2.51425)
(0 -0 -3.58646)
(0 -0 -4.76285)
(0 -0 -6.18377)
(0 -0 -10.2989)
(0 -0 -22.4631)
(0 -0 35.1648)
(0 -0 9.23997)
(0 -0 -0.4675)
(0 -0 -1.52479)
(0 -0 -1.99891)
(0 -0 -2.43303)
(0 -0 -2.89271)
(0 -0 -3.26528)
(0 -0 -3.53796)
(0 -0 -3.73475)
(0 -0 -3.8859)
(0 -0 -4.03999)
(0 -0 -4.25917)
(0 -0 -4.58224)
(0 -0 -5.08122)
(0 -0 -5.85813)
(0 -0 -7.13491)
(0 -0 -8.84537)
(0 -0 -13.2122)
(0 -0 -23.6071)
(0 -0 26.7595)
(0 -0 -1.63253)
(0 -0 -7.6508)
(0 -0 -9.0014)
(0 -0 -10.8706)
(0 -0 -12.6118)
(0 -0 -13.7982)
(0 -0 -14.6257)
(0 -0 -15.2553)
(0 -0 -15.7307)
(0 -0 -16.0608)
(0 -0 -16.2691)
(0 -0 -16.4092)
(0 -0 -16.5597)
(0 -0 -16.8114)
(0 -0 -17.2984)
(0 -0 -18.2405)
(0 -0 -19.7435)
(0 -0 -23.234)
(0 -0 -30.4943)
(0 -0 -10.4265)
(0 -0 -180.28)
(0 -0 -199.458)
(0 -0 -195.346)
(0 -0 -190.516)
(0 -0 -186.946)
(0 -0 -184.189)
(0 -0 -181.821)
(0 -0 -179.665)
(0 -0 -177.631)
(0 -0 -175.657)
(0 -0 -173.707)
(0 -0 -171.771)
(0 -0 -169.902)
(0 -0 -168.168)
(0 -0 -166.915)
(0 -0 -165.84)
(0 -0 -167.654)
(0 -0 -163.813)
(0 -0 -193.907)
(0 -0 -145.591)
)
;

boundaryField
{
    movingWall
    {
        type            calculated;
        value           nonuniform List<vector> 
20
(
(0 -0 -367.449)
(0 -0 -379.804)
(0 -0 -368.836)
(0 -0 -358.283)
(0 -0 -350.561)
(0 -0 -344.478)
(0 -0 -339.149)
(0 -0 -334.279)
(0 -0 -329.751)
(0 -0 -325.47)
(0 -0 -321.371)
(0 -0 -317.419)
(0 -0 -313.68)
(0 -0 -310.199)
(0 -0 -307.567)
(0 -0 -304.985)
(0 -0 -307.911)
(0 -0 -298.898)
(0 -0 -359.225)
(0 -0 -239.232)
)
;
    }
    fixedWalls
    {
        type            calculated;
        value           nonuniform List<vector> 
60
(
(0 -0 0.188205)
(0 -0 0.645187)
(0 -0 1.41346)
(0 -0 2.30036)
(0 -0 3.25533)
(0 -0 4.22379)
(0 -0 5.17167)
(0 -0 6.07625)
(0 -0 6.92039)
(0 -0 7.69103)
(0 -0 8.3807)
(0 -0 8.99629)
(0 -0 9.54599)
(0 -0 10.1191)
(0 -0 10.6403)
(0 -0 11.8056)
(0 -0 11.5439)
(0 -0 18.6006)
(0 -0 2.73371)
(0 -0 -159.505)
(0 -0 0.309537)
(0 -0 1.0006)
(0 -0 2.1295)
(0 -0 3.29857)
(0 -0 4.24247)
(0 -0 4.46537)
(0 -0 4.00786)
(0 -0 5.59215)
(0 -0 12.5791)
(0 -0 29.1974)
(0 -0 52.5055)
(0 -0 75.0025)
(0 -0 92.1647)
(0 -0 100.746)
(0 -0 103.963)
(0 -0 104.848)
(0 -0 105.407)
(0 -0 99.3991)
(0 -0 53.1109)
(0 -0 -115.805)
(0 -0 0.188242)
(0 -0 0.636993)
(0 -0 1.40809)
(0 -0 2.29449)
(0 -0 3.24026)
(0 -0 4.19254)
(0 -0 5.12057)
(0 -0 5.99785)
(0 -0 6.79061)
(0 -0 7.45916)
(0 -0 7.95297)
(0 -0 8.14776)
(0 -0 8.05415)
(0 -0 7.54818)
(0 -0 6.64135)
(0 -0 5.38007)
(0 -0 3.90459)
(0 -0 2.42007)
(0 -0 1.09359)
(0 -0 0.318071)
)
;
    }
    frontAndBack
    {
        type            empty;
    }
}


// ************************************************************************* //
