/*--------------------------------*- C++ -*----------------------------------*\
| =========                 |                                                 |
| \\      /  F ield         | OpenFOAM: The Open Source CFD Toolbox           |
|  \\    /   O peration     | Version:  2312                                  |
|   \\  /    A nd           | Website:  www.openfoam.com                      |
|    \\/     M anipulation  |                                                 |
\*---------------------------------------------------------------------------*/
FoamFile
{
    version     2.0;
    format      ascii;
    arch        "LSB;label=32;scalar=64";
    class       volScalarField;
    location    "1.125";
    object      zeroGradient(epsilon);
}
// * * * * * * * * * * * * * * * * * * * * * * * * * * * * * * * * * * * * * //

dimensions      [0 2 -3 0 0 0 0];

internalField   nonuniform List<scalar> 
400
(
0.000222034
0.000375947
0.000539775
0.000675469
0.00078601
0.000879089
0.000961182
0.00103607
0.00110453
0.00116493
0.00121017
0.0012291
0.00123112
0.00119765
0.00111966
0.00099516
0.000825657
0.000619149
0.000391812
0.000234884
0.000373876
0.000371663
0.000449427
0.000513497
0.000559089
0.000591062
0.000614471
0.000632561
0.000646761
0.000656744
0.000660742
0.000660785
0.000659111
0.000651687
0.000632257
0.000595858
0.000538658
0.000460035
0.000387308
0.000403327
0.000567259
0.00044385
0.000488697
0.000535781
0.000570101
0.000593016
0.000607785
0.000617505
0.000624528
0.000629929
0.000634166
0.000638051
0.000641745
0.000643529
0.000637984
0.000618991
0.00058037
0.000523333
0.000481074
0.000590508
0.00073951
0.000517279
0.000539585
0.000577609
0.000606397
0.000625486
0.000638193
0.000647442
0.000655272
0.000663344
0.000673087
0.000685856
0.000702105
0.000720114
0.000731501
0.000726716
0.000690128
0.000619697
0.000568444
0.000750685
0.00088789
0.000576169
0.000582168
0.000615305
0.000643007
0.000662628
0.000676645
0.000688128
0.000699859
0.000714561
0.000735352
0.000766087
0.000810786
0.000871134
0.000937841
0.000971077
0.000943042
0.000810779
0.000674249
0.000886402
0.00101545
0.000622408
0.0006158
0.000645852
0.000673534
0.000694681
0.000711565
0.000727808
0.000747579
0.000776145
0.000821174
0.000894387
0.00101218
0.00119322
0.00143904
0.00162962
0.0016671
0.00139178
0.000930212
0.00100571
0.00112619
0.000658548
0.000641762
0.000669609
0.000697914
0.000721354
0.000742533
0.000766459
0.00080024
0.000854907
0.000949322
0.00111658
0.00141034
0.00189942
0.00261654
0.00332977
0.00354962
0.0031537
0.00182158
0.00116993
0.00122374
0.000687409
0.000661466
0.000687496
0.000716699
0.000742992
0.000769912
0.000805066
0.000861127
0.000960762
0.00114736
0.00150333
0.00216199
0.00325503
0.00471178
0.00616243
0.00696304
0.00690697
0.00477624
0.00180174
0.00131125
0.000711107
0.0006763
0.000700405
0.000730374
0.000759733
0.000793571
0.000843518
0.000931178
0.00109892
0.00143346
0.0020948
0.00324872
0.00472121
0.00591777
0.00702396
0.00880035
0.010803
0.0112234
0.00524243
0.00139135
0.000731314
0.00068743
0.000709064
0.000739223
0.000771303
0.000812357
0.000878926
0.00100351
0.00125156
0.00175095
0.0026764
0.00394334
0.00486572
0.00543646
0.0061316
0.00786204
0.0123466
0.0172558
0.016296
0.00146635
0.000749363
0.000695826
0.000714106
0.000743462
0.00077722
0.000824239
0.000905204
0.00106059
0.00136771
0.00195314
0.00289737
0.00387708
0.00424371
0.00407734
0.00392046
0.00511059
0.00970349
0.0198302
0.030972
0.0015391
0.000766363
0.000702345
0.000716229
0.00074341
0.000777164
0.00082741
0.00091646
0.0010857
0.00140661
0.00197475
0.00282661
0.00350153
0.00341155
0.00286741
0.00250118
0.0031397
0.00707789
0.0193771
0.0399139
0.00161145
0.000783163
0.000707865
0.000716608
0.000741356
0.000774117
0.000824348
0.000913193
0.00107859
0.00138275
0.00190184
0.00261292
0.00308549
0.00291624
0.00240981
0.00205697
0.00247248
0.00525683
0.0172582
0.0457291
0.00169373
0.000801011
0.000713589
0.000717627
0.000739894
0.000771016
0.000819459
0.000904118
0.00105687
0.00132326
0.00175149
0.00232016
0.00275336
0.00265205
0.00233206
0.00210687
0.00245309
0.00464963
0.0162961
0.051062
0.00177114
0.000819339
0.000722237
0.000723635
0.000745365
0.000776623
0.000824105
0.000903669
0.00103686
0.00125395
0.00159003
0.00203381
0.0024424
0.00248502
0.00233278
0.00225765
0.00261905
0.00453981
0.01602
0.0570132
0.00191495
0.00084523
0.000745511
0.000751595
0.000779084
0.000815353
0.000865181
0.000941139
0.00106259
0.00125142
0.00151231
0.00183777
0.0021534
0.00228156
0.00224355
0.00227314
0.00264605
0.00447167
0.0166025
0.0651464
0.00198236
0.000913577
0.000843743
0.00088277
0.000939697
0.00100192
0.00107289
0.00116165
0.00128207
0.00144912
0.00167521
0.00194689
0.00221011
0.00233949
0.00233038
0.00237528
0.00282544
0.00498999
0.0194698
0.0764272
0.00233677
0.00129503
0.00149966
0.00173999
0.00195969
0.00216971
0.00237238
0.00257178
0.00277724
0.00300036
0.00324931
0.00351028
0.0037498
0.00388249
0.00394329
0.00412209
0.00492139
0.00883668
0.0264653
0.0948482
0.00366112
0.00587148
0.009097
0.0114578
0.0131504
0.0145193
0.0156544
0.0165759
0.0172971
0.017865
0.0183344
0.0187165
0.0190441
0.0193818
0.0197035
0.0205292
0.0225031
0.033064
0.0496598
0.127135
0.043884
0.0843826
0.12365
0.148595
0.163784
0.173361
0.179166
0.18235
0.183342
0.182997
0.181951
0.180089
0.177614
0.175567
0.17375
0.174079
0.176645
0.177571
0.193154
0.167569
)
;

boundaryField
{
    movingWall
    {
        type            zeroGradient;
    }
    fixedWalls
    {
        type            zeroGradient;
    }
    frontAndBack
    {
        type            empty;
    }
}


// ************************************************************************* //
