/*--------------------------------*- C++ -*----------------------------------*\
| =========                 |                                                 |
| \\      /  F ield         | OpenFOAM: The Open Source CFD Toolbox           |
|  \\    /   O peration     | Version:  2312                                  |
|   \\  /    A nd           | Website:  www.openfoam.com                      |
|    \\/     M anipulation  |                                                 |
\*---------------------------------------------------------------------------*/
FoamFile
{
    version     2.0;
    format      ascii;
    arch        "LSB;label=32;scalar=64";
    class       volVectorField;
    location    "4.875";
    object      diffU;
}
// * * * * * * * * * * * * * * * * * * * * * * * * * * * * * * * * * * * * * //

dimensions      [0 1 -1 0 0 0 0];

internalField   nonuniform List<vector> 
400
(
(0 0 0)
(5.58786e-12 -5.30171e-09 0)
(7.94032e-13 -4.04306e-09 0)
(2.87304e-12 -4.34212e-09 0)
(1.94844e-12 -4.27114e-09 0)
(2.20302e-12 -4.28803e-09 0)
(2.08689e-12 -4.28402e-09 0)
(2.10643e-12 -4.28498e-09 0)
(2.09044e-12 -4.28475e-09 0)
(2.089e-12 -4.28481e-09 0)
(2.08544e-12 -4.2848e-09 0)
(2.08367e-12 -4.2848e-09 0)
(2.08211e-12 -4.2848e-09 0)
(2.081e-12 -4.2848e-09 0)
(2.08011e-12 -4.2848e-09 0)
(2.07956e-12 -4.2848e-09 0)
(2.07923e-12 -4.2848e-09 0)
(2.079e-12 -4.2848e-09 0)
(2.07911e-12 -4.2848e-09 0)
(2.079e-12 -4.2848e-09 0)
(5.83811e-12 -8.57473e-09 0)
(1.12843e-12 -3.26511e-09 0)
(2.38121e-12 -4.52643e-09 0)
(2.03748e-12 -4.22727e-09 0)
(2.13252e-12 -4.29837e-09 0)
(2.1052e-12 -4.28154e-09 0)
(2.10132e-12 -4.28555e-09 0)
(2.09444e-12 -4.28461e-09 0)
(2.08977e-12 -4.28484e-09 0)
(2.08655e-12 -4.28479e-09 0)
(2.08389e-12 -4.2848e-09 0)
(2.08233e-12 -4.2848e-09 0)
(2.08111e-12 -4.2848e-09 0)
(2.08034e-12 -4.2848e-09 0)
(2.08e-12 -4.2848e-09 0)
(2.07945e-12 -4.2848e-09 0)
(2.07923e-12 -4.2848e-09 0)
(2.079e-12 -4.2848e-09 0)
(2.07911e-12 -4.2848e-09 0)
(2.07878e-12 -4.2848e-09 0)
(-1.97751e-11 2.66947e-12 0)
(6.48126e-12 -5.30306e-09 0)
(2.87104e-13 -4.04298e-09 0)
(2.45814e-12 -4.34211e-09 0)
(1.9631e-12 -4.27111e-09 0)
(2.12286e-12 -4.288e-09 0)
(2.08022e-12 -4.28401e-09 0)
(2.09033e-12 -4.28497e-09 0)
(2.08511e-12 -4.28475e-09 0)
(2.08444e-12 -4.2848e-09 0)
(2.08278e-12 -4.28479e-09 0)
(2.08178e-12 -4.2848e-09 0)
(2.08122e-12 -4.2848e-09 0)
(2.08034e-12 -4.2848e-09 0)
(2.07967e-12 -4.2848e-09 0)
(2.07945e-12 -4.2848e-09 0)
(2.07923e-12 -4.2848e-09 0)
(2.07911e-12 -4.2848e-09 0)
(2.079e-12 -4.2848e-09 0)
(2.079e-12 -4.2848e-09 0)
(2.93054e-11 -8.56646e-09 0)
(-3.49276e-12 -3.26847e-09 0)
(4.13336e-12 -4.52593e-09 0)
(1.57629e-12 -4.22752e-09 0)
(2.20268e-12 -4.29834e-09 0)
(2.03682e-12 -4.28155e-09 0)
(2.08999e-12 -4.28554e-09 0)
(2.07878e-12 -4.2846e-09 0)
(2.08278e-12 -4.28483e-09 0)
(2.08111e-12 -4.28478e-09 0)
(2.08111e-12 -4.2848e-09 0)
(2.08067e-12 -4.2848e-09 0)
(2.08e-12 -4.2848e-09 0)
(2.07967e-12 -4.2848e-09 0)
(2.07956e-12 -4.2848e-09 0)
(2.07945e-12 -4.2848e-09 0)
(2.07945e-12 -4.2848e-09 0)
(2.07934e-12 -4.2848e-09 0)
(2.07923e-12 -4.2848e-09 0)
(2.079e-12 -4.2848e-09 0)
(-2.93137e-11 -1.43482e-11 0)
(8.39295e-12 -5.29814e-09 0)
(-3.40394e-13 -4.04432e-09 0)
(2.60036e-12 -4.34182e-09 0)
(1.90914e-12 -4.27123e-09 0)
(2.11509e-12 -4.28799e-09 0)
(2.06302e-12 -4.28402e-09 0)
(2.08034e-12 -4.28497e-09 0)
(2.07723e-12 -4.28475e-09 0)
(2.079e-12 -4.2848e-09 0)
(2.07911e-12 -4.28479e-09 0)
(2.07967e-12 -4.2848e-09 0)
(2.07923e-12 -4.2848e-09 0)
(2.07945e-12 -4.2848e-09 0)
(2.07945e-12 -4.2848e-09 0)
(2.07934e-12 -4.2848e-09 0)
(2.07934e-12 -4.2848e-09 0)
(2.07911e-12 -4.2848e-09 0)
(2.07911e-12 -4.2848e-09 0)
(2.07911e-12 -4.2848e-09 0)
(3.28585e-11 -8.54355e-09 0)
(-4.16511e-12 -3.2744e-09 0)
(4.36096e-12 -4.52451e-09 0)
(1.52345e-12 -4.22791e-09 0)
(2.20945e-12 -4.29827e-09 0)
(2.02394e-12 -4.28158e-09 0)
(2.083e-12 -4.28555e-09 0)
(2.07145e-12 -4.28461e-09 0)
(2.07767e-12 -4.28483e-09 0)
(2.07767e-12 -4.28478e-09 0)
(2.07834e-12 -4.2848e-09 0)
(2.07856e-12 -4.2848e-09 0)
(2.07878e-12 -4.2848e-09 0)
(2.079e-12 -4.2848e-09 0)
(2.07945e-12 -4.2848e-09 0)
(2.07923e-12 -4.2848e-09 0)
(2.07878e-12 -4.2848e-09 0)
(2.07878e-12 -4.2848e-09 0)
(2.07878e-12 -4.2848e-09 0)
(2.079e-12 -4.2848e-09 0)
(-2.80715e-11 -3.90702e-11 0)
(8.13272e-12 -5.29201e-09 0)
(-1.9762e-13 -4.04583e-09 0)
(2.57272e-12 -4.34148e-09 0)
(1.91758e-12 -4.27134e-09 0)
(2.10765e-12 -4.28798e-09 0)
(2.0588e-12 -4.28403e-09 0)
(2.07523e-12 -4.28497e-09 0)
(2.07345e-12 -4.28475e-09 0)
(2.07567e-12 -4.2848e-09 0)
(2.07634e-12 -4.28479e-09 0)
(2.07745e-12 -4.2848e-09 0)
(2.07812e-12 -4.2848e-09 0)
(2.07834e-12 -4.2848e-09 0)
(2.07834e-12 -4.2848e-09 0)
(2.07856e-12 -4.2848e-09 0)
(2.07834e-12 -4.2848e-09 0)
(2.07878e-12 -4.2848e-09 0)
(2.079e-12 -4.2848e-09 0)
(2.079e-12 -4.2848e-09 0)
(2.9739e-11 -8.51813e-09 0)
(-3.5123e-12 -3.28057e-09 0)
(4.10172e-12 -4.52304e-09 0)
(1.58695e-12 -4.22827e-09 0)
(2.19103e-12 -4.2982e-09 0)
(2.02727e-12 -4.28161e-09 0)
(2.07812e-12 -4.28555e-09 0)
(2.06857e-12 -4.28461e-09 0)
(2.0739e-12 -4.28484e-09 0)
(2.07456e-12 -4.28479e-09 0)
(2.07634e-12 -4.2848e-09 0)
(2.07701e-12 -4.2848e-09 0)
(2.07767e-12 -4.2848e-09 0)
(2.07767e-12 -4.2848e-09 0)
(2.07812e-12 -4.2848e-09 0)
(2.07856e-12 -4.2848e-09 0)
(2.079e-12 -4.2848e-09 0)
(2.07923e-12 -4.2848e-09 0)
(2.079e-12 -4.2848e-09 0)
(2.079e-12 -4.2848e-09 0)
(-2.37292e-11 -6.40455e-11 0)
(7.25242e-12 -5.28602e-09 0)
(1.60094e-13 -4.04726e-09 0)
(2.49412e-12 -4.34114e-09 0)
(1.94156e-12 -4.27143e-09 0)
(2.09976e-12 -4.28797e-09 0)
(2.0588e-12 -4.28404e-09 0)
(2.07279e-12 -4.28497e-09 0)
(2.0719e-12 -4.28475e-09 0)
(2.07456e-12 -4.28481e-09 0)
(2.07545e-12 -4.2848e-09 0)
(2.07634e-12 -4.2848e-09 0)
(2.07678e-12 -4.2848e-09 0)
(2.07767e-12 -4.2848e-09 0)
(2.07812e-12 -4.2848e-09 0)
(2.07856e-12 -4.2848e-09 0)
(2.07911e-12 -4.2848e-09 0)
(2.07911e-12 -4.2848e-09 0)
(2.07911e-12 -4.2848e-09 0)
(2.079e-12 -4.2848e-09 0)
(2.50906e-11 -8.49374e-09 0)
(-2.56373e-12 -3.28637e-09 0)
(3.73435e-12 -4.52167e-09 0)
(1.6751e-12 -4.22861e-09 0)
(2.1676e-12 -4.29813e-09 0)
(2.03437e-12 -4.28164e-09 0)
(2.07523e-12 -4.28555e-09 0)
(2.06812e-12 -4.28462e-09 0)
(2.07301e-12 -4.28484e-09 0)
(2.0739e-12 -4.28479e-09 0)
(2.07523e-12 -4.2848e-09 0)
(2.07656e-12 -4.2848e-09 0)
(2.07723e-12 -4.2848e-09 0)
(2.07789e-12 -4.2848e-09 0)
(2.07789e-12 -4.2848e-09 0)
(2.07834e-12 -4.2848e-09 0)
(2.07856e-12 -4.2848e-09 0)
(2.07878e-12 -4.2848e-09 0)
(2.07878e-12 -4.2848e-09 0)
(2.079e-12 -4.2848e-09 0)
(-1.90632e-11 -8.73127e-11 0)
(6.31206e-12 -5.28052e-09 0)
(5.28244e-13 -4.04857e-09 0)
(2.41107e-12 -4.34084e-09 0)
(1.9662e-12 -4.27151e-09 0)
(2.09321e-12 -4.28795e-09 0)
(2.06102e-12 -4.28405e-09 0)
(2.07234e-12 -4.28498e-09 0)
(2.07123e-12 -4.28476e-09 0)
(2.07367e-12 -4.28481e-09 0)
(2.07501e-12 -4.2848e-09 0)
(2.07612e-12 -4.2848e-09 0)
(2.07678e-12 -4.2848e-09 0)
(2.07767e-12 -4.2848e-09 0)
(2.07767e-12 -4.2848e-09 0)
(2.07856e-12 -4.2848e-09 0)
(2.07878e-12 -4.2848e-09 0)
(2.07856e-12 -4.2848e-09 0)
(2.079e-12 -4.2848e-09 0)
(2.079e-12 -4.2848e-09 0)
(2.0708e-11 -8.47148e-09 0)
(-1.68066e-12 -3.29162e-09 0)
(3.39373e-12 -4.52043e-09 0)
(1.75282e-12 -4.22891e-09 0)
(2.14495e-12 -4.29806e-09 0)
(2.04126e-12 -4.28166e-09 0)
(2.07367e-12 -4.28555e-09 0)
(2.06835e-12 -4.28463e-09 0)
(2.07279e-12 -4.28484e-09 0)
(2.07345e-12 -4.28479e-09 0)
(2.07501e-12 -4.2848e-09 0)
(2.0759e-12 -4.2848e-09 0)
(2.07656e-12 -4.2848e-09 0)
(2.07767e-12 -4.2848e-09 0)
(2.07812e-12 -4.2848e-09 0)
(2.07856e-12 -4.2848e-09 0)
(2.07878e-12 -4.2848e-09 0)
(2.07911e-12 -4.2848e-09 0)
(2.07923e-12 -4.2848e-09 0)
(2.07923e-12 -4.2848e-09 0)
(-1.51814e-11 -1.08252e-10 0)
(5.53069e-12 -5.2756e-09 0)
(8.23563e-13 -4.04974e-09 0)
(2.34157e-12 -4.34057e-09 0)
(1.98508e-12 -4.27158e-09 0)
(2.08733e-12 -4.28794e-09 0)
(2.06213e-12 -4.28406e-09 0)
(2.07234e-12 -4.28498e-09 0)
(2.07212e-12 -4.28476e-09 0)
(2.07412e-12 -4.28481e-09 0)
(2.07545e-12 -4.2848e-09 0)
(2.07634e-12 -4.2848e-09 0)
(2.07701e-12 -4.2848e-09 0)
(2.07745e-12 -4.2848e-09 0)
(2.07834e-12 -4.2848e-09 0)
(2.07834e-12 -4.2848e-09 0)
(2.07834e-12 -4.2848e-09 0)
(2.07856e-12 -4.2848e-09 0)
(2.07878e-12 -4.2848e-09 0)
(2.07878e-12 -4.2848e-09 0)
(1.72873e-11 -8.45155e-09 0)
(-9.97424e-13 -3.2963e-09 0)
(3.13094e-12 -4.51933e-09 0)
(1.81211e-12 -4.22917e-09 0)
(2.12863e-12 -4.29801e-09 0)
(2.04747e-12 -4.28168e-09 0)
(2.07478e-12 -4.28555e-09 0)
(2.07123e-12 -4.28463e-09 0)
(2.07478e-12 -4.28485e-09 0)
(2.0759e-12 -4.28479e-09 0)
(2.07723e-12 -4.28481e-09 0)
(2.07767e-12 -4.2848e-09 0)
(2.07834e-12 -4.2848e-09 0)
(2.07834e-12 -4.2848e-09 0)
(2.07856e-12 -4.2848e-09 0)
(2.07856e-12 -4.2848e-09 0)
(2.07878e-12 -4.2848e-09 0)
(2.079e-12 -4.2848e-09 0)
(2.079e-12 -4.2848e-09 0)
(2.07911e-12 -4.2848e-09 0)
(-1.25207e-11 -1.27009e-10 0)
(4.99434e-12 -5.27121e-09 0)
(1.01941e-12 -4.05079e-09 0)
(2.2945e-12 -4.34034e-09 0)
(1.99929e-12 -4.27164e-09 0)
(2.08689e-12 -4.28794e-09 0)
(2.06724e-12 -4.28407e-09 0)
(2.07523e-12 -4.28499e-09 0)
(2.07523e-12 -4.28477e-09 0)
(2.07656e-12 -4.28482e-09 0)
(2.07701e-12 -4.2848e-09 0)
(2.07767e-12 -4.2848e-09 0)
(2.07834e-12 -4.2848e-09 0)
(2.07856e-12 -4.2848e-09 0)
(2.07856e-12 -4.2848e-09 0)
(2.07923e-12 -4.2848e-09 0)
(2.079e-12 -4.2848e-09 0)
(2.079e-12 -4.2848e-09 0)
(2.079e-12 -4.2848e-09 0)
(2.079e-12 -4.2848e-09 0)
(1.49782e-11 -8.43344e-09 0)
(-5.43121e-13 -3.30055e-09 0)
(2.94786e-12 -4.51834e-09 0)
(1.85163e-12 -4.22942e-09 0)
(2.11975e-12 -4.29797e-09 0)
(2.05502e-12 -4.2817e-09 0)
(2.07745e-12 -4.28555e-09 0)
(2.07501e-12 -4.28464e-09 0)
(2.07767e-12 -4.28485e-09 0)
(2.07789e-12 -4.2848e-09 0)
(2.07812e-12 -4.28481e-09 0)
(2.07834e-12 -4.2848e-09 0)
(2.07856e-12 -4.2848e-09 0)
(2.07878e-12 -4.2848e-09 0)
(2.07878e-12 -4.2848e-09 0)
(2.079e-12 -4.2848e-09 0)
(2.079e-12 -4.2848e-09 0)
(2.079e-12 -4.2848e-09 0)
(2.07911e-12 -4.2848e-09 0)
(2.079e-12 -4.2848e-09 0)
(-1.13414e-11 -1.44324e-10 0)
(4.74387e-12 -5.26716e-09 0)
(1.10023e-12 -4.05178e-09 0)
(2.27596e-12 -4.34013e-09 0)
(2.01039e-12 -4.27171e-09 0)
(2.09333e-12 -4.28794e-09 0)
(2.07501e-12 -4.28408e-09 0)
(2.08122e-12 -4.28499e-09 0)
(2.08034e-12 -4.28477e-09 0)
(2.08067e-12 -4.28482e-09 0)
(2.08011e-12 -4.2848e-09 0)
(2.07956e-12 -4.2848e-09 0)
(2.07945e-12 -4.2848e-09 0)
(2.07956e-12 -4.2848e-09 0)
(2.07945e-12 -4.2848e-09 0)
(2.07956e-12 -4.2848e-09 0)
(2.079e-12 -4.2848e-09 0)
(2.07878e-12 -4.2848e-09 0)
(2.07878e-12 -4.2848e-09 0)
(2.07911e-12 -4.2848e-09 0)
(1.32598e-11 -8.41611e-09 0)
(-2.01839e-13 -3.30462e-09 0)
(2.80775e-12 -4.51746e-09 0)
(1.89293e-12 -4.22968e-09 0)
(2.12319e-12 -4.29794e-09 0)
(2.0719e-12 -4.28172e-09 0)
(2.08777e-12 -4.28556e-09 0)
(2.08344e-12 -4.28464e-09 0)
(2.08333e-12 -4.28485e-09 0)
(2.08222e-12 -4.2848e-09 0)
(2.08145e-12 -4.28481e-09 0)
(2.08078e-12 -4.2848e-09 0)
(2.08045e-12 -4.2848e-09 0)
(2.07978e-12 -4.2848e-09 0)
(2.07945e-12 -4.2848e-09 0)
(2.07911e-12 -4.2848e-09 0)
(2.079e-12 -4.2848e-09 0)
(2.079e-12 -4.2848e-09 0)
(2.07911e-12 -4.2848e-09 0)
(2.07911e-12 -4.2848e-09 0)
(-1.20957e-11 -1.60613e-10 0)
(4.80815e-12 -5.26348e-09 0)
(1.03073e-12 -4.05294e-09 0)
(2.34623e-12 -4.3399e-09 0)
(2.03459e-12 -4.2718e-09 0)
(2.1223e-12 -4.28791e-09 0)
(2.08822e-12 -4.28408e-09 0)
(2.09122e-12 -4.28498e-09 0)
(2.08544e-12 -4.28477e-09 0)
(2.08367e-12 -4.28481e-09 0)
(2.08189e-12 -4.2848e-09 0)
(2.08089e-12 -4.2848e-09 0)
(2.08e-12 -4.2848e-09 0)
(2.07967e-12 -4.2848e-09 0)
(2.07923e-12 -4.2848e-09 0)
(2.07911e-12 -4.2848e-09 0)
(2.07878e-12 -4.2848e-09 0)
(2.079e-12 -4.2848e-09 0)
(2.07911e-12 -4.2848e-09 0)
(2.079e-12 -4.2848e-09 0)
(3.44158e-12 -8.40043e-09 0)
(4.70157e-12 -3.30909e-09 0)
(1.01186e-12 -4.51655e-09 0)
(2.74369e-12 -4.22988e-09 0)
(1.94533e-12 -4.29787e-09 0)
(2.18081e-12 -4.28171e-09 0)
(2.07967e-12 -4.28554e-09 0)
(2.09988e-12 -4.28463e-09 0)
(2.08644e-12 -4.28484e-09 0)
(2.08611e-12 -4.28479e-09 0)
(2.08333e-12 -4.2848e-09 0)
(2.08233e-12 -4.2848e-09 0)
(2.08111e-12 -4.2848e-09 0)
(2.08056e-12 -4.2848e-09 0)
(2.08022e-12 -4.2848e-09 0)
(2.07967e-12 -4.2848e-09 0)
(2.07956e-12 -4.2848e-09 0)
(2.07911e-12 -4.2848e-09 0)
(2.07911e-12 -4.2848e-09 0)
(2.07911e-12 -4.2848e-09 0)
)
;

boundaryField
{
    movingWall
    {
        type            calculated;
        value           uniform (2.079e-12 -4.2848e-09 0);
    }
    fixedWalls
    {
        type            calculated;
        value           uniform (2.079e-12 -4.2848e-09 0);
    }
    frontAndBack
    {
        type            empty;
    }
}


// ************************************************************************* //
