/*--------------------------------*- C++ -*----------------------------------*\
| =========                 |                                                 |
| \\      /  F ield         | OpenFOAM: The Open Source CFD Toolbox           |
|  \\    /   O peration     | Version:  2312                                  |
|   \\  /    A nd           | Website:  www.openfoam.com                      |
|    \\/     M anipulation  |                                                 |
\*---------------------------------------------------------------------------*/
FoamFile
{
    version     2.0;
    format      ascii;
    arch        "LSB;label=32;scalar=64";
    class       volScalarField;
    location    "4.875";
    object      divU;
}
// * * * * * * * * * * * * * * * * * * * * * * * * * * * * * * * * * * * * * //

dimensions      [0 0 -1 0 0 0 0];

internalField   nonuniform List<scalar> 
400
(
-3.69713e-10
3.57364e-10
-2.59753e-10
1.36856e-10
-5.74459e-11
1.74864e-11
-6.74043e-12
1.7584e-12
-6.80203e-13
1.54238e-13
-6.94803e-14
1.70899e-14
-9.35448e-15
-2.57518e-14
2.63065e-14
-1.53268e-14
-1.70104e-16
-3.79324e-15
3.41525e-15
0
5.47793e-10
-4.80451e-10
9.83367e-11
-2.39139e-11
9.32095e-12
-4.00502e-13
3.87093e-13
1.62298e-14
-6.71208e-14
-1.76076e-14
-2.59759e-14
-6.33172e-15
-1.35316e-14
-3.09145e-15
1.21538e-14
-6.49871e-16
2.27754e-14
2.54372e-14
-1.04271e-14
0
-9.1859e-10
1.671e-09
-3.52199e-10
1.42505e-10
-3.13194e-11
1.07842e-11
-2.70225e-12
9.42475e-13
-2.14877e-13
9.85414e-14
6.01607e-15
1.40479e-14
-3.23437e-14
-5.05164e-14
9.50206e-15
-8.63255e-15
-4.27456e-16
-3.68867e-15
4.69469e-15
0
4.63686e-10
-2.02564e-09
3.7291e-10
-1.64507e-10
3.40961e-11
-1.01105e-11
3.11761e-12
-6.47723e-13
2.545e-13
-7.36405e-14
3.90195e-14
-2.26312e-14
5.01495e-15
2.77775e-14
2.99106e-14
-1.466e-14
1.74472e-14
-1.09639e-14
-1.32157e-15
0
-2.16461e-10
2.30434e-09
-4.37275e-10
1.86382e-10
-4.14278e-11
1.19217e-11
-3.65538e-12
9.12103e-13
-2.60278e-13
1.12228e-13
4.80393e-14
3.79909e-14
-2.54816e-14
1.44396e-14
5.52333e-15
2.24798e-15
1.82981e-14
-2.01866e-14
1.40056e-14
-2.71051e-14
-1.86483e-11
-2.23653e-09
4.1842e-10
-1.80444e-10
3.96198e-11
-1.14877e-11
3.49743e-12
-8.72003e-13
3.24351e-13
-8.64382e-14
-1.57401e-14
-1.25674e-14
1.49442e-14
-3.84216e-15
1.14986e-14
-2.30279e-14
-4.14966e-14
3.36746e-16
2.7422e-14
0
1.32029e-10
2.16981e-09
-4.09341e-10
1.74769e-10
-3.89905e-11
1.11895e-11
-3.38499e-12
8.59487e-13
-2.88682e-13
2.61477e-14
5.43805e-14
-1.21325e-14
4.96889e-14
-2.59506e-14
5.7249e-14
-6.11125e-14
3.74036e-14
5.53546e-14
-1.54583e-14
-2.71051e-14
-2.90675e-10
-1.9652e-09
3.6637e-10
-1.57813e-10
3.50133e-11
-1.01192e-11
3.05635e-12
-7.36654e-13
2.34218e-13
-6.58131e-14
4.99519e-14
-1.648e-14
-6.52001e-14
-1.83494e-14
5.1277e-15
1.21501e-14
4.75122e-14
3.34973e-15
-8.77398e-15
0
3.75893e-10
1.8087e-09
-3.38486e-10
1.44759e-10
-3.23598e-11
9.23598e-12
-2.84256e-12
7.46033e-13
-1.98677e-13
6.46208e-14
-5.75271e-14
-1.75923e-15
-2.53002e-16
2.06062e-14
-1.55579e-14
3.14392e-14
4.5809e-14
4.39369e-15
-1.21172e-15
-2.71051e-14
-4.89843e-10
-1.58548e-09
2.92849e-10
-1.26309e-10
2.80168e-11
-8.08572e-12
2.45408e-12
-6.03101e-13
1.63303e-13
-7.64998e-14
1.75839e-14
6.73911e-15
2.6581e-14
-4.16253e-14
-3.38457e-14
5.55794e-14
-4.37643e-14
-7.174e-15
3.42073e-14
0
5.34647e-10
1.43448e-09
-2.66239e-10
1.139e-10
-2.549e-11
7.30823e-12
-2.25957e-12
5.66511e-13
-2.27388e-13
8.37317e-14
-3.89028e-14
2.43096e-14
-3.99209e-15
5.60789e-15
5.27077e-15
4.06298e-14
-3.41265e-14
-1.6315e-14
3.28404e-14
0
-6.06991e-10
-1.23941e-09
2.26286e-10
-9.79632e-11
2.17393e-11
-6.19269e-12
1.8242e-12
-4.36172e-13
1.12052e-13
-9.14422e-14
3.82801e-14
-3.32269e-14
2.95514e-14
1.15085e-14
5.67044e-15
1.63515e-14
2.89777e-14
3.33215e-14
-1.29271e-14
-5.42101e-14
6.12439e-10
1.13234e-09
-2.08859e-10
8.94045e-11
-2.00162e-11
5.63088e-12
-1.74453e-12
4.76084e-13
-1.94836e-13
2.10023e-14
2.5907e-14
4.05944e-14
-4.21168e-14
4.02702e-14
2.71676e-14
-4.05116e-14
-3.79826e-14
4.8503e-14
-3.48121e-14
5.42101e-14
-6.62448e-10
-9.76145e-10
1.75906e-10
-7.66531e-11
1.68292e-11
-4.81773e-12
1.49543e-12
-3.79713e-13
1.37626e-13
-2.76272e-14
2.43706e-14
2.0062e-14
-3.39805e-15
-3.08955e-14
2.30582e-14
-1.85228e-14
-3.34064e-14
3.72498e-14
9.82275e-15
-5.42101e-14
6.4201e-10
9.29021e-10
-1.71296e-10
7.30402e-11
-1.64287e-11
4.62025e-12
-1.42038e-12
3.23945e-13
-8.86957e-14
1.11093e-14
-5.82055e-14
4.83035e-14
4.31468e-14
-3.87259e-14
-2.21573e-14
5.48608e-14
-4.24852e-14
1.30396e-14
1.81755e-14
2.71051e-14
-7.03783e-10
-7.98102e-10
1.40464e-10
-6.21274e-11
1.33234e-11
-3.9029e-12
1.15654e-12
-2.19601e-13
1.58325e-13
-5.65717e-14
1.06634e-14
-5.89766e-14
-4.30907e-16
-1.92573e-14
2.66394e-14
-1.39384e-14
1.01007e-14
4.03568e-14
-3.12168e-14
0
6.58002e-10
8.37277e-10
-1.59091e-10
6.55391e-11
-1.54448e-11
4.46083e-12
-1.33062e-12
3.97308e-13
-4.67717e-14
5.0967e-14
-2.66061e-14
-3.03072e-14
2.96967e-14
2.90502e-14
5.76299e-15
2.02488e-14
-2.06495e-14
-2.76408e-14
4.54312e-14
0
-7.38965e-10
-6.77471e-10
9.38344e-11
-4.59537e-11
9.02394e-12
-1.4499e-12
7.69442e-13
6.47775e-14
5.21775e-14
1.02091e-14
2.14613e-14
-1.41327e-14
2.15893e-14
1.14236e-15
-2.06232e-14
-2.37993e-14
2.49651e-14
7.79444e-15
1.32418e-14
-2.71051e-14
4.23516e-10
8.65536e-10
-1.5454e-10
8.06021e-11
-1.52386e-11
6.11144e-12
-1.7098e-12
5.28956e-13
-2.20249e-13
1.80362e-14
-3.80368e-14
-1.13168e-14
1.25203e-14
-1.60752e-14
6.86883e-16
-1.92728e-15
9.35688e-15
4.4176e-14
-3.28775e-15
0
-4.57452e-10
5.38848e-11
-2.0711e-10
1.11022e-10
-4.94396e-11
1.58565e-11
-5.8818e-12
1.6263e-12
-5.69206e-13
1.6263e-13
-8.13152e-14
0
-2.71051e-14
2.71051e-14
0
-2.71051e-14
0
0
2.71051e-14
-2.71051e-14
)
;

boundaryField
{
    movingWall
    {
        type            extrapolatedCalculated;
        value           nonuniform List<scalar> 
20
(
-4.57452e-10
5.38848e-11
-2.0711e-10
1.11022e-10
-4.94396e-11
1.58565e-11
-5.8818e-12
1.6263e-12
-5.69206e-13
1.6263e-13
-8.13152e-14
0
-2.71051e-14
2.71051e-14
0
-2.71051e-14
0
0
2.71051e-14
-2.71051e-14
)
;
    }
    fixedWalls
    {
        type            extrapolatedCalculated;
        value           nonuniform List<scalar> 
60
(
-3.69713e-10
5.47793e-10
-9.1859e-10
4.63686e-10
-2.16461e-10
-1.86483e-11
1.32029e-10
-2.90675e-10
3.75893e-10
-4.89843e-10
5.34647e-10
-6.06991e-10
6.12439e-10
-6.62448e-10
6.4201e-10
-7.03783e-10
6.58002e-10
-7.38965e-10
4.23516e-10
-4.57452e-10
0
0
0
0
-2.71051e-14
0
-2.71051e-14
0
-2.71051e-14
0
0
-5.42101e-14
5.42101e-14
-5.42101e-14
2.71051e-14
0
0
-2.71051e-14
0
-2.71051e-14
-3.69713e-10
3.57364e-10
-2.59753e-10
1.36856e-10
-5.74459e-11
1.74864e-11
-6.74043e-12
1.7584e-12
-6.80203e-13
1.54238e-13
-6.94803e-14
1.70899e-14
-9.35448e-15
-2.57518e-14
2.63065e-14
-1.53268e-14
-1.70104e-16
-3.79324e-15
3.41525e-15
0
)
;
    }
    frontAndBack
    {
        type            empty;
    }
}


// ************************************************************************* //
