/*--------------------------------*- C++ -*----------------------------------*\
| =========                 |                                                 |
| \\      /  F ield         | OpenFOAM: The Open Source CFD Toolbox           |
|  \\    /   O peration     | Version:  2312                                  |
|   \\  /    A nd           | Website:  www.openfoam.com                      |
|    \\/     M anipulation  |                                                 |
\*---------------------------------------------------------------------------*/
FoamFile
{
    version     2.0;
    format      ascii;
    arch        "LSB;label=32;scalar=64";
    class       volScalarField;
    location    "4.875";
    object      enstrophyField;
}
// * * * * * * * * * * * * * * * * * * * * * * * * * * * * * * * * * * * * * //

dimensions      [0 0 -2 0 0 0 0];

internalField   nonuniform List<scalar> 
400
(
5.33407e-14
8.1835e-14
4.6135e-15
2.61831e-16
1.46708e-17
8.49484e-19
4.55499e-20
2.99579e-21
1.09622e-22
1.81169e-23
2.81264e-26
5.6369e-25
1.34987e-25
7.004e-26
3.0075e-26
6.00104e-27
2.84716e-27
8.42363e-29
3.80268e-28
4.87066e-30
5.28276e-14
8.19075e-14
4.62384e-15
2.61009e-16
1.4734e-17
8.31796e-19
4.69369e-20
2.65286e-21
1.48804e-22
8.55535e-24
4.32416e-25
2.58645e-26
2.13544e-27
2.81968e-28
9.02088e-28
1.37539e-27
1.17763e-27
7.08575e-28
3.65032e-29
1.04539e-29
5.26744e-14
8.16496e-14
4.60028e-15
2.59171e-16
1.46008e-17
8.22648e-19
4.63357e-20
2.61109e-21
1.46824e-22
8.27537e-24
4.17821e-25
4.39001e-26
8.09371e-29
1.73976e-27
6.62407e-28
2.62492e-27
1.85485e-27
5.40567e-27
2.24604e-27
1.90284e-29
5.30008e-14
8.15524e-14
4.5929e-15
2.58648e-16
1.45656e-17
8.20347e-19
4.62045e-20
2.59889e-21
1.46423e-22
8.29186e-24
4.98629e-25
1.11798e-26
1.34376e-27
1.90944e-27
3.55733e-27
5.01041e-27
2.42724e-27
1.43276e-27
2.30101e-27
2.55518e-28
5.29283e-14
8.11763e-14
4.57053e-15
2.57325e-16
1.4487e-17
8.15802e-19
4.58765e-20
2.59231e-21
1.43277e-22
8.73358e-24
3.9339e-25
3.50729e-26
1.90354e-29
8.46922e-27
1.0926e-26
2.81173e-27
3.15605e-29
2.93129e-29
1.72022e-28
1.3181e-27
5.2799e-14
8.07739e-14
4.54726e-15
2.55972e-16
1.44101e-17
8.11016e-19
4.56975e-20
2.5675e-21
1.45816e-22
7.78383e-24
4.61995e-25
2.38569e-26
1.62021e-26
1.09168e-30
3.64431e-28
2.13329e-28
7.95731e-29
7.13927e-29
1.14038e-27
1.19029e-27
5.25412e-14
8.02966e-14
4.52002e-15
2.54421e-16
1.43203e-17
8.06213e-19
4.53675e-20
2.55987e-21
1.43962e-22
7.84246e-24
3.80614e-25
5.22536e-26
3.40775e-28
3.15935e-28
6.75493e-27
1.36996e-29
4.7698e-27
9.24427e-27
7.55415e-28
3.88255e-28
5.22758e-14
7.98389e-14
4.49408e-15
2.52948e-16
1.42376e-17
8.0132e-19
4.50993e-20
2.5371e-21
1.44305e-22
7.59294e-24
5.76088e-25
1.21608e-26
8.21704e-29
1.54473e-28
4.72234e-27
4.60092e-27
1.36675e-26
5.68441e-27
4.51476e-28
2.98339e-28
5.19768e-14
7.93679e-14
4.46746e-15
2.51448e-16
1.41521e-17
7.96626e-19
4.48243e-20
2.52961e-21
1.41441e-22
8.21773e-24
4.10316e-25
3.67492e-26
5.99535e-29
5.18475e-27
6.1065e-28
1.32225e-27
2.2065e-28
2.69896e-28
1.00489e-27
4.74146e-28
5.16868e-14
7.89241e-14
4.44248e-15
2.50037e-16
1.40736e-17
7.91946e-19
4.46072e-20
2.50949e-21
1.41049e-22
8.02194e-24
4.46666e-25
2.41911e-26
7.70166e-27
1.20047e-27
1.74379e-28
2.58413e-28
1.89571e-29
2.13016e-27
4.16704e-28
5.85284e-28
5.1397e-14
7.84929e-14
4.41821e-15
2.48671e-16
1.3997e-17
7.87759e-19
4.43329e-20
2.49513e-21
1.40789e-22
7.73959e-24
4.74524e-25
1.69018e-26
8.44426e-27
7.42373e-28
3.53647e-27
1.02099e-28
8.73862e-28
8.61525e-28
5.17373e-28
8.08169e-28
5.11163e-14
7.8085e-14
4.39528e-15
2.47385e-16
1.3924e-17
7.83819e-19
4.40647e-20
2.48552e-21
1.39795e-22
7.84165e-24
4.27991e-25
3.72586e-26
2.2675e-27
2.14042e-28
4.77438e-27
1.99531e-30
7.63277e-28
1.58124e-33
5.528e-28
2.55273e-28
5.0854e-14
7.77037e-14
4.37386e-15
2.46184e-16
1.38564e-17
7.79946e-19
4.38668e-20
2.48011e-21
1.37862e-22
8.35668e-24
3.36838e-25
4.76825e-26
1.27778e-27
1.52532e-28
1.71666e-29
2.2705e-28
1.25197e-29
7.50191e-29
1.86598e-28
8.27121e-29
5.05909e-14
7.73329e-14
4.35307e-15
2.45015e-16
1.37915e-17
7.76095e-19
4.37318e-20
2.45948e-21
1.39572e-22
7.82724e-24
4.38714e-25
2.28303e-26
6.31711e-27
1.47714e-29
1.83636e-27
1.32336e-29
2.97914e-28
6.54626e-28
3.91154e-28
2.79338e-29
5.03617e-14
7.69983e-14
4.33431e-15
2.43962e-16
1.37318e-17
7.72914e-19
4.35375e-20
2.44448e-21
1.38663e-22
7.42277e-24
5.97128e-25
8.84873e-27
6.688e-27
2.2094e-28
1.81141e-27
1.31687e-27
3.98694e-28
3.17586e-28
3.3594e-33
1.40061e-27
5.01043e-14
7.665e-14
4.31476e-15
2.42866e-16
1.36703e-17
7.69505e-19
4.33099e-20
2.43904e-21
1.37556e-22
7.43581e-24
4.74641e-25
2.74679e-26
1.00201e-28
5.15685e-28
1.14809e-27
4.80256e-28
8.25278e-28
6.2864e-28
1.77071e-27
3.36883e-29
4.99229e-14
7.63546e-14
4.2982e-15
2.41937e-16
1.36189e-17
7.66477e-19
4.31417e-20
2.42926e-21
1.37113e-22
7.90799e-24
3.72804e-25
3.01298e-26
1.18911e-30
1.23759e-29
3.41449e-28
1.85376e-27
8.31225e-28
3.68552e-27
3.51424e-28
2.30425e-28
4.96243e-14
7.59947e-14
4.27801e-15
2.40805e-16
1.35544e-17
7.63082e-19
4.29263e-20
2.42051e-21
1.34779e-22
8.0971e-24
3.72769e-25
3.06457e-26
2.23741e-29
5.68354e-27
5.05933e-27
2.83718e-27
2.7356e-27
1.09882e-27
5.24855e-29
1.39903e-27
4.97805e-14
7.5942e-14
4.28156e-15
2.41371e-16
1.36069e-17
7.67292e-19
4.32118e-20
2.44597e-21
1.35665e-22
7.78742e-24
4.23585e-25
3.76883e-26
4.04108e-27
8.16435e-28
2.54349e-27
4.42236e-28
4.66423e-27
1.81536e-28
1.95201e-28
2.27016e-30
4.96985e-14
7.56307e-14
4.25872e-15
2.41149e-16
1.35275e-17
7.77571e-19
4.22684e-20
2.66677e-21
1.11348e-22
1.34463e-23
9.33247e-27
3.30481e-25
4.05588e-26
3.01145e-26
1.39088e-26
4.28925e-27
1.88326e-27
5.61623e-28
6.98048e-28
7.85858e-28
)
;

boundaryField
{
    movingWall
    {
        type            calculated;
        value           nonuniform List<scalar> 
20
(
4.91245e-14
7.58306e-14
4.27861e-15
2.44956e-16
1.37136e-17
8.1058e-19
4.24749e-20
3.04771e-21
8.9206e-23
2.35467e-23
3.72809e-25
1.28507e-24
3.44803e-25
2.11445e-25
1.21354e-25
3.85749e-26
2.62678e-26
1.29127e-27
1.49431e-27
1.62158e-27
)
;
    }
    fixedWalls
    {
        type            calculated;
        value           nonuniform List<scalar> 
60
(
1.46847e-12
1.46889e-12
1.46657e-12
1.46498e-12
1.45833e-12
1.45117e-12
1.44263e-12
1.43442e-12
1.42597e-12
1.418e-12
1.41025e-12
1.40291e-12
1.39606e-12
1.38939e-12
1.38336e-12
1.3771e-12
1.37177e-12
1.36529e-12
1.36233e-12
1.35718e-12
1.21064e-28
1.20593e-30
3.20016e-28
8.71239e-29
2.52375e-27
1.60361e-27
5.08431e-28
2.48112e-28
1.4221e-28
4.8589e-28
1.16892e-27
3.6861e-31
3.15662e-29
1.196e-28
1.18043e-27
9.59653e-29
2.72337e-28
1.21362e-27
5.0772e-29
7.43514e-28
5.36677e-14
8.22999e-14
4.65352e-15
2.67406e-16
1.4913e-17
8.9513e-19
4.55063e-20
3.53571e-21
7.75685e-23
3.40678e-23
1.40194e-24
2.29175e-24
7.45347e-25
3.59868e-25
1.1163e-25
3.13209e-26
6.05753e-27
8.42363e-29
1.00718e-27
4.87066e-30
)
;
    }
    frontAndBack
    {
        type            empty;
    }
}


// ************************************************************************* //
