/*--------------------------------*- C++ -*----------------------------------*\
| =========                 |                                                 |
| \\      /  F ield         | OpenFOAM: The Open Source CFD Toolbox           |
|  \\    /   O peration     | Version:  2312                                  |
|   \\  /    A nd           | Website:  www.openfoam.com                      |
|    \\/     M anipulation  |                                                 |
\*---------------------------------------------------------------------------*/
FoamFile
{
    version     2.0;
    format      ascii;
    arch        "LSB;label=32;scalar=64";
    class       volScalarField;
    location    "4.875";
    object      flowTypeField;
}
// * * * * * * * * * * * * * * * * * * * * * * * * * * * * * * * * * * * * * //

dimensions      [0 0 0 0 0 0 0];

internalField   nonuniform List<scalar> 
400
(
0.000515409
-0.000632477
-0.0010202
-0.0032868
-0.00134456
-0.0116125
0.0104086
-0.0583459
0.135911
-0.373697
0.811036
-0.116246
0.197899
0.137011
0.114294
0.31069
0.198367
0.58894
-0.00911772
0.325033
0.00604758
0.000221034
0.000526969
-0.00181779
-0.000278804
-0.00627535
0.00213619
-0.0221759
0.0322736
-0.0966174
0.289975
0.417507
0.753665
0.848468
0.647129
0.501927
0.315845
0.192329
0.744649
0.500487
0.00719546
0.00115493
0.00183186
0.00204849
0.00131166
0.00531684
-0.00369409
0.0213315
-0.0418582
0.120708
-0.218206
0.438021
0.932427
0.715027
0.707395
0.260875
0.159391
-0.326728
-0.450832
0.0832068
0.00295652
0.000493329
0.000669199
0.000660817
0.00103711
-0.000595974
0.00568566
-0.0140513
0.0439996
-0.151557
0.262369
0.347727
0.797126
0.615295
0.420355
0.0524286
0.0306044
0.142544
-0.145322
0.417623
0.001145
0.000193785
0.000257805
0.000283497
0.000162305
0.00107236
-0.0022646
0.0102685
-0.0296038
0.0786423
-0.428722
0.450138
0.952155
0.300101
0.000168148
0.290149
0.869164
0.860376
0.65741
0.122591
-0.000324894
-3.8439e-05
-0.000130478
-7.58105e-05
-0.000111205
-0.000546563
0.00147396
-0.0075828
0.024009
-0.0806765
0.239484
0.158376
0.349258
0.985097
0.746095
0.759527
0.856149
0.811229
0.315211
0.0190849
-0.000904585
-0.000137572
-0.000254587
-0.000237114
-0.000300647
-0.000212993
-0.00156449
0.00363862
-0.0210169
0.0846589
-0.16085
0.337273
0.849161
0.811662
0.403498
0.938059
0.144841
-0.0459566
0.0698867
0.042433
-0.00129132
-0.000198642
-0.000361895
-0.000312364
-0.000416721
-0.000602125
0.000280777
-0.00379299
0.00883131
-0.0239945
0.107223
0.276195
0.917123
0.816795
0.316106
0.287004
-0.115874
-0.922862
0.241323
0.0112282
-0.00139455
-0.000219114
-0.000375239
-0.000359049
-0.000414987
-0.000534851
-0.000774212
0.000207182
-0.00784912
0.0262041
-0.0402114
0.271635
0.919753
0.463128
0.704428
0.494706
0.748248
0.564112
0.0136245
0.226757
-0.00141073
-0.000221301
-0.000379846
-0.000345536
-0.000446181
-0.00046815
-0.000657049
-0.00151404
0.00405826
-0.0160484
0.108601
0.27513
0.445062
0.517663
0.760175
0.764384
0.82153
0.285758
0.491847
0.000501582
-0.00133061
-0.000209817
-0.000353377
-0.000326014
-0.000421966
-0.000488213
-0.000429378
-0.000623644
-0.00139459
0.0206535
0.0280041
0.444913
0.359257
0.633303
0.288992
0.848617
0.208795
0.219501
0.465187
-0.46812
-0.00118318
-0.000187467
-0.000308008
-0.000294321
-0.000348954
-0.000438301
-0.0002279
1.31386e-05
-0.00412338
0.0169921
0.0396267
0.243746
0.674969
0.851473
0.281223
0.9504
0.54014
0.983087
0.00661425
0.566777
-0.00104479
-0.000164413
-0.000274385
-0.000251918
-0.000301943
-0.000478842
0.000470758
-0.00449955
0.0131599
-0.0634992
0.23399
0.042694
0.743011
0.869853
0.928256
0.370011
0.818707
0.817271
0.300016
0.716521
-0.000812398
-0.000129307
-0.000204609
-0.000202272
-0.000262749
-3.39259e-05
-0.00161422
0.00347969
-0.0191621
0.05462
-0.172693
0.423304
0.283475
0.933986
0.275508
0.8602
0.276688
0.488088
0.271515
0.799646
-0.000704898
-0.000109303
-0.000192357
-0.000168696
-0.000162514
-0.000594386
0.00092559
-0.00536983
0.0177051
-0.0567539
0.0770736
0.35009
0.421567
0.730061
0.226322
0.527614
0.515354
0.00633493
0.972342
-0.655715
-0.000352432
-5.87831e-05
-8.3358e-05
-7.49056e-05
-0.000204119
0.000508181
-0.00255688
0.0084702
-0.0300362
0.0954625
-0.411106
0.44958
0.863563
0.765939
0.595551
0.471992
0.000784223
0.188124
-0.20174
0.679468
-0.000523254
-8.17912e-05
-0.000146879
-0.00017686
7.37631e-05
-0.00136615
0.00359439
-0.0125663
0.0317019
-0.122227
0.276818
-0.0233688
0.988263
0.935669
0.693581
0.173142
0.386125
-0.0221328
0.502009
0.00515812
0.000256812
2.05156e-05
7.89408e-05
0.000325175
-0.000450935
0.00234769
-0.00445164
0.013869
-0.0322744
0.070763
-0.208187
0.401225
0.933952
0.288833
0.184151
0.116598
-0.258732
0.14222
0.688978
-0.156119
-0.00310211
-0.00125337
-0.00194024
-0.00387647
-0.00340464
-0.00886422
-0.00270687
-0.0241333
0.0224093
-0.0942951
0.205398
0.149282
0.546108
0.702622
0.425818
0.508839
0.11291
0.466697
0.387416
0.898213
-0.00407581
-0.00137742
-0.00229527
-0.00425182
-0.00337518
-0.0117246
0.00375668
-0.04727
0.0901412
-0.273002
0.855727
-0.218426
0.237531
0.0289145
0.15147
0.254368
0.28171
0.336566
0.103608
0.0309782
)
;

boundaryField
{
    movingWall
    {
        type            calculated;
        value           nonuniform List<scalar> 
20
(
0.764569
0.267791
0.267175
0.261911
0.264174
0.248501
0.273441
0.191231
0.402102
-0.156131
0.579164
-0.183168
0.0683092
-0.0239778
0.0282726
0.0424993
0.0344751
0.284455
0.0816354
-0.0409087
)
;
    }
    fixedWalls
    {
        type            calculated;
        value           nonuniform List<scalar> 
60
(
9.81816e-05
0.00115279
0.00138143
0.000577629
0.000235885
-4.57491e-05
-0.000157327
-0.000233987
-0.000255605
-0.000261263
-0.000247456
-0.00022112
-0.000195515
-0.000152338
-0.000132065
-6.5689e-05
-9.7958e-05
4.98114e-05
-0.000588781
-0.000778064
0.0337081
0.965071
0.00636071
0.456166
0.148437
0.0143332
0.0331494
0.0134041
0.00820839
0.000602871
-0.755913
0.977493
0.874187
0.70808
-0.595456
0.476502
0.476286
0.121091
0.613381
0.255413
0.763731
0.267687
0.267031
0.260999
0.265209
0.244997
0.280655
0.171104
0.463856
-0.247876
0.42158
-0.125223
0.0740123
0.0104455
0.0268845
0.0672376
0.0565383
0.557032
-0.00807898
0.7139
)
;
    }
    frontAndBack
    {
        type            empty;
    }
}


// ************************************************************************* //
