/*--------------------------------*- C++ -*----------------------------------*\
| =========                 |                                                 |
| \\      /  F ield         | OpenFOAM: The Open Source CFD Toolbox           |
|  \\    /   O peration     | Version:  2312                                  |
|   \\  /    A nd           | Website:  www.openfoam.com                      |
|    \\/     M anipulation  |                                                 |
\*---------------------------------------------------------------------------*/
FoamFile
{
    version     2.0;
    format      ascii;
    arch        "LSB;label=32;scalar=64";
    class       volTensorField;
    location    "4.875";
    object      gradU;
}
// * * * * * * * * * * * * * * * * * * * * * * * * * * * * * * * * * * * * * //

dimensions      [0 0 -1 0 0 0 0];

internalField   nonuniform List<tensor> 
400
(
(1.42979e-10 3.26789e-07 0 1.67997e-10 -5.12698e-10 0 0 0 0)
(7.94178e-11 -4.04306e-07 0 2.55818e-10 2.77946e-10 0 0 0 0)
(-2.71457e-10 9.5959e-08 0 -9.82829e-11 1.17044e-11 0 0 0 0)
(1.15413e-10 -2.28084e-08 0 7.52707e-11 2.14429e-11 0 0 0 0)
(-6.70308e-11 5.40909e-09 0 -7.69784e-12 9.58491e-12 0 0 0 0)
(1.38778e-11 -1.2884e-09 0 1.50433e-11 3.60865e-12 0 0 0 0)
(-9.6765e-12 3.04836e-10 0 3.00866e-12 2.93607e-12 0 0 0 0)
(3.52366e-13 -7.31227e-11 0 4.2826e-12 1.40604e-12 0 0 0 0)
(-1.73472e-12 1.70295e-11 0 2.22261e-12 1.05452e-12 0 0 0 0)
(-4.87891e-13 -4.25762e-12 0 1.76183e-12 6.42129e-13 0 0 0 0)
(-5.42101e-13 9.01235e-13 0 1.13841e-12 4.72621e-13 0 0 0 0)
(-3.25261e-13 -2.75735e-13 0 7.86047e-13 3.42351e-13 0 0 0 0)
(-2.71051e-13 2.25103e-14 0 5.42101e-13 2.61696e-13 0 0 0 0)
(-2.1684e-13 -4.90119e-14 0 3.25261e-13 1.91089e-13 0 0 0 0)
(-1.0842e-13 -2.84146e-14 0 2.1684e-13 1.34727e-13 0 0 0 0)
(-1.0842e-13 -2.82389e-14 0 8.13152e-14 9.30934e-14 0 0 0 0)
(-5.42101e-14 -2.12506e-14 0 5.42101e-14 5.404e-14 0 0 0 0)
(-2.71051e-14 -1.29797e-14 0 0 2.33118e-14 0 0 0 0)
(0 -4.72773e-16 0 2.71051e-14 3.41525e-15 0 0 0 0)
(0 -3.12111e-15 0 0 4.27836e-15 0 0 0 0)
(2.80863e-10 -3.27024e-07 0 -1.97748e-09 2.66947e-10 0 0 0 0)
(-3.45671e-10 4.0483e-07 0 8.93112e-11 -1.34791e-10 0 0 0 0)
(9.09104e-11 -9.62155e-08 0 -5.06593e-11 7.4314e-12 0 0 0 0)
(-2.48824e-11 2.28063e-08 0 -4.14707e-11 9.65671e-13 0 0 0 0)
(6.77626e-12 -5.42692e-09 0 1.51788e-12 2.55496e-12 0 0 0 0)
(-3.11708e-12 1.28175e-09 0 -8.0502e-12 2.7129e-12 0 0 0 0)
(-1.0842e-12 -3.07039e-10 0 -6.50521e-13 1.46257e-12 0 0 0 0)
(-1.13841e-12 7.12412e-11 0 -1.5992e-12 1.15807e-12 0 0 0 0)
(-8.13152e-13 -1.77934e-11 0 -5.42101e-13 7.48608e-13 0 0 0 0)
(-5.69206e-13 3.67572e-12 0 -4.60786e-13 5.59991e-13 0 0 0 0)
(-4.33681e-13 -1.20101e-12 0 -2.71051e-13 3.9587e-13 0 0 0 0)
(-2.71051e-13 6.48098e-14 0 -1.6263e-13 2.74734e-13 0 0 0 0)
(-1.89735e-13 -1.73772e-13 0 -1.0842e-13 1.85558e-13 0 0 0 0)
(-1.35525e-13 -7.79574e-14 0 -5.42101e-14 1.31081e-13 0 0 0 0)
(-8.13152e-14 -6.95806e-14 0 -2.71051e-14 9.42675e-14 0 0 0 0)
(-8.13152e-14 -5.24478e-14 0 0 6.88871e-14 0 0 0 0)
(-2.71051e-14 -4.8531e-14 0 0 5.00505e-14 0 0 0 0)
(0 -3.76451e-14 0 0 2.92304e-14 0 0 0 0)
(-2.71051e-14 -1.85607e-14 0 -2.71051e-14 1.32627e-14 0 0 0 0)
(0 -4.5725e-15 0 0 -1.02148e-14 0 0 0 0)
(-1.74519e-09 3.26921e-07 0 2.34673e-09 8.26591e-10 0 0 0 0)
(2.00623e-09 -4.04565e-07 0 -4.62141e-10 -3.35249e-10 0 0 0 0)
(-4.0232e-10 9.60947e-08 0 1.7518e-10 5.01215e-11 0 0 0 0)
(1.67618e-10 -2.28132e-08 0 -4.61057e-11 -2.51053e-11 0 0 0 0)
(-3.3529e-11 5.41084e-09 0 6.9931e-12 2.21276e-12 0 0 0 0)
(1.16823e-11 -1.28949e-09 0 -6.80337e-12 -9.04193e-13 0 0 0 0)
(-3.25261e-12 3.03281e-10 0 -1.13841e-12 5.42733e-13 0 0 0 0)
(5.14996e-13 -7.38367e-11 0 -1.57209e-12 4.38354e-13 0 0 0 0)
(-5.96311e-13 1.64314e-11 0 -7.04731e-13 3.94345e-13 0 0 0 0)
(-2.43945e-13 -4.61036e-12 0 -5.42101e-13 3.32989e-13 0 0 0 0)
(-2.43945e-13 6.15978e-13 0 -2.98156e-13 2.48832e-13 0 0 0 0)
(-1.6263e-13 -4.86046e-13 0 -1.89735e-13 1.8301e-13 0 0 0 0)
(-1.6263e-13 -1.21143e-13 0 -1.0842e-13 1.43818e-13 0 0 0 0)
(-1.6263e-13 -1.40303e-13 0 -8.13152e-14 1.15205e-13 0 0 0 0)
(-8.13152e-14 -9.06081e-14 0 -5.42101e-14 7.86634e-14 0 0 0 0)
(-5.42101e-14 -7.24558e-14 0 0 4.62274e-14 0 0 0 0)
(-2.71051e-14 -6.09073e-14 0 0 3.10073e-14 0 0 0 0)
(-2.71051e-14 -4.97675e-14 0 5.42101e-14 2.50843e-14 0 0 0 0)
(0 -3.9918e-14 0 2.71051e-14 1.51218e-14 0 0 0 0)
(0 -6.16902e-15 0 0 2.91182e-15 0 0 0 0)
(2.16545e-09 -3.26533e-07 0 -9.53854e-10 -1.70177e-09 0 0 0 0)
(-2.51725e-09 4.04054e-07 0 1.91199e-10 4.91606e-10 0 0 0 0)
(5.06946e-10 -9.59053e-08 0 -6.27482e-11 -1.3404e-10 0 0 0 0)
(-1.93096e-10 2.27583e-08 0 1.4203e-11 2.86022e-11 0 0 0 0)
(4.60786e-11 -5.40272e-09 0 -5.39391e-12 -1.19694e-11 0 0 0 0)
(-1.12757e-11 1.28008e-09 0 -8.13152e-13 1.16888e-12 0 0 0 0)
(4.20128e-12 -3.05696e-10 0 -1.70762e-12 -1.09193e-12 0 0 0 0)
(-7.31836e-13 7.10928e-11 0 -1.00289e-12 9.03153e-14 0 0 0 0)
(2.43945e-13 -1.78988e-11 0 -7.86047e-13 8.59081e-15 0 0 0 0)
(-1.6263e-13 3.53021e-12 0 -5.42101e-13 9.88686e-14 0 0 0 0)
(-5.42101e-14 -1.35099e-12 0 -3.52366e-13 8.72135e-14 0 0 0 0)
(-1.0842e-13 -4.02044e-14 0 -1.89735e-13 9.88461e-14 0 0 0 0)
(-8.13152e-14 -2.41577e-13 0 -1.89735e-13 9.15688e-14 0 0 0 0)
(-5.42101e-14 -1.43112e-13 0 -8.13152e-14 7.82939e-14 0 0 0 0)
(-2.71051e-14 -1.38559e-13 0 -5.42101e-14 4.75136e-14 0 0 0 0)
(-2.71051e-14 -1.00104e-13 0 0 2.10776e-14 0 0 0 0)
(0 -6.96741e-14 0 0 1.78746e-14 0 0 0 0)
(-2.71051e-14 -5.35306e-14 0 0 1.98299e-14 0 0 0 0)
(-2.71051e-14 -4.07331e-14 0 2.71051e-14 2.10888e-14 0 0 0 0)
(-2.71051e-14 -2.26061e-14 0 0 2.40862e-14 0 0 0 0)
(-2.5079e-09 3.25711e-07 0 3.55266e-10 2.29144e-09 0 0 0 0)
(2.89734e-09 -4.02997e-07 0 -6.72476e-11 -5.93006e-10 0 0 0 0)
(-5.79289e-10 9.56317e-08 0 2.27954e-11 1.42016e-10 0 0 0 0)
(2.24972e-10 -2.26912e-08 0 -5.28549e-12 -3.85828e-11 0 0 0 0)
(-4.8518e-11 5.3834e-09 0 6.50521e-13 7.09225e-12 0 0 0 0)
(1.53957e-11 -1.27862e-09 0 -1.27394e-12 -3.47364e-12 0 0 0 0)
(-3.49655e-12 3.02203e-10 0 -7.04731e-13 -1.59361e-13 0 0 0 0)
(1.40946e-12 -7.27362e-11 0 -7.31836e-13 -5.00158e-13 0 0 0 0)
(-1.35525e-13 1.644e-11 0 -4.87891e-13 -1.35307e-13 0 0 0 0)
(1.89735e-13 -4.53174e-12 0 -3.52366e-13 -8.51819e-14 0 0 0 0)
(5.42101e-14 6.15956e-13 0 -2.71051e-13 -1.80852e-14 0 0 0 0)
(2.71051e-14 -4.81691e-13 0 -2.1684e-13 6.41206e-15 0 0 0 0)
(-2.71051e-14 -1.41695e-13 0 -1.35525e-13 -3.39152e-15 0 0 0 0)
(2.71051e-14 -1.84358e-13 0 -5.42101e-14 -1.3338e-14 0 0 0 0)
(0 -1.47824e-13 0 0 2.7178e-15 0 0 0 0)
(-2.71051e-14 -1.02095e-13 0 -2.71051e-14 1.6908e-14 0 0 0 0)
(0 -6.2155e-14 0 -5.42101e-14 2.7956e-14 0 0 0 0)
(-2.71051e-14 -4.65534e-14 0 -5.42101e-14 1.78823e-14 0 0 0 0)
(0 -3.56617e-14 0 -5.42101e-14 1.53272e-14 0 0 0 0)
(-2.71051e-14 -5.1344e-14 0 0 1.0858e-14 0 0 0 0)
(2.45355e-09 -3.24834e-07 0 1.24222e-10 -2.4722e-09 0 0 0 0)
(-2.84977e-09 4.01904e-07 0 -2.60209e-11 6.13242e-10 0 0 0 0)
(5.68854e-10 -9.53509e-08 0 1.42573e-11 -1.50444e-10 0 0 0 0)
(-2.15133e-10 2.26234e-08 0 -2.76472e-12 3.46808e-11 0 0 0 0)
(5.00359e-11 -5.36761e-09 0 8.40257e-13 -1.04048e-11 0 0 0 0)
(-1.2631e-11 1.27283e-09 0 -7.58942e-13 1.14777e-12 0 0 0 0)
(4.74338e-12 -3.02723e-10 0 -4.06576e-13 -1.24975e-12 0 0 0 0)
(-5.42101e-13 7.11168e-11 0 -5.42101e-13 -3.20433e-13 0 0 0 0)
(6.23416e-13 -1.74838e-11 0 -4.06576e-13 -3.09838e-13 0 0 0 0)
(5.42101e-14 3.64743e-12 0 -2.98156e-13 -1.44456e-13 0 0 0 0)
(8.13152e-14 -1.2594e-12 0 -2.98156e-13 -9.08844e-14 0 0 0 0)
(5.42101e-14 -2.55107e-14 0 -2.43945e-13 -7.76634e-14 0 0 0 0)
(8.13152e-14 -2.61327e-13 0 -8.13152e-14 -6.79944e-14 0 0 0 0)
(5.42101e-14 -1.37003e-13 0 -1.35525e-13 -4.53868e-14 0 0 0 0)
(0 -1.08313e-13 0 -8.13152e-14 5.97523e-15 0 0 0 0)
(-5.42101e-14 -7.48658e-14 0 -5.42101e-14 2.89342e-14 0 0 0 0)
(-5.42101e-14 -6.86998e-14 0 -8.13152e-14 2.15204e-14 0 0 0 0)
(0 -6.61594e-14 0 -5.42101e-14 -6.58169e-15 0 0 0 0)
(5.42101e-14 -4.77574e-14 0 0 -1.36887e-14 0 0 0 0)
(0 -4.87913e-14 0 0 -9.78937e-15 0 0 0 0)
(-2.40967e-09 3.23852e-07 0 -3.11925e-10 2.54168e-09 0 0 0 0)
(2.78738e-09 -4.00676e-07 0 6.52961e-11 -6.17552e-10 0 0 0 0)
(-5.56006e-10 9.50532e-08 0 -2.59395e-11 1.46666e-10 0 0 0 0)
(2.11528e-10 -2.25511e-08 0 6.36969e-12 -3.67527e-11 0 0 0 0)
(-4.65123e-11 5.34987e-09 0 -1.81604e-12 7.52954e-12 0 0 0 0)
(1.41217e-11 -1.26946e-09 0 3.52366e-13 -2.93713e-12 0 0 0 0)
(-3.2255e-12 3.00735e-10 0 -4.87891e-13 -1.60367e-13 0 0 0 0)
(1.46367e-12 -7.17963e-11 0 -2.43945e-13 -5.99545e-13 0 0 0 0)
(2.71051e-14 1.6616e-11 0 -3.52366e-13 -3.14878e-13 0 0 0 0)
(2.71051e-13 -4.31278e-12 0 -3.52366e-13 -2.3978e-13 0 0 0 0)
(2.1684e-13 6.82749e-13 0 -1.89735e-13 -1.73825e-13 0 0 0 0)
(1.35525e-13 -4.58801e-13 0 -1.35525e-13 -1.3509e-13 0 0 0 0)
(1.35525e-13 -1.09419e-13 0 -1.35525e-13 -7.36755e-14 0 0 0 0)
(0 -1.10388e-13 0 -1.35525e-13 -2.21084e-14 0 0 0 0)
(5.42101e-14 -7.35035e-14 0 -1.89735e-13 -8.45962e-15 0 0 0 0)
(-5.42101e-14 -8.65496e-14 0 -8.13152e-14 -1.09795e-14 0 0 0 0)
(5.42101e-14 -9.76709e-14 0 0 -2.952e-14 0 0 0 0)
(8.13152e-14 -8.17624e-14 0 5.42101e-14 -2.62973e-14 0 0 0 0)
(0 -3.88694e-14 0 0 -1.57752e-14 0 0 0 0)
(0 -2.78659e-14 0 0 -8.58908e-15 0 0 0 0)
(2.20687e-09 -3.2291e-07 0 4.34223e-10 -2.49753e-09 0 0 0 0)
(-2.56373e-09 3.99509e-07 0 -8.80372e-11 5.98537e-10 0 0 0 0)
(5.09954e-10 -9.47701e-08 0 3.57787e-11 -1.43584e-10 0 0 0 0)
(-1.91091e-10 2.24843e-08 0 -7.86047e-12 3.32818e-11 0 0 0 0)
(4.40457e-11 -5.3338e-09 0 2.41235e-12 -9.01902e-12 0 0 0 0)
(-1.13299e-11 1.26514e-09 0 -8.13152e-13 1.21558e-12 0 0 0 0)
(4.11997e-12 -3.00385e-10 0 -5.42101e-14 -1.06676e-12 0 0 0 0)
(-3.79471e-13 7.09623e-11 0 -2.71051e-13 -3.49308e-13 0 0 0 0)
(6.23416e-13 -1.7124e-11 0 -1.35525e-13 -3.98671e-13 0 0 0 0)
(2.1684e-13 3.78849e-12 0 -1.0842e-13 -2.81696e-13 0 0 0 0)
(2.71051e-13 -1.15471e-12 0 -8.13152e-14 -2.21269e-13 0 0 0 0)
(1.35525e-13 7.46387e-14 0 -8.13152e-14 -1.39873e-13 0 0 0 0)
(2.71051e-14 -1.48345e-13 0 -1.35525e-13 -8.77839e-14 0 0 0 0)
(5.42101e-14 -7.1787e-14 0 -5.42101e-14 -7.3714e-14 0 0 0 0)
(8.13152e-14 -9.71837e-14 0 0 -7.92264e-14 0 0 0 0)
(8.13152e-14 -9.59262e-14 0 0 -6.22627e-14 0 0 0 0)
(8.13152e-14 -8.40176e-14 0 8.13152e-14 -4.41014e-14 0 0 0 0)
(0 -5.24146e-14 0 5.42101e-14 2.20524e-15 0 0 0 0)
(-2.71051e-14 -3.00492e-14 0 0 6.6843e-15 0 0 0 0)
(0 -2.4427e-14 0 0 -3.75588e-15 0 0 0 0)
(-2.06351e-09 3.21953e-07 0 -4.64879e-10 2.43939e-09 0 0 0 0)
(2.38896e-09 -3.98322e-07 0 9.48677e-11 -5.8026e-10 0 0 0 0)
(-4.75829e-10 9.44879e-08 0 -3.67545e-11 1.37353e-10 0 0 0 0)
(1.78162e-10 -2.24166e-08 0 8.78204e-12 -3.33954e-11 0 0 0 0)
(-3.9465e-11 5.3178e-09 0 -2.35814e-12 7.1116e-12 0 0 0 0)
(1.17365e-11 -1.26151e-09 0 7.31836e-13 -2.49145e-12 0 0 0 0)
(-2.71051e-12 2.9917e-10 0 -2.43945e-13 -1.25538e-13 0 0 0 0)
(1.32815e-12 -7.11282e-11 0 0 -5.77297e-13 0 0 0 0)
(1.6263e-13 1.66836e-11 0 -1.35525e-13 -3.5158e-13 0 0 0 0)
(3.79471e-13 -4.13538e-12 0 -8.13152e-14 -3.03247e-13 0 0 0 0)
(1.6263e-13 8.24572e-13 0 -8.13152e-14 -2.15899e-13 0 0 0 0)
(1.35525e-13 -3.25316e-13 0 -5.42101e-14 -1.4791e-13 0 0 0 0)
(1.35525e-13 -4.32599e-14 0 -5.42101e-14 -1.24788e-13 0 0 0 0)
(1.35525e-13 -1.01831e-13 0 0 -1.23675e-13 0 0 0 0)
(8.13152e-14 -6.20522e-14 0 -2.71051e-14 -1.02001e-13 0 0 0 0)
(8.13152e-14 -5.14246e-14 0 0 -6.20261e-14 0 0 0 0)
(8.13152e-14 -3.3203e-14 0 -5.42101e-14 -2.88083e-14 0 0 0 0)
(0 -3.09767e-14 0 -5.42101e-14 1.04396e-15 0 0 0 0)
(0 -4.48305e-14 0 0 7.56226e-15 0 0 0 0)
(-2.71051e-14 -3.07944e-14 0 0 2.22432e-15 0 0 0 0)
(1.83688e-09 -3.21051e-07 0 4.66641e-10 -2.32672e-09 0 0 0 0)
(-2.13563e-09 3.97207e-07 0 -9.40274e-11 5.50153e-10 0 0 0 0)
(4.23896e-10 -9.42233e-08 0 3.68358e-11 -1.3105e-10 0 0 0 0)
(-1.56667e-10 2.2354e-08 0 -8.29415e-12 3.03671e-11 0 0 0 0)
(3.59142e-11 -5.30289e-09 0 2.49366e-12 -7.90103e-12 0 0 0 0)
(-9.24282e-12 1.2579e-09 0 -6.23416e-13 1.16395e-12 0 0 0 0)
(3.38813e-12 -2.98471e-10 0 2.1684e-13 -9.37521e-13 0 0 0 0)
(-2.1684e-13 7.07363e-11 0 -1.0842e-13 -3.73352e-13 0 0 0 0)
(5.69206e-13 -1.685e-11 0 -5.42101e-14 -3.96962e-13 0 0 0 0)
(2.1684e-13 3.92417e-12 0 -8.13152e-14 -3.03751e-13 0 0 0 0)
(2.71051e-13 -9.99372e-13 0 -5.42101e-14 -2.5015e-13 0 0 0 0)
(1.89735e-13 1.6575e-13 0 -5.42101e-14 -1.81237e-13 0 0 0 0)
(1.6263e-13 -1.2411e-13 0 0 -1.35796e-13 0 0 0 0)
(5.42101e-14 -4.89994e-14 0 0 -8.93365e-14 0 0 0 0)
(2.71051e-14 -3.5535e-14 0 -5.42101e-14 -7.2498e-14 0 0 0 0)
(1.0842e-13 -2.27338e-14 0 0 -5.7175e-14 0 0 0 0)
(0 -2.09476e-14 0 -2.71051e-14 -3.53632e-14 0 0 0 0)
(2.71051e-14 -1.6044e-14 0 -8.13152e-14 -3.86727e-14 0 0 0 0)
(5.42101e-14 -2.88688e-14 0 0 -1.87911e-14 0 0 0 0)
(0 -3.42136e-14 0 0 1.09533e-15 0 0 0 0)
(-1.69092e-09 3.20177e-07 0 -4.38262e-10 2.22557e-09 0 0 0 0)
(1.95915e-09 -3.96126e-07 0 8.83083e-11 -5.24679e-10 0 0 0 0)
(-3.90096e-10 9.39681e-08 0 -3.40982e-11 1.23851e-10 0 0 0 0)
(1.43792e-10 -2.22934e-08 0 7.75205e-12 -2.98923e-11 0 0 0 0)
(-3.17942e-11 5.2886e-09 0 -2.33103e-12 6.31409e-12 0 0 0 0)
(9.51387e-12 -1.25455e-09 0 6.50521e-13 -2.19724e-12 0 0 0 0)
(-2.1413e-12 2.97632e-10 0 -1.35525e-13 -1.05792e-13 0 0 0 0)
(1.0842e-12 -7.05876e-11 0 5.42101e-14 -5.10901e-13 0 0 0 0)
(1.0842e-13 1.67532e-11 0 -2.71051e-14 -3.36482e-13 0 0 0 0)
(3.79471e-13 -3.98857e-12 0 -5.42101e-14 -3.00554e-13 0 0 0 0)
(2.1684e-13 9.47086e-13 0 -2.71051e-14 -2.46222e-13 0 0 0 0)
(2.1684e-13 -2.10963e-13 0 -2.71051e-14 -1.9927e-13 0 0 0 0)
(1.35525e-13 4.86407e-14 0 -8.13152e-14 -1.38993e-13 0 0 0 0)
(8.13152e-14 -3.85324e-14 0 0 -8.82921e-14 0 0 0 0)
(8.13152e-14 -2.98907e-14 0 5.42101e-14 -6.93037e-14 0 0 0 0)
(1.0842e-13 -1.42898e-14 0 0 -6.91597e-14 0 0 0 0)
(0 -1.47007e-14 0 2.71051e-14 -4.45723e-14 0 0 0 0)
(2.71051e-14 -1.44046e-14 0 2.71051e-14 -3.62461e-14 0 0 0 0)
(5.42101e-14 -5.06242e-15 0 2.71051e-14 -2.8472e-14 0 0 0 0)
(0 -1.30986e-14 0 2.71051e-14 -1.23174e-15 0 0 0 0)
(1.48696e-09 -3.1935e-07 0 3.88199e-10 -2.09396e-09 0 0 0 0)
(-1.73147e-09 3.95105e-07 0 -7.8171e-11 4.92056e-10 0 0 0 0)
(3.43367e-10 -9.37285e-08 0 2.95716e-11 -1.17068e-10 0 0 0 0)
(-1.24873e-10 2.22365e-08 0 -6.91179e-12 2.69049e-11 0 0 0 0)
(2.88398e-11 -5.2752e-09 0 1.92446e-12 -7.08922e-12 0 0 0 0)
(-7.12863e-12 1.25148e-09 0 -5.69206e-13 9.4608e-13 0 0 0 0)
(2.71051e-12 -2.96785e-10 0 8.13152e-14 -8.76458e-13 0 0 0 0)
(-8.13152e-14 7.05056e-11 0 0 -3.52161e-13 0 0 0 0)
(5.14996e-13 -1.66397e-11 0 8.13152e-14 -3.92396e-13 0 0 0 0)
(1.89735e-13 4.01443e-12 0 5.42101e-14 -2.83594e-13 0 0 0 0)
(2.71051e-13 -8.98088e-13 0 2.71051e-14 -2.20973e-13 0 0 0 0)
(1.6263e-13 2.72978e-13 0 0 -1.93062e-13 0 0 0 0)
(1.89735e-13 -1.31322e-14 0 5.42101e-14 -1.56192e-13 0 0 0 0)
(1.35525e-13 2.06902e-14 0 0 -1.29625e-13 0 0 0 0)
(8.13152e-14 -1.64026e-14 0 8.13152e-14 -8.09155e-14 0 0 0 0)
(5.42101e-14 1.99765e-15 0 0 -5.13833e-14 0 0 0 0)
(8.13152e-14 1.19661e-14 0 -2.71051e-14 -4.5316e-14 0 0 0 0)
(5.42101e-14 5.62359e-17 0 0 -3.16786e-14 0 0 0 0)
(0 6.14551e-15 0 -2.71051e-14 -1.86624e-14 0 0 0 0)
(-5.42101e-14 -4.5098e-15 0 -2.71051e-14 -7.29793e-15 0 0 0 0)
(-1.38084e-09 3.18575e-07 0 -3.42093e-10 1.99329e-09 0 0 0 0)
(1.60047e-09 -3.94149e-07 0 6.83318e-11 -4.68128e-10 0 0 0 0)
(-3.18918e-10 9.3503e-08 0 -2.62648e-11 1.10046e-10 0 0 0 0)
(1.16172e-10 -2.21834e-08 0 5.9089e-12 -2.67623e-11 0 0 0 0)
(-2.54516e-11 5.26264e-09 0 -1.65341e-12 5.43435e-12 0 0 0 0)
(7.72494e-12 -1.24833e-09 0 6.23416e-13 -2.08133e-12 0 0 0 0)
(-1.51788e-12 2.96334e-10 0 1.35525e-13 -2.34802e-13 0 0 0 0)
(1.02999e-12 -7.01035e-11 0 3.25261e-13 -5.51418e-13 0 0 0 0)
(1.6263e-13 1.68218e-11 0 2.1684e-13 -3.61098e-13 0 0 0 0)
(3.25261e-13 -3.81715e-12 0 2.71051e-13 -2.94131e-13 0 0 0 0)
(2.1684e-13 1.03762e-12 0 2.1684e-13 -2.02108e-13 0 0 0 0)
(1.89735e-13 -1.46182e-13 0 1.6263e-13 -1.43019e-13 0 0 0 0)
(8.13152e-14 1.12078e-13 0 1.6263e-13 -1.25878e-13 0 0 0 0)
(1.35525e-13 3.67441e-14 0 5.42101e-14 -1.06764e-13 0 0 0 0)
(8.13152e-14 4.83507e-14 0 5.42101e-14 -5.9818e-14 0 0 0 0)
(0 2.13096e-14 0 0 -2.9758e-14 0 0 0 0)
(0 5.00394e-15 0 0 -3.98552e-14 0 0 0 0)
(8.13152e-14 1.2249e-14 0 0 -3.90287e-14 0 0 0 0)
(0 1.93183e-14 0 0 -2.18849e-14 0 0 0 0)
(5.42101e-14 1.28617e-14 0 0 -1.72044e-14 0 0 0 0)
(1.2132e-09 -3.17825e-07 0 2.66063e-10 -1.87564e-09 0 0 0 0)
(-1.41564e-09 3.93222e-07 0 -5.36409e-11 4.39503e-10 0 0 0 0)
(2.80971e-10 -9.32871e-08 0 1.95698e-11 -1.05078e-10 0 0 0 0)
(-1.00234e-10 2.21319e-08 0 -4.71628e-12 2.35694e-11 0 0 0 0)
(2.35272e-11 -5.25052e-09 0 1.43657e-12 -6.68525e-12 0 0 0 0)
(-5.42101e-12 1.24581e-09 0 -5.42101e-14 6.10255e-13 0 0 0 0)
(2.41235e-12 -2.95255e-10 0 4.87891e-13 -9.07113e-13 0 0 0 0)
(0 7.03793e-11 0 2.43945e-13 -3.67905e-13 0 0 0 0)
(4.87891e-13 -1.63824e-11 0 3.25261e-13 -3.45164e-13 0 0 0 0)
(2.1684e-13 4.17341e-12 0 2.1684e-13 -2.38365e-13 0 0 0 0)
(1.89735e-13 -7.46976e-13 0 1.89735e-13 -1.64167e-13 0 0 0 0)
(1.0842e-13 3.49209e-13 0 1.35525e-13 -1.01848e-13 0 0 0 0)
(5.42101e-14 2.31232e-14 0 1.35525e-13 -6.97014e-14 0 0 0 0)
(0 8.67505e-14 0 8.13152e-14 -4.40606e-14 0 0 0 0)
(5.42101e-14 6.0603e-14 0 0 -3.12144e-14 0 0 0 0)
(2.71051e-14 2.19604e-14 0 2.71051e-14 -3.22214e-14 0 0 0 0)
(0 2.69545e-15 0 2.71051e-14 -2.25289e-14 0 0 0 0)
(5.42101e-14 1.80265e-14 0 5.42101e-14 -1.12532e-14 0 0 0 0)
(2.71051e-14 2.79698e-14 0 0 -9.57529e-15 0 0 0 0)
(-2.71051e-14 3.45795e-14 0 2.71051e-14 -3.38449e-15 0 0 0 0)
(-1.16844e-09 3.17139e-07 0 -2.30881e-10 1.81045e-09 0 0 0 0)
(1.35403e-09 -3.92379e-07 0 4.54552e-11 -4.25001e-10 0 0 0 0)
(-2.70021e-10 9.3087e-08 0 -1.83501e-11 9.87305e-11 0 0 0 0)
(9.80119e-11 -2.20851e-08 0 3.95734e-12 -2.49716e-11 0 0 0 0)
(-2.07625e-11 5.23968e-09 0 -8.94467e-13 4.3368e-12 0 0 0 0)
(6.77626e-12 -1.24255e-09 0 7.58942e-13 -2.16298e-12 0 0 0 0)
(-1.13841e-12 2.95356e-10 0 2.71051e-13 -2.86628e-13 0 0 0 0)
(7.86047e-13 -6.95416e-11 0 3.79471e-13 -4.6186e-13 0 0 0 0)
(1.35525e-13 1.69513e-11 0 2.98156e-13 -2.26322e-13 0 0 0 0)
(1.89735e-13 -3.63615e-12 0 2.1684e-13 -1.78104e-13 0 0 0 0)
(8.13152e-14 1.17414e-12 0 8.13152e-14 -1.36786e-13 0 0 0 0)
(1.6263e-13 -5.17166e-14 0 8.13152e-14 -1.07284e-13 0 0 0 0)
(1.0842e-13 1.69865e-13 0 5.42101e-14 -6.18754e-14 0 0 0 0)
(0 7.5231e-14 0 5.42101e-14 -3.49354e-14 0 0 0 0)
(2.71051e-14 6.01899e-14 0 0 -4.52156e-14 0 0 0 0)
(8.13152e-14 2.99952e-14 0 8.13152e-14 -3.50367e-14 0 0 0 0)
(-2.71051e-14 2.59721e-14 0 5.42101e-14 -9.07881e-15 0 0 0 0)
(0 2.52026e-14 0 0 2.89493e-15 0 0 0 0)
(0 2.7187e-14 0 2.71051e-14 8.3528e-15 0 0 0 0)
(0 2.58215e-14 0 -2.71051e-14 7.33e-15 0 0 0 0)
(1.02772e-09 -3.1644e-07 0 1.17934e-10 -1.73149e-09 0 0 0 0)
(-1.20303e-09 3.9151e-07 0 -2.50722e-11 4.04934e-10 0 0 0 0)
(2.39473e-10 -9.28871e-08 0 8.10441e-12 -9.90173e-11 0 0 0 0)
(-8.28059e-11 2.20375e-08 0 -1.81604e-12 2.06864e-11 0 0 0 0)
(2.03288e-11 -5.22771e-09 0 1.11131e-12 -7.00237e-12 0 0 0 0)
(-4.25549e-12 1.24119e-09 0 6.23416e-13 3.40193e-13 0 0 0 0)
(2.03288e-12 -2.93554e-10 0 7.58942e-13 -8.65416e-13 0 0 0 0)
(0 7.04396e-11 0 5.96311e-13 -2.18286e-13 0 0 0 0)
(3.25261e-13 -1.60986e-11 0 4.87891e-13 -1.59555e-13 0 0 0 0)
(0 4.26295e-12 0 4.06576e-13 -6.7681e-14 0 0 0 0)
(8.13152e-14 -6.76156e-13 0 2.98156e-13 -6.66563e-14 0 0 0 0)
(0 4.24119e-13 0 1.89735e-13 -5.307e-14 0 0 0 0)
(5.42101e-14 9.54715e-14 0 8.13152e-14 -4.35777e-14 0 0 0 0)
(2.71051e-14 1.0341e-13 0 1.35525e-13 -3.47415e-14 0 0 0 0)
(5.42101e-14 6.05018e-14 0 1.0842e-13 -3.25184e-14 0 0 0 0)
(0 5.80972e-14 0 2.71051e-14 -1.4589e-14 0 0 0 0)
(0 4.0627e-14 0 0 -1.6242e-15 0 0 0 0)
(2.71051e-14 3.54581e-14 0 0 2.12061e-16 0 0 0 0)
(-2.71051e-14 3.24048e-14 0 -2.71051e-14 4.81778e-15 0 0 0 0)
(0 1.88967e-14 0 2.71051e-14 -4.63683e-16 0 0 0 0)
(-1.07553e-09 3.15812e-07 0 -1.71846e-10 1.73353e-09 0 0 0 0)
(1.24412e-09 -3.90746e-07 0 3.41524e-11 -4.06852e-10 0 0 0 0)
(-2.46792e-10 9.27028e-08 0 -1.39862e-11 8.76947e-11 0 0 0 0)
(9.10188e-11 -2.1993e-08 0 4.09286e-12 -2.54771e-11 0 0 0 0)
(-1.82417e-11 5.21934e-09 0 3.52366e-13 2.80915e-12 0 0 0 0)
(6.451e-12 -1.23642e-09 0 1.70762e-12 -1.9904e-12 0 0 0 0)
(-1.21973e-12 2.94797e-10 0 1.0571e-12 -1.01923e-13 0 0 0 0)
(5.42101e-13 -6.88357e-11 0 8.67362e-13 -1.42033e-13 0 0 0 0)
(-5.42101e-14 1.71019e-11 0 5.42101e-13 1.17438e-14 0 0 0 0)
(0 -3.54325e-12 0 4.33681e-13 5.33286e-14 0 0 0 0)
(-1.0842e-13 1.18875e-12 0 3.25261e-13 7.11507e-14 0 0 0 0)
(-8.13152e-14 -2.8638e-14 0 2.1684e-13 5.57745e-14 0 0 0 0)
(0 1.88193e-13 0 1.89735e-13 3.01276e-14 0 0 0 0)
(0 8.62903e-14 0 8.13152e-14 2.12024e-14 0 0 0 0)
(-2.71051e-14 8.03424e-14 0 5.42101e-14 3.33337e-14 0 0 0 0)
(-2.71051e-14 6.08894e-14 0 0 3.41872e-14 0 0 0 0)
(-5.42101e-14 4.07732e-14 0 0 2.34599e-14 0 0 0 0)
(-5.42101e-14 3.16446e-14 0 -5.42101e-14 1.33176e-14 0 0 0 0)
(5.42101e-14 2.65113e-14 0 0 -4.66716e-15 0 0 0 0)
(0 2.14674e-14 0 0 -2.22772e-15 0 0 0 0)
(8.89994e-10 -3.15113e-07 0 -7.54605e-11 -1.62896e-09 0 0 0 0)
(-1.0452e-09 3.89865e-07 0 6.4239e-12 3.67725e-10 0 0 0 0)
(2.09468e-10 -9.25057e-08 0 -6.9931e-12 -1.15622e-10 0 0 0 0)
(-6.84674e-11 2.19526e-08 0 7.02021e-12 2.25146e-11 0 0 0 0)
(1.79164e-11 -5.20422e-09 0 2.38524e-12 -8.89755e-12 0 0 0 0)
(-3.55076e-12 1.23828e-09 0 2.90024e-12 2.11237e-12 0 0 0 0)
(1.13841e-12 -2.91705e-10 0 1.30104e-12 -3.66493e-13 0 0 0 0)
(-4.06576e-13 7.05533e-11 0 9.75782e-13 4.80622e-13 0 0 0 0)
(-1.35525e-13 -1.59032e-11 0 5.14996e-13 1.80264e-13 0 0 0 0)
(-1.89735e-13 4.32236e-12 0 2.98156e-13 2.03188e-13 0 0 0 0)
(-1.35525e-13 -6.7371e-13 0 1.89735e-13 1.56488e-13 0 0 0 0)
(-1.35525e-13 3.83096e-13 0 1.35525e-13 1.24595e-13 0 0 0 0)
(-8.13152e-14 6.08995e-14 0 5.42101e-14 1.00313e-13 0 0 0 0)
(-8.13152e-14 1.06616e-13 0 0 8.05124e-14 0 0 0 0)
(-8.13152e-14 7.34865e-14 0 -2.71051e-14 5.4929e-14 0 0 0 0)
(-5.42101e-14 4.82233e-14 0 -2.71051e-14 3.72671e-14 0 0 0 0)
(0 1.97575e-14 0 -5.42101e-14 1.85096e-14 0 0 0 0)
(0 7.33109e-15 0 5.42101e-14 8.3302e-15 0 0 0 0)
(2.71051e-14 1.68595e-14 0 2.71051e-14 -5.08437e-15 0 0 0 0)
(-2.71051e-14 2.57916e-14 0 -2.71051e-14 1.57753e-15 0 0 0 0)
(-1.14454e-09 3.14551e-07 0 -9.81799e-10 1.56807e-09 0 0 0 0)
(1.31262e-09 -3.89233e-07 0 4.9033e-10 -4.47073e-10 0 0 0 0)
(-2.46195e-10 9.23576e-08 0 -1.79571e-10 9.16586e-11 0 0 0 0)
(1.00397e-10 -2.18863e-08 0 8.50828e-11 -1.97844e-11 0 0 0 0)
(-2.23617e-11 5.19893e-09 0 -1.77538e-11 7.12511e-12 0 0 0 0)
(5.31259e-12 -1.22789e-09 0 1.08962e-11 8.12189e-13 0 0 0 0)
(-3.08998e-12 2.93166e-10 0 -8.13152e-13 1.36968e-12 0 0 0 0)
(-2.71051e-13 -6.8289e-11 0 1.65341e-12 7.8944e-13 0 0 0 0)
(-7.58942e-13 1.68245e-11 0 3.52366e-13 5.40725e-13 0 0 0 0)
(-3.52366e-13 -3.56703e-12 0 3.79471e-13 3.60193e-13 0 0 0 0)
(-2.71051e-13 1.11015e-12 0 1.89735e-13 2.38657e-13 0 0 0 0)
(-1.89735e-13 -8.48127e-14 0 1.89735e-13 1.65446e-13 0 0 0 0)
(-1.0842e-13 1.44111e-13 0 5.42101e-14 1.26456e-13 0 0 0 0)
(-1.0842e-13 4.09064e-14 0 8.13152e-14 9.12026e-14 0 0 0 0)
(-5.42101e-14 3.70971e-14 0 1.0842e-13 4.84151e-14 0 0 0 0)
(-2.71051e-14 2.447e-14 0 5.42101e-14 2.1872e-14 0 0 0 0)
(0 1.18363e-14 0 1.0842e-13 1.14968e-14 0 0 0 0)
(2.71051e-14 8.05061e-15 0 2.71051e-14 9.27647e-15 0 0 0 0)
(-2.71051e-14 1.97586e-14 0 0 1.05755e-14 0 0 0 0)
(0 2.49743e-14 0 2.71051e-14 2.67627e-15 0 0 0 0)
(3.98526e-10 -3.13992e-07 0 1.2812e-09 -8.55987e-10 0 0 0 0)
(-2.42997e-10 3.88388e-07 0 -5.35162e-10 2.96891e-10 0 0 0 0)
(-1.95753e-10 -9.20784e-08 0 2.11555e-10 -1.13701e-11 0 0 0 0)
(9.33227e-11 2.18681e-08 0 -9.31872e-11 1.7708e-11 0 0 0 0)
(-5.62972e-11 -5.18363e-09 0 1.7808e-11 6.86314e-12 0 0 0 0)
(1.34441e-11 1.23253e-09 0 -1.45283e-11 2.39954e-12 0 0 0 0)
(-8.10441e-12 -2.91728e-10 0 -9.75782e-13 2.2248e-12 0 0 0 0)
(6.77626e-13 6.97243e-11 0 -3.30682e-12 9.61821e-13 0 0 0 0)
(-1.35525e-12 -1.63325e-11 0 -1.40946e-12 7.89455e-13 0 0 0 0)
(-2.98156e-13 4.02029e-12 0 -1.16552e-12 4.69855e-13 0 0 0 0)
(-4.06576e-13 -8.68456e-13 0 -7.31836e-13 3.36192e-13 0 0 0 0)
(-2.1684e-13 2.70895e-13 0 -5.42101e-13 2.28157e-13 0 0 0 0)
(-1.89735e-13 -1.33441e-14 0 -2.98156e-13 1.5011e-13 0 0 0 0)
(-8.13152e-14 2.85754e-14 0 -2.1684e-13 9.73904e-14 0 0 0 0)
(-8.13152e-14 4.15585e-15 0 -1.6263e-13 8.06283e-14 0 0 0 0)
(-8.13152e-14 1.1305e-14 0 -8.13152e-14 5.61374e-14 0 0 0 0)
(-5.42101e-14 7.16194e-15 0 -5.42101e-14 4.48532e-14 0 0 0 0)
(-2.71051e-14 6.40981e-15 0 -2.71051e-14 3.71392e-14 0 0 0 0)
(0 1.02593e-14 0 -2.71051e-14 3.03928e-14 0 0 0 0)
(-2.71051e-14 1.25398e-14 0 -2.71051e-14 7.12127e-15 0 0 0 0)
)
;

boundaryField
{
    movingWall
    {
        type            extrapolatedCalculated;
        value           nonuniform List<tensor> 
20
(
(3.98526e-10 -3.13992e-07 0 -5.45031e-10 1.64625e-06 0 0 0 0)
(-2.42997e-10 3.88388e-07 0 -1.04903e-09 -3.90284e-07 0 0 0 0)
(-1.95753e-10 -9.20784e-08 0 4.26859e-10 9.26987e-08 0 0 0 0)
(9.33227e-11 2.18681e-08 0 -2.65876e-10 -2.19702e-08 0 0 0 0)
(-5.62972e-11 -5.18363e-09 0 5.34683e-11 5.22639e-09 0 0 0 0)
(1.34441e-11 1.23253e-09 0 -4.0723e-11 -1.23567e-09 0 0 0 0)
(-8.10441e-12 -2.91728e-10 0 -2.66454e-13 2.96286e-10 0 0 0 0)
(6.77626e-13 6.97243e-11 0 -8.34888e-12 -6.87594e-11 0 0 0 0)
(-1.35525e-12 -1.63325e-11 0 -2.9754e-12 1.73886e-11 0 0 0 0)
(-2.98156e-13 4.02029e-12 0 -2.84217e-12 -3.42944e-12 0 0 0 0)
(-4.06576e-13 -8.68456e-13 0 -1.73195e-12 1.30744e-12 0 0 0 0)
(-2.1684e-13 2.70895e-13 0 -1.33227e-12 4.43888e-14 0 0 0 0)
(-1.89735e-13 -1.33441e-14 0 -8.43769e-13 2.23863e-13 0 0 0 0)
(-8.13152e-14 2.85754e-14 0 -6.21725e-13 9.77653e-14 0 0 0 0)
(-8.13152e-14 4.15585e-15 0 -4.88498e-13 1.09562e-13 0 0 0 0)
(-8.13152e-14 1.1305e-14 0 -2.66454e-13 8.1142e-14 0 0 0 0)
(-5.42101e-14 7.16194e-15 0 -2.22045e-13 6.43416e-14 0 0 0 0)
(-2.71051e-14 6.40981e-15 0 -4.44089e-14 5.24942e-14 0 0 0 0)
(0 1.02593e-14 0 -4.44089e-14 3.87024e-14 0 0 0 0)
(-2.71051e-14 1.25398e-14 0 -4.44089e-14 1.14569e-14 0 0 0 0)
)
;
    }
    fixedWalls
    {
        type            extrapolatedCalculated;
        value           nonuniform List<tensor> 
60
(
(-8.31601e-10 1.71392e-06 0 1.67997e-10 -5.12698e-10 0 0 0 0)
(1.50364e-09 -1.71597e-06 0 -1.97748e-09 2.66947e-10 0 0 0 0)
(-8.74163e-09 1.71499e-06 0 2.34673e-09 8.26591e-10 0 0 0 0)
(1.08906e-08 -1.71266e-06 0 -9.53854e-10 -1.70177e-09 0 0 0 0)
(-1.25571e-08 1.70818e-06 0 3.55266e-10 2.29144e-09 0 0 0 0)
(1.23118e-08 -1.7035e-06 0 1.24222e-10 -2.4722e-09 0 0 0 0)
(-1.20602e-08 1.69829e-06 0 -3.11925e-10 2.54168e-09 0 0 0 0)
(1.1064e-08 -1.69333e-06 0 4.34223e-10 -2.49753e-09 0 0 0 0)
(-1.03233e-08 1.6883e-06 0 -4.64879e-10 2.43939e-09 0 0 0 0)
(9.20464e-09 -1.68357e-06 0 4.66641e-10 -2.32672e-09 0 0 0 0)
(-8.45688e-09 1.679e-06 0 -4.38262e-10 2.22557e-09 0 0 0 0)
(7.45159e-09 -1.67467e-06 0 3.88199e-10 -2.09396e-09 0 0 0 0)
(-6.90417e-09 1.67062e-06 0 -3.42093e-10 1.99329e-09 0 0 0 0)
(6.08331e-09 -1.6667e-06 0 2.66063e-10 -1.87564e-09 0 0 0 0)
(-5.83986e-09 1.66312e-06 0 -2.30881e-10 1.81045e-09 0 0 0 0)
(5.15969e-09 -1.65946e-06 0 1.17934e-10 -1.73149e-09 0 0 0 0)
(-5.36815e-09 1.65619e-06 0 -1.71846e-10 1.73353e-09 0 0 0 0)
(4.47233e-09 -1.65252e-06 0 -7.54605e-11 -1.62896e-09 0 0 0 0)
(-5.66986e-09 1.64968e-06 0 -9.81799e-10 1.56807e-09 0 0 0 0)
(5.45031e-10 -1.64625e-06 0 1.2812e-09 -8.55987e-10 0 0 0 0)
(0 -1.55604e-14 0 0 4.27836e-15 0 0 0 0)
(8.88178e-14 -1.55302e-15 0 0 -1.02148e-14 0 0 0 0)
(0 2.52988e-14 0 0 2.91182e-15 0 0 0 0)
(0 -1.32003e-14 0 0 2.40862e-14 0 0 0 0)
(-4.44089e-14 -7.10458e-14 0 0 1.0858e-14 0 0 0 0)
(0 -5.66324e-14 0 0 -9.78937e-15 0 0 0 0)
(0 -3.18883e-14 0 0 -8.58908e-15 0 0 0 0)
(0 -2.22761e-14 0 0 -3.75588e-15 0 0 0 0)
(0 -1.68648e-14 0 0 2.22432e-15 0 0 0 0)
(0 -3.11734e-14 0 0 1.09533e-15 0 0 0 0)
(0 -2.12461e-14 0 2.71051e-14 -1.23174e-15 0 0 0 0)
(-8.88178e-14 -2.62464e-14 0 -2.71051e-14 -7.29793e-15 0 0 0 0)
(8.88178e-14 7.9456e-15 0 0 -1.72044e-14 0 0 0 0)
(-4.44089e-14 4.25711e-14 0 2.71051e-14 -3.38449e-15 0 0 0 0)
(0 2.14835e-14 0 -2.71051e-14 7.33e-15 0 0 0 0)
(0 1.32512e-14 0 2.71051e-14 -4.63683e-16 0 0 0 0)
(-4.44089e-14 2.33383e-14 0 0 -2.22772e-15 0 0 0 0)
(-4.44089e-14 2.2162e-14 0 -2.71051e-14 1.57753e-15 0 0 0 0)
(0 1.70281e-14 0 2.71051e-14 2.67627e-15 0 0 0 0)
(-4.44089e-14 1.14569e-14 0 -2.71051e-14 7.12127e-15 0 0 0 0)
(1.42979e-10 3.26789e-07 0 -8.31601e-10 1.71392e-06 0 0 0 0)
(7.94178e-11 -4.04306e-07 0 1.40354e-09 -4.06763e-07 0 0 0 0)
(-2.71457e-10 9.5959e-08 0 -5.13989e-10 9.66981e-08 0 0 0 0)
(1.15413e-10 -2.28084e-08 0 3.17613e-10 -2.29273e-08 0 0 0 0)
(-6.70308e-11 5.40909e-09 0 -5.22249e-11 5.46459e-09 0 0 0 0)
(1.38778e-11 -1.2884e-09 0 4.96048e-11 -1.29094e-09 0 0 0 0)
(-9.6765e-12 3.04836e-10 0 3.15303e-12 3.10982e-10 0 0 0 0)
(3.52366e-13 -7.31227e-11 0 1.0969e-11 -7.15969e-11 0 0 0 0)
(-1.73472e-12 1.70295e-11 0 4.57412e-12 1.84913e-11 0 0 0 0)
(-4.87891e-13 -4.25762e-12 0 3.9968e-12 -3.47887e-12 0 0 0 0)
(-5.42101e-13 9.01235e-13 0 2.57572e-12 1.46078e-12 0 0 0 0)
(-3.25261e-13 -2.75735e-13 0 1.86517e-12 1.26071e-13 0 0 0 0)
(-2.71051e-13 2.25103e-14 0 1.24345e-12 3.57846e-13 0 0 0 0)
(-2.1684e-13 -4.90119e-14 0 7.99361e-13 2.16112e-13 0 0 0 0)
(-1.0842e-13 -2.84146e-14 0 4.44089e-13 1.61798e-13 0 0 0 0)
(-1.0842e-13 -2.82389e-14 0 2.22045e-13 1.02454e-13 0 0 0 0)
(-5.42101e-14 -2.12506e-14 0 8.88178e-14 4.88428e-14 0 0 0 0)
(-2.71051e-14 -1.29797e-14 0 0 1.74515e-14 0 0 0 0)
(0 -4.72773e-16 0 4.44089e-14 -3.076e-15 0 0 0 0)
(0 -3.12111e-15 0 0 1.55604e-14 0 0 0 0)
)
;
    }
    frontAndBack
    {
        type            empty;
    }
}


// ************************************************************************* //
