/*--------------------------------*- C++ -*----------------------------------*\
| =========                 |                                                 |
| \\      /  F ield         | OpenFOAM: The Open Source CFD Toolbox           |
|  \\    /   O peration     | Version:  2312                                  |
|   \\  /    A nd           | Website:  www.openfoam.com                      |
|    \\/     M anipulation  |                                                 |
\*---------------------------------------------------------------------------*/
FoamFile
{
    version     2.0;
    format      ascii;
    arch        "LSB;label=32;scalar=64";
    class       volScalarField;
    location    "4.875";
    object      QField;
}
// * * * * * * * * * * * * * * * * * * * * * * * * * * * * * * * * * * * * * //

dimensions      [0 0 -2 0 0 0 0];

internalField   nonuniform List<scalar> 
400
(
-5.4973e-17
1.03451e-16
9.42795e-18
1.71928e-18
4.09958e-20
1.94319e-20
-9.4556e-22
3.13651e-22
-3.96794e-23
7.18791e-24
-1.28219e-24
1.05387e-25
-8.31357e-26
-2.54941e-26
-8.44567e-27
-7.79696e-27
-1.77752e-27
-6.31868e-28
1.28145e-29
0
-6.46607e-16
-3.61092e-17
-4.87354e-18
9.45768e-19
8.25475e-21
1.03099e-20
-2.01321e-22
1.1261e-22
-1.02546e-23
1.37497e-24
-4.97217e-25
-6.39268e-26
-5.40474e-26
-2.19908e-26
-9.55136e-27
-5.60156e-27
-1.35662e-27
0
-8.62575e-28
0
-7.68638e-16
-1.87639e-16
-1.6854e-17
-1.05603e-18
-3.79127e-20
-8.78347e-21
3.43494e-22
-1.15852e-22
1.13446e-23
-2.58051e-24
1.22956e-25
-1.21983e-25
-3.65236e-26
-3.01446e-26
-1.13084e-26
-2.50599e-27
-8.40454e-28
2.01799e-27
1.08198e-27
0
-3.1515e-16
-7.84921e-17
-6.08584e-18
-3.28761e-19
-2.96933e-20
1.02772e-21
-5.266e-22
7.12319e-23
-1.40672e-23
1.89765e-24
-4.80772e-25
-1.83451e-26
-5.32816e-26
-1.58815e-26
-8.79913e-27
-5.71309e-28
0
-5.3749e-28
5.32461e-28
-6.52856e-28
-1.21461e-16
-2.88188e-17
-2.26223e-18
-1.28614e-19
-3.84612e-21
-1.68236e-21
2.13529e-22
-5.39359e-23
8.03926e-24
-1.61299e-24
1.65975e-25
-1.04276e-25
-1.91114e-26
-1.03556e-26
0
-3.22558e-27
-3.36943e-27
-3.00836e-27
-1.93322e-27
-2.94307e-28
3.42861e-17
8.71029e-18
1.27386e-18
5.50863e-20
3.98956e-21
9.51507e-22
-1.29008e-22
3.87262e-23
-7.30165e-24
1.07967e-24
-3.82887e-25
-1.04334e-26
-2.67788e-26
-2.10278e-26
-8.80746e-27
-5.62701e-27
-6.75296e-27
-3.58651e-27
-7.42064e-28
0
9.4893e-17
2.44412e-17
2.38409e-18
1.35869e-19
9.36535e-21
4.05837e-22
1.47243e-22
-1.83919e-23
5.84636e-24
-1.58467e-24
9.18493e-26
-8.04873e-26
-2.48139e-26
-1.49604e-26
-1.44048e-26
-6.44259e-27
-1.60028e-27
2.29398e-27
0
0
1.34703e-16
3.36372e-17
3.31753e-18
1.70377e-19
1.24697e-20
1.01498e-21
-2.06789e-23
1.93669e-23
-2.56928e-24
3.49665e-25
-1.53871e-25
-1.2887e-26
-2.24839e-26
-7.88762e-27
-6.44231e-27
-5.0629e-27
3.24579e-27
2.8414e-27
-1.81178e-28
0
1.44636e-16
3.64016e-17
3.4075e-18
1.90913e-19
1.22595e-20
8.93978e-22
7.33214e-23
-7.66736e-25
2.20387e-24
-4.51343e-25
3.19385e-26
-3.76809e-26
-1.92571e-26
-1.67611e-26
-9.97613e-27
-5.04366e-27
-4.14249e-27
-1.67925e-27
0
-6.02904e-29
1.45542e-16
3.61734e-17
3.41523e-18
1.8065e-19
1.29399e-20
7.7344e-22
6.15441e-23
7.7502e-24
-1.13939e-24
2.53229e-25
-1.21979e-25
-2.54018e-26
-2.20846e-26
-4.84294e-27
-3.89142e-27
-6.19892e-27
-5.67786e-28
-2.35285e-27
-1.01867e-27
0
1.36558e-16
3.39533e-17
3.15583e-18
1.68521e-19
1.21272e-20
7.95204e-22
4.05632e-23
3.27264e-24
4.17615e-25
-3.30272e-25
-2.77201e-26
-4.89279e-26
-1.48819e-26
-7.17949e-27
-4.01507e-27
-7.49831e-27
3.98464e-28
-5.92014e-28
-1.40625e-27
3.55039e-28
1.20858e-16
3.00338e-17
2.7315e-18
1.50334e-19
9.94745e-21
7.05608e-22
2.17574e-23
2.8636e-26
1.15097e-24
-2.7143e-25
-3.5552e-26
-3.13977e-26
-2.89232e-26
-1.75674e-26
-5.24587e-27
-2.78549e-27
-3.36054e-27
-1.7173e-27
1.66574e-28
2.73383e-28
1.0623e-16
2.61837e-17
2.42074e-18
1.27971e-19
8.56298e-21
7.62153e-22
-3.98044e-23
2.2234e-23
-3.70636e-24
9.3897e-25
-2.68823e-25
-3.36218e-27
-2.84631e-26
-1.64611e-26
-7.4852e-27
0
0
-3.17362e-27
0
-9.32652e-28
8.2286e-17
2.04706e-17
1.79609e-18
1.02018e-19
7.38544e-21
6.42276e-23
1.41864e-22
-1.71687e-23
5.16014e-24
-9.56652e-25
1.1058e-25
-5.83689e-26
-6.9123e-27
-7.05413e-27
-1.69214e-27
-1.4686e-27
-7.30602e-29
-1.58726e-27
-2.59539e-28
-8.45543e-28
7.11059e-17
1.72602e-17
1.6815e-18
8.49505e-20
4.59668e-21
9.28369e-22
-7.97301e-23
2.6026e-23
-5.08479e-24
7.54672e-25
-1.06598e-25
-1.32422e-26
-1.59169e-26
-4.07828e-27
-1.22557e-27
-5.28807e-27
-1.16187e-27
0
-7.36906e-28
6.99893e-28
3.55395e-17
9.32887e-18
7.29083e-19
3.8308e-20
5.66724e-21
-7.75227e-22
2.21031e-22
-4.20039e-23
7.80247e-24
-1.73321e-24
1.96179e-25
-8.04705e-26
-1.01256e-26
-1.49564e-26
-8.32244e-27
-1.57473e-27
0
5.74792e-30
7.47748e-28
-5.12197e-28
5.24066e-17
1.28387e-17
1.27492e-18
8.76956e-20
-1.89036e-21
2.09849e-21
-3.11505e-22
5.96285e-23
-9.27159e-24
1.53664e-24
-3.94367e-25
1.67456e-27
-3.57069e-26
-7.01671e-27
-5.25888e-27
-9.26645e-28
-1.27176e-27
9.93509e-28
-2.53007e-28
0
-2.52283e-17
-2.8888e-18
-6.71121e-19
-1.55653e-19
1.22539e-20
-3.59881e-21
3.79104e-22
-6.904e-23
8.16568e-24
-1.32729e-24
1.06619e-25
-6.8805e-26
-1.14583e-26
-6.54688e-27
-2.4747e-27
-7.13158e-28
1.07105e-27
-3.97419e-28
-5.9479e-28
6.56324e-28
3.07031e-16
1.90266e-16
1.65622e-17
1.86016e-18
9.21416e-20
1.33837e-20
2.34156e-22
1.12696e-22
-6.33874e-24
1.22666e-24
-2.75324e-25
-1.5299e-26
-2.15227e-26
-1.32145e-26
-6.64667e-27
-1.91937e-27
-1.28329e-27
3.3227e-29
-2.8665e-28
-6.76928e-28
4.01946e-16
2.07778e-16
1.94819e-17
2.03948e-18
9.19237e-20
1.79388e-20
-3.02694e-22
2.31217e-22
-2.409e-23
4.54563e-24
-7.72256e-25
9.73788e-26
-3.24598e-26
-1.72301e-27
-5.88043e-27
-3.64555e-27
-2.04325e-27
-8.32922e-28
2.78079e-28
1.4687e-28
)
;

boundaryField
{
    movingWall
    {
        type            calculated;
        value           nonuniform List<scalar> 
20
(
4.84938e-16
5.02268e-16
2.11584e-17
3.76389e-18
-1.7071e-20
3.35796e-20
-2.47895e-21
5.35527e-22
-7.21616e-23
1.24489e-23
-2.0357e-24
3.51279e-25
-5.37342e-26
9.81624e-27
-6.8789e-27
-3.58581e-27
-1.8977e-27
-1.13821e-27
4.55605e-28
2.46339e-28
)
;
    }
    fixedWalls
    {
        type            calculated;
        value           nonuniform List<scalar> 
60
(
-2.87507e-16
-3.39289e-15
-4.03184e-15
-1.65217e-15
-6.35632e-16
1.81176e-16
4.99087e-16
7.07651e-16
7.59673e-16
7.64208e-16
7.17018e-16
6.34502e-16
5.57745e-16
4.32037e-16
3.73409e-16
1.86773e-16
2.75304e-16
-1.31985e-16
1.61076e-15
2.10871e-15
0
-9.07258e-28
0
0
-4.82193e-28
0
0
0
0
0
5.75877e-28
-6.3225e-29
-1.52806e-27
-1.00359e-27
5.82312e-28
-3.59173e-28
9.89306e-29
5.30647e-28
-4.61549e-28
-5.70709e-30
5.16813e-16
5.35156e-16
2.30725e-17
4.59811e-18
-8.38067e-20
4.59954e-20
-3.97038e-21
7.76855e-22
-1.09972e-22
1.87142e-23
-3.11322e-24
4.73287e-25
-1.24985e-25
-7.68373e-27
-4.92359e-27
-4.83779e-27
-7.60341e-28
-4.73025e-28
2.09953e-29
0
)
;
    }
    frontAndBack
    {
        type            empty;
    }
}


// ************************************************************************* //
