/*--------------------------------*- C++ -*----------------------------------*\
| =========                 |                                                 |
| \\      /  F ield         | OpenFOAM: The Open Source CFD Toolbox           |
|  \\    /   O peration     | Version:  2312                                  |
|   \\  /    A nd           | Website:  www.openfoam.com                      |
|    \\/     M anipulation  |                                                 |
\*---------------------------------------------------------------------------*/
FoamFile
{
    version     2.0;
    format      ascii;
    arch        "LSB;label=32;scalar=64";
    class       volVectorField;
    location    "4.875";
    object      UzeroGrad;
}
// * * * * * * * * * * * * * * * * * * * * * * * * * * * * * * * * * * * * * //

dimensions      [0 1 -1 0 0 0 0];

internalField   nonuniform List<vector> 
400
(
(-1 4.2848e-09 0)
(-1 -1.01691e-09 0)
(-1 2.41745e-10 0)
(-1 -5.73182e-11 0)
(-1 1.36615e-11 0)
(-1 -3.22735e-12 0)
(-1 7.77455e-13 0)
(-1 -1.78992e-13 0)
(-1 4.62282e-14 0)
(-1 -8.69718e-15 0)
(-1 3.65196e-15 0)
(-1 3.15178e-16 0)
(-1 8.94615e-16 0)
(-1 5.40281e-16 0)
(-1 4.04496e-16 0)
(-1 2.56135e-16 0)
(-1 1.22107e-16 0)
(-1 4.36288e-17 0)
(-1 -7.69e-18 0)
(-1 3.89011e-17 0)
(-1 -4.28993e-09 0)
(-1 1.01969e-09 0)
(-1 -2.41628e-10 0)
(-1 5.75327e-11 0)
(-1 -1.35656e-11 0)
(-1 3.26344e-12 0)
(-1 -7.48095e-13 0)
(-1 1.93053e-13 0)
(-1 -3.5683e-14 0)
(-1 1.51185e-14 0)
(-1 1.07425e-15 0)
(-1 3.10833e-15 0)
(-1 1.72235e-15 0)
(-1 1.37061e-15 0)
(-1 9.42772e-16 0)
(-1 6.74799e-16 0)
(-1 4.18293e-16 0)
(-1 1.89489e-16 0)
(-1 4.18425e-17 0)
(-1 3.88254e-18 0)
(-1 4.28747e-09 0)
(-1 -1.01826e-09 0)
(-1 2.41819e-10 0)
(-1 -5.73086e-11 0)
(-1 1.3687e-11 0)
(-1 -3.20022e-12 0)
(-1 7.92081e-13 0)
(-1 -1.67412e-13 0)
(-1 5.37143e-14 0)
(-1 -3.09727e-15 0)
(-1 7.61066e-15 0)
(-1 3.06252e-15 0)
(-1 2.7502e-15 0)
(-1 1.85109e-15 0)
(-1 1.34717e-15 0)
(-1 9.45005e-16 0)
(-1 6.22612e-16 0)
(-1 3.35933e-16 0)
(-1 1.24937e-16 0)
(-1 -6.32471e-17 0)
(-1 -4.28166e-09 0)
(-1 1.01634e-09 0)
(-1 -2.41127e-10 0)
(-1 5.72816e-11 0)
(-1 -1.35435e-11 0)
(-1 3.2544e-12 0)
(-1 -7.42667e-13 0)
(-1 1.97436e-13 0)
(-1 -3.17395e-14 0)
(-1 1.84484e-14 0)
(-1 3.56257e-15 0)
(-1 4.93843e-15 0)
(-1 3.16053e-15 0)
(-1 2.52266e-15 0)
(-1 1.72941e-15 0)
(-1 1.13707e-15 0)
(-1 7.28366e-16 0)
(-1 4.40332e-16 0)
(-1 1.9306e-16 0)
(-1 3.30007e-17 0)
(-1 4.27045e-09 0)
(-1 -1.01334e-09 0)
(-1 2.40479e-10 0)
(-1 -5.70226e-11 0)
(-1 1.35673e-11 0)
(-1 -3.18854e-12 0)
(-1 7.81162e-13 0)
(-1 -1.66509e-13 0)
(-1 5.38002e-14 0)
(-1 -2.10858e-15 0)
(-1 8.4828e-15 0)
(-1 4.05098e-15 0)
(-1 3.66589e-15 0)
(-1 2.63403e-15 0)
(-1 1.82231e-15 0)
(-1 1.15578e-15 0)
(-1 8.01359e-16 0)
(-1 5.34231e-16 0)
(-1 3.35825e-16 0)
(-1 1.77614e-16 0)
(-1 -4.25875e-09 0)
(-1 1.0104e-09 0)
(-1 -2.39707e-10 0)
(-1 5.68958e-11 0)
(-1 -1.34726e-11 0)
(-1 3.21966e-12 0)
(-1 -7.44261e-13 0)
(-1 1.92435e-13 0)
(-1 -3.30926e-14 0)
(-1 1.75965e-14 0)
(-1 3.38172e-15 0)
(-1 5.00255e-15 0)
(-1 3.12661e-15 0)
(-1 2.38928e-15 0)
(-1 1.75658e-15 0)
(-1 1.30615e-15 0)
(-1 1.00793e-15 0)
(-1 6.19155e-16 0)
(-1 3.46332e-16 0)
(-1 1.41581e-16 0)
(-1 4.24573e-09 0)
(-1 -1.00721e-09 0)
(-1 2.38975e-10 0)
(-1 -5.66758e-11 0)
(-1 1.34633e-11 0)
(-1 -3.17706e-12 0)
(-1 7.68664e-13 0)
(-1 -1.69713e-13 0)
(-1 5.07018e-14 0)
(-1 -3.55314e-15 0)
(-1 7.57395e-15 0)
(-1 3.27435e-15 0)
(-1 2.98594e-15 0)
(-1 2.18016e-15 0)
(-1 1.88206e-15 0)
(-1 1.44512e-15 0)
(-1 1.01656e-15 0)
(-1 4.68415e-16 0)
(-1 1.98939e-16 0)
(-1 7.97207e-17 0)
(-1 -4.23333e-09 0)
(-1 1.00423e-09 0)
(-1 -2.3824e-10 0)
(-1 5.65283e-11 0)
(-1 -1.33973e-11 0)
(-1 3.19029e-12 0)
(-1 -7.45865e-13 0)
(-1 1.86439e-13 0)
(-1 -3.62414e-14 0)
(-1 1.51987e-14 0)
(-1 1.64347e-15 0)
(-1 3.65164e-15 0)
(-1 2.38986e-15 0)
(-1 2.1682e-15 0)
(-1 1.67199e-15 0)
(-1 1.19636e-15 0)
(-1 7.12726e-16 0)
(-1 3.56182e-16 0)
(-1 1.8858e-16 0)
(-1 5.56902e-17 0)
(-1 4.22076e-09 0)
(-1 -1.00122e-09 0)
(-1 2.37539e-10 0)
(-1 -5.63429e-11 0)
(-1 1.33731e-11 0)
(-1 -3.1649e-12 0)
(-1 7.57997e-13 0)
(-1 -1.73206e-13 0)
(-1 4.67151e-14 0)
(-1 -6.3701e-15 0)
(-1 5.36126e-15 0)
(-1 1.87562e-15 0)
(-1 2.1081e-15 0)
(-1 1.44302e-15 0)
(-1 1.08979e-15 0)
(-1 8.22497e-16 0)
(-1 5.75549e-16 0)
(-1 4.90467e-16 0)
(-1 2.65782e-16 0)
(-1 4.21619e-17 0)
(-1 -4.20894e-09 0)
(-1 9.98427e-10 0)
(-1 -2.36867e-10 0)
(-1 5.61943e-11 0)
(-1 -1.33262e-11 0)
(-1 3.16538e-12 0)
(-1 -7.4712e-13 0)
(-1 1.80666e-13 0)
(-1 -3.97572e-14 0)
(-1 1.21663e-14 0)
(-1 -5.15521e-16 0)
(-1 2.17255e-15 0)
(-1 1.14197e-15 0)
(-1 9.31448e-16 0)
(-1 6.5198e-16 0)
(-1 5.76097e-16 0)
(-1 4.24642e-16 0)
(-1 3.66622e-16 0)
(-1 2.64202e-16 0)
(-1 7.79335e-17 0)
(-1 4.19749e-09 0)
(-1 -9.95721e-10 0)
(-1 2.36228e-10 0)
(-1 -5.60393e-11 0)
(-1 1.32941e-11 0)
(-1 -3.15326e-12 0)
(-1 7.48622e-13 0)
(-1 -1.76939e-13 0)
(-1 4.27455e-14 0)
(-1 -9.40761e-15 0)
(-1 2.85976e-15 0)
(-1 6.32469e-17 0)
(-1 7.50139e-16 0)
(-1 5.49654e-16 0)
(-1 3.64815e-16 0)
(-1 2.50747e-16 0)
(-1 2.21917e-16 0)
(-1 1.0374e-16 0)
(-1 7.78711e-17 0)
(-1 5.31153e-17 0)
(-1 -4.18668e-09 0)
(-1 9.9318e-10 0)
(-1 -2.35628e-10 0)
(-1 5.58954e-11 0)
(-1 -1.3263e-11 0)
(-1 3.1434e-12 0)
(-1 -7.48178e-13 0)
(-1 1.75557e-13 0)
(-1 -4.3122e-14 0)
(-1 9.16073e-15 0)
(-1 -2.97774e-15 0)
(-1 1.79849e-16 0)
(-1 -2.47959e-16 0)
(-1 4.85265e-17 0)
(-1 -4.1057e-17 0)
(-1 -1.155e-16 0)
(-1 -2.10805e-17 0)
(-1 4.161e-18 0)
(-1 -2.05181e-17 0)
(-1 6.56161e-17 0)
(-1 4.17655e-09 0)
(-1 -9.908e-10 0)
(-1 2.35058e-10 0)
(-1 -5.57702e-11 0)
(-1 1.32232e-11 0)
(-1 -3.1438e-12 0)
(-1 7.39857e-13 0)
(-1 -1.80461e-13 0)
(-1 3.88215e-14 0)
(-1 -1.22436e-14 0)
(-1 6.50039e-16 0)
(-1 -1.86737e-15 0)
(-1 -8.1178e-16 0)
(-1 -7.46593e-16 0)
(-1 -4.4434e-16 0)
(-1 -2.63086e-16 0)
(-1 -2.31243e-16 0)
(-1 -2.13047e-16 0)
(-1 -1.08753e-16 0)
(-1 -1.9864e-17 0)
(-1 -4.16675e-09 0)
(-1 9.88499e-10 0)
(-1 -2.34528e-10 0)
(-1 5.56278e-11 0)
(-1 -1.32087e-11 0)
(-1 3.12259e-12 0)
(-1 -7.50526e-13 0)
(-1 1.70043e-13 0)
(-1 -4.6733e-14 0)
(-1 6.21942e-15 0)
(-1 -4.99883e-15 0)
(-1 -1.25034e-15 0)
(-1 -1.50674e-15 0)
(-1 -1.01911e-15 0)
(-1 -6.39237e-16 0)
(-1 -4.1308e-16 0)
(-1 -4.19633e-16 0)
(-1 -3.86126e-16 0)
(-1 -2.39367e-16 0)
(-1 -1.06428e-16 0)
(-1 4.15779e-09 0)
(-1 -9.86405e-10 0)
(-1 2.34007e-10 0)
(-1 -5.55345e-11 0)
(-1 1.31563e-11 0)
(-1 -3.1377e-12 0)
(-1 7.30786e-13 0)
(-1 -1.8414e-13 0)
(-1 3.53699e-14 0)
(-1 -1.46272e-14 0)
(-1 -9.91629e-16 0)
(-1 -2.88585e-15 0)
(-1 -1.50879e-15 0)
(-1 -1.1872e-15 0)
(-1 -7.56484e-16 0)
(-1 -5.853e-16 0)
(-1 -4.56532e-16 0)
(-1 -3.25579e-16 0)
(-1 -2.04506e-16 0)
(-1 -5.37088e-17 0)
(-1 -4.14864e-09 0)
(-1 9.84249e-10 0)
(-1 -2.3354e-10 0)
(-1 5.5378e-11 0)
(-1 -1.31653e-11 0)
(-1 3.10096e-12 0)
(-1 -7.53392e-13 0)
(-1 1.65424e-13 0)
(-1 -4.89962e-14 0)
(-1 4.43838e-15 0)
(-1 -6.36669e-15 0)
(-1 -2.32318e-15 0)
(-1 -2.1255e-15 0)
(-1 -1.36846e-15 0)
(-1 -1.09139e-15 0)
(-1 -7.63447e-16 0)
(-1 -5.10421e-16 0)
(-1 -3.57176e-16 0)
(-1 -1.55839e-16 0)
(-1 -3.31279e-17 0)
(-1 4.14048e-09 0)
(-1 -9.82356e-10 0)
(-1 2.33017e-10 0)
(-1 -5.53277e-11 0)
(-1 1.30863e-11 0)
(-1 -3.1343e-12 0)
(-1 7.22132e-13 0)
(-1 -1.86323e-13 0)
(-1 3.37743e-14 0)
(-1 -1.5304e-14 0)
(-1 -1.65819e-15 0)
(-1 -3.41655e-15 0)
(-1 -1.94457e-15 0)
(-1 -1.53461e-15 0)
(-1 -1.08167e-15 0)
(-1 -7.3119e-16 0)
(-1 -4.72774e-16 0)
(-1 -3.23458e-16 0)
(-1 -1.56328e-16 0)
(-1 -5.83457e-17 0)
(-1 -4.13131e-09 0)
(-1 9.8018e-10 0)
(-1 -2.32663e-10 0)
(-1 5.51233e-11 0)
(-1 -1.31372e-11 0)
(-1 3.08106e-12 0)
(-1 -7.54411e-13 0)
(-1 1.64004e-13 0)
(-1 -4.88788e-14 0)
(-1 4.97166e-15 0)
(-1 -5.65518e-15 0)
(-1 -1.76543e-15 0)
(-1 -1.82422e-15 0)
(-1 -1.15644e-15 0)
(-1 -7.58055e-16 0)
(-1 -4.21575e-16 0)
(-1 -2.75822e-16 0)
(-1 -2.24e-16 0)
(-1 -2.02511e-16 0)
(-1 -5.54051e-17 0)
(-1 4.12419e-09 0)
(-1 -9.78678e-10 0)
(-1 2.3186e-10 0)
(-1 -5.51025e-11 0)
(-1 1.29973e-11 0)
(-1 -3.11317e-12 0)
(-1 7.18467e-13 0)
(-1 -1.81517e-13 0)
(-1 3.5577e-14 0)
(-1 -1.32721e-14 0)
(-1 -9.33155e-17 0)
(-1 -2.1706e-15 0)
(-1 -9.41442e-16 0)
(-1 -7.2949e-16 0)
(-1 -5.32379e-16 0)
(-1 -3.58519e-16 0)
(-1 -2.87678e-16 0)
(-1 -2.40156e-16 0)
(-1 -2.07172e-16 0)
(-1 -4.25704e-17 0)
(-1 -4.11563e-09 0)
(-1 9.7571e-10 0)
(-1 -2.31747e-10 0)
(-1 5.49254e-11 0)
(-1 -1.3066e-11 0)
(-1 3.08918e-12 0)
(-1 -7.40715e-13 0)
(-1 1.71899e-13 0)
(-1 -4.34715e-14 0)
(-1 8.57359e-15 0)
(-1 -3.26861e-15 0)
(-1 -1.10972e-16 0)
(-1 -5.59658e-16 0)
(-1 -2.44413e-16 0)
(-1 -2.73904e-16 0)
(-1 -2.02855e-16 0)
(-1 -1.60854e-16 0)
(-1 -1.31236e-16 0)
(-1 -9.67559e-17 0)
(-1 -2.86423e-17 0)
)
;

boundaryField
{
    movingWall
    {
        type            zeroGradient;
    }
    fixedWalls
    {
        type            zeroGradient;
    }
    frontAndBack
    {
        type            empty;
    }
}


// ************************************************************************* //
