/*--------------------------------*- C++ -*----------------------------------*\
| =========                 |                                                 |
| \\      /  F ield         | OpenFOAM: The Open Source CFD Toolbox           |
|  \\    /   O peration     | Version:  2312                                  |
|   \\  /    A nd           | Website:  www.openfoam.com                      |
|    \\/     M anipulation  |                                                 |
\*---------------------------------------------------------------------------*/
FoamFile
{
    version     2.0;
    format      ascii;
    arch        "LSB;label=32;scalar=64";
    class       volVectorField;
    location    "4.875";
    object      vorticityField;
}
// * * * * * * * * * * * * * * * * * * * * * * * * * * * * * * * * * * * * * //

dimensions      [0 0 -1 0 0 0 0];

internalField   nonuniform List<vector> 
400
(
(0 -0 3.26621e-07)
(0 -0 -4.04561e-07)
(0 -0 9.60573e-08)
(0 -0 -2.28836e-08)
(0 -0 5.41679e-09)
(0 -0 -1.30344e-09)
(0 -0 3.01827e-10)
(0 -0 -7.74053e-11)
(0 -0 1.48069e-11)
(0 -0 -6.01945e-12)
(0 -0 -2.37177e-13)
(0 -0 -1.06178e-12)
(0 -0 -5.19591e-13)
(0 -0 -3.74273e-13)
(0 -0 -2.45255e-13)
(0 -0 -1.09554e-13)
(0 -0 -7.54607e-14)
(0 -0 -1.29797e-14)
(0 -0 -2.75778e-14)
(0 -0 -3.12111e-15)
(0 -0 -3.25047e-07)
(0 -0 4.04741e-07)
(0 -0 -9.61648e-08)
(0 -0 2.28477e-08)
(0 -0 -5.42844e-09)
(0 -0 1.2898e-09)
(0 -0 -3.06388e-10)
(0 -0 7.28404e-11)
(0 -0 -1.72513e-11)
(0 -0 4.13651e-12)
(0 -0 -9.29963e-13)
(0 -0 2.2744e-13)
(0 -0 -6.53519e-14)
(0 -0 -2.37473e-14)
(0 -0 -4.24756e-14)
(0 -0 -5.24478e-14)
(0 -0 -4.8531e-14)
(0 -0 -3.76451e-14)
(0 -0 8.54438e-15)
(0 -0 -4.5725e-15)
(0 -0 3.24575e-07)
(0 -0 -4.04103e-07)
(0 -0 9.59196e-08)
(0 -0 -2.27671e-08)
(0 -0 5.40384e-09)
(0 -0 -1.28269e-09)
(0 -0 3.0442e-10)
(0 -0 -7.22646e-11)
(0 -0 1.71362e-11)
(0 -0 -4.06826e-12)
(0 -0 9.14134e-13)
(0 -0 -2.96311e-13)
(0 -0 -1.2723e-14)
(0 -0 -5.89875e-14)
(0 -0 -3.6398e-14)
(0 -0 -7.24558e-14)
(0 -0 -6.09073e-14)
(0 -0 -1.03978e-13)
(0 -0 -6.7023e-14)
(0 -0 -6.16902e-15)
(0 -0 -3.25579e-07)
(0 -0 4.03862e-07)
(0 -0 -9.58426e-08)
(0 -0 2.27441e-08)
(0 -0 -5.39733e-09)
(0 -0 1.2809e-09)
(0 -0 -3.03989e-10)
(0 -0 7.20957e-11)
(0 -0 -1.71127e-11)
(0 -0 4.07231e-12)
(0 -0 -9.98628e-13)
(0 -0 1.49531e-13)
(0 -0 -5.18413e-14)
(0 -0 -6.1797e-14)
(0 -0 -8.43485e-14)
(0 -0 -1.00104e-13)
(0 -0 -6.96741e-14)
(0 -0 -5.35306e-14)
(0 -0 -6.78382e-14)
(0 -0 -2.26061e-14)
(0 -0 3.25356e-07)
(0 -0 -4.0293e-07)
(0 -0 9.56089e-08)
(0 -0 -2.26859e-08)
(0 -0 5.38275e-09)
(0 -0 -1.27734e-09)
(0 -0 3.02907e-10)
(0 -0 -7.20043e-11)
(0 -0 1.69279e-11)
(0 -0 -4.17937e-12)
(0 -0 8.87007e-13)
(0 -0 -2.64851e-13)
(0 -0 -6.17015e-15)
(0 -0 -1.30148e-13)
(0 -0 -1.47824e-13)
(0 -0 -7.49897e-14)
(0 -0 -7.94487e-15)
(0 -0 7.65675e-15)
(0 -0 1.85484e-14)
(0 -0 -5.1344e-14)
(0 -0 -3.24958e-07)
(0 -0 4.0193e-07)
(0 -0 -9.53652e-08)
(0 -0 2.26262e-08)
(0 -0 -5.36845e-09)
(0 -0 1.27359e-09)
(0 -0 -3.02316e-10)
(0 -0 7.16589e-11)
(0 -0 -1.70772e-11)
(0 -0 3.94559e-12)
(0 -0 -9.61244e-13)
(0 -0 2.18435e-13)
(0 -0 -1.80012e-13)
(0 -0 -1.47762e-15)
(0 -0 -2.69975e-14)
(0 -0 -2.06557e-14)
(0 -0 1.26153e-14)
(0 -0 -1.19493e-14)
(0 -0 -4.77574e-14)
(0 -0 -4.87913e-14)
(0 -0 3.24164e-07)
(0 -0 -4.00741e-07)
(0 -0 9.50791e-08)
(0 -0 -2.25575e-08)
(0 -0 5.35169e-09)
(0 -0 -1.26981e-09)
(0 -0 3.01222e-10)
(0 -0 -7.15523e-11)
(0 -0 1.69683e-11)
(0 -0 -3.96042e-12)
(0 -0 8.72484e-13)
(0 -0 -3.23276e-13)
(0 -0 2.61065e-14)
(0 -0 2.5137e-14)
(0 -0 1.16232e-13)
(0 -0 -5.23442e-15)
(0 -0 -9.76709e-14)
(0 -0 -1.35973e-13)
(0 -0 -3.88694e-14)
(0 -0 -2.78659e-14)
(0 -0 -3.23344e-07)
(0 -0 3.99597e-07)
(0 -0 -9.48059e-08)
(0 -0 2.24921e-08)
(0 -0 -5.33621e-09)
(0 -0 1.26595e-09)
(0 -0 -3.00331e-10)
(0 -0 7.12334e-11)
(0 -0 -1.69885e-11)
(0 -0 3.89691e-12)
(0 -0 -1.07339e-12)
(0 -0 1.55954e-13)
(0 -0 -1.28195e-14)
(0 -0 -1.75769e-14)
(0 -0 -9.71837e-14)
(0 -0 -9.59262e-14)
(0 -0 -1.65333e-13)
(0 -0 -1.06625e-13)
(0 -0 -3.00492e-14)
(0 -0 -2.4427e-14)
(0 -0 3.22418e-07)
(0 -0 -3.98417e-07)
(0 -0 9.45247e-08)
(0 -0 -2.24254e-08)
(0 -0 5.32016e-09)
(0 -0 -1.26224e-09)
(0 -0 2.99414e-10)
(0 -0 -7.11282e-11)
(0 -0 1.68191e-11)
(0 -0 -4.05407e-12)
(0 -0 9.05887e-13)
(0 -0 -2.71106e-13)
(0 -0 1.09502e-14)
(0 -0 -1.01831e-13)
(0 -0 -3.49471e-14)
(0 -0 -5.14246e-14)
(0 -0 2.10071e-14)
(0 -0 2.32334e-14)
(0 -0 -4.48305e-14)
(0 -0 -3.07944e-14)
(0 -0 -3.21518e-07)
(0 -0 3.97301e-07)
(0 -0 -9.42601e-08)
(0 -0 2.23623e-08)
(0 -0 -5.30539e-09)
(0 -0 1.25853e-09)
(0 -0 -2.98688e-10)
(0 -0 7.08447e-11)
(0 -0 -1.67958e-11)
(0 -0 4.00548e-12)
(0 -0 -9.45162e-13)
(0 -0 2.1996e-13)
(0 -0 -1.2411e-13)
(0 -0 -4.89994e-14)
(0 -0 1.86751e-14)
(0 -0 -2.27338e-14)
(0 -0 6.15746e-15)
(0 -0 6.52712e-14)
(0 -0 -2.88688e-14)
(0 -0 -3.42136e-14)
(0 -0 3.20615e-07)
(0 -0 -3.96214e-07)
(0 -0 9.40022e-08)
(0 -0 -2.23012e-08)
(0 -0 5.29093e-09)
(0 -0 -1.2552e-09)
(0 -0 2.97768e-10)
(0 -0 -7.06418e-11)
(0 -0 1.67803e-11)
(0 -0 -3.93436e-12)
(0 -0 9.74191e-13)
(0 -0 -1.83858e-13)
(0 -0 1.29956e-13)
(0 -0 -3.85324e-14)
(0 -0 -8.41008e-14)
(0 -0 -1.42898e-14)
(0 -0 -4.18058e-14)
(0 -0 -4.15096e-14)
(0 -0 -3.21675e-14)
(0 -0 -4.02037e-14)
(0 -0 -3.19738e-07)
(0 -0 3.95183e-07)
(0 -0 -9.3758e-08)
(0 -0 2.22434e-08)
(0 -0 -5.27712e-09)
(0 -0 1.25205e-09)
(0 -0 -2.96866e-10)
(0 -0 7.05056e-11)
(0 -0 -1.6721e-11)
(0 -0 3.96022e-12)
(0 -0 -9.25193e-13)
(0 -0 2.72978e-13)
(0 -0 -6.73423e-14)
(0 -0 2.06902e-14)
(0 -0 -9.77178e-14)
(0 -0 1.99765e-15)
(0 -0 3.90711e-14)
(0 -0 5.62359e-17)
(0 -0 3.32506e-14)
(0 -0 2.25953e-14)
(0 -0 3.18917e-07)
(0 -0 -3.94217e-07)
(0 -0 9.35292e-08)
(0 -0 -2.21894e-08)
(0 -0 5.26429e-09)
(0 -0 -1.24896e-09)
(0 -0 2.96199e-10)
(0 -0 -7.04288e-11)
(0 -0 1.66049e-11)
(0 -0 -4.0882e-12)
(0 -0 8.20778e-13)
(0 -0 -3.08812e-13)
(0 -0 -5.05525e-14)
(0 -0 -1.74661e-14)
(0 -0 -5.85946e-15)
(0 -0 2.13096e-14)
(0 -0 5.00394e-15)
(0 -0 1.2249e-14)
(0 -0 1.93183e-14)
(0 -0 1.28617e-14)
(0 -0 -3.18091e-07)
(0 -0 3.93276e-07)
(0 -0 -9.33067e-08)
(0 -0 2.21366e-08)
(0 -0 -5.25195e-09)
(0 -0 1.24587e-09)
(0 -0 -2.95743e-10)
(0 -0 7.01354e-11)
(0 -0 -1.67076e-11)
(0 -0 3.95657e-12)
(0 -0 -9.36711e-13)
(0 -0 2.13683e-13)
(0 -0 -1.12402e-13)
(0 -0 5.43533e-15)
(0 -0 6.0603e-14)
(0 -0 -5.14462e-15)
(0 -0 -2.44096e-14)
(0 -0 -3.61836e-14)
(0 -0 2.79698e-14)
(0 -0 7.47446e-15)
(0 -0 3.1737e-07)
(0 -0 -3.92424e-07)
(0 -0 9.31054e-08)
(0 -0 -2.2089e-08)
(0 -0 5.24058e-09)
(0 -0 -1.24331e-09)
(0 -0 2.95085e-10)
(0 -0 -6.99211e-11)
(0 -0 1.66531e-11)
(0 -0 -3.85299e-12)
(0 -0 1.09282e-12)
(0 -0 -1.33032e-13)
(0 -0 1.15655e-13)
(0 -0 2.10209e-14)
(0 -0 6.01899e-14)
(0 -0 -5.132e-14)
(0 -0 -2.82381e-14)
(0 -0 2.52026e-14)
(0 -0 8.19683e-17)
(0 -0 5.29266e-14)
(0 -0 -3.16557e-07)
(0 -0 3.91535e-07)
(0 -0 -9.28952e-08)
(0 -0 2.20393e-08)
(0 -0 -5.22882e-09)
(0 -0 1.24057e-09)
(0 -0 -2.94313e-10)
(0 -0 6.98433e-11)
(0 -0 -1.65865e-11)
(0 -0 3.85637e-12)
(0 -0 -9.74311e-13)
(0 -0 2.34384e-13)
(0 -0 1.41564e-14)
(0 -0 -3.2115e-14)
(0 -0 -4.79184e-14)
(0 -0 3.09921e-14)
(0 -0 4.0627e-14)
(0 -0 3.54581e-14)
(0 -0 5.95099e-14)
(0 -0 -8.20833e-15)
(0 -0 3.15984e-07)
(0 -0 -3.9078e-07)
(0 -0 9.27168e-08)
(0 -0 -2.19971e-08)
(0 -0 5.21898e-09)
(0 -0 -1.23813e-09)
(0 -0 2.9374e-10)
(0 -0 -6.97031e-11)
(0 -0 1.65598e-11)
(0 -0 -3.97693e-12)
(0 -0 8.63486e-13)
(0 -0 -2.45478e-13)
(0 -0 -1.54215e-15)
(0 -0 4.97512e-15)
(0 -0 2.61323e-14)
(0 -0 6.08894e-14)
(0 -0 4.07732e-14)
(0 -0 8.58547e-14)
(0 -0 2.65113e-14)
(0 -0 2.14674e-14)
(0 -0 -3.15037e-07)
(0 -0 3.89858e-07)
(0 -0 -9.24987e-08)
(0 -0 2.19456e-08)
(0 -0 -5.20661e-09)
(0 -0 1.23538e-09)
(0 -0 -2.93006e-10)
(0 -0 6.95775e-11)
(0 -0 -1.64182e-11)
(0 -0 4.0242e-12)
(0 -0 -8.63445e-13)
(0 -0 2.47571e-13)
(0 -0 6.68941e-15)
(0 -0 1.06616e-13)
(0 -0 1.00592e-13)
(0 -0 7.53284e-14)
(0 -0 7.39676e-14)
(0 -0 -4.6879e-14)
(0 -0 -1.02455e-14)
(0 -0 5.28967e-14)
(0 -0 3.15533e-07)
(0 -0 -3.89723e-07)
(0 -0 9.25372e-08)
(0 -0 -2.19714e-08)
(0 -0 5.21669e-09)
(0 -0 -1.23878e-09)
(0 -0 2.93979e-10)
(0 -0 -6.99424e-11)
(0 -0 1.64721e-11)
(0 -0 -3.9465e-12)
(0 -0 9.20418e-13)
(0 -0 -2.74548e-13)
(0 -0 8.99008e-14)
(0 -0 -4.04088e-14)
(0 -0 -7.13231e-14)
(0 -0 -2.97401e-14)
(0 -0 -9.6584e-14)
(0 -0 -1.90544e-14)
(0 -0 1.97586e-14)
(0 -0 -2.1308e-15)
(0 -0 -3.15273e-07)
(0 -0 3.88923e-07)
(0 -0 -9.229e-08)
(0 -0 2.19613e-08)
(0 -0 -5.20143e-09)
(0 -0 1.24705e-09)
(0 -0 -2.90752e-10)
(0 -0 7.30311e-11)
(0 -0 -1.4923e-11)
(0 -0 5.18581e-12)
(0 -0 -1.3662e-13)
(0 -0 8.12996e-13)
(0 -0 2.84811e-13)
(0 -0 2.45416e-13)
(0 -0 1.66786e-13)
(0 -0 9.26202e-14)
(0 -0 6.1372e-14)
(0 -0 3.35149e-14)
(0 -0 3.73644e-14)
(0 -0 3.96449e-14)
)
;

boundaryField
{
    movingWall
    {
        type            calculated;
        value           nonuniform List<vector> 
20
(
(0 -0 -3.13447e-07)
(0 -0 3.89437e-07)
(0 -0 -9.25053e-08)
(0 -0 2.2134e-08)
(0 -0 -5.23709e-09)
(0 -0 1.27325e-09)
(0 -0 -2.91462e-10)
(0 -0 7.80732e-11)
(0 -0 -1.33571e-11)
(0 -0 6.86246e-12)
(0 -0 8.63492e-13)
(0 -0 1.60316e-12)
(0 -0 8.30425e-13)
(0 -0 6.503e-13)
(0 -0 4.92654e-13)
(0 -0 2.77759e-13)
(0 -0 2.29207e-13)
(0 -0 5.08187e-14)
(0 -0 5.46682e-14)
(0 -0 5.69487e-14)
)
;
    }
    fixedWalls
    {
        type            calculated;
        value           nonuniform List<vector> 
60
(
(0 -0 1.71375e-06)
(0 -0 -1.71399e-06)
(0 -0 1.71264e-06)
(0 -0 -1.71171e-06)
(0 -0 1.70783e-06)
(0 -0 -1.70362e-06)
(0 -0 1.6986e-06)
(0 -0 -1.69377e-06)
(0 -0 1.68877e-06)
(0 -0 -1.68404e-06)
(0 -0 1.67943e-06)
(0 -0 -1.67506e-06)
(0 -0 1.67096e-06)
(0 -0 -1.66697e-06)
(0 -0 1.66335e-06)
(0 -0 -1.65958e-06)
(0 -0 1.65636e-06)
(0 -0 -1.65245e-06)
(0 -0 1.65066e-06)
(0 -0 -1.64753e-06)
(0 -0 -1.55604e-14)
(0 -0 -1.55302e-15)
(0 -0 2.52988e-14)
(0 -0 -1.32003e-14)
(0 -0 -7.10458e-14)
(0 -0 -5.66324e-14)
(0 -0 -3.18883e-14)
(0 -0 -2.22761e-14)
(0 -0 -1.68648e-14)
(0 -0 -3.11734e-14)
(0 -0 -4.83512e-14)
(0 -0 8.58615e-16)
(0 -0 7.9456e-15)
(0 -0 1.54661e-14)
(0 -0 4.85886e-14)
(0 -0 -1.38539e-14)
(0 -0 2.33383e-14)
(0 -0 4.92671e-14)
(0 -0 -1.00769e-14)
(0 -0 3.8562e-14)
(0 -0 3.27621e-07)
(0 -0 -4.05709e-07)
(0 -0 9.6473e-08)
(0 -0 -2.3126e-08)
(0 -0 5.46131e-09)
(0 -0 -1.33801e-09)
(0 -0 3.01683e-10)
(0 -0 -8.40917e-11)
(0 -0 1.24554e-11)
(0 -0 -8.25443e-12)
(0 -0 -1.67448e-12)
(0 -0 -2.14091e-12)
(0 -0 -1.22094e-12)
(0 -0 -8.48372e-13)
(0 -0 -4.72504e-13)
(0 -0 -2.50283e-13)
(0 -0 -1.10068e-13)
(0 -0 -1.29797e-14)
(0 -0 -4.48817e-14)
(0 -0 -3.12111e-15)
)
;
    }
    frontAndBack
    {
        type            empty;
    }
}


// ************************************************************************* //
