/*--------------------------------*- C++ -*----------------------------------*\
| =========                 |                                                 |
| \\      /  F ield         | OpenFOAM: The Open Source CFD Toolbox           |
|  \\    /   O peration     | Version:  2312                                  |
|   \\  /    A nd           | Website:  www.openfoam.com                      |
|    \\/     M anipulation  |                                                 |
\*---------------------------------------------------------------------------*/
FoamFile
{
    version     2.0;
    format      ascii;
    arch        "LSB;label=32;scalar=64";
    class       volScalarField;
    location    "4.875";
    object      zeroGradient(epsilon);
}
// * * * * * * * * * * * * * * * * * * * * * * * * * * * * * * * * * * * * * //

dimensions      [0 2 -3 0 0 0 0];

internalField   nonuniform List<scalar> 
400
(
9.76249e-06
9.76246e-06
9.76239e-06
9.76242e-06
9.76232e-06
9.76237e-06
9.76227e-06
9.76232e-06
9.76224e-06
9.76227e-06
9.76223e-06
9.76224e-06
9.76222e-06
9.76222e-06
9.76221e-06
9.76221e-06
9.76221e-06
9.7622e-06
9.7622e-06
9.7622e-06
1.12875e-05
1.10125e-05
1.10347e-05
1.10438e-05
1.10623e-05
1.10718e-05
1.10904e-05
1.11002e-05
1.1119e-05
1.1129e-05
1.11481e-05
1.11584e-05
1.11776e-05
1.11882e-05
1.12076e-05
1.12186e-05
1.12381e-05
1.12494e-05
1.12593e-05
1.12749e-05
1.33983e-05
1.30476e-05
1.30761e-05
1.30878e-05
1.31116e-05
1.31237e-05
1.31476e-05
1.316e-05
1.31842e-05
1.31968e-05
1.32213e-05
1.32341e-05
1.32588e-05
1.32719e-05
1.32968e-05
1.33103e-05
1.33352e-05
1.33492e-05
1.33617e-05
1.33813e-05
1.52477e-05
1.48288e-05
1.48628e-05
1.48767e-05
1.49049e-05
1.49194e-05
1.49478e-05
1.49626e-05
1.49914e-05
1.50065e-05
1.50356e-05
1.50509e-05
1.50803e-05
1.5096e-05
1.51256e-05
1.51417e-05
1.51715e-05
1.51882e-05
1.52031e-05
1.52265e-05
1.65342e-05
1.60656e-05
1.61035e-05
1.6119e-05
1.61505e-05
1.61666e-05
1.61984e-05
1.62149e-05
1.6247e-05
1.62638e-05
1.62963e-05
1.63135e-05
1.63463e-05
1.63639e-05
1.6397e-05
1.6415e-05
1.64483e-05
1.6467e-05
1.64837e-05
1.65098e-05
1.73247e-05
1.68249e-05
1.68652e-05
1.68817e-05
1.69153e-05
1.69325e-05
1.69663e-05
1.69839e-05
1.70181e-05
1.7036e-05
1.70706e-05
1.70889e-05
1.71239e-05
1.71427e-05
1.71779e-05
1.71972e-05
1.72326e-05
1.72526e-05
1.72704e-05
1.72983e-05
1.77873e-05
1.7269e-05
1.73107e-05
1.73278e-05
1.73626e-05
1.73804e-05
1.74154e-05
1.74337e-05
1.74691e-05
1.74877e-05
1.75236e-05
1.75426e-05
1.75788e-05
1.75982e-05
1.76348e-05
1.76548e-05
1.76915e-05
1.77122e-05
1.77306e-05
1.77596e-05
1.80641e-05
1.75348e-05
1.75774e-05
1.75949e-05
1.76304e-05
1.76486e-05
1.76843e-05
1.77029e-05
1.77391e-05
1.77581e-05
1.77947e-05
1.78141e-05
1.78511e-05
1.78709e-05
1.79083e-05
1.79287e-05
1.79662e-05
1.79874e-05
1.80062e-05
1.80357e-05
1.82467e-05
1.77101e-05
1.77532e-05
1.77709e-05
1.78069e-05
1.78253e-05
1.78615e-05
1.78804e-05
1.79171e-05
1.79363e-05
1.79734e-05
1.79931e-05
1.80306e-05
1.80507e-05
1.80885e-05
1.81093e-05
1.81473e-05
1.81687e-05
1.81878e-05
1.82177e-05
1.83864e-05
1.78442e-05
1.78878e-05
1.79057e-05
1.7942e-05
1.79606e-05
1.79972e-05
1.80163e-05
1.80533e-05
1.80727e-05
1.81102e-05
1.81301e-05
1.8168e-05
1.81883e-05
1.82265e-05
1.82474e-05
1.82858e-05
1.83075e-05
1.83268e-05
1.8357e-05
1.85107e-05
1.79636e-05
1.80076e-05
1.80256e-05
1.80622e-05
1.8081e-05
1.81179e-05
1.81372e-05
1.81745e-05
1.81942e-05
1.8232e-05
1.8252e-05
1.82902e-05
1.83108e-05
1.83493e-05
1.83704e-05
1.84092e-05
1.84311e-05
1.84505e-05
1.8481e-05
1.86346e-05
1.80826e-05
1.81269e-05
1.81451e-05
1.81821e-05
1.82011e-05
1.82383e-05
1.82577e-05
1.82954e-05
1.83152e-05
1.83533e-05
1.83735e-05
1.84121e-05
1.84328e-05
1.84717e-05
1.8493e-05
1.85321e-05
1.85542e-05
1.85738e-05
1.86046e-05
1.8767e-05
1.82097e-05
1.82545e-05
1.82728e-05
1.83101e-05
1.83293e-05
1.83668e-05
1.83865e-05
1.84244e-05
1.84445e-05
1.84829e-05
1.85034e-05
1.85423e-05
1.85632e-05
1.86024e-05
1.8624e-05
1.86634e-05
1.86857e-05
1.87055e-05
1.87366e-05
1.89141e-05
1.8351e-05
1.83962e-05
1.84147e-05
1.84524e-05
1.84717e-05
1.85097e-05
1.85295e-05
1.85679e-05
1.85881e-05
1.8627e-05
1.86476e-05
1.86869e-05
1.87081e-05
1.87477e-05
1.87695e-05
1.88093e-05
1.88319e-05
1.88519e-05
1.88833e-05
1.90811e-05
1.85114e-05
1.85571e-05
1.85758e-05
1.86139e-05
1.86335e-05
1.86719e-05
1.8692e-05
1.87308e-05
1.87513e-05
1.87906e-05
1.88115e-05
1.88512e-05
1.88726e-05
1.89127e-05
1.89347e-05
1.8975e-05
1.89979e-05
1.90181e-05
1.90499e-05
1.92719e-05
1.86945e-05
1.87408e-05
1.87598e-05
1.87984e-05
1.88183e-05
1.88571e-05
1.88775e-05
1.89168e-05
1.89375e-05
1.89774e-05
1.89985e-05
1.90388e-05
1.90605e-05
1.91011e-05
1.91235e-05
1.91643e-05
1.91874e-05
1.92079e-05
1.92401e-05
1.94848e-05
1.8899e-05
1.8946e-05
1.89652e-05
1.90044e-05
1.90245e-05
1.90639e-05
1.90846e-05
1.91244e-05
1.91455e-05
1.91859e-05
1.92074e-05
1.92482e-05
1.92702e-05
1.93114e-05
1.93341e-05
1.93755e-05
1.9399e-05
1.94198e-05
1.94525e-05
1.97051e-05
1.91106e-05
1.91582e-05
1.91778e-05
1.92175e-05
1.92379e-05
1.92778e-05
1.92988e-05
1.93392e-05
1.93606e-05
1.94016e-05
1.94234e-05
1.94648e-05
1.94872e-05
1.9529e-05
1.9552e-05
1.9594e-05
1.96179e-05
1.9639e-05
1.96721e-05
1.98962e-05
1.93069e-05
1.93532e-05
1.93722e-05
1.9411e-05
1.9431e-05
1.94702e-05
1.94909e-05
1.95307e-05
1.95519e-05
1.95924e-05
1.96142e-05
1.96554e-05
1.96778e-05
1.97195e-05
1.97427e-05
1.97848e-05
1.98091e-05
1.98302e-05
1.98637e-05
1.99788e-05
1.99787e-05
1.99786e-05
1.99786e-05
1.99785e-05
1.99785e-05
1.99784e-05
1.99784e-05
1.99784e-05
1.99783e-05
1.99783e-05
1.99783e-05
1.99783e-05
1.99783e-05
1.99783e-05
1.99782e-05
1.99782e-05
1.99782e-05
1.99782e-05
1.99782e-05
)
;

boundaryField
{
    movingWall
    {
        type            zeroGradient;
    }
    fixedWalls
    {
        type            zeroGradient;
    }
    frontAndBack
    {
        type            empty;
    }
}


// ************************************************************************* //
