/*--------------------------------*- C++ -*----------------------------------*\
| =========                 |                                                 |
| \\      /  F ield         | OpenFOAM: The Open Source CFD Toolbox           |
|  \\    /   O peration     | Version:  2312                                  |
|   \\  /    A nd           | Website:  www.openfoam.com                      |
|    \\/     M anipulation  |                                                 |
\*---------------------------------------------------------------------------*/
FoamFile
{
    version     2.0;
    format      ascii;
    arch        "LSB;label=32;scalar=64";
    class       volVectorField;
    location    "3";
    object      ddtU;
}
// * * * * * * * * * * * * * * * * * * * * * * * * * * * * * * * * * * * * * //

dimensions      [0 1 -2 0 0 0 0];

internalField   nonuniform List<vector> 
400
(
(1.22326e-06 -9.44109e-07 0)
(-3.01127e-07 2.99908e-07 0)
(1.32269e-07 -7.07635e-08 0)
(-2.21747e-08 2.26528e-08 0)
(2.11225e-08 -4.86774e-09 0)
(4.12799e-09 2.26545e-09 0)
(7.20353e-09 3.31165e-10 0)
(4.24221e-09 7.35704e-10 0)
(3.50564e-09 5.21948e-10 0)
(2.32645e-09 4.54664e-10 0)
(1.55307e-09 3.54672e-10 0)
(9.00036e-10 2.68507e-10 0)
(4.39648e-10 1.88288e-10 0)
(1.31406e-10 1.11381e-10 0)
(-2.74669e-11 4.93606e-11 0)
(-6.95444e-11 6.77594e-12 0)
(-5.77094e-11 -2.67049e-11 0)
(3.16414e-11 -6.41772e-11 0)
(2.1243e-10 -8.52199e-11 0)
(2.55285e-10 1.39126e-10 0)
(1.71106e-07 8.11015e-07 0)
(-1.05648e-07 -2.85782e-07 0)
(4.0387e-08 7.18803e-08 0)
(-7.75471e-09 -2.06793e-08 0)
(1.5717e-08 8.82676e-09 0)
(5.31926e-09 6.90713e-10 0)
(7.01026e-09 2.80885e-09 0)
(4.27876e-09 1.84561e-09 0)
(3.44826e-09 1.71095e-09 0)
(2.2784e-09 1.36243e-09 0)
(1.50702e-09 1.08921e-09 0)
(8.61067e-10 8.16958e-10 0)
(4.0612e-10 5.74895e-10 0)
(1.04849e-10 3.41683e-10 0)
(-4.86944e-11 1.48771e-10 0)
(-8.98615e-11 1.96059e-11 0)
(-7.52065e-11 -7.64146e-11 0)
(2.83329e-11 -1.82248e-10 0)
(2.0679e-10 -2.66705e-10 0)
(2.49267e-10 4.17085e-10 0)
(3.27942e-06 -5.91227e-07 0)
(-7.55577e-07 1.64174e-07 0)
(3.15962e-07 -3.86498e-08 0)
(-6.16974e-08 1.44595e-08 0)
(3.60374e-08 1.67648e-09 0)
(3.42326e-10 5.41123e-09 0)
(7.97065e-09 3.7074e-09 0)
(3.57558e-09 3.40561e-09 0)
(3.25175e-09 2.75215e-09 0)
(2.03269e-09 2.26073e-09 0)
(1.35221e-09 1.78028e-09 0)
(7.45404e-10 1.33845e-09 0)
(3.29559e-10 9.38051e-10 0)
(5.11147e-11 5.54625e-10 0)
(-8.47544e-11 2.38926e-10 0)
(-1.0989e-10 2.59982e-11 0)
(-8.92841e-11 -1.34323e-10 0)
(1.5099e-12 -3.08635e-10 0)
(1.85563e-10 -4.42411e-10 0)
(2.36344e-10 6.8018e-10 0)
(-1.04223e-07 7.14285e-08 0)
(-8.20803e-08 5.14155e-09 0)
(3.04877e-08 1.49115e-08 0)
(-3.0097e-09 1.36459e-08 0)
(1.58005e-08 7.89932e-09 0)
(4.79132e-09 7.56955e-09 0)
(5.92149e-09 5.42729e-09 0)
(3.29967e-09 4.66348e-09 0)
(2.6934e-09 3.74733e-09 0)
(1.7121e-09 3.06547e-09 0)
(1.1058e-09 2.40985e-09 0)
(5.80869e-10 1.81161e-09 0)
(2.16427e-10 1.26687e-09 0)
(-2.05169e-11 7.45073e-10 0)
(-1.31006e-10 3.12657e-10 0)
(-1.47815e-10 2.23233e-11 0)
(-1.18039e-10 -1.93817e-10 0)
(-3.93019e-12 -4.30174e-10 0)
(1.70419e-10 -6.19379e-10 0)
(2.18359e-10 9.2544e-10 0)
(2.95847e-06 4.02371e-08 0)
(-6.29703e-07 1.34844e-07 0)
(2.65754e-07 -9.07085e-09 0)
(-5.05662e-08 3.30877e-08 0)
(2.47972e-08 6.95487e-09 0)
(-9.52061e-10 1.05281e-08 0)
(5.02394e-09 6.28351e-09 0)
(2.19544e-09 5.80687e-09 0)
(2.07176e-09 4.5142e-09 0)
(1.26816e-09 3.75603e-09 0)
(7.97695e-10 2.93991e-09 0)
(3.7339e-10 2.21723e-09 0)
(7.92921e-11 1.54612e-09 0)
(-1.11244e-10 9.01582e-10 0)
(-1.90314e-10 3.66763e-10 0)
(-1.80411e-10 8.29851e-12 0)
(-1.37867e-10 -2.58925e-10 0)
(-4.25882e-11 -5.56094e-10 0)
(1.3598e-10 -7.88625e-10 0)
(1.94866e-10 1.14413e-09 0)
(-3.12348e-06 -6.9471e-07 0)
(7.20138e-07 2.92587e-07 0)
(-2.90442e-07 -5.61858e-08 0)
(6.91964e-08 3.97011e-08 0)
(-2.22927e-08 3.8824e-09 0)
(8.59441e-09 1.14625e-08 0)
(3.33955e-11 6.80049e-09 0)
(2.21461e-09 6.46778e-09 0)
(1.04454e-09 5.10614e-09 0)
(8.56182e-10 4.2685e-09 0)
(4.24594e-10 3.36121e-09 0)
(1.47793e-10 2.53672e-09 0)
(-7.6894e-11 1.76607e-09 0)
(-2.03815e-10 1.01831e-09 0)
(-2.46381e-10 3.94421e-10 0)
(-2.25353e-10 -2.21732e-11 0)
(-1.72529e-10 -3.28882e-10 0)
(-4.73177e-11 -6.76028e-10 0)
(1.14309e-10 -9.53361e-10 0)
(1.66045e-10 1.33237e-09 0)
(1.69255e-07 6.51488e-07 0)
(7.42016e-08 -1.79482e-07 0)
(-1.11934e-08 5.4953e-08 0)
(1.53568e-08 -1.56213e-09 0)
(-5.13964e-09 1.237e-08 0)
(2.44413e-09 8.39273e-09 0)
(-8.71525e-11 7.73286e-09 0)
(9.09184e-10 6.57039e-09 0)
(3.95328e-10 5.53596e-09 0)
(3.17368e-10 4.59267e-09 0)
(6.40155e-11 3.65964e-09 0)
(-9.7633e-11 2.7603e-09 0)
(-2.31615e-10 1.91817e-09 0)
(-3.01004e-10 1.08864e-09 0)
(-3.05489e-10 3.95391e-10 0)
(-2.53531e-10 -6.59252e-11 0)
(-1.85585e-10 -4.04187e-10 0)
(-8.75078e-11 -7.9603e-10 0)
(7.19202e-11 -1.10478e-09 0)
(1.33693e-10 1.48364e-09 0)
(-3.29299e-06 -1.30313e-06 0)
(8.34804e-07 3.59418e-07 0)
(-3.1133e-07 -7.2387e-08 0)
(8.27254e-08 2.8486e-08 0)
(-2.86095e-08 5.27078e-09 0)
(8.11391e-09 9.60679e-09 0)
(-2.86833e-09 7.66567e-09 0)
(6.09024e-10 6.74006e-09 0)
(-4.42335e-10 5.70901e-09 0)
(-1.53433e-10 4.76494e-09 0)
(-3.07732e-10 3.82081e-09 0)
(-3.33045e-10 2.88233e-09 0)
(-3.82316e-10 1.99561e-09 0)
(-3.81695e-10 1.11002e-09 0)
(-3.45524e-10 3.66136e-10 0)
(-2.86082e-10 -1.26389e-10 0)
(-2.11919e-10 -4.8244e-10 0)
(-8.35776e-11 -9.05735e-10 0)
(4.88942e-11 -1.24289e-09 0)
(9.61453e-11 1.59544e-09 0)
(5.98376e-07 1.05591e-06 0)
(-1.52636e-07 -4.0264e-07 0)
(4.97504e-08 1.1234e-07 0)
(-1.09698e-08 -2.3381e-08 0)
(2.26914e-09 1.9069e-08 0)
(-2.24301e-09 6.10041e-09 0)
(-1.25593e-09 8.28943e-09 0)
(-1.25651e-09 6.44153e-09 0)
(-9.14002e-10 5.73237e-09 0)
(-7.28906e-10 4.76323e-09 0)
(-6.35758e-10 3.84735e-09 0)
(-5.62861e-10 2.89876e-09 0)
(-5.09326e-10 1.99571e-09 0)
(-4.51306e-10 1.0805e-09 0)
(-3.78098e-10 3.0907e-10 0)
(-2.90679e-10 -1.97985e-10 0)
(-2.05347e-10 -5.61092e-10 0)
(-1.15596e-10 -1.00665e-09 0)
(4.13003e-12 -1.35957e-09 0)
(5.80647e-11 1.66382e-09 0)
(-4.05592e-07 -6.74359e-07 0)
(2.76083e-07 3.76799e-07 0)
(-7.46813e-08 -7.62715e-08 0)
(3.63934e-08 3.98446e-08 0)
(-1.43849e-08 7.81021e-10 0)
(1.05551e-09 1.0698e-08 0)
(-3.82787e-09 6.69518e-09 0)
(-1.48632e-09 6.44488e-09 0)
(-1.70526e-09 5.46798e-09 0)
(-1.15565e-09 4.61778e-09 0)
(-9.70579e-10 3.71676e-09 0)
(-7.55218e-10 2.80475e-09 0)
(-6.15175e-10 1.91448e-09 0)
(-4.87654e-10 1.00063e-09 0)
(-3.77987e-10 2.24957e-10 0)
(-2.92322e-10 -2.8051e-10 0)
(-2.10543e-10 -6.35428e-10 0)
(-9.70779e-11 -1.08898e-09 0)
(-1.58096e-11 -1.45215e-09 0)
(1.52323e-11 1.68795e-09 0)
(-2.43015e-06 -1.25592e-06 0)
(3.64774e-07 7.1036e-08 0)
(-1.87629e-07 1.58985e-08 0)
(2.17804e-08 -3.45737e-09 0)
(-1.27297e-08 1.33677e-08 0)
(-1.53486e-09 5.20365e-09 0)
(-4.45299e-09 7.03387e-09 0)
(-2.83122e-09 5.54627e-09 0)
(-2.22089e-09 5.00503e-09 0)
(-1.69309e-09 4.21444e-09 0)
(-1.24118e-09 3.4405e-09 0)
(-9.13158e-10 2.59522e-09 0)
(-6.7637e-10 1.7554e-09 0)
(-4.97913e-10 8.72972e-10 0)
(-3.61622e-10 1.19035e-10 0)
(-2.58038e-10 -3.66155e-10 0)
(-1.74394e-10 -7.00213e-10 0)
(-1.13176e-10 -1.15024e-09 0)
(-5.77982e-11 -1.51485e-09 0)
(-2.44249e-11 1.66713e-09 0)
(4.00188e-06 3.50099e-06 0)
(-5.64376e-07 -4.35279e-07 0)
(2.61316e-07 9.13061e-08 0)
(-3.7172e-08 3.15463e-09 0)
(2.49099e-09 3.9283e-09 0)
(-6.55276e-09 6.77333e-09 0)
(-4.20304e-09 4.21321e-09 0)
(-3.4555e-09 4.91492e-09 0)
(-2.78939e-09 4.02216e-09 0)
(-1.96325e-09 3.66835e-09 0)
(-1.44071e-09 3.00999e-09 0)
(-1.0002e-09 2.28362e-09 0)
(-6.94222e-10 1.52366e-09 0)
(-4.6132e-10 7.05147e-10 0)
(-3.02469e-10 -1.48333e-12 0)
(-2.15405e-10 -4.49982e-10 0)
(-1.49525e-10 -7.48708e-10 0)
(-7.61835e-11 -1.18161e-09 0)
(-6.99663e-11 -1.5415e-09 0)
(-6.83897e-11 1.60242e-09 0)
(-9.77416e-06 -8.70971e-06 0)
(1.70566e-06 1.49311e-06 0)
(-7.29914e-07 -3.51526e-07 0)
(1.31987e-07 6.65117e-08 0)
(-4.97848e-08 -3.1811e-09 0)
(5.47922e-09 7.73477e-09 0)
(-8.33775e-09 4.43474e-09 0)
(-3.01226e-09 3.81118e-09 0)
(-3.32121e-09 3.45844e-09 0)
(-2.0685e-09 2.98552e-09 0)
(-1.55016e-09 2.48614e-09 0)
(-1.0183e-09 1.87918e-09 0)
(-6.49814e-10 1.23368e-09 0)
(-3.86713e-10 5.07359e-10 0)
(-2.22355e-10 -1.27524e-10 0)
(-1.34937e-10 -5.22222e-10 0)
(-7.96474e-11 -7.7402e-10 0)
(-6.74127e-11 -1.17869e-09 0)
(-1.00453e-10 -1.53042e-09 0)
(-1.05782e-10 1.49821e-09 0)
(1.31656e-05 1.68968e-05 0)
(-2.24853e-06 -3.26119e-06 0)
(1.03284e-06 7.63091e-07 0)
(-1.72986e-07 -1.05649e-07 0)
(4.64663e-08 2.92718e-08 0)
(-2.1853e-08 2.04768e-09 0)
(-4.40306e-09 3.30562e-09 0)
(-5.69524e-09 2.92975e-09 0)
(-3.38423e-09 2.33464e-09 0)
(-2.4565e-09 2.19368e-09 0)
(-1.57543e-09 1.81231e-09 0)
(-9.67448e-10 1.40413e-09 0)
(-5.45386e-10 8.95969e-10 0)
(-2.58749e-10 2.95089e-10 0)
(-9.56346e-11 -2.46328e-10 0)
(-4.45421e-11 -5.7393e-10 0)
(-2.27818e-11 -7.73038e-10 0)
(-1.03917e-11 -1.1393e-09 0)
(-9.86544e-11 -1.47125e-09 0)
(-1.46083e-10 1.35785e-09 0)
(-2.07648e-05 -2.05936e-05 0)
(4.32111e-06 4.76612e-06 0)
(-1.90195e-06 -1.09445e-06 0)
(3.65823e-07 2.68434e-07 0)
(-1.56056e-07 -5.43903e-08 0)
(2.42365e-08 1.55573e-08 0)
(-1.8113e-08 -2.16873e-09 0)
(-2.35163e-09 1.52619e-09 0)
(-4.58558e-09 7.29331e-10 0)
(-2.10125e-09 1.10183e-09 0)
(-1.52911e-09 1.04528e-09 0)
(-7.72338e-10 8.65536e-10 0)
(-3.65885e-10 5.42415e-10 0)
(-8.2645e-11 8.72947e-11 0)
(5.00933e-11 -3.43633e-10 0)
(7.68274e-11 -5.96538e-10 0)
(7.37632e-11 -7.37949e-10 0)
(2.73559e-11 -1.05661e-09 0)
(-1.09046e-10 -1.36772e-09 0)
(-1.77547e-10 1.19047e-09 0)
(1.57002e-05 2.1801e-05 0)
(-2.92696e-06 -4.73715e-06 0)
(1.2985e-06 1.10028e-06 0)
(-2.56922e-07 -2.25966e-07 0)
(5.75698e-08 4.35662e-08 0)
(-3.36521e-08 -1.13278e-08 0)
(-4.51594e-09 -1.71592e-09 0)
(-6.79707e-09 -1.79913e-09 0)
(-3.18097e-09 -8.85773e-10 0)
(-2.05538e-09 -7.20243e-11 0)
(-1.08122e-09 2.49242e-10 0)
(-4.77929e-10 3.39628e-10 0)
(-9.12603e-11 2.09381e-10 0)
(1.42464e-10 -9.14437e-11 0)
(2.34568e-10 -4.01829e-10 0)
(2.02061e-10 -5.80811e-10 0)
(1.51612e-10 -6.70792e-10 0)
(9.29479e-11 -9.40076e-10 0)
(-9.57012e-11 -1.21115e-09 0)
(-2.09832e-10 9.98896e-10 0)
(-3.51835e-05 -2.37643e-05 0)
(8.11776e-06 6.27824e-06 0)
(-3.32819e-06 -1.5077e-06 0)
(7.52932e-07 3.82276e-07 0)
(-2.96865e-07 -1.12023e-07 0)
(6.4686e-08 1.41593e-08 0)
(-3.06716e-08 -1.41092e-08 0)
(3.03437e-09 -3.03613e-09 0)
(-4.30795e-09 -2.9439e-09 0)
(-5.17142e-10 -1.04524e-09 0)
(-6.43174e-10 -4.36858e-10 0)
(3.14859e-11 -8.95903e-11 0)
(2.35367e-10 -5.60128e-11 0)
(4.01235e-10 -2.11541e-10 0)
(4.19087e-10 -4.14594e-10 0)
(3.37064e-10 -5.24166e-10 0)
(2.50955e-10 -5.69063e-10 0)
(1.35003e-10 -7.85333e-10 0)
(-1.01918e-10 -1.01835e-09 0)
(-2.33902e-10 7.88959e-10 0)
(-2.01201e-06 2.55051e-05 0)
(1.3005e-06 -7.08152e-06 0)
(-3.42362e-07 1.59063e-06 0)
(1.30035e-07 -5.3777e-07 0)
(-7.40979e-08 8.21972e-08 0)
(7.88363e-09 -5.61982e-08 0)
(-9.77045e-09 -2.84224e-09 0)
(9.73266e-10 -9.33363e-09 0)
(-8.13749e-10 -2.73038e-09 0)
(4.02167e-10 -1.96617e-09 0)
(3.01137e-10 -7.40818e-10 0)
(5.39835e-10 -3.87142e-10 0)
(6.07248e-10 -2.1848e-10 0)
(6.56053e-10 -2.74623e-10 0)
(6.03206e-10 -3.80772e-10 0)
(4.56346e-10 -4.34607e-10 0)
(3.16636e-10 -4.47671e-10 0)
(1.72928e-10 -6.02977e-10 0)
(-1.03872e-10 -7.77273e-10 0)
(-2.56906e-10 5.57885e-10 0)
(-1.73162e-05 -2.29378e-05 0)
(3.92141e-06 3.93017e-06 0)
(-1.51609e-06 -9.94223e-07 0)
(3.79411e-07 -4.89604e-09 0)
(-8.91545e-08 -4.28213e-08 0)
(4.4456e-08 -3.4458e-08 0)
(-2.83928e-10 -5.86906e-09 0)
(6.60512e-09 -8.15673e-09 0)
(1.87015e-09 -2.04783e-09 0)
(1.75056e-09 -1.73166e-09 0)
(1.14775e-09 -5.41102e-10 0)
(1.02807e-09 -3.20828e-10 0)
(9.37073e-10 -1.36455e-10 0)
(8.75167e-10 -1.59146e-10 0)
(7.50244e-10 -2.10621e-10 0)
(5.4845e-10 -2.39324e-10 0)
(3.98126e-10 -2.18816e-10 0)
(2.51754e-10 -3.1129e-10 0)
(-7.4829e-11 -4.80667e-10 0)
(-2.72626e-10 3.14042e-10 0)
(4.90312e-05 2.53175e-05 0)
(-1.25873e-05 -8.27236e-06 0)
(4.79848e-06 1.99381e-06 0)
(-1.21982e-06 -6.64748e-07 0)
(4.80702e-07 1.63066e-07 0)
(-1.05058e-07 -6.04828e-08 0)
(5.44603e-08 1.14357e-08 0)
(-5.21516e-09 -6.76898e-09 0)
(8.08025e-09 3.20241e-10 0)
(1.33467e-09 -8.94274e-10 0)
(2.0961e-09 -6.16982e-11 0)
(1.21685e-09 -9.23833e-11 0)
(1.16662e-09 5.46736e-12 0)
(9.84901e-10 -1.45516e-11 0)
(8.29559e-10 -3.26046e-11 0)
(5.96589e-10 -4.39723e-11 0)
(4.62075e-10 -2.75318e-11 0)
(3.47633e-10 -6.60793e-11 0)
(-1.22569e-11 -1.56814e-10 0)
(-2.78044e-10 9.42157e-11 0)
)
;

boundaryField
{
    movingWall
    {
        type            calculated;
        value           uniform (0 0 0);
    }
    fixedWalls
    {
        type            calculated;
        value           uniform (0 0 0);
    }
    frontAndBack
    {
        type            empty;
    }
}


// ************************************************************************* //
