/*--------------------------------*- C++ -*----------------------------------*\
| =========                 |                                                 |
| \\      /  F ield         | OpenFOAM: The Open Source CFD Toolbox           |
|  \\    /   O peration     | Version:  2312                                  |
|   \\  /    A nd           | Website:  www.openfoam.com                      |
|    \\/     M anipulation  |                                                 |
\*---------------------------------------------------------------------------*/
FoamFile
{
    version     2.0;
    format      ascii;
    arch        "LSB;label=32;scalar=64";
    class       volVectorField;
    location    "3";
    object      diffU;
}
// * * * * * * * * * * * * * * * * * * * * * * * * * * * * * * * * * * * * * //

dimensions      [0 1 -1 0 0 0 0];

internalField   nonuniform List<vector> 
400
(
(0 0 0)
(7.16481e-08 -4.31879e-07 0)
(5.02749e-08 -3.28653e-07 0)
(5.77896e-08 -3.53377e-07 0)
(5.55037e-08 -3.47404e-07 0)
(5.63523e-08 -3.48849e-07 0)
(5.61598e-08 -3.48491e-07 0)
(5.62865e-08 -3.48572e-07 0)
(5.62949e-08 -3.48546e-07 0)
(5.63282e-08 -3.48547e-07 0)
(5.63422e-08 -3.48542e-07 0)
(5.63536e-08 -3.48539e-07 0)
(5.6359e-08 -3.48537e-07 0)
(5.63614e-08 -3.48536e-07 0)
(5.63615e-08 -3.48535e-07 0)
(5.63605e-08 -3.48534e-07 0)
(5.63588e-08 -3.48534e-07 0)
(5.63569e-08 -3.48534e-07 0)
(5.63557e-08 -3.48535e-07 0)
(5.63558e-08 -3.48535e-07 0)
(3.91616e-08 -7.05869e-07 0)
(6.01546e-08 -2.62708e-07 0)
(5.42642e-08 -3.69156e-07 0)
(5.65756e-08 -3.43615e-07 0)
(5.58707e-08 -3.49871e-07 0)
(5.62426e-08 -3.48326e-07 0)
(5.61936e-08 -3.48692e-07 0)
(5.62822e-08 -3.48577e-07 0)
(5.63021e-08 -3.48585e-07 0)
(5.63317e-08 -3.48565e-07 0)
(5.63458e-08 -3.48556e-07 0)
(5.63561e-08 -3.48547e-07 0)
(5.63608e-08 -3.48541e-07 0)
(5.63627e-08 -3.48537e-07 0)
(5.63624e-08 -3.48534e-07 0)
(5.6361e-08 -3.48533e-07 0)
(5.6359e-08 -3.48532e-07 0)
(5.6357e-08 -3.48533e-07 0)
(5.63557e-08 -3.48534e-07 0)
(5.63558e-08 -3.48535e-07 0)
(-7.99999e-08 2.74734e-08 0)
(9.46494e-08 -4.33963e-07 0)
(4.22079e-08 -3.28454e-07 0)
(6.00953e-08 -3.53382e-07 0)
(5.47264e-08 -3.47656e-07 0)
(5.65886e-08 -3.48965e-07 0)
(5.61098e-08 -3.48613e-07 0)
(5.63274e-08 -3.48652e-07 0)
(5.63066e-08 -3.48605e-07 0)
(5.63441e-08 -3.48586e-07 0)
(5.63524e-08 -3.48567e-07 0)
(5.63615e-08 -3.48554e-07 0)
(5.63643e-08 -3.48544e-07 0)
(5.6365e-08 -3.48537e-07 0)
(5.63639e-08 -3.48533e-07 0)
(5.63619e-08 -3.48531e-07 0)
(5.63596e-08 -3.4853e-07 0)
(5.63573e-08 -3.48531e-07 0)
(5.63558e-08 -3.48533e-07 0)
(5.63558e-08 -3.48535e-07 0)
(-1.21492e-08 -7.49212e-07 0)
(6.81577e-08 -2.62436e-07 0)
(5.01313e-08 -3.69598e-07 0)
(5.70851e-08 -3.44597e-07 0)
(5.56633e-08 -3.49871e-07 0)
(5.63406e-08 -3.48583e-07 0)
(5.62329e-08 -3.4877e-07 0)
(5.63292e-08 -3.48665e-07 0)
(5.63352e-08 -3.48634e-07 0)
(5.63569e-08 -3.486e-07 0)
(5.63637e-08 -3.48576e-07 0)
(5.63686e-08 -3.48558e-07 0)
(5.63693e-08 -3.48545e-07 0)
(5.63682e-08 -3.48536e-07 0)
(5.63659e-08 -3.48531e-07 0)
(5.63631e-08 -3.48529e-07 0)
(5.63601e-08 -3.48528e-07 0)
(5.63575e-08 -3.48529e-07 0)
(5.63559e-08 -3.48533e-07 0)
(5.63558e-08 -3.48534e-07 0)
(3.11758e-08 1.19927e-07 0)
(7.39658e-08 -4.55193e-07 0)
(5.22276e-08 -3.23938e-07 0)
(5.8524e-08 -3.55123e-07 0)
(5.56299e-08 -3.47564e-07 0)
(5.65229e-08 -3.49216e-07 0)
(5.62634e-08 -3.48675e-07 0)
(5.63764e-08 -3.48721e-07 0)
(5.63605e-08 -3.48641e-07 0)
(5.63766e-08 -3.48611e-07 0)
(5.63768e-08 -3.4858e-07 0)
(5.63777e-08 -3.48559e-07 0)
(5.63753e-08 -3.48543e-07 0)
(5.63721e-08 -3.48533e-07 0)
(5.63683e-08 -3.48528e-07 0)
(5.63645e-08 -3.48525e-07 0)
(5.6361e-08 -3.48525e-07 0)
(5.63579e-08 -3.48526e-07 0)
(5.6356e-08 -3.48531e-07 0)
(5.63557e-08 -3.48534e-07 0)
(-3.87215e-09 -8.76212e-07 0)
(5.27635e-08 -2.43317e-07 0)
(5.37305e-08 -3.73921e-07 0)
(5.50696e-08 -3.4443e-07 0)
(5.66957e-08 -3.49951e-07 0)
(5.62723e-08 -3.48691e-07 0)
(5.64572e-08 -3.48799e-07 0)
(5.6383e-08 -3.48703e-07 0)
(5.6404e-08 -3.4865e-07 0)
(5.63936e-08 -3.48611e-07 0)
(5.63924e-08 -3.48579e-07 0)
(5.63869e-08 -3.48556e-07 0)
(5.63817e-08 -3.48539e-07 0)
(5.6376e-08 -3.48529e-07 0)
(5.63707e-08 -3.48523e-07 0)
(5.63658e-08 -3.48521e-07 0)
(5.63615e-08 -3.48521e-07 0)
(5.63581e-08 -3.48524e-07 0)
(5.63561e-08 -3.4853e-07 0)
(5.63557e-08 -3.48534e-07 0)
(3.84133e-07 3.32304e-07 0)
(-2.95299e-10 -4.92897e-07 0)
(8.32535e-08 -3.1522e-07 0)
(5.21555e-08 -3.56162e-07 0)
(5.82808e-08 -3.47343e-07 0)
(5.60425e-08 -3.492e-07 0)
(5.65798e-08 -3.48688e-07 0)
(5.64041e-08 -3.48714e-07 0)
(5.64383e-08 -3.48641e-07 0)
(5.64132e-08 -3.48604e-07 0)
(5.64069e-08 -3.48572e-07 0)
(5.63962e-08 -3.48549e-07 0)
(5.63878e-08 -3.48532e-07 0)
(5.63798e-08 -3.48522e-07 0)
(5.63729e-08 -3.48517e-07 0)
(5.6367e-08 -3.48516e-07 0)
(5.63623e-08 -3.48517e-07 0)
(5.63585e-08 -3.48521e-07 0)
(5.63562e-08 -3.48529e-07 0)
(5.63557e-08 -3.48533e-07 0)
(-2.60268e-07 -1.20132e-06 0)
(9.6302e-08 -1.70978e-07 0)
(3.36937e-08 -3.9095e-07 0)
(5.83611e-08 -3.402e-07 0)
(5.56229e-08 -3.50806e-07 0)
(5.66859e-08 -3.48373e-07 0)
(5.65004e-08 -3.4882e-07 0)
(5.64806e-08 -3.48655e-07 0)
(5.64565e-08 -3.48631e-07 0)
(5.64335e-08 -3.48588e-07 0)
(5.64186e-08 -3.48559e-07 0)
(5.64041e-08 -3.48537e-07 0)
(5.63926e-08 -3.48523e-07 0)
(5.63826e-08 -3.48514e-07 0)
(5.63745e-08 -3.4851e-07 0)
(5.63678e-08 -3.4851e-07 0)
(5.63625e-08 -3.48513e-07 0)
(5.63585e-08 -3.48518e-07 0)
(5.63563e-08 -3.48527e-07 0)
(5.63557e-08 -3.48533e-07 0)
(7.02712e-07 7.69472e-07 0)
(-5.28002e-08 -5.79694e-07 0)
(1.08469e-07 -2.94771e-07 0)
(4.85813e-08 -3.59855e-07 0)
(5.98535e-08 -3.46453e-07 0)
(5.58029e-08 -3.49243e-07 0)
(5.67426e-08 -3.48607e-07 0)
(5.64447e-08 -3.48661e-07 0)
(5.64908e-08 -3.48599e-07 0)
(5.64447e-08 -3.48568e-07 0)
(5.64288e-08 -3.48542e-07 0)
(5.64097e-08 -3.48523e-07 0)
(5.63959e-08 -3.48511e-07 0)
(5.63843e-08 -3.48504e-07 0)
(5.63752e-08 -3.48503e-07 0)
(5.63681e-08 -3.48504e-07 0)
(5.63627e-08 -3.48508e-07 0)
(5.63586e-08 -3.48514e-07 0)
(5.63563e-08 -3.48526e-07 0)
(5.63557e-08 -3.48533e-07 0)
(-8.42247e-07 -1.81665e-06 0)
(2.09993e-07 -4.07417e-08 0)
(-1.51527e-08 -4.21251e-07 0)
(6.77769e-08 -3.33827e-07 0)
(5.23166e-08 -3.52054e-07 0)
(5.76389e-08 -3.47985e-07 0)
(5.63309e-08 -3.48774e-07 0)
(5.66098e-08 -3.48572e-07 0)
(5.64746e-08 -3.48572e-07 0)
(5.64633e-08 -3.4854e-07 0)
(5.64319e-08 -3.4852e-07 0)
(5.64129e-08 -3.48506e-07 0)
(5.63966e-08 -3.48497e-07 0)
(5.63842e-08 -3.48493e-07 0)
(5.63747e-08 -3.48494e-07 0)
(5.63676e-08 -3.48498e-07 0)
(5.63621e-08 -3.48504e-07 0)
(5.63584e-08 -3.48511e-07 0)
(5.63564e-08 -3.48524e-07 0)
(5.63556e-08 -3.48532e-07 0)
(1.34464e-06 1.5852e-06 0)
(-1.76393e-07 -7.64921e-07 0)
(1.62414e-07 -2.51353e-07 0)
(3.86628e-08 -3.69656e-07 0)
(6.3649e-08 -3.44119e-07 0)
(5.49669e-08 -3.49654e-07 0)
(5.7042e-08 -3.4839e-07 0)
(5.63997e-08 -3.48598e-07 0)
(5.65327e-08 -3.48521e-07 0)
(5.64524e-08 -3.48511e-07 0)
(5.64367e-08 -3.48495e-07 0)
(5.6411e-08 -3.48487e-07 0)
(5.63951e-08 -3.48482e-07 0)
(5.63822e-08 -3.48482e-07 0)
(5.6373e-08 -3.48486e-07 0)
(5.63662e-08 -3.48492e-07 0)
(5.63614e-08 -3.48499e-07 0)
(5.63581e-08 -3.48509e-07 0)
(5.63562e-08 -3.48523e-07 0)
(5.63556e-08 -3.48532e-07 0)
(-1.55858e-06 -2.81524e-06 0)
(3.51887e-07 1.8749e-07 0)
(-7.61847e-08 -4.75259e-07 0)
(8.0004e-08 -3.21603e-07 0)
(4.81706e-08 -3.54682e-07 0)
(5.88663e-08 -3.47218e-07 0)
(5.60895e-08 -3.48785e-07 0)
(5.67321e-08 -3.4844e-07 0)
(5.64619e-08 -3.48495e-07 0)
(5.64723e-08 -3.48473e-07 0)
(5.64264e-08 -3.48469e-07 0)
(5.64073e-08 -3.48467e-07 0)
(5.63896e-08 -3.48467e-07 0)
(5.63779e-08 -3.48471e-07 0)
(5.63695e-08 -3.48478e-07 0)
(5.63639e-08 -3.48487e-07 0)
(5.63598e-08 -3.48496e-07 0)
(5.63574e-08 -3.48506e-07 0)
(5.63562e-08 -3.48521e-07 0)
(5.63556e-08 -3.48532e-07 0)
(2.1226e-06 2.71293e-06 0)
(-3.37672e-07 -1.03578e-06 0)
(2.33954e-07 -1.85579e-07 0)
(2.47506e-08 -3.84286e-07 0)
(6.91116e-08 -3.40155e-07 0)
(5.36607e-08 -3.5029e-07 0)
(5.74474e-08 -3.48044e-07 0)
(5.6279e-08 -3.48529e-07 0)
(5.65564e-08 -3.48418e-07 0)
(5.64299e-08 -3.48442e-07 0)
(5.64243e-08 -3.48441e-07 0)
(5.6395e-08 -3.48447e-07 0)
(5.63816e-08 -3.48453e-07 0)
(5.63709e-08 -3.48462e-07 0)
(5.63645e-08 -3.48472e-07 0)
(5.63604e-08 -3.48482e-07 0)
(5.6358e-08 -3.48493e-07 0)
(5.63566e-08 -3.48505e-07 0)
(5.63559e-08 -3.4852e-07 0)
(5.63555e-08 -3.48532e-07 0)
(-2.13259e-06 -3.79636e-06 0)
(4.81243e-07 4.618e-07 0)
(-1.35673e-07 -5.38466e-07 0)
(9.19967e-08 -3.0477e-07 0)
(4.31904e-08 -3.58459e-07 0)
(6.00574e-08 -3.4613e-07 0)
(5.57091e-08 -3.48865e-07 0)
(5.6827e-08 -3.48264e-07 0)
(5.64093e-08 -3.48407e-07 0)
(5.64517e-08 -3.48396e-07 0)
(5.63955e-08 -3.48416e-07 0)
(5.63822e-08 -3.48429e-07 0)
(5.63681e-08 -3.48442e-07 0)
(5.63614e-08 -3.48455e-07 0)
(5.63576e-08 -3.48468e-07 0)
(5.6356e-08 -3.4848e-07 0)
(5.63552e-08 -3.48492e-07 0)
(5.63553e-08 -3.48504e-07 0)
(5.63557e-08 -3.4852e-07 0)
(5.63555e-08 -3.48532e-07 0)
(2.37397e-06 3.35501e-06 0)
(-4.2194e-07 -1.249e-06 0)
(2.66846e-07 -1.37291e-07 0)
(1.3995e-08 -3.99955e-07 0)
(7.31489e-08 -3.3619e-07 0)
(5.24733e-08 -3.51175e-07 0)
(5.78445e-08 -3.47559e-07 0)
(5.61182e-08 -3.48457e-07 0)
(5.65461e-08 -3.48287e-07 0)
(5.63686e-08 -3.48372e-07 0)
(5.63829e-08 -3.48389e-07 0)
(5.63564e-08 -3.48415e-07 0)
(5.63524e-08 -3.48434e-07 0)
(5.63488e-08 -3.48451e-07 0)
(5.63492e-08 -3.48466e-07 0)
(5.63505e-08 -3.4848e-07 0)
(5.63522e-08 -3.48493e-07 0)
(5.6354e-08 -3.48505e-07 0)
(5.63553e-08 -3.4852e-07 0)
(5.63555e-08 -3.48532e-07 0)
(-1.89749e-06 -4.18033e-06 0)
(4.5084e-07 5.62839e-07 0)
(-1.15708e-07 -5.6229e-07 0)
(9.14242e-08 -2.97816e-07 0)
(4.45621e-08 -3.59691e-07 0)
(6.00147e-08 -3.45395e-07 0)
(5.571e-08 -3.48729e-07 0)
(5.67321e-08 -3.48068e-07 0)
(5.63257e-08 -3.48299e-07 0)
(5.63719e-08 -3.48325e-07 0)
(5.63313e-08 -3.48376e-07 0)
(5.63316e-08 -3.48408e-07 0)
(5.63305e-08 -3.48433e-07 0)
(5.63344e-08 -3.48453e-07 0)
(5.63393e-08 -3.48469e-07 0)
(5.63444e-08 -3.48484e-07 0)
(5.63486e-08 -3.48496e-07 0)
(5.63523e-08 -3.48507e-07 0)
(5.63549e-08 -3.48521e-07 0)
(5.63555e-08 -3.48532e-07 0)
(2.78901e-06 3.62097e-06 0)
(-5.63063e-07 -1.3509e-06 0)
(3.12139e-07 -1.09683e-07 0)
(-1.66683e-09 -4.0769e-07 0)
(7.82136e-08 -3.32849e-07 0)
(5.07298e-08 -3.51413e-07 0)
(5.82376e-08 -3.47e-07 0)
(5.57979e-08 -3.4833e-07 0)
(5.64591e-08 -3.48168e-07 0)
(5.62384e-08 -3.48328e-07 0)
(5.63019e-08 -3.48368e-07 0)
(5.62921e-08 -3.48413e-07 0)
(5.63086e-08 -3.48439e-07 0)
(5.63182e-08 -3.48461e-07 0)
(5.63292e-08 -3.48477e-07 0)
(5.6338e-08 -3.4849e-07 0)
(5.63453e-08 -3.48501e-07 0)
(5.63509e-08 -3.48511e-07 0)
(5.63545e-08 -3.48523e-07 0)
(5.63555e-08 -3.48533e-07 0)
(-4.63239e-07 -4.42302e-06 0)
(1.23715e-07 6.92666e-07 0)
(1.65454e-08 -5.90569e-07 0)
(6.13391e-08 -2.81569e-07 0)
(5.48942e-08 -3.62124e-07 0)
(5.68008e-08 -3.43177e-07 0)
(5.61936e-08 -3.48806e-07 0)
(5.61778e-08 -3.47776e-07 0)
(5.61752e-08 -3.483e-07 0)
(5.61995e-08 -3.48307e-07 0)
(5.62336e-08 -3.48396e-07 0)
(5.62602e-08 -3.48428e-07 0)
(5.62842e-08 -3.48457e-07 0)
(5.63036e-08 -3.48475e-07 0)
(5.63198e-08 -3.48489e-07 0)
(5.63326e-08 -3.485e-07 0)
(5.63423e-08 -3.48509e-07 0)
(5.63496e-08 -3.48517e-07 0)
(5.63542e-08 -3.48526e-07 0)
(5.63554e-08 -3.48533e-07 0)
(1.46921e-06 3.60773e-06 0)
(-2.62159e-07 -1.22861e-06 0)
(1.81137e-07 -1.36119e-07 0)
(2.5556e-08 -3.87889e-07 0)
(6.46573e-08 -3.36703e-07 0)
(5.258e-08 -3.48991e-07 0)
(5.63801e-08 -3.47569e-07 0)
(5.56474e-08 -3.48166e-07 0)
(5.60813e-08 -3.48312e-07 0)
(5.61007e-08 -3.48378e-07 0)
(5.61872e-08 -3.48438e-07 0)
(5.62283e-08 -3.48463e-07 0)
(5.62648e-08 -3.48483e-07 0)
(5.62911e-08 -3.48496e-07 0)
(5.6312e-08 -3.48505e-07 0)
(5.63278e-08 -3.48513e-07 0)
(5.63396e-08 -3.48518e-07 0)
(5.63484e-08 -3.48523e-07 0)
(5.6354e-08 -3.48529e-07 0)
(5.63554e-08 -3.48534e-07 0)
(-2.66399e-06 -4.44974e-06 0)
(7.46051e-07 7.76002e-07 0)
(-2.10656e-07 -6.16068e-07 0)
(1.22517e-07 -2.72697e-07 0)
(2.95319e-08 -3.66959e-07 0)
(6.17854e-08 -3.42899e-07 0)
(5.31151e-08 -3.49727e-07 0)
(5.64067e-08 -3.47998e-07 0)
(5.5723e-08 -3.4856e-07 0)
(5.61323e-08 -3.48449e-07 0)
(5.6133e-08 -3.48508e-07 0)
(5.62176e-08 -3.48508e-07 0)
(5.62512e-08 -3.48518e-07 0)
(5.62844e-08 -3.48522e-07 0)
(5.6307e-08 -3.48525e-07 0)
(5.63247e-08 -3.48528e-07 0)
(5.63374e-08 -3.4853e-07 0)
(5.63473e-08 -3.48531e-07 0)
(5.63539e-08 -3.48533e-07 0)
(5.63555e-08 -3.48535e-07 0)
)
;

boundaryField
{
    movingWall
    {
        type            calculated;
        value           uniform (5.63556e-08 -3.48535e-07 0);
    }
    fixedWalls
    {
        type            calculated;
        value           uniform (5.63556e-08 -3.48535e-07 0);
    }
    frontAndBack
    {
        type            empty;
    }
}


// ************************************************************************* //
