/*--------------------------------*- C++ -*----------------------------------*\
| =========                 |                                                 |
| \\      /  F ield         | OpenFOAM: The Open Source CFD Toolbox           |
|  \\    /   O peration     | Version:  2312                                  |
|   \\  /    A nd           | Website:  www.openfoam.com                      |
|    \\/     M anipulation  |                                                 |
\*---------------------------------------------------------------------------*/
FoamFile
{
    version     2.0;
    format      ascii;
    arch        "LSB;label=32;scalar=64";
    class       volScalarField;
    location    "3";
    object      divPhi;
}
// * * * * * * * * * * * * * * * * * * * * * * * * * * * * * * * * * * * * * //

dimensions      [0 0 -1 0 0 0 0];

internalField   nonuniform List<scalar> 
400
(
-7.83417e-10
-1.90067e-11
-2.37812e-11
-1.94459e-11
-1.29023e-11
-7.50603e-12
-3.42639e-12
-6.5744e-13
1.42961e-12
2.85582e-12
4.0001e-12
4.80325e-12
5.49236e-12
5.9506e-12
6.31041e-12
6.48517e-12
6.35292e-12
6.0808e-12
7.00432e-12
2.98156e-12
-1.84314e-11
-1.08566e-11
-1.48852e-11
-1.25499e-11
-8.8074e-12
-4.71649e-12
-1.77508e-12
6.84347e-13
2.30197e-12
3.69176e-12
4.55546e-12
5.40001e-12
5.94361e-12
6.36553e-12
6.67783e-12
6.75459e-12
6.77744e-12
6.73387e-12
5.96455e-12
3.98444e-12
4.64581e-11
5.79627e-12
-1.47562e-12
-3.15645e-12
-1.96456e-12
-2.6181e-13
1.48712e-12
2.84577e-12
3.99836e-12
4.83843e-12
5.54453e-12
6.08118e-12
6.50651e-12
6.82451e-12
7.01157e-12
7.09035e-12
6.82718e-12
6.39268e-12
7.87072e-12
2.84603e-12
2.16298e-11
1.17303e-11
6.43284e-12
4.18821e-12
3.63922e-12
4.04915e-12
4.56312e-12
5.22137e-12
5.73271e-12
6.20724e-12
6.53721e-12
6.87907e-12
7.09285e-12
7.27117e-12
7.32643e-12
7.19983e-12
7.07581e-12
7.3225e-12
5.65455e-12
4.39102e-12
4.37476e-11
1.6324e-11
1.20359e-11
9.49366e-12
8.41731e-12
7.83027e-12
7.65921e-12
7.52963e-12
7.58115e-12
7.56902e-12
7.64095e-12
7.64557e-12
7.69581e-12
7.69003e-12
7.64114e-12
7.52924e-12
7.05945e-12
6.24982e-12
8.74931e-12
2.62919e-12
3.22821e-11
1.76262e-11
1.48057e-11
1.28896e-11
1.14289e-11
1.04877e-11
9.77985e-12
9.28899e-12
8.90101e-12
8.65539e-12
8.38086e-12
8.22326e-12
8.12311e-12
7.94817e-12
7.7926e-12
7.42467e-12
7.19974e-12
7.71781e-12
5.0132e-12
4.71628e-12
3.00866e-11
1.70217e-11
1.56433e-11
1.4261e-11
1.31106e-11
1.20743e-11
1.12144e-11
1.04308e-11
9.84315e-12
9.31615e-12
8.89481e-12
8.55284e-12
8.25626e-12
8.01128e-12
7.77361e-12
7.50182e-12
6.82002e-12
5.64255e-12
9.24055e-12
2.1413e-12
3.67002e-11
1.73888e-11
1.58185e-11
1.46683e-11
1.35716e-11
1.25397e-11
1.15841e-11
1.07179e-11
9.95721e-12
9.33464e-12
8.83846e-12
8.37539e-12
8.03971e-12
7.74952e-12
7.41199e-12
6.87565e-12
6.62319e-12
7.5465e-12
3.7538e-12
4.52654e-12
1.63443e-11
1.42016e-11
1.41733e-11
1.35475e-11
1.27784e-11
1.18751e-11
1.10053e-11
1.01802e-11
9.44252e-12
8.76783e-12
8.27043e-12
7.80426e-12
7.42518e-12
7.09379e-12
6.77438e-12
6.50854e-12
5.74668e-12
4.23403e-12
8.78802e-12
1.27394e-12
3.61581e-11
1.40755e-11
1.26123e-11
1.17508e-11
1.09976e-11
1.02256e-11
9.42634e-12
8.75391e-12
8.09797e-12
7.58196e-12
7.09415e-12
6.70989e-12
6.37889e-12
6.11336e-12
5.83142e-12
5.27212e-12
5.08621e-12
6.38428e-12
1.78362e-12
3.7405e-12
2.81893e-12
8.7596e-12
9.00314e-12
8.64897e-12
8.11579e-12
7.54996e-12
7.01265e-12
6.49936e-12
6.06672e-12
5.70474e-12
5.39873e-12
5.13672e-12
4.98246e-12
4.74783e-12
4.51283e-12
4.37317e-12
3.70749e-12
2.05021e-12
7.03962e-12
1.35525e-13
2.65901e-11
7.26665e-12
5.78087e-12
5.05236e-12
4.64946e-12
4.25056e-12
3.9719e-12
3.71489e-12
3.59115e-12
3.44427e-12
3.36984e-12
3.25764e-12
3.24922e-12
3.18288e-12
3.08002e-12
2.69672e-12
2.72389e-12
4.29082e-12
-6.216e-13
2.43945e-12
-1.05168e-11
7.25737e-13
8.28912e-13
6.62773e-13
4.24858e-13
4.24723e-13
3.98958e-13
5.47022e-13
6.71557e-13
8.61059e-13
1.03268e-12
1.23559e-12
1.34697e-12
1.41953e-12
1.41794e-12
1.61047e-12
1.25815e-12
-3.98934e-13
4.52012e-12
-8.94467e-13
7.77915e-12
-2.16136e-12
-3.32771e-12
-3.61188e-12
-3.62486e-12
-3.3797e-12
-3.12769e-12
-2.59218e-12
-2.24814e-12
-1.70634e-12
-1.31101e-12
-8.22963e-13
-5.97057e-13
-2.31327e-13
-7.84849e-14
-8.59677e-14
1.8282e-13
2.06509e-12
-2.53864e-12
8.67362e-13
-2.10335e-11
-8.10378e-12
-7.80911e-12
-7.98253e-12
-7.42827e-12
-7.16203e-12
-6.33353e-12
-5.80669e-12
-4.81564e-12
-4.30861e-12
-3.37517e-12
-2.95108e-12
-2.2259e-12
-1.93583e-12
-1.4915e-12
-1.09093e-12
-8.16408e-13
-2.19634e-12
1.60144e-12
-1.51788e-12
-1.36067e-11
-1.10676e-11
-1.12965e-11
-1.10984e-11
-1.05647e-11
-9.92108e-12
-8.99701e-12
-8.11524e-12
-7.07675e-12
-6.18126e-12
-5.25628e-12
-4.48307e-12
-3.76606e-12
-3.22084e-12
-2.67267e-12
-2.25001e-12
-1.61219e-12
-1.57232e-14
-3.48467e-12
-8.94467e-13
-2.66714e-11
-1.39142e-11
-1.40729e-11
-1.31729e-11
-1.30554e-11
-1.17244e-11
-1.13809e-11
-9.79353e-12
-9.27141e-12
-7.74011e-12
-7.19998e-12
-5.92094e-12
-5.4644e-12
-4.53165e-12
-4.10114e-12
-3.16681e-12
-2.56677e-12
-3.50589e-12
-2.03913e-12
-2.62919e-12
-2.51535e-11
-1.5202e-11
-1.45512e-11
-1.43949e-11
-1.34685e-11
-1.29683e-11
-1.18154e-11
-1.1146e-11
-9.89228e-12
-9.12623e-12
-8.00921e-12
-7.36098e-12
-6.42289e-12
-5.87772e-12
-5.09469e-12
-4.38295e-12
-3.67963e-12
-2.95557e-12
-5.5322e-12
-2.92735e-12
-2.43674e-11
-1.39984e-11
-1.34475e-11
-1.3295e-11
-1.24884e-11
-1.21847e-11
-1.11769e-11
-1.06701e-11
-9.60372e-12
-9.06102e-12
-8.06338e-12
-7.53611e-12
-6.68481e-12
-6.22955e-12
-5.56549e-12
-4.73416e-12
-3.90996e-12
-5.01185e-12
-5.71327e-12
-2.87314e-12
-9.97466e-12
-6.36969e-12
-6.4239e-12
-5.96311e-12
-5.99022e-12
-5.44812e-12
-5.39391e-12
-4.79759e-12
-4.63496e-12
-4.11997e-12
-3.93023e-12
-3.46945e-12
-3.27971e-12
-2.95445e-12
-2.62919e-12
-2.08709e-12
-2.1684e-12
-2.76472e-12
-2.81893e-12
0
)
;

boundaryField
{
    movingWall
    {
        type            extrapolatedCalculated;
        value           nonuniform List<scalar> 
20
(
-9.97466e-12
-6.36969e-12
-6.4239e-12
-5.96311e-12
-5.99022e-12
-5.44812e-12
-5.39391e-12
-4.79759e-12
-4.63496e-12
-4.11997e-12
-3.93023e-12
-3.46945e-12
-3.27971e-12
-2.95445e-12
-2.62919e-12
-2.08709e-12
-2.1684e-12
-2.76472e-12
-2.81893e-12
0
)
;
    }
    fixedWalls
    {
        type            extrapolatedCalculated;
        value           nonuniform List<scalar> 
60
(
-7.83417e-10
-1.84314e-11
4.64581e-11
2.16298e-11
4.37476e-11
3.22821e-11
3.00866e-11
3.67002e-11
1.63443e-11
3.61581e-11
2.81893e-12
2.65901e-11
-1.05168e-11
7.77915e-12
-2.10335e-11
-1.36067e-11
-2.66714e-11
-2.51535e-11
-2.43674e-11
-9.97466e-12
2.98156e-12
3.98444e-12
2.84603e-12
4.39102e-12
2.62919e-12
4.71628e-12
2.1413e-12
4.52654e-12
1.27394e-12
3.7405e-12
1.35525e-13
2.43945e-12
-8.94467e-13
8.67362e-13
-1.51788e-12
-8.94467e-13
-2.62919e-12
-2.92735e-12
-2.87314e-12
0
-7.83417e-10
-1.90067e-11
-2.37812e-11
-1.94459e-11
-1.29023e-11
-7.50603e-12
-3.42639e-12
-6.5744e-13
1.42961e-12
2.85582e-12
4.0001e-12
4.80325e-12
5.49236e-12
5.9506e-12
6.31041e-12
6.48517e-12
6.35292e-12
6.0808e-12
7.00432e-12
2.98156e-12
)
;
    }
    frontAndBack
    {
        type            empty;
    }
}


// ************************************************************************* //
