/*--------------------------------*- C++ -*----------------------------------*\
| =========                 |                                                 |
| \\      /  F ield         | OpenFOAM: The Open Source CFD Toolbox           |
|  \\    /   O peration     | Version:  2312                                  |
|   \\  /    A nd           | Website:  www.openfoam.com                      |
|    \\/     M anipulation  |                                                 |
\*---------------------------------------------------------------------------*/
FoamFile
{
    version     2.0;
    format      ascii;
    arch        "LSB;label=32;scalar=64";
    class       volScalarField;
    location    "3";
    object      divU;
}
// * * * * * * * * * * * * * * * * * * * * * * * * * * * * * * * * * * * * * //

dimensions      [0 0 -1 0 0 0 0];

internalField   nonuniform List<scalar> 
400
(
-4.98615e-06
5.27582e-06
-1.4597e-06
5.30669e-07
-1.64161e-07
5.51195e-08
-1.7834e-08
5.57775e-09
-1.92698e-09
5.69313e-10
-1.95699e-10
6.92035e-11
-6.41431e-12
1.93831e-11
1.18807e-11
1.28844e-11
2.82628e-12
9.6891e-12
1.3979e-11
1.13028e-11
1.40784e-06
1.30185e-06
-3.38081e-07
1.60219e-07
-5.85499e-08
2.0724e-08
-8.21209e-09
2.85495e-09
-1.02043e-09
3.94112e-10
-1.03899e-10
6.26346e-11
2.248e-12
1.93167e-11
1.34568e-11
5.16111e-12
-3.10066e-12
2.21571e-11
1.48157e-11
7.23705e-12
-1.41405e-05
1.22479e-05
-3.49962e-06
1.15364e-06
-3.50663e-07
1.12688e-07
-3.39306e-08
1.0939e-08
-3.16448e-09
1.08459e-09
-2.74595e-10
1.20897e-10
-1.02789e-11
2.26521e-11
1.20316e-11
1.49292e-11
-2.66003e-12
5.08002e-12
1.34491e-11
1.04083e-11
3.57506e-06
4.10511e-06
-6.55656e-07
3.79029e-07
-6.52095e-08
3.18546e-08
-7.40363e-09
3.35191e-09
-7.78687e-10
4.00949e-10
-7.01075e-11
5.81228e-11
4.27866e-12
1.81117e-11
1.43749e-11
1.88288e-12
-6.35508e-12
2.35814e-11
2.02632e-11
1.70762e-12
-1.3457e-05
4.01715e-06
-1.97643e-06
3.56959e-07
-2.08121e-07
5.2522e-08
-1.75598e-08
5.85803e-09
-1.65424e-09
5.68244e-10
-1.48287e-10
6.27648e-11
-2.98026e-12
1.40683e-11
1.02721e-11
1.13619e-11
-5.9263e-12
1.45787e-12
1.7142e-11
5.39391e-12
1.48557e-05
1.98988e-06
1.10247e-06
1.92619e-07
1.42319e-07
-2.22727e-08
9.84099e-09
-4.60593e-09
1.09087e-09
-4.87906e-10
1.30294e-10
-4.62192e-11
1.85025e-11
4.62407e-12
1.50914e-11
-6.24836e-12
-1.38039e-11
2.36808e-11
2.62524e-11
-5.82759e-12
-5.39762e-06
-2.28541e-05
3.54218e-06
-2.07432e-06
3.03244e-07
-1.38292e-07
3.40593e-08
-9.34744e-09
2.85568e-09
-8.4739e-10
2.13576e-10
-8.06884e-11
2.06113e-11
-3.30186e-12
9.26739e-12
4.97683e-12
-1.14558e-11
-3.06558e-12
2.11214e-11
-1.21973e-12
1.60491e-05
2.07164e-05
-1.74919e-06
1.8237e-06
-7.85117e-08
8.34679e-08
-1.25167e-08
9.16582e-10
-5.17654e-10
-1.55008e-10
4.54781e-11
-3.81625e-11
8.30691e-12
1.33557e-12
1.32355e-11
-1.42466e-11
-2.24829e-11
2.22204e-11
3.15975e-11
-1.33628e-11
-7.81351e-06
-4.64006e-05
7.10799e-06
-4.22427e-06
5.9729e-07
-2.72334e-07
6.87646e-08
-1.68633e-08
5.85193e-09
-1.3911e-09
4.02536e-10
-1.26487e-10
3.0199e-11
-7.99219e-12
8.01419e-12
-1.26918e-12
-1.80978e-11
-7.51277e-12
2.41923e-11
-7.45389e-12
7.076e-06
6.41867e-05
-9.87983e-06
5.76683e-06
-7.80354e-07
3.60278e-07
-8.11458e-08
2.06079e-08
-6.90889e-09
1.39047e-09
-4.04488e-10
9.8739e-11
-2.52549e-11
1.21491e-11
1.03408e-11
-2.04437e-11
-3.12528e-11
1.90693e-11
3.48688e-11
-1.87838e-11
5.69406e-06
-9.53992e-05
1.61048e-05
-8.65415e-06
1.36763e-06
-5.83971e-07
1.42161e-07
-3.76912e-08
1.3008e-08
-2.94194e-09
9.58043e-10
-2.46332e-10
6.75914e-11
-1.7363e-11
9.26929e-12
-8.34179e-12
-2.42149e-11
-1.22661e-11
2.45497e-11
-1.09504e-11
-1.91666e-05
0.000121153
-2.06109e-05
1.09725e-05
-1.71735e-06
7.28289e-07
-1.78897e-07
4.41325e-08
-1.56437e-08
3.34865e-09
-1.04737e-09
2.75161e-10
-7.11597e-11
2.34797e-11
4.019e-12
-2.71294e-11
-4.00385e-11
1.30305e-11
3.36915e-11
-1.92175e-11
6.91107e-05
-0.000161434
2.99216e-05
-1.48009e-05
2.51335e-06
-1.05758e-06
2.53864e-07
-7.15644e-08
2.39187e-08
-5.46795e-09
1.87821e-09
-4.85455e-10
1.27388e-10
-4.74337e-11
6.39359e-12
-2.02827e-11
-2.90116e-11
-1.52858e-11
2.03929e-11
-9.02598e-12
-0.000112198
0.000178369
-3.40958e-05
1.63195e-05
-2.79744e-06
1.16342e-06
-2.74477e-07
7.72026e-08
-2.44659e-08
5.64053e-09
-1.74058e-09
4.19427e-10
-1.53387e-10
1.44405e-11
-1.24348e-11
-3.41991e-11
-4.5155e-11
5.47699e-12
2.62121e-11
-1.19262e-11
0.000145535
-0.000200609
4.1211e-05
-1.86744e-05
3.72458e-06
-1.45696e-06
3.78086e-07
-1.1022e-07
3.58268e-08
-9.20552e-09
2.79761e-09
-9.22666e-10
1.5898e-10
-1.12395e-10
-1.6155e-12
-3.6355e-11
-3.31643e-11
-1.55503e-11
1.22941e-11
2.98156e-13
-0.000129339
0.000167988
-3.31808e-05
1.52536e-05
-2.80687e-06
1.09097e-06
-2.72408e-07
7.43336e-08
-2.41016e-08
4.9469e-09
-1.97795e-09
1.79928e-10
-2.45309e-10
-3.99495e-11
-3.49816e-11
-4.36792e-11
-4.2904e-11
4.96504e-12
2.04936e-11
3.63208e-12
0.000187055
-0.000234704
5.33117e-05
-2.17678e-05
4.99641e-06
-1.7758e-06
4.99135e-07
-1.48645e-07
4.3991e-08
-1.40097e-08
3.34298e-09
-1.39184e-09
2.34762e-10
-1.22567e-10
3.81201e-11
-6.63546e-12
2.53281e-12
6.5561e-12
1.13687e-11
1.32002e-11
-4.65477e-05
6.02077e-05
-8.88129e-06
5.81495e-06
-8.39277e-07
3.72122e-07
-1.19114e-07
1.44895e-08
-1.22065e-08
8.33128e-10
-8.43926e-10
6.60797e-11
-5.62118e-11
2.80117e-11
2.96697e-11
-9.7307e-13
-2.62041e-11
-7.618e-12
1.13958e-11
2.10064e-11
0.000106761
-0.000120473
2.62216e-05
-1.07607e-05
2.21884e-06
-7.9994e-07
2.14602e-07
-5.20712e-08
1.93187e-08
-3.60304e-09
1.50921e-09
-2.05061e-10
1.3061e-10
1.53571e-11
2.17e-11
-3.47251e-11
-3.62543e-11
3.83131e-12
1.08919e-11
3.16045e-11
-0.000188571
0.000220887
-5.68417e-05
2.03703e-05
-5.41396e-06
1.84034e-06
-5.15304e-07
1.70226e-07
-4.73517e-08
1.6749e-08
-3.88556e-09
1.85114e-09
-1.97054e-10
3.04119e-10
7.00124e-11
5.84385e-11
4.48318e-11
5.64056e-11
2.84603e-12
3.47758e-11
)
;

boundaryField
{
    movingWall
    {
        type            extrapolatedCalculated;
        value           nonuniform List<scalar> 
20
(
-0.000188571
0.000220887
-5.68417e-05
2.03703e-05
-5.41396e-06
1.84034e-06
-5.15304e-07
1.70226e-07
-4.73517e-08
1.6749e-08
-3.88556e-09
1.85114e-09
-1.97054e-10
3.04119e-10
7.00124e-11
5.84385e-11
4.48318e-11
5.64056e-11
2.84603e-12
3.47758e-11
)
;
    }
    fixedWalls
    {
        type            extrapolatedCalculated;
        value           nonuniform List<scalar> 
60
(
-4.98615e-06
1.40784e-06
-1.41405e-05
3.57506e-06
-1.3457e-05
1.48557e-05
-5.39762e-06
1.60491e-05
-7.81351e-06
7.076e-06
5.69406e-06
-1.91666e-05
6.91107e-05
-0.000112198
0.000145535
-0.000129339
0.000187055
-4.65477e-05
0.000106761
-0.000188571
1.13028e-11
7.23705e-12
1.04083e-11
1.70762e-12
5.39391e-12
-5.82759e-12
-1.21973e-12
-1.33628e-11
-7.45389e-12
-1.87838e-11
-1.09504e-11
-1.92175e-11
-9.02598e-12
-1.19262e-11
2.98156e-13
3.63208e-12
1.32002e-11
2.10064e-11
3.16045e-11
3.47758e-11
-4.98615e-06
5.27582e-06
-1.4597e-06
5.30669e-07
-1.64161e-07
5.51195e-08
-1.7834e-08
5.57775e-09
-1.92698e-09
5.69313e-10
-1.95699e-10
6.92035e-11
-6.41431e-12
1.93831e-11
1.18807e-11
1.28844e-11
2.82628e-12
9.6891e-12
1.3979e-11
1.13028e-11
)
;
    }
    frontAndBack
    {
        type            empty;
    }
}


// ************************************************************************* //
