/*--------------------------------*- C++ -*----------------------------------*\
| =========                 |                                                 |
| \\      /  F ield         | OpenFOAM: The Open Source CFD Toolbox           |
|  \\    /   O peration     | Version:  2312                                  |
|   \\  /    A nd           | Website:  www.openfoam.com                      |
|    \\/     M anipulation  |                                                 |
\*---------------------------------------------------------------------------*/
FoamFile
{
    version     2.0;
    format      ascii;
    arch        "LSB;label=32;scalar=64";
    class       volScalarField;
    location    "3";
    object      dpdt2;
}
// * * * * * * * * * * * * * * * * * * * * * * * * * * * * * * * * * * * * * //

dimensions      [0 4 -6 0 0 0 0];

internalField   nonuniform List<scalar> 
400
(
7.57711e-19
1.69775e-14
9.34272e-18
1.31396e-16
1.88899e-15
3.62825e-15
5.9798e-15
8.26958e-15
1.05991e-14
1.28166e-14
1.49108e-14
1.6848e-14
1.86197e-14
2.02166e-14
2.16342e-14
2.28629e-14
2.38937e-14
2.47134e-14
2.53132e-14
2.57252e-14
7.30395e-16
9.25162e-16
3.76391e-16
5.84364e-16
2.36865e-15
4.19474e-15
6.57773e-15
8.89168e-15
1.12133e-14
1.34072e-14
1.54687e-14
1.73699e-14
1.91059e-14
2.06692e-14
2.20565e-14
2.32597e-14
2.42696e-14
2.5073e-14
2.56594e-14
2.60653e-14
1.57131e-14
5.40954e-14
8.66025e-16
3.69095e-16
3.54336e-15
5.3031e-15
7.9138e-15
1.01948e-14
1.24896e-14
1.46161e-14
1.66031e-14
1.84254e-14
2.00853e-14
2.15784e-14
2.29034e-14
2.40527e-14
2.50184e-14
2.57883e-14
2.63526e-14
2.67426e-14
1.72197e-14
1.77388e-15
2.97381e-15
2.64163e-15
5.26318e-15
7.5134e-15
1.00515e-14
1.23194e-14
1.44942e-14
1.64946e-14
1.8345e-14
2.00353e-14
2.15713e-14
2.29522e-14
2.41786e-14
2.52449e-14
2.6143e-14
2.68596e-14
2.73856e-14
2.77545e-14
1.90434e-14
2.41545e-14
5.49955e-15
4.58519e-15
9.25455e-15
1.10085e-14
1.33747e-14
1.53705e-14
1.73144e-14
1.90887e-14
2.0725e-14
2.22169e-14
2.35728e-14
2.47945e-14
2.5883e-14
2.68328e-14
2.76359e-14
2.82797e-14
2.87572e-14
2.90931e-14
2.05236e-15
9.67429e-14
8.9145e-15
1.68906e-14
1.38864e-14
1.63113e-14
1.77214e-14
1.94636e-14
2.09879e-14
2.24365e-14
2.37608e-14
2.49792e-14
2.60919e-14
2.71016e-14
2.80087e-14
2.88083e-14
2.94902e-14
3.00393e-14
3.04494e-14
3.07464e-14
2.79128e-15
1.19068e-14
1.4174e-14
2.07634e-14
2.10654e-14
2.25645e-14
2.3452e-14
2.45488e-14
2.55526e-14
2.65345e-14
2.74515e-14
2.83131e-14
2.91157e-14
2.98594e-14
3.05411e-14
3.11534e-14
3.1684e-14
3.21174e-14
3.24499e-14
3.26945e-14
6.80557e-16
1.43631e-13
2.22338e-14
3.56765e-14
2.86169e-14
3.05305e-14
3.01555e-14
3.06414e-14
3.09461e-14
3.13537e-14
3.17612e-14
3.21866e-14
3.26138e-14
3.3037e-14
3.34487e-14
3.38398e-14
3.41933e-14
3.4489e-14
3.47235e-14
3.49096e-14
8.73829e-14
3.67172e-14
4.32059e-14
4.07475e-14
4.00843e-14
3.92438e-14
3.83426e-14
3.75904e-14
3.71021e-14
3.6801e-14
3.66203e-14
3.65371e-14
3.65301e-14
3.65851e-14
3.66881e-14
3.68242e-14
3.69726e-14
3.71114e-14
3.72395e-14
3.73534e-14
1.88674e-15
6.29185e-14
4.28675e-14
5.56272e-14
5.02249e-14
4.91686e-14
4.68269e-14
4.5132e-14
4.37681e-14
4.27457e-14
4.19133e-14
4.12707e-14
4.07845e-14
4.04318e-14
4.01921e-14
4.00482e-14
3.99723e-14
3.99365e-14
3.99397e-14
3.99768e-14
2.29764e-13
2.46015e-13
9.10574e-14
7.58379e-14
6.24099e-14
5.90701e-14
5.54623e-14
5.29147e-14
5.0862e-14
4.90074e-14
4.74925e-14
4.6261e-14
4.52686e-14
4.44841e-14
4.38811e-14
4.34364e-14
4.31178e-14
4.28953e-14
4.27706e-14
4.27202e-14
7.75832e-15
7.53652e-16
7.25584e-14
7.56161e-14
7.39385e-14
6.78318e-14
6.37272e-14
6.08006e-14
5.7825e-14
5.53153e-14
5.31662e-14
5.1357e-14
4.98548e-14
4.86293e-14
4.7652e-14
4.68993e-14
4.63325e-14
4.5916e-14
4.56516e-14
4.55131e-14
5.52713e-13
1.01675e-12
1.20233e-13
1.08371e-13
7.77984e-14
7.70592e-14
7.14071e-14
6.82785e-14
6.46247e-14
6.15231e-14
5.87588e-14
5.6397e-14
5.43978e-14
5.27407e-14
5.13953e-14
5.0335e-14
4.95178e-14
4.89083e-14
4.85101e-14
4.82794e-14
1.97608e-14
5.63856e-13
3.85972e-14
6.11175e-14
9.05509e-14
8.48597e-14
8.11599e-14
7.55774e-14
7.12415e-14
6.74391e-14
6.41e-14
6.12088e-14
5.87462e-14
5.66828e-14
5.49872e-14
5.36355e-14
5.25816e-14
5.17865e-14
5.12543e-14
5.09368e-14
5.80196e-14
3.69469e-12
9.4216e-14
1.83789e-13
8.83358e-14
9.56519e-14
8.58877e-14
8.20808e-14
7.69826e-14
7.27881e-14
6.89401e-14
6.56118e-14
6.27426e-14
6.032e-14
5.83112e-14
5.66935e-14
5.54206e-14
5.44562e-14
5.38054e-14
5.34047e-14
5.45351e-14
9.32001e-13
5.53119e-14
6.80935e-14
1.08323e-13
9.81094e-14
9.32723e-14
8.71933e-14
8.19923e-14
7.7297e-14
7.31111e-14
6.94358e-14
6.62473e-14
6.35275e-14
6.12528e-14
5.94081e-14
5.79484e-14
5.68368e-14
5.60783e-14
5.56038e-14
1.49542e-12
8.30035e-12
5.44865e-14
2.84053e-13
9.24647e-14
1.11253e-13
9.47176e-14
9.14916e-14
8.54469e-14
8.08405e-14
7.64215e-14
7.25548e-14
6.91383e-14
6.6199e-14
6.37183e-14
6.16922e-14
6.00806e-14
5.88496e-14
5.80028e-14
5.7461e-14
2.48718e-13
4.5562e-14
5.57747e-14
1.33927e-13
1.13249e-13
1.07638e-13
9.82701e-14
9.29218e-14
8.77413e-14
8.31449e-14
7.88073e-14
7.48601e-14
7.13279e-14
6.82456e-14
6.56222e-14
6.34679e-14
6.17479e-14
6.04253e-14
5.95035e-14
5.89074e-14
2.36988e-14
2.14409e-12
9.46954e-14
1.37734e-13
8.90462e-14
9.75401e-14
9.45051e-14
9.23338e-14
8.84602e-14
8.43337e-14
8.01921e-14
7.62826e-14
7.27222e-14
6.95746e-14
6.68787e-14
6.46553e-14
6.28665e-14
6.14819e-14
6.05143e-14
5.98905e-14
1.1864e-11
7.8613e-12
4.00489e-13
9.09506e-16
1.17083e-13
8.04346e-14
9.64207e-14
9.05237e-14
8.87553e-14
8.45765e-14
8.07396e-14
7.68701e-14
7.33396e-14
7.01809e-14
6.74687e-14
6.52228e-14
6.34014e-14
6.19917e-14
6.10137e-14
6.03863e-14
)
;

boundaryField
{
    movingWall
    {
        type            calculated;
        value           nonuniform List<scalar> 
20
(
1.1864e-11
7.8613e-12
4.00489e-13
9.09506e-16
1.17083e-13
8.04346e-14
9.64207e-14
9.05237e-14
8.87553e-14
8.45765e-14
8.07396e-14
7.68701e-14
7.33396e-14
7.01809e-14
6.74687e-14
6.52228e-14
6.34014e-14
6.19917e-14
6.10137e-14
6.03863e-14
)
;
    }
    fixedWalls
    {
        type            calculated;
        value           nonuniform List<scalar> 
60
(
7.57711e-19
7.30395e-16
1.57131e-14
1.72197e-14
1.90434e-14
2.05236e-15
2.79128e-15
6.80557e-16
8.73829e-14
1.88674e-15
2.29764e-13
7.75832e-15
5.52713e-13
1.97608e-14
5.80196e-14
5.45351e-14
1.49542e-12
2.48718e-13
2.36988e-14
1.1864e-11
2.57252e-14
2.60653e-14
2.67426e-14
2.77545e-14
2.90931e-14
3.07464e-14
3.26945e-14
3.49096e-14
3.73534e-14
3.99768e-14
4.27202e-14
4.55131e-14
4.82794e-14
5.09368e-14
5.34047e-14
5.56038e-14
5.7461e-14
5.89074e-14
5.98905e-14
6.03863e-14
7.57711e-19
1.69775e-14
9.34272e-18
1.31396e-16
1.88899e-15
3.62825e-15
5.9798e-15
8.26958e-15
1.05991e-14
1.28166e-14
1.49108e-14
1.6848e-14
1.86197e-14
2.02166e-14
2.16342e-14
2.28629e-14
2.38937e-14
2.47134e-14
2.53132e-14
2.57252e-14
)
;
    }
    frontAndBack
    {
        type            empty;
    }
}


// ************************************************************************* //
