/*--------------------------------*- C++ -*----------------------------------*\
| =========                 |                                                 |
| \\      /  F ield         | OpenFOAM: The Open Source CFD Toolbox           |
|  \\    /   O peration     | Version:  2312                                  |
|   \\  /    A nd           | Website:  www.openfoam.com                      |
|    \\/     M anipulation  |                                                 |
\*---------------------------------------------------------------------------*/
FoamFile
{
    version     2.0;
    format      ascii;
    arch        "LSB;label=32;scalar=64";
    class       volScalarField;
    location    "3";
    object      dUdt2;
}
// * * * * * * * * * * * * * * * * * * * * * * * * * * * * * * * * * * * * * //

dimensions      [0 2 -4 0 0 0 0];

internalField   nonuniform List<scalar> 
400
(
2.3877e-12
1.80622e-13
2.25025e-14
1.00487e-15
4.69856e-16
2.21725e-17
5.20005e-17
1.85376e-17
1.25619e-17
5.61909e-18
2.53781e-18
8.8216e-19
2.28743e-19
2.96734e-20
3.1909e-21
4.88233e-21
4.04352e-21
5.11989e-21
5.2389e-20
8.45264e-20
6.87023e-13
9.28326e-14
6.79789e-15
4.87768e-16
3.24935e-16
2.87716e-17
5.70334e-17
2.1714e-17
1.48179e-17
7.04733e-18
3.45748e-18
1.40886e-18
4.95437e-19
1.2774e-19
2.45039e-20
8.45947e-21
1.14952e-20
3.40172e-20
1.13894e-19
2.36094e-19
1.11041e-11
5.9785e-13
1.01326e-13
4.01565e-15
1.30151e-15
2.93986e-17
7.7276e-17
2.4383e-17
1.81482e-17
9.2427e-18
4.99785e-18
2.34708e-18
9.88548e-19
3.10221e-19
6.42687e-20
1.27517e-20
2.60144e-20
9.52577e-20
2.30161e-19
5.18504e-19
1.59645e-14
6.76361e-15
1.15185e-15
1.95269e-16
3.12054e-16
8.02549e-17
6.45195e-17
3.26359e-17
2.12969e-17
1.23284e-17
7.03018e-18
3.61933e-18
1.65181e-18
5.55554e-19
1.14917e-19
2.23476e-20
5.14983e-20
1.85065e-19
4.12673e-19
9.04119e-19
8.75415e-12
4.14709e-13
7.07072e-14
3.65174e-15
6.63271e-16
1.11747e-16
6.47224e-17
3.85397e-17
2.46702e-17
1.5716e-17
9.27942e-18
5.05553e-18
2.39676e-18
8.25226e-19
1.70734e-19
3.26171e-20
8.60496e-20
3.11054e-19
6.4042e-19
1.347e-18
1.02387e-11
6.04206e-13
8.75134e-14
6.36431e-15
5.12039e-16
2.05254e-16
4.62478e-17
4.67366e-17
2.71637e-17
1.89532e-17
1.1478e-17
6.4568e-18
3.12491e-18
1.07849e-18
2.16271e-19
5.12757e-20
1.3793e-19
4.59253e-19
9.21964e-19
1.80279e-18
4.53084e-13
3.77197e-14
3.14513e-15
2.38271e-16
1.79434e-16
7.64116e-17
5.98048e-17
4.39966e-17
3.08031e-17
2.11934e-17
1.33971e-17
7.62879e-18
3.73301e-18
1.27574e-18
2.49658e-19
6.86239e-20
1.97809e-19
6.41322e-19
1.22571e-18
2.21906e-18
1.2542e-11
8.26079e-13
1.02166e-13
7.65495e-15
8.46285e-16
1.58126e-16
6.69897e-17
4.57994e-17
3.27885e-17
2.27282e-17
1.46933e-17
8.41872e-18
4.12863e-18
1.37783e-18
2.53442e-19
9.78172e-20
2.77658e-19
8.27341e-19
1.54716e-18
2.55468e-18
1.473e-12
1.85416e-13
1.50953e-14
6.67009e-16
3.68776e-16
4.2246e-17
7.0292e-17
4.30721e-17
3.36954e-17
2.32197e-17
1.52063e-17
8.7196e-18
4.24225e-18
1.37115e-18
2.38482e-19
1.23692e-19
3.56991e-19
1.02671e-18
1.84845e-18
2.77166e-18
6.19265e-13
2.182e-13
1.13946e-14
2.91207e-15
2.07536e-16
1.15562e-16
5.9478e-17
4.37456e-17
3.28068e-17
2.26594e-17
1.47563e-17
8.43695e-18
4.04368e-18
1.23906e-18
1.93479e-19
1.64138e-19
4.48097e-19
1.19531e-18
2.10899e-18
2.8494e-18
7.48297e-12
1.38106e-13
3.54575e-14
4.86337e-16
3.40741e-16
2.94338e-17
6.93044e-17
3.87769e-17
2.99827e-17
2.06281e-17
1.33776e-17
7.56903e-18
3.5389e-18
1.01e-18
1.4494e-19
2.00653e-19
5.20712e-19
1.33586e-18
2.2981e-18
2.77992e-18
2.8272e-11
5.07989e-13
7.66227e-14
1.39171e-15
2.16365e-17
8.88167e-17
3.54167e-17
3.60969e-17
2.39585e-17
1.73112e-17
1.11357e-17
6.21532e-18
2.80347e-18
7.10048e-19
9.14898e-20
2.48883e-19
5.82921e-19
1.40201e-18
2.38113e-18
2.57242e-18
1.71393e-10
5.13867e-12
6.56345e-13
2.18444e-14
2.48865e-15
8.98485e-17
8.9185e-17
2.35988e-17
2.29913e-17
1.3192e-17
8.5839e-18
4.56823e-18
1.94423e-18
4.0696e-19
6.57044e-20
2.90924e-19
6.05451e-19
1.39385e-18
2.35229e-18
2.25582e-18
4.58837e-10
1.56913e-11
1.64906e-12
4.10858e-14
3.01595e-15
4.81747e-16
3.0314e-17
4.10192e-17
1.69035e-17
1.08466e-17
5.76646e-18
2.90754e-18
1.10021e-18
1.54028e-19
6.98233e-20
3.31379e-19
5.98107e-19
1.29811e-18
2.1743e-18
1.8651e-18
8.55273e-10
4.13879e-11
4.81522e-12
2.05884e-13
2.73117e-14
8.29436e-16
3.32783e-16
7.85942e-18
2.15594e-17
5.62928e-18
3.43079e-18
1.34566e-18
4.28086e-19
1.44506e-20
1.20593e-19
3.6176e-19
5.5001e-19
1.11717e-18
1.88255e-18
1.44874e-18
7.21781e-10
3.10076e-11
2.89672e-12
1.1707e-13
5.2123e-15
1.26078e-15
2.33381e-17
4.94371e-17
1.09031e-17
4.22977e-18
1.23117e-18
3.43763e-19
5.21686e-20
2.86579e-20
2.16489e-19
3.7817e-19
4.72948e-19
8.92383e-19
1.47604e-18
1.04182e-18
1.80262e-09
1.05314e-10
1.335e-11
7.13042e-13
1.00678e-13
4.38476e-15
1.13982e-15
1.84255e-17
2.7225e-17
1.35997e-18
6.04518e-19
9.01779e-21
5.85352e-20
2.05739e-19
3.47522e-19
3.88362e-19
3.86811e-19
6.34974e-19
1.04742e-18
6.77166e-19
6.54556e-10
5.18392e-11
2.64733e-12
3.06106e-13
1.22469e-14
3.22039e-15
1.0354e-16
8.80639e-17
8.11719e-18
4.02755e-18
6.39495e-19
4.41301e-19
4.16483e-19
5.05823e-19
5.08845e-19
3.97135e-19
3.00667e-19
3.93485e-19
6.14942e-19
3.77236e-19
8.25995e-10
3.08236e-11
3.28702e-12
1.43977e-13
9.78219e-15
3.16368e-15
3.45265e-17
1.1016e-16
7.69108e-18
6.0631e-18
1.61012e-18
1.15985e-18
8.96725e-19
7.91244e-19
6.07228e-19
3.58074e-19
2.06385e-19
1.60281e-19
2.3664e-19
1.72948e-19
3.04504e-09
2.26872e-10
2.70007e-11
1.92986e-12
2.57665e-13
1.46953e-14
3.0967e-15
7.3017e-17
6.5393e-17
2.58106e-18
4.39745e-18
1.48926e-18
1.36104e-18
9.70242e-19
6.89231e-19
3.57853e-19
2.14271e-19
1.25215e-19
2.47409e-20
8.61852e-20
)
;

boundaryField
{
    movingWall
    {
        type            calculated;
        value           uniform 0;
    }
    fixedWalls
    {
        type            calculated;
        value           uniform 0;
    }
    frontAndBack
    {
        type            empty;
    }
}


// ************************************************************************* //
