/*--------------------------------*- C++ -*----------------------------------*\
| =========                 |                                                 |
| \\      /  F ield         | OpenFOAM: The Open Source CFD Toolbox           |
|  \\    /   O peration     | Version:  2312                                  |
|   \\  /    A nd           | Website:  www.openfoam.com                      |
|    \\/     M anipulation  |                                                 |
\*---------------------------------------------------------------------------*/
FoamFile
{
    version     2.0;
    format      ascii;
    arch        "LSB;label=32;scalar=64";
    class       volScalarField;
    location    "3";
    object      enstrophyField;
}
// * * * * * * * * * * * * * * * * * * * * * * * * * * * * * * * * * * * * * //

dimensions      [0 0 -2 0 0 0 0];

internalField   nonuniform List<scalar> 
400
(
5.73726e-10
6.0463e-10
3.75619e-11
2.08178e-12
1.71999e-13
4.71349e-15
2.01347e-15
3.83501e-17
9.78097e-17
1.53684e-17
4.66341e-18
1.88007e-19
1.31414e-19
5.66465e-19
6.45542e-19
4.61069e-19
2.13771e-19
5.40887e-20
4.09614e-21
3.034e-21
1.83373e-10
4.92074e-10
2.65285e-11
1.44149e-12
7.73731e-14
4.44329e-15
2.02478e-16
2.14562e-17
3.37934e-22
9.21514e-19
3.28189e-19
2.46536e-19
1.17359e-19
4.68487e-20
1.23011e-20
1.21816e-21
1.22277e-21
2.24073e-20
2.56296e-20
7.43585e-21
5.84447e-10
6.62228e-10
3.58828e-11
1.94265e-12
1.06925e-13
5.56044e-15
3.73439e-16
7.9298e-18
5.31221e-18
8.49928e-19
1.09244e-18
5.9461e-19
3.24484e-19
1.25661e-19
3.28252e-20
2.74802e-21
4.28275e-21
6.63924e-20
7.70492e-20
2.35061e-20
9.06333e-10
8.01192e-10
4.24861e-11
2.26818e-12
1.19519e-13
6.80406e-15
2.77783e-16
3.8109e-17
5.72464e-19
3.20987e-18
1.62661e-18
1.13692e-18
5.6469e-19
2.16353e-19
5.00975e-20
2.17602e-21
1.34096e-20
1.44811e-19
1.67346e-19
5.3656e-20
6.24907e-10
9.17936e-10
4.65325e-11
2.33495e-12
1.18838e-13
5.44088e-15
3.66449e-16
1.89815e-18
8.46555e-18
3.03482e-18
2.73835e-18
1.62329e-18
8.26001e-19
2.95383e-19
5.80802e-20
3.21369e-22
3.44463e-20
2.70021e-19
3.11779e-19
1.05747e-19
3.00635e-09
1.66206e-09
8.73033e-11
4.60206e-12
2.38895e-13
1.33206e-14
5.40587e-16
7.31855e-17
1.0841e-18
6.25052e-18
3.154e-18
2.16849e-18
1.02313e-18
3.43136e-19
5.03714e-20
1.61681e-21
7.90532e-20
4.59267e-19
5.26472e-19
1.87984e-19
3.14324e-09
2.38783e-09
1.22886e-10
6.27116e-12
3.22818e-13
1.54491e-14
9.82047e-16
1.27985e-17
1.63551e-17
4.23384e-18
4.33135e-18
2.42213e-18
1.16418e-18
3.42842e-19
3.07473e-20
1.60262e-20
1.59723e-19
7.25057e-19
8.25563e-19
3.09666e-19
4.93821e-09
3.72273e-09
1.8903e-10
9.55644e-12
4.74882e-13
2.4757e-14
9.90929e-16
1.10209e-16
1.10264e-18
8.07172e-18
4.06436e-18
2.68822e-18
1.1633e-18
2.97337e-19
8.21346e-21
5.84345e-20
2.92554e-19
1.07724e-18
1.21521e-18
4.75888e-19
1.07873e-08
6.93763e-09
3.60959e-10
1.8665e-11
9.68553e-13
4.82739e-14
2.82535e-15
7.23276e-17
2.79194e-17
3.64269e-18
4.96977e-18
2.49363e-18
1.08769e-18
2.12938e-19
5.45344e-22
1.43858e-19
4.85668e-19
1.50793e-18
1.68735e-18
6.86522e-19
1.62405e-08
1.15367e-08
6.02147e-10
3.12963e-11
1.61175e-12
8.47134e-14
3.92614e-15
3.04342e-16
4.83648e-19
9.87004e-18
3.4583e-18
2.44831e-18
8.68928e-19
1.20094e-19
2.66251e-20
2.83061e-19
7.39162e-19
1.99441e-18
2.21677e-18
9.31518e-19
2.49466e-08
1.95712e-08
1.04104e-09
5.51175e-11
2.91547e-12
1.51158e-13
8.41855e-15
3.21732e-16
4.98134e-17
1.38113e-18
4.4759e-18
1.78398e-18
6.61874e-19
3.87907e-20
9.93303e-20
4.74503e-19
1.03287e-18
2.48647e-18
2.75338e-18
1.18868e-18
3.66839e-08
3.12816e-08
1.68568e-09
9.04369e-11
4.82898e-12
2.59406e-13
1.32335e-14
8.44039e-16
1.64199e-17
1.15885e-17
1.80536e-18
1.63309e-18
3.78677e-19
1.9758e-21
2.20016e-19
6.93693e-19
1.32265e-18
2.90939e-18
3.22961e-18
1.42729e-18
4.34602e-08
4.584e-08
2.5275e-09
1.38725e-10
7.59562e-12
4.12314e-13
2.29278e-14
1.09597e-15
9.7454e-17
3.32945e-20
3.401e-18
7.83555e-19
2.19107e-19
1.55135e-20
3.66857e-19
9.079e-19
1.55945e-18
3.18752e-18
3.55488e-18
1.60103e-18
4.17275e-08
5.58502e-08
3.1957e-09
1.81952e-10
1.03044e-11
5.81147e-13
3.20444e-14
1.91647e-15
7.33029e-17
1.37421e-17
3.42168e-19
7.80724e-19
5.37691e-20
6.36118e-20
5.07862e-19
1.05279e-18
1.67139e-18
3.23111e-18
3.64263e-18
1.67007e-18
3.29726e-08
5.99237e-08
3.43688e-09
1.96666e-10
1.12377e-11
6.41454e-13
3.68927e-14
2.00546e-15
1.42847e-16
2.44227e-18
2.15981e-18
1.45952e-19
1.68471e-20
1.41716e-19
5.91517e-19
1.0987e-18
1.63235e-18
3.01098e-18
3.41889e-18
1.58934e-18
5.56264e-08
7.06566e-08
4.10371e-09
2.38189e-10
1.38567e-11
8.0715e-13
4.70085e-14
2.81603e-15
1.43578e-16
1.4371e-17
2.26424e-20
2.54357e-19
6.5493e-21
1.76752e-19
6.01716e-19
1.00711e-18
1.42528e-18
2.53101e-18
2.88593e-18
1.35383e-18
1.17489e-08
5.79201e-08
3.28823e-09
1.86401e-10
1.05545e-11
5.98183e-13
3.37887e-14
1.87906e-15
1.15536e-16
3.962e-18
8.61401e-19
3.54496e-22
1.056e-20
2.06207e-19
5.15805e-19
8.11523e-19
1.09735e-18
1.88155e-18
2.13389e-18
9.93552e-19
1.468e-08
6.23591e-08
3.55521e-09
2.02452e-10
1.15451e-11
6.5754e-13
3.75835e-14
2.1559e-15
1.1782e-16
8.57394e-18
1.85906e-19
4.88145e-20
3.16783e-20
1.28978e-19
3.23523e-19
4.7801e-19
6.27254e-19
1.09163e-18
1.29859e-18
5.98134e-19
1.39231e-07
9.53179e-08
5.70223e-09
3.42597e-10
2.06468e-11
1.25613e-12
7.61766e-14
4.72177e-15
2.88716e-16
1.73221e-17
1.32174e-18
5.18104e-20
2.65752e-25
4.22108e-20
8.6166e-20
1.27651e-19
1.59181e-19
3.45437e-19
5.3829e-19
2.61573e-19
9.17702e-08
8.84039e-08
7.09155e-09
4.04618e-10
3.93603e-11
1.78348e-12
3.45676e-13
1.30338e-15
9.22298e-15
9.11865e-16
1.00954e-15
3.77859e-16
2.1865e-16
1.02036e-16
4.81832e-17
1.98455e-17
7.0561e-18
1.78776e-18
2.48264e-19
3.80132e-20
)
;

boundaryField
{
    movingWall
    {
        type            calculated;
        value           nonuniform List<scalar> 
20
(
9.60227e-07
2.17302e-07
2.2403e-08
1.31972e-09
1.57527e-10
7.58602e-12
1.63095e-12
9.41233e-15
4.4448e-14
3.5458e-15
4.50096e-15
1.57629e-15
9.30917e-16
4.25794e-16
2.00741e-16
8.20102e-17
2.8959e-17
6.68974e-18
5.6453e-19
3.85751e-20
)
;
    }
    fixedWalls
    {
        type            calculated;
        value           nonuniform List<scalar> 
60
(
1.07706e-08
9.10352e-09
1.20955e-08
1.4687e-08
1.74018e-08
3.03483e-08
4.43946e-08
6.95533e-08
1.27715e-07
2.12186e-07
3.57119e-07
5.66559e-07
8.21747e-07
9.85982e-07
1.06275e-06
1.23909e-06
1.04311e-06
1.12172e-06
1.62465e-06
1.56863e-06
2.73165e-21
6.36113e-21
1.94113e-20
4.21392e-20
7.85221e-20
1.32049e-19
2.06995e-19
3.0386e-19
4.21344e-19
5.49831e-19
6.7688e-19
7.82389e-19
8.47174e-19
8.53305e-19
7.8893e-19
6.54543e-19
4.61236e-19
2.57918e-19
9.86786e-20
1.3578e-20
1.20351e-09
7.59809e-10
5.28645e-11
2.99801e-12
3.14886e-13
5.76666e-15
5.61763e-15
2.45616e-16
3.60346e-16
6.47602e-17
1.84682e-17
8.01152e-19
5.04679e-19
2.20653e-18
2.51264e-18
1.78465e-18
8.13472e-19
1.69325e-19
4.96075e-21
6.63549e-21
)
;
    }
    frontAndBack
    {
        type            empty;
    }
}


// ************************************************************************* //
