/*--------------------------------*- C++ -*----------------------------------*\
| =========                 |                                                 |
| \\      /  F ield         | OpenFOAM: The Open Source CFD Toolbox           |
|  \\    /   O peration     | Version:  2312                                  |
|   \\  /    A nd           | Website:  www.openfoam.com                      |
|    \\/     M anipulation  |                                                 |
\*---------------------------------------------------------------------------*/
FoamFile
{
    version     2.0;
    format      ascii;
    arch        "LSB;label=32;scalar=64";
    class       volScalarField;
    location    "3";
    object      epsilon;
}
// * * * * * * * * * * * * * * * * * * * * * * * * * * * * * * * * * * * * * //

dimensions      [0 2 -3 0 0 0 0];

internalField   nonuniform List<scalar> 
400
(
7.79279e-05
7.79218e-05
7.79161e-05
7.79121e-05
7.79077e-05
7.7904e-05
7.79006e-05
7.78977e-05
7.78949e-05
7.78925e-05
7.78908e-05
7.78887e-05
7.78877e-05
7.7886e-05
7.78854e-05
7.78845e-05
7.7884e-05
7.78836e-05
7.78834e-05
7.78833e-05
0.000171244
0.000162055
0.000162658
0.000162917
0.000163438
0.000163725
0.00016425
0.000164565
0.000165095
0.000165436
0.000165974
0.00016634
0.000166887
0.000167275
0.000167835
0.000168242
0.000168818
0.000169242
0.00016954
0.000170053
0.000366968
0.000339349
0.000341058
0.000341791
0.000343284
0.000344112
0.000345619
0.000346539
0.000348064
0.000349073
0.000350621
0.000351712
0.000353295
0.000354459
0.000356087
0.000357316
0.000358999
0.000360287
0.000361161
0.00036269
0.00057036
0.000518608
0.000521615
0.000522912
0.000525573
0.000527065
0.000529763
0.000531439
0.000534183
0.000536039
0.000538841
0.000540865
0.000543744
0.000545922
0.000548899
0.000551217
0.000554309
0.000556761
0.000558374
0.00056124
0.000717841
0.000646389
0.000650354
0.00065209
0.000655641
0.000657648
0.000661262
0.000663534
0.000667222
0.000669752
0.000673531
0.000676306
0.000680202
0.000683204
0.000687245
0.000690456
0.000694667
0.000698079
0.000700284
0.000704234
0.000807188
0.000723068
0.000727672
0.000729627
0.000733736
0.000736057
0.000740237
0.00074288
0.000747153
0.000750107
0.000754495
0.000757745
0.000762279
0.000765803
0.000770515
0.000774296
0.000779214
0.000783242
0.000785822
0.000790465
0.00086017
0.000768363
0.00077331
0.000775418
0.00077985
0.000782361
0.000786876
0.000789741
0.000794362
0.000797572
0.000802322
0.000805859
0.000810773
0.000814616
0.000819727
0.000823856
0.000829197
0.000833602
0.000836407
0.00084147
0.000894141
0.00079735
0.000802527
0.000804723
0.000809364
0.000811996
0.000816725
0.000819733
0.000824577
0.00082795
0.000832934
0.000836657
0.000841814
0.000845863
0.000851231
0.000855586
0.000861199
0.000865849
0.000868799
0.000874133
0.000919414
0.000818899
0.00082424
0.000826506
0.000831301
0.000834021
0.000838909
0.000842023
0.000847033
0.000850529
0.000855686
0.000859546
0.000864886
0.000869087
0.000874649
0.00087917
0.000884989
0.000889819
0.000892878
0.000898414
0.000941325
0.000837578
0.000843052
0.000845386
0.000850312
0.000853112
0.000858137
0.000861344
0.000866496
0.000870099
0.000875405
0.000879386
0.000884883
0.000889218
0.000894946
0.000899614
0.000905608
0.000910598
0.000913751
0.000919464
0.000962825
0.000855884
0.000861517
0.000863894
0.000868956
0.000871829
0.00087699
0.000880287
0.000885582
0.000889287
0.000894744
0.000898841
0.000904495
0.00090896
0.000914853
0.000919664
0.000925832
0.000930979
0.000934224
0.000940111
0.000985722
0.000875408
0.000881035
0.000883598
0.000888769
0.000891733
0.000897035
0.000900431
0.000905874
0.000909693
0.000915305
0.00091953
0.000925349
0.000929954
0.000936024
0.000940988
0.000947344
0.000952657
0.000956002
0.000962074
0.00101126
0.000897065
0.000903
0.000905519
0.000910873
0.000913921
0.000919387
0.00092289
0.000928502
0.000932446
0.000938235
0.000942601
0.000948606
0.000953369
0.000959635
0.000964773
0.000971336
0.00097684
0.000980295
0.000986576
0.00104062
0.000921986
0.000928065
0.000930702
0.000936226
0.000939381
0.000945031
0.00094866
0.000954465
0.000958556
0.000964547
0.000969078
0.000975297
0.000980244
0.000986735
0.000992076
0.000998879
0.0010046
0.00100819
0.00101471
0.00107507
0.0009512
0.000957367
0.000960205
0.000965915
0.000969201
0.000975067
0.000978845
0.000984878
0.000989139
0.000995371
0.00100009
0.00100657
0.00101173
0.00101849
0.00102407
0.00103116
0.00103714
0.00104088
0.00104769
0.00111638
0.000986099
0.000992502
0.000995478
0.00100143
0.00100487
0.001011
0.00101496
0.00102126
0.00102573
0.00103225
0.00103721
0.00104399
0.00104942
0.0010565
0.00106237
0.0010698
0.0010761
0.00108002
0.00108718
0.00116729
0.00102902
0.00103573
0.00103886
0.00104513
0.00104875
0.0010552
0.00105938
0.00106603
0.00107075
0.00107763
0.00108288
0.00109004
0.00109579
0.00110328
0.00110951
0.00111737
0.00112406
0.00112821
0.0011358
0.00123038
0.00108226
0.00108932
0.00109264
0.00109928
0.00110312
0.00110997
0.00111442
0.00112148
0.00112652
0.00113385
0.00113946
0.00114709
0.00115325
0.00116124
0.00116791
0.00117631
0.0011835
0.00118793
0.00119607
0.00129737
0.00114398
0.00115115
0.00115431
0.00116098
0.00116489
0.00117177
0.00117637
0.00118351
0.00118879
0.00119624
0.00120218
0.00121
0.00121657
0.00122484
0.00123201
0.00124079
0.00124856
0.00125325
0.00126195
0.00131047
0.00131017
0.00131008
0.00130995
0.00130986
0.00130976
0.00130969
0.00130965
0.00130957
0.00130953
0.00130948
0.00130947
0.00130942
0.00130943
0.0013094
0.00130941
0.0013094
0.0013094
0.0013094
0.0013094
)
;

boundaryField
{
    movingWall
    {
        type            epsilonWallFunction;
        blending        stepwise;
        value           nonuniform List<scalar> 
20
(
0.00131047
0.00131017
0.00131008
0.00130995
0.00130986
0.00130976
0.00130969
0.00130965
0.00130957
0.00130953
0.00130948
0.00130947
0.00130942
0.00130943
0.0013094
0.00130941
0.0013094
0.0013094
0.0013094
0.0013094
)
;
    }
    fixedWalls
    {
        type            epsilonWallFunction;
        blending        stepwise;
        value           nonuniform List<scalar> 
60
(
7.79279e-05
0.000171244
0.000366968
0.00057036
0.000717841
0.000807188
0.00086017
0.000894141
0.000919414
0.000941325
0.000962825
0.000985722
0.00101126
0.00104062
0.00107507
0.00111638
0.00116729
0.00123038
0.00129737
0.00131047
7.78833e-05
0.000170053
0.00036269
0.00056124
0.000704234
0.000790465
0.00084147
0.000874133
0.000898414
0.000919464
0.000940111
0.000962074
0.000986576
0.00101471
0.00104769
0.00108718
0.0011358
0.00119607
0.00126195
0.0013094
7.79279e-05
7.79218e-05
7.79161e-05
7.79121e-05
7.79077e-05
7.7904e-05
7.79006e-05
7.78977e-05
7.78949e-05
7.78925e-05
7.78908e-05
7.78887e-05
7.78877e-05
7.7886e-05
7.78854e-05
7.78845e-05
7.7884e-05
7.78836e-05
7.78834e-05
7.78833e-05
)
;
    }
    frontAndBack
    {
        type            empty;
    }
}


// ************************************************************************* //
