/*--------------------------------*- C++ -*----------------------------------*\
| =========                 |                                                 |
| \\      /  F ield         | OpenFOAM: The Open Source CFD Toolbox           |
|  \\    /   O peration     | Version:  2312                                  |
|   \\  /    A nd           | Website:  www.openfoam.com                      |
|    \\/     M anipulation  |                                                 |
\*---------------------------------------------------------------------------*/
FoamFile
{
    version     2.0;
    format      ascii;
    arch        "LSB;label=32;scalar=64";
    class       volScalarField;
    location    "3";
    object      flowTypeField;
}
// * * * * * * * * * * * * * * * * * * * * * * * * * * * * * * * * * * * * * //

dimensions      [0 0 0 0 0 0 0];

internalField   nonuniform List<scalar> 
400
(
-0.256052
-0.0452423
-0.0855206
-0.0455237
-0.214303
0.222599
-0.518273
0.544245
-0.0102997
0.291059
0.287114
0.686017
0.589131
0.197159
0.109931
0.123228
0.201076
0.342078
0.458655
-0.0863021
0.298075
0.0692037
0.100509
0.122275
0.167806
0.226961
0.271836
0.572407
0.995373
0.750287
0.752571
0.682833
0.615835
0.556329
0.638503
0.87669
0.883632
0.530358
0.190563
0.0866328
-0.0937772
0.0326348
0.034312
0.133459
0.168977
0.345333
0.312744
0.771919
0.579671
0.775748
0.619938
0.592031
0.528407
0.527919
0.63679
0.861583
0.81961
0.381191
0.0944714
0.0395847
-0.251288
-0.0382587
-0.108757
-0.0333809
-0.199968
0.0761649
-0.344493
0.488889
0.852536
0.610399
0.595201
0.526972
0.508955
0.538637
0.668698
0.902997
0.743588
0.279153
0.0612581
0.0287658
0.0757795
0.0365896
0.047632
0.0939115
0.211825
0.176166
0.469355
0.796581
0.62851
0.610321
0.551445
0.504205
0.506602
0.561039
0.71141
0.968462
0.666888
0.229633
0.0466897
0.0192952
-0.414168
-0.135486
-0.299447
-0.251277
-0.490467
-0.369323
0.0202643
0.22681
0.841338
0.514224
0.549896
0.494003
0.516647
0.592344
0.766722
0.941438
0.588123
0.18162
0.0380686
0.0164619
-0.0907453
0.0381419
-0.055238
0.129818
0.00688415
0.19662
0.24875
0.670075
0.484863
0.614738
0.504772
0.509601
0.529129
0.631599
0.834485
0.845555
0.510832
0.158163
0.0332227
0.0120727
-0.0994844
0.00587407
-0.1085
0.0490975
-0.155365
-0.0188474
-0.143027
0.253818
0.819234
0.519584
0.532725
0.512798
0.555779
0.676657
0.918726
0.749644
0.438542
0.128322
0.0283081
0.0106025
-0.102905
0.0423342
-0.0836043
0.141313
-0.0465305
0.192982
0.14133
0.537375
0.29894
0.67791
0.498316
0.545333
0.582756
0.73371
0.979875
0.654515
0.370795
0.113197
0.025521
0.00804585
-0.0452958
0.069998
-0.0429482
0.177158
0.00116047
0.202626
0.261937
0.0475298
0.923058
0.448838
0.600712
0.547647
0.631152
0.799057
0.873082
0.569574
0.313941
0.0938953
0.0219062
0.00706591
-0.00634387
0.0967672
0.00219497
0.213972
0.0779189
0.285228
0.254597
0.491611
0.206725
0.820867
0.519784
0.62206
0.671053
0.883926
0.775733
0.492615
0.266063
0.0853704
0.0204599
0.00542567
0.000585539
0.0984755
0.00789101
0.211695
0.0800375
0.255114
0.320924
0.155184
0.746914
0.389681
0.726803
0.62285
0.750074
0.973001
0.693126
0.438639
0.23729
0.0782167
0.0183913
0.00438904
0.0532738
0.121688
0.0514659
0.244368
0.127999
0.326123
0.297318
0.474595
0.282665
0.976924
0.577385
0.753152
0.805658
0.929811
0.636854
0.406841
0.22442
0.0805276
0.0193552
0.00315468
0.105399
0.120605
0.0699753
0.230673
0.129144
0.291175
0.321952
0.253199
0.654426
0.402829
0.891021
0.750727
0.908266
0.872099
0.613877
0.410586
0.240073
0.0928749
0.0214468
0.00222585
0.222327
0.142899
0.125026
0.261807
0.219174
0.367525
0.364373
0.524632
0.390475
0.867102
0.710688
0.905809
0.952428
0.835697
0.627658
0.4448
0.27964
0.118474
0.0300892
0.00248661
0.00348924
0.0666932
0.0298067
0.14786
0.0789432
0.179538
0.260976
0.088366
0.57981
0.60238
0.976116
0.889125
0.974689
0.842366
0.666413
0.507694
0.347298
0.163849
0.0444297
0.0047529
0.553357
0.223577
0.245034
0.367302
0.369071
0.505598
0.509796
0.667626
0.616393
0.87842
0.876548
0.996351
0.973049
0.851882
0.722159
0.583964
0.434171
0.229426
0.0721543
0.0111634
0.439429
0.0855406
0.136304
0.132802
0.223004
0.154483
0.410864
-0.214137
0.717184
0.723451
0.955679
0.961686
0.960666
0.89577
0.798094
0.694512
0.570805
0.354424
0.124789
0.0180439
-0.495856
-0.0939725
-0.183301
-0.095411
-0.219626
-0.0947734
0.12898
-0.13826
0.610467
0.686264
0.898322
0.964911
0.999896
0.945126
0.900245
0.842947
0.773539
0.582938
0.266109
0.0308576
-0.125618
0.0777535
0.030959
0.174378
0.0630735
0.33049
-0.0292192
0.788154
-0.34505
0.334712
-0.0643333
0.100585
0.0398126
0.0815309
0.089171
0.125877
0.183106
0.292806
0.400491
0.182579
)
;

boundaryField
{
    movingWall
    {
        type            calculated;
        value           nonuniform List<scalar> 
20
(
0.280761
0.0526542
-0.0943746
0.0317246
-0.117913
0.0868004
-0.168513
0.5607
-0.169035
0.179146
-0.0524624
0.0231223
-0.00668976
0.0109551
0.0102576
0.0217094
0.040976
0.09566
0.238356
0.176985
)
;
    }
    fixedWalls
    {
        type            calculated;
        value           nonuniform List<scalar> 
60
(
-0.0386049
0.0571671
0.0283009
-0.05131
0.00809818
-0.151475
0.0230156
-0.0139802
0.0339395
0.0625941
0.0945316
0.099032
0.12779
0.133525
0.15595
0.0822899
0.232849
0.0877946
-0.0659418
0.097946
0.228039
0.188368
0.081123
0.0446284
0.0268534
0.0187845
0.0135171
0.0107951
0.00864621
0.00748263
0.0063704
0.0053757
0.00440076
0.00340062
0.00380405
0.00664685
0.0147602
0.0231708
0.0336844
0.184229
0.601691
0.167512
0.102732
0.120797
-0.0764276
0.360743
-0.298607
0.326379
-0.0706345
0.106629
0.0655912
0.450855
0.396808
0.105638
0.0574628
0.052242
0.0728972
0.143412
0.418941
-0.2276
)
;
    }
    frontAndBack
    {
        type            empty;
    }
}


// ************************************************************************* //
