/*--------------------------------*- C++ -*----------------------------------*\
| =========                 |                                                 |
| \\      /  F ield         | OpenFOAM: The Open Source CFD Toolbox           |
|  \\    /   O peration     | Version:  2312                                  |
|   \\  /    A nd           | Website:  www.openfoam.com                      |
|    \\/     M anipulation  |                                                 |
\*---------------------------------------------------------------------------*/
FoamFile
{
    version     2.0;
    format      ascii;
    arch        "LSB;label=32;scalar=64";
    class       surfaceScalarField;
    location    "3";
    object      fluxField;
}
// * * * * * * * * * * * * * * * * * * * * * * * * * * * * * * * * * * * * * //

dimensions      [0 3 -1 0 0 0 0];

oriented        oriented;

internalField   nonuniform List<scalar> 
760
(
-5e-05
-2.19961e-13
-5e-05
6.20818e-14
-5e-05
-1.84632e-14
-5e-05
1.94693e-15
-5e-05
-5.10752e-15
-5e-05
-2.62199e-15
-5e-05
-2.81328e-15
-5e-05
-1.98245e-15
-5e-05
-1.52452e-15
-5e-05
-1.04157e-15
-5e-05
-6.84267e-16
-5e-05
-4.01106e-16
-5e-05
-1.97282e-16
-5e-05
-5.90612e-17
-5e-05
2.58333e-17
-5e-05
7.14445e-17
-5e-05
9.0221e-17
-5e-05
8.06542e-17
-5e-05
3.16705e-17
9.46182e-18
-5e-05
4.66873e-13
-5e-05
9.97864e-15
-5e-05
-1.35068e-14
-5e-05
1.83967e-15
-5e-05
-1.14208e-14
-5e-05
-5.51407e-15
-5e-05
-5.85728e-15
-5e-05
-3.97964e-15
-5e-05
-3.01563e-15
-5e-05
-2.03581e-15
-5e-05
-1.3203e-15
-5e-05
-7.61748e-16
-5e-05
-3.61501e-16
-5e-05
-9.26135e-17
-5e-05
7.09642e-17
-5e-05
1.5644e-16
-5e-05
1.89001e-16
-5e-05
1.67743e-16
-5e-05
6.59642e-17
1.9576e-17
-5e-05
-6.16723e-13
-5e-05
1.67633e-14
-5e-05
-2.45611e-14
-5e-05
-2.27103e-14
-5e-05
-1.14184e-14
-5e-05
-1.19278e-14
-5e-05
-7.81033e-15
-5e-05
-6.16585e-15
-5e-05
-4.22399e-15
-5e-05
-2.90857e-15
-5e-05
-1.82218e-15
-5e-05
-1.02988e-15
-5e-05
-4.53828e-16
-5e-05
-7.48525e-17
-5e-05
1.52777e-16
-5e-05
2.6678e-16
-5e-05
3.04301e-16
-5e-05
2.64467e-16
-5e-05
1.06497e-16
3.07435e-17
-5e-05
1.69461e-12
-5e-05
-5.13971e-13
-5e-05
8.83409e-14
-5e-05
-6.62533e-14
-5e-05
-9.11024e-15
-5e-05
-1.82053e-14
-5e-05
-9.37597e-15
-5e-05
-7.88415e-15
-5e-05
-5.11061e-15
-5e-05
-3.52061e-15
-5e-05
-2.13252e-15
-5e-05
-1.15635e-15
-5e-05
-4.43426e-16
-5e-05
1.61221e-17
-5e-05
2.85635e-16
-5e-05
4.11553e-16
-5e-05
4.41999e-16
-5e-05
3.74931e-16
-5e-05
1.54997e-16
4.32595e-17
-5e-05
-1.48039e-12
-5e-05
-3.59798e-14
-5e-05
-1.97219e-14
-5e-05
-6.20691e-14
-5e-05
-1.11132e-14
-5e-05
-2.09127e-14
-5e-05
-1.01034e-14
-5e-05
-8.84789e-15
-5e-05
-5.52853e-15
-5e-05
-3.78626e-15
-5e-05
-2.19639e-15
-5e-05
-1.10405e-15
-5e-05
-3.06124e-16
-5e-05
1.96437e-16
-5e-05
4.79827e-16
-5e-05
5.97092e-16
-5e-05
6.05414e-16
-5e-05
5.00446e-16
-5e-05
2.12595e-16
5.72936e-17
-5e-05
3.82904e-12
-5e-05
-9.78576e-13
-5e-05
1.98245e-13
-5e-05
-8.80439e-14
-5e-05
-5.60199e-15
-5e-05
-2.05188e-14
-5e-05
-1.0411e-14
-5e-05
-8.66998e-15
-5e-05
-5.51952e-15
-5e-05
-3.61765e-15
-5e-05
-1.99597e-15
-5e-05
-8.48742e-16
-5e-05
-3.07871e-17
-5e-05
4.73719e-16
-5e-05
7.38977e-16
-5e-05
8.24898e-16
-5e-05
7.9459e-16
-5e-05
6.40782e-16
-5e-05
2.79104e-16
7.28003e-17
-5e-05
-4.29853e-12
-5e-05
8.29885e-13
-5e-05
-2.2748e-13
-5e-05
1.76953e-14
-5e-05
-2.69677e-14
-5e-05
-1.25678e-14
-5e-05
-1.09345e-14
-5e-05
-7.46852e-15
-5e-05
-5.03313e-15
-5e-05
-3.04452e-15
-5e-05
-1.51688e-15
-5e-05
-3.92453e-16
-5e-05
3.83499e-16
-5e-05
8.45462e-16
-5e-05
1.06004e-15
-5e-05
1.09148e-15
-5e-05
1.00624e-15
-5e-05
7.9291e-16
-5e-05
3.53316e-16
8.94735e-17
-5e-05
6.63066e-12
-5e-05
-1.34004e-12
-5e-05
2.83744e-13
-5e-05
-7.461e-14
-5e-05
-4.71559e-15
-5e-05
-1.3638e-14
-5e-05
-8.93196e-15
-5e-05
-6.14133e-15
-5e-05
-3.98352e-15
-5e-05
-2.13618e-15
-5e-05
-7.72312e-16
-5e-05
2.46853e-16
-5e-05
9.23859e-16
-5e-05
1.29969e-15
-5e-05
1.43267e-15
-5e-05
1.38788e-15
-5e-05
1.23305e-15
-5e-05
9.51942e-16
-5e-05
4.32588e-16
1.06711e-16
-5e-05
-8.75272e-12
-5e-05
1.91587e-12
-5e-05
-4.73796e-13
-5e-05
8.47217e-14
-5e-05
-3.59328e-14
-5e-05
-3.94999e-15
-5e-05
-7.78495e-15
-5e-05
-4.06112e-15
-5e-05
-2.52045e-15
-5e-05
-9.36029e-16
-5e-05
2.02468e-16
-5e-05
1.03809e-15
-5e-05
1.56669e-15
-5e-05
1.81561e-15
-5e-05
1.8398e-15
-5e-05
1.70034e-15
-5e-05
1.46459e-15
-5e-05
1.11031e-15
-5e-05
5.1336e-16
1.23614e-16
-5e-05
1.16404e-11
-5e-05
-2.71482e-12
-5e-05
6.11647e-13
-5e-05
-1.60305e-13
-5e-05
2.24276e-14
-5e-05
-1.4237e-14
-5e-05
-2.34293e-15
-5e-05
-2.50109e-15
-5e-05
-5.84583e-16
-5e-05
4.79396e-16
-5e-05
1.35985e-15
-5e-05
1.94454e-15
-5e-05
2.27782e-15
-5e-05
2.36554e-15
-5e-05
2.25825e-15
-5e-05
2.0105e-15
-5e-05
1.68696e-15
-5e-05
1.25911e-15
-5e-05
5.90758e-16
1.39032e-16
-5e-05
-1.33244e-11
-5e-05
2.99098e-12
-5e-05
-7.38548e-13
-5e-05
1.45276e-13
-5e-05
-4.32661e-14
-5e-05
4.94317e-15
-5e-05
-2.62241e-15
-5e-05
8.08683e-16
-5e-05
1.34947e-15
-5e-05
2.1455e-15
-5e-05
2.63288e-15
-5e-05
2.92213e-15
-5e-05
3.01612e-15
-5e-05
2.91467e-15
-5e-05
2.6596e-15
-5e-05
2.29625e-15
-5e-05
1.88397e-15
-5e-05
1.3871e-15
-5e-05
6.59322e-16
1.51691e-16
-5e-05
1.4869e-11
-5e-05
-3.78056e-12
-5e-05
9.058e-13
-5e-05
-2.20483e-13
-5e-05
5.58389e-14
-5e-05
-1.09555e-14
-5e-05
6.00925e-15
-5e-05
2.53205e-15
-5e-05
3.93359e-15
-5e-05
3.86819e-15
-5e-05
3.99579e-15
-5e-05
3.91224e-15
-5e-05
3.73394e-15
-5e-05
3.42161e-15
-5e-05
3.01047e-15
-5e-05
2.53185e-15
-5e-05
2.03689e-15
-5e-05
1.48249e-15
-5e-05
7.12409e-16
1.6027e-16
-5e-05
-9.65885e-12
-5e-05
3.07717e-12
-5e-05
-6.7436e-13
-5e-05
2.00348e-13
-5e-05
-3.85759e-14
-5e-05
1.62526e-14
-5e-05
4.01656e-15
-5e-05
6.91504e-15
-5e-05
6.141e-15
-5e-05
5.80562e-15
-5e-05
5.33776e-15
-5e-05
4.85677e-15
-5e-05
4.37011e-15
-5e-05
3.83752e-15
-5e-05
3.27282e-15
-5e-05
2.68957e-15
-5e-05
2.12644e-15
-5e-05
1.53175e-15
-5e-05
7.4304e-16
1.63597e-16
-5e-05
6.39302e-12
-5e-05
-2.25328e-12
-5e-05
5.32843e-13
-5e-05
-1.9137e-13
-5e-05
6.0549e-14
-5e-05
-5.85892e-15
-5e-05
1.61564e-14
-5e-05
8.71036e-15
-5e-05
9.4081e-15
-5e-05
7.56003e-15
-5e-05
6.63828e-15
-5e-05
5.64688e-15
-5e-05
4.85296e-15
-5e-05
4.10399e-15
-5e-05
3.40495e-15
-5e-05
2.73992e-15
-5e-05
2.13232e-15
-5e-05
1.52222e-15
-5e-05
7.43885e-16
1.60629e-16
-5e-05
-3.20635e-12
-5e-05
2.72717e-13
-5e-05
-6.27753e-14
-5e-05
-1.75186e-14
-5e-05
2.97355e-14
-5e-05
1.25101e-14
-5e-05
1.95554e-14
-5e-05
1.36147e-14
-5e-05
1.21047e-14
-5e-05
9.33935e-15
-5e-05
7.64284e-15
-5e-05
6.17722e-15
-5e-05
5.0825e-15
-5e-05
4.157e-15
-5e-05
3.36259e-15
-5e-05
2.65448e-15
-5e-05
2.03653e-15
-5e-05
1.44199e-15
-5e-05
7.08577e-16
1.50517e-16
-5e-05
3.44273e-12
-5e-05
-2.27469e-12
-5e-05
6.27434e-13
-5e-05
-2.10893e-13
-5e-05
1.13258e-13
-5e-05
6.55426e-15
-5e-05
3.35159e-14
-5e-05
1.68066e-14
-5e-05
1.50856e-14
-5e-05
1.04347e-14
-5e-05
8.15611e-15
-5e-05
6.2436e-15
-5e-05
4.94986e-15
-5e-05
3.92598e-15
-5e-05
3.10531e-15
-5e-05
2.41029e-15
-5e-05
1.8274e-15
-5e-05
1.28594e-15
-5e-05
6.34367e-16
1.32244e-16
-4.99999e-05
-2.6244e-12
-5e-05
9.70976e-13
-5e-05
-7.95331e-14
-5e-05
1.95296e-13
-5e-05
5.24447e-14
-5e-05
6.20042e-14
-5e-05
3.15988e-14
-5e-05
2.41065e-14
-5e-05
1.50706e-14
-5e-05
1.08626e-14
-5e-05
7.64903e-15
-5e-05
5.72947e-15
-5e-05
4.35529e-15
-5e-05
3.37921e-15
-5e-05
2.61912e-15
-5e-05
2.00676e-15
-5e-05
1.50745e-15
-5e-05
1.05608e-15
-5e-05
5.2246e-16
1.05427e-16
-5e-05
-2.95545e-12
-5e-05
4.02828e-12
-5e-05
-7.40449e-13
-5e-05
6.90314e-13
-5e-05
-4.39154e-14
-5e-05
1.22549e-13
-5e-05
1.73942e-14
-5e-05
2.81896e-14
-5e-05
1.14777e-14
-5e-05
9.61014e-15
-5e-05
5.91898e-15
-5e-05
4.48119e-15
-5e-05
3.2571e-15
-5e-05
2.49724e-15
-5e-05
1.90104e-15
-5e-05
1.44316e-15
-5e-05
1.0766e-15
-5e-05
7.56746e-16
-5e-05
3.79575e-16
7.19782e-17
-5e-05
-3.62349e-12
-5e-05
6.11168e-12
-5e-05
-1.37793e-12
-5e-05
9.12117e-13
-5e-05
-1.64808e-13
-5e-05
1.29494e-13
-5e-05
-5.6408e-15
-5e-05
2.26419e-14
-5e-05
4.97699e-15
-5e-05
6.06156e-15
-5e-05
3.10568e-15
-5e-05
2.49208e-15
-5e-05
1.71944e-15
-5e-05
1.3193e-15
-5e-05
9.87834e-16
-5e-05
7.45578e-16
-5e-05
5.54735e-16
-5e-05
3.97335e-16
-5e-05
2.05347e-16
3.59508e-17
-5.00001e-05
-5e-05
-5e-05
-5e-05
-5e-05
-5e-05
-5e-05
-5e-05
-5e-05
-5e-05
-5e-05
-5e-05
-5e-05
-5e-05
-5e-05
-5e-05
-5e-05
-5e-05
-5e-05
)
;

boundaryField
{
    movingWall
    {
        type            calculated;
        value           uniform -0;
    }
    fixedWalls
    {
        type            calculated;
        value           nonuniform List<scalar> 
60
(
5e-05
5e-05
5e-05
5e-05
5e-05
5e-05
5e-05
5e-05
5e-05
5e-05
5e-05
5e-05
5e-05
5e-05
5e-05
5e-05
5e-05
5e-05
5e-05
5e-05
-5e-05
-5e-05
-5e-05
-5e-05
-5e-05
-5e-05
-5e-05
-5e-05
-5e-05
-5e-05
-5e-05
-5e-05
-5e-05
-5e-05
-5e-05
-5e-05
-5e-05
-5e-05
-5e-05
-5e-05
0
0
0
0
0
0
0
0
0
0
0
0
0
0
0
0
0
0
0
0
)
;
    }
    frontAndBack
    {
        type            empty;
        value           nonuniform List<scalar> 0();
    }
}


// ************************************************************************* //
