/*--------------------------------*- C++ -*----------------------------------*\
| =========                 |                                                 |
| \\      /  F ield         | OpenFOAM: The Open Source CFD Toolbox           |
|  \\    /   O peration     | Version:  2312                                  |
|   \\  /    A nd           | Website:  www.openfoam.com                      |
|    \\/     M anipulation  |                                                 |
\*---------------------------------------------------------------------------*/
FoamFile
{
    version     2.0;
    format      ascii;
    arch        "LSB;label=32;scalar=64";
    class       volTensorField;
    location    "3";
    object      gradU;
}
// * * * * * * * * * * * * * * * * * * * * * * * * * * * * * * * * * * * * * //

dimensions      [0 0 -1 0 0 0 0];

internalField   nonuniform List<tensor> 
400
(
(-4.10631e-06 2.65191e-05 0 -7.35496e-06 -8.79844e-07 0 0 0 0)
(5.02749e-06 -3.28653e-05 0 1.90915e-06 2.48327e-07 0 0 0 0)
(-1.38585e-06 7.85019e-06 0 -8.17206e-07 -7.38529e-08 0 0 0 0)
(5.22881e-07 -1.87509e-06 0 1.65393e-07 7.78771e-09 0 0 0 0)
(-1.43731e-07 4.52838e-07 0 -1.33676e-07 -2.04301e-08 0 0 0 0)
(6.56074e-08 -1.08728e-07 0 -1.1635e-08 -1.0488e-08 0 0 0 0)
(-6.58086e-09 2.76821e-08 0 -3.5776e-08 -1.12531e-08 0 0 0 0)
(1.35075e-08 -5.49403e-09 0 -1.42519e-08 -7.92978e-09 0 0 0 0)
(4.17112e-09 2.56168e-09 0 -1.14247e-08 -6.0981e-09 0 0 0 0)
(4.73561e-09 4.07259e-10 0 -5.13681e-09 -4.16629e-09 0 0 0 0)
(2.54137e-09 7.35852e-10 0 -2.31813e-09 -2.73707e-09 0 0 0 0)
(1.67363e-09 4.58023e-10 0 -1.55176e-10 -1.60443e-09 0 0 0 0)
(7.82713e-10 3.48027e-10 0 8.60694e-10 -7.89127e-10 0 0 0 0)
(2.55628e-10 2.22258e-10 0 1.28665e-09 -2.36245e-10 0 0 0 0)
(-9.14525e-11 1.33586e-10 0 1.26984e-09 1.03333e-10 0 0 0 0)
(-2.72894e-10 6.78419e-11 0 1.02812e-09 2.85778e-10 0 0 0 0)
(-3.58058e-10 8.25568e-12 0 6.62122e-10 3.60884e-10 0 0 0 0)
(-3.12928e-10 -5.70667e-11 0 2.71837e-10 3.22617e-10 0 0 0 0)
(-1.12703e-10 -6.74991e-11 0 2.30122e-11 1.26682e-10 0 0 0 0)
(-2.65358e-11 -4.117e-11 0 3.67273e-11 3.78473e-11 0 0 0 0)
(-1.3395e-06 -2.71506e-05 0 -7.99999e-06 2.74734e-06 0 0 0 0)
(1.51026e-06 3.36713e-05 0 2.30013e-06 -2.08413e-07 0 0 0 0)
(-3.57907e-07 -8.09073e-06 0 -8.06699e-07 1.98259e-08 0 0 0 0)
(1.60649e-07 1.92851e-06 0 2.30577e-07 -4.29016e-10 0 0 0 0)
(-3.3297e-08 -4.71114e-07 0 -7.77356e-08 -2.5253e-08 0 0 0 0)
(3.22924e-08 1.17905e-07 0 2.36359e-08 -1.15683e-08 0 0 0 0)
(3.96392e-09 -2.51239e-08 0 -5.00039e-09 -1.2176e-08 0 0 0 0)
(1.08437e-08 1.0649e-08 0 4.09828e-09 -7.98876e-09 0 0 0 0)
(4.94399e-09 1.20181e-09 0 1.17582e-09 -5.96442e-09 0 0 0 0)
(4.37104e-09 2.95377e-09 0 1.59619e-09 -3.97693e-09 0 0 0 0)
(2.44024e-09 1.82602e-09 0 1.01584e-09 -2.54414e-09 0 0 0 0)
(1.5052e-09 1.48992e-09 0 7.87727e-10 -1.44257e-09 0 0 0 0)
(6.59114e-10 1.02015e-09 0 5.35677e-10 -6.56875e-10 0 0 0 0)
(1.53523e-10 6.70203e-10 0 3.64102e-10 -1.34209e-10 0 0 0 0)
(-1.67076e-10 3.88437e-10 0 2.31586e-10 1.80524e-10 0 0 0 0)
(-3.34829e-10 1.89709e-10 0 1.4035e-10 3.3998e-10 0 0 0 0)
(-3.98227e-10 2.85832e-11 0 7.80355e-11 3.95119e-10 0 0 0 0)
(-3.26209e-10 -1.77136e-10 0 3.45589e-11 3.48354e-10 0 0 0 0)
(-1.22352e-10 -2.17271e-10 0 9.1344e-12 1.37175e-10 0 0 0 0)
(-3.32308e-11 -1.23359e-10 0 -1.40946e-12 4.04567e-11 0 0 0 0)
(-9.80616e-06 2.9058e-05 0 -5.13108e-06 -4.33438e-06 0 0 0 0)
(1.22208e-05 -3.55928e-05 0 8.00307e-07 2.71388e-08 0 0 0 0)
(-3.45541e-06 8.05817e-06 0 -4.13292e-07 -4.42175e-08 0 0 0 0)
(1.25184e-06 -1.92017e-06 0 5.09503e-08 -9.82e-08 0 0 0 0)
(-3.50673e-07 4.41699e-07 0 -2.07396e-08 9.30021e-12 0 0 0 0)
(1.38343e-07 -9.56506e-08 0 9.80496e-09 -2.56548e-08 0 0 0 0)
(-2.61185e-08 3.12616e-08 0 3.93256e-09 -7.8122e-09 0 0 0 0)
(1.96838e-08 7.17551e-10 0 4.69996e-09 -8.74486e-09 0 0 0 0)
(1.66897e-09 6.57351e-09 0 3.314e-09 -4.83344e-09 0 0 0 0)
(4.57563e-09 3.82754e-09 0 2.52375e-09 -3.49105e-09 0 0 0 0)
(1.73293e-09 3.27021e-09 0 1.79208e-09 -2.00752e-09 0 0 0 0)
(1.19344e-09 2.34529e-09 0 1.25477e-09 -1.07253e-09 0 0 0 0)
(3.59034e-10 1.65639e-09 0 8.50801e-10 -3.69311e-10 0 0 0 0)
(-4.83825e-11 1.05966e-09 0 5.58337e-10 7.10438e-11 0 0 0 0)
(-3.15232e-10 6.07776e-10 0 3.51553e-10 3.27251e-10 0 0 0 0)
(-4.26444e-10 2.82438e-10 0 2.08302e-10 4.41362e-10 0 0 0 0)
(-4.63849e-10 1.66292e-11 0 1.09179e-10 4.61199e-10 0 0 0 0)
(-3.81829e-10 -3.15011e-10 0 4.93854e-11 3.86897e-10 0 0 0 0)
(-1.48671e-10 -3.75396e-10 0 1.71575e-11 1.62131e-10 0 0 0 0)
(-3.42608e-11 -2.18802e-10 0 -1.97867e-12 4.467e-11 0 0 0 0)
(-5.67027e-06 -3.14579e-05 0 1.11176e-05 9.24533e-06 0 0 0 0)
(6.22805e-06 3.79614e-05 0 -2.06837e-06 -2.12294e-06 0 0 0 0)
(-1.10726e-06 -8.21607e-06 0 1.00197e-06 4.51608e-07 0 0 0 0)
(5.532e-07 1.97274e-06 0 -1.57135e-07 -1.74172e-07 0 0 0 0)
(-7.44423e-08 -3.98568e-07 0 9.03477e-08 9.23278e-09 0 0 0 0)
(5.69646e-08 1.10083e-07 0 -6.57081e-09 -2.511e-08 0 0 0 0)
(-1.14107e-09 -8.21392e-09 0 1.53565e-08 -6.26257e-09 0 0 0 0)
(1.02251e-08 1.36278e-08 0 4.8975e-09 -6.8732e-09 0 0 0 0)
(2.76781e-09 6.45562e-09 0 5.38561e-09 -3.5465e-09 0 0 0 0)
(2.84912e-09 5.77969e-09 0 3.24597e-09 -2.44818e-09 0 0 0 0)
(1.17124e-09 4.24453e-09 0 2.44086e-09 -1.24135e-09 0 0 0 0)
(5.63975e-10 3.12813e-09 0 1.6202e-09 -5.0586e-10 0 0 0 0)
(-3.73237e-11 2.16373e-09 0 1.10101e-09 4.16084e-11 0 0 0 0)
(-3.45779e-10 1.36676e-09 0 7.0896e-10 3.63899e-10 0 0 0 0)
(-5.17056e-10 7.58755e-10 0 4.42219e-10 5.31434e-10 0 0 0 0)
(-5.77202e-10 3.23658e-10 0 2.57688e-10 5.79091e-10 0 0 0 0)
(-5.57144e-10 -2.5882e-11 0 1.37883e-10 5.50793e-10 0 0 0 0)
(-4.18285e-10 -4.76204e-10 0 6.19622e-11 4.41855e-10 0 0 0 0)
(-1.73743e-10 -5.59497e-10 0 1.90277e-11 1.94002e-10 0 0 0 0)
(-4.83554e-11 -3.3016e-10 0 -2.57498e-12 5.00641e-11 0 0 0 0)
(-7.56966e-07 3.61804e-05 0 8.27705e-07 -1.27e-05 0 0 0 0)
(2.10519e-06 -4.43865e-05 0 -1.53942e-06 1.91197e-06 0 0 0 0)
(-1.54418e-06 1.00069e-05 0 3.59921e-07 -4.32252e-07 0 0 0 0)
(3.40222e-07 -2.36254e-06 0 -2.01546e-07 1.67367e-08 0 0 0 0)
(-2.00109e-07 5.9076e-07 0 1.03239e-07 -8.0119e-09 0 0 0 0)
(6.33515e-08 -1.11146e-07 0 -6.83028e-09 -1.08294e-08 0 0 0 0)
(-1.46501e-08 4.94985e-08 0 2.24264e-08 -2.9097e-09 0 0 0 0)
(9.71301e-09 3.43362e-09 0 5.38203e-09 -3.85497e-09 0 0 0 0)
(1.74285e-11 1.09985e-08 0 6.88379e-09 -1.67165e-09 0 0 0 0)
(1.63083e-09 6.13268e-09 0 3.66902e-09 -1.0626e-09 0 0 0 0)
(1.07173e-10 5.21253e-09 0 2.8723e-09 -2.55474e-10 0 0 0 0)
(-1.46422e-10 3.62825e-09 0 1.82642e-09 2.09177e-10 0 0 0 0)
(-5.52184e-10 2.52614e-09 0 1.24084e-09 5.49208e-10 0 0 0 0)
(-7.07198e-10 1.54948e-09 0 7.8087e-10 7.21261e-10 0 0 0 0)
(-7.66504e-10 8.22968e-10 0 4.82145e-10 7.76767e-10 0 0 0 0)
(-7.30806e-10 3.01797e-10 0 2.76444e-10 7.42156e-10 0 0 0 0)
(-6.59574e-10 -1.20606e-10 0 1.41868e-10 6.53661e-10 0 0 0 0)
(-5.00603e-10 -6.71803e-10 0 6.30735e-11 5.02061e-10 0 0 0 0)
(-2.13235e-10 -7.67187e-10 0 2.24701e-11 2.30389e-10 0 0 0 0)
(-5.07407e-11 -4.62867e-10 0 -2.98156e-12 5.61363e-11 0 0 0 0)
(-6.38198e-06 -4.22459e-05 0 3.52958e-05 2.12377e-05 0 0 0 0)
(5.76027e-06 5.02292e-05 0 -7.42611e-06 -3.77038e-06 0 0 0 0)
(2.30609e-07 -1.01113e-05 0 3.10259e-06 8.71866e-07 0 0 0 0)
(2.96518e-07 2.39698e-06 0 -6.36852e-07 -1.03899e-07 0 0 0 0)
(1.20274e-07 -4.26135e-07 0 2.6509e-07 2.20449e-08 0 0 0 0)
(-2.38481e-08 1.15185e-07 0 -4.80363e-08 1.57536e-09 0 0 0 0)
(1.10713e-08 -1.23945e-09 0 3.16418e-08 -1.23029e-09 0 0 0 0)
(-5.31761e-09 1.48658e-08 0 2.76745e-09 7.11672e-10 0 0 0 0)
(1.05482e-09 9.248e-09 0 7.77552e-09 3.60369e-11 0 0 0 0)
(-1.16237e-09 7.19587e-09 0 3.66019e-09 6.74453e-10 0 0 0 0)
(-6.71392e-10 5.5163e-09 0 3.00473e-09 8.01682e-10 0 0 0 0)
(-1.06745e-09 3.93281e-09 0 1.85027e-09 1.02124e-09 0 0 0 0)
(-1.08285e-09 2.67581e-09 0 1.24534e-09 1.10135e-09 0 0 0 0)
(-1.1045e-09 1.59432e-09 0 7.65908e-10 1.10913e-09 0 0 0 0)
(-1.02151e-09 7.7965e-10 0 4.6225e-10 1.0366e-09 0 0 0 0)
(-9.17479e-10 2.00552e-10 0 2.57417e-10 9.11226e-10 0 0 0 0)
(-7.70515e-10 -2.65977e-10 0 1.31649e-10 7.56702e-10 0 0 0 0)
(-5.37656e-10 -8.99476e-10 0 5.89264e-11 5.61342e-10 0 0 0 0)
(-2.39798e-10 -1.00542e-09 0 2.07083e-11 2.66039e-10 0 0 0 0)
(-6.7844e-11 -6.16685e-10 0 -3.52366e-12 6.20271e-11 0 0 0 0)
(2.71127e-05 5.36477e-05 0 -2.56396e-05 -3.25103e-05 0 0 0 0)
(-3.0088e-05 -6.47524e-05 0 4.35385e-06 7.23384e-06 0 0 0 0)
(5.24508e-06 1.36734e-05 0 -2.00368e-06 -1.7029e-06 0 0 0 0)
(-2.49727e-06 -3.21236e-06 0 3.29152e-07 4.22957e-07 0 0 0 0)
(3.88707e-07 6.96235e-07 0 -1.0728e-07 -8.54629e-08 0 0 0 0)
(-1.70096e-07 -1.34421e-07 0 4.13576e-08 3.18039e-08 0 0 0 0)
(3.61536e-08 4.86348e-08 0 4.3167e-09 -2.09432e-09 0 0 0 0)
(-1.41533e-08 4.69995e-09 0 9.75931e-09 4.80581e-09 0 0 0 0)
(9.10134e-10 1.09613e-08 0 5.24204e-09 1.94555e-09 0 0 0 0)
(-3.1399e-09 6.89833e-09 0 3.9884e-09 2.2925e-09 0 0 0 0)
(-1.70277e-09 5.55932e-09 0 2.61607e-09 1.91634e-09 0 0 0 0)
(-1.90584e-09 3.92791e-09 0 1.72694e-09 1.82515e-09 0 0 0 0)
(-1.63652e-09 2.61403e-09 0 1.08813e-09 1.65714e-09 0 0 0 0)
(-1.49026e-09 1.48473e-09 0 6.56674e-10 1.48697e-09 0 0 0 0)
(-1.27499e-09 6.25066e-10 0 3.77086e-10 1.28427e-09 0 0 0 0)
(-1.06138e-09 2.18981e-11 0 2.0093e-10 1.06634e-09 0 0 0 0)
(-8.58065e-10 -4.7049e-10 0 9.47051e-11 8.46616e-10 0 0 0 0)
(-6.11571e-10 -1.16247e-09 0 4.17418e-11 6.08515e-10 0 0 0 0)
(-2.75713e-10 -1.2665e-09 0 1.84585e-11 2.96846e-10 0 0 0 0)
(-6.79253e-11 -7.90934e-10 0 -3.95734e-12 6.66928e-11 0 0 0 0)
(-2.76677e-05 -6.75223e-05 0 3.18578e-05 4.37168e-05 0 0 0 0)
(2.93961e-05 8.10366e-05 0 -5.25049e-06 -8.67971e-06 0 0 0 0)
(-3.79409e-06 -1.69222e-05 0 2.52159e-06 2.0449e-06 0 0 0 0)
(2.19292e-06 4.01441e-06 0 -3.57415e-07 -3.69221e-07 0 0 0 0)
(-1.6752e-07 -8.17287e-07 0 1.57271e-07 8.90085e-08 0 0 0 0)
(8.77487e-08 1.98554e-07 0 -2.39637e-08 -4.28085e-09 0 0 0 0)
(-2.05271e-08 -2.82376e-08 0 1.62805e-08 8.01034e-09 0 0 0 0)
(-4.39221e-09 1.89057e-08 0 4.05923e-09 5.30879e-09 0 0 0 0)
(-4.71609e-09 6.7347e-09 0 5.24968e-09 4.19843e-09 0 0 0 0)
(-3.78837e-09 7.16666e-09 0 3.14877e-09 3.63336e-09 0 0 0 0)
(-2.93279e-09 5.04896e-09 0 2.19787e-09 2.97828e-09 0 0 0 0)
(-2.59539e-09 3.67361e-09 0 1.3549e-09 2.55722e-09 0 0 0 0)
(-2.15314e-09 2.33763e-09 0 8.12311e-10 2.16144e-09 0 0 0 0)
(-1.81558e-09 1.22145e-09 0 4.50296e-10 1.81691e-09 0 0 0 0)
(-1.47725e-09 3.59021e-10 0 2.30854e-10 1.49049e-09 0 0 0 0)
(-1.19983e-09 -2.371e-10 0 1.04761e-10 1.1856e-09 0 0 0 0)
(-9.2973e-10 -7.23805e-10 0 4.11184e-11 9.07238e-10 0 0 0 0)
(-6.13902e-10 -1.44925e-09 0 1.8567e-11 6.36126e-10 0 0 0 0)
(-2.85498e-10 -1.54724e-09 0 1.17365e-11 3.17089e-10 0 0 0 0)
(-8.2318e-11 -9.80225e-10 0 -4.63496e-12 6.89517e-11 0 0 0 0)
(5.372e-05 8.86848e-05 0 -5.81979e-05 -6.15335e-05 0 0 0 0)
(-5.94242e-05 -0.000106424 0 1.13691e-05 1.30236e-05 0 0 0 0)
(1.01382e-05 2.19839e-05 0 -4.88464e-06 -3.03016e-06 0 0 0 0)
(-4.8616e-06 -5.16825e-06 0 9.41578e-07 6.37327e-07 0 0 0 0)
(7.22159e-07 1.06118e-06 0 -3.30624e-07 -1.24869e-07 0 0 0 0)
(-3.11087e-07 -2.15419e-07 0 9.53022e-08 3.87522e-08 0 0 0 0)
(6.41766e-08 5.82244e-08 0 -1.69466e-08 4.58804e-09 0 0 0 0)
(-2.51841e-08 8.88046e-10 0 1.29153e-08 8.32082e-09 0 0 0 0)
(-3.52366e-13 9.28589e-09 0 1.81336e-09 5.85228e-09 0 0 0 0)
(-6.19172e-09 5.67818e-09 0 2.97904e-09 4.80061e-09 0 0 0 0)
(-3.49658e-09 4.48318e-09 0 1.33048e-09 3.89912e-09 0 0 0 0)
(-3.29145e-09 3.11107e-09 0 8.77851e-10 3.16496e-09 0 0 0 0)
(-2.54115e-09 1.87371e-09 0 3.98797e-10 2.57134e-09 0 0 0 0)
(-2.07169e-09 8.13785e-10 0 1.61194e-10 2.06369e-09 0 0 0 0)
(-1.62053e-09 -6.24578e-12 0 2.67798e-11 1.62854e-09 0 0 0 0)
(-1.25112e-09 -5.61355e-10 0 -2.49638e-11 1.24984e-09 0 0 0 0)
(-9.44232e-10 -1.01996e-09 0 -3.43963e-11 9.26147e-10 0 0 0 0)
(-6.4098e-10 -1.75261e-09 0 -1.5992e-11 6.33473e-10 0 0 0 0)
(-2.98887e-10 -1.83368e-09 0 3.36103e-12 3.23087e-10 0 0 0 0)
(-7.50539e-11 -1.17697e-09 0 -5.20417e-12 6.76098e-11 0 0 0 0)
(-7.44965e-05 -0.000116032 0 6.41926e-05 8.15725e-05 0 0 0 0)
(8.27094e-05 0.00013954 0 -1.23593e-05 -1.85228e-05 0 0 0 0)
(-1.42216e-05 -2.93085e-05 0 5.39443e-06 4.34177e-06 0 0 0 0)
(6.74693e-06 6.9197e-06 0 -9.91849e-07 -9.80106e-07 0 0 0 0)
(-1.0138e-06 -1.41586e-06 0 3.79549e-07 2.33442e-07 0 0 0 0)
(4.01426e-07 3.28011e-07 0 -8.3604e-08 -4.11482e-08 0 0 0 0)
(-1.02914e-07 -5.8669e-08 0 2.99442e-08 2.17681e-08 0 0 0 0)
(1.43678e-08 2.017e-08 0 -4.50158e-09 6.24013e-09 0 0 0 0)
(-1.46524e-08 3.21449e-09 0 4.198e-09 7.74348e-09 0 0 0 0)
(-4.27124e-09 5.2135e-09 0 7.70515e-10 5.6617e-09 0 0 0 0)
(-5.034e-09 3.41331e-09 0 7.83363e-10 4.62952e-09 0 0 0 0)
(-3.52705e-09 2.34583e-09 0 1.33005e-10 3.62577e-09 0 0 0 0)
(-2.86977e-09 1.23637e-09 0 -8.19115e-11 2.84452e-09 0 0 0 0)
(-2.18757e-09 2.78644e-10 0 -2.11447e-10 2.19971e-09 0 0 0 0)
(-1.66344e-09 -4.54837e-10 0 -2.24077e-10 1.67379e-09 0 0 0 0)
(-1.26106e-09 -9.39489e-10 0 -1.87079e-10 1.24061e-09 0 0 0 0)
(-9.20732e-10 -1.34017e-09 0 -1.24304e-10 8.8947e-10 0 0 0 0)
(-5.76118e-10 -2.05231e-09 0 -5.51046e-11 5.95192e-10 0 0 0 0)
(-2.7471e-10 -2.11311e-09 0 -7.5081e-12 3.09591e-10 0 0 0 0)
(-8.04749e-11 -1.37092e-09 0 -5.99022e-12 6.16742e-11 0 0 0 0)
(0.000105553 0.000151735 0 -7.16333e-05 -9.98593e-05 0 0 0 0)
(-0.000118222 -0.000183655 0 1.41894e-05 2.28232e-05 0 0 0 0)
(2.15056e-05 3.95266e-05 0 -6.1032e-06 -5.40078e-06 0 0 0 0)
(-9.87648e-06 -9.27658e-06 0 1.22271e-06 1.22232e-06 0 0 0 0)
(1.6304e-06 2.00013e-06 0 -4.14603e-07 -2.62775e-07 0 0 0 0)
(-6.60692e-07 -4.27093e-07 0 1.22739e-07 7.67208e-08 0 0 0 0)
(1.43279e-07 1.05613e-07 0 -2.41451e-08 -1.11792e-09 0 0 0 0)
(-5.09303e-08 -1.31366e-08 0 1.223e-08 1.32391e-08 0 0 0 0)
(5.27177e-09 8.70746e-09 0 -1.27386e-09 7.73621e-09 0 0 0 0)
(-9.60636e-09 2.56422e-09 0 9.02219e-10 6.66441e-09 0 0 0 0)
(-4.13409e-09 2.44725e-09 0 -5.44703e-10 5.09213e-09 0 0 0 0)
(-4.15672e-09 1.32607e-09 0 -5.62836e-10 3.91039e-09 0 0 0 0)
(-2.8856e-09 4.47655e-10 0 -7.02888e-10 2.95319e-09 0 0 0 0)
(-2.21389e-09 -3.56944e-10 0 -6.35478e-10 2.19652e-09 0 0 0 0)
(-1.59611e-09 -9.65345e-10 0 -5.19631e-10 1.60539e-09 0 0 0 0)
(-1.15134e-09 -1.34567e-09 0 -3.71502e-10 1.14301e-09 0 0 0 0)
(-8.12284e-10 -1.66538e-09 0 -2.28116e-10 7.8807e-10 0 0 0 0)
(-5.24212e-10 -2.33249e-09 0 -1.02484e-10 5.11958e-10 0 0 0 0)
(-2.49719e-10 -2.36719e-09 0 -2.05456e-11 2.74257e-10 0 0 0 0)
(-6.15827e-11 -1.54824e-09 0 -6.36969e-12 5.06336e-11 0 0 0 0)
(-0.00013194 -0.000193068 0 7.77967e-05 0.000112774 0 0 0 0)
(0.000148239 0.000233998 0 -1.61279e-05 -2.70862e-05 0 0 0 0)
(-2.71883e-05 -5.09094e-05 0 7.15398e-06 6.57739e-06 0 0 0 0)
(1.24355e-05 1.20577e-05 0 -1.39122e-06 -1.46303e-06 0 0 0 0)
(-2.11377e-06 -2.56146e-06 0 5.46261e-07 3.9642e-07 0 0 0 0)
(7.91884e-07 5.89668e-07 0 -1.30618e-07 -6.35948e-08 0 0 0 0)
(-2.13423e-07 -1.22151e-07 0 4.05364e-08 3.45266e-08 0 0 0 0)
(3.72391e-08 2.90241e-08 0 -1.20622e-08 6.89348e-09 0 0 0 0)
(-2.59802e-08 -3.3602e-09 0 2.37039e-09 1.03365e-08 0 0 0 0)
(-3.54212e-09 2.56942e-09 0 -2.24484e-09 6.89078e-09 0 0 0 0)
(-6.49901e-09 6.59293e-10 0 -1.2409e-09 5.45165e-09 0 0 0 0)
(-3.68526e-09 2.06891e-10 0 -1.60036e-09 3.96042e-09 0 0 0 0)
(-2.94242e-09 -4.77511e-10 0 -1.34777e-09 2.87127e-09 0 0 0 0)
(-2.00428e-09 -1.06915e-09 0 -1.13202e-09 2.02775e-09 0 0 0 0)
(-1.39949e-09 -1.50835e-09 0 -8.45e-10 1.40351e-09 0 0 0 0)
(-9.69548e-10 -1.75681e-09 0 -5.78937e-10 9.42412e-10 0 0 0 0)
(-6.51687e-10 -1.97122e-09 0 -3.44776e-10 6.11658e-10 0 0 0 0)
(-3.68547e-10 -2.56612e-09 0 -1.53902e-10 3.81565e-10 0 0 0 0)
(-1.78649e-10 -2.57443e-09 0 -3.29326e-11 2.12348e-10 0 0 0 0)
(-5.35325e-11 -1.69581e-09 0 -6.26127e-12 3.43162e-11 0 0 0 0)
(0.000167222 0.000237422 0 -5.74006e-05 -9.81115e-05 0 0 0 0)
(-0.000188865 -0.000289851 0 1.29356e-05 2.74309e-05 0 0 0 0)
(3.62422e-05 6.51497e-05 0 -5.94887e-06 -6.32064e-06 0 0 0 0)
(-1.64842e-05 -1.54576e-05 0 1.19927e-06 1.68332e-06 0 0 0 0)
(2.89101e-06 3.39957e-06 0 -4.98022e-07 -3.77659e-07 0 0 0 0)
(-1.16642e-06 -7.88986e-07 0 1.19104e-07 1.08833e-07 0 0 0 0)
(2.61835e-07 1.76101e-07 0 -3.80384e-08 -7.97074e-09 0 0 0 0)
(-8.90964e-08 -3.73267e-08 0 9.49154e-09 1.7532e-08 0 0 0 0)
(1.50891e-08 8.70476e-09 0 -5.25619e-09 8.82965e-09 0 0 0 0)
(-1.32176e-08 -2.32061e-09 0 -2.06256e-09 7.74971e-09 0 0 0 0)
(-3.48967e-09 -4.83106e-10 0 -3.09117e-09 5.36788e-09 0 0 0 0)
(-4.26357e-09 -1.25432e-09 0 -2.50616e-09 3.77813e-09 0 0 0 0)
(-2.41728e-09 -1.48501e-09 0 -2.14699e-09 2.54468e-09 0 0 0 0)
(-1.71109e-09 -1.8247e-09 0 -1.64856e-09 1.66365e-09 0 0 0 0)
(-1.043e-09 -2.05068e-09 0 -1.19411e-09 1.04939e-09 0 0 0 0)
(-6.51172e-10 -2.13752e-09 0 -7.90004e-10 6.30886e-10 0 0 0 0)
(-3.87223e-10 -2.22623e-09 0 -4.6019e-10 3.58216e-10 0 0 0 0)
(-2.12341e-10 -2.7318e-09 0 -2.0692e-10 1.97062e-10 0 0 0 0)
(-1.02132e-10 -2.71444e-09 0 -4.80302e-11 1.22525e-10 0 0 0 0)
(-2.23346e-11 -1.7949e-09 0 -5.47522e-12 1.33098e-11 0 0 0 0)
(-0.000176405 -0.000263749 0 2.5137e-05 6.42075e-05 0 0 0 0)
(0.000199691 0.000325789 0 -8.42682e-06 -2.13218e-05 0 0 0 0)
(-3.89246e-05 -7.6657e-05 0 3.28929e-06 4.82881e-06 0 0 0 0)
(1.78864e-05 1.80007e-05 0 -1.07556e-06 -1.56687e-06 0 0 0 0)
(-3.19394e-06 -4.13595e-06 0 4.03731e-07 3.965e-07 0 0 0 0)
(1.25187e-06 9.59356e-07 0 -1.18741e-07 -8.84463e-08 0 0 0 0)
(-3.23036e-07 -2.13451e-07 0 3.97061e-08 4.85594e-08 0 0 0 0)
(7.00213e-08 4.58245e-08 0 -1.60862e-08 7.18129e-09 0 0 0 0)
(-3.75342e-08 -1.31424e-08 0 -1.03436e-09 1.30684e-08 0 0 0 0)
(-1.3771e-09 -8.92359e-10 0 -6.1349e-09 7.01762e-09 0 0 0 0)
(-6.94263e-09 -3.31229e-09 0 -4.13954e-09 5.20206e-09 0 0 0 0)
(-2.74103e-09 -2.61631e-09 0 -3.86589e-09 3.16046e-09 0 0 0 0)
(-2.08481e-09 -2.59199e-09 0 -2.91992e-09 1.93143e-09 0 0 0 0)
(-1.05143e-09 -2.56445e-09 0 -2.20776e-09 1.06587e-09 0 0 0 0)
(-5.40963e-10 -2.54111e-09 0 -1.53328e-09 5.28531e-10 0 0 0 0)
(-2.3557e-10 -2.44798e-09 0 -9.96924e-10 2.01379e-10 0 0 0 0)
(-6.86571e-11 -2.40504e-09 0 -5.76714e-10 2.35113e-11 0 0 0 0)
(4.3612e-11 -2.80181e-09 0 -2.59721e-10 -3.81364e-11 0 0 0 0)
(2.28225e-11 -2.75818e-09 0 -5.90619e-11 3.37973e-12 0 0 0 0)
(-5.42101e-14 -1.83165e-09 0 -4.03865e-12 -1.18734e-11 0 0 0 0)
(0.000183932 0.000280308 0 2.35099e-05 -3.83974e-05 0 0 0 0)
(-0.000210713 -0.00034923 0 -3.04025e-06 1.0104e-05 0 0 0 0)
(4.35935e-05 8.49046e-05 0 1.99649e-06 -2.38247e-06 0 0 0 0)
(-1.93698e-05 -1.98899e-05 0 -5.72499e-08 6.95407e-07 0 0 0 0)
(3.84783e-06 4.878e-06 0 1.37165e-07 -1.23254e-07 0 0 0 0)
(-1.53044e-06 -1.13693e-06 0 -4.27124e-09 7.34761e-08 0 0 0 0)
(3.6449e-07 2.71729e-07 0 9.38377e-11 1.35959e-08 0 0 0 0)
(-1.29837e-07 -7.28177e-08 0 -9.48585e-09 1.96173e-08 0 0 0 0)
(2.50404e-08 8.54109e-09 0 -8.36137e-09 1.07863e-08 0 0 0 0)
(-1.63228e-08 -1.01869e-08 0 -7.97683e-09 7.11731e-09 0 0 0 0)
(-1.22065e-09 -4.34027e-09 0 -6.41864e-09 4.01826e-09 0 0 0 0)
(-3.04401e-09 -4.52495e-09 0 -5.06523e-09 2.12134e-09 0 0 0 0)
(-7.59158e-10 -3.5796e-09 0 -3.76316e-09 9.18138e-10 0 0 0 0)
(-3.2442e-10 -3.2276e-09 0 -2.69522e-09 2.12032e-10 0 0 0 0)
(1.67834e-10 -2.91518e-09 0 -1.8275e-09 -1.69456e-10 0 0 0 0)
(3.05393e-10 -2.64254e-09 0 -1.16018e-09 -3.41755e-10 0 0 0 0)
(3.4998e-10 -2.46574e-09 0 -6.58897e-10 -3.83147e-10 0 0 0 0)
(3.05366e-10 -2.75194e-09 0 -2.97966e-10 -3.20918e-10 0 0 0 0)
(1.53523e-10 -2.68818e-09 0 -7.3265e-11 -1.4123e-10 0 0 0 0)
(4.0766e-11 -1.78641e-09 0 -3.52366e-12 -4.04466e-11 0 0 0 0)
(-0.000155936 -0.000292042 0 4.15034e-05 2.65963e-05 0 0 0 0)
(0.000178178 0.000361804 0 -1.41123e-05 -1.01896e-05 0 0 0 0)
(-3.59416e-05 -8.60656e-05 0 4.52924e-06 2.76084e-06 0 0 0 0)
(1.60271e-05 2.02599e-05 0 -1.56618e-06 -7.73499e-07 0 0 0 0)
(-3.14096e-06 -4.75788e-06 0 5.06471e-07 3.34089e-07 0 0 0 0)
(1.1148e-06 1.09621e-06 0 -1.74345e-07 -2.38234e-08 0 0 0 0)
(-3.28251e-07 -2.6731e-07 0 3.93117e-08 5.58422e-08 0 0 0 0)
(6.15661e-08 4.3015e-08 0 -3.2032e-08 1.27674e-08 0 0 0 0)
(-3.60252e-08 -2.56424e-08 0 -8.69677e-09 1.19236e-08 0 0 0 0)
(5.65601e-10 -7.66044e-09 0 -1.30216e-08 4.38129e-09 0 0 0 0)
(-4.03101e-09 -8.30827e-09 0 -8.09547e-09 2.05307e-09 0 0 0 0)
(-8.55707e-11 -5.71643e-09 0 -6.42967e-09 2.65509e-10 0 0 0 0)
(2.85254e-10 -4.50129e-09 0 -4.38684e-09 -5.30571e-10 0 0 0 0)
(8.84113e-10 -3.65204e-09 0 -3.05748e-09 -9.24072e-10 0 0 0 0)
(9.94105e-10 -3.0949e-09 0 -1.99789e-09 -1.0291e-09 0 0 0 0)
(9.33064e-10 -2.66167e-09 0 -1.24244e-09 -9.76736e-10 0 0 0 0)
(7.93609e-10 -2.3842e-09 0 -6.95841e-10 -8.36525e-10 0 0 0 0)
(6.29163e-10 -2.55989e-09 0 -3.10001e-10 -6.24205e-10 0 0 0 0)
(3.17346e-10 -2.47771e-09 0 -7.52436e-11 -2.96841e-10 0 0 0 0)
(7.67073e-11 -1.64997e-09 0 -4.47233e-12 -7.3092e-11 0 0 0 0)
(0.000211323 0.000296715 0 0.000143425 -2.42685e-05 0 0 0 0)
(-0.000247687 -0.000373065 0 -3.27125e-05 1.29827e-05 0 0 0 0)
(5.61396e-05 9.43208e-05 0 1.32254e-05 -2.82787e-06 0 0 0 0)
(-2.33925e-05 -2.23166e-05 0 -3.00851e-06 1.62476e-06 0 0 0 0)
(5.23967e-06 5.62767e-06 0 1.03322e-06 -2.43253e-07 0 0 0 0)
(-1.9976e-06 -1.41517e-06 0 -3.21388e-07 2.218e-07 0 0 0 0)
(5.06803e-07 3.08319e-07 0 4.83627e-08 -7.66849e-09 0 0 0 0)
(-1.77845e-07 -1.16736e-07 0 -5.54327e-08 2.91998e-08 0 0 0 0)
(4.40508e-08 1.54947e-10 0 -1.50461e-08 -5.98875e-11 0 0 0 0)
(-1.57216e-08 -2.00575e-08 0 -1.72425e-08 1.71188e-09 0 0 0 0)
(5.3713e-09 -8.45605e-09 0 -9.76861e-09 -2.02833e-09 0 0 0 0)
(6.6467e-10 -7.10859e-09 0 -7.13522e-09 -2.05652e-09 0 0 0 0)
(2.61304e-09 -4.76918e-09 0 -4.62385e-09 -2.37827e-09 0 0 0 0)
(2.06451e-09 -3.72613e-09 0 -3.08393e-09 -2.18708e-09 0 0 0 0)
(1.98287e-09 -2.96784e-09 0 -1.95216e-09 -1.94476e-09 0 0 0 0)
(1.60752e-09 -2.44997e-09 0 -1.17598e-09 -1.61414e-09 0 0 0 0)
(1.28234e-09 -2.11321e-09 0 -6.31765e-10 -1.27981e-09 0 0 0 0)
(9.2599e-10 -2.21225e-09 0 -2.72379e-10 -9.19439e-10 0 0 0 0)
(4.58997e-10 -2.13707e-09 0 -7.1205e-11 -4.4763e-10 0 0 0 0)
(1.20482e-10 -1.41648e-09 0 -6.83047e-12 -1.0727e-10 0 0 0 0)
(-4.52235e-05 -0.000303328 0 -0.00013198 -1.32422e-06 0 0 0 0)
(4.79785e-05 0.000383245 0 3.00903e-05 1.22292e-05 0 0 0 0)
(-6.23763e-06 -9.74235e-05 0 -1.31002e-05 -2.64366e-06 0 0 0 0)
(3.83488e-06 2.28445e-05 0 2.72228e-06 1.98007e-06 0 0 0 0)
(-4.53837e-07 -6.16084e-06 0 -1.35562e-06 -3.8544e-07 0 0 0 0)
(1.29942e-07 1.33179e-06 0 1.85021e-07 2.4218e-07 0 0 0 0)
(-6.22954e-08 -4.5991e-07 0 -1.85744e-07 -5.68186e-08 0 0 0 0)
(-1.84271e-09 5.06236e-08 0 -1.50408e-08 1.63323e-08 0 0 0 0)
(2.16499e-09 -5.31303e-08 0 -3.77798e-08 -1.43715e-08 0 0 0 0)
(5.84314e-09 -9.62888e-09 0 -1.37699e-08 -5.01001e-09 0 0 0 0)
(6.07625e-09 -1.20767e-08 0 -1.14669e-08 -6.92018e-09 0 0 0 0)
(5.05919e-09 -6.06637e-09 0 -6.37882e-09 -4.99311e-09 0 0 0 0)
(4.33654e-09 -4.63186e-09 0 -4.38015e-09 -4.39275e-09 0 0 0 0)
(3.55588e-09 -3.21854e-09 0 -2.71064e-09 -3.52787e-09 0 0 0 0)
(2.90198e-09 -2.52196e-09 0 -1.71757e-09 -2.87232e-09 0 0 0 0)
(2.25343e-09 -1.99672e-09 0 -1.01896e-09 -2.25441e-09 0 0 0 0)
(1.69718e-09 -1.6895e-09 0 -5.6945e-10 -1.7234e-09 0 0 0 0)
(1.18972e-09 -1.72771e-09 0 -2.50125e-10 -1.19734e-09 0 0 0 0)
(5.82921e-10 -1.66555e-09 0 -5.39662e-11 -5.71537e-10 0 0 0 0)
(1.54797e-10 -1.09507e-09 0 -1.32815e-12 -1.33795e-10 0 0 0 0)
(0.000109434 0.00030762 0 -0.000220075 -2.67218e-06 0 0 0 0)
(-0.000128807 -0.000374385 0 6.22336e-05 8.33357e-06 0 0 0 0)
(2.87715e-05 8.40716e-05 0 -2.27201e-05 -2.5499e-06 0 0 0 0)
(-1.16479e-05 -2.00584e-05 0 6.11781e-06 8.87211e-07 0 0 0 0)
(2.7024e-06 3.88978e-06 0 -2.53623e-06 -4.83569e-07 0 0 0 0)
(-8.2772e-07 -1.08655e-06 0 4.9846e-07 2.77801e-08 0 0 0 0)
(3.06742e-07 8.24716e-08 0 -3.07853e-07 -9.21399e-08 0 0 0 0)
(-2.98804e-08 -7.42893e-08 0 2.28886e-08 -2.21908e-08 0 0 0 0)
(4.53217e-08 -2.11873e-08 0 -4.52171e-08 -2.6003e-08 0 0 0 0)
(1.05913e-08 -1.26061e-08 0 -6.72018e-09 -1.41943e-08 0 0 0 0)
(1.27624e-08 -8.43915e-09 0 -1.0065e-08 -1.12532e-08 0 0 0 0)
(7.7514e-09 -4.58116e-09 0 -4.25926e-09 -7.95645e-09 0 0 0 0)
(6.28124e-09 -3.30395e-09 0 -3.30468e-09 -6.15064e-09 0 0 0 0)
(4.72712e-09 -2.20569e-09 0 -1.91513e-09 -4.71178e-09 0 0 0 0)
(3.67455e-09 -1.69438e-09 0 -1.27925e-09 -3.65284e-09 0 0 0 0)
(2.75558e-09 -1.30105e-09 0 -7.95777e-10 -2.79031e-09 0 0 0 0)
(2.0512e-09 -1.05614e-09 0 -4.91903e-10 -2.08746e-09 0 0 0 0)
(1.44147e-09 -1.06039e-09 0 -2.292e-10 -1.43764e-09 0 0 0 0)
(7.07794e-10 -1.07352e-09 0 -3.59413e-11 -6.96914e-10 0 0 0 0)
(1.75722e-10 -7.11145e-10 0 1.21431e-11 -1.4411e-10 0 0 0 0)
(-0.000203065 -0.000297667 0 0.000130749 1.4494e-05 0 0 0 0)
(0.000245333 0.000383367 0 -3.71181e-05 -2.44467e-05 0 0 0 0)
(-6.23534e-05 -0.00010487 0 1.4223e-05 5.5117e-06 0 0 0 0)
(2.40187e-05 2.49109e-05 0 -3.5362e-06 -3.64847e-06 0 0 0 0)
(-6.07319e-06 -7.02027e-06 0 1.85219e-06 6.59231e-07 0 0 0 0)
(2.35832e-06 1.72322e-06 0 -1.65421e-07 -5.17977e-07 0 0 0 0)
(-5.37867e-07 -5.09881e-07 0 3.21595e-07 2.25632e-08 0 0 0 0)
(2.60793e-07 1.1676e-07 0 6.5704e-08 -9.05674e-08 0 0 0 0)
(-2.74438e-08 -4.51339e-08 0 9.0682e-08 -1.9908e-08 0 0 0 0)
(4.09952e-08 5.12089e-09 0 4.78261e-08 -2.42462e-08 0 0 0 0)
(8.53717e-09 -5.83878e-09 0 3.90955e-08 -1.24227e-08 0 0 0 0)
(1.18195e-08 -9.63807e-10 0 2.65265e-08 -9.96831e-09 0 0 0 0)
(6.68072e-09 -1.38718e-09 0 1.95246e-08 -6.87776e-09 0 0 0 0)
(5.58131e-09 -7.20738e-10 0 1.35647e-08 -5.27718e-09 0 0 0 0)
(4.02136e-09 -6.0049e-10 0 9.21615e-09 -3.95134e-09 0 0 0 0)
(3.04075e-09 -4.31345e-10 0 5.86873e-09 -2.98231e-09 0 0 0 0)
(2.26376e-09 -3.36831e-10 0 3.41979e-09 -2.21894e-09 0 0 0 0)
(1.64574e-09 -3.37164e-10 0 1.55374e-09 -1.58934e-09 0 0 0 0)
(8.24238e-10 -3.72014e-10 0 3.32633e-10 -8.21387e-10 0 0 0 0)
(1.78568e-10 -2.54045e-10 0 2.1684e-11 -1.43803e-10 0 0 0 0)
)
;

boundaryField
{
    movingWall
    {
        type            extrapolatedCalculated;
        value           nonuniform List<tensor> 
20
(
(-0.000203065 -0.000297667 0 0.00108814 0.00164048 0 0 0 0)
(0.000245333 0.000383367 0 -0.000275878 -0.000449815 0 0 0 0)
(-6.23534e-05 -0.00010487 0 0.000106804 0.000107013 0 0 0 0)
(2.40187e-05 2.49109e-05 0 -2.64647e-05 -3.03354e-05 0 0 0 0)
(-6.07319e-06 -7.02027e-06 0 1.07295e-05 7.36972e-06 0 0 0 0)
(2.35832e-06 1.72322e-06 0 -2.17191e-06 -2.25434e-06 0 0 0 0)
(-5.37867e-07 -5.09881e-07 0 1.29619e-06 4.7684e-07 0 0 0 0)
(2.60793e-07 1.1676e-07 0 -2.04425e-08 -2.1482e-07 0 0 0 0)
(-2.74438e-08 -4.51339e-08 0 2.53021e-07 9.79829e-09 0 0 0 0)
(4.09952e-08 5.12089e-09 0 8.93325e-08 -3.42843e-08 0 0 0 0)
(8.53717e-09 -5.83878e-09 0 8.90397e-08 -1.06853e-08 0 0 0 0)
(1.18195e-08 -9.63807e-10 0 5.51839e-08 -1.09292e-08 0 0 0 0)
(6.68072e-09 -1.38718e-09 0 4.17618e-08 -6.83006e-09 0 0 0 0)
(5.58131e-09 -7.20738e-10 0 2.84612e-08 -5.38044e-09 0 0 0 0)
(4.02136e-09 -6.0049e-10 0 1.94365e-08 -3.94711e-09 0 0 0 0)
(3.04075e-09 -4.31345e-10 0 1.23757e-08 -2.97848e-09 0 0 0 0)
(2.26376e-09 -3.36831e-10 0 7.27356e-09 -2.22173e-09 0 0 0 0)
(1.64574e-09 -3.37164e-10 0 3.32063e-09 -1.63116e-09 0 0 0 0)
(8.24238e-10 -3.72014e-10 0 6.90559e-10 -8.73073e-10 0 0 0 0)
(1.78568e-10 -2.54045e-10 0 2.37144e-11 -1.43106e-10 0 0 0 0)
)
;
    }
    fixedWalls
    {
        type            extrapolatedCalculated;
        value           nonuniform List<tensor> 
60
(
(-2.25422e-05 0.000139414 0 -7.35496e-06 -8.79844e-07 0 0 0 0)
(-6.87759e-06 -0.000142933 0 -7.99999e-06 2.74734e-06 0 0 0 0)
(-5.45422e-05 0.000150403 0 -5.13108e-06 -4.33438e-06 0 0 0 0)
(-2.74019e-05 -0.000160271 0 1.11176e-05 9.24533e-06 0 0 0 0)
(-1.00719e-05 0.000187385 0 8.27705e-07 -1.27e-05 0 0 0 0)
(-2.40911e-05 -0.000211071 0 3.52958e-05 2.12377e-05 0 0 0 0)
(0.000131111 0.000272336 0 -2.56396e-05 -3.25103e-05 0 0 0 0)
(-0.000126649 -0.000341112 0 3.18578e-05 4.37168e-05 0 0 0 0)
(0.000258542 0.000447203 0 -5.81979e-05 -6.15335e-05 0 0 0 0)
(-0.000359441 -0.000587246 0 6.41926e-05 8.15725e-05 0 0 0 0)
(0.000515313 0.000773493 0 -7.16333e-05 -9.98593e-05 0 0 0 0)
(-0.000645974 -0.000986684 0 7.77967e-05 0.000112774 0 0 0 0)
(0.0008265 0.00122459 0 -5.74006e-05 -9.81115e-05 0 0 0 0)
(-0.000875577 -0.00137913 0 2.5137e-05 6.42075e-05 0 0 0 0)
(0.000927048 0.00148142 0 2.35099e-05 -3.83974e-05 0 0 0 0)
(-0.000781537 -0.00153272 0 4.15034e-05 2.65963e-05 0 0 0 0)
(0.00109306 0.0015878 0 0.000143425 -2.42685e-05 0 0 0 0)
(-0.000207838 -0.00162979 0 -0.00013198 -1.32422e-06 0 0 0 0)
(0.00056514 0.00158251 0 -0.000220075 -2.67218e-06 0 0 0 0)
(-0.00108814 -0.00164048 0 0.000130749 1.4494e-05 0 0 0 0)
(-7.40297e-11 -3.71867e-11 0 3.67273e-11 3.78473e-11 0 0 0 0)
(-7.29194e-11 -1.14202e-10 0 -1.40946e-12 4.04567e-11 0 0 0 0)
(-6.83897e-11 -1.99013e-10 0 -1.97867e-12 4.467e-11 0 0 0 0)
(-6.50147e-11 -2.92882e-10 0 -2.57498e-12 5.00641e-11 0 0 0 0)
(-5.80869e-11 -3.9927e-10 0 -2.98156e-12 5.61363e-11 0 0 0 0)
(-5.30243e-11 -5.17428e-10 0 -3.52366e-12 6.20271e-11 0 0 0 0)
(-4.39204e-11 -6.47378e-10 0 -3.95734e-12 6.66928e-11 0 0 0 0)
(-3.72147e-11 -7.84199e-10 0 -4.63496e-12 6.89517e-11 0 0 0 0)
(-2.54463e-11 -9.23185e-10 0 -5.20417e-12 6.76098e-11 0 0 0 0)
(-1.63425e-11 -1.05464e-09 0 -5.99022e-12 6.16742e-11 0 0 0 0)
(-1.59872e-12 -1.16988e-09 0 -6.36969e-12 5.06336e-11 0 0 0 0)
(9.23706e-12 -1.25717e-09 0 -6.26127e-12 3.43162e-11 0 0 0 0)
(2.35367e-11 -1.30715e-09 0 -5.47522e-12 1.33098e-11 0 0 0 0)
(3.09974e-11 -1.31041e-09 0 -4.03865e-12 -1.18734e-11 0 0 0 0)
(3.97904e-11 -1.25965e-09 0 -3.52366e-12 -4.04466e-11 0 0 0 0)
(4.49418e-11 -1.14862e-09 0 -4.47233e-12 -7.3092e-11 0 0 0 0)
(5.77316e-11 -9.67285e-10 0 -6.83047e-12 -1.0727e-10 0 0 0 0)
(7.23865e-11 -7.19545e-10 0 -1.32815e-12 -1.33795e-10 0 0 0 0)
(6.29718e-11 -4.32106e-10 0 1.21431e-11 -1.4411e-10 0 0 0 0)
(2.37144e-11 -1.43106e-10 0 2.1684e-11 -1.43803e-10 0 0 0 0)
(-4.10631e-06 2.65191e-05 0 -2.25422e-05 0.000139414 0 0 0 0)
(5.02749e-06 -3.28653e-05 0 6.117e-06 -3.33377e-05 0 0 0 0)
(-1.38585e-06 7.85019e-06 0 -2.43227e-06 7.95297e-06 0 0 0 0)
(5.22881e-07 -1.87509e-06 0 5.73591e-07 -1.93692e-06 0 0 0 0)
(-1.43731e-07 4.52838e-07 0 -3.40744e-07 4.52621e-07 0 0 0 0)
(6.56074e-08 -1.08728e-07 0 -1.33431e-09 -1.25571e-07 0 0 0 0)
(-6.58086e-09 2.76821e-08 0 -7.83144e-08 1.77104e-08 0 0 0 0)