/*--------------------------------*- C++ -*----------------------------------*\
| =========                 |                                                 |
| \\      /  F ield         | OpenFOAM: The Open Source CFD Toolbox           |
|  \\    /   O peration     | Version:  2312                                  |
|   \\  /    A nd           | Website:  www.openfoam.com                      |
|    \\/     M anipulation  |                                                 |
\*---------------------------------------------------------------------------*/
FoamFile
{
    version     2.0;
    format      ascii;
    arch        "LSB;label=32;scalar=64";
    class       volVectorField;
    location    "3";
    object      gradPhi;
}
// * * * * * * * * * * * * * * * * * * * * * * * * * * * * * * * * * * * * * //

dimensions      [0 2 -1 0 0 0 0];

internalField   nonuniform List<vector> 
400
(
(-0.02 5.29096e-12 0)
(7.57405e-13 -7.58355e-13 0)
(8.81531e-13 -8.82721e-13 0)
(7.3783e-13 -7.38802e-13 0)
(6.6058e-13 -6.61225e-13 0)
(6.6617e-13 -6.66546e-13 0)
(5.06198e-13 -5.06369e-13 0)
(4.03212e-13 -4.03245e-13 0)
(2.98114e-13 -2.98043e-13 0)
(2.08597e-13 -2.08454e-13 0)
(1.36576e-13 -1.36376e-13 0)
(8.0708e-14 -8.04678e-14 0)
(3.99677e-14 -3.96931e-14 0)
(1.23763e-14 -1.20786e-14 0)
(-4.60905e-15 4.92473e-15 0)
(-1.36799e-14 1.40028e-14 0)
(-1.7523e-14 1.78411e-14 0)
(-1.58124e-14 1.61171e-14 0)
(-5.91269e-15 6.26183e-15 0)
(-1.59646e-15 1.74745e-15 0)
(-0.02 -1.62981e-11 0)
(-2.63746e-11 2.6374e-11 0)
(9.19938e-12 -9.20012e-12 0)
(-3.43255e-12 3.43192e-12 0)
(2.39931e-12 -2.39975e-12 0)
(1.29485e-13 -1.29722e-13 0)
(7.41564e-13 -7.41653e-13 0)
(3.58484e-13 -3.58447e-13 0)
(3.11913e-13 -3.11799e-13 0)
(1.96498e-13 -1.96314e-13 0)
(1.29214e-13 -1.28986e-13 0)
(7.2648e-14 -7.23786e-14 0)
(3.35968e-14 -3.3299e-14 0)
(7.29739e-15 -6.97913e-15 0)
(-8.50507e-15 8.83971e-15 0)
(-1.67074e-14 1.70449e-14 0)
(-1.93544e-14 1.96927e-14 0)
(-1.66975e-14 1.70329e-14 0)
(-6.38087e-15 6.67955e-15 0)
(-1.86943e-15 2.06702e-15 0)
(-0.02 2.33096e-11 0)
(2.75358e-11 -2.75355e-11 0)
(-1.45399e-11 1.45398e-11 0)
(8.88603e-12 -8.88618e-12 0)
(-1.61791e-12 1.61781e-12 0)
(1.83572e-12 -1.83573e-12 0)
(2.15851e-13 -2.15776e-13 0)
(4.98572e-13 -4.98428e-13 0)
(2.29108e-13 -2.28908e-13 0)
(1.81474e-13 -1.81232e-13 0)
(1.00335e-13 -1.00058e-13 0)
(5.49364e-14 -5.46328e-14 0)
(1.90764e-14 -1.87516e-14 0)
(-2.95469e-15 3.29588e-15 0)
(-1.58256e-14 1.61767e-14 0)
(-2.13727e-14 2.17266e-14 0)
(-2.26184e-14 2.29591e-14 0)
(-1.93262e-14 1.96449e-14 0)
(-7.80858e-15 8.20243e-15 0)
(-1.88928e-15 2.03143e-15 0)
(-0.02 1.49512e-10 0)
(1.37117e-10 -1.37117e-10 0)
(9.90407e-13 -9.90086e-13 0)
(8.11982e-12 -8.11961e-12 0)
(1.38566e-12 -1.38548e-12 0)
(8.17453e-13 -8.1725e-13 0)
(5.04691e-13 -5.04462e-13 0)
(3.0244e-13 -3.0218e-13 0)
(1.97071e-13 -1.96784e-13 0)
(1.20007e-13 -1.19695e-13 0)
(6.45763e-14 -6.4249e-14 0)
(2.57253e-14 -2.53819e-14 0)
(-1.34169e-15 1.69628e-15 0)
(-1.76289e-14 1.79916e-14 0)
(-2.60628e-14 2.64296e-14 0)
(-2.87329e-14 2.90946e-14 0)
(-2.71448e-14 2.74983e-14 0)
(-2.1285e-14 2.16519e-14 0)
(-9.19825e-15 9.47896e-15 0)
(-2.42695e-15 2.64777e-15 0)
(-0.02 -2.25875e-10 0)
(-2.06498e-10 2.06499e-10 0)
(-1.29404e-11 1.2941e-11 0)
(-6.46585e-12 6.46632e-12 0)
(-1.26938e-12 1.2698e-12 0)
(1.05371e-12 -1.05331e-12 0)
(6.53588e-14 -6.49773e-14 0)
(2.52829e-13 -2.52452e-13 0)
(7.19333e-14 -7.15557e-14 0)
(5.8566e-14 -5.81874e-14 0)
(1.20983e-14 -1.17152e-14 0)
(-9.45467e-15 9.8368e-15 0)
(-2.70538e-14 2.74388e-14 0)
(-3.56217e-14 3.60056e-14 0)
(-3.84407e-14 3.8822e-14 0)
(-3.6439e-14 3.68156e-14 0)
(-3.22584e-14 3.2612e-14 0)
(-2.52191e-14 2.55308e-14 0)
(-1.13092e-14 1.17476e-14 0)
(-2.48981e-15 2.62135e-15 0)
(-0.02 5.0141e-10 0)
(4.78391e-10 -4.7839e-10 0)
(1.70968e-12 -1.70894e-12 0)
(2.2531e-11 -2.25303e-11 0)
(-3.13427e-13 3.13999e-13 0)
(-3.28485e-13 3.29009e-13 0)
(-8.31234e-14 8.36126e-14 0)
(-8.31184e-14 8.35837e-14 0)
(-1.68083e-15 2.12733e-15 0)
(-3.61015e-14 3.65323e-14 0)
(-3.91587e-14 3.95792e-14 0)
(-5.10437e-14 5.14539e-14 0)
(-5.46766e-14 5.50826e-14 0)
(-5.50571e-14 5.54549e-14 0)
(-5.14275e-14 5.18175e-14 0)
(-4.55148e-14 4.58863e-14 0)
(-3.75937e-14 3.79541e-14 0)
(-2.72539e-14 2.76392e-14 0)
(-1.28312e-14 1.30825e-14 0)
(-3.11847e-15 3.3534e-15 0)
(-0.02 -9.29017e-10 0)
(-9.08453e-10 9.08453e-10 0)
(2.86806e-11 -2.86799e-11 0)
(-5.14809e-11 5.14817e-11 0)
(4.81065e-12 -4.81e-12 0)
(-2.11592e-12 2.11652e-12 0)
(5.43061e-13 -5.425e-13 0)
(-2.5051e-13 2.51032e-13 0)
(-8.21589e-14 8.26498e-14 0)
(-1.19427e-13 1.19893e-13 0)
(-9.5857e-14 9.63001e-14 0)
(-9.14713e-14 9.18999e-14 0)
(-8.26734e-14 8.3085e-14 0)
(-7.42097e-14 7.46112e-14 0)
(-6.40105e-14 6.43979e-14 0)
(-5.27361e-14 5.31121e-14 0)
(-4.19778e-14 4.23178e-14 0)
(-3.07248e-14 3.10088e-14 0)
(-1.47602e-14 1.52221e-14 0)
(-3.08869e-15 3.19543e-15 0)
(-0.02 1.30161e-09 0)
(1.2726e-09 -1.2726e-09 0)
(-2.98095e-11 2.98103e-11 0)
(6.60234e-11 -6.60227e-11 0)
(-6.17071e-12 6.17139e-12 0)
(1.51781e-12 -1.51718e-12 0)
(-1.19849e-12 1.19907e-12 0)
(-2.25886e-13 2.26423e-13 0)
(-2.53455e-13 2.53953e-13 0)
(-1.72957e-13 1.73423e-13 0)
(-1.50817e-13 1.51258e-13 0)
(-1.27313e-13 1.27733e-13 0)
(-1.08144e-13 1.08546e-13 0)
(-9.05796e-14 9.09677e-14 0)
(-7.42891e-14 7.46604e-14 0)
(-5.94263e-14 5.97706e-14 0)
(-4.53047e-14 4.56351e-14 0)
(-3.10457e-14 3.14232e-14 0)
(-1.5465e-14 1.56539e-14 0)
(-3.57342e-15 3.79982e-15 0)
(-0.02 -1.94277e-09 0)
(-1.90368e-09 1.90368e-09 0)
(6.04618e-11 -6.04611e-11 0)
(-1.05501e-10 1.05502e-10 0)
(1.04752e-11 -1.04746e-11 0)
(-3.81905e-12 3.81964e-12 0)
(1.08206e-12 -1.08151e-12 0)
(-5.00003e-13 5.00511e-13 0)
(-2.08761e-13 2.09231e-13 0)
(-2.58021e-13 2.58459e-13 0)
(-1.91603e-13 1.92016e-13 0)
(-1.59649e-13 1.6004e-13 0)
(-1.28233e-13 1.28604e-13 0)
(-1.03285e-13 1.0364e-13 0)
(-8.13846e-14 8.17224e-14 0)
(-6.20385e-14 6.23639e-14 0)
(-4.60541e-14 4.63424e-14 0)
(-3.21575e-14 3.23686e-14 0)
(-1.62227e-14 1.66611e-14 0)
(-3.23428e-15 3.29689e-15 0)
(-0.02 2.74262e-09 0)
(2.71207e-09 -2.71207e-09 0)
(-1.07144e-10 1.07145e-10 0)
(1.56322e-10 -1.56322e-10 0)
(-1.94384e-11 1.94389e-11 0)
(5.40214e-12 -5.40163e-12 0)
(-2.7194e-12 2.71987e-12 0)
(-1.70287e-13 1.70724e-13 0)
(-5.33012e-13 5.33417e-13 0)
(-2.54937e-13 2.55315e-13 0)
(-2.3812e-13 2.38475e-13 0)
(-1.78731e-13 1.79066e-13 0)
(-1.4272e-13 1.43039e-13 0)
(-1.09692e-13 1.09999e-13 0)
(-8.36098e-14 8.39013e-14 0)
(-6.23446e-14 6.26078e-14 0)
(-4.46049e-14 4.48597e-14 0)
(-2.91068e-14 2.94257e-14 0)
(-1.52102e-14 1.52989e-14 0)
(-3.31369e-15 3.50114e-15 0)
(-0.02 -3.57363e-09 0)
(-3.52433e-09 3.52433e-09 0)
(1.40357e-10 -1.40357e-10 0)
(-2.06011e-10 2.06011e-10 0)
(2.509e-11 -2.50896e-11 0)
(-8.74842e-12 8.7488e-12 0)
(2.32214e-12 -2.32179e-12 0)
(-8.39509e-13 8.39834e-13 0)
(-1.80506e-13 1.8081e-13 0)
(-3.71278e-13 3.71563e-13 0)
(-2.43011e-13 2.43282e-13 0)
(-1.9923e-13 1.99488e-13 0)
(-1.46732e-13 1.46979e-13 0)
(-1.1018e-13 1.10419e-13 0)
(-8.03308e-14 8.05567e-14 0)
(-5.68521e-14 5.70722e-14 0)
(-3.9263e-14 3.94489e-14 0)
(-2.62365e-14 2.63395e-14 0)
(-1.39463e-14 1.42978e-14 0)
(-2.49643e-15 2.50227e-15 0)
(-0.02 4.43794e-09 0)
(4.3876e-09 -4.3876e-09 0)
(-1.77689e-10 1.77689e-10 0)
(2.61807e-10 -2.61806e-10 0)
(-3.65544e-11 3.65547e-11 0)
(9.88028e-12 -9.88006e-12 0)
(-4.99825e-12 4.99845e-12 0)
(-1.05722e-13 1.05908e-13 0)
(-8.00476e-13 8.00656e-13 0)
(-2.91945e-13 2.92117e-13 0)
(-2.88585e-13 2.88753e-13 0)
(-1.91858e-13 1.92021e-13 0)
(-1.44652e-13 1.44816e-13 0)
(-1.00979e-13 1.01137e-13 0)
(-7.03302e-14 7.04828e-14 0)
(-4.76208e-14 4.77552e-14 0)
(-3.09581e-14 3.10945e-14 0)
(-1.86231e-14 1.88389e-14 0)
(-1.04853e-14 1.04535e-14 0)
(-2.01336e-15 2.13604e-15 0)
(-0.02 -5.09082e-09 0)
(-4.96251e-09 4.96251e-09 0)
(1.64585e-10 -1.64585e-10 0)
(-3.18059e-10 3.18059e-10 0)
(3.88171e-11 -3.8817e-11 0)
(-1.50412e-11 1.50413e-11 0)
(3.94617e-12 -3.94615e-12 0)
(-1.2697e-12 1.26972e-12 0)
(-5.99855e-14 6.00178e-14 0)
(-4.51839e-13 4.51883e-13 0)
(-2.43006e-13 2.43056e-13 0)
(-1.96072e-13 1.96134e-13 0)
(-1.25705e-13 1.25773e-13 0)
(-8.4164e-14 8.42343e-14 0)
(-5.28006e-14 5.28707e-14 0)
(-3.1552e-14 3.16329e-14 0)
(-1.79018e-14 1.79638e-14 0)
(-1.05432e-14 1.05222e-14 0)
(-6.47186e-15 6.6986e-15 0)
(-7.2461e-16 6.8033e-16 0)
(-0.02 5.08705e-09 0)
(4.90173e-09 -4.90173e-09 0)
(-1.19086e-10 1.19086e-10 0)
(3.40767e-10 -3.40767e-10 0)
(-4.37318e-11 4.37316e-11 0)
(1.58965e-11 -1.58967e-11 0)
(-6.77775e-12 6.7776e-12 0)
(2.37586e-13 -2.37715e-13 0)
(-1.10681e-12 1.10669e-12 0)
(-2.58092e-13 2.58008e-13 0)
(-2.88509e-13 2.88443e-13 0)
(-1.48792e-13 1.4875e-13 0)
(-9.95032e-14 9.94746e-14 0)
(-5.32473e-14 5.32345e-14 0)
(-2.70769e-14 2.70736e-14 0)
(-1.07318e-14 1.07274e-14 0)
(-1.74701e-15 1.75414e-15 0)
(2.09938e-15 -1.99641e-15 0)
(-1.68745e-16 4.27961e-17 0)
(3.09366e-16 -2.65763e-16 0)
(-0.02 -4.42171e-09 0)
(-4.19299e-09 4.19299e-09 0)
(4.43393e-11 -4.43397e-11 0)
(-2.90459e-10 2.90458e-10 0)
(3.19019e-11 -3.19022e-11 0)
(-1.5994e-11 1.59936e-11 0)
(3.97796e-12 -3.97828e-12 0)
(-1.7324e-12 1.73211e-12 0)
(-7.71263e-15 7.47053e-15 0)
(-4.6311e-13 4.62895e-13 0)
(-1.69168e-13 1.69001e-13 0)
(-1.19638e-13 1.19491e-13 0)
(-4.52732e-14 4.51623e-14 0)
(-1.28627e-14 1.27653e-14 0)
(7.65969e-15 -7.7346e-15 0)
(1.66048e-14 -1.66589e-14 0)
(1.89044e-14 -1.89449e-14 0)
(1.53392e-14 -1.54488e-14 0)
(6.67038e-15 -6.59094e-15 0)
(1.972e-15 -2.04851e-15 0)
(-0.02 4.19986e-09 0)
(4.07038e-09 -4.07038e-09 0)
(-1.16158e-10 1.16157e-10 0)
(2.88982e-10 -2.88983e-10 0)
(-4.78296e-11 4.7829e-11 0)
(1.30748e-11 -1.30753e-11 0)
(-7.77585e-12 7.77539e-12 0)
(3.43968e-13 -3.44374e-13 0)
(-1.14512e-12 1.14477e-12 0)
(-1.05927e-13 1.05617e-13 0)
(-1.50666e-13 1.50404e-13 0)
(-8.16262e-15 7.93701e-15 0)
(1.93924e-14 -1.95804e-14 0)
(4.47058e-14 -4.48662e-14 0)
(4.97483e-14 -4.98809e-14 0)
(4.77349e-14 -4.78482e-14 0)
(4.11092e-14 -4.11893e-14 0)
(3.1375e-14 -3.13762e-14 0)
(1.49769e-14 -1.51512e-14 0)
(3.55853e-15 -3.60212e-15 0)
(-0.02 -3.94286e-09 0)
(-3.80541e-09 3.80541e-09 0)
(1.48894e-10 -1.48895e-10 0)
(-3.11926e-10 3.11925e-10 0)
(4.33668e-11 -4.33674e-11 0)
(-2.18601e-11 2.18595e-11 0)
(5.61896e-12 -5.61953e-12 0)
(-2.47667e-12 2.47618e-12 0)
(4.25953e-13 -4.26417e-13 0)
(-2.44111e-13 2.43724e-13 0)
(1.19395e-13 -1.19755e-13 0)
(8.58316e-14 -8.61264e-14 0)
(1.19764e-13 -1.20038e-13 0)
(1.08058e-13 -1.08285e-13 0)
(9.76751e-14 -9.788e-14 0)
(8.14607e-14 -8.16199e-14 0)
(6.5066e-14 -6.51934e-14 0)
(4.63751e-14 -4.65513e-14 0)
(2.22925e-14 -2.23951e-14 0)
(5.29065e-15 -5.42135e-15 0)
(-0.02 1.91286e-09 0)
(1.75826e-09 -1.75826e-09 0)
(9.38843e-11 -9.38851e-11 0)
(7.01683e-11 -7.0169e-11 0)
(-5.42735e-12 5.42668e-12 0)
(-3.47019e-12 3.46954e-12 0)
(-2.15547e-12 2.15488e-12 0)
(-3.78399e-13 3.77842e-13 0)
(2.47956e-13 -2.48449e-13 0)
(3.31918e-13 -3.32376e-13 0)
(3.15234e-13 -3.15634e-13 0)
(2.57627e-13 -2.57994e-13 0)
(2.17337e-13 -2.17658e-13 0)
(1.77412e-13 -1.77706e-13 0)
(1.4392e-13 -1.44174e-13 0)
(1.13016e-13 -1.13237e-13 0)
(8.582e-14 -8.60031e-14 0)
(5.94164e-14 -5.95643e-14 0)
(2.83921e-14 -2.86688e-14 0)
(6.77461e-15 -6.9221e-15 0)
(-0.02 -2.54682e-09 0)
(-2.61968e-09 2.61968e-09 0)
(2.29666e-10 -2.29667e-10 0)
(-2.10775e-10 2.10774e-10 0)
(5.12583e-11 -5.12589e-11 0)
(-1.11212e-11 1.11205e-11 0)
(8.88465e-12 -8.88521e-12 0)
(5.33103e-13 -5.33635e-13 0)
(1.72092e-12 -1.7214e-12 0)
(6.29096e-13 -6.29548e-13 0)
(5.94554e-13 -5.94957e-13 0)
(3.90856e-13 -3.91234e-13 0)
(3.10161e-13 -3.10495e-13 0)
(2.34332e-13 -2.34644e-13 0)
(1.81808e-13 -1.82085e-13 0)
(1.3807e-13 -1.38308e-13 0)
(1.03121e-13 -1.03317e-13 0)
(7.13294e-14 -7.15802e-14 0)
(3.49997e-14 -3.52849e-14 0)
(7.63488e-15 -7.77702e-15 0)
(-0.02 2.32833e-09 0)
(2.40349e-09 -2.40349e-09 0)
(-3.46283e-10 3.46283e-10 0)
(2.79765e-10 -2.79765e-10 0)
(-4.78127e-11 4.78124e-11 0)
(3.22247e-11 -3.2225e-11 0)
(-2.69961e-12 2.69934e-12 0)
(5.10315e-12 -5.10339e-12 0)
(8.78204e-13 -8.78436e-13 0)
(1.30342e-12 -1.30362e-12 0)
(6.28644e-13 -6.28839e-13 0)
(5.15463e-13 -5.15636e-13 0)
(3.50017e-13 -3.50182e-13 0)
(2.69049e-13 -2.69197e-13 0)
(2.0079e-13 -2.00921e-13 0)
(1.51837e-13 -1.51942e-13 0)
(1.13218e-13 -1.13326e-13 0)
(8.08883e-14 -8.10266e-14 0)
(4.15493e-14 -4.16906e-14 0)
(7.54389e-15 -7.54346e-15 0)
)
;

boundaryField
{
    movingWall
    {
        type            extrapolatedCalculated;
        value           nonuniform List<vector> 
20
(
(-0.02 2.32833e-09 0)
(2.40349e-09 -2.40349e-09 0)
(-3.46283e-10 3.46283e-10 0)
(2.79765e-10 -2.79765e-10 0)
(-4.78127e-11 4.78124e-11 0)
(3.22247e-11 -3.2225e-11 0)
(-2.69961e-12 2.69934e-12 0)
(5.10315e-12 -5.10339e-12 0)
(8.78204e-13 -8.78436e-13 0)
(1.30342e-12 -1.30362e-12 0)
(6.28644e-13 -6.28839e-13 0)
(5.15463e-13 -5.15636e-13 0)
(3.50017e-13 -3.50182e-13 0)
(2.69049e-13 -2.69197e-13 0)
(2.0079e-13 -2.00921e-13 0)
(1.51837e-13 -1.51942e-13 0)
(1.13218e-13 -1.13326e-13 0)
(8.08883e-14 -8.10266e-14 0)
(4.15493e-14 -4.16906e-14 0)
(7.54389e-15 -7.54346e-15 0)
)
;
    }
    fixedWalls
    {
        type            extrapolatedCalculated;
        value           nonuniform List<vector> 
60
(
(-0.02 5.29096e-12 0)
(-0.02 -1.62981e-11 0)
(-0.02 2.33096e-11 0)
(-0.02 1.49512e-10 0)
(-0.02 -2.25875e-10 0)
(-0.02 5.0141e-10 0)
(-0.02 -9.29017e-10 0)
(-0.02 1.30161e-09 0)
(-0.02 -1.94277e-09 0)
(-0.02 2.74262e-09 0)
(-0.02 -3.57363e-09 0)
(-0.02 4.43794e-09 0)
(-0.02 -5.09082e-09 0)
(-0.02 5.08705e-09 0)
(-0.02 -4.42171e-09 0)
(-0.02 4.19986e-09 0)
(-0.02 -3.94286e-09 0)
(-0.02 1.91286e-09 0)
(-0.02 -2.54682e-09 0)
(-0.02 2.32833e-09 0)
(-1.59646e-15 1.74745e-15 0)
(-1.86943e-15 2.06702e-15 0)
(-1.88928e-15 2.03143e-15 0)
(-2.42695e-15 2.64777e-15 0)
(-2.48981e-15 2.62135e-15 0)
(-3.11847e-15 3.3534e-15 0)
(-3.08869e-15 3.19543e-15 0)
(-3.57342e-15 3.79982e-15 0)
(-3.23428e-15 3.29689e-15 0)
(-3.31369e-15 3.50114e-15 0)
(-2.49643e-15 2.50227e-15 0)
(-2.01336e-15 2.13604e-15 0)
(-7.2461e-16 6.8033e-16 0)
(3.09366e-16 -2.65763e-16 0)
(1.972e-15 -2.04851e-15 0)
(3.55853e-15 -3.60212e-15 0)
(5.29065e-15 -5.42135e-15 0)
(6.77461e-15 -6.9221e-15 0)
(7.63488e-15 -7.77702e-15 0)
(7.54389e-15 -7.54346e-15 0)
(-0.02 5.29096e-12 0)
(7.57405e-13 -7.58355e-13 0)
(8.81531e-13 -8.82721e-13 0)
(7.3783e-13 -7.38802e-13 0)
(6.6058e-13 -6.61225e-13 0)
(6.6617e-13 -6.66546e-13 0)
(5.06198e-13 -5.06369e-13 0)
(4.03212e-13 -4.03245e-13 0)
(2.98114e-13 -2.98043e-13 0)
(2.08597e-13 -2.08454e-13 0)
(1.36576e-13 -1.36376e-13 0)
(8.0708e-14 -8.04678e-14 0)
(3.99677e-14 -3.96931e-14 0)
(1.23763e-14 -1.20786e-14 0)
(-4.60905e-15 4.92473e-15 0)
(-1.36799e-14 1.40028e-14 0)
(-1.7523e-14 1.78411e-14 0)
(-1.58124e-14 1.61171e-14 0)
(-5.91269e-15 6.26183e-15 0)
(-1.59646e-15 1.74745e-15 0)
)
;
    }
    frontAndBack
    {
        type            empty;
    }
}


// ************************************************************************* //
