/*--------------------------------*- C++ -*----------------------------------*\
| =========                 |                                                 |
| \\      /  F ield         | OpenFOAM: The Open Source CFD Toolbox           |
|  \\    /   O peration     | Version:  2312                                  |
|   \\  /    A nd           | Website:  www.openfoam.com                      |
|    \\/     M anipulation  |                                                 |
\*---------------------------------------------------------------------------*/
FoamFile
{
    version     2.0;
    format      ascii;
    arch        "LSB;label=32;scalar=64";
    class       volScalarField;
    location    "3";
    object      initialResidual:p;
}
// * * * * * * * * * * * * * * * * * * * * * * * * * * * * * * * * * * * * * //

dimensions      [0 0 0 0 0 0 0];

internalField   nonuniform List<scalar> 
400
(
2.17014e-14
-5.38273e-14
1.54275e-14
-4.28868e-15
1.56962e-15
-5.16186e-16
2.73157e-17
-2.0033e-16
-1.40812e-16
-1.54148e-16
-1.35897e-16
-1.24159e-16
-1.08964e-16
-9.26652e-17
-8.07751e-17
-6.96817e-17
-5.60213e-17
-3.77149e-17
-4.74589e-17
4.63298e-17
-3.27039e-15
2.09269e-14
7.24435e-15
-4.61205e-17
5.7889e-16
-3.68601e-16
-4.90914e-17
-1.86992e-16
-1.4047e-16
-1.4963e-16
-1.32891e-16
-1.21627e-16
-1.06484e-16
-9.07055e-17
-7.9656e-17
-6.68295e-17
-5.30423e-17
-3.69123e-17
-4.76152e-17
4.76985e-17
8.25234e-14
-1.60354e-13
3.5269e-14
-1.07e-14
3.53702e-15
-9.78899e-16
1.72198e-16
-2.30635e-16
-1.20286e-16
-1.47535e-16
-1.27387e-16
-1.18568e-16
-1.04577e-16
-8.90762e-17
-7.78166e-17
-6.70386e-17
-5.34271e-17
-3.54004e-17
-4.36623e-17
4.33865e-17
9.50188e-15
3.95865e-14
2.16091e-15
-9.32676e-16
-2.12047e-16
-3.23789e-16
-6.17767e-17
-1.52524e-16
-1.21617e-16
-1.31839e-16
-1.20027e-16
-1.12032e-16
-9.96264e-17
-8.60321e-17
-7.62515e-17
-6.36401e-17
-4.97946e-17
-3.54215e-17
-4.51817e-17
4.30671e-17
9.09097e-14
-1.66151e-13
3.21181e-14
-9.83322e-15
3.10507e-15
-6.93749e-16
1.42149e-16
-1.70665e-16
-9.61064e-17
-1.18787e-16
-1.07711e-16
-1.02846e-16
-9.3303e-17
-8.08397e-17
-7.1205e-17
-6.15356e-17
-4.89336e-17
-3.30662e-17
-3.8142e-17
3.63238e-17
-1.33313e-13
1.8024e-13
-3.40609e-14
1.22837e-14
-3.45062e-15
7.73508e-16
-3.40884e-16
-2.28264e-19
-1.10745e-16
-8.68831e-17
-9.62902e-17
-9.06456e-17
-8.44705e-17
-7.48025e-17
-6.76601e-17
-5.58562e-17
-4.2959e-17
-3.20573e-17
-3.9439e-17
3.46404e-17
3.24598e-14
-4.77098e-14
-1.77381e-15
-4.14007e-16
1.6017e-16
2.05413e-16
-1.18027e-17
-1.70102e-17
-6.46048e-17
-6.82171e-17
-7.77098e-17
-7.75119e-17
-7.50198e-17
-6.71152e-17
-6.01511e-17
-5.2125e-17
-4.11868e-17
-2.90992e-17
-3.00177e-17
2.56623e-17
-1.76968e-13
1.65864e-13
-3.9543e-14
1.18793e-14
-3.88791e-15
1.24833e-15
-3.65788e-16
1.14717e-16
-5.41126e-17
-3.47874e-17
-6.0582e-17
-6.24336e-17
-6.32025e-17
-5.88696e-17
-5.50683e-17
-4.46169e-17
-3.34092e-17
-2.72063e-17
-3.08688e-17
2.25345e-17
1.45241e-13
-5.33648e-14
1.00663e-14
-2.70726e-15
1.41507e-15
3.26297e-16
3.40501e-16
5.78614e-17
1.93419e-17
-1.96571e-17
-3.79385e-17
-4.76561e-17
-5.16921e-17
-4.95497e-17
-4.56115e-17
-3.94563e-17
-3.08546e-17
-2.37178e-17
-2.0004e-17
1.20305e-17
-2.23294e-13
2.54598e-14
-2.10146e-14
5.15833e-15
-9.21091e-16
1.06205e-15
2.04301e-16
1.46311e-16
1.98691e-18
1.61853e-17
-2.01516e-17
-3.21272e-17
-3.8913e-17
-4.0316e-17
-3.97082e-17
-3.08465e-17
-2.18302e-17
-2.118e-17
-2.0261e-17
7.61475e-18
1.88637e-13
1.10949e-13
-8.59769e-15
4.77757e-15
-1.70984e-15
9.03639e-16
1.86688e-16
1.30696e-16
1.81358e-16
3.26766e-17
-2.32311e-18
-1.92481e-17
-2.83157e-17
-3.10285e-17
-2.96695e-17
-2.51789e-17
-1.90666e-17
-1.75693e-17
-8.94196e-18
-3.47621e-18
-2.48811e-13
-2.17018e-13
1.9043e-14
-5.7474e-15
2.97764e-15
-3.96423e-16
1.1354e-16
3.19266e-16
6.19897e-17
3.76893e-17
1.04486e-17
-7.45915e-18
-1.73509e-17
-2.27694e-17
-2.43482e-17
-1.68545e-17
-1.0109e-17
-1.49315e-17
-8.68073e-18
-8.79818e-18
3.30848e-13
4.57984e-13
-6.40412e-14
1.96822e-14
-8.81603e-15
1.51418e-15
-9.6444e-16
2.75133e-16
-1.15579e-17
5.3767e-17
1.13996e-17
3.60214e-18
-9.15482e-18
-1.51378e-17
-1.53773e-17
-1.16765e-17
-8.00843e-18
-1.1754e-17
2.02229e-18
-1.94716e-17
-1.20177e-13
-7.76504e-13
9.06137e-14
-3.30907e-14
1.12493e-14
-1.24028e-15
1.42702e-15
-1.38585e-16
8.9595e-17
4.33534e-17
3.0685e-17
9.75139e-18
-2.5115e-19
-8.30045e-18
-1.11523e-17
-4.74622e-18
-1.51833e-19
-8.95235e-18
3.13747e-18
-2.52926e-17
-5.26254e-13
1.30303e-12
-2.16417e-13
7.36194e-14
-2.47756e-14
4.95675e-15
-2.09733e-15
5.00146e-16
-9.08075e-17
9.37118e-17
2.31449e-17
2.23545e-17
6.01198e-18
-1.40837e-18
-3.35214e-18
2.39714e-19
1.7544e-18
-6.26349e-18
1.24443e-17
-3.45093e-17
6.54823e-13
-1.21009e-12
1.51153e-13
-6.02846e-14
1.73043e-14
-3.81515e-15
1.15195e-15
-1.95162e-16
1.3018e-16
4.38392e-17
4.32002e-17
2.56741e-17
1.54482e-17
4.87577e-18
8.89995e-19
6.05791e-18
8.34773e-18
-3.28327e-18
1.46106e-17
-4.0021e-17
-1.195e-12
1.92809e-12
-3.97286e-13
1.20068e-13
-4.2407e-14
9.77367e-15
-3.52406e-15
9.68505e-16
-2.11407e-16
1.38299e-16
2.01404e-17
3.88541e-17
1.88802e-17
1.09521e-17
7.44455e-18
1.09214e-17
1.07988e-17
-3.41152e-19
2.20196e-17
-4.6495e-17
1.19036e-13
-3.5202e-13
-1.23582e-14
-1.45599e-15
5.77505e-15
1.21528e-15
2.0394e-16
5.22618e-17
7.52134e-18
5.03224e-17
4.30377e-17
3.94488e-17
2.98287e-17
1.94902e-17
1.51887e-17
1.89661e-17
2.05595e-17
6.27395e-18
2.46411e-17
-5.12717e-17
-9.88321e-13
1.13675e-12
-1.9348e-13
5.9427e-14
-2.20525e-14
3.58078e-15
-1.71205e-15
3.21094e-16
-6.25669e-17
6.4862e-17
3.37059e-17
3.80364e-17
3.01507e-17
2.02314e-17
1.81551e-17
2.4505e-17
2.28963e-17
5.63485e-18
2.64194e-17
-5.50067e-17
1.81351e-12
-2.16464e-12
5.74894e-13
-1.57988e-13
5.41483e-14
-1.48031e-14
4.89078e-15
-1.46123e-15
4.3345e-16
-1.26748e-16
5.76424e-17
5.86724e-18
2.10639e-17
8.2383e-18
1.19393e-17
1.96908e-17
1.40099e-17
1.97478e-18
3.20089e-17
-5.41295e-17
)
;

boundaryField
{
    movingWall
    {
        type            zeroGradient;
    }
    fixedWalls
    {
        type            zeroGradient;
    }
    frontAndBack
    {
        type            empty;
    }
}


// ************************************************************************* //
