/*--------------------------------*- C++ -*----------------------------------*\
| =========                 |                                                 |
| \\      /  F ield         | OpenFOAM: The Open Source CFD Toolbox           |
|  \\    /   O peration     | Version:  2312                                  |
|   \\  /    A nd           | Website:  www.openfoam.com                      |
|    \\/     M anipulation  |                                                 |
\*---------------------------------------------------------------------------*/
FoamFile
{
    version     2.0;
    format      ascii;
    arch        "LSB;label=32;scalar=64";
    class       volScalarField;
    location    "3";
    object      initialResidual:k;
}
// * * * * * * * * * * * * * * * * * * * * * * * * * * * * * * * * * * * * * //

dimensions      [0 0 0 0 0 0 0];

internalField   nonuniform List<scalar> 
400
(
-1.31473e-11
-1.31532e-11
-1.31441e-11
-1.31329e-11
-1.31409e-11
-1.31345e-11
-1.31371e-11
-1.3134e-11
-1.31374e-11
-1.31285e-11
-1.31338e-11
-1.31287e-11
-1.3142e-11
-1.31225e-11
-1.31273e-11
-1.31306e-11
-1.31304e-11
-1.3131e-11
-1.31295e-11
-1.31287e-11
-3.7947e-11
-3.81487e-11
-3.77651e-11
-3.79757e-11
-3.77473e-11
-3.79833e-11
-3.76367e-11
-3.78732e-11
-3.76255e-11
-3.77675e-11
-3.76275e-11
-3.77445e-11
-3.75846e-11
-3.77467e-11
-3.75398e-11
-3.77096e-11
-3.75451e-11
-3.76207e-11
-3.75964e-11
-3.76093e-11
-9.30258e-11
-9.31157e-11
-9.27144e-11
-9.3006e-11
-9.22587e-11
-9.2736e-11
-9.1956e-11
-9.26939e-11
-9.15779e-11
-9.25808e-11
-9.13286e-11
-9.23676e-11
-9.12367e-11
-9.21317e-11
-9.1248e-11
-9.18779e-11
-9.13501e-11
-9.15895e-11
-9.15098e-11
-9.15475e-11
-1.46895e-10
-1.4646e-10
-1.4669e-10
-1.46216e-10
-1.45779e-10
-1.45393e-10
-1.45431e-10
-1.4478e-10
-1.44998e-10
-1.44405e-10
-1.44564e-10
-1.44121e-10
-1.44232e-10
-1.44111e-10
-1.43797e-10
-1.44022e-10
-1.4356e-10
-1.43708e-10
-1.43617e-10
-1.43639e-10
-1.83721e-10
-1.83894e-10
-1.82929e-10
-1.83437e-10
-1.81537e-10
-1.82241e-10
-1.80849e-10
-1.81378e-10
-1.80245e-10
-1.8149e-10
-1.79128e-10
-1.80929e-10
-1.78666e-10
-1.80248e-10
-1.78587e-10
-1.79734e-10
-1.78634e-10
-1.79086e-10
-1.7891e-10
-1.78976e-10
-2.05227e-10
-2.04573e-10
-2.04729e-10
-2.04339e-10
-2.02884e-10
-2.03132e-10
-2.01962e-10
-2.01764e-10
-2.01501e-10
-2.00729e-10
-2.01013e-10
-2.00245e-10
-2.00346e-10
-2.00213e-10
-1.99567e-10
-2.00028e-10
-1.99179e-10
-1.99454e-10
-1.99295e-10
-1.99334e-10
-2.17795e-10
-2.173e-10
-2.17142e-10
-2.16885e-10
-2.15129e-10
-2.15222e-10
-2.14325e-10
-2.13945e-10
-2.13598e-10
-2.13132e-10
-2.12768e-10
-2.12859e-10
-2.11829e-10
-2.12569e-10
-2.11175e-10
-2.12049e-10
-2.10999e-10
-2.11371e-10
-2.1119e-10
-2.11241e-10
-2.25921e-10
-2.25436e-10
-2.2518e-10
-2.255e-10
-2.22635e-10
-2.23344e-10
-2.21917e-10
-2.22517e-10
-2.20733e-10
-2.22176e-10
-2.19433e-10
-2.21657e-10
-2.1859e-10
-2.20836e-10
-2.18337e-10
-2.19931e-10
-2.18501e-10
-2.19085e-10
-2.18843e-10
-2.18928e-10
-2.3208e-10
-2.31369e-10
-2.31748e-10
-2.29978e-10
-2.29947e-10
-2.2927e-10
-2.28228e-10
-2.28388e-10
-2.26918e-10
-2.27271e-10
-2.26127e-10
-2.26473e-10
-2.25519e-10
-2.25451e-10
-2.25338e-10
-2.24915e-10
-2.25101e-10
-2.24851e-10
-2.2483e-10
-2.24755e-10
-2.37521e-10
-2.36833e-10
-2.36787e-10
-2.37007e-10
-2.3397e-10
-2.34938e-10
-2.32984e-10
-2.342e-10
-2.31554e-10
-2.33498e-10
-2.30381e-10
-2.32611e-10
-2.29714e-10
-2.31766e-10
-2.29423e-10
-2.30811e-10
-2.29562e-10
-2.30056e-10
-2.2981e-10
-2.29885e-10
-2.42957e-10
-2.41487e-10
-2.42761e-10
-2.40986e-10
-2.40527e-10
-2.39568e-10
-2.39005e-10
-2.38484e-10
-2.37602e-10
-2.37743e-10
-2.36361e-10
-2.372e-10
-2.35442e-10
-2.36251e-10
-2.35136e-10
-2.35471e-10
-2.35054e-10
-2.35083e-10
-2.34998e-10
-2.34968e-10
-2.48635e-10
-2.48246e-10
-2.47998e-10
-2.46215e-10
-2.46306e-10
-2.4488e-10
-2.44813e-10
-2.44133e-10
-2.43167e-10
-2.43255e-10
-2.42031e-10
-2.41959e-10
-2.41561e-10
-2.41043e-10
-2.41219e-10
-2.40543e-10
-2.40835e-10
-2.40506e-10
-2.40494e-10
-2.40404e-10
-2.5511e-10
-2.54383e-10
-2.5423e-10
-2.54449e-10
-2.51094e-10
-2.5242e-10
-2.49775e-10
-2.51601e-10
-2.48172e-10
-2.50224e-10
-2.47332e-10
-2.48904e-10
-2.46891e-10
-2.47991e-10
-2.46527e-10
-2.47381e-10
-2.46294e-10
-2.46687e-10
-2.46406e-10
-2.46481e-10
-2.62573e-10
-2.60826e-10
-2.62656e-10
-2.60002e-10
-2.5993e-10
-2.58376e-10
-2.58272e-10
-2.5742e-10
-2.56537e-10
-2.56961e-10
-2.54935e-10
-2.55663e-10
-2.54192e-10
-2.54942e-10
-2.53695e-10
-2.53984e-10
-2.53597e-10
-2.53541e-10
-2.53521e-10
-2.53462e-10
-2.71166e-10
-2.70816e-10
-2.6995e-10
-2.70008e-10
-2.67049e-10
-2.68648e-10
-2.65014e-10
-2.67303e-10
-2.63499e-10
-2.6568e-10
-2.62672e-10
-2.64217e-10
-2.62188e-10
-2.63212e-10
-2.61769e-10
-2.62584e-10
-2.61469e-10
-2.61855e-10
-2.61559e-10
-2.61634e-10
-2.81262e-10
-2.84123e-10
-2.78193e-10
-2.79637e-10
-2.77644e-10
-2.77169e-10
-2.76369e-10
-2.76247e-10
-2.74418e-10
-2.75533e-10
-2.72666e-10
-2.74816e-10
-2.71419e-10
-2.7391e-10
-2.70806e-10
-2.72779e-10
-2.70857e-10
-2.71604e-10
-2.71292e-10
-2.71395e-10
-2.94386e-10
-2.94316e-10
-2.93293e-10
-2.91096e-10
-2.91404e-10
-2.8923e-10
-2.89338e-10
-2.87748e-10
-2.8764e-10
-2.86655e-10
-2.86147e-10
-2.85786e-10
-2.84887e-10
-2.84256e-10
-2.84556e-10
-2.83571e-10
-2.84082e-10
-2.8359e-10
-2.83582e-10
-2.83449e-10
-3.10787e-10
-3.09614e-10
-3.10155e-10
-3.07421e-10
-3.07241e-10
-3.05927e-10
-3.04658e-10
-3.04712e-10
-3.02382e-10
-3.02507e-10
-3.01408e-10
-3.01495e-10
-3.00011e-10
-3.00479e-10
-2.99335e-10
-2.99346e-10
-2.9909e-10
-2.98899e-10
-2.98882e-10
-2.98789e-10
-3.28558e-10
-3.28262e-10
-3.27115e-10
-3.27335e-10
-3.23487e-10
-3.24777e-10
-3.2142e-10
-3.22093e-10
-3.20239e-10
-3.20766e-10
-3.18632e-10
-3.19579e-10
-3.17302e-10
-3.18458e-10
-3.16496e-10
-3.17541e-10
-3.16123e-10
-3.16596e-10
-3.16222e-10
-3.16308e-10
-3.30201e-10
-3.29613e-10
-3.2951e-10
-3.29585e-10
-3.29587e-10
-3.29595e-10
-3.29359e-10
-3.2958e-10
-3.29496e-10
-3.29692e-10
-3.29287e-10
-3.29678e-10
-3.29202e-10
-3.29573e-10
-3.29282e-10
-3.29476e-10
-3.29381e-10
-3.29416e-10
-3.29416e-10
-3.29416e-10
)
;

boundaryField
{
    movingWall
    {
        type            zeroGradient;
    }
    fixedWalls
    {
        type            zeroGradient;
    }
    frontAndBack
    {
        type            empty;
    }
}


// ************************************************************************* //
