/*--------------------------------*- C++ -*----------------------------------*\
| =========                 |                                                 |
| \\      /  F ield         | OpenFOAM: The Open Source CFD Toolbox           |
|  \\    /   O peration     | Version:  2312                                  |
|   \\  /    A nd           | Website:  www.openfoam.com                      |
|    \\/     M anipulation  |                                                 |
\*---------------------------------------------------------------------------*/
FoamFile
{
    version     2.0;
    format      ascii;
    arch        "LSB;label=32;scalar=64";
    class       volScalarField;
    location    "3";
    object      initialResidual:epsilon;
}
// * * * * * * * * * * * * * * * * * * * * * * * * * * * * * * * * * * * * * //

dimensions      [0 0 0 0 0 0 0];

internalField   nonuniform List<scalar> 
400
(
0
0
0
0
0
0
0
0
0
0
0
0
0
0
0
0
0
0
0
0
0
-8.894e-11
-8.89842e-11
-8.91878e-11
-8.93958e-11
-8.96647e-11
-8.98703e-11
-9.01589e-11
-9.03874e-11
-9.06673e-11
-9.09508e-11
-9.11911e-11
-9.15537e-11
-9.17415e-11
-9.21808e-11
-9.23309e-11
-9.28184e-11
-9.29712e-11
-1.86223e-10
0
0
-2.73264e-10
-2.72897e-10
-2.74071e-10
-2.75329e-10
-2.7644e-10
-2.77588e-10
-2.78831e-10
-2.80064e-10
-2.81317e-10
-2.82749e-10
-2.83912e-10
-2.85613e-10
-2.8665e-10
-2.88613e-10
-2.89574e-10
-2.91713e-10
-2.92723e-10
-5.8598e-10
0
0
-4.90116e-10
-4.88988e-10
-4.91534e-10
-4.94349e-10
-4.96589e-10
-4.99148e-10
-5.01721e-10
-5.04435e-10
-5.07123e-10
-5.10205e-10
-5.12819e-10
-5.16412e-10
-5.18884e-10
-5.22982e-10
-5.25396e-10
-5.29859e-10
-5.32429e-10
-1.06579e-09
0
0
-6.53233e-10
-6.53708e-10
-6.56627e-10
-6.60484e-10
-6.63634e-10
-6.67389e-10
-6.71002e-10
-6.75004e-10
-6.78844e-10
-6.83383e-10
-6.87169e-10
-6.92404e-10
-6.96097e-10
-7.02006e-10
-7.05724e-10
-7.1214e-10
-7.16146e-10
-1.43376e-09
0
0
-7.58999e-10
-7.50602e-10
-7.56712e-10
-7.62378e-10
-7.65879e-10
-7.70423e-10
-7.74714e-10
-7.79506e-10
-7.84105e-10
-7.89492e-10
-7.94128e-10
-8.00326e-10
-8.04895e-10
-8.11916e-10
-8.16534e-10
-8.24188e-10
-8.29164e-10
-1.66025e-09
0
0
-8.19664e-10
-8.11084e-10
-8.17551e-10
-8.23685e-10
-8.27489e-10
-8.32474e-10
-8.37191e-10
-8.42455e-10
-8.47516e-10
-8.53449e-10
-8.58569e-10
-8.65398e-10
-8.70477e-10
-8.78189e-10
-8.83366e-10
-8.9176e-10
-8.97362e-10
-1.7969e-09
0
0
-8.6054e-10
-8.49913e-10
-8.5718e-10
-8.63876e-10
-8.67808e-10
-8.73118e-10
-8.7807e-10
-8.83675e-10
-8.89007e-10
-8.9534e-10
-9.00737e-10
-9.08014e-10
-9.13394e-10
-9.21591e-10
-9.27111e-10
-9.3601e-10
-9.42014e-10
-1.88638e-09
0
0
-8.91128e-10
-8.7993e-10
-8.87537e-10
-8.94457e-10
-8.98616e-10
-9.04118e-10
-9.09271e-10
-9.15129e-10
-9.20676e-10
-9.27265e-10
-9.32932e-10
-9.40475e-10
-9.46173e-10
-9.54648e-10
-9.60511e-10
-9.69737e-10
-9.76078e-10
-1.95459e-09
0
0
-9.1731e-10
-9.07052e-10
-9.14488e-10
-9.21549e-10
-9.25805e-10
-9.31546e-10
-9.36866e-10
-9.42948e-10
-9.48676e-10
-9.55536e-10
-9.61377e-10
-9.69236e-10
-9.75107e-10
-9.83947e-10
-9.90009e-10
-9.99599e-10
-1.00621e-09
-2.01494e-09
0
0
-9.46154e-10
-9.3223e-10
-9.40905e-10
-9.48563e-10
-9.52934e-10
-9.58866e-10
-9.64353e-10
-9.70623e-10
-9.76582e-10
-9.83629e-10
-9.89748e-10
-9.97824e-10
-1.00398e-09
-1.01307e-09
-1.01943e-09
-1.02932e-09
-1.03622e-09
-2.07503e-09
0
0
-9.60588e-10
-9.70519e-10
-9.72066e-10
-9.77035e-10
-9.82228e-10
-9.88193e-10
-9.93913e-10
-1.00043e-09
-1.00658e-09
-1.01392e-09
-1.02025e-09
-1.02861e-09
-1.03504e-09
-1.04443e-09
-1.05109e-09
-1.0613e-09
-1.06854e-09
-2.1397e-09
0
0
-1.00693e-09
-9.93326e-10
-1.00216e-09
-1.01027e-09
-1.01489e-09
-1.02132e-09
-1.02719e-09
-1.03402e-09
-1.04036e-09
-1.04803e-09
-1.05458e-09
-1.06331e-09
-1.06999e-09
-1.07978e-09
-1.08672e-09
-1.09736e-09
-1.10493e-09
-2.21258e-09
0
0
-1.04065e-09
-1.03313e-09
-1.0404e-09
-1.04792e-09
-1.05304e-09
-1.05959e-09
-1.06578e-09
-1.07284e-09
-1.07952e-09
-1.0875e-09
-1.0944e-09
-1.10347e-09
-1.11051e-09
-1.12071e-09
-1.12804e-09
-1.13912e-09
-1.14712e-09
-2.29702e-09
0
0
-1.07242e-09
-1.0858e-09
-1.08676e-09
-1.09224e-09
-1.09802e-09
-1.10494e-09
-1.11132e-09
-1.11886e-09
-1.12578e-09
-1.13422e-09
-1.14142e-09
-1.151e-09
-1.15841e-09
-1.16913e-09
-1.17689e-09
-1.18854e-09
-1.19702e-09
-2.39693e-09
0
0
-1.12386e-09
-1.14062e-09
-1.14069e-09
-1.1462e-09
-1.15239e-09
-1.1596e-09
-1.1664e-09
-1.17431e-09
-1.18169e-09
-1.1906e-09
-1.19827e-09
-1.20841e-09
-1.21631e-09
-1.22766e-09
-1.23594e-09
-1.24827e-09
-1.25735e-09
-2.51772e-09
0
0
-1.18911e-09
-1.20838e-09
-1.20804e-09
-1.21361e-09
-1.22036e-09
-1.22795e-09
-1.23528e-09
-1.24365e-09
-1.25162e-09
-1.26107e-09
-1.26939e-09
-1.28015e-09
-1.28875e-09
-1.30078e-09
-1.30986e-09
-1.32294e-09
-1.33285e-09
-2.66883e-09
0
0
-1.27297e-09
-1.29575e-09
-1.29465e-09
-1.30048e-09
-1.30764e-09
-1.31602e-09
-1.32375e-09
-1.33298e-09
-1.34147e-09
-1.35178e-09
-1.36079e-09
-1.37245e-09
-1.38183e-09
-1.39489e-09
-1.40485e-09
-1.41901e-09
-1.42996e-09
-2.86312e-09
0
0
-1.40374e-09
-1.39337e-09
-1.40247e-09
-1.41194e-09
-1.41861e-09
-1.42701e-09
-1.4353e-09
-1.44442e-09
-1.45372e-09
-1.46412e-09
-1.47388e-09
-1.48601e-09
-1.49612e-09
-1.51002e-09
-1.5207e-09
-1.53608e-09
-1.54787e-09
-3.09299e-09
0
0
0
0
0
0
0
0
0
0
0
0
0
0
0
0
0
0
0
0
0
)
;

boundaryField
{
    movingWall
    {
        type            zeroGradient;
    }
    fixedWalls
    {
        type            zeroGradient;
    }
    frontAndBack
    {
        type            empty;
    }
}


// ************************************************************************* //
