/*--------------------------------*- C++ -*----------------------------------*\
| =========                 |                                                 |
| \\      /  F ield         | OpenFOAM: The Open Source CFD Toolbox           |
|  \\    /   O peration     | Version:  2312                                  |
|   \\  /    A nd           | Website:  www.openfoam.com                      |
|    \\/     M anipulation  |                                                 |
\*---------------------------------------------------------------------------*/
FoamFile
{
    version     2.0;
    format      ascii;
    arch        "LSB;label=32;scalar=64";
    class       volScalarField;
    location    "3";
    object      initialResidual:Ux;
}
// * * * * * * * * * * * * * * * * * * * * * * * * * * * * * * * * * * * * * //

dimensions      [0 0 0 0 0 0 0];

internalField   nonuniform List<scalar> 
400
(
4.08387e-13
-1.83366e-13
5.76818e-14
-1.94053e-14
5.37205e-15
-2.50958e-15
-8.97448e-17
-9.93665e-16
-8.26508e-16
-9.77632e-16
-9.93129e-16
-1.01525e-15
-9.96477e-16
-9.54742e-16
-8.81572e-16
-7.73117e-16
-6.61641e-16
-5.40204e-16
-3.40738e-16
-3.28242e-17
7.46633e-14
-6.02649e-14
1.716e-14
-9.70379e-15
3.0318e-15
-1.86546e-15
-1.91551e-16
-9.55589e-16
-8.18376e-16
-9.57933e-16
-9.7135e-16
-9.92241e-16
-9.74827e-16
-9.34128e-16
-8.62083e-16
-7.60432e-16
-6.50467e-16
-5.25459e-16
-3.35852e-16
-3.25396e-17
1.07298e-12
-4.50948e-13
1.4561e-13
-4.30722e-14
1.25341e-14
-4.62026e-15
3.89276e-16
-1.20563e-15
-8.00453e-16
-9.73661e-16
-9.51591e-16
-9.65177e-16
-9.39888e-16
-8.99142e-16
-8.29618e-16
-7.26111e-16
-6.22468e-16
-5.10863e-16
-3.20639e-16
-3.09133e-17
-3.02977e-15
-3.92958e-14
1.43338e-14
-7.4194e-15
2.70027e-15
-2.11817e-15
-4.71953e-16
-1.13878e-15
-8.88368e-16
-9.63056e-16
-9.25827e-16
-9.19532e-16
-8.88422e-16
-8.44045e-16
-7.74873e-16
-6.84308e-16
-5.85591e-16
-4.7032e-16
-3.01435e-16
-2.91515e-17
9.54265e-13
-3.81694e-13
1.19242e-13
-3.55584e-14
7.79861e-15
-4.38167e-15
-4.17032e-16
-1.33697e-15
-9.17892e-16
-9.48982e-16
-8.80426e-16
-8.54378e-16
-8.14602e-16
-7.704e-16
-7.07821e-16
-6.16958e-16
-5.28826e-16
-4.36452e-16
-2.71342e-16
-2.55872e-17
-1.02917e-12
4.207e-13
-1.45099e-13
3.62062e-14
-1.44812e-14
1.6527e-15
-2.50724e-15
-8.77092e-16
-1.09435e-15
-8.59962e-16
-8.22266e-16
-7.6092e-16
-7.21557e-16
-6.74218e-16
-6.14919e-16
-5.44371e-16
-4.66566e-16
-3.71014e-16
-2.37813e-16
-2.27276e-17
2.34159e-14
2.76725e-14
-1.65653e-14
2.94041e-15
-5.94697e-15
-1.13268e-15
-1.99111e-15
-1.06343e-15
-1.01512e-15
-7.90919e-16
-7.18528e-16
-6.46855e-16
-6.01637e-16
-5.59164e-16
-5.11899e-16
-4.44503e-16
-3.81727e-16
-3.1736e-16
-1.9393e-16
-1.76183e-17
-1.10625e-12
4.77113e-13
-1.60174e-13
4.31186e-14
-1.75389e-14
2.41656e-15
-2.92524e-15
-7.13093e-16
-1.00121e-15
-6.51402e-16
-5.91466e-16
-5.04025e-16
-4.62575e-16
-4.22419e-16
-3.81802e-16
-3.42317e-16
-2.95526e-16
-2.29553e-16
-1.47235e-16
-1.41217e-17
2.03626e-13
-8.62708e-14
2.14066e-14
-9.84983e-15
-1.05242e-15
-2.54598e-15
-1.32944e-15
-1.05943e-15
-7.39189e-16
-5.39133e-16
-4.22053e-16
-3.44417e-16
-2.9886e-16
-2.69526e-16
-2.46107e-16
-2.13798e-16
-1.85995e-16
-1.58375e-16
-9.26315e-17
-7.84691e-18
-2.00688e-13
1.31873e-13
-5.15536e-14
1.49531e-14
-9.39324e-15
3.67951e-18
-2.0863e-15
-5.82284e-16
-6.68756e-16
-3.47202e-16
-2.50159e-16
-1.6013e-16
-1.22684e-16
-9.90283e-17
-8.55503e-17
-8.70004e-17
-8.05698e-17
-5.39526e-17
-3.62598e-17
-4.05221e-18
-7.24685e-13
2.49203e-13
-8.04213e-14
1.57095e-14
-5.73317e-15
-3.41666e-16
-1.60894e-15
-8.03624e-16
-4.47715e-16
-1.93672e-16
-4.74135e-17
3.55008e-17
7.29329e-17
8.29415e-17
7.47625e-17
6.23145e-17
4.66885e-17
2.9619e-17
2.38524e-17
2.77827e-18
1.18732e-12
-3.82811e-13
1.07748e-13
-2.43031e-14
1.77751e-15
-2.01483e-15
-1.04217e-15
-6.28891e-16
-2.76072e-16
2.61767e-17
1.59086e-16
2.50932e-16
2.77197e-16
2.77712e-16
2.56048e-16
2.05531e-16
1.63606e-16
1.42349e-16
8.51641e-17
6.08508e-18
-2.98364e-12
1.10473e-12
-3.24268e-13
8.61447e-14
-2.24619e-14
4.84838e-15
-2.60221e-15
8.27043e-17
-1.54201e-16
3.18891e-16
3.98377e-16
4.83324e-16
4.99594e-16
4.8125e-16
4.31838e-16
3.64875e-16
2.9821e-16
2.32277e-16
1.46401e-16
1.22786e-17
4.05398e-12
-1.44927e-12
4.50208e-13
-1.13129e-13
2.35613e-14
-8.66276e-15
6.9374e-16
-3.04024e-16
3.78265e-16
5.06363e-16
6.74577e-16
7.36668e-16
7.32507e-16
6.93117e-16
6.23396e-16
5.14169e-16
4.15927e-16
3.43645e-16
2.0877e-16
1.43386e-17
-6.70397e-12
2.62852e-12
-8.71603e-13
2.30666e-13
-6.95098e-14
1.80408e-14
-5.64096e-15
1.88754e-15
1.69684e-16
1.02164e-15
9.47145e-16
1.02968e-15
9.78797e-16
9.10682e-16
8.02953e-16
6.69305e-16
5.43809e-16
4.3257e-16
2.67629e-16
1.89058e-17
4.98357e-12
-1.81824e-12
5.88245e-13
-1.52952e-13
3.50181e-14
-1.13531e-14
2.69867e-15
2.49597e-16
1.32102e-15
1.31024e-15
1.37063e-15
1.32792e-15
1.23821e-15
1.12525e-15
9.86848e-16
8.08734e-16
6.49003e-16
5.29192e-16
3.24468e-16
2.01391e-17
-1.15677e-11
4.81356e-12
-1.5825e-12
4.57156e-13
-1.38087e-13
4.31763e-14
-1.06778e-14
5.68388e-15
8.62103e-16
2.23804e-15
1.69325e-15
1.67853e-15
1.48385e-15
1.32982e-15
1.14499e-15
9.37699e-16
7.53825e-16
6.018e-16
3.68439e-16
2.35136e-17
-8.35064e-13
6.57935e-13
-2.06844e-13
7.92909e-14
-2.83136e-14
1.32599e-14
3.84885e-16
4.52655e-15
2.58493e-15
2.66893e-15
2.18303e-15
1.96742e-15
1.71294e-15
1.5019e-15
1.28371e-15
1.04116e-15
8.2955e-16
6.64867e-16
4.02205e-16
2.42184e-17
-5.66984e-12
2.34104e-12
-7.26325e-13
2.27033e-13
-4.28402e-14
2.65599e-14
2.48383e-15
6.28634e-15
3.53774e-15
3.19718e-15
2.56112e-15
2.20475e-15
1.88991e-15
1.63214e-15
1.38124e-15
1.10979e-15
8.8727e-16
7.22749e-16
4.37435e-16
2.20635e-17
1.64803e-11
-7.28196e-12
2.40061e-12
-6.98946e-13
2.46164e-13
-5.82178e-14
3.0441e-14
-7.3185e-16
6.571e-15
2.82314e-15
3.01032e-15
2.28576e-15
2.01254e-15
1.69905e-15
1.43617e-15
1.1437e-15
9.14897e-16
7.66917e-16
4.74752e-16
1.92852e-17
)
;

boundaryField
{
    movingWall
    {
        type            zeroGradient;
    }
    fixedWalls
    {
        type            zeroGradient;
    }
    frontAndBack
    {
        type            empty;
    }
}


// ************************************************************************* //
