/*--------------------------------*- C++ -*----------------------------------*\
| =========                 |                                                 |
| \\      /  F ield         | OpenFOAM: The Open Source CFD Toolbox           |
|  \\    /   O peration     | Version:  2312                                  |
|   \\  /    A nd           | Website:  www.openfoam.com                      |
|    \\/     M anipulation  |                                                 |
\*---------------------------------------------------------------------------*/
FoamFile
{
    version     2.0;
    format      ascii;
    arch        "LSB;label=32;scalar=64";
    class       volScalarField;
    location    "3";
    object      initialResidual:Uy;
}
// * * * * * * * * * * * * * * * * * * * * * * * * * * * * * * * * * * * * * //

dimensions      [0 0 0 0 0 0 0];

internalField   nonuniform List<scalar> 
400
(
-3.16376e-13
1.58857e-13
-4.26989e-14
1.17526e-14
-3.23283e-15
8.3899e-16
-2.30196e-16
2.20288e-17
-5.95932e-17
-5.4532e-17
-6.66334e-17
-7.33998e-17
-8.00059e-17
-8.71946e-17
-9.40982e-17
-9.62438e-17
-9.74039e-17
-9.92341e-17
-1.80245e-16
-6.18376e-17
2.68178e-13
-1.47085e-13
4.08359e-14
-1.19381e-14
3.60619e-15
-9.4242e-16
2.63792e-16
-1.6066e-16
-1.11603e-16
-1.70464e-16
-1.88751e-16
-2.14465e-16
-2.34121e-16
-2.55173e-16
-2.79473e-16
-2.88486e-16
-2.83953e-16
-2.95892e-16
-5.40324e-16
-1.81991e-16
-1.98623e-13
8.90005e-14
-2.40861e-14
6.26071e-15
-1.43966e-15
6.41745e-16
-1.6618e-16
-1.13188e-16
-2.41479e-16
-2.80234e-16
-3.20894e-16
-3.56506e-16
-3.88251e-16
-4.21952e-16
-4.60499e-16
-4.7446e-16
-4.69154e-16
-4.869e-16
-8.87997e-16
-2.99956e-16
2.19084e-14
-5.26947e-15
3.0726e-15
2.3352e-15
1.73539e-16
4.85859e-16
-1.92661e-16
-2.289e-16
-3.72599e-16
-4.15189e-16
-4.61268e-16
-5.02506e-16
-5.41762e-16
-5.84413e-16
-6.36344e-16
-6.55483e-16
-6.43966e-16
-6.6862e-16
-1.22092e-15
-4.1151e-16
4.21014e-15
4.3199e-14
-1.29886e-14
9.12109e-15
-1.78918e-15
9.41101e-16
-5.84147e-16
-3.33341e-16
-5.70403e-16
-5.62971e-16
-6.13871e-16
-6.49472e-16
-6.92026e-16
-7.40702e-16
-8.02581e-16
-8.23965e-16
-8.08749e-16
-8.38396e-16
-1.52911e-15
-5.15011e-16
-2.34356e-13
1.36299e-13
-3.91832e-14
1.36466e-14
-3.95817e-15
8.43624e-16
-9.74142e-16
-5.74909e-16
-7.77571e-16
-7.3818e-16
-7.6858e-16
-7.95788e-16
-8.35198e-16
-8.86097e-16
-9.56058e-16
-9.79907e-16
-9.56491e-16
-9.90958e-16
-1.80811e-15
-6.071e-16
2.1702e-13
-1.07901e-13
2.64603e-14
-7.543e-15
6.77879e-16
-1.26941e-15
-9.52203e-16
-9.92136e-16
-9.68062e-16
-9.30408e-16
-9.19567e-16
-9.35965e-16
-9.67184e-16
-1.0181e-15
-1.09267e-15
-1.11621e-15
-1.08653e-15
-1.12438e-15
-2.04889e-15
-6.86143e-16
-4.45281e-13
1.9687e-13
-5.08311e-14
9.28348e-15
-4.07966e-15
-9.9584e-16
-1.46379e-15
-1.25585e-15
-1.18866e-15
-1.10712e-15
-1.06342e-15
-1.0637e-15
-1.0845e-15
-1.13204e-15
-1.2092e-15
-1.23245e-15
-1.19329e-15
-1.23342e-15
-2.24697e-15
-7.49455e-16
3.68398e-13
-2.1331e-13
5.92729e-14
-2.00918e-14
3.29948e-15
-3.22774e-15
-1.34781e-15
-1.6137e-15
-1.35181e-15
-1.27105e-15
-1.19039e-15
-1.17469e-15
-1.18322e-15
-1.2254e-15
-1.3021e-15
-1.32255e-15
-1.27517e-15
-1.31634e-15
-2.39492e-15
-7.95627e-16
-2.85948e-13
1.7544e-13
-5.87589e-14
1.2464e-14
-7.22761e-15
-7.12265e-16
-2.11818e-15
-1.62227e-15
-1.55921e-15
-1.3989e-15
-1.30654e-15
-1.26665e-15
-1.2623e-15
-1.29543e-15
-1.36882e-15
-1.386e-15
-1.32831e-15
-1.36815e-15
-2.48918e-15
-8.23024e-16
-3.47694e-13
5.85727e-14
6.64699e-16
-1.00136e-14
-1.15735e-16
-3.40671e-15
-1.66361e-15
-1.99092e-15
-1.68334e-15
-1.53598e-15
-1.40259e-15
-1.34256e-15
-1.32001e-15
-1.34116e-15
-1.4074e-15
-1.41863e-15
-1.35057e-15
-1.38802e-15
-2.52505e-15
-8.30733e-16
9.66522e-13
-3.15884e-13
3.69504e-14
-7.86738e-15
-4.089e-15
-2.06959e-15
-2.87013e-15
-2.03081e-15
-1.95931e-15
-1.65407e-15
-1.49726e-15
-1.40195e-15
-1.35772e-15
-1.36131e-15
-1.41583e-15
-1.41983e-15
-1.34071e-15
-1.37173e-15
-2.50009e-15
-8.18598e-16
-2.59576e-12
9.38197e-13
-1.9381e-13
3.46149e-14
-9.08849e-15
-1.95289e-15
-3.08288e-15
-2.45092e-15
-2.06057e-15
-1.79739e-15
-1.57721e-15
-1.44718e-15
-1.37219e-15
-1.35409e-15
-1.39273e-15
-1.38714e-15
-1.29587e-15
-1.32073e-15
-2.41317e-15
-7.85891e-16
5.24154e-12
-1.98412e-12
4.12782e-13
-7.89401e-14
9.20981e-15
-5.42451e-15
-3.14656e-15
-2.61399e-15
-2.3164e-15
-1.90063e-15
-1.65717e-15
-1.4667e-15
-1.36093e-15
-1.31562e-15
-1.33479e-15
-1.31804e-15
-1.2188e-15
-1.23347e-15
-2.26215e-15
-7.33784e-16
-6.53187e-12
2.72177e-12
-6.40021e-13
1.43017e-13
-3.89106e-14
3.44608e-15
-5.39425e-15
-2.67537e-15
-2.6462e-15
-2.03594e-15
-1.69999e-15
-1.45752e-15
-1.31223e-15
-1.24012e-15
-1.23887e-15
-1.21216e-15
-1.10513e-15
-1.11287e-15
-2.04983e-15
-6.61483e-16
6.87539e-12
-2.82768e-12
6.20074e-13
-1.45368e-13
2.02679e-14
-1.10183e-14
-3.89458e-15
-3.64989e-15
-2.79248e-15
-2.10889e-15
-1.68453e-15
-1.38807e-15
-1.21296e-15
-1.12006e-15
-1.0996e-15
-1.06515e-15
-9.60816e-16
-9.61126e-16
-1.77641e-15
-5.71268e-16
-7.58459e-12
3.43036e-12
-8.73617e-13
2.04789e-13
-6.56393e-14
6.24329e-15
-9.16409e-15
-3.04739e-15
-3.05885e-15
-1.99298e-15
-1.5662e-15
-1.23459e-15
-1.0509e-15
-9.47673e-16
-9.1781e-16
-8.81326e-16
-7.82446e-16
-7.81374e-16
-1.45316e-15
-4.63548e-16
8.18734e-12
-3.84375e-12
9.3371e-13
-2.79561e-13
5.3331e-14
-2.7707e-14
-6.43747e-16
-5.23676e-15
-2.1176e-15
-1.88473e-15
-1.24687e-15
-1.00299e-15
-8.18866e-16
-7.29182e-16
-6.95368e-16
-6.63017e-16
-5.82915e-16
-5.75614e-16
-1.08095e-15
-3.44432e-16
-7.31967e-12
2.64671e-12
-5.57953e-13
4.90224e-14
-1.62301e-14
-1.21195e-14
-1.77819e-15
-3.92282e-15
-1.31629e-15
-1.34295e-15
-7.73458e-16
-6.43273e-16
-4.99523e-16
-4.43154e-16
-4.19614e-16
-4.05483e-16
-3.38354e-16
-3.20949e-16
-6.66591e-16
-2.19484e-16
8.12026e-12
-4.17868e-12
1.14397e-12
-3.37228e-13
9.2146e-14
-3.06601e-14
6.67464e-15
-3.4691e-15
1.12726e-16
-6.24128e-16
-2.07017e-16
-2.20971e-16
-1.53325e-16
-1.39824e-16
-1.32144e-16
-1.29456e-16
-9.98817e-17
-8.98352e-17
-2.23553e-16
-7.87421e-17
)
;

boundaryField
{
    movingWall
    {
        type            zeroGradient;
    }
    fixedWalls
    {
        type            zeroGradient;
    }
    frontAndBack
    {
        type            empty;
    }
}


// ************************************************************************* //
