/*--------------------------------*- C++ -*----------------------------------*\
| =========                 |                                                 |
| \\      /  F ield         | OpenFOAM: The Open Source CFD Toolbox           |
|  \\    /   O peration     | Version:  2312                                  |
|   \\  /    A nd           | Website:  www.openfoam.com                      |
|    \\/     M anipulation  |                                                 |
\*---------------------------------------------------------------------------*/
FoamFile
{
    version     2.0;
    format      ascii;
    arch        "LSB;label=32;scalar=64";
    class       volScalarField;
    location    "3";
    object      k2;
}
// * * * * * * * * * * * * * * * * * * * * * * * * * * * * * * * * * * * * * //

dimensions      [0 4 -4 0 0 0 0];

internalField   nonuniform List<scalar> 
400
(
3.80595e-09
3.80557e-09
3.80517e-09
3.80497e-09
3.8046e-09
3.80446e-09
3.80413e-09
3.80405e-09
3.80376e-09
3.80371e-09
3.8035e-09
3.80345e-09
3.80332e-09
3.80326e-09
3.80319e-09
3.80316e-09
3.80311e-09
3.80309e-09
3.80307e-09
3.80307e-09
1.08407e-08
1.08395e-08
1.08223e-08
1.08155e-08
1.08035e-08
1.07974e-08
1.07871e-08
1.07819e-08
1.07733e-08
1.0769e-08
1.0762e-08
1.07585e-08
1.07532e-08
1.07505e-08
1.07467e-08
1.07449e-08
1.07427e-08
1.07418e-08
1.0741e-08
1.07407e-08
2.98492e-08
2.98425e-08
2.97638e-08
2.97322e-08
2.96767e-08
2.9649e-08
2.96016e-08
2.95778e-08
2.95382e-08
2.95183e-08
2.94862e-08
2.94703e-08
2.94456e-08
2.94336e-08
2.94162e-08
2.94081e-08
2.93978e-08
2.93934e-08
2.93899e-08
2.93886e-08
5.36396e-08
5.36231e-08
5.34292e-08
5.3352e-08
5.32147e-08
5.31475e-08
5.30294e-08
5.29718e-08
5.28741e-08
5.28249e-08
5.27469e-08
5.27068e-08
5.26463e-08
5.26166e-08
5.25738e-08
5.25536e-08
5.25287e-08
5.25178e-08
5.25094e-08
5.25061e-08
7.28218e-08
7.27942e-08
7.24825e-08
7.23572e-08
7.21374e-08
7.20283e-08
7.18407e-08
7.17472e-08
7.159e-08
7.15114e-08
7.13846e-08
7.13219e-08
7.12244e-08
7.1177e-08
7.11084e-08
7.10759e-08
7.10358e-08
7.10183e-08
7.10048e-08
7.09995e-08
8.51143e-08
8.50777e-08
8.46803e-08
8.45209e-08
8.42394e-08
8.41005e-08
8.38599e-08
8.37409e-08
8.35396e-08
8.34407e-08
8.32779e-08
8.31986e-08
8.30734e-08
8.30133e-08
8.29258e-08
8.28844e-08
8.28335e-08
8.28111e-08
8.27941e-08
8.27874e-08
9.26214e-08
9.25782e-08
9.21244e-08
9.19418e-08
9.1621e-08
9.14624e-08
9.11881e-08
9.1052e-08
9.08229e-08
9.07098e-08
9.05246e-08
9.04337e-08
9.02918e-08
9.02227e-08
9.01231e-08
9.00758e-08
9.00178e-08
8.99922e-08
8.99729e-08
8.99652e-08
9.75156e-08
9.74679e-08
9.69762e-08
9.67776e-08
9.64304e-08
9.62587e-08
9.59619e-08
9.5814e-08
9.55666e-08
9.54431e-08
9.52436e-08
9.51445e-08
9.49913e-08
9.49166e-08
9.48087e-08
9.47578e-08
9.46946e-08
9.46671e-08
9.46459e-08
9.46377e-08
1.01196e-07
1.01146e-07
1.00623e-07
1.00415e-07
1.00046e-07
9.98632e-08
9.95478e-08
9.9393e-08
9.9129e-08
9.90006e-08
9.87872e-08
9.86844e-08
9.85204e-08
9.84431e-08
9.83277e-08
9.82748e-08
9.82079e-08
9.81789e-08
9.81567e-08
9.81479e-08
1.04413e-07
1.04359e-07
1.03813e-07
1.03593e-07
1.03207e-07
1.03016e-07
1.02685e-07
1.02521e-07
1.02246e-07
1.02109e-07
1.01887e-07
1.01778e-07
1.01608e-07
1.01525e-07
1.01405e-07
1.01349e-07
1.01279e-07
1.01248e-07
1.01225e-07
1.01216e-07
1.07594e-07
1.07538e-07
1.06966e-07
1.06737e-07
1.0633e-07
1.0613e-07
1.05783e-07
1.05612e-07
1.05324e-07
1.05182e-07
1.0495e-07
1.04835e-07
1.04657e-07
1.0457e-07
1.04445e-07
1.04386e-07
1.04313e-07
1.04281e-07
1.04257e-07
1.04247e-07
1.11006e-07
1.10946e-07
1.10344e-07
1.10104e-07
1.0968e-07
1.09469e-07
1.09105e-07
1.08928e-07
1.08623e-07
1.08476e-07
1.08229e-07
1.08113e-07
1.07923e-07
1.07835e-07
1.07701e-07
1.07641e-07
1.07564e-07
1.07531e-07
1.07505e-07
1.07495e-07
1.14843e-07
1.14779e-07
1.14148e-07
1.13894e-07
1.13447e-07
1.13226e-07
1.12845e-07
1.12655e-07
1.12337e-07
1.1218e-07
1.11923e-07
1.11797e-07
1.116e-07
1.11505e-07
1.11367e-07
1.11301e-07
1.11221e-07
1.11185e-07
1.11159e-07
1.11148e-07
1.19294e-07
1.19226e-07
1.18555e-07
1.18287e-07
1.17816e-07
1.17577e-07
1.17176e-07
1.16973e-07
1.16637e-07
1.16471e-07
1.16198e-07
1.16065e-07
1.15857e-07
1.15756e-07
1.15609e-07
1.1554e-07
1.15455e-07
1.15418e-07
1.1539e-07
1.15379e-07
1.24568e-07
1.24493e-07
1.2378e-07
1.23492e-07
1.22986e-07
1.22736e-07
1.22304e-07
1.2209e-07
1.2173e-07
1.21552e-07
1.21262e-07
1.2112e-07
1.20897e-07
1.20789e-07
1.20634e-07
1.20559e-07
1.20469e-07
1.20429e-07
1.20399e-07
1.20387e-07
1.30963e-07
1.30882e-07
1.3011e-07
1.29802e-07
1.29255e-07
1.28984e-07
1.2852e-07
1.28289e-07
1.27901e-07
1.27709e-07
1.27397e-07
1.27243e-07
1.27003e-07
1.26886e-07
1.26718e-07
1.26639e-07
1.26541e-07
1.26498e-07
1.26465e-07
1.26452e-07
1.38956e-07
1.38866e-07
1.38019e-07
1.37683e-07
1.37086e-07
1.36786e-07
1.36285e-07
1.36025e-07
1.35605e-07
1.35394e-07
1.35049e-07
1.34886e-07
1.34619e-07
1.34497e-07
1.34308e-07
1.34225e-07
1.34116e-07
1.3407e-07
1.34034e-07
1.3402e-07
1.49016e-07
1.48918e-07
1.47981e-07
1.47606e-07
1.46943e-07
1.46615e-07
1.46049e-07
1.45771e-07
1.45298e-07
1.45068e-07
1.44686e-07
1.44501e-07
1.4421e-07
1.4407e-07
1.43865e-07
1.4377e-07
1.43651e-07
1.43599e-07
1.4356e-07
1.43544e-07
1.59878e-07
1.5982e-07
1.58835e-07
1.58443e-07
1.57752e-07
1.5741e-07
1.56817e-07
1.56523e-07
1.56023e-07
1.55776e-07
1.5537e-07
1.5517e-07
1.54857e-07
1.54705e-07
1.54484e-07
1.54379e-07
1.54249e-07
1.54191e-07
1.54148e-07
1.54131e-07
1.6204e-07
1.61993e-07
1.61978e-07
1.61955e-07
1.61942e-07
1.61924e-07
1.61914e-07
1.61905e-07
1.61893e-07
1.61887e-07
1.61879e-07
1.61876e-07
1.6187e-07
1.6187e-07
1.61866e-07
1.61867e-07
1.61865e-07
1.61865e-07
1.61865e-07
1.61865e-07
)
;

boundaryField
{
    movingWall
    {
        type            calculated;
        value           nonuniform List<scalar> 
20
(
1.6204e-07
1.61993e-07
1.61978e-07
1.61955e-07
1.61942e-07
1.61924e-07
1.61914e-07
1.61905e-07
1.61893e-07
1.61887e-07
1.61879e-07
1.61876e-07
1.6187e-07
1.6187e-07
1.61866e-07
1.61867e-07
1.61865e-07
1.61865e-07
1.61865e-07
1.61865e-07
)
;
    }
    fixedWalls
    {
        type            calculated;
        value           nonuniform List<scalar> 
60
(
3.80595e-09
1.08407e-08
2.98492e-08
5.36396e-08
7.28218e-08
8.51143e-08
9.26214e-08
9.75156e-08
1.01196e-07
1.04413e-07
1.07594e-07
1.11006e-07
1.14843e-07
1.19294e-07
1.24568e-07
1.30963e-07
1.38956e-07
1.49016e-07
1.59878e-07
1.6204e-07
3.80307e-09
1.07407e-08
2.93886e-08
5.25061e-08
7.09995e-08
8.27874e-08
8.99652e-08
9.46377e-08
9.81479e-08
1.01216e-07
1.04247e-07
1.07495e-07
1.11148e-07
1.15379e-07
1.20387e-07
1.26452e-07
1.3402e-07
1.43544e-07
1.54131e-07
1.61865e-07
3.80595e-09
3.80557e-09
3.80517e-09
3.80497e-09
3.8046e-09
3.80446e-09
3.80413e-09
3.80405e-09
3.80376e-09
3.80371e-09
3.8035e-09
3.80345e-09
3.80332e-09
3.80326e-09
3.80319e-09
3.80316e-09
3.80311e-09
3.80309e-09
3.80307e-09
3.80307e-09
)
;
    }
    frontAndBack
    {
        type            empty;
    }
}


// ************************************************************************* //
