/*--------------------------------*- C++ -*----------------------------------*\
| =========                 |                                                 |
| \\      /  F ield         | OpenFOAM: The Open Source CFD Toolbox           |
|  \\    /   O peration     | Version:  2312                                  |
|   \\  /    A nd           | Website:  www.openfoam.com                      |
|    \\/     M anipulation  |                                                 |
\*---------------------------------------------------------------------------*/
FoamFile
{
    version     2.0;
    format      ascii;
    arch        "LSB;label=32;scalar=64";
    class       volScalarField;
    location    "3";
    object      kDiff;
}
// * * * * * * * * * * * * * * * * * * * * * * * * * * * * * * * * * * * * * //

dimensions      [0 2 -2 0 0 0 0];

internalField   nonuniform List<scalar> 
400
(
-2.62856e-07
-2.62581e-07
-2.62942e-07
-2.62016e-07
-2.63266e-07
-2.61742e-07
-2.63388e-07
-2.61619e-07
-2.63371e-07
-2.61596e-07
-2.63174e-07
-2.61897e-07
-2.62854e-07
-2.62099e-07
-2.62597e-07
-2.6227e-07
-2.62516e-07
-2.62355e-07
-2.62396e-07
-2.6238e-07
-7.55386e-07
-7.56814e-07
-7.51439e-07
-7.55498e-07
-7.50697e-07
-7.54622e-07
-7.48497e-07
-7.53244e-07
-7.48056e-07
-7.51531e-07
-7.48298e-07
-7.50553e-07
-7.47774e-07
-7.50175e-07
-7.46987e-07
-7.49639e-07
-7.46944e-07
-7.48679e-07
-7.47871e-07
-7.48112e-07
-1.84093e-06
-1.84148e-06
-1.83458e-06
-1.83784e-06
-1.82525e-06
-1.8339e-06
-1.82024e-06
-1.83103e-06
-1.81385e-06
-1.82847e-06
-1.80932e-06
-1.82507e-06
-1.80743e-06
-1.8213e-06
-1.80724e-06
-1.81751e-06
-1.80849e-06
-1.81387e-06
-1.81132e-06
-1.81203e-06
-2.89861e-06
-2.89428e-06
-2.89337e-06
-2.88312e-06
-2.8747e-06
-2.87223e-06
-2.86676e-06
-2.86028e-06
-2.86e-06
-2.85196e-06
-2.85302e-06
-2.84646e-06
-2.84809e-06
-2.84382e-06
-2.84025e-06
-2.84221e-06
-2.83532e-06
-2.83911e-06
-2.83663e-06
-2.8372e-06
-3.62433e-06
-3.62484e-06
-3.60675e-06
-3.6104e-06
-3.57736e-06
-3.59409e-06
-3.56426e-06
-3.57863e-06
-3.55645e-06
-3.5713e-06
-3.53658e-06
-3.56338e-06
-3.52738e-06
-3.5534e-06
-3.5253e-06
-3.54448e-06
-3.52542e-06
-3.53624e-06
-3.53068e-06
-3.5321e-06
-4.04384e-06
-4.03729e-06
-4.03302e-06
-4.01992e-06
-3.99611e-06
-4.00347e-06
-3.97516e-06
-3.98212e-06
-3.966e-06
-3.96229e-06
-3.95988e-06
-3.94979e-06
-3.9508e-06
-3.94486e-06
-3.93693e-06
-3.94171e-06
-3.92884e-06
-3.93586e-06
-3.93141e-06
-3.93241e-06
-4.29117e-06
-4.28589e-06
-4.27596e-06
-4.26533e-06
-4.23445e-06
-4.24426e-06
-4.21678e-06
-4.22117e-06
-4.20491e-06
-4.20335e-06
-4.19302e-06
-4.19346e-06
-4.17715e-06
-4.18677e-06
-4.16489e-06
-4.17913e-06
-4.16101e-06
-4.17073e-06
-4.16518e-06
-4.16646e-06
-4.45088e-06
-4.44619e-06
-4.43557e-06
-4.428e-06
-4.38307e-06
-4.40434e-06
-4.36955e-06
-4.38357e-06
-4.35104e-06
-4.37111e-06
-4.32858e-06
-4.36061e-06
-4.3129e-06
-4.34808e-06
-4.30722e-06
-4.33474e-06
-4.30892e-06
-4.32312e-06
-4.31565e-06
-4.3175e-06
-4.5708e-06
-4.56394e-06
-4.55658e-06
-4.53001e-06
-4.52756e-06
-4.5125e-06
-4.49519e-06
-4.49558e-06
-4.47006e-06
-4.47692e-06
-4.45586e-06
-4.46087e-06
-4.44361e-06
-4.4454e-06
-4.44075e-06
-4.43498e-06
-4.43826e-06
-4.43199e-06
-4.4331e-06
-4.43195e-06
-4.67778e-06
-4.6712e-06
-4.66357e-06
-4.65201e-06
-4.60701e-06
-4.62887e-06
-4.58871e-06
-4.60844e-06
-4.56418e-06
-4.59285e-06
-4.54281e-06
-4.57773e-06
-4.53024e-06
-4.56329e-06
-4.52398e-06
-4.54926e-06
-4.52558e-06
-4.53807e-06
-4.53096e-06
-4.53267e-06
-4.78102e-06
-4.76881e-06
-4.77401e-06
-4.74156e-06
-4.73133e-06
-4.71916e-06
-4.70232e-06
-4.69774e-06
-4.67839e-06
-4.68142e-06
-4.65722e-06
-4.66929e-06
-4.6393e-06
-4.65535e-06
-4.63298e-06
-4.64265e-06
-4.6323e-06
-4.63512e-06
-4.63243e-06
-4.63243e-06
-4.89646e-06
-4.89066e-06
-4.87396e-06
-4.84922e-06
-4.84541e-06
-4.82281e-06
-4.82e-06
-4.80294e-06
-4.7905e-06
-4.78585e-06
-4.76775e-06
-4.76609e-06
-4.75895e-06
-4.74958e-06
-4.75369e-06
-4.73982e-06
-4.74816e-06
-4.73822e-06
-4.74072e-06
-4.7391e-06
-5.02244e-06
-5.01473e-06
-5.00537e-06
-4.99219e-06
-4.94383e-06
-4.96837e-06
-4.919e-06
-4.94624e-06
-4.88904e-06
-4.92401e-06
-4.87225e-06
-4.90215e-06
-4.86404e-06
-4.88492e-06
-4.85794e-06
-4.87294e-06
-4.85368e-06
-4.86344e-06
-4.85669e-06
-4.85833e-06
-5.16482e-06
-5.15051e-06
-5.15984e-06
-5.113e-06
-5.1115e-06
-5.08846e-06
-5.08085e-06
-5.06728e-06
-5.05151e-06
-5.05289e-06
-5.02011e-06
-5.03447e-06
-5.00712e-06
-5.02013e-06
-4.99678e-06
-5.00587e-06
-4.99573e-06
-4.99742e-06
-4.99575e-06
-4.99527e-06
-5.33822e-06
-5.33229e-06
-5.31172e-06
-5.30219e-06
-5.25729e-06
-5.2793e-06
-5.21816e-06
-5.2543e-06
-5.18868e-06
-5.22766e-06
-5.17212e-06
-5.20276e-06
-5.16326e-06
-5.18368e-06
-5.15645e-06
-5.1709e-06
-5.15109e-06
-5.16092e-06
-5.15386e-06
-5.15555e-06
-5.54608e-06
-5.56154e-06
-5.47203e-06
-5.50995e-06
-5.45137e-06
-5.46332e-06
-5.43365e-06
-5.43508e-06
-5.40175e-06
-5.41703e-06
-5.37116e-06
-5.40216e-06
-5.34847e-06
-5.38661e-06
-5.33653e-06
-5.36989e-06
-5.33601e-06
-5.3544e-06
-5.34463e-06
-5.34696e-06
-5.79388e-06
-5.78827e-06
-5.75755e-06
-5.72946e-06
-5.72554e-06
-5.68934e-06
-5.69071e-06
-5.65964e-06
-5.66154e-06
-5.63613e-06
-5.63481e-06
-5.61709e-06
-5.60876e-06
-5.59678e-06
-5.6031e-06
-5.58332e-06
-5.5969e-06
-5.58162e-06
-5.58578e-06
-5.58331e-06
-6.11084e-06
-6.09828e-06
-6.08727e-06
-6.04379e-06
-6.0389e-06
-6.01234e-06
-5.99111e-06
-5.98541e-06
-5.94604e-06
-5.95378e-06
-5.92905e-06
-5.92834e-06
-5.90523e-06
-5.91148e-06
-5.89076e-06
-5.89458e-06
-5.88746e-06
-5.8856e-06
-5.8849e-06
-5.88381e-06
-6.46137e-06
-6.45628e-06
-6.42925e-06
-6.41844e-06
-6.35636e-06
-6.38106e-06
-6.31355e-06
-6.33893e-06
-6.29369e-06
-6.30653e-06
-6.2664e-06
-6.28213e-06
-6.24279e-06
-6.26244e-06
-6.22824e-06
-6.24654e-06
-6.22124e-06
-6.23342e-06
-6.22447e-06
-6.22651e-06
-6.49243e-06
-6.48716e-06
-6.48261e-06
-6.49044e-06
-6.48207e-06
-6.48808e-06
-6.48077e-06
-6.48794e-06
-6.48361e-06
-6.48591e-06
-6.48146e-06
-6.48553e-06
-6.48105e-06
-6.48367e-06
-6.48151e-06
-6.48305e-06
-6.48225e-06
-6.48261e-06
-6.4826e-06
-6.48261e-06
)
;

boundaryField
{
    movingWall
    {
        type            calculated;
        value           nonuniform List<scalar> 
20
(
-6.49243e-06
-6.48716e-06
-6.48261e-06
-6.49044e-06
-6.48207e-06
-6.48808e-06
-6.48077e-06
-6.48794e-06
-6.48361e-06
-6.48591e-06
-6.48146e-06
-6.48553e-06
-6.48105e-06
-6.48367e-06
-6.48151e-06
-6.48305e-06
-6.48225e-06
-6.48261e-06
-6.4826e-06
-6.48261e-06
)
;
    }
    fixedWalls
    {
        type            calculated;
        value           nonuniform List<scalar> 
60
(
-2.62856e-07
-7.55386e-07
-1.84093e-06
-2.89861e-06
-3.62433e-06
-4.04384e-06
-4.29117e-06
-4.45088e-06
-4.5708e-06
-4.67778e-06
-4.78102e-06
-4.89646e-06
-5.02244e-06
-5.16482e-06
-5.33822e-06
-5.54608e-06
-5.79388e-06
-6.11084e-06
-6.46137e-06
-6.49243e-06
-2.6238e-07
-7.48112e-07
-1.81203e-06
-2.8372e-06
-3.5321e-06
-3.93241e-06
-4.16646e-06
-4.3175e-06
-4.43195e-06
-4.53267e-06
-4.63243e-06
-4.7391e-06
-4.85833e-06
-4.99527e-06
-5.15555e-06
-5.34696e-06
-5.58331e-06
-5.88381e-06
-6.22651e-06
-6.48261e-06
-2.62856e-07
-2.62581e-07
-2.62942e-07
-2.62016e-07
-2.63266e-07
-2.61742e-07
-2.63388e-07
-2.61619e-07
-2.63371e-07
-2.61596e-07
-2.63174e-07
-2.61897e-07
-2.62854e-07
-2.62099e-07
-2.62597e-07
-2.6227e-07
-2.62516e-07
-2.62355e-07
-2.62396e-07
-2.6238e-07
)
;
    }
    frontAndBack
    {
        type            empty;
    }
}


// ************************************************************************* //
