/*--------------------------------*- C++ -*----------------------------------*\
| =========                 |                                                 |
| \\      /  F ield         | OpenFOAM: The Open Source CFD Toolbox           |
|  \\    /   O peration     | Version:  2312                                  |
|   \\  /    A nd           | Website:  www.openfoam.com                      |
|    \\/     M anipulation  |                                                 |
\*---------------------------------------------------------------------------*/
FoamFile
{
    version     2.0;
    format      ascii;
    arch        "LSB;label=32;scalar=64";
    class       volScalarField;
    location    "3";
    object      kTotal;
}
// * * * * * * * * * * * * * * * * * * * * * * * * * * * * * * * * * * * * * //

dimensions      [0 2 -2 0 0 0 0];

internalField   nonuniform List<scalar> 
400
(
0.000123385
0.000123379
0.000123372
0.000123369
0.000123363
0.000123361
0.000123356
0.000123354
0.00012335
0.000123349
0.000123345
0.000123345
0.000123342
0.000123341
0.00012334
0.00012334
0.000123339
0.000123339
0.000123338
0.000123338
0.000208239
0.000208228
0.000208062
0.000207997
0.000207881
0.000207822
0.000207723
0.000207674
0.00020759
0.000207549
0.000207481
0.000207448
0.000207396
0.000207371
0.000207334
0.000207317
0.000207295
0.000207286
0.000207279
0.000207276
0.000345543
0.000345505
0.000345049
0.000344866
0.000344544
0.000344383
0.000344107
0.000343969
0.000343738
0.000343623
0.000343436
0.000343343
0.000343199
0.00034313
0.000343028
0.00034298
0.00034292
0.000342895
0.000342875
0.000342867
0.000463214
0.000463142
0.000462304
0.00046197
0.000461375
0.000461084
0.000460571
0.000460321
0.000459896
0.000459682
0.000459343
0.000459168
0.000458905
0.000458775
0.000458589
0.0004585
0.000458392
0.000458344
0.000458307
0.000458293
0.000539722
0.00053962
0.000538464
0.000537998
0.00053718
0.000536774
0.000536074
0.000535725
0.000535138
0.000534844
0.00053437
0.000534135
0.00053377
0.000533592
0.000533335
0.000533213
0.000533062
0.000532997
0.000532946
0.000532926
0.000583501
0.000583375
0.000582012
0.000581463
0.000580494
0.000580015
0.000579185
0.000578774
0.000578078
0.000577736
0.000577172
0.000576897
0.000576463
0.000576254
0.00057595
0.000575807
0.00057563
0.000575552
0.000575493
0.000575469
0.00060869
0.000608548
0.000607055
0.000606453
0.000605394
0.00060487
0.000603962
0.000603511
0.000602751
0.000602376
0.000601761
0.000601459
0.000600986
0.000600756
0.000600425
0.000600267
0.000600074
0.000599989
0.000599924
0.000599898
0.000624566
0.000624413
0.000622836
0.000622198
0.00062108
0.000620527
0.00061957
0.000619092
0.000618292
0.000617893
0.000617246
0.000616926
0.000616428
0.000616186
0.000615835
0.00061567
0.000615465
0.000615376
0.000615307
0.00061528
0.000636243
0.000636085
0.000634439
0.000633782
0.000632617
0.000632039
0.00063104
0.000630549
0.000629711
0.000629303
0.000628625
0.000628297
0.000627775
0.000627529
0.000627161
0.000626992
0.000626778
0.000626686
0.000626615
0.000626587
0.000646277
0.000646111
0.000644418
0.000643734
0.000642532
0.000641938
0.000640908
0.000640395
0.000639535
0.000639108
0.000638412
0.000638069
0.000637536
0.000637276
0.0006369
0.000636723
0.000636503
0.000636407
0.000636333
0.000636304
0.000656049
0.000655876
0.000654132
0.00065343
0.000652182
0.00065157
0.000650504
0.000649978
0.00064909
0.000648652
0.000647935
0.000647582
0.000647031
0.000646764
0.000646376
0.000646193
0.000645968
0.000645867
0.000645793
0.000645763
0.000666369
0.000666188
0.000664378
0.000663657
0.000662376
0.00066174
0.00066064
0.000660101
0.000659177
0.000658732
0.000657982
0.000657628
0.00065705
0.000656782
0.000656374
0.000656192
0.000655956
0.000655856
0.000655778
0.000655747
0.000677789
0.000677598
0.000675735
0.000674981
0.000673655
0.000673001
0.000671865
0.0006713
0.000670352
0.000669883
0.000669116
0.00066874
0.000668151
0.000667865
0.000667451
0.000667254
0.000667014
0.000666907
0.000666827
0.000666795
0.0006908
0.000690602
0.000688657
0.000687877
0.000686505
0.000685808
0.000684638
0.000684046
0.000683061
0.000682575
0.000681775
0.000681385
0.000680773
0.000680477
0.000680045
0.000679843
0.000679593
0.000679482
0.0006794
0.000679367
0.000705903
0.000705692
0.000703667
0.000702849
0.000701407
0.000700693
0.00069946
0.000698847
0.000697817
0.000697307
0.000696474
0.000696065
0.000695425
0.000695115
0.000694666
0.000694453
0.000694192
0.000694076
0.000693989
0.000693955
0.000723798
0.000723574
0.000721437
0.000720581
0.000719062
0.000718309
0.000717013
0.000716369
0.000715286
0.000714749
0.000713875
0.000713442
0.000712771
0.000712443
0.000711971
0.000711747
0.000711471
0.00071135
0.000711258
0.000711222
0.00074556
0.000745317
0.000743041
0.000742134
0.000740524
0.000739715
0.000738357
0.000737654
0.000736514
0.00073594
0.000735001
0.000734557
0.00073383
0.000733497
0.000732983
0.000732756
0.000732458
0.000732333
0.000732235
0.000732197
0.000772077
0.000771821
0.00076939
0.000768415
0.000766688
0.00076583
0.00076435
0.000763623
0.000762383
0.00076178
0.000760774
0.000760289
0.000759522
0.000759155
0.000758613
0.000758362
0.000758049
0.000757911
0.000757809
0.000757767
0.000799721
0.000799575
0.000797107
0.000796125
0.000794385
0.000793523
0.000792027
0.000791284
0.000790021
0.000789395
0.000788365
0.000787859
0.000787063
0.000786676
0.000786114
0.000785846
0.000785516
0.000785369
0.00078526
0.000785216
0.000805109
0.000804992
0.000804957
0.000804898
0.000804866
0.000804822
0.000804797
0.000804775
0.000804745
0.000804729
0.00080471
0.000804702
0.000804688
0.000804688
0.000804679
0.000804679
0.000804676
0.000804676
0.000804676
0.000804676
)
;

boundaryField
{
    movingWall
    {
        type            calculated;
        value           nonuniform List<scalar> 
20
(
0.000805109
0.000804992
0.000804957
0.000804898
0.000804866
0.000804822
0.000804797
0.000804775
0.000804745
0.000804729
0.00080471
0.000804702
0.000804688
0.000804688
0.000804679
0.000804679
0.000804676
0.000804676
0.000804676
0.000804676
)
;
    }
    fixedWalls
    {
        type            calculated;
        value           nonuniform List<scalar> 
60
(
0.000123385
0.000208239
0.000345543
0.000463214
0.000539722
0.000583501
0.00060869
0.000624566
0.000636243
0.000646277
0.000656049
0.000666369
0.000677789
0.0006908
0.000705903
0.000723798
0.00074556
0.000772077
0.000799721
0.000805109
0.000123338
0.000207276
0.000342867
0.000458293
0.000532926
0.000575469
0.000599898
0.00061528
0.000626587
0.000636304
0.000645763
0.000655747
0.000666795
0.000679367
0.000693955
0.000711222
0.000732197
0.000757767
0.000785216
0.000804676
0.000123385
0.000123379
0.000123372
0.000123369
0.000123363
0.000123361
0.000123356
0.000123354
0.00012335
0.000123349
0.000123345
0.000123345
0.000123342
0.000123341
0.00012334
0.00012334
0.000123339
0.000123339
0.000123338
0.000123338
)
;
    }
    frontAndBack
    {
        type            empty;
    }
}


// ************************************************************************* //
