/*--------------------------------*- C++ -*----------------------------------*\
| =========                 |                                                 |
| \\      /  F ield         | OpenFOAM: The Open Source CFD Toolbox           |
|  \\    /   O peration     | Version:  2312                                  |
|   \\  /    A nd           | Website:  www.openfoam.com                      |
|    \\/     M anipulation  |                                                 |
\*---------------------------------------------------------------------------*/
FoamFile
{
    version     2.0;
    format      ascii;
    arch        "LSB;label=32;scalar=64";
    class       volVectorField;
    location    "3";
    object      kU;
}
// * * * * * * * * * * * * * * * * * * * * * * * * * * * * * * * * * * * * * //

dimensions      [0 3 -3 0 0 0 0];

internalField   nonuniform List<vector> 
400
(
(-6.15611e-05 2.14562e-11 0)
(-6.15581e-05 -5.13051e-12 0)
(-6.15548e-05 1.22386e-12 0)
(-6.15535e-05 -2.98061e-13 0)
(-6.155e-05 6.9647e-14 0)
(-6.15496e-05 -1.93221e-14 0)
(-6.15461e-05 2.72501e-15 0)
(-6.15463e-05 -2.28374e-15 0)
(-6.15431e-05 -6.56321e-16 0)
(-6.15436e-05 -7.0709e-16 0)
(-6.15411e-05 -4.05668e-16 0)
(-6.15413e-05 -2.54211e-16 0)
(-6.15398e-05 -1.23793e-16 0)
(-6.15397e-05 -4.00291e-17 0)
(-6.15389e-05 1.29835e-17 0)
(-6.15387e-05 4.21787e-17 0)
(-6.15382e-05 5.47321e-17 0)
(-6.15382e-05 4.72587e-17 0)
(-6.1538e-05 1.96142e-17 0)
(-6.1538e-05 5.72099e-18 0)
(-0.000103742 -3.70704e-11 0)
(-0.000103735 8.90335e-12 0)
(-0.000103655 -2.13747e-12 0)
(-0.000103621 5.09832e-13 0)
(-0.000103565 -1.38348e-13 0)
(-0.000103534 2.16435e-14 0)
(-0.000103487 -1.62275e-14 0)
(-0.00010346 -4.36517e-15 0)
(-0.000103421 -5.2038e-15 0)
(-0.000103399 -3.11992e-15 0)
(-0.000103367 -2.14784e-15 0)
(-0.000103349 -1.23125e-15 0)
(-0.000103324 -6.07513e-16 0)
(-0.00010331 -1.76866e-16 0)
(-0.000103294 8.49435e-17 0)
(-0.000103284 2.24371e-16 0)
(-0.000103274 2.80848e-16 0)
(-0.000103269 2.53857e-16 0)
(-0.000103265 9.79044e-17 0)
(-0.000103264 2.94825e-17 0)
(-0.000171851 6.46175e-11 0)
(-0.000171832 -1.46793e-11 0)
(-0.000171607 3.44599e-12 0)
(-0.000171514 -8.31258e-13 0)
(-0.000171359 1.50628e-13 0)
(-0.000171274 -7.35812e-14 0)
(-0.000171143 -1.32609e-14 0)
(-0.000171069 -2.0014e-14 0)
(-0.000170962 -1.20201e-14 0)
(-0.000170897 -8.75994e-15 0)
(-0.000170813 -5.4717e-15 0)
(-0.000170759 -3.16868e-15 0)
(-0.000170696 -1.46463e-15 0)
(-0.000170654 -3.40037e-16 0)
(-0.00017061 3.43987e-16 0)
(-0.000170581 6.9686e-16 0)
(-0.000170556 8.25592e-16 0)
(-0.000170541 7.25053e-16 0)
(-0.000170532 2.88281e-16 0)
(-0.000170527 8.48431e-17 0)
(-0.000230157 -9.22189e-11 0)
(-0.000230124 1.98134e-11 0)
(-0.000229705 -4.83832e-12 0)
(-0.000229543 9.03984e-13 0)
(-0.00022925 -3.06223e-13 0)
(-0.000229106 -1.08828e-14 0)
(-0.000228852 -5.3764e-14 0)
(-0.00022873 -2.96527e-14 0)
(-0.000228518 -2.25435e-14 0)
(-0.000228415 -1.48662e-14 0)
(-0.000228245 -9.32473e-15 0)
(-0.000228161 -5.1653e-15 0)
(-0.000228028 -2.18286e-15 0)
(-0.000227966 -2.28319e-16 0)
(-0.000227874 9.33112e-16 0)
(-0.000227829 1.50048e-15 0)
(-0.000227778 1.66994e-15 0)
(-0.000227752 1.44103e-15 0)
(-0.000227735 5.85142e-16 0)
(-0.000227728 1.66744e-16 0)
(-0.000268049 1.25571e-10 0)
(-0.000267998 -2.8584e-11 0)
(-0.000267428 6.57788e-12 0)
(-0.000267194 -1.76036e-12 0)
(-0.000266801 2.59157e-13 0)
(-0.00026659 -1.8147e-13 0)
(-0.000266255 -3.73049e-14 0)
(-0.000266073 -4.94166e-14 0)
(-0.000265791 -2.81136e-14 0)
(-0.000265636 -2.01194e-14 0)
(-0.000265417 -1.17969e-14 0)
(-0.000265286 -6.26473e-15 0)
(-0.000265121 -2.16452e-15 0)
(-0.000265019 4.36337e-16 0)
(-0.000264905 1.9419e-15 0)
(-0.000264834 2.61553e-15 0)
(-0.000264768 2.73996e-15 0)
(-0.00026473 2.29523e-15 0)
(-0.000264708 9.61021e-16 0)
(-0.000264697 2.64214e-16 0)
(-0.000289729 -1.52883e-10 0)
(-0.000289669 3.04785e-11 0)
(-0.000288989 -7.33618e-12 0)
(-0.000288722 1.18536e-12 0)
(-0.000288249 -4.08126e-13 0)
(-0.000288006 -4.48701e-14 0)
(-0.000287605 -7.59352e-14 0)
(-0.000287396 -4.83372e-14 0)
(-0.000287056 -3.31169e-14 0)
(-0.000286887 -2.17202e-14 0)
(-0.000286606 -1.24412e-14 0)
(-0.000286473 -5.8862e-15 0)
(-0.000286256 -1.16813e-15 0)
(-0.000286155 1.77732e-15 0)
(-0.000286007 3.39276e-15 0)
(-0.000285932 4.00521e-15 0)
(-0.00028585 3.96418e-15 0)
(-0.000285808 3.24329e-15 0)
(-0.000285781 1.39269e-15 0)
(-0.000285768 3.69661e-16 0)
(-0.000302199 2.05749e-10 0)
(-0.000302131 -4.36161e-11 0)
(-0.000301389 1.00409e-11 0)
(-0.000301094 -2.29654e-12 0)
(-0.00030058 3.58231e-13 0)
(-0.000300313 -1.99695e-13 0)
(-0.000299873 -4.57044e-14 0)
(-0.000299645 -5.35193e-14 0)
(-0.000299273 -3.15473e-14 0)
(-0.000299086 -2.06357e-14 0)
(-0.000298784 -1.08847e-14 0)
(-0.000298633 -4.00245e-15 0)
(-0.000298405 8.5022e-16 0)
(-0.000298285 3.79946e-15 0)
(-0.00029813 5.27587e-15 0)
(-0.000298044 5.65937e-15 0)
(-0.000297956 5.33805e-15 0)
(-0.000297909 4.25517e-15 0)
(-0.000297879 1.87393e-15 0)
(-0.000297866 4.8208e-16 0)
(-0.000310057 -2.64411e-10 0)
(-0.000309983 5.50397e-11 0)
(-0.0003092 -1.31146e-11 0)
(-0.000308885 2.57459e-12 0)
(-0.000308349 -7.00108e-13 0)
(-0.000308061 4.9981e-14 0)
(-0.0003076 -8.76565e-14 0)
(-0.000307354 -3.69231e-14 0)
(-0.000306971 -2.94422e-14 0)
(-0.000306761 -1.61924e-14 0)
(-0.000306459 -7.43023e-15 0)
(-0.000306282 -7.03085e-16 0)
(-0.000306058 3.82288e-15 0)
(-0.000305919 6.44901e-15 0)
(-0.000305764 7.55396e-15 0)
(-0.000305668 7.54113e-15 0)
(-0.000305578 6.82484e-15 0)
(-0.000305526 5.32622e-15 0)
(-0.000305496 2.39562e-15 0)
(-0.000305481 5.98895e-16 0)
(-0.000315836 3.53107e-10 0)
(-0.000315761 -7.29908e-11 0)
(-0.000314941 1.69326e-11 0)
(-0.000314626 -3.56142e-12 0)
(-0.000314045 6.53805e-13 0)
(-0.000313763 -2.22071e-13 0)
(-0.000313272 -2.26525e-14 0)
(-0.000313027 -3.92914e-14 0)
(-0.000312621 -1.98292e-14 0)
(-0.000312413 -1.02041e-14 0)
(-0.000312084 -2.07445e-15 0)
(-0.000311918 3.79594e-15 0)
(-0.000311666 7.62447e-15 0)
(-0.000311542 9.62875e-15 0)
(-0.00031136 1.01508e-14 0)
(-0.000311279 9.60118e-15 0)
(-0.00031117 8.39783e-15 0)
(-0.000311127 6.42313e-15 0)
(-0.000311091 2.94347e-15 0)
(-0.000311078 7.17955e-16 0)
(-0.0003208 -4.70971e-10 0)
(-0.00032072 9.87154e-11 0)
(-0.000319877 -2.32603e-11 0)
(-0.000319541 4.69993e-12 0)
(-0.000318962 -1.12249e-12 0)
(-0.000318655 1.75185e-13 0)
(-0.00031816 -7.60684e-14 0)
(-0.000317893 -1.17379e-14 0)
(-0.000317485 -1.18705e-14 0)
(-0.000317257 -1.51618e-15 0)
(-0.000316935 4.67345e-15 0)
(-0.000316746 9.29778e-15 0)
(-0.000316503 1.20917e-14 0)
(-0.000316356 1.31977e-14 0)
(-0.000316188 1.29607e-14 0)
(-0.000316087 1.17487e-14 0)
(-0.000315989 9.98388e-15 0)
(-0.000315934 7.50902e-15 0)
(-0.000315901 3.49785e-15 0)
(-0.000315886 8.32863e-16 0)
(-0.000325633 6.29688e-10 0)
(-0.000325554 -1.35556e-10 0)
(-0.000324679 3.1553e-11 0)
(-0.000324344 -6.85033e-12 0)
(-0.000323725 1.42967e-12 0)
(-0.000323425 -3.61993e-13 0)
(-0.000322901 4.69406e-14 0)
(-0.00032264 -2.0365e-14 0)
(-0.000322206 4.51278e-15 0)
(-0.000321985 7.71311e-15 0)
(-0.000321639 1.27524e-14 0)
(-0.000321457 1.55673e-14 0)
(-0.000321196 1.69941e-14 0)
(-0.000321054 1.6985e-14 0)
(-0.000320872 1.58316e-14 0)
(-0.000320775 1.38737e-14 0)
(-0.000320668 1.15064e-14 0)
(-0.000320616 8.52731e-15 0)
(-0.00032058 4.02575e-15 0)
(-0.000320565 9.37558e-16 0)
(-0.000330737 -8.1583e-10 0)
(-0.000330649 1.77236e-10 0)
(-0.000329752 -4.17875e-11 0)
(-0.000329404 8.87138e-12 0)
(-0.000328765 -2.0209e-12 0)
(-0.000328458 4.32571e-13 0)
(-0.00032791 -8.20653e-14 0)
(-0.000327649 3.12797e-14 0)
(-0.000327193 1.30789e-14 0)
(-0.000326973 2.02282e-14 0)
(-0.000326607 2.14474e-14 0)
(-0.000326431 2.23468e-14 0)
(-0.000326145 2.20918e-14 0)
(-0.000326016 2.07617e-14 0)
(-0.00032581 1.85857e-14 0)
(-0.000325726 1.58301e-14 0)
(-0.000325604 1.28537e-14 0)
(-0.000325559 9.4045e-15 0)
(-0.000325518 4.4971e-15 0)
(-0.000325504 1.02304e-15 0)
(-0.000336383 1.02983e-09 0)
(-0.000336292 -2.31116e-10 0)
(-0.000335365 5.46497e-11 0)
(-0.000334994 -1.19764e-11 0)
(-0.000334356 2.80207e-12 0)
(-0.000334016 -5.86263e-13 0)
(-0.000333473 1.63614e-13 0)
(-0.000333177 1.93742e-15 0)
(-0.000332732 3.90529e-14 0)
(-0.00033248 3.08749e-14 0)
(-0.000332122 3.12741e-14 0)
(-0.000331919 2.92193e-14 0)
(-0.000331643 2.70692e-14 0)
(-0.00033149 2.42589e-14 0)
(-0.000331296 2.09957e-14 0)
(-0.000331191 1.74453e-14 0)
(-0.00033108 1.39051e-14 0)
(-0.000331022 1.00671e-14 0)
(-0.000330985 4.85925e-15 0)
(-0.000330968 1.08156e-15 0)
(-0.000342818 -1.18197e-09 0)
(-0.000342725 2.77722e-10 0)
(-0.000341749 -6.49084e-11 0)
(-0.000341382 1.49405e-11 0)
(-0.000340697 -3.38092e-12 0)
(-0.00034036 8.18668e-13 0)
(-0.000339778 -1.12118e-13 0)
(-0.000339489 9.19291e-14 0)
(-0.000339005 4.3484e-14 0)
(-0.000338761 4.72105e-14 0)
(-0.000338377 4.03839e-14 0)
(-0.000338175 3.59275e-14 0)
(-0.000337883 3.14849e-14 0)
(-0.000337728 2.71261e-14 0)
(-0.000337524 2.27958e-14 0)
(-0.000337418 1.85271e-14 0)
(-0.000337299 1.45236e-14 0)
(-0.000337242 1.04066e-14 0)
(-0.000337202 5.07167e-15 0)
(-0.000337186 1.10463e-15 0)
(-0.000350282 1.29729e-09 0)
(-0.00035018 -3.15325e-10 0)
(-0.000349178 7.37618e-11 0)
(-0.000348773 -1.79338e-11 0)
(-0.000348075 4.29716e-12 0)
(-0.000347707 -9.17827e-13 0)
(-0.000347121 3.3887e-13 0)
(-0.000346796 2.69211e-14 0)
(-0.000346314 8.59048e-14 0)
(-0.00034604 5.64179e-14 0)
(-0.000345651 5.05291e-14 0)
(-0.000345431 4.13261e-14 0)
(-0.000345131 3.48361e-14 0)
(-0.000344966 2.8922e-14 0)
(-0.000344755 2.36708e-14 0)
(-0.000344641 1.88478e-14 0)
(-0.00034452 1.45506e-14 0)
(-0.000344457 1.03444e-14 0)
(-0.000344418 5.06809e-15 0)
(-0.0003444 1.08456e-15 0)
(-0.000359126 -1.3761e-09 0)
(-0.000359006 3.27189e-10 0)
(-0.000357982 -7.65206e-11 0)
(-0.000357536 1.81338e-11 0)
(-0.000356805 -3.98055e-12 0)
(-0.000356423 1.11919e-12 0)
(-0.00035579 -6.90291e-14 0)
(-0.000355467 1.65989e-13 0)
(-0.000354942 8.38135e-14 0)
(-0.000354666 7.46697e-14 0)
(-0.000354252 5.65133e-14 0)
(-0.00035402 4.51208e-14 0)
(-0.000353711 3.62074e-14 0)
(-0.000353528 2.91447e-14 0)
(-0.000353317 2.32637e-14 0)
(-0.000353189 1.81859e-14 0)
(-0.000353068 1.38498e-14 0)
(-0.000352998 9.75994e-15 0)
(-0.000352957 4.81014e-15 0)
(-0.000352938 1.01348e-15 0)
(-0.000369882 1.46825e-09 0)
(-0.000369765 -3.70638e-10 0)
(-0.000368642 8.8051e-11 0)
(-0.000368202 -2.17809e-11 0)
(-0.000367399 5.76317e-12 0)
(-0.000367013 -1.05622e-12 0)
(-0.000366333 5.62194e-13 0)
(-0.000365997 7.514e-14 0)
(-0.000365426 1.34218e-13 0)
(-0.000365152 7.55323e-14 0)
(-0.000364683 6.07985e-14 0)
(-0.00036447 4.45715e-14 0)
(-0.00036411 3.48199e-14 0)
(-0.00036395 2.71505e-14 0)
(-0.00036369 2.12281e-14 0)
(-0.000363586 1.63327e-14 0)
(-0.000363431 1.23091e-14 0)
(-0.000363376 8.6443e-15 0)
(-0.000363325 4.26781e-15 0)
(-0.000363307 8.78553e-16 0)
(-0.000382983 -1.56046e-09 0)
(-0.000382862 3.98636e-10 0)
(-0.000381651 -9.23725e-11 0)
(-0.000381186 2.55267e-11 0)
(-0.000380325 -5.16808e-12 0)
(-0.000379909 2.03557e-12 0)
(-0.000379179 -1.02644e-13 0)
(-0.000378819 2.87507e-13 0)
(-0.000378218 8.90833e-14 0)
(-0.000377913 8.60335e-14 0)
(-0.000377423 5.25543e-14 0)
(-0.00037718 4.03158e-14 0)
(-0.000376808 2.96102e-14 0)
(-0.000376622 2.28116e-14 0)
(-0.000376361 1.74617e-14 0)
(-0.000376234 1.32996e-14 0)
(-0.000376081 9.93942e-15 0)
(-0.000376013 6.93905e-15 0)
(-0.000375962 3.44074e-15 0)
(-0.000375942 6.76268e-16 0)
(-0.000396629 1.56917e-09 0)
(-0.00039656 -3.49e-10 0)
(-0.000395339 8.39763e-11 0)
(-0.000394853 -1.5539e-11 0)
(-0.000394015 4.66198e-12 0)
(-0.000393571 -1.79504e-13 0)
(-0.000392857 3.79684e-13 0)
(-0.000392473 1.44675e-13 0)
(-0.000391864 8.7611e-14 0)
(-0.000391544 6.13752e-14 0)
(-0.000391049 3.81328e-14 0)
(-0.000390788 2.82775e-14 0)
(-0.00039041 2.01852e-14 0)
(-0.000390207 1.53432e-14 0)
(-0.000389943 1.15601e-14 0)
(-0.0003898 8.72251e-15 0)
(-0.000389648 6.48182e-15 0)
(-0.000389568 4.60294e-15 0)
(-0.000389518 2.34925e-15 0)
(-0.000389495 4.20758e-16 0)
(-0.000399309 -1.63764e-09 0)
(-0.000399252 4.48974e-10 0)
(-0.000399237 -1.06809e-10 0)
(-0.000399204 3.0275e-11 0)
(-0.000399192 -7.35483e-12 0)
(-0.000399167 2.24965e-12 0)
(-0.000399158 -4.75836e-13 0)
(-0.000399143 2.1436e-13 0)
(-0.000399131 -9.77699e-15 0)
(-0.000399121 3.4209e-14 0)
(-0.000399114 1.06616e-14 0)
(-0.000399108 1.09048e-14 0)
(-0.000399104 6.81476e-15 0)
(-0.000399102 5.36836e-15 0)
(-0.000399099 3.93822e-15 0)
(-0.000399098 2.97177e-15 0)
(-0.000399097 2.21671e-15 0)
(-0.000399097 1.62748e-15 0)
(-0.000399096 8.71101e-16 0)
(-0.000399096 1.42783e-16 0)
)
;

boundaryField
{
    movingWall
    {
        type            calculated;
        value           nonuniform List<vector> 
20
(
(-0.000399308 -0 -0)
(-0.000399252 -0 -0)
(-0.000399237 -0 -0)
(-0.000399204 -0 -0)
(-0.000399192 -0 -0)
(-0.000399167 -0 -0)
(-0.000399158 -0 -0)
(-0.000399143 -0 -0)
(-0.000399131 -0 -0)
(-0.000399121 -0 -0)
(-0.000399114 -0 -0)
(-0.000399108 -0 -0)
(-0.000399104 -0 -0)
(-0.000399102 -0 -0)
(-0.000399099 -0 -0)
(-0.000399098 -0 -0)
(-0.000399097 -0 -0)
(-0.000399097 -0 -0)
(-0.000399096 -0 -0)
(-0.000399096 -0 -0)
)
;
    }
    fixedWalls
    {
        type            calculated;
        value           nonuniform List<vector> 
60
(
(-6.15611e-05 -0 -0)
(-0.000103742 -0 -0)
(-0.000171851 -0 -0)
(-0.000230157 -0 -0)
(-0.000268049 -0 -0)
(-0.000289729 -0 -0)
(-0.0003022 -0 -0)
(-0.000310057 -0 -0)
(-0.000315836 -0 -0)
(-0.0003208 -0 -0)
(-0.000325634 -0 -0)
(-0.000330736 -0 -0)
(-0.000336383 -0 -0)
(-0.000342818 -0 -0)
(-0.000350282 -0 -0)
(-0.000359126 -0 -0)
(-0.000369883 -0 -0)
(-0.000382983 -0 -0)
(-0.00039663 -0 -0)
(-0.000399308 -0 -0)
(-6.1538e-05 -0 -0)
(-0.000103264 -0 -0)
(-0.000170527 -0 -0)
(-0.000227728 -0 -0)
(-0.000264697 -0 -0)
(-0.000285768 -0 -0)
(-0.000297866 -0 -0)
(-0.000305481 -0 -0)
(-0.000311078 -0 -0)
(-0.000315886 -0 -0)
(-0.000320565 -0 -0)
(-0.000325504 -0 -0)
(-0.000330968 -0 -0)
(-0.000337186 -0 -0)
(-0.0003444 -0 -0)
(-0.000352938 -0 -0)
(-0.000363307 -0 -0)
(-0.000375942 -0 -0)
(-0.000389495 -0 -0)
(-0.000399096 -0 -0)
(-6.15611e-05 -0 -0)
(-6.15581e-05 -0 -0)
(-6.15548e-05 -0 -0)
(-6.15535e-05 -0 -0)
(-6.155e-05 -0 -0)
(-6.15496e-05 -0 -0)
(-6.15461e-05 -0 -0)
(-6.15463e-05 -0 -0)
(-6.15431e-05 -0 -0)
(-6.15436e-05 -0 -0)
(-6.15411e-05 -0 -0)
(-6.15413e-05 -0 -0)
(-6.15398e-05 -0 -0)
(-6.15397e-05 -0 -0)
(-6.15389e-05 -0 -0)
(-6.15387e-05 -0 -0)
(-6.15382e-05 -0 -0)
(-6.15382e-05 -0 -0)
(-6.1538e-05 -0 -0)
(-6.1538e-05 -0 -0)
)
;
    }
    frontAndBack
    {
        type            empty;
    }
}


// ************************************************************************* //
