/*--------------------------------*- C++ -*----------------------------------*\
| =========                 |                                                 |
| \\      /  F ield         | OpenFOAM: The Open Source CFD Toolbox           |
|  \\    /   O peration     | Version:  2312                                  |
|   \\  /    A nd           | Website:  www.openfoam.com                      |
|    \\/     M anipulation  |                                                 |
\*---------------------------------------------------------------------------*/
FoamFile
{
    version     2.0;
    format      ascii;
    arch        "LSB;label=32;scalar=64";
    class       volTensorField;
    location    "3";
    object      kU2;
}
// * * * * * * * * * * * * * * * * * * * * * * * * * * * * * * * * * * * * * //

dimensions      [0 4 -4 0 0 0 0];

internalField   nonuniform List<tensor> 
400
(
(6.15611e-05 -2.17468e-11 -0 -2.14562e-11 7.57952e-18 0 -0 0 0)
(6.15581e-05 5.22282e-12 -0 5.13051e-12 4.35292e-19 -0 -0 -0 0)
(6.15548e-05 -1.24564e-12 -0 -1.22386e-12 2.47663e-20 0 -0 0 0)
(6.15535e-05 3.05033e-13 -0 2.98061e-13 1.47706e-21 -0 -0 -0 0)
(6.155e-05 -7.1145e-14 -0 -6.9647e-14 8.05043e-23 0 -0 0 0)
(6.15496e-05 2.00192e-14 -0 1.93221e-14 6.28458e-24 -0 -0 -0 0)
(6.15461e-05 -2.6231e-15 -0 -2.72501e-15 1.1614e-25 0 -0 0 0)
(6.15463e-05 2.51014e-15 -0 2.28374e-15 9.31413e-26 -0 -0 -0 0)
(6.15431e-05 8.16933e-16 -0 6.56321e-16 8.71212e-27 -0 -0 -0 0)
(6.15436e-05 8.46998e-16 -0 7.0709e-16 9.73138e-27 -0 -0 -0 0)
(6.15411e-05 5.14803e-16 -0 4.05668e-16 3.39349e-27 -0 -0 -0 0)
(6.15413e-05 3.36832e-16 -0 2.54211e-16 1.39136e-27 -0 -0 -0 0)
(6.15398e-05 1.81729e-16 -0 1.23793e-16 3.65565e-28 -0 -0 -0 0)
(6.15397e-05 7.4301e-17 -0 4.00291e-17 4.83299e-29 -0 -0 -0 0)
(6.15389e-05 2.20445e-18 -0 -1.29835e-17 -4.65096e-31 0 -0 -0 0)
(6.15387e-05 -4.00938e-17 -0 -4.21787e-17 2.74803e-29 0 -0 0 0)
(6.15382e-05 -6.2949e-17 -0 -5.47321e-17 5.59868e-29 0 -0 0 0)
(6.15382e-05 -6.70054e-17 -0 -4.72587e-17 5.14573e-29 0 -0 0 0)
(6.1538e-05 -4.58355e-17 -0 -1.96142e-17 1.46093e-29 0 -0 0 0)
(6.1538e-05 3.70868e-17 -0 -5.72099e-18 -3.44784e-30 0 -0 -0 0)
(0.000103742 3.74911e-11 -0 3.70704e-11 1.33968e-17 -0 -0 -0 0)
(0.000103735 -9.05157e-12 -0 -8.90335e-12 7.76874e-19 0 -0 0 0)
(0.000103655 2.17473e-12 -0 2.13747e-12 4.4845e-20 -0 -0 -0 0)
(0.000103621 -5.20546e-13 -0 -5.09832e-13 2.56118e-21 0 -0 0 0)
(0.000103565 1.42918e-13 -0 1.38348e-13 1.90918e-22 -0 -0 -0 0)
(0.000103534 -2.12859e-14 -0 -2.16435e-14 4.44976e-24 0 -0 0 0)
(0.000103487 1.7681e-14 -0 1.62275e-14 2.7725e-24 -0 -0 -0 0)
(0.00010346 5.31991e-15 -0 4.36517e-15 2.24457e-25 -0 -0 -0 0)
(0.000103421 6.08854e-15 -0 5.2038e-15 3.06354e-25 -0 -0 -0 0)
(0.000103399 3.82429e-15 -0 3.11992e-15 1.15393e-25 -0 -0 -0 0)
(0.000103367 2.71078e-15 -0 2.14784e-15 5.63269e-26 -0 -0 -0 0)
(0.000103349 1.6534e-15 -0 1.23125e-15 1.96979e-26 -0 -0 -0 0)
(0.000103324 9.04515e-16 -0 6.07513e-16 5.31826e-27 -0 -0 -0 0)
(0.00010331 3.53362e-16 -0 1.76866e-16 6.04951e-28 -0 -0 -0 0)
(0.000103294 -8.10818e-18 -0 -8.49435e-17 6.66776e-30 0 -0 0 0)
(0.000103284 -2.14247e-16 -0 -2.24371e-16 4.65425e-28 0 -0 0 0)
(0.000103274 -3.20306e-16 -0 -2.80848e-16 8.71054e-28 0 -0 0 0)
(0.000103269 -3.47959e-16 -0 -2.53857e-16 8.55358e-28 0 -0 0 0)
(0.000103265 -2.35612e-16 -0 -9.79044e-17 2.2338e-28 0 -0 0 0)
(0.000103264 1.85867e-16 -0 -2.94825e-17 -5.30662e-29 0 -0 -0 0)
(0.000171851 -6.51255e-11 -0 -6.46175e-11 2.44877e-17 0 -0 0 0)
(0.000171832 1.48203e-11 -0 1.46793e-11 1.26608e-18 -0 -0 -0 0)
(0.000171607 -3.47915e-12 -0 -3.44599e-12 6.98638e-20 0 -0 0 0)
(0.000171514 8.43658e-13 -0 8.31258e-13 4.08887e-21 -0 -0 -0 0)
(0.000171359 -1.49192e-13 -0 -1.50628e-13 1.31143e-22 0 -0 0 0)
(0.000171274 7.82153e-14 -0 7.35812e-14 3.36021e-23 -0 -0 -0 0)
(0.000171143 1.64334e-14 -0 1.32609e-14 1.27333e-24 -0 -0 -0 0)
(0.000171069 2.29269e-14 -0 2.0014e-14 2.68231e-24 -0 -0 -0 0)
(0.000170962 1.43727e-14 -0 1.20201e-14 1.01052e-24 -0 -0 -0 0)
(0.000170897 1.06917e-14 -0 8.75994e-15 5.48041e-25 -0 -0 -0 0)
(0.000170813 6.99217e-15 -0 5.4717e-15 2.23982e-25 -0 -0 -0 0)
(0.000170759 4.31144e-15 -0 3.16868e-15 8.00049e-26 -0 -0 -0 0)
(0.000170696 2.26524e-15 -0 1.46463e-15 1.94365e-26 -0 -0 -0 0)
(0.000170654 8.13282e-16 -0 3.40037e-16 1.62051e-27 -0 -0 -0 0)
(0.00017061 -1.40172e-16 -0 -3.43987e-16 2.82617e-28 0 -0 0 0)
(0.000170581 -6.74686e-16 -0 -6.9686e-16 2.75623e-27 0 -0 0 0)
(0.000170556 -9.4014e-16 -0 -8.25592e-16 4.55084e-27 0 -0 0 0)
(0.000170541 -9.88227e-16 -0 -7.25053e-16 4.20144e-27 0 -0 0 0)
(0.000170532 -6.65507e-16 -0 -2.88281e-16 1.12503e-27 0 -0 0 0)
(0.000170527 4.95104e-16 -0 -8.48431e-17 -2.46331e-28 0 -0 -0 0)
(0.000230158 9.23011e-11 -0 9.22189e-11 3.6983e-17 -0 -0 -0 0)
(0.000230124 -1.98075e-11 -0 -1.98134e-11 1.7054e-18 0 -0 0 0)
(0.000229705 4.85544e-12 -0 4.83832e-12 1.02271e-19 -0 -0 -0 0)
(0.000229543 -8.88323e-13 -0 -9.03984e-13 3.49838e-21 0 -0 0 0)
(0.00022925 3.15278e-13 -0 3.06223e-13 4.21135e-22 -0 -0 -0 0)
(0.000229106 1.95539e-14 -0 1.08828e-14 9.28835e-25 -0 -0 -0 0)
(0.000228852 5.99743e-14 -0 5.3764e-14 1.40897e-23 -0 -0 -0 0)
(0.00022873 3.49861e-14 -0 2.96527e-14 4.53561e-24 -0 -0 -0 0)
(0.000228518 2.68252e-14 -0 2.25435e-14 2.64633e-24 -0 -0 -0 0)
(0.000228415 1.83672e-14 -0 1.48662e-14 1.19541e-24 -0 -0 -0 0)
(0.000228245 1.20749e-14 -0 9.32473e-15 4.9331e-25 -0 -0 -0 0)
(0.000228161 7.23199e-15 -0 5.1653e-15 1.63724e-25 -0 -0 -0 0)
(0.000228028 3.62728e-15 -0 2.18286e-15 3.47232e-26 -0 -0 -0 0)
(0.000227966 1.07757e-15 -0 2.28319e-16 1.07924e-27 -0 -0 -0 0)
(0.000227874 -5.76879e-16 -0 -9.33112e-16 2.36224e-27 0 -0 0 0)
(0.000227829 -1.47505e-15 -0 -1.50048e-15 9.7147e-27 0 -0 0 0)
(0.000227778 -1.89068e-15 -0 -1.66994e-15 1.38614e-26 0 -0 0 0)
(0.000227752 -1.9309e-15 -0 -1.44103e-15 1.22171e-26 0 -0 0 0)
(0.000227735 -1.29041e-15 -0 -5.85142e-16 3.31559e-27 0 -0 0 0)
(0.000227728 8.86998e-16 -0 -1.66744e-16 -6.49466e-28 0 -0 -0 0)
(0.000268049 -1.25517e-10 -0 -1.25571e-10 5.87998e-17 0 -0 0 0)
(0.000267998 2.87647e-11 -0 2.8584e-11 3.06798e-18 -0 -0 -0 0)
(0.000267428 -6.59001e-12 -0 -6.57788e-12 1.62093e-19 0 -0 0 0)
(0.000267194 1.80456e-12 -0 1.76036e-12 1.1889e-20 -0 -0 -0 0)
(0.000266801 -2.4988e-13 -0 -2.59157e-13 2.42721e-22 0 -0 0 0)
(0.00026659 1.95504e-13 -0 1.8147e-13 1.33082e-22 -0 -0 -0 0)
(0.000266255 4.567e-14 -0 3.73049e-14 6.39882e-24 -0 -0 -0 0)
(0.000266073 5.71419e-14 -0 4.94166e-14 1.06127e-23 -0 -0 -0 0)
(0.000265791 3.41128e-14 -0 2.81136e-14 3.60823e-24 -0 -0 -0 0)
(0.000265636 2.51081e-14 -0 2.01194e-14 1.90169e-24 -0 -0 -0 0)
(0.000265417 1.56984e-14 -0 1.17969e-14 6.97743e-25 -0 -0 -0 0)
(0.000265286 9.20573e-15 -0 6.26473e-15 2.17393e-25 -0 -0 -0 0)
(0.000265121 4.21406e-15 -0 2.16452e-15 3.44047e-26 -0 -0 -0 0)
(0.000265019 7.58348e-16 -0 -4.36337e-16 -1.24857e-27 0 -0 -0 0)
(0.000264905 -1.45611e-15 -0 -1.9419e-15 1.06741e-26 0 -0 0 0)
(0.000264834 -2.60454e-15 -0 -2.61553e-15 2.57228e-26 0 -0 0 0)
(0.000264768 -3.08274e-15 -0 -2.73996e-15 3.19018e-26 0 -0 0 0)
(0.00026473 -3.0313e-15 -0 -2.29523e-15 2.62815e-26 0 -0 0 0)
(0.000264708 -2.0048e-15 -0 -9.61021e-16 7.27842e-27 0 -0 0 0)
(0.000264697 1.25002e-15 -0 -2.64214e-16 -1.24774e-27 0 -0 -0 0)
(0.000289729 1.51877e-10 -0 1.52883e-10 8.01419e-17 -0 -0 -0 0)
(0.000289669 -3.00548e-11 -0 -3.04785e-11 3.16232e-18 0 -0 0 0)
(0.000288989 7.255e-12 -0 7.33618e-12 1.84173e-19 -0 -0 -0 0)
(0.000288722 -1.12805e-12 -0 -1.18536e-12 4.63126e-21 0 -0 0 0)
(0.000288249 4.13721e-13 -0 4.08126e-13 5.85779e-22 -0 -0 -0 0)
(0.000288006 6.13765e-14 -0 4.48701e-14 9.56219e-24 -0 -0 -0 0)
(0.000287605 8.57144e-14 -0 7.59352e-14 2.26308e-23 -0 -0 -0 0)
(0.000287396 5.76312e-14 -0 4.83372e-14 9.69301e-24 -0 -0 -0 0)
(0.000287056 4.04457e-14 -0 3.31169e-14 4.66611e-24 -0 -0 -0 0)
(0.000286887 2.78431e-14 -0 2.17202e-14 2.10801e-24 -0 -0 -0 0)
(0.000286606 1.72579e-14 -0 1.24412e-14 7.49147e-25 -0 -0 -0 0)
(0.000286473 9.51971e-15 -0 5.8862e-15 1.95602e-25 -0 -0 -0 0)
(0.000286256 3.69586e-15 -0 1.16813e-15 1.50817e-26 -0 -0 -0 0)
(0.000286155 -3.20357e-16 -0 -1.77732e-15 1.98975e-27 0 -0 0 0)
(0.000286007 -2.82873e-15 -0 -3.39276e-15 3.35558e-26 0 -0 0 0)
(0.000285932 -4.03691e-15 -0 -4.00521e-15 5.65473e-26 0 -0 0 0)
(0.00028585 -4.43424e-15 -0 -3.96418e-15 6.14942e-26 0 -0 0 0)
(0.000285808 -4.20936e-15 -0 -3.24329e-15 4.77669e-26 0 -0 0 0)
(0.000285781 -2.75495e-15 -0 -1.39269e-15 1.34257e-26 0 -0 0 0)
(0.000285768 1.53409e-15 -0 -3.69661e-16 -1.98445e-27 0 -0 -0 0)
(0.000302199 -2.04765e-10 -0 -2.05749e-10 1.39412e-16 0 -0 0 0)
(0.000302131 4.3345e-11 -0 4.36161e-11 6.25735e-18 -0 -0 -0 0)
(0.000301389 -9.95811e-12 -0 -1.00409e-11 3.31759e-19 0 -0 0 0)
(0.000301094 2.29418e-12 -0 2.29654e-12 1.74984e-20 -0 -0 -0 0)
(0.00030058 -3.3964e-13 -0 -3.58231e-13 4.04782e-22 0 -0 0 0)
(0.000300313 2.12297e-13 -0 1.99695e-13 1.41169e-22 -0 -0 -0 0)
(0.000299873 5.72988e-14 -0 4.57044e-14 8.73306e-24 -0 -0 -0 0)
(0.000299645 6.33632e-14 -0 5.35193e-14 1.13172e-23 -0 -0 -0 0)
(0.000299273 3.98312e-14 -0 3.15473e-14 4.19873e-24 -0 -0 -0 0)
(0.000299086 2.75037e-14 -0 2.06357e-14 1.89764e-24 -0 -0 -0 0)
(0.000298784 1.63519e-14 -0 1.08847e-14 5.95697e-25 -0 -0 -0 0)
(0.000298633 8.12403e-15 -0 4.00245e-15 1.08883e-25 -0 -0 -0 0)
(0.000298405 2.01173e-15 -0 -8.5022e-16 -5.73186e-27 0 -0 -0 0)
(0.000298285 -2.17584e-15 -0 -3.79946e-15 2.77152e-26 0 -0 0 0)
(0.00029813 -4.68648e-15 -0 -5.27587e-15 8.29347e-26 0 -0 0 0)
(0.000298044 -5.75761e-15 -0 -5.65937e-15 1.09328e-25 0 -0 0 0)
(0.000297956 -5.9402e-15 -0 -5.33805e-15 1.06422e-25 0 -0 0 0)
(0.000297909 -5.4409e-15 -0 -4.25517e-15 7.77149e-26 0 -0 0 0)
(0.000297879 -3.51938e-15 -0 -1.87393e-15 2.21401e-26 0 -0 0 0)
(0.000297866 1.72755e-15 -0 -4.8208e-16 -2.79594e-27 0 -0 -0 0)
(0.000310058 2.62391e-10 -0 2.64411e-10 2.23762e-16 -0 -0 -0 0)
(0.000309983 -5.44826e-11 -0 -5.50397e-11 9.67377e-18 0 -0 0 0)
(0.0003092 1.30027e-11 -0 1.31146e-11 5.51505e-19 -0 -0 -0 0)
(0.000308885 -2.5306e-12 -0 -2.57459e-12 2.10928e-20 0 -0 0 0)
(0.000308349 7.08234e-13 -0 7.00108e-13 1.60805e-21 -0 -0 -0 0)
(0.000308061 -3.51836e-14 -0 -4.9981e-14 5.70831e-24 0 -0 0 0)
(0.0003076 9.94463e-14 -0 8.76565e-14 2.83391e-23 -0 -0 -0 0)
(0.000307354 4.72811e-14 -0 3.69231e-14 5.67997e-24 -0 -0 -0 0)
(0.000306971 3.82047e-14 -0 2.94422e-14 3.66428e-24 -0 -0 -0 0)
(0.000306761 2.35009e-14 -0 1.61924e-14 1.2405e-24 -0 -0 -0 0)
(0.000306459 1.32848e-14 -0 7.43023e-15 3.22096e-25 -0 -0 -0 0)
(0.000306282 5.11711e-15 -0 7.03085e-16 1.17466e-26 -0 -0 -0 0)
(0.000306058 -7.69023e-16 -0 -3.82288e-15 9.60566e-27 0 -0 0 0)
(0.000305919 -4.75113e-15 -0 -6.44901e-15 1.00158e-25 0 -0 0 0)
(0.000305764 -6.99421e-15 -0 -7.55396e-15 1.72793e-25 0 -0 0 0)
(0.000305668 -7.73429e-15 -0 -7.54113e-15 1.90813e-25 0 -0 0 0)
(0.000305578 -7.56196e-15 -0 -6.82484e-15 1.6889e-25 0 -0 0 0)
(0.000305526 -6.70985e-15 -0 -5.32622e-15 1.16972e-25 0 -0 0 0)
(0.000305496 -4.2941e-15 -0 -2.39562e-15 3.36733e-26 0 -0 0 0)
(0.000305481 1.83799e-15 -0 -5.98895e-16 -3.60338e-27 0 -0 -0 0)
(0.000315836 -3.51439e-10 -0 -3.53107e-10 3.92912e-16 0 -0 0 0)
(0.000315761 7.23551e-11 -0 7.29908e-11 1.67255e-17 -0 -0 -0 0)
(0.000314941 -1.67557e-11 -0 -1.69326e-11 9.00861e-19 0 -0 0 0)
(0.000314626 3.52464e-12 -0 3.56142e-12 3.98972e-20 -0 -0 -0 0)
(0.000314045 -6.23862e-13 -0 -6.53805e-13 1.29881e-21 0 -0 0 0)
(0.000313763 2.31641e-13 -0 2.22071e-13 1.63948e-22 -0 -0 -0 0)
(0.000313272 3.56368e-14 -0 2.26525e-14 2.57687e-24 -0 -0 -0 0)
(0.000313027 4.93733e-14 -0 3.92914e-14 6.19739e-24 -0 -0 -0 0)
(0.000312621 2.87895e-14 -0 1.98292e-14 1.82608e-24 -0 -0 -0 0)
(0.000312413 1.76446e-14 -0 1.02041e-14 5.76309e-25 -0 -0 -0 0)
(0.000312084 8.07794e-15 -0 2.07445e-15 5.36946e-26 -0 -0 -0 0)
(0.000311918 7.24936e-16 -0 -3.79594e-15 -8.82223e-27 0 -0 -0 0)
(0.000311666 -4.5145e-15 -0 -7.62447e-15 1.10441e-25 0 -0 0 0)
(0.000311542 -7.94565e-15 -0 -9.62875e-15 2.45575e-25 0 -0 0 0)
(0.00031136 -9.66963e-15 -0 -1.01508e-14 3.15244e-25 0 -0 0 0)
(0.000311279 -9.90932e-15 -0 -9.60118e-15 3.05646e-25 0 -0 0 0)
(0.00031117 -9.27081e-15 -0 -8.39783e-15 2.502e-25 0 -0 0 0)
(0.000311127 -7.98911e-15 -0 -6.42313e-15 1.64933e-25 0 -0 0 0)
(0.000311091 -5.05822e-15 -0 -2.94347e-15 4.78598e-26 0 -0 0 0)
(0.000311078 1.86993e-15 -0 -7.17955e-16 -4.31572e-27 0 -0 -0 0)
(0.0003208 4.6989e-10 -0 4.70971e-10 6.89852e-16 -0 -0 -0 0)
(0.00032072 -9.81111e-11 -0 -9.87154e-11 3.0198e-17 0 -0 0 0)
(0.000319877 2.31383e-11 -0 2.32603e-11 1.68253e-18 -0 -0 -0 0)
(0.000319541 -4.63627e-12 -0 -4.69993e-12 6.8192e-20 0 -0 0 0)
(0.000318962 1.12374e-12 -0 1.12249e-12 3.95465e-21 -0 -0 -0 0)
(0.000318655 -1.5814e-13 -0 -1.75185e-13 8.69402e-23 0 -0 0 0)
(0.00031816 8.67191e-14 -0 7.60684e-14 2.07335e-23 -0 -0 -0 0)
(0.000317893 2.19818e-14 -0 1.17379e-14 8.11654e-25 -0 -0 -0 0)
(0.000317485 2.05506e-14 -0 1.18705e-14 7.68368e-25 -0 -0 -0 0)
(0.000317257 8.8413e-15 -0 1.51618e-15 4.22527e-26 -0 -0 -0 0)
(0.000316935 1.2164e-15 -0 -4.67345e-15 -1.79368e-26 0 -0 -0 0)
(0.000316746 -4.85582e-15 -0 -9.29778e-15 1.42538e-25 0 -0 0 0)
(0.000316503 -9.06201e-15 -0 -1.20917e-14 3.46206e-25 0 -0 0 0)
(0.000316356 -1.16149e-14 -0 -1.31977e-14 4.84546e-25 0 -0 0 0)
(0.000316188 -1.26051e-14 -0 -1.29607e-14 5.16689e-25 0 -0 0 0)
(0.000316087 -1.21921e-14 -0 -1.17487e-14 4.53171e-25 0 -0 0 0)
(0.000315989 -1.09878e-14 -0 -9.98388e-15 3.47168e-25 0 -0 0 0)
(0.000315934 -9.22926e-15 -0 -7.50902e-15 2.19358e-25 0 -0 0 0)
(0.000315901 -5.79153e-15 -0 -3.49785e-15 6.41274e-26 0 -0 0 0)
(0.000315886 1.83313e-15 -0 -8.32863e-16 -4.83323e-27 0 -0 -0 0)
(0.000325633 -6.31733e-10 -0 -6.29688e-10 1.2216e-15 0 -0 0 0)
(0.000325554 1.35672e-10 -0 1.35556e-10 5.64918e-17 -0 -0 -0 0)
(0.000324679 -3.15272e-11 -0 -3.1553e-11 3.06387e-18 0 -0 0 0)
(0.000324344 6.84473e-12 -0 6.85033e-12 1.44565e-19 -0 -0 -0 0)
(0.000323725 -1.40803e-12 -0 -1.42967e-12 6.21829e-21 0 -0 0 0)
(0.000323425 3.70408e-13 -0 3.61993e-13 4.14578e-22 -0 -0 -0 0)
(0.000322901 -3.55844e-14 -0 -4.69406e-14 5.17296e-24 0 -0 0 0)
(0.00032264 2.93122e-14 -0 2.0365e-14 1.85018e-24 -0 -0 -0 0)
(0.000322206 3.55048e-15 -0 -4.51278e-15 -4.97275e-26 0 -0 -0 0)
(0.000321985 -9.28168e-16 -0 -7.71311e-15 2.22341e-26 0 -0 0 0)
(0.000321639 -7.21938e-15 -0 -1.27524e-14 2.86235e-25 0 -0 0 0)
(0.000321457 -1.1396e-14 -0 -1.55673e-14 5.5188e-25 0 -0 0 0)
(0.000321196 -1.41749e-14 -0 -1.69941e-14 7.49979e-25 0 -0 0 0)
(0.000321054 -1.55837e-14 -0 -1.6985e-14 8.24437e-25 0 -0 0 0)
(0.000320872 -1.56406e-14 -0 -1.58316e-14 7.71697e-25 0 -0 0 0)
(0.000320775 -1.44609e-14 -0 -1.38737e-14 6.25443e-25 0 -0 0 0)
(0.000320668 -1.26291e-14 -0 -1.15064e-14 4.53165e-25 0 -0 0 0)
(0.000320616 -1.03712e-14 -0 -8.52731e-15 2.7584e-25 0 -0 0 0)
(0.00032058 -6.4539e-15 -0 -4.02575e-15 8.1046e-26 0 -0 0 0)
(0.000320565 1.73456e-15 -0 -9.37558e-16 -5.07308e-27 0 -0 -0 0)
(0.000330737 8.21621e-10 -0 8.15831e-10 2.0267e-15 -0 -0 -0 0)
(0.000330649 -1.77956e-10 -0 -1.77236e-10 9.53888e-17 0 -0 0 0)
(0.000329752 4.19381e-11 -0 4.17875e-11 5.31456e-18 -0 -0 -0 0)
(0.000329404 -8.86618e-12 -0 -8.87138e-12 2.38781e-19 0 -0 0 0)
(0.000328765 2.02736e-12 -0 2.0209e-12 1.24621e-20 -0 -0 -0 0)
(0.000328458 -4.21447e-13 -0 -4.32571e-13 5.55035e-22 0 -0 0 0)
(0.00032791 8.89731e-14 -0 8.20653e-14 2.22671e-23 -0 -0 -0 0)
(0.000327649 -2.32279e-14 -0 -3.12797e-14 2.2175e-24 0 -0 0 0)
(0.000327193 -6.49876e-15 -0 -1.30789e-14 2.59775e-25 0 -0 0 0)
(0.000326973 -1.4231e-14 -0 -2.02282e-14 8.80399e-25 0 -0 0 0)
(0.000326607 -1.65319e-14 -0 -2.14474e-14 1.0856e-24 0 -0 0 0)
(0.000326431 -1.86196e-14 -0 -2.23468e-14 1.27466e-24 0 -0 0 0)
(0.000326145 -1.96071e-14 -0 -2.20918e-14 1.32811e-24 0 -0 0 0)
(0.000326016 -1.96122e-14 -0 -2.07617e-14 1.24896e-24 0 -0 0 0)
(0.00032581 -1.85881e-14 -0 -1.85857e-14 1.06035e-24 0 -0 0 0)
(0.000325726 -1.6563e-14 -0 -1.58301e-14 8.0495e-25 0 -0 0 0)
(0.000325604 -1.40726e-14 -0 -1.28537e-14 5.55534e-25 0 -0 0 0)
(0.000325559 -1.13279e-14 -0 -9.4045e-15 3.27232e-25 0 -0 0 0)
(0.000325518 -7.00604e-15 -0 -4.4971e-15 9.67897e-26 0 -0 0 0)
(0.000325504 1.58493e-15 -0 -1.02304e-15 -4.98132e-27 0 -0 -0 0)
(0.000336382 -1.04447e-09 -0 -1.02982e-09 3.19763e-15 0 -0 0 0)
(0.000336292 2.33627e-10 -0 2.31116e-10 1.60559e-16 -0 -0 -0 0)
(0.000335365 -5.52391e-11 -0 -5.46497e-11 9.00155e-18 0 -0 0 0)
(0.000334994 1.20878e-11 -0 1.19764e-11 4.32148e-19 -0 -0 -0 0)
(0.000334356 -2.80739e-12 -0 -2.80207e-12 2.35273e-20 0 -0 0 0)
(0.000334016 5.99181e-13 -0 5.86263e-13 1.05168e-21 -0 -0 -0 0)
(0.000333473 -1.5622e-13 -0 -1.63614e-13 7.66475e-23 0 -0 0 0)
(0.000333177 4.41157e-15 -0 -1.93742e-15 -2.56532e-26 0 -0 -0 0)
(0.000332732 -3.32993e-14 -0 -3.90529e-14 3.90836e-24 0 -0 0 0)
(0.00033248 -2.59118e-14 -0 -3.08749e-14 2.40624e-24 0 -0 0 0)
(0.000332122 -2.71456e-14 -0 -3.12741e-14 2.55616e-24 0 -0 0 0)
(0.000331919 -2.61007e-14 -0 -2.92193e-14 2.29768e-24 0 -0 0 0)
(0.000331643 -2.50235e-14 -0 -2.70692e-14 2.04245e-24 0 -0 0 0)
(0.00033149 -2.3418e-14 -0 -2.42589e-14 1.71376e-24 0 -0 0 0)
(0.000331296 -2.1207e-14 -0 -2.09957e-14 1.34398e-24 0 -0 0 0)
(0.000331191 -1.83101e-14 -0 -1.74453e-14 9.64477e-25 0 -0 0 0)
(0.00033108 -1.51864e-14 -0 -1.39051e-14 6.37817e-25 0 -0 0 0)
(0.000331022 -1.2018e-14 -0 -1.00671e-14 3.65495e-25 0 -0 0 0)
(0.000330985 -7.39198e-15 -0 -4.85925e-15 1.08523e-25 0 -0 0 0)
(0.000330968 1.39774e-15 -0 -1.08156e-15 -4.56762e-27 0 -0 -0 0)
(0.000342819 1.21094e-09 -0 1.18198e-09 4.1751e-15 -0 -0 -0 0)
(0.000342725 -2.83311e-10 -0 -2.77722e-10 2.29577e-16 0 -0 0 0)
(0.000341749 6.62124e-11 -0 6.49084e-11 1.25757e-17 -0 -0 -0 0)
(0.000341382 -1.51209e-11 -0 -1.49405e-11 6.61762e-19 0 -0 0 0)
(0.000340697 3.43078e-12 -0 3.38092e-12 3.40455e-20 -0 -0 -0 0)
(0.00034036 -8.15183e-13 -0 -8.18668e-13 1.96076e-21 0 -0 0 0)
(0.000339778 1.17734e-13 -0 1.12118e-13 3.88494e-23 -0 -0 -0 0)
(0.000339489 -8.6956e-14 -0 -9.19291e-14 2.35465e-23 0 -0 0 0)
(0.000339005 -3.95267e-14 -0 -4.3484e-14 5.07007e-24 0 -0 0 0)
(0.000338761 -4.34948e-14 -0 -4.72105e-14 6.06153e-24 0 -0 0 0)
(0.000338377 -3.73177e-14 -0 -4.03839e-14 4.45371e-24 0 -0 0 0)
(0.000338175 -3.35533e-14 -0 -3.59275e-14 3.56468e-24 0 -0 0 0)
(0.000337883 -2.99712e-14 -0 -3.14849e-14 2.7928e-24 0 -0 0 0)
(0.000337728 -2.66278e-14 -0 -2.71261e-14 2.13873e-24 0 -0 0 0)
(0.000337524 -2.32115e-14 -0 -2.27958e-14 1.56767e-24 0 -0 0 0)
(0.000337418 -1.94953e-14 -0 -1.85271e-14 1.07045e-24 0 -0 0 0)
(0.000337299 -1.58273e-14 -0 -1.45236e-14 6.815e-25 0 -0 0 0)
(0.000337242 -1.23277e-14 -0 -1.04066e-14 3.80406e-25 0 -0 0 0)
(0.000337202 -7.55221e-15 -0 -5.07167e-15 1.13588e-25 0 -0 0 0)
(0.000337186 1.18461e-15 -0 -1.10463e-15 -3.88082e-27 0 -0 -0 0)
(0.000350281 -1.33335e-09 -0 -1.29728e-09 4.93814e-15 0 -0 0 0)
(0.00035018 3.2367e-10 -0 3.15325e-10 2.91454e-16 -0 -0 -0 0)
(0.000349178 -7.56725e-11 -0 -7.37617e-11 1.59854e-17 0 -0 0 0)
(0.000348773 1.84019e-11 -0 1.79338e-11 9.46219e-19 -0 -0 -0 0)
(0.000348075 -4.39182e-12 -0 -4.29716e-12 5.42192e-20 0 -0 0 0)
(0.000347707 9.44874e-13 -0 9.17827e-13 2.49414e-21 -0 -0 -0 0)
(0.000347121 -3.42635e-13 -0 -3.3887e-13 3.34491e-22 0 -0 0 0)
(0.000346796 -2.42747e-14 -0 -2.69211e-14 1.88439e-24 0 -0 0 0)
(0.000346314 -8.46419e-14 -0 -8.59048e-14 2.09958e-23 0 -0 0 0)
(0.00034604 -5.45115e-14 -0 -5.64179e-14 8.8875e-24 0 -0 0 0)
(0.000345651 -4.87225e-14 -0 -5.05291e-14 7.12252e-24 0 -0 0 0)
(0.000345431 -3.98311e-14 -0 -4.13261e-14 4.76524e-24 0 -0 0 0)
(0.000345131 -3.39e-14 -0 -3.48361e-14 3.42172e-24 0 -0 0 0)
(0.000344966 -2.87714e-14 -0 -2.8922e-14 2.4122e-24 0 -0 0 0)
(0.000344755 -2.42631e-14 -0 -2.36708e-14 1.6659e-24 0 -0 0 0)
(0.000344641 -1.98758e-14 -0 -1.88478e-14 1.08698e-24 0 -0 0 0)
(0.00034452 -1.58218e-14 -0 -1.45506e-14 6.68222e-25 0 -0 0 0)
(0.000344457 -1.21642e-14 -0 -1.03444e-14 3.65301e-25 0 -0 0 0)
(0.000344418 -7.42343e-15 -0 -5.06809e-15 1.09235e-25 0 -0 0 0)
(0.0003444 9.65427e-16 -0 -1.08456e-15 -3.04026e-27 0 -0 -0 0)
(0.000359127 1.41525e-09 -0 1.3761e-09 5.42293e-15 -0 -0 -0 0)
(0.000359006 -3.35692e-10 -0 -3.27189e-10 3.05941e-16 0 -0 0 0)
(0.000357983 7.849e-11 -0 7.65206e-11 1.67776e-17 -0 -0 -0 0)
(0.000357536 -1.85378e-11 -0 -1.81338e-11 9.40215e-19 0 -0 0 0)
(0.000356805 4.05827e-12 -0 3.98055e-12 4.52744e-20 -0 -0 -0 0)
(0.000356423 -1.13938e-12 -0 -1.11919e-12 3.57771e-21 0 -0 0 0)
(0.00035579 6.59766e-14 -0 6.90291e-14 1.28006e-23 -0 -0 -0 0)
(0.000355467 -1.69186e-13 -0 -1.65989e-13 7.90032e-23 0 -0 0 0)
(0.000354942 -8.53855e-14 -0 -8.38135e-14 2.01623e-23 0 -0 0 0)
(0.000354666 -7.47974e-14 -0 -7.46697e-14 1.57475e-23 0 -0 0 0)
(0.000354252 -5.60718e-14 -0 -5.65133e-14 8.94505e-24 0 -0 0 0)
(0.00035402 -4.45196e-14 -0 -4.51208e-14 5.67414e-24 0 -0 0 0)
(0.000353711 -3.58371e-14 -0 -3.62074e-14 3.66843e-24 0 -0 0 0)
(0.000353528 -2.93064e-14 -0 -2.91447e-14 2.41601e-24 0 -0 0 0)
(0.000353317 -2.39736e-14 -0 -2.32637e-14 1.57851e-24 0 -0 0 0)
(0.000353189 -1.92116e-14 -0 -1.81859e-14 9.8922e-25 0 -0 0 0)
(0.000353068 -1.5034e-14 -0 -1.38498e-14 5.89739e-25 0 -0 0 0)
(0.000352998 -1.14192e-14 -0 -9.75994e-15 3.15725e-25 0 -0 0 0)
(0.000352957 -6.94756e-15 -0 -4.81014e-15 9.46822e-26 0 -0 0 0)
(0.000352938 7.49258e-16 -0 -1.01348e-15 -2.15154e-27 0 -0 -0 0)
(0.000369881 -1.5122e-09 -0 -1.46825e-09 6.0027e-15 0 -0 0 0)
(0.000369765 3.82245e-10 -0 3.70638e-10 3.83148e-16 -0 -0 -0 0)
(0.000368642 -9.083e-11 -0 -8.8051e-11 2.1695e-17 0 -0 0 0)
(0.000368202 2.24847e-11 -0 2.17809e-11 1.33007e-18 -0 -0 -0 0)
(0.000367399 -5.96896e-12 -0 -5.76317e-12 9.36314e-20 0 -0 0 0)
(0.000367013 1.08221e-12 -0 1.05622e-12 3.11447e-21 -0 -0 -0 0)
(0.000366333 -5.88038e-13 -0 -5.62194e-13 9.02434e-22 0 -0 0 0)
(0.000365997 -8.06961e-14 -0 -7.514e-14 1.65671e-23 0 -0 0 0)
(0.000365426 -1.39596e-13 -0 -1.34218e-13 5.12725e-23 0 -0 0 0)
(0.000365152 -7.74407e-14 -0 -7.55323e-14 1.60187e-23 0 -0 0 0)
(0.000364683 -6.15951e-14 -0 -6.07985e-14 1.02689e-23 0 -0 0 0)
(0.00036447 -4.47348e-14 -0 -4.45715e-14 5.47067e-24 0 -0 0 0)
(0.00036411 -3.49219e-14 -0 -3.48199e-14 3.33958e-24 0 -0 0 0)
(0.00036395 -2.75354e-14 -0 -2.71505e-14 2.05413e-24 0 -0 0 0)
(0.00036369 -2.19821e-14 -0 -2.12281e-14 1.28307e-24 0 -0 0 0)
(0.000363586 -1.72856e-14 -0 -1.63327e-14 7.76485e-25 0 -0 0 0)
(0.000363431 -1.33431e-14 -0 -1.23091e-14 4.51919e-25 0 -0 0 0)
(0.000363376 -1.00712e-14 -0 -8.6443e-15 2.39582e-25 0 -0 0 0)
(0.000363325 -6.11777e-15 -0 -4.26781e-15 7.18628e-26 0 -0 0 0)
(0.000363307 5.54617e-16 -0 -8.78553e-16 -1.34118e-27 0 -0 -0 0)
(0.000382984 1.6093e-09 -0 1.56046e-09 6.55706e-15 -0 -0 -0 0)
(0.000382862 -4.12192e-10 -0 -3.98636e-10 4.29175e-16 0 -0 0 0)
(0.000381651 9.54078e-11 -0 9.23725e-11 2.30919e-17 -0 -0 -0 0)
(0.000381186 -2.65516e-11 -0 -2.55267e-11 1.77807e-18 0 -0 0 0)
(0.000380325 5.32439e-12 -0 5.16808e-12 7.2351e-20 -0 -0 -0 0)
(0.000379909 -2.14232e-12 -0 -2.03557e-12 1.14787e-20 0 -0 0 0)
(0.000379179 9.72558e-14 -0 1.02644e-13 2.63273e-23 -0 -0 -0 0)
(0.000378819 -3.05186e-13 -0 -2.87507e-13 2.31623e-22 0 -0 0 0)
(0.000378218 -9.42467e-14 -0 -8.90833e-14 2.21983e-23 0 -0 0 0)
(0.000377913 -8.97487e-14 -0 -8.60335e-14 2.04317e-23 0 -0 0 0)
(0.000377423 -5.39523e-14 -0 -5.25543e-14 7.5126e-24 0 -0 0 0)
(0.00037718 -4.10459e-14 -0 -4.03158e-14 4.3873e-24 0 -0 0 0)
(0.000376808 -3.00218e-14 -0 -2.96102e-14 2.35916e-24 0 -0 0 0)
(0.000376622 -2.33287e-14 -0 -2.28116e-14 1.41299e-24 0 -0 0 0)
(0.000376361 -1.81783e-14 -0 -1.74617e-14 8.43402e-25 0 -0 0 0)
(0.000376234 -1.41172e-14 -0 -1.32996e-14 4.99032e-25 0 -0 0 0)
(0.000376081 -1.07812e-14 -0 -9.93942e-15 2.84936e-25 0 -0 0 0)
(0.000376013 -8.07269e-15 -0 -6.93905e-15 1.48976e-25 0 -0 0 0)
(0.000375962 -4.90186e-15 -0 -3.44074e-15 4.4861e-26 0 -0 0 0)
(0.000375942 3.72394e-16 -0 -6.76268e-16 -6.69886e-28 0 -0 -0 0)
(0.000396629 -1.61466e-09 -0 -1.56917e-09 6.38803e-15 0 -0 0 0)
(0.00039656 3.56793e-10 -0 3.49e-10 3.14003e-16 -0 -0 -0 0)
(0.000395339 -8.59415e-11 -0 -8.39762e-11 1.82553e-17 0 -0 0 0)
(0.000394853 1.55294e-11 -0 1.5539e-11 6.11142e-19 -0 -0 -0 0)
(0.000394015 -4.74634e-12 -0 -4.66198e-12 5.61586e-20 0 -0 0 0)
(0.000393571 1.11696e-13 -0 1.79504e-13 5.09435e-23 -0 -0 -0 0)
(0.000392857 -3.91212e-13 -0 -3.79684e-13 3.78094e-22 0 -0 0 0)
(0.000392473 -1.60682e-13 -0 -1.44675e-13 5.92313e-23 0 -0 0 0)
(0.000391864 -9.16234e-14 -0 -8.7611e-14 2.04847e-23 0 -0 0 0)
(0.000391544 -6.47653e-14 -0 -6.13752e-14 1.01521e-23 0 -0 0 0)
(0.000391049 -3.91908e-14 -0 -3.81328e-14 3.82166e-24 0 -0 0 0)
(0.000390788 -2.89044e-14 -0 -2.82775e-14 2.09153e-24 0 -0 0 0)
(0.00039041 -2.04515e-14 -0 -2.01852e-14 1.0574e-24 0 -0 0 0)
(0.000390207 -1.56537e-14 -0 -1.53432e-14 6.15514e-25 0 -0 0 0)
(0.000389943 -1.19707e-14 -0 -1.15601e-14 3.54879e-25 0 -0 0 0)
(0.0003898 -9.18895e-15 -0 -8.72251e-15 2.0562e-25 0 -0 0 0)
(0.000389648 -6.90812e-15 -0 -6.48182e-15 1.14917e-25 0 -0 0 0)
(0.000389568 -5.20928e-15 -0 -4.60294e-15 6.15504e-26 0 -0 0 0)
(0.000389518 -3.28539e-15 -0 -2.34925e-15 1.98148e-26 0 -0 0 0)
(0.000389495 1.90831e-16 -0 -4.20758e-16 -2.06148e-28 0 -0 -0 0)
(0.000399311 1.6882e-09 -0 1.63765e-09 6.92362e-15 -0 -0 -0 0)
(0.000399252 -4.65488e-10 -0 -4.48974e-10 5.23458e-16 0 -0 0 0)
(0.000399237 1.10789e-10 -0 1.06809e-10 2.96397e-17 -0 -0 -0 0)
(0.000399204 -3.16019e-11 -0 -3.0275e-11 2.39664e-18 0 -0 0 0)
(0.000399192 7.6803e-12 -0 7.35483e-12 1.41504e-19 -0 -0 -0 0)
(0.000399167 -2.37036e-12 -0 -2.24965e-12 1.3359e-20 0 -0 0 0)
(0.000399158 4.9866e-13 -0 4.75836e-13 5.94452e-22 -0 -0 -0 0)
(0.000399143 -2.27869e-13 -0 -2.1436e-13 1.22377e-22 0 -0 0 0)
(0.000399131 1.04161e-14 -0 9.77699e-15 2.55149e-25 -0 -0 -0 0)
(0.000399121 -3.59936e-14 -0 -3.4209e-14 3.08504e-24 0 -0 0 0)
(0.000399114 -1.07848e-14 -0 -1.06616e-14 2.88095e-25 0 -0 0 0)
(0.000399108 -1.10891e-14 -0 -1.09048e-14 3.02988e-25 0 -0 0 0)
(0.000399104 -6.80385e-15 -0 -6.81476e-15 1.16177e-25 0 -0 0 0)
(0.000399102 -5.3974e-15 -0 -5.36836e-15 7.2601e-26 0 -0 0 0)
(0.000399099 -4.00328e-15 -0 -3.93822e-15 3.95034e-26 0 -0 0 0)
(0.000399098 -3.05951e-15 -0 -2.97177e-15 2.27818e-26 0 -0 0 0)
(0.000399097 -2.27165e-15 -0 -2.21671e-15 1.26175e-26 0 -0 0 0)
(0.000399097 -1.75934e-15 -0 -1.62748e-15 7.1744e-27 0 -0 0 0)
(0.000399096 -1.18402e-15 -0 -8.71101e-16 2.58434e-27 0 -0 0 0)
(0.000399096 4.52226e-17 -0 -1.42783e-16 -1.61791e-29 0 -0 -0 0)
)
;

boundaryField
{
    movingWall
    {
        type            calculated;
        value           nonuniform List<tensor> 
20
(
(0.000399308 0 0 0 0 0 0 0 0)
(0.000399252 0 0 0 0 0 0 0 0)
(0.000399237 0 0 0 0 0 0 0 0)
(0.000399204 0 0 0 0 0 0 0 0)
(0.000399192 0 0 0 0 0 0 0 0)
(0.000399167 0 0 0 0 0 0 0 0)
(0.000399158 0 0 0 0 0 0 0 0)
(0.000399143 0 0 0 0 0 0 0 0)
(0.000399131 0 0 0 0 0 0 0 0)
(0.000399121 0 0 0 0 0 0 0 0)
(0.000399114 0 0 0 0 0 0 0 0)
(0.000399108 0 0 0 0 0 0 0 0)
(0.000399104 0 0 0 0 0 0 0 0)
(0.000399102 0 0 0 0 0 0 0 0)
(0.000399099 0 0 0 0 0 0 0 0)
(0.000399098 0 0 0 0 0 0 0 0)
(0.000399097 0 0 0 0 0 0 0 0)
(0.000399097 0 0 0 0 0 0 0 0)
(0.000399096 0 0 0 0 0 0 0 0)
(0.000399096 0 0 0 0 0 0 0 0)
)
;
    }
    fixedWalls
    {
        type            calculated;
        value           nonuniform List<tensor> 
60
(
(6.15611e-05 0 0 0 0 0 0 0 0)
(0.000103742 0 0 0 0 0 0 0 0)
(0.000171851 0 0 0 0 0 0 0 0)
(0.000230157 0 0 0 0 0 0 0 0)
(0.000268049 0 0 0 0 0 0 0 0)
(0.000289729 0 0 0 0 0 0 0 0)
(0.0003022 0 0 0 0 0 0 0 0)
(0.000310057 0 0 0 0 0 0 0 0)
(0.000315836 0 0 0 0 0 0 0 0)
(0.0003208 0 0 0 0 0 0 0 0)
(0.000325634 0 0 0 0 0 0 0 0)
(0.000330736 0 0 0 0 0 0 0 0)
(0.000336383 0 0 0 0 0 0 0 0)
(0.000342818 0 0 0 0 0 0 0 0)
(0.000350282 0 0 0 0 0 0 0 0)
(0.000359126 0 0 0 0 0 0 0 0)
(0.000369883 0 0 0 0 0 0 0 0)
(0.000382983 0 0 0 0 0 0 0 0)
(0.00039663 0 0 0 0 0 0 0 0)
(0.000399308 0 0 0 0 0 0 0 0)
(6.1538e-05 0 0 0 0 0 0 0 0)
(0.000103264 0 0 0 0 0 0 0 0)
(0.000170527 0 0 0 0 0 0 0 0)
(0.000227728 0 0 0 0 0 0 0 0)
(0.000264697 0 0 0 0 0 0 0 0)
(0.000285768 0 0 0 0 0 0 0 0)
(0.000297866 0 0 0 0 0 0 0 0)
(0.000305481 0 0 0 0 0 0 0 0)
(0.000311078 0 0 0 0 0 0 0 0)
(0.000315886 0 0 0 0 0 0 0 0)
(0.000320565 0 0 0 0 0 0 0 0)
(0.000325504 0 0 0 0 0 0 0 0)
(0.000330968 0 0 0 0 0 0 0 0)
(0.000337186 0 0 0 0 0 0 0 0)
(0.0003444 0 0 0 0 0 0 0 0)
(0.000352938 0 0 0 0 0 0 0 0)
(0.000363307 0 0 0 0 0 0 0 0)
(0.000375942 0 0 0 0 0 0 0 0)
(0.000389495 0 0 0 0 0 0 0 0)
(0.000399096 0 0 0 0 0 0 0 0)
(6.15611e-05 0 0 0 0 0 0 0 0)
(6.15581e-05 0 0 0 0 0 0 0 0)
(6.15548e-05 0 0 0 0 0 0 0 0)
(6.15535e-05 0 0 0 0 0 0 0 0)
(6.155e-05 0 0 0 0 0 0 0 0)
(6.15496e-05 0 0 0 0 0 0 0 0)
(6.15461e-05 0 0 0 0 0 0 0 0)
(6.15463e-05 0 0 0 0 0 0 0 0)
(6.15431e-05 0 0 0 0 0 0 0 0)
(6.15436e-05 0 0 0 0 0 0 0 0)
(6.15411e-05 0 0 0 0 0 0 0 0)
(6.15413e-05 0 0 0 0 0 0 0 0)
(6.15398e-05 0 0 0 0 0 0 0 0)
(6.15397e-05 0 0 0 0 0 0 0 0)
(6.15389e-05 0 0 0 0 0 0 0 0)
(6.15387e-05 0 0 0 0 0 0 0 0)
(6.15382e-05 0 0 0 0 0 0 0 0)
(6.15382e-05 0 0 0 0 0 0 0 0)
(6.1538e-05 0 0 0 0 0 0 0 0)
(6.1538e-05 0 0 0 0 0 0 0 0)
)
;
    }
    frontAndBack
    {
        type            empty;
    }
}


// ************************************************************************* //
