/*--------------------------------*- C++ -*----------------------------------*\
| =========                 |                                                 |
| \\      /  F ield         | OpenFOAM: The Open Source CFD Toolbox           |
|  \\    /   O peration     | Version:  2312                                  |
|   \\  /    A nd           | Website:  www.openfoam.com                      |
|    \\/     M anipulation  |                                                 |
\*---------------------------------------------------------------------------*/
FoamFile
{
    version     2.0;
    format      ascii;
    arch        "LSB;label=32;scalar=64";
    class       volScalarField;
    location    "3";
    object      L_P;
}
// * * * * * * * * * * * * * * * * * * * * * * * * * * * * * * * * * * * * * //

dimensions      [0 0 0 0 0 0 0];

internalField   nonuniform List<scalar> 
400
(
-155.399
-155.399
-155.4
-155.401
-155.402
-155.402
-155.403
-155.403
-155.404
-155.404
-155.404
-155.404
-155.405
-155.405
-155.405
-155.405
-155.405
-155.405
-155.405
-155.405
-146.313
-146.553
-146.546
-146.542
-146.534
-146.53
-146.521
-146.516
-146.506
-146.499
-146.488
-146.481
-146.469
-146.46
-146.448
-146.438
-146.424
-146.414
-146.407
-146.394
-137.523
-137.864
-137.857
-137.853
-137.844
-137.839
-137.828
-137.821
-137.809
-137.801
-137.787
-137.777
-137.761
-137.75
-137.733
-137.719
-137.701
-137.686
-137.676
-137.658
-132.436
-132.851
-132.845
-132.842
-132.834
-132.829
-132.819
-132.811
-132.798
-132.788
-132.774
-132.761
-132.745
-132.73
-132.711
-132.695
-132.673
-132.655
-132.643
-132.621
-129.783
-130.24
-130.237
-130.234
-130.227
-130.222
-130.212
-130.205
-130.192
-130.182
-130.166
-130.154
-130.136
-130.121
-130.1
-130.082
-130.059
-130.039
-130.026
-130.002
-128.429
-128.909
-128.907
-128.905
-128.899
-128.894
-128.885
-128.877
-128.865
-128.854
-128.84
-128.826
-128.808
-128.792
-128.771
-128.753
-128.728
-128.707
-128.694
-128.669
-127.695
-128.188
-128.186
-128.185
-128.179
-128.175
-128.166
-128.158
-128.146
-128.136
-128.121
-128.107
-128.089
-128.073
-128.051
-128.033
-128.008
-127.987
-127.973
-127.947
-127.248
-127.748
-127.748
-127.747
-127.741
-127.737
-127.728
-127.72
-127.708
-127.698
-127.683
-127.67
-127.651
-127.635
-127.613
-127.594
-127.569
-127.548
-127.534
-127.508
-126.927
-127.432
-127.432
-127.431
-127.426
-127.421
-127.413
-127.405
-127.394
-127.383
-127.368
-127.354
-127.336
-127.32
-127.298
-127.279
-127.254
-127.232
-127.218
-127.192
-126.655
-127.165
-127.165
-127.164
-127.159
-127.155
-127.147
-127.139
-127.127
-127.117
-127.102
-127.089
-127.07
-127.054
-127.032
-127.012
-126.987
-126.965
-126.951
-126.925
-126.394
-126.908
-126.909
-126.908
-126.904
-126.9
-126.892
-126.884
-126.873
-126.862
-126.847
-126.833
-126.815
-126.798
-126.776
-126.757
-126.731
-126.709
-126.695
-126.668
-126.124
-126.642
-126.644
-126.642
-126.638
-126.634
-126.626
-126.618
-126.607
-126.596
-126.582
-126.568
-126.55
-126.533
-126.511
-126.491
-126.466
-126.443
-126.429
-126.402
-125.829
-126.352
-126.353
-126.353
-126.348
-126.345
-126.337
-126.33
-126.318
-126.308
-126.293
-126.279
-126.261
-126.244
-126.222
-126.202
-126.176
-126.154
-126.139
-126.112
-125.499
-126.027
-126.03
-126.029
-126.025
-126.021
-126.014
-126.006
-125.995
-125.985
-125.97
-125.956
-125.938
-125.921
-125.899
-125.879
-125.853
-125.83
-125.816
-125.788
-125.123
-125.658
-125.661
-125.661
-125.657
-125.654
-125.646
-125.639
-125.628
-125.617
-125.602
-125.589
-125.57
-125.553
-125.531
-125.511
-125.485
-125.461
-125.447
-125.419
-124.689
-125.231
-125.234
-125.235
-125.231
-125.228
-125.221
-125.214
-125.203
-125.192
-125.178
-125.164
-125.145
-125.128
-125.105
-125.085
-125.059
-125.035
-125.021
-124.993
-124.175
-124.726
-124.731
-124.73
-124.728
-124.724
-124.718
-124.711
-124.701
-124.689
-124.676
-124.661
-124.643
-124.625
-124.603
-124.582
-124.556
-124.531
-124.517
-124.488
-123.568
-124.129
-124.135
-124.135
-124.133
-124.13
-124.124
-124.117
-124.107
-124.096
-124.082
-124.067
-124.049
-124.031
-124.009
-123.988
-123.961
-123.936
-123.922
-123.893
-122.958
-123.506
-123.513
-123.514
-123.512
-123.51
-123.504
-123.498
-123.488
-123.478
-123.464
-123.45
-123.432
-123.414
-123.392
-123.371
-123.344
-123.32
-123.305
-123.275
-122.841
-122.844
-122.844
-122.846
-122.846
-122.847
-122.848
-122.848
-122.849
-122.849
-122.85
-122.85
-122.85
-122.85
-122.85
-122.85
-122.851
-122.851
-122.851
-122.851
)
;

boundaryField
{
    movingWall
    {
        type            calculated;
        value           nonuniform List<scalar> 
20
(
-122.841
-122.844
-122.844
-122.846
-122.846
-122.847
-122.848
-122.848
-122.849
-122.849
-122.85
-122.85
-122.85
-122.85
-122.85
-122.85
-122.851
-122.851
-122.851
-122.851
)
;
    }
    fixedWalls
    {
        type            calculated;
        value           nonuniform List<scalar> 
60
(
-155.399
-146.313
-137.523
-132.436
-129.783
-128.429
-127.695
-127.248
-126.927
-126.655
-126.394
-126.124
-125.829
-125.499
-125.123
-124.689
-124.175
-123.568
-122.958
-122.841
-155.405
-146.394
-137.658
-132.621
-130.002
-128.669
-127.947
-127.508
-127.192
-126.925
-126.668
-126.402
-126.112
-125.788
-125.419
-124.993
-124.488
-123.893
-123.275
-122.851
-155.399
-155.399
-155.4
-155.401
-155.402
-155.402
-155.403
-155.403
-155.404
-155.404
-155.404
-155.404
-155.405
-155.405
-155.405
-155.405
-155.405
-155.405
-155.405
-155.405
)
;
    }
    frontAndBack
    {
        type            empty;
    }
}


// ************************************************************************* //
