/*--------------------------------*- C++ -*----------------------------------*\
| =========                 |                                                 |
| \\      /  F ield         | OpenFOAM: The Open Source CFD Toolbox           |
|  \\    /   O peration     | Version:  2312                                  |
|   \\  /    A nd           | Website:  www.openfoam.com                      |
|    \\/     M anipulation  |                                                 |
\*---------------------------------------------------------------------------*/
FoamFile
{
    version     2.0;
    format      ascii;
    arch        "LSB;label=32;scalar=64";
    class       volScalarField;
    location    "3";
    object      Lambda2Field;
}
// * * * * * * * * * * * * * * * * * * * * * * * * * * * * * * * * * * * * * //

dimensions      [0 0 -2 0 0 0 0];

internalField   nonuniform List<scalar> 
400
(
0
-3.74691e-11
0
-3.67224e-14
0
1.37504e-15
0
1.41182e-16
0
1.5266e-17
4.75276e-18
2.50311e-18
9.12184e-19
3.41779e-19
1.77997e-19
1.44221e-19
1.33672e-19
8.2411e-20
1.11486e-20
-7.96485e-23
2.18999e-10
7.74918e-11
6.65488e-12
4.44671e-13
3.7731e-14
2.9206e-15
1.41342e-16
1.07463e-16
2.58561e-17
2.05307e-17
7.80972e-18
3.25465e-18
9.80904e-19
2.62034e-19
1.17871e-19
1.38736e-19
1.58961e-19
1.00291e-19
1.29854e-20
1.27816e-21
0
0
8.60946e-12
0
4.43016e-14
0
3.70689e-16
7.9845e-17
2.45701e-17
2.18472e-17
8.86354e-18
4.09313e-18
1.53816e-18
5.93986e-19
3.13036e-19
2.40687e-19
2.16662e-19
1.30236e-19
1.56623e-20
1.60674e-21
0
-3.97295e-11
0
-3.95505e-15
0
0
0
1.13983e-16
4.24282e-17
2.47542e-17
1.17321e-17
5.32411e-18
2.38368e-18
1.08854e-18
6.02883e-19
4.16565e-19
3.06509e-19
1.45456e-19
1.95408e-20
3.1884e-21
3.05197e-11
7.1985e-11
5.98619e-12
4.76442e-13
1.01033e-13
8.76435e-16
1.30176e-15
3.33407e-17
7.57119e-17
2.36301e-17
1.49834e-17
6.64814e-18
3.43945e-18
1.71007e-18
9.84318e-19
6.17508e-19
4.17928e-19
2.08231e-19
2.82306e-20
3.95468e-21
0
-3.39826e-10
0
-1.4386e-12
0
-4.96434e-15
8.33547e-17
4.1647e-17
7.24514e-17
2.67931e-17
1.70258e-17
8.31971e-18
4.50486e-18
2.44103e-18
1.40387e-18
8.81958e-19
5.58678e-19
2.36071e-19
3.66827e-20
6.02035e-21
0
0
1.13652e-13
0
7.64012e-14
0
7.05352e-16
6.89641e-17
5.82879e-17
3.27689e-17
1.7443e-17
1.01145e-17
5.52261e-18
3.18607e-18
1.86131e-18
1.13093e-18
6.91717e-19
3.21767e-19
5.26396e-20
7.57792e-21
0
0
0
0
0
0
0
9.60341e-17
5.35332e-17
3.57675e-17
1.96982e-17
1.15168e-17
6.53492e-18
3.84634e-18
2.26516e-18
1.3808e-18
8.34637e-19
3.49968e-19
6.33496e-20
9.29764e-21
0
0
0
0
1.49018e-13
0
4.47014e-16
8.07054e-17
1.68386e-17
3.99614e-17
1.81908e-17
1.2748e-17
7.20469e-18
4.39001e-18
2.62595e-18
1.5761e-18
9.26656e-19
4.29316e-19
8.31707e-20
1.06963e-20
0
0
4.41514e-11
0
3.22981e-13
0
6.80128e-16
0
7.36977e-17
2.22606e-17
2.58354e-17
1.27521e-17
8.13433e-18
4.72653e-18
2.86894e-18
1.71488e-18
1.01433e-18
4.45003e-19
9.13309e-20
1.20158e-20
2.72278e-10
0
2.21251e-10
0
6.97527e-13
0
1.66049e-15
1.46134e-17
1.66995e-17
4.67278e-17
1.57577e-17
1.45448e-17
8.01206e-18
5.05152e-18
3.04918e-18
1.80638e-18
1.03971e-18
5.01145e-19
1.10995e-19
1.24256e-20
2.38818e-09
0
3.74999e-10
0
1.17241e-12
0
2.85731e-15
0
1.07088e-16
6.77866e-18
2.9805e-17
1.325e-17
9.07708e-18
5.22745e-18
3.23312e-18
1.90522e-18
1.10432e-18
5.30759e-19
1.16698e-19
1.17955e-20
1.43351e-08
0
9.16135e-10
0
2.24737e-12
0
4.82885e-15
0
8.09359e-17
6.48444e-17
1.36711e-17
1.74178e-17
9.03157e-18
5.77585e-18
3.5366e-18
2.08667e-18
1.17443e-18
6.04098e-19
1.40806e-19
1.00046e-20
1.83565e-08
0
1.26298e-09
0
3.63958e-12
0
9.90487e-15
0
2.21028e-16
7.37094e-18
4.09439e-17
1.76276e-17
1.13257e-17
6.76719e-18
4.18887e-18
2.48101e-18
1.39173e-18
7.29142e-19
1.63425e-19
7.39739e-21
2.45507e-08
1.16384e-09
1.89363e-09
1.62228e-12
6.30316e-12
1.02548e-14
1.86567e-14
1.07558e-15
1.16353e-16
1.31916e-16
2.93486e-17
2.742e-17
1.40469e-17
8.74405e-18
5.35567e-18
3.15908e-18
1.74716e-18
9.13231e-19
2.20519e-19
7.93063e-21
1.21952e-08
0
9.01987e-10
0
4.63024e-12
0
1.61142e-14
0
4.36968e-16
1.00071e-16
7.14857e-17
3.67621e-17
1.98278e-17
1.19477e-17
7.1715e-18
4.17758e-18
2.28884e-18
1.1832e-18
2.87141e-19
1.27217e-20
4.90196e-08
1.23724e-08
2.89954e-09
6.97796e-11
1.1151e-11
5.04015e-13
3.18643e-14
7.32364e-15
5.54404e-17
3.48771e-16
8.71487e-17
5.11631e-17
2.77134e-17
1.57533e-17
9.72548e-18
5.46523e-18
2.97945e-18
1.44794e-18
3.62848e-19
2.11821e-20
4.20785e-08
1.16815e-08
1.31518e-09
6.61099e-11
8.55776e-12
2.63294e-13
8.93065e-14
-4.94674e-16
2.01194e-15
1.57689e-16
1.75403e-16
6.36274e-17
3.90938e-17
2.11702e-17
1.27436e-17
7.11254e-18
3.84252e-18
1.84758e-18
4.2968e-19
1.93554e-20
0
-6.7081e-09
0
0
0
0
2.11889e-14
-8.07536e-16
1.77854e-15
1.96891e-16
2.12236e-16
7.95965e-17
4.87488e-17
2.6425e-17
1.55539e-17
8.62857e-18
4.72695e-18
2.30985e-18
5.39557e-19
1.21321e-20
2.31559e-09
0
2.08459e-09
0
7.11185e-12
0
9.37205e-15
1.58741e-14
0
8.32792e-16
0
7.38007e-17
1.75479e-17
1.80721e-17
1.06371e-17
6.36273e-18
3.97272e-18
2.00214e-18
5.55624e-19
1.51706e-20
)
;

boundaryField
{
    movingWall
    {
        type            calculated;
        value           nonuniform List<scalar> 
20
(
0
0
0
0
0
1.33939e-12
0
4.37606e-14
0
1.63288e-15
0
6.62598e-17
0
8.43608e-18
4.49989e-18
3.53317e-18
2.67465e-18
1.54109e-18
4.2247e-19
1.44549e-20
)
;
    }
    fixedWalls
    {
        type            calculated;
        value           nonuniform List<scalar> 
60
(
0
1.15101e-09
2.20312e-09
-1.03096e-09
2.56543e-10
-6.86953e-09
1.02076e-08
0
4.08179e-08
0
1.33124e-07
0
3.50207e-07
0
5.67676e-07
0
7.49876e-07
2.15102e-07
0
0
1.43247e-21
1.79771e-21
5.07094e-21
3.26058e-21
4.56453e-21
4.63481e-21
4.4909e-21
5.01967e-21
5.45193e-21
6.58459e-21
7.45434e-21
7.95682e-21
7.71089e-21
5.43327e-21
6.02186e-21
7.1568e-21
9.93995e-21
6.19547e-21
0
0
0
0
0
0
0
4.44941e-15
0
3.34406e-16
0
1.66514e-17
2.52787e-18
2.36008e-18
1.08341e-18
5.81647e-19
3.25671e-19
2.07245e-19
1.38804e-19
6.44089e-20
1.05347e-20
-1.66495e-21
)
;
    }
    frontAndBack
    {
        type            empty;
    }
}


// ************************************************************************* //
