/*--------------------------------*- C++ -*----------------------------------*\
| =========                 |                                                 |
| \\      /  F ield         | OpenFOAM: The Open Source CFD Toolbox           |
|  \\    /   O peration     | Version:  2312                                  |
|   \\  /    A nd           | Website:  www.openfoam.com                      |
|    \\/     M anipulation  |                                                 |
\*---------------------------------------------------------------------------*/
FoamFile
{
    version     2.0;
    format      ascii;
    arch        "LSB;label=32;scalar=64";
    class       volVectorField;
    location    "3";
    object      LambVectorField;
}
// * * * * * * * * * * * * * * * * * * * * * * * * * * * * * * * * * * * * * //

dimensions      [0 1 -2 0 0 0 0];

internalField   nonuniform List<vector> 
400
(
(-1.18063e-11 -3.38741e-05 -3.38741e-05)
(-2.89825e-12 3.47744e-05 -0)
(-1.72329e-13 -8.66739e-06 -8.66739e-06)
(-9.88063e-15 2.04048e-06 -0)
(-6.63671e-16 -5.86514e-07 -5.86514e-07)
(-3.048e-17 9.70926e-08 -0)
(-2.80966e-18 -6.34581e-08 -6.34581e-08)
(3.24969e-19 -8.75786e-09 -0)
(1.49157e-19 -1.39864e-08 -1.39864e-08)
(6.36973e-20 -5.54407e-09 -0)
(2.01313e-20 -3.05398e-09 -3.05398e-09)
(2.53296e-21 -6.132e-10 -0)
(-1.03128e-21 5.12667e-10 5.12667e-10)
(-6.92345e-22 1.06439e-09 -0)
(2.39729e-22 1.13626e-09 1.13626e-09)
(6.58177e-22 9.6028e-10 0)
(5.81549e-22 6.53867e-10 6.53867e-10)
(2.52584e-22 3.28903e-10 0)
(2.8849e-23 9.05113e-11 9.05113e-11)
(7.24187e-24 7.78974e-11 0)
(-6.84316e-12 1.91506e-05 1.91506e-05)
(-2.6925e-12 -3.13711e-05 0)
(-1.50204e-13 7.28403e-06 7.28403e-06)
(-8.35414e-15 -1.69793e-06 0)
(-5.25495e-16 3.93378e-07 3.93378e-07)
(-1.97066e-17 -9.42687e-08 0)
(-3.15551e-18 2.01235e-08 2.01235e-08)
(2.76388e-19 -6.55076e-09 -0)
(1.3081e-21 -2.59975e-11 -2.59975e-11)
(4.09632e-20 -1.35758e-09 -0)
(1.68344e-20 -8.10172e-10 -8.10172e-10)
(8.36557e-21 -7.02191e-10 -0)
(2.84856e-21 -4.84476e-10 -4.84476e-10)
(5.2404e-22 -3.061e-10 -0)
(-1.28987e-22 -1.56851e-10 -1.56851e-10)
(-1.07227e-22 -4.9359e-11 0)
(1.34483e-22 4.94523e-11 4.94523e-11)
(5.2039e-22 2.11695e-10 0)
(2.14651e-22 2.26405e-10 2.26405e-10)
(3.48174e-23 1.2195e-10 0)
(-1.28554e-11 -3.41891e-05 -3.41891e-05)
(-3.109e-12 3.63931e-05 -0)
(-1.70113e-13 -8.47146e-06 -8.47146e-06)
(-9.55321e-15 1.97112e-06 -0)
(-4.06493e-16 -4.62438e-07 -4.62438e-07)
(-4.53048e-17 1.05456e-07 -0)
(2.11757e-18 -2.73291e-08 -2.73291e-08)
(-4.65917e-19 3.98241e-09 -0)
(2.29172e-19 -3.25951e-09 -3.25951e-09)
(6.68301e-20 -1.30379e-09 -0)
(4.73494e-20 -1.47814e-09 -1.47814e-09)
(2.0236e-20 -1.09051e-09 -0)
(6.9122e-21 -8.05585e-10 -8.05585e-10)
(9.98906e-22 -5.01319e-10 -0)
(-5.16602e-22 -2.56223e-10 -2.56223e-10)
(-3.02858e-22 -7.41353e-11 0)
(4.47997e-22 9.255e-11 9.255e-11)
(1.54923e-21 3.64396e-10 0)
(6.63606e-22 3.92554e-10 3.92554e-10)
(1.07877e-22 2.16823e-10 0)
(-1.7059e-11 4.25754e-05 4.25754e-05)
(-3.44652e-12 -4.00298e-05 0)
(-1.94161e-13 9.21804e-06 9.21804e-06)
(-8.38783e-15 -2.12987e-06 0)
(-6.53074e-16 4.88916e-07 4.88916e-07)
(5.5412e-18 -1.16654e-07 -0)
(-5.53738e-18 2.35705e-08 2.35705e-08)
(1.1318e-18 -8.73029e-09 -0)
(1.05558e-19 -1.07001e-09 -1.07001e-09)
(1.64905e-19 -2.53372e-09 -0)
(7.36872e-20 -1.80367e-09 -1.80367e-09)
(3.41377e-20 -1.50793e-09 -0)
(1.01732e-20 -1.06272e-09 -1.06272e-09)
(6.58823e-22 -6.57804e-10 -0)
(-1.29617e-21 -3.16536e-10 -3.16536e-10)
(-4.34479e-22 -6.597e-11 0)
(1.20064e-21 1.63765e-10 1.63765e-10)
(3.40507e-21 5.38166e-10 0)
(1.48646e-21 5.78525e-10 5.78525e-10)
(2.3986e-22 3.27585e-10 0)
(-1.65614e-11 -3.53527e-05 -3.53527e-05)
(-4.56997e-12 4.28471e-05 -0)
(-2.37285e-13 -9.64702e-06 -9.64702e-06)
(-1.42373e-14 2.161e-06 -0)
(-4.73554e-16 -4.87521e-07 -4.87521e-07)
(-7.10088e-17 1.04316e-07 -0)
(3.79306e-18 -2.70721e-08 -2.70721e-08)
(-3.61869e-19 1.94841e-09 -0)
(4.35231e-19 -4.11474e-09 -4.11474e-09)
(1.86599e-19 -2.46366e-09 -0)
(1.04016e-19 -2.34023e-09 -2.34023e-09)
(4.25502e-20 -1.80183e-09 -0)
(1.04935e-20 -1.2853e-09 -1.2853e-09)
(-1.26547e-21 -7.68613e-10 0)
(-2.49842e-21 -3.40823e-10 -3.40823e-10)
(-2.50382e-22 -2.53523e-11 0)
(2.71622e-21 2.62474e-10 2.62474e-10)
(6.37141e-21 7.34876e-10 0)
(2.86685e-21 7.89657e-10 7.89657e-10)
(4.59046e-22 4.59886e-10 0)
(-4.0917e-11 7.75416e-05 7.75416e-05)
(-6.0664e-12 -5.76553e-05 0)
(-3.35443e-13 1.32139e-05 1.32139e-05)
(-1.24555e-14 -3.03383e-06 0)
(-9.78689e-16 6.91224e-07 6.91224e-07)
(2.54292e-17 -1.63221e-07 -0)
(-8.68149e-18 3.28812e-08 3.28812e-08)
(2.03483e-18 -1.20984e-08 -0)
(1.69877e-19 -1.47248e-09 -1.47248e-09)
(2.67687e-19 -3.53568e-09 -0)
(1.09025e-19 -2.51157e-09 -2.51157e-09)
(4.27902e-20 -2.08254e-09 -0)
(5.83734e-21 -1.43047e-09 -1.43047e-09)
(-5.14534e-21 -8.28415e-10 0)
(-3.76517e-21 -3.174e-10 -3.174e-10)
(7.9654e-22 5.6865e-11 0)
(5.51429e-21 3.97626e-10 3.97626e-10)
(1.08757e-20 9.58402e-10 0)
(5.00063e-21 1.02613e-09 1.02613e-09)
(7.93167e-22 6.13162e-10 0)
(-5.39819e-11 -7.92873e-05 -7.92873e-05)
(-9.97628e-12 6.91062e-05 -0)
(-5.22289e-13 -1.56771e-05 -1.56771e-05)
(-2.70122e-14 3.54151e-06 -0)
(-9.57628e-16 -8.03515e-07 -8.03515e-07)
(-1.16885e-16 1.75779e-07 -0)
(6.75464e-18 -4.43181e-08 -4.43181e-08)
(-9.03646e-19 5.05936e-09 -0)
(6.02887e-19 -5.71928e-09 -5.71928e-09)
(2.00773e-19 -2.90993e-09 -0)
(1.07222e-19 -2.94325e-09 -2.94325e-09)
(2.94987e-20 -2.20097e-09 -0)
(-4.34761e-21 -1.5259e-09 -1.5259e-09)
(-1.05476e-20 -8.2806e-10 0)
(-4.38841e-21 -2.47981e-10 -2.47981e-10)
(3.39952e-21 1.79032e-10 0)
(1.01258e-20 5.65195e-10 5.65195e-10)
(1.72003e-20 1.20421e-09 0)
(8.08355e-21 1.28496e-09 1.28496e-09)
(1.27368e-21 7.86976e-10 0)
(-8.47494e-11 9.93802e-05 9.93802e-05)
(-1.53209e-11 -8.62871e-05 0)
(-8.24701e-13 1.94438e-05 1.94438e-05)
(-3.64397e-14 -4.37183e-06 0)
(-2.21274e-15 9.74558e-07 9.74558e-07)
(-3.6102e-17 -2.22518e-07 0)
(-1.26863e-17 4.45181e-08 4.45181e-08)
(1.78354e-18 -1.48465e-08 -0)
(1.42431e-19 -1.48502e-09 -1.48502e-09)
(2.12085e-19 -4.01789e-09 -0)
(6.91259e-20 -2.85109e-09 -2.85109e-09)
(5.32271e-21 -2.31871e-09 -0)
(-1.90524e-20 -1.52532e-09 -1.52532e-09)
(-1.62565e-20 -7.71151e-10 0)
(-3.16641e-21 -1.28168e-10 -1.28168e-10)
(8.43405e-21 3.41861e-10 0)
(1.7084e-20 7.64924e-10 7.64924e-10)
(2.55883e-20 1.46781e-09 0)
(1.22251e-20 1.55898e-09 1.55898e-09)
(1.91264e-21 9.7559e-10 0)
(-1.64216e-10 -0.000146883 -0.000146883)
(-2.72289e-11 0.000117793 -0)
(-1.44457e-12 -2.68685e-05 -2.68685e-05)
(-6.91603e-14 6.10983e-06 -0)
(-2.89757e-15 -1.3918e-06 -1.3918e-06)
(-2.19918e-16 3.10721e-07 -0)
(5.43557e-18 -7.51711e-08 -7.51711e-08)
(-1.50968e-18 1.20273e-08 -0)
(4.73974e-19 -7.47253e-09 -7.47253e-09)
(8.81599e-20 -2.69915e-09 -0)
(2.09562e-20 -3.1527e-09 -3.1527e-09)
(-2.71775e-20 -2.23322e-09 0)
(-3.60818e-20 -1.47492e-09 -1.47492e-09)
(-2.01695e-20 -6.52591e-10 0)
(1.07668e-21 3.30256e-11 3.30256e-11)
(1.65446e-20 5.36391e-10 0)
(2.65983e-20 9.85564e-10 9.85564e-10)
(3.58521e-20 1.73662e-09 0)
(1.73816e-20 1.83704e-09 1.83704e-09)
(2.7044e-21 1.17177e-09 0)
(-2.64591e-10 0.000180225 0.000180225)
(-4.67536e-11 -0.000151899 0)
(-2.52347e-12 3.47029e-05 3.47029e-05)
(-1.16366e-13 -7.91155e-06 0)
(-6.31841e-15 1.79541e-06 1.79541e-06)
(-2.26292e-16 -4.11615e-07 0)
(-2.11864e-17 8.86131e-08 8.86131e-08)
(9.1097e-19 -2.46715e-08 -0)
(-3.67727e-20 9.83512e-10 9.83512e-10)
(2.12331e-20 -4.44298e-09 -0)
(-3.87806e-20 -2.62994e-09 -2.62994e-09)
(-6.49555e-20 -2.21283e-09 0)
(-5.03636e-20 -1.31828e-09 -1.31828e-09)
(-2.04455e-20 -4.90091e-10 0)
(9.45898e-21 2.3076e-10 2.3076e-10)
(2.79666e-20 7.5241e-10 0)
(3.8416e-20 1.21586e-09 1.21586e-09)
(4.74688e-20 1.9972e-09 0)
(2.33145e-20 2.1056e-09 2.1056e-09)
(3.59877e-21 1.36493e-09 0)
(-4.31934e-10 -0.000223368 -0.000223367)
(-8.23797e-11 0.000197844 -0)
(-4.4344e-12 -4.56298e-05 -4.56298e-05)
(-2.21751e-13 1.04993e-05 -0)
(-1.06642e-14 -2.41474e-06 -2.41474e-06)
(-6.15398e-16 5.49833e-07 -0)
(-1.88631e-17 -1.29758e-07 -1.29758e-07)
(-1.60113e-18 2.53666e-08 -0)
(-1.39797e-19 -9.98132e-09 -9.98132e-09)
(-3.9813e-20 -1.662e-09 0)
(-1.18625e-19 -2.99196e-09 -2.99196e-09)
(-9.14746e-20 -1.8889e-09 0)
(-6.08738e-20 -1.15054e-09 -1.15054e-09)
(-1.47356e-20 -2.78534e-10 0)
(2.19912e-20 4.45714e-10 4.45714e-10)
(4.21333e-20 9.74169e-10 0)
(5.15729e-20 1.43727e-09 1.43727e-09)
(5.93108e-20 2.23001e-09 0)
(2.94685e-20 2.34665e-09 2.34665e-09)
(4.50951e-21 1.54187e-09 0)
(-6.68145e-10 0.000270865 0.000270866)
(-1.34074e-10 -0.000250126 0)
(-7.35802e-12 5.80634e-05 5.80634e-05)
(-3.62201e-13 -1.34489e-05 0)
(-1.9103e-14 3.10773e-06 3.10773e-06)
(-9.48598e-16 -7.20286e-07 0)
(-4.07154e-17 1.62687e-07 1.62687e-07)
(-3.92238e-18 -4.10862e-08 0)
(2.29069e-19 5.73059e-09 5.73059e-09)
(-2.97834e-19 -4.81426e-09 0)
(-1.2478e-19 -1.90019e-09 -1.90019e-09)
(-1.23721e-19 -1.80725e-09 0)
(-5.8948e-20 -8.7026e-10 -8.7026e-10)
(-4.00322e-21 -6.28618e-11 0)
(3.78404e-20 6.63349e-10 6.63349e-10)
(5.72439e-20 1.17787e-09 0)
(6.42059e-20 1.62644e-09 1.62644e-09)
(6.96823e-20 2.41222e-09 0)
(3.51113e-20 2.5415e-09 2.5415e-09)
(5.31014e-21 1.68955e-09 0)
(-9.02591e-10 -0.000294822 -0.000294822)
(-2.0809e-10 0.000302787 -0)
(-1.15859e-11 -7.10985e-05 -7.10985e-05)
(-5.95497e-13 1.66568e-05 -0)
(-3.26638e-14 -3.89759e-06 -3.89759e-06)
(-1.59388e-15 9.08091e-07 -0)
(-1.05065e-16 -2.14139e-07 -2.14139e-07)
(2.72248e-19 4.68182e-08 0)
(-1.63861e-18 -1.39609e-08 -1.39609e-08)
(2.39631e-20 2.58049e-10 0)
(-2.45587e-19 -2.60806e-09 -2.60806e-09)
(-1.10202e-19 -1.25184e-09 0)
(-5.40315e-20 -6.61977e-10 -6.61977e-10)
(1.28905e-20 1.76145e-10 0)
(5.42847e-20 8.56571e-10 8.56571e-10)
(7.09799e-20 1.34752e-09 0)
(7.41723e-20 1.76604e-09 1.76604e-09)
(7.67875e-20 2.52488e-09 0)
(3.91461e-20 2.66641e-09 2.66641e-09)
(5.84761e-21 1.78943e-09 0)
(-9.96028e-10 0.000288887 0.000288887)
(-2.70827e-10 -0.000334216 0)
(-1.51842e-11 7.99463e-05 7.99463e-05)
(-8.34869e-13 -1.90762e-05 0)
(-4.50497e-14 4.53968e-06 4.53968e-06)
(-2.59315e-15 -1.0781e-06 0)
(-8.35357e-17 2.53157e-07 2.53157e-07)
(-1.67646e-17 -6.19107e-08 0)
(1.5531e-18 1.21081e-08 1.21081e-08)
(-7.30612e-19 -5.24254e-09 0)
(-9.87284e-20 -8.27246e-10 -8.27246e-10)
(-1.32754e-19 -1.24958e-09 0)
(-3.05575e-20 -3.2793e-10 -3.2793e-10)
(2.86486e-20 3.56684e-10 0)
(6.80673e-20 1.00783e-09 1.00783e-09)
(7.96752e-20 1.45106e-09 0)
(7.8725e-20 1.82833e-09 1.82833e-09)
(7.84435e-20 2.54209e-09 0)
(4.0596e-20 2.69912e-09 2.69912e-09)
(5.98729e-21 1.82761e-09 0)
(-9.51063e-10 -0.000256797 -0.000256797)
(-3.11732e-10 0.00034619 -0)
(-1.75139e-11 -8.29081e-05 -8.29081e-05)
(-1.01979e-12 1.98326e-05 -0)
(-5.85279e-14 -4.74083e-06 -4.74083e-06)
(-2.98982e-15 1.13266e-06 -0)
(-2.65178e-16 -2.71635e-07 -2.71635e-07)
(4.91632e-18 6.33319e-08 0)
(-4.19273e-18 -1.69025e-08 -1.69025e-08)
(3.60332e-19 2.2101e-09 0)
(-3.03827e-19 -2.07837e-09 -2.07837e-09)
(-6.46371e-20 -5.40281e-10 0)
(-1.85277e-20 -1.8356e-10 -1.8356e-10)
(4.46351e-20 5.32383e-10 0)
(7.46794e-20 1.08767e-09 1.08767e-09)
(8.1068e-20 1.48236e-09 0)
(7.6311e-20 1.80685e-09 1.80685e-09)
(7.3695e-20 2.45397e-09 0)
(3.84784e-20 2.61492e-09 2.61492e-09)
(5.61455e-21 1.78289e-09 0)
(-1.27808e-09 0.000333546 0.000333547)
(-3.42601e-10 -0.000375916 0)
(-1.93651e-11 9.05948e-05 9.05948e-05)
(-1.10699e-12 -2.18261e-05 0)
(-5.87295e-14 5.26435e-06 5.26435e-06)
(-3.98961e-15 -1.27055e-06 0)
(-5.94897e-17 3.06622e-07 3.06622e-07)
(-3.50439e-17 -7.5047e-08 0)
(4.00143e-18 1.69457e-08 1.69457e-08)
(-1.12871e-18 -5.36115e-09 0)
(3.3948e-20 2.12802e-10 2.12802e-10)
(-9.09045e-20 -7.13241e-10 0)
(1.17155e-20 1.14449e-10 1.14449e-10)
(4.90155e-20 5.94562e-10 0)
(7.22313e-20 1.09701e-09 1.09701e-09)
(7.30773e-20 1.41923e-09 0)
(6.62294e-20 1.68836e-09 1.68836e-09)
(6.22066e-20 2.24989e-09 0)
(3.27412e-20 2.40247e-09 2.40247e-09)
(4.72515e-21 1.6455e-09 0)
(-6.08485e-10 -0.000153289 -0.000153289)
(-3.41157e-10 0.000340353 -0)
(-1.93698e-11 -8.10954e-05 -8.10953e-05)
(-1.14216e-12 1.93081e-05 -0)
(-7.20704e-14 -4.59446e-06 -4.59446e-06)
(-3.1478e-15 1.09379e-06 -0)
(-3.98943e-16 -2.59957e-07 -2.59957e-07)
(1.25858e-17 6.13036e-08 0)
(-5.58321e-18 -1.52011e-08 -1.52011e-08)
(5.82279e-19 2.81496e-09 0)
(-2.18824e-19 -1.31256e-09 -1.31256e-09)
(-3.25624e-21 -2.66269e-11 0)
(1.38977e-20 1.45327e-10 1.45327e-10)
(4.79074e-20 6.42195e-10 0)
(5.92841e-20 1.01568e-09 1.01568e-09)
(5.72288e-20 1.27399e-09 0)
(5.01753e-20 1.48145e-09 1.48145e-09)
(4.61474e-20 1.93987e-09 0)
(2.42668e-20 2.06586e-09 2.06586e-09)
(3.40882e-21 1.40965e-09 0)
(-6.98154e-10 0.000171348 0.000171348)
(-3.67705e-10 -0.000353155 0)
(-2.04091e-11 8.43233e-05 8.43233e-05)
(-1.34752e-12 -2.01222e-05 0)
(-6.52962e-14 4.80522e-06 4.80522e-06)
(-6.14446e-15 -1.14677e-06 0)
(-7.42171e-17 2.74166e-07 2.74166e-07)
(-4.98364e-17 -6.56643e-08 0)
(3.61558e-18 1.53506e-08 1.53506e-08)
(-9.42716e-19 -4.141e-09 0)
(8.49066e-20 6.09763e-10 6.09763e-10)
(-3.33977e-20 -3.12456e-10 0)
(1.97795e-20 2.51707e-10 2.51707e-10)
(3.07626e-20 5.07894e-10 0)
(3.73207e-20 8.04391e-10 8.04391e-10)
(3.45632e-20 9.77763e-10 0)
(2.96017e-20 1.12005e-09 1.12005e-09)
(2.72679e-20 1.47759e-09 0)
(1.47489e-20 1.61158e-09 1.61158e-09)
(1.96749e-21 1.09374e-09 0)
(-2.0877e-09 -0.000527694 -0.000527693)
(-3.84255e-10 0.000436619 -0)
(-2.26843e-11 -0.000106792 -0.000106792)
(-1.03014e-12 2.61762e-05 -0)
(-7.60325e-14 -6.42601e-06 -6.42601e-06)
(-7.2291e-16 1.58501e-06 -0)
(-3.77236e-16 -3.90325e-07 -3.90325e-07)
(3.58222e-17 9.71779e-08 0)
(-5.37247e-18 -2.40298e-08 -2.40298e-08)
(9.2263e-19 5.88593e-09 0)
(-1.58546e-19 -1.62588e-09 -1.62588e-09)
(2.32929e-20 3.21902e-10 0)
(-3.76934e-23 -7.29044e-13 -7.29044e-13)
(1.14248e-20 2.90554e-10 0)
(1.23067e-20 4.15129e-10 4.15129e-10)
(1.13065e-20 5.05274e-10 0)
(9.38612e-21 5.64237e-10 5.64237e-10)
(9.82092e-21 8.31189e-10 0)
(6.25786e-21 1.03758e-09 1.03758e-09)
(7.81343e-22 7.23288e-10 0)
(-1.75702e-09 0.000428417 0.000428419)
(-4.72851e-10 -0.000420485 0)
(-3.18612e-11 0.000119093 0.000119093)
(-2.15739e-12 -2.84471e-05 0)
(-1.63469e-13 8.87247e-06 8.87247e-06)
(-1.06441e-14 -1.88864e-06 0)
(-9.91203e-16 8.31476e-07 8.31476e-07)
(-2.74198e-17 -5.10564e-08 0)
(-3.32691e-18 1.35816e-07 1.35816e-07)
(3.66029e-18 4.27052e-08 0)
(1.20034e-18 4.49343e-08 4.49343e-08)
(7.51116e-19 2.74903e-08 0)
(3.57071e-19 2.09117e-08 2.09117e-08)
(1.92155e-19 1.42854e-08 0)
(9.68684e-20 9.81664e-09 9.81664e-09)
(4.69117e-20 6.30008e-09 0)
(2.08655e-20 3.75662e-09 3.75662e-09)
(7.71093e-21 1.89091e-09 0)
(1.53802e-21 7.04647e-10 7.04647e-10)
(9.86465e-23 2.75729e-10 0)
)
;

boundaryField
{
    movingWall
    {
        type            calculated;
        value           nonuniform List<vector> 
20
(
(0 0.0013858 -0)
(0 -0.000659245 -0)
(0 0.000211674 -0)
(0 -5.13755e-05 -0)
(0 1.77497e-05 -0)
(0 -3.89513e-06 -0)
(0 1.80607e-06 -0)
(0 -1.37203e-07 -0)
(0 2.98154e-07 -0)
(0 8.42116e-08 -0)
(0 9.48785e-08 -0)
(0 5.61478e-08 -0)
(0 4.3149e-08 -0)
(0 2.9182e-08 -0)
(0 2.0037e-08 -0)
(0 1.2807e-08 -0)
(0 7.61039e-09 -0)
(0 3.6578e-09 -0)
(0 1.06257e-09 -0)
(0 2.77759e-10 -0)
)
;
    }
    fixedWalls
    {
        type            calculated;
        value           nonuniform List<vector> 
60
(
(0 -0.000146769 -0)
(0 0.000134933 -0)
(0 -0.000155534 -0)
(0 0.000171389 -0)
(0 -0.000186557 -0)
(0 0.000246367 -0)
(0 -0.000297975 -0)
(0 0.00037297 -0)
(0 -0.000505401 -0)
(0 0.000651439 -0)
(0 -0.000845126 -0)
(0 0.00106448 -0)
(0 -0.00128199 -0)
(0 0.00140427 -0)
(0 -0.00145791 -0)
(0 0.00157422 -0)
(0 -0.00144438 -0)
(0 0.00149781 -0)
(0 -0.00180258 -0)
(0 0.00177123 -0)
(0 7.39141e-11 -0)
(0 1.12793e-10 -0)
(0 1.97035e-10 -0)
(0 2.90307e-10 -0)
(0 3.96288e-10 -0)
(0 5.13904e-10 -0)
(0 6.43421e-10 -0)
(0 7.79564e-10 -0)
(0 9.1798e-10 -0)
(0 1.04865e-09 -0)
(0 1.16351e-09 -0)
(0 1.25091e-09 -0)
(0 1.30167e-09 -0)
(0 1.30637e-09 -0)
(0 1.25613e-09 -0)
(0 1.14415e-09 -0)
(0 9.60454e-10 -0)
(0 7.18217e-10 -0)
(0 4.44249e-10 -0)
(0 1.64791e-10 -0)
(0 -4.90613e-05 -0)
(0 3.89823e-05 -0)
(0 -1.02825e-05 -0)
(0 2.44868e-06 -0)
(0 -7.93582e-07 -0)
(0 1.07393e-07 -0)
(0 -1.05996e-07 -0)
(0 -2.21638e-08 -0)
(0 -2.68457e-08 -0)
(0 -1.13807e-08 -0)
(0 -6.07753e-09 -0)
(0 -1.26582e-09 -0)
(0 1.00467e-09 -0)
(0 2.10073e-09 -0)
(0 2.24171e-09 -0)
(0 1.88926e-09 -0)
(0 1.27552e-09 -0)
(0 5.81936e-10 -0)
(0 9.96067e-11 -0)
(0 1.152e-10 -0)
)
;
    }
    frontAndBack
    {
        type            empty;
    }
}


// ************************************************************************* //
