/*--------------------------------*- C++ -*----------------------------------*\
| =========                 |                                                 |
| \\      /  F ield         | OpenFOAM: The Open Source CFD Toolbox           |
|  \\    /   O peration     | Version:  2312                                  |
|   \\  /    A nd           | Website:  www.openfoam.com                      |
|    \\/     M anipulation  |                                                 |
\*---------------------------------------------------------------------------*/
FoamFile
{
    version     2.0;
    format      ascii;
    arch        "LSB;label=32;scalar=64";
    class       volVectorField;
    location    "3";
    object      momentum1:momentum;
}
// * * * * * * * * * * * * * * * * * * * * * * * * * * * * * * * * * * * * * //

dimensions      [1 1 -1 0 0 0 0];

internalField   nonuniform List<vector> 
400
(
(-2.5e-07 8.71338e-14 0)
(-2.5e-07 -2.0836e-14 0)
(-2.5e-07 4.97061e-15 0)
(-2.5e-07 -1.21058e-15 0)
(-2.5e-07 2.82888e-16 0)
(-2.5e-07 -7.84817e-17 0)
(-2.5e-07 1.1069e-17 0)
(-2.5e-07 -9.27651e-18 0)
(-2.5e-07 -2.66611e-18 0)
(-2.5e-07 -2.87231e-18 0)
(-2.5e-07 -1.64796e-18 0)
(-2.5e-07 -1.03268e-18 0)
(-2.5e-07 -5.02899e-19 0)
(-2.5e-07 -1.62615e-19 0)
(-2.5e-07 5.27452e-20 0)
(-2.5e-07 1.7135e-19 0)
(-2.5e-07 2.2235e-19 0)
(-2.5e-07 1.91989e-19 0)
(-2.5e-07 7.96834e-20 0)
(-2.5e-07 2.32417e-20 0)
(-2.5e-07 -8.93334e-14 0)
(-2.5e-07 2.14569e-14 0)
(-2.5e-07 -5.15524e-15 0)
(-2.5e-07 1.23005e-15 0)
(-2.5e-07 -3.33963e-16 0)
(-2.5e-07 5.22618e-17 0)
(-2.5e-07 -3.92017e-17 0)
(-2.5e-07 -1.0548e-17 0)
(-2.5e-07 -1.25791e-17 0)
(-2.5e-07 -7.54342e-18 0)
(-2.5e-07 -5.19471e-18 0)
(-2.5e-07 -2.97838e-18 0)
(-2.5e-07 -1.46992e-18 0)
(-2.5e-07 -4.27997e-19 0)
(-2.5e-07 2.05588e-19 0)
(-2.5e-07 5.43095e-19 0)
(-2.5e-07 6.7986e-19 0)
(-2.5e-07 6.14553e-19 0)
(-2.5e-07 2.37021e-19 0)
(-2.5e-07 7.13765e-20 0)
(-2.5e-07 9.40021e-14 0)
(-2.5e-07 -2.13571e-14 0)
(-2.5e-07 5.02017e-15 0)
(-2.5e-07 -1.21165e-15 0)
(-2.5e-07 2.19756e-16 0)
(-2.5e-07 -1.07403e-16 0)
(-2.5e-07 -1.9371e-17 0)
(-2.5e-07 -2.92484e-17 0)
(-2.5e-07 -1.75771e-17 0)
(-2.5e-07 -1.28146e-17 0)
(-2.5e-07 -8.00831e-18 0)
(-2.5e-07 -4.6391e-18 0)
(-2.5e-07 -2.14509e-18 0)
(-2.5e-07 -4.98138e-19 0)
(-2.5e-07 5.04055e-19 0)
(-2.5e-07 1.0213e-18 0)
(-2.5e-07 1.21015e-18 0)
(-2.5e-07 1.06287e-18 0)
(-2.5e-07 4.22621e-19 0)
(-2.5e-07 1.24383e-19 0)
(-2.5e-07 -1.00169e-13 0)
(-2.5e-07 2.15247e-14 0)
(-2.5e-07 -5.26578e-15 0)
(-2.5e-07 9.84546e-16 0)
(-2.5e-07 -3.3394e-16 0)
(-2.5e-07 -1.18753e-17 0)
(-2.5e-07 -5.87322e-17 0)
(-2.5e-07 -3.24101e-17 0)
(-2.5e-07 -2.46627e-17 0)
(-2.5e-07 -1.6271e-17 0)
(-2.5e-07 -1.02135e-17 0)
(-2.5e-07 -5.65971e-18 0)
(-2.5e-07 -2.3932e-18 0)
(-2.5e-07 -2.50387e-19 0)
(-2.5e-07 1.02371e-18 0)
(-2.5e-07 1.6465e-18 0)
(-2.5e-07 1.83286e-18 0)
(-2.5e-07 1.58179e-18 0)
(-2.5e-07 6.42349e-19 0)
(-2.5e-07 1.83052e-19 0)
(-2.5e-07 1.17115e-13 0)
(-2.5e-07 -2.66644e-14 0)
(-2.5e-07 6.14919e-15 0)
(-2.5e-07 -1.64708e-15 0)
(-2.5e-07 2.42837e-16 0)
(-2.5e-07 -1.70178e-16 0)
(-2.5e-07 -3.50275e-17 0)
(-2.5e-07 -4.64314e-17 0)
(-2.5e-07 -2.64434e-17 0)
(-2.5e-07 -1.89351e-17 0)
(-2.5e-07 -1.11117e-17 0)
(-2.5e-07 -5.90375e-18 0)
(-2.5e-07 -2.04107e-18 0)
(-2.5e-07 4.11608e-19 0)
(-2.5e-07 1.83264e-18 0)
(-2.5e-07 2.46903e-18 0)
(-2.5e-07 2.58713e-18 0)
(-2.5e-07 2.16751e-18 0)
(-2.5e-07 9.07625e-19 0)
(-2.5e-07 2.49544e-19 0)
(-2.5e-07 -1.31919e-13 0)
(-2.5e-07 2.63046e-14 0)
(-2.5e-07 -6.34641e-15 0)
(-2.5e-07 1.02639e-15 0)
(-2.5e-07 -3.5397e-16 0)
(-2.5e-07 -3.89489e-17 0)
(-2.5e-07 -6.60065e-17 0)
(-2.5e-07 -4.20475e-17 0)
(-2.5e-07 -2.88419e-17 0)
(-2.5e-07 -1.89275e-17 0)
(-2.5e-07 -1.08522e-17 0)
(-2.5e-07 -5.13677e-18 0)
(-2.5e-07 -1.02018e-18 0)
(-2.5e-07 1.55276e-18 0)
(-2.5e-07 2.96563e-18 0)
(-2.5e-07 3.50189e-18 0)
(-2.5e-07 3.46701e-18 0)
(-2.5e-07 2.83695e-18 0)
(-2.5e-07 1.21832e-18 0)
(-2.5e-07 3.23392e-19 0)
(-2.5e-07 1.7021e-13 0)
(-2.5e-07 -3.60904e-14 0)
(-2.5e-07 8.32886e-15 0)
(-2.5e-07 -1.90683e-15 0)
(-2.5e-07 2.9795e-16 0)
(-2.5e-07 -1.66239e-16 0)
(-2.5e-07 -3.81032e-17 0)
(-2.5e-07 -4.46522e-17 0)
(-2.5e-07 -2.63533e-17 0)
(-2.5e-07 -1.72489e-17 0)
(-2.5e-07 -9.10748e-18 0)
(-2.5e-07 -3.35065e-18 0)
(-2.5e-07 7.12305e-19 0)
(-2.5e-07 3.18443e-18 0)
(-2.5e-07 4.42414e-18 0)
(-2.5e-07 4.74709e-18 0)
(-2.5e-07 4.47889e-18 0)
(-2.5e-07 3.57087e-18 0)
(-2.5e-07 1.57272e-18 0)
(-2.5e-07 4.04611e-19 0)
(-2.5e-07 -2.13195e-13 0)
(-2.5e-07 4.43892e-14 0)
(-2.5e-07 -1.06037e-14 0)
(-2.5e-07 2.08378e-15 0)
(-2.5e-07 -5.67627e-16 0)
(-2.5e-07 4.05609e-17 0)
(-2.5e-07 -7.12423e-17 0)
(-2.5e-07 -3.0033e-17 0)
(-2.5e-07 -2.3978e-17 0)
(-2.5e-07 -1.31963e-17 0)
(-2.5e-07 -6.06135e-18 0)
(-2.5e-07 -5.73886e-19 0)
(-2.5e-07 3.12268e-18 0)
(-2.5e-07 5.27019e-18 0)
(-2.5e-07 6.1763e-18 0)
(-2.5e-07 6.16775e-18 0)
(-2.5e-07 5.58355e-18 0)
(-2.5e-07 4.35823e-18 0)
(-2.5e-07 1.96044e-18 0)
(-2.5e-07 4.90124e-19 0)
(-2.5e-07 2.79502e-13 0)
(-2.5e-07 -5.77897e-14 0)
(-2.5e-07 1.34411e-14 0)
(-2.5e-07 -2.82988e-15 0)
(-2.5e-07 5.20471e-16 0)
(-2.5e-07 -1.76941e-16 0)
(-2.5e-07 -1.80773e-17 0)
(-2.5e-07 -3.13803e-17 0)
(-2.5e-07 -1.58572e-17 0)
(-2.5e-07 -8.16554e-18 0)
(-2.5e-07 -1.66177e-18 0)
(-2.5e-07 3.04241e-18 0)
(-2.5e-07 6.1159e-18 0)
(-2.5e-07 7.7267e-18 0)
(-2.5e-07 8.15037e-18 0)
(-2.5e-07 7.71108e-18 0)
(-2.5e-07 6.74698e-18 0)
(-2.5e-07 5.16118e-18 0)
(-2.5e-07 2.36544e-18 0)
(-2.5e-07 5.7699e-19 0)
(-2.5e-07 -3.67029e-13 0)
(-2.5e-07 7.69483e-14 0)
(-2.5e-07 -1.81791e-14 0)
(-2.5e-07 3.6771e-15 0)
(-2.5e-07 -8.79799e-16 0)
(-2.5e-07 1.37441e-16 0)
(-2.5e-07 -5.97722e-17 0)
(-2.5e-07 -9.23098e-18 0)
(-2.5e-07 -9.3473e-18 0)
(-2.5e-07 -1.19475e-18 0)
(-2.5e-07 3.68644e-18 0)
(-2.5e-07 7.33851e-18 0)
(-2.5e-07 9.55103e-18 0)
(-2.5e-07 1.04294e-17 0)
(-2.5e-07 1.02476e-17 0)
(-2.5e-07 9.29234e-18 0)
(-2.5e-07 7.89892e-18 0)
(-2.5e-07 5.94192e-18 0)
(-2.5e-07 2.76815e-18 0)
(-2.5e-07 6.59149e-19 0)
(-2.5e-07 4.83433e-13 0)
(-2.5e-07 -1.04097e-13 0)
(-2.5e-07 2.42955e-14 0)
(-2.5e-07 -5.28014e-15 0)
(-2.5e-07 1.10408e-15 0)
(-2.5e-07 -2.79812e-16 0)
(-2.5e-07 3.63429e-17 0)
(-2.5e-07 -1.57799e-17 0)
(-2.5e-07 3.50147e-18 0)
(-2.5e-07 5.98871e-18 0)
(-2.5e-07 9.91203e-18 0)
(-2.5e-07 1.21068e-17 0)
(-2.5e-07 1.32272e-17 0)
(-2.5e-07 1.3226e-17 0)
(-2.5e-07 1.23348e-17 0)
(-2.5e-07 1.08126e-17 0)
(-2.5e-07 8.97066e-18 0)
(-2.5e-07 6.64916e-18 0)
(-2.5e-07 3.13942e-18 0)
(-2.5e-07 7.31176e-19 0)
(-2.5e-07 -6.16677e-13 0)
(-2.5e-07 1.34006e-13 0)
(-2.5e-07 -3.1681e-14 0)
(-2.5e-07 6.7329e-15 0)
(-2.5e-07 -1.53674e-15 0)
(-2.5e-07 3.29243e-16 0)
(-2.5e-07 -6.2567e-17 0)
(-2.5e-07 2.38668e-17 0)
(-2.5e-07 9.99324e-18 0)
(-2.5e-07 1.54663e-17 0)
(-2.5e-07 1.64168e-17 0)
(-2.5e-07 1.71145e-17 0)
(-2.5e-07 1.6934e-17 0)
(-2.5e-07 1.59207e-17 0)
(-2.5e-07 1.42611e-17 0)
(-2.5e-07 1.21499e-17 0)
(-2.5e-07 9.86909e-18 0)
(-2.5e-07 7.22181e-18 0)
(-2.5e-07 3.4538e-18 0)
(-2.5e-07 7.85733e-19 0)
(-2.49999e-07 7.65367e-13 0)
(-2.5e-07 -1.71812e-13 0)
(-2.5e-07 4.0739e-14 0)
(-2.5e-07 -8.93773e-15 0)
(-2.5e-07 2.09513e-15 0)
(-2.5e-07 -4.38799e-16 0)
(-2.5e-07 1.22659e-16 0)
(-2.5e-07 1.45375e-18 0)
(-2.5e-07 2.93427e-17 0)
(-2.5e-07 2.32157e-17 0)
(-2.5e-07 2.35412e-17 0)
(-2.5e-07 2.20079e-17 0)
(-2.5e-07 2.04054e-17 0)
(-2.5e-07 1.82954e-17 0)
(-2.5e-07 1.58436e-17 0)
(-2.5e-07 1.31686e-17 0)
(-2.5e-07 1.04998e-17 0)
(-2.5e-07 7.60308e-18 0)
(-2.5e-07 3.67029e-18 0)
(-2.5e-07 8.16966e-19 0)
(-2.50001e-07 -8.61956e-13 0)
(-2.5e-07 2.02584e-13 0)
(-2.5e-07 -4.74826e-14 0)
(-2.5e-07 1.09412e-14 0)
(-2.5e-07 -2.48088e-15 0)
(-2.5e-07 6.01325e-16 0)
(-2.5e-07 -8.24938e-17 0)
(-2.5e-07 6.76967e-17 0)
(-2.5e-07 3.20674e-17 0)
(-2.5e-07 3.48405e-17 0)
(-2.5e-07 2.98365e-17 0)
(-2.5e-07 2.65598e-17 0)
(-2.5e-07 2.32957e-17 0)
(-2.5e-07 2.00798e-17 0)
(-2.5e-07 1.68846e-17 0)
(-2.5e-07 1.37271e-17 0)
(-2.5e-07 1.07646e-17 0)
(-2.5e-07 7.71447e-18 0)
(-2.5e-07 3.76011e-18 0)
(-2.5e-07 8.19007e-19 0)
(-2.49999e-07 9.25886e-13 0)
(-2.5e-07 -2.25116e-13 0)
(-2.5e-07 5.2811e-14 0)
(-2.5e-07 -1.28549e-14 0)
(-2.5e-07 3.08637e-15 0)
(-2.5e-07 -6.59914e-16 0)
(-2.5e-07 2.44058e-16 0)
(-2.5e-07 1.9407e-17 0)
(-2.5e-07 6.20136e-17 0)
(-2.5e-07 4.07597e-17 0)
(-2.5e-07 3.65463e-17 0)
(-2.5e-07 2.9909e-17 0)
(-2.5e-07 2.52339e-17 0)
(-2.5e-07 2.096e-17 0)
(-2.5e-07 1.71649e-17 0)
(-2.5e-07 1.36721e-17 0)
(-2.5e-07 1.05586e-17 0)
(-2.5e-07 7.50773e-18 0)
(-2.5e-07 3.67874e-18 0)
(-2.5e-07 7.87283e-19 0)
(-2.5e-07 -9.57949e-13 0)
(-2.5e-07 2.27844e-13 0)
(-2.5e-07 -5.34388e-14 0)
(-2.5e-07 1.26797e-14 0)
(-2.5e-07 -2.78902e-15 0)
(-2.5e-07 7.85015e-16 0)
(-2.5e-07 -4.85042e-17 0)
(-2.5e-07 1.1674e-16 0)
(-2.5e-07 5.90332e-17 0)
(-2.5e-07 5.26338e-17 0)
(-2.5e-07 3.98821e-17 0)
(-2.5e-07 3.18632e-17 0)
(-2.5e-07 2.5591e-17 0)
(-2.5e-07 2.06099e-17 0)
(-2.5e-07 1.64609e-17 0)
(-2.5e-07 1.28727e-17 0)
(-2.5e-07 9.80676e-18 0)
(-2.5e-07 6.91217e-18 0)
(-2.5e-07 3.40703e-18 0)
(-2.5e-07 7.17891e-19 0)
(-2.49999e-07 9.92377e-13 0)
(-2.5e-07 -2.50591e-13 0)
(-2.5e-07 5.97131e-14 0)
(-2.5e-07 -1.47887e-14 0)
(-2.5e-07 3.9216e-15 0)
(-2.5e-07 -7.19473e-16 0)
(-2.5e-07 3.83663e-16 0)
(-2.5e-07 5.13256e-17 0)
(-2.5e-07 9.18226e-17 0)
(-2.5e-07 5.17129e-17 0)
(-2.5e-07 4.1679e-17 0)
(-2.5e-07 3.05728e-17 0)
(-2.5e-07 2.39075e-17 0)
(-2.5e-07 1.86499e-17 0)
(-2.5e-07 1.45922e-17 0)
(-2.5e-07 1.12303e-17 0)
(-2.5e-07 8.46727e-18 0)
(-2.5e-07 5.94722e-18 0)
(-2.5e-07 2.93664e-18 0)
(-2.5e-07 6.04553e-19 0)
(-2.5e-07 -1.01862e-12 0)
(-2.5e-07 2.603e-13 0)
(-2.5e-07 -6.05085e-14 0)
(-2.5e-07 1.67416e-14 0)
(-2.5e-07 -3.39715e-15 0)
(-2.5e-07 1.33952e-15 0)
(-2.5e-07 -6.76754e-17 0)
(-2.5e-07 1.89739e-16 0)
(-2.5e-07 5.88835e-17 0)
(-2.5e-07 5.69135e-17 0)
(-2.5e-07 3.48113e-17 0)
(-2.5e-07 2.67219e-17 0)
(-2.5e-07 1.96454e-17 0)
(-2.5e-07 1.51422e-17 0)
(-2.5e-07 1.1599e-17 0)
(-2.5e-07 8.83732e-18 0)
(-2.5e-07 6.60724e-18 0)
(-2.5e-07 4.61358e-18 0)
(-2.5e-07 2.28796e-18 0)
(-2.5e-07 4.49716e-19 0)
(-2.5e-07 9.89066e-13 0)
(-2.5e-07 -2.20018e-13 0)
(-2.5e-07 5.3104e-14 0)
(-2.5e-07 -9.83848e-15 0)
(-2.5e-07 2.958e-15 0)
(-2.5e-07 -1.14023e-16 0)
(-2.5e-07 2.41617e-16 0)
(-2.5e-07 9.21562e-17 0)
(-2.5e-07 5.58938e-17 0)
(-2.5e-07 3.91879e-17 0)
(-2.5e-07 2.43785e-17 0)
(-2.5e-07 1.809e-17 0)
(-2.5e-07 1.29256e-17 0)
(-2.5e-07 9.83017e-18 0)
(-2.5e-07 7.4114e-18 0)
(-2.5e-07 5.59423e-18 0)
(-2.5e-07 4.15877e-18 0)
(-2.5e-07 2.95388e-18 0)
(-2.5e-07 1.5078e-18 0)
(-2.5e-07 2.70066e-19 0)
(-2.50001e-07 -1.0253e-12 0)
(-2.5e-07 2.81134e-13 0)
(-2.5e-07 -6.68832e-14 0)
(-2.5e-07 1.89596e-14 0)
(-2.5e-07 -4.60607e-15 0)
(-2.5e-07 1.40897e-15 0)
(-2.5e-07 -2.98025e-16 0)
(-2.5e-07 1.34262e-16 0)
(-2.5e-07 -6.12393e-18 0)
(-2.5e-07 2.14277e-17 0)
(-2.5e-07 6.67831e-18 0)
(-2.5e-07 6.83072e-18 0)
(-2.5e-07 4.26879e-18 0)
(-2.5e-07 3.36278e-18 0)
(-2.5e-07 2.46694e-18 0)
(-2.5e-07 1.86155e-18 0)
(-2.5e-07 1.38858e-18 0)
(-2.5e-07 1.01948e-18 0)
(-2.5e-07 5.45671e-19 0)
(-2.5e-07 8.94415e-20 0)
)
;

boundaryField
{
    movingWall
    {
        type            calculated;
        value           uniform (0 0 0);
    }
    fixedWalls
    {
        type            calculated;
        value           uniform (0 0 0);
    }
    frontAndBack
    {
        type            empty;
    }
}


// ************************************************************************* //
