/*--------------------------------*- C++ -*----------------------------------*\
| =========                 |                                                 |
| \\      /  F ield         | OpenFOAM: The Open Source CFD Toolbox           |
|  \\    /   O peration     | Version:  2312                                  |
|   \\  /    A nd           | Website:  www.openfoam.com                      |
|    \\/     M anipulation  |                                                 |
\*---------------------------------------------------------------------------*/
FoamFile
{
    version     2.0;
    format      ascii;
    arch        "LSB;label=32;scalar=64";
    class       volVectorField;
    location    "3";
    object      norm_U_composite;
}
// * * * * * * * * * * * * * * * * * * * * * * * * * * * * * * * * * * * * * //

dimensions      [0 0 0 0 0 0 0];

internalField   nonuniform List<vector> 
400
(
(-0.5 1.74268e-07 0)
(-0.5 -4.16721e-08 0)
(-0.5 9.94121e-09 0)
(-0.5 -2.42115e-09 0)
(-0.5 5.65776e-10 0)
(-0.5 -1.56963e-10 0)
(-0.5 2.21379e-11 0)
(-0.5 -1.8553e-11 0)
(-0.5 -5.33221e-12 0)
(-0.5 -5.74463e-12 0)
(-0.5 -3.29591e-12 0)
(-0.5 -2.06537e-12 0)
(-0.5 -1.0058e-12 0)
(-0.5 -3.2523e-13 0)
(-0.5 1.0549e-13 0)
(-0.5 3.427e-13 0)
(-0.5 4.447e-13 0)
(-0.5 3.83979e-13 0)
(-0.5 1.59367e-13 0)
(-0.5 4.64834e-14 0)
(-0.5 -1.78667e-07 0)
(-0.5 4.29137e-08 0)
(-0.5 -1.03105e-08 0)
(-0.5 2.46009e-09 0)
(-0.5 -6.67926e-10 0)
(-0.5 1.04524e-10 0)
(-0.5 -7.84035e-11 0)
(-0.5 -2.10959e-11 0)
(-0.5 -2.51583e-11 0)
(-0.5 -1.50868e-11 0)
(-0.5 -1.03894e-11 0)
(-0.5 -5.95676e-12 0)
(-0.5 -2.93984e-12 0)
(-0.5 -8.55993e-13 0)
(-0.5 4.11175e-13 0)
(-0.5 1.08619e-12 0)
(-0.5 1.35972e-12 0)
(-0.5 1.22911e-12 0)
(-0.5 4.74042e-13 0)
(-0.5 1.42753e-13 0)
(-0.5 1.88004e-07 0)
(-0.5 -4.27142e-08 0)
(-0.5 1.00403e-08 0)
(-0.5 -2.4233e-09 0)
(-0.5 4.39511e-10 0)
(-0.5 -2.14805e-10 0)
(-0.5 -3.87421e-11 0)
(-0.5 -5.84968e-11 0)
(-0.5 -3.51543e-11 0)
(-0.5 -2.56293e-11 0)
(-0.5 -1.60166e-11 0)
(-0.5 -9.2782e-12 0)
(-0.5 -4.29017e-12 0)
(-0.5 -9.96277e-13 0)
(-0.5 1.00811e-12 0)
(-0.5 2.0426e-12 0)
(-0.5 2.4203e-12 0)
(-0.5 2.12575e-12 0)
(-0.5 8.45242e-13 0)
(-0.5 2.48767e-13 0)
(-0.5 -2.00339e-07 0)
(-0.5 4.30494e-08 0)
(-0.5 -1.05316e-08 0)
(-0.5 1.96909e-09 0)
(-0.5 -6.6788e-10 0)
(-0.5 -2.37506e-11 0)
(-0.5 -1.17464e-10 0)
(-0.5 -6.48202e-11 0)
(-0.5 -4.93255e-11 0)
(-0.5 -3.25421e-11 0)
(-0.5 -2.04271e-11 0)
(-0.5 -1.13194e-11 0)
(-0.5 -4.78639e-12 0)
(-0.5 -5.00774e-13 0)
(-0.5 2.04743e-12 0)
(-0.5 3.293e-12 0)
(-0.5 3.66572e-12 0)
(-0.5 3.16359e-12 0)
(-0.5 1.2847e-12 0)
(-0.5 3.66103e-13 0)
(-0.5 2.34231e-07 0)
(-0.5 -5.33288e-08 0)
(-0.5 1.22984e-08 0)
(-0.5 -3.29416e-09 0)
(-0.5 4.85675e-10 0)
(-0.5 -3.40355e-10 0)
(-0.5 -7.00549e-11 0)
(-0.5 -9.28628e-11 0)
(-0.5 -5.28868e-11 0)
(-0.5 -3.78702e-11 0)
(-0.5 -2.22234e-11 0)
(-0.5 -1.18075e-11 0)
(-0.5 -4.08213e-12 0)
(-0.5 8.23217e-13 0)
(-0.5 3.66528e-12 0)
(-0.5 4.93806e-12 0)
(-0.5 5.17426e-12 0)
(-0.5 4.33502e-12 0)
(-0.5 1.81525e-12 0)
(-0.5 4.99087e-13 0)
(-0.5 -2.63839e-07 0)
(-0.5 5.26093e-08 0)
(-0.5 -1.26928e-08 0)
(-0.5 2.05278e-09 0)
(-0.5 -7.07939e-10 0)
(-0.5 -7.78978e-11 0)
(-0.5 -1.32013e-10 0)
(-0.5 -8.40951e-11 0)
(-0.5 -5.76838e-11 0)
(-0.5 -3.78551e-11 0)
(-0.5 -2.17044e-11 0)
(-0.5 -1.02735e-11 0)
(-0.5 -2.04035e-12 0)
(-0.5 3.10553e-12 0)
(-0.5 5.93126e-12 0)
(-0.5 7.00378e-12 0)
(-0.5 6.93402e-12 0)
(-0.5 5.67389e-12 0)
(-0.5 2.43664e-12 0)
(-0.5 6.46785e-13 0)
(-0.5 3.4042e-07 0)
(-0.5 -7.21808e-08 0)
(-0.5 1.66577e-08 0)
(-0.5 -3.81365e-09 0)
(-0.5 5.95899e-10 0)
(-0.5 -3.32478e-10 0)
(-0.5 -7.62064e-11 0)
(-0.5 -8.93045e-11 0)
(-0.5 -5.27066e-11 0)
(-0.5 -3.44979e-11 0)
(-0.5 -1.8215e-11 0)
(-0.5 -6.70129e-12 0)
(-0.5 1.42461e-12 0)
(-0.5 6.36885e-12 0)
(-0.5 8.84828e-12 0)
(-0.5 9.49418e-12 0)
(-0.5 8.95777e-12 0)
(-0.5 7.14174e-12 0)
(-0.5 3.14545e-12 0)
(-0.5 8.09222e-13 0)
(-0.5 -4.2639e-07 0)
(-0.5 8.87785e-08 0)
(-0.5 -2.12073e-08 0)
(-0.5 4.16756e-09 0)
(-0.5 -1.13525e-09 0)
(-0.5 8.11218e-11 0)
(-0.5 -1.42485e-10 0)
(-0.5 -6.0066e-11 0)
(-0.5 -4.7956e-11 0)
(-0.5 -2.63926e-11 0)
(-0.5 -1.21227e-11 0)
(-0.5 -1.14777e-12 0)
(-0.5 6.24537e-12 0)
(-0.5 1.05404e-11 0)
(-0.5 1.23526e-11 0)
(-0.5 1.23355e-11 0)
(-0.5 1.11671e-11 0)
(-0.5 8.71647e-12 0)
(-0.5 3.92087e-12 0)
(-0.5 9.80249e-13 0)
(-0.5 5.59003e-07 0)
(-0.5 -1.15579e-07 0)
(-0.5 2.68822e-08 0)
(-0.5 -5.65976e-09 0)
(-0.5 1.04094e-09 0)
(-0.5 -3.53883e-10 0)
(-0.5 -3.61547e-11 0)
(-0.5 -6.27605e-11 0)
(-0.5 -3.17144e-11 0)
(-0.5 -1.63311e-11 0)
(-0.5 -3.32353e-12 0)
(-0.5 6.08483e-12 0)
(-0.5 1.22318e-11 0)
(-0.5 1.54534e-11 0)
(-0.5 1.63007e-11 0)
(-0.5 1.54222e-11 0)
(-0.5 1.3494e-11 0)
(-0.5 1.03224e-11 0)
(-0.5 4.73089e-12 0)
(-0.5 1.15398e-12 0)
(-0.5 -7.34058e-07 0)
(-0.5 1.53897e-07 0)
(-0.5 -3.63581e-08 0)
(-0.5 7.35419e-09 0)
(-0.5 -1.7596e-09 0)
(-0.5 2.74883e-10 0)
(-0.5 -1.19544e-10 0)
(-0.5 -1.8462e-11 0)
(-0.5 -1.86946e-11 0)
(-0.5 -2.38951e-12 0)
(-0.5 7.37289e-12 0)
(-0.5 1.4677e-11 0)
(-0.5 1.91021e-11 0)
(-0.5 2.08589e-11 0)
(-0.5 2.04953e-11 0)
(-0.5 1.85847e-11 0)
(-0.5 1.57978e-11 0)
(-0.5 1.18838e-11 0)
(-0.5 5.53631e-12 0)
(-0.5 1.3183e-12 0)
(-0.499999 9.66866e-07 0)
(-0.5 -2.08193e-07 0)
(-0.5 4.8591e-08 0)
(-0.5 -1.05603e-08 0)
(-0.5 2.20815e-09 0)
(-0.5 -5.59623e-10 0)
(-0.5 7.26858e-11 0)
(-0.5 -3.15599e-11 0)
(-0.5 7.00294e-12 0)
(-0.5 1.19774e-11 0)
(-0.5 1.98241e-11 0)
(-0.5 2.42137e-11 0)
(-0.5 2.64544e-11 0)
(-0.5 2.6452e-11 0)
(-0.5 2.46697e-11 0)
(-0.5 2.16252e-11 0)
(-0.5 1.79413e-11 0)
(-0.5 1.32983e-11 0)
(-0.5 6.27884e-12 0)
(-0.5 1.46235e-12 0)
(-0.500001 -1.23335e-06 0)
(-0.5 2.68013e-07 0)
(-0.5 -6.3362e-08 0)
(-0.5 1.34658e-08 0)
(-0.5 -3.07347e-09 0)
(-0.5 6.58487e-10 0)
(-0.5 -1.25134e-10 0)
(-0.5 4.77336e-11 0)
(-0.5 1.99865e-11 0)
(-0.5 3.09325e-11 0)
(-0.5 3.28335e-11 0)
(-0.5 3.4229e-11 0)
(-0.5 3.3868e-11 0)
(-0.5 3.18414e-11 0)
(-0.5 2.85222e-11 0)
(-0.5 2.42997e-11 0)
(-0.5 1.97382e-11 0)
(-0.5 1.44436e-11 0)
(-0.5 6.90759e-12 0)
(-0.5 1.57147e-12 0)
(-0.499999 1.53073e-06 0)
(-0.5 -3.43624e-07 0)
(-0.5 8.1478e-08 0)
(-0.5 -1.78755e-08 0)
(-0.5 4.19025e-09 0)
(-0.5 -8.77597e-10 0)
(-0.5 2.45319e-10 0)
(-0.5 2.9075e-12 0)
(-0.5 5.86853e-11 0)
(-0.5 4.64313e-11 0)
(-0.5 4.70823e-11 0)
(-0.5 4.40158e-11 0)
(-0.5 4.08107e-11 0)
(-0.5 3.65907e-11 0)
(-0.5 3.16872e-11 0)
(-0.5 2.63373e-11 0)
(-0.5 2.09996e-11 0)
(-0.5 1.52062e-11 0)
(-0.5 7.34059e-12 0)
(-0.5 1.63393e-12 0)
(-0.500001 -1.72391e-06 0)
(-0.5 4.05167e-07 0)
(-0.5 -9.49652e-08 0)
(-0.5 2.18824e-08 0)
(-0.5 -4.96177e-09 0)
(-0.5 1.20265e-09 0)
(-0.5 -1.64988e-10 0)
(-0.5 1.35393e-10 0)
(-0.5 6.41347e-11 0)
(-0.5 6.96811e-11 0)
(-0.5 5.96729e-11 0)
(-0.5 5.31196e-11 0)
(-0.5 4.65914e-11 0)
(-0.5 4.01597e-11 0)
(-0.5 3.37692e-11 0)
(-0.5 2.74541e-11 0)
(-0.5 2.15293e-11 0)
(-0.5 1.54289e-11 0)
(-0.5 7.52022e-12 0)
(-0.5 1.63801e-12 0)
(-0.499999 1.85177e-06 0)
(-0.5 -4.50233e-07 0)
(-0.5 1.05622e-07 0)
(-0.5 -2.57098e-08 0)
(-0.5 6.17275e-09 0)
(-0.5 -1.31983e-09 0)
(-0.5 4.88116e-10 0)
(-0.5 3.8814e-11 0)
(-0.5 1.24027e-10 0)
(-0.5 8.15194e-11 0)
(-0.5 7.30926e-11 0)
(-0.5 5.98181e-11 0)
(-0.5 5.04679e-11 0)
(-0.5 4.19201e-11 0)
(-0.5 3.43299e-11 0)
(-0.5 2.73442e-11 0)
(-0.5 2.11172e-11 0)
(-0.5 1.50155e-11 0)
(-0.5 7.35748e-12 0)
(-0.5 1.57457e-12 0)
(-0.500001 -1.9159e-06 0)
(-0.5 4.55687e-07 0)
(-0.5 -1.06878e-07 0)
(-0.5 2.53594e-08 0)
(-0.5 -5.57804e-09 0)
(-0.5 1.57003e-09 0)
(-0.5 -9.70083e-11 0)
(-0.5 2.3348e-10 0)
(-0.5 1.18066e-10 0)
(-0.5 1.05268e-10 0)
(-0.5 7.97642e-11 0)
(-0.5 6.37263e-11 0)
(-0.5 5.11821e-11 0)
(-0.5 4.12198e-11 0)
(-0.5 3.29219e-11 0)
(-0.5 2.57454e-11 0)
(-0.5 1.96135e-11 0)
(-0.5 1.38243e-11 0)
(-0.5 6.81406e-12 0)
(-0.5 1.43578e-12 0)
(-0.499999 1.98475e-06 0)
(-0.5 -5.01181e-07 0)
(-0.5 1.19426e-07 0)
(-0.5 -2.95773e-08 0)
(-0.5 7.84319e-09 0)
(-0.5 -1.43895e-09 0)
(-0.5 7.67327e-10 0)
(-0.5 1.02651e-10 0)
(-0.5 1.83645e-10 0)
(-0.5 1.03426e-10 0)
(-0.5 8.3358e-11 0)
(-0.5 6.11456e-11 0)
(-0.5 4.7815e-11 0)
(-0.5 3.72997e-11 0)
(-0.5 2.91844e-11 0)
(-0.5 2.24605e-11 0)
(-0.5 1.69345e-11 0)
(-0.5 1.18944e-11 0)
(-0.5 5.87328e-12 0)
(-0.5 1.20911e-12 0)
(-0.5 -2.03724e-06 0)
(-0.5 5.20601e-07 0)
(-0.5 -1.21017e-07 0)
(-0.5 3.34832e-08 0)
(-0.5 -6.7943e-09 0)
(-0.5 2.67903e-09 0)
(-0.5 -1.35351e-10 0)
(-0.5 3.79479e-10 0)
(-0.5 1.17767e-10 0)
(-0.5 1.13827e-10 0)
(-0.5 6.96226e-11 0)
(-0.5 5.34437e-11 0)
(-0.5 3.92908e-11 0)
(-0.5 3.02844e-11 0)
(-0.5 2.31981e-11 0)
(-0.5 1.76746e-11 0)
(-0.5 1.32145e-11 0)
(-0.5 9.22716e-12 0)
(-0.5 4.57591e-12 0)
(-0.5 8.99431e-13 0)
(-0.499999 1.97813e-06 0)
(-0.5 -4.40035e-07 0)
(-0.5 1.06208e-07 0)
(-0.5 -1.9677e-08 0)
(-0.5 5.91599e-09 0)
(-0.5 -2.28046e-10 0)
(-0.5 4.83234e-10 0)
(-0.5 1.84312e-10 0)
(-0.5 1.11788e-10 0)
(-0.5 7.83758e-11 0)
(-0.5 4.87571e-11 0)
(-0.5 3.61801e-11 0)
(-0.5 2.58512e-11 0)
(-0.5 1.96603e-11 0)
(-0.5 1.48228e-11 0)
(-0.5 1.11885e-11 0)
(-0.5 8.31754e-12 0)
(-0.5 5.90776e-12 0)
(-0.5 3.01559e-12 0)
(-0.5 5.40133e-13 0)
(-0.500001 -2.0506e-06 0)
(-0.5 5.62269e-07 0)
(-0.5 -1.33766e-07 0)
(-0.5 3.79193e-08 0)
(-0.5 -9.21215e-09 0)
(-0.5 2.81793e-09 0)
(-0.5 -5.9605e-10 0)
(-0.5 2.68525e-10 0)
(-0.5 -1.22479e-11 0)
(-0.5 4.28554e-11 0)
(-0.5 1.33566e-11 0)
(-0.5 1.36614e-11 0)
(-0.5 8.53758e-12 0)
(-0.5 6.72555e-12 0)
(-0.5 4.93389e-12 0)
(-0.5 3.7231e-12 0)
(-0.5 2.77716e-12 0)
(-0.5 2.03895e-12 0)
(-0.5 1.09134e-12 0)
(-0.5 1.78883e-13 0)
)
;

boundaryField
{
    movingWall
    {
        type            calculated;
        value           uniform (-0.5 -0 -0);
    }
    fixedWalls
    {
        type            calculated;
        value           uniform (-0.5 -0 -0);
    }
    frontAndBack
    {
        type            empty;
    }
}


// ************************************************************************* //
