/*--------------------------------*- C++ -*----------------------------------*\
| =========                 |                                                 |
| \\      /  F ield         | OpenFOAM: The Open Source CFD Toolbox           |
|  \\    /   O peration     | Version:  2312                                  |
|   \\  /    A nd           | Website:  www.openfoam.com                      |
|    \\/     M anipulation  |                                                 |
\*---------------------------------------------------------------------------*/
FoamFile
{
    version     2.0;
    format      ascii;
    arch        "LSB;label=32;scalar=64";
    class       volScalarField;
    location    "3";
    object      norm_k_field;
}
// * * * * * * * * * * * * * * * * * * * * * * * * * * * * * * * * * * * * * //

dimensions      [0 0 0 0 0 0 0];

internalField   nonuniform List<scalar> 
400
(
2.6532e+07
6.15581e+10
6.15548e+10
6.15535e+10
6.155e+10
6.15496e+10
6.15461e+10
6.15463e+10
6.15431e+10
6.15436e+10
6.15411e+10
6.15413e+10
6.15398e+10
6.15397e+10
6.15389e+10
6.15387e+10
6.15382e+10
6.15382e+10
6.1538e+10
6.1538e+10
1.03742e+11
1.03735e+11
1.03655e+11
1.03621e+11
1.03565e+11
1.03534e+11
1.03487e+11
1.0346e+11
1.03421e+11
1.03399e+11
1.03367e+11
1.03349e+11
1.03324e+11
1.0331e+11
1.03294e+11
1.03284e+11
1.03274e+11
1.03269e+11
1.03265e+11
1.03264e+11
21461.9
1.71832e+11
1.71607e+11
1.71514e+11
1.71359e+11
1.71274e+11
1.71143e+11
1.71069e+11
1.70962e+11
1.70897e+11
1.70813e+11
1.70759e+11
1.70696e+11
1.70654e+11
1.7061e+11
1.70581e+11
1.70556e+11
1.70541e+11
1.70532e+11
1.70527e+11
2.30157e+11
2.30124e+11
2.29705e+11
2.29543e+11
2.2925e+11
2.29106e+11
2.28852e+11
2.2873e+11
2.28518e+11
2.28415e+11
2.28245e+11
2.28161e+11
2.28028e+11
2.27966e+11
2.27874e+11
2.27829e+11
2.27778e+11
2.27752e+11
2.27735e+11
2.27728e+11
33467.8
2.67998e+11
2.67428e+11
2.67194e+11
2.66801e+11
2.6659e+11
2.66255e+11
2.66073e+11
2.65791e+11
2.65636e+11
2.65417e+11
2.65286e+11
2.65121e+11
2.65019e+11
2.64905e+11
2.64834e+11
2.64768e+11
2.6473e+11
2.64708e+11
2.64697e+11
2.89729e+11
2.89669e+11
2.88989e+11
2.88722e+11
2.88249e+11
2.88006e+11
2.87605e+11
2.87396e+11
2.87056e+11
2.86887e+11
2.86606e+11
2.86473e+11
2.86256e+11
2.86155e+11
2.86007e+11
2.85932e+11
2.8585e+11
2.85808e+11
2.85781e+11
2.85768e+11
229725
14409.1
3.01389e+11
3.01094e+11
3.0058e+11
3.00313e+11
2.99873e+11
2.99645e+11
2.99273e+11
2.99086e+11
2.98784e+11
2.98633e+11
2.98405e+11
2.98285e+11
2.9813e+11
2.98044e+11
2.97956e+11
2.97909e+11
2.97879e+11
2.97866e+11
3.10057e+11
3.09983e+11
3.092e+11
3.08885e+11
3.08349e+11
3.08061e+11
3.076e+11
3.07354e+11
3.06971e+11
3.06761e+11
3.06459e+11
3.06282e+11
3.06058e+11
3.05919e+11
3.05764e+11
3.05668e+11
3.05578e+11
3.05526e+11
3.05496e+11
3.05481e+11
34157
6771.02
3.14941e+11
3.14626e+11
3.14045e+11
3.13763e+11
3.13272e+11
3.13027e+11
3.12621e+11
3.12413e+11
3.12084e+11
3.11918e+11
3.11666e+11
3.11542e+11
3.1136e+11
3.11279e+11
3.1117e+11
3.11127e+11
3.11091e+11
3.11078e+11
3.208e+11
3.2072e+11
3.19877e+11
3.19541e+11
3.18962e+11
3.18655e+11
3.1816e+11
3.17893e+11
3.17485e+11
3.17257e+11
3.16935e+11
3.16746e+11
3.16503e+11
3.16356e+11
3.16188e+11
3.16087e+11
3.15989e+11
3.15934e+11
3.15901e+11
3.15886e+11
40544.1
3430.96
549323
341972
3.23725e+11
3.23425e+11
3.22901e+11
3.2264e+11
3.22206e+11
3.21985e+11
3.21639e+11
3.21457e+11
3.21196e+11
3.21054e+11
3.20872e+11
3.20775e+11
3.20668e+11
3.20616e+11
3.2058e+11
3.20565e+11
3.30736e+11
3.30649e+11
3.29752e+11
3.29404e+11
3.28765e+11
3.28458e+11
3.2791e+11
3.27649e+11
3.27193e+11
3.26973e+11
3.26607e+11
3.26431e+11
3.26145e+11
3.26016e+11
3.2581e+11
3.25726e+11
3.25604e+11
3.25559e+11
3.25518e+11
3.25504e+11
3.36383e+11
2119.85
141388
59968.9
3.34356e+11
3.34016e+11
3.33473e+11
3.33177e+11
3.32732e+11
3.3248e+11
3.32122e+11
3.31919e+11
3.31643e+11
3.3149e+11
3.31296e+11
3.31191e+11
3.3108e+11
3.31022e+11
3.30985e+11
3.30968e+11
30354.6
3.42726e+11
3.41749e+11
3.41382e+11
3.40697e+11
3.4036e+11
3.39778e+11
3.39489e+11
3.39005e+11
3.38761e+11
3.38377e+11
3.38175e+11
3.37883e+11
3.37728e+11
3.37524e+11
3.37418e+11
3.37299e+11
3.37242e+11
3.37202e+11
3.37186e+11
3.50282e+11
1951.63
3.49178e+11
42213.9
3.48075e+11
3.47707e+11
3.47121e+11
3.46796e+11
3.46314e+11
3.4604e+11
3.45651e+11
3.45431e+11
3.45131e+11
3.44966e+11
3.44755e+11
3.44641e+11
3.4452e+11
3.44457e+11
3.44418e+11
3.444e+11
15368.2
3.59006e+11
3.57982e+11
3.57536e+11
3.56805e+11
3.56423e+11
3.5579e+11
3.55467e+11
3.54942e+11
3.54666e+11
3.54252e+11
3.5402e+11
3.53711e+11
3.53528e+11
3.53317e+11
3.53189e+11
3.53068e+11
3.52998e+11
3.52957e+11
3.52938e+11
3.69883e+11
1882.03
3.68642e+11
34823.4
3.67399e+11
3.67013e+11
3.66333e+11
3.65997e+11
3.65426e+11
3.65152e+11
3.64683e+11
3.6447e+11
3.6411e+11
3.6395e+11
3.6369e+11
3.63586e+11
3.63431e+11
3.63376e+11
3.63325e+11
3.63307e+11
3.82983e+11
3.82862e+11
3.81651e+11
3.81186e+11
3.80325e+11
3.79909e+11
3.79179e+11
3.78819e+11
3.78218e+11
3.77913e+11
3.77423e+11
3.7718e+11
3.76808e+11
3.76622e+11
3.76361e+11
3.76234e+11
3.76081e+11
3.76013e+11
3.75962e+11
3.75942e+11
3.9663e+11
4375.5
3.95339e+11
3.94853e+11
3.94015e+11
3.93571e+11
3.92857e+11
3.92473e+11
3.91864e+11
3.91544e+11
3.91049e+11
3.90788e+11
3.9041e+11
3.90207e+11
3.89943e+11
3.898e+11
3.89648e+11
3.89568e+11
3.89518e+11
3.89495e+11
2498.48
3.99252e+11
43389.7
3.99204e+11
3.99192e+11
3.99167e+11
3.99158e+11
3.99143e+11
3.99131e+11
3.99121e+11
3.99114e+11
3.99108e+11
3.99104e+11
3.99102e+11
3.99099e+11
3.99098e+11
3.99097e+11
3.99097e+11
3.99096e+11
3.99096e+11
)
;

boundaryField
{
    movingWall
    {
        type            calculated;
        value           nonuniform List<scalar> 
20
(
2498.48
3.99252e+11
43389.7
3.99204e+11
3.99192e+11
3.99167e+11
3.99158e+11
3.99143e+11
3.99131e+11
3.99121e+11
3.99114e+11
3.99108e+11
3.99104e+11
3.99102e+11
3.99099e+11
3.99098e+11
3.99097e+11
3.99097e+11
3.99096e+11
3.99096e+11
)
;
    }
    fixedWalls
    {
        type            calculated;
        value           nonuniform List<scalar> 
60
(
2.6532e+07
1.03742e+11
21461.9
2.30157e+11
33467.8
2.89729e+11
229725
3.10057e+11
34157
3.208e+11
40544.1
3.30736e+11
3.36383e+11
30354.6
3.50282e+11
15368.2
3.69883e+11
3.82983e+11
3.9663e+11
2498.48
6.1538e+10
1.03264e+11
1.70527e+11
2.27728e+11
2.64697e+11
2.85768e+11
2.97866e+11
3.05481e+11
3.11078e+11
3.15886e+11
3.20565e+11
3.25504e+11
3.30968e+11
3.37186e+11
3.444e+11
3.52938e+11
3.63307e+11
3.75942e+11
3.89495e+11
3.99096e+11
2.6532e+07
6.15581e+10
6.15548e+10
6.15535e+10
6.155e+10
6.15496e+10
6.15461e+10
6.15463e+10
6.15431e+10
6.15436e+10
6.15411e+10
6.15413e+10
6.15398e+10
6.15397e+10
6.15389e+10
6.15387e+10
6.15382e+10
6.15382e+10
6.1538e+10
6.1538e+10
)
;
    }
    frontAndBack
    {
        type            empty;
    }
}


// ************************************************************************* //
