/*--------------------------------*- C++ -*----------------------------------*\
| =========                 |                                                 |
| \\      /  F ield         | OpenFOAM: The Open Source CFD Toolbox           |
|  \\    /   O peration     | Version:  2312                                  |
|   \\  /    A nd           | Website:  www.openfoam.com                      |
|    \\/     M anipulation  |                                                 |
\*---------------------------------------------------------------------------*/
FoamFile
{
    version     2.0;
    format      ascii;
    arch        "LSB;label=32;scalar=64";
    class       volVectorField;
    location    "3";
    object      norm_U_L1;
}
// * * * * * * * * * * * * * * * * * * * * * * * * * * * * * * * * * * * * * //

dimensions      [0 0 0 0 0 0 0];

internalField   nonuniform List<vector> 
400
(
(-0.0025 8.71338e-10 0)
(-0.0025 -2.0836e-10 0)
(-0.0025 4.97061e-11 0)
(-0.0025 -1.21058e-11 0)
(-0.0025 2.82888e-12 0)
(-0.0025 -7.84817e-13 0)
(-0.0025 1.1069e-13 0)
(-0.0025 -9.27651e-14 0)
(-0.0025 -2.66611e-14 0)
(-0.0025 -2.87231e-14 0)
(-0.0025 -1.64796e-14 0)
(-0.0025 -1.03268e-14 0)
(-0.0025 -5.02899e-15 0)
(-0.0025 -1.62615e-15 0)
(-0.0025 5.27452e-16 0)
(-0.0025 1.7135e-15 0)
(-0.0025 2.2235e-15 0)
(-0.0025 1.91989e-15 0)
(-0.0025 7.96834e-16 0)
(-0.0025 2.32417e-16 0)
(-0.0025 -8.93334e-10 0)
(-0.0025 2.14569e-10 0)
(-0.0025 -5.15524e-11 0)
(-0.0025 1.23005e-11 0)
(-0.0025 -3.33963e-12 0)
(-0.0025 5.22618e-13 0)
(-0.0025 -3.92017e-13 0)
(-0.0025 -1.0548e-13 0)
(-0.0025 -1.25791e-13 0)
(-0.0025 -7.54342e-14 0)
(-0.0025 -5.19471e-14 0)
(-0.0025 -2.97838e-14 0)
(-0.0025 -1.46992e-14 0)
(-0.0025 -4.27997e-15 0)
(-0.0025 2.05588e-15 0)
(-0.0025 5.43095e-15 0)
(-0.0025 6.7986e-15 0)
(-0.0025 6.14553e-15 0)
(-0.0025 2.37021e-15 0)
(-0.0025 7.13765e-16 0)
(-0.0025 9.40021e-10 0)
(-0.0025 -2.13571e-10 0)
(-0.0025 5.02017e-11 0)
(-0.0025 -1.21165e-11 0)
(-0.0025 2.19756e-12 0)
(-0.0025 -1.07403e-12 0)
(-0.0025 -1.9371e-13 0)
(-0.0025 -2.92484e-13 0)
(-0.0025 -1.75771e-13 0)
(-0.0025 -1.28146e-13 0)
(-0.0025 -8.00831e-14 0)
(-0.0025 -4.6391e-14 0)
(-0.0025 -2.14509e-14 0)
(-0.0025 -4.98138e-15 0)
(-0.0025 5.04055e-15 0)
(-0.0025 1.0213e-14 0)
(-0.0025 1.21015e-14 0)
(-0.0025 1.06287e-14 0)
(-0.0025 4.22621e-15 0)
(-0.0025 1.24383e-15 0)
(-0.0025 -1.00169e-09 0)
(-0.0025 2.15247e-10 0)
(-0.0025 -5.26578e-11 0)
(-0.0025 9.84546e-12 0)
(-0.0025 -3.3394e-12 0)
(-0.0025 -1.18753e-13 0)
(-0.0025 -5.87322e-13 0)
(-0.0025 -3.24101e-13 0)
(-0.0025 -2.46627e-13 0)
(-0.0025 -1.6271e-13 0)
(-0.0025 -1.02135e-13 0)
(-0.0025 -5.65971e-14 0)
(-0.0025 -2.3932e-14 0)
(-0.0025 -2.50387e-15 0)
(-0.0025 1.02371e-14 0)
(-0.0025 1.6465e-14 0)
(-0.0025 1.83286e-14 0)
(-0.0025 1.58179e-14 0)
(-0.0025 6.42349e-15 0)
(-0.0025 1.83052e-15 0)
(-0.0025 1.17115e-09 0)
(-0.0025 -2.66644e-10 0)
(-0.0025 6.14919e-11 0)
(-0.0025 -1.64708e-11 0)
(-0.0025 2.42837e-12 0)
(-0.0025 -1.70178e-12 0)
(-0.0025 -3.50275e-13 0)
(-0.0025 -4.64314e-13 0)
(-0.0025 -2.64434e-13 0)
(-0.0025 -1.89351e-13 0)
(-0.0025 -1.11117e-13 0)
(-0.0025 -5.90375e-14 0)
(-0.0025 -2.04107e-14 0)
(-0.0025 4.11608e-15 0)
(-0.0025 1.83264e-14 0)
(-0.0025 2.46903e-14 0)
(-0.0025 2.58713e-14 0)
(-0.0025 2.16751e-14 0)
(-0.0025 9.07625e-15 0)
(-0.0025 2.49544e-15 0)
(-0.0025 -1.31919e-09 0)
(-0.0025 2.63046e-10 0)
(-0.0025 -6.34641e-11 0)
(-0.0025 1.02639e-11 0)
(-0.0025 -3.5397e-12 0)
(-0.0025 -3.89489e-13 0)
(-0.0025 -6.60065e-13 0)
(-0.0025 -4.20475e-13 0)
(-0.0025 -2.88419e-13 0)
(-0.0025 -1.89275e-13 0)
(-0.0025 -1.08522e-13 0)
(-0.0025 -5.13677e-14 0)
(-0.0025 -1.02018e-14 0)
(-0.0025 1.55276e-14 0)
(-0.0025 2.96563e-14 0)
(-0.0025 3.50189e-14 0)
(-0.0025 3.46701e-14 0)
(-0.0025 2.83695e-14 0)
(-0.0025 1.21832e-14 0)
(-0.0025 3.23392e-15 0)
(-0.0025 1.7021e-09 0)
(-0.0025 -3.60904e-10 0)
(-0.0025 8.32886e-11 0)
(-0.0025 -1.90683e-11 0)
(-0.0025 2.9795e-12 0)
(-0.0025 -1.66239e-12 0)
(-0.0025 -3.81032e-13 0)
(-0.0025 -4.46522e-13 0)
(-0.0025 -2.63533e-13 0)
(-0.0025 -1.72489e-13 0)
(-0.0025 -9.10748e-14 0)
(-0.0025 -3.35065e-14 0)
(-0.0025 7.12305e-15 0)
(-0.0025 3.18443e-14 0)
(-0.0025 4.42414e-14 0)
(-0.0025 4.74709e-14 0)
(-0.0025 4.47889e-14 0)
(-0.0025 3.57087e-14 0)
(-0.0025 1.57272e-14 0)
(-0.0025 4.04611e-15 0)
(-0.0025 -2.13195e-09 0)
(-0.0025 4.43892e-10 0)
(-0.0025 -1.06037e-10 0)
(-0.0025 2.08378e-11 0)
(-0.0025 -5.67627e-12 0)
(-0.0025 4.05609e-13 0)
(-0.0025 -7.12423e-13 0)
(-0.0025 -3.0033e-13 0)
(-0.0025 -2.3978e-13 0)
(-0.0025 -1.31963e-13 0)
(-0.0025 -6.06135e-14 0)
(-0.0025 -5.73886e-15 0)
(-0.0025 3.12268e-14 0)
(-0.0025 5.27019e-14 0)
(-0.0025 6.1763e-14 0)
(-0.0025 6.16775e-14 0)
(-0.0025 5.58355e-14 0)
(-0.0025 4.35823e-14 0)
(-0.0025 1.96044e-14 0)
(-0.0025 4.90124e-15 0)
(-0.0025 2.79502e-09 0)
(-0.0025 -5.77897e-10 0)
(-0.0025 1.34411e-10 0)
(-0.0025 -2.82988e-11 0)
(-0.0025 5.20471e-12 0)
(-0.0025 -1.76941e-12 0)
(-0.0025 -1.80773e-13 0)
(-0.0025 -3.13803e-13 0)
(-0.0025 -1.58572e-13 0)
(-0.0025 -8.16554e-14 0)
(-0.0025 -1.66177e-14 0)
(-0.0025 3.04241e-14 0)
(-0.0025 6.1159e-14 0)
(-0.0025 7.7267e-14 0)
(-0.0025 8.15037e-14 0)
(-0.0025 7.71108e-14 0)
(-0.0025 6.74698e-14 0)
(-0.0025 5.16118e-14 0)
(-0.0025 2.36544e-14 0)
(-0.0025 5.7699e-15 0)
(-0.0025 -3.67029e-09 0)
(-0.0025 7.69483e-10 0)
(-0.0025 -1.81791e-10 0)
(-0.0025 3.6771e-11 0)
(-0.0025 -8.79799e-12 0)
(-0.0025 1.37441e-12 0)
(-0.0025 -5.97722e-13 0)
(-0.0025 -9.23098e-14 0)
(-0.0025 -9.3473e-14 0)
(-0.0025 -1.19475e-14 0)
(-0.0025 3.68644e-14 0)
(-0.0025 7.33851e-14 0)
(-0.0025 9.55103e-14 0)
(-0.0025 1.04294e-13 0)
(-0.0025 1.02476e-13 0)
(-0.0025 9.29234e-14 0)
(-0.0025 7.89892e-14 0)
(-0.0025 5.94192e-14 0)
(-0.0025 2.76815e-14 0)
(-0.0025 6.59149e-15 0)
(-0.0025 4.83433e-09 0)
(-0.0025 -1.04097e-09 0)
(-0.0025 2.42955e-10 0)
(-0.0025 -5.28014e-11 0)
(-0.0025 1.10408e-11 0)
(-0.0025 -2.79812e-12 0)
(-0.0025 3.63429e-13 0)
(-0.0025 -1.57799e-13 0)
(-0.0025 3.50147e-14 0)
(-0.0025 5.98871e-14 0)
(-0.0025 9.91203e-14 0)
(-0.0025 1.21068e-13 0)
(-0.0025 1.32272e-13 0)
(-0.0025 1.3226e-13 0)
(-0.0025 1.23348e-13 0)
(-0.0025 1.08126e-13 0)
(-0.0025 8.97066e-14 0)
(-0.0025 6.64916e-14 0)
(-0.0025 3.13942e-14 0)
(-0.0025 7.31176e-15 0)
(-0.0025 -6.16677e-09 0)
(-0.0025 1.34006e-09 0)
(-0.0025 -3.1681e-10 0)
(-0.0025 6.7329e-11 0)
(-0.0025 -1.53674e-11 0)
(-0.0025 3.29243e-12 0)
(-0.0025 -6.2567e-13 0)
(-0.0025 2.38668e-13 0)
(-0.0025 9.99324e-14 0)
(-0.0025 1.54663e-13 0)
(-0.0025 1.64168e-13 0)
(-0.0025 1.71145e-13 0)
(-0.0025 1.6934e-13 0)
(-0.0025 1.59207e-13 0)
(-0.0025 1.42611e-13 0)
(-0.0025 1.21499e-13 0)
(-0.0025 9.86909e-14 0)
(-0.0025 7.22181e-14 0)
(-0.0025 3.4538e-14 0)
(-0.0025 7.85733e-15 0)
(-0.00249999 7.65367e-09 0)
(-0.0025 -1.71812e-09 0)
(-0.0025 4.0739e-10 0)
(-0.0025 -8.93773e-11 0)
(-0.0025 2.09513e-11 0)
(-0.0025 -4.38799e-12 0)
(-0.0025 1.22659e-12 0)
(-0.0025 1.45375e-14 0)
(-0.0025 2.93427e-13 0)
(-0.0025 2.32157e-13 0)
(-0.0025 2.35412e-13 0)
(-0.0025 2.20079e-13 0)
(-0.0025 2.04054e-13 0)
(-0.0025 1.82954e-13 0)
(-0.0025 1.58436e-13 0)
(-0.0025 1.31686e-13 0)
(-0.0025 1.04998e-13 0)
(-0.0025 7.60308e-14 0)
(-0.0025 3.67029e-14 0)
(-0.0025 8.16966e-15 0)
(-0.00250001 -8.61956e-09 0)
(-0.0025 2.02584e-09 0)
(-0.0025 -4.74826e-10 0)
(-0.0025 1.09412e-10 0)
(-0.0025 -2.48088e-11 0)
(-0.0025 6.01325e-12 0)
(-0.0025 -8.24938e-13 0)
(-0.0025 6.76967e-13 0)
(-0.0025 3.20674e-13 0)
(-0.0025 3.48405e-13 0)
(-0.0025 2.98365e-13 0)
(-0.0025 2.65598e-13 0)
(-0.0025 2.32957e-13 0)
(-0.0025 2.00798e-13 0)
(-0.0025 1.68846e-13 0)
(-0.0025 1.37271e-13 0)
(-0.0025 1.07646e-13 0)
(-0.0025 7.71447e-14 0)
(-0.0025 3.76011e-14 0)
(-0.0025 8.19007e-15 0)
(-0.00249999 9.25886e-09 0)
(-0.0025 -2.25116e-09 0)
(-0.0025 5.2811e-10 0)
(-0.0025 -1.28549e-10 0)
(-0.0025 3.08637e-11 0)
(-0.0025 -6.59914e-12 0)
(-0.0025 2.44058e-12 0)
(-0.0025 1.9407e-13 0)
(-0.0025 6.20136e-13 0)
(-0.0025 4.07597e-13 0)
(-0.0025 3.65463e-13 0)
(-0.0025 2.9909e-13 0)
(-0.0025 2.52339e-13 0)
(-0.0025 2.096e-13 0)
(-0.0025 1.71649e-13 0)
(-0.0025 1.36721e-13 0)
(-0.0025 1.05586e-13 0)
(-0.0025 7.50773e-14 0)
(-0.0025 3.67874e-14 0)
(-0.0025 7.87283e-15 0)
(-0.0025 -9.57949e-09 0)
(-0.0025 2.27844e-09 0)
(-0.0025 -5.34388e-10 0)
(-0.0025 1.26797e-10 0)
(-0.0025 -2.78902e-11 0)
(-0.0025 7.85015e-12 0)
(-0.0025 -4.85042e-13 0)
(-0.0025 1.1674e-12 0)
(-0.0025 5.90332e-13 0)
(-0.0025 5.26338e-13 0)
(-0.0025 3.98821e-13 0)
(-0.0025 3.18632e-13 0)
(-0.0025 2.5591e-13 0)
(-0.0025 2.06099e-13 0)
(-0.0025 1.64609e-13 0)
(-0.0025 1.28727e-13 0)
(-0.0025 9.80676e-14 0)
(-0.0025 6.91217e-14 0)
(-0.0025 3.40703e-14 0)
(-0.0025 7.17891e-15 0)
(-0.00249999 9.92377e-09 0)
(-0.0025 -2.50591e-09 0)
(-0.0025 5.97131e-10 0)
(-0.0025 -1.47887e-10 0)
(-0.0025 3.9216e-11 0)
(-0.0025 -7.19473e-12 0)
(-0.0025 3.83663e-12 0)
(-0.0025 5.13256e-13 0)
(-0.0025 9.18226e-13 0)
(-0.0025 5.17129e-13 0)
(-0.0025 4.1679e-13 0)
(-0.0025 3.05728e-13 0)
(-0.0025 2.39075e-13 0)
(-0.0025 1.86499e-13 0)
(-0.0025 1.45922e-13 0)
(-0.0025 1.12303e-13 0)
(-0.0025 8.46727e-14 0)
(-0.0025 5.94722e-14 0)
(-0.0025 2.93664e-14 0)
(-0.0025 6.04553e-15 0)
(-0.0025 -1.01862e-08 0)
(-0.0025 2.603e-09 0)
(-0.0025 -6.05085e-10 0)
(-0.0025 1.67416e-10 0)
(-0.0025 -3.39715e-11 0)
(-0.0025 1.33952e-11 0)
(-0.0025 -6.76754e-13 0)
(-0.0025 1.89739e-12 0)
(-0.0025 5.88835e-13 0)
(-0.0025 5.69135e-13 0)
(-0.0025 3.48113e-13 0)
(-0.0025 2.67219e-13 0)
(-0.0025 1.96454e-13 0)
(-0.0025 1.51422e-13 0)
(-0.0025 1.1599e-13 0)
(-0.0025 8.83732e-14 0)
(-0.0025 6.60724e-14 0)
(-0.0025 4.61358e-14 0)
(-0.0025 2.28796e-14 0)
(-0.0025 4.49716e-15 0)
(-0.0025 9.89066e-09 0)
(-0.0025 -2.20018e-09 0)
(-0.0025 5.3104e-10 0)
(-0.0025 -9.83848e-11 0)
(-0.0025 2.958e-11 0)
(-0.0025 -1.14023e-12 0)
(-0.0025 2.41617e-12 0)
(-0.0025 9.21562e-13 0)
(-0.0025 5.58938e-13 0)
(-0.0025 3.91879e-13 0)
(-0.0025 2.43785e-13 0)
(-0.0025 1.809e-13 0)
(-0.0025 1.29256e-13 0)
(-0.0025 9.83017e-14 0)
(-0.0025 7.4114e-14 0)
(-0.0025 5.59423e-14 0)
(-0.0025 4.15877e-14 0)
(-0.0025 2.95388e-14 0)
(-0.0025 1.5078e-14 0)
(-0.0025 2.70066e-15 0)
(-0.00250001 -1.0253e-08 0)
(-0.0025 2.81134e-09 0)
(-0.0025 -6.68832e-10 0)
(-0.0025 1.89596e-10 0)
(-0.0025 -4.60607e-11 0)
(-0.0025 1.40897e-11 0)
(-0.0025 -2.98025e-12 0)
(-0.0025 1.34262e-12 0)
(-0.0025 -6.12393e-14 0)
(-0.0025 2.14277e-13 0)
(-0.0025 6.67831e-14 0)
(-0.0025 6.83072e-14 0)
(-0.0025 4.26879e-14 0)
(-0.0025 3.36278e-14 0)
(-0.0025 2.46694e-14 0)
(-0.0025 1.86155e-14 0)
(-0.0025 1.38858e-14 0)
(-0.0025 1.01948e-14 0)
(-0.0025 5.45671e-15 0)
(-0.0025 8.94415e-16 0)
)
;

boundaryField
{
    movingWall
    {
        type            calculated;
        value           uniform (-0.0025 -0 -0);
    }
    fixedWalls
    {
        type            calculated;
        value           uniform (-0.0025 -0 -0);
    }
    frontAndBack
    {
        type            empty;
    }
}


// ************************************************************************* //
