/*--------------------------------*- C++ -*----------------------------------*\
| =========                 |                                                 |
| \\      /  F ield         | OpenFOAM: The Open Source CFD Toolbox           |
|  \\    /   O peration     | Version:  2312                                  |
|   \\  /    A nd           | Website:  www.openfoam.com                      |
|    \\/     M anipulation  |                                                 |
\*---------------------------------------------------------------------------*/
FoamFile
{
    version     2.0;
    format      ascii;
    arch        "LSB;label=32;scalar=64";
    class       volVectorField;
    location    "3";
    object      norm_U_max;
}
// * * * * * * * * * * * * * * * * * * * * * * * * * * * * * * * * * * * * * //

dimensions      [0 0 0 0 0 0 0];

internalField   nonuniform List<vector> 
400
(
(-0.999997 3.48534e-07 0)
(-0.999997 -8.3344e-08 0)
(-0.999997 1.98824e-08 0)
(-0.999997 -4.84229e-09 0)
(-0.999997 1.13155e-09 0)
(-0.999997 -3.13926e-10 0)
(-0.999997 4.42758e-11 0)
(-0.999997 -3.71059e-11 0)
(-0.999997 -1.06644e-11 0)
(-0.999997 -1.14892e-11 0)
(-0.999997 -6.59181e-12 0)
(-0.999997 -4.13072e-12 0)
(-0.999997 -2.01159e-12 0)
(-0.999997 -6.50459e-13 0)
(-0.999997 2.1098e-13 0)
(-0.999997 6.85399e-13 0)
(-0.999997 8.89398e-13 0)
(-0.999997 7.67955e-13 0)
(-0.999997 3.18733e-13 0)
(-0.999997 9.29666e-14 0)
(-0.999997 -3.57333e-07 0)
(-0.999997 8.58272e-08 0)
(-0.999997 -2.06209e-08 0)
(-0.999997 4.92017e-09 0)
(-0.999997 -1.33585e-09 0)
(-0.999997 2.09047e-10 0)
(-0.999997 -1.56807e-10 0)
(-0.999997 -4.21917e-11 0)
(-0.999997 -5.03164e-11 0)
(-0.999997 -3.01736e-11 0)
(-0.999997 -2.07788e-11 0)
(-0.999997 -1.19135e-11 0)
(-0.999997 -5.87966e-12 0)
(-0.999997 -1.71198e-12 0)
(-0.999997 8.22348e-13 0)
(-0.999997 2.17237e-12 0)
(-0.999997 2.71943e-12 0)
(-0.999997 2.45821e-12 0)
(-0.999997 9.48082e-13 0)
(-0.999997 2.85505e-13 0)
(-0.999997 3.76007e-07 0)
(-0.999997 -8.54281e-08 0)
(-0.999997 2.00806e-08 0)
(-0.999997 -4.84658e-09 0)
(-0.999997 8.7902e-10 0)
(-0.999997 -4.29609e-10 0)
(-0.999997 -7.74839e-11 0)
(-0.999997 -1.16993e-10 0)
(-0.999997 -7.03084e-11 0)
(-0.999997 -5.12584e-11 0)
(-0.999997 -3.20331e-11 0)
(-0.999997 -1.85564e-11 0)
(-0.999997 -8.58032e-12 0)
(-0.999997 -1.99255e-12 0)
(-0.999997 2.01621e-12 0)
(-0.999997 4.08519e-12 0)
(-0.999997 4.84058e-12 0)
(-0.999997 4.25148e-12 0)
(-0.999997 1.69048e-12 0)
(-0.999997 4.97532e-13 0)
(-0.999997 -4.00676e-07 0)
(-0.999997 8.60986e-08 0)
(-0.999997 -2.10631e-08 0)
(-0.999997 3.93817e-09 0)
(-0.999997 -1.33576e-09 0)
(-0.999997 -4.75011e-11 0)
(-0.999997 -2.34928e-10 0)
(-0.999997 -1.2964e-10 0)
(-0.999997 -9.86507e-11 0)
(-0.999997 -6.5084e-11 0)
(-0.999997 -4.0854e-11 0)
(-0.999997 -2.26388e-11 0)
(-0.999997 -9.57276e-12 0)
(-0.999997 -1.00155e-12 0)
(-0.999997 4.09485e-12 0)
(-0.999997 6.58598e-12 0)
(-0.999997 7.33141e-12 0)
(-0.999997 6.32716e-12 0)
(-0.999997 2.56939e-12 0)
(-0.999997 7.32204e-13 0)
(-0.999997 4.6846e-07 0)
(-0.999997 -1.06657e-07 0)
(-0.999997 2.45967e-08 0)
(-0.999997 -6.5883e-09 0)
(-0.999997 9.71347e-10 0)
(-0.999997 -6.80709e-10 0)
(-0.999997 -1.40109e-10 0)
(-0.999997 -1.85725e-10 0)
(-0.999997 -1.05773e-10 0)
(-0.999997 -7.57401e-11 0)
(-0.999997 -4.44466e-11 0)
(-0.999997 -2.36149e-11 0)
(-0.999997 -8.16424e-12 0)
(-0.999997 1.64643e-12 0)
(-0.999997 7.33054e-12 0)
(-0.999997 9.87608e-12 0)
(-0.999997 1.03485e-11 0)
(-0.999997 8.67002e-12 0)
(-0.999997 3.63049e-12 0)
(-0.999997 9.98171e-13 0)
(-0.999997 -5.27676e-07 0)
(-0.999997 1.05218e-07 0)
(-0.999997 -2.53856e-08 0)
(-0.999997 4.10554e-09 0)
(-0.999997 -1.41587e-09 0)
(-0.999997 -1.55795e-10 0)
(-0.999997 -2.64025e-10 0)
(-0.999997 -1.6819e-10 0)
(-0.999997 -1.15367e-10 0)
(-0.999997 -7.57099e-11 0)
(-0.999997 -4.34087e-11 0)
(-0.999997 -2.0547e-11 0)
(-0.999997 -4.08069e-12 0)
(-0.999997 6.21104e-12 0)
(-0.999997 1.18625e-11 0)
(-0.999997 1.40075e-11 0)
(-0.999997 1.3868e-11 0)
(-0.999997 1.13478e-11 0)
(-0.999997 4.87327e-12 0)
(-0.999997 1.29357e-12 0)
(-0.999997 6.80837e-07 0)
(-0.999997 -1.44361e-07 0)
(-0.999997 3.33153e-08 0)
(-0.999997 -7.62729e-09 0)
(-0.999997 1.1918e-09 0)
(-0.999997 -6.64955e-10 0)
(-0.999997 -1.52412e-10 0)
(-0.999997 -1.78608e-10 0)
(-0.999997 -1.05413e-10 0)
(-0.999997 -6.89956e-11 0)
(-0.999997 -3.64298e-11 0)
(-0.999997 -1.34026e-11 0)
(-0.999997 2.84921e-12 0)
(-0.999997 1.27377e-11 0)
(-0.999997 1.76965e-11 0)
(-0.999997 1.89883e-11 0)
(-0.999997 1.79155e-11 0)
(-0.999997 1.42834e-11 0)
(-0.999997 6.29087e-12 0)
(-0.999997 1.61844e-12 0)
(-0.999998 -8.52778e-07 0)
(-0.999997 1.77556e-07 0)
(-0.999997 -4.24145e-08 0)
(-0.999997 8.3351e-09 0)
(-0.999997 -2.2705e-09 0)
(-0.999997 1.62243e-10 0)
(-0.999997 -2.84968e-10 0)
(-0.999997 -1.20132e-10 0)
(-0.999997 -9.59117e-11 0)
(-0.999997 -5.2785e-11 0)
(-0.999997 -2.42454e-11 0)
(-0.999997 -2.29554e-12 0)
(-0.999997 1.24907e-11 0)
(-0.999997 2.10807e-11 0)
(-0.999997 2.47051e-11 0)
(-0.999997 2.46709e-11 0)
(-0.999997 2.23341e-11 0)
(-0.999997 1.74329e-11 0)
(-0.999997 7.84173e-12 0)
(-0.999997 1.96049e-12 0)
(-0.999997 1.118e-06 0)
(-0.999997 -2.31158e-07 0)
(-0.999997 5.37642e-08 0)
(-0.999997 -1.13195e-08 0)
(-0.999997 2.08188e-09 0)
(-0.999997 -7.07764e-10 0)
(-0.999997 -7.23091e-11 0)
(-0.999997 -1.25521e-10 0)
(-0.999997 -6.34287e-11 0)
(-0.999997 -3.26621e-11 0)
(-0.999997 -6.64705e-12 0)
(-0.999997 1.21696e-11 0)
(-0.999997 2.44635e-11 0)
(-0.999997 3.09067e-11 0)
(-0.999997 3.26014e-11 0)
(-0.999997 3.08442e-11 0)
(-0.999997 2.69878e-11 0)
(-0.999997 2.06447e-11 0)
(-0.999997 9.46175e-12 0)
(-0.999997 2.30796e-12 0)
(-0.999998 -1.46811e-06 0)
(-0.999997 3.07793e-07 0)
(-0.999997 -7.2716e-08 0)
(-0.999997 1.47083e-08 0)
(-0.999997 -3.51919e-09 0)
(-0.999997 5.49764e-10 0)
(-0.999997 -2.39088e-10 0)
(-0.999997 -3.69238e-11 0)
(-0.999997 -3.73891e-11 0)
(-0.999997 -4.779e-12 0)
(-0.999997 1.47457e-11 0)
(-0.999997 2.9354e-11 0)
(-0.999997 3.8204e-11 0)
(-0.999997 4.17176e-11 0)
(-0.999997 4.09905e-11 0)
(-0.999997 3.71692e-11 0)
(-0.999997 3.15956e-11 0)
(-0.999997 2.37676e-11 0)
(-0.999997 1.10726e-11 0)
(-0.999997 2.63659e-12 0)
(-0.999996 1.93373e-06 0)
(-0.999998 -4.16385e-07 0)
(-0.999997 9.71818e-08 0)
(-0.999997 -2.11205e-08 0)
(-0.999997 4.41629e-09 0)
(-0.999997 -1.11924e-09 0)
(-0.999997 1.45371e-10 0)
(-0.999997 -6.31196e-11 0)
(-0.999997 1.40058e-11 0)
(-0.999997 2.39548e-11 0)
(-0.999997 3.9648e-11 0)
(-0.999997 4.84272e-11 0)
(-0.999997 5.29086e-11 0)
(-0.999997 5.29038e-11 0)
(-0.999997 4.93392e-11 0)
(-0.999997 4.32504e-11 0)
(-0.999997 3.58825e-11 0)
(-0.999997 2.65966e-11 0)
(-0.999997 1.25577e-11 0)
(-0.999997 2.9247e-12 0)
(-0.999999 -2.4667e-06 0)
(-0.999997 5.36024e-07 0)
(-0.999997 -1.26724e-07 0)
(-0.999997 2.69315e-08 0)
(-0.999997 -6.14693e-09 0)
(-0.999997 1.31697e-09 0)
(-0.999997 -2.50267e-10 0)
(-0.999997 9.54668e-11 0)
(-0.999997 3.99728e-11 0)
(-0.999997 6.18649e-11 0)
(-0.999997 6.56669e-11 0)
(-0.999997 6.84578e-11 0)
(-0.999997 6.77358e-11 0)
(-0.999997 6.36827e-11 0)
(-0.999997 5.70443e-11 0)
(-0.999997 4.85993e-11 0)
(-0.999997 3.94763e-11 0)
(-0.999997 2.88872e-11 0)
(-0.999997 1.38151e-11 0)
(-0.999997 3.14292e-12 0)
(-0.999995 3.06146e-06 0)
(-0.999998 -6.87246e-07 0)
(-0.999997 1.62956e-07 0)
(-0.999997 -3.57508e-08 0)
(-0.999997 8.38048e-09 0)
(-0.999997 -1.75519e-09 0)
(-0.999997 4.90636e-10 0)
(-0.999997 5.81498e-12 0)
(-0.999997 1.1737e-10 0)
(-0.999997 9.28624e-11 0)
(-0.999997 9.41643e-11 0)
(-0.999997 8.80313e-11 0)
(-0.999997 8.16212e-11 0)
(-0.999997 7.31812e-11 0)
(-0.999997 6.33742e-11 0)
(-0.999997 5.26744e-11 0)
(-0.999997 4.19991e-11 0)
(-0.999997 3.04122e-11 0)
(-0.999997 1.46811e-11 0)
(-0.999997 3.26786e-12 0)
(-0.999999 -3.44781e-06 0)
(-0.999997 8.10332e-07 0)
(-0.999997 -1.8993e-07 0)
(-0.999997 4.37647e-08 0)
(-0.999997 -9.92351e-09 0)
(-0.999997 2.40529e-09 0)
(-0.999997 -3.29974e-10 0)
(-0.999997 2.70786e-10 0)
(-0.999997 1.28269e-10 0)
(-0.999997 1.39362e-10 0)
(-0.999997 1.19346e-10 0)
(-0.999997 1.06239e-10 0)
(-0.999997 9.31826e-11 0)
(-0.999997 8.03192e-11 0)
(-0.999997 6.75382e-11 0)
(-0.999997 5.49081e-11 0)
(-0.999997 4.30584e-11 0)
(-0.999997 3.08578e-11 0)
(-0.999997 1.50404e-11 0)
(-0.999997 3.27602e-12 0)
(-0.999995 3.70353e-06 0)
(-0.999998 -9.00463e-07 0)
(-0.999997 2.11244e-07 0)
(-0.999997 -5.14195e-08 0)
(-0.999997 1.23455e-08 0)
(-0.999997 -2.63965e-09 0)
(-0.999997 9.76229e-10 0)
(-0.999997 7.76277e-11 0)
(-0.999997 2.48054e-10 0)
(-0.999997 1.63038e-10 0)
(-0.999997 1.46185e-10 0)
(-0.999997 1.19636e-10 0)
(-0.999997 1.00935e-10 0)
(-0.999997 8.38399e-11 0)
(-0.999997 6.86595e-11 0)
(-0.999997 5.46882e-11 0)
(-0.999997 4.22342e-11 0)
(-0.999997 3.00309e-11 0)
(-0.999997 1.47149e-11 0)
(-0.999997 3.14912e-12 0)
(-0.999999 -3.83179e-06 0)
(-0.999997 9.11372e-07 0)
(-0.999997 -2.13755e-07 0)
(-0.999997 5.07187e-08 0)
(-0.999997 -1.1156e-08 0)
(-0.999997 3.14005e-09 0)
(-0.999997 -1.94016e-10 0)
(-0.999997 4.66959e-10 0)
(-0.999997 2.36132e-10 0)
(-0.999997 2.10535e-10 0)
(-0.999997 1.59528e-10 0)
(-0.999997 1.27452e-10 0)
(-0.999997 1.02364e-10 0)
(-0.999997 8.24395e-11 0)
(-0.999997 6.58436e-11 0)
(-0.999997 5.14906e-11 0)
(-0.999997 3.9227e-11 0)
(-0.999997 2.76486e-11 0)
(-0.999997 1.36281e-11 0)
(-0.999997 2.87155e-12 0)
(-0.999995 3.9695e-06 0)
(-0.999998 -1.00236e-06 0)
(-0.999997 2.38852e-07 0)
(-0.999997 -5.91545e-08 0)
(-0.999997 1.56863e-08 0)
(-0.999997 -2.87788e-09 0)
(-0.999997 1.53465e-09 0)
(-0.999997 2.05302e-10 0)
(-0.999997 3.6729e-10 0)
(-0.999997 2.06851e-10 0)
(-0.999997 1.66715e-10 0)
(-0.999997 1.22291e-10 0)
(-0.999997 9.56298e-11 0)
(-0.999997 7.45992e-11 0)
(-0.999997 5.83686e-11 0)
(-0.999997 4.49209e-11 0)
(-0.999997 3.3869e-11 0)
(-0.999997 2.37888e-11 0)
(-0.999997 1.17465e-11 0)
(-0.999997 2.41821e-12 0)
(-0.999998 -4.07447e-06 0)
(-0.999997 1.0412e-06 0)
(-0.999997 -2.42033e-07 0)
(-0.999997 6.69663e-08 0)
(-0.999997 -1.35886e-08 0)
(-0.999997 5.35805e-09 0)
(-0.999997 -2.70701e-10 0)
(-0.999997 7.58955e-10 0)
(-0.999997 2.35533e-10 0)
(-0.999997 2.27653e-10 0)
(-0.999997 1.39245e-10 0)
(-0.999997 1.06887e-10 0)
(-0.999997 7.85813e-11 0)
(-0.999997 6.05687e-11 0)
(-0.999997 4.63961e-11 0)
(-0.999997 3.53492e-11 0)
(-0.999997 2.64289e-11 0)
(-0.999997 1.84543e-11 0)
(-0.999997 9.1518e-12 0)
(-0.999997 1.79886e-12 0)
(-0.999996 3.95625e-06 0)
(-0.999998 -8.80068e-07 0)
(-0.999997 2.12415e-07 0)
(-0.999997 -3.93538e-08 0)
(-0.999997 1.1832e-08 0)
(-0.999997 -4.5609e-10 0)
(-0.999997 9.66466e-10 0)
(-0.999997 3.68624e-10 0)
(-0.999997 2.23575e-10 0)
(-0.999997 1.56751e-10 0)
(-0.999997 9.75138e-11 0)
(-0.999997 7.236e-11 0)
(-0.999997 5.17023e-11 0)
(-0.999997 3.93206e-11 0)
(-0.999997 2.96455e-11 0)
(-0.999997 2.23768e-11 0)
(-0.999997 1.6635e-11 0)
(-0.999997 1.18155e-11 0)
(-0.999997 6.03117e-12 0)
(-0.999997 1.08026e-12 0)
(-1 -4.10119e-06 0)
(-0.999997 1.12453e-06 0)
(-0.999998 -2.67532e-07 0)
(-0.999997 7.58384e-08 0)
(-0.999997 -1.84242e-08 0)
(-0.999997 5.63585e-09 0)
(-0.999997 -1.1921e-09 0)
(-0.999997 5.37048e-10 0)
(-0.999997 -2.44956e-11 0)
(-0.999997 8.57105e-11 0)
(-0.999997 2.67132e-11 0)
(-0.999997 2.73228e-11 0)
(-0.999997 1.70751e-11 0)
(-0.999997 1.34511e-11 0)
(-0.999997 9.86775e-12 0)
(-0.999997 7.44619e-12 0)
(-0.999997 5.55431e-12 0)
(-0.999997 4.07789e-12 0)
(-0.999997 2.18268e-12 0)
(-0.999997 3.57765e-13 0)
)
;

boundaryField
{
    movingWall
    {
        type            calculated;
        value           uniform (-0.999997 -0 -0);
    }
    fixedWalls
    {
        type            calculated;
        value           uniform (-0.999997 -0 -0);
    }
    frontAndBack
    {
        type            empty;
    }
}


// ************************************************************************* //
