/*--------------------------------*- C++ -*----------------------------------*\
| =========                 |                                                 |
| \\      /  F ield         | OpenFOAM: The Open Source CFD Toolbox           |
|  \\    /   O peration     | Version:  2312                                  |
|   \\  /    A nd           | Website:  www.openfoam.com                      |
|    \\/     M anipulation  |                                                 |
\*---------------------------------------------------------------------------*/
FoamFile
{
    version     2.0;
    format      ascii;
    arch        "LSB;label=32;scalar=64";
    class       volScalarField;
    location    "3";
    object      P_A;
}
// * * * * * * * * * * * * * * * * * * * * * * * * * * * * * * * * * * * * * //

dimensions      [1 -1 -3 0 0 0 0];

internalField   nonuniform List<scalar> 
400
(
2.88496e-28
2.88438e-28
2.88378e-28
2.88349e-28
2.88291e-28
2.88272e-28
2.88219e-28
2.88211e-28
2.88163e-28
2.8816e-28
2.88124e-28
2.88119e-28
2.88098e-28
2.88089e-28
2.88078e-28
2.88073e-28
2.88066e-28
2.88063e-28
2.88061e-28
2.8806e-28
2.33712e-27
2.21137e-27
2.21532e-27
2.21698e-27
2.2211e-27
2.22331e-27
2.22795e-27
2.23074e-27
2.23583e-27
2.23923e-27
2.24476e-27
2.24874e-27
2.25479e-27
2.25928e-27
2.26593e-27
2.27088e-27
2.27813e-27
2.28356e-27
2.28739e-27
2.29422e-27
1.76884e-26
1.63525e-26
1.63812e-26
1.63942e-26
1.64287e-26
1.64479e-26
1.64884e-26
1.65143e-26
1.65611e-26
1.65933e-26
1.66465e-26
1.66851e-26
1.67446e-26
1.67895e-26
1.68558e-26
1.69068e-26
1.69801e-26
1.70372e-26
1.70763e-26
1.71475e-26
5.70679e-26
5.1871e-26
5.19348e-26
5.19723e-26
5.207e-26
5.21356e-26
5.22576e-26
5.23532e-26
5.25016e-26
5.26246e-26
5.28011e-26
5.29507e-26
5.31553e-26
5.33316e-26
5.35686e-26
5.37683e-26
5.40397e-26
5.42633e-26
5.44104e-26
5.46851e-26
1.05134e-25
9.46241e-26
9.46998e-26
9.47444e-26
9.49111e-26
9.50129e-26
9.52353e-26
9.53996e-26
9.56754e-26
9.58988e-26
9.62405e-26
9.65181e-26
9.69236e-26
9.7258e-26
9.77275e-26
9.81188e-26
9.86559e-26
9.91047e-26
9.93965e-26
9.99472e-26
1.43593e-25
1.28563e-25
1.28624e-25
1.28671e-25
1.28867e-25
1.29002e-25
1.29283e-25
1.29509e-25
1.29869e-25
1.30191e-25
1.30632e-25
1.31043e-25
1.31577e-25
1.32069e-25
1.32709e-25
1.33274e-25
1.34025e-25
1.34667e-25
1.35079e-25
1.35862e-25
1.7002e-25
1.51787e-25
1.51829e-25
1.5187e-25
1.52087e-25
1.52238e-25
1.52556e-25
1.52821e-25
1.53239e-25
1.53618e-25
1.54142e-25
1.54626e-25
1.55272e-25
1.55851e-25
1.56626e-25
1.57301e-25
1.58205e-25
1.58982e-25
1.59477e-25
1.60425e-25
1.88448e-25
1.67948e-25
1.67973e-25
1.68003e-25
1.6824e-25
1.68394e-25
1.68742e-25
1.69025e-25
1.69494e-25
1.69897e-25
1.70499e-25
1.71015e-25
1.71753e-25
1.72384e-25
1.73258e-25
1.74008e-25
1.75021e-25
1.75891e-25
1.76446e-25
1.77508e-25
2.0293e-25
1.80637e-25
1.80637e-25
1.80681e-25
1.80891e-25
1.81077e-25
1.81426e-25
1.81743e-25
1.82232e-25
1.82681e-25
1.83305e-25
1.83887e-25
1.84655e-25
1.85367e-25
1.86282e-25
1.87123e-25
1.88197e-25
1.89159e-25
1.89754e-25
1.9091e-25
2.16025e-25
1.92097e-25
1.92085e-25
1.92111e-25
1.92357e-25
1.92525e-25
1.92908e-25
1.93224e-25
1.93757e-25
1.94213e-25
1.94901e-25
1.95496e-25
1.9634e-25
1.97074e-25
1.9808e-25
1.98954e-25
2.00124e-25
2.0114e-25
2.01784e-25
2.03021e-25
2.29378e-25
2.03775e-25
2.03741e-25
2.03777e-25
2.03995e-25
2.04196e-25
2.04573e-25
2.04928e-25
2.05467e-25
2.05974e-25
2.06681e-25
2.07333e-25
2.08214e-25
2.09012e-25
2.10068e-25
2.11014e-25
2.12252e-25
2.13346e-25
2.14029e-25
2.15353e-25
2.4414e-25
2.16675e-25
2.16592e-25
2.16649e-25
2.16863e-25
2.17078e-25
2.17458e-25
2.17848e-25
2.18404e-25
2.18956e-25
2.1969e-25
2.20406e-25
2.21317e-25
2.22198e-25
2.23295e-25
2.24335e-25
2.25638e-25
2.26825e-25
2.27551e-25
2.28971e-25
2.61295e-25
2.3163e-25
2.31559e-25
2.31564e-25
2.31825e-25
2.32011e-25
2.32451e-25
2.32819e-25
2.33452e-25
2.34001e-25
2.3482e-25
2.35553e-25
2.36562e-25
2.37474e-25
2.38687e-25
2.39773e-25
2.41203e-25
2.42463e-25
2.43253e-25
2.44781e-25
2.81924e-25
2.49615e-25
2.49474e-25
2.49513e-25
2.49736e-25
2.49959e-25
2.5039e-25
2.50816e-25
2.51452e-25
2.52076e-25
2.52934e-25
2.53743e-25
2.5482e-25
2.55819e-25
2.57124e-25
2.58313e-25
2.59854e-25
2.61234e-25
2.62088e-25
2.63752e-25
3.07372e-25
2.71756e-25
2.71566e-25
2.71583e-25
2.71832e-25
2.72036e-25
2.72531e-25
2.72948e-25
2.73677e-25
2.74317e-25
2.7527e-25
2.76138e-25
2.77322e-25
2.7841e-25
2.79843e-25
2.81142e-25
2.82842e-25
2.84352e-25
2.85294e-25
2.87123e-25
3.3971e-25
2.99817e-25
2.99617e-25
2.99578e-25
2.99834e-25
3.00057e-25
3.00549e-25
3.01041e-25
3.01796e-25
3.02526e-25
3.03562e-25
3.04521e-25
3.05844e-25
3.07035e-25
3.08647e-25
3.10079e-25
3.11981e-25
3.13663e-25
3.14714e-25
3.16757e-25
3.82403e-25
3.36836e-25
3.36464e-25
3.36477e-25
3.36664e-25
3.36941e-25
3.37448e-25
3.38007e-25
3.38804e-25
3.39668e-25
3.40754e-25
3.41915e-25
3.43326e-25
3.44757e-25
3.46494e-25
3.48201e-25
3.50293e-25
3.52258e-25
3.53434e-25
3.55769e-25
4.39713e-25
3.86469e-25
3.85923e-25
3.85922e-25
3.86076e-25
3.86368e-25
3.86903e-25
3.87531e-25
3.88445e-25
3.89405e-25
3.90666e-25
3.91969e-25
3.93622e-25
3.95245e-25
3.97296e-25
3.99241e-25
4.01704e-25
4.03975e-25
4.05352e-25
4.08073e-25
5.06066e-25
4.46036e-25
4.45385e-25
4.45237e-25
4.45437e-25
4.4568e-25
4.46281e-25
4.4694e-25
4.47909e-25
4.48991e-25
4.50378e-25
4.51859e-25
4.537e-25
4.55569e-25
4.5789e-25
4.60149e-25
4.62977e-25
4.65638e-25
4.67235e-25
4.7041e-25
5.1985e-25
5.19551e-25
5.19463e-25
5.19306e-25
5.19228e-25
5.19111e-25
5.1905e-25
5.18989e-25
5.18914e-25
5.18871e-25
5.18826e-25
5.18802e-25
5.1877e-25
5.18767e-25
5.18745e-25
5.18746e-25
5.18737e-25
5.18737e-25
5.18736e-25
5.18736e-25
)
;

boundaryField
{
    movingWall
    {
        type            calculated;
        value           nonuniform List<scalar> 
20
(
5.1985e-25
5.19551e-25
5.19463e-25
5.19306e-25
5.19228e-25
5.19111e-25
5.1905e-25
5.18989e-25
5.18914e-25
5.18871e-25
5.18826e-25
5.18802e-25
5.1877e-25
5.18767e-25
5.18745e-25
5.18746e-25
5.18737e-25
5.18737e-25
5.18736e-25
5.18736e-25
)
;
    }
    fixedWalls
    {
        type            calculated;
        value           nonuniform List<scalar> 
60
(
2.88496e-28
2.33712e-27
1.76884e-26
5.70679e-26
1.05134e-25
1.43593e-25
1.7002e-25
1.88448e-25
2.0293e-25
2.16025e-25
2.29378e-25
2.4414e-25
2.61295e-25
2.81924e-25
3.07372e-25
3.3971e-25
3.82403e-25
4.39713e-25
5.06066e-25
5.1985e-25
2.8806e-28
2.29422e-27
1.71475e-26
5.46851e-26
9.99472e-26
1.35862e-25
1.60425e-25
1.77508e-25
1.9091e-25
2.03021e-25
2.15353e-25
2.28971e-25
2.44781e-25
2.63752e-25
2.87123e-25
3.16757e-25
3.55769e-25
4.08073e-25
4.7041e-25
5.18736e-25
2.88496e-28
2.88438e-28
2.88378e-28
2.88349e-28
2.88291e-28
2.88272e-28
2.88219e-28
2.88211e-28
2.88163e-28
2.8816e-28
2.88124e-28
2.88119e-28
2.88098e-28
2.88089e-28
2.88078e-28
2.88073e-28
2.88066e-28
2.88063e-28
2.88061e-28
2.8806e-28
)
;
    }
    frontAndBack
    {
        type            empty;
    }
}


// ************************************************************************* //
