/*--------------------------------*- C++ -*----------------------------------*\
| =========                 |                                                 |
| \\      /  F ield         | OpenFOAM: The Open Source CFD Toolbox           |
|  \\    /   O peration     | Version:  2312                                  |
|   \\  /    A nd           | Website:  www.openfoam.com                      |
|    \\/     M anipulation  |                                                 |
\*---------------------------------------------------------------------------*/
FoamFile
{
    version     2.0;
    format      ascii;
    arch        "LSB;label=32;scalar=64";
    class       surfaceScalarField;
    location    "3";
    object      PecletNoField;
}
// * * * * * * * * * * * * * * * * * * * * * * * * * * * * * * * * * * * * * //

dimensions      [0 0 0 0 0 0 0];

oriented        oriented;

internalField   nonuniform List<scalar> 
760
(
347.782
1.7617e-07
347.785
2.49844e-08
347.786
2.9112e-08
347.789
2.43763e-08
347.79
2.18351e-08
347.792
2.20208e-08
347.793
1.67425e-08
347.795
1.3339e-08
347.796
9.86672e-09
347.796
6.90413e-09
347.798
4.52025e-09
347.798
2.66845e-09
347.799
1.31724e-09
347.799
4.01035e-10
347.8
1.63626e-10
347.8
4.65479e-10
347.8
5.93474e-10
347.8
5.36393e-10
347.8
2.08471e-10
5.82101e-11
316.129
3.34572e-07
313.27
7.57702e-07
313.71
2.99051e-07
314.092
7.99677e-08
314.478
9.10876e-08
314.854
2.37233e-08
315.236
3.72594e-08
315.609
2.27681e-08
315.986
1.82651e-08
316.355
1.21383e-08
316.728
7.97282e-09
317.094
4.5982e-09
317.462
2.19989e-09
317.824
5.75121e-10
318.188
4.16116e-10
318.547
9.39825e-10
318.906
1.13812e-09
319.163
1.00649e-09
319.443
3.93263e-10
1.16084e-10
285.114
3.45557e-07
280.884
5.18594e-08
281.554
1.20867e-07
282.131
1.68223e-07
282.719
3.93254e-08
283.29
7.18432e-08
283.869
4.00768e-08
284.431
3.45614e-08
285.001
2.30706e-08
285.556
1.61478e-08
286.116
1.0097e-08
286.665
5.74356e-09
287.216
2.54639e-09
287.758
4.38294e-10
288.3
8.34689e-10
288.836
1.47397e-09
289.37
1.69369e-09
289.753
1.48092e-09
290.167
5.93821e-10
1.64524e-10
266.318
4.33041e-06
261.135
3.54771e-06
261.967
8.88924e-08
262.685
3.67726e-07
263.417
7.29577e-08
264.127
8.91532e-08
264.847
5.10624e-08
265.546
4.06188e-08
266.255
2.70182e-08
266.943
1.84534e-08
267.64
1.12731e-08
268.321
6.12345e-09
269.006
2.3755e-09
269.676
5.89572e-11
270.35
1.49509e-09
271.011
2.17637e-09
271.674
2.34604e-09
272.15
1.98948e-09
272.66
8.19562e-10
2.27893e-10
256.354
1.66965e-06
250.643
1.66804e-06
251.569
4.07889e-07
252.368
1.95494e-07
253.182
3.90075e-08
253.971
1.12936e-07
254.77
5.12079e-08
255.548
4.58166e-08
256.337
2.80596e-08
257.1
1.9409e-08
257.874
1.12564e-08
258.628
5.70208e-09
259.387
1.60638e-09
260.131
9.8353e-10
260.877
2.45694e-09
261.611
3.07112e-09
262.345
3.13093e-09
262.876
2.60212e-09
263.439
1.10457e-09
2.90573e-10
251.234
1.12386e-05
245.259
9.98944e-06
246.234
3.59379e-07
247.072
7.44437e-07
247.931
3.06475e-08
248.762
1.03007e-07
249.604
4.83274e-08
250.423
4.30223e-08
251.251
2.75735e-08
252.057
1.81978e-08
252.871
1.00924e-08
253.665
4.32087e-09
254.465
1.9025e-10
255.245
2.37471e-09
256.032
3.73947e-09
256.801
4.19748e-09
257.573
4.05792e-09
258.131
3.2749e-09
258.721
1.42546e-09
3.73017e-10
248.462
1.25324e-05
242.342
1.19775e-05
243.344
3.38575e-07
244.206
5.12345e-07
245.088
1.47681e-07
245.942
5.0302e-08
246.808
6.1214e-08
247.649
3.6453e-08
248.499
2.52844e-08
249.326
1.50647e-08
250.163
7.6068e-09
250.976
1.98922e-09
251.797
1.89375e-09
252.599
4.23e-09
253.405
5.33276e-09
254.195
5.50646e-09
254.987
5.09908e-09
255.56
4.03785e-09
256.165
1.80221e-09
4.51789e-10
246.776
2.05354e-05
240.572
1.85407e-05
241.591
3.80952e-07
242.464
1.08366e-06
243.36
2.82525e-09
244.229
8.68744e-08
245.109
3.15725e-08
245.962
3.06945e-08
246.827
1.88929e-08
247.666
1.07018e-08
248.515
3.81871e-09
249.341
1.19326e-09
250.174
4.58858e-09
250.989
6.48033e-09
251.806
7.17679e-09
252.609
6.98044e-09
253.413
6.22415e-09
253.996
4.81215e-09
254.609
2.18982e-09
5.46121e-10
245.564
2.8604e-05
239.301
2.68648e-05
240.329
1.06892e-06
241.216
1.45463e-06
242.125
2.49919e-07
243.001
5.93747e-09
243.891
5.77121e-08
244.753
1.83563e-08
245.627
1.36861e-08
246.476
4.30975e-09
247.333
9.30986e-10
248.169
5.14404e-09
249.01
7.76023e-09
249.834
9.03197e-09
250.661
9.18802e-09
251.472
8.51366e-09
252.285
7.36366e-09
252.872
5.60867e-09
253.492
2.6018e-09
6.27467e-10
244.546
4.04966e-05
238.231
3.75249e-05
239.271
1.49068e-06
240.163
2.28873e-06
241.078
2.18172e-07
241.964
1.24214e-07
242.863
8.35759e-09
243.732
1.41372e-08
244.615
6.26818e-10
245.47
1.94947e-09
246.336
6.78189e-09
247.179
9.53273e-09
248.028
1.12659e-08
248.859
1.17244e-08
249.692
1.1241e-08
250.511
1.00443e-08
251.33
8.45995e-09
251.924
6.32729e-09
252.549
2.97733e-09
7.13591e-10
243.566
4.92199e-05
237.207
4.57917e-05
238.253
1.84813e-06
239.156
2.62484e-06
240.081
3.8299e-07
240.973
8.61804e-08
241.88
4.76398e-08
242.757
6.22036e-09
243.647
3.76571e-09
244.509
1.09887e-08
245.383
1.2704e-08
246.232
1.43873e-08
247.088
1.48415e-08
247.926
1.44059e-08
248.766
1.31956e-08
249.591
1.14254e-08
250.418
9.41307e-09
251.016
6.9632e-09
251.646
3.32496e-09
7.73948e-10
242.557
6.17635e-05
236.14
5.74536e-05
237.193
2.35945e-06
238.11
3.59032e-06
239.041
4.89291e-07
239.943
1.50148e-07
240.858
7.25145e-08
241.742
8.74162e-09
242.64
2.31041e-08
243.51
1.80237e-08
244.39
1.96807e-08
245.248
1.9016e-08
246.111
1.83308e-08
246.956
1.6834e-08
247.805
1.48821e-08
248.635
1.2562e-08
249.47
1.01485e-08
250.072
7.40543e-09
250.707
3.57303e-09
8.24471e-10
241.449
6.50362e-05
234.986
5.87632e-05
236.053
1.522e-06
236.969
3.92535e-06
237.91
4.32922e-07
238.819
2.08e-07
239.743
2.20671e-08
240.636
3.91046e-08
241.541
2.44365e-08
242.421
2.88411e-08
243.308
2.54779e-08
244.175
2.36949e-08
245.047
2.13159e-08
245.899
1.88195e-08
246.755
1.61143e-08
247.594
1.32859e-08
248.435
1.05481e-08
249.045
7.63428e-09
249.685
3.72409e-09
8.37898e-10
240.21
6.10926e-05
233.689
5.53989e-05
234.765
1.27013e-06
235.693
4.08331e-06
236.646
5.99816e-07
237.565
1.6876e-07
238.499
1.38981e-07
239.402
3.3227e-08
240.318
5.07811e-08
241.205
3.48766e-08
242.103
3.22944e-08
242.977
2.7166e-08
243.858
2.36197e-08
244.719
2.00187e-08
245.584
1.66939e-08
246.431
1.34818e-08
247.281
1.05385e-08
247.897
7.54714e-09
248.543
3.7068e-09
8.27214e-10
238.811
4.79817e-05
232.21
4.16698e-05
233.299
2.32268e-07
234.245
2.70534e-06
235.208
1.50754e-07
236.136
2.07741e-07
237.081
4.42348e-08
237.995
7.39988e-08
238.92
5.06377e-08
239.82
4.56978e-08
240.728
3.61434e-08
241.613
2.98717e-08
242.504
2.45669e-08
243.376
2.02083e-08
244.251
1.64072e-08
245.108
1.29968e-08
245.967
1.00137e-08
246.591
7.12462e-09
247.244
3.52355e-09
7.71983e-10
237.188
5.49136e-05
230.5
5.17673e-05
231.6
2.90503e-06
232.566
3.98975e-06
233.539
9.61034e-07
234.484
9.839e-08
235.442
2.25929e-07
236.368
6.53523e-08
237.308
7.72767e-08
238.217
4.78604e-08
239.14
3.94586e-08
240.035
2.98456e-08
240.939
2.39236e-08
241.821
1.89873e-08
242.708
1.50893e-08
243.577
1.17485e-08
244.447
8.94425e-09
245.08
6.31126e-09
245.741
3.12966e-09
6.78524e-10
235.257
4.10483e-05
228.483
3.49296e-05
229.6
5.18459e-07
230.58
3.18345e-06
231.572
4.55563e-08
232.528
4.06946e-07
233.502
9.35178e-08
234.445
1.22394e-07
235.398
6.66208e-08
236.326
5.31602e-08
237.262
3.62953e-08
238.171
2.7553e-08
239.089
2.08699e-08
239.986
1.62471e-08
240.887
1.26216e-08
241.768
9.69189e-09
242.655
7.2997e-09
243.294
5.13434e-09
243.967
2.56176e-09
5.41266e-10
232.998
5.24674e-06
226.121
4.85134e-06
227.258
2.63517e-06
228.253
1.56355e-06
229.263
7.85487e-08
230.238
4.82465e-07
231.229
1.42165e-07
232.185
1.29963e-07
233.155
6.02413e-08
234.099
4.49403e-08
235.053
2.85854e-08
235.978
2.12533e-08
236.913
1.55537e-08
237.825
1.19017e-08
238.742
9.08652e-09
239.639
6.90943e-09
240.54
5.17864e-09
241.193
3.6604e-09
241.876
1.85017e-09
3.69576e-10
231.026
5.56171e-05
224.258
5.54799e-05
225.35
8.02152e-06
226.291
6.4903e-06
227.26
1.11233e-06
228.198
7.50883e-07
229.154
6.30644e-08
230.087
1.19425e-07
231.034
2.06082e-08
231.957
3.06342e-08
232.894
1.48126e-08
233.809
1.21667e-08
234.736
8.28146e-09
235.644
6.37727e-09
236.56
4.77012e-09
237.461
3.61358e-09
238.367
2.70078e-09
239.033
1.9344e-09
239.721
9.96343e-10
1.80607e-10
238.662
238.665
238.67
238.674
238.676
238.679
238.68
238.683
238.685
238.686
238.687
238.687
238.687
238.688
238.688
238.688
238.688
238.689
238.689
)
;

boundaryField
{
    movingWall
    {
        type            calculated;
        value           uniform 0;
    }
    fixedWalls
    {
        type            calculated;
        value           nonuniform List<scalar> 
60
(
250
250
250
250
250
250
250
250
250
250
250
250
250
250
250
250
250
250
250
250
250
250
250
250
250
250
250
250
250
250
250
250
250
250
250
250
250
250
250
250
0
0
0
0
0
0
0
0
0
0
0
0
0
0
0
0
0
0
0
0
)
;
    }
    frontAndBack
    {
        type            empty;
        value           nonuniform List<scalar> 0();
    }
}


// ************************************************************************* //
