/*--------------------------------*- C++ -*----------------------------------*\
| =========                 |                                                 |
| \\      /  F ield         | OpenFOAM: The Open Source CFD Toolbox           |
|  \\    /   O peration     | Version:  2312                                  |
|   \\  /    A nd           | Website:  www.openfoam.com                      |
|    \\/     M anipulation  |                                                 |
\*---------------------------------------------------------------------------*/
FoamFile
{
    version     2.0;
    format      ascii;
    arch        "LSB;label=32;scalar=64";
    class       surfaceScalarField;
    location    "3";
    object      phi;
}
// * * * * * * * * * * * * * * * * * * * * * * * * * * * * * * * * * * * * * //

dimensions      [0 3 -1 0 0 0 0];

oriented        oriented;

internalField   nonuniform List<scalar> 
760
(
-5e-05
2.64548e-14
-5e-05
-3.79177e-15
-5e-05
-4.41361e-15
-5e-05
-3.69401e-15
-5e-05
-3.30613e-15
-5e-05
-3.33273e-15
-5e-05
-2.53185e-15
-5e-05
-2.01622e-15
-5e-05
-1.49022e-15
-5e-05
-1.04227e-15
-5e-05
-6.81878e-16
-5e-05
-4.02339e-16
-5e-05
-1.98466e-16
-5e-05
-6.03932e-17
-5e-05
2.46237e-17
-5e-05
7.00141e-17
-5e-05
8.92053e-17
-5e-05
8.05856e-17
-5e-05
3.13091e-17
8.73724e-18
-5e-05
-5.50359e-14
-5e-05
1.28078e-13
-5e-05
-5.04142e-14
-5e-05
1.34656e-14
-5e-05
-1.53049e-14
-5e-05
-3.98134e-15
-5e-05
-6.24011e-15
-5e-05
-3.80846e-15
-5e-05
-3.04921e-15
-5e-05
-2.02384e-15
-5e-05
-1.32681e-15
-5e-05
-7.64232e-16
-5e-05
-3.64961e-16
-5e-05
-9.52889e-17
-5e-05
6.88222e-17
-5e-05
1.55239e-16
-5e-05
1.87669e-16
-5e-05
1.6575e-16
-5e-05
6.47069e-17
1.90723e-17
-5e-05
6.15122e-14
-5e-05
-9.59943e-15
-5e-05
2.2285e-14
-5e-05
-3.09653e-14
-5e-05
-7.21584e-15
-5e-05
-1.316e-14
-5e-05
-7.31899e-15
-5e-05
-6.3006e-15
-5e-05
-4.19375e-15
-5e-05
-2.93e-15
-5e-05
-1.82709e-15
-5e-05
-1.0374e-15
-5e-05
-4.58719e-16
-5e-05
-7.88094e-17
-5e-05
1.49706e-16
-5e-05
2.63872e-16
-5e-05
3.02464e-16
-5e-05
2.63975e-16
-5e-05
1.05719e-16
2.92295e-17
-5e-05
8.09074e-13
-5e-05
-6.95183e-13
-5e-05
1.73345e-14
-5e-05
-7.15634e-14
-5e-05
-1.41432e-14
-5e-05
-1.72462e-14
-5e-05
-9.8413e-15
-5e-05
-7.8115e-15
-5e-05
-5.17767e-15
-5e-05
-3.52847e-15
-5e-05
-2.14834e-15
-5e-05
-1.16431e-15
-5e-05
-4.50237e-16
-5e-05
1.11487e-17
-5e-05
2.81854e-16
-5e-05
4.09345e-16
-5e-05
4.39956e-16
-5e-05
3.72235e-16
-5e-05
1.53114e-16
4.24683e-17
-5e-05
-3.20303e-13
-5e-05
3.37312e-13
-5e-05
8.20395e-14
-5e-05
-3.92318e-14
-5e-05
-7.79424e-15
-5e-05
-2.25128e-14
-5e-05
-1.01662e-14
-5e-05
-9.07376e-15
-5e-05
-5.53545e-15
-5e-05
-3.81941e-15
-5e-05
-2.20691e-15
-5e-05
-1.11512e-15
-5e-05
-3.13044e-16
-5e-05
1.91177e-16
-5e-05
4.75964e-16
-5e-05
5.93423e-16
-5e-05
6.03016e-16
-5e-05
4.99889e-16
-5e-05
2.11852e-16
5.55751e-17
-5e-05
2.18675e-12
-5e-05
-2.05464e-12
-5e-05
7.34948e-14
-5e-05
-1.51883e-13
-5e-05
-6.22424e-15
-5e-05
-2.08678e-14
-5e-05
-9.74812e-15
-5e-05
-8.65585e-15
-5e-05
-5.52481e-15
-5e-05
-3.63675e-15
-5e-05
-2.00902e-15
-5e-05
-8.57852e-16
-5e-05
-3.76307e-17
-5e-05
4.68451e-16
-5e-05
7.35052e-16
-5e-05
8.22855e-16
-5e-05
7.92786e-16
-5e-05
6.38085e-16
-5e-05
2.77264e-16
7.23421e-17
-5e-05
-2.45834e-12
-5e-05
2.48763e-12
-5e-05
-6.99045e-14
-5e-05
1.05525e-13
-5e-05
-3.02742e-14
-5e-05
-1.02852e-14
-5e-05
-1.24606e-14
-5e-05
-7.40068e-15
-5e-05
-5.11157e-15
-5e-05
-3.03729e-15
-5e-05
-1.52752e-15
-5e-05
-3.98353e-16
-5e-05
3.77794e-16
-5e-05
8.41507e-16
-5e-05
1.05704e-15
-5e-05
1.08842e-15
-5e-05
1.00438e-15
-5e-05
7.93129e-16
-5e-05
3.53375e-16
8.83193e-17
-5e-05
4.0497e-12
-5e-05
-3.87538e-12
-5e-05
7.9147e-14
-5e-05
-2.24588e-13
-5e-05
5.82709e-16
-5e-05
-1.78711e-14
-5e-05
-6.46529e-15
-5e-05
-6.26857e-15
-5e-05
-3.8418e-15
-5e-05
-2.17017e-15
-5e-05
-7.71226e-16
-5e-05
2.40313e-16
-5e-05
9.20526e-16
-5e-05
1.29635e-15
-5e-05
1.43034e-15
-5e-05
1.38727e-15
-5e-05
1.23255e-15
-5e-05
9.50245e-16
-5e-05
4.31645e-16
1.07318e-16
-5e-05
-5.66417e-12
-5e-05
5.64304e-12
-5e-05
-2.23159e-13
-5e-05
3.02922e-13
-5e-05
-5.17903e-14
-5e-05
1.22715e-15
-5e-05
-1.18728e-14
-5e-05
-3.76601e-15
-5e-05
-2.79565e-15
-5e-05
-8.77875e-16
-5e-05
1.88855e-16
-5e-05
1.04052e-15
-5e-05
1.56355e-15
-5e-05
1.81455e-15
-5e-05
1.83896e-15
-5e-05
1.69909e-15
-5e-05
1.46426e-15
-5e-05
1.11209e-15
-5e-05
5.1495e-16
1.23803e-16
-5e-05
8.04896e-12
-5e-05
-7.91729e-12
-5e-05
3.12565e-13
-5e-05
-4.78687e-13
-5e-05
4.54042e-14
-5e-05
-2.5781e-14
-5e-05
1.72653e-15
-5e-05
-2.91239e-15
-5e-05
-1.28561e-16
-5e-05
3.987e-16
-5e-05
1.38123e-15
-5e-05
1.93585e-15
-5e-05
2.27874e-15
-5e-05
2.36454e-15
-5e-05
2.25846e-15
-5e-05
2.01213e-15
-5e-05
1.68856e-15
-5e-05
1.25922e-15
-5e-05
5.91445e-16
1.41309e-16
-5e-05
-9.81918e-12
-5e-05
9.70435e-12
-5e-05
-3.89219e-13
-5e-05
5.51371e-13
-5e-05
-8.00438e-14
-5e-05
1.7963e-14
-5e-05
-9.88242e-15
-5e-05
1.28678e-15
-5e-05
7.75488e-16
-5e-05
2.25651e-15
-5e-05
2.59764e-15
-5e-05
2.93329e-15
-5e-05
3.01364e-15
-5e-05
2.91663e-15
-5e-05
2.66125e-15
-5e-05
2.29749e-15
-5e-05
1.88581e-15
-5e-05
1.39091e-15
-5e-05
6.62933e-16
1.5382e-16
-5e-05
1.23705e-11
-5e-05
-1.22337e-11
-5e-05
4.99228e-13
-5e-05
-7.57661e-13
-5e-05
1.0273e-13
-5e-05
-3.14373e-14
-5e-05
1.51098e-14
-5e-05
1.81632e-15
-5e-05
4.77877e-15
-5e-05
3.7171e-15
-5e-05
4.04141e-15
-5e-05
3.89339e-15
-5e-05
3.73772e-15
-5e-05
3.42232e-15
-5e-05
3.01366e-15
-5e-05
2.53626e-15
-5e-05
2.04128e-15
-5e-05
1.48511e-15
-5e-05
7.15201e-16
1.645e-16
-5e-05
-1.30835e-11
-5e-05
1.25789e-11
-5e-05
-3.23696e-13
-5e-05
8.32634e-13
-5e-05
-9.13556e-14
-5e-05
4.37689e-14
-5e-05
-4.62094e-15
-5e-05
8.16493e-15
-5e-05
5.07886e-15
-5e-05
5.97651e-15
-5e-05
5.25669e-15
-5e-05
4.87406e-15
-5e-05
4.36658e-15
-5e-05
3.84349e-15
-5e-05
3.27801e-15
-5e-05
2.69443e-15
-5e-05
2.1311e-15
-5e-05
1.53772e-15
-5e-05
7.48694e-16
1.67902e-16
-5e-05
1.23517e-11
-5e-05
-1.19297e-11
-5e-05
2.71732e-13
-5e-05
-8.71201e-13
-5e-05
1.27302e-13
-5e-05
-3.57144e-14
-5e-05
2.9267e-14
-5e-05
6.97636e-15
-5e-05
1.06123e-14
-5e-05
7.26655e-15
-5e-05
6.6989e-15
-5e-05
5.61781e-15
-5e-05
4.86395e-15
-5e-05
4.10966e-15
-5e-05
3.41338e-15
-5e-05
2.74807e-15
-5e-05
2.13987e-15
-5e-05
1.52774e-15
-5e-05
7.48908e-16
1.66573e-16
-5e-05
-9.75686e-12
-5e-05
9.03521e-12
-5e-05
5.00337e-14
-5e-05
5.8109e-13
-5e-05
-3.22088e-14
-5e-05
4.42537e-14
-5e-05
9.37567e-15
-5e-05
1.56369e-14
-5e-05
1.06497e-14
-5e-05
9.58103e-15
-5e-05
7.54391e-15
-5e-05
6.21526e-15
-5e-05
5.08977e-15
-5e-05
4.17349e-15
-5e-05
3.37471e-15
-5e-05
2.66477e-15
-5e-05
2.04514e-15
-5e-05
1.45049e-15
-5e-05
7.15953e-16
1.5633e-16
-5e-05
1.12424e-11
-5e-05
-1.13167e-11
-5e-05
6.3082e-13
-5e-05
-8.63825e-13
-5e-05
2.06936e-13
-5e-05
-2.1123e-14
-5e-05
4.82526e-14
-5e-05
1.3915e-14
-5e-05
1.63735e-14
-5e-05
1.01091e-14
-5e-05
8.29593e-15
-5e-05
6.25495e-15
-5e-05
4.99186e-15
-5e-05
3.94916e-15
-5e-05
3.1253e-15
-5e-05
2.42553e-15
-5e-05
1.8392e-15
-5e-05
1.29361e-15
-5e-05
6.40197e-16
1.3832e-16
-5e-05
-8.47187e-12
-5e-05
7.71036e-12
-5e-05
-1.13654e-13
-5e-05
6.958e-13
-5e-05
-9.90084e-15
-5e-05
8.81746e-14
-5e-05
2.0155e-14
-5e-05
2.62959e-14
-5e-05
1.42414e-14
-5e-05
1.13277e-14
-5e-05
7.69715e-15
-5e-05
5.82432e-15
-5e-05
4.39167e-15
-5e-05
3.40773e-15
-5e-05
2.6359e-15
-5e-05
2.01743e-15
-5e-05
1.51323e-15
-5e-05
1.06086e-15
-5e-05
5.28222e-16
1.11213e-16
-5e-05
1.09243e-12
-5e-05
-1.08092e-12
-5e-05
-5.8308e-13
-5e-05
3.44955e-13
-5e-05
1.72326e-14
-5e-05
1.05522e-13
-5e-05
3.09294e-14
-5e-05
2.81851e-14
-5e-05
1.29992e-14
-5e-05
9.66585e-15
-5e-05
6.11898e-15
-5e-05
4.53435e-15
-5e-05
3.30338e-15
-5e-05
2.51921e-15
-5e-05
1.91503e-15
-5e-05
1.45125e-15
-5e-05
1.08321e-15
-5e-05
7.63034e-16
-5e-05
3.84878e-16
7.66024e-17
-5e-05
-1.16417e-11
-5e-05
1.20175e-11
-5e-05
-1.73141e-12
-5e-05
1.39883e-12
-5e-05
-2.39062e-13
-5e-05
1.61125e-13
-5e-05
-1.34967e-14
-5e-05
2.55169e-14
-5e-05
4.39218e-15
-5e-05
6.51811e-15
-5e-05
3.1442e-15
-5e-05
2.57818e-15
-5e-05
1.75091e-15
-5e-05
1.34598e-15
-5e-05
1.00461e-15
-5e-05
7.5971e-16
-5e-05
5.66629e-16
-5e-05
4.05133e-16
-5e-05
2.08453e-16
3.77173e-17
-5e-05
-5e-05
-5e-05
-5e-05
-5e-05
-5e-05
-5e-05
-5e-05
-5e-05
-5e-05
-5e-05
-5e-05
-5e-05
-5e-05
-5e-05
-5e-05
-5e-05
-5e-05
-5e-05
)
;

boundaryField
{
    movingWall
    {
        type            calculated;
        value           uniform 0;
    }
    fixedWalls
    {
        type            calculated;
        value           nonuniform List<scalar> 
60
(
5e-05
5e-05
5e-05
5e-05
5e-05
5e-05
5e-05
5e-05
5e-05
5e-05
5e-05
5e-05
5e-05
5e-05
5e-05
5e-05
5e-05
5e-05
5e-05
5e-05
-5e-05
-5e-05
-5e-05
-5e-05
-5e-05
-5e-05
-5e-05
-5e-05
-5e-05
-5e-05
-5e-05
-5e-05
-5e-05
-5e-05
-5e-05
-5e-05
-5e-05
-5e-05
-5e-05
-5e-05
0
0
0
0
0
0
0
0
0
0
0
0
0
0
0
0
0
0
0
0
)
;
    }
    frontAndBack
    {
        type            empty;
        value           nonuniform List<scalar> 0();
    }
}


// ************************************************************************* //
