/*--------------------------------*- C++ -*----------------------------------*\
| =========                 |                                                 |
| \\      /  F ield         | OpenFOAM: The Open Source CFD Toolbox           |
|  \\    /   O peration     | Version:  2312                                  |
|   \\  /    A nd           | Website:  www.openfoam.com                      |
|    \\/     M anipulation  |                                                 |
\*---------------------------------------------------------------------------*/
FoamFile
{
    version     2.0;
    format      ascii;
    arch        "LSB;label=32;scalar=64";
    class       volScalarField;
    location    "3";
    object      powk;
}
// * * * * * * * * * * * * * * * * * * * * * * * * * * * * * * * * * * * * * //

dimensions      [0 0.5 -0.5 0 0 0 0];

internalField   nonuniform List<scalar> 
400
(
2.54429
2.54429
2.54429
2.54429
2.54429
2.54429
2.54429
2.54429
2.54429
2.54429
2.54429
2.54429
2.54429
2.54429
2.54429
2.54429
2.54428
2.54428
2.54428
2.54428
2.55046
2.55046
2.55045
2.55045
2.55044
2.55044
2.55043
2.55043
2.55042
2.55042
2.55042
2.55041
2.55041
2.55041
2.55041
2.55041
2.5504
2.5504
2.5504
2.5504
2.55725
2.55725
2.55723
2.55722
2.55721
2.5572
2.55719
2.55718
2.55717
2.55717
2.55716
2.55716
2.55715
2.55715
2.55714
2.55714
2.55714
2.55714
2.55714
2.55714
2.56159
2.56158
2.56155
2.56154
2.56152
2.56151
2.5615
2.56149
2.56148
2.56147
2.56146
2.56145
2.56144
2.56144
2.56143
2.56143
2.56143
2.56142
2.56142
2.56142
2.56398
2.56397
2.56394
2.56393
2.5639
2.56389
2.56387
2.56386
2.56384
2.56383
2.56382
2.56381
2.5638
2.5638
2.56379
2.56378
2.56378
2.56378
2.56378
2.56378
2.56523
2.56523
2.56519
2.56518
2.56515
2.56514
2.56511
2.5651
2.56508
2.56507
2.56506
2.56505
2.56504
2.56503
2.56502
2.56502
2.56501
2.56501
2.56501
2.56501
2.56592
2.56592
2.56588
2.56586
2.56584
2.56582
2.5658
2.56578
2.56576
2.56575
2.56574
2.56573
2.56572
2.56571
2.5657
2.5657
2.56569
2.56569
2.56569
2.56569
2.56635
2.56634
2.5663
2.56629
2.56626
2.56624
2.56622
2.5662
2.56618
2.56617
2.56616
2.56615
2.56613
2.56613
2.56612
2.56611
2.56611
2.5661
2.5661
2.5661
2.56666
2.56665
2.56661
2.56659
2.56656
2.56655
2.56652
2.56651
2.56649
2.56647
2.56646
2.56645
2.56643
2.56643
2.56642
2.56641
2.56641
2.56641
2.5664
2.5664
2.56692
2.56691
2.56687
2.56685
2.56682
2.5668
2.56678
2.56676
2.56674
2.56673
2.56671
2.5667
2.56669
2.56668
2.56667
2.56667
2.56666
2.56666
2.56666
2.56666
2.56717
2.56716
2.56712
2.5671
2.56707
2.56705
2.56703
2.56701
2.56699
2.56698
2.56696
2.56695
2.56694
2.56693
2.56692
2.56691
2.56691
2.56691
2.5669
2.5669
2.56743
2.56742
2.56738
2.56736
2.56733
2.56731
2.56728
2.56727
2.56725
2.56724
2.56722
2.56721
2.56719
2.56719
2.56718
2.56717
2.56716
2.56716
2.56716
2.56716
2.56771
2.56771
2.56766
2.56764
2.56761
2.56759
2.56757
2.56755
2.56753
2.56752
2.5675
2.56749
2.56747
2.56747
2.56746
2.56745
2.56745
2.56744
2.56744
2.56744
2.56804
2.56803
2.56798
2.56796
2.56793
2.56791
2.56788
2.56787
2.56785
2.56783
2.56781
2.5678
2.56779
2.56778
2.56777
2.56777
2.56776
2.56776
2.56776
2.56775
2.5684
2.5684
2.56835
2.56833
2.56829
2.56828
2.56825
2.56823
2.56821
2.56819
2.56818
2.56816
2.56815
2.56814
2.56813
2.56813
2.56812
2.56812
2.56811
2.56811
2.56883
2.56882
2.56878
2.56875
2.56872
2.5687
2.56867
2.56865
2.56863
2.56862
2.5686
2.56858
2.56857
2.56856
2.56855
2.56854
2.56854
2.56854
2.56853
2.56853
2.56934
2.56933
2.56928
2.56926
2.56922
2.56921
2.56917
2.56916
2.56913
2.56912
2.5691
2.56909
2.56907
2.56906
2.56905
2.56904
2.56904
2.56903
2.56903
2.56903
2.56995
2.56994
2.56989
2.56986
2.56982
2.56981
2.56977
2.56976
2.56973
2.56971
2.56969
2.56968
2.56966
2.56965
2.56964
2.56964
2.56963
2.56963
2.56962
2.56962
2.57056
2.57056
2.5705
2.57048
2.57044
2.57042
2.57039
2.57038
2.57035
2.57033
2.57031
2.5703
2.57028
2.57027
2.57026
2.57026
2.57025
2.57025
2.57024
2.57024
2.57068
2.57068
2.57068
2.57068
2.57067
2.57067
2.57067
2.57067
2.57067
2.57067
2.57067
2.57067
2.57067
2.57067
2.57067
2.57067
2.57067
2.57067
2.57067
2.57067
)
;

boundaryField
{
    movingWall
    {
        type            calculated;
        value           nonuniform List<scalar> 
20
(
2.57068
2.57068
2.57068
2.57068
2.57067
2.57067
2.57067
2.57067
2.57067
2.57067
2.57067
2.57067
2.57067
2.57067
2.57067
2.57067
2.57067
2.57067
2.57067
2.57067
)
;
    }
    fixedWalls
    {
        type            calculated;
        value           nonuniform List<scalar> 
60
(
2.54429
2.55046
2.55725
2.56159
2.56398
2.56523
2.56592
2.56635
2.56666
2.56692
2.56717
2.56743
2.56771
2.56804
2.5684
2.56883
2.56934
2.56995
2.57056
2.57068
2.54428
2.5504
2.55714
2.56142
2.56378
2.56501
2.56569
2.5661
2.5664
2.56666
2.5669
2.56716
2.56744
2.56775
2.56811
2.56853
2.56903
2.56962
2.57024
2.57067
2.54429
2.54429
2.54429
2.54429
2.54429
2.54429
2.54429
2.54429
2.54429
2.54429
2.54429
2.54429
2.54429
2.54429
2.54429
2.54429
2.54428
2.54428
2.54428
2.54428
)
;
    }
    frontAndBack
    {
        type            empty;
    }
}


// ************************************************************************* //
