/*--------------------------------*- C++ -*----------------------------------*\
| =========                 |                                                 |
| \\      /  F ield         | OpenFOAM: The Open Source CFD Toolbox           |
|  \\    /   O peration     | Version:  2312                                  |
|   \\  /    A nd           | Website:  www.openfoam.com                      |
|    \\/     M anipulation  |                                                 |
\*---------------------------------------------------------------------------*/
FoamFile
{
    version     2.0;
    format      ascii;
    arch        "LSB;label=32;scalar=64";
    class       volScalarField;
    location    "3";
    object      QField;
}
// * * * * * * * * * * * * * * * * * * * * * * * * * * * * * * * * * * * * * //

dimensions      [0 0 -2 0 0 0 0];

internalField   nonuniform List<scalar> 
400
(
1.9866e-10
6.39933e-11
6.51757e-12
3.14199e-13
6.34699e-14
-1.95313e-15
1.06441e-15
-1.85412e-16
3.83059e-18
-1.76379e-17
-5.2501e-18
-2.61414e-18
-9.17205e-19
-3.46358e-19
-1.79084e-19
-1.47737e-19
-1.34684e-19
-8.5443e-20
-1.27241e-20
5.07756e-22
-2.20885e-10
-7.77631e-11
-6.53388e-12
-4.4474e-13
-3.57814e-14
-3.16034e-15
-1.73894e-16
-1.30271e-16
-3.09011e-17
-2.20981e-17
-8.06326e-18
-3.345e-18
-9.79428e-19
-2.64626e-19
-1.20117e-19
-1.40461e-19
-1.59578e-19
-1.07515e-19
-1.4799e-20
-1.51828e-21
1.91603e-10
2.88168e-11
3.48316e-12
-2.50982e-14
9.15741e-15
-2.61131e-15
8.11041e-17
-1.75505e-16
-2.98515e-17
-2.56335e-17
-9.33938e-18
-4.22281e-18
-1.54185e-18
-5.95083e-19
-3.16825e-19
-2.47048e-19
-2.15742e-19
-1.32171e-19
-1.76634e-20
-1.96337e-21
2.97311e-10
6.52963e-11
7.73221e-12
2.13634e-13
3.53224e-14
-7.0705e-16
1.33283e-16
-1.37021e-16
-4.45835e-17
-2.57358e-17
-1.18142e-17
-5.35351e-18
-2.38384e-18
-1.09481e-18
-6.10317e-19
-4.17655e-19
-3.03303e-19
-1.55315e-19
-2.30605e-20
-3.27102e-21
-2.03333e-11
-6.43044e-11
-2.93424e-12
-4.70468e-13
-5.93863e-14
-1.44522e-15
-1.06745e-15
-5.59233e-17
-7.57407e-17
-2.42339e-17
-1.49993e-17
-6.65733e-18
-3.43781e-18
-1.72002e-18
-9.92184e-19
-6.25802e-19
-4.14028e-19
-2.0896e-19
-3.18883e-20
-4.22846e-21
1.35556e-09
3.51289e-10
3.15722e-11
1.49571e-12
1.15615e-13
5.4955e-15
2.55975e-17
-4.49249e-17
-7.187e-17
-2.71222e-17
-1.71133e-17
-8.3669e-18
-4.52489e-18
-2.44614e-18
-1.41929e-18
-8.87656e-19
-5.48035e-19
-2.48806e-19
-4.29752e-20
-6.38115e-21
4.94063e-10
6.42701e-11
1.84654e-11
1.11549e-15
4.14721e-14
1.496e-16
-2.85659e-16
-1.13886e-16
-5.56889e-17
-3.47115e-17
-1.78067e-17
-1.02617e-17
-5.55636e-18
-3.19097e-18
-1.87314e-18
-1.1362e-18
-6.81894e-19
-3.23627e-19
-5.84665e-20
-7.66012e-21
9.41572e-10
1.70332e-10
3.49124e-11
6.2514e-13
1.13625e-13
4.38245e-15
2.95293e-16
-1.0006e-16
-5.51552e-17
-3.63306e-17
-1.98316e-17
-1.16144e-17
-6.55278e-18
-3.84875e-18
-2.28471e-18
-1.39768e-18
-8.13725e-19
-3.63611e-19
-7.23688e-20
-1.02193e-20
1.85569e-09
4.36027e-10
7.66633e-11
1.76788e-12
2.60675e-13
8.47464e-15
1.28115e-15
-2.21022e-16
-1.68407e-17
-4.66395e-17
-1.95984e-17
-1.31484e-17
-7.2814e-18
-4.40652e-18
-2.63892e-18
-1.5777e-18
-9.0958e-19
-4.34072e-19
-9.04035e-20
-1.11996e-20
1.37154e-09
1.92603e-10
9.63556e-11
2.50586e-13
3.00727e-13
1.09051e-14
-4.83447e-16
1.80454e-16
-1.26955e-16
-2.81996e-17
-2.59789e-17
-1.31003e-17
-8.06185e-18
-4.7531e-18
-2.88616e-18
-1.74025e-18
-9.85551e-19
-4.55992e-19
-1.00913e-19
-1.31753e-20
3.28749e-10
-9.22581e-11
1.25092e-10
-7.2967e-13
4.00832e-13
1.73237e-15
2.38986e-15
-5.13611e-16
5.18756e-17
-6.63342e-17
-1.97183e-17
-1.55081e-17
-8.20708e-18
-5.08967e-18
-3.064e-18
-1.81591e-18
-1.02004e-18
-5.07418e-19
-1.17123e-19
-1.298e-20
1.40669e-10
-2.41334e-10
1.85377e-10
-1.41864e-12
5.61289e-13
2.66616e-14
-2.41723e-15
6.068e-16
-2.60579e-16
-1.864e-17
-3.46122e-17
-1.42641e-17
-9.09203e-18
-5.27449e-18
-3.23875e-18
-1.9308e-18
-1.07824e-18
-5.35557e-19
-1.22719e-19
-1.2455e-20
-2.77824e-09
-1.43135e-09
1.58493e-10
-9.21035e-12
6.01247e-13
-3.29726e-14
4.61159e-15
-1.20775e-15
1.78985e-16
-1.07219e-16
-2.02255e-17
-1.92518e-17
-9.33952e-18
-5.85477e-18
-3.54326e-18
-2.09946e-18
-1.1632e-18
-6.07109e-19
-1.42889e-19
-1.01248e-20
-4.6967e-09
-1.51241e-09
6.41877e-11
-8.66479e-12
4.03416e-13
3.19219e-15
-7.21113e-15
1.23999e-15
-5.04106e-16
-1.51385e-17
-4.98274e-17
-1.87772e-17
-1.15951e-17
-6.78237e-18
-4.18215e-18
-2.48789e-18
-1.38863e-18
-7.29351e-19
-1.62827e-19
-7.39674e-21
-1.36525e-08
-3.19079e-09
-2.73372e-10
-1.46086e-11
-1.14335e-12
-1.17307e-13
4.93006e-15
-3.23779e-15
3.4151e-16
-1.97434e-16
-3.27635e-17
-2.93773e-17
-1.41676e-17
-8.76788e-18
-5.35594e-18
-3.17019e-18
-1.75876e-18
-9.1798e-19
-2.18632e-19
-7.94354e-21
7.97344e-09
3.29032e-09
2.90583e-10
1.93338e-11
1.36037e-12
1.6456e-13
-7.82183e-15
2.1639e-15
-6.52557e-16
-9.72731e-17
-7.55353e-17
-3.67775e-17
-1.98978e-17
-1.1983e-17
-7.20628e-18
-4.21833e-18
-2.3229e-18
-1.18629e-18
-2.80633e-19
-1.29859e-20
-4.76847e-08
-1.54195e-08
-1.40618e-09
-1.05147e-10
-7.08917e-12
-8.97888e-13
-1.87976e-14
-1.1664e-14
-3.06742e-19
-3.72754e-16
-9.34986e-17
-5.20882e-17
-2.82665e-17
-1.60064e-17
-9.64991e-18
-5.47588e-18
-2.97621e-18
-1.45396e-18
-3.57631e-19
-2.25993e-20
-3.99735e-08
-1.09452e-08
-1.25978e-09
-5.45959e-11
-8.17686e-12
-2.1494e-13
-8.18863e-14
7.31321e-16
-2.03836e-15
-1.61863e-16
-1.80531e-16
-6.39573e-17
-3.93376e-17
-2.1269e-17
-1.2667e-17
-7.11475e-18
-3.88701e-18
-1.85664e-18
-4.23044e-19
-2.21654e-20
6.74069e-08
2.22259e-08
1.83675e-09
1.12379e-10
8.55859e-12
5.18609e-13
-2.87402e-15
2.36345e-15
-2.13653e-15
-2.35052e-16
-2.28558e-16
-8.1186e-17
-4.95521e-17
-2.64973e-17
-1.55901e-17
-8.72427e-18
-4.80133e-18
-2.31536e-18
-5.31856e-19
-1.66878e-20
3.59766e-08
8.23226e-09
1.14789e-09
4.58292e-13
8.99927e-12
-9.36498e-13
1.51839e-13
-3.1291e-14
4.63918e-15
-1.23889e-15
1.22215e-16
-9.22535e-17
-1.88643e-17
-1.9677e-17
-1.03555e-17
-6.53702e-18
-3.87126e-18
-2.09177e-18
-5.53274e-19
-2.01699e-20
)
;

boundaryField
{
    movingWall
    {
        type            calculated;
        value           nonuniform List<scalar> 
20
(
-9.22182e-09
-4.59191e-09
4.52793e-09
-6.93619e-11
3.05661e-11
-1.57378e-12
4.04428e-13
-5.36366e-14
1.11509e-14
-1.86295e-15
4.28661e-16
-7.599e-17
1.23014e-17
-9.51684e-18
-4.20131e-18
-3.71863e-18
-2.5795e-18
-1.56486e-18
-4.62723e-19
-1.95297e-20
)
;
    }
    fixedWalls
    {
        type            calculated;
        value           nonuniform List<scalar> 
60
(
1.04522e-09
-1.16236e-09
1.00814e-09
1.52848e-09
-2.71859e-11
6.93827e-09
2.7201e-09
5.33039e-09
1.01172e-08
8.37637e-09
3.949e-09
3.91181e-09
-1.0797e-08
-2.15514e-08
-7.04242e-08
4.28271e-08
-2.54257e-07
-2.14825e-07
3.4676e-07
1.98721e-07
-1.43605e-21
-3.11104e-21
-3.44875e-21
-4.00906e-21
-4.45123e-21
-5.11218e-21
-5.49107e-21
-6.20075e-21
-6.52483e-21
-7.32542e-21
-7.53273e-21
-7.55451e-21
-6.84365e-21
-5.66034e-21
-6.04797e-21
-8.42192e-21
-1.27999e-20
-1.06406e-20
-3.82776e-21
-3.07073e-22
2.53224e-11
3.34319e-11
8.07213e-12
6.27536e-14
8.92461e-14
-8.38345e-15
2.05136e-15
-3.52437e-16
4.44149e-17
-1.72944e-17
-2.77022e-18
-2.39533e-18
-1.10058e-18
-5.82812e-19
-3.25025e-19
-2.0759e-19
-1.37981e-19
-6.61736e-20
-1.22016e-20
2.06102e-21
)
;
    }
    frontAndBack
    {
        type            empty;
    }
}


// ************************************************************************* //
