/*--------------------------------*- C++ -*----------------------------------*\
| =========                 |                                                 |
| \\      /  F ield         | OpenFOAM: The Open Source CFD Toolbox           |
|  \\    /   O peration     | Version:  2312                                  |
|   \\  /    A nd           | Website:  www.openfoam.com                      |
|    \\/     M anipulation  |                                                 |
\*---------------------------------------------------------------------------*/
FoamFile
{
    version     2.0;
    format      ascii;
    arch        "LSB;label=32;scalar=64";
    class       surfaceVectorField;
    location    "3";
    object      surfaceU;
}
// * * * * * * * * * * * * * * * * * * * * * * * * * * * * * * * * * * * * * //

dimensions      [0 1 -1 0 0 0 0];

internalField   nonuniform List<vector> 
760
(
(-1 1.32595e-07 0)
(-1 -4.39922e-09 0)
(-1 -3.17309e-08 0)
(-1 1.24164e-09 0)
(-1 7.52006e-09 0)
(-1 -3.69265e-10 0)
(-1 -1.85538e-09 0)
(-1 3.89385e-11 0)
(-1 4.08812e-10 0)
(-1 -1.0215e-10 0)
(-1 -1.34825e-10 0)
(-1 -5.24398e-11 0)
(-1 3.58493e-12 0)
(-1 -5.62655e-11 0)
(-1 -2.38852e-11 0)
(-1 -3.96489e-11 0)
(-1 -1.10768e-11 0)
(-1 -3.04905e-11 0)
(-1 -9.04054e-12 0)
(-1 -2.08315e-11 0)
(-1 -5.36128e-12 0)
(-1 -1.36853e-11 0)
(-1 -3.07116e-12 0)
(-1 -8.02213e-12 0)
(-1 -1.33103e-12 0)
(-1 -3.94563e-12 0)
(-1 -2.1974e-13 0)
(-1 -1.18122e-12 0)
(-1 4.48191e-13 0)
(-1 5.16666e-13 0)
(-1 7.87401e-13 0)
(-1 1.42889e-12 0)
(-1 8.28679e-13 0)
(-1 1.80442e-12 0)
(-1 5.43346e-13 0)
(-1 1.61308e-12 0)
(-1 2.0585e-13 0)
(-1 6.33409e-13 0)
(-1 1.89236e-13 0)
(-1 -1.35753e-07 0)
(-1 9.33746e-09 0)
(-1 3.26033e-08 0)
(-1 1.99573e-10 0)
(-1 -7.85039e-09 0)
(-1 -2.70135e-10 0)
(-1 1.79217e-09 0)
(-1 3.67935e-11 0)
(-1 -5.63403e-10 0)
(-1 -2.28415e-10 0)
(-1 2.61201e-11 0)
(-1 -1.10281e-10 0)
(-1 -9.94994e-11 0)
(-1 -1.17146e-10 0)
(-1 -4.62542e-11 0)
(-1 -7.95927e-11 0)
(-1 -4.02451e-11 0)
(-1 -6.03126e-11 0)
(-1 -2.54763e-11 0)
(-1 -4.07161e-11 0)
(-1 -1.63462e-11 0)
(-1 -2.6406e-11 0)
(-1 -8.8966e-12 0)
(-1 -1.5235e-11 0)
(-1 -3.79583e-12 0)
(-1 -7.23001e-12 0)
(-1 -4.44818e-13 0)
(-1 -1.85227e-12 0)
(-1 1.49737e-12 0)
(-1 1.41928e-12 0)
(-1 2.44591e-12 0)
(-1 3.12879e-12 0)
(-1 2.58883e-12 0)
(-1 3.78002e-12 0)
(-1 1.70315e-12 0)
(-1 3.35485e-12 0)
(-1 6.16795e-13 0)
(-1 1.31928e-12 0)
(-1 3.9152e-13 0)
(-1 1.4529e-07 0)
(-1 -1.23345e-08 0)
(-1 -3.26738e-08 0)
(-1 3.35267e-10 0)
(-1 7.61705e-09 0)
(-1 -4.91223e-10 0)
(-1 -1.98379e-09 0)
(-1 -4.54207e-10 0)
(-1 2.24706e-10 0)
(-1 -2.28369e-10 0)
(-1 -2.53547e-10 0)
(-1 -2.38556e-10 0)
(-1 -9.72389e-11 0)
(-1 -1.56207e-10 0)
(-1 -9.36511e-11 0)
(-1 -1.23317e-10 0)
(-1 -6.07836e-11 0)
(-1 -8.44798e-11 0)
(-1 -4.16459e-11 0)
(-1 -5.81714e-11 0)
(-1 -2.52948e-11 0)
(-1 -3.64437e-11 0)
(-1 -1.35684e-11 0)
(-1 -2.05976e-11 0)
(-1 -5.28645e-12 0)
(-1 -9.07656e-12 0)
(-1 1.18326e-14 0)
(-1 -1.49705e-12 0)
(-1 3.05071e-12 0)
(-1 3.05554e-12 0)
(-1 4.4629e-12 0)
(-1 5.3356e-12 0)
(-1 4.54605e-12 0)
(-1 6.08601e-12 0)
(-1 2.97099e-12 0)
(-1 5.28934e-12 0)
(-1 1.09401e-12 0)
(-1 2.12994e-12 0)
(-1 6.1487e-13 0)
(-1 -1.57289e-07 0)
(-1 3.38922e-08 0)
(-1 3.25179e-08 0)
(-1 -1.02794e-08 0)
(-1 -8.56248e-09 0)
(-1 1.76682e-09 0)
(-1 1.30121e-09 0)
(-1 -1.32507e-09 0)
(-1 -6.9163e-10 0)
(-1 -1.82205e-10 0)
(-1 -1.41215e-10 0)
(-1 -3.64106e-10 0)
(-1 -1.82285e-10 0)
(-1 -1.87519e-10 0)
(-1 -1.14146e-10 0)
(-1 -1.57683e-10 0)
(-1 -8.18676e-11 0)
(-1 -1.02212e-10 0)
(-1 -5.29691e-11 0)
(-1 -7.04122e-11 0)
(-1 -3.17465e-11 0)
(-1 -4.26504e-11 0)
(-1 -1.61058e-11 0)
(-1 -2.31269e-11 0)
(-1 -5.28717e-12 0)
(-1 -8.86852e-12 0)
(-1 1.54665e-12 0)
(-1 3.22442e-13 0)
(-1 5.34043e-12 0)
(-1 5.71271e-12 0)
(-1 6.95872e-12 0)
(-1 8.23105e-12 0)
(-1 6.82931e-12 0)
(-1 8.83998e-12 0)
(-1 4.44829e-12 0)
(-1 7.49861e-12 0)
(-1 1.6508e-12 0)
(-1 3.09995e-12 0)
(-1 8.6519e-13 0)
(-1 1.80902e-07 0)
(-1 -2.96077e-08 0)
(-1 -4.10305e-08 0)
(-1 -7.19596e-10 0)
(-1 9.00423e-09 0)
(-1 -3.94439e-10 0)
(-1 -2.80848e-09 0)
(-1 -1.24138e-09 0)
(-1 1.4532e-10 0)
(-1 -2.22264e-10 0)
(-1 -4.1041e-10 0)
(-1 -4.18253e-10 0)
(-1 -1.62918e-10 0)
(-1 -2.02068e-10 0)
(-1 -1.4575e-10 0)
(-1 -1.76958e-10 0)
(-1 -9.07569e-11 0)
(-1 -1.10571e-10 0)
(-1 -6.00935e-11 0)
(-1 -7.57252e-11 0)
(-1 -3.40309e-11 0)
(-1 -4.39278e-11 0)
(-1 -1.58896e-11 0)
(-1 -2.2081e-11 0)
(-1 -3.25891e-12 0)
(-1 -6.12248e-12 0)
(-1 4.4885e-12 0)
(-1 3.92875e-12 0)
(-1 8.60333e-12 0)
(-1 9.59654e-12 0)
(-1 1.01123e-11 0)
(-1 1.19418e-11 0)
(-1 9.50929e-12 0)
(-1 1.21083e-11 0)
(-1 6.15027e-12 0)
(-1 1.00089e-11 0)
(-1 2.31434e-12 0)
(-1 4.25189e-12 0)
(-1 1.14587e-12 0)
(-1 -2.11229e-07 0)
(-1 7.65809e-08 0)
(-1 3.99164e-08 0)
(-1 -1.95715e-08 0)
(-1 -1.064e-08 0)
(-1 3.96489e-09 0)
(-1 1.34484e-09 0)
(-1 -1.76088e-09 0)
(-1 -7.85837e-10 0)
(-1 -1.1204e-10 0)
(-1 -2.09911e-10 0)
(-1 -4.10376e-10 0)
(-1 -2.16108e-10 0)
(-1 -2.08219e-10 0)
(-1 -1.41779e-10 0)
(-1 -1.734e-10 0)
(-1 -9.55388e-11 0)
(-1 -1.1039e-10 0)
(-1 -5.95595e-11 0)
(-1 -7.2353e-11 0)
(-1 -3.1978e-11 0)
(-1 -3.99194e-11 0)
(-1 -1.23139e-11 0)
(-1 -1.69748e-11 0)
(-1 1.06518e-12 0)
(-1 -6.15742e-13 0)
(-1 9.03679e-12 0)
(-1 9.47438e-12 0)
(-1 1.2935e-11 0)
(-1 1.47795e-11 0)
(-1 1.39378e-11 0)
(-1 1.6498e-11 0)
(-1 1.26079e-11 0)
(-1 1.58918e-11 0)
(-1 8.11054e-12 0)
(-1 1.28156e-11 0)
(-1 3.08343e-12 0)
(-1 5.58209e-12 0)
(-1 1.45601e-12 0)
(-1 2.68239e-07 0)
(-1 -8.59706e-08 0)
(-1 -5.5523e-08 0)
(-1 1.65977e-08 0)
(-1 1.28441e-08 0)
(-1 -4.5496e-09 0)
(-1 -3.21775e-09 0)
(-1 3.53905e-10 0)
(-1 2.63421e-10 0)
(-1 -5.39354e-10 0)
(-1 -4.08685e-10 0)
(-1 -2.51357e-10 0)
(-1 -1.65511e-10 0)
(-1 -2.18691e-10 0)
(-1 -1.42011e-10 0)
(-1 -1.4937e-10 0)
(-1 -8.72045e-11 0)
(-1 -1.00663e-10 0)
(-1 -5.27128e-11 0)
(-1 -6.08904e-11 0)
(-1 -2.49162e-11 0)
(-1 -3.03377e-11 0)
(-1 -5.27668e-12 0)
(-1 -7.84907e-12 0)
(-1 7.79346e-12 0)
(-1 7.66997e-12 0)
(-1 1.52171e-11 0)
(-1 1.69092e-11 0)
(-1 1.83425e-11 0)
(-1 2.12009e-11 0)
(-1 1.8452e-11 0)
(-1 2.18297e-11 0)
(-1 1.60995e-11 0)
(-1 2.01249e-11 0)
(-1 1.02872e-11 0)
(-1 1.58582e-11 0)
(-1 3.95467e-12 0)
(-1 7.06632e-12 0)
(-1 1.78947e-12 0)
(-1 -3.37612e-07 0)
(-1 1.32613e-07 0)
(-1 6.75712e-08 0)
(-1 -2.68008e-08 0)
(-1 -1.70398e-08 0)
(-1 5.67487e-09 0)
(-1 3.03231e-09 0)
(-1 -1.4922e-09 0)
(-1 -1.05413e-09 0)
(-1 -9.43117e-11 0)
(-1 -6.13628e-11 0)
(-1 -2.72761e-10 0)
(-1 -2.02551e-10 0)
(-1 -1.78639e-10 0)
(-1 -1.08022e-10 0)
(-1 -1.22827e-10 0)
(-1 -7.43486e-11 0)
(-1 -7.96704e-11 0)
(-1 -3.85153e-11 0)
(-1 -4.27236e-11 0)
(-1 -1.32705e-11 0)
(-1 -1.54462e-11 0)
(-1 5.09759e-12 0)
(-1 4.93706e-12 0)
(-1 1.67858e-11 0)
(-1 1.84772e-11 0)
(-1 2.2893e-11 0)
(-1 2.59938e-11 0)
(-1 2.46881e-11 0)
(-1 2.86533e-11 0)
(-1 2.35026e-11 0)
(-1 2.77577e-11 0)
(-1 1.98836e-11 0)
(-1 2.46611e-11 0)
(-1 1.26373e-11 0)
(-1 1.90388e-11 0)
(-1 4.90112e-12 0)
(-1 8.65176e-12 0)
(-1 2.13423e-12 0)
(-1 4.43424e-07 0)
(-1 -1.75054e-07 0)
(-1 -8.86971e-08 0)
(-1 3.83174e-08 0)
(-1 2.12224e-08 0)
(-1 -9.47591e-09 0)
(-1 -4.61882e-09 0)
(-1 1.69443e-09 0)
(-1 6.87059e-10 0)
(-1 -7.18657e-10 0)
(-1 -3.90037e-10 0)
(-1 -7.89999e-11 0)
(-1 -9.89152e-11 0)
(-1 -1.55699e-10 0)
(-1 -9.4475e-11 0)
(-1 -8.12225e-11 0)
(-1 -4.80455e-11 0)
(-1 -5.0409e-11 0)
(-1 -1.96546e-11 0)
(-1 -1.87206e-11 0)
(-1 2.76129e-12 0)
(-1 4.04935e-12 0)
(-1 1.83166e-11 0)
(-1 2.07619e-11 0)
(-1 2.76852e-11 0)
(-1 3.13339e-11 0)
(-1 3.17541e-11 0)
(-1 3.63123e-11 0)
(-1 3.17229e-11 0)
(-1 3.6796e-11 0)
(-1 2.89161e-11 0)
(-1 3.40068e-11 0)
(-1 2.38163e-11 0)
(-1 2.92918e-11 0)
(-1 1.50533e-11 0)
(-1 2.22062e-11 0)
(-1 5.88487e-12 0)
(-1 1.02672e-11 0)
(-1 2.47228e-12 0)
(-1 -5.80161e-07 0)
(-1 2.32808e-07 0)
(-1 1.17539e-07 0)
(-1 -5.42964e-08 0)
(-1 -2.90039e-08 0)
(-1 1.22329e-08 0)
(-1 5.59459e-09 0)
(-1 -3.2061e-09 0)
(-1 -1.48472e-09 0)
(-1 4.48553e-10 0)
(-1 1.55338e-10 0)
(-1 -2.84741e-10 0)
(-1 -1.38006e-10 0)
(-1 -4.68586e-11 0)
(-1 -3.71566e-11 0)
(-1 -5.00219e-11 0)
(-1 -2.10841e-11 0)
(-1 -1.16917e-11 0)
(-1 4.98338e-12 0)
(-1 9.58791e-12 0)
(-1 2.20499e-11 0)
(-1 2.71969e-11 0)
(-1 3.37791e-11 0)
(-1 3.88907e-11 0)
(-1 3.99609e-11 0)
(-1 4.55564e-11 0)
(-1 4.13541e-11 0)
(-1 4.73108e-11 0)
(-1 3.908e-11 0)
(-1 4.51649e-11 0)
(-1 3.43825e-11 0)
(-1 4.02099e-11 0)
(-1 2.76817e-11 0)
(-1 3.37391e-11 0)
(-1 1.74201e-11 0)
(-1 2.51822e-11 0)
(-1 6.85461e-12 0)
(-1 1.18152e-11 0)
(-1 2.78065e-12 0)
(-0.999999 7.58673e-07 0)
(-1 -2.66488e-07 0)
(-1 -1.59602e-07 0)
(-1 5.98196e-08 0)
(-1 3.80308e-08 0)
(-1 -1.4771e-08 0)
(-1 -8.35214e-09 0)
(-1 2.90552e-09 0)
(-1 1.64853e-09 0)
(-1 -8.65321e-10 0)
(-1 -4.86938e-10 0)
(-1 9.88634e-11 0)
(-1 4.11259e-11 0)
(-1 -5.24481e-11 0)
(-1 -2.4557e-11 0)
(-1 1.61737e-11 0)
(-1 1.89804e-11 0)
(-1 2.69894e-11 0)
(-1 3.18015e-11 0)
(-1 4.291e-11 0)
(-1 4.40377e-11 0)
(-1 5.26576e-11 0)
(-1 5.06681e-11 0)
(-1 5.84427e-11 0)
(-1 5.29063e-11 0)
(-1 6.03224e-11 0)
(-1 5.11216e-11 0)
(-1 5.82934e-11 0)
(-1 4.62949e-11 0)
(-1 5.31919e-11 0)
(-1 3.95665e-11 0)
(-1 4.59249e-11 0)
(-1 3.12396e-11 0)
(-1 3.76795e-11 0)
(-1 1.95772e-11 0)
(-1 2.7742e-11 0)
(-1 7.7412e-12 0)
(-1 1.31864e-11 0)
(-1 3.03382e-12 0)
(-1 -9.65342e-07 0)
(-1 2.9738e-07 0)
(-1 2.04651e-07 0)
(-1 -7.56112e-08 0)
(-1 -4.98962e-08 0)
(-1 1.8116e-08 0)
(-1 1.03923e-08 0)
(-1 -4.40965e-09 0)
(-1 -2.41499e-09 0)
(-1 1.11678e-09 0)
(-1 5.33353e-10 0)
(-1 -2.1911e-10 0)
(-1 -7.74004e-11 0)
(-1 1.20185e-10 0)
(-1 6.772e-11 0)
(-1 5.06411e-11 0)
(-1 5.0919e-11 0)
(-1 7.86718e-11 0)
(-1 6.37661e-11 0)
(-1 7.73639e-11 0)
(-1 6.70626e-11 0)
(-1 7.99159e-11 0)
(-1 6.8097e-11 0)
(-1 7.82448e-11 0)
(-1 6.57095e-11 0)
(-1 7.46787e-11 0)
(-1 6.03637e-11 0)
(-1 6.84322e-11 0)
(-1 5.28219e-11 0)
(-1 6.02094e-11 0)
(-1 4.40379e-11 0)
(-1 5.0637e-11 0)
(-1 3.41818e-11 0)
(-1 4.07378e-11 0)
(-1 2.13512e-11 0)
(-1 2.96498e-11 0)
(-1 8.47906e-12 0)
(-1 1.42482e-11 0)
(-1 3.2054e-12 0)
(-0.999999 1.18711e-06 0)
(-1 -1.93177e-07 0)
(-1 -2.62146e-07 0)
(-1 6.15434e-08 0)
(-1 6.36025e-08 0)
(-1 -1.34872e-08 0)
(-1 -1.36852e-08 0)
(-1 4.00695e-09 0)
(-1 3.31265e-09 0)
(-1 -7.71518e-10 0)
(-1 -6.32278e-10 0)
(-1 3.25053e-10 0)
(-1 2.48226e-10 0)
(-1 8.03312e-11 0)
(-1 6.15928e-11 0)
(-1 1.38301e-10 0)
(-1 1.05117e-10 0)
(-1 1.2282e-10 0)
(-1 9.35136e-11 0)
(-1 1.16112e-10 0)
(-1 9.10981e-11 0)
(-1 1.06755e-10 0)
(-1 8.48265e-11 0)
(-1 9.71354e-11 0)
(-1 7.74014e-11 0)
(-1 8.74021e-11 0)
(-1 6.82779e-11 0)
(-1 7.67504e-11 0)
(-1 5.80245e-11 0)
(-1 6.54564e-11 0)
(-1 4.73369e-11 0)
(-1 5.37914e-11 0)
(-1 3.62058e-11 0)
(-1 4.25289e-11 0)
(-1 2.25467e-11 0)
(-1 3.06351e-11 0)
(-1 8.97452e-12 0)
(-1 1.48608e-11 0)
(-1 3.27195e-12 0)
(-1 -1.31874e-06 0)
(-1 1.2786e-07 0)
(-1 3.10202e-07 0)
(-1 -4.50656e-08 0)
(-1 -7.30828e-08 0)
(-1 1.06569e-08 0)
(-1 1.69206e-08 0)
(-1 -3.8274e-09 0)
(-1 -3.75912e-09 0)
(-1 1.21098e-09 0)
(-1 1.03766e-09 0)
(-1 -1.17178e-10 0)
(-1 -2.95943e-11 0)
(-1 3.23128e-10 0)
(-1 1.99528e-10 0)
(-1 1.74207e-10 0)
(-1 1.33816e-10 0)
(-1 1.88162e-10 0)
(-1 1.29354e-10 0)
(-1 1.51201e-10 0)
(-1 1.12793e-10 0)
(-1 1.32766e-10 0)
(-1 9.9711e-11 0)
(-1 1.12938e-10 0)
(-1 8.67511e-11 0)
(-1 9.70593e-11 0)
(-1 7.39289e-11 0)
(-1 8.20798e-11 0)
(-1 6.12233e-11 0)
(-1 6.8099e-11 0)
(-1 4.89834e-11 0)
(-1 5.47983e-11 0)
(-1 3.69582e-11 0)
(-1 4.26464e-11 0)
(-1 2.29492e-11 0)
(-1 3.04444e-11 0)
(-1 9.15823e-12 0)
(-1 1.48777e-11 0)
(-1 3.21258e-12 0)
(-0.999999 1.40154e-06 0)
(-1 -6.41269e-08 0)
(-1 -3.44611e-07 0)
(-1 5.45434e-09 0)
(-1 7.99123e-08 0)
(-1 -1.25551e-09 0)
(-1 -1.95371e-08 0)
(-1 -3.50371e-10 0)
(-1 4.85292e-09 0)
(-1 5.94711e-10 0)
(-1 -8.31713e-10 0)
(-1 2.50202e-10 0)
(-1 5.2693e-10 0)
(-1 3.91108e-10 0)
(-1 1.62841e-10 0)
(-1 2.72294e-10 0)
(-1 2.05547e-10 0)
(-1 2.42094e-10 0)
(-1 1.54612e-10 0)
(-1 1.86787e-10 0)
(-1 1.32911e-10 0)
(-1 1.52857e-10 0)
(-1 1.10286e-10 0)
(-1 1.23544e-10 0)
(-1 9.23879e-11 0)
(-1 1.0165e-10 0)
(-1 7.62499e-11 0)
(-1 8.31399e-11 0)
(-1 6.16741e-11 0)
(-1 6.72518e-11 0)
(-1 4.84614e-11 0)
(-1 5.30896e-11 0)
(-1 3.61326e-11 0)
(-1 4.07307e-11 0)
(-1 2.2373e-11 0)
(-1 2.88398e-11 0)
(-1 8.93205e-12 0)
(-1 1.41715e-11 0)
(-1 3.01035e-12 0)
(-1 -1.46021e-06 0)
(-1 6.88547e-08 0)
(-1 3.4881e-07 0)
(-1 -4.54939e-08 0)
(-1 -8.15181e-08 0)
(-1 1.25487e-08 0)
(-1 1.97814e-08 0)
(-1 -4.21787e-09 0)
(-1 -4.00801e-09 0)
(-1 2.26516e-09 0)
(-1 1.47302e-09 0)
(-1 1.31085e-10 0)
(-1 1.36472e-10 0)
(-1 6.70319e-10 0)
(-1 3.51546e-10 0)
(-1 3.36131e-10 0)
(-1 2.23334e-10 0)
(-1 3.01712e-10 0)
(-1 1.85032e-10 0)
(-1 2.08694e-10 0)
(-1 1.43491e-10 0)
(-1 1.63122e-10 0)
(-1 1.14908e-10 0)
(-1 1.24872e-10 0)
(-1 9.24019e-11 0)
(-1 9.89971e-11 0)
(-1 7.41417e-11 0)
(-1 7.85196e-11 0)
(-1 5.86673e-11 0)
(-1 6.21063e-11 0)
(-1 4.53589e-11 0)
(-1 4.82059e-11 0)
(-1 3.34379e-11 0)
(-1 3.65481e-11 0)
(-1 2.06384e-11 0)
(-1 2.57188e-11 0)
(-1 8.24985e-12 0)
(-1 1.26873e-11 0)
(-1 2.64489e-12 0)
(-0.999999 1.48357e-06 0)
(-0.999999 -5.24879e-08 0)
(-1 -3.81755e-07 0)
(-1 1.94195e-08 0)
(-1 8.98489e-08 0)
(-1 -1.59066e-09 0)
(-1 -2.17341e-08 0)
(-1 3.90593e-09 0)
(-1 6.40425e-09 0)
(-1 1.04889e-09 0)
(-1 -6.71619e-10 0)
(-1 1.24008e-09 0)
(-1 8.69978e-10 0)
(-1 6.31976e-10 0)
(-1 2.86296e-10 0)
(-1 4.8213e-10 0)
(-1 2.87071e-10 0)
(-1 3.01412e-10 0)
(-1 1.86784e-10 0)
(-1 2.17253e-10 0)
(-1 1.44504e-10 0)
(-1 1.52981e-10 0)
(-1 1.08961e-10 0)
(-1 1.14589e-10 0)
(-1 8.51147e-11 0)
(-1 8.71058e-11 0)
(-1 6.64841e-11 0)
(-1 6.75842e-11 0)
(-1 5.16449e-11 0)
(-1 5.23825e-11 0)
(-1 3.9395e-11 0)
(-1 4.01352e-11 0)
(-1 2.8829e-11 0)
(-1 3.0149e-11 0)
(-1 1.77677e-11 0)
(-1 2.11216e-11 0)
(-1 7.08239e-12 0)
(-1 1.04492e-11 0)
(-1 2.10854e-12 0)
(-1 -1.51664e-06 0)
(-1 -5.9109e-08 0)
(-1 3.99584e-07 0)
(-1 8.05656e-08 0)
(-1 -8.75337e-08 0)
(-1 -1.4809e-08 0)
(-1 2.66889e-08 0)
(-1 1.38063e-08 0)
(-1 -4.11527e-09 0)
(-1 -8.78308e-10 0)
(-1 2.54368e-09 0)
(-1 2.45098e-09 0)
(-1 2.44128e-10 0)
(-1 3.47883e-10 0)
(-1 4.97246e-10 0)
(-1 5.63791e-10 0)
(-1 2.31594e-10 0)
(-1 2.29555e-10 0)
(-1 1.8345e-10 0)
(-1 1.92203e-10 0)
(-1 1.23066e-10 0)
(-1 1.1838e-10 0)
(-1 9.27345e-11 0)
(-1 8.96238e-11 0)
(-1 6.95752e-11 0)
(-1 6.5142e-11 0)
(-1 5.34825e-11 0)
(-1 4.99448e-11 0)
(-1 4.08727e-11 0)
(-1 3.80209e-11 0)
(-1 3.08891e-11 0)
(-1 2.88631e-11 0)
(-1 2.24416e-11 0)
(-1 2.1532e-11 0)
(-1 1.38031e-11 0)
(-1 1.51349e-11 0)
(-1 5.47534e-12 0)
(-1 7.59151e-12 0)
(-1 1.43956e-12 0)
(-0.999999 1.5381e-06 0)
(-1 -7.24699e-08 0)
(-1 -3.33827e-07 0)
(-1 1.22234e-07 0)
(-1 8.6531e-08 0)
(-1 -2.75585e-08 0)
(-1 -1.3761e-08 0)
(-1 1.82423e-08 0)
(-1 5.68795e-09 0)
(-1 -3.29615e-09 0)
(-1 2.55189e-10 0)
(-1 2.58989e-09 0)
(-1 6.67547e-10 0)
(-1 -1.12816e-10 0)
(-1 2.961e-10 0)
(-1 4.52837e-10 0)
(-1 1.90163e-10 0)
(-1 9.95398e-11 0)
(-1 1.27133e-10 0)
(-1 1.21231e-10 0)
(-1 8.49371e-11 0)
(-1 6.21137e-11 0)
(-1 6.20313e-11 0)
(-1 4.98415e-11 0)
(-1 4.55116e-11 0)
(-1 3.43888e-11 0)
(-1 3.44831e-11 0)
(-1 2.63859e-11 0)
(-1 2.60112e-11 0)
(-1 1.97567e-11 0)
(-1 1.9506e-11 0)
(-1 1.49116e-11 0)
(-1 1.42253e-11 0)
(-1 1.10947e-11 0)
(-1 8.92335e-12 0)
(-1 7.94671e-12 0)
(-1 3.55573e-12 0)
(-1 4.10694e-12 0)
(-1 7.19016e-13 0)
(-1 -1.48833e-06 0)
(-1 4.28502e-07 0)
(-1 -9.58471e-08 0)
(-1 2.87072e-08 0)
(-1 -6.39422e-09 0)
(-1 2.22188e-09 0)
(-1 -3.27525e-10 0)
(-1 2.56277e-10 0)
(-1 3.06075e-11 0)
(-1 5.6212e-11 0)
(-1 2.70181e-11 0)
(-1 2.2199e-11 0)
(-1 1.52631e-11 0)
(-1 1.16594e-11 0)
(-1 8.65699e-12 0)
(-1 6.50027e-12 0)
(-1 4.81611e-12 0)
(-1 3.13029e-12 0)
(-1 1.27022e-12 0)
)
;

boundaryField
{
    movingWall
    {
        type            calculated;
        value           uniform (-1 -0 -0);
    }
    fixedWalls
    {
        type            calculated;
        value           uniform (-1 -0 -0);
    }
    frontAndBack
    {
        type            empty;
        value           nonuniform List<vector> 0();
    }
}


// ************************************************************************* //
