/*--------------------------------*- C++ -*----------------------------------*\
| =========                 |                                                 |
| \\      /  F ield         | OpenFOAM: The Open Source CFD Toolbox           |
|  \\    /   O peration     | Version:  2312                                  |
|   \\  /    A nd           | Website:  www.openfoam.com                      |
|    \\/     M anipulation  |                                                 |
\*---------------------------------------------------------------------------*/
FoamFile
{
    version     2.0;
    format      ascii;
    arch        "LSB;label=32;scalar=64";
    class       surfaceScalarField;
    location    "3";
    object      surfaceK;
}
// * * * * * * * * * * * * * * * * * * * * * * * * * * * * * * * * * * * * * //

dimensions      [0 2 -2 0 0 0 0];

internalField   nonuniform List<scalar> 
760
(
6.15596e-05
8.26515e-05
6.15564e-05
8.26468e-05
6.15542e-05
8.26051e-05
6.15518e-05
8.25871e-05
6.15498e-05
8.25575e-05
6.15478e-05
8.25417e-05
6.15462e-05
8.25168e-05
6.15447e-05
8.25032e-05
6.15433e-05
8.24821e-05
6.15424e-05
8.24711e-05
6.15412e-05
8.24538e-05
6.15406e-05
8.2445e-05
6.15397e-05
8.2432e-05
6.15393e-05
8.2425e-05
6.15388e-05
8.24163e-05
6.15385e-05
8.24112e-05
6.15382e-05
8.24062e-05
6.15381e-05
8.24035e-05
6.1538e-05
8.24017e-05
8.2401e-05
0.000103739
0.000137796
0.000103695
0.000137783
0.000103638
0.000137631
0.000103593
0.000137567
0.000103549
0.000137462
0.000103511
0.000137404
0.000103474
0.000137315
0.000103441
0.000137264
0.00010341
0.000137192
0.000103383
0.000137148
0.000103358
0.00013709
0.000103336
0.000137054
0.000103317
0.00013701
0.000103302
0.000136982
0.000103289
0.000136952
0.000103279
0.000136933
0.000103272
0.000136915
0.000103267
0.000136905
0.000103265
0.000136899
0.000136896
0.000171841
0.000201004
0.000171719
0.000200978
0.00017156
0.000200656
0.000171436
0.000200529
0.000171317
0.000200305
0.000171209
0.00020019
0.000171106
0.000199998
0.000171015
0.0001999
0.00017093
0.00019974
0.000170855
0.000199656
0.000170786
0.000199529
0.000170728
0.00019946
0.000170675
0.000199362
0.000170632
0.00019931
0.000170596
0.000199242
0.000170569
0.000199205
0.000170548
0.000199167
0.000170536
0.000199147
0.00017053
0.000199133
0.000199128
0.000230141
0.000249103
0.000229915
0.000249061
0.000229624
0.000248567
0.000229397
0.000248369
0.000229178
0.000248026
0.000228979
0.000247848
0.000228791
0.000247554
0.000228624
0.000247402
0.000228467
0.000247154
0.00022833
0.000247026
0.000228203
0.000246831
0.000228095
0.000246723
0.000227997
0.000246575
0.00022792
0.000246493
0.000227852
0.000246389
0.000227804
0.000246332
0.000227765
0.000246273
0.000227744
0.000246241
0.000227732
0.000246222
0.000246212
0.000268023
0.000278889
0.000267713
0.000278833
0.000267311
0.000278209
0.000266998
0.000277958
0.000266696
0.000277525
0.000266422
0.000277298
0.000266164
0.00027693
0.000265932
0.000276735
0.000265714
0.000276423
0.000265526
0.000276262
0.000265351
0.000276011
0.000265203
0.00027588
0.00026507
0.000275689
0.000264962
0.000275587
0.00026487
0.000275456
0.000264801
0.000275383
0.000264749
0.000275309
0.000264719
0.000275269
0.000264702
0.000275244
0.000275233
0.000289699
0.000295964
0.000289329
0.0002959
0.000288856
0.000295189
0.000288485
0.000294908
0.000288128
0.000294414
0.000287805
0.000294159
0.0002875
0.000293739
0.000287226
0.000293521
0.000286971
0.000293165
0.000286746
0.000292987
0.00028654
0.000292695
0.000286365
0.000292553
0.000286205
0.00029233
0.000286081
0.00029222
0.00028597
0.000292068
0.000285891
0.000291988
0.000285829
0.000291903
0.000285794
0.000291858
0.000285775
0.00029183
0.000291817
0.000302165
0.000306128
0.00030176
0.000306057
0.000301242
0.000305295
0.000300837
0.000304989
0.000300446
0.000304464
0.000300093
0.000304187
0.000299759
0.000303736
0.000299459
0.0003035
0.00029918
0.000303122
0.000298935
0.000302924
0.000298708
0.000302621
0.000298519
0.000302458
0.000298345
0.000302231
0.000298207
0.000302102
0.000298087
0.000301947
0.000298
0.000301856
0.000297933
0.000301767
0.000297894
0.000301718
0.000297873
0.000301687
0.000301674
0.00031002
0.000312947
0.000309592
0.000312872
0.000309042
0.000312071
0.000308617
0.000311755
0.000308205
0.000311197
0.000307831
0.000310912
0.000307477
0.000310436
0.000307162
0.000310191
0.000306866
0.000309796
0.00030661
0.000309587
0.000306371
0.000309272
0.00030617
0.0003091
0.000305988
0.000308862
0.000305842
0.00030873
0.000305716
0.000308562
0.000305623
0.000308473
0.000305552
0.000308374
0.000305511
0.000308327
0.000305488
0.000308293
0.000308279
0.000315798
0.000318318
0.000315351
0.00031824
0.000314784
0.000317409
0.000314335
0.000317084
0.000313904
0.000316504
0.000313518
0.000316209
0.00031315
0.000315716
0.000312824
0.00031546
0.000312517
0.000315053
0.000312249
0.000314835
0.000312001
0.00031451
0.000311792
0.000314332
0.000311604
0.000314084
0.000311451
0.000313949
0.000311319
0.000313774
0.000311224
0.000313683
0.000311149
0.000313579
0.000311109
0.000313531
0.000311084
0.000313496
0.000313482
0.00032076
0.000323217
0.000320299
0.000323137
0.000319709
0.000322278
0.000319252
0.000321942
0.000318809
0.000321344
0.000318407
0.00032104
0.000318027
0.00032053
0.000317689
0.000320267
0.000317371
0.000319846
0.000317096
0.000319621
0.00031684
0.000319287
0.000316624
0.000319101
0.000316429
0.000318849
0.000316272
0.000318705
0.000316137
0.00031853
0.000316038
0.000318431
0.000315962
0.000318328
0.000315918
0.000318275
0.000315894
0.000318241
0.000318226
0.000325594
0.000328185
0.000325116
0.000328101
0.000324511
0.000327216
0.000324035
0.000326874
0.000323575
0.000326245
0.000323163
0.000325942
0.00032277
0.000325405
0.000322423
0.000325145
0.000322096
0.0003247
0.000321812
0.000324479
0.000321548
0.000324123
0.000321326
0.000323944
0.000321125
0.000323671
0.000320963
0.000323535
0.000320823
0.000323341
0.000320721
0.000323251
0.000320642
0.000323136
0.000320598
0.000323087
0.000320573
0.000323049
0.000323035
0.000330693
0.00033356
0.000330201
0.00033347
0.000329578
0.000332559
0.000329085
0.000332199
0.000328612
0.000331561
0.000328184
0.000331237
0.00032778
0.000330692
0.000327421
0.000330413
0.000327083
0.000329963
0.00032679
0.000329726
0.000326519
0.000329365
0.000326288
0.000329175
0.000326081
0.000328894
0.000325913
0.000328753
0.000325768
0.000328553
0.000325665
0.000328458
0.000325581
0.000328342
0.000325539
0.00032829
0.000325511
0.000328252
0.000328236
0.000336338
0.0003396
0.000335828
0.000339509
0.00033518
0.000338557
0.000334675
0.000338188
0.000334186
0.000337526
0.000333745
0.000337188
0.000333325
0.000336626
0.000332954
0.000336333
0.000332606
0.000335868
0.000332301
0.00033562
0.00033202
0.00033525
0.000331781
0.000335047
0.000331567
0.000334763
0.000331393
0.000334609
0.000331244
0.00033441
0.000331135
0.000334305
0.000331051
0.000334189
0.000331003
0.000334132
0.000330977
0.000334094
0.000334077
0.000342772
0.00034655
0.000342237
0.000346453
0.000341565
0.000345463
0.000341039
0.000345078
0.000340528
0.000344386
0.000340069
0.000344033
0.000339634
0.00034345
0.000339247
0.000343143
0.000338883
0.000342659
0.000338569
0.0003424
0.000338276
0.000342014
0.000338029
0.000341803
0.000337806
0.000341507
0.000337626
0.000341347
0.000337471
0.000341139
0.000337358
0.00034103
0.00033727
0.000340909
0.000337222
0.00034085
0.000337194
0.00034081
0.000340793
0.000350231
0.000354704
0.000349679
0.000354593
0.000348976
0.00035358
0.000348424
0.000353154
0.000347891
0.00035244
0.000347414
0.000352065
0.000346959
0.000351455
0.000346555
0.000351132
0.000346177
0.000350628
0.000345845
0.000350353
0.000345541
0.000349951
0.000345281
0.000349726
0.000345048
0.000349421
0.00034486
0.000349247
0.000344698
0.000349036
0.000344581
0.000348915
0.000344489
0.000348794
0.000344437
0.000348728
0.000344409
0.000348687
0.000348669
0.000359066
0.000364504
0.000358494
0.000364385
0.000357759
0.000363312
0.000357171
0.000362869
0.000356614
0.000362102
0.000356106
0.000361718
0.000355628
0.000361061
0.000355205
0.000360732
0.000354804
0.000360184
0.000354459
0.000359909
0.000354136
0.000359468
0.000353866
0.000359245
0.00035362
0.000358911
0.000353423
0.000358739
0.000353253
0.000358504
0.000353128
0.000358388
0.000353033
0.000358249
0.000352977
0.000358187
0.000352947
0.000358141
0.000358122
0.000369824
0.000376433
0.000369203
0.000376313
0.000368422
0.000375146
0.000367801
0.000374694
0.000367206
0.000373862
0.000366673
0.000373461
0.000366165
0.000372756
0.000365712
0.000372408
0.000365289
0.000371822
0.000364918
0.000371533
0.000364577
0.000371053
0.00036429
0.000370825
0.00036403
0.000370459
0.00036382
0.000370286
0.000363638
0.000370026
0.000363508
0.00036991
0.000363403
0.000369756
0.00036335
0.000369694
0.000363316
0.000369643
0.000369624
0.000382922
0.000389807
0.000382256
0.000389711
0.000381418
0.000388495
0.000380755
0.00038802
0.000380117
0.00038717
0.000379544
0.00038674
0.000378999
0.000386018
0.000378519
0.000385646
0.000378066
0.000385041
0.000377668
0.000384729
0.000377301
0.000384236
0.000376994
0.000383984
0.000376715
0.000383609
0.000376492
0.000383414
0.000376297
0.000383152
0.000376157
0.000383017
0.000376047
0.000382864
0.000375987
0.00038279
0.000375952
0.00038274
0.000382718
0.000396595
0.000397969
0.000395949
0.000397906
0.000395096
0.000397288
0.000394434
0.000397028
0.000393793
0.000396603
0.000393214
0.000396369
0.000392665
0.000396007
0.000392168
0.000395808
0.000391704
0.000395497
0.000391297
0.000395333
0.000390919
0.000395082
0.000390599
0.000394948
0.000390308
0.000394757
0.000390075
0.000394654
0.000389871
0.000394521
0.000389724
0.000394449
0.000389608
0.000394372
0.000389543
0.000394332
0.000389506
0.000394307
0.000394296
0.00039928
0.000399245
0.00039922
0.000399198
0.000399179
0.000399162
0.000399151
0.000399137
0.000399126
0.000399118
0.000399111
0.000399106
0.000399103
0.0003991
0.000399098
0.000399097
0.000399097
0.000399097
0.000399096
)
;

boundaryField
{
    movingWall
    {
        type            calculated;
        value           nonuniform List<scalar> 
20
(
0.000399308
0.000399252
0.000399237
0.000399204
0.000399192
0.000399167
0.000399158
0.000399143
0.000399131
0.000399121
0.000399114
0.000399108
0.000399104
0.000399102
0.000399099
0.000399098
0.000399097
0.000399097
0.000399096
0.000399096
)
;
    }
    fixedWalls
    {
        type            calculated;
        value           nonuniform List<scalar> 
60
(
6.15611e-05
0.000103742
0.000171851
0.000230157
0.000268049
0.000289729
0.0003022
0.000310057
0.000315836
0.0003208
0.000325634
0.000330736
0.000336383
0.000342818
0.000350282
0.000359126
0.000369883
0.000382983
0.00039663
0.000399308
6.1538e-05
0.000103264
0.000170527
0.000227728
0.000264697
0.000285768
0.000297866
0.000305481
0.000311078
0.000315886
0.000320565
0.000325504
0.000330968
0.000337186
0.0003444
0.000352938
0.000363307
0.000375942
0.000389495
0.000399096
6.15611e-05
6.15581e-05
6.15548e-05
6.15535e-05
6.155e-05
6.15496e-05
6.15461e-05
6.15463e-05
6.15431e-05
6.15436e-05
6.15411e-05
6.15413e-05
6.15398e-05
6.15397e-05
6.15389e-05
6.15387e-05
6.15382e-05
6.15382e-05
6.1538e-05
6.1538e-05
)
;
    }
    frontAndBack
    {
        type            empty;
        value           nonuniform List<scalar> 0();
    }
}


// ************************************************************************* //
