/*--------------------------------*- C++ -*----------------------------------*\
| =========                 |                                                 |
| \\      /  F ield         | OpenFOAM: The Open Source CFD Toolbox           |
|  \\    /   O peration     | Version:  2312                                  |
|   \\  /    A nd           | Website:  www.openfoam.com                      |
|    \\/     M anipulation  |                                                 |
\*---------------------------------------------------------------------------*/
FoamFile
{
    version     2.0;
    format      ascii;
    arch        "LSB;label=32;scalar=64";
    class       surfaceScalarField;
    location    "3";
    object      surfaceDivU;
}
// * * * * * * * * * * * * * * * * * * * * * * * * * * * * * * * * * * * * * //

dimensions      [0 0 -1 0 0 0 0];

internalField   nonuniform List<scalar> 
760
(
1.44833e-07
-1.78916e-06
1.90806e-06
3.28883e-06
-4.64518e-07
-8.98893e-07
1.83254e-07
3.45444e-07
-5.4521e-08
-1.11356e-07
1.86428e-08
3.79217e-08
-6.12811e-09
-1.3023e-08
1.82538e-09
4.21635e-09
-6.78835e-10
-1.47371e-09
1.86807e-10
4.81713e-10
-6.32476e-11
-1.49799e-10
3.13946e-11
6.59191e-11
6.48438e-12
-2.08315e-12
1.56319e-11
1.93499e-11
1.23825e-11
1.26687e-11
7.85536e-12
9.02277e-12
6.25769e-12
-1.37187e-13
1.1834e-11
1.59231e-11
1.26409e-11
1.43973e-11
9.26993e-12
1.35484e-06
-6.36635e-06
4.81883e-07
6.77488e-06
-8.8931e-08
-1.91885e-06
5.08348e-08
6.56932e-07
-1.89129e-08
-2.04607e-07
6.25597e-09
6.67059e-08
-2.67857e-09
-2.10714e-08
9.17261e-10
6.89696e-09
-3.1316e-10
-2.09246e-09
1.45107e-10
7.39349e-10
-2.06322e-11
-1.89247e-10
3.24413e-11
9.17657e-11
1.07824e-11
-4.01543e-12
1.63868e-11
2.09844e-11
9.30898e-12
1.27442e-11
1.03023e-12
1.00451e-11
9.52821e-12
-2.88034e-12
1.84864e-11
1.36185e-11
1.10264e-11
1.41324e-11
8.8227e-12
-9.46315e-07
-5.28274e-06
4.37415e-06
8.17651e-06
-1.17299e-06
-2.07764e-06
4.01491e-07
7.66337e-07
-1.18988e-07
-2.07937e-07
3.93786e-08
7.22712e-08
-1.14958e-08
-2.06671e-08
3.88725e-09
7.14544e-09
-1.03995e-09
-1.97158e-09
4.04996e-10
7.42768e-10
-7.68491e-11
-1.72351e-10
5.5309e-11
8.95098e-11
6.18662e-12
-3.0001e-12
1.73419e-11
2.03819e-11
1.34804e-11
1.32033e-11
6.13458e-12
8.40603e-12
1.21e-12
-4.50755e-12
9.26457e-12
1.43307e-11
1.19287e-11
1.68561e-11
6.05798e-12
3.84009e-06
-4.94095e-06
1.72473e-06
4.06113e-06
-1.38314e-07
-1.31604e-06
1.5691e-07
3.67994e-07
-1.66775e-08
-1.36665e-07
1.22255e-08
4.21883e-08
-2.02586e-09
-1.24817e-08
1.28661e-09
4.60497e-09
-1.88869e-10
-1.21646e-09
1.65421e-10
4.84597e-10
-5.99237e-12
-1.09197e-10
3.12007e-11
6.04438e-11
1.11952e-11
6.49198e-13
1.62433e-11
1.609e-11
8.1289e-12
1.23235e-11
-2.2361e-12
6.62236e-12
8.61317e-12
-6.14069e-12
2.19223e-11
1.25196e-11
1.09854e-11
1.87026e-11
3.55076e-12
-4.7199e-06
6.99394e-07
1.02036e-06
3.00352e-06
-8.09734e-07
-4.36976e-07
7.44191e-08
2.74789e-07
-7.77993e-08
-3.2901e-08
1.74811e-08
1.51247e-08
-5.8509e-09
-3.85943e-09
2.1019e-09
6.26053e-10
-5.42996e-10
-2.81684e-10
2.09978e-10
4.01688e-11
-4.27611e-11
-8.99632e-12
2.98922e-11
8.27276e-12
5.54404e-12
7.76113e-12
1.21702e-11
9.34621e-12
1.0817e-11
1.26818e-11
2.71778e-12
2.55675e-12
-2.23422e-12
-9.86511e-12
9.29995e-12
1.25693e-11
1.1268e-11
2.16972e-11
-2.1684e-13
8.42281e-06
4.72906e-06
1.54618e-06
-1.04321e-05
6.47547e-07
2.32233e-06
1.67469e-07
-9.40849e-07
6.0023e-08
2.22782e-07
-6.21586e-09
-8.02826e-08
2.61753e-09
2.19501e-08
-1.75753e-09
-6.97668e-09
3.01481e-10
1.97328e-09
-1.78806e-10
-6.67648e-10
4.20375e-11
1.71935e-10
-1.38584e-11
-6.34538e-11
1.15633e-11
1.95569e-11
9.85775e-12
6.61108e-13
4.42153e-12
1.21794e-11
-1.00261e-11
-6.35761e-13
4.93843e-12
-1.26299e-11
2.49666e-11
1.03076e-11
1.02124e-11
2.36869e-11
-3.52366e-12
-1.41259e-05
5.32573e-06
-9.65598e-06
-1.06886e-06
7.33931e-07
8.96494e-07
-8.85536e-07
-1.25309e-07
8.2476e-08
1.12366e-07
-5.21166e-08
-2.74123e-08
1.23559e-08
1.07713e-08
-3.24588e-09
-4.21543e-09
1.00415e-09
1.16901e-09
-3.16907e-10
-5.01199e-10
6.64437e-11
1.29527e-10
-3.00386e-11
-5.94255e-11
8.65471e-12
1.44591e-11
2.98277e-12
-9.83146e-13
7.12211e-12
1.12514e-11
-3.23948e-12
-4.63489e-12
-7.26069e-12
-1.69693e-11
9.0279e-12
9.57742e-12
9.95083e-12
2.63595e-11
-7.29126e-12
1.83828e-05
4.11779e-06
9.48362e-06
-1.28421e-05
3.72538e-08
2.6794e-06
8.72594e-07
-1.20029e-06
2.47806e-09
2.59389e-07
3.54756e-08
-9.44332e-08
-5.80007e-09
2.81239e-08
1.99464e-10
-7.97335e-09
-3.36331e-10
2.66714e-09
-5.47648e-11
-7.73054e-10
3.65781e-12
2.24007e-10
-1.49278e-11
-8.23245e-11
4.82124e-12
1.92529e-11
7.28552e-12
-3.32831e-12
-5.05568e-13
1.06248e-11
-1.83647e-11
-7.7579e-12
-1.3123e-13
-2.02903e-11
2.6909e-11
7.35383e-12
9.11738e-12
2.78949e-11
-1.04083e-11
-2.7107e-05
-3.68752e-07
-1.96463e-05
8.89305e-06
1.44186e-06
-1.38592e-06
-1.81349e-06
7.71279e-07
1.62478e-07
-9.15321e-08
-1.01785e-07
4.3972e-08
2.59507e-08
-6.19061e-09
-5.50568e-09
1.87233e-09
2.23041e-09
-5.28483e-10
-4.94282e-10
-3.14914e-13
1.38025e-10
-9.75946e-13
-4.81438e-11
-1.38738e-11
1.11034e-11
2.47203e-12
1.09981e-14
2.07847e-12
3.3725e-12
9.17751e-12
-9.68347e-12
-1.08564e-11
-1.28053e-11
-2.46753e-11
8.33979e-12
5.77826e-12
8.36923e-12
2.95306e-11
-1.31188e-11
3.56313e-05
6.38503e-06
2.71534e-05
-1.56063e-05
-2.0565e-06
3.11247e-06
2.49324e-06
-1.44366e-06
-2.10038e-07
2.93637e-07
1.39566e-07
-1.11846e-07
-3.0269e-08
3.05076e-08
6.84952e-09
-8.54163e-09
-2.75921e-09
3.04954e-09
4.92991e-10
-7.75734e-10
-1.52875e-10
2.76777e-10
3.67421e-11
-7.37967e-11
-6.5529e-12
2.11682e-11
1.1245e-11
-2.60695e-12
-5.05143e-12
9.80506e-12
-2.58482e-11
-1.43927e-11
-6.09174e-12
-2.77338e-11
2.6969e-11
3.4016e-12
8.0425e-12
2.97092e-11
-1.48671e-11
-4.48526e-05
-6.73628e-06
-3.96472e-05
1.28771e-05
3.72531e-06
-2.25307e-06
-3.64326e-06
1.15917e-06
3.91829e-07
-1.7486e-07
-2.20905e-07
7.21593e-08
5.2235e-08
-1.83678e-08
-1.23416e-08
3.22067e-09
5.03302e-09
-1.31787e-09
-9.91948e-10
2.03357e-10
3.55855e-10
-4.46631e-11
-8.93705e-11
1.44145e-11
2.51142e-11
-1.78413e-12
-4.04687e-12
3.05833e-12
4.63746e-13
6.64414e-12
-1.62783e-11
-1.77356e-11
-1.82405e-11
-3.21267e-11
6.1418e-12
3.82212e-13
6.79962e-12
2.91206e-11
-1.5084e-11
5.09934e-05
2.49721e-05
5.02712e-05
-2.01404e-05
-4.81921e-06
4.65534e-06
4.62757e-06
-1.91419e-06
-4.94529e-07
3.98001e-07
2.74696e-07
-1.64647e-07
-6.73821e-08
3.74838e-08
1.42444e-08
-1.37159e-08
-6.14753e-09
4.13749e-09
1.15064e-09
-1.05965e-09
-3.86104e-10
4.15419e-10
1.02001e-10
-1.05147e-10
-2.384e-11
2.81142e-11
1.37493e-11
-1.1977e-11
-1.15552e-11
5.20629e-12
-3.3584e-11
-2.37061e-11
-1.3504e-11
-3.4525e-11
2.3361e-11
-1.12767e-12
7.23702e-12
2.70422e-11
-1.41217e-11
-4.61617e-05
-2.15436e-05
-6.57563e-05
8.4676e-06
7.56036e-06
-2.0871e-06
-6.14376e-06
7.59317e-07
7.27883e-07
-1.42044e-07
-4.0186e-07
5.29191e-08
9.11499e-08
-1.03062e-08
-2.38229e-08
2.8191e-09
9.22538e-09
-2.73577e-10
-1.79487e-09
8.62909e-11
6.96376e-10
6.88125e-11
-1.79033e-10
-3.3014e-11
3.99772e-11
-1.29995e-11
-2.052e-11
-1.64966e-11
-6.94457e-12
-3.02062e-12
-2.46472e-11
-2.72409e-11
-2.21487e-11
-3.70833e-11
2.55354e-12
-4.90443e-12
5.68347e-12
2.33025e-11
-1.04761e-11
3.30857e-05
1.66685e-05
7.21368e-05
-1.11197e-05
-8.88814e-06
3.55761e-06
6.76103e-06
-1.17742e-06
-8.17008e-07
4.63569e-07
4.44473e-07
-1.46772e-07
-9.8637e-08
5.18047e-08
2.63684e-08
-1.65084e-08
-9.41266e-09
5.68046e-09
1.94997e-09
-1.78249e-09
-6.60578e-10
5.28513e-10
1.3302e-10
-2.5162e-10
-6.94733e-11
2.79658e-12
1.00284e-12
-4.89773e-11
-2.3317e-11
-7.02516e-12
-3.96771e-11
-3.52771e-11
-1.9839e-11
-3.91597e-11
1.58446e-11
-5.03665e-12
7.14295e-12
1.92531e-11
-5.81403e-12
-2.7537e-05
8.09771e-06
-7.96989e-05
-1.63103e-05
1.12683e-05
4.01512e-06
-7.47489e-06
-1.7104e-06
1.13381e-06
4.58854e-07
-5.39439e-07
-1.82996e-07
1.33933e-07
5.28388e-08
-3.71964e-08
-1.7943e-08
1.33106e-08
5.86257e-09
-3.20396e-09
-2.12931e-09
9.37471e-10
4.09827e-10
-3.81843e-10
-3.71369e-10
2.32926e-11
-4.31642e-11
-5.70053e-11
-7.61723e-11
-1.89852e-11
-1.82985e-11
-3.47597e-11
-4.00171e-11
-2.43573e-11
-3.80342e-11
-1.62807e-12
-5.29262e-12
6.29615e-12
1.63939e-11
1.96512e-12
1.93244e-05
2.88577e-05
6.74037e-05
-3.33581e-05
-8.9636e-06
1.00655e-05
6.22334e-06
-3.25711e-06
-8.57948e-07
1.09477e-06
4.09282e-07
-3.42414e-07
-9.90375e-08
1.13363e-07
2.5116e-08
-3.71559e-08
-9.57736e-09
9.94467e-09
1.48447e-09
-4.53138e-09
-8.99013e-10
6.82513e-10
-3.26901e-11
-6.05957e-10
-1.42629e-10
-5.27332e-12
-3.74655e-11
-8.12585e-11
-3.93304e-11
1.56926e-12
-4.32916e-11
-2.51573e-11
-1.89695e-11
-2.01856e-11
1.27293e-11
5.76057e-12
1.20628e-11
1.59311e-11
8.41612e-12
-2.38247e-05
7.02536e-05
-9.06963e-05
-8.72483e-05
1.5772e-05
2.22152e-05
-8.38568e-06
-7.97641e-06
1.61031e-06
2.07857e-06
-6.38333e-07
-7.01839e-07
1.75245e-07
1.90011e-07
-5.23272e-08
-6.7078e-08
1.49906e-08
1.58922e-08
-5.33334e-09
-6.58827e-09
9.75569e-10
1.24953e-09
-5.78541e-10
-6.62882e-10
5.60973e-11
8.92751e-11
-4.22237e-11
-4.72779e-11
1.57423e-11
3.38949e-11
-2.05132e-12
-3.80426e-12
4.54445e-12
-1.18356e-11
8.96238e-12
-5.30951e-13
1.22844e-11
1.13822e-11
1.71033e-11
6.82998e-06
3.01068e-05
2.56632e-05
-3.01328e-05
-1.53317e-06
8.67017e-06
2.48784e-06
-2.47289e-06
-2.33577e-07
6.89779e-07
1.26504e-07
-2.13909e-07
-5.23122e-08
4.7744e-08
1.1415e-09
-1.87909e-08
-5.6867e-09
3.5561e-09
-5.39929e-12
-1.38495e-09
-3.88923e-10
3.32641e-10
4.93396e-12
-6.94909e-11
-1.41e-11
3.71991e-11
2.88407e-11
2.16844e-11
1.43483e-11
2.56848e-11
-1.35886e-11
-1.78491e-11
-1.69111e-11
-3.12292e-11
1.8889e-12
-1.89334e-12
1.62011e-11
1.11438e-11
2.63055e-11
-6.85599e-06
-4.09048e-05
-4.71258e-05
5.02067e-05
7.73045e-06
-1.531e-05
-4.27095e-06
4.80477e-06
7.09448e-07
-1.59756e-06
-2.92669e-07
5.20201e-07
8.12653e-08
-1.50351e-07
-1.63763e-08
5.90773e-08
7.85785e-09
-1.40165e-08
-1.04691e-09
6.57298e-09
6.52073e-10
-1.18818e-09
-3.72258e-11
8.23039e-10
7.29835e-11
-3.32219e-11
1.85286e-11
1.59738e-10
-6.51256e-12
4.58562e-11
-3.54897e-11
1.18567e-11
-1.62115e-11
4.28872e-12
7.3616e-12
3.01185e-11
2.12482e-11
6.86896e-12
3.31901e-11
1.61579e-05
8.20225e-05
-1.82357e-05
7.47816e-06
-1.78681e-06
6.62519e-07
-1.72539e-07
6.1437e-08
-1.53014e-08
6.43172e-09
-1.01721e-09
8.27043e-10
5.35325e-11
1.87066e-10
6.42254e-11
5.16351e-11
5.06187e-11
2.96258e-11
1.88109e-11
)
;

boundaryField
{
    movingWall
    {
        type            calculated;
        value           nonuniform List<scalar> 
20
(
-0.000188571
0.000220887
-5.68417e-05
2.03703e-05
-5.41396e-06
1.84034e-06
-5.15304e-07
1.70226e-07
-4.73517e-08
1.6749e-08
-3.88556e-09
1.85114e-09
-1.97054e-10
3.04119e-10
7.00124e-11
5.84385e-11
4.48318e-11
5.64056e-11
2.84603e-12
3.47758e-11
)
;
    }
    fixedWalls
    {
        type            calculated;
        value           nonuniform List<scalar> 
60
(
-4.98615e-06
1.40784e-06
-1.41405e-05
3.57506e-06
-1.3457e-05
1.48557e-05
-5.39762e-06
1.60491e-05
-7.81351e-06
7.076e-06
5.69406e-06
-1.91666e-05
6.91107e-05
-0.000112198
0.000145535
-0.000129339
0.000187055
-4.65477e-05
0.000106761
-0.000188571
1.13028e-11
7.23705e-12
1.04083e-11
1.70762e-12
5.39391e-12
-5.82759e-12
-1.21973e-12
-1.33628e-11
-7.45389e-12
-1.87838e-11
-1.09504e-11
-1.92175e-11
-9.02598e-12
-1.19262e-11
2.98156e-13
3.63208e-12
1.32002e-11
2.10064e-11
3.16045e-11
3.47758e-11
-4.98615e-06
5.27582e-06
-1.4597e-06
5.30669e-07
-1.64161e-07
5.51195e-08
-1.7834e-08
5.57775e-09
-1.92698e-09
5.69313e-10
-1.95699e-10
6.92035e-11
-6.41431e-12
1.93831e-11
1.18807e-11
1.28844e-11
2.82628e-12
9.6891e-12
1.3979e-11
1.13028e-11
)
;
    }
    frontAndBack
    {
        type            empty;
        value           nonuniform List<scalar> 0();
    }
}


// ************************************************************************* //
