/*--------------------------------*- C++ -*----------------------------------*\
| =========                 |                                                 |
| \\      /  F ield         | OpenFOAM: The Open Source CFD Toolbox           |
|  \\    /   O peration     | Version:  2312                                  |
|   \\  /    A nd           | Website:  www.openfoam.com                      |
|    \\/     M anipulation  |                                                 |
\*---------------------------------------------------------------------------*/
FoamFile
{
    version     2.0;
    format      ascii;
    arch        "LSB;label=32;scalar=64";
    class       volSymmTensorField;
    location    "3";
    object      turbulenceProperties:R;
}
// * * * * * * * * * * * * * * * * * * * * * * * * * * * * * * * * * * * * * //

dimensions      [0 2 -2 0 0 0 0];

internalField   nonuniform List<symmTensor> 
400
(
(4.10407e-05 -8.38786e-11 -0 4.10407e-05 -0 4.10407e-05)
(4.10387e-05 1.35488e-10 -0 4.10388e-05 -0 4.10388e-05)
(4.10365e-05 -3.07807e-11 -0 4.10365e-05 -0 4.10365e-05)
(4.10357e-05 7.48277e-12 -0 4.10357e-05 -0 4.10357e-05)
(4.10333e-05 -1.39678e-12 -0 4.10333e-05 -0 4.10333e-05)
(4.1033e-05 5.26773e-13 -0 4.1033e-05 -0 4.1033e-05)
(4.10307e-05 3.54213e-14 -0 4.10307e-05 -0 4.10307e-05)
(4.10309e-05 8.64171e-14 -0 4.10309e-05 -0 4.10309e-05)
(4.10287e-05 3.8786e-14 -0 4.10287e-05 -0 4.10287e-05)
(4.10291e-05 2.06982e-14 -0 4.10291e-05 -0 4.10291e-05)
(4.10274e-05 6.92422e-15 -0 4.10274e-05 -0 4.10274e-05)
(4.10275e-05 -1.32533e-15 -0 4.10275e-05 -0 4.10275e-05)
(4.10265e-05 -5.28947e-15 -0 4.10265e-05 -0 4.10265e-05)
(4.10264e-05 -6.60322e-15 -0 4.10264e-05 -0 4.10264e-05)
(4.10259e-05 -6.14153e-15 -0 4.10259e-05 -0 4.10259e-05)
(4.10258e-05 -4.79606e-15 -0 4.10258e-05 -0 4.10258e-05)
(4.10255e-05 -2.93362e-15 -0 4.10255e-05 -0 4.10255e-05)
(4.10254e-05 -9.39851e-16 -0 4.10254e-05 -0 4.10254e-05)
(4.10253e-05 1.94678e-16 -0 4.10253e-05 -0 4.10253e-05)
(4.10253e-05 1.94415e-17 -0 4.10253e-05 -0 4.10253e-05)
(6.91613e-05 1.98824e-10 -0 6.91612e-05 -0 6.91612e-05)
(6.91569e-05 -2.14977e-10 -0 6.91569e-05 -0 6.91569e-05)
(6.91036e-05 5.2895e-11 -0 6.91036e-05 -0 6.91036e-05)
(6.90804e-05 -1.28068e-11 -0 6.90804e-05 -0 6.90804e-05)
(6.90434e-05 3.24166e-12 -0 6.90434e-05 -0 6.90434e-05)
(6.90226e-05 -8.34015e-13 -0 6.90226e-05 -0 6.90226e-05)
(6.89916e-05 1.76778e-13 -0 6.89916e-05 -0 6.89916e-05)
(6.89734e-05 -8.63308e-14 -0 6.89734e-05 -0 6.89734e-05)
(6.89474e-05 -1.38634e-14 -0 6.89474e-05 -0 6.89474e-05)
(6.89324e-05 -2.64636e-14 -0 6.89324e-05 -0 6.89324e-05)
(6.8911e-05 -1.64652e-14 -0 6.8911e-05 -0 6.8911e-05)
(6.88991e-05 -1.31626e-14 -0 6.88991e-05 -0 6.88991e-05)
(6.88828e-05 -8.95751e-15 -0 6.88828e-05 -0 6.88828e-05)
(6.88735e-05 -5.93947e-15 -0 6.88735e-05 -0 6.88735e-05)
(6.88624e-05 -3.54744e-15 -0 6.88624e-05 -0 6.88624e-05)
(6.88558e-05 -1.88349e-15 -0 6.88558e-05 -0 6.88558e-05)
(6.88495e-05 -6.06236e-16 -0 6.88495e-05 -0 6.88495e-05)
(6.88459e-05 8.08574e-16 -0 6.88459e-05 -0 6.88459e-05)
(6.88436e-05 1.17823e-15 -0 6.88436e-05 -0 6.88436e-05)
(6.88426e-05 7.04144e-16 -0 6.88426e-05 -0 6.88426e-05)
(0.000114567 -1.73303e-10 -0 0.000114567 -0 0.000114567)
(0.000114554 2.7245e-10 -0 0.000114554 -0 0.000114554)
(0.000114405 -5.94095e-11 -0 0.000114405 -0 0.000114405)
(0.000114343 1.4479e-11 -0 0.000114343 -0 0.000114343)
(0.000114239 -3.24073e-12 -0 0.000114239 -0 0.000114239)
(0.000114183 6.58637e-13 -0 0.000114183 -0 0.000114183)
(0.000114096 -2.68434e-13 -0 0.000114096 -0 0.000114096)
(0.000114046 -4.11748e-14 -0 0.000114046 -0 0.000114046)
(0.000113975 -7.47258e-14 -0 0.000113975 -0 0.000113975)
(0.000113931 -4.78253e-14 -0 0.000113931 -0 0.000113931)
(0.000113875 -3.79135e-14 -0 0.000113875 -0 0.000113875)
(0.000113839 -2.68617e-14 -0 0.000113839 -0 0.000113839)
(0.000113797 -1.86096e-14 -0 0.000113797 -0 0.000113797)
(0.000113769 -1.19643e-14 -0 0.000113769 -0 0.000113769)
(0.00011374 -7.0577e-15 -0 0.00011374 -0 0.00011374)
(0.000113721 -3.59671e-15 -0 0.000113721 -0 0.000113721)
(0.000113704 -9.17472e-16 -0 0.000113704 -0 0.000113704)
(0.000113694 1.92983e-15 -0 0.000113694 -0 0.000113694)
(0.000113688 2.59612e-15 -0 0.000113688 -0 0.000113688)
(0.000113685 1.59315e-15 -0 0.000113685 -0 0.000113685)
(0.000153438 1.7002e-10 -0 0.000153438 -0 0.000153438)
(0.000153416 -3.29866e-10 -0 0.000153416 -0 0.000153416)
(0.000153137 6.56776e-11 -0 0.000153137 -0 0.000153137)
(0.000153029 -1.64651e-11 -0 0.000153029 -0 0.000153029)
(0.000152833 2.7739e-12 -0 0.000152833 -0 0.000152833)
(0.000152737 -9.27775e-13 -0 0.000152737 -0 0.000152737)
(0.000152568 -6.35519e-14 -0 0.000152568 -0 0.000152568)
(0.000152487 -1.64135e-13 -0 0.000152487 -0 0.000152487)
(0.000152345 -1.04182e-13 -0 0.000152345 -0 0.000152345)
(0.000152277 -7.90633e-14 -0 0.000152277 -0 0.000152277)
(0.000152163 -5.81715e-14 -0 0.000152163 -0 0.000152163)
(0.000152107 -4.11318e-14 -0 0.000152107 -0 0.000152107)
(0.000152019 -2.80979e-14 -0 0.000152019 -0 0.000152019)
(0.000151977 -1.77836e-14 -0 0.000151977 -0 0.000151977)
(0.000151916 -1.02252e-14 -0 0.000151916 -0 0.000151916)
(0.000151886 -4.92688e-15 -0 0.000151886 -0 0.000151886)
(0.000151852 -9.43491e-16 -0 0.000151852 -0 0.000151852)
(0.000151835 3.47339e-15 -0 0.000151835 -0 0.000151835)
(0.000151824 4.51803e-15 -0 0.000151824 -0 0.000151824)
(0.000151819 2.7671e-15 -0 0.000151819 -0 0.000151819)
(0.000178699 -3.3338e-10 -0 0.000178699 -0 0.000178699)
(0.000178665 4.5927e-10 -0 0.000178665 -0 0.000178665)
(0.000178286 -1.02602e-10 -0 0.000178286 -0 0.000178286)
(0.000178129 2.52651e-11 -0 0.000178129 -0 0.000178129)
(0.000177868 -6.78128e-12 -0 0.000177868 -0 0.000177868)
(0.000177727 1.14744e-12 -0 0.000177727 -0 0.000177727)
(0.000177503 -6.93975e-13 -0 0.000177503 -0 0.000177503)
(0.000177382 -8.4652e-14 -0 0.000177382 -0 0.000177382)
(0.000177194 -1.70403e-13 -0 0.000177194 -0 0.000177194)
(0.000177091 -9.29406e-14 -0 0.000177091 -0 0.000177091)
(0.000176944 -7.61047e-14 -0 0.000176944 -0 0.000176944)
(0.000176857 -5.10852e-14 -0 0.000176857 -0 0.000176857)
(0.000176747 -3.50338e-14 -0 0.000176747 -0 0.000176747)
(0.00017668 -2.1561e-14 -0 0.00017668 -0 0.00017668)
(0.000176603 -1.19938e-14 -0 0.000176603 -0 0.000176603)
(0.000176556 -5.28645e-15 -0 0.000176556 -0 0.000176556)
(0.000176512 -1.93105e-16 -0 0.000176512 -0 0.000176512)
(0.000176487 5.50009e-15 -0 0.000176487 -0 0.000176487)
(0.000176472 6.70645e-15 -0 0.000176472 -0 0.000176472)
(0.000176465 4.17128e-15 -0 0.000176465 -0 0.000176465)
(0.000193153 6.50493e-11 -0 0.000193152 -0 0.000193152)
(0.000193113 -4.47036e-10 -0 0.000193113 -0 0.000193113)
(0.00019266 7.23949e-11 -0 0.00019266 -0 0.00019266)
(0.000192481 -1.80986e-11 -0 0.000192481 -0 0.000192481)
(0.000192166 1.64129e-12 -0 0.000192166 -0 0.000192166)
(0.000192004 -6.81041e-13 -0 0.000192004 -0 0.000192004)
(0.000191737 -3.05753e-13 -0 0.000191737 -0 0.000191737)
(0.000191597 -1.76449e-13 -0 0.000191597 -0 0.000191597)
(0.000191371 -1.68972e-13 -0 0.000191371 -0 0.000191371)
(0.000191258 -1.07204e-13 -0 0.000191258 -0 0.000191258)
(0.000191071 -8.34927e-14 -0 0.000191071 -0 0.000191071)
(0.000190982 -5.637e-14 -0 0.000190982 -0 0.000190982)
(0.000190837 -3.7936e-14 -0 0.000190837 -0 0.000190837)
(0.00019077 -2.27134e-14 -0 0.00019077 -0 0.00019077)
(0.000190671 -1.18659e-14 -0 0.000190671 -0 0.000190671)
(0.000190622 -4.35209e-15 -0 0.000190622 -0 0.000190622)
(0.000190567 1.26773e-15 -0 0.000190567 -0 0.000190567)
(0.000190539 7.88967e-15 -0 0.000190539 -0 0.000190539)
(0.00019052 9.21073e-15 -0 0.00019052 -0 0.00019052)
(0.000190512 5.76669e-15 -0 0.000190512 -0 0.000190512)
(0.000201466 -2.67628e-10 -0 0.000201467 -0 0.000201466)
(0.000201421 6.45794e-10 -0 0.000201421 -0 0.000201421)
(0.000200926 -1.23369e-10 -0 0.000200926 -0 0.000200926)
(0.000200729 3.0338e-11 -0 0.000200729 -0 0.000200729)
(0.000200387 -6.14091e-12 -0 0.000200387 -0 0.000200387)
(0.000200209 9.65523e-13 -0 0.000200209 -0 0.000200209)
(0.000199915 -5.44613e-13 -0 0.000199915 -0 0.000199915)
(0.000199763 -1.47951e-13 -0 0.000199763 -0 0.000199763)
(0.000199515 -1.64424e-13 -0 0.000199515 -0 0.000199515)
(0.000199391 -1.09891e-13 -0 0.000199391 -0 0.000199391)
(0.000199189 -8.18684e-14 -0 0.000199189 -0 0.000199189)
(0.000199088 -5.63222e-14 -0 0.000199088 -0 0.000199088)
(0.000198936 -3.6594e-14 -0 0.000198936 -0 0.000198936)
(0.000198857 -2.105e-14 -0 0.000198857 -0 0.000198857)
(0.000198753 -9.77953e-15 -0 0.000198753 -0 0.000198753)
(0.000198696 -2.16233e-15 -0 0.000198696 -0 0.000198696)
(0.000198638 3.62101e-15 -0 0.000198638 -0 0.000198638)
(0.000198606 1.07386e-14 -0 0.000198606 -0 0.000198606)
(0.000198586 1.19161e-14 -0 0.000198586 -0 0.000198586)
(0.000198577 7.54316e-15 -0 0.000198577 -0 0.000198577)
(0.000206706 3.4511e-10 -0 0.000206704 -0 0.000206705)
(0.000206655 -8.21977e-10 -0 0.000206656 -0 0.000206656)
(0.000206133 1.54398e-10 -0 0.000206133 -0 0.000206133)
(0.000205923 -3.90224e-11 -0 0.000205923 -0 0.000205923)
(0.000205566 6.9781e-12 -0 0.000205566 -0 0.000205566)
(0.000205374 -1.83647e-12 -0 0.000205374 -0 0.000205374)
(0.000205067 1.24671e-13 -0 0.000205067 -0 0.000205067)
(0.000204903 -2.38185e-13 -0 0.000204903 -0 0.000204903)
(0.000204647 -1.2326e-13 -0 0.000204647 -0 0.000204647)
(0.000204507 -1.05518e-13 -0 0.000204507 -0 0.000204507)
(0.000204306 -7.35401e-14 -0 0.000204306 -0 0.000204306)
(0.000204188 -5.07434e-14 -0 0.000204188 -0 0.000204188)
(0.000204039 -3.15454e-14 -0 0.000204039 -0 0.000204039)
(0.000203946 -1.66466e-14 -0 0.000203946 -0 0.000203946)
(0.000203843 -5.8308e-15 -0 0.000203843 -0 0.000203843)
(0.000203779 1.30067e-15 -0 0.000203779 -0 0.000203779)
(0.000203719 6.662e-15 -0 0.000203719 -0 0.000203719)
(0.000203684 1.38816e-14 -0 0.000203684 -0 0.000203684)
(0.000203664 1.48452e-14 -0 0.000203664 -0 0.000203664)
(0.000203654 9.46255e-15 -0 0.000203654 -0 0.000203654)
(0.000210556 -2.97693e-10 -0 0.000210559 -0 0.000210557)
(0.000210508 1.04161e-09 -0 0.000210506 -0 0.000210507)
(0.000209961 -1.85193e-10 -0 0.000209961 -0 0.000209961)
(0.000209751 4.55601e-11 -0 0.000209751 -0 0.000209751)
(0.000209363 -7.80041e-12 -0 0.000209363 -0 0.000209363)
(0.000209175 1.27607e-12 -0 0.000209175 -0 0.000209175)
(0.000208848 -4.34598e-13 -0 0.000208848 -0 0.000208848)
(0.000208684 -1.44566e-13 -0 0.000208684 -0 0.000208684)
(0.000208414 -1.15258e-13 -0 0.000208414 -0 0.000208414)
(0.000208275 -8.94108e-14 -0 0.000208275 -0 0.000208275)
(0.000208056 -5.95555e-14 -0 0.000208056 -0 0.000208056)
(0.000207945 -4.06359e-14 -0 0.000207945 -0 0.000207945)
(0.000207777 -2.29703e-14 -0 0.000207777 -0 0.000207777)
(0.000207694 -9.79956e-15 -0 0.000207694 -0 0.000207694)
(0.000207573 -2.04837e-16 -0 0.000207573 -0 0.000207573)
(0.000207519 5.81569e-15 -0 0.000207519 -0 0.000207519)
(0.000207447 1.03822e-14 -0 0.000207447 -0 0.000207447)
(0.000207418 1.7316e-14 -0 0.000207418 -0 0.000207418)
(0.000207394 1.78546e-14 -0 0.000207394 -0 0.000207394)
(0.000207385 1.146e-14 -0 0.000207385 -0 0.000207385)
(0.000213868 5.10073e-10 -0 0.000213865 -0 0.000213867)
(0.000213812 -1.40569e-09 -0 0.000213814 -0 0.000213814)
(0.000213252 2.61222e-10 -0 0.000213251 -0 0.000213252)
(0.000213027 -6.44373e-11 -0 0.000213027 -0 0.000213027)
(0.000212642 1.11592e-11 -0 0.000212642 -0 0.000212642)
(0.000212436 -2.61812e-12 -0 0.000212436 -0 0.000212436)
(0.000212106 3.04953e-13 -0 0.000212106 -0 0.000212106)
(0.000211929 -1.65445e-13 -0 0.000211929 -0 0.000211929)
(0.000211657 -7.76048e-14 -0 0.000211657 -0 0.000211657)
(0.000211505 -6.23002e-14 -0 0.000211505 -0 0.000211505)
(0.00021129 -4.33389e-14 -0 0.00021129 -0 0.00021129)
(0.000211164 -2.54526e-14 -0 0.000211164 -0 0.000211164)
(0.000211002 -1.17622e-14 -0 0.000211002 -0 0.000211002)
(0.000210904 -6.80675e-16 -0 0.000210904 -0 0.000210904)
(0.000210792 6.82577e-15 -0 0.000210792 -0 0.000210792)
(0.000210724 1.12605e-14 -0 0.000210724 -0 0.000210724)
(0.000210659 1.4532e-14 -0 0.000210659 -0 0.000210659)
(0.000210623 2.07902e-14 -0 0.000210623 -0 0.000210623)
(0.000210601 2.08439e-14 -0 0.000210601 -0 0.000210601)
(0.000210591 1.34485e-14 -0 0.000210591 -0 0.000210591)
(0.000217087 -7.93951e-10 -0 0.000217091 -0 0.000217089)
(0.000217038 1.88866e-09 -0 0.000217034 -0 0.000217035)
(0.000216452 -3.68076e-10 -0 0.000216453 -0 0.000216453)
(0.00021623 8.8267e-11 -0 0.000216229 -0 0.000216229)
(0.000215817 -1.72097e-11 -0 0.000215817 -0 0.000215817)
(0.000215617 3.28653e-12 -0 0.000215617 -0 0.000215617)
(0.000215267 -8.71707e-13 -0 0.000215267 -0 0.000215267)
(0.000215093 9.64826e-15 -0 0.000215093 -0 0.000215093)
(0.000214804 -7.84297e-14 -0 0.000214804 -0 0.000214804)
(0.000214657 -3.63711e-14 -0 0.000214657 -0 0.000214657)
(0.000214426 -1.97978e-14 -0 0.000214426 -0 0.000214426)
(0.000214304 -7.89695e-15 -0 0.000214304 -0 0.000214304)
(0.00021413 2.62008e-15 -0 0.00021413 -0 0.00021413)
(0.000214036 1.01286e-14 -0 0.000214036 -0 0.000214036)
(0.000213914 1.50409e-14 -0 0.000213914 -0 0.000213914)
(0.00021385 1.72913e-14 -0 0.00021385 -0 0.00021385)
(0.000213779 1.89272e-14 -0 0.000213779 -0 0.000213779)
(0.000213744 2.41974e-14 -0 0.000213744 -0 0.000213744)
(0.00021372 2.36402e-14 -0 0.00021372 -0 0.00021372)
(0.00021371 1.52939e-14 -0 0.00021371 -0 0.00021371)
(0.000220493 1.15126e-09 -0 0.000220488 -0 0.000220491)
(0.00022043 -2.44886e-09 -0 0.000220434 -0 0.000220433)
(0.000219835 4.86023e-10 -0 0.000219835 -0 0.000219835)
(0.000219602 -1.17887e-10 -0 0.000219603 -0 0.000219603)
(0.000219177 2.20569e-11 -0 0.000219177 -0 0.000219177)
(0.000218972 -4.99837e-12 -0 0.000218972 -0 0.000218972)
(0.000218607 8.80457e-13 -0 0.000218607 -0 0.000218607)
(0.000218433 -1.82006e-13 -0 0.000218433 -0 0.000218433)
(0.000218129 1.05278e-14 -0 0.000218129 -0 0.000218129)
(0.000217982 -3.4331e-15 -0 0.000217982 -0 0.000217982)
(0.000217738 6.10036e-15 -0 0.000217738 -0 0.000217738)
(0.000217621 1.45331e-14 -0 0.000217621 -0 0.000217621)
(0.00021743 1.88838e-14 -0 0.00021743 -0 0.00021743)
(0.000217344 2.26419e-14 -0 0.000217344 -0 0.000217344)
(0.000217207 2.40199e-14 -0 0.000217207 -0 0.000217207)
(0.000217151 2.37023e-14 -0 0.000217151 -0 0.000217151)
(0.000217069 2.33266e-14 -0 0.000217069 -0 0.000217069)
(0.000217039 2.72356e-14 -0 0.000217039 -0 0.000217039)
(0.000217012 2.60098e-14 -0 0.000217012 -0 0.000217012)
(0.000217003 1.68704e-14 -0 0.000217003 -0 0.000217003)
(0.000224253 -1.81289e-09 -0 0.000224258 -0 0.000224256)
(0.000224198 3.14195e-09 -0 0.000224193 -0 0.000224193)
(0.000223576 -6.63617e-10 -0 0.000223577 -0 0.000223577)
(0.00022333 1.59033e-10 -0 0.000223329 -0 0.000223329)
(0.000222904 -3.20503e-11 -0 0.000222904 -0 0.000222904)
(0.000222677 7.35981e-12 -0 0.000222677 -0 0.000222677)
(0.000222315 -1.50294e-12 -0 0.000222315 -0 0.000222315)
(0.000222118 3.01326e-13 -0 0.000222118 -0 0.000222118)
(0.000221821 -3.70074e-14 -0 0.000221821 -0 0.000221821)
(0.000221653 4.67667e-14 -0 0.000221653 -0 0.000221653)
(0.000221415 3.78194e-14 -0 0.000221415 -0 0.000221415)
(0.000221279 3.95569e-14 -0 0.000221279 -0 0.000221279)
(0.000221096 3.79005e-14 -0 0.000221096 -0 0.000221096)
(0.000220993 3.60295e-14 -0 0.000220993 -0 0.000220993)
(0.000220864 3.34009e-14 -0 0.000220864 -0 0.000220864)
(0.000220794 2.99553e-14 -0 0.000220794 -0 0.000220794)
(0.00022072 2.72843e-14 -0 0.00022072 -0 0.00022072)
(0.000220681 2.96682e-14 -0 0.000220681 -0 0.000220681)
(0.000220657 2.77844e-14 -0 0.000220657 -0 0.000220657)
(0.000220646 1.79907e-14 -0 0.000220646 -0 0.000220646)
(0.000228548 2.42531e-09 -0 0.000228543 -0 0.000228544)
(0.000228481 -3.63887e-09 -0 0.000228486 -0 0.000228485)
(0.000227833 8.30964e-10 -0 0.000227832 -0 0.000227832)
(0.000227588 -1.90742e-10 -0 0.000227588 -0 0.000227588)
(0.000227131 4.16452e-11 -0 0.000227131 -0 0.000227131)
(0.000226907 -9.32985e-12 -0 0.000226907 -0 0.000226907)
(0.000226519 1.9103e-12 -0 0.000226519 -0 0.000226519)
(0.000226326 -3.25162e-13 -0 0.000226326 -0 0.000226326)
(0.000226003 1.53629e-13 -0 0.000226003 -0 0.000226003)
(0.000225841 7.57178e-14 -0 0.000225841 -0 0.000225841)
(0.000225585 7.96131e-14 -0 0.000225585 -0 0.000225585)
(0.00022545 6.88477e-14 -0 0.00022545 -0 0.00022545)
(0.000225255 5.80685e-14 -0 0.000225255 -0 0.000225255)
(0.000225152 4.99761e-14 -0 0.000225152 -0 0.000225152)
(0.000225016 4.23364e-14 -0 0.000225016 -0 0.000225016)
(0.000224946 3.55805e-14 -0 0.000224946 -0 0.000224946)
(0.000224866 3.05654e-14 -0 0.000224866 -0 0.000224866)
(0.000224828 3.11939e-14 -0 0.000224828 -0 0.000224828)
(0.000224801 2.85961e-14 -0 0.000224801 -0 0.000224801)
(0.00022479 1.85113e-14 -0 0.00022479 -0 0.00022479)
(0.000233519 -3.12071e-09 -0 0.000233523 -0 0.000233523)
(0.000233456 4.08722e-09 -0 0.000233451 -0 0.000233452)
(0.000232784 -9.96053e-10 -0 0.000232786 -0 0.000232785)
(0.000232516 2.27429e-10 -0 0.000232515 -0 0.000232515)
(0.00023205 -5.66154e-11 -0 0.00023205 -0 0.00023205)
(0.000231805 1.2812e-11 -0 0.000231805 -0 0.000231805)
(0.000231414 -3.02312e-12 -0 0.000231414 -0 0.000231414)
(0.000231198 9.10115e-13 -0 0.000231198 -0 0.000231198)
(0.000230876 -1.96974e-15 -0 0.000230876 -0 0.000230876)
(0.000230693 1.97899e-13 -0 0.000230693 -0 0.000230693)
(0.000230434 1.16225e-13 -0 0.000230434 -0 0.000230434)
(0.000230287 1.0298e-13 -0 0.000230287 -0 0.000230287)
(0.000230087 7.82035e-14 -0 0.000230087 -0 0.000230087)
(0.000229977 6.26986e-14 -0 0.000229977 -0 0.000229977)
(0.000229837 4.98115e-14 -0 0.000229837 -0 0.000229837)
(0.000229761 3.96955e-14 -0 0.000229761 -0 0.000229761)
(0.00022968 3.23703e-14 -0 0.00022968 -0 0.00022968)
(0.000229638 3.14023e-14 -0 0.000229638 -0 0.000229638)
(0.000229612 2.83237e-14 -0 0.000229612 -0 0.000229612)
(0.0002296 1.82378e-14 -0 0.0002296 -0 0.0002296)
(0.000239419 2.60495e-09 -0 0.000239416 -0 0.000239416)
(0.000239335 -4.08997e-09 -0 0.000239339 -0 0.000239339)
(0.000238656 9.47514e-10 -0 0.000238655 -0 0.000238655)
(0.000238357 -2.16046e-10 -0 0.000238357 -0 0.000238357)
(0.00023787 4.86425e-11 -0 0.00023787 -0 0.00023787)
(0.000237615 -1.04889e-11 -0 0.000237615 -0 0.000237615)
(0.000237193 2.56927e-12 -0 0.000237193 -0 0.000237193)
(0.000236978 -1.23058e-13 -0 0.000236978 -0 0.000236978)
(0.000236628 3.8125e-13 -0 0.000236628 -0 0.000236628)
(0.000236444 2.28266e-13 -0 0.000236444 -0 0.000236444)
(0.000236168 1.79483e-13 -0 0.000236168 -0 0.000236168)
(0.000236013 1.32089e-13 -0 0.000236013 -0 0.000236013)
(0.000235808 9.58636e-14 -0 0.000235808 -0 0.000235808)
(0.000235685 7.19174e-14 -0 0.000235685 -0 0.000235685)
(0.000235545 5.41573e-14 -0 0.000235545 -0 0.000235545)
(0.000235459 4.12576e-14 -0 0.000235459 -0 0.000235459)
(0.000235378 3.23007e-14 -0 0.000235378 -0 0.000235378)
(0.000235332 2.99089e-14 -0 0.000235332 -0 0.000235332)
(0.000235305 2.65032e-14 -0 0.000235305 -0 0.000235305)
(0.000235292 1.70604e-14 -0 0.000235292 -0 0.000235292)
(0.000246585 -4.64282e-09 -0 0.00024659 -0 0.00024659)
(0.000246514 4.85239e-09 -0 0.000246507 -0 0.000246508)
(0.00024576 -1.26999e-09 -0 0.000245762 -0 0.000245762)
(0.000245469 2.97447e-10 -0 0.000245468 -0 0.000245468)
(0.000244933 -7.74252e-11 -0 0.000244933 -0 0.000244933)
(0.000244675 2.00735e-11 -0 0.000244675 -0 0.000244675)
(0.000244222 -4.08263e-12 -0 0.000244222 -0 0.000244222)
(0.000243998 1.9593e-12 -0 0.000243998 -0 0.000243998)
(0.000243617 1.67881e-13 -0 0.000243617 -0 0.000243617)
(0.000243435 4.18032e-13 -0 0.000243435 -0 0.000243435)
(0.000243122 2.02424e-13 -0 0.000243122 -0 0.000243122)
(0.00024298 1.57257e-13 -0 0.00024298 -0 0.00024298)
(0.00024274 1.02818e-13 -0 0.00024274 -0 0.00024274)
(0.000242633 7.4088e-14 -0 0.000242633 -0 0.000242633)
(0.00024246 5.30865e-14 -0 0.00024246 -0 0.00024246)
(0.000242391 3.8882e-14 -0 0.000242391 -0 0.000242391)
(0.000242287 2.92029e-14 -0 0.000242287 -0 0.000242287)
(0.000242251 2.62679e-14 -0 0.000242251 -0 0.000242251)
(0.000242216 2.32538e-14 -0 0.000242216 -0 0.000242216)
(0.000242205 1.48862e-14 -0 0.000242205 -0 0.000242205)
(0.000255323 4.67045e-09 -0 0.000255322 -0 0.000255322)
(0.00025524 -5.03847e-09 -0 0.000255241 -0 0.000255242)
(0.000254434 1.33008e-09 -0 0.000254434 -0 0.000254434)
(0.000254124 -3.05996e-10 -0 0.000254124 -0 0.000254124)
(0.00025355 8.9014e-11 -0 0.00025355 -0 0.00025355)
(0.000253272 -1.78612e-11 -0 0.000253272 -0 0.000253272)
(0.000252786 7.52699e-12 -0 0.000252786 -0 0.000252786)
(0.000252546 -4.12381e-13 -0 0.000252546 -0 0.000252546)
(0.000252146 1.04363e-12 -0 0.000252146 -0 0.000252146)
(0.000251942 2.6698e-13 -0 0.000251942 -0 0.000251942)
(0.000251615 2.66205e-13 -0 0.000251615 -0 0.000251615)
(0.000251453 1.39844e-13 -0 0.000251453 -0 0.000251453)
(0.000251205 1.00394e-13 -0 0.000251205 -0 0.000251205)
(0.000251081 6.56335e-14 -0 0.000251081 -0 0.000251081)
(0.000250908 4.65424e-14 -0 0.000250908 -0 0.000250908)
(0.000250822 3.28952e-14 -0 0.000250822 -0 0.000250822)
(0.000250721 2.4445e-14 -0 0.000250721 -0 0.000250721)
(0.000250675 2.12652e-14 -0 0.000250675 -0 0.000250675)
(0.000250641 1.84138e-14 -0 0.000250641 -0 0.000250641)
(0.000250628 1.16599e-14 -0 0.000250628 -0 0.000250628)
(0.000264418 -9.55387e-10 -0 0.000264421 -0 0.000264421)
(0.000264375 3.86195e-09 -0 0.000264372 -0 0.000264372)
(0.000263559 -7.49679e-10 -0 0.00026356 -0 0.000263559)
(0.000263236 1.69462e-10 -0 0.000263235 -0 0.000263235)
(0.000262676 -1.62899e-11 -0 0.000262676 -0 0.000262676)
(0.000262381 7.038e-12 -0 0.000262381 -0 0.000262381)
(0.000261905 2.6717e-12 -0 0.000261905 -0 0.000261905)
(0.000261649 6.0574e-13 -0 0.000261649 -0 0.000261649)
(0.000261242 7.75421e-13 -0 0.000261242 -0 0.000261242)
(0.000261029 2.24309e-13 -0 0.000261029 -0 0.000261029)
(0.0002607 2.12891e-13 -0 0.0002607 -0 0.0002607)
(0.000260525 1.01072e-13 -0 0.000260525 -0 0.000260525)
(0.000260273 7.49221e-14 -0 0.000260273 -0 0.000260273)
(0.000260138 4.64173e-14 -0 0.000260138 -0 0.000260138)
(0.000259962 3.3224e-14 -0 0.000259962 -0 0.000259962)
(0.000259866 2.32741e-14 -0 0.000259866 -0 0.000259866)
(0.000259765 1.70479e-14 -0 0.000259765 -0 0.000259765)
(0.000259712 1.41075e-14 -0 0.000259712 -0 0.000259712)
(0.000259678 1.20885e-14 -0 0.000259678 -0 0.000259678)
(0.000259663 7.56279e-15 -0 0.000259663 -0 0.000259663)
(0.000266209 1.82782e-09 -0 0.000266204 -0 0.000266204)
(0.000266165 -3.79138e-09 -0 0.00026617 -0 0.00026617)
(0.000266159 9.92567e-10 -0 0.000266157 -0 0.000266158)
(0.000266135 -2.34032e-10 -0 0.000266136 -0 0.000266136)
(0.000266128 5.65863e-11 -0 0.000266128 -0 0.000266128)
(0.000266111 -1.70557e-11 -0 0.000266111 -0 0.000266111)
(0.000266105 2.0615e-12 -0 0.000266105 -0 0.000266105)
(0.000266096 -1.99767e-12 -0 0.000266096 -0 0.000266096)
(0.000266087 -4.98673e-13 -0 0.000266087 -0 0.000266087)
(0.000266081 -5.79665e-13 -0 0.000266081 -0 0.000266081)
(0.000266076 -3.64098e-13 -0 0.000266076 -0 0.000266076)
(0.000266072 -2.79857e-13 -0 0.000266072 -0 0.000266072)
(0.000266069 -1.98567e-13 -0 0.000266069 -0 0.000266069)
(0.000266068 -1.40613e-13 -0 0.000266068 -0 0.000266068)
(0.000266066 -9.43232e-14 -0 0.000266066 -0 0.000266066)
(0.000266065 -5.95275e-14 -0 0.000266065 -0 0.000266065)
(0.000266064 -3.37517e-14 -0 0.000266064 -0 0.000266064)
(0.000266064 -1.33189e-14 -0 0.000266064 -0 0.000266064)
(0.000266064 4.31128e-16 -0 0.000266064 -0 0.000266064)
(0.000266064 2.54384e-15 -0 0.000266064 -0 0.000266064)
)
;

boundaryField
{
    movingWall
    {
        type            kqRWallFunction;
        value           nonuniform List<symmTensor> 
20
(
(0.000266205 -0 -0 0.000266205 -0 0.000266205)
(0.000266168 -0 -0 0.000266168 -0 0.000266168)
(0.000266158 -0 -0 0.000266158 -0 0.000266158)
(0.000266136 0 -0 0.000266136 -0 0.000266136)
(0.000266128 -0 -0 0.000266128 -0 0.000266128)
(0.000266111 0 -0 0.000266111 -0 0.000266111)
(0.000266105 -0 -0 0.000266105 -0 0.000266105)
(0.000266096 -0 -0 0.000266096 -0 0.000266096)
(0.000266087 -0 -0 0.000266087 -0 0.000266087)
(0.000266081 -0 -0 0.000266081 -0 0.000266081)
(0.000266076 -0 -0 0.000266076 -0 0.000266076)
(0.000266072 -0 -0 0.000266072 -0 0.000266072)
(0.000266069 -0 -0 0.000266069 -0 0.000266069)
(0.000266068 -0 -0 0.000266068 -0 0.000266068)
(0.000266066 -0 -0 0.000266066 -0 0.000266066)
(0.000266065 -0 -0 0.000266065 -0 0.000266065)
(0.000266064 -0 -0 0.000266064 -0 0.000266064)
(0.000266064 -0 -0 0.000266064 -0 0.000266064)
(0.000266064 -0 -0 0.000266064 -0 0.000266064)
(0.000266064 0 -0 0.000266064 -0 0.000266064)
)
;
    }
    fixedWalls
    {
        type            kqRWallFunction;
        value           nonuniform List<symmTensor> 
60
(
(4.10407e-05 -0 -0 4.10407e-05 -0 4.10407e-05)
(6.91612e-05 0 -0 6.91612e-05 -0 6.91612e-05)
(0.000114567 -0 -0 0.000114567 -0 0.000114567)
(0.000153438 0 -0 0.000153438 -0 0.000153438)
(0.000178699 -0 -0 0.000178699 -0 0.000178699)
(0.000193152 0 -0 0.000193152 -0 0.000193152)
(0.000201466 -0 -0 0.000201466 -0 0.000201466)
(0.000206705 0 -0 0.000206705 -0 0.000206705)
(0.000210558 -0 -0 0.000210558 -0 0.000210558)
(0.000213866 0 -0 0.000213866 -0 0.000213866)
(0.000217089 -0 -0 0.000217089 -0 0.000217089)
(0.000220491 0 -0 0.000220491 -0 0.000220491)
(0.000224255 -0 -0 0.000224255 -0 0.000224255)
(0.000228545 0 -0 0.000228545 -0 0.000228545)
(0.000233522 -0 -0 0.000233522 -0 0.000233522)
(0.000239417 0 -0 0.000239417 -0 0.000239417)
(0.000246589 -0 -0 0.000246589 -0 0.000246589)
(0.000255322 0 -0 0.000255322 -0 0.000255322)
(0.00026442 -0 -0 0.00026442 -0 0.00026442)
(0.000266205 0 -0 0.000266205 -0 0.000266205)
(4.10253e-05 0 -0 4.10253e-05 -0 4.10253e-05)
(6.88426e-05 0 -0 6.88426e-05 -0 6.88426e-05)
(0.000113685 0 -0 0.000113685 -0 0.000113685)
(0.000151819 0 -0 0.000151819 -0 0.000151819)
(0.000176465 0 -0 0.000176465 -0 0.000176465)
(0.000190512 0 -0 0.000190512 -0 0.000190512)
(0.000198577 0 -0 0.000198577 -0 0.000198577)
(0.000203654 0 -0 0.000203654 -0 0.000203654)
(0.000207385 0 -0 0.000207385 -0 0.000207385)
(0.000210591 0 -0 0.000210591 -0 0.000210591)
(0.00021371 0 -0 0.00021371 -0 0.00021371)
(0.000217003 0 -0 0.000217003 -0 0.000217003)
(0.000220646 0 -0 0.000220646 -0 0.000220646)
(0.00022479 0 -0 0.00022479 -0 0.00022479)
(0.0002296 0 -0 0.0002296 -0 0.0002296)
(0.000235292 0 -0 0.000235292 -0 0.000235292)
(0.000242205 0 -0 0.000242205 -0 0.000242205)
(0.000250628 0 -0 0.000250628 -0 0.000250628)
(0.000259663 0 -0 0.000259663 -0 0.000259663)
(0.000266064 0 -0 0.000266064 -0 0.000266064)
(4.10407e-05 -0 -0 4.10407e-05 -0 4.10407e-05)
(4.10388e-05 0 -0 4.10388e-05 -0 4.10388e-05)
(4.10365e-05 -0 -0 4.10365e-05 -0 4.10365e-05)
(4.10357e-05 0 -0 4.10357e-05 -0 4.10357e-05)
(4.10333e-05 -0 -0 4.10333e-05 -0 4.10333e-05)
(4.1033e-05 0 -0 4.1033e-05 -0 4.1033e-05)
(4.10307e-05 0 -0 4.10307e-05 -0 4.10307e-05)
(4.10309e-05 0 -0 4.10309e-05 -0 4.10309e-05)
(4.10287e-05 0 -0 4.10287e-05 -0 4.10287e-05)
(4.10291e-05 0 -0 4.10291e-05 -0 4.10291e-05)
(4.10274e-05 0 -0 4.10274e-05 -0 4.10274e-05)
(4.10275e-05 0 -0 4.10275e-05 -0 4.10275e-05)
(4.10265e-05 -0 -0 4.10265e-05 -0 4.10265e-05)
(4.10264e-05 -0 -0 4.10264e-05 -0 4.10264e-05)
(4.10259e-05 -0 -0 4.10259e-05 -0 4.10259e-05)
(4.10258e-05 -0 -0 4.10258e-05 -0 4.10258e-05)
(4.10255e-05 -0 -0 4.10255e-05 -0 4.10255e-05)
(4.10254e-05 -0 -0 4.10254e-05 -0 4.10254e-05)
(4.10253e-05 0 -0 4.10253e-05 -0 4.10253e-05)
(4.10253e-05 -0 -0 4.10253e-05 -0 4.10253e-05)
)
;
    }
    frontAndBack
    {
        type            empty;
    }
}


// ************************************************************************* //
