/*--------------------------------*- C++ -*----------------------------------*\
| =========                 |                                                 |
| \\      /  F ield         | OpenFOAM: The Open Source CFD Toolbox           |
|  \\    /   O peration     | Version:  2312                                  |
|   \\  /    A nd           | Website:  www.openfoam.com                      |
|    \\/     M anipulation  |                                                 |
\*---------------------------------------------------------------------------*/
FoamFile
{
    version     2.0;
    format      ascii;
    arch        "LSB;label=32;scalar=64";
    class       volSymmTensorField;
    location    "3";
    object      turbulenceProperties:devReff;
}
// * * * * * * * * * * * * * * * * * * * * * * * * * * * * * * * * * * * * * //

dimensions      [0 2 -2 0 0 0 0];

internalField   nonuniform List<symmTensor> 
400
(
(7.02815e-11 -2.7552e-10 -0 -2.24914e-11 -0 -4.77901e-11)
(-9.39921e-11 4.45049e-10 -0 4.34259e-11 -0 5.05662e-11)
(2.58573e-11 -1.0111e-10 -0 -1.18669e-11 -0 -1.39904e-11)
(-9.94841e-12 2.45797e-11 -0 4.86225e-12 -0 5.08617e-12)
(2.55931e-12 -4.5884e-12 -0 -9.85946e-13 -0 -1.57337e-12)
(-1.35813e-12 1.7304e-12 -0 8.29847e-13 -0 5.28286e-13)
(1.82925e-14 1.16361e-13 -0 1.52631e-13 -0 -1.70924e-13)
(-3.34922e-13 2.83876e-13 -0 2.81463e-13 -0 5.34588e-14)
(-1.38398e-13 1.27417e-13 -0 1.56866e-13 -0 -1.84684e-14)
(-1.30705e-13 6.79938e-14 -0 1.25249e-13 -0 5.45643e-15)
(-7.49456e-14 2.2747e-14 -0 7.68212e-14 -0 -1.87559e-15)
(-4.74577e-14 -4.3538e-15 -0 4.67945e-14 -0 6.63258e-16)
(-2.25662e-14 -1.73767e-14 -0 2.26276e-14 -0 -6.14751e-17)
(-7.16412e-15 -2.16923e-14 -0 6.97835e-15 -0 1.8577e-16)
(2.74332e-15 -2.01758e-14 -0 -2.85719e-15 -0 1.13865e-16)
(7.96979e-15 -1.57557e-14 -0 -8.09327e-15 -0 1.23485e-16)
(1.0322e-14 -9.6374e-15 -0 -1.03491e-14 -0 2.70872e-17)
(9.09021e-15 -3.08755e-15 -0 -9.18307e-15 -0 9.28608e-17)
(3.37442e-15 6.39547e-16 -0 -3.5084e-15 -0 1.33975e-16)
(8.71372e-16 6.38685e-17 -0 -9.79781e-16 -0 1.08409e-16)
(5.66376e-11 5.5033e-10 -0 -7.1332e-11 -0 1.46944e-11)
(-3.4391e-11 -5.7469e-10 -0 2.05252e-11 -0 1.38658e-11)
(7.81985e-12 1.41869e-10 -0 -4.22605e-12 -0 -3.5938e-12)
(-3.41706e-12 -3.43976e-11 -0 1.71537e-12 -0 1.7017e-12)
(4.38388e-13 8.73016e-12 -0 1.82487e-13 -0 -6.20875e-13)
(-8.06837e-13 -2.24942e-12 -0 5.87268e-13 -0 2.1957e-13)
(-2.12676e-13 4.78021e-13 -0 2.9955e-13 -0 -8.68744e-14)
(-3.13658e-13 -2.33804e-13 -0 2.83483e-13 -0 3.01751e-14)
(-1.67304e-13 -3.76398e-14 -0 1.78073e-13 -0 -1.07695e-14)
(-1.34111e-13 -7.19632e-14 -0 1.29956e-13 -0 4.15559e-15)
(-7.81753e-14 -4.48837e-14 -0 7.92693e-14 -0 -1.09397e-15)
(-4.68423e-14 -3.59391e-14 -0 4.61835e-14 -0 6.58831e-16)
(-2.07483e-14 -2.45158e-14 -0 2.07248e-14 -0 2.35144e-17)
(-4.63097e-15 -1.62825e-14 -0 4.42827e-15 -0 2.02698e-16)
(5.3943e-15 -9.74767e-15 -0 -5.53525e-15 -0 1.4095e-16)
(1.05719e-14 -5.18408e-15 -0 -1.06259e-14 -0 5.39423e-17)
(1.24607e-14 -1.67242e-15 -0 -1.24282e-14 -0 -3.25016e-17)
(1.04555e-14 2.23434e-15 -0 -1.06869e-14 -0 2.31353e-16)
(3.98704e-15 3.25959e-15 -0 -4.1418e-15 -0 1.54759e-16)
(1.11506e-15 1.95183e-15 -0 -1.19042e-15 -0 7.53591e-17)
(1.75625e-10 -4.12572e-10 -0 -1.30748e-11 -0 -1.6255e-10)
(-2.90218e-10 6.20375e-10 -0 1.44625e-10 -0 1.45593e-10)
(8.13515e-11 -1.35858e-10 -0 -3.989e-11 -0 -4.14615e-11)
(-3.07822e-11 3.31712e-11 -0 1.71337e-11 -0 1.36484e-11)
(8.27527e-12 -7.45032e-12 -0 -4.1378e-12 -0 -4.13747e-12)
(-3.56204e-12 1.51709e-12 -0 2.2344e-12 -0 1.32764e-12)
(5.22056e-13 -6.20376e-13 -0 -1.23321e-13 -0 -3.98735e-13)
(-5.6453e-13 -9.535e-14 -0 4.36178e-13 -0 1.28353e-13)
(-9.56464e-14 -1.73601e-13 -0 1.32687e-13 -0 -3.70404e-14)
(-1.47747e-13 -1.11338e-13 -0 1.35072e-13 -0 1.26752e-14)
(-6.38176e-14 -8.85364e-14 -0 6.70192e-14 -0 -3.20161e-15)
(-4.02708e-14 -6.28623e-14 -0 3.88634e-14 -0 1.40742e-15)
(-1.26299e-14 -4.36815e-14 -0 1.27493e-14 -0 -1.19369e-16)
(1.94597e-15 -2.81442e-14 -0 -2.20876e-15 -0 2.62788e-16)
(1.1082e-14 -1.6651e-14 -0 -1.12211e-14 -0 1.39074e-16)
(1.49522e-14 -8.50411e-15 -0 -1.51245e-14 -0 1.72344e-16)
(1.60118e-14 -2.17556e-15 -0 -1.59812e-14 -0 -3.05427e-17)
(1.32431e-14 4.58609e-15 -0 -1.33014e-14 -0 5.83309e-17)
(5.28299e-15 6.17851e-15 -0 -5.43776e-15 -0 1.54761e-16)
(1.29914e-15 3.80095e-15 -0 -1.41861e-15 -0 1.1947e-16)
(2.51955e-10 3.73423e-10 -0 -2.9571e-10 -0 4.37559e-11)
(-1.86517e-10 -6.88797e-10 -0 1.33998e-10 -0 5.25187e-11)
(3.3956e-11 1.37819e-10 -0 -2.56056e-11 -0 -8.35046e-12)
(-1.62792e-11 -3.46211e-11 -0 1.14608e-11 -0 4.81838e-12)
(2.00279e-12 5.8561e-12 -0 -1.17682e-12 -0 -8.25975e-13)
(-1.75773e-12 -1.9629e-12 -0 1.35503e-12 -0 4.02705e-13)
(-5.0147e-14 -1.34978e-13 -0 1.43421e-13 -0 -9.32739e-14)
(-3.43548e-13 -3.49388e-13 -0 3.01403e-13 -0 4.21449e-14)
(-1.13818e-13 -2.22594e-13 -0 1.23577e-13 -0 -9.75868e-15)
(-1.01884e-13 -1.6932e-13 -0 9.68692e-14 -0 5.01443e-15)
(-4.46814e-14 -1.25025e-13 -0 4.55556e-14 -0 -8.74146e-16)
(-2.03272e-14 -8.86151e-14 -0 1.96041e-14 -0 7.23035e-16)
(1.44207e-15 -6.07453e-14 -0 -1.49522e-15 -0 5.31487e-17)
(1.30647e-14 -3.85408e-14 -0 -1.3289e-14 -0 2.24288e-16)
(1.93231e-14 -2.2235e-14 -0 -1.95006e-14 -0 1.77463e-16)
(2.13508e-14 -1.07403e-14 -0 -2.13741e-14 -0 2.3261e-17)
(2.04516e-14 -2.06351e-15 -0 -2.03735e-14 -0 -7.80112e-17)
(1.56692e-14 7.61581e-15 -0 -1.59581e-14 -0 2.88889e-16)
(6.62762e-15 9.92272e-15 -0 -6.87557e-15 -0 2.47952e-16)
(1.79224e-15 6.09445e-15 -0 -1.81311e-15 -0 2.0864e-17)
(-1.41752e-10 -7.03461e-10 -0 3.12281e-10 -0 -1.70529e-10)
(-3.06458e-11 9.1853e-10 -0 -2.29169e-11 -0 5.35627e-11)
(3.52325e-11 -2.0627e-10 -0 -9.01568e-12 -0 -2.62168e-11)
(-8.78458e-12 5.09059e-11 -0 4.06001e-12 -0 4.72457e-12)
(5.16961e-12 -1.37213e-11 -0 -2.4264e-12 -0 -2.74321e-12)
(-1.80865e-12 2.3272e-12 -0 1.11795e-12 -0 6.90701e-13)
(3.45692e-13 -1.41322e-12 -0 -1.15675e-13 -0 -2.30018e-13)
(-3.04243e-13 -1.72809e-13 -0 2.27689e-13 -0 7.65547e-14)
(-2.22177e-14 -3.49226e-13 -0 4.37547e-14 -0 -2.1537e-14)
(-5.61637e-14 -1.90958e-13 -0 4.87835e-14 -0 7.38024e-15)
(-6.0805e-15 -1.56953e-13 -0 7.99983e-15 -0 -1.91933e-15)
(6.48122e-15 -1.05632e-13 -0 -7.2914e-15 -0 8.10187e-16)
(2.12763e-14 -7.27037e-14 -0 -2.1238e-14 -0 -3.82957e-17)
(2.74108e-14 -4.48645e-14 -0 -2.75913e-14 -0 1.80494e-16)
(2.95495e-14 -2.5045e-14 -0 -2.96808e-14 -0 1.31295e-16)
(2.81235e-14 -1.10689e-14 -0 -2.82683e-14 -0 1.44833e-16)
(2.50972e-14 -4.0572e-16 -0 -2.5022e-14 -0 -7.52328e-17)
(1.90768e-14 1.15874e-14 -0 -1.90953e-14 -0 1.85003e-17)
(8.32258e-15 1.41536e-14 -0 -8.53991e-15 -0 2.17339e-16)
(1.99167e-15 8.82977e-15 -0 -2.05985e-15 -0 6.81799e-17)
(4.38836e-10 1.3455e-10 -0 -6.30569e-10 -0 1.91733e-10)
(-2.08405e-10 -8.75067e-10 -0 1.81284e-10 -0 2.71208e-11)
(5.56546e-12 1.42482e-10 -0 -2.05071e-11 -0 1.49417e-11)
(-9.42376e-12 -3.56998e-11 -0 6.81922e-12 -0 2.60454e-12)
(-2.94126e-12 3.25174e-12 -0 1.02551e-12 -0 1.91575e-12)
(6.61625e-13 -1.35253e-12 -0 -3.62544e-13 -0 -2.99081e-13)
(-3.12525e-13 -6.09776e-13 -0 1.80938e-13 -0 1.31586e-13)
(1.51342e-13 -3.52782e-13 -0 -8.99089e-14 -0 -6.14326e-14)
(-2.75455e-14 -3.39207e-13 -0 1.30547e-14 -0 1.44908e-14)
(3.97395e-14 -2.15765e-13 -0 -3.32746e-14 -0 -6.46496e-15)
(2.83047e-14 -1.68703e-13 -0 -3.00244e-14 -0 1.71969e-15)
(4.15504e-14 -1.14201e-13 -0 -4.09421e-14 -0 -6.08334e-16)
(4.28521e-14 -7.71476e-14 -0 -4.30947e-14 -0 2.42671e-16)
(4.34087e-14 -4.63157e-14 -0 -4.34691e-14 -0 6.04826e-17)
(4.01472e-14 -2.42849e-14 -0 -4.03439e-14 -0 1.96748e-16)
(3.5706e-14 -8.93178e-15 -0 -3.56246e-14 -0 -8.13041e-17)
(2.9775e-14 2.61101e-15 -0 -2.9596e-14 -0 -1.79003e-16)
(2.11525e-14 1.62952e-14 -0 -2.14586e-14 -0 3.06131e-16)
(9.62055e-15 1.90579e-14 -0 -9.95912e-15 -0 3.38571e-16)
(2.54367e-15 1.19688e-14 -0 -2.46883e-15 -0 -7.4836e-17)
(-1.13076e-09 -5.4771e-10 -0 1.20113e-09 -0 -7.03682e-11)
(9.29905e-10 1.24978e-09 -0 -6.14637e-10 -0 -3.15269e-10)
(-1.67221e-10 -2.40067e-10 -0 1.18642e-10 -0 4.85791e-11)
(7.41198e-11 5.91701e-11 -0 -4.57399e-11 -0 -2.83798e-11)
(-1.17505e-11 -1.20305e-11 -0 7.62101e-12 -0 4.12954e-12)
(5.05292e-12 1.89616e-12 -0 -3.17446e-12 -0 -1.87846e-12)
(-1.00616e-12 -1.07413e-12 -0 5.45565e-13 -0 4.60598e-13)
(4.46625e-13 -2.92544e-13 -0 -3.20545e-13 -0 -1.2608e-13)
(1.68277e-15 -3.26457e-13 -0 -4.00394e-14 -0 3.83566e-14)
(1.14835e-13 -2.18759e-13 -0 -1.03483e-13 -0 -1.13518e-14)
(7.1008e-14 -1.63622e-13 -0 -7.38577e-14 -0 2.84967e-15)
(7.50073e-14 -1.12871e-13 -0 -7.39336e-14 -0 -1.07362e-15)
(6.53562e-14 -7.36156e-14 -0 -6.56296e-14 -0 2.73366e-16)
(5.90602e-14 -4.24641e-14 -0 -5.90167e-14 -0 -4.35065e-17)
(5.05062e-14 -1.98011e-14 -0 -5.06284e-14 -0 1.22154e-16)
(4.18921e-14 -4.39061e-15 -0 -4.19573e-14 -0 6.52062e-17)
(3.35478e-14 7.37885e-15 -0 -3.33979e-14 -0 -1.49865e-16)
(2.39115e-14 2.19459e-14 -0 -2.38716e-14 -0 -3.99019e-17)
(1.10546e-14 2.43966e-14 -0 -1.133e-14 -0 2.75413e-16)
(2.63165e-15 1.54921e-14 -0 -2.61564e-15 -0 -1.60135e-17)
(1.29934e-09 7.01755e-10 -0 -1.50986e-09 -0 2.10527e-10)
(-9.37681e-10 -1.57984e-09 -0 6.49778e-10 -0 2.87903e-10)
(1.33075e-10 2.98404e-10 -0 -1.08911e-10 -0 -2.41641e-11)
(-6.55267e-11 -7.55924e-11 -0 4.03954e-11 -0 2.51313e-11)
(5.81586e-12 1.35783e-11 -0 -4.73907e-12 -0 -1.07679e-12)
(-2.45921e-12 -3.58237e-12 -0 1.31745e-12 -0 1.14177e-12)
(6.68144e-13 2.44242e-13 -0 -4.97696e-13 -0 -1.70449e-13)
(1.91402e-13 -4.67834e-13 -0 -2.0385e-13 -0 1.24481e-14)
(1.84331e-13 -2.43103e-13 -0 -1.77331e-13 -0 -7.00046e-15)
(1.5118e-13 -2.08672e-13 -0 -1.4909e-13 -0 -2.09038e-15)
(1.1879e-13 -1.46008e-13 -0 -1.19401e-13 -0 6.11021e-16)
(1.03777e-13 -1.01029e-13 -0 -1.03266e-13 -0 -5.11196e-16)
(8.62993e-14 -6.30448e-14 -0 -8.641e-14 -0 1.10687e-16)
(7.24869e-14 -3.3364e-14 -0 -7.25046e-14 -0 1.77038e-17)
(5.89252e-14 -1.17295e-14 -0 -5.91007e-14 -0 1.7549e-16)
(4.73931e-14 2.62406e-15 -0 -4.72049e-14 -0 -1.88185e-16)
(3.64439e-14 1.34889e-14 -0 -3.61476e-14 -0 -2.96279e-16)
(2.44831e-14 2.81884e-14 -0 -2.4775e-14 -0 2.91905e-16)
(1.16445e-14 3.02002e-14 -0 -1.20587e-14 -0 4.1422e-16)
(3.05346e-15 1.93111e-14 -0 -2.87874e-15 -0 -1.74725e-16)
(-2.22647e-09 -6.02562e-10 -0 2.32942e-09 -0 -1.02954e-10)
(1.84251e-09 1.99216e-09 -0 -1.1942e-09 -0 -6.48306e-10)
(-3.23657e-10 -3.56186e-10 -0 2.24948e-10 -0 9.87087e-11)
(1.43522e-10 8.78268e-11 -0 -8.50042e-11 -0 -5.8518e-11)
(-2.16312e-11 -1.51059e-11 -0 1.33976e-11 -0 8.23362e-12)
(9.08708e-12 2.47724e-12 -0 -5.34275e-12 -0 -3.74433e-12)
(-1.69382e-12 -8.47376e-13 -0 7.52723e-13 -0 9.41095e-13)
(8.01036e-13 -2.826e-13 -0 -5.70872e-13 -0 -2.30164e-13)
(7.95394e-14 -2.2625e-13 -0 -1.59064e-13 -0 7.9525e-14)
(2.32877e-13 -1.75983e-13 -0 -2.14025e-13 -0 -1.88522e-14)
(1.47003e-13 -1.17692e-13 -0 -1.52435e-13 -0 5.4327e-15)
(1.31188e-13 -8.05251e-14 -0 -1.29486e-13 -0 -1.70229e-15)
(1.02599e-13 -4.56954e-14 -0 -1.03004e-13 -0 4.04655e-16)
(8.29723e-14 -1.95493e-14 -0 -8.28654e-14 -0 -1.06934e-16)
(6.48484e-14 -4.10177e-16 -0 -6.4955e-14 -0 1.06616e-16)
(4.98249e-14 1.16789e-14 -0 -4.98079e-14 -0 -1.69953e-17)
(3.72409e-14 2.09257e-14 -0 -3.70016e-14 -0 -2.39287e-16)
(2.52719e-14 3.50021e-14 -0 -2.51729e-14 -0 -9.90468e-17)
(1.21277e-14 3.61578e-14 -0 -1.24464e-14 -0 3.18704e-16)
(2.85849e-15 2.32818e-14 -0 -2.76075e-15 -0 -9.77359e-17)
(3.04953e-09 1.02847e-09 -0 -3.14312e-09 -0 9.35894e-11)
(-2.58164e-09 -2.6775e-09 -0 1.68078e-09 -0 9.00868e-10)
(4.57314e-10 5.00362e-10 -0 -3.19501e-10 -0 -1.37813e-10)
(-2.01384e-10 -1.23716e-10 -0 1.21147e-10 -0 8.02368e-11)
(3.13051e-11 2.15224e-11 -0 -2.05007e-11 -0 -1.08044e-11)
(-1.16541e-11 -5.06219e-12 -0 6.67929e-12 -0 4.97476e-12)
(3.12814e-12 5.92201e-13 -0 -2.01285e-12 -0 -1.11529e-12)
(-3.08326e-13 -3.22128e-13 -0 2.58712e-14 -0 2.82455e-13)
(5.05571e-13 -1.5173e-13 -0 -4.1129e-13 -0 -9.42808e-14)
(1.93282e-13 -1.2214e-13 -0 -2.12203e-13 -0 1.89205e-14)
(1.99171e-13 -8.53056e-14 -0 -1.9369e-13 -0 -5.48134e-15)
(1.44306e-13 -5.0241e-14 -0 -1.4564e-13 -0 1.33399e-15)
(1.15533e-13 -2.33067e-14 -0 -1.15193e-13 -0 -3.3996e-16)
(8.82321e-14 -1.35265e-15 -0 -8.83951e-14 -0 1.62986e-16)
(6.68553e-14 1.36149e-14 -0 -6.69937e-14 -0 1.38369e-16)
(5.01582e-14 2.25262e-14 -0 -4.98857e-14 -0 -2.72583e-16)
(3.62724e-14 2.91768e-14 -0 -3.58572e-14 -0 -4.15212e-16)
(2.31421e-14 4.18643e-14 -0 -2.33947e-14 -0 2.52606e-16)
(1.13556e-14 4.20501e-14 -0 -1.18168e-14 -0 4.61111e-16)
(2.93376e-15 2.72176e-14 -0 -2.68601e-15 -0 -2.47757e-16)
(-4.12794e-09 -1.59496e-09 -0 4.05235e-09 -0 7.55861e-11)
(3.65478e-09 3.58332e-09 -0 -2.30998e-09 -0 -1.3448e-09)
(-6.78171e-10 -7.02309e-10 -0 4.52569e-10 -0 2.25601e-10)
(2.93089e-10 1.68806e-10 -0 -1.72164e-10 -0 -1.20925e-10)
(-4.89877e-11 -3.3065e-11 -0 2.99738e-11 -0 1.90139e-11)
(1.93855e-11 6.33007e-12 -0 -1.12884e-11 -0 -8.0971e-12)
(-3.96994e-12 -1.68638e-12 -0 2.00811e-12 -0 1.96183e-12)
(1.58399e-12 1.87138e-14 -0 -1.06528e-12 -0 -5.18701e-13)
(-3.84617e-14 -1.52766e-13 -0 -1.39754e-13 -0 1.78215e-13)
(3.53522e-13 -7.10355e-14 -0 -3.1333e-13 -0 -4.01916e-14)
(1.81753e-13 -3.88233e-14 -0 -1.94786e-13 -0 1.30332e-14)
(1.6581e-13 -1.55293e-14 -0 -1.62469e-13 -0 -3.34131e-15)
(1.17869e-13 5.17241e-15 -0 -1.18782e-13 -0 9.13084e-16)
(8.92335e-14 2.00528e-14 -0 -8.89995e-14 -0 -2.33973e-16)
(6.43797e-14 2.98906e-14 -0 -6.45043e-14 -0 1.24564e-16)
(4.61025e-14 3.44631e-14 -0 -4.5991e-14 -0 -1.11525e-16)
(3.21619e-14 3.78622e-14 -0 -3.18391e-14 -0 -3.2279e-16)
(2.074e-14 4.85472e-14 -0 -2.05771e-14 -0 -1.62868e-16)
(1.02647e-14 4.75176e-14 -0 -1.05902e-14 -0 3.25548e-16)
(2.29852e-15 3.084e-14 -0 -2.15372e-15 -0 -1.44804e-16)
(5.01889e-09 2.30398e-09 -0 -4.7635e-09 -0 -2.55394e-10)
(-4.58168e-09 -4.62757e-09 -0 2.86615e-09 -0 1.71553e-09)
(8.57733e-10 9.23577e-10 -0 -5.677e-10 -0 -2.90033e-10)
(-3.69592e-10 -2.24552e-10 -0 2.15596e-10 -0 1.53996e-10)
(6.45666e-11 4.22089e-11 -0 -4.05864e-11 -0 -2.39802e-11)
(-2.29406e-11 -9.58886e-12 -0 1.27987e-11 -0 1.01419e-11)
(6.39403e-12 1.6966e-12 -0 -3.91475e-12 -0 -2.47927e-12)
(-9.34032e-13 -3.51625e-13 -0 3.24112e-13 -0 6.09919e-13)
(8.57045e-13 2.04259e-14 -0 -6.41827e-13 -0 -2.15217e-13)
(1.91711e-13 -6.67884e-15 -0 -2.37649e-13 -0 4.59375e-14)
(2.52008e-13 1.19164e-14 -0 -2.37702e-13 -0 -1.43061e-14)
(1.54323e-13 2.84678e-14 -0 -1.5807e-13 -0 3.74761e-15)
(1.18766e-13 3.71366e-14 -0 -1.17801e-13 -0 -9.65078e-16)
(8.16364e-14 4.46536e-14 -0 -8.19538e-14 -0 3.17391e-16)
(5.66122e-14 4.75534e-14 -0 -5.66664e-14 -0 5.41491e-17)
(3.87037e-14 4.70597e-14 -0 -3.83392e-14 -0 -3.64484e-16)
(2.56256e-14 4.64865e-14 -0 -2.509e-14 -0 -5.35632e-16)
(1.49252e-14 5.44358e-14 -0 -1.50989e-14 -0 1.73686e-16)
(7.58599e-15 5.20834e-14 -0 -8.03476e-15 -0 4.4877e-16)
(1.87676e-15 3.38911e-14 -0 -1.62167e-15 -0 -2.55085e-16)
(-5.78772e-09 -3.61311e-09 -0 4.86299e-09 -0 9.2472e-10)
(5.76577e-09 5.9111e-09 -0 -3.46843e-09 -0 -2.29734e-09)
(-1.11428e-09 -1.25562e-09 -0 6.91199e-10 -0 4.23083e-10)
(4.88675e-10 3.01616e-10 -0 -2.79946e-10 -0 -2.08729e-10)
(-8.64241e-11 -6.10658e-11 -0 5.11602e-11 -0 3.52639e-11)
(3.41617e-11 1.40586e-11 -0 -1.93649e-11 -0 -1.47968e-11)
(-7.40254e-12 -2.88356e-12 -0 3.86775e-12 -0 3.5348e-12)
(2.71736e-12 5.79677e-13 -0 -1.72379e-12 -0 -9.9357e-13)
(-2.95053e-13 -7.14932e-14 -0 -3.55228e-14 -0 3.30576e-13)
(4.71061e-13 9.05984e-14 -0 -3.95714e-13 -0 -7.53467e-14)
(1.69412e-13 7.35621e-14 -0 -1.95182e-13 -0 2.57703e-14)
(1.68329e-13 7.71616e-14 -0 -1.61688e-13 -0 -6.64061e-15)
(1.00531e-13 7.42206e-14 -0 -1.02266e-13 -0 1.73559e-15)
(6.90771e-14 7.07621e-14 -0 -6.84327e-14 -0 -6.44348e-16)
(4.24191e-14 6.58488e-14 -0 -4.25055e-14 -0 8.63987e-17)
(2.60758e-14 5.92306e-14 -0 -2.58022e-14 -0 -2.73614e-16)
(1.52202e-14 5.41485e-14 -0 -1.48304e-14 -0 -3.89788e-16)
(8.32955e-15 5.90554e-14 -0 -8.12486e-15 -0 -2.04692e-16)
(4.36977e-15 5.54091e-14 -0 -4.64246e-15 -0 2.72692e-16)
(7.72772e-16 3.59945e-14 -0 -6.52485e-16 -0 -1.20287e-16)
(5.6059e-09 4.81143e-09 -0 -4.09765e-09 -0 -1.50826e-09)
(-6.02055e-09 -6.8125e-09 -0 3.46797e-09 -0 2.55258e-09)
(1.17546e-09 1.56464e-09 -0 -6.9071e-10 -0 -4.84752e-10)
(-5.29469e-10 -3.59993e-10 -0 2.98062e-10 -0 2.31408e-10)
(9.56972e-11 7.89674e-11 -0 -5.62378e-11 -0 -3.94593e-11)
(-3.64614e-11 -1.7736e-11 -0 2.00968e-11 -0 1.63646e-11)
(9.72244e-12 3.64775e-12 -0 -5.88072e-12 -0 -3.84173e-12)
(-1.85422e-12 -6.22544e-13 -0 7.76778e-13 -0 1.07745e-12)
(1.22432e-12 2.95397e-13 -0 -8.84459e-13 -0 -3.39857e-13)
(1.35339e-13 1.4599e-13 -0 -2.13459e-13 -0 7.81207e-14)
(2.63198e-13 1.54131e-13 -0 -2.39197e-13 -0 -2.4001e-14)
(1.18812e-13 1.3367e-13 -0 -1.24578e-13 -0 5.76606e-15)
(8.35238e-14 1.13188e-13 -0 -8.1424e-14 -0 -2.0998e-15)
(4.32476e-14 9.76982e-14 -0 -4.34447e-14 -0 1.97085e-16)
(2.18924e-14 8.30803e-14 -0 -2.17234e-14 -0 -1.68994e-16)
(9.11418e-15 7.00296e-14 -0 -8.65081e-15 -0 -4.63366e-16)
(2.17123e-15 6.0383e-14 -0 -1.56174e-15 -0 -6.09493e-16)
(-1.68727e-15 6.18092e-14 -0 1.61357e-15 -0 7.36977e-17)
(-5.67773e-16 5.67686e-14 -0 2.15784e-16 -0 3.51989e-16)
(-1.57526e-16 3.68682e-14 -0 3.17229e-16 -0 -1.59703e-16)
(-5.49041e-09 -6.15889e-09 -0 3.52358e-09 -0 1.96682e-09)
(6.21475e-09 7.60993e-09 -0 -3.32565e-09 -0 -2.8891e-09)
(-1.28155e-09 -1.86506e-09 -0 6.9191e-10 -0 5.89645e-10)
(5.62646e-10 4.269e-10 -0 -2.96206e-10 -0 -2.6644e-10)
(-1.1097e-10 -1.06767e-10 -0 5.81091e-11 -0 5.28613e-11)
(4.43549e-11 2.42239e-11 -0 -2.37371e-11 -0 -2.06178e-11)
(-1.00734e-11 -5.74134e-12 -0 4.74954e-12 -0 5.32387e-12)
(3.92088e-12 1.73315e-12 -0 -2.37354e-12 -0 -1.54734e-12)
(-5.49068e-13 -3.76699e-15 -0 4.84551e-14 -0 5.00613e-13)
(5.53905e-13 3.79536e-13 -0 -4.2567e-13 -0 -1.28234e-13)
(8.95843e-14 2.23815e-13 -0 -1.28383e-13 -0 3.87986e-14)
(1.13497e-13 1.98881e-13 -0 -1.00741e-13 -0 -1.27562e-14)
(3.35426e-14 1.51631e-13 -0 -3.57312e-14 -0 2.18867e-15)
(1.18146e-14 1.21927e-13 -0 -1.02722e-14 -0 -1.54242e-15)
(-6.90433e-15 9.72383e-14 -0 6.92649e-15 -0 -2.21689e-17)
(-1.29791e-14 7.77227e-14 -0 1.34746e-14 -0 -4.95468e-16)
(-1.47012e-14 6.36167e-14 -0 1.51513e-14 -0 -4.50171e-16)
(-1.26059e-14 6.19013e-14 -0 1.28164e-14 -0 -2.10431e-16)
(-6.05378e-15 5.59382e-14 -0 5.88777e-15 -0 1.66006e-16)
(-1.64176e-15 3.61372e-14 -0 1.63746e-15 -0 4.29847e-18)
(4.60257e-09 5.11034e-09 -0 -2.84378e-09 -0 -1.75879e-09)
(-5.31813e-09 -7.56689e-09 -0 2.88083e-09 -0 2.43731e-09)
(1.07591e-09 1.76288e-09 -0 -5.97645e-10 -0 -4.78262e-10)
(-4.71779e-10 -4.02983e-10 -0 2.52564e-10 -0 2.19215e-10)
(9.45714e-11 9.11566e-11 -0 -5.44491e-11 -0 -4.01223e-11)
(-3.21156e-11 -1.97075e-11 -0 1.65671e-11 -0 1.55485e-11)
(1.01005e-11 4.84926e-12 -0 -6.23793e-12 -0 -3.86254e-12)
(-1.56016e-12 -2.32887e-13 -0 5.0935e-13 -0 1.05081e-12)
(1.18137e-12 7.24642e-13 -0 -8.42304e-13 -0 -3.39069e-13)
(4.55812e-14 4.35086e-13 -0 -1.14959e-13 -0 6.93782e-14)
(1.41217e-13 3.4352e-13 -0 -1.13603e-13 -0 -2.76141e-14)
(6.07672e-15 2.5355e-13 -0 -8.58087e-15 -0 2.50415e-15)
(-1.52577e-14 1.84745e-13 -0 1.86571e-14 -0 -3.39938e-15)
(-3.71873e-14 1.39013e-13 -0 3.77392e-14 -0 -5.51934e-16)
(-4.15063e-14 1.05085e-13 -0 4.19877e-14 -0 -4.81358e-16)
(-3.89808e-14 8.02988e-14 -0 3.95797e-14 -0 -5.98824e-16)
(-3.31036e-14 6.31011e-14 -0 3.36898e-14 -0 -5.86153e-16)
(-2.56295e-14 5.86078e-14 -0 2.5562e-14 -0 6.74869e-17)
(-1.26573e-14 5.20327e-14 -0 1.23787e-14 -0 2.78615e-16)
(-3.06719e-15 3.36048e-14 -0 3.01823e-15 -0 4.89553e-17)
(-6.1223e-09 -9.04421e-09 -0 3.55983e-09 -0 2.56247e-09)
(7.44174e-09 8.91016e-09 -0 -4.00595e-09 -0 -3.43579e-09)
(-1.67356e-09 -2.34545e-09 -0 8.98454e-10 -0 7.75109e-10)
(7.01785e-10 5.50698e-10 -0 -3.86223e-10 -0 -3.15562e-10)
(-1.54576e-10 -1.44034e-10 -0 8.25479e-11 -0 7.20278e-11)
(6.06105e-11 3.74391e-11 -0 -3.50871e-11 -0 -2.55234e-11)
(-1.46016e-11 -7.64945e-12 -0 7.46526e-12 -0 7.13634e-12)
(5.486e-12 3.68099e-12 -0 -3.36729e-12 -0 -2.1187e-12)
(-1.25036e-12 3.16793e-13 -0 6.26453e-13 -0 6.23905e-13)
(4.68752e-13 7.91031e-13 -0 -2.7068e-13 -0 -1.98072e-13)
(-1.79705e-13 3.84671e-13 -0 1.32665e-13 -0 4.70404e-14)
(-4.74932e-14 2.99695e-13 -0 6.70165e-14 -0 -1.95234e-14)
(-1.06188e-13 1.96749e-13 -0 1.0291e-13 -0 3.27836e-15)
(-8.79168e-14 1.42189e-13 -0 8.96229e-14 -0 -1.70612e-15)
(-8.19193e-14 1.02287e-13 -0 8.13911e-14 -0 5.2819e-16)
(-6.67176e-14 7.51415e-14 -0 6.68091e-14 -0 -9.14933e-17)
(-5.28968e-14 5.66527e-14 -0 5.2862e-14 -0 3.48038e-17)
(-3.80094e-14 5.11142e-14 -0 3.79195e-14 -0 8.98493e-17)
(-1.86911e-14 4.53365e-14 -0 1.85356e-14 -0 1.55572e-16)
(-4.74966e-15 2.91193e-14 -0 4.56945e-15 -0 1.80201e-16)
(1.23162e-09 9.02354e-09 -0 -5.88361e-10 -0 -6.43261e-10)
(-1.2386e-09 -9.17182e-09 -0 3.47936e-10 -0 8.90664e-10)
(1.44422e-10 2.43532e-09 -0 -1.39595e-11 -0 -1.30462e-10)
(-8.33293e-11 -5.61664e-10 -0 -1.83444e-12 -0 8.51638e-11)
(7.60459e-12 1.64179e-10 -0 4.61669e-12 -0 -1.22213e-11)
(-2.57012e-13 -3.30293e-11 -0 -5.14508e-12 -0 5.40209e-12)
(9.78536e-13 1.39835e-11 -0 7.41303e-13 -0 -1.71984e-12)
(2.88112e-13 -7.68209e-13 -0 -4.96658e-13 -0 2.08546e-13)
(-2.67803e-13 1.95273e-12 -0 4.42599e-13 -0 -1.74796e-13)
(-2.38312e-13 5.00968e-13 -0 2.2642e-13 -0 1.18917e-14)
(-2.7092e-13 5.0164e-13 -0 2.82907e-13 -0 -1.19877e-14)
(-2.13946e-13 2.64295e-13 -0 2.1301e-13 -0 9.35527e-16)
(-1.84141e-13 1.90514e-13 -0 1.84933e-13 -0 -7.92284e-16)
(-1.49449e-13 1.24925e-13 -0 1.49055e-13 -0 3.93442e-16)
(-1.21342e-13 8.89376e-14 -0 1.20927e-13 -0 4.14799e-16)
(-9.42434e-14 6.30521e-14 -0 9.4257e-14 -0 -1.36369e-17)
(-7.10393e-14 4.70344e-14 -0 7.14032e-14 -0 -3.63904e-16)
(-4.9483e-14 4.10436e-14 -0 4.95883e-14 -0 -1.05345e-16)
(-2.3986e-14 3.56089e-14 -0 2.38288e-14 -0 1.57168e-16)
(-6.09948e-15 2.26239e-14 -0 5.81056e-15 -0 2.88918e-16)
(-3.08872e-09 -1.83083e-09 -0 1.60025e-09 -0 1.48848e-09)
(3.96652e-09 6.98346e-09 -0 -2.1697e-09 -0 -1.79682e-09)
(-8.90154e-10 -1.36319e-09 -0 5.01734e-10 -0 3.88419e-10)
(3.57201e-10 3.08868e-10 -0 -1.98258e-10 -0 -1.58944e-10)
(-8.64999e-11 -2.98254e-11 -0 5.39053e-11 -0 3.25945e-11)
(2.46508e-11 1.29189e-11 -0 -1.29357e-11 -0 -1.17151e-11)
(-1.02805e-11 4.92551e-12 -0 7.15389e-12 -0 3.12662e-12)
(5.45635e-13 1.11975e-12 -0 2.10602e-13 -0 -7.56236e-13)
(-1.68572e-12 1.43947e-12 -0 1.40653e-12 -0 2.79185e-13)
(-5.0958e-13 4.17572e-13 -0 5.61479e-13 -0 -5.18992e-14)
(-5.27275e-13 3.97933e-13 -0 5.05638e-13 -0 2.16372e-14)
(-3.352e-13 1.89476e-13 -0 3.3813e-13 -0 -2.93001e-15)
(-2.66188e-13 1.41008e-13 -0 2.6433e-13 -0 1.85783e-15)
(-2.00818e-13 8.76255e-14 -0 2.00601e-13 -0 2.17531e-16)
(-1.55295e-13 6.29603e-14 -0 1.54989e-13 -0 3.06447e-16)
(-1.16772e-13 4.42424e-14 -0 1.17261e-13 -0 -4.88497e-16)
(-8.67099e-14 3.25283e-14 -0 8.72178e-14 -0 -5.07954e-16)
(-6.0314e-14 2.70034e-14 -0 6.02605e-14 -0 5.35045e-17)
(-2.94283e-14 2.31832e-14 -0 2.92767e-14 -0 1.51567e-16)
(-6.87809e-15 1.45528e-14 -0 6.43932e-15 -0 4.38768e-16)
(5.87484e-09 3.49699e-09 -0 -3.24107e-09 -0 -2.63376e-09)
(-7.19437e-09 -7.25387e-09 -0 4.10934e-09 -0 3.08503e-09)
(1.8187e-09 1.89904e-09 -0 -1.02482e-09 -0 -7.93882e-10)
(-7.21847e-10 -4.47778e-10 -0 4.37355e-10 -0 2.84492e-10)
(1.78845e-10 1.08267e-10 -0 -1.03233e-10 -0 -7.5612e-11)
(-7.31052e-11 -3.26337e-11 -0 4.74035e-11 -0 2.57017e-11)
(1.53386e-11 3.94437e-12 -0 -8.14199e-12 -0 -7.19665e-12)
(-8.54904e-12 -3.82231e-12 -0 6.17175e-12 -0 2.37729e-12)
(4.88508e-13 -9.54155e-13 -0 1.72783e-13 -0 -6.61291e-13)
(-1.48363e-12 -1.10913e-12 -0 1.24973e-12 -0 2.33906e-13)
(-4.11939e-13 -6.96665e-13 -0 4.66202e-13 -0 -5.42634e-14)
(-4.69333e-13 -5.35484e-13 -0 4.43481e-13 -0 2.58518e-14)
(-2.82647e-13 -3.79941e-13 -0 2.85399e-13 -0 -2.75179e-15)
(-2.29586e-13 -2.69053e-13 -0 2.25338e-13 -0 4.24725e-15)
(-1.675e-13 -1.8048e-13 -0 1.66522e-13 -0 9.77896e-16)
(-1.26578e-13 -1.13901e-13 -0 1.25762e-13 -0 8.16155e-16)
(-9.42158e-14 -6.45813e-14 -0 9.35898e-14 -0 6.25914e-16)
(-6.81616e-14 -2.54847e-14 -0 6.7374e-14 -0 7.87583e-16)
(-3.44921e-14 8.2493e-16 -0 3.44523e-14 -0 3.9806e-17)
(-6.99572e-15 4.86745e-15 -0 6.51022e-15 -0 4.855e-16)
)
;

boundaryField
{
    movingWall
    {
        type            calculated;
        value           nonuniform List<symmTensor> 
20
(
(1.36441e-08 -7.90471e-09 -0 -2.32269e-08 -0 9.58278e-09)
(-6.26988e-09 -1.07489e-09 -0 7.63309e-09 -0 -1.36321e-09)
(1.5448e-09 -1.93462e-11 -0 -1.84253e-09 -0 2.97732e-10)
(-5.22486e-10 1.55381e-11 -0 5.64598e-10 -0 -4.21113e-11)
(1.30107e-10 -3.7092e-11 -0 -1.38751e-10 -0 8.64354e-12)
(-4.64732e-11 4.48691e-12 -0 4.57801e-11 -0 6.93162e-13)
(1.03505e-11 -7.86312e-12 -0 -9.94365e-12 -0 -4.06847e-13)
(-4.90937e-12 -9.63179e-13 -0 4.60288e-12 -0 3.0649e-13)
(4.31239e-13 -2.07887e-12 -0 -3.13602e-13 -0 -1.17637e-13)
(-7.75165e-13 -9.44534e-13 -0 7.30425e-13 -0 4.47396e-14)
(-1.85064e-13 -8.32009e-13 -0 1.99385e-13 -0 -1.43208e-14)
(-2.30454e-13 -5.42201e-13 -0 2.24519e-13 -0 5.93531e-15)
(-1.3461e-13 -4.03746e-13 -0 1.35606e-13 -0 -9.95617e-16)
(-1.10287e-13 -2.77405e-13 -0 1.08948e-13 -0 1.33912e-15)
(-7.99322e-14 -1.88361e-13 -0 7.94372e-14 -0 4.94996e-16)
(-6.03999e-14 -1.19444e-13 -0 5.99848e-14 -0 4.15131e-16)
(-4.4995e-14 -6.93673e-14 -0 4.47148e-14 -0 2.80203e-16)
(-3.28176e-14 -2.98347e-14 -0 3.27204e-14 -0 9.71804e-17)
(-1.68103e-14 -3.18545e-15 -0 1.71359e-14 -0 -3.25572e-16)
(-3.33495e-15 2.30331e-15 -0 3.09854e-15 -0 2.36411e-16)
)
;
    }
    fixedWalls
    {
        type            calculated;
        value           nonuniform List<symmTensor> 
60
(
(2.94698e-10 -1.32059e-09 -0 -1.3855e-10 -0 -1.56147e-10)
(1.10017e-10 1.50933e-09 -0 -8.24818e-11 -0 -2.7535e-11)
(6.98333e-10 -1.45272e-09 -0 -3.05823e-10 -0 -3.9251e-10)
(4.26994e-10 1.49153e-09 -0 -3.05951e-10 -0 -1.21044e-10)
(4.96258e-11 -1.88212e-09 -0 1.02187e-10 -0 -1.51813e-10)
(4.628e-10 1.75775e-09 -0 -4.43777e-10 -0 -1.90225e-11)
(-1.96488e-09 -2.46696e-09 -0 1.30754e-09 -0 6.57339e-10)
(1.9801e-09 3.09254e-09 -0 -1.42722e-09 -0 -5.52884e-10)
(-3.85745e-09 -3.89005e-09 -0 2.54406e-09 -0 1.31339e-09)
(5.33636e-09 5.23054e-09 -0 -3.48391e-09 -0 -1.85246e-09)
(-7.53657e-09 -7.0186e-09 -0 4.76688e-09 -0 2.76969e-09)
(9.36481e-09 9.08887e-09 -0 -5.81014e-09 -0 -3.55467e-09)
(-1.16741e-08 -1.16719e-08 -0 6.81815e-09 -0 4.85592e-09)
(1.21024e-08 1.35399e-08 -0 -6.69328e-09 -0 -5.40913e-09)
(-1.26166e-08 -1.50493e-08 -0 6.69228e-09 -0 5.92433e-09)
(1.05978e-08 1.49122e-08 -0 -5.56486e-09 -0 -5.03294e-09)
(-1.47359e-08 -1.73123e-08 -0 7.61066e-09 -0 7.12529e-09)
(2.76235e-09 1.76177e-08 -0 -1.36793e-09 -0 -1.39441e-09)
(-7.55302e-09 -1.36243e-08 -0 3.80323e-09 -0 3.74979e-09)
(1.46051e-08 1.50973e-08 -0 -7.44751e-09 -0 -7.15763e-09)
(1.23938e-15 4.59387e-18 -0 -9.98162e-16 -0 -2.41216e-16)
(1.24197e-15 1.15612e-15 -0 -1.02555e-15 -0 -2.16419e-16)
(1.20966e-15 2.00992e-15 -0 -1.05153e-15 -0 -1.58132e-16)
(1.20062e-15 2.95457e-15 -0 -1.10095e-15 -0 -9.96707e-17)
(1.14873e-15 4.02251e-15 -0 -1.13573e-15 -0 -1.30038e-17)
(1.1205e-15 5.20951e-15 -0 -1.18052e-15 -0 6.00188e-17)
(1.03022e-15 6.51335e-15 -0 -1.18204e-15 -0 1.51816e-16)
(9.55874e-16 7.88834e-15 -0 -1.16745e-15 -0 2.1158e-16)
(7.90016e-16 9.28389e-15 -0 -1.07111e-15 -0 2.8109e-16)
(6.29061e-16 1.06063e-14 -0 -9.31273e-16 -0 3.02212e-16)
(3.58873e-16 1.17625e-14 -0 -6.85772e-16 -0 3.26899e-16)
(1.05614e-16 1.26343e-14 -0 -3.95969e-16 -0 2.90355e-16)
(-2.25091e-16 1.31262e-14 -0 -2.05524e-17 -0 2.45643e-16)
(-4.92455e-16 1.31445e-14 -0 3.64961e-16 -0 1.27494e-16)
(-8.00183e-16 1.26318e-14 -0 8.04558e-16 -0 -4.37496e-18)
(-1.0865e-15 1.1531e-14 -0 1.27417e-15 -0 -1.87668e-16)
(-1.48489e-15 9.74115e-15 -0 1.81514e-15 -0 -3.30256e-16)
(-1.85712e-15 7.20873e-15 -0 2.26651e-15 -0 -4.09388e-16)
(-1.80036e-15 4.19963e-15 -0 2.34127e-15 -0 -5.40918e-16)
(-1.27488e-15 1.21422e-15 -0 2.07547e-15 -0 -8.00592e-16)
(9.84178e-10 -3.97685e-11 -0 -1.88623e-09 -0 9.02052e-10)
(-2.89284e-10 2.67483e-10 -0 4.78019e-10 -0 -1.88735e-10)
(7.14978e-11 -5.41792e-11 -0 -1.15279e-10 -0 4.37808e-11)
(-1.98846e-11 1.3015e-11 -0 2.93115e-11 -0 -9.42694e-12)
(4.93389e-12 -1.12094e-12 -0 -6.99315e-12 -0 2.05926e-12)
(-1.7119e-12 1.10062e-12 -0 2.11166e-12 -0 -3.99755e-13)
(2.05814e-13 5.06323e-13 -0 -2.80011e-13 -0 7.41966e-14)
(-2.7905e-13 3.31518e-13 -0 2.87949e-13 -0 -8.8992e-15)
(-8.40533e-14 2.17224e-13 -0 8.46843e-14 -0 -6.31017e-16)
(-9.37794e-14 1.05662e-13 -0 9.28467e-14 -0 9.3269e-16)
(-5.14631e-14 4.60583e-14 -0 5.20989e-14 -0 -6.35739e-16)
(-3.33303e-14 3.49775e-15 -0 3.31881e-14 -0 1.42237e-16)
(-1.58004e-14 -1.70072e-14 -0 1.59466e-14 -0 -1.46168e-16)
(-5.14293e-15 -2.54524e-14 -0 5.17331e-15 -0 -3.03766e-17)
(1.78198e-15 -2.50889e-14 -0 -1.73491e-15 -0 -4.70673e-17)
(5.46632e-15 -2.02494e-14 -0 -5.47476e-15 -0 8.44409e-18)
(7.14584e-15 -1.29203e-14 -0 -7.13052e-15 -0 -1.53175e-17)
(6.22026e-15 -4.67802e-15 -0 -6.18196e-15 -0 -3.82989e-17)
(2.35266e-15 3.53914e-16 -0 -2.45126e-15 -0 9.86041e-17)
(6.01723e-16 -3.28596e-16 -0 -6.72729e-16 -0 7.10059e-17)
)
;
    }
    frontAndBack
    {
        type            empty;
    }
}


// ************************************************************************* //
