/*--------------------------------*- C++ -*----------------------------------*\
| =========                 |                                                 |
| \\      /  F ield         | OpenFOAM: The Open Source CFD Toolbox           |
|  \\    /   O peration     | Version:  2312                                  |
|   \\  /    A nd           | Website:  www.openfoam.com                      |
|    \\/     M anipulation  |                                                 |
\*---------------------------------------------------------------------------*/
FoamFile
{
    version     2.0;
    format      ascii;
    arch        "LSB;label=32;scalar=64";
    class       volScalarField;
    location    "3";
    object      turbulenceProperties:nuEff;
}
// * * * * * * * * * * * * * * * * * * * * * * * * * * * * * * * * * * * * * //

dimensions      [0 2 -1 0 0 0 0];

internalField   nonuniform List<scalar> 
400
(
1.43769e-05
1.43768e-05
1.43766e-05
1.43767e-05
1.43764e-05
1.43766e-05
1.43763e-05
1.43765e-05
1.43762e-05
1.43764e-05
1.43761e-05
1.43762e-05
1.43761e-05
1.43762e-05
1.43761e-05
1.43761e-05
1.43761e-05
1.43761e-05
1.43761e-05
1.43761e-05
1.56563e-05
1.59763e-05
1.5945e-05
1.59316e-05
1.59063e-05
1.58924e-05
1.58683e-05
1.5854e-05
1.58308e-05
1.58162e-05
1.57938e-05
1.5779e-05
1.57574e-05
1.57425e-05
1.57215e-05
1.57065e-05
1.5686e-05
1.56712e-05
1.56608e-05
1.56436e-05
1.7243e-05
1.78307e-05
1.77711e-05
1.7746e-05
1.76985e-05
1.76723e-05
1.76272e-05
1.76003e-05
1.75576e-05
1.753e-05
1.74894e-05
1.74614e-05
1.74225e-05
1.73945e-05
1.73569e-05
1.73292e-05
1.72926e-05
1.72652e-05
1.72469e-05
1.7216e-05
1.83588e-05
1.91902e-05
1.91041e-05
1.90687e-05
1.89997e-05
1.89629e-05
1.88976e-05
1.88601e-05
1.87982e-05
1.87598e-05
1.87013e-05
1.86623e-05
1.86065e-05
1.85674e-05
1.85141e-05
1.8475e-05
1.84239e-05
1.83849e-05
1.83595e-05
1.83162e-05
1.90083e-05
2.00002e-05
1.98971e-05
1.98534e-05
1.97713e-05
1.9726e-05
1.96486e-05
1.96025e-05
1.95291e-05
1.94821e-05
1.94133e-05
1.93654e-05
1.93002e-05
1.92523e-05
1.91899e-05
1.91423e-05
1.90823e-05
1.90354e-05
1.90054e-05
1.89541e-05
1.93595e-05
2.0444e-05
2.03293e-05
2.02825e-05
2.01915e-05
2.01422e-05
2.00569e-05
2.00066e-05
1.99258e-05
1.98751e-05
1.97984e-05
1.97474e-05
1.96747e-05
1.96234e-05
1.95546e-05
1.9503e-05
1.94376e-05
1.93863e-05
1.93537e-05
1.9298e-05
1.95553e-05
2.06922e-05
2.05717e-05
2.05223e-05
2.04268e-05
2.03749e-05
2.02851e-05
2.02323e-05
2.01475e-05
2.00941e-05
2.0014e-05
1.996e-05
1.98845e-05
1.983e-05
1.97585e-05
1.9704e-05
1.96359e-05
1.95819e-05
1.95479e-05
1.94896e-05
1.96766e-05
2.0846e-05
2.07217e-05
2.06706e-05
2.05726e-05
2.05187e-05
2.04265e-05
2.03717e-05
2.0285e-05
2.02291e-05
2.01479e-05
2.00911e-05
2.00146e-05
1.99576e-05
1.98848e-05
1.98283e-05
1.97585e-05
1.97028e-05
1.96679e-05
1.9608e-05
1.97646e-05
2.09579e-05
2.08305e-05
2.07792e-05
2.06774e-05
2.06235e-05
2.05286e-05
2.04732e-05
2.03843e-05
2.03279e-05
2.02441e-05
2.01872e-05
2.01079e-05
2.0051e-05
1.99755e-05
1.9919e-05
1.98469e-05
1.97908e-05
1.9755e-05
1.9694e-05
1.98395e-05
2.10527e-05
2.09233e-05
2.08703e-05
2.07682e-05
2.07122e-05
2.06164e-05
2.05591e-05
2.04695e-05
2.04111e-05
2.0327e-05
2.0268e-05
2.01885e-05
2.01295e-05
2.00539e-05
1.99954e-05
1.99231e-05
1.98653e-05
1.98292e-05
1.97672e-05
1.99118e-05
2.11448e-05
2.10125e-05
2.09596e-05
2.08542e-05
2.07984e-05
2.07e-05
2.06428e-05
2.05507e-05
2.04923e-05
2.04059e-05
2.03468e-05
2.02654e-05
2.0206e-05
2.01287e-05
2.00697e-05
1.99959e-05
1.99374e-05
1.99007e-05
1.98378e-05
1.99874e-05
2.124e-05
2.11077e-05
2.10521e-05
2.09452e-05
2.08885e-05
2.0788e-05
2.07303e-05
2.06361e-05
2.05772e-05
2.04889e-05
2.04294e-05
2.03457e-05
2.02863e-05
2.02067e-05
2.01476e-05
2.0072e-05
2.0013e-05
1.99755e-05
1.99117e-05
2.00704e-05
2.13462e-05
2.12096e-05
2.11537e-05
2.10459e-05
2.09867e-05
2.08859e-05
2.08254e-05
2.07312e-05
2.06696e-05
2.0581e-05
2.05191e-05
2.04352e-05
2.03734e-05
2.02937e-05
2.02323e-05
2.01564e-05
2.00956e-05
2.00578e-05
1.99927e-05
2.01642e-05
2.1466e-05
2.1326e-05
2.12697e-05
2.11583e-05
2.10988e-05
2.09948e-05
2.09341e-05
2.08366e-05
2.07749e-05
2.06837e-05
2.06211e-05
2.05351e-05
2.04723e-05
2.03909e-05
2.03284e-05
2.02508e-05
2.0189e-05
2.01504e-05
2.00841e-05
2.02717e-05
2.16025e-05
2.14619e-05
2.14016e-05
2.12888e-05
2.12268e-05
2.11217e-05
2.1058e-05
2.09597e-05
2.08953e-05
2.08027e-05
2.0738e-05
2.06504e-05
2.05859e-05
2.05028e-05
2.04387e-05
2.03597e-05
2.02962e-05
2.02568e-05
2.01891e-05
2.03974e-05
2.17632e-05
2.16208e-05
2.15571e-05
2.14415e-05
2.13779e-05
2.12688e-05
2.12045e-05
2.11025e-05
2.10369e-05
2.09416e-05
2.0875e-05
2.07856e-05
2.07187e-05
2.06341e-05
2.05677e-05
2.04871e-05
2.04216e-05
2.03814e-05
2.03119e-05
2.05485e-05
2.19582e-05
2.18088e-05
2.17451e-05
2.16238e-05
2.15594e-05
2.14461e-05
2.13801e-05
2.12739e-05
2.12073e-05
2.11071e-05
2.10404e-05
2.09462e-05
2.08792e-05
2.07899e-05
2.07233e-05
2.06387e-05
2.05722e-05
2.05303e-05
2.04589e-05
2.07291e-05
2.21898e-05
2.20343e-05
2.19685e-05
2.18425e-05
2.17755e-05
2.16579e-05
2.15893e-05
2.14798e-05
2.141e-05
2.13069e-05
2.12368e-05
2.114e-05
2.10696e-05
2.09782e-05
2.0908e-05
2.08214e-05
2.07518e-05
2.07087e-05
2.06348e-05
2.09132e-05
2.2372e-05
2.22194e-05
2.21561e-05
2.20349e-05
2.19675e-05
2.18541e-05
2.17847e-05
2.16773e-05
2.16064e-05
2.1505e-05
2.14329e-05
2.1337e-05
2.12641e-05
2.11729e-05
2.10997e-05
2.10125e-05
2.09395e-05
2.08958e-05
2.08194e-05
2.09504e-05
2.09499e-05
2.09498e-05
2.0949e-05
2.09492e-05
2.09486e-05
2.09488e-05
2.09483e-05
2.09483e-05
2.0948e-05
2.09481e-05
2.09479e-05
2.0948e-05
2.09478e-05
2.09479e-05
2.09478e-05
2.09478e-05
2.09478e-05
2.09478e-05
2.09478e-05
)
;

boundaryField
{
    movingWall
    {
        type            calculated;
        value           uniform 1e-05;
    }
    fixedWalls
    {
        type            calculated;
        value           uniform 1e-05;
    }
    frontAndBack
    {
        type            empty;
    }
}


// ************************************************************************* //
