/*--------------------------------*- C++ -*----------------------------------*\
| =========                 |                                                 |
| \\      /  F ield         | OpenFOAM: The Open Source CFD Toolbox           |
|  \\    /   O peration     | Version:  2312                                  |
|   \\  /    A nd           | Website:  www.openfoam.com                      |
|    \\/     M anipulation  |                                                 |
\*---------------------------------------------------------------------------*/
FoamFile
{
    version     2.0;
    format      ascii;
    arch        "LSB;label=32;scalar=64";
    class       volScalarField;
    location    "3";
    object      turbulenceProperties:L;
}
// * * * * * * * * * * * * * * * * * * * * * * * * * * * * * * * * * * * * * //

dimensions      [0 1 0 0 0 0 0];

internalField   nonuniform List<scalar> 
400
(
0.00101847
0.00101848
0.00101847
0.00101849
0.00101846
0.0010185
0.00101846
0.0010185
0.00101846
0.0010185
0.00101846
0.00101849
0.00101847
0.00101849
0.00101847
0.00101848
0.00101848
0.00101848
0.00101848
0.00101848
0.00101391
0.0010713
0.00106609
0.00106386
0.00105961
0.00105728
0.00105319
0.00105076
0.00104679
0.00104429
0.00104043
0.00103787
0.0010341
0.00103149
0.00102781
0.00102517
0.00102153
0.00101889
0.00101705
0.00101396
0.00100875
0.00109066
0.00108307
0.00107987
0.00107372
0.00107034
0.00106445
0.00106093
0.00105529
0.00105164
0.00104623
0.00104249
0.00103724
0.00103345
0.00102833
0.00102454
0.0010195
0.00101572
0.00101319
0.00100888
0.00100594
0.00110608
0.0010967
0.00109282
0.00108521
0.00108112
0.00107382
0.00106958
0.00106261
0.00105821
0.00105153
0.00104702
0.00104057
0.00103599
0.00102975
0.00102512
0.00101906
0.0010144
0.00101135
0.00100614
0.00100456
0.00111528
0.00110495
0.00110056
0.00109219
0.00108756
0.00107958
0.00107478
0.00106714
0.00106218
0.00105491
0.00104981
0.00104282
0.00103764
0.00103087
0.00102567
0.00101907
0.00101387
0.00101055
0.00100482
0.00100391
0.00112036
0.00110935
0.00110484
0.00109596
0.00109112
0.00108269
0.00107767
0.0010696
0.00106445
0.0010567
0.00105144
0.001044
0.00103864
0.00103149
0.00102605
0.00101914
0.00101367
0.0010102
0.0010042
0.00100355
0.00112308
0.00111178
0.00110713
0.00109802
0.00109304
0.00108438
0.00107921
0.00107094
0.00106563
0.00105772
0.00105227
0.0010447
0.00103914
0.00103186
0.00102625
0.00101919
0.00101356
0.00101001
0.00100386
0.00100332
0.00112471
0.00111322
0.00110849
0.00109926
0.00109417
0.00108539
0.00108011
0.00107176
0.0010663
0.00105835
0.00105273
0.00104513
0.00103942
0.00103208
0.00102634
0.0010192
0.00101347
0.00100988
0.00100365
0.00100315
0.00112587
0.00111422
0.0011095
0.00110005
0.00109498
0.00108605
0.00108076
0.00107228
0.00106681
0.00105871
0.00105311
0.00104534
0.00103966
0.00103215
0.00102644
0.00101916
0.00101341
0.00100977
0.00100348
0.00100298
0.00112679
0.00111507
0.00111024
0.00110081
0.00109561
0.00108666
0.00108125
0.00107276
0.00106716
0.00105908
0.00105334
0.00104559
0.00103977
0.00103229
0.00102644
0.00101918
0.00101333
0.00100967
0.00100333
0.00100283
0.00112772
0.00111583
0.00111104
0.00110141
0.00109625
0.00108715
0.00108177
0.00107313
0.00106756
0.00105934
0.00105362
0.00104576
0.00103993
0.00103235
0.00102649
0.00101914
0.00101326
0.00100957
0.00100318
0.00100265
0.00112855
0.00111679
0.00111178
0.0011021
0.0010969
0.00108769
0.00108229
0.00107355
0.00106796
0.00105963
0.00105391
0.00104591
0.00104011
0.00103239
0.00102654
0.00101908
0.00101319
0.00100945
0.00100302
0.00100247
0.00112962
0.00111756
0.0011126
0.0011029
0.00109755
0.00108837
0.00108279
0.00107409
0.00106833
0.00106003
0.00105415
0.00104617
0.00104022
0.00103253
0.00102654
0.00101909
0.00101308
0.00100934
0.00100284
0.00100227
0.00113078
0.00111857
0.00111361
0.00110371
0.00109837
0.001089
0.00108345
0.00107456
0.00106882
0.00106038
0.00105447
0.00104639
0.0010404
0.00103262
0.00102657
0.00101904
0.00101298
0.0010092
0.00100264
0.00100201
0.001132
0.00111988
0.00111463
0.00110472
0.00109923
0.00108985
0.00108413
0.00107524
0.00106933
0.00106085
0.00105483
0.00104668
0.00104059
0.00103274
0.0010266
0.00101901
0.00101286
0.00100904
0.00100241
0.00100171
0.00113348
0.00112135
0.00111591
0.00110588
0.00110032
0.00109074
0.00108501
0.00107592
0.00106998
0.00106136
0.00105525
0.00104703
0.00104081
0.0010329
0.00102664
0.00101898
0.00101272
0.00100886
0.00100214
0.00100138
0.00113539
0.0011229
0.00111752
0.00110718
0.00110162
0.00109184
0.00108604
0.00107674
0.00107079
0.0010619
0.00105583
0.00104734
0.00104116
0.00103298
0.00102675
0.00101886
0.00101257
0.00100863
0.00100182
0.00100095
0.0011374
0.00112468
0.00111921
0.00110868
0.00110301
0.00109304
0.00108713
0.00107771
0.00107159
0.0010626
0.00105635
0.00104777
0.0010414
0.00103316
0.00102673
0.00101878
0.00101232
0.00100834
0.0010014
0.00100045
0.0011343
0.00112203
0.0011169
0.00110694
0.00110137
0.00109192
0.00108605
0.00107699
0.0010709
0.00106221
0.00105591
0.00104756
0.00104109
0.00103301
0.00102643
0.00101857
0.00101192
0.00100794
0.0010009
0.0010005
0.00100052
0.00100053
0.0010005
0.00100053
0.00100051
0.00100053
0.00100051
0.00100052
0.00100051
0.00100053
0.00100051
0.00100053
0.00100052
0.00100053
0.00100052
0.00100053
0.00100052
0.00100052
0.00100052
)
;

boundaryField
{
    movingWall
    {
        type            calculated;
        value           nonuniform List<scalar> 
20
(
0.0010005
0.00100052
0.00100053
0.0010005
0.00100053
0.00100051
0.00100053
0.00100051
0.00100052
0.00100051
0.00100053
0.00100051
0.00100053
0.00100052
0.00100053
0.00100052
0.00100053
0.00100052
0.00100052
0.00100052
)
;
    }
    fixedWalls
    {
        type            calculated;
        value           nonuniform List<scalar> 
60
(
0.00101847
0.00101391
0.00100875
0.00100594
0.00100456
0.00100391
0.00100355
0.00100332
0.00100315
0.00100298
0.00100283
0.00100265
0.00100247
0.00100227
0.00100201
0.00100171
0.00100138
0.00100095
0.00100045
0.0010005
0.00101848
0.00101396
0.00100888
0.00100614
0.00100482
0.0010042
0.00100386
0.00100365
0.00100348
0.00100333
0.00100318
0.00100302
0.00100284
0.00100264
0.00100241
0.00100214
0.00100182
0.0010014
0.0010009
0.00100052
0.00101847
0.00101848
0.00101847
0.00101849
0.00101846
0.0010185
0.00101846
0.0010185
0.00101846
0.0010185
0.00101846
0.00101849
0.00101847
0.00101849
0.00101847
0.00101848
0.00101848
0.00101848
0.00101848
0.00101848
)
;
    }
    frontAndBack
    {
        type            empty;
    }
}


// ************************************************************************* //
