/*--------------------------------*- C++ -*----------------------------------*\
| =========                 |                                                 |
| \\      /  F ield         | OpenFOAM: The Open Source CFD Toolbox           |
|  \\    /   O peration     | Version:  2312                                  |
|   \\  /    A nd           | Website:  www.openfoam.com                      |
|    \\/     M anipulation  |                                                 |
\*---------------------------------------------------------------------------*/
FoamFile
{
    version     2.0;
    format      ascii;
    arch        "LSB;label=32;scalar=64";
    class       volScalarField;
    location    "3";
    object      turbulenceProperties:nut;
}
// * * * * * * * * * * * * * * * * * * * * * * * * * * * * * * * * * * * * * //

dimensions      [0 2 -1 0 0 0 0];

internalField   nonuniform List<scalar> 
400
(
4.37685e-06
4.37678e-06
4.37662e-06
4.37667e-06
4.37641e-06
4.37656e-06
4.37626e-06
4.37645e-06
4.37615e-06
4.37636e-06
4.3761e-06
4.37624e-06
4.37609e-06
4.37616e-06
4.37608e-06
4.37611e-06
4.37607e-06
4.37608e-06
4.37607e-06
4.37607e-06
5.65634e-06
5.97632e-06
5.94498e-06
5.93156e-06
5.90629e-06
5.89242e-06
5.86829e-06
5.85399e-06
5.83078e-06
5.81622e-06
5.7938e-06
5.77905e-06
5.75738e-06
5.74247e-06
5.72148e-06
5.70652e-06
5.68602e-06
5.67116e-06
5.66084e-06
5.6436e-06
7.24301e-06
7.83072e-06
7.77115e-06
7.74604e-06
7.69846e-06
7.67234e-06
7.62721e-06
7.60032e-06
7.5576e-06
7.53002e-06
7.4894e-06
7.46144e-06
7.42251e-06
7.39452e-06
7.35692e-06
7.32915e-06
7.29262e-06
7.26524e-06
7.24689e-06
7.21599e-06
8.3588e-06
9.19025e-06
9.10406e-06
9.06867e-06
8.99971e-06
8.96295e-06
8.89757e-06
8.86007e-06
8.79821e-06
8.75984e-06
8.70129e-06
8.66235e-06
8.60647e-06
8.56743e-06
8.51413e-06
8.47497e-06
8.42392e-06
8.38494e-06
8.35945e-06
8.31623e-06
9.00829e-06
1.00002e-05
9.8971e-06
9.85343e-06
9.77131e-06
9.72604e-06
9.6486e-06
9.60246e-06
9.52911e-06
9.48209e-06
9.41328e-06
9.36542e-06
9.30022e-06
9.25226e-06
9.18989e-06
9.14229e-06
9.08235e-06
9.03537e-06
9.00537e-06
8.95414e-06
9.35946e-06
1.0444e-05
1.03293e-05
1.02825e-05
1.01915e-05
1.01422e-05
1.00569e-05
1.00066e-05
9.92581e-06
9.87508e-06
9.79842e-06
9.74739e-06
9.67471e-06
9.62337e-06
9.55463e-06
9.50304e-06
9.43764e-06
9.38632e-06
9.35371e-06
9.29797e-06
9.55534e-06
1.06922e-05
1.05717e-05
1.05223e-05
1.04268e-05
1.03749e-05
1.02851e-05
1.02323e-05
1.01475e-05
1.00941e-05
1.0014e-05
9.95996e-06
9.8845e-06
9.82997e-06
9.75853e-06
9.70403e-06
9.63586e-06
9.58188e-06
9.54786e-06
9.48956e-06
9.67655e-06
1.0846e-05
1.07217e-05
1.06706e-05
1.05726e-05
1.05187e-05
1.04265e-05
1.03717e-05
1.0285e-05
1.02291e-05
1.01479e-05
1.00911e-05
1.00146e-05
9.95762e-06
9.8848e-06
9.8283e-06
9.7585e-06
9.70281e-06
9.66792e-06
9.60802e-06
9.76462e-06
1.09579e-05
1.08305e-05
1.07792e-05
1.06774e-05
1.06235e-05
1.05286e-05
1.04732e-05
1.03843e-05
1.03279e-05
1.02441e-05
1.01872e-05
1.01079e-05
1.0051e-05
9.97548e-06
9.919e-06
9.84692e-06
9.79075e-06
9.75496e-06
9.694e-06
9.83945e-06
1.10527e-05
1.09233e-05
1.08703e-05
1.07682e-05
1.07122e-05
1.06164e-05
1.05591e-05
1.04695e-05
1.04111e-05
1.0327e-05
1.0268e-05
1.01885e-05
1.01295e-05
1.00539e-05
9.99537e-06
9.92306e-06
9.86527e-06
9.82918e-06
9.76716e-06
9.91184e-06
1.11448e-05
1.10125e-05
1.09596e-05
1.08542e-05
1.07984e-05
1.07e-05
1.06428e-05
1.05507e-05
1.04923e-05
1.04059e-05
1.03468e-05
1.02654e-05
1.0206e-05
1.01287e-05
1.00697e-05
9.99588e-06
9.93741e-06
9.90067e-06
9.83776e-06
9.98738e-06
1.124e-05
1.11077e-05
1.10521e-05
1.09452e-05
1.08885e-05
1.0788e-05
1.07303e-05
1.06361e-05
1.05772e-05
1.04889e-05
1.04294e-05
1.03457e-05
1.02863e-05
1.02067e-05
1.01476e-05
1.0072e-05
1.0013e-05
9.97551e-06
9.91166e-06
1.00704e-05
1.13462e-05
1.12096e-05
1.11537e-05
1.10459e-05
1.09867e-05
1.08859e-05
1.08254e-05
1.07312e-05
1.06696e-05
1.0581e-05
1.05191e-05
1.04352e-05
1.03734e-05
1.02937e-05
1.02323e-05
1.01564e-05
1.00956e-05
1.00578e-05
9.99274e-06
1.01642e-05
1.1466e-05
1.1326e-05
1.12697e-05
1.11583e-05
1.10988e-05
1.09948e-05
1.09341e-05
1.08366e-05
1.07749e-05
1.06837e-05
1.06211e-05
1.05351e-05
1.04723e-05
1.03909e-05
1.03284e-05
1.02508e-05
1.0189e-05
1.01504e-05
1.00841e-05
1.02717e-05
1.16025e-05
1.14619e-05
1.14016e-05
1.12888e-05
1.12268e-05
1.11217e-05
1.1058e-05
1.09597e-05
1.08953e-05
1.08027e-05
1.0738e-05
1.06504e-05
1.05859e-05
1.05028e-05
1.04387e-05
1.03597e-05
1.02962e-05
1.02568e-05
1.01891e-05
1.03974e-05
1.17632e-05
1.16208e-05
1.15571e-05
1.14415e-05
1.13779e-05
1.12688e-05
1.12045e-05
1.11025e-05
1.10369e-05
1.09416e-05
1.0875e-05
1.07856e-05
1.07187e-05
1.06341e-05
1.05677e-05
1.04871e-05
1.04216e-05
1.03814e-05
1.03119e-05
1.05485e-05
1.19582e-05
1.18088e-05
1.17451e-05
1.16238e-05
1.15594e-05
1.14461e-05
1.13801e-05
1.12739e-05
1.12073e-05
1.11071e-05
1.10404e-05
1.09462e-05
1.08792e-05
1.07899e-05
1.07233e-05
1.06387e-05
1.05722e-05
1.05303e-05
1.04589e-05
1.07291e-05
1.21898e-05
1.20343e-05
1.19685e-05
1.18425e-05
1.17755e-05
1.16579e-05
1.15893e-05
1.14798e-05
1.141e-05
1.13069e-05
1.12368e-05
1.114e-05
1.10696e-05
1.09782e-05
1.0908e-05
1.08214e-05
1.07518e-05
1.07087e-05
1.06348e-05
1.09132e-05
1.2372e-05
1.22194e-05
1.21561e-05
1.20349e-05
1.19675e-05
1.18541e-05
1.17847e-05
1.16773e-05
1.16064e-05
1.1505e-05
1.14329e-05
1.1337e-05
1.12641e-05
1.11729e-05
1.10997e-05
1.10125e-05
1.09395e-05
1.08958e-05
1.08194e-05
1.09504e-05
1.09499e-05
1.09498e-05
1.0949e-05
1.09492e-05
1.09486e-05
1.09488e-05
1.09483e-05
1.09483e-05
1.0948e-05
1.09481e-05
1.09479e-05
1.0948e-05
1.09478e-05
1.09479e-05
1.09478e-05
1.09478e-05
1.09478e-05
1.09478e-05
1.09478e-05
)
;

boundaryField
{
    movingWall
    {
        type            nutkWallFunction;
        blending        stepwise;
        value           uniform 0;
    }
    fixedWalls
    {
        type            nutkWallFunction;
        blending        stepwise;
        value           uniform 0;
    }
    frontAndBack
    {
        type            empty;
    }
}


// ************************************************************************* //
