/*--------------------------------*- C++ -*----------------------------------*\
| =========                 |                                                 |
| \\      /  F ield         | OpenFOAM: The Open Source CFD Toolbox           |
|  \\    /   O peration     | Version:  2312                                  |
|   \\  /    A nd           | Website:  www.openfoam.com                      |
|    \\/     M anipulation  |                                                 |
\*---------------------------------------------------------------------------*/
FoamFile
{
    version     2.0;
    format      ascii;
    arch        "LSB;label=32;scalar=64";
    class       volScalarField;
    location    "3";
    object      turbulenceProperties:omega;
}
// * * * * * * * * * * * * * * * * * * * * * * * * * * * * * * * * * * * * * //

dimensions      [0 0 -1 0 0 0 0];

internalField   nonuniform List<scalar> 
400
(
14.0651
14.0647
14.0645
14.064
14.064
14.0635
14.0636
14.0631
14.0633
14.0627
14.063
14.0626
14.0627
14.0625
14.0626
14.0624
14.0625
14.0624
14.0624
14.0624
18.3408
17.3577
17.4358
17.4694
17.5347
17.5707
17.635
17.6734
17.7371
17.7776
17.8409
17.8833
17.9464
17.9906
18.0537
18.0992
18.1628
18.2095
18.2421
18.2975
23.7265
21.9433
22.0826
22.1421
22.2589
22.3236
22.4385
22.5081
22.6212
22.6954
22.8073
22.8855
22.997
23.0785
23.1904
23.2744
23.3875
23.4735
23.5317
23.6319
27.5347
25.04
25.2311
25.3117
25.4731
25.5614
25.7208
25.8159
25.9733
26.0753
26.2311
26.3394
26.495
26.6084
26.7642
26.8826
27.0394
27.1621
27.2429
27.3835
29.7558
26.7991
27.0209
27.1168
27.3046
27.4099
27.5952
27.7089
27.8925
28.0146
28.196
28.3261
28.507
28.6438
28.8257
28.9681
29.152
29.2994
29.3944
29.5614
30.9557
27.7354
27.9777
28.0788
28.2833
28.3967
28.5978
28.7207
28.9201
29.0516
29.2502
29.3898
29.5881
29.7354
29.9338
30.0885
30.2883
30.4494
30.5526
30.7345
31.6263
28.2571
28.5091
28.6148
28.8276
28.9462
29.1559
29.2843
29.4923
29.6299
29.8366
29.9833
30.1892
30.3444
30.5507
30.7134
30.9216
31.0909
31.1986
31.3888
32.0421
28.5804
28.8388
28.9472
29.1648
29.2869
29.5017
29.634
29.8464
29.989
30.1992
30.3517
30.5612
30.7221
30.9328
31.1008
31.314
31.4884
31.5989
31.7944
32.345
28.8157
29.0791
29.1883
29.412
29.5347
29.7543
29.8882
30.1051
30.2494
30.4649
30.6186
30.8338
30.9959
31.2125
31.382
31.6007
31.7776
31.8906
32.0897
32.6034
29.0173
29.2838
29.3959
29.6208
29.747
29.9688
30.106
30.3249
30.4729
30.69
30.8479
31.0646
31.2313
31.4492
31.6233
31.8439
32.0249
32.1391
32.3416
32.853
29.2112
29.4827
29.5946
29.8249
29.9512
30.1775
30.3154
30.5388
30.6876
30.9092
31.0683
31.2891
31.4575
31.6794
31.8556
32.08
32.2635
32.3796
32.5852
33.1154
29.4172
29.6868
29.8046
30.0373
30.1656
30.3957
30.5351
30.7624
30.9129
31.1385
31.2991
31.5248
31.6942
31.9212
32.0988
32.3278
32.5136
32.6318
32.8405
33.4031
29.6391
29.9177
30.0343
30.2696
30.4018
30.6334
30.7774
31.006
31.1613
31.3886
31.5539
31.7814
31.9557
32.1845
32.3671
32.5983
32.7887
32.9083
33.1209
33.7278
29.8906
30.1738
30.2919
30.533
30.6663
30.9035
31.0486
31.2832
31.4399
31.6723
31.8401
32.0722
32.2496
32.4828
32.6688
32.9046
33.0986
33.2206
33.4372
34.1018
30.1813
30.4642
30.5899
30.8335
30.9712
31.2112
31.3615
31.5987
31.7606
31.9967
32.169
32.4054
32.5871
32.825
33.0156
33.2559
33.4549
33.5793
33.8008
34.54
30.5194
30.8054
30.9364
31.1852
31.3258
31.5729
31.7253
31.9697
32.1346
32.3767
32.5535
32.7949
32.9823
33.2248
33.4215
33.6669
33.8718
33.9991
34.2263
35.0649
30.9213
31.2176
31.3494
31.6074
31.7503
32.005
32.1611
32.4136
32.5816
32.8332
33.0124
33.2636
33.4537
33.7064
33.9063
34.1613
34.371
34.5028
34.7366
35.6958
31.4084
31.7135
31.8491
32.1151
32.2627
32.5255
32.6869
32.9464
33.1212
33.3799
33.5666
33.8248
34.0231
34.2826
34.4914
34.7535
34.9722
35.108
35.3502
36.3442
32.0529
32.3534
32.482
32.7394
32.8866
33.141
33.3037
33.5579
33.7351
33.9894
34.181
34.4368
34.6417
34.9008
35.1181
35.3822
35.6111
35.7493
35.9996
36.465
36.4619
36.4606
36.4602
36.4586
36.4583
36.4569
36.4572
36.4561
36.456
36.4551
36.4554
36.4546
36.4549
36.4544
36.4546
36.4544
36.4545
36.4545
36.4545
)
;

boundaryField
{
    movingWall
    {
        type            calculated;
        value           nonuniform List<scalar> 
20
(
36.465
36.4619
36.4606
36.4602
36.4586
36.4583
36.4569
36.4572
36.4561
36.456
36.4551
36.4554
36.4546
36.4549
36.4544
36.4546
36.4544
36.4545
36.4545
36.4545
)
;
    }
    fixedWalls
    {
        type            calculated;
        value           nonuniform List<scalar> 
60
(
14.0651
18.3408
23.7265
27.5347
29.7558
30.9557
31.6263
32.0421
32.345
32.6034
32.853
33.1154
33.4031
33.7278
34.1018
34.54
35.0649
35.6958
36.3442
36.465
14.0624
18.2975
23.6319
27.3835
29.5614
30.7345
31.3888
31.7944
32.0897
32.3416
32.5852
32.8405
33.1209
33.4372
33.8008
34.2263
34.7366
35.3502
35.9996
36.4545
14.0651
14.0647
14.0645
14.064
14.064
14.0635
14.0636
14.0631
14.0633
14.0627
14.063
14.0626
14.0627
14.0625
14.0626
14.0624
14.0625
14.0624
14.0624
14.0624
)
;
    }
    frontAndBack
    {
        type            empty;
    }
}


// ************************************************************************* //
