/*--------------------------------*- C++ -*----------------------------------*\
| =========                 |                                                 |
| \\      /  F ield         | OpenFOAM: The Open Source CFD Toolbox           |
|  \\    /   O peration     | Version:  2312                                  |
|   \\  /    A nd           | Website:  www.openfoam.com                      |
|    \\/     M anipulation  |                                                 |
\*---------------------------------------------------------------------------*/
FoamFile
{
    version     2.0;
    format      ascii;
    arch        "LSB;label=32;scalar=64";
    class       volScalarField;
    location    "3";
    object      turbulenceProperties:k;
}
// * * * * * * * * * * * * * * * * * * * * * * * * * * * * * * * * * * * * * //

dimensions      [0 2 -2 0 0 0 0];

internalField   nonuniform List<scalar> 
400
(
6.15611e-05
6.15581e-05
6.15548e-05
6.15535e-05
6.155e-05
6.15496e-05
6.15461e-05
6.15463e-05
6.15431e-05
6.15436e-05
6.15411e-05
6.15413e-05
6.15398e-05
6.15397e-05
6.15389e-05
6.15387e-05
6.15382e-05
6.15382e-05
6.1538e-05
6.1538e-05
0.000103742
0.000103735
0.000103655
0.000103621
0.000103565
0.000103534
0.000103487
0.00010346
0.000103421
0.000103399
0.000103367
0.000103349
0.000103324
0.00010331
0.000103294
0.000103284
0.000103274
0.000103269
0.000103265
0.000103264
0.000171851
0.000171832
0.000171607
0.000171514
0.000171359
0.000171274
0.000171143
0.000171069
0.000170962
0.000170897
0.000170813
0.000170759
0.000170696
0.000170654
0.00017061
0.000170581
0.000170556
0.000170541
0.000170532
0.000170527
0.000230157
0.000230124
0.000229705
0.000229543
0.00022925
0.000229106
0.000228852
0.00022873
0.000228518
0.000228415
0.000228245
0.000228161
0.000228028
0.000227966
0.000227874
0.000227829
0.000227778
0.000227752
0.000227735
0.000227728
0.000268049
0.000267998
0.000267428
0.000267194
0.000266801
0.00026659
0.000266255
0.000266073
0.000265791
0.000265636
0.000265417
0.000265286
0.000265121
0.000265019
0.000264905
0.000264834
0.000264768
0.00026473
0.000264708
0.000264697
0.000289729
0.000289669
0.000288989
0.000288722
0.000288249
0.000288006
0.000287605
0.000287396
0.000287056
0.000286887
0.000286606
0.000286473
0.000286256
0.000286155
0.000286007
0.000285932
0.00028585
0.000285808
0.000285781
0.000285768
0.0003022
0.000302131
0.000301389
0.000301094
0.00030058
0.000300313
0.000299873
0.000299645
0.000299273
0.000299086
0.000298784
0.000298633
0.000298405
0.000298285
0.00029813
0.000298044
0.000297956
0.000297909
0.000297879
0.000297866
0.000310057
0.000309983
0.0003092
0.000308885
0.000308349
0.000308061
0.0003076
0.000307354
0.000306971
0.000306761
0.000306459
0.000306282
0.000306058
0.000305919
0.000305764
0.000305668
0.000305578
0.000305526
0.000305496
0.000305481
0.000315836
0.000315761
0.000314941
0.000314626
0.000314045
0.000313763
0.000313272
0.000313027
0.000312621
0.000312413
0.000312084
0.000311918
0.000311666
0.000311542
0.00031136
0.000311279
0.00031117
0.000311127
0.000311091
0.000311078
0.0003208
0.00032072
0.000319877
0.000319541
0.000318962
0.000318655
0.00031816
0.000317893
0.000317485
0.000317257
0.000316935
0.000316746
0.000316503
0.000316356
0.000316188
0.000316087
0.000315989
0.000315934
0.000315901
0.000315886
0.000325634
0.000325553
0.000324679
0.000324344
0.000323725
0.000323425
0.000322901
0.00032264
0.000322206
0.000321985
0.000321639
0.000321457
0.000321196
0.000321054
0.000320872
0.000320775
0.000320668
0.000320616
0.00032058
0.000320565
0.000330736
0.000330649
0.000329752
0.000329404
0.000328765
0.000328458
0.00032791
0.000327649
0.000327193
0.000326973
0.000326607
0.000326431
0.000326145
0.000326016
0.00032581
0.000325726
0.000325604
0.000325559
0.000325518
0.000325504
0.000336383
0.000336292
0.000335365
0.000334994
0.000334356
0.000334016
0.000333473
0.000333177
0.000332732
0.00033248
0.000332122
0.000331919
0.000331643
0.00033149
0.000331296
0.000331191
0.00033108
0.000331022
0.000330985
0.000330968
0.000342818
0.000342726
0.000341749
0.000341382
0.000340697
0.00034036
0.000339778
0.000339489
0.000339005
0.000338761
0.000338377
0.000338175
0.000337883
0.000337728
0.000337524
0.000337418
0.000337299
0.000337242
0.000337202
0.000337186
0.000350282
0.00035018
0.000349178
0.000348773
0.000348075
0.000347707
0.000347121
0.000346796
0.000346314
0.00034604
0.000345651
0.000345431
0.000345131
0.000344966
0.000344755
0.000344641
0.00034452
0.000344457
0.000344418
0.0003444
0.000359126
0.000359006
0.000357982
0.000357536
0.000356805
0.000356423
0.00035579
0.000355467
0.000354942
0.000354666
0.000354252
0.00035402
0.000353711
0.000353528
0.000353317
0.000353189
0.000353068
0.000352998
0.000352957
0.000352938
0.000369883
0.000369764
0.000368642
0.000368202
0.000367399
0.000367013
0.000366333
0.000365997
0.000365426
0.000365152
0.000364683
0.00036447
0.00036411
0.00036395
0.00036369
0.000363586
0.000363431
0.000363376
0.000363325
0.000363307
0.000382983
0.000382862
0.000381651
0.000381186
0.000380325
0.000379909
0.000379179
0.000378819
0.000378218
0.000377913
0.000377423
0.00037718
0.000376808
0.000376622
0.000376361
0.000376234
0.000376081
0.000376013
0.000375962
0.000375942
0.00039663
0.00039656
0.000395339
0.000394853
0.000394015
0.000393571
0.000392857
0.000392473
0.000391864
0.000391544
0.000391049
0.000390788
0.00039041
0.000390207
0.000389943
0.0003898
0.000389648
0.000389568
0.000389518
0.000389495
0.000399308
0.000399252
0.000399237
0.000399204
0.000399192
0.000399167
0.000399158
0.000399143
0.000399131
0.000399121
0.000399114
0.000399108
0.000399104
0.000399102
0.000399099
0.000399098
0.000399097
0.000399097
0.000399096
0.000399096
)
;

boundaryField
{
    movingWall
    {
        type            kqRWallFunction;
        value           nonuniform List<scalar> 
20
(
0.000399308
0.000399252
0.000399237
0.000399204
0.000399192
0.000399167
0.000399158
0.000399143
0.000399131
0.000399121
0.000399114
0.000399108
0.000399104
0.000399102
0.000399099
0.000399098
0.000399097
0.000399097
0.000399096
0.000399096
)
;
    }
    fixedWalls
    {
        type            kqRWallFunction;
        value           nonuniform List<scalar> 
60
(
6.15611e-05
0.000103742
0.000171851
0.000230157
0.000268049
0.000289729
0.0003022
0.000310057
0.000315836
0.0003208
0.000325634
0.000330736
0.000336383
0.000342818
0.000350282
0.000359126
0.000369883
0.000382983
0.00039663
0.000399308
6.1538e-05
0.000103264
0.000170527
0.000227728
0.000264697
0.000285768
0.000297866
0.000305481
0.000311078
0.000315886
0.000320565
0.000325504
0.000330968
0.000337186
0.0003444
0.000352938
0.000363307
0.000375942
0.000389495
0.000399096
6.15611e-05
6.15581e-05
6.15548e-05
6.15535e-05
6.155e-05
6.15496e-05
6.15461e-05
6.15463e-05
6.15431e-05
6.15436e-05
6.15411e-05
6.15413e-05
6.15398e-05
6.15397e-05
6.15389e-05
6.15387e-05
6.15382e-05
6.15382e-05
6.1538e-05
6.1538e-05
)
;
    }
    frontAndBack
    {
        type            empty;
    }
}


// ************************************************************************* //
