/*--------------------------------*- C++ -*----------------------------------*\
| =========                 |                                                 |
| \\      /  F ield         | OpenFOAM: The Open Source CFD Toolbox           |
|  \\    /   O peration     | Version:  2312                                  |
|   \\  /    A nd           | Website:  www.openfoam.com                      |
|    \\/     M anipulation  |                                                 |
\*---------------------------------------------------------------------------*/
FoamFile
{
    version     2.0;
    format      ascii;
    arch        "LSB;label=32;scalar=64";
    class       volScalarField;
    location    "3";
    object      turbulenceProperties:I;
}
// * * * * * * * * * * * * * * * * * * * * * * * * * * * * * * * * * * * * * //

dimensions      [0 0 0 0 0 0 0];

internalField   nonuniform List<scalar> 
400
(
0.0064063
0.00640615
0.00640597
0.00640591
0.00640573
0.0064057
0.00640552
0.00640554
0.00640537
0.00640539
0.00640526
0.00640527
0.0064052
0.00640519
0.00640515
0.00640514
0.00640511
0.00640511
0.0064051
0.0064051
0.00831632
0.00831607
0.00831286
0.00831146
0.00830923
0.00830798
0.00830612
0.00830502
0.00830346
0.00830256
0.00830127
0.00830055
0.00829957
0.00829901
0.00829834
0.00829794
0.00829756
0.00829734
0.00829721
0.00829715
0.0107036
0.010703
0.010696
0.0106931
0.0106883
0.0106856
0.0106816
0.0106792
0.0106759
0.0106739
0.0106712
0.0106696
0.0106676
0.0106663
0.0106649
0.010664
0.0106632
0.0106627
0.0106624
0.0106623
0.012387
0.0123861
0.0123749
0.0123705
0.0123626
0.0123587
0.0123518
0.0123486
0.0123428
0.01234
0.0123354
0.0123332
0.0123296
0.0123279
0.0123254
0.0123242
0.0123228
0.0123221
0.0123217
0.0123215
0.0133678
0.0133666
0.0133524
0.0133465
0.0133367
0.0133314
0.013323
0.0133185
0.0133114
0.0133076
0.013302
0.0132988
0.0132946
0.0132921
0.0132892
0.0132874
0.0132858
0.0132848
0.0132843
0.013284
0.0138979
0.0138965
0.0138802
0.0138738
0.0138624
0.0138565
0.0138469
0.0138419
0.0138337
0.0138296
0.0138228
0.0138196
0.0138144
0.0138119
0.0138084
0.0138066
0.0138046
0.0138036
0.0138029
0.0138026
0.0141939
0.0141923
0.0141748
0.0141679
0.0141558
0.0141495
0.0141391
0.0141338
0.014125
0.0141206
0.0141134
0.0141099
0.0141045
0.0141016
0.014098
0.014096
0.0140939
0.0140928
0.0140921
0.0140917
0.0143772
0.0143755
0.0143573
0.01435
0.0143376
0.0143309
0.0143202
0.0143144
0.0143055
0.0143006
0.0142936
0.0142894
0.0142842
0.014281
0.0142773
0.0142751
0.014273
0.0142718
0.0142711
0.0142707
0.0145106
0.0145089
0.01449
0.0144828
0.0144694
0.0144629
0.0144516
0.0144459
0.0144365
0.0144317
0.0144242
0.0144203
0.0144145
0.0144116
0.0144074
0.0144055
0.014403
0.014402
0.0144012
0.0144009
0.0146242
0.0146224
0.0146031
0.0145955
0.0145822
0.0145752
0.0145639
0.0145578
0.0145484
0.0145432
0.0145358
0.0145315
0.0145259
0.0145225
0.0145187
0.0145164
0.0145141
0.0145129
0.0145121
0.0145117
0.014734
0.0147321
0.0147123
0.0147047
0.0146907
0.0146839
0.014672
0.0146661
0.0146562
0.0146512
0.0146433
0.0146391
0.0146332
0.01463
0.0146258
0.0146236
0.0146212
0.01462
0.0146192
0.0146188
0.0148489
0.014847
0.0148268
0.014819
0.0148046
0.0147977
0.0147853
0.0147795
0.0147692
0.0147642
0.014756
0.014752
0.0147455
0.0147426
0.0147379
0.014736
0.0147333
0.0147322
0.0147313
0.014731
0.0149752
0.0149731
0.0149525
0.0149442
0.01493
0.0149224
0.0149102
0.0149036
0.0148937
0.014888
0.01488
0.0148755
0.0148693
0.0148658
0.0148615
0.0148591
0.0148566
0.0148553
0.0148545
0.0148541
0.0151177
0.0151157
0.0150941
0.015086
0.0150709
0.0150634
0.0150505
0.0150441
0.0150334
0.015028
0.0150195
0.015015
0.0150085
0.0150051
0.0150005
0.0149982
0.0149955
0.0149943
0.0149934
0.014993
0.0152814
0.0152792
0.0152573
0.0152485
0.0152332
0.0152251
0.0152123
0.0152052
0.0151946
0.0151886
0.0151801
0.0151752
0.0151686
0.015165
0.0151604
0.0151579
0.0151552
0.0151538
0.0151529
0.0151525
0.0154731
0.0154705
0.0154485
0.0154388
0.015423
0.0154148
0.0154011
0.0153941
0.0153827
0.0153767
0.0153678
0.0153627
0.015356
0.015352
0.0153475
0.0153447
0.015342
0.0153405
0.0153396
0.0153392
0.0157032
0.0157006
0.0156768
0.0156674
0.0156503
0.0156421
0.0156276
0.0156204
0.0156083
0.0156024
0.0155924
0.0155878
0.0155801
0.0155767
0.0155711
0.0155689
0.0155656
0.0155644
0.0155633
0.0155629
0.0159788
0.0159763
0.015951
0.0159413
0.0159232
0.0159145
0.0158992
0.0158917
0.0158791
0.0158727
0.0158624
0.0158573
0.0158495
0.0158455
0.0158401
0.0158374
0.0158342
0.0158327
0.0158317
0.0158312
0.016261
0.0162595
0.0162345
0.0162245
0.0162073
0.0161982
0.0161835
0.0161756
0.016163
0.0161564
0.0161462
0.0161408
0.016133
0.0161288
0.0161233
0.0161204
0.0161172
0.0161156
0.0161145
0.0161141
0.0163158
0.0163147
0.0163143
0.0163137
0.0163134
0.0163129
0.0163127
0.0163124
0.0163122
0.016312
0.0163118
0.0163117
0.0163116
0.0163116
0.0163115
0.0163115
0.0163115
0.0163115
0.0163115
0.0163115
)
;

boundaryField
{
    movingWall
    {
        type            calculated;
        value           nonuniform List<scalar> 
20
(
0.0163158
0.0163147
0.0163143
0.0163137
0.0163134
0.0163129
0.0163127
0.0163124
0.0163122
0.016312
0.0163118
0.0163117
0.0163116
0.0163116
0.0163115
0.0163115
0.0163115
0.0163115
0.0163115
0.0163115
)
;
    }
    fixedWalls
    {
        type            calculated;
        value           nonuniform List<scalar> 
60
(
0.0064063
0.00831632
0.0107036
0.012387
0.0133678
0.0138979
0.0141939
0.0143772
0.0145106
0.0146242
0.0147339
0.0148489
0.0149752
0.0151177
0.0152814
0.0154731
0.0157031
0.0159788
0.016261
0.0163158
0.0064051
0.00829715
0.0106623
0.0123215
0.013284
0.0138026
0.0140917
0.0142707
0.0144009
0.0145117
0.0146188
0.014731
0.0148541
0.014993
0.0151525
0.0153392
0.0155629
0.0158312
0.0161141
0.0163115
0.0064063
0.00640615
0.00640597
0.00640591
0.00640573
0.0064057
0.00640552
0.00640554
0.00640537
0.00640539
0.00640526
0.00640527
0.0064052
0.00640519
0.00640515
0.00640514
0.00640511
0.00640511
0.0064051
0.0064051
)
;
    }
    frontAndBack
    {
        type            empty;
    }
}


// ************************************************************************* //
