/*--------------------------------*- C++ -*----------------------------------*\
| =========                 |                                                 |
| \\      /  F ield         | OpenFOAM: The Open Source CFD Toolbox           |
|  \\    /   O peration     | Version:  2312                                  |
|   \\  /    A nd           | Website:  www.openfoam.com                      |
|    \\/     M anipulation  |                                                 |
\*---------------------------------------------------------------------------*/
FoamFile
{
    version     2.0;
    format      ascii;
    arch        "LSB;label=32;scalar=64";
    class       volTensorField;
    location    "3";
    object      U2;
}
// * * * * * * * * * * * * * * * * * * * * * * * * * * * * * * * * * * * * * //

dimensions      [0 2 -2 0 0 0 0];

internalField   nonuniform List<tensor> 
400
(
(1 -3.53256e-07 -0 -3.48535e-07 1.23122e-13 0 -0 0 0)
(1 8.48437e-08 -0 8.33442e-08 7.07123e-15 -0 -0 -0 0)
(1 -2.02362e-08 -0 -1.98824e-08 4.02346e-16 0 -0 0 0)
(1 4.95557e-09 -0 4.84231e-09 2.39964e-17 -0 -0 -0 0)
(1 -1.15589e-09 -0 -1.13155e-09 1.30795e-18 0 -0 0 0)
(1 3.25254e-10 -0 3.13927e-10 1.02106e-19 -0 -0 -0 0)
(1 -4.26201e-11 -0 -4.42759e-11 1.88704e-21 0 -0 0 0)
(1 4.07846e-11 -0 3.7106e-11 1.51335e-21 -0 -0 -0 0)
(1 1.32742e-11 -0 1.06644e-11 1.41561e-22 -0 -0 -0 0)
(1 1.37626e-11 -0 1.14893e-11 1.58122e-22 -0 -0 -0 0)
(1 8.36519e-12 -0 6.59183e-12 5.51419e-23 -0 -0 -0 0)
(1 5.47327e-12 -0 4.13073e-12 2.26086e-23 -0 -0 -0 0)
(1 2.95303e-12 -0 2.01159e-12 5.94031e-24 -0 -0 -0 0)
(1 1.20737e-12 -0 6.50461e-13 7.85345e-25 -0 -0 -0 0)
(1 3.5822e-14 -0 -2.10981e-13 -7.55776e-27 0 -0 -0 0)
(1 -6.51521e-13 -0 -6.85401e-13 4.46553e-25 0 -0 0 0)
(1 -1.02292e-12 -0 -8.894e-13 9.0979e-25 0 -0 0 0)
(1 -1.08884e-12 -0 -7.67958e-13 8.36186e-25 0 -0 0 0)
(1 -7.44833e-13 -0 -3.18734e-13 2.37403e-25 0 -0 0 0)
(1 6.02664e-13 -0 -9.29668e-14 -5.60278e-26 0 -0 -0 0)
(1 3.61389e-07 -0 3.57334e-07 1.29136e-13 -0 -0 -0 0)
(1 -8.72564e-08 -0 -8.58275e-08 7.48899e-15 0 -0 0 0)
(1 2.09804e-08 -0 2.0621e-08 4.32635e-16 -0 -0 -0 0)
(1 -5.02358e-09 -0 -4.92018e-09 2.47169e-17 0 -0 0 0)
(1 1.37999e-09 -0 1.33585e-09 1.84346e-18 -0 -0 -0 0)
(1 -2.05594e-10 -0 -2.09047e-10 4.29788e-20 0 -0 0 0)
(1 1.70851e-10 -0 1.56807e-10 2.67907e-20 -0 -0 -0 0)
(1 5.14199e-11 -0 4.21918e-11 2.1695e-21 -0 -0 -0 0)
(1 5.88713e-11 -0 5.03166e-11 2.9622e-21 -0 -0 -0 0)
(1 3.69858e-11 -0 3.01737e-11 1.116e-21 -0 -0 -0 0)
(1 2.62249e-11 -0 2.07789e-11 5.44924e-22 -0 -0 -0 0)
(1 1.59983e-11 -0 1.19135e-11 1.90596e-22 -0 -0 -0 0)
(1 8.75415e-12 -0 5.87967e-12 5.14715e-23 -0 -0 -0 0)
(1 3.4204e-12 -0 1.71199e-12 5.85568e-24 -0 -0 -0 0)
(1 -7.84964e-14 -0 -8.2235e-13 6.45515e-26 0 -0 0 0)
(1 -2.07435e-12 -0 -2.17238e-12 4.50628e-24 0 -0 0 0)
(1 -3.10151e-12 -0 -2.71944e-12 8.43438e-24 0 -0 0 0)
(1 -3.36945e-12 -0 -2.45821e-12 8.28283e-24 0 -0 0 0)
(1 -2.28161e-12 -0 -9.48085e-13 2.16316e-24 0 -0 0 0)
(1 1.79992e-12 -0 -2.85506e-13 -5.13889e-25 0 -0 -0 0)
(1 -3.78965e-07 -0 -3.76009e-07 1.42494e-13 0 -0 0 0)
(1 8.62492e-08 -0 8.54283e-08 7.36812e-15 -0 -0 -0 0)
(1 -2.02739e-08 -0 -2.00807e-08 4.07115e-16 0 -0 0 0)
(1 4.91889e-09 -0 4.8466e-09 2.38399e-17 -0 -0 -0 0)
(1 -8.7064e-10 -0 -8.79022e-10 7.65311e-19 0 -0 0 0)
(1 4.56666e-10 -0 4.2961e-10 1.96188e-19 -0 -0 -0 0)
(1 9.60211e-11 -0 7.74841e-11 7.44011e-21 -0 -0 -0 0)
(1 1.34022e-10 -0 1.16994e-10 1.56797e-20 -0 -0 -0 0)
(1 8.40693e-11 -0 7.03086e-11 5.9108e-21 -0 -0 -0 0)
(1 6.25622e-11 -0 5.12585e-11 3.20685e-21 -0 -0 -0 0)
(1 4.09346e-11 -0 3.20332e-11 1.31127e-21 -0 -0 -0 0)
(1 2.52487e-11 -0 1.85564e-11 4.68525e-22 -0 -0 -0 0)
(1 1.32706e-11 -0 8.58035e-12 1.13866e-22 -0 -0 -0 0)
(1 4.76568e-12 -0 1.99255e-12 9.49586e-24 -0 -0 -0 0)
(1 -8.21591e-13 -0 -2.01622e-12 1.65651e-24 0 -0 0 0)
(1 -3.95521e-12 -0 -4.0852e-12 1.61579e-23 0 -0 0 0)
(1 -5.51221e-12 -0 -4.84059e-12 2.66824e-23 0 -0 0 0)
(1 -5.79467e-12 -0 -4.2515e-12 2.4636e-23 0 -0 0 0)
(1 -3.90254e-12 -0 -1.69048e-12 6.59719e-24 0 -0 0 0)
(1 2.90337e-12 -0 -4.97533e-13 -1.44452e-24 0 -0 -0 0)
(1 4.01035e-07 -0 4.00677e-07 1.60685e-13 -0 -0 -0 0)
(1 -8.60731e-08 -0 -8.60988e-08 7.4108e-15 0 -0 0 0)
(1 2.11377e-08 -0 2.10631e-08 4.45226e-16 -0 -0 -0 0)
(1 -3.86995e-09 -0 -3.93818e-09 1.52406e-17 0 -0 0 0)
(1 1.37526e-09 -0 1.33576e-09 1.83701e-18 -0 -0 -0 0)
(1 8.53489e-11 -0 4.75012e-11 4.05418e-21 -0 -0 -0 0)
(1 2.62065e-10 -0 2.34929e-10 6.15667e-20 -0 -0 -0 0)
(1 1.52958e-10 -0 1.2964e-10 1.98295e-20 -0 -0 -0 0)
(1 1.17388e-10 -0 9.8651e-11 1.15804e-20 -0 -0 -0 0)
(1 8.04115e-11 -0 6.50842e-11 5.23352e-21 -0 -0 -0 0)
(1 5.29033e-11 -0 4.08541e-11 2.16132e-21 -0 -0 -0 0)
(1 3.16969e-11 -0 2.26389e-11 7.17581e-22 -0 -0 -0 0)
(1 1.59071e-11 -0 9.57278e-12 1.52276e-22 -0 -0 -0 0)
(1 4.72691e-12 -0 1.00155e-12 4.73423e-24 -0 -0 -0 0)
(1 -2.53157e-12 -0 -4.09486e-12 1.03664e-23 0 -0 0 0)
(1 -6.47438e-12 -0 -6.586e-12 4.26403e-23 0 -0 0 0)
(1 -8.30052e-12 -0 -7.33143e-12 6.08547e-23 0 -0 0 0)
(1 -8.47805e-12 -0 -6.32718e-12 5.36421e-23 0 -0 0 0)
(1 -5.66629e-12 -0 -2.5694e-12 1.45589e-23 0 -0 0 0)
(1 3.89499e-12 -0 -7.32206e-13 -2.85194e-24 0 -0 -0 0)
(1 -4.68261e-07 -0 -4.68462e-07 2.19362e-13 0 -0 0 0)
(1 1.07332e-07 -0 1.06658e-07 1.14478e-14 -0 -0 -0 0)
(1 -2.46421e-08 -0 -2.45968e-08 6.06117e-16 0 -0 0 0)
(1 6.75375e-09 -0 6.58831e-09 4.44959e-17 -0 -0 -0 0)
(1 -9.36575e-10 -0 -9.7135e-10 9.09742e-19 0 -0 0 0)
(1 7.33351e-10 -0 6.80711e-10 4.992e-19 -0 -0 -0 0)
(1 1.71527e-10 -0 1.4011e-10 2.40327e-20 -0 -0 -0 0)
(1 2.1476e-10 -0 1.85726e-10 3.98864e-20 -0 -0 -0 0)
(1 1.28345e-10 -0 1.05774e-10 1.35755e-20 -0 -0 -0 0)
(1 9.45205e-11 -0 7.57403e-11 7.15901e-21 -0 -0 -0 0)
(1 5.91463e-11 -0 4.44467e-11 2.62886e-21 -0 -0 -0 0)
(1 3.47012e-11 -0 2.3615e-11 8.19468e-22 -0 -0 -0 0)
(1 1.58948e-11 -0 8.16426e-12 1.2977e-22 -0 -0 -0 0)
(1 2.86148e-12 -0 -1.64643e-12 -4.71123e-24 0 -0 -0 0)
(1 -5.49674e-12 -0 -7.33056e-12 4.02942e-23 0 -0 0 0)
(1 -9.83462e-12 -0 -9.87611e-12 9.71278e-23 0 -0 0 0)
(1 -1.16432e-11 -0 -1.03485e-11 1.20489e-22 0 -0 0 0)
(1 -1.14505e-11 -0 -8.67005e-12 9.92765e-23 0 -0 0 0)
(1 -7.57363e-12 -0 -3.6305e-12 2.7496e-23 0 -0 0 0)
(1 4.72247e-12 -0 -9.98174e-13 -4.71385e-24 0 -0 -0 0)
(1 5.24204e-07 -0 5.27677e-07 2.7661e-13 -0 -0 -0 0)
(1 -1.03756e-07 -0 -1.05219e-07 1.0917e-14 0 -0 0 0)
(1 2.51047e-08 -0 2.53856e-08 6.373e-16 -0 -0 -0 0)
(1 -3.90704e-09 -0 -4.10555e-09 1.60406e-17 0 -0 0 0)
(1 1.43529e-09 -0 1.41588e-09 2.0322e-18 -0 -0 -0 0)
(1 2.13108e-10 -0 1.55796e-10 3.32014e-20 -0 -0 -0 0)
(1 2.98028e-10 -0 2.64026e-10 7.86872e-20 -0 -0 -0 0)
(1 2.00529e-10 -0 1.6819e-10 3.3727e-20 -0 -0 -0 0)
(1 1.40898e-10 -0 1.15368e-10 1.62551e-20 -0 -0 -0 0)
(1 9.70527e-11 -0 7.57101e-11 7.34787e-21 -0 -0 -0 0)
(1 6.02149e-11 -0 4.34088e-11 2.61386e-21 -0 -0 -0 0)
(1 3.32307e-11 -0 2.05471e-11 6.82794e-22 -0 -0 -0 0)
(1 1.2911e-11 -0 4.0807e-12 5.26861e-23 -0 -0 -0 0)
(1 -1.11952e-12 -0 -6.21106e-12 6.95342e-24 0 -0 0 0)
(1 -9.89042e-12 -0 -1.18625e-11 1.17325e-22 0 -0 0 0)
(1 -1.41184e-11 -0 -1.40076e-11 1.97765e-22 0 -0 0 0)
(1 -1.55125e-11 -0 -1.3868e-11 2.15127e-22 0 -0 0 0)
(1 -1.47279e-11 -0 -1.13478e-11 1.67129e-22 0 -0 0 0)
(1 -9.64009e-12 -0 -4.87329e-12 4.69789e-23 0 -0 0 0)
(1 5.36829e-12 -0 -1.29357e-12 -6.94426e-24 0 -0 -0 0)
(0.999999 -6.77581e-07 -0 -6.80839e-07 4.61324e-13 0 -0 0 0)
(1 1.43464e-07 -0 1.44362e-07 2.07107e-14 -0 -0 -0 0)
(1 -3.30407e-08 -0 -3.33154e-08 1.10076e-15 0 -0 0 0)
(1 7.6195e-09 -0 7.62731e-09 5.81162e-17 -0 -0 -0 0)
(1 -1.12995e-09 -0 -1.1918e-09 1.34667e-18 0 -0 0 0)
(1 7.06921e-10 -0 6.64957e-10 4.70072e-19 -0 -0 -0 0)
(1 1.91077e-10 -0 1.52413e-10 2.91226e-20 -0 -0 -0 0)
(1 2.11461e-10 -0 1.78609e-10 3.77688e-20 -0 -0 -0 0)
(1 1.33093e-10 -0 1.05413e-10 1.40298e-20 -0 -0 -0 0)
(1 9.19591e-11 -0 6.89958e-11 6.34479e-21 -0 -0 -0 0)
(1 5.47281e-11 -0 3.64299e-11 1.99374e-21 -0 -0 -0 0)
(1 2.72041e-11 -0 1.34026e-11 3.64605e-22 -0 -0 -0 0)
(1 6.74162e-12 -0 -2.84922e-12 -1.92083e-23 0 -0 -0 0)
(1 -7.29451e-12 -0 -1.27377e-11 9.29154e-23 0 -0 0 0)
(1 -1.57196e-11 -0 -1.76966e-11 2.78183e-22 0 -0 0 0)
(1 -1.9318e-11 -0 -1.89884e-11 3.66817e-22 0 -0 0 0)
(1 -1.99365e-11 -0 -1.79155e-11 3.57173e-22 0 -0 0 0)
(1 -1.82636e-11 -0 -1.42835e-11 2.60868e-22 0 -0 0 0)
(1 -1.18148e-11 -0 -6.29089e-12 7.43256e-23 0 -0 0 0)
(1 5.79975e-12 -0 -1.61844e-12 -9.38657e-24 0 -0 -0 0)
(1 8.46265e-07 -0 8.52781e-07 7.21678e-13 -0 -0 -0 0)
(1 -1.7576e-07 -0 -1.77557e-07 3.12074e-14 0 -0 0 0)
(1 4.20527e-08 -0 4.24146e-08 1.78365e-15 -0 -0 -0 0)
(1 -8.19269e-09 -0 -8.33512e-09 6.8287e-17 0 -0 0 0)
(1 2.29686e-09 -0 2.27051e-09 5.21504e-18 -0 -0 -0 0)
(1 -1.1421e-10 -0 -1.62244e-10 1.85298e-20 0 -0 0 0)
(1 3.23297e-10 -0 2.84969e-10 9.21298e-20 -0 -0 -0 0)
(1 1.53832e-10 -0 1.20132e-10 1.84802e-20 -0 -0 -0 0)
(1 1.24457e-10 -0 9.5912e-11 1.19369e-20 -0 -0 -0 0)
(1 7.66098e-11 -0 5.27851e-11 4.04386e-21 -0 -0 -0 0)
(1 4.33495e-11 -0 2.42454e-11 1.05103e-21 -0 -0 -0 0)
(1 1.67072e-11 -0 2.29554e-12 3.8352e-23 -0 -0 -0 0)
(1 -2.51267e-12 -0 -1.24907e-11 3.13851e-23 0 -0 0 0)
(1 -1.55307e-11 -0 -2.10808e-11 3.27399e-22 0 -0 0 0)
(1 -2.28745e-11 -0 -2.47052e-11 5.6512e-22 0 -0 0 0)
(1 -2.53029e-11 -0 -2.4671e-11 6.24249e-22 0 -0 0 0)
(1 -2.47464e-11 -0 -2.23342e-11 5.52691e-22 0 -0 0 0)
(1 -2.19616e-11 -0 -1.74329e-11 3.82855e-22 0 -0 0 0)
(1 -1.40562e-11 -0 -7.84175e-12 1.10225e-22 0 -0 0 0)
(1 6.01671e-12 -0 -1.9605e-12 -1.17957e-23 0 -0 -0 0)
(0.999999 -1.11273e-06 -0 -1.11801e-06 1.24404e-12 0 -0 0 0)
(1 2.29145e-07 -0 2.31159e-07 5.29689e-14 -0 -0 -0 0)
(1 -5.32027e-08 -0 -5.37644e-08 2.86041e-15 0 -0 0 0)
(1 1.12026e-08 -0 1.13195e-08 1.26808e-16 -0 -0 -0 0)
(1 -1.98654e-09 -0 -2.08188e-09 4.13574e-18 0 -0 0 0)
(1 7.38267e-10 -0 7.07765e-10 5.2252e-19 -0 -0 -0 0)
(1 1.13756e-10 -0 7.23093e-11 8.22566e-21 -0 -0 -0 0)
(1 1.57729e-10 -0 1.25521e-10 1.97983e-20 -0 -0 -0 0)
(1 9.20907e-11 -0 6.34289e-11 5.84121e-21 -0 -0 -0 0)
(1 5.64783e-11 -0 3.26622e-11 1.8447e-21 -0 -0 -0 0)
(1 2.58838e-11 -0 6.64707e-12 1.72052e-22 -0 -0 -0 0)
(1 2.32412e-12 -0 -1.21697e-11 -2.82838e-23 0 -0 -0 0)
(1 -1.44851e-11 -0 -2.44636e-11 3.54358e-22 0 -0 0 0)
(1 -2.55043e-11 -0 -3.09068e-11 7.88256e-22 0 -0 0 0)
(1 -3.10561e-11 -0 -3.26015e-11 1.01248e-21 0 -0 0 0)
(1 -3.18343e-11 -0 -3.08443e-11 9.81906e-22 0 -0 0 0)
(1 -2.97934e-11 -0 -2.69879e-11 8.04061e-22 0 -0 0 0)
(1 -2.5678e-11 -0 -2.06447e-11 5.30115e-22 0 -0 0 0)
(1 -1.62596e-11 -0 -9.46178e-12 1.53845e-22 0 -0 0 0)
(1 6.01113e-12 -0 -2.30796e-12 -1.38734e-23 0 -0 -0 0)
(1 1.46475e-06 -0 1.46812e-06 2.15041e-12 -0 -0 -0 0)
(1 -3.05909e-07 -0 -3.07793e-07 9.41569e-14 0 -0 0 0)
(1 7.23349e-08 -0 7.27162e-08 5.25992e-15 -0 -0 -0 0)
(1 -1.45092e-08 -0 -1.47084e-08 2.13406e-16 0 -0 0 0)
(1 3.5231e-09 -0 3.5192e-09 1.23985e-17 -0 -0 -0 0)
(1 -4.96275e-10 -0 -5.49766e-10 2.72835e-19 0 -0 0 0)
(1 2.72565e-10 -0 2.39089e-10 6.51671e-20 -0 -0 -0 0)
(1 6.91483e-11 -0 3.69239e-11 2.55323e-21 -0 -0 -0 0)
(1 6.47291e-11 -0 3.73892e-11 2.42017e-21 -0 -0 -0 0)
(1 2.78679e-11 -0 4.77902e-12 1.33181e-22 -0 -0 -0 0)
(1 3.83802e-12 -0 -1.47458e-11 -5.65946e-23 0 -0 -0 0)
(1 -1.53303e-11 -0 -2.93541e-11 4.50007e-22 0 -0 0 0)
(1 -2.86317e-11 -0 -3.82041e-11 1.09385e-21 0 -0 0 0)
(1 -3.67146e-11 -0 -4.17177e-11 1.53165e-21 0 -0 0 0)
(1 -3.98658e-11 -0 -4.09906e-11 1.63412e-21 0 -0 0 0)
(1 -3.85719e-11 -0 -3.71693e-11 1.43369e-21 0 -0 0 0)
(1 -3.47728e-11 -0 -3.15957e-11 1.09867e-21 0 -0 0 0)
(1 -2.92126e-11 -0 -2.37677e-11 6.94315e-22 0 -0 0 0)
(1 -1.83334e-11 -0 -1.10726e-11 2.02998e-22 0 -0 0 0)
(1 5.80315e-12 -0 -2.6366e-12 -1.53006e-23 0 -0 -0 0)
(0.999997 -1.94001e-06 -0 -1.93373e-06 3.75146e-12 0 -0 0 0)
(1 4.16742e-07 -0 4.16386e-07 1.73525e-13 -0 -0 -0 0)
(1 -9.71026e-08 -0 -9.71821e-08 9.43663e-15 0 -0 0 0)
(1 2.11033e-08 -0 2.11206e-08 4.45714e-16 -0 -0 -0 0)
(1 -4.34946e-09 -0 -4.4163e-09 1.92086e-17 0 -0 0 0)
(1 1.14527e-09 -0 1.11925e-09 1.28183e-18 -0 -0 -0 0)
(1 -1.10202e-10 -0 -1.45372e-10 1.60203e-20 0 -0 0 0)
(1 9.08511e-11 -0 6.31198e-11 5.73451e-21 -0 -0 -0 0)
(1 1.10193e-11 -0 -1.40059e-11 -1.54335e-22 0 -0 -0 0)
(1 -2.88264e-12 -0 -2.39548e-11 6.90532e-23 0 -0 0 0)
(1 -2.24456e-11 -0 -3.96481e-11 8.89926e-22 0 -0 0 0)
(1 -3.54513e-11 -0 -4.84274e-11 1.71681e-21 0 -0 0 0)
(1 -4.41318e-11 -0 -5.29088e-11 2.33496e-21 0 -0 0 0)
(1 -4.85391e-11 -0 -5.29039e-11 2.56791e-21 0 -0 0 0)
(1 -4.87442e-11 -0 -4.93393e-11 2.405e-21 0 -0 0 0)
(1 -4.50813e-11 -0 -4.32505e-11 1.94979e-21 0 -0 0 0)
(1 -3.93837e-11 -0 -3.58826e-11 1.41319e-21 0 -0 0 0)
(1 -3.23478e-11 -0 -2.65966e-11 8.60344e-22 0 -0 0 0)
(1 -2.01319e-11 -0 -1.25577e-11 2.5281e-22 0 -0 0 0)
(1 5.41095e-12 -0 -2.9247e-12 -1.58254e-23 0 -0 -0 0)
(1 2.48422e-06 -0 2.46671e-06 6.12783e-12 -0 -0 -0 0)
(0.999999 -5.38202e-07 -0 -5.36025e-07 2.8849e-13 0 -0 0 0)
(1 1.27181e-07 -0 1.26724e-07 1.61168e-14 -0 -0 -0 0)
(1 -2.69158e-08 -0 -2.69316e-08 7.24887e-16 0 -0 0 0)
(1 6.16659e-09 -0 6.14695e-09 3.79057e-17 -0 -0 -0 0)
(1 -1.28311e-09 -0 -1.31697e-09 1.68982e-18 0 -0 0 0)
(1 2.71334e-10 -0 2.50268e-10 6.79062e-20 -0 -0 -0 0)
(1 -7.08925e-11 -0 -9.54671e-11 6.7679e-21 0 -0 0 0)
(1 -1.98621e-11 -0 -3.99729e-11 7.93949e-22 0 -0 0 0)
(1 -4.35233e-11 -0 -6.18651e-11 2.69257e-21 0 -0 0 0)
(1 -5.06172e-11 -0 -6.56671e-11 3.32388e-21 0 -0 0 0)
(1 -5.70399e-11 -0 -6.8458e-11 3.90484e-21 0 -0 0 0)
(1 -6.01177e-11 -0 -6.7736e-11 4.07214e-21 0 -0 0 0)
(1 -6.01572e-11 -0 -6.36829e-11 3.83098e-21 0 -0 0 0)
(1 -5.70519e-11 -0 -5.70445e-11 3.25449e-21 0 -0 0 0)
(1 -5.08493e-11 -0 -4.85994e-11 2.47125e-21 0 -0 0 0)
(1 -4.32199e-11 -0 -3.94764e-11 1.70617e-21 0 -0 0 0)
(1 -3.47953e-11 -0 -2.88873e-11 1.00514e-21 0 -0 0 0)
(1 -2.15227e-11 -0 -1.38152e-11 2.9734e-22 0 -0 0 0)
(1 4.86916e-12 -0 -3.14293e-12 -1.53034e-23 0 -0 -0 0)
(0.999996 -3.10501e-06 -0 -3.06146e-06 9.50592e-12 0 -0 0 0)
(1 6.94714e-07 -0 6.87248e-07 4.7744e-13 -0 -0 -0 0)
(1 -1.64714e-07 -0 -1.62956e-07 2.68411e-14 0 -0 0 0)
(1 3.60835e-08 -0 3.57509e-08 1.29002e-15 -0 -0 -0 0)
(1 -8.39641e-09 -0 -8.3805e-09 7.03661e-17 0 -0 0 0)
(1 1.79387e-09 -0 1.75519e-09 3.14859e-18 -0 -0 -0 0)
(1 -4.68464e-10 -0 -4.90638e-10 2.29846e-19 0 -0 0 0)
(1 1.32409e-11 -0 -5.815e-12 -7.69958e-23 0 -0 -0 0)
(1 -1.00078e-10 -0 -1.17371e-10 1.17463e-20 0 -0 0 0)
(1 -7.7935e-11 -0 -9.28626e-11 7.23725e-21 0 -0 0 0)
(1 -8.17339e-11 -0 -9.41646e-11 7.69644e-21 0 -0 0 0)
(1 -7.86357e-11 -0 -8.80316e-11 6.92242e-21 0 -0 0 0)
(1 -7.5453e-11 -0 -8.16214e-11 6.15858e-21 0 -0 0 0)
(1 -7.06446e-11 -0 -7.31814e-11 5.16988e-21 0 -0 0 0)
(1 -6.4012e-11 -0 -6.33744e-11 4.05673e-21 0 -0 0 0)
(1 -5.52857e-11 -0 -5.26746e-11 2.91215e-21 0 -0 0 0)
(1 -4.58693e-11 -0 -4.19992e-11 1.92647e-21 0 -0 0 0)
(1 -3.63057e-11 -0 -3.04123e-11 1.10414e-21 0 -0 0 0)
(1 -2.23333e-11 -0 -1.46812e-11 3.27879e-22 0 -0 0 0)
(1 4.22318e-12 -0 -3.26787e-12 -1.38008e-23 0 -0 -0 0)
(1 3.53232e-06 -0 3.44783e-06 1.21788e-11 -0 -0 -0 0)
(0.999999 -8.2664e-07 -0 -8.10334e-07 6.69855e-13 0 -0 0 0)
(1 1.93746e-07 -0 1.8993e-07 3.67982e-14 -0 -0 -0 0)
(1 -4.42931e-08 -0 -4.37648e-08 1.93848e-15 0 -0 0 0)
(1 1.00699e-08 -0 9.92354e-09 9.9929e-17 -0 -0 -0 0)
(1 -2.39506e-09 -0 -2.4053e-09 5.76084e-18 0 -0 0 0)
(1 3.46503e-10 -0 3.29975e-10 1.14337e-19 -0 -0 -0 0)
(1 -2.56138e-10 -0 -2.70787e-10 6.93587e-20 0 -0 0 0)
(1 -1.16596e-10 -0 -1.28269e-10 1.49557e-20 0 -0 0 0)
(1 -1.28394e-10 -0 -1.39362e-10 1.78932e-20 0 -0 0 0)
(1 -1.10284e-10 -0 -1.19346e-10 1.3162e-20 0 -0 0 0)
(1 -9.92186e-11 -0 -1.06239e-10 1.05409e-20 0 -0 0 0)
(1 -8.8703e-11 -0 -9.31828e-11 8.26559e-21 0 -0 0 0)
(1 -7.88439e-11 -0 -8.03194e-11 6.33269e-21 0 -0 0 0)
(1 -6.877e-11 -0 -6.75384e-11 4.64461e-21 0 -0 0 0)
(1 -5.77779e-11 -0 -5.49083e-11 3.17249e-21 0 -0 0 0)
(1 -4.69237e-11 -0 -4.30585e-11 2.02047e-21 0 -0 0 0)
(1 -3.65544e-11 -0 -3.08579e-11 1.12799e-21 0 -0 0 0)
(1 -2.23967e-11 -0 -1.50404e-11 3.36856e-22 0 -0 0 0)
(1 3.51323e-12 -0 -3.27603e-12 -1.15094e-23 0 -0 -0 0)
(0.999995 -3.8065e-06 -0 -3.70354e-06 1.40976e-11 0 -0 0 0)
(1 9.24297e-07 -0 9.00466e-07 8.32297e-13 -0 -0 -0 0)
(1 -2.16716e-07 -0 -2.11244e-07 4.57801e-14 0 -0 0 0)
(1 5.27618e-08 -0 5.14196e-08 2.71299e-15 -0 -0 -0 0)
(1 -1.26174e-08 -0 -1.23455e-08 1.55769e-16 0 -0 0 0)
(1 2.71744e-09 -0 2.63966e-09 7.17312e-18 -0 -0 -0 0)
(1 -9.87076e-10 -0 -9.76232e-10 9.63615e-19 0 -0 0 0)
(1 -6.9997e-11 -0 -7.76279e-11 5.43372e-21 0 -0 0 0)
(1 -2.44408e-10 -0 -2.48055e-10 6.06265e-20 0 -0 0 0)
(1 -1.5753e-10 -0 -1.63039e-10 2.56835e-20 0 -0 0 0)
(1 -1.40959e-10 -0 -1.46185e-10 2.06061e-20 0 -0 0 0)
(1 -1.15308e-10 -0 -1.19636e-10 1.37951e-20 0 -0 0 0)
(1 -9.82237e-11 -0 -1.00936e-10 9.91428e-21 0 -0 0 0)
(1 -8.34037e-11 -0 -8.38402e-11 6.99258e-21 0 -0 0 0)
(1 -7.03779e-11 -0 -6.86597e-11 4.83213e-21 0 -0 0 0)
(1 -5.76711e-11 -0 -5.46884e-11 3.15394e-21 0 -0 0 0)
(1 -4.59241e-11 -0 -4.22343e-11 1.93957e-21 0 -0 0 0)
(1 -3.5314e-11 -0 -3.00309e-11 1.06051e-21 0 -0 0 0)
(1 -2.15536e-11 -0 -1.4715e-11 3.1716e-22 0 -0 0 0)
(1 2.80322e-12 -0 -3.14913e-12 -8.8277e-24 0 -0 -0 0)
(1 3.94081e-06 -0 3.83181e-06 1.51004e-11 -0 -0 -0 0)
(0.999999 -9.3506e-07 -0 -9.11374e-07 8.5219e-13 0 -0 0 0)
(1 2.19257e-07 -0 2.13755e-07 4.68672e-14 -0 -0 -0 0)
(1 -5.18487e-08 -0 -5.07189e-08 2.62971e-15 0 -0 0 0)
(1 1.13739e-08 -0 1.11561e-08 1.26888e-16 -0 -0 -0 0)
(1 -3.1967e-09 -0 -3.14006e-09 1.00378e-17 0 -0 0 0)
(1 1.85437e-10 -0 1.94017e-10 3.59779e-20 -0 -0 -0 0)
(1 -4.75955e-10 -0 -4.6696e-10 2.22252e-19 0 -0 0 0)
(1 -2.40562e-10 -0 -2.36133e-10 5.68045e-20 0 -0 0 0)
(1 -2.10895e-10 -0 -2.10535e-10 4.44009e-20 0 -0 0 0)
(1 -1.58282e-10 -0 -1.59528e-10 2.52505e-20 0 -0 0 0)
(1 -1.25754e-10 -0 -1.27453e-10 1.60277e-20 0 -0 0 0)
(1 -1.01317e-10 -0 -1.02364e-10 1.03713e-20 0 -0 0 0)
(1 -8.28969e-11 -0 -8.24397e-11 6.83399e-21 0 -0 0 0)
(1 -6.78529e-11 -0 -6.58438e-11 4.4677e-21 0 -0 0 0)
(1 -5.43948e-11 -0 -5.14907e-11 2.80083e-21 0 -0 0 0)
(1 -4.2581e-11 -0 -3.92271e-11 1.67033e-21 0 -0 0 0)
(1 -3.23491e-11 -0 -2.76487e-11 8.9441e-22 0 -0 0 0)
(1 -1.96839e-11 -0 -1.36281e-11 2.68254e-22 0 -0 0 0)
(1 2.12292e-12 -0 -2.87156e-12 -6.09609e-24 0 -0 -0 0)
(0.999994 -4.08832e-06 -0 -3.9695e-06 1.62287e-11 0 -0 0 0)
(1 1.03375e-06 -0 1.00236e-06 1.0362e-12 -0 -0 -0 0)
(0.999999 -2.46391e-07 -0 -2.38852e-07 5.88511e-14 0 -0 0 0)
(1 6.1066e-08 -0 5.91546e-08 3.61234e-15 -0 -0 -0 0)
(1 -1.62465e-08 -0 -1.56864e-08 2.54849e-16 0 -0 0 0)
(1 2.94869e-09 -0 2.87789e-09 8.486e-18 -0 -0 -0 0)
(1 -1.6052e-09 -0 -1.53465e-09 2.46343e-18 0 -0 0 0)
(1 -2.20483e-10 -0 -2.05302e-10 4.52656e-20 0 -0 0 0)
(1 -3.8201e-10 -0 -3.67291e-10 1.40309e-19 0 -0 0 0)
(1 -2.12078e-10 -0 -2.06852e-10 4.38687e-20 0 -0 0 0)
(1 -1.689e-10 -0 -1.66716e-10 2.81583e-20 0 -0 0 0)
(1 -1.22739e-10 -0 -1.22291e-10 1.50099e-20 0 -0 0 0)
(1 -9.59101e-11 -0 -9.563e-11 9.17188e-21 0 -0 0 0)
(1 -7.56571e-11 -0 -7.45994e-11 5.64398e-21 0 -0 0 0)
(1 -6.04417e-11 -0 -5.83688e-11 3.52791e-21 0 -0 0 0)
(1 -4.75418e-11 -0 -4.4921e-11 2.13563e-21 0 -0 0 0)
(1 -3.67144e-11 -0 -3.38691e-11 1.24348e-21 0 -0 0 0)
(1 -2.77155e-11 -0 -2.37889e-11 6.59322e-22 0 -0 0 0)
(1 -1.68383e-11 -0 -1.17466e-11 1.97792e-22 0 -0 0 0)
(1 1.52658e-12 -0 -2.41821e-12 -3.6916e-24 0 -0 -0 0)
(1 4.20201e-06 -0 4.07449e-06 1.7121e-11 -0 -0 -0 0)
(1 -1.07661e-06 -0 -1.0412e-06 1.12097e-12 0 -0 0 0)
(1 2.49987e-07 -0 2.42034e-07 6.05053e-14 -0 -0 -0 0)
(1 -6.96553e-08 -0 -6.69665e-08 4.66457e-15 0 -0 0 0)
(1 1.39996e-08 -0 1.35886e-08 1.90235e-16 -0 -0 -0 0)
(1 -5.63905e-09 -0 -5.35806e-09 3.02144e-17 0 -0 0 0)
(1 2.5649e-10 -0 2.70702e-10 6.94323e-20 -0 -0 -0 0)
(1 -8.05625e-10 -0 -7.58957e-10 6.11435e-19 0 -0 0 0)
(1 -2.49186e-10 -0 -2.35534e-10 5.86918e-20 0 -0 0 0)
(1 -2.37485e-10 -0 -2.27654e-10 5.40644e-20 0 -0 0 0)
(1 -1.42949e-10 -0 -1.39245e-10 1.9905e-20 0 -0 0 0)
(1 -1.08823e-10 -0 -1.06887e-10 1.16318e-20 0 -0 0 0)
(1 -7.96739e-11 -0 -7.85815e-11 6.2609e-21 0 -0 0 0)
(1 -6.1942e-11 -0 -6.05689e-11 3.75176e-21 0 -0 0 0)
(1 -4.83e-11 -0 -4.63962e-11 2.24094e-21 0 -0 0 0)
(1 -3.75223e-11 -0 -3.53493e-11 1.32639e-21 0 -0 0 0)
(1 -2.86673e-11 -0 -2.6429e-11 7.57647e-22 0 -0 0 0)
(1 -2.14692e-11 -0 -1.84543e-11 3.96199e-22 0 -0 0 0)
(1 -1.30382e-11 -0 -9.15182e-12 1.19323e-22 0 -0 0 0)
(1 9.90563e-13 -0 -1.79886e-12 -1.78189e-24 0 -0 -0 0)
(0.999997 -4.07095e-06 -0 -3.95626e-06 1.61058e-11 0 -0 0 0)
(1 8.99721e-07 -0 8.8007e-07 7.91817e-13 -0 -0 -0 0)
(1 -2.17387e-07 -0 -2.12416e-07 4.61764e-14 0 -0 0 0)
(1 3.93295e-08 -0 3.93539e-08 1.54777e-15 -0 -0 -0 0)
(1 -1.20461e-08 -0 -1.1832e-08 1.42529e-16 0 -0 0 0)
(1 2.83801e-10 -0 4.56091e-10 1.29439e-19 -0 -0 -0 0)
(1 -9.95813e-10 -0 -9.66468e-10 9.62422e-19 0 -0 0 0)
(1 -4.09409e-10 -0 -3.68625e-10 1.50918e-19 0 -0 0 0)
(1 -2.33814e-10 -0 -2.23575e-10 5.22751e-20 0 -0 0 0)
(1 -1.6541e-10 -0 -1.56752e-10 2.59283e-20 0 -0 0 0)
(1 -1.0022e-10 -0 -9.75141e-11 9.77283e-21 0 -0 0 0)
(1 -7.39643e-11 -0 -7.23602e-11 5.35207e-21 0 -0 0 0)
(1 -5.23848e-11 -0 -5.17025e-11 2.70842e-21 0 -0 0 0)
(1 -4.01164e-11 -0 -3.93207e-11 1.57741e-21 0 -0 0 0)
(1 -3.06987e-11 -0 -2.96456e-11 9.10081e-22 0 -0 0 0)
(1 -2.35735e-11 -0 -2.23769e-11 5.27503e-22 0 -0 0 0)
(1 -1.77292e-11 -0 -1.66351e-11 2.94926e-22 0 -0 0 0)
(1 -1.3372e-11 -0 -1.18155e-11 1.57997e-22 0 -0 0 0)
(1 -8.43452e-12 -0 -6.03119e-12 5.08702e-23 0 -0 0 0)
(1 4.89946e-13 -0 -1.08027e-12 -5.29271e-25 0 -0 -0 0)
(1.00001 4.2278e-06 -0 4.10122e-06 1.7339e-11 -0 -0 -0 0)
(0.999999 -1.1659e-06 -0 -1.12454e-06 1.3111e-12 0 -0 0 0)
(1 2.77502e-07 -0 2.67533e-07 7.42409e-14 -0 -0 -0 0)
(1 -7.91623e-08 -0 -7.58386e-08 6.00356e-15 0 -0 0 0)
(1 1.92396e-08 -0 1.84243e-08 3.54477e-16 -0 -0 -0 0)
(1 -5.93828e-09 -0 -5.63586e-09 3.34673e-17 0 -0 0 0)
(1 1.24928e-09 -0 1.1921e-09 1.48927e-18 -0 -0 -0 0)
(1 -5.70894e-10 -0 -5.37049e-10 3.06598e-19 0 -0 0 0)
(1 2.60969e-11 -0 2.44957e-11 6.39263e-22 -0 -0 -0 0)
(1 -9.01821e-11 -0 -8.57107e-11 7.72957e-21 0 -0 0 0)
(1 -2.70217e-11 -0 -2.67132e-11 7.21837e-22 0 -0 0 0)
(1 -2.77848e-11 -0 -2.73229e-11 7.59162e-22 0 -0 0 0)
(1 -1.70478e-11 -0 -1.70752e-11 2.91094e-22 0 -0 0 0)
(1 -1.35239e-11 -0 -1.34511e-11 1.81911e-22 0 -0 0 0)
(1 -1.00308e-11 -0 -9.86778e-12 9.89817e-23 0 -0 0 0)
(1 -7.66607e-12 -0 -7.44621e-12 5.70832e-23 0 -0 0 0)
(1 -5.69198e-12 -0 -5.55432e-12 3.16151e-23 0 -0 0 0)
(1 -4.4083e-12 -0 -4.0779e-12 1.79766e-23 0 -0 0 0)
(1 -2.96675e-12 -0 -2.18268e-12 6.47548e-24 0 -0 0 0)
(1 1.13312e-13 -0 -3.57766e-13 -4.05394e-26 0 -0 -0 0)
)
;

boundaryField
{
    movingWall
    {
        type            calculated;
        value           uniform (1 0 0 0 0 0 0 0 0);
    }
    fixedWalls
    {
        type            calculated;
        value           uniform (1 0 0 0 0 0 0 0 0);
    }
    frontAndBack
    {
        type            empty;
    }
}


// ************************************************************************* //
