/*--------------------------------*- C++ -*----------------------------------*\
| =========                 |                                                 |
| \\      /  F ield         | OpenFOAM: The Open Source CFD Toolbox           |
|  \\    /   O peration     | Version:  2312                                  |
|   \\  /    A nd           | Website:  www.openfoam.com                      |
|    \\/     M anipulation  |                                                 |
\*---------------------------------------------------------------------------*/
FoamFile
{
    version     2.0;
    format      ascii;
    arch        "LSB;label=32;scalar=64";
    class       volVectorField;
    location    "3";
    object      UMean;
}
// * * * * * * * * * * * * * * * * * * * * * * * * * * * * * * * * * * * * * //

dimensions      [0 1 -1 0 0 0 0];

internalField   nonuniform List<vector> 
400
(
(-0.166822 0.00012478 0)
(-0.167838 0.000564006 0)
(-0.169726 0.000848374 0)
(-0.171905 0.000991289 0)
(-0.174311 0.00112309 0)
(-0.177001 0.00129729 0)
(-0.180057 0.00152572 0)
(-0.183505 0.00177076 0)
(-0.187192 0.00190188 0)
(-0.190752 0.00178458 0)
(-0.193639 0.00134972 0)
(-0.19529 0.000621397 0)
(-0.195262 -0.000370561 0)
(-0.193189 -0.00142652 0)
(-0.189116 -0.00240408 0)
(-0.183509 -0.00304681 0)
(-0.177203 -0.00306364 0)
(-0.171195 -0.00223662 0)
(-0.167201 -0.000899639 0)
(-0.166244 0.000219639 0)
(-0.167363 0.00122683 0)
(-0.169392 0.00263696 0)
(-0.172168 0.00340706 0)
(-0.175275 0.00380695 0)
(-0.178623 0.00419667 0)
(-0.182273 0.00469074 0)
(-0.186276 0.00521578 0)
(-0.190535 0.00558159 0)
(-0.194824 0.00554107 0)
(-0.198787 0.00487195 0)
(-0.201979 0.00346125 0)
(-0.203917 0.00132775 0)
(-0.204135 -0.00139465 0)
(-0.2023 -0.00441254 0)
(-0.198221 -0.00725514 0)
(-0.192095 -0.00925195 0)
(-0.18455 -0.00967057 0)
(-0.176589 -0.00785593 0)
(-0.169671 -0.00408784 0)
(-0.16666 -0.000233729 0)
(-0.167879 0.00340323 0)
(-0.170492 0.00546593 0)
(-0.173599 0.00658487 0)
(-0.177077 0.00728275 0)
(-0.18085 0.00798458 0)
(-0.184957 0.00880792 0)
(-0.189425 0.0096074 0)
(-0.194185 0.0100894 0)
(-0.19903 0.00989974 0)
(-0.203634 0.00872819 0)
(-0.207559 0.00638286 0)
(-0.210289 0.00281853 0)
(-0.211331 -0.00179153 0)
(-0.210327 -0.00706213 0)
(-0.207027 -0.0123316 0)
(-0.201235 -0.0165812 0)
(-0.193081 -0.0184672 0)
(-0.183262 -0.016561 0)
(-0.173311 -0.0103246 0)
(-0.167153 -0.00241198 0)
(-0.168177 0.00609071 0)
(-0.171139 0.00859101 0)
(-0.174408 0.0099662 0)
(-0.178012 0.0109737 0)
(-0.181928 0.0120283 0)
(-0.186235 0.0132289 0)
(-0.19099 0.0143844 0)
(-0.196138 0.0150977 0)
(-0.20148 0.0148802 0)
(-0.206656 0.0132887 0)
(-0.211195 0.0100404 0)
(-0.214579 0.00508724 0)
(-0.21636 -0.00137273 0)
(-0.216192 -0.00886304 0)
(-0.213879 -0.0166413 0)
(-0.209129 -0.0236404 0)
(-0.201538 -0.0281817 0)
(-0.190965 -0.0278908 0)
(-0.178516 -0.0204054 0)
(-0.168363 -0.00660268 0)
(-0.16828 0.00904935 0)
(-0.171372 0.0118932 0)
(-0.174645 0.0134388 0)
(-0.178201 0.0147163 0)
(-0.182076 0.0161396 0)
(-0.186375 0.0177866 0)
(-0.191183 0.019393 0)
(-0.196456 0.0204334 0)
(-0.201968 0.0202566 0)
(-0.207307 0.0182748 0)
(-0.211971 0.0141555 0)
(-0.215517 0.0079132 0)
(-0.217619 -0.000168068 0)
(-0.21807 -0.00953741 0)
(-0.216661 -0.0194819 0)
(-0.213267 -0.0291143 0)
(-0.207244 -0.0369255 0)
(-0.197554 -0.0400445 0)
(-0.184124 -0.033857 0)
(-0.170861 -0.0148496 0)
(-0.168225 0.012042 0)
(-0.171253 0.015176 0)
(-0.174381 0.0168392 0)
(-0.177739 0.0183576 0)
(-0.181386 0.0201506 0)
(-0.185435 0.0222669 0)
(-0.189986 0.0243544 0)
(-0.195002 0.0257399 0)
(-0.20025 0.0255907 0)
(-0.205349 0.0232072 0)
(-0.209894 0.0182683 0)
(-0.213545 0.0108628 0)
(-0.215964 0.00138438 0)
(-0.216841 -0.00960746 0)
(-0.216034 -0.0213267 0)
(-0.21358 -0.0330058 0)
(-0.20915 -0.043694 0)
(-0.201362 -0.0510501 0)
(-0.188577 -0.0489563 0)
(-0.17352 -0.0273159 0)
(-0.168058 0.0148696 0)
(-0.170856 0.0182713 0)
(-0.173712 0.020014 0)
(-0.176725 0.0217181 0)
(-0.179954 0.0238222 0)
(-0.183493 0.0263573 0)
(-0.187446 0.0288772 0)
(-0.191805 0.0305792 0)
(-0.196416 0.0304978 0)
(-0.201036 0.0278686 0)
(-0.205426 0.022364 0)
(-0.209272 0.014046 0)
(-0.212124 0.00327526 0)
(-0.213503 -0.0092931 0)
(-0.213223 -0.0227151 0)
(-0.211383 -0.0360494 0)
(-0.208028 -0.0488158 0)
(-0.202183 -0.0599307 0)
(-0.191072 -0.0635991 0)
(-0.175557 -0.0432228 0)
(-0.167821 0.0173691 0)
(-0.170263 0.0210405 0)
(-0.172738 0.0228223 0)
(-0.175284 0.0246271 0)
(-0.17793 0.0269235 0)
(-0.180735 0.0297427 0)
(-0.183772 0.0325818 0)
(-0.187115 0.0346023 0)
(-0.190753 0.034732 0)
(-0.194632 0.0321248 0)
(-0.19868 0.0264211 0)
(-0.20262 0.0175316 0)
(-0.205891 0.00566661 0)
(-0.207941 -0.00843711 0)
(-0.208421 -0.0235671 0)
(-0.20738 -0.0384666 0)
(-0.204962 -0.052864 0)
(-0.20077 -0.0668083 0)
(-0.191706 -0.0765982 0)
(-0.176726 -0.0610731 0)
(-0.167545 0.0194279 0)
(-0.169544 0.0233761 0)
(-0.171564 0.0251572 0)
(-0.173567 0.0269598 0)
(-0.175524 0.0292904 0)
(-0.177435 0.0321981 0)
(-0.179358 0.0351855 0)
(-0.181416 0.0374563 0)
(-0.183737 0.037929 0)
(-0.18646 0.0357257 0)
(-0.189732 0.0302954 0)
(-0.193396 0.0212606 0)
(-0.196975 0.00865938 0)
(-0.199771 -0.0067658 0)
(-0.201299 -0.0234073 0)
(-0.201518 -0.039843 0)
(-0.200411 -0.0557559 0)
(-0.197873 -0.0719637 0)
(-0.191031 -0.0876267 0)
(-0.177251 -0.0793959 0)
(-0.16726 0.0209876 0)
(-0.168777 0.025217 0)
(-0.170306 0.0269602 0)
(-0.171737 0.0286483 0)
(-0.172978 0.0308294 0)
(-0.173959 0.0335918 0)
(-0.174704 0.0365298 0)
(-0.17534 0.0389142 0)
(-0.176096 0.0397602 0)
(-0.177248 0.0381373 0)
(-0.179098 0.0333845 0)
(-0.181817 0.0249101 0)
(-0.185248 0.0123427 0)
(-0.188698 -0.00374486 0)
(-0.191666 -0.0215935 0)
(-0.193703 -0.0395437 0)
(-0.194431 -0.0569704 0)
(-0.193866 -0.0753034 0)
(-0.189451 -0.0964136 0)
(-0.177569 -0.0972944 0)
(-0.166996 0.0220409 0)
(-0.168041 0.0265498 0)
(-0.169088 0.0282186 0)
(-0.169969 0.0296903 0)
(-0.170536 0.0315559 0)
(-0.170664 0.0339477 0)
(-0.17033 0.036579 0)
(-0.169617 0.0388294 0)
(-0.168772 0.0398787 0)
(-0.168136 0.0388606 0)
(-0.168159 0.0350604 0)
(-0.1692 0.027756 0)
(-0.17167 0.016175 0)
(-0.175525 0.00044516 0)
(-0.180051 -0.0178827 0)
(-0.184202 -0.0369688 0)
(-0.187169 -0.0559527 0)
(-0.18894 -0.0763634 0)
(-0.187222 -0.102769 0)
(-0.177912 -0.114331 0)
(-0.16679 0.0226359 0)
(-0.167421 0.0274102 0)
(-0.16803 0.0289696 0)
(-0.168418 0.0301431 0)
(-0.168403 0.0315658 0)
(-0.167831 0.0334064 0)
(-0.166642 0.0354887 0)
(-0.164868 0.0373277 0)
(-0.162715 0.0382698 0)
(-0.16052 0.0376043 0)
(-0.158747 0.034671 0)
(-0.15793 0.0287839 0)
(-0.158808 0.0192203 0)
(-0.162083 0.00539823 0)
(-0.167563 -0.0122238 0)
(-0.173725 -0.0318382 0)
(-0.17905 -0.0523462 0)
(-0.183317 -0.0747975 0)
(-0.184561 -0.106469 0)
(-0.178358 -0.130373 0)
(-0.16668 0.0228816 0)
(-0.166999 0.0278712 0)
(-0.167241 0.0292803 0)
(-0.167207 0.030093 0)
(-0.166708 0.0309962 0)
(-0.165604 0.0321905 0)
(-0.163814 0.0335844 0)
(-0.161355 0.0348242 0)
(-0.158381 0.0354123 0)
(-0.155193 0.0347928 0)
(-0.152223 0.0324349 0)
(-0.150044 0.0278347 0)
(-0.149402 0.020392 0)
(-0.151346 0.00945269 0)
(-0.156376 -0.00576577 0)
(-0.163474 -0.024849 0)
(-0.170752 -0.0461775 0)
(-0.177331 -0.070446 0)
(-0.181705 -0.10731 0)
(-0.178959 -0.145386 0)
(-0.166702 0.0229951 0)
(-0.166854 0.0280607 0)
(-0.166815 0.0292348 0)
(-0.166421 0.0296239 0)
(-0.165509 0.0299698 0)
(-0.163989 0.0305031 0)
(-0.1618 0.0311905 0)
(-0.15896 0.0317945 0)
(-0.1556 0.0319473 0)
(-0.151972 0.0312304 0)
(-0.148462 0.029251 0)
(-0.145589 0.0256798 0)
(-0.143958 0.0201354 0)
(-0.14442 0.0118997 0)
(-0.148031 -9.44036e-05 0)
(-0.154652 -0.0170319 0)
(-0.162913 -0.0379202 0)
(-0.171334 -0.0634423 0)
(-0.178732 -0.104851 0)
(-0.179699 -0.158894 0)
(-0.166914 0.0229899 0)
(-0.167118 0.0280305 0)
(-0.166861 0.0288576 0)
(-0.166125 0.0287569 0)
(-0.164822 0.0285365 0)
(-0.162928 0.0284469 0)
(-0.160429 0.0284951 0)
(-0.157368 0.0285284 0)
(-0.153854 0.0282892 0)
(-0.150107 0.027475 0)
(-0.146448 0.0258045 0)
(-0.143274 0.0230432 0)
(-0.141056 0.0189242 0)
(-0.140394 0.0129142 0)
(-0.142274 0.00392091 0)
(-0.147462 -0.00961341 0)
(-0.155614 -0.0284885 0)
(-0.165266 -0.0543352 0)
(-0.174969 -0.0984456 0)
(-0.180263 -0.170252 0)
(-0.167418 0.0241224 0)
(-0.167813 0.0282834 0)
(-0.167403 0.028334 0)
(-0.166322 0.0275632 0)
(-0.164599 0.026739 0)
(-0.162306 0.0260726 0)
(-0.159486 0.0255795 0)
(-0.156213 0.0251511 0)
(-0.152591 0.0246072 0)
(-0.148797 0.0237351 0)
(-0.145082 0.0223267 0)
(-0.141751 0.0201952 0)
(-0.139164 0.0171438 0)
(-0.137746 0.0128172 0)
(-0.138233 0.00633461 0)
(-0.141567 -0.00380897 0)
(-0.149007 -0.0193137 0)
(-0.158104 -0.044385 0)
(-0.168869 -0.0883573 0)
(-0.180013 -0.180506 0)
(-0.168544 0.022584 0)
(-0.169736 0.0265168 0)
(-0.168799 0.0263758 0)
(-0.16704 0.0253776 0)
(-0.164699 0.024246 0)
(-0.161876 0.0232114 0)
(-0.158616 0.0223555 0)
(-0.155009 0.0216233 0)
(-0.151157 0.0208907 0)
(-0.147197 0.0200069 0)
(-0.143317 0.0188182 0)
(-0.139741 0.0171775 0)
(-0.136776 0.0149565 0)
(-0.134771 0.0118989 0)
(-0.134307 0.00743616 0)
(-0.135909 0.000144084 0)
(-0.142364 -0.0114048 0)
(-0.147815 -0.0352748 0)
(-0.160648 -0.0766816 0)
(-0.178171 -0.192633 0)
(-0.170096 0.0364978 0)
(-0.17135 0.0351225 0)
(-0.169436 0.0304985 0)
(-0.166803 0.0264303 0)
(-0.163688 0.0235281 0)
(-0.160054 0.0213823 0)
(-0.155991 0.0197754 0)
(-0.151656 0.0185307 0)
(-0.147172 0.0174712 0)
(-0.142654 0.0164532 0)
(-0.138246 0.0153627 0)
(-0.13416 0.0141116 0)
(-0.130644 0.012593 0)
(-0.127931 0.0106313 0)
(-0.126627 0.00791561 0)
(-0.126527 0.00307846 0)
(-0.13227 -0.00527347 0)
(-0.129618 -0.026544 0)
(-0.154992 -0.0608446 0)
(-0.169742 -0.202275 0)
(-0.172246 0.0136359 0)
(-0.174418 0.00839768 0)
(-0.167692 0.00869425 0)
(-0.160214 0.0109743 0)
(-0.1525 0.0115212 0)
(-0.144991 0.0111233 0)
(-0.137884 0.0106349 0)
(-0.131171 0.0102392 0)
(-0.124794 0.00986854 0)
(-0.118716 0.0094595 0)
(-0.112955 0.0089864 0)
(-0.107577 0.00842488 0)
(-0.102718 0.00774355 0)
(-0.0983916 0.00680635 0)
(-0.095343 0.00552475 0)
(-0.0922029 0.002857 0)
(-0.09765 -0.000868736 0)
(-0.0870969 -0.0140246 0)
(-0.147148 -0.0316136 0)
(-0.118545 -0.176704 0)
(-0.133403 0.0766074 0)
(-0.116012 0.0560348 0)
(-0.0957226 0.0343481 0)
(-0.07856 0.0224421 0)
(-0.065533 0.0162904 0)
(-0.0546897 0.012723 0)
(-0.0448755 0.0103926 0)
(-0.035801 0.00875094 0)
(-0.0273959 0.0075253 0)
(-0.0195798 0.00657642 0)
(-0.0122989 0.00581014 0)
(-0.00553441 0.00516504 0)
(0.000638673 0.00459807 0)
(0.00627143 0.00405806 0)
(0.0105784 0.0034733 0)
(0.0153936 0.00265859 0)
(0.0109037 0.00168691 0)
(0.0294221 -0.00183291 0)
(-0.0701863 0.00473077 0)
(0.135378 -0.07988 0)
)
;

boundaryField
{
    movingWall
    {
        type            calculated;
        value           uniform (0.666667 0 0);
    }
    fixedWalls
    {
        type            calculated;
        value           uniform (-0.166667 0 0);
    }
    frontAndBack
    {
        type            empty;
    }
}


// ************************************************************************* //
