/*--------------------------------*- C++ -*----------------------------------*\
| =========                 |                                                 |
| \\      /  F ield         | OpenFOAM: The Open Source CFD Toolbox           |
|  \\    /   O peration     | Version:  2312                                  |
|   \\  /    A nd           | Website:  www.openfoam.com                      |
|    \\/     M anipulation  |                                                 |
\*---------------------------------------------------------------------------*/
FoamFile
{
    version     2.0;
    format      ascii;
    arch        "LSB;label=32;scalar=64";
    class       volSymmTensorField;
    location    "3";
    object      UPrime2Mean;
}
// * * * * * * * * * * * * * * * * * * * * * * * * * * * * * * * * * * * * * //

dimensions      [0 2 -2 0 0 0 0];

internalField   nonuniform List<symmTensor> 
400
(
(0.138843 2.03169e-05 0 2.79833e-08 0 0)
(0.138499 9.37781e-05 0 1.54047e-07 0 0)
(0.137875 0.000140073 0 3.55334e-07 0 0)
(0.137159 0.000162438 0 5.05363e-07 0 0)
(0.136377 0.00018207 0 7.53212e-07 0 0)
(0.135514 0.00020691 0 1.32329e-06 0 0)
(0.134553 0.000237094 0 2.5578e-06 0 0)
(0.133506 0.000264108 0 4.74643e-06 0 0)
(0.132437 0.000268217 0 6.8038e-06 0 0)
(0.131464 0.000235765 0 6.90591e-06 0 0)
(0.130724 0.000166178 0 4.57098e-06 0 0)
(0.130335 6.79989e-05 0 1.50814e-06 0 0)
(0.130379 -6.01795e-05 0 2.28822e-07 0 0)
(0.130948 -0.00019847 0 2.02333e-06 0 0)
(0.132055 -0.00033701 0 6.65259e-06 0 0)
(0.133636 -0.000444347 0 1.15696e-05 0 0)
(0.135509 -0.000471189 0 1.20555e-05 0 0)
(0.137398 -0.000362727 0 5.88528e-06 0 0)
(0.138712 -0.000150047 0 5.27627e-07 0 0)
(0.139031 3.7344e-05 0 4.75774e-07 0 0)
(0.138664 0.00020343 0 7.54547e-07 0 0)
(0.137985 0.000435099 0 4.28842e-06 0 0)
(0.137078 0.000555051 0 7.61226e-06 0 0)
(0.136077 0.000610815 0 1.00675e-05 0 0)
(0.135019 0.00065952 0 1.40205e-05 0 0)
(0.133894 0.000714851 0 2.21987e-05 0 0)
(0.132709 0.000759425 0 3.56837e-05 0 0)
(0.131513 0.000764239 0 5.04601e-05 0 0)
(0.130384 0.000704721 0 5.75741e-05 0 0)
(0.129411 0.000571369 0 4.99092e-05 0 0)
(0.128682 0.000369362 0 2.9768e-05 0 0)
(0.12828 0.000109148 0 8.77913e-06 0 0)
(0.128284 -0.000201555 0 2.14365e-06 0 0)
(0.128767 -0.000549073 0 2.14487e-05 0 0)
(0.129794 -0.000904643 0 6.68637e-05 0 0)
(0.131371 -0.00120757 0 0.000118345 0 0)
(0.133419 -0.00135316 0 0.000137439 0 0)
(0.135734 -0.00119267 0 9.03624e-05 0 0)
(0.137898 -0.000667727 0 1.86768e-05 0 0)
(0.138892 -3.75732e-05 0 2.11417e-06 0 0)
(0.138493 0.000563068 0 6.97996e-06 0 0)
(0.137624 0.000895965 0 2.13053e-05 0 0)
(0.136619 0.00106155 0 3.29036e-05 0 0)
(0.135514 0.00115045 0 4.29174e-05 0 0)
(0.134347 0.00122639 0 5.91535e-05 0 0)
(0.133121 0.00129865 0 8.87817e-05 0 0)
(0.131851 0.00133789 0 0.000130458 0 0)
(0.130578 0.00130643 0 0.000169072 0 0)
(0.129367 0.00117934 0 0.000181247 0 0)
(0.128289 0.000951138 0 0.000152925 0 0)
(0.127421 0.000628852 0 9.24591e-05 0 0)
(0.126847 0.000220666 0 2.92968e-05 0 0)
(0.126654 -0.000265624 0 4.44426e-06 0 0)
(0.126923 -0.000817763 0 5.36849e-05 0 0)
(0.127735 -0.0013995 0 0.000190697 0 0)
(0.129162 -0.00193993 0 0.000381387 0 0)
(0.131233 -0.00230907 0 0.000518206 0 0)
(0.133869 -0.00228262 0 0.000449202 0 0)
(0.136774 -0.0015923 0 0.000169224 0 0)
(0.138728 -0.000399901 0 5.06583e-06 0 0)
(0.138394 0.00100636 0 2.51604e-05 0 0)
(0.137414 0.00140173 0 5.65716e-05 0 0)
(0.136362 0.00159579 0 8.12621e-05 0 0)
(0.135227 0.00171691 0 0.000106323 0 0)
(0.134029 0.00182292 0 0.000146474 0 0)
(0.132762 0.00191611 0 0.000212949 0 0)
(0.131433 0.00196053 0 0.000298709 0 0)
(0.130074 0.00191231 0 0.000370147 0 0)
(0.12874 0.00174225 0 0.000383446 0 0)
(0.127503 0.00144034 0 0.000317477 0 0)
(0.12645 0.00100669 0 0.000193119 0 0)
(0.125678 0.000445725 0 6.63769e-05 0 0)
(0.125277 -0.00023469 0 7.55084e-06 0 0)
(0.125331 -0.00101585 0 7.97983e-05 0 0)
(0.125914 -0.00185273 0 0.000315547 0 0)
(0.127117 -0.00266236 0 0.000695878 0 0)
(0.129059 -0.00330336 0 0.00109506 0 0)
(0.131821 -0.00353615 0 0.00121353 0 0)
(0.135269 -0.0029146 0 0.000728172 0 0)
(0.138339 -0.00107016 0 6.52118e-05 0 0)
(0.138357 0.00149425 0 5.96827e-05 0 0)
(0.137339 0.0019367 0 0.000113064 0 0)
(0.136286 0.00214683 0 0.000153895 0 0)
(0.135166 0.0022967 0 0.000200241 0 0)
(0.13398 0.00244008 0 0.000274927 0 0)
(0.132712 0.00257399 0 0.000392236 0 0)
(0.131355 0.00265406 0 0.000532944 0 0)
(0.129931 0.00262586 0 0.000638049 0 0)
(0.128498 0.00244605 0 0.000642034 0 0)
(0.127145 0.00208726 0 0.000522469 0 0)
(0.12598 0.00153632 0 0.000320962 0 0)
(0.125103 0.000796176 0 0.000122027 0 0)
(0.12459 -0.000113743 0 1.79622e-05 0 0)
(0.12449 -0.0011549 0 8.91214e-05 0 0)
(0.124865 -0.0022782 0 0.000383404 0 0)
(0.125767 -0.00340293 0 0.000909886 0 0)
(0.127378 -0.00438572 0 0.00160293 0 0)
(0.129976 -0.00496531 0 0.0021713 0 0)
(0.133669 -0.00459806 0 0.00187868 0 0)
(0.137562 -0.00230032 0 0.000447577 0 0)
(0.138365 0.0019901 0 0.000109886 0 0)
(0.137378 0.00247297 0 0.000187327 0 0)
(0.136366 0.00269607 0 0.000245153 0 0)
(0.135303 0.00287755 0 0.000316588 0 0)
(0.134173 0.00307133 0 0.00043217 0 0)
(0.132956 0.0032711 0 0.000606014 0 0)
(0.131632 0.00342216 0 0.00080146 0 0)
(0.130217 0.00345068 0 0.000932086 0 0)
(0.128773 0.00328417 0 0.000914321 0 0)
(0.127395 0.00286692 0 0.000735477 0 0)
(0.126192 0.0021733 0 0.000463595 0 0)
(0.125254 0.00121706 0 0.00020263 0 0)
(0.124663 4.70377e-05 0 5.56907e-05 0 0)
(0.124482 -0.00127699 0 0.000109557 0 0)
(0.124734 -0.00268771 0 0.00042303 0 0)
(0.125411 -0.00411812 0 0.00101896 0 0)
(0.126612 -0.00548099 0 0.00189765 0 0)
(0.128749 -0.0065374 0 0.00294745 0 0)
(0.132332 -0.00662879 0 0.00338834 0 0)
(0.136738 -0.00412619 0 0.00147071 0 0)
(0.138414 0.00246112 0 0.000169332 0 0)
(0.137507 0.00298638 0 0.000270419 0 0)
(0.136575 0.00322367 0 0.000343504 0 0)
(0.13561 0.00343879 0 0.000438389 0 0)
(0.134592 0.00369167 0 0.000591545 0 0)
(0.133497 0.00397701 0 0.000815473 0 0)
(0.1323 0.00422666 0 0.00105469 0 0)
(0.131007 0.00433965 0 0.00120088 0 0)
(0.129663 0.0042056 0 0.00116272 0 0)
(0.128344 0.00373747 0 0.000942762 0 0)
(0.127129 0.00289933 0 0.000626475 0 0)
(0.126114 0.00171339 0 0.000323525 0 0)
(0.12542 0.00024645 0 0.000140716 0 0)
(0.12515 -0.00140286 0 0.000170958 0 0)
(0.125321 -0.00312209 0 0.000478815 0 0)
(0.12588 -0.00482417 0 0.00109202 0 0)
(0.126791 -0.00650172 0 0.00204393 0 0)
(0.128362 -0.0080742 0 0.0033927 0 0)
(0.131507 -0.00886953 0 0.00475303 0 0)
(0.136094 -0.00652947 0 0.00321803 0 0)
(0.138494 0.0028814 0 0.000227579 0 0)
(0.137699 0.00345506 0 0.000350207 0 0)
(0.136885 0.00370759 0 0.000433993 0 0)
(0.136058 0.00395335 0 0.000544608 0 0)
(0.135206 0.00426307 0 0.000721835 0 0)
(0.134313 0.00463683 0 0.000976765 0 0)
(0.133355 0.00499735 0 0.00124157 0 0)
(0.132315 0.00521947 0 0.0014022 0 0)
(0.1312 0.0051488 0 0.00136177 0 0)
(0.130039 0.00466291 0 0.00112982 0 0)
(0.128871 0.00371424 0 0.000801868 0 0)
(0.127795 0.00231293 0 0.000483889 0 0)
(0.126982 0.000527313 0 0.000280729 0 0)
(0.12657 -0.00149914 0 0.000288211 0 0)
(0.1266 -0.00356744 0 0.000567471 0 0)
(0.126996 -0.00553291 0 0.00115703 0 0)
(0.127672 -0.00744651 0 0.00211764 0 0)
(0.12873 -0.0094364 0 0.00359158 0 0)
(0.131246 -0.0111008 0 0.00569913 0 0)
(0.135711 -0.00936479 0 0.00537783 0 0)
(0.138587 0.00323066 0 0.000273588 0 0)
(0.137934 0.00386008 0 0.000414244 0 0)
(0.137264 0.0041269 0 0.000502794 0 0)
(0.136606 0.00439369 0 0.000617902 0 0)
(0.135965 0.00474449 0 0.00079983 0 0)
(0.135342 0.00518904 0 0.00105883 0 0)
(0.134719 0.00564758 0 0.00132626 0 0)
(0.134059 0.00598431 0 0.00149582 0 0)
(0.133326 0.00601331 0 0.00147247 0 0)
(0.132486 0.00558158 0 0.00126804 0 0)
(0.131509 0.004598 0 0.000967736 0 0)
(0.130472 0.00302893 0 0.000664455 0 0)
(0.129549 0.000931994 0 0.000464738 0 0)
(0.128943 -0.00149959 0 0.000455074 0 0)
(0.128714 -0.00393867 0 0.000678965 0 0)
(0.128783 -0.00617206 0 0.00119578 0 0)
(0.129104 -0.00827804 0 0.00211762 0 0)
(0.129647 -0.0105725 0 0.00362995 0 0)
(0.131434 -0.0131373 0 0.00623711 0 0)
(0.13553 -0.0124013 0 0.00750421 0 0)
(0.138682 0.00349782 0 0.000299345 0 0)
(0.138188 0.00418779 0 0.000453445 0 0)
(0.137677 0.00446567 0 0.000541135 0 0)
(0.137205 0.00473708 0 0.000648912 0 0)
(0.136796 0.00509919 0 0.000814794 0 0)
(0.136478 0.00557438 0 0.00104943 0 0)
(0.136246 0.00609618 0 0.00129748 0 0)
(0.13606 0.00652777 0 0.00146436 0 0)
(0.135848 0.00667445 0 0.00146682 0 0)
(0.135518 0.00635062 0 0.00130836 0 0)
(0.134979 0.00542997 0 0.00106792 0 0)
(0.134202 0.00382166 0 0.0008294 0 0)
(0.133279 0.00152178 0 0.000665425 0 0)
(0.132441 -0.00125469 0 0.000641087 0 0)
(0.131775 -0.00407085 0 0.000782706 0 0)
(0.131295 -0.00659857 0 0.0011765 0 0)
(0.131058 -0.00889403 0 0.00201017 0 0)
(0.130976 -0.0114354 0 0.00352356 0 0)
(0.131953 -0.0148379 0 0.00642844 0 0)
(0.135416 -0.0154344 0 0.00932152 0 0)
(0.13877 0.00368035 0 0.000301542 0 0)
(0.138433 0.0044315 0 0.000463856 0 0)
(0.138084 0.00471419 0 0.000546284 0 0)
(0.137796 0.00497066 0 0.000637968 0 0)
(0.137616 0.00530904 0 0.000773152 0 0)
(0.137594 0.00576265 0 0.00096214 0 0)
(0.137746 0.00628516 0 0.00116654 0 0)
(0.13805 0.00675378 0 0.00131048 0 0)
(0.138422 0.00698832 0 0.0013288 0 0)
(0.138739 0.006796 0 0.00122045 0 0)
(0.13884 0.00602371 0 0.0010556 0 0)
(0.138611 0.00454115 0 0.0009117 0 0)
(0.13795 0.00224659 0 0.000826063 0 0)
(0.1369 -0.000697551 0 0.000799168 0 0)
(0.135656 -0.00380101 0 0.000841206 0 0)
(0.134453 -0.00663161 0 0.00108099 0 0)
(0.133469 -0.0091618 0 0.00177757 0 0)
(0.132625 -0.0119326 0 0.00325005 0 0)
(0.132708 -0.016122 0 0.0063402 0 0)
(0.135294 -0.0183445 0 0.0107121 0 0)
(0.138838 0.00378512 0 0.00028227 0 0)
(0.138642 0.00459302 0 0.000447012 0 0)
(0.138442 0.00487217 0 0.000521803 0 0)
(0.138325 0.00509455 0 0.000593392 0 0)
(0.13835 0.00537672 0 0.000691889 0 0)
(0.13858 0.00575805 0 0.000825855 0 0)
(0.139048 0.0062114 0 0.000971476 0 0)
(0.139754 0.00663719 0 0.00107518 0 0)
(0.14063 0.00688277 0 0.00109045 0 0)
(0.141546 0.00677615 0 0.00101728 0 0)
(0.14232 0.00616586 0 0.000914811 0 0)
(0.142753 0.00491953 0 0.000858064 0 0)
(0.142589 0.00292777 0 0.000875413 0 0)
(0.141624 0.000183931 0 0.000893492 0 0)
(0.139931 -0.00300805 0 0.000862761 0 0)
(0.13798 -0.00611868 0 0.000934769 0 0)
(0.136173 -0.00895699 0 0.00144171 0 0)
(0.134494 -0.0119914 0 0.00281508 0 0)
(0.133609 -0.0169353 0 0.00601382 0 0)
(0.135139 -0.0210771 0 0.0116981 0 0)
(0.138873 0.00382895 0 0.000248198 0 0)
(0.138786 0.00468184 0 0.000408575 0 0)
(0.138714 0.0049466 0 0.000474904 0 0)
(0.138746 0.00511835 0 0.000526805 0 0)
(0.138945 0.00532127 0 0.000590917 0 0)
(0.139369 0.00559708 0 0.00067407 0 0)
(0.140061 0.00593245 0 0.00076255 0 0)
(0.141027 0.00625233 0 0.000822972 0 0)
(0.142218 0.00643706 0 0.000826028 0 0)
(0.143514 0.0063466 0 0.000772824 0 0)
(0.144738 0.00585461 0 0.000708858 0 0)
(0.145658 0.00486401 0 0.000702025 0 0)
(0.145992 0.00329003 0 0.00078072 0 0)
(0.14539 0.00106551 0 0.000876196 0 0)
(0.143747 -0.00182319 0 0.000846601 0 0)
(0.141411 -0.00506777 0 0.000781656 0 0)
(0.138916 -0.00821424 0 0.00106535 0 0)
(0.136452 -0.0115632 0 0.00225683 0 0)
(0.134562 -0.0172467 0 0.00547941 0 0)
(0.134936 -0.0236115 0 0.0123582 0 0)
(0.138864 0.00384882 0 0.000208838 0 0)
(0.138839 0.00471758 0 0.000357277 0 0)
(0.138865 0.00494948 0 0.000414229 0 0)
(0.139027 0.00505502 0 0.000449164 0 0)
(0.139375 0.00516547 0 0.000485885 0 0)
(0.13995 0.00532391 0 0.00053039 0 0)
(0.140786 0.00552504 0 0.000575237 0 0)
(0.141887 0.0057169 0 0.000602429 0 0)
(0.143211 0.00581074 0 0.0005955 0 0)
(0.144655 0.00570153 0 0.000556187 0 0)
(0.146057 0.00529604 0 0.000514505 0 0)
(0.1472 0.00453386 0 0.000519238 0 0)
(0.14785 0.00336813 0 0.000602513 0 0)
(0.147716 0.0017019 0 0.000726359 0 0)
(0.146495 -0.000623645 0 0.000774732 0 0)
(0.14429 -0.00366032 0 0.000663562 0 0)
(0.141464 -0.00697086 0 0.000729569 0 0)
(0.138381 -0.0106437 0 0.0016465 0 0)
(0.135529 -0.0170038 0 0.00473571 0 0)
(0.13469 -0.0258781 0 0.0127432 0 0)
(0.138787 0.00384563 0 0.00017059 0 0)
(0.138755 0.00470824 0 0.000300427 0 0)
(0.138859 0.00488411 0 0.000346908 0 0)
(0.139143 0.00490879 0 0.000368157 0 0)
(0.139631 0.00492174 0 0.000385464 0 0)
(0.140339 0.00496636 0 0.000404384 0 0)
(0.14128 0.00504251 0 0.000421545 0 0)
(0.142448 0.00511566 0 0.000428364 0 0)
(0.143805 0.00512479 0 0.000417025 0 0)
(0.145262 0.0049964 0 0.000389028 0 0)
(0.146681 0.00466608 0 0.000361082 0 0)
(0.147896 0.00409243 0 0.000361412 0 0)
(0.148725 0.00324284 0 0.000416136 0 0)
(0.148958 0.00204342 0 0.000522921 0 0)
(0.148287 0.000311096 0 0.000613263 0 0)
(0.146526 -0.00218598 0 0.000572656 0 0)
(0.143761 -0.00537038 0 0.00049393 0 0)
(0.14031 -0.00930757 0 0.00108072 0 0)
(0.136733 -0.0161383 0 0.00379128 0 0)
(0.134501 -0.0278186 0 0.0128654 0 0)
(0.138613 0.00403091 0 0.000155529 0 0)
(0.138526 0.00473873 0 0.000256471 0 0)
(0.138684 0.00478351 0 0.000285778 0 0)
(0.13909 0.00469407 0 0.000293002 0 0)
(0.139723 0.00460147 0 0.000295909 0 0)
(0.140568 0.00454028 0 0.000298719 0 0)
(0.141615 0.00451109 0 0.000300275 0 0)
(0.142844 0.00448925 0 0.000296696 0 0)
(0.144215 0.00443379 0 0.000284719 0 0)
(0.145657 0.00429577 0 0.000265182 0 0)
(0.147061 0.00402999 0 0.000245778 0 0)
(0.1483 0.00360328 0 0.000240214 0 0)
(0.149234 0.00298984 0 0.000264082 0 0)
(0.149714 0.00214051 0 0.000326776 0 0)
(0.1495 0.000909922 0 0.000404415 0 0)
(0.148325 -0.000967924 0 0.000426894 0 0)
(0.145798 -0.00369751 0 0.000346753 0 0)
(0.142607 -0.00776817 0 0.000658671 0 0)
(0.138721 -0.0147172 0 0.0027664 0 0)
(0.134587 -0.029682 0 0.0128768 0 0)
(0.138219 0.00376876 0 0.000120289 0 0)
(0.137888 0.00441892 0 0.000188547 0 0)
(0.138214 0.00442781 0 0.000210177 0 0)
(0.138847 0.00429818 0 0.000214195 0 0)
(0.139686 0.00415039 0 0.000212373 0 0)
(0.140708 0.00402058 0 0.000208538 0 0)
(0.1419 0.00392059 0 0.000203747 0 0)
(0.143232 0.00383708 0 0.000196935 0 0)
(0.144665 0.00374305 0 0.000186756 0 0)
(0.146143 0.00360587 0 0.000173372 0 0)
(0.147582 0.00339373 0 0.000159667 0 0)
(0.14889 0.00308006 0 0.000151125 0 0)
(0.149944 0.0026471 0 0.000154434 0 0)
(0.150617 0.00205702 0 0.000175899 0 0)
(0.150717 0.00121638 0 0.000215224 0 0)
(0.1501 -0.000122084 0 0.000244191 0 0)
(0.147843 -0.00220724 0 0.000236572 0 0)
(0.146002 -0.00631911 0 0.000423125 0 0)
(0.14145 -0.0130275 0 0.00186436 0 0)
(0.135242 -0.0320442 0 0.0129479 0 0)
(0.137682 0.00607685 0 0.000297646 0 0)
(0.137348 0.00582421 0 0.000300952 0 0)
(0.137984 0.00509545 0 0.000250701 0 0)
(0.138899 0.00445075 0 0.00020531 0 0)
(0.139987 0.00400166 0 0.000176077 0 0)
(0.141272 0.00367887 0 0.000156109 0 0)
(0.142726 0.00344562 0 0.000141732 0 0)
(0.144294 0.00326944 0 0.000130084 0 0)
(0.145932 0.00311748 0 0.000119151 0 0)
(0.147592 0.00296205 0 0.000108119 0 0)
(0.149211 0.00278122 0 9.73699e-05 0 0)
(0.150698 0.00255917 0 8.81131e-05 0 0)
(0.151956 0.00227795 0 8.15253e-05 0 0)
(0.152895 0.00190835 0 7.83191e-05 0 0)
(0.153301 0.00139473 0 7.96487e-05 0 0)
(0.15327 0.000493486 0 8.43436e-05 0 0)
(0.151171 -0.00104598 0 0.000108128 0 0)
(0.152204 -0.00490661 0 0.000299586 0 0)
(0.14326 -0.0104714 0 0.00104964 0 0)
(0.138253 -0.0344213 0 0.0120584 0 0)
(0.137045 0.00227564 0 4.79978e-05 0 0)
(0.13632 0.00137894 0 1.80205e-05 0 0)
(0.13856 0.00145377 0 2.05565e-05 0 0)
(0.14108 0.0018575 0 3.45821e-05 0 0)
(0.143716 0.00197975 0 4.03077e-05 0 0)
(0.146325 0.00194137 0 3.99807e-05 0 0)
(0.148835 0.00188535 0 3.84768e-05 0 0)
(0.151246 0.0018424 0 3.70814e-05 0 0)
(0.153569 0.00180068 0 3.55291e-05 0 0)
(0.155813 0.00174812 0 3.34935e-05 0 0)
(0.157961 0.00167919 0 3.10111e-05 0 0)
(0.159982 0.00158894 0 2.82375e-05 0 0)
(0.161816 0.001471 0 2.52608e-05 0 0)
(0.163452 0.00129867 0 2.14458e-05 0 0)
(0.164602 0.00104993 0 1.65449e-05 0 0)
(0.165769 0.000520869 0 1.00021e-05 0 0)
(0.163717 -0.000246656 0 1.93857e-05 0 0)
(0.167606 -0.00282191 0 0.000131653 0 0)
(0.145802 -0.00556499 0 0.000336621 0 0)
(0.156553 -0.0323156 0 0.00788062 0 0)
(0.150432 0.0133229 0 0.00121622 0 0)
(0.156303 0.00995965 0 0.000731214 0 0)
(0.163696 0.00629668 0 0.000310073 0 0)
(0.170049 0.00422426 0 0.000146474 0 0)
(0.175012 0.00313333 0 8.29262e-05 0 0)
(0.179217 0.00249174 0 5.3128e-05 0 0)
(0.183091 0.00206938 0 3.67628e-05 0 0)
(0.186731 0.00176985 0 2.68256e-05 0 0)
(0.190155 0.00154467 0 2.03325e-05 0 0)
(0.193388 0.00136913 0 1.58841e-05 0 0)
(0.196442 0.00122606 0 1.26672e-05 0 0)
(0.199316 0.001104 0 1.02183e-05 0 0)
(0.201972 0.00099453 0 8.2489e-06 0 0)
(0.204419 0.000886784 0 6.50243e-06 0 0)
(0.206307 0.000763356 0 4.73559e-06 0 0)
(0.208392 0.000581251 0 2.55566e-06 0 0)
(0.20646 0.000348498 0 1.00253e-06 0 0)
(0.21401 -0.000476512 0 9.23626e-06 0 0)
(0.17359 0.000723527 0 7.54118e-05 0 0)
(0.260858 -0.0184793 0 0.00133862 0 0)
)
;

boundaryField
{
    movingWall
    {
        type            calculated;
        value           uniform (0.555556 0 0 0 0 0);
    }
    fixedWalls
    {
        type            calculated;
        value           uniform (0.138889 0 0 0 0 0);
    }
    frontAndBack
    {
        type            empty;
    }
}


// ************************************************************************* //
