/*--------------------------------*- C++ -*----------------------------------*\
| =========                 |                                                 |
| \\      /  F ield         | OpenFOAM: The Open Source CFD Toolbox           |
|  \\    /   O peration     | Version:  2312                                  |
|   \\  /    A nd           | Website:  www.openfoam.com                      |
|    \\/     M anipulation  |                                                 |
\*---------------------------------------------------------------------------*/
FoamFile
{
    version     2.0;
    format      ascii;
    arch        "LSB;label=32;scalar=64";
    class       volVectorField;
    location    "3";
    object      vorticityField;
}
// * * * * * * * * * * * * * * * * * * * * * * * * * * * * * * * * * * * * * //

dimensions      [0 0 -1 0 0 0 0];

internalField   nonuniform List<vector> 
400
(
(0 -0 3.3874e-05)
(0 -0 -3.47744e-05)
(0 -0 8.66739e-06)
(0 -0 -2.04048e-06)
(0 -0 5.86514e-07)
(0 -0 -9.70926e-08)
(0 -0 6.34581e-08)
(0 -0 8.75786e-09)
(0 -0 1.39864e-08)
(0 -0 5.54407e-09)
(0 -0 3.05398e-09)
(0 -0 6.132e-10)
(0 -0 -5.12667e-10)
(0 -0 -1.06439e-09)
(0 -0 -1.13626e-09)
(0 -0 -9.6028e-10)
(0 -0 -6.53867e-10)
(0 -0 -3.28903e-10)
(0 -0 -9.05113e-11)
(0 -0 -7.78974e-11)
(0 -0 -1.91506e-05)
(0 -0 3.13711e-05)
(0 -0 -7.28403e-06)
(0 -0 1.69793e-06)
(0 -0 -3.93378e-07)
(0 -0 9.42687e-08)
(0 -0 -2.01235e-08)
(0 -0 6.55076e-09)
(0 -0 2.59975e-11)
(0 -0 1.35758e-09)
(0 -0 8.10172e-10)
(0 -0 7.02191e-10)
(0 -0 4.84476e-10)
(0 -0 3.061e-10)
(0 -0 1.56851e-10)
(0 -0 4.9359e-11)
(0 -0 -4.94523e-11)
(0 -0 -2.11695e-10)
(0 -0 -2.26405e-10)
(0 -0 -1.2195e-10)
(0 -0 3.41891e-05)
(0 -0 -3.63931e-05)
(0 -0 8.47146e-06)
(0 -0 -1.97112e-06)
(0 -0 4.62438e-07)
(0 -0 -1.05456e-07)
(0 -0 2.73291e-08)
(0 -0 -3.98241e-09)
(0 -0 3.25951e-09)
(0 -0 1.30379e-09)
(0 -0 1.47814e-09)
(0 -0 1.09051e-09)
(0 -0 8.05585e-10)
(0 -0 5.01319e-10)
(0 -0 2.56223e-10)
(0 -0 7.41353e-11)
(0 -0 -9.255e-11)
(0 -0 -3.64396e-10)
(0 -0 -3.92554e-10)
(0 -0 -2.16823e-10)
(0 -0 -4.25754e-05)
(0 -0 4.00298e-05)
(0 -0 -9.21804e-06)
(0 -0 2.12987e-06)
(0 -0 -4.88916e-07)
(0 -0 1.16654e-07)
(0 -0 -2.35705e-08)
(0 -0 8.73029e-09)
(0 -0 1.07001e-09)
(0 -0 2.53372e-09)
(0 -0 1.80367e-09)
(0 -0 1.50793e-09)
(0 -0 1.06272e-09)
(0 -0 6.57804e-10)
(0 -0 3.16536e-10)
(0 -0 6.597e-11)
(0 -0 -1.63765e-10)
(0 -0 -5.38166e-10)
(0 -0 -5.78525e-10)
(0 -0 -3.27585e-10)
(0 -0 3.53527e-05)
(0 -0 -4.28471e-05)
(0 -0 9.64702e-06)
(0 -0 -2.161e-06)
(0 -0 4.87521e-07)
(0 -0 -1.04316e-07)
(0 -0 2.70721e-08)
(0 -0 -1.94841e-09)
(0 -0 4.11474e-09)
(0 -0 2.46366e-09)
(0 -0 2.34023e-09)
(0 -0 1.80183e-09)
(0 -0 1.2853e-09)
(0 -0 7.68613e-10)
(0 -0 3.40823e-10)
(0 -0 2.53523e-11)
(0 -0 -2.62474e-10)
(0 -0 -7.34876e-10)
(0 -0 -7.89657e-10)
(0 -0 -4.59886e-10)
(0 -0 -7.75416e-05)
(0 -0 5.76553e-05)
(0 -0 -1.32139e-05)
(0 -0 3.03383e-06)
(0 -0 -6.91224e-07)
(0 -0 1.63221e-07)
(0 -0 -3.28812e-08)
(0 -0 1.20984e-08)
(0 -0 1.47248e-09)
(0 -0 3.53568e-09)
(0 -0 2.51157e-09)
(0 -0 2.08254e-09)
(0 -0 1.43047e-09)
(0 -0 8.28415e-10)
(0 -0 3.174e-10)
(0 -0 -5.6865e-11)
(0 -0 -3.97626e-10)
(0 -0 -9.58402e-10)
(0 -0 -1.02613e-09)
(0 -0 -6.13162e-10)
(0 -0 7.92873e-05)
(0 -0 -6.91062e-05)
(0 -0 1.56771e-05)
(0 -0 -3.54151e-06)
(0 -0 8.03515e-07)
(0 -0 -1.75779e-07)
(0 -0 4.43181e-08)
(0 -0 -5.05936e-09)
(0 -0 5.71928e-09)
(0 -0 2.90993e-09)
(0 -0 2.94325e-09)
(0 -0 2.20097e-09)
(0 -0 1.5259e-09)
(0 -0 8.2806e-10)
(0 -0 2.47981e-10)
(0 -0 -1.79032e-10)
(0 -0 -5.65195e-10)
(0 -0 -1.20421e-09)
(0 -0 -1.28496e-09)
(0 -0 -7.86976e-10)
(0 -0 -9.93802e-05)
(0 -0 8.62871e-05)
(0 -0 -1.94438e-05)
(0 -0 4.37183e-06)
(0 -0 -9.74558e-07)
(0 -0 2.22518e-07)
(0 -0 -4.45181e-08)
(0 -0 1.48465e-08)
(0 -0 1.48502e-09)
(0 -0 4.01789e-09)
(0 -0 2.85109e-09)
(0 -0 2.31871e-09)
(0 -0 1.52532e-09)
(0 -0 7.71151e-10)
(0 -0 1.28168e-10)
(0 -0 -3.41861e-10)
(0 -0 -7.64924e-10)
(0 -0 -1.46781e-09)
(0 -0 -1.55898e-09)
(0 -0 -9.7559e-10)
(0 -0 0.000146883)
(0 -0 -0.000117793)
(0 -0 2.68685e-05)
(0 -0 -6.10983e-06)
(0 -0 1.3918e-06)
(0 -0 -3.10721e-07)
(0 -0 7.51711e-08)
(0 -0 -1.20273e-08)
(0 -0 7.47253e-09)
(0 -0 2.69915e-09)
(0 -0 3.1527e-09)
(0 -0 2.23322e-09)
(0 -0 1.47492e-09)
(0 -0 6.52591e-10)
(0 -0 -3.30256e-11)
(0 -0 -5.36391e-10)
(0 -0 -9.85564e-10)
(0 -0 -1.73662e-09)
(0 -0 -1.83704e-09)
(0 -0 -1.17177e-09)
(0 -0 -0.000180225)
(0 -0 0.000151899)
(0 -0 -3.47029e-05)
(0 -0 7.91155e-06)
(0 -0 -1.79541e-06)
(0 -0 4.11615e-07)
(0 -0 -8.86131e-08)
(0 -0 2.46715e-08)
(0 -0 -9.83512e-10)
(0 -0 4.44298e-09)
(0 -0 2.62994e-09)
(0 -0 2.21283e-09)
(0 -0 1.31828e-09)
(0 -0 4.90091e-10)
(0 -0 -2.3076e-10)
(0 -0 -7.5241e-10)
(0 -0 -1.21586e-09)
(0 -0 -1.9972e-09)
(0 -0 -2.1056e-09)
(0 -0 -1.36493e-09)
(0 -0 0.000223368)
(0 -0 -0.000197844)
(0 -0 4.56298e-05)
(0 -0 -1.04993e-05)
(0 -0 2.41474e-06)
(0 -0 -5.49833e-07)
(0 -0 1.29758e-07)
(0 -0 -2.53666e-08)
(0 -0 9.98132e-09)
(0 -0 1.662e-09)
(0 -0 2.99196e-09)
(0 -0 1.8889e-09)
(0 -0 1.15054e-09)
(0 -0 2.78534e-10)
(0 -0 -4.45714e-10)
(0 -0 -9.74169e-10)
(0 -0 -1.43727e-09)
(0 -0 -2.23001e-09)
(0 -0 -2.34665e-09)
(0 -0 -1.54187e-09)
(0 -0 -0.000270865)
(0 -0 0.000250126)
(0 -0 -5.80634e-05)
(0 -0 1.34489e-05)
(0 -0 -3.10773e-06)
(0 -0 7.20286e-07)
(0 -0 -1.62687e-07)
(0 -0 4.10862e-08)
(0 -0 -5.73059e-09)
(0 -0 4.81426e-09)
(0 -0 1.90019e-09)
(0 -0 1.80725e-09)
(0 -0 8.7026e-10)
(0 -0 6.28618e-11)
(0 -0 -6.63349e-10)
(0 -0 -1.17787e-09)
(0 -0 -1.62644e-09)
(0 -0 -2.41222e-09)
(0 -0 -2.5415e-09)
(0 -0 -1.68955e-09)
(0 -0 0.000294823)
(0 -0 -0.000302787)
(0 -0 7.10986e-05)
(0 -0 -1.66568e-05)
(0 -0 3.89759e-06)
(0 -0 -9.08091e-07)
(0 -0 2.14139e-07)
(0 -0 -4.68182e-08)
(0 -0 1.39609e-08)
(0 -0 -2.58049e-10)
(0 -0 2.60806e-09)
(0 -0 1.25184e-09)
(0 -0 6.61977e-10)
(0 -0 -1.76145e-10)
(0 -0 -8.56571e-10)
(0 -0 -1.34752e-09)
(0 -0 -1.76604e-09)
(0 -0 -2.52488e-09)
(0 -0 -2.66641e-09)
(0 -0 -1.78943e-09)
(0 -0 -0.000288886)
(0 -0 0.000334216)
(0 -0 -7.99463e-05)
(0 -0 1.90762e-05)
(0 -0 -4.53968e-06)
(0 -0 1.0781e-06)
(0 -0 -2.53157e-07)
(0 -0 6.19107e-08)
(0 -0 -1.21081e-08)
(0 -0 5.24254e-09)
(0 -0 8.27246e-10)
(0 -0 1.24958e-09)
(0 -0 3.2793e-10)
(0 -0 -3.56684e-10)
(0 -0 -1.00783e-09)
(0 -0 -1.45106e-09)
(0 -0 -1.82833e-09)
(0 -0 -2.54209e-09)
(0 -0 -2.69912e-09)
(0 -0 -1.82761e-09)
(0 -0 0.000256798)
(0 -0 -0.00034619)
(0 -0 8.29081e-05)
(0 -0 -1.98326e-05)
(0 -0 4.74083e-06)
(0 -0 -1.13266e-06)
(0 -0 2.71635e-07)
(0 -0 -6.33319e-08)
(0 -0 1.69025e-08)
(0 -0 -2.2101e-09)
(0 -0 2.07837e-09)
(0 -0 5.40281e-10)
(0 -0 1.8356e-10)
(0 -0 -5.32383e-10)
(0 -0 -1.08767e-09)
(0 -0 -1.48236e-09)
(0 -0 -1.80685e-09)
(0 -0 -2.45397e-09)
(0 -0 -2.61492e-09)
(0 -0 -1.78289e-09)
(0 -0 -0.000333546)
(0 -0 0.000375917)
(0 -0 -9.05948e-05)
(0 -0 2.18261e-05)
(0 -0 -5.26435e-06)
(0 -0 1.27055e-06)
(0 -0 -3.06622e-07)
(0 -0 7.5047e-08)
(0 -0 -1.69457e-08)
(0 -0 5.36115e-09)
(0 -0 -2.12802e-10)
(0 -0 7.13241e-10)
(0 -0 -1.14449e-10)
(0 -0 -5.94562e-10)
(0 -0 -1.09701e-09)
(0 -0 -1.41923e-09)
(0 -0 -1.68836e-09)
(0 -0 -2.24989e-09)
(0 -0 -2.40247e-09)
(0 -0 -1.6455e-09)
(0 -0 0.00015329)
(0 -0 -0.000340353)
(0 -0 8.10954e-05)
(0 -0 -1.93081e-05)
(0 -0 4.59446e-06)
(0 -0 -1.09379e-06)
(0 -0 2.59957e-07)
(0 -0 -6.13036e-08)
(0 -0 1.52011e-08)
(0 -0 -2.81496e-09)
(0 -0 1.31256e-09)
(0 -0 2.66269e-11)
(0 -0 -1.45327e-10)
(0 -0 -6.42195e-10)
(0 -0 -1.01568e-09)
(0 -0 -1.27399e-09)
(0 -0 -1.48145e-09)
(0 -0 -1.93987e-09)
(0 -0 -2.06586e-09)
(0 -0 -1.40965e-09)
(0 -0 -0.000171348)
(0 -0 0.000353155)
(0 -0 -8.43233e-05)
(0 -0 2.01222e-05)
(0 -0 -4.80522e-06)
(0 -0 1.14677e-06)
(0 -0 -2.74166e-07)
(0 -0 6.56643e-08)
(0 -0 -1.53506e-08)
(0 -0 4.141e-09)
(0 -0 -6.09763e-10)
(0 -0 3.12456e-10)
(0 -0 -2.51707e-10)
(0 -0 -5.07894e-10)
(0 -0 -8.04391e-10)
(0 -0 -9.77763e-10)
(0 -0 -1.12005e-09)
(0 -0 -1.47759e-09)
(0 -0 -1.61158e-09)
(0 -0 -1.09374e-09)
(0 -0 0.000527694)
(0 -0 -0.000436619)
(0 -0 0.000106792)
(0 -0 -2.61762e-05)
(0 -0 6.42601e-06)
(0 -0 -1.58501e-06)
(0 -0 3.90325e-07)
(0 -0 -9.71779e-08)
(0 -0 2.40298e-08)
(0 -0 -5.88593e-09)
(0 -0 1.62588e-09)
(0 -0 -3.21902e-10)
(0 -0 7.29044e-13)
(0 -0 -2.90554e-10)
(0 -0 -4.15129e-10)
(0 -0 -5.05274e-10)
(0 -0 -5.64237e-10)
(0 -0 -8.31189e-10)
(0 -0 -1.03758e-09)
(0 -0 -7.23288e-10)
(0 -0 -0.000428416)
(0 -0 0.000420485)
(0 -0 -0.000119093)
(0 -0 2.84471e-05)
(0 -0 -8.87247e-06)
(0 -0 1.88864e-06)
(0 -0 -8.31476e-07)
(0 -0 5.10564e-08)
(0 -0 -1.35816e-07)
(0 -0 -4.27052e-08)
(0 -0 -4.49343e-08)
(0 -0 -2.74903e-08)
(0 -0 -2.09117e-08)
(0 -0 -1.42854e-08)
(0 -0 -9.81664e-09)
(0 -0 -6.30008e-09)
(0 -0 -3.75662e-09)
(0 -0 -1.89091e-09)
(0 -0 -7.04647e-10)
(0 -0 -2.75729e-10)
)
;

boundaryField
{
    movingWall
    {
        type            calculated;
        value           nonuniform List<vector> 
20
(
(0 -0 -0.0013858)
(0 -0 0.000659245)
(0 -0 -0.000211674)
(0 -0 5.13755e-05)
(0 -0 -1.77497e-05)
(0 -0 3.89513e-06)
(0 -0 -1.80607e-06)
(0 -0 1.37203e-07)
(0 -0 -2.98154e-07)
(0 -0 -8.42116e-08)
(0 -0 -9.48785e-08)
(0 -0 -5.61478e-08)
(0 -0 -4.3149e-08)
(0 -0 -2.9182e-08)
(0 -0 -2.0037e-08)
(0 -0 -1.2807e-08)
(0 -0 -7.61039e-09)
(0 -0 -3.6578e-09)
(0 -0 -1.06257e-09)
(0 -0 -2.77759e-10)
)
;
    }
    fixedWalls
    {
        type            calculated;
        value           nonuniform List<vector> 
60
(
(0 -0 0.000146769)
(0 -0 -0.000134933)
(0 -0 0.000155534)
(0 -0 -0.000171389)
(0 -0 0.000186557)
(0 -0 -0.000246367)
(0 -0 0.000297975)
(0 -0 -0.00037297)
(0 -0 0.000505401)
(0 -0 -0.000651439)
(0 -0 0.000845126)
(0 -0 -0.00106448)
(0 -0 0.00128199)
(0 -0 -0.00140427)
(0 -0 0.00145791)
(0 -0 -0.00157422)
(0 -0 0.00144438)
(0 -0 -0.00149781)
(0 -0 0.00180258)
(0 -0 -0.00177123)
(0 -0 -7.39141e-11)
(0 -0 -1.12793e-10)
(0 -0 -1.97035e-10)
(0 -0 -2.90307e-10)
(0 -0 -3.96288e-10)
(0 -0 -5.13904e-10)
(0 -0 -6.43421e-10)
(0 -0 -7.79564e-10)
(0 -0 -9.1798e-10)
(0 -0 -1.04865e-09)
(0 -0 -1.16351e-09)
(0 -0 -1.25091e-09)
(0 -0 -1.30167e-09)
(0 -0 -1.30637e-09)
(0 -0 -1.25613e-09)
(0 -0 -1.14415e-09)
(0 -0 -9.60454e-10)
(0 -0 -7.18217e-10)
(0 -0 -4.44249e-10)
(0 -0 -1.64791e-10)
(0 -0 4.90613e-05)
(0 -0 -3.89823e-05)
(0 -0 1.02825e-05)
(0 -0 -2.44868e-06)
(0 -0 7.93582e-07)
(0 -0 -1.07393e-07)
(0 -0 1.05996e-07)
(0 -0 2.21638e-08)
(0 -0 2.68457e-08)
(0 -0 1.13807e-08)
(0 -0 6.07753e-09)
(0 -0 1.26582e-09)
(0 -0 -1.00467e-09)
(0 -0 -2.10073e-09)
(0 -0 -2.24171e-09)
(0 -0 -1.88926e-09)
(0 -0 -1.27552e-09)
(0 -0 -5.81936e-10)
(0 -0 -9.96067e-11)
(0 -0 -1.152e-10)
)
;
    }
    frontAndBack
    {
        type            empty;
    }
}


// ************************************************************************* //
