/*--------------------------------*- C++ -*----------------------------------*\
| =========                 |                                                 |
| \\      /  F ield         | OpenFOAM: The Open Source CFD Toolbox           |
|  \\    /   O peration     | Version:  2312                                  |
|   \\  /    A nd           | Website:  www.openfoam.com                      |
|    \\/     M anipulation  |                                                 |
\*---------------------------------------------------------------------------*/
FoamFile
{
    version     2.0;
    format      ascii;
    arch        "LSB;label=32;scalar=64";
    class       volVectorField;
    location    "3";
    object      wallShearStress;
}
// * * * * * * * * * * * * * * * * * * * * * * * * * * * * * * * * * * * * * //

dimensions      [0 2 -2 0 0 0 0];

internalField   uniform (0 0 0);

boundaryField
{
    movingWall
    {
        type            calculated;
        value           uniform (0 0 0);
    }
    fixedWalls
    {
        type            calculated;
        value           nonuniform List<vector> 
60
(
(2.94698e-10 -1.32059e-09 0)
(1.10017e-10 1.50933e-09 0)
(6.98333e-10 -1.45272e-09 0)
(4.26994e-10 1.49153e-09 0)
(4.96258e-11 -1.88212e-09 0)
(4.628e-10 1.75775e-09 0)
(-1.96488e-09 -2.46696e-09 0)
(1.9801e-09 3.09254e-09 0)
(-3.85745e-09 -3.89005e-09 0)
(5.33636e-09 5.23054e-09 0)
(-7.53657e-09 -7.0186e-09 0)
(9.36481e-09 9.08887e-09 0)
(-1.16741e-08 -1.16719e-08 0)
(1.21024e-08 1.35399e-08 0)
(-1.26166e-08 -1.50493e-08 0)
(1.05978e-08 1.49122e-08 0)
(-1.47359e-08 -1.73123e-08 0)
(2.76235e-09 1.76177e-08 0)
(-7.55302e-09 -1.36243e-08 0)
(1.46051e-08 1.50973e-08 0)
(-1.23938e-15 -4.59387e-18 0)
(-1.24197e-15 -1.15612e-15 0)
(-1.20966e-15 -2.00992e-15 0)
(-1.20062e-15 -2.95457e-15 0)
(-1.14873e-15 -4.02251e-15 0)
(-1.1205e-15 -5.20951e-15 0)
(-1.03022e-15 -6.51335e-15 0)
(-9.55874e-16 -7.88834e-15 0)
(-7.90016e-16 -9.28389e-15 0)
(-6.29061e-16 -1.06063e-14 0)
(-3.58873e-16 -1.17625e-14 0)
(-1.05614e-16 -1.26343e-14 0)
(2.25091e-16 -1.31262e-14 0)
(4.92455e-16 -1.31445e-14 0)
(8.00183e-16 -1.26318e-14 0)
(1.0865e-15 -1.1531e-14 0)
(1.48489e-15 -9.74115e-15 0)
(1.85712e-15 -7.20873e-15 0)
(1.80036e-15 -4.19963e-15 0)
(1.27488e-15 -1.21422e-15 0)
(-3.97685e-11 -1.88623e-09 0)
(2.67483e-10 4.78019e-10 0)
(-5.41792e-11 -1.15279e-10 0)
(1.3015e-11 2.93115e-11 0)
(-1.12094e-12 -6.99315e-12 0)
(1.10062e-12 2.11166e-12 0)
(5.06323e-13 -2.80011e-13 0)
(3.31518e-13 2.87949e-13 0)
(2.17224e-13 8.46843e-14 0)
(1.05662e-13 9.28467e-14 0)
(4.60583e-14 5.20989e-14 0)
(3.49775e-15 3.31881e-14 0)
(-1.70072e-14 1.59466e-14 0)
(-2.54524e-14 5.17331e-15 0)
(-2.50889e-14 -1.73491e-15 0)
(-2.02494e-14 -5.47476e-15 0)
(-1.29203e-14 -7.13052e-15 0)
(-4.67802e-15 -6.18196e-15 0)
(3.53914e-16 -2.45126e-15 0)
(-3.28596e-16 -6.72729e-16 0)
)
;
    }
    frontAndBack
    {
        type            empty;
    }
}


// ************************************************************************* //
