/*--------------------------------*- C++ -*----------------------------------*\
| =========                 |                                                 |
| \\      /  F ield         | OpenFOAM: The Open Source CFD Toolbox           |
|  \\    /   O peration     | Version:  2312                                  |
|   \\  /    A nd           | Website:  www.openfoam.com                      |
|    \\/     M anipulation  |                                                 |
\*---------------------------------------------------------------------------*/
FoamFile
{
    version     2.0;
    format      ascii;
    arch        "LSB;label=32;scalar=64";
    class       volVectorField;
    location    "3";
    object      zeroGradient(U);
}
// * * * * * * * * * * * * * * * * * * * * * * * * * * * * * * * * * * * * * //

dimensions      [0 1 -1 0 0 0 0];

internalField   nonuniform List<vector> 
400
(
(-1 3.48535e-07 0)
(-1 -8.33442e-08 0)
(-1 1.98824e-08 0)
(-1 -4.84231e-09 0)
(-1 1.13155e-09 0)
(-1 -3.13927e-10 0)
(-1 4.42759e-11 0)
(-1 -3.7106e-11 0)
(-1 -1.06644e-11 0)
(-1 -1.14893e-11 0)
(-1 -6.59183e-12 0)
(-1 -4.13073e-12 0)
(-1 -2.01159e-12 0)
(-1 -6.50461e-13 0)
(-1 2.10981e-13 0)
(-1 6.85401e-13 0)
(-1 8.894e-13 0)
(-1 7.67958e-13 0)
(-1 3.18734e-13 0)
(-1 9.29668e-14 0)
(-1 -3.57334e-07 0)
(-1 8.58275e-08 0)
(-1 -2.0621e-08 0)
(-1 4.92018e-09 0)
(-1 -1.33585e-09 0)
(-1 2.09047e-10 0)
(-1 -1.56807e-10 0)
(-1 -4.21918e-11 0)
(-1 -5.03166e-11 0)
(-1 -3.01737e-11 0)
(-1 -2.07789e-11 0)
(-1 -1.19135e-11 0)
(-1 -5.87967e-12 0)
(-1 -1.71199e-12 0)
(-1 8.2235e-13 0)
(-1 2.17238e-12 0)
(-1 2.71944e-12 0)
(-1 2.45821e-12 0)
(-1 9.48085e-13 0)
(-1 2.85506e-13 0)
(-1 3.76008e-07 0)
(-1 -8.54283e-08 0)
(-1 2.00807e-08 0)
(-1 -4.8466e-09 0)
(-1 8.79022e-10 0)
(-1 -4.2961e-10 0)
(-1 -7.74841e-11 0)
(-1 -1.16994e-10 0)
(-1 -7.03086e-11 0)
(-1 -5.12585e-11 0)
(-1 -3.20332e-11 0)
(-1 -1.85564e-11 0)
(-1 -8.58035e-12 0)
(-1 -1.99255e-12 0)
(-1 2.01622e-12 0)
(-1 4.0852e-12 0)
(-1 4.84059e-12 0)
(-1 4.2515e-12 0)
(-1 1.69048e-12 0)
(-1 4.97533e-13 0)
(-1 -4.00677e-07 0)
(-1 8.60988e-08 0)
(-1 -2.10631e-08 0)
(-1 3.93818e-09 0)
(-1 -1.33576e-09 0)
(-1 -4.75012e-11 0)
(-1 -2.34929e-10 0)
(-1 -1.2964e-10 0)
(-1 -9.8651e-11 0)
(-1 -6.50842e-11 0)
(-1 -4.08541e-11 0)
(-1 -2.26389e-11 0)
(-1 -9.57278e-12 0)
(-1 -1.00155e-12 0)
(-1 4.09486e-12 0)
(-1 6.586e-12 0)
(-1 7.33143e-12 0)
(-1 6.32718e-12 0)
(-1 2.5694e-12 0)
(-1 7.32206e-13 0)
(-1 4.68462e-07 0)
(-1 -1.06658e-07 0)
(-1 2.45968e-08 0)
(-1 -6.58831e-09 0)
(-1 9.7135e-10 0)
(-1 -6.80711e-10 0)
(-1 -1.4011e-10 0)
(-1 -1.85726e-10 0)
(-1 -1.05774e-10 0)
(-1 -7.57403e-11 0)
(-1 -4.44467e-11 0)
(-1 -2.3615e-11 0)
(-1 -8.16426e-12 0)
(-1 1.64643e-12 0)
(-1 7.33056e-12 0)
(-1 9.87611e-12 0)
(-1 1.03485e-11 0)
(-1 8.67005e-12 0)
(-1 3.6305e-12 0)
(-1 9.98174e-13 0)
(-1 -5.27677e-07 0)
(-1 1.05219e-07 0)
(-1 -2.53856e-08 0)
(-1 4.10555e-09 0)
(-1 -1.41588e-09 0)
(-1 -1.55796e-10 0)
(-1 -2.64026e-10 0)
(-1 -1.6819e-10 0)
(-1 -1.15368e-10 0)
(-1 -7.57101e-11 0)
(-1 -4.34088e-11 0)
(-1 -2.05471e-11 0)
(-1 -4.0807e-12 0)
(-1 6.21106e-12 0)
(-1 1.18625e-11 0)
(-1 1.40076e-11 0)
(-1 1.3868e-11 0)
(-1 1.13478e-11 0)
(-1 4.87329e-12 0)
(-1 1.29357e-12 0)
(-1 6.80839e-07 0)
(-1 -1.44362e-07 0)
(-1 3.33154e-08 0)
(-1 -7.62731e-09 0)
(-1 1.1918e-09 0)
(-1 -6.64957e-10 0)
(-1 -1.52413e-10 0)
(-1 -1.78609e-10 0)
(-1 -1.05413e-10 0)
(-1 -6.89958e-11 0)
(-1 -3.64299e-11 0)
(-1 -1.34026e-11 0)
(-1 2.84922e-12 0)
(-1 1.27377e-11 0)
(-1 1.76966e-11 0)
(-1 1.89884e-11 0)
(-1 1.79155e-11 0)
(-1 1.42835e-11 0)
(-1 6.29089e-12 0)
(-1 1.61844e-12 0)
(-1 -8.5278e-07 0)
(-1 1.77557e-07 0)
(-1 -4.24146e-08 0)
(-1 8.33512e-09 0)
(-1 -2.27051e-09 0)
(-1 1.62244e-10 0)
(-1 -2.84969e-10 0)
(-1 -1.20132e-10 0)
(-1 -9.5912e-11 0)
(-1 -5.27851e-11 0)
(-1 -2.42454e-11 0)
(-1 -2.29554e-12 0)
(-1 1.24907e-11 0)
(-1 2.10808e-11 0)
(-1 2.47052e-11 0)
(-1 2.4671e-11 0)
(-1 2.23342e-11 0)
(-1 1.74329e-11 0)
(-1 7.84175e-12 0)
(-1 1.9605e-12 0)
(-0.999999 1.11801e-06 0)
(-1 -2.31159e-07 0)
(-1 5.37644e-08 0)
(-1 -1.13195e-08 0)
(-1 2.08188e-09 0)
(-1 -7.07765e-10 0)
(-1 -7.23093e-11 0)
(-1 -1.25521e-10 0)
(-1 -6.34289e-11 0)
(-1 -3.26622e-11 0)
(-1 -6.64707e-12 0)
(-1 1.21697e-11 0)
(-1 2.44636e-11 0)
(-1 3.09068e-11 0)
(-1 3.26015e-11 0)
(-1 3.08443e-11 0)
(-1 2.69879e-11 0)
(-1 2.06447e-11 0)
(-1 9.46178e-12 0)
(-1 2.30796e-12 0)
(-1 -1.46812e-06 0)
(-1 3.07793e-07 0)
(-1 -7.27162e-08 0)
(-1 1.47084e-08 0)
(-1 -3.5192e-09 0)
(-1 5.49766e-10 0)
(-1 -2.39089e-10 0)
(-1 -3.69239e-11 0)
(-1 -3.73892e-11 0)
(-1 -4.77902e-12 0)
(-1 1.47458e-11 0)
(-1 2.93541e-11 0)
(-1 3.82041e-11 0)
(-1 4.17177e-11 0)
(-1 4.09906e-11 0)
(-1 3.71693e-11 0)
(-1 3.15957e-11 0)
(-1 2.37677e-11 0)
(-1 1.10726e-11 0)
(-1 2.6366e-12 0)
(-0.999999 1.93373e-06 0)
(-1 -4.16386e-07 0)
(-1 9.71821e-08 0)
(-1 -2.11206e-08 0)
(-1 4.4163e-09 0)
(-1 -1.11925e-09 0)
(-1 1.45372e-10 0)
(-1 -6.31198e-11 0)
(-1 1.40059e-11 0)
(-1 2.39548e-11 0)
(-1 3.96481e-11 0)
(-1 4.84274e-11 0)
(-1 5.29088e-11 0)
(-1 5.29039e-11 0)
(-1 4.93393e-11 0)
(-1 4.32505e-11 0)
(-1 3.58826e-11 0)
(-1 2.65966e-11 0)
(-1 1.25577e-11 0)
(-1 2.9247e-12 0)
(-1 -2.46671e-06 0)
(-1 5.36025e-07 0)
(-1 -1.26724e-07 0)
(-1 2.69316e-08 0)
(-1 -6.14695e-09 0)
(-1 1.31697e-09 0)
(-1 -2.50268e-10 0)
(-1 9.54671e-11 0)
(-1 3.99729e-11 0)
(-1 6.18651e-11 0)
(-1 6.56671e-11 0)
(-1 6.8458e-11 0)
(-1 6.7736e-11 0)
(-1 6.36829e-11 0)
(-1 5.70445e-11 0)
(-1 4.85994e-11 0)
(-1 3.94764e-11 0)
(-1 2.88873e-11 0)
(-1 1.38152e-11 0)
(-1 3.14293e-12 0)
(-0.999998 3.06147e-06 0)
(-1 -6.87248e-07 0)
(-1 1.62956e-07 0)
(-1 -3.57509e-08 0)
(-1 8.3805e-09 0)
(-1 -1.75519e-09 0)
(-1 4.90638e-10 0)
(-1 5.815e-12 0)
(-1 1.17371e-10 0)
(-1 9.28626e-11 0)
(-1 9.41646e-11 0)
(-1 8.80316e-11 0)
(-1 8.16214e-11 0)
(-1 7.31814e-11 0)
(-1 6.33744e-11 0)
(-1 5.26746e-11 0)
(-1 4.19992e-11 0)
(-1 3.04123e-11 0)
(-1 1.46812e-11 0)
(-1 3.26787e-12 0)
(-1 -3.44782e-06 0)
(-1 8.10335e-07 0)
(-1 -1.8993e-07 0)
(-1 4.37648e-08 0)
(-1 -9.92354e-09 0)
(-1 2.4053e-09 0)
(-1 -3.29975e-10 0)
(-1 2.70787e-10 0)
(-1 1.28269e-10 0)
(-1 1.39362e-10 0)
(-1 1.19346e-10 0)
(-1 1.06239e-10 0)
(-1 9.31828e-11 0)
(-1 8.03194e-11 0)
(-1 6.75384e-11 0)
(-1 5.49083e-11 0)
(-1 4.30585e-11 0)
(-1 3.08579e-11 0)
(-1 1.50404e-11 0)
(-1 3.27603e-12 0)
(-0.999998 3.70354e-06 0)
(-1 -9.00466e-07 0)
(-1 2.11244e-07 0)
(-1 -5.14196e-08 0)
(-1 1.23455e-08 0)
(-1 -2.63966e-09 0)
(-1 9.76232e-10 0)
(-1 7.76279e-11 0)
(-1 2.48055e-10 0)
(-1 1.63039e-10 0)
(-1 1.46185e-10 0)
(-1 1.19636e-10 0)
(-1 1.00936e-10 0)
(-1 8.38402e-11 0)
(-1 6.86597e-11 0)
(-1 5.46884e-11 0)
(-1 4.22343e-11 0)
(-1 3.00309e-11 0)
(-1 1.4715e-11 0)
(-1 3.14913e-12 0)
(-1 -3.8318e-06 0)
(-1 9.11375e-07 0)
(-1 -2.13755e-07 0)
(-1 5.07189e-08 0)
(-1 -1.11561e-08 0)
(-1 3.14006e-09 0)
(-1 -1.94017e-10 0)
(-1 4.6696e-10 0)
(-1 2.36133e-10 0)
(-1 2.10535e-10 0)
(-1 1.59528e-10 0)
(-1 1.27453e-10 0)
(-1 1.02364e-10 0)
(-1 8.24397e-11 0)
(-1 6.58438e-11 0)
(-1 5.14907e-11 0)
(-1 3.92271e-11 0)
(-1 2.76487e-11 0)
(-1 1.36281e-11 0)
(-1 2.87156e-12 0)
(-0.999997 3.96951e-06 0)
(-1 -1.00236e-06 0)
(-1 2.38853e-07 0)
(-1 -5.91546e-08 0)
(-1 1.56864e-08 0)
(-1 -2.87789e-09 0)
(-1 1.53465e-09 0)
(-1 2.05302e-10 0)
(-1 3.67291e-10 0)
(-1 2.06852e-10 0)
(-1 1.66716e-10 0)
(-1 1.22291e-10 0)
(-1 9.563e-11 0)
(-1 7.45994e-11 0)
(-1 5.83688e-11 0)
(-1 4.4921e-11 0)
(-1 3.38691e-11 0)
(-1 2.37889e-11 0)
(-1 1.17466e-11 0)
(-1 2.41821e-12 0)
(-1 -4.07448e-06 0)
(-1 1.0412e-06 0)
(-1 -2.42034e-07 0)
(-1 6.69665e-08 0)
(-1 -1.35886e-08 0)
(-1 5.35806e-09 0)
(-1 -2.70702e-10 0)
(-1 7.58957e-10 0)
(-1 2.35534e-10 0)
(-1 2.27654e-10 0)
(-1 1.39245e-10 0)
(-1 1.06887e-10 0)
(-1 7.85815e-11 0)
(-1 6.05689e-11 0)
(-1 4.63962e-11 0)
(-1 3.53493e-11 0)
(-1 2.6429e-11 0)
(-1 1.84543e-11 0)
(-1 9.15182e-12 0)
(-1 1.79886e-12 0)
(-0.999999 3.95627e-06 0)
(-1 -8.8007e-07 0)
(-1 2.12416e-07 0)
(-1 -3.93539e-08 0)
(-1 1.1832e-08 0)
(-1 -4.56091e-10 0)
(-1 9.66468e-10 0)
(-1 3.68625e-10 0)
(-1 2.23575e-10 0)
(-1 1.56752e-10 0)
(-1 9.75141e-11 0)
(-1 7.23602e-11 0)
(-1 5.17025e-11 0)
(-1 3.93207e-11 0)
(-1 2.96456e-11 0)
(-1 2.23769e-11 0)
(-1 1.66351e-11 0)
(-1 1.18155e-11 0)
(-1 6.03119e-12 0)
(-1 1.08027e-12 0)
(-1 -4.1012e-06 0)
(-0.999999 1.12454e-06 0)
(-1 -2.67533e-07 0)
(-1 7.58386e-08 0)
(-1 -1.84243e-08 0)
(-1 5.63586e-09 0)
(-1 -1.1921e-09 0)
(-1 5.37049e-10 0)
(-1 -2.44957e-11 0)
(-1 8.57107e-11 0)
(-1 2.67132e-11 0)
(-1 2.73229e-11 0)
(-1 1.70752e-11 0)
(-1 1.34511e-11 0)
(-1 9.86778e-12 0)
(-1 7.44621e-12 0)
(-1 5.55432e-12 0)
(-1 4.0779e-12 0)
(-1 2.18268e-12 0)
(-1 3.57766e-13 0)
)
;

boundaryField
{
    movingWall
    {
        type            zeroGradient;
    }
    fixedWalls
    {
        type            zeroGradient;
    }
    frontAndBack
    {
        type            empty;
    }
}


// ************************************************************************* //
