/*--------------------------------*- C++ -*----------------------------------*\
| =========                 |                                                 |
| \\      /  F ield         | OpenFOAM: The Open Source CFD Toolbox           |
|  \\    /   O peration     | Version:  2312                                  |
|   \\  /    A nd           | Website:  www.openfoam.com                      |
|    \\/     M anipulation  |                                                 |
\*---------------------------------------------------------------------------*/
FoamFile
{
    version     2.0;
    format      ascii;
    arch        "LSB;label=32;scalar=64";
    class       volVectorField;
    location    "5.5";
    object      ddtU;
}
// * * * * * * * * * * * * * * * * * * * * * * * * * * * * * * * * * * * * * //

dimensions      [0 1 -2 0 0 0 0];

internalField   nonuniform List<vector> 
400
(
(0 1.35803e-13 0)
(-6.66134e-14 -5.2984e-14 0)
(-2.22045e-14 6.09033e-15 0)
(-6.66134e-14 -4.51714e-15 0)
(-2.22045e-14 -1.74682e-14 0)
(2.22045e-14 -9.19082e-15 0)
(-2.22045e-14 5.53985e-17 0)
(0 1.57732e-15 0)
(0 7.87955e-16 0)
(0 -2.60555e-15 0)
(2.22045e-14 4.17579e-15 0)
(0 4.88684e-15 0)
(0 -8.43126e-15 0)
(-2.22045e-14 -1.72804e-14 0)
(4.44089e-14 6.1126e-15 0)
(2.22045e-14 1.16534e-14 0)
(0 1.78853e-16 0)
(0 6.69797e-15 0)
(0 7.89439e-15 0)
(-2.22045e-14 -1.68525e-15 0)
(1.11022e-13 -2.09079e-14 0)
(0 -4.37178e-14 0)
(0 -6.20273e-15 0)
(0 -3.33237e-15 0)
(0 -1.50328e-14 0)
(-4.44089e-14 -1.05891e-14 0)
(-4.44089e-14 -8.15311e-15 0)
(-4.44089e-14 -2.69302e-15 0)
(-4.44089e-14 -2.54458e-15 0)
(4.44089e-14 -6.10285e-15 0)
(-4.44089e-14 3.81765e-15 0)
(0 3.4385e-15 0)
(0 -7.92534e-15 0)
(-4.44089e-14 -1.44311e-14 0)
(-4.44089e-14 6.26931e-15 0)
(0 1.28249e-14 0)
(4.44089e-14 5.19274e-16 0)
(-4.44089e-14 1.09902e-14 0)
(-4.44089e-14 -6.66038e-15 0)
(8.88178e-14 -7.12588e-15 0)
(1.33227e-13 -1.65836e-13 0)
(-2.22045e-14 -2.77921e-15 0)
(-4.44089e-14 -1.58486e-14 0)
(2.22045e-14 1.01035e-14 0)
(4.44089e-14 1.51984e-14 0)
(2.22045e-14 1.30925e-14 0)
(0 -9.21746e-16 0)
(2.22045e-14 -3.74539e-15 0)
(2.22045e-14 8.93329e-15 0)
(-2.22045e-14 2.22452e-15 0)
(0 -9.8221e-15 0)
(2.22045e-14 -1.15072e-14 0)
(0 -5.09465e-15 0)
(-4.44089e-14 -6.30385e-15 0)
(0 -9.65737e-15 0)
(0 2.70855e-15 0)
(4.44089e-14 1.05057e-14 0)
(-4.44089e-14 4.41737e-15 0)
(4.44089e-14 -1.23046e-14 0)
(0 -8.78242e-15 0)
(-8.88178e-14 5.04028e-14 0)
(0 -3.98856e-14 0)
(-2.22045e-14 -8.81651e-15 0)
(-4.44089e-14 2.77693e-15 0)
(-4.44089e-14 1.12581e-14 0)
(-8.88178e-14 3.03257e-15 0)
(-4.44089e-14 3.46322e-15 0)
(-4.44089e-14 -2.78354e-15 0)
(-4.44089e-14 -2.34373e-15 0)
(0 -3.43145e-15 0)
(4.44089e-14 -1.91934e-14 0)
(0 -1.23308e-14 0)
(-2.22045e-14 3.41699e-15 0)
(2.22045e-14 7.2359e-15 0)
(-4.44089e-14 -6.42551e-15 0)
(0 2.54301e-15 0)
(-2.22045e-14 2.64108e-15 0)
(0 -7.1417e-15 0)
(2.22045e-14 5.03076e-15 0)
(0 -4.13736e-15 0)
(0 3.22983e-14 0)
(0 -5.29242e-14 0)
(0 -6.59911e-15 0)
(0 -9.59204e-15 0)
(4.44089e-14 1.77403e-14 0)
(4.44089e-14 3.55249e-15 0)
(2.22045e-14 -1.22695e-14 0)
(0 -6.36066e-15 0)
(4.44089e-14 -4.49338e-15 0)
(2.22045e-14 -7.18175e-15 0)
(0 -1.47747e-14 0)
(0 -7.79977e-15 0)
(-2.22045e-14 2.62824e-15 0)
(0 1.41107e-14 0)
(0 1.96763e-15 0)
(2.22045e-14 -1.17129e-14 0)
(4.44089e-14 -2.39793e-14 0)
(2.22045e-14 -6.76047e-15 0)
(2.22045e-14 5.38133e-15 0)
(-2.22045e-14 -7.19527e-15 0)
(2.22045e-14 -1.70803e-13 0)
(-4.44089e-14 3.59411e-14 0)
(2.22045e-14 4.8552e-15 0)
(-4.44089e-14 -1.63992e-15 0)
(-6.66134e-14 1.08838e-15 0)
(0 -4.83569e-15 0)
(2.22045e-14 -2.26444e-14 0)
(2.22045e-14 -8.08729e-15 0)
(0 -7.33138e-16 0)
(4.44089e-14 -1.51285e-14 0)
(2.22045e-14 -1.54604e-14 0)
(2.22045e-14 -8.31419e-15 0)
(0 -6.48301e-15 0)
(0 4.96879e-15 0)
(-2.22045e-14 1.92443e-16 0)
(0 -2.33679e-14 0)
(0 -1.94074e-14 0)
(-4.44089e-14 -2.77176e-15 0)
(-4.44089e-14 -1.17546e-14 0)
(0 -2.24036e-14 0)
(-8.88178e-14 1.08287e-13 0)
(-2.22045e-14 -3.77994e-14 0)
(0 -6.60791e-16 0)
(0 -1.38408e-14 0)
(4.44089e-14 -2.2927e-14 0)
(2.22045e-14 -9.01251e-15 0)
(2.22045e-14 -1.3332e-16 0)
(-2.22045e-14 -6.51649e-15 0)
(-2.22045e-14 -1.05295e-14 0)
(2.22045e-14 -2.29231e-14 0)
(0 -7.81167e-15 0)
(2.22045e-14 4.54567e-15 0)
(-2.22045e-14 6.40615e-15 0)
(-4.44089e-14 9.20507e-15 0)
(0 -7.15442e-15 0)
(4.44089e-14 -1.53801e-14 0)
(-2.22045e-14 -2.95582e-15 0)
(0 -1.11702e-14 0)
(4.44089e-14 -2.53927e-14 0)
(-2.22045e-14 -2.32422e-14 0)
(6.66134e-14 1.45301e-15 0)
(4.44089e-14 -4.39045e-14 0)
(-2.22045e-14 -2.18177e-14 0)
(4.44089e-14 -8.81394e-15 0)
(-4.44089e-14 -8.62903e-15 0)
(-4.44089e-14 -6.03343e-15 0)
(0 7.18617e-15 0)
(-4.44089e-14 4.30523e-15 0)
(-4.44089e-14 -9.12266e-15 0)
(4.44089e-14 -2.00143e-14 0)
(0 -1.32432e-14 0)
(0 -2.81723e-15 0)
(0 6.24143e-15 0)
(4.44089e-14 -1.18416e-14 0)
(4.44089e-14 -1.80247e-14 0)
(8.88178e-14 -2.03166e-15 0)
(0 4.58722e-15 0)
(4.44089e-14 -2.5422e-15 0)
(2.22045e-14 -9.44643e-15 0)
(0 -1.35912e-14 0)
(0 -9.99468e-14 0)
(-2.22045e-14 9.24741e-15 0)
(-4.44089e-14 -2.60914e-14 0)
(4.44089e-14 -3.67112e-16 0)
(0 2.72427e-15 0)
(0 -5.10177e-15 0)
(-4.44089e-14 -4.09262e-15 0)
(0 1.64709e-15 0)
(0 -2.00792e-14 0)
(4.44089e-14 -8.3705e-15 0)
(0 -6.9275e-15 0)
(-2.22045e-14 -1.82148e-14 0)
(-2.22045e-14 -1.08344e-14 0)
(-2.22045e-14 -2.2015e-14 0)
(-4.44089e-14 -1.54958e-14 0)
(-6.66134e-14 -4.59712e-15 0)
(-4.44089e-14 -3.45221e-15 0)
(0 4.32112e-15 0)
(-4.44089e-14 -1.58135e-15 0)
(2.22045e-14 -5.6231e-15 0)
(-1.33227e-13 1.04335e-13 0)
(0 -4.52252e-14 0)
(-4.44089e-14 -1.37673e-14 0)
(-4.44089e-14 -2.43125e-14 0)
(4.44089e-14 -4.1298e-15 0)
(0 3.03526e-15 0)
(0 -2.32765e-15 0)
(0 -1.35746e-14 0)
(4.44089e-14 -1.4939e-14 0)
(-2.22045e-14 -1.954e-15 0)
(0 1.35575e-15 0)
(2.22045e-14 6.18667e-15 0)
(2.22045e-14 -2.04524e-15 0)
(0 -5.87328e-15 0)
(-4.44089e-14 2.59473e-15 0)
(-4.44089e-14 -1.48909e-14 0)
(-2.22045e-14 -1.6411e-14 0)
(-4.44089e-14 3.15152e-16 0)
(-2.22045e-14 -4.67894e-16 0)
(0 -8.421e-15 0)
(1.33227e-13 -1.62547e-13 0)
(-2.22045e-14 2.50102e-14 0)
(0 -4.15574e-15 0)
(-2.22045e-14 -1.32276e-14 0)
(-4.44089e-14 -1.45562e-14 0)
(-2.22045e-14 -2.14719e-14 0)
(-2.22045e-14 -9.45469e-15 0)
(-4.44089e-14 -4.02661e-15 0)
(2.22045e-14 2.07531e-14 0)
(-2.22045e-14 8.94729e-15 0)
(0 -1.49679e-14 0)
(-4.44089e-14 -8.34694e-15 0)
(0 -5.21124e-15 0)
(0 -6.5803e-15 0)
(0 -4.07746e-15 0)
(0 -6.73075e-15 0)
(-2.22045e-14 -6.67827e-15 0)
(0 8.95563e-15 0)
(0 6.67946e-15 0)
(0 -9.70742e-15 0)
(-4.44089e-14 8.55455e-14 0)
(-4.44089e-14 -1.5795e-14 0)
(-2.22045e-14 1.62167e-14 0)
(-4.44089e-14 1.26744e-14 0)
(-4.44089e-14 -6.1703e-15 0)
(-4.44089e-14 -2.32629e-14 0)
(-6.66134e-14 -2.34336e-14 0)
(4.44089e-14 -8.87171e-16 0)
(0 1.40386e-14 0)
(8.88178e-14 -3.16524e-15 0)
(0 -2.41998e-14 0)
(2.22045e-14 -2.48018e-14 0)
(0 -1.40814e-14 0)
(4.44089e-14 -3.57698e-15 0)
(4.44089e-14 2.32974e-15 0)
(0 2.22407e-14 0)
(-2.22045e-14 8.57752e-15 0)
(-4.44089e-14 -8.98926e-15 0)
(2.22045e-14 7.3694e-15 0)
(0 1.0707e-14 0)
(0 1.52388e-14 0)
(2.22045e-14 3.84944e-15 0)
(4.44089e-14 7.05121e-15 0)
(4.44089e-14 -6.49583e-16 0)
(8.88178e-14 -6.85037e-15 0)
(0 -2.45011e-14 0)
(4.44089e-14 -3.90616e-14 0)
(0 -1.71e-14 0)
(0 -2.60292e-14 0)
(8.88178e-14 -1.53017e-14 0)
(0 1.73212e-15 0)
(0 8.0995e-15 0)
(0 -3.39593e-15 0)
(-4.44089e-14 7.24364e-15 0)
(-4.44089e-14 1.95155e-14 0)
(4.44089e-14 2.98948e-14 0)
(4.44089e-14 1.47206e-14 0)
(4.44089e-14 -1.05554e-14 0)
(-4.44089e-14 6.03723e-15 0)
(4.44089e-14 7.80763e-15 0)
(2.22045e-14 -7.47992e-14 0)
(-4.44089e-14 1.53945e-14 0)
(0 -3.62814e-14 0)
(0 -3.00947e-14 0)
(2.22045e-14 -2.03132e-14 0)
(4.44089e-14 -2.09948e-15 0)
(2.22045e-14 5.3315e-15 0)
(-4.44089e-14 3.98012e-15 0)
(-2.22045e-14 -5.21575e-15 0)
(-4.44089e-14 8.47413e-15 0)
(-8.88178e-14 8.40456e-15 0)
(-2.22045e-14 -5.34904e-15 0)
(-8.88178e-14 -8.19593e-16 0)
(-4.44089e-14 -9.41337e-15 0)
(-4.44089e-14 -1.8852e-14 0)
(4.44089e-14 -5.31885e-16 0)
(2.22045e-14 2.66222e-14 0)
(-2.22045e-14 1.88955e-14 0)
(2.22045e-14 -4.69843e-16 0)
(2.22045e-14 -2.41534e-15 0)
(-8.88178e-14 1.30516e-13 0)
(6.66134e-14 -5.26767e-14 0)
(4.44089e-14 -3.25698e-14 0)
(4.44089e-14 -1.59396e-14 0)
(0 -7.22408e-15 0)
(4.44089e-14 1.59345e-14 0)
(0 2.36024e-14 0)
(4.44089e-14 1.30048e-14 0)
(0 1.54857e-14 0)
(-4.44089e-14 1.42252e-14 0)
(-4.44089e-14 4.26768e-15 0)
(-4.44089e-14 -1.94657e-14 0)
(0 -1.19048e-14 0)
(-2.22045e-14 -3.29092e-15 0)
(0 -1.58885e-14 0)
(-4.44089e-14 -9.85316e-15 0)
(-4.44089e-14 1.02896e-14 0)
(4.44089e-14 3.4681e-16 0)
(-4.44089e-14 -9.80782e-15 0)
(2.22045e-14 2.60018e-15 0)
(4.44089e-14 -9.19096e-14 0)
(0 -1.56788e-14 0)
(0 -2.84483e-14 0)
(-4.44089e-14 -1.139e-14 0)
(4.44089e-14 -4.16699e-16 0)
(-4.44089e-14 1.62337e-14 0)
(-4.44089e-14 2.19844e-14 0)
(0 -2.11064e-15 0)
(4.44089e-14 -1.36062e-15 0)
(4.44089e-14 1.17079e-14 0)
(8.88178e-14 2.14207e-14 0)
(4.44089e-14 -4.98692e-15 0)
(4.44089e-14 -1.64334e-14 0)
(0 4.2965e-15 0)
(-4.44089e-14 7.65969e-15 0)
(4.44089e-14 -1.69125e-14 0)
(-4.44089e-14 -2.00185e-14 0)
(4.44089e-14 -9.33332e-15 0)
(0 4.29041e-15 0)
(0 2.3071e-15 0)
(4.44089e-14 1.58906e-14 0)
(2.22045e-14 -1.79335e-14 0)
(-2.22045e-14 -2.99212e-16 0)
(4.44089e-14 -3.61496e-15 0)
(0 -9.20723e-15 0)
(2.22045e-14 1.39534e-14 0)
(2.22045e-14 2.8878e-14 0)
(2.22045e-14 7.31776e-15 0)
(0 4.36632e-15 0)
(-4.44089e-14 -1.25302e-14 0)
(0 -2.04493e-14 0)
(4.44089e-14 -2.43622e-15 0)
(-4.44089e-14 3.06085e-15 0)
(0 -8.39136e-16 0)
(0 -2.15588e-15 0)
(0 -9.48355e-15 0)
(0 -9.49211e-15 0)
(-2.22045e-14 6.14566e-15 0)
(-2.22045e-14 5.97357e-15 0)
(0 -5.846e-15 0)
(0 6.97681e-14 0)
(4.44089e-14 -2.72421e-14 0)
(-4.44089e-14 1.19054e-14 0)
(4.44089e-14 1.62965e-14 0)
(0 4.45635e-15 0)
(-4.44089e-14 -4.26757e-15 0)
(0 8.1489e-15 0)
(0 2.00486e-14 0)
(2.22045e-14 2.47056e-15 0)
(2.22045e-14 -2.12223e-14 0)
(2.22045e-14 -1.92239e-14 0)
(-2.22045e-14 8.20614e-15 0)
(-2.22045e-14 9.75259e-15 0)
(2.22045e-14 2.53003e-15 0)
(2.22045e-14 -1.66827e-15 0)
(-2.22045e-14 4.93343e-16 0)
(0 -7.88079e-16 0)
(-2.22045e-14 1.65461e-14 0)
(0 -4.28389e-15 0)
(2.22045e-14 -4.43132e-15 0)
(8.88178e-14 -7.88047e-14 0)
(-4.44089e-14 1.7721e-14 0)
(0 -9.56171e-16 0)
(-4.44089e-14 1.09684e-14 0)
(-2.22045e-14 1.45048e-14 0)
(-2.22045e-14 3.2923e-15 0)
(-6.66134e-14 -1.59499e-15 0)
(0 7.45344e-15 0)
(0 -5.93247e-16 0)
(-2.22045e-14 -7.21463e-15 0)
(-4.44089e-14 6.33138e-16 0)
(0 2.69387e-15 0)
(0 -3.51872e-15 0)
(0 -1.40774e-14 0)
(-4.44089e-14 -6.96914e-15 0)
(4.44089e-14 -1.701e-14 0)
(0 1.2814e-15 0)
(-4.44089e-14 8.42891e-15 0)
(0 4.372e-16 0)
(0 1.05662e-14 0)
(-4.44089e-14 -2.54298e-14 0)
(2.22045e-14 1.96519e-14 0)
(-2.22045e-14 8.24387e-15 0)
(2.22045e-14 7.16362e-15 0)
(0 1.00112e-14 0)
(4.44089e-14 9.40796e-15 0)
(6.66134e-14 -4.41164e-15 0)
(2.22045e-14 -4.76755e-15 0)
(0 8.0855e-15 0)
(4.44089e-14 -3.60504e-16 0)
(0 -7.79707e-15 0)
(0 -6.85976e-15 0)
(-2.22045e-14 -7.88421e-15 0)
(-2.22045e-14 -1.35037e-14 0)
(0 -7.82335e-15 0)
(-2.22045e-14 -1.08578e-14 0)
(-6.66134e-14 3.9175e-15 0)
(2.22045e-14 -5.21862e-15 0)
(-2.22045e-14 -9.36671e-17 0)
(-2.22045e-14 8.46545e-15 0)
)
;

boundaryField
{
    movingWall
    {
        type            calculated;
        value           uniform (0 0 0);
    }
    fixedWalls
    {
        type            calculated;
        value           uniform (0 0 0);
    }
    frontAndBack
    {
        type            empty;
    }
}


// ************************************************************************* //
