/*--------------------------------*- C++ -*----------------------------------*\
| =========                 |                                                 |
| \\      /  F ield         | OpenFOAM: The Open Source CFD Toolbox           |
|  \\    /   O peration     | Version:  2312                                  |
|   \\  /    A nd           | Website:  www.openfoam.com                      |
|    \\/     M anipulation  |                                                 |
\*---------------------------------------------------------------------------*/
FoamFile
{
    version     2.0;
    format      ascii;
    arch        "LSB;label=32;scalar=64";
    class       volVectorField;
    location    "5.5";
    object      diffU;
}
// * * * * * * * * * * * * * * * * * * * * * * * * * * * * * * * * * * * * * //

dimensions      [0 1 -1 0 0 0 0];

internalField   nonuniform List<vector> 
400
(
(0 0 0)
(1.14353e-14 -1.00279e-13 0)
(8.99281e-15 -7.94358e-14 0)
(8.77076e-15 -8.42535e-14 0)
(8.77076e-15 -8.33284e-14 0)
(8.88178e-15 -8.35092e-14 0)
(8.88178e-15 -8.34063e-14 0)
(8.88178e-15 -8.33895e-14 0)
(8.77076e-15 -8.33953e-14 0)
(8.54872e-15 -8.34084e-14 0)
(8.65974e-15 -8.33824e-14 0)
(8.43769e-15 -8.335e-14 0)
(8.43769e-15 -8.34562e-14 0)
(8.43769e-15 -8.35367e-14 0)
(8.65974e-15 -8.35212e-14 0)
(8.77076e-15 -8.34557e-14 0)
(8.54872e-15 -8.33986e-14 0)
(8.65974e-15 -8.34047e-14 0)
(8.54872e-15 -8.33466e-14 0)
(8.43769e-15 -8.34224e-14 0)
(2.58682e-14 -3.48719e-14 0)
(3.33067e-15 -9.35444e-14 0)
(8.43769e-15 -8.09574e-14 0)
(8.43769e-15 -8.39152e-14 0)
(8.65974e-15 -8.33508e-14 0)
(8.43769e-15 -8.344e-14 0)
(7.99361e-15 -8.34438e-14 0)
(7.99361e-15 -8.34759e-14 0)
(8.21565e-15 -8.34299e-14 0)
(8.21565e-15 -8.33929e-14 0)
(7.99361e-15 -8.33789e-14 0)
(7.99361e-15 -8.33758e-14 0)
(7.99361e-15 -8.34961e-14 0)
(7.99361e-15 -8.36334e-14 0)
(7.77156e-15 -8.3639e-14 0)
(7.99361e-15 -8.34969e-14 0)
(8.21565e-15 -8.3443e-14 0)
(8.21565e-15 -8.34264e-14 0)
(7.99361e-15 -8.3425e-14 0)
(8.43769e-15 -8.35078e-14 0)
(-8.88178e-16 -2.1005e-13 0)
(1.13243e-14 -5.67988e-14 0)
(7.99361e-15 -8.99222e-14 0)
(8.99281e-15 -8.22068e-14 0)
(8.88178e-15 -8.37293e-14 0)
(8.77076e-15 -8.32632e-14 0)
(9.10383e-15 -8.33733e-14 0)
(9.10383e-15 -8.33816e-14 0)
(9.10383e-15 -8.32574e-14 0)
(8.77076e-15 -8.31827e-14 0)
(8.77076e-15 -8.32047e-14 0)
(8.77076e-15 -8.3272e-14 0)
(8.54872e-15 -8.33595e-14 0)
(8.43769e-15 -8.35177e-14 0)
(8.21565e-15 -8.36672e-14 0)
(8.21565e-15 -8.36336e-14 0)
(8.21565e-15 -8.35894e-14 0)
(8.21565e-15 -8.3557e-14 0)
(8.43769e-15 -8.36235e-14 0)
(8.43769e-15 -8.36227e-14 0)
(8.54872e-15 -2.89113e-15 0)
(9.10383e-15 -1.00747e-13 0)
(8.99281e-15 -7.94145e-14 0)
(7.99361e-15 -8.43336e-14 0)
(7.99361e-15 -8.31806e-14 0)
(7.77156e-15 -8.34471e-14 0)
(7.99361e-15 -8.34048e-14 0)
(7.77156e-15 -8.33569e-14 0)
(7.99361e-15 -8.33198e-14 0)
(8.43769e-15 -8.32956e-14 0)
(8.43769e-15 -8.33221e-14 0)
(8.88178e-15 -8.33684e-14 0)
(8.88178e-15 -8.3334e-14 0)
(9.21485e-15 -8.32993e-14 0)
(8.77076e-15 -8.33765e-14 0)
(8.65974e-15 -8.34903e-14 0)
(8.43769e-15 -8.35658e-14 0)
(8.21565e-15 -8.36378e-14 0)
(8.54872e-15 -8.36675e-14 0)
(8.43769e-15 -8.35943e-14 0)
(0 -9.13508e-14 0)
(8.99281e-15 -8.13022e-14 0)
(6.88338e-15 -8.39796e-14 0)
(8.88178e-15 -8.34152e-14 0)
(8.43769e-15 -8.34995e-14 0)
(8.88178e-15 -8.34612e-14 0)
(8.65974e-15 -8.35195e-14 0)
(8.65974e-15 -8.35029e-14 0)
(8.77076e-15 -8.35181e-14 0)
(8.77076e-15 -8.35362e-14 0)
(8.65974e-15 -8.35594e-14 0)
(8.54872e-15 -8.35727e-14 0)
(8.65974e-15 -8.34682e-14 0)
(8.54872e-15 -8.3291e-14 0)
(8.77076e-15 -8.32162e-14 0)
(8.77076e-15 -8.33176e-14 0)
(8.88178e-15 -8.35399e-14 0)
(8.54872e-15 -8.36112e-14 0)
(8.77076e-15 -8.35916e-14 0)
(8.43769e-15 -8.35279e-14 0)
(2.67564e-14 -1.20362e-13 0)
(5.77316e-15 -7.64002e-14 0)
(1.06581e-14 -8.50919e-14 0)
(8.65974e-15 -8.30793e-14 0)
(8.88178e-15 -8.34545e-14 0)
(8.77076e-15 -8.33515e-14 0)
(8.88178e-15 -8.33785e-14 0)
(8.77076e-15 -8.34117e-14 0)
(8.88178e-15 -8.34158e-14 0)
(8.88178e-15 -8.34842e-14 0)
(8.88178e-15 -8.352e-14 0)
(8.77076e-15 -8.35174e-14 0)
(8.65974e-15 -8.3484e-14 0)
(8.54872e-15 -8.33774e-14 0)
(8.65974e-15 -8.33541e-14 0)
(8.88178e-15 -8.34247e-14 0)
(8.77076e-15 -8.34826e-14 0)
(8.54872e-15 -8.34727e-14 0)
(8.21565e-15 -8.34592e-14 0)
(8.43769e-15 -8.34988e-14 0)
(-5.55112e-15 -5.18475e-14 0)
(1.07692e-14 -8.94572e-14 0)
(7.10543e-15 -8.19943e-14 0)
(8.43769e-15 -8.37196e-14 0)
(8.21565e-15 -8.35452e-14 0)
(8.54872e-15 -8.36321e-14 0)
(8.77076e-15 -8.35114e-14 0)
(8.65974e-15 -8.34794e-14 0)
(8.43769e-15 -8.35268e-14 0)
(8.65974e-15 -8.35282e-14 0)
(8.77076e-15 -8.34452e-14 0)
(8.77076e-15 -8.33581e-14 0)
(8.65974e-15 -8.33456e-14 0)
(8.54872e-15 -8.3334e-14 0)
(8.65974e-15 -8.33606e-14 0)
(8.88178e-15 -8.34468e-14 0)
(8.77076e-15 -8.33461e-14 0)
(8.65974e-15 -8.33102e-14 0)
(8.65974e-15 -8.33951e-14 0)
(8.54872e-15 -8.3486e-14 0)
(1.4877e-14 -8.84557e-14 0)
(6.88338e-15 -8.21836e-14 0)
(8.43769e-15 -8.39042e-14 0)
(8.43769e-15 -8.34707e-14 0)
(8.43769e-15 -8.36123e-14 0)
(8.21565e-15 -8.35603e-14 0)
(7.99361e-15 -8.34573e-14 0)
(7.99361e-15 -8.33701e-14 0)
(7.77156e-15 -8.33599e-14 0)
(7.99361e-15 -8.34259e-14 0)
(7.32747e-15 -8.34393e-14 0)
(7.32747e-15 -8.34877e-14 0)
(7.54952e-15 -8.34715e-14 0)
(7.99361e-15 -8.35155e-14 0)
(8.21565e-15 -8.35118e-14 0)
(8.43769e-15 -8.34978e-14 0)
(8.43769e-15 -8.33487e-14 0)
(8.43769e-15 -8.32541e-14 0)
(8.54872e-15 -8.33375e-14 0)
(8.43769e-15 -8.34389e-14 0)
(-1.9984e-15 -8.67299e-14 0)
(9.99201e-15 -8.34075e-14 0)
(6.88338e-15 -8.36219e-14 0)
(8.21565e-15 -8.35853e-14 0)
(7.77156e-15 -8.34372e-14 0)
(7.99361e-15 -8.33596e-14 0)
(7.99361e-15 -8.33342e-14 0)
(7.99361e-15 -8.32905e-14 0)
(8.21565e-15 -8.3307e-14 0)
(8.43769e-15 -8.33834e-14 0)
(8.54872e-15 -8.34871e-14 0)
(8.65974e-15 -8.3629e-14 0)
(8.54872e-15 -8.36591e-14 0)
(8.43769e-15 -8.36412e-14 0)
(8.43769e-15 -8.35743e-14 0)
(8.21565e-15 -8.34898e-14 0)
(7.99361e-15 -8.34505e-14 0)
(8.21565e-15 -8.33974e-14 0)
(8.21565e-15 -8.33762e-14 0)
(8.54872e-15 -8.34443e-14 0)
(1.84297e-14 -8.15649e-14 0)
(5.9952e-15 -8.34891e-14 0)
(8.99281e-15 -8.36865e-14 0)
(7.77156e-15 -8.3668e-14 0)
(8.21565e-15 -8.36463e-14 0)
(7.99361e-15 -8.35331e-14 0)
(8.21565e-15 -8.35083e-14 0)
(8.21565e-15 -8.35414e-14 0)
(8.43769e-15 -8.35924e-14 0)
(8.65974e-15 -8.35833e-14 0)
(8.43769e-15 -8.3602e-14 0)
(8.77076e-15 -8.35035e-14 0)
(8.77076e-15 -8.34773e-14 0)
(8.43769e-15 -8.34536e-14 0)
(8.43769e-15 -8.33621e-14 0)
(8.43769e-15 -8.33418e-14 0)
(8.43769e-15 -8.34678e-14 0)
(8.21565e-15 -8.34893e-14 0)
(8.43769e-15 -8.34013e-14 0)
(8.43769e-15 -8.34887e-14 0)
(-9.99201e-15 -8.88301e-14 0)
(1.26565e-14 -8.34044e-14 0)
(7.54952e-15 -8.3457e-14 0)
(9.32587e-15 -8.34797e-14 0)
(8.65974e-15 -8.34575e-14 0)
(8.77076e-15 -8.36037e-14 0)
(8.65974e-15 -8.36138e-14 0)
(8.77076e-15 -8.36429e-14 0)
(8.65974e-15 -8.3521e-14 0)
(8.54872e-15 -8.34967e-14 0)
(8.43769e-15 -8.35241e-14 0)
(7.99361e-15 -8.34686e-14 0)
(8.21565e-15 -8.33532e-14 0)
(8.43769e-15 -8.33904e-14 0)
(8.21565e-15 -8.34814e-14 0)
(8.43769e-15 -8.35181e-14 0)
(8.43769e-15 -8.35525e-14 0)
(8.21565e-15 -8.34757e-14 0)
(8.43769e-15 -8.33795e-14 0)
(8.65974e-15 -8.34649e-14 0)
(3.90799e-14 -7.42338e-14 0)
(3.10862e-15 -8.48213e-14 0)
(1.09912e-14 -8.31356e-14 0)
(7.99361e-15 -8.34304e-14 0)
(8.88178e-15 -8.3315e-14 0)
(8.43769e-15 -8.34151e-14 0)
(8.43769e-15 -8.34598e-14 0)
(8.21565e-15 -8.34275e-14 0)
(8.21565e-15 -8.33491e-14 0)
(8.43769e-15 -8.33013e-14 0)
(8.21565e-15 -8.34053e-14 0)
(8.54872e-15 -8.34823e-14 0)
(8.43769e-15 -8.3502e-14 0)
(8.88178e-15 -8.34978e-14 0)
(8.99281e-15 -8.35288e-14 0)
(8.88178e-15 -8.34422e-14 0)
(8.65974e-15 -8.34036e-14 0)
(8.21565e-15 -8.34355e-14 0)
(8.54872e-15 -8.34004e-14 0)
(8.54872e-15 -8.33549e-14 0)
(-1.77636e-14 -7.77886e-14 0)
(1.23235e-14 -8.4485e-14 0)
(5.55112e-15 -8.30574e-14 0)
(8.43769e-15 -8.33922e-14 0)
(7.77156e-15 -8.3268e-14 0)
(7.99361e-15 -8.33922e-14 0)
(7.99361e-15 -8.35034e-14 0)
(8.21565e-15 -8.34775e-14 0)
(7.77156e-15 -8.35925e-14 0)
(8.21565e-15 -8.35897e-14 0)
(8.21565e-15 -8.36133e-14 0)
(7.99361e-15 -8.36218e-14 0)
(8.21565e-15 -8.3652e-14 0)
(7.99361e-15 -8.35344e-14 0)
(7.99361e-15 -8.33835e-14 0)
(7.99361e-15 -8.32112e-14 0)
(8.21565e-15 -8.32734e-14 0)
(8.21565e-15 -8.34899e-14 0)
(7.99361e-15 -8.354e-14 0)
(8.43769e-15 -8.34371e-14 0)
(2.67564e-14 -1.09997e-13 0)
(5.77316e-15 -7.79094e-14 0)
(1.03251e-14 -8.4618e-14 0)
(8.54872e-15 -8.32266e-14 0)
(9.21485e-15 -8.3682e-14 0)
(9.21485e-15 -8.35985e-14 0)
(9.32587e-15 -8.35482e-14 0)
(9.21485e-15 -8.33877e-14 0)
(9.21485e-15 -8.33639e-14 0)
(9.10383e-15 -8.33638e-14 0)
(8.88178e-15 -8.33141e-14 0)
(8.65974e-15 -8.34317e-14 0)
(7.99361e-15 -8.34705e-14 0)
(7.99361e-15 -8.34932e-14 0)
(7.77156e-15 -8.35873e-14 0)
(8.21565e-15 -8.358e-14 0)
(8.65974e-15 -8.34668e-14 0)
(8.43769e-15 -8.34874e-14 0)
(8.54872e-15 -8.35875e-14 0)
(8.54872e-15 -8.35739e-14 0)
(-6.88338e-15 -3.78536e-14 0)
(1.07692e-14 -9.26685e-14 0)
(7.10543e-15 -8.15173e-14 0)
(8.43769e-15 -8.40169e-14 0)
(8.21565e-15 -8.35756e-14 0)
(8.43769e-15 -8.35315e-14 0)
(7.99361e-15 -8.34328e-14 0)
(7.99361e-15 -8.33849e-14 0)
(7.99361e-15 -8.33137e-14 0)
(7.99361e-15 -8.3275e-14 0)
(8.21565e-15 -8.31858e-14 0)
(8.21565e-15 -8.33059e-14 0)
(8.21565e-15 -8.34809e-14 0)
(8.54872e-15 -8.3507e-14 0)
(8.65974e-15 -8.35467e-14 0)
(8.43769e-15 -8.3606e-14 0)
(8.21565e-15 -8.35054e-14 0)
(8.65974e-15 -8.34767e-14 0)
(8.21565e-15 -8.35418e-14 0)
(8.65974e-15 -8.35181e-14 0)
(1.64313e-14 -1.17911e-13 0)
(6.43929e-15 -7.66523e-14 0)
(8.43769e-15 -8.52299e-14 0)
(7.99361e-15 -8.32973e-14 0)
(8.21565e-15 -8.36497e-14 0)
(7.99361e-15 -8.34799e-14 0)
(7.77156e-15 -8.34237e-14 0)
(7.99361e-15 -8.35887e-14 0)
(8.21565e-15 -8.35908e-14 0)
(8.21565e-15 -8.34685e-14 0)
(8.43769e-15 -8.33787e-14 0)
(8.43769e-15 -8.34001e-14 0)
(8.43769e-15 -8.35409e-14 0)
(7.99361e-15 -8.35523e-14 0)
(7.99361e-15 -8.35007e-14 0)
(8.21565e-15 -8.36138e-14 0)
(8.21565e-15 -8.37139e-14 0)
(8.43769e-15 -8.36761e-14 0)
(8.54872e-15 -8.35267e-14 0)
(8.43769e-15 -8.3456e-14 0)
(0 -8.97442e-14 0)
(1.12133e-14 -8.19992e-14 0)
(8.54872e-15 -8.37936e-14 0)
(8.88178e-15 -8.33641e-14 0)
(8.65974e-15 -8.35172e-14 0)
(8.54872e-15 -8.34108e-14 0)
(8.65974e-15 -8.3294e-14 0)
(8.54872e-15 -8.33949e-14 0)
(8.43769e-15 -8.33678e-14 0)
(8.21565e-15 -8.33817e-14 0)
(8.43769e-15 -8.35365e-14 0)
(8.65974e-15 -8.3508e-14 0)
(8.65974e-15 -8.34561e-14 0)
(8.65974e-15 -8.35458e-14 0)
(8.99281e-15 -8.36389e-14 0)
(8.65974e-15 -8.37302e-14 0)
(8.77076e-15 -8.37484e-14 0)
(8.43769e-15 -8.36132e-14 0)
(8.43769e-15 -8.34531e-14 0)
(8.43769e-15 -8.34667e-14 0)
(4.88498e-15 -4.27678e-14 0)
(8.65974e-15 -9.1864e-14 0)
(7.54952e-15 -8.16077e-14 0)
(8.21565e-15 -8.38531e-14 0)
(8.21565e-15 -8.33978e-14 0)
(7.99361e-15 -8.35302e-14 0)
(8.21565e-15 -8.35111e-14 0)
(8.43769e-15 -8.34046e-14 0)
(8.54872e-15 -8.34819e-14 0)
(8.54872e-15 -8.36693e-14 0)
(8.77076e-15 -8.37132e-14 0)
(8.77076e-15 -8.3564e-14 0)
(8.65974e-15 -8.34427e-14 0)
(8.77076e-15 -8.34949e-14 0)
(8.88178e-15 -8.35192e-14 0)
(8.54872e-15 -8.35581e-14 0)
(8.54872e-15 -8.35941e-14 0)
(8.43769e-15 -8.34106e-14 0)
(8.43769e-15 -8.33527e-14 0)
(8.54872e-15 -8.34374e-14 0)
(1.80966e-14 -8.78217e-14 0)
(6.43929e-15 -8.34582e-14 0)
(8.65974e-15 -8.35761e-14 0)
(8.54872e-15 -8.36275e-14 0)
(8.54872e-15 -8.3506e-14 0)
(8.65974e-15 -8.3575e-14 0)
(8.43769e-15 -8.36338e-14 0)
(8.21565e-15 -8.35876e-14 0)
(8.43769e-15 -8.36086e-14 0)
(8.65974e-15 -8.36268e-14 0)
(8.21565e-15 -8.35442e-14 0)
(8.21565e-15 -8.34943e-14 0)
(8.43769e-15 -8.3458e-14 0)
(8.21565e-15 -8.35548e-14 0)
(7.99361e-15 -8.35846e-14 0)
(8.43769e-15 -8.36224e-14 0)
(8.43769e-15 -8.35614e-14 0)
(7.99361e-15 -8.34593e-14 0)
(8.21565e-15 -8.34978e-14 0)
(8.43769e-15 -8.34544e-14 0)
(1.03251e-14 -1.48124e-13 0)
(9.32587e-15 -6.98584e-14 0)
(9.88098e-15 -8.66536e-14 0)
(9.21485e-15 -8.27973e-14 0)
(9.32587e-15 -8.35694e-14 0)
(9.21485e-15 -8.33819e-14 0)
(9.32587e-15 -8.3484e-14 0)
(9.21485e-15 -8.35619e-14 0)
(8.99281e-15 -8.35005e-14 0)
(8.88178e-15 -8.3424e-14 0)
(8.99281e-15 -8.34104e-14 0)
(8.77076e-15 -8.34504e-14 0)
(8.77076e-15 -8.34712e-14 0)
(8.77076e-15 -8.35363e-14 0)
(8.88178e-15 -8.35941e-14 0)
(8.65974e-15 -8.35839e-14 0)
(8.21565e-15 -8.348e-14 0)
(8.54872e-15 -8.35083e-14 0)
(8.54872e-15 -8.3588e-14 0)
(8.54872e-15 -8.34932e-14 0)
)
;

boundaryField
{
    movingWall
    {
        type            calculated;
        value           uniform (8.43769e-15 -8.34675e-14 0);
    }
    fixedWalls
    {
        type            calculated;
        value           uniform (8.43769e-15 -8.34675e-14 0);
    }
    frontAndBack
    {
        type            empty;
    }
}


// ************************************************************************* //
