/*--------------------------------*- C++ -*----------------------------------*\
| =========                 |                                                 |
| \\      /  F ield         | OpenFOAM: The Open Source CFD Toolbox           |
|  \\    /   O peration     | Version:  2312                                  |
|   \\  /    A nd           | Website:  www.openfoam.com                      |
|    \\/     M anipulation  |                                                 |
\*---------------------------------------------------------------------------*/
FoamFile
{
    version     2.0;
    format      ascii;
    arch        "LSB;label=32;scalar=64";
    class       volScalarField;
    location    "5.5";
    object      divPhi;
}
// * * * * * * * * * * * * * * * * * * * * * * * * * * * * * * * * * * * * * //

dimensions      [0 0 -1 0 0 0 0];

internalField   nonuniform List<scalar> 
400
(
8.13152e-14
-2.26592e-14
1.08041e-14
-2.11137e-15
-1.03014e-14
1.08066e-14
-2.15798e-15
8.11294e-15
-9.82198e-15
1.14535e-14
-1.03143e-14
2.73381e-15
5.2455e-16
4.32536e-16
9.36799e-15
-8.98208e-15
1.0312e-14
1.83996e-15
2.5875e-16
0
0
1.58378e-14
7.06908e-15
6.40999e-15
-9.64387e-15
-1.3315e-14
-3.00023e-15
5.93084e-15
9.60607e-15
8.40112e-15
1.00509e-14
-1.68946e-15
-1.87292e-14
9.50926e-15
-2.2339e-14
7.33286e-15
-1.42535e-14
1.98039e-15
6.87436e-15
-2.71051e-14
0
-6.73352e-15
3.51365e-15
1.21232e-14
-2.61107e-14
-1.65391e-14
1.20163e-14
1.26771e-14
-3.37684e-15
-4.34894e-15
1.54003e-14
9.47763e-15
5.93849e-15
-9.31746e-15
1.83511e-14
9.86782e-15
4.85434e-15
-2.32233e-15
2.50674e-14
0
0
7.4514e-15
-2.96782e-17
-9.45152e-16
-1.26156e-15
1.31598e-14
2.78435e-14
1.65985e-14
-2.69228e-15
2.56722e-15
-1.34435e-15
-9.4796e-15
2.94709e-14
-2.74456e-14
-9.39843e-15
1.68609e-14
-9.39032e-15
2.99426e-15
-8.72223e-15
0
0
-8.55265e-15
-1.08535e-14
1.79243e-14
3.03464e-17
2.79243e-15
-2.59165e-14
-1.20771e-15
9.9004e-15
4.37532e-16
-7.51184e-15
-1.59576e-14
7.69673e-16
8.64673e-16
-2.29678e-14
-7.92996e-15
-1.20888e-14
-1.87347e-14
1.46597e-14
0
0
-8.04257e-15
1.80054e-14
-3.52732e-14
1.83441e-14
-2.32091e-14
3.1735e-14
1.60017e-15
-1.90804e-15
-6.29834e-15
-6.90437e-15
5.21806e-15
4.73142e-15
-6.07152e-15
-1.09022e-14
4.75729e-15
-1.41867e-14
-1.59802e-14
4.78068e-15
0
-2.71051e-14
1.04674e-14
-9.93121e-15
-3.37747e-14
1.1069e-14
-8.30161e-15
2.51262e-14
-1.12442e-14
-4.34416e-15
2.79079e-15
-4.1706e-15
1.52622e-14
-2.86632e-17
1.80647e-14
-1.00067e-14
-1.92256e-15
2.17039e-14
1.11781e-14
2.29555e-14
-2.71051e-14
0
2.27681e-14
-2.67812e-14
-1.29786e-15
3.66083e-14
-2.24821e-14
-1.43004e-14
-6.20782e-15
9.68465e-15
-2.2126e-14
-8.26983e-15
-2.2488e-14
-5.15099e-15
-8.45887e-15
5.81029e-15
1.57638e-14
-2.23433e-14
1.09628e-14
-3.85182e-16
0
2.71051e-14
-5.89602e-15
-1.45815e-14
-7.48472e-16
9.44541e-15
2.90792e-14
9.28298e-15
-1.41584e-14
2.60661e-14
2.46502e-14
-1.89214e-14
-1.65196e-14
-2.409e-14
1.23622e-14
-6.42235e-16
-1.09835e-14
1.03996e-14
-7.37238e-15
7.94281e-15
0
0
-2.09977e-14
1.03752e-14
1.00173e-15
3.33645e-14
-1.42068e-14
1.2781e-14
3.14994e-14
8.59407e-15
6.97079e-15
-4.47476e-15
1.7709e-14
-5.93062e-15
3.43251e-14
5.45369e-15
-1.41111e-14
-1.06053e-15
2.95994e-15
-5.07754e-15
2.71051e-14
0
2.11276e-15
-1.94666e-15
-2.33969e-14
3.42309e-14
1.59308e-14
1.04686e-14
3.09192e-15
1.21846e-14
1.28336e-14
-1.93756e-14
-1.94094e-16
4.65515e-15
1.89548e-14
7.92111e-16
1.48856e-14
-1.89422e-14
-2.20003e-15
1.55783e-14
-2.71051e-14
0
2.01783e-14
3.13739e-15
1.76559e-14
-8.45563e-15
-1.21147e-14
2.65801e-14
1.45575e-14
-9.22143e-15
8.6643e-15
1.62981e-14
1.37462e-14
5.81529e-15
-1.90223e-14
2.78284e-14
-2.58417e-14
2.86444e-14
-2.84741e-14
-4.49647e-15
2.71051e-14
0
-3.38383e-15
6.18785e-15
-3.52102e-14
-1.2044e-14
-9.72235e-15
1.21927e-14
-4.60324e-14
2.6841e-15
-3.25079e-15
2.55798e-15
-2.09595e-14
-1.17172e-15
1.64355e-14
-5.12622e-15
5.70726e-15
3.02557e-14
8.38062e-17
-2.03398e-14
-2.71051e-14
0
-8.48594e-15
3.36086e-16
8.69632e-15
-2.31643e-14
-2.14412e-14
3.87343e-14
-2.30507e-14
3.22962e-15
3.47681e-15
-4.75882e-15
5.98597e-15
-3.51866e-14
4.52319e-15
1.57357e-15
-2.26133e-14
2.27317e-14
-2.15588e-14
-1.13895e-14
0
-2.71051e-14
-1.35551e-14
8.36999e-16
2.7271e-14
6.98323e-15
-3.10426e-16
1.82026e-14
8.83521e-15
2.22375e-15
-9.91664e-15
-2.43827e-14
1.51782e-14
-5.73662e-15
-5.53886e-15
2.0708e-14
-1.21784e-14
-1.58881e-15
-2.34946e-14
7.26834e-15
0
2.71051e-14
3.55669e-15
9.09551e-15
1.39413e-14
2.40001e-16
-1.67293e-15
-2.61513e-14
1.29144e-14
1.07807e-14
9.30547e-15
-1.26231e-14
-1.9503e-14
8.08248e-15
-2.23814e-15
1.10465e-14
-2.36704e-14
-7.08435e-15
-1.89456e-14
2.3435e-14
0
0
4.08539e-15
1.25252e-14
-1.31435e-14
5.25978e-15
5.90416e-15
-8.32849e-15
1.53129e-14
1.81334e-14
-9.15906e-15
-1.84948e-14
9.98367e-15
1.69035e-16
-6.60667e-15
2.59711e-14
-5.26484e-15
2.14923e-14
-6.29476e-15
1.16983e-14
0
-2.71051e-14
2.79273e-14
1.28624e-14
-1.98386e-14
9.255e-16
3.76813e-15
-1.61326e-14
-2.51325e-14
-5.74623e-15
-1.21066e-14
2.08739e-14
1.61369e-14
1.06615e-14
-2.60679e-14
1.25291e-14
-1.13007e-14
-3.13924e-15
-2.45169e-14
4.00181e-14
0
5.42101e-14
-1.13383e-14
6.67225e-15
5.67222e-15
1.62066e-14
1.50339e-15
-2.9626e-15
-5.12514e-16
-4.02939e-15
-1.32544e-14
-2.19222e-14
2.30606e-14
-7.33428e-15
-4.34404e-15
9.009e-16
-2.26345e-14
2.04656e-14
-1.87796e-14
6.75995e-15
-2.71051e-14
-2.71051e-14
0
-2.71051e-14
2.71051e-14
-2.71051e-14
2.71051e-14
-2.71051e-14
0
-2.71051e-14
0
0
0
0
0
0
2.71051e-14
0
0
0
2.71051e-14
)
;

boundaryField
{
    movingWall
    {
        type            extrapolatedCalculated;
        value           nonuniform List<scalar> 
20
(
-2.71051e-14
0
-2.71051e-14
2.71051e-14
-2.71051e-14
2.71051e-14
-2.71051e-14
0
-2.71051e-14
0
0
0
0
0
0
2.71051e-14
0
0
0
2.71051e-14
)
;
    }
    fixedWalls
    {
        type            extrapolatedCalculated;
        value           nonuniform List<scalar> 
60
(
8.13152e-14
0
0
0
0
0
-2.71051e-14
0
2.71051e-14
0
0
0
0
0
-2.71051e-14
2.71051e-14
0
-2.71051e-14
5.42101e-14
-2.71051e-14
0
-2.71051e-14
0
0
0
0
-2.71051e-14
0
0
2.71051e-14
-2.71051e-14
2.71051e-14
-2.71051e-14
0
0
0
0
0
-2.71051e-14
2.71051e-14
8.13152e-14
-2.26592e-14
1.08041e-14
-2.11137e-15
-1.03014e-14
1.08066e-14
-2.15798e-15
8.11294e-15
-9.82198e-15
1.14535e-14
-1.03143e-14
2.73381e-15
5.2455e-16
4.32536e-16
9.36799e-15
-8.98208e-15
1.0312e-14
1.83996e-15
2.5875e-16
0
)
;
    }
    frontAndBack
    {
        type            empty;
    }
}


// ************************************************************************* //
