/*--------------------------------*- C++ -*----------------------------------*\
| =========                 |                                                 |
| \\      /  F ield         | OpenFOAM: The Open Source CFD Toolbox           |
|  \\    /   O peration     | Version:  2312                                  |
|   \\  /    A nd           | Website:  www.openfoam.com                      |
|    \\/     M anipulation  |                                                 |
\*---------------------------------------------------------------------------*/
FoamFile
{
    version     2.0;
    format      ascii;
    arch        "LSB;label=32;scalar=64";
    class       volScalarField;
    location    "5.5";
    object      divU;
}
// * * * * * * * * * * * * * * * * * * * * * * * * * * * * * * * * * * * * * //

dimensions      [0 0 -1 0 0 0 0];

internalField   nonuniform List<scalar> 
400
(
1.26581e-11
-1.7944e-12
3.83134e-13
-1.50469e-13
5.26974e-14
-1.41277e-15
8.49854e-15
6.96903e-15
-1.61155e-14
-1.37315e-14
1.73784e-14
-6.17689e-15
-1.72765e-15
3.59609e-15
4.58803e-15
-1.75097e-15
-1.77566e-14
3.74958e-14
-3.78637e-14
0
-1.97325e-11
2.55365e-12
-5.0287e-13
2.43938e-13
-4.16058e-14
-5.81293e-14
-1.53125e-14
7.75582e-15
5.18817e-14
8.83812e-15
8.04864e-15
1.62383e-15
7.94064e-15
-4.87105e-14
4.41963e-14
-1.95393e-14
1.73691e-14
-3.19369e-14
-1.13485e-14
2.71051e-14
2.57498e-12
1.52861e-13
-7.75324e-14
6.6572e-14
-2.45938e-14
4.95808e-14
4.28047e-14
1.96577e-14
-4.5531e-14
-8.53638e-15
1.37264e-14
2.36301e-15
-2.94941e-15
1.18115e-14
-3.7968e-14
8.21913e-15
-2.2014e-14
2.82453e-14
-3.55992e-14
0
1.18991e-11
-2.37879e-12
4.62509e-13
-1.89795e-13
-2.87202e-14
-2.4429e-14
2.81809e-14
-7.37822e-14
6.39205e-14
1.03267e-14
5.35967e-15
-6.04539e-16
1.32886e-14
3.44755e-14
-1.99697e-14
1.2714e-14
-1.70585e-14
-4.28832e-15
-5.29756e-15
0
-1.25496e-11
3.14589e-12
-6.20221e-13
3.15107e-13
-2.90031e-14
1.22312e-14
3.6996e-15
2.04868e-15
1.10867e-16
-8.53372e-15
-1.44338e-14
-1.55079e-14
-1.71157e-15
-4.3907e-16
9.37775e-15
1.92734e-14
1.83628e-14
1.22166e-14
1.55354e-14
-2.71051e-14
5.52943e-12
-2.44011e-12
4.99885e-13
-2.30336e-13
-6.46571e-15
2.22472e-14
4.51486e-15
-2.27087e-14
2.635e-14
-7.73823e-15
2.40923e-14
5.95561e-15
1.05439e-14
-4.73178e-15
-5.06764e-15
6.35382e-15
-1.64726e-14
-1.18941e-14
8.0796e-15
0
2.00577e-12
6.67843e-13
-8.60804e-14
8.28956e-14
-2.22481e-14
2.84723e-14
-3.3589e-15
-1.85449e-14
4.84087e-15
2.52002e-14
5.05752e-15
8.92318e-15
-1.53143e-14
8.56427e-15
-2.08432e-14
-9.5068e-16
2.40292e-14
9.96367e-15
-6.85339e-15
-2.71051e-14
-2.98156e-12
-8.24432e-14
2.22103e-14
1.50179e-14
1.56579e-14
-2.5588e-14
-1.2744e-14
2.74451e-14
2.68234e-14
-9.58429e-14
-2.62452e-14
8.93379e-15
3.46573e-14
5.91547e-14
3.9104e-14
-5.25079e-15
-1.3515e-14
2.83496e-14
-3.20681e-14
0
-2.1684e-13
7.62787e-13
-1.72859e-13
7.65953e-14
-1.48447e-14
4.23694e-15
-1.78499e-14
-1.67968e-14
5.77847e-14
-3.15953e-15
3.87991e-14
-1.97497e-14
6.97048e-15
-1.59705e-14
2.69735e-14
-4.38631e-14
-5.2531e-14
4.82804e-15
4.28625e-14
0
5.42101e-13
-9.44519e-13
1.96e-13
-7.54814e-14
1.02299e-14
-2.01772e-14
8.39518e-15
2.92862e-14
9.27048e-15
-1.44919e-14
3.51058e-14
2.34026e-14
1.0456e-14
9.11537e-15
9.15635e-15
7.51886e-15
-8.51938e-15
-2.99645e-15
-1.16824e-14
0
-6.77626e-13
1.60566e-12
-2.63908e-13
1.38014e-13
-1.08456e-14
1.87342e-14
1.32466e-14
1.35778e-14
6.49645e-15
1.36999e-14
-2.654e-14
-1.57893e-15
7.98528e-15
5.8902e-14
-7.5171e-15
-2.51862e-15
-2.10792e-15
2.38436e-15
1.55155e-14
-2.71051e-14
3.63208e-12
-2.89342e-12
5.34991e-13
-2.05599e-13
6.23149e-14
-4.14291e-14
2.42923e-14
-5.12028e-14
5.35621e-14
-2.27037e-14
-8.356e-15
-1.68982e-14
3.23126e-14
1.73884e-14
2.27611e-15
1.05883e-15
-2.84081e-14
9.64873e-16
-5.36685e-16
0
-5.80048e-12
3.00194e-12
-5.07715e-13
2.21359e-13
-2.85955e-14
-5.56829e-15
-1.16577e-14
6.98955e-15
-2.13433e-15
2.52578e-14
-2.63363e-14
1.52663e-14
8.36395e-15
-9.2549e-15
-3.57501e-15
1.43803e-14
-7.61881e-15
-3.13289e-14
7.85349e-15
2.71051e-14
5.52943e-12
-2.45138e-12
4.32341e-13
-1.66372e-13
4.90669e-14
-1.94977e-14
-4.5974e-15
1.62506e-14
-1.35974e-15
2.51376e-15
-1.0693e-14
-3.44655e-14
-5.58415e-14
-6.5104e-15
-1.98971e-14
2.91193e-14
-3.71809e-15
-2.90986e-15
7.67328e-15
-5.42101e-14
-2.08709e-12
1.52325e-12
-3.06471e-13
1.24714e-13
-5.61261e-14
1.94762e-14
-1.92454e-14
-3.09562e-14
-2.40466e-14
-7.95076e-15
9.9542e-15
-4.20151e-15
4.5534e-14
4.17834e-14
-1.12343e-14
-2.84682e-14
-2.84255e-14
-2.1777e-14
1.37582e-14
2.71051e-14
-4.58075e-12
2.86254e-13
-1.00425e-13
2.73618e-14
3.92185e-15
4.44118e-15
2.17394e-14
2.22536e-14
-2.356e-15
-1.86159e-14
2.90911e-14
-2.4407e-14
-6.04047e-14
-4.34077e-14
-2.04491e-14
1.33152e-14
2.85887e-14
1.87901e-14
-3.15767e-14
0
6.93889e-12
-6.65706e-13
1.26271e-13
-5.53233e-14
2.91127e-14
-5.93125e-16
-1.41114e-14
-4.06531e-14
-4.56743e-14
-1.15914e-14
4.9846e-14
1.3411e-14
3.63267e-15
1.65482e-14
3.19104e-14
-8.22034e-15
1.34606e-14
-3.59788e-14
1.29304e-14
0
-1.0842e-13
1.09965e-13
-6.88125e-14
5.38691e-14
-2.39751e-14
-1.70128e-14
6.03264e-14
-3.28159e-14
1.15625e-14
-8.997e-15
-5.12956e-15
1.47768e-14
3.44274e-15
1.56392e-14
-1.68763e-14
-2.45411e-14
3.21626e-14
-2.05927e-14
3.55683e-14
-2.71051e-14
-9.78492e-12
1.25343e-12
-2.48142e-13
7.81393e-14
1.30754e-14
-2.17944e-15
-7.24839e-14
3.27652e-14
3.68071e-14
-1.15732e-14
-2.9062e-14
-9.62358e-16
5.48021e-14
-6.98149e-14
2.73831e-15
5.41902e-14
-3.77445e-14
-3.2537e-15
3.91379e-14
0
7.18284e-12
-1.38236e-12
2.98156e-13
-8.13152e-14
0
0
5.42101e-14
-2.71051e-14
-2.71051e-14
0
0
-2.71051e-14
0
5.42101e-14
0
-2.71051e-14
0
2.71051e-14
2.71051e-14
-2.71051e-14
)
;

boundaryField
{
    movingWall
    {
        type            extrapolatedCalculated;
        value           nonuniform List<scalar> 
20
(
7.18284e-12
-1.38236e-12
2.98156e-13
-8.13152e-14
0
0
5.42101e-14
-2.71051e-14
-2.71051e-14
0
0
-2.71051e-14
0
5.42101e-14
0
-2.71051e-14
0
2.71051e-14
2.71051e-14
-2.71051e-14
)
;
    }
    fixedWalls
    {
        type            extrapolatedCalculated;
        value           nonuniform List<scalar> 
60
(
1.26581e-11
-1.97325e-11
2.57498e-12
1.18991e-11
-1.25496e-11
5.52943e-12
2.00577e-12
-2.98156e-12
-2.1684e-13
5.42101e-13
-6.77626e-13
3.63208e-12
-5.80048e-12
5.52943e-12
-2.08709e-12
-4.58075e-12
6.93889e-12
-1.0842e-13
-9.78492e-12
7.18284e-12
0
2.71051e-14
0
0
-2.71051e-14
0
-2.71051e-14
0
0
0
-2.71051e-14
0
2.71051e-14
-5.42101e-14
2.71051e-14
0
0
-2.71051e-14
0
-2.71051e-14
1.26581e-11
-1.7944e-12
3.83134e-13
-1.50469e-13
5.26974e-14
-1.41277e-15
8.49854e-15
6.96903e-15
-1.61155e-14
-1.37315e-14
1.73784e-14
-6.17689e-15
-1.72765e-15
3.59609e-15
4.58803e-15
-1.75097e-15
-1.77566e-14
3.74958e-14
-3.78637e-14
0
)
;
    }
    frontAndBack
    {
        type            empty;
    }
}


// ************************************************************************* //
