/*--------------------------------*- C++ -*----------------------------------*\
| =========                 |                                                 |
| \\      /  F ield         | OpenFOAM: The Open Source CFD Toolbox           |
|  \\    /   O peration     | Version:  2312                                  |
|   \\  /    A nd           | Website:  www.openfoam.com                      |
|    \\/     M anipulation  |                                                 |
\*---------------------------------------------------------------------------*/
FoamFile
{
    version     2.0;
    format      ascii;
    arch        "LSB;label=32;scalar=64";
    class       volScalarField;
    location    "5.5";
    object      enstrophyField;
}
// * * * * * * * * * * * * * * * * * * * * * * * * * * * * * * * * * * * * * //

dimensions      [0 0 -2 0 0 0 0];

internalField   nonuniform List<scalar> 
400
(
1.66528e-23
2.96422e-23
1.19874e-24
9.83315e-26
2.37406e-29
1.92183e-27
7.16948e-29
6.04631e-31
4.20401e-28
8.23675e-31
1.70391e-29
1.09663e-27
6.3156e-28
1.1382e-27
1.94133e-27
7.51599e-29
1.29913e-29
1.35207e-29
1.37514e-27
1.37921e-28
7.842e-24
1.06194e-23
5.73878e-25
3.54953e-26
1.12937e-27
1.58392e-28
4.71177e-28
3.30598e-28
1.7689e-28
1.30324e-29
1.47403e-30
2.17393e-27
3.3198e-28
1.02116e-28
8.30778e-28
2.72433e-27
1.87606e-27
1.56844e-27
3.31328e-29
2.45059e-32
3.43106e-23
6.54781e-23
3.43773e-24
2.26798e-25
1.32293e-27
6.83456e-27
7.00614e-29
7.4876e-28
1.10433e-27
1.19749e-27
1.99342e-27
2.4287e-27
8.84279e-27
9.68675e-27
4.31577e-27
1.07798e-27
2.93612e-29
5.8153e-30
1.8473e-27
4.84076e-28
1.9521e-23
2.76433e-23
1.53085e-24
7.09178e-26
1.02055e-26
2.51138e-28
6.52485e-28
1.96576e-27
5.52109e-28
3.61287e-28
1.96628e-28
7.09219e-31
2.38764e-29
4.91574e-28
2.68766e-27
2.67466e-27
7.58446e-27
2.07271e-27
1.24315e-27
5.33816e-28
2.91595e-24
5.93485e-25
6.01444e-26
1.92086e-29
6.38748e-27
6.09659e-27
1.70367e-27
5.86201e-27
3.58249e-27
1.70157e-27
4.73148e-28
4.15865e-29
3.96767e-28
3.15314e-27
3.52475e-30
1.76864e-27
4.31163e-28
5.20816e-28
1.95608e-27
1.69959e-28
2.91249e-24
5.65951e-24
2.41526e-25
1.82099e-26
6.4801e-33
2.88814e-29
5.4864e-28
6.96196e-30
1.97084e-28
1.39223e-28
4.6276e-28
6.48836e-30
9.80578e-29
8.44015e-29
1.12217e-29
8.26263e-29
1.15031e-29
2.74223e-30
3.41788e-30
2.64176e-30
7.05248e-24
4.96189e-24
3.1252e-25
8.19003e-27
6.42867e-28
1.65833e-27
4.66477e-27
1.38716e-27
8.53367e-27
6.79554e-27
1.61355e-26
1.05822e-26
9.51356e-27
3.18531e-27
9.21411e-28
4.07697e-28
9.32109e-29
1.19791e-29
9.97985e-28
5.284e-28
2.61211e-25
1.43898e-25
8.28314e-27
4.25931e-28
2.61725e-27
2.43036e-27
5.03393e-27
4.14535e-27
1.55781e-29
3.1553e-29
1.91153e-29
5.18796e-30
3.84324e-30
8.12001e-30
1.56672e-27
2.48705e-27
8.81606e-27
3.98248e-28
3.71988e-29
6.31571e-29
2.262e-25
7.6879e-26
2.59088e-27
4.97863e-27
2.5469e-28
6.99548e-28
2.3836e-29
3.71078e-30
4.10429e-27
4.9337e-27
8.8426e-27
1.16612e-26
9.34919e-27
1.04578e-27
7.63133e-28
2.21705e-27
4.26389e-29
1.90005e-27
1.22643e-27
7.43717e-28
4.74493e-25
1.16748e-25
1.01253e-27
5.44994e-27
2.29996e-27
2.27912e-27
3.37418e-27
4.02484e-27
4.89433e-28
3.93993e-28
6.15318e-28
2.22299e-27
1.75267e-27
6.64293e-29
2.1376e-27
2.09812e-27
2.37799e-27
2.20681e-29
1.46597e-27
1.01354e-29
3.35387e-24
3.26728e-25
2.51718e-26
3.68761e-28
2.21834e-27
2.43919e-27
4.81075e-28
1.58864e-28
8.70231e-28
1.45295e-27
3.95967e-30
2.54201e-27
3.0591e-29
2.24692e-27
7.3437e-27
1.87992e-27
2.61446e-28
1.49619e-28
3.38685e-28
4.10895e-29
1.2388e-24
3.49422e-25
6.33428e-26
4.09375e-27
1.55399e-27
4.41214e-27
3.20578e-27
4.26795e-27
4.41128e-27
1.58358e-29
6.52225e-28
4.67739e-29
1.20299e-30
1.32787e-27
1.78629e-27
2.22623e-27
3.85581e-28
5.27758e-32
3.99438e-27
1.61604e-28
1.42109e-24
3.18345e-25
9.30015e-27
2.83282e-27
3.69202e-37
5.49729e-27
6.83877e-27
6.8832e-27
4.28132e-27
1.5843e-27
3.57196e-27
7.48635e-30
4.05431e-27
5.84984e-27
1.4086e-26
2.12678e-27
3.88195e-28
3.27028e-27
1.39264e-29
8.8516e-30
5.06037e-24
3.71991e-24
2.22607e-25
4.38086e-27
4.17725e-27
8.33848e-28
2.22365e-28
1.03688e-27
3.05601e-28
5.14832e-28
2.30174e-29
2.43955e-27
1.89042e-29
7.52288e-28
4.04996e-27
7.26259e-29
4.28705e-29
7.67508e-28
1.97572e-27
2.56301e-28
1.10374e-23
1.00119e-23
5.56402e-25
1.1494e-26
1.23186e-26
1.12205e-26
2.08887e-26
7.2396e-27
4.25972e-27
7.34577e-27
2.88378e-28
4.35363e-28
5.14314e-27
2.16605e-29
2.0548e-27
1.25416e-27
2.25332e-27
6.6228e-30
8.53255e-30
7.79046e-29
6.01185e-24
5.34016e-24
3.2002e-25
5.38799e-27
2.62558e-27
2.55436e-28
4.25015e-27
9.59903e-28
8.9001e-28
1.73618e-29
2.33829e-29
9.38848e-28
8.9588e-28
1.25933e-27
1.88827e-29
2.27232e-28
3.83209e-27
1.04988e-27
2.42281e-28
5.07682e-28
2.16203e-25
6.16407e-26
1.52238e-27
1.45715e-31
1.08851e-29
2.49094e-28
1.38447e-27
3.93385e-27
8.72228e-31
2.52621e-27
7.89423e-28
1.81612e-28
4.76838e-28
2.62728e-27
4.97624e-27
2.12352e-27
1.18579e-28
4.36209e-28
1.07213e-28
1.16154e-30
1.0001e-24
5.76673e-24
2.99524e-25
1.1538e-26
5.21355e-28
6.42306e-29
7.8887e-29
4.50963e-28
1.4351e-27
2.99111e-27
7.08082e-28
1.46667e-27
5.78641e-28
1.08373e-27
2.81202e-27
1.09135e-27
2.37751e-27
3.06962e-27
1.32757e-27
1.05033e-28
4.76859e-25
6.85811e-26
3.40272e-26
2.76064e-27
5.32233e-27
1.09979e-26
3.40924e-27
1.33598e-27
4.81341e-28
2.07541e-29
8.3899e-28
6.38215e-28
5.49676e-28
7.90824e-28
2.28059e-29
3.07163e-28
2.48632e-27
2.02732e-29
1.44311e-27
3.22363e-28
7.75878e-24
1.80693e-23
6.09575e-25
7.59458e-26
1.24797e-27
4.03703e-27
2.00399e-27
1.38136e-27
2.31226e-27
1.99798e-27
1.32994e-27
1.84419e-29
1.04055e-27
1.09686e-28
1.13599e-29
7.41624e-28
1.08791e-27
2.11318e-27
1.14235e-30
8.7025e-28
)
;

boundaryField
{
    movingWall
    {
        type            calculated;
        value           nonuniform List<scalar> 
20
(
9.46037e-24
2.11402e-23
2.56736e-25
1.91754e-25
4.40482e-26
5.10091e-26
5.68738e-26
4.78066e-26
2.78099e-26
1.74171e-26
2.407e-26
8.08401e-27
7.76704e-27
7.31238e-27
1.49419e-26
5.0226e-27
3.30106e-27
5.64766e-28
1.05434e-27
1.74187e-27
)
;
    }
    fixedWalls
    {
        type            calculated;
        value           nonuniform List<scalar> 
60
(
5.27883e-22
1.91036e-22
1.19685e-21
5.16787e-22
1.24823e-23
1.00657e-22
9.57814e-23
2.75571e-24
1.37338e-24
1.19679e-24
8.84111e-24
1.00331e-23
6.09457e-24
6.83967e-23
1.86296e-22
1.04864e-22
9.41565e-25
1.04601e-22
2.60781e-24
3.04974e-22
1.62933e-28
1.29894e-28
1.92591e-27
1.28521e-27
2.9128e-28
7.84614e-29
1.94692e-28
1.22641e-28
6.62716e-28
3.58981e-29
5.54438e-31
1.01511e-27
7.40604e-29
9.05557e-28
2.04182e-28
2.52628e-28
5.02922e-32
7.2393e-29
5.2292e-28
6.97958e-28
5.04073e-23
4.17938e-23
9.52948e-25
1.36495e-25
1.72885e-27
1.71908e-26
1.37218e-26
1.55825e-26
9.12847e-27
9.29901e-28
3.44286e-27
2.72165e-29
1.74279e-28
2.11147e-29
3.25761e-27
7.31642e-27
7.72701e-28
3.49596e-27
1.0661e-27
1.37921e-28
)
;
    }
    frontAndBack
    {
        type            empty;
    }
}


// ************************************************************************* //
