/*--------------------------------*- C++ -*----------------------------------*\
| =========                 |                                                 |
| \\      /  F ield         | OpenFOAM: The Open Source CFD Toolbox           |
|  \\    /   O peration     | Version:  2312                                  |
|   \\  /    A nd           | Website:  www.openfoam.com                      |
|    \\/     M anipulation  |                                                 |
\*---------------------------------------------------------------------------*/
FoamFile
{
    version     2.0;
    format      ascii;
    arch        "LSB;label=32;scalar=64";
    class       volScalarField;
    location    "5.5";
    object      epsilonzeroGrad;
}
// * * * * * * * * * * * * * * * * * * * * * * * * * * * * * * * * * * * * * //

dimensions      [0 2 -3 0 0 0 0];

internalField   nonuniform List<scalar> 
400
(
5.88868e-06
5.88866e-06
5.88866e-06
5.88863e-06
5.88863e-06
5.88862e-06
5.88861e-06
5.8886e-06
5.8886e-06
5.88859e-06
5.88859e-06
5.88858e-06
5.88859e-06
5.88858e-06
5.88858e-06
5.88858e-06
5.88858e-06
5.88858e-06
5.88858e-06
5.88858e-06
6.49525e-06
6.36315e-06
6.37394e-06
6.37841e-06
6.38742e-06
6.39204e-06
6.40108e-06
6.40589e-06
6.41493e-06
6.41994e-06
6.42897e-06
6.4342e-06
6.44322e-06
6.44866e-06
6.45768e-06
6.46333e-06
6.47236e-06
6.4782e-06
6.48274e-06
6.49023e-06
7.35888e-06
7.20054e-06
7.21364e-06
7.21906e-06
7.22997e-06
7.23553e-06
7.24645e-06
7.25221e-06
7.2631e-06
7.26907e-06
7.27993e-06
7.28612e-06
7.29694e-06
7.30336e-06
7.31414e-06
7.32078e-06
7.33153e-06
7.33837e-06
7.34377e-06
7.3526e-06
8.14547e-06
7.96369e-06
7.97869e-06
7.98489e-06
7.9974e-06
8.00376e-06
8.01627e-06
8.02287e-06
8.03536e-06
8.0422e-06
8.05465e-06
8.06175e-06
8.07415e-06
8.08153e-06
8.09387e-06
8.10151e-06
8.11383e-06
8.1217e-06
8.12789e-06
8.13803e-06
8.71395e-06
8.51449e-06
8.53091e-06
8.53771e-06
8.5514e-06
8.55838e-06
8.57208e-06
8.57931e-06
8.59299e-06
8.6005e-06
8.61413e-06
8.62193e-06
8.63552e-06
8.64362e-06
8.65715e-06
8.66554e-06
8.67904e-06
8.68769e-06
8.69447e-06
8.7056e-06
9.07437e-06
8.86348e-06
8.88082e-06
8.88799e-06
8.90246e-06
8.90983e-06
8.9243e-06
8.93194e-06
8.94639e-06
8.95433e-06
8.96873e-06
8.97698e-06
8.99133e-06
8.9999e-06
9.0142e-06
9.02307e-06
9.03734e-06
9.04649e-06
9.05366e-06
9.06542e-06
9.28945e-06
9.07165e-06
9.08954e-06
9.09694e-06
9.11186e-06
9.11947e-06
9.13441e-06
9.1423e-06
9.15721e-06
9.16541e-06
9.18027e-06
9.18879e-06
9.2036e-06
9.21245e-06
9.22721e-06
9.23638e-06
9.25111e-06
9.26056e-06
9.26796e-06
9.28011e-06
9.41855e-06
9.19659e-06
9.21482e-06
9.22236e-06
9.23756e-06
9.24531e-06
9.26053e-06
9.26857e-06
9.28375e-06
9.2921e-06
9.30725e-06
9.31593e-06
9.33102e-06
9.34004e-06
9.35507e-06
9.36442e-06
9.37943e-06
9.38906e-06
9.3966e-06
9.40898e-06
9.50229e-06
9.27767e-06
9.29611e-06
9.30373e-06
9.31912e-06
9.32696e-06
9.34236e-06
9.35049e-06
9.36586e-06
9.37431e-06
9.38964e-06
9.39842e-06
9.41369e-06
9.42282e-06
9.43804e-06
9.44749e-06
9.46268e-06
9.47243e-06
9.48006e-06
9.4926e-06
9.56463e-06
9.33802e-06
9.35662e-06
9.36431e-06
9.37983e-06
9.38774e-06
9.40327e-06
9.41148e-06
9.42698e-06
9.43551e-06
9.45097e-06
9.45983e-06
9.47523e-06
9.48444e-06
9.49979e-06
9.50933e-06
9.52466e-06
9.53449e-06
9.54219e-06
9.55483e-06
9.61873e-06
9.39036e-06
9.40909e-06
9.41685e-06
9.43248e-06
9.44045e-06
9.4561e-06
9.46437e-06
9.47998e-06
9.48857e-06
9.50415e-06
9.51308e-06
9.5286e-06
9.53787e-06
9.55334e-06
9.56295e-06
9.5784e-06
9.5883e-06
9.59606e-06
9.6088e-06
9.67167e-06
9.44161e-06
9.46048e-06
9.46829e-06
9.48404e-06
9.49206e-06
9.50782e-06
9.51615e-06
9.53188e-06
9.54054e-06
9.55623e-06
9.56522e-06
9.58086e-06
9.5902e-06
9.60578e-06
9.61546e-06
9.63102e-06
9.641e-06
9.64882e-06
9.66165e-06
9.72765e-06
9.49582e-06
9.51482e-06
9.52269e-06
9.53856e-06
9.54665e-06
9.56253e-06
9.57092e-06
9.58677e-06
9.59549e-06
9.6113e-06
9.62036e-06
9.63611e-06
9.64553e-06
9.66123e-06
9.67099e-06
9.68666e-06
9.69673e-06
9.7046e-06
9.71753e-06
9.78945e-06
9.55566e-06
9.57483e-06
9.58276e-06
9.59876e-06
9.60691e-06
9.62293e-06
9.63139e-06
9.64737e-06
9.65616e-06
9.6721e-06
9.68125e-06
9.69713e-06
9.70663e-06
9.72246e-06
9.7323e-06
9.74811e-06
9.75826e-06
9.7662e-06
9.77924e-06
9.85915e-06
9.62313e-06
9.64248e-06
9.65049e-06
9.66663e-06
9.67486e-06
9.69102e-06
9.69957e-06
9.7157e-06
9.72458e-06
9.74066e-06
9.74989e-06
9.76593e-06
9.77551e-06
9.7915e-06
9.80143e-06
9.81739e-06
9.82763e-06
9.83565e-06
9.84882e-06
9.93772e-06
9.69921e-06
9.71876e-06
9.72685e-06
9.74316e-06
9.75148e-06
9.76781e-06
9.77644e-06
9.79274e-06
9.80171e-06
9.81797e-06
9.8273e-06
9.8435e-06
9.85319e-06
9.86934e-06
9.87938e-06
9.8955e-06
9.90586e-06
9.91396e-06
9.92727e-06
1.00236e-05
9.78233e-06
9.8021e-06
9.81028e-06
9.82677e-06
9.83519e-06
9.8517e-06
9.86043e-06
9.87692e-06
9.88599e-06
9.90243e-06
9.91186e-06
9.92825e-06
9.93805e-06
9.95438e-06
9.96454e-06
9.98085e-06
9.99132e-06
9.99952e-06
1.0013e-05
1.01099e-05
9.86592e-06
9.88589e-06
9.89416e-06
9.91083e-06
9.91933e-06
9.93602e-06
9.94485e-06
9.96151e-06
9.97068e-06
9.9873e-06
9.99684e-06
1.00134e-05
1.00233e-05
1.00398e-05
1.00501e-05
1.00666e-05
1.00772e-05
1.00855e-05
1.00991e-05
1.01826e-05
9.94143e-06
9.9608e-06
9.96883e-06
9.98509e-06
9.99342e-06
1.00097e-05
1.00185e-05
1.00348e-05
1.00439e-05
1.00602e-05
1.00698e-05
1.00861e-05
1.00962e-05
1.01124e-05
1.0123e-05
1.01392e-05
1.01502e-05
1.01584e-05
1.01721e-05
1.02149e-05
1.02149e-05
1.02149e-05
1.02149e-05
1.02148e-05
1.02148e-05
1.02148e-05
1.02148e-05
1.02148e-05
1.02148e-05
1.02148e-05
1.02148e-05
1.02148e-05
1.02148e-05
1.02148e-05
1.02148e-05
1.02148e-05
1.02148e-05
1.02148e-05
1.02148e-05
)
;

boundaryField
{
    movingWall
    {
        type            zeroGradient;
    }
    fixedWalls
    {
        type            zeroGradient;
    }
    frontAndBack
    {
        type            empty;
    }
}


// ************************************************************************* //
