/*--------------------------------*- C++ -*----------------------------------*\
| =========                 |                                                 |
| \\      /  F ield         | OpenFOAM: The Open Source CFD Toolbox           |
|  \\    /   O peration     | Version:  2312                                  |
|   \\  /    A nd           | Website:  www.openfoam.com                      |
|    \\/     M anipulation  |                                                 |
\*---------------------------------------------------------------------------*/
FoamFile
{
    version     2.0;
    format      ascii;
    arch        "LSB;label=32;scalar=64";
    class       volTensorField;
    location    "5.5";
    object      gradU;
}
// * * * * * * * * * * * * * * * * * * * * * * * * * * * * * * * * * * * * * //

dimensions      [0 0 -1 0 0 0 0];

internalField   nonuniform List<tensor> 
400
(
(-5.42101e-13 6.66557e-12 0 8.94467e-13 1.32063e-11 0 0 0 0)
(8.94467e-13 -7.94358e-12 0 -2.43945e-13 -2.68886e-12 0 0 0 0)
(-2.71051e-13 1.60259e-12 0 5.42101e-14 6.54185e-13 0 0 0 0)
(-2.71051e-14 -3.89257e-13 0 5.42101e-14 -1.23363e-13 0 0 0 0)
(2.71051e-14 7.44245e-14 0 8.13152e-14 2.55923e-14 0 0 0 0)
(0 -7.78714e-15 0 5.42101e-14 -1.41277e-15 0 0 0 0)
(0 1.19745e-14 0 0 8.49854e-15 0 0 0 0)
(0 1.09966e-15 0 0 6.96903e-15 0 0 0 0)
(-2.71051e-14 -1.89152e-15 0 2.71051e-14 1.09895e-14 0 0 0 0)
(-2.71051e-14 1.28349e-15 0 0 1.33735e-14 0 0 0 0)
(0 5.83766e-15 0 0 1.73784e-14 0 0 0 0)
(-2.71051e-14 -7.37787e-15 0 -5.42101e-14 2.09282e-14 0 0 0 0)
(0 -1.86697e-14 0 -5.42101e-14 -1.72765e-15 0 0 0 0)
(2.71051e-14 -6.49841e-15 0 -5.42101e-14 -2.3509e-14 0 0 0 0)
(2.71051e-14 8.10087e-15 0 -5.42101e-14 -2.2517e-14 0 0 0 0)
(0 1.22605e-14 0 0 -1.75097e-15 0 0 0 0)
(-2.71051e-14 5.09732e-15 0 0 9.34844e-15 0 0 0 0)
(2.71051e-14 5.20013e-15 0 0 1.03908e-14 0 0 0 0)
(-5.42101e-14 -1.76694e-15 0 -5.42101e-14 1.63464e-14 0 0 0 0)
(0 -1.66085e-14 0 0 4.83459e-16 0 0 0 0)
(1.27394e-12 3.85188e-12 0 -1.0842e-13 -2.1005e-11 0 0 0 0)
(-1.78893e-12 -4.60855e-12 0 0 4.34805e-12 0 0 0 0)
(5.42101e-13 9.62914e-13 0 -1.0842e-13 -1.04863e-12 0 0 0 0)
(2.71051e-14 -2.39336e-13 0 2.71051e-14 2.04671e-13 0 0 0 0)
(0 4.75262e-14 0 0 -4.0093e-14 0 0 0 0)
(-8.13152e-14 -9.30662e-15 0 -2.71051e-14 2.45987e-14 0 0 0 0)
(-2.71051e-14 -3.59274e-15 0 2.71051e-14 3.29402e-15 0 0 0 0)
(0 1.39134e-15 0 2.71051e-14 7.86791e-16 0 0 0 0)
(2.71051e-14 8.296e-15 0 2.71051e-14 1.37871e-14 0 0 0 0)
(-2.71051e-14 5.10536e-15 0 0 2.25697e-14 0 0 0 0)
(0 1.71699e-15 0 0 1.77753e-14 0 0 0 0)
(0 -1.17282e-14 0 5.42101e-14 7.80073e-15 0 0 0 0)
(0 -2.57674e-14 0 0 9.66829e-15 0 0 0 0)
(-5.42101e-14 -1.4291e-14 0 0 1.9035e-15 0 0 0 0)
(5.42101e-14 1.36571e-14 0 -2.71051e-14 -1.46018e-14 0 0 0 0)
(0 1.9605e-14 0 -5.42101e-14 -1.77883e-14 0 0 0 0)
(2.71051e-14 7.04441e-15 0 -5.42101e-14 -1.90844e-14 0 0 0 0)
(-2.71051e-14 1.79782e-15 0 -5.42101e-14 -1.52226e-14 0 0 0 0)
(2.71051e-14 -8.14036e-15 0 0 -2.76949e-14 0 0 0 0)
(5.42101e-14 -2.21386e-16 0 0 -2.00287e-14 0 0 0 0)
(-6.23416e-13 -9.9914e-12 0 -1.70762e-12 3.19807e-12 0 0 0 0)
(8.67362e-13 1.20128e-11 0 5.69206e-13 -7.20279e-13 0 0 0 0)
(-2.43945e-13 -2.54079e-12 0 8.13152e-14 1.54287e-13 0 0 0 0)
(1.0842e-13 6.19285e-13 0 -5.42101e-14 -4.18408e-14 0 0 0 0)
(-5.42101e-14 -1.05648e-13 0 -5.42101e-14 1.7012e-14 0 0 0 0)
(5.42101e-14 3.55999e-14 0 -8.13152e-14 -7.102e-16 0 0 0 0)
(2.71051e-14 -1.18373e-14 0 0 3.90708e-15 0 0 0 0)
(0 1.15928e-14 0 -2.71051e-14 1.19018e-14 0 0 0 0)
(-5.42101e-14 1.98914e-14 0 -2.71051e-14 1.10075e-14 0 0 0 0)
(-2.71051e-14 5.27168e-15 0 5.42101e-14 9.73055e-15 0 0 0 0)
(0 -8.93128e-15 0 5.42101e-14 5.67781e-15 0 0 0 0)
(0 -1.54849e-14 0 5.42101e-14 7.39177e-16 0 0 0 0)
(-2.71051e-14 -2.45669e-14 0 1.0842e-13 1.6215e-14 0 0 0 0)
(-2.71051e-14 -3.07685e-14 0 1.0842e-13 3.3417e-14 0 0 0 0)
(-5.42101e-14 -1.15909e-14 0 8.13152e-14 2.62559e-14 0 0 0 0)
(0 7.7779e-15 0 5.42101e-14 6.53345e-16 0 0 0 0)
(0 7.66305e-15 0 0 -1.2278e-14 0 0 0 0)
(5.42101e-14 -3.41037e-15 0 0 -2.1133e-14 0 0 0 0)
(0 -6.57305e-15 0 5.42101e-14 -2.42507e-14 0 0 0 0)
(0 3.11151e-14 0 0 -8.64536e-15 0 0 0 0)
(2.71051e-14 6.32968e-12 0 8.13152e-14 1.18699e-11 0 0 0 0)
(8.13152e-14 -7.65234e-12 0 -2.1684e-13 -2.45033e-12 0 0 0 0)
(-1.35525e-13 1.64135e-12 0 -1.0842e-13 5.94251e-13 0 0 0 0)
(-8.13152e-14 -3.76611e-13 0 0 -1.20841e-13 0 0 0 0)
(-5.42101e-14 8.86568e-14 0 -5.42101e-14 2.29787e-14 0 0 0 0)
(0 -2.24115e-14 0 0 -1.97996e-14 0 0 0 0)
(5.42101e-14 9.0193e-15 0 -2.71051e-14 -1.46238e-14 0 0 0 0)
(-5.42101e-14 8.49175e-15 0 -5.42101e-14 -1.21247e-14 0 0 0 0)
(8.13152e-14 6.12471e-15 0 -2.71051e-14 -2.60738e-14 0 0 0 0)
(5.42101e-14 -2.24326e-16 0 -2.71051e-14 -3.5347e-14 0 0 0 0)
(5.42101e-14 -7.27438e-15 0 -2.71051e-14 -3.54718e-14 0 0 0 0)
(2.71051e-14 -1.19098e-15 0 0 -3.00726e-14 0 0 0 0)
(2.71051e-14 6.91034e-15 0 0 -1.0867e-14 0 0 0 0)
(0 -4.25012e-15 0 2.71051e-14 2.26641e-14 0 0 0 0)
(-5.42101e-14 -1.91065e-14 0 5.42101e-14 4.51034e-14 0 0 0 0)
(-2.71051e-14 -1.89289e-14 0 5.42101e-14 3.15999e-14 0 0 0 0)
(-2.71051e-14 -1.4742e-14 0 1.0842e-13 4.95547e-15 0 0 0 0)
(0 -1.01749e-14 0 5.42101e-14 -5.42854e-15 0 0 0 0)
(0 4.34729e-15 0 5.42101e-14 3.19657e-15 0 0 0 0)
(0 3.26746e-14 0 0 9.48169e-15 0 0 0 0)
(-8.13152e-13 -5.7179e-13 0 1.84314e-12 -1.17471e-11 0 0 0 0)
(7.04731e-13 7.37116e-13 0 -3.52366e-13 2.4347e-12 0 0 0 0)
(-5.42101e-14 -2.11302e-13 0 1.35525e-13 -5.67734e-13 0 0 0 0)
(1.89735e-13 4.80119e-14 0 5.42101e-14 1.25431e-13 0 0 0 0)
(0 -4.6062e-15 0 1.0842e-13 -2.7388e-14 0 0 0 0)
(0 -2.00256e-15 0 1.0842e-13 9.55513e-15 0 0 0 0)
(0 -4.1624e-15 0 5.42101e-14 2.62375e-15 0 0 0 0)
(0 1.4274e-16 0 1.0842e-13 -5.48432e-15 0 0 0 0)
(0 -3.331e-15 0 8.13152e-14 -9.59947e-15 0 0 0 0)
(0 -4.12634e-15 0 5.42101e-14 -1.88604e-14 0 0 0 0)
(0 -3.65687e-15 0 2.71051e-14 -1.97935e-14 0 0 0 0)
(0 9.11992e-15 0 0 -1.49033e-14 0 0 0 0)
(0 2.81697e-14 0 0 -1.50002e-14 0 0 0 0)
(0 2.52019e-14 0 -5.42101e-14 -7.80956e-15 0 0 0 0)
(0 -2.65509e-15 0 0 2.24237e-15 0 0 0 0)
(0 -3.237e-14 0 2.71051e-14 6.55947e-15 0 0 0 0)
(0 -2.93654e-14 0 0 8.31619e-15 0 0 0 0)
(0 -5.16927e-15 0 2.71051e-14 1.65049e-14 0 0 0 0)
(0 8.33718e-15 0 -5.42101e-14 2.08329e-14 0 0 0 0)
(-5.42101e-14 1.84369e-14 0 0 9.54312e-15 0 0 0 0)
(1.57209e-12 -2.9827e-12 0 -5.69206e-13 3.95033e-12 0 0 0 0)
(-1.6263e-12 3.52701e-12 0 1.6263e-13 -8.15503e-13 0 0 0 0)
(2.98156e-13 -6.67914e-13 0 2.71051e-14 1.98534e-13 0 0 0 0)
(-1.89735e-13 1.63735e-13 0 -2.71051e-14 -3.04473e-14 0 0 0 0)
(0 -2.72189e-14 0 -2.71051e-14 -4.56768e-15 0 0 0 0)
(2.71051e-14 7.60019e-15 0 0 -1.70891e-14 0 0 0 0)
(0 -6.02015e-15 0 2.71051e-14 8.15255e-16 0 0 0 0)
(-2.71051e-14 -3.73148e-15 0 0 2.34772e-15 0 0 0 0)
(2.71051e-14 -7.2514e-15 0 -2.71051e-14 -8.65871e-16 0 0 0 0)
(0 -1.04183e-14 0 -2.71051e-14 7.95489e-16 0 0 0 0)
(0 -3.3173e-15 0 2.71051e-14 1.14211e-14 0 0 0 0)
(-2.71051e-14 3.60232e-15 0 0 2.14635e-14 0 0 0 0)
(0 1.40041e-14 0 0 1.22555e-14 0 0 0 0)
(0 1.29924e-14 0 0 -4.29271e-15 0 0 0 0)
(0 -4.73745e-15 0 0 -1.44454e-14 0 0 0 0)
(2.71051e-14 -1.28551e-14 0 0 -1.29196e-14 0 0 0 0)
(-2.71051e-14 -4.79648e-15 0 0 1.93747e-14 0 0 0 0)
(-5.42101e-14 2.34189e-15 0 0 3.00994e-14 0 0 0 0)
(0 -2.61453e-15 0 0 1.96493e-14 0 0 0 0)
(0 2.29859e-15 0 0 4.19101e-15 0 0 0 0)
(-1.16552e-12 2.56303e-12 0 -1.19262e-12 3.19062e-12 0 0 0 0)
(1.24683e-12 -3.01468e-12 0 1.35525e-13 -5.78338e-13 0 0 0 0)
(-2.1684e-13 5.73754e-13 0 -2.1684e-13 1.18766e-13 0 0 0 0)
(1.35525e-13 -1.5509e-13 0 -2.71051e-14 -3.91336e-14 0 0 0 0)
(0 8.75207e-15 0 -2.71051e-14 -1.57824e-14 0 0 0 0)
(5.42101e-14 3.38037e-15 0 -5.42101e-14 -2.08799e-14 0 0 0 0)
(0 1.52744e-14 0 -8.13152e-14 -7.87376e-15 0 0 0 0)
(-2.71051e-14 -1.53839e-15 0 -5.42101e-14 4.16374e-15 0 0 0 0)
(0 -4.88323e-15 0 -1.35525e-13 5.59588e-15 0 0 0 0)
(2.71051e-14 8.16058e-15 0 -1.0842e-13 5.83337e-15 0 0 0 0)
(0 1.70111e-14 0 -1.6263e-13 8.07027e-15 0 0 0 0)
(0 9.95437e-15 0 -1.35525e-13 2.96757e-15 0 0 0 0)
(-2.71051e-14 2.41355e-15 0 -1.35525e-13 1.24678e-15 0 0 0 0)
(2.71051e-14 -1.49894e-15 0 -8.13152e-14 -1.3809e-14 0 0 0 0)
(0 -1.1282e-14 0 -5.42101e-14 -1.57755e-14 0 0 0 0)
(0 1.45006e-15 0 -2.71051e-14 -7.3045e-15 0 0 0 0)
(0 1.36536e-14 0 0 1.33968e-14 0 0 0 0)
(0 -4.89472e-15 0 0 2.18577e-14 0 0 0 0)
(-2.71051e-14 -1.75712e-14 0 2.71051e-14 1.21721e-14 0 0 0 0)
(-2.71051e-14 -5.40341e-15 0 2.71051e-14 5.99262e-15 0 0 0 0)
(4.87891e-13 -3.70423e-13 0 3.52366e-13 -3.48824e-12 0 0 0 0)
(-6.77626e-13 4.55152e-13 0 -8.13152e-14 6.04966e-13 0 0 0 0)
(1.89735e-13 -1.2871e-13 0 0 -1.6276e-13 0 0 0 0)
(0 2.91867e-14 0 0 1.34375e-14 0 0 0 0)
(0 -8.96526e-15 0 -8.13152e-14 1.08009e-14 0 0 0 0)
(-5.42101e-14 1.55088e-14 0 -5.42101e-14 2.72548e-14 0 0 0 0)
(-2.71051e-14 1.90235e-14 0 -8.13152e-14 1.77199e-14 0 0 0 0)
(0 9.73816e-15 0 -8.13152e-14 1.8885e-14 0 0 0 0)
(0 -5.58177e-15 0 0 2.19826e-14 0 0 0 0)
(-1.0842e-13 -7.94393e-15 0 0 1.44822e-14 0 0 0 0)
(-2.71051e-14 -6.18309e-15 0 0 -4.19762e-15 0 0 0 0)
(2.71051e-14 -3.22117e-15 0 0 -2.70944e-14 0 0 0 0)
(5.42101e-14 -2.77245e-15 0 0 -3.13436e-14 0 0 0 0)
(8.13152e-14 -4.02989e-15 0 0 -3.07248e-14 0 0 0 0)
(5.42101e-14 1.76706e-15 0 -5.42101e-14 -2.1368e-14 0 0 0 0)
(0 1.63172e-14 0 -5.42101e-14 -4.30011e-15 0 0 0 0)
(0 2.43658e-14 0 -1.0842e-13 -1.04392e-14 0 0 0 0)
(2.71051e-14 1.1172e-15 0 -2.71051e-14 -8.71915e-15 0 0 0 0)
(-2.71051e-14 -1.84797e-14 0 -2.71051e-14 1.89039e-15 0 0 0 0)
(0 -1.58661e-14 0 -2.71051e-14 4.16842e-15 0 0 0 0)
(-8.94467e-13 -3.20241e-13 0 3.52366e-13 6.89087e-13 0 0 0 0)
(8.94467e-13 3.10805e-13 0 -8.13152e-14 -1.30552e-13 0 0 0 0)
(-1.89735e-13 -1.77743e-14 0 5.42101e-14 2.17715e-14 0 0 0 0)
(1.0842e-13 1.8471e-14 0 -8.13152e-14 -1.97378e-14 0 0 0 0)
(0 2.25695e-14 0 0 -3.39751e-15 0 0 0 0)
(0 1.02994e-14 0 -2.71051e-14 2.71986e-15 0 0 0 0)
(0 6.90449e-15 0 0 -5.10584e-15 0 0 0 0)
(0 2.72425e-15 0 0 -1.71368e-14 0 0 0 0)
(8.13152e-14 -9.28602e-15 0 8.13152e-14 -2.32488e-14 0 0 0 0)
(0 -1.80196e-14 0 8.13152e-14 -1.57368e-14 0 0 0 0)
(5.42101e-14 -2.45655e-14 0 1.0842e-13 -1.62709e-14 0 0 0 0)
(-2.71051e-14 -1.71916e-14 0 1.35525e-13 -1.57839e-15 0 0 0 0)
(0 -1.21678e-15 0 1.35525e-13 -5.81741e-16 0 0 0 0)
(-2.71051e-14 8.47662e-15 0 5.42101e-14 6.18995e-15 0 0 0 0)
(0 1.51427e-14 0 5.42101e-14 1.49746e-14 0 0 0 0)
(-5.42101e-14 1.23789e-14 0 -5.42101e-14 1.55978e-14 0 0 0 0)
(-2.71051e-14 9.2346e-15 0 0 -1.19109e-14 0 0 0 0)
(2.71051e-14 7.43484e-15 0 -5.42101e-14 -2.35215e-14 0 0 0 0)
(5.42101e-14 -4.68366e-15 0 -5.42101e-14 -6.38457e-15 0 0 0 0)
(0 -1.14622e-14 0 2.71051e-14 -4.97922e-15 0 0 0 0)
(7.58942e-13 1.88112e-13 0 -7.86047e-13 -2.10018e-13 0 0 0 0)
(-9.48677e-13 -2.12164e-13 0 2.71051e-13 3.12453e-16 0 0 0 0)
(1.89735e-13 -1.78957e-14 0 2.71051e-14 1.64929e-14 0 0 0 0)
(-8.13152e-14 4.01768e-15 0 1.0842e-13 1.05536e-14 0 0 0 0)
(0 1.34924e-14 0 8.13152e-14 -2.0304e-15 0 0 0 0)
(0 1.38005e-14 0 8.13152e-14 -2.44142e-14 0 0 0 0)
(2.71051e-14 -8.33179e-16 0 8.13152e-14 -2.79651e-14 0 0 0 0)
(5.42101e-14 -8.4048e-15 0 8.13152e-14 -3.52322e-14 0 0 0 0)
(2.71051e-14 -4.18177e-15 0 2.71051e-14 -2.14092e-14 0 0 0 0)
(0 -9.6605e-16 0 2.71051e-14 -1.13324e-14 0 0 0 0)
(2.71051e-14 7.97536e-15 0 -2.71051e-14 -3.69328e-15 0 0 0 0)
(0 1.2468e-14 0 -5.42101e-14 1.60472e-14 0 0 0 0)
(-2.71051e-14 4.99589e-15 0 -5.42101e-14 3.05906e-14 0 0 0 0)
(-2.71051e-14 1.15264e-14 0 0 2.50859e-14 0 0 0 0)
(0 1.11749e-14 0 -5.42101e-14 9.28787e-15 0 0 0 0)
(0 -1.05682e-14 0 5.42101e-14 -2.82811e-15 0 0 0 0)
(0 -1.47535e-14 0 5.42101e-14 -1.01985e-14 0 0 0 0)
(0 6.64351e-15 0 0 -7.82449e-15 0 0 0 0)
(0 6.26608e-17 0 5.42101e-14 -3.34855e-16 0 0 0 0)
(0 -4.5023e-15 0 0 -2.0621e-15 0 0 0 0)
(-1.40946e-12 -5.29947e-13 0 2.05998e-12 7.33102e-13 0 0 0 0)
(1.73472e-12 5.37316e-13 0 -2.71051e-13 -1.33225e-13 0 0 0 0)
(-3.25261e-13 -7.5332e-15 0 2.1684e-13 5.50877e-14 0 0 0 0)
(1.0842e-13 -5.23116e-17 0 2.71051e-14 2.37597e-14 0 0 0 0)
(-5.42101e-14 -1.23983e-14 0 5.42101e-14 3.31346e-14 0 0 0 0)
(0 -1.56352e-14 0 5.42101e-14 1.18064e-14 0 0 0 0)
(0 -3.9135e-15 0 2.71051e-14 4.85146e-15 0 0 0 0)
(0 9.2801e-15 0 2.71051e-14 1.13967e-14 0 0 0 0)
(-2.71051e-14 1.46138e-14 0 -2.71051e-14 2.4331e-14 0 0 0 0)
(-2.71051e-14 -3.03686e-16 0 -5.42101e-14 2.81918e-14 0 0 0 0)
(-5.42101e-14 2.81413e-15 0 0 1.96693e-14 0 0 0 0)
(0 1.70923e-14 0 -5.42101e-14 2.12348e-15 0 0 0 0)
(0 7.8219e-15 0 0 -2.4707e-15 0 0 0 0)
(5.42101e-14 -1.28261e-14 0 5.42101e-14 -4.42353e-15 0 0 0 0)
(0 -1.27714e-14 0 1.0842e-13 -1.66734e-14 0 0 0 0)
(0 -7.1075e-15 0 5.42101e-14 -1.00375e-14 0 0 0 0)
(0 4.23821e-15 0 2.71051e-14 6.41146e-15 0 0 0 0)
(0 1.72985e-14 0 0 5.38081e-15 0 0 0 0)
(2.71051e-14 1.07873e-15 0 2.71051e-14 9.28332e-17 0 0 0 0)
(-2.71051e-14 -9.06526e-15 0 0 1.33828e-14 0 0 0 0)
(2.52077e-12 7.8799e-13 0 -7.86047e-13 1.10415e-12 0 0 0 0)
(-2.79182e-12 -8.90179e-13 0 -5.42101e-14 -1.08058e-13 0 0 0 0)
(4.87891e-13 1.39089e-13 0 -2.1684e-13 3.99584e-14 0 0 0 0)
(-2.1684e-13 -1.79354e-14 0 -1.0842e-13 8.75269e-15 0 0 0 0)
(5.42101e-14 1.5391e-15 0 -5.42101e-14 1.89504e-14 0 0 0 0)
(-5.42101e-14 -1.44826e-14 0 -1.0842e-13 2.11519e-14 0 0 0 0)
(0 -1.2429e-15 0 -8.13152e-14 1.10457e-14 0 0 0 0)
(-5.42101e-14 1.10748e-14 0 -8.13152e-14 1.65346e-14 0 0 0 0)
(5.42101e-14 1.26133e-14 0 -8.13152e-14 -7.14449e-15 0 0 0 0)
(0 -5.62775e-15 0 0 -9.29853e-15 0 0 0 0)
(0 -1.80929e-14 0 -5.42101e-14 -8.92101e-15 0 0 0 0)
(0 -9.67201e-15 0 0 -1.53193e-14 0 0 0 0)
(5.42101e-14 -1.55112e-15 0 0 -2.98827e-14 0 0 0 0)
(2.71051e-14 -2.67631e-15 0 -5.42101e-14 -1.44085e-14 0 0 0 0)
(0 5.56091e-15 0 -5.42101e-14 9.79321e-15 0 0 0 0)
(-2.71051e-14 1.25167e-14 0 -5.42101e-14 3.06825e-14 0 0 0 0)
(-5.42101e-14 6.64765e-16 0 -2.71051e-14 2.79099e-14 0 0 0 0)
(0 3.24887e-16 0 0 -1.41948e-15 0 0 0 0)
(2.71051e-14 8.06468e-15 0 -8.13152e-14 -1.60521e-14 0 0 0 0)
(-2.71051e-14 -1.7978e-14 0 0 2.77936e-15 0 0 0 0)
(-2.22261e-12 4.66146e-13 0 -1.21973e-12 -3.57629e-12 0 0 0 0)
(2.30393e-12 -5.26878e-13 0 2.71051e-13 6.9119e-13 0 0 0 0)
(-3.52366e-13 1.09278e-13 0 -2.71051e-14 -1.4824e-13 0 0 0 0)
(1.89735e-13 -2.10603e-14 0 5.42101e-14 2.03826e-14 0 0 0 0)
(0 8.59304e-19 0 0 -3.67002e-14 0 0 0 0)
(0 -2.35399e-14 0 8.13152e-14 -1.83493e-14 0 0 0 0)
(0 -8.53077e-15 0 1.0842e-13 -8.84494e-15 0 0 0 0)
(0 -8.91009e-15 0 1.0842e-13 3.98219e-15 0 0 0 0)
(0 -1.12193e-14 0 8.13152e-14 -1.48629e-15 0 0 0 0)
(2.71051e-14 -2.08021e-15 0 5.42101e-14 -6.24858e-15 0 0 0 0)
(-2.71051e-14 -3.20659e-15 0 8.13152e-14 9.12478e-15 0 0 0 0)
(0 -3.86946e-15 0 0 5.05947e-15 0 0 0 0)
(0 8.73268e-15 0 -8.13152e-14 3.15636e-15 0 0 0 0)
(0 2.68499e-14 0 -8.13152e-14 4.61731e-16 0 0 0 0)
(0 3.23196e-14 0 -1.35525e-13 -5.85113e-15 0 0 0 0)
(2.71051e-14 1.10092e-14 0 -5.42101e-14 -1.37836e-14 0 0 0 0)
(0 -2.78638e-14 0 0 -6.31576e-15 0 0 0 0)
(-2.71051e-14 -2.66636e-14 0 5.42101e-14 -5.18868e-15 0 0 0 0)
(2.71051e-14 5.27758e-15 0 0 -1.87149e-14 0 0 0 0)
(5.42101e-14 4.20752e-15 0 0 -2.19038e-14 0 0 0 0)
(1.54499e-12 -2.09711e-12 0 1.0842e-12 3.9935e-12 0 0 0 0)
(-1.6263e-12 2.53787e-12 0 -1.89735e-13 -8.18353e-13 0 0 0 0)
(2.71051e-13 -5.31718e-13 0 1.35525e-13 1.5401e-13 0 0 0 0)
(-1.0842e-13 9.36041e-14 0 0 -6.24709e-14 0 0 0 0)
(8.13152e-14 -3.71928e-14 0 5.42101e-14 -3.07579e-14 0 0 0 0)
(0 1.33727e-14 0 5.42101e-14 -1.39294e-14 0 0 0 0)
(0 2.10886e-14 0 0 7.06025e-15 0 0 0 0)
(0 1.84334e-14 0 -2.71051e-14 9.26107e-15 0 0 0 0)
(-2.71051e-14 2.38256e-15 0 2.71051e-14 2.78796e-14 0 0 0 0)
(-2.71051e-14 4.98331e-15 0 -2.71051e-14 3.1466e-14 0 0 0 0)
(-5.42101e-14 -6.78489e-15 0 0 4.27483e-14 0 0 0 0)
(-5.42101e-14 -1.56404e-14 0 5.42101e-14 3.15833e-14 0 0 0 0)
(-8.13152e-14 -6.14886e-15 0 0 1.71097e-14 0 0 0 0)
(0 -1.16838e-14 0 2.71051e-14 2.7445e-15 0 0 0 0)
(0 -8.68438e-15 0 8.13152e-14 -1.63221e-14 0 0 0 0)
(8.13152e-14 1.2052e-14 0 0 -3.94712e-14 0 0 0 0)
(2.71051e-14 9.25964e-15 0 0 -2.32043e-14 0 0 0 0)
(0 -1.20742e-14 0 2.71051e-14 1.31395e-15 0 0 0 0)
(0 -8.65044e-15 0 5.42101e-14 -1.80213e-16 0 0 0 0)
(-2.71051e-14 2.26407e-14 0 0 -8.09462e-15 0 0 0 0)
(-1.30104e-12 3.64129e-12 0 -1.0571e-12 -7.91393e-13 0 0 0 0)
(1.40946e-12 -4.36637e-12 0 1.0842e-13 1.25712e-13 0 0 0 0)
(-2.43945e-13 8.6516e-13 0 -1.89735e-13 -6.11862e-14 0 0 0 0)
(1.35525e-13 -2.05828e-13 0 -5.42101e-14 -7.06924e-15 0 0 0 0)
(-5.42101e-14 4.85424e-14 0 -1.0842e-13 3.22722e-15 0 0 0 0)
(0 1.42782e-14 0 -1.35525e-13 1.18688e-14 0 0 0 0)
(-2.71051e-14 1.46597e-14 0 -1.89735e-13 1.2457e-14 0 0 0 0)
(0 1.19093e-14 0 -1.0842e-13 -2.01018e-14 0 0 0 0)
(0 1.09856e-14 0 -8.13152e-14 -2.26869e-14 0 0 0 0)
(0 1.27885e-14 0 -1.0842e-13 -1.04645e-14 0 0 0 0)
(2.71051e-14 -3.08931e-15 0 -2.71051e-14 -6.45784e-15 0 0 0 0)
(0 -2.95081e-14 0 0 3.15893e-15 0 0 0 0)
(5.42101e-14 -2.01061e-14 0 8.13152e-14 -7.04475e-15 0 0 0 0)
(5.42101e-14 -6.58186e-15 0 0 -5.91634e-15 0 0 0 0)
(-2.71051e-14 -9.89608e-15 0 5.42101e-14 8.66281e-15 0 0 0 0)
(-2.71051e-14 4.12693e-15 0 5.42101e-14 -3.37731e-15 0 0 0 0)
(0 1.29214e-14 0 -5.42101e-14 -2.47074e-14 0 0 0 0)
(0 -3.63945e-15 0 0 -1.88671e-14 0 0 0 0)
(0 -4.13099e-15 0 0 6.08492e-15 0 0 0 0)
(0 1.24824e-14 0 0 1.17961e-14 0 0 0 0)
(5.96311e-13 -2.76279e-12 0 7.04731e-13 -5.18906e-12 0 0 0 0)
(-7.86047e-13 3.26808e-12 0 0 1.06693e-12 0 0 0 0)
(1.35525e-13 -6.64499e-13 0 1.35525e-13 -2.27635e-13 0 0 0 0)
(-2.71051e-14 1.58018e-13 0 5.42101e-14 6.52783e-14 0 0 0 0)
(0 -1.82548e-14 0 5.42101e-14 5.83787e-15 0 0 0 0)
(0 2.26025e-14 0 0 1.207e-14 0 0 0 0)
(0 -1.0882e-14 0 8.13152e-14 1.38798e-14 0 0 0 0)
(2.71051e-14 -1.67105e-14 0 2.71051e-14 -1.00032e-15 0 0 0 0)
(0 1.20198e-14 0 5.42101e-14 -5.41441e-15 0 0 0 0)
(0 2.12124e-14 0 2.71051e-14 -1.06652e-14 0 0 0 0)
(5.42101e-14 6.83855e-15 0 0 -3.50732e-14 0 0 0 0)
(0 -1.62273e-14 0 2.71051e-14 -2.02055e-14 0 0 0 0)
(-5.42101e-14 -1.52241e-14 0 2.71051e-14 2.48154e-15 0 0 0 0)
(-2.71051e-14 4.02376e-15 0 5.42101e-14 -3.87594e-15 0 0 0 0)
(0 -6.14535e-15 0 0 -9.21486e-15 0 0 0 0)
(2.71051e-14 -2.13182e-14 0 0 -1.24268e-14 0 0 0 0)
(5.42101e-14 -6.23016e-15 0 8.13152e-14 -2.43009e-14 0 0 0 0)
(2.71051e-14 1.87181e-14 0 -2.71051e-14 -1.3643e-14 0 0 0 0)
(-2.71051e-14 2.20128e-14 0 0 8.87523e-15 0 0 0 0)
(0 4.75972e-15 0 -2.71051e-14 5.13129e-15 0 0 0 0)
(-5.69206e-13 -4.80837e-13 0 -1.13841e-12 7.51428e-12 0 0 0 0)
(8.67362e-13 5.9506e-13 0 2.43945e-13 -1.52117e-12 0 0 0 0)
(-2.43945e-13 -1.36495e-13 0 -8.13152e-14 3.62221e-13 0 0 0 0)
(0 2.76449e-14 0 2.71051e-14 -5.55801e-14 0 0 0 0)
(0 -4.66586e-15 0 0 2.51908e-14 0 0 0 0)
(0 2.23201e-14 0 0 -5.03431e-15 0 0 0 0)
(0 1.58931e-15 0 5.42101e-14 -8.74574e-15 0 0 0 0)
(-5.42101e-14 -7.38488e-15 0 8.13152e-14 1.84085e-14 0 0 0 0)
(-5.42101e-14 1.32078e-15 0 0 1.08918e-14 0 0 0 0)
(0 -1.68703e-14 0 5.42101e-14 -2.00805e-14 0 0 0 0)
(8.13152e-14 -1.26296e-14 0 2.71051e-14 -3.34553e-14 0 0 0 0)
(2.71051e-14 8.04663e-15 0 2.71051e-14 -1.63921e-14 0 0 0 0)
(0 -3.77658e-15 0 2.71051e-14 9.82728e-15 0 0 0 0)
(0 -1.82783e-14 0 5.42101e-14 5.74578e-15 0 0 0 0)
(2.71051e-14 -1.84469e-14 0 8.13152e-14 -1.85061e-15 0 0 0 0)
(-2.71051e-14 -1.09591e-14 0 5.42101e-14 5.56955e-15 0 0 0 0)
(0 1.17051e-14 0 2.71051e-14 1.19769e-14 0 0 0 0)
(-5.42101e-14 2.95367e-14 0 0 2.65463e-14 0 0 0 0)
(0 1.46433e-14 0 0 1.7402e-14 0 0 0 0)
(0 -1.52416e-15 0 0 1.85139e-15 0 0 0 0)
(-2.98156e-13 3.23033e-12 0 1.81604e-12 1.92253e-13 0 0 0 0)
(2.43945e-13 -3.88399e-12 0 -4.87891e-13 -1.459e-13 0 0 0 0)
(-8.13152e-14 8.01088e-13 0 2.71051e-14 2.17574e-14 0 0 0 0)
(8.13152e-14 -1.79013e-13 0 -2.71051e-14 -2.63328e-14 0 0 0 0)
(-2.71051e-14 3.2291e-14 0 0 1.12235e-15 0 0 0 0)
(0 -1.13341e-14 0 0 -1.64197e-14 0 0 0 0)
(8.13152e-14 1.25608e-14 0 0 -3.39824e-14 0 0 0 0)
(0 2.92703e-15 0 -2.71051e-14 -1.92679e-14 0 0 0 0)
(2.71051e-14 -2.64691e-14 0 2.71051e-14 -2.40784e-14 0 0 0 0)
(2.71051e-14 -2.31347e-14 0 5.42101e-14 -2.45107e-14 0 0 0 0)
(0 1.05269e-14 0 -2.71051e-14 -7.65399e-16 0 0 0 0)
(0 2.70553e-14 0 -2.71051e-14 1.36588e-15 0 0 0 0)
(0 6.91378e-15 0 -2.71051e-14 -1.89927e-16 0 0 0 0)
(2.71051e-14 -7.65414e-15 0 -5.42101e-14 -9.08973e-16 0 0 0 0)
(-2.71051e-14 -6.32158e-15 0 -8.13152e-14 5.42346e-15 0 0 0 0)
(-2.71051e-14 -7.49067e-15 0 -5.42101e-14 1.07843e-14 0 0 0 0)
(0 1.47465e-14 0 -5.42101e-14 1.8702e-14 0 0 0 0)
(-2.71051e-14 2.41432e-14 0 -5.42101e-14 1.53861e-14 0 0 0 0)
(2.71051e-14 -2.68211e-15 0 -5.42101e-14 -4.46707e-15 0 0 0 0)
(-2.71051e-14 -1.44937e-14 0 0 1.22931e-15 0 0 0 0)
(7.58942e-13 -4.34484e-13 0 5.42101e-13 -1.05356e-11 0 0 0 0)
(-9.48677e-13 4.24564e-13 0 5.42101e-14 2.20056e-12 0 0 0 0)
(2.43945e-13 -1.6927e-14 0 2.43945e-13 -5.0459e-13 0 0 0 0)
(-2.71051e-14 7.00984e-15 0 8.13152e-14 1.05585e-13 0 0 0 0)
(2.71051e-14 5.24728e-15 0 1.0842e-13 -1.71596e-14 0 0 0 0)
(-2.71051e-14 -1.27847e-14 0 1.35525e-13 1.48334e-14 0 0 0 0)
(-8.13152e-14 -1.2589e-15 0 8.13152e-14 2.71503e-15 0 0 0 0)
(5.42101e-14 2.5192e-15 0 5.42101e-14 -1.5734e-14 0 0 0 0)
(2.71051e-14 -3.92205e-15 0 2.71051e-14 -1.86051e-15 0 0 0 0)
(-2.71051e-14 6.44268e-15 0 0 2.45289e-14 0 0 0 0)
(-5.42101e-14 1.32469e-14 0 5.42101e-14 3.02777e-14 0 0 0 0)
(0 8.6221e-15 0 -2.71051e-14 1.13659e-14 0 0 0 0)
(5.42101e-14 -6.05144e-15 0 2.71051e-14 -2.85075e-15 0 0 0 0)
(-5.42101e-14 -1.26649e-14 0 2.71051e-14 -4.13891e-15 0 0 0 0)
(0 -6.75365e-15 0 0 -7.49047e-15 0 0 0 0)
(5.42101e-14 2.31944e-15 0 2.71051e-14 -2.58385e-15 0 0 0 0)
(-5.42101e-14 1.63069e-14 0 -5.42101e-14 1.14081e-14 0 0 0 0)
(0 6.3676e-15 0 0 -9.76604e-15 0 0 0 0)
(5.42101e-14 4.86543e-16 0 5.42101e-14 -2.35355e-14 0 0 0 0)
(0 1.7136e-15 0 2.71051e-14 -5.5724e-15 0 0 0 0)
(2.71051e-13 -5.10475e-12 0 -1.16552e-12 6.90108e-12 0 0 0 0)
(-2.71051e-14 6.14706e-12 0 1.35525e-13 -1.36185e-12 0 0 0 0)
(-2.71051e-14 -1.29389e-12 0 -1.89735e-13 3.29457e-13 0 0 0 0)
(-2.71051e-14 3.08418e-13 0 -8.13152e-14 -5.10342e-14 0 0 0 0)
(-2.71051e-14 -5.84609e-14 0 -1.0842e-13 1.40297e-14 0 0 0 0)
(0 8.54057e-15 0 -8.13152e-14 2.17944e-15 0 0 0 0)
(2.71051e-14 -1.80066e-14 0 -8.13152e-14 1.82737e-14 0 0 0 0)
(-5.42101e-14 -1.64851e-15 0 -5.42101e-14 2.14449e-14 0 0 0 0)
(-5.42101e-14 1.37938e-14 0 -5.42101e-14 1.74031e-14 0 0 0 0)
(0 9.00346e-15 0 -5.42101e-14 1.15732e-14 0 0 0 0)
(0 -2.63612e-15 0 -5.42101e-14 1.95692e-15 0 0 0 0)
(-2.71051e-14 -6.0732e-15 0 0 9.62358e-16 0 0 0 0)
(0 -8.59098e-15 0 -5.42101e-14 -5.91989e-16 0 0 0 0)
(2.71051e-14 -1.22939e-14 0 -2.71051e-14 1.56048e-14 0 0 0 0)
(-2.71051e-14 -4.76652e-15 0 0 2.43667e-14 0 0 0 0)
(-5.42101e-14 1.14079e-14 0 -2.71051e-14 2.71249e-14 0 0 0 0)
(0 7.56435e-15 0 5.42101e-14 1.06394e-14 0 0 0 0)
(2.71051e-14 -1.08004e-14 0 5.42101e-14 3.2537e-15 0 0 0 0)
(0 1.51152e-15 0 0 1.50722e-14 0 0 0 0)
(-2.71051e-14 1.46142e-14 0 -2.71051e-14 1.25563e-15 0 0 0 0)
)
;

boundaryField
{
    movingWall
    {
        type            extrapolatedCalculated;
        value           nonuniform List<tensor> 
20
(
(2.71051e-13 -5.10475e-12 0 -7.54952e-13 2.58627e-11 0 0 0 0)
(-2.71051e-14 6.14706e-12 0 -3.55271e-13 -5.44365e-12 0 0 0 0)
(-2.71051e-14 -1.29389e-12 0 -5.77316e-13 1.27441e-12 0 0 0 0)
(-2.71051e-14 3.08418e-13 0 -3.10862e-13 -2.68109e-13 0 0 0 0)
(-2.71051e-14 -5.84609e-14 0 -3.55271e-13 4.07439e-14 0 0 0 0)
(0 8.54057e-15 0 -3.10862e-13 -3.42653e-14 0 0 0 0)
(2.71051e-14 -1.80066e-14 0 -3.55271e-13 6.58161e-15 0 0 0 0)
(-5.42101e-14 -1.64851e-15 0 -3.10862e-13 3.7761e-14 0 0 0 0)
(-5.42101e-14 1.37938e-14 0 -2.22045e-13 1.31756e-14 0 0 0 0)
(0 9.00346e-15 0 -1.77636e-13 -1.74141e-14 0 0 0 0)
(0 -2.63612e-15 0 -2.22045e-13 -2.28382e-14 0 0 0 0)
(-2.71051e-14 -6.0732e-15 0 -1.33227e-13 -6.8696e-15 0 0 0 0)
(0 -8.59098e-15 0 -1.33227e-13 1.4546e-15 0 0 0 0)
(2.71051e-14 -1.22939e-14 0 -1.33227e-13 2.74943e-14 0 0 0 0)
(-2.71051e-14 -4.76652e-15 0 -1.77636e-13 5.063e-14 0 0 0 0)
(-5.42101e-14 1.14079e-14 0 -8.88178e-14 4.65604e-14 0 0 0 0)
(0 7.56435e-15 0 8.88178e-14 4.99842e-15 0 0 0 0)
(2.71051e-14 -1.08004e-14 0 -4.44089e-14 1.6303e-14 0 0 0 0)
(0 1.51152e-15 0 -4.44089e-14 4.82e-14 0 0 0 0)
(-2.71051e-14 1.46142e-14 0 -4.44089e-14 1.02569e-14 0 0 0 0)
)
;
    }
    fixedWalls
    {
        type            extrapolatedCalculated;
        value           nonuniform List<tensor> 
60
(
(-3.37508e-12 3.3387e-11 0 8.94467e-13 1.32063e-11 0 0 0 0)
(6.9722e-12 1.94383e-11 0 -1.0842e-13 -2.1005e-11 0 0 0 0)
(-3.73035e-12 -5.06331e-11 0 -1.70762e-12 3.19807e-12 0 0 0 0)
(4.44089e-14 3.22306e-11 0 8.13152e-14 1.18699e-11 0 0 0 0)
(-3.37508e-12 -3.15331e-12 0 1.84314e-12 -1.17471e-11 0 0 0 0)
(7.32747e-12 -1.47578e-11 0 -5.69206e-13 3.95033e-12 0 0 0 0)
(-5.59552e-12 1.2648e-11 0 -1.19262e-12 3.19062e-12 0 0 0 0)
(2.57572e-12 -1.99528e-12 0 3.52366e-13 -3.48824e-12 0 0 0 0)
(-4.17444e-12 -1.30497e-12 0 3.52366e-13 6.89087e-13 0 0 0 0)
(3.9968e-12 7.61071e-13 0 -7.86047e-13 -2.10018e-13 0 0 0 0)
(-7.37188e-12 -2.14504e-12 0 2.05998e-12 7.33102e-13 0 0 0 0)
(1.22569e-11 3.69348e-12 0 -7.86047e-13 1.10415e-12 0 0 0 0)
(-1.04805e-11 2.27157e-12 0 -1.21973e-12 -3.57629e-12 0 0 0 0)
(7.32747e-12 -1.06117e-11 0 1.0842e-12 3.9935e-12 0 0 0 0)
(-6.12843e-12 1.82456e-11 0 -1.0571e-12 -7.91393e-13 0 0 0 0)
(3.19744e-12 -1.37772e-11 0 7.04731e-13 -5.18906e-12 0 0 0 0)
(-3.37508e-12 -2.51068e-12 0 -1.13841e-12 7.51428e-12 0 0 0 0)
(-1.42109e-12 1.62799e-11 0 1.81604e-12 1.92253e-13 0 0 0 0)
(3.86358e-12 -1.74167e-12 0 5.42101e-13 -1.05356e-11 0 0 0 0)
(7.54952e-13 -2.58627e-11 0 -1.16552e-12 6.90108e-12 0 0 0 0)
(0 -1.80517e-14 0 0 4.83459e-16 0 0 0 0)
(0 1.61179e-14 0 0 -2.00287e-14 0 0 0 0)
(0 6.2063e-14 0 0 -8.64536e-15 0 0 0 0)
(0 5.06993e-14 0 0 9.48169e-15 0 0 0 0)
(0 2.41363e-14 0 0 9.54312e-15 0 0 0 0)
(0 1.25269e-14 0 0 4.19101e-15 0 0 0 0)
(-4.44089e-14 7.37224e-15 0 2.71051e-14 5.99262e-15 0 0 0 0)
(0 -1.14436e-14 0 -2.71051e-14 4.16842e-15 0 0 0 0)
(-4.44089e-14 -9.30144e-15 0 2.71051e-14 -4.97922e-15 0 0 0 0)
(0 8.47327e-15 0 0 -2.0621e-15 0 0 0 0)
(-8.88178e-14 -1.05303e-15 0 0 1.33828e-14 0 0 0 0)
(-4.44089e-14 -4.5058e-14 0 0 2.77936e-15 0 0 0 0)
(0 -1.21705e-14 0 0 -2.19038e-14 0 0 0 0)
(-4.44089e-14 4.25572e-14 0 0 -8.09462e-15 0 0 0 0)
(-8.88178e-14 2.0208e-14 0 0 1.17961e-14 0 0 0 0)
(0 -4.62715e-15 0 -2.71051e-14 5.13129e-15 0 0 0 0)
(0 -3.1715e-16 0 0 1.85139e-15 0 0 0 0)
(-4.44089e-14 -1.20327e-14 0 0 1.22931e-15 0 0 0 0)
(0 -5.23438e-15 0 2.71051e-14 -5.5724e-15 0 0 0 0)
(-4.44089e-14 1.02569e-14 0 -2.71051e-14 1.25563e-15 0 0 0 0)
(-5.42101e-13 6.66557e-12 0 -3.37508e-12 3.3387e-11 0 0 0 0)
(8.94467e-13 -7.94358e-12 0 1.19904e-12 -6.72472e-12 0 0 0 0)
(-2.71051e-13 1.60259e-12 0 2.22045e-13 1.61269e-12 0 0 0 0)
(-2.71051e-14 -3.89257e-13 0 1.33227e-13 -3.14375e-13 0 0 0 0)
(2.71051e-14 7.44245e-14 0 1.33227e-13 5.56606e-14 0 0 0 0)
(0 -7.78714e-15 0 1.77636e-13 -1.66772e-14 0 0 0 0)
(0 1.19745e-14 0 1.77636e-13 2.45121e-14 0 0 0 0)
(0 1.09966e-15 0 1.77636e-13 3.1221e-14 0 0 0 0)
(-2.71051e-14 -1.89152e-15 0 1.33227e-13 2.89107e-14 0 0 0 0)
(-2.71051e-14 1.28349e-15 0 4.44089e-14 2.36549e-14 0 0 0 0)
(0 5.83766e-15 0 8.88178e-14 3.40447e-14 0 0 0 0)
(-2.71051e-14 -7.37787e-15 0 0 4.70055e-14 0 0 0 0)
(0 -1.86697e-14 0 0 4.53324e-15 0 0 0 0)
(2.71051e-14 -6.49841e-15 0 0 -2.76733e-14 0 0 0 0)
(2.71051e-14 8.10087e-15 0 8.88178e-14 -2.14604e-14 0 0 0 0)
(0 1.22605e-14 0 1.33227e-13 4.73021e-15 0 0 0 0)
(-2.71051e-14 5.09732e-15 0 4.44089e-14 2.75816e-14 0 0 0 0)
(2.71051e-14 5.20013e-15 0 8.88178e-14 2.51195e-14 0 0 0 0)
(-5.42101e-14 -1.76694e-15 0 4.44089e-14 4.83821e-14 0 0 0 0)
(0 -1.66085e-14 0 0 1.80517e-14 0 0 0 0)
)
;
    }
    frontAndBack
    {
        type            empty;
    }
}


// ************************************************************************* //
