/*--------------------------------*- C++ -*----------------------------------*\
| =========                 |                                                 |
| \\      /  F ield         | OpenFOAM: The Open Source CFD Toolbox           |
|  \\    /   O peration     | Version:  2312                                  |
|   \\  /    A nd           | Website:  www.openfoam.com                      |
|    \\/     M anipulation  |                                                 |
\*---------------------------------------------------------------------------*/
FoamFile
{
    version     2.0;
    format      ascii;
    arch        "LSB;label=32;scalar=64";
    class       volVectorField;
    location    "5.5";
    object      gradPhi;
}
// * * * * * * * * * * * * * * * * * * * * * * * * * * * * * * * * * * * * * //

dimensions      [0 2 -1 0 0 0 0];

internalField   nonuniform List<vector> 
400
(
(-0.02 7.69892e-17 0)
(1.05879e-16 -1.06843e-16 0)
(-3.14329e-17 3.30663e-17 0)
(3.30872e-18 -4.17133e-18 0)
(-1.65436e-18 8.40185e-19 0)
(1.65436e-18 -8.14924e-19 0)
(0 -1.07899e-19 0)
(0 4.05647e-19 0)
(-1.65436e-18 8.64154e-19 0)
(0 5.72673e-19 0)
(-1.65436e-18 8.3954e-19 0)
(0 1.49194e-18 0)
(0 2.62275e-20 0)
(0 -1.33363e-18 0)
(1.65436e-18 -8.86853e-19 0)
(0 -4.49104e-19 0)
(0 5.15601e-19 0)
(0 9.1998e-20 0)
(-1.65436e-18 1.36819e-18 0)
(0 1.2951e-18 0)
(-0.02 -1.26914e-16 0)
(-1.72054e-16 1.72687e-16 0)
(5.29396e-17 -5.30416e-17 0)
(-6.61744e-18 7.20233e-18 0)
(1.65436e-18 -1.32238e-18 0)
(-3.30872e-18 2.85968e-18 0)
(-1.65436e-18 1.31314e-18 0)
(0 -1.09105e-19 0)
(1.65436e-18 -3.8385e-19 0)
(-1.65436e-18 1.20264e-18 0)
(0 1.01826e-18 0)
(0 -2.21163e-19 0)
(-1.65436e-18 3.92564e-19 0)
(0 4.53836e-19 0)
(0 -1.58535e-18 0)
(1.65436e-18 -5.39506e-19 0)
(0 -1.22828e-18 0)
(0 7.02173e-21 0)
(1.65436e-18 -2.37973e-18 0)
(1.65436e-18 -3.1539e-18 0)
(-0.02 2.60253e-17 0)
(3.63959e-17 -3.63651e-17 0)
(-8.27181e-18 7.95374e-18 0)
(1.65436e-18 -2.42485e-18 0)
(0 5.31913e-19 0)
(0 -1.51646e-18 0)
(1.65436e-18 -6.04429e-19 0)
(0 3.37314e-19 0)
(-1.65436e-18 2.06136e-18 0)
(-1.65436e-18 7.1775e-19 0)
(0 2.6747e-19 0)
(0 5.58355e-19 0)
(-1.65436e-18 1.23339e-18 0)
(-3.30872e-18 1.76917e-18 0)
(0 2.03451e-18 0)
(0 1.26748e-19 0)
(0 -3.9986e-19 0)
(0 -1.57039e-18 0)
(1.65436e-18 -4.456e-19 0)
(0 3.65612e-19 0)
(-0.02 4.25513e-17 0)
(6.45201e-17 -6.43429e-17 0)
(-2.97785e-17 2.96384e-17 0)
(1.65436e-18 -2.00867e-18 0)
(-1.65436e-18 1.24246e-18 0)
(0 1.29694e-19 0)
(1.65436e-18 -5.63889e-19 0)
(0 1.96067e-19 0)
(3.30872e-18 -2.67628e-18 0)
(1.65436e-18 -2.3647e-18 0)
(3.30872e-18 -2.19249e-18 0)
(1.65436e-18 -2.30311e-18 0)
(1.65436e-18 -1.53389e-18 0)
(0 4.48846e-19 0)
(-3.30872e-18 2.67828e-18 0)
(-1.65436e-18 1.70491e-18 0)
(-1.65436e-18 6.4302e-19 0)
(0 2.65829e-19 0)
(0 -3.34229e-19 0)
(0 1.57969e-19 0)
(-0.02 -1.46506e-17 0)
(-4.1359e-17 4.12126e-17 0)
(2.64698e-17 -2.76462e-17 0)
(0 9.43474e-19 0)
(1.65436e-18 -1.29066e-18 0)
(0 -5.18369e-19 0)
(-1.65436e-18 2.25043e-20 0)
(1.65436e-18 -8.90308e-19 0)
(0 6.29634e-19 0)
(0 -1.06484e-19 0)
(0 -3.08374e-19 0)
(0 -3.23901e-19 0)
(0 -7.98075e-20 0)
(0 6.02603e-20 0)
(0 -6.78469e-19 0)
(0 1.15711e-19 0)
(0 -1.34926e-19 0)
(-1.65436e-18 2.68807e-19 0)
(0 1.16909e-18 0)
(-1.65436e-18 1.33371e-18 0)
(-0.02 -3.53167e-17 0)
(-2.15067e-17 2.17095e-17 0)
(-6.61744e-18 8.21921e-18 0)
(-3.30872e-18 2.76114e-18 0)
(1.65436e-18 -4.39565e-19 0)
(-1.65436e-18 5.51776e-20 0)
(1.65436e-18 1.72071e-19 0)
(0 1.40394e-19 0)
(0 -5.90422e-19 0)
(0 -3.36794e-19 0)
(0 3.03736e-20 0)
(-1.65436e-18 1.05878e-18 0)
(0 1.98088e-19 0)
(0 -3.4681e-19 0)
(0 -7.51973e-19 0)
(1.65436e-18 -7.2089e-19 0)
(-1.65436e-18 1.25036e-18 0)
(-3.30872e-18 1.49298e-18 0)
(0 8.61304e-19 0)
(0 -4.72223e-19 0)
(-0.02 5.48559e-17 0)
(5.9557e-17 -5.87056e-17 0)
(-8.27181e-18 8.08994e-18 0)
(3.30872e-18 -3.99083e-18 0)
(1.65436e-18 -3.63753e-19 0)
(1.65436e-18 -1.96513e-18 0)
(0 -3.3044e-19 0)
(0 7.13034e-19 0)
(0 -1.21806e-19 0)
(0 -9.00796e-19 0)
(0 1.36689e-19 0)
(0 5.02206e-19 0)
(0 1.11725e-18 0)
(0 -1.4844e-19 0)
(0 4.47778e-20 0)
(0 -3.33993e-19 0)
(0 4.39275e-19 0)
(0 1.35792e-18 0)
(0 9.08743e-19 0)
(-1.65436e-18 7.91172e-19 0)
(-0.02 -3.2409e-17 0)
(-4.30134e-17 4.26279e-17 0)
(9.92617e-18 -1.03293e-17 0)
(-1.65436e-18 1.62384e-18 0)
(1.65436e-18 -7.82912e-20 0)
(-3.30872e-18 2.00148e-18 0)
(0 7.39174e-19 0)
(0 2.51819e-19 0)
(-1.65436e-18 2.05669e-18 0)
(-4.96308e-18 2.81992e-18 0)
(0 1.15029e-18 0)
(0 -1.88751e-18 0)
(3.30872e-18 -2.96662e-18 0)
(3.30872e-18 -2.68143e-18 0)
(1.65436e-18 -1.91966e-18 0)
(1.65436e-18 -4.70934e-19 0)
(0 -8.47105e-19 0)
(0 -1.07664e-20 0)
(0 1.88216e-19 0)
(0 1.41616e-20 0)
(-0.02 2.826e-17 0)
(2.31611e-17 -2.31172e-17 0)
(-4.96308e-18 3.32049e-18 0)
(3.30872e-18 -2.68304e-18 0)
(0 -2.89019e-21 0)
(1.65436e-18 -1.3244e-19 0)
(0 -1.76083e-19 0)
(0 -3.9753e-19 0)
(1.65436e-18 -1.89144e-18 0)
(3.30872e-18 -1.72695e-18 0)
(1.65436e-18 -1.88783e-18 0)
(-1.65436e-18 2.98421e-19 0)
(-1.65436e-18 4.08302e-19 0)
(0 1.04105e-18 0)
(-1.65436e-18 1.03263e-18 0)
(-1.65436e-18 1.37314e-18 0)
(0 2.81892e-19 0)
(1.65436e-18 -2.27201e-18 0)
(1.65436e-18 -9.38853e-19 0)
(0 -2.62052e-19 0)
(-0.02 -2.92492e-17 0)
(-3.30872e-17 3.1771e-17 0)
(1.65436e-18 -1.46267e-18 0)
(-3.30872e-18 2.79802e-18 0)
(1.65436e-18 -1.59298e-19 0)
(0 -8.09048e-19 0)
(1.65436e-18 -1.18035e-18 0)
(3.30872e-18 -1.78287e-18 0)
(1.65436e-18 -8.73599e-19 0)
(0 -8.83972e-19 0)
(0 -6.3292e-19 0)
(0 3.56179e-19 0)
(-1.65436e-18 2.26322e-18 0)
(0 1.09815e-18 0)
(0 3.04796e-19 0)
(0 -1.56382e-19 0)
(0 -5.73009e-19 0)
(0 5.16616e-19 0)
(-1.65436e-18 7.04235e-19 0)
(1.65436e-18 -6.08658e-19 0)
(-0.02 5.18697e-17 0)
(6.12114e-17 -6.11861e-17 0)
(-4.96308e-18 4.80492e-18 0)
(0 -1.21993e-18 0)
(-1.65436e-18 2.75383e-18 0)
(0 1.5163e-19 0)
(0 -1.15622e-19 0)
(0 -6.51195e-20 0)
(-1.65436e-18 1.53478e-18 0)
(-1.65436e-18 1.64839e-18 0)
(-3.30872e-18 1.96546e-18 0)
(0 4.60097e-19 0)
(1.65436e-18 -8.25964e-19 0)
(0 5.86737e-19 0)
(0 -2.33079e-19 0)
(1.65436e-18 -1.26067e-18 0)
(0 -8.94084e-19 0)
(0 -2.57999e-19 0)
(1.65436e-18 -3.22462e-19 0)
(-1.65436e-18 1.02662e-18 0)
(-0.02 -7.64529e-17 0)
(-7.11375e-17 7.27317e-17 0)
(0 2.54202e-19 0)
(-3.30872e-18 3.40789e-18 0)
(0 -7.79074e-19 0)
(-1.65436e-18 1.30823e-18 0)
(0 8.05579e-19 0)
(-1.65436e-18 1.92853e-18 0)
(0 -1.0703e-18 0)
(0 -2.08465e-19 0)
(1.65436e-18 -9.26819e-19 0)
(1.65436e-18 -6.58238e-19 0)
(1.65436e-18 -1.29725e-18 0)
(1.65436e-18 -1.89886e-18 0)
(0 -3.43626e-21 0)
(-1.65436e-18 2.02939e-18 0)
(-1.65436e-18 2.37933e-18 0)
(-1.65436e-18 4.15499e-20 0)
(1.65436e-18 -1.00374e-18 0)
(-1.65436e-18 1.59248e-18 0)
(-0.02 6.38397e-17 0)
(5.12852e-17 -5.13225e-17 0)
(6.61744e-18 -5.26849e-18 0)
(0 -2.64331e-18 0)
(0 -1.79416e-19 0)
(1.65436e-18 -1.23564e-18 0)
(1.65436e-18 -7.19371e-19 0)
(-1.65436e-18 -3.18991e-19 0)
(0 5.95277e-19 0)
(0 -5.95755e-19 0)
(0 6.68245e-19 0)
(0 -3.80034e-19 0)
(0 -3.49351e-19 0)
(0 4.17635e-19 0)
(0 -2.9248e-19 0)
(0 2.22195e-19 0)
(1.65436e-18 8.05638e-20 0)
(0 7.26421e-20 0)
(0 -7.92165e-19 0)
(3.30872e-18 -3.58136e-18 0)
(-0.02 -4.08212e-17 0)
(-2.97785e-17 2.95605e-17 0)
(-4.96308e-18 5.12842e-18 0)
(0 8.40074e-19 0)
(3.30872e-18 -3.26652e-18 0)
(0 -5.85943e-19 0)
(0 -2.81724e-20 0)
(0 -2.06169e-19 0)
(-1.65436e-18 1.38253e-18 0)
(-1.65436e-18 1.69163e-18 0)
(-3.30872e-18 2.34467e-18 0)
(-1.65436e-18 2.70253e-18 0)
(-4.96308e-18 2.36501e-18 0)
(0 7.59639e-19 0)
(1.65436e-18 -1.02026e-18 0)
(3.30872e-18 -4.12654e-18 0)
(1.65436e-18 -1.73145e-18 0)
(0 2.73123e-19 0)
(-1.65436e-18 4.47511e-19 0)
(0 4.73244e-19 0)
(-0.02 3.76376e-17 0)
(2.97785e-17 -3.14243e-17 0)
(1.65436e-18 -1.33021e-18 0)
(4.96308e-18 -3.13702e-18 0)
(-1.65436e-18 1.50738e-18 0)
(-1.65436e-18 1.05654e-18 0)
(-1.65436e-18 1.68392e-18 0)
(0 2.39044e-19 0)
(1.65436e-18 -1.40555e-18 0)
(0 -6.69672e-19 0)
(0 -9.81192e-19 0)
(1.65436e-18 -8.95641e-19 0)
(1.65436e-18 -2.59326e-18 0)
(1.65436e-18 -1.85836e-18 0)
(0 9.56723e-19 0)
(-1.65436e-18 1.877e-18 0)
(0 -1.21603e-18 0)
(0 -1.45204e-18 0)
(1.65436e-18 -4.22359e-19 0)
(-1.65436e-18 1.29446e-18 0)
(-0.02 -4.28203e-17 0)
(-5.62483e-17 5.64209e-17 0)
(1.15805e-17 -1.17843e-17 0)
(-3.30872e-18 3.39927e-18 0)
(0 -3.37161e-19 0)
(0 -6.8125e-20 0)
(-1.65436e-18 4.92813e-19 0)
(1.65436e-18 -1.15129e-18 0)
(1.65436e-18 -9.27406e-19 0)
(1.65436e-18 -3.94147e-19 0)
(0 -7.67278e-19 0)
(0 -3.78809e-19 0)
(-1.65436e-18 2.04621e-18 0)
(-1.65436e-18 1.52029e-18 0)
(1.65436e-18 -4.83077e-19 0)
(1.65436e-18 -1.92985e-18 0)
(1.65436e-18 -1.63003e-18 0)
(0 -1.1278e-18 0)
(0 8.08335e-19 0)
(0 -3.77936e-19 0)
(-0.02 4.66176e-17 0)
(6.45201e-17 -6.50257e-17 0)
(-1.65436e-17 1.77898e-17 0)
(0 -1.35424e-18 0)
(0 1.60624e-18 0)
(0 3.78854e-19 0)
(0 -4.64113e-19 0)
(-1.65436e-18 1.47518e-18 0)
(-1.65436e-18 1.72289e-18 0)
(0 -9.23227e-19 0)
(3.30872e-18 -3.00409e-18 0)
(0 -1.23617e-18 0)
(0 -3.95672e-19 0)
(0 -2.18427e-19 0)
(1.65436e-18 -6.0902e-19 0)
(-1.65436e-18 9.2028e-19 0)
(0 1.42883e-18 0)
(-1.65436e-18 1.9878e-18 0)
(0 7.68417e-19 0)
(0 6.54036e-20 0)
(-0.02 7.25008e-18 0)
(3.30872e-18 -2.87366e-18 0)
(-1.65436e-18 1.37212e-18 0)
(1.65436e-18 -1.69001e-18 0)
(0 -2.16714e-19 0)
(1.65436e-18 -1.46205e-18 0)
(1.65436e-18 -3.10071e-18 0)
(0 -6.67021e-19 0)
(1.65436e-18 -1.19398e-18 0)
(1.65436e-18 -1.50263e-18 0)
(0 6.13181e-19 0)
(0 3.07663e-19 0)
(0 5.24621e-19 0)
(0 -9.73062e-19 0)
(0 6.83149e-19 0)
(-1.65436e-18 1.05346e-18 0)
(0 1.23674e-19 0)
(-1.65436e-18 4.44146e-19 0)
(1.65436e-18 6.0736e-20 0)
(-1.65436e-18 1.14379e-18 0)
(-0.02 -6.46916e-17 0)
(-8.60268e-17 8.47729e-17 0)
(2.48154e-17 -2.47041e-17 0)
(-3.30872e-18 3.98604e-18 0)
(0 -5.91196e-19 0)
(0 1.24202e-18 0)
(-3.30872e-18 2.01375e-18 0)
(1.65436e-18 -1.4795e-18 0)
(1.65436e-18 -1.26941e-18 0)
(-1.65436e-18 1.29786e-18 0)
(-3.30872e-18 1.92595e-18 0)
(1.65436e-18 3.46183e-19 0)
(0 -8.99787e-19 0)
(-1.65436e-18 1.08619e-18 0)
(0 -5.81408e-19 0)
(1.65436e-18 -1.92194e-18 0)
(0 1.18024e-18 0)
(-1.65436e-18 2.86867e-19 0)
(1.65436e-18 -1.66291e-18 0)
(1.65436e-18 -2.07136e-18 0)
(-0.02 2.74293e-17 0)
(5.12852e-17 -5.22879e-17 0)
(-1.65436e-17 1.59294e-17 0)
(1.65436e-18 -1.63886e-18 0)
(0 5.44921e-19 0)
(0 -7.51696e-20 0)
(0 1.4813e-19 0)
(-1.65436e-18 1.38088e-18 0)
(-3.30872e-18 1.55672e-18 0)
(0 6.62719e-19 0)
(0 -2.59142e-19 0)
(0 2.02224e-19 0)
(0 3.66714e-19 0)
(0 2.17202e-19 0)
(-1.65436e-18 1.31021e-18 0)
(0 2.48698e-18 0)
(0 3.31973e-19 0)
(0 -4.16275e-19 0)
(-1.65436e-18 1.01726e-18 0)
(0 9.73775e-19 0)
)
;

boundaryField
{
    movingWall
    {
        type            extrapolatedCalculated;
        value           nonuniform List<vector> 
20
(
(-0.02 2.74293e-17 0)
(5.12852e-17 -5.22879e-17 0)
(-1.65436e-17 1.59294e-17 0)
(1.65436e-18 -1.63886e-18 0)
(0 5.44921e-19 0)
(0 -7.51696e-20 0)
(0 1.4813e-19 0)
(-1.65436e-18 1.38088e-18 0)
(-3.30872e-18 1.55672e-18 0)
(0 6.62719e-19 0)
(0 -2.59142e-19 0)
(0 2.02224e-19 0)
(0 3.66714e-19 0)
(0 2.17202e-19 0)
(-1.65436e-18 1.31021e-18 0)
(0 2.48698e-18 0)
(0 3.31973e-19 0)
(0 -4.16275e-19 0)
(-1.65436e-18 1.01726e-18 0)
(0 9.73775e-19 0)
)
;
    }
    fixedWalls
    {
        type            extrapolatedCalculated;
        value           nonuniform List<vector> 
60
(
(-0.02 7.69892e-17 0)
(-0.02 -1.26914e-16 0)
(-0.02 2.60253e-17 0)
(-0.02 4.25513e-17 0)
(-0.02 -1.46506e-17 0)
(-0.02 -3.53167e-17 0)
(-0.02 5.48559e-17 0)
(-0.02 -3.2409e-17 0)
(-0.02 2.826e-17 0)
(-0.02 -2.92492e-17 0)
(-0.02 5.18697e-17 0)
(-0.02 -7.64529e-17 0)
(-0.02 6.38397e-17 0)
(-0.02 -4.08212e-17 0)
(-0.02 3.76376e-17 0)
(-0.02 -4.28203e-17 0)
(-0.02 4.66176e-17 0)
(-0.02 7.25008e-18 0)
(-0.02 -6.46916e-17 0)
(-0.02 2.74293e-17 0)
(0 1.2951e-18 0)
(1.65436e-18 -3.1539e-18 0)
(0 3.65612e-19 0)
(0 1.57969e-19 0)
(-1.65436e-18 1.33371e-18 0)
(0 -4.72223e-19 0)
(-1.65436e-18 7.91172e-19 0)
(0 1.41616e-20 0)
(0 -2.62052e-19 0)
(1.65436e-18 -6.08658e-19 0)
(-1.65436e-18 1.02662e-18 0)
(-1.65436e-18 1.59248e-18 0)
(3.30872e-18 -3.58136e-18 0)
(0 4.73244e-19 0)
(-1.65436e-18 1.29446e-18 0)
(0 -3.77936e-19 0)
(0 6.54036e-20 0)
(-1.65436e-18 1.14379e-18 0)
(1.65436e-18 -2.07136e-18 0)
(0 9.73775e-19 0)
(-0.02 7.69892e-17 0)
(1.05879e-16 -1.06843e-16 0)
(-3.14329e-17 3.30663e-17 0)
(3.30872e-18 -4.17133e-18 0)
(-1.65436e-18 8.40185e-19 0)
(1.65436e-18 -8.14924e-19 0)
(0 -1.07899e-19 0)
(0 4.05647e-19 0)
(-1.65436e-18 8.64154e-19 0)
(0 5.72673e-19 0)
(-1.65436e-18 8.3954e-19 0)
(0 1.49194e-18 0)
(0 2.62275e-20 0)
(0 -1.33363e-18 0)
(1.65436e-18 -8.86853e-19 0)
(0 -4.49104e-19 0)
(0 5.15601e-19 0)
(0 9.1998e-20 0)
(-1.65436e-18 1.36819e-18 0)
(0 1.2951e-18 0)
)
;
    }
    frontAndBack
    {
        type            empty;
    }
}


// ************************************************************************* //
