/*--------------------------------*- C++ -*----------------------------------*\
| =========                 |                                                 |
| \\      /  F ield         | OpenFOAM: The Open Source CFD Toolbox           |
|  \\    /   O peration     | Version:  2312                                  |
|   \\  /    A nd           | Website:  www.openfoam.com                      |
|    \\/     M anipulation  |                                                 |
\*---------------------------------------------------------------------------*/
FoamFile
{
    version     2.0;
    format      ascii;
    arch        "LSB;label=32;scalar=64";
    class       volScalarField;
    location    "5.5";
    object      initialResidual:k;
}
// * * * * * * * * * * * * * * * * * * * * * * * * * * * * * * * * * * * * * //

dimensions      [0 0 0 0 0 0 0];

internalField   nonuniform List<scalar> 
400
(
-1.38514e-12
-1.38307e-12
-1.38512e-12
-1.38339e-12
-1.38421e-12
-1.38421e-12
-1.38405e-12
-1.38399e-12
-1.38446e-12
-1.38369e-12
-1.38463e-12
-1.38351e-12
-1.38472e-12
-1.38352e-12
-1.38463e-12
-1.38369e-12
-1.3844e-12
-1.38396e-12
-1.38414e-12
-1.38411e-12
-1.58683e-12
-1.60293e-12
-1.58029e-12
-1.5904e-12
-1.58769e-12
-1.5914e-12
-1.58702e-12
-1.59119e-12
-1.58673e-12
-1.59172e-12
-1.58611e-12
-1.59163e-12
-1.58608e-12
-1.58795e-12
-1.58858e-12
-1.58773e-12
-1.58883e-12
-1.5883e-12
-1.5884e-12
-1.58828e-12
-1.85009e-12
-1.87585e-12
-1.83862e-12
-1.85817e-12
-1.84943e-12
-1.85293e-12
-1.85458e-12
-1.85168e-12
-1.85399e-12
-1.85259e-12
-1.85366e-12
-1.85239e-12
-1.85334e-12
-1.85221e-12
-1.85313e-12
-1.85219e-12
-1.85297e-12
-1.85258e-12
-1.85272e-12
-1.8525e-12
-2.06501e-12
-2.08406e-12
-2.05754e-12
-2.07193e-12
-2.06492e-12
-2.06551e-12
-2.06931e-12
-2.0655e-12
-2.06768e-12
-2.06661e-12
-2.06751e-12
-2.06636e-12
-2.06726e-12
-2.06593e-12
-2.06695e-12
-2.06586e-12
-2.0667e-12
-2.06634e-12
-2.0665e-12
-2.06624e-12
-2.20402e-12
-2.22918e-12
-2.19202e-12
-2.20669e-12
-2.20556e-12
-2.20551e-12
-2.20717e-12
-2.20538e-12
-2.20677e-12
-2.20636e-12
-2.20546e-12
-2.20746e-12
-2.20407e-12
-2.20561e-12
-2.20485e-12
-2.20471e-12
-2.20534e-12
-2.20503e-12
-2.20509e-12
-2.205e-12
-2.28835e-12
-2.28982e-12
-2.28589e-12
-2.29415e-12
-2.28317e-12
-2.28934e-12
-2.28543e-12
-2.28739e-12
-2.28637e-12
-2.28733e-12
-2.28609e-12
-2.28624e-12
-2.28652e-12
-2.28513e-12
-2.28705e-12
-2.28518e-12
-2.28669e-12
-2.28584e-12
-2.28607e-12
-2.2858e-12
-2.32876e-12
-2.35837e-12
-2.31693e-12
-2.33986e-12
-2.32834e-12
-2.3295e-12
-2.33451e-12
-2.33169e-12
-2.33364e-12
-2.33151e-12
-2.33296e-12
-2.33123e-12
-2.33251e-12
-2.33107e-12
-2.33229e-12
-2.33103e-12
-2.3321e-12
-2.3315e-12
-2.3317e-12
-2.33136e-12
-2.35746e-12
-2.38258e-12
-2.34607e-12
-2.35777e-12
-2.36168e-12
-2.35784e-12
-2.36129e-12
-2.35849e-12
-2.36056e-12
-2.3585e-12
-2.35976e-12
-2.35832e-12
-2.35918e-12
-2.3584e-12
-2.35898e-12
-2.3575e-12
-2.35897e-12
-2.35821e-12
-2.35831e-12
-2.35818e-12
-2.37888e-12
-2.37926e-12
-2.37809e-12
-2.37855e-12
-2.37892e-12
-2.37616e-12
-2.37894e-12
-2.37591e-12
-2.3778e-12
-2.3762e-12
-2.37745e-12
-2.37594e-12
-2.37723e-12
-2.37559e-12
-2.37708e-12
-2.3754e-12
-2.37681e-12
-2.37598e-12
-2.37623e-12
-2.37594e-12
-2.39271e-12
-2.39222e-12
-2.39225e-12
-2.39336e-12
-2.39145e-12
-2.39053e-12
-2.39295e-12
-2.38965e-12
-2.39204e-12
-2.3898e-12
-2.39152e-12
-2.3896e-12
-2.39117e-12
-2.38941e-12
-2.39089e-12
-2.3894e-12
-2.3906e-12
-2.38993e-12
-2.39013e-12
-2.38979e-12
-2.40181e-12
-2.42972e-12
-2.38805e-12
-2.40182e-12
-2.40568e-12
-2.40267e-12
-2.40529e-12
-2.40227e-12
-2.40442e-12
-2.40258e-12
-2.40401e-12
-2.40252e-12
-2.40352e-12
-2.40316e-12
-2.40284e-12
-2.40196e-12
-2.40288e-12
-2.40238e-12
-2.40248e-12
-2.40235e-12
-2.41817e-12
-2.41557e-12
-2.42106e-12
-2.41658e-12
-2.41908e-12
-2.41573e-12
-2.41825e-12
-2.41538e-12
-2.41743e-12
-2.41467e-12
-2.41829e-12
-2.41264e-12
-2.4228e-12
-2.409e-12
-2.42094e-12
-2.41036e-12
-2.41683e-12
-2.41342e-12
-2.41494e-12
-2.41503e-12
-2.42913e-12
-2.44436e-12
-2.42355e-12
-2.43119e-12
-2.43006e-12
-2.42895e-12
-2.43123e-12
-2.43002e-12
-2.43049e-12
-2.42853e-12
-2.43066e-12
-2.42814e-12
-2.43021e-12
-2.42819e-12
-2.42982e-12
-2.42819e-12
-2.42947e-12
-2.42873e-12
-2.42897e-12
-2.42864e-12
-2.44119e-12
-2.47357e-12
-2.4271e-12
-2.45532e-12
-2.43834e-12
-2.44337e-12
-2.44584e-12
-2.44455e-12
-2.44586e-12
-2.44478e-12
-2.44499e-12
-2.44337e-12
-2.4453e-12
-2.44309e-12
-2.44509e-12
-2.44314e-12
-2.44474e-12
-2.44389e-12
-2.44412e-12
-2.44381e-12
-2.45819e-12
-2.49479e-12
-2.44122e-12
-2.47265e-12
-2.45397e-12
-2.46698e-12
-2.45988e-12
-2.45957e-12
-2.46404e-12
-2.46102e-12
-2.46303e-12
-2.46077e-12
-2.46219e-12
-2.46076e-12
-2.46201e-12
-2.46066e-12
-2.46184e-12
-2.46117e-12
-2.46141e-12
-2.46108e-12
-2.47652e-12
-2.52144e-12
-2.45533e-12
-2.49515e-12
-2.47006e-12
-2.49251e-12
-2.47358e-12
-2.48735e-12
-2.47861e-12
-2.47889e-12
-2.48273e-12
-2.48083e-12
-2.48246e-12
-2.48057e-12
-2.48217e-12
-2.48028e-12
-2.48183e-12
-2.48094e-12
-2.4812e-12
-2.4809e-12
-2.50139e-12
-2.5297e-12
-2.48907e-12
-2.51647e-12
-2.49591e-12
-2.50452e-12
-2.50499e-12
-2.50295e-12
-2.50601e-12
-2.50346e-12
-2.50521e-12
-2.50293e-12
-2.50469e-12
-2.50261e-12
-2.50425e-12
-2.50263e-12
-2.50384e-12
-2.50335e-12
-2.50354e-12
-2.50321e-12
-2.52986e-12
-2.52732e-12
-2.5313e-12
-2.52965e-12
-2.52941e-12
-2.52815e-12
-2.53044e-12
-2.52613e-12
-2.52937e-12
-2.52668e-12
-2.52977e-12
-2.52409e-12
-2.53063e-12
-2.52373e-12
-2.53069e-12
-2.52353e-12
-2.52795e-12
-2.52525e-12
-2.52649e-12
-2.52647e-12
-2.54413e-12
-2.57426e-12
-2.53335e-12
-2.55439e-12
-2.54502e-12
-2.54553e-12
-2.5508e-12
-2.54703e-12
-2.54938e-12
-2.5471e-12
-2.54859e-12
-2.54682e-12
-2.54797e-12
-2.54672e-12
-2.54785e-12
-2.54661e-12
-2.54763e-12
-2.54702e-12
-2.54727e-12
-2.54689e-12
-2.55957e-12
-2.55902e-12
-2.55871e-12
-2.56011e-12
-2.5582e-12
-2.56014e-12
-2.5581e-12
-2.56012e-12
-2.55823e-12
-2.55989e-12
-2.55854e-12
-2.55952e-12
-2.55891e-12
-2.55917e-12
-2.55907e-12
-2.55913e-12
-2.55914e-12
-2.55913e-12
-2.55913e-12
-2.55913e-12
)
;

boundaryField
{
    movingWall
    {
        type            zeroGradient;
    }
    fixedWalls
    {
        type            zeroGradient;
    }
    frontAndBack
    {
        type            empty;
    }
}


// ************************************************************************* //
