/*--------------------------------*- C++ -*----------------------------------*\
| =========                 |                                                 |
| \\      /  F ield         | OpenFOAM: The Open Source CFD Toolbox           |
|  \\    /   O peration     | Version:  2312                                  |
|   \\  /    A nd           | Website:  www.openfoam.com                      |
|    \\/     M anipulation  |                                                 |
\*---------------------------------------------------------------------------*/
FoamFile
{
    version     2.0;
    format      ascii;
    arch        "LSB;label=32;scalar=64";
    class       volScalarField;
    location    "5.5";
    object      initialResidual:p;
}
// * * * * * * * * * * * * * * * * * * * * * * * * * * * * * * * * * * * * * //

dimensions      [0 0 0 0 0 0 0];

internalField   nonuniform List<scalar> 
400
(
3.38811e-20
-1.1174e-20
4.96582e-21
-1.02321e-20
9.62278e-21
4.84784e-21
-2.39915e-21
-8.22321e-21
-8.62772e-21
6.24635e-21
4.31214e-22
3.46825e-21
1.26522e-21
1.25277e-20
-9.61218e-21
-1.44167e-20
7.46452e-21
-4.6179e-21
1.96154e-21
-1.01909e-26
4.06578e-20
-8.47913e-21
-1.84908e-20
4.78679e-21
-2.12967e-20
-1.72778e-21
7.63301e-21
-1.93542e-21
7.69268e-21
-7.30258e-21
4.22545e-21
-1.04214e-20
-2.85046e-21
-1.589e-20
1.25628e-20
8.38023e-22
1.14009e-21
-3.01241e-21
8.35114e-21
-6.7763e-21
6.77637e-21
1.34215e-21
-1.23277e-20
4.33224e-21
-9.02212e-21
-2.73231e-21
-3.46263e-21
1.0588e-20
-5.11422e-21
-8.21879e-21
9.12887e-21
9.03551e-22
-1.71022e-20
3.16092e-21
-4.58744e-21
7.32137e-21
-3.50339e-21
1.10205e-20
-1.09172e-20
-6.43317e-27
6.77594e-21
2.62455e-20
-5.73114e-21
-1.44125e-20
-2.05353e-20
-6.84513e-21
5.70429e-21
-1.23907e-20
1.28761e-20
-3.23735e-21
2.67042e-22
-2.72073e-21
1.61871e-20
3.11724e-21
7.65178e-22
4.12503e-21
-2.06079e-20
7.88717e-21
-4.89808e-21
-1.01445e-26
1.3553e-20
-1.81658e-20
-1.00271e-21
6.19935e-21
-6.11086e-22
-8.78042e-21
8.85481e-21
-2.01837e-20
2.47528e-21
-1.97063e-22
1.59167e-20
2.8073e-21
-1.77455e-20
1.78948e-20
1.0331e-20
8.21949e-21
1.48953e-20
-1.17433e-20
1.85004e-21
1.36984e-26
-6.7765e-21
-1.02682e-20
1.59838e-20
-1.16098e-20
5.7359e-23
1.16073e-20
2.8277e-21
-4.92855e-21
1.20397e-20
5.55863e-21
4.63452e-22
-4.95826e-21
-5.94316e-21
-5.20516e-21
3.51461e-21
-1.08802e-21
4.86733e-21
-1.67577e-20
8.99701e-21
6.77626e-21
-6.77623e-21
2.77183e-21
2.01094e-20
-7.34996e-21
6.20912e-22
1.85378e-22
2.59769e-21
9.62048e-21
5.30636e-21
-1.12771e-20
-3.86601e-21
5.08292e-21
-1.45175e-20
2.1711e-21
1.74896e-20
-1.46532e-21
-6.30045e-21
-1.66094e-21
2.58675e-21
-6.77625e-21
2.03289e-20
-1.89637e-20
2.29285e-20
-5.26342e-21
-2.04964e-20
6.1479e-21
1.54298e-21
-1.07575e-20
2.27315e-20
-5.17623e-21
4.76049e-21
-4.28789e-21
1.96382e-20
1.04363e-20
6.4334e-21
8.5252e-22
-6.20759e-21
-1.38299e-20
3.24695e-21
-5.54239e-28
1.35527e-20
-5.04401e-21
-4.03281e-21
-1.363e-20
1.58094e-20
1.1971e-20
-2.04165e-21
4.21678e-21
8.76059e-21
-5.90471e-21
-6.62974e-21
6.88363e-22
9.92099e-21
5.33595e-21
-2.41903e-22
-9.31188e-21
-3.51722e-21
-3.20058e-21
1.75384e-21
-6.77625e-21
-2.15057e-26
-7.70833e-21
-1.11206e-20
1.02194e-20
4.6913e-21
-1.25881e-21
-3.95157e-21
-4.66404e-21
-3.00263e-21
-2.85807e-21
1.68396e-20
4.94414e-21
1.33293e-20
4.74224e-21
-2.33829e-20
-5.39023e-21
4.16648e-22
-1.93075e-20
8.63851e-21
6.77627e-21
1.35527e-20
5.68252e-21
6.63959e-21
-5.16943e-21
-2.44197e-22
-4.5093e-21
-7.46867e-22
-1.22695e-20
4.48394e-21
-7.15777e-21
2.03516e-20
2.8315e-20
4.55409e-21
-2.07085e-20
-1.64516e-21
-8.66498e-22
-2.84327e-20
-1.49037e-21
7.96559e-21
2.13084e-26
-2.71053e-20
1.46758e-20
6.69084e-21
-1.37041e-20
6.76226e-22
3.55241e-21
3.88699e-21
9.35117e-21
8.97956e-21
8.38681e-21
-1.48384e-20
-8.21965e-21
-1.21808e-20
1.73712e-20
-4.35175e-21
-5.03289e-21
-1.60171e-20
4.62569e-21
5.45733e-21
-1.35525e-20
2.03292e-20
1.48464e-20
1.36695e-20
6.09286e-21
-1.83295e-20
-1.84015e-20
-3.10656e-21
-3.20531e-21
1.55591e-20
-8.45458e-21
-7.92404e-21
-6.78503e-22
1.77908e-21
-3.72108e-21
-6.70592e-21
-1.56107e-21
7.11474e-21
-7.33442e-21
8.48946e-21
6.77627e-21
6.7761e-21
-1.25457e-20
1.40374e-20
-1.08445e-20
-6.05878e-21
1.76029e-20
-2.902e-20
6.1049e-21
4.59017e-21
-9.52093e-21
8.90612e-21
1.65019e-20
-9.04612e-21
-1.71082e-20
1.58238e-21
-2.56171e-21
1.85092e-21
8.51855e-21
-1.65181e-21
-6.77625e-21
-6.77604e-21
1.70633e-20
-1.3774e-21
-3.64198e-21
-9.49008e-21
5.42829e-21
1.59163e-22
-3.93003e-21
-5.97385e-21
-4.4763e-21
7.03011e-21
-5.70363e-21
-1.01155e-20
-7.40603e-21
-9.22831e-21
4.98637e-21
-1.05974e-21
-6.11261e-21
1.24896e-20
3.09074e-26
1.59019e-25
-2.31949e-21
-2.60249e-20
3.1438e-21
1.2324e-20
-9.94492e-22
-2.27189e-21
2.58485e-21
2.52572e-21
5.34034e-21
-9.74932e-21
6.8645e-21
1.61797e-20
8.03936e-21
-6.82545e-21
-5.12353e-21
1.1813e-20
-5.87533e-21
-1.09995e-20
2.02627e-26
-6.7764e-21
-7.56401e-21
-4.33093e-21
-1.16694e-20
-1.04279e-20
1.18305e-20
-1.43323e-21
3.01751e-21
-1.19754e-20
4.03777e-22
3.55824e-20
-5.1872e-21
5.95465e-21
1.90711e-21
1.07252e-21
-1.05486e-20
1.34384e-21
-2.64756e-21
1.63089e-21
2.304e-26
1.35527e-20
-9.67053e-21
-7.19861e-21
7.11994e-21
-1.48188e-20
-2.27899e-20
-2.05099e-21
1.89462e-20
4.39818e-21
2.03998e-21
2.51644e-21
-1.04049e-20
9.08127e-21
1.13174e-20
3.51211e-21
5.84592e-21
-5.64675e-21
-1.20721e-20
-1.18513e-21
-6.77624e-21
-3.38811e-20
1.19969e-20
-8.40163e-21
2.89727e-22
6.29128e-21
-1.63022e-20
6.27508e-21
9.13041e-21
-1.01895e-20
-3.07973e-21
1.67979e-20
8.12974e-21
-1.31348e-20
6.86172e-21
2.89793e-20
-9.56577e-23
-2.1476e-20
-2.16842e-21
-4.86018e-21
1.54113e-26
-2.0329e-20
1.35528e-20
1.35525e-20
-1.35525e-20
6.77627e-21
1.35526e-20
6.77629e-21
-1.35525e-20
1.45328e-26
1.38986e-26
-1.35525e-20
2.0524e-26
5.97915e-27
1.22715e-26
1.16148e-26
-6.77625e-21
1.35525e-20
-6.77627e-21
1.5411e-26
6.77628e-21
)
;

boundaryField
{
    movingWall
    {
        type            zeroGradient;
    }
    fixedWalls
    {
        type            zeroGradient;
    }
    frontAndBack
    {
        type            empty;
    }
}


// ************************************************************************* //
