/*--------------------------------*- C++ -*----------------------------------*\
| =========                 |                                                 |
| \\      /  F ield         | OpenFOAM: The Open Source CFD Toolbox           |
|  \\    /   O peration     | Version:  2312                                  |
|   \\  /    A nd           | Website:  www.openfoam.com                      |
|    \\/     M anipulation  |                                                 |
\*---------------------------------------------------------------------------*/
FoamFile
{
    version     2.0;
    format      ascii;
    arch        "LSB;label=32;scalar=64";
    class       volScalarField;
    location    "5.5";
    object      initialResidual:Uy;
}
// * * * * * * * * * * * * * * * * * * * * * * * * * * * * * * * * * * * * * //

dimensions      [0 0 0 0 0 0 0];

internalField   nonuniform List<scalar> 
400
(
5.3542e-20
-2.20735e-20
7.93292e-21
3.46858e-21
2.98026e-21
-1.66404e-21
-1.42813e-21
-1.49259e-21
-2.4193e-21
-6.23427e-22
8.87875e-22
3.03731e-21
2.73762e-21
-1.01842e-21
-4.39191e-21
7.3087e-22
-1.13937e-21
7.76172e-22
3.00835e-21
1.56597e-21
2.43829e-20
-1.10773e-20
2.27294e-21
3.66932e-21
7.42765e-21
2.91118e-21
-1.82893e-21
-3.78851e-21
-9.79054e-22
-1.25637e-21
-1.50923e-21
1.51053e-21
1.15092e-21
-1.04162e-21
-2.94759e-21
-3.48991e-22
-2.65803e-21
4.8566e-21
3.115e-21
4.18394e-22
-2.51531e-20
7.25167e-21
-3.6244e-21
4.97033e-21
8.88802e-21
1.07029e-20
3.80866e-21
5.35849e-22
5.41177e-21
3.0879e-21
-2.48625e-21
-6.6217e-21
-6.21687e-21
-6.16214e-21
-6.67797e-21
-1.30971e-21
2.88262e-21
7.98387e-21
3.19198e-21
-7.97431e-22
3.46858e-20
-3.54901e-21
2.20127e-21
1.32874e-21
3.89643e-22
6.77575e-22
2.30494e-21
7.27549e-21
3.11703e-21
-2.75018e-22
-8.5381e-21
-8.9145e-21
-5.11164e-22
1.38551e-21
-5.33853e-21
-4.27818e-21
1.43931e-21
2.18976e-21
4.17655e-21
2.05982e-21
3.72181e-20
-8.67932e-21
-1.75135e-22
-3.92211e-21
-3.54935e-22
-1.43834e-22
-3.52082e-21
-3.42323e-21
-4.14776e-21
-1.1322e-21
-4.39726e-21
-3.00105e-21
3.92125e-21
9.47694e-21
6.72932e-21
-3.35833e-21
-3.41186e-21
-9.21767e-22
3.52381e-21
1.91417e-21
-4.10359e-20
2.16933e-20
3.67737e-22
4.5668e-21
2.82938e-21
2.4054e-21
-7.15881e-21
-1.19274e-20
-4.5852e-21
-1.2664e-21
1.99496e-21
3.42479e-21
6.66812e-22
1.07334e-21
5.05111e-21
5.59438e-21
2.61479e-21
3.52487e-21
5.03776e-21
-1.26042e-21
4.08312e-20
-1.21197e-20
2.95265e-21
1.14671e-22
3.58505e-22
-1.67741e-21
2.35417e-21
-8.36653e-22
-1.65881e-21
-6.16543e-21
-2.20014e-21
2.11067e-21
-3.11934e-21
-6.84039e-22
1.21505e-21
4.85381e-21
9.0617e-21
7.21092e-21
4.26848e-21
-1.6216e-21
1.47603e-20
-7.32516e-21
2.46115e-21
8.4576e-22
-3.16034e-22
-4.35312e-21
2.48719e-21
7.20435e-21
2.97423e-21
3.36564e-23
-4.65077e-21
-6.18109e-21
-5.17401e-21
5.78727e-22
2.30281e-21
5.57563e-21
1.1082e-20
9.49076e-21
6.0791e-21
9.52551e-22
-1.89238e-20
1.42385e-20
2.40216e-21
1.3713e-21
4.27319e-22
1.50385e-21
1.02358e-21
6.23895e-21
4.60759e-21
4.56016e-21
-1.14078e-21
-7.8588e-21
-3.37919e-21
1.84394e-21
7.81372e-21
8.42829e-21
5.70178e-21
7.33037e-21
4.6373e-21
1.11393e-21
4.31301e-20
-1.94829e-20
4.42599e-21
-3.9405e-21
2.40933e-21
1.00286e-20
7.19883e-21
2.81985e-21
1.84345e-21
1.06173e-21
2.94693e-22
8.93801e-22
6.29053e-21
7.35248e-21
1.06694e-20
3.41649e-21
-2.57739e-22
2.1277e-21
2.64916e-21
2.15398e-22
-3.9568e-20
1.60388e-20
3.43288e-21
7.41764e-21
5.64988e-21
3.99228e-21
-2.00774e-21
-1.68501e-21
2.75938e-21
7.27941e-21
6.40093e-21
1.21475e-20
1.04694e-20
1.82295e-21
-9.09071e-22
-9.76823e-22
-1.31726e-21
1.66389e-22
3.63985e-21
1.04849e-21
3.25071e-20
-5.10574e-21
5.30971e-21
1.00795e-20
1.38611e-20
5.81909e-21
7.02028e-22
1.64287e-22
5.33165e-21
6.77138e-21
3.05205e-21
2.30816e-21
1.36218e-21
1.4312e-21
-7.14177e-22
3.23407e-21
-9.25119e-22
-4.58606e-21
-1.0918e-21
3.18449e-22
8.06906e-21
1.79388e-20
7.60592e-21
1.01465e-20
7.46699e-21
2.14033e-21
3.98049e-21
3.1528e-21
2.71234e-21
-2.87983e-21
-4.81011e-21
-5.6414e-21
1.55562e-21
9.04736e-21
6.31437e-21
2.85382e-21
-2.4455e-21
-5.92174e-21
1.681e-21
-1.99077e-23
-1.08329e-20
2.79357e-20
8.49261e-21
5.30292e-21
-3.75075e-21
-1.18014e-21
5.49317e-21
9.06813e-21
5.4344e-21
3.10333e-21
3.64148e-21
-1.99728e-21
2.58413e-21
9.24493e-22
-6.77208e-21
-6.26982e-21
2.52599e-21
3.64221e-21
3.07368e-22
-1.30464e-21
5.63011e-20
-1.01834e-20
1.37918e-20
2.1538e-21
1.19716e-21
4.83968e-21
7.42848e-21
5.66234e-21
2.63027e-21
8.35832e-21
7.81431e-21
-6.14772e-21
-1.00707e-20
-7.49697e-21
-5.01773e-21
-4.36689e-21
1.83452e-21
3.24186e-21
-4.54267e-21
-1.13664e-21
-8.89424e-21
1.45657e-20
5.70786e-23
1.97741e-21
3.87128e-21
6.49341e-21
8.39611e-21
2.42302e-21
7.20703e-22
4.65713e-22
2.77183e-21
1.24689e-21
-1.02919e-20
-8.27373e-21
-3.12035e-21
-5.73923e-21
-6.46283e-21
-5.71998e-22
3.20754e-21
1.04802e-21
1.65171e-20
7.27363e-22
3.14098e-22
7.77022e-22
3.4145e-21
7.6802e-21
7.97552e-21
4.19025e-21
7.10081e-21
-1.70588e-21
-4.90106e-21
4.94369e-21
1.96835e-21
-5.1438e-21
-1.13273e-20
-9.3469e-21
-2.70795e-21
3.87711e-21
5.61185e-21
-1.01046e-21
3.6238e-20
-1.3246e-20
4.8379e-21
1.50891e-21
1.70045e-21
-2.74574e-22
-1.03074e-21
5.30585e-21
3.87826e-21
4.13004e-22
1.16342e-21
5.08984e-21
6.15572e-21
-2.17355e-21
-7.59782e-21
-6.27402e-21
8.26032e-22
8.45542e-21
8.67672e-22
-3.58187e-21
-1.50205e-20
9.6707e-21
-5.95369e-21
9.73615e-22
-3.88283e-22
-6.35534e-21
-7.09077e-21
5.30533e-21
4.65175e-21
3.05768e-21
5.44447e-21
4.21447e-21
3.84525e-21
-1.59636e-21
9.41311e-22
-1.09002e-21
-8.3448e-23
1.26831e-21
-5.55676e-21
-2.2511e-21
-1.20952e-20
8.82788e-21
-1.79241e-21
2.1002e-21
1.30095e-21
-1.51214e-21
-4.02226e-21
-7.40494e-22
3.89742e-21
4.58308e-21
2.33275e-21
-2.46447e-22
-5.56165e-22
-1.08151e-21
3.17496e-21
1.56963e-21
1.14884e-22
-4.20178e-21
-4.79318e-21
-3.08415e-23
)
;

boundaryField
{
    movingWall
    {
        type            zeroGradient;
    }
    fixedWalls
    {
        type            zeroGradient;
    }
    frontAndBack
    {
        type            empty;
    }
}


// ************************************************************************* //
