/*--------------------------------*- C++ -*----------------------------------*\
| =========                 |                                                 |
| \\      /  F ield         | OpenFOAM: The Open Source CFD Toolbox           |
|  \\    /   O peration     | Version:  2312                                  |
|   \\  /    A nd           | Website:  www.openfoam.com                      |
|    \\/     M anipulation  |                                                 |
\*---------------------------------------------------------------------------*/
FoamFile
{
    version     2.0;
    format      ascii;
    arch        "LSB;label=32;scalar=64";
    class       volScalarField;
    location    "5.5";
    object      initialResidual:epsilon;
}
// * * * * * * * * * * * * * * * * * * * * * * * * * * * * * * * * * * * * * //

dimensions      [0 0 0 0 0 0 0];

internalField   nonuniform List<scalar> 
400
(
0
0
0
0
0
0
0
0
0
0
0
0
0
0
0
0
0
0
0
0
0
-1.2906e-12
-1.29078e-12
-1.29141e-12
-1.29348e-12
-1.29564e-12
-1.29699e-12
-1.29933e-12
-1.30069e-12
-1.30312e-12
-1.30439e-12
-1.30693e-12
-1.30823e-12
-1.31066e-12
-1.31231e-12
-1.31431e-12
-1.31661e-12
-1.3179e-12
-2.63651e-12
0
0
-1.56471e-12
-1.56501e-12
-1.56584e-12
-1.56853e-12
-1.5714e-12
-1.57305e-12
-1.57619e-12
-1.57782e-12
-1.58106e-12
-1.58258e-12
-1.58597e-12
-1.5875e-12
-1.59072e-12
-1.59274e-12
-1.59534e-12
-1.59826e-12
-1.59984e-12
-3.20345e-12
0
0
-1.80371e-12
-1.80442e-12
-1.80539e-12
-1.80858e-12
-1.81199e-12
-1.814e-12
-1.81771e-12
-1.81971e-12
-1.82355e-12
-1.82541e-12
-1.82943e-12
-1.83131e-12
-1.83513e-12
-1.83758e-12
-1.84069e-12
-1.84418e-12
-1.84611e-12
-3.69653e-12
0
0
-1.96743e-12
-1.96819e-12
-1.96931e-12
-1.97291e-12
-1.97668e-12
-1.97898e-12
-1.98309e-12
-1.98538e-12
-1.98964e-12
-1.99177e-12
-1.99622e-12
-1.99837e-12
-2.00261e-12
-2.00539e-12
-2.00884e-12
-2.01278e-12
-2.01494e-12
-4.03468e-12
0
0
-2.06656e-12
-2.06718e-12
-2.06848e-12
-2.07235e-12
-2.07635e-12
-2.07883e-12
-2.08318e-12
-2.08565e-12
-2.09015e-12
-2.09246e-12
-2.09718e-12
-2.09949e-12
-2.10401e-12
-2.10698e-12
-2.11067e-12
-2.11485e-12
-2.11719e-12
-4.23949e-12
0
0
-2.12361e-12
-2.12458e-12
-2.12583e-12
-2.12982e-12
-2.13395e-12
-2.13651e-12
-2.14103e-12
-2.14359e-12
-2.14826e-12
-2.15064e-12
-2.15555e-12
-2.15794e-12
-2.16263e-12
-2.1657e-12
-2.16954e-12
-2.17387e-12
-2.1763e-12
-4.35791e-12
0
0
-2.15763e-12
-2.15867e-12
-2.15993e-12
-2.16399e-12
-2.16822e-12
-2.17084e-12
-2.17545e-12
-2.17807e-12
-2.18284e-12
-2.18527e-12
-2.19027e-12
-2.19272e-12
-2.1975e-12
-2.20066e-12
-2.20455e-12
-2.20899e-12
-2.21147e-12
-4.42838e-12
0
0
-2.18039e-12
-2.18099e-12
-2.18244e-12
-2.1866e-12
-2.19087e-12
-2.19354e-12
-2.19819e-12
-2.20085e-12
-2.20567e-12
-2.20816e-12
-2.21321e-12
-2.21572e-12
-2.22054e-12
-2.22375e-12
-2.2277e-12
-2.23219e-12
-2.23471e-12
-4.47494e-12
0
0
-2.1977e-12
-2.1984e-12
-2.19984e-12
-2.20403e-12
-2.20834e-12
-2.21105e-12
-2.21574e-12
-2.21844e-12
-2.2233e-12
-2.22582e-12
-2.23092e-12
-2.23345e-12
-2.23833e-12
-2.24157e-12
-2.24556e-12
-2.2501e-12
-2.25264e-12
-4.51086e-12
0
0
-2.21298e-12
-2.21426e-12
-2.21552e-12
-2.21969e-12
-2.22405e-12
-2.22678e-12
-2.23151e-12
-2.23424e-12
-2.23914e-12
-2.24169e-12
-2.24682e-12
-2.24939e-12
-2.25429e-12
-2.25759e-12
-2.26159e-12
-2.26619e-12
-2.26875e-12
-4.54312e-12
0
0
-2.22874e-12
-2.22983e-12
-2.23121e-12
-2.23541e-12
-2.23981e-12
-2.24256e-12
-2.24734e-12
-2.2501e-12
-2.25501e-12
-2.25761e-12
-2.26277e-12
-2.26535e-12
-2.27034e-12
-2.2736e-12
-2.27771e-12
-2.28228e-12
-2.28492e-12
-4.57547e-12
0
0
-2.2454e-12
-2.24672e-12
-2.24802e-12
-2.25226e-12
-2.25669e-12
-2.25948e-12
-2.26428e-12
-2.26708e-12
-2.27205e-12
-2.27466e-12
-2.27988e-12
-2.2825e-12
-2.2875e-12
-2.29083e-12
-2.29494e-12
-2.29959e-12
-2.30223e-12
-4.61015e-12
0
0
-2.26429e-12
-2.26529e-12
-2.26669e-12
-2.27106e-12
-2.2755e-12
-2.27832e-12
-2.28317e-12
-2.28601e-12
-2.29101e-12
-2.29367e-12
-2.29892e-12
-2.30159e-12
-2.30662e-12
-2.31001e-12
-2.31414e-12
-2.31886e-12
-2.32151e-12
-4.64877e-12
0
0
-2.28562e-12
-2.28655e-12
-2.28799e-12
-2.29242e-12
-2.2969e-12
-2.29979e-12
-2.30467e-12
-2.30754e-12
-2.31261e-12
-2.3153e-12
-2.32061e-12
-2.32331e-12
-2.32839e-12
-2.33183e-12
-2.33601e-12
-2.34078e-12
-2.34347e-12
-4.69274e-12
0
0
-2.31001e-12
-2.31095e-12
-2.3124e-12
-2.31691e-12
-2.32142e-12
-2.32437e-12
-2.3293e-12
-2.33223e-12
-2.33736e-12
-2.34007e-12
-2.34546e-12
-2.3482e-12
-2.35335e-12
-2.35683e-12
-2.36107e-12
-2.3659e-12
-2.36863e-12
-4.74312e-12
0
0
-2.33726e-12
-2.33832e-12
-2.33979e-12
-2.34434e-12
-2.34892e-12
-2.3519e-12
-2.35692e-12
-2.35989e-12
-2.36508e-12
-2.36786e-12
-2.3733e-12
-2.3761e-12
-2.38132e-12
-2.38485e-12
-2.38914e-12
-2.39405e-12
-2.39681e-12
-4.79957e-12
0
0
-2.36546e-12
-2.36676e-12
-2.36824e-12
-2.37279e-12
-2.37744e-12
-2.3805e-12
-2.38554e-12
-2.38859e-12
-2.39381e-12
-2.39669e-12
-2.40215e-12
-2.40503e-12
-2.4103e-12
-2.4139e-12
-2.41826e-12
-2.42322e-12
-2.42607e-12
-4.85808e-12
0
0
-2.39766e-12
-2.39877e-12
-2.39996e-12
-2.4043e-12
-2.40926e-12
-2.41177e-12
-2.41725e-12
-2.41973e-12
-2.42545e-12
-2.4277e-12
-2.43374e-12
-2.43602e-12
-2.44178e-12
-2.44497e-12
-2.44964e-12
-2.45447e-12
-2.45734e-12
-4.91496e-12
0
0
0
0
0
0
0
0
0
0
0
0
0
0
0
0
0
0
0
0
0
)
;

boundaryField
{
    movingWall
    {
        type            zeroGradient;
    }
    fixedWalls
    {
        type            zeroGradient;
    }
    frontAndBack
    {
        type            empty;
    }
}


// ************************************************************************* //
