/*--------------------------------*- C++ -*----------------------------------*\
| =========                 |                                                 |
| \\      /  F ield         | OpenFOAM: The Open Source CFD Toolbox           |
|  \\    /   O peration     | Version:  2312                                  |
|   \\  /    A nd           | Website:  www.openfoam.com                      |
|    \\/     M anipulation  |                                                 |
\*---------------------------------------------------------------------------*/
FoamFile
{
    version     2.0;
    format      ascii;
    arch        "LSB;label=32;scalar=64";
    class       volScalarField;
    location    "5.5";
    object      L_P;
}
// * * * * * * * * * * * * * * * * * * * * * * * * * * * * * * * * * * * * * //

dimensions      [0 0 0 0 0 0 0];

internalField   nonuniform List<scalar> 
400
(
-185.291
-185.291
-185.291
-185.291
-185.291
-185.291
-185.291
-185.291
-185.291
-185.291
-185.291
-185.291
-185.291
-185.291
-185.291
-185.291
-185.291
-185.291
-185.291
-185.291
-184.158
-184.247
-184.24
-184.238
-184.232
-184.229
-184.224
-184.221
-184.215
-184.212
-184.206
-184.203
-184.197
-184.194
-184.188
-184.184
-184.178
-184.174
-184.171
-184.166
-182.714
-182.808
-182.801
-182.799
-182.793
-182.79
-182.784
-182.781
-182.775
-182.772
-182.766
-182.762
-182.756
-182.752
-182.746
-182.742
-182.736
-182.732
-182.729
-182.724
-181.539
-181.637
-181.63
-181.627
-181.621
-181.618
-181.612
-181.609
-181.603
-181.599
-181.593
-181.589
-181.583
-181.579
-181.573
-181.569
-181.562
-181.558
-181.555
-181.55
-180.758
-180.859
-180.852
-180.849
-180.843
-180.84
-180.833
-180.83
-180.824
-180.82
-180.814
-180.81
-180.804
-180.8
-180.793
-180.789
-180.783
-180.778
-180.775
-180.77
-180.289
-180.392
-180.384
-180.381
-180.375
-180.372
-180.366
-180.362
-180.356
-180.352
-180.346
-180.342
-180.336
-180.332
-180.325
-180.321
-180.314
-180.31
-180.306
-180.301
-180.018
-180.121
-180.114
-180.111
-180.105
-180.102
-180.095
-180.092
-180.085
-180.082
-180.075
-180.072
-180.065
-180.061
-180.054
-180.05
-180.043
-180.039
-180.036
-180.03
-179.858
-179.962
-179.955
-179.952
-179.945
-179.942
-179.936
-179.932
-179.926
-179.922
-179.916
-179.912
-179.905
-179.901
-179.895
-179.891
-179.884
-179.879
-179.876
-179.87
-179.756
-179.86
-179.853
-179.85
-179.843
-179.84
-179.834
-179.83
-179.824
-179.82
-179.814
-179.81
-179.803
-179.799
-179.792
-179.788
-179.781
-179.777
-179.774
-179.768
-179.68
-179.784
-179.777
-179.774
-179.768
-179.765
-179.758
-179.755
-179.748
-179.745
-179.738
-179.734
-179.728
-179.724
-179.717
-179.713
-179.706
-179.701
-179.698
-179.692
-179.615
-179.719
-179.712
-179.709
-179.703
-179.699
-179.693
-179.69
-179.683
-179.68
-179.673
-179.669
-179.662
-179.658
-179.652
-179.647
-179.641
-179.636
-179.633
-179.627
-179.552
-179.656
-179.649
-179.646
-179.639
-179.636
-179.63
-179.626
-179.62
-179.616
-179.61
-179.606
-179.599
-179.595
-179.588
-179.584
-179.577
-179.573
-179.569
-179.564
-179.485
-179.59
-179.582
-179.579
-179.573
-179.57
-179.563
-179.56
-179.553
-179.55
-179.543
-179.539
-179.532
-179.528
-179.522
-179.517
-179.51
-179.506
-179.503
-179.497
-179.412
-179.517
-179.509
-179.506
-179.5
-179.496
-179.49
-179.487
-179.48
-179.476
-179.47
-179.466
-179.459
-179.455
-179.448
-179.444
-179.437
-179.433
-179.429
-179.424
-179.329
-179.435
-179.427
-179.424
-179.418
-179.415
-179.408
-179.405
-179.398
-179.395
-179.388
-179.384
-179.377
-179.373
-179.366
-179.362
-179.355
-179.351
-179.347
-179.342
-179.238
-179.343
-179.336
-179.333
-179.326
-179.323
-179.316
-179.313
-179.306
-179.303
-179.296
-179.292
-179.286
-179.282
-179.275
-179.27
-179.263
-179.259
-179.256
-179.25
-179.138
-179.244
-179.236
-179.233
-179.227
-179.224
-179.217
-179.214
-179.207
-179.204
-179.197
-179.193
-179.186
-179.182
-179.175
-179.171
-179.164
-179.16
-179.156
-179.15
-179.039
-179.145
-179.138
-179.134
-179.128
-179.125
-179.118
-179.115
-179.108
-179.105
-179.098
-179.094
-179.087
-179.083
-179.076
-179.072
-179.065
-179.061
-179.057
-179.051
-178.956
-179.06
-179.053
-179.05
-179.044
-179.041
-179.034
-179.031
-179.024
-179.021
-179.014
-179.01
-179.004
-179
-178.993
-178.989
-178.982
-178.977
-178.974
-178.968
-178.919
-178.919
-178.919
-178.919
-178.919
-178.919
-178.919
-178.919
-178.919
-178.919
-178.92
-178.92
-178.92
-178.92
-178.92
-178.92
-178.92
-178.92
-178.92
-178.92
)
;

boundaryField
{
    movingWall
    {
        type            calculated;
        value           nonuniform List<scalar> 
20
(
-178.919
-178.919
-178.919
-178.919
-178.919
-178.919
-178.919
-178.919
-178.919
-178.919
-178.92
-178.92
-178.92
-178.92
-178.92
-178.92
-178.92
-178.92
-178.92
-178.92
)
;
    }
    fixedWalls
    {
        type            calculated;
        value           nonuniform List<scalar> 
60
(
-185.291
-184.158
-182.714
-181.539
-180.758
-180.289
-180.018
-179.858
-179.756
-179.68
-179.615
-179.552
-179.485
-179.412
-179.329
-179.238
-179.138
-179.039
-178.956
-178.919
-185.291
-184.166
-182.724
-181.55
-180.77
-180.301
-180.03
-179.87
-179.768
-179.692
-179.627
-179.564
-179.497
-179.424
-179.342
-179.25
-179.15
-179.051
-178.968
-178.92
-185.291
-185.291
-185.291
-185.291
-185.291
-185.291
-185.291
-185.291
-185.291
-185.291
-185.291
-185.291
-185.291
-185.291
-185.291
-185.291
-185.291
-185.291
-185.291
-185.291
)
;
    }
    frontAndBack
    {
        type            empty;
    }
}


// ************************************************************************* //
