/*--------------------------------*- C++ -*----------------------------------*\
| =========                 |                                                 |
| \\      /  F ield         | OpenFOAM: The Open Source CFD Toolbox           |
|  \\    /   O peration     | Version:  2312                                  |
|   \\  /    A nd           | Website:  www.openfoam.com                      |
|    \\/     M anipulation  |                                                 |
\*---------------------------------------------------------------------------*/
FoamFile
{
    version     2.0;
    format      ascii;
    arch        "LSB;label=32;scalar=64";
    class       volScalarField;
    location    "5.5";
    object      Lambda2Field;
}
// * * * * * * * * * * * * * * * * * * * * * * * * * * * * * * * * * * * * * //

dimensions      [0 0 -2 0 0 0 0];

internalField   nonuniform List<scalar> 
400
(
6.25601e-24
2.73787e-24
1.60345e-25
-5.88311e-27
6.71868e-27
-4.20146e-28
0
0
2.79701e-28
1.78851e-28
0
8.37943e-28
1.01209e-27
9.04951e-28
2.95535e-28
0
9.3889e-29
1.07968e-28
1.05056e-27
0
1.20529e-24
3.20028e-24
1.89474e-25
0
0
8.57351e-28
1.49058e-28
3.77123e-29
5.03393e-28
5.0939e-28
0
-5.74934e-28
0
3.6233e-30
2.58424e-28
-7.46364e-28
3.52806e-28
1.34267e-28
7.34684e-28
4.01149e-28
1.74502e-23
7.35657e-24
0
-2.18165e-26
6.67807e-27
0
5.0296e-29
-1.72569e-28
1.34174e-28
3.80462e-28
0
-8.38891e-28
0
-2.21923e-27
1.90474e-27
4.21641e-28
0
4.46604e-28
0
0
5.15433e-25
1.66595e-24
0
6.61216e-27
0
0
2.95629e-28
0
7.89887e-28
1.25549e-27
1.55374e-27
7.34684e-28
1.30031e-28
0
1.90297e-27
-2.75824e-29
0
-5.22111e-28
2.35667e-28
0
0
2.36912e-25
0
1.83356e-26
0
-1.25817e-28
0
1.54759e-29
0
0
0
0
0
-1.30521e-27
0
-8.34365e-28
0
0
0
9.10711e-29
4.16925e-24
1.23864e-24
7.07929e-26
0
7.3777e-28
2.92036e-28
0
5.51177e-30
2.95841e-28
2.82389e-28
0
4.60681e-28
0
0
0
1.66917e-28
3.81131e-28
9.05975e-28
0
0
0
0
0
5.73515e-27
0
2.52721e-28
0
1.00733e-28
6.618e-28
-1.50088e-28
0
-1.34026e-27
4.07587e-28
3.12575e-28
6.11599e-28
0
0
0
1.70883e-28
0
1.07513e-25
3.28973e-25
3.06323e-26
0
7.29011e-28
0
0
-4.35218e-28
0
2.09733e-28
2.71777e-29
7.34109e-28
9.8434e-28
9.44011e-28
1.14416e-27
-8.66068e-28
0
4.57417e-29
5.23065e-28
4.30051e-28
4.75099e-25
0
8.05888e-28
0
0
-2.71769e-28
0
0
1.83756e-27
-1.21762e-27
2.75341e-28
-1.59521e-27
0
4.97834e-28
8.20885e-28
0
1.63188e-28
1.50219e-28
9.07882e-28
-2.85892e-28
1.33489e-25
0
2.93218e-28
5.46976e-28
1.09714e-27
1.12219e-27
6.66934e-28
5.57868e-28
5.89724e-28
0
1.05127e-28
-4.18379e-28
4.63856e-28
6.29303e-28
0
-5.64907e-28
0
0
3.39685e-30
0
8.94903e-25
0
1.3987e-26
5.63105e-28
1.53495e-27
-7.08196e-28
0
2.51538e-28
3.38576e-28
7.51147e-28
3.88862e-28
-9.22065e-28
0
0
0
-2.84547e-28
1.14877e-28
0
1.9859e-28
1.791e-28
1.21915e-24
5.99333e-26
3.108e-27
2.02117e-27
1.05268e-27
2.01761e-27
1.01066e-28
0
1.23103e-27
0
9.80821e-28
0
8.9358e-28
3.52687e-28
0
5.61538e-29
9.53736e-28
0
7.89032e-29
7.72487e-30
4.37144e-24
3.34933e-25
2.36631e-26
0
0
-1.57745e-27
0
-9.50176e-28
0
0
4.73939e-28
0
0
-2.18309e-27
0
0
0
-7.10752e-28
3.5721e-28
4.79777e-28
1.133e-25
1.88178e-25
1.40715e-27
3.90261e-27
1.01845e-27
7.24933e-28
0
-4.13871e-28
7.99263e-28
5.99611e-28
1.83893e-27
1.49637e-28
3.02194e-28
-3.09158e-28
0
1.55797e-27
5.59877e-28
-3.25546e-28
0
6.55229e-29
0
0
0
1.12079e-26
0
-1.79419e-27
0
-8.87127e-28
0
-1.27702e-27
2.69629e-28
0
9.86264e-28
3.50031e-29
1.98217e-28
2.35128e-28
0
0
0
0
0
6.17869e-25
0
9.30083e-27
0
0
0
0
6.51596e-28
5.74963e-28
1.24182e-27
-3.15806e-29
4.14471e-29
2.33151e-28
0
1.54425e-28
1.99997e-27
0
1.9991e-28
-1.02682e-28
8.71386e-25
8.97479e-25
7.06085e-26
7.49316e-28
0
0
8.61566e-29
0
1.19068e-28
-5.11314e-28
1.17164e-27
4.86806e-28
0
-9.57853e-28
0
0
3.17267e-28
7.04703e-28
0
0
5.95529e-24
1.91625e-24
2.83257e-26
5.54557e-27
2.61937e-28
0
1.19425e-27
0
1.72368e-29
-5.19453e-28
0
-7.31468e-28
0
4.15758e-28
1.24872e-27
5.22371e-28
0
-5.74121e-28
8.29136e-28
1.5112e-30
3.40458e-25
9.23004e-25
5.53801e-26
1.30469e-27
1.3036e-27
-9.97962e-28
1.60962e-27
3.84125e-28
1.37824e-28
6.01666e-28
2.05435e-27
-1.0452e-28
1.18941e-28
0
0
6.95449e-29
4.89308e-28
0
1.30185e-27
4.64473e-29
6.02314e-24
8.33817e-25
2.46231e-25
-2.24745e-26
7.07303e-27
-6.89728e-28
2.19889e-27
5.49249e-28
7.11237e-28
-3.5414e-28
1.42904e-28
9.26133e-31
4.65718e-28
5.76735e-28
5.99418e-28
4.26551e-28
4.10064e-28
0
0
0
)
;

boundaryField
{
    movingWall
    {
        type            calculated;
        value           nonuniform List<scalar> 
20
(
3.92731e-24
0
7.47716e-25
-2.39931e-26
2.15042e-26
-1.48083e-27
7.1319e-27
1.93835e-27
0
-1.29609e-27
5.85335e-28
8.56304e-28
1.14455e-27
2.37255e-27
1.58139e-27
1.15465e-27
6.71849e-28
7.45422e-28
0
0
)
;
    }
    fixedWalls
    {
        type            calculated;
        value           nonuniform List<scalar> 
60
(
4.12547e-23
4.65041e-23
1.00378e-22
2.62281e-24
5.57915e-24
2.40053e-23
1.62256e-23
5.93125e-24
7.01703e-25
0
5.39247e-25
0
1.30664e-23
4.44283e-24
1.82703e-23
5.14383e-25
1.42493e-23
2.96019e-23
1.39831e-23
3.07133e-23
0
0
0
0
0
0
3.33082e-28
3.10179e-28
1.04035e-28
0
1.79377e-28
7.72487e-30
0
6.55229e-29
2.41238e-28
1.25419e-28
0
1.5112e-30
0
0
0
0
4.29314e-25
0
1.065e-26
-1.10514e-27
2.12711e-27
1.9534e-28
4.82683e-28
6.16552e-28
5.18488e-28
7.34684e-28
0
7.34684e-28
1.45419e-27
1.63343e-27
9.6105e-28
1.09285e-27
2.79541e-27
0
)
;
    }
    frontAndBack
    {
        type            empty;
    }
}


// ************************************************************************* //
