/*--------------------------------*- C++ -*----------------------------------*\
| =========                 |                                                 |
| \\      /  F ield         | OpenFOAM: The Open Source CFD Toolbox           |
|  \\    /   O peration     | Version:  2312                                  |
|   \\  /    A nd           | Website:  www.openfoam.com                      |
|    \\/     M anipulation  |                                                 |
\*---------------------------------------------------------------------------*/
FoamFile
{
    version     2.0;
    format      ascii;
    arch        "LSB;label=32;scalar=64";
    class       volScalarField;
    location    "5.5";
    object      magSqrP;
}
// * * * * * * * * * * * * * * * * * * * * * * * * * * * * * * * * * * * * * //

dimensions      [0 4 -4 0 0 0 0];

internalField   nonuniform List<scalar> 
400
(
0
1.00523e-29
3.91691e-30
5.10362e-30
5.04151e-30
5.76244e-30
5.72067e-30
5.5761e-30
5.82034e-30
5.5929e-30
5.91704e-30
7.12303e-30
7.07686e-30
7.05883e-30
7.06392e-30
7.57879e-30
7.60544e-30
8.21582e-30
8.96017e-30
8.12461e-30
4.52595e-30
0
4.06855e-30
3.82792e-30
6.12511e-30
6.66242e-30
6.06091e-30
5.67649e-30
5.68312e-30
6.01839e-30
5.87042e-30
6.16995e-30
6.84062e-30
7.76389e-30
6.95709e-30
7.77823e-30
7.71491e-30
8.49778e-30
8.11635e-30
7.32992e-30
3.22211e-30
2.36596e-30
4.29526e-30
4.63481e-30
6.5096e-30
6.20857e-30
5.99615e-30
6.31649e-30
6.57189e-30
6.18634e-30
5.76575e-30
5.9937e-30
6.52653e-30
7.07629e-30
7.94131e-30
7.81777e-30
8.29588e-30
8.08602e-30
8.9069e-30
8.80893e-30
1.90873e-30
1.64873e-29
4.90969e-30
5.85945e-30
6.81936e-30
6.64148e-30
6.19067e-30
7.38909e-30
6.26601e-30
6.11597e-30
6.02461e-30
6.12942e-30
5.90167e-30
6.52118e-30
8.06816e-30
7.74432e-30
8.3032e-30
8.33539e-30
8.79887e-30
1.03178e-29
5.66874e-30
0
4.97634e-30
4.63456e-30
6.41031e-30
6.5501e-30
6.74462e-30
7.59357e-30
7.11341e-30
6.60268e-30
6.6201e-30
6.86077e-30
7.0164e-30
6.93414e-30
7.32247e-30
7.21387e-30
7.62535e-30
8.22375e-30
9.23384e-30
1.17624e-29
3.95592e-30
1.73615e-29
4.88006e-30
6.70647e-30
6.28993e-30
6.69108e-30
7.4638e-30
7.76397e-30
6.83947e-30
6.99827e-30
7.22627e-30
7.7104e-30
7.85606e-30
7.60747e-30
7.71362e-30
7.60821e-30
8.17672e-30
8.50439e-30
9.8174e-30
1.22014e-29
4.63574e-30
3.88304e-30
5.43192e-30
5.95432e-30
6.78842e-30
7.32847e-30
8.0983e-30
7.873e-30
7.1424e-30
7.98161e-30
8.48699e-30
8.48035e-30
8.56909e-30
7.80797e-30
8.28798e-30
8.78819e-30
8.7888e-30
9.09332e-30
1.07456e-29
1.32772e-29
8.21151e-30
5.03168e-30
5.56764e-30
6.29116e-30
7.35431e-30
8.09456e-30
8.35421e-30
8.04599e-30
7.56803e-30
9.69474e-30
8.98589e-30
8.31146e-30
7.75915e-30
7.65587e-30
8.45847e-30
9.8446e-30
9.94559e-30
9.82362e-30
1.11809e-29
1.30702e-29
7.90943e-30
3.95362e-30
6.878e-30
6.53403e-30
7.85437e-30
8.7745e-30
8.91823e-30
8.56959e-30
7.93548e-30
9.20843e-30
8.27103e-30
8.70392e-30
8.56044e-30
9.43718e-30
9.62692e-30
1.10316e-29
1.11628e-29
9.65943e-30
1.10171e-29
1.28577e-29
8.01033e-30
1.0421e-29
7.14102e-30
7.92458e-30
8.7287e-30
9.21857e-30
9.29794e-30
8.88795e-30
9.06804e-30
9.30052e-30
8.41489e-30
9.02595e-30
9.40933e-30
1.03211e-29
1.08812e-29
1.13101e-29
1.1071e-29
1.06742e-29
1.1532e-29
1.26049e-29
6.49774e-30
2.75509e-30
8.23827e-30
8.39351e-30
9.26245e-30
9.47359e-30
9.25276e-30
9.6319e-30
9.27924e-30
9.89825e-30
1.02347e-29
9.50768e-30
9.27149e-30
1.09096e-29
1.08708e-29
1.0874e-29
1.14392e-29
1.10977e-29
1.10392e-29
1.34648e-29
7.08678e-30
2.84682e-29
8.16188e-30
9.7357e-30
8.80227e-30
1.02191e-29
9.93078e-30
1.03047e-29
8.86244e-30
9.77663e-30
1.11838e-29
1.10605e-29
9.87805e-30
9.71316e-30
1.06111e-29
1.13299e-29
1.26425e-29
1.14882e-29
1.0677e-29
1.28912e-29
1.04513e-29
2.26887e-31
8.44313e-30
8.96807e-30
9.91642e-30
1.13201e-29
1.14094e-29
1.02096e-29
9.48659e-30
9.57802e-30
1.10054e-29
1.06705e-29
1.03575e-29
1.04565e-29
1.06199e-29
1.04576e-29
1.16034e-29
1.1981e-29
1.10007e-29
1.08191e-29
9.82306e-30
2.63377e-29
8.29972e-30
1.11036e-29
9.7274e-30
1.19699e-29
1.35453e-29
1.04393e-29
9.79983e-30
9.68975e-30
9.91079e-30
1.04893e-29
1.13002e-29
1.07198e-29
1.07097e-29
9.17004e-30
1.0037e-29
1.08782e-29
1.10283e-29
1.229e-29
1.28869e-29
3.84895e-30
1.0928e-29
1.00885e-29
1.18142e-29
1.25446e-29
1.38791e-29
1.10222e-29
9.56183e-30
9.74035e-30
9.35231e-30
1.02727e-29
1.0231e-29
1.05225e-29
1.20792e-29
1.08973e-29
9.02918e-30
9.45027e-30
1.04198e-29
1.32095e-29
1.31358e-29
8.73436e-30
1.24627e-29
1.10989e-29
1.17519e-29
1.23766e-29
1.2726e-29
1.02129e-29
9.62318e-30
9.77643e-30
8.86992e-30
1.00346e-29
1.15348e-29
1.12828e-29
1.16578e-29
1.05442e-29
9.36732e-30
9.80295e-30
1.11566e-29
1.31389e-29
9.39506e-30
1.73353e-29
1.23378e-29
1.23509e-29
1.27238e-29
1.25255e-29
1.10177e-29
1.09723e-29
1.09149e-29
9.82329e-30
8.29499e-30
9.98012e-30
1.06113e-29
1.03606e-29
1.05356e-29
1.1326e-29
1.07448e-29
1.12316e-29
1.09531e-29
1.31563e-29
1.29543e-29
1.0298e-29
1.28643e-29
1.12265e-29
1.27342e-29
1.24241e-29
1.0447e-29
1.04661e-29
1.01162e-29
1.03525e-29
1.03434e-29
1.03408e-29
9.99609e-30
9.72759e-30
1.06216e-29
1.06668e-29
1.11044e-29
1.17068e-29
1.1119e-29
1.35037e-29
1.39968e-29
4.64519e-30
1.24014e-29
1.05983e-29
1.22228e-29
1.26366e-29
1.14666e-29
9.42231e-30
9.77797e-30
1.13073e-29
1.11412e-29
1.03328e-29
9.29784e-30
1.05146e-29
1.05217e-29
1.04877e-29
1.24117e-29
1.14703e-29
1.08865e-29
1.23728e-29
6.10138e-30
2.29925e-29
1.07206e-29
1.16562e-29
1.18341e-29
1.16279e-29
1.04652e-29
1.01208e-29
1.04938e-29
1.1628e-29
1.12584e-29
1.10107e-29
9.68657e-30
1.05114e-29
1.13664e-29
1.31656e-29
1.19567e-29
1.03815e-29
1.1334e-29
1.28049e-29
)
;

boundaryField
{
    movingWall
    {
        type            calculated;
        value           nonuniform List<scalar> 
20
(
6.10138e-30
2.29925e-29
1.07206e-29
1.16562e-29
1.18341e-29
1.16279e-29
1.04652e-29
1.01208e-29
1.04938e-29
1.1628e-29
1.12584e-29
1.10107e-29
9.68657e-30
1.05114e-29
1.13664e-29
1.31656e-29
1.19567e-29
1.03815e-29
1.1334e-29
1.28049e-29
)
;
    }
    fixedWalls
    {
        type            calculated;
        value           nonuniform List<scalar> 
60
(
0
4.52595e-30
3.22211e-30
1.90873e-30
5.66874e-30
3.95592e-30
4.63574e-30
8.21151e-30
7.90943e-30
8.01033e-30
6.49774e-30
7.08678e-30
1.04513e-29
9.82306e-30
1.28869e-29
1.31358e-29
9.39506e-30
1.29543e-29
1.39968e-29
6.10138e-30
8.12461e-30
7.32992e-30
8.80893e-30
1.03178e-29
1.17624e-29
1.22014e-29
1.32772e-29
1.30702e-29
1.28577e-29
1.26049e-29
1.34648e-29
1.28912e-29
1.08191e-29
1.229e-29
1.32095e-29
1.31389e-29
1.31563e-29
1.35037e-29
1.23728e-29
1.28049e-29
0
1.00523e-29
3.91691e-30
5.10362e-30
5.04151e-30
5.76244e-30
5.72067e-30
5.5761e-30
5.82034e-30
5.5929e-30
5.91704e-30
7.12303e-30
7.07686e-30
7.05883e-30
7.06392e-30
7.57879e-30
7.60544e-30
8.21582e-30
8.96017e-30
8.12461e-30
)
;
    }
    frontAndBack
    {
        type            empty;
    }
}


// ************************************************************************* //
