/*--------------------------------*- C++ -*----------------------------------*\
| =========                 |                                                 |
| \\      /  F ield         | OpenFOAM: The Open Source CFD Toolbox           |
|  \\    /   O peration     | Version:  2312                                  |
|   \\  /    A nd           | Website:  www.openfoam.com                      |
|    \\/     M anipulation  |                                                 |
\*---------------------------------------------------------------------------*/
FoamFile
{
    version     2.0;
    format      ascii;
    arch        "LSB;label=32;scalar=64";
    class       volVectorField;
    location    "5.5";
    object      momentum1:momentum;
}
// * * * * * * * * * * * * * * * * * * * * * * * * * * * * * * * * * * * * * //

dimensions      [1 1 -1 0 0 0 0];

internalField   nonuniform List<vector> 
400
(
(-2.5e-07 2.08669e-20 0)
(-2.5e-07 -4.20295e-21 0)
(-2.5e-07 1.00793e-21 0)
(-2.5e-07 -1.96485e-22 0)
(-2.5e-07 3.47879e-23 0)
(-2.5e-07 -1.04232e-23 0)
(-2.5e-07 1.53201e-23 0)
(-2.5e-07 1.95131e-23 0)
(-2.5e-07 1.80692e-23 0)
(-2.5e-07 1.47843e-23 0)
(-2.5e-07 2.12779e-23 0)
(-2.5e-07 2.93784e-23 0)
(-2.5e-07 2.83328e-24 0)
(-2.5e-07 -1.72958e-23 0)
(-2.5e-07 -1.34127e-23 0)
(-2.5e-07 2.95638e-24 0)
(-2.5e-07 1.72385e-23 0)
(-2.5e-07 1.56997e-23 0)
(-2.5e-07 3.02388e-23 0)
(-2.5e-07 1.12823e-23 0)
(-2.5e-07 1.21489e-20 0)
(-2.5e-07 -2.51921e-21 0)
(-2.5e-07 6.27532e-22 0)
(-2.5e-07 -1.11924e-22 0)
(-2.5e-07 2.91928e-23 0)
(-2.5e-07 6.89133e-24 0)
(-2.5e-07 5.92629e-24 0)
(-2.5e-07 -2.09053e-24 0)
(-2.5e-07 9.40463e-24 0)
(-2.5e-07 1.86495e-23 0)
(-2.5e-07 2.2168e-23 0)
(-2.5e-07 2.2942e-23 0)
(-2.5e-07 -7.1524e-24 0)
(-2.5e-07 -4.14766e-23 0)
(-2.5e-07 -4.28798e-23 0)
(-2.5e-07 -7.3338e-24 0)
(-2.5e-07 6.13261e-24 0)
(-2.5e-07 1.02772e-23 0)
(-2.5e-07 1.06272e-23 0)
(-2.5e-07 -1.00737e-23 0)
(-2.5e-07 -3.16457e-20 0)
(-2.5e-07 6.66718e-21 0)
(-2.5e-07 -1.61366e-21 0)
(-2.5e-07 3.15194e-22 0)
(-2.5e-07 -6.54446e-23 0)
(-2.5e-07 5.10734e-23 0)
(-2.5e-07 2.35551e-23 0)
(-2.5e-07 2.14801e-23 0)
(-2.5e-07 5.2537e-23 0)
(-2.5e-07 7.12085e-23 0)
(-2.5e-07 6.57162e-23 0)
(-2.5e-07 4.88803e-23 0)
(-2.5e-07 2.7004e-23 0)
(-2.5e-07 -1.25371e-23 0)
(-2.5e-07 -4.99173e-23 0)
(-2.5e-07 -4.15144e-23 0)
(-2.5e-07 -3.04725e-23 0)
(-2.5e-07 -2.23568e-23 0)
(-2.5e-07 -3.89984e-23 0)
(-2.5e-07 -3.87894e-23 0)
(-2.5e-07 2.01441e-20 0)
(-2.5e-07 -4.31991e-21 0)
(-2.5e-07 1.01325e-21 0)
(-2.5e-07 -2.16526e-22 0)
(-2.5e-07 7.17228e-23 0)
(-2.5e-07 5.11583e-24 0)
(-2.5e-07 1.5694e-23 0)
(-2.5e-07 2.76641e-23 0)
(-2.5e-07 3.69234e-23 0)
(-2.5e-07 4.29759e-23 0)
(-2.5e-07 3.63626e-23 0)
(-2.5e-07 2.47899e-23 0)
(-2.5e-07 3.33851e-23 0)
(-2.5e-07 4.20658e-23 0)
(-2.5e-07 2.27598e-23 0)
(-2.5e-07 -5.70044e-24 0)
(-2.5e-07 -2.45624e-23 0)
(-2.5e-07 -4.25553e-23 0)
(-2.5e-07 -4.99995e-23 0)
(-2.5e-07 -3.16871e-23 0)
(-2.5e-07 -1.97082e-21 0)
(-2.5e-07 5.41344e-22 0)
(-2.5e-07 -1.28028e-22 0)
(-2.5e-07 1.30899e-23 0)
(-2.5e-07 -7.99798e-24 0)
(-2.5e-07 1.57441e-24 0)
(-2.5e-07 -1.30044e-23 0)
(-2.5e-07 -8.83159e-24 0)
(-2.5e-07 -1.26475e-23 0)
(-2.5e-07 -1.71591e-23 0)
(-2.5e-07 -2.29634e-23 0)
(-2.5e-07 -2.63012e-23 0)
(-2.5e-07 -1.63588e-25 0)
(-2.5e-07 4.41231e-23 0)
(-2.5e-07 6.28413e-23 0)
(-2.5e-07 3.74854e-23 0)
(-2.5e-07 -1.80838e-23 0)
(-2.5e-07 -3.59281e-23 0)
(-2.5e-07 -3.1007e-23 0)
(-2.5e-07 -1.50852e-23 0)
(-2.5e-07 -9.2236e-21 0)
(-2.5e-07 1.76684e-21 0)
(-2.5e-07 -4.06084e-22 0)
(-2.5e-07 9.70509e-23 0)
(-2.5e-07 3.25291e-24 0)
(-2.5e-07 2.90037e-23 0)
(-2.5e-07 2.22534e-23 0)
(-2.5e-07 1.39533e-23 0)
(-2.5e-07 1.29247e-23 0)
(-2.5e-07 -4.17521e-24 0)
(-2.5e-07 -1.31211e-23 0)
(-2.5e-07 -1.24685e-23 0)
(-2.5e-07 -4.11532e-24 0)
(-2.5e-07 2.25419e-23 0)
(-2.5e-07 2.83657e-23 0)
(-2.5e-07 1.06982e-23 0)
(-2.5e-07 -3.77191e-24 0)
(-2.5e-07 -1.29297e-24 0)
(-2.5e-07 2.08282e-24 0)
(-2.5e-07 -7.8293e-24 0)
(-2.5e-07 7.905e-21 0)
(-2.5e-07 -1.49741e-21 0)
(-2.5e-07 3.68307e-22 0)
(-2.5e-07 -6.30284e-23 0)
(-2.5e-07 -1.94172e-23 0)
(-2.5e-07 -4.11482e-23 0)
(-2.5e-07 -1.09662e-23 0)
(-2.5e-07 -2.9623e-24 0)
(-2.5e-07 -1.48122e-23 0)
(-2.5e-07 -1.51704e-23 0)
(-2.5e-07 5.58925e-24 0)
(-2.5e-07 2.73575e-23 0)
(-2.5e-07 3.04752e-23 0)
(-2.5e-07 3.33913e-23 0)
(-2.5e-07 2.67278e-23 0)
(-2.5e-07 5.18633e-24 0)
(-2.5e-07 3.0353e-23 0)
(-2.5e-07 3.93204e-23 0)
(-2.5e-07 1.81162e-23 0)
(-2.5e-07 -4.60765e-24 0)
(-2.5e-07 -1.24705e-21 0)
(-2.5e-07 3.20992e-22 0)
(-2.5e-07 -1.0917e-22 0)
(-2.5e-07 -7.8303e-25 0)
(-2.5e-07 -3.6203e-23 0)
(-2.5e-07 -2.31962e-23 0)
(-2.5e-07 2.56898e-24 0)
(-2.5e-07 2.43626e-23 0)
(-2.5e-07 2.69144e-23 0)
(-2.5e-07 1.04082e-23 0)
(-2.5e-07 7.05455e-24 0)
(-2.5e-07 -5.04954e-24 0)
(-2.5e-07 -9.98369e-25 0)
(-2.5e-07 -1.19807e-23 0)
(-2.5e-07 -1.10731e-23 0)
(-2.5e-07 -7.56303e-24 0)
(-2.5e-07 2.972e-23 0)
(-2.5e-07 5.33514e-23 0)
(-2.5e-07 3.2513e-23 0)
(-2.5e-07 7.15225e-24 0)
(-2.5e-07 -8.15604e-22 0)
(-2.5e-07 1.50011e-23 0)
(-2.5e-07 -3.85924e-23 0)
(-2.5e-07 -2.94348e-23 0)
(-2.5e-07 7.58502e-24 0)
(-2.5e-07 2.69889e-23 0)
(-2.5e-07 3.33336e-23 0)
(-2.5e-07 4.42501e-23 0)
(-2.5e-07 4.01442e-23 0)
(-2.5e-07 2.10351e-23 0)
(-2.5e-07 -4.9048e-24 0)
(-2.5e-07 -4.03786e-23 0)
(-2.5e-07 -4.78837e-23 0)
(-2.5e-07 -4.34206e-23 0)
(-2.5e-07 -2.66922e-23 0)
(-2.5e-07 -5.56395e-24 0)
(-2.5e-07 4.25505e-24 0)
(-2.5e-07 1.75226e-23 0)
(-2.5e-07 2.28422e-23 0)
(-2.5e-07 5.8134e-24 0)
(-2.5e-07 4.75669e-22 0)
(-2.5e-07 -5.38822e-24 0)
(-2.5e-07 -5.4741e-23 0)
(-2.5e-07 -5.01275e-23 0)
(-2.5e-07 -4.46968e-23 0)
(-2.5e-07 -1.63965e-23 0)
(-2.5e-07 -1.01956e-23 0)
(-2.5e-07 -1.84795e-23 0)
(-2.5e-07 -3.12076e-23 0)
(-2.5e-07 -2.89339e-23 0)
(-2.5e-07 -3.36228e-23 0)
(-2.5e-07 -8.9955e-24 0)
(-2.5e-07 -2.45272e-24 0)
(-2.5e-07 3.49421e-24 0)
(-2.5e-07 2.63634e-23 0)
(-2.5e-07 3.14314e-23 0)
(-2.5e-07 -5.72217e-26 0)
(-2.5e-07 -5.45244e-24 0)
(-2.5e-07 1.65516e-23 0)
(-2.5e-07 -5.29579e-24 0)
(-2.5e-07 -1.34065e-21 0)
(-2.5e-07 1.57822e-23 0)
(-2.5e-07 2.63979e-24 0)
(-2.5e-07 -3.05077e-24 0)
(-2.5e-07 2.50902e-24 0)
(-2.5e-07 -3.40466e-23 0)
(-2.5e-07 -3.6579e-23 0)
(-2.5e-07 -4.38303e-23 0)
(-2.5e-07 -1.33788e-23 0)
(-2.5e-07 -7.29586e-24 0)
(-2.5e-07 -1.4138e-23 0)
(-2.5e-07 -2.60524e-25 0)
(-2.5e-07 2.85927e-23 0)
(-2.5e-07 1.92942e-23 0)
(-2.5e-07 -3.47248e-24 0)
(-2.5e-07 -1.26342e-23 0)
(-2.5e-07 -2.12412e-23 0)
(-2.5e-07 -2.03868e-24 0)
(-2.5e-07 2.2005e-23 0)
(-2.5e-07 6.58145e-25 0)
(-2.5e-07 2.30842e-21 0)
(-2.5e-07 -3.3845e-22 0)
(-2.5e-07 8.29782e-23 0)
(-2.5e-07 9.27171e-24 0)
(-2.5e-07 3.81396e-23 0)
(-2.5e-07 1.31195e-23 0)
(-2.5e-07 1.93302e-24 0)
(-2.5e-07 1.00122e-23 0)
(-2.5e-07 2.96199e-23 0)
(-2.5e-07 4.15456e-23 0)
(-2.5e-07 1.55505e-23 0)
(-2.5e-07 -3.68681e-24 0)
(-2.5e-07 -8.62948e-24 0)
(-2.5e-07 -7.56461e-24 0)
(-2.5e-07 -1.53203e-23 0)
(-2.5e-07 6.33766e-24 0)
(-2.5e-07 1.59714e-23 0)
(-2.5e-07 7.99957e-24 0)
(-2.5e-07 1.67836e-23 0)
(-2.5e-07 2.81613e-23 0)
(-2.5e-07 1.41973e-21 0)
(-2.5e-07 -2.54364e-22 0)
(-2.5e-07 1.02536e-22 0)
(-2.5e-07 1.88309e-23 0)
(-2.5e-07 4.9885e-23 0)
(-2.5e-07 1.88331e-23 0)
(-2.5e-07 -8.9648e-24 0)
(-2.5e-07 -2.49384e-24 0)
(-2.5e-07 -3.124e-23 0)
(-2.5e-07 -3.05422e-23 0)
(-2.5e-07 -3.64405e-23 0)
(-2.5e-07 -3.85587e-23 0)
(-2.5e-07 -4.61142e-23 0)
(-2.5e-07 -1.6727e-23 0)
(-2.5e-07 2.10105e-23 0)
(-2.5e-07 6.40721e-23 0)
(-2.5e-07 4.85336e-23 0)
(-2.5e-07 -5.58739e-24 0)
(-2.5e-07 -1.81253e-23 0)
(-2.5e-07 7.60656e-24 0)
(-2.5e-07 -6.63229e-21 0)
(-2.5e-07 1.38952e-21 0)
(-2.5e-07 -2.87621e-22 0)
(-2.5e-07 6.02283e-23 0)
(-2.5e-07 -5.3611e-23 0)
(-2.5e-07 -3.27538e-23 0)
(-2.5e-07 -2.01793e-23 0)
(-2.5e-07 1.99677e-23 0)
(-2.5e-07 2.59042e-23 0)
(-2.5e-07 2.59241e-23 0)
(-2.5e-07 3.83625e-23 0)
(-2.5e-07 8.96187e-24 0)
(-2.5e-07 -7.3858e-25 0)
(-2.5e-07 -6.41028e-24 0)
(-2.5e-07 -2.99481e-23 0)
(-2.5e-07 -2.81212e-23 0)
(-2.5e-07 1.8202e-25 0)
(-2.5e-07 -4.97212e-24 0)
(-2.5e-07 -3.00036e-23 0)
(-2.5e-07 -2.65982e-23 0)
(-2.5e-07 1.14035e-20 0)
(-2.5e-07 -2.30025e-21 0)
(-2.5e-07 4.8756e-22 0)
(-2.5e-07 -1.37346e-22 0)
(-2.5e-07 -2.70097e-23 0)
(-2.5e-07 -1.59903e-23 0)
(-2.5e-07 8.68583e-24 0)
(-2.5e-07 2.06588e-23 0)
(-2.5e-07 3.84591e-23 0)
(-2.5e-07 4.81229e-23 0)
(-2.5e-07 7.04303e-23 0)
(-2.5e-07 4.03997e-23 0)
(-2.5e-07 -3.33994e-24 0)
(-2.5e-07 -9.86572e-24 0)
(-2.5e-07 -1.97946e-23 0)
(-2.5e-07 -3.46059e-23 0)
(-2.5e-07 -9.47726e-24 0)
(-2.5e-07 -2.30251e-24 0)
(-2.5e-07 -1.85759e-23 0)
(-2.5e-07 -1.263e-23 0)
(-2.5e-07 -8.61078e-21 0)
(-2.5e-07 1.7038e-21 0)
(-2.5e-07 -4.40587e-22 0)
(-2.5e-07 4.25551e-23 0)
(-2.5e-07 -4.55429e-23 0)
(-2.5e-07 -3.08183e-24 0)
(-2.5e-07 1.09633e-23 0)
(-2.5e-07 -3.02867e-23 0)
(-2.5e-07 -3.08131e-23 0)
(-2.5e-07 -2.3718e-25 0)
(-2.5e-07 2.22179e-23 0)
(-2.5e-07 1.68592e-23 0)
(-2.5e-07 -1.83505e-23 0)
(-2.5e-07 -2.12011e-23 0)
(-2.5e-07 -8.29105e-24 0)
(-2.5e-07 -3.65645e-23 0)
(-2.5e-07 -6.15865e-23 0)
(-2.5e-07 -5.21399e-23 0)
(-2.5e-07 -1.47913e-23 0)
(-2.5e-07 2.89197e-24 0)
(-2.5e-07 -1.56918e-21 0)
(-2.5e-07 3.67086e-22 0)
(-2.5e-07 -8.15273e-23 0)
(-2.5e-07 2.58494e-23 0)
(-2.5e-07 -1.24151e-23 0)
(-2.5e-07 1.41848e-23 0)
(-2.5e-07 4.33853e-23 0)
(-2.5e-07 1.81581e-23 0)
(-2.5e-07 2.4923e-23 0)
(-2.5e-07 2.146e-23 0)
(-2.5e-07 -1.72527e-23 0)
(-2.5e-07 -1.01141e-23 0)
(-2.5e-07 2.86392e-24 0)
(-2.5e-07 -1.95556e-23 0)
(-2.5e-07 -4.28317e-23 0)
(-2.5e-07 -6.56728e-23 0)
(-2.5e-07 -7.02296e-23 0)
(-2.5e-07 -3.64101e-23 0)
(-2.5e-07 3.61219e-24 0)
(-2.5e-07 1.98219e-25 0)
(-2.5e-07 1.01749e-20 0)
(-2.5e-07 -2.09911e-21 0)
(-2.5e-07 4.64966e-22 0)
(-2.5e-07 -9.63951e-23 0)
(-2.5e-07 1.74341e-23 0)
(-2.5e-07 -1.56676e-23 0)
(-2.5e-07 -1.09011e-23 0)
(-2.5e-07 1.57344e-23 0)
(-2.5e-07 -3.58351e-24 0)
(-2.5e-07 -5.04384e-23 0)
(-2.5e-07 -6.14204e-23 0)
(-2.5e-07 -2.41211e-23 0)
(-2.5e-07 6.21776e-24 0)
(-2.5e-07 -6.83668e-24 0)
(-2.5e-07 -1.29176e-23 0)
(-2.5e-07 -2.26406e-23 0)
(-2.5e-07 -3.16443e-23 0)
(-2.5e-07 1.42257e-23 0)
(-2.5e-07 2.87137e-23 0)
(-2.5e-07 7.52044e-24 0)
(-2.5e-07 -1.08854e-21 0)
(-2.5e-07 2.33481e-24 0)
(-2.5e-07 -2.71338e-23 0)
(-2.5e-07 -3.99826e-23 0)
(-2.5e-07 -9.60918e-24 0)
(-2.5e-07 -2.68644e-23 0)
(-2.5e-07 -4.15709e-23 0)
(-2.5e-07 -3.00116e-23 0)
(-2.5e-07 -3.52729e-23 0)
(-2.5e-07 -3.98168e-23 0)
(-2.5e-07 -1.91662e-23 0)
(-2.5e-07 -6.6994e-24 0)
(-2.5e-07 2.3891e-24 0)
(-2.5e-07 -2.1828e-23 0)
(-2.5e-07 -2.92731e-23 0)
(-2.5e-07 -3.87121e-23 0)
(-2.5e-07 -2.34745e-23 0)
(-2.5e-07 2.05513e-24 0)
(-2.5e-07 -7.55549e-24 0)
(-2.5e-07 3.27149e-24 0)
(-2.5e-07 -1.61642e-20 0)
(-2.5e-07 3.40228e-21 0)
(-2.5e-07 -7.96509e-22 0)
(-2.5e-07 1.67568e-22 0)
(-2.5e-07 -2.54649e-23 0)
(-2.5e-07 2.14158e-23 0)
(-2.5e-07 -4.11351e-24 0)
(-2.5e-07 -2.36006e-23 0)
(-2.5e-07 -8.23478e-24 0)
(-2.5e-07 1.08838e-23 0)
(-2.5e-07 1.42739e-23 0)
(-2.5e-07 4.2935e-24 0)
(-2.5e-07 -9.09127e-25 0)
(-2.5e-07 -1.7184e-23 0)
(-2.5e-07 -3.16438e-23 0)
(-2.5e-07 -2.91003e-23 0)
(-2.5e-07 -3.12401e-24 0)
(-2.5e-07 -1.01894e-23 0)
(-2.5e-07 -3.0125e-23 0)
(-2.5e-07 -6.41057e-24 0)
)
;

boundaryField
{
    movingWall
    {
        type            calculated;
        value           uniform (0 0 0);
    }
    fixedWalls
    {
        type            calculated;
        value           uniform (0 0 0);
    }
    frontAndBack
    {
        type            empty;
    }
}


// ************************************************************************* //
