/*--------------------------------*- C++ -*----------------------------------*\
| =========                 |                                                 |
| \\      /  F ield         | OpenFOAM: The Open Source CFD Toolbox           |
|  \\    /   O peration     | Version:  2312                                  |
|   \\  /    A nd           | Website:  www.openfoam.com                      |
|    \\/     M anipulation  |                                                 |
\*---------------------------------------------------------------------------*/
FoamFile
{
    version     2.0;
    format      ascii;
    arch        "LSB;label=32;scalar=64";
    class       volVectorField;
    location    "5.5";
    object      norm_U_composite;
}
// * * * * * * * * * * * * * * * * * * * * * * * * * * * * * * * * * * * * * //

dimensions      [0 0 0 0 0 0 0];

internalField   nonuniform List<vector> 
400
(
(-0.5 4.17338e-14 0)
(-0.5 -8.4059e-15 0)
(-0.5 2.01586e-15 0)
(-0.5 -3.92969e-16 0)
(-0.5 6.95758e-17 0)
(-0.5 -2.08465e-17 0)
(-0.5 3.06401e-17 0)
(-0.5 3.90262e-17 0)
(-0.5 3.61384e-17 0)
(-0.5 2.95686e-17 0)
(-0.5 4.25559e-17 0)
(-0.5 5.87569e-17 0)
(-0.5 5.66656e-18 0)
(-0.5 -3.45916e-17 0)
(-0.5 -2.68255e-17 0)
(-0.5 5.91276e-18 0)
(-0.5 3.4477e-17 0)
(-0.5 3.13994e-17 0)
(-0.5 6.04776e-17 0)
(-0.5 2.25647e-17 0)
(-0.5 2.42978e-14 0)
(-0.5 -5.03842e-15 0)
(-0.5 1.25506e-15 0)
(-0.5 -2.23848e-16 0)
(-0.5 5.83857e-17 0)
(-0.5 1.37827e-17 0)
(-0.5 1.18526e-17 0)
(-0.5 -4.18106e-18 0)
(-0.5 1.88093e-17 0)
(-0.5 3.7299e-17 0)
(-0.5 4.43361e-17 0)
(-0.5 4.58839e-17 0)
(-0.5 -1.43048e-17 0)
(-0.5 -8.29532e-17 0)
(-0.5 -8.57597e-17 0)
(-0.5 -1.46676e-17 0)
(-0.5 1.22652e-17 0)
(-0.5 2.05544e-17 0)
(-0.5 2.12543e-17 0)
(-0.5 -2.01474e-17 0)
(-0.5 -6.32914e-14 0)
(-0.5 1.33344e-14 0)
(-0.5 -3.22731e-15 0)
(-0.5 6.30387e-16 0)
(-0.5 -1.30889e-16 0)
(-0.5 1.02147e-16 0)
(-0.5 4.71102e-17 0)
(-0.5 4.29602e-17 0)
(-0.5 1.05074e-16 0)
(-0.5 1.42417e-16 0)
(-0.5 1.31432e-16 0)
(-0.5 9.77605e-17 0)
(-0.5 5.4008e-17 0)
(-0.5 -2.50741e-17 0)
(-0.5 -9.98345e-17 0)
(-0.5 -8.30288e-17 0)
(-0.5 -6.0945e-17 0)
(-0.5 -4.47135e-17 0)
(-0.5 -7.79969e-17 0)
(-0.5 -7.75788e-17 0)
(-0.5 4.02882e-14 0)
(-0.5 -8.63981e-15 0)
(-0.5 2.0265e-15 0)
(-0.5 -4.33053e-16 0)
(-0.5 1.43446e-16 0)
(-0.5 1.02317e-17 0)
(-0.5 3.1388e-17 0)
(-0.5 5.53282e-17 0)
(-0.5 7.38468e-17 0)
(-0.5 8.59517e-17 0)
(-0.5 7.27251e-17 0)
(-0.5 4.95798e-17 0)
(-0.5 6.67702e-17 0)
(-0.5 8.41315e-17 0)
(-0.5 4.55196e-17 0)
(-0.5 -1.14009e-17 0)
(-0.5 -4.91248e-17 0)
(-0.5 -8.51107e-17 0)
(-0.5 -9.9999e-17 0)
(-0.5 -6.33742e-17 0)
(-0.5 -3.94164e-15 0)
(-0.5 1.08269e-15 0)
(-0.5 -2.56056e-16 0)
(-0.5 2.61798e-17 0)
(-0.5 -1.5996e-17 0)
(-0.5 3.14883e-18 0)
(-0.5 -2.60087e-17 0)
(-0.5 -1.76632e-17 0)
(-0.5 -2.5295e-17 0)
(-0.5 -3.43182e-17 0)
(-0.5 -4.59268e-17 0)
(-0.5 -5.26025e-17 0)
(-0.5 -3.27177e-19 0)
(-0.5 8.82462e-17 0)
(-0.5 1.25683e-16 0)
(-0.5 7.49708e-17 0)
(-0.5 -3.61677e-17 0)
(-0.5 -7.18562e-17 0)
(-0.5 -6.2014e-17 0)
(-0.5 -3.01703e-17 0)
(-0.5 -1.84472e-14 0)
(-0.5 3.53367e-15 0)
(-0.5 -8.12169e-16 0)
(-0.5 1.94102e-16 0)
(-0.5 6.50582e-18 0)
(-0.5 5.80073e-17 0)
(-0.5 4.45068e-17 0)
(-0.5 2.79066e-17 0)
(-0.5 2.58494e-17 0)
(-0.5 -8.35043e-18 0)
(-0.5 -2.62423e-17 0)
(-0.5 -2.49369e-17 0)
(-0.5 -8.23065e-18 0)
(-0.5 4.50837e-17 0)
(-0.5 5.67315e-17 0)
(-0.5 2.13965e-17 0)
(-0.5 -7.54382e-18 0)
(-0.5 -2.58595e-18 0)
(-0.5 4.16564e-18 0)
(-0.5 -1.56586e-17 0)
(-0.5 1.581e-14 0)
(-0.5 -2.99483e-15 0)
(-0.5 7.36614e-16 0)
(-0.5 -1.26057e-16 0)
(-0.5 -3.88343e-17 0)
(-0.5 -8.22965e-17 0)
(-0.5 -2.19325e-17 0)
(-0.5 -5.92459e-18 0)
(-0.5 -2.96244e-17 0)
(-0.5 -3.03407e-17 0)
(-0.5 1.11785e-17 0)
(-0.5 5.4715e-17 0)
(-0.5 6.09503e-17 0)
(-0.5 6.67827e-17 0)
(-0.5 5.34556e-17 0)
(-0.5 1.03727e-17 0)
(-0.5 6.07059e-17 0)
(-0.5 7.86409e-17 0)
(-0.5 3.62324e-17 0)
(-0.5 -9.2153e-18 0)
(-0.5 -2.4941e-15 0)
(-0.5 6.41984e-16 0)
(-0.5 -2.18339e-16 0)
(-0.5 -1.56606e-18 0)
(-0.5 -7.2406e-17 0)
(-0.5 -4.63923e-17 0)
(-0.5 5.13796e-18 0)
(-0.5 4.87253e-17 0)
(-0.5 5.38288e-17 0)
(-0.5 2.08164e-17 0)
(-0.5 1.41091e-17 0)
(-0.5 -1.00991e-17 0)
(-0.5 -1.99674e-18 0)
(-0.5 -2.39613e-17 0)
(-0.5 -2.21462e-17 0)
(-0.5 -1.51261e-17 0)
(-0.5 5.944e-17 0)
(-0.5 1.06703e-16 0)
(-0.5 6.5026e-17 0)
(-0.5 1.43045e-17 0)
(-0.5 -1.63121e-15 0)
(-0.5 3.00022e-17 0)
(-0.5 -7.71847e-17 0)
(-0.5 -5.88695e-17 0)
(-0.5 1.517e-17 0)
(-0.5 5.39777e-17 0)
(-0.5 6.66672e-17 0)
(-0.5 8.85002e-17 0)
(-0.5 8.02885e-17 0)
(-0.5 4.20701e-17 0)
(-0.5 -9.8096e-18 0)
(-0.5 -8.07573e-17 0)
(-0.5 -9.57674e-17 0)
(-0.5 -8.68412e-17 0)
(-0.5 -5.33843e-17 0)
(-0.5 -1.11279e-17 0)
(-0.5 8.5101e-18 0)
(-0.5 3.50451e-17 0)
(-0.5 4.56843e-17 0)
(-0.5 1.16268e-17 0)
(-0.5 9.51338e-16 0)
(-0.5 -1.07764e-17 0)
(-0.5 -1.09482e-16 0)
(-0.5 -1.00255e-16 0)
(-0.5 -8.93936e-17 0)
(-0.5 -3.2793e-17 0)
(-0.5 -2.03913e-17 0)
(-0.5 -3.69589e-17 0)
(-0.5 -6.24153e-17 0)
(-0.5 -5.78678e-17 0)
(-0.5 -6.72455e-17 0)
(-0.5 -1.7991e-17 0)
(-0.5 -4.90544e-18 0)
(-0.5 6.98842e-18 0)
(-0.5 5.27267e-17 0)
(-0.5 6.28627e-17 0)
(-0.5 -1.14443e-19 0)
(-0.5 -1.09049e-17 0)
(-0.5 3.31031e-17 0)
(-0.5 -1.05916e-17 0)
(-0.5 -2.6813e-15 0)
(-0.5 3.15645e-17 0)
(-0.5 5.27959e-18 0)
(-0.5 -6.10154e-18 0)
(-0.5 5.01803e-18 0)
(-0.5 -6.80932e-17 0)
(-0.5 -7.31581e-17 0)
(-0.5 -8.76607e-17 0)
(-0.5 -2.67576e-17 0)
(-0.5 -1.45917e-17 0)
(-0.5 -2.8276e-17 0)
(-0.5 -5.21047e-19 0)
(-0.5 5.71854e-17 0)
(-0.5 3.85884e-17 0)
(-0.5 -6.94496e-18 0)
(-0.5 -2.52684e-17 0)
(-0.5 -4.24824e-17 0)
(-0.5 -4.07735e-18 0)
(-0.5 4.401e-17 0)
(-0.5 1.31629e-18 0)
(-0.5 4.61685e-15 0)
(-0.5 -6.76901e-16 0)
(-0.5 1.65956e-16 0)
(-0.5 1.85434e-17 0)
(-0.5 7.62792e-17 0)
(-0.5 2.62389e-17 0)
(-0.5 3.86603e-18 0)
(-0.5 2.00244e-17 0)
(-0.5 5.92398e-17 0)
(-0.5 8.30911e-17 0)
(-0.5 3.11011e-17 0)
(-0.5 -7.37361e-18 0)
(-0.5 -1.7259e-17 0)
(-0.5 -1.51292e-17 0)
(-0.5 -3.06405e-17 0)
(-0.5 1.26753e-17 0)
(-0.5 3.19428e-17 0)
(-0.5 1.59991e-17 0)
(-0.5 3.35673e-17 0)
(-0.5 5.63225e-17 0)
(-0.5 2.83946e-15 0)
(-0.5 -5.08727e-16 0)
(-0.5 2.05071e-16 0)
(-0.5 3.76619e-17 0)
(-0.5 9.977e-17 0)
(-0.5 3.76662e-17 0)
(-0.5 -1.79296e-17 0)
(-0.5 -4.98768e-18 0)
(-0.5 -6.24801e-17 0)
(-0.5 -6.10843e-17 0)
(-0.5 -7.28811e-17 0)
(-0.5 -7.71173e-17 0)
(-0.5 -9.22284e-17 0)
(-0.5 -3.34539e-17 0)
(-0.5 4.20211e-17 0)
(-0.5 1.28144e-16 0)
(-0.5 9.70672e-17 0)
(-0.5 -1.11748e-17 0)
(-0.5 -3.62507e-17 0)
(-0.5 1.52131e-17 0)
(-0.5 -1.32646e-14 0)
(-0.5 2.77905e-15 0)
(-0.5 -5.75242e-16 0)
(-0.5 1.20457e-16 0)
(-0.5 -1.07222e-16 0)
(-0.5 -6.55077e-17 0)
(-0.5 -4.03587e-17 0)
(-0.5 3.99354e-17 0)
(-0.5 5.18084e-17 0)
(-0.5 5.18482e-17 0)
(-0.5 7.6725e-17 0)
(-0.5 1.79237e-17 0)
(-0.5 -1.47716e-18 0)
(-0.5 -1.28206e-17 0)
(-0.5 -5.98962e-17 0)
(-0.5 -5.62425e-17 0)
(-0.5 3.64041e-19 0)
(-0.5 -9.94425e-18 0)
(-0.5 -6.00071e-17 0)
(-0.5 -5.31965e-17 0)
(-0.5 2.2807e-14 0)
(-0.5 -4.60049e-15 0)
(-0.5 9.7512e-16 0)
(-0.5 -2.74693e-16 0)
(-0.5 -5.40195e-17 0)
(-0.5 -3.19807e-17 0)
(-0.5 1.73717e-17 0)
(-0.5 4.13177e-17 0)
(-0.5 7.69181e-17 0)
(-0.5 9.62459e-17 0)
(-0.5 1.40861e-16 0)
(-0.5 8.07993e-17 0)
(-0.5 -6.67987e-18 0)
(-0.5 -1.97314e-17 0)
(-0.5 -3.95892e-17 0)
(-0.5 -6.92118e-17 0)
(-0.5 -1.89545e-17 0)
(-0.5 -4.60503e-18 0)
(-0.5 -3.71518e-17 0)
(-0.5 -2.526e-17 0)
(-0.5 -1.72216e-14 0)
(-0.5 3.40761e-15 0)
(-0.5 -8.81174e-16 0)
(-0.5 8.51103e-17 0)
(-0.5 -9.10859e-17 0)
(-0.5 -6.16366e-18 0)
(-0.5 2.19265e-17 0)
(-0.5 -6.05734e-17 0)
(-0.5 -6.16261e-17 0)
(-0.5 -4.7436e-19 0)
(-0.5 4.44358e-17 0)
(-0.5 3.37184e-17 0)
(-0.5 -3.67009e-17 0)
(-0.5 -4.24023e-17 0)
(-0.5 -1.65821e-17 0)
(-0.5 -7.3129e-17 0)
(-0.5 -1.23173e-16 0)
(-0.5 -1.0428e-16 0)
(-0.5 -2.95825e-17 0)
(-0.5 5.78394e-18 0)
(-0.5 -3.13836e-15 0)
(-0.5 7.34171e-16 0)
(-0.5 -1.63055e-16 0)
(-0.5 5.16989e-17 0)
(-0.5 -2.48301e-17 0)
(-0.5 2.83696e-17 0)
(-0.5 8.67705e-17 0)
(-0.5 3.63161e-17 0)
(-0.5 4.98461e-17 0)
(-0.5 4.292e-17 0)
(-0.5 -3.45053e-17 0)
(-0.5 -2.02282e-17 0)
(-0.5 5.72784e-18 0)
(-0.5 -3.91111e-17 0)
(-0.5 -8.56635e-17 0)
(-0.5 -1.31346e-16 0)
(-0.5 -1.40459e-16 0)
(-0.5 -7.28202e-17 0)
(-0.5 7.22439e-18 0)
(-0.5 3.96438e-19 0)
(-0.5 2.03499e-14 0)
(-0.5 -4.19823e-15 0)
(-0.5 9.29933e-16 0)
(-0.5 -1.9279e-16 0)
(-0.5 3.48682e-17 0)
(-0.5 -3.13352e-17 0)
(-0.5 -2.18022e-17 0)
(-0.5 3.14689e-17 0)
(-0.5 -7.16702e-18 0)
(-0.5 -1.00877e-16 0)
(-0.5 -1.22841e-16 0)
(-0.5 -4.82423e-17 0)
(-0.5 1.24355e-17 0)
(-0.5 -1.36734e-17 0)
(-0.5 -2.58352e-17 0)
(-0.5 -4.52813e-17 0)
(-0.5 -6.32885e-17 0)
(-0.5 2.84514e-17 0)
(-0.5 5.74275e-17 0)
(-0.5 1.50409e-17 0)
(-0.5 -2.17709e-15 0)
(-0.5 4.66962e-18 0)
(-0.5 -5.42676e-17 0)
(-0.5 -7.99652e-17 0)
(-0.5 -1.92184e-17 0)
(-0.5 -5.37288e-17 0)
(-0.5 -8.31417e-17 0)
(-0.5 -6.00233e-17 0)
(-0.5 -7.05457e-17 0)
(-0.5 -7.96335e-17 0)
(-0.5 -3.83323e-17 0)
(-0.5 -1.33988e-17 0)
(-0.5 4.7782e-18 0)
(-0.5 -4.3656e-17 0)
(-0.5 -5.85462e-17 0)
(-0.5 -7.74242e-17 0)
(-0.5 -4.6949e-17 0)
(-0.5 4.11026e-18 0)
(-0.5 -1.5111e-17 0)
(-0.5 6.54298e-18 0)
(-0.5 -3.23283e-14 0)
(-0.5 6.80457e-15 0)
(-0.5 -1.59302e-15 0)
(-0.5 3.35136e-16 0)
(-0.5 -5.09299e-17 0)
(-0.5 4.28316e-17 0)
(-0.5 -8.22702e-18 0)
(-0.5 -4.72012e-17 0)
(-0.5 -1.64696e-17 0)
(-0.5 2.17676e-17 0)
(-0.5 2.85477e-17 0)
(-0.5 8.58701e-18 0)
(-0.5 -1.81825e-18 0)
(-0.5 -3.43679e-17 0)
(-0.5 -6.32875e-17 0)
(-0.5 -5.82005e-17 0)
(-0.5 -6.24802e-18 0)
(-0.5 -2.03788e-17 0)
(-0.5 -6.02501e-17 0)
(-0.5 -1.28211e-17 0)
)
;

boundaryField
{
    movingWall
    {
        type            calculated;
        value           uniform (-0.5 -0 -0);
    }
    fixedWalls
    {
        type            calculated;
        value           uniform (-0.5 -0 -0);
    }
    frontAndBack
    {
        type            empty;
    }
}


// ************************************************************************* //
