/*--------------------------------*- C++ -*----------------------------------*\
| =========                 |                                                 |
| \\      /  F ield         | OpenFOAM: The Open Source CFD Toolbox           |
|  \\    /   O peration     | Version:  2312                                  |
|   \\  /    A nd           | Website:  www.openfoam.com                      |
|    \\/     M anipulation  |                                                 |
\*---------------------------------------------------------------------------*/
FoamFile
{
    version     2.0;
    format      ascii;
    arch        "LSB;label=32;scalar=64";
    class       volVectorField;
    location    "5.5";
    object      norm_U_L1;
}
// * * * * * * * * * * * * * * * * * * * * * * * * * * * * * * * * * * * * * //

dimensions      [0 0 0 0 0 0 0];

internalField   nonuniform List<vector> 
400
(
(-0.0025 2.08669e-16 0)
(-0.0025 -4.20295e-17 0)
(-0.0025 1.00793e-17 0)
(-0.0025 -1.96485e-18 0)
(-0.0025 3.47879e-19 0)
(-0.0025 -1.04232e-19 0)
(-0.0025 1.53201e-19 0)
(-0.0025 1.95131e-19 0)
(-0.0025 1.80692e-19 0)
(-0.0025 1.47843e-19 0)
(-0.0025 2.12779e-19 0)
(-0.0025 2.93784e-19 0)
(-0.0025 2.83328e-20 0)
(-0.0025 -1.72958e-19 0)
(-0.0025 -1.34127e-19 0)
(-0.0025 2.95638e-20 0)
(-0.0025 1.72385e-19 0)
(-0.0025 1.56997e-19 0)
(-0.0025 3.02388e-19 0)
(-0.0025 1.12823e-19 0)
(-0.0025 1.21489e-16 0)
(-0.0025 -2.51921e-17 0)
(-0.0025 6.27532e-18 0)
(-0.0025 -1.11924e-18 0)
(-0.0025 2.91928e-19 0)
(-0.0025 6.89133e-20 0)
(-0.0025 5.92629e-20 0)
(-0.0025 -2.09053e-20 0)
(-0.0025 9.40463e-20 0)
(-0.0025 1.86495e-19 0)
(-0.0025 2.2168e-19 0)
(-0.0025 2.2942e-19 0)
(-0.0025 -7.1524e-20 0)
(-0.0025 -4.14766e-19 0)
(-0.0025 -4.28798e-19 0)
(-0.0025 -7.3338e-20 0)
(-0.0025 6.13261e-20 0)
(-0.0025 1.02772e-19 0)
(-0.0025 1.06272e-19 0)
(-0.0025 -1.00737e-19 0)
(-0.0025 -3.16457e-16 0)
(-0.0025 6.66718e-17 0)
(-0.0025 -1.61366e-17 0)
(-0.0025 3.15194e-18 0)
(-0.0025 -6.54446e-19 0)
(-0.0025 5.10734e-19 0)
(-0.0025 2.35551e-19 0)
(-0.0025 2.14801e-19 0)
(-0.0025 5.2537e-19 0)
(-0.0025 7.12085e-19 0)
(-0.0025 6.57162e-19 0)
(-0.0025 4.88803e-19 0)
(-0.0025 2.7004e-19 0)
(-0.0025 -1.25371e-19 0)
(-0.0025 -4.99173e-19 0)
(-0.0025 -4.15144e-19 0)
(-0.0025 -3.04725e-19 0)
(-0.0025 -2.23568e-19 0)
(-0.0025 -3.89984e-19 0)
(-0.0025 -3.87894e-19 0)
(-0.0025 2.01441e-16 0)
(-0.0025 -4.31991e-17 0)
(-0.0025 1.01325e-17 0)
(-0.0025 -2.16526e-18 0)
(-0.0025 7.17228e-19 0)
(-0.0025 5.11583e-20 0)
(-0.0025 1.5694e-19 0)
(-0.0025 2.76641e-19 0)
(-0.0025 3.69234e-19 0)
(-0.0025 4.29759e-19 0)
(-0.0025 3.63626e-19 0)
(-0.0025 2.47899e-19 0)
(-0.0025 3.33851e-19 0)
(-0.0025 4.20658e-19 0)
(-0.0025 2.27598e-19 0)
(-0.0025 -5.70044e-20 0)
(-0.0025 -2.45624e-19 0)
(-0.0025 -4.25553e-19 0)
(-0.0025 -4.99995e-19 0)
(-0.0025 -3.16871e-19 0)
(-0.0025 -1.97082e-17 0)
(-0.0025 5.41344e-18 0)
(-0.0025 -1.28028e-18 0)
(-0.0025 1.30899e-19 0)
(-0.0025 -7.99798e-20 0)
(-0.0025 1.57441e-20 0)
(-0.0025 -1.30044e-19 0)
(-0.0025 -8.83159e-20 0)
(-0.0025 -1.26475e-19 0)
(-0.0025 -1.71591e-19 0)
(-0.0025 -2.29634e-19 0)
(-0.0025 -2.63012e-19 0)
(-0.0025 -1.63588e-21 0)
(-0.0025 4.41231e-19 0)
(-0.0025 6.28413e-19 0)
(-0.0025 3.74854e-19 0)
(-0.0025 -1.80838e-19 0)
(-0.0025 -3.59281e-19 0)
(-0.0025 -3.1007e-19 0)
(-0.0025 -1.50852e-19 0)
(-0.0025 -9.2236e-17 0)
(-0.0025 1.76684e-17 0)
(-0.0025 -4.06084e-18 0)
(-0.0025 9.70509e-19 0)
(-0.0025 3.25291e-20 0)
(-0.0025 2.90037e-19 0)
(-0.0025 2.22534e-19 0)
(-0.0025 1.39533e-19 0)
(-0.0025 1.29247e-19 0)
(-0.0025 -4.17521e-20 0)
(-0.0025 -1.31211e-19 0)
(-0.0025 -1.24685e-19 0)
(-0.0025 -4.11532e-20 0)
(-0.0025 2.25419e-19 0)
(-0.0025 2.83657e-19 0)
(-0.0025 1.06982e-19 0)
(-0.0025 -3.77191e-20 0)
(-0.0025 -1.29297e-20 0)
(-0.0025 2.08282e-20 0)
(-0.0025 -7.8293e-20 0)
(-0.0025 7.905e-17 0)
(-0.0025 -1.49741e-17 0)
(-0.0025 3.68307e-18 0)
(-0.0025 -6.30284e-19 0)
(-0.0025 -1.94172e-19 0)
(-0.0025 -4.11482e-19 0)
(-0.0025 -1.09662e-19 0)
(-0.0025 -2.9623e-20 0)
(-0.0025 -1.48122e-19 0)
(-0.0025 -1.51704e-19 0)
(-0.0025 5.58925e-20 0)
(-0.0025 2.73575e-19 0)
(-0.0025 3.04752e-19 0)
(-0.0025 3.33913e-19 0)
(-0.0025 2.67278e-19 0)
(-0.0025 5.18633e-20 0)
(-0.0025 3.0353e-19 0)
(-0.0025 3.93204e-19 0)
(-0.0025 1.81162e-19 0)
(-0.0025 -4.60765e-20 0)
(-0.0025 -1.24705e-17 0)
(-0.0025 3.20992e-18 0)
(-0.0025 -1.0917e-18 0)
(-0.0025 -7.8303e-21 0)
(-0.0025 -3.6203e-19 0)
(-0.0025 -2.31962e-19 0)
(-0.0025 2.56898e-20 0)
(-0.0025 2.43626e-19 0)
(-0.0025 2.69144e-19 0)
(-0.0025 1.04082e-19 0)
(-0.0025 7.05455e-20 0)
(-0.0025 -5.04954e-20 0)
(-0.0025 -9.98369e-21 0)
(-0.0025 -1.19807e-19 0)
(-0.0025 -1.10731e-19 0)
(-0.0025 -7.56303e-20 0)
(-0.0025 2.972e-19 0)
(-0.0025 5.33514e-19 0)
(-0.0025 3.2513e-19 0)
(-0.0025 7.15225e-20 0)
(-0.0025 -8.15604e-18 0)
(-0.0025 1.50011e-19 0)
(-0.0025 -3.85924e-19 0)
(-0.0025 -2.94348e-19 0)
(-0.0025 7.58502e-20 0)
(-0.0025 2.69889e-19 0)
(-0.0025 3.33336e-19 0)
(-0.0025 4.42501e-19 0)
(-0.0025 4.01442e-19 0)
(-0.0025 2.10351e-19 0)
(-0.0025 -4.9048e-20 0)
(-0.0025 -4.03786e-19 0)
(-0.0025 -4.78837e-19 0)
(-0.0025 -4.34206e-19 0)
(-0.0025 -2.66922e-19 0)
(-0.0025 -5.56395e-20 0)
(-0.0025 4.25505e-20 0)
(-0.0025 1.75226e-19 0)
(-0.0025 2.28422e-19 0)
(-0.0025 5.8134e-20 0)
(-0.0025 4.75669e-18 0)
(-0.0025 -5.38822e-20 0)
(-0.0025 -5.4741e-19 0)
(-0.0025 -5.01275e-19 0)
(-0.0025 -4.46968e-19 0)
(-0.0025 -1.63965e-19 0)
(-0.0025 -1.01956e-19 0)
(-0.0025 -1.84795e-19 0)
(-0.0025 -3.12076e-19 0)
(-0.0025 -2.89339e-19 0)
(-0.0025 -3.36228e-19 0)
(-0.0025 -8.9955e-20 0)
(-0.0025 -2.45272e-20 0)
(-0.0025 3.49421e-20 0)
(-0.0025 2.63634e-19 0)
(-0.0025 3.14314e-19 0)
(-0.0025 -5.72217e-22 0)
(-0.0025 -5.45244e-20 0)
(-0.0025 1.65516e-19 0)
(-0.0025 -5.29579e-20 0)
(-0.0025 -1.34065e-17 0)
(-0.0025 1.57822e-19 0)
(-0.0025 2.63979e-20 0)
(-0.0025 -3.05077e-20 0)
(-0.0025 2.50902e-20 0)
(-0.0025 -3.40466e-19 0)
(-0.0025 -3.6579e-19 0)
(-0.0025 -4.38303e-19 0)
(-0.0025 -1.33788e-19 0)
(-0.0025 -7.29586e-20 0)
(-0.0025 -1.4138e-19 0)
(-0.0025 -2.60524e-21 0)
(-0.0025 2.85927e-19 0)
(-0.0025 1.92942e-19 0)
(-0.0025 -3.47248e-20 0)
(-0.0025 -1.26342e-19 0)
(-0.0025 -2.12412e-19 0)
(-0.0025 -2.03868e-20 0)
(-0.0025 2.2005e-19 0)
(-0.0025 6.58145e-21 0)
(-0.0025 2.30842e-17 0)
(-0.0025 -3.3845e-18 0)
(-0.0025 8.29782e-19 0)
(-0.0025 9.27171e-20 0)
(-0.0025 3.81396e-19 0)
(-0.0025 1.31195e-19 0)
(-0.0025 1.93302e-20 0)
(-0.0025 1.00122e-19 0)
(-0.0025 2.96199e-19 0)
(-0.0025 4.15456e-19 0)
(-0.0025 1.55505e-19 0)
(-0.0025 -3.68681e-20 0)
(-0.0025 -8.62948e-20 0)
(-0.0025 -7.56461e-20 0)
(-0.0025 -1.53203e-19 0)
(-0.0025 6.33766e-20 0)
(-0.0025 1.59714e-19 0)
(-0.0025 7.99957e-20 0)
(-0.0025 1.67836e-19 0)
(-0.0025 2.81613e-19 0)
(-0.0025 1.41973e-17 0)
(-0.0025 -2.54364e-18 0)
(-0.0025 1.02536e-18 0)
(-0.0025 1.88309e-19 0)
(-0.0025 4.9885e-19 0)
(-0.0025 1.88331e-19 0)
(-0.0025 -8.9648e-20 0)
(-0.0025 -2.49384e-20 0)
(-0.0025 -3.124e-19 0)
(-0.0025 -3.05422e-19 0)
(-0.0025 -3.64405e-19 0)
(-0.0025 -3.85587e-19 0)
(-0.0025 -4.61142e-19 0)
(-0.0025 -1.6727e-19 0)
(-0.0025 2.10105e-19 0)
(-0.0025 6.40721e-19 0)
(-0.0025 4.85336e-19 0)
(-0.0025 -5.58739e-20 0)
(-0.0025 -1.81253e-19 0)
(-0.0025 7.60656e-20 0)
(-0.0025 -6.63229e-17 0)
(-0.0025 1.38952e-17 0)
(-0.0025 -2.87621e-18 0)
(-0.0025 6.02283e-19 0)
(-0.0025 -5.3611e-19 0)
(-0.0025 -3.27538e-19 0)
(-0.0025 -2.01793e-19 0)
(-0.0025 1.99677e-19 0)
(-0.0025 2.59042e-19 0)
(-0.0025 2.59241e-19 0)
(-0.0025 3.83625e-19 0)
(-0.0025 8.96187e-20 0)
(-0.0025 -7.3858e-21 0)
(-0.0025 -6.41028e-20 0)
(-0.0025 -2.99481e-19 0)
(-0.0025 -2.81212e-19 0)
(-0.0025 1.8202e-21 0)
(-0.0025 -4.97212e-20 0)
(-0.0025 -3.00036e-19 0)
(-0.0025 -2.65982e-19 0)
(-0.0025 1.14035e-16 0)
(-0.0025 -2.30025e-17 0)
(-0.0025 4.8756e-18 0)
(-0.0025 -1.37346e-18 0)
(-0.0025 -2.70097e-19 0)
(-0.0025 -1.59903e-19 0)
(-0.0025 8.68583e-20 0)
(-0.0025 2.06588e-19 0)
(-0.0025 3.84591e-19 0)
(-0.0025 4.81229e-19 0)
(-0.0025 7.04303e-19 0)
(-0.0025 4.03997e-19 0)
(-0.0025 -3.33994e-20 0)
(-0.0025 -9.86572e-20 0)
(-0.0025 -1.97946e-19 0)
(-0.0025 -3.46059e-19 0)
(-0.0025 -9.47726e-20 0)
(-0.0025 -2.30251e-20 0)
(-0.0025 -1.85759e-19 0)
(-0.0025 -1.263e-19 0)
(-0.0025 -8.61078e-17 0)
(-0.0025 1.7038e-17 0)
(-0.0025 -4.40587e-18 0)
(-0.0025 4.25551e-19 0)
(-0.0025 -4.55429e-19 0)
(-0.0025 -3.08183e-20 0)
(-0.0025 1.09633e-19 0)
(-0.0025 -3.02867e-19 0)
(-0.0025 -3.08131e-19 0)
(-0.0025 -2.3718e-21 0)
(-0.0025 2.22179e-19 0)
(-0.0025 1.68592e-19 0)
(-0.0025 -1.83505e-19 0)
(-0.0025 -2.12011e-19 0)
(-0.0025 -8.29105e-20 0)
(-0.0025 -3.65645e-19 0)
(-0.0025 -6.15865e-19 0)
(-0.0025 -5.21399e-19 0)
(-0.0025 -1.47913e-19 0)
(-0.0025 2.89197e-20 0)
(-0.0025 -1.56918e-17 0)
(-0.0025 3.67086e-18 0)
(-0.0025 -8.15273e-19 0)
(-0.0025 2.58494e-19 0)
(-0.0025 -1.24151e-19 0)
(-0.0025 1.41848e-19 0)
(-0.0025 4.33853e-19 0)
(-0.0025 1.81581e-19 0)
(-0.0025 2.4923e-19 0)
(-0.0025 2.146e-19 0)
(-0.0025 -1.72527e-19 0)
(-0.0025 -1.01141e-19 0)
(-0.0025 2.86392e-20 0)
(-0.0025 -1.95556e-19 0)
(-0.0025 -4.28317e-19 0)
(-0.0025 -6.56728e-19 0)
(-0.0025 -7.02296e-19 0)
(-0.0025 -3.64101e-19 0)
(-0.0025 3.61219e-20 0)
(-0.0025 1.98219e-21 0)
(-0.0025 1.01749e-16 0)
(-0.0025 -2.09911e-17 0)
(-0.0025 4.64966e-18 0)
(-0.0025 -9.63951e-19 0)
(-0.0025 1.74341e-19 0)
(-0.0025 -1.56676e-19 0)
(-0.0025 -1.09011e-19 0)
(-0.0025 1.57344e-19 0)
(-0.0025 -3.58351e-20 0)
(-0.0025 -5.04384e-19 0)
(-0.0025 -6.14204e-19 0)
(-0.0025 -2.41211e-19 0)
(-0.0025 6.21776e-20 0)
(-0.0025 -6.83668e-20 0)
(-0.0025 -1.29176e-19 0)
(-0.0025 -2.26406e-19 0)
(-0.0025 -3.16443e-19 0)
(-0.0025 1.42257e-19 0)
(-0.0025 2.87137e-19 0)
(-0.0025 7.52044e-20 0)
(-0.0025 -1.08854e-17 0)
(-0.0025 2.33481e-20 0)
(-0.0025 -2.71338e-19 0)
(-0.0025 -3.99826e-19 0)
(-0.0025 -9.60918e-20 0)
(-0.0025 -2.68644e-19 0)
(-0.0025 -4.15709e-19 0)
(-0.0025 -3.00116e-19 0)
(-0.0025 -3.52729e-19 0)
(-0.0025 -3.98168e-19 0)
(-0.0025 -1.91662e-19 0)
(-0.0025 -6.6994e-20 0)
(-0.0025 2.3891e-20 0)
(-0.0025 -2.1828e-19 0)
(-0.0025 -2.92731e-19 0)
(-0.0025 -3.87121e-19 0)
(-0.0025 -2.34745e-19 0)
(-0.0025 2.05513e-20 0)
(-0.0025 -7.55549e-20 0)
(-0.0025 3.27149e-20 0)
(-0.0025 -1.61642e-16 0)
(-0.0025 3.40228e-17 0)
(-0.0025 -7.96509e-18 0)
(-0.0025 1.67568e-18 0)
(-0.0025 -2.54649e-19 0)
(-0.0025 2.14158e-19 0)
(-0.0025 -4.11351e-20 0)
(-0.0025 -2.36006e-19 0)
(-0.0025 -8.23478e-20 0)
(-0.0025 1.08838e-19 0)
(-0.0025 1.42739e-19 0)
(-0.0025 4.2935e-20 0)
(-0.0025 -9.09127e-21 0)
(-0.0025 -1.7184e-19 0)
(-0.0025 -3.16438e-19 0)
(-0.0025 -2.91003e-19 0)
(-0.0025 -3.12401e-20 0)
(-0.0025 -1.01894e-19 0)
(-0.0025 -3.0125e-19 0)
(-0.0025 -6.41057e-20 0)
)
;

boundaryField
{
    movingWall
    {
        type            calculated;
        value           uniform (-0.0025 -0 -0);
    }
    fixedWalls
    {
        type            calculated;
        value           uniform (-0.0025 -0 -0);
    }
    frontAndBack
    {
        type            empty;
    }
}


// ************************************************************************* //
