/*--------------------------------*- C++ -*----------------------------------*\
| =========                 |                                                 |
| \\      /  F ield         | OpenFOAM: The Open Source CFD Toolbox           |
|  \\    /   O peration     | Version:  2312                                  |
|   \\  /    A nd           | Website:  www.openfoam.com                      |
|    \\/     M anipulation  |                                                 |
\*---------------------------------------------------------------------------*/
FoamFile
{
    version     2.0;
    format      ascii;
    arch        "LSB;label=32;scalar=64";
    class       volScalarField;
    location    "5.5";
    object      norm_k_field;
}
// * * * * * * * * * * * * * * * * * * * * * * * * * * * * * * * * * * * * * //

dimensions      [0 0 0 0 0 0 0];

internalField   nonuniform List<scalar> 
400
(
1.10227e+10
2.64297e+09
3.69997e+09
3.38208e+09
3.39645e+09
3.24145e+09
3.24978e+09
3.27918e+09
3.23002e+09
3.27571e+09
3.21124e+09
3.00432e+09
3.01143e+09
3.01422e+09
3.01343e+09
2.93702e+09
2.93324e+09
2.85091e+09
2.76022e+09
2.86272e+09
3.76185e+09
1.17649e+10
3.89913e+09
3.97884e+09
3.38507e+09
3.28451e+09
3.3975e+09
3.4771e+09
3.47553e+09
3.40568e+09
3.43576e+09
3.37549e+09
3.25261e+09
3.10574e+09
3.23267e+09
3.10354e+09
3.11285e+09
3.00349e+09
3.05512e+09
3.17175e+09
4.57363e+09
5.03646e+09
4.16021e+09
4.05398e+09
3.59883e+09
3.6602e+09
3.70563e+09
3.63742e+09
3.58591e+09
3.66429e+09
3.75686e+09
3.70554e+09
3.59443e+09
3.49083e+09
3.3464e+09
3.36575e+09
3.29266e+09
3.32404e+09
3.20653e+09
3.21982e+09
5.74294e+09
2.70275e+09
4.25272e+09
3.99784e+09
3.78642e+09
3.82254e+09
3.91985e+09
3.67705e+09
3.90265e+09
3.93637e+09
3.95738e+09
3.93304e+09
3.98621e+09
3.84665e+09
3.55934e+09
3.61346e+09
3.52158e+09
3.51649e+09
3.44628e+09
3.24513e+09
4.23125e+09
1.43055e+10
4.42742e+09
4.53669e+09
4.04949e+09
4.01809e+09
3.97568e+09
3.80767e+09
3.89938e+09
4.00582e+09
4.00184e+09
3.9505e+09
3.91838e+09
3.9351e+09
3.85778e+09
3.87882e+09
3.80087e+09
3.69638e+09
3.53984e+09
3.22745e+09
4.91708e+09
2.84454e+09
4.57926e+09
4.09354e+09
4.18859e+09
4.09645e+09
3.93673e+09
3.88003e+09
4.06349e+09
4.02972e+09
3.98284e+09
3.88932e+09
3.86249e+09
3.90836e+09
3.88842e+09
3.90807e+09
3.80554e+09
3.75039e+09
3.55343e+09
3.26889e+09
4.73443e+09
5.02534e+09
4.48152e+09
4.33863e+09
4.13941e+09
4.02571e+09
3.88034e+09
3.92082e+09
4.06299e+09
3.9007e+09
3.81277e+09
3.81376e+09
3.79889e+09
3.93198e+09
3.84614e+09
3.76302e+09
3.76288e+09
3.71513e+09
3.48713e+09
3.21247e+09
3.89745e+09
4.64545e+09
4.48395e+09
4.29375e+09
4.05784e+09
3.91709e+09
3.87125e+09
3.92539e+09
4.01471e+09
3.66065e+09
3.76672e+09
3.87785e+09
3.97755e+09
3.99708e+09
3.85237e+09
3.63886e+09
3.62474e+09
3.64172e+09
3.46605e+09
3.26216e+09
3.97522e+09
5.07132e+09
4.18297e+09
4.2609e+09
3.98449e+09
3.82381e+09
3.80038e+09
3.85727e+09
3.96862e+09
3.75449e+09
3.90797e+09
3.83434e+09
3.85807e+09
3.71948e+09
3.69155e+09
3.5047e+09
3.48875e+09
3.6867e+09
3.50638e+09
3.30255e+09
3.97393e+09
3.59995e+09
4.1444e+09
3.98909e+09
3.84819e+09
3.77006e+09
3.75766e+09
3.82168e+09
3.79285e+09
3.75678e+09
3.89996e+09
3.79905e+09
3.73997e+09
3.61098e+09
3.53865e+09
3.48637e+09
3.51512e+09
3.56466e+09
3.46025e+09
3.34278e+09
4.3049e+09
5.74406e+09
3.94721e+09
3.91974e+09
3.77763e+09
3.74553e+09
3.7787e+09
3.72176e+09
3.77428e+09
3.68317e+09
3.63649e+09
3.73944e+09
3.77494e+09
3.54847e+09
3.55324e+09
3.55279e+09
3.48414e+09
3.52504e+09
3.53218e+09
3.26976e+09
4.18731e+09
2.42036e+09
3.97533e+09
3.72111e+09
3.86464e+09
3.65279e+09
3.69252e+09
3.64081e+09
3.85401e+09
3.71399e+09
3.52794e+09
3.54289e+09
3.69912e+09
3.72269e+09
3.59944e+09
3.50991e+09
3.36376e+09
3.4911e+09
3.59077e+09
3.33821e+09
3.63665e+09
1.04268e+10
3.94078e+09
3.85282e+09
3.70918e+09
3.52588e+09
3.51498e+09
3.66777e+09
3.77113e+09
3.75736e+09
3.56349e+09
3.60585e+09
3.647e+09
3.63369e+09
3.61214e+09
3.6334e+09
3.49107e+09
3.44802e+09
3.56353e+09
3.58636e+09
3.73917e+09
2.52092e+09
3.98272e+09
3.56764e+09
3.75213e+09
3.46517e+09
3.3016e+09
3.65214e+09
3.74081e+09
3.75672e+09
3.72457e+09
3.64489e+09
3.54209e+09
3.6145e+09
3.61572e+09
3.83499e+09
3.70621e+09
3.59401e+09
3.57513e+09
3.42848e+09
3.3839e+09
5.24381e+09
3.60675e+09
3.71839e+09
3.49946e+09
3.41864e+09
3.28558e+09
3.59384e+09
3.79364e+09
3.76705e+09
3.82518e+09
3.69139e+09
3.697e+09
3.6575e+09
3.46809e+09
3.60865e+09
3.87555e+09
3.80962e+09
3.67098e+09
3.34897e+09
3.37644e+09
3.94746e+09
3.44618e+09
3.6041e+09
3.52521e+09
3.45486e+09
3.41734e+09
3.71982e+09
3.80452e+09
3.78171e+09
3.92268e+09
3.74421e+09
3.54945e+09
3.57974e+09
3.53475e+09
3.67382e+09
3.84257e+09
3.7771e+09
3.59503e+09
3.37378e+09
3.86297e+09
3.0412e+09
3.47957e+09
3.47794e+09
3.43758e+09
3.45854e+09
3.63433e+09
3.63995e+09
3.64707e+09
3.79652e+09
4.04497e+09
3.77348e+09
3.68618e+09
3.71992e+09
3.69612e+09
3.59483e+09
3.6683e+09
3.60637e+09
3.64134e+09
3.39138e+09
3.43392e+09
3.75223e+09
3.44287e+09
3.62952e+09
3.45612e+09
3.48935e+09
3.73032e+09
3.72758e+09
3.77599e+09
3.74279e+09
3.74388e+09
3.74412e+09
3.79263e+09
3.83189e+09
3.7057e+09
3.69962e+09
3.64293e+09
3.56942e+09
3.64105e+09
3.37605e+09
3.34699e+09
5.02931e+09
3.5092e+09
3.72839e+09
3.52861e+09
3.48297e+09
3.61658e+09
3.89782e+09
3.84342e+09
3.63565e+09
3.6563e+09
3.76318e+09
3.91665e+09
3.738e+09
3.73698e+09
3.74152e+09
3.5061e+09
3.61495e+09
3.68835e+09
3.51033e+09
4.58267e+09
2.74411e+09
3.72049e+09
3.60259e+09
3.58152e+09
3.60597e+09
3.75495e+09
3.80315e+09
3.75103e+09
3.60594e+09
3.65118e+09
3.68256e+09
3.86695e+09
3.74863e+09
3.63776e+09
3.43574e+09
3.56723e+09
3.76646e+09
3.64177e+09
3.4733e+09
)
;

boundaryField
{
    movingWall
    {
        type            calculated;
        value           nonuniform List<scalar> 
20
(
4.58267e+09
2.74411e+09
3.72049e+09
3.60259e+09
3.58152e+09
3.60597e+09
3.75495e+09
3.80315e+09
3.75103e+09
3.60594e+09
3.65118e+09
3.68256e+09
3.86695e+09
3.74863e+09
3.63776e+09
3.43574e+09
3.56723e+09
3.76646e+09
3.64177e+09
3.4733e+09
)
;
    }
    fixedWalls
    {
        type            calculated;
        value           nonuniform List<scalar> 
60
(
1.10227e+10
3.76185e+09
4.57363e+09
5.74294e+09
4.23125e+09
4.91708e+09
4.73443e+09
3.89745e+09
3.97522e+09
3.97393e+09
4.3049e+09
4.18731e+09
3.63665e+09
3.73917e+09
3.3839e+09
3.37644e+09
3.86297e+09
3.43392e+09
3.34699e+09
4.58267e+09
2.86272e+09
3.17175e+09
3.21982e+09
3.24513e+09
3.22745e+09
3.26889e+09
3.21247e+09
3.26216e+09
3.30255e+09
3.34278e+09
3.26976e+09
3.33821e+09
3.58636e+09
3.42848e+09
3.34897e+09
3.37378e+09
3.39138e+09
3.37605e+09
3.51033e+09
3.4733e+09
1.10227e+10
2.64297e+09
3.69997e+09
3.38208e+09
3.39645e+09
3.24145e+09
3.24978e+09
3.27918e+09
3.23002e+09
3.27571e+09
3.21124e+09
3.00432e+09
3.01143e+09
3.01422e+09
3.01343e+09
2.93702e+09
2.93324e+09
2.85091e+09
2.76022e+09
2.86272e+09
)
;
    }
    frontAndBack
    {
        type            empty;
    }
}


// ************************************************************************* //
