/*--------------------------------*- C++ -*----------------------------------*\
| =========                 |                                                 |
| \\      /  F ield         | OpenFOAM: The Open Source CFD Toolbox           |
|  \\    /   O peration     | Version:  2312                                  |
|   \\  /    A nd           | Website:  www.openfoam.com                      |
|    \\/     M anipulation  |                                                 |
\*---------------------------------------------------------------------------*/
FoamFile
{
    version     2.0;
    format      ascii;
    arch        "LSB;label=32;scalar=64";
    class       volVectorField;
    location    "5.5";
    object      norm_U_Lp;
}
// * * * * * * * * * * * * * * * * * * * * * * * * * * * * * * * * * * * * * //

dimensions      [0 0 0 0 0 0 0];

internalField   nonuniform List<vector> 
400
(
(-1 8.34675e-14 0)
(-1 -1.68118e-14 0)
(-1 4.03172e-15 0)
(-1 -7.85938e-16 0)
(-1 1.39152e-16 0)
(-1 -4.1693e-17 0)
(-1 6.12802e-17 0)
(-1 7.80524e-17 0)
(-1 7.22769e-17 0)
(-1 5.91372e-17 0)
(-1 8.51118e-17 0)
(-1 1.17514e-16 0)
(-1 1.13331e-17 0)
(-1 -6.91832e-17 0)
(-1 -5.3651e-17 0)
(-1 1.18255e-17 0)
(-1 6.8954e-17 0)
(-1 6.27987e-17 0)
(-1 1.20955e-16 0)
(-1 4.51294e-17 0)
(-1 4.85957e-14 0)
(-1 -1.00768e-14 0)
(-1 2.51013e-15 0)
(-1 -4.47697e-16 0)
(-1 1.16771e-16 0)
(-1 2.75653e-17 0)
(-1 2.37052e-17 0)
(-1 -8.36213e-18 0)
(-1 3.76185e-17 0)
(-1 7.45979e-17 0)
(-1 8.86721e-17 0)
(-1 9.17678e-17 0)
(-1 -2.86096e-17 0)
(-1 -1.65906e-16 0)
(-1 -1.71519e-16 0)
(-1 -2.93352e-17 0)
(-1 2.45304e-17 0)
(-1 4.11089e-17 0)
(-1 4.25086e-17 0)
(-1 -4.02948e-17 0)
(-1 -1.26583e-13 0)
(-1 2.66687e-14 0)
(-1 -6.45463e-15 0)
(-1 1.26077e-15 0)
(-1 -2.61778e-16 0)
(-1 2.04294e-16 0)
(-1 9.42204e-17 0)
(-1 8.59203e-17 0)
(-1 2.10148e-16 0)
(-1 2.84834e-16 0)
(-1 2.62865e-16 0)
(-1 1.95521e-16 0)
(-1 1.08016e-16 0)
(-1 -5.01482e-17 0)
(-1 -1.99669e-16 0)
(-1 -1.66058e-16 0)
(-1 -1.2189e-16 0)
(-1 -8.9427e-17 0)
(-1 -1.55994e-16 0)
(-1 -1.55158e-16 0)
(-1 8.05764e-14 0)
(-1 -1.72796e-14 0)
(-1 4.053e-15 0)
(-1 -8.66105e-16 0)
(-1 2.86891e-16 0)
(-1 2.04633e-17 0)
(-1 6.2776e-17 0)
(-1 1.10656e-16 0)
(-1 1.47694e-16 0)
(-1 1.71903e-16 0)
(-1 1.4545e-16 0)
(-1 9.91596e-17 0)
(-1 1.3354e-16 0)
(-1 1.68263e-16 0)
(-1 9.10392e-17 0)
(-1 -2.28018e-17 0)
(-1 -9.82496e-17 0)
(-1 -1.70221e-16 0)
(-1 -1.99998e-16 0)
(-1 -1.26748e-16 0)
(-1 -7.88327e-15 0)
(-1 2.16538e-15 0)
(-1 -5.12111e-16 0)
(-1 5.23596e-17 0)
(-1 -3.19919e-17 0)
(-1 6.29766e-18 0)
(-1 -5.20175e-17 0)
(-1 -3.53263e-17 0)
(-1 -5.05901e-17 0)
(-1 -6.86363e-17 0)
(-1 -9.18535e-17 0)
(-1 -1.05205e-16 0)
(-1 -6.54353e-19 0)
(-1 1.76492e-16 0)
(-1 2.51365e-16 0)
(-1 1.49942e-16 0)
(-1 -7.23353e-17 0)
(-1 -1.43712e-16 0)
(-1 -1.24028e-16 0)
(-1 -6.03407e-17 0)
(-1 -3.68944e-14 0)
(-1 7.06734e-15 0)
(-1 -1.62434e-15 0)
(-1 3.88204e-16 0)
(-1 1.30116e-17 0)
(-1 1.16015e-16 0)
(-1 8.90135e-17 0)
(-1 5.58131e-17 0)
(-1 5.16988e-17 0)
(-1 -1.67009e-17 0)
(-1 -5.24845e-17 0)
(-1 -4.98738e-17 0)
(-1 -1.64613e-17 0)
(-1 9.01674e-17 0)
(-1 1.13463e-16 0)
(-1 4.27929e-17 0)
(-1 -1.50876e-17 0)
(-1 -5.1719e-18 0)
(-1 8.33128e-18 0)
(-1 -3.13172e-17 0)
(-1 3.162e-14 0)
(-1 -5.98966e-15 0)
(-1 1.47323e-15 0)
(-1 -2.52114e-16 0)
(-1 -7.76687e-17 0)
(-1 -1.64593e-16 0)
(-1 -4.38649e-17 0)
(-1 -1.18492e-17 0)
(-1 -5.92488e-17 0)
(-1 -6.06814e-17 0)
(-1 2.2357e-17 0)
(-1 1.0943e-16 0)
(-1 1.21901e-16 0)
(-1 1.33565e-16 0)
(-1 1.06911e-16 0)
(-1 2.07453e-17 0)
(-1 1.21412e-16 0)
(-1 1.57282e-16 0)
(-1 7.24647e-17 0)
(-1 -1.84306e-17 0)
(-1 -4.98819e-15 0)
(-1 1.28397e-15 0)
(-1 -4.36679e-16 0)
(-1 -3.13212e-18 0)
(-1 -1.44812e-16 0)
(-1 -9.27847e-17 0)
(-1 1.02759e-17 0)
(-1 9.74505e-17 0)
(-1 1.07658e-16 0)
(-1 4.16328e-17 0)
(-1 2.82182e-17 0)
(-1 -2.01981e-17 0)
(-1 -3.99348e-18 0)
(-1 -4.79227e-17 0)
(-1 -4.42924e-17 0)
(-1 -3.02521e-17 0)
(-1 1.1888e-16 0)
(-1 2.13405e-16 0)
(-1 1.30052e-16 0)
(-1 2.8609e-17 0)
(-1 -3.26242e-15 0)
(-1 6.00044e-17 0)
(-1 -1.54369e-16 0)
(-1 -1.17739e-16 0)
(-1 3.03401e-17 0)
(-1 1.07955e-16 0)
(-1 1.33334e-16 0)
(-1 1.77e-16 0)
(-1 1.60577e-16 0)
(-1 8.41403e-17 0)
(-1 -1.96192e-17 0)
(-1 -1.61515e-16 0)
(-1 -1.91535e-16 0)
(-1 -1.73682e-16 0)
(-1 -1.06769e-16 0)
(-1 -2.22558e-17 0)
(-1 1.70202e-17 0)
(-1 7.00902e-17 0)
(-1 9.13686e-17 0)
(-1 2.32536e-17 0)
(-1 1.90268e-15 0)
(-1 -2.15529e-17 0)
(-1 -2.18964e-16 0)
(-1 -2.0051e-16 0)
(-1 -1.78787e-16 0)
(-1 -6.55861e-17 0)
(-1 -4.07825e-17 0)
(-1 -7.39179e-17 0)
(-1 -1.24831e-16 0)
(-1 -1.15736e-16 0)
(-1 -1.34491e-16 0)
(-1 -3.5982e-17 0)
(-1 -9.81089e-18 0)
(-1 1.39768e-17 0)
(-1 1.05453e-16 0)
(-1 1.25725e-16 0)
(-1 -2.28887e-19 0)
(-1 -2.18098e-17 0)
(-1 6.62062e-17 0)
(-1 -2.11832e-17 0)
(-1 -5.3626e-15 0)
(-1 6.31289e-17 0)
(-1 1.05592e-17 0)
(-1 -1.22031e-17 0)
(-1 1.00361e-17 0)
(-1 -1.36186e-16 0)
(-1 -1.46316e-16 0)
(-1 -1.75321e-16 0)
(-1 -5.35152e-17 0)
(-1 -2.91834e-17 0)
(-1 -5.6552e-17 0)
(-1 -1.04209e-18 0)
(-1 1.14371e-16 0)
(-1 7.71769e-17 0)
(-1 -1.38899e-17 0)
(-1 -5.05369e-17 0)
(-1 -8.49649e-17 0)
(-1 -8.15471e-18 0)
(-1 8.80201e-17 0)
(-1 2.63258e-18 0)
(-1 9.2337e-15 0)
(-1 -1.3538e-15 0)
(-1 3.31913e-16 0)
(-1 3.70868e-17 0)
(-1 1.52558e-16 0)
(-1 5.24779e-17 0)
(-1 7.73206e-18 0)
(-1 4.00489e-17 0)
(-1 1.1848e-16 0)
(-1 1.66182e-16 0)
(-1 6.22022e-17 0)
(-1 -1.47472e-17 0)
(-1 -3.45179e-17 0)
(-1 -3.02585e-17 0)
(-1 -6.1281e-17 0)
(-1 2.53506e-17 0)
(-1 6.38857e-17 0)
(-1 3.19983e-17 0)
(-1 6.71345e-17 0)
(-1 1.12645e-16 0)
(-1 5.67892e-15 0)
(-1 -1.01745e-15 0)
(-1 4.10143e-16 0)
(-1 7.53238e-17 0)
(-1 1.9954e-16 0)
(-1 7.53324e-17 0)
(-1 -3.58592e-17 0)
(-1 -9.97536e-18 0)
(-1 -1.2496e-16 0)
(-1 -1.22169e-16 0)
(-1 -1.45762e-16 0)
(-1 -1.54235e-16 0)
(-1 -1.84457e-16 0)
(-1 -6.69078e-17 0)
(-1 8.40422e-17 0)
(-1 2.56288e-16 0)
(-1 1.94134e-16 0)
(-1 -2.23495e-17 0)
(-1 -7.25014e-17 0)
(-1 3.04262e-17 0)
(-1 -2.65292e-14 0)
(-1 5.55809e-15 0)
(-1 -1.15048e-15 0)
(-1 2.40913e-16 0)
(-1 -2.14444e-16 0)
(-1 -1.31015e-16 0)
(-1 -8.07173e-17 0)
(-1 7.98708e-17 0)
(-1 1.03617e-16 0)
(-1 1.03696e-16 0)
(-1 1.5345e-16 0)
(-1 3.58475e-17 0)
(-1 -2.95432e-18 0)
(-1 -2.56411e-17 0)
(-1 -1.19792e-16 0)
(-1 -1.12485e-16 0)
(-1 7.28081e-19 0)
(-1 -1.98885e-17 0)
(-1 -1.20014e-16 0)
(-1 -1.06393e-16 0)
(-1 4.56139e-14 0)
(-1 -9.20098e-15 0)
(-1 1.95024e-15 0)
(-1 -5.49385e-16 0)
(-1 -1.08039e-16 0)
(-1 -6.39613e-17 0)
(-1 3.47433e-17 0)
(-1 8.26354e-17 0)
(-1 1.53836e-16 0)
(-1 1.92492e-16 0)
(-1 2.81721e-16 0)
(-1 1.61599e-16 0)
(-1 -1.33597e-17 0)
(-1 -3.94629e-17 0)
(-1 -7.91784e-17 0)
(-1 -1.38424e-16 0)
(-1 -3.7909e-17 0)
(-1 -9.21006e-18 0)
(-1 -7.43035e-17 0)
(-1 -5.052e-17 0)
(-1 -3.44431e-14 0)
(-1 6.81521e-15 0)
(-1 -1.76235e-15 0)
(-1 1.70221e-16 0)
(-1 -1.82172e-16 0)
(-1 -1.23273e-17 0)
(-1 4.38531e-17 0)
(-1 -1.21147e-16 0)
(-1 -1.23252e-16 0)
(-1 -9.4872e-19 0)
(-1 8.88715e-17 0)
(-1 6.74368e-17 0)
(-1 -7.34018e-17 0)
(-1 -8.48045e-17 0)
(-1 -3.31642e-17 0)
(-1 -1.46258e-16 0)
(-1 -2.46346e-16 0)
(-1 -2.0856e-16 0)
(-1 -5.91651e-17 0)
(-1 1.15679e-17 0)
(-1 -6.27671e-15 0)
(-1 1.46834e-15 0)
(-1 -3.26109e-16 0)
(-1 1.03398e-16 0)
(-1 -4.96603e-17 0)
(-1 5.67391e-17 0)
(-1 1.73541e-16 0)
(-1 7.26322e-17 0)
(-1 9.96922e-17 0)
(-1 8.584e-17 0)
(-1 -6.90106e-17 0)
(-1 -4.04564e-17 0)
(-1 1.14557e-17 0)
(-1 -7.82222e-17 0)
(-1 -1.71327e-16 0)
(-1 -2.62691e-16 0)
(-1 -2.80918e-16 0)
(-1 -1.4564e-16 0)
(-1 1.44488e-17 0)
(-1 7.92876e-19 0)
(-1 4.06997e-14 0)
(-1 -8.39646e-15 0)
(-1 1.85987e-15 0)
(-1 -3.85581e-16 0)
(-1 6.97364e-17 0)
(-1 -6.26704e-17 0)
(-1 -4.36044e-17 0)
(-1 6.29378e-17 0)
(-1 -1.4334e-17 0)
(-1 -2.01754e-16 0)
(-1 -2.45681e-16 0)
(-1 -9.64845e-17 0)
(-1 2.4871e-17 0)
(-1 -2.73467e-17 0)
(-1 -5.16703e-17 0)
(-1 -9.05625e-17 0)
(-1 -1.26577e-16 0)
(-1 5.69029e-17 0)
(-1 1.14855e-16 0)
(-1 3.00818e-17 0)
(-1 -4.35418e-15 0)
(-1 9.33924e-18 0)
(-1 -1.08535e-16 0)
(-1 -1.5993e-16 0)
(-1 -3.84367e-17 0)
(-1 -1.07458e-16 0)
(-1 -1.66283e-16 0)
(-1 -1.20047e-16 0)
(-1 -1.41091e-16 0)
(-1 -1.59267e-16 0)
(-1 -7.66646e-17 0)
(-1 -2.67976e-17 0)
(-1 9.5564e-18 0)
(-1 -8.73119e-17 0)
(-1 -1.17092e-16 0)
(-1 -1.54848e-16 0)
(-1 -9.3898e-17 0)
(-1 8.22053e-18 0)
(-1 -3.0222e-17 0)
(-1 1.3086e-17 0)
(-1 -6.46566e-14 0)
(-1 1.36091e-14 0)
(-1 -3.18604e-15 0)
(-1 6.70272e-16 0)
(-1 -1.0186e-16 0)
(-1 8.56632e-17 0)
(-1 -1.6454e-17 0)
(-1 -9.44024e-17 0)
(-1 -3.29391e-17 0)
(-1 4.35352e-17 0)
(-1 5.70955e-17 0)
(-1 1.7174e-17 0)
(-1 -3.63651e-18 0)
(-1 -6.87358e-17 0)
(-1 -1.26575e-16 0)
(-1 -1.16401e-16 0)
(-1 -1.2496e-17 0)
(-1 -4.07575e-17 0)
(-1 -1.205e-16 0)
(-1 -2.56423e-17 0)
)
;

boundaryField
{
    movingWall
    {
        type            calculated;
        value           uniform (-1 -0 -0);
    }
    fixedWalls
    {
        type            calculated;
        value           uniform (-1 -0 -0);
    }
    frontAndBack
    {
        type            empty;
    }
}


// ************************************************************************* //
