/*--------------------------------*- C++ -*----------------------------------*\
| =========                 |                                                 |
| \\      /  F ield         | OpenFOAM: The Open Source CFD Toolbox           |
|  \\    /   O peration     | Version:  2312                                  |
|   \\  /    A nd           | Website:  www.openfoam.com                      |
|    \\/     M anipulation  |                                                 |
\*---------------------------------------------------------------------------*/
FoamFile
{
    version     2.0;
    format      ascii;
    arch        "LSB;label=32;scalar=64";
    class       volScalarField;
    location    "5.5";
    object      nut;
}
// * * * * * * * * * * * * * * * * * * * * * * * * * * * * * * * * * * * * * //

dimensions      [0 2 -1 0 0 0 0];

internalField   nonuniform List<scalar> 
400
(
1.85694e-06
1.85694e-06
1.85693e-06
1.85694e-06
1.85693e-06
1.85693e-06
1.85693e-06
1.85693e-06
1.85693e-06
1.85693e-06
1.85693e-06
1.85693e-06
1.85693e-06
1.85693e-06
1.85693e-06
1.85693e-06
1.85693e-06
1.85693e-06
1.85693e-06
1.85693e-06
1.91789e-06
1.95771e-06
1.95407e-06
1.95255e-06
1.94956e-06
1.94802e-06
1.94507e-06
1.9435e-06
1.94059e-06
1.93898e-06
1.93612e-06
1.93447e-06
1.93166e-06
1.92997e-06
1.9272e-06
1.92548e-06
1.92274e-06
1.92099e-06
1.91963e-06
1.91741e-06
1.9986e-06
2.04253e-06
2.03846e-06
2.03674e-06
2.03341e-06
2.03168e-06
2.0284e-06
2.02666e-06
2.02344e-06
2.02165e-06
2.0185e-06
2.01667e-06
2.01359e-06
2.01173e-06
2.0087e-06
2.00682e-06
2.00384e-06
2.00194e-06
2.00045e-06
1.99804e-06
2.06691e-06
2.11408e-06
2.10968e-06
2.10784e-06
2.10426e-06
2.10241e-06
2.09888e-06
2.097e-06
2.09356e-06
2.09162e-06
2.08826e-06
2.08628e-06
2.08298e-06
2.08097e-06
2.07773e-06
2.0757e-06
2.07251e-06
2.07047e-06
2.06887e-06
2.06629e-06
2.11365e-06
2.16315e-06
2.15855e-06
2.15662e-06
2.15284e-06
2.15092e-06
2.14719e-06
2.14525e-06
2.14158e-06
2.1396e-06
2.13602e-06
2.13399e-06
2.13049e-06
2.12841e-06
2.12499e-06
2.12288e-06
2.11951e-06
2.11738e-06
2.1157e-06
2.11299e-06
2.14229e-06
2.19326e-06
2.18848e-06
2.1865e-06
2.18263e-06
2.18063e-06
2.17681e-06
2.17479e-06
2.17104e-06
2.16898e-06
2.1653e-06
2.16321e-06
2.15961e-06
2.15747e-06
2.15394e-06
2.15177e-06
2.14831e-06
2.14611e-06
2.14438e-06
2.14159e-06
2.15902e-06
2.21084e-06
2.20602e-06
2.20398e-06
2.20005e-06
2.19801e-06
2.19413e-06
2.19206e-06
2.18827e-06
2.18615e-06
2.18244e-06
2.18027e-06
2.17664e-06
2.17444e-06
2.17088e-06
2.16865e-06
2.16514e-06
2.1629e-06
2.16115e-06
2.15831e-06
2.16894e-06
2.22128e-06
2.2164e-06
2.21436e-06
2.21036e-06
2.20832e-06
2.2044e-06
2.2023e-06
2.19848e-06
2.19633e-06
2.19259e-06
2.1904e-06
2.18674e-06
2.18451e-06
2.18091e-06
2.17867e-06
2.17512e-06
2.17286e-06
2.17109e-06
2.16823e-06
2.17534e-06
2.228e-06
2.22306e-06
2.22102e-06
2.217e-06
2.21495e-06
2.211e-06
2.2089e-06
2.20505e-06
2.20289e-06
2.19912e-06
2.19693e-06
2.19323e-06
2.191e-06
2.18737e-06
2.18511e-06
2.18155e-06
2.17927e-06
2.17749e-06
2.17461e-06
2.18007e-06
2.23297e-06
2.228e-06
2.22596e-06
2.22193e-06
2.21985e-06
2.21589e-06
2.21378e-06
2.20991e-06
2.20774e-06
2.20396e-06
2.20175e-06
2.19804e-06
2.19579e-06
2.19216e-06
2.18988e-06
2.18631e-06
2.18401e-06
2.18223e-06
2.17933e-06
2.18414e-06
2.23724e-06
2.23229e-06
2.23022e-06
2.22616e-06
2.22409e-06
2.2201e-06
2.218e-06
2.21409e-06
2.21194e-06
2.20811e-06
2.20592e-06
2.20217e-06
2.19994e-06
2.19627e-06
2.194e-06
2.1904e-06
2.18811e-06
2.18631e-06
2.18341e-06
2.18813e-06
2.24144e-06
2.23642e-06
2.23437e-06
2.2303e-06
2.22821e-06
2.22422e-06
2.22208e-06
2.21819e-06
2.21601e-06
2.21218e-06
2.20996e-06
2.20623e-06
2.20397e-06
2.2003e-06
2.19801e-06
2.1944e-06
2.1921e-06
2.1903e-06
2.18738e-06
2.19231e-06
2.24582e-06
2.24082e-06
2.23873e-06
2.23466e-06
2.23256e-06
2.22855e-06
2.22642e-06
2.22249e-06
2.22031e-06
2.21647e-06
2.21425e-06
2.21049e-06
2.20822e-06
2.20454e-06
2.20224e-06
2.19862e-06
2.1963e-06
2.19449e-06
2.19156e-06
2.19691e-06
2.25065e-06
2.24564e-06
2.24352e-06
2.23945e-06
2.23733e-06
2.23331e-06
2.23117e-06
2.22722e-06
2.22504e-06
2.22117e-06
2.21895e-06
2.21516e-06
2.2129e-06
2.20919e-06
2.20689e-06
2.20325e-06
2.20092e-06
2.19911e-06
2.19616e-06
2.20208e-06
2.25607e-06
2.25105e-06
2.24892e-06
2.24483e-06
2.24269e-06
2.23866e-06
2.2365e-06
2.23254e-06
2.23033e-06
2.22646e-06
2.22421e-06
2.22043e-06
2.21813e-06
2.21442e-06
2.2121e-06
2.20845e-06
2.2061e-06
2.20429e-06
2.20133e-06
2.20787e-06
2.26215e-06
2.25711e-06
2.25496e-06
2.25086e-06
2.2487e-06
2.24466e-06
2.24247e-06
2.2385e-06
2.23629e-06
2.23238e-06
2.23014e-06
2.22631e-06
2.22402e-06
2.22028e-06
2.21795e-06
2.21427e-06
2.21192e-06
2.21009e-06
2.20712e-06
2.21417e-06
2.26877e-06
2.26368e-06
2.26153e-06
2.2574e-06
2.25524e-06
2.25115e-06
2.24897e-06
2.24496e-06
2.24274e-06
2.23882e-06
2.23655e-06
2.23271e-06
2.2304e-06
2.22664e-06
2.2243e-06
2.22061e-06
2.21824e-06
2.2164e-06
2.21341e-06
2.22047e-06
2.27537e-06
2.27021e-06
2.26809e-06
2.2639e-06
2.26175e-06
2.25763e-06
2.25545e-06
2.25141e-06
2.24918e-06
2.24523e-06
2.24295e-06
2.23911e-06
2.23677e-06
2.233e-06
2.23064e-06
2.22692e-06
2.22454e-06
2.22269e-06
2.21969e-06
2.22573e-06
2.27973e-06
2.27479e-06
2.2727e-06
2.26866e-06
2.26655e-06
2.26256e-06
2.26039e-06
2.25649e-06
2.25424e-06
2.25043e-06
2.24811e-06
2.24437e-06
2.24199e-06
2.23831e-06
2.23589e-06
2.23226e-06
2.22981e-06
2.22799e-06
2.22497e-06
2.22807e-06
2.22806e-06
2.22806e-06
2.22806e-06
2.22806e-06
2.22806e-06
2.22806e-06
2.22806e-06
2.22806e-06
2.22805e-06
2.22806e-06
2.22805e-06
2.22805e-06
2.22805e-06
2.22805e-06
2.22805e-06
2.22805e-06
2.22805e-06
2.22805e-06
2.22805e-06
)
;

boundaryField
{
    movingWall
    {
        type            nutkWallFunction;
        blending        stepwise;
        value           uniform 0;
    }
    fixedWalls
    {
        type            nutkWallFunction;
        blending        stepwise;
        value           uniform 0;
    }
    frontAndBack
    {
        type            empty;
    }
}


// ************************************************************************* //
