/*--------------------------------*- C++ -*----------------------------------*\
| =========                 |                                                 |
| \\      /  F ield         | OpenFOAM: The Open Source CFD Toolbox           |
|  \\    /   O peration     | Version:  2312                                  |
|   \\  /    A nd           | Website:  www.openfoam.com                      |
|    \\/     M anipulation  |                                                 |
\*---------------------------------------------------------------------------*/
FoamFile
{
    version     2.0;
    format      ascii;
    arch        "LSB;label=32;scalar=64";
    class       volScalarField;
    location    "5.5";
    object      P_A;
}
// * * * * * * * * * * * * * * * * * * * * * * * * * * * * * * * * * * * * * //

dimensions      [1 -1 -3 0 0 0 0];

internalField   nonuniform List<scalar> 
400
(
2.95743e-31
2.9574e-31
2.9574e-31
2.95737e-31
2.95737e-31
2.95735e-31
2.95734e-31
2.95733e-31
2.95732e-31
2.95731e-31
2.95731e-31
2.9573e-31
2.95731e-31
2.9573e-31
2.9573e-31
2.95729e-31
2.9573e-31
2.95729e-31
2.95729e-31
2.95729e-31
3.83927e-31
3.76118e-31
3.76678e-31
3.76904e-31
3.77382e-31
3.77622e-31
3.78109e-31
3.78365e-31
3.78859e-31
3.7913e-31
3.79632e-31
3.7992e-31
3.80429e-31
3.80735e-31
3.81248e-31
3.81573e-31
3.82093e-31
3.82434e-31
3.82698e-31
3.83138e-31
5.35315e-31
5.23793e-31
5.24629e-31
5.24961e-31
5.25674e-31
5.26025e-31
5.26745e-31
5.27121e-31
5.27855e-31
5.28247e-31
5.28992e-31
5.29406e-31
5.3016e-31
5.30598e-31
5.31359e-31
5.31822e-31
5.3259e-31
5.33077e-31
5.33464e-31
5.34103e-31
7.01601e-31
6.85939e-31
6.8706e-31
6.87509e-31
6.88472e-31
6.88946e-31
6.89923e-31
6.90425e-31
6.91426e-31
6.91949e-31
6.92966e-31
6.93519e-31
6.94547e-31
6.95136e-31
6.96172e-31
6.96798e-31
6.97842e-31
6.98503e-31
6.99029e-31
6.99897e-31
8.39756e-31
8.20528e-31
8.219e-31
8.22453e-31
8.23619e-31
8.2421e-31
8.2539e-31
8.26023e-31
8.27219e-31
8.27889e-31
8.29104e-31
8.29809e-31
8.31045e-31
8.31788e-31
8.33039e-31
8.33822e-31
8.35091e-31
8.3591e-31
8.36551e-31
8.37618e-31
9.3554e-31
9.13794e-31
9.15323e-31
9.15953e-31
9.17275e-31
9.17933e-31
9.19276e-31
9.19979e-31
9.21339e-31
9.22087e-31
9.23466e-31
9.24259e-31
9.25655e-31
9.26495e-31
9.27907e-31
9.28793e-31
9.30227e-31
9.31154e-31
9.31879e-31
9.33086e-31
9.95807e-31
9.72453e-31
9.74108e-31
9.74766e-31
9.76189e-31
9.76891e-31
9.78334e-31
9.79079e-31
9.80551e-31
9.81336e-31
9.82834e-31
9.83665e-31
9.85183e-31
9.86065e-31
9.87599e-31
9.88535e-31
9.90084e-31
9.91073e-31
9.91854e-31
9.93149e-31
1.03312e-30
1.00877e-30
1.01049e-30
1.01119e-30
1.01265e-30
1.01339e-30
1.01489e-30
1.01567e-30
1.01721e-30
1.01802e-30
1.01958e-30
1.02045e-30
1.02203e-30
1.02295e-30
1.02454e-30
1.02553e-30
1.02714e-30
1.02817e-30
1.02898e-30
1.03034e-30
1.05779e-30
1.03278e-30
1.03453e-30
1.03526e-30
1.03676e-30
1.03752e-30
1.03906e-30
1.03986e-30
1.04144e-30
1.04228e-30
1.04388e-30
1.04477e-30
1.04639e-30
1.04734e-30
1.04897e-30
1.04998e-30
1.05164e-30
1.0527e-30
1.05353e-30
1.05492e-30
1.07639e-30
1.05088e-30
1.05266e-30
1.0534e-30
1.05494e-30
1.05571e-30
1.05728e-30
1.0581e-30
1.0597e-30
1.06056e-30
1.06219e-30
1.0631e-30
1.06476e-30
1.06572e-30
1.06739e-30
1.06841e-30
1.07011e-30
1.07119e-30
1.07204e-30
1.07345e-30
1.09268e-30
1.06673e-30
1.06856e-30
1.0693e-30
1.07085e-30
1.07165e-30
1.07323e-30
1.07408e-30
1.07569e-30
1.07658e-30
1.07822e-30
1.07916e-30
1.08083e-30
1.08183e-30
1.08351e-30
1.08457e-30
1.08628e-30
1.08738e-30
1.08825e-30
1.08969e-30
1.10878e-30
1.0824e-30
1.08423e-30
1.085e-30
1.08659e-30
1.08738e-30
1.08901e-30
1.08985e-30
1.09151e-30
1.09239e-30
1.09408e-30
1.09502e-30
1.09673e-30
1.09773e-30
1.09946e-30
1.10052e-30
1.10226e-30
1.10338e-30
1.10426e-30
1.10573e-30
1.12596e-30
1.09912e-30
1.101e-30
1.10177e-30
1.10338e-30
1.10419e-30
1.10584e-30
1.1067e-30
1.10838e-30
1.10929e-30
1.111e-30
1.11196e-30
1.1137e-30
1.11472e-30
1.11647e-30
1.11755e-30
1.11933e-30
1.12046e-30
1.12136e-30
1.12285e-30
1.14511e-30
1.11776e-30
1.11969e-30
1.12046e-30
1.12212e-30
1.12293e-30
1.12462e-30
1.12549e-30
1.1272e-30
1.12813e-30
1.12987e-30
1.13085e-30
1.13261e-30
1.13366e-30
1.13544e-30
1.13655e-30
1.13835e-30
1.13951e-30
1.14043e-30
1.14194e-30
1.16696e-30
1.13902e-30
1.14099e-30
1.14177e-30
1.14347e-30
1.1443e-30
1.14602e-30
1.14691e-30
1.14866e-30
1.1496e-30
1.15139e-30
1.15238e-30
1.15419e-30
1.15525e-30
1.15708e-30
1.1582e-30
1.16005e-30
1.16123e-30
1.16217e-30
1.16372e-30
1.1919e-30
1.16329e-30
1.16531e-30
1.16611e-30
1.16785e-30
1.16869e-30
1.17047e-30
1.17137e-30
1.17316e-30
1.17413e-30
1.17595e-30
1.17698e-30
1.17882e-30
1.17991e-30
1.18177e-30
1.18293e-30
1.18482e-30
1.18603e-30
1.18699e-30
1.18857e-30
1.21954e-30
1.19018e-30
1.19224e-30
1.19306e-30
1.19485e-30
1.19572e-30
1.19752e-30
1.19846e-30
1.20029e-30
1.20128e-30
1.20315e-30
1.2042e-30
1.2061e-30
1.20721e-30
1.20913e-30
1.21031e-30
1.21225e-30
1.2135e-30
1.21448e-30
1.21611e-30
1.2477e-30
1.21759e-30
1.21968e-30
1.22055e-30
1.22235e-30
1.22326e-30
1.2251e-30
1.22606e-30
1.22794e-30
1.22896e-30
1.23087e-30
1.23195e-30
1.2339e-30
1.23504e-30
1.23701e-30
1.23822e-30
1.24021e-30
1.24149e-30
1.24249e-30
1.24417e-30
1.27175e-30
1.24163e-30
1.2437e-30
1.24453e-30
1.24633e-30
1.24721e-30
1.24905e-30
1.25e-30
1.25188e-30
1.25289e-30
1.25481e-30
1.25589e-30
1.25784e-30
1.259e-30
1.26097e-30
1.26221e-30
1.26421e-30
1.26554e-30
1.26655e-30
1.26825e-30
1.28253e-30
1.28252e-30
1.28251e-30
1.2825e-30
1.2825e-30
1.28249e-30
1.28249e-30
1.28249e-30
1.28248e-30
1.28248e-30
1.28247e-30
1.28247e-30
1.28247e-30
1.28247e-30
1.28247e-30
1.28247e-30
1.28247e-30
1.28247e-30
1.28247e-30
1.28247e-30
)
;

boundaryField
{
    movingWall
    {
        type            calculated;
        value           nonuniform List<scalar> 
20
(
1.28253e-30
1.28252e-30
1.28251e-30
1.2825e-30
1.2825e-30
1.28249e-30
1.28249e-30
1.28249e-30
1.28248e-30
1.28248e-30
1.28247e-30
1.28247e-30
1.28247e-30
1.28247e-30
1.28247e-30
1.28247e-30
1.28247e-30
1.28247e-30
1.28247e-30
1.28247e-30
)
;
    }
    fixedWalls
    {
        type            calculated;
        value           nonuniform List<scalar> 
60
(
2.95743e-31
3.83927e-31
5.35315e-31
7.01601e-31
8.39756e-31
9.3554e-31
9.95807e-31
1.03312e-30
1.05779e-30
1.07639e-30
1.09268e-30
1.10878e-30
1.12596e-30
1.14511e-30
1.16696e-30
1.1919e-30
1.21954e-30
1.2477e-30
1.27175e-30
1.28253e-30
2.95729e-31
3.83138e-31
5.34103e-31
6.99897e-31
8.37618e-31
9.33086e-31
9.93149e-31
1.03034e-30
1.05492e-30
1.07345e-30
1.08969e-30
1.10573e-30
1.12285e-30
1.14194e-30
1.16372e-30
1.18857e-30
1.21611e-30
1.24417e-30
1.26825e-30
1.28247e-30
2.95743e-31
2.9574e-31
2.9574e-31
2.95737e-31
2.95737e-31
2.95735e-31
2.95734e-31
2.95733e-31
2.95732e-31
2.95731e-31
2.95731e-31
2.9573e-31
2.95731e-31
2.9573e-31
2.9573e-31
2.95729e-31
2.9573e-31
2.95729e-31
2.95729e-31
2.95729e-31
)
;
    }
    frontAndBack
    {
        type            empty;
    }
}


// ************************************************************************* //
