/*--------------------------------*- C++ -*----------------------------------*\
| =========                 |                                                 |
| \\      /  F ield         | OpenFOAM: The Open Source CFD Toolbox           |
|  \\    /   O peration     | Version:  2312                                  |
|   \\  /    A nd           | Website:  www.openfoam.com                      |
|    \\/     M anipulation  |                                                 |
\*---------------------------------------------------------------------------*/
FoamFile
{
    version     2.0;
    format      ascii;
    arch        "LSB;label=32;scalar=64";
    class       surfaceScalarField;
    location    "5.5";
    object      PecletNoField;
}
// * * * * * * * * * * * * * * * * * * * * * * * * * * * * * * * * * * * * * //

dimensions      [0 0 0 0 0 0 0];

oriented        oriented;

internalField   nonuniform List<scalar> 
760
(
421.694
3.23827e-12
421.694
4.48643e-12
421.694
1.3887e-12
421.694
1.75196e-13
421.694
3.52923e-14
421.694
3.42334e-14
421.694
4.5332e-15
421.694
1.70437e-14
421.694
3.63128e-14
421.694
2.4066e-14
421.694
3.52851e-14
421.694
6.27094e-14
421.694
1.10253e-15
421.694
5.60656e-14
421.694
3.72876e-14
421.694
1.88839e-14
421.694
2.16824e-14
421.694
3.86905e-15
421.694
5.75437e-14
5.44749e-14
418.838
2.08747e-12
418.204
2.74347e-12
418.294
8.32565e-13
418.373
1.26348e-13
418.452
2.01057e-14
418.531
8.52703e-14
418.61
5.0274e-14
418.689
1.23713e-14
418.768
2.00427e-14
418.846
7.40927e-14
418.925
7.75549e-14
419.004
5.30572e-14
419.083
1.74895e-14
419.161
3.67472e-14
419.24
1.03284e-13
419.318
4.13086e-14
419.397
2.9786e-14
419.452
4.13911e-15
419.515
4.22881e-14
7.77238e-14
415.954
9.93112e-13
415.265
1.22032e-12
415.365
4.97827e-13
415.452
2.51054e-14
415.54
2.05983e-15
415.626
2.189e-14
415.713
2.49018e-14
415.799
2.62753e-14
415.885
1.05389e-13
415.971
1.03389e-13
416.057
8.81607e-14
416.142
7.58884e-14
416.228
6.85648e-14
416.312
3.69149e-14
416.397
1.8172e-14
416.482
3.57879e-14
416.566
4.62087e-14
416.625
6.11226e-14
416.693
6.05391e-14
6.20498e-14
413.548
7.71345e-13
412.818
1.43608e-12
412.924
7.2592e-13
413.017
5.7801e-14
413.109
5.327e-14
413.201
2.71299e-14
413.294
1.52286e-15
413.384
3.42346e-14
413.476
5.5545e-15
413.567
5.29733e-15
413.658
2.77481e-15
413.749
1.95696e-14
413.84
4.88534e-15
413.93
5.52772e-14
414.02
9.25757e-14
414.109
3.48386e-14
414.199
1.94079e-14
414.262
4.98407e-14
414.333
7.40705e-14
5.52216e-14
411.916
1.64948e-13
411.155
2.60655e-13
411.266
4.11937e-13
411.363
1.88569e-14
411.459
6.235e-17
411.555
5.7383e-15
411.651
2.44317e-15
411.746
2.48294e-15
411.842
2.03606e-14
411.936
8.99955e-16
412.031
1.54556e-14
412.125
3.28384e-14
412.22
1.58433e-15
412.313
5.75843e-14
412.407
6.43404e-14
412.501
3.94961e-14
412.594
2.49071e-14
412.659
3.86067e-14
412.734
2.565e-14
6.22827e-17
410.922
1.28864e-12
410.143
1.14973e-12
410.257
7.42067e-14
410.355
9.43852e-14
410.454
1.79655e-14
410.552
7.99057e-15
410.651
9.49895e-15
410.748
3.28351e-15
410.846
3.91645e-15
410.943
1.29302e-14
411.04
1.41787e-14
411.137
1.07176e-14
411.234
9.72094e-15
411.329
4.32221e-14
411.426
3.33052e-14
411.521
9.78045e-15
411.617
2.65664e-14
411.684
2.28822e-14
411.76
9.83456e-15
1.94953e-14
410.343
9.67618e-13
409.553
1.25439e-12
409.668
2.57129e-13
409.768
6.91585e-14
409.869
3.28467e-14
409.968
7.25358e-14
410.068
4.05524e-15
410.167
3.25093e-14
410.266
8.9068e-15
410.364
4.98601e-14
410.463
8.55507e-15
410.561
3.13126e-14
410.659
5.55678e-14
410.757
3.70803e-14
410.854
3.51071e-14
410.951
3.9482e-15
411.048
4.45844e-14
411.116
7.86563e-14
411.193
4.71711e-14
1.30491e-14
410
3.64309e-13
409.204
4.90011e-13
409.32
1.65698e-13
409.421
2.65569e-15
409.523
3.60289e-14
409.623
9.46423e-15
409.723
2.62225e-14
409.823
4.28025e-14
409.923
7.53778e-14
410.022
6.57483e-14
410.122
3.86099e-14
410.22
4.6106e-14
410.32
6.61528e-14
410.418
7.29501e-14
410.516
4.36936e-14
410.614
2.32748e-14
410.712
9.77514e-15
410.78
7.81613e-14
410.858
5.48695e-14
1.36221e-14
409.78
7.96175e-13
408.98
4.5529e-13
409.097
2.98177e-14
409.198
1.12404e-13
409.3
3.61302e-14
409.401
4.03964e-15
409.502
1.90016e-14
409.602
2.65053e-14
409.703
2.12779e-15
409.802
5.02819e-15
409.902
3.87685e-14
410.001
3.38535e-14
410.101
4.93824e-14
410.2
3.02272e-14
410.299
1.31716e-15
410.397
3.30699e-14
410.495
2.13389e-14
410.564
1.51301e-14
410.642
1.63032e-14
2.85574e-15
409.617
4.0461e-13
408.815
8.43236e-13
408.932
8.96042e-14
409.033
2.04802e-15
409.135
4.26324e-14
409.237
2.906e-14
409.338
2.93094e-14
409.439
4.64779e-14
409.54
3.78951e-14
409.64
4.12255e-14
409.74
6.46807e-14
409.84
1.92481e-14
409.94
4.33898e-14
410.039
1.47979e-14
410.138
1.11809e-14
410.236
2.66445e-14
410.335
2.1753e-15
410.404
6.07239e-15
410.483
4.51966e-14
2.21285e-14
409.477
1.72375e-12
408.672
1.65662e-12
408.789
1.06796e-13
408.891
4.7818e-14
408.994
6.99834e-14
409.095
2.2849e-14
409.197
3.40294e-14
409.298
4.91265e-14
409.399
2.49354e-14
409.499
2.62683e-14
409.6
1.58259e-14
409.7
3.97475e-16
409.801
9.53596e-15
409.9
3.88356e-14
410
1.62341e-15
410.098
2.5048e-14
410.197
3.88402e-14
410.266
4.51193e-15
410.345
3.19533e-14
2.00039e-14
409.34
1.41266e-12
408.533
1.31414e-12
408.651
1.17145e-13
408.753
9.14493e-14
408.856
3.81146e-14
408.957
3.06417e-14
409.06
1.07335e-15
409.161
2.97718e-14
409.263
1.88649e-14
409.363
1.77283e-14
409.465
2.21193e-14
409.564
2.73476e-14
409.665
4.35967e-14
409.764
3.89607e-14
409.864
1.48205e-15
409.963
5.81314e-14
410.063
5.87144e-14
410.132
2.80674e-15
410.211
9.21982e-15
8.53191e-14
409.197
1.20539e-12
408.386
7.81448e-13
408.504
9.80588e-14
408.607
1.65531e-14
408.71
3.07695e-14
408.812
1.98659e-14
408.915
3.04808e-14
409.016
1.67182e-14
409.118
5.48902e-15
409.219
6.6491e-15
409.321
5.2337e-15
409.421
4.28915e-14
409.522
5.78834e-14
409.622
2.1845e-14
409.722
1.04986e-14
409.822
6.72132e-14
409.922
6.19946e-14
409.991
1.71754e-16
410.07
4.16908e-14
6.15626e-14
409.039
4.68163e-13
408.225
4.25097e-13
408.344
1.11334e-13
408.447
1.77531e-14
408.55
1.02656e-13
408.653
4.37933e-14
408.756
3.16194e-14
408.858
8.28509e-15
408.96
6.20094e-14
409.061
6.25259e-14
409.163
1.01137e-13
409.264
6.76898e-14
409.365
3.89258e-14
409.465
9.25706e-15
409.566
5.2268e-14
409.666
1.01803e-13
409.766
8.95749e-15
409.836
1.1362e-14
409.915
2.3336e-14
4.21408e-14
408.862
1.07394e-12
408.045
8.56773e-13
408.164
5.70056e-14
408.267
1.10277e-13
408.371
4.10722e-14
408.474
6.33745e-16
408.578
3.71734e-14
408.68
1.80465e-14
408.783
4.54363e-15
408.884
3.51263e-14
408.987
6.09748e-14
409.088
3.10337e-14
409.189
6.71699e-14
409.29
6.67779e-14
409.391
1.30901e-14
409.491
2.49251e-14
409.592
5.87442e-14
409.662
4.81092e-14
409.742
4.06251e-14
1.09115e-14
408.663
6.79934e-13
407.843
1.44366e-12
407.962
4.2361e-13
408.066
2.84325e-14
408.171
5.48082e-14
408.274
3.41359e-15
408.378
5.72727e-14
408.481
2.89706e-14
408.584
3.33375e-14
408.686
1.9007e-14
408.789
2.95897e-14
408.89
1.55354e-14
408.992
1.65225e-14
409.093
4.57614e-15
409.195
3.28437e-14
409.296
1.03868e-13
409.397
1.25424e-13
409.467
9.42497e-14
409.547
7.51238e-15
4.5701e-15
408.448
1.22826e-12
407.623
1.20645e-12
407.744
3.01726e-13
407.848
2.67911e-14
407.953
1.07249e-14
408.057
1.20409e-14
408.161
3.83058e-14
408.264
3.12453e-14
408.368
3.70124e-14
408.471
1.86981e-14
408.574
9.31215e-14
408.676
3.49709e-14
408.779
3.45366e-16
408.88
1.35011e-14
408.982
5.77256e-14
409.083
6.61828e-14
409.185
6.69143e-14
409.255
1.28765e-14
409.336
2.39336e-14
1.8909e-15
408.233
1.52426e-12
407.405
1.32294e-12
407.526
3.57492e-13
407.631
9.56441e-14
407.736
1.88627e-15
407.841
4.75714e-14
407.946
8.81674e-14
408.049
4.02295e-15
408.153
1.17232e-14
408.256
8.00126e-14
408.36
6.80451e-14
408.462
2.23921e-14
408.566
2.17728e-14
408.668
5.3246e-14
408.77
2.97818e-14
408.872
2.30941e-14
408.973
6.18261e-14
409.044
5.29181e-15
409.125
2.64063e-14
4.49009e-14
408.072
1.12168e-12
407.257
2.13352e-12
407.374
6.50105e-13
407.475
6.68903e-14
407.577
2.22447e-14
407.679
3.06882e-15
407.781
6.04844e-15
407.882
5.6389e-14
407.984
6.35798e-14
408.085
2.70693e-14
408.188
1.05865e-14
408.289
8.26206e-15
408.391
1.49848e-14
408.492
8.87624e-15
408.593
5.35514e-14
408.695
1.01659e-13
408.796
1.35719e-14
408.868
1.70201e-14
408.948
4.15953e-14
3.98223e-14
408.895
408.895
408.896
408.896
408.896
408.896
408.896
408.896
408.896
408.896
408.896
408.896
408.896
408.896
408.896
408.896
408.896
408.896
408.896
)
;

boundaryField
{
    movingWall
    {
        type            calculated;
        value           uniform 0;
    }
    fixedWalls
    {
        type            calculated;
        value           nonuniform List<scalar> 
60
(
250
250
250
250
250
250
250
250
250
250
250
250
250
250
250
250
250
250
250
250
250
250
250
250
250
250
250
250
250
250
250
250
250
250
250
250
250
250
250
250
0
0
0
0
0
0
0
0
0
0
0
0
0
0
0
0
0
0
0
0
)
;
    }
    frontAndBack
    {
        type            empty;
        value           nonuniform List<scalar> 0();
    }
}


// ************************************************************************* //
