/*--------------------------------*- C++ -*----------------------------------*\
| =========                 |                                                 |
| \\      /  F ield         | OpenFOAM: The Open Source CFD Toolbox           |
|  \\    /   O peration     | Version:  2312                                  |
|   \\  /    A nd           | Website:  www.openfoam.com                      |
|    \\/     M anipulation  |                                                 |
\*---------------------------------------------------------------------------*/
FoamFile
{
    version     2.0;
    format      ascii;
    arch        "LSB;label=32;scalar=64";
    class       surfaceScalarField;
    location    "5.5";
    object      phi;
}
// * * * * * * * * * * * * * * * * * * * * * * * * * * * * * * * * * * * * * //

dimensions      [0 3 -1 0 0 0 0];

oriented        oriented;

internalField   nonuniform List<scalar> 
760
(
-5e-05
3.84946e-19
-5e-05
-5.34213e-19
-5e-05
1.65331e-19
-5e-05
-2.08566e-20
-5e-05
4.20092e-21
-5e-05
-4.07462e-21
-5e-05
-5.39496e-22
-5e-05
2.02824e-21
-5e-05
4.32077e-21
-5e-05
2.86336e-21
-5e-05
4.1977e-21
-5e-05
7.45972e-21
-5e-05
1.31138e-22
-5e-05
-6.66813e-21
-5e-05
-4.43427e-21
-5e-05
-2.24552e-21
-5e-05
2.578e-21
-5e-05
4.5999e-22
-5e-05
6.84095e-21
6.47552e-21
-5e-05
-2.49625e-19
-5e-05
3.2922e-19
-5e-05
-9.98767e-20
-5e-05
1.5155e-20
-5e-05
-2.41097e-21
-5e-05
1.02238e-20
-5e-05
6.02621e-21
-5e-05
1.48271e-21
-5e-05
2.40152e-21
-5e-05
8.87654e-21
-5e-05
9.28899e-21
-5e-05
6.3539e-21
-5e-05
2.09396e-21
-5e-05
-4.39895e-21
-5e-05
-1.2361e-20
-5e-05
-4.94305e-21
-5e-05
-3.56338e-21
-5e-05
4.95099e-22
-5e-05
-5.05767e-21
-9.294e-21
-5e-05
-1.19499e-19
-5e-05
1.47394e-19
-5e-05
-6.0108e-20
-5e-05
3.03079e-21
-5e-05
2.48598e-22
-5e-05
2.64148e-21
-5e-05
3.00406e-21
-5e-05
3.16928e-21
-5e-05
1.27083e-20
-5e-05
1.24653e-20
-5e-05
1.06263e-20
-5e-05
9.14567e-21
-5e-05
8.26089e-21
-5e-05
4.4469e-21
-5e-05
-2.18849e-21
-5e-05
-4.30931e-21
-5e-05
-5.56268e-21
-5e-05
-7.35685e-21
-5e-05
-7.28567e-21
-7.46594e-21
-5e-05
9.32578e-20
-5e-05
-1.7432e-19
-5e-05
8.8084e-20
-5e-05
-7.01255e-21
-5e-05
6.46087e-21
-5e-05
3.28995e-21
-5e-05
1.84617e-22
-5e-05
4.14961e-21
-5e-05
-6.73071e-22
-5e-05
6.41804e-22
-5e-05
-3.36088e-22
-5e-05
-2.3699e-21
-5e-05
5.91456e-22
-5e-05
6.69113e-21
-5e-05
1.12029e-20
-5e-05
4.21522e-21
-5e-05
-2.34758e-21
-5e-05
-6.0277e-21
-5e-05
-8.95682e-21
-6.67609e-21
-5e-05
2.00049e-20
-5e-05
3.17432e-20
-5e-05
-5.01472e-20
-5e-05
-2.29518e-21
-5e-05
7.58659e-24
-5e-05
6.98108e-22
-5e-05
2.97139e-22
-5e-05
-3.01926e-22
-5e-05
2.4751e-21
-5e-05
1.09383e-22
-5e-05
-1.87796e-21
-5e-05
-3.9894e-21
-5e-05
1.92418e-22
-5e-05
6.99243e-21
-5e-05
7.81057e-21
-5e-05
4.79377e-21
-5e-05
-3.02221e-21
-5e-05
-4.68367e-21
-5e-05
-3.11135e-21
-7.5532e-24
-5e-05
-1.56578e-19
-5e-05
1.40291e-19
-5e-05
-9.05117e-21
-5e-05
1.15105e-20
-5e-05
-2.19024e-21
-5e-05
9.73996e-22
-5e-05
1.15749e-21
-5e-05
4.00044e-22
-5e-05
-4.7701e-22
-5e-05
-1.57459e-21
-5e-05
-1.72609e-21
-5e-05
1.30451e-21
-5e-05
1.18286e-21
-5e-05
5.25838e-21
-5e-05
4.05071e-21
-5e-05
1.18932e-21
-5e-05
3.2296e-21
-5e-05
2.78122e-21
-5e-05
1.19517e-21
-2.36867e-21
-5e-05
1.17701e-19
-5e-05
-1.53237e-19
-5e-05
3.13985e-20
-5e-05
-8.44367e-21
-5e-05
-4.009e-21
-5e-05
-8.85167e-21
-5e-05
-4.9471e-22
-5e-05
3.96521e-21
-5e-05
-1.08604e-21
-5e-05
-6.07857e-21
-5e-05
-1.04265e-21
-5e-05
3.81555e-21
-5e-05
6.7691e-21
-5e-05
4.51619e-21
-5e-05
4.2746e-21
-5e-05
-4.8064e-22
-5e-05
5.42598e-21
-5e-05
9.5708e-21
-5e-05
5.73889e-21
1.58719e-21
-5e-05
-4.43442e-20
-5e-05
5.99021e-20
-5e-05
-2.02478e-20
-5e-05
-3.24464e-22
-5e-05
-4.40046e-21
-5e-05
1.15574e-21
-5e-05
3.20116e-21
-5e-05
5.22431e-21
-5e-05
9.19743e-21
-5e-05
8.02104e-21
-5e-05
4.70881e-21
-5e-05
-5.62201e-21
-5e-05
-8.06401e-21
-5e-05
-8.89098e-21
-5e-05
-5.32369e-21
-5e-05
-2.83531e-21
-5e-05
1.19045e-21
-5e-05
9.51697e-21
-5e-05
6.67997e-21
1.658e-21
-5e-05
9.69558e-20
-5e-05
-5.56841e-20
-5e-05
-3.64537e-21
-5e-05
-1.37396e-20
-5e-05
-4.41491e-21
-5e-05
4.93538e-22
-5e-05
2.32075e-21
-5e-05
3.23666e-21
-5e-05
-2.59749e-22
-5e-05
-6.13706e-22
-5e-05
-4.73035e-21
-5e-05
-4.1299e-21
-5e-05
-6.0225e-21
-5e-05
-3.68572e-21
-5e-05
-1.60559e-22
-5e-05
4.03039e-21
-5e-05
2.59991e-21
-5e-05
-1.8431e-21
-5e-05
1.9857e-21
3.47743e-22
-5e-05
-4.929e-20
-5e-05
1.03171e-19
-5e-05
-1.09587e-20
-5e-05
2.50433e-22
-5e-05
-5.2114e-21
-5e-05
-3.5517e-21
-5e-05
-3.58102e-21
-5e-05
-5.67769e-21
-5e-05
-4.62775e-21
-5e-05
-5.03357e-21
-5e-05
-7.89495e-21
-5e-05
-2.34901e-21
-5e-05
5.29361e-21
-5e-05
1.80502e-21
-5e-05
1.36342e-21
-5e-05
3.24848e-21
-5e-05
-2.65133e-22
-5e-05
7.39985e-22
-5e-05
5.50688e-21
-2.69555e-21
-5e-05
2.10058e-19
-5e-05
-2.0276e-19
-5e-05
1.30659e-20
-5e-05
-5.84923e-21
-5e-05
8.55773e-21
-5e-05
-2.79355e-21
-5e-05
-4.15913e-21
-5e-05
-6.00328e-21
-5e-05
3.04614e-21
-5e-05
3.2084e-21
-5e-05
1.93237e-21
-5e-05
-4.85235e-23
-5e-05
1.16379e-21
-5e-05
4.73871e-21
-5e-05
1.98028e-22
-5e-05
-3.05485e-21
-5e-05
-4.73555e-21
-5e-05
-5.50008e-22
-5e-05
3.89457e-21
2.43755e-21
-5e-05
-1.72206e-19
-5e-05
1.60899e-19
-5e-05
1.43369e-20
-5e-05
1.11902e-20
-5e-05
4.66236e-21
-5e-05
3.7476e-21
-5e-05
-1.31231e-22
-5e-05
3.63938e-21
-5e-05
-2.30536e-21
-5e-05
2.16607e-21
-5e-05
-2.70173e-21
-5e-05
-3.33971e-21
-5e-05
-5.32244e-21
-5e-05
-4.75558e-21
-5e-05
1.80846e-22
-5e-05
7.0921e-21
-5e-05
7.16111e-21
-5e-05
-3.42259e-22
-5e-05
-1.12412e-21
1.03999e-20
-5e-05
1.46992e-19
-5e-05
-9.57136e-20
-5e-05
-1.20056e-20
-5e-05
-2.02629e-21
-5e-05
3.76528e-21
-5e-05
-2.43059e-21
-5e-05
-3.72809e-21
-5e-05
2.04443e-21
-5e-05
6.71025e-22
-5e-05
-8.12698e-22
-5e-05
6.39496e-22
-5e-05
-5.23988e-21
-5e-05
-7.06919e-21
-5e-05
-2.6674e-21
-5e-05
-1.28155e-21
-5e-05
8.20308e-21
-5e-05
7.56392e-21
-5e-05
2.09516e-23
-5e-05
-5.08494e-21
-7.50686e-21
-5e-05
-5.71135e-20
-5e-05
5.20886e-20
-5e-05
1.36365e-20
-5e-05
2.17408e-21
-5e-05
-1.25673e-20
-5e-05
-5.3603e-21
-5e-05
-3.86895e-21
-5e-05
1.01358e-21
-5e-05
7.58367e-21
-5e-05
7.64547e-21
-5e-05
1.23628e-20
-5e-05
8.27276e-21
-5e-05
4.75587e-21
-5e-05
1.1308e-21
-5e-05
-6.38287e-21
-5e-05
-1.24296e-20
-5e-05
-1.09334e-21
-5e-05
1.38657e-21
-5e-05
-2.84739e-21
-5.14065e-21
-5e-05
1.31074e-19
-5e-05
-1.05033e-19
-5e-05
6.98551e-21
-5e-05
-1.3511e-20
-5e-05
-5.03046e-21
-5e-05
-7.76065e-23
-5e-05
4.55064e-21
-5e-05
2.2088e-21
-5e-05
5.55937e-22
-5e-05
4.2971e-21
-5e-05
7.45686e-21
-5e-05
3.79455e-21
-5e-05
-8.21042e-21
-5e-05
-8.16098e-21
-5e-05
-1.59926e-21
-5e-05
-3.04461e-21
-5e-05
-7.17347e-21
-5e-05
-5.87366e-21
-5e-05
-4.95918e-21
1.33166e-21
-5e-05
-8.30269e-20
-5e-05
1.77072e-19
-5e-05
-5.19362e-20
-5e-05
3.48533e-21
-5e-05
-6.71626e-21
-5e-05
-4.18232e-22
-5e-05
7.01471e-21
-5e-05
-3.54766e-21
-5e-05
-4.08109e-21
-5e-05
2.32637e-21
-5e-05
3.62048e-21
-5e-05
1.9005e-21
-5e-05
2.02062e-21
-5e-05
-5.59534e-22
-5e-05
-4.01464e-21
-5e-05
-1.26939e-20
-5e-05
-1.53236e-20
-5e-05
-1.15127e-20
-5e-05
-9.17505e-22
-5.58021e-22
-5e-05
1.50061e-19
-5e-05
-1.48056e-19
-5e-05
3.70126e-20
-5e-05
-3.28587e-21
-5e-05
1.31494e-21
-5e-05
1.47604e-21
-5e-05
4.69414e-21
-5e-05
3.82824e-21
-5e-05
4.53335e-21
-5e-05
-2.28977e-21
-5e-05
-1.14e-20
-5e-05
-4.28035e-21
-5e-05
4.22587e-23
-5e-05
-1.65167e-21
-5e-05
-7.05974e-21
-5e-05
-8.09247e-21
-5e-05
-8.17944e-21
-5e-05
-1.57369e-21
-5e-05
2.92458e-21
-2.31003e-22
-5e-05
1.86311e-19
-5e-05
-1.62425e-19
-5e-05
4.38732e-20
-5e-05
-1.17359e-20
-5e-05
2.31375e-22
-5e-05
-5.83423e-21
-5e-05
-1.08094e-20
-5e-05
4.9313e-22
-5e-05
-1.43656e-21
-5e-05
-9.80291e-21
-5e-05
-8.33405e-21
-5e-05
-2.74203e-21
-5e-05
2.66536e-21
-5e-05
-6.51698e-21
-5e-05
-3.644e-21
-5e-05
-2.82517e-21
-5e-05
-7.56107e-21
-5e-05
6.47039e-22
-5e-05
3.22826e-21
5.48794e-21
-5e-05
-1.37146e-19
-5e-05
2.6144e-19
-5e-05
-7.96471e-20
-5e-05
8.19432e-21
-5e-05
-2.72461e-21
-5e-05
3.75848e-22
-5e-05
-7.4065e-22
-5e-05
-6.90439e-21
-5e-05
-7.78361e-21
-5e-05
-3.31359e-21
-5e-05
1.29571e-21
-5e-05
-1.01112e-21
-5e-05
-1.83357e-21
-5e-05
-1.08601e-21
-5e-05
-6.55104e-21
-5e-05
-1.24349e-20
-5e-05
-1.65987e-21
-5e-05
2.08137e-21
-5e-05
-5.08628e-21
-4.86887e-21
-5e-05
-5e-05
-5e-05
-5e-05
-5e-05
-5e-05
-5e-05
-5e-05
-5e-05
-5e-05
-5e-05
-5e-05
-5e-05
-5e-05
-5e-05
-5e-05
-5e-05
-5e-05
-5e-05
)
;

boundaryField
{
    movingWall
    {
        type            calculated;
        value           uniform 0;
    }
    fixedWalls
    {
        type            calculated;
        value           nonuniform List<scalar> 
60
(
5e-05
5e-05
5e-05
5e-05
5e-05
5e-05
5e-05
5e-05
5e-05
5e-05
5e-05
5e-05
5e-05
5e-05
5e-05
5e-05
5e-05
5e-05
5e-05
5e-05
-5e-05
-5e-05
-5e-05
-5e-05
-5e-05
-5e-05
-5e-05
-5e-05
-5e-05
-5e-05
-5e-05
-5e-05
-5e-05
-5e-05
-5e-05
-5e-05
-5e-05
-5e-05
-5e-05
-5e-05
0
0
0
0
0
0
0
0
0
0
0
0
0
0
0
0
0
0
0
0
)
;
    }
    frontAndBack
    {
        type            empty;
        value           nonuniform List<scalar> 0();
    }
}


// ************************************************************************* //
