/*--------------------------------*- C++ -*----------------------------------*\
| =========                 |                                                 |
| \\      /  F ield         | OpenFOAM: The Open Source CFD Toolbox           |
|  \\    /   O peration     | Version:  2312                                  |
|   \\  /    A nd           | Website:  www.openfoam.com                      |
|    \\/     M anipulation  |                                                 |
\*---------------------------------------------------------------------------*/
FoamFile
{
    version     2.0;
    format      ascii;
    arch        "LSB;label=32;scalar=64";
    class       volScalarField;
    location    "5.5";
    object      QField;
}
// * * * * * * * * * * * * * * * * * * * * * * * * * * * * * * * * * * * * * //

dimensions      [0 0 -2 0 0 0 0];

internalField   nonuniform List<scalar> 
400
(
-1.31213e-23
-4.3429e-24
-2.64194e-25
2.44454e-26
-5.35816e-27
4.22141e-28
0
0
-2.46602e-28
-3.6249e-28
0
-9.67214e-28
-1.01209e-27
-9.89491e-28
-1.71176e-28
0
-2.5339e-28
2.81642e-28
-9.81925e-28
0
-2.63415e-23
-7.77838e-24
-4.64067e-25
1.20348e-26
0
-2.2525e-27
8.097e-30
-3.77123e-29
1.48837e-28
-6.11752e-28
0
6.35786e-28
0
-1.03189e-28
-4.21388e-28
1.06279e-27
-1.35406e-28
5.10069e-28
-7.50672e-28
-1.08576e-27
-1.90552e-23
-7.46251e-24
1.68967e-25
2.90351e-26
-6.64941e-27
2.85631e-27
1.05902e-28
3.14222e-28
-5.75615e-29
-5.49525e-28
4.84165e-28
8.39437e-28
2.22404e-27
2.43016e-27
-4.80814e-28
-4.21641e-28
0
-1.14562e-27
3.56326e-28
0
-1.92963e-25
-1.85859e-24
9.74197e-26
9.82624e-27
3.56042e-27
0
-5.48289e-28
1.11762e-27
-1.95419e-27
-1.92225e-27
-2.1201e-27
-8.1512e-28
-2.94552e-28
1.152e-28
-1.4093e-27
1.69619e-28
1.46401e-27
5.5158e-28
-2.35667e-28
0
1.0606e-23
1.97554e-24
5.94136e-26
2.11959e-26
4.99405e-28
2.17118e-28
2.25644e-28
-1.54759e-29
2.70861e-28
2.2369e-28
9.91196e-29
0
0
1.3662e-27
0
8.77392e-28
0
1.40113e-28
4.51959e-28
-5.17333e-28
4.51251e-24
7.52658e-25
7.72979e-26
1.0215e-26
-7.3777e-28
-4.632e-28
1.63177e-28
-6.3635e-29
-2.20019e-28
-2.82389e-28
8.99156e-29
-5.81769e-28
0
0
0
-3.50187e-28
-5.25153e-28
-1.63169e-27
0
0
-6.61991e-25
-3.12525e-25
9.86599e-26
-9.5073e-27
2.37225e-28
-9.48653e-28
1.24204e-27
-1.96254e-28
-6.618e-28
1.04289e-27
2.76653e-27
1.34907e-27
2.93303e-28
-4.96181e-28
-6.11599e-28
3.9304e-29
0
0
1.46345e-28
-1.59705e-29
-1.57136e-24
-3.7293e-25
-3.08813e-26
0
-7.29011e-28
-6.36754e-28
1.0666e-27
7.9186e-28
0
-1.57016e-27
1.13777e-28
-7.34396e-28
-1.69914e-27
-2.49839e-27
-1.06257e-27
8.84559e-28
2.64174e-27
-2.06051e-28
-5.52131e-28
-4.30051e-28
-5.03523e-25
-9.15014e-26
-3.16727e-27
-6.38007e-28
0
2.79167e-28
0
0
-1.13539e-27
1.46527e-27
1.78135e-27
2.37267e-27
1.64904e-28
-6.27297e-28
-8.20885e-28
-1.74495e-28
3.22845e-28
-2.34509e-28
-6.0001e-28
3.10684e-28
-1.15264e-26
5.72108e-26
3.61434e-27
-1.29377e-27
-1.09714e-27
-1.12219e-27
-6.90244e-28
-1.2265e-27
-4.66951e-28
2.61848e-29
1.16066e-28
6.75893e-28
-5.58331e-28
-6.79955e-28
6.05791e-28
5.72905e-28
7.9979e-28
0
-3.39685e-30
0
5.84023e-26
-8.54686e-26
-1.62843e-26
2.57745e-27
-1.12411e-27
8.47587e-28
1.06076e-28
-2.51538e-28
-2.63386e-28
-7.80603e-28
-1.06628e-27
9.26574e-28
0
4.55502e-28
1.38468e-27
3.85298e-28
-1.14877e-28
0
-2.67228e-29
-3.62742e-28
3.40271e-24
2.53423e-25
4.96554e-26
-3.8425e-27
1.11074e-27
-2.71686e-27
-1.01066e-28
4.20388e-30
6.38351e-28
0
-9.80821e-28
0
-1.61995e-27
-5.35626e-28
3.01457e-28
-1.53121e-28
-1.49498e-27
0
2.20687e-28
-7.53348e-29
8.51728e-24
1.73526e-24
5.51966e-26
5.00898e-27
0
1.91415e-27
9.24908e-28
9.66034e-28
9.12302e-28
-5.66001e-29
1.34171e-29
0
7.10099e-28
2.1833e-27
4.38012e-27
2.23207e-28
0
1.58607e-27
-5.07268e-28
-1.18741e-27
8.4436e-24
1.81241e-24
1.13806e-25
6.77311e-27
-4.84856e-28
-7.24933e-28
0
4.99639e-28
-8.20258e-28
-7.17816e-28
-2.31739e-27
-8.64266e-28
-1.39128e-27
3.1669e-28
7.06172e-28
-3.20961e-27
-6.28955e-28
3.27273e-28
4.68942e-28
2.19405e-28
4.87884e-24
6.50588e-25
1.79078e-25
-1.2116e-26
5.08803e-27
1.93506e-27
2.44381e-27
1.29121e-27
8.93298e-28
1.38653e-27
-2.58776e-28
0
1.25304e-27
-3.20725e-28
3.01661e-28
-1.32179e-28
7.00468e-28
0
0
0
-1.14727e-24
-8.38659e-25
5.92061e-26
-1.03355e-26
9.89594e-28
0
8.84868e-28
4.25826e-28
-6.51596e-28
-5.74963e-28
-1.90132e-27
4.39843e-28
2.78126e-28
-1.13071e-28
0
-3.36828e-28
-8.1075e-28
1.3756e-28
-2.40564e-28
1.29012e-28
-4.82457e-24
-1.46456e-24
-9.94613e-26
-7.49316e-28
0
0
-8.61566e-29
-3.97422e-28
-5.90447e-28
9.1454e-28
-2.3781e-27
-6.62414e-28
1.02364e-28
9.90867e-28
1.44985e-27
4.43133e-28
-3.17267e-28
-1.43908e-27
0
0
-5.92372e-24
-1.93055e-24
-2.34827e-26
-6.99341e-27
-3.04215e-29
0
-2.76329e-27
7.93374e-29
6.4802e-29
5.89773e-28
2.85332e-28
7.33334e-28
1.87398e-28
-4.39569e-28
-6.61044e-28
-6.98379e-28
7.99411e-28
8.91765e-28
-2.66478e-28
-3.33205e-29
-7.7604e-24
-2.11064e-24
-1.18963e-25
-3.4319e-27
-1.03402e-27
1.33059e-27
-1.18406e-28
-9.89509e-28
5.58782e-29
-6.64856e-28
-2.35948e-27
2.33703e-28
9.48487e-30
5.67653e-28
0
-2.02939e-28
2.65564e-28
0
-1.30224e-27
-4.64473e-29
-4.07913e-24
-7.96169e-25
-2.54426e-25
2.64623e-26
-6.71862e-27
6.94478e-28
-9.68896e-28
-1.2519e-27
-1.9566e-28
4.88078e-28
-1.42904e-28
-2.60848e-29
-4.65718e-28
8.97427e-29
-6.60462e-28
-1.16123e-27
-4.10064e-28
6.73683e-28
0
3.62086e-28
)
;

boundaryField
{
    movingWall
    {
        type            calculated;
        value           nonuniform List<scalar> 
20
(
3.15625e-24
2.33142e-24
-7.81524e-25
1.03143e-25
-2.18739e-26
2.65494e-27
-6.21882e-27
-2.55949e-27
2.34858e-27
1.59934e-27
-5.85335e-28
-6.22911e-28
-1.14455e-27
-8.92635e-28
-2.21903e-27
-1.51082e-27
-6.71849e-28
-3.77407e-29
6.71251e-29
3.70989e-28
)
;
    }
    fixedWalls
    {
        type            calculated;
        value           nonuniform List<scalar> 
60
(
-7.44359e-23
-1.44344e-22
-9.83919e-23
-2.0937e-24
4.54593e-23
2.05457e-23
-2.7689e-24
-8.28166e-24
-2.41673e-24
-2.41164e-25
-9.85594e-25
1.64367e-23
4.0252e-23
4.07674e-23
2.41373e-23
-6.88247e-24
-2.82195e-23
-2.98381e-23
-3.97611e-23
-2.49334e-23
0
0
0
0
0
0
-4.65951e-28
-3.10179e-28
4.73238e-28
0
-1.18863e-27
-1.23429e-28
0
3.59473e-28
-1.0477e-27
-1.25419e-28
0
-5.45922e-29
1.41878e-28
2.22253e-28
4.39769e-24
3.50964e-24
-7.92966e-25
6.03806e-26
-8.40665e-27
1.38327e-27
-2.12711e-27
-1.9534e-28
-5.31626e-28
-6.98165e-28
-5.18488e-28
-1.27409e-27
0
-7.50086e-28
-1.30119e-27
-1.63343e-27
-9.73967e-28
2.19001e-28
-2.54433e-27
0
)
;
    }
    frontAndBack
    {
        type            empty;
    }
}


// ************************************************************************* //
