/*--------------------------------*- C++ -*----------------------------------*\
| =========                 |                                                 |
| \\      /  F ield         | OpenFOAM: The Open Source CFD Toolbox           |
|  \\    /   O peration     | Version:  2312                                  |
|   \\  /    A nd           | Website:  www.openfoam.com                      |
|    \\/     M anipulation  |                                                 |
\*---------------------------------------------------------------------------*/
FoamFile
{
    version     2.0;
    format      ascii;
    arch        "LSB;label=32;scalar=64";
    class       surfaceScalarField;
    location    "5.5";
    object      surfaceK;
}
// * * * * * * * * * * * * * * * * * * * * * * * * * * * * * * * * * * * * * //

dimensions      [0 2 -2 0 0 0 0];

internalField   nonuniform List<scalar> 
760
(
1.10227e-05
1.13938e-05
1.10226e-05
1.13938e-05
1.10226e-05
1.13933e-05
1.10226e-05
1.1393e-05
1.10226e-05
1.13927e-05
1.10226e-05
1.13925e-05
1.10226e-05
1.13922e-05
1.10226e-05
1.1392e-05
1.10226e-05
1.13917e-05
1.10226e-05
1.13916e-05
1.10225e-05
1.13914e-05
1.10225e-05
1.13913e-05
1.10225e-05
1.13911e-05
1.10225e-05
1.1391e-05
1.10225e-05
1.13909e-05
1.10225e-05
1.13908e-05
1.10225e-05
1.13908e-05
1.10225e-05
1.13907e-05
1.10225e-05
1.13907e-05
1.13907e-05
1.17649e-05
1.22742e-05
1.17644e-05
1.22741e-05
1.17637e-05
1.22731e-05
1.17631e-05
1.22726e-05
1.17626e-05
1.22718e-05
1.17621e-05
1.22714e-05
1.17616e-05
1.22707e-05
1.17612e-05
1.22703e-05
1.17608e-05
1.22698e-05
1.17604e-05
1.22694e-05
1.17601e-05
1.2269e-05
1.17598e-05
1.22687e-05
1.17596e-05
1.22684e-05
1.17594e-05
1.22682e-05
1.17592e-05
1.2268e-05
1.17591e-05
1.22678e-05
1.1759e-05
1.22677e-05
1.17589e-05
1.22676e-05
1.17589e-05
1.22676e-05
1.22675e-05
1.27834e-05
1.32303e-05
1.27828e-05
1.32303e-05
1.27819e-05
1.3229e-05
1.27812e-05
1.32284e-05
1.27806e-05
1.32275e-05
1.278e-05
1.3227e-05
1.27794e-05
1.32262e-05
1.27789e-05
1.32258e-05
1.27784e-05
1.32252e-05
1.2778e-05
1.32247e-05
1.27776e-05
1.32243e-05
1.27773e-05
1.32239e-05
1.2777e-05
1.32236e-05
1.27768e-05
1.32233e-05
1.27766e-05
1.32231e-05
1.27764e-05
1.32229e-05
1.27763e-05
1.32227e-05
1.27762e-05
1.32226e-05
1.27762e-05
1.32226e-05
1.32226e-05
1.36772e-05
1.39913e-05
1.36765e-05
1.39913e-05
1.36755e-05
1.39899e-05
1.36747e-05
1.39892e-05
1.36739e-05
1.39882e-05
1.36732e-05
1.39877e-05
1.36726e-05
1.39868e-05
1.3672e-05
1.39863e-05
1.36715e-05
1.39856e-05
1.3671e-05
1.39851e-05
1.36706e-05
1.39846e-05
1.36702e-05
1.39842e-05
1.36699e-05
1.39838e-05
1.36696e-05
1.39835e-05
1.36694e-05
1.39832e-05
1.36692e-05
1.3983e-05
1.3669e-05
1.39829e-05
1.3669e-05
1.39827e-05
1.36689e-05
1.39827e-05
1.39827e-05
1.43055e-05
1.45012e-05
1.43047e-05
1.45012e-05
1.43036e-05
1.44996e-05
1.43028e-05
1.44989e-05
1.43019e-05
1.44978e-05
1.43012e-05
1.44972e-05
1.43005e-05
1.44963e-05
1.42998e-05
1.44958e-05
1.42992e-05
1.4495e-05
1.42987e-05
1.44946e-05
1.42982e-05
1.44939e-05
1.42978e-05
1.44935e-05
1.42974e-05
1.4493e-05
1.42971e-05
1.44928e-05
1.42969e-05
1.44924e-05
1.42967e-05
1.44923e-05
1.42966e-05
1.4492e-05
1.42965e-05
1.44919e-05
1.42964e-05
1.44919e-05
1.44918e-05
1.46969e-05
1.48125e-05
1.46961e-05
1.48124e-05
1.46949e-05
1.48108e-05
1.4694e-05
1.481e-05
1.46931e-05
1.4809e-05
1.46923e-05
1.48083e-05
1.46916e-05
1.48073e-05
1.46909e-05
1.48068e-05
1.46903e-05
1.4806e-05
1.46897e-05
1.48055e-05
1.46892e-05
1.48048e-05
1.46888e-05
1.48044e-05
1.46884e-05
1.4804e-05
1.46881e-05
1.48036e-05
1.46878e-05
1.48033e-05
1.46876e-05
1.48031e-05
1.46874e-05
1.48029e-05
1.46873e-05
1.48028e-05
1.46873e-05
1.48027e-05
1.48027e-05
1.4928e-05
1.4997e-05
1.49272e-05
1.49969e-05
1.4926e-05
1.49953e-05
1.4925e-05
1.49945e-05
1.49241e-05
1.49933e-05
1.49233e-05
1.49927e-05
1.49225e-05
1.49917e-05
1.49218e-05
1.49911e-05
1.49212e-05
1.49903e-05
1.49206e-05
1.49897e-05
1.49201e-05
1.49892e-05
1.49196e-05
1.49887e-05
1.49192e-05
1.49883e-05
1.49189e-05
1.49879e-05
1.49186e-05
1.49876e-05
1.49184e-05
1.49873e-05
1.49182e-05
1.49871e-05
1.49181e-05
1.4987e-05
1.49181e-05
1.49869e-05
1.49869e-05
1.50659e-05
1.51105e-05
1.5065e-05
1.51104e-05
1.50638e-05
1.51087e-05
1.50628e-05
1.5108e-05
1.50619e-05
1.51067e-05
1.50611e-05
1.51061e-05
1.50603e-05
1.51051e-05
1.50596e-05
1.51045e-05
1.50589e-05
1.51037e-05
1.50583e-05
1.51031e-05
1.50578e-05
1.51025e-05
1.50573e-05
1.5102e-05
1.50569e-05
1.51016e-05
1.50566e-05
1.51012e-05
1.50563e-05
1.51009e-05
1.50561e-05
1.51007e-05
1.50559e-05
1.51005e-05
1.50558e-05
1.51003e-05
1.50558e-05
1.51003e-05
1.51002e-05
1.5155e-05
1.51881e-05
1.51541e-05
1.51881e-05
1.51528e-05
1.51863e-05
1.51519e-05
1.51856e-05
1.51509e-05
1.51843e-05
1.51501e-05
1.51837e-05
1.51493e-05
1.51827e-05
1.51486e-05
1.51821e-05
1.51479e-05
1.51813e-05
1.51473e-05
1.51807e-05
1.51468e-05
1.51801e-05
1.51463e-05
1.51796e-05
1.51459e-05
1.51791e-05
1.51456e-05
1.51788e-05
1.51453e-05
1.51785e-05
1.51451e-05
1.51782e-05
1.51449e-05
1.5178e-05
1.51448e-05
1.51779e-05
1.51448e-05
1.51778e-05
1.51778e-05
1.52212e-05
1.52498e-05
1.52202e-05
1.52497e-05
1.5219e-05
1.5248e-05
1.5218e-05
1.52472e-05
1.52171e-05
1.5246e-05
1.52162e-05
1.52454e-05
1.52154e-05
1.52443e-05
1.52147e-05
1.52437e-05
1.5214e-05
1.52429e-05
1.52134e-05
1.52423e-05
1.52129e-05
1.52417e-05
1.52124e-05
1.52412e-05
1.5212e-05
1.52407e-05
1.52116e-05
1.52404e-05
1.52114e-05
1.524e-05
1.52111e-05
1.52398e-05
1.5211e-05
1.52396e-05
1.52109e-05
1.52395e-05
1.52108e-05
1.52394e-05
1.52394e-05
1.52784e-05
1.53064e-05
1.52775e-05
1.53063e-05
1.52762e-05
1.53046e-05
1.52752e-05
1.53038e-05
1.52743e-05
1.53025e-05
1.52734e-05
1.53019e-05
1.52726e-05
1.53008e-05
1.52719e-05
1.53002e-05
1.52712e-05
1.52994e-05
1.52706e-05
1.52989e-05
1.527e-05
1.52982e-05
1.52696e-05
1.52977e-05
1.52691e-05
1.52973e-05
1.52688e-05
1.52969e-05
1.52685e-05
1.52965e-05
1.52683e-05
1.52963e-05
1.52681e-05
1.52961e-05
1.5268e-05
1.5296e-05
1.5268e-05
1.52959e-05
1.52959e-05
1.53344e-05
1.53639e-05
1.53334e-05
1.53638e-05
1.53321e-05
1.5362e-05
1.53311e-05
1.53612e-05
1.53302e-05
1.536e-05
1.53293e-05
1.53593e-05
1.53285e-05
1.53583e-05
1.53277e-05
1.53577e-05
1.53271e-05
1.53568e-05
1.53264e-05
1.53563e-05
1.53259e-05
1.53556e-05
1.53254e-05
1.53551e-05
1.5325e-05
1.53547e-05
1.53247e-05
1.53543e-05
1.53244e-05
1.5354e-05
1.53241e-05
1.53537e-05
1.5324e-05
1.53535e-05
1.53239e-05
1.53534e-05
1.53238e-05
1.53533e-05
1.53533e-05
1.53933e-05
1.54259e-05
1.53924e-05
1.54258e-05
1.53911e-05
1.54241e-05
1.53901e-05
1.54232e-05
1.53892e-05
1.54221e-05
1.53883e-05
1.54213e-05
1.53875e-05
1.54203e-05
1.53867e-05
1.54197e-05
1.5386e-05
1.54188e-05
1.53854e-05
1.54183e-05
1.53849e-05
1.54176e-05
1.53844e-05
1.54171e-05
1.5384e-05
1.54166e-05
1.53836e-05
1.54163e-05
1.53833e-05
1.54159e-05
1.53831e-05
1.54157e-05
1.53829e-05
1.54155e-05
1.53828e-05
1.54153e-05
1.53828e-05
1.54153e-05
1.54152e-05
1.54584e-05
1.5495e-05
1.54575e-05
1.54949e-05
1.54562e-05
1.54932e-05
1.54552e-05
1.54923e-05
1.54542e-05
1.54912e-05
1.54533e-05
1.54904e-05
1.54525e-05
1.54893e-05
1.54517e-05
1.54887e-05
1.5451e-05
1.54878e-05
1.54504e-05
1.54873e-05
1.54498e-05
1.54866e-05
1.54494e-05
1.54861e-05
1.54489e-05
1.54857e-05
1.54486e-05
1.54853e-05
1.54483e-05
1.54849e-05
1.5448e-05
1.54847e-05
1.54479e-05
1.54845e-05
1.54478e-05
1.54843e-05
1.54477e-05
1.54843e-05
1.54842e-05
1.55315e-05
1.55727e-05
1.55306e-05
1.55726e-05
1.55293e-05
1.55709e-05
1.55283e-05
1.557e-05
1.55273e-05
1.55689e-05
1.55264e-05
1.5568e-05
1.55256e-05
1.55671e-05
1.55248e-05
1.55664e-05
1.55241e-05
1.55655e-05
1.55235e-05
1.5565e-05
1.55229e-05
1.55643e-05
1.55224e-05
1.55638e-05
1.5522e-05
1.55633e-05
1.55216e-05
1.55629e-05
1.55213e-05
1.55626e-05
1.55211e-05
1.55623e-05
1.55209e-05
1.55621e-05
1.55208e-05
1.5562e-05
1.55208e-05
1.55619e-05
1.55619e-05
1.56138e-05
1.56587e-05
1.56129e-05
1.56586e-05
1.56116e-05
1.56569e-05
1.56106e-05
1.56559e-05
1.56096e-05
1.56548e-05
1.56087e-05
1.5654e-05
1.56078e-05
1.5653e-05
1.56071e-05
1.56523e-05
1.56064e-05
1.56514e-05
1.56057e-05
1.56508e-05
1.56051e-05
1.56501e-05
1.56046e-05
1.56497e-05
1.56042e-05
1.56491e-05
1.56038e-05
1.56488e-05
1.56035e-05
1.56484e-05
1.56033e-05
1.56482e-05
1.56031e-05
1.5648e-05
1.5603e-05
1.56478e-05
1.5603e-05
1.56477e-05
1.56477e-05
1.57035e-05
1.57484e-05
1.57026e-05
1.57484e-05
1.57012e-05
1.57465e-05
1.57002e-05
1.57457e-05
1.56992e-05
1.57444e-05
1.56983e-05
1.57437e-05
1.56974e-05
1.57426e-05
1.56966e-05
1.57419e-05
1.56959e-05
1.5741e-05
1.56953e-05
1.57405e-05
1.56947e-05
1.57398e-05
1.56942e-05
1.57393e-05
1.56937e-05
1.57388e-05
1.56934e-05
1.57384e-05
1.56931e-05
1.5738e-05
1.56928e-05
1.57378e-05
1.56926e-05
1.57376e-05
1.56925e-05
1.57374e-05
1.56925e-05
1.57373e-05
1.57373e-05
1.57933e-05
1.58311e-05
1.57923e-05
1.58311e-05
1.5791e-05
1.58292e-05
1.57899e-05
1.58284e-05
1.57889e-05
1.58271e-05
1.5788e-05
1.58264e-05
1.57871e-05
1.58253e-05
1.57863e-05
1.58246e-05
1.57856e-05
1.58238e-05
1.5785e-05
1.58232e-05
1.57844e-05
1.58225e-05
1.57839e-05
1.5822e-05
1.57834e-05
1.58215e-05
1.5783e-05
1.58211e-05
1.57827e-05
1.58208e-05
1.57825e-05
1.58205e-05
1.57823e-05
1.58203e-05
1.57822e-05
1.58201e-05
1.57822e-05
1.58201e-05
1.582e-05
1.58688e-05
1.58856e-05
1.58679e-05
1.58856e-05
1.58666e-05
1.58847e-05
1.58656e-05
1.58842e-05
1.58646e-05
1.58836e-05
1.58637e-05
1.58832e-05
1.58628e-05
1.58827e-05
1.58621e-05
1.58823e-05
1.58614e-05
1.58819e-05
1.58607e-05
1.58816e-05
1.58601e-05
1.58813e-05
1.58596e-05
1.5881e-05
1.58592e-05
1.58808e-05
1.58588e-05
1.58805e-05
1.58585e-05
1.58804e-05
1.58583e-05
1.58802e-05
1.58581e-05
1.58802e-05
1.5858e-05
1.58801e-05
1.58579e-05
1.588e-05
1.588e-05
1.59023e-05
1.59023e-05
1.59023e-05
1.59022e-05
1.59022e-05
1.59022e-05
1.59022e-05
1.59022e-05
1.59022e-05
1.59022e-05
1.59022e-05
1.59021e-05
1.59021e-05
1.59021e-05
1.59021e-05
1.59021e-05
1.59021e-05
1.59021e-05
1.59021e-05
)
;

boundaryField
{
    movingWall
    {
        type            calculated;
        value           nonuniform List<scalar> 
20
(
1.59023e-05
1.59023e-05
1.59023e-05
1.59022e-05
1.59022e-05
1.59022e-05
1.59022e-05
1.59022e-05
1.59022e-05
1.59022e-05
1.59022e-05
1.59022e-05
1.59021e-05
1.59021e-05
1.59021e-05
1.59021e-05
1.59021e-05
1.59021e-05
1.59021e-05
1.59021e-05
)
;
    }
    fixedWalls
    {
        type            calculated;
        value           nonuniform List<scalar> 
60
(
1.10227e-05
1.17649e-05
1.27834e-05
1.36772e-05
1.43055e-05
1.46969e-05
1.4928e-05
1.50659e-05
1.5155e-05
1.52212e-05
1.52784e-05
1.53344e-05
1.53934e-05
1.54584e-05
1.55316e-05
1.56138e-05
1.57035e-05
1.57933e-05
1.58688e-05
1.59023e-05
1.10225e-05
1.17589e-05
1.27762e-05
1.36689e-05
1.42964e-05
1.46873e-05
1.49181e-05
1.50557e-05
1.51447e-05
1.52108e-05
1.52679e-05
1.53238e-05
1.53827e-05
1.54477e-05
1.55208e-05
1.56029e-05
1.56925e-05
1.57821e-05
1.58579e-05
1.59021e-05
1.10227e-05
1.10226e-05
1.10226e-05
1.10226e-05
1.10226e-05
1.10226e-05
1.10226e-05
1.10226e-05
1.10226e-05
1.10226e-05
1.10226e-05
1.10225e-05
1.10225e-05
1.10225e-05
1.10225e-05
1.10225e-05
1.10225e-05
1.10225e-05
1.10225e-05
1.10225e-05
)
;
    }
    frontAndBack
    {
        type            empty;
        value           nonuniform List<scalar> 0();
    }
}


// ************************************************************************* //
