/*--------------------------------*- C++ -*----------------------------------*\
| =========                 |                                                 |
| \\      /  F ield         | OpenFOAM: The Open Source CFD Toolbox           |
|  \\    /   O peration     | Version:  2312                                  |
|   \\  /    A nd           | Website:  www.openfoam.com                      |
|    \\/     M anipulation  |                                                 |
\*---------------------------------------------------------------------------*/
FoamFile
{
    version     2.0;
    format      ascii;
    arch        "LSB;label=32;scalar=64";
    class       surfaceScalarField;
    location    "5.5";
    object      surfaceDivU;
}
// * * * * * * * * * * * * * * * * * * * * * * * * * * * * * * * * * * * * * //

dimensions      [0 0 -1 0 0 0 0];

internalField   nonuniform List<scalar> 
760
(
5.43183e-12
-3.53721e-12
-7.05631e-13
3.79628e-13
1.16333e-13
-5.98677e-14
-4.88856e-14
4.67348e-14
2.56423e-14
5.54579e-15
3.54289e-15
-2.9771e-14
7.73378e-15
-3.40698e-15
-4.57324e-15
7.36242e-15
-1.49235e-14
1.78831e-14
1.82342e-15
-2.44671e-15
5.60075e-15
1.27135e-14
-3.95227e-15
-2.27653e-15
9.34218e-16
3.10649e-15
4.09206e-15
-2.25572e-14
1.41853e-15
2.43922e-14
-9.75379e-15
-1.06451e-14
9.8696e-15
-1.93761e-16
-1.83952e-16
2.77947e-15
-1.89319e-14
-2.46061e-14
1.35525e-14
-8.58941e-12
-8.57875e-12
1.02539e-12
1.35326e-12
-1.29466e-13
-2.90201e-13
1.01166e-13
1.55255e-13
-4.98675e-14
-3.30998e-14
-3.67209e-14
-4.27425e-15
-3.77834e-15
1.37461e-14
2.98188e-14
1.37067e-14
3.03599e-14
3.17535e-15
8.44338e-15
1.50868e-16
4.83624e-15
1.08875e-14
4.78224e-15
1.99342e-15
-2.03849e-14
2.49561e-15
-2.2571e-15
-1.84495e-14
1.23285e-14
3.11415e-15
-1.08509e-15
-5.66007e-15
-7.28389e-15
-2.32244e-15
-2.16427e-14
-1.8458e-15
7.87827e-15
-2.34738e-14
1.35525e-14
1.36392e-12
7.23705e-12
3.76645e-14
-1.11296e-12
-5.48022e-15
1.92488e-13
2.09891e-14
-6.16114e-14
1.24935e-14
-2.6657e-14
4.61927e-14
1.25759e-14
3.12312e-14
3.54928e-14
-1.29367e-14
-2.70623e-14
-2.70337e-14
9.19472e-15
2.59503e-15
8.95164e-16
8.04473e-15
9.54306e-15
-2.93201e-16
8.79236e-16
4.43103e-15
5.1696e-15
-1.30783e-14
2.31435e-14
-1.48745e-14
-2.89689e-14
-6.89742e-15
1.04666e-14
3.11566e-15
-1.95362e-14
-3.67695e-15
1.19785e-14
-1.77996e-14
-2.04484e-14
0
4.76017e-12
-3.25261e-13
-9.58139e-13
3.8355e-13
1.36357e-13
-7.88559e-14
-1.09257e-13
6.2656e-14
-2.65746e-14
-2.88616e-14
1.87597e-15
-6.09886e-15
-2.28006e-14
1.59403e-14
-4.93086e-15
-3.58667e-14
3.71236e-14
3.20157e-14
7.84319e-15
8.96496e-16
2.37757e-15
-4.53707e-15
6.34203e-15
-8.05621e-15
2.38821e-14
5.78852e-15
7.25294e-15
1.70182e-14
-3.62785e-15
-5.29596e-15
-2.17226e-15
1.59937e-14
-1.06734e-14
6.52131e-16
-4.79294e-15
3.96415e-15
-2.64878e-15
5.11891e-15
-1.35525e-14
-4.70188e-12
-3.5101e-12
1.26283e-12
3.5289e-13
-1.52557e-13
-6.01678e-14
1.43052e-13
4.23852e-14
-8.38593e-15
-1.77344e-14
7.96542e-15
1.72392e-14
2.87414e-15
4.10723e-15
1.07977e-15
-1.033e-14
-4.21143e-15
1.32305e-14
-1.14838e-14
-8.13597e-15
-1.49708e-14
4.82925e-15
-8.60972e-15
-4.77614e-15
-1.07532e-15
4.41619e-15
4.46934e-15
-2.58542e-15
1.43256e-14
2.15506e-15
1.88181e-14
1.28136e-14
1.52897e-14
9.45062e-16
1.3876e-14
1.61274e-16
-5.78484e-15
1.18075e-14
-1.35525e-14
1.54466e-12
3.7676e-12
-9.70111e-13
-8.86132e-13
1.34774e-13
2.06902e-13
-1.18401e-13
-7.37204e-14
7.89076e-15
-1.43569e-14
1.3381e-14
2.53598e-14
-9.0969e-15
5.77977e-16
1.82069e-15
-2.06268e-14
9.30591e-15
1.55955e-14
8.17704e-15
8.73098e-15
1.5024e-14
1.45749e-14
8.24977e-15
7.43939e-15
2.90608e-15
-2.3852e-15
-4.89971e-15
1.91625e-15
6.43094e-16
-1.29554e-14
-5.0594e-15
2.70157e-15
-1.41834e-14
3.77827e-15
-1.90724e-15
-9.65204e-16
4.0398e-15
6.13104e-16
-1.35525e-14
1.33681e-12
-4.87891e-13
2.90881e-13
2.927e-13
-1.5924e-15
-3.1935e-14
3.03238e-14
4.89568e-14
3.11213e-15
-3.29511e-15
1.25567e-14
1.44219e-15
-1.09519e-14
-8.05146e-15
-6.85202e-15
4.45009e-15
1.50205e-14
1.58322e-14
1.51289e-14
-3.53214e-14
6.99035e-15
-1.05938e-14
-3.19558e-15
8.92848e-15
-3.37503e-15
9.67147e-15
-6.13945e-15
3.38595e-14
-1.08969e-14
9.13042e-15
1.15392e-14
-3.10074e-15
1.69964e-14
5.25707e-15
1.55514e-15
1.91566e-14
-1.69792e-14
-1.94607e-14
-1.35525e-14
-1.532e-12
-1.5992e-12
-3.01164e-14
3.40172e-13
1.86141e-14
-7.53241e-14
1.53379e-14
4.58066e-14
-4.96506e-15
4.06572e-16
-1.9166e-14
-1.06755e-14
7.35054e-15
-1.52969e-14
2.71343e-14
5.32415e-15
-3.45097e-14
4.23041e-14
-6.1044e-14
-4.95012e-14
-8.65568e-15
6.27696e-15
2.17955e-14
-5.40794e-15
4.6906e-14
2.08139e-14
4.91293e-14
2.15921e-14
1.69266e-14
3.30388e-14
-9.38292e-15
-2.4557e-14
7.41726e-15
-3.3023e-14
-1.85924e-15
1.65888e-14
-1.6034e-14
5.39724e-15
0
2.72973e-13
1.6263e-13
2.94964e-13
-9.08663e-14
-4.81317e-14
1.15707e-14
3.08753e-14
5.5694e-16
-5.30389e-15
-2.30738e-15
-6.80646e-15
-7.97015e-15
-1.73233e-14
-4.72734e-15
2.0494e-14
6.2447e-15
2.73126e-14
3.35276e-14
1.78198e-14
-8.82572e-15
9.52471e-15
3.69524e-14
-6.38959e-15
1.82649e-15
-4.50003e-15
8.71323e-15
5.50149e-15
-3.42759e-15
-8.4448e-15
1.80649e-14
-4.81971e-14
-1.81721e-14
-2.38515e-14
-3.05252e-14
2.38453e-14
9.15797e-16
2.14313e-14
1.55901e-14
0
-2.01209e-13
-6.77626e-14
-3.7426e-13
3.30568e-13
6.02593e-14
-3.39542e-14
-3.26257e-14
3.12661e-14
-4.97365e-15
-3.07835e-16
-5.89103e-15
-7.21517e-16
1.88407e-14
1.08209e-14
1.92783e-14
2.1432e-14
-2.61071e-15
7.88347e-15
1.03069e-14
-3.96012e-16
2.92542e-14
4.28288e-15
1.69293e-14
1.09119e-14
9.78568e-15
9.22063e-15
9.13586e-15
3.40087e-14
8.33761e-15
8.19628e-16
-5.00256e-16
2.50012e-15
-5.75791e-15
-5.31365e-15
-7.33944e-15
-3.06046e-16
-5.84121e-15
1.91652e-15
-1.35525e-14
4.64015e-13
1.47723e-12
6.70874e-13
-6.43882e-13
-6.29474e-14
1.35542e-13
6.3584e-14
-3.37929e-14
3.9443e-15
2.57346e-14
1.59904e-14
-1.13474e-14
1.34122e-14
1.87695e-14
1.00371e-14
-1.88125e-14
1.00982e-14
3.00293e-14
-6.42008e-15
-4.50191e-15
-1.40595e-14
-1.7448e-14
3.20318e-15
-9.23856e-15
3.34436e-14
2.0149e-14
2.56924e-14
3.81452e-14
-5.01786e-15
-2.62049e-15
-2.31327e-15
-7.29896e-16
1.38219e-16
-1.5258e-14
8.94991e-15
1.67461e-15
-5.7948e-15
7.48939e-15
-1.35525e-14
3.69328e-13
-1.0842e-12
-1.17921e-12
5.42591e-14
1.64696e-13
1.36382e-14
-7.16422e-14
7.87984e-15
1.04429e-14
1.68597e-14
-8.56837e-15
-2.34987e-14
-1.34552e-14
6.31734e-15
1.17966e-15
-2.21066e-14
1.54292e-14
2.57139e-14
-1.55298e-14
1.27706e-15
-1.26271e-14
-1.73461e-14
7.70723e-15
-8.15923e-16
2.48505e-14
2.03383e-14
9.83227e-15
4.06677e-15
1.66747e-15
-6.4945e-16
-1.36746e-14
7.71958e-15
-1.37216e-14
-1.80135e-14
2.14094e-16
-1.5182e-14
-2.68342e-16
3.6584e-15
1.35525e-14
-1.39927e-12
-1.35525e-13
1.24711e-12
2.7528e-13
-1.43178e-13
-3.76869e-14
9.63818e-14
2.74933e-14
-1.70819e-14
1.02357e-14
-8.61297e-15
-1.2533e-14
-2.33405e-15
-8.12753e-15
2.42761e-15
1.16201e-14
1.15617e-14
-1.74704e-15
-5.39227e-16
1.38858e-14
-5.53497e-15
-1.85146e-14
1.18151e-14
-9.59958e-15
-4.45474e-16
-2.37388e-14
-6.41496e-15
-7.88265e-15
5.40266e-15
-1.1736e-14
3.38076e-15
2.17498e-14
-1.94738e-14
-5.66845e-15
-1.17377e-14
-1.71194e-14
1.74793e-14
7.76339e-15
-1.35525e-14
1.53903e-12
1.72117e-12
-1.00952e-12
-4.64063e-13
1.32984e-13
6.29349e-14
-5.86528e-14
-2.08293e-14
1.47846e-14
-3.52963e-15
-1.20475e-14
-1.07365e-17
5.82661e-15
-1.19214e-14
7.44544e-15
-7.35279e-15
5.77005e-16
-1.27032e-14
-4.08963e-15
-2.7185e-15
-2.25793e-14
-3.69406e-16
-4.51535e-14
-1.93335e-14
-3.1176e-14
-5.15378e-15
-1.32037e-14
1.76365e-14
4.61109e-15
-1.55657e-14
1.27006e-14
3.25545e-16
-3.31397e-15
-1.60718e-14
2.38171e-15
-1.23434e-14
-2.32684e-14
1.07157e-14
-1.35525e-14
-2.81919e-13
-3.33392e-12
6.0839e-13
9.04753e-13
-9.08788e-14
-2.03448e-13
3.42939e-14
7.60379e-14
-1.8325e-14
-2.61021e-14
1.15387e-16
1.19587e-14
-2.51008e-14
1.24699e-15
-2.75014e-14
-4.35131e-15
-1.59987e-14
-1.32013e-14
1.00172e-15
-1.32833e-14
2.87634e-15
1.95227e-14
2.06662e-14
-1.43043e-14
4.36587e-14
-7.43539e-15
1.52746e-14
-8.12179e-16
-1.98512e-14
-1.58417e-14
-2.84468e-14
-7.5765e-15
-2.51012e-14
8.16121e-17
-4.00939e-15
-1.49343e-15
2.04316e-14
-8.90924e-15
1.35525e-14
-2.14725e-12
1.17907e-12
9.29145e-14
-1.89726e-13
-3.65318e-14
1.29226e-14
1.56418e-14
-1.39808e-14
4.18152e-15
1.65173e-14
1.30903e-14
1.92403e-15
2.19965e-14
3.81401e-15
9.94879e-15
-9.19976e-15
-1.0486e-14
-2.40152e-14
5.23761e-15
-1.51036e-14
2.34207e-15
3.94685e-14
-4.24059e-14
-5.49803e-15
-5.19062e-14
-2.8386e-14
-3.19284e-14
-1.34298e-14
-3.56698e-15
5.73063e-15
2.09519e-14
2.54742e-15
2.36894e-14
2.10246e-14
-6.39329e-15
-8.59435e-15
-1.57883e-14
-9.32316e-15
0
3.13659e-12
3.41524e-12
-2.69718e-13
-2.7787e-13
3.54736e-14
2.8729e-14
-1.31053e-14
-7.27105e-16
1.42598e-14
2.56879e-15
-7.35226e-15
-8.80296e-15
-2.73823e-14
2.31075e-14
-4.31637e-14
-3.67345e-14
-2.86328e-14
-1.70559e-14
1.91273e-14
-1.02942e-14
3.16285e-14
2.23582e-14
8.52181e-15
1.40939e-14
1.00904e-14
3.53771e-15
2.42293e-14
1.60937e-14
1.1845e-14
7.51705e-15
2.62012e-15
-1.63807e-14
-1.12591e-14
2.28116e-14
-1.15242e-14
-2.82858e-14
6.46518e-15
2.42494e-14
-1.35525e-14
7.72525e-16
-4.94667e-12
2.05764e-14
6.81696e-13
-7.47167e-15
-1.58477e-13
1.4947e-14
6.60042e-14
-2.04939e-14
-5.44984e-15
2.16568e-14
-9.59612e-15
1.37552e-14
-6.07873e-15
-1.06267e-14
-2.53585e-17
1.28275e-15
2.41848e-14
-7.06328e-15
-1.02851e-14
4.82364e-15
-1.70958e-14
9.10979e-15
6.90724e-15
9.54097e-15
2.91224e-14
-6.18543e-16
-2.70878e-14
-2.07087e-14
-7.06898e-15
3.81076e-15
1.48246e-14
5.78495e-15
-2.79092e-15
7.48782e-15
-1.19232e-14
4.23165e-15
3.73531e-14
-1.35525e-14
-4.26575e-12
-1.30104e-12
5.02643e-13
-6.44653e-14
-8.50014e-14
2.50068e-14
4.56073e-14
-1.58796e-15
5.44798e-15
6.5377e-15
-3.73316e-14
-1.08972e-15
-1.98593e-14
-9.13687e-15
3.47861e-14
2.83008e-15
1.26169e-14
4.851e-15
-2.03176e-14
-5.78659e-15
-1.50122e-14
-1.4531e-14
2.69199e-14
-1.40337e-14
-7.50639e-15
2.7401e-14
-3.35383e-14
-7.80239e-15
2.84643e-14
1.36915e-15
8.22288e-15
1.35426e-14
-2.04991e-14
-1.88722e-14
1.79421e-14
1.19257e-14
1.9569e-14
3.31215e-14
-1.35525e-14
2.90024e-12
-5.42101e-13
1.0842e-13
-4.06576e-14
0
2.71051e-14
1.35525e-14
-2.71051e-14
-1.35525e-14
0
-1.35525e-14
-1.35525e-14
2.71051e-14
2.71051e-14
-1.35525e-14
-1.35525e-14
1.35525e-14
2.71051e-14
-1.67239e-28
)
;

boundaryField
{
    movingWall
    {
        type            calculated;
        value           nonuniform List<scalar> 
20
(
7.18284e-12
-1.38236e-12
2.98156e-13
-8.13152e-14
0
0
5.42101e-14
-2.71051e-14
-2.71051e-14
0
0
-2.71051e-14
0
5.42101e-14
0
-2.71051e-14
0
2.71051e-14
2.71051e-14
-2.71051e-14
)
;
    }
    fixedWalls
    {
        type            calculated;
        value           nonuniform List<scalar> 
60
(
1.26581e-11
-1.97325e-11
2.57498e-12
1.18991e-11
-1.25496e-11
5.52943e-12
2.00577e-12
-2.98156e-12
-2.1684e-13
5.42101e-13
-6.77626e-13
3.63208e-12
-5.80048e-12
5.52943e-12
-2.08709e-12
-4.58075e-12
6.93889e-12
-1.0842e-13
-9.78492e-12
7.18284e-12
0
2.71051e-14
0
0
-2.71051e-14
0
-2.71051e-14
0
0
0
-2.71051e-14
0
2.71051e-14
-5.42101e-14
2.71051e-14
0
0
-2.71051e-14
0
-2.71051e-14
1.26581e-11
-1.7944e-12
3.83134e-13
-1.50469e-13
5.26974e-14
-1.41277e-15
8.49854e-15
6.96903e-15
-1.61155e-14
-1.37315e-14
1.73784e-14
-6.17689e-15
-1.72765e-15
3.59609e-15
4.58803e-15
-1.75097e-15
-1.77566e-14
3.74958e-14
-3.78637e-14
0
)
;
    }
    frontAndBack
    {
        type            empty;
        value           nonuniform List<scalar> 0();
    }
}


// ************************************************************************* //
