/*--------------------------------*- C++ -*----------------------------------*\
| =========                 |                                                 |
| \\      /  F ield         | OpenFOAM: The Open Source CFD Toolbox           |
|  \\    /   O peration     | Version:  2312                                  |
|   \\  /    A nd           | Website:  www.openfoam.com                      |
|    \\/     M anipulation  |                                                 |
\*---------------------------------------------------------------------------*/
FoamFile
{
    version     2.0;
    format      ascii;
    arch        "LSB;label=32;scalar=64";
    class       surfaceVectorField;
    location    "5.5";
    object      surfaceU;
}
// * * * * * * * * * * * * * * * * * * * * * * * * * * * * * * * * * * * * * //

dimensions      [0 1 -1 0 0 0 0];

internalField   nonuniform List<vector> 
760
(
(-1 3.33279e-14 0)
(-1 6.60316e-14 0)
(-1 -6.39004e-15 0)
(-1 -1.34443e-14 0)
(-1 1.62289e-15 0)
(-1 3.27092e-15 0)
(-1 -3.23393e-16 0)
(-1 -6.16817e-16 0)
(-1 4.87293e-17 0)
(-1 1.27961e-16 0)
(-1 9.79362e-18 0)
(-1 -7.06383e-18 0)
(-1 6.96663e-17 0)
(-1 4.24927e-17 0)
(-1 7.51646e-17 0)
(-1 3.48451e-17 0)
(-1 6.5707e-17 0)
(-1 5.49477e-17 0)
(-1 7.21245e-17 0)
(-1 6.68676e-17 0)
(-1 1.01313e-16 0)
(-1 8.6892e-17 0)
(-1 6.44235e-17 0)
(-1 1.04641e-16 0)
(-1 -2.8925e-17 0)
(-1 -8.63825e-18 0)
(-1 -6.14171e-17 0)
(-1 -1.17545e-16 0)
(-1 -2.09127e-17 0)
(-1 -1.12585e-16 0)
(-1 4.03898e-17 0)
(-1 -8.75484e-18 0)
(-1 6.58764e-17 0)
(-1 4.67422e-17 0)
(-1 9.1877e-17 0)
(-1 5.19538e-17 0)
(-1 8.30423e-17 0)
(-1 8.17319e-17 0)
(-1 2.41729e-18 0)
(-1 1.92594e-14 0)
(-1 -3.89935e-14 0)
(-1 -3.78335e-15 0)
(-1 8.29594e-15 0)
(-1 1.03122e-15 0)
(-1 -1.97225e-15 0)
(-1 -1.65463e-16 0)
(-1 4.06539e-16 0)
(-1 7.21684e-17 0)
(-1 -7.25035e-17 0)
(-1 2.56352e-17 0)
(-1 1.1593e-16 0)
(-1 7.67152e-18 0)
(-1 5.89628e-17 0)
(-1 1.46282e-17 0)
(-1 3.87791e-17 0)
(-1 5.61082e-17 0)
(-1 1.23883e-16 0)
(-1 8.1635e-17 0)
(-1 1.79716e-16 0)
(-1 9.022e-17 0)
(-1 1.75768e-16 0)
(-1 3.15791e-17 0)
(-1 1.43644e-16 0)
(-1 -9.7258e-17 0)
(-1 3.97032e-17 0)
(-1 -1.68713e-16 0)
(-1 -1.08027e-16 0)
(-1 -1.00427e-16 0)
(-1 -1.85594e-16 0)
(-1 -2.40239e-18 0)
(-1 -9.76964e-17 0)
(-1 3.28197e-17 0)
(-1 -4.86798e-17 0)
(-1 4.18088e-17 0)
(-1 -2.41591e-17 0)
(-1 1.10693e-18 0)
(-1 -5.67426e-17 0)
(-1 -9.77262e-17 0)
(-1 -4.9957e-14 0)
(-1 -2.30032e-14 0)
(-1 1.0107e-14 0)
(-1 4.69454e-15 0)
(-1 -2.59693e-15 0)
(-1 -1.20081e-15 0)
(-1 4.99498e-16 0)
(-1 1.97335e-16 0)
(-1 -2.87424e-17 0)
(-1 1.25564e-17 0)
(-1 1.49257e-16 0)
(-1 1.12379e-16 0)
(-1 9.00703e-17 0)
(-1 7.84982e-17 0)
(-1 1.48034e-16 0)
(-1 9.82883e-17 0)
(-1 2.47491e-16 0)
(-1 1.78921e-16 0)
(-1 2.73849e-16 0)
(-1 2.28369e-16 0)
(-1 2.29193e-16 0)
(-1 2.04158e-16 0)
(-1 1.51769e-16 0)
(-1 1.4734e-16 0)
(-1 2.89339e-17 0)
(-1 1.20778e-16 0)
(-1 -1.24909e-16 0)
(-1 5.90574e-17 0)
(-1 -1.82863e-16 0)
(-1 -5.43149e-17 0)
(-1 -1.43974e-16 0)
(-1 -9.44296e-17 0)
(-1 -1.05659e-16 0)
(-1 -1.1007e-16 0)
(-1 -1.2271e-16 0)
(-1 -1.29824e-16 0)
(-1 -1.55576e-16 0)
(-1 -1.77996e-16 0)
(-1 -1.40953e-16 0)
(-1 3.16484e-14 0)
(-1 3.63466e-14 0)
(-1 -6.61331e-15 0)
(-1 -7.55713e-15 0)
(-1 1.59345e-15 0)
(-1 1.77044e-15 0)
(-1 -2.89607e-16 0)
(-1 -4.06873e-16 0)
(-1 1.53677e-16 0)
(-1 1.2745e-16 0)
(-1 4.16197e-17 0)
(-1 1.33805e-17 0)
(-1 8.67162e-17 0)
(-1 5.37925e-18 0)
(-1 1.29175e-16 0)
(-1 3.7665e-17 0)
(-1 1.59798e-16 0)
(-1 4.85517e-17 0)
(-1 1.58677e-16 0)
(-1 5.16336e-17 0)
(-1 1.22305e-16 0)
(-1 2.67984e-17 0)
(-1 1.1635e-16 0)
(-1 -3.0227e-18 0)
(-1 1.50902e-16 0)
(-1 6.6443e-17 0)
(-1 1.29651e-16 0)
(-1 1.72378e-16 0)
(-1 3.41187e-17 0)
(-1 1.71202e-16 0)
(-1 -6.05257e-17 0)
(-1 6.35699e-17 0)
(-1 -1.34235e-16 0)
(-1 -8.52925e-17 0)
(-1 -1.8511e-16 0)
(-1 -1.56967e-16 0)
(-1 -1.63373e-16 0)
(-1 -1.62013e-16 0)
(-1 -9.35445e-17 0)
(-1 -2.85895e-15 0)
(-1 -2.23888e-14 0)
(-1 8.26632e-16 0)
(-1 4.61636e-15 0)
(-1 -2.29876e-16 0)
(-1 -1.06822e-15 0)
(-1 1.01838e-17 0)
(-1 2.20282e-16 0)
(-1 -1.28471e-17 0)
(-1 -9.49015e-18 0)
(-1 -2.28599e-17 0)
(-1 6.11562e-17 0)
(-1 -4.36719e-17 0)
(-1 1.8498e-17 0)
(-1 -4.29582e-17 0)
(-1 1.02434e-17 0)
(-1 -5.96132e-17 0)
(-1 5.54335e-19 0)
(-1 -8.02449e-17 0)
(-1 -4.26686e-17 0)
(-1 -9.85293e-17 0)
(-1 -7.2169e-17 0)
(-1 -5.29297e-17 0)
(-1 -7.75394e-17 0)
(-1 8.7919e-17 0)
(-1 -8.55783e-18 0)
(-1 2.13929e-16 0)
(-1 1.3333e-16 0)
(-1 2.00653e-16 0)
(-1 1.82414e-16 0)
(-1 3.88031e-17 0)
(-1 9.63672e-17 0)
(-1 -1.08024e-16 0)
(-1 -4.37115e-17 0)
(-1 -1.3387e-16 0)
(-1 -7.44422e-17 0)
(-1 -9.21843e-17 0)
(-1 -5.78484e-17 0)
(-1 -4.58289e-17 0)
(-1 -1.49135e-14 0)
(-1 -2.6372e-15 0)
(-1 2.7215e-15 0)
(-1 5.38844e-16 0)
(-1 -6.18067e-16 0)
(-1 -7.55546e-17 0)
(-1 2.00608e-16 0)
(-1 6.8045e-17 0)
(-1 6.45131e-17 0)
(-1 -3.23285e-17 0)
(-1 1.02514e-16 0)
(-1 -2.42891e-17 0)
(-1 7.24133e-17 0)
(-1 2.25743e-17 0)
(-1 5.37559e-17 0)
(-1 2.1982e-17 0)
(-1 1.7499e-17 0)
(-1 -3.77502e-18 0)
(-1 -3.45927e-17 0)
(-1 -3.86911e-17 0)
(-1 -5.11792e-17 0)
(-1 -1.50638e-17 0)
(-1 -3.31676e-17 0)
(-1 2.9778e-17 0)
(-1 3.68531e-17 0)
(-1 5.27197e-17 0)
(-1 1.01815e-16 0)
(-1 1.11866e-16 0)
(-1 7.81279e-17 0)
(-1 1.10187e-16 0)
(-1 1.38526e-17 0)
(-1 3.17691e-17 0)
(-1 -1.01298e-17 0)
(-1 5.31621e-17 0)
(-1 1.57969e-18 0)
(-1 7.60549e-17 0)
(-1 -1.1493e-17 0)
(-1 4.0398e-17 0)
(-1 -2.48739e-17 0)
(-1 1.28152e-14 0)
(-1 1.33159e-14 0)
(-1 -2.25821e-15 0)
(-1 -2.35284e-15 0)
(-1 6.10557e-16 0)
(-1 5.18275e-16 0)
(-1 -1.64891e-16 0)
(-1 -1.27623e-16 0)
(-1 -1.21131e-16 0)
(-1 -1.1124e-16 0)
(-1 -1.04229e-16 0)
(-1 -1.28689e-16 0)
(-1 -2.78571e-17 0)
(-1 -1.67945e-17 0)
(-1 -3.5549e-17 0)
(-1 4.28007e-17 0)
(-1 -5.99651e-17 0)
(-1 2.42044e-17 0)
(-1 -1.91622e-17 0)
(-1 -9.52432e-18 0)
(-1 6.58934e-17 0)
(-1 2.52876e-17 0)
(-1 1.15665e-16 0)
(-1 4.46159e-17 0)
(-1 1.27733e-16 0)
(-1 5.89536e-17 0)
(-1 1.20238e-16 0)
(-1 4.28214e-17 0)
(-1 6.38283e-17 0)
(-1 3.13094e-17 0)
(-1 7.10786e-17 0)
(-1 -4.7534e-18 0)
(-1 1.39347e-16 0)
(-1 1.20146e-16 0)
(-1 1.14873e-16 0)
(-1 1.85344e-16 0)
(-1 2.70171e-17 0)
(-1 1.01258e-16 0)
(-1 5.08919e-18 0)
(-1 -1.85211e-15 0)
(-1 -4.12531e-15 0)
(-1 4.23645e-16 0)
(-1 6.71986e-16 0)
(-1 -2.19905e-16 0)
(-1 -2.95524e-16 0)
(-1 -7.39721e-17 0)
(-1 -6.04356e-17 0)
(-1 -1.18798e-16 0)
(-1 -5.7236e-17 0)
(-1 -4.12544e-17 0)
(-1 7.58539e-18 0)
(-1 5.38632e-17 0)
(-1 7.18052e-17 0)
(-1 1.02554e-16 0)
(-1 1.37225e-16 0)
(-1 7.46452e-17 0)
(-1 1.34117e-16 0)
(-1 3.49255e-17 0)
(-1 6.28865e-17 0)
(-1 4.01003e-18 0)
(-1 4.2995e-18 0)
(-1 -1.20958e-17 0)
(-1 -9.08563e-17 0)
(-1 -2.59581e-17 0)
(-1 -9.77642e-17 0)
(-1 -4.61075e-17 0)
(-1 -1.10802e-16 0)
(-1 -3.72722e-17 0)
(-1 -7.55305e-17 0)
(-1 4.43139e-17 0)
(-1 -2.6254e-17 0)
(-1 1.66143e-16 0)
(-1 6.79501e-17 0)
(-1 1.71729e-16 0)
(-1 1.41748e-16 0)
(-1 7.93305e-17 0)
(-1 1.1071e-16 0)
(-1 2.59313e-17 0)
(-1 -1.60121e-15 0)
(-1 -6.7987e-16 0)
(-1 -4.71825e-17 0)
(-1 1.92258e-17 0)
(-1 -1.36054e-16 0)
(-1 -1.86667e-16 0)
(-1 -4.36995e-17 0)
(-1 -1.59125e-16 0)
(-1 6.91478e-17 0)
(-1 -7.42236e-17 0)
(-1 1.20645e-16 0)
(-1 2.11847e-17 0)
(-1 1.55167e-16 0)
(-1 4.6276e-17 0)
(-1 1.68789e-16 0)
(-1 5.15413e-17 0)
(-1 1.22359e-16 0)
(-1 1.78732e-17 0)
(-1 3.22605e-17 0)
(-1 -1.57977e-17 0)
(-1 -9.05669e-17 0)
(-1 -7.70551e-17 0)
(-1 -1.76525e-16 0)
(-1 -9.87483e-17 0)
(-1 -1.82609e-16 0)
(-1 -1.00673e-16 0)
(-1 -1.40225e-16 0)
(-1 -7.98527e-17 0)
(-1 -6.45122e-17 0)
(-1 -6.57612e-19 0)
(-1 -2.6178e-18 0)
(-1 5.17348e-17 0)
(-1 4.35552e-17 0)
(-1 8.39566e-18 0)
(-1 8.07294e-17 0)
(-1 2.41402e-17 0)
(-1 5.73111e-17 0)
(-1 7.87874e-17 0)
(-1 1.03522e-18 0)
(-1 9.40562e-16 0)
(-1 -1.72996e-15 0)
(-1 -1.20258e-16 0)
(-1 2.0788e-17 0)
(-1 -2.09737e-16 0)
(-1 -1.04202e-16 0)
(-1 -1.89649e-16 0)
(-1 -1.06357e-16 0)
(-1 -1.22187e-16 0)
(-1 -8.43756e-17 0)
(-1 -5.31843e-17 0)
(-1 -1.00886e-16 0)
(-1 -5.73502e-17 0)
(-1 -9.35494e-17 0)
(-1 -9.93742e-17 0)
(-1 -1.2462e-16 0)
(-1 -1.20283e-16 0)
(-1 -8.91729e-17 0)
(-1 -1.25113e-16 0)
(-1 -7.24595e-17 0)
(-1 -8.52365e-17 0)
(-1 -9.55215e-17 0)
(-1 -2.28965e-17 0)
(-1 -1.85121e-17 0)
(-1 2.08298e-18 0)
(-1 5.22799e-17 0)
(-1 5.97151e-17 0)
(-1 4.55769e-17 0)
(-1 1.15589e-16 0)
(-1 4.57818e-17 0)
(-1 6.27483e-17 0)
(-1 3.75943e-17 0)
(-1 -1.10193e-17 0)
(-1 -4.25969e-17 0)
(-1 2.21982e-17 0)
(-1 -1.49822e-17 0)
(-1 2.25115e-17 0)
(-1 7.71131e-17 0)
(-1 -9.27529e-18 0)
(-1 -2.64974e-15 0)
(-1 1.93555e-15 0)
(-1 3.68441e-17 0)
(-1 -6.45336e-16 0)
(-1 -8.21955e-19 0)
(-1 1.71236e-16 0)
(-1 -1.08351e-18 0)
(-1 1.24419e-17 0)
(-1 -6.30751e-17 0)
(-1 8.12972e-17 0)
(-1 -1.41251e-16 0)
(-1 -4.18542e-17 0)
(-1 -1.60819e-16 0)
(-1 -6.92921e-17 0)
(-1 -1.14418e-16 0)
(-1 -6.76362e-17 0)
(-1 -4.13493e-17 0)
(-1 3.24823e-17 0)
(-1 -4.28677e-17 0)
(-1 6.84994e-17 0)
(-1 -2.87971e-17 0)
(-1 2.82507e-18 0)
(-1 5.66643e-17 0)
(-1 -7.89466e-18 0)
(-1 9.57738e-17 0)
(-1 3.99264e-17 0)
(-1 3.16435e-17 0)
(-1 2.34592e-17 0)
(-1 -3.22134e-17 0)
(-1 -3.75855e-17 0)
(-1 -6.77509e-17 0)
(-1 -1.25931e-17 0)
(-1 -4.65598e-17 0)
(-1 -1.05396e-17 0)
(-1 3.99327e-17 0)
(-1 1.19218e-17 0)
(-1 4.53263e-17 0)
(-1 7.75773e-17 0)
(-1 5.76388e-17 0)
(-1 3.93995e-15 0)
(-1 7.45631e-15 0)
(-1 -5.10945e-16 0)
(-1 -1.18563e-15 0)
(-1 1.845e-16 0)
(-1 3.71028e-16 0)
(-1 9.48226e-17 0)
(-1 5.62053e-17 0)
(-1 1.02518e-16 0)
(-1 1.76049e-16 0)
(-1 3.0105e-17 0)
(-1 6.39051e-17 0)
(-1 2.38905e-17 0)
(-1 -1.40636e-17 0)
(-1 7.92643e-17 0)
(-1 1.50368e-17 0)
(-1 1.42331e-16 0)
(-1 -3.24021e-18 0)
(-1 1.14192e-16 0)
(-1 2.20068e-17 0)
(-1 2.37275e-17 0)
(-1 -4.178e-17 0)
(-1 -2.46326e-17 0)
(-1 -8.44909e-17 0)
(-1 -3.23882e-17 0)
(-1 -1.09487e-16 0)
(-1 -4.57697e-17 0)
(-1 -4.85831e-17 0)
(-1 -1.79652e-17 0)
(-1 1.13806e-17 0)
(-1 4.46182e-17 0)
(-1 1.40819e-16 0)
(-1 4.7942e-17 0)
(-1 1.2901e-16 0)
(-1 4.95664e-17 0)
(-1 4.82436e-18 0)
(-1 8.98898e-17 0)
(-1 -2.68342e-18 0)
(-1 7.15357e-17 0)
(-1 2.33073e-15 0)
(-1 -1.04251e-14 0)
(-1 -3.03656e-16 0)
(-1 2.27032e-15 0)
(-1 2.42733e-16 0)
(-1 -3.70171e-16 0)
(-1 1.37432e-16 0)
(-1 1.58118e-16 0)
(-1 1.37436e-16 0)
(-1 -7.45198e-18 0)
(-1 1.97366e-17 0)
(-1 -2.78415e-17 0)
(-1 -2.29173e-17 0)
(-1 -5.82883e-17 0)
(-1 -6.74677e-17 0)
(-1 3.49477e-17 0)
(-1 -1.23564e-16 0)
(-1 -1.06716e-17 0)
(-1 -1.33965e-16 0)
(-1 -9.23615e-18 0)
(-1 -1.49998e-16 0)
(-1 3.84388e-18 0)
(-1 -1.69346e-16 0)
(-1 -5.91936e-17 0)
(-1 -1.25682e-16 0)
(-1 -9.37055e-17 0)
(-1 8.56718e-18 0)
(-1 -4.62745e-17 0)
(-1 1.70165e-16 0)
(-1 -1.78751e-17 0)
(-1 2.25211e-16 0)
(-1 7.19017e-17 0)
(-1 8.58924e-17 0)
(-1 9.74312e-17 0)
(-1 -4.74255e-17 0)
(-1 -2.1119e-17 0)
(-1 -2.10376e-17 0)
(-1 -9.62578e-17 0)
(-1 -3.79834e-17 0)
(-1 -1.04855e-14 0)
(-1 9.54237e-15 0)
(-1 2.2038e-15 0)
(-1 -1.82144e-15 0)
(-1 -4.54786e-16 0)
(-1 3.99877e-16 0)
(-1 1.32345e-17 0)
(-1 -1.54236e-16 0)
(-1 -1.7273e-16 0)
(-1 -1.61241e-16 0)
(-1 -1.05866e-16 0)
(-1 -9.74883e-17 0)
(-1 -4.23252e-19 0)
(-1 -2.2987e-17 0)
(-1 9.17438e-17 0)
(-1 8.12531e-17 0)
(-1 1.03657e-16 0)
(-1 1.28727e-16 0)
(-1 1.28573e-16 0)
(-1 1.48094e-16 0)
(-1 9.46487e-17 0)
(-1 2.17585e-16 0)
(-1 1.64466e-17 0)
(-1 9.8723e-17 0)
(-1 -1.42977e-17 0)
(-1 -8.15703e-18 0)
(-1 -7.27167e-17 0)
(-1 -3.2552e-17 0)
(-1 -1.16139e-16 0)
(-1 -9.94853e-17 0)
(-1 -5.58784e-17 0)
(-1 -1.25454e-16 0)
(-1 -9.58021e-18 0)
(-1 -1.85905e-17 0)
(-1 -6.99514e-17 0)
(-1 -1.45493e-17 0)
(-1 -1.13204e-16 0)
(-1 -9.71589e-17 0)
(-1 -7.84565e-17 0)
(-1 1.82065e-14 0)
(-1 5.5854e-15 0)
(-1 -3.62537e-15 0)
(-1 -1.19289e-15 0)
(-1 7.00427e-16 0)
(-1 9.39461e-17 0)
(-1 -3.28712e-16 0)
(-1 -1.89582e-16 0)
(-1 -8.60001e-17 0)
(-1 -1.45105e-16 0)
(-1 -1.4609e-17 0)
(-1 -3.81443e-17 0)
(-1 5.86893e-17 0)
(-1 3.92982e-17 0)
(-1 1.18236e-16 0)
(-1 -1.92558e-17 0)
(-1 1.73164e-16 0)
(-1 1.5292e-17 0)
(-1 2.37106e-16 0)
(-1 9.57715e-17 0)
(-1 2.2166e-16 0)
(-1 1.85296e-16 0)
(-1 7.41194e-17 0)
(-1 1.14518e-16 0)
(-1 -2.64113e-17 0)
(-1 -4.33808e-17 0)
(-1 -5.93206e-17 0)
(-1 -6.21337e-17 0)
(-1 -1.08801e-16 0)
(-1 -5.61713e-17 0)
(-1 -8.81663e-17 0)
(-1 -1.42341e-16 0)
(-1 -2.35595e-17 0)
(-1 -1.42128e-16 0)
(-1 -4.17568e-17 0)
(-1 -1.08885e-16 0)
(-1 -6.24118e-17 0)
(-1 -6.67343e-17 0)
(-1 -1.94761e-17 0)
(-1 -1.38139e-14 0)
(-1 -2.03599e-14 0)
(-1 2.52643e-15 0)
(-1 4.14178e-15 0)
(-1 -7.96063e-16 0)
(-1 -1.04423e-15 0)
(-1 -5.97559e-18 0)
(-1 1.36809e-16 0)
(-1 -9.72495e-17 0)
(-1 -1.15916e-16 0)
(-1 1.57629e-17 0)
(-1 2.22059e-17 0)
(-1 -3.86469e-17 0)
(-1 1.08697e-16 0)
(-1 -1.222e-16 0)
(-1 -2.42573e-17 0)
(-1 -6.21005e-17 0)
(-1 -1.178e-17 0)
(-1 4.39614e-17 0)
(-1 4.24456e-17 0)
(-1 7.81542e-17 0)
(-1 9.93045e-18 0)
(-1 -2.98251e-18 0)
(-1 1.34902e-17 0)
(-1 -7.91032e-17 0)
(-1 -3.09731e-17 0)
(-1 -5.89844e-17 0)
(-1 -8.15134e-17 0)
(-1 -8.97111e-17 0)
(-1 -1.02246e-16 0)
(-1 -1.96302e-16 0)
(-1 -2.04475e-16 0)
(-1 -2.27453e-16 0)
(-1 -2.63632e-16 0)
(-1 -1.33862e-16 0)
(-1 -1.771e-16 0)
(-1 -2.37986e-17 0)
(-1 -2.23581e-17 0)
(-1 6.18038e-18 0)
(-1 -2.40418e-15 0)
(-1 1.72115e-14 0)
(-1 5.71117e-16 0)
(-1 -3.46406e-15 0)
(-1 -1.11356e-16 0)
(-1 7.66878e-16 0)
(-1 2.68687e-17 0)
(-1 -1.41091e-16 0)
(-1 3.53943e-18 0)
(-1 1.00381e-17 0)
(-1 1.1514e-16 0)
(-1 -2.96562e-18 0)
(-1 1.23087e-16 0)
(-1 6.49683e-17 0)
(-1 8.61622e-17 0)
(-1 6.7785e-17 0)
(-1 9.27661e-17 0)
(-1 4.26791e-17 0)
(-1 8.41469e-18 0)
(-1 -5.79568e-17 0)
(-1 -5.47335e-17 0)
(-1 -1.57346e-16 0)
(-1 -1.45004e-17 0)
(-1 -6.84705e-17 0)
(-1 -3.33833e-17 0)
(-1 1.81633e-17 0)
(-1 -1.24775e-16 0)
(-1 -5.27845e-17 0)
(-1 -2.17009e-16 0)
(-1 -1.11499e-16 0)
(-1 -2.71805e-16 0)
(-1 -1.76627e-16 0)
(-1 -2.13279e-16 0)
(-1 -2.03748e-16 0)
(-1 -6.55958e-17 0)
(-1 -4.43687e-17 0)
(-1 7.62082e-18 0)
(-1 6.46518e-17 0)
(-1 1.54373e-17 0)
(-1 1.61516e-14 0)
(-1 1.81728e-14 0)
(-1 -3.2683e-15 0)
(-1 -4.19356e-15 0)
(-1 7.37142e-16 0)
(-1 8.75665e-16 0)
(-1 -1.57922e-16 0)
(-1 -2.72755e-16 0)
(-1 3.533e-18 0)
(-1 1.56498e-17 0)
(-1 -5.31374e-17 0)
(-1 -8.5064e-17 0)
(-1 9.66669e-18 0)
(-1 -1.04944e-16 0)
(-1 2.43019e-17 0)
(-1 -2.85544e-17 0)
(-1 -1.08044e-16 0)
(-1 -7.77127e-17 0)
(-1 -2.23718e-16 0)
(-1 -1.8051e-16 0)
(-1 -1.71083e-16 0)
(-1 -1.61173e-16 0)
(-1 -3.58068e-17 0)
(-1 -6.16411e-17 0)
(-1 -1.23785e-18 0)
(-1 1.72137e-17 0)
(-1 -3.95085e-17 0)
(-1 -5.73293e-17 0)
(-1 -7.11164e-17 0)
(-1 -8.43814e-17 0)
(-1 -1.0857e-16 0)
(-1 -1.22705e-16 0)
(-1 -3.48371e-17 0)
(-1 -1.10238e-16 0)
(-1 8.58789e-17 0)
(-1 3.25617e-17 0)
(-1 7.24683e-17 0)
(-1 4.23165e-17 0)
(-1 2.15839e-17 0)
(-1 -2.17242e-15 0)
(-1 -3.45054e-14 0)
(-1 -4.9598e-17 0)
(-1 6.80924e-15 0)
(-1 -1.34233e-16 0)
(-1 -1.64729e-15 0)
(-1 -9.91835e-17 0)
(-1 2.55171e-16 0)
(-1 -7.29471e-17 0)
(-1 -7.01483e-17 0)
(-1 -1.3687e-16 0)
(-1 -1.08972e-17 0)
(-1 -1.43165e-16 0)
(-1 -9.13687e-17 0)
(-1 -1.30569e-16 0)
(-1 -1.07224e-16 0)
(-1 -1.50179e-16 0)
(-1 -8.70153e-17 0)
(-1 -1.17966e-16 0)
(-1 -5.78659e-17 0)
(-1 -5.17311e-17 0)
(-1 -9.78458e-18 0)
(-1 -8.62059e-18 0)
(-1 -4.81179e-18 0)
(-1 -3.88778e-17 0)
(-1 2.95995e-18 0)
(-1 -1.02202e-16 0)
(-1 -7.80239e-17 0)
(-1 -1.3597e-16 0)
(-1 -1.21834e-16 0)
(-1 -1.24373e-16 0)
(-1 -1.35625e-16 0)
(-1 -4.28387e-17 0)
(-1 -5.3197e-17 0)
(-1 -1.10007e-17 0)
(-1 -1.62685e-17 0)
(-1 -8.56801e-18 0)
(-1 -7.5361e-17 0)
(-1 -6.27815e-18 0)
(-1 -2.55238e-14 0)
(-1 5.21155e-15 0)
(-1 -1.25788e-15 0)
(-1 2.84206e-16 0)
(-1 -8.09829e-18 0)
(-1 3.46046e-17 0)
(-1 -5.54282e-17 0)
(-1 -6.36708e-17 0)
(-1 5.29802e-18 0)
(-1 5.03153e-17 0)
(-1 3.71347e-17 0)
(-1 6.76875e-18 0)
(-1 -3.61862e-17 0)
(-1 -9.76554e-17 0)
(-1 -1.21488e-16 0)
(-1 -6.44485e-17 0)
(-1 -2.66268e-17 0)
(-1 -8.06288e-17 0)
(-1 -7.30712e-17 0)
)
;

boundaryField
{
    movingWall
    {
        type            calculated;
        value           uniform (-1 -0 -0);
    }
    fixedWalls
    {
        type            calculated;
        value           uniform (-1 -0 -0);
    }
    frontAndBack
    {
        type            empty;
        value           nonuniform List<vector> 0();
    }
}


// ************************************************************************* //
