/*--------------------------------*- C++ -*----------------------------------*\
| =========                 |                                                 |
| \\      /  F ield         | OpenFOAM: The Open Source CFD Toolbox           |
|  \\    /   O peration     | Version:  2312                                  |
|   \\  /    A nd           | Website:  www.openfoam.com                      |
|    \\/     M anipulation  |                                                 |
\*---------------------------------------------------------------------------*/
FoamFile
{
    version     2.0;
    format      ascii;
    arch        "LSB;label=32;scalar=64";
    class       surfaceScalarField;
    location    "5.5";
    object      surfaceP;
}
// * * * * * * * * * * * * * * * * * * * * * * * * * * * * * * * * * * * * * //

dimensions      [0 2 -2 0 0 0 0];

internalField   nonuniform List<scalar> 
760
(
1.58527e-15
1.06371e-15
2.57483e-15
1.58527e-15
2.11912e-15
1.99809e-15
2.25222e-15
2.10781e-15
2.32292e-15
2.36011e-15
2.39615e-15
2.49084e-15
2.37658e-15
2.42684e-15
2.38696e-15
2.37196e-15
2.38873e-15
2.39823e-15
2.39871e-15
2.40909e-15
2.5507e-15
2.4277e-15
2.66457e-15
2.57642e-15
2.65854e-15
2.63785e-15
2.65732e-15
2.72161e-15
2.70538e-15
2.64772e-15
2.75538e-15
2.77095e-15
2.81206e-15
2.76768e-15
2.92984e-15
2.89071e-15
2.92186e-15
2.92114e-15
2.77888e-15
1.06371e-15
1.96123e-15
1.00853e-15
7.69084e-16
1.98679e-15
2.04478e-15
2.2157e-15
2.05468e-15
2.52803e-15
2.51314e-15
2.52153e-15
2.53643e-15
2.42221e-15
2.4553e-15
2.38323e-15
2.4479e-15
2.41859e-15
2.47375e-15
2.43807e-15
2.47024e-15
2.45342e-15
2.41205e-15
2.5497e-15
2.46607e-15
2.70092e-15
2.58508e-15
2.712e-15
2.72325e-15
2.71329e-15
2.72783e-15
2.78326e-15
2.79249e-15
2.84633e-15
2.82891e-15
2.88201e-15
2.87934e-15
2.77815e-15
2.91668e-15
2.83768e-15
1.6666e-15
1.5883e-15
1.80533e-15
2.79931e-15
2.11268e-15
2.14414e-15
2.35213e-15
2.28675e-15
2.52155e-15
2.58139e-15
2.4702e-15
2.5344e-15
2.48098e-15
2.46841e-15
2.53842e-15
2.61578e-15
2.5254e-15
2.53339e-15
2.44422e-15
2.48014e-15
2.4247e-15
2.42785e-15
2.50146e-15
2.46199e-15
2.60742e-15
2.49202e-15
2.73908e-15
2.60689e-15
2.80703e-15
2.82924e-15
2.83814e-15
2.78944e-15
2.86192e-15
2.88089e-15
2.91402e-15
2.86535e-15
2.97621e-15
2.97537e-15
3.09006e-15
2.72101e-15
1.88124e-15
3.13812e-15
2.03023e-15
2.31821e-15
2.22328e-15
2.51601e-15
2.28672e-15
2.59425e-15
2.57162e-15
2.53261e-15
2.56821e-15
2.6032e-15
2.54257e-15
2.61074e-15
2.73697e-15
2.48813e-15
2.58515e-15
2.46378e-15
2.52131e-15
2.46514e-15
2.51373e-15
2.45255e-15
2.54754e-15
2.4915e-15
2.53909e-15
2.69706e-15
2.59347e-15
2.81166e-15
2.77323e-15
2.83219e-15
2.73436e-15
2.88432e-15
2.82147e-15
2.9267e-15
2.87741e-15
3.08921e-15
3.00251e-15
3.32088e-15
1.19046e-15
2.18493e-15
1.11539e-15
2.08335e-15
2.19179e-15
2.21993e-15
2.34233e-15
2.37124e-15
2.54559e-15
2.51992e-15
2.57818e-15
2.57301e-15
2.67634e-15
2.66452e-15
2.71137e-15
2.77102e-15
2.61833e-15
2.64117e-15
2.57126e-15
2.6075e-15
2.59613e-15
2.63056e-15
2.63408e-15
2.69803e-15
2.64106e-15
2.72586e-15
2.66964e-15
2.69572e-15
2.69594e-15
2.74167e-15
2.72363e-15
2.72208e-15
2.81456e-15
2.81045e-15
2.95322e-15
2.89197e-15
3.23418e-15
3.086e-15
3.46134e-15
3.07783e-15
2.07101e-15
3.1879e-15
3.06863e-15
2.39938e-15
2.26987e-15
2.54883e-15
2.51492e-15
2.54734e-15
2.55672e-15
2.65935e-15
2.64691e-15
2.75919e-15
2.78887e-15
2.70081e-15
2.79614e-15
2.63033e-15
2.64388e-15
2.6668e-15
2.7353e-15
2.73247e-15
2.80071e-15
2.78981e-15
2.84443e-15
2.78052e-15
2.86508e-15
2.76775e-15
2.77622e-15
2.76782e-15
2.82811e-15
2.8089e-15
2.86139e-15
2.88786e-15
2.91204e-15
3.02475e-15
2.96587e-15
3.31316e-15
3.20566e-15
3.56842e-15
2.06181e-15
2.50933e-15
2.1506e-15
2.10684e-15
2.3854e-15
2.34512e-15
2.5228e-15
2.47418e-15
2.65629e-15
2.65867e-15
2.77643e-15
2.7761e-15
2.82582e-15
2.86806e-15
2.73921e-15
2.82122e-15
2.74885e-15
2.71177e-15
2.86921e-15
2.96941e-15
2.91267e-15
2.95545e-15
2.9197e-15
2.89753e-15
2.86079e-15
2.85641e-15
2.83658e-15
2.7806e-15
2.92169e-15
2.89362e-15
2.96454e-15
3.05105e-15
2.99005e-15
3.05913e-15
3.14678e-15
3.07489e-15
3.46092e-15
3.31091e-15
3.62953e-15
2.55436e-15
2.83897e-15
2.30136e-15
2.11576e-15
2.4339e-15
2.49109e-15
2.61005e-15
2.5322e-15
2.77849e-15
2.75722e-15
2.86773e-15
2.90364e-15
2.86345e-15
2.93835e-15
2.79378e-15
2.88197e-15
2.93232e-15
2.784e-15
3.05564e-15
3.07409e-15
2.9403e-15
2.93679e-15
2.83424e-15
2.9166e-15
2.77622e-15
2.85567e-15
2.83763e-15
2.91946e-15
3.02298e-15
3.00554e-15
3.14564e-15
3.2295e-15
3.14396e-15
3.24737e-15
3.23902e-15
3.12111e-15
3.47953e-15
3.33149e-15
3.60052e-15
2.40037e-15
2.82131e-15
2.30548e-15
2.60827e-15
2.58938e-15
2.64743e-15
2.67937e-15
2.68562e-15
2.88237e-15
2.8785e-15
2.97426e-15
2.99919e-15
2.95686e-15
3.0178e-15
2.87219e-15
2.95433e-15
2.92577e-15
2.91416e-15
2.95524e-15
3.04211e-15
2.91309e-15
2.88839e-15
2.93803e-15
2.97728e-15
2.99891e-15
2.99664e-15
3.08736e-15
3.14232e-15
3.21206e-15
3.2007e-15
3.33124e-15
3.34222e-15
3.22452e-15
3.3342e-15
3.21358e-15
3.18755e-15
3.45248e-15
3.35754e-15
3.56805e-15
3.02921e-15
2.68966e-15
2.95021e-15
2.444e-15
2.74367e-15
2.77125e-15
2.88475e-15
2.85611e-15
2.99532e-15
2.99893e-15
3.04273e-15
3.05706e-15
3.01526e-15
3.04554e-15
2.99629e-15
3.0424e-15
3.0305e-15
3.02875e-15
2.97526e-15
3.09791e-15
2.95258e-15
3.05001e-15
3.03589e-15
3.04389e-15
3.14006e-15
3.05619e-15
3.25566e-15
3.25781e-15
3.33086e-15
3.29788e-15
3.34518e-15
3.33032e-15
3.29722e-15
3.35475e-15
3.33151e-15
3.29923e-15
3.47311e-15
3.35921e-15
3.60989e-15
2.10446e-15
2.60558e-15
2.26504e-15
3.4977e-15
2.8837e-15
2.86357e-15
2.97029e-15
3.00868e-15
3.06067e-15
3.00514e-15
3.05988e-15
3.13733e-15
3.07268e-15
3.09657e-15
3.07486e-15
3.15681e-15
3.09617e-15
3.01158e-15
3.17266e-15
3.13645e-15
3.14131e-15
3.27169e-15
3.06418e-15
3.2046e-15
3.17394e-15
3.09392e-15
3.30003e-15
3.20978e-15
3.29734e-15
3.27728e-15
3.33988e-15
3.33179e-15
3.35675e-15
3.46891e-15
3.32693e-15
3.36037e-15
3.49599e-15
3.29505e-15
3.62994e-15
3.99883e-15
2.94747e-15
4.09623e-15
2.90594e-15
2.98855e-15
2.8813e-15
3.04354e-15
3.05744e-15
3.0818e-15
3.05795e-15
3.17403e-15
3.28064e-15
3.18071e-15
3.26454e-15
3.09354e-15
3.20267e-15
3.05187e-15
3.02851e-15
3.23549e-15
3.1108e-15
3.33498e-15
3.33082e-15
3.23434e-15
3.29616e-15
3.12977e-15
3.18062e-15
3.18703e-15
3.17512e-15
3.31173e-15
3.25814e-15
3.46081e-15
3.29991e-15
3.47252e-15
3.481e-15
3.32849e-15
3.42539e-15
3.429e-15
3.29215e-15
3.43983e-15
1.85458e-15
3.18351e-15
1.69102e-15
2.80418e-15
2.95019e-15
2.89332e-15
3.07185e-15
3.16344e-15
3.25679e-15
3.13396e-15
3.37116e-15
3.41215e-15
3.28651e-15
3.52908e-15
3.13764e-15
3.21312e-15
3.08743e-15
3.10525e-15
3.20614e-15
3.10384e-15
3.292e-15
3.23279e-15
3.24244e-15
3.25264e-15
3.22598e-15
3.28994e-15
3.24623e-15
3.25388e-15
3.24632e-15
3.26569e-15
3.3201e-15
3.13101e-15
3.43387e-15
3.28725e-15
3.38904e-15
3.37978e-15
3.30298e-15
3.3188e-15
3.39747e-15
4.1331e-15
3.36201e-15
4.00648e-15
3.54695e-15
3.10656e-15
3.09334e-15
3.22554e-15
3.25422e-15
3.28932e-15
3.27803e-15
3.57007e-15
3.5008e-15
3.45569e-15
3.70293e-15
3.18073e-15
3.27548e-15
3.12165e-15
3.11134e-15
3.13049e-15
3.1169e-15
3.19343e-15
3.10315e-15
3.30014e-15
3.22191e-15
3.31784e-15
3.28008e-15
3.27334e-15
3.25897e-15
3.15039e-15
3.37404e-15
3.09817e-15
3.16466e-15
3.23317e-15
3.08649e-15
3.30954e-15
3.18617e-15
3.41329e-15
3.27443e-15
3.57009e-15
2.77585e-15
3.60709e-15
2.63382e-15
2.45863e-15
3.241e-15
3.41801e-15
3.30671e-15
3.25387e-15
3.48951e-15
3.43264e-15
3.63366e-15
3.52994e-15
3.52272e-15
3.64641e-15
3.20609e-15
3.25786e-15
3.10659e-15
3.09717e-15
3.08955e-15
3.12384e-15
3.13163e-15
3.0182e-15
3.20185e-15
3.18642e-15
3.22121e-15
3.29744e-15
3.35967e-15
3.30141e-15
3.38831e-15
3.44493e-15
3.15299e-15
3.27415e-15
3.03949e-15
3.03273e-15
3.15105e-15
3.10255e-15
3.43123e-15
3.28407e-15
3.62962e-15
3.28987e-15
3.34474e-15
3.24283e-15
3.55948e-15
3.43088e-15
3.52139e-15
3.3798e-15
3.42294e-15
3.47307e-15
3.49757e-15
3.54269e-15
3.52859e-15
3.38156e-15
3.44332e-15
3.14894e-15
3.2541e-15
3.11443e-15
3.20295e-15
3.05249e-15
3.13047e-15
3.07299e-15
2.92917e-15
3.28202e-15
3.16344e-15
3.37764e-15
3.32689e-15
3.38667e-15
3.28889e-15
3.33077e-15
3.3301e-15
3.1539e-15
3.3063e-15
3.09579e-15
3.16927e-15
3.23556e-15
3.24116e-15
3.48246e-15
3.32485e-15
3.62596e-15
3.61435e-15
3.33217e-15
3.83805e-15
3.68631e-15
3.51346e-15
3.54961e-15
3.54072e-15
3.43249e-15
3.55309e-15
3.56777e-15
3.42921e-15
3.53196e-15
3.31586e-15
3.27574e-15
3.30811e-15
3.27379e-15
3.21899e-15
3.24218e-15
3.00716e-15
3.17587e-15
3.01962e-15
3.04811e-15
3.20832e-15
3.18742e-15
3.23814e-15
3.20958e-15
3.23232e-15
3.16885e-15
3.30564e-15
3.25247e-15
3.32167e-15
3.31571e-15
3.31464e-15
3.30513e-15
3.33045e-15
3.38644e-15
3.46836e-15
3.32203e-15
3.65095e-15
3.40413e-15
3.67022e-15
3.39787e-15
2.68216e-15
3.46864e-15
3.55412e-15
3.45955e-15
3.30305e-15
3.54664e-15
3.5323e-15
3.37848e-15
3.53979e-15
3.23366e-15
3.30921e-15
3.20787e-15
3.15236e-15
3.19906e-15
3.15379e-15
3.21682e-15
3.29008e-15
3.21591e-15
3.27697e-15
3.18868e-15
3.21509e-15
3.14028e-15
3.10545e-15
3.18899e-15
3.18077e-15
3.26254e-15
3.2514e-15
3.29917e-15
3.25224e-15
3.37693e-15
3.42768e-15
3.37802e-15
3.40415e-15
3.50462e-15
3.31699e-15
3.59612e-15
2.94825e-15
3.10566e-15
2.83842e-15
3.47516e-15
3.38853e-15
3.3979e-15
3.3758e-15
3.33481e-15
3.52545e-15
3.46809e-15
3.47052e-15
3.48239e-15
3.22791e-15
3.31062e-15
3.09828e-15
3.12545e-15
3.24481e-15
3.18319e-15
3.35024e-15
3.38631e-15
3.27616e-15
3.3466e-15
3.13185e-15
3.26635e-15
3.14593e-15
3.08078e-15
3.24317e-15
3.24237e-15
3.24109e-15
3.30756e-15
3.38075e-15
3.43346e-15
3.4549e-15
3.49043e-15
3.34312e-15
3.30441e-15
3.40848e-15
3.33303e-15
3.54794e-15
3.63257e-15
4.03464e-15
3.34417e-15
3.42709e-15
3.42502e-15
3.32249e-15
3.20816e-15
3.21036e-15
3.3247e-15
3.38267e-15
3.33679e-15
3.21528e-15
3.17722e-15
3.30677e-15
3.49993e-15
3.54315e-15
3.33994e-15
3.29432e-15
3.47249e-15
)
;

boundaryField
{
    movingWall
    {
        type            calculated;
        value           nonuniform List<scalar> 
20
(
2.4701e-15
4.79505e-15
3.27423e-15
3.41411e-15
3.44007e-15
3.40997e-15
3.235e-15
3.18132e-15
3.23941e-15
3.40999e-15
3.35535e-15
3.31823e-15
3.11233e-15
3.24212e-15
3.37141e-15
3.62845e-15
3.45784e-15
3.22204e-15
3.3666e-15
3.57839e-15
)
;
    }
    fixedWalls
    {
        type            calculated;
        value           nonuniform List<scalar> 
60
(
0
2.12743e-15
1.79502e-15
1.38157e-15
2.38091e-15
1.98895e-15
2.15308e-15
2.86557e-15
2.81237e-15
2.83025e-15
2.54907e-15
2.6621e-15
3.23284e-15
3.13418e-15
3.58983e-15
3.62434e-15
3.06514e-15
3.59921e-15
3.74123e-15
2.4701e-15
2.85037e-15
2.70738e-15
2.96798e-15
3.21213e-15
3.42963e-15
3.49305e-15
3.64379e-15
3.61527e-15
3.58576e-15
3.55034e-15
3.66945e-15
3.59043e-15
3.28923e-15
3.5057e-15
3.63448e-15
3.62476e-15
3.62717e-15
3.67474e-15
3.5175e-15
3.57839e-15
0
3.17054e-15
1.97912e-15
2.25912e-15
2.24533e-15
2.40051e-15
2.39179e-15
2.36138e-15
2.41254e-15
2.36493e-15
2.4325e-15
2.6689e-15
2.66024e-15
2.65685e-15
2.6578e-15
2.75296e-15
2.7578e-15
2.86632e-15
2.99335e-15
2.85037e-15
)
;
    }
    frontAndBack
    {
        type            empty;
        value           nonuniform List<scalar> 0();
    }
}


// ************************************************************************* //
