/*--------------------------------*- C++ -*----------------------------------*\
| =========                 |                                                 |
| \\      /  F ield         | OpenFOAM: The Open Source CFD Toolbox           |
|  \\    /   O peration     | Version:  2312                                  |
|   \\  /    A nd           | Website:  www.openfoam.com                      |
|    \\/     M anipulation  |                                                 |
\*---------------------------------------------------------------------------*/
FoamFile
{
    version     2.0;
    format      ascii;
    arch        "LSB;label=32;scalar=64";
    class       volScalarField;
    location    "5.5";
    object      turbulenceProperties:omega;
}
// * * * * * * * * * * * * * * * * * * * * * * * * * * * * * * * * * * * * * //

dimensions      [0 0 -1 0 0 0 0];

internalField   nonuniform List<scalar> 
400
(
5.93594
5.93592
5.93593
5.93591
5.93592
5.93591
5.93591
5.93591
5.93591
5.9359
5.93591
5.9359
5.9359
5.9359
5.9359
5.9359
5.9359
5.9359
5.9359
5.9359
6.13429
6.00953
6.02022
6.02468
6.03355
6.03813
6.04696
6.05169
6.06048
6.06537
6.07411
6.07918
6.08786
6.0931
6.10174
6.10713
6.11574
6.12129
6.12561
6.13269
6.3962
6.25859
6.27054
6.27555
6.28542
6.29051
6.30036
6.30556
6.31532
6.3207
6.33036
6.33591
6.34547
6.35119
6.36067
6.36654
6.37595
6.38195
6.38667
6.39436
6.61723
6.46957
6.4824
6.48776
6.49835
6.5038
6.51435
6.51996
6.53038
6.5362
6.54651
6.55251
6.56273
6.5689
6.57903
6.58536
6.59543
6.60189
6.60694
6.6152
6.76815
6.61324
6.62668
6.63228
6.64341
6.6491
6.66019
6.66602
6.67703
6.68304
6.69395
6.70016
6.71094
6.71736
6.72803
6.73463
6.74523
6.75199
6.75729
6.76596
6.86038
6.70095
6.71482
6.72056
6.73199
6.73786
6.74925
6.75527
6.76658
6.77278
6.78398
6.79039
6.80148
6.80808
6.81908
6.82587
6.83677
6.84373
6.84919
6.85811
6.91426
6.75216
6.7662
6.77209
6.78369
6.78967
6.80123
6.80739
6.81883
6.82519
6.83652
6.84309
6.85431
6.86108
6.8722
6.87915
6.89021
6.89731
6.90285
6.91191
6.94619
6.78252
6.7967
6.80262
6.81437
6.82038
6.83205
6.83827
6.84982
6.85625
6.86769
6.87433
6.88565
6.89249
6.90372
6.91073
6.9219
6.92906
6.93466
6.94381
6.96673
6.80206
6.81638
6.8223
6.83413
6.84017
6.85192
6.85817
6.86979
6.87625
6.88777
6.89443
6.90584
6.91271
6.92401
6.93107
6.9423
6.94951
6.95514
6.96435
6.98197
6.81656
6.83094
6.83688
6.84875
6.85484
6.86664
6.8729
6.88459
6.89108
6.90264
6.90934
6.92079
6.9277
6.93904
6.94614
6.95742
6.96467
6.97032
6.97957
6.99516
6.82911
6.84348
6.84948
6.86142
6.8675
6.87937
6.88563
6.89739
6.90386
6.91552
6.9222
6.93374
6.94063
6.95206
6.95915
6.97049
6.97775
6.98344
6.99272
7.00798
6.8413
6.85581
6.86179
6.87376
6.87989
6.89176
6.8981
6.90986
6.91639
6.92806
6.93481
6.94633
6.95328
6.96473
6.97186
6.98323
6.99053
6.99623
7.00555
7.02153
6.85421
6.86872
6.87477
6.88676
6.89291
6.90484
6.91118
6.92301
6.92955
6.94127
6.94803
6.95962
6.9666
6.97808
6.98526
6.99666
7.004
7.00972
7.01907
7.03642
6.8684
6.88293
6.88904
6.90105
6.90725
6.91923
6.92559
6.93748
6.94404
6.95582
6.96259
6.97425
6.98124
6.99279
6.99998
7.01144
7.0188
7.02455
7.03394
7.05313
6.88431
6.89891
6.90505
6.91711
6.92336
6.93537
6.94178
6.95371
6.96032
6.97213
6.97896
6.99064
6.99769
7.00927
7.01652
7.02802
7.03542
7.04119
7.05064
7.07188
6.90218
6.91684
6.92301
6.93513
6.94142
6.95348
6.95994
6.97192
6.97856
6.99045
6.99729
7.00907
7.01613
7.0278
7.03506
7.04664
7.05407
7.05988
7.06937
7.09226
6.92157
6.93635
6.94254
6.95473
6.96104
6.9732
6.97967
6.99174
6.99841
7.01036
7.01726
7.02908
7.0362
7.04791
7.05523
7.06686
7.07435
7.08018
7.08973
7.11261
6.941
6.95591
6.96207
6.97437
6.98068
6.99292
6.99941
7.01154
7.01826
7.03027
7.03721
7.04908
7.05625
7.06802
7.07538
7.08709
7.0946
7.10048
7.11008
7.12972
6.96084
6.97517
6.98119
6.9931
6.99927
7.01116
7.01758
7.02936
7.03607
7.04775
7.05474
7.06633
7.0736
7.08511
7.09263
7.10411
7.11183
7.11761
7.12723
7.13728
7.13726
7.13726
7.13726
7.13725
7.13726
7.13724
7.13725
7.13724
7.13724
7.13723
7.13724
7.13723
7.13724
7.13723
7.13723
7.13723
7.13723
7.13723
7.13723
)
;

boundaryField
{
    movingWall
    {
        type            calculated;
        value           nonuniform List<scalar> 
20
(
7.13728
7.13726
7.13726
7.13726
7.13725
7.13726
7.13724
7.13725
7.13724
7.13724
7.13723
7.13724
7.13723
7.13724
7.13723
7.13723
7.13723
7.13723
7.13723
7.13723
)
;
    }
    fixedWalls
    {
        type            calculated;
        value           nonuniform List<scalar> 
60
(
5.93594
6.13429
6.3962
6.61723
6.76815
6.86038
6.91426
6.94619
6.96673
6.98197
6.99516
7.00798
7.02153
7.03642
7.05313
7.07188
7.09226
7.11261
7.12972
7.13728
5.9359
6.13269
6.39436
6.6152
6.76596
6.85811
6.91191
6.94381
6.96435
6.97957
6.99272
7.00555
7.01907
7.03394
7.05064
7.06937
7.08973
7.11008
7.12723
7.13723
5.93594
5.93592
5.93593
5.93591
5.93592
5.93591
5.93591
5.93591
5.93591
5.9359
5.93591
5.9359
5.9359
5.9359
5.9359
5.9359
5.9359
5.9359
5.9359
5.9359
)
;
    }
    frontAndBack
    {
        type            empty;
    }
}


// ************************************************************************* //
