/*--------------------------------*- C++ -*----------------------------------*\
| =========                 |                                                 |
| \\      /  F ield         | OpenFOAM: The Open Source CFD Toolbox           |
|  \\    /   O peration     | Version:  2312                                  |
|   \\  /    A nd           | Website:  www.openfoam.com                      |
|    \\/     M anipulation  |                                                 |
\*---------------------------------------------------------------------------*/
FoamFile
{
    version     2.0;
    format      ascii;
    arch        "LSB;label=32;scalar=64";
    class       volScalarField;
    location    "5.5";
    object      turbulenceProperties:nuEff;
}
// * * * * * * * * * * * * * * * * * * * * * * * * * * * * * * * * * * * * * //

dimensions      [0 2 -1 0 0 0 0];

internalField   nonuniform List<scalar> 
400
(
1.18569e-05
1.18569e-05
1.18569e-05
1.18569e-05
1.18569e-05
1.18569e-05
1.18569e-05
1.18569e-05
1.18569e-05
1.18569e-05
1.18569e-05
1.18569e-05
1.18569e-05
1.18569e-05
1.18569e-05
1.18569e-05
1.18569e-05
1.18569e-05
1.18569e-05
1.18569e-05
1.19179e-05
1.19577e-05
1.19541e-05
1.19525e-05
1.19496e-05
1.1948e-05
1.19451e-05
1.19435e-05
1.19406e-05
1.1939e-05
1.19361e-05
1.19345e-05
1.19317e-05
1.193e-05
1.19272e-05
1.19255e-05
1.19227e-05
1.1921e-05
1.19196e-05
1.19174e-05
1.19986e-05
1.20425e-05
1.20385e-05
1.20367e-05
1.20334e-05
1.20317e-05
1.20284e-05
1.20267e-05
1.20234e-05
1.20216e-05
1.20185e-05
1.20167e-05
1.20136e-05
1.20117e-05
1.20087e-05
1.20068e-05
1.20038e-05
1.20019e-05
1.20005e-05
1.1998e-05
1.20669e-05
1.21141e-05
1.21097e-05
1.21078e-05
1.21043e-05
1.21024e-05
1.20989e-05
1.2097e-05
1.20936e-05
1.20916e-05
1.20883e-05
1.20863e-05
1.2083e-05
1.2081e-05
1.20777e-05
1.20757e-05
1.20725e-05
1.20705e-05
1.20689e-05
1.20663e-05
1.21137e-05
1.21632e-05
1.21585e-05
1.21566e-05
1.21528e-05
1.21509e-05
1.21472e-05
1.21452e-05
1.21416e-05
1.21396e-05
1.2136e-05
1.2134e-05
1.21305e-05
1.21284e-05
1.2125e-05
1.21229e-05
1.21195e-05
1.21174e-05
1.21157e-05
1.2113e-05
1.21423e-05
1.21933e-05
1.21885e-05
1.21865e-05
1.21826e-05
1.21806e-05
1.21768e-05
1.21748e-05
1.2171e-05
1.2169e-05
1.21653e-05
1.21632e-05
1.21596e-05
1.21575e-05
1.21539e-05
1.21518e-05
1.21483e-05
1.21461e-05
1.21444e-05
1.21416e-05
1.2159e-05
1.22108e-05
1.2206e-05
1.2204e-05
1.22e-05
1.2198e-05
1.21941e-05
1.21921e-05
1.21883e-05
1.21861e-05
1.21824e-05
1.21803e-05
1.21766e-05
1.21744e-05
1.21709e-05
1.21686e-05
1.21651e-05
1.21629e-05
1.21611e-05
1.21583e-05
1.21689e-05
1.22213e-05
1.22164e-05
1.22144e-05
1.22104e-05
1.22083e-05
1.22044e-05
1.22023e-05
1.21985e-05
1.21963e-05
1.21926e-05
1.21904e-05
1.21867e-05
1.21845e-05
1.21809e-05
1.21787e-05
1.21751e-05
1.21729e-05
1.21711e-05
1.21682e-05
1.21753e-05
1.2228e-05
1.22231e-05
1.2221e-05
1.2217e-05
1.22149e-05
1.2211e-05
1.22089e-05
1.2205e-05
1.22029e-05
1.21991e-05
1.21969e-05
1.21932e-05
1.2191e-05
1.21874e-05
1.21851e-05
1.21815e-05
1.21793e-05
1.21775e-05
1.21746e-05
1.21801e-05
1.2233e-05
1.2228e-05
1.2226e-05
1.22219e-05
1.22199e-05
1.22159e-05
1.22138e-05
1.22099e-05
1.22077e-05
1.2204e-05
1.22017e-05
1.2198e-05
1.21958e-05
1.21922e-05
1.21899e-05
1.21863e-05
1.2184e-05
1.21822e-05
1.21793e-05
1.21841e-05
1.22372e-05
1.22323e-05
1.22302e-05
1.22262e-05
1.22241e-05
1.22201e-05
1.2218e-05
1.22141e-05
1.22119e-05
1.22081e-05
1.22059e-05
1.22022e-05
1.21999e-05
1.21963e-05
1.2194e-05
1.21904e-05
1.21881e-05
1.21863e-05
1.21834e-05
1.21881e-05
1.22414e-05
1.22364e-05
1.22344e-05
1.22303e-05
1.22282e-05
1.22242e-05
1.22221e-05
1.22182e-05
1.2216e-05
1.22122e-05
1.221e-05
1.22062e-05
1.2204e-05
1.22003e-05
1.2198e-05
1.21944e-05
1.21921e-05
1.21903e-05
1.21874e-05
1.21923e-05
1.22458e-05
1.22408e-05
1.22387e-05
1.22347e-05
1.22326e-05
1.22285e-05
1.22264e-05
1.22225e-05
1.22203e-05
1.22165e-05
1.22142e-05
1.22105e-05
1.22082e-05
1.22045e-05
1.22022e-05
1.21986e-05
1.21963e-05
1.21945e-05
1.21916e-05
1.21969e-05
1.22506e-05
1.22456e-05
1.22435e-05
1.22395e-05
1.22373e-05
1.22333e-05
1.22312e-05
1.22272e-05
1.2225e-05
1.22212e-05
1.22189e-05
1.22152e-05
1.22129e-05
1.22092e-05
1.22069e-05
1.22032e-05
1.22009e-05
1.21991e-05
1.21962e-05
1.22021e-05
1.22561e-05
1.2251e-05
1.22489e-05
1.22448e-05
1.22427e-05
1.22387e-05
1.22365e-05
1.22325e-05
1.22303e-05
1.22265e-05
1.22242e-05
1.22204e-05
1.22181e-05
1.22144e-05
1.22121e-05
1.22084e-05
1.22061e-05
1.22043e-05
1.22013e-05
1.22079e-05
1.22622e-05
1.22571e-05
1.2255e-05
1.22509e-05
1.22487e-05
1.22447e-05
1.22425e-05
1.22385e-05
1.22363e-05
1.22324e-05
1.22301e-05
1.22263e-05
1.2224e-05
1.22203e-05
1.22179e-05
1.22143e-05
1.22119e-05
1.22101e-05
1.22071e-05
1.22142e-05
1.22688e-05
1.22637e-05
1.22615e-05
1.22574e-05
1.22552e-05
1.22511e-05
1.2249e-05
1.2245e-05
1.22427e-05
1.22388e-05
1.22365e-05
1.22327e-05
1.22304e-05
1.22266e-05
1.22243e-05
1.22206e-05
1.22182e-05
1.22164e-05
1.22134e-05
1.22205e-05
1.22754e-05
1.22702e-05
1.22681e-05
1.22639e-05
1.22617e-05
1.22576e-05
1.22554e-05
1.22514e-05
1.22492e-05
1.22452e-05
1.22429e-05
1.22391e-05
1.22368e-05
1.2233e-05
1.22306e-05
1.22269e-05
1.22245e-05
1.22227e-05
1.22197e-05
1.22257e-05
1.22797e-05
1.22748e-05
1.22727e-05
1.22687e-05
1.22666e-05
1.22626e-05
1.22604e-05
1.22565e-05
1.22542e-05
1.22504e-05
1.22481e-05
1.22444e-05
1.2242e-05
1.22383e-05
1.22359e-05
1.22323e-05
1.22298e-05
1.2228e-05
1.2225e-05
1.22281e-05
1.22281e-05
1.22281e-05
1.22281e-05
1.22281e-05
1.22281e-05
1.22281e-05
1.22281e-05
1.22281e-05
1.22281e-05
1.22281e-05
1.22281e-05
1.22281e-05
1.22281e-05
1.22281e-05
1.22281e-05
1.22281e-05
1.22281e-05
1.22281e-05
1.22281e-05
)
;

boundaryField
{
    movingWall
    {
        type            calculated;
        value           uniform 1e-05;
    }
    fixedWalls
    {
        type            calculated;
        value           uniform 1e-05;
    }
    frontAndBack
    {
        type            empty;
    }
}


// ************************************************************************* //
