/*--------------------------------*- C++ -*----------------------------------*\
| =========                 |                                                 |
| \\      /  F ield         | OpenFOAM: The Open Source CFD Toolbox           |
|  \\    /   O peration     | Version:  2312                                  |
|   \\  /    A nd           | Website:  www.openfoam.com                      |
|    \\/     M anipulation  |                                                 |
\*---------------------------------------------------------------------------*/
FoamFile
{
    version     2.0;
    format      ascii;
    arch        "LSB;label=32;scalar=64";
    class       volScalarField;
    location    "5.5";
    object      turbulenceProperties:L;
}
// * * * * * * * * * * * * * * * * * * * * * * * * * * * * * * * * * * * * * //

dimensions      [0 1 0 0 0 0 0];

internalField   nonuniform List<scalar> 
400
(
0.00102116
0.00102116
0.00102116
0.00102116
0.00102116
0.00102116
0.00102116
0.00102116
0.00102116
0.00102116
0.00102116
0.00102116
0.00102116
0.00102116
0.00102116
0.00102116
0.00102116
0.00102116
0.00102116
0.00102116
0.00102087
0.00104206
0.00104017
0.00103938
0.00103782
0.00103701
0.00103547
0.00103465
0.00103313
0.00103228
0.00103078
0.00102991
0.00102842
0.00102753
0.00102607
0.00102516
0.00102371
0.00102278
0.00102205
0.00102087
0.00102057
0.001043
0.00104097
0.00104011
0.00103845
0.00103759
0.00103594
0.00103506
0.00103344
0.00103255
0.00103095
0.00103004
0.00102847
0.00102753
0.001026
0.00102504
0.00102352
0.00102256
0.0010218
0.00102057
0.00102038
0.00104367
0.00104155
0.00104066
0.00103893
0.00103804
0.00103633
0.00103542
0.00103374
0.0010328
0.00103116
0.0010302
0.00102858
0.0010276
0.00102601
0.00102502
0.00102345
0.00102244
0.00102166
0.00102038
0.00102028
0.00104418
0.00104201
0.0010411
0.00103932
0.00103841
0.00103665
0.00103573
0.00103399
0.00103304
0.00103134
0.00103037
0.0010287
0.0010277
0.00102606
0.00102505
0.00102343
0.0010224
0.0010216
0.00102029
0.00102024
0.00104452
0.0010423
0.00104139
0.00103958
0.00103865
0.00103687
0.00103592
0.00103416
0.0010332
0.00103147
0.00103048
0.00102879
0.00102778
0.00102611
0.00102508
0.00102344
0.00102239
0.00102158
0.00102025
0.00102022
0.00104471
0.00104249
0.00104155
0.00103973
0.00103879
0.001037
0.00103604
0.00103427
0.00103329
0.00103156
0.00103055
0.00102885
0.00102782
0.00102615
0.0010251
0.00102345
0.00102239
0.00102157
0.00102023
0.00102021
0.00104483
0.00104259
0.00104166
0.00103982
0.00103888
0.00103707
0.00103611
0.00103433
0.00103334
0.0010316
0.00103059
0.00102888
0.00102785
0.00102616
0.00102512
0.00102345
0.00102239
0.00102156
0.00102022
0.00102021
0.0010449
0.00104265
0.00104172
0.00103987
0.00103893
0.00103712
0.00103615
0.00103437
0.00103338
0.00103163
0.00103062
0.0010289
0.00102787
0.00102618
0.00102512
0.00102346
0.00102239
0.00102156
0.00102021
0.0010202
0.00104496
0.00104269
0.00104176
0.00103992
0.00103897
0.00103715
0.00103618
0.0010344
0.0010334
0.00103165
0.00103063
0.00102892
0.00102788
0.00102619
0.00102513
0.00102346
0.00102239
0.00102156
0.0010202
0.00102019
0.00104499
0.00104274
0.0010418
0.00103994
0.001039
0.00103717
0.00103621
0.00103441
0.00103343
0.00103166
0.00103065
0.00102892
0.00102789
0.00102618
0.00102513
0.00102346
0.00102239
0.00102155
0.0010202
0.00102019
0.00104504
0.00104277
0.00104183
0.00103998
0.00103903
0.0010372
0.00103623
0.00103444
0.00103344
0.00103168
0.00103066
0.00102893
0.00102789
0.00102619
0.00102513
0.00102346
0.00102238
0.00102155
0.00102019
0.00102017
0.00104508
0.00104281
0.00104186
0.00104001
0.00103906
0.00103723
0.00103625
0.00103446
0.00103346
0.00103169
0.00103067
0.00102894
0.0010279
0.0010262
0.00102513
0.00102345
0.00102238
0.00102154
0.00102018
0.00102016
0.00104512
0.00104285
0.0010419
0.00104005
0.00103909
0.00103725
0.00103628
0.00103447
0.00103348
0.00103171
0.00103069
0.00102895
0.00102791
0.0010262
0.00102514
0.00102345
0.00102237
0.00102154
0.00102017
0.00102015
0.00104517
0.0010429
0.00104194
0.00104008
0.00103912
0.00103729
0.00103631
0.0010345
0.0010335
0.00103173
0.0010307
0.00102896
0.00102791
0.0010262
0.00102513
0.00102345
0.00102237
0.00102153
0.00102016
0.00102014
0.00104522
0.00104295
0.00104199
0.00104013
0.00103916
0.00103732
0.00103633
0.00103453
0.00103352
0.00103174
0.00103072
0.00102897
0.00102792
0.0010262
0.00102514
0.00102344
0.00102236
0.00102152
0.00102015
0.00102012
0.00104528
0.00104299
0.00104203
0.00104017
0.0010392
0.00103735
0.00103637
0.00103455
0.00103354
0.00103176
0.00103073
0.00102898
0.00102793
0.00102621
0.00102513
0.00102344
0.00102235
0.00102151
0.00102013
0.00102011
0.00104533
0.00104303
0.00104208
0.0010402
0.00103923
0.00103738
0.00103639
0.00103457
0.00103356
0.00103177
0.00103074
0.00102899
0.00102793
0.00102621
0.00102513
0.00102343
0.00102234
0.00102149
0.00102011
0.00102009
0.00104484
0.00104264
0.00104171
0.0010399
0.00103895
0.00103716
0.00103619
0.00103442
0.00103341
0.00103168
0.00103064
0.00102894
0.00102787
0.00102619
0.00102509
0.00102343
0.00102231
0.00102148
0.0010201
0.00102009
0.00102009
0.00102009
0.00102009
0.00102009
0.00102009
0.00102009
0.00102009
0.00102009
0.00102009
0.00102009
0.00102009
0.00102009
0.00102009
0.00102009
0.00102009
0.00102009
0.00102009
0.00102009
0.00102009
)
;

boundaryField
{
    movingWall
    {
        type            calculated;
        value           nonuniform List<scalar> 
20
(
0.00102009
0.00102009
0.00102009
0.00102009
0.00102009
0.00102009
0.00102009
0.00102009
0.00102009
0.00102009
0.00102009
0.00102009
0.00102009
0.00102009
0.00102009
0.00102009
0.00102009
0.00102009
0.00102009
0.00102009
)
;
    }
    fixedWalls
    {
        type            calculated;
        value           nonuniform List<scalar> 
60
(
0.00102116
0.00102087
0.00102057
0.00102038
0.00102028
0.00102024
0.00102022
0.00102021
0.00102021
0.0010202
0.00102019
0.00102019
0.00102017
0.00102016
0.00102015
0.00102014
0.00102012
0.00102011
0.00102009
0.00102009
0.00102116
0.00102087
0.00102057
0.00102038
0.00102029
0.00102025
0.00102023
0.00102022
0.00102021
0.0010202
0.0010202
0.00102019
0.00102018
0.00102017
0.00102016
0.00102015
0.00102013
0.00102011
0.0010201
0.00102009
0.00102116
0.00102116
0.00102116
0.00102116
0.00102116
0.00102116
0.00102116
0.00102116
0.00102116
0.00102116
0.00102116
0.00102116
0.00102116
0.00102116
0.00102116
0.00102116
0.00102116
0.00102116
0.00102116
0.00102116
)
;
    }
    frontAndBack
    {
        type            empty;
    }
}


// ************************************************************************* //
