/*--------------------------------*- C++ -*----------------------------------*\
| =========                 |                                                 |
| \\      /  F ield         | OpenFOAM: The Open Source CFD Toolbox           |
|  \\    /   O peration     | Version:  2312                                  |
|   \\  /    A nd           | Website:  www.openfoam.com                      |
|    \\/     M anipulation  |                                                 |
\*---------------------------------------------------------------------------*/
FoamFile
{
    version     2.0;
    format      ascii;
    arch        "LSB;label=32;scalar=64";
    class       volScalarField;
    location    "5.5";
    object      turbulenceProperties:I;
}
// * * * * * * * * * * * * * * * * * * * * * * * * * * * * * * * * * * * * * //

dimensions      [0 0 0 0 0 0 0];

internalField   nonuniform List<scalar> 
400
(
0.0027108
0.0027108
0.0027108
0.00271079
0.00271079
0.00271079
0.00271079
0.00271079
0.00271079
0.00271079
0.00271079
0.00271079
0.00271079
0.00271079
0.00271079
0.00271079
0.00271079
0.00271078
0.00271079
0.00271079
0.00280059
0.00280058
0.00280047
0.00280041
0.00280033
0.00280028
0.00280021
0.00280017
0.00280011
0.00280008
0.00280003
0.0028
0.00279996
0.00279994
0.00279991
0.0027999
0.00279988
0.00279988
0.00279987
0.00279987
0.00291929
0.00291929
0.00291916
0.00291909
0.002919
0.00291894
0.00291886
0.00291881
0.00291875
0.0029187
0.00291865
0.00291861
0.00291858
0.00291855
0.00291852
0.0029185
0.00291849
0.00291848
0.00291847
0.00291847
0.00301963
0.00301962
0.00301947
0.0030194
0.0030193
0.00301923
0.00301914
0.00301909
0.00301902
0.00301896
0.00301892
0.00301887
0.00301883
0.00301879
0.00301877
0.00301874
0.00301873
0.00301872
0.00301871
0.00301871
0.0030882
0.0030882
0.00308804
0.00308796
0.00308785
0.00308779
0.00308768
0.00308764
0.00308755
0.00308751
0.00308743
0.0030874
0.00308735
0.00308732
0.00308728
0.00308726
0.00308724
0.00308723
0.00308722
0.00308722
0.00313017
0.00313016
0.00312999
0.00312991
0.0031298
0.00312973
0.00312963
0.00312957
0.00312948
0.00312944
0.00312937
0.00312933
0.00312927
0.00312924
0.0031292
0.00312919
0.00312916
0.00312915
0.00312914
0.00312914
0.00315468
0.00315468
0.00315451
0.00315442
0.0031543
0.00315423
0.00315413
0.00315407
0.00315399
0.00315393
0.00315387
0.00315381
0.00315377
0.00315373
0.0031537
0.00315367
0.00315365
0.00315364
0.00315363
0.00315363
0.00316922
0.00316921
0.00316904
0.00316896
0.00316883
0.00316876
0.00316866
0.00316859
0.00316851
0.00316845
0.00316839
0.00316834
0.00316829
0.00316825
0.00316822
0.00316819
0.00316817
0.00316816
0.00316815
0.00316815
0.00317858
0.00317857
0.00317839
0.00317831
0.00317818
0.00317812
0.00317801
0.00317794
0.00317786
0.0031778
0.00317774
0.00317769
0.00317764
0.0031776
0.00317757
0.00317754
0.00317752
0.00317751
0.0031775
0.0031775
0.00318551
0.0031855
0.00318532
0.00318524
0.00318511
0.00318504
0.00318493
0.00318487
0.00318479
0.00318473
0.00318466
0.00318461
0.00318457
0.00318452
0.00318449
0.00318446
0.00318445
0.00318443
0.00318442
0.00318442
0.00319149
0.00319148
0.00319131
0.00319122
0.00319109
0.00319103
0.00319091
0.00319086
0.00319076
0.00319071
0.00319064
0.00319059
0.00319054
0.00319051
0.00319046
0.00319044
0.00319042
0.00319041
0.0031904
0.0031904
0.00319733
0.00319733
0.00319713
0.00319706
0.00319693
0.00319685
0.00319675
0.00319668
0.0031966
0.00319654
0.00319647
0.00319642
0.00319637
0.00319633
0.0031963
0.00319627
0.00319625
0.00319624
0.00319623
0.00319623
0.00320347
0.00320347
0.00320328
0.0032032
0.00320308
0.003203
0.00320289
0.00320283
0.00320274
0.00320268
0.00320261
0.00320257
0.00320252
0.00320248
0.00320244
0.00320241
0.00320239
0.00320238
0.00320237
0.00320237
0.00321023
0.00321023
0.00321005
0.00320996
0.00320984
0.00320976
0.00320965
0.00320959
0.00320949
0.00320944
0.00320937
0.00320932
0.00320927
0.00320923
0.00320919
0.00320917
0.00320915
0.00320913
0.00320913
0.00320912
0.00321782
0.00321781
0.00321764
0.00321754
0.00321742
0.00321734
0.00321724
0.00321717
0.00321708
0.00321702
0.00321695
0.0032169
0.00321685
0.00321681
0.00321678
0.00321675
0.00321673
0.00321671
0.00321671
0.0032167
0.00322633
0.00322633
0.00322615
0.00322605
0.00322594
0.00322585
0.00322575
0.00322568
0.00322559
0.00322553
0.00322546
0.00322541
0.00322536
0.00322532
0.00322528
0.00322526
0.00322523
0.00322522
0.00322521
0.00322521
0.00323558
0.00323558
0.00323539
0.0032353
0.00323518
0.0032351
0.00323499
0.00323492
0.00323483
0.00323477
0.0032347
0.00323465
0.0032346
0.00323456
0.00323452
0.00323449
0.00323447
0.00323446
0.00323445
0.00323445
0.00324483
0.00324482
0.00324462
0.00324454
0.00324441
0.00324433
0.00324422
0.00324415
0.00324406
0.003244
0.00324393
0.00324388
0.00324383
0.00324378
0.00324375
0.00324372
0.0032437
0.00324369
0.00324368
0.00324368
0.00325257
0.00325257
0.00325239
0.0032523
0.00325218
0.0032521
0.00325199
0.00325192
0.00325184
0.00325177
0.00325171
0.00325165
0.00325161
0.00325156
0.00325153
0.0032515
0.00325148
0.00325146
0.00325146
0.00325145
0.003256
0.003256
0.003256
0.00325599
0.00325599
0.00325599
0.00325599
0.00325599
0.00325599
0.00325599
0.00325598
0.00325598
0.00325598
0.00325598
0.00325598
0.00325598
0.00325598
0.00325598
0.00325598
0.00325598
)
;

boundaryField
{
    movingWall
    {
        type            calculated;
        value           nonuniform List<scalar> 
20
(
0.003256
0.003256
0.003256
0.00325599
0.00325599
0.00325599
0.00325599
0.00325599
0.00325599
0.00325599
0.00325598
0.00325598
0.00325598
0.00325598
0.00325598
0.00325598
0.00325598
0.00325598
0.00325598
0.00325598
)
;
    }
    fixedWalls
    {
        type            calculated;
        value           nonuniform List<scalar> 
60
(
0.0027108
0.00280059
0.00291929
0.00301963
0.0030882
0.00313017
0.00315468
0.00316922
0.00317858
0.00318551
0.00319149
0.00319733
0.00320347
0.00321023
0.00321782
0.00322633
0.00323558
0.00324483
0.00325257
0.003256
0.00271079
0.00279987
0.00291847
0.00301871
0.00308722
0.00312914
0.00315363
0.00316815
0.0031775
0.00318442
0.0031904
0.00319623
0.00320237
0.00320912
0.0032167
0.00322521
0.00323445
0.00324368
0.00325145
0.00325598
0.0027108
0.0027108
0.0027108
0.00271079
0.00271079
0.00271079
0.00271079
0.00271079
0.00271079
0.00271079
0.00271079
0.00271079
0.00271079
0.00271079
0.00271079
0.00271079
0.00271079
0.00271078
0.00271079
0.00271079
)
;
    }
    frontAndBack
    {
        type            empty;
    }
}


// ************************************************************************* //
