/*--------------------------------*- C++ -*----------------------------------*\
| =========                 |                                                 |
| \\      /  F ield         | OpenFOAM: The Open Source CFD Toolbox           |
|  \\    /   O peration     | Version:  2312                                  |
|   \\  /    A nd           | Website:  www.openfoam.com                      |
|    \\/     M anipulation  |                                                 |
\*---------------------------------------------------------------------------*/
FoamFile
{
    version     2.0;
    format      ascii;
    arch        "LSB;label=32;scalar=64";
    class       volSymmTensorField;
    location    "5.5";
    object      turbulenceProperties:R;
}
// * * * * * * * * * * * * * * * * * * * * * * * * * * * * * * * * * * * * * //

dimensions      [0 2 -2 0 0 0 0];

internalField   nonuniform List<symmTensor> 
400
(
(7.34844e-06 -1.40385e-17 -0 7.34844e-06 -0 7.34844e-06)
(7.34843e-06 1.52037e-17 -0 7.34843e-06 -0 7.34843e-06)
(7.34842e-06 -3.07656e-18 -0 7.34842e-06 -0 7.34842e-06)
(7.34841e-06 6.2216e-19 -0 7.34841e-06 -0 7.34841e-06)
(7.3484e-06 -2.89198e-19 -0 7.3484e-06 -0 7.3484e-06)
(7.34839e-06 -8.62043e-20 -0 7.34839e-06 -0 7.34839e-06)
(7.34838e-06 -2.22359e-20 -0 7.34838e-06 -0 7.34838e-06)
(7.34838e-06 -2.042e-21 -0 7.34838e-06 -0 7.34838e-06)
(7.34837e-06 -4.68198e-20 -0 7.34837e-06 -0 7.34837e-06)
(7.34837e-06 -2.38335e-21 -0 7.34837e-06 -0 7.34837e-06)
(7.34837e-06 -1.08401e-20 -0 7.34837e-06 -0 7.34837e-06)
(7.34836e-06 1.14365e-19 -0 7.34836e-06 -0 7.34836e-06)
(7.34836e-06 1.35333e-19 -0 7.34836e-06 -0 7.34836e-06)
(7.34836e-06 1.12731e-19 -0 7.34836e-06 -0 7.34836e-06)
(7.34836e-06 8.56215e-20 -0 7.34836e-06 -0 7.34836e-06)
(7.34836e-06 -2.27669e-20 -0 7.34836e-06 -0 7.34836e-06)
(7.34836e-06 -9.46535e-21 -0 7.34836e-06 -0 7.34836e-06)
(7.34836e-06 -9.65626e-21 -0 7.34836e-06 -0 7.34836e-06)
(7.34836e-06 1.03945e-19 -0 7.34836e-06 -0 7.34836e-06)
(7.34836e-06 3.08407e-20 -0 7.34836e-06 -0 7.34836e-06)
(7.84328e-06 -7.17957e-18 -0 7.84328e-06 -0 7.84328e-06)
(7.84328e-06 9.0222e-18 -0 7.84328e-06 -0 7.84328e-06)
(7.84263e-06 -1.66974e-18 -0 7.84263e-06 -0 7.84263e-06)
(7.84231e-06 4.1439e-19 -0 7.84231e-06 -0 7.84231e-06)
(7.84185e-06 -9.26552e-20 -0 7.84185e-06 -0 7.84185e-06)
(7.84158e-06 7.09306e-20 -0 7.84158e-06 -0 7.84158e-06)
(7.84119e-06 -4.57331e-20 -0 7.84119e-06 -0 7.84119e-06)
(7.84096e-06 -5.53826e-20 -0 7.84096e-06 -0 7.84096e-06)
(7.84063e-06 -6.86991e-20 -0 7.84063e-06 -0 7.84063e-06)
(7.84042e-06 -9.89919e-21 -0 7.84042e-06 -0 7.84042e-06)
(7.84016e-06 -3.32431e-21 -0 7.84016e-06 -0 7.84016e-06)
(7.83999e-06 -8.218e-20 -0 7.83999e-06 -0 7.83999e-06)
(7.83979e-06 4.97739e-20 -0 7.83979e-06 -0 7.83979e-06)
(7.83967e-06 2.75812e-20 -0 7.83967e-06 -0 7.83967e-06)
(7.83951e-06 2.59168e-20 -0 7.83951e-06 -0 7.83951e-06)
(7.83944e-06 6.66314e-20 -0 7.83944e-06 -0 7.83944e-06)
(7.83934e-06 9.06875e-20 -0 7.83934e-06 -0 7.83934e-06)
(7.8393e-06 1.00684e-19 -0 7.8393e-06 -0 7.8393e-06)
(7.83927e-06 1.56265e-20 -0 7.83927e-06 -0 7.83927e-06)
(7.83926e-06 4.24487e-22 -0 7.83926e-06 -0 7.83926e-06)
(8.52228e-06 2.33816e-17 -0 8.52228e-06 -0 8.52228e-06)
(8.52225e-06 -2.56992e-17 -0 8.52225e-06 -0 8.52225e-06)
(8.52149e-06 5.01354e-18 -0 8.52149e-06 -0 8.52149e-06)
(8.52109e-06 -1.15091e-18 -0 8.52109e-06 -0 8.52109e-06)
(8.52057e-06 3.25058e-19 -0 8.52057e-06 -0 8.52057e-06)
(8.52022e-06 9.2879e-20 -0 8.52022e-06 -0 8.52022e-06)
(8.51975e-06 2.40108e-20 -0 8.51975e-06 -0 8.51975e-06)
(8.51947e-06 3.14381e-20 -0 8.51947e-06 -0 8.51947e-06)
(8.51909e-06 1.45965e-20 -0 8.51909e-06 -0 8.51909e-06)
(8.51883e-06 -1.20251e-19 -0 8.51883e-06 -0 8.51883e-06)
(8.51854e-06 -9.13953e-20 -0 8.51854e-06 -0 8.51854e-06)
(8.51831e-06 -7.80962e-20 -0 8.51831e-06 -0 8.51831e-06)
(8.51811e-06 -1.68846e-19 -0 8.51811e-06 -0 8.51811e-06)
(8.51792e-06 -1.56214e-19 -0 8.51792e-06 -0 8.51792e-06)
(8.51778e-06 -1.40055e-19 -0 8.51778e-06 -0 8.51778e-06)
(8.51766e-06 -1.24399e-19 -0 8.51766e-06 -0 8.51766e-06)
(8.51757e-06 -1.53555e-20 -0 8.51757e-06 -0 8.51757e-06)
(8.51751e-06 6.82734e-21 -0 8.51751e-06 -0 8.51751e-06)
(8.51748e-06 -9.52956e-20 -0 8.51748e-06 -0 8.51748e-06)
(8.51746e-06 -6.21693e-20 -0 8.51746e-06 -0 8.51746e-06)
(9.11814e-06 -1.32509e-17 -0 9.11814e-06 -0 9.11814e-06)
(9.11811e-06 1.66361e-17 -0 9.11811e-06 -0 9.11811e-06)
(9.11721e-06 -3.234e-18 -0 9.11721e-06 -0 9.11721e-06)
(9.11676e-06 7.93833e-19 -0 9.11676e-06 -0 9.11676e-06)
(9.11615e-06 -7.2485e-20 -0 9.11615e-06 -0 9.11615e-06)
(9.11576e-06 4.71181e-20 -0 9.11576e-06 -0 9.11576e-06)
(9.11524e-06 3.79599e-20 -0 9.11524e-06 -0 9.11524e-06)
(9.11489e-06 9.58713e-20 -0 9.11489e-06 -0 9.11489e-06)
(9.1145e-06 4.39236e-20 -0 9.1145e-06 -0 9.1145e-06)
(9.11415e-06 5.71626e-20 -0 9.11415e-06 -0 9.11415e-06)
(9.11387e-06 7.17931e-20 -0 9.11387e-06 -0 9.11387e-06)
(9.11356e-06 2.48472e-21 -0 9.11356e-06 -0 9.11356e-06)
(9.11336e-06 -1.43941e-20 -0 9.11336e-06 -0 9.11336e-06)
(9.11312e-06 -4.75604e-20 -0 9.11312e-06 -0 9.11312e-06)
(9.11298e-06 -7.2936e-20 -0 9.11298e-06 -0 9.11298e-06)
(9.11282e-06 -7.32332e-20 -0 9.11282e-06 -0 9.11282e-06)
(9.11274e-06 -1.94149e-19 -0 9.11274e-06 -0 9.11274e-06)
(9.11266e-06 -9.11735e-20 -0 9.11266e-06 -0 9.11266e-06)
(9.11262e-06 -1.21148e-19 -0 9.11262e-06 -0 9.11262e-06)
(9.11261e-06 -6.75152e-20 -0 9.11261e-06 -0 9.11261e-06)
(9.537e-06 -2.6872e-18 -0 9.537e-06 -0 9.537e-06)
(9.53697e-06 -8.32274e-19 -0 9.53697e-06 -0 9.53697e-06)
(9.53599e-06 1.63567e-19 -0 9.53599e-06 -0 9.53599e-06)
(9.53552e-06 -2.20454e-19 -0 9.53552e-06 -0 9.53552e-06)
(9.53481e-06 -2.23495e-19 -0 9.53481e-06 -0 9.53481e-06)
(9.53444e-06 -2.28896e-19 -0 9.53444e-06 -0 9.53444e-06)
(9.53379e-06 -1.07462e-19 -0 9.53379e-06 -0 9.53379e-06)
(9.5335e-06 -2.32894e-19 -0 9.5335e-06 -0 9.5335e-06)
(9.53294e-06 -1.67009e-19 -0 9.53294e-06 -0 9.53294e-06)
(9.5327e-06 -1.07159e-19 -0 9.5327e-06 -0 9.5327e-06)
(9.53225e-06 -5.00857e-20 -0 9.53225e-06 -0 9.53225e-06)
(9.53204e-06 -1.94618e-20 -0 9.53204e-06 -0 9.53204e-06)
(9.53172e-06 -6.00153e-20 -0 9.53172e-06 -0 9.53172e-06)
(9.53155e-06 6.17414e-20 -0 9.53155e-06 -0 9.53155e-06)
(9.53132e-06 5.64203e-21 -0 9.53132e-06 -0 9.53132e-06)
(9.5312e-06 1.11769e-20 -0 9.5312e-06 -0 9.5312e-06)
(9.53106e-06 6.22403e-20 -0 9.53106e-06 -0 9.53106e-06)
(9.531e-06 -4.64463e-20 -0 9.531e-06 -0 9.531e-06)
(9.53096e-06 9.70535e-20 -0 9.53096e-06 -0 9.53096e-06)
(9.53094e-06 -3.89569e-20 -0 9.53094e-06 -0 9.53094e-06)
(9.79794e-06 7.60922e-18 -0 9.79794e-06 -0 9.79794e-06)
(9.79793e-06 -8.09231e-18 -0 9.79793e-06 -0 9.79793e-06)
(9.79682e-06 1.4024e-18 -0 9.79682e-06 -0 9.79682e-06)
(9.79635e-06 -2.98742e-19 -0 9.79635e-06 -0 9.79635e-06)
(9.79563e-06 1.18569e-19 -0 9.79563e-06 -0 9.79563e-06)
(9.7952e-06 -1.65732e-20 -0 9.7952e-06 -0 9.7952e-06)
(9.79457e-06 -4.58979e-20 -0 9.79457e-06 -0 9.79457e-06)
(9.79421e-06 8.11518e-21 -0 9.79421e-06 -0 9.79421e-06)
(9.79366e-06 7.45892e-20 -0 9.79366e-06 -0 9.79366e-06)
(9.79337e-06 8.13876e-20 -0 9.79337e-06 -0 9.79337e-06)
(9.79293e-06 -5.15077e-20 -0 9.79293e-06 -0 9.79293e-06)
(9.79269e-06 -7.79258e-21 -0 9.79269e-06 -0 9.79269e-06)
(9.79234e-06 -3.02434e-20 -0 9.79234e-06 -0 9.79234e-06)
(9.79217e-06 -2.80308e-20 -0 9.79217e-06 -0 9.79217e-06)
(9.79192e-06 1.02042e-20 -0 9.79192e-06 -0 9.79192e-06)
(9.7918e-06 2.76611e-20 -0 9.7918e-06 -0 9.7918e-06)
(9.79165e-06 1.03043e-20 -0 9.79165e-06 -0 9.79165e-06)
(9.79159e-06 -5.02595e-21 -0 9.79159e-06 -0 9.79159e-06)
(9.79153e-06 5.60656e-21 -0 9.79153e-06 -0 9.79153e-06)
(9.79152e-06 -4.92265e-21 -0 9.79152e-06 -0 9.79152e-06)
(9.95201e-06 -2.95875e-18 -0 9.95201e-06 -0 9.95201e-06)
(9.95198e-06 6.36535e-18 -0 9.95198e-06 -0 9.95198e-06)
(9.95091e-06 -7.87358e-19 -0 9.95091e-06 -0 9.95091e-06)
(9.95036e-06 4.01553e-19 -0 9.95036e-06 -0 9.95036e-06)
(9.94964e-06 4.03775e-20 -0 9.94964e-06 -0 9.94964e-06)
(9.94918e-06 1.11724e-19 -0 9.94918e-06 -0 9.94918e-06)
(9.94854e-06 1.44902e-19 -0 9.94854e-06 -0 9.94854e-06)
(9.94813e-06 1.22204e-19 -0 9.94813e-06 -0 9.94813e-06)
(9.94762e-06 3.07252e-19 -0 9.94762e-06 -0 9.94762e-06)
(9.94725e-06 2.19182e-19 -0 9.94725e-06 -0 9.94725e-06)
(9.94687e-06 3.17805e-19 -0 9.94687e-06 -0 9.94687e-06)
(9.94654e-06 2.73779e-19 -0 9.94654e-06 -0 9.94654e-06)
(9.94627e-06 2.89737e-19 -0 9.94627e-06 -0 9.94627e-06)
(9.94601e-06 1.80074e-19 -0 9.94601e-06 -0 9.94601e-06)
(9.94582e-06 1.42176e-19 -0 9.94582e-06 -0 9.94582e-06)
(9.94564e-06 5.56366e-20 -0 9.94564e-06 -0 9.94564e-06)
(9.94553e-06 -2.95621e-20 -0 9.94553e-06 -0 9.94553e-06)
(9.94544e-06 1.05868e-20 -0 9.94544e-06 -0 9.94544e-06)
(9.94539e-06 -2.0604e-20 -0 9.94539e-06 -0 9.94539e-06)
(9.94537e-06 -4.68389e-20 -0 9.94537e-06 -0 9.94537e-06)
(1.00439e-05 3.91643e-20 -0 1.00439e-05 -0 1.00439e-05)
(1.00439e-05 -8.30394e-19 -0 1.00439e-05 -0 1.00439e-05)
(1.00428e-05 2.85273e-19 -0 1.00428e-05 -0 1.00428e-05)
(1.00423e-05 -6.46297e-20 -0 1.00423e-05 -0 1.00423e-05)
(1.00415e-05 1.99552e-19 -0 1.00415e-05 -0 1.00415e-05)
(1.0041e-05 8.54648e-20 -0 1.0041e-05 -0 1.0041e-05)
(1.00404e-05 1.37316e-19 -0 1.00404e-05 -0 1.00404e-05)
(1.004e-05 1.57634e-19 -0 1.004e-05 -0 1.004e-05)
(1.00395e-05 1.22714e-20 -0 1.00395e-05 -0 1.00395e-05)
(1.00391e-05 1.74475e-20 -0 1.00391e-05 -0 1.00391e-05)
(1.00387e-05 1.3557e-20 -0 1.00387e-05 -0 1.00387e-05)
(1.00383e-05 7.05565e-21 -0 1.00383e-05 -0 1.00383e-05)
(1.00381e-05 6.06262e-21 -0 1.00381e-05 -0 1.00381e-05)
(1.00378e-05 8.80334e-21 -0 1.00378e-05 -0 1.00378e-05)
(1.00376e-05 1.14374e-19 -0 1.00376e-05 -0 1.00376e-05)
(1.00374e-05 8.25559e-20 -0 1.00374e-05 -0 1.00374e-05)
(1.00373e-05 1.82829e-19 -0 1.00373e-05 -0 1.00373e-05)
(1.00372e-05 5.64679e-20 -0 1.00372e-05 -0 1.00372e-05)
(1.00372e-05 9.89686e-20 -0 1.00372e-05 -0 1.00372e-05)
(1.00372e-05 9.31711e-20 -0 1.00372e-05 -0 1.00372e-05)
(1.01033e-05 -6.98815e-20 -0 1.01033e-05 -0 1.01033e-05)
(1.01033e-05 -5.11303e-19 -0 1.01033e-05 -0 1.01033e-05)
(1.01021e-05 -8.09988e-20 -0 1.01021e-05 -0 1.01021e-05)
(1.01017e-05 1.39578e-19 -0 1.01017e-05 -0 1.01017e-05)
(1.01008e-05 -5.00365e-20 -0 1.01008e-05 -0 1.01008e-05)
(1.01004e-05 3.72236e-20 -0 1.01004e-05 -0 1.01004e-05)
(1.00997e-05 -1.52659e-20 -0 1.00997e-05 -0 1.00997e-05)
(1.00993e-05 -6.0176e-21 -0 1.00993e-05 -0 1.00993e-05)
(1.00988e-05 -1.58828e-19 -0 1.00988e-05 -0 1.00988e-05)
(1.00984e-05 -1.39433e-19 -0 1.00984e-05 -0 1.00984e-05)
(1.0098e-05 -1.84407e-19 -0 1.0098e-05 -0 1.0098e-05)
(1.00977e-05 -2.5997e-19 -0 1.00977e-05 -0 1.00977e-05)
(1.00974e-05 -2.9457e-19 -0 1.00974e-05 -0 1.00974e-05)
(1.00972e-05 -1.37347e-19 -0 1.00972e-05 -0 1.00972e-05)
(1.00969e-05 -1.517e-19 -0 1.00969e-05 -0 1.00969e-05)
(1.00968e-05 9.14059e-20 -0 1.00968e-05 -0 1.00968e-05)
(1.00966e-05 -2.01457e-20 -0 1.00966e-05 -0 1.00966e-05)
(1.00966e-05 1.01936e-19 -0 1.00966e-05 -0 1.00966e-05)
(1.00965e-05 1.28241e-19 -0 1.00965e-05 -0 1.00965e-05)
(1.00965e-05 -3.4017e-20 -0 1.00965e-05 -0 1.00965e-05)
(1.01474e-05 1.30354e-18 -0 1.01474e-05 -0 1.01474e-05)
(1.01474e-05 -1.31492e-19 -0 1.01474e-05 -0 1.01474e-05)
(1.01462e-05 -2.05184e-20 -0 1.01462e-05 -0 1.01462e-05)
(1.01457e-05 -2.50282e-19 -0 1.01457e-05 -0 1.01457e-05)
(1.01449e-05 -2.10655e-19 -0 1.01449e-05 -0 1.01449e-05)
(1.01445e-05 -2.11143e-19 -0 1.01445e-05 -0 1.01445e-05)
(1.01438e-05 -1.78339e-19 -0 1.01438e-05 -0 1.01438e-05)
(1.01434e-05 -1.61408e-19 -0 1.01434e-05 -0 1.01434e-05)
(1.01429e-05 -5.06584e-20 -0 1.01429e-05 -0 1.01429e-05)
(1.01425e-05 -5.77082e-20 -0 1.01425e-05 -0 1.01425e-05)
(1.01421e-05 4.21611e-20 -0 1.01421e-05 -0 1.01421e-05)
(1.01417e-05 9.19055e-20 -0 1.01417e-05 -0 1.01417e-05)
(1.01415e-05 1.08175e-19 -0 1.01415e-05 -0 1.01415e-05)
(1.01412e-05 -2.53096e-20 -0 1.01412e-05 -0 1.01412e-05)
(1.0141e-05 9.43401e-20 -0 1.0141e-05 -0 1.0141e-05)
(1.01408e-05 -9.55704e-20 -0 1.01408e-05 -0 1.01408e-05)
(1.01407e-05 -8.62641e-20 -0 1.01407e-05 -0 1.01407e-05)
(1.01406e-05 -1.45095e-20 -0 1.01406e-05 -0 1.01406e-05)
(1.01406e-05 -1.18436e-19 -0 1.01406e-05 -0 1.01406e-05)
(1.01405e-05 9.81201e-21 -0 1.01405e-05 -0 1.01405e-05)
(1.01856e-05 -3.34181e-18 -0 1.01856e-05 -0 1.01856e-05)
(1.01856e-05 -5.95699e-19 -0 1.01856e-05 -0 1.01856e-05)
(1.01844e-05 -4.67235e-19 -0 1.01844e-05 -0 1.01844e-05)
(1.01839e-05 -6.03336e-20 -0 1.01839e-05 -0 1.01839e-05)
(1.01831e-05 -9.30796e-20 -0 1.01831e-05 -0 1.01831e-05)
(1.01826e-05 -8.57942e-20 -0 1.01826e-05 -0 1.01826e-05)
(1.01819e-05 -5.14875e-20 -0 1.01819e-05 -0 1.01819e-05)
(1.01816e-05 -8.07023e-20 -0 1.01816e-05 -0 1.01816e-05)
(1.0181e-05 2.76568e-20 -0 1.0181e-05 -0 1.0181e-05)
(1.01806e-05 1.20581e-19 -0 1.01806e-05 -0 1.01806e-05)
(1.01802e-05 -6.21393e-21 -0 1.01802e-05 -0 1.01802e-05)
(1.01799e-05 8.18791e-20 -0 1.01799e-05 -0 1.01799e-05)
(1.01795e-05 -1.72252e-20 -0 1.01795e-05 -0 1.01795e-05)
(1.01793e-05 -9.10425e-20 -0 1.01793e-05 -0 1.01793e-05)
(1.01791e-05 -2.1007e-19 -0 1.01791e-05 -0 1.01791e-05)
(1.01789e-05 -1.03343e-19 -0 1.01789e-05 -0 1.01789e-05)
(1.01788e-05 -6.86543e-20 -0 1.01788e-05 -0 1.01788e-05)
(1.01787e-05 -3.78509e-20 -0 1.01787e-05 -0 1.01787e-05)
(1.01787e-05 -6.16186e-20 -0 1.01787e-05 -0 1.01787e-05)
(1.01786e-05 1.97931e-20 -0 1.01786e-05 -0 1.01786e-05)
(1.02229e-05 -4.25179e-21 -0 1.02229e-05 -0 1.02229e-05)
(1.02229e-05 2.11679e-18 -0 1.02229e-05 -0 1.02229e-05)
(1.02216e-05 1.73885e-19 -0 1.02216e-05 -0 1.02216e-05)
(1.02212e-05 2.82325e-19 -0 1.02212e-05 -0 1.02212e-05)
(1.02203e-05 1.17472e-19 -0 1.02203e-05 -0 1.02203e-05)
(1.02199e-05 2.73853e-19 -0 1.02199e-05 -0 1.02199e-05)
(1.02192e-05 1.83627e-19 -0 1.02192e-05 -0 1.02192e-05)
(1.02188e-05 1.5608e-19 -0 1.02188e-05 -0 1.02188e-05)
(1.02182e-05 1.52393e-19 -0 1.02182e-05 -0 1.02182e-05)
(1.02178e-05 1.24711e-20 -0 1.02178e-05 -0 1.02178e-05)
(1.02174e-05 1.59948e-19 -0 1.02174e-05 -0 1.02174e-05)
(1.02171e-05 2.13747e-20 -0 1.02171e-05 -0 1.02171e-05)
(1.02168e-05 3.42214e-21 -0 1.02168e-05 -0 1.02168e-05)
(1.02165e-05 1.25376e-19 -0 1.02165e-05 -0 1.02165e-05)
(1.02163e-05 1.07043e-19 -0 1.02163e-05 -0 1.02163e-05)
(1.02162e-05 9.16427e-20 -0 1.02162e-05 -0 1.02162e-05)
(1.0216e-05 5.80207e-20 -0 1.0216e-05 -0 1.0216e-05)
(1.02159e-05 -7.12184e-22 -0 1.02159e-05 -0 1.02159e-05)
(1.02159e-05 1.6044e-19 -0 1.02159e-05 -0 1.02159e-05)
(1.02159e-05 3.93246e-20 -0 1.02159e-05 -0 1.02159e-05)
(1.02622e-05 1.65208e-18 -0 1.02622e-05 -0 1.02622e-05)
(1.02622e-05 5.74542e-19 -0 1.02622e-05 -0 1.02622e-05)
(1.0261e-05 -1.84134e-19 -0 1.0261e-05 -0 1.0261e-05)
(1.02605e-05 -7.42135e-20 -0 1.02605e-05 -0 1.02605e-05)
(1.02597e-05 -1.92025e-24 -0 1.02597e-05 -0 1.02597e-05)
(1.02592e-05 -1.28987e-19 -0 1.02592e-05 -0 1.02592e-05)
(1.02585e-05 -2.22609e-19 -0 1.02585e-05 -0 1.02585e-05)
(1.02581e-05 -2.21551e-19 -0 1.02581e-05 -0 1.02581e-05)
(1.02575e-05 -1.55787e-19 -0 1.02575e-05 -0 1.02575e-05)
(1.02572e-05 -1.15745e-19 -0 1.02572e-05 -0 1.02572e-05)
(1.02567e-05 -1.73125e-19 -0 1.02567e-05 -0 1.02567e-05)
(1.02564e-05 8.56793e-21 -0 1.02564e-05 -0 1.02564e-05)
(1.02561e-05 1.60443e-19 -0 1.02561e-05 -0 1.02561e-05)
(1.02558e-05 1.20271e-19 -0 1.02558e-05 -0 1.02558e-05)
(1.02556e-05 2.27521e-19 -0 1.02556e-05 -0 1.02556e-05)
(1.02555e-05 9.51385e-20 -0 1.02555e-05 -0 1.02555e-05)
(1.02553e-05 6.12618e-20 -0 1.02553e-05 -0 1.02553e-05)
(1.02552e-05 -6.05003e-20 -0 1.02552e-05 -0 1.02552e-05)
(1.02552e-05 -1.15816e-20 -0 1.02552e-05 -0 1.02552e-05)
(1.02552e-05 -9.22104e-21 -0 1.02552e-05 -0 1.02552e-05)
(1.03056e-05 2.22526e-18 -0 1.03056e-05 -0 1.03056e-05)
(1.03056e-05 -5.28482e-18 -0 1.03056e-05 -0 1.03056e-05)
(1.03044e-05 8.89708e-19 -0 1.03044e-05 -0 1.03044e-05)
(1.03038e-05 -2.10003e-19 -0 1.03038e-05 -0 1.03038e-05)
(1.03031e-05 -3.81094e-20 -0 1.03031e-05 -0 1.03031e-05)
(1.03026e-05 -1.51205e-19 -0 1.03026e-05 -0 1.03026e-05)
(1.03019e-05 -4.70974e-20 -0 1.03019e-05 -0 1.03019e-05)
(1.03014e-05 1.93479e-20 -0 1.03014e-05 -0 1.03014e-05)
(1.03009e-05 -6.56753e-20 -0 1.03009e-05 -0 1.03009e-05)
(1.03005e-05 4.92217e-20 -0 1.03005e-05 -0 1.03005e-05)
(1.03e-05 1.50704e-20 -0 1.03e-05 -0 1.03e-05)
(1.02998e-05 -8.55842e-20 -0 1.02998e-05 -0 1.02998e-05)
(1.02994e-05 1.36207e-20 -0 1.02994e-05 -0 1.02994e-05)
(1.02992e-05 -3.41257e-20 -0 1.02992e-05 -0 1.02992e-05)
(1.02989e-05 -1.60455e-19 -0 1.02989e-05 -0 1.02989e-05)
(1.02988e-05 -2.65975e-20 -0 1.02988e-05 -0 1.02988e-05)
(1.02986e-05 -2.04013e-20 -0 1.02986e-05 -0 1.02986e-05)
(1.02985e-05 -3.30816e-20 -0 1.02985e-05 -0 1.02985e-05)
(1.02985e-05 -1.00191e-19 -0 1.02985e-05 -0 1.02985e-05)
(1.02985e-05 -4.97227e-20 -0 1.02985e-05 -0 1.02985e-05)
(1.03544e-05 -5.6906e-18 -0 1.03544e-05 -0 1.03544e-05)
(1.03543e-05 9.60623e-18 -0 1.03543e-05 -0 1.03543e-05)
(1.03532e-05 -1.52041e-18 -0 1.03532e-05 -0 1.03532e-05)
(1.03526e-05 5.84803e-19 -0 1.03526e-05 -0 1.03526e-05)
(1.03518e-05 1.34416e-19 -0 1.03518e-05 -0 1.03518e-05)
(1.03513e-05 2.71919e-19 -0 1.03513e-05 -0 1.03513e-05)
(1.03506e-05 3.91934e-19 -0 1.03506e-05 -0 1.03506e-05)
(1.03502e-05 2.15846e-19 -0 1.03502e-05 -0 1.03502e-05)
(1.03496e-05 1.57013e-19 -0 1.03496e-05 -0 1.03496e-05)
(1.03492e-05 2.13291e-19 -0 1.03492e-05 -0 1.03492e-05)
(1.03488e-05 6.72266e-20 -0 1.03488e-05 -0 1.03488e-05)
(1.03484e-05 6.56321e-20 -0 1.03484e-05 -0 1.03484e-05)
(1.03481e-05 -1.3591e-19 -0 1.03481e-05 -0 1.03481e-05)
(1.03479e-05 1.45994e-20 -0 1.03479e-05 -0 1.03479e-05)
(1.03477e-05 -9.813e-20 -0 1.03477e-05 -0 1.03477e-05)
(1.03475e-05 -1.29047e-19 -0 1.03475e-05 -0 1.03475e-05)
(1.03473e-05 9.1184e-20 -0 1.03473e-05 -0 1.03473e-05)
(1.03472e-05 8.02901e-21 -0 1.03472e-05 -0 1.03472e-05)
(1.03472e-05 9.10589e-21 -0 1.03472e-05 -0 1.03472e-05)
(1.03472e-05 -2.74778e-20 -0 1.03472e-05 -0 1.03472e-05)
(1.04092e-05 4.54393e-18 -0 1.04092e-05 -0 1.04092e-05)
(1.04092e-05 -7.39288e-18 -0 1.04092e-05 -0 1.04092e-05)
(1.04081e-05 1.19395e-18 -0 1.04081e-05 -0 1.04081e-05)
(1.04074e-05 -4.78565e-19 -0 1.04074e-05 -0 1.04074e-05)
(1.04067e-05 -8.09304e-20 -0 1.04067e-05 -0 1.04067e-05)
(1.04061e-05 -5.08261e-20 -0 1.04061e-05 -0 1.04061e-05)
(1.04055e-05 -1.58098e-19 -0 1.04055e-05 -0 1.04055e-05)
(1.0405e-05 -2.33094e-20 -0 1.0405e-05 -0 1.0405e-05)
(1.04044e-05 -1.48256e-19 -0 1.04044e-05 -0 1.04044e-05)
(1.0404e-05 -1.08052e-19 -0 1.0404e-05 -0 1.0404e-05)
(1.04036e-05 -1.52663e-20 -0 1.04036e-05 -0 1.04036e-05)
(1.04033e-05 -2.42588e-20 -0 1.04033e-05 -0 1.04033e-05)
(1.04029e-05 -2.64506e-20 -0 1.04029e-05 -0 1.04029e-05)
(1.04027e-05 -1.29513e-19 -0 1.04027e-05 -0 1.04027e-05)
(1.04024e-05 1.36444e-20 -0 1.04024e-05 -0 1.04024e-05)
(1.04023e-05 4.72826e-20 -0 1.04023e-05 -0 1.04023e-05)
(1.04021e-05 -1.66259e-19 -0 1.04021e-05 -0 1.04021e-05)
(1.0402e-05 1.85513e-20 -0 1.0402e-05 -0 1.0402e-05)
(1.0402e-05 -4.86502e-20 -0 1.0402e-05 -0 1.0402e-05)
(1.0402e-05 4.93188e-20 -0 1.0402e-05 -0 1.0402e-05)
(1.0469e-05 3.5853e-18 -0 1.0469e-05 -0 1.0469e-05)
(1.0469e-05 -1.90351e-18 -0 1.0469e-05 -0 1.0469e-05)
(1.04678e-05 4.93051e-19 -0 1.04678e-05 -0 1.04678e-05)
(1.04672e-05 -1.23818e-19 -0 1.04672e-05 -0 1.04672e-05)
(1.04664e-05 1.05327e-20 -0 1.04664e-05 -0 1.04664e-05)
(1.04659e-05 -5.03372e-20 -0 1.04659e-05 -0 1.04659e-05)
(1.04651e-05 -1.25613e-19 -0 1.04651e-05 -0 1.04651e-05)
(1.04647e-05 -1.66267e-19 -0 1.04647e-05 -0 1.04647e-05)
(1.04641e-05 -2.96509e-21 -0 1.04641e-05 -0 1.04641e-05)
(1.04637e-05 -8.37435e-20 -0 1.04637e-05 -0 1.04637e-05)
(1.04633e-05 -3.24078e-20 -0 1.04633e-05 -0 1.04633e-05)
(1.04629e-05 -7.86184e-20 -0 1.04629e-05 -0 1.04629e-05)
(1.04626e-05 -5.20858e-20 -0 1.04626e-05 -0 1.04626e-05)
(1.04624e-05 -8.01423e-20 -0 1.04624e-05 -0 1.04624e-05)
(1.04621e-05 -1.39985e-19 -0 1.04621e-05 -0 1.04621e-05)
(1.04619e-05 -9.62029e-20 -0 1.04619e-05 -0 1.04619e-05)
(1.04618e-05 -8.61821e-20 -0 1.04618e-05 -0 1.04618e-05)
(1.04617e-05 -6.55194e-20 -0 1.04617e-05 -0 1.04617e-05)
(1.04617e-05 -3.24554e-20 -0 1.04617e-05 -0 1.04617e-05)
(1.04616e-05 3.3736e-21 -0 1.04616e-05 -0 1.04616e-05)
(1.05289e-05 -1.12053e-17 -0 1.05289e-05 -0 1.05289e-05)
(1.05289e-05 9.94763e-18 -0 1.05289e-05 -0 1.05289e-05)
(1.05276e-05 -1.88017e-18 -0 1.05276e-05 -0 1.05276e-05)
(1.05271e-05 4.67494e-19 -0 1.05271e-05 -0 1.05271e-05)
(1.05262e-05 -7.31036e-20 -0 1.05262e-05 -0 1.05262e-05)
(1.05257e-05 2.56348e-20 -0 1.05257e-05 -0 1.05257e-05)
(1.05249e-05 -2.83576e-20 -0 1.05249e-05 -0 1.05249e-05)
(1.05245e-05 5.45322e-20 -0 1.05245e-05 -0 1.05245e-05)
(1.05239e-05 -1.43173e-21 -0 1.05239e-05 -0 1.05239e-05)
(1.05235e-05 -6.9894e-20 -0 1.05235e-05 -0 1.05235e-05)
(1.05231e-05 3.72218e-20 -0 1.05231e-05 -0 1.05231e-05)
(1.05227e-05 1.11707e-22 -0 1.05227e-05 -0 1.05227e-05)
(1.05224e-05 4.52104e-20 -0 1.05224e-05 -0 1.05224e-05)
(1.05221e-05 1.38376e-19 -0 1.05221e-05 -0 1.05221e-05)
(1.05219e-05 1.95693e-19 -0 1.05219e-05 -0 1.05219e-05)
(1.05217e-05 1.37632e-19 -0 1.05217e-05 -0 1.05217e-05)
(1.05216e-05 8.78823e-20 -0 1.05216e-05 -0 1.05216e-05)
(1.05215e-05 6.68852e-20 -0 1.05215e-05 -0 1.05215e-05)
(1.05214e-05 1.26454e-19 -0 1.05214e-05 -0 1.05214e-05)
(1.05214e-05 3.21714e-20 -0 1.05214e-05 -0 1.05214e-05)
(1.05792e-05 -2.39527e-19 -0 1.05792e-05 -0 1.05792e-05)
(1.05792e-05 -1.09147e-18 -0 1.05792e-05 -0 1.05792e-05)
(1.0578e-05 -5.1642e-19 -0 1.0578e-05 -0 1.0578e-05)
(1.05774e-05 -2.00736e-19 -0 1.05774e-05 -0 1.05774e-05)
(1.05767e-05 -2.57873e-19 -0 1.05767e-05 -0 1.05767e-05)
(1.05761e-05 -2.78198e-19 -0 1.05761e-05 -0 1.05761e-05)
(1.05755e-05 -1.81132e-19 -0 1.05755e-05 -0 1.05755e-05)
(1.0575e-05 -1.2823e-19 -0 1.0575e-05 -0 1.0575e-05)
(1.05745e-05 -5.23123e-20 -0 1.05745e-05 -0 1.05745e-05)
(1.0574e-05 -1.45234e-20 -0 1.0574e-05 -0 1.0574e-05)
(1.05736e-05 -1.51807e-19 -0 1.05736e-05 -0 1.05736e-05)
(1.05732e-05 4.15517e-20 -0 1.05732e-05 -0 1.05732e-05)
(1.0573e-05 -4.72521e-20 -0 1.0573e-05 -0 1.0573e-05)
(1.05726e-05 -3.23748e-20 -0 1.05726e-05 -0 1.05726e-05)
(1.05725e-05 1.51168e-20 -0 1.05725e-05 -0 1.05725e-05)
(1.05722e-05 -6.579e-20 -0 1.05722e-05 -0 1.05722e-05)
(1.05721e-05 8.46097e-20 -0 1.05721e-05 -0 1.05721e-05)
(1.0572e-05 -1.41985e-20 -0 1.0572e-05 -0 1.0572e-05)
(1.0572e-05 -1.21863e-19 -0 1.0572e-05 -0 1.0572e-05)
(1.05719e-05 -6.41208e-20 -0 1.05719e-05 -0 1.05719e-05)
(1.06015e-05 1.39706e-17 -0 1.06015e-05 -0 1.06015e-05)
(1.06015e-05 -1.3998e-17 -0 1.06015e-05 -0 1.06015e-05)
(1.06015e-05 3.3056e-18 -0 1.06015e-05 -0 1.06015e-05)
(1.06015e-05 -5.05998e-19 -0 1.06015e-05 -0 1.06015e-05)
(1.06015e-05 3.71821e-19 -0 1.06015e-05 -0 1.06015e-05)
(1.06015e-05 1.62146e-19 -0 1.06015e-05 -0 1.06015e-05)
(1.06015e-05 2.21295e-19 -0 1.06015e-05 -0 1.06015e-05)
(1.06015e-05 1.24456e-19 -0 1.06015e-05 -0 1.06015e-05)
(1.06014e-05 9.00499e-20 -0 1.06014e-05 -0 1.06014e-05)
(1.06014e-05 1.00723e-19 -0 1.06014e-05 -0 1.06014e-05)
(1.06014e-05 1.26657e-19 -0 1.06014e-05 -0 1.06014e-05)
(1.06014e-05 1.35314e-20 -0 1.06014e-05 -0 1.06014e-05)
(1.06014e-05 1.39924e-19 -0 1.06014e-05 -0 1.06014e-05)
(1.06014e-05 8.77829e-20 -0 1.06014e-05 -0 1.06014e-05)
(1.06014e-05 1.06201e-20 -0 1.06014e-05 -0 1.06014e-05)
(1.06014e-05 3.49741e-20 -0 1.06014e-05 -0 1.06014e-05)
(1.06014e-05 -1.37637e-19 -0 1.06014e-05 -0 1.06014e-05)
(1.06014e-05 -9.67191e-20 -0 1.06014e-05 -0 1.06014e-05)
(1.06014e-05 -3.36776e-21 -0 1.06014e-05 -0 1.06014e-05)
(1.06014e-05 2.78302e-20 -0 1.06014e-05 -0 1.06014e-05)
)
;

boundaryField
{
    movingWall
    {
        type            kqRWallFunction;
        value           nonuniform List<symmTensor> 
20
(
(1.06015e-05 0 -0 1.06015e-05 -0 1.06015e-05)
(1.06015e-05 -0 -0 1.06015e-05 -0 1.06015e-05)
(1.06015e-05 0 -0 1.06015e-05 -0 1.06015e-05)
(1.06015e-05 0 -0 1.06015e-05 -0 1.06015e-05)
(1.06015e-05 0 -0 1.06015e-05 -0 1.06015e-05)
(1.06015e-05 0 -0 1.06015e-05 -0 1.06015e-05)
(1.06015e-05 0 -0 1.06015e-05 -0 1.06015e-05)
(1.06015e-05 0 -0 1.06015e-05 -0 1.06015e-05)
(1.06014e-05 0 -0 1.06014e-05 -0 1.06014e-05)
(1.06014e-05 0 -0 1.06014e-05 -0 1.06014e-05)
(1.06014e-05 0 -0 1.06014e-05 -0 1.06014e-05)
(1.06014e-05 0 -0 1.06014e-05 -0 1.06014e-05)
(1.06014e-05 0 -0 1.06014e-05 -0 1.06014e-05)
(1.06014e-05 0 -0 1.06014e-05 -0 1.06014e-05)
(1.06014e-05 0 -0 1.06014e-05 -0 1.06014e-05)
(1.06014e-05 0 -0 1.06014e-05 -0 1.06014e-05)
(1.06014e-05 -0 -0 1.06014e-05 -0 1.06014e-05)
(1.06014e-05 0 -0 1.06014e-05 -0 1.06014e-05)
(1.06014e-05 0 -0 1.06014e-05 -0 1.06014e-05)
(1.06014e-05 0 -0 1.06014e-05 -0 1.06014e-05)
)
;
    }
    fixedWalls
    {
        type            kqRWallFunction;
        value           nonuniform List<symmTensor> 
60
(
(7.34844e-06 -0 -0 7.34844e-06 -0 7.34844e-06)
(7.84328e-06 -0 -0 7.84328e-06 -0 7.84328e-06)
(8.52228e-06 0 -0 8.52228e-06 -0 8.52228e-06)
(9.11814e-06 -0 -0 9.11814e-06 -0 9.11814e-06)
(9.537e-06 0 -0 9.537e-06 -0 9.537e-06)
(9.79794e-06 0 -0 9.79794e-06 -0 9.79794e-06)
(9.95201e-06 -0 -0 9.95201e-06 -0 9.95201e-06)
(1.00439e-05 0 -0 1.00439e-05 -0 1.00439e-05)
(1.01033e-05 0 -0 1.01033e-05 -0 1.01033e-05)
(1.01474e-05 0 -0 1.01474e-05 -0 1.01474e-05)
(1.01856e-05 0 -0 1.01856e-05 -0 1.01856e-05)
(1.02229e-05 -0 -0 1.02229e-05 -0 1.02229e-05)
(1.02622e-05 -0 -0 1.02622e-05 -0 1.02622e-05)
(1.03056e-05 0 -0 1.03056e-05 -0 1.03056e-05)
(1.03544e-05 -0 -0 1.03544e-05 -0 1.03544e-05)
(1.04092e-05 0 -0 1.04092e-05 -0 1.04092e-05)
(1.0469e-05 0 -0 1.0469e-05 -0 1.0469e-05)
(1.05289e-05 -0 -0 1.05289e-05 -0 1.05289e-05)
(1.05792e-05 0 -0 1.05792e-05 -0 1.05792e-05)
(1.06015e-05 0 -0 1.06015e-05 -0 1.06015e-05)
(7.34836e-06 0 -0 7.34836e-06 -0 7.34836e-06)
(7.83926e-06 -0 -0 7.83926e-06 -0 7.83926e-06)
(8.51746e-06 -0 -0 8.51746e-06 -0 8.51746e-06)
(9.11261e-06 -0 -0 9.11261e-06 -0 9.11261e-06)
(9.53094e-06 -0 -0 9.53094e-06 -0 9.53094e-06)
(9.79152e-06 -0 -0 9.79152e-06 -0 9.79152e-06)
(9.94537e-06 -0 -0 9.94537e-06 -0 9.94537e-06)
(1.00372e-05 0 -0 1.00372e-05 -0 1.00372e-05)
(1.00965e-05 -0 -0 1.00965e-05 -0 1.00965e-05)
(1.01405e-05 -0 -0 1.01405e-05 -0 1.01405e-05)
(1.01786e-05 0 -0 1.01786e-05 -0 1.01786e-05)
(1.02159e-05 0 -0 1.02159e-05 -0 1.02159e-05)
(1.02552e-05 0 -0 1.02552e-05 -0 1.02552e-05)
(1.02985e-05 -0 -0 1.02985e-05 -0 1.02985e-05)
(1.03472e-05 -0 -0 1.03472e-05 -0 1.03472e-05)
(1.0402e-05 0 -0 1.0402e-05 -0 1.0402e-05)
(1.04616e-05 0 -0 1.04616e-05 -0 1.04616e-05)
(1.05214e-05 0 -0 1.05214e-05 -0 1.05214e-05)
(1.05719e-05 -0 -0 1.05719e-05 -0 1.05719e-05)
(1.06014e-05 0 -0 1.06014e-05 -0 1.06014e-05)
(7.34844e-06 -0 -0 7.34844e-06 -0 7.34844e-06)
(7.34843e-06 0 -0 7.34843e-06 -0 7.34843e-06)
(7.34842e-06 -0 -0 7.34842e-06 -0 7.34842e-06)
(7.34841e-06 0 -0 7.34841e-06 -0 7.34841e-06)
(7.3484e-06 -0 -0 7.3484e-06 -0 7.3484e-06)
(7.34839e-06 -0 -0 7.34839e-06 -0 7.34839e-06)
(7.34838e-06 -0 -0 7.34838e-06 -0 7.34838e-06)
(7.34838e-06 -0 -0 7.34838e-06 -0 7.34838e-06)
(7.34837e-06 -0 -0 7.34837e-06 -0 7.34837e-06)
(7.34837e-06 -0 -0 7.34837e-06 -0 7.34837e-06)
(7.34837e-06 -0 -0 7.34837e-06 -0 7.34837e-06)
(7.34836e-06 0 -0 7.34836e-06 -0 7.34836e-06)
(7.34836e-06 0 -0 7.34836e-06 -0 7.34836e-06)
(7.34836e-06 0 -0 7.34836e-06 -0 7.34836e-06)
(7.34836e-06 -0 -0 7.34836e-06 -0 7.34836e-06)
(7.34836e-06 -0 -0 7.34836e-06 -0 7.34836e-06)
(7.34836e-06 -0 -0 7.34836e-06 -0 7.34836e-06)
(7.34836e-06 -0 -0 7.34836e-06 -0 7.34836e-06)
(7.34836e-06 -0 -0 7.34836e-06 -0 7.34836e-06)
(7.34836e-06 0 -0 7.34836e-06 -0 7.34836e-06)
)
;
    }
    frontAndBack
    {
        type            empty;
    }
}


// ************************************************************************* //
