/*--------------------------------*- C++ -*----------------------------------*\
| =========                 |                                                 |
| \\      /  F ield         | OpenFOAM: The Open Source CFD Toolbox           |
|  \\    /   O peration     | Version:  2312                                  |
|   \\  /    A nd           | Website:  www.openfoam.com                      |
|    \\/     M anipulation  |                                                 |
\*---------------------------------------------------------------------------*/
FoamFile
{
    version     2.0;
    format      ascii;
    arch        "LSB;label=32;scalar=64";
    class       volScalarField;
    location    "5.5";
    object      turbulenceProperties:k;
}
// * * * * * * * * * * * * * * * * * * * * * * * * * * * * * * * * * * * * * //

dimensions      [0 2 -2 0 0 0 0];

internalField   nonuniform List<scalar> 
400
(
1.10227e-05
1.10226e-05
1.10226e-05
1.10226e-05
1.10226e-05
1.10226e-05
1.10226e-05
1.10226e-05
1.10226e-05
1.10226e-05
1.10226e-05
1.10225e-05
1.10225e-05
1.10225e-05
1.10225e-05
1.10225e-05
1.10225e-05
1.10225e-05
1.10225e-05
1.10225e-05
1.17649e-05
1.17649e-05
1.17639e-05
1.17635e-05
1.17628e-05
1.17624e-05
1.17618e-05
1.17614e-05
1.17609e-05
1.17606e-05
1.17602e-05
1.176e-05
1.17597e-05
1.17595e-05
1.17593e-05
1.17592e-05
1.1759e-05
1.1759e-05
1.17589e-05
1.17589e-05
1.27834e-05
1.27834e-05
1.27822e-05
1.27816e-05
1.27809e-05
1.27803e-05
1.27796e-05
1.27792e-05
1.27786e-05
1.27782e-05
1.27778e-05
1.27775e-05
1.27772e-05
1.27769e-05
1.27767e-05
1.27765e-05
1.27764e-05
1.27763e-05
1.27762e-05
1.27762e-05
1.36772e-05
1.36772e-05
1.36758e-05
1.36751e-05
1.36742e-05
1.36736e-05
1.36729e-05
1.36723e-05
1.36718e-05
1.36712e-05
1.36708e-05
1.36703e-05
1.367e-05
1.36697e-05
1.36695e-05
1.36692e-05
1.36691e-05
1.3669e-05
1.36689e-05
1.36689e-05
1.43055e-05
1.43055e-05
1.4304e-05
1.43033e-05
1.43022e-05
1.43017e-05
1.43007e-05
1.43003e-05
1.42994e-05
1.4299e-05
1.42984e-05
1.42981e-05
1.42976e-05
1.42973e-05
1.4297e-05
1.42968e-05
1.42966e-05
1.42965e-05
1.42964e-05
1.42964e-05
1.46969e-05
1.46969e-05
1.46952e-05
1.46945e-05
1.46934e-05
1.46928e-05
1.46919e-05
1.46913e-05
1.46905e-05
1.46901e-05
1.46894e-05
1.4689e-05
1.46885e-05
1.46883e-05
1.46879e-05
1.46877e-05
1.46875e-05
1.46874e-05
1.46873e-05
1.46873e-05
1.4928e-05
1.4928e-05
1.49264e-05
1.49255e-05
1.49245e-05
1.49238e-05
1.49228e-05
1.49222e-05
1.49214e-05
1.49209e-05
1.49203e-05
1.49198e-05
1.49194e-05
1.4919e-05
1.49187e-05
1.49185e-05
1.49183e-05
1.49182e-05
1.49181e-05
1.49181e-05
1.50659e-05
1.50658e-05
1.50642e-05
1.50634e-05
1.50622e-05
1.50616e-05
1.50606e-05
1.506e-05
1.50592e-05
1.50586e-05
1.5058e-05
1.50575e-05
1.50571e-05
1.50567e-05
1.50564e-05
1.50562e-05
1.5056e-05
1.50559e-05
1.50558e-05
1.50557e-05
1.5155e-05
1.5155e-05
1.51532e-05
1.51525e-05
1.51513e-05
1.51506e-05
1.51496e-05
1.5149e-05
1.51482e-05
1.51476e-05
1.5147e-05
1.51466e-05
1.51461e-05
1.51457e-05
1.51454e-05
1.51452e-05
1.5145e-05
1.51448e-05
1.51448e-05
1.51447e-05
1.52212e-05
1.52211e-05
1.52193e-05
1.52186e-05
1.52174e-05
1.52167e-05
1.52157e-05
1.52151e-05
1.52143e-05
1.52137e-05
1.52131e-05
1.52126e-05
1.52122e-05
1.52118e-05
1.52115e-05
1.52112e-05
1.5211e-05
1.52109e-05
1.52108e-05
1.52108e-05
1.52784e-05
1.52783e-05
1.52766e-05
1.52758e-05
1.52746e-05
1.5274e-05
1.52729e-05
1.52723e-05
1.52714e-05
1.5271e-05
1.52702e-05
1.52698e-05
1.52693e-05
1.5269e-05
1.52686e-05
1.52684e-05
1.52682e-05
1.52681e-05
1.5268e-05
1.52679e-05
1.53344e-05
1.53343e-05
1.53325e-05
1.53317e-05
1.53305e-05
1.53298e-05
1.53288e-05
1.53281e-05
1.53273e-05
1.53268e-05
1.53261e-05
1.53256e-05
1.53252e-05
1.53248e-05
1.53245e-05
1.53242e-05
1.5324e-05
1.53239e-05
1.53238e-05
1.53238e-05
1.53934e-05
1.53933e-05
1.53915e-05
1.53907e-05
1.53895e-05
1.53888e-05
1.53878e-05
1.53872e-05
1.53863e-05
1.53858e-05
1.53851e-05
1.53846e-05
1.53842e-05
1.53838e-05
1.53835e-05
1.53832e-05
1.5383e-05
1.53829e-05
1.53828e-05
1.53827e-05
1.54584e-05
1.54583e-05
1.54566e-05
1.54557e-05
1.54546e-05
1.54538e-05
1.54528e-05
1.54522e-05
1.54513e-05
1.54508e-05
1.54501e-05
1.54496e-05
1.54491e-05
1.54488e-05
1.54484e-05
1.54482e-05
1.54479e-05
1.54478e-05
1.54477e-05
1.54477e-05
1.55316e-05
1.55315e-05
1.55298e-05
1.55289e-05
1.55277e-05
1.55269e-05
1.55259e-05
1.55253e-05
1.55244e-05
1.55238e-05
1.55232e-05
1.55227e-05
1.55222e-05
1.55218e-05
1.55215e-05
1.55212e-05
1.5521e-05
1.55209e-05
1.55208e-05
1.55208e-05
1.56138e-05
1.56138e-05
1.56121e-05
1.56111e-05
1.561e-05
1.56092e-05
1.56082e-05
1.56075e-05
1.56066e-05
1.56061e-05
1.56054e-05
1.56049e-05
1.56044e-05
1.5604e-05
1.56036e-05
1.56034e-05
1.56032e-05
1.56031e-05
1.5603e-05
1.56029e-05
1.57035e-05
1.57035e-05
1.57017e-05
1.57007e-05
1.56996e-05
1.56988e-05
1.56977e-05
1.56971e-05
1.56962e-05
1.56956e-05
1.56949e-05
1.56944e-05
1.56939e-05
1.56935e-05
1.56932e-05
1.56929e-05
1.56927e-05
1.56926e-05
1.56925e-05
1.56925e-05
1.57933e-05
1.57933e-05
1.57914e-05
1.57906e-05
1.57893e-05
1.57885e-05
1.57874e-05
1.57868e-05
1.57859e-05
1.57853e-05
1.57846e-05
1.57841e-05
1.57836e-05
1.57832e-05
1.57829e-05
1.57826e-05
1.57824e-05
1.57823e-05
1.57822e-05
1.57821e-05
1.58688e-05
1.58688e-05
1.58671e-05
1.58662e-05
1.5865e-05
1.58642e-05
1.58632e-05
1.58625e-05
1.58617e-05
1.5861e-05
1.58604e-05
1.58598e-05
1.58594e-05
1.5859e-05
1.58587e-05
1.58583e-05
1.58582e-05
1.5858e-05
1.58579e-05
1.58579e-05
1.59023e-05
1.59023e-05
1.59023e-05
1.59022e-05
1.59022e-05
1.59022e-05
1.59022e-05
1.59022e-05
1.59022e-05
1.59022e-05
1.59022e-05
1.59022e-05
1.59021e-05
1.59021e-05
1.59021e-05
1.59021e-05
1.59021e-05
1.59021e-05
1.59021e-05
1.59021e-05
)
;

boundaryField
{
    movingWall
    {
        type            kqRWallFunction;
        value           nonuniform List<scalar> 
20
(
1.59023e-05
1.59023e-05
1.59023e-05
1.59022e-05
1.59022e-05
1.59022e-05
1.59022e-05
1.59022e-05
1.59022e-05
1.59022e-05
1.59022e-05
1.59022e-05
1.59021e-05
1.59021e-05
1.59021e-05
1.59021e-05
1.59021e-05
1.59021e-05
1.59021e-05
1.59021e-05
)
;
    }
    fixedWalls
    {
        type            kqRWallFunction;
        value           nonuniform List<scalar> 
60
(
1.10227e-05
1.17649e-05
1.27834e-05
1.36772e-05
1.43055e-05
1.46969e-05
1.4928e-05
1.50659e-05
1.5155e-05
1.52212e-05
1.52784e-05
1.53344e-05
1.53934e-05
1.54584e-05
1.55316e-05
1.56138e-05
1.57035e-05
1.57933e-05
1.58688e-05
1.59023e-05
1.10225e-05
1.17589e-05
1.27762e-05
1.36689e-05
1.42964e-05
1.46873e-05
1.49181e-05
1.50557e-05
1.51447e-05
1.52108e-05
1.52679e-05
1.53238e-05
1.53827e-05
1.54477e-05
1.55208e-05
1.56029e-05
1.56925e-05
1.57821e-05
1.58579e-05
1.59021e-05
1.10227e-05
1.10226e-05
1.10226e-05
1.10226e-05
1.10226e-05
1.10226e-05
1.10226e-05
1.10226e-05
1.10226e-05
1.10226e-05
1.10226e-05
1.10225e-05
1.10225e-05
1.10225e-05
1.10225e-05
1.10225e-05
1.10225e-05
1.10225e-05
1.10225e-05
1.10225e-05
)
;
    }
    frontAndBack
    {
        type            empty;
    }
}


// ************************************************************************* //
