/*--------------------------------*- C++ -*----------------------------------*\
| =========                 |                                                 |
| \\      /  F ield         | OpenFOAM: The Open Source CFD Toolbox           |
|  \\    /   O peration     | Version:  2312                                  |
|   \\  /    A nd           | Website:  www.openfoam.com                      |
|    \\/     M anipulation  |                                                 |
\*---------------------------------------------------------------------------*/
FoamFile
{
    version     2.0;
    format      ascii;
    arch        "LSB;label=32;scalar=64";
    class       volSymmTensorField;
    location    "5.5";
    object      turbulenceProperties:devReff;
}
// * * * * * * * * * * * * * * * * * * * * * * * * * * * * * * * * * * * * * //

dimensions      [0 2 -2 0 0 0 0];

internalField   nonuniform List<symmTensor> 
400
(
(1.12961e-16 -8.96389e-17 -0 -2.13067e-16 -0 1.00106e-16)
(-3.53953e-17 9.7079e-17 -0 4.95794e-17 -0 -1.4184e-17)
(9.45619e-18 -1.96445e-17 -0 -1.24847e-17 -0 3.02853e-18)
(-5.46631e-19 3.97263e-18 -0 1.73603e-18 -0 -1.1894e-18)
(-2.26213e-19 -1.84659e-18 -0 -1.9034e-19 -0 4.16553e-19)
(-1.11674e-20 -5.50434e-19 -0 2.23348e-20 -0 -1.11674e-20)
(6.71777e-20 -1.41981e-19 -0 -1.34355e-19 -0 6.71777e-20)
(5.50875e-20 -1.30387e-20 -0 -1.10175e-19 -0 5.50875e-20)
(5.15378e-19 -2.98955e-19 -0 -3.87991e-19 -0 -1.27387e-19)
(5.34223e-19 -1.52183e-20 -0 -4.2568e-19 -0 -1.08543e-19)
(1.3737e-19 -6.92167e-20 -0 -2.74739e-19 -0 1.3737e-19)
(5.93939e-19 7.30244e-19 -0 -5.45113e-19 -0 -4.8826e-20)
(-1.36564e-20 8.64131e-19 -0 2.73128e-20 -0 -1.36564e-20)
(-6.1434e-19 7.19817e-19 -0 5.85914e-19 -0 2.84257e-20)
(-6.06499e-19 5.46714e-19 -0 5.70232e-19 -0 3.62666e-20)
(-1.38407e-20 -1.45372e-19 -0 2.76815e-20 -0 -1.38407e-20)
(5.02406e-19 -6.04385e-20 -0 -3.62047e-19 -0 -1.40359e-19)
(-3.46375e-19 -6.16575e-20 -0 4.99851e-20 -0 2.9639e-19)
(9.86232e-19 6.63716e-19 -0 -6.86934e-19 -0 -2.99298e-19)
(3.82156e-21 1.96925e-19 -0 -7.64312e-21 -0 3.82156e-21)
(-1.87134e-16 -4.46142e-17 -0 3.43903e-16 -0 -1.56769e-16)
(6.31839e-17 5.51077e-17 -0 -8.35847e-17 -0 2.04008e-17)
(-1.69974e-17 -1.02147e-17 -0 2.10341e-17 -0 -4.03676e-18)
(1.19893e-18 2.5367e-18 -0 -3.04581e-18 -0 1.84688e-18)
(-3.19396e-19 -5.67917e-19 -0 6.38792e-19 -0 -3.19396e-19)
(1.49134e-18 4.35047e-19 -0 -1.03958e-18 -0 -4.51766e-19)
(4.57927e-19 -2.80856e-19 -0 -2.68311e-19 -0 -1.89616e-19)
(6.26469e-21 -3.40347e-19 -0 -1.25294e-20 -0 6.26469e-21)
(-3.21783e-19 -4.2271e-19 -0 -3.7348e-21 -0 3.25518e-19)
(6.11115e-19 -6.09528e-20 -0 -5.75016e-19 -0 -3.60986e-20)
(1.41445e-19 -2.04942e-20 -0 -2.82891e-19 -0 1.41445e-19)
(6.2065e-20 -5.06999e-19 -0 -1.2413e-19 -0 6.2065e-20)
(7.69058e-20 3.07448e-19 -0 -1.53812e-19 -0 7.69058e-20)
(8.77439e-19 1.70491e-19 -0 -4.61428e-19 -0 -4.16011e-19)
(-9.78205e-19 1.60396e-19 -0 6.63261e-19 -0 3.14944e-19)
(-1.41423e-19 4.12683e-19 -0 2.82845e-19 -0 -1.41423e-19)
(-5.82581e-19 5.62345e-19 -0 5.18829e-19 -0 6.37521e-20)
(3.09847e-19 6.24807e-19 -0 2.65448e-20 -0 -3.36392e-19)
(-6.50852e-19 9.70301e-20 -0 6.55539e-19 -0 -4.68716e-21)
(-1.02052e-18 2.63835e-21 -0 7.4895e-19 -0 2.71569e-19)
(3.55551e-17 1.40372e-16 -0 -5.61499e-17 -0 2.05949e-17)
(-1.97096e-17 -1.51519e-16 -0 1.85288e-17 -0 1.18083e-18)
(5.15389e-18 2.96083e-17 -0 -4.43432e-18 -0 -7.19567e-19)
(-2.07579e-18 -6.80165e-18 -0 1.54152e-18 -0 5.34266e-19)
(1.00625e-18 1.92364e-18 -0 -7.07838e-19 -0 -2.98414e-19)
(-8.75349e-19 5.50032e-19 -0 4.46219e-19 -0 4.29129e-19)
(-4.03376e-19 1.42384e-19 -0 1.54692e-19 -0 2.48684e-19)
(9.54263e-20 1.86561e-19 -0 -1.90853e-19 -0 9.54263e-20)
(9.57288e-19 8.67335e-20 -0 -6.10992e-19 -0 -3.46296e-19)
(5.12448e-19 -7.15069e-19 -0 -3.73201e-19 -0 -1.39247e-19)
(4.54925e-20 -5.44184e-19 -0 -9.0985e-20 -0 4.54925e-20)
(5.92163e-21 -4.65348e-19 -0 -1.18433e-20 -0 5.92163e-21)
(5.64039e-19 -1.00738e-18 -0 -4.7682e-19 -0 -8.72191e-20)
(7.01702e-19 -9.32731e-19 -0 -7.52246e-19 -0 5.05445e-20)
(1.07819e-18 -8.37297e-19 -0 -8.54394e-19 -0 -2.23796e-19)
(5.22973e-21 -7.44279e-19 -0 -1.04595e-20 -0 5.22973e-21)
(-9.82554e-20 -9.1986e-20 -0 1.96511e-19 -0 -9.82554e-20)
(-1.03659e-18 4.0931e-20 -0 7.71934e-19 -0 2.64659e-19)
(-1.94013e-19 -5.71666e-19 -0 3.88025e-19 -0 -1.94013e-19)
(-6.91516e-20 -3.73321e-19 -0 1.38303e-19 -0 -6.91516e-20)
(9.50529e-17 -7.73608e-17 -0 -1.9076e-16 -0 9.57071e-17)
(-2.11024e-17 9.53279e-17 -0 4.02347e-17 -0 -1.91323e-17)
(6.98569e-18 -1.85633e-17 -0 -1.0689e-17 -0 3.70335e-18)
(3.37315e-19 4.55994e-18 -0 1.29447e-18 -0 -1.63179e-18)
(1.06032e-18 -4.16952e-19 -0 -8.08302e-19 -0 -2.52022e-19)
(-1.59749e-19 2.71233e-19 -0 3.19497e-19 -0 -1.59749e-19)
(-9.92463e-19 2.18817e-19 -0 6.73163e-19 -0 3.193e-19)
(7.76591e-19 5.53055e-19 -0 -2.41624e-19 -0 -5.34968e-19)
(-1.5214e-18 2.53727e-19 -0 1.07603e-18 -0 4.45376e-19)
(-1.15892e-18 3.30456e-19 -0 1.00686e-18 -0 1.52057e-19)
(-1.1596e-18 4.15587e-19 -0 1.00859e-18 -0 1.51009e-19)
(-6.79109e-19 1.43945e-20 -0 7.03021e-19 -0 -2.39111e-20)
(-5.24217e-19 -8.34976e-20 -0 3.93415e-19 -0 1.30802e-19)
(1.82536e-19 -2.7611e-19 -0 -3.65072e-19 -0 1.82536e-19)
(1.23614e-18 -4.23972e-19 -0 -1.16282e-18 -0 -7.33255e-20)
(6.90811e-19 -4.26046e-19 -0 -7.26996e-19 -0 3.61857e-20)
(4.76185e-19 -1.13093e-18 -0 -2.97917e-19 -0 -1.78267e-19)
(-4.36833e-20 -5.31526e-19 -0 8.73667e-20 -0 -4.36833e-20)
(2.57194e-20 -7.06722e-19 -0 -5.14387e-20 -0 2.57194e-20)
(7.62725e-20 -3.94262e-19 -0 -1.52545e-19 -0 7.62725e-20)
(-8.1733e-17 -1.54007e-17 -0 1.83167e-16 -0 -1.01433e-16)
(8.31339e-18 -4.67978e-18 -0 -3.37703e-17 -0 2.54569e-17)
(-3.72305e-18 9.21329e-19 -0 8.76434e-18 -0 -5.04129e-18)
(-2.05884e-18 -1.24267e-18 -0 -4.95393e-19 -0 2.55424e-18)
(-2.21894e-19 -1.26164e-18 -0 4.43789e-19 -0 -2.21894e-19)
(7.74024e-20 -1.29307e-18 -0 -1.54805e-19 -0 7.74024e-20)
(2.12475e-20 -6.07939e-19 -0 -4.2495e-20 -0 2.12475e-20)
(-4.44056e-20 -1.31852e-18 -0 8.88112e-20 -0 -4.44056e-20)
(-7.77019e-20 -9.46851e-19 -0 1.55404e-19 -0 -7.77019e-20)
(-1.52639e-19 -6.07997e-19 -0 3.05277e-19 -0 -1.52639e-19)
(-1.60143e-19 -2.84568e-19 -0 3.20285e-19 -0 -1.60143e-19)
(-1.20558e-19 -1.10661e-19 -0 2.41116e-19 -0 -1.20558e-19)
(-1.21306e-19 -3.41713e-19 -0 2.42613e-19 -0 -1.21306e-19)
(-6.31451e-20 3.51823e-19 -0 1.2629e-19 -0 -6.31451e-20)
(1.81258e-20 3.21929e-20 -0 -3.62516e-20 -0 1.81258e-20)
(5.30131e-20 6.38268e-20 -0 -1.06026e-19 -0 5.30131e-20)
(6.71921e-20 3.55894e-19 -0 -1.34384e-19 -0 6.71921e-20)
(1.33331e-19 -2.65804e-19 -0 -2.66662e-19 -0 1.33331e-19)
(1.6827e-19 5.55783e-19 -0 -3.36541e-19 -0 1.6827e-19)
(9.52593e-19 -2.23326e-19 -0 -5.91892e-19 -0 -3.60701e-19)
(6.5256e-18 4.31283e-17 -0 -5.12288e-17 -0 4.47032e-17)
(1.98108e-17 -4.49887e-17 -0 3.8232e-20 -0 -1.9849e-17)
(-3.2322e-18 7.81049e-18 -0 -8.03727e-19 -0 4.03593e-18)
(2.83558e-18 -1.66504e-18 -0 -1.04675e-18 -0 -1.78884e-18)
(-3.70975e-20 6.61809e-19 -0 7.41951e-20 -0 -3.70975e-20)
(-5.78979e-19 -9.25751e-20 -0 4.97645e-19 -0 8.13341e-20)
(6.61814e-21 -2.56747e-19 -0 -1.32363e-20 -0 6.61814e-21)
(4.59053e-19 4.54299e-20 -0 -2.5811e-19 -0 -2.00944e-19)
(-4.46888e-19 4.18154e-19 -0 2.33983e-19 -0 2.12905e-19)
(6.45353e-21 4.56621e-19 -0 -1.29071e-20 -0 6.45353e-21)
(9.26271e-20 -2.89385e-19 -0 -1.85254e-19 -0 9.26271e-20)
(6.13623e-19 -4.38158e-20 -0 -5.67876e-19 -0 -4.57464e-20)
(9.93481e-20 -1.70285e-19 -0 -1.98696e-19 -0 9.93481e-20)
(-3.47923e-20 -1.57955e-19 -0 6.95846e-20 -0 -3.47923e-20)
(-1.17046e-19 5.75786e-20 -0 2.34091e-19 -0 -1.17046e-19)
(-5.4383e-19 1.56212e-19 -0 4.28911e-19 -0 1.14919e-19)
(5.95954e-19 5.82691e-20 -0 -5.33347e-19 -0 -6.2607e-20)
(1.12165e-18 -2.84449e-20 -0 -9.26415e-19 -0 -1.95234e-19)
(1.59086e-19 3.17519e-20 -0 -3.18171e-19 -0 1.59086e-19)
(3.39237e-20 -2.79086e-20 -0 -6.78473e-20 -0 3.39237e-20)
(4.47586e-17 -1.66629e-17 -0 -6.11741e-17 -0 1.64155e-17)
(-2.50078e-17 3.51569e-17 -0 1.95659e-17 -0 5.44192e-18)
(4.49545e-18 -4.3565e-18 -0 -3.69738e-18 -0 -7.98067e-19)
(-2.52365e-18 2.2235e-18 -0 1.73941e-18 -0 7.84241e-19)
(-1.28364e-19 2.23907e-19 -0 2.56728e-19 -0 -1.28364e-19)
(-1.05147e-18 6.20022e-19 -0 7.80428e-19 -0 2.71041e-19)
(-6.40091e-20 8.0531e-19 -0 1.28018e-19 -0 -6.40091e-20)
(4.74465e-19 6.79689e-19 -0 -2.87997e-19 -0 -1.86468e-19)
(4.54694e-20 1.71134e-18 -0 -9.09387e-20 -0 4.54694e-20)
(-3.93017e-19 1.22178e-18 -0 1.25422e-19 -0 2.67595e-19)
(6.55437e-20 1.774e-18 -0 -1.31087e-19 -0 6.55437e-20)
(2.40972e-20 1.52949e-18 -0 -4.81944e-20 -0 2.40972e-20)
(4.50186e-19 1.62085e-18 -0 -2.40275e-19 -0 -2.09911e-19)
(-5.52063e-19 1.00822e-18 -0 4.44148e-19 -0 1.07915e-19)
(-1.28001e-19 7.97097e-19 -0 2.56003e-19 -0 -1.28001e-19)
(-5.92573e-20 3.12187e-19 -0 1.18515e-19 -0 -5.92573e-20)
(1.08649e-19 -1.66098e-19 -0 -2.17298e-19 -0 1.08649e-19)
(1.77236e-19 5.95339e-20 -0 -3.54471e-19 -0 1.77236e-19)
(5.38189e-19 -1.15942e-19 -0 -4.17121e-19 -0 -1.21068e-19)
(4.87976e-19 -2.63855e-19 -0 -3.16848e-19 -0 -1.71128e-19)
(-3.6215e-17 2.19733e-19 -0 6.05557e-17 -0 -2.43407e-17)
(1.59709e-17 -4.56876e-18 -0 -1.53789e-17 -0 -5.92e-19)
(-4.41607e-18 1.57237e-18 -0 4.19637e-18 -0 2.19697e-19)
(1.0942e-19 -3.56496e-19 -0 -2.1884e-19 -0 1.0942e-19)
(8.79217e-20 1.10236e-18 -0 -1.75843e-19 -0 8.79217e-20)
(1.10424e-18 4.72478e-19 -0 -8.84857e-19 -0 -2.19386e-19)
(5.85242e-19 7.60232e-19 -0 -5.08882e-19 -0 -7.63598e-20)
(1.53627e-19 8.73404e-19 -0 -3.07253e-19 -0 1.53627e-19)
(1.78769e-19 6.80891e-20 -0 -3.57539e-19 -0 1.78769e-19)
(1.88086e-18 9.68868e-20 -0 -1.11706e-18 -0 -7.638e-19)
(4.06521e-19 7.5388e-20 -0 -1.52081e-19 -0 -2.5444e-19)
(-6.60757e-19 3.92673e-20 -0 6.6067e-19 -0 8.62219e-23)
(-1.13551e-18 3.37871e-20 -0 9.4973e-19 -0 1.85779e-19)
(-1.57062e-18 4.91023e-20 -0 1.15968e-18 -0 4.10946e-19)
(-1.05396e-18 6.38804e-19 -0 7.87261e-19 -0 2.66698e-19)
(-3.49131e-20 4.61485e-19 -0 6.98262e-20 -0 -3.49131e-20)
(-8.47321e-20 1.02337e-18 -0 1.69464e-19 -0 -8.47321e-20)
(-5.10686e-19 3.16346e-19 -0 3.6148e-19 -0 1.49206e-19)
(4.55203e-19 5.54816e-19 -0 -2.5061e-19 -0 -2.04593e-19)
(3.38149e-20 5.22883e-19 -0 -6.76297e-20 -0 3.38149e-20)
(2.01138e-17 -3.91126e-19 -0 -1.84468e-17 -0 -1.66705e-18)
(-1.56476e-17 -2.8062e-18 -0 9.42021e-18 -0 6.22743e-18)
(3.2696e-18 -4.45356e-19 -0 -1.90092e-18 -0 -1.36869e-18)
(-1.92749e-18 7.68021e-19 -0 1.20496e-18 -0 7.22527e-19)
(-2.76716e-20 -2.75731e-19 -0 5.53432e-20 -0 -2.76716e-20)
(2.21486e-20 2.0528e-19 -0 -4.42973e-20 -0 2.21486e-20)
(-4.1565e-20 -8.43108e-20 -0 8.313e-20 -0 -4.1565e-20)
(-1.39481e-19 -3.32601e-20 -0 2.78963e-19 -0 -1.39481e-19)
(-1.51244e-18 -8.79119e-19 -0 1.03997e-18 -0 4.72468e-19)
(-1.28023e-19 -7.72389e-19 -0 2.56047e-19 -0 -1.28023e-19)
(-1.01408e-18 -1.02295e-18 -0 7.05532e-19 -0 3.0855e-19)
(4.27963e-19 -1.44331e-18 -0 -1.9473e-19 -0 -2.33233e-19)
(-4.72887e-21 -1.63765e-18 -0 9.45774e-21 -0 -4.72887e-21)
(4.90891e-19 -7.64214e-19 -0 -3.20907e-19 -0 -1.69984e-19)
(1.21667e-19 -8.45228e-19 -0 -2.43334e-19 -0 1.21667e-19)
(1.00745e-18 5.09718e-19 -0 -6.93785e-19 -0 -3.13664e-19)
(3.43513e-19 -1.12492e-19 -0 -2.66638e-20 -0 -3.1685e-19)
(-6.31143e-19 5.69688e-19 -0 6.02046e-19 -0 2.90965e-20)
(-9.32023e-19 7.17178e-19 -0 5.4376e-19 -0 3.88263e-19)
(-4.04133e-20 -1.90445e-19 -0 8.08267e-20 -0 -4.04133e-20)
(-1.40306e-17 7.28288e-18 -0 9.57336e-18 -0 4.45728e-18)
(1.54761e-17 -7.20356e-19 -0 -7.74185e-18 -0 -7.73421e-18)
(-2.959e-18 -1.12612e-19 -0 1.27782e-18 -0 1.68117e-18)
(1.41156e-18 -1.37466e-18 -0 -8.34808e-19 -0 -5.76752e-19)
(-1.65436e-20 -1.15873e-18 -0 3.30872e-20 -0 -1.65436e-20)
(-1.98892e-19 -1.1623e-18 -0 3.97784e-19 -0 -1.98892e-19)
(-6.69229e-19 -9.83159e-19 -0 6.76232e-19 -0 -7.00384e-21)
(-1.16969e-18 -8.90511e-19 -0 1.01516e-18 -0 1.54528e-19)
(-6.15537e-19 -2.79891e-19 -0 5.69173e-19 -0 4.63638e-20)
(-9.22284e-20 -3.19098e-19 -0 1.84457e-19 -0 -9.22284e-20)
(-4.711e-19 2.33458e-19 -0 2.80623e-19 -0 1.90478e-19)
(1.30536e-19 5.09326e-19 -0 -2.61073e-19 -0 1.30536e-19)
(6.89601e-19 6.00317e-19 -0 -7.17946e-19 -0 2.83442e-20)
(6.44719e-19 -1.40574e-19 -0 -6.28302e-19 -0 -1.64166e-20)
(7.54928e-20 5.24693e-19 -0 -1.50986e-19 -0 7.54928e-20)
(-2.29828e-20 -5.31989e-19 -0 4.59657e-20 -0 -2.29828e-20)
(-8.28548e-20 -4.8083e-19 -0 1.6571e-19 -0 -8.28548e-20)
(-6.35558e-20 -8.09446e-20 -0 1.27112e-19 -0 -6.35558e-20)
(-2.71952e-21 -6.61163e-19 -0 5.43904e-21 -0 -2.71952e-21)
(-1.67433e-20 5.48351e-20 -0 3.34867e-20 -0 -1.67433e-20)
(2.88523e-17 -1.86422e-17 -0 -2.33583e-17 -0 -5.49391e-18)
(-2.93912e-17 -3.25835e-18 -0 1.63259e-17 -0 1.30653e-17)
(5.75414e-18 -2.56031e-18 -0 -3.55092e-18 -0 -2.20322e-18)
(-1.57428e-18 -3.30861e-19 -0 4.96554e-19 -0 1.07773e-18)
(1.15378e-18 -5.11197e-19 -0 -9.81999e-19 -0 -1.71782e-19)
(9.6215e-20 -4.71543e-19 -0 -1.9243e-19 -0 9.6215e-20)
(3.95235e-20 -2.83403e-19 -0 -7.90471e-20 -0 3.95235e-20)
(9.28297e-20 -4.44554e-19 -0 -1.85659e-19 -0 9.28297e-20)
(6.39539e-19 1.52569e-19 -0 -6.16951e-19 -0 -2.25882e-20)
(6.70858e-19 6.65719e-19 -0 -6.79706e-19 -0 8.84738e-21)
(1.04249e-18 -3.43553e-20 -0 -7.61369e-19 -0 -2.81119e-19)
(1.72794e-20 4.53057e-19 -0 -3.45587e-20 -0 1.72794e-20)
(-2.00986e-20 -9.54442e-20 -0 4.01972e-20 -0 -2.00986e-20)
(-9.17791e-19 -5.04883e-19 -0 5.12863e-19 -0 4.04929e-19)
(-1.35569e-19 -1.16656e-18 -0 2.71138e-19 -0 -1.35569e-19)
(-8.15981e-20 -5.74369e-19 -0 1.63196e-19 -0 -8.15981e-20)
(5.21055e-20 -3.82087e-19 -0 -1.04211e-19 -0 5.21055e-20)
(4.37212e-20 -2.10836e-19 -0 -8.74424e-20 -0 4.37212e-20)
(-4.3966e-19 -3.43456e-19 -0 2.18699e-19 -0 2.20961e-19)
(5.49008e-19 1.10446e-19 -0 -4.37552e-19 -0 -1.11456e-19)
(-3.19929e-17 -2.3683e-20 -0 2.53892e-18 -0 2.9454e-17)
(4.4686e-17 1.15607e-17 -0 -2.10202e-17 -0 -2.36658e-17)
(-7.63409e-18 9.51401e-19 -0 3.3281e-18 -0 4.30599e-18)
(3.6086e-18 1.54588e-18 -0 -1.91138e-18 -0 -1.69721e-18)
(-7.29495e-19 6.44182e-19 -0 1.32979e-19 -0 5.96516e-19)
(1.05629e-18 1.50288e-18 -0 -7.86794e-19 -0 -2.69495e-19)
(9.00167e-20 1.00921e-18 -0 -1.80033e-19 -0 9.00167e-20)
(1.01814e-18 8.58484e-19 -0 -7.11157e-19 -0 -3.06982e-19)
(-9.41327e-19 8.39412e-19 -0 5.57956e-19 -0 3.83371e-19)
(-7.57272e-20 6.87486e-20 -0 1.51454e-19 -0 -7.57272e-20)
(-7.263e-20 8.82978e-19 -0 1.4526e-19 -0 -7.263e-20)
(-1.24698e-19 1.18095e-19 -0 2.49397e-19 -0 -1.24698e-19)
(-1.12544e-18 1.89334e-20 -0 9.27475e-19 -0 1.97964e-19)
(-5.58279e-19 6.9424e-19 -0 4.5498e-19 -0 1.03299e-19)
(7.96534e-20 5.93535e-19 -0 -1.59307e-19 -0 7.96534e-20)
(6.90347e-19 5.08577e-19 -0 -7.19439e-19 -0 2.90919e-20)
(1.10831e-18 3.22424e-19 -0 -8.945e-19 -0 -2.1381e-19)
(-1.15377e-20 -3.96105e-21 -0 2.30753e-20 -0 -1.15377e-20)
(-5.71012e-19 8.92945e-19 -0 4.81186e-19 -0 8.98255e-20)
(4.63035e-19 2.19104e-19 -0 -2.65391e-19 -0 -1.97644e-19)
(7.06294e-18 9.18789e-18 -0 4.00717e-17 -0 -4.71347e-17)
(-3.19752e-17 3.13281e-18 -0 7.52343e-18 -0 2.44518e-17)
(4.54128e-18 -1.00586e-18 -0 -4.56062e-19 -0 -4.08521e-18)
(-2.92986e-18 -4.05712e-19 -0 1.21547e-18 -0 1.71438e-18)
(-2.99343e-19 -1.05133e-23 -0 5.98686e-19 -0 -2.99343e-19)
(-1.49639e-19 -7.06739e-19 -0 2.99279e-19 -0 -1.49639e-19)
(-7.21072e-20 -1.2215e-18 -0 1.44214e-19 -0 -7.21072e-20)
(3.24586e-20 -1.21665e-18 -0 -6.49173e-20 -0 3.24586e-20)
(-1.21107e-20 -8.56746e-19 -0 2.42215e-20 -0 -1.21107e-20)
(-4.92549e-19 -6.37044e-19 -0 3.22634e-19 -0 1.69915e-19)
(5.15819e-19 -9.54211e-19 -0 -3.69382e-19 -0 -1.46437e-19)
(4.11984e-20 4.72625e-20 -0 -8.23968e-20 -0 4.11984e-20)
(2.56938e-20 8.86267e-19 -0 -5.13876e-20 -0 2.56938e-20)
(3.75795e-21 6.64924e-19 -0 -7.51589e-21 -0 3.75795e-21)
(-4.76069e-20 1.25958e-18 -0 9.52138e-20 -0 -4.76069e-20)
(-5.53116e-19 5.27147e-19 -0 4.44748e-19 -0 1.08368e-19)
(-5.13624e-20 3.399e-19 -0 1.02725e-19 -0 -5.13624e-20)
(3.98587e-19 -3.35966e-19 -0 -1.36011e-19 -0 -2.62576e-19)
(-5.92856e-19 -6.43574e-20 -0 5.24646e-19 -0 6.82093e-20)
(-1.05924e-18 -5.12962e-20 -0 7.96659e-19 -0 2.62576e-19)
(7.34678e-18 1.23543e-17 -0 -5.23817e-17 -0 4.5035e-17)
(1.98808e-17 -2.87662e-17 -0 8.49593e-20 -0 -1.99657e-17)
(-3.16829e-18 4.85164e-18 -0 -3.01804e-19 -0 3.47009e-18)
(1.26002e-18 -1.14604e-18 -0 1.34855e-19 -0 -1.39487e-18)
(-1.57798e-18 -2.08282e-19 -0 1.16545e-18 -0 4.12529e-19)
(-1.13639e-19 -8.27033e-19 -0 2.27278e-19 -0 -1.13639e-19)
(5.75801e-20 -2.57984e-19 -0 -1.1516e-19 -0 5.75801e-20)
(7.55159e-20 1.06064e-19 -0 -1.51032e-19 -0 7.55159e-20)
(6.69153e-19 -3.60551e-19 -0 -6.75467e-19 -0 6.31401e-21)
(6.98263e-19 2.70439e-19 -0 -7.33805e-19 -0 3.55421e-20)
(1.23164e-18 8.29193e-20 -0 -1.13825e-18 -0 -9.33843e-20)
(1.14046e-18 -4.71281e-19 -0 -9.56147e-19 -0 -1.84317e-19)
(1.4637e-18 7.51093e-20 -0 -9.40849e-19 -0 -5.22853e-19)
(2.23455e-20 -1.88338e-19 -0 -4.4691e-20 -0 2.23455e-20)
(-1.32853e-19 -8.86763e-19 -0 2.65705e-19 -0 -1.32853e-19)
(-1.64469e-18 -1.47118e-19 -0 1.30416e-18 -0 3.40523e-19)
(-6.29805e-19 -1.12998e-19 -0 5.98071e-19 -0 3.17342e-20)
(1.06876e-20 -1.8339e-19 -0 -2.13752e-20 -0 1.06876e-20)
(-1.46563e-21 -5.55787e-19 -0 2.93126e-21 -0 -1.46563e-21)
(3.74955e-19 -2.7613e-19 -0 -8.8754e-20 -0 -2.86201e-19)
(1.47295e-17 -3.15325e-17 -0 2.29191e-18 -0 -1.70214e-17)
(-2.20055e-17 5.21857e-17 -0 9.46201e-18 -0 1.25435e-17)
(3.48505e-18 -8.27466e-18 -0 -9.92931e-19 -0 -2.49212e-18)
(-2.27111e-18 3.18518e-18 -0 1.22215e-18 -0 1.04896e-18)
(9.11403e-19 7.33194e-19 -0 -4.95218e-19 -0 -4.16185e-19)
(9.68707e-20 1.48439e-18 -0 -1.93741e-19 -0 9.68707e-20)
(5.43944e-19 2.14269e-18 -0 -4.2443e-19 -0 -1.19515e-19)
(-1.63984e-19 1.18096e-18 -0 3.27967e-19 -0 -1.63984e-19)
(-1.85012e-19 8.60308e-19 -0 3.70024e-19 -0 -1.85012e-19)
(-8.5323e-20 1.16961e-18 -0 1.70646e-19 -0 -8.5323e-20)
(-4.94503e-19 3.6917e-19 -0 3.26208e-19 -0 1.68295e-19)
(2.57437e-20 3.60713e-19 -0 -5.14873e-20 -0 2.57437e-20)
(-9.40688e-19 -7.48e-19 -0 5.56434e-19 -0 3.84254e-19)
(-9.31319e-19 8.0418e-20 -0 5.37946e-19 -0 3.93373e-19)
(5.11971e-19 -5.4127e-19 -0 -3.61797e-19 -0 -1.50174e-19)
(4.1385e-19 -7.12418e-19 -0 -1.65681e-19 -0 -2.48169e-19)
(-2.01093e-19 5.04072e-19 -0 4.02185e-19 -0 -2.01093e-19)
(-1.53529e-19 4.44235e-20 -0 3.07059e-19 -0 -1.53529e-19)
(4.9508e-20 5.04158e-20 -0 -9.90161e-20 -0 4.9508e-20)
(9.59519e-20 -1.52301e-19 -0 -1.91904e-19 -0 9.59519e-20)
(-5.19379e-17 2.51245e-17 -0 8.93163e-17 -0 -3.73785e-17)
(2.15734e-17 -4.00736e-17 -0 -2.38696e-17 -0 2.29618e-18)
(-4.07496e-18 6.48369e-18 -0 4.82763e-18 -0 -7.52665e-19)
(9.76217e-19 -2.60084e-18 -0 -1.28809e-18 -0 3.11874e-19)
(4.76793e-20 -4.40484e-19 -0 -9.53586e-20 -0 4.76793e-20)
(9.85615e-20 -2.76851e-19 -0 -1.97123e-19 -0 9.85615e-20)
(1.13302e-19 -8.62431e-19 -0 -2.26604e-19 -0 1.13302e-19)
(-4.50608e-19 -1.27255e-19 -0 2.3755e-19 -0 2.13058e-19)
(-4.41762e-20 -8.10555e-19 -0 8.83523e-20 -0 -4.41762e-20)
(-8.70014e-20 -5.91226e-19 -0 1.74003e-19 -0 -8.70014e-20)
(-1.17018e-18 -8.36518e-20 -0 1.01412e-18 -0 1.5606e-19)
(-1.64744e-19 -1.33036e-19 -0 3.29488e-19 -0 -1.64744e-19)
(9.03946e-19 -1.4526e-19 -0 -4.82313e-19 -0 -4.21633e-19)
(4.10191e-19 -7.11852e-19 -0 -1.57716e-19 -0 -2.52475e-19)
(-7.50721e-20 7.50979e-20 -0 1.50144e-19 -0 -7.50721e-20)
(-5.42777e-19 2.60464e-19 -0 4.23218e-19 -0 1.19559e-19)
(-1.08073e-18 -9.17109e-19 -0 8.37182e-19 -0 2.43546e-19)
(-5.52411e-19 1.02421e-19 -0 4.42813e-19 -0 1.09598e-19)
(5.13519e-19 -2.68778e-19 -0 -3.65127e-19 -0 -1.48392e-19)
(4.17588e-20 2.72772e-19 -0 -8.35176e-20 -0 4.17588e-20)
(7.0457e-17 1.97778e-17 -0 -1.27009e-16 -0 5.65522e-17)
(-2.66305e-17 -1.02936e-17 -0 3.19781e-17 -0 -5.34759e-18)
(6.95034e-18 2.67115e-18 -0 -7.91733e-18 -0 9.66997e-19)
(-4.54331e-19 -6.71318e-19 -0 9.08663e-19 -0 -4.54331e-19)
(2.05849e-19 5.71913e-20 -0 -4.11698e-19 -0 2.05849e-19)
(-4.11311e-20 -2.73538e-19 -0 8.22621e-20 -0 -4.11311e-20)
(-7.14303e-20 -6.83607e-19 -0 1.42861e-19 -0 -7.14303e-20)
(1.03568e-18 -9.0557e-19 -0 -7.43325e-19 -0 -2.92356e-19)
(9.73981e-19 -1.61729e-20 -0 -6.2036e-19 -0 -3.53621e-19)
(-1.63893e-19 -4.57142e-19 -0 3.27787e-19 -0 -1.63893e-19)
(-1.5999e-18 -1.77162e-19 -0 1.20941e-18 -0 3.90499e-19)
(-5.75952e-19 -4.30135e-19 -0 4.88559e-19 -0 8.73928e-20)
(8.01429e-20 -2.85371e-19 -0 -1.60286e-19 -0 8.01429e-20)
(4.68488e-20 -4.39461e-19 -0 -9.36976e-20 -0 4.68488e-20)
(-4.56956e-19 -7.68668e-19 -0 2.51105e-19 -0 2.05851e-19)
(4.87176e-19 -5.28713e-19 -0 -3.11672e-19 -0 -1.75504e-19)
(9.75766e-20 -4.74284e-19 -0 -1.95153e-19 -0 9.75766e-20)
(1.09937e-18 -3.60887e-19 -0 -8.74033e-19 -0 -2.25336e-19)
(1.41726e-19 -1.78889e-19 -0 -2.83453e-19 -0 1.41726e-19)
(1.50745e-20 1.86152e-20 -0 -3.0149e-20 -0 1.50745e-20)
(6.42442e-18 -6.1669e-17 -0 -5.56164e-18 -0 -8.62784e-19)
(-5.18668e-18 5.36664e-17 -0 4.38432e-18 -0 8.0236e-19)
(1.50832e-18 -1.01621e-17 -0 -1.02113e-18 -0 -4.87191e-19)
(-1.54548e-18 2.52867e-18 -0 1.09579e-18 -0 4.49686e-19)
(4.52395e-19 -3.96014e-19 -0 -2.39962e-19 -0 -2.12433e-19)
(-1.34223e-19 1.38976e-19 -0 2.68445e-19 -0 -1.34223e-19)
(-1.60667e-18 -1.53966e-19 -0 1.21988e-18 -0 3.86791e-19)
(-1.57424e-19 2.96312e-19 -0 3.14849e-19 -0 -1.57424e-19)
(-6.3943e-19 -7.79097e-21 -0 6.14709e-19 -0 2.47209e-20)
(-6.42843e-19 -3.80648e-19 -0 6.21658e-19 -0 2.11858e-20)
(-6.24833e-21 2.03003e-19 -0 1.24967e-20 -0 -6.24833e-21)
(1.11483e-20 6.09745e-22 -0 -2.22966e-20 -0 1.11483e-20)
(-1.54969e-21 2.47123e-19 -0 3.09938e-21 -0 -1.54969e-21)
(-4.49653e-19 7.57018e-19 -0 2.35949e-19 -0 2.13704e-19)
(4.86332e-19 1.07206e-18 -0 -3.09511e-19 -0 -1.76821e-19)
(5.29949e-19 7.5464e-19 -0 -3.96873e-19 -0 -1.33076e-19)
(1.52446e-19 4.82518e-19 -0 -3.04891e-19 -0 1.52446e-19)
(5.67188e-19 3.67554e-19 -0 -4.71682e-19 -0 -9.5506e-20)
(-4.78129e-19 6.95376e-19 -0 2.93664e-19 -0 1.84465e-19)
(4.51635e-19 1.77108e-19 -0 -2.40839e-19 -0 -2.10796e-19)
(-9.8242e-17 -1.3157e-18 -0 1.77927e-16 -0 -7.96848e-17)
(3.35475e-17 -5.87922e-18 -0 -4.3796e-17 -0 1.02485e-17)
(-8.12167e-18 -2.78661e-18 -0 1.02546e-17 -0 -2.13291e-18)
(1.30741e-18 -1.08399e-18 -0 -1.94952e-18 -0 6.4211e-19)
(-5.83741e-19 -1.39455e-18 -0 5.02396e-19 -0 8.13448e-20)
(5.64617e-19 -1.5056e-18 -0 -4.64263e-19 -0 -1.00354e-19)
(1.35171e-18 -9.81695e-19 -0 -7.09146e-19 -0 -6.42559e-19)
(-1.01479e-18 -6.95523e-19 -0 7.00298e-19 -0 3.14488e-19)
(-4.58153e-19 -2.84142e-19 -0 2.5188e-19 -0 2.06273e-19)
(6.43258e-19 -7.89502e-20 -0 -6.22212e-19 -0 -2.10461e-20)
(1.13274e-18 -8.26378e-19 -0 -9.37284e-19 -0 -1.95455e-19)
(9.28068e-20 2.26381e-19 -0 -1.85614e-19 -0 9.28068e-20)
(-9.08295e-19 -2.57788e-19 -0 4.89053e-19 -0 4.19242e-19)
(8.51074e-19 -1.76777e-19 -0 -3.74869e-19 -0 -4.76206e-19)
(-6.11138e-20 8.26532e-20 -0 1.22228e-19 -0 -6.11138e-20)
(-9.05489e-19 -3.60035e-19 -0 4.8436e-19 -0 4.21129e-19)
(9.7718e-19 4.63642e-19 -0 -6.28137e-19 -0 -3.49043e-19)
(-7.96245e-20 -7.78745e-20 -0 1.59249e-19 -0 -7.96245e-20)
(-1.0757e-18 -6.6883e-19 -0 8.25643e-19 -0 2.50059e-19)
(-4.5415e-20 -3.52307e-19 -0 9.083e-20 -0 -4.5415e-20)
(5.18387e-17 7.66732e-17 -0 -1.10306e-16 -0 5.84675e-17)
(-1.06599e-17 -7.68239e-17 -0 2.19827e-17 -0 -1.13228e-17)
(3.12767e-18 1.81418e-17 -0 -5.59246e-18 -0 2.46479e-18)
(2.58902e-20 -2.77702e-18 -0 6.11104e-19 -0 -6.36994e-19)
(5.56293e-19 2.04063e-18 -0 -4.49702e-19 -0 -1.06591e-19)
(1.77669e-20 8.89892e-19 -0 -3.55337e-20 -0 1.77669e-20)
(-2.92955e-19 1.21451e-18 -0 -7.69751e-20 -0 3.6993e-19)
(1.05867e-18 6.83042e-19 -0 -7.91562e-19 -0 -2.67103e-19)
(1.02572e-18 4.94213e-19 -0 -7.25664e-19 -0 -3.00053e-19)
(9.4345e-20 5.52789e-19 -0 -1.8869e-19 -0 9.4345e-20)
(1.59529e-20 6.95119e-19 -0 -3.19057e-20 -0 1.59529e-20)
(4.49768e-19 7.42634e-20 -0 -2.36652e-19 -0 -2.13116e-19)
(-4.82592e-21 7.67935e-19 -0 9.65184e-21 -0 -4.82592e-21)
(-3.14712e-19 4.81772e-19 -0 -3.346e-20 -0 3.48172e-19)
(6.40561e-19 5.82853e-20 -0 -6.18239e-19 -0 -2.23228e-20)
(1.10497e-18 1.91946e-19 -0 -8.8417e-19 -0 -2.20799e-19)
(8.67328e-20 -7.55381e-19 -0 -1.73466e-19 -0 8.67328e-20)
(-4.15398e-19 -5.30816e-19 -0 1.67913e-19 -0 2.47486e-19)
(1.22869e-19 -1.8483e-20 -0 -2.45738e-19 -0 1.22869e-19)
(4.52159e-19 1.52738e-19 -0 -2.41433e-19 -0 -2.10725e-19)
)
;

boundaryField
{
    movingWall
    {
        type            calculated;
        value           nonuniform List<symmTensor> 
20
(
(1.68804e-16 5.8597e-17 -0 -3.43028e-16 -0 1.74225e-16)
(-3.59296e-17 -5.79179e-17 -0 7.24014e-17 -0 -3.64717e-17)
(8.8575e-18 1.8712e-17 -0 -1.71729e-17 -0 8.3154e-18)
(-1.42599e-18 2.44475e-20 -0 3.39409e-18 -0 -1.96809e-18)
(6.33027e-19 4.13732e-18 -0 -7.23953e-19 -0 9.09257e-20)
(-2.28435e-19 3.02322e-18 -0 4.5687e-19 -0 -2.28435e-19)
(-3.17523e-19 3.73278e-18 -0 9.29455e-20 -0 2.24578e-19)
(9.74541e-19 3.12511e-18 -0 -8.6488e-19 -0 -1.09661e-19)
(8.10639e-19 2.08251e-18 -0 -5.37076e-19 -0 -2.73563e-19)
(-1.16094e-19 1.68632e-18 -0 2.32188e-19 -0 -1.16094e-19)
(-1.52255e-19 2.24681e-18 -0 3.04509e-19 -0 -1.52255e-19)
(3.15603e-19 1.393e-18 -0 -8.91056e-20 -0 -2.26498e-19)
(9.69735e-21 1.41818e-18 -0 -1.93947e-20 -0 9.69735e-21)
(-1.78105e-19 1.45521e-18 -0 -1.85891e-19 -0 3.63996e-19)
(6.98934e-19 1.82402e-18 -0 -8.55767e-19 -0 1.56833e-19)
(1.0332e-18 7.74099e-19 -0 -9.82206e-19 -0 -5.0998e-20)
(3.33228e-20 -9.63822e-19 -0 -6.66456e-20 -0 3.33228e-20)
(-2.52714e-19 5.52093e-19 -0 -3.6673e-20 -0 2.89387e-19)
(3.21334e-19 4.28974e-19 -0 -6.42667e-19 -0 3.21334e-19)
(4.2978e-19 2.97947e-19 -0 -3.17459e-19 -0 -1.12321e-19)
)
;
    }
    fixedWalls
    {
        type            calculated;
        value           nonuniform List<symmTensor> 
60
(
(1.33043e-16 -3.42815e-16 -0 -1.98585e-16 -0 6.55416e-17)
(-2.32996e-16 -1.93298e-16 -0 3.26548e-16 -0 -9.35522e-17)
(7.10585e-17 5.23407e-16 -0 -6.751e-17 -0 -3.5485e-18)
(7.85409e-17 -3.23119e-16 -0 -1.5797e-16 -0 7.9429e-17)
(-3.33128e-17 1.31017e-17 -0 1.34127e-16 -0 -1.00814e-16)
(-7.13641e-17 1.5327e-16 -0 -3.82122e-18 -0 7.51853e-17)
(9.58778e-17 -1.14554e-16 -0 -7.98451e-17 -0 -1.60327e-17)
(-5.75978e-17 1.64291e-17 -0 6.36813e-17 -0 -6.08349e-18)
(6.02531e-17 9.52601e-18 -0 -3.70174e-17 -0 -2.32357e-17)
(-5.46908e-17 2.49758e-19 -0 2.94456e-17 -0 2.52452e-17)
(1.03179e-16 8.50557e-19 -0 -5.89206e-17 -0 -4.42585e-17)
(-1.56064e-16 -2.90743e-17 -0 6.69904e-17 -0 8.90734e-17)
(1.15898e-16 -1.05184e-17 -0 -2.21862e-17 -0 -9.37119e-17)
(-7.10763e-17 9.52747e-17 -0 -4.39683e-18 -0 7.54731e-17)
(7.64365e-17 -1.71885e-16 -0 -3.03043e-17 -0 -4.61322e-17)
(-7.72263e-17 1.30725e-16 -0 9.05038e-17 -0 -1.32775e-17)
(9.50963e-17 3.6491e-17 -0 -1.22691e-16 -0 2.75947e-17)
(2.02295e-17 -1.80959e-16 -0 -1.20373e-17 -0 -8.19221e-18)
(-1.21752e-16 1.19957e-17 -0 1.66232e-16 -0 -4.44804e-17)
(3.59412e-17 2.70282e-16 -0 -8.69814e-17 -0 5.10402e-17)
(3.22306e-21 1.80517e-19 -0 -6.44612e-21 -0 3.22306e-21)
(-1.33525e-19 -1.61179e-19 -0 2.67049e-19 -0 -1.33525e-19)
(-5.76357e-20 -6.2063e-19 -0 1.15271e-19 -0 -5.76357e-20)
(6.32113e-20 -5.06993e-19 -0 -1.26423e-19 -0 6.32113e-20)
(6.36208e-20 -2.41363e-19 -0 -1.27242e-19 -0 6.36208e-20)
(2.79401e-20 -1.25269e-19 -0 -5.58801e-20 -0 2.79401e-20)
(6.3207e-19 -3.44773e-19 -0 -3.75961e-19 -0 -2.56109e-19)
(2.77895e-20 3.85486e-19 -0 -5.55789e-20 -0 2.77895e-20)
(5.58924e-19 -1.78036e-19 -0 -2.2967e-19 -0 -3.29254e-19)
(-1.37473e-20 -8.47327e-20 -0 2.74947e-20 -0 -1.37473e-20)
(1.27346e-18 1.05303e-20 -0 -7.70557e-19 -0 -5.029e-19)
(6.10648e-19 4.5058e-19 -0 -3.33118e-19 -0 -2.7753e-19)
(-1.46025e-19 1.21705e-19 -0 2.92051e-19 -0 -1.46025e-19)
(5.38155e-19 -4.25572e-19 -0 -1.88131e-19 -0 -3.50024e-19)
(1.26288e-18 -2.0208e-19 -0 -7.494e-19 -0 -5.13478e-19)
(3.42086e-20 3.17322e-19 -0 -6.84172e-20 -0 3.42086e-20)
(1.23426e-20 3.1715e-21 -0 -2.46852e-20 -0 1.23426e-20)
(6.00314e-19 1.20327e-19 -0 -3.1245e-19 -0 -2.87864e-19)
(-3.71494e-20 -2.18707e-19 -0 7.42987e-20 -0 -3.71494e-20)
(6.0049e-19 1.68481e-19 -0 -3.12801e-19 -0 -2.87689e-19)
(2.29808e-16 -3.29049e-17 -0 -4.48774e-16 -0 2.18966e-16)
(-5.67577e-17 6.74454e-17 -0 9.56261e-17 -0 -3.88684e-17)
(1.43653e-17 -1.82463e-17 -0 -2.33095e-17 -0 8.94425e-18)
(-1.73443e-18 2.5603e-18 -0 4.01097e-18 -0 -2.27654e-18)
(9.67015e-21 -2.07651e-18 -0 -5.61441e-19 -0 5.51771e-19)
(-1.11181e-19 -1.69849e-18 -0 2.22363e-19 -0 -1.11181e-19)
(1.63414e-19 -1.8961e-18 -0 -3.26828e-19 -0 1.63414e-19)
(2.0814e-19 -1.78735e-18 -0 -4.16279e-19 -0 2.0814e-19)
(5.54139e-19 -1.31335e-18 -0 -5.66177e-19 -0 1.2038e-20)
(5.191e-19 -4.56924e-19 -0 -4.96099e-19 -0 -2.30011e-20)
(2.26965e-19 -9.46555e-19 -0 -4.53929e-19 -0 2.26965e-19)
(6.74771e-19 7.37787e-20 -0 -8.07441e-19 -0 1.3267e-19)
(3.02216e-20 1.86697e-19 -0 -6.04433e-20 -0 3.02216e-20)
(-5.45889e-19 6.49841e-20 -0 5.49677e-19 -0 -3.78817e-21)
(-5.0447e-19 -9.69187e-19 -0 4.66839e-19 -0 3.76311e-20)
(3.15347e-20 -1.45487e-18 -0 -6.30695e-20 -0 3.15347e-20)
(5.45278e-19 -4.95062e-19 -0 -5.48455e-19 -0 3.17694e-21)
(-1.93937e-19 -9.4018e-19 -0 -1.54226e-19 -0 3.48164e-19)
(1.04535e-18 -4.2642e-19 -0 -1.0065e-18 -0 -3.88534e-20)
(1.20345e-19 1.66085e-19 -0 -2.4069e-19 -0 1.20345e-19)
)
;
    }
    frontAndBack
    {
        type            empty;
    }
}


// ************************************************************************* //
