/*--------------------------------*- C++ -*----------------------------------*\
| =========                 |                                                 |
| \\      /  F ield         | OpenFOAM: The Open Source CFD Toolbox           |
|  \\    /   O peration     | Version:  2312                                  |
|   \\  /    A nd           | Website:  www.openfoam.com                      |
|    \\/     M anipulation  |                                                 |
\*---------------------------------------------------------------------------*/
FoamFile
{
    version     2.0;
    format      ascii;
    arch        "LSB;label=32;scalar=64";
    class       volVectorField;
    location    "5.5";
    object      UMean;
}
// * * * * * * * * * * * * * * * * * * * * * * * * * * * * * * * * * * * * * //

dimensions      [0 1 -1 0 0 0 0];

internalField   nonuniform List<vector> 
400
(
(-0.545539 6.81031e-05 0)
(-0.546093 0.00030763 0)
(-0.547123 0.000462752 0)
(-0.548312 0.000540702 0)
(-0.549624 0.000612594 0)
(-0.551091 0.000707613 0)
(-0.552759 0.000832208 0)
(-0.554639 0.000965868 0)
(-0.55665 0.00103739 0)
(-0.558592 0.000973408 0)
(-0.560167 0.000736209 0)
(-0.561067 0.000338944 0)
(-0.561052 -0.000202124 0)
(-0.559922 -0.000778104 0)
(-0.5577 -0.00131131 0)
(-0.554641 -0.0016619 0)
(-0.551202 -0.00167108 0)
(-0.547924 -0.00121997 0)
(-0.545746 -0.000490712 0)
(-0.545224 0.000119803 0)
(-0.545834 0.000669138 0)
(-0.546941 0.00143835 0)
(-0.548456 0.00185839 0)
(-0.55015 0.00207652 0)
(-0.551976 0.00228909 0)
(-0.553967 0.00255859 0)
(-0.55615 0.00284497 0)
(-0.558474 0.0030445 0)
(-0.560813 0.0030224 0)
(-0.562975 0.00265742 0)
(-0.564716 0.00188796 0)
(-0.565773 0.000724228 0)
(-0.565892 -0.000760716 0)
(-0.564891 -0.00240684 0)
(-0.562666 -0.00395735 0)
(-0.559325 -0.00504652 0)
(-0.555209 -0.00527486 0)
(-0.550867 -0.00428505 0)
(-0.547093 -0.00222973 0)
(-0.545451 -0.000127489 0)
(-0.546116 0.00185635 0)
(-0.547541 0.00298141 0)
(-0.549236 0.00359175 0)
(-0.551133 0.00397241 0)
(-0.553191 0.00435522 0)
(-0.555431 0.00480432 0)
(-0.557868 0.0052404 0)
(-0.560465 0.00550331 0)
(-0.563107 0.00539986 0)
(-0.565619 0.00476083 0)
(-0.567759 0.00348156 0)
(-0.569249 0.00153738 0)
(-0.569817 -0.000977197 0)
(-0.569269 -0.00385207 0)
(-0.567469 -0.00672634 0)
(-0.56431 -0.00904431 0)
(-0.559863 -0.010073 0)
(-0.554506 -0.00903329 0)
(-0.549079 -0.00563162 0)
(-0.54572 -0.00131562 0)
(-0.546278 0.00332216 0)
(-0.547894 0.00468601 0)
(-0.549677 0.0054361 0)
(-0.551643 0.00598563 0)
(-0.553779 0.00656089 0)
(-0.556128 0.00721576 0)
(-0.558722 0.00784606 0)
(-0.56153 0.00823511 0)
(-0.564444 0.00811648 0)
(-0.567267 0.00724836 0)
(-0.569743 0.00547659 0)
(-0.571589 0.00277486 0)
(-0.57256 -0.000748764 0)
(-0.572469 -0.00483439 0)
(-0.571207 -0.00907705 0)
(-0.568616 -0.0128948 0)
(-0.564475 -0.0153718 0)
(-0.558708 -0.0152132 0)
(-0.551918 -0.0111302 0)
(-0.54638 -0.00360146 0)
(-0.546335 0.00493606 0)
(-0.548021 0.00648717 0)
(-0.549806 0.00733023 0)
(-0.551746 0.00802705 0)
(-0.55386 0.00880342 0)
(-0.556205 0.00970176 0)
(-0.558827 0.010578 0)
(-0.561703 0.0111455 0)
(-0.56471 0.0110491 0)
(-0.567622 0.0099681 0)
(-0.570166 0.0077212 0)
(-0.5721 0.00431629 0)
(-0.573247 -9.16736e-05 0)
(-0.573493 -0.00520222 0)
(-0.572724 -0.0106265 0)
(-0.570873 -0.0158805 0)
(-0.567588 -0.0201412 0)
(-0.562302 -0.0218424 0)
(-0.554977 -0.0184675 0)
(-0.547742 -0.0080998 0)
(-0.546305 0.0065683 0)
(-0.547956 0.00827785 0)
(-0.549663 0.00918503 0)
(-0.551494 0.0100132 0)
(-0.553483 0.0109912 0)
(-0.555692 0.0121456 0)
(-0.558174 0.0132842 0)
(-0.56091 0.0140399 0)
(-0.563773 0.0139586 0)
(-0.566554 0.0126585 0)
(-0.569033 0.0099645 0)
(-0.571025 0.00592516 0)
(-0.572344 0.000755117 0)
(-0.572822 -0.00524043 0)
(-0.572382 -0.0116328 0)
(-0.571044 -0.0180031 0)
(-0.568627 -0.0238331 0)
(-0.564379 -0.0278455 0)
(-0.557406 -0.0267035 0)
(-0.549193 -0.0148996 0)
(-0.546213 0.00811076 0)
(-0.54774 0.00996615 0)
(-0.549297 0.0109167 0)
(-0.550941 0.0118462 0)
(-0.552702 0.0129939 0)
(-0.554632 0.0143767 0)
(-0.556789 0.0157512 0)
(-0.559166 0.0166795 0)
(-0.561681 0.0166352 0)
(-0.564201 0.0152011 0)
(-0.566596 0.0121985 0)
(-0.568694 0.00766145 0)
(-0.570249 0.00178651 0)
(-0.571001 -0.00506896 0)
(-0.570849 -0.0123901 0)
(-0.569846 -0.0196633 0)
(-0.568015 -0.0266268 0)
(-0.564827 -0.0326895 0)
(-0.558767 -0.0346904 0)
(-0.550304 -0.0235761 0)
(-0.546084 0.00947398 0)
(-0.547416 0.0114767 0)
(-0.548766 0.0124485 0)
(-0.550155 0.013433 0)
(-0.551598 0.0146856 0)
(-0.553128 0.0162233 0)
(-0.554785 0.0177719 0)
(-0.556608 0.018874 0)
(-0.558592 0.0189447 0)
(-0.560709 0.0175226 0)
(-0.562916 0.0144115 0)
(-0.565065 0.00956267 0)
(-0.566849 0.00309088 0)
(-0.567968 -0.00460206 0)
(-0.56823 -0.0128548 0)
(-0.567662 -0.0209818 0)
(-0.566343 -0.0288349 0)
(-0.564056 -0.0364409 0)
(-0.559112 -0.0417809 0)
(-0.550941 -0.0333126 0)
(-0.545933 0.0105971 0)
(-0.547024 0.0127506 0)
(-0.548126 0.0137221 0)
(-0.549218 0.0147053 0)
(-0.550286 0.0159766 0)
(-0.551328 0.0175626 0)
(-0.552377 0.0191921 0)
(-0.553499 0.0204307 0)
(-0.554766 0.0206885 0)
(-0.556251 0.0194868 0)
(-0.558036 0.0165248 0)
(-0.560034 0.0115967 0)
(-0.561986 0.0047233 0)
(-0.563511 -0.00369044 0)
(-0.564345 -0.0127676 0)
(-0.564464 -0.0217325 0)
(-0.563861 -0.0304123 0)
(-0.562476 -0.0392529 0)
(-0.558744 -0.0477964 0)
(-0.551228 -0.0433069 0)
(-0.545778 0.0114477 0)
(-0.546605 0.0137548 0)
(-0.547439 0.0147056 0)
(-0.54822 0.0156263 0)
(-0.548897 0.016816 0)
(-0.549432 0.0183228 0)
(-0.549838 0.0199254 0)
(-0.550186 0.0212259 0)
(-0.550598 0.0216874 0)
(-0.551226 0.0208022 0)
(-0.552235 0.0182097 0)
(-0.553719 0.0135873 0)
(-0.55559 0.00673236 0)
(-0.557472 -0.00204265 0)
(-0.559091 -0.0117782 0)
(-0.560202 -0.0215693 0)
(-0.560599 -0.0310747 0)
(-0.56029 -0.0410746 0)
(-0.557882 -0.0525892 0)
(-0.551401 -0.0530697 0)
(-0.545634 0.0120224 0)
(-0.546204 0.0144817 0)
(-0.546775 0.015392 0)
(-0.547256 0.0161947 0)
(-0.547565 0.0172123 0)
(-0.547635 0.0185169 0)
(-0.547453 0.0199522 0)
(-0.547064 0.0211797 0)
(-0.546603 0.021752 0)
(-0.546256 0.0211967 0)
(-0.546269 0.0191238 0)
(-0.546836 0.0151396 0)
(-0.548184 0.00882273 0)
(-0.550286 0.000242815 0)
(-0.552755 -0.00975423 0)
(-0.555019 -0.0201648 0)
(-0.556638 -0.0305196 0)
(-0.557604 -0.0416528 0)
(-0.556666 -0.0560556 0)
(-0.551588 -0.0623625 0)
(-0.545522 0.0123467 0)
(-0.545866 0.014951 0)
(-0.546198 0.0158016 0)
(-0.54641 0.0164417 0)
(-0.546401 0.0172177 0)
(-0.54609 0.0182217 0)
(-0.545441 0.0193574 0)
(-0.544474 0.0203605 0)
(-0.543299 0.0208745 0)
(-0.542102 0.0205115 0)
(-0.541135 0.0189115 0)
(-0.540689 0.0157003 0)
(-0.541168 0.0104838 0)
(-0.542954 0.00294449 0)
(-0.545943 -0.00666752 0)
(-0.549305 -0.0173663 0)
(-0.552209 -0.0285525 0)
(-0.554536 -0.0407986 0)
(-0.555215 -0.058074 0)
(-0.551832 -0.0711124 0)
(-0.545462 0.012481 0)
(-0.545636 0.0152024 0)
(-0.545768 0.0159711 0)
(-0.545749 0.0164143 0)
(-0.545477 0.016907 0)
(-0.544875 0.0175585 0)
(-0.543899 0.0183188 0)
(-0.542557 0.018995 0)
(-0.540935 0.0193158 0)
(-0.539196 0.0189779 0)
(-0.537576 0.0176918 0)
(-0.536388 0.0151826 0)
(-0.536038 0.0111229 0)
(-0.537098 0.00515601 0)
(-0.539842 -0.00314497 0)
(-0.543713 -0.013554 0)
(-0.547683 -0.0251877 0)
(-0.551272 -0.0384251 0)
(-0.553657 -0.0585328 0)
(-0.55216 -0.0793015 0)
(-0.545474 0.0125426 0)
(-0.545557 0.0153059 0)
(-0.545536 0.0159462 0)
(-0.545321 0.0161585 0)
(-0.544823 0.0163471 0)
(-0.543994 0.0166381 0)
(-0.5428 0.017013 0)
(-0.541251 0.0173424 0)
(-0.539418 0.0174258 0)
(-0.537439 0.0170348 0)
(-0.535525 0.0159551 0)
(-0.533958 0.0140072 0)
(-0.533068 0.0109829 0)
(-0.53332 0.00649075 0)
(-0.53529 -5.14929e-05 0)
(-0.538901 -0.00929013 0)
(-0.543407 -0.0206838 0)
(-0.548 -0.0346049 0)
(-0.552035 -0.0571913 0)
(-0.552563 -0.0866692 0)
(-0.545589 0.0125401 0)
(-0.545701 0.0152893 0)
(-0.545561 0.0157405 0)
(-0.545159 0.0156856 0)
(-0.544449 0.0155654 0)
(-0.543415 0.0155165 0)
(-0.542052 0.0155428 0)
(-0.540382 0.0155609 0)
(-0.538466 0.0154305 0)
(-0.536422 0.0149864 0)
(-0.534426 0.0140752 0)
(-0.532695 0.012569 0)
(-0.531485 0.0103223 0)
(-0.531124 0.00704412 0)
(-0.532149 0.00213868 0)
(-0.534979 -0.00524368 0)
(-0.539426 -0.0155392 0)
(-0.544691 -0.0296374 0)
(-0.549983 -0.0536976 0)
(-0.552871 -0.0928648 0)
(-0.545864 0.0131575 0)
(-0.54608 0.0154273 0)
(-0.545856 0.0154549 0)
(-0.545266 0.0150345 0)
(-0.544327 0.0145849 0)
(-0.543076 0.0142214 0)
(-0.541538 0.0139525 0)
(-0.539752 0.0137188 0)
(-0.537777 0.0134221 0)
(-0.535707 0.0129464 0)
(-0.533681 0.0121782 0)
(-0.531864 0.0110156 0)
(-0.530453 0.00935114 0)
(-0.52968 0.0069912 0)
(-0.529945 0.00345524 0)
(-0.531764 -0.00207762 0)
(-0.535822 -0.0105347 0)
(-0.540784 -0.02421 0)
(-0.546656 -0.0481949 0)
(-0.552734 -0.0984579 0)
(-0.546479 0.0123187 0)
(-0.547129 0.0144637 0)
(-0.546618 0.0143868 0)
(-0.545658 0.0138423 0)
(-0.544381 0.0132251 0)
(-0.542841 0.0126608 0)
(-0.541063 0.0121939 0)
(-0.539096 0.0117945 0)
(-0.536995 0.0113949 0)
(-0.534835 0.0109129 0)
(-0.532719 0.0102644 0)
(-0.530768 0.00936956 0)
(-0.529151 0.00815807 0)
(-0.528057 0.0064903 0)
(-0.527804 0.00405609 0)
(-0.528678 7.85912e-05 0)
(-0.532199 -0.00622081 0)
(-0.535172 -0.0192408 0)
(-0.542171 -0.0418263 0)
(-0.55173 -0.105073 0)
(-0.547325 0.0199078 0)
(-0.548009 0.0191577 0)
(-0.546965 0.0166355 0)
(-0.545529 0.0144166 0)
(-0.54383 0.0128335 0)
(-0.541848 0.011663 0)
(-0.539631 0.0107866 0)
(-0.537267 0.0101076 0)
(-0.534821 0.00952975 0)
(-0.532356 0.00897445 0)
(-0.529952 0.00837968 0)
(-0.527724 0.00769722 0)
(-0.525806 0.00686893 0)
(-0.524326 0.00579888 0)
(-0.523615 0.0043176 0)
(-0.52356 0.00167916 0)
(-0.526693 -0.00287644 0)
(-0.525246 -0.0144785 0)
(-0.539087 -0.033188 0)
(-0.547132 -0.110332 0)
(-0.548498 0.00743794 0)
(-0.549682 0.00458052 0)
(-0.546014 0.00474233 0)
(-0.541935 0.00598596 0)
(-0.537727 0.00628427 0)
(-0.533631 0.00606724 0)
(-0.529755 0.00580087 0)
(-0.526093 0.00558504 0)
(-0.522615 0.00538284 0)
(-0.5193 0.00515973 0)
(-0.516157 0.00490167 0)
(-0.513224 0.00459539 0)
(-0.510573 0.00422376 0)
(-0.508214 0.00371255 0)
(-0.506551 0.0030135 0)
(-0.504838 0.00155837 0)
(-0.507809 -0.000473856 0)
(-0.502053 -0.00764978 0)
(-0.534808 -0.0172438 0)
(-0.519206 -0.0963842 0)
(-0.527311 0.0417857 0)
(-0.517825 0.0305645 0)
(-0.506758 0.0187353 0)
(-0.497396 0.0122411 0)
(-0.490291 0.00888567 0)
(-0.484376 0.0069398 0)
(-0.479023 0.00566871 0)
(-0.474073 0.00477324 0)
(-0.469489 0.00410471 0)
(-0.465225 0.00358714 0)
(-0.461254 0.00316917 0)
(-0.457564 0.00281729 0)
(-0.454197 0.00250804 0)
(-0.451125 0.00221349 0)
(-0.448775 0.00189453 0)
(-0.446149 0.00145014 0)
(-0.448598 0.000920131 0)
(-0.438497 -0.000999771 0)
(-0.492829 0.00258042 0)
(-0.380703 -0.0435709 0)
)
;

boundaryField
{
    movingWall
    {
        type            calculated;
        value           uniform (-0.0909091 0 0);
    }
    fixedWalls
    {
        type            calculated;
        value           uniform (-0.545455 0 0);
    }
    frontAndBack
    {
        type            empty;
    }
}


// ************************************************************************* //
