/*--------------------------------*- C++ -*----------------------------------*\
| =========                 |                                                 |
| \\      /  F ield         | OpenFOAM: The Open Source CFD Toolbox           |
|  \\    /   O peration     | Version:  2312                                  |
|   \\  /    A nd           | Website:  www.openfoam.com                      |
|    \\/     M anipulation  |                                                 |
\*---------------------------------------------------------------------------*/
FoamFile
{
    version     2.0;
    format      ascii;
    arch        "LSB;label=32;scalar=64";
    class       volSymmTensorField;
    location    "5.5";
    object      UPrime2Mean;
}
// * * * * * * * * * * * * * * * * * * * * * * * * * * * * * * * * * * * * * //

dimensions      [0 2 -2 0 0 0 0];

internalField   nonuniform List<symmTensor> 
400
(
(0.247845 3.68392e-05 0 1.91183e-08 0 0)
(0.247237 0.000167522 0 1.629e-07 0 0)
(0.246119 0.000251043 0 3.72264e-07 0 0)
(0.244833 0.000292127 0 5.19286e-07 0 0)
(0.24342 0.000329226 0 7.23569e-07 0 0)
(0.241849 0.000377571 0 1.13906e-06 0 0)
(0.24008 0.000439489 0 1.97231e-06 0 0)
(0.23811 0.000502526 0 3.36638e-06 0 0)
(0.236038 0.000529573 0 4.60798e-06 0 0)
(0.234075 0.000486658 0 4.55646e-06 0 0)
(0.232515 0.000360483 0 2.94493e-06 0 0)
(0.231643 0.000161068 0 9.18357e-07 0 0)
(0.231679 -0.00010676 0 1.58857e-07 0 0)
(0.232817 -0.000393612 0 1.60817e-06 0 0)
(0.235055 -0.000667152 0 5.06164e-06 0 0)
(0.238179 -0.000859155 0 8.61226e-06 0 0)
(0.241764 -0.000881992 0 8.90281e-06 0 0)
(0.245255 -0.000657451 0 4.45043e-06 0 0)
(0.247617 -0.000267601 0 4.88462e-07 0 0)
(0.248186 6.57725e-05 0 2.71474e-07 0 0)
(0.247524 0.000364247 0 7.84797e-07 0 0)
(0.246316 0.000780366 0 4.06313e-06 0 0)
(0.24468 0.00100205 0 7.03018e-06 0 0)
(0.242861 0.00111161 0 9.08466e-06 0 0)
(0.240918 0.00121438 0 1.20142e-05 0 0)
(0.238821 0.00134093 0 1.75637e-05 0 0)
(0.236555 0.00146651 0 2.62087e-05 0 0)
(0.234189 0.00153705 0 3.52478e-05 0 0)
(0.231856 0.00149056 0 3.90165e-05 0 0)
(0.229747 0.00127946 0 3.31081e-05 0 0)
(0.228084 0.000886302 0 1.92074e-05 0 0)
(0.227099 0.000321602 0 5.2257e-06 0 0)
(0.227015 -0.000385134 0 1.6515e-06 0 0)
(0.228003 -0.00117219 0 1.65267e-05 0 0)
(0.230181 -0.00193568 0 4.95216e-05 0 0)
(0.233486 -0.00251191 0 8.57743e-05 0 0)
(0.23764 -0.00269326 0 9.81538e-05 0 0)
(0.242137 -0.00225435 0 6.459e-05 0 0)
(0.246154 -0.00120577 0 1.43304e-05 0 0)
(0.247939 -6.87861e-05 0 1.16673e-06 0 0)
(0.247217 0.00100923 0 6.67865e-06 0 0)
(0.245667 0.00161285 0 1.90285e-05 0 0)
(0.243843 0.00192822 0 2.86979e-05 0 0)
(0.241818 0.00211342 0 3.65596e-05 0 0)
(0.239645 0.00229056 0 4.80722e-05 0 0)
(0.237313 0.00248823 0 6.7661e-05 0 0)
(0.234819 0.00266055 0 9.4044e-05 0 0)
(0.232217 0.00272835 0 0.00011746 0 0)
(0.229627 0.00260924 0 0.000123161 0 0)
(0.227215 0.00224215 0 0.000102302 0 0)
(0.225196 0.00159707 0 6.05333e-05 0 0)
(0.223812 0.00067222 0 1.79497e-05 0 0)
(0.223298 -0.000495197 0 3.21991e-06 0 0)
(0.223838 -0.00182872 0 4.1648e-05 0 0)
(0.225576 -0.00318782 0 0.00014172 0 0)
(0.22864 -0.00434191 0 0.000276195 0 0)
(0.233016 -0.00495408 0 0.000367212 0 0)
(0.238406 -0.00459863 0 0.000313019 0 0)
(0.244046 -0.00298471 0 0.000118733 0 0)
(0.247645 -0.000716179 0 4.20557e-06 0 0)
(0.247041 0.00180508 0 2.29217e-05 0 0)
(0.245287 0.00253005 0 4.9156e-05 0 0)
(0.243372 0.00291044 0 6.89509e-05 0 0)
(0.24128 0.00317291 0 8.7851e-05 0 0)
(0.239034 0.003434 0 0.000115766 0 0)
(0.236601 0.00371421 0 0.000159543 0 0)
(0.233963 0.00395463 0 0.000214233 0 0)
(0.231163 0.00405212 0 0.000258413 0 0)
(0.228313 0.00389631 0 0.00026405 0 0)
(0.225595 0.00339948 0 0.000216952 0 0)
(0.223241 0.00251272 0 0.000130332 0 0)
(0.221499 0.00123377 0 4.26221e-05 0 0)
(0.220587 -0.000394722 0 4.58585e-06 0 0)
(0.220681 -0.00227647 0 6.30024e-05 0 0)
(0.2219 -0.00425406 0 0.000240778 0 0)
(0.224413 -0.0060877 0 0.000518132 0 0)
(0.228464 -0.00738084 0 0.000794218 0 0)
(0.234184 -0.00752335 0 0.000854793 0 0)
(0.241098 -0.00574583 0 0.00050042 0 0)
(0.246934 -0.00194514 0 4.63789e-05 0 0)
(0.246978 0.0026811 0 5.28572e-05 0 0)
(0.24515 0.00349978 0 9.6741e-05 0 0)
(0.243233 0.00392102 0 0.00012872 0 0)
(0.24117 0.00425121 0 0.000162917 0 0)
(0.238948 0.00460392 0 0.000214544 0 0)
(0.236517 0.00499199 0 0.000292384 0 0)
(0.233843 0.00533661 0 0.000383942 0 0)
(0.230958 0.00550315 0 0.000451545 0 0)
(0.227988 0.00534217 0 0.000451935 0 0)
(0.225144 0.00473016 0 0.000367786 0 0)
(0.22268 0.00360369 0 0.000224751 0 0)
(0.22082 0.0019734 0 8.20857e-05 0 0)
(0.219723 -9.46435e-05 0 9.80457e-06 0 0)
(0.219494 -0.00247893 0 7.11643e-05 0 0)
(0.220245 -0.00502635 0 0.000303231 0 0)
(0.222059 -0.00753511 0 0.00070646 0 0)
(0.225296 -0.00964996 0 0.00121238 0 0)
(0.230546 -0.0106753 0 0.00158192 0 0)
(0.237949 -0.00935674 0 0.00130894 0 0)
(0.245481 -0.00430739 0 0.000298805 0 0)
(0.247005 0.0035689 0 9.58912e-05 0 0)
(0.24522 0.00446717 0 0.00015928 0 0)
(0.243385 0.00491755 0 0.000204024 0 0)
(0.241433 0.00531207 0 0.000256238 0 0)
(0.239333 0.00576508 0 0.000336402 0 0)
(0.23703 0.00628122 0 0.000453483 0 0)
(0.234474 0.00675773 0 0.000584219 0 0)
(0.231694 0.00701952 0 0.000672677 0 0)
(0.228818 0.00686563 0 0.000661089 0 0)
(0.226051 0.00613609 0 0.0005347 0 0)
(0.223609 0.00476408 0 0.000335613 0 0)
(0.22167 0.00278197 0 0.000139782 0 0)
(0.220406 0.000294766 0 3.08519e-05 0 0)
(0.219967 -0.00256204 0 8.26435e-05 0 0)
(0.220417 -0.00561134 0 0.000343512 0 0)
(0.221742 -0.00868171 0 0.00082589 0 0)
(0.224129 -0.0115571 0 0.00150843 0 0)
(0.228365 -0.0136743 0 0.00225384 0 0)
(0.235423 -0.0134647 0 0.00244241 0 0)
(0.24394 -0.00784802 0 0.000987205 0 0)
(0.2471 0.0044095 0 0.000147181 0 0)
(0.245453 0.00538502 0 0.000230272 0 0)
(0.243773 0.00585853 0 0.000286678 0 0)
(0.242014 0.00630875 0 0.000356066 0 0)
(0.240143 0.00685711 0 0.000463363 0 0)
(0.23811 0.00750505 0 0.000617045 0 0)
(0.235861 0.00812304 0 0.000782037 0 0)
(0.233404 0.00849451 0 0.000886863 0 0)
(0.230828 0.00837021 0 0.000864818 0 0)
(0.228273 0.00755913 0 0.000706795 0 0)
(0.225875 0.0059872 0 0.000465717 0 0)
(0.22381 0.00368827 0 0.000225383 0 0)
(0.222315 0.00077422 0 7.9414e-05 0 0)
(0.22163 -0.00257735 0 0.000114662 0 0)
(0.221832 -0.00613397 0 0.0003891 0 0)
(0.222856 -0.00967991 0 0.000917853 0 0)
(0.224668 -0.0131317 0 0.00170569 0 0)
(0.227828 -0.0162587 0 0.00274107 0 0)
(0.23397 -0.0175934 0 0.00359541 0 0)
(0.242755 -0.0123966 0 0.00221848 0 0)
(0.247242 0.00515539 0 0.000198934 0 0)
(0.245802 0.00621302 0 0.000300783 0 0)
(0.244341 0.00670333 0 0.000365862 0 0)
(0.242847 0.007192 0 0.00044743 0 0)
(0.241302 0.00781283 0 0.00057345 0 0)
(0.239673 0.00857063 0 0.000752111 0 0)
(0.23792 0.00931943 0 0.00094042 0 0)
(0.236002 0.0098208 0 0.00106169 0 0)
(0.233931 0.00977706 0 0.00104187 0 0)
(0.231745 0.00895801 0 0.000872136 0 0)
(0.229495 0.00727515 0 0.000610459 0 0)
(0.227346 0.00472755 0 0.000340143 0 0)
(0.225612 0.00140331 0 0.000161086 0 0)
(0.224582 -0.00247458 0 0.000174855 0 0)
(0.224409 -0.00657113 0 0.000447233 0 0)
(0.225034 -0.0105773 0 0.000997973 0 0)
(0.226354 -0.0144821 0 0.00184795 0 0)
(0.228589 -0.0183856 0 0.00306566 0 0)
(0.233574 -0.0214055 0 0.00456331 0 0)
(0.242069 -0.0175742 0 0.00385814 0 0)
(0.247407 0.00577193 0 0.000242809 0 0)
(0.246226 0.0069186 0 0.000361433 0 0)
(0.24503 0.00741825 0 0.000431165 0 0)
(0.243849 0.00792063 0 0.000517243 0 0)
(0.242699 0.00857531 0 0.000648979 0 0)
(0.241578 0.00939692 0 0.000834584 0 0)
(0.240455 0.0102395 0 0.00103036 0 0)
(0.239259 0.0108661 0 0.00116375 0 0)
(0.237918 0.010956 0 0.00115984 0 0)
(0.236359 0.0102505 0 0.0010081 0 0)
(0.234509 0.00859413 0 0.000755412 0 0)
(0.232475 0.00590393 0 0.000474499 0 0)
(0.230543 0.00223242 0 0.000272085 0 0)
(0.229101 -0.00216032 0 0.000259572 0 0)
(0.228371 -0.0067836 0 0.000506188 0 0)
(0.228322 -0.0112543 0 0.00104583 0 0)
(0.228935 -0.0155686 0 0.00192582 0 0)
(0.230239 -0.0200786 0 0.00326397 0 0)
(0.233947 -0.0247412 0 0.0053058 0 0)
(0.241756 -0.0229601 0 0.00565611 0 0)
(0.247576 0.00624115 0 0.000272491 0 0)
(0.246681 0.00748118 0 0.000404994 0 0)
(0.245773 0.00798179 0 0.000475376 0 0)
(0.244926 0.00846692 0 0.000557437 0 0)
(0.244194 0.00910285 0 0.000680082 0 0)
(0.243618 0.00992029 0 0.000852185 0 0)
(0.243187 0.0107999 0 0.00103856 0 0)
(0.242826 0.011517 0 0.00117419 0 0)
(0.242401 0.0117626 0 0.00119203 0 0)
(0.241751 0.0112435 0 0.00107426 0 0)
(0.240703 0.00975654 0 0.000858829 0 0)
(0.239174 0.00713768 0 0.000606246 0 0)
(0.237281 0.00332334 0 0.00040073 0 0)
(0.235433 -0.00143765 0 0.000353161 0 0)
(0.233878 -0.00654808 0 0.000542536 0 0)
(0.232801 -0.0115043 0 0.00102942 0 0)
(0.232381 -0.0162299 0 0.00190115 0 0)
(0.232562 -0.0212882 0 0.00332788 0 0)
(0.234864 -0.0274689 0 0.00581111 0 0)
(0.241564 -0.0282579 0 0.00743146 0 0)
(0.247733 0.00655953 0 0.000284922 0 0)
(0.247118 0.00789365 0 0.00042778 0 0)
(0.246496 0.00838472 0 0.0004954 0 0)
(0.245976 0.00882133 0 0.00056654 0 0)
(0.245644 0.00938539 0 0.000668606 0 0)
(0.24558 0.0101236 0 0.000810535 0 0)
(0.2458 0.0109527 0 0.000968034 0 0)
(0.24626 0.0116781 0 0.00108862 0 0)
(0.246811 0.0120304 0 0.00111909 0 0)
(0.247246 0.0117218 0 0.00104012 0 0)
(0.247291 0.0105166 0 0.000880551 0 0)
(0.246737 0.00819427 0 0.000688298 0 0)
(0.24536 0.00454729 0 0.000515447 0 0)
(0.243208 -0.000289485 0 0.000435959 0 0)
(0.240685 -0.00570872 0 0.000538127 0 0)
(0.238344 -0.0110947 0 0.000928479 0 0)
(0.23661 -0.0162734 0 0.00174579 0 0)
(0.235436 -0.0218646 0 0.00321855 0 0)
(0.236173 -0.0295033 0 0.00607682 0 0)
(0.241358 -0.0333095 0 0.00908388 0 0)
(0.247855 0.00674081 0 0.000281006 0 0)
(0.247487 0.00816341 0 0.000430101 0 0)
(0.247127 0.00863322 0 0.000492696 0 0)
(0.246903 0.00899366 0 0.000548942 0 0)
(0.246923 0.00944103 0 0.000624435 0 0)
(0.247284 0.0100333 0 0.000727158 0 0)
(0.248031 0.0107206 0 0.000842155 0 0)
(0.24915 0.0113493 0 0.000931923 0 0)
(0.250521 0.0116987 0 0.00095791 0 0)
(0.251933 0.0115229 0 0.000905483 0 0)
(0.253094 0.0105947 0 0.000797024 0 0)
(0.253671 0.00869281 0 0.000673451 0 0)
(0.253215 0.00560554 0 0.00056909 0 0)
(0.251325 0.0012218 0 0.000494584 0 0)
(0.248132 -0.00416361 0 0.000507643 0 0)
(0.244534 -0.00985988 0 0.000761197 0 0)
(0.241374 -0.0155402 0 0.00146576 0 0)
(0.238725 -0.021686 0 0.00292261 0 0)
(0.237739 -0.0307628 0 0.00609076 0 0)
(0.241091 -0.0380552 0 0.010595 0 0)
(0.24792 0.00681598 0 0.000265187 0 0)
(0.247741 0.00830996 0 0.000415456 0 0)
(0.247601 0.00874362 0 0.000471601 0 0)
(0.247633 0.00900535 0 0.000511874 0 0)
(0.247947 0.00930638 0 0.000560525 0 0)
(0.248635 0.00971238 0 0.000624591 0 0)
(0.249754 0.0101986 0 0.000695584 0 0)
(0.251302 0.0106513 0 0.000749569 0 0)
(0.25319 0.0109005 0 0.000761478 0 0)
(0.255231 0.0107494 0 0.000721674 0 0)
(0.257144 0.010011 0 0.000647482 0 0)
(0.258564 0.00851878 0 0.000575014 0 0)
(0.259016 0.00609508 0 0.000528947 0 0)
(0.257869 0.00257013 0 0.000500079 0 0)
(0.254862 -0.00220045 0 0.000470025 0 0)
(0.250631 -0.00791801 0 0.000579451 0 0)
(0.246264 -0.0139745 0 0.00110978 0 0)
(0.242226 -0.0206759 0 0.0024614 0 0)
(0.239416 -0.0311787 0 0.00584384 0 0)
(0.240736 -0.0424744 0 0.0119814 0 0)
(0.247906 0.00685027 0 0.000245016 0 0)
(0.247829 0.00836958 0 0.000390101 0 0)
(0.24786 0.00873888 0 0.000437846 0 0)
(0.248111 0.00887973 0 0.00046258 0 0)
(0.248677 0.00901823 0 0.000487719 0 0)
(0.249621 0.00922649 0 0.000519991 0 0)
(0.250985 0.0094956 0 0.000554967 0 0)
(0.252768 0.00974817 0 0.000579232 0 0)
(0.254895 0.00985783 0 0.000577867 0 0)
(0.257205 0.00967627 0 0.000545194 0 0)
(0.259448 0.00906436 0 0.000492776 0 0)
(0.261287 0.00791295 0 0.000446721 0 0)
(0.262333 0.00611073 0 0.000429164 0 0)
(0.262064 0.00345256 0 0.000431304 0 0)
(0.259869 -0.000360111 0 0.000422584 0 0)
(0.25588 -0.00556626 0 0.000433865 0 0)
(0.250893 -0.0116723 0 0.000754462 0 0)
(0.245734 -0.0188402 0 0.00189601 0 0)
(0.241152 -0.0306245 0 0.00530882 0 0)
(0.2403 -0.0464312 0 0.0132104 0 0)
(0.247776 0.00684613 0 0.000224088 0 0)
(0.247675 0.00835643 0 0.000358674 0 0)
(0.247837 0.00862499 0 0.000395693 0 0)
(0.248296 0.00862289 0 0.000405845 0 0)
(0.249101 0.0085936 0 0.000412153 0 0)
(0.250273 0.00861274 0 0.000421207 0 0)
(0.251825 0.00868194 0 0.000431249 0 0)
(0.25374 0.00875043 0 0.000435439 0 0)
(0.255951 0.00873008 0 0.000425885 0 0)
(0.258321 0.00851477 0 0.000399356 0 0)
(0.260641 0.00800599 0 0.000362046 0 0)
(0.262649 0.00712686 0 0.000328784 0 0)
(0.264044 0.00579895 0 0.000315775 0 0)
(0.264453 0.00386694 0 0.000326579 0 0)
(0.263287 0.00100351 0 0.000338319 0 0)
(0.260127 -0.00322437 0 0.000335272 0 0)
(0.255189 -0.00889343 0 0.000470639 0 0)
(0.249288 -0.016322 0 0.00132146 0 0)
(0.243344 -0.0289401 0 0.00447083 0 0)
(0.239968 -0.0497759 0 0.0142041 0 0)
(0.247473 0.00717822 0 0.000229109 0 0)
(0.247263 0.00842039 0 0.000338227 0 0)
(0.247518 0.00845815 0 0.000354924 0 0)
(0.248186 0.00825764 0 0.000348182 0 0)
(0.249244 0.00804818 0 0.000338671 0 0)
(0.250657 0.0078916 0 0.000331477 0 0)
(0.252401 0.00779117 0 0.000326013 0 0)
(0.254438 0.00771039 0 0.000318672 0 0)
(0.256705 0.00758845 0 0.000305429 0 0)
(0.259089 0.00735225 0 0.00028432 0 0)
(0.261426 0.00693062 0 0.000257651 0 0)
(0.263517 0.00626275 0 0.000232145 0 0)
(0.265129 0.00528983 0 0.000216915 0 0)
(0.265997 0.00390764 0 0.000218972 0 0)
(0.265672 0.00184978 0 0.000230539 0 0)
(0.263609 -0.00133864 0 0.000236448 0 0)
(0.259077 -0.00609182 0 0.000281622 0 0)
(0.253519 -0.0135019 0 0.000847713 0 0)
(0.246933 -0.026235 0 0.00344457 0 0)
(0.240117 -0.0528876 0 0.015102 0 0)
(0.246793 0.00671123 0 0.000192065 0 0)
(0.246122 0.00786884 0 0.000277178 0 0)
(0.246686 0.00785077 0 0.000287125 0 0)
(0.247757 0.00758543 0 0.000276509 0 0)
(0.249183 0.00728519 0 0.000261593 0 0)
(0.250912 0.00701636 0 0.000247327 0 0)
(0.252919 0.00680203 0 0.000235044 0 0)
(0.255154 0.00662308 0 0.000223345 0 0)
(0.257553 0.00643826 0 0.000210071 0 0)
(0.26003 0.00619707 0 0.000193809 0 0)
(0.262459 0.00584812 0 0.00017489 0 0)
(0.264695 0.00534379 0 0.000155589 0 0)
(0.266537 0.00464489 0 0.000139698 0 0)
(0.267763 0.00367456 0 0.000131048 0 0)
(0.268017 0.00225954 0 0.000131105 0 0)
(0.266993 -3.57234e-05 0 0.0001332 0 0)
(0.263006 -0.00362903 0 0.000161288 0 0)
(0.259691 -0.0108998 0 0.000539302 0 0)
(0.251827 -0.0230637 0 0.00247479 0 0)
(0.241223 -0.0567295 0 0.0162627 0 0)
(0.245862 0.0108245 0 0.000492629 0 0)
(0.245163 0.0103927 0 0.000470003 0 0)
(0.246298 0.00905974 0 0.000367364 0 0)
(0.247883 0.0078876 0 0.000285185 0 0)
(0.249766 0.00706128 0 0.000233291 0 0)
(0.251977 0.00645953 0 0.000198506 0 0)
(0.254466 0.0060176 0 0.000174267 0 0)
(0.257141 0.00568094 0 0.000156092 0 0)
(0.259926 0.00539465 0 0.000140672 0 0)
(0.262747 0.00511303 0 0.000126091 0 0)
(0.265508 0.0047994 0 0.000111627 0 0)
(0.26807 0.00442526 0 9.74344e-05 0 0)
(0.270268 0.00395686 0 8.37868e-05 0 0)
(0.271952 0.00333957 0 7.0742e-05 0 0)
(0.272738 0.0024748 0 5.89795e-05 0 0)
(0.272764 0.000935856 0 4.83552e-05 0 0)
(0.26914 -0.00170506 0 6.58737e-05 0 0)
(0.270846 -0.00840445 0 0.0003381 0 0)
(0.255176 -0.018459 0 0.0014904 0 0)
(0.246318 -0.0604133 0 0.0167215 0 0)
(0.24463 0.00403967 0 7.2279e-05 0 0)
(0.243345 0.00247108 0 2.73142e-05 0 0)
(0.247331 0.00258709 0 2.99539e-05 0 0)
(0.251806 0.00329815 0 4.87227e-05 0 0)
(0.256471 0.00350073 0 5.4896e-05 0 0)
(0.261063 0.00341691 0 5.24839e-05 0 0)
(0.265458 0.00330156 0 4.90291e-05 0 0)
(0.269654 0.0032106 0 4.62202e-05 0 0)
(0.273679 0.0031236 0 4.35253e-05 0 0)
(0.27755 0.00302042 0 4.04549e-05 0 0)
(0.281247 0.00289229 0 3.69371e-05 0 0)
(0.284722 0.0027308 0 3.30003e-05 0 0)
(0.287878 0.00252505 0 2.86454e-05 0 0)
(0.290701 0.00222985 0 2.31836e-05 0 0)
(0.292693 0.00181186 0 1.65922e-05 0 0)
(0.29474 0.000927146 0 7.47942e-06 0 0)
(0.291177 -0.000328896 0 1.07611e-05 0 0)
(0.298047 -0.00471354 0 0.000120577 0 0)
(0.259865 -0.00972017 0 0.000431401 0 0)
(0.278028 -0.0562441 0 0.0120401 0 0)
(0.26825 0.0237269 0 0.00211845 0 0)
(0.279 0.0177137 0 0.00117733 0 0)
(0.292029 0.0111354 0 0.000461641 0 0)
(0.303263 0.00743117 0 0.000204766 0 0)
(0.311964 0.00548335 0 0.000111028 0 0)
(0.319312 0.00434107 0 6.91129e-05 0 0)
(0.326049 0.00358981 0 4.6831e-05 0 0)
(0.332352 0.00305735 0 3.36186e-05 0 0)
(0.338256 0.00265721 0 2.5131e-05 0 0)
(0.343804 0.00234539 0 1.9387e-05 0 0)
(0.349023 0.00209157 0 1.52791e-05 0 0)
(0.353915 0.00187568 0 1.21879e-05 0 0)
(0.358417 0.00168322 0 9.74129e-06 0 0)
(0.362555 0.00149614 0 7.62972e-06 0 0)
(0.365738 0.00128663 0 5.57408e-06 0 0)
(0.369294 0.000986346 0 3.14641e-06 0 0)
(0.365985 0.000612891 0 1.25237e-06 0 0)
(0.379471 -0.000727728 0 5.87091e-06 0 0)
(0.309038 0.00148525 0 4.66825e-05 0 0)
(0.461894 -0.0325657 0 0.00231218 0 0)
)
;

boundaryField
{
    movingWall
    {
        type            calculated;
        value           uniform (0.991736 0 0 0 0 0);
    }
    fixedWalls
    {
        type            calculated;
        value           uniform (0.247934 0 0 0 0 0);
    }
    frontAndBack
    {
        type            empty;
    }
}


// ************************************************************************* //
