/*--------------------------------*- C++ -*----------------------------------*\
| =========                 |                                                 |
| \\      /  F ield         | OpenFOAM: The Open Source CFD Toolbox           |
|  \\    /   O peration     | Version:  2312                                  |
|   \\  /    A nd           | Website:  www.openfoam.com                      |
|    \\/     M anipulation  |                                                 |
\*---------------------------------------------------------------------------*/
FoamFile
{
    version     2.0;
    format      ascii;
    arch        "LSB;label=32;scalar=64";
    class       volVectorField;
    location    "5.5";
    object      vorticityField;
}
// * * * * * * * * * * * * * * * * * * * * * * * * * * * * * * * * * * * * * //

dimensions      [0 0 -1 0 0 0 0];

internalField   nonuniform List<vector> 
400
(
(0 -0 5.77111e-12)
(0 -0 -7.69964e-12)
(0 -0 1.54838e-12)
(0 -0 -4.43467e-13)
(0 -0 -6.89066e-15)
(0 -0 -6.19972e-14)
(0 -0 1.19745e-14)
(0 -0 1.09966e-15)
(0 -0 -2.89966e-14)
(0 -0 1.28349e-15)
(0 -0 5.83766e-15)
(0 -0 4.68322e-14)
(0 -0 3.55404e-14)
(0 -0 4.77117e-14)
(0 -0 6.2311e-14)
(0 -0 1.22605e-14)
(0 -0 5.09732e-15)
(0 -0 5.20013e-15)
(0 -0 5.24432e-14)
(0 -0 -1.66085e-14)
(0 -0 3.9603e-12)
(0 -0 -4.60855e-12)
(0 -0 1.07133e-12)
(0 -0 -2.66441e-13)
(0 -0 4.75262e-14)
(0 -0 1.77984e-14)
(0 -0 -3.06978e-14)
(0 -0 -2.57137e-14)
(0 -0 -1.88091e-14)
(0 -0 5.10536e-15)
(0 -0 1.71699e-15)
(0 -0 -6.59383e-14)
(0 -0 -2.57674e-14)
(0 -0 -1.4291e-14)
(0 -0 4.07622e-14)
(0 -0 7.38151e-14)
(0 -0 6.12545e-14)
(0 -0 5.60079e-14)
(0 -0 -8.14036e-15)
(0 -0 -2.21386e-16)
(0 -0 -8.28379e-12)
(0 -0 1.14436e-11)
(0 -0 -2.62211e-12)
(0 -0 6.73495e-13)
(0 -0 -5.1438e-14)
(0 -0 1.16915e-13)
(0 -0 -1.18373e-14)
(0 -0 3.86978e-14)
(0 -0 4.69964e-14)
(0 -0 -4.89384e-14)
(0 -0 -6.31414e-14)
(0 -0 -6.9695e-14)
(0 -0 -1.32987e-13)
(0 -0 -1.39189e-13)
(0 -0 -9.29061e-14)
(0 -0 -4.64322e-14)
(0 -0 7.66305e-15)
(0 -0 -3.41037e-15)
(0 -0 -6.07832e-14)
(0 -0 3.11151e-14)
(0 -0 6.24836e-12)
(0 -0 -7.4355e-12)
(0 -0 1.74977e-12)
(0 -0 -3.76611e-13)
(0 -0 1.42867e-13)
(0 -0 -2.24115e-14)
(0 -0 3.61244e-14)
(0 -0 6.27019e-14)
(0 -0 3.32298e-14)
(0 -0 2.68807e-14)
(0 -0 1.98307e-14)
(0 -0 -1.19098e-15)
(0 -0 6.91034e-15)
(0 -0 -3.13552e-14)
(0 -0 -7.33166e-14)
(0 -0 -7.3139e-14)
(0 -0 -1.23162e-13)
(0 -0 -6.4385e-14)
(0 -0 -4.98628e-14)
(0 -0 3.26746e-14)
(0 -0 -2.41493e-12)
(0 -0 1.08948e-12)
(0 -0 -3.46827e-13)
(0 -0 -6.19817e-15)
(0 -0 -1.13026e-13)
(0 -0 -1.10423e-13)
(0 -0 -5.83725e-14)
(0 -0 -1.08277e-13)
(0 -0 -8.46462e-14)
(0 -0 -5.83365e-14)
(0 -0 -3.07619e-14)
(0 -0 9.11992e-15)
(0 -0 2.81697e-14)
(0 -0 7.94121e-14)
(0 -0 -2.65509e-15)
(0 -0 -5.94751e-14)
(0 -0 -2.93654e-14)
(0 -0 -3.22743e-14)
(0 -0 6.25473e-14)
(0 -0 1.84369e-14)
(0 -0 -2.4135e-12)
(0 -0 3.36437e-12)
(0 -0 -6.95019e-13)
(0 -0 1.9084e-13)
(0 -0 -1.13843e-16)
(0 -0 7.60019e-15)
(0 -0 -3.31252e-14)
(0 -0 -3.73148e-15)
(0 -0 1.98537e-14)
(0 -0 1.66867e-14)
(0 -0 -3.04224e-14)
(0 -0 3.60232e-15)
(0 -0 1.40041e-14)
(0 -0 1.29924e-14)
(0 -0 -4.73745e-15)
(0 -0 -1.28551e-14)
(0 -0 -4.79648e-15)
(0 -0 2.34189e-15)
(0 -0 -2.61453e-15)
(0 -0 2.29859e-15)
(0 -0 3.75566e-12)
(0 -0 -3.1502e-12)
(0 -0 7.90595e-13)
(0 -0 -1.27985e-13)
(0 -0 3.58571e-14)
(0 -0 5.75905e-14)
(0 -0 9.65895e-14)
(0 -0 5.26717e-14)
(0 -0 1.30642e-13)
(0 -0 1.16581e-13)
(0 -0 1.79641e-13)
(0 -0 1.4548e-13)
(0 -0 1.37939e-13)
(0 -0 7.98162e-14)
(0 -0 4.29281e-14)
(0 -0 2.85551e-14)
(0 -0 1.36536e-14)
(0 -0 -4.89472e-15)
(0 -0 -4.46763e-14)
(0 -0 -3.25085e-14)
(0 -0 -7.22788e-13)
(0 -0 5.36467e-13)
(0 -0 -1.2871e-13)
(0 -0 2.91867e-14)
(0 -0 7.23499e-14)
(0 -0 6.97189e-14)
(0 -0 1.00339e-13)
(0 -0 9.10533e-14)
(0 -0 -5.58177e-15)
(0 -0 -7.94393e-15)
(0 -0 -6.18309e-15)
(0 -0 -3.22117e-15)
(0 -0 -2.77245e-15)
(0 -0 -4.02989e-15)
(0 -0 5.59772e-14)
(0 -0 7.05273e-14)
(0 -0 1.32786e-13)
(0 -0 2.82223e-14)
(0 -0 8.6254e-15)
(0 -0 1.1239e-14)
(0 -0 -6.72607e-13)
(0 -0 3.9212e-13)
(0 -0 -7.19845e-14)
(0 -0 9.97861e-14)
(0 -0 2.25695e-14)
(0 -0 3.74045e-14)
(0 -0 6.90449e-15)
(0 -0 2.72425e-15)
(0 -0 -9.06012e-14)
(0 -0 -9.93348e-14)
(0 -0 -1.32986e-13)
(0 -0 -1.52717e-13)
(0 -0 -1.36742e-13)
(0 -0 -4.57335e-14)
(0 -0 -3.90675e-14)
(0 -0 6.6589e-14)
(0 -0 9.2346e-15)
(0 -0 6.16449e-14)
(0 -0 4.95264e-14)
(0 -0 -3.85673e-14)
(0 -0 9.74159e-13)
(0 -0 -4.83215e-13)
(0 -0 -4.50008e-14)
(0 -0 -1.04403e-13)
(0 -0 -6.78228e-14)
(0 -0 -6.75147e-14)
(0 -0 -8.21483e-14)
(0 -0 -8.972e-14)
(0 -0 -3.12868e-14)
(0 -0 -2.80711e-14)
(0 -0 3.50804e-14)
(0 -0 6.66781e-14)
(0 -0 5.9206e-14)
(0 -0 1.15264e-14)
(0 -0 6.5385e-14)
(0 -0 -6.47783e-14)
(0 -0 -6.89636e-14)
(0 -0 6.64351e-15)
(0 -0 -5.41474e-14)
(0 -0 -4.5023e-15)
(0 -0 -2.58993e-12)
(0 -0 8.08366e-13)
(0 -0 -2.24374e-13)
(0 -0 -2.71574e-14)
(0 -0 -6.66084e-14)
(0 -0 -6.98453e-14)
(0 -0 -3.10186e-14)
(0 -0 -1.7825e-14)
(0 -0 4.17188e-14)
(0 -0 5.39064e-14)
(0 -0 2.81413e-15)
(0 -0 7.13024e-14)
(0 -0 7.8219e-15)
(0 -0 -6.70362e-14)
(0 -0 -1.21192e-13)
(0 -0 -6.13176e-14)
(0 -0 -2.28668e-14)
(0 -0 1.72985e-14)
(0 -0 -2.60263e-14)
(0 -0 -9.06526e-15)
(0 -0 1.57404e-12)
(0 -0 -8.35969e-13)
(0 -0 3.55929e-13)
(0 -0 9.04848e-14)
(0 -0 5.57492e-14)
(0 -0 9.39376e-14)
(0 -0 8.00723e-14)
(0 -0 9.23899e-14)
(0 -0 9.39285e-14)
(0 -0 -5.62775e-15)
(0 -0 3.61172e-14)
(0 -0 -9.67201e-15)
(0 -0 -1.55112e-15)
(0 -0 5.15338e-14)
(0 -0 5.9771e-14)
(0 -0 6.67268e-14)
(0 -0 2.77698e-14)
(0 -0 3.24887e-16)
(0 -0 8.93798e-14)
(0 -0 -1.7978e-14)
(0 -0 1.68587e-12)
(0 -0 -7.97928e-13)
(0 -0 1.36383e-13)
(0 -0 -7.52704e-14)
(0 -0 8.59304e-19)
(0 -0 -1.04855e-13)
(0 -0 -1.16951e-13)
(0 -0 -1.1733e-13)
(0 -0 -9.25345e-14)
(0 -0 -5.62903e-14)
(0 -0 -8.45218e-14)
(0 -0 -3.86946e-15)
(0 -0 9.00478e-14)
(0 -0 1.08165e-13)
(0 -0 1.67845e-13)
(0 -0 6.52193e-14)
(0 -0 -2.78638e-14)
(0 -0 -8.08737e-14)
(0 -0 5.27758e-15)
(0 -0 4.20752e-15)
(0 -0 -3.18131e-12)
(0 -0 2.7276e-12)
(0 -0 -6.67243e-13)
(0 -0 9.36041e-14)
(0 -0 -9.14029e-14)
(0 -0 -4.08374e-14)
(0 -0 2.10886e-14)
(0 -0 4.55385e-14)
(0 -0 -2.47225e-14)
(0 -0 3.20884e-14)
(0 -0 -6.78489e-15)
(0 -0 -6.98505e-14)
(0 -0 -6.14886e-15)
(0 -0 -3.87889e-14)
(0 -0 -8.99995e-14)
(0 -0 1.2052e-14)
(0 -0 9.25964e-15)
(0 -0 -3.91793e-14)
(0 -0 -6.28606e-14)
(0 -0 2.26407e-14)
(0 -0 4.69839e-12)
(0 -0 -4.47479e-12)
(0 -0 1.0549e-12)
(0 -0 -1.51618e-13)
(0 -0 1.56963e-13)
(0 -0 1.49804e-13)
(0 -0 2.04395e-13)
(0 -0 1.2033e-13)
(0 -0 9.23008e-14)
(0 -0 1.21209e-13)
(0 -0 2.40157e-14)
(0 -0 -2.95081e-14)
(0 -0 -1.01421e-13)
(0 -0 -6.58186e-15)
(0 -0 -6.41062e-14)
(0 -0 -5.00832e-14)
(0 -0 6.71315e-14)
(0 -0 -3.63945e-15)
(0 -0 -4.13099e-15)
(0 -0 1.24824e-14)
(0 -0 -3.46752e-12)
(0 -0 3.26808e-12)
(0 -0 -8.00024e-13)
(0 -0 1.03807e-13)
(0 -0 -7.24649e-14)
(0 -0 2.26025e-14)
(0 -0 -9.21971e-14)
(0 -0 -4.38156e-14)
(0 -0 -4.21903e-14)
(0 -0 -5.89268e-15)
(0 -0 6.83855e-15)
(0 -0 -4.33324e-14)
(0 -0 -4.23292e-14)
(0 -0 -5.01863e-14)
(0 -0 -6.14535e-15)
(0 -0 -2.13182e-14)
(0 -0 -8.75453e-14)
(0 -0 4.58231e-14)
(0 -0 2.20128e-14)
(0 -0 3.18648e-14)
(0 -0 6.57576e-13)
(0 -0 3.51115e-13)
(0 -0 -5.51793e-14)
(0 -0 5.39843e-16)
(0 -0 -4.66586e-15)
(0 -0 2.23201e-14)
(0 -0 -5.26208e-14)
(0 -0 -8.87e-14)
(0 -0 1.32078e-15)
(0 -0 -7.10804e-14)
(0 -0 -3.97347e-14)
(0 -0 -1.90584e-14)
(0 -0 -3.08816e-14)
(0 -0 -7.24884e-14)
(0 -0 -9.97621e-14)
(0 -0 -6.51692e-14)
(0 -0 -1.54e-14)
(0 -0 2.95367e-14)
(0 -0 1.46433e-14)
(0 -0 -1.52416e-15)
(0 -0 1.41429e-12)
(0 -0 -3.39609e-12)
(0 -0 7.73982e-13)
(0 -0 -1.51908e-13)
(0 -0 3.2291e-14)
(0 -0 -1.13341e-14)
(0 -0 1.25608e-14)
(0 -0 3.00321e-14)
(0 -0 -5.35742e-14)
(0 -0 -7.73449e-14)
(0 -0 3.7632e-14)
(0 -0 5.41603e-14)
(0 -0 3.40188e-14)
(0 -0 4.6556e-14)
(0 -0 7.49936e-14)
(0 -0 4.67194e-14)
(0 -0 6.89566e-14)
(0 -0 7.83533e-14)
(0 -0 5.1528e-14)
(0 -0 -1.44937e-14)
(0 -0 -9.76585e-13)
(0 -0 3.70354e-13)
(0 -0 -2.60872e-13)
(0 -0 -7.43053e-14)
(0 -0 -1.03173e-13)
(0 -0 -1.4831e-13)
(0 -0 -8.25741e-14)
(0 -0 -5.16909e-14)
(0 -0 -3.10271e-14)
(0 -0 6.44268e-15)
(0 -0 -4.09632e-14)
(0 -0 3.57272e-14)
(0 -0 -3.31565e-14)
(0 -0 -3.97699e-14)
(0 -0 -6.75365e-15)
(0 -0 -2.47856e-14)
(0 -0 7.0517e-14)
(0 -0 6.3676e-15)
(0 -0 -5.37236e-14)
(0 -0 -2.53915e-14)
(0 -0 -3.93923e-12)
(0 -0 6.01153e-12)
(0 -0 -1.10415e-12)
(0 -0 3.89733e-13)
(0 -0 4.99593e-14)
(0 -0 8.98557e-14)
(0 -0 6.33086e-14)
(0 -0 5.25616e-14)
(0 -0 6.80039e-14)
(0 -0 6.32136e-14)
(0 -0 5.1574e-14)
(0 -0 -6.0732e-15)
(0 -0 4.56191e-14)
(0 -0 1.48112e-14)
(0 -0 -4.76652e-15)
(0 -0 3.8513e-14)
(0 -0 -4.66458e-14)
(0 -0 -6.50105e-14)
(0 -0 1.51152e-15)
(0 -0 4.17193e-14)
)
;

boundaryField
{
    movingWall
    {
        type            calculated;
        value           nonuniform List<vector> 
20
(
(0 -0 -4.3498e-12)
(0 -0 6.50233e-12)
(0 -0 -7.1657e-13)
(0 -0 6.1928e-13)
(0 -0 2.9681e-13)
(0 -0 3.19403e-13)
(0 -0 3.37265e-13)
(0 -0 3.09214e-13)
(0 -0 2.35838e-13)
(0 -0 1.86639e-13)
(0 -0 2.19408e-13)
(0 -0 1.27154e-13)
(0 -0 1.24636e-13)
(0 -0 1.20933e-13)
(0 -0 1.72869e-13)
(0 -0 1.00226e-13)
(0 -0 -8.12535e-14)
(0 -0 3.36085e-14)
(0 -0 4.59204e-14)
(0 -0 5.90232e-14)
)
;
    }
    fixedWalls
    {
        type            calculated;
        value           nonuniform List<vector> 
60
(
(0 -0 3.24925e-11)
(0 -0 1.95467e-11)
(0 -0 -4.89255e-11)
(0 -0 3.21492e-11)
(0 -0 -4.99645e-12)
(0 -0 -1.41885e-11)
(0 -0 1.38406e-11)
(0 -0 -2.34764e-12)
(0 -0 -1.65733e-12)
(0 -0 1.54712e-12)
(0 -0 -4.20502e-12)
(0 -0 4.47953e-12)
(0 -0 3.4913e-12)
(0 -0 -1.16959e-11)
(0 -0 1.93027e-11)
(0 -0 -1.4482e-11)
(0 -0 -1.37227e-12)
(0 -0 1.44638e-11)
(0 -0 -2.28377e-12)
(0 -0 -2.46971e-11)
(0 -0 -1.80517e-14)
(0 -0 1.61179e-14)
(0 -0 6.2063e-14)
(0 -0 5.06993e-14)
(0 -0 2.41363e-14)
(0 -0 1.25269e-14)
(0 -0 -1.97328e-14)
(0 -0 1.56615e-14)
(0 -0 -3.64065e-14)
(0 -0 8.47327e-15)
(0 -0 -1.05303e-15)
(0 -0 -4.5058e-14)
(0 -0 -1.21705e-14)
(0 -0 4.25572e-14)
(0 -0 2.0208e-14)
(0 -0 2.24779e-14)
(0 -0 -3.1715e-16)
(0 -0 -1.20327e-14)
(0 -0 -3.23394e-14)
(0 -0 3.7362e-14)
(0 -0 1.00407e-11)
(0 -0 -9.14262e-12)
(0 -0 1.38054e-12)
(0 -0 -5.22484e-13)
(0 -0 -5.88023e-14)
(0 -0 -1.85423e-13)
(0 -0 -1.65661e-13)
(0 -0 -1.76536e-13)
(0 -0 -1.35118e-13)
(0 -0 -4.31254e-14)
(0 -0 -8.29802e-14)
(0 -0 -7.37787e-15)
(0 -0 -1.86697e-14)
(0 -0 -6.49841e-15)
(0 -0 -8.0717e-14)
(0 -0 -1.20966e-13)
(0 -0 -3.93116e-14)
(0 -0 -8.36177e-14)
(0 -0 -4.61759e-14)
(0 -0 -1.66085e-14)
)
;
    }
    frontAndBack
    {
        type            empty;
    }
}


// ************************************************************************* //
