/*--------------------------------*- C++ -*----------------------------------*\
| =========                 |                                                 |
| \\      /  F ield         | OpenFOAM: The Open Source CFD Toolbox           |
|  \\    /   O peration     | Version:  2312                                  |
|   \\  /    A nd           | Website:  www.openfoam.com                      |
|    \\/     M anipulation  |                                                 |
\*---------------------------------------------------------------------------*/
FoamFile
{
    version     2.0;
    format      ascii;
    arch        "LSB;label=32;scalar=64";
    class       volVectorField;
    location    "5.5";
    object      wallShearStress;
}
// * * * * * * * * * * * * * * * * * * * * * * * * * * * * * * * * * * * * * //

dimensions      [0 2 -2 0 0 0 0];

internalField   uniform (0 0 0);

boundaryField
{
    movingWall
    {
        type            calculated;
        value           uniform (0 0 0);
    }
    fixedWalls
    {
        type            calculated;
        value           nonuniform List<vector> 
60
(
(1.33043e-16 -3.42815e-16 0)
(-2.32996e-16 -1.93298e-16 0)
(7.10585e-17 5.23407e-16 0)
(7.85409e-17 -3.23119e-16 0)
(-3.33128e-17 1.31017e-17 0)
(-7.13641e-17 1.5327e-16 0)
(9.58778e-17 -1.14554e-16 0)
(-5.75978e-17 1.64291e-17 0)
(6.02531e-17 9.52601e-18 0)
(-5.46908e-17 2.49758e-19 0)
(1.03179e-16 8.50557e-19 0)
(-1.56064e-16 -2.90743e-17 0)
(1.15898e-16 -1.05184e-17 0)
(-7.10763e-17 9.52747e-17 0)
(7.64365e-17 -1.71885e-16 0)
(-7.72263e-17 1.30725e-16 0)
(9.50963e-17 3.6491e-17 0)
(2.02295e-17 -1.80959e-16 0)
(-1.21752e-16 1.19957e-17 0)
(3.59412e-17 2.70282e-16 0)
(-3.22306e-21 -1.80517e-19 0)
(1.33525e-19 1.61179e-19 0)
(5.76357e-20 6.2063e-19 0)
(-6.32113e-20 5.06993e-19 0)
(-6.36208e-20 2.41363e-19 0)
(-2.79401e-20 1.25269e-19 0)
(-6.3207e-19 3.44773e-19 0)
(-2.77895e-20 -3.85486e-19 0)
(-5.58924e-19 1.78036e-19 0)
(1.37473e-20 8.47327e-20 0)
(-1.27346e-18 -1.05303e-20 0)
(-6.10648e-19 -4.5058e-19 0)
(1.46025e-19 -1.21705e-19 0)
(-5.38155e-19 4.25572e-19 0)
(-1.26288e-18 2.0208e-19 0)
(-3.42086e-20 -3.17322e-19 0)
(-1.23426e-20 -3.1715e-21 0)
(-6.00314e-19 -1.20327e-19 0)
(3.71494e-20 2.18707e-19 0)
(-6.0049e-19 -1.68481e-19 0)
(-3.29049e-17 -4.48774e-16 0)
(6.74454e-17 9.56261e-17 0)
(-1.82463e-17 -2.33095e-17 0)
(2.5603e-18 4.01097e-18 0)
(-2.07651e-18 -5.61441e-19 0)
(-1.69849e-18 2.22363e-19 0)
(-1.8961e-18 -3.26828e-19 0)
(-1.78735e-18 -4.16279e-19 0)
(-1.31335e-18 -5.66177e-19 0)
(-4.56924e-19 -4.96099e-19 0)
(-9.46555e-19 -4.53929e-19 0)
(7.37787e-20 -8.07441e-19 0)
(1.86697e-19 -6.04433e-20 0)
(6.49841e-20 5.49677e-19 0)
(-9.69187e-19 4.66839e-19 0)
(-1.45487e-18 -6.30695e-20 0)
(-4.95062e-19 -5.48455e-19 0)
(-9.4018e-19 -1.54226e-19 0)
(-4.2642e-19 -1.0065e-18 0)
(1.66085e-19 -2.4069e-19 0)
)
;
    }
    frontAndBack
    {
        type            empty;
    }
}


// ************************************************************************* //
