/*--------------------------------*- C++ -*----------------------------------*\
| =========                 |                                                 |
| \\      /  F ield         | OpenFOAM: The Open Source CFD Toolbox           |
|  \\    /   O peration     | Version:  2312                                  |
|   \\  /    A nd           | Website:  www.openfoam.com                      |
|    \\/     M anipulation  |                                                 |
\*---------------------------------------------------------------------------*/
FoamFile
{
    version     2.0;
    format      ascii;
    arch        "LSB;label=32;scalar=64";
    class       volScalarField;
    location    "5.5";
    object      yPlus;
}
// * * * * * * * * * * * * * * * * * * * * * * * * * * * * * * * * * * * * * //

dimensions      [0 0 0 0 0 0 0];

internalField   uniform 0;

boundaryField
{
    movingWall
    {
        type            calculated;
        value           nonuniform List<scalar> 
20
(
4.02132e-06
1.84649e-06
9.35107e-07
5.06526e-07
4.72758e-07
4.42115e-07
4.71257e-07
4.42399e-07
3.72857e-07
3.33998e-07
3.7351e-07
2.88751e-07
2.88568e-07
2.91584e-07
3.3977e-07
2.50352e-07
2.35794e-07
1.7195e-07
2.02391e-07
1.68779e-07
)
;
    }
    fixedWalls
    {
        type            calculated;
        value           nonuniform List<scalar> 
60
(
4.57965e-06
3.5926e-06
5.63307e-06
4.48822e-06
1.69907e-06
3.20904e-06
2.94007e-06
1.427e-06
1.65334e-06
1.59464e-06
2.19055e-06
2.82857e-06
2.5889e-06
2.83898e-06
3.46836e-06
2.97315e-06
1.62144e-06
3.19588e-06
1.6275e-06
4.02132e-06
1.06218e-07
1.00368e-07
1.9695e-07
1.78009e-07
1.22822e-07
8.84833e-08
1.67736e-07
8.4571e-08
1.68398e-07
7.27722e-08
2.35616e-07
1.98847e-07
8.72156e-08
1.96068e-07
2.386e-07
5.37771e-08
1.4079e-08
1.69577e-07
5.71969e-08
1.68779e-07
4.57965e-06
2.06621e-06
1.00868e-06
4.61952e-07
3.00402e-07
3.33932e-07
3.34775e-07
3.35744e-07
2.91898e-07
1.77335e-07
2.43823e-07
1.71401e-07
5.32285e-08
1.31513e-07
2.38974e-07
2.88651e-07
1.80757e-07
2.40184e-07
2.02598e-07
1.06218e-07
)
;
    }
    frontAndBack
    {
        type            empty;
    }
}


// ************************************************************************* //
