/*--------------------------------*- C++ -*----------------------------------*\
| =========                 |                                                 |
| \\      /  F ield         | OpenFOAM: The Open Source CFD Toolbox           |
|  \\    /   O peration     | Version:  2312                                  |
|   \\  /    A nd           | Website:  www.openfoam.com                      |
|    \\/     M anipulation  |                                                 |
\*---------------------------------------------------------------------------*/
FoamFile
{
    version     2.0;
    format      ascii;
    arch        "LSB;label=32;scalar=64";
    class       volScalarField;
    location    "5.5";
    object      zeroGradient(p);
}
// * * * * * * * * * * * * * * * * * * * * * * * * * * * * * * * * * * * * * //

dimensions      [0 2 -2 0 0 0 0];

internalField   nonuniform List<scalar> 
400
(
0
3.17054e-15
1.97912e-15
2.25912e-15
2.24533e-15
2.40051e-15
2.39179e-15
2.36138e-15
2.41254e-15
2.36493e-15
2.4325e-15
2.6689e-15
2.66024e-15
2.65685e-15
2.6578e-15
2.75296e-15
2.7578e-15
2.86632e-15
2.99335e-15
2.85037e-15
2.12743e-15
0
2.01707e-15
1.95651e-15
2.4749e-15
2.58117e-15
2.46189e-15
2.38254e-15
2.38393e-15
2.45324e-15
2.42289e-15
2.48394e-15
2.61546e-15
2.78638e-15
2.63763e-15
2.78895e-15
2.77757e-15
2.91509e-15
2.84892e-15
2.70738e-15
1.79502e-15
1.53817e-15
2.0725e-15
2.15286e-15
2.55139e-15
2.4917e-15
2.4487e-15
2.51326e-15
2.56357e-15
2.48724e-15
2.4012e-15
2.4482e-15
2.55471e-15
2.66013e-15
2.81803e-15
2.79603e-15
2.88026e-15
2.84359e-15
2.98444e-15
2.96798e-15
1.38157e-15
4.06046e-15
2.21578e-15
2.42063e-15
2.61139e-15
2.57711e-15
2.48811e-15
2.71829e-15
2.5032e-15
2.47305e-15
2.45451e-15
2.47577e-15
2.42933e-15
2.55366e-15
2.84045e-15
2.78286e-15
2.88153e-15
2.88711e-15
2.96629e-15
3.21213e-15
2.38091e-15
0
2.23077e-15
2.1528e-15
2.53186e-15
2.55932e-15
2.59704e-15
2.75564e-15
2.6671e-15
2.56957e-15
2.57296e-15
2.61931e-15
2.64885e-15
2.63328e-15
2.70601e-15
2.68586e-15
2.7614e-15
2.86771e-15
3.03872e-15
3.42963e-15
1.98895e-15
4.16671e-15
2.20909e-15
2.58968e-15
2.50797e-15
2.58671e-15
2.732e-15
2.78639e-15
2.61524e-15
2.64542e-15
2.68817e-15
2.77676e-15
2.80287e-15
2.75816e-15
2.77734e-15
2.7583e-15
2.8595e-15
2.91623e-15
3.13327e-15
3.49305e-15
2.15308e-15
1.97054e-15
2.33065e-15
2.44015e-15
2.60546e-15
2.70711e-15
2.84575e-15
2.80589e-15
2.67253e-15
2.82517e-15
2.91324e-15
2.9121e-15
2.9273e-15
2.79427e-15
2.87889e-15
2.96449e-15
2.96459e-15
3.01551e-15
3.27805e-15
3.64379e-15
2.86557e-15
2.24314e-15
2.35958e-15
2.50822e-15
2.71188e-15
2.84509e-15
2.89036e-15
2.83655e-15
2.75101e-15
3.11364e-15
2.99765e-15
2.88296e-15
2.78553e-15
2.76692e-15
2.90835e-15
3.13761e-15
3.15366e-15
3.13427e-15
3.34378e-15
3.61527e-15
2.81237e-15
1.98837e-15
2.62259e-15
2.55617e-15
2.80257e-15
2.96218e-15
2.98634e-15
2.92739e-15
2.817e-15
3.03454e-15
2.87594e-15
2.95024e-15
2.92582e-15
3.072e-15
3.10273e-15
3.32139e-15
3.34108e-15
3.10796e-15
3.3192e-15
3.58576e-15
2.83025e-15
3.22816e-15
2.67227e-15
2.81506e-15
2.95444e-15
3.03621e-15
3.04925e-15
2.98127e-15
3.01132e-15
3.04968e-15
2.90084e-15
3.00432e-15
3.06746e-15
3.21265e-15
3.29867e-15
3.36306e-15
3.32731e-15
3.26714e-15
3.39588e-15
3.55034e-15
2.54907e-15
1.65985e-15
2.87024e-15
2.89716e-15
3.04343e-15
3.07792e-15
3.04183e-15
3.10353e-15
3.04618e-15
3.14615e-15
3.19917e-15
3.08345e-15
3.04491e-15
3.30297e-15
3.29709e-15
3.29758e-15
3.38219e-15
3.33132e-15
3.32253e-15
3.66945e-15
2.6621e-15
5.33556e-15
2.8569e-15
3.12021e-15
2.96686e-15
3.19674e-15
3.15131e-15
3.2101e-15
2.97699e-15
3.12676e-15
3.34421e-15
3.32574e-15
3.14294e-15
3.11659e-15
3.25747e-15
3.36599e-15
3.55563e-15
3.38942e-15
3.26757e-15
3.59043e-15
3.23284e-15
4.76327e-16
2.90571e-15
2.99467e-15
3.14903e-15
3.36454e-15
3.37778e-15
3.19524e-15
3.08003e-15
3.09484e-15
3.31743e-15
3.26658e-15
3.21831e-15
3.23365e-15
3.25882e-15
3.23382e-15
3.40638e-15
3.46135e-15
3.31673e-15
3.28923e-15
3.13418e-15
5.13203e-15
2.88092e-15
3.3322e-15
3.11888e-15
3.45976e-15
3.68039e-15
3.23099e-15
3.13047e-15
3.11284e-15
3.14814e-15
3.23871e-15
3.36157e-15
3.27411e-15
3.27256e-15
3.02821e-15
3.16812e-15
3.29821e-15
3.32088e-15
3.5057e-15
3.58983e-15
1.96187e-15
3.30576e-15
3.17624e-15
3.43718e-15
3.54184e-15
3.72547e-15
3.31997e-15
3.09222e-15
3.12095e-15
3.05815e-15
3.2051e-15
3.19859e-15
3.24383e-15
3.47551e-15
3.30111e-15
3.00486e-15
3.07413e-15
3.22797e-15
3.63448e-15
3.62434e-15
2.9554e-15
3.53026e-15
3.3315e-15
3.4281e-15
3.51804e-15
3.56735e-15
3.19576e-15
3.10213e-15
3.12673e-15
2.97824e-15
3.16775e-15
3.39629e-15
3.35899e-15
3.41435e-15
3.24719e-15
3.06061e-15
3.13097e-15
3.34016e-15
3.62476e-15
3.06514e-15
4.16357e-15
3.51253e-15
3.51438e-15
3.56705e-15
3.53914e-15
3.31929e-15
3.31244e-15
3.30377e-15
3.13421e-15
2.8801e-15
3.15913e-15
3.2575e-15
3.21879e-15
3.24586e-15
3.36542e-15
3.27793e-15
3.35135e-15
3.30954e-15
3.62717e-15
3.59921e-15
3.20905e-15
3.58669e-15
3.3506e-15
3.5685e-15
3.52478e-15
3.23219e-15
3.23513e-15
3.1806e-15
3.21753e-15
3.21611e-15
3.21571e-15
3.16166e-15
3.11891e-15
3.25908e-15
3.266e-15
3.33233e-15
3.42152e-15
3.33451e-15
3.67474e-15
3.74123e-15
2.15527e-15
3.52156e-15
3.2555e-15
3.49611e-15
3.5548e-15
3.38624e-15
3.06958e-15
3.12698e-15
3.36264e-15
3.33784e-15
3.21447e-15
3.04924e-15
3.24263e-15
3.24371e-15
3.23848e-15
3.52302e-15
3.38678e-15
3.29947e-15
3.5175e-15
2.4701e-15
4.79505e-15
3.27423e-15
3.41411e-15
3.44007e-15
3.40997e-15
3.235e-15
3.18132e-15
3.23941e-15
3.40999e-15
3.35535e-15
3.31823e-15
3.11233e-15
3.24212e-15
3.37141e-15
3.62845e-15
3.45784e-15
3.22204e-15
3.3666e-15
3.57839e-15
)
;

boundaryField
{
    movingWall
    {
        type            zeroGradient;
    }
    fixedWalls
    {
        type            zeroGradient;
    }
    frontAndBack
    {
        type            empty;
    }
}


// ************************************************************************* //
