/*--------------------------------*- C++ -*----------------------------------*\
| =========                 |                                                 |
| \\      /  F ield         | OpenFOAM: The Open Source CFD Toolbox           |
|  \\    /   O peration     | Version:  2312                                  |
|   \\  /    A nd           | Website:  www.openfoam.com                      |
|    \\/     M anipulation  |                                                 |
\*---------------------------------------------------------------------------*/
FoamFile
{
    version     2.0;
    format      ascii;
    arch        "LSB;label=32;scalar=64";
    class       volScalarField;
    location    "1.375";
    object      diffP;
}
// * * * * * * * * * * * * * * * * * * * * * * * * * * * * * * * * * * * * * //

dimensions      [0 2 -2 0 0 0 0];

internalField   nonuniform List<scalar> 
400
(
-3
-3
-3
-3.00005
-3.00014
-3.00025
-3.00041
-3.00062
-3.00088
-3.0012
-3.0016
-3.00208
-3.00262
-3.00317
-3.00368
-3.00404
-3.00424
-3.00427
-3.00422
-3.00414
-3.00001
-3
-3.00001
-3.00006
-3.00015
-3.00026
-3.00042
-3.00061
-3.00086
-3.00116
-3.00153
-3.00198
-3.00249
-3.00303
-3.00353
-3.00391
-3.00413
-3.00419
-3.00415
-3.00407
-3
-3
-3
-3
-3.00008
-3.00019
-3.00033
-3.00051
-3.00073
-3.00101
-3.00136
-3.00179
-3.0023
-3.00288
-3.00343
-3.00386
-3.00409
-3.00414
-3.00408
-3.00399
-3
-3
-3
-3
-3
-3
-3.00012
-3.00028
-3.00047
-3.00072
-3.00105
-3.00149
-3.00204
-3.00271
-3.00338
-3.00388
-3.00412
-3.00411
-3.00397
-3.00385
-3
-3
-3
-3
-3
-3
-3
-3
-3.00004
-3.00026
-3.00057
-3.001
-3.00157
-3.00236
-3.0032
-3.00385
-3.00412
-3.004
-3.00379
-3.00363
-3
-3
-3
-3
-3
-3
-3
-3
-3
-3
-3
-3.00012
-3.0006
-3.00125
-3.00205
-3.00292
-3.00357
-3.0037
-3.00359
-3.00333
-3
-3
-3
-3
-3
-3
-3
-3
-3
-3
-3
-3
-3
-3
-3
-3
-3.00047
-3.00251
-3.00336
-3.00315
-3
-3
-3
-3
-3
-3
-3
-3
-3
-3
-3
-3
-3
-3
-3
-3
-3
-3
-3.00248
-3.00328
-3
-3
-3
-3
-3
-3
-3
-3
-3
-3
-3
-3
-3
-3
-3
-3
-3
-3
-3
-3.00243
-3
-3
-3
-3
-3
-3
-3
-3
-3
-3
-3
-3
-3
-3
-3
-3
-3
-3
-3
-3
-3
-3
-3
-3
-3
-3
-3
-3
-3
-3
-3
-3
-3
-3
-3
-3
-3
-3
-3
-3
-3
-3
-3
-3
-3
-3
-3
-3
-3
-3
-3
-3
-3
-3
-3
-3
-3
-3
-3
-3
-3
-3
-3
-3
-3
-3
-3
-3
-3
-3
-3
-3
-3
-3
-3
-3
-3
-3
-3
-3
-3
-3
-3
-3
-3
-3
-3
-3
-3
-3
-3
-3
-3
-3
-3
-3
-3
-3
-3
-3
-3
-3
-3
-3
-3
-3
-3
-3
-3
-3
-3
-3
-3
-3
-3
-3
-3
-3
-3
-3
-3
-3
-3
-3
-3
-3
-3
-3
-3
-3
-3
-3
-3
-3
-3
-3
-3
-3
-3
-3
-3
-3
-3
-3
-3
-3
-3
-3
-3
-3
-3
-3
-3
-3
-3
-3
-3
-3
-3
-3
-3
-3
-3
-3
-3
-3
-3
-3
-3
-3
-3
-3
-3
-3
-3
-3
-3
-3
-3
-3
-3
-3
-3
-3
-3
-3
-3
-3
-3
-3
-3
-3
-3
-3
-3
-3
-3
-3.00017
-3.00336
-3.02895
-3
-3.00252
-3.001
-3
-3
-3
-3
-3
-3
-3
-3
-3
-3
-3
-3
-3
-3
-3.00528
-3.00865
-3.11378
)
;

boundaryField
{
    movingWall
    {
        type            calculated;
        value           nonuniform List<scalar> 
20
(
-3
-3.00252
-3.001
-3
-3
-3
-3
-3
-3
-3
-3
-3
-3
-3
-3
-3
-3
-3.00528
-3.00865
-3.11378
)
;
    }
    fixedWalls
    {
        type            calculated;
        value           nonuniform List<scalar> 
60
(
-3
-3.00001
-3
-3
-3
-3
-3
-3
-3
-3
-3
-3
-3
-3
-3
-3
-3
-3
-3
-3
-3.00414
-3.00407
-3.00399
-3.00385
-3.00363
-3.00333
-3.00315
-3.00328
-3.00243
-3
-3
-3
-3
-3
-3
-3
-3
-3
-3.02895
-3.11378
-3
-3
-3
-3.00005
-3.00014
-3.00025
-3.00041
-3.00062
-3.00088
-3.0012
-3.0016
-3.00208
-3.00262
-3.00317
-3.00368
-3.00404
-3.00424
-3.00427
-3.00422
-3.00414
)
;
    }
    frontAndBack
    {
        type            empty;
    }
}


// ************************************************************************* //
