/*--------------------------------*- C++ -*----------------------------------*\
| =========                 |                                                 |
| \\      /  F ield         | OpenFOAM: The Open Source CFD Toolbox           |
|  \\    /   O peration     | Version:  2312                                  |
|   \\  /    A nd           | Website:  www.openfoam.com                      |
|    \\/     M anipulation  |                                                 |
\*---------------------------------------------------------------------------*/
FoamFile
{
    version     2.0;
    format      ascii;
    arch        "LSB;label=32;scalar=64";
    class       volVectorField;
    location    "1.375";
    object      diffU;
}
// * * * * * * * * * * * * * * * * * * * * * * * * * * * * * * * * * * * * * //

dimensions      [0 1 -1 0 0 0 0];

internalField   nonuniform List<vector> 
400
(
(0 0 0)
(-0.00153567 0.000664513 0)
(-0.00425483 0.00111051 0)
(-0.00737704 0.00129039 0)
(-0.010689 0.00134666 0)
(-0.0140662 0.00135974 0)
(-0.0174463 0.00135116 0)
(-0.0207482 0.00130878 0)
(-0.0238357 0.00118624 0)
(-0.0265233 0.000913285 0)
(-0.0283928 0.000467452 0)
(-0.0290542 -0.0001008 0)
(-0.0283207 -0.00105501 0)
(-0.0256759 -0.00202998 0)
(-0.0213941 -0.00290319 0)
(-0.0159345 -0.00339768 0)
(-0.0101563 -0.00332138 0)
(-0.0049602 -0.00262921 0)
(-0.00106288 -0.0014226 0)
(0.000418254 -0.000275193 0)
(-0.000680955 0.00156459 0)
(-0.00328427 0.00335922 0)
(-0.00666221 0.00438959 0)
(-0.0103956 0.00486864 0)
(-0.0143287 0.00506368 0)
(-0.0183592 0.0051149 0)
(-0.022396 0.0050432 0)
(-0.0263086 0.00479074 0)
(-0.0299055 0.00423912 0)
(-0.0329166 0.00324377 0)
(-0.0349754 0.00171189 0)
(-0.0356791 -0.000371788 0)
(-0.0346804 -0.00295504 0)
(-0.03172 -0.00570788 0)
(-0.0268995 -0.00803882 0)
(-0.0207245 -0.00928948 0)
(-0.014114 -0.00907057 0)
(-0.00809549 -0.0074215 0)
(-0.0032559 -0.00465805 0)
(-0.000317361 -0.00147841 0)
(-0.00122778 0.00429921 0)
(-0.00436913 0.00669541 0)
(-0.00790034 0.00799991 0)
(-0.0117106 0.008714 0)
(-0.0157249 0.00907991 0)
(-0.019882 0.00921329 0)
(-0.0241102 0.00910786 0)
(-0.0282915 0.00865435 0)
(-0.0322387 0.0076629 0)
(-0.0356737 0.00591572 0)
(-0.0382251 0.00325659 0)
(-0.0394629 -0.000346375 0)
(-0.0389259 -0.0047462 0)
(-0.0361551 -0.0094625 0)
(-0.0309964 -0.0135515 0)
(-0.023895 -0.0158662 0)
(-0.0159725 -0.0156428 0)
(-0.0088479 -0.0130529 0)
(-0.00352069 -0.00886433 0)
(-0.000449034 -0.00386226 0)
(-0.00147214 0.00747755 0)
(-0.00488224 0.0102643 0)
(-0.00849292 0.0117005 0)
(-0.0123187 0.0125883 0)
(-0.0163461 0.0131351 0)
(-0.0205698 0.0134133 0)
(-0.0249773 0.0133761 0)
(-0.0294991 0.012856 0)
(-0.033989 0.0115789 0)
(-0.0381948 0.00922874 0)
(-0.0417577 0.0055599 0)
(-0.0442237 0.000471051 0)
(-0.0449806 -0.00594817 0)
(-0.0431452 -0.0132419 0)
(-0.0379496 -0.0200235 0)
(-0.0294527 -0.0242307 0)
(-0.0187209 -0.024114 0)
(-0.00855598 -0.0196599 0)
(-0.00191165 -0.0129665 0)
(0.00025782 -0.0056417 0)
(-0.00152014 0.0108457 0)
(-0.00500387 0.0139632 0)
(-0.00862822 0.0154723 0)
(-0.01244 0.0165112 0)
(-0.016477 0.0172735 0)
(-0.0207855 0.0177962 0)
(-0.0254232 0.0179896 0)
(-0.0304014 0.0176241 0)
(-0.0356579 0.0163333 0)
(-0.0410324 0.0136938 0)
(-0.0462999 0.00936329 0)
(-0.0511985 0.00307941 0)
(-0.0552496 -0.00538254 0)
(-0.0571705 -0.0157321 0)
(-0.0549292 -0.0264043 0)
(-0.0466723 -0.034319 0)
(-0.0321107 -0.0362143 0)
(-0.0144104 -0.0297832 0)
(-0.000763892 -0.0175225 0)
(0.00166337 -0.0058151 0)
(-0.00145663 0.0141956 0)
(-0.00486611 0.0176396 0)
(-0.00841964 0.019218 0)
(-0.0121601 0.0204202 0)
(-0.0161638 0.0214576 0)
(-0.0205258 0.0223477 0)
(-0.0253785 0.0229757 0)
(-0.0308399 0.0230698 0)
(-0.0369941 0.0221998 0)
(-0.0439042 0.0198907 0)
(-0.0518362 0.0158149 0)
(-0.0613842 0.00969685 0)
(-0.07267 0.000920047 0)
(-0.0836075 -0.0117202 0)
(-0.0891762 -0.0285263 0)
(-0.0837841 -0.0454866 0)
(-0.066684 -0.0550171 0)
(-0.0399611 -0.0500768 0)
(-0.00940495 -0.0289638 0)
(0.00278937 -0.00573153 0)
(-0.0013202 0.0173848 0)
(-0.00453622 0.0211799 0)
(-0.00791948 0.0228498 0)
(-0.0114942 0.0242383 0)
(-0.0153626 0.0256088 0)
(-0.0196584 0.0269873 0)
(-0.0245828 0.0282662 0)
(-0.0303796 0.0291906 0)
(-0.0373514 0.0293918 0)
(-0.0459715 0.0286126 0)
(-0.0575295 0.0270112 0)
(-0.0740699 0.0243478 0)
(-0.09532 0.0171901 0)
(-0.114459 -9.80024e-05 0)
(-0.123652 -0.0277374 0)
(-0.121695 -0.0582734 0)
(-0.106745 -0.0810612 0)
(-0.0774245 -0.0846707 0)
(-0.0366633 -0.059314 0)
(0.000892861 -0.0132567 0)
(-0.00112663 0.0203003 0)
(-0.00404348 0.0244745 0)
(-0.00714587 0.0262587 0)
(-0.0104288 0.0278483 0)
(-0.0140027 0.0295839 0)
(-0.0180173 0.0315297 0)
(-0.0227148 0.0336282 0)
(-0.0284398 0.0357366 0)
(-0.035678 0.0377696 0)
(-0.0451838 0.0400837 0)
(-0.0591427 0.0434076 0)
(-0.0797231 0.0457036 0)
(-0.103637 0.0384968 0)
(-0.122061 0.0141448 0)
(-0.131198 -0.0249047 0)
(-0.132226 -0.0669433 0)
(-0.1252 -0.103836 0)
(-0.104735 -0.123904 0)
(-0.0654118 -0.107149 0)
(-0.0133649 -0.0363779 0)
(-0.000887159 0.0228458 0)
(-0.00341041 0.0274139 0)
(-0.00611907 0.0293178 0)
(-0.00896826 0.0310912 0)
(-0.0120523 0.0331668 0)
(-0.0155041 0.0356667 0)
(-0.019556 0.0386161 0)
(-0.0245637 0.0420495 0)
(-0.0310081 0.0462601 0)
(-0.0395875 0.0522009 0)
(-0.0523122 0.0605146 0)
(-0.0702488 0.0658774 0)
(-0.0890031 0.0564212 0)
(-0.101259 0.0255542 0)
(-0.104929 -0.0187979 0)
(-0.105513 -0.0659186 0)
(-0.106683 -0.110323 0)
(-0.102147 -0.148483 0)
(-0.0788073 -0.15835 0)
(-0.0318197 -0.0887232 0)
(-0.000617475 0.024942 0)
(-0.00267305 0.0298988 0)
(-0.00488887 0.0318996 0)
(-0.00717208 0.0337941 0)
(-0.00957667 0.0361098 0)
(-0.0121869 0.0390292 0)
(-0.015171 0.0426608 0)
(-0.0187823 0.0471935 0)
(-0.0233161 0.0531757 0)
(-0.0290033 0.0617964 0)
(-0.0367073 0.0732086 0)
(-0.0470358 0.0796562 0)
(-0.0573368 0.0677487 0)
(-0.0616454 0.0328092 0)
(-0.0603276 -0.0148595 0)
(-0.0592553 -0.0614138 0)
(-0.0633029 -0.103051 0)
(-0.0710891 -0.148423 0)
(-0.068606 -0.189991 0)
(-0.0366051 -0.149146 0)
(-0.000342821 0.0265451 0)
(-0.0018886 0.0318503 0)
(-0.00354812 0.0338999 0)
(-0.00517137 0.0358093 0)
(-0.00675834 0.0381979 0)
(-0.00832769 0.0412978 0)
(-0.00995211 0.0452658 0)
(-0.0117203 0.0503459 0)
(-0.0136509 0.0570813 0)
(-0.0154607 0.0664725 0)
(-0.01691 0.0783198 0)
(-0.0181855 0.0840989 0)
(-0.02027 0.0721642 0)
(-0.0203124 0.0354909 0)
(-0.0182993 -0.0144961 0)
(-0.0182613 -0.0607755 0)
(-0.0228966 -0.0964713 0)
(-0.0329925 -0.134676 0)
(-0.0445537 -0.192904 0)
(-0.0305505 -0.201054 0)
(-9.11597e-05 0.0276537 0)
(-0.00114023 0.0332435 0)
(-0.00222778 0.0352601 0)
(-0.00315163 0.0370457 0)
(-0.00385729 0.0392987 0)
(-0.00430189 0.0422846 0)
(-0.0044701 0.0461583 0)
(-0.00429895 0.0511064 0)
(-0.00358888 0.057491 0)
(-0.00178283 0.0658934 0)
(0.00209472 0.0759158 0)
(0.00823945 0.0807095 0)
(0.0136236 0.0700155 0)
(0.0176085 0.0366238 0)
(0.0179678 -0.0122373 0)
(0.0134857 -0.0567662 0)
(0.00451587 -0.0906976 0)
(-0.00556982 -0.122089 0)
(-0.0212642 -0.180395 0)
(-0.0209725 -0.234037 0)
(9.4665e-05 0.0283053 0)
(-0.000539339 0.0341017 0)
(-0.00109151 0.0359773 0)
(-0.00133452 0.0374832 0)
(-0.00117039 0.0393837 0)
(-0.00051902 0.0419704 0)
(0.000680802 0.0453682 0)
(0.0025712 0.0496554 0)
(0.00543623 0.0549247 0)
(0.00988678 0.0612946 0)
(0.0170003 0.0682663 0)
(0.0270656 0.0711231 0)
(0.0373903 0.0615688 0)
(0.0446609 0.0344009 0)
(0.0454531 -0.00613059 0)
(0.0374143 -0.047001 0)
(0.0239663 -0.0797255 0)
(0.0102749 -0.110275 0)
(-0.00572681 -0.166305 0)
(-0.0145829 -0.249661 0)
(0.000154421 0.0287079 0)
(-0.000205138 0.0345374 0)
(-0.000316828 0.0361169 0)
(5.25936e-05 0.0371635 0)
(0.00101806 0.0385151 0)
(0.00266415 0.0404726 0)
(0.00504842 0.0431284 0)
(0.00830569 0.0464601 0)
(0.0126827 0.0503433 0)
(0.0186093 0.0545269 0)
(0.0268971 0.0582909 0)
(0.0377874 0.0587288 0)
(0.0492909 0.0500646 0)
(0.0572849 0.0289708 0)
(0.0583483 -0.00216768 0)
(0.0504622 -0.0355428 0)
(0.0359901 -0.0654811 0)
(0.019476 -0.0948656 0)
(0.00271172 -0.15104 0)
(-0.0124697 -0.256906 0)
(1.41596e-05 0.0289 0)
(-0.000334798 0.0346379 0)
(-0.000131896 0.0357198 0)
(0.000796682 0.0361366 0)
(0.00249134 0.0367699 0)
(0.00500359 0.037942 0)
(0.00836666 0.0397221 0)
(0.0126606 0.0420207 0)
(0.0180253 0.0445903 0)
(0.0246811 0.0469889 0)
(0.032963 0.0484051 0)
(0.0429873 0.0470295 0)
(0.0532705 0.0396535 0)
(0.06028 0.0239537 0)
(0.061236 0.00114089 0)
(0.0544486 -0.0249378 0)
(0.0412423 -0.0505655 0)
(0.0242985 -0.0785494 0)
(0.00761068 -0.133229 0)
(-0.0121232 -0.259471 0)
(-0.000498873 0.0302322 0)
(-0.00104663 0.0349263 0)
(-0.000615192 0.0350481 0)
(0.000781389 0.0345651 0)
(0.00313491 0.0343138 0)
(0.00639697 0.0345933 0)
(0.0105533 0.0354422 0)
(0.0156351 0.0367412 0)
(0.0216849 0.0382114 0)
(0.0287347 0.0393851 0)
(0.0367442 0.0395294 0)
(0.0455185 0.0374461 0)
(0.0539868 0.0315701 0)
(0.0597935 0.0203755 0)
(0.0605969 0.00410662 0)
(0.055163 -0.0155844 0)
(0.0435883 -0.0364608 0)
(0.0283215 -0.0630298 0)
(0.0132108 -0.114317 0)
(-0.0112077 -0.261073 0)
(-0.00156677 0.0281987 0)
(-0.00312663 0.0327074 0)
(-0.00218413 0.0326125 0)
(-4.93472e-05 0.0316735 0)
(0.00301469 0.0308244 0)
(0.00699258 0.0304104 0)
(0.0118622 0.0304747 0)
(0.0176265 0.0309307 0)
(0.0242506 0.0315441 0)
(0.0316402 0.0319412 0)
(0.039583 0.0315606 0)
(0.0476391 0.0296019 0)
(0.0549386 0.0252349 0)
(0.0600408 0.0175224 0)
(0.0609875 0.00645883 0)
(0.0568286 -0.00784044 0)
(0.0460915 -0.0241924 0)
(0.0361838 -0.0504333 0)
(0.0206624 -0.0967981 0)
(-0.00775616 -0.265951 0)
(-0.00352078 0.0449146 0)
(-0.00508155 0.0438618 0)
(-0.00272551 0.038319 0)
(0.00048867 0.0333503 0)
(0.00439056 0.029972 0)
(0.00910936 0.0277082 0)
(0.0148014 0.0263055 0)
(0.0213502 0.0255471 0)
(0.02867 0.0251625 0)
(0.0366221 0.0248316 0)
(0.0449435 0.0241459 0)
(0.0531348 0.0225965 0)
(0.0604187 0.0197015 0)
(0.0656375 0.0150913 0)
(0.0672337 0.00845657 0)
(0.0650058 -0.000889892 0)
(0.05432 -0.0132112 0)
(0.054915 -0.0388658 0)
(0.0239058 -0.0764942 0)
(0.00518451 -0.267261 0)
(-0.00583681 0.0168681 0)
(-0.00884448 0.00973349 0)
(-0.000489374 0.0102416 0)
(0.00865849 0.0133793 0)
(0.0182013 0.0143104 0)
(0.027779 0.0139914 0)
(0.0371268 0.01359 0)
(0.0463269 0.0133846 0)
(0.0555251 0.0132936 0)
(0.0648107 0.0132018 0)
(0.0741187 0.0129811 0)
(0.0831659 0.0124379 0)
(0.0914262 0.0113546 0)
(0.0983557 0.00946767 0)
(0.102501 0.0066899 0)
(0.105301 0.00191875 0)
(0.0960727 -0.0040849 0)
(0.106196 -0.0216161 0)
(0.0299925 -0.0421443 0)
(0.0711448 -0.225557 0)
(0.0409809 0.0924234 0)
(0.0624495 0.0697114 0)
(0.0878672 0.043775 0)
(0.109759 0.0291121 0)
(0.126696 0.0213703 0)
(0.140933 0.0168003 0)
(0.15391 0.0137755 0)
(0.166042 0.0116137 0)
(0.177468 0.00998231 0)
(0.188329 0.00872065 0)
(0.198698 0.00769218 0)
(0.208537 0.00681065 0)
(0.21761 0.00601052 0)
(0.225762 0.00521679 0)
(0.231696 0.00433767 0)
(0.237571 0.00308821 0)
(0.230794 0.00167495 0)
(0.25157 -0.00343169 0)
(0.124876 0.00332175 0)
(0.378155 -0.0982741 0)
)
;

boundaryField
{
    movingWall
    {
        type            calculated;
        value           uniform (1.00029 -0.0002895 0);
    }
    fixedWalls
    {
        type            calculated;
        value           uniform (0.000292698 -0.0002895 0);
    }
    frontAndBack
    {
        type            empty;
    }
}


// ************************************************************************* //
