/*--------------------------------*- C++ -*----------------------------------*\
| =========                 |                                                 |
| \\      /  F ield         | OpenFOAM: The Open Source CFD Toolbox           |
|  \\    /   O peration     | Version:  2312                                  |
|   \\  /    A nd           | Website:  www.openfoam.com                      |
|    \\/     M anipulation  |                                                 |
\*---------------------------------------------------------------------------*/
FoamFile
{
    version     2.0;
    format      ascii;
    arch        "LSB;label=32;scalar=64";
    class       volScalarField;
    location    "1.375";
    object      divU;
}
// * * * * * * * * * * * * * * * * * * * * * * * * * * * * * * * * * * * * * //

dimensions      [0 0 -1 0 0 0 0];

internalField   nonuniform List<scalar> 
400
(
0.00225235
0.03479
0.0237738
0.0303909
0.0300205
0.0296294
0.0291311
0.0289149
0.0229321
0.0178926
0.0227411
0.0178548
-0.00528044
-0.0232325
-0.0621553
-0.0870328
-0.0838664
-0.037828
-0.0123193
0.00554158
-0.025141
0.00496432
-0.022198
-0.0242879
-0.0230323
-0.0213783
-0.0192652
-0.0163931
-0.0131339
-0.00674844
0.00265721
0.00494625
0.0267989
0.034843
0.0347223
0.0316889
0.030754
0.0434418
0.0336391
0.0571595
-0.0269344
0.023257
-0.00305639
-0.0104879
-0.0100021
-0.00869174
-0.00766337
-0.00632323
-0.00424101
-0.00014698
0.00588365
0.0142091
0.0314709
0.0395491
0.027534
0.00826735
0.00036657
0.0213382
0.00904568
0.0391829
-0.0393286
0.0247015
0.00359208
-0.00559197
-0.00575025
-0.00483322
-0.00475908
-0.00419622
-0.00252658
0.000938428
0.00777364
0.0202904
0.0442188
0.0761396
0.0839714
0.0776031
0.032518
0.00788792
0.0155606
0.0286377
-0.0391385
0.0267172
0.00814149
-0.00168203
-0.00229851
-0.0011907
-0.00163347
-0.00209491
-0.00101279
0.00199613
0.00888636
0.0276096
0.0896218
0.184213
0.199545
0.156262
0.135885
0.0929923
0.00764154
-0.040392
-0.0369029
0.025368
0.00834956
-0.00170515
-0.00304122
-0.00235697
-0.00374083
-0.004908
-0.000585377
0.00766417
0.0167871
0.0434526
0.0349384
-0.0872038
-0.150977
-0.146232
-0.102385
0.23916
0.0959017
-0.0240638
-0.0337092
0.0235672
0.00828132
-0.00149937
-0.00379054
-0.00381956
-0.00687278
-0.0101719
-0.00219927
0.00149083
-0.0505692
-0.178372
-0.281219
-0.246721
-0.361478
-0.454991
-0.454826
-0.374482
0.013253
0.570953
-0.0294482
0.0214754
0.00826627
-0.000395361
-0.00304221
-0.00326769
-0.00726633
-0.0104374
0.0124312
0.0123691
-0.103591
-0.296505
-0.310711
-0.190847
-0.122468
-0.164734
-0.177113
-0.402359
-0.766592
0.389564
-0.0241285
0.0192305
0.00830282
0.00125625
-0.00099747
-0.000424294
-0.00269833
0.000466665
0.0382308
0.0408625
-0.086038
-0.273835
-0.175877
0.273816
0.579171
0.377544
0.415145
0.335683
-1.25153
-0.15559
-0.0176637
0.0165004
0.00830092
0.00302749
0.00161682
0.00367974
0.00544382
0.0151273
0.0600116
0.088042
-0.0227213
-0.240806
0.113334
0.694603
0.669188
0.216778
0.201762
0.850373
-0.00699606
-0.653465
-0.0105095
0.0139413
0.00776887
0.00414079
0.00325757
0.00615986
0.0104877
0.0214182
0.0574834
0.0837887
-0.00175336
-0.230671
0.0139907
0.578522
0.467327
0.00502581
-0.237786
0.467642
1.20376
-0.920138
-0.00565764
0.0114819
0.00660823
0.00444286
0.00356292
0.00597248
0.0105321
0.0190774
0.0359517
0.050571
-0.00312893
-0.144687
-0.122632
0.325421
0.424267
0.0322547
-0.23097
-0.137902
1.11968
-0.578487
0.0024187
0.0107755
0.00616212
0.00389332
0.00318551
0.00391941
0.00603091
0.0109155
0.0167967
0.0197657
-0.04461
-0.15907
-0.235565
0.0409867
0.282309
-0.026329
-0.192292
-0.246939
0.449769
-0.197383
-0.00414326
0.00649092
1.74423e-05
-0.00117521
-0.000232967
0.000202615
-0.000455484
-5.49813e-05
-0.00307672
-0.00912989
-0.0683135
-0.169976
-0.241771
-0.138978
0.0448765
-0.0294985
-0.182623
-0.155312
0.113027
0.0533919
0.0618188
0.0242821
0.00627238
0.00247541
0.000561783
-0.000394699
-0.00292006
-0.00603014
-0.0111445
-0.0204083
-0.045527
-0.0975168
-0.120183
-0.0629799
0.0442913
-0.00353627
-0.112979
-0.179574
0.0301116
0.0930691
-0.283223
-0.204677
-0.127927
-0.0713002
-0.0329928
-0.0113242
-0.000922982
0.00416388
0.00534203
0.00116296
-0.0060669
-0.0184939
-0.0143617
0.0178783
0.0687483
0.00886857
-0.0468463
-0.226131
-0.309859
-0.789796
0.940363
0.831818
0.634814
0.398409
0.270013
0.196236
0.149714
0.119424
0.0964908
0.0778937
0.0615317
0.0505968
0.053314
0.0764672
0.11378
-0.0201481
0.260474
-0.126518
-0.611708
-1.85084
-2.05183
-2.21787
-1.68006
-1.11781
-0.789331
-0.600826
-0.464385
-0.367742
-0.297861
-0.246591
-0.206685
-0.16888
-0.137759
-0.123973
-0.0400702
-0.315445
1.00167
-0.159695
0.492333
1.18888
3.22421
3.1197
2.2959
1.44525
1.05188
0.801757
0.601783
0.446497
0.330364
0.248261
0.190148
0.152167
0.149873
0.120048
0.28268
-0.245042
1.57809
-3.0646
4.47647
6.84347
-0.702547
-3.31375
-0.728618
-0.424209
-0.508535
-0.4156
-0.283609
-0.20193
-0.156769
-0.127143
-0.104398
-0.0915911
-0.0719374
-0.117739
0.0202858
-0.648769
1.58301
-8.14495
16.4828
-17.9193
)
;

boundaryField
{
    movingWall
    {
        type            extrapolatedCalculated;
        value           nonuniform List<scalar> 
20
(
-0.702547
-3.31375
-0.728618
-0.424209
-0.508535
-0.4156
-0.283609
-0.20193
-0.156769
-0.127143
-0.104398
-0.0915911
-0.0719374
-0.117739
0.0202858
-0.648769
1.58301
-8.14495
16.4828
-17.9193
)
;
    }
    fixedWalls
    {
        type            extrapolatedCalculated;
        value           nonuniform List<scalar> 
60
(
0.00225235
-0.025141
-0.0269344
-0.0393286
-0.0391385
-0.0369029
-0.0337092
-0.0294482
-0.0241285
-0.0176637
-0.0105095
-0.00565764
0.0024187
-0.00414326
0.0618188
-0.283223
0.940363
-2.05183
3.22421
-0.702547
0.00554158
0.0571595
0.0391829
0.0286377
-0.040392
-0.0240638
0.570953
0.389564
-0.15559
-0.653465
-0.920138
-0.578487
-0.197383
0.0533919
0.0930691
-0.789796
-1.85084
1.18888
6.84347
-17.9193
0.00225235
0.03479
0.0237738
0.0303909
0.0300205
0.0296294
0.0291311
0.0289149
0.0229321
0.0178926
0.0227411
0.0178548
-0.00528044
-0.0232325
-0.0621553
-0.0870328
-0.0838664
-0.037828
-0.0123193
0.00554158
)
;
    }
    frontAndBack
    {
        type            empty;
    }
}


// ************************************************************************* //
