/*--------------------------------*- C++ -*----------------------------------*\
| =========                 |                                                 |
| \\      /  F ield         | OpenFOAM: The Open Source CFD Toolbox           |
|  \\    /   O peration     | Version:  2312                                  |
|   \\  /    A nd           | Website:  www.openfoam.com                      |
|    \\/     M anipulation  |                                                 |
\*---------------------------------------------------------------------------*/
FoamFile
{
    version     2.0;
    format      ascii;
    arch        "LSB;label=32;scalar=64";
    class       volScalarField;
    location    "1.375";
    object      flowTypeField;
}
// * * * * * * * * * * * * * * * * * * * * * * * * * * * * * * * * * * * * * //

dimensions      [0 0 0 0 0 0 0];

internalField   nonuniform List<scalar> 
400
(
0.259042
0.203728
0.141871
0.0929564
0.060319
0.0401948
0.02821
0.0214815
0.0186057
0.0177596
0.0175107
0.0233101
0.033023
0.0453446
0.0650546
0.0923497
0.128322
0.171429
0.212515
0.216143
0.187229
0.359566
0.466349
0.512332
0.513054
0.4906
0.461166
0.433196
0.411361
0.39911
0.401242
0.448626
0.54088
0.602724
0.616102
0.589258
0.533542
0.43904
0.30046
0.170884
0.13444
0.443422
0.583923
0.676575
0.732704
0.765165
0.787758
0.812204
0.846922
0.892825
0.93346
0.93686
0.89036
0.813436
0.73081
0.655188
0.604932
0.557596
0.43138
0.142808
0.0949348
0.504117
0.661773
0.757269
0.824972
0.875397
0.919021
0.966583
0.978041
0.933713
0.936279
0.981354
0.840315
0.68791
0.544368
0.42478
0.350423
0.340977
0.365254
0.127656
0.0654373
0.534814
0.719678
0.811686
0.876354
0.927615
0.97644
0.969931
0.920513
0.903229
0.963797
0.876599
0.689189
0.519772
0.378411
0.2723
0.187099
0.1146
0.0680393
0.111317
0.045416
0.539044
0.75842
0.848586
0.908593
0.95882
0.98861
0.933505
0.894111
0.913139
0.950894
0.752806
0.606175
0.537293
0.491407
0.394016
0.258616
0.140238
0.0285907
0.0214991
0.0324963
0.523299
0.782868
0.875897
0.933202
0.984536
0.958851
0.905429
0.885436
0.947114
0.898484
0.805365
0.872396
0.877802
0.723875
0.914144
0.593949
0.269159
0.104812
-0.00421889
0.0241233
0.490978
0.796055
0.898213
0.956474
0.988618
0.930371
0.885897
0.892872
0.969744
0.988382
0.81581
0.385724
-0.0228311
-0.209477
-0.193773
0.170009
0.711093
0.203403
0.0394851
0.0184759
0.443481
0.798453
0.917939
0.98134
0.960201
0.903225
0.868921
0.889656
0.929482
0.778787
0.349249
-0.176893
-0.564784
-0.726309
-0.780419
-0.743666
-0.200107
0.44464
0.0793754
0.0143629
0.381984
0.787635
0.935251
0.991952
0.931865
0.878003
0.849261
0.865721
0.854334
0.570773
0.0270472
-0.510678
-0.834357
-0.892233
-0.908044
-0.736075
-0.700833
0.373885
0.0898247
0.0110741
0.309514
0.756867
0.948656
0.964782
0.904441
0.85353
0.822424
0.821542
0.782487
0.456092
-0.108838
-0.679932
-0.890852
-0.807626
-0.844242
-0.671416
-0.477471
-0.655892
0.0755644
0.00794958
0.228976
0.694937
0.953841
0.938894
0.878899
0.829675
0.793314
0.776597
0.733874
0.468086
-0.0489264
-0.61605
-0.777771
-0.657775
-0.58142
-0.470977
-0.320769
-0.278616
0.0496676
0.00417051
0.141512
0.580748
0.940671
0.921463
0.864047
0.817507
0.775222
0.743133
0.705247
0.532604
0.141218
-0.315882
-0.539356
-0.463746
-0.32555
-0.214449
-0.142049
-0.122954
0.0231243
-0.00116807
0.0319605
0.369827
0.903462
0.922185
0.868779
0.825178
0.778482
0.731787
0.683929
0.577752
0.322627
-0.021202
-0.240891
-0.225653
-0.112104
-0.0212652
-0.014837
-0.0387254
0.00664214
-0.00979914
-0.121024
0.164968
0.889928
0.93505
0.890851
0.853844
0.805886
0.747372
0.680182
0.592863
0.43258
0.183437
-0.0171831
-0.029697
0.0447356
0.101008
0.0377197
-0.0158258
0.00335865
-0.0234389
-0.381933
0.538717
0.973746
0.917993
0.893317
0.869641
0.829223
0.770356
0.693959
0.597329
0.468322
0.269522
0.0586953
0.0251824
0.0876613
0.131747
-0.00867873
-0.0269806
0.0118044
-0.0158936
0.199979
0.736279
0.679343
0.645709
0.67923
0.690892
0.681947
0.650716
0.594226
0.503706
0.368837
0.147641
-0.177084
-0.225404
-0.0563321
0.00907493
-0.189
-0.0125075
0.0459219
-0.0335298
0.950746
0.469069
0.238919
0.147225
0.139615
0.154712
0.168634
0.173902
0.164007
0.129791
0.0603236
-0.0573997
-0.231763
-0.384666
-0.331069
-0.442359
-0.381805
0.0103827
0.236314
0.706205
-0.0186993
0.0584408
0.0511109
0.0191421
0.0080441
0.00836779
0.0104089
0.0113978
0.0108064
0.00768595
0.000874891
-0.0102577
-0.024621
-0.0445826
-0.0613537
-0.128733
-0.103256
-0.309927
0.736613
0.0852578
-0.0237966
-0.0204778
-0.0114181
-0.0062984
-0.00388693
-0.00264964
-0.00193139
-0.00146564
-0.00115349
-0.000961143
-0.000855305
-0.000833959
-0.000920951
-0.00122787
-0.00160042
-0.0038596
0.00317788
-0.0485564
0.118838
)
;

boundaryField
{
    movingWall
    {
        type            calculated;
        value           nonuniform List<scalar> 
20
(
0.0469807
-0.0100463
-0.00984893
-0.00567837
-0.00317393
-0.00197945
-0.00136599
-0.00100973
-0.000777985
-0.000622085
-0.000526179
-0.000472899
-0.000461528
-0.000504311
-0.000666825
-0.000862906
-0.00210457
0.00118257
-0.0263871
0.066561
)
;
    }
    fixedWalls
    {
        type            calculated;
        value           nonuniform List<scalar> 
60
(
0.175425
0.0862606
0.0525389
0.0352633
0.0238163
0.0166612
0.0123663
0.00974372
0.0080195
0.0066982
0.00549632
0.00413062
0.00221324
-0.000669528
-0.00546311
-0.0125875
-0.0157523
-0.0178918
0.698768
0.192067
0.630605
0.127331
0.093074
0.102076
0.137783
0.0974666
-0.0946277
-0.0125011
0.0413083
0.046267
0.0356481
0.0223269
0.0105236
0.00366923
0.00236741
0.00516796
0.0158868
0.0746458
0.439654
0.43226
0.172141
0.09481
0.053984
0.0327193
0.0202063
0.0130872
0.00926885
0.00763848
0.00770233
0.00857704
0.00941835
0.0129899
0.0176215
0.0220682
0.0285758
0.0373392
0.050569
0.0739226
0.144788
0.588364
)
;
    }
    frontAndBack
    {
        type            empty;
    }
}


// ************************************************************************* //
