/*--------------------------------*- C++ -*----------------------------------*\
| =========                 |                                                 |
| \\      /  F ield         | OpenFOAM: The Open Source CFD Toolbox           |
|  \\    /   O peration     | Version:  2312                                  |
|   \\  /    A nd           | Website:  www.openfoam.com                      |
|    \\/     M anipulation  |                                                 |
\*---------------------------------------------------------------------------*/
FoamFile
{
    version     2.0;
    format      ascii;
    arch        "LSB;label=32;scalar=64";
    class       volTensorField;
    location    "1.375";
    object      gradU;
}
// * * * * * * * * * * * * * * * * * * * * * * * * * * * * * * * * * * * * * //

dimensions      [0 0 -1 0 0 0 0];

internalField   nonuniform List<tensor> 
400
(
(-0.212107 0.124351 0 -0.126635 0.214359 0 0 0 0)
(-0.425483 0.111051 0 -0.540533 0.460273 0 0 0 0)
(-0.584137 0.0625879 0 -1.15024 0.60791 0 0 0 0)
(-0.643412 0.0236149 0 -1.83581 0.673803 0 0 0 0)
(-0.668913 0.00693503 0 -2.5603 0.698934 0 0 0 0)
(-0.675735 0.000450636 0 -3.30108 0.705364 0 0 0 0)
(-0.668205 -0.00509655 0 -4.04277 0.697336 0 0 0 0)
(-0.638936 -0.0164923 0 -4.76422 0.667851 0 0 0 0)
(-0.577503 -0.0395491 0 -5.43266 0.600436 0 0 0 0)
(-0.455713 -0.0718787 0 -6.00252 0.473606 0 0 0 0)
(-0.253093 -0.101408 0 -6.39536 0.275835 0 0 0 0)
(0.00721345 -0.152246 0 -6.53187 0.0106413 0 0 0 0)
(0.337825 -0.192918 0 -6.35865 -0.343105 0 0 0 0)
(0.692653 -0.184818 0 -5.79813 -0.715885 0 0 0 0)
(0.974145 -0.136771 0 -4.8879 -1.0363 0 0 0 0)
(1.12378 -0.0418195 0 -3.72443 -1.21082 0 0 0 0)
(1.09743 0.0768472 0 -2.48557 -1.1813 0 0 0 0)
(0.909343 0.189879 0 -1.36411 -0.94717 0 0 0 0)
(0.537846 0.235402 0 -0.490417 -0.550165 0 0 0 0)
(0.123002 0.111879 0 -0.0484502 -0.11746 0 0 0 0)
(-0.455062 0.550281 0 -0.122778 0.429921 0 0 0 0)
(-0.598125 0.282501 0 -0.283346 0.603089 0 0 0 0)
(-0.711138 0.150942 0 -0.364551 0.68894 0 0 0 0)
(-0.766649 0.0674085 0 -0.433354 0.742361 0 0 0 0)
(-0.796358 0.0246265 0 -0.50359 0.773325 0 0 0 0)
(-0.806733 -0.0020482 0 -0.581581 0.785354 0 0 0 0)
(-0.794935 -0.0324167 0 -0.666389 0.77567 0 0 0 0)
(-0.750951 -0.0804083 0 -0.754331 0.734558 0 0 0 0)
(-0.6608 -0.154696 0 -0.840304 0.647666 0 0 0 0)
(-0.506991 -0.252722 0 -0.915049 0.500243 0 0 0 0)
(-0.276257 -0.361556 0 -0.983235 0.278914 0 0 0 0)
(0.0295038 -0.466693 0 -1.04087 -0.0245575 0 0 0 0)
(0.395918 -0.533609 0 -1.06052 -0.369119 0 0 0 0)
(0.778095 -0.508377 0 -1.04791 -0.743252 0 0 0 0)
(1.09955 -0.35816 0 -0.960228 -1.06483 0 0 0 0)
(1.27855 -0.103176 0 -0.796053 -1.24686 0 0 0 0)
(1.2629 0.186799 0 -0.581619 -1.23214 0 0 0 0)
(1.08581 0.441252 0 -0.388769 -1.04237 0 0 0 0)
(0.777813 0.594309 0 -0.245781 -0.744174 0 0 0 0)
(0.415866 0.555746 0 -0.0867289 -0.358706 0 0 0 0)
(-0.618231 1.15736 0 -0.079119 0.591296 0 0 0 0)
(-0.667255 0.37007 0 -0.159797 0.690512 0 0 0 0)
(-0.734144 0.201859 0 -0.183071 0.731088 0 0 0 0)
(-0.782452 0.108 0 -0.192306 0.771964 0 0 0 0)
(-0.817141 0.0499284 0 -0.201739 0.807139 0 0 0 0)
(-0.838534 0.00279494 0 -0.221058 0.829842 0 0 0 0)
(-0.840955 -0.0558933 0 -0.258127 0.833291 0 0 0 0)
(-0.812851 -0.144496 0 -0.319051 0.806528 0 0 0 0)
(-0.738222 -0.273864 0 -0.408348 0.733981 0 0 0 0)
(-0.598644 -0.440631 0 -0.527818 0.598497 0 0 0 0)
(-0.378917 -0.626209 0 -0.67823 0.3848 0 0 0 0)
(-0.0700748 -0.800279 0 -0.854458 0.0842839 0 0 0 0)
(0.330784 -0.911612 0 -1.03002 -0.299313 0 0 0 0)
(0.792948 -0.880526 0 -1.14252 -0.753399 0 0 0 0)
(1.22601 -0.640375 0 -1.10502 -1.19847 0 0 0 0)
(1.50239 -0.209135 0 -0.872823 -1.49413 0 0 0 0)
(1.50471 0.281335 0 -0.460685 -1.50435 0 0 0 0)
(1.24518 0.677848 0 -0.0460494 -1.22384 0 0 0 0)
(0.839886 0.919063 0 0.134426 -0.830841 0 0 0 0)
(0.455512 1.21476 0 0.0575182 -0.416329 0 0 0 0)
(-0.693978 1.83209 0 -0.0292356 0.654649 0 0 0 0)
(-0.702078 0.422292 0 -0.0634737 0.726779 0 0 0 0)
(-0.743647 0.232393 0 -0.0727878 0.747239 0 0 0 0)
(-0.785316 0.143459 0 -0.0729401 0.779724 0 0 0 0)
(-0.825109 0.0825052 0 -0.0752133 0.819359 0 0 0 0)
(-0.863121 0.0241041 0 -0.0903524 0.858288 0 0 0 0)
(-0.892928 -0.0557309 0 -0.131303 0.888169 0 0 0 0)
(-0.901172 -0.179719 0 -0.210987 0.896975 0 0 0 0)
(-0.869567 -0.362727 0 -0.341922 0.86704 0 0 0 0)
(-0.776873 -0.601902 0 -0.535861 0.777811 0 0 0 0)
(-0.602896 -0.875769 0 -0.807479 0.61067 0 0 0 0)
(-0.322288 -1.15081 0 -1.17356 0.342579 0 0 0 0)
(0.107853 -1.37129 0 -1.63237 -0.0636338 0 0 0 0)
(0.7031 -1.40754 0 -2.10154 -0.62696 0 0 0 0)
(1.36925 -1.09889 0 -2.39328 -1.28528 0 0 0 0)
(1.92288 -0.40905 0 -2.27773 -1.84527 0 0 0 0)
(2.08967 0.457082 0 -1.61382 -2.05715 0 0 0 0)
(1.68092 1.11476 0 -0.556247 -1.67303 0 0 0 0)
(0.88138 1.40182 0 0.275679 -0.86582 0 0 0 0)
(0.223922 1.80292 0 0.21124 -0.195285 0 0 0 0)
(-0.71094 2.53879 0 0.00155122 0.671802 0 0 0 0)
(-0.710808 0.46266 0 0.00161309 0.737525 0 0 0 0)
(-0.743611 0.254805 0 0.00732768 0.751752 0 0 0 0)
(-0.784877 0.18012 0 0.0158599 0.783195 0 0 0 0)
(-0.834553 0.128492 0 0.0182292 0.832255 0 0 0 0)
(-0.894624 0.0716055 0 0.00440009 0.893433 0 0 0 0)
(-0.961589 -0.0172058 0 -0.0401217 0.959955 0 0 0 0)
(-1.02347 -0.165625 0 -0.134079 1.02138 0 0 0 0)
(-1.0631 -0.393028 0 -0.300505 1.06208 0 0 0 0)
(-1.0642 -0.697001 0 -0.570946 1.0662 0 0 0 0)
(-1.01661 -1.06144 0 -1.00785 1.0255 0 0 0 0)
(-0.89497 -1.47458 0 -1.71605 0.92258 0 0 0 0)
(-0.5972 -1.88115 0 -2.76894 0.686822 0 0 0 0)
(0.0320433 -2.10217 0 -4.04623 0.15217 0 0 0 0)
(1.04982 -1.85869 0 -5.12265 -0.850277 0 0 0 0)
(2.28185 -0.981009 0 -5.43314 -2.12559 0 0 0 0)
(3.22619 0.453576 0 -4.79632 -3.09031 0 0 0 0)
(3.13468 1.86918 0 -3.14052 -3.04169 0 0 0 0)
(1.60737 2.39681 0 -0.74933 -1.59973 0 0 0 0)
(-0.0314083 2.27586 0 0.253155 -0.00898377 0 0 0 0)
(-0.690813 3.24142 0 0.0199943 0.65391 0 0 0 0)
(-0.696301 0.502243 0 0.046765 0.721669 0 0 0 0)
(-0.729401 0.278064 0 0.070874 0.73775 0 0 0 0)
(-0.774415 0.223962 0 0.094582 0.77271 0 0 0 0)
(-0.836569 0.192743 0 0.111443 0.833528 0 0 0 0)
(-0.921472 0.151805 0 0.112713 0.919115 0 0 0 0)
(-1.03141 0.0722113 0 0.0840387 1.02767 0 0 0 0)
(-1.16156 -0.0775908 0 0.00217698 1.15665 0 0 0 0)
(-1.30643 -0.317906 0 -0.169349 1.30585 0 0 0 0)
(-1.48421 -0.638486 0 -0.493913 1.49188 0 0 0 0)
(-1.748 -1.01939 0 -1.12296 1.76479 0 0 0 0)
(-2.08338 -1.48948 0 -2.28714 2.12684 0 0 0 0)
(-2.22232 -2.1417 0 -4.00703 2.25726 0 0 0 0)
(-1.65061 -2.94463 0 -5.72884 1.56341 0 0 0 0)
(-0.0176649 -3.37665 0 -6.87229 -0.133313 0 0 0 0)
(2.24921 -2.64908 0 -7.50231 -2.39545 0 0 0 0)
(4.3823 -0.459017 0 -7.46347 -4.48468 0 0 0 0)
(5.72791 2.60533 0 -6.30141 -5.48875 0 0 0 0)
(4.27505 4.43453 0 -3.58994 -4.17915 0 0 0 0)
(0.720097 3.41163 0 -0.0770509 -0.744161 0 0 0 0)
(-0.644181 3.91437 0 0.033 0.610472 0 0 0 0)
(-0.659928 0.5465 0 0.0822625 0.683495 0 0 0 0)
(-0.695794 0.305845 0 0.127378 0.704075 0 0 0 0)
(-0.744308 0.275897 0 0.173128 0.742809 0 0 0 0)
(-0.816423 0.274897 0 0.216107 0.812632 0 0 0 0)
(-0.922028 0.265744 0 0.25085 0.918208 0 0 0 0)
(-1.07212 0.220326 0 0.266375 1.06525 0 0 0 0)
(-1.27686 0.112558 0 0.240008 1.26669 0 0 0 0)
(-1.55919 -0.0577978 0 0.131602 1.55699 0 0 0 0)
(-2.01781 -0.23806 0 -0.127958 2.0193 0 0 0 0)
(-2.80984 -0.426482 0 -0.730647 2.75927 0 0 0 0)
(-3.77905 -0.982112 0 -1.83389 3.60068 0 0 0 0)
(-4.0389 -2.44458 0 -3.09673 3.75768 0 0 0 0)
(-2.83322 -4.49275 0 -3.84539 2.5865 0 0 0 0)
(-0.723643 -5.81754 0 -4.20218 0.362165 0 0 0 0)
(1.69067 -5.33238 0 -4.84414 -2.14566 0 0 0 0)
(4.42709 -2.63973 0 -5.85161 -4.88192 0 0 0 0)
(7.00821 2.17471 0 -6.4774 -7.38269 0 0 0 0)
(7.83173 7.1414 0 -5.60068 -7.81848 0 0 0 0)
(3.63559 7.19917 0 -1.61543 -3.06463 0 0 0 0)
(-0.575551 4.53538 0 0.0433039 0.546103 0 0 0 0)
(-0.601924 0.595846 0 0.11258 0.623399 0 0 0 0)
(-0.638535 0.337378 0 0.180041 0.646802 0 0 0 0)
(-0.685685 0.332519 0 0.252589 0.68529 0 0 0 0)
(-0.758846 0.368143 0 0.331029 0.755804 0 0 0 0)
(-0.871204 0.404424 0 0.415428 0.867937 0 0 0 0)
(-1.04225 0.420689 0 0.502685 1.03498 0 0 0 0)
(-1.29633 0.414145 0 0.581593 1.28589 0 0 0 0)
(-1.6744 0.434706 0 0.634328 1.68683 0 0 0 0)
(-2.34646 0.563801 0 0.638399 2.35883 0 0 0 0)
(-3.45393 0.561991 0 0.52173 3.35034 0 0 0 0)
(-4.44947 -0.491079 0 0.38211 4.15296 0 0 0 0)
(-4.23383 -3.15588 0 0.631682 3.92312 0 0 0 0)
(-2.75606 -6.34015 0 1.31994 2.56522 0 0 0 0)
(-1.01641 -8.10881 0 1.87228 0.893946 0 0 0 0)
(0.599783 -7.89316 0 1.61824 -0.764518 0 0 0 0)
(2.74904 -5.69604 0 0.00620216 -2.92616 0 0 0 0)
(5.97884 -0.331232 0 -2.47223 -6.3812 0 0 0 0)
(9.13701 8.75258 0 -4.2144 -9.90361 0 0 0 0)
(7.93621 14.2947 0 -3.27125 -7.54665 0 0 0 0)
(-0.488297 5.08387 0 0.0509157 0.464168 0 0 0 0)
(-0.523191 0.647199 0 0.137043 0.542421 0 0 0 0)
(-0.555785 0.367736 0 0.2257 0.564088 0 0 0 0)
(-0.593321 0.3849 0 0.325675 0.594577 0 0 0 0)
(-0.653584 0.457545 0 0.442605 0.652586 0 0 0 0)
(-0.750372 0.544924 0 0.583035 0.749948 0 0 0 0)
(-0.90596 0.63828 0 0.754374 0.903261 0 0 0 0)
(-1.14522 0.764404 0 0.965754 1.14568 0 0 0 0)
(-1.50238 1.01514 0 1.23619 1.54061 0 0 0 0)
(-2.1304 1.42545 0 1.61804 2.17127 0 0 0 0)
(-3.06613 1.36765 0 2.24354 2.98009 0 0 0 0)
(-3.6691 -0.409341 0 3.26874 3.39526 0 0 0 0)
(-3.10107 -4.03232 0 4.63005 2.92519 0 0 0 0)
(-1.59262 -7.52192 0 6.0416 1.86644 0 0 0 0)
(-0.425342 -9.14728 0 7.08704 1.00451 0 0 0 0)
(-0.175404 -9.15248 0 7.29702 0.552948 0 0 0 0)
(0.336618 -8.2564 0 6.18972 0.0785263 0 0 0 0)
(2.7876 -4.80274 0 3.36459 -2.45192 0 0 0 0)
(7.03271 5.97595 0 -0.319426 -8.28423 0 0 0 0)
(11.1212 24.6494 0 -2.32402 -11.2768 0 0 0 0)
(-0.387592 5.54197 0 0.0544338 0.369929 0 0 0 0)
(-0.427139 0.695766 0 0.152181 0.443639 0 0 0 0)
(-0.449903 0.389533 0 0.257095 0.458204 0 0 0 0)
(-0.46878 0.421018 0 0.379689 0.471808 0 0 0 0)
(-0.501487 0.523514 0 0.529393 0.503104 0 0 0 0)
(-0.559435 0.655099 0 0.717641 0.563115 0 0 0 0)
(-0.659531 0.816423 0 0.960388 0.664975 0 0 0 0)
(-0.814512 1.05149 0 1.28434 0.829639 0 0 0 0)
(-1.02211 1.46029 0 1.73573 1.08212 0 0 0 0)
(-1.33912 2.00328 0 2.41268 1.42716 0 0 0 0)
(-1.80324 1.78599 0 3.54022 1.78052 0 0 0 0)
(-2.06295 -0.545985 0 5.20633 1.82215 0 0 0 0)
(-1.46096 -4.6847 0 6.87332 1.5743 0 0 0 0)
(-0.299071 -8.26082 0 8.09471 0.993674 0 0 0 0)
(0.239003 -9.4223 0 8.663 0.430186 0 0 0 0)
(-0.297533 -8.81915 0 8.72516 0.514311 0 0 0 0)
(-1.18338 -8.70091 0 8.37868 1.38514 0 0 0 0)
(-0.530313 -8.69399 0 6.91542 1.38069 0 0 0 0)
(3.4484 -0.0723252 0 3.42536 -3.4554 0 0 0 0)
(10.5797 33.8558 0 0.12692 -11.2331 0 0 0 0)
(-0.281682 5.89744 0 0.0526315 0.271172 0 0 0 0)
(-0.32053 0.735474 0 0.153282 0.334471 0 0 0 0)
(-0.328277 0.395904 0 0.266108 0.336046 0 0 0 0)
(-0.321022 0.4298 0 0.402046 0.325163 0 0 0 0)
(-0.315632 0.548852 0 0.571938 0.318889 0 0 0 0)
(-0.319377 0.706795 0 0.788506 0.325537 0 0 0 0)
(-0.339265 0.904805 0 1.07009 0.349753 0 0 0 0)
(-0.369877 1.18155 0 1.44833 0.391296 0 0 0 0)
(-0.374038 1.61266 0 1.97273 0.431521 0 0 0 0)
(-0.325911 2.12385 0 2.72205 0.4097 0 0 0 0)
(-0.272478 1.76264 0 3.8802 0.270725 0 0 0 0)
(-0.335996 -0.615566 0 5.52752 0.105324 0 0 0 0)
(-0.212691 -4.8608 0 7.09605 0.226682 0 0 0 0)
(0.197063 -8.66602 0 7.92539 0.381458 0 0 0 0)
(0.205109 -9.62664 0 7.82954 0.262218 0 0 0 0)
(-0.459729 -8.19753 0 7.27411 0.464755 0 0 0 0)
(-1.47312 -7.39003 0 6.78188 1.23533 0 0 0 0)
(-2.16571 -9.64327 0 6.55193 2.63335 0 0 0 0)
(0.244208 -6.63786 0 4.73418 0.959549 0 0 0 0)
(7.56896 39.3379 0 1.56327 -8.4891 0 0 0 0)
(-0.181678 6.14762 0 0.0437486 0.176021 0 0 0 0)
(-0.213662 0.76064 0 0.134926 0.225144 0 0 0 0)
(-0.20114 0.380225 0 0.245661 0.207748 0 0 0 0)
(-0.16295 0.403861 0 0.383685 0.167393 0 0 0 0)
(-0.115026 0.523887 0 0.558795 0.118589 0 0 0 0)
(-0.061281 0.685962 0 0.780867 0.0672535 0 0 0 0)
(0.000293468 0.882182 0 1.06329 0.0102386 0 0 0 0)
(0.0881212 1.13326 0 1.42915 -0.0690437 0 0 0 0)
(0.251612 1.4787 0 1.90871 -0.215661 0 0 0 0)
(0.56836 1.84249 0 2.53475 -0.517789 0 0 0 0)
(1.00223 1.48161 0 3.39103 -1.00536 0 0 0 0)
(1.15289 -0.590028 0 4.52511 -1.29758 0 0 0 0)
(0.936906 -4.40857 0 5.76602 -1.05954 0 0 0 0)
(0.434418 -8.22529 0 6.49733 -0.108997 0 0 0 0)
(-0.41228 -9.339 0 6.37524 0.836547 0 0 0 0)
(-1.3452 -7.84603 0 5.56756 1.37745 0 0 0 0)
(-1.90555 -6.53231 0 4.6863 1.67458 0 0 0 0)
(-2.57801 -8.96978 0 4.32674 2.44011 0 0 0 0)
(-1.54027 -11.1948 0 3.88269 2.65994 0 0 0 0)
(4.28221 41.3853 0 1.59675 -4.86069 0 0 0 0)
(-0.103007 6.2986 0 0.0245581 0.105426 0 0 0 0)
(-0.118617 0.767202 0 0.093509 0.129393 0 0 0 0)
(-0.0795183 0.338153 0 0.191095 0.0856805 0 0 0 0)
(-0.00788862 0.340641 0 0.320422 0.0117819 0 0 0 0)
(0.0815503 0.448712 0 0.487535 -0.0783647 0 0 0 0)
(0.18512 0.598444 0 0.696604 -0.1812 0 0 0 0)
(0.309022 0.768507 0 0.951851 -0.302991 0 0 0 0)
(0.475542 0.95565 0 1.26046 -0.464627 0 0 0 0)
(0.731558 1.16392 0 1.62715 -0.714761 0 0 0 0)
(1.15641 1.33416 0 2.03921 -1.13664 0 0 0 0)
(1.71788 0.982846 0 2.48024 -1.76249 0 0 0 0)
(2.039 -0.669747 0 2.95479 -2.19807 0 0 0 0)
(1.75953 -3.67221 0 3.56673 -1.99509 0 0 0 0)
(0.806282 -6.76994 0 3.96764 -0.765295 0 0 0 0)
(-0.724657 -8.14019 0 4.03805 1.00697 0 0 0 0)
(-2.14868 -7.35949 0 3.69765 2.12235 0 0 0 0)
(-2.71394 -6.32737 0 3.14743 2.52165 0 0 0 0)
(-2.96932 -8.65792 0 2.50458 2.72238 0 0 0 0)
(-2.48578 -13.9387 0 2.39759 2.93555 0 0 0 0)
(2.08951 41.5387 0 0.850274 -2.28689 0 0 0 0)
(-0.0636112 6.38243 0 -0.00805054 0.0594679 0 0 0 0)
(-0.0471249 0.740894 0 0.0204541 0.0536158 0 0 0 0)
(0.0257732 0.262614 0 0.0959612 -0.0257558 0 0 0 0)
(0.133489 0.239816 0 0.21312 -0.134664 0 0 0 0)
(0.261155 0.330905 0 0.366173 -0.261388 0 0 0 0)
(0.403036 0.461336 0 0.552261 -0.402833 0 0 0 0)
(0.564154 0.598755 0 0.768585 -0.564609 0 0 0 0)
(0.763424 0.721494 0 1.00894 -0.763479 0 0 0 0)
(1.03036 0.806678 0 1.2589 -1.03344 0 0 0 0)
(1.42144 0.794754 0 1.47943 -1.43057 0 0 0 0)
(1.91781 0.420188 0 1.59626 -1.98612 0 0 0 0)
(2.23938 -0.822625 0 1.59216 -2.40936 0 0 0 0)
(1.94976 -2.9758 0 1.58802 -2.19153 0 0 0 0)
(0.905743 -5.22323 0 1.56191 -1.04472 0 0 0 0)
(-0.682272 -6.45136 0 1.57829 0.727149 0 0 0 0)
(-2.23582 -6.33135 0 1.70343 2.20632 0 0 0 0)
(-3.09863 -5.93228 0 1.72759 2.916 0 0 0 0)
(-3.32784 -8.55587 0 1.40235 3.17253 0 0 0 0)
(-3.19457 -16.204 0 1.33375 3.3076 0 0 0 0)
(1.03434 40.7367 0 0.245966 -0.980949 0 0 0 0)
(-0.0906033 6.41169 0 -0.0653294 0.152422 0 0 0 0)
(-0.0146055 0.681978 0 -0.0841495 0.0388876 0 0 0 0)
(0.113148 0.149873 0 -0.0298365 -0.106876 0 0 0 0)
(0.262324 0.105008 0 0.0728795 -0.259848 0 0 0 0)
(0.420691 0.180543 0 0.211685 -0.420129 0 0 0 0)
(0.587532 0.295223 0 0.373282 -0.587926 0 0 0 0)
(0.765698 0.407862 0 0.550483 -0.768618 0 0 0 0)
(0.965861 0.486821 0 0.73294 -0.971892 0 0 0 0)
(1.20205 0.496824 0 0.900222 -1.21319 0 0 0 0)
(1.49377 0.381476 0 1.01254 -1.51418 0 0 0 0)
(1.83062 0.00405849 0 0.984708 -1.87615 0 0 0 0)
(2.03075 -0.875155 0 0.773109 -2.12827 0 0 0 0)
(1.72927 -2.30758 0 0.469589 -1.84946 0 0 0 0)
(0.79655 -3.85126 0 0.250853 -0.85953 0 0 0 0)
(-0.583139 -4.88915 0 0.22486 0.62743 0 0 0 0)
(-1.99937 -5.17064 0 0.47008 1.99584 0 0 0 0)
(-3.01501 -5.36116 0 0.759812 2.90203 0 0 0 0)
(-3.36316 -8.26632 0 0.884548 3.18358 0 0 0 0)
(-3.64217 -18.0921 0 1.04991 3.67228 0 0 0 0)
(0.509796 39.212 0 0.126208 -0.416727 0 0 0 0)
(-0.21309 6.57374 0 -0.158093 -0.0701327 0 0 0 0)
(-0.011632 0.481597 0 -0.279183 -0.193045 0 0 0 0)
(0.182802 -0.0361213 0 -0.205224 -0.310729 0 0 0 0)
(0.37501 -0.0734372 0 -0.0846029 -0.44631 0 0 0 0)
(0.561558 0.00282723 0 0.0523348 -0.59455 0 0 0 0)
(0.741835 0.112846 0 0.198899 -0.753159 0 0 0 0)
(0.923812 0.21479 0 0.349551 -0.924735 0 0 0 0)
(1.11316 0.276917 0 0.496589 -1.109 0 0 0 0)
(1.30996 0.264392 0 0.622529 -1.30462 0 0 0 0)
(1.50593 0.131803 0 0.695916 -1.50476 0 0 0 0)
(1.67837 -0.193904 0 0.662005 -1.68444 0 0 0 0)
(1.72426 -0.795935 0 0.465186 -1.74276 0 0 0 0)
(1.4275 -1.70706 0 0.166811 -1.44186 0 0 0 0)
(0.661015 -2.74635 0 -0.0239184 -0.643137 0 0 0 0)
(-0.463045 -3.59599 0 -0.0248479 0.531794 0 0 0 0)
(-1.70087 -4.05674 0 0.238006 1.70974 0 0 0 0)
(-2.68416 -4.74454 0 0.484927 2.63731 0 0 0 0)
(-3.03774 -7.78563 0 1.18854 2.81161 0 0 0 0)
(-3.95291 -19.8044 0 1.30517 3.64305 0 0 0 0)
(-0.141778 37.4811 0 0.436708 -0.648018 0 0 0 0)
(-0.527879 6.14851 0 -0.302191 1.46824 0 0 0 0)
(-0.0617358 0.441381 0 -0.403492 0.893554 0 0 0 0)
(0.307728 -0.103392 0 -0.211032 0.327086 0 0 0 0)
(0.519882 -0.178813 0 -0.0292719 -0.121473 0 0 0 0)
(0.704192 -0.126306 0 0.125565 -0.43418 0 0 0 0)
(0.884747 -0.0349616 0 0.271239 -0.688511 0 0 0 0)
(1.06339 0.0520214 0 0.424812 -0.913673 0 0 0 0)
(1.23884 0.106936 0 0.571514 -1.11942 0 0 0 0)
(1.40138 0.101059 0 0.69851 -1.30489 0 0 0 0)
(1.53325 0.00165485 0 0.788736 -1.45535 0 0 0 0)
(1.59989 -0.233933 0 0.819934 -1.53836 0 0 0 0)
(1.53556 -0.632577 0 0.761635 -1.48496 0 0 0 0)
(1.24017 -1.20796 0 0.643191 -1.18685 0 0 0 0)
(0.604891 -1.8776 0 0.584405 -0.528424 0 0 0 0)
(-0.321215 -2.53628 0 0.663672 0.434995 0 0 0 0)
(-1.4896 -3.06512 0 0.984273 1.46945 0 0 0 0)
(-2.06448 -4.25929 0 1.07318 2.32496 0 0 0 0)
(-2.54291 -7.26058 0 2.65935 2.41639 0 0 0 0)
(-4.394 -21.5518 0 1.0695 3.78229 0 0 0 0)
(-1.23209 36.217 0 1.63922 -0.618751 0 0 0 0)
(-0.918772 8.93554 0 -0.427003 -1.13306 0 0 0 0)
(0.0795265 -0.65956 0 -0.571785 -2.29739 0 0 0 0)
(0.557022 -1.05115 0 0.169476 -2.23709 0 0 0 0)
(0.711607 -0.834703 0 0.870784 -1.82942 0 0 0 0)
(0.862069 -0.564211 0 1.51867 -1.6514 0 0 0 0)
(1.04108 -0.366647 0 2.07864 -1.64191 0 0 0 0)
(1.22409 -0.216115 0 2.52646 -1.68847 0 0 0 0)
(1.38686 -0.114296 0 2.87004 -1.7546 0 0 0 0)
(1.52718 -0.0715445 0 3.12746 -1.82505 0 0 0 0)
(1.62735 -0.101666 0 3.31705 -1.87394 0 0 0 0)
(1.65127 -0.223516 0 3.45357 -1.85796 0 0 0 0)
(1.54752 -0.444432 0 3.55268 -1.7164 0 0 0 0)
(1.25027 -0.750519 0 3.64876 -1.38803 0 0 0 0)
(0.681496 -1.1245 0 3.83149 -0.805469 0 0 0 0)
(-0.0631769 -1.59812 0 4.15137 0.0231067 0 0 0 0)
(-1.29136 -2.16678 0 4.84727 0.975919 0 0 0 0)
(-1.00908 -3.7976 0 4.99811 2.01075 0 0 0 0)
(-3.04142 -6.32829 0 7.00122 2.88172 0 0 0 0)
(-4.97305 -22.8395 0 0.933009 5.46538 0 0 0 0)
(-2.8505 34.3176 0 7.8901 4.03937 0 0 0 0)
(-1.52667 2.71805 0 4.45016 4.75088 0 0 0 0)
(0.534743 -0.662643 0 6.75311 2.58496 0 0 0 0)
(1.7503 0.36458 0 9.05927 0.545603 0 0 0 0)
(1.86907 0.406872 0 10.927 -0.423819 0 0 0 0)
(1.91205 0.0612072 0 12.2305 -0.860169 0 0 0 0)
(1.89254 -0.0720331 0 13.1824 -1.09079 0 0 0 0)
(1.85479 -0.0606726 0 13.9109 -1.253 0 0 0 0)
(1.83984 -0.0296376 0 14.4691 -1.39334 0 0 0 0)
(1.84839 -0.0182807 0 14.8798 -1.51802 0 0 0 0)
(1.85936 -0.0312588 0 15.1707 -1.6111 0 0 0 0)
(1.83552 -0.0763907 0 15.3755 -1.64537 0 0 0 0)
(1.73075 -0.162648 0 15.5402 -1.57858 0 0 0 0)
(1.51898 -0.297025 0 15.7191 -1.3691 0 0 0 0)
(1.1075 -0.466468 0 16.0124 -0.987449 0 0 0 0)
(0.69457 -0.754892 0 16.4462 -0.41189 0 0 0 0)
(-0.642852 -1.07748 0 17.2566 0.39781 0 0 0 0)
(0.0894702 -2.35348 0 17.6474 1.48862 0 0 0 0)
(-6.60801 -3.80594 0 19.6656 3.54342 0 0 0 0)
(-3.50512 -20.3941 0 10.097 7.98159 0 0 0 0)
(-10.0552 26.7123 0 37.297 16.8987 0 0 0 0)
(10.2845 16.2714 0 196.544 -10.987 0 0 0 0)
(4.68863 -4.86484 0 194.698 -8.00238 0 0 0 0)
(4.73095 -4.05992 0 191.321 -5.45957 0 0 0 0)
(3.88283 -2.24048 0 188.217 -4.30704 0 0 0 0)
(3.11743 -1.23118 0 185.569 -3.62596 0 0 0 0)
(2.72147 -0.759481 0 183.187 -3.13707 0 0 0 0)
(2.51084 -0.518669 0 180.955 -2.79445 0 0 0 0)
(2.3558 -0.379316 0 178.822 -2.55773 0 0 0 0)
(2.22873 -0.289301 0 176.759 -2.3855 0 0 0 0)
(2.123 -0.229013 0 174.745 -2.25015 0 0 0 0)
(2.02083 -0.191 0 172.777 -2.12522 0 0 0 0)
(1.89117 -0.168166 0 170.888 -1.98276 0 0 0 0)
(1.72247 -0.159386 0 169.155 -1.79441 0 0 0 0)
(1.40861 -0.167284 0 167.647 -1.52635 0 0 0 0)
(1.18094 -0.212858 0 166.639 -1.16066 0 0 0 0)
(-0.0901724 -0.266273 0 165.771 -0.558596 0 0 0 0)
(1.39991 -0.65199 0 167.372 0.183095 0 0 0 0)
(-10.5918 0.164681 0 164.282 2.44688 0 0 0 0)
(12.6584 -9.48424 0 184.572 3.82436 0 0 0 0)
(-50.2445 9.43734 0 155.129 32.3252 0 0 0 0)
)
;

boundaryField
{
    movingWall
    {
        type            extrapolatedCalculated;
        value           nonuniform List<tensor> 
20
(
(10.2845 16.2714 0 383.725 -37.0852 0 0 0 0)
(4.68863 -4.86484 0 375.137 -28.0003 0 0 0 0)
(4.73095 -4.05992 0 364.97 -17.6258 0 0 0 0)
(3.88283 -2.24048 0 356.213 -11.7607 0 0 0 0)
(3.11743 -1.23118 0 349.439 -8.66391 0 0 0 0)
(2.72147 -0.759481 0 343.744 -6.83594 0 0 0 0)
(2.51084 -0.518669 0 338.553 -5.62599 0 0 0 0)
(2.3558 -0.379316 0 333.7 -4.76126 0 0 0 0)
(2.22873 -0.289301 0 329.13 -4.10872 0 0 0 0)
(2.123 -0.229013 0 324.785 -3.60406 0 0 0 0)
(2.02083 -0.191 0 320.638 -3.19267 0 0 0 0)
(1.89117 -0.168166 0 316.702 -2.84006 0 0 0 0)
(1.72247 -0.159386 0 313.073 -2.52001 0 0 0 0)
(1.40861 -0.167284 0 309.812 -2.20252 0 0 0 0)
(1.18094 -0.212858 0 307.439 -1.85087 0 0 0 0)
(-0.0901724 -0.266273 0 305.089 -1.35108 0 0 0 0)
(1.39991 -0.65199 0 307.799 -0.785779 0 0 0 0)
(-10.5918 0.164681 0 299.489 1.25687 0 0 0 0)
(12.6584 -9.48424 0 350.167 -1.4445 0 0 0 0)
(-50.2445 9.43734 0 248.855 39.1939 0 0 0 0)
)
;
    }
    fixedWalls
    {
        type            extrapolatedCalculated;
        value           nonuniform List<tensor> 
60
(
(-0.117079 0.1158 0 -0.126635 0.214359 0 0 0 0)
(-0.389461 0.741636 0 -0.122778 0.429921 0 0 0 0)
(-0.608193 1.83548 0 -0.079119 0.591296 0 0 0 0)
(-0.705937 3.10682 0 -0.0292356 0.654649 0 0 0 0)
(-0.725135 4.45408 0 0.00155122 0.671802 0 0 0 0)
(-0.699732 5.79403 0 0.0199943 0.65391 0 0 0 0)
(-0.645158 7.06972 0 0.033 0.610472 0 0 0 0)
(-0.567732 8.23591 0 0.0433039 0.546103 0 0 0 0)
(-0.471943 9.25413 0 0.0509157 0.464168 0 0 0 0)
(-0.364069 10.0926 0 0.0544338 0.369929 0 0 0 0)
(-0.254207 10.7338 0 0.0526315 0.271172 0 0 0 0)
(-0.153543 11.1773 0 0.0437486 0.176021 0 0 0 0)
(-0.079213 11.4379 0 0.0245581 0.105426 0 0 0 0)
(-0.0553104 11.599 0 -0.00805054 0.0594679 0 0 0 0)
(-0.111415 11.6758 0 -0.0653294 0.152422 0 0 0 0)
(-0.316628 12.2087 0 -0.158093 -0.0701327 0 0 0 0)
(-0.743788 11.3953 0 -0.302191 1.46824 0 0 0 0)
(-1.52539 18.0816 0 -0.427003 -1.13306 0 0 0 0)
(-2.4518 6.86303 0 4.45016 4.75088 0 0 0 0)
(16.2753 37.0852 0 196.544 -10.987 0 0 0 0)
(-0.0502227 -0.00572318 0 -0.0484502 -0.11746 0 0 0 0)
(0.244024 0.475563 0 -0.0867289 -0.358706 0 0 0 0)
(0.296693 1.4291 0 0.0575182 -0.416329 0 0 0 0)
(0.013951 2.14088 0 0.21124 -0.195285 0 0 0 0)
(-0.548269 2.21024 0 0.253155 -0.00898377 0 0 0 0)
(-0.998671 2.17681 0 -0.0770509 -0.744161 0 0 0 0)
(-0.240065 5.18688 0 -1.61543 -3.06463 0 0 0 0)
(5.46306 14.4353 0 -3.27125 -7.54665 0 0 0 0)
(12.8449 35.3735 0 -2.32402 -11.2768 0 0 0 0)
(14.7591 59.5427 0 0.12692 -11.2331 0 0 0 0)
(12.3373 80.306 0 1.56327 -8.4891 0 0 0 0)
(8.50607 93.499 0 1.59675 -4.86069 0 0 0 0)
(5.95024 99.7487 0 0.850274 -2.28689 0 0 0 0)
(5.10497 102.647 0 0.245966 -0.980949 0 0 0 0)
(4.96638 103.673 0 0.126208 -0.416727 0 0 0 0)
(4.60014 104.314 0 0.436708 -0.648018 0 0 0 0)
(3.21954 106.265 0 1.63922 -0.618751 0 0 0 0)
(-1.95672 106.789 0 7.8901 4.03937 0 0 0 0)
(-28.3409 90.1071 0 37.297 16.8987 0 0 0 0)
(-151.145 39.1939 0 155.129 32.3252 0 0 0 0)
(-0.212107 0.124351 0 -0.117079 0.1158 0 0 0 0)
(-0.425483 0.111051 0 -0.731348 0.381605 0 0 0 0)
(-0.584137 0.0625879 0 -1.81901 0.560003 0 0 0 0)
(-0.643412 0.0236149 0 -3.06789 0.631957 0 0 0 0)
(-0.668913 0.00693503 0 -4.39266 0.654462 0 0 0 0)
(-0.675735 0.000450636 0 -5.74355 0.659697 0 0 0 0)
(-0.668205 -0.00509655 0 -7.0956 0.656265 0 0 0 0)
(-0.638936 -0.0164923 0 -8.41637 0.639311 0 0 0 0)
(-0.577503 -0.0395491 0 -9.65135 0.590296 0 0 0 0)
(-0.455713 -0.0718787 0 -10.7264 0.481114 0 0 0 0)
(-0.253093 -0.101408 0 -11.4742 0.302781 0 0 0 0)
(0.00721345 -0.152246 0 -11.7388 0.0754803 0 0 0 0)
(0.337825 -0.192918 0 -11.4453 -0.306204 0 0 0 0)
(0.692653 -0.184818 0 -10.3875 -0.69619 0 0 0 0)
(0.974145 -0.136771 0 -8.67473 -1.04548 0 0 0 0)
(1.12378 -0.0418195 0 -6.49088 -1.24327 0 0 0 0)
(1.09743 0.0768472 0 -4.1796 -1.21275 0 0 0 0)
(0.909343 0.189879 0 -2.10116 -0.935884 0 0 0 0)
(0.537846 0.235402 0 -0.542229 -0.453239 0 0 0 0)
(0.123002 0.111879 0 0.0502227 0.00572318 0 0 0 0)
)
;
    }
    frontAndBack
    {
        type            empty;
    }
}


// ************************************************************************* //
