/*--------------------------------*- C++ -*----------------------------------*\
| =========                 |                                                 |
| \\      /  F ield         | OpenFOAM: The Open Source CFD Toolbox           |
|  \\    /   O peration     | Version:  2312                                  |
|   \\  /    A nd           | Website:  www.openfoam.com                      |
|    \\/     M anipulation  |                                                 |
\*---------------------------------------------------------------------------*/
FoamFile
{
    version     2.0;
    format      ascii;
    arch        "LSB;label=32;scalar=64";
    class       volScalarField;
    location    "1.375";
    object      Lambda2Field;
}
// * * * * * * * * * * * * * * * * * * * * * * * * * * * * * * * * * * * * * //

dimensions      [0 0 -2 0 0 0 0];

internalField   nonuniform List<scalar> 
400
(
0.029242
0.119294
0.268803
0.3566
0.42882
0.422585
0.466258
0.434053
0.547828
0.592467
0.71205
0.934864
1.34079
1.49633
1.61326
1.32741
1.00779
0.561455
0.173816
0.00835352
0.139202
0.277708
0.450533
0.521357
0.620902
0.616865
0.652884
0.598439
0.566225
0.479691
0.43178
0.482774
0.71464
1.07375
1.5365
1.63432
1.48575
0.914972
0.458649
0.0767291
0.290038
0.385905
0.502013
0.575147
0.656654
0.687959
0.718556
0.696384
0.654258
0.590772
0.566249
0.678005
1.00861
1.55386
2.17946
2.41417
2.13455
1.46573
0.828791
0.230064
0.4265
0.465561
0.536093
0.597502
0.671362
0.73448
0.797562
0.842395
0.875714
0.925893
1.06753
1.43663
2.18825
3.25885
4.42642
4.30338
3.6287
2.17878
1.1627
0.395529
0.507787
0.505024
0.554783
0.616251
0.69803
0.798538
0.922336
1.06539
1.24792
1.53013
2.09953
3.30583
5.46117
7.95154
10.4279
9.5844
8.21842
3.37565
0.787629
0.525603
0.540611
0.507022
0.551641
0.618235
0.717839
0.86186
1.06219
1.33766
1.76061
2.51745
4.19538
7.71574
13.5095
19.0504
23.0218
24.4565
22.6179
13.6381
2.35626
0.229469
0.542955
0.478813
0.522924
0.599481
0.720484
0.909633
1.19379
1.63138
2.42346
4.10199
7.94506
14.7197
21.5378
23.4081
23.2843
27.0878
34.5365
34.9106
21.3393
0
0.526752
0.427352
0.468201
0.553613
0.693199
0.921023
1.28355
1.89341
3.07852
5.86488
11.514
17.0593
15.8017
-0.58244
0
-11.772
7.4942
36.5022
46.5447
9.50389
0.496675
0.359947
0.391484
0.477258
0.628291
0.880051
1.29948
2.04961
3.49898
6.8253
12.0793
10.1135
0
-41.9193
0
-66.2413
0
-8.356
47.1254
65.6785
0.451573
0.285487
0.301983
0.379165
0.52827
0.781896
1.2174
2.00473
3.5317
6.5189
9.56918
0.214891
0
-65.8779
0
-76.6833
0
-57.9188
11.6437
110.159
0.389621
0.212345
0.21246
0.275011
0.412502
0.656284
1.07784
1.82692
3.25029
5.71293
6.91361
-2.77175
0
-68.3687
0
-59.4127
0
-56.0349
0
105.957
0.301924
0.145075
0.133314
0.180345
0.304534
0.535387
0.931115
1.60139
2.83778
4.85178
6.02858
-0.828143
0
-53.0474
0
-41.7726
0
-32.0384
0
74.3536
0.165286
0.0823205
0.0705524
0.107962
0.223854
0.447792
0.823658
1.41243
2.41607
3.99494
5.38057
2.13266
0
-26.177
0
-22.5782
0
-12.5354
0
35.9116
0
0.0152096
0.025865
0.0687772
0.189371
0.417052
0.778452
1.31076
2.077
3.19265
4.34106
3.69971
0
-6.91403
0
-5.757
0
-0.678018
0
9.9405
0
-0.0492381
0.00830967
0.0751375
0.214969
0.455395
0.810614
1.28864
1.89129
2.61447
3.35392
3.44731
1.90161
-0.154664
0
1.54891
5.00907
2.52517
0
3.33456
0
-0.0879357
0.0375885
0.146308
0.315474
0.572581
0.928498
1.36712
1.88029
2.35598
2.68857
2.60268
1.75287
0.463601
0.299014
1.91984
4.90243
0
0
1.61333
0
0
0.0240194
0.0134336
0.188512
0.462834
0.886853
1.3085
1.8543
2.11535
2.36415
1.72325
0.760758
-0.708975
0
-0.791376
0
-12.7278
0
25.2805
0
0.0507588
0.0260873
0
0
0.171615
0.865697
1.4046
2.05123
2.15662
1.92781
0.710915
0
-3.56044
0
-8.63923
0
-35.0525
3.22341
257.568
9.31114
0
0.93854
0
3.22031
0
2.22903
0
3.03392
0.624196
2.15876
0
0
-5.42691
0
-16.3215
0
-17.8816
0
951.974
3303.13
-588.932
0
-365.397
0
-92.5753
0
-43.7607
0
-24.136
0
-17.1635
0
-16.0268
0
0
0
0
0
1599.08
)
;

boundaryField
{
    movingWall
    {
        type            calculated;
        value           nonuniform List<scalar> 
20
(
5547.58
0
0
0
0
0
0
0
0
0
0
0
0
0
0
0
0
0
0
2868.58
)
;
    }
    fixedWalls
    {
        type            calculated;
        value           nonuniform List<scalar> 
60
(
0
0.0564264
0.224431
0.286336
0.52984
0.437693
0.6483
0.576577
0.693849
0.654268
0.629267
0.390103
0.286476
-0.0659843
0
0
0
0
29.7407
6859.74
0.00124664
0.0117346
0.15634
0.257304
0.427713
0
0
0
80.6826
64.8194
261.057
22.2511
106.241
0
16.9204
0
177.354
733.064
3519.32
2147.67
0.0134157
0.0597805
0.226844
0.315321
0.416773
0.396037
0.482518
0.545688
0.715046
0.852914
1.22508
1.29839
2.32106
2.38315
2.13003
1.26063
0.871518
0.41717
0.159221
0.000322446
)
;
    }
    frontAndBack
    {
        type            empty;
    }
}


// ************************************************************************* //
