/*--------------------------------*- C++ -*----------------------------------*\
| =========                 |                                                 |
| \\      /  F ield         | OpenFOAM: The Open Source CFD Toolbox           |
|  \\    /   O peration     | Version:  2312                                  |
|   \\  /    A nd           | Website:  www.openfoam.com                      |
|    \\/     M anipulation  |                                                 |
\*---------------------------------------------------------------------------*/
FoamFile
{
    version     2.0;
    format      ascii;
    arch        "LSB;label=32;scalar=64";
    class       volVectorField;
    location    "1.375";
    object      LambVectorField;
}
// * * * * * * * * * * * * * * * * * * * * * * * * * * * * * * * * * * * * * //

dimensions      [0 1 -2 0 0 0 0];

internalField   nonuniform List<vector> 
400
(
(-7.26607e-05 -7.34631e-05 -2.15025e-08)
(-0.00062162 -0.00119134 0)
(-0.00169797 -0.00551538 -2.50814e-05)
(-0.00293769 -0.0142613 0)
(-0.0042004 -0.0281925 -0.0003096)
(-0.00544502 -0.0474062 0)
(-0.00662446 -0.0716243 -0.00127054)
(-0.00758818 -0.0998965 0)
(-0.00795883 -0.130127 -0.00313975)
(-0.00713329 -0.159036 0)
(-0.00476422 -0.180545 -0.00517903)
(-0.00120384 -0.187222 0)
(0.00471993 -0.176422 -0.00504803)
(0.00976983 -0.14577 -0)
(0.012418 -0.103037 -0.00223454)
(0.0114462 -0.0597585 -0)
(0.00776895 -0.0267747 -0.000279769)
(0.00363588 -0.00816294 -0)
(0.000822424 -0.000983901 -1.33375e-06)
(-2.29398e-06 2.01304e-05 0)
(-0.00124791 -0.000655326 -6.3806e-07)
(-0.00206461 -0.00202401 0)
(-0.00241204 -0.0035852 -2.49347e-05)
(-0.002583 -0.00535232 0)
(-0.00282764 -0.00772326 -0.000112925)
(-0.00313203 -0.0108094 0)
(-0.00338078 -0.014384 -0.000326355)
(-0.00342369 -0.0179272 0)
(-0.00310486 -0.0207042 -0.000625229)
(-0.00234018 -0.0219954 0)
(-0.00124422 -0.0219255 -0.00077327)
(4.72477e-05 -0.0206543 -0)
(0.00140451 -0.0184278 -0.000644478)
(0.00292341 -0.017272 -0)
(0.00466562 -0.0163715 -0.000445177)
(0.00623588 -0.0145623 -0)
(0.00674753 -0.0110704 -0.000159487)
(0.00591971 -0.00696237 -0)
(0.00366998 -0.00298114 -1.05789e-05)
(0.000763844 -0.000391948 -0)
(-0.00567385 -0.00188005 -2.85858e-06)
(-0.00370107 -0.00247015 0)
(-0.00319085 -0.00315375 -2.58388e-05)
(-0.00270381 -0.00360466 0)
(-0.00235797 -0.00403109 -6.45682e-05)
(-0.00212722 -0.00451616 0)
(-0.00190047 -0.0049351 -0.000120431)
(-0.0015612 -0.00498953 0)
(-0.00106948 -0.00437497 -0.000142324)
(-0.000541014 -0.00313581 0)
(-0.00018447 -0.00200372 -7.7179e-05)
(3.0814e-06 -0.00215392 -0)
(0.000527715 -0.00464385 -0.000182125)
(0.0024033 -0.00954921 -0)
(0.00616207 -0.0145382 -0.000454889)
(0.0103381 -0.0160531 -0)
(0.0113925 -0.0120691 -0.000196306)
(0.00923939 -0.00661685 -0)
(0.00672814 -0.00299213 -1.14101e-05)
(0.00413454 -0.000858362 -0)
(-0.014457 -0.00328495 -5.79741e-06)
(-0.0051267 -0.00251381 0)
(-0.00365911 -0.0026812 -2.3556e-05)
(-0.00278674 -0.0027291 0)
(-0.0021173 -0.00262424 -4.36642e-05)
(-0.00156838 -0.00238785 0)
(-0.00103274 -0.00190971 -4.82584e-05)
(-0.000411029 -0.000931518 0)
(0.000246925 0.000713239 2.4451e-05)
(0.000628595 0.00254175 0)
(0.000399457 0.00287164 0.000120754)
(-1.73037e-05 -0.00101282 0)
(0.00147738 -0.0118201 -0.000535135)
(0.00898901 -0.0301461 -0)
(0.0255436 -0.0495006 -0.00189302)
(0.0447384 -0.0555845 -0)
(0.0493383 -0.0393752 -0.000748663)
(0.032368 -0.0147862 -0)
(0.0142761 -0.00248241 -5.47209e-06)
(0.00851896 -5.55135e-05 -0)
(-0.0282527 -0.0045996 -8.33834e-06)
(-0.00657117 -0.00244197 0)
(-0.00390068 -0.00220772 -1.96949e-05)
(-0.00275969 -0.00209147 0)
(-0.00193655 -0.00184907 -3.10084e-05)
(-0.00121545 -0.00141657 0)
(-0.00041888 -0.000589303 -1.51545e-05)
(0.000565106 0.000968282 0)
(0.00153799 0.00332625 0.000119581)
(0.00176268 0.00520926 0)
(0.000517352 0.00249718 0.00011635)
(-0.000813491 -0.0124336 0)
(0.00452155 -0.0493099 -0.00273879)
(0.0300213 -0.111712 -0)
(0.0852377 -0.180242 -0.00995333)
(0.151504 -0.209094 -0)
(0.188602 -0.170114 -0.00551228)
(0.147755 -0.0736579 -0)
(0.0542176 -0.00332418 -3.5123e-06)
(0.0111767 0.00277247 0)
(-0.0466625 -0.00563533 -9.85805e-06)
(-0.0081663 -0.00234972 0)
(-0.00404175 -0.00180511 -1.57267e-05)
(-0.00267943 -0.00161115 0)
(-0.00176806 -0.00133793 -2.20176e-05)
(-0.000884932 -0.000813837 0)
(0.000275168 0.000303625 7.79442e-06)
(0.00186332 0.00248338 0)
(0.00334093 0.0055392 0.000206539)
(0.00291752 0.00638969 0)
(-0.00166791 -0.00539893 -0.00028144)
(-0.0079657 -0.0491972 0)
(-0.0022562 -0.1361 -0.0099302)
(0.0318253 -0.233595 -0)
(0.0987059 -0.312752 -0.0279815)
(0.219352 -0.408044 -0)
(0.383337 -0.469135 -0.0314212)
(0.443443 -0.35853 -0)
(0.230096 -0.0778185 -0.000754656)
(0.0189855 0.00871011 0)
(-0.0686005 -0.00626024 -1.00971e-05)
(-0.00996689 -0.00224176 0)
(-0.00412961 -0.00146561 -1.20358e-05)
(-0.00252072 -0.00121133 0)
(-0.00152256 -0.000920373 -1.44087e-05)
(-0.000406249 -0.000297143 0)
(0.00131496 0.00114549 2.84947e-05)
(0.00375723 0.00390919 0)
(0.00562163 0.00712978 0.000268394)
(0.00318218 0.00509378 0)
(-0.00830392 -0.0175875 -0.00101695)
(-0.0209855 -0.0633403 0)
(-0.0113993 -0.0623539 -0.00596182)
(0.000123967 0.0742848 0)
(-0.0443383 0.200216 0.0248158)
(-0.02831 0.0595593 -0)
(0.259429 -0.343794 -0.0367991)
(0.730075 -0.672417 -0)
(0.752095 -0.470897 -0.0174025)
(0.114301 0.00529021 0)
(-0.0924909 -0.00637574 -9.04928e-06)
(-0.0119676 -0.00209553 0)
(-0.00417701 -0.00117036 -8.70579e-06)
(-0.00224906 -0.000856975 0)
(-0.00110871 -0.000530555 -7.5845e-06)
(0.000350149 0.000201489 0)
(0.0027811 0.00188651 4.34038e-05)
(0.0060325 0.0048112 0)
(0.00759743 0.00718054 0.000258289)
(0.00301176 0.00339246 0)
(-0.00175929 -0.00239293 -0.000142225)
(0.0401607 0.0698689 0)
(0.146906 0.393641 0.0409111)
(0.110568 0.937244 0)
(-0.245686 1.31242 0.172571)
(-0.633971 1.26043 -0)
(-0.590449 0.715591 0.0898015)
(0.264657 -0.224864 -0)
(1.38564 -0.851989 -0.0559795)
(0.633928 -0.23991 -0)
(-0.116439 -0.00593816 -7.00618e-06)
(-0.0141331 -0.00188917 0)
(-0.00420529 -0.000910697 -5.83917e-06)
(-0.00185851 -0.000548477 0)
(-0.000499821 -0.000184428 -2.27676e-06)
(0.00137032 0.000602029 0)
(0.00451669 0.00230431 4.57375e-05)
(0.00852493 0.00500482 0)
(0.0102897 0.00691899 0.00021657)
(0.0101092 0.00768059 0)
(0.0532576 0.046076 0.00242382)
(0.243367 0.259457 0)
(0.491249 0.773514 0.0690715)
(0.350531 1.3774 0)
(-0.300472 1.70821 0.179741)
(-1.07957 1.74045 -0)
(-1.58955 1.54539 0.16532)
(-1.21034 0.836657 -0)
(0.99505 -0.497964 -0.039389)
(2.38536 -0.866181 -0)
(-0.138459 -0.00499461 -4.54595e-06)
(-0.0164099 -0.00161214 0)
(-0.00426308 -0.000686238 -3.55579e-06)
(-0.00140863 -0.00030851 0)
(0.00021401 5.80269e-05 5.72689e-07)
(0.00245907 0.000780503 0)
(0.00618333 0.00222623 3.44258e-05)
(0.011056 0.00444144 0)
(0.0147262 0.0065027 0.000153521)
(0.0254176 0.0119936 0)
(0.128933 0.0649066 0.00240155)
(0.459873 0.272248 0)
(0.786387 0.666084 0.0383861)
(0.541346 1.01303 0)
(-0.263503 1.09634 0.0664601)
(-1.07238 1.04473 -0)
(-1.75512 1.08619 0.0690767)
(-2.31227 1.11423 -0)
(-0.663516 0.240986 0.0166036)
(5.02077 -1.24452 -0)
(-0.156843 -0.00371448 -2.36062e-06)
(-0.0187115 -0.00126993 0)
(-0.00443762 -0.00049852 -1.91472e-06)
(-0.00100189 -0.000151651 0)
(0.000888527 0.000162782 1.14778e-06)
(0.00339816 0.000704385 0)
(0.00752973 0.00169334 1.7348e-05)
(0.0135085 0.00320484 0)
(0.0206571 0.00502057 7.00048e-05)
(0.0399368 0.00942364 0)
(0.16646 0.0364279 0.000626657)
(0.518405 0.113513 0)
(0.866317 0.245864 0.00505563)
(0.593648 0.341868 0)
(-0.247992 0.324546 0.00603396)
(-0.935817 0.287061 -0)
(-1.36308 0.328637 0.00762086)
(-2.17641 0.539061 -0)
(-2.19042 0.509995 0.0228715)
(7.58383 -1.16509 -0)
(-0.170562 -0.00234301 -8.99383e-07)
(-0.020982 -0.000896601 0)
(-0.0047837 -0.000339166 -8.54861e-07)
(-0.000753289 -6.94939e-05 0)
(0.00138192 0.000144865 6.01187e-07)
(0.00404049 0.000436049 0)
(0.00841213 0.000862586 4.10832e-06)
(0.0152076 0.00135863 0)
(0.0248465 0.00166914 6.47891e-06)
(0.0458159 0.00143681 0)
(0.145508 -0.00344082 6.20043e-06)
(0.414321 -0.0406488 0)
(0.715325 -0.135637 0.00180817)
(0.54346 -0.254934 0)
(-0.187751 -0.277751 0.00490929)
(-0.757556 -0.176966 0)
(-1.01425 -0.0473781 0.000200086)
(-1.61951 0.0779511 -0)
(-2.71554 0.325024 0.0070065)
(9.30049 -0.846111 -0)
(-0.179405 -0.00124247 -2.46048e-07)
(-0.0231691 -0.000560537 0)
(-0.00533331 -0.000203558 -2.81765e-07)
(-0.000763722 -3.29005e-05 0)
(0.00154021 5.68006e-05 8.31045e-08)
(0.00414821 7.96779e-05 0)
(0.00837107 -7.11567e-05 2.76162e-08)
(0.0152239 -0.000694519 0)
(0.0255773 -0.00238268 1.22554e-05)
(0.0434202 -0.00676437 0)
(0.102655 -0.0250178 0.000417989)
(0.258838 -0.0970395 0)
(0.447788 -0.268547 0.00996245)
(0.372491 -0.476407 0)
(-0.0711343 -0.549974 0.0248371)
(-0.516496 -0.410459 0)
(-0.75264 -0.224303 0.00531007)
(-1.22771 -0.111426 0)
(-2.71207 0.0983362 0.000591935)
(10.1465 -0.605265 -0)
(-0.185308 -0.000883651 -1.22188e-07)
(-0.0250907 -0.000358661 0)
(-0.00606725 -0.000101579 -6.19152e-08)
(-0.000999834 -6.40974e-06 0)
(0.00136856 -2.5582e-05 1.85563e-08)
(0.0037063 -0.000215625 0)
(0.00737367 -0.000807664 3.84103e-06)
(0.0134379 -0.00230328 0)
(0.0228975 -0.00560307 6.94218e-05)
(0.0375314 -0.0125409 0)
(0.068895 -0.0312888 0.000832418)
(0.142517 -0.0905417 0)
(0.229807 -0.223619 0.0109569)
(0.198535 -0.3867 0)
(-0.0150811 -0.466166 0.0270636)
(-0.283252 -0.403101 0)
(-0.49936 -0.273438 0.00976104)
(-0.94181 -0.191031 0)
(-2.64383 -0.0424244 0.000102626)
(10.3906 -0.51676 -0)
(-0.189061 -0.0018041 -5.02509e-07)
(-0.0267588 -0.000480741 0)
(-0.00647121 -7.63035e-05 -3.23979e-08)
(-0.00117032 1.61924e-05 0)
(0.0011541 -6.84698e-05 1.50541e-07)
(0.00298431 -0.000367727 0)
(0.00570653 -0.00115152 9.29735e-06)
(0.0104133 -0.00304397 0)
(0.0181044 -0.00715328 0.000126846)
(0.0298357 -0.0153906 0)
(0.0477523 -0.0320381 0.00104669)
(0.0779942 -0.0703719 0)
(0.110928 -0.147128 0.00779452)
(0.0994485 -0.246075 0)
(0.00731505 -0.311665 0.0189939)
(-0.139034 -0.305478 0)
(-0.307738 -0.250651 0.0102641)
(-0.716146 -0.219674 0)
(-2.54473 -0.140081 0.00102511)
(10.1303 -0.485288 -0)
(-0.205467 -0.00532872 -4.21806e-06)
(-0.0267914 -0.00101894 0)
(-0.00597567 -0.000153526 -1.39385e-07)
(-0.000389175 5.45657e-06 0)
(0.00171312 -0.000140711 3.9993e-07)
(0.00300176 -0.000525289 0)
(0.00481523 -0.00138272 1.41875e-05)
(0.00813458 -0.00337028 0)
(0.0137886 -0.00766133 0.000163893)
(0.022381 -0.0160445 0)
(0.0340814 -0.0311991 0.00113725)
(0.0475892 -0.0570352 0)
(0.0597007 -0.100616 0.00540247)
(0.056259 -0.161987 0)
(0.0156992 -0.215355 0.0129868)
(-0.0656878 -0.235654 0)
(-0.189156 -0.226413 0.00980266)
(-0.563041 -0.251535 0)
(-2.40707 -0.272696 0.00352272)
(9.66059 -0.426024 -0)
(-0.183769 -0.0119949 -2.23041e-05)
(-0.0278782 -0.00288889 0)
(-0.00354157 -0.000266606 -6.60338e-07)
(0.00477978 5.11498e-05 0)
(0.00783666 -0.000685589 1.86617e-06)
(0.00940036 -0.00205151 0)
(0.0114686 -0.00431299 4.9899e-05)
(0.0145042 -0.0080529 0)
(0.019019 -0.0143137 0.000342925)
(0.0253682 -0.0246731 0)
(0.0335658 -0.0414068 0.00162689)
(0.041675 -0.0660109 0)
(0.0472494 -0.101158 0.00552785)
(0.043853 -0.1471 0)
(0.0215943 -0.194221 0.0117882)
(-0.0305767 -0.228936 0)
(-0.127461 -0.24422 0.011185)
(-0.497423 -0.356037 0)
(-2.18315 -0.460789 0.00938615)
(9.18599 -0.278312 -0)
(-0.423225 -0.0357038 -0.000136156)
(0.00387534 0.00047172 0)
(0.0471264 0.0036841 1.11194e-05)
(0.0573723 -0.000334229 0)
(0.0630309 -0.00853533 3.49766e-05)
(0.0684625 -0.0215593 0)
(0.0729388 -0.0397912 0.000577317)
(0.077105 -0.0628427 0)
(0.0814211 -0.090779 0.00257606)
(0.0858819 -0.1242 0)
(0.089851 -0.164185 0.00733099)
(0.0914777 -0.211216 0)
(0.0879462 -0.264511 0.015904)
(0.0762269 -0.323848 0)
(0.0502854 -0.384876 0.025764)
(-0.00421118 -0.453901 0)
(-0.113656 -0.475209 0.0256742)
(-0.514204 -0.728089 0)
(-1.81158 -0.561344 0.0132551)
(7.05538 0.129278 0)
(0.0297188 0.010617 6.50767e-05)
(0.074328 0.067759 0)
(0.0915649 0.00679987 5.31798e-06)
(0.143798 -0.0880095 0)
(0.17767 -0.217935 0.00390293)
(0.189285 -0.364315 0)
(0.193919 -0.514629 0.0189559)
(0.198258 -0.667439 0)
(0.202363 -0.822859 0.0454485)
(0.205094 -0.980799 0)
(0.205055 -1.14075 0.0842171)
(0.199857 -1.30135 0)
(0.186493 -1.45961 0.133019)
(0.160787 -1.61597 0)
(0.120053 -1.7581 0.179693)
(0.0404862 -1.92523 0)
(-0.0759115 -1.91569 0.183484)
(-0.500566 -2.48571 0)
(-1.2762 -0.905581 0.0268956)
(-2.3844 -0.749952 0)
(16.7136 -7.33497 0.298446)
(13.9696 -12.4042 0)
(8.60936 -17.1104 1.49843)
(5.59976 -20.8487 0)
(4.04605 -23.6121 2.98463)
(3.14362 -25.8704 0)
(2.55242 -27.8775 4.28248)
(2.13306 -29.7024 0)
(1.81861 -31.3687 5.55776)
(1.57654 -32.9014 0)
(1.38057 -34.3178 6.80884)
(1.21453 -35.6216 0)
(1.06668 -36.7949 7.99617)
(0.924033 -37.8369 0)
(0.772052 -38.61 8.93449)
(0.560827 -39.3972 0)
(0.330074 -38.7298 8.92727)
(-0.515687 -41.239 0)
(0.700785 -24.1761 3.01194)
(-14.2755 -55.0512 0)
)
;

boundaryField
{
    movingWall
    {
        type            calculated;
        value           nonuniform List<vector> 
20
(
(0 -367.453 0)
(0 -380.002 0)
(0 -369.03 0)
(0 -358.454 0)
(0 -350.67 0)
(0 -344.503 0)
(0 -339.072 0)
(0 -334.08 0)
(0 -329.419 0)
(0 -325.015 0)
(0 -320.829 0)
(0 -316.87 0)
(0 -313.232 0)
(0 -309.98 0)
(0 -307.652 0)
(0 -305.355 0)
(0 -308.451 0)
(0 -299.324 0)
(0 -359.651 0)
(0 -239.418 0)
)
;
    }
    fixedWalls
    {
        type            calculated;
        value           uniform (-0 0 0);
    }
    frontAndBack
    {
        type            empty;
    }
}


// ************************************************************************* //
