/*--------------------------------*- C++ -*----------------------------------*\
| =========                 |                                                 |
| \\      /  F ield         | OpenFOAM: The Open Source CFD Toolbox           |
|  \\    /   O peration     | Version:  2312                                  |
|   \\  /    A nd           | Website:  www.openfoam.com                      |
|    \\/     M anipulation  |                                                 |
\*---------------------------------------------------------------------------*/
FoamFile
{
    version     2.0;
    format      ascii;
    arch        "LSB;label=32;scalar=64";
    class       volScalarField;
    location    "1.375";
    object      magSqrU;
}
// * * * * * * * * * * * * * * * * * * * * * * * * * * * * * * * * * * * * * //

dimensions      [0 2 -2 0 0 0 0];

internalField   nonuniform List<scalar> 
400
(
1.69482e-07
4.25308e-06
2.264e-05
6.13209e-05
0.000123274
0.000208897
0.000317364
0.000445275
0.000584356
0.000720542
0.000823431
0.000861275
0.000819311
0.0006774
0.00047715
0.000272983
0.000118374
3.30672e-05
3.12149e-06
1.59692e-08
4.38565e-06
2.61078e-05
7.02646e-05
0.000140847
0.000242442
0.000377102
0.000543216
0.000733436
0.000932441
0.00111534
0.00124785
0.00129398
0.00123022
0.00105417
0.000799465
0.000522721
0.00028466
0.000121227
3.16768e-05
1.78568e-06
2.33681e-05
7.05216e-05
0.00013584
0.000225142
0.000344348
0.000497321
0.000683812
0.000897051
0.00112153
0.00133209
0.0014962
0.00158051
0.00155796
0.00141258
0.00115489
0.000827681
0.000500281
0.000246455
8.80697e-05
1.33148e-05
6.34418e-05
0.000138164
0.000220947
0.000324885
0.000457068
0.000623011
0.000825321
0.00106035
0.00131609
0.00157188
0.00180245
0.00198229
0.00208169
0.00205461
0.00185191
0.00145797
0.000929123
0.000453512
0.000165564
2.86472e-05
0.000127279
0.000231193
0.000328017
0.000444386
0.000589681
0.000771382
0.000995433
0.00126302
0.00156877
0.00190329
0.00226405
0.00266269
0.00311089
0.00354049
0.00373144
0.00336371
0.00234057
0.00108606
0.000298094
3.2411e-05
0.000212877
0.000348065
0.000456447
0.000583965
0.000743753
0.000945851
0.00120028
0.00151489
0.00189607
0.00236061
0.00297677
0.00390377
0.00532502
0.0071699
0.00880199
0.00911169
0.00748099
0.00409915
0.000916258
3.58491e-05
0.000314982
0.000484253
0.000602867
0.000740545
0.000915808
0.00114207
0.00143422
0.00180987
0.00229806
0.00297571
0.00408873
0.0061368
0.00944732
0.013168
0.0161157
0.0182432
0.0179812
0.0131601
0.00484964
0.000168509
0.000425954
0.00063206
0.000760142
0.000906688
0.00109678
0.00134772
0.00167975
0.00212344
0.00274239
0.00369811
0.005442
0.0085179
0.0123058
0.0151789
0.0178957
0.0220038
0.0264704
0.0263113
0.0157359
0.0014889
0.000536635
0.00078119
0.000917704
0.00107052
0.00127172
0.00154239
0.00190761
0.00241043
0.00314661
0.00434567
0.00646442
0.00935416
0.0111899
0.0109807
0.0114142
0.015502
0.0235512
0.032455
0.03124
0.00885172
0.000637455
0.000920126
0.00106299
0.00121741
0.00142231
0.0017017
0.00208385
0.00261848
0.00341591
0.00471291
0.00677097
0.0086313
0.00795036
0.00493185
0.0038871
0.00728215
0.0146043
0.0270389
0.0407336
0.0235198
0.0007205
0.00103772
0.00118366
0.00133298
0.00153099
0.00180382
0.00218024
0.00270825
0.00348583
0.00470533
0.00647536
0.00746284
0.00567236
0.00170481
0.00054749
0.00400281
0.00978869
0.0191676
0.0391116
0.0412578
0.000780969
0.00112651
0.00127013
0.00140578
0.00158445
0.00183366
0.00218008
0.00266262
0.00335365
0.00438448
0.0058105
0.00662398
0.00512051
0.00166243
0.000455161
0.00336368
0.00819147
0.0148696
0.0329028
0.0550902
0.000817703
0.00118345
0.0013172
0.00142943
0.00157611
0.00178656
0.00208477
0.00249969
0.00307506
0.00388465
0.00497904
0.00581654
0.00520268
0.00317196
0.00207358
0.00355998
0.00687052
0.0121964
0.0275973
0.0624076
0.000840871
0.00121316
0.0013258
0.00140279
0.00150632
0.00166717
0.00190773
0.00224974
0.0027172
0.00334034
0.00413945
0.00488901
0.00493636
0.00410428
0.00337398
0.00375978
0.00552426
0.00931264
0.0227315
0.0660149
0.000852104
0.00122032
0.00129685
0.00132712
0.00137823
0.00148384
0.00166612
0.00194311
0.00232864
0.00283004
0.00343851
0.00406191
0.00440209
0.00418621
0.00371613
0.0035404
0.00420454
0.00670089
0.0177264
0.0673291
0.000932199
0.00124194
0.00124957
0.00121508
0.00120546
0.00125407
0.00138204
0.00160666
0.00193994
0.00238303
0.00291426
0.00346935
0.00389809
0.00396739
0.00365593
0.00324469
0.00318287
0.00472195
0.0131692
0.0681405
0.000815034
0.00110049
0.00108868
0.00102175
0.000975481
0.000987375
0.00108029
0.00127516
0.00158736
0.00202149
0.00255816
0.00313518
0.00363767
0.0038871
0.0037294
0.00325333
0.00266888
0.00380257
0.00972884
0.0706408
0.00205795
0.00197822
0.00149973
0.00113168
0.000932549
0.000861605
0.000917795
0.00111095
0.00145308
0.00195089
0.00259078
0.00331606
0.00401478
0.00450652
0.00455759
0.00418814
0.00308592
0.00447173
0.00636473
0.0712976
0.000331953
0.000183948
0.000111516
0.000256822
0.000533875
0.000959439
0.00154939
0.00230613
0.00323512
0.00434459
0.00562639
0.00702995
0.0084409
0.00971155
0.0104953
0.0110317
0.00918821
0.0116703
0.00263391
0.0557656
0.0102512
0.00876359
0.00961097
0.0128473
0.0164468
0.0200718
0.0237962
0.0276144
0.0314967
0.0354388
0.0394285
0.0434162
0.0472665
0.0508667
0.0535689
0.0563126
0.0531348
0.0631504
0.015534
0.152381
)
;

boundaryField
{
    movingWall
    {
        type            calculated;
        value           uniform 1;
    }
    fixedWalls
    {
        type            calculated;
        value           uniform 0;
    }
    frontAndBack
    {
        type            empty;
    }
}


// ************************************************************************* //
