/*--------------------------------*- C++ -*----------------------------------*\
| =========                 |                                                 |
| \\      /  F ield         | OpenFOAM: The Open Source CFD Toolbox           |
|  \\    /   O peration     | Version:  2312                                  |
|   \\  /    A nd           | Website:  www.openfoam.com                      |
|    \\/     M anipulation  |                                                 |
\*---------------------------------------------------------------------------*/
FoamFile
{
    version     2.0;
    format      ascii;
    arch        "LSB;label=32;scalar=64";
    class       volScalarField;
    location    "1.375";
    object      magU;
}
// * * * * * * * * * * * * * * * * * * * * * * * * * * * * * * * * * * * * * //

dimensions      [0 1 -1 0 0 0 0];

internalField   nonuniform List<scalar> 
400
(
0.000411682
0.0020623
0.00475816
0.00783077
0.0111029
0.0144533
0.0178147
0.0211015
0.0241735
0.0268429
0.0286955
0.0293475
0.0286236
0.0260269
0.0218438
0.0165222
0.01088
0.00575041
0.00176677
0.000126369
0.00209419
0.00510958
0.0083824
0.0118679
0.0155705
0.0194191
0.023307
0.027082
0.0305359
0.0333967
0.0353249
0.0359719
0.0350745
0.032468
0.0282748
0.0228631
0.0168719
0.0110103
0.00562822
0.00133629
0.00483406
0.00839771
0.011655
0.0150047
0.0185566
0.0223007
0.0261498
0.0299508
0.0334893
0.0364978
0.0386807
0.0397557
0.039471
0.0375844
0.0339837
0.0287694
0.022367
0.0156989
0.00938454
0.00364894
0.00796504
0.0117543
0.0148643
0.0180246
0.0213792
0.0249602
0.0287284
0.0325631
0.036278
0.039647
0.0424553
0.0445229
0.0456256
0.0453279
0.0430338
0.0381834
0.0304815
0.0212958
0.0128672
0.00535231
0.0112818
0.015205
0.0181112
0.0210805
0.0242834
0.0277738
0.0315505
0.0355391
0.0396076
0.0436268
0.047582
0.0516013
0.0557754
0.059502
0.0610855
0.0579975
0.0483795
0.0329554
0.0172654
0.00569307
0.0145903
0.0186565
0.0213646
0.0241654
0.0272718
0.0307547
0.034645
0.0389216
0.0435439
0.0485861
0.0545598
0.0624802
0.0729728
0.0846753
0.0938189
0.0954552
0.0864927
0.0640246
0.0302698
0.00598741
0.0177477
0.0220058
0.0245534
0.027213
0.0302623
0.0337945
0.0378711
0.0425425
0.0479381
0.05455
0.0639432
0.0783377
0.0971973
0.114752
0.126948
0.135067
0.134094
0.114718
0.0696394
0.0129811
0.0206386
0.0251408
0.0275707
0.0301113
0.0331177
0.0367113
0.0409848
0.0460808
0.0523678
0.0608121
0.0737699
0.0922925
0.110932
0.123203
0.133775
0.148337
0.162697
0.162208
0.125443
0.0385863
0.0231654
0.0279498
0.0302936
0.0327187
0.0356612
0.0392732
0.0436762
0.0490961
0.0560946
0.0659217
0.0804016
0.0967169
0.105782
0.104789
0.106837
0.124507
0.153464
0.180153
0.176748
0.0940836
0.0252479
0.0303336
0.0326035
0.0348915
0.0377136
0.0412517
0.0456493
0.0511711
0.0584458
0.0686506
0.0822859
0.0929048
0.0891648
0.0702271
0.0623466
0.0853355
0.120848
0.164435
0.201826
0.153362
0.0268421
0.0322137
0.0344044
0.03651
0.0391279
0.0424714
0.0466931
0.0520409
0.0590409
0.0685954
0.0804696
0.0863877
0.0753151
0.0412893
0.0233985
0.0632678
0.0989378
0.138447
0.197766
0.20312
0.0279458
0.0335636
0.0356388
0.0374938
0.0398051
0.0428213
0.0466914
0.0516006
0.0579107
0.0662154
0.0762266
0.0813878
0.0715578
0.0407729
0.0213345
0.0579972
0.0905067
0.121941
0.181391
0.234713
0.0285955
0.0344013
0.0362932
0.0378078
0.0397002
0.0422677
0.0456593
0.0499969
0.0554532
0.062327
0.0705623
0.0762663
0.0721296
0.0563202
0.0455366
0.0596656
0.0828886
0.110437
0.166124
0.249815
0.0289978
0.0348304
0.0364115
0.0374538
0.0388113
0.040831
0.0436776
0.0474314
0.0521267
0.0577957
0.0643386
0.0699215
0.0702593
0.0640647
0.058086
0.061317
0.0743254
0.096502
0.15077
0.256934
0.0291908
0.034933
0.0360118
0.0364296
0.0371245
0.0385207
0.0408181
0.0440808
0.048256
0.0531981
0.0586388
0.0637331
0.0663483
0.0647009
0.0609601
0.0595013
0.0648424
0.081859
0.13314
0.259479
0.0305319
0.0352412
0.0353493
0.034858
0.0347198
0.0354129
0.0371757
0.0400832
0.0440448
0.0488162
0.0539839
0.0589011
0.0624347
0.0629872
0.0604643
0.0569622
0.0564169
0.0687165
0.114757
0.261037
0.0285488
0.0331736
0.0329951
0.0319648
0.0312327
0.0314225
0.0328678
0.0357094
0.0398416
0.044961
0.0505783
0.0559927
0.0603131
0.0623466
0.0610688
0.057038
0.0516612
0.061665
0.0986349
0.265783
0.0453647
0.0444772
0.0387263
0.0336404
0.0305377
0.0293531
0.0302951
0.0333309
0.0381192
0.0441689
0.0508997
0.0575852
0.0633623
0.0671306
0.0675099
0.0647158
0.0555511
0.066871
0.0797793
0.267016
0.0182196
0.0135628
0.0105601
0.0160257
0.0231057
0.0309748
0.0393623
0.0480221
0.0568782
0.0659135
0.0750093
0.0838448
0.0918744
0.0985472
0.102447
0.105032
0.0958551
0.108029
0.0513216
0.236147
0.101248
0.0936141
0.0980356
0.113346
0.128245
0.141675
0.15426
0.166176
0.177473
0.188252
0.198566
0.208366
0.217409
0.225536
0.23145
0.237303
0.23051
0.251297
0.124636
0.39036
)
;

boundaryField
{
    movingWall
    {
        type            calculated;
        value           uniform 1;
    }
    fixedWalls
    {
        type            calculated;
        value           uniform 0;
    }
    frontAndBack
    {
        type            empty;
    }
}


// ************************************************************************* //
