/*--------------------------------*- C++ -*----------------------------------*\
| =========                 |                                                 |
| \\      /  F ield         | OpenFOAM: The Open Source CFD Toolbox           |
|  \\    /   O peration     | Version:  2312                                  |
|   \\  /    A nd           | Website:  www.openfoam.com                      |
|    \\/     M anipulation  |                                                 |
\*---------------------------------------------------------------------------*/
FoamFile
{
    version     2.0;
    format      ascii;
    arch        "LSB;label=32;scalar=64";
    class       volScalarField;
    location    "1.375";
    object      p;
}
// * * * * * * * * * * * * * * * * * * * * * * * * * * * * * * * * * * * * * //

dimensions      [0 2 -2 0 0 0 0];

internalField   nonuniform List<scalar> 
400
(
7.39433e-09
0
1.96775e-06
2.6357e-05
6.75322e-05
0.000126824
0.000206424
0.000309631
0.000440401
0.000601992
0.00079976
0.00103829
0.00130915
0.00158726
0.00183796
0.00202105
0.00211805
0.00213722
0.00210939
0.00206999
5.28756e-06
0
5.55494e-06
3.15942e-05
7.34512e-05
0.000131746
0.000208363
0.000306159
0.000428707
0.000580256
0.000766483
0.000990746
0.00124587
0.00151611
0.0017664
0.00195646
0.00206432
0.00209493
0.00207585
0.00203665
0
0
0
0
3.85075e-05
9.38034e-05
0.000165114
0.000254875
0.000366695
0.000505849
0.000679273
0.000892884
0.00115008
0.00143807
0.00171627
0.00192951
0.00204646
0.00207062
0.00203867
0.00199278
0
0
0
0
0
0
6.08745e-05
0.000138427
0.000236266
0.000362083
0.000526942
0.00074307
0.00101885
0.00135257
0.00168777
0.00193957
0.0020602
0.00205572
0.00198581
0.00192472
0
0
0
0
0
0
0
0
2.23019e-05
0.000129792
0.000283762
0.00049916
0.000786778
0.00117942
0.00159953
0.00192664
0.00205757
0.00199942
0.00189697
0.0018159
0
0
0
0
0
0
0
0
0
0
0
6.07676e-05
0.000301215
0.000623158
0.00102435
0.00145779
0.00178539
0.00185111
0.00179299
0.00166288
0
0
0
0
0
0
0
0
0
0
0
0
0
0
0
0
0.000235479
0.00125313
0.00168131
0.00157682
0
0
0
0
0
0
0
0
0
0
0
0
0
0
0
0
0
0
0.0012425
0.00164089
0
0
0
0
0
0
0
0
0
0
0
0
0
0
0
0
0
0
0
0.00121717
0
0
0
0
0
0
0
0
0
0
0
0
0
0
0
0
0
0
0
0
0
0
0
0
0
0
0
0
0
0
0
0
0
0
0
0
0
0
0
0
0
0
0
0
0
0
0
0
0
0
0
0
0
0
0
0
0
0
0
0
0
0
0
0
0
0
0
0
0
0
0
0
0
0
0
0
0
0
0
0
0
0
0
0
0
0
0
0
0
0
0
0
0
0
0
0
0
0
0
0
0
0
0
0
0
0
0
0
0
0
0
0
0
0
0
0
0
0
0
0
0
0
0
0
0
0
0
0
0
0
0
0
0
0
0
0
0
0
0
0
0
0
0
0
0
0
0
0
0
0
0
0
0
0
0
0
0
0
0
0
0
0
0
0
0
0
0
0
0
0
0
0
0
0
0
0
0
0
0
0
0
0
0
0
0
0
0
0
0
0
0
0
0
0
0
0
0
8.60906e-05
0.00168194
0.014476
0
0.00126082
0.000498931
0
0
0
0
0
0
0
0
0
0
0
0
0
0
0.00264219
0.00432695
0.0568918
)
;

boundaryField
{
    movingWall
    {
        type            zeroGradient;
    }
    fixedWalls
    {
        type            zeroGradient;
    }
    frontAndBack
    {
        type            empty;
    }
}


// ************************************************************************* //
