/*--------------------------------*- C++ -*----------------------------------*\
| =========                 |                                                 |
| \\      /  F ield         | OpenFOAM: The Open Source CFD Toolbox           |
|  \\    /   O peration     | Version:  2312                                  |
|   \\  /    A nd           | Website:  www.openfoam.com                      |
|    \\/     M anipulation  |                                                 |
\*---------------------------------------------------------------------------*/
FoamFile
{
    version     2.0;
    format      ascii;
    arch        "LSB;label=32;scalar=64";
    class       volScalarField;
    location    "1.375";
    object      QField;
}
// * * * * * * * * * * * * * * * * * * * * * * * * * * * * * * * * * * * * * //

dimensions      [0 0 -2 0 0 0 0];

internalField   nonuniform List<scalar> 
400
(
-0.0297197
-0.135812
-0.283111
-0.390181
-0.44977
-0.475152
-0.486568
-0.505287
-0.56161
-0.647282
-0.718356
-0.994376
-1.3426
-1.56746
-1.67803
-1.51645
-1.10538
-0.602287
-0.180459
-0.00902722
-0.128078
-0.280678
-0.434905
-0.539918
-0.603442
-0.634762
-0.638209
-0.612271
-0.55797
-0.484872
-0.432546
-0.486493
-0.712046
-1.11106
-1.51475
-1.6763
-1.44742
-0.960268
-0.432758
-0.100975
-0.273988
-0.401612
-0.49977
-0.583255
-0.649474
-0.695233
-0.715188
-0.701689
-0.653672
-0.59086
-0.570521
-0.689711
-1.03799
-1.60343
-2.17696
-2.4273
-2.134
-1.49269
-0.821357
-0.259513
-0.400749
-0.483451
-0.538767
-0.601866
-0.669855
-0.738629
-0.800389
-0.846247
-0.877974
-0.926797
-1.07534
-1.46095
-2.24532
-3.39881
-4.38981
-4.47994
-3.56112
-2.19216
-1.14957
-0.424577
-0.481549
-0.524984
-0.560878
-0.617569
-0.696903
-0.799602
-0.923773
-1.06755
-1.2472
-1.5326
-2.11231
-3.35614
-5.61897
-8.50099
-10.4141
-10.1802
-7.79442
-3.66453
-0.775363
-0.575865
-0.51654
-0.525986
-0.557823
-0.619581
-0.718783
-0.864049
-1.06601
-1.34334
-1.75984
-2.52962
-4.22958
-7.83768
-13.5982
-19.4499
-23.203
-25.2621
-23.0791
-15.0218
-1.94638
-0.272999
-0.522429
-0.496014
-0.528849
-0.600645
-0.722859
-0.913276
-1.20077
-1.64439
-2.42003
-4.10501
-8.06474
-15.4082
-22.7471
-24.6045
-24.7084
-29.4584
-37.0593
-37.6529
-21.2355
0.488042
-0.510709
-0.442319
-0.473747
-0.553883
-0.695405
-0.924159
-1.29019
-1.9078
-3.10017
-5.89484
-11.8651
-18.2908
-14.6163
1.29873
14.2733
12.3145
-8.00881
-38.971
-53.6025
-13.1301
-0.485501
-0.372484
-0.39651
-0.478127
-0.629031
-0.880449
-1.29982
-2.05028
-3.56949
-6.93212
-12.2057
-11.1195
9.59864
42.4719
64.3999
66.6889
51.1313
9.32428
-56.3517
-68.1266
-0.445052
-0.295378
-0.306294
-0.38103
-0.529444
-0.785152
-1.22265
-2.02622
-3.64071
-6.74441
-9.53349
-0.916425
29.8995
66.5718
81.7282
76.7954
71.263
59.3904
-11.6679
-123.14
-0.386775
-0.219943
-0.21567
-0.277184
-0.414561
-0.661281
-1.08688
-1.85601
-3.34275
-5.91477
-6.91315
3.36716
34.4442
68.7568
75.426
59.416
48.2984
57.479
31.6592
-125.749
-0.300929
-0.150735
-0.135193
-0.182232
-0.306386
-0.539767
-0.938014
-1.62569
-2.87667
-4.96454
-6.03178
1.17397
24.4272
53.3951
59.1935
41.8303
27.4213
32.5193
39.3688
-86.8968
-0.165541
-0.0870884
-0.0714326
-0.109242
-0.225153
-0.450422
-0.825136
-1.42551
-2.41676
-4.03506
-5.46545
-2.50288
9.58736
26.2437
32.1408
22.6526
13.0713
13.6008
26.1221
-40.0977
0.0475992
-0.017681
-0.0258646
-0.0690858
-0.189432
-0.417134
-0.778721
-1.3108
-2.08035
-3.20926
-4.47973
-4.08572
0.452685
7.21196
9.68601
5.85205
1.21296
1.44068
11.0458
-11.0345
0.405062
0.0568201
-0.00762107
-0.0758172
-0.214963
-0.455627
-0.813051
-1.29552
-1.90557
-2.64809
-3.4385
-3.6454
-2.1146
0.281442
0.733498
-1.55982
-4.6762
-3.39494
5.62004
-5.16133
1.05421
0.136699
-0.0642149
-0.173584
-0.334022
-0.581164
-0.929361
-1.37201
-1.8736
-2.35779
-2.69876
-2.63471
-1.77351
-0.490811
-0.335597
-1.94251
-4.7782
0.712539
11.4475
-16.2765
1.08297
0.122929
0.0788344
-0.0683856
-0.289887
-0.599675
-0.993689
-1.44789
-1.89923
-2.23272
-2.26939
-1.79846
-0.694951
0.777643
1.54353
0.828021
-0.228872
13.1638
6.43028
-58.6052
4.85653
-0.55983
-1.06796
-0.574983
-0.566773
-0.947234
-1.52083
-2.10536
-2.56343
-2.71233
-2.29607
-1.07724
1.00305
3.75958
6.63291
9.24271
16.9518
35.5413
-5.87015
-282.284
-19.3488
5.85719
-2.34786
-5.23806
-2.39328
-1.11479
-1.48004
-2.13469
-2.53388
-2.52139
-1.84556
-0.204532
2.58934
6.37569
12.129
18.3379
41.6661
51.431
177.943
-1166.21
-3311.04
909.654
750.918
404.972
217.165
130.59
86.8392
61.8044
45.8201
35.2417
28.7056
24.9879
23.8701
25.8946
34.0997
44.1908
109.381
-52.971
1798.93
-3088.17
)
;

boundaryField
{
    movingWall
    {
        type            calculated;
        value           nonuniform List<scalar> 
20
(
-6625.13
1693.7
1398.36
752.423
403.213
242.463
161.471
115.361
86.0605
66.7287
54.7899
47.8876
45.5589
48.7242
63.2549
81.3586
199.582
-62.6327
3302.78
-4317.81
)
;
    }
    fixedWalls
    {
        type            calculated;
        value           nonuniform List<scalar> 
60
(
-0.0104326
-0.0763805
-0.214401
-0.371311
-0.494056
-0.57341
-0.627152
-0.666687
-0.690242
-0.684057
-0.633873
-0.516017
-0.289245
0.0900889
0.745791
1.95231
2.35148
9.44928
-42.1898
-7467.69
0.00562188
-0.0462878
-0.205721
-0.454964
-0.554609
0.910897
9.11477
5.99388
-62.6416
-173.348
-230.272
-190.64
-98.4213
-30.2553
-15.1539
-48.5356
-176.183
-850.476
-3839.65
-10965.9
-0.0100031
-0.08115
-0.21327
-0.334161
-0.407315
-0.443192
-0.474683
-0.547284
-0.7226
-0.990249
-1.24021
-1.78664
-2.31145
-2.402
-2.20489
-1.66862
-1.00972
-0.452074
-0.116131
-0.00491491
)
;
    }
    frontAndBack
    {
        type            empty;
    }
}


// ************************************************************************* //
