/*--------------------------------*- C++ -*----------------------------------*\
| =========                 |                                                 |
| \\      /  F ield         | OpenFOAM: The Open Source CFD Toolbox           |
|  \\    /   O peration     | Version:  2312                                  |
|   \\  /    A nd           | Website:  www.openfoam.com                      |
|    \\/     M anipulation  |                                                 |
\*---------------------------------------------------------------------------*/
FoamFile
{
    version     2.0;
    format      ascii;
    arch        "LSB;label=32;scalar=64";
    class       volScalarField;
    location    "1.375";
    object      staticP;
}
// * * * * * * * * * * * * * * * * * * * * * * * * * * * * * * * * * * * * * //

dimensions      [1 -1 -2 0 0 0 0];

internalField   nonuniform List<scalar> 
400
(
1
1
1
1.00003
1.00007
1.00013
1.00021
1.00031
1.00044
1.0006
1.0008
1.00104
1.00131
1.00159
1.00184
1.00202
1.00212
1.00214
1.00211
1.00207
1.00001
1
1.00001
1.00003
1.00007
1.00013
1.00021
1.00031
1.00043
1.00058
1.00077
1.00099
1.00125
1.00152
1.00177
1.00196
1.00206
1.00209
1.00208
1.00204
1
1
1
1
1.00004
1.00009
1.00017
1.00025
1.00037
1.00051
1.00068
1.00089
1.00115
1.00144
1.00172
1.00193
1.00205
1.00207
1.00204
1.00199
1
1
1
1
1
1
1.00006
1.00014
1.00024
1.00036
1.00053
1.00074
1.00102
1.00135
1.00169
1.00194
1.00206
1.00206
1.00199
1.00192
1
1
1
1
1
1
1
1
1.00002
1.00013
1.00028
1.0005
1.00079
1.00118
1.0016
1.00193
1.00206
1.002
1.0019
1.00182
1
1
1
1
1
1
1
1
1
1
1
1.00006
1.0003
1.00062
1.00102
1.00146
1.00179
1.00185
1.00179
1.00166
1
1
1
1
1
1
1
1
1
1
1
1
1
1
1
1
1.00024
1.00125
1.00168
1.00158
1
1
1
1
1
1
1
1
1
1
1
1
1
1
1
1
1
1
1.00124
1.00164
1
1
1
1
1
1
1
1
1
1
1
1
1
1
1
1
1
1
1
1.00122
1
1
1
1
1
1
1
1
1
1
1
1
1
1
1
1
1
1
1
1
1
1
1
1
1
1
1
1
1
1
1
1
1
1
1
1
1
1
1
1
1
1
1
1
1
1
1
1
1
1
1
1
1
1
1
1
1
1
1
1
1
1
1
1
1
1
1
1
1
1
1
1
1
1
1
1
1
1
1
1
1
1
1
1
1
1
1
1
1
1
1
1
1
1
1
1
1
1
1
1
1
1
1
1
1
1
1
1
1
1
1
1
1
1
1
1
1
1
1
1
1
1
1
1
1
1
1
1
1
1
1
1
1
1
1
1
1
1
1
1
1
1
1
1
1
1
1
1
1
1
1
1
1
1
1
1
1
1
1
1
1
1
1
1
1
1
1
1
1
1
1
1
1
1
1
1
1
1
1
1
1
1
1
1
1
1
1
1
1
1
1
1
1
1
1
1
1
1.00009
1.00168
1.01448
1
1.00126
1.0005
1
1
1
1
1
1
1
1
1
1
1
1
1
1
1.00264
1.00433
1.05689
)
;

boundaryField
{
    movingWall
    {
        type            calculated;
        value           nonuniform List<scalar> 
20
(
1
1.00126
1.0005
1
1
1
1
1
1
1
1
1
1
1
1
1
1
1.00264
1.00433
1.05689
)
;
    }
    fixedWalls
    {
        type            calculated;
        value           nonuniform List<scalar> 
60
(
1
1.00001
1
1
1
1
1
1
1
1
1
1
1
1
1
1
1
1
1
1
1.00207
1.00204
1.00199
1.00192
1.00182
1.00166
1.00158
1.00164
1.00122
1
1
1
1
1
1
1
1
1
1.01448
1.05689
1
1
1
1.00003
1.00007
1.00013
1.00021
1.00031
1.00044
1.0006
1.0008
1.00104
1.00131
1.00159
1.00184
1.00202
1.00212
1.00214
1.00211
1.00207
)
;
    }
    frontAndBack
    {
        type            empty;
    }
}


// ************************************************************************* //
