/*--------------------------------*- C++ -*----------------------------------*\
| =========                 |                                                 |
| \\      /  F ield         | OpenFOAM: The Open Source CFD Toolbox           |
|  \\    /   O peration     | Version:  2312                                  |
|   \\  /    A nd           | Website:  www.openfoam.com                      |
|    \\/     M anipulation  |                                                 |
\*---------------------------------------------------------------------------*/
FoamFile
{
    version     2.0;
    format      ascii;
    arch        "LSB;label=32;scalar=64";
    class       volVectorField;
    location    "1.375";
    object      URandom;
}
// * * * * * * * * * * * * * * * * * * * * * * * * * * * * * * * * * * * * * //

dimensions      [0 1 -1 0 0 0 0];

internalField   nonuniform List<vector> 
400
(
(0.0906559 -0.00164274 -0.0415285)
(0.0688319 -0.0364522 -0.0600658)
(0.00920347 0.0499123 -0.0863566)
(-0.0826528 0.0310815 -0.0592215)
(-0.0790438 -0.0409462 0.0596178)
(-0.10284 0.0204895 0.0426155)
(0.0223321 0.020848 0.0895845)
(0.0588554 0.0609494 0.00969639)
(-0.103247 0.0120412 0.060238)
(-0.112648 0.0347541 -0.0388219)
(-0.0107585 -0.097622 0.000458146)
(-0.0025267 -0.0679451 -0.0681063)
(-0.08465 -0.069184 -0.0466777)
(-0.109882 0.0402995 0.0345147)
(0.0251278 -0.0902024 0.0116875)
(-0.0844975 -0.0698379 -0.029771)
(0.0409818 0.025937 -0.0807197)
(-0.0393921 -0.069159 0.0661037)
(-0.076029 -0.062378 0.0259411)
(-0.0616452 -0.0519219 0.0590508)
(0.038389 -0.061243 0.0668531)
(0.0496917 -0.0243859 0.079853)
(0.0321921 -0.0790486 0.0381731)
(0.0606141 0.0598617 -0.0438576)
(-0.073966 0.0655373 -0.0534423)
(-0.0492297 -0.0258078 0.0899488)
(-0.0829513 0.085006 0.00453629)
(0.0143288 0.0840159 -0.045759)
(-0.0853618 -0.0739206 -0.028332)
(-0.0914717 0.0847835 -0.0019737)
(-0.104394 -0.016844 0.0697597)
(-0.0141251 0.0235042 -0.0946911)
(-0.00470485 0.0906429 -0.0194262)
(-0.0631444 0.0167317 -0.0924131)
(-0.099085 -0.0713485 -0.0280459)
(-0.0223143 0.0904664 0.0102352)
(0.0835349 0.0112674 -0.00234655)
(-0.0168028 -0.0808299 0.0670657)
(0.0046763 -0.0703104 0.0747263)
(-0.00162328 0.0942098 -0.0299677)
(0.0233735 -0.0385967 -0.0866909)
(0.0518001 0.0775439 0.042819)
(-0.0525949 -0.0706802 -0.0423353)
(0.0181445 0.0983677 0.0332439)
(-0.0449168 -0.0228568 0.090146)
(0.0721252 -0.0263539 0.0139653)
(-0.0857847 0.00971544 -0.0789441)
(-0.0860187 -0.0142602 0.0785039)
(-0.110134 -0.0448112 0.0345514)
(0.0115886 -0.0801018 -0.0170183)
(-0.0949597 0.0769641 -0.0377373)
(-0.0165731 -0.0873765 0.0428702)
(-0.00487761 0.0767824 -0.0471265)
(-0.102362 -0.00688741 0.0751667)
(-0.0983203 -0.0372438 0.070226)
(0.0153213 0.0220732 -0.0837945)
(0.0196532 -0.078609 -0.0686192)
(0.0320487 -0.0499154 0.0832056)
(0.063459 -0.0819487 0.00952383)
(-0.0267049 -0.080935 0.0578014)
(-0.076163 0.029522 0.0631794)
(-0.0661763 0.00185451 0.0787601)
(-0.0510985 0.0966818 -0.0322011)
(-0.0572241 0.0303431 -0.0877762)
(0.0755512 0.0441949 0.0235414)
(0.052962 -0.0288229 0.0523594)
(-0.0396644 -0.0662565 -0.0583546)
(-0.0107666 -0.014309 0.0942565)
(0.0513658 0.00159136 0.0505854)
(0.032414 -0.0574019 0.0222414)
(-0.0439369 0.036724 0.0950957)
(0.0185063 -0.0330945 -0.0698711)
(-0.0256549 -0.0587072 0.082468)
(-0.00439719 -0.0798094 -0.0632927)
(-0.106063 -0.0407672 -0.0704129)
(-0.0548311 0.0724786 0.00859801)
(-0.111656 -0.0562778 -0.0190843)
(0.047813 0.0400075 -0.0571289)
(-0.0231287 -0.107568 0.0236179)
(-0.00100873 -0.103477 0.0192512)
(-0.0524629 0.0511841 0.0763587)
(-0.101857 -0.0117193 -0.00122472)
(0.0361147 0.080506 0.0614815)
(-0.108989 -0.00309796 -0.0184048)
(-0.0969279 0.0192355 -0.0597651)
(-0.00546414 -0.0757214 0.0309262)
(0.0606738 -0.0196556 -0.0331328)
(-0.0797236 0.0846263 -0.0560849)
(-0.101399 0.0912987 0.0118332)
(-0.0236498 0.0733539 0.078503)
(-0.0218692 0.0474348 0.089226)
(0.0366352 0.0440551 -0.0240495)
(-0.0374459 0.050835 0.0808986)
(-0.00481134 0.0153195 -0.0792558)
(-0.0145093 0.0425574 -0.0602214)
(-0.123221 -0.014844 0.0617809)
(0.0651291 -0.0241725 -0.0186896)
(0.00567835 0.0344653 0.0741205)
(0.0580454 -0.071751 -0.0594537)
(0.0616979 0.0228438 -0.0745373)
(-0.0476173 -0.0341746 -0.074353)
(0.0234359 0.095113 0.056789)
(-0.0965314 0.0217347 0.0477793)
(0.0576357 0.0582673 -0.0606385)
(-0.0301841 0.0646556 -0.0892772)
(-0.00218963 -0.0138987 -0.0912036)
(-0.0776321 0.108446 -0.00665653)
(0.00446235 0.0108639 0.0926114)
(0.0379668 0.0717445 0.0437129)
(-0.00163952 0.0311798 0.0898214)
(-0.129122 0.00161418 -0.0621458)
(-0.0281825 0.0477214 0.0863376)
(0.00148739 -0.0578047 0.031217)
(-0.0917945 0.0877179 -0.0103555)
(-0.15048 0.0242504 -0.0593523)
(-0.0590688 -0.0763032 0.0916898)
(-0.00304837 -0.120741 0.0394386)
(-0.0258832 -0.123138 0.0664321)
(-0.0123211 -0.0920331 -0.0773226)
(0.0733635 0.0430391 -0.0512589)
(0.0305034 0.0953251 -0.0542116)
(0.0882528 -0.00911493 0.0200098)
(-0.0703347 0.0695038 -0.0631754)
(0.0684735 -0.0350834 0.00218348)
(0.0254617 -0.00971478 0.0839113)
(-0.0688039 0.109755 -0.028475)
(0.0639496 -0.0102433 0.0245913)
(0.0148924 0.117198 -0.0151481)
(-0.0316545 0.00304661 0.0962014)
(-0.0111534 0.0937331 0.0675587)
(0.0343722 0.022938 0.0384858)
(-0.119828 -0.0612003 -0.0237666)
(-0.00985074 -0.0163258 -0.0387568)
(-0.17011 0.0188433 0.0811638)
(-0.110863 -0.0434117 0.0978469)
(-0.0683586 -0.142384 -0.000748011)
(-0.0679676 -0.172244 0.0103098)
(-0.0439739 -0.030304 0.0770523)
(0.0302219 -0.0821816 -0.0703625)
(0.0772253 0.028133 -0.04939)
(0.056936 0.0672772 0.066445)
(0.061049 -0.0358706 0.0452572)
(-0.00258732 0.0828112 -0.0825285)
(0.0293003 -0.0327282 0.0685098)
(-0.0714444 -0.0352935 -0.0498725)
(0.00663239 0.0813826 -0.0831947)
(-0.0296001 -0.0563139 -0.0426004)
(-0.0150976 -0.0561621 -0.0362688)
(-0.0596234 0.0378119 0.0971622)
(0.0267562 -0.0230862 0.0274835)
(-0.0163682 0.0744341 0.0848555)
(-0.0670015 -0.0160112 -0.0773699)
(-0.178333 0.059527 0.0635143)
(-0.144054 0.0600732 -0.0862913)
(-0.182077 -0.105773 -0.0292302)
(-0.0538155 -0.128325 -0.00160806)
(-0.195357 -0.131197 0.0659887)
(-0.130266 -0.0270354 0.00596221)
(-0.148481 -0.139653 0.0455266)
(-0.0792574 0.0304255 -0.0356733)
(-0.072148 0.0903554 0.0210946)
(0.0587655 0.0862032 0.0517247)
(-0.0723936 0.0483705 0.0727622)
(0.0595994 0.0299223 -0.0724991)
(-0.0650602 0.0697276 -0.0768473)
(0.017569 -0.033599 0.0636301)
(0.0533254 0.0309034 -0.0676869)
(-0.0420491 -0.0535028 -0.0227766)
(-0.0659674 0.0362521 -0.0932319)
(0.030978 0.121279 -0.0157232)
(-0.0481597 0.126722 0.0750669)
(-0.121989 0.151916 0.00047712)
(-0.157942 0.0484525 -0.0722462)
(-0.08576 0.110925 -0.0501178)
(-0.0292568 -0.0640507 -0.046424)
(-0.163969 0.00229926 0.044752)
(-0.084804 -0.184102 0.0634209)
(-0.00326267 -0.154299 0.0112557)
(-0.123266 -0.111566 -0.0767306)
(-0.00153409 -0.0347517 0.0786334)
(-0.0207868 0.0681429 0.0881109)
(-0.0610932 0.111341 0.00594933)
(0.0826035 -0.0101073 -0.0224676)
(-0.0510569 -0.033723 -0.0591777)
(-0.0358378 0.132108 0.0128667)
(0.00916523 0.1238 0.0489324)
(0.0587195 0.00225211 -0.0532965)
(-0.104075 0.0142004 0.0408321)
(0.017187 0.123042 -0.0591164)
(-0.0960687 0.120043 -0.0467164)
(-0.103587 0.0493333 -0.070585)
(0.0169921 0.0404103 0.065573)
(-0.000518424 -0.00970184 -0.0263591)
(-0.118549 0.00587235 0.077807)
(-0.0510485 0.0282283 0.0898704)
(-0.0714906 -0.0171681 -0.0890238)
(0.0121216 -0.16613 0.0158541)
(-0.167681 -0.162815 0.0226038)
(0.0126148 -0.243653 -0.0210883)
(-0.022231 -0.241807 -0.0338405)
(0.03738 -0.0655579 0.00429423)
(-0.0623602 0.0593991 -0.0750695)
(0.0682331 -0.0106897 0.052832)
(-0.0553469 0.0883738 -0.0691305)
(-0.0115262 0.00601927 -0.0944764)
(0.0645616 0.00931858 0.060026)
(0.0537234 -0.0273527 -0.0243413)
(0.015421 -0.00232552 0.0802653)
(0.0354699 0.138783 0.030501)
(-0.0580665 0.00502962 0.0663228)
(-0.0859209 0.148041 -0.0213801)
(-0.00231372 0.00524499 0.0589494)
(0.06543 0.12127 0.014906)
(-0.0758149 0.0667951 -0.0773949)
(-0.0737519 -0.00144323 -0.0824286)
(-0.0482268 0.00640098 -0.0681591)
(-0.0536482 -0.0804802 -0.0939453)
(0.0549837 -0.12169 -0.0452482)
(-0.0980714 -0.134071 -0.0611532)
(0.0271032 -0.209075 0.0810751)
(0.077058 0.00668152 -0.0595877)
(0.0443415 -0.0553028 0.00359207)
(-0.0631313 -0.0435748 0.008103)
(-0.00661956 0.120449 -0.0555153)
(0.0259763 0.0742195 -0.088843)
(-0.0731062 0.0762668 -0.064583)
(-0.044753 0.106261 0.0694494)
(-0.074342 -0.00472207 0.0445608)
(-0.0432517 0.0633973 0.0917521)
(-0.0718016 0.0801769 -0.0703025)
(-0.00581837 0.0225523 0.0840433)
(0.0934656 0.0385979 0.0298106)
(0.0647856 0.136107 -0.0549779)
(-0.00321271 0.0961744 0.077889)
(0.0152827 -0.0764926 -0.076343)
(0.0724162 -0.026945 0.07497)
(0.0289566 -0.00496512 0.0456919)
(0.00292919 -0.0236624 0.0170807)
(0.060948 -0.206999 -0.0496963)
(0.00293698 -0.286661 -0.0813293)
(-0.0770587 -0.0291209 0.0275923)
(0.0695591 0.0686391 0.0622268)
(0.00218795 0.126498 -0.0429611)
(-0.0676386 -0.0352763 -0.0175027)
(0.0671156 0.0775743 -0.0621327)
(0.00978193 0.137052 0.0300375)
(0.0864541 0.0353041 -0.0498543)
(-0.0560494 -0.0305672 0.0107543)
(-0.0278534 0.00910656 -0.0823729)
(-0.0237644 0.0506332 -0.0936338)
(0.081875 0.0410253 0.0706773)
(0.0504022 -0.0233658 0.0214179)
(0.0819508 0.0867001 0.085855)
(0.0153407 0.117959 0.0471559)
(0.11376 -0.0750425 -0.0224779)
(0.0829649 0.0112602 0.0673623)
(0.0504854 -0.0697693 0.0958524)
(-0.0733538 -0.0571363 0.0161895)
(0.0796745 -0.117461 -0.0172915)
(0.0305159 -0.331581 -0.0343705)
(-0.0504754 0.0844068 -0.0663022)
(-0.0478781 0.0650264 -0.082723)
(0.0723493 0.104349 -0.00780053)
(0.0676536 0.108481 -0.0185856)
(-0.013898 -0.0295512 -0.0715098)
(-0.0742713 0.0441712 -0.0641425)
(0.0711205 0.0459806 0.0747606)
(-0.0828284 0.0551414 0.0409564)
(0.0882005 0.104318 0.0370226)
(0.110306 0.0854741 0.0244564)
(0.0591721 0.152495 0.0109224)
(0.0478622 0.0695453 0.0989025)
(-0.0375989 0.0970921 0.0177907)
(0.13248 0.0262348 0.0655163)
(0.0663672 0.0924721 -0.0320773)
(0.120096 -0.0836383 0.0526232)
(0.0476334 0.0216302 -0.0481611)
(0.0956954 -0.0481686 0.0446345)
(0.0709138 -0.180001 0.06673)
(-0.07732 -0.240007 -0.0745416)
(0.0668474 -0.0440881 -0.0111575)
(-0.0529991 -0.0155684 0.0686104)
(0.0813804 0.0648011 0.0497892)
(-0.0364212 0.104071 0.0637236)
(0.0681553 0.102905 -0.0362495)
(0.047715 -0.0231103 0.0662407)
(-0.02769 -0.0394439 -0.049069)
(-0.0155345 0.0716383 0.0914402)
(-0.0203707 0.0974918 0.0760271)
(-0.00220086 0.131925 0.0461292)
(0.0922878 -0.0064677 0.0583342)
(-0.00909667 0.00487665 -0.0742719)
(0.117649 0.0858659 -0.0608991)
(0.0969522 0.087252 -0.0682897)
(-0.0211798 0.0580422 -0.00713378)
(0.130123 -0.0453885 0.0616343)
(0.0685559 -0.068344 -0.0944004)
(-0.0623615 -0.0946323 -0.0476723)
(-0.0662216 -0.0793485 0.0414724)
(-0.00404671 -0.358469 -0.00847581)
(0.0306681 0.119575 0.0328597)
(0.0410122 0.106625 -0.055741)
(-0.0215054 0.00437249 0.0928273)
(-0.057138 0.0847971 0.0646909)
(0.0968894 0.0615339 0.0207332)
(-0.0821458 0.0559296 0.0420591)
(-0.000870507 -0.0634733 0.00587075)
(0.0799776 0.057273 -0.07357)
(0.00342515 -0.0577908 -0.0201272)
(0.10031 -0.00241601 -0.0553473)
(-0.0153215 -0.0397374 0.0314698)
(-0.0197489 -0.0339259 0.0253558)
(0.000502452 0.0419799 0.0840728)
(0.0751874 0.101702 0.0564531)
(0.0201967 0.0958217 0.00572339)
(0.0870105 0.0124144 -0.0905495)
(0.0349506 0.0344188 -0.0703378)
(0.0729615 -0.0796196 -0.0877276)
(-9.32717e-05 -0.0918989 0.096649)
(0.0235419 -0.280012 -0.0916641)
(0.0568937 -0.0142039 -0.0687419)
(0.0860106 0.0706586 -0.0241639)
(-0.0545741 -0.0517373 -0.0110481)
(-0.0723939 0.0263738 -0.069118)
(-0.0457583 -0.052052 -0.027076)
(-0.0403535 1.66638e-05 0.0827316)
(0.0353685 0.126271 0.0176644)
(0.0728574 -0.0106374 -0.0718684)
(0.101521 0.0774296 0.0436451)
(0.108684 0.00641834 0.057903)
(0.0836517 -0.0417787 0.0510965)
(0.089277 -0.0483048 -0.0461214)
(0.0393728 0.124302 -0.00310715)
(-0.015605 0.083552 0.000373853)
(-0.0123355 0.0734943 0.0145446)
(0.113474 0.0353194 0.0701443)
(0.0359268 -0.112646 -0.0450248)
(0.0189 -0.0905837 0.0898661)
(-0.0228635 -0.0366789 -0.0674632)
(-0.0291278 -0.360931 0.0218948)
(0.0180516 0.135804 -0.0362429)
(0.0783535 0.0215724 0.0497981)
(0.0432218 -0.0286077 -0.057826)
(0.0592989 -0.0463749 -0.0102219)
(0.0890901 0.0635367 -0.0408544)
(-0.0346612 -0.0327117 -0.0665135)
(-0.0187985 0.0679569 0.0847338)
(0.101517 -0.0291841 0.0223397)
(-0.0237235 0.106603 0.0264579)
(0.0857963 0.0614853 -0.0789346)
(0.114256 -0.00589304 -0.0650797)
(0.10118 0.0983723 -0.0443317)
(0.114288 -0.0630952 0.0127719)
(-0.0052493 -0.0468974 -0.0337328)
(0.0459025 -0.011407 0.0956621)
(-0.00207604 -0.0583954 -0.046893)
(-0.0293878 -0.0589404 -0.0304008)
(0.0636226 0.0166715 -0.0828654)
(0.0800286 -0.153905 0.0279268)
(-0.0697044 -0.326864 -0.0291251)
(-0.048848 -0.0496055 0.0609739)
(-0.0314605 -0.039053 0.0842212)
(0.0324303 -0.0260018 -0.0869614)
(0.0810813 0.0235535 -0.067932)
(0.0333274 -0.0392451 -0.0828431)
(0.0415759 -0.0306689 -0.08821)
(-0.0536326 -0.0282544 -0.00636465)
(0.0468582 0.0464789 -0.0944625)
(0.0283252 0.0874226 -0.0618363)
(0.129365 0.0852987 0.0252689)
(0.049834 -0.0528696 0.0710624)
(0.0886209 0.0806678 0.073151)
(0.078266 0.0551988 0.0890921)
(0.117833 -0.00801741 0.0964014)
(0.186747 -0.0255759 -0.0423493)
(0.170636 -0.0420188 0.0611307)
(0.0643897 0.0684627 0.0615907)
(0.175375 -0.0751988 0.0476604)
(-0.0583915 -0.0354574 0.0468934)
(0.101892 -0.165404 -0.0738433)
(0.0821641 0.144814 0.0746004)
(-0.00149832 0.012504 -0.0514017)
(0.0221747 0.0225992 -0.0725404)
(0.174016 0.00189843 -0.0712521)
(0.11146 -0.0416731 0.0759319)
(0.216716 0.0816867 0.00630887)
(0.102628 -0.0501433 -0.0572481)
(0.141519 0.0740283 -0.0745208)
(0.0972718 0.0356066 0.0545303)
(0.100297 -0.0285396 0.0298635)
(0.167732 -0.0721855 -0.0513068)
(0.246097 0.0836766 0.0519923)
(0.182328 -0.0554445 -0.0704514)
(0.170002 -0.0192829 0.0794284)
(0.271207 0.00851106 -0.0916547)
(0.263874 0.0798172 -0.0587342)
(0.180714 0.0522466 -0.0706607)
(0.348388 0.0207234 -0.000365736)
(0.190822 -0.0276155 0.0680984)
(0.315 -0.175149 -0.0096982)
)
;

boundaryField
{
    movingWall
    {
        type            fixedValue;
        value           uniform (1 0 0);
    }
    fixedWalls
    {
        type            noSlip;
    }
    frontAndBack
    {
        type            empty;
    }
}


// ************************************************************************* //
