/*--------------------------------*- C++ -*----------------------------------*\
| =========                 |                                                 |
| \\      /  F ield         | OpenFOAM: The Open Source CFD Toolbox           |
|  \\    /   O peration     | Version:  2312                                  |
|   \\  /    A nd           | Website:  www.openfoam.com                      |
|    \\/     M anipulation  |                                                 |
\*---------------------------------------------------------------------------*/
FoamFile
{
    version     2.0;
    format      ascii;
    arch        "LSB;label=32;scalar=64";
    class       volScalarField;
    location    "1.375";
    object      Ux;
}
// * * * * * * * * * * * * * * * * * * * * * * * * * * * * * * * * * * * * * //

dimensions      [0 1 -1 0 0 0 0];

internalField   nonuniform List<scalar> 
400
(
-0.000292698
-0.00182837
-0.00454753
-0.00766973
-0.0109816
-0.0143589
-0.017739
-0.0210409
-0.0241284
-0.026816
-0.0286855
-0.0293469
-0.0286134
-0.0259686
-0.0216868
-0.0162272
-0.010449
-0.0052529
-0.00135557
0.000125557
-0.000973652
-0.00357697
-0.0069549
-0.0106883
-0.0146214
-0.0186519
-0.0226887
-0.0266013
-0.0301982
-0.0332093
-0.0352681
-0.0359718
-0.0349731
-0.0320127
-0.0271922
-0.0210172
-0.0144067
-0.00838819
-0.0035486
-0.000610059
-0.00152048
-0.00466183
-0.00819304
-0.0120033
-0.0160176
-0.0201747
-0.0244029
-0.0285842
-0.0325314
-0.0359664
-0.0385178
-0.0397556
-0.0392186
-0.0364478
-0.0312891
-0.0241877
-0.0162652
-0.00914059
-0.00381338
-0.000741732
-0.00176484
-0.00517493
-0.00878562
-0.0126114
-0.0166388
-0.0208625
-0.02527
-0.0297918
-0.0342817
-0.0384875
-0.0420504
-0.0445164
-0.0452733
-0.0434379
-0.0382423
-0.0297454
-0.0190136
-0.00884868
-0.00220435
-3.48774e-05
-0.00181284
-0.00529656
-0.00892091
-0.0127327
-0.0167697
-0.0210782
-0.0257159
-0.0306941
-0.0359506
-0.0413251
-0.0465926
-0.0514912
-0.0555423
-0.0574632
-0.0552219
-0.046965
-0.0324034
-0.0147031
-0.00105659
0.00137067
-0.00174933
-0.0051588
-0.00871234
-0.0124528
-0.0164565
-0.0208185
-0.0256712
-0.0311326
-0.0372868
-0.0441969
-0.0521289
-0.0616769
-0.0729627
-0.0839002
-0.0894689
-0.0840768
-0.0669767
-0.0402538
-0.00969765
0.00249668
-0.0016129
-0.00482891
-0.00821217
-0.0117869
-0.0156553
-0.0199511
-0.0248755
-0.0306723
-0.0376441
-0.0462642
-0.0578222
-0.0743626
-0.0956127
-0.114752
-0.123945
-0.121988
-0.107038
-0.0777171
-0.036956
0.000600164
-0.00141933
-0.00433618
-0.00743857
-0.0107215
-0.0142954
-0.01831
-0.0230075
-0.0287325
-0.0359707
-0.0454765
-0.0594354
-0.0800158
-0.10393
-0.122354
-0.131491
-0.132518
-0.125493
-0.105028
-0.0657045
-0.0136576
-0.00117986
-0.00370311
-0.00641176
-0.00926096
-0.012345
-0.0157968
-0.0198487
-0.0248564
-0.0313008
-0.0398802
-0.0526049
-0.0705415
-0.0892958
-0.101552
-0.105222
-0.105806
-0.106976
-0.102439
-0.0791
-0.0321124
-0.000910172
-0.00296575
-0.00518156
-0.00746478
-0.00986936
-0.0124796
-0.0154637
-0.019075
-0.0236088
-0.029296
-0.037
-0.0473285
-0.0576295
-0.0619381
-0.0606203
-0.059548
-0.0635956
-0.0713818
-0.0688987
-0.0368978
-0.000635518
-0.0021813
-0.00384082
-0.00546407
-0.00705104
-0.00862039
-0.0102448
-0.012013
-0.0139436
-0.0157534
-0.0172027
-0.0184782
-0.0205627
-0.0206051
-0.018592
-0.018554
-0.0231893
-0.0332852
-0.0448464
-0.0308431
-0.000383857
-0.00143293
-0.00252048
-0.00344432
-0.00414998
-0.00459459
-0.00476279
-0.00459165
-0.00388158
-0.00207553
0.00180202
0.00794676
0.013331
0.0173158
0.0176751
0.013193
0.00422317
-0.00586252
-0.0215569
-0.0212652
-0.000198033
-0.000832037
-0.0013842
-0.00162722
-0.00146309
-0.000811718
0.000388105
0.0022785
0.00514353
0.00959408
0.0167076
0.0267729
0.0370976
0.0443682
0.0451604
0.0371216
0.0236736
0.00998222
-0.00601951
-0.0148756
-0.000138276
-0.000497836
-0.000609525
-0.000240104
0.000725362
0.00237145
0.00475572
0.00801299
0.01239
0.0183166
0.0266044
0.0374947
0.0489982
0.0569923
0.0580556
0.0501695
0.0356975
0.0191833
0.00241903
-0.0127624
-0.000278538
-0.000627495
-0.000424593
0.000503984
0.00219864
0.00471089
0.00807396
0.0123679
0.0177326
0.0243884
0.0326703
0.0426946
0.0529778
0.0599873
0.0609433
0.0541559
0.0409496
0.0240058
0.00731798
-0.0124159
-0.00079157
-0.00133933
-0.00090789
0.000488691
0.00284221
0.00610427
0.0102606
0.0153424
0.0213922
0.028442
0.0364515
0.0452258
0.0536941
0.0595008
0.0603042
0.0548703
0.0432956
0.0280288
0.0129181
-0.0115004
-0.00185947
-0.00341932
-0.00247683
-0.000342045
0.00272199
0.00669988
0.0115695
0.0173338
0.0239579
0.0313475
0.0392903
0.0473464
0.0546459
0.0597481
0.0606948
0.0565359
0.0457988
0.0358911
0.0203697
-0.00804886
-0.00381348
-0.00537425
-0.00301821
0.000195973
0.00409786
0.00881666
0.0145087
0.0210575
0.0283773
0.0363294
0.0446508
0.0528421
0.060126
0.0653448
0.066941
0.0647131
0.0540273
0.0546223
0.0236131
0.00489181
-0.0061295
-0.00913718
-0.000782071
0.00836579
0.0179086
0.0274863
0.0368341
0.0460342
0.0552324
0.064518
0.073826
0.0828732
0.0911335
0.098063
0.102208
0.105009
0.09578
0.105903
0.0296998
0.0708521
0.0406882
0.0621568
0.0875745
0.109466
0.126403
0.140641
0.153618
0.165749
0.177176
0.188036
0.198406
0.208245
0.217317
0.225469
0.231403
0.237279
0.230502
0.251278
0.124583
0.377862
)
;

boundaryField
{
    movingWall
    {
        type            calculated;
        value           uniform 1;
    }
    fixedWalls
    {
        type            calculated;
        value           uniform 0;
    }
    frontAndBack
    {
        type            empty;
    }
}


// ************************************************************************* //
