/*--------------------------------*- C++ -*----------------------------------*\
| =========                 |                                                 |
| \\      /  F ield         | OpenFOAM: The Open Source CFD Toolbox           |
|  \\    /   O peration     | Version:  2312                                  |
|   \\  /    A nd           | Website:  www.openfoam.com                      |
|    \\/     M anipulation  |                                                 |
\*---------------------------------------------------------------------------*/
FoamFile
{
    version     2.0;
    format      ascii;
    arch        "LSB;label=32;scalar=64";
    class       volScalarField;
    location    "1.375";
    object      Uy;
}
// * * * * * * * * * * * * * * * * * * * * * * * * * * * * * * * * * * * * * //

dimensions      [0 1 -1 0 0 0 0];

internalField   nonuniform List<scalar> 
400
(
0.0002895
0.000954013
0.00140001
0.00157989
0.00163616
0.00164924
0.00164066
0.00159828
0.00147574
0.00120279
0.000756952
0.000188701
-0.00076551
-0.00174048
-0.00261369
-0.00310818
-0.00303188
-0.00233971
-0.0011331
1.43079e-05
0.00185409
0.00364872
0.0046791
0.00515814
0.00535318
0.0054044
0.0053327
0.00508024
0.00452862
0.00353327
0.00200139
-8.22873e-05
-0.00266554
-0.00541838
-0.00774932
-0.00899998
-0.00878107
-0.00713199
-0.00436855
-0.00118891
0.00458871
0.00698491
0.00828941
0.0090035
0.00936941
0.00950279
0.00939736
0.00894385
0.0079524
0.00620522
0.00354609
-5.68744e-05
-0.0044567
-0.009173
-0.013262
-0.0155767
-0.0153533
-0.0127634
-0.00857483
-0.00357276
0.00776705
0.0105538
0.01199
0.0128778
0.0134246
0.0137028
0.0136656
0.0131455
0.0118684
0.00951824
0.0058494
0.000760552
-0.00565867
-0.0129524
-0.019734
-0.0239412
-0.0238245
-0.0193704
-0.012677
-0.0053522
0.0111352
0.0142527
0.0157618
0.0168007
0.017563
0.0180857
0.0182791
0.0179136
0.0166228
0.0139833
0.00965279
0.00336891
-0.00509304
-0.0154426
-0.0261148
-0.0340295
-0.0359248
-0.0294937
-0.017233
-0.0055256
0.0144851
0.0179291
0.0195075
0.0207097
0.0217471
0.0226372
0.0232652
0.0233593
0.0224893
0.0201802
0.0161044
0.00998635
0.00120955
-0.0114307
-0.0282368
-0.0451971
-0.0547276
-0.0497873
-0.0286743
-0.00544203
0.0176743
0.0214694
0.0231393
0.0245278
0.0258983
0.0272768
0.0285557
0.0294801
0.0296813
0.0289021
0.0273007
0.0246373
0.0174796
0.000191498
-0.0274479
-0.0579839
-0.0807717
-0.0843812
-0.0590245
-0.0129672
0.0205898
0.024764
0.0265482
0.0281378
0.0298734
0.0318192
0.0339177
0.0360261
0.0380591
0.0403732
0.0436971
0.0459931
0.0387863
0.0144343
-0.0246152
-0.0666538
-0.103547
-0.123614
-0.106859
-0.0360884
0.0231353
0.0277034
0.0296073
0.0313807
0.0334563
0.0359562
0.0389056
0.042339
0.0465496
0.0524904
0.0608041
0.0661669
0.0567107
0.0258437
-0.0185084
-0.0656291
-0.110033
-0.148193
-0.158061
-0.0884337
0.0252315
0.0301883
0.0321891
0.0340836
0.0363993
0.0393187
0.0429503
0.047483
0.0534652
0.0620859
0.0734981
0.0799457
0.0680382
0.0330987
-0.01457
-0.0611243
-0.102761
-0.148133
-0.189701
-0.148857
0.0268346
0.0321398
0.0341894
0.0360988
0.0384874
0.0415873
0.0455553
0.0506354
0.0573708
0.066762
0.0786093
0.0843884
0.0724537
0.0357804
-0.0142066
-0.060486
-0.0961818
-0.134386
-0.192615
-0.200765
0.0279432
0.033533
0.0355496
0.0373352
0.0395882
0.0425741
0.0464478
0.0513959
0.0577805
0.0661829
0.0762053
0.080999
0.070305
0.0369133
-0.0119478
-0.0564767
-0.0904081
-0.1218
-0.180106
-0.233748
0.0285948
0.0343912
0.0362668
0.0377727
0.0396732
0.0422599
0.0456577
0.0499449
0.0552142
0.0615841
0.0685558
0.0714126
0.0618583
0.0346904
-0.00584109
-0.0467115
-0.079436
-0.109985
-0.166015
-0.249372
0.0289974
0.0348269
0.0364064
0.037453
0.0388046
0.0407621
0.0434179
0.0467496
0.0506328
0.0548164
0.0585804
0.0590183
0.0503541
0.0292603
-0.00187818
-0.0352533
-0.0651916
-0.0945761
-0.15075
-0.256617
0.0291895
0.0349274
0.0360093
0.0364261
0.0370594
0.0382315
0.0400116
0.0423102
0.0448798
0.0472784
0.0486946
0.047319
0.039943
0.0242432
0.00143039
-0.0246483
-0.050276
-0.0782599
-0.132939
-0.259181
0.0305217
0.0352158
0.0353376
0.0348546
0.0346033
0.0348828
0.0357317
0.0370307
0.0385009
0.0396746
0.0398189
0.0377356
0.0318596
0.020665
0.00439612
-0.0152949
-0.0361713
-0.0627403
-0.114028
-0.260784
0.0284882
0.0329969
0.032902
0.031963
0.0311139
0.0306999
0.0307642
0.0312202
0.0318336
0.0322307
0.0318501
0.0298914
0.0255244
0.0178119
0.00674833
-0.00755094
-0.0239029
-0.0501438
-0.0965086
-0.265661
0.0452041
0.0441513
0.0386085
0.0336398
0.0302615
0.0279977
0.026595
0.0258366
0.025452
0.0251211
0.0244354
0.022886
0.0199911
0.0153808
0.00874607
-0.000600392
-0.0129217
-0.0385763
-0.0762047
-0.266971
0.0171576
0.010023
0.0105311
0.0136688
0.0145999
0.0142809
0.0138795
0.0136741
0.0135831
0.0134913
0.0132706
0.0127274
0.0116441
0.00975717
0.0069794
0.00220825
-0.0037954
-0.0213266
-0.0418548
-0.225268
0.0927129
0.0700009
0.0440645
0.0294016
0.0216598
0.0170899
0.014065
0.0119032
0.0102718
0.00901015
0.00798168
0.00710015
0.00630002
0.00550629
0.00462717
0.00337771
0.00196445
-0.00314219
0.00361125
-0.0979846
)
;

boundaryField
{
    movingWall
    {
        type            calculated;
        value           uniform 0;
    }
    fixedWalls
    {
        type            calculated;
        value           uniform 0;
    }
    frontAndBack
    {
        type            empty;
    }
}


// ************************************************************************* //
