/*--------------------------------*- C++ -*----------------------------------*\
| =========                 |                                                 |
| \\      /  F ield         | OpenFOAM: The Open Source CFD Toolbox           |
|  \\    /   O peration     | Version:  2312                                  |
|   \\  /    A nd           | Website:  www.openfoam.com                      |
|    \\/     M anipulation  |                                                 |
\*---------------------------------------------------------------------------*/
FoamFile
{
    version     2.0;
    format      ascii;
    arch        "LSB;label=32;scalar=64";
    class       volVectorField;
    location    "1.375";
    object      UzeroGrad;
}
// * * * * * * * * * * * * * * * * * * * * * * * * * * * * * * * * * * * * * //

dimensions      [0 1 -1 0 0 0 0];

internalField   nonuniform List<vector> 
400
(
(-0.000292698 0.0002895 0)
(-0.00182837 0.000954013 0)
(-0.00454753 0.00140001 0)
(-0.00766973 0.00157989 0)
(-0.0109816 0.00163616 0)
(-0.0143589 0.00164924 0)
(-0.017739 0.00164066 0)
(-0.0210409 0.00159828 0)
(-0.0241284 0.00147574 0)
(-0.026816 0.00120279 0)
(-0.0286855 0.000756952 0)
(-0.0293469 0.000188701 0)
(-0.0286134 -0.00076551 0)
(-0.0259686 -0.00174048 0)
(-0.0216868 -0.00261369 0)
(-0.0162272 -0.00310818 0)
(-0.010449 -0.00303188 0)
(-0.0052529 -0.00233971 0)
(-0.00135557 -0.0011331 0)
(0.000125557 1.43079e-05 0)
(-0.000973652 0.00185409 0)
(-0.00357697 0.00364872 0)
(-0.0069549 0.0046791 0)
(-0.0106883 0.00515814 0)
(-0.0146214 0.00535318 0)
(-0.0186519 0.0054044 0)
(-0.0226887 0.0053327 0)
(-0.0266013 0.00508024 0)
(-0.0301982 0.00452862 0)
(-0.0332093 0.00353327 0)
(-0.0352681 0.00200139 0)
(-0.0359718 -8.22873e-05 0)
(-0.0349731 -0.00266554 0)
(-0.0320127 -0.00541838 0)
(-0.0271922 -0.00774932 0)
(-0.0210172 -0.00899998 0)
(-0.0144067 -0.00878107 0)
(-0.00838819 -0.00713199 0)
(-0.0035486 -0.00436855 0)
(-0.000610059 -0.00118891 0)
(-0.00152048 0.00458871 0)
(-0.00466183 0.00698491 0)
(-0.00819304 0.00828941 0)
(-0.0120033 0.0090035 0)
(-0.0160176 0.00936941 0)
(-0.0201747 0.00950279 0)
(-0.0244029 0.00939736 0)
(-0.0285842 0.00894385 0)
(-0.0325314 0.0079524 0)
(-0.0359664 0.00620522 0)
(-0.0385178 0.00354609 0)
(-0.0397556 -5.68744e-05 0)
(-0.0392186 -0.0044567 0)
(-0.0364478 -0.009173 0)
(-0.0312891 -0.013262 0)
(-0.0241877 -0.0155767 0)
(-0.0162652 -0.0153533 0)
(-0.00914059 -0.0127634 0)
(-0.00381338 -0.00857483 0)
(-0.000741732 -0.00357276 0)
(-0.00176484 0.00776705 0)
(-0.00517493 0.0105538 0)
(-0.00878562 0.01199 0)
(-0.0126114 0.0128778 0)
(-0.0166388 0.0134246 0)
(-0.0208625 0.0137028 0)
(-0.02527 0.0136656 0)
(-0.0297918 0.0131455 0)
(-0.0342817 0.0118684 0)
(-0.0384875 0.00951824 0)
(-0.0420504 0.0058494 0)
(-0.0445164 0.000760552 0)
(-0.0452733 -0.00565867 0)
(-0.0434379 -0.0129524 0)
(-0.0382423 -0.019734 0)
(-0.0297454 -0.0239412 0)
(-0.0190136 -0.0238245 0)
(-0.00884868 -0.0193704 0)
(-0.00220435 -0.012677 0)
(-3.48774e-05 -0.0053522 0)
(-0.00181284 0.0111352 0)
(-0.00529656 0.0142527 0)
(-0.00892091 0.0157618 0)
(-0.0127327 0.0168007 0)
(-0.0167697 0.017563 0)
(-0.0210782 0.0180857 0)
(-0.0257159 0.0182791 0)
(-0.0306941 0.0179136 0)
(-0.0359506 0.0166228 0)
(-0.0413251 0.0139833 0)
(-0.0465926 0.00965279 0)
(-0.0514912 0.00336891 0)
(-0.0555423 -0.00509304 0)
(-0.0574632 -0.0154426 0)
(-0.0552219 -0.0261148 0)
(-0.046965 -0.0340295 0)
(-0.0324034 -0.0359248 0)
(-0.0147031 -0.0294937 0)
(-0.00105659 -0.017233 0)
(0.00137067 -0.0055256 0)
(-0.00174933 0.0144851 0)
(-0.0051588 0.0179291 0)
(-0.00871234 0.0195075 0)
(-0.0124528 0.0207097 0)
(-0.0164565 0.0217471 0)
(-0.0208185 0.0226372 0)
(-0.0256712 0.0232652 0)
(-0.0311326 0.0233593 0)
(-0.0372868 0.0224893 0)
(-0.0441969 0.0201802 0)
(-0.0521289 0.0161044 0)
(-0.0616769 0.00998635 0)
(-0.0729627 0.00120955 0)
(-0.0839002 -0.0114307 0)
(-0.0894689 -0.0282368 0)
(-0.0840768 -0.0451971 0)
(-0.0669767 -0.0547276 0)
(-0.0402538 -0.0497873 0)
(-0.00969765 -0.0286743 0)
(0.00249668 -0.00544203 0)
(-0.0016129 0.0176743 0)
(-0.00482891 0.0214694 0)
(-0.00821217 0.0231393 0)
(-0.0117869 0.0245278 0)
(-0.0156553 0.0258983 0)
(-0.0199511 0.0272768 0)
(-0.0248755 0.0285557 0)
(-0.0306723 0.0294801 0)
(-0.0376441 0.0296813 0)
(-0.0462642 0.0289021 0)
(-0.0578222 0.0273007 0)
(-0.0743626 0.0246373 0)
(-0.0956127 0.0174796 0)
(-0.114752 0.000191498 0)
(-0.123945 -0.0274479 0)
(-0.121988 -0.0579839 0)
(-0.107038 -0.0807717 0)
(-0.0777171 -0.0843812 0)
(-0.036956 -0.0590245 0)
(0.000600164 -0.0129672 0)
(-0.00141933 0.0205898 0)
(-0.00433618 0.024764 0)
(-0.00743857 0.0265482 0)
(-0.0107215 0.0281378 0)
(-0.0142954 0.0298734 0)
(-0.01831 0.0318192 0)
(-0.0230075 0.0339177 0)
(-0.0287325 0.0360261 0)
(-0.0359707 0.0380591 0)
(-0.0454765 0.0403732 0)
(-0.0594354 0.0436971 0)
(-0.0800158 0.0459931 0)
(-0.10393 0.0387863 0)
(-0.122354 0.0144343 0)
(-0.131491 -0.0246152 0)
(-0.132518 -0.0666538 0)
(-0.125493 -0.103547 0)
(-0.105028 -0.123614 0)
(-0.0657045 -0.106859 0)
(-0.0136576 -0.0360884 0)
(-0.00117986 0.0231353 0)
(-0.00370311 0.0277034 0)
(-0.00641176 0.0296073 0)
(-0.00926096 0.0313807 0)
(-0.012345 0.0334563 0)
(-0.0157968 0.0359562 0)
(-0.0198487 0.0389056 0)
(-0.0248564 0.042339 0)
(-0.0313008 0.0465496 0)
(-0.0398802 0.0524904 0)
(-0.0526049 0.0608041 0)
(-0.0705415 0.0661669 0)
(-0.0892958 0.0567107 0)
(-0.101552 0.0258437 0)
(-0.105222 -0.0185084 0)
(-0.105806 -0.0656291 0)
(-0.106976 -0.110033 0)
(-0.102439 -0.148193 0)
(-0.0791 -0.158061 0)
(-0.0321124 -0.0884337 0)
(-0.000910172 0.0252315 0)
(-0.00296575 0.0301883 0)
(-0.00518156 0.0321891 0)
(-0.00746478 0.0340836 0)
(-0.00986936 0.0363993 0)
(-0.0124796 0.0393187 0)
(-0.0154637 0.0429503 0)
(-0.019075 0.047483 0)
(-0.0236088 0.0534652 0)
(-0.029296 0.0620859 0)
(-0.037 0.0734981 0)
(-0.0473285 0.0799457 0)
(-0.0576295 0.0680382 0)
(-0.0619381 0.0330987 0)
(-0.0606203 -0.01457 0)
(-0.059548 -0.0611243 0)
(-0.0635956 -0.102761 0)
(-0.0713818 -0.148133 0)
(-0.0688987 -0.189701 0)
(-0.0368978 -0.148857 0)
(-0.000635518 0.0268346 0)
(-0.0021813 0.0321398 0)
(-0.00384082 0.0341894 0)
(-0.00546407 0.0360988 0)
(-0.00705104 0.0384874 0)
(-0.00862039 0.0415873 0)
(-0.0102448 0.0455553 0)
(-0.012013 0.0506354 0)
(-0.0139436 0.0573708 0)
(-0.0157534 0.066762 0)
(-0.0172027 0.0786093 0)
(-0.0184782 0.0843884 0)
(-0.0205627 0.0724537 0)
(-0.0206051 0.0357804 0)
(-0.018592 -0.0142066 0)
(-0.018554 -0.060486 0)
(-0.0231893 -0.0961818 0)
(-0.0332852 -0.134386 0)
(-0.0448464 -0.192615 0)
(-0.0308431 -0.200765 0)
(-0.000383857 0.0279432 0)
(-0.00143293 0.033533 0)
(-0.00252048 0.0355496 0)
(-0.00344432 0.0373352 0)
(-0.00414998 0.0395882 0)
(-0.00459459 0.0425741 0)
(-0.00476279 0.0464478 0)
(-0.00459165 0.0513959 0)
(-0.00388158 0.0577805 0)
(-0.00207553 0.0661829 0)
(0.00180202 0.0762053 0)
(0.00794676 0.080999 0)
(0.013331 0.070305 0)
(0.0173158 0.0369133 0)
(0.0176751 -0.0119478 0)
(0.013193 -0.0564767 0)
(0.00422317 -0.0904081 0)
(-0.00586252 -0.1218 0)
(-0.0215569 -0.180106 0)
(-0.0212652 -0.233748 0)
(-0.000198033 0.0285948 0)
(-0.000832037 0.0343912 0)
(-0.0013842 0.0362668 0)
(-0.00162722 0.0377727 0)
(-0.00146309 0.0396732 0)
(-0.000811718 0.0422599 0)
(0.000388105 0.0456577 0)
(0.0022785 0.0499449 0)
(0.00514353 0.0552142 0)
(0.00959408 0.0615841 0)
(0.0167076 0.0685558 0)
(0.0267729 0.0714126 0)
(0.0370976 0.0618583 0)
(0.0443682 0.0346904 0)
(0.0451604 -0.00584109 0)
(0.0371216 -0.0467115 0)
(0.0236736 -0.079436 0)
(0.00998222 -0.109985 0)
(-0.00601951 -0.166015 0)
(-0.0148756 -0.249372 0)
(-0.000138276 0.0289974 0)
(-0.000497836 0.0348269 0)
(-0.000609525 0.0364064 0)
(-0.000240104 0.037453 0)
(0.000725362 0.0388046 0)
(0.00237145 0.0407621 0)
(0.00475572 0.0434179 0)
(0.00801299 0.0467496 0)
(0.01239 0.0506328 0)
(0.0183166 0.0548164 0)
(0.0266044 0.0585804 0)
(0.0374947 0.0590183 0)
(0.0489982 0.0503541 0)
(0.0569923 0.0292603 0)
(0.0580556 -0.00187818 0)
(0.0501695 -0.0352533 0)
(0.0356975 -0.0651916 0)
(0.0191833 -0.0945761 0)
(0.00241903 -0.15075 0)
(-0.0127624 -0.256617 0)
(-0.000278538 0.0291895 0)
(-0.000627495 0.0349274 0)
(-0.000424593 0.0360093 0)
(0.000503984 0.0364261 0)
(0.00219864 0.0370594 0)
(0.00471089 0.0382315 0)
(0.00807396 0.0400116 0)
(0.0123679 0.0423102 0)
(0.0177326 0.0448798 0)
(0.0243884 0.0472784 0)
(0.0326703 0.0486946 0)
(0.0426946 0.047319 0)
(0.0529778 0.039943 0)
(0.0599873 0.0242432 0)
(0.0609433 0.00143039 0)
(0.0541559 -0.0246483 0)
(0.0409496 -0.050276 0)
(0.0240058 -0.0782599 0)
(0.00731798 -0.132939 0)
(-0.0124159 -0.259181 0)
(-0.00079157 0.0305217 0)
(-0.00133933 0.0352158 0)
(-0.00090789 0.0353376 0)
(0.000488691 0.0348546 0)
(0.00284221 0.0346033 0)
(0.00610427 0.0348828 0)
(0.0102606 0.0357317 0)
(0.0153424 0.0370307 0)
(0.0213922 0.0385009 0)
(0.028442 0.0396746 0)
(0.0364515 0.0398189 0)
(0.0452258 0.0377356 0)
(0.0536941 0.0318596 0)
(0.0595008 0.020665 0)
(0.0603042 0.00439612 0)
(0.0548703 -0.0152949 0)
(0.0432956 -0.0361713 0)
(0.0280288 -0.0627403 0)
(0.0129181 -0.114028 0)
(-0.0115004 -0.260784 0)
(-0.00185947 0.0284882 0)
(-0.00341932 0.0329969 0)
(-0.00247683 0.032902 0)
(-0.000342045 0.031963 0)
(0.00272199 0.0311139 0)
(0.00669988 0.0306999 0)
(0.0115695 0.0307642 0)
(0.0173338 0.0312202 0)
(0.0239579 0.0318336 0)
(0.0313475 0.0322307 0)
(0.0392903 0.0318501 0)
(0.0473464 0.0298914 0)
(0.0546459 0.0255244 0)
(0.0597481 0.0178119 0)
(0.0606948 0.00674833 0)
(0.0565359 -0.00755094 0)
(0.0457988 -0.0239029 0)
(0.0358911 -0.0501438 0)
(0.0203697 -0.0965086 0)
(-0.00804886 -0.265661 0)
(-0.00381348 0.0452041 0)
(-0.00537425 0.0441513 0)
(-0.00301821 0.0386085 0)
(0.000195973 0.0336398 0)
(0.00409786 0.0302615 0)
(0.00881666 0.0279977 0)
(0.0145087 0.026595 0)
(0.0210575 0.0258366 0)
(0.0283773 0.025452 0)
(0.0363294 0.0251211 0)
(0.0446508 0.0244354 0)
(0.0528421 0.022886 0)
(0.060126 0.0199911 0)
(0.0653448 0.0153808 0)
(0.066941 0.00874607 0)
(0.0647131 -0.000600392 0)
(0.0540273 -0.0129217 0)
(0.0546223 -0.0385763 0)
(0.0236131 -0.0762047 0)
(0.00489181 -0.266971 0)
(-0.0061295 0.0171576 0)
(-0.00913718 0.010023 0)
(-0.000782071 0.0105311 0)
(0.00836579 0.0136688 0)
(0.0179086 0.0145999 0)
(0.0274863 0.0142809 0)
(0.0368341 0.0138795 0)
(0.0460342 0.0136741 0)
(0.0552324 0.0135831 0)
(0.064518 0.0134913 0)
(0.073826 0.0132706 0)
(0.0828732 0.0127274 0)
(0.0911335 0.0116441 0)
(0.098063 0.00975717 0)
(0.102208 0.0069794 0)
(0.105009 0.00220825 0)
(0.09578 -0.0037954 0)
(0.105903 -0.0213266 0)
(0.0296998 -0.0418548 0)
(0.0708521 -0.225268 0)
(0.0406882 0.0927129 0)
(0.0621568 0.0700009 0)
(0.0875745 0.0440645 0)
(0.109466 0.0294016 0)
(0.126403 0.0216598 0)
(0.140641 0.0170899 0)
(0.153618 0.014065 0)
(0.165749 0.0119032 0)
(0.177176 0.0102718 0)
(0.188036 0.00901015 0)
(0.198406 0.00798168 0)
(0.208245 0.00710015 0)
(0.217317 0.00630002 0)
(0.225469 0.00550629 0)
(0.231403 0.00462717 0)
(0.237279 0.00337771 0)
(0.230502 0.00196445 0)
(0.251278 -0.00314219 0)
(0.124583 0.00361125 0)
(0.377862 -0.0979846 0)
)
;

boundaryField
{
    movingWall
    {
        type            zeroGradient;
    }
    fixedWalls
    {
        type            zeroGradient;
    }
    frontAndBack
    {
        type            empty;
    }
}


// ************************************************************************* //
