/*--------------------------------*- C++ -*----------------------------------*\
| =========                 |                                                 |
| \\      /  F ield         | OpenFOAM: The Open Source CFD Toolbox           |
|  \\    /   O peration     | Version:  2312                                  |
|   \\  /    A nd           | Website:  www.openfoam.com                      |
|    \\/     M anipulation  |                                                 |
\*---------------------------------------------------------------------------*/
FoamFile
{
    version     2.0;
    format      ascii;
    arch        "LSB;label=32;scalar=64";
    class       volVectorField;
    location    "1.375";
    object      vorticityField;
}
// * * * * * * * * * * * * * * * * * * * * * * * * * * * * * * * * * * * * * //

dimensions      [0 0 -1 0 0 0 0];

internalField   nonuniform List<vector> 
400
(
(0 -0 0.250986)
(0 -0 0.651584)
(0 -0 1.21283)
(0 -0 1.85942)
(0 -0 2.56724)
(0 -0 3.30153)
(0 -0 4.03768)
(0 -0 4.74773)
(0 -0 5.39311)
(0 -0 5.93064)
(0 -0 6.29396)
(0 -0 6.37963)
(0 -0 6.16573)
(0 -0 5.61331)
(0 -0 4.75113)
(0 -0 3.68262)
(0 -0 2.56242)
(0 -0 1.55399)
(0 -0 0.725819)
(0 -0 0.160329)
(0 -0 0.673059)
(0 -0 0.565846)
(0 -0 0.515493)
(0 -0 0.500762)
(0 -0 0.528217)
(0 -0 0.579533)
(0 -0 0.633972)
(0 -0 0.673923)
(0 -0 0.685608)
(0 -0 0.662327)
(0 -0 0.621679)
(0 -0 0.574179)
(0 -0 0.526914)
(0 -0 0.539536)
(0 -0 0.602068)
(0 -0 0.692877)
(0 -0 0.768418)
(0 -0 0.830021)
(0 -0 0.84009)
(0 -0 0.642475)
(0 -0 1.23648)
(0 -0 0.529867)
(0 -0 0.384931)
(0 -0 0.300307)
(0 -0 0.251667)
(0 -0 0.223853)
(0 -0 0.202234)
(0 -0 0.174556)
(0 -0 0.134485)
(0 -0 0.087187)
(0 -0 0.0520206)
(0 -0 0.054179)
(0 -0 0.118409)
(0 -0 0.261997)
(0 -0 0.464642)
(0 -0 0.663688)
(0 -0 0.742021)
(0 -0 0.723898)
(0 -0 0.784638)
(0 -0 1.15724)
(0 -0 1.86133)
(0 -0 0.485766)
(0 -0 0.305181)
(0 -0 0.2164)
(0 -0 0.157718)
(0 -0 0.114457)
(0 -0 0.0755723)
(0 -0 0.0312676)
(0 -0 -0.0208052)
(0 -0 -0.066041)
(0 -0 -0.0682904)
(0 -0 0.0227515)
(0 -0 0.261083)
(0 -0 0.694005)
(0 -0 1.29439)
(0 -0 1.86868)
(0 -0 2.0709)
(0 -0 1.671)
(0 -0 1.12614)
(0 -0 1.59168)
(0 -0 2.53724)
(0 -0 0.461047)
(0 -0 0.247477)
(0 -0 0.16426)
(0 -0 0.110263)
(0 -0 0.0672054)
(0 -0 0.0229159)
(0 -0 -0.0315462)
(0 -0 -0.0925227)
(0 -0 -0.126056)
(0 -0 -0.0535961)
(0 -0 0.24147)
(0 -0 0.88779)
(0 -0 1.94406)
(0 -0 3.26397)
(0 -0 4.45213)
(0 -0 5.24989)
(0 -0 5.0097)
(0 -0 3.14614)
(0 -0 2.02271)
(0 -0 3.22142)
(0 -0 0.455478)
(0 -0 0.20719)
(0 -0 0.12938)
(0 -0 0.0813008)
(0 -0 0.039092)
(0 -0 -0.0118275)
(0 -0 -0.0797678)
(0 -0 -0.148557)
(0 -0 -0.144573)
(0 -0 0.103569)
(0 -0 0.797659)
(0 -0 1.86533)
(0 -0 2.78421)
(0 -0 3.49565)
(0 -0 4.85323)
(0 -0 7.00445)
(0 -0 8.90674)
(0 -0 8.02447)
(0 -0 3.48868)
(0 -0 3.88137)
(0 -0 0.464237)
(0 -0 0.178467)
(0 -0 0.10277)
(0 -0 0.05879)
(0 -0 0.0148936)
(0 -0 -0.0460489)
(0 -0 -0.12745)
(0 -0 -0.1894)
(0 -0 -0.110102)
(0 -0 0.304165)
(0 -0 0.851776)
(0 -0 0.652151)
(0 -0 -0.647353)
(0 -0 -1.61536)
(0 -0 -0.488239)
(0 -0 3.21188)
(0 -0 8.65211)
(0 -0 12.7421)
(0 -0 8.81461)
(0 -0 4.49208)
(0 -0 0.483266)
(0 -0 0.157337)
(0 -0 0.0799303)
(0 -0 0.0371136)
(0 -0 -0.0110043)
(0 -0 -0.0819957)
(0 -0 -0.167448)
(0 -0 -0.199622)
(0 -0 -0.0745981)
(0 -0 0.040261)
(0 -0 -0.873189)
(0 -0 -3.78756)
(0 -0 -7.66009)
(0 -0 -9.98109)
(0 -0 -9.5114)
(0 -0 -5.70224)
(0 -0 2.141)
(0 -0 12.967)
(0 -0 17.566)
(0 -0 5.03296)
(0 -0 0.510156)
(0 -0 0.142035)
(0 -0 0.0592246)
(0 -0 0.0149395)
(0 -0 -0.0381108)
(0 -0 -0.116094)
(0 -0 -0.201349)
(0 -0 -0.221048)
(0 -0 -0.192591)
(0 -0 -0.875888)
(0 -0 -3.67808)
(0 -0 -8.66237)
(0 -0 -13.5635)
(0 -0 -16.2343)
(0 -0 -16.4495)
(0 -0 -14.4461)
(0 -0 -8.16733)
(0 -0 6.29537)
(0 -0 26.9734)
(0 -0 5.48754)
(0 -0 0.543584)
(0 -0 0.132438)
(0 -0 0.0413288)
(0 -0 -0.0058795)
(0 -0 -0.0625421)
(0 -0 -0.143965)
(0 -0 -0.232841)
(0 -0 -0.275435)
(0 -0 -0.409395)
(0 -0 -1.75423)
(0 -0 -5.75232)
(0 -0 -11.558)
(0 -0 -16.3555)
(0 -0 -18.0853)
(0 -0 -17.5443)
(0 -0 -17.0796)
(0 -0 -15.6094)
(0 -0 -3.49769)
(0 -0 33.7289)
(0 -0 5.84481)
(0 -0 0.582192)
(0 -0 0.129795)
(0 -0 0.0277542)
(0 -0 -0.0230862)
(0 -0 -0.0817115)
(0 -0 -0.165288)
(0 -0 -0.26678)
(0 -0 -0.360063)
(0 -0 -0.598197)
(0 -0 -2.11757)
(0 -0 -6.14309)
(0 -0 -11.9568)
(0 -0 -16.5914)
(0 -0 -17.4562)
(0 -0 -15.4716)
(0 -0 -14.1719)
(0 -0 -16.1952)
(0 -0 -11.372)
(0 -0 37.7747)
(0 -0 6.10387)
(0 -0 0.625713)
(0 -0 0.134564)
(0 -0 0.0201764)
(0 -0 -0.0349074)
(0 -0 -0.0949049)
(0 -0 -0.181109)
(0 -0 -0.295891)
(0 -0 -0.430016)
(0 -0 -0.692263)
(0 -0 -1.90942)
(0 -0 -5.11514)
(0 -0 -10.1746)
(0 -0 -14.7226)
(0 -0 -15.7142)
(0 -0 -13.4136)
(0 -0 -11.2186)
(0 -0 -13.2965)
(0 -0 -15.0775)
(0 -0 39.7886)
(0 -0 6.27405)
(0 -0 0.673693)
(0 -0 0.147057)
(0 -0 0.0202189)
(0 -0 -0.0388224)
(0 -0 -0.0981596)
(0 -0 -0.183344)
(0 -0 -0.304814)
(0 -0 -0.463238)
(0 -0 -0.705056)
(0 -0 -1.49739)
(0 -0 -3.62454)
(0 -0 -7.23894)
(0 -0 -10.7376)
(0 -0 -12.1782)
(0 -0 -11.0571)
(0 -0 -9.4748)
(0 -0 -11.1625)
(0 -0 -16.3363)
(0 -0 40.6884)
(0 -0 6.39048)
(0 -0 0.72044)
(0 -0 0.166653)
(0 -0 0.0266957)
(0 -0 -0.035268)
(0 -0 -0.0909253)
(0 -0 -0.16983)
(0 -0 -0.287443)
(0 -0 -0.452226)
(0 -0 -0.684675)
(0 -0 -1.17608)
(0 -0 -2.41479)
(0 -0 -4.56382)
(0 -0 -6.78514)
(0 -0 -8.02965)
(0 -0 -8.03477)
(0 -0 -7.65987)
(0 -0 -9.95823)
(0 -0 -17.5378)
(0 -0 40.4907)
(0 -0 6.47702)
(0 -0 0.766127)
(0 -0 0.17971)
(0 -0 0.0321287)
(0 -0 -0.0311419)
(0 -0 -0.0780588)
(0 -0 -0.142622)
(0 -0 -0.246119)
(0 -0 -0.403398)
(0 -0 -0.631064)
(0 -0 -0.98065)
(0 -0 -1.64826)
(0 -0 -2.77716)
(0 -0 -4.10212)
(0 -0 -5.11401)
(0 -0 -5.64072)
(0 -0 -6.12097)
(0 -0 -9.15087)
(0 -0 -19.142)
(0 -0 39.0858)
(0 -0 6.73184)
(0 -0 0.760779)
(0 -0 0.169102)
(0 -0 0.0111657)
(0 -0 -0.0495075)
(0 -0 -0.0860527)
(0 -0 -0.134761)
(0 -0 -0.219671)
(0 -0 -0.358137)
(0 -0 -0.564113)
(0 -0 -0.855909)
(0 -0 -1.26112)
(0 -0 -1.87387)
(0 -0 -2.72243)
(0 -0 -3.57114)
(0 -0 -4.29475)
(0 -0 -5.22946)
(0 -0 -8.97416)
(0 -0 -21.1095)
(0 -0 37.0444)
(0 -0 6.4507)
(0 -0 0.844873)
(0 -0 0.10764)
(0 -0 -0.149541)
(0 -0 -0.25187)
(0 -0 -0.306201)
(0 -0 -0.372791)
(0 -0 -0.464579)
(0 -0 -0.597452)
(0 -0 -0.787082)
(0 -0 -1.05387)
(0 -0 -1.39421)
(0 -0 -1.85115)
(0 -0 -2.46201)
(0 -0 -3.19995)
(0 -0 -4.04939)
(0 -0 -5.33246)
(0 -0 -9.91993)
(0 -0 -22.6213)
(0 -0 34.5778)
(0 -0 9.36254)
(0 -0 -0.0877741)
(0 -0 -1.22062)
(0 -0 -1.70549)
(0 -0 -2.08288)
(0 -0 -2.44529)
(0 -0 -2.74258)
(0 -0 -2.98434)
(0 -0 -3.199)
(0 -0 -3.41871)
(0 -0 -3.67709)
(0 -0 -3.99711)
(0 -0 -4.39928)
(0 -0 -4.95598)
(0 -0 -5.74948)
(0 -0 -7.01405)
(0 -0 -8.79571)
(0 -0 -13.3295)
(0 -0 -23.7725)
(0 -0 26.4275)
(0 -0 -1.73211)
(0 -0 -7.41575)
(0 -0 -8.69469)
(0 -0 -10.5202)
(0 -0 -12.1693)
(0 -0 -13.2544)
(0 -0 -13.9716)
(0 -0 -14.4988)
(0 -0 -14.8981)
(0 -0 -15.2019)
(0 -0 -15.4519)
(0 -0 -15.7029)
(0 -0 -16.0161)
(0 -0 -16.4789)
(0 -0 -17.2011)
(0 -0 -18.334)
(0 -0 -20.0009)
(0 -0 -23.4715)
(0 -0 -30.4911)
(0 -0 -10.5847)
(0 -0 -180.273)
(0 -0 -199.563)
(0 -0 -195.381)
(0 -0 -190.457)
(0 -0 -186.8)
(0 -0 -183.947)
(0 -0 -181.474)
(0 -0 -179.201)
(0 -0 -177.049)
(0 -0 -174.974)
(0 -0 -172.968)
(0 -0 -171.056)
(0 -0 -169.314)
(0 -0 -167.814)
(0 -0 -166.852)
(0 -0 -166.038)
(0 -0 -168.024)
(0 -0 -164.117)
(0 -0 -194.056)
(0 -0 -145.691)
)
;

boundaryField
{
    movingWall
    {
        type            calculated;
        value           nonuniform List<vector> 
20
(
(0 -0 -367.453)
(0 -0 -380.002)
(0 -0 -369.03)
(0 -0 -358.454)
(0 -0 -350.67)
(0 -0 -344.503)
(0 -0 -339.072)
(0 -0 -334.08)
(0 -0 -329.419)
(0 -0 -325.015)
(0 -0 -320.829)
(0 -0 -316.87)
(0 -0 -313.232)
(0 -0 -309.98)
(0 -0 -307.652)
(0 -0 -305.355)
(0 -0 -308.451)
(0 -0 -299.324)
(0 -0 -359.651)
(0 -0 -239.418)
)
;
    }
    fixedWalls
    {
        type            calculated;
        value           nonuniform List<vector> 
60
(
(0 -0 0.242435)
(0 -0 0.864414)
(0 -0 1.9146)
(0 -0 3.13606)
(0 -0 4.45253)
(0 -0 5.77403)
(0 -0 7.03672)
(0 -0 8.19261)
(0 -0 9.20322)
(0 -0 10.0382)
(0 -0 10.6812)
(0 -0 11.1335)
(0 -0 11.4134)
(0 -0 11.607)
(0 -0 11.7411)
(0 -0 12.3668)
(0 -0 11.6975)
(0 -0 18.5086)
(0 -0 2.41286)
(0 -0 -159.459)
(0 -0 0.042727)
(0 -0 0.562292)
(0 -0 1.37158)
(0 -0 1.92964)
(0 -0 1.95709)
(0 -0 2.25386)
(0 -0 6.80232)
(0 -0 17.7066)
(0 -0 37.6975)
(0 -0 59.4157)
(0 -0 78.7427)
(0 -0 91.9023)
(0 -0 98.8985)
(0 -0 102.401)
(0 -0 103.546)
(0 -0 103.877)
(0 -0 104.625)
(0 -0 98.8984)
(0 -0 52.8101)
(0 -0 -115.935)
(0 -0 0.24143)
(0 -0 0.842398)
(0 -0 1.8816)
(0 -0 3.09151)
(0 -0 4.3996)
(0 -0 5.744)
(0 -0 7.0905)
(0 -0 8.39987)
(0 -0 9.6118)
(0 -0 10.6545)
(0 -0 11.3728)
(0 -0 11.5865)
(0 -0 11.2524)
(0 -0 10.2026)
(0 -0 8.53796)
(0 -0 6.44906)
(0 -0 4.25645)
(0 -0 2.29104)
(0 -0 0.777631)
(0 -0 0.0616562)
)
;
    }
    frontAndBack
    {
        type            empty;
    }
}


// ************************************************************************* //
