/*--------------------------------*- C++ -*----------------------------------*\
| =========                 |                                                 |
| \\      /  F ield         | OpenFOAM: The Open Source CFD Toolbox           |
|  \\    /   O peration     | Version:  2312                                  |
|   \\  /    A nd           | Website:  www.openfoam.com                      |
|    \\/     M anipulation  |                                                 |
\*---------------------------------------------------------------------------*/
FoamFile
{
    version     2.0;
    format      ascii;
    arch        "LSB;label=32;scalar=64";
    class       volScalarField;
    location    "1.375";
    object      zeroGradient(epsilon);
}
// * * * * * * * * * * * * * * * * * * * * * * * * * * * * * * * * * * * * * //

dimensions      [0 2 -3 0 0 0 0];

internalField   nonuniform List<scalar> 
400
(
0.000153293
0.000271926
0.0004135
0.000545795
0.000668369
0.000785386
0.000900487
0.00101428
0.0011233
0.0012205
0.00127839
0.00129733
0.00128782
0.00121348
0.00108639
0.000909063
0.000699324
0.000480543
0.000276588
0.000159537
0.000265849
0.00026281
0.000329721
0.000389732
0.000437307
0.000475793
0.000508038
0.000535301
0.000556849
0.00056803
0.000571725
0.000573442
0.000582822
0.000586616
0.000572727
0.000530945
0.000456112
0.00035957
0.000282017
0.000281105
0.000432128
0.000317221
0.000355132
0.000399495
0.000434306
0.000458349
0.000476109
0.000490282
0.000502851
0.000516168
0.000535114
0.000565831
0.000614213
0.000672631
0.000702377
0.000694155
0.000611706
0.000475926
0.000377128
0.000427056
0.000595667
0.000380304
0.000395549
0.0004296
0.000457727
0.000479899
0.000498033
0.000515821
0.000538005
0.000572099
0.000630338
0.000727904
0.000874595
0.00106682
0.00121452
0.0012545
0.00112401
0.000798142
0.000519389
0.000550938
0.000749788
0.000434948
0.000432823
0.000462776
0.000491334
0.0005164
0.000541344
0.000572114
0.000618917
0.000699376
0.000842281
0.0010886
0.00147759
0.00200596
0.00249374
0.00267703
0.00256241
0.00183302
0.000904292
0.000650159
0.000892587
0.0004803
0.000464809
0.000492102
0.000523026
0.000554493
0.000592144
0.000647309
0.000740925
0.000912382
0.00123148
0.0017952
0.00265758
0.00369087
0.00458803
0.00522434
0.00555652
0.00465393
0.00235774
0.000852833
0.00102297
0.000518145
0.000490779
0.000516518
0.000551206
0.000591887
0.000648144
0.00074064
0.000910637
0.00123973
0.00185974
0.00285316
0.00395916
0.00469155
0.00529068
0.00620168
0.00757384
0.00877138
0.00677988
0.00217289
0.00114
0.000549429
0.000510869
0.000535521
0.000574659
0.000626355
0.000705731
0.00084639
0.00111656
0.00163917
0.00252609
0.00356371
0.00403824
0.00426249
0.00461522
0.00553033
0.00747181
0.010532
0.0132701
0.00838379
0.00124278
0.000574952
0.000525451
0.000548784
0.000591984
0.000654406
0.000756524
0.000943142
0.00129971
0.00195168
0.00291002
0.00344479
0.00348635
0.00312152
0.00300093
0.00356297
0.00566583
0.00978624
0.0167106
0.0208569
0.00133059
0.000595515
0.000535102
0.000556264
0.000601936
0.000672178
0.00079038
0.00100555
0.0014009
0.00206328
0.00285782
0.00312603
0.00269505
0.00211548
0.00189195
0.00206389
0.00349103
0.00751892
0.0173437
0.0311928
0.00140327
0.000611958
0.000540606
0.000558125
0.00060355
0.000676626
0.000799766
0.00101721
0.00139786
0.00201818
0.0026785
0.00275718
0.00225197
0.00167304
0.00144982
0.00157955
0.00255511
0.0058094
0.0160718
0.0370361
0.00146214
0.000625179
0.000543055
0.000556387
0.000599986
0.000671588
0.000791276
0.000997879
0.00134848
0.00187888
0.00242902
0.00252604
0.00211234
0.00161105
0.00136967
0.00150403
0.00227679
0.00489567
0.0151122
0.0416469
0.00150797
0.000635873
0.000543738
0.000552202
0.000591976
0.000659368
0.000770084
0.00095314
0.00124769
0.00168028
0.00216766
0.00235368
0.00213563
0.00171313
0.00154776
0.00171954
0.00235587
0.00460195
0.0147829
0.0456605
0.00155223
0.000645561
0.000544217
0.000548086
0.000583549
0.000644706
0.000742922
0.000898591
0.00113779
0.00147941
0.00188641
0.00216656
0.00211236
0.00191708
0.00179357
0.00194369
0.00248696
0.00453742
0.014887
0.0504723
0.00158552
0.000653024
0.000547032
0.000549749
0.000584056
0.000641539
0.000728251
0.000857549
0.00104615
0.0013069
0.0016218
0.00190125
0.00198364
0.00192193
0.00189288
0.00201106
0.00248426
0.00432947
0.015506
0.0564837
0.00166899
0.000667
0.000561414
0.000568346
0.000606091
0.000664599
0.000748216
0.000866456
0.00102592
0.00122469
0.00145332
0.00166694
0.0017827
0.00180284
0.00181764
0.00193705
0.00238431
0.00414153
0.0161989
0.064663
0.00169943
0.000711402
0.00063536
0.000670233
0.000731918
0.00080923
0.000904665
0.00102399
0.0011732
0.00135265
0.00155023
0.00173523
0.00184852
0.00188261
0.00191268
0.00204514
0.00254299
0.00462765
0.0189371
0.076202
0.00200167
0.00103973
0.00120867
0.00141795
0.00162087
0.00182594
0.00203257
0.00224268
0.00245847
0.00268288
0.00290553
0.00311209
0.00325777
0.00336549
0.00349257
0.00377055
0.00462722
0.00845786
0.0257383
0.0945909
0.00329018
0.00542506
0.00846008
0.010663
0.012245
0.0135264
0.0145681
0.0154111
0.0160569
0.0165875
0.0170424
0.0174543
0.0178288
0.0182785
0.0188218
0.0199121
0.0220691
0.0328124
0.0490924
0.127145
0.0435581
0.084058
0.123069
0.147769
0.162696
0.172044
0.177529
0.180509
0.181095
0.180668
0.179555
0.17768
0.175825
0.174055
0.17338
0.173961
0.176925
0.177932
0.193735
0.167944
)
;

boundaryField
{
    movingWall
    {
        type            zeroGradient;
    }
    fixedWalls
    {
        type            zeroGradient;
    }
    frontAndBack
    {
        type            empty;
    }
}


// ************************************************************************* //
