/*--------------------------------*- C++ -*----------------------------------*\
| =========                 |                                                 |
| \\      /  F ield         | OpenFOAM: The Open Source CFD Toolbox           |
|  \\    /   O peration     | Version:  2312                                  |
|   \\  /    A nd           | Website:  www.openfoam.com                      |
|    \\/     M anipulation  |                                                 |
\*---------------------------------------------------------------------------*/
FoamFile
{
    version     2.0;
    format      ascii;
    arch        "LSB;label=32;scalar=64";
    class       volVectorField;
    location    "9.125";
    object      diffU;
}
// * * * * * * * * * * * * * * * * * * * * * * * * * * * * * * * * * * * * * //

dimensions      [0 1 -1 0 0 0 0];

internalField   nonuniform List<vector> 
400
(
(0 0 0)
(2.10942e-14 -1.74145e-13 0)
(1.63203e-14 -1.36037e-13 0)
(1.65423e-14 -1.4481e-13 0)
(1.63203e-14 -1.42859e-13 0)
(1.64313e-14 -1.43238e-13 0)
(1.62093e-14 -1.43179e-13 0)
(1.59872e-14 -1.43297e-13 0)
(1.62093e-14 -1.4336e-13 0)
(1.60982e-14 -1.43356e-13 0)
(1.62093e-14 -1.43315e-13 0)
(1.63203e-14 -1.43308e-13 0)
(1.62093e-14 -1.43265e-13 0)
(1.60982e-14 -1.43267e-13 0)
(1.60982e-14 -1.43259e-13 0)
(1.57652e-14 -1.43296e-13 0)
(1.58762e-14 -1.43289e-13 0)
(1.58762e-14 -1.43322e-13 0)
(1.57652e-14 -1.43343e-13 0)
(1.57652e-14 -1.43365e-13 0)
(3.90799e-14 -1.19826e-13 0)
(7.99361e-15 -1.4838e-13 0)
(1.5099e-14 -1.42072e-13 0)
(1.4877e-14 -1.4355e-13 0)
(1.46549e-14 -1.43232e-13 0)
(1.4877e-14 -1.43326e-13 0)
(1.53211e-14 -1.43321e-13 0)
(1.55431e-14 -1.43397e-13 0)
(1.55431e-14 -1.43436e-13 0)
(1.53211e-14 -1.4347e-13 0)
(1.53211e-14 -1.43448e-13 0)
(1.55431e-14 -1.43348e-13 0)
(1.53211e-14 -1.4326e-13 0)
(1.53211e-14 -1.43205e-13 0)
(1.53211e-14 -1.43266e-13 0)
(1.53211e-14 -1.4338e-13 0)
(1.55431e-14 -1.43382e-13 0)
(1.57652e-14 -1.43335e-13 0)
(1.57652e-14 -1.43314e-13 0)
(1.57652e-14 -1.43348e-13 0)
(1.9984e-14 -2.67722e-13 0)
(1.55431e-14 -1.16577e-13 0)
(1.65423e-14 -1.49545e-13 0)
(1.58762e-14 -1.41919e-13 0)
(1.60982e-14 -1.43598e-13 0)
(1.60982e-14 -1.43308e-13 0)
(1.59872e-14 -1.43379e-13 0)
(1.58762e-14 -1.43372e-13 0)
(1.59872e-14 -1.43302e-13 0)
(1.58762e-14 -1.43238e-13 0)
(1.55431e-14 -1.43285e-13 0)
(1.55431e-14 -1.43345e-13 0)
(1.53211e-14 -1.43374e-13 0)
(1.53211e-14 -1.43292e-13 0)
(1.57652e-14 -1.43325e-13 0)
(1.53211e-14 -1.43392e-13 0)
(1.53211e-14 -1.43497e-13 0)
(1.53211e-14 -1.43518e-13 0)
(1.53211e-14 -1.4345e-13 0)
(1.55431e-14 -1.43389e-13 0)
(-6.66134e-15 -8.37474e-14 0)
(2.10942e-14 -1.55498e-13 0)
(1.46549e-14 -1.40425e-13 0)
(1.58762e-14 -1.43912e-13 0)
(1.58762e-14 -1.43267e-13 0)
(1.59872e-14 -1.43366e-13 0)
(1.58762e-14 -1.43251e-13 0)
(1.58762e-14 -1.43196e-13 0)
(1.55431e-14 -1.43203e-13 0)
(1.57652e-14 -1.43199e-13 0)
(1.58762e-14 -1.43262e-13 0)
(1.57652e-14 -1.43292e-13 0)
(1.55431e-14 -1.43277e-13 0)
(1.57652e-14 -1.43317e-13 0)
(1.57652e-14 -1.43316e-13 0)
(1.53211e-14 -1.43391e-13 0)
(1.58762e-14 -1.43525e-13 0)
(1.59872e-14 -1.43529e-13 0)
(1.58762e-14 -1.43518e-13 0)
(1.58762e-14 -1.43478e-13 0)
(3.09752e-14 -1.14634e-13 0)
(1.15463e-14 -1.50145e-13 0)
(1.60982e-14 -1.41833e-13 0)
(1.60982e-14 -1.43945e-13 0)
(1.59872e-14 -1.43511e-13 0)
(1.59872e-14 -1.43406e-13 0)
(1.62093e-14 -1.43175e-13 0)
(1.62093e-14 -1.43045e-13 0)
(1.62093e-14 -1.43183e-13 0)
(1.62093e-14 -1.43392e-13 0)
(1.63203e-14 -1.43415e-13 0)
(1.63203e-14 -1.43302e-13 0)
(1.62093e-14 -1.43231e-13 0)
(1.62093e-14 -1.43236e-13 0)
(1.63203e-14 -1.43136e-13 0)
(1.60982e-14 -1.43352e-13 0)
(1.60982e-14 -1.43569e-13 0)
(1.57652e-14 -1.43476e-13 0)
(1.59872e-14 -1.43426e-13 0)
(1.57652e-14 -1.43409e-13 0)
(4.88498e-15 -2.45609e-13 0)
(1.86517e-14 -1.21033e-13 0)
(1.55431e-14 -1.48365e-13 0)
(1.57652e-14 -1.42182e-13 0)
(1.4877e-14 -1.43562e-13 0)
(1.4877e-14 -1.43298e-13 0)
(1.5099e-14 -1.4335e-13 0)
(1.57652e-14 -1.43292e-13 0)
(1.58762e-14 -1.43271e-13 0)
(1.55431e-14 -1.43338e-13 0)
(1.53211e-14 -1.43265e-13 0)
(1.5099e-14 -1.43284e-13 0)
(1.55431e-14 -1.43382e-13 0)
(1.57652e-14 -1.43385e-13 0)
(1.55431e-14 -1.43295e-13 0)
(1.60982e-14 -1.43331e-13 0)
(1.59872e-14 -1.4342e-13 0)
(1.57652e-14 -1.43421e-13 0)
(1.57652e-14 -1.43413e-13 0)
(1.57652e-14 -1.43338e-13 0)
(1.74305e-14 -1.97568e-14 0)
(1.59872e-14 -1.69512e-13 0)
(1.65423e-14 -1.37074e-13 0)
(1.59872e-14 -1.44524e-13 0)
(1.62093e-14 -1.42931e-13 0)
(1.60982e-14 -1.43519e-13 0)
(1.58762e-14 -1.436e-13 0)
(1.62093e-14 -1.43536e-13 0)
(1.62093e-14 -1.43178e-13 0)
(1.59872e-14 -1.43047e-13 0)
(1.55431e-14 -1.43093e-13 0)
(1.57652e-14 -1.43208e-13 0)
(1.59872e-14 -1.43398e-13 0)
(1.59872e-14 -1.43461e-13 0)
(1.58762e-14 -1.4353e-13 0)
(1.57652e-14 -1.43442e-13 0)
(1.57652e-14 -1.43332e-13 0)
(1.57652e-14 -1.4336e-13 0)
(1.57652e-14 -1.43429e-13 0)
(1.57652e-14 -1.43369e-13 0)
(2.22045e-14 -1.75457e-13 0)
(1.17684e-14 -1.36935e-13 0)
(1.42109e-14 -1.44973e-13 0)
(1.5099e-14 -1.43104e-13 0)
(1.5099e-14 -1.43374e-13 0)
(1.55431e-14 -1.43301e-13 0)
(1.53211e-14 -1.43341e-13 0)
(1.5099e-14 -1.43333e-13 0)
(1.5099e-14 -1.43193e-13 0)
(1.55431e-14 -1.43234e-13 0)
(1.58762e-14 -1.43369e-13 0)
(1.62093e-14 -1.43351e-13 0)
(1.63203e-14 -1.43349e-13 0)
(1.62093e-14 -1.43337e-13 0)
(1.60982e-14 -1.43345e-13 0)
(1.60982e-14 -1.43325e-13 0)
(1.58762e-14 -1.43336e-13 0)
(1.58762e-14 -1.4338e-13 0)
(1.59872e-14 -1.43353e-13 0)
(1.58762e-14 -1.43319e-13 0)
(5.32907e-15 -2.46028e-13 0)
(1.90958e-14 -1.2097e-13 0)
(1.58762e-14 -1.48673e-13 0)
(1.5099e-14 -1.42211e-13 0)
(1.53211e-14 -1.43754e-13 0)
(1.53211e-14 -1.43396e-13 0)
(1.55431e-14 -1.43468e-13 0)
(1.55431e-14 -1.43443e-13 0)
(1.57652e-14 -1.43534e-13 0)
(1.58762e-14 -1.4363e-13 0)
(1.60982e-14 -1.43644e-13 0)
(1.58762e-14 -1.43427e-13 0)
(1.58762e-14 -1.43323e-13 0)
(1.58762e-14 -1.43325e-13 0)
(1.55431e-14 -1.43382e-13 0)
(1.58762e-14 -1.43271e-13 0)
(1.58762e-14 -1.43238e-13 0)
(1.57652e-14 -1.43268e-13 0)
(1.57652e-14 -1.43292e-13 0)
(1.58762e-14 -1.43314e-13 0)
(1.74305e-14 2.68335e-14 0)
(1.53211e-14 -1.8083e-13 0)
(1.58762e-14 -1.34635e-13 0)
(1.63203e-14 -1.45244e-13 0)
(1.64313e-14 -1.43038e-13 0)
(1.63203e-14 -1.43588e-13 0)
(1.64313e-14 -1.43485e-13 0)
(1.60982e-14 -1.43403e-13 0)
(1.59872e-14 -1.43478e-13 0)
(1.58762e-14 -1.43462e-13 0)
(1.55431e-14 -1.4347e-13 0)
(1.57652e-14 -1.43371e-13 0)
(1.59872e-14 -1.43244e-13 0)
(1.57652e-14 -1.43207e-13 0)
(1.55431e-14 -1.43304e-13 0)
(1.53211e-14 -1.43332e-13 0)
(1.57652e-14 -1.43325e-13 0)
(1.57652e-14 -1.43341e-13 0)
(1.59872e-14 -1.43307e-13 0)
(1.58762e-14 -1.43322e-13 0)
(2.39808e-14 -2.78217e-13 0)
(1.35447e-14 -1.13598e-13 0)
(1.59872e-14 -1.50417e-13 0)
(1.59872e-14 -1.41974e-13 0)
(1.59872e-14 -1.43836e-13 0)
(1.60982e-14 -1.43382e-13 0)
(1.57652e-14 -1.4336e-13 0)
(1.58762e-14 -1.43274e-13 0)
(1.60982e-14 -1.43349e-13 0)
(1.58762e-14 -1.43282e-13 0)
(1.59872e-14 -1.43282e-13 0)
(1.55431e-14 -1.4343e-13 0)
(1.55431e-14 -1.43366e-13 0)
(1.57652e-14 -1.43294e-13 0)
(1.55431e-14 -1.43324e-13 0)
(1.57652e-14 -1.43454e-13 0)
(1.59872e-14 -1.43439e-13 0)
(1.57652e-14 -1.43325e-13 0)
(1.57652e-14 -1.4323e-13 0)
(1.58762e-14 -1.4329e-13 0)
(1.26565e-14 -8.8879e-14 0)
(1.90958e-14 -1.54795e-13 0)
(1.69864e-14 -1.40809e-13 0)
(1.59872e-14 -1.44108e-13 0)
(1.60982e-14 -1.43355e-13 0)
(1.57652e-14 -1.43355e-13 0)
(1.55431e-14 -1.43273e-13 0)
(1.55431e-14 -1.43401e-13 0)
(1.57652e-14 -1.43442e-13 0)
(1.58762e-14 -1.43295e-13 0)
(1.58762e-14 -1.43183e-13 0)
(1.62093e-14 -1.43268e-13 0)
(1.62093e-14 -1.43295e-13 0)
(1.60982e-14 -1.43256e-13 0)
(1.58762e-14 -1.43237e-13 0)
(1.57652e-14 -1.43313e-13 0)
(1.53211e-14 -1.43339e-13 0)
(1.53211e-14 -1.43336e-13 0)
(1.55431e-14 -1.43346e-13 0)
(1.57652e-14 -1.43345e-13 0)
(3.9968e-15 -1.0474e-13 0)
(1.63203e-14 -1.521e-13 0)
(1.35447e-14 -1.41078e-13 0)
(1.57652e-14 -1.43623e-13 0)
(1.46549e-14 -1.42968e-13 0)
(1.5099e-14 -1.431e-13 0)
(1.46549e-14 -1.43182e-13 0)
(1.4877e-14 -1.43458e-13 0)
(1.46549e-14 -1.43529e-13 0)
(1.46549e-14 -1.43558e-13 0)
(1.46549e-14 -1.4356e-13 0)
(1.4877e-14 -1.43488e-13 0)
(1.53211e-14 -1.43451e-13 0)
(1.5099e-14 -1.43329e-13 0)
(1.53211e-14 -1.43144e-13 0)
(1.57652e-14 -1.43176e-13 0)
(1.57652e-14 -1.43363e-13 0)
(1.58762e-14 -1.43473e-13 0)
(1.57652e-14 -1.43459e-13 0)
(1.57652e-14 -1.43398e-13 0)
(2.80886e-14 -2.49755e-13 0)
(1.39888e-14 -1.20707e-13 0)
(1.69864e-14 -1.48632e-13 0)
(1.55431e-14 -1.42043e-13 0)
(1.60982e-14 -1.43398e-13 0)
(1.58762e-14 -1.43193e-13 0)
(1.59872e-14 -1.43366e-13 0)
(1.60982e-14 -1.43396e-13 0)
(1.60982e-14 -1.43384e-13 0)
(1.60982e-14 -1.43444e-13 0)
(1.60982e-14 -1.43473e-13 0)
(1.57652e-14 -1.43422e-13 0)
(1.57652e-14 -1.43382e-13 0)
(1.55431e-14 -1.43431e-13 0)
(1.55431e-14 -1.4343e-13 0)
(1.57652e-14 -1.43428e-13 0)
(1.60982e-14 -1.43437e-13 0)
(1.57652e-14 -1.43341e-13 0)
(1.59872e-14 -1.43288e-13 0)
(1.58762e-14 -1.43374e-13 0)
(5.55112e-15 -2.41858e-14 0)
(1.77636e-14 -1.6887e-13 0)
(1.4877e-14 -1.37319e-13 0)
(1.55431e-14 -1.44462e-13 0)
(1.53211e-14 -1.42823e-13 0)
(1.55431e-14 -1.43255e-13 0)
(1.55431e-14 -1.43294e-13 0)
(1.55431e-14 -1.43395e-13 0)
(1.55431e-14 -1.43431e-13 0)
(1.53211e-14 -1.43405e-13 0)
(1.55431e-14 -1.43335e-13 0)
(1.53211e-14 -1.43261e-13 0)
(1.53211e-14 -1.43235e-13 0)
(1.53211e-14 -1.43406e-13 0)
(1.55431e-14 -1.43609e-13 0)
(1.57652e-14 -1.43577e-13 0)
(1.57652e-14 -1.43396e-13 0)
(1.53211e-14 -1.43282e-13 0)
(1.57652e-14 -1.4322e-13 0)
(1.57652e-14 -1.43321e-13 0)
(2.83107e-14 -2.10404e-13 0)
(1.17684e-14 -1.2858e-13 0)
(1.55431e-14 -1.4664e-13 0)
(1.55431e-14 -1.42523e-13 0)
(1.55431e-14 -1.43463e-13 0)
(1.57652e-14 -1.43329e-13 0)
(1.57652e-14 -1.43403e-13 0)
(1.59872e-14 -1.43453e-13 0)
(1.60982e-14 -1.43476e-13 0)
(1.60982e-14 -1.43397e-13 0)
(1.58762e-14 -1.43326e-13 0)
(1.59872e-14 -1.43338e-13 0)
(1.60982e-14 -1.43445e-13 0)
(1.63203e-14 -1.4351e-13 0)
(1.60982e-14 -1.43491e-13 0)
(1.59872e-14 -1.43365e-13 0)
(1.58762e-14 -1.43282e-13 0)
(1.55431e-14 -1.4335e-13 0)
(1.55431e-14 -1.43393e-13 0)
(1.57652e-14 -1.43371e-13 0)
(-1.33227e-15 -1.74957e-13 0)
(2.13163e-14 -1.36981e-13 0)
(1.58762e-14 -1.44628e-13 0)
(1.64313e-14 -1.42889e-13 0)
(1.59872e-14 -1.43382e-13 0)
(1.59872e-14 -1.43371e-13 0)
(1.57652e-14 -1.43426e-13 0)
(1.57652e-14 -1.43393e-13 0)
(1.57652e-14 -1.4336e-13 0)
(1.53211e-14 -1.43307e-13 0)
(1.53211e-14 -1.43338e-13 0)
(1.55431e-14 -1.43429e-13 0)
(1.58762e-14 -1.4349e-13 0)
(1.58762e-14 -1.43497e-13 0)
(1.57652e-14 -1.43421e-13 0)
(1.57652e-14 -1.4335e-13 0)
(1.58762e-14 -1.43278e-13 0)
(1.59872e-14 -1.433e-13 0)
(1.58762e-14 -1.43393e-13 0)
(1.58762e-14 -1.43371e-13 0)
(1.55431e-14 -3.86776e-14 0)
(1.53211e-14 -1.65597e-13 0)
(1.55431e-14 -1.37863e-13 0)
(1.55431e-14 -1.44281e-13 0)
(1.58762e-14 -1.42954e-13 0)
(1.57652e-14 -1.43308e-13 0)
(1.60982e-14 -1.43252e-13 0)
(1.58762e-14 -1.43265e-13 0)
(1.57652e-14 -1.43285e-13 0)
(1.58762e-14 -1.43303e-13 0)
(1.60982e-14 -1.43409e-13 0)
(1.59872e-14 -1.43567e-13 0)
(1.58762e-14 -1.43592e-13 0)
(1.58762e-14 -1.43428e-13 0)
(1.58762e-14 -1.43345e-13 0)
(1.58762e-14 -1.43382e-13 0)
(1.57652e-14 -1.43331e-13 0)
(1.57652e-14 -1.43248e-13 0)
(1.57652e-14 -1.433e-13 0)
(1.57652e-14 -1.43331e-13 0)
(3.78586e-14 -1.83693e-13 0)
(9.54792e-15 -1.34788e-13 0)
(1.58762e-14 -1.45484e-13 0)
(1.5099e-14 -1.43019e-13 0)
(1.55431e-14 -1.43502e-13 0)
(1.55431e-14 -1.43384e-13 0)
(1.53211e-14 -1.43386e-13 0)
(1.53211e-14 -1.43322e-13 0)
(1.55431e-14 -1.43336e-13 0)
(1.55431e-14 -1.43401e-13 0)
(1.57652e-14 -1.43514e-13 0)
(1.57652e-14 -1.43517e-13 0)
(1.57652e-14 -1.43429e-13 0)
(1.53211e-14 -1.43376e-13 0)
(1.53211e-14 -1.43391e-13 0)
(1.55431e-14 -1.43336e-13 0)
(1.55431e-14 -1.43309e-13 0)
(1.55431e-14 -1.43293e-13 0)
(1.55431e-14 -1.43345e-13 0)
(1.57652e-14 -1.43367e-13 0)
(5.32907e-15 -2.25664e-13 0)
(1.95399e-14 -1.25994e-13 0)
(1.67644e-14 -1.47506e-13 0)
(1.65423e-14 -1.42466e-13 0)
(1.64313e-14 -1.43509e-13 0)
(1.66533e-14 -1.43293e-13 0)
(1.66533e-14 -1.43404e-13 0)
(1.67644e-14 -1.43395e-13 0)
(1.65423e-14 -1.43393e-13 0)
(1.65423e-14 -1.43469e-13 0)
(1.63203e-14 -1.43574e-13 0)
(1.60982e-14 -1.43473e-13 0)
(1.59872e-14 -1.43335e-13 0)
(1.59872e-14 -1.43404e-13 0)
(1.59872e-14 -1.43489e-13 0)
(1.55431e-14 -1.43399e-13 0)
(1.58762e-14 -1.43334e-13 0)
(1.57652e-14 -1.43333e-13 0)
(1.57652e-14 -1.43355e-13 0)
(1.58762e-14 -1.43368e-13 0)
)
;

boundaryField
{
    movingWall
    {
        type            calculated;
        value           uniform (1.57652e-14 -1.43346e-13 0);
    }
    fixedWalls
    {
        type            calculated;
        value           uniform (1.57652e-14 -1.43346e-13 0);
    }
    frontAndBack
    {
        type            empty;
    }
}


// ************************************************************************* //
