/*--------------------------------*- C++ -*----------------------------------*\
| =========                 |                                                 |
| \\      /  F ield         | OpenFOAM: The Open Source CFD Toolbox           |
|  \\    /   O peration     | Version:  2312                                  |
|   \\  /    A nd           | Website:  www.openfoam.com                      |
|    \\/     M anipulation  |                                                 |
\*---------------------------------------------------------------------------*/
FoamFile
{
    version     2.0;
    format      ascii;
    arch        "LSB;label=32;scalar=64";
    class       volScalarField;
    location    "9.125";
    object      divU;
}
// * * * * * * * * * * * * * * * * * * * * * * * * * * * * * * * * * * * * * //

dimensions      [0 0 -1 0 0 0 0];

internalField   nonuniform List<scalar> 
400
(
1.56396e-11
-1.92998e-12
3.9738e-13
-1.66908e-13
6.00479e-14
-1.43861e-14
-3.51129e-14
-2.91368e-16
1.66535e-14
-4.054e-14
1.99176e-14
3.58766e-15
-1.04423e-14
2.20057e-14
1.67165e-14
-5.27184e-14
2.91442e-14
3.42955e-15
-2.36773e-14
0
-2.52077e-11
3.36599e-12
-7.09406e-13
2.57738e-13
-4.09848e-14
5.9981e-14
2.6216e-14
1.93751e-14
-3.17614e-14
-1.64203e-15
-4.19042e-15
-1.43248e-16
-2.13621e-14
-7.61364e-15
-1.698e-14
-8.09366e-15
6.25471e-14
-1.60902e-14
-7.24068e-15
0
4.01155e-12
-1.05914e-12
1.87156e-13
-7.65474e-14
9.78028e-15
1.79917e-15
6.16781e-15
-1.47564e-14
4.58102e-14
-2.88039e-14
-3.98134e-14
5.44697e-15
-2.31035e-14
8.29288e-15
5.07429e-15
-3.62753e-14
-5.96342e-15
-8.39085e-15
-5.51757e-16
2.71051e-14
1.35525e-11
-1.1904e-12
2.53577e-13
-8.93826e-14
4.56289e-14
-8.02834e-15
-5.7997e-16
1.78925e-14
-5.07655e-14
3.71633e-14
1.48877e-15
-1.73707e-14
-3.58666e-14
6.80362e-14
-3.02665e-14
-5.18742e-15
6.81808e-14
-4.19962e-15
1.77086e-15
-2.71051e-14
-1.50975e-11
1.93081e-12
-3.23588e-13
1.64892e-13
-3.80999e-14
-1.23751e-15
1.66192e-14
-1.87649e-14
-3.37685e-15
-3.79735e-15
2.83517e-14
-1.65484e-14
-1.92455e-14
7.04541e-15
-2.81712e-14
-2.63381e-14
-2.98118e-14
6.55898e-15
1.22905e-14
0
8.70072e-12
-8.73237e-13
2.06586e-13
-1.37005e-13
-6.14275e-14
4.16717e-14
1.28161e-15
4.06134e-14
-2.89044e-15
-2.3509e-14
6.28109e-15
1.99245e-14
7.25015e-14
-1.54713e-14
-1.33776e-14
1.8937e-14
-6.04893e-15
-8.9736e-15
1.19812e-14
0
7.18284e-12
-1.70451e-12
3.56052e-13
-1.47938e-13
3.87202e-14
-3.9993e-14
2.19706e-15
3.64602e-14
-2.2161e-14
-4.02394e-14
-4.13444e-15
1.3241e-14
2.15561e-14
1.64065e-14
-7.25908e-14
-7.49593e-15
2.41635e-15
-4.88454e-15
1.7974e-14
0
-2.23617e-11
4.04414e-12
-8.0386e-13
3.00205e-13
-1.64762e-14
2.65124e-14
-1.17001e-14
-3.55702e-14
2.35666e-14
9.82834e-15
-5.03362e-15
4.56208e-14
-2.51384e-14
-2.41809e-14
2.35827e-14
9.59823e-15
-1.53618e-14
3.1379e-14
-2.24705e-14
-2.71051e-14
1.95156e-11
-3.32693e-12
6.36564e-13
-2.93263e-13
9.84392e-14
-2.92924e-14
9.56954e-16
-1.54466e-14
4.92206e-14
1.41848e-14
-1.52002e-14
-3.77256e-14
1.24813e-14
-1.12104e-14
5.97043e-16
3.60168e-14
-1.4312e-14
8.18452e-15
9.29733e-15
0
-3.08998e-12
5.54485e-13
-5.2843e-14
1.09986e-13
-4.53178e-14
2.6328e-14
-1.53319e-14
-2.56645e-14
1.35466e-14
-3.23654e-14
4.81297e-14
1.62069e-14
8.09365e-15
-3.52246e-14
-7.49232e-14
1.77486e-14
4.69061e-14
2.96263e-14
1.54456e-14
-2.71051e-14
-1.09775e-11
1.80278e-12
-3.4501e-13
1.15239e-13
-2.28007e-14
2.25595e-14
-2.11999e-14
5.58689e-14
1.71182e-14
1.13889e-14
-3.1544e-14
-5.48117e-14
3.00031e-15
4.11779e-14
1.31037e-14
1.9603e-14
-8.62961e-15
-2.40017e-14
-1.56147e-14
0
1.73743e-11
-3.4298e-12
6.43117e-13
-2.66591e-13
6.40378e-14
-5.767e-14
2.36375e-14
3.75031e-14
-9.21091e-16
-1.61428e-14
-5.10638e-15
2.0663e-14
-3.26047e-14
-1.65125e-14
-2.31863e-14
-3.39872e-14
-2.8101e-14
-1.16917e-14
6.99256e-14
0
-1.71846e-11
4.34287e-12
-8.16865e-13
3.46418e-13
-1.02991e-13
1.2801e-14
-3.99393e-14
3.79779e-14
-2.21713e-14
-3.90657e-15
-7.05529e-15
3.23884e-14
-1.41649e-14
4.73436e-14
1.16566e-14
3.58664e-14
-1.0808e-14
-1.2279e-14
-5.55498e-15
0
9.1073e-12
-2.78221e-12
5.34771e-13
-1.98217e-13
7.4067e-14
-2.9782e-14
3.1058e-15
1.71017e-14
1.47291e-14
1.14099e-14
-1.16569e-14
9.04836e-16
-1.96431e-14
-1.45277e-14
1.94155e-14
2.29338e-14
-1.41641e-14
-2.02445e-14
1.83511e-14
-2.71051e-14
3.08998e-12
1.71033e-13
-5.20309e-14
2.48566e-14
-4.08124e-14
1.07697e-14
-5.83605e-16
-1.57074e-14
-2.15609e-14
-1.10547e-14
3.05742e-15
9.24733e-15
1.0947e-15
3.17474e-14
-1.37323e-14
5.62904e-14
-2.57778e-14
5.95611e-15
3.49884e-14
0
-1.42302e-11
1.95044e-12
-3.76294e-13
1.55066e-13
1.17463e-14
-8.5415e-16
1.33111e-14
3.87376e-14
1.2664e-14
-1.24945e-15
2.69601e-15
-7.56187e-15
2.75332e-15
-4.43779e-15
5.08376e-15
-2.33461e-15
-1.39341e-14
-5.01003e-14
4.47571e-14
0
1.60191e-11
-1.99527e-12
3.92994e-13
-1.562e-13
3.55225e-14
-2.58137e-14
1.29732e-15
3.04111e-14
-2.24839e-14
-1.88802e-14
-5.58481e-15
5.09192e-14
1.52093e-14
3.76092e-15
-7.46955e-15
2.31201e-14
3.53911e-14
-1.27777e-14
-1.69344e-16
-2.71051e-14
-9.75782e-13
2.29851e-13
-4.50498e-14
4.76473e-14
-3.55715e-15
2.70983e-14
3.24091e-14
-1.67297e-14
-2.00649e-14
5.2982e-14
-2.31463e-14
-3.9231e-14
-5.78722e-15
1.5841e-14
-4.50352e-15
-2.97384e-14
5.23051e-15
-1.20933e-14
4.65928e-15
0
-1.71033e-11
1.75072e-12
-3.85984e-13
1.47741e-13
-3.18829e-14
-2.56403e-14
-9.87639e-15
2.44795e-14
-3.78919e-15
-1.78454e-14
4.16989e-14
-2.76646e-15
-3.43237e-14
-3.58986e-14
8.27311e-15
-4.38659e-15
4.88154e-15
-2.06159e-14
5.33801e-14
0
1.1601e-11
-1.46367e-12
3.52366e-13
-1.6263e-13
5.42101e-14
2.71051e-14
0
0
-2.71051e-14
0
-2.71051e-14
0
0
0
-2.71051e-14
0
0
0
2.71051e-14
-2.71051e-14
)
;

boundaryField
{
    movingWall
    {
        type            extrapolatedCalculated;
        value           nonuniform List<scalar> 
20
(
1.1601e-11
-1.46367e-12
3.52366e-13
-1.6263e-13
5.42101e-14
2.71051e-14
0
0
-2.71051e-14
0
-2.71051e-14
0
0
0
-2.71051e-14
0
0
0
2.71051e-14
-2.71051e-14
)
;
    }
    fixedWalls
    {
        type            extrapolatedCalculated;
        value           nonuniform List<scalar> 
60
(
1.56396e-11
-2.52077e-11
4.01155e-12
1.35525e-11
-1.50975e-11
8.70072e-12
7.18284e-12
-2.23617e-11
1.95156e-11
-3.08998e-12
-1.09775e-11
1.73743e-11
-1.71846e-11
9.1073e-12
3.08998e-12
-1.42302e-11
1.60191e-11
-9.75782e-13
-1.71033e-11
1.1601e-11
0
0
2.71051e-14
-2.71051e-14
0
0
0
-2.71051e-14
0
-2.71051e-14
0
0
0
-2.71051e-14
0
0
-2.71051e-14
0
0
-2.71051e-14
1.56396e-11
-1.92998e-12
3.9738e-13
-1.66908e-13
6.00479e-14
-1.43861e-14
-3.51129e-14
-2.91368e-16
1.66535e-14
-4.054e-14
1.99176e-14
3.58766e-15
-1.04423e-14
2.20057e-14
1.67165e-14
-5.27184e-14
2.91442e-14
3.42955e-15
-2.36773e-14
0
)
;
    }
    frontAndBack
    {
        type            empty;
    }
}


// ************************************************************************* //
