/*--------------------------------*- C++ -*----------------------------------*\
| =========                 |                                                 |
| \\      /  F ield         | OpenFOAM: The Open Source CFD Toolbox           |
|  \\    /   O peration     | Version:  2312                                  |
|   \\  /    A nd           | Website:  www.openfoam.com                      |
|    \\/     M anipulation  |                                                 |
\*---------------------------------------------------------------------------*/
FoamFile
{
    version     2.0;
    format      ascii;
    arch        "LSB;label=32;scalar=64";
    class       volScalarField;
    location    "9.125";
    object      flowTypeField;
}
// * * * * * * * * * * * * * * * * * * * * * * * * * * * * * * * * * * * * * //

dimensions      [0 0 0 0 0 0 0];

internalField   nonuniform List<scalar> 
400
(
0.432927
0.0555041
0.0497647
-0.00922432
-0.0848689
0.243276
0.850754
0.00012529
0.164734
0.789658
0.760278
0.0932245
0.809796
0.918773
0.737977
0.300516
0.844881
0.133577
0.775387
0.28248
0.991747
0.696165
0.63616
0.856071
0.38145
0.371907
0.827759
0.550467
0.440433
0.0426682
-0.147745
-0.171708
-0.161929
0.00762135
0.322779
0.440989
0.24287
-0.0515532
0.0420358
0.0534618
0.492445
0.11189
0.0234554
0.184085
-0.953101
0.20111
-0.106382
0.497001
0.580595
0.197507
0.0770877
0.135311
0.734677
0.398709
-0.17709
0.408165
-0.22281
0.677596
0.576351
0.448034
0.722599
0.223876
0.187158
0.141745
0.107068
0.729213
0.48954
0.498195
0.496676
0.422528
-0.0130034
0.0169994
0.0875601
0.072026
0.204783
-0.25245
0.0991057
0.00896417
0.0626245
0.889685
0.913064
0.422174
0.464793
0.276676
-0.345927
-0.243932
-0.268207
0.810284
-0.656661
0.841757
0.0797827
-0.158629
0.39822
0.604128
0.536734
-0.406617
0.539843
-0.342589
0.396268
0.039114
0.423398
0.0670632
0.00740141
-0.0332674
0.163799
0.867005
0.973323
0.880399
0.0047674
0.540408
0.0217919
0.223119
0.749629
0.0135189
0.165589
0.528774
0.540995
0.934808
-0.29866
0.144392
0.309095
0.0635681
-0.0440919
0.150935
0.0484301
-0.562881
0.0847578
-0.402802
-0.371911
0.791094
-0.18549
-0.22615
-0.219208
-0.436117
0.289101
0.00055203
-0.218454
-0.329747
-0.0084997
0.0140852
0.919525
0.470358
0.531498
0.19102
0.895942
0.023183
0.835639
0.0310506
0.427271
0.77336
0.278793
0.938482
0.244711
0.949822
0.0790937
0.876607
0.165204
0.887403
0.732662
0.228407
0.596717
0.122223
0.0471456
0.328674
-0.426669
0.558461
-0.0028533
-0.0768278
0.0864077
0.157272
-0.487221
-0.318425
0.265708
0.205223
-0.0648681
-0.0937112
0.951974
0.199365
0.248661
0.000327486
0.162112
0.0362838
0.00924957
-0.0905944
0.333236
-0.40481
0.409704
0.287619
0.0115453
0.96817
0.197318
-0.212297
-0.29211
0.711984
0.797685
0.885751
0.959877
0.879056
0.565611
0.699662
0.324755
0.0502634
-0.000398709
-0.025456
0.207951
-0.311878
0.176089
0.253402
0.579041
0.545468
0.159491
0.0859187
0.49174
0.315802
-0.276414
-0.0670996
-0.459131
-0.190873
-0.0410917
0.615542
0.590927
0.144567
0.117245
0.270424
-0.19396
0.101047
0.0414876
0.326091
-0.0396458
-0.190211
0.0192498
0.176763
0.252371
-0.0528092
0.345295
0.778559
0.139942
0.872405
0.973232
0.909243
0.885389
0.355937
0.243678
0.433452
0.508517
-0.337951
-0.334138
-0.222121
-0.0411716
0.708898
0.763505
0.359659
-0.267036
0.163181
0.517051
0.568847
-0.264772
-0.175195
0.0938233
0.595786
0.248405
0.0345365
-0.0433948
-0.0643781
-0.387862
0.171529
-0.158239
-0.0248111
-0.0501565
-0.0881535
0.102081
0.540477
0.961652
-0.124801
0.979569
0.972704
0.0613898
-0.0596678
0.795551
0.833696
0.080901
0.0248139
-0.0681648
0.0142756
-0.384869
0.14831
0.0307448
0.0705169
0.0203746
0.594148
0.265393
0.189122
-0.252754
-0.353858
-0.299719
0.86658
-0.0015202
-0.631602
0.197065
0.539685
0.657357
0.158284
0.0536164
0.392579
-0.0866214
0.26571
0.549359
0.111976
0.32066
0.148137
-0.107599
0.367694
-0.0518473
-0.0670275
0.349499
0.434892
0.321919
0.0586927
0.258018
0.268941
0.90533
0.427541
0.444697
0.383848
0.055276
0.770238
0.0923988
-0.00193229
0.3949
0.0774129
-0.204989
0.768641
0.453333
-0.181862
-0.0782869
-0.0107613
0.750911
0.0616661
0.332761
0.666861
0.475556
0.120425
0.000886686
0.269261
-0.263608
0.906038
0.0392022
0.154356
0.797573
0.138976
-0.363096
-0.0467152
-0.431454
-0.280839
-0.083463
0.894276
-0.161577
-0.0376128
0.153272
0.218984
0.850116
0.384943
0.301794
0.632614
-0.00936611
0.2789
0.141226
0.0783553
-0.118328
-0.245373
0.737984
0.335301
0.748312
0.157255
0.179408
-0.149672
0.0785444
-0.0530494
0.186073
0.0833951
0.561543
0.0892199
0.131672
-0.0117215
0.674274
-0.0516501
0.197678
-0.0186024
0.213598
0.401254
0.338446
-0.0933996
-0.197279
0.120587
0.971989
0.283231
0.169244
0.571213
0.808906
0.199909
)
;

boundaryField
{
    movingWall
    {
        type            calculated;
        value           nonuniform List<scalar> 
20
(
0.627553
0.116158
0.431532
-0.163159
0.326965
-0.024405
0.0308452
-0.00147594
0.0289138
0.0720168
0.0950769
-0.0699301
-0.0762694
0.194144
0.227292
0.19196
-0.138332
0.484475
0.810264
0.0957876
)
;
    }
    fixedWalls
    {
        type            calculated;
        value           nonuniform List<scalar> 
60
(
0.0563603
0.698394
0.0947231
0.217812
0.453524
0.0618455
0.0443821
0.50286
0.111772
0.0285755
0.0318465
0.13956
0.355601
0.0204336
0.00754372
0.151148
0.446257
0.093407
0.382667
0.0985346
0.034063
-0.0176114
0.591971
0.589611
-0.443108
0.315385
0.0182812
0.265958
0.65428
0.723437
0.87023
0.869529
0.747711
0.691654
0.351108
0.371711
0.711228
0.214356
0.316348
0.28881
0.644561
0.1431
0.318074
-0.0447512
0.755014
-0.0977665
0.0677428
-0.168296
-0.0202786
0.0520334
0.0399244
0.0247741
0.0484397
0.0312047
0.0108253
0.912589
0.159322
-0.092298
0.774018
0.666731
)
;
    }
    frontAndBack
    {
        type            empty;
    }
}


// ************************************************************************* //
