/*--------------------------------*- C++ -*----------------------------------*\
| =========                 |                                                 |
| \\      /  F ield         | OpenFOAM: The Open Source CFD Toolbox           |
|  \\    /   O peration     | Version:  2312                                  |
|   \\  /    A nd           | Website:  www.openfoam.com                      |
|    \\/     M anipulation  |                                                 |
\*---------------------------------------------------------------------------*/
FoamFile
{
    version     2.0;
    format      ascii;
    arch        "LSB;label=32;scalar=64";
    class       surfaceScalarField;
    location    "9.125";
    object      fluxField;
}
// * * * * * * * * * * * * * * * * * * * * * * * * * * * * * * * * * * * * * //

dimensions      [0 3 -1 0 0 0 0];

oriented        oriented;

internalField   nonuniform List<scalar> 
760
(
-5e-05
4.17164e-18
-5e-05
-8.95848e-19
-5e-05
2.14542e-19
-5e-05
-4.17269e-20
-5e-05
1.5012e-20
-5e-05
3.17975e-21
-5e-05
4.7743e-21
-5e-05
-7.28419e-23
-5e-05
-2.61288e-21
-5e-05
-3.35874e-21
-5e-05
-1.79687e-21
-5e-05
8.96916e-22
-5e-05
4.16569e-21
-5e-05
5.50144e-21
-5e-05
4.17911e-21
-5e-05
3.7294e-22
-5e-05
5.09788e-22
-5e-05
8.57387e-22
-5e-05
8.56926e-22
-5.53975e-22
-5e-05
-2.5214e-18
-5e-05
5.43342e-19
-5e-05
-1.23141e-19
-5e-05
3.05531e-20
-5e-05
-3.46993e-21
-5e-05
1.44272e-21
-5e-05
-2.22255e-22
-5e-05
-1.93249e-21
-5e-05
-1.16408e-21
-5e-05
-4.10508e-22
-5e-05
-1.04761e-21
-5e-05
-3.58119e-23
-5e-05
1.43574e-21
-5e-05
4.87285e-21
-5e-05
2.53127e-21
-5e-05
-2.02342e-21
-5e-05
-4.69201e-21
-5e-05
-4.02254e-21
-5e-05
-1.81017e-21
-1.15033e-21
-5e-05
-1.61944e-18
-5e-05
3.65406e-19
-5e-05
-8.19599e-20
-5e-05
2.15207e-20
-5e-05
-4.33119e-21
-5e-05
4.49793e-22
-5e-05
1.54195e-21
-5e-05
3.08718e-21
-5e-05
4.67628e-21
-5e-05
6.35155e-21
-5e-05
3.59917e-21
-5e-05
1.36174e-21
-5e-05
1.00038e-21
-5e-05
2.07322e-21
-5e-05
1.26857e-21
-5e-05
-2.29257e-21
-5e-05
-8.26712e-21
-5e-05
-8.87398e-21
-5e-05
-6.9142e-21
-4.38876e-21
-5e-05
2.20774e-18
-5e-05
-4.73784e-19
-5e-05
1.10828e-19
-5e-05
-2.91219e-20
-5e-05
-2.14529e-21
-5e-05
-2.00708e-21
-5e-05
6.63127e-21
-5e-05
1.12494e-20
-5e-05
7.63743e-21
-5e-05
2.51456e-21
-5e-05
3.72192e-22
-5e-05
2.4336e-21
-5e-05
4.58587e-21
-5e-05
3.45652e-21
-5e-05
5.98591e-21
-5e-05
-1.29685e-21
-5e-05
-1.00598e-20
-5e-05
-7.82617e-21
-5e-05
-6.33355e-21
-4.88843e-21
-5e-05
-1.83879e-18
-5e-05
3.87834e-19
-5e-05
-8.76732e-20
-5e-05
1.41179e-20
-5e-05
-9.52497e-21
-5e-05
-3.09377e-22
-5e-05
4.15479e-21
-5e-05
8.86131e-21
-5e-05
5.93205e-21
-5e-05
-9.49338e-22
-5e-05
3.11651e-22
-5e-05
2.63916e-21
-5e-05
1.9649e-21
-5e-05
1.76135e-21
-5e-05
6.50972e-21
-5e-05
1.91751e-22
-5e-05
-7.45296e-21
-5e-05
-5.13652e-21
-5e-05
-3.70363e-21
-1.3982e-21
-5e-05
5.33144e-19
-5e-05
-9.63366e-20
-5e-05
3.13177e-20
-5e-05
-3.69994e-22
-5e-05
4.97193e-21
-5e-05
-3.1346e-21
-5e-05
-6.45586e-21
-5e-05
-3.39917e-21
-5e-05
6.05365e-21
-5e-05
7.67528e-21
-5e-05
8.34654e-21
-5e-05
4.98112e-21
-5e-05
-2.20341e-21
-5e-05
-3.86782e-21
-5e-05
-3.34439e-21
-5e-05
-2.04202e-21
-5e-05
-1.51223e-21
-5e-05
-2.2434e-21
-5e-05
-3.78097e-21
-3.93617e-22
-5e-05
2.28694e-18
-5e-05
-4.9389e-19
-5e-05
1.16118e-19
-5e-05
-2.34319e-20
-5e-05
9.68006e-21
-5e-05
-3.22199e-21
-5e-05
-6.227e-21
-5e-05
-4.43747e-21
-5e-05
8.01228e-21
-5e-05
1.02689e-20
-5e-05
5.74265e-21
-5e-05
3.31025e-21
-5e-05
-1.38724e-21
-5e-05
-2.67464e-21
-5e-05
-4.59516e-21
-5e-05
-1.87398e-21
-5e-05
6.04088e-22
-5e-05
-1.22113e-21
-5e-05
-2.28276e-21
7.67073e-23
-5e-05
-3.36984e-18
-5e-05
7.19657e-19
-5e-05
-1.7386e-19
-5e-05
3.43936e-20
-5e-05
-1.08953e-20
-5e-05
-1.48159e-22
-5e-05
-2.92503e-21
-5e-05
-2.11629e-21
-5e-05
-8.84606e-22
-5e-05
-4.31918e-21
-5e-05
-8.03467e-21
-5e-05
-2.14733e-21
-5e-05
4.91674e-22
-5e-05
7.31044e-22
-5e-05
-8.80578e-22
-5e-05
2.39956e-21
-5e-05
2.9358e-21
-5e-05
1.06848e-21
-5e-05
1.15863e-21
1.46061e-21
-5e-05
1.68742e-18
-5e-05
-3.77722e-19
-5e-05
8.46021e-20
-5e-05
-1.91057e-20
-5e-05
-2.49526e-21
-5e-05
-7.32311e-21
-5e-05
-6.53703e-21
-5e-05
-3.86164e-21
-5e-05
-8.02364e-21
-5e-05
-1.00063e-20
-5e-05
-1.05763e-20
-5e-05
-2.65515e-21
-5e-05
3.12032e-21
-5e-05
3.97365e-21
-5e-05
1.49261e-22
-5e-05
2.22794e-21
-5e-05
3.19827e-21
-5e-05
2.04613e-21
-5e-05
2.32433e-21
1.40333e-21
-5e-05
8.8269e-19
-5e-05
-1.93416e-19
-5e-05
4.09994e-20
-5e-05
-1.3161e-20
-5e-05
-4.55319e-21
-5e-05
-6.97052e-21
-5e-05
-3.83297e-21
-5e-05
3.6015e-22
-5e-05
-3.38961e-21
-5e-05
-1.31509e-21
-5e-05
-1.5201e-21
-5e-05
-2.72455e-21
-5e-05
2.02341e-21
-5e-05
4.74637e-21
-5e-05
1.59799e-21
-5e-05
-2.33911e-21
-5e-05
-1.82601e-21
-5e-05
6.30307e-22
-5e-05
3.86139e-21
1.98959e-21
-5e-05
-2.01012e-18
-5e-05
4.57472e-19
-5e-05
-1.13358e-19
-5e-05
1.52573e-20
-5e-05
-1.24764e-20
-5e-05
-1.13638e-21
-5e-05
1.4763e-21
-5e-05
4.14692e-22
-5e-05
-2.4967e-21
-5e-05
2.84723e-21
-5e-05
5.66652e-21
-5e-05
-1.5039e-22
-5e-05
7.50078e-22
-5e-05
3.5182e-21
-5e-05
3.27592e-21
-5e-05
-1.87551e-21
-5e-05
-2.1574e-21
-5e-05
7.75848e-22
-5e-05
2.87258e-21
1.4138e-21
-5e-05
2.32682e-18
-5e-05
-5.05085e-19
-5e-05
1.20122e-19
-5e-05
-2.59901e-20
-5e-05
9.23318e-21
-5e-05
5.91129e-21
-5e-05
5.90938e-21
-5e-05
-4.17676e-21
-5e-05
-7.00654e-21
-5e-05
-4.03569e-21
-5e-05
-1.27659e-21
-5e-05
-1.61052e-21
-5e-05
-1.37491e-21
-5e-05
2.64813e-21
-5e-05
7.75595e-21
-5e-05
5.05572e-21
-5e-05
-2.48996e-22
-5e-05
-2.92293e-21
-5e-05
-2.8474e-21
-1.27312e-21
-5e-05
-1.69507e-18
-5e-05
3.47105e-19
-5e-05
-7.54671e-20
-5e-05
2.56182e-20
-5e-05
8.13368e-21
-5e-05
9.97651e-21
-5e-05
3.5677e-21
-5e-05
-4.05805e-21
-5e-05
-5.54283e-21
-5e-05
-7.75291e-21
-5e-05
-8.54009e-21
-5e-05
-5.45543e-21
-5e-05
-3.54122e-21
-5e-05
-1.71663e-21
-5e-05
2.91414e-21
-5e-05
2.19034e-21
-5e-05
-2.70201e-21
-5e-05
-3.06975e-21
-5e-05
-1.38874e-21
-1.99932e-21
-5e-05
3.18778e-19
-5e-05
-7.21363e-20
-5e-05
1.84963e-20
-5e-05
4.65577e-21
-5e-05
1.17405e-20
-5e-05
6.10703e-21
-5e-05
7.76451e-22
-5e-05
-2.50085e-21
-5e-05
-3.09399e-21
-5e-05
-3.92379e-21
-5e-05
-2.91422e-21
-5e-05
2.26209e-22
-5e-05
1.86548e-21
-5e-05
-3.63193e-21
-5e-05
-8.69866e-21
-5e-05
-7.81907e-21
-5e-05
-3.54102e-21
-5e-05
1.71514e-21
-5e-05
4.58778e-21
-9.07116e-23
-5e-05
1.30253e-18
-5e-05
-2.6895e-19
-5e-05
6.83074e-20
-5e-05
-7.33837e-21
-5e-05
1.01257e-20
-5e-05
2.69243e-21
-5e-05
-1.45901e-22
-5e-05
-3.92686e-21
-5e-05
-5.39023e-21
-5e-05
-2.76368e-21
-5e-05
7.64356e-22
-5e-05
2.31183e-21
-5e-05
2.73675e-22
-5e-05
-5.61568e-21
-5e-05
-1.02093e-20
-5e-05
-6.2562e-21
-5e-05
3.3182e-22
-5e-05
1.48903e-21
-5e-05
1.97083e-21
-2.28446e-23
-5e-05
-2.46676e-18
-5e-05
5.28268e-19
-5e-05
-1.14402e-19
-5e-05
3.19903e-20
-5e-05
-3.83968e-21
-5e-05
-2.13537e-22
-5e-05
-3.44848e-21
-5e-05
-3.86814e-21
-5e-05
-3.61025e-21
-5e-05
-3.12363e-22
-5e-05
6.74002e-22
-5e-05
-1.89047e-21
-5e-05
-6.08793e-21
-5e-05
-7.88571e-21
-5e-05
-5.50532e-21
-5e-05
-5.83653e-22
-5e-05
3.29273e-21
-5e-05
1.02746e-21
-5e-05
-2.36326e-21
-1.27011e-21
-5e-05
1.82641e-18
-5e-05
-3.97173e-19
-5e-05
1.05025e-19
-5e-05
-1.1945e-20
-5e-05
8.88063e-21
-5e-05
3.22833e-22
-5e-05
3.24331e-22
-5e-05
8.26501e-22
-5e-05
1.15528e-21
-5e-05
2.05621e-21
-5e-05
-1.3962e-21
-5e-05
-7.59899e-21
-5e-05
-9.75021e-21
-5e-05
-5.83603e-21
-5e-05
-1.86739e-21
-5e-05
-9.96235e-22
-5e-05
2.07151e-21
-5e-05
3.58184e-21
-5e-05
-4.23361e-23
-2.64495e-22
-5e-05
1.60802e-18
-5e-05
-3.42337e-19
-5e-05
8.36052e-20
-5e-05
-1.51932e-20
-5e-05
5.88698e-21
-5e-05
-1.69415e-24
-5e-05
1.32601e-21
-5e-05
2.59383e-21
-5e-05
1.76005e-21
-5e-05
-3.07036e-22
-5e-05
-5.78658e-21
-5e-05
-9.80776e-21
-5e-05
-8.22307e-21
-5e-05
-2.81602e-21
-5e-05
-1.12588e-21
-5e-05
-6.58329e-22
-5e-05
1.30763e-21
-5e-05
3.75294e-21
-5e-05
1.16482e-21
-1.69272e-22
-5e-05
-3.06664e-18
-5e-05
6.47744e-19
-5e-05
-1.57482e-19
-5e-05
3.01591e-20
-5e-05
-7.97073e-21
-5e-05
3.66185e-22
-5e-05
-2.4691e-21
-5e-05
-6.56395e-22
-5e-05
-9.47298e-22
-5e-05
-4.46135e-21
-5e-05
-9.90407e-21
-5e-05
-7.46788e-21
-5e-05
-1.80466e-21
-5e-05
-2.19838e-21
-5e-05
-4.70799e-21
-5e-05
-1.09665e-21
-5e-05
1.22039e-21
-5e-05
1.62228e-21
-5e-05
-2.07504e-22
-1.0938e-21
-5e-05
-5e-05
-5e-05
-5e-05
-5e-05
-5e-05
-5e-05
-5e-05
-5e-05
-5e-05
-5e-05
-5e-05
-5e-05
-5e-05
-5e-05
-5e-05
-5e-05
-5e-05
-5e-05
)
;

boundaryField
{
    movingWall
    {
        type            calculated;
        value           uniform -0;
    }
    fixedWalls
    {
        type            calculated;
        value           nonuniform List<scalar> 
60
(
5e-05
5e-05
5e-05
5e-05
5e-05
5e-05
5e-05
5e-05
5e-05
5e-05
5e-05
5e-05
5e-05
5e-05
5e-05
5e-05
5e-05
5e-05
5e-05
5e-05
-5e-05
-5e-05
-5e-05
-5e-05
-5e-05
-5e-05
-5e-05
-5e-05
-5e-05
-5e-05
-5e-05
-5e-05
-5e-05
-5e-05
-5e-05
-5e-05
-5e-05
-5e-05
-5e-05
-5e-05
0
0
0
0
0
0
0
0
0
0
0
0
0
0
0
0
0
0
0
0
)
;
    }
    frontAndBack
    {
        type            empty;
        value           nonuniform List<scalar> 0();
    }
}


// ************************************************************************* //
