/*--------------------------------*- C++ -*----------------------------------*\
| =========                 |                                                 |
| \\      /  F ield         | OpenFOAM: The Open Source CFD Toolbox           |
|  \\    /   O peration     | Version:  2312                                  |
|   \\  /    A nd           | Website:  www.openfoam.com                      |
|    \\/     M anipulation  |                                                 |
\*---------------------------------------------------------------------------*/
FoamFile
{
    version     2.0;
    format      ascii;
    arch        "LSB;label=32;scalar=64";
    class       volTensorField;
    location    "9.125";
    object      gradU;
}
// * * * * * * * * * * * * * * * * * * * * * * * * * * * * * * * * * * * * * //

dimensions      [0 0 -1 0 0 0 0];

internalField   nonuniform List<tensor> 
400
(
(-1.0571e-12 1.12546e-11 0 7.58942e-13 1.66866e-11 0 0 0 0)
(1.65341e-12 -1.36037e-11 0 -2.43945e-13 -3.58339e-12 0 0 0 0)
(-4.60786e-13 2.93347e-12 0 0 8.58166e-13 0 0 0 0)
(0 -6.82125e-13 0 2.71051e-14 -1.66908e-13 0 0 0 0)
(0 1.57218e-13 0 -2.71051e-14 6.00479e-14 0 0 0 0)
(-2.71051e-14 -3.20431e-14 0 0 1.2719e-14 0 0 0 0)
(-5.42101e-14 -5.92197e-15 0 0 1.90972e-14 0 0 0 0)
(0 -1.80538e-14 0 0 -2.91368e-16 0 0 0 0)
(2.71051e-14 -5.86238e-15 0 2.71051e-14 -1.04515e-14 0 0 0 0)
(-2.71051e-14 4.43124e-15 0 0 -1.34349e-14 0 0 0 0)
(2.71051e-14 4.82976e-15 0 0 -7.18749e-15 0 0 0 0)
(0 5.02129e-15 0 5.42101e-14 3.58766e-15 0 0 0 0)
(-2.71051e-14 4.11593e-15 0 0 1.66628e-14 0 0 0 0)
(0 6.4053e-16 0 0 2.20057e-14 0 0 0 0)
(0 -2.99207e-15 0 0 1.67165e-14 0 0 0 0)
(-5.42101e-14 -3.05643e-15 0 -5.42101e-14 1.49176e-15 0 0 0 0)
(2.71051e-14 -2.5918e-15 0 0 2.03915e-15 0 0 0 0)
(0 -5.35631e-15 0 0 3.42955e-15 0 0 0 0)
(-2.71051e-14 -4.30079e-15 0 0 3.42771e-15 0 0 0 0)
(0 1.67704e-15 0 0 -2.2159e-15 0 0 0 0)
(1.57209e-12 1.84851e-12 0 2.00577e-12 -2.67722e-11 0 0 0 0)
(-2.38524e-12 -2.22464e-12 0 -5.69206e-13 5.75676e-12 0 0 0 0)
(6.50521e-13 4.83011e-13 0 0 -1.35073e-12 0 0 0 0)
(-2.71051e-14 -1.15993e-13 0 -8.13152e-14 2.8912e-13 0 0 0 0)
(2.71051e-14 2.24085e-14 0 -2.71051e-14 -7.39277e-14 0 0 0 0)
(5.42101e-14 -8.90758e-15 0 -5.42101e-14 -6.94813e-15 0 0 0 0)
(5.42101e-14 -7.08839e-15 0 0 -1.99862e-14 0 0 0 0)
(2.71051e-14 -1.14949e-14 0 0 -7.43859e-15 0 0 0 0)
(-2.71051e-14 -7.2812e-15 0 -2.71051e-14 5.79519e-15 0 0 0 0)
(0 -1.1672e-15 0 -5.42101e-14 1.17929e-14 0 0 0 0)
(0 1.21928e-14 0 -8.13152e-14 2.99706e-15 0 0 0 0)
(0 1.8829e-14 0 -1.0842e-13 -3.73091e-15 0 0 0 0)
(0 1.43022e-14 0 -8.13152e-14 -1.09198e-14 0 0 0 0)
(0 -5.86838e-16 0 -8.13152e-14 -2.51433e-15 0 0 0 0)
(0 -1.75219e-14 0 -5.42101e-14 -6.59137e-15 0 0 0 0)
(0 -1.16209e-14 0 -2.71051e-14 -9.58542e-15 0 0 0 0)
(8.13152e-14 4.52959e-15 0 -8.13152e-14 -2.08072e-14 0 0 0 0)
(0 6.74486e-15 0 -5.42101e-14 -1.95197e-14 0 0 0 0)
(0 -1.34466e-15 0 -5.42101e-14 -1.06684e-14 0 0 0 0)
(0 -2.88885e-15 0 -5.42101e-14 -2.38541e-15 0 0 0 0)
(4.06576e-13 -9.76075e-12 0 -4.58075e-12 3.60786e-12 0 0 0 0)
(-3.52366e-13 1.18177e-11 0 1.30104e-12 -7.11742e-13 0 0 0 0)
(2.71051e-14 -2.53417e-12 0 -5.42101e-14 1.64725e-13 0 0 0 0)
(-2.71051e-14 5.94678e-13 0 1.0842e-13 -3.61294e-14 0 0 0 0)
(0 -1.3885e-13 0 1.35525e-13 -3.44504e-15 0 0 0 0)
(0 2.18983e-14 0 1.0842e-13 -3.9717e-15 0 0 0 0)
(0 -6.41243e-15 0 5.42101e-14 7.05683e-15 0 0 0 0)
(-2.71051e-14 7.72758e-15 0 2.71051e-14 2.00787e-14 0 0 0 0)
(2.71051e-14 1.33691e-14 0 0 2.33615e-14 0 0 0 0)
(-5.42101e-14 1.63312e-15 0 8.13152e-14 2.70482e-14 0 0 0 0)
(-5.42101e-14 -1.06941e-14 0 8.13152e-14 1.85871e-14 0 0 0 0)
(0 -8.89559e-15 0 0 5.59022e-15 0 0 0 0)
(-2.71051e-14 5.33251e-15 0 0 -1.74143e-15 0 0 0 0)
(2.71051e-14 4.96897e-15 0 2.71051e-14 -1.11985e-14 0 0 0 0)
(0 -1.00632e-14 0 5.42101e-14 -5.05079e-15 0 0 0 0)
(-2.71051e-14 -1.72722e-14 0 0 -1.07662e-15 0 0 0 0)
(0 -1.25261e-14 0 2.71051e-14 -1.43004e-14 0 0 0 0)
(0 4.78249e-15 0 0 -1.94057e-14 0 0 0 0)
(2.71051e-14 1.28335e-14 0 0 -2.04161e-14 0 0 0 0)
(5.42101e-14 1.47308e-14 0 5.42101e-14 -1.29537e-14 0 0 0 0)
(-1.76183e-12 4.74463e-12 0 1.11131e-12 1.53087e-11 0 0 0 0)
(2.1684e-12 -5.66777e-12 0 -4.06576e-13 -3.35676e-12 0 0 0 0)
(-5.14996e-13 1.15862e-12 0 -2.71051e-14 7.71152e-13 0 0 0 0)
(1.0842e-13 -2.84164e-13 0 2.71051e-14 -2.02571e-13 0 0 0 0)
(2.71051e-14 5.45663e-14 0 0 8.74361e-15 0 0 0 0)
(0 1.59429e-15 0 0 -9.82751e-15 0 0 0 0)
(-2.71051e-14 1.6962e-14 0 0 2.03573e-14 0 0 0 0)
(-2.71051e-14 4.80975e-15 0 2.71051e-14 3.26489e-14 0 0 0 0)
(-5.42101e-14 -3.11615e-16 0 2.71051e-14 1.18446e-14 0 0 0 0)
(5.42101e-14 -5.94156e-15 0 2.71051e-14 -1.5348e-14 0 0 0 0)
(2.71051e-14 -9.26517e-15 0 5.42101e-14 -1.29079e-14 0 0 0 0)
(-2.71051e-14 -1.49958e-15 0 1.0842e-13 4.28742e-15 0 0 0 0)
(-5.42101e-14 -2.48659e-15 0 1.0842e-13 1.4342e-14 0 0 0 0)
(5.42101e-14 -3.8962e-15 0 1.0842e-13 5.53319e-15 0 0 0 0)
(-5.42101e-14 -7.40001e-15 0 5.42101e-14 1.88694e-14 0 0 0 0)
(0 -2.08705e-14 0 8.13152e-14 3.98287e-15 0 0 0 0)
(8.13152e-14 -1.37995e-14 0 1.0842e-13 -7.17091e-15 0 0 0 0)
(0 6.29176e-16 0 8.13152e-14 4.19123e-15 0 0 0 0)
(0 5.10736e-15 0 8.13152e-14 2.32262e-15 0 0 0 0)
(-2.71051e-14 3.0481e-14 0 2.71051e-14 -1.9987e-15 0 0 0 0)
(1.0842e-12 2.19122e-12 0 1.13841e-12 -1.61861e-11 0 0 0 0)
(-1.51788e-12 -2.7199e-12 0 -2.43945e-13 3.44647e-12 0 0 0 0)
(4.60786e-13 6.20024e-13 0 8.13152e-14 -7.94005e-13 0 0 0 0)
(0 -1.67729e-13 0 0 1.72959e-13 0 0 0 0)
(0 5.38931e-14 0 -1.35525e-13 -2.95187e-14 0 0 0 0)
(0 3.3512e-14 0 -1.35525e-13 6.79083e-15 0 0 0 0)
(2.71051e-14 3.6064e-14 0 -1.0842e-13 -9.90592e-15 0 0 0 0)
(0 -7.85126e-16 0 0 -9.55235e-15 0 0 0 0)
(0 -3.46277e-14 0 2.71051e-14 -6.8215e-15 0 0 0 0)
(0 -2.31194e-14 0 -2.71051e-14 -1.38556e-14 0 0 0 0)
(2.71051e-14 8.94131e-15 0 -2.71051e-14 -2.42166e-16 0 0 0 0)
(-2.71051e-14 1.83543e-14 0 -5.42101e-14 8.2225e-16 0 0 0 0)
(0 6.57828e-15 0 0 -1.04839e-14 0 0 0 0)
(2.71051e-14 9.49636e-15 0 0 -6.78067e-15 0 0 0 0)
(-2.71051e-14 -1.16135e-14 0 0 2.09524e-15 0 0 0 0)
(-2.71051e-14 -4.33125e-14 0 5.42101e-14 5.95442e-15 0 0 0 0)
(-2.71051e-14 -1.23177e-14 0 0 1.04275e-14 0 0 0 0)
(0 1.4276e-14 0 -2.71051e-14 1.07586e-14 0 0 0 0)
(0 6.64358e-15 0 0 1.05197e-14 0 0 0 0)
(-2.71051e-14 1.44069e-14 0 -2.71051e-14 1.39609e-14 0 0 0 0)
(-7.86047e-13 -7.99505e-12 0 -1.35525e-12 9.48775e-12 0 0 0 0)
(1.0571e-12 9.72438e-12 0 4.33681e-13 -1.93668e-12 0 0 0 0)
(-2.71051e-13 -2.11489e-12 0 5.42101e-14 4.75964e-13 0 0 0 0)
(-8.13152e-14 4.80322e-13 0 -2.71051e-14 -5.79517e-14 0 0 0 0)
(-1.0842e-13 -1.11602e-13 0 2.71051e-14 5.79876e-14 0 0 0 0)
(5.42101e-14 2.12071e-14 0 2.71051e-14 -1.13009e-14 0 0 0 0)
(5.42101e-14 6.18782e-16 0 0 -4.24426e-14 0 0 0 0)
(8.13152e-14 7.89416e-15 0 0 -4.90419e-14 0 0 0 0)
(0 -4.61487e-15 0 0 4.86414e-16 0 0 0 0)
(-5.42101e-14 6.37771e-16 0 -2.71051e-14 3.44985e-14 0 0 0 0)
(-2.71051e-14 5.41268e-15 0 -1.0842e-13 3.21395e-14 0 0 0 0)
(0 -1.17413e-14 0 -5.42101e-14 9.36783e-15 0 0 0 0)
(8.13152e-14 -1.00895e-14 0 -2.71051e-14 -1.66732e-14 0 0 0 0)
(0 8.68295e-15 0 -2.71051e-14 -2.25167e-14 0 0 0 0)
(2.71051e-14 5.33508e-15 0 -5.42101e-14 -3.94165e-14 0 0 0 0)
(2.71051e-14 -1.25382e-14 0 0 -8.93508e-15 0 0 0 0)
(-2.71051e-14 -8.99535e-15 0 -2.71051e-14 2.37629e-14 0 0 0 0)
(-2.71051e-14 7.21293e-16 0 0 1.15725e-14 0 0 0 0)
(0 8.30968e-15 0 -2.71051e-14 -3.09357e-16 0 0 0 0)
(0 6.00043e-15 0 0 4.01835e-15 0 0 0 0)
(1.89735e-13 9.74228e-12 0 1.73472e-12 7.0152e-12 0 0 0 0)
(-1.0842e-13 -1.17317e-11 0 -6.50521e-13 -1.59021e-12 0 0 0 0)
(2.71051e-14 2.49876e-12 0 -1.35525e-13 3.39202e-13 0 0 0 0)
(-5.42101e-14 -5.85705e-13 0 -8.13152e-14 -9.22478e-14 0 0 0 0)
(2.71051e-14 1.00544e-13 0 0 1.88325e-14 0 0 0 0)
(-2.71051e-14 -6.69182e-14 0 8.13152e-14 -3.49558e-16 0 0 0 0)
(0 -1.67707e-15 0 0 9.15455e-16 0 0 0 0)
(2.71051e-14 4.21439e-14 0 -5.42101e-14 -4.15322e-15 0 0 0 0)
(-2.71051e-14 4.89127e-14 0 -1.0842e-13 7.83452e-15 0 0 0 0)
(-5.42101e-14 8.53375e-15 0 0 1.03746e-14 0 0 0 0)
(0 -1.61893e-14 0 8.13152e-14 -1.04155e-14 0 0 0 0)
(2.71051e-14 -3.04585e-14 0 1.0842e-13 -6.68348e-15 0 0 0 0)
(2.71051e-14 -2.53062e-14 0 8.13152e-14 3.26465e-15 0 0 0 0)
(0 -1.32469e-14 0 2.71051e-14 4.7727e-15 0 0 0 0)
(-5.42101e-14 1.96812e-15 0 5.42101e-14 -5.00309e-15 0 0 0 0)
(0 1.98669e-14 0 0 6.72147e-16 0 0 0 0)
(0 8.18983e-15 0 -2.71051e-14 8.46528e-15 0 0 0 0)
(0 -9.79626e-15 0 2.71051e-14 4.08906e-15 0 0 0 0)
(0 -9.10547e-16 0 2.71051e-14 5.99285e-15 0 0 0 0)
(0 1.06979e-14 0 0 1.8813e-15 0 0 0 0)
(2.43945e-13 -2.57006e-12 0 -1.21973e-12 -2.26271e-11 0 0 0 0)
(-8.13152e-13 3.04838e-12 0 2.71051e-13 4.85419e-12 0 0 0 0)
(3.52366e-13 -6.16923e-13 0 -5.42101e-14 -1.15991e-12 0 0 0 0)
(8.13152e-14 1.59953e-13 0 -8.13152e-14 2.31302e-13 0 0 0 0)
(5.42101e-14 -1.97041e-14 0 -2.71051e-14 -8.23015e-14 0 0 0 0)
(2.71051e-14 3.29e-15 0 -8.13152e-14 1.22953e-14 0 0 0 0)
(-2.71051e-14 -3.18488e-15 0 0 1.32079e-14 0 0 0 0)
(-5.42101e-14 1.48132e-14 0 -8.13152e-14 9.28472e-15 0 0 0 0)
(5.42101e-14 9.91297e-15 0 -2.71051e-14 -3.55876e-14 0 0 0 0)
(8.13152e-14 -1.76123e-14 0 0 -5.83525e-14 0 0 0 0)
(5.42101e-14 -1.16454e-14 0 5.42101e-14 -5.51093e-14 0 0 0 0)
(5.42101e-14 1.93887e-15 0 0 -2.18303e-14 0 0 0 0)
(-2.71051e-14 1.36666e-15 0 -2.71051e-14 7.51568e-15 0 0 0 0)
(-2.71051e-14 4.15203e-16 0 0 1.36228e-14 0 0 0 0)
(0 1.23452e-15 0 -2.71051e-14 1.48583e-14 0 0 0 0)
(0 9.30142e-16 0 0 1.70942e-14 0 0 0 0)
(-2.71051e-14 -5.57843e-15 0 2.71051e-14 9.32685e-15 0 0 0 0)
(2.71051e-14 -1.75114e-15 0 0 9.15848e-15 0 0 0 0)
(-2.71051e-14 6.10191e-15 0 0 1.37656e-14 0 0 0 0)
(-2.71051e-14 -1.87372e-15 0 2.71051e-14 5.5356e-15 0 0 0 0)
(-7.04731e-13 -8.03066e-12 0 -4.87891e-13 2.0229e-11 0 0 0 0)
(1.0571e-12 9.73553e-12 0 3.79471e-13 -4.38951e-12 0 0 0 0)
(-4.06576e-13 -2.12413e-12 0 1.6263e-13 1.03385e-12 0 0 0 0)
(-8.13152e-14 4.91906e-13 0 1.35525e-13 -2.13997e-13 0 0 0 0)
(5.42101e-14 -1.18463e-13 0 1.0842e-13 3.36002e-14 0 0 0 0)
(0 2.85911e-14 0 5.42101e-14 -2.86998e-14 0 0 0 0)
(2.71051e-14 -4.68765e-15 0 1.0842e-13 -1.4448e-14 0 0 0 0)
(0 -6.65154e-15 0 8.13152e-14 -6.9814e-15 0 0 0 0)
(8.13152e-14 -1.87245e-14 0 1.0842e-13 -2.85561e-14 0 0 0 0)
(2.71051e-14 -1.0988e-14 0 2.71051e-14 -2.27486e-14 0 0 0 0)
(0 2.03328e-14 0 -2.71051e-14 -1.01666e-14 0 0 0 0)
(-2.71051e-14 3.21665e-14 0 -5.42101e-14 -2.03126e-15 0 0 0 0)
(0 1.01468e-14 0 0 1.05146e-14 0 0 0 0)
(-2.71051e-14 -5.90421e-15 0 -5.42101e-14 1.29704e-14 0 0 0 0)
(0 5.43953e-15 0 -8.13152e-14 4.11935e-15 0 0 0 0)
(2.71051e-14 1.43354e-14 0 -1.0842e-13 -6.86469e-16 0 0 0 0)
(-2.71051e-14 2.54138e-16 0 0 1.04988e-15 0 0 0 0)
(0 -5.35753e-15 0 -2.71051e-14 3.91058e-15 0 0 0 0)
(0 -4.53342e-15 0 0 4.66279e-15 0 0 0 0)
(0 -8.60325e-15 0 0 -2.29126e-16 0 0 0 0)
(1.35525e-13 1.32695e-11 0 1.87025e-12 -3.21893e-12 0 0 0 0)
(-1.89735e-13 -1.61468e-11 0 -5.69206e-13 7.37225e-13 0 0 0 0)
(1.0842e-13 3.55859e-12 0 2.71051e-14 -1.74411e-13 0 0 0 0)
(8.13152e-14 -8.40295e-13 0 8.13152e-14 2.37788e-14 0 0 0 0)
(-2.71051e-14 1.65593e-13 0 5.42101e-14 -8.23173e-15 0 0 0 0)
(2.71051e-14 -4.47582e-14 0 8.13152e-14 1.41035e-15 0 0 0 0)
(-2.71051e-14 1.85335e-14 0 0 1.08162e-14 0 0 0 0)
(-5.42101e-14 7.0508e-16 0 5.42101e-14 1.68872e-14 0 0 0 0)
(0 -5.85421e-15 0 2.71051e-14 1.85361e-14 0 0 0 0)
(-5.42101e-14 7.77289e-16 0 0 3.47649e-14 0 0 0 0)
(0 9.0719e-15 0 -2.71051e-14 3.62248e-14 0 0 0 0)
(2.71051e-14 2.262e-14 0 -5.42101e-14 -2.77589e-16 0 0 0 0)
(0 1.63684e-14 0 -5.42101e-14 -4.38762e-15 0 0 0 0)
(-2.71051e-14 -5.98001e-15 0 0 3.09087e-15 0 0 0 0)
(-8.13152e-14 -1.24224e-14 0 0 5.79493e-15 0 0 0 0)
(2.71051e-14 -2.13933e-15 0 0 -1.82682e-14 0 0 0 0)
(5.42101e-14 -9.81385e-16 0 0 -2.00971e-14 0 0 0 0)
(2.71051e-14 1.86177e-15 0 0 -5.66329e-15 0 0 0 0)
(0 1.96221e-15 0 0 6.14822e-15 0 0 0 0)
(-2.71051e-14 -6.30738e-15 0 0 2.34505e-15 0 0 0 0)
(5.96311e-13 -1.05124e-11 0 -4.60786e-13 -1.15712e-11 0 0 0 0)
(-8.13152e-13 1.27801e-11 0 3.79471e-13 2.60355e-12 0 0 0 0)
(2.71051e-13 -2.83758e-12 0 8.13152e-14 -6.17428e-13 0 0 0 0)
(0 6.58085e-13 0 -2.71051e-14 1.13673e-13 0 0 0 0)
(0 -1.40831e-13 0 -2.71051e-14 -3.1693e-14 0 0 0 0)
(0 4.7639e-14 0 -2.71051e-14 2.33366e-14 0 0 0 0)
(-5.42101e-14 1.07892e-14 0 -5.42101e-14 2.12371e-14 0 0 0 0)
(5.42101e-14 1.06837e-15 0 -5.42101e-14 2.18169e-16 0 0 0 0)
(0 -8.46757e-16 0 0 3.57163e-15 0 0 0 0)
(0 6.70074e-15 0 0 1.66493e-14 0 0 0 0)
(-5.42101e-14 -1.47097e-14 0 5.42101e-14 2.87465e-14 0 0 0 0)
(-5.42101e-14 -8.44594e-15 0 8.13152e-14 1.02966e-14 0 0 0 0)
(0 1.35153e-14 0 2.71051e-14 -5.09334e-15 0 0 0 0)
(5.42101e-14 4.27834e-15 0 5.42101e-14 -4.91269e-15 0 0 0 0)
(0 -1.59195e-14 0 5.42101e-14 6.71172e-15 0 0 0 0)
(2.71051e-14 -1.15567e-14 0 5.42101e-14 1.85438e-15 0 0 0 0)
(0 1.2859e-14 0 -2.71051e-14 -1.32559e-15 0 0 0 0)
(-2.71051e-14 2.08878e-14 0 -5.42101e-14 5.82163e-16 0 0 0 0)
(0 3.47491e-15 0 -8.13152e-14 -3.95522e-15 0 0 0 0)
(0 -1.70965e-14 0 -2.71051e-14 -2.30314e-15 0 0 0 0)
(2.71051e-14 4.30176e-12 0 -2.03288e-12 1.73478e-11 0 0 0 0)
(4.33681e-13 -5.19299e-12 0 2.98156e-13 -3.85023e-12 0 0 0 0)
(-2.98156e-13 1.06872e-12 0 -2.1684e-13 9.33917e-13 0 0 0 0)
(-1.0842e-13 -2.5456e-13 0 -2.71051e-14 -1.6499e-13 0 0 0 0)
(-2.71051e-14 7.52566e-14 0 -1.35525e-13 8.68385e-14 0 0 0 0)
(-8.13152e-14 8.17193e-15 0 -1.35525e-13 2.81907e-14 0 0 0 0)
(0 -4.58489e-15 0 -1.35525e-13 1.77323e-14 0 0 0 0)
(5.42101e-14 -1.69604e-14 0 -8.13152e-14 -1.83658e-14 0 0 0 0)
(2.71051e-14 1.05769e-14 0 -1.89735e-13 -1.80393e-14 0 0 0 0)
(0 2.59521e-14 0 -1.0842e-13 -2.75317e-14 0 0 0 0)
(2.71051e-14 2.71924e-15 0 -1.35525e-13 -2.77724e-14 0 0 0 0)
(2.71051e-14 -1.12198e-14 0 -8.13152e-14 -5.84053e-15 0 0 0 0)
(-2.71051e-14 1.15906e-15 0 -2.71051e-14 -8.49994e-15 0 0 0 0)
(0 5.82504e-15 0 -1.0842e-13 -3.48027e-15 0 0 0 0)
(-5.42101e-14 -5.65532e-15 0 -5.42101e-14 1.79201e-14 0 0 0 0)
(-5.42101e-14 -1.01766e-14 0 0 2.77249e-14 0 0 0 0)
(-2.71051e-14 -2.2536e-15 0 -5.42101e-14 7.63363e-15 0 0 0 0)
(0 -7.67863e-16 0 0 -1.47951e-14 0 0 0 0)
(8.13152e-14 -9.23093e-16 0 0 -2.28799e-14 0 0 0 0)
(0 -4.90284e-17 0 0 -1.07477e-14 0 0 0 0)
(-1.11131e-12 2.98517e-12 0 1.57209e-12 -1.60876e-11 0 0 0 0)
(9.21572e-13 -3.63379e-12 0 -5.42101e-13 3.40876e-12 0 0 0 0)
(-2.71051e-14 8.47661e-13 0 0 -7.82355e-13 0 0 0 0)
(1.35525e-13 -1.88994e-13 0 -2.71051e-14 2.06433e-13 0 0 0 0)
(-1.0842e-13 5.2349e-14 0 0 -4.39799e-15 0 0 0 0)
(0 -2.14671e-14 0 2.71051e-14 1.62609e-14 0 0 0 0)
(-2.71051e-14 -3.57673e-14 0 5.42101e-14 -9.36674e-15 0 0 0 0)
(2.71051e-14 -3.47033e-14 0 2.71051e-14 4.74848e-16 0 0 0 0)
(-2.71051e-14 -1.00126e-14 0 5.42101e-14 5.85484e-15 0 0 0 0)
(0 -3.03237e-15 0 0 -1.48689e-14 0 0 0 0)
(2.71051e-14 6.98142e-15 0 0 -2.9054e-14 0 0 0 0)
(5.42101e-14 1.08266e-14 0 -2.71051e-14 -1.53796e-14 0 0 0 0)
(0 1.58756e-14 0 -5.42101e-14 -8.66523e-15 0 0 0 0)
(5.42101e-14 3.06984e-14 0 -2.71051e-14 -1.74591e-14 0 0 0 0)
(2.71051e-14 1.52857e-14 0 0 -1.93672e-14 0 0 0 0)
(5.42101e-14 -2.18431e-14 0 0 -1.14616e-14 0 0 0 0)
(0 -2.9661e-14 0 1.0842e-13 -9.81205e-15 0 0 0 0)
(0 -9.62576e-15 0 5.42101e-14 -5.87278e-16 0 0 0 0)
(0 7.52235e-15 0 8.13152e-14 5.83463e-15 0 0 0 0)
(0 1.65311e-14 0 2.71051e-14 -2.90479e-15 0 0 0 0)
(1.0571e-12 -8.37704e-12 0 1.35525e-13 8.0554e-12 0 0 0 0)
(-1.11131e-12 1.01122e-11 0 1.6263e-13 -1.67697e-12 0 0 0 0)
(1.6263e-13 -2.13361e-12 0 1.35525e-13 3.75854e-13 0 0 0 0)
(-1.0842e-13 5.23397e-13 0 -5.42101e-14 -8.38499e-14 0 0 0 0)
(5.42101e-14 -1.14916e-13 0 8.13152e-14 1.44272e-14 0 0 0 0)
(-2.71051e-14 3.20318e-15 0 5.42101e-14 -1.54779e-14 0 0 0 0)
(2.71051e-14 -2.03709e-14 0 8.13152e-14 -1.1165e-14 0 0 0 0)
(0 -1.73881e-15 0 5.42101e-14 6.22881e-15 0 0 0 0)
(0 -4.76681e-15 0 8.13152e-14 9.79535e-15 0 0 0 0)
(0 -8.95666e-15 0 8.13152e-14 1.53164e-14 0 0 0 0)
(-2.71051e-14 2.20849e-15 0 8.13152e-14 2.25034e-14 0 0 0 0)
(-2.71051e-14 9.16892e-15 0 2.71051e-14 2.27266e-14 0 0 0 0)
(-5.42101e-14 -9.20382e-16 0 0 2.16268e-14 0 0 0 0)
(0 -4.87697e-15 0 2.71051e-14 -7.66121e-15 0 0 0 0)
(5.42101e-14 3.42192e-16 0 0 -4.64512e-14 0 0 0 0)
(5.42101e-14 -6.2144e-16 0 0 -4.00376e-14 0 0 0 0)
(0 8.62068e-15 0 0 -3.35605e-15 0 0 0 0)
(-2.71051e-14 1.48788e-14 0 -5.42101e-14 1.91396e-14 0 0 0 0)
(0 -3.24061e-15 0 0 2.39061e-14 0 0 0 0)
(-2.71051e-14 -2.97887e-15 0 0 7.63442e-15 0 0 0 0)
(-8.40257e-13 9.3636e-12 0 2.71051e-14 3.93501e-12 0 0 0 0)
(9.48677e-13 -1.13133e-11 0 -2.1684e-13 -7.87254e-13 0 0 0 0)
(-2.43945e-13 2.44078e-12 0 -1.89735e-13 1.99245e-13 0 0 0 0)
(8.13152e-14 -5.50421e-13 0 0 -4.79765e-14 0 0 0 0)
(-2.71051e-14 1.20721e-13 0 -5.42101e-14 -6.45918e-15 0 0 0 0)
(2.71051e-14 -4.70593e-14 0 0 -1.36584e-14 0 0 0 0)
(0 -1.40606e-14 0 0 -3.68941e-15 0 0 0 0)
(0 -1.3743e-14 0 0 -5.70402e-15 0 0 0 0)
(0 -9.24969e-16 0 2.71051e-14 -9.18495e-15 0 0 0 0)
(-2.71051e-14 9.67573e-15 0 0 4.64044e-15 0 0 0 0)
(0 1.43915e-14 0 0 1.47143e-14 0 0 0 0)
(0 9.94988e-15 0 5.42101e-14 8.3425e-15 0 0 0 0)
(0 -1.45122e-14 0 5.42101e-14 -6.36721e-15 0 0 0 0)
(2.71051e-14 -3.73796e-14 0 5.42101e-14 -7.935e-15 0 0 0 0)
(0 -1.70907e-14 0 5.42101e-14 -6.04269e-15 0 0 0 0)
(5.42101e-14 2.1252e-14 0 2.71051e-14 6.25146e-15 0 0 0 0)
(-5.42101e-14 2.95161e-14 0 -5.42101e-14 1.54914e-14 0 0 0 0)
(0 1.76364e-14 0 -2.71051e-14 -9.04446e-16 0 0 0 0)
(5.42101e-14 -3.98279e-15 0 -8.13152e-14 -1.04678e-14 0 0 0 0)
(0 -1.50094e-14 0 -2.71051e-14 2.71468e-16 0 0 0 0)
(8.40257e-13 -5.22928e-12 0 -6.50521e-13 -1.50772e-11 0 0 0 0)
(-1.24683e-12 6.37645e-12 0 3.52366e-13 3.18887e-12 0 0 0 0)
(3.52366e-13 -1.39433e-12 0 1.35525e-13 -7.30839e-13 0 0 0 0)
(0 3.17693e-13 0 1.0842e-13 1.57314e-13 0 0 0 0)
(5.42101e-14 -8.05978e-14 0 5.42101e-14 -5.58615e-14 0 0 0 0)
(0 5.97296e-15 0 2.71051e-14 -1.16239e-14 0 0 0 0)
(2.71051e-14 -1.24165e-14 0 0 -1.32103e-14 0 0 0 0)
(2.71051e-14 -7.23435e-15 0 2.71051e-14 2.3488e-16 0 0 0 0)
(0 5.57766e-15 0 0 7.1199e-15 0 0 0 0)
(0 1.49426e-14 0 0 9.80528e-15 0 0 0 0)
(0 5.91054e-15 0 -5.42101e-14 -3.61415e-16 0 0 0 0)
(0 -1.19126e-14 0 0 -1.68092e-14 0 0 0 0)
(2.71051e-14 -1.71979e-14 0 5.42101e-14 -2.54464e-14 0 0 0 0)
(0 -4.55244e-15 0 5.42101e-14 -9.08011e-15 0 0 0 0)
(-2.71051e-14 1.45286e-14 0 5.42101e-14 1.8816e-14 0 0 0 0)
(-2.71051e-14 2.09126e-14 0 0 2.26902e-14 0 0 0 0)
(-2.71051e-14 1.46477e-15 0 2.71051e-14 1.18436e-14 0 0 0 0)
(-5.42101e-14 -1.10804e-14 0 8.13152e-14 -1.84626e-15 0 0 0 0)
(5.42101e-14 -2.06469e-15 0 5.42101e-14 -1.73364e-14 0 0 0 0)
(0 7.21748e-15 0 2.71051e-14 -4.98908e-15 0 0 0 0)
(-1.16552e-12 -2.52469e-12 0 -1.30104e-12 1.71727e-11 0 0 0 0)
(1.70762e-12 3.03298e-12 0 3.52366e-13 -3.70176e-12 0 0 0 0)
(-4.87891e-13 -5.9078e-13 0 0 8.77708e-13 0 0 0 0)
(2.71051e-14 1.24557e-13 0 0 -1.75741e-13 0 0 0 0)
(-2.71051e-14 -4.82173e-14 0 2.71051e-14 5.08813e-14 0 0 0 0)
(-2.71051e-14 -4.40814e-15 0 0 2.14548e-15 0 0 0 0)
(-2.71051e-14 -2.20185e-15 0 5.42101e-14 1.50912e-14 0 0 0 0)
(0 6.58725e-15 0 -2.71051e-14 1.87785e-14 0 0 0 0)
(-5.42101e-14 8.64544e-15 0 -2.71051e-14 1.90621e-14 0 0 0 0)
(-2.71051e-14 2.19441e-15 0 -5.42101e-14 9.47428e-15 0 0 0 0)
(0 -1.2223e-14 0 5.42101e-14 -8.28082e-15 0 0 0 0)
(8.13152e-14 -1.51351e-14 0 0 -2.28341e-14 0 0 0 0)
(2.71051e-14 -6.78309e-15 0 -2.71051e-14 -1.46491e-14 0 0 0 0)
(0 6.88289e-15 0 -2.71051e-14 8.19871e-15 0 0 0 0)
(-2.71051e-14 1.46796e-14 0 -5.42101e-14 1.45517e-14 0 0 0 0)
(2.71051e-14 1.42796e-14 0 -2.71051e-14 -1.65033e-15 0 0 0 0)
(2.71051e-14 4.97968e-15 0 0 -4.88485e-15 0 0 0 0)
(-2.71051e-14 -1.15436e-14 0 2.71051e-14 1.02175e-14 0 0 0 0)
(0 -7.12562e-15 0 0 9.28371e-15 0 0 0 0)
(-2.71051e-14 7.31603e-15 0 0 4.02248e-15 0 0 0 0)
(-8.13152e-14 8.24164e-12 0 3.90313e-12 -8.73554e-13 0 0 0 0)
(0 -9.91853e-12 0 -1.19262e-12 2.19344e-13 0 0 0 0)
(2.71051e-14 2.13169e-12 0 0 -8.56778e-14 0 0 0 0)
(5.42101e-14 -5.09133e-13 0 -1.35525e-13 -1.29928e-14 0 0 0 0)
(0 9.72888e-14 0 -2.71051e-14 -1.19746e-14 0 0 0 0)
(2.71051e-14 -2.98171e-14 0 -2.71051e-14 -1.29811e-15 0 0 0 0)
(2.71051e-14 4.21653e-15 0 -5.42101e-14 4.00672e-15 0 0 0 0)
(-2.71051e-14 -3.26344e-15 0 -5.42101e-14 7.06933e-15 0 0 0 0)
(-2.71051e-14 -3.72661e-15 0 0 2.41906e-15 0 0 0 0)
(5.42101e-14 -1.24004e-14 0 5.42101e-14 -9.45297e-15 0 0 0 0)
(0 -2.63978e-14 0 5.42101e-14 -1.75615e-14 0 0 0 0)
(-2.71051e-14 -1.82809e-14 0 2.71051e-14 -8.83507e-15 0 0 0 0)
(0 1.38349e-14 0 -2.71051e-14 6.10857e-15 0 0 0 0)
(0 2.46484e-14 0 -8.13152e-14 1.208e-14 0 0 0 0)
(0 4.6796e-15 0 -5.42101e-14 2.96602e-15 0 0 0 0)
(-2.71051e-14 1.47602e-15 0 0 1.35162e-15 0 0 0 0)
(0 1.33326e-14 0 -8.13152e-14 -3.05555e-15 0 0 0 0)
(0 3.0882e-15 0 -8.13152e-14 6.84421e-16 0 0 0 0)
(0 -8.25972e-15 0 -5.42101e-14 4.82862e-15 0 0 0 0)
(0 -6.08871e-15 0 -2.71051e-14 3.80891e-16 0 0 0 0)
(1.5992e-12 -3.1789e-12 0 -1.00289e-12 -1.86987e-11 0 0 0 0)
(-2.22261e-12 3.82086e-12 0 4.06576e-13 3.96032e-12 0 0 0 0)
(5.69206e-13 -8.23116e-13 0 1.0842e-13 -9.6435e-13 0 0 0 0)
(-2.71051e-14 1.9826e-13 0 1.0842e-13 1.81409e-13 0 0 0 0)
(2.71051e-14 -3.65227e-14 0 5.42101e-14 -5.54308e-14 0 0 0 0)
(-2.71051e-14 1.15732e-14 0 5.42101e-14 1.47152e-15 0 0 0 0)
(0 6.16559e-15 0 5.42101e-14 -1.51804e-14 0 0 0 0)
(2.71051e-14 4.99959e-15 0 1.0842e-13 -1.30009e-14 0 0 0 0)
(0 -7.87687e-15 0 5.42101e-14 -1.08294e-14 0 0 0 0)
(0 -1.77861e-14 0 5.42101e-14 -1.66173e-14 0 0 0 0)
(5.42101e-14 -1.16051e-14 0 0 -1.647e-14 0 0 0 0)
(0 8.53493e-15 0 2.71051e-14 9.35952e-15 0 0 0 0)
(-5.42101e-14 1.4132e-14 0 2.71051e-14 2.56736e-14 0 0 0 0)
(-2.71051e-14 3.74034e-15 0 5.42101e-14 2.47056e-15 0 0 0 0)
(2.71051e-14 3.95116e-15 0 5.42101e-14 -1.43284e-14 0 0 0 0)
(0 8.25801e-15 0 -5.42101e-14 -1.75327e-15 0 0 0 0)
(0 4.31248e-15 0 5.42101e-14 -3.48964e-16 0 0 0 0)
(0 -3.65943e-15 0 5.42101e-14 -8.52267e-15 0 0 0 0)
(5.42101e-14 -7.42915e-15 0 5.42101e-14 -5.48929e-15 0 0 0 0)
(0 2.10652e-15 0 2.71051e-14 -3.69812e-15 0 0 0 0)
(-6.77626e-13 -6.4967e-12 0 -1.16552e-12 1.22666e-11 0 0 0 0)
(1.13841e-12 7.81579e-12 0 2.71051e-13 -2.59098e-12 0 0 0 0)
(-2.71051e-13 -1.64722e-12 0 -1.0842e-13 6.2993e-13 0 0 0 0)
(-5.42101e-14 3.99786e-13 0 -2.71051e-14 -1.20636e-13 0 0 0 0)
(2.71051e-14 -8.26489e-14 0 -5.42101e-14 3.18829e-14 0 0 0 0)
(2.71051e-14 1.04333e-14 0 -5.42101e-14 -1.46474e-15 0 0 0 0)
(0 -1.02559e-14 0 -5.42101e-14 9.87639e-15 0 0 0 0)
(0 1.08761e-15 0 -5.42101e-14 2.62558e-15 0 0 0 0)
(-2.71051e-14 -7.34294e-15 0 -5.42101e-14 3.78919e-15 0 0 0 0)
(-2.71051e-14 -1.80409e-14 0 -5.42101e-14 1.78454e-14 0 0 0 0)
(-5.42101e-14 -4.21053e-16 0 -5.42101e-14 3.96163e-14 0 0 0 0)
(-2.71051e-14 2.38627e-14 0 -5.42101e-14 2.98715e-14 0 0 0 0)
(0 6.94596e-15 0 -2.71051e-14 7.21865e-15 0 0 0 0)
(0 -1.53536e-14 0 0 8.79353e-15 0 0 0 0)
(-5.42101e-14 4.55777e-16 0 0 1.88319e-14 0 0 0 0)
(0 1.54555e-14 0 5.42101e-14 4.38659e-15 0 0 0 0)
(0 6.56321e-15 0 0 -4.88154e-15 0 0 0 0)
(0 -2.05213e-15 0 0 -6.48911e-15 0 0 0 0)
(2.71051e-14 -3.43517e-15 0 0 8.30015e-16 0 0 0 0)
(-2.71051e-14 3.0987e-15 0 -2.71051e-14 4.37521e-15 0 0 0 0)
)
;

boundaryField
{
    movingWall
    {
        type            extrapolatedCalculated;
        value           nonuniform List<tensor> 
20
(
(-6.77626e-13 -6.4967e-12 0 4.17444e-12 3.29274e-11 0 0 0 0)
(1.13841e-12 7.81579e-12 0 -1.5099e-12 -6.94062e-12 0 0 0 0)
(-2.71051e-13 -1.64722e-12 0 -3.9968e-13 1.66428e-12 0 0 0 0)
(-5.42101e-14 3.99786e-13 0 -3.10862e-13 -3.51724e-13 0 0 0 0)
(2.71051e-14 -8.26489e-14 0 -2.66454e-13 6.51319e-14 0 0 0 0)
(2.71051e-14 1.04333e-14 0 -3.55271e-13 -2.1128e-14 0 0 0 0)
(0 -1.02559e-14 0 -3.55271e-13 2.33986e-14 0 0 0 0)
(0 1.08761e-15 0 -3.9968e-13 1.98956e-14 0 0 0 0)
(-2.71051e-14 -7.34294e-15 0 -3.10862e-13 1.90482e-14 0 0 0 0)
(-2.71051e-14 -1.80409e-14 0 -3.10862e-13 4.92674e-14 0 0 0 0)
(-5.42101e-14 -4.21053e-16 0 -2.22045e-13 9.12119e-14 0 0 0 0)
(-2.71051e-14 2.38627e-14 0 -1.33227e-13 5.09516e-14 0 0 0 0)
(0 6.94596e-15 0 -8.88178e-14 -4.23884e-15 0 0 0 0)
(0 -1.53536e-14 0 -8.88178e-14 2.31678e-14 0 0 0 0)
(-5.42101e-14 4.55777e-16 0 -8.88178e-14 5.71757e-14 0 0 0 0)
(0 1.54555e-14 0 8.88178e-14 2.13447e-14 0 0 0 0)
(0 6.56321e-15 0 -4.44089e-14 -4.64621e-15 0 0 0 0)
(0 -2.05213e-15 0 0 -4.90818e-15 0 0 0 0)
(2.71051e-14 -3.43517e-15 0 0 3.56231e-15 0 0 0 0)
(-2.71051e-14 3.0987e-15 0 -4.44089e-14 8.83248e-15 0 0 0 0)
)
;
    }
    fixedWalls
    {
        type            extrapolatedCalculated;
        value           nonuniform List<tensor> 
60
(
(-6.30607e-12 5.73383e-11 0 7.58942e-13 1.66866e-11 0 0 0 0)
(9.32587e-12 9.40791e-12 0 2.00577e-12 -2.67722e-11 0 0 0 0)
(1.68754e-12 -4.97503e-11 0 -4.58075e-12 3.60786e-12 0 0 0 0)
(-8.9706e-12 2.38393e-11 0 1.11131e-12 1.53087e-11 0 0 0 0)
(6.08402e-12 1.14846e-11 0 1.13841e-12 -1.61861e-11 0 0 0 0)
(-4.35207e-12 -4.09053e-11 0 -1.35525e-12 9.48775e-12 0 0 0 0)
(6.66134e-13 4.94356e-11 0 1.73472e-12 7.0152e-12 0 0 0 0)
(2.57572e-12 -1.28445e-11 0 -1.21973e-12 -2.26271e-11 0 0 0 0)
(-4.17444e-12 -4.10729e-11 0 -4.87891e-13 2.0229e-11 0 0 0 0)
(6.66134e-13 6.80717e-11 0 1.87025e-12 -3.21893e-12 0 0 0 0)
(3.28626e-12 -5.39487e-11 0 -4.60786e-13 -1.15712e-11 0 0 0 0)
(-1.24345e-12 2.17867e-11 0 -2.03288e-12 1.73478e-11 0 0 0 0)
(-4.70735e-12 1.54424e-11 0 1.57209e-12 -1.60876e-11 0 0 0 0)
(4.92939e-12 -4.25635e-11 0 1.35525e-13 8.0554e-12 0 0 0 0)
(-4.08562e-12 4.7664e-11 0 2.71051e-14 3.93501e-12 0 0 0 0)
(5.01821e-12 -2.68235e-11 0 -6.50521e-13 -1.50772e-11 0 0 0 0)
(-6.83897e-12 -1.26447e-11 0 -1.30104e-12 1.71727e-11 0 0 0 0)
(-8.88178e-14 4.18673e-11 0 3.90313e-12 -8.73554e-13 0 0 0 0)
(8.83738e-12 -1.61389e-11 0 -1.00289e-12 -1.86987e-11 0 0 0 0)
(-4.17444e-12 -3.29274e-11 0 -1.16552e-12 1.22666e-11 0 0 0 0)
(0 7.84205e-15 0 0 -2.2159e-15 0 0 0 0)
(0 1.02155e-15 0 -5.42101e-14 -2.38541e-15 0 0 0 0)
(8.88178e-14 1.73837e-14 0 5.42101e-14 -1.29537e-14 0 0 0 0)
(-4.44089e-14 5.28364e-14 0 2.71051e-14 -1.9987e-15 0 0 0 0)
(0 2.53785e-14 0 -2.71051e-14 1.39609e-14 0 0 0 0)
(0 -3.00724e-15 0 0 4.01835e-15 0 0 0 0)
(0 9.30511e-15 0 0 1.8813e-15 0 0 0 0)
(-4.44089e-14 -1.05324e-14 0 2.71051e-14 5.5356e-15 0 0 0 0)
(-4.44089e-14 -1.28373e-14 0 0 -2.29126e-16 0 0 0 0)
(-4.44089e-14 -9.61592e-15 0 0 2.34505e-15 0 0 0 0)
(-4.44089e-14 -2.22175e-14 0 -2.71051e-14 -2.30314e-15 0 0 0 0)
(0 -4.03365e-16 0 0 -1.07477e-14 0 0 0 0)
(0 2.07733e-14 0 2.71051e-14 -2.90479e-15 0 0 0 0)
(-4.44089e-14 1.12158e-14 0 0 7.63442e-15 0 0 0 0)
(0 -9.76441e-15 0 -2.71051e-14 2.71468e-16 0 0 0 0)
(0 1.01299e-14 0 2.71051e-14 -4.98908e-15 0 0 0 0)
(-4.44089e-14 1.01919e-14 0 0 4.02248e-15 0 0 0 0)
(0 -5.95999e-15 0 -2.71051e-14 3.80891e-16 0 0 0 0)
(0 8.66835e-15 0 2.71051e-14 -3.69812e-15 0 0 0 0)
(-4.44089e-14 8.83248e-15 0 -2.71051e-14 4.37521e-15 0 0 0 0)
(-1.0571e-12 1.12546e-11 0 -6.30607e-12 5.73383e-11 0 0 0 0)
(1.65341e-12 -1.36037e-11 0 2.13163e-12 -1.23197e-11 0 0 0 0)
(-4.60786e-13 2.93347e-12 0 2.22045e-13 2.9233e-12 0 0 0 0)
(0 -6.82125e-13 0 3.10862e-13 -5.85821e-13 0 0 0 0)
(0 1.57218e-13 0 2.22045e-13 1.948e-13 0 0 0 0)
(-2.71051e-14 -3.20431e-14 0 2.66454e-13 4.30512e-14 0 0 0 0)
(-5.42101e-14 -5.92197e-15 0 1.77636e-13 6.6628e-14 0 0 0 0)
(0 -1.80538e-14 0 8.88178e-14 1.93634e-14 0 0 0 0)
(2.71051e-14 -5.86238e-15 0 1.77636e-13 -5.58741e-15 0 0 0 0)
(-2.71051e-14 4.43124e-15 0 1.33227e-13 -4.08615e-15 0 0 0 0)
(2.71051e-14 4.82976e-15 0 1.77636e-13 1.21376e-14 0 0 0 0)
(0 5.02129e-15 0 2.22045e-13 1.52329e-14 0 0 0 0)
(-2.71051e-14 4.11593e-15 0 1.77636e-13 3.22227e-14 0 0 0 0)
(0 6.4053e-16 0 1.33227e-13 3.16966e-14 0 0 0 0)
(0 -2.99207e-15 0 1.33227e-13 3.47848e-14 0 0 0 0)
(-5.42101e-14 -3.05643e-15 0 0 1.97283e-14 0 0 0 0)
(2.71051e-14 -2.5918e-15 0 4.44089e-14 2.25591e-14 0 0 0 0)
(0 -5.35631e-15 0 4.44089e-14 9.36112e-15 0 0 0 0)
(-2.71051e-14 -4.30079e-15 0 0 1.13387e-15 0 0 0 0)
(0 1.67704e-15 0 0 -7.84205e-15 0 0 0 0)
)
;
    }
    frontAndBack
    {
        type            empty;
    }
}


// ************************************************************************* //
