/*--------------------------------*- C++ -*----------------------------------*\
| =========                 |                                                 |
| \\      /  F ield         | OpenFOAM: The Open Source CFD Toolbox           |
|  \\    /   O peration     | Version:  2312                                  |
|   \\  /    A nd           | Website:  www.openfoam.com                      |
|    \\/     M anipulation  |                                                 |
\*---------------------------------------------------------------------------*/
FoamFile
{
    version     2.0;
    format      ascii;
    arch        "LSB;label=32;scalar=64";
    class       volScalarField;
    location    "9.125";
    object      Uy;
}
// * * * * * * * * * * * * * * * * * * * * * * * * * * * * * * * * * * * * * //

dimensions      [0 1 -1 0 0 0 0];

internalField   nonuniform List<scalar> 
400
(
1.43346e-13
-3.07993e-14
7.30825e-15
-1.46455e-15
4.87001e-16
1.07628e-16
1.6657e-16
4.84084e-17
-1.39685e-17
-1.02154e-17
3.03439e-17
3.80822e-17
8.05568e-17
7.92415e-17
8.69621e-17
4.93208e-17
5.63978e-17
2.34028e-17
2.83467e-18
-1.96051e-17
2.35198e-14
-5.03464e-15
1.27341e-15
-2.04524e-16
1.13478e-16
1.95619e-17
2.44022e-17
-5.13221e-17
-9.05467e-17
-1.24134e-16
-1.02219e-16
-2.20559e-18
8.60709e-17
1.40816e-16
8.02025e-17
-3.44032e-17
-3.60063e-17
1.08927e-17
3.14424e-17
-2.55387e-18
-1.24376e-13
2.67683e-14
-6.19906e-15
1.42665e-15
-2.52275e-16
3.81468e-17
-3.32924e-17
-2.59775e-17
4.39834e-17
1.07714e-16
6.03145e-17
7.73109e-19
-2.86414e-17
5.40982e-17
2.10483e-17
-4.65334e-17
-1.51674e-16
-1.71794e-16
-1.03849e-16
-4.34592e-17
5.95983e-14
-1.21521e-14
2.92066e-15
-5.65818e-16
7.90276e-17
-2.01551e-17
9.49705e-17
1.49465e-16
1.43068e-16
1.46348e-16
8.36523e-17
5.36966e-17
6.86566e-17
2.88307e-17
2.96946e-17
-4.51694e-17
-1.79011e-16
-1.83165e-16
-1.72719e-16
-1.32091e-16
2.87115e-14
-6.7993e-15
1.51246e-15
-5.99059e-16
-1.64839e-16
-6.01283e-17
1.7028e-16
3.00511e-16
1.62429e-16
-4.57658e-17
-6.87646e-17
4.36473e-17
1.14778e-16
1.0943e-16
2.09742e-16
-6.70474e-18
-2.23383e-16
-1.29882e-16
-8.0623e-17
-6.34462e-17
-1.02263e-13
2.23127e-14
-5.01938e-15
1.16378e-15
-2.1616e-16
4.77532e-17
-4.08869e-18
5.3941e-17
7.4853e-17
7.79231e-18
8.12307e-17
6.19191e-17
-3.61825e-17
-3.8976e-17
5.0647e-17
1.43748e-17
-7.47353e-17
-7.55787e-17
-6.75224e-17
7.51809e-18
1.23589e-13
-2.61661e-14
6.27209e-15
-1.17858e-15
4.15037e-16
-1.73137e-16
-2.54146e-16
-1.89908e-16
1.67293e-16
2.99219e-16
2.52631e-16
1.37326e-16
-5.19539e-17
-1.15737e-16
-1.84423e-16
-9.60556e-17
1.4246e-17
-1.41573e-17
-8.37166e-17
-2.32628e-17
-3.21112e-14
6.41053e-15
-1.62737e-15
2.41299e-16
-2.78342e-17
4.42576e-17
5.06586e-18
1.24088e-17
1.53198e-16
1.11539e-16
-2.29246e-17
-4.91565e-18
-3.53594e-18
8.75099e-18
6.16094e-19
2.10962e-17
9.91751e-18
-3.46881e-17
-7.5939e-18
2.63311e-17
-1.02682e-13
2.23757e-14
-5.32704e-15
1.13444e-15
-4.07978e-16
-5.0184e-17
-1.22067e-16
-9.70605e-17
-1.88582e-16
-2.84306e-16
-2.98462e-16
-8.09777e-17
2.32029e-17
2.04908e-17
-3.58392e-17
7.48861e-17
1.07515e-16
7.74275e-17
5.39393e-17
3.20932e-17
1.70179e-13
-3.74846e-14
8.71112e-15
-1.89867e-15
3.08168e-16
-2.4274e-16
-1.39414e-16
-5.74052e-17
-1.32363e-16
-1.15947e-16
-1.2459e-16
-2.52283e-17
1.0161e-16
1.38455e-16
4.18096e-17
1.42316e-17
2.04164e-17
4.41771e-18
3.9034e-17
2.40398e-17
-1.34872e-13
2.9748e-14
-7.07114e-15
1.37223e-15
-4.90295e-16
-3.60805e-17
-1.3905e-17
7.18112e-17
-3.22128e-18
6.33437e-17
6.37861e-17
-8.37536e-17
-2.06733e-17
5.13995e-17
2.21101e-17
-1.07796e-16
-9.34566e-17
2.07946e-17
1.15421e-16
5.55437e-17
5.44668e-14
-1.14491e-14
2.53684e-15
-7.6194e-16
-8.76238e-18
-9.37469e-18
7.29569e-17
-5.52236e-17
-9.66469e-17
5.05455e-17
1.62875e-16
7.77379e-17
5.06764e-17
8.93285e-17
1.08927e-16
3.27753e-17
7.1605e-18
1.02393e-17
-5.18129e-19
1.00841e-18
3.86059e-14
-8.75428e-15
2.26803e-15
-2.77664e-16
3.7809e-16
2.45826e-16
1.63418e-16
-1.11847e-16
-1.83615e-16
-2.11973e-16
-2.13938e-16
-1.42159e-16
-1.05673e-16
1.65969e-17
2.01311e-16
1.69454e-16
-1.71203e-17
-1.27157e-16
-1.13378e-16
-5.19332e-17
-1.06409e-13
2.26385e-14
-5.28671e-15
1.30239e-15
-5.27423e-17
1.53234e-16
-2.07104e-17
-5.04751e-17
-3.80985e-17
-9.81432e-17
-1.27665e-16
-7.60583e-17
-3.59759e-17
-8.52621e-17
-8.47456e-17
-8.18402e-17
-9.096e-17
4.36656e-18
5.78282e-17
-2.80395e-17
1.1916e-13
-2.55239e-14
6.02657e-15
-1.11616e-15
5.22362e-16
9.1047e-17
5.17685e-17
-4.95589e-17
-8.56611e-17
-5.88086e-17
1.10962e-17
8.51067e-17
1.10595e-16
-6.00152e-17
-2.63201e-16
-2.30922e-16
-5.06808e-17
6.4239e-17
1.25683e-16
2.4411e-17
-6.70587e-14
1.47659e-14
-3.29427e-15
8.22629e-16
-1.17334e-16
1.66501e-17
-5.76045e-17
-1.07515e-16
-1.29948e-16
-5.17387e-17
1.94781e-17
7.36669e-18
-9.9648e-17
-1.64612e-16
-1.45172e-16
-1.93256e-17
6.39536e-17
-4.67789e-18
-4.68499e-17
-2.53248e-17
-3.16116e-14
6.36478e-15
-1.28183e-15
4.56982e-16
-3.62532e-17
-2.51916e-17
-8.03346e-17
-4.72101e-17
-1.44621e-17
3.92442e-17
7.48202e-18
-8.29854e-17
-1.43869e-16
-1.50816e-16
-7.50405e-17
-4.02046e-18
6.77554e-17
4.57764e-17
-4.76806e-17
-2.54798e-17
1.04668e-13
-2.22517e-14
5.48281e-15
-9.34783e-16
3.91479e-16
3.81049e-17
9.33079e-17
8.02702e-17
6.06734e-17
4.30041e-17
-6.33301e-17
-2.20974e-16
-2.46139e-16
-8.2625e-17
3.45006e-19
-3.58289e-17
1.51052e-17
9.74972e-17
4.59871e-17
1.49e-17
-4.03472e-14
8.55822e-15
-2.1386e-15
3.27054e-16
-1.56e-16
-3.81727e-17
-4.02674e-17
2.34832e-17
9.7285e-18
-5.52855e-17
-1.68133e-16
-1.71336e-16
-8.27836e-17
-3.00159e-17
-4.53802e-17
9.49578e-18
3.71999e-17
5.26206e-17
6.05621e-19
-2.16709e-17
-8.23186e-14
1.73516e-14
-4.16069e-15
8.7931e-16
-1.6283e-16
5.28201e-17
-5.84965e-17
-4.9739e-17
-4.76204e-17
-1.23168e-16
-2.2803e-16
-1.27379e-16
1.05971e-17
-5.79194e-17
-1.42939e-16
-5.33616e-17
1.16155e-17
1.22705e-17
-8.90578e-18
-2.20812e-17
)
;

boundaryField
{
    movingWall
    {
        type            calculated;
        value           uniform -0;
    }
    fixedWalls
    {
        type            calculated;
        value           uniform -0;
    }
    frontAndBack
    {
        type            empty;
    }
}


// ************************************************************************* //
