/*--------------------------------*- C++ -*----------------------------------*\
| =========                 |                                                 |
| \\      /  F ield         | OpenFOAM: The Open Source CFD Toolbox           |
|  \\    /   O peration     | Version:  2312                                  |
|   \\  /    A nd           | Website:  www.openfoam.com                      |
|    \\/     M anipulation  |                                                 |
\*---------------------------------------------------------------------------*/
FoamFile
{
    version     2.0;
    format      ascii;
    arch        "LSB;label=32;scalar=64";
    class       volScalarField;
    location    "9.125";
    object      zeroGradient(epsilon);
}
// * * * * * * * * * * * * * * * * * * * * * * * * * * * * * * * * * * * * * //

dimensions      [0 2 -3 0 0 0 0];

internalField   nonuniform List<scalar> 
400
(
8.18476e-07
8.18476e-07
8.18475e-07
8.18476e-07
8.18474e-07
8.18476e-07
8.18473e-07
8.18475e-07
8.18473e-07
8.18475e-07
8.18473e-07
8.18474e-07
8.18473e-07
8.18474e-07
8.18473e-07
8.18473e-07
8.18473e-07
8.18473e-07
8.18473e-07
8.18473e-07
8.36399e-07
8.27778e-07
8.28512e-07
8.28816e-07
8.29426e-07
8.29736e-07
8.30346e-07
8.30666e-07
8.31274e-07
8.31604e-07
8.3221e-07
8.32552e-07
8.33155e-07
8.33508e-07
8.3411e-07
8.34472e-07
8.35073e-07
8.35445e-07
8.35747e-07
8.36235e-07
8.65551e-07
8.5637e-07
8.57165e-07
8.57494e-07
8.58151e-07
8.58483e-07
8.5914e-07
8.5948e-07
8.60133e-07
8.60482e-07
8.61131e-07
8.6149e-07
8.62134e-07
8.62503e-07
8.63143e-07
8.63521e-07
8.64157e-07
8.64544e-07
8.64862e-07
8.65373e-07
8.97416e-07
8.87784e-07
8.88618e-07
8.88963e-07
8.89653e-07
8.90001e-07
8.90689e-07
8.91046e-07
8.91731e-07
8.92097e-07
8.92778e-07
8.93155e-07
8.9383e-07
8.94217e-07
8.94888e-07
8.95285e-07
8.95952e-07
8.96358e-07
8.96692e-07
8.97228e-07
9.25415e-07
9.15377e-07
9.16246e-07
9.16605e-07
9.17323e-07
9.17686e-07
9.18404e-07
9.18775e-07
9.19489e-07
9.19871e-07
9.20579e-07
9.20972e-07
9.21676e-07
9.22079e-07
9.22778e-07
9.23192e-07
9.23887e-07
9.2431e-07
9.24658e-07
9.25217e-07
9.46706e-07
9.36355e-07
9.3725e-07
9.37621e-07
9.38362e-07
9.38736e-07
9.39475e-07
9.39859e-07
9.40594e-07
9.40988e-07
9.41719e-07
9.42124e-07
9.42849e-07
9.43265e-07
9.43986e-07
9.44413e-07
9.4513e-07
9.45566e-07
9.45924e-07
9.46501e-07
9.61414e-07
9.50843e-07
9.51757e-07
9.52135e-07
9.52892e-07
9.53274e-07
9.54029e-07
9.5442e-07
9.55171e-07
9.55573e-07
9.56319e-07
9.56733e-07
9.57474e-07
9.57899e-07
9.58634e-07
9.5907e-07
9.59802e-07
9.60248e-07
9.60614e-07
9.61203e-07
9.71055e-07
9.6034e-07
9.61267e-07
9.6165e-07
9.62417e-07
9.62804e-07
9.63569e-07
9.63966e-07
9.64727e-07
9.65134e-07
9.65891e-07
9.6631e-07
9.67061e-07
9.67491e-07
9.68237e-07
9.68679e-07
9.69421e-07
9.69872e-07
9.70243e-07
9.7084e-07
9.77362e-07
9.66553e-07
9.67487e-07
9.67874e-07
9.68647e-07
9.69038e-07
9.6981e-07
9.7021e-07
9.70978e-07
9.71389e-07
9.72152e-07
9.72575e-07
9.73332e-07
9.73767e-07
9.74519e-07
9.74965e-07
9.75713e-07
9.76168e-07
9.76543e-07
9.77145e-07
9.81731e-07
9.70856e-07
9.71796e-07
9.72185e-07
9.72963e-07
9.73355e-07
9.74132e-07
9.74534e-07
9.75307e-07
9.75721e-07
9.76488e-07
9.76913e-07
9.77675e-07
9.78113e-07
9.78869e-07
9.79318e-07
9.80071e-07
9.80529e-07
9.80906e-07
9.81512e-07
9.85111e-07
9.74186e-07
9.7513e-07
9.75521e-07
9.76302e-07
9.76697e-07
9.77477e-07
9.77882e-07
9.78658e-07
9.79073e-07
9.79844e-07
9.80272e-07
9.81037e-07
9.81476e-07
9.82237e-07
9.82687e-07
9.83444e-07
9.83904e-07
9.84282e-07
9.84891e-07
9.88095e-07
9.77125e-07
9.78073e-07
9.78465e-07
9.7925e-07
9.79646e-07
9.80429e-07
9.80835e-07
9.81614e-07
9.82032e-07
9.82806e-07
9.83235e-07
9.84003e-07
9.84445e-07
9.85208e-07
9.8566e-07
9.8642e-07
9.86882e-07
9.87262e-07
9.87873e-07
9.91026e-07
9.80013e-07
9.80964e-07
9.81358e-07
9.82146e-07
9.82544e-07
9.8333e-07
9.83738e-07
9.8452e-07
9.84939e-07
9.85716e-07
9.86147e-07
9.86918e-07
9.87361e-07
9.88128e-07
9.88582e-07
9.89344e-07
9.89808e-07
9.9019e-07
9.90803e-07
9.94095e-07
9.83037e-07
9.83992e-07
9.84388e-07
9.85179e-07
9.85578e-07
9.86368e-07
9.86777e-07
9.87563e-07
9.87983e-07
9.88763e-07
9.89196e-07
9.89971e-07
9.90416e-07
9.91185e-07
9.91641e-07
9.92407e-07
9.92873e-07
9.93256e-07
9.93872e-07
9.97378e-07
9.86271e-07
9.87231e-07
9.87628e-07
9.88422e-07
9.88823e-07
9.89616e-07
9.90027e-07
9.90816e-07
9.91239e-07
9.92023e-07
9.92457e-07
9.93235e-07
9.93682e-07
9.94455e-07
9.94913e-07
9.95682e-07
9.9615e-07
9.96534e-07
9.97153e-07
1.00084e-06
9.89677e-07
9.90642e-07
9.91041e-07
9.91839e-07
9.92242e-07
9.93039e-07
9.93451e-07
9.94244e-07
9.94668e-07
9.95456e-07
9.95892e-07
9.96674e-07
9.97123e-07
9.97899e-07
9.98359e-07
9.99132e-07
9.99602e-07
9.99988e-07
1.00061e-06
1.0043e-06
9.93089e-07
9.94058e-07
9.94459e-07
9.95261e-07
9.95665e-07
9.96466e-07
9.96881e-07
9.97677e-07
9.98103e-07
9.98894e-07
9.99332e-07
1.00012e-06
1.00057e-06
1.00135e-06
1.00181e-06
1.00259e-06
1.00306e-06
1.00345e-06
1.00407e-06
1.00746e-06
9.96205e-07
9.97177e-07
9.97579e-07
9.98384e-07
9.9879e-07
9.99594e-07
1.00001e-06
1.00081e-06
1.00124e-06
1.00203e-06
1.00247e-06
1.00326e-06
1.00371e-06
1.0045e-06
1.00496e-06
1.00574e-06
1.00621e-06
1.0066e-06
1.00723e-06
1.0099e-06
9.98827e-07
9.99767e-07
1.00016e-06
1.00094e-06
1.00134e-06
1.00212e-06
1.00253e-06
1.00331e-06
1.00373e-06
1.00451e-06
1.00495e-06
1.00572e-06
1.00618e-06
1.00695e-06
1.00742e-06
1.00818e-06
1.00867e-06
1.00905e-06
1.00968e-06
1.01103e-06
1.01103e-06
1.01103e-06
1.01103e-06
1.01103e-06
1.01103e-06
1.01103e-06
1.01103e-06
1.01103e-06
1.01103e-06
1.01103e-06
1.01103e-06
1.01103e-06
1.01103e-06
1.01103e-06
1.01103e-06
1.01103e-06
1.01103e-06
1.01103e-06
1.01103e-06
)
;

boundaryField
{
    movingWall
    {
        type            zeroGradient;
    }
    fixedWalls
    {
        type            zeroGradient;
    }
    frontAndBack
    {
        type            empty;
    }
}


// ************************************************************************* //
