/*--------------------------------*- C++ -*----------------------------------*\
| =========                 |                                                 |
| \\      /  F ield         | OpenFOAM: The Open Source CFD Toolbox           |
|  \\    /   O peration     | Version:  2312                                  |
|   \\  /    A nd           | Website:  www.openfoam.com                      |
|    \\/     M anipulation  |                                                 |
\*---------------------------------------------------------------------------*/
FoamFile
{
    version     2.0;
    format      ascii;
    arch        "LSB;label=32;scalar=64";
    class       volVectorField;
    location    "8.375";
    object      diffU;
}
// * * * * * * * * * * * * * * * * * * * * * * * * * * * * * * * * * * * * * //

dimensions      [0 1 -1 0 0 0 0];

internalField   nonuniform List<vector> 
400
(
(0 0 0)
(7.32747e-15 -7.93218e-14 0)
(5.77316e-15 -6.22006e-14 0)
(5.66214e-15 -6.61676e-14 0)
(5.55112e-15 -6.53716e-14 0)
(5.66214e-15 -6.5453e-14 0)
(5.55112e-15 -6.52549e-14 0)
(5.32907e-15 -6.53134e-14 0)
(4.88498e-15 -6.54815e-14 0)
(4.996e-15 -6.5565e-14 0)
(5.10703e-15 -6.55032e-14 0)
(4.88498e-15 -6.54589e-14 0)
(4.996e-15 -6.54801e-14 0)
(5.10703e-15 -6.54086e-14 0)
(4.77396e-15 -6.54017e-14 0)
(4.66294e-15 -6.54475e-14 0)
(4.66294e-15 -6.55074e-14 0)
(4.44089e-15 -6.54437e-14 0)
(4.77396e-15 -6.54945e-14 0)
(4.44089e-15 -6.55928e-14 0)
(9.4369e-15 -4.8373e-14 0)
(2.44249e-15 -6.88236e-14 0)
(3.33067e-15 -6.45302e-14 0)
(3.9968e-15 -6.55811e-14 0)
(3.9968e-15 -6.54611e-14 0)
(3.77476e-15 -6.54893e-14 0)
(3.77476e-15 -6.53536e-14 0)
(4.21885e-15 -6.53357e-14 0)
(4.44089e-15 -6.54208e-14 0)
(4.44089e-15 -6.54913e-14 0)
(4.21885e-15 -6.54402e-14 0)
(4.21885e-15 -6.54657e-14 0)
(4.44089e-15 -6.54824e-14 0)
(4.21885e-15 -6.53903e-14 0)
(4.21885e-15 -6.54681e-14 0)
(4.66294e-15 -6.5504e-14 0)
(4.44089e-15 -6.54576e-14 0)
(4.44089e-15 -6.54325e-14 0)
(4.44089e-15 -6.55757e-14 0)
(4.66294e-15 -6.56416e-14 0)
(1.16573e-14 -1.13253e-13 0)
(2.44249e-15 -5.53454e-14 0)
(4.44089e-15 -6.78505e-14 0)
(3.9968e-15 -6.49678e-14 0)
(4.44089e-15 -6.55566e-14 0)
(4.21885e-15 -6.54715e-14 0)
(4.21885e-15 -6.5529e-14 0)
(4.21885e-15 -6.55004e-14 0)
(4.21885e-15 -6.55778e-14 0)
(3.9968e-15 -6.55651e-14 0)
(4.44089e-15 -6.55863e-14 0)
(4.66294e-15 -6.56134e-14 0)
(4.66294e-15 -6.55413e-14 0)
(4.66294e-15 -6.55206e-14 0)
(4.996e-15 -6.55562e-14 0)
(4.88498e-15 -6.5502e-14 0)
(4.66294e-15 -6.53522e-14 0)
(4.66294e-15 -6.54606e-14 0)
(4.66294e-15 -6.568e-14 0)
(4.66294e-15 -6.56779e-14 0)
(-1.11022e-14 -6.80912e-14 0)
(8.88178e-15 -6.47207e-14 0)
(3.9968e-15 -6.56409e-14 0)
(5.10703e-15 -6.55102e-14 0)
(4.88498e-15 -6.54402e-14 0)
(4.66294e-15 -6.53783e-14 0)
(4.66294e-15 -6.5448e-14 0)
(4.66294e-15 -6.55082e-14 0)
(4.66294e-15 -6.55661e-14 0)
(4.21885e-15 -6.55747e-14 0)
(3.9968e-15 -6.56436e-14 0)
(4.44089e-15 -6.55895e-14 0)
(4.44089e-15 -6.54999e-14 0)
(4.44089e-15 -6.5597e-14 0)
(4.44089e-15 -6.55821e-14 0)
(4.21885e-15 -6.55345e-14 0)
(4.21885e-15 -6.54763e-14 0)
(4.996e-15 -6.5493e-14 0)
(4.66294e-15 -6.56174e-14 0)
(4.88498e-15 -6.56811e-14 0)
(1.83187e-14 -2.84097e-14 0)
(1.55431e-15 -7.35568e-14 0)
(5.77316e-15 -6.35609e-14 0)
(4.88498e-15 -6.59264e-14 0)
(5.10703e-15 -6.5324e-14 0)
(4.77396e-15 -6.54009e-14 0)
(4.996e-15 -6.54259e-14 0)
(4.77396e-15 -6.5439e-14 0)
(4.66294e-15 -6.53299e-14 0)
(4.66294e-15 -6.54772e-14 0)
(4.88498e-15 -6.56943e-14 0)
(4.77396e-15 -6.56707e-14 0)
(4.88498e-15 -6.55385e-14 0)
(4.996e-15 -6.55099e-14 0)
(4.996e-15 -6.54353e-14 0)
(4.77396e-15 -6.54555e-14 0)
(4.44089e-15 -6.56176e-14 0)
(4.44089e-15 -6.56835e-14 0)
(4.66294e-15 -6.56403e-14 0)
(4.88498e-15 -6.55989e-14 0)
(1.11022e-15 -1.08833e-13 0)
(5.77316e-15 -5.57288e-14 0)
(4.66294e-15 -6.77335e-14 0)
(4.996e-15 -6.48344e-14 0)
(4.66294e-15 -6.54361e-14 0)
(4.77396e-15 -6.53256e-14 0)
(4.66294e-15 -6.53037e-14 0)
(4.66294e-15 -6.53318e-14 0)
(4.77396e-15 -6.54003e-14 0)
(4.88498e-15 -6.55419e-14 0)
(4.77396e-15 -6.56242e-14 0)
(4.44089e-15 -6.56413e-14 0)
(4.66294e-15 -6.56715e-14 0)
(4.66294e-15 -6.55994e-14 0)
(4.66294e-15 -6.54863e-14 0)
(4.88498e-15 -6.53908e-14 0)
(4.996e-15 -6.54928e-14 0)
(4.66294e-15 -6.56597e-14 0)
(4.77396e-15 -6.56195e-14 0)
(4.88498e-15 -6.55553e-14 0)
(5.55112e-15 -3.79943e-14 0)
(4.66294e-15 -7.09797e-14 0)
(4.88498e-15 -6.4122e-14 0)
(4.21885e-15 -6.56049e-14 0)
(4.66294e-15 -6.53904e-14 0)
(4.66294e-15 -6.54008e-14 0)
(4.77396e-15 -6.53437e-14 0)
(4.88498e-15 -6.5412e-14 0)
(4.996e-15 -6.55932e-14 0)
(4.996e-15 -6.56279e-14 0)
(4.88498e-15 -6.55464e-14 0)
(4.996e-15 -6.55627e-14 0)
(4.996e-15 -6.55857e-14 0)
(4.88498e-15 -6.55189e-14 0)
(4.66294e-15 -6.55447e-14 0)
(4.44089e-15 -6.54802e-14 0)
(4.88498e-15 -6.54533e-14 0)
(4.44089e-15 -6.55396e-14 0)
(4.66294e-15 -6.55643e-14 0)
(4.66294e-15 -6.55373e-14 0)
(2.22045e-16 -4.6165e-14 0)
(4.77396e-15 -6.98628e-14 0)
(3.77476e-15 -6.42293e-14 0)
(4.88498e-15 -6.56141e-14 0)
(4.66294e-15 -6.53742e-14 0)
(4.21885e-15 -6.54845e-14 0)
(4.44089e-15 -6.55478e-14 0)
(4.44089e-15 -6.55616e-14 0)
(4.996e-15 -6.55667e-14 0)
(4.66294e-15 -6.55828e-14 0)
(4.66294e-15 -6.55723e-14 0)
(4.66294e-15 -6.56304e-14 0)
(4.21885e-15 -6.55998e-14 0)
(4.44089e-15 -6.54876e-14 0)
(4.44089e-15 -6.54905e-14 0)
(4.44089e-15 -6.55864e-14 0)
(4.66294e-15 -6.56204e-14 0)
(4.77396e-15 -6.55985e-14 0)
(4.66294e-15 -6.56081e-14 0)
(4.66294e-15 -6.5581e-14 0)
(1.22125e-14 -1.27334e-13 0)
(2.88658e-15 -5.19611e-14 0)
(5.66214e-15 -6.86117e-14 0)
(4.66294e-15 -6.47783e-14 0)
(4.66294e-15 -6.55866e-14 0)
(4.996e-15 -6.55494e-14 0)
(5.32907e-15 -6.56602e-14 0)
(4.88498e-15 -6.56744e-14 0)
(4.77396e-15 -6.56311e-14 0)
(4.88498e-15 -6.55897e-14 0)
(4.996e-15 -6.54867e-14 0)
(4.996e-15 -6.54787e-14 0)
(5.10703e-15 -6.54803e-14 0)
(4.88498e-15 -6.548e-14 0)
(4.77396e-15 -6.55266e-14 0)
(4.88498e-15 -6.56643e-14 0)
(4.66294e-15 -6.56822e-14 0)
(4.88498e-15 -6.55898e-14 0)
(4.77396e-15 -6.55255e-14 0)
(4.66294e-15 -6.55284e-14 0)
(-3.77476e-15 -1.13344e-14 0)
(7.32747e-15 -7.6592e-14 0)
(4.66294e-15 -6.29354e-14 0)
(4.77396e-15 -6.60288e-14 0)
(4.77396e-15 -6.54095e-14 0)
(4.88498e-15 -6.55564e-14 0)
(4.66294e-15 -6.55003e-14 0)
(4.77396e-15 -6.54947e-14 0)
(4.66294e-15 -6.54717e-14 0)
(4.44089e-15 -6.55794e-14 0)
(4.44089e-15 -6.56186e-14 0)
(4.44089e-15 -6.54488e-14 0)
(4.44089e-15 -6.54052e-14 0)
(4.44089e-15 -6.55391e-14 0)
(4.77396e-15 -6.55984e-14 0)
(4.77396e-15 -6.55254e-14 0)
(4.66294e-15 -6.55137e-14 0)
(4.77396e-15 -6.55047e-14 0)
(4.44089e-15 -6.54866e-14 0)
(4.66294e-15 -6.55036e-14 0)
(-5.9952e-15 -9.58273e-14 0)
(5.9952e-15 -5.98392e-14 0)
(3.10862e-15 -6.6617e-14 0)
(4.66294e-15 -6.51695e-14 0)
(4.21885e-15 -6.55074e-14 0)
(3.9968e-15 -6.55793e-14 0)
(4.21885e-15 -6.56687e-14 0)
(4.21885e-15 -6.55974e-14 0)
(4.44089e-15 -6.55064e-14 0)
(4.44089e-15 -6.55605e-14 0)
(4.44089e-15 -6.56056e-14 0)
(4.21885e-15 -6.55703e-14 0)
(4.66294e-15 -6.56242e-14 0)
(4.88498e-15 -6.57429e-14 0)
(4.66294e-15 -6.57456e-14 0)
(4.66294e-15 -6.55323e-14 0)
(4.66294e-15 -6.54776e-14 0)
(4.66294e-15 -6.54917e-14 0)
(4.66294e-15 -6.55068e-14 0)
(4.66294e-15 -6.55534e-14 0)
(2.88658e-14 -4.83589e-14 0)
(1.11022e-15 -6.92564e-14 0)
(7.21645e-15 -6.45308e-14 0)
(4.77396e-15 -6.56918e-14 0)
(5.66214e-15 -6.53673e-14 0)
(5.44009e-15 -6.54696e-14 0)
(5.44009e-15 -6.56025e-14 0)
(5.10703e-15 -6.56481e-14 0)
(4.996e-15 -6.56913e-14 0)
(5.21805e-15 -6.55432e-14 0)
(4.996e-15 -6.54648e-14 0)
(5.10703e-15 -6.55527e-14 0)
(4.77396e-15 -6.56353e-14 0)
(4.77396e-15 -6.56638e-14 0)
(4.77396e-15 -6.56216e-14 0)
(4.77396e-15 -6.55264e-14 0)
(5.10703e-15 -6.54069e-14 0)
(4.77396e-15 -6.5391e-14 0)
(4.77396e-15 -6.5446e-14 0)
(4.88498e-15 -6.55096e-14 0)
(-1.24345e-14 -6.87092e-14 0)
(6.32827e-15 -6.3824e-14 0)
(2.66454e-15 -6.57804e-14 0)
(4.77396e-15 -6.53853e-14 0)
(4.21885e-15 -6.54706e-14 0)
(4.44089e-15 -6.53484e-14 0)
(4.44089e-15 -6.53493e-14 0)
(4.66294e-15 -6.53874e-14 0)
(4.21885e-15 -6.55329e-14 0)
(4.21885e-15 -6.558e-14 0)
(4.21885e-15 -6.55979e-14 0)
(4.21885e-15 -6.55563e-14 0)
(4.66294e-15 -6.55527e-14 0)
(4.44089e-15 -6.5532e-14 0)
(3.9968e-15 -6.55264e-14 0)
(3.77476e-15 -6.56173e-14 0)
(3.77476e-15 -6.55211e-14 0)
(3.9968e-15 -6.54922e-14 0)
(4.21885e-15 -6.5586e-14 0)
(4.44089e-15 -6.55781e-14 0)
(6.10623e-15 -8.95374e-14 0)
(4.88498e-15 -6.10774e-14 0)
(4.88498e-15 -6.67456e-14 0)
(4.44089e-15 -6.54172e-14 0)
(4.77396e-15 -6.56857e-14 0)
(4.77396e-15 -6.55901e-14 0)
(4.77396e-15 -6.55547e-14 0)
(4.88498e-15 -6.54688e-14 0)
(5.21805e-15 -6.55103e-14 0)
(5.10703e-15 -6.55794e-14 0)
(5.10703e-15 -6.55779e-14 0)
(4.88498e-15 -6.56346e-14 0)
(4.996e-15 -6.55877e-14 0)
(4.88498e-15 -6.54306e-14 0)
(5.21805e-15 -6.54179e-14 0)
(5.21805e-15 -6.54989e-14 0)
(4.996e-15 -6.55133e-14 0)
(4.88498e-15 -6.56113e-14 0)
(4.996e-15 -6.5687e-14 0)
(4.88498e-15 -6.55917e-14 0)
(7.10543e-15 -1.28931e-14 0)
(4.21885e-15 -7.68843e-14 0)
(4.66294e-15 -6.30729e-14 0)
(4.66294e-15 -6.61451e-14 0)
(4.44089e-15 -6.54033e-14 0)
(4.77396e-15 -6.55786e-14 0)
(4.66294e-15 -6.55738e-14 0)
(4.66294e-15 -6.56266e-14 0)
(4.996e-15 -6.55804e-14 0)
(4.77396e-15 -6.54758e-14 0)
(4.88498e-15 -6.54903e-14 0)
(4.996e-15 -6.55938e-14 0)
(4.77396e-15 -6.54776e-14 0)
(4.77396e-15 -6.54424e-14 0)
(4.66294e-15 -6.54325e-14 0)
(4.44089e-15 -6.53916e-14 0)
(4.66294e-15 -6.54133e-14 0)
(4.66294e-15 -6.55268e-14 0)
(4.66294e-15 -6.55453e-14 0)
(4.66294e-15 -6.54978e-14 0)
(4.21885e-15 -1.21496e-13 0)
(4.21885e-15 -5.34769e-14 0)
(4.21885e-15 -6.81584e-14 0)
(4.21885e-15 -6.47997e-14 0)
(4.44089e-15 -6.56842e-14 0)
(4.44089e-15 -6.56254e-14 0)
(4.21885e-15 -6.56453e-14 0)
(4.44089e-15 -6.57436e-14 0)
(4.21885e-15 -6.56468e-14 0)
(4.21885e-15 -6.5536e-14 0)
(4.44089e-15 -6.56175e-14 0)
(3.9968e-15 -6.56042e-14 0)
(4.21885e-15 -6.54327e-14 0)
(4.44089e-15 -6.53851e-14 0)
(4.66294e-15 -6.53852e-14 0)
(4.21885e-15 -6.54829e-14 0)
(4.44089e-15 -6.56359e-14 0)
(4.77396e-15 -6.5616e-14 0)
(4.66294e-15 -6.55397e-14 0)
(4.66294e-15 -6.5499e-14 0)
(-2.66454e-15 -5.65772e-14 0)
(6.77236e-15 -6.75117e-14 0)
(4.88498e-15 -6.50227e-14 0)
(4.66294e-15 -6.56396e-14 0)
(5.21805e-15 -6.55934e-14 0)
(4.996e-15 -6.55255e-14 0)
(4.88498e-15 -6.54503e-14 0)
(4.66294e-15 -6.55013e-14 0)
(4.66294e-15 -6.54886e-14 0)
(4.44089e-15 -6.55293e-14 0)
(4.66294e-15 -6.55442e-14 0)
(4.44089e-15 -6.55116e-14 0)
(4.21885e-15 -6.55798e-14 0)
(4.44089e-15 -6.5558e-14 0)
(4.66294e-15 -6.55296e-14 0)
(4.66294e-15 -6.55047e-14 0)
(4.66294e-15 -6.56521e-14 0)
(4.44089e-15 -6.55946e-14 0)
(4.66294e-15 -6.55332e-14 0)
(4.66294e-15 -6.5559e-14 0)
(3.9968e-15 -3.29585e-15 0)
(4.44089e-15 -7.84656e-14 0)
(4.21885e-15 -6.24466e-14 0)
(4.44089e-15 -6.62482e-14 0)
(4.21885e-15 -6.54838e-14 0)
(4.44089e-15 -6.55981e-14 0)
(4.66294e-15 -6.55142e-14 0)
(4.77396e-15 -6.5424e-14 0)
(4.88498e-15 -6.54575e-14 0)
(4.88498e-15 -6.55744e-14 0)
(4.996e-15 -6.55683e-14 0)
(5.10703e-15 -6.54478e-14 0)
(4.88498e-15 -6.54745e-14 0)
(4.88498e-15 -6.55124e-14 0)
(4.77396e-15 -6.55282e-14 0)
(4.88498e-15 -6.54805e-14 0)
(4.66294e-15 -6.55682e-14 0)
(4.44089e-15 -6.55382e-14 0)
(4.66294e-15 -6.55034e-14 0)
(4.77396e-15 -6.55779e-14 0)
(1.64313e-14 -1.12546e-13 0)
(1.11022e-15 -5.60784e-14 0)
(4.66294e-15 -6.78805e-14 0)
(3.9968e-15 -6.52282e-14 0)
(4.66294e-15 -6.58246e-14 0)
(4.44089e-15 -6.57146e-14 0)
(4.44089e-15 -6.56758e-14 0)
(4.21885e-15 -6.5554e-14 0)
(4.21885e-15 -6.5587e-14 0)
(4.44089e-15 -6.55861e-14 0)
(4.44089e-15 -6.55296e-14 0)
(4.21885e-15 -6.54655e-14 0)
(4.21885e-15 -6.54298e-14 0)
(4.44089e-15 -6.54434e-14 0)
(4.21885e-15 -6.55014e-14 0)
(4.44089e-15 -6.56098e-14 0)
(4.66294e-15 -6.55851e-14 0)
(4.66294e-15 -6.55094e-14 0)
(4.77396e-15 -6.55073e-14 0)
(4.77396e-15 -6.55363e-14 0)
(2.66454e-15 -1.06646e-13 0)
(6.77236e-15 -5.76366e-14 0)
(5.77316e-15 -6.7681e-14 0)
(5.32907e-15 -6.53037e-14 0)
(5.44009e-15 -6.56799e-14 0)
(4.996e-15 -6.55031e-14 0)
(4.88498e-15 -6.54574e-14 0)
(5.10703e-15 -6.54856e-14 0)
(5.21805e-15 -6.55747e-14 0)
(4.88498e-15 -6.55524e-14 0)
(4.88498e-15 -6.54566e-14 0)
(4.88498e-15 -6.54673e-14 0)
(4.88498e-15 -6.55009e-14 0)
(4.996e-15 -6.55516e-14 0)
(4.996e-15 -6.56211e-14 0)
(4.88498e-15 -6.56741e-14 0)
(4.66294e-15 -6.55752e-14 0)
(4.44089e-15 -6.54864e-14 0)
(4.66294e-15 -6.5501e-14 0)
(4.77396e-15 -6.55196e-14 0)
)
;

boundaryField
{
    movingWall
    {
        type            calculated;
        value           uniform (4.66294e-15 -6.55153e-14 0);
    }
    fixedWalls
    {
        type            calculated;
        value           uniform (4.66294e-15 -6.55153e-14 0);
    }
    frontAndBack
    {
        type            empty;
    }
}


// ************************************************************************* //
