/*--------------------------------*- C++ -*----------------------------------*\
| =========                 |                                                 |
| \\      /  F ield         | OpenFOAM: The Open Source CFD Toolbox           |
|  \\    /   O peration     | Version:  2312                                  |
|   \\  /    A nd           | Website:  www.openfoam.com                      |
|    \\/     M anipulation  |                                                 |
\*---------------------------------------------------------------------------*/
FoamFile
{
    version     2.0;
    format      ascii;
    arch        "LSB;label=32;scalar=64";
    class       volScalarField;
    location    "8.375";
    object      divU;
}
// * * * * * * * * * * * * * * * * * * * * * * * * * * * * * * * * * * * * * //

dimensions      [0 0 -1 0 0 0 0];

internalField   nonuniform List<scalar> 
400
(
8.0502e-12
-1.11517e-12
2.40247e-13
-7.18115e-14
1.97998e-14
8.83627e-15
1.51124e-14
-4.31579e-14
-1.42679e-14
-2.55773e-15
8.72809e-15
1.06077e-14
3.39249e-14
-3.926e-15
-1.10128e-14
-1.9187e-14
6.56762e-15
1.54378e-14
-3.94911e-15
-2.71051e-14
-1.10318e-11
1.77036e-12
-4.06055e-13
1.83694e-13
-8.00225e-14
6.98758e-15
1.48071e-14
4.65584e-14
3.03066e-14
-2.96741e-14
4.19396e-16
-4.84075e-15
2.78065e-14
-4.22336e-14
6.36393e-16
5.66753e-14
-3.21251e-14
-1.3356e-14
3.1715e-14
0
-1.51788e-12
-3.13006e-13
7.91887e-14
1.04793e-15
3.38008e-15
1.8091e-14
-2.17343e-14
-2.48982e-14
-1.13297e-14
-1.09155e-14
7.18387e-15
3.69879e-14
-1.04719e-15
1.84071e-14
1.63348e-14
-2.76901e-14
-3.39926e-14
-1.94017e-14
4.31142e-16
0
7.29126e-12
-2.91001e-13
7.44691e-14
-4.0602e-14
-4.6245e-16
-2.90611e-14
1.56792e-14
8.35004e-15
-4.07511e-14
-2.92351e-14
-3.62128e-15
3.12551e-14
-7.7367e-16
-7.62457e-15
1.31891e-15
-2.30453e-14
4.78869e-14
1.2521e-14
4.3951e-15
-2.71051e-14
-3.03577e-12
-3.67592e-13
1.3626e-13
-2.72234e-14
-4.82794e-17
3.30943e-15
3.00036e-15
-1.12203e-15
2.93671e-15
2.82602e-14
2.54264e-14
-1.03048e-15
-1.79347e-14
-7.86308e-15
1.09002e-14
-3.57795e-14
-6.21876e-14
5.00608e-14
3.12964e-14
0
-1.21973e-12
6.49063e-13
-1.0958e-13
3.2032e-14
-3.37895e-14
-2.37934e-14
1.12253e-14
1.57705e-15
3.7185e-15
1.31912e-14
-4.10959e-14
-4.44376e-14
5.86672e-14
-8.76896e-15
2.70688e-14
1.59658e-14
8.45982e-15
-4.39714e-14
6.59991e-14
-5.42101e-14
6.34258e-12
-1.46907e-12
3.22152e-13
-1.27253e-13
5.37198e-14
-1.25714e-14
4.1028e-14
-2.13977e-14
-1.29169e-14
9.09448e-15
1.83069e-14
1.08566e-14
1.16203e-14
-2.46908e-14
-2.75542e-14
-3.06936e-14
-4.3021e-15
1.63575e-14
1.29242e-14
0
-9.37835e-12
2.24882e-12
-4.52081e-13
1.99358e-13
-1.01429e-13
-5.45305e-14
-1.77283e-14
3.36729e-14
1.04011e-14
-1.41842e-14
-2.83138e-15
-3.49491e-14
2.21541e-14
6.31199e-15
1.36308e-15
3.22122e-14
-2.7195e-14
-1.57704e-14
1.68047e-14
0
4.06576e-12
-1.32435e-12
3.27831e-13
-1.40269e-13
5.76682e-14
1.95882e-14
1.41223e-14
-1.3851e-14
1.98934e-14
1.32684e-14
-7.46807e-15
3.74237e-14
-1.2589e-14
1.16243e-15
-9.42801e-15
-1.59043e-14
1.05845e-14
2.07142e-14
1.8569e-15
-2.71051e-14
2.57498e-12
5.62561e-14
-6.90133e-14
-1.67637e-14
3.84782e-14
-3.76158e-14
-4.0935e-14
2.09545e-14
5.25725e-15
-3.80256e-14
-1.93532e-14
1.15938e-15
-2.69752e-14
2.90807e-14
-4.22654e-15
-2.70702e-15
3.10436e-14
3.42002e-15
3.73473e-15
0
-4.63496e-12
1.65718e-12
-3.36975e-13
1.79561e-13
-1.15168e-14
-5.60324e-14
5.72661e-14
-2.14924e-14
1.04081e-14
-7.29955e-15
-3.97216e-15
1.78733e-14
5.8431e-14
-1.04946e-14
-3.36587e-14
-2.80375e-15
1.46191e-14
1.47906e-14
7.78783e-15
0
4.79759e-12
-2.53601e-12
4.24311e-13
-1.94382e-13
7.34862e-14
-5.83407e-15
7.8895e-15
-2.75969e-14
7.7543e-15
-9.24536e-15
-3.03125e-14
-7.83927e-15
-1.57343e-14
1.05911e-14
1.5362e-14
1.5799e-14
-1.68332e-14
-3.94694e-14
2.69684e-14
-5.42101e-14
-5.66496e-12
2.32055e-12
-3.66378e-13
1.5834e-13
-3.96617e-14
-1.78874e-14
1.26693e-14
1.74454e-14
-1.25746e-15
-1.28657e-14
-1.45165e-14
1.10792e-14
1.61343e-14
6.80922e-15
-9.97911e-14
-8.55263e-15
-3.75263e-16
7.40315e-14
2.87429e-15
2.71051e-14
5.77338e-12
-1.45204e-12
2.29636e-13
-8.02741e-14
2.12718e-14
-1.3801e-14
1.73252e-14
-6.47323e-15
-6.01107e-15
-2.44966e-15
-3.75757e-15
7.33165e-15
-3.46351e-15
1.57687e-14
7.22307e-14
-1.30894e-14
-1.66986e-14
-1.0741e-14
6.94303e-15
-2.71051e-14
-3.00866e-12
5.27739e-13
-7.42712e-14
6.27946e-14
-5.69059e-15
3.68764e-14
-4.59452e-14
-6.84613e-15
7.44819e-15
-2.52228e-14
1.93922e-14
1.03727e-14
-1.50729e-14
-3.38935e-14
-5.81327e-15
-6.57005e-14
5.23603e-14
-1.12181e-14
2.16727e-14
0
-4.47233e-12
9.49993e-13
-1.8794e-13
5.91342e-14
2.40461e-15
-1.20275e-14
2.06103e-14
5.68811e-15
1.66338e-14
-3.47115e-15
-1.31014e-14
-3.56198e-14
5.60282e-14
8.76119e-15
-1.55162e-14
-2.27916e-14
2.84767e-14
-1.79997e-14
-4.22317e-15
0
1.13028e-11
-1.73861e-12
3.8324e-13
-1.12819e-13
4.95488e-14
-3.63977e-14
-2.04879e-14
1.0538e-14
-4.5751e-14
-7.3098e-15
4.60202e-14
-4.70858e-14
-2.3567e-15
-3.9737e-15
5.15048e-14
4.55177e-15
8.13781e-15
1.68892e-14
-6.00658e-16
0
-5.69206e-12
1.16655e-12
-3.09111e-13
6.38533e-14
-5.48841e-14
-1.09926e-15
6.53828e-14
5.26393e-15
2.57225e-14
-1.2989e-14
-6.72546e-15
1.17419e-14
1.26409e-14
7.48217e-15
-2.69902e-14
-5.96115e-15
-1.22698e-14
-1.68858e-15
2.90983e-14
-2.71051e-14
-9.51387e-12
9.18419e-13
-2.36239e-13
1.04094e-13
-2.02759e-14
8.4022e-15
-1.0252e-14
-9.00364e-16
1.39975e-14
-1.07894e-14
-2.2661e-14
9.79123e-15
9.99537e-15
3.0671e-14
-9.18093e-15
2.88923e-14
-1.2963e-14
3.05929e-14
2.24126e-15
-2.71051e-14
8.83625e-12
-1.46367e-12
3.52366e-13
-8.13152e-14
0
-2.71051e-14
0
5.42101e-14
-2.71051e-14
-2.71051e-14
0
0
0
0
0
0
-8.13152e-14
5.42101e-14
2.71051e-14
-2.71051e-14
)
;

boundaryField
{
    movingWall
    {
        type            extrapolatedCalculated;
        value           nonuniform List<scalar> 
20
(
8.83625e-12
-1.46367e-12
3.52366e-13
-8.13152e-14
0
-2.71051e-14
0
5.42101e-14
-2.71051e-14
-2.71051e-14
0
0
0
0
0
0
-8.13152e-14
5.42101e-14
2.71051e-14
-2.71051e-14
)
;
    }
    fixedWalls
    {
        type            extrapolatedCalculated;
        value           nonuniform List<scalar> 
60
(
8.0502e-12
-1.10318e-11
-1.51788e-12
7.29126e-12
-3.03577e-12
-1.21973e-12
6.34258e-12
-9.37835e-12
4.06576e-12
2.57498e-12
-4.63496e-12
4.79759e-12
-5.66496e-12
5.77338e-12
-3.00866e-12
-4.47233e-12
1.13028e-11
-5.69206e-12
-9.51387e-12
8.83625e-12
-2.71051e-14
0
0
-2.71051e-14
0
-5.42101e-14
0
0
-2.71051e-14
0
0
-5.42101e-14
2.71051e-14
-2.71051e-14
0
0
0
-2.71051e-14
-2.71051e-14
-2.71051e-14
8.0502e-12
-1.11517e-12
2.40247e-13
-7.18115e-14
1.97998e-14
8.83627e-15
1.51124e-14
-4.31579e-14
-1.42679e-14
-2.55773e-15
8.72809e-15
1.06077e-14
3.39249e-14
-3.926e-15
-1.10128e-14
-1.9187e-14
6.56762e-15
1.54378e-14
-3.94911e-15
-2.71051e-14
)
;
    }
    frontAndBack
    {
        type            empty;
    }
}


// ************************************************************************* //
