/*--------------------------------*- C++ -*----------------------------------*\
| =========                 |                                                 |
| \\      /  F ield         | OpenFOAM: The Open Source CFD Toolbox           |
|  \\    /   O peration     | Version:  2312                                  |
|   \\  /    A nd           | Website:  www.openfoam.com                      |
|    \\/     M anipulation  |                                                 |
\*---------------------------------------------------------------------------*/
FoamFile
{
    version     2.0;
    format      ascii;
    arch        "LSB;label=32;scalar=64";
    class       surfaceScalarField;
    location    "8.375";
    object      fluxField;
}
// * * * * * * * * * * * * * * * * * * * * * * * * * * * * * * * * * * * * * //

dimensions      [0 3 -1 0 0 0 0];

oriented        oriented;

internalField   nonuniform List<scalar> 
760
(
-5e-05
2.06644e-18
-5e-05
-4.2787e-19
-5e-05
1.07496e-19
-5e-05
-1.79529e-20
-5e-05
4.94994e-21
-5e-05
2.20907e-21
-5e-05
1.05544e-20
-5e-05
9.5393e-21
-5e-05
3.20929e-21
-5e-05
-6.39432e-22
-5e-05
2.18202e-21
-5e-05
2.65192e-21
-5e-05
1.70496e-21
-5e-05
5.79476e-21
-5e-05
4.02306e-21
-5e-05
1.9795e-21
-5e-05
1.64191e-21
-5e-05
3.85944e-21
-5e-05
-9.87278e-22
-5.09301e-21
-5e-05
-7.64889e-19
-5e-05
1.7154e-19
-5e-05
-3.37512e-20
-5e-05
1.20421e-20
-5e-05
3.23156e-22
-5e-05
1.7469e-21
-5e-05
3.70176e-21
-5e-05
4.86335e-21
-5e-05
8.00388e-22
-5e-05
-6.42265e-22
-5e-05
1.04849e-22
-5e-05
-1.21019e-21
-5e-05
1.75368e-22
-5e-05
2.99413e-21
-5e-05
1.59098e-22
-5e-05
6.16301e-22
-5e-05
5.52126e-21
-5e-05
3.43726e-21
-5e-05
-5.62377e-21
-7.22123e-21
-5e-05
-1.25784e-18
-5e-05
2.74114e-19
-5e-05
-6.1518e-20
-5e-05
1.38145e-20
-5e-05
8.4502e-22
-5e-05
4.52274e-21
-5e-05
1.34268e-21
-5e-05
5.51724e-22
-5e-05
-2.83242e-21
-5e-05
-2.72887e-21
-5e-05
-4.9803e-21
-5e-05
-4.30555e-21
-5e-05
-2.61798e-22
-5e-05
-2.1745e-21
-5e-05
-2.69257e-21
-5e-05
-1.46258e-22
-5e-05
5.05437e-21
-5e-05
1.92585e-21
-5e-05
-6.66848e-21
-8.20973e-21
-5e-05
8.63243e-19
-5e-05
-1.8117e-19
-5e-05
4.57223e-20
-5e-05
-1.01505e-20
-5e-05
6.66065e-21
-5e-05
6.28726e-21
-5e-05
3.91981e-21
-5e-05
2.08751e-21
-5e-05
3.36474e-21
-5e-05
-5.3252e-22
-5e-05
-7.68158e-21
-5e-05
-5.73875e-21
-5e-05
-1.93417e-22
-5e-05
-1.90614e-21
-5e-05
3.29727e-22
-5e-05
1.01493e-21
-5e-05
-1.5808e-21
-5e-05
-3.64602e-21
-5e-05
-5.67749e-21
-6.23269e-21
-5e-05
-1.55291e-19
-5e-05
4.36272e-20
-5e-05
-6.59247e-21
-5e-05
6.74669e-21
-5e-05
6.76419e-21
-5e-05
7.60362e-21
-5e-05
7.52635e-21
-5e-05
6.49576e-21
-5e-05
7.51044e-21
-5e-05
2.88776e-22
-5e-05
-7.19592e-21
-5e-05
-7.03388e-21
-5e-05
-4.48368e-21
-5e-05
-1.96577e-21
-5e-05
2.72504e-21
-5e-05
4.60766e-21
-5e-05
-1.99438e-21
-5e-05
-7.8136e-21
-5e-05
-5.72844e-21
-3.08662e-21
-5e-05
-3.94905e-19
-5e-05
1.08056e-19
-5e-05
-2.06188e-20
-5e-05
1.47843e-20
-5e-05
5.10515e-21
-5e-05
7.60418e-21
-5e-05
9.58258e-21
-5e-05
7.17053e-21
-5e-05
9.29624e-22
-5e-05
-3.47848e-21
-5e-05
-3.49771e-21
-5e-05
-4.33314e-21
-5e-05
-5.66198e-21
-5e-05
-2.19224e-21
-5e-05
-9.07557e-24
-5e-05
3.99144e-21
-5e-05
2.11495e-21
-5e-05
-4.21659e-21
-5e-05
-3.82901e-21
-1.54733e-21
-5e-05
1.17178e-18
-5e-05
-2.45295e-19
-5e-05
6.69854e-20
-5e-05
-4.70829e-21
-5e-05
6.65368e-21
-5e-05
3.63342e-21
-5e-05
3.48073e-21
-5e-05
1.42684e-21
-5e-05
-3.22923e-21
-5e-05
-4.50264e-21
-5e-05
-2.19954e-21
-5e-05
-4.06211e-21
-5e-05
-3.8712e-21
-5e-05
6.03566e-22
-5e-05
-1.12289e-22
-5e-05
-8.97132e-22
-5e-05
-1.07552e-21
-5e-05
-2.68688e-21
-5e-05
-3.54521e-21
-2.19039e-21
-5e-05
-1.06172e-18
-5e-05
2.30168e-19
-5e-05
-4.52576e-20
-5e-05
1.59581e-20
-5e-05
1.74782e-21
-5e-05
-8.0106e-23
-5e-05
-4.43207e-21
-5e-05
-5.1343e-21
-5e-05
-4.17598e-21
-5e-05
-3.54604e-21
-5e-05
-7.07844e-22
-5e-05
-1.96102e-21
-5e-05
-1.23775e-21
-5e-05
1.578e-21
-5e-05
3.40769e-22
-5e-05
-5.49947e-21
-5e-05
-6.79875e-21
-5e-05
-3.94259e-21
-5e-05
-2.5751e-21
-1.9676e-21
-5e-05
-1.90953e-19
-5e-05
6.19368e-20
-5e-05
-1.29099e-20
-5e-05
5.59033e-21
-5e-05
8.64526e-22
-5e-05
-1.87922e-21
-5e-05
-3.2457e-21
-5e-05
-3.46274e-21
-5e-05
-1.80292e-21
-5e-05
-3.45916e-21
-5e-05
-1.86702e-21
-5e-05
2.57967e-21
-5e-05
3.62903e-21
-5e-05
2.90608e-22
-5e-05
-2.357e-21
-5e-05
-3.97608e-21
-5e-05
-4.13014e-21
-5e-05
-1.59771e-21
-5e-05
4.64225e-22
-3.175e-23
-5e-05
5.96725e-19
-5e-05
-1.35014e-19
-5e-05
3.69568e-20
-5e-05
-4.19091e-21
-5e-05
2.84329e-21
-5e-05
-2.6277e-21
-5e-05
-3.4575e-21
-5e-05
-1.53764e-21
-5e-05
1.31431e-21
-5e-05
-2.73013e-21
-5e-05
-4.83829e-21
-5e-05
2.89844e-22
-5e-05
3.24742e-23
-5e-05
-6.28236e-21
-5e-05
-7.8329e-21
-5e-05
-6.76754e-22
-5e-05
9.84637e-22
-5e-05
8.55004e-22
-5e-05
9.33682e-22
-6.56157e-22
-5e-05
-3.28888e-19
-5e-05
4.8378e-20
-5e-05
-2.92857e-21
-5e-05
4.23258e-21
-5e-05
3.89706e-21
-5e-05
-4.55568e-22
-5e-05
-6.01225e-21
-5e-05
-5.3731e-21
-5e-05
-4.17423e-21
-5e-05
-1.82489e-21
-5e-05
-9.93039e-22
-5e-05
-2.30794e-21
-5e-05
-5.72105e-21
-5e-05
-9.39991e-21
-5e-05
-8.41468e-21
-5e-05
-7.00937e-22
-5e-05
3.65477e-21
-5e-05
3.69764e-21
-5e-05
1.94696e-21
-8.06622e-22
-5e-05
3.49065e-19
-5e-05
-5.1244e-20
-5e-05
1.79863e-20
-5e-05
-1.16155e-21
-5e-05
4.81903e-21
-5e-05
5.31775e-21
-5e-05
1.97238e-21
-5e-05
-1.22967e-22
-5e-05
-4.83769e-21
-5e-05
-2.31134e-21
-5e-05
-8.01865e-22
-5e-05
-1.95982e-21
-5e-05
-3.93357e-21
-5e-05
-4.1285e-21
-5e-05
-2.93577e-21
-5e-05
-2.82652e-21
-5e-05
2.56795e-21
-5e-05
3.68518e-21
-5e-05
-3.41703e-23
-1.42554e-21
-5e-05
-6.80399e-19
-5e-05
1.53232e-19
-5e-05
-3.73845e-20
-5e-05
5.70367e-21
-5e-05
-3.13916e-21
-5e-05
2.30441e-21
-5e-05
3.16733e-21
-5e-05
4.36134e-21
-5e-05
-3.14365e-22
-5e-05
-3.21642e-21
-5e-05
-3.62913e-21
-5e-05
-4.00647e-21
-5e-05
-2.74268e-21
-5e-05
1.7023e-21
-5e-05
2.15728e-21
-5e-05
-2.13816e-21
-5e-05
-9.38157e-23
-5e-05
-1.82091e-21
-5e-05
-6.05769e-21
-3.47977e-21
-5e-05
7.15004e-19
-5e-05
-1.73273e-19
-5e-05
3.0304e-20
-5e-05
-1.32923e-20
-5e-05
-1.45831e-21
-5e-05
-3.45024e-21
-5e-05
-2.44496e-21
-5e-05
-1.61831e-21
-5e-05
-1.50277e-21
-5e-05
-6.12415e-22
-5e-05
-9.39393e-22
-5e-05
-4.94335e-21
-5e-05
-8.65877e-22
-5e-05
3.94219e-21
-5e-05
4.50515e-21
-5e-05
3.50392e-21
-5e-05
2.60162e-21
-5e-05
-2.68524e-21
-5e-05
-5.04051e-21
-1.47213e-21
-5e-05
-8.39539e-20
-5e-05
1.67382e-20
-5e-05
-5.01528e-21
-5e-05
2.14613e-21
-5e-05
-1.42265e-21
-5e-05
-4.33342e-21
-5e-05
-4.71003e-21
-5e-05
-8.4878e-21
-5e-05
-4.91422e-21
-5e-05
4.70562e-22
-5e-05
-1.92821e-21
-5e-05
-4.18308e-21
-5e-05
3.00805e-21
-5e-05
5.07915e-21
-5e-05
5.32295e-21
-5e-05
3.90366e-21
-5e-05
-4.62443e-22
-5e-05
-2.80454e-21
-5e-05
-1.3581e-21
8.46816e-22
-5e-05
-1.17606e-18
-5e-05
2.51051e-19
-5e-05
-5.37613e-20
-5e-05
1.47836e-20
-5e-05
-6.17511e-21
-5e-05
-3.00688e-21
-5e-05
-1.62368e-21
-5e-05
-5.35424e-21
-5e-05
-2.61781e-21
-5e-05
-8.67789e-22
-5e-05
-3.27534e-21
-5e-05
-2.12869e-21
-5e-05
4.54529e-22
-5e-05
2.1903e-21
-5e-05
2.8972e-21
-5e-05
1.07837e-21
-5e-05
-6.43335e-21
-5e-05
-4.49993e-21
-5e-05
-1.05579e-21
-6.82355e-22
-5e-05
1.77894e-18
-5e-05
-3.73667e-19
-5e-05
8.90338e-20
-5e-05
-2.14285e-20
-5e-05
-1.16533e-21
-5e-05
-2.32317e-21
-5e-05
1.65428e-21
-5e-05
2.63451e-21
-5e-05
2.11478e-21
-5e-05
-1.82745e-21
-5e-05
-2.04749e-21
-5e-05
1.78107e-21
-5e-05
-5.89175e-22
-5e-05
-9.93426e-22
-5e-05
-6.76315e-22
-5e-05
1.13794e-21
-5e-05
-4.74181e-21
-5e-05
-2.55397e-21
-5e-05
-1.50165e-22
-2.65623e-21
-5e-05
3.79732e-19
-5e-05
-8.78323e-20
-5e-05
1.75899e-20
-5e-05
-1.11417e-20
-5e-05
-6.94475e-21
-5e-05
-7.05108e-21
-5e-05
-3.9831e-21
-5e-05
1.31598e-21
-5e-05
-3.45642e-22
-5e-05
-3.24725e-21
-5e-05
-1.68136e-21
-5e-05
2.93548e-21
-5e-05
3.16023e-21
-5e-05
1.87054e-21
-5e-05
2.87131e-23
-5e-05
-1.49029e-21
-5e-05
-3.06746e-21
-5e-05
-4.22144e-22
-5e-05
4.98309e-22
-2.0898e-21
-5e-05
-2.20402e-18
-5e-05
4.32893e-19
-5e-05
-1.1327e-19
-5e-05
1.2471e-20
-5e-05
-1.18452e-20
-5e-05
-4.67571e-21
-5e-05
-2.563e-21
-5e-05
-2.25091e-22
-5e-05
-3.27689e-21
-5e-05
-2.69736e-21
-5e-05
1.111e-21
-5e-05
2.44781e-21
-5e-05
2.49884e-21
-5e-05
8.91496e-22
-5e-05
-2.29523e-21
-5e-05
-6.32946e-21
-5e-05
-3.24076e-21
-5e-05
8.71952e-22
-5e-05
5.60315e-22
-6.30759e-22
-5e-05
-5e-05
-5e-05
-5e-05
-5e-05
-5e-05
-5e-05
-5e-05
-5e-05
-5e-05
-5e-05
-5e-05
-5e-05
-5e-05
-5e-05
-5e-05
-5e-05
-5e-05
-5e-05
)
;

boundaryField
{
    movingWall
    {
        type            calculated;
        value           uniform -0;
    }
    fixedWalls
    {
        type            calculated;
        value           nonuniform List<scalar> 
60
(
5e-05
5e-05
5e-05
5e-05
5e-05
5e-05
5e-05
5e-05
5e-05
5e-05
5e-05
5e-05
5e-05
5e-05
5e-05
5e-05
5e-05
5e-05
5e-05
5e-05
-5e-05
-5e-05
-5e-05
-5e-05
-5e-05
-5e-05
-5e-05
-5e-05
-5e-05
-5e-05
-5e-05
-5e-05
-5e-05
-5e-05
-5e-05
-5e-05
-5e-05
-5e-05
-5e-05
-5e-05
0
0
0
0
0
0
0
0
0
0
0
0
0
0
0
0
0
0
0
0
)
;
    }
    frontAndBack
    {
        type            empty;
        value           nonuniform List<scalar> 0();
    }
}


// ************************************************************************* //
