/*--------------------------------*- C++ -*----------------------------------*\
| =========                 |                                                 |
| \\      /  F ield         | OpenFOAM: The Open Source CFD Toolbox           |
|  \\    /   O peration     | Version:  2312                                  |
|   \\  /    A nd           | Website:  www.openfoam.com                      |
|    \\/     M anipulation  |                                                 |
\*---------------------------------------------------------------------------*/
FoamFile
{
    version     2.0;
    format      ascii;
    arch        "LSB;label=32;scalar=64";
    class       volTensorField;
    location    "8.375";
    object      gradU;
}
// * * * * * * * * * * * * * * * * * * * * * * * * * * * * * * * * * * * * * //

dimensions      [0 0 -1 0 0 0 0];

internalField   nonuniform List<tensor> 
400
(
(-2.1684e-13 5.17088e-12 0 0 8.26577e-12 0 0 0 0)
(5.96311e-13 -6.22006e-12 0 2.71051e-14 -1.71148e-12 0 0 0 0)
(-1.89735e-13 1.31542e-12 0 0 4.29982e-13 0 0 0 0)
(0 -3.17092e-13 0 5.42101e-14 -7.18115e-14 0 0 0 0)
(0 7.14675e-14 0 5.42101e-14 1.97998e-14 0 0 0 0)
(0 1.16656e-14 0 2.71051e-14 8.83627e-15 0 0 0 0)
(-2.71051e-14 1.39581e-14 0 0 4.22175e-14 0 0 0 0)
(-8.13152e-14 -2.26577e-14 0 2.71051e-14 3.81572e-14 0 0 0 0)
(-2.71051e-14 -2.51593e-14 0 0 1.28372e-14 0 0 0 0)
(0 -2.1707e-15 0 2.71051e-14 -2.55773e-15 0 0 0 0)
(0 1.06052e-14 0 0 8.72809e-15 0 0 0 0)
(0 2.31005e-15 0 0 1.06077e-14 0 0 0 0)
(2.71051e-14 5.03427e-15 0 0 6.81983e-15 0 0 0 0)
(-2.71051e-14 7.84265e-15 0 0 2.31791e-14 0 0 0 0)
(-2.71051e-14 -3.88747e-15 0 -5.42101e-14 1.60923e-14 0 0 0 0)
(-2.71051e-14 -1.05742e-14 0 0 7.91802e-15 0 0 0 0)
(0 3.72119e-16 0 0 6.56762e-15 0 0 0 0)
(0 1.29021e-15 0 -5.42101e-14 1.54378e-14 0 0 0 0)
(0 -1.49079e-14 0 0 -3.94911e-15 0 0 0 0)
(0 5.66505e-15 0 0 -2.03721e-14 0 0 0 0)
(2.98156e-13 1.3834e-12 0 1.16552e-12 -1.13253e-11 0 0 0 0)
(-6.23416e-13 -1.61572e-12 0 -4.87891e-13 2.39764e-12 0 0 0 0)
(1.6263e-13 3.24249e-13 0 -1.89735e-13 -5.64987e-13 0 0 0 0)
(5.42101e-14 -9.3091e-14 0 -1.6263e-13 1.1998e-13 0 0 0 0)
(-5.42101e-14 9.18028e-15 0 -1.0842e-13 -1.85072e-14 0 0 0 0)
(0 1.07521e-14 0 -1.6263e-13 -1.84869e-15 0 0 0 0)
(5.42101e-14 1.53628e-14 0 -1.35525e-13 -2.74104e-14 0 0 0 0)
(5.42101e-14 -6.72258e-15 0 -1.0842e-13 -1.87038e-14 0 0 0 0)
(2.71051e-14 -1.55556e-14 0 -5.42101e-14 -9.63562e-15 0 0 0 0)
(-2.71051e-14 -1.93839e-15 0 -1.0842e-13 -1.1335e-17 0 0 0 0)
(0 2.56027e-15 0 -8.13152e-14 -8.30869e-15 0 0 0 0)
(0 -4.21831e-15 0 -5.42101e-14 -1.54484e-14 0 0 0 0)
(2.71051e-14 7.53709e-15 0 0 -6.11836e-15 0 0 0 0)
(-2.71051e-14 1.42978e-15 0 -5.42101e-14 -1.12025e-14 0 0 0 0)
(2.71051e-14 -1.13736e-14 0 5.42101e-14 -1.54559e-14 0 0 0 0)
(5.42101e-14 1.04956e-15 0 2.71051e-14 -5.45281e-15 0 0 0 0)
(-5.42101e-14 7.14762e-15 0 0 1.55174e-14 0 0 0 0)
(0 -1.18069e-14 0 0 -1.68872e-15 0 0 0 0)
(5.42101e-14 -2.09019e-14 0 0 -1.8546e-14 0 0 0 0)
(0 1.86561e-14 0 0 -8.51287e-15 0 0 0 0)
(4.60786e-13 -3.7568e-12 0 -2.05998e-12 -1.97182e-12 0 0 0 0)
(-7.31836e-13 4.54027e-12 0 6.23416e-13 4.10295e-13 0 0 0 0)
(1.89735e-13 -9.62242e-13 0 1.0842e-13 -1.11067e-13 0 0 0 0)
(0 2.29389e-13 0 1.35525e-13 7.0898e-15 0 0 0 0)
(0 -5.03609e-14 0 8.13152e-14 2.08746e-15 0 0 0 0)
(0 2.76232e-15 0 8.13152e-14 1.11034e-14 0 0 0 0)
(0 -2.89702e-15 0 8.13152e-14 -9.43633e-15 0 0 0 0)
(0 -4.88292e-15 0 2.71051e-14 -1.72465e-14 0 0 0 0)
(0 -6.46684e-15 0 0 -1.45312e-14 0 0 0 0)
(0 -8.43766e-16 0 -5.42101e-14 -8.34642e-15 0 0 0 0)
(2.71051e-14 -4.83195e-15 0 0 -2.03406e-14 0 0 0 0)
(5.42101e-14 4.50039e-15 0 5.42101e-14 -1.23815e-14 0 0 0 0)
(0 9.28019e-15 0 0 -1.74866e-15 0 0 0 0)
(2.71051e-14 -1.49486e-15 0 5.42101e-14 -2.06745e-14 0 0 0 0)
(2.71051e-14 1.86225e-15 0 2.71051e-14 -1.14067e-14 0 0 0 0)
(-2.71051e-14 2.03991e-14 0 -2.71051e-14 -3.05024e-15 0 0 0 0)
(-2.71051e-14 4.13622e-15 0 -5.42101e-14 -1.86758e-15 0 0 0 0)
(0 -3.27732e-14 0 8.13152e-14 -6.04564e-15 0 0 0 0)
(0 -2.17321e-14 0 0 -4.17883e-15 0 0 0 0)
(0 3.27239e-14 0 2.71051e-14 -3.95399e-15 0 0 0 0)
(-1.19262e-12 -1.78122e-13 0 6.77626e-13 8.48435e-12 0 0 0 0)
(1.51788e-12 2.45035e-13 0 -8.13152e-14 -1.82114e-12 0 0 0 0)
(-3.52366e-13 -7.89572e-14 0 1.35525e-13 4.28961e-13 0 0 0 0)
(5.42101e-14 2.00636e-14 0 5.42101e-14 -9.586e-14 0 0 0 0)
(-2.71051e-14 1.31939e-14 0 5.42101e-14 2.32625e-14 0 0 0 0)
(-2.71051e-14 -7.71681e-16 0 5.42101e-14 7.05808e-15 0 0 0 0)
(0 -1.29871e-14 0 1.0842e-13 1.03085e-14 0 0 0 0)
(0 -1.18175e-14 0 5.42101e-14 6.14314e-15 0 0 0 0)
(-5.42101e-14 -6.65554e-15 0 5.42101e-14 2.47887e-14 0 0 0 0)
(-2.71051e-14 -7.74772e-15 0 8.13152e-14 8.78541e-15 0 0 0 0)
(0 -1.47476e-15 0 2.71051e-14 -1.08052e-14 0 0 0 0)
(2.71051e-14 1.43736e-14 0 0 -5.73282e-15 0 0 0 0)
(0 -7.5598e-16 0 0 2.73521e-16 0 0 0 0)
(0 -8.22822e-15 0 0 1.07342e-15 0 0 0 0)
(0 6.25071e-15 0 -2.71051e-14 1.20892e-14 0 0 0 0)
(-2.71051e-14 1.05886e-14 0 -5.42101e-14 4.64475e-15 0 0 0 0)
(8.13152e-14 4.15221e-15 0 0 -2.65407e-14 0 0 0 0)
(2.71051e-14 -1.41182e-14 0 -2.71051e-14 -2.22875e-14 0 0 0 0)
(0 -1.88102e-14 0 0 3.96396e-15 0 0 0 0)
(-2.71051e-14 2.67889e-14 0 2.71051e-14 7.90816e-15 0 0 0 0)
(1.02999e-12 2.90641e-12 0 1.21973e-12 -4.07413e-12 0 0 0 0)
(-1.27394e-12 -3.51512e-12 0 -2.98156e-13 8.9919e-13 0 0 0 0)
(3.52366e-13 7.63037e-13 0 5.42101e-14 -2.09259e-13 0 0 0 0)
(-8.13152e-14 -1.7631e-13 0 0 6.75887e-14 0 0 0 0)
(0 5.25571e-14 0 0 4.1417e-16 0 0 0 0)
(0 -1.01917e-14 0 2.71051e-14 5.26542e-15 0 0 0 0)
(0 -3.81196e-15 0 -2.71051e-14 1.44262e-14 0 0 0 0)
(-2.71051e-14 9.59724e-15 0 0 1.7633e-14 0 0 0 0)
(-2.71051e-14 -3.82458e-15 0 2.71051e-14 1.65828e-14 0 0 0 0)
(2.71051e-14 -3.64376e-14 0 8.13152e-14 3.28518e-15 0 0 0 0)
(2.71051e-14 -1.93502e-14 0 1.0842e-13 1.94268e-15 0 0 0 0)
(0 1.55791e-14 0 0 -5.18052e-15 0 0 0 0)
(0 1.60864e-14 0 2.71051e-14 -1.71611e-14 0 0 0 0)
(0 1.03208e-14 0 5.42101e-14 -2.38507e-16 0 0 0 0)
(0 5.43358e-15 0 5.42101e-14 9.58125e-15 0 0 0 0)
(-5.42101e-14 -1.82307e-14 0 1.0842e-13 1.43709e-14 0 0 0 0)
(-5.42101e-14 -2.2796e-14 0 8.13152e-14 -1.65433e-15 0 0 0 0)
(5.42101e-14 -2.26857e-15 0 0 -1.66703e-14 0 0 0 0)
(2.71051e-14 8.46356e-15 0 0 -2.03804e-16 0 0 0 0)
(-2.71051e-14 2.08518e-14 0 0 1.25843e-14 0 0 0 0)
(-2.71051e-13 -3.35307e-12 0 -1.27394e-12 -9.58455e-13 0 0 0 0)
(3.79471e-13 4.10991e-12 0 2.98156e-13 2.57714e-13 0 0 0 0)
(-5.42101e-14 -9.10559e-13 0 -8.13152e-14 -5.61052e-14 0 0 0 0)
(0 2.29737e-13 0 -5.42101e-14 3.21503e-14 0 0 0 0)
(-2.71051e-14 -4.91294e-14 0 -5.42101e-14 -6.63617e-15 0 0 0 0)
(-2.71051e-14 1.32403e-14 0 -2.71051e-14 2.23211e-18 0 0 0 0)
(0 -6.19491e-16 0 -2.71051e-14 8.22489e-15 0 0 0 0)
(0 -9.66089e-15 0 2.71051e-14 2.69908e-15 0 0 0 0)
(2.71051e-14 -2.10033e-14 0 2.71051e-14 -2.63233e-14 0 0 0 0)
(2.71051e-14 -2.23878e-14 0 2.71051e-14 -1.5069e-14 0 0 0 0)
(-5.42101e-14 -9.94047e-15 0 0 1.47928e-14 0 0 0 0)
(-5.42101e-14 -4.73013e-15 0 2.71051e-14 1.0803e-14 0 0 0 0)
(5.42101e-14 4.18603e-15 0 0 -4.71322e-15 0 0 0 0)
(0 1.85141e-14 0 -2.71051e-14 -9.05885e-16 0 0 0 0)
(2.71051e-14 2.08601e-14 0 -5.42101e-14 -1.09365e-14 0 0 0 0)
(2.71051e-14 -6.4694e-16 0 -5.42101e-14 -2.46486e-15 0 0 0 0)
(0 -2.6889e-14 0 2.71051e-14 1.64373e-14 0 0 0 0)
(-5.42101e-14 -1.26677e-14 0 0 1.4388e-14 0 0 0 0)
(5.42101e-14 1.04444e-14 0 0 7.59772e-15 0 0 0 0)
(-5.42101e-14 1.44085e-14 0 -2.71051e-14 6.15717e-15 0 0 0 0)
(8.13152e-14 2.20567e-12 0 -8.13152e-14 6.26675e-12 0 0 0 0)
(-5.42101e-14 -2.61277e-12 0 -1.0842e-13 -1.4134e-12 0 0 0 0)
(-2.71051e-14 5.37473e-13 0 -8.13152e-14 3.50417e-13 0 0 0 0)
(-5.42101e-14 -1.26841e-13 0 0 -7.79702e-14 0 0 0 0)
(5.42101e-14 2.04091e-14 0 0 6.19411e-15 0 0 0 0)
(0 4.66938e-15 0 -5.42101e-14 -1.5883e-14 0 0 0 0)
(5.42101e-14 -1.11512e-15 0 0 -2.44074e-14 0 0 0 0)
(0 -2.49509e-14 0 -2.71051e-14 -2.29747e-14 0 0 0 0)
(0 -2.15927e-14 0 0 -1.66354e-14 0 0 0 0)
(0 4.67851e-15 0 -2.71051e-14 -4.09667e-15 0 0 0 0)
(0 6.5218e-15 0 -2.71051e-14 5.19268e-15 0 0 0 0)
(0 -3.92698e-15 0 2.71051e-14 1.08412e-15 0 0 0 0)
(0 4.37757e-15 0 -2.71051e-14 7.16314e-15 0 0 0 0)
(-2.71051e-14 4.09755e-15 0 -2.71051e-14 1.11832e-14 0 0 0 0)
(-2.71051e-14 3.87461e-15 0 -5.42101e-14 -4.12853e-16 0 0 0 0)
(0 9.14306e-15 0 -5.42101e-14 -1.95543e-14 0 0 0 0)
(0 -5.94312e-15 0 -2.71051e-14 -1.27619e-14 0 0 0 0)
(0 -1.11082e-14 0 0 6.11885e-15 0 0 0 0)
(0 2.327e-16 0 0 1.13521e-15 0 0 0 0)
(0 7.09688e-15 0 -2.71051e-14 -2.57225e-15 0 0 0 0)
(-4.33681e-13 1.50028e-12 0 6.50521e-13 -8.93401e-12 0 0 0 0)
(3.52366e-13 -1.80642e-12 0 -1.89735e-13 1.90185e-12 0 0 0 0)
(0 4.24874e-13 0 5.42101e-14 -4.48972e-13 0 0 0 0)
(1.0842e-13 -1.14486e-13 0 2.71051e-14 8.26657e-14 0 0 0 0)
(-8.13152e-14 1.29578e-14 0 0 -1.96235e-14 0 0 0 0)
(-2.71051e-14 -1.73612e-14 0 5.42101e-14 -1.48541e-14 0 0 0 0)
(2.71051e-14 -7.71119e-15 0 5.42101e-14 -3.16512e-14 0 0 0 0)
(5.42101e-14 -1.88894e-15 0 0 -2.62446e-14 0 0 0 0)
(2.71051e-14 -2.12527e-15 0 0 -3.78699e-15 0 0 0 0)
(-2.71051e-14 -5.59716e-16 0 0 3.82642e-15 0 0 0 0)
(0 -4.75967e-15 0 0 5.96677e-15 0 0 0 0)
(-5.42101e-14 -2.75967e-15 0 -2.71051e-14 8.40436e-15 0 0 0 0)
(0 1.42851e-14 0 0 1.05338e-14 0 0 0 0)
(0 1.09381e-14 0 0 3.89773e-15 0 0 0 0)
(0 -9.8774e-15 0 5.42101e-14 1.81223e-15 0 0 0 0)
(5.42101e-14 -1.2996e-14 0 5.42101e-14 -1.84093e-14 0 0 0 0)
(0 -1.21588e-15 0 -2.71051e-14 -2.28929e-14 0 0 0 0)
(0 1.22946e-15 0 2.71051e-14 -5.02284e-15 0 0 0 0)
(0 1.75327e-15 0 0 3.88044e-15 0 0 0 0)
(0 1.58455e-14 0 0 8.91134e-16 0 0 0 0)
(5.69206e-13 -4.82649e-12 0 -3.79471e-13 3.48307e-12 0 0 0 0)
(-6.50521e-13 5.87228e-12 0 2.71051e-13 -6.72925e-13 0 0 0 0)
(1.89735e-13 -1.28171e-12 0 8.13152e-14 1.29391e-13 0 0 0 0)
(-1.0842e-13 3.02507e-13 0 -2.71051e-14 -4.14712e-14 0 0 0 0)
(5.42101e-14 -7.71107e-14 0 0 -3.53316e-15 0 0 0 0)
(2.71051e-14 -7.35838e-15 0 5.42101e-14 -7.19645e-15 0 0 0 0)
(0 -1.25056e-14 0 0 4.7455e-15 0 0 0 0)
(-2.71051e-14 2.9133e-15 0 5.42101e-14 6.68626e-15 0 0 0 0)
(0 8.47833e-15 0 -5.42101e-14 9.49227e-15 0 0 0 0)
(0 1.44323e-14 0 -2.71051e-14 3.47504e-16 0 0 0 0)
(0 1.10997e-14 0 0 -4.6367e-15 0 0 0 0)
(2.71051e-14 6.40052e-16 0 -2.71051e-14 1.81628e-14 0 0 0 0)
(-2.71051e-14 -1.29055e-16 0 2.71051e-14 1.94671e-14 0 0 0 0)
(0 -4.62403e-15 0 0 -5.14956e-15 0 0 0 0)
(0 -1.84325e-14 0 2.71051e-14 -1.07911e-14 0 0 0 0)
(-2.71051e-14 -1.55621e-14 0 5.42101e-14 6.09356e-15 0 0 0 0)
(0 7.44338e-15 0 0 1.06744e-14 0 0 0 0)
(0 1.56652e-14 0 2.71051e-14 9.37952e-15 0 0 0 0)
(0 6.14668e-15 0 0 1.21573e-14 0 0 0 0)
(-2.71051e-14 2.32531e-15 0 0 7.74342e-15 0 0 0 0)
(-5.69206e-13 4.31043e-12 0 -1.81604e-12 3.15071e-12 0 0 0 0)
(8.40257e-13 -5.1601e-12 0 3.25261e-13 -7.87802e-13 0 0 0 0)
(-2.71051e-13 1.05633e-12 0 -2.71051e-13 1.99467e-13 0 0 0 0)
(2.71051e-14 -2.4741e-13 0 0 -3.9125e-14 0 0 0 0)
(2.71051e-14 4.72325e-14 0 -5.42101e-14 7.91507e-15 0 0 0 0)
(-2.71051e-14 -9.08251e-15 0 -1.0842e-13 -2.99392e-15 0 0 0 0)
(-2.71051e-14 6.17152e-15 0 -1.0842e-13 -8.47194e-16 0 0 0 0)
(0 2.85783e-15 0 -1.0842e-13 7.7004e-15 0 0 0 0)
(0 -8.46403e-15 0 -5.42101e-14 1.24689e-14 0 0 0 0)
(-5.42101e-14 -1.46887e-14 0 -5.42101e-14 2.91614e-15 0 0 0 0)
(0 1.30556e-14 0 -8.13152e-14 -1.18851e-14 0 0 0 0)
(0 2.13441e-14 0 -8.13152e-14 -9.1593e-15 0 0 0 0)
(0 -9.02719e-15 0 -2.71051e-14 -1.43862e-14 0 0 0 0)
(5.42101e-14 -1.93201e-14 0 0 -2.62919e-14 0 0 0 0)
(2.71051e-14 1.36573e-15 0 -2.71051e-14 -2.19036e-14 0 0 0 0)
(-2.71051e-14 8.46952e-15 0 -5.42101e-14 1.31973e-14 0 0 0 0)
(0 2.07007e-15 0 0 2.04591e-14 0 0 0 0)
(0 2.71231e-15 0 -5.42101e-14 9.81087e-15 0 0 0 0)
(0 1.17174e-16 0 0 1.87783e-15 0 0 0 0)
(0 -4.05521e-15 0 0 -2.49763e-15 0 0 0 0)
(-9.21572e-13 -2.46358e-12 0 3.25261e-12 -3.70245e-12 0 0 0 0)
(9.21572e-13 2.92103e-12 0 -6.23416e-13 7.33567e-13 0 0 0 0)
(-1.89735e-13 -5.33036e-13 0 2.71051e-13 -1.59541e-13 0 0 0 0)
(1.35525e-13 1.10956e-13 0 0 3.3694e-14 0 0 0 0)
(-2.71051e-14 -4.09797e-14 0 1.0842e-13 4.21509e-15 0 0 0 0)
(-5.42101e-14 -1.61206e-14 0 5.42101e-14 8.68852e-15 0 0 0 0)
(5.42101e-14 -1.81128e-15 0 1.0842e-13 -1.0219e-14 0 0 0 0)
(0 1.62294e-14 0 5.42101e-14 -1.53418e-14 0 0 0 0)
(2.71051e-14 3.69406e-15 0 5.42101e-14 -2.19542e-14 0 0 0 0)
(0 -9.92173e-15 0 1.0842e-13 3.62096e-15 0 0 0 0)
(-2.71051e-14 -9.75693e-16 0 5.42101e-14 1.5381e-14 0 0 0 0)
(2.71051e-14 -1.86107e-15 0 8.13152e-14 -1.03911e-14 0 0 0 0)
(8.13152e-14 -1.72616e-14 0 2.71051e-14 -2.30141e-14 0 0 0 0)
(0 -1.21414e-14 0 2.71051e-14 -1.24702e-14 0 0 0 0)
(-2.71051e-14 2.10567e-14 0 2.71051e-14 -2.32713e-15 0 0 0 0)
(0 2.68006e-14 0 0 -9.6734e-17 0 0 0 0)
(0 4.05696e-15 0 5.42101e-14 1.06805e-14 0 0 0 0)
(0 -2.91613e-15 0 0 1.13706e-14 0 0 0 0)
(0 -6.16182e-15 0 2.71051e-14 4.0531e-15 0 0 0 0)
(0 2.94511e-15 0 2.71051e-14 -6.0186e-16 0 0 0 0)
(2.05998e-12 1.34154e-12 0 -6.50521e-13 2.71181e-12 0 0 0 0)
(-2.1413e-12 -1.61719e-12 0 2.71051e-14 -3.98488e-13 0 0 0 0)
(3.52366e-13 3.56455e-13 0 -2.71051e-14 8.36594e-14 0 0 0 0)
(-1.6263e-13 -8.36532e-14 0 2.71051e-14 -2.15765e-14 0 0 0 0)
(8.13152e-14 2.22271e-14 0 0 3.68785e-15 0 0 0 0)
(-2.71051e-14 -2.35166e-14 0 5.42101e-14 2.30933e-14 0 0 0 0)
(-2.71051e-14 -1.78588e-14 0 0 3.19385e-14 0 0 0 0)
(-5.42101e-14 -8.8773e-15 0 5.42101e-14 2.10005e-14 0 0 0 0)
(0 1.04988e-14 0 0 -2.65384e-15 0 0 0 0)
(0 2.26465e-14 0 -2.71051e-14 -1.94582e-15 0 0 0 0)
(-2.71051e-14 -9.56514e-16 0 0 7.64699e-16 0 0 0 0)
(0 -1.7051e-14 0 0 1.39248e-15 0 0 0 0)
(-2.71051e-14 -1.11062e-14 0 -2.71051e-14 7.14989e-15 0 0 0 0)
(0 1.36686e-15 0 -2.71051e-14 2.10856e-14 0 0 0 0)
(0 1.37392e-14 0 -8.13152e-14 2.19156e-14 0 0 0 0)
(2.71051e-14 2.14772e-14 0 -8.13152e-14 -8.50235e-15 0 0 0 0)
(0 1.35374e-14 0 -1.0842e-13 -4.34727e-15 0 0 0 0)
(-2.71051e-14 -3.91512e-15 0 -5.42101e-14 -4.98682e-17 0 0 0 0)
(2.71051e-14 -1.18552e-14 0 -8.13152e-14 -7.92451e-15 0 0 0 0)
(-5.42101e-14 -7.50645e-15 0 -2.71051e-14 -2.47569e-15 0 0 0 0)
(-1.54499e-12 -1.5026e-13 0 -2.24972e-12 -4.11786e-12 0 0 0 0)
(1.49078e-12 2.92881e-13 0 3.79471e-13 8.17902e-13 0 0 0 0)
(-1.35525e-13 -1.56125e-13 0 -2.43945e-13 -2.21483e-13 0 0 0 0)
(1.35525e-13 3.09842e-14 0 -2.71051e-14 2.74609e-14 0 0 0 0)
(0 3.69011e-15 0 -1.0842e-13 -3.18327e-14 0 0 0 0)
(0 1.213e-14 0 -5.42101e-14 -1.20533e-14 0 0 0 0)
(0 -3.90402e-15 0 -5.42101e-14 4.7798e-15 0 0 0 0)
(0 -1.8363e-14 0 -2.71051e-14 1.79372e-14 0 0 0 0)
(-2.71051e-14 -1.92523e-14 0 0 1.80933e-14 0 0 0 0)
(0 -6.50318e-15 0 -2.71051e-14 -3.62032e-15 0 0 0 0)
(0 2.3626e-15 0 0 -1.13091e-14 0 0 0 0)
(2.71051e-14 4.52412e-15 0 -5.42101e-14 -8.18663e-15 0 0 0 0)
(0 2.43152e-15 0 5.42101e-14 4.76357e-15 0 0 0 0)
(-2.71051e-14 2.62435e-15 0 0 2.33232e-14 0 0 0 0)
(-1.0842e-13 -8.53129e-15 0 5.42101e-14 2.03722e-14 0 0 0 0)
(0 5.37711e-16 0 2.71051e-14 2.75346e-15 0 0 0 0)
(0 1.25094e-14 0 0 -1.06471e-14 0 0 0 0)
(1.0842e-13 -6.49337e-15 0 0 -2.20243e-14 0 0 0 0)
(2.71051e-14 -8.58764e-15 0 5.42101e-14 -2.40941e-14 0 0 0 0)
(5.42101e-14 1.33453e-14 0 0 -8.21689e-15 0 0 0 0)
(1.89735e-13 -1.95841e-12 0 1.95156e-12 5.58161e-12 0 0 0 0)
(-1.35525e-13 2.27918e-12 0 -1.89735e-13 -1.30602e-12 0 0 0 0)
(-5.42101e-14 -4.33987e-13 0 2.1684e-13 2.70754e-13 0 0 0 0)
(0 1.05997e-13 0 0 -7.59838e-14 0 0 0 0)
(2.71051e-14 -1.72872e-14 0 5.42101e-14 6.72339e-15 0 0 0 0)
(0 1.30959e-14 0 2.71051e-14 -2.30186e-14 0 0 0 0)
(2.71051e-14 1.21317e-14 0 0 -2.24491e-14 0 0 0 0)
(2.71051e-14 4.43619e-15 0 0 -2.39186e-14 0 0 0 0)
(0 -1.10588e-14 0 8.13152e-14 -4.75361e-15 0 0 0 0)
(0 -6.75588e-15 0 5.42101e-14 1.0416e-14 0 0 0 0)
(-2.71051e-14 -5.52282e-15 0 5.42101e-14 1.0759e-14 0 0 0 0)
(0 -9.78312e-16 0 1.0842e-13 -3.74751e-15 0 0 0 0)
(0 2.04036e-14 0 0 7.50721e-15 0 0 0 0)
(0 1.69755e-14 0 5.42101e-14 8.95952e-15 0 0 0 0)
(5.42101e-14 -6.83057e-15 0 5.42101e-14 9.39148e-15 0 0 0 0)
(-2.71051e-14 -9.54208e-15 0 1.0842e-13 2.25683e-14 0 0 0 0)
(-2.71051e-14 -1.12404e-14 0 1.0842e-13 1.07818e-14 0 0 0 0)
(0 -1.73621e-14 0 8.13152e-14 -3.45734e-15 0 0 0 0)
(0 1.9522e-15 0 5.42101e-14 4.06874e-15 0 0 0 0)
(-5.42101e-14 2.48045e-14 0 2.71051e-14 8.03057e-15 0 0 0 0)
(1.89735e-13 4.12533e-12 0 -2.1684e-13 -3.19583e-12 0 0 0 0)
(-2.43945e-13 -5.01798e-12 0 -8.13152e-14 7.60046e-13 0 0 0 0)
(5.42101e-14 1.07391e-12 0 -8.13152e-14 -1.41277e-13 0 0 0 0)
(0 -2.33046e-13 0 -5.42101e-14 6.17536e-14 0 0 0 0)
(0 5.66553e-14 0 -5.42101e-14 1.42644e-16 0 0 0 0)
(2.71051e-14 -1.70425e-14 0 -2.71051e-14 -3.53272e-15 0 0 0 0)
(-2.71051e-14 -4.804e-15 0 -5.42101e-14 -9.06028e-15 0 0 0 0)
(2.71051e-14 -6.67425e-16 0 -2.71051e-14 -2.7478e-14 0 0 0 0)
(2.71051e-14 1.50823e-14 0 -8.13152e-14 -1.36458e-14 0 0 0 0)
(-2.71051e-14 9.00938e-15 0 -1.0842e-13 4.33191e-15 0 0 0 0)
(2.71051e-14 -1.18009e-14 0 -5.42101e-14 -3.95525e-15 0 0 0 0)
(0 1.27237e-15 0 -1.0842e-13 3.04107e-15 0 0 0 0)
(-2.71051e-14 1.51385e-14 0 -1.0842e-13 1.54957e-14 0 0 0 0)
(-2.71051e-14 4.50862e-15 0 -5.42101e-14 4.54784e-15 0 0 0 0)
(0 5.07752e-15 0 -5.42101e-14 3.27119e-15 0 0 0 0)
(-5.42101e-14 1.92798e-15 0 -1.35525e-13 1.59894e-15 0 0 0 0)
(5.42101e-14 -1.35162e-14 0 -5.42101e-14 -1.22563e-14 0 0 0 0)
(0 -1.32064e-14 0 -2.71051e-14 -4.77174e-16 0 0 0 0)
(0 2.90027e-15 0 -5.42101e-14 1.47296e-14 0 0 0 0)
(0 1.24601e-15 0 -2.71051e-14 9.27577e-15 0 0 0 0)
(-8.13152e-14 -4.39419e-12 0 -9.48677e-13 -4.36841e-12 0 0 0 0)
(0 5.33373e-12 0 2.43945e-13 9.3725e-13 0 0 0 0)
(0 -1.13228e-12 0 5.42101e-14 -1.94984e-13 0 0 0 0)
(0 2.47417e-13 0 0 5.05497e-14 0 0 0 0)
(2.71051e-14 -8.25735e-14 0 1.0842e-13 -1.90099e-14 0 0 0 0)
(-2.71051e-14 3.893e-15 0 0 5.30616e-15 0 0 0 0)
(0 -1.18135e-14 0 5.42101e-14 1.23454e-14 0 0 0 0)
(0 -1.49329e-16 0 0 1.25342e-14 0 0 0 0)
(0 2.07511e-14 0 -5.42101e-14 9.18561e-15 0 0 0 0)
(0 2.93466e-15 0 0 -5.3534e-15 0 0 0 0)
(0 -6.81366e-15 0 0 -5.38853e-15 0 0 0 0)
(-5.42101e-14 1.84726e-14 0 -2.71051e-14 8.21758e-15 0 0 0 0)
(5.42101e-14 2.19104e-14 0 -2.71051e-14 -1.02141e-14 0 0 0 0)
(2.71051e-14 4.75096e-15 0 -5.42101e-14 -1.15554e-14 0 0 0 0)
(0 -9.77946e-15 0 0 -9.70297e-15 0 0 0 0)
(0 -2.50695e-14 0 2.71051e-14 -1.13012e-14 0 0 0 0)
(5.42101e-14 -1.33165e-14 0 0 -2.38836e-14 0 0 0 0)
(0 9.62378e-15 0 0 -6.78157e-15 0 0 0 0)
(0 1.17051e-14 0 0 1.20921e-15 0 0 0 0)
(0 7.99111e-16 0 0 -6.11669e-15 0 0 0 0)
(-5.42101e-13 6.94176e-13 0 -2.71051e-14 1.182e-11 0 0 0 0)
(7.58942e-13 -8.44555e-13 0 2.71051e-14 -2.49887e-12 0 0 0 0)
(-1.89735e-13 1.87211e-13 0 -5.42101e-14 5.71181e-13 0 0 0 0)
(2.71051e-14 -5.70721e-14 0 5.42101e-14 -1.44848e-13 0 0 0 0)
(2.71051e-14 1.14117e-14 0 -5.42101e-14 2.00391e-14 0 0 0 0)
(-2.71051e-14 1.43127e-14 0 2.71051e-14 2.73485e-15 0 0 0 0)
(-2.71051e-14 2.42408e-15 0 2.71051e-14 1.31118e-14 0 0 0 0)
(-2.71051e-14 -3.82722e-15 0 0 3.1955e-14 0 0 0 0)
(-5.42101e-14 -2.8053e-15 0 8.13152e-14 1.89304e-14 0 0 0 0)
(0 -5.56477e-15 0 5.42101e-14 -3.83864e-15 0 0 0 0)
(5.42101e-14 1.77005e-15 0 2.71051e-14 4.9114e-15 0 0 0 0)
(-5.42101e-14 -3.55317e-15 0 1.0842e-13 1.5639e-14 0 0 0 0)
(0 -4.63442e-15 0 2.71051e-14 -4.17482e-15 0 0 0 0)
(0 5.01973e-15 0 5.42101e-14 -1.27349e-14 0 0 0 0)
(5.42101e-14 5.33176e-15 0 0 -1.42941e-14 0 0 0 0)
(0 -1.22527e-14 0 8.13152e-14 2.38288e-16 0 0 0 0)
(0 -8.99665e-15 0 0 6.76615e-15 0 0 0 0)
(0 1.18864e-14 0 -5.42101e-14 7.78385e-15 0 0 0 0)
(0 3.56515e-15 0 0 3.62251e-15 0 0 0 0)
(0 6.15348e-15 0 0 -7.8955e-15 0 0 0 0)
(-8.13152e-14 4.92692e-12 0 1.89735e-12 -5.59684e-12 0 0 0 0)
(2.71051e-14 -5.91507e-12 0 -5.42101e-13 1.14334e-12 0 0 0 0)
(-2.71051e-14 1.22174e-12 0 0 -2.85776e-13 0 0 0 0)
(2.71051e-14 -3.03725e-13 0 -8.13152e-14 4.11472e-14 0 0 0 0)
(-2.71051e-14 6.50097e-14 0 -5.42101e-14 -2.31177e-14 0 0 0 0)
(2.71051e-14 -3.0343e-15 0 -8.13152e-14 -1.89116e-14 0 0 0 0)
(8.13152e-14 1.74066e-14 0 -8.13152e-14 -2.25495e-14 0 0 0 0)
(0 5.66925e-15 0 -5.42101e-14 -5.27412e-15 0 0 0 0)
(2.71051e-14 -1.50425e-14 0 -2.71051e-14 -9.8417e-15 0 0 0 0)
(0 -1.10843e-14 0 0 -5.67919e-15 0 0 0 0)
(0 1.2664e-14 0 -2.71051e-14 1.4645e-15 0 0 0 0)
(0 9.38643e-15 0 -2.71051e-14 4.61765e-15 0 0 0 0)
(0 -6.46356e-15 0 0 1.49976e-14 0 0 0 0)
(0 -5.36829e-15 0 0 1.14559e-14 0 0 0 0)
(-2.71051e-14 3.19371e-15 0 -5.42101e-14 2.82011e-15 0 0 0 0)
(0 -4.00931e-15 0 -2.71051e-14 -1.05129e-14 0 0 0 0)
(-2.71051e-14 -5.77099e-15 0 0 6.69741e-15 0 0 0 0)
(0 6.48014e-15 0 5.42101e-14 8.52729e-15 0 0 0 0)
(2.71051e-14 -3.9742e-15 0 2.71051e-14 2.59389e-15 0 0 0 0)
(-2.71051e-14 5.0721e-15 0 2.71051e-14 2.26571e-15 0 0 0 0)
(8.13152e-13 -3.75933e-12 0 -1.35525e-13 -1.0335e-11 0 0 0 0)
(-1.16552e-12 4.46651e-12 0 2.1684e-13 2.0829e-12 0 0 0 0)
(2.98156e-13 -9.14981e-13 0 1.6263e-13 -5.23439e-13 0 0 0 0)
(0 2.05586e-13 0 8.13152e-14 9.4451e-14 0 0 0 0)
(0 -4.86471e-14 0 1.35525e-13 -1.9602e-14 0 0 0 0)
(0 1.48809e-14 0 5.42101e-14 9.50146e-15 0 0 0 0)
(-2.71051e-14 1.60616e-14 0 5.42101e-14 5.68039e-15 0 0 0 0)
(0 8.88059e-15 0 5.42101e-14 -6.16429e-15 0 0 0 0)
(2.71051e-14 -3.21038e-15 0 2.71051e-14 -1.1725e-14 0 0 0 0)
(0 5.74144e-15 0 0 2.19954e-15 0 0 0 0)
(-2.71051e-14 1.20669e-14 0 0 1.11695e-14 0 0 0 0)
(0 9.97995e-15 0 0 -1.95069e-15 0 0 0 0)
(0 2.20381e-15 0 5.42101e-14 -2.64555e-15 0 0 0 0)
(2.71051e-14 -7.15777e-15 0 2.71051e-14 -3.91619e-15 0 0 0 0)
(0 -1.6637e-14 0 5.42101e-14 -9.29578e-15 0 0 0 0)
(5.42101e-14 -8.37538e-15 0 0 -1.93567e-14 0 0 0 0)
(0 1.00436e-14 0 0 -6.93188e-16 0 0 0 0)
(2.71051e-14 7.78293e-15 0 -5.42101e-14 5.17639e-15 0 0 0 0)
(0 -2.69642e-15 0 -2.71051e-14 2.48025e-16 0 0 0 0)
(-2.71051e-14 1.29387e-15 0 0 5.83617e-15 0 0 0 0)
(2.71051e-14 -3.32517e-12 0 -9.75782e-13 8.81607e-12 0 0 0 0)
(2.71051e-13 3.89648e-12 0 1.35525e-13 -1.73157e-12 0 0 0 0)
(-1.0842e-13 -7.66706e-13 0 -1.0842e-13 4.5308e-13 0 0 0 0)
(-2.71051e-14 2.00112e-13 0 0 -4.9884e-14 0 0 0 0)
(-5.42101e-14 -1.99398e-14 0 -8.13152e-14 4.7381e-14 0 0 0 0)
(-5.42101e-14 2.22481e-14 0 0 1.87029e-14 0 0 0 0)
(0 1.74089e-15 0 0 1.0252e-14 0 0 0 0)
(5.42101e-14 -1.17361e-14 0 0 9.00364e-16 0 0 0 0)
(-2.71051e-14 -6.67871e-15 0 -2.71051e-14 1.31076e-14 0 0 0 0)
(-2.71051e-14 1.18101e-14 0 0 1.07894e-14 0 0 0 0)
(0 8.51379e-15 0 0 -4.44401e-15 0 0 0 0)
(0 -4.42859e-15 0 0 -9.79123e-15 0 0 0 0)
(0 -8.42906e-15 0 0 -9.99537e-15 0 0 0 0)
(0 -1.20185e-14 0 -2.71051e-14 -3.56598e-15 0 0 0 0)
(0 -1.22468e-14 0 0 9.18093e-15 0 0 0 0)
(-2.71051e-14 4.59328e-15 0 0 2.53178e-14 0 0 0 0)
(-8.13152e-14 1.87621e-14 0 0 1.2963e-14 0 0 0 0)
(5.42101e-14 7.42135e-15 0 5.42101e-14 -3.48781e-15 0 0 0 0)
(2.71051e-14 -3.31442e-15 0 0 -2.24126e-15 0 0 0 0)
(-2.71051e-14 -1.01209e-15 0 -2.71051e-14 2.52304e-15 0 0 0 0)
)
;

boundaryField
{
    movingWall
    {
        type            extrapolatedCalculated;
        value           nonuniform List<tensor> 
20
(
(2.71051e-14 -3.32517e-12 0 7.99361e-13 1.64522e-11 0 0 0 0)
(2.71051e-13 3.89648e-12 0 -8.43769e-13 -3.15149e-12 0 0 0 0)
(-1.0842e-13 -7.66706e-13 0 -4.44089e-13 8.66262e-13 0 0 0 0)
(-2.71051e-14 2.00112e-13 0 -2.66454e-13 -8.46703e-14 0 0 0 0)
(-5.42101e-14 -1.99398e-14 0 -3.10862e-13 6.58122e-14 0 0 0 0)
(-5.42101e-14 2.22481e-14 0 -1.33227e-13 -4.91103e-15 0 0 0 0)
(0 1.74089e-15 0 -8.88178e-14 -2.31801e-14 0 0 0 0)
(5.42101e-14 -1.17361e-14 0 -1.77636e-13 -1.18746e-14 0 0 0 0)
(-2.71051e-14 -6.67871e-15 0 -2.22045e-13 2.37644e-14 0 0 0 0)
(-2.71051e-14 1.18101e-14 0 -8.88178e-14 1.48403e-14 0 0 0 0)
(0 8.51379e-15 0 -8.88178e-14 -2.34761e-14 0 0 0 0)
(0 -4.42859e-15 0 -8.88178e-14 -1.92149e-14 0 0 0 0)
(0 -8.42906e-15 0 -8.88178e-14 -5.76174e-15 0 0 0 0)
(0 -1.20185e-14 0 -1.33227e-13 1.45013e-14 0 0 0 0)
(0 -1.22468e-14 0 -1.33227e-13 4.23123e-14 0 0 0 0)
(-2.71051e-14 4.59328e-15 0 -8.88178e-14 6.34884e-14 0 0 0 0)
(-8.13152e-14 1.87621e-14 0 0 2.39392e-14 0 0 0 0)
(5.42101e-14 7.42135e-15 0 8.88178e-14 -1.15599e-14 0 0 0 0)
(2.71051e-14 -3.31442e-15 0 0 -5.7462e-15 0 0 0 0)
(-2.71051e-14 -1.01209e-15 0 -4.44089e-14 1.69782e-15 0 0 0 0)
)
;
    }
    fixedWalls
    {
        type            extrapolatedCalculated;
        value           nonuniform List<tensor> 
60
(
(-1.86517e-12 2.62061e-11 0 0 8.26577e-12 0 0 0 0)
(1.90958e-12 6.85694e-12 0 1.16552e-12 -1.13253e-11 0 0 0 0)
(2.79776e-12 -1.90952e-11 0 -2.05998e-12 -1.97182e-12 0 0 0 0)
(-6.30607e-12 -1.03035e-12 0 6.77626e-13 8.48435e-12 0 0 0 0)
(5.4623e-12 1.48422e-11 0 1.21973e-12 -4.07413e-12 0 0 0 0)
(-1.42109e-12 -1.73269e-11 0 -1.27394e-12 -9.58455e-13 0 0 0 0)
(3.55271e-13 1.10084e-11 0 -8.13152e-14 6.26675e-12 0 0 0 0)
(-1.77636e-12 7.74011e-12 0 6.50521e-13 -8.93401e-12 0 0 0 0)
(3.01981e-12 -2.47276e-11 0 -3.79471e-13 3.48307e-12 0 0 0 0)
(-3.37508e-12 2.16724e-11 0 -1.81604e-12 3.15071e-12 0 0 0 0)
(-4.26326e-12 -1.21248e-11 0 3.25261e-12 -3.70245e-12 0 0 0 0)
(9.68114e-12 6.86259e-12 0 -6.50521e-13 2.71181e-12 0 0 0 0)
(-6.83897e-12 -1.27756e-12 0 -2.24972e-12 -4.11786e-12 0 0 0 0)
(5.77316e-13 -9.60883e-12 0 1.95156e-12 5.58161e-12 0 0 0 0)
(9.76996e-13 2.10489e-11 0 -2.1684e-13 -3.19583e-12 0 0 0 0)
(-1.77636e-13 -2.23922e-11 0 -9.48677e-13 -4.36841e-12 0 0 0 0)
(-2.93099e-12 3.57527e-12 0 -2.71051e-14 1.182e-11 0 0 0 0)
(-2.66454e-13 2.48878e-11 0 1.89735e-12 -5.59684e-12 0 0 0 0)
(4.70735e-12 -1.88121e-11 0 -1.35525e-13 -1.0335e-11 0 0 0 0)
(-7.99361e-13 -1.64522e-11 0 -9.75782e-13 8.81607e-12 0 0 0 0)
(8.88178e-14 3.09938e-14 0 0 -2.03721e-14 0 0 0 0)
(0 5.04944e-14 0 0 -8.51287e-15 0 0 0 0)
(0 6.50453e-14 0 2.71051e-14 -3.95399e-15 0 0 0 0)
(-8.88178e-14 6.63103e-14 0 2.71051e-14 7.90816e-15 0 0 0 0)
(-8.88178e-14 3.34127e-14 0 0 1.25843e-14 0 0 0 0)
(-8.88178e-14 1.59732e-14 0 -2.71051e-14 6.15717e-15 0 0 0 0)
(0 8.78398e-15 0 -2.71051e-14 -2.57225e-15 0 0 0 0)
(0 2.62622e-14 0 0 8.91134e-16 0 0 0 0)
(0 5.21944e-15 0 0 7.74342e-15 0 0 0 0)
(0 -4.71144e-15 0 0 -2.49763e-15 0 0 0 0)
(0 1.521e-14 0 2.71051e-14 -6.0186e-16 0 0 0 0)
(-8.88178e-14 -2.304e-15 0 -2.71051e-14 -2.47569e-15 0 0 0 0)
(8.88178e-14 2.51127e-14 0 0 -8.21689e-15 0 0 0 0)
(-8.88178e-14 3.05636e-14 0 2.71051e-14 8.03057e-15 0 0 0 0)
(0 -7.00956e-15 0 -2.71051e-14 9.27577e-15 0 0 0 0)
(0 -6.5395e-15 0 0 -6.11669e-15 0 0 0 0)
(0 1.74572e-14 0 0 -7.8955e-15 0 0 0 0)
(-4.44089e-14 2.50425e-14 0 2.71051e-14 2.26571e-15 0 0 0 0)
(-4.44089e-14 8.39432e-15 0 0 5.83617e-15 0 0 0 0)
(-4.44089e-14 1.69782e-15 0 -2.71051e-14 2.52304e-15 0 0 0 0)
(-2.1684e-13 5.17088e-12 0 -1.86517e-12 2.62061e-11 0 0 0 0)
(5.96311e-13 -6.22006e-12 0 1.06581e-12 -5.5226e-12 0 0 0 0)
(-1.89735e-13 1.31542e-12 0 4.44089e-13 1.32588e-12 0 0 0 0)
(0 -3.17092e-13 0 3.9968e-13 -2.60924e-13 0 0 0 0)
(0 7.14675e-14 0 3.55271e-13 5.75101e-14 0 0 0 0)
(0 1.16656e-14 0 3.9968e-13 2.49464e-14 0 0 0 0)
(-2.71051e-14 1.39581e-14 0 3.55271e-13 1.04173e-13 0 0 0 0)
(-8.13152e-14 -2.26577e-14 0 2.66454e-13 8.07789e-14 0 0 0 0)
(-2.71051e-14 -2.51593e-14 0 8.88178e-14 1.35415e-14 0 0 0 0)
(0 -2.1707e-15 0 1.33227e-13 -1.98585e-14 0 0 0 0)
(0 1.06052e-14 0 1.77636e-13 4.85876e-15 0 0 0 0)
(0 2.31005e-15 0 8.88178e-14 2.25621e-14 0 0 0 0)
(2.71051e-14 5.03427e-15 0 1.33227e-13 1.4099e-14 0 0 0 0)
(-2.71051e-14 7.84265e-15 0 1.77636e-13 4.26992e-14 0 0 0 0)
(-2.71051e-14 -3.88747e-15 0 4.44089e-14 4.54696e-14 0 0 0 0)
(-2.71051e-14 -1.05742e-14 0 0 2.71494e-14 0 0 0 0)
(0 3.72119e-16 0 0 3.17278e-15 0 0 0 0)
(0 1.29021e-15 0 -8.88178e-14 2.86378e-14 0 0 0 0)
(0 -1.49079e-14 0 4.44089e-14 8.33363e-15 0 0 0 0)
(0 5.66505e-15 0 -8.88178e-14 -3.09938e-14 0 0 0 0)
)
;
    }
    frontAndBack
    {
        type            empty;
    }
}


// ************************************************************************* //
