/*--------------------------------*- C++ -*----------------------------------*\
| =========                 |                                                 |
| \\      /  F ield         | OpenFOAM: The Open Source CFD Toolbox           |
|  \\    /   O peration     | Version:  2312                                  |
|   \\  /    A nd           | Website:  www.openfoam.com                      |
|    \\/     M anipulation  |                                                 |
\*---------------------------------------------------------------------------*/
FoamFile
{
    version     2.0;
    format      ascii;
    arch        "LSB;label=32;scalar=64";
    class       volScalarField;
    location    "8.375";
    object      Lambda2Field;
}
// * * * * * * * * * * * * * * * * * * * * * * * * * * * * * * * * * * * * * //

dimensions      [0 0 -2 0 0 0 0];

internalField   nonuniform List<scalar> 
400
(
4.70198e-26
1.86992e-25
3.59995e-26
-1.20327e-26
3.87426e-27
3.16197e-28
7.34684e-28
8.41834e-28
3.23041e-28
-5.22949e-29
0
0
5.2846e-29
5.37269e-28
9.45424e-28
6.2695e-29
0
0
0
0
1.70128e-24
1.17694e-24
0
1.80782e-26
1.94341e-27
-1.7452e-27
8.56684e-28
1.0787e-27
1.30966e-27
2.10161e-28
0
2.28675e-28
5.16362e-29
4.79878e-29
1.18121e-28
5.81814e-29
2.53563e-28
0
4.53176e-28
0
7.95127e-24
2.99882e-24
0
3.10879e-26
0
2.24619e-28
0
0
0
4.57407e-29
4.19576e-28
3.97267e-28
0
3.46399e-28
3.39888e-28
0
5.10459e-28
-2.62841e-27
0
8.86983e-28
1.30165e-24
2.28404e-24
1.13461e-25
4.02638e-27
1.44993e-27
7.9836e-30
0
-6.0289e-28
1.17984e-27
0
0
3.28652e-29
0
0
0
0
7.08717e-28
8.79406e-28
0
7.88654e-28
4.60591e-24
1.85659e-24
1.65526e-25
4.56823e-27
0
-2.48521e-28
1.03323e-28
3.10922e-28
4.10484e-28
-2.22825e-27
0
0
4.36024e-28
5.59492e-28
2.94555e-28
0
8.5886e-28
2.779e-28
1.79495e-29
1.58364e-28
4.34507e-24
1.29181e-24
7.6981e-26
-1.14204e-26
2.7138e-27
0
1.67913e-29
-2.54574e-28
1.65387e-28
0
2.43531e-28
0
2.65951e-29
-5.01005e-28
0
4.11462e-29
0
2.07015e-28
8.49966e-29
0
0
2.86215e-25
0
2.93874e-27
1.425e-28
-8.56345e-31
5.96031e-28
6.76296e-28
0
-1.10028e-28
0
-1.05266e-28
0
1.40002e-29
5.24641e-28
-1.13276e-28
1.61089e-28
0
0
-1.85745e-28
1.16404e-24
4.66904e-25
2.30324e-26
3.73048e-27
4.27056e-28
-2.06467e-28
3.16659e-28
6.88778e-28
1.54705e-29
1.46415e-29
0
1.45434e-28
0
0
0
0
3.29565e-29
3.33245e-29
0
0
2.15551e-24
2.01486e-24
0
0
1.499e-27
0
0
2.02636e-28
0
-3.91067e-28
0
3.12537e-28
5.60894e-28
0
0
-1.08938e-28
0
4.24605e-28
0
5.99605e-29
0
-9.72347e-25
0
7.34684e-28
0
9.93692e-28
6.55664e-29
-2.50551e-28
4.58836e-28
8.04779e-28
0
-1.65171e-27
2.44682e-28
6.91263e-28
6.45395e-28
0
0
-5.07813e-29
0
0
0
-9.71724e-25
0
1.13528e-27
0
0
2.74236e-27
8.79798e-28
9.3494e-28
-1.0626e-27
6.81792e-28
0
5.53871e-28
-1.73588e-28
5.85304e-28
0
2.19928e-28
0
0
7.98273e-29
3.37083e-24
1.14958e-25
3.41167e-26
0
1.37111e-28
-5.40155e-28
7.34684e-28
0
0
-6.10048e-28
8.13494e-31
0
4.16147e-28
0
0
-1.01174e-27
0
2.12242e-28
1.6987e-27
2.09592e-28
2.72503e-24
7.80104e-25
5.64531e-26
0
0
-5.12287e-28
2.11637e-28
4.97729e-28
4.2003e-28
1.76269e-28
0
0
1.31813e-28
5.43972e-28
9.36665e-28
1.45747e-29
0
4.85071e-28
2.69147e-28
6.75173e-29
0
0
0
0
0
3.54966e-28
5.40759e-28
5.72099e-28
0
-2.57744e-28
4.35291e-28
-9.2025e-29
0
9.20243e-28
6.49405e-28
-2.99871e-28
0
-1.39985e-27
1.05829e-28
7.36818e-28
0
4.67547e-25
0
1.26335e-26
0
4.74418e-28
9.52755e-28
7.52775e-28
0
-2.42115e-28
1.10501e-27
-1.28703e-28
0
0
0
0
1.29693e-27
3.5796e-28
0
0
4.17528e-24
1.30114e-24
0
0
0
2.81553e-29
0
0
0
0
0
0
1.11074e-28
0
0
-5.51795e-28
6.1476e-28
0
0
0
2.75058e-25
5.53101e-25
2.58508e-26
0
1.16055e-28
3.95427e-28
3.89912e-28
7.34684e-28
1.89931e-27
-2.86931e-28
2.32565e-28
0
0
2.7212e-28
2.11427e-28
-9.96271e-28
0
-5.83777e-28
0
0
9.35473e-24
3.2073e-24
7.34684e-28
2.54321e-26
0
6.04385e-28
1.52956e-27
-2.79514e-28
5.40964e-28
0
0
-2.33097e-28
0
0
5.61552e-28
1.08673e-28
5.31813e-29
3.51289e-28
1.40487e-28
1.42613e-28
1.1707e-24
2.32695e-24
0
1.67173e-26
0
8.06695e-28
1.2668e-27
4.81418e-28
2.80214e-28
0
1.6116e-28
0
1.19469e-28
0
0
3.74681e-28
0
0
7.30867e-29
3.40608e-29
3.24538e-24
6.0154e-25
9.48813e-26
7.34684e-28
4.56014e-27
3.49797e-28
0
8.10656e-31
4.57144e-28
1.16412e-28
0
0
0
3.25763e-28
0
6.40992e-28
2.56044e-28
4.14477e-28
7.7696e-30
3.37986e-29
)
;

boundaryField
{
    movingWall
    {
        type            calculated;
        value           nonuniform List<scalar> 
20
(
0
0
3.52241e-25
-4.61516e-26
9.13727e-27
-2.53034e-29
0
2.22576e-27
2.21766e-27
-3.14267e-28
0
3.93338e-28
7.48651e-28
1.60119e-27
1.6316e-27
3.26718e-28
6.6109e-28
7.92779e-28
3.57652e-29
4.78286e-29
)
;
    }
    fixedWalls
    {
        type            calculated;
        value           nonuniform List<scalar> 
60
(
3.47888e-24
1.16384e-23
4.71632e-23
3.90683e-23
4.79402e-23
2.2992e-23
0
8.19055e-24
1.85026e-23
-2.79667e-23
0
2.88965e-24
2.00672e-23
0
0
2.12745e-23
8.49379e-24
4.72919e-23
2.47086e-23
1.66927e-23
6.55175e-28
0
1.76306e-27
1.85988e-27
4.37466e-28
0
0
0
0
0
4.12267e-28
6.85791e-29
2.25179e-28
8.92917e-28
1.89994e-28
0
0
6.83911e-28
5.1677e-29
0
0
0
6.20163e-25
-5.86542e-26
2.53904e-26
4.66252e-27
5.6936e-27
4.87988e-28
0
0
1.88385e-27
2.05174e-28
1.40538e-27
2.12782e-27
5.62046e-28
7.34684e-28
0
0
0
0
)
;
    }
    frontAndBack
    {
        type            empty;
    }
}


// ************************************************************************* //
