/*--------------------------------*- C++ -*----------------------------------*\
| =========                 |                                                 |
| \\      /  F ield         | OpenFOAM: The Open Source CFD Toolbox           |
|  \\    /   O peration     | Version:  2312                                  |
|   \\  /    A nd           | Website:  www.openfoam.com                      |
|    \\/     M anipulation  |                                                 |
\*---------------------------------------------------------------------------*/
FoamFile
{
    version     2.0;
    format      ascii;
    arch        "LSB;label=32;scalar=64";
    class       volVectorField;
    location    "8.375";
    object      LambVectorField;
}
// * * * * * * * * * * * * * * * * * * * * * * * * * * * * * * * * * * * * * //

dimensions      [0 1 -2 0 0 0 0];

internalField   nonuniform List<vector> 
400
(
(-3.38772e-25 -5.17088e-12 -5.17088e-12)
(-8.62516e-26 6.24717e-12 -0)
(-4.36021e-27 -1.31542e-12 -1.31542e-12)
(-2.42203e-28 3.71302e-13 -0)
(-2.48118e-30 -1.72574e-14 -1.72574e-14)
(9.62895e-31 1.54394e-14 0)
(-3.63513e-30 -1.39581e-14 -1.39581e-14)
(1.00495e-29 4.97628e-14 0)
(8.51741e-31 2.51593e-14 2.51593e-14)
(-1.45343e-30 2.92758e-14 -0)
(-1.2882e-31 -1.06052e-14 -1.06052e-14)
(-1.30299e-31 -2.31005e-15 0)
(-1.77445e-31 -5.03427e-15 -5.03427e-15)
(-8.37187e-31 -7.84265e-15 0)
(-5.72037e-30 -5.03226e-14 -5.03226e-14)
(7.17706e-31 1.05742e-14 0)
(-2.95164e-33 -3.72119e-16 -3.72119e-16)
(-3.97352e-30 -5.55003e-14 0)
(3.10593e-31 1.49079e-14 1.49079e-14)
(4.38954e-31 -5.66505e-15 -0)
(-3.7351e-27 -2.17888e-13 -2.17888e-13)
(-3.73119e-27 1.12783e-12 -0)
(-5.06342e-28 -5.13984e-13 -5.13984e-13)
(4.57611e-30 -6.95393e-14 -0)
(-6.37661e-30 -1.176e-13 -1.176e-13)
(-4.50738e-30 -1.73382e-13 0)
(-2.44052e-29 -1.50888e-13 -1.50888e-13)
(-1.82674e-29 -1.01698e-13 0)
(-3.65354e-30 -3.86545e-14 -3.86545e-14)
(-2.56291e-30 -1.06482e-13 0)
(-6.3019e-30 -8.38754e-14 -8.38754e-14)
(-2.48317e-30 -4.99918e-14 0)
(-2.48354e-31 -7.53709e-15 -7.53709e-15)
(-6.95735e-30 -5.56399e-14 0)
(3.09874e-30 6.55837e-14 6.55837e-14)
(2.94604e-31 2.60555e-14 0)
(-4.12734e-31 -7.14762e-15 -7.14762e-15)
(9.77414e-31 1.18069e-14 0)
(-1.26091e-30 2.09019e-14 2.09019e-14)
(2.35507e-30 -1.86561e-14 -0)
(-8.10024e-26 1.69681e-12 1.69681e-12)
(-3.98341e-26 -3.91686e-12 0)
(-2.50019e-27 1.07066e-12 1.07066e-12)
(-5.1389e-29 -9.38632e-14 0)
(-5.43775e-30 1.31676e-13 1.31676e-13)
(3.44682e-30 7.85528e-14 0)
(-1.15145e-30 8.42122e-14 8.42122e-14)
(4.76904e-31 3.1988e-14 0)
(-4.04193e-31 6.46684e-15 6.46684e-15)
(2.65549e-30 -5.33663e-14 -0)
(-3.42779e-31 4.83195e-15 4.83195e-15)
(-4.87548e-30 4.97097e-14 -0)
(2.40692e-31 -9.28019e-15 -9.28019e-15)
(-2.93968e-31 5.5705e-14 -0)
(-1.03205e-30 2.52428e-14 2.52428e-14)
(-6.33955e-31 -4.75042e-14 0)
(-9.51666e-30 -5.83463e-14 -5.83463e-14)
(6.24148e-30 1.14088e-13 0)
(-3.57766e-30 2.17321e-14 2.17321e-14)
(9.13698e-31 -5.61884e-15 -0)
(-2.20431e-27 8.55749e-13 8.55749e-13)
(-2.59338e-28 -3.2635e-13 0)
(-2.69258e-29 2.14482e-13 2.14482e-13)
(1.73872e-31 3.41465e-14 0)
(3.0802e-30 4.10162e-14 4.10162e-14)
(7.53419e-30 5.49818e-14 0)
(8.18047e-30 1.21407e-13 1.21407e-13)
(4.72765e-31 6.60276e-14 0)
(-3.09165e-30 6.08656e-14 6.08656e-14)
(-5.28991e-30 8.90629e-14 -0)
(-3.66598e-30 2.85798e-14 2.85798e-14)
(1.0657e-30 -1.43736e-14 -0)
(1.16906e-32 7.5598e-16 7.5598e-16)
(-6.72268e-31 8.22822e-15 -0)
(2.22876e-30 -3.33558e-14 -3.33558e-14)
(1.24385e-30 -6.47987e-14 -0)
(-1.6222e-31 -4.15221e-15 -4.15221e-15)
(-2.89952e-31 -1.29869e-14 0)
(-1.92078e-30 1.88102e-14 1.88102e-14)
(-5.24055e-32 3.16123e-16 -0)
(-6.25855e-26 -1.68668e-12 -1.68668e-12)
(-2.58691e-26 3.21696e-12 -0)
(-1.38535e-27 -7.08827e-13 -7.08827e-13)
(-7.24832e-29 1.7631e-13 -0)
(-1.00557e-29 -5.25571e-14 -5.25571e-14)
(4.26898e-30 3.72967e-14 0)
(-2.08268e-30 -2.32931e-14 -2.32931e-14)
(-7.32655e-31 -9.59724e-15 0)
(5.73387e-30 3.09296e-14 3.09296e-14)
(4.48573e-30 1.17753e-13 0)
(-2.28698e-29 1.2777e-13 1.2777e-13)
(2.4211e-30 -1.55791e-14 -0)
(-2.55642e-31 1.10186e-14 1.10186e-14)
(2.39505e-31 4.38893e-14 0)
(3.90247e-30 4.87765e-14 4.87765e-14)
(7.57281e-30 1.26651e-13 0)
(-1.06506e-29 1.04111e-13 1.04111e-13)
(-3.815e-31 2.26857e-15 -0)
(1.05783e-30 -8.46356e-15 -8.46356e-15)
(1.74178e-30 -2.08518e-14 -0)
(-9.00621e-26 2.07913e-12 2.07913e-12)
(-3.7304e-26 -3.81175e-12 0)
(-1.83937e-27 8.29244e-13 8.29244e-13)
(-1.93362e-28 -2.83947e-13 0)
(-4.02589e-31 -5.08069e-15 -5.08069e-15)
(-7.65291e-30 -4.03454e-14 0)
(-5.60546e-30 -2.64856e-14 -2.64856e-14)
(6.74618e-30 3.67659e-14 0)
(5.53407e-30 4.81084e-14 4.81084e-14)
(-1.31371e-30 4.94929e-14 -0)
(-1.08197e-30 9.94047e-15 9.94047e-15)
(-4.00958e-30 3.18352e-14 -0)
(6.53633e-31 -4.18603e-15 -4.18603e-15)
(3.83601e-30 -4.56191e-14 -0)
(-2.17663e-30 -7.50702e-14 -7.50702e-14)
(-6.66934e-30 -5.35632e-14 0)
(1.21623e-30 5.39941e-14 5.39941e-14)
(-1.82892e-30 1.26677e-14 -0)
(1.0878e-30 -1.04444e-14 -1.04444e-14)
(1.65776e-30 -4.15135e-14 -0)
(-6.29403e-26 -2.28699e-12 -2.28699e-12)
(-1.36846e-26 2.50435e-12 -0)
(-8.62206e-28 -6.18788e-13 -6.18788e-13)
(-1.13661e-29 1.26841e-13 -0)
(-2.55047e-30 -2.04091e-14 -2.04091e-14)
(-6.74065e-30 -5.88795e-14 0)
(1.91422e-31 1.11512e-15 1.11512e-15)
(-2.22589e-31 -2.15413e-15 0)
(-1.68095e-30 2.15927e-14 2.15927e-14)
(3.57869e-30 -3.17836e-14 -0)
(1.04456e-30 -3.36269e-14 -3.36269e-14)
(-1.47022e-30 3.1032e-14 -0)
(2.21427e-30 -3.14826e-14 -3.14826e-14)
(1.12387e-31 -3.12026e-14 -0)
(1.70523e-30 -5.80847e-14 -5.80847e-14)
(-2.2265e-30 -6.33532e-14 0)
(-1.31359e-30 -2.11619e-14 -2.11619e-14)
(-2.69784e-31 1.11082e-14 -0)
(1.14044e-32 -2.327e-16 -2.327e-16)
(7.51072e-31 -3.42019e-14 -0)
(-1.64431e-26 -8.49761e-13 -8.49761e-13)
(-7.02849e-27 1.61669e-12 -0)
(-4.76687e-28 -3.70663e-13 -3.70663e-13)
(-1.39783e-29 1.41591e-13 -0)
(-1.82938e-30 -1.29578e-14 -1.29578e-14)
(2.20829e-30 7.15713e-14 0)
(-2.00821e-30 6.19213e-14 6.19213e-14)
(-8.73775e-32 1.88894e-15 -0)
(-1.09071e-31 2.12527e-15 2.12527e-15)
(-3.77865e-32 5.59716e-16 -0)
(-2.70912e-31 4.75967e-15 4.75967e-15)
(2.80232e-30 -2.43454e-14 -0)
(1.20731e-30 -1.42851e-14 -1.42851e-14)
(-3.03472e-31 -1.09381e-14 0)
(1.5936e-30 6.40875e-14 6.40875e-14)
(-4.77362e-30 6.72061e-14 -0)
(2.7208e-30 -2.58892e-14 -2.58892e-14)
(-2.15255e-30 2.58756e-14 -0)
(1.62703e-31 -1.75327e-15 -1.75327e-15)
(1.04035e-30 -1.58455e-14 -0)
(-2.74911e-25 4.44702e-12 4.44702e-12)
(-7.592e-26 -5.60122e-12 0)
(-4.2204e-27 1.36303e-12 1.36303e-12)
(-2.4294e-28 -3.29612e-13 0)
(-5.49548e-30 7.71107e-14 7.71107e-14)
(-2.09694e-30 6.15685e-14 -0)
(-1.81145e-30 1.25056e-14 1.25056e-14)
(-8.16208e-30 5.12968e-14 -0)
(7.25419e-30 -6.26884e-14 -6.26884e-14)
(3.08753e-30 -4.15373e-14 -0)
(-3.17502e-31 -1.10997e-14 -1.10997e-14)
(-1.0173e-30 -2.77451e-14 0)
(9.5333e-31 2.72341e-14 2.72341e-14)
(1.63577e-31 4.62403e-15 0)
(-5.11626e-31 4.55375e-14 4.55375e-14)
(-1.03925e-29 6.97722e-14 -0)
(1.24197e-30 -7.44338e-15 -7.44338e-15)
(-8.52449e-31 1.14399e-14 -0)
(6.27236e-32 -6.14668e-15 -6.14668e-15)
(3.0342e-32 -2.32531e-15 -0)
(-3.31938e-25 -6.12646e-12 -6.12646e-12)
(-6.07598e-26 5.48536e-12 -0)
(-3.42456e-27 -1.32738e-12 -1.32738e-12)
(-1.27029e-28 2.4741e-13 -0)
(-1.07375e-29 -1.01443e-13 -1.01443e-13)
(4.08378e-30 -9.93377e-14 -0)
(-1.72154e-30 -1.14592e-13 -1.14592e-13)
(-2.2929e-30 -1.11278e-13 0)
(-1.9946e-30 -4.57461e-14 -4.57461e-14)
(2.53076e-30 -3.95214e-14 -0)
(9.7471e-30 -9.43707e-14 -9.43707e-14)
(-6.82897e-30 -1.02659e-13 0)
(-1.99139e-30 -1.80779e-14 -1.80779e-14)
(-4.58874e-31 1.93201e-14 -0)
(2.36435e-30 -2.84708e-14 -2.84708e-14)
(6.3268e-31 -6.26796e-14 -0)
(-3.41648e-33 -2.07007e-15 -2.07007e-15)
(-6.03768e-31 -5.69224e-14 0)
(-3.37152e-33 -1.17174e-16 -1.17174e-16)
(4.77647e-32 4.05521e-15 0)
(-1.73269e-25 5.71619e-12 5.71619e-12)
(-2.01189e-26 -3.54445e-12 0)
(-8.85841e-28 8.04087e-13 8.04087e-13)
(-3.83684e-29 -1.10956e-13 0)
(1.17776e-30 1.494e-13 1.494e-13)
(-4.50102e-30 7.03308e-14 -0)
(-1.6901e-29 1.10231e-13 1.10231e-13)
(-3.11862e-30 3.79807e-14 -0)
(4.53175e-31 5.0516e-14 5.0516e-14)
(-5.34551e-30 1.18342e-13 -0)
(-4.98032e-30 5.51858e-14 5.51858e-14)
(-4.56862e-30 8.31762e-14 -0)
(-4.82963e-30 4.43667e-14 4.43667e-14)
(-8.93027e-30 3.92465e-14 -0)
(-1.39276e-30 6.04836e-15 6.04836e-15)
(4.54975e-31 -2.68006e-14 -0)
(1.89253e-30 5.01532e-14 5.01532e-14)
(6.8801e-32 2.91613e-15 0)
(2.85224e-31 3.32669e-14 3.32669e-14)
(-9.18679e-31 2.41599e-14 -0)
(-3.41768e-26 -1.99206e-12 -1.99206e-12)
(-6.15139e-27 1.6443e-12 -0)
(-3.77626e-28 -3.8356e-13 -3.8356e-13)
(-1.95483e-29 1.10758e-13 -0)
(-3.28959e-30 -2.22271e-14 -2.22271e-14)
(3.55795e-30 7.77267e-14 0)
(-1.5567e-30 1.78588e-14 1.78588e-14)
(-8.37884e-30 6.30874e-14 -0)
(1.84715e-30 -1.04988e-14 -1.04988e-14)
(1.38436e-30 -4.97515e-14 -0)
(4.83276e-32 9.56514e-16 9.56514e-16)
(-6.37545e-31 1.7051e-14 -0)
(1.91961e-30 -1.59988e-14 -1.59988e-14)
(4.22674e-30 -2.84719e-14 -0)
(1.01058e-29 -9.50543e-14 -9.50543e-14)
(1.13701e-30 -1.02792e-13 -0)
(-1.3227e-29 -1.21958e-13 -1.21958e-13)
(-6.25229e-30 -5.0295e-14 0)
(-4.81389e-30 -6.94599e-14 -6.94599e-14)
(-1.12888e-31 -1.95986e-14 0)
(6.70544e-27 -2.09946e-12 -2.09946e-12)
(1.46448e-28 8.65899e-14 0)
(2.32794e-29 -8.78204e-14 -8.78204e-14)
(-7.55355e-30 -5.80892e-14 0)
(-5.01826e-30 -1.1211e-13 -1.1211e-13)
(-1.10745e-29 -6.63401e-14 0)
(-8.35393e-30 -5.03061e-14 -5.03061e-14)
(-1.11807e-30 -8.7421e-15 0)
(-3.38215e-31 1.92523e-14 1.92523e-14)
(1.33146e-30 -2.06019e-14 -0)
(1.9515e-31 -2.3626e-15 -2.3626e-15)
(2.40823e-30 -5.87342e-14 -0)
(-1.93435e-30 5.17786e-14 5.17786e-14)
(4.37923e-32 -2.62435e-15 -0)
(-6.97352e-31 6.27414e-14 6.27414e-14)
(-2.70986e-30 2.65673e-14 -0)
(7.1774e-32 -1.25094e-14 -1.25094e-14)
(1.49962e-31 6.49337e-15 0)
(-4.438e-30 6.27977e-14 6.27977e-14)
(8.37842e-31 -1.33453e-14 -0)
(-9.39257e-26 3.90997e-12 3.90997e-12)
(-1.0957e-26 -2.46891e-12 0)
(-8.00712e-28 6.50827e-13 6.50827e-13)
(-1.03997e-29 -1.05997e-13 0)
(-1.2178e-29 7.14973e-14 7.14973e-14)
(-1.0473e-30 1.40091e-14 -0)
(4.77614e-31 -1.21317e-14 -1.21317e-14)
(-2.06545e-31 -4.43619e-15 0)
(4.61217e-31 9.23739e-14 9.23739e-14)
(-3.90357e-30 6.0966e-14 -0)
(-3.73724e-30 5.97329e-14 5.97329e-14)
(-1.30465e-29 1.09399e-13 -0)
(1.47618e-30 -2.04036e-14 -2.04036e-14)
(3.15672e-30 3.72346e-14 0)
(5.94572e-30 6.10407e-14 6.10407e-14)
(1.94324e-30 1.17962e-13 0)
(2.37521e-31 1.19661e-13 1.19661e-13)
(-9.4662e-30 9.86773e-14 -0)
(-8.96935e-30 5.22579e-14 5.22579e-14)
(-1.75781e-31 2.30053e-15 -0)
(-2.28495e-25 -4.34217e-12 -4.34217e-12)
(-5.61245e-26 4.93666e-12 -0)
(-2.82159e-27 -1.15523e-12 -1.15523e-12)
(-1.12632e-28 1.78836e-13 -0)
(-1.24165e-29 -1.10865e-13 -1.10865e-13)
(6.36469e-31 -1.00625e-14 -0)
(2.88677e-30 -4.94061e-14 -4.94061e-14)
(2.94228e-30 -2.64376e-14 -0)
(6.27582e-30 -9.63975e-14 -9.63975e-14)
(-4.64224e-30 -1.1743e-13 0)
(-1.05981e-30 -4.24092e-14 -4.24092e-14)
(8.60837e-30 -1.09693e-13 -0)
(-4.65989e-30 -1.23559e-13 -1.23559e-13)
(-4.28108e-30 -5.87187e-14 0)
(-4.90902e-30 -5.92876e-14 -5.92876e-14)
(-1.70007e-29 -1.37453e-13 0)
(-4.15403e-30 -4.06939e-14 -4.06939e-14)
(1.5954e-31 -1.38987e-14 -0)
(1.71239e-30 -5.71104e-14 -5.71104e-14)
(-4.96821e-31 -2.83511e-14 0)
(-1.92881e-25 3.44552e-12 3.44552e-12)
(-6.12731e-26 -5.08979e-12 0)
(-3.13598e-27 1.18649e-12 1.18649e-12)
(-1.77064e-28 -2.47417e-13 0)
(-3.22592e-29 1.90994e-13 1.90994e-13)
(4.28562e-31 -3.893e-15 -0)
(-8.5812e-30 6.60236e-14 6.60236e-14)
(-3.40799e-32 1.49329e-16 -0)
(9.85478e-30 -7.49612e-14 -7.49612e-14)
(6.07757e-32 -2.93466e-15 -0)
(-6.958e-31 6.81366e-15 6.81366e-15)
(4.04941e-30 -4.55777e-14 -0)
(-4.04907e-30 -4.90154e-14 -4.90154e-14)
(-7.68012e-30 -5.89611e-14 0)
(1.27248e-30 9.77946e-15 9.77946e-15)
(1.69374e-30 5.21746e-14 0)
(-1.60568e-30 1.33165e-14 1.33165e-14)
(9.6914e-31 -9.62378e-15 -0)
(2.84902e-31 -1.17051e-14 -1.17051e-14)
(-1.30645e-32 -7.99111e-16 0)
(-6.44693e-27 -7.21281e-13 -7.21281e-13)
(-1.7402e-27 8.7166e-13 -0)
(-1.18928e-28 -2.41421e-13 -2.41421e-13)
(-1.38331e-29 1.11282e-13 -0)
(5.12524e-30 -6.56218e-14 -6.56218e-14)
(-1.30351e-31 1.27923e-14 -0)
(1.60487e-30 2.4681e-14 2.4681e-14)
(5.37765e-32 3.82722e-15 0)
(2.25043e-30 8.41205e-14 8.41205e-14)
(-8.36964e-31 5.97749e-14 -0)
(-7.32059e-31 2.5335e-14 2.5335e-14)
(4.14146e-31 1.11973e-13 0)
(-2.04488e-30 3.17395e-14 3.17395e-14)
(-2.09775e-30 4.91904e-14 -0)
(7.58687e-32 -5.33176e-15 -5.33176e-15)
(9.98555e-31 9.35678e-14 0)
(-1.23035e-30 8.99665e-15 8.99665e-15)
(5.24109e-30 -6.60966e-14 -0)
(6.37871e-32 -3.56515e-15 -3.56515e-15)
(2.68556e-31 -6.15348e-15 -0)
(-1.88498e-25 -3.02957e-12 -3.02957e-12)
(-6.95814e-26 5.37297e-12 -0)
(-3.74921e-27 -1.22174e-12 -1.22174e-12)
(-1.62989e-28 2.22409e-13 -0)
(-3.75416e-30 -1.1922e-13 -1.1922e-13)
(6.47672e-30 -7.82809e-14 -0)
(-1.13173e-31 -9.87218e-14 -9.87218e-14)
(-5.46874e-30 -5.98794e-14 0)
(-6.97682e-31 -1.20625e-14 -1.20625e-14)
(-6.5504e-31 1.10843e-14 -0)
(2.10794e-30 -3.97691e-14 -3.97691e-14)
(-2.46479e-30 -3.64915e-14 0)
(2.641e-31 6.46356e-15 6.46356e-15)
(1.56141e-32 5.36829e-15 0)
(7.36091e-31 -5.74038e-14 -5.74038e-14)
(-8.04788e-31 -2.30957e-14 0)
(-3.05379e-31 5.77099e-15 5.77099e-15)
(-1.09131e-30 4.773e-14 -0)
(3.69385e-31 3.10793e-14 3.10793e-14)
(-1.3794e-30 2.2033e-14 -0)
(-1.70428e-25 3.6238e-12 3.6238e-12)
(-4.0104e-26 -4.24967e-12 0)
(-2.5487e-27 1.07761e-12 1.07761e-12)
(-3.56863e-29 -1.24271e-13 0)
(-5.69607e-29 1.84172e-13 1.84172e-13)
(-7.83855e-30 3.93292e-14 -0)
(-6.12171e-30 3.81485e-14 3.81485e-14)
(-1.7538e-30 4.53295e-14 -0)
(-2.17254e-30 3.03154e-14 3.03154e-14)
(4.06458e-31 -5.74144e-15 -0)
(1.71955e-31 -1.20669e-14 -1.20669e-14)
(-4.97751e-31 -9.97995e-15 0)
(4.4491e-30 5.20063e-14 5.20063e-14)
(2.46395e-30 3.42628e-14 0)
(9.89845e-31 7.08472e-14 7.08472e-14)
(-7.91115e-31 8.37538e-15 -0)
(7.00862e-31 -1.00436e-14 -1.00436e-14)
(-3.7062e-31 -6.1993e-14 0)
(-1.96419e-31 -2.44086e-14 -2.44086e-14)
(2.71529e-32 -1.29387e-15 -0)
(-9.66315e-26 2.34939e-12 2.34939e-12)
(-2.96316e-26 -3.76096e-12 0)
(-1.42562e-27 6.58285e-13 6.58285e-13)
(-4.23589e-29 -2.00112e-13 0)
(1.00981e-29 -6.13754e-14 -6.13754e-14)
(-2.73153e-31 -2.22481e-14 0)
(-1.00885e-31 -1.74089e-15 -1.74089e-15)
(3.48405e-31 1.17361e-14 0)
(1.21355e-30 -2.04263e-14 -2.04263e-14)
(4.38164e-31 -1.18101e-14 -0)
(-4.99677e-31 -8.51379e-15 -8.51379e-15)
(2.12737e-31 4.42859e-15 0)
(1.21415e-31 8.42906e-15 8.42906e-15)
(5.46937e-31 -1.50865e-14 -0)
(-1.29547e-30 1.22468e-14 1.22468e-14)
(7.29051e-31 -4.59328e-15 -0)
(1.12287e-30 -1.87621e-14 -1.87621e-14)
(1.35218e-30 4.67888e-14 0)
(4.76134e-32 3.31442e-15 3.31442e-15)
(1.10753e-31 -2.6093e-14 -0)
)
;

boundaryField
{
    movingWall
    {
        type            calculated;
        value           nonuniform List<vector> 
20
(
(0 4.12453e-12 -0)
(0 -4.74025e-12 -0)
(0 3.22616e-13 -0)
(0 -4.66566e-13 -0)
(0 -2.90923e-13 -0)
(0 -1.55475e-13 -0)
(0 -9.05587e-14 -0)
(0 -1.659e-13 -0)
(0 -2.15366e-13 -0)
(0 -1.00628e-13 -0)
(0 -9.73316e-14 -0)
(0 -8.43892e-14 -0)
(0 -8.03888e-14 -0)
(0 -1.21208e-13 -0)
(0 -1.2098e-13 -0)
(0 -9.34111e-14 -0)
(0 -1.87621e-14 -0)
(0 8.13965e-14 -0)
(0 3.31442e-15 -0)
(0 -4.33968e-14 -0)
)
;
    }
    fixedWalls
    {
        type            calculated;
        value           nonuniform List<vector> 
60
(
(0 -2.62061e-11 -0)
(0 -5.69142e-12 -0)
(0 1.70352e-11 -0)
(0 1.70798e-12 -0)
(0 -1.36225e-11 -0)
(0 1.6053e-11 -0)
(0 -1.10897e-11 -0)
(0 -7.08959e-12 -0)
(0 2.43482e-11 -0)
(0 -2.34884e-11 -0)
(0 1.53774e-11 -0)
(0 -7.51311e-12 -0)
(0 -9.72164e-13 -0)
(0 1.15604e-11 -0)
(0 -2.12657e-11 -0)
(0 2.14435e-11 -0)
(0 -3.60237e-12 -0)
(0 -2.29904e-11 -0)
(0 1.86766e-11 -0)
(0 1.54764e-11 -0)
(0 -3.09938e-14 -0)
(0 -5.04944e-14 -0)
(0 -3.79403e-14 -0)
(0 -3.92053e-14 -0)
(0 -3.34127e-14 -0)
(0 -4.30783e-14 -0)
(0 -3.5889e-14 -0)
(0 -2.62622e-14 -0)
(0 -5.21944e-15 -0)
(0 4.71144e-15 -0)
(0 1.18951e-14 -0)
(0 -2.48011e-14 -0)
(0 -2.51127e-14 -0)
(0 -3.4585e-15 -0)
(0 -2.00955e-14 -0)
(0 6.5395e-15 -0)
(0 -1.74572e-14 -0)
(0 2.06257e-15 -0)
(0 -8.39432e-15 -0)
(0 -2.88029e-14 -0)
(0 -7.03606e-12 -0)
(0 7.28588e-12 -0)
(0 -8.71331e-13 -0)
(0 7.16772e-13 -0)
(0 2.83804e-13 -0)
(0 3.88015e-13 -0)
(0 3.41313e-13 -0)
(0 2.89111e-13 -0)
(0 1.13977e-13 -0)
(0 1.35397e-13 -0)
(0 1.67031e-13 -0)
(0 8.65078e-14 -0)
(0 1.28192e-13 -0)
(0 1.69793e-13 -0)
(0 4.82964e-14 -0)
(0 1.05742e-14 -0)
(0 -3.72119e-16 -0)
(0 -9.01081e-14 -0)
(0 5.93168e-14 -0)
(0 -9.44829e-14 -0)
)
;
    }
    frontAndBack
    {
        type            empty;
    }
}


// ************************************************************************* //
