/*--------------------------------*- C++ -*----------------------------------*\
| =========                 |                                                 |
| \\      /  F ield         | OpenFOAM: The Open Source CFD Toolbox           |
|  \\    /   O peration     | Version:  2312                                  |
|   \\  /    A nd           | Website:  www.openfoam.com                      |
|    \\/     M anipulation  |                                                 |
\*---------------------------------------------------------------------------*/
FoamFile
{
    version     2.0;
    format      ascii;
    arch        "LSB;label=32;scalar=64";
    class       volScalarField;
    location    "8.375";
    object      QField;
}
// * * * * * * * * * * * * * * * * * * * * * * * * * * * * * * * * * * * * * //

dimensions      [0 0 -2 0 0 0 0];

internalField   nonuniform List<scalar> 
400
(
-1.79235e-24
-8.5198e-25
-8.15829e-26
1.71896e-26
-3.87426e-27
-3.16197e-28
-1.14431e-27
-2.48862e-27
-3.47952e-28
5.88369e-29
0
0
1.84852e-28
-6.2827e-28
-6.46921e-28
-2.14618e-28
0
6.99425e-29
0
0
-4.98909e-24
-2.28302e-24
-3.03627e-26
-8.6353e-27
1.9986e-27
1.74862e-27
5.96129e-28
-1.7428e-27
-1.10445e-27
-2.09854e-28
2.08188e-28
-2.28675e-28
-1.65838e-28
3.81154e-28
1.97631e-28
-3.24046e-28
-8.41202e-28
0
-1.00538e-27
0
-8.64753e-24
-3.13075e-24
8.32531e-26
-3.10879e-26
4.09511e-27
-2.24619e-28
2.35572e-28
1.32352e-28
0
-4.57407e-29
-5.51332e-28
-9.15167e-28
0
-4.79347e-28
-3.59655e-28
6.35596e-28
2.74846e-28
2.66496e-27
0
-8.86983e-28
-9.99793e-24
-2.74435e-24
-1.40451e-25
-6.28423e-27
-1.34577e-27
-1.49477e-28
1.40806e-27
6.40628e-28
-9.82999e-28
3.91878e-28
3.99736e-29
-1.55388e-28
0
0
1.69426e-28
4.48115e-28
-2.15816e-27
-9.86777e-28
0
-9.40467e-28
-7.74136e-24
-2.19356e-24
-1.151e-25
-5.49599e-27
0
2.76246e-28
-1.03323e-28
-4.77943e-28
-3.45812e-28
3.05197e-27
2.15061e-27
0
-4.36024e-28
-5.59492e-28
-2.94555e-28
1.19753e-27
1.94334e-27
-9.03701e-28
-5.52412e-30
-3.41098e-28
-4.01181e-24
-1.1276e-24
-7.10008e-26
1.24541e-26
-2.48344e-27
3.58819e-28
-1.67913e-29
2.61859e-28
-1.44197e-28
1.98377e-28
-8.01921e-28
-4.5742e-28
-2.55504e-28
5.01825e-28
8.34396e-28
-1.01881e-28
7.28829e-28
-7.79977e-28
4.11873e-28
5.67611e-29
6.88936e-25
-2.06656e-25
3.42066e-26
4.22677e-27
3.35783e-28
2.53127e-28
-1.32313e-27
-6.76296e-28
0
1.26811e-28
1.76774e-28
1.06441e-28
1.18654e-28
-1.92058e-28
2.21233e-28
4.95646e-28
-1.61089e-28
0
0
1.92361e-28
2.89855e-24
3.27405e-25
-2.30324e-26
1.20658e-26
1.59568e-27
1.34377e-27
-4.39883e-28
-1.42272e-27
-1.02647e-28
-1.03715e-28
0
-5.30402e-28
0
0
5.35455e-28
-2.93458e-28
-3.29565e-29
-3.33245e-29
0
0
1.51072e-25
-1.15393e-24
1.28773e-25
1.26958e-26
-1.91533e-28
2.03839e-28
0
-3.39162e-28
4.59611e-28
3.91187e-28
0
5.09651e-28
-5.24159e-28
0
4.99613e-28
6.78455e-28
0
-4.24605e-28
0
-2.09886e-28
6.0345e-24
1.01642e-24
2.32253e-25
-1.06048e-27
2.77502e-27
-9.03578e-28
6.92081e-28
3.09847e-28
-4.58836e-28
-9.54359e-28
1.06162e-27
1.7356e-27
-2.44682e-28
-1.42529e-27
-5.5668e-28
1.0142e-28
0
1.47034e-28
0
0
1.14251e-23
2.49705e-24
1.7475e-25
4.56639e-27
4.32878e-27
4.02896e-28
-3.57595e-28
-8.79798e-28
-7.95324e-28
1.07572e-27
-3.6401e-28
-1.30319e-28
-1.40352e-27
3.29093e-28
-5.07666e-28
0
-2.19928e-28
0
1.67016e-28
-7.98273e-29
6.45899e-24
8.97116e-25
3.91404e-26
5.77642e-27
2.99878e-28
6.48895e-28
-8.65695e-28
-6.57201e-28
0
6.13834e-28
-2.07272e-29
0
-4.94833e-28
3.70489e-29
1.1172e-27
1.51596e-27
1.46772e-27
-2.10888e-28
-1.17881e-27
-6.92555e-29
6.02399e-24
1.10817e-24
-8.06946e-27
4.56147e-27
4.00082e-28
6.5757e-28
-2.11637e-28
-4.97729e-28
-4.9042e-28
-1.76269e-28
0
2.3354e-29
-1.31813e-28
-6.32177e-28
-1.74628e-27
-1.45747e-29
0
-2.38788e-27
-1.87535e-28
-4.45438e-28
4.88099e-24
6.0944e-25
7.94283e-26
0
1.11938e-27
-3.54966e-28
-6.08485e-28
-6.48314e-28
8.99246e-28
3.66237e-28
7.77056e-30
1.06069e-28
0
-9.20243e-28
8.79399e-28
4.22839e-28
9.2645e-28
1.4118e-27
-1.05829e-28
-1.10767e-27
2.88177e-25
-5.93448e-25
7.96666e-26
-1.26335e-26
3.07129e-27
-5.57693e-28
-1.48458e-29
-7.62882e-28
8.56553e-28
8.59382e-28
-7.46937e-28
1.37951e-28
1.22131e-27
1.21143e-28
2.75253e-28
1.74612e-28
-1.39713e-27
-3.5796e-28
1.57224e-28
3.3773e-29
-3.81345e-24
-1.30114e-24
6.1381e-26
0
8.43737e-27
-1.43824e-28
6.40411e-28
0
1.12492e-27
0
0
5.52263e-29
4.01753e-29
-5.56593e-29
0
6.79511e-28
-1.29473e-27
0
0
0
-6.38881e-24
-1.87361e-24
-9.82244e-26
-8.32237e-28
1.16179e-27
-4.62076e-28
-4.21101e-28
-8.66142e-28
-7.98105e-28
3.01667e-28
2.1827e-28
-4.62558e-28
1.25616e-28
-2.7212e-28
-7.74883e-28
9.96328e-28
0
6.44365e-28
0
0
-8.89301e-24
-3.17558e-24
7.74597e-27
-2.35821e-26
4.15079e-27
-7.59336e-28
-4.18194e-28
3.0733e-28
-6.74489e-28
0
3.43259e-28
2.5442e-28
0
0
9.66923e-29
-1.08673e-28
-1.81534e-28
-3.51289e-28
1.78029e-28
-1.98892e-28
-8.9134e-24
-3.39618e-24
-7.26264e-27
-1.67173e-26
6.59291e-27
-8.06695e-28
-1.02467e-27
-4.81418e-28
-2.30789e-28
0
-3.02749e-28
0
-1.19469e-28
8.78633e-29
9.01896e-28
-1.04933e-27
0
5.6222e-28
-7.30867e-29
-1.5819e-28
-3.00568e-24
-9.97415e-25
-1.32249e-25
1.35211e-27
-4.18994e-27
-1.01388e-27
0
4.88088e-29
-5.36308e-28
-2.92449e-28
0
0
0
-3.25763e-28
0
-6.86241e-28
-1.05409e-27
-5.91387e-28
-6.07495e-29
-9.58199e-29
)
;

boundaryField
{
    movingWall
    {
        type            calculated;
        value           nonuniform List<scalar> 
20
(
3.10395e-24
2.43352e-24
-4.34406e-25
5.56156e-26
-9.76622e-27
3.23027e-27
1.54622e-28
-2.72848e-27
-2.12711e-27
6.46705e-28
7.56176e-28
-3.93338e-28
-7.48651e-28
-1.60119e-27
-1.6316e-27
-1.31289e-27
-1.94662e-27
-1.28581e-27
-1.55751e-28
-9.09656e-29
)
;
    }
    fixedWalls
    {
        type            calculated;
        value           nonuniform List<scalar> 
60
(
-1.54171e-23
-2.96185e-23
-4.48524e-23
-5.28047e-23
-4.03576e-23
-2.07113e-23
3.12155e-24
1.08349e-23
1.13478e-24
2.8724e-23
5.52217e-23
3.07177e-23
2.52878e-23
2.19746e-23
1.44194e-24
-2.04669e-23
-3.45473e-23
-4.57297e-23
-5.11999e-23
-2.3101e-23
-1.8094e-27
0
-1.76306e-27
-2.49973e-27
-1.11771e-27
-1.13911e-28
2.3809e-28
0
0
0
-4.12267e-28
1.57435e-28
-7.29806e-28
-1.54168e-27
-1.89994e-28
0
0
-7.79396e-28
-2.59178e-28
-6.60257e-29
3.96205e-24
3.33624e-24
-8.3573e-25
1.26735e-25
-2.53904e-26
-4.66252e-27
-7.78252e-27
-5.3131e-28
1.86755e-27
2.89195e-28
-1.88385e-27
-2.05174e-28
-2.88546e-28
-2.5505e-27
-1.05982e-27
-7.35885e-28
0
1.14594e-28
6.62044e-28
5.03157e-28
)
;
    }
    frontAndBack
    {
        type            empty;
    }
}


// ************************************************************************* //
