/*--------------------------------*- C++ -*----------------------------------*\
| =========                 |                                                 |
| \\      /  F ield         | OpenFOAM: The Open Source CFD Toolbox           |
|  \\    /   O peration     | Version:  2312                                  |
|   \\  /    A nd           | Website:  www.openfoam.com                      |
|    \\/     M anipulation  |                                                 |
\*---------------------------------------------------------------------------*/
FoamFile
{
    version     2.0;
    format      ascii;
    arch        "LSB;label=32;scalar=64";
    class       volVectorField;
    location    "8.375";
    object      UzeroGrad;
}
// * * * * * * * * * * * * * * * * * * * * * * * * * * * * * * * * * * * * * //

dimensions      [0 1 -1 0 0 0 0];

internalField   nonuniform List<vector> 
400
(
(-1 6.55153e-14 0)
(-1 -1.38065e-14 0)
(-1 3.31469e-15 0)
(-1 -6.52309e-16 0)
(-1 1.43775e-16 0)
(-1 6.2366e-17 0)
(-1 2.60431e-16 0)
(-1 2.01947e-16 0)
(-1 3.38539e-17 0)
(-1 -4.96462e-17 0)
(-1 1.21469e-17 0)
(-1 5.64053e-17 0)
(-1 3.52474e-17 0)
(-1 1.06748e-16 0)
(-1 1.13674e-16 0)
(-1 6.78734e-17 0)
(-1 7.93196e-18 0)
(-1 7.15946e-17 0)
(-1 2.08341e-17 0)
(-1 -7.74845e-17 0)
(-1 1.71423e-14 0)
(-1 -3.30829e-15 0)
(-1 9.85133e-16 0)
(-1 -6.58061e-17 0)
(-1 5.42226e-17 0)
(-1 2.59967e-17 0)
(-1 1.61744e-16 0)
(-1 1.79625e-16 0)
(-1 9.45179e-17 0)
(-1 2.4069e-17 0)
(-1 7.5134e-17 0)
(-1 4.96716e-17 0)
(-1 3.29509e-17 0)
(-1 1.25043e-16 0)
(-1 4.72487e-17 0)
(-1 1.13068e-17 0)
(-1 5.77443e-17 0)
(-1 8.2783e-17 0)
(-1 -6.03252e-17 0)
(-1 -1.26236e-16 0)
(-1 -4.77379e-14 0)
(-1 1.01699e-14 0)
(-1 -2.33518e-15 0)
(-1 5.47488e-16 0)
(-1 -4.12964e-17 0)
(-1 4.38791e-17 0)
(-1 -1.36732e-17 0)
(-1 1.49089e-17 0)
(-1 -6.25024e-17 0)
(-1 -4.97596e-17 0)
(-1 -7.094e-17 0)
(-1 -9.80791e-17 0)
(-1 -2.59361e-17 0)
(-1 -5.27723e-18 0)
(-1 -4.08848e-17 0)
(-1 1.33453e-17 0)
(-1 1.63106e-16 0)
(-1 5.47074e-17 0)
(-1 -1.64626e-16 0)
(-1 -1.62613e-16 0)
(-1 -2.57589e-15 0)
(-1 7.94664e-16 0)
(-1 -1.25538e-16 0)
(-1 5.09194e-18 0)
(-1 7.50972e-17 0)
(-1 1.37031e-16 0)
(-1 6.73804e-17 0)
(-1 7.16012e-18 0)
(-1 -5.07946e-17 0)
(-1 -5.93953e-17 0)
(-1 -1.28272e-16 0)
(-1 -7.41429e-17 0)
(-1 1.54642e-17 0)
(-1 -8.17027e-17 0)
(-1 -6.6818e-17 0)
(-1 -1.91956e-17 0)
(-1 3.90684e-17 0)
(-1 2.23265e-17 0)
(-1 -1.02113e-16 0)
(-1 -1.65776e-16 0)
(-1 3.71056e-14 0)
(-1 -8.04148e-15 0)
(-1 1.95443e-15 0)
(-1 -4.11111e-16 0)
(-1 1.91329e-16 0)
(-1 1.1446e-16 0)
(-1 8.9412e-17 0)
(-1 7.63402e-17 0)
(-1 1.85384e-16 0)
(-1 3.80945e-17 0)
(-1 -1.78992e-16 0)
(-1 -1.55407e-16 0)
(-1 -2.32009e-17 0)
(-1 5.45702e-18 0)
(-1 8.00071e-17 0)
(-1 5.97928e-17 0)
(-1 -1.023e-16 0)
(-1 -1.68167e-16 0)
(-1 -1.24986e-16 0)
(-1 -8.35316e-17 0)
(-1 -4.33172e-14 0)
(-1 9.78657e-15 0)
(-1 -2.21813e-15 0)
(-1 6.80979e-16 0)
(-1 7.92389e-17 0)
(-1 1.89685e-16 0)
(-1 2.11642e-16 0)
(-1 1.8349e-16 0)
(-1 1.15033e-16 0)
(-1 -2.65434e-17 0)
(-1 -1.08845e-16 0)
(-1 -1.25948e-16 0)
(-1 -1.56146e-16 0)
(-1 -8.40878e-17 0)
(-1 2.89946e-17 0)
(-1 1.24513e-16 0)
(-1 2.25252e-17 0)
(-1 -1.44377e-16 0)
(-1 -1.04151e-16 0)
(-1 -3.99331e-17 0)
(-1 2.7521e-14 0)
(-1 -5.46434e-15 0)
(-1 1.39338e-15 0)
(-1 -8.96087e-17 0)
(-1 1.24967e-16 0)
(-1 1.14482e-16 0)
(-1 1.71661e-16 0)
(-1 1.03331e-16 0)
(-1 -7.78483e-17 0)
(-1 -1.12596e-16 0)
(-1 -3.10632e-17 0)
(-1 -4.73776e-17 0)
(-1 -7.03331e-17 0)
(-1 -3.60184e-18 0)
(-1 -2.93576e-17 0)
(-1 3.51442e-17 0)
(-1 6.2073e-17 0)
(-1 -2.42869e-17 0)
(-1 -4.90089e-17 0)
(-1 -2.19599e-17 0)
(-1 1.93503e-14 0)
(-1 -4.34746e-15 0)
(-1 1.28604e-15 0)
(-1 -9.87231e-17 0)
(-1 1.4118e-16 0)
(-1 3.08545e-17 0)
(-1 -3.24317e-17 0)
(-1 -4.62575e-17 0)
(-1 -5.13211e-17 0)
(-1 -6.75102e-17 0)
(-1 -5.69182e-17 0)
(-1 -1.15107e-16 0)
(-1 -8.45149e-17 0)
(-1 2.77445e-17 0)
(-1 2.4866e-17 0)
(-1 -7.10295e-17 0)
(-1 -1.05094e-16 0)
(-1 -8.31883e-17 0)
(-1 -9.27994e-17 0)
(-1 -6.56556e-17 0)
(-1 -6.18191e-14 0)
(-1 1.35542e-14 0)
(-1 -3.09634e-15 0)
(-1 7.37049e-16 0)
(-1 -7.12674e-17 0)
(-1 -3.40587e-17 0)
(-1 -1.44851e-16 0)
(-1 -1.59115e-16 0)
(-1 -1.15718e-16 0)
(-1 -7.43314e-17 0)
(-1 2.86045e-17 0)
(-1 3.6666e-17 0)
(-1 3.5005e-17 0)
(-1 3.53755e-17 0)
(-1 -1.12353e-17 0)
(-1 -1.48949e-16 0)
(-1 -1.66856e-16 0)
(-1 -7.45154e-17 0)
(-1 -1.02045e-17 0)
(-1 -1.30486e-17 0)
(-1 5.4181e-14 0)
(-1 -1.10767e-14 0)
(-1 2.57995e-15 0)
(-1 -5.13435e-16 0)
(-1 1.05848e-16 0)
(-1 -4.11101e-17 0)
(-1 1.50233e-17 0)
(-1 2.06051e-17 0)
(-1 4.36016e-17 0)
(-1 -6.40351e-17 0)
(-1 -1.03285e-16 0)
(-1 6.65207e-17 0)
(-1 1.10156e-16 0)
(-1 -2.37511e-17 0)
(-1 -8.30448e-17 0)
(-1 -1.00939e-17 0)
(-1 1.65042e-18 0)
(-1 1.06069e-17 0)
(-1 2.87735e-17 0)
(-1 1.17786e-17 0)
(-1 -3.0312e-14 0)
(-1 5.67616e-15 0)
(-1 -1.10167e-15 0)
(-1 3.45799e-16 0)
(-1 7.88329e-18 0)
(-1 -6.39978e-17 0)
(-1 -1.53323e-16 0)
(-1 -8.21106e-17 0)
(-1 8.97092e-18 0)
(-1 -4.517e-17 0)
(-1 -9.02463e-17 0)
(-1 -5.49269e-17 0)
(-1 -1.08857e-16 0)
(-1 -2.27543e-16 0)
(-1 -2.30271e-16 0)
(-1 -1.69763e-17 0)
(-1 3.77351e-17 0)
(-1 2.35933e-17 0)
(-1 8.57381e-18 0)
(-1 -3.80249e-17 0)
(-1 1.71565e-14 0)
(-1 -3.74104e-15 0)
(-1 9.84531e-16 0)
(-1 -1.76496e-16 0)
(-1 1.47999e-16 0)
(-1 4.57751e-17 0)
(-1 -8.7167e-17 0)
(-1 -1.32813e-16 0)
(-1 -1.7594e-16 0)
(-1 -2.78255e-17 0)
(-1 5.05248e-17 0)
(-1 -3.73906e-17 0)
(-1 -1.19985e-16 0)
(-1 -1.48453e-16 0)
(-1 -1.06316e-16 0)
(-1 -1.10612e-17 0)
(-1 1.08456e-16 0)
(-1 1.24312e-16 0)
(-1 6.93045e-17 0)
(-1 5.76e-18 0)
(-1 -3.19389e-15 0)
(-1 1.69128e-15 0)
(-1 -2.6508e-16 0)
(-1 1.30034e-16 0)
(-1 4.47618e-17 0)
(-1 1.66935e-16 0)
(-1 1.66062e-16 0)
(-1 1.27895e-16 0)
(-1 -1.75675e-17 0)
(-1 -6.46282e-17 0)
(-1 -8.25993e-17 0)
(-1 -4.10021e-17 0)
(-1 -3.73582e-17 0)
(-1 -1.66869e-17 0)
(-1 -1.11147e-17 0)
(-1 -1.02e-16 0)
(-1 -5.73759e-18 0)
(-1 2.30946e-17 0)
(-1 -7.06713e-17 0)
(-1 -6.27818e-17 0)
(-1 -2.40221e-14 0)
(-1 4.43798e-15 0)
(-1 -1.2303e-15 0)
(-1 9.81132e-17 0)
(-1 -1.70328e-16 0)
(-1 -7.47584e-17 0)
(-1 -3.9369e-17 0)
(-1 4.6559e-17 0)
(-1 4.99293e-18 0)
(-1 -6.40287e-17 0)
(-1 -6.25659e-17 0)
(-1 -1.19257e-16 0)
(-1 -7.2349e-17 0)
(-1 8.47791e-17 0)
(-1 9.74058e-17 0)
(-1 1.64734e-17 0)
(-1 1.98496e-18 0)
(-1 -9.59309e-17 0)
(-1 -1.71636e-16 0)
(-1 -7.64089e-17 0)
(-1 5.26222e-14 0)
(-1 -1.13689e-14 0)
(-1 2.44246e-15 0)
(-1 -6.29804e-16 0)
(-1 1.11996e-16 0)
(-1 -6.32513e-17 0)
(-1 -5.84293e-17 0)
(-1 -1.11291e-16 0)
(-1 -6.51036e-17 0)
(-1 3.95321e-17 0)
(-1 2.49902e-17 0)
(-1 -7.84772e-17 0)
(-1 3.77139e-17 0)
(-1 7.29083e-17 0)
(-1 8.28001e-17 0)
(-1 1.23684e-16 0)
(-1 1.0208e-16 0)
(-1 -1.14788e-17 0)
(-1 -2.99839e-17 0)
(-1 1.75239e-17 0)
(-1 -5.59804e-14 0)
(-1 1.20384e-14 0)
(-1 -2.64307e-15 0)
(-1 7.15649e-16 0)
(-1 -1.68902e-16 0)
(-1 -1.10086e-16 0)
(-1 -1.29972e-16 0)
(-1 -2.28221e-16 0)
(-1 -1.31465e-16 0)
(-1 -2.07096e-17 0)
(-1 -1.02118e-16 0)
(-1 -8.88462e-17 0)
(-1 8.2608e-17 0)
(-1 1.30257e-16 0)
(-1 1.30118e-16 0)
(-1 3.24628e-17 0)
(-1 -1.20578e-16 0)
(-1 -1.00703e-16 0)
(-1 -2.43399e-17 0)
(-1 1.63488e-17 0)
(-1 8.93817e-15 0)
(-1 -1.99642e-15 0)
(-1 4.92618e-16 0)
(-1 -1.24307e-16 0)
(-1 -7.81028e-17 0)
(-1 -1.01898e-17 0)
(-1 6.50247e-17 0)
(-1 1.40511e-17 0)
(-1 2.67525e-17 0)
(-1 -1.40019e-17 0)
(-1 -2.88951e-17 0)
(-1 3.69861e-18 0)
(-1 -6.44269e-17 0)
(-1 -4.26456e-17 0)
(-1 -1.42296e-17 0)
(-1 1.0672e-17 0)
(-1 -1.36756e-16 0)
(-1 -7.92945e-17 0)
(-1 -1.78918e-17 0)
(-1 -4.3643e-17 0)
(-1 6.22195e-14 0)
(-1 -1.29503e-14 0)
(-1 3.06874e-15 0)
(-1 -7.32834e-16 0)
(-1 3.14894e-17 0)
(-1 -8.2737e-17 0)
(-1 1.14638e-18 0)
(-1 9.13294e-17 0)
(-1 5.78388e-17 0)
(-1 -5.9096e-17 0)
(-1 -5.30044e-17 0)
(-1 6.75441e-17 0)
(-1 4.08599e-17 0)
(-1 2.90858e-18 0)
(-1 -1.2823e-17 0)
(-1 3.48457e-17 0)
(-1 -5.29162e-17 0)
(-1 -2.28642e-17 0)
(-1 1.18853e-17 0)
(-1 -6.26062e-17 0)
(-1 -4.70302e-14 0)
(-1 9.43697e-15 0)
(-1 -2.36514e-15 0)
(-1 2.87165e-16 0)
(-1 -3.09279e-16 0)
(-1 -1.99306e-16 0)
(-1 -1.6047e-16 0)
(-1 -3.86901e-17 0)
(-1 -7.16645e-17 0)
(-1 -7.07939e-17 0)
(-1 -1.42502e-17 0)
(-1 4.98751e-17 0)
(-1 8.55493e-17 0)
(-1 7.19132e-17 0)
(-1 1.39716e-17 0)
(-1 -9.44573e-17 0)
(-1 -6.97822e-17 0)
(-1 5.97841e-18 0)
(-1 8.0471e-18 0)
(-1 -2.09858e-17 0)
(-1 -4.11305e-14 0)
(-1 7.87873e-15 0)
(-1 -2.16565e-15 0)
(-1 2.11676e-16 0)
(-1 -1.6453e-16 0)
(-1 1.22776e-17 0)
(-1 5.79503e-17 0)
(-1 2.96865e-17 0)
(-1 -5.94111e-17 0)
(-1 -3.71006e-17 0)
(-1 5.86903e-17 0)
(-1 4.80373e-17 0)
(-1 1.44044e-17 0)
(-1 -3.62533e-17 0)
(-1 -1.05781e-16 0)
(-1 -1.58721e-16 0)
(-1 -5.9848e-17 0)
(-1 2.88997e-17 0)
(-1 1.43655e-17 0)
(-1 -4.24456e-18 0)
)
;

boundaryField
{
    movingWall
    {
        type            zeroGradient;
    }
    fixedWalls
    {
        type            zeroGradient;
    }
    frontAndBack
    {
        type            empty;
    }
}


// ************************************************************************* //
