/*--------------------------------*- C++ -*----------------------------------*\
| =========                 |                                                 |
| \\      /  F ield         | OpenFOAM: The Open Source CFD Toolbox           |
|  \\    /   O peration     | Version:  2312                                  |
|   \\  /    A nd           | Website:  www.openfoam.com                      |
|    \\/     M anipulation  |                                                 |
\*---------------------------------------------------------------------------*/
FoamFile
{
    version     2.0;
    format      ascii;
    arch        "LSB;label=32;scalar=64";
    class       volVectorField;
    location    "8.375";
    object      vorticityField;
}
// * * * * * * * * * * * * * * * * * * * * * * * * * * * * * * * * * * * * * //

dimensions      [0 0 -1 0 0 0 0];

internalField   nonuniform List<vector> 
400
(
(0 -0 5.17088e-12)
(0 -0 -6.24717e-12)
(0 -0 1.31542e-12)
(0 -0 -3.71302e-13)
(0 -0 1.72574e-14)
(0 -0 -1.54394e-14)
(0 -0 1.39581e-14)
(0 -0 -4.97628e-14)
(0 -0 -2.51593e-14)
(0 -0 -2.92758e-14)
(0 -0 1.06052e-14)
(0 -0 2.31005e-15)
(0 -0 5.03427e-15)
(0 -0 7.84265e-15)
(0 -0 5.03226e-14)
(0 -0 -1.05742e-14)
(0 -0 3.72119e-16)
(0 -0 5.55003e-14)
(0 -0 -1.49079e-14)
(0 -0 5.66505e-15)
(0 -0 2.17888e-13)
(0 -0 -1.12783e-12)
(0 -0 5.13984e-13)
(0 -0 6.95393e-14)
(0 -0 1.176e-13)
(0 -0 1.73382e-13)
(0 -0 1.50888e-13)
(0 -0 1.01698e-13)
(0 -0 3.86545e-14)
(0 -0 1.06482e-13)
(0 -0 8.38754e-14)
(0 -0 4.99918e-14)
(0 -0 7.53709e-15)
(0 -0 5.56399e-14)
(0 -0 -6.55837e-14)
(0 -0 -2.60555e-14)
(0 -0 7.14762e-15)
(0 -0 -1.18069e-14)
(0 -0 -2.09019e-14)
(0 -0 1.86561e-14)
(0 -0 -1.69681e-12)
(0 -0 3.91686e-12)
(0 -0 -1.07066e-12)
(0 -0 9.38632e-14)
(0 -0 -1.31676e-13)
(0 -0 -7.85528e-14)
(0 -0 -8.42122e-14)
(0 -0 -3.1988e-14)
(0 -0 -6.46684e-15)
(0 -0 5.33663e-14)
(0 -0 -4.83195e-15)
(0 -0 -4.97097e-14)
(0 -0 9.28019e-15)
(0 -0 -5.5705e-14)
(0 -0 -2.52428e-14)
(0 -0 4.75042e-14)
(0 -0 5.83463e-14)
(0 -0 -1.14088e-13)
(0 -0 -2.17321e-14)
(0 -0 5.61884e-15)
(0 -0 -8.55749e-13)
(0 -0 3.2635e-13)
(0 -0 -2.14482e-13)
(0 -0 -3.41465e-14)
(0 -0 -4.10162e-14)
(0 -0 -5.49818e-14)
(0 -0 -1.21407e-13)
(0 -0 -6.60276e-14)
(0 -0 -6.08656e-14)
(0 -0 -8.90629e-14)
(0 -0 -2.85798e-14)
(0 -0 1.43736e-14)
(0 -0 -7.5598e-16)
(0 -0 -8.22822e-15)
(0 -0 3.33558e-14)
(0 -0 6.47987e-14)
(0 -0 4.15221e-15)
(0 -0 1.29869e-14)
(0 -0 -1.88102e-14)
(0 -0 -3.16123e-16)
(0 -0 1.68668e-12)
(0 -0 -3.21696e-12)
(0 -0 7.08827e-13)
(0 -0 -1.7631e-13)
(0 -0 5.25571e-14)
(0 -0 -3.72967e-14)
(0 -0 2.32931e-14)
(0 -0 9.59724e-15)
(0 -0 -3.09296e-14)
(0 -0 -1.17753e-13)
(0 -0 -1.2777e-13)
(0 -0 1.55791e-14)
(0 -0 -1.10186e-14)
(0 -0 -4.38893e-14)
(0 -0 -4.87765e-14)
(0 -0 -1.26651e-13)
(0 -0 -1.04111e-13)
(0 -0 -2.26857e-15)
(0 -0 8.46356e-15)
(0 -0 2.08518e-14)
(0 -0 -2.07913e-12)
(0 -0 3.81175e-12)
(0 -0 -8.29244e-13)
(0 -0 2.83947e-13)
(0 -0 5.08069e-15)
(0 -0 4.03454e-14)
(0 -0 2.64856e-14)
(0 -0 -3.67659e-14)
(0 -0 -4.81084e-14)
(0 -0 -4.94929e-14)
(0 -0 -9.94047e-15)
(0 -0 -3.18352e-14)
(0 -0 4.18603e-15)
(0 -0 4.56191e-14)
(0 -0 7.50702e-14)
(0 -0 5.35632e-14)
(0 -0 -5.39941e-14)
(0 -0 -1.26677e-14)
(0 -0 1.04444e-14)
(0 -0 4.15135e-14)
(0 -0 2.28699e-12)
(0 -0 -2.50435e-12)
(0 -0 6.18788e-13)
(0 -0 -1.26841e-13)
(0 -0 2.04091e-14)
(0 -0 5.88795e-14)
(0 -0 -1.11512e-15)
(0 -0 2.15413e-15)
(0 -0 -2.15927e-14)
(0 -0 3.17836e-14)
(0 -0 3.36269e-14)
(0 -0 -3.1032e-14)
(0 -0 3.14826e-14)
(0 -0 3.12026e-14)
(0 -0 5.80847e-14)
(0 -0 6.33532e-14)
(0 -0 2.11619e-14)
(0 -0 -1.11082e-14)
(0 -0 2.327e-16)
(0 -0 3.42019e-14)
(0 -0 8.49761e-13)
(0 -0 -1.61669e-12)
(0 -0 3.70663e-13)
(0 -0 -1.41591e-13)
(0 -0 1.29578e-14)
(0 -0 -7.15713e-14)
(0 -0 -6.19213e-14)
(0 -0 -1.88894e-15)
(0 -0 -2.12527e-15)
(0 -0 -5.59716e-16)
(0 -0 -4.75967e-15)
(0 -0 2.43454e-14)
(0 -0 1.42851e-14)
(0 -0 1.09381e-14)
(0 -0 -6.40875e-14)
(0 -0 -6.72061e-14)
(0 -0 2.58892e-14)
(0 -0 -2.58756e-14)
(0 -0 1.75327e-15)
(0 -0 1.58455e-14)
(0 -0 -4.44702e-12)
(0 -0 5.60122e-12)
(0 -0 -1.36303e-12)
(0 -0 3.29612e-13)
(0 -0 -7.71107e-14)
(0 -0 -6.15685e-14)
(0 -0 -1.25056e-14)
(0 -0 -5.12968e-14)
(0 -0 6.26884e-14)
(0 -0 4.15373e-14)
(0 -0 1.10997e-14)
(0 -0 2.77451e-14)
(0 -0 -2.72341e-14)
(0 -0 -4.62403e-15)
(0 -0 -4.55375e-14)
(0 -0 -6.97722e-14)
(0 -0 7.44338e-15)
(0 -0 -1.14399e-14)
(0 -0 6.14668e-15)
(0 -0 2.32531e-15)
(0 -0 6.12646e-12)
(0 -0 -5.48536e-12)
(0 -0 1.32738e-12)
(0 -0 -2.4741e-13)
(0 -0 1.01443e-13)
(0 -0 9.93377e-14)
(0 -0 1.14592e-13)
(0 -0 1.11278e-13)
(0 -0 4.57461e-14)
(0 -0 3.95214e-14)
(0 -0 9.43707e-14)
(0 -0 1.02659e-13)
(0 -0 1.80779e-14)
(0 -0 -1.93201e-14)
(0 -0 2.84708e-14)
(0 -0 6.26796e-14)
(0 -0 2.07007e-15)
(0 -0 5.69224e-14)
(0 -0 1.17174e-16)
(0 -0 -4.05521e-15)
(0 -0 -5.71619e-12)
(0 -0 3.54445e-12)
(0 -0 -8.04087e-13)
(0 -0 1.10956e-13)
(0 -0 -1.494e-13)
(0 -0 -7.03308e-14)
(0 -0 -1.10231e-13)
(0 -0 -3.79807e-14)
(0 -0 -5.0516e-14)
(0 -0 -1.18342e-13)
(0 -0 -5.51858e-14)
(0 -0 -8.31762e-14)
(0 -0 -4.43667e-14)
(0 -0 -3.92465e-14)
(0 -0 -6.04836e-15)
(0 -0 2.68006e-14)
(0 -0 -5.01532e-14)
(0 -0 -2.91613e-15)
(0 -0 -3.32669e-14)
(0 -0 -2.41599e-14)
(0 -0 1.99206e-12)
(0 -0 -1.6443e-12)
(0 -0 3.8356e-13)
(0 -0 -1.10758e-13)
(0 -0 2.22271e-14)
(0 -0 -7.77267e-14)
(0 -0 -1.78588e-14)
(0 -0 -6.30874e-14)
(0 -0 1.04988e-14)
(0 -0 4.97515e-14)
(0 -0 -9.56514e-16)
(0 -0 -1.7051e-14)
(0 -0 1.59988e-14)
(0 -0 2.84719e-14)
(0 -0 9.50543e-14)
(0 -0 1.02792e-13)
(0 -0 1.21958e-13)
(0 -0 5.0295e-14)
(0 -0 6.94599e-14)
(0 -0 1.95986e-14)
(0 -0 2.09946e-12)
(0 -0 -8.65899e-14)
(0 -0 8.78204e-14)
(0 -0 5.80892e-14)
(0 -0 1.1211e-13)
(0 -0 6.63401e-14)
(0 -0 5.03061e-14)
(0 -0 8.7421e-15)
(0 -0 -1.92523e-14)
(0 -0 2.06019e-14)
(0 -0 2.3626e-15)
(0 -0 5.87342e-14)
(0 -0 -5.17786e-14)
(0 -0 2.62435e-15)
(0 -0 -6.27414e-14)
(0 -0 -2.65673e-14)
(0 -0 1.25094e-14)
(0 -0 -6.49337e-15)
(0 -0 -6.27977e-14)
(0 -0 1.33453e-14)
(0 -0 -3.90997e-12)
(0 -0 2.46891e-12)
(0 -0 -6.50827e-13)
(0 -0 1.05997e-13)
(0 -0 -7.14973e-14)
(0 -0 -1.40091e-14)
(0 -0 1.21317e-14)
(0 -0 4.43619e-15)
(0 -0 -9.23739e-14)
(0 -0 -6.0966e-14)
(0 -0 -5.97329e-14)
(0 -0 -1.09399e-13)
(0 -0 2.04036e-14)
(0 -0 -3.72346e-14)
(0 -0 -6.10407e-14)
(0 -0 -1.17962e-13)
(0 -0 -1.19661e-13)
(0 -0 -9.86773e-14)
(0 -0 -5.22579e-14)
(0 -0 -2.30053e-15)
(0 -0 4.34217e-12)
(0 -0 -4.93666e-12)
(0 -0 1.15523e-12)
(0 -0 -1.78836e-13)
(0 -0 1.10865e-13)
(0 -0 1.00625e-14)
(0 -0 4.94061e-14)
(0 -0 2.64376e-14)
(0 -0 9.63975e-14)
(0 -0 1.1743e-13)
(0 -0 4.24092e-14)
(0 -0 1.09693e-13)
(0 -0 1.23559e-13)
(0 -0 5.87187e-14)
(0 -0 5.92876e-14)
(0 -0 1.37453e-13)
(0 -0 4.06939e-14)
(0 -0 1.38987e-14)
(0 -0 5.71104e-14)
(0 -0 2.83511e-14)
(0 -0 -3.44552e-12)
(0 -0 5.08979e-12)
(0 -0 -1.18649e-12)
(0 -0 2.47417e-13)
(0 -0 -1.90994e-13)
(0 -0 3.893e-15)
(0 -0 -6.60236e-14)
(0 -0 -1.49329e-16)
(0 -0 7.49612e-14)
(0 -0 2.93466e-15)
(0 -0 -6.81366e-15)
(0 -0 4.55777e-14)
(0 -0 4.90154e-14)
(0 -0 5.89611e-14)
(0 -0 -9.77946e-15)
(0 -0 -5.21746e-14)
(0 -0 -1.33165e-14)
(0 -0 9.62378e-15)
(0 -0 1.17051e-14)
(0 -0 7.99111e-16)
(0 -0 7.21281e-13)
(0 -0 -8.7166e-13)
(0 -0 2.41421e-13)
(0 -0 -1.11282e-13)
(0 -0 6.56218e-14)
(0 -0 -1.27923e-14)
(0 -0 -2.4681e-14)
(0 -0 -3.82722e-15)
(0 -0 -8.41205e-14)
(0 -0 -5.97749e-14)
(0 -0 -2.5335e-14)
(0 -0 -1.11973e-13)
(0 -0 -3.17395e-14)
(0 -0 -4.91904e-14)
(0 -0 5.33176e-15)
(0 -0 -9.35678e-14)
(0 -0 -8.99665e-15)
(0 -0 6.60966e-14)
(0 -0 3.56515e-15)
(0 -0 6.15348e-15)
(0 -0 3.02957e-12)
(0 -0 -5.37297e-12)
(0 -0 1.22174e-12)
(0 -0 -2.22409e-13)
(0 -0 1.1922e-13)
(0 -0 7.82809e-14)
(0 -0 9.87218e-14)
(0 -0 5.98794e-14)
(0 -0 1.20625e-14)
(0 -0 -1.10843e-14)
(0 -0 3.97691e-14)
(0 -0 3.64915e-14)
(0 -0 -6.46356e-15)
(0 -0 -5.36829e-15)
(0 -0 5.74038e-14)
(0 -0 2.30957e-14)
(0 -0 -5.77099e-15)
(0 -0 -4.773e-14)
(0 -0 -3.10793e-14)
(0 -0 -2.2033e-14)
(0 -0 -3.6238e-12)
(0 -0 4.24967e-12)
(0 -0 -1.07761e-12)
(0 -0 1.24271e-13)
(0 -0 -1.84172e-13)
(0 -0 -3.93292e-14)
(0 -0 -3.81485e-14)
(0 -0 -4.53295e-14)
(0 -0 -3.03154e-14)
(0 -0 5.74144e-15)
(0 -0 1.20669e-14)
(0 -0 9.97995e-15)
(0 -0 -5.20063e-14)
(0 -0 -3.42628e-14)
(0 -0 -7.08472e-14)
(0 -0 -8.37538e-15)
(0 -0 1.00436e-14)
(0 -0 6.1993e-14)
(0 -0 2.44086e-14)
(0 -0 1.29387e-15)
(0 -0 -2.34939e-12)
(0 -0 3.76096e-12)
(0 -0 -6.58285e-13)
(0 -0 2.00112e-13)
(0 -0 6.13754e-14)
(0 -0 2.22481e-14)
(0 -0 1.74089e-15)
(0 -0 -1.17361e-14)
(0 -0 2.04263e-14)
(0 -0 1.18101e-14)
(0 -0 8.51379e-15)
(0 -0 -4.42859e-15)
(0 -0 -8.42906e-15)
(0 -0 1.50865e-14)
(0 -0 -1.22468e-14)
(0 -0 4.59328e-15)
(0 -0 1.87621e-14)
(0 -0 -4.67888e-14)
(0 -0 -3.31442e-15)
(0 -0 2.6093e-14)
)
;

boundaryField
{
    movingWall
    {
        type            calculated;
        value           nonuniform List<vector> 
20
(
(0 -0 -4.12453e-12)
(0 -0 4.74025e-12)
(0 -0 -3.22616e-13)
(0 -0 4.66566e-13)
(0 -0 2.90923e-13)
(0 -0 1.55475e-13)
(0 -0 9.05587e-14)
(0 -0 1.659e-13)
(0 -0 2.15366e-13)
(0 -0 1.00628e-13)
(0 -0 9.73316e-14)
(0 -0 8.43892e-14)
(0 -0 8.03888e-14)
(0 -0 1.21208e-13)
(0 -0 1.2098e-13)
(0 -0 9.34111e-14)
(0 -0 1.87621e-14)
(0 -0 -8.13965e-14)
(0 -0 -3.31442e-15)
(0 -0 4.33968e-14)
)
;
    }
    fixedWalls
    {
        type            calculated;
        value           nonuniform List<vector> 
60
(
(0 -0 2.62061e-11)
(0 -0 5.69142e-12)
(0 -0 -1.70352e-11)
(0 -0 -1.70798e-12)
(0 -0 1.36225e-11)
(0 -0 -1.6053e-11)
(0 -0 1.10897e-11)
(0 -0 7.08959e-12)
(0 -0 -2.43482e-11)
(0 -0 2.34884e-11)
(0 -0 -1.53774e-11)
(0 -0 7.51311e-12)
(0 -0 9.72164e-13)
(0 -0 -1.15604e-11)
(0 -0 2.12657e-11)
(0 -0 -2.14435e-11)
(0 -0 3.60237e-12)
(0 -0 2.29904e-11)
(0 -0 -1.86766e-11)
(0 -0 -1.54764e-11)
(0 -0 3.09938e-14)
(0 -0 5.04944e-14)
(0 -0 3.79403e-14)
(0 -0 3.92053e-14)
(0 -0 3.34127e-14)
(0 -0 4.30783e-14)
(0 -0 3.5889e-14)
(0 -0 2.62622e-14)
(0 -0 5.21944e-15)
(0 -0 -4.71144e-15)
(0 -0 -1.18951e-14)
(0 -0 2.48011e-14)
(0 -0 2.51127e-14)
(0 -0 3.4585e-15)
(0 -0 2.00955e-14)
(0 -0 -6.5395e-15)
(0 -0 1.74572e-14)
(0 -0 -2.06257e-15)
(0 -0 8.39432e-15)
(0 -0 2.88029e-14)
(0 -0 7.03606e-12)
(0 -0 -7.28588e-12)
(0 -0 8.71331e-13)
(0 -0 -7.16772e-13)
(0 -0 -2.83804e-13)
(0 -0 -3.88015e-13)
(0 -0 -3.41313e-13)
(0 -0 -2.89111e-13)
(0 -0 -1.13977e-13)
(0 -0 -1.35397e-13)
(0 -0 -1.67031e-13)
(0 -0 -8.65078e-14)
(0 -0 -1.28192e-13)
(0 -0 -1.69793e-13)
(0 -0 -4.82964e-14)
(0 -0 -1.05742e-14)
(0 -0 3.72119e-16)
(0 -0 9.01081e-14)
(0 -0 -5.93168e-14)
(0 -0 9.44829e-14)
)
;
    }
    frontAndBack
    {
        type            empty;
    }
}


// ************************************************************************* //
