/*--------------------------------*- C++ -*----------------------------------*\
| =========                 |                                                 |
| \\      /  F ield         | OpenFOAM: The Open Source CFD Toolbox           |
|  \\    /   O peration     | Version:  2312                                  |
|   \\  /    A nd           | Website:  www.openfoam.com                      |
|    \\/     M anipulation  |                                                 |
\*---------------------------------------------------------------------------*/
FoamFile
{
    version     2.0;
    format      ascii;
    arch        "LSB;label=32;scalar=64";
    class       volScalarField;
    location    "8.375";
    object      zeroGradient(epsilon);
}
// * * * * * * * * * * * * * * * * * * * * * * * * * * * * * * * * * * * * * //

dimensions      [0 2 -3 0 0 0 0];

internalField   nonuniform List<scalar> 
400
(
1.12623e-06
1.12623e-06
1.12623e-06
1.12622e-06
1.12622e-06
1.12622e-06
1.12622e-06
1.12622e-06
1.12622e-06
1.12622e-06
1.12622e-06
1.12622e-06
1.12622e-06
1.12622e-06
1.12622e-06
1.12622e-06
1.12622e-06
1.12622e-06
1.12622e-06
1.12622e-06
1.15774e-06
1.14445e-06
1.14557e-06
1.14604e-06
1.14697e-06
1.14746e-06
1.14839e-06
1.14888e-06
1.14982e-06
1.15032e-06
1.15126e-06
1.15178e-06
1.15272e-06
1.15325e-06
1.15419e-06
1.15473e-06
1.15568e-06
1.15623e-06
1.15671e-06
1.15746e-06
1.20803e-06
1.19372e-06
1.19495e-06
1.19546e-06
1.19648e-06
1.197e-06
1.19802e-06
1.19855e-06
1.19956e-06
1.2001e-06
1.20112e-06
1.20166e-06
1.20268e-06
1.20324e-06
1.20426e-06
1.20482e-06
1.20584e-06
1.20641e-06
1.20692e-06
1.20772e-06
1.26147e-06
1.24631e-06
1.24761e-06
1.24815e-06
1.24923e-06
1.24978e-06
1.25086e-06
1.25142e-06
1.25249e-06
1.25306e-06
1.25414e-06
1.25472e-06
1.2558e-06
1.25639e-06
1.25747e-06
1.25806e-06
1.25914e-06
1.25975e-06
1.26029e-06
1.26114e-06
1.30691e-06
1.29101e-06
1.29237e-06
1.29294e-06
1.29407e-06
1.29465e-06
1.29578e-06
1.29636e-06
1.29749e-06
1.29809e-06
1.29922e-06
1.29983e-06
1.30096e-06
1.30157e-06
1.30271e-06
1.30333e-06
1.30447e-06
1.3051e-06
1.30567e-06
1.30656e-06
1.34033e-06
1.32388e-06
1.32529e-06
1.32588e-06
1.32705e-06
1.32765e-06
1.32881e-06
1.32942e-06
1.33059e-06
1.33121e-06
1.33238e-06
1.333e-06
1.33418e-06
1.33481e-06
1.33598e-06
1.33663e-06
1.3378e-06
1.33846e-06
1.33905e-06
1.33997e-06
1.36274e-06
1.34591e-06
1.34735e-06
1.34796e-06
1.34915e-06
1.34976e-06
1.35096e-06
1.35158e-06
1.35277e-06
1.3534e-06
1.3546e-06
1.35524e-06
1.35644e-06
1.35709e-06
1.35829e-06
1.35895e-06
1.36015e-06
1.36082e-06
1.36142e-06
1.36236e-06
1.3771e-06
1.36003e-06
1.36149e-06
1.3621e-06
1.36331e-06
1.36393e-06
1.36514e-06
1.36578e-06
1.36699e-06
1.36763e-06
1.36884e-06
1.36949e-06
1.37071e-06
1.37137e-06
1.37258e-06
1.37325e-06
1.37447e-06
1.37515e-06
1.37576e-06
1.37671e-06
1.38639e-06
1.36916e-06
1.37064e-06
1.37126e-06
1.37248e-06
1.3731e-06
1.37432e-06
1.37496e-06
1.37618e-06
1.37683e-06
1.37805e-06
1.37871e-06
1.37994e-06
1.3806e-06
1.38183e-06
1.38251e-06
1.38374e-06
1.38443e-06
1.38504e-06
1.386e-06
1.39285e-06
1.37551e-06
1.377e-06
1.37762e-06
1.37885e-06
1.37948e-06
1.38071e-06
1.38135e-06
1.38258e-06
1.38323e-06
1.38446e-06
1.38512e-06
1.38636e-06
1.38703e-06
1.38826e-06
1.38895e-06
1.39018e-06
1.39088e-06
1.39149e-06
1.39246e-06
1.39794e-06
1.38052e-06
1.38201e-06
1.38264e-06
1.38387e-06
1.3845e-06
1.38574e-06
1.38638e-06
1.38762e-06
1.38827e-06
1.38951e-06
1.39017e-06
1.39141e-06
1.39209e-06
1.39333e-06
1.39401e-06
1.39525e-06
1.39595e-06
1.39657e-06
1.39754e-06
1.40252e-06
1.38502e-06
1.38652e-06
1.38715e-06
1.38839e-06
1.38902e-06
1.39026e-06
1.39091e-06
1.39215e-06
1.39281e-06
1.39405e-06
1.39472e-06
1.39597e-06
1.39664e-06
1.39789e-06
1.39858e-06
1.39982e-06
1.40052e-06
1.40115e-06
1.40212e-06
1.4071e-06
1.38952e-06
1.39103e-06
1.39166e-06
1.39291e-06
1.39355e-06
1.39479e-06
1.39544e-06
1.39669e-06
1.39735e-06
1.3986e-06
1.39927e-06
1.40052e-06
1.4012e-06
1.40245e-06
1.40314e-06
1.40439e-06
1.4051e-06
1.40572e-06
1.4067e-06
1.41196e-06
1.3943e-06
1.39582e-06
1.39645e-06
1.3977e-06
1.39834e-06
1.39959e-06
1.40025e-06
1.4015e-06
1.40216e-06
1.40342e-06
1.40409e-06
1.40535e-06
1.40603e-06
1.40729e-06
1.40798e-06
1.40924e-06
1.40995e-06
1.41058e-06
1.41156e-06
1.41722e-06
1.39948e-06
1.401e-06
1.40164e-06
1.40289e-06
1.40354e-06
1.40479e-06
1.40545e-06
1.40671e-06
1.40738e-06
1.40864e-06
1.40931e-06
1.41057e-06
1.41126e-06
1.41252e-06
1.41322e-06
1.41449e-06
1.4152e-06
1.41583e-06
1.41682e-06
1.42284e-06
1.405e-06
1.40653e-06
1.40717e-06
1.40843e-06
1.40908e-06
1.41034e-06
1.411e-06
1.41227e-06
1.41294e-06
1.41421e-06
1.41489e-06
1.41615e-06
1.41684e-06
1.41811e-06
1.41882e-06
1.42009e-06
1.4208e-06
1.42144e-06
1.42243e-06
1.42854e-06
1.41061e-06
1.41214e-06
1.41279e-06
1.41406e-06
1.41471e-06
1.41598e-06
1.41665e-06
1.41792e-06
1.41859e-06
1.41986e-06
1.42055e-06
1.42182e-06
1.42252e-06
1.42379e-06
1.4245e-06
1.42578e-06
1.4265e-06
1.42713e-06
1.42813e-06
1.43382e-06
1.41581e-06
1.41735e-06
1.418e-06
1.41927e-06
1.41993e-06
1.4212e-06
1.42187e-06
1.42315e-06
1.42382e-06
1.4251e-06
1.42579e-06
1.42707e-06
1.42777e-06
1.42905e-06
1.42976e-06
1.43104e-06
1.43177e-06
1.43241e-06
1.43341e-06
1.43796e-06
1.42022e-06
1.42171e-06
1.42234e-06
1.42357e-06
1.42422e-06
1.42546e-06
1.42611e-06
1.42736e-06
1.42803e-06
1.42929e-06
1.42997e-06
1.43123e-06
1.43193e-06
1.43319e-06
1.43391e-06
1.43518e-06
1.43591e-06
1.43655e-06
1.43756e-06
1.43986e-06
1.43986e-06
1.43986e-06
1.43986e-06
1.43986e-06
1.43986e-06
1.43986e-06
1.43986e-06
1.43986e-06
1.43986e-06
1.43986e-06
1.43986e-06
1.43986e-06
1.43985e-06
1.43985e-06
1.43985e-06
1.43985e-06
1.43985e-06
1.43985e-06
1.43985e-06
)
;

boundaryField
{
    movingWall
    {
        type            zeroGradient;
    }
    fixedWalls
    {
        type            zeroGradient;
    }
    frontAndBack
    {
        type            empty;
    }
}


// ************************************************************************* //
