/*--------------------------------*- C++ -*----------------------------------*\
| =========                 |                                                 |
| \\      /  F ield         | OpenFOAM: The Open Source CFD Toolbox           |
|  \\    /   O peration     | Version:  2312                                  |
|   \\  /    A nd           | Website:  www.openfoam.com                      |
|    \\/     M anipulation  |                                                 |
\*---------------------------------------------------------------------------*/
FoamFile
{
    version     2.0;
    format      ascii;
    arch        "LSB;label=32;scalar=64";
    class       volScalarField;
    location    "8.375";
    object      zeroGradient(p);
}
// * * * * * * * * * * * * * * * * * * * * * * * * * * * * * * * * * * * * * //

dimensions      [0 2 -2 0 0 0 0];

internalField   nonuniform List<scalar> 
400
(
2.84476e-17
2.83349e-15
2.61544e-15
3.10337e-15
3.04504e-15
3.02925e-15
3.26956e-15
3.47096e-15
3.44057e-15
3.35421e-15
3.22374e-15
3.11916e-15
3.12175e-15
3.59265e-15
3.67892e-15
3.70408e-15
3.71047e-15
3.7585e-15
3.45374e-15
3.19467e-15
1.94697e-15
3.17709e-16
2.62543e-15
2.92057e-15
3.1959e-15
3.22479e-15
3.23988e-15
3.27672e-15
3.38358e-15
3.40526e-15
3.20149e-15
3.13995e-15
3.37748e-15
3.64123e-15
3.61942e-15
3.54878e-15
3.73542e-15
3.59064e-15
3.41742e-15
3.48083e-15
2.34889e-15
2.30647e-15
2.63659e-15
2.80116e-15
3.1119e-15
3.36263e-15
3.42329e-15
3.42918e-15
3.45819e-15
3.39526e-15
3.12656e-15
3.22894e-15
3.45557e-15
3.50268e-15
3.55226e-15
3.67834e-15
3.7102e-15
3.54352e-15
3.50299e-15
3.55781e-15
2.09786e-15
2.94297e-15
2.67807e-15
2.92154e-15
3.11083e-15
3.27316e-15
3.36605e-15
3.36003e-15
3.60178e-15
3.40624e-15
3.36923e-15
3.37036e-15
3.48821e-15
3.55748e-15
3.59768e-15
3.6997e-15
3.53604e-15
3.45043e-15
3.60648e-15
3.96212e-15
2.58139e-15
3.0081e-15
2.5562e-15
3.03807e-15
3.1532e-15
3.24487e-15
3.3228e-15
3.3758e-15
3.41694e-15
3.26699e-15
3.43368e-15
3.53522e-15
3.54881e-15
3.58171e-15
3.59758e-15
3.76624e-15
3.74371e-15
3.46501e-15
3.67667e-15
4.17723e-15
2.74424e-15
2.46944e-15
2.95163e-15
3.00645e-15
3.21264e-15
3.3196e-15
3.27856e-15
3.3494e-15
3.38387e-15
3.37551e-15
3.58366e-15
3.60315e-15
3.36364e-15
3.49687e-15
3.44538e-15
3.69343e-15
3.6712e-15
3.6568e-15
3.93055e-15
4.34813e-15
3.11361e-15
4.1893e-15
2.99173e-15
3.09481e-15
3.14545e-15
3.41236e-15
3.25338e-15
3.37362e-15
3.42599e-15
3.47292e-15
3.46357e-15
3.51781e-15
3.46757e-15
3.60921e-15
3.64025e-15
3.64298e-15
3.6518e-15
3.84149e-15
4.11892e-15
4.39179e-15
3.63337e-15
1.36617e-15
3.30752e-15
3.01036e-15
3.46573e-15
3.44945e-15
3.36402e-15
3.29904e-15
3.3815e-15
3.48239e-15
3.51197e-15
3.62867e-15
3.61259e-15
3.66256e-15
3.73913e-15
3.6417e-15
3.79524e-15
4.04757e-15
4.31391e-15
4.43594e-15
3.39151e-15
4.547e-15
3.15912e-15
3.31579e-15
3.32799e-15
3.46193e-15
3.48235e-15
3.42598e-15
3.40775e-15
3.5734e-15
3.55004e-15
3.68065e-15
3.8515e-15
3.83376e-15
3.81272e-15
3.8692e-15
3.98368e-15
4.12505e-15
4.33335e-15
4.60217e-15
3.51402e-15
3.39837e-15
3.5048e-15
3.3543e-15
3.43751e-15
3.62442e-15
3.54082e-15
3.5104e-15
3.5146e-15
3.79244e-15
3.79823e-15
3.84802e-15
3.91888e-15
3.88872e-15
3.88723e-15
4.07054e-15
4.1579e-15
4.20324e-15
4.33164e-15
4.49234e-15
3.72345e-15
2.07682e-15
3.55479e-15
3.56304e-15
3.68646e-15
3.83232e-15
3.62524e-15
3.63028e-15
3.46254e-15
3.85213e-15
4.11523e-15
3.85542e-15
3.97251e-15
4.11619e-15
4.15298e-15
4.11626e-15
4.15792e-15
4.34028e-15
4.47729e-15
4.54327e-15
3.38973e-15
5.82862e-15
3.70918e-15
3.87103e-15
3.77765e-15
4.04809e-15
3.95526e-15
3.82463e-15
3.69399e-15
4.04062e-15
4.21614e-15
4.18889e-15
4.1706e-15
4.23185e-15
4.42758e-15
4.122e-15
4.17945e-15
4.42949e-15
4.50426e-15
4.66022e-15
4.23651e-15
1.79087e-15
3.77775e-15
3.87342e-15
3.98633e-15
4.1029e-15
4.08677e-15
4.02239e-15
4.02663e-15
4.18267e-15
4.41867e-15
4.38902e-15
4.37593e-15
4.41711e-15
4.51155e-15
4.25895e-15
4.12534e-15
4.35936e-15
4.6176e-15
4.66069e-15
4.18183e-15
5.14057e-15
3.86213e-15
4.05144e-15
4.01774e-15
4.11769e-15
4.16708e-15
4.15934e-15
4.19843e-15
4.35401e-15
4.60207e-15
4.53938e-15
4.4801e-15
4.43025e-15
4.25882e-15
4.37245e-15
4.33997e-15
4.42975e-15
4.81894e-15
4.97679e-15
4.36542e-15
3.85383e-15
4.12488e-15
4.10666e-15
4.13182e-15
4.20907e-15
4.3837e-15
4.38768e-15
4.35838e-15
4.51933e-15
4.56531e-15
4.66528e-15
4.63762e-15
4.4948e-15
4.3625e-15
4.55867e-15
4.37831e-15
4.50528e-15
4.85102e-15
4.9058e-15
4.38561e-15
3.59564e-15
4.43715e-15
4.32737e-15
4.23948e-15
4.43492e-15
4.47252e-15
4.50524e-15
4.58394e-15
4.68559e-15
4.69864e-15
4.83503e-15
4.4989e-15
4.46272e-15
4.45012e-15
4.43218e-15
4.36469e-15
4.55789e-15
4.89094e-15
4.88961e-15
4.04067e-15
6.11391e-15
4.5386e-15
4.40669e-15
4.38641e-15
4.56125e-15
4.55519e-15
4.758e-15
4.81138e-15
4.73971e-15
4.61149e-15
4.79689e-15
4.58426e-15
4.49567e-15
4.41554e-15
4.45754e-15
4.49055e-15
4.63241e-15
4.9514e-15
4.87209e-15
5.01408e-15
3.34853e-15
4.4781e-15
4.50955e-15
4.7646e-15
4.64612e-15
4.56833e-15
4.76847e-15
4.76475e-15
4.75055e-15
4.68912e-15
4.63995e-15
4.5196e-15
4.46854e-15
4.5182e-15
4.45679e-15
4.71145e-15
4.70464e-15
4.82619e-15
5.04772e-15
5.04762e-15
3.35423e-15
4.26917e-15
4.65202e-15
4.92898e-15
4.83292e-15
4.69195e-15
4.65138e-15
4.57653e-15
4.65362e-15
4.71579e-15
4.58268e-15
4.47775e-15
4.40332e-15
4.50705e-15
4.49494e-15
4.70445e-15
4.61366e-15
4.75134e-15
5.17248e-15
3.33889e-15
5.99206e-15
4.41715e-15
4.89778e-15
5.07928e-15
4.86614e-15
4.68625e-15
4.50065e-15
4.70925e-15
4.77813e-15
4.69906e-15
4.60326e-15
4.52805e-15
4.50316e-15
4.57816e-15
4.7243e-15
4.8274e-15
4.50851e-15
4.62941e-15
5.17357e-15
)
;

boundaryField
{
    movingWall
    {
        type            zeroGradient;
    }
    fixedWalls
    {
        type            zeroGradient;
    }
    frontAndBack
    {
        type            empty;
    }
}


// ************************************************************************* //
