/*--------------------------------*- C++ -*----------------------------------*\
| =========                 |                                                 |
| \\      /  F ield         | OpenFOAM: The Open Source CFD Toolbox           |
|  \\    /   O peration     | Version:  2312                                  |
|   \\  /    A nd           | Website:  www.openfoam.com                      |
|    \\/     M anipulation  |                                                 |
\*---------------------------------------------------------------------------*/
FoamFile
{
    version     2.0;
    format      ascii;
    arch        "LSB;label=32;scalar=64";
    class       volVectorField;
    location    "6";
    object      ddtU;
}
// * * * * * * * * * * * * * * * * * * * * * * * * * * * * * * * * * * * * * //

dimensions      [0 1 -2 0 0 0 0];

internalField   nonuniform List<vector> 
400
(
(-8.88178e-14 1.80473e-13 0)
(4.44089e-14 -4.28883e-14 0)
(8.88178e-14 8.19324e-15 0)
(-2.22045e-14 6.75355e-15 0)
(4.44089e-14 -1.16689e-14 0)
(6.66134e-14 -1.27735e-14 0)
(4.44089e-14 5.84356e-15 0)
(2.22045e-14 1.58467e-14 0)
(0 3.26601e-15 0)
(2.22045e-14 3.31731e-15 0)
(0 -4.31904e-15 0)
(0 -8.51723e-15 0)
(0 5.92043e-15 0)
(-2.22045e-14 6.37521e-15 0)
(0 -9.03758e-15 0)
(4.44089e-14 -1.1917e-14 0)
(2.22045e-14 1.18753e-14 0)
(0 1.21668e-14 0)
(4.44089e-14 -8.86347e-15 0)
(0 -1.99916e-15 0)
(4.44089e-14 -1.73761e-15 0)
(8.88178e-14 3.64508e-14 0)
(4.44089e-14 -5.91814e-15 0)
(6.66134e-14 1.67671e-15 0)
(2.22045e-14 -6.27793e-15 0)
(0 2.74416e-15 0)
(-4.44089e-14 6.63101e-15 0)
(0 4.36129e-15 0)
(-2.22045e-14 5.00988e-15 0)
(2.22045e-14 1.28319e-14 0)
(0 9.88193e-16 0)
(0 -8.23388e-15 0)
(0 8.9489e-15 0)
(4.44089e-14 7.43557e-15 0)
(-2.22045e-14 -8.31891e-15 0)
(-4.44089e-14 -6.5651e-15 0)
(-4.44089e-14 1.76086e-14 0)
(0 2.2544e-14 0)
(0 -1.42841e-14 0)
(-6.66134e-14 -1.61693e-14 0)
(0 1.92655e-14 0)
(-2.22045e-14 2.72852e-14 0)
(6.66134e-14 -1.45808e-15 0)
(4.44089e-14 1.30954e-14 0)
(0 2.51284e-14 0)
(-4.44089e-14 1.88531e-14 0)
(4.44089e-14 2.20378e-15 0)
(0 -1.76379e-14 0)
(0 -1.18698e-14 0)
(0 -7.22489e-15 0)
(0 -6.38214e-17 0)
(0 6.26989e-15 0)
(0 1.10081e-14 0)
(0 8.45488e-15 0)
(-4.44089e-14 1.13518e-14 0)
(0 1.95046e-15 0)
(0 -8.63633e-15 0)
(0 -3.28378e-15 0)
(4.44089e-14 -1.20639e-14 0)
(4.44089e-14 -2.0506e-14 0)
(8.88178e-14 1.30887e-13 0)
(0 -1.45025e-14 0)
(4.44089e-14 1.7245e-15 0)
(-2.22045e-14 2.03805e-16 0)
(0 -3.41636e-15 0)
(4.44089e-14 -1.39266e-15 0)
(0 4.94043e-15 0)
(2.22045e-14 9.64496e-16 0)
(2.22045e-14 -1.90338e-14 0)
(0 -1.427e-14 0)
(2.22045e-14 7.19935e-15 0)
(0 2.25037e-14 0)
(0 1.4012e-14 0)
(0 1.92455e-15 0)
(0 -2.56058e-15 0)
(4.44089e-14 -8.4413e-15 0)
(-2.22045e-14 -1.90904e-14 0)
(0 -2.42237e-14 0)
(-6.66134e-14 -1.40607e-14 0)
(4.44089e-14 -7.83229e-16 0)
(-8.88178e-14 -1.09881e-13 0)
(8.88178e-14 3.55123e-14 0)
(-2.22045e-14 1.1887e-14 0)
(0 -2.10188e-15 0)
(-2.22045e-14 -7.0457e-15 0)
(-2.22045e-14 2.84005e-15 0)
(-2.22045e-14 2.46665e-14 0)
(2.22045e-14 2.69627e-14 0)
(-2.22045e-14 6.09045e-15 0)
(-1.11022e-13 -1.8795e-14 0)
(-4.44089e-14 -2.57901e-14 0)
(0 -2.08403e-14 0)
(4.44089e-14 -1.73568e-14 0)
(8.88178e-14 -8.43132e-15 0)
(2.22045e-14 -6.55467e-15 0)
(2.22045e-14 -8.48416e-15 0)
(2.22045e-14 -1.08512e-14 0)
(2.22045e-14 -1.05322e-14 0)
(0 -1.32391e-14 0)
(0 4.6268e-15 0)
(0 -9.62675e-14 0)
(-6.66134e-14 1.80415e-14 0)
(0 1.89232e-14 0)
(-2.22045e-14 1.13204e-14 0)
(2.22045e-14 1.76097e-15 0)
(-4.44089e-14 -6.3728e-15 0)
(0 -1.07839e-14 0)
(4.44089e-14 1.24399e-15 0)
(0 1.30898e-14 0)
(6.66134e-14 -2.61176e-14 0)
(2.22045e-14 -4.20233e-14 0)
(2.22045e-14 -2.48092e-14 0)
(2.22045e-14 -3.98116e-15 0)
(2.22045e-14 9.85321e-15 0)
(-2.22045e-14 -1.30986e-15 0)
(0 -2.16877e-14 0)
(-4.44089e-14 -1.32209e-14 0)
(0 -1.18639e-14 0)
(-2.22045e-14 -8.44187e-15 0)
(-2.22045e-14 -5.23289e-15 0)
(1.33227e-13 1.8766e-13 0)
(2.22045e-14 -3.36291e-14 0)
(4.44089e-14 2.40291e-14 0)
(2.22045e-14 5.87995e-15 0)
(2.22045e-14 -2.93164e-15 0)
(-2.22045e-14 -1.45687e-14 0)
(6.66134e-14 -3.31958e-14 0)
(-2.22045e-14 -2.87529e-14 0)
(0 -3.24835e-15 0)
(2.22045e-14 3.07521e-15 0)
(-2.22045e-14 -1.91986e-14 0)
(-4.44089e-14 -2.71091e-14 0)
(4.44089e-14 -5.11432e-15 0)
(4.44089e-14 1.6548e-15 0)
(4.44089e-14 -1.20849e-14 0)
(6.66134e-14 -9.02908e-15 0)
(4.44089e-14 -4.39719e-15 0)
(2.22045e-14 -7.58946e-15 0)
(0 8.05127e-16 0)
(0 4.9637e-17 0)
(4.44089e-14 -9.15015e-14 0)
(0 3.28341e-14 0)
(4.44089e-14 8.43402e-15 0)
(2.22045e-14 2.59432e-14 0)
(0 1.57518e-14 0)
(0 -5.84185e-15 0)
(0 -6.81273e-15 0)
(0 -2.82308e-14 0)
(0 -2.67089e-14 0)
(0 4.02837e-15 0)
(4.44089e-14 -6.92592e-15 0)
(-4.44089e-14 -4.17883e-14 0)
(-4.44089e-14 -4.81915e-14 0)
(-4.44089e-14 -1.77015e-14 0)
(-4.44089e-14 4.05829e-15 0)
(-4.44089e-14 1.15435e-14 0)
(-4.44089e-14 -6.96272e-16 0)
(-4.44089e-14 3.15022e-16 0)
(0 -3.41926e-15 0)
(0 -3.59551e-15 0)
(-1.11022e-13 -9.35613e-14 0)
(0 4.72272e-14 0)
(-1.11022e-13 -1.83976e-14 0)
(4.44089e-14 -8.28101e-15 0)
(4.44089e-14 -8.67337e-15 0)
(8.88178e-14 -7.53777e-15 0)
(4.44089e-14 -1.42202e-14 0)
(4.44089e-14 -2.54624e-14 0)
(-4.44089e-14 -2.82662e-14 0)
(0 -7.9687e-15 0)
(0 9.88644e-15 0)
(2.22045e-14 3.21352e-15 0)
(-2.22045e-14 -3.03226e-14 0)
(-8.88178e-14 -3.11e-14 0)
(2.22045e-14 -6.24689e-15 0)
(0 2.18268e-15 0)
(0 -1.18549e-14 0)
(0 -2.34369e-14 0)
(0 -2.00572e-14 0)
(-2.22045e-14 -1.59746e-14 0)
(0 1.74176e-13 0)
(8.88178e-14 -3.07351e-14 0)
(8.88178e-14 6.34938e-15 0)
(2.22045e-14 -2.62622e-14 0)
(0 -2.39749e-14 0)
(-2.22045e-14 -1.73729e-14 0)
(-2.22045e-14 -2.46773e-14 0)
(2.22045e-14 -1.05185e-14 0)
(-2.22045e-14 -7.4729e-15 0)
(2.22045e-14 -1.83241e-15 0)
(0 -4.85758e-15 0)
(2.22045e-14 -5.5077e-15 0)
(2.22045e-14 -1.18588e-14 0)
(4.44089e-14 -2.94464e-14 0)
(0 -1.96239e-14 0)
(2.22045e-14 -9.8045e-15 0)
(2.22045e-14 -2.44664e-14 0)
(0 -3.47843e-14 0)
(0 -1.79332e-14 0)
(0 -1.49652e-14 0)
(4.44089e-14 -7.90909e-14 0)
(-2.22045e-14 -6.31816e-15 0)
(4.44089e-14 9.32413e-15 0)
(0 1.00002e-14 0)
(4.44089e-14 -2.0306e-15 0)
(4.44089e-14 1.39357e-15 0)
(2.22045e-14 -2.88967e-15 0)
(0 -4.80491e-16 0)
(0 -6.11515e-15 0)
(0 -5.1319e-15 0)
(0 -1.81458e-14 0)
(2.22045e-14 -2.09623e-14 0)
(2.22045e-14 -1.81295e-14 0)
(2.22045e-14 -2.14692e-14 0)
(-4.44089e-14 -1.17348e-14 0)
(4.44089e-14 -1.23037e-14 0)
(2.22045e-14 -1.74395e-14 0)
(-4.44089e-14 -2.38452e-14 0)
(-4.44089e-14 -2.59535e-14 0)
(0 -1.58848e-14 0)
(-2.22045e-14 4.70097e-14 0)
(-4.44089e-14 -1.80384e-14 0)
(-8.88178e-14 -1.86083e-14 0)
(-4.44089e-14 -1.30951e-14 0)
(4.44089e-14 -5.7611e-15 0)
(0 1.77169e-15 0)
(8.88178e-14 1.33473e-14 0)
(4.44089e-14 4.27613e-16 0)
(4.44089e-14 -2.03473e-14 0)
(4.44089e-14 -3.59818e-14 0)
(8.88178e-14 -2.21697e-14 0)
(0 -5.16539e-15 0)
(8.88178e-14 1.00014e-14 0)
(-2.22045e-14 -3.5028e-15 0)
(0 -1.66936e-14 0)
(2.22045e-14 -2.16798e-14 0)
(6.66134e-14 -7.29744e-15 0)
(0 -9.99015e-15 0)
(2.22045e-14 -3.50992e-14 0)
(0 -1.79408e-14 0)
(0 -5.58449e-14 0)
(2.22045e-14 2.56394e-14 0)
(-4.44089e-14 -1.8587e-14 0)
(0 -3.09884e-14 0)
(-4.44089e-14 -3.75172e-14 0)
(0 -4.00429e-14 0)
(0 -2.35247e-14 0)
(0 -2.21164e-14 0)
(6.66134e-14 -1.62354e-14 0)
(4.44089e-14 -6.41427e-15 0)
(-2.22045e-14 1.1509e-14 0)
(-2.22045e-14 2.8277e-15 0)
(0 3.64539e-15 0)
(4.44089e-14 9.5305e-15 0)
(4.44089e-14 -8.5975e-15 0)
(-4.44089e-14 -2.234e-14 0)
(-4.44089e-14 -5.15513e-15 0)
(0 -8.99683e-15 0)
(0 -2.0884e-14 0)
(-4.44089e-14 -2.63086e-14 0)
(6.66134e-14 3.75604e-15 0)
(0 2.45405e-14 0)
(-2.22045e-14 4.38062e-15 0)
(2.22045e-14 -2.22634e-15 0)
(0 -2.20656e-14 0)
(0 -3.91065e-14 0)
(-2.22045e-14 -4.65963e-14 0)
(-2.22045e-14 -2.88963e-14 0)
(-2.22045e-14 -1.6693e-15 0)
(-8.88178e-14 2.6185e-14 0)
(2.22045e-14 7.7581e-15 0)
(-2.22045e-14 -9.618e-15 0)
(-4.44089e-14 -2.28682e-14 0)
(0 -1.08107e-14 0)
(6.66134e-14 -6.51467e-15 0)
(0 8.04768e-15 0)
(-2.22045e-14 -5.09687e-16 0)
(4.44089e-14 -1.52883e-14 0)
(0 -1.39518e-14 0)
(2.22045e-14 -2.38332e-14 0)
(-1.33227e-13 9.85876e-14 0)
(4.44089e-14 -6.00906e-15 0)
(0 5.20965e-15 0)
(0 -1.21466e-14 0)
(0 -1.33621e-14 0)
(4.44089e-14 -1.15921e-14 0)
(0 -2.31296e-14 0)
(0 -1.35867e-14 0)
(-4.44089e-14 -5.91359e-15 0)
(0 7.23009e-15 0)
(0 -4.47222e-15 0)
(0 -4.43602e-15 0)
(0 3.22339e-15 0)
(0 -9.82312e-15 0)
(0 -1.55213e-14 0)
(-4.44089e-14 -7.9076e-15 0)
(2.22045e-14 -1.16479e-14 0)
(2.22045e-14 -1.14563e-15 0)
(0 3.80125e-15 0)
(0 -6.31302e-15 0)
(8.88178e-14 -5.59254e-14 0)
(-4.44089e-14 2.99531e-14 0)
(0 2.56923e-15 0)
(-4.44089e-14 -2.40819e-14 0)
(0 -2.07195e-14 0)
(-4.44089e-14 -8.77503e-15 0)
(0 -1.52854e-14 0)
(0 -1.40856e-14 0)
(4.44089e-14 -1.7441e-14 0)
(0 -1.78411e-14 0)
(8.88178e-14 1.19076e-14 0)
(0 1.52913e-14 0)
(-4.44089e-14 1.0443e-14 0)
(0 1.95693e-15 0)
(-4.44089e-14 -2.86507e-15 0)
(0 -1.04813e-14 0)
(-4.44089e-14 1.32616e-15 0)
(-4.44089e-14 6.34008e-15 0)
(-4.44089e-14 5.85041e-15 0)
(0 -5.84647e-16 0)
(-4.44089e-14 3.89681e-14 0)
(0 2.94574e-14 0)
(4.44089e-14 -6.93081e-16 0)
(8.88178e-14 -1.08526e-14 0)
(4.44089e-14 -1.78448e-14 0)
(4.44089e-14 6.41881e-16 0)
(4.44089e-14 7.15845e-15 0)
(-4.44089e-14 -1.36097e-14 0)
(-2.22045e-14 -1.61412e-14 0)
(-2.22045e-14 -2.63624e-14 0)
(-4.44089e-14 -1.096e-14 0)
(0 9.82908e-15 0)
(0 -3.9061e-15 0)
(4.44089e-14 -3.16875e-15 0)
(4.44089e-14 -3.63509e-15 0)
(0 -2.48896e-15 0)
(1.11022e-13 1.74833e-14 0)
(4.44089e-14 3.10184e-14 0)
(2.22045e-14 1.44744e-14 0)
(0 1.60077e-15 0)
(-8.88178e-14 7.29132e-14 0)
(0 -2.4835e-14 0)
(0 -1.39745e-15 0)
(4.44089e-14 -3.05645e-15 0)
(0 -6.58732e-15 0)
(-4.44089e-14 -1.07664e-14 0)
(0 1.82483e-15 0)
(4.44089e-14 6.91983e-15 0)
(2.22045e-14 7.92259e-15 0)
(-2.22045e-14 5.13833e-15 0)
(0 3.86811e-15 0)
(-4.44089e-14 1.24429e-14 0)
(0 5.39554e-15 0)
(-4.44089e-14 -1.99694e-14 0)
(-2.22045e-14 -2.02467e-14 0)
(-4.44089e-14 -1.54521e-14 0)
(-6.66134e-14 5.18173e-15 0)
(0 2.13763e-14 0)
(0 2.68439e-14 0)
(2.22045e-14 1.62653e-14 0)
(4.44089e-14 -4.3212e-14 0)
(0 -2.2869e-14 0)
(2.22045e-14 -1.22406e-14 0)
(2.22045e-14 1.73046e-14 0)
(0 2.47337e-14 0)
(0 -8.27912e-15 0)
(-2.22045e-14 -2.11003e-14 0)
(-4.44089e-14 3.96379e-15 0)
(4.44089e-14 1.25619e-14 0)
(-4.44089e-14 8.32132e-15 0)
(0 1.60091e-14 0)
(-4.44089e-14 8.36457e-16 0)
(4.44089e-14 2.65718e-15 0)
(2.22045e-14 -1.41348e-15 0)
(0 4.02488e-16 0)
(2.22045e-14 -4.35355e-16 0)
(0 -8.39181e-15 0)
(-4.44089e-14 -1.20382e-14 0)
(0 5.76908e-15 0)
(0 1.65811e-14 0)
(0 -4.14403e-14 0)
(2.22045e-14 2.33985e-16 0)
(-4.44089e-14 -9.45658e-15 0)
(-2.22045e-14 1.82608e-14 0)
(0 2.00588e-14 0)
(0 1.39189e-14 0)
(-2.22045e-14 -8.21334e-16 0)
(0 -6.84161e-15 0)
(0 9.6197e-16 0)
(2.22045e-14 -2.01966e-15 0)
(-2.22045e-14 -1.31921e-15 0)
(4.44089e-14 -1.39935e-14 0)
(-2.22045e-14 -1.03763e-14 0)
(0 1.06976e-14 0)
(-2.22045e-14 1.2449e-14 0)
(6.66134e-14 3.83713e-15 0)
(4.44089e-14 -8.00227e-15 0)
(2.22045e-14 -2.17351e-15 0)
(0 -1.50458e-15 0)
(0 2.72076e-15 0)
)
;

boundaryField
{
    movingWall
    {
        type            calculated;
        value           uniform (0 0 0);
    }
    fixedWalls
    {
        type            calculated;
        value           uniform (0 0 0);
    }
    frontAndBack
    {
        type            empty;
    }
}


// ************************************************************************* //
