/*--------------------------------*- C++ -*----------------------------------*\
| =========                 |                                                 |
| \\      /  F ield         | OpenFOAM: The Open Source CFD Toolbox           |
|  \\    /   O peration     | Version:  2312                                  |
|   \\  /    A nd           | Website:  www.openfoam.com                      |
|    \\/     M anipulation  |                                                 |
\*---------------------------------------------------------------------------*/
FoamFile
{
    version     2.0;
    format      ascii;
    arch        "LSB;label=32;scalar=64";
    class       volVectorField;
    location    "6";
    object      diffU;
}
// * * * * * * * * * * * * * * * * * * * * * * * * * * * * * * * * * * * * * //

dimensions      [0 1 -1 0 0 0 0];

internalField   nonuniform List<vector> 
400
(
(0 0 0)
(2.15383e-14 -1.77215e-13 0)
(1.64313e-14 -1.38942e-13 0)
(1.67644e-14 -1.47819e-13 0)
(1.67644e-14 -1.45981e-13 0)
(1.69864e-14 -1.46391e-13 0)
(1.67644e-14 -1.46295e-13 0)
(1.66533e-14 -1.46288e-13 0)
(1.65423e-14 -1.46313e-13 0)
(1.64313e-14 -1.46326e-13 0)
(1.65423e-14 -1.46357e-13 0)
(1.62093e-14 -1.46382e-13 0)
(1.64313e-14 -1.46332e-13 0)
(1.63203e-14 -1.46253e-13 0)
(1.59872e-14 -1.46307e-13 0)
(1.62093e-14 -1.46423e-13 0)
(1.63203e-14 -1.46404e-13 0)
(1.62093e-14 -1.46292e-13 0)
(1.62093e-14 -1.46328e-13 0)
(1.62093e-14 -1.4634e-13 0)
(4.08562e-14 -1.22619e-13 0)
(9.32587e-15 -1.51671e-13 0)
(1.65423e-14 -1.4495e-13 0)
(1.65423e-14 -1.46775e-13 0)
(1.64313e-14 -1.46437e-13 0)
(1.67644e-14 -1.46392e-13 0)
(1.67644e-14 -1.46241e-13 0)
(1.64313e-14 -1.46271e-13 0)
(1.66533e-14 -1.46345e-13 0)
(1.65423e-14 -1.46286e-13 0)
(1.66533e-14 -1.46257e-13 0)
(1.65423e-14 -1.46243e-13 0)
(1.65423e-14 -1.46162e-13 0)
(1.64313e-14 -1.46068e-13 0)
(1.62093e-14 -1.46129e-13 0)
(1.59872e-14 -1.4631e-13 0)
(1.59872e-14 -1.46385e-13 0)
(1.59872e-14 -1.46286e-13 0)
(1.59872e-14 -1.46413e-13 0)
(1.59872e-14 -1.4641e-13 0)
(1.83187e-14 -2.94357e-13 0)
(1.65423e-14 -1.14197e-13 0)
(1.67644e-14 -1.54068e-13 0)
(1.59872e-14 -1.44872e-13 0)
(1.62093e-14 -1.4684e-13 0)
(1.57652e-14 -1.46255e-13 0)
(1.59872e-14 -1.46147e-13 0)
(1.59872e-14 -1.46144e-13 0)
(1.57652e-14 -1.46255e-13 0)
(1.57652e-14 -1.46352e-13 0)
(1.57652e-14 -1.46343e-13 0)
(1.57652e-14 -1.46258e-13 0)
(1.57652e-14 -1.46157e-13 0)
(1.57652e-14 -1.46115e-13 0)
(1.57652e-14 -1.46129e-13 0)
(1.62093e-14 -1.4621e-13 0)
(1.59872e-14 -1.46384e-13 0)
(1.59872e-14 -1.46507e-13 0)
(1.62093e-14 -1.46572e-13 0)
(1.62093e-14 -1.46501e-13 0)
(-8.65974e-15 -4.29709e-14 0)
(2.27596e-14 -1.68293e-13 0)
(1.55431e-14 -1.41101e-13 0)
(1.67644e-14 -1.47365e-13 0)
(1.62093e-14 -1.46078e-13 0)
(1.64313e-14 -1.46482e-13 0)
(1.62093e-14 -1.46356e-13 0)
(1.64313e-14 -1.46325e-13 0)
(1.64313e-14 -1.46374e-13 0)
(1.65423e-14 -1.46501e-13 0)
(1.66533e-14 -1.46426e-13 0)
(1.67644e-14 -1.46202e-13 0)
(1.64313e-14 -1.46104e-13 0)
(1.65423e-14 -1.46176e-13 0)
(1.66533e-14 -1.4626e-13 0)
(1.66533e-14 -1.46273e-13 0)
(1.64313e-14 -1.4637e-13 0)
(1.65423e-14 -1.46521e-13 0)
(1.62093e-14 -1.46511e-13 0)
(1.64313e-14 -1.4644e-13 0)
(3.4861e-14 -1.54358e-13 0)
(1.04361e-14 -1.45545e-13 0)
(1.64313e-14 -1.46726e-13 0)
(1.59872e-14 -1.46358e-13 0)
(1.66533e-14 -1.46367e-13 0)
(1.63203e-14 -1.46397e-13 0)
(1.64313e-14 -1.46343e-13 0)
(1.63203e-14 -1.4624e-13 0)
(1.64313e-14 -1.46163e-13 0)
(1.59872e-14 -1.46169e-13 0)
(1.57652e-14 -1.46226e-13 0)
(1.57652e-14 -1.46219e-13 0)
(1.62093e-14 -1.46284e-13 0)
(1.62093e-14 -1.46308e-13 0)
(1.63203e-14 -1.46347e-13 0)
(1.63203e-14 -1.46367e-13 0)
(1.63203e-14 -1.46389e-13 0)
(1.63203e-14 -1.46372e-13 0)
(1.62093e-14 -1.46405e-13 0)
(1.62093e-14 -1.46407e-13 0)
(1.77636e-14 -2.23298e-13 0)
(1.68754e-14 -1.30228e-13 0)
(1.73195e-14 -1.50303e-13 0)
(1.62093e-14 -1.45517e-13 0)
(1.63203e-14 -1.46426e-13 0)
(1.57652e-14 -1.46174e-13 0)
(1.57652e-14 -1.46339e-13 0)
(1.55431e-14 -1.46373e-13 0)
(1.59872e-14 -1.46278e-13 0)
(1.63203e-14 -1.46229e-13 0)
(1.64313e-14 -1.46374e-13 0)
(1.65423e-14 -1.46463e-13 0)
(1.65423e-14 -1.46397e-13 0)
(1.64313e-14 -1.46232e-13 0)
(1.64313e-14 -1.46215e-13 0)
(1.62093e-14 -1.46338e-13 0)
(1.59872e-14 -1.46418e-13 0)
(1.59872e-14 -1.46398e-13 0)
(1.63203e-14 -1.46408e-13 0)
(1.62093e-14 -1.46429e-13 0)
(1.46549e-14 -5.73659e-14 0)
(1.76525e-14 -1.64136e-13 0)
(1.68754e-14 -1.41902e-13 0)
(1.66533e-14 -1.47002e-13 0)
(1.66533e-14 -1.45919e-13 0)
(1.64313e-14 -1.46178e-13 0)
(1.67644e-14 -1.46385e-13 0)
(1.64313e-14 -1.4655e-13 0)
(1.63203e-14 -1.46489e-13 0)
(1.63203e-14 -1.46267e-13 0)
(1.63203e-14 -1.46289e-13 0)
(1.57652e-14 -1.46414e-13 0)
(1.59872e-14 -1.46309e-13 0)
(1.59872e-14 -1.46207e-13 0)
(1.62093e-14 -1.46219e-13 0)
(1.65423e-14 -1.4628e-13 0)
(1.66533e-14 -1.46308e-13 0)
(1.64313e-14 -1.46336e-13 0)
(1.62093e-14 -1.4637e-13 0)
(1.63203e-14 -1.46345e-13 0)
(1.42109e-14 -1.68284e-13 0)
(1.55431e-14 -1.41937e-13 0)
(1.4877e-14 -1.47221e-13 0)
(1.63203e-14 -1.4592e-13 0)
(1.57652e-14 -1.46066e-13 0)
(1.59872e-14 -1.46126e-13 0)
(1.57652e-14 -1.46213e-13 0)
(1.59872e-14 -1.46283e-13 0)
(1.55431e-14 -1.46246e-13 0)
(1.55431e-14 -1.46149e-13 0)
(1.57652e-14 -1.46099e-13 0)
(1.55431e-14 -1.46304e-13 0)
(1.57652e-14 -1.46526e-13 0)
(1.55431e-14 -1.46555e-13 0)
(1.57652e-14 -1.46495e-13 0)
(1.59872e-14 -1.46417e-13 0)
(1.59872e-14 -1.46311e-13 0)
(1.59872e-14 -1.46265e-13 0)
(1.62093e-14 -1.46322e-13 0)
(1.62093e-14 -1.46333e-13 0)
(2.02061e-14 -2.00795e-13 0)
(1.55431e-14 -1.35302e-13 0)
(1.63203e-14 -1.48805e-13 0)
(1.53211e-14 -1.4571e-13 0)
(1.57652e-14 -1.46325e-13 0)
(1.59872e-14 -1.46205e-13 0)
(1.62093e-14 -1.4622e-13 0)
(1.59872e-14 -1.46266e-13 0)
(1.57652e-14 -1.46329e-13 0)
(1.59872e-14 -1.46426e-13 0)
(1.63203e-14 -1.46323e-13 0)
(1.63203e-14 -1.46252e-13 0)
(1.63203e-14 -1.46437e-13 0)
(1.59872e-14 -1.46569e-13 0)
(1.63203e-14 -1.46527e-13 0)
(1.63203e-14 -1.4645e-13 0)
(1.62093e-14 -1.46354e-13 0)
(1.59872e-14 -1.46371e-13 0)
(1.62093e-14 -1.46339e-13 0)
(1.63203e-14 -1.46375e-13 0)
(1.9762e-14 -7.98994e-14 0)
(1.57652e-14 -1.59772e-13 0)
(1.70974e-14 -1.43018e-13 0)
(1.66533e-14 -1.46822e-13 0)
(1.65423e-14 -1.4614e-13 0)
(1.63203e-14 -1.46335e-13 0)
(1.63203e-14 -1.46373e-13 0)
(1.65423e-14 -1.46349e-13 0)
(1.64313e-14 -1.46392e-13 0)
(1.64313e-14 -1.4642e-13 0)
(1.66533e-14 -1.46438e-13 0)
(1.63203e-14 -1.46392e-13 0)
(1.65423e-14 -1.46411e-13 0)
(1.64313e-14 -1.46508e-13 0)
(1.64313e-14 -1.4644e-13 0)
(1.64313e-14 -1.46316e-13 0)
(1.63203e-14 -1.46329e-13 0)
(1.63203e-14 -1.46462e-13 0)
(1.62093e-14 -1.46388e-13 0)
(1.62093e-14 -1.4639e-13 0)
(5.55112e-15 -2.05852e-13 0)
(1.85407e-14 -1.33182e-13 0)
(1.55431e-14 -1.49237e-13 0)
(1.69864e-14 -1.45503e-13 0)
(1.69864e-14 -1.46364e-13 0)
(1.70974e-14 -1.46261e-13 0)
(1.69864e-14 -1.4632e-13 0)
(1.68754e-14 -1.46196e-13 0)
(1.68754e-14 -1.46173e-13 0)
(1.66533e-14 -1.46164e-13 0)
(1.65423e-14 -1.46241e-13 0)
(1.64313e-14 -1.46328e-13 0)
(1.66533e-14 -1.4637e-13 0)
(1.64313e-14 -1.46445e-13 0)
(1.59872e-14 -1.46417e-13 0)
(1.62093e-14 -1.46313e-13 0)
(1.63203e-14 -1.46364e-13 0)
(1.59872e-14 -1.46434e-13 0)
(1.59872e-14 -1.46481e-13 0)
(1.63203e-14 -1.46456e-13 0)
(2.38698e-14 -1.0051e-13 0)
(1.46549e-14 -1.55995e-13 0)
(1.57652e-14 -1.44099e-13 0)
(1.46549e-14 -1.46863e-13 0)
(1.53211e-14 -1.46232e-13 0)
(1.53211e-14 -1.46264e-13 0)
(1.55431e-14 -1.46115e-13 0)
(1.5099e-14 -1.46079e-13 0)
(1.53211e-14 -1.46186e-13 0)
(1.53211e-14 -1.46365e-13 0)
(1.59872e-14 -1.46493e-13 0)
(1.59872e-14 -1.4652e-13 0)
(1.64313e-14 -1.46396e-13 0)
(1.64313e-14 -1.46239e-13 0)
(1.65423e-14 -1.46273e-13 0)
(1.63203e-14 -1.46349e-13 0)
(1.68754e-14 -1.46372e-13 0)
(1.63203e-14 -1.46325e-13 0)
(1.64313e-14 -1.46409e-13 0)
(1.63203e-14 -1.46422e-13 0)
(1.55431e-15 -1.53323e-13 0)
(1.77636e-14 -1.45466e-13 0)
(1.39888e-14 -1.46494e-13 0)
(1.62093e-14 -1.46312e-13 0)
(1.5099e-14 -1.46389e-13 0)
(1.55431e-14 -1.46432e-13 0)
(1.55431e-14 -1.46424e-13 0)
(1.59872e-14 -1.4654e-13 0)
(1.63203e-14 -1.46639e-13 0)
(1.66533e-14 -1.46664e-13 0)
(1.62093e-14 -1.46592e-13 0)
(1.62093e-14 -1.46535e-13 0)
(1.57652e-14 -1.46467e-13 0)
(1.59872e-14 -1.46252e-13 0)
(1.57652e-14 -1.46209e-13 0)
(1.57652e-14 -1.46372e-13 0)
(1.57652e-14 -1.46383e-13 0)
(1.57652e-14 -1.46358e-13 0)
(1.59872e-14 -1.46397e-13 0)
(1.59872e-14 -1.46443e-13 0)
(2.77556e-14 -2.0902e-13 0)
(1.59872e-14 -1.32655e-13 0)
(1.82077e-14 -1.49394e-13 0)
(1.66533e-14 -1.45477e-13 0)
(1.69864e-14 -1.46389e-13 0)
(1.68754e-14 -1.46285e-13 0)
(1.66533e-14 -1.46485e-13 0)
(1.66533e-14 -1.46601e-13 0)
(1.65423e-14 -1.46562e-13 0)
(1.62093e-14 -1.46331e-13 0)
(1.63203e-14 -1.46226e-13 0)
(1.62093e-14 -1.46243e-13 0)
(1.59872e-14 -1.46326e-13 0)
(1.62093e-14 -1.46408e-13 0)
(1.63203e-14 -1.46359e-13 0)
(1.63203e-14 -1.46377e-13 0)
(1.62093e-14 -1.46403e-13 0)
(1.64313e-14 -1.46415e-13 0)
(1.63203e-14 -1.46486e-13 0)
(1.63203e-14 -1.46507e-13 0)
(2.22045e-15 -3.96859e-14 0)
(1.79856e-14 -1.69061e-13 0)
(1.46549e-14 -1.40983e-13 0)
(1.59872e-14 -1.47448e-13 0)
(1.55431e-14 -1.46056e-13 0)
(1.59872e-14 -1.46325e-13 0)
(1.57652e-14 -1.46339e-13 0)
(1.57652e-14 -1.46503e-13 0)
(1.55431e-14 -1.46507e-13 0)
(1.55431e-14 -1.46376e-13 0)
(1.59872e-14 -1.46358e-13 0)
(1.59872e-14 -1.46326e-13 0)
(1.64313e-14 -1.46222e-13 0)
(1.63203e-14 -1.46279e-13 0)
(1.59872e-14 -1.46414e-13 0)
(1.59872e-14 -1.46431e-13 0)
(1.63203e-14 -1.46458e-13 0)
(1.63203e-14 -1.46411e-13 0)
(1.64313e-14 -1.46338e-13 0)
(1.62093e-14 -1.46377e-13 0)
(3.63043e-14 -2.16066e-13 0)
(1.15463e-14 -1.31345e-13 0)
(1.68754e-14 -1.49713e-13 0)
(1.57652e-14 -1.45552e-13 0)
(1.62093e-14 -1.46448e-13 0)
(1.57652e-14 -1.46233e-13 0)
(1.57652e-14 -1.46347e-13 0)
(1.57652e-14 -1.4648e-13 0)
(1.57652e-14 -1.46558e-13 0)
(1.55431e-14 -1.46678e-13 0)
(1.59872e-14 -1.46555e-13 0)
(1.59872e-14 -1.46379e-13 0)
(1.55431e-14 -1.46309e-13 0)
(1.59872e-14 -1.46351e-13 0)
(1.59872e-14 -1.46496e-13 0)
(1.62093e-14 -1.46461e-13 0)
(1.63203e-14 -1.46373e-13 0)
(1.59872e-14 -1.46381e-13 0)
(1.59872e-14 -1.46375e-13 0)
(1.62093e-14 -1.46352e-13 0)
(-4.44089e-15 -1.70957e-13 0)
(2.09832e-14 -1.40605e-13 0)
(1.53211e-14 -1.47356e-13 0)
(1.62093e-14 -1.45875e-13 0)
(1.59872e-14 -1.46302e-13 0)
(1.59872e-14 -1.4624e-13 0)
(1.64313e-14 -1.46197e-13 0)
(1.64313e-14 -1.46222e-13 0)
(1.64313e-14 -1.46329e-13 0)
(1.62093e-14 -1.46483e-13 0)
(1.57652e-14 -1.46492e-13 0)
(1.57652e-14 -1.46419e-13 0)
(1.57652e-14 -1.46486e-13 0)
(1.59872e-14 -1.46562e-13 0)
(1.59872e-14 -1.46649e-13 0)
(1.59872e-14 -1.46595e-13 0)
(1.63203e-14 -1.46384e-13 0)
(1.64313e-14 -1.46267e-13 0)
(1.63203e-14 -1.46356e-13 0)
(1.63203e-14 -1.46351e-13 0)
(1.24345e-14 -5.82694e-14 0)
(1.55431e-14 -1.65179e-13 0)
(1.5099e-14 -1.41895e-13 0)
(1.57652e-14 -1.47332e-13 0)
(1.59872e-14 -1.46271e-13 0)
(1.59872e-14 -1.46644e-13 0)
(1.57652e-14 -1.46575e-13 0)
(1.64313e-14 -1.46484e-13 0)
(1.65423e-14 -1.46343e-13 0)
(1.65423e-14 -1.46297e-13 0)
(1.66533e-14 -1.46348e-13 0)
(1.66533e-14 -1.46337e-13 0)
(1.67644e-14 -1.46292e-13 0)
(1.66533e-14 -1.46362e-13 0)
(1.65423e-14 -1.4655e-13 0)
(1.63203e-14 -1.46604e-13 0)
(1.59872e-14 -1.46494e-13 0)
(1.59872e-14 -1.46356e-13 0)
(1.62093e-14 -1.46277e-13 0)
(1.63203e-14 -1.46268e-13 0)
(3.71925e-14 -1.72148e-13 0)
(1.11022e-14 -1.41449e-13 0)
(1.69864e-14 -1.47812e-13 0)
(1.64313e-14 -1.46295e-13 0)
(1.64313e-14 -1.46474e-13 0)
(1.65423e-14 -1.46479e-13 0)
(1.65423e-14 -1.46614e-13 0)
(1.62093e-14 -1.46539e-13 0)
(1.59872e-14 -1.46374e-13 0)
(1.57652e-14 -1.46403e-13 0)
(1.59872e-14 -1.46425e-13 0)
(1.57652e-14 -1.46467e-13 0)
(1.59872e-14 -1.46434e-13 0)
(1.63203e-14 -1.46415e-13 0)
(1.63203e-14 -1.46313e-13 0)
(1.63203e-14 -1.46265e-13 0)
(1.62093e-14 -1.46339e-13 0)
(1.57652e-14 -1.46461e-13 0)
(1.62093e-14 -1.46431e-13 0)
(1.62093e-14 -1.46347e-13 0)
(9.99201e-15 -2.28514e-13 0)
(1.93179e-14 -1.28961e-13 0)
(1.72085e-14 -1.50648e-13 0)
(1.68754e-14 -1.45567e-13 0)
(1.69864e-14 -1.4653e-13 0)
(1.68754e-14 -1.46227e-13 0)
(1.68754e-14 -1.46241e-13 0)
(1.67644e-14 -1.46244e-13 0)
(1.68754e-14 -1.46287e-13 0)
(1.69864e-14 -1.46372e-13 0)
(1.67644e-14 -1.46428e-13 0)
(1.68754e-14 -1.46515e-13 0)
(1.65423e-14 -1.46573e-13 0)
(1.63203e-14 -1.46505e-13 0)
(1.62093e-14 -1.46313e-13 0)
(1.65423e-14 -1.46259e-13 0)
(1.64313e-14 -1.46313e-13 0)
(1.64313e-14 -1.46401e-13 0)
(1.63203e-14 -1.46428e-13 0)
(1.63203e-14 -1.4639e-13 0)
)
;

boundaryField
{
    movingWall
    {
        type            calculated;
        value           uniform (1.62093e-14 -1.46346e-13 0);
    }
    fixedWalls
    {
        type            calculated;
        value           uniform (1.62093e-14 -1.46346e-13 0);
    }
    frontAndBack
    {
        type            empty;
    }
}


// ************************************************************************* //
