/*--------------------------------*- C++ -*----------------------------------*\
| =========                 |                                                 |
| \\      /  F ield         | OpenFOAM: The Open Source CFD Toolbox           |
|  \\    /   O peration     | Version:  2312                                  |
|   \\  /    A nd           | Website:  www.openfoam.com                      |
|    \\/     M anipulation  |                                                 |
\*---------------------------------------------------------------------------*/
FoamFile
{
    version     2.0;
    format      ascii;
    arch        "LSB;label=32;scalar=64";
    class       volScalarField;
    location    "6";
    object      divPhi;
}
// * * * * * * * * * * * * * * * * * * * * * * * * * * * * * * * * * * * * * //

dimensions      [0 0 -1 0 0 0 0];

internalField   nonuniform List<scalar> 
400
(
2.71051e-14
-5.90527e-15
6.02738e-15
-5.84609e-16
1.17759e-14
-4.29288e-16
-1.25793e-15
-7.54768e-15
8.03379e-15
-1.51306e-14
9.02145e-15
9.28975e-16
-1.3595e-14
9.99558e-15
1.06431e-15
-9.77772e-15
3.46781e-15
6.40148e-15
-5.86851e-15
0
0
-7.53688e-16
1.377e-14
-2.9937e-15
2.68471e-15
-7.10757e-15
-1.74854e-15
-2.56881e-14
2.83192e-14
1.30345e-15
-2.20988e-14
1.87334e-14
3.93029e-14
-3.12103e-15
-3.84478e-16
9.47712e-15
4.78019e-15
1.88147e-15
-6.03375e-15
0
-2.71051e-14
-2.0703e-17
-1.87005e-14
5.55809e-15
4.40396e-15
-8.052e-15
-1.43888e-14
-7.72949e-15
2.04032e-14
-6.73668e-15
-2.61855e-14
-1.57701e-15
1.2662e-14
-1.19562e-14
-2.76847e-15
1.23637e-14
-6.18977e-15
-1.2859e-14
-1.2849e-14
-2.71051e-14
0
9.99067e-15
-2.12515e-14
1.32867e-14
4.06739e-15
-5.6946e-15
7.15418e-15
1.01473e-14
-2.58096e-14
1.34645e-14
-8.55062e-15
3.11113e-15
-9.24507e-15
-6.51769e-15
-1.85937e-14
4.05882e-15
-3.06236e-14
4.59839e-15
-1.96994e-14
2.71051e-14
0
1.47334e-14
1.04232e-14
-9.00171e-16
1.09066e-14
1.29948e-15
-4.2186e-15
-1.11153e-14
1.85937e-14
1.78121e-14
-3.61022e-14
2.52275e-14
-1.37301e-14
-1.41303e-14
3.37491e-14
-4.90248e-15
-2.25029e-14
-1.67052e-15
-9.9302e-15
0
-2.71051e-14
-3.87469e-15
3.37813e-14
-1.51951e-14
9.13171e-15
-1.44572e-14
3.1544e-15
-2.97707e-14
1.00311e-15
-1.81525e-14
-7.07902e-15
7.49613e-15
5.76817e-15
2.91635e-14
9.05799e-15
-1.30835e-14
5.28367e-15
1.31548e-14
-1.14142e-14
2.71051e-14
2.71051e-14
3.28193e-15
-1.85451e-14
3.04076e-14
3.39047e-15
4.14045e-14
-2.17301e-14
-7.35078e-15
1.68572e-14
8.19703e-15
-1.16732e-14
1.89199e-14
4.98572e-15
-8.75232e-15
1.75238e-14
-2.93049e-14
6.74523e-15
2.29088e-14
1.43881e-15
-2.71051e-14
-2.71051e-14
1.33971e-14
1.98746e-14
-1.01483e-14
1.01554e-14
-1.78237e-14
2.22479e-15
-1.63831e-16
-8.0669e-15
-6.32391e-16
-2.92691e-14
-3.69496e-15
8.33466e-15
-1.3723e-14
4.62802e-16
-1.78798e-14
2.29734e-14
1.97516e-15
-2.04011e-14
2.71051e-14
2.71051e-14
1.47411e-14
-5.20747e-15
-5.96061e-15
1.60502e-14
-1.78999e-14
9.30031e-15
-6.62755e-15
4.9451e-15
-4.64806e-15
-1.06663e-14
6.27272e-15
9.06427e-15
1.27544e-14
-2.75906e-14
1.75079e-14
-2.15233e-14
8.37352e-15
-1.02364e-14
0
2.71051e-14
-1.01403e-14
-1.04391e-14
-1.83656e-14
4.85638e-15
-1.0851e-14
-1.10893e-15
9.37588e-15
4.68401e-15
6.89888e-15
-2.30331e-16
-9.60083e-15
1.66802e-14
2.1148e-14
-8.23455e-16
-2.49844e-14
-2.22064e-14
4.08173e-15
-8.75369e-15
-2.71051e-14
-2.71051e-14
-1.11988e-14
-1.15655e-14
2.88537e-14
-1.46493e-15
-9.65995e-15
1.64412e-14
1.11061e-14
7.1799e-15
-4.80954e-15
3.96319e-15
-3.51379e-14
5.74822e-15
-1.17443e-14
4.87129e-15
8.23939e-15
1.61488e-14
-2.14187e-15
-3.09292e-15
0
0
6.43625e-15
-2.37431e-14
-1.47667e-14
5.26084e-15
-3.57522e-16
-2.21388e-14
-2.63404e-15
-3.53337e-15
1.68166e-14
4.02085e-15
-2.27208e-14
1.35459e-14
-1.97854e-14
2.05598e-14
2.47847e-14
-3.33242e-14
2.06573e-15
-5.3152e-15
0
0
1.46792e-14
1.51968e-14
9.50354e-15
7.76124e-15
1.18928e-14
-6.2191e-15
-4.67355e-15
4.33999e-16
-2.7603e-15
-5.01443e-15
2.77703e-14
2.30239e-14
1.37432e-14
-6.81935e-16
-9.11769e-15
-3.56528e-14
1.44432e-14
4.98168e-15
-2.71051e-14
0
-3.6498e-15
-4.47181e-15
3.24673e-15
2.02882e-14
1.94e-14
-1.45899e-14
-1.49115e-14
-2.2277e-14
-2.3502e-15
1.22425e-14
-6.82371e-15
-1.38123e-16
1.19585e-14
-1.90533e-14
8.65214e-16
-1.27451e-14
-6.32262e-15
1.20738e-14
0
0
-2.92879e-15
-1.38755e-14
7.70396e-15
-8.66216e-15
5.56808e-15
4.97003e-15
2.9542e-14
-2.77587e-15
-2.1254e-16
7.85313e-15
1.14558e-14
2.72096e-15
-6.89102e-15
9.69091e-15
-2.15498e-15
2.34471e-15
-8.62696e-16
4.92644e-15
2.71051e-14
-2.71051e-14
1.59173e-14
5.30832e-16
2.12756e-14
-6.25131e-15
-2.13624e-14
2.01172e-14
-1.14355e-15
8.92394e-15
-1.25027e-14
4.26337e-15
-8.46465e-15
-5.23319e-16
9.29745e-17
2.53198e-14
-4.19182e-15
1.21713e-14
-2.62591e-15
1.57378e-14
-2.71051e-14
2.71051e-14
-3.90767e-14
1.64727e-14
3.28038e-15
-1.226e-14
-2.6431e-15
1.73909e-14
7.97402e-15
1.6165e-15
1.77694e-15
-7.3688e-15
1.60387e-15
1.45055e-14
1.09108e-14
1.36716e-14
-1.31699e-14
1.88842e-14
6.68685e-15
-1.33197e-14
2.71051e-14
0
-3.35877e-14
5.20924e-15
-7.2594e-15
-8.24971e-15
-6.07405e-15
-3.01351e-14
2.42018e-14
-1.06404e-14
-1.74383e-15
1.94011e-14
1.09868e-14
-2.12179e-14
2.07655e-14
-1.98075e-14
-5.89521e-15
-1.3591e-14
-2.18457e-14
-3.23332e-15
0
0
-8.07996e-15
1.26419e-14
-2.43959e-14
-3.38362e-16
-7.23216e-15
-1.06826e-14
9.21401e-15
1.60802e-14
-2.8807e-14
-1.15745e-14
-1.11187e-15
3.53849e-14
-1.09903e-14
3.95087e-15
-7.9456e-15
4.18034e-14
-1.28815e-14
7.20472e-15
-2.71051e-14
0
0
2.71051e-14
0
0
0
0
0
0
-2.71051e-14
0
0
0
-2.71051e-14
2.71051e-14
0
-2.71051e-14
0
-2.71051e-14
2.71051e-14
)
;

boundaryField
{
    movingWall
    {
        type            extrapolatedCalculated;
        value           nonuniform List<scalar> 
20
(
0
0
2.71051e-14
0
0
0
0
0
0
-2.71051e-14
0
0
0
-2.71051e-14
2.71051e-14
0
-2.71051e-14
0
-2.71051e-14
2.71051e-14
)
;
    }
    fixedWalls
    {
        type            extrapolatedCalculated;
        value           nonuniform List<scalar> 
60
(
2.71051e-14
0
-2.71051e-14
0
0
-2.71051e-14
2.71051e-14
-2.71051e-14
2.71051e-14
2.71051e-14
-2.71051e-14
0
0
0
0
-2.71051e-14
2.71051e-14
0
0
0
0
0
-2.71051e-14
2.71051e-14
0
2.71051e-14
-2.71051e-14
2.71051e-14
0
-2.71051e-14
0
0
-2.71051e-14
0
2.71051e-14
-2.71051e-14
2.71051e-14
0
-2.71051e-14
2.71051e-14
2.71051e-14
-5.90527e-15
6.02738e-15
-5.84609e-16
1.17759e-14
-4.29288e-16
-1.25793e-15
-7.54768e-15
8.03379e-15
-1.51306e-14
9.02145e-15
9.28975e-16
-1.3595e-14
9.99558e-15
1.06431e-15
-9.77772e-15
3.46781e-15
6.40148e-15
-5.86851e-15
0
)
;
    }
    frontAndBack
    {
        type            empty;
    }
}


// ************************************************************************* //
