/*--------------------------------*- C++ -*----------------------------------*\
| =========                 |                                                 |
| \\      /  F ield         | OpenFOAM: The Open Source CFD Toolbox           |
|  \\    /   O peration     | Version:  2312                                  |
|   \\  /    A nd           | Website:  www.openfoam.com                      |
|    \\/     M anipulation  |                                                 |
\*---------------------------------------------------------------------------*/
FoamFile
{
    version     2.0;
    format      ascii;
    arch        "LSB;label=32;scalar=64";
    class       volScalarField;
    location    "6";
    object      divU;
}
// * * * * * * * * * * * * * * * * * * * * * * * * * * * * * * * * * * * * * //

dimensions      [0 0 -1 0 0 0 0];

internalField   nonuniform List<scalar> 
400
(
1.58836e-11
-1.96588e-12
4.19382e-13
-1.63049e-13
5.4606e-14
-9.02628e-15
-3.85104e-14
1.3322e-14
-2.36118e-14
8.07981e-15
7.85028e-15
-2.0326e-14
1.99134e-14
1.00502e-14
-2.85231e-14
5.02529e-14
1.74962e-14
-1.55967e-14
-4.82121e-15
0
-2.76201e-11
3.84808e-12
-7.68014e-13
2.94307e-13
-5.84406e-14
3.16753e-14
-2.37044e-14
6.20111e-16
3.6441e-14
5.43461e-15
9.30197e-15
-7.94361e-15
1.02911e-14
-3.1974e-15
-1.0694e-14
-3.68886e-14
-7.53734e-15
-1.00239e-14
-2.91999e-14
2.71051e-14
8.21283e-12
-1.82575e-12
3.48722e-13
-1.71267e-13
3.16374e-14
-4.41575e-15
-8.10358e-15
-4.76204e-15
-2.07571e-14
-1.59871e-14
-7.56774e-15
-3.83237e-15
1.6159e-14
-1.39642e-14
3.32432e-15
-6.08779e-15
-6.08108e-15
2.07035e-14
-1.19383e-14
0
1.21702e-11
-7.32244e-13
1.34219e-13
-1.03052e-13
2.47315e-14
-1.85531e-14
-2.77299e-14
1.27913e-14
1.55733e-14
2.94487e-14
3.11801e-14
1.24003e-16
-5.07438e-14
-6.20237e-15
8.5843e-15
-4.89024e-14
-6.65182e-15
-2.00091e-14
4.71132e-15
-2.71051e-14
-1.67509e-11
1.93588e-12
-3.52328e-13
2.17297e-13
-1.00963e-14
1.21963e-14
2.8174e-14
-1.90594e-14
-2.9007e-14
-5.18532e-14
9.25445e-15
1.10931e-15
2.83072e-14
1.53091e-14
1.30836e-14
-1.23777e-15
-1.1465e-14
-7.70646e-15
1.50133e-14
0
9.89334e-12
-1.87475e-12
4.01184e-13
-1.72347e-13
-1.94365e-14
6.94632e-15
-3.0974e-15
-2.2926e-14
4.67673e-14
1.96894e-14
3.00977e-14
-1.8369e-14
-1.37127e-15
-1.73866e-15
-1.20287e-15
-1.96788e-14
-5.75562e-14
5.01406e-14
-8.52439e-15
2.71051e-14
5.50233e-12
-9.58512e-13
1.94355e-13
-7.71681e-14
1.66348e-14
3.89029e-14
-1.75861e-14
-1.39783e-14
-4.2054e-15
5.75022e-16
-5.08133e-14
-2.47844e-15
1.28692e-14
2.01203e-14
2.5031e-14
2.66837e-14
-1.97008e-14
-1.78467e-14
8.59748e-17
-2.71051e-14
-1.46096e-11
2.95491e-12
-6.31491e-13
2.14676e-13
-7.8172e-14
3.62517e-14
-1.09203e-15
4.14919e-14
-4.2365e-14
3.88629e-14
-3.74185e-19
1.37035e-14
-5.41527e-14
1.10663e-14
-3.28762e-14
9.7529e-15
2.84398e-15
5.99e-14
3.13666e-15
0
9.16151e-12
-2.16254e-12
3.85109e-13
-1.46596e-13
7.70726e-14
-1.1796e-14
3.70439e-14
-7.35352e-14
-2.75035e-15
3.89525e-14
-6.75839e-15
-2.22531e-14
-1.56006e-14
1.58287e-14
2.67872e-14
1.98033e-14
-2.6044e-14
-1.40102e-14
-3.39784e-15
0
-1.89735e-13
-2.61327e-14
4.3782e-14
-7.17066e-14
-8.18824e-15
-4.45308e-14
2.70575e-14
1.47695e-14
1.27901e-14
3.8059e-14
1.38401e-15
-2.74089e-15
1.82095e-14
1.16613e-15
1.0723e-14
-2.07178e-14
9.94643e-18
-2.02581e-14
-1.75333e-14
-2.71051e-14
-2.90024e-12
1.40869e-12
-3.08197e-13
1.68219e-13
-1.73974e-14
4.39432e-14
-1.32464e-15
-1.24173e-14
6.26446e-15
-1.06521e-14
-3.12882e-14
-1.54544e-14
-7.40052e-15
-2.61516e-14
2.74189e-14
3.07652e-15
-4.32756e-15
-3.36501e-14
6.16709e-14
0
5.85469e-12
-2.06941e-12
2.91295e-13
-1.56605e-13
8.85414e-14
2.68224e-14
-6.59499e-14
-4.68521e-14
-4.02723e-14
4.7697e-14
-1.21421e-14
4.51144e-14
3.71149e-14
2.02012e-14
2.11068e-14
-2.82423e-15
2.0861e-14
-2.61211e-14
-1.12322e-14
-2.71051e-14
-1.21702e-11
3.57136e-12
-6.71974e-13
2.80152e-13
-1.1693e-13
5.1785e-14
5.46043e-15
3.64995e-14
3.40106e-15
-3.16309e-15
-3.96151e-14
-3.56428e-14
1.70883e-14
-5.09547e-14
-1.45801e-14
-5.57387e-15
-9.29407e-15
1.90495e-14
-1.89634e-14
5.42101e-14
1.24954e-11
-3.31462e-12
6.10989e-13
-2.12923e-13
2.48008e-14
-1.88416e-14
-1.31473e-14
-1.3942e-14
-1.05522e-14
-1.38378e-15
1.09235e-14
1.24067e-14
1.45586e-14
5.30568e-16
1.90649e-14
-3.85644e-14
1.0318e-14
-1.3356e-14
1.40245e-14
-2.71051e-14
-1.95156e-12
1.39718e-12
-2.611e-13
1.04846e-13
-8.17949e-15
4.05192e-14
-2.64593e-14
2.52419e-14
-6.42874e-14
1.81356e-14
5.10357e-15
5.29746e-14
1.61839e-14
-2.08508e-14
-7.593e-14
3.43506e-14
4.03344e-14
1.71696e-14
-2.90859e-14
0
-1.15739e-11
8.81717e-13
-1.93625e-13
7.24541e-14
-3.28423e-14
-5.17717e-15
1.48119e-14
2.61764e-14
-4.64328e-14
3.45251e-14
1.87955e-14
-3.76314e-14
-3.73242e-14
5.13821e-15
3.60907e-14
1.79515e-14
-6.47832e-15
-4.96881e-14
5.04126e-14
0
1.41759e-11
-1.41753e-12
3.17069e-13
-1.05578e-13
-4.22472e-14
7.95272e-15
1.91231e-14
-1.38946e-15
2.1081e-15
-3.58434e-14
-1.46538e-14
-6.3266e-15
1.85792e-14
4.08622e-15
3.54868e-15
3.07761e-14
3.57107e-14
-2.01453e-14
5.97483e-15
-2.71051e-14
-5.42101e-13
1.5144e-13
-5.38439e-14
6.9191e-14
2.19023e-14
-1.59308e-14
4.59727e-15
2.11001e-14
-2.41104e-15
-7.52502e-16
4.61874e-14
1.59101e-14
-3.04873e-14
1.86992e-14
1.00696e-14
-1.75922e-14
-4.10356e-14
4.17024e-14
2.55809e-14
-2.71051e-14
-1.54228e-11
1.57775e-12
-3.32787e-13
1.10184e-13
-3.108e-14
5.29306e-14
1.08829e-14
-6.32332e-14
-2.38501e-14
-8.21897e-15
-1.60316e-14
-2.8956e-14
4.99173e-14
4.37826e-15
3.37853e-14
1.69007e-14
-2.29792e-14
-1.69827e-14
3.76548e-14
0
1.04897e-11
-1.51788e-12
3.52366e-13
-1.0842e-13
0
0
2.71051e-14
0
0
0
2.71051e-14
0
-2.71051e-14
-2.71051e-14
5.42101e-14
-2.71051e-14
0
0
2.71051e-14
-2.71051e-14
)
;

boundaryField
{
    movingWall
    {
        type            extrapolatedCalculated;
        value           nonuniform List<scalar> 
20
(
1.04897e-11
-1.51788e-12
3.52366e-13
-1.0842e-13
0
0
2.71051e-14
0
0
0
2.71051e-14
0
-2.71051e-14
-2.71051e-14
5.42101e-14
-2.71051e-14
0
0
2.71051e-14
-2.71051e-14
)
;
    }
    fixedWalls
    {
        type            extrapolatedCalculated;
        value           nonuniform List<scalar> 
60
(
1.58836e-11
-2.76201e-11
8.21283e-12
1.21702e-11
-1.67509e-11
9.89334e-12
5.50233e-12
-1.46096e-11
9.16151e-12
-1.89735e-13
-2.90024e-12
5.85469e-12
-1.21702e-11
1.24954e-11
-1.95156e-12
-1.15739e-11
1.41759e-11
-5.42101e-13
-1.54228e-11
1.04897e-11
0
2.71051e-14
0
-2.71051e-14
0
2.71051e-14
-2.71051e-14
0
0
-2.71051e-14
0
-2.71051e-14
5.42101e-14
-2.71051e-14
0
0
-2.71051e-14
-2.71051e-14
0
-2.71051e-14
1.58836e-11
-1.96588e-12
4.19382e-13
-1.63049e-13
5.4606e-14
-9.02628e-15
-3.85104e-14
1.3322e-14
-2.36118e-14
8.07981e-15
7.85028e-15
-2.0326e-14
1.99134e-14
1.00502e-14
-2.85231e-14
5.02529e-14
1.74962e-14
-1.55967e-14
-4.82121e-15
0
)
;
    }
    frontAndBack
    {
        type            empty;
    }
}


// ************************************************************************* //
