/*--------------------------------*- C++ -*----------------------------------*\
| =========                 |                                                 |
| \\      /  F ield         | OpenFOAM: The Open Source CFD Toolbox           |
|  \\    /   O peration     | Version:  2312                                  |
|   \\  /    A nd           | Website:  www.openfoam.com                      |
|    \\/     M anipulation  |                                                 |
\*---------------------------------------------------------------------------*/
FoamFile
{
    version     2.0;
    format      ascii;
    arch        "LSB;label=32;scalar=64";
    class       volScalarField;
    location    "6";
    object      dpdt2;
}
// * * * * * * * * * * * * * * * * * * * * * * * * * * * * * * * * * * * * * //

dimensions      [0 4 -6 0 0 0 0];

internalField   nonuniform List<scalar> 
400
(
8.63595e-27
2.85138e-25
4.46767e-25
6.1615e-25
9.68568e-25
1.1084e-24
1.07873e-24
1.11695e-24
1.18019e-24
1.21835e-24
1.32791e-24
1.46347e-24
1.41041e-24
1.43204e-24
1.52622e-24
1.80573e-24
1.91037e-24
1.94305e-24
2.1575e-24
2.16932e-24
1.52571e-25
3.11709e-25
5.49532e-25
6.99041e-25
8.64692e-25
1.02313e-24
1.14648e-24
1.21401e-24
1.20536e-24
1.24195e-24
1.29411e-24
1.4196e-24
1.49424e-24
1.49004e-24
1.5252e-24
1.72913e-24
1.9681e-24
2.02142e-24
2.05245e-24
2.18117e-24
3.47386e-25
4.28343e-25
5.52964e-25
7.22955e-25
8.63753e-25
1.03994e-24
1.12342e-24
1.18058e-24
1.23575e-24
1.25009e-24
1.32372e-24
1.43211e-24
1.50342e-24
1.51164e-24
1.49839e-24
1.77872e-24
2.01495e-24
2.15262e-24
2.08995e-24
2.00543e-24
5.06763e-25
4.96819e-25
5.69e-25
8.16091e-25
9.4192e-25
9.95741e-25
1.08145e-24
1.18142e-24
1.23067e-24
1.23113e-24
1.28978e-24
1.45318e-24
1.56002e-24
1.55519e-24
1.61086e-24
1.72434e-24
1.85209e-24
2.02819e-24
2.03831e-24
1.90537e-24
5.73673e-25
5.9941e-25
6.11404e-25
7.16605e-25
8.96865e-25
1.01013e-24
1.0777e-24
1.20752e-24
1.15646e-24
1.20085e-24
1.3177e-24
1.51483e-24
1.58763e-24
1.54876e-24
1.52247e-24
1.67448e-24
1.83472e-24
1.95222e-24
2.01453e-24
1.97749e-24
6.2461e-25
6.39104e-25
6.38786e-25
7.54322e-25
9.90032e-25
9.605e-25
1.12125e-24
1.22488e-24
1.19138e-24
1.13739e-24
1.21161e-24
1.37061e-24
1.45413e-24
1.49729e-24
1.56035e-24
1.70921e-24
1.73043e-24
1.92941e-24
1.92797e-24
2.01355e-24
6.22482e-25
6.41322e-25
7.44782e-25
8.20388e-25
9.19164e-25
1.01873e-24
1.09377e-24
1.21944e-24
1.33902e-24
1.0891e-24
1.07483e-24
1.32145e-24
1.40735e-24
1.48242e-24
1.4607e-24
1.63078e-24
1.82641e-24
1.85464e-24
1.92162e-24
1.98174e-24
6.0641e-25
7.15276e-25
7.71773e-25
8.78259e-25
9.74913e-25
1.06397e-24
1.14548e-24
1.19155e-24
1.24962e-24
1.14541e-24
1.04737e-24
1.10139e-24
1.32087e-24
1.41048e-24
1.43198e-24
1.67109e-24
1.79824e-24
1.95345e-24
1.94953e-24
2.01076e-24
6.85135e-25
7.03738e-25
8.23437e-25
9.55954e-25
1.0903e-24
1.05583e-24
1.1842e-24
1.10581e-24
1.10323e-24
1.10918e-24
1.08589e-24
1.11883e-24
1.17188e-24
1.27671e-24
1.39333e-24
1.57813e-24
1.70277e-24
1.94994e-24
1.94907e-24
1.94754e-24
8.02375e-25
8.27856e-25
8.07072e-25
9.11353e-25
9.95834e-25
1.09189e-24
1.14338e-24
1.11726e-24
1.13191e-24
1.09062e-24
1.04255e-24
1.10574e-24
1.12466e-24
1.17141e-24
1.23207e-24
1.4602e-24
1.6404e-24
1.77481e-24
1.79388e-24
1.88382e-24
8.07049e-25
8.61722e-25
9.29918e-25
9.15769e-25
1.0846e-24
1.15111e-24
1.11128e-24
1.11409e-24
1.1226e-24
1.08883e-24
9.98972e-25
1.05405e-24
1.09055e-24
1.10137e-24
1.09317e-24
1.36033e-24
1.50161e-24
1.55991e-24
1.7333e-24
1.76403e-24
8.2061e-25
8.67868e-25
1.01803e-24
1.07519e-24
1.10633e-24
1.25618e-24
1.1487e-24
1.08387e-24
1.01087e-24
1.09504e-24
9.83843e-25
1.12495e-24
1.1135e-24
1.06142e-24
1.06418e-24
1.22722e-24
1.38514e-24
1.47701e-24
1.53028e-24
1.67815e-24
8.49106e-25
9.32355e-25
9.46169e-25
1.07895e-24
1.15292e-24
1.20772e-24
1.18143e-24
1.11721e-24
9.8939e-25
1.00361e-24
9.90293e-25
1.1185e-24
1.15118e-24
9.87383e-25
9.8695e-25
1.10897e-24
1.29199e-24
1.39169e-24
1.35434e-24
1.60429e-24
9.19145e-25
1.0136e-24
1.04874e-24
1.09813e-24
1.0814e-24
1.12639e-24
1.18819e-24
1.09433e-24
9.78342e-25
9.8021e-25
9.79188e-25
1.01457e-24
9.87155e-25
9.34688e-25
9.8142e-25
1.02082e-24
1.24422e-24
1.31479e-24
1.33952e-24
1.38562e-24
1.08592e-24
1.13365e-24
1.10382e-24
1.08575e-24
1.1321e-24
1.11422e-24
1.10834e-24
1.05839e-24
9.96745e-25
1.01308e-24
8.75023e-25
9.16032e-25
9.61912e-25
9.33972e-25
9.0483e-25
1.12114e-24
1.21083e-24
1.24097e-24
1.3282e-24
1.35003e-24
1.16856e-24
1.18154e-24
1.20015e-24
1.07502e-24
1.04551e-24
1.22071e-24
1.17617e-24
1.15276e-24
9.59549e-25
9.97003e-25
9.24208e-25
8.92279e-25
9.77705e-25
9.58867e-25
9.61444e-25
1.04936e-24
1.15764e-24
1.22241e-24
1.33306e-24
1.33664e-24
1.24416e-24
1.23086e-24
1.22501e-24
1.04036e-24
1.06413e-24
1.21059e-24
1.13585e-24
1.14142e-24
1.02784e-24
1.0056e-24
1.0187e-24
9.45172e-25
9.78954e-25
9.47522e-25
9.54867e-25
1.09335e-24
1.2573e-24
1.25312e-24
1.31618e-24
1.32687e-24
1.26996e-24
1.29104e-24
1.19128e-24
1.06298e-24
1.03825e-24
1.22477e-24
1.23815e-24
1.12224e-24
1.08232e-24
1.06936e-24
1.07479e-24
1.0703e-24
9.42475e-25
9.03113e-25
9.76721e-25
1.02601e-24
1.26415e-24
1.44159e-24
1.47021e-24
1.32785e-24
1.21888e-24
1.15778e-24
1.19104e-24
1.18094e-24
1.19387e-24
1.17e-24
1.08475e-24
1.12074e-24
1.06441e-24
1.16186e-24
1.2166e-24
1.13878e-24
1.06112e-24
8.62953e-25
9.21435e-25
1.01474e-24
1.20364e-24
1.47964e-24
1.5535e-24
1.44372e-24
1.0969e-24
1.16943e-24
1.17322e-24
1.27966e-24
1.24278e-24
1.13641e-24
1.00321e-24
1.0126e-24
1.13975e-24
1.23275e-24
1.27892e-24
1.1457e-24
1.02636e-24
8.81348e-25
8.62803e-25
9.93836e-25
1.22996e-24
1.52051e-24
1.59975e-24
1.45423e-24
)
;

boundaryField
{
    movingWall
    {
        type            calculated;
        value           nonuniform List<scalar> 
20
(
1.0969e-24
1.16943e-24
1.17322e-24
1.27966e-24
1.24278e-24
1.13641e-24
1.00321e-24
1.0126e-24
1.13975e-24
1.23275e-24
1.27892e-24
1.1457e-24
1.02636e-24
8.81348e-25
8.62803e-25
9.93836e-25
1.22996e-24
1.52051e-24
1.59975e-24
1.45423e-24
)
;
    }
    fixedWalls
    {
        type            calculated;
        value           nonuniform List<scalar> 
60
(
8.63595e-27
1.52571e-25
3.47386e-25
5.06763e-25
5.73673e-25
6.2461e-25
6.22482e-25
6.0641e-25
6.85135e-25
8.02375e-25
8.07049e-25
8.2061e-25
8.49106e-25
9.19145e-25
1.08592e-24
1.16856e-24
1.24416e-24
1.26996e-24
1.21888e-24
1.0969e-24
2.16932e-24
2.18117e-24
2.00543e-24
1.90537e-24
1.97749e-24
2.01355e-24
1.98174e-24
2.01076e-24
1.94754e-24
1.88382e-24
1.76403e-24
1.67815e-24
1.60429e-24
1.38562e-24
1.35003e-24
1.33664e-24
1.32687e-24
1.32785e-24
1.44372e-24
1.45423e-24
8.63595e-27
2.85138e-25
4.46767e-25
6.1615e-25
9.68568e-25
1.1084e-24
1.07873e-24
1.11695e-24
1.18019e-24
1.21835e-24
1.32791e-24
1.46347e-24
1.41041e-24
1.43204e-24
1.52622e-24
1.80573e-24
1.91037e-24
1.94305e-24
2.1575e-24
2.16932e-24
)
;
    }
    frontAndBack
    {
        type            empty;
    }
}


// ************************************************************************* //
