/*--------------------------------*- C++ -*----------------------------------*\
| =========                 |                                                 |
| \\      /  F ield         | OpenFOAM: The Open Source CFD Toolbox           |
|  \\    /   O peration     | Version:  2312                                  |
|   \\  /    A nd           | Website:  www.openfoam.com                      |
|    \\/     M anipulation  |                                                 |
\*---------------------------------------------------------------------------*/
FoamFile
{
    version     2.0;
    format      ascii;
    arch        "LSB;label=32;scalar=64";
    class       volScalarField;
    location    "6";
    object      dUdt2;
}
// * * * * * * * * * * * * * * * * * * * * * * * * * * * * * * * * * * * * * //

dimensions      [0 2 -4 0 0 0 0];

internalField   nonuniform List<scalar> 
400
(
4.04591e-26
3.81156e-27
7.95574e-27
5.38649e-28
2.10832e-27
4.6005e-27
2.0063e-27
7.44157e-28
1.06668e-29
5.04043e-28
1.86541e-29
7.25433e-29
3.50515e-29
5.33681e-28
8.16778e-29
2.11417e-27
6.34061e-28
1.4803e-28
2.05071e-27
3.99662e-30
1.97517e-27
9.21727e-27
2.00718e-27
4.44015e-27
5.32451e-28
7.53042e-30
2.01612e-27
1.90208e-29
5.18137e-28
6.57696e-28
9.76526e-31
6.77968e-29
8.00828e-29
2.02744e-27
5.62242e-28
2.01525e-27
2.28221e-27
5.08233e-28
2.04035e-28
4.69879e-27
3.71159e-28
1.23752e-27
4.43947e-27
2.14364e-27
6.31437e-28
2.32759e-27
1.97701e-27
3.11096e-28
1.40891e-28
5.2199e-29
4.07317e-33
3.93115e-29
1.21179e-28
7.1485e-29
2.10102e-27
3.80431e-30
7.45862e-29
1.07832e-29
2.11769e-27
2.39265e-27
2.502e-26
2.10322e-28
1.97513e-27
4.9308e-28
1.16715e-29
1.97409e-27
2.44078e-29
4.93968e-28
8.55325e-28
2.03634e-28
5.44869e-28
5.06418e-28
1.96336e-28
3.70389e-30
6.55659e-30
2.04341e-27
8.57482e-28
5.86786e-28
4.63505e-27
1.97277e-27
1.99625e-26
9.14973e-27
6.34339e-28
4.41788e-30
5.4268e-28
5.01104e-28
1.10147e-27
1.22003e-27
5.30132e-28
1.26792e-26
2.63728e-27
4.34318e-28
2.27341e-27
7.9597e-27
5.36002e-28
5.65019e-28
6.10787e-28
6.03966e-28
1.75273e-28
2.14073e-29
9.26744e-27
4.76284e-27
3.58088e-28
6.21189e-28
4.96139e-28
2.01276e-27
1.16293e-28
1.9737e-27
1.71344e-28
5.11947e-27
2.25899e-27
1.10853e-27
5.08888e-28
5.90124e-28
4.94754e-28
4.70355e-28
2.14694e-27
1.40753e-28
5.64303e-28
5.20421e-28
5.29658e-26
1.62396e-27
2.54955e-27
5.27612e-28
5.01633e-28
7.05286e-28
5.5393e-27
1.31977e-27
1.05518e-29
5.02495e-28
8.61623e-28
2.70705e-27
1.99831e-27
1.97489e-27
2.1182e-27
4.51887e-27
1.99149e-27
5.50638e-28
6.48229e-31
2.46383e-33
1.03447e-26
1.07808e-27
2.04328e-27
1.16609e-27
2.48118e-28
3.41272e-29
4.64133e-29
7.96977e-28
7.13364e-28
1.62277e-29
2.02012e-27
3.71842e-27
4.29458e-27
2.28549e-27
1.98862e-27
2.1054e-27
1.97264e-27
1.97225e-27
1.16913e-29
1.29277e-29
2.10797e-26
2.23041e-27
1.26644e-26
2.04073e-27
2.04738e-27
7.94543e-27
2.17437e-27
2.62049e-27
2.77113e-27
6.35001e-29
9.77418e-29
5.03365e-28
1.4125e-27
8.85582e-27
5.32062e-28
4.76411e-30
1.40539e-28
5.49286e-28
4.02293e-28
7.48226e-28
3.03374e-26
8.83325e-27
7.92892e-27
1.18274e-27
5.74794e-28
7.94854e-28
1.10201e-27
6.03677e-28
5.48882e-28
4.96396e-28
2.35961e-29
5.23373e-28
6.3367e-28
2.83924e-27
3.85098e-28
5.89166e-28
1.09164e-27
1.20995e-27
3.21599e-28
2.23959e-28
8.22753e-27
5.32957e-28
2.05909e-27
1.00005e-28
1.97628e-27
1.97409e-27
5.01388e-28
2.30871e-31
3.7395e-29
2.63364e-29
3.2927e-28
9.32455e-28
8.21716e-28
9.53966e-28
2.10986e-27
2.12353e-27
7.97173e-28
2.54074e-27
2.64573e-27
2.52326e-28
2.70295e-27
2.29754e-27
8.23488e-27
2.14364e-27
2.00534e-27
3.1389e-30
8.06676e-27
1.97234e-27
2.38616e-27
3.26684e-27
8.38011e-27
2.66813e-29
7.98864e-27
5.05308e-28
2.78678e-28
9.63054e-28
4.4906e-27
9.98032e-29
1.725e-27
3.21871e-28
3.11865e-27
1.15042e-27
2.31763e-27
9.6028e-28
3.37969e-27
1.60344e-27
5.53411e-28
4.89137e-28
4.70093e-27
2.0133e-27
6.25495e-28
5.01034e-28
1.32889e-29
2.06298e-27
2.04607e-27
2.47123e-27
1.99873e-27
8.09429e-29
4.36141e-28
2.66429e-27
4.45145e-27
6.02238e-28
5.12228e-28
4.97995e-28
4.8689e-28
1.52932e-27
2.66426e-27
1.32803e-27
4.95825e-28
8.57426e-27
5.53226e-28
5.85544e-28
2.49511e-27
1.1687e-28
4.47978e-27
6.47651e-29
4.93298e-28
2.20589e-27
1.94653e-28
1.06106e-27
2.74689e-26
2.00826e-27
2.71404e-29
1.4754e-28
1.78545e-28
2.10653e-27
5.3498e-28
1.84599e-28
2.00712e-27
5.22742e-29
2.00007e-29
1.96782e-29
1.03903e-29
9.64936e-29
2.40909e-28
2.03468e-27
6.28713e-28
4.94351e-28
1.44495e-29
3.98542e-29
1.10163e-26
2.86934e-27
6.60092e-30
2.55209e-27
4.29299e-28
2.04915e-27
2.33642e-28
1.98405e-28
2.27634e-27
3.18303e-28
8.0304e-27
2.33825e-28
2.08121e-27
3.82959e-30
1.98036e-27
1.09857e-28
1.97391e-27
2.01235e-27
2.00638e-27
3.41812e-31
3.49067e-27
8.67736e-28
1.97263e-27
8.00639e-27
2.29059e-27
1.97256e-27
2.0234e-27
2.15738e-27
7.53577e-28
1.18802e-27
2.09227e-27
9.66108e-29
1.52576e-29
1.98219e-27
1.98537e-27
6.1949e-30
1.26316e-26
2.93429e-27
7.02545e-28
2.56247e-30
1.32049e-26
6.16778e-28
1.95287e-30
1.98149e-27
4.33928e-29
2.08807e-27
3.33002e-30
2.02004e-27
5.55805e-28
5.1944e-28
1.49623e-29
2.12698e-27
2.91118e-29
2.37093e-27
9.02966e-28
2.21092e-27
4.46419e-27
4.56947e-28
7.20593e-28
7.57597e-28
3.83943e-27
5.2299e-28
6.4287e-28
7.92488e-28
6.11756e-28
6.85438e-29
9.38261e-28
1.98786e-27
2.12995e-27
2.0414e-27
2.5629e-28
1.97285e-27
1.97921e-27
4.95036e-28
1.61997e-31
4.93228e-28
7.04225e-29
2.11707e-27
3.32822e-29
2.74932e-28
1.7173e-27
4.93093e-28
2.06158e-27
8.26494e-28
4.02357e-28
1.93737e-28
4.93713e-28
4.68076e-29
9.25386e-31
4.97117e-28
4.94778e-28
2.16797e-27
6.00706e-28
1.1444e-28
6.48016e-28
4.45207e-27
2.03619e-27
4.97762e-28
2.26377e-30
7.40255e-30
)
;

boundaryField
{
    movingWall
    {
        type            calculated;
        value           uniform 0;
    }
    fixedWalls
    {
        type            calculated;
        value           uniform 0;
    }
    frontAndBack
    {
        type            empty;
    }
}


// ************************************************************************* //
