/*--------------------------------*- C++ -*----------------------------------*\
| =========                 |                                                 |
| \\      /  F ield         | OpenFOAM: The Open Source CFD Toolbox           |
|  \\    /   O peration     | Version:  2312                                  |
|   \\  /    A nd           | Website:  www.openfoam.com                      |
|    \\/     M anipulation  |                                                 |
\*---------------------------------------------------------------------------*/
FoamFile
{
    version     2.0;
    format      ascii;
    arch        "LSB;label=32;scalar=64";
    class       volScalarField;
    location    "6";
    object      enstrophyField;
}
// * * * * * * * * * * * * * * * * * * * * * * * * * * * * * * * * * * * * * //

dimensions      [0 0 -2 0 0 0 0];

internalField   nonuniform List<scalar> 
400
(
5.73254e-23
9.42775e-23
4.16267e-24
3.29966e-25
5.91286e-28
1.39334e-26
4.81421e-27
1.57002e-27
1.67918e-27
1.71585e-27
3.7818e-27
1.334e-27
8.52462e-28
3.03909e-28
1.4379e-28
4.72359e-29
8.60023e-29
2.89177e-29
1.16835e-29
3.08024e-30
2.94057e-28
1.42959e-24
1.0693e-25
2.27205e-27
4.28079e-27
8.19549e-27
2.19537e-27
9.60514e-28
1.38912e-27
1.98058e-27
3.66952e-27
2.02985e-27
2.56807e-27
3.58177e-27
4.51675e-28
3.27069e-28
1.59955e-27
1.32061e-27
7.66512e-29
8.4635e-29
2.21312e-23
8.03108e-23
4.45878e-24
2.23488e-25
6.18444e-27
4.65076e-27
7.14282e-27
5.82035e-29
2.16102e-28
3.83836e-29
4.39341e-29
1.72767e-28
2.35329e-27
1.32163e-27
2.03184e-27
3.17504e-27
3.52011e-27
2.66854e-27
1.75274e-31
5.93824e-29
2.10565e-23
4.24733e-23
2.30491e-24
1.23881e-25
5.82145e-28
3.35997e-27
2.15553e-27
1.57217e-27
2.57408e-27
5.20325e-28
4.46587e-28
1.32006e-29
3.09971e-27
2.43897e-27
2.04173e-27
6.08654e-29
1.34852e-27
2.3343e-27
3.25437e-29
3.35075e-28
5.70312e-24
8.87527e-25
3.67269e-26
1.04147e-26
7.34608e-30
6.14154e-27
4.7048e-27
7.99893e-27
1.87903e-27
2.15506e-28
1.21079e-27
2.28085e-28
3.96512e-29
2.15283e-28
1.7424e-29
1.25036e-27
3.54212e-28
1.3826e-27
6.10268e-30
7.62316e-28
8.20319e-24
2.1925e-23
1.25307e-24
3.89827e-26
2.16103e-27
1.03302e-27
2.7416e-27
1.84334e-29
1.0258e-28
6.73794e-28
8.68197e-27
2.65751e-30
2.6692e-28
1.02793e-27
1.35489e-28
1.12578e-27
5.47306e-28
4.9814e-31
4.73354e-30
1.04072e-28
2.79112e-23
3.4821e-23
1.91559e-24
8.06764e-26
9.33193e-27
1.08706e-27
6.89645e-28
2.08835e-27
3.4033e-27
5.13643e-27
4.39114e-27
3.14081e-27
8.32704e-27
4.08176e-27
2.73938e-27
1.65665e-28
1.52124e-29
1.90744e-29
4.25969e-31
3.10964e-28
2.63324e-24
2.69848e-24
5.02618e-26
3.15187e-26
1.84652e-27
7.80581e-28
7.39882e-28
1.29556e-27
4.4823e-27
8.72467e-28
1.19385e-28
2.43493e-27
1.3646e-27
4.88235e-30
9.60486e-29
1.68928e-28
4.65716e-27
1.40812e-27
2.32043e-29
2.72134e-28
1.20519e-23
1.35146e-23
7.90853e-25
2.44054e-26
8.55098e-27
9.56889e-28
1.82001e-27
2.11711e-27
1.14792e-26
3.2581e-27
4.14254e-27
4.30483e-27
9.81833e-27
4.0742e-27
4.65501e-27
4.76851e-29
1.07479e-27
1.39263e-27
9.04543e-32
3.10464e-28
2.28883e-23
2.20259e-23
9.101e-25
1.25933e-25
1.78124e-27
5.48128e-27
3.42144e-27
3.45642e-27
3.90352e-27
1.72933e-27
2.97517e-28
2.99493e-28
7.46052e-28
1.62901e-27
2.6907e-27
6.21018e-29
8.67783e-28
1.73657e-29
2.55312e-29
6.33895e-28
1.27043e-23
1.6646e-23
5.71873e-25
1.2706e-25
5.33082e-28
3.67549e-27
3.85547e-27
1.12787e-26
3.57366e-27
5.16274e-27
7.14554e-28
8.52832e-28
1.19038e-28
1.06606e-29
9.6978e-29
5.23339e-28
2.19787e-27
6.78603e-29
2.38384e-30
3.85564e-30
8.10191e-24
9.14864e-24
5.499e-25
5.50016e-27
3.1162e-26
2.02781e-26
1.18554e-26
2.75566e-27
1.39121e-27
4.72684e-28
2.16576e-27
4.69774e-29
3.3861e-27
2.21391e-27
1.28798e-28
9.82193e-28
1.60624e-27
1.27731e-27
4.78672e-29
8.37803e-28
5.16312e-25
1.4977e-25
4.543e-26
2.72369e-26
1.08834e-26
1.86721e-26
1.07081e-26
1.69438e-26
1.09424e-26
5.38237e-27
8.52511e-28
7.76122e-29
3.4055e-27
3.34635e-28
8.92105e-28
1.52464e-28
3.4159e-27
1.54187e-27
3.56646e-29
1.07299e-28
1.21292e-23
1.76145e-23
9.66857e-25
5.36787e-26
9.11815e-27
2.03736e-27
4.98434e-28
1.88107e-28
9.1635e-27
1.00894e-26
3.88269e-29
4.96567e-29
2.50177e-27
5.53965e-30
1.30403e-27
1.71504e-27
1.68382e-27
1.95676e-27
2.0103e-27
4.22966e-30
2.833e-23
4.70067e-23
2.63757e-24
9.07175e-26
1.38599e-26
5.74599e-27
2.02107e-27
2.08102e-27
7.9247e-28
4.63336e-27
1.75164e-27
2.29915e-27
1.73222e-27
1.85669e-28
7.63592e-28
9.63655e-30
3.17026e-28
2.1955e-27
1.65905e-27
4.30216e-28
1.16222e-23
2.0252e-23
1.12802e-24
5.33033e-26
2.32489e-27
5.04493e-29
5.61378e-27
5.23694e-27
5.1134e-27
3.28723e-27
1.62254e-27
1.33592e-27
4.48367e-28
6.32839e-28
6.03117e-29
2.20743e-27
3.1995e-29
1.27464e-32
4.16284e-30
2.80731e-28
1.24176e-25
1.85557e-24
4.8092e-26
5.54681e-27
6.67843e-28
1.37793e-28
1.59936e-30
2.26619e-27
3.22075e-27
4.76622e-27
2.8059e-27
3.2566e-27
4.56931e-27
4.77134e-27
1.65422e-27
3.83599e-28
1.79319e-27
4.03423e-30
3.58486e-29
1.04773e-30
3.78197e-24
2.70826e-23
1.31558e-24
9.57195e-26
1.05883e-28
3.58359e-27
1.2759e-28
1.26544e-27
1.04905e-27
3.55436e-28
4.83496e-28
1.52193e-29
4.35607e-28
1.39757e-27
3.07496e-27
2.30154e-28
3.0548e-28
5.29923e-27
3.88908e-29
7.65198e-29
1.65506e-24
2.16566e-24
2.65395e-25
1.4662e-30
8.03647e-27
4.53877e-27
6.55155e-27
4.82395e-30
9.04189e-29
1.76293e-27
5.63006e-28
3.91488e-28
1.35222e-29
7.68942e-28
2.39675e-27
4.39573e-28
1.09223e-27
4.09897e-27
1.22805e-28
1.72823e-28
1.25725e-23
2.86504e-23
1.0817e-24
1.21601e-25
8.99735e-28
6.06474e-27
5.69513e-27
1.23446e-27
8.55192e-28
8.037e-28
7.96968e-28
7.95748e-29
3.95756e-28
1.40834e-27
3.02641e-28
1.46888e-27
8.26228e-29
6.55951e-29
3.98809e-28
7.82473e-28
)
;

boundaryField
{
    movingWall
    {
        type            calculated;
        value           nonuniform List<scalar> 
20
(
4.01861e-23
4.07707e-23
7.94945e-25
2.30041e-25
2.99788e-26
4.35929e-26
3.50485e-26
2.36581e-26
3.21565e-26
4.40287e-26
2.15818e-26
3.17429e-26
9.01227e-27
2.47641e-27
3.02641e-28
8.87348e-27
2.78016e-27
2.9926e-27
1.03722e-27
1.61672e-27
)
;
    }
    fixedWalls
    {
        type            calculated;
        value           nonuniform List<scalar> 
60
(
1.66455e-21
2.94511e-23
1.47268e-21
7.87918e-22
1.71741e-23
4.13221e-22
6.46006e-22
4.34049e-23
2.49727e-22
3.93191e-22
2.93031e-22
1.75614e-22
5.11073e-24
3.14914e-22
8.73488e-22
3.70936e-22
2.78179e-23
4.82257e-22
5.0496e-23
4.93081e-22
3.44395e-30
3.23929e-28
6.01891e-28
7.06384e-28
1.31371e-27
5.42999e-28
3.8592e-28
2.35233e-28
1.2011e-28
9.97176e-28
1.3654e-28
1.65467e-27
7.43531e-28
6.89302e-28
7.80711e-28
3.09668e-28
2.04269e-30
8.66597e-30
3.59551e-28
9.88616e-28
1.62567e-22
1.28413e-22
4.06341e-24
4.28725e-25
3.13916e-27
5.85746e-26
2.24188e-26
1.61032e-26
9.38011e-27
4.34205e-27
9.6439e-27
3.27034e-30
2.88029e-27
8.8023e-28
2.58191e-27
4.72359e-29
4.89653e-28
2.89177e-29
1.16835e-29
3.08024e-30
)
;
    }
    frontAndBack
    {
        type            empty;
    }
}


// ************************************************************************* //
