/*--------------------------------*- C++ -*----------------------------------*\
| =========                 |                                                 |
| \\      /  F ield         | OpenFOAM: The Open Source CFD Toolbox           |
|  \\    /   O peration     | Version:  2312                                  |
|   \\  /    A nd           | Website:  www.openfoam.com                      |
|    \\/     M anipulation  |                                                 |
\*---------------------------------------------------------------------------*/
FoamFile
{
    version     2.0;
    format      ascii;
    arch        "LSB;label=32;scalar=64";
    class       volScalarField;
    location    "6";
    object      flowTypeField;
}
// * * * * * * * * * * * * * * * * * * * * * * * * * * * * * * * * * * * * * //

dimensions      [0 0 0 0 0 0 0];

internalField   nonuniform List<scalar> 
400
(
0.433568
0.0488249
0.0680862
-0.107479
0.760356
-0.227038
0.185199
-0.00324257
0.0456889
-0.067024
-0.0636762
0.143274
0.272779
0.479827
0.663155
0.764672
0.517226
0.676272
0.241268
0.483138
0.998808
0.709769
0.680119
0.749982
0.161439
-0.12892
-0.043293
0.276212
0.126122
-0.157306
-0.0528956
-0.0180041
-0.233192
0.0253977
0.496837
0.535752
-0.0420163
0.112857
0.480902
0.712581
0.500688
0.102367
0.0338909
0.0871481
0.216386
-0.368684
-0.0949614
0.0950382
0.348735
0.545996
0.446421
0.0224945
-0.252356
0.0678989
-0.0160905
-0.457664
-0.53953
0.106962
0.836987
0.700752
0.548261
0.123629
0.0634939
0.045909
0.647472
-0.418934
0.209642
0.0823952
-0.292895
0.0252757
0.25942
0.823308
0.0874728
-0.190214
0.0187807
0.595899
-0.887988
-0.0752749
0.48942
0.294892
0.767174
0.636521
0.699166
0.308859
0.866028
0.0428909
-0.120163
-0.124188
0.00756468
0.709753
0.0947765
0.482808
0.803762
0.417377
0.173554
0.0826206
0.0319709
0.139928
0.577605
-0.4271
0.594737
0.118316
0.0142654
0.306915
0.287138
0.271922
-0.355059
0.737787
0.786014
0.0926071
-0.167675
0.807889
0.00594591
-0.449955
0.540006
-0.0740926
0.411523
0.956969
0.272337
0.0751922
0.159678
0.022309
-0.119166
0.00720303
-0.321739
0.129813
0.201808
-0.0403508
-0.50966
-0.236534
0.295467
0.0868899
-0.138372
0.118646
0.249384
0.48452
0.743565
0.728729
0.775915
0.329131
0.797029
0.318549
0.548925
-0.0729591
0.336215
0.328949
0.362956
0.156982
0.0509681
0.315133
0.0220784
-0.425796
0.200513
0.920783
0.522289
0.443384
-0.182998
0.279032
0.076809
0.140445
0.453657
0.054928
-0.105876
0.17171
-0.0436178
0.235489
0.212677
0.151531
-0.110203
0.188349
0.210628
-0.132196
-0.231028
-0.107047
0.13391
0.637879
0.220442
0.0812054
0.795782
0.0965643
-0.265425
-0.0500768
-0.0391084
-0.49187
0.446827
-0.197604
0.0403924
-0.0184896
-0.0651872
0.0255321
0.131031
0.124186
-0.349795
-0.0248867
-0.309103
0.5836
-0.520936
0.719632
0.472771
-0.235167
0.0223026
-0.000361839
0.143649
-0.353164
0.694952
0.00445733
0.0212664
-0.0625438
0.0404485
0.0893105
0.357901
0.251221
0.420392
0.883915
0.528198
-0.178168
-0.215238
0.734249
0.928051
0.875181
0.338256
0.0692091
-0.0931606
0.547401
-0.179449
-0.0150514
-0.044827
0.151105
0.413368
0.691368
0.271243
0.778165
-0.000885057
-0.140747
0.489428
0.184084
0.0634214
0.161129
0.600399
-0.00395892
0.876584
0.749729
0.444172
0.231027
0.145806
0.0206122
0.0300813
0.0324107
0.0215911
0.0432007
0.445176
0.738872
-0.490318
0.330297
0.225748
0.0116337
-0.0156119
0.089284
0.226816
0.676796
0.547999
0.0813238
0.00729804
0.0361271
-0.424688
-0.0247901
0.23217
0.44821
-0.189945
-0.20519
0.572341
0.499302
-0.157773
0.179308
0.186839
0.0394444
0.049833
-0.145663
-0.159441
0.901923
0.114853
0.0500367
-0.0569242
0.176083
-0.475918
0.221014
0.256733
0.211928
0.320352
0.0778851
0.134811
0.133235
0.031207
0.379056
0.453708
0.877923
0.308327
-0.0727364
0.0638745
0.262205
0.606248
0.141146
0.0696265
0.114964
0.0574738
0.593303
-0.27378
-0.171568
0.00171323
0.163035
-0.139354
-0.118349
0.192192
0.435144
0.758163
-0.0390759
0.651358
0.978577
0.911363
0.126064
0.957223
0.526221
0.653627
0.473645
0.411018
0.714619
0.942223
-0.238716
-0.172766
0.186196
0.142911
0.00874574
-0.105234
-0.199474
-0.054707
0.600642
0.13458
0.834404
0.296687
0.899799
0.603278
0.120289
0.0913601
0.032978
0.792451
-0.340443
0.710799
0.274493
-0.610027
0.053775
0.187068
0.730937
0.216043
-0.428838
-0.0701369
0.625564
0.524511
-0.0095796
0.626207
0.629163
0.860626
0.514909
0.338751
0.987208
-0.131169
-0.0306045
0.0196108
0.943462
0.603441
-0.0830385
-0.17087
0.126828
0.907951
0.0769633
-0.144457
0.379118
0.266136
-0.110621
0.689456
0.351924
0.548832
0.067114
0.163292
-0.165534
0.62127
-0.351096
0.0260837
0.0936464
0.235148
0.263654
0.283963
0.68227
0.526814
0.218456
0.527297
0.0439852
0.51594
0.591438
0.104023
0.0236301
)
;

boundaryField
{
    movingWall
    {
        type            calculated;
        value           nonuniform List<scalar> 
20
(
0.677608
0.135234
0.434935
-0.185273
0.231377
-0.0885807
0.0183103
0.0361908
0.0517438
0.0458102
0.0733528
0.0854064
0.194206
0.256081
0.534454
0.0323706
0.167164
0.180395
0.159353
-0.0109405
)
;
    }
    fixedWalls
    {
        type            calculated;
        value           nonuniform List<scalar> 
60
(
0.0573422
0.710414
0.0909424
0.108789
0.64971
0.10615
0.002146
0.403442
0.0504392
-0.0532759
0.00260434
0.0295901
0.692553
0.0966019
0.0285789
0.137103
0.579271
0.119206
0.483388
0.0916094
0.468043
0.666826
0.434096
0.551556
-0.854311
0.0167843
0.422544
0.198851
0.644346
-0.490179
0.694034
0.0442311
0.543146
0.494759
-0.194875
0.083546
0.919013
0.893338
0.0912356
0.176731
0.642887
0.138611
0.292611
0.0197409
0.681329
-0.0987782
0.0753518
-0.00168854
-0.00233466
-0.0441199
-0.041657
0.862302
0.145972
0.310191
0.29478
0.790701
0.413764
0.71793
0.372199
0.237163
)
;
    }
    frontAndBack
    {
        type            empty;
    }
}


// ************************************************************************* //
