/*--------------------------------*- C++ -*----------------------------------*\
| =========                 |                                                 |
| \\      /  F ield         | OpenFOAM: The Open Source CFD Toolbox           |
|  \\    /   O peration     | Version:  2312                                  |
|   \\  /    A nd           | Website:  www.openfoam.com                      |
|    \\/     M anipulation  |                                                 |
\*---------------------------------------------------------------------------*/
FoamFile
{
    version     2.0;
    format      ascii;
    arch        "LSB;label=32;scalar=64";
    class       surfaceScalarField;
    location    "6";
    object      fluxField;
}
// * * * * * * * * * * * * * * * * * * * * * * * * * * * * * * * * * * * * * //

dimensions      [0 3 -1 0 0 0 0];

oriented        oriented;

internalField   nonuniform List<scalar> 
760
(
-5e-05
4.25184e-18
-5e-05
-9.04821e-19
-5e-05
2.20042e-19
-5e-05
-4.75384e-20
-5e-05
6.87523e-21
-5e-05
-2.25657e-21
-5e-05
3.92493e-21
-5e-05
3.3305e-21
-5e-05
8.73311e-22
-5e-05
2.01995e-21
-5e-05
1.96257e-21
-5e-05
1.69477e-21
-5e-05
4.97834e-21
-5e-05
9.28882e-21
-5e-05
6.42174e-21
-5e-05
-9.89302e-22
-5e-05
-2.4022e-21
-5e-05
2.87709e-21
-5e-05
-1.2053e-21
-1.42679e-21
-5e-05
-3.1071e-18
-5e-05
6.7064e-19
-5e-05
-1.58122e-19
-5e-05
2.6143e-20
-5e-05
-1.46102e-20
-5e-05
1.14256e-21
-5e-05
7.62644e-21
-5e-05
6.93129e-21
-5e-05
2.33399e-21
-5e-05
1.35865e-21
-5e-05
2.32549e-21
-5e-05
4.79036e-21
-5e-05
9.34903e-21
-5e-05
1.27532e-20
-5e-05
1.0879e-20
-5e-05
4.33037e-21
-5e-05
-1.88433e-21
-5e-05
-2.50599e-21
-5e-05
-7.29999e-21
-5.45335e-21
-5e-05
-1.11588e-18
-5e-05
2.5507e-19
-5e-05
-6.18974e-20
-5e-05
1.13932e-20
-5e-05
-5.64317e-21
-5e-05
-1.10394e-21
-5e-05
4.75037e-21
-5e-05
5.58575e-21
-5e-05
1.587e-21
-5e-05
-3.99679e-21
-5e-05
-1.89194e-21
-5e-05
5.81817e-21
-5e-05
1.0816e-20
-5e-05
1.00615e-20
-5e-05
7.60734e-21
-5e-05
5.25432e-21
-5e-05
-1.52027e-21
-5e-05
-8.37665e-21
-5e-05
-9.76085e-21
-6.21171e-21
-5e-05
2.38411e-18
-5e-05
-5.28651e-19
-5e-05
1.21646e-19
-5e-05
-2.5763e-20
-5e-05
6.18288e-21
-5e-05
-4.63826e-21
-5e-05
-1.56206e-22
-5e-05
3.19782e-21
-5e-05
3.89333e-21
-5e-05
5.85904e-22
-5e-05
1.01876e-21
-5e-05
6.80726e-21
-5e-05
7.64285e-21
-5e-05
5.22567e-21
-5e-05
2.14608e-21
-5e-05
1.32692e-21
-5e-05
-1.66296e-21
-5e-05
-5.00227e-21
-5e-05
-5.59843e-21
-3.85875e-21
-5e-05
-2.12408e-18
-5e-05
4.22983e-19
-5e-05
-1.08411e-19
-5e-05
2.04429e-20
-5e-05
-2.52407e-21
-5e-05
3.04907e-21
-5e-05
2.67231e-22
-5e-05
2.0114e-21
-5e-05
6.30079e-21
-5e-05
7.36549e-21
-5e-05
2.31361e-21
-5e-05
2.77327e-22
-5e-05
3.00529e-22
-5e-05
3.82727e-21
-5e-05
3.2709e-21
-5e-05
-3.09443e-22
-5e-05
-2.86626e-21
-5e-05
-1.92662e-21
-5e-05
-3.02294e-21
-3.56924e-21
-5e-05
3.00714e-19
-5e-05
-4.17836e-20
-5e-05
1.22045e-20
-5e-05
4.34702e-21
-5e-05
8.6934e-21
-5e-05
8.51284e-21
-5e-05
-7.74351e-22
-5e-05
-5.7315e-21
-5e-05
-1.86071e-21
-5e-05
4.92235e-21
-5e-05
7.48156e-22
-5e-05
-4.59226e-21
-5e-05
-3.42818e-22
-5e-05
6.3416e-21
-5e-05
6.47555e-21
-5e-05
1.85656e-21
-5e-05
-8.36514e-22
-5e-05
-1.01738e-21
-5e-05
-2.1311e-21
-2.01735e-21
-5e-05
1.67607e-18
-5e-05
-3.34496e-19
-5e-05
8.92463e-20
-5e-05
-5.7395e-21
-5e-05
1.77112e-20
-5e-05
9.72572e-21
-5e-05
2.37973e-21
-5e-05
-3.49458e-21
-5e-05
-1.05135e-21
-5e-05
6.92002e-21
-5e-05
7.62547e-21
-5e-05
-6.19611e-22
-5e-05
-3.55897e-21
-5e-05
-1.74618e-21
-5e-05
-5.18507e-22
-5e-05
-1.05329e-22
-5e-05
1.85106e-21
-5e-05
2.31459e-21
-5e-05
2.14937e-23
3.80737e-22
-5e-05
-1.90965e-18
-5e-05
3.86361e-19
-5e-05
-8.33339e-20
-5e-05
2.65639e-20
-5e-05
7.56206e-21
-5e-05
9.06293e-21
-5e-05
6.50326e-21
-5e-05
3.5967e-21
-5e-05
2.96128e-21
-5e-05
2.93947e-21
-5e-05
6.77617e-21
-5e-05
3.42588e-21
-5e-05
-6.76192e-21
-5e-05
-1.0786e-20
-5e-05
-8.21904e-21
-5e-05
-4.33804e-21
-5e-05
7.10994e-22
-5e-05
1.42248e-21
-5e-05
7.84166e-22
-3.86948e-22
-5e-05
2.99973e-19
-5e-05
-5.95212e-20
-5e-05
2.17383e-20
-5e-05
4.00867e-21
-5e-05
5.71563e-21
-5e-05
3.82726e-21
-5e-05
2.48471e-21
-5e-05
1.94499e-21
-5e-05
-6.87587e-22
-5e-05
-3.81439e-21
-5e-05
-1.6896e-21
-5e-05
1.21299e-21
-5e-05
-3.90014e-21
-5e-05
-9.59534e-21
-5e-05
-6.85574e-21
-5e-05
-1.82543e-21
-5e-05
2.65254e-22
-5e-05
-3.50256e-21
-5e-05
-8.4946e-22
-1.82244e-21
-5e-05
1.73544e-19
-5e-05
-6.53318e-21
-5e-05
1.09455e-20
-5e-05
9.17841e-21
-5e-05
4.7292e-21
-5e-05
2.41982e-21
-5e-05
-1.18884e-23
-5e-05
3.69237e-21
-5e-05
3.19752e-21
-5e-05
2.73849e-21
-5e-05
3.46002e-22
-5e-05
-6.85224e-22
-5e-05
-2.22388e-21
-5e-05
-6.48473e-21
-5e-05
-4.09551e-21
-5e-05
1.59681e-21
-5e-05
2.48661e-24
-5e-05
-5.06453e-21
-5e-05
-4.38333e-21
-3.82396e-21
-5e-05
-3.41725e-19
-5e-05
8.78991e-20
-5e-05
-1.60629e-20
-5e-05
8.17345e-21
-5e-05
2.42691e-21
-5e-05
4.20953e-21
-5e-05
6.4451e-21
-5e-05
1.04482e-20
-5e-05
8.34238e-21
-5e-05
4.11324e-21
-5e-05
-1.04578e-21
-5e-05
-3.86361e-21
-5e-05
-1.85013e-21
-5e-05
2.38375e-22
-5e-05
7.84567e-23
-5e-05
7.69129e-22
-5e-05
-1.08189e-21
-5e-05
-1.63627e-21
-5e-05
-4.91107e-21
-4.62825e-21
-5e-05
9.715e-19
-5e-05
-2.19196e-19
-5e-05
5.24949e-20
-5e-05
-1.20461e-20
-5e-05
1.80656e-21
-5e-05
-7.06517e-23
-5e-05
3.84131e-21
-5e-05
1.8395e-21
-5e-05
-3.29182e-21
-5e-05
-8.40453e-21
-5e-05
-9.8118e-21
-5e-05
-9.05019e-21
-5e-05
-4.27381e-21
-5e-05
5.0503e-21
-5e-05
5.27671e-21
-5e-05
-7.06057e-22
-5e-05
-1.56102e-21
-5e-05
2.46001e-22
-5e-05
-2.80805e-21
-4.31151e-21
-5e-05
-1.74124e-18
-5e-05
3.64292e-19
-5e-05
-7.99022e-20
-5e-05
2.26043e-20
-5e-05
-2.12752e-21
-5e-05
-6.06277e-22
-5e-05
-5.41116e-21
-5e-05
-1.12039e-20
-5e-05
-1.27023e-20
-5e-05
-7.56704e-21
-5e-05
-3.12751e-21
-5e-05
-2.13445e-21
-5e-05
-2.50419e-21
-5e-05
8.13848e-22
-5e-05
3.13123e-21
-5e-05
-1.39347e-21
-5e-05
-2.32352e-21
-5e-05
-2.01389e-21
-5e-05
-4.74086e-21
-6.42482e-21
-5e-05
1.09968e-18
-5e-05
-2.25567e-19
-5e-05
5.78797e-20
-5e-05
-5.7968e-21
-5e-05
6.20021e-21
-5e-05
2.06586e-21
-5e-05
-3.28681e-21
-5e-05
-1.02618e-20
-5e-05
-9.41432e-21
-5e-05
-3.45946e-22
-5e-05
2.73087e-21
-5e-05
3.10168e-21
-5e-05
3.63965e-21
-5e-05
1.32642e-22
-5e-05
-2.01003e-21
-5e-05
-2.86485e-21
-5e-05
-4.19676e-21
-5e-05
-3.339e-21
-5e-05
-3.27013e-21
-4.79027e-21
-5e-05
9.23522e-19
-5e-05
-1.92805e-19
-5e-05
4.99215e-20
-5e-05
-7.66974e-21
-5e-05
4.73139e-21
-5e-05
3.35353e-21
-5e-05
1.61438e-22
-5e-05
-7.24206e-21
-5e-05
-9.29558e-21
-5e-05
-9.01862e-21
-5e-05
-5.50037e-21
-5e-05
-3.08887e-22
-5e-05
4.04599e-21
-5e-05
1.56357e-21
-5e-05
-5.42998e-21
-5e-05
-4.96487e-21
-5e-05
-3.46893e-21
-5e-05
-2.48386e-21
-5e-05
-4.95208e-22
-9.14274e-22
-5e-05
-2.35825e-18
-5e-05
5.18585e-19
-5e-05
-1.09393e-19
-5e-05
3.16661e-20
-5e-05
-1.43431e-21
-5e-05
5.48197e-21
-5e-05
3.70297e-21
-5e-05
-2.32166e-22
-5e-05
-4.83194e-21
-5e-05
-1.16975e-20
-5e-05
-8.85366e-21
-5e-05
-2.63158e-21
-5e-05
-2.55479e-21
-5e-05
-5.49171e-21
-5e-05
-1.13061e-20
-5e-05
-9.06465e-21
-5e-05
-1.61958e-21
-5e-05
1.13051e-21
-5e-05
-9.49369e-22
-2.6499e-22
-5e-05
1.58666e-18
-5e-05
-3.27277e-19
-5e-05
8.60435e-20
-5e-05
-1.28419e-20
-5e-05
2.99073e-21
-5e-05
-4.78808e-21
-5e-05
-1.99548e-21
-5e-05
-3.47364e-22
-5e-05
5.27026e-22
-5e-05
-2.18458e-21
-5e-05
-3.66345e-21
-5e-05
-1.58165e-21
-5e-05
-2.13147e-21
-5e-05
-5.75471e-21
-5e-05
-1.26654e-20
-5e-05
-1.26348e-20
-5e-05
-4.62485e-21
-5e-05
1.73995e-21
-5e-05
1.49371e-21
1.82794e-21
-5e-05
1.55689e-18
-5e-05
-3.48387e-19
-5e-05
7.46305e-20
-5e-05
-2.33598e-20
-5e-05
-1.3007e-21
-5e-05
-1.0759e-20
-5e-05
-1.24032e-20
-5e-05
-8.2775e-21
-5e-05
-6.0276e-22
-5e-05
-1.88125e-22
-5e-05
-2.00569e-21
-5e-05
-2.79874e-21
-5e-05
-8.45568e-22
-5e-05
-2.10145e-21
-5e-05
-4.25887e-21
-5e-05
-4.39804e-21
-5e-05
-3.48264e-21
-5e-05
-3.12692e-21
-5e-05
-3.81044e-22
1.9362e-21
-5e-05
-2.69921e-18
-5e-05
5.57069e-19
-5e-05
-1.44183e-19
-5e-05
2.07698e-20
-5e-05
-7.76999e-21
-5e-05
-3.19883e-22
-5e-05
-4.05554e-21
-5e-05
-2.25578e-21
-5e-05
8.13739e-22
-5e-05
-2.05474e-21
-5e-05
-4.0079e-21
-5e-05
-7.239e-21
-5e-05
-7.84947e-21
-5e-05
-5.6817e-21
-5e-05
1.67006e-21
-5e-05
4.22517e-21
-5e-05
1.03145e-21
-5e-05
-4.24568e-21
-5e-05
-4.13884e-21
-1.10313e-21
-5e-05
-5e-05
-5e-05
-5e-05
-5e-05
-5e-05
-5e-05
-5e-05
-5e-05
-5e-05
-5e-05
-5e-05
-5e-05
-5e-05
-5e-05
-5e-05
-5e-05
-5e-05
-5e-05
)
;

boundaryField
{
    movingWall
    {
        type            calculated;
        value           uniform -0;
    }
    fixedWalls
    {
        type            calculated;
        value           nonuniform List<scalar> 
60
(
5e-05
5e-05
5e-05
5e-05
5e-05
5e-05
5e-05
5e-05
5e-05
5e-05
5e-05
5e-05
5e-05
5e-05
5e-05
5e-05
5e-05
5e-05
5e-05
5e-05
-5e-05
-5e-05
-5e-05
-5e-05
-5e-05
-5e-05
-5e-05
-5e-05
-5e-05
-5e-05
-5e-05
-5e-05
-5e-05
-5e-05
-5e-05
-5e-05
-5e-05
-5e-05
-5e-05
-5e-05
0
0
0
0
0
0
0
0
0
0
0
0
0
0
0
0
0
0
0
0
)
;
    }
    frontAndBack
    {
        type            empty;
        value           nonuniform List<scalar> 0();
    }
}


// ************************************************************************* //
