/*--------------------------------*- C++ -*----------------------------------*\
| =========                 |                                                 |
| \\      /  F ield         | OpenFOAM: The Open Source CFD Toolbox           |
|  \\    /   O peration     | Version:  2312                                  |
|   \\  /    A nd           | Website:  www.openfoam.com                      |
|    \\/     M anipulation  |                                                 |
\*---------------------------------------------------------------------------*/
FoamFile
{
    version     2.0;
    format      ascii;
    arch        "LSB;label=32;scalar=64";
    class       volTensorField;
    location    "6";
    object      gradU;
}
// * * * * * * * * * * * * * * * * * * * * * * * * * * * * * * * * * * * * * //

dimensions      [0 0 -1 0 0 0 0];

internalField   nonuniform List<tensor> 
400
(
(-1.11131e-12 1.15478e-11 0 8.40257e-13 1.70073e-11 0 0 0 0)
(1.65341e-12 -1.38942e-11 0 -1.6263e-13 -3.61928e-12 0 0 0 0)
(-4.60786e-13 2.93958e-12 0 5.42101e-14 8.80168e-13 0 0 0 0)
(2.71051e-14 -7.03942e-13 0 1.0842e-13 -1.90154e-13 0 0 0 0)
(2.71051e-14 1.42809e-13 0 1.0842e-13 2.75009e-14 0 0 0 0)
(0 -3.14083e-14 0 1.35525e-13 -9.02628e-15 0 0 0 0)
(-5.42101e-14 1.02957e-14 0 1.0842e-13 1.56997e-14 0 0 0 0)
(0 -1.82588e-15 0 5.42101e-14 1.3322e-14 0 0 0 0)
(-2.71051e-14 -3.74117e-15 0 5.42101e-14 3.49324e-15 0 0 0 0)
(0 -4.37065e-15 0 5.42101e-14 8.07981e-15 0 0 0 0)
(0 -5.65375e-15 0 8.13152e-14 7.85028e-15 0 0 0 0)
(-2.71051e-14 2.55747e-15 0 5.42101e-14 6.7791e-15 0 0 0 0)
(0 1.29194e-14 0 5.42101e-14 1.99134e-14 0 0 0 0)
(-2.71051e-14 2.45109e-15 0 2.71051e-14 3.71553e-14 0 0 0 0)
(-5.42101e-14 -1.69582e-14 0 0 2.5687e-14 0 0 0 0)
(5.42101e-14 -9.71966e-15 0 0 -3.95721e-15 0 0 0 0)
(2.71051e-14 1.31151e-14 0 0 -9.60881e-15 0 0 0 0)
(-2.71051e-14 7.60496e-15 0 0 1.15083e-14 0 0 0 0)
(0 -4.83395e-15 0 0 -4.82121e-15 0 0 0 0)
(0 -2.48203e-15 0 0 -5.70714e-15 0 0 0 0)
(1.81604e-12 1.84029e-12 0 1.81604e-12 -2.94357e-11 0 0 0 0)
(-2.46656e-12 -2.23301e-12 0 -5.42101e-13 6.30185e-12 0 0 0 0)
(7.31836e-13 4.89555e-13 0 2.71051e-14 -1.51266e-12 0 0 0 0)
(0 -1.48725e-13 0 -8.13152e-14 2.94726e-13 0 0 0 0)
(2.71051e-14 3.83187e-14 0 -5.42101e-14 -8.59415e-14 0 0 0 0)
(2.71051e-14 1.9607e-14 0 -1.0842e-13 1.35965e-14 0 0 0 0)
(-2.71051e-14 1.20526e-14 0 -5.42101e-14 1.4806e-14 0 0 0 0)
(-2.71051e-14 -1.03806e-14 0 -5.42101e-14 1.44032e-14 0 0 0 0)
(2.71051e-14 -1.50102e-15 0 -5.42101e-14 5.84272e-15 0 0 0 0)
(0 8.72769e-15 0 -5.42101e-14 -2.64521e-15 0 0 0 0)
(0 4.35303e-15 0 -8.13152e-14 1.45169e-15 0 0 0 0)
(-2.71051e-14 9.50561e-15 0 -5.42101e-14 1.23823e-14 0 0 0 0)
(0 1.74568e-14 0 -5.42101e-14 1.74827e-14 0 0 0 0)
(-2.71051e-14 3.32252e-15 0 -8.13152e-14 1.38574e-14 0 0 0 0)
(-2.71051e-14 -2.41543e-14 0 -5.42101e-14 1.78291e-14 0 0 0 0)
(-5.42101e-14 -2.55761e-14 0 0 2.12787e-14 0 0 0 0)
(0 2.35049e-15 0 -5.42101e-14 2.07148e-15 0 0 0 0)
(0 -2.81735e-15 0 -5.42101e-14 -2.15323e-14 0 0 0 0)
(0 -1.23815e-14 0 0 -2.43787e-14 0 0 0 0)
(5.42101e-14 1.30104e-14 0 0 -1.61063e-14 0 0 0 0)
(2.43945e-13 -1.15861e-11 0 -4.93312e-12 7.96485e-12 0 0 0 0)
(-1.6263e-13 1.40289e-11 0 1.35525e-12 -1.66228e-12 0 0 0 0)
(-2.71051e-14 -3.06754e-12 0 -8.13152e-14 3.84899e-13 0 0 0 0)
(-1.0842e-13 7.22773e-13 0 5.42101e-14 -5.89991e-14 0 0 0 0)
(0 -1.38321e-13 0 -2.71051e-14 3.58679e-14 0 0 0 0)
(0 6.93393e-14 0 -2.71051e-14 -8.986e-15 0 0 0 0)
(0 1.11023e-14 0 -1.0842e-13 -1.15043e-14 0 0 0 0)
(0 -1.07892e-14 0 0 -5.38215e-15 0 0 0 0)
(-2.71051e-14 -2.07895e-14 0 0 -2.98797e-15 0 0 0 0)
(0 -8.76169e-15 0 0 -2.14218e-14 0 0 0 0)
(0 9.37381e-15 0 0 -1.68697e-14 0 0 0 0)
(0 1.85885e-14 0 0 4.11123e-15 0 0 0 0)
(0 1.43945e-14 0 -5.42101e-14 5.86793e-15 0 0 0 0)
(0 2.79745e-15 0 5.42101e-14 -1.07668e-14 0 0 0 0)
(2.71051e-14 -9.5369e-15 0 5.42101e-14 -1.30867e-14 0 0 0 0)
(0 -2.54773e-14 0 5.42101e-14 3.69577e-15 0 0 0 0)
(0 -2.96959e-14 0 5.42101e-14 1.45625e-15 0 0 0 0)
(5.42101e-14 -1.88453e-14 0 5.42101e-14 -2.34826e-14 0 0 0 0)
(0 5.9207e-16 0 0 -9.84344e-15 0 0 0 0)
(0 3.8003e-14 0 2.71051e-14 -3.03344e-15 0 0 0 0)
(-1.84314e-12 8.14286e-12 0 1.65341e-12 1.4e-11 0 0 0 0)
(2.41235e-12 -9.81296e-12 0 -5.96311e-13 -3.13488e-12 0 0 0 0)
(-5.96311e-13 2.09284e-12 0 -5.42101e-14 7.34174e-13 0 0 0 0)
(5.42101e-14 -4.97757e-13 0 0 -1.48625e-13 0 0 0 0)
(-2.71051e-14 8.83318e-14 0 5.42101e-14 4.73042e-14 0 0 0 0)
(0 -2.77652e-14 0 5.42101e-14 -1.41373e-14 0 0 0 0)
(0 1.56565e-14 0 8.13152e-14 -1.96263e-14 0 0 0 0)
(2.71051e-14 -1.86426e-15 0 5.42101e-14 -9.55172e-15 0 0 0 0)
(0 -1.75406e-14 0 5.42101e-14 9.22533e-15 0 0 0 0)
(0 -5.15405e-15 0 2.71051e-14 1.83308e-14 0 0 0 0)
(2.71051e-14 2.9886e-14 0 0 1.16428e-14 0 0 0 0)
(0 3.22433e-14 0 2.71051e-14 3.95638e-15 0 0 0 0)
(-2.71051e-14 2.57882e-15 0 8.13152e-14 -1.26927e-14 0 0 0 0)
(0 -1.56321e-14 0 5.42101e-14 -1.93433e-14 0 0 0 0)
(2.71051e-14 -9.6918e-15 0 5.42101e-14 -2.18451e-14 0 0 0 0)
(-2.71051e-14 -1.10332e-14 0 0 -1.57096e-14 0 0 0 0)
(0 -2.48279e-14 0 2.71051e-14 -5.7074e-16 0 0 0 0)
(-2.71051e-14 -1.4117e-14 0 5.42101e-14 1.34975e-14 0 0 0 0)
(0 8.06767e-15 0 0 1.66496e-14 0 0 0 0)
(-2.71051e-14 2.58873e-14 0 0 9.41183e-15 0 0 0 0)
(1.27394e-12 -7.21016e-13 0 2.6563e-12 -1.80327e-11 0 0 0 0)
(-1.87025e-12 7.63106e-13 0 -5.69206e-13 3.80653e-12 0 0 0 0)
(5.69206e-13 -8.12882e-14 0 1.89735e-13 -9.20228e-13 0 0 0 0)
(2.71051e-14 3.59038e-14 0 -1.0842e-13 1.84823e-13 0 0 0 0)
(2.71051e-14 -3.83303e-15 0 0 -3.48278e-14 0 0 0 0)
(-2.71051e-14 2.40884e-15 0 -1.0842e-13 3.07493e-14 0 0 0 0)
(2.71051e-14 1.56879e-14 0 -8.13152e-14 1.69375e-15 0 0 0 0)
(-2.71051e-14 1.80624e-14 0 -1.0842e-13 -4.74567e-15 0 0 0 0)
(-2.71051e-14 7.09295e-15 0 -5.42101e-14 9.62982e-15 0 0 0 0)
(-8.13152e-14 -6.34425e-15 0 -2.71051e-14 2.71184e-14 0 0 0 0)
(0 -5.00058e-15 0 -5.42101e-14 5.17941e-15 0 0 0 0)
(2.71051e-14 -5.7469e-15 0 -2.71051e-14 -2.61197e-14 0 0 0 0)
(5.42101e-14 -8.90519e-15 0 0 -2.93693e-14 0 0 0 0)
(2.71051e-14 -6.35497e-15 0 -2.71051e-14 -5.59359e-15 0 0 0 0)
(0 -5.90322e-15 0 0 4.49928e-15 0 0 0 0)
(0 -4.20296e-15 0 -5.42101e-14 -6.54544e-15 0 0 0 0)
(0 -4.88816e-16 0 -2.71051e-14 -4.81321e-15 0 0 0 0)
(-2.71051e-14 -1.62486e-15 0 -5.42101e-14 1.23026e-14 0 0 0 0)
(0 -3.49362e-15 0 0 1.0302e-14 0 0 0 0)
(0 1.19415e-14 0 -2.71051e-14 1.15808e-15 0 0 0 0)
(2.1684e-13 -6.08336e-12 0 -2.03288e-12 9.69916e-12 0 0 0 0)
(-2.71051e-14 7.29956e-12 0 6.77626e-13 -1.85907e-12 0 0 0 0)
(-8.13152e-14 -1.52887e-12 0 5.42101e-14 4.82461e-13 0 0 0 0)
(-1.0842e-13 3.87643e-13 0 1.0842e-13 -6.43836e-14 0 0 0 0)
(-5.42101e-14 -6.57423e-14 0 0 4.48699e-14 0 0 0 0)
(-2.71051e-14 8.75639e-15 0 5.42101e-14 2.18551e-14 0 0 0 0)
(0 -1.98386e-14 0 5.42101e-14 -4.16633e-15 0 0 0 0)
(0 6.07181e-15 0 0 -3.09716e-14 0 0 0 0)
(8.13152e-14 1.43234e-14 0 0 -3.2646e-14 0 0 0 0)
(2.71051e-14 -9.60446e-15 0 2.71051e-14 -9.77257e-15 0 0 0 0)
(2.71051e-14 -2.33521e-14 0 1.0842e-13 -6.26182e-15 0 0 0 0)
(0 -2.30543e-15 0 0 -1.94783e-14 0 0 0 0)
(0 2.3105e-14 0 0 -2.57339e-15 0 0 0 0)
(0 1.82364e-14 0 -2.71051e-14 1.00573e-14 0 0 0 0)
(-2.71051e-14 -1.06436e-14 0 -2.71051e-14 1.28186e-14 0 0 0 0)
(-2.71051e-14 -2.03457e-14 0 2.71051e-14 8.664e-15 0 0 0 0)
(-5.42101e-14 -5.97987e-15 0 2.71051e-14 8.11897e-15 0 0 0 0)
(5.42101e-14 9.98139e-16 0 0 3.63695e-15 0 0 0 0)
(0 -3.07686e-15 0 0 3.56736e-15 0 0 0 0)
(0 1.44272e-14 0 0 6.20756e-15 0 0 0 0)
(0 7.11908e-12 0 -3.52366e-13 5.50143e-12 0 0 0 0)
(2.1684e-13 -8.45359e-12 0 -1.0842e-13 -1.17085e-12 0 0 0 0)
(-1.0842e-13 1.71339e-12 0 -2.43945e-13 3.08167e-13 0 0 0 0)
(-2.71051e-14 -4.01687e-13 0 0 -4.03461e-14 0 0 0 0)
(-2.71051e-14 8.24056e-14 0 -5.42101e-14 3.60713e-14 0 0 0 0)
(2.71051e-14 -4.66274e-14 0 0 4.85152e-15 0 0 0 0)
(-2.71051e-14 -3.71388e-14 0 0 1.26163e-14 0 0 0 0)
(-2.71051e-14 -1.04172e-14 0 5.42101e-14 8.94767e-15 0 0 0 0)
(0 2.8292e-14 0 -5.42101e-14 3.23744e-15 0 0 0 0)
(0 2.00399e-14 0 -8.13152e-14 7.99067e-15 0 0 0 0)
(-8.13152e-14 -1.47064e-14 0 -1.0842e-13 2.75092e-14 0 0 0 0)
(-2.71051e-14 -2.05846e-15 0 -8.13152e-14 1.58906e-14 0 0 0 0)
(2.71051e-14 2.06305e-14 0 -1.0842e-13 -1.28646e-14 0 0 0 0)
(5.42101e-14 9.03701e-15 0 -8.13152e-14 -3.23511e-14 0 0 0 0)
(5.42101e-14 -7.29652e-15 0 -8.13152e-14 -2.79762e-14 0 0 0 0)
(2.71051e-14 -8.90258e-15 0 -2.71051e-14 -7.84754e-15 0 0 0 0)
(-2.71051e-14 -5.51587e-15 0 0 1.07503e-14 0 0 0 0)
(-2.71051e-14 -6.17647e-15 0 0 1.33279e-14 0 0 0 0)
(0 -9.23005e-16 0 0 8.61037e-15 0 0 0 0)
(-2.71051e-14 2.16657e-15 0 2.71051e-14 9.59233e-15 0 0 0 0)
(-2.71051e-13 -1.75278e-12 0 5.42101e-13 -1.43429e-11 0 0 0 0)
(8.13152e-14 2.1063e-12 0 -2.1684e-13 2.88343e-12 0 0 0 0)
(5.42101e-14 -3.9837e-13 0 -8.13152e-14 -6.90321e-13 0 0 0 0)
(8.13152e-14 1.15547e-13 0 -1.35525e-13 1.29214e-13 0 0 0 0)
(-2.71051e-14 -2.05447e-14 0 -8.13152e-14 -4.05966e-14 0 0 0 0)
(2.71051e-14 -1.46986e-14 0 -5.42101e-14 -2.65119e-15 0 0 0 0)
(-2.71051e-14 -1.57424e-14 0 -5.42101e-14 1.64941e-14 0 0 0 0)
(0 -3.30707e-15 0 -5.42101e-14 2.83651e-14 0 0 0 0)
(-5.42101e-14 1.33664e-14 0 -8.13152e-14 1.60505e-14 0 0 0 0)
(5.42101e-14 1.46673e-14 0 -2.71051e-14 -1.59222e-14 0 0 0 0)
(0 -1.54522e-14 0 0 -3.39719e-15 0 0 0 0)
(0 -4.26793e-14 0 2.71051e-14 1.6182e-14 0 0 0 0)
(-5.42101e-14 -2.51367e-14 0 2.71051e-14 -1.28118e-14 0 0 0 0)
(5.42101e-14 3.12485e-15 0 0 -3.61591e-14 0 0 0 0)
(0 1.38599e-14 0 0 -3.08021e-14 0 0 0 0)
(2.71051e-14 1.83808e-14 0 0 -1.69308e-14 0 0 0 0)
(0 1.51955e-14 0 -8.13152e-14 -4.56026e-15 0 0 0 0)
(5.42101e-14 -1.14179e-15 0 -5.42101e-14 -3.56841e-15 0 0 0 0)
(0 -6.81239e-15 0 0 3.05069e-15 0 0 0 0)
(0 -3.77549e-15 0 -2.71051e-14 -3.07074e-15 0 0 0 0)
(3.25261e-13 -4.34036e-12 0 5.69206e-13 8.83848e-12 0 0 0 0)
(-3.79471e-13 5.19895e-12 0 0 -1.78353e-12 0 0 0 0)
(-2.71051e-14 -1.04082e-12 0 2.1684e-13 4.20289e-13 0 0 0 0)
(-5.42101e-14 2.48037e-13 0 2.71051e-14 -9.0221e-14 0 0 0 0)
(8.13152e-14 -4.94593e-14 0 8.13152e-14 -7.3857e-15 0 0 0 0)
(0 1.04634e-14 0 5.42101e-14 -2.09426e-14 0 0 0 0)
(5.42101e-14 -6.1225e-15 0 5.42101e-14 -1.60742e-14 0 0 0 0)
(-5.42101e-14 -1.08608e-14 0 5.42101e-14 -6.60683e-15 0 0 0 0)
(0 -1.59953e-14 0 1.35525e-13 -1.45955e-14 0 0 0 0)
(5.42101e-14 5.9221e-16 0 8.13152e-14 -2.70155e-14 0 0 0 0)
(2.71051e-14 1.73978e-14 0 1.0842e-13 -3.38631e-14 0 0 0 0)
(0 -1.14731e-14 0 8.13152e-14 -8.85158e-15 0 0 0 0)
(-2.71051e-14 -3.17106e-14 0 1.0842e-13 1.14471e-14 0 0 0 0)
(0 -8.95333e-15 0 8.13152e-14 4.76243e-15 0 0 0 0)
(2.71051e-14 1.19317e-14 0 1.0842e-13 5.45322e-15 0 0 0 0)
(0 1.73393e-14 0 2.71051e-14 1.00504e-14 0 0 0 0)
(-2.71051e-14 7.84656e-15 0 5.42101e-14 -1.78296e-15 0 0 0 0)
(0 1.43448e-15 0 5.42101e-14 -1.97002e-14 0 0 0 0)
(0 -4.25333e-16 0 0 -6.5345e-15 0 0 0 0)
(0 2.18662e-15 0 2.71051e-14 -5.74199e-15 0 0 0 0)
(2.98156e-13 5.30217e-12 0 -1.46367e-12 -5.05714e-13 0 0 0 0)
(-2.43945e-13 -6.31189e-12 0 3.25261e-13 2.11952e-13 0 0 0 0)
(8.13152e-14 1.29494e-12 0 -5.42101e-14 -4.31711e-14 0 0 0 0)
(-8.13152e-14 -3.12127e-13 0 1.89735e-13 2.0679e-14 0 0 0 0)
(0 4.87337e-14 0 1.0842e-13 -3.94572e-15 0 0 0 0)
(-2.71051e-14 -2.33871e-14 0 8.13152e-14 -5.62979e-15 0 0 0 0)
(2.71051e-14 -1.40658e-15 0 8.13152e-14 -9.98638e-15 0 0 0 0)
(0 -1.82834e-15 0 8.13152e-14 6.98951e-15 0 0 0 0)
(0 -7.04224e-15 0 8.13152e-14 1.55404e-14 0 0 0 0)
(0 -4.60025e-15 0 5.42101e-14 2.62115e-14 0 0 0 0)
(0 2.71173e-15 0 2.71051e-14 8.1424e-15 0 0 0 0)
(0 2.63088e-15 0 2.71051e-14 -7.59284e-15 0 0 0 0)
(0 -1.15227e-14 0 2.71051e-14 6.70504e-15 0 0 0 0)
(0 -2.86905e-15 0 5.42101e-14 1.24425e-14 0 0 0 0)
(0 1.91479e-14 0 -5.42101e-14 1.10409e-14 0 0 0 0)
(-2.71051e-14 1.11447e-14 0 0 1.3689e-14 0 0 0 0)
(0 -1.45551e-14 0 2.71051e-14 -1.05107e-15 0 0 0 0)
(-2.71051e-14 -5.89333e-15 0 0 -6.24787e-15 0 0 0 0)
(0 7.14579e-15 0 0 -1.41355e-14 0 0 0 0)
(0 8.501e-15 0 -2.71051e-14 -8.00605e-15 0 0 0 0)
(-8.40257e-13 -4.63412e-12 0 4.06576e-13 -2.06108e-12 0 0 0 0)
(1.02999e-12 5.6615e-12 0 -1.0842e-13 3.77729e-13 0 0 0 0)
(-1.89735e-13 -1.23209e-12 0 -1.6263e-13 -1.08034e-13 0 0 0 0)
(1.6263e-13 2.87262e-13 0 -2.1684e-13 -4.01984e-15 0 0 0 0)
(0 -7.57681e-14 0 -1.0842e-13 -9.20919e-15 0 0 0 0)
(2.71051e-14 4.4227e-15 0 -8.13152e-14 7.15884e-15 0 0 0 0)
(-2.71051e-14 6.4968e-15 0 -8.13152e-14 2.5828e-14 0 0 0 0)
(-2.71051e-14 1.4666e-14 0 -1.35525e-13 2.70233e-14 0 0 0 0)
(-2.71051e-14 3.2267e-15 0 -8.13152e-14 2.05794e-14 0 0 0 0)
(-2.71051e-14 -6.80583e-15 0 -1.0842e-13 5.49903e-15 0 0 0 0)
(-2.71051e-14 -1.64066e-14 0 -5.42101e-14 -5.56714e-15 0 0 0 0)
(0 -1.29104e-14 0 -5.42101e-14 -1.27135e-14 0 0 0 0)
(0 -1.16753e-14 0 -2.71051e-14 1.49501e-15 0 0 0 0)
(-5.42101e-14 -4.61748e-15 0 0 2.68924e-14 0 0 0 0)
(0 1.31782e-14 0 2.71051e-14 1.66959e-14 0 0 0 0)
(0 5.24733e-15 0 -2.71051e-14 -3.31072e-15 0 0 0 0)
(0 -1.20903e-14 0 5.42101e-14 -4.33751e-15 0 0 0 0)
(-5.42101e-14 -1.16499e-14 0 0 1.3713e-14 0 0 0 0)
(5.42101e-14 -2.1835e-15 0 0 -2.11096e-15 0 0 0 0)
(0 2.43281e-14 0 2.71051e-14 -3.21717e-15 0 0 0 0)
(6.23416e-13 3.61882e-12 0 -4.06576e-13 5.2529e-12 0 0 0 0)
(-8.40257e-13 -4.35885e-12 0 -8.13152e-14 -1.22838e-12 0 0 0 0)
(2.71051e-14 9.13189e-13 0 -1.35525e-13 2.74231e-13 0 0 0 0)
(-8.13152e-14 -2.13303e-13 0 -1.0842e-13 -8.08783e-14 0 0 0 0)
(8.13152e-14 5.99124e-14 0 -1.89735e-13 -2.4814e-15 0 0 0 0)
(5.42101e-14 1.16501e-14 0 -1.89735e-13 -1.71207e-14 0 0 0 0)
(-5.42101e-14 1.84579e-14 0 -1.35525e-13 -1.04152e-14 0 0 0 0)
(0 -7.07688e-15 0 -8.13152e-14 -3.44348e-14 0 0 0 0)
(0 -2.85666e-14 0 -8.13152e-14 -4.65368e-14 0 0 0 0)
(1.0842e-13 -3.07468e-14 0 0 -5.00711e-14 0 0 0 0)
(2.71051e-14 -1.55008e-14 0 -8.13152e-14 -3.5064e-14 0 0 0 0)
(5.42101e-14 9.69303e-15 0 0 -2.07463e-14 0 0 0 0)
(5.42101e-14 2.80833e-14 0 -5.42101e-14 -9.69471e-15 0 0 0 0)
(0 1.23318e-14 0 -5.42101e-14 1.92477e-14 0 0 0 0)
(0 -1.10552e-14 0 -2.71051e-14 2.0793e-14 0 0 0 0)
(0 -9.88872e-15 0 -5.42101e-14 -5.90074e-15 0 0 0 0)
(2.71051e-14 2.46868e-15 0 -5.42101e-14 -1.91653e-15 0 0 0 0)
(-2.71051e-14 -3.66678e-15 0 -5.42101e-14 7.52909e-15 0 0 0 0)
(-2.71051e-14 -9.7844e-15 0 0 8.41205e-15 0 0 0 0)
(-2.71051e-14 1.38291e-14 0 -2.71051e-14 1.26693e-15 0 0 0 0)
(-1.32815e-12 -6.09606e-13 0 4.06576e-13 -1.08509e-11 0 0 0 0)
(1.24683e-12 6.82828e-13 0 1.35525e-13 2.33395e-12 0 0 0 0)
(-1.35525e-13 -8.45896e-14 0 2.1684e-13 -5.29588e-13 0 0 0 0)
(1.35525e-13 1.05493e-14 0 2.43945e-13 1.38602e-13 0 0 0 0)
(-1.0842e-13 -1.20105e-14 0 1.35525e-13 -1.57363e-14 0 0 0 0)
(5.42101e-14 -3.51109e-15 0 1.89735e-13 -2.1425e-15 0 0 0 0)
(5.42101e-14 -1.08173e-14 0 1.35525e-13 -3.70099e-14 0 0 0 0)
(8.13152e-14 -2.14556e-14 0 1.6263e-13 -5.21736e-14 0 0 0 0)
(5.42101e-14 -1.24096e-14 0 1.35525e-13 -3.76418e-14 0 0 0 0)
(0 4.66692e-15 0 1.0842e-13 3.34997e-15 0 0 0 0)
(-5.42101e-14 1.29182e-14 0 5.42101e-14 2.67371e-14 0 0 0 0)
(-5.42101e-14 1.24589e-14 0 0 2.7663e-14 0 0 0 0)
(0 2.83187e-14 0 -5.42101e-14 7.0785e-15 0 0 0 0)
(-2.71051e-14 2.58702e-14 0 0 -1.69458e-14 0 0 0 0)
(0 -1.19702e-14 0 -5.42101e-14 -8.58189e-15 0 0 0 0)
(0 -1.74622e-14 0 0 -2.74964e-15 0 0 0 0)
(0 1.33955e-15 0 -8.13152e-14 -3.04998e-15 0 0 0 0)
(2.71051e-14 -1.32134e-15 0 5.42101e-14 -9.03957e-15 0 0 0 0)
(0 -8.44566e-15 0 0 -7.73121e-15 0 0 0 0)
(5.42101e-14 1.46492e-14 0 0 -8.45321e-15 0 0 0 0)
(1.13841e-12 -4.89817e-12 0 2.71051e-14 1.13637e-11 0 0 0 0)
(-9.48677e-13 5.96251e-12 0 2.71051e-14 -2.35943e-12 0 0 0 0)
(5.42101e-14 -1.28216e-12 0 1.0842e-13 5.51127e-13 0 0 0 0)
(-1.0842e-13 3.00549e-13 0 -2.71051e-14 -1.13604e-13 0 0 0 0)
(0 -8.08317e-14 0 5.42101e-14 3.33109e-14 0 0 0 0)
(-2.71051e-14 -9.62345e-15 0 5.42101e-14 1.06885e-14 0 0 0 0)
(-2.71051e-14 -3.15732e-14 0 0 8.49737e-15 0 0 0 0)
(-2.71051e-14 -7.70879e-15 0 -2.71051e-14 3.76854e-15 0 0 0 0)
(-2.71051e-14 2.6957e-14 0 -1.0842e-13 1.31517e-14 0 0 0 0)
(-2.71051e-14 3.36321e-14 0 -1.0842e-13 2.88844e-14 0 0 0 0)
(0 8.81214e-15 0 0 2.34335e-14 0 0 0 0)
(0 -9.96561e-15 0 0 2.09445e-14 0 0 0 0)
(0 -1.65255e-14 0 5.42101e-14 2.45753e-14 0 0 0 0)
(0 -3.32856e-15 0 0 -2.72482e-15 0 0 0 0)
(2.71051e-14 3.14095e-15 0 5.42101e-14 -2.05651e-14 0 0 0 0)
(-2.71051e-14 -4.35681e-15 0 5.42101e-14 -5.88552e-15 0 0 0 0)
(2.71051e-14 -3.82125e-15 0 5.42101e-14 -7.49296e-15 0 0 0 0)
(0 -8.34802e-15 0 5.42101e-14 -5.30041e-15 0 0 0 0)
(0 -9.19804e-15 0 5.42101e-14 5.88292e-15 0 0 0 0)
(-2.71051e-14 3.00135e-14 0 2.71051e-14 6.53817e-15 0 0 0 0)
(-1.24683e-12 8.39464e-12 0 8.67362e-13 -7.04647e-13 0 0 0 0)
(1.27394e-12 -1.01297e-11 0 -4.33681e-13 1.31047e-13 0 0 0 0)
(-2.1684e-13 2.16124e-12 0 -1.35525e-13 -3.18326e-14 0 0 0 0)
(1.0842e-13 -5.07267e-13 0 -8.13152e-14 -7.49176e-15 0 0 0 0)
(0 1.12282e-13 0 -5.42101e-14 -5.87527e-15 0 0 0 0)
(2.71051e-14 -2.83246e-14 0 -1.35525e-13 5.15068e-15 0 0 0 0)
(-2.71051e-14 -1.77373e-14 0 -8.13152e-14 1.3793e-14 0 0 0 0)
(0 -1.68013e-14 0 -8.13152e-14 1.20788e-14 0 0 0 0)
(-5.42101e-14 1.27062e-14 0 -2.71051e-14 4.74975e-16 0 0 0 0)
(5.42101e-14 1.49487e-14 0 -8.13152e-14 -3.46907e-14 0 0 0 0)
(2.71051e-14 4.97836e-15 0 -5.42101e-14 -3.2925e-14 0 0 0 0)
(5.42101e-14 1.36007e-14 0 -5.42101e-14 -1.36423e-14 0 0 0 0)
(2.71051e-14 4.64938e-15 0 -5.42101e-14 1.62536e-15 0 0 0 0)
(-2.71051e-14 -1.92701e-14 0 0 5.72373e-15 0 0 0 0)
(-5.42101e-14 -1.51309e-14 0 -5.42101e-14 -1.36798e-14 0 0 0 0)
(5.42101e-14 -4.39011e-15 0 0 -8.40009e-15 0 0 0 0)
(2.71051e-14 1.92466e-15 0 2.71051e-14 2.91132e-15 0 0 0 0)
(2.71051e-14 1.20546e-14 0 -5.42101e-14 3.42054e-15 0 0 0 0)
(-2.71051e-14 3.39292e-15 0 -5.42101e-14 1.10997e-14 0 0 0 0)
(-2.71051e-14 2.22806e-15 0 -2.71051e-14 1.5504e-14 0 0 0 0)
(1.54499e-12 -5.47177e-12 0 -6.50521e-13 -1.31271e-11 0 0 0 0)
(-1.95156e-12 6.63532e-12 0 2.71051e-13 2.84556e-12 0 0 0 0)
(4.33681e-13 -1.4207e-12 0 8.13152e-14 -6.37256e-13 0 0 0 0)
(-8.13152e-14 3.26507e-13 0 0 1.57343e-13 0 0 0 0)
(0 -6.81893e-14 0 0 -2.46628e-14 0 0 0 0)
(-2.71051e-14 1.00448e-14 0 0 8.51377e-15 0 0 0 0)
(0 -2.4645e-14 0 8.13152e-14 1.41661e-14 0 0 0 0)
(0 -2.10268e-14 0 8.13152e-14 2.80396e-14 0 0 0 0)
(-5.42101e-14 -1.98125e-14 0 8.13152e-14 1.78546e-14 0 0 0 0)
(5.42101e-14 2.32149e-16 0 8.13152e-14 -1.07156e-14 0 0 0 0)
(2.71051e-14 2.98606e-14 0 -2.71051e-14 -1.34132e-14 0 0 0 0)
(-2.71051e-14 2.45847e-14 0 -2.71051e-14 -9.29078e-15 0 0 0 0)
(0 2.84047e-15 0 -2.71051e-14 -2.64031e-14 0 0 0 0)
(2.71051e-14 -1.86337e-14 0 -5.42101e-14 -2.82211e-14 0 0 0 0)
(5.42101e-14 -1.09829e-14 0 0 -2.35045e-14 0 0 0 0)
(2.71051e-14 1.22343e-14 0 -5.42101e-14 -1.63991e-14 0 0 0 0)
(-2.71051e-14 7.99938e-15 0 0 7.3974e-15 0 0 0 0)
(-5.42101e-14 -1.59665e-16 0 0 1.44575e-14 0 0 0 0)
(5.42101e-14 2.88543e-15 0 0 -1.81665e-15 0 0 0 0)
(0 3.40987e-15 0 2.71051e-14 2.59714e-15 0 0 0 0)
(-1.5992e-12 -1.88689e-12 0 -2.38524e-12 1.57797e-11 0 0 0 0)
(1.97867e-12 2.36011e-12 0 4.33681e-13 -3.38345e-12 0 0 0 0)
(-4.60786e-13 -5.26976e-13 0 -2.1684e-13 7.81744e-13 0 0 0 0)
(8.13152e-14 1.05326e-13 0 0 -1.78032e-13 0 0 0 0)
(-5.42101e-14 -3.6547e-14 0 0 1.77001e-14 0 0 0 0)
(5.42101e-14 1.05043e-14 0 2.71051e-14 -4.10802e-14 0 0 0 0)
(5.42101e-14 1.7885e-15 0 0 -2.27938e-14 0 0 0 0)
(0 -1.31128e-14 0 5.42101e-14 -4.60791e-16 0 0 0 0)
(-2.71051e-14 -2.60489e-14 0 5.42101e-14 2.14359e-14 0 0 0 0)
(-8.13152e-14 -1.6319e-14 0 8.13152e-14 3.80517e-14 0 0 0 0)
(-2.71051e-14 6.40316e-15 0 8.13152e-14 2.07608e-14 0 0 0 0)
(0 6.10782e-16 0 8.13152e-14 4.19974e-15 0 0 0 0)
(2.71051e-14 -1.4281e-14 0 8.13152e-14 1.69327e-15 0 0 0 0)
(0 -1.63715e-14 0 8.13152e-14 -1.052e-15 0 0 0 0)
(0 -3.30889e-15 0 5.42101e-14 -5.43701e-15 0 0 0 0)
(5.42101e-14 2.65118e-14 0 5.42101e-14 -1.42805e-14 0 0 0 0)
(5.42101e-14 3.27813e-14 0 -2.71051e-14 -1.20211e-14 0 0 0 0)
(-2.71051e-14 2.8405e-15 0 0 2.43775e-15 0 0 0 0)
(0 -8.46742e-15 0 0 9.7723e-15 0 0 0 0)
(-2.71051e-14 1.44757e-15 0 0 8.37171e-15 0 0 0 0)
(-4.33681e-13 6.92444e-12 0 4.17418e-12 -1.19087e-13 0 0 0 0)
(2.43945e-13 -8.36259e-12 0 -1.00289e-12 -8.44404e-14 0 0 0 0)
(0 1.78472e-12 0 1.6263e-13 -4.56523e-14 0 0 0 0)
(1.0842e-13 -4.37537e-13 0 0 -4.20717e-14 0 0 0 0)
(2.71051e-14 6.87623e-14 0 5.42101e-14 -1.71657e-14 0 0 0 0)
(0 -3.04491e-14 0 5.42101e-14 -2.38835e-14 0 0 0 0)
(5.42101e-14 1.59744e-14 0 0 -4.16309e-14 0 0 0 0)
(5.42101e-14 2.32029e-14 0 -2.71051e-14 -3.17205e-14 0 0 0 0)
(0 1.87e-14 0 -2.71051e-14 -4.51914e-15 0 0 0 0)
(0 -4.42861e-16 0 -2.71051e-14 7.98583e-15 0 0 0 0)
(2.71051e-14 -3.99143e-15 0 2.71051e-14 6.63106e-15 0 0 0 0)
(2.71051e-14 5.51713e-15 0 0 -4.86838e-15 0 0 0 0)
(-2.71051e-14 -2.41127e-15 0 2.71051e-14 5.14362e-15 0 0 0 0)
(0 -2.5764e-14 0 2.71051e-14 1.4613e-14 0 0 0 0)
(-2.71051e-14 -2.42114e-14 0 5.42101e-14 3.3626e-14 0 0 0 0)
(-5.42101e-14 5.65027e-15 0 2.71051e-14 3.29469e-14 0 0 0 0)
(-5.42101e-14 2.47176e-14 0 0 4.56883e-15 0 0 0 0)
(5.42101e-14 2.16337e-14 0 -8.13152e-14 -1.94675e-14 0 0 0 0)
(2.71051e-14 8.81938e-15 0 0 -7.499e-15 0 0 0 0)
(-2.71051e-14 -1.47341e-14 0 -2.71051e-14 4.3306e-16 0 0 0 0)
(1.5992e-12 -2.09042e-12 0 -2.71051e-13 -1.70244e-11 0 0 0 0)
(-2.03288e-12 2.43355e-12 0 3.52366e-13 3.62182e-12 0 0 0 0)
(5.42101e-13 -4.84607e-13 0 2.43945e-13 -8.75254e-13 0 0 0 0)
(-5.42101e-14 1.33813e-13 0 1.35525e-13 1.76519e-13 0 0 0 0)
(0 -1.83588e-14 0 1.0842e-13 -2.58772e-14 0 0 0 0)
(0 -1.39609e-14 0 8.13152e-14 4.17563e-14 0 0 0 0)
(-2.71051e-14 -6.04852e-15 0 1.0842e-13 3.33907e-14 0 0 0 0)
(-8.13152e-14 2.39989e-14 0 2.71051e-14 2.40869e-14 0 0 0 0)
(-2.71051e-14 1.36575e-14 0 2.71051e-14 5.666e-15 0 0 0 0)
(0 -5.16884e-15 0 5.42101e-14 -7.46647e-15 0 0 0 0)
(0 -6.45104e-15 0 2.71051e-14 -8.00887e-15 0 0 0 0)
(0 -8.7665e-16 0 2.71051e-14 -1.7761e-14 0 0 0 0)
(8.13152e-14 5.20042e-15 0 0 -2.80156e-14 0 0 0 0)
(2.71051e-14 1.21108e-14 0 -2.71051e-14 -1.4321e-14 0 0 0 0)
(0 1.5025e-14 0 -5.42101e-14 2.37157e-14 0 0 0 0)
(-2.71051e-14 -2.54535e-15 0 2.71051e-14 3.44929e-14 0 0 0 0)
(-5.42101e-14 -1.96331e-14 0 2.71051e-14 1.80564e-14 0 0 0 0)
(0 -9.22733e-15 0 8.13152e-14 -4.47502e-15 0 0 0 0)
(5.42101e-14 1.14331e-14 0 2.71051e-14 -1.50312e-14 0 0 0 0)
(0 8.51351e-15 0 2.71051e-14 -1.21573e-14 0 0 0 0)
(-2.98156e-13 -6.47816e-12 0 -1.46367e-12 1.07969e-11 0 0 0 0)
(7.04731e-13 7.78657e-12 0 2.1684e-13 -2.22828e-12 0 0 0 0)
(-2.1684e-13 -1.66059e-12 0 -1.89735e-13 5.76732e-13 0 0 0 0)
(-2.71051e-14 4.11839e-13 0 -8.13152e-14 -8.30794e-14 0 0 0 0)
(-2.71051e-14 -6.6e-14 0 -1.0842e-13 3.108e-14 0 0 0 0)
(0 2.88187e-14 0 -8.13152e-14 1.27953e-15 0 0 0 0)
(0 -1.69505e-15 0 -1.0842e-13 1.62222e-14 0 0 0 0)
(0 -4.52184e-15 0 -5.42101e-14 9.0231e-15 0 0 0 0)
(0 -1.28533e-14 0 -5.42101e-14 -3.25496e-15 0 0 0 0)
(0 -1.41177e-14 0 -5.42101e-14 8.21897e-15 0 0 0 0)
(0 -1.4286e-14 0 -5.42101e-14 1.60316e-14 0 0 0 0)
(-2.71051e-14 -1.44896e-14 0 -2.71051e-14 2.8956e-14 0 0 0 0)
(-5.42101e-14 1.02877e-15 0 -2.71051e-14 3.13979e-14 0 0 0 0)
(-5.42101e-14 2.59673e-14 0 -2.71051e-14 2.27268e-14 0 0 0 0)
(5.42101e-14 2.46025e-14 0 0 -6.68023e-15 0 0 0 0)
(0 -9.07099e-18 0 -5.42101e-14 -1.69007e-14 0 0 0 0)
(0 -1.42503e-14 0 -2.71051e-14 -4.12581e-15 0 0 0 0)
(-2.71051e-14 -1.14538e-14 0 0 1.69827e-14 0 0 0 0)
(0 1.13709e-15 0 -2.71051e-14 1.65553e-14 0 0 0 0)
(-2.71051e-14 1.24543e-14 0 -2.71051e-14 4.4125e-15 0 0 0 0)
)
;

boundaryField
{
    movingWall
    {
        type            extrapolatedCalculated;
        value           nonuniform List<tensor> 
20
(
(-2.98156e-13 -6.47816e-12 0 2.4869e-12 3.28669e-11 0 0 0 0)
(7.04731e-13 7.78657e-12 0 -1.24345e-12 -6.95426e-12 0 0 0 0)
(-2.1684e-13 -1.66059e-12 0 -3.9968e-13 1.72059e-12 0 0 0 0)
(-2.71051e-14 4.11839e-13 0 -2.66454e-13 -3.11904e-13 0 0 0 0)
(-2.71051e-14 -6.6e-14 0 -3.10862e-13 7.32322e-14 0 0 0 0)
(0 2.88187e-14 0 -2.66454e-13 -4.79041e-14 0 0 0 0)
(0 -1.69505e-15 0 -2.66454e-13 -4.20428e-14 0 0 0 0)
(0 -4.52184e-15 0 -2.22045e-13 -4.11239e-14 0 0 0 0)
(0 -1.28533e-14 0 -2.66454e-13 -2.39554e-14 0 0 0 0)
(0 -1.41177e-14 0 -3.10862e-13 1.02894e-14 0 0 0 0)
(0 -1.4286e-14 0 -2.22045e-13 3.25155e-14 0 0 0 0)
(-2.71051e-14 -1.44896e-14 0 -2.66454e-13 6.74333e-14 0 0 0 0)
(-5.42101e-14 1.02877e-15 0 -1.33227e-13 9.04739e-14 0 0 0 0)
(-5.42101e-14 2.59673e-14 0 -4.44089e-14 6.33182e-14 0 0 0 0)
(5.42101e-14 2.46025e-14 0 0 -1.33952e-14 0 0 0 0)
(0 -9.07099e-18 0 -1.33227e-13 -3.50917e-14 0 0 0 0)
(0 -1.42503e-14 0 -8.88178e-14 -1.3359e-14 0 0 0 0)
(-2.71051e-14 -1.14538e-14 0 -8.88178e-14 2.19094e-14 0 0 0 0)
(0 1.13709e-15 0 -4.44089e-14 3.24563e-14 0 0 0 0)
(-2.71051e-14 1.24543e-14 0 -4.44089e-14 1.7361e-14 0 0 0 0)
)
;
    }
    fixedWalls
    {
        type            extrapolatedCalculated;
        value           nonuniform List<tensor> 
60
(
(-6.4837e-12 5.85386e-11 0 8.40257e-13 1.70073e-11 0 0 0 0)
(9.85878e-12 9.49081e-12 0 1.81604e-12 -2.94357e-11 0 0 0 0)
(8.43769e-13 -5.92044e-11 0 -4.93312e-12 7.96485e-12 0 0 0 0)
(-9.9476e-12 4.13502e-11 0 1.65341e-12 1.4e-11 0 0 0 0)
(7.4607e-12 -3.20444e-12 0 2.6563e-12 -1.80327e-11 0 0 0 0)
(6.21725e-13 -3.07808e-11 0 -2.03288e-12 9.69916e-12 0 0 0 0)
(-6.21725e-13 3.55922e-11 0 -3.52366e-13 5.50143e-12 0 0 0 0)
(-7.99361e-13 -8.77507e-12 0 5.42101e-13 -1.43429e-11 0 0 0 0)
(1.59872e-12 -2.17793e-11 0 5.69206e-13 8.83848e-12 0 0 0 0)
(1.42109e-12 2.65788e-11 0 -1.46367e-12 -5.05714e-13 0 0 0 0)
(-4.26326e-12 -2.38021e-11 0 4.06576e-13 -2.06108e-12 0 0 0 0)
(3.06422e-12 1.83345e-11 0 -4.06576e-13 5.2529e-12 0 0 0 0)
(-5.86198e-12 -2.79053e-12 0 4.06576e-13 -1.08509e-11 0 0 0 0)
(4.61853e-12 -2.50693e-11 0 2.71051e-14 1.13637e-11 0 0 0 0)
(-5.59552e-12 4.26642e-11 0 8.67362e-13 -7.04647e-13 0 0 0 0)
(8.03801e-12 -2.78878e-11 0 -6.50521e-13 -1.31271e-11 0 0 0 0)
(-8.26006e-12 -9.84418e-12 0 -2.38524e-12 1.57797e-11 0 0 0 0)
(-1.5099e-12 3.52308e-11 0 4.17418e-12 -1.19087e-13 0 0 0 0)
(8.39329e-12 -1.03205e-11 0 -2.71051e-13 -1.70244e-11 0 0 0 0)
(-2.4869e-12 -3.28669e-11 0 -1.46367e-12 1.07969e-11 0 0 0 0)
(0 -2.62448e-15 0 0 -5.70714e-15 0 0 0 0)
(8.88178e-14 2.5453e-14 0 0 -1.61063e-14 0 0 0 0)
(0 6.18006e-14 0 2.71051e-14 -3.03344e-15 0 0 0 0)
(-8.88178e-14 3.75868e-14 0 0 9.41183e-15 0 0 0 0)
(0 2.41533e-14 0 -2.71051e-14 1.15808e-15 0 0 0 0)
(0 3.29545e-14 0 0 6.20756e-15 0 0 0 0)
(-4.44089e-14 -6.76965e-16 0 2.71051e-14 9.59233e-15 0 0 0 0)
(0 -5.41483e-15 0 -2.71051e-14 -3.07074e-15 0 0 0 0)
(-4.44089e-14 1.1606e-14 0 2.71051e-14 -5.74199e-15 0 0 0 0)
(0 1.75531e-14 0 -2.71051e-14 -8.00605e-15 0 0 0 0)
(-4.44089e-14 4.36302e-14 0 2.71051e-14 -3.21717e-15 0 0 0 0)
(-4.44089e-14 3.04218e-14 0 -2.71051e-14 1.26693e-15 0 0 0 0)
(8.88178e-14 3.85625e-14 0 0 -8.45321e-15 0 0 0 0)
(-4.44089e-14 6.42346e-14 0 2.71051e-14 6.53817e-15 0 0 0 0)
(0 1.24098e-14 0 -2.71051e-14 1.5504e-14 0 0 0 0)
(0 2.2186e-15 0 2.71051e-14 2.59714e-15 0 0 0 0)
(-4.44089e-14 2.02123e-15 0 0 8.37171e-15 0 0 0 0)
(-4.44089e-14 -3.12682e-14 0 -2.71051e-14 4.3306e-16 0 0 0 0)
(0 2.88994e-16 0 2.71051e-14 -1.21573e-14 0 0 0 0)
(-4.44089e-14 1.7361e-14 0 -2.71051e-14 4.4125e-15 0 0 0 0)
(-1.11131e-12 1.15478e-11 0 -6.4837e-12 5.85386e-11 0 0 0 0)
(1.65341e-12 -1.38942e-11 0 2.13163e-12 -1.23475e-11 0 0 0 0)
(-4.60786e-13 2.93958e-12 0 8.88178e-14 2.96191e-12 0 0 0 0)
(2.71051e-14 -7.03942e-13 0 2.22045e-13 -5.89183e-13 0 0 0 0)
(2.71051e-14 1.42809e-13 0 2.22045e-13 1.46147e-13 0 0 0 0)
(0 -3.14083e-14 0 3.10862e-13 -1.79478e-14 0 0 0 0)
(-5.42101e-14 1.02957e-14 0 2.22045e-13 2.05144e-14 0 0 0 0)
(0 -1.82588e-15 0 1.77636e-13 2.32349e-14 0 0 0 0)
(-2.71051e-14 -3.74117e-15 0 1.33227e-13 1.32108e-14 0 0 0 0)
(0 -4.37065e-15 0 8.88178e-14 8.2702e-15 0 0 0 0)
(0 -5.65375e-15 0 1.33227e-13 -4.27179e-15 0 0 0 0)
(-2.71051e-14 2.55747e-15 0 0 -1.43448e-14 0 0 0 0)
(0 1.29194e-14 0 8.88178e-14 5.9581e-15 0 0 0 0)
(-2.71051e-14 2.45109e-15 0 4.44089e-14 3.73327e-14 0 0 0 0)
(-5.42101e-14 -1.69582e-14 0 -8.88178e-14 1.57625e-14 0 0 0 0)
(5.42101e-14 -9.71966e-15 0 0 -3.04999e-14 0 0 0 0)
(2.71051e-14 1.31151e-14 0 4.44089e-14 -2.31162e-14 0 0 0 0)
(-2.71051e-14 7.60496e-15 0 0 2.19603e-14 0 0 0 0)
(0 -4.83395e-15 0 0 7.30364e-15 0 0 0 0)
(0 -2.48203e-15 0 0 2.62448e-15 0 0 0 0)
)
;
    }
    frontAndBack
    {
        type            empty;
    }
}


// ************************************************************************* //
