/*--------------------------------*- C++ -*----------------------------------*\
| =========                 |                                                 |
| \\      /  F ield         | OpenFOAM: The Open Source CFD Toolbox           |
|  \\    /   O peration     | Version:  2312                                  |
|   \\  /    A nd           | Website:  www.openfoam.com                      |
|    \\/     M anipulation  |                                                 |
\*---------------------------------------------------------------------------*/
FoamFile
{
    version     2.0;
    format      ascii;
    arch        "LSB;label=32;scalar=64";
    class       volVectorField;
    location    "6";
    object      gradPhi;
}
// * * * * * * * * * * * * * * * * * * * * * * * * * * * * * * * * * * * * * //

dimensions      [0 2 -1 0 0 0 0];

internalField   nonuniform List<vector> 
400
(
(-0.02 1.00479e-16 0)
(1.42275e-16 -1.42597e-16 0)
(-4.30134e-17 4.36695e-17 0)
(6.61744e-18 -6.80549e-18 0)
(0 5.88793e-19 0)
(0 -2.14644e-20 0)
(-1.65436e-18 1.29236e-18 0)
(-1.65436e-18 9.77869e-19 0)
(0 4.01689e-19 0)
(-1.65436e-18 5.98725e-19 0)
(0 4.51073e-19 0)
(0 4.64488e-20 0)
(-1.65436e-18 6.75505e-19 0)
(0 1.85503e-18 0)
(-1.65436e-18 1.40847e-18 0)
(0 -4.88886e-19 0)
(1.65436e-18 -1.18186e-18 0)
(0 3.20074e-19 0)
(0 -2.93425e-19 0)
(0 3.42362e-19 0)
(-0.02 -1.75206e-16 0)
(-2.36574e-16 2.37427e-16 0)
(7.44463e-17 -7.41518e-17 0)
(-9.92617e-18 9.36631e-18 0)
(3.30872e-18 -3.16506e-18 0)
(0 -3.33914e-19 0)
(0 -2.45303e-20 0)
(-1.65436e-18 4.48231e-19 0)
(1.65436e-18 -3.40983e-19 0)
(0 -5.33552e-19 0)
(-1.65436e-18 -2.0076e-19 0)
(0 8.9022e-19 0)
(0 1.28964e-18 0)
(-1.65436e-18 6.99422e-19 0)
(-1.65436e-18 1.28281e-18 0)
(-1.65436e-18 2.318e-18 0)
(0 1.42087e-18 0)
(0 -2.26e-19 0)
(0 -1.36351e-18 0)
(1.65436e-18 -1.72636e-18 0)
(-0.02 1.6656e-17 0)
(3.30872e-17 -3.38447e-17 0)
(-1.8198e-17 1.735e-17 0)
(0 4.2759e-19 0)
(0 1.44122e-18 0)
(0 -4.72214e-20 0)
(0 -6.32013e-19 0)
(0 -4.57322e-19 0)
(0 9.59456e-19 0)
(0 -4.02007e-19 0)
(-1.65436e-18 -2.04335e-19 0)
(0 3.39734e-19 0)
(0 2.32098e-20 0)
(0 -4.41757e-19 0)
(1.65436e-18 -1.47445e-18 0)
(0 -1.21092e-18 0)
(0 -5.48498e-19 0)
(1.65436e-18 -2.09228e-18 0)
(0 -3.40765e-19 0)
(0 -6.74869e-19 0)
(-0.02 1.11841e-16 0)
(1.47238e-16 -1.47222e-16 0)
(-3.80503e-17 3.78195e-17 0)
(6.61744e-18 -6.38983e-18 0)
(-3.30872e-18 2.69368e-18 0)
(0 1.1787e-19 0)
(0 -2.78104e-19 0)
(1.65436e-18 -4.61413e-19 0)
(0 -9.55391e-19 0)
(1.65436e-18 -3.45194e-19 0)
(0 -4.73508e-19 0)
(0 2.34407e-19 0)
(-1.65436e-18 2.59899e-19 0)
(1.65436e-18 -1.08333e-18 0)
(0 -7.91262e-19 0)
(0 -4.15246e-19 0)
(-1.65436e-18 1.33559e-19 0)
(0 8.72871e-19 0)
(-1.65436e-18 1.01273e-18 0)
(-1.65436e-18 2.17715e-18 0)
(-0.02 -1.00081e-16 0)
(-1.43929e-16 1.43894e-16 0)
(4.79765e-17 -4.72054e-17 0)
(-6.61744e-18 4.71167e-18 0)
(3.30872e-18 -2.36854e-18 0)
(0 3.49704e-19 0)
(0 -5.68639e-19 0)
(-1.65436e-18 2.92125e-19 0)
(-1.65436e-18 2.22016e-18 0)
(-1.65436e-18 2.92789e-18 0)
(-3.30872e-18 1.33293e-18 0)
(3.30872e-18 -1.60469e-18 0)
(1.65436e-18 -2.93476e-18 0)
(0 -3.80632e-19 0)
(1.65436e-18 -9.33638e-20 0)
(0 -4.48065e-19 0)
(0 -9.49213e-19 0)
(-1.65436e-18 1.04181e-18 0)
(-1.65436e-18 4.88461e-19 0)
(1.65436e-18 -1.29654e-18 0)
(-0.02 3.40118e-17 0)
(6.12114e-17 -6.05615e-17 0)
(-2.48154e-17 2.55625e-17 0)
(-1.65436e-18 6.40509e-19 0)
(-3.30872e-18 2.62176e-18 0)
(-1.65436e-18 1.92267e-18 0)
(0 3.6865e-19 0)
(1.65436e-18 -2.28802e-18 0)
(3.30872e-18 -3.59003e-18 0)
(1.65436e-18 -1.79823e-18 0)
(1.65436e-18 -1.25935e-18 0)
(1.65436e-18 -8.86568e-19 0)
(-1.65436e-18 9.74915e-19 0)
(0 8.0944e-19 0)
(-1.65436e-18 1.47595e-18 0)
(-1.65436e-18 9.46203e-19 0)
(-1.65436e-18 1.38933e-18 0)
(1.65436e-18 -6.13988e-19 0)
(0 -7.41984e-20 0)
(0 6.34573e-19 0)
(-0.02 2.12554e-17 0)
(3.80503e-17 -3.75892e-17 0)
(-1.48893e-17 1.5002e-17 0)
(1.65436e-18 -1.78562e-18 0)
(-1.65436e-18 1.06819e-18 0)
(1.65436e-18 8.25825e-20 0)
(-1.65436e-18 1.11029e-19 0)
(0 1.12099e-18 0)
(0 7.92703e-19 0)
(-1.65436e-18 1.31748e-18 0)
(-3.30872e-18 2.4808e-18 0)
(0 5.71189e-19 0)
(1.65436e-18 -1.39438e-18 0)
(1.65436e-18 -1.89579e-18 0)
(1.65436e-18 -2.28722e-18 0)
(0 -8.11071e-19 0)
(0 7.30781e-20 0)
(0 1.84295e-18 0)
(0 6.42649e-19 0)
(-1.65436e-18 1.08957e-18 0)
(-0.02 -4.75899e-17 0)
(-8.10637e-17 8.18209e-17 0)
(3.47416e-17 -3.46708e-17 0)
(-4.96308e-18 3.39322e-18 0)
(0 3.38244e-19 0)
(0 -2.50908e-19 0)
(0 1.19774e-18 0)
(0 3.59347e-19 0)
(-1.65436e-18 1.4643e-18 0)
(1.65436e-18 -1.79672e-18 0)
(0 -8.79799e-19 0)
(-1.65436e-18 1.57976e-18 0)
(0 1.67447e-19 0)
(1.65436e-18 -1.60379e-18 0)
(0 -8.53049e-19 0)
(0 -7.84e-19 0)
(1.65436e-18 -5.43846e-19 0)
(1.65436e-18 -1.04668e-18 0)
(-1.65436e-18 2.63257e-19 0)
(1.65436e-18 -8.18211e-19 0)
(-0.02 2.63233e-17 0)
(3.63959e-17 -3.65246e-17 0)
(-2.15067e-17 2.04299e-17 0)
(3.30872e-18 -2.50112e-18 0)
(3.30872e-18 -3.77102e-18 0)
(0 -1.35906e-18 0)
(1.65436e-18 -1.00148e-18 0)
(-1.65436e-18 1.03207e-18 0)
(1.65436e-18 -7.04653e-19 0)
(0 -2.00784e-19 0)
(1.65436e-18 -1.78036e-18 0)
(1.65436e-18 -8.56869e-19 0)
(0 3.64808e-20 0)
(0 -3.13823e-20 0)
(-1.65436e-18 -4.74179e-20 0)
(0 4.14134e-19 0)
(-1.65436e-18 4.85673e-19 0)
(1.65436e-18 -1.03533e-18 0)
(0 -8.47017e-19 0)
(0 1.43899e-19 0)
(-0.02 -7.28504e-18 0)
(-3.30872e-18 2.82169e-18 0)
(1.65436e-18 -1.61683e-18 0)
(-3.30872e-18 2.09026e-18 0)
(-1.65436e-18 2.15081e-18 0)
(0 3.52446e-19 0)
(0 -5.20462e-19 0)
(0 -5.55081e-19 0)
(0 -1.30548e-20 0)
(0 5.77347e-19 0)
(0 5.21799e-19 0)
(0 -7.93678e-19 0)
(0 3.80795e-19 0)
(0 4.19681e-19 0)
(0 -1.6895e-20 0)
(0 5.85892e-19 0)
(-1.65436e-18 -3.41577e-20 0)
(0 -2.1459e-19 0)
(0 7.41343e-20 0)
(0 -6.19348e-19 0)
(-0.02 1.62141e-17 0)
(1.8198e-17 -1.76712e-17 0)
(4.96308e-18 -4.12208e-18 0)
(3.30872e-18 -3.06005e-18 0)
(0 -3.16066e-19 0)
(0 5.95505e-20 0)
(0 8.77505e-19 0)
(-1.65436e-18 1.44176e-18 0)
(-1.65436e-18 1.48005e-18 0)
(0 7.69832e-19 0)
(0 2.09676e-19 0)
(-1.65436e-18 7.83993e-20 0)
(0 8.08655e-19 0)
(-3.30872e-18 2.42114e-18 0)
(-1.65436e-18 1.63999e-18 0)
(0 3.05936e-19 0)
(1.65436e-18 -7.92743e-19 0)
(-1.65436e-18 1.04407e-18 0)
(1.65436e-18 -1.07221e-18 0)
(0 -9.34313e-19 0)
(-0.02 -6.47745e-18 0)
(-8.27181e-18 9.01327e-18 0)
(-9.92617e-18 1.02331e-17 0)
(0 -8.25766e-19 0)
(1.65436e-18 -2.37422e-18 0)
(1.65436e-18 -8.90131e-19 0)
(-1.65436e-18 7.81507e-19 0)
(0 -6.87008e-19 0)
(1.65436e-18 -1.89092e-18 0)
(4.96308e-18 -2.98445e-18 0)
(1.65436e-18 -2.70762e-18 0)
(1.65436e-18 -2.08965e-18 0)
(3.30872e-18 -2.32062e-18 0)
(0 -4.02053e-19 0)
(0 7.84425e-19 0)
(1.65436e-18 -5.27987e-19 0)
(-1.65436e-18 2.36857e-19 0)
(0 2.1038e-19 0)
(-1.65436e-18 1.24414e-18 0)
(-1.65436e-18 2.0575e-18 0)
(-0.02 2.78858e-18 0)
(-2.48154e-17 2.48067e-17 0)
(2.31611e-17 -2.24476e-17 0)
(-1.65436e-18 2.56877e-18 0)
(-1.65436e-18 1.48027e-18 0)
(1.65436e-18 -7.42736e-19 0)
(1.65436e-18 -3.26977e-18 0)
(4.96308e-18 -4.16773e-18 0)
(1.65436e-18 -2.51214e-18 0)
(0 3.76407e-19 0)
(-1.65436e-18 2.25874e-18 0)
(-1.65436e-18 2.52455e-18 0)
(-1.65436e-18 1.82915e-18 0)
(0 3.21178e-19 0)
(0 2.93166e-19 0)
(0 -3.39867e-19 0)
(-1.65436e-18 -1.16432e-19 0)
(1.65436e-18 -7.36379e-19 0)
(1.65436e-18 -8.40409e-19 0)
(1.65436e-18 -2.58447e-18 0)
(-0.02 4.19511e-18 0)
(3.63959e-17 -3.47978e-17 0)
(-2.48154e-17 2.47664e-17 0)
(0 -3.12841e-19 0)
(0 6.2635e-19 0)
(-1.65436e-18 1.73061e-18 0)
(-1.65436e-18 9.36712e-19 0)
(-1.65436e-18 8.43355e-19 0)
(0 2.19702e-19 0)
(-1.65436e-18 1.37576e-18 0)
(0 8.62846e-19 0)
(-1.65436e-18 9.80807e-19 0)
(-1.65436e-18 1.55241e-18 0)
(3.30872e-18 -1.44449e-18 0)
(1.65436e-18 -2.27382e-18 0)
(0 4.99145e-19 0)
(0 -2.09866e-19 0)
(0 3.16962e-19 0)
(0 3.54607e-19 0)
(-1.65436e-18 9.82056e-19 0)
(-0.02 4.02227e-17 0)
(3.30872e-17 -3.249e-17 0)
(0 -4.70183e-19 0)
(3.30872e-18 -3.8429e-18 0)
(0 -9.22673e-20 0)
(1.65436e-18 -6.91595e-19 0)
(-1.65436e-18 9.77996e-19 0)
(0 8.6742e-19 0)
(-1.65436e-18 9.75058e-19 0)
(1.65436e-18 -1.24837e-18 0)
(1.65436e-18 -1.57472e-18 0)
(1.65436e-18 -1.79653e-18 0)
(1.65436e-18 -1.2123e-18 0)
(-1.65436e-18 1.76803e-18 0)
(0 8.19599e-20 0)
(0 -1.50626e-18 0)
(1.65436e-18 -6.00764e-19 0)
(1.65436e-18 -1.08226e-18 0)
(-1.65436e-18 9.97884e-19 0)
(-1.65436e-18 2.008e-18 0)
(-0.02 -1.05429e-16 0)
(-1.32349e-16 1.32402e-16 0)
(3.14329e-17 -3.18057e-17 0)
(-6.61744e-18 7.45484e-18 0)
(1.65436e-18 -1.23471e-18 0)
(-3.30872e-18 1.36398e-18 0)
(0 7.57358e-19 0)
(-1.65436e-18 1.17623e-18 0)
(0 5.84991e-19 0)
(1.65436e-18 -1.96976e-18 0)
(1.65436e-18 -1.53474e-18 0)
(-1.65436e-18 3.59232e-19 0)
(0 -1.62214e-19 0)
(3.30872e-18 -2.36131e-18 0)
(3.30872e-18 -1.92906e-18 0)
(0 -1.01842e-19 0)
(-1.65436e-18 1.84658e-18 0)
(-3.30872e-18 2.62234e-18 0)
(1.65436e-18 -8.14685e-19 0)
(1.65436e-18 -1.76434e-18 0)
(-0.02 1.13734e-16 0)
(1.42275e-16 -1.43696e-16 0)
(-3.80503e-17 3.87442e-17 0)
(6.61744e-18 -6.32077e-18 0)
(-1.65436e-18 1.05482e-18 0)
(3.30872e-18 -3.12979e-18 0)
(1.65436e-18 -1.49157e-18 0)
(0 4.55878e-19 0)
(0 9.89881e-19 0)
(-3.30872e-18 3.42449e-18 0)
(-3.30872e-18 2.1289e-18 0)
(0 5.03426e-19 0)
(1.65436e-18 -6.03812e-19 0)
(0 5.40891e-19 0)
(0 7.72842e-19 0)
(1.65436e-18 -1.80416e-18 0)
(3.30872e-18 -2.37486e-18 0)
(0 -8.89614e-19 0)
(0 1.25763e-18 0)
(-1.65436e-18 1.78559e-18 0)
(-0.02 1.43439e-17 0)
(4.96308e-18 -5.14656e-18 0)
(1.65436e-18 -1.91842e-18 0)
(3.30872e-18 -3.23749e-18 0)
(1.65436e-18 -1.15474e-18 0)
(0 -1.71548e-19 0)
(1.65436e-18 -2.3763e-18 0)
(3.30872e-18 -3.25437e-18 0)
(0 -6.12843e-19 0)
(0 -1.76039e-19 0)
(1.65436e-18 -1.67575e-20 0)
(1.65436e-18 -8.86105e-19 0)
(-1.65436e-18 9.24334e-19 0)
(0 4.92735e-19 0)
(-1.65436e-18 1.03655e-18 0)
(-3.30872e-18 3.07424e-18 0)
(0 1.08675e-18 0)
(0 -1.42663e-18 0)
(0 -8.50931e-19 0)
(0 8.81732e-20 0)
(-0.02 -1.19112e-16 0)
(-1.53856e-16 1.53064e-16 0)
(4.46678e-17 -4.43517e-17 0)
(-8.27181e-18 7.27469e-18 0)
(1.65436e-18 -9.59685e-19 0)
(-1.65436e-18 1.29735e-18 0)
(-1.65436e-18 2.32788e-18 0)
(-3.30872e-18 3.31637e-18 0)
(0 1.33603e-18 0)
(-1.65436e-18 2.09265e-21 0)
(0 -1.93527e-19 0)
(0 -6.04934e-19 0)
(4.96308e-18 -2.59087e-18 0)
(1.65436e-18 -1.58779e-18 0)
(-1.65436e-18 1.18792e-18 0)
(-1.65436e-18 1.25273e-18 0)
(0 1.41447e-18 0)
(-1.65436e-18 4.48208e-19 0)
(1.65436e-18 -8.33351e-19 0)
(1.65436e-18 -1.89577e-18 0)
(-0.02 5.91151e-17 0)
(9.26442e-17 -9.31084e-17 0)
(-2.81241e-17 2.91835e-17 0)
(3.30872e-18 -2.84596e-18 0)
(-1.65436e-18 1.37217e-18 0)
(0 3.61608e-19 0)
(0 5.34129e-19 0)
(0 -4.607e-19 0)
(1.65436e-18 -8.04011e-19 0)
(-1.65436e-18 8.50989e-20 0)
(0 5.78724e-19 0)
(-1.65436e-18 1.41085e-18 0)
(-3.30872e-18 2.29651e-18 0)
(-1.65436e-18 1.90477e-18 0)
(1.65436e-18 -1.97544e-19 0)
(0 -9.57972e-19 0)
(0 -7.34918e-19 0)
(0 6.44076e-19 0)
(-1.65436e-18 9.95017e-19 0)
(0 1.00534e-18 0)
)
;

boundaryField
{
    movingWall
    {
        type            extrapolatedCalculated;
        value           nonuniform List<vector> 
20
(
(-0.02 5.91151e-17 0)
(9.26442e-17 -9.31084e-17 0)
(-2.81241e-17 2.91835e-17 0)
(3.30872e-18 -2.84596e-18 0)
(-1.65436e-18 1.37217e-18 0)
(0 3.61608e-19 0)
(0 5.34129e-19 0)
(0 -4.607e-19 0)
(1.65436e-18 -8.04011e-19 0)
(-1.65436e-18 8.50989e-20 0)
(0 5.78724e-19 0)
(-1.65436e-18 1.41085e-18 0)
(-3.30872e-18 2.29651e-18 0)
(-1.65436e-18 1.90477e-18 0)
(1.65436e-18 -1.97544e-19 0)
(0 -9.57972e-19 0)
(0 -7.34918e-19 0)
(0 6.44076e-19 0)
(-1.65436e-18 9.95017e-19 0)
(0 1.00534e-18 0)
)
;
    }
    fixedWalls
    {
        type            extrapolatedCalculated;
        value           nonuniform List<vector> 
60
(
(-0.02 1.00479e-16 0)
(-0.02 -1.75206e-16 0)
(-0.02 1.6656e-17 0)
(-0.02 1.11841e-16 0)
(-0.02 -1.00081e-16 0)
(-0.02 3.40118e-17 0)
(-0.02 2.12554e-17 0)
(-0.02 -4.75899e-17 0)
(-0.02 2.63233e-17 0)
(-0.02 -7.28504e-18 0)
(-0.02 1.62141e-17 0)
(-0.02 -6.47745e-18 0)
(-0.02 2.78858e-18 0)
(-0.02 4.19511e-18 0)
(-0.02 4.02227e-17 0)
(-0.02 -1.05429e-16 0)
(-0.02 1.13734e-16 0)
(-0.02 1.43439e-17 0)
(-0.02 -1.19112e-16 0)
(-0.02 5.91151e-17 0)
(0 3.42362e-19 0)
(1.65436e-18 -1.72636e-18 0)
(0 -6.74869e-19 0)
(-1.65436e-18 2.17715e-18 0)
(1.65436e-18 -1.29654e-18 0)
(0 6.34573e-19 0)
(-1.65436e-18 1.08957e-18 0)
(1.65436e-18 -8.18211e-19 0)
(0 1.43899e-19 0)
(0 -6.19348e-19 0)
(0 -9.34313e-19 0)
(-1.65436e-18 2.0575e-18 0)
(1.65436e-18 -2.58447e-18 0)
(-1.65436e-18 9.82056e-19 0)
(-1.65436e-18 2.008e-18 0)
(1.65436e-18 -1.76434e-18 0)
(-1.65436e-18 1.78559e-18 0)
(0 8.81732e-20 0)
(1.65436e-18 -1.89577e-18 0)
(0 1.00534e-18 0)
(-0.02 1.00479e-16 0)
(1.42275e-16 -1.42597e-16 0)
(-4.30134e-17 4.36695e-17 0)
(6.61744e-18 -6.80549e-18 0)
(0 5.88793e-19 0)
(0 -2.14644e-20 0)
(-1.65436e-18 1.29236e-18 0)
(-1.65436e-18 9.77869e-19 0)
(0 4.01689e-19 0)
(-1.65436e-18 5.98725e-19 0)
(0 4.51073e-19 0)
(0 4.64488e-20 0)
(-1.65436e-18 6.75505e-19 0)
(0 1.85503e-18 0)
(-1.65436e-18 1.40847e-18 0)
(0 -4.88886e-19 0)
(1.65436e-18 -1.18186e-18 0)
(0 3.20074e-19 0)
(0 -2.93425e-19 0)
(0 3.42362e-19 0)
)
;
    }
    frontAndBack
    {
        type            empty;
    }
}


// ************************************************************************* //
