/*--------------------------------*- C++ -*----------------------------------*\
| =========                 |                                                 |
| \\      /  F ield         | OpenFOAM: The Open Source CFD Toolbox           |
|  \\    /   O peration     | Version:  2312                                  |
|   \\  /    A nd           | Website:  www.openfoam.com                      |
|    \\/     M anipulation  |                                                 |
\*---------------------------------------------------------------------------*/
FoamFile
{
    version     2.0;
    format      ascii;
    arch        "LSB;label=32;scalar=64";
    class       volScalarField;
    location    "6";
    object      initialResidual:Uy;
}
// * * * * * * * * * * * * * * * * * * * * * * * * * * * * * * * * * * * * * //

dimensions      [0 0 0 0 0 0 0];

internalField   nonuniform List<scalar> 
400
(
2.41969e-20
-2.1577e-20
-5.59609e-21
-1.06563e-21
4.1086e-21
-6.74674e-22
-3.35551e-21
5.17919e-22
-2.42412e-22
4.31076e-22
9.54048e-22
-3.41949e-21
-1.77776e-21
2.19056e-21
-8.02128e-22
-4.28558e-21
-4.53571e-22
4.44332e-21
1.14964e-23
-1.49718e-21
-6.17916e-20
1.35288e-20
-9.81261e-21
-5.50399e-21
3.3136e-21
6.14639e-21
1.25036e-21
-3.06176e-21
-3.03792e-21
2.93103e-21
2.0389e-21
-3.98839e-21
-1.02105e-21
3.19498e-21
7.74027e-22
-4.46182e-21
-4.08016e-22
2.00317e-21
-1.42728e-21
-1.02749e-21
-3.29254e-20
4.2789e-21
-1.25886e-21
-5.31964e-21
1.19647e-21
1.15735e-20
1.02428e-20
-2.50549e-21
-6.63557e-21
-3.98439e-21
-1.17237e-21
7.9695e-22
1.49009e-21
-6.01231e-22
1.536e-21
3.28738e-21
3.17585e-22
-2.36629e-21
-6.08013e-22
1.76476e-21
2.35823e-20
-1.89508e-20
-8.3513e-22
4.36043e-21
-3.09154e-21
1.21047e-21
5.56301e-21
2.69377e-21
-3.29743e-21
-7.59208e-21
3.71488e-22
6.12726e-21
1.46147e-21
-2.92951e-21
3.16913e-22
2.92357e-21
-3.53874e-22
4.29262e-22
-2.46516e-21
8.59789e-22
-4.18478e-20
5.59784e-21
3.34472e-21
6.88188e-21
-2.78688e-21
-1.28241e-21
2.03644e-21
7.5267e-21
8.88436e-21
7.848e-22
-3.16423e-21
-4.4471e-21
-2.56254e-21
-1.08635e-21
-1.51872e-21
-2.73303e-21
8.26979e-22
3.6587e-21
-3.6536e-21
-2.49502e-21
-3.02087e-20
5.46052e-21
-2.85667e-22
8.2657e-22
4.10094e-21
-8.71832e-22
-6.1298e-21
-5.05949e-21
4.26669e-22
3.92254e-21
-5.16957e-21
-5.6671e-21
4.65205e-21
7.89729e-21
3.49767e-21
-6.51974e-21
-3.34986e-21
1.17021e-21
-2.02994e-21
-2.82176e-21
6.01973e-20
-2.65644e-20
4.0902e-21
-4.1893e-22
5.33005e-21
-5.12114e-21
-1.0579e-20
-1.25198e-20
-7.45687e-21
3.93626e-21
1.15537e-21
2.17478e-21
2.84284e-21
6.73186e-21
1.47015e-21
-3.58836e-21
-3.81741e-21
-5.62101e-21
-2.17363e-21
1.4243e-22
-3.41403e-20
1.25552e-20
-3.61582e-21
3.18783e-21
1.07708e-21
-3.15212e-21
-4.1645e-21
-4.33763e-22
-3.01938e-22
-1.14851e-21
3.38014e-21
-7.0319e-22
-6.16106e-21
-1.88494e-21
-1.30839e-21
6.26564e-21
4.40209e-21
-4.73689e-21
-2.45453e-21
-2.82309e-22
-4.78382e-20
2.21964e-20
-8.2023e-21
-2.26302e-21
-2.88008e-21
-8.12317e-22
-9.96245e-22
-1.36391e-21
-5.01225e-21
-4.07256e-21
3.92066e-21
4.26765e-21
6.90604e-22
-3.70772e-21
1.46035e-21
9.90286e-21
6.06885e-21
-5.06772e-23
-4.81193e-22
-2.33456e-21
4.64565e-20
-2.74564e-20
3.7155e-21
-2.1165e-21
-7.1522e-21
-6.91114e-21
-4.14978e-21
-3.57539e-21
-4.31872e-21
1.45963e-21
3.00012e-21
1.80044e-21
-4.38825e-22
-1.96407e-21
5.93595e-21
6.15522e-21
1.82754e-21
1.67137e-21
1.43252e-21
9.03668e-22
-1.63424e-20
-5.39732e-21
-1.01474e-20
-3.00701e-21
-6.69168e-21
-8.387e-21
-1.53193e-21
4.18915e-21
5.59788e-21
2.19108e-21
-1.25479e-21
-8.15887e-21
-6.02933e-21
-3.9113e-21
5.05418e-21
5.45944e-21
2.95671e-21
3.08473e-21
-8.69912e-22
1.65104e-21
1.65269e-20
-7.99274e-21
-9.39947e-21
-1.70311e-20
-7.92796e-21
-4.45152e-21
2.69003e-21
5.36662e-21
6.62543e-21
-6.76015e-21
-1.15843e-20
-1.00021e-20
1.6737e-22
5.69158e-21
2.26742e-21
2.49501e-21
4.2703e-21
8.19531e-21
1.30428e-21
-1.31124e-21
-2.68699e-20
9.09987e-21
-4.09681e-21
-9.39809e-21
-1.0118e-20
-7.70158e-21
-9.08512e-21
-8.28324e-21
-3.99286e-21
-1.36489e-21
2.79233e-21
4.14025e-21
4.02719e-21
1.1171e-20
6.43095e-21
1.20651e-21
3.7426e-21
3.74728e-21
1.36406e-21
1.56258e-21
-2.06069e-20
1.10537e-21
-4.03633e-21
3.61577e-21
-7.89749e-22
-6.05309e-21
-1.3553e-20
-1.19652e-20
-7.75489e-21
7.13618e-21
1.25216e-20
1.20239e-20
-1.38691e-22
-1.64386e-21
-5.23865e-22
8.84643e-22
7.05057e-21
-1.21114e-21
-4.66143e-21
1.10273e-21
1.32889e-20
-1.52517e-20
-3.13704e-21
-1.72722e-22
2.81936e-23
-4.93334e-21
-8.76548e-21
-9.84984e-21
-2.85912e-21
4.88234e-22
1.14529e-21
4.9403e-21
4.1185e-21
-6.26982e-21
-8.96497e-21
-3.96338e-21
-1.37365e-21
1.66471e-21
1.50584e-21
-5.53091e-22
-2.82916e-20
6.30673e-21
-1.00328e-21
-3.23081e-21
-3.76518e-21
-5.11594e-21
-4.57198e-21
-6.39196e-21
-7.67517e-21
-1.31415e-20
-7.37666e-21
8.17942e-22
3.2382e-21
-2.96455e-21
-6.35692e-21
-3.19293e-21
-4.25645e-21
-1.95444e-22
4.19655e-21
9.49822e-22
-3.15736e-21
7.02926e-21
2.62092e-21
-1.63888e-21
-8.7296e-21
-1.39099e-21
5.61274e-21
-7.1336e-22
-1.13581e-20
-1.44061e-20
-1.47592e-20
-6.23884e-21
4.54446e-22
3.30216e-22
-4.44143e-21
-3.52921e-21
-1.65974e-21
-6.55764e-22
3.07458e-22
1.26605e-21
2.4508e-20
-7.70606e-21
3.08628e-21
-9.4061e-21
-9.74819e-21
-3.24326e-21
1.56528e-21
2.54438e-21
2.6759e-21
-4.17164e-21
-1.05883e-20
-5.33308e-21
4.13906e-21
-3.08266e-21
-6.87935e-21
-4.6746e-21
-4.81003e-22
-4.52675e-21
-1.42004e-21
1.95724e-21
5.89201e-21
-2.84149e-21
-7.67599e-21
-1.08447e-20
-6.38403e-22
3.736e-21
1.84673e-21
7.41922e-21
2.68247e-21
-4.82574e-21
-4.07545e-21
-3.57012e-21
-6.01184e-21
-8.99063e-22
5.84168e-21
3.21738e-21
-1.26232e-21
-8.75142e-21
-6.90636e-21
1.6332e-21
-1.95527e-21
4.43572e-23
-8.02126e-21
-1.93294e-21
2.82322e-21
7.38906e-21
6.836e-21
4.36312e-21
-3.65218e-21
-3.41507e-21
-1.06437e-21
-4.56175e-21
-8.65359e-21
1.52493e-21
8.33931e-21
5.17701e-21
-3.41917e-21
-3.71809e-21
-3.87831e-21
8.144e-22
)
;

boundaryField
{
    movingWall
    {
        type            zeroGradient;
    }
    fixedWalls
    {
        type            zeroGradient;
    }
    frontAndBack
    {
        type            empty;
    }
}


// ************************************************************************* //
