/*--------------------------------*- C++ -*----------------------------------*\
| =========                 |                                                 |
| \\      /  F ield         | OpenFOAM: The Open Source CFD Toolbox           |
|  \\    /   O peration     | Version:  2312                                  |
|   \\  /    A nd           | Website:  www.openfoam.com                      |
|    \\/     M anipulation  |                                                 |
\*---------------------------------------------------------------------------*/
FoamFile
{
    version     2.0;
    format      ascii;
    arch        "LSB;label=32;scalar=64";
    class       volScalarField;
    location    "6";
    object      initialResidual:epsilon;
}
// * * * * * * * * * * * * * * * * * * * * * * * * * * * * * * * * * * * * * //

dimensions      [0 0 0 0 0 0 0];

internalField   nonuniform List<scalar> 
400
(
0
0
0
0
0
0
0
0
0
0
0
0
0
0
0
0
0
0
0
0
0
-7.78427e-13
-7.8228e-13
-7.82315e-13
-7.8241e-13
-7.83522e-13
-7.84778e-13
-7.85176e-13
-7.87e-13
-7.87002e-13
-7.89076e-13
-7.8902e-13
-7.9105e-13
-7.91173e-13
-7.93024e-13
-7.93403e-13
-7.95062e-13
-7.95732e-13
-1.59158e-12
0
0
-9.08674e-13
-9.14054e-13
-9.1402e-13
-9.1401e-13
-9.15435e-13
-9.16986e-13
-9.1744e-13
-9.19755e-13
-9.19664e-13
-9.22317e-13
-9.2213e-13
-9.24733e-13
-9.24764e-13
-9.27133e-13
-9.27496e-13
-9.29603e-13
-9.30355e-13
-1.86257e-12
0
0
-1.02623e-12
-1.03242e-12
-1.03241e-12
-1.03243e-12
-1.03408e-12
-1.03588e-12
-1.03642e-12
-1.0391e-12
-1.03902e-12
-1.04208e-12
-1.0419e-12
-1.0449e-12
-1.04497e-12
-1.0477e-12
-1.04815e-12
-1.05058e-12
-1.05147e-12
-2.10502e-12
0
0
-1.10873e-12
-1.11551e-12
-1.11551e-12
-1.11556e-12
-1.11738e-12
-1.11937e-12
-1.11996e-12
-1.12293e-12
-1.12284e-12
-1.12622e-12
-1.12603e-12
-1.12933e-12
-1.12942e-12
-1.13243e-12
-1.13293e-12
-1.13562e-12
-1.13661e-12
-2.27549e-12
0
0
-1.15959e-12
-1.16673e-12
-1.16674e-12
-1.16682e-12
-1.16873e-12
-1.17085e-12
-1.17149e-12
-1.17461e-12
-1.17455e-12
-1.1781e-12
-1.17792e-12
-1.18141e-12
-1.18151e-12
-1.1847e-12
-1.18524e-12
-1.18809e-12
-1.18914e-12
-2.3807e-12
0
0
-1.18932e-12
-1.19658e-12
-1.19664e-12
-1.19674e-12
-1.1987e-12
-1.20089e-12
-1.20156e-12
-1.20477e-12
-1.20472e-12
-1.20838e-12
-1.20821e-12
-1.2118e-12
-1.21193e-12
-1.21521e-12
-1.21578e-12
-1.21871e-12
-1.21981e-12
-2.44212e-12
0
0
-1.20693e-12
-1.21434e-12
-1.21439e-12
-1.2145e-12
-1.2165e-12
-1.21873e-12
-1.21941e-12
-1.2227e-12
-1.22263e-12
-1.22638e-12
-1.22619e-12
-1.22987e-12
-1.22998e-12
-1.23334e-12
-1.23391e-12
-1.23691e-12
-1.23802e-12
-2.47861e-12
0
0
-1.21841e-12
-1.22592e-12
-1.22596e-12
-1.22609e-12
-1.22811e-12
-1.23036e-12
-1.23107e-12
-1.23437e-12
-1.23433e-12
-1.2381e-12
-1.23793e-12
-1.24163e-12
-1.24176e-12
-1.24515e-12
-1.24573e-12
-1.24877e-12
-1.24989e-12
-2.50239e-12
0
0
-1.22715e-12
-1.23467e-12
-1.23473e-12
-1.23486e-12
-1.2369e-12
-1.23918e-12
-1.23988e-12
-1.24322e-12
-1.24317e-12
-1.24699e-12
-1.2468e-12
-1.25056e-12
-1.25067e-12
-1.25411e-12
-1.25469e-12
-1.25776e-12
-1.25889e-12
-2.5204e-12
0
0
-1.23484e-12
-1.24244e-12
-1.24248e-12
-1.24262e-12
-1.24467e-12
-1.24697e-12
-1.24768e-12
-1.25105e-12
-1.251e-12
-1.25484e-12
-1.25466e-12
-1.25843e-12
-1.25856e-12
-1.26201e-12
-1.26261e-12
-1.26569e-12
-1.26684e-12
-2.53632e-12
0
0
-1.24248e-12
-1.25013e-12
-1.25018e-12
-1.25032e-12
-1.25239e-12
-1.25471e-12
-1.25542e-12
-1.25881e-12
-1.25877e-12
-1.26264e-12
-1.26245e-12
-1.26626e-12
-1.26639e-12
-1.26987e-12
-1.27046e-12
-1.27358e-12
-1.27473e-12
-2.55213e-12
0
0
-1.25066e-12
-1.25832e-12
-1.2584e-12
-1.25854e-12
-1.26063e-12
-1.26295e-12
-1.26369e-12
-1.26709e-12
-1.26706e-12
-1.27094e-12
-1.27078e-12
-1.2746e-12
-1.27475e-12
-1.27823e-12
-1.27886e-12
-1.28198e-12
-1.28315e-12
-2.56898e-12
0
0
-1.25966e-12
-1.26748e-12
-1.26752e-12
-1.26766e-12
-1.26976e-12
-1.27211e-12
-1.27285e-12
-1.2763e-12
-1.27625e-12
-1.28019e-12
-1.28e-12
-1.28387e-12
-1.28401e-12
-1.28753e-12
-1.28816e-12
-1.29131e-12
-1.2925e-12
-2.58769e-12
0
0
-1.26989e-12
-1.27784e-12
-1.27786e-12
-1.27801e-12
-1.28012e-12
-1.2825e-12
-1.28325e-12
-1.28672e-12
-1.28669e-12
-1.29064e-12
-1.29048e-12
-1.29437e-12
-1.29453e-12
-1.29808e-12
-1.29871e-12
-1.30189e-12
-1.30309e-12
-2.6089e-12
0
0
-1.28169e-12
-1.28949e-12
-1.28959e-12
-1.28977e-12
-1.29191e-12
-1.29432e-12
-1.29508e-12
-1.29857e-12
-1.29856e-12
-1.30254e-12
-1.30239e-12
-1.30631e-12
-1.30648e-12
-1.31007e-12
-1.31071e-12
-1.31393e-12
-1.31513e-12
-2.63302e-12
0
0
-1.29452e-12
-1.30254e-12
-1.30259e-12
-1.30277e-12
-1.30493e-12
-1.30736e-12
-1.30812e-12
-1.31168e-12
-1.31165e-12
-1.3157e-12
-1.31553e-12
-1.31951e-12
-1.31967e-12
-1.32331e-12
-1.32396e-12
-1.32721e-12
-1.32844e-12
-2.65966e-12
0
0
-1.30778e-12
-1.31567e-12
-1.31577e-12
-1.31599e-12
-1.31817e-12
-1.32063e-12
-1.32142e-12
-1.32499e-12
-1.32498e-12
-1.32906e-12
-1.32892e-12
-1.33291e-12
-1.33312e-12
-1.33676e-12
-1.33745e-12
-1.34072e-12
-1.34198e-12
-2.68674e-12
0
0
-1.32188e-12
-1.33126e-12
-1.33108e-12
-1.33077e-12
-1.33312e-12
-1.33548e-12
-1.33617e-12
-1.33987e-12
-1.33961e-12
-1.34393e-12
-1.34348e-12
-1.34775e-12
-1.34767e-12
-1.35156e-12
-1.35205e-12
-1.3555e-12
-1.35668e-12
-2.71305e-12
0
0
0
0
0
0
0
0
0
0
0
0
0
0
0
0
0
0
0
0
0
)
;

boundaryField
{
    movingWall
    {
        type            zeroGradient;
    }
    fixedWalls
    {
        type            zeroGradient;
    }
    frontAndBack
    {
        type            empty;
    }
}


// ************************************************************************* //
