/*--------------------------------*- C++ -*----------------------------------*\
| =========                 |                                                 |
| \\      /  F ield         | OpenFOAM: The Open Source CFD Toolbox           |
|  \\    /   O peration     | Version:  2312                                  |
|   \\  /    A nd           | Website:  www.openfoam.com                      |
|    \\/     M anipulation  |                                                 |
\*---------------------------------------------------------------------------*/
FoamFile
{
    version     2.0;
    format      ascii;
    arch        "LSB;label=32;scalar=64";
    class       volScalarField;
    location    "6";
    object      initialResidual:p;
}
// * * * * * * * * * * * * * * * * * * * * * * * * * * * * * * * * * * * * * //

dimensions      [0 0 0 0 0 0 0];

internalField   nonuniform List<scalar> 
400
(
-1.15197e-19
5.65869e-20
6.93968e-21
-7.78785e-21
2.41304e-20
8.49754e-21
-2.10384e-21
-8.06663e-21
-7.06106e-21
1.05356e-21
-6.38038e-21
4.52055e-21
-8.0594e-21
9.93471e-22
-7.79014e-21
1.14142e-20
-7.31169e-22
-1.12333e-20
1.36986e-20
9.48649e-27
-2.03283e-20
9.36114e-21
2.02416e-20
6.15037e-21
2.52419e-21
-2.34708e-21
8.9843e-21
4.52784e-21
3.39251e-21
-6.53688e-22
-7.54531e-21
6.45658e-21
7.98861e-21
5.86903e-22
-6.14365e-21
-7.0742e-21
7.66705e-21
-1.54624e-21
-8.27118e-21
1.35525e-20
-2.90882e-25
9.63727e-21
-1.83793e-21
-4.01054e-22
1.17172e-21
4.87573e-21
3.33605e-21
-1.55675e-21
3.69412e-21
-2.37036e-21
1.51847e-21
1.55622e-21
2.03724e-22
-3.19833e-22
-2.66392e-20
8.73422e-21
1.38753e-20
6.69572e-21
2.02558e-20
-6.77626e-21
1.35525e-20
-1.49661e-20
-1.85216e-20
3.21613e-20
1.49587e-20
8.52051e-21
-1.01833e-20
-4.91447e-21
2.37242e-22
4.25822e-21
-8.34335e-21
7.76278e-21
-3.40996e-22
-1.04658e-21
1.10624e-21
-6.58541e-21
-7.91219e-21
6.6505e-21
4.77745e-21
-1.35525e-20
-6.7762e-21
1.52482e-21
2.77542e-21
-1.27416e-20
-1.80659e-21
6.49949e-21
-7.34081e-21
3.15042e-21
-3.18092e-21
7.09113e-21
1.12264e-20
3.90414e-21
3.23416e-22
1.47719e-20
-1.6316e-20
-2.39349e-20
1.40011e-20
7.77468e-21
5.56131e-21
-6.77626e-21
6.77603e-21
-2.62337e-21
-2.05975e-20
6.44755e-21
2.83111e-20
-1.88489e-20
7.57135e-21
7.42971e-21
-1.05064e-20
-5.12783e-21
-1.1244e-21
-6.20177e-21
5.23509e-21
-2.89139e-21
1.43898e-21
1.06684e-20
-1.72741e-20
1.13753e-20
-8.62564e-21
6.77629e-21
-6.77652e-21
-4.79826e-21
8.45945e-21
1.18794e-22
-7.79787e-21
2.48336e-21
4.39691e-22
3.10846e-21
3.37299e-20
-1.85865e-20
-2.56772e-20
2.15198e-20
4.32521e-21
7.34117e-21
-1.46722e-20
-7.93995e-21
5.51347e-21
-1.04916e-20
-1.47962e-21
6.77627e-21
-2.71047e-20
1.50017e-20
-4.82279e-21
-5.34937e-24
-2.0684e-21
4.62071e-21
4.99935e-21
5.57199e-21
1.30781e-20
4.97665e-21
-1.81918e-20
-6.89606e-21
1.84221e-22
7.05996e-21
-1.10997e-20
1.23539e-20
8.9222e-21
1.20449e-20
-1.19948e-21
6.77628e-21
-2.03291e-20
-2.52794e-21
5.71295e-21
9.48439e-21
1.66299e-20
-1.04679e-20
1.80596e-20
-8.74784e-21
-9.52258e-21
1.47065e-21
2.16229e-21
-4.98577e-21
-6.60121e-21
-1.26245e-20
1.78737e-20
5.43565e-21
-4.42929e-21
2.03415e-20
7.63214e-21
-4.89468e-27
6.7762e-21
8.66441e-21
-1.81907e-20
-1.71186e-21
-1.24615e-20
2.85449e-21
-1.4211e-21
-7.00392e-23
6.30064e-21
6.77493e-22
-6.62791e-21
5.4517e-21
-1.10646e-21
-6.2268e-21
-1.43618e-20
1.67645e-20
7.9395e-21
-1.19178e-20
-1.39451e-20
6.77627e-21
-2.03288e-20
6.98041e-21
4.32165e-21
-2.30208e-20
2.76711e-21
4.19174e-21
-5.03845e-21
3.75314e-21
9.25247e-21
-3.77259e-21
-1.21375e-20
-6.31184e-21
-4.15616e-22
1.46416e-21
-1.86612e-20
1.09385e-20
3.91357e-21
-1.03164e-20
1.387e-20
-1.41299e-26
-6.77633e-21
-3.22818e-21
1.32872e-20
9.85286e-21
-8.69694e-21
1.61915e-20
-1.2973e-21
-8.16253e-21
-1.37192e-20
1.70867e-20
-1.74796e-20
1.39741e-20
-3.88676e-21
-6.37101e-21
-1.60358e-20
8.8928e-21
1.69013e-20
3.73372e-21
-4.86552e-21
6.77627e-21
-1.35524e-20
-7.67889e-21
2.38238e-21
2.31499e-20
8.40744e-21
5.6987e-21
-9.8771e-21
8.82574e-22
-8.02435e-21
-1.76499e-21
-5.31512e-21
2.67806e-20
1.06861e-20
-1.00982e-20
-1.00821e-20
-1.03474e-20
3.23081e-21
-5.08276e-22
-2.20583e-20
2.03288e-20
-2.03291e-20
1.00523e-20
-3.34315e-21
6.41614e-21
-1.09448e-20
8.07749e-21
1.31518e-20
-4.695e-21
-1.54309e-20
-2.51507e-21
6.00093e-21
4.51173e-21
-7.80813e-21
-1.06623e-20
-9.77555e-21
-2.82712e-20
1.56613e-20
7.76509e-21
-1.1904e-21
-6.77627e-21
1.35525e-20
7.85045e-21
-9.15455e-21
-3.15719e-21
1.08535e-20
-8.00484e-21
-6.10271e-22
-7.68236e-21
4.11238e-21
-2.82161e-21
-2.19828e-20
-6.61022e-21
-6.76757e-21
2.06622e-21
-2.59715e-20
5.09298e-21
1.12739e-20
-1.35498e-20
9.53541e-21
6.77626e-21
-6.77619e-21
4.91195e-21
1.25505e-20
-4.12929e-21
-1.9316e-20
1.87838e-20
4.32878e-21
1.41998e-20
-2.38528e-20
-1.16152e-20
6.49949e-21
-7.20855e-21
-6.49798e-22
-2.15359e-21
3.56168e-21
-9.33278e-21
-7.39389e-21
5.60868e-22
7.57123e-21
-1.24981e-26
1.35523e-20
-8.95559e-21
1.8986e-20
-1.73752e-20
-4.64986e-21
1.12553e-20
-6.60957e-21
-1.87545e-21
-7.42176e-21
5.55205e-21
1.30679e-20
-4.35189e-21
1.35888e-20
4.32236e-21
-4.51984e-21
3.88435e-21
4.89689e-21
-1.38933e-20
4.68053e-22
-5.29481e-27
1.35525e-20
1.66432e-20
3.60435e-21
-1.42519e-20
-1.58451e-20
1.56539e-20
1.53423e-20
-6.66801e-21
7.34333e-21
2.34923e-21
7.58651e-21
-9.40124e-21
-1.47322e-20
-8.07836e-21
1.23796e-20
-8.7122e-21
4.80648e-21
1.34374e-21
2.54194e-20
-1.35525e-20
6.77642e-21
-1.03266e-20
7.63491e-21
-1.71287e-21
9.28908e-21
4.34054e-21
-9.84025e-21
1.09316e-20
-9.59035e-21
3.09613e-21
1.13581e-20
3.30519e-21
3.02091e-21
-2.62867e-20
1.794e-20
-5.47342e-21
-3.14031e-21
2.35466e-20
-3.04324e-21
-1.46243e-26
-2.0329e-20
1.68162e-25
2.03287e-20
6.77627e-21
6.77624e-21
-1.89723e-26
-1.35526e-20
-1.35526e-20
6.77625e-21
1.35525e-20
6.77625e-21
-1.58634e-26
-6.77627e-21
-1.45063e-26
-6.77628e-21
-1.29878e-26
-1.78488e-26
1.35525e-20
1.35525e-20
-6.77626e-21
)
;

boundaryField
{
    movingWall
    {
        type            zeroGradient;
    }
    fixedWalls
    {
        type            zeroGradient;
    }
    frontAndBack
    {
        type            empty;
    }
}


// ************************************************************************* //
