/*--------------------------------*- C++ -*----------------------------------*\
| =========                 |                                                 |
| \\      /  F ield         | OpenFOAM: The Open Source CFD Toolbox           |
|  \\    /   O peration     | Version:  2312                                  |
|   \\  /    A nd           | Website:  www.openfoam.com                      |
|    \\/     M anipulation  |                                                 |
\*---------------------------------------------------------------------------*/
FoamFile
{
    version     2.0;
    format      ascii;
    arch        "LSB;label=32;scalar=64";
    class       volScalarField;
    location    "6";
    object      initialResidual:k;
}
// * * * * * * * * * * * * * * * * * * * * * * * * * * * * * * * * * * * * * //

dimensions      [0 0 0 0 0 0 0];

internalField   nonuniform List<scalar> 
400
(
-9.79999e-13
-9.80175e-13
-9.80063e-13
-9.80045e-13
-9.80145e-13
-9.79993e-13
-9.80324e-13
-9.79853e-13
-9.80309e-13
-9.79817e-13
-9.80325e-13
-9.7983e-13
-9.8028e-13
-9.79896e-13
-9.80194e-13
-9.80003e-13
-9.8011e-13
-9.8006e-13
-9.80077e-13
-9.80073e-13
-1.08854e-12
-1.0937e-12
-1.08619e-12
-1.08744e-12
-1.08978e-12
-1.08895e-12
-1.08946e-12
-1.08778e-12
-1.08896e-12
-1.08832e-12
-1.08876e-12
-1.0882e-12
-1.08865e-12
-1.08824e-12
-1.08857e-12
-1.08824e-12
-1.08852e-12
-1.08842e-12
-1.08845e-12
-1.08833e-12
-1.23354e-12
-1.23964e-12
-1.22962e-12
-1.23332e-12
-1.23353e-12
-1.23377e-12
-1.2335e-12
-1.23362e-12
-1.23313e-12
-1.23445e-12
-1.23217e-12
-1.23499e-12
-1.23154e-12
-1.23492e-12
-1.23151e-12
-1.2345e-12
-1.23192e-12
-1.23323e-12
-1.23285e-12
-1.23305e-12
-1.35552e-12
-1.35703e-12
-1.35455e-12
-1.35485e-12
-1.35563e-12
-1.35432e-12
-1.35552e-12
-1.3542e-12
-1.35551e-12
-1.35389e-12
-1.3551e-12
-1.35414e-12
-1.35474e-12
-1.35424e-12
-1.35461e-12
-1.35423e-12
-1.3546e-12
-1.35447e-12
-1.35448e-12
-1.35431e-12
-1.4365e-12
-1.43951e-12
-1.43458e-12
-1.43528e-12
-1.43743e-12
-1.43526e-12
-1.43627e-12
-1.4357e-12
-1.4365e-12
-1.43467e-12
-1.43622e-12
-1.4349e-12
-1.43572e-12
-1.43527e-12
-1.43565e-12
-1.43525e-12
-1.43561e-12
-1.43547e-12
-1.43548e-12
-1.4353e-12
-1.48408e-12
-1.49154e-12
-1.47938e-12
-1.48406e-12
-1.4839e-12
-1.48412e-12
-1.48405e-12
-1.48401e-12
-1.48365e-12
-1.48487e-12
-1.48258e-12
-1.48551e-12
-1.48176e-12
-1.4855e-12
-1.48163e-12
-1.48505e-12
-1.48204e-12
-1.48358e-12
-1.48309e-12
-1.48334e-12
-1.51231e-12
-1.51095e-12
-1.51307e-12
-1.51153e-12
-1.51231e-12
-1.5109e-12
-1.51226e-12
-1.51023e-12
-1.51198e-12
-1.51024e-12
-1.51152e-12
-1.5105e-12
-1.51116e-12
-1.51057e-12
-1.51099e-12
-1.51055e-12
-1.51097e-12
-1.51082e-12
-1.51083e-12
-1.51063e-12
-1.5279e-12
-1.53294e-12
-1.52425e-12
-1.52787e-12
-1.52749e-12
-1.52628e-12
-1.52816e-12
-1.52723e-12
-1.52759e-12
-1.52746e-12
-1.52685e-12
-1.52881e-12
-1.52506e-12
-1.52891e-12
-1.52457e-12
-1.5279e-12
-1.52543e-12
-1.52686e-12
-1.52634e-12
-1.52662e-12
-1.53877e-12
-1.53999e-12
-1.53666e-12
-1.53717e-12
-1.53981e-12
-1.53664e-12
-1.53902e-12
-1.53722e-12
-1.53803e-12
-1.53742e-12
-1.53757e-12
-1.53784e-12
-1.53693e-12
-1.53927e-12
-1.53519e-12
-1.53907e-12
-1.53541e-12
-1.53725e-12
-1.53673e-12
-1.53705e-12
-1.54619e-12
-1.55209e-12
-1.54202e-12
-1.54734e-12
-1.54455e-12
-1.54812e-12
-1.54367e-12
-1.54826e-12
-1.54294e-12
-1.54862e-12
-1.54236e-12
-1.54823e-12
-1.54246e-12
-1.54757e-12
-1.54292e-12
-1.54688e-12
-1.54358e-12
-1.54531e-12
-1.54473e-12
-1.54504e-12
-1.55327e-12
-1.5636e-12
-1.54639e-12
-1.55283e-12
-1.553e-12
-1.5537e-12
-1.55223e-12
-1.55551e-12
-1.55019e-12
-1.55644e-12
-1.54893e-12
-1.55661e-12
-1.54845e-12
-1.5557e-12
-1.54897e-12
-1.55454e-12
-1.55011e-12
-1.55229e-12
-1.55188e-12
-1.55219e-12
-1.56028e-12
-1.56773e-12
-1.55516e-12
-1.56168e-12
-1.55848e-12
-1.56366e-12
-1.55689e-12
-1.56385e-12
-1.55602e-12
-1.56392e-12
-1.55559e-12
-1.56356e-12
-1.55574e-12
-1.56271e-12
-1.55641e-12
-1.56161e-12
-1.55747e-12
-1.55962e-12
-1.55898e-12
-1.55934e-12
-1.56882e-12
-1.56471e-12
-1.57139e-12
-1.56779e-12
-1.56931e-12
-1.5667e-12
-1.56867e-12
-1.56731e-12
-1.56777e-12
-1.56776e-12
-1.56765e-12
-1.56663e-12
-1.56778e-12
-1.56666e-12
-1.56749e-12
-1.56675e-12
-1.56744e-12
-1.56707e-12
-1.56713e-12
-1.56699e-12
-1.57673e-12
-1.58301e-12
-1.5724e-12
-1.57737e-12
-1.57576e-12
-1.57531e-12
-1.57693e-12
-1.57702e-12
-1.5754e-12
-1.5798e-12
-1.57248e-12
-1.58117e-12
-1.57072e-12
-1.57917e-12
-1.57207e-12
-1.57707e-12
-1.57394e-12
-1.57572e-12
-1.57518e-12
-1.5755e-12
-1.58669e-12
-1.59027e-12
-1.58359e-12
-1.58751e-12
-1.58512e-12
-1.58496e-12
-1.58695e-12
-1.58522e-12
-1.58627e-12
-1.58541e-12
-1.58588e-12
-1.58672e-12
-1.58439e-12
-1.58798e-12
-1.58295e-12
-1.58669e-12
-1.5838e-12
-1.58521e-12
-1.58497e-12
-1.58515e-12
-1.59803e-12
-1.59264e-12
-1.60084e-12
-1.59855e-12
-1.59749e-12
-1.59668e-12
-1.59833e-12
-1.59599e-12
-1.59768e-12
-1.59563e-12
-1.59708e-12
-1.59593e-12
-1.5966e-12
-1.59603e-12
-1.59659e-12
-1.59601e-12
-1.59659e-12
-1.59629e-12
-1.59637e-12
-1.59617e-12
-1.6099e-12
-1.61618e-12
-1.6052e-12
-1.61155e-12
-1.60754e-12
-1.61179e-12
-1.60671e-12
-1.61198e-12
-1.60597e-12
-1.61316e-12
-1.60471e-12
-1.61337e-12
-1.60424e-12
-1.61219e-12
-1.60501e-12
-1.61037e-12
-1.60656e-12
-1.60865e-12
-1.60804e-12
-1.6084e-12
-1.62226e-12
-1.62804e-12
-1.61853e-12
-1.6199e-12
-1.6234e-12
-1.62191e-12
-1.62292e-12
-1.62028e-12
-1.62188e-12
-1.62106e-12
-1.62185e-12
-1.62072e-12
-1.62161e-12
-1.62075e-12
-1.62143e-12
-1.62066e-12
-1.62123e-12
-1.62101e-12
-1.6211e-12
-1.62091e-12
-1.63369e-12
-1.6348e-12
-1.63133e-12
-1.63181e-12
-1.63425e-12
-1.63242e-12
-1.63236e-12
-1.63324e-12
-1.63104e-12
-1.63532e-12
-1.62932e-12
-1.63492e-12
-1.62921e-12
-1.63415e-12
-1.62964e-12
-1.63353e-12
-1.63022e-12
-1.63196e-12
-1.63136e-12
-1.63168e-12
-1.63851e-12
-1.63771e-12
-1.63779e-12
-1.63845e-12
-1.6377e-12
-1.63855e-12
-1.63748e-12
-1.63865e-12
-1.63737e-12
-1.6387e-12
-1.63737e-12
-1.63864e-12
-1.63749e-12
-1.63849e-12
-1.63769e-12
-1.63826e-12
-1.63793e-12
-1.63805e-12
-1.63803e-12
-1.63804e-12
)
;

boundaryField
{
    movingWall
    {
        type            zeroGradient;
    }
    fixedWalls
    {
        type            zeroGradient;
    }
    frontAndBack
    {
        type            empty;
    }
}


// ************************************************************************* //
