/*--------------------------------*- C++ -*----------------------------------*\
| =========                 |                                                 |
| \\      /  F ield         | OpenFOAM: The Open Source CFD Toolbox           |
|  \\    /   O peration     | Version:  2312                                  |
|   \\  /    A nd           | Website:  www.openfoam.com                      |
|    \\/     M anipulation  |                                                 |
\*---------------------------------------------------------------------------*/
FoamFile
{
    version     2.0;
    format      ascii;
    arch        "LSB;label=32;scalar=64";
    class       volScalarField;
    location    "6";
    object      k2;
}
// * * * * * * * * * * * * * * * * * * * * * * * * * * * * * * * * * * * * * //

dimensions      [0 4 -4 0 0 0 0];

internalField   nonuniform List<scalar> 
400
(
7.58184e-11
7.58182e-11
7.5818e-11
7.58179e-11
7.58178e-11
7.58177e-11
7.58176e-11
7.58175e-11
7.58174e-11
7.58173e-11
7.58173e-11
7.58172e-11
7.58173e-11
7.58172e-11
7.58172e-11
7.58172e-11
7.58172e-11
7.58171e-11
7.58171e-11
7.58171e-11
8.37258e-11
8.3726e-11
8.3714e-11
8.37099e-11
8.37017e-11
8.36977e-11
8.36904e-11
8.36873e-11
8.36814e-11
8.36786e-11
8.36737e-11
8.36715e-11
8.36676e-11
8.3666e-11
8.36632e-11
8.36621e-11
8.36604e-11
8.36598e-11
8.36592e-11
8.3659e-11
9.56038e-11
9.56037e-11
9.55891e-11
9.55837e-11
9.55738e-11
9.55687e-11
9.55602e-11
9.55558e-11
9.55487e-11
9.5545e-11
9.55392e-11
9.55363e-11
9.55317e-11
9.55295e-11
9.55263e-11
9.55248e-11
9.55228e-11
9.55221e-11
9.55213e-11
9.55211e-11
1.07122e-10
1.07121e-10
1.07104e-10
1.07098e-10
1.07085e-10
1.0708e-10
1.07069e-10
1.07065e-10
1.07056e-10
1.07052e-10
1.07045e-10
1.07041e-10
1.07036e-10
1.07033e-10
1.07029e-10
1.07028e-10
1.07025e-10
1.07024e-10
1.07023e-10
1.07023e-10
1.15922e-10
1.15922e-10
1.15902e-10
1.15895e-10
1.15881e-10
1.15875e-10
1.15863e-10
1.15858e-10
1.15847e-10
1.15843e-10
1.15835e-10
1.15832e-10
1.15825e-10
1.15823e-10
1.15818e-10
1.15816e-10
1.15813e-10
1.15812e-10
1.15811e-10
1.15811e-10
1.21746e-10
1.21746e-10
1.21724e-10
1.21717e-10
1.21702e-10
1.21695e-10
1.21683e-10
1.21676e-10
1.21666e-10
1.21661e-10
1.21652e-10
1.21648e-10
1.21642e-10
1.21638e-10
1.21634e-10
1.21632e-10
1.21629e-10
1.21628e-10
1.21627e-10
1.21626e-10
1.2532e-10
1.2532e-10
1.25298e-10
1.2529e-10
1.25274e-10
1.25267e-10
1.25254e-10
1.25248e-10
1.25237e-10
1.25231e-10
1.25222e-10
1.25218e-10
1.25211e-10
1.25208e-10
1.25203e-10
1.25201e-10
1.25198e-10
1.25197e-10
1.25195e-10
1.25195e-10
1.27492e-10
1.27492e-10
1.2747e-10
1.27461e-10
1.27446e-10
1.27437e-10
1.27425e-10
1.27417e-10
1.27407e-10
1.27401e-10
1.27392e-10
1.27387e-10
1.2738e-10
1.27377e-10
1.27372e-10
1.27369e-10
1.27366e-10
1.27365e-10
1.27364e-10
1.27364e-10
1.28896e-10
1.28895e-10
1.28873e-10
1.28864e-10
1.28848e-10
1.28839e-10
1.28828e-10
1.28818e-10
1.2881e-10
1.28801e-10
1.28794e-10
1.28788e-10
1.28782e-10
1.28778e-10
1.28773e-10
1.28771e-10
1.28767e-10
1.28766e-10
1.28765e-10
1.28765e-10
1.29923e-10
1.29923e-10
1.299e-10
1.29891e-10
1.29875e-10
1.29867e-10
1.29853e-10
1.29846e-10
1.29835e-10
1.29829e-10
1.2982e-10
1.29815e-10
1.29808e-10
1.29804e-10
1.29799e-10
1.29797e-10
1.29794e-10
1.29792e-10
1.29791e-10
1.29791e-10
1.30799e-10
1.30798e-10
1.30774e-10
1.30766e-10
1.30749e-10
1.30741e-10
1.30727e-10
1.3072e-10
1.30709e-10
1.30703e-10
1.30694e-10
1.30689e-10
1.30682e-10
1.30678e-10
1.30673e-10
1.3067e-10
1.30667e-10
1.30666e-10
1.30665e-10
1.30665e-10
1.31644e-10
1.31644e-10
1.3162e-10
1.31611e-10
1.31595e-10
1.31587e-10
1.31573e-10
1.31566e-10
1.31554e-10
1.31548e-10
1.31539e-10
1.31534e-10
1.31526e-10
1.31523e-10
1.31518e-10
1.31515e-10
1.31512e-10
1.31511e-10
1.3151e-10
1.31509e-10
1.32533e-10
1.32533e-10
1.32508e-10
1.325e-10
1.32483e-10
1.32475e-10
1.32461e-10
1.32453e-10
1.32442e-10
1.32436e-10
1.32426e-10
1.32421e-10
1.32413e-10
1.3241e-10
1.32405e-10
1.32402e-10
1.32399e-10
1.32398e-10
1.32397e-10
1.32396e-10
1.3351e-10
1.3351e-10
1.33485e-10
1.33476e-10
1.3346e-10
1.33451e-10
1.33437e-10
1.3343e-10
1.33418e-10
1.33412e-10
1.33402e-10
1.33397e-10
1.33389e-10
1.33386e-10
1.3338e-10
1.33378e-10
1.33375e-10
1.33374e-10
1.33372e-10
1.33372e-10
1.34607e-10
1.34606e-10
1.34582e-10
1.34573e-10
1.34556e-10
1.34547e-10
1.34534e-10
1.34525e-10
1.34514e-10
1.34507e-10
1.34498e-10
1.34493e-10
1.34485e-10
1.34481e-10
1.34476e-10
1.34474e-10
1.3447e-10
1.34469e-10
1.34468e-10
1.34467e-10
1.35834e-10
1.35834e-10
1.35809e-10
1.358e-10
1.35782e-10
1.35775e-10
1.35759e-10
1.35752e-10
1.35739e-10
1.35734e-10
1.35724e-10
1.35719e-10
1.35711e-10
1.35707e-10
1.35702e-10
1.35699e-10
1.35696e-10
1.35694e-10
1.35693e-10
1.35693e-10
1.37158e-10
1.37157e-10
1.37132e-10
1.37123e-10
1.37105e-10
1.37097e-10
1.37082e-10
1.37074e-10
1.37062e-10
1.37056e-10
1.37045e-10
1.3704e-10
1.37032e-10
1.37029e-10
1.37023e-10
1.37021e-10
1.37017e-10
1.37016e-10
1.37015e-10
1.37014e-10
1.38466e-10
1.38465e-10
1.38439e-10
1.3843e-10
1.38412e-10
1.38404e-10
1.38388e-10
1.38381e-10
1.38368e-10
1.38362e-10
1.38351e-10
1.38347e-10
1.38338e-10
1.38335e-10
1.38329e-10
1.38326e-10
1.38323e-10
1.38322e-10
1.3832e-10
1.3832e-10
1.39551e-10
1.39551e-10
1.39526e-10
1.39517e-10
1.395e-10
1.3949e-10
1.39476e-10
1.39469e-10
1.39456e-10
1.3945e-10
1.3944e-10
1.39435e-10
1.39427e-10
1.39423e-10
1.39417e-10
1.39415e-10
1.39411e-10
1.3941e-10
1.39409e-10
1.39408e-10
1.40039e-10
1.40039e-10
1.40039e-10
1.40038e-10
1.40038e-10
1.40038e-10
1.40038e-10
1.40038e-10
1.40037e-10
1.40038e-10
1.40037e-10
1.40037e-10
1.40037e-10
1.40037e-10
1.40037e-10
1.40037e-10
1.40037e-10
1.40037e-10
1.40037e-10
1.40037e-10
)
;

boundaryField
{
    movingWall
    {
        type            calculated;
        value           nonuniform List<scalar> 
20
(
1.40039e-10
1.40039e-10
1.40039e-10
1.40038e-10
1.40038e-10
1.40038e-10
1.40038e-10
1.40038e-10
1.40037e-10
1.40038e-10
1.40037e-10
1.40037e-10
1.40037e-10
1.40037e-10
1.40037e-10
1.40037e-10
1.40037e-10
1.40037e-10
1.40037e-10
1.40037e-10
)
;
    }
    fixedWalls
    {
        type            calculated;
        value           nonuniform List<scalar> 
60
(
7.58184e-11
8.37258e-11
9.56038e-11
1.07122e-10
1.15922e-10
1.21746e-10
1.2532e-10
1.27492e-10
1.28896e-10
1.29923e-10
1.30799e-10
1.31644e-10
1.32533e-10
1.3351e-10
1.34607e-10
1.35834e-10
1.37158e-10
1.38466e-10
1.39551e-10
1.40039e-10
7.58171e-11
8.3659e-11
9.55211e-11
1.07023e-10
1.15811e-10
1.21626e-10
1.25195e-10
1.27364e-10
1.28765e-10
1.29791e-10
1.30665e-10
1.31509e-10
1.32396e-10
1.33372e-10
1.34467e-10
1.35693e-10
1.37014e-10
1.3832e-10
1.39408e-10
1.40037e-10
7.58184e-11
7.58182e-11
7.5818e-11
7.58179e-11
7.58178e-11
7.58177e-11
7.58176e-11
7.58175e-11
7.58174e-11
7.58173e-11
7.58173e-11
7.58172e-11
7.58173e-11
7.58172e-11
7.58172e-11
7.58172e-11
7.58172e-11
7.58171e-11
7.58171e-11
7.58171e-11
)
;
    }
    frontAndBack
    {
        type            empty;
    }
}


// ************************************************************************* //
