/*--------------------------------*- C++ -*----------------------------------*\
| =========                 |                                                 |
| \\      /  F ield         | OpenFOAM: The Open Source CFD Toolbox           |
|  \\    /   O peration     | Version:  2312                                  |
|   \\  /    A nd           | Website:  www.openfoam.com                      |
|    \\/     M anipulation  |                                                 |
\*---------------------------------------------------------------------------*/
FoamFile
{
    version     2.0;
    format      ascii;
    arch        "LSB;label=32;scalar=64";
    class       volScalarField;
    location    "6";
    object      kDiff;
}
// * * * * * * * * * * * * * * * * * * * * * * * * * * * * * * * * * * * * * //

dimensions      [0 2 -2 0 0 0 0];

internalField   nonuniform List<scalar> 
400
(
-1.956e-08
-1.95618e-08
-1.95594e-08
-1.95605e-08
-1.9561e-08
-1.95597e-08
-1.95626e-08
-1.95589e-08
-1.95616e-08
-1.95586e-08
-1.95618e-08
-1.95586e-08
-1.95615e-08
-1.9559e-08
-1.95611e-08
-1.95597e-08
-1.95605e-08
-1.95601e-08
-1.95602e-08
-1.95602e-08
-2.17423e-08
-2.17604e-08
-2.16817e-08
-2.1719e-08
-2.176e-08
-2.16979e-08
-2.17619e-08
-2.1669e-08
-2.17736e-08
-2.16676e-08
-2.17709e-08
-2.16669e-08
-2.17657e-08
-2.16747e-08
-2.17536e-08
-2.16884e-08
-2.17383e-08
-2.17064e-08
-2.17198e-08
-2.17157e-08
-2.46294e-08
-2.46546e-08
-2.45409e-08
-2.46381e-08
-2.45939e-08
-2.46237e-08
-2.45975e-08
-2.46164e-08
-2.45989e-08
-2.46196e-08
-2.4586e-08
-2.4625e-08
-2.45761e-08
-2.46248e-08
-2.45757e-08
-2.46187e-08
-2.45808e-08
-2.46061e-08
-2.45949e-08
-2.45982e-08
-2.70434e-08
-2.70514e-08
-2.70186e-08
-2.70306e-08
-2.7041e-08
-2.70061e-08
-2.70534e-08
-2.69917e-08
-2.70607e-08
-2.69771e-08
-2.70627e-08
-2.69776e-08
-2.7055e-08
-2.69847e-08
-2.70447e-08
-2.69953e-08
-2.7034e-08
-2.70089e-08
-2.70184e-08
-2.70147e-08
-2.86632e-08
-2.86753e-08
-2.86205e-08
-2.86389e-08
-2.8681e-08
-2.85974e-08
-2.86902e-08
-2.85904e-08
-2.8696e-08
-2.85644e-08
-2.87043e-08
-2.85629e-08
-2.86949e-08
-2.85789e-08
-2.86776e-08
-2.85965e-08
-2.86583e-08
-2.86184e-08
-2.86342e-08
-2.86292e-08
-2.96283e-08
-2.96602e-08
-2.95207e-08
-2.96415e-08
-2.9578e-08
-2.96209e-08
-2.95865e-08
-2.96117e-08
-2.95889e-08
-2.96134e-08
-2.95757e-08
-2.96182e-08
-2.95635e-08
-2.96182e-08
-2.95615e-08
-2.96114e-08
-2.95664e-08
-2.95966e-08
-2.95829e-08
-2.9587e-08
-3.01606e-08
-3.01468e-08
-3.0181e-08
-3.01336e-08
-3.01783e-08
-3.01134e-08
-3.01883e-08
-3.00879e-08
-3.01995e-08
-3.00756e-08
-3.01997e-08
-3.00774e-08
-3.01896e-08
-3.00871e-08
-3.01747e-08
-3.01024e-08
-3.01583e-08
-3.01221e-08
-3.01362e-08
-3.01313e-08
-3.04872e-08
-3.05269e-08
-3.04022e-08
-3.05118e-08
-3.04315e-08
-3.04838e-08
-3.04559e-08
-3.04826e-08
-3.04517e-08
-3.04774e-08
-3.04509e-08
-3.04781e-08
-3.04263e-08
-3.04795e-08
-3.04187e-08
-3.04715e-08
-3.04307e-08
-3.0459e-08
-3.04456e-08
-3.04501e-08
-3.06885e-08
-3.07045e-08
-3.0637e-08
-3.07113e-08
-3.06625e-08
-3.06936e-08
-3.06545e-08
-3.06995e-08
-3.06389e-08
-3.07004e-08
-3.06403e-08
-3.06937e-08
-3.06453e-08
-3.0688e-08
-3.06297e-08
-3.0685e-08
-3.06327e-08
-3.06684e-08
-3.06531e-08
-3.06581e-08
-3.08621e-08
-3.08849e-08
-3.07751e-08
-3.08781e-08
-3.08077e-08
-3.08697e-08
-3.07959e-08
-3.08693e-08
-3.07861e-08
-3.08708e-08
-3.07769e-08
-3.08659e-08
-3.07782e-08
-3.08561e-08
-3.07854e-08
-3.08445e-08
-3.07943e-08
-3.08279e-08
-3.08125e-08
-3.08173e-08
-3.10174e-08
-3.1055e-08
-3.08708e-08
-3.10206e-08
-3.09638e-08
-3.09938e-08
-3.09667e-08
-3.10046e-08
-3.09345e-08
-3.10174e-08
-3.09144e-08
-3.10184e-08
-3.09073e-08
-3.10076e-08
-3.09152e-08
-3.09925e-08
-3.09293e-08
-3.09706e-08
-3.09548e-08
-3.09598e-08
-3.11489e-08
-3.11773e-08
-3.1044e-08
-3.11687e-08
-3.10909e-08
-3.11672e-08
-3.10669e-08
-3.11699e-08
-3.10539e-08
-3.1169e-08
-3.10484e-08
-3.11628e-08
-3.10511e-08
-3.11508e-08
-3.1061e-08
-3.11352e-08
-3.10744e-08
-3.11145e-08
-3.10968e-08
-3.11023e-08
-3.12782e-08
-3.12445e-08
-3.1347e-08
-3.124e-08
-3.13186e-08
-3.12213e-08
-3.1326e-08
-3.12143e-08
-3.13222e-08
-3.12141e-08
-3.13148e-08
-3.11994e-08
-3.13187e-08
-3.12026e-08
-3.13044e-08
-3.122e-08
-3.1286e-08
-3.12417e-08
-3.12601e-08
-3.12548e-08
-3.14662e-08
-3.15085e-08
-3.13728e-08
-3.14851e-08
-3.14093e-08
-3.14487e-08
-3.14503e-08
-3.14501e-08
-3.14349e-08
-3.14731e-08
-3.13872e-08
-3.14881e-08
-3.13599e-08
-3.14754e-08
-3.13755e-08
-3.14527e-08
-3.13999e-08
-3.14346e-08
-3.14193e-08
-3.14243e-08
-3.16533e-08
-3.16868e-08
-3.1582e-08
-3.16896e-08
-3.15757e-08
-3.16717e-08
-3.16037e-08
-3.16602e-08
-3.16018e-08
-3.16557e-08
-3.1611e-08
-3.16513e-08
-3.16013e-08
-3.16518e-08
-3.15822e-08
-3.16417e-08
-3.15941e-08
-3.16251e-08
-3.16133e-08
-3.16168e-08
-3.18554e-08
-3.18139e-08
-3.19455e-08
-3.18379e-08
-3.1881e-08
-3.18274e-08
-3.19011e-08
-3.17926e-08
-3.19083e-08
-3.1774e-08
-3.19097e-08
-3.17748e-08
-3.18989e-08
-3.17865e-08
-3.18851e-08
-3.18024e-08
-3.18677e-08
-3.18237e-08
-3.18423e-08
-3.18363e-08
-3.21282e-08
-3.2166e-08
-3.20358e-08
-3.21519e-08
-3.20636e-08
-3.21376e-08
-3.20549e-08
-3.21377e-08
-3.20473e-08
-3.2145e-08
-3.20293e-08
-3.21452e-08
-3.20222e-08
-3.21317e-08
-3.20319e-08
-3.21113e-08
-3.20522e-08
-3.20915e-08
-3.20744e-08
-3.20799e-08
-3.23736e-08
-3.24015e-08
-3.22883e-08
-3.23433e-08
-3.23936e-08
-3.23149e-08
-3.23932e-08
-3.2274e-08
-3.24046e-08
-3.22752e-08
-3.24028e-08
-3.22687e-08
-3.2397e-08
-3.22764e-08
-3.23807e-08
-3.22916e-08
-3.23605e-08
-3.23163e-08
-3.23351e-08
-3.23292e-08
-3.25794e-08
-3.25884e-08
-3.25292e-08
-3.25863e-08
-3.25681e-08
-3.25674e-08
-3.25508e-08
-3.25756e-08
-3.25387e-08
-3.25922e-08
-3.25089e-08
-3.25918e-08
-3.25061e-08
-3.25818e-08
-3.25129e-08
-3.25708e-08
-3.25204e-08
-3.25543e-08
-3.25386e-08
-3.25436e-08
-3.26731e-08
-3.26651e-08
-3.26699e-08
-3.26745e-08
-3.26672e-08
-3.26758e-08
-3.26667e-08
-3.26742e-08
-3.26659e-08
-3.26746e-08
-3.26657e-08
-3.26744e-08
-3.26664e-08
-3.26735e-08
-3.26677e-08
-3.26721e-08
-3.26693e-08
-3.26704e-08
-3.26702e-08
-3.26703e-08
)
;

boundaryField
{
    movingWall
    {
        type            calculated;
        value           nonuniform List<scalar> 
20
(
-3.26731e-08
-3.26651e-08
-3.26699e-08
-3.26745e-08
-3.26672e-08
-3.26758e-08
-3.26667e-08
-3.26742e-08
-3.26659e-08
-3.26746e-08
-3.26657e-08
-3.26744e-08
-3.26664e-08
-3.26735e-08
-3.26677e-08
-3.26721e-08
-3.26693e-08
-3.26704e-08
-3.26702e-08
-3.26703e-08
)
;
    }
    fixedWalls
    {
        type            calculated;
        value           nonuniform List<scalar> 
60
(
-1.956e-08
-2.17423e-08
-2.46294e-08
-2.70434e-08
-2.86632e-08
-2.96283e-08
-3.01606e-08
-3.04872e-08
-3.06885e-08
-3.08621e-08
-3.10174e-08
-3.11489e-08
-3.12782e-08
-3.14662e-08
-3.16533e-08
-3.18554e-08
-3.21282e-08
-3.23736e-08
-3.25794e-08
-3.26731e-08
-1.95602e-08
-2.17157e-08
-2.45982e-08
-2.70147e-08
-2.86292e-08
-2.9587e-08
-3.01313e-08
-3.04501e-08
-3.06581e-08
-3.08173e-08
-3.09598e-08
-3.11023e-08
-3.12548e-08
-3.14243e-08
-3.16168e-08
-3.18363e-08
-3.20799e-08
-3.23292e-08
-3.25436e-08
-3.26703e-08
-1.956e-08
-1.95618e-08
-1.95594e-08
-1.95605e-08
-1.9561e-08
-1.95597e-08
-1.95626e-08
-1.95589e-08
-1.95616e-08
-1.95586e-08
-1.95618e-08
-1.95586e-08
-1.95615e-08
-1.9559e-08
-1.95611e-08
-1.95597e-08
-1.95605e-08
-1.95601e-08
-1.95602e-08
-1.95602e-08
)
;
    }
    frontAndBack
    {
        type            empty;
    }
}


// ************************************************************************* //
