/*--------------------------------*- C++ -*----------------------------------*\
| =========                 |                                                 |
| \\      /  F ield         | OpenFOAM: The Open Source CFD Toolbox           |
|  \\    /   O peration     | Version:  2312                                  |
|   \\  /    A nd           | Website:  www.openfoam.com                      |
|    \\/     M anipulation  |                                                 |
\*---------------------------------------------------------------------------*/
FoamFile
{
    version     2.0;
    format      ascii;
    arch        "LSB;label=32;scalar=64";
    class       volScalarField;
    location    "6";
    object      kTotal;
}
// * * * * * * * * * * * * * * * * * * * * * * * * * * * * * * * * * * * * * //

dimensions      [0 2 -2 0 0 0 0];

internalField   nonuniform List<scalar> 
400
(
1.74148e-05
1.74147e-05
1.74147e-05
1.74147e-05
1.74147e-05
1.74147e-05
1.74147e-05
1.74147e-05
1.74147e-05
1.74146e-05
1.74146e-05
1.74146e-05
1.74146e-05
1.74146e-05
1.74146e-05
1.74146e-05
1.74146e-05
1.74146e-05
1.74146e-05
1.74146e-05
1.83004e-05
1.83004e-05
1.82991e-05
1.82986e-05
1.82977e-05
1.82973e-05
1.82965e-05
1.82962e-05
1.82955e-05
1.82952e-05
1.82947e-05
1.82944e-05
1.8294e-05
1.82938e-05
1.82935e-05
1.82934e-05
1.82932e-05
1.82932e-05
1.82931e-05
1.82931e-05
1.95555e-05
1.95554e-05
1.9554e-05
1.95534e-05
1.95524e-05
1.95519e-05
1.9551e-05
1.95505e-05
1.95498e-05
1.95494e-05
1.95488e-05
1.95485e-05
1.95481e-05
1.95479e-05
1.95475e-05
1.95474e-05
1.95472e-05
1.95471e-05
1.9547e-05
1.9547e-05
2.06999e-05
2.06999e-05
2.06982e-05
2.06976e-05
2.06964e-05
2.06959e-05
2.06949e-05
2.06944e-05
2.06936e-05
2.06932e-05
2.06925e-05
2.06921e-05
2.06917e-05
2.06914e-05
2.0691e-05
2.06908e-05
2.06906e-05
2.06905e-05
2.06904e-05
2.06904e-05
2.15334e-05
2.15334e-05
2.15316e-05
2.15309e-05
2.15296e-05
2.15291e-05
2.1528e-05
2.15275e-05
2.15265e-05
2.15261e-05
2.15254e-05
2.1525e-05
2.15245e-05
2.15242e-05
2.15238e-05
2.15236e-05
2.15233e-05
2.15233e-05
2.15232e-05
2.15231e-05
2.20677e-05
2.20677e-05
2.20658e-05
2.20651e-05
2.20638e-05
2.20631e-05
2.2062e-05
2.20614e-05
2.20605e-05
2.206e-05
2.20592e-05
2.20589e-05
2.20583e-05
2.2058e-05
2.20576e-05
2.20574e-05
2.20571e-05
2.2057e-05
2.20569e-05
2.20569e-05
2.23893e-05
2.23893e-05
2.23873e-05
2.23866e-05
2.23852e-05
2.23846e-05
2.23834e-05
2.23828e-05
2.23818e-05
2.23814e-05
2.23806e-05
2.23802e-05
2.23796e-05
2.23793e-05
2.23788e-05
2.23786e-05
2.23784e-05
2.23783e-05
2.23782e-05
2.23781e-05
2.25825e-05
2.25825e-05
2.25805e-05
2.25797e-05
2.25784e-05
2.25777e-05
2.25765e-05
2.25759e-05
2.25749e-05
2.25744e-05
2.25736e-05
2.25732e-05
2.25726e-05
2.25723e-05
2.25718e-05
2.25716e-05
2.25714e-05
2.25713e-05
2.25712e-05
2.25711e-05
2.27065e-05
2.27064e-05
2.27044e-05
2.27036e-05
2.27023e-05
2.27015e-05
2.27005e-05
2.26996e-05
2.26989e-05
2.26981e-05
2.26975e-05
2.2697e-05
2.26964e-05
2.26961e-05
2.26957e-05
2.26954e-05
2.26952e-05
2.26951e-05
2.2695e-05
2.26949e-05
2.27968e-05
2.27968e-05
2.27947e-05
2.2794e-05
2.27926e-05
2.27918e-05
2.27907e-05
2.279e-05
2.2789e-05
2.27885e-05
2.27877e-05
2.27873e-05
2.27867e-05
2.27864e-05
2.27859e-05
2.27857e-05
2.27854e-05
2.27853e-05
2.27852e-05
2.27852e-05
2.28735e-05
2.28734e-05
2.28713e-05
2.28706e-05
2.28692e-05
2.28684e-05
2.28672e-05
2.28666e-05
2.28656e-05
2.28651e-05
2.28643e-05
2.28639e-05
2.28632e-05
2.28629e-05
2.28625e-05
2.28623e-05
2.2862e-05
2.28619e-05
2.28618e-05
2.28617e-05
2.29473e-05
2.29472e-05
2.29452e-05
2.29444e-05
2.2943e-05
2.29423e-05
2.29411e-05
2.29404e-05
2.29394e-05
2.29389e-05
2.29381e-05
2.29377e-05
2.2937e-05
2.29367e-05
2.29362e-05
2.2936e-05
2.29358e-05
2.29357e-05
2.29355e-05
2.29355e-05
2.30246e-05
2.30246e-05
2.30225e-05
2.30217e-05
2.30203e-05
2.30195e-05
2.30184e-05
2.30177e-05
2.30167e-05
2.30162e-05
2.30153e-05
2.30149e-05
2.30142e-05
2.3014e-05
2.30135e-05
2.30133e-05
2.3013e-05
2.30129e-05
2.30128e-05
2.30127e-05
2.31093e-05
2.31093e-05
2.31072e-05
2.31064e-05
2.3105e-05
2.31042e-05
2.3103e-05
2.31024e-05
2.31013e-05
2.31008e-05
2.31e-05
2.30995e-05
2.30989e-05
2.30986e-05
2.30981e-05
2.30979e-05
2.30976e-05
2.30975e-05
2.30974e-05
2.30974e-05
2.32041e-05
2.3204e-05
2.3202e-05
2.32011e-05
2.31997e-05
2.31989e-05
2.31978e-05
2.3197e-05
2.31961e-05
2.31955e-05
2.31947e-05
2.31942e-05
2.31936e-05
2.31932e-05
2.31928e-05
2.31926e-05
2.31923e-05
2.31922e-05
2.31921e-05
2.3192e-05
2.33096e-05
2.33096e-05
2.33075e-05
2.33067e-05
2.33052e-05
2.33045e-05
2.33031e-05
2.33026e-05
2.33015e-05
2.3301e-05
2.33001e-05
2.32997e-05
2.3299e-05
2.32987e-05
2.32982e-05
2.3298e-05
2.32977e-05
2.32976e-05
2.32975e-05
2.32975e-05
2.34229e-05
2.34229e-05
2.34207e-05
2.34199e-05
2.34184e-05
2.34177e-05
2.34164e-05
2.34158e-05
2.34147e-05
2.34142e-05
2.34133e-05
2.34129e-05
2.34122e-05
2.34119e-05
2.34114e-05
2.34112e-05
2.34109e-05
2.34108e-05
2.34107e-05
2.34106e-05
2.35343e-05
2.35343e-05
2.35321e-05
2.35313e-05
2.35298e-05
2.3529e-05
2.35277e-05
2.35271e-05
2.3526e-05
2.35255e-05
2.35246e-05
2.35242e-05
2.35235e-05
2.35232e-05
2.35227e-05
2.35225e-05
2.35222e-05
2.35221e-05
2.35219e-05
2.35219e-05
2.36264e-05
2.36264e-05
2.36243e-05
2.36235e-05
2.3622e-05
2.36212e-05
2.362e-05
2.36194e-05
2.36184e-05
2.36178e-05
2.3617e-05
2.36165e-05
2.36158e-05
2.36155e-05
2.3615e-05
2.36148e-05
2.36145e-05
2.36144e-05
2.36143e-05
2.36143e-05
2.36677e-05
2.36676e-05
2.36676e-05
2.36676e-05
2.36676e-05
2.36676e-05
2.36675e-05
2.36675e-05
2.36675e-05
2.36675e-05
2.36675e-05
2.36675e-05
2.36675e-05
2.36675e-05
2.36675e-05
2.36675e-05
2.36675e-05
2.36675e-05
2.36675e-05
2.36675e-05
)
;

boundaryField
{
    movingWall
    {
        type            calculated;
        value           nonuniform List<scalar> 
20
(
2.36677e-05
2.36676e-05
2.36676e-05
2.36676e-05
2.36676e-05
2.36676e-05
2.36675e-05
2.36675e-05
2.36675e-05
2.36675e-05
2.36675e-05
2.36675e-05
2.36675e-05
2.36675e-05
2.36675e-05
2.36675e-05
2.36675e-05
2.36675e-05
2.36675e-05
2.36675e-05
)
;
    }
    fixedWalls
    {
        type            calculated;
        value           nonuniform List<scalar> 
60
(
1.74148e-05
1.83004e-05
1.95555e-05
2.06999e-05
2.15334e-05
2.20677e-05
2.23893e-05
2.25825e-05
2.27065e-05
2.27968e-05
2.28735e-05
2.29473e-05
2.30246e-05
2.31093e-05
2.32041e-05
2.33096e-05
2.34229e-05
2.35343e-05
2.36264e-05
2.36677e-05
1.74146e-05
1.82931e-05
1.9547e-05
2.06904e-05
2.15231e-05
2.20569e-05
2.23781e-05
2.25711e-05
2.26949e-05
2.27852e-05
2.28617e-05
2.29355e-05
2.30127e-05
2.30974e-05
2.3192e-05
2.32975e-05
2.34106e-05
2.35219e-05
2.36143e-05
2.36675e-05
1.74148e-05
1.74147e-05
1.74147e-05
1.74147e-05
1.74147e-05
1.74147e-05
1.74147e-05
1.74147e-05
1.74147e-05
1.74146e-05
1.74146e-05
1.74146e-05
1.74146e-05
1.74146e-05
1.74146e-05
1.74146e-05
1.74146e-05
1.74146e-05
1.74146e-05
1.74146e-05
)
;
    }
    frontAndBack
    {
        type            empty;
    }
}


// ************************************************************************* //
