/*--------------------------------*- C++ -*----------------------------------*\
| =========                 |                                                 |
| \\      /  F ield         | OpenFOAM: The Open Source CFD Toolbox           |
|  \\    /   O peration     | Version:  2312                                  |
|   \\  /    A nd           | Website:  www.openfoam.com                      |
|    \\/     M anipulation  |                                                 |
\*---------------------------------------------------------------------------*/
FoamFile
{
    version     2.0;
    format      ascii;
    arch        "LSB;label=32;scalar=64";
    class       volVectorField;
    location    "6";
    object      kU;
}
// * * * * * * * * * * * * * * * * * * * * * * * * * * * * * * * * * * * * * //

dimensions      [0 3 -3 0 0 0 0];

internalField   nonuniform List<vector> 
400
(
(-8.6976e-06 1.27286e-18 0)
(-8.69759e-06 -2.68483e-19 0)
(-8.69758e-06 6.44037e-20 0)
(-8.69757e-06 -1.28112e-20 0)
(-8.69756e-06 3.17782e-21 0)
(-8.69756e-06 -3.90255e-22 0)
(-8.69755e-06 4.46062e-22 0)
(-8.69755e-06 5.05216e-22 0)
(-8.69755e-06 2.87254e-22 0)
(-8.69754e-06 1.79826e-22 0)
(-8.69754e-06 -9.28852e-23 0)
(-8.69754e-06 -3.11911e-22 0)
(-8.69754e-06 1.29552e-22 0)
(-8.69753e-06 8.11756e-22 0)
(-8.69753e-06 3.42736e-22 0)
(-8.69753e-06 -6.63185e-22 0)
(-8.69753e-06 -5.02634e-22 0)
(-8.69753e-06 4.775e-22 0)
(-8.69753e-06 1.58809e-22 0)
(-8.69753e-06 5.70663e-23 0)
(-9.13932e-06 2.16849e-19 0)
(-9.13932e-06 -4.86589e-20 0)
(-9.1387e-06 1.27658e-20 0)
(-9.13846e-06 -3.91657e-21 0)
(-9.13799e-06 -8.25702e-22 0)
(-9.1378e-06 -4.14795e-22 0)
(-9.13737e-06 9.65922e-22 0)
(-9.13725e-06 6.86508e-22 0)
(-9.13687e-06 1.74093e-23 0)
(-9.13677e-06 5.49327e-22 0)
(-9.13645e-06 8.1481e-22 0)
(-9.13638e-06 9.47013e-22 0)
(-9.13612e-06 1.68322e-21 0)
(-9.13608e-06 2.54185e-21 0)
(-9.13589e-06 1.98672e-21 0)
(-9.13586e-06 3.35083e-22 0)
(-9.13574e-06 -3.49877e-22 0)
(-9.13573e-06 5.49813e-22 0)
(-9.13569e-06 -6.0726e-22 0)
(-9.13568e-06 -5.81327e-22 0)
(-9.76541e-06 -1.44539e-18 0)
(-9.76539e-06 3.13955e-19 0)
(-9.7647e-06 -7.54009e-20 0)
(-9.76438e-06 1.43956e-20 0)
(-9.7639e-06 -4.82382e-21 0)
(-9.76362e-06 8.89424e-22 0)
(-9.7632e-06 1.94626e-21 0)
(-9.76297e-06 1.97328e-21 0)
(-9.76261e-06 8.92832e-22 0)
(-9.76241e-06 -5.63933e-23 0)
(-9.76213e-06 3.74613e-23 0)
(-9.76196e-06 8.58677e-22 0)
(-9.76175e-06 1.85203e-21 0)
(-9.76162e-06 2.26378e-21 0)
(-9.76147e-06 2.12505e-21 0)
(-9.76138e-06 1.33279e-21 0)
(-9.76129e-06 -3.61907e-22 0)
(-9.76124e-06 -1.56592e-21 0)
(-9.76121e-06 -2.20143e-21 0)
(-9.7612e-06 -1.50812e-21 0)
(-1.03364e-05 1.06854e-18 0)
(-1.03364e-05 -2.26853e-19 0)
(-1.03356e-05 5.42194e-20 0)
(-1.03353e-05 -1.05272e-20 0)
(-1.03347e-05 2.77301e-21 0)
(-1.03344e-05 -1.39777e-21 0)
(-1.03339e-05 -9.64326e-23 0)
(-1.03337e-05 2.20225e-22 0)
(-1.03333e-05 -2.89065e-22 0)
(-1.03331e-05 -1.59228e-21 0)
(-1.03327e-05 -8.21605e-22 0)
(-1.03326e-05 1.4958e-21 0)
(-1.03323e-05 2.5099e-21 0)
(-1.03322e-05 1.76219e-21 0)
(-1.0332e-05 8.94715e-22 0)
(-1.03319e-05 7.60797e-22 0)
(-1.03318e-05 -2.45226e-22 0)
(-1.03318e-05 -1.80438e-21 0)
(-1.03317e-05 -1.70376e-21 0)
(-1.03317e-05 -9.70839e-22 0)
(-1.07524e-05 -8.61385e-20 0)
(-1.07524e-05 8.61195e-21 0)
(-1.07515e-05 -4.08603e-21 0)
(-1.07511e-05 -1.28444e-22 0)
(-1.07505e-05 -2.25813e-22 0)
(-1.07502e-05 -5.40493e-22 0)
(-1.07496e-05 3.31457e-23 0)
(-1.07494e-05 1.14591e-21 0)
(-1.07489e-05 1.97466e-21 0)
(-1.07488e-05 1.90824e-21 0)
(-1.07483e-05 1.29265e-21 0)
(-1.07482e-05 1.37067e-21 0)
(-1.07479e-05 6.74926e-22 0)
(-1.07478e-05 4.13504e-22 0)
(-1.07475e-05 -8.09874e-24 0)
(-1.07475e-05 -2.20956e-22 0)
(-1.07473e-05 -4.59805e-22 0)
(-1.07473e-05 -2.73487e-22 0)
(-1.07473e-05 -6.3443e-22 0)
(-1.07473e-05 -6.48953e-22 0)
(-1.1019e-05 -8.47937e-19 0)
(-1.1019e-05 1.77609e-19 0)
(-1.10181e-05 -4.3592e-20 0)
(-1.10177e-05 9.141e-21 0)
(-1.10171e-05 -8.80906e-22 0)
(-1.10167e-05 1.89753e-21 0)
(-1.10162e-05 8.37871e-23 0)
(-1.10159e-05 -2.88015e-22 0)
(-1.10155e-05 7.52618e-22 0)
(-1.10152e-05 1.28976e-21 0)
(-1.10148e-05 -3.05339e-22 0)
(-1.10146e-05 -1.28246e-21 0)
(-1.10144e-05 -5.59254e-22 0)
(-1.10142e-05 1.26242e-21 0)
(-1.1014e-05 1.44932e-21 0)
(-1.10139e-05 9.01059e-23 0)
(-1.10138e-05 -7.91529e-22 0)
(-1.10137e-05 -5.68501e-22 0)
(-1.10137e-05 -6.81589e-22 0)
(-1.10136e-05 -9.07372e-22 0)
(-1.11796e-05 9.94766e-19 0)
(-1.11796e-05 -1.98882e-19 0)
(-1.11786e-05 4.96839e-20 0)
(-1.11782e-05 -7.33049e-21 0)
(-1.11775e-05 4.78056e-21 0)
(-1.11772e-05 1.88083e-21 0)
(-1.11766e-05 -4.31191e-22 0)
(-1.11764e-05 -2.27008e-21 0)
(-1.11758e-05 -1.59537e-21 0)
(-1.11756e-05 8.91877e-22 0)
(-1.11752e-05 6.44215e-22 0)
(-1.11751e-05 -7.51614e-22 0)
(-1.11747e-05 4.1416e-22 0)
(-1.11746e-05 1.55379e-21 0)
(-1.11743e-05 1.42397e-21 0)
(-1.11743e-05 7.38409e-22 0)
(-1.11741e-05 4.2916e-22 0)
(-1.11741e-05 1.22048e-22 0)
(-1.1174e-05 -2.61004e-22 0)
(-1.1174e-05 1.8911e-23 0)
(-1.1276e-05 -2.4737e-19 0)
(-1.1276e-05 4.97259e-20 0)
(-1.12751e-05 -9.86247e-21 0)
(-1.12746e-05 4.80527e-21 0)
(-1.1274e-05 3.16522e-21 0)
(-1.12736e-05 2.48871e-21 0)
(-1.1273e-05 1.50798e-21 0)
(-1.12727e-05 7.13915e-22 0)
(-1.12722e-05 1.1351e-21 0)
(-1.1272e-05 2.22052e-21 0)
(-1.12716e-05 2.78827e-21 0)
(-1.12714e-05 4.78737e-22 0)
(-1.12711e-05 -2.02227e-21 0)
(-1.12709e-05 -2.35442e-21 0)
(-1.12707e-05 -1.67001e-21 0)
(-1.12706e-05 -7.92258e-22 0)
(-1.12705e-05 4.01632e-22 0)
(-1.12704e-05 9.20352e-22 0)
(-1.12704e-05 2.72944e-22 0)
(-1.12703e-05 1.52567e-22 0)
(-1.13379e-05 -6.17327e-19 0)
(-1.13379e-05 1.25221e-19 0)
(-1.13369e-05 -2.78734e-20 0)
(-1.13365e-05 7.21401e-21 0)
(-1.13358e-05 2.463e-22 0)
(-1.13354e-05 1.60692e-21 0)
(-1.13349e-05 1.43229e-21 0)
(-1.13345e-05 9.1284e-22 0)
(-1.13341e-05 2.01213e-22 0)
(-1.13337e-05 -9.00084e-22 0)
(-1.13334e-05 2.68319e-22 0)
(-1.13331e-05 1.07168e-21 0)
(-1.13329e-05 -1.03192e-21 0)
(-1.13327e-05 -2.52203e-21 0)
(-1.13325e-05 -2.04653e-21 0)
(-1.13324e-05 -1.16981e-21 0)
(-1.13323e-05 -8.15469e-23 0)
(-1.13322e-05 -2.80604e-22 0)
(-1.13322e-05 8.1011e-23 0)
(-1.13321e-05 -3.28802e-22 0)
(-1.1383e-05 7.56365e-19 0)
(-1.13829e-05 -1.5282e-19 0)
(-1.1382e-05 3.78811e-20 0)
(-1.13815e-05 -5.4177e-21 0)
(-1.13809e-05 2.35468e-21 0)
(-1.13805e-05 1.28929e-22 0)
(-1.13799e-05 -3.0695e-22 0)
(-1.13796e-05 -3.11448e-23 0)
(-1.13791e-05 -5.14978e-22 0)
(-1.13788e-05 -8.32468e-22 0)
(-1.13785e-05 -1.03839e-21 0)
(-1.13782e-05 -5.23876e-22 0)
(-1.13779e-05 -7.38999e-22 0)
(-1.13778e-05 -1.83488e-21 0)
(-1.13776e-05 -1.0654e-21 0)
(-1.13774e-05 3.43712e-22 0)
(-1.13773e-05 2.02586e-22 0)
(-1.13772e-05 -1.31226e-21 0)
(-1.13772e-05 -4.67912e-22 0)
(-1.13772e-05 -4.99262e-22 0)
(-1.14212e-05 -6.79623e-19 0)
(-1.14212e-05 1.50349e-19 0)
(-1.14202e-05 -3.30085e-20 0)
(-1.14198e-05 9.62853e-21 0)
(-1.14191e-05 -2.02456e-22 0)
(-1.14187e-05 9.75887e-22 0)
(-1.14181e-05 3.02551e-22 0)
(-1.14178e-05 1.7176e-21 0)
(-1.14173e-05 1.977e-21 0)
(-1.1417e-05 2.08588e-21 0)
(-1.14167e-05 1.19988e-21 0)
(-1.14164e-05 2.12723e-22 0)
(-1.14162e-05 -2.74047e-22 0)
(-1.1416e-05 -1.12013e-21 0)
(-1.14158e-05 -8.01159e-22 0)
(-1.14156e-05 3.84278e-22 0)
(-1.14155e-05 -2.02131e-22 0)
(-1.14155e-05 -9.95889e-22 0)
(-1.14154e-05 -1.53201e-21 0)
(-1.14154e-05 -1.24514e-21 0)
(-1.14581e-05 5.25195e-19 0)
(-1.1458e-05 -1.10548e-19 0)
(-1.14571e-05 2.57536e-20 0)
(-1.14566e-05 -5.91398e-21 0)
(-1.14559e-05 1.31521e-21 0)
(-1.14556e-05 9.49864e-22 0)
(-1.1455e-05 2.64962e-21 0)
(-1.14546e-05 3.06408e-21 0)
(-1.14542e-05 1.83883e-21 0)
(-1.14539e-05 -2.08106e-22 0)
(-1.14535e-05 -1.68287e-21 0)
(-1.14533e-05 -1.98345e-21 0)
(-1.1453e-05 -5.72649e-22 0)
(-1.14528e-05 1.23295e-21 0)
(-1.14526e-05 8.39684e-22 0)
(-1.14525e-05 -3.31805e-23 0)
(-1.14523e-05 -2.92824e-22 0)
(-1.14523e-05 2.4954e-22 0)
(-1.14522e-05 -7.1275e-22 0)
(-1.14522e-05 -8.70991e-22 0)
(-1.14967e-05 -8.02043e-20 0)
(-1.14967e-05 1.012e-20 0)
(-1.14956e-05 -1.70176e-21 0)
(-1.14952e-05 3.94989e-22 0)
(-1.14945e-05 -4.89016e-22 0)
(-1.14942e-05 -9.85548e-22 0)
(-1.14935e-05 -8.92523e-22 0)
(-1.14932e-05 -2.22873e-21 0)
(-1.14927e-05 -3.35829e-21 0)
(-1.14925e-05 -3.65474e-21 0)
(-1.1492e-05 -2.82176e-21 0)
(-1.14919e-05 -2.17001e-21 0)
(-1.14915e-05 -1.38992e-21 0)
(-1.14914e-05 1.08429e-21 0)
(-1.14911e-05 1.5829e-21 0)
(-1.1491e-05 -2.9124e-22 0)
(-1.14908e-05 -4.2369e-22 0)
(-1.14908e-05 -1.3731e-22 0)
(-1.14908e-05 -5.75519e-22 0)
(-1.14907e-05 -1.10778e-21 0)
(-1.15389e-05 -7.23181e-19 0)
(-1.15389e-05 1.57984e-19 0)
(-1.15379e-05 -3.51681e-20 0)
(-1.15375e-05 1.00354e-20 0)
(-1.15368e-05 -4.90975e-22 0)
(-1.15364e-05 7.094e-22 0)
(-1.15358e-05 -1.60107e-21 0)
(-1.15355e-05 -2.93277e-21 0)
(-1.1535e-05 -2.49016e-21 0)
(-1.15347e-05 1.76835e-22 0)
(-1.15343e-05 1.3892e-21 0)
(-1.1534e-05 1.19322e-21 0)
(-1.15338e-05 2.39729e-22 0)
(-1.15336e-05 -7.1281e-22 0)
(-1.15334e-05 -1.44174e-22 0)
(-1.15332e-05 -3.50537e-22 0)
(-1.15331e-05 -6.46647e-22 0)
(-1.1533e-05 -7.91238e-22 0)
(-1.1533e-05 -1.60942e-21 0)
(-1.1533e-05 -1.85204e-21 0)
(-1.15862e-05 1.23579e-18 0)
(-1.15862e-05 -2.63169e-19 0)
(-1.15852e-05 6.21341e-20 0)
(-1.15847e-05 -1.27627e-20 0)
(-1.15841e-05 3.36593e-21 0)
(-1.15836e-05 2.44901e-22 0)
(-1.15831e-05 8.47797e-23 0)
(-1.15827e-05 -1.80958e-21 0)
(-1.15822e-05 -1.86119e-21 0)
(-1.15819e-05 -3.37827e-22 0)
(-1.15815e-05 -1.29786e-22 0)
(-1.15813e-05 2.38749e-22 0)
(-1.1581e-05 1.44532e-21 0)
(-1.15808e-05 7.77173e-22 0)
(-1.15806e-05 -7.86328e-22 0)
(-1.15805e-05 -9.75077e-22 0)
(-1.15803e-05 -1.2947e-21 0)
(-1.15803e-05 -7.52181e-22 0)
(-1.15802e-05 1.01256e-22 0)
(-1.15802e-05 -3.59269e-22 0)
(-1.16389e-05 -8.11458e-19 0)
(-1.16389e-05 1.74605e-19 0)
(-1.16378e-05 -3.91771e-20 0)
(-1.16374e-05 9.25049e-21 0)
(-1.16366e-05 -1.17891e-21 0)
(-1.16363e-05 1.3149e-21 0)
(-1.16356e-05 -1.0027e-23 0)
(-1.16354e-05 -1.55276e-21 0)
(-1.16348e-05 -2.45645e-21 0)
(-1.16346e-05 -3.85776e-21 0)
(-1.16341e-05 -2.4293e-21 0)
(-1.1634e-05 -3.83578e-22 0)
(-1.16336e-05 4.3089e-22 0)
(-1.16335e-05 -5.31171e-23 0)
(-1.16332e-05 -1.73682e-21 0)
(-1.16331e-05 -1.33076e-21 0)
(-1.16329e-05 -3.13572e-22 0)
(-1.16329e-05 -4.00181e-22 0)
(-1.16328e-05 -3.32143e-22 0)
(-1.16328e-05 -6.45214e-23 0)
(-1.16954e-05 -2.87829e-19 0)
(-1.16953e-05 6.7149e-20 0)
(-1.16943e-05 -1.18034e-20 0)
(-1.16939e-05 5.51659e-21 0)
(-1.16932e-05 5.13772e-22 0)
(-1.16928e-05 1.2427e-21 0)
(-1.16922e-05 1.74191e-21 0)
(-1.16918e-05 1.45171e-21 0)
(-1.16913e-05 2.08719e-22 0)
(-1.1691e-05 -1.59377e-21 0)
(-1.16906e-05 -1.69909e-21 0)
(-1.16904e-05 -8.45129e-22 0)
(-1.16901e-05 -1.62761e-21 0)
(-1.16899e-05 -2.51452e-21 0)
(-1.16897e-05 -3.54133e-21 0)
(-1.16895e-05 -2.90124e-21 0)
(-1.16894e-05 -4.42183e-22 0)
(-1.16893e-05 9.30718e-22 0)
(-1.16893e-05 -1.10143e-22 0)
(-1.16893e-05 -5.90669e-23 0)
(-1.1751e-05 1.03499e-18 0)
(-1.17509e-05 -2.213e-19 0)
(-1.17499e-05 5.22996e-20 0)
(-1.17495e-05 -1.15782e-20 0)
(-1.17487e-05 8.89274e-22 0)
(-1.17484e-05 -3.4987e-21 0)
(-1.17477e-05 -2.68786e-21 0)
(-1.17474e-05 -1.62184e-21 0)
(-1.17468e-05 3.79258e-23 0)
(-1.17466e-05 5.74892e-22 0)
(-1.17461e-05 -1.40954e-23 0)
(-1.1746e-05 1.06029e-22 0)
(-1.17455e-05 6.33922e-22 0)
(-1.17455e-05 -1.7719e-22 0)
(-1.17451e-05 -2.39212e-21 0)
(-1.17451e-05 -3.02083e-21 0)
(-1.17449e-05 -1.72845e-21 0)
(-1.17449e-05 -1.17722e-22 0)
(-1.17448e-05 8.12398e-22 0)
(-1.17448e-05 9.18097e-22 0)
(-1.17969e-05 -3.04376e-19 0)
(-1.17969e-05 5.77706e-20 0)
(-1.17959e-05 -1.7291e-20 0)
(-1.17954e-05 6.01955e-22 0)
(-1.17947e-05 -1.50641e-21 0)
(-1.17943e-05 -1.5634e-21 0)
(-1.17937e-05 -3.1528e-21 0)
(-1.17934e-05 -2.27661e-21 0)
(-1.17929e-05 -3.22406e-22 0)
(-1.17926e-05 -6.65884e-22 0)
(-1.17922e-05 -9.31909e-22 0)
(-1.1792e-05 -1.42655e-21 0)
(-1.17917e-05 -1.03524e-21 0)
(-1.17915e-05 -8.13285e-22 0)
(-1.17913e-05 3.92817e-22 0)
(-1.17911e-05 9.58355e-22 0)
(-1.1791e-05 9.26856e-23 0)
(-1.17909e-05 -1.35659e-21 0)
(-1.17909e-05 -9.95299e-22 0)
(-1.17909e-05 -8.5187e-24 0)
(-1.18175e-05 -9.71011e-19 0)
(-1.18175e-05 2.05455e-19 0)
(-1.18175e-05 -5.08326e-20 0)
(-1.18175e-05 9.21479e-21 0)
(-1.18175e-05 -2.16355e-21 0)
(-1.18174e-05 1.41526e-21 0)
(-1.18174e-05 1.24209e-21 0)
(-1.18174e-05 1.21495e-21 0)
(-1.18174e-05 7.07728e-22 0)
(-1.18174e-05 -3.03986e-22 0)
(-1.18174e-05 -9.60622e-22 0)
(-1.18174e-05 -1.99222e-21 0)
(-1.18174e-05 -2.67292e-21 0)
(-1.18174e-05 -1.87064e-21 0)
(-1.18174e-05 3.95742e-22 0)
(-1.18174e-05 1.03673e-21 0)
(-1.18174e-05 3.9467e-22 0)
(-1.18174e-05 -6.4728e-22 0)
(-1.18174e-05 -9.58874e-22 0)
(-1.18174e-05 -5.12905e-22 0)
)
;

boundaryField
{
    movingWall
    {
        type            calculated;
        value           nonuniform List<vector> 
20
(
(-1.18175e-05 -0 -0)
(-1.18175e-05 -0 -0)
(-1.18175e-05 -0 -0)
(-1.18175e-05 -0 -0)
(-1.18175e-05 -0 -0)
(-1.18174e-05 -0 -0)
(-1.18174e-05 -0 -0)
(-1.18174e-05 -0 -0)
(-1.18174e-05 -0 -0)
(-1.18174e-05 -0 -0)
(-1.18174e-05 -0 -0)
(-1.18174e-05 -0 -0)
(-1.18174e-05 -0 -0)
(-1.18174e-05 -0 -0)
(-1.18174e-05 -0 -0)
(-1.18174e-05 -0 -0)
(-1.18174e-05 -0 -0)
(-1.18174e-05 -0 -0)
(-1.18174e-05 -0 -0)
(-1.18174e-05 -0 -0)
)
;
    }
    fixedWalls
    {
        type            calculated;
        value           nonuniform List<vector> 
60
(
(-8.6976e-06 -0 -0)
(-9.13932e-06 -0 -0)
(-9.76541e-06 -0 -0)
(-1.03364e-05 -0 -0)
(-1.07524e-05 -0 -0)
(-1.1019e-05 -0 -0)
(-1.11796e-05 -0 -0)
(-1.1276e-05 -0 -0)
(-1.13379e-05 -0 -0)
(-1.1383e-05 -0 -0)
(-1.14212e-05 -0 -0)
(-1.14581e-05 -0 -0)
(-1.14967e-05 -0 -0)
(-1.15389e-05 -0 -0)
(-1.15862e-05 -0 -0)
(-1.16389e-05 -0 -0)
(-1.16954e-05 -0 -0)
(-1.1751e-05 -0 -0)
(-1.17969e-05 -0 -0)
(-1.18175e-05 -0 -0)
(-8.69753e-06 -0 -0)
(-9.13568e-06 -0 -0)
(-9.7612e-06 -0 -0)
(-1.03317e-05 -0 -0)
(-1.07473e-05 -0 -0)
(-1.10136e-05 -0 -0)
(-1.1174e-05 -0 -0)
(-1.12703e-05 -0 -0)
(-1.13321e-05 -0 -0)
(-1.13772e-05 -0 -0)
(-1.14154e-05 -0 -0)
(-1.14522e-05 -0 -0)
(-1.14907e-05 -0 -0)
(-1.1533e-05 -0 -0)
(-1.15802e-05 -0 -0)
(-1.16328e-05 -0 -0)
(-1.16893e-05 -0 -0)
(-1.17448e-05 -0 -0)
(-1.17909e-05 -0 -0)
(-1.18174e-05 -0 -0)
(-8.6976e-06 -0 -0)
(-8.69759e-06 -0 -0)
(-8.69758e-06 -0 -0)
(-8.69757e-06 -0 -0)
(-8.69756e-06 -0 -0)
(-8.69756e-06 -0 -0)
(-8.69755e-06 -0 -0)
(-8.69755e-06 -0 -0)
(-8.69755e-06 -0 -0)
(-8.69754e-06 -0 -0)
(-8.69754e-06 -0 -0)
(-8.69754e-06 -0 -0)
(-8.69754e-06 -0 -0)
(-8.69753e-06 -0 -0)
(-8.69753e-06 -0 -0)
(-8.69753e-06 -0 -0)
(-8.69753e-06 -0 -0)
(-8.69753e-06 -0 -0)
(-8.69753e-06 -0 -0)
(-8.69753e-06 -0 -0)
)
;
    }
    frontAndBack
    {
        type            empty;
    }
}


// ************************************************************************* //
