/*--------------------------------*- C++ -*----------------------------------*\
| =========                 |                                                 |
| \\      /  F ield         | OpenFOAM: The Open Source CFD Toolbox           |
|  \\    /   O peration     | Version:  2312                                  |
|   \\  /    A nd           | Website:  www.openfoam.com                      |
|    \\/     M anipulation  |                                                 |
\*---------------------------------------------------------------------------*/
FoamFile
{
    version     2.0;
    format      ascii;
    arch        "LSB;label=32;scalar=64";
    class       volTensorField;
    location    "6";
    object      kU2;
}
// * * * * * * * * * * * * * * * * * * * * * * * * * * * * * * * * * * * * * //

dimensions      [0 4 -4 0 0 0 0];

internalField   nonuniform List<tensor> 
400
(
(8.6976e-06 -1.26501e-18 -0 -1.27286e-18 1.8513e-31 0 -0 0 0)
(8.69759e-06 2.66618e-19 -0 2.68483e-19 8.23016e-33 -0 -0 -0 0)
(8.69758e-06 -6.40474e-20 -0 -6.44037e-20 4.74257e-34 0 -0 0 0)
(8.69757e-06 1.31049e-20 -0 1.28112e-20 1.93029e-35 -0 -0 -0 0)
(8.69756e-06 -3.68527e-21 -0 -3.17782e-21 1.34648e-36 0 -0 0 0)
(8.69756e-06 -1.65235e-22 -0 3.90255e-22 -7.41403e-39 -0 -0 0 0)
(8.69755e-06 -1.91938e-22 -0 -4.46062e-22 9.84372e-39 0 -0 0 0)
(8.69755e-06 1.83922e-22 -0 -5.05216e-22 -1.06835e-38 0 -0 -0 0)
(8.69755e-06 -1.45223e-22 -0 -2.87254e-22 4.79629e-39 0 -0 0 0)
(8.69754e-06 -3.55636e-23 -0 -1.79826e-22 7.35295e-40 0 -0 0 0)
(8.69754e-06 -9.49401e-23 -0 9.28852e-23 -1.01391e-39 -0 -0 0 0)
(8.69754e-06 -5.84838e-23 -0 3.11911e-22 -2.09734e-39 -0 -0 0 0)
(8.69754e-06 1.27914e-22 -0 -1.29552e-22 -1.90531e-39 0 -0 -0 0)
(8.69753e-06 -5.34513e-22 -0 -8.11756e-22 4.9887e-38 0 -0 0 0)
(8.69753e-06 -7.35759e-22 -0 -3.42736e-22 2.89934e-38 0 -0 0 0)
(8.69753e-06 1.44942e-22 -0 6.63185e-22 1.10518e-38 -0 -0 -0 0)
(8.69753e-06 1.01906e-21 -0 5.02634e-22 5.88921e-38 -0 -0 -0 0)
(8.69753e-06 5.16041e-23 -0 -4.775e-22 -2.8331e-39 0 -0 -0 0)
(8.69753e-06 -5.44261e-22 -0 -1.58809e-22 9.93771e-39 0 -0 0 0)
(8.69753e-06 -1.44005e-22 -0 -5.70663e-23 9.44846e-40 0 -0 0 0)
(9.13932e-06 -2.16928e-19 -0 -2.16849e-19 5.14706e-33 0 -0 0 0)
(9.13932e-06 5.03246e-20 -0 4.86589e-20 2.67935e-34 -0 -0 -0 0)
(9.1387e-06 -1.30362e-20 -0 -1.27658e-20 1.82102e-35 0 -0 0 0)
(9.13846e-06 3.99318e-21 -0 3.91657e-21 1.7114e-36 -0 -0 -0 0)
(9.13799e-06 5.38864e-22 -0 8.25702e-22 4.86914e-38 -0 -0 -0 0)
(9.1378e-06 5.40173e-22 -0 4.14795e-22 2.45202e-38 -0 -0 -0 0)
(9.13737e-06 -6.62972e-22 -0 -9.65922e-22 7.00835e-38 0 -0 0 0)
(9.13725e-06 -4.87257e-22 -0 -6.86508e-22 3.6609e-38 0 -0 0 0)
(9.13687e-06 2.11464e-22 -0 -1.74093e-23 -4.02921e-40 0 -0 -0 0)
(9.13677e-06 3.68837e-23 -0 -5.49327e-22 -2.21754e-39 0 -0 -0 0)
(9.13645e-06 -7.69667e-22 -0 -8.1481e-22 6.86406e-38 0 -0 0 0)
(9.13638e-06 -1.32315e-21 -0 -9.47013e-22 1.37149e-37 0 -0 0 0)
(9.13612e-06 -1.27443e-21 -0 -1.68322e-21 2.348e-37 0 -0 0 0)
(9.13608e-06 -2.20219e-21 -0 -2.54185e-21 6.12695e-37 0 -0 0 0)
(9.13589e-06 -2.36673e-21 -0 -1.98672e-21 5.14677e-37 0 -0 0 0)
(9.13586e-06 -6.34973e-22 -0 -3.35083e-22 2.32894e-38 0 -0 0 0)
(9.13574e-06 1.15421e-21 -0 3.49877e-22 4.42037e-38 -0 -0 -0 0)
(9.13573e-06 4.79967e-22 -0 -5.49813e-22 -2.88857e-38 0 -0 -0 0)
(9.13569e-06 -4.52154e-23 -0 6.0726e-22 -3.00552e-39 -0 -0 0 0)
(9.13568e-06 -1.57261e-22 -0 5.81327e-22 -1.00069e-38 -0 -0 0 0)
(9.76541e-06 1.44633e-18 -0 1.44539e-18 2.14072e-31 -0 -0 -0 0)
(9.76539e-06 -3.12623e-19 -0 -3.13955e-19 1.00507e-32 0 -0 0 0)
(9.7647e-06 7.53297e-20 -0 7.54009e-20 5.8168e-34 -0 -0 -0 0)
(9.76438e-06 -1.37563e-20 -0 -1.43956e-20 2.02809e-35 0 -0 0 0)
(9.7639e-06 6.05058e-21 -0 4.82382e-21 2.98927e-36 -0 -0 -0 0)
(9.76362e-06 3.09484e-23 -0 -8.89424e-22 -2.81926e-39 0 -0 -0 0)
(9.7632e-06 -1.83868e-21 -0 -1.94626e-21 3.66534e-37 0 -0 0 0)
(9.76297e-06 -2.83427e-21 -0 -1.97328e-21 5.72859e-37 0 -0 0 0)
(9.76261e-06 -1.47223e-21 -0 -8.92832e-22 1.34642e-37 0 -0 0 0)
(9.76241e-06 -2.96268e-22 -0 5.63933e-23 -1.71142e-39 -0 -0 0 0)
(9.76213e-06 -4.05765e-23 -0 -3.74613e-23 1.55708e-40 0 -0 0 0)
(9.76196e-06 -5.52645e-22 -0 -8.58677e-22 4.86114e-38 0 -0 0 0)
(9.76175e-06 -1.31473e-21 -0 -1.85203e-21 2.49435e-37 0 -0 0 0)
(9.76162e-06 -1.85111e-21 -0 -2.26378e-21 4.29284e-37 0 -0 0 0)
(9.76147e-06 -1.57099e-21 -0 -2.12505e-21 3.42001e-37 0 -0 0 0)
(9.76138e-06 -1.23759e-21 -0 -1.33279e-21 1.68978e-37 0 -0 0 0)
(9.76129e-06 -5.96019e-23 -0 3.61907e-22 -2.20978e-39 -0 -0 0 0)
(9.76124e-06 1.40565e-21 -0 1.56592e-21 2.25498e-37 -0 -0 -0 0)
(9.76121e-06 1.61264e-21 -0 2.20143e-21 3.63696e-37 -0 -0 -0 0)
(9.7612e-06 5.07304e-22 -0 1.50812e-21 7.83793e-38 -0 -0 -0 0)
(1.03364e-05 -1.06177e-18 -0 -1.06854e-18 1.09761e-31 0 -0 0 0)
(1.03364e-05 2.26104e-19 -0 2.26853e-19 4.96229e-33 -0 -0 -0 0)
(1.03356e-05 -5.41303e-20 -0 -5.42194e-20 2.83961e-34 0 -0 0 0)
(1.03353e-05 1.05378e-20 -0 1.05272e-20 1.07335e-35 -0 -0 -0 0)
(1.03347e-05 -2.94954e-21 -0 -2.77301e-21 7.91422e-37 0 -0 0 0)
(1.03344e-05 1.3258e-21 -0 1.39777e-21 1.79319e-37 -0 -0 -0 0)
(1.03339e-05 3.51702e-22 -0 9.64326e-23 3.28197e-39 -0 -0 -0 0)
(1.03337e-05 -1.70391e-22 -0 -2.20225e-22 3.63126e-39 0 -0 0 0)
(1.03333e-05 -6.94342e-22 -0 2.89065e-22 -1.94237e-38 -0 -0 0 0)
(1.03331e-05 8.55009e-22 -0 1.59228e-21 1.31753e-37 -0 -0 -0 0)
(1.03327e-05 1.19355e-21 -0 8.21605e-22 9.49048e-38 -0 -0 -0 0)
(1.03326e-05 -3.33191e-22 -0 -1.4958e-21 4.82345e-38 0 -0 0 0)
(1.03323e-05 -1.78602e-21 -0 -2.5099e-21 4.33856e-37 0 -0 0 0)
(1.03322e-05 -1.66277e-21 -0 -1.76219e-21 2.83591e-37 0 -0 0 0)
(1.0332e-05 -1.02699e-21 -0 -8.94715e-22 8.89342e-38 0 -0 0 0)
(1.03319e-05 -1.19687e-21 -0 -7.60797e-22 8.81322e-38 0 -0 0 0)
(1.03318e-05 -7.40965e-22 -0 2.45226e-22 -1.75869e-38 -0 -0 0 0)
(1.03318e-05 5.53012e-22 -0 1.80438e-21 9.658e-38 -0 -0 -0 0)
(1.03317e-05 9.77401e-22 -0 1.70376e-21 1.61179e-37 -0 -0 -0 0)
(1.03317e-05 9.30379e-22 -0 9.70839e-22 8.74249e-38 -0 -0 -0 0)
(1.07524e-05 8.0231e-20 -0 8.61385e-20 6.42739e-34 -0 -0 -0 0)
(1.07524e-05 -6.70274e-21 -0 -8.61195e-21 5.36846e-36 0 -0 0 0)
(1.07515e-05 4.72504e-21 -0 4.08603e-21 1.79572e-36 -0 -0 -0 0)
(1.07511e-05 1.5456e-23 -0 1.28444e-22 1.84653e-40 -0 -0 -0 0)
(1.07505e-05 -1.5291e-22 -0 2.25813e-22 -3.21186e-39 -0 -0 0 0)
(1.07502e-05 6.93149e-22 -0 5.40493e-22 3.48497e-38 -0 -0 -0 0)
(1.07496e-05 1.29263e-21 -0 -3.31457e-23 -3.98574e-39 0 -0 -0 0)
(1.07494e-05 3.03264e-22 -0 -1.14591e-21 -3.23285e-38 0 -0 -0 0)
(1.07489e-05 -1.64733e-21 -0 -1.97466e-21 3.02627e-37 0 -0 0 0)
(1.07488e-05 -2.91836e-21 -0 -1.90824e-21 5.181e-37 0 -0 0 0)
(1.07483e-05 -2.67865e-21 -0 -1.29265e-21 3.22148e-37 0 -0 0 0)
(1.07482e-05 -2.49065e-21 -0 -1.37067e-21 3.17621e-37 0 -0 0 0)
(1.07479e-05 -1.60767e-21 -0 -6.74926e-22 1.00955e-37 0 -0 0 0)
(1.07478e-05 -8.66596e-22 -0 -4.13504e-22 3.33409e-38 0 -0 0 0)
(1.07475e-05 -3.44134e-22 -0 8.09874e-24 -2.5932e-40 -0 -0 0 0)
(1.07475e-05 -2.34961e-22 -0 2.20956e-22 -4.83053e-39 -0 -0 0 0)
(1.07473e-05 -1.23303e-22 -0 4.59805e-22 -5.2753e-39 -0 -0 0 0)
(1.07473e-05 -2.92478e-22 -0 2.73487e-22 -7.44271e-39 -0 -0 0 0)
(1.07473e-05 -7.699e-23 -0 6.3443e-22 -4.54485e-39 -0 -0 0 0)
(1.07473e-05 8.9758e-22 -0 6.48953e-22 5.41988e-38 -0 -0 -0 0)
(1.1019e-05 8.42633e-19 -0 8.47937e-19 6.48423e-32 -0 -0 -0 0)
(1.1019e-05 -1.76615e-19 -0 -1.77609e-19 2.84674e-33 0 -0 0 0)
(1.10181e-05 4.46345e-20 -0 4.3592e-20 1.76591e-34 -0 -0 -0 0)
(1.10177e-05 -8.51737e-21 -0 -9.141e-21 7.06655e-36 0 -0 0 0)
(1.10171e-05 9.77909e-22 -0 8.80906e-22 7.81917e-38 -0 -0 -0 0)
(1.10167e-05 -2.24856e-21 -0 -1.89753e-21 3.87293e-37 0 -0 0 0)
(1.10162e-05 -6.77776e-22 -0 -8.37871e-23 5.15503e-39 0 -0 0 0)
(1.10159e-05 3.56533e-22 -0 2.88015e-22 9.3217e-39 -0 -0 -0 0)
(1.10155e-05 -3.16654e-23 -0 -7.52618e-22 2.16351e-39 0 -0 0 0)
(1.10152e-05 -2.72821e-21 -0 -1.28976e-21 3.19443e-37 0 -0 0 0)
(1.10148e-05 -2.00906e-21 -0 3.05339e-22 -5.56925e-38 -0 -0 0 0)
(1.10146e-05 -8.38609e-23 -0 1.28246e-21 -9.76411e-39 -0 -0 0 0)
(1.10144e-05 3.40005e-22 -0 5.59254e-22 1.72637e-38 -0 -0 -0 0)
(1.10142e-05 -7.19793e-22 -0 -1.26242e-21 8.25009e-38 0 -0 0 0)
(1.1014e-05 -1.52146e-21 -0 -1.44932e-21 2.00208e-37 0 -0 0 0)
(1.10139e-05 -1.28443e-21 -0 -9.01059e-23 1.05081e-38 0 -0 0 0)
(1.10138e-05 6.34714e-23 -0 7.91529e-22 4.56151e-39 -0 -0 -0 0)
(1.10137e-05 -8.48281e-23 -0 5.68501e-22 -4.37862e-39 -0 -0 0 0)
(1.10137e-05 2.1671e-22 -0 6.81589e-22 1.34113e-38 -0 -0 -0 0)
(1.10136e-05 6.19206e-22 -0 9.07372e-22 5.10141e-38 -0 -0 -0 0)
(1.11796e-05 -9.84276e-19 -0 -9.94766e-19 8.75813e-32 0 -0 0 0)
(1.11796e-05 1.97002e-19 -0 1.98882e-19 3.50461e-33 -0 -0 -0 0)
(1.11786e-05 -4.83409e-20 -0 -4.96839e-20 2.14854e-34 0 -0 0 0)
(1.11782e-05 7.65913e-21 -0 7.33049e-21 5.02272e-36 -0 -0 -0 0)
(1.11775e-05 -4.9444e-21 -0 -4.78056e-21 2.11469e-36 0 -0 0 0)
(1.11772e-05 -2.69502e-21 -0 -1.88083e-21 4.53501e-37 0 -0 0 0)
(1.11766e-05 -1.42389e-21 -0 4.31191e-22 -5.49333e-38 -0 -0 0 0)
(1.11764e-05 6.63316e-22 -0 2.27008e-21 1.34729e-37 -0 -0 -0 0)
(1.11758e-05 1.41386e-21 -0 1.59537e-21 2.01832e-37 -0 -0 -0 0)
(1.11756e-05 -7.20039e-22 -0 -8.91877e-22 5.7463e-38 0 -0 0 0)
(1.11752e-05 -1.71695e-21 -0 -6.44215e-22 9.89771e-38 0 -0 0 0)
(1.11751e-05 -7.63112e-22 -0 7.51614e-22 -5.13255e-38 -0 -0 0 0)
(1.11747e-05 -6.99915e-22 -0 -4.1416e-22 2.59405e-38 0 -0 0 0)
(1.11746e-05 -1.46133e-21 -0 -1.55379e-21 2.03192e-37 0 -0 0 0)
(1.11743e-05 -2.09917e-21 -0 -1.42397e-21 2.67503e-37 0 -0 0 0)
(1.11743e-05 -1.24288e-21 -0 -7.38409e-22 8.21306e-38 0 -0 0 0)
(1.11741e-05 -6.74833e-22 -0 -4.2916e-22 2.59181e-38 0 -0 0 0)
(1.11741e-05 -5.46074e-22 -0 -1.22048e-22 5.96448e-39 0 -0 0 0)
(1.1174e-05 3.05986e-22 -0 2.61004e-22 7.14726e-39 -0 -0 -0 0)
(1.1174e-05 -1.61378e-23 -0 -1.8911e-23 2.73118e-41 0 -0 0 0)
(1.1276e-05 2.42211e-19 -0 2.4737e-19 5.31355e-33 -0 -0 -0 0)
(1.1276e-05 -4.78748e-20 -0 -4.97259e-20 2.11123e-34 0 -0 0 0)
(1.12751e-05 1.03379e-20 -0 9.86247e-21 9.04276e-36 -0 -0 -0 0)
(1.12746e-05 -3.34277e-21 -0 -4.80527e-21 1.4247e-36 0 -0 0 0)
(1.1274e-05 -2.2773e-21 -0 -3.16522e-21 6.39362e-37 0 -0 0 0)
(1.12736e-05 -2.818e-21 -0 -2.48871e-21 6.22088e-37 0 -0 0 0)
(1.1273e-05 -1.89199e-21 -0 -1.50798e-21 2.53089e-37 0 -0 0 0)
(1.12727e-05 -2.3051e-21 -0 -7.13915e-22 1.45985e-37 0 -0 0 0)
(1.12722e-05 -2.64044e-21 -0 -1.1351e-21 2.65888e-37 0 -0 0 0)
(1.1272e-05 -1.99349e-21 -0 -2.22052e-21 3.92707e-37 0 -0 0 0)
(1.12716e-05 -3.1786e-21 -0 -2.78827e-21 7.86296e-37 0 -0 0 0)
(1.12714e-05 -2.83379e-21 -0 -4.78737e-22 1.20362e-37 0 -0 0 0)
(1.12711e-05 -6.93581e-22 -0 2.02227e-21 -1.24443e-37 -0 -0 0 0)
(1.12709e-05 1.35686e-21 -0 2.35442e-21 2.83439e-37 -0 -0 -0 0)
(1.12707e-05 1.89871e-21 -0 1.67001e-21 2.81337e-37 -0 -0 -0 0)
(1.12706e-05 1.44277e-21 -0 7.92258e-22 1.01418e-37 -0 -0 -0 0)
(1.12705e-05 -4.40868e-22 -0 -4.01632e-22 1.57107e-38 0 -0 0 0)
(1.12704e-05 -9.026e-22 -0 -9.20352e-22 7.37072e-38 0 -0 0 0)
(1.12704e-05 -4.65625e-22 -0 -2.72944e-22 1.12764e-38 0 -0 0 0)
(1.12703e-05 -3.55181e-22 -0 -1.52567e-22 4.80811e-39 0 -0 0 0)
(1.13379e-05 6.12023e-19 -0 6.17327e-19 3.33236e-32 -0 -0 -0 0)
(1.13379e-05 -1.22544e-19 -0 -1.25221e-19 1.35344e-33 0 -0 0 0)
(1.13369e-05 2.68305e-20 -0 2.78734e-20 6.59665e-35 -0 -0 -0 0)
(1.13365e-05 -7.6834e-21 -0 -7.21401e-21 4.88937e-36 0 -0 0 0)
(1.13358e-05 -7.37899e-22 -0 -2.463e-22 1.60328e-38 0 -0 0 0)
(1.13354e-05 -2.03414e-21 -0 -1.60692e-21 2.88363e-37 0 -0 0 0)
(1.13349e-05 -2.23822e-21 -0 -1.43229e-21 2.82824e-37 0 -0 0 0)
(1.13345e-05 -2.35586e-21 -0 -9.1284e-22 1.89733e-37 0 -0 0 0)
(1.13341e-05 -1.80308e-21 -0 -2.01213e-22 3.20099e-38 0 -0 0 0)
(1.13337e-05 4.48509e-22 -0 9.00084e-22 3.5619e-38 -0 -0 -0 0)
(1.13334e-05 2.91918e-22 -0 -2.68319e-22 -6.91116e-39 0 -0 -0 0)
(1.13331e-05 -8.89582e-22 -0 -1.07168e-21 8.41202e-38 0 -0 0 0)
(1.13329e-05 -6.86288e-22 -0 1.03192e-21 -6.24903e-38 -0 -0 0 0)
(1.13327e-05 7.59798e-22 -0 2.52203e-21 1.69089e-37 -0 -0 -0 0)
(1.13325e-05 1.69256e-21 -0 2.04653e-21 3.05658e-37 -0 -0 -0 0)
(1.13324e-05 1.29349e-21 -0 1.16981e-21 1.33523e-37 -0 -0 -0 0)
(1.13323e-05 -5.90168e-22 -0 8.15469e-23 -4.24684e-39 -0 -0 0 0)
(1.13322e-05 -1.04735e-21 -0 2.80604e-22 -2.59342e-38 -0 -0 0 0)
(1.13322e-05 -1.21747e-21 -0 -8.1011e-23 8.70342e-39 0 -0 0 0)
(1.13321e-05 -5.7633e-22 -0 3.28802e-22 -1.67222e-38 -0 -0 0 0)
(1.1383e-05 -7.46451e-19 -0 -7.56365e-19 4.95995e-32 0 -0 0 0)
(1.13829e-05 1.51071e-19 -0 1.5282e-19 2.02819e-33 -0 -0 -0 0)
(1.1382e-05 -3.75198e-20 -0 -3.78811e-20 1.24872e-34 0 -0 0 0)
(1.13815e-05 3.92318e-21 -0 5.4177e-21 1.86746e-36 -0 -0 -0 0)
(1.13809e-05 -3.71895e-21 -0 -2.35468e-21 7.69443e-37 0 -0 0 0)
(1.13805e-05 -1.11749e-21 -0 -1.28929e-22 1.26599e-38 0 -0 0 0)
(1.13799e-05 -1.09718e-21 -0 3.0695e-22 -2.95942e-38 -0 -0 0 0)
(1.13796e-05 -5.67338e-22 -0 3.11448e-23 -1.55275e-39 -0 -0 0 0)
(1.13791e-05 8.98028e-23 -0 5.14978e-22 4.06415e-39 -0 -0 -0 0)
(1.13788e-05 7.28214e-22 -0 8.32468e-22 5.32757e-38 -0 -0 -0 0)
(1.13785e-05 7.62027e-22 -0 1.03839e-21 6.95418e-38 -0 -0 -0 0)
(1.13782e-05 2.10538e-22 -0 5.23876e-22 9.69358e-39 -0 -0 -0 0)
(1.13779e-05 6.43535e-23 -0 7.38999e-22 4.17977e-39 -0 -0 -0 0)
(1.13778e-05 1.59711e-22 -0 1.83488e-21 2.57564e-38 -0 -0 -0 0)
(1.13776e-05 -5.09597e-23 -0 1.0654e-21 -4.77189e-39 -0 -0 0 0)
(1.13774e-05 -9.01462e-22 -0 -3.43712e-22 2.72331e-38 0 -0 0 0)
(1.13773e-05 -1.5944e-21 -0 -2.02586e-22 2.839e-38 0 -0 0 0)
(1.13772e-05 -6.66488e-22 -0 1.31226e-21 -7.68732e-38 -0 -0 0 0)
(1.13772e-05 -5.52235e-22 -0 4.67912e-22 -2.27119e-38 -0 -0 0 0)
(1.13772e-05 -3.52049e-22 -0 4.99262e-22 -1.54489e-38 -0 -0 0 0)
(1.14212e-05 6.75107e-19 -0 6.79623e-19 4.01724e-32 -0 -0 -0 0)
(1.14212e-05 -1.5071e-19 -0 -1.50349e-19 1.98395e-33 0 -0 0 0)
(1.14202e-05 3.35409e-20 -0 3.30085e-20 9.69448e-35 -0 -0 -0 0)
(1.14198e-05 -9.05752e-21 -0 -9.62853e-21 7.6368e-36 0 -0 0 0)
(1.14191e-05 8.65182e-23 -0 2.02456e-22 1.53393e-39 -0 -0 -0 0)
(1.14187e-05 -8.96323e-22 -0 -9.75887e-22 7.66031e-38 0 -0 0 0)
(1.14181e-05 -4.67525e-22 -0 -3.02551e-22 1.23882e-38 0 -0 0 0)
(1.14178e-05 -1.74503e-21 -0 -1.7176e-21 2.62508e-37 0 -0 0 0)
(1.14173e-05 -2.32609e-21 -0 -1.977e-21 4.02779e-37 0 -0 0 0)
(1.1417e-05 -2.37884e-21 -0 -2.08588e-21 4.34611e-37 0 -0 0 0)
(1.14167e-05 -2.23571e-21 -0 -1.19988e-21 2.3497e-37 0 -0 0 0)
(1.14164e-05 -1.40929e-21 -0 -2.12723e-22 2.62595e-38 0 -0 0 0)
(1.14162e-05 -7.60798e-22 -0 2.74047e-22 -1.82631e-38 -0 -0 0 0)
(1.1416e-05 -1.05324e-22 -0 1.12013e-21 -1.03344e-38 -0 -0 0 0)
(1.14158e-05 1.31353e-22 -0 8.01159e-22 9.21832e-39 -0 -0 -0 0)
(1.14156e-05 -1.08655e-21 -0 -3.84278e-22 3.6576e-38 0 -0 0 0)
(1.14155e-05 -7.93273e-22 -0 2.02131e-22 -1.40462e-38 -0 -0 0 0)
(1.14155e-05 -3.65128e-22 -0 9.95889e-22 -3.1854e-38 -0 -0 0 0)
(1.14154e-05 5.06687e-23 -0 1.53201e-21 6.80004e-39 -0 -0 -0 0)
(1.14154e-05 3.38485e-22 -0 1.24514e-21 3.69204e-38 -0 -0 -0 0)
(1.14581e-05 -5.22502e-19 -0 -5.25195e-19 2.39496e-32 0 -0 0 0)
(1.1458e-05 1.09515e-19 -0 1.10548e-19 1.05661e-33 -0 -0 -0 0)
(1.14571e-05 -2.68195e-20 -0 -2.57536e-20 6.02858e-35 0 -0 0 0)
(1.14566e-05 5.16385e-21 -0 5.91398e-21 2.66561e-36 -0 -0 -0 0)
(1.14559e-05 -1.6452e-21 -0 -1.31521e-21 1.88879e-37 0 -0 0 0)
(1.14556e-05 -8.48385e-22 -0 -9.49864e-22 7.03459e-38 0 -0 0 0)
(1.1455e-05 -1.88515e-21 -0 -2.64962e-21 4.36048e-37 0 -0 0 0)
(1.14546e-05 -3.03959e-21 -0 -3.06408e-21 8.13079e-37 0 -0 0 0)
(1.14542e-05 -3.00414e-21 -0 -1.83883e-21 4.82278e-37 0 -0 0 0)
(1.14539e-05 -1.85255e-21 -0 2.08106e-22 -3.3659e-38 -0 -0 0 0)
(1.14535e-05 4.13261e-22 -0 1.68287e-21 6.07206e-38 -0 -0 -0 0)
(1.14533e-05 1.68764e-21 -0 1.98345e-21 2.92262e-37 -0 -0 -0 0)
(1.1453e-05 1.14538e-21 -0 5.72649e-22 5.72689e-38 -0 -0 -0 0)
(1.14528e-05 -1.43353e-21 -0 -1.23295e-21 1.54327e-37 0 -0 0 0)
(1.14526e-05 -1.79561e-21 -0 -8.39684e-22 1.31651e-37 0 -0 0 0)
(1.14525e-05 -1.20826e-21 -0 3.31805e-23 -3.50061e-39 -0 -0 0 0)
(1.14523e-05 -1.25039e-22 -0 2.92824e-22 -3.19713e-39 -0 -0 0 0)
(1.14523e-05 -8.21589e-22 -0 -2.4954e-22 1.79021e-38 0 -0 0 0)
(1.14522e-05 -1.29707e-21 -0 7.1275e-22 -8.07256e-38 -0 -0 0 0)
(1.14522e-05 -1.56315e-22 -0 8.70991e-22 -1.18884e-38 -0 -0 0 0)
(1.14967e-05 7.69941e-20 -0 8.02043e-20 5.37135e-34 -0 -0 -0 0)
(1.14967e-05 -8.64618e-21 -0 -1.012e-20 7.61086e-36 0 -0 0 0)
(1.14956e-05 6.33416e-22 -0 1.70176e-21 9.37684e-38 -0 -0 -0 0)
(1.14952e-05 -2.17608e-21 -0 -3.94989e-22 7.47725e-38 0 -0 0 0)
(1.14945e-05 -1.66719e-21 -0 4.89016e-22 -7.09281e-38 -0 -0 0 0)
(1.14942e-05 -1.31575e-21 -0 9.85548e-22 -1.12817e-37 -0 -0 0 0)
(1.14935e-05 -4.59384e-22 -0 8.92523e-22 -3.56732e-38 -0 -0 0 0)
(1.14932e-05 9.57779e-22 -0 2.22873e-21 1.85729e-37 -0 -0 -0 0)
(1.14927e-05 2.42534e-21 -0 3.35829e-21 7.08711e-37 -0 -0 -0 0)
(1.14925e-05 3.28617e-21 -0 3.65474e-21 1.04504e-36 -0 -0 -0 0)
(1.1492e-05 3.48307e-21 -0 2.82176e-21 8.55237e-37 -0 -0 -0 0)
(1.14919e-05 2.33249e-21 -0 2.17001e-21 4.40444e-37 -0 -0 -0 0)
(1.14915e-05 1.59937e-21 -0 1.38992e-21 1.93448e-37 -0 -0 -0 0)
(1.14914e-05 -5.367e-22 -0 -1.08429e-21 5.06414e-38 0 -0 0 0)
(1.14911e-05 -2.07687e-21 -0 -1.5829e-21 2.86089e-37 0 -0 0 0)
(1.1491e-05 -9.92309e-22 -0 2.9124e-22 -2.51501e-38 -0 -0 0 0)
(1.14908e-05 1.27507e-22 -0 4.2369e-22 4.70143e-39 -0 -0 -0 0)
(1.14908e-05 -3.79595e-22 -0 1.3731e-22 -4.53598e-39 -0 -0 0 0)
(1.14908e-05 -6.24345e-22 -0 5.75519e-22 -3.12705e-38 -0 -0 0 0)
(1.14907e-05 -4.03748e-22 -0 1.10778e-21 -3.89238e-38 -0 -0 0 0)
(1.15389e-05 7.23398e-19 -0 7.23181e-19 4.53376e-32 -0 -0 -0 0)
(1.15389e-05 -1.56568e-19 -0 -1.57984e-19 2.14363e-33 0 -0 0 0)
(1.15379e-05 3.54209e-20 -0 3.51681e-20 1.07965e-34 -0 -0 -0 0)
(1.15375e-05 -1.01638e-20 -0 -1.00354e-20 8.84059e-36 0 -0 0 0)
(1.15368e-05 -7.81854e-22 -0 4.90975e-22 -3.32736e-38 -0 -0 0 0)
(1.15364e-05 -2.96514e-21 -0 -7.094e-22 1.82333e-37 0 -0 0 0)
(1.15358e-05 -1.08655e-21 -0 1.60107e-21 -1.50805e-37 -0 -0 0 0)
(1.15355e-05 1.26611e-21 -0 2.93277e-21 3.21896e-37 -0 -0 -0 0)
(1.1535e-05 2.39389e-21 -0 2.49016e-21 5.16791e-37 -0 -0 -0 0)
(1.15347e-05 1.33334e-21 -0 -1.76835e-22 -2.0441e-38 0 -0 -0 0)
(1.15343e-05 -9.41782e-22 -0 -1.3892e-21 1.13429e-37 0 -0 0 0)
(1.1534e-05 -1.74789e-21 -0 -1.19322e-21 1.80823e-37 0 -0 0 0)
(1.15338e-05 -1.55851e-21 -0 -2.39729e-22 3.23936e-38 0 -0 0 0)
(1.15336e-05 8.93831e-23 -0 7.1281e-22 5.52416e-39 -0 -0 -0 0)
(1.15334e-05 -2.31506e-22 -0 1.44174e-22 -2.89397e-39 -0 -0 0 0)
(1.15332e-05 8.14615e-22 -0 3.50537e-22 2.47591e-38 -0 -0 -0 0)
(1.15331e-05 6.17256e-22 -0 6.46647e-22 3.46087e-38 -0 -0 -0 0)
(1.1533e-05 -9.03662e-23 -0 7.91238e-22 -6.19968e-39 -0 -0 0 0)
(1.1533e-05 8.04887e-22 -0 1.60942e-21 1.12321e-37 -0 -0 -0 0)
(1.1533e-05 4.77703e-22 -0 1.85204e-21 7.67127e-38 -0 -0 -0 0)
(1.15862e-05 -1.23008e-18 -0 -1.23579e-18 1.31201e-31 0 -0 0 0)
(1.15862e-05 2.62821e-19 -0 2.63169e-19 5.96974e-33 -0 -0 -0 0)
(1.15852e-05 -6.18323e-20 -0 -6.21341e-20 3.31621e-34 0 -0 0 0)
(1.15847e-05 1.20591e-20 -0 1.27627e-20 1.32853e-35 -0 -0 -0 0)
(1.15841e-05 -4.13987e-21 -0 -3.36593e-21 1.2029e-36 0 -0 0 0)
(1.15836e-05 -9.16293e-22 -0 -2.44901e-22 1.93723e-38 0 -0 0 0)
(1.15831e-05 -1.42434e-21 -0 -8.47797e-23 1.04251e-38 0 -0 0 0)
(1.15827e-05 1.02272e-21 -0 1.80958e-21 1.59781e-37 -0 -0 -0 0)
(1.15822e-05 1.51873e-21 -0 1.86119e-21 2.44049e-37 -0 -0 -0 0)
(1.15819e-05 7.56519e-22 -0 3.37827e-22 2.20666e-38 -0 -0 -0 0)
(1.15815e-05 -1.29189e-22 -0 1.29786e-22 -1.44774e-39 -0 -0 0 0)
(1.15813e-05 -4.95623e-22 -0 -2.38749e-22 1.02173e-38 0 -0 0 0)
(1.1581e-05 -1.25867e-21 -0 -1.44532e-21 1.57083e-37 0 -0 0 0)
(1.15808e-05 -1.34597e-21 -0 -7.77173e-22 9.03265e-38 0 -0 0 0)
(1.15806e-05 -1.12399e-22 -0 7.86328e-22 -7.63193e-39 -0 -0 0 0)
(1.15805e-05 5.17209e-22 -0 9.75077e-22 4.35491e-38 -0 -0 -0 0)
(1.15803e-05 6.20266e-22 -0 1.2947e-21 6.93467e-38 -0 -0 -0 0)
(1.15803e-05 6.85847e-22 -0 7.52181e-22 4.45483e-38 -0 -0 -0 0)
(1.15802e-05 1.18841e-22 -0 -1.01256e-22 -1.03913e-39 0 -0 -0 0)
(1.15802e-05 -6.26091e-24 -0 3.59269e-22 -1.94241e-40 -0 -0 0 0)
(1.16389e-05 8.08204e-19 -0 8.11458e-19 5.63477e-32 -0 -0 -0 0)
(1.16389e-05 -1.72862e-19 -0 -1.74605e-19 2.59326e-33 0 -0 0 0)
(1.16378e-05 3.93266e-20 -0 3.91771e-20 1.32388e-34 -0 -0 -0 0)
(1.16374e-05 -1.06517e-20 -0 -9.25049e-21 8.46699e-36 0 -0 0 0)
(1.16366e-05 -2.66204e-23 -0 1.17891e-21 -2.69691e-39 -0 -0 0 0)
(1.16363e-05 -1.82544e-21 -0 -1.3149e-21 2.06273e-37 0 -0 0 0)
(1.16356e-05 -8.79246e-22 -0 1.0027e-23 -7.57693e-40 -0 -0 0 0)
(1.16354e-05 7.333e-22 -0 1.55276e-21 9.78598e-38 -0 -0 -0 0)
(1.16348e-05 1.44184e-21 -0 2.45645e-21 3.04415e-37 -0 -0 -0 0)
(1.16346e-05 2.81989e-21 -0 3.85776e-21 9.35008e-37 -0 -0 -0 0)
(1.16341e-05 3.12197e-21 -0 2.4293e-21 6.51894e-37 -0 -0 -0 0)
(1.1634e-05 1.27307e-21 -0 3.83578e-22 4.19739e-38 -0 -0 -0 0)
(1.16336e-05 1.76557e-22 -0 -4.3089e-22 -6.5394e-39 0 -0 -0 0)
(1.16335e-05 1.66947e-22 -0 5.31171e-23 7.6226e-40 -0 -0 -0 0)
(1.16332e-05 1.57017e-21 -0 1.73682e-21 2.34425e-37 -0 -0 -0 0)
(1.16331e-05 7.21115e-22 -0 1.33076e-21 8.24916e-38 -0 -0 -0 0)
(1.16329e-05 3.90707e-22 -0 3.13572e-22 1.05317e-38 -0 -0 -0 0)
(1.16329e-05 7.68948e-22 -0 4.00181e-22 2.64524e-38 -0 -0 -0 0)
(1.16328e-05 6.72427e-22 -0 3.32143e-22 1.91993e-38 -0 -0 -0 0)
(1.16328e-05 3.0516e-23 -0 6.45214e-23 1.69257e-40 -0 -0 -0 0)
(1.16954e-05 2.90108e-19 -0 2.87829e-19 7.13968e-33 -0 -0 -0 0)
(1.16953e-05 -6.54264e-20 -0 -6.7149e-20 3.75646e-34 0 -0 0 0)
(1.16943e-05 1.17629e-20 -0 1.18034e-20 1.18725e-35 -0 -0 -0 0)
(1.16939e-05 -6.15113e-21 -0 -5.51659e-21 2.9018e-36 0 -0 0 0)
(1.16932e-05 -1.55708e-21 -0 -5.13772e-22 6.84147e-38 0 -0 0 0)
(1.16928e-05 -1.20518e-21 -0 -1.2427e-21 1.28086e-37 0 -0 0 0)
(1.16922e-05 -1.32342e-21 -0 -1.74191e-21 1.97164e-37 0 -0 0 0)
(1.16918e-05 -2.24732e-21 -0 -1.45171e-21 2.79038e-37 0 -0 0 0)
(1.16913e-05 -1.15228e-21 -0 -2.08719e-22 2.0571e-38 0 -0 0 0)
(1.1691e-05 5.27518e-23 -0 1.59377e-21 7.19136e-39 -0 -0 -0 0)
(1.16906e-05 1.05845e-21 -0 1.69909e-21 1.53833e-37 -0 -0 -0 0)
(1.16904e-05 1.41966e-21 -0 8.45129e-22 1.02631e-37 -0 -0 -0 0)
(1.16901e-05 1.3993e-21 -0 1.62761e-21 1.94825e-37 -0 -0 -0 0)
(1.16899e-05 2.32931e-21 -0 2.51452e-21 5.0104e-37 -0 -0 -0 0)
(1.16897e-05 3.32887e-21 -0 3.54133e-21 1.00846e-36 -0 -0 -0 0)
(1.16895e-05 2.75577e-21 -0 2.90124e-21 6.83958e-37 -0 -0 -0 0)
(1.16894e-05 1.46403e-21 -0 4.42183e-22 5.53808e-38 -0 -0 -0 0)
(1.16893e-05 8.82202e-22 -0 -9.30718e-22 -7.02419e-38 0 -0 -0 0)
(1.16893e-05 9.56118e-22 -0 1.10143e-22 9.00911e-39 -0 -0 -0 0)
(1.16893e-05 1.52626e-22 -0 5.90669e-23 7.71233e-40 -0 -0 -0 0)
(1.1751e-05 -1.03071e-18 -0 -1.03499e-18 9.07815e-32 0 -0 0 0)
(1.17509e-05 2.19841e-19 -0 2.213e-19 4.14018e-33 -0 -0 -0 0)
(1.17499e-05 -5.23817e-20 -0 -5.22996e-20 2.33154e-34 0 -0 0 0)
(1.17495e-05 1.13987e-20 -0 1.15782e-20 1.12326e-35 -0 -0 -0 0)
(1.17487e-05 -1.27624e-21 -0 -8.89274e-22 9.66e-38 0 -0 0 0)
(1.17484e-05 2.86626e-21 -0 3.4987e-21 8.5358e-37 -0 -0 -0 0)
(1.17477e-05 2.79505e-21 -0 2.68786e-21 6.39507e-37 -0 -0 -0 0)
(1.17474e-05 2.02829e-21 -0 1.62184e-21 2.80024e-37 -0 -0 -0 0)
(1.17468e-05 4.274e-22 -0 -3.79258e-23 -1.3799e-39 0 -0 -0 0)
(1.17466e-05 -2.73103e-22 -0 -5.74892e-22 1.3366e-38 0 -0 0 0)
(1.17461e-05 2.41272e-22 -0 1.40954e-23 2.89528e-40 -0 -0 -0 0)
(1.1746e-05 6.24738e-22 -0 -1.06029e-22 -5.63939e-39 0 -0 -0 0)
(1.17455e-05 -3.17054e-22 -0 -6.33922e-22 1.71118e-38 0 -0 0 0)
(1.17455e-05 -9.95556e-22 -0 1.7719e-22 -1.50188e-38 -0 -0 0 0)
(1.17451e-05 1.20312e-21 -0 2.39212e-21 2.45038e-37 -0 -0 -0 0)
(1.17451e-05 2.1134e-21 -0 3.02083e-21 5.43566e-37 -0 -0 -0 0)
(1.17449e-05 2.03275e-21 -0 1.72845e-21 2.99152e-37 -0 -0 -0 0)
(1.17449e-05 1.37303e-21 -0 1.17722e-22 1.37623e-38 -0 -0 -0 0)
(1.17448e-05 7.63981e-22 -0 -8.12398e-22 -5.28452e-38 0 -0 -0 0)
(1.17448e-05 3.70635e-23 -0 -9.18097e-22 -2.89728e-39 0 -0 -0 0)
(1.17969e-05 3.01827e-19 -0 3.04376e-19 7.78753e-33 -0 -0 -0 0)
(1.17969e-05 -5.91195e-20 -0 -5.77706e-20 2.89514e-34 0 -0 0 0)
(1.17959e-05 1.6569e-20 -0 1.7291e-20 2.42877e-35 -0 -0 -0 0)
(1.17954e-05 4.18624e-22 -0 -6.01955e-22 -2.13636e-38 0 -0 -0 0)
(1.17947e-05 2.96505e-21 -0 1.50641e-21 3.78694e-37 -0 -0 -0 0)
(1.17943e-05 1.07517e-21 -0 1.5634e-21 1.4252e-37 -0 -0 -0 0)
(1.17937e-05 1.90854e-21 -0 3.1528e-21 5.10208e-37 -0 -0 -0 0)
(1.17934e-05 2.51034e-21 -0 2.27661e-21 4.84598e-37 -0 -0 -0 0)
(1.17929e-05 1.06311e-21 -0 3.22406e-22 2.90645e-38 -0 -0 -0 0)
(1.17926e-05 1.15653e-21 -0 6.65884e-22 6.5305e-38 -0 -0 -0 0)
(1.17922e-05 1.87582e-21 -0 9.31909e-22 1.48241e-37 -0 -0 -0 0)
(1.1792e-05 1.47587e-21 -0 1.42655e-21 1.78545e-37 -0 -0 -0 0)
(1.17917e-05 1.1919e-21 -0 1.03524e-21 1.04642e-37 -0 -0 -0 0)
(1.17915e-05 7.2995e-22 -0 8.13285e-22 5.03464e-38 -0 -0 -0 0)
(1.17913e-05 -3.69088e-22 -0 -3.92817e-22 1.22959e-38 0 -0 0 0)
(1.17911e-05 -9.84021e-22 -0 -9.58355e-22 7.99789e-38 0 -0 0 0)
(1.1791e-05 -5.87425e-22 -0 -9.26856e-23 4.61758e-39 0 -0 0 0)
(1.17909e-05 6.4688e-22 -0 1.35659e-21 7.44259e-38 -0 -0 -0 0)
(1.17909e-05 1.33541e-21 -0 9.95299e-22 1.12726e-37 -0 -0 -0 0)
(1.17909e-05 9.86045e-22 -0 8.5187e-24 7.12402e-40 -0 -0 -0 0)
(1.18175e-05 9.68562e-19 -0 9.71011e-19 7.95841e-32 -0 -0 -0 0)
(1.18175e-05 -2.05441e-19 -0 -2.05455e-19 3.57172e-33 0 -0 0 0)
(1.18175e-05 5.02738e-20 -0 5.08326e-20 2.16251e-34 -0 -0 -0 0)
(1.18175e-05 -8.13581e-21 -0 -9.21479e-21 6.34399e-36 0 -0 0 0)
(1.18175e-05 3.34877e-21 -0 2.16355e-21 6.13094e-37 -0 -0 -0 0)
(1.18174e-05 -5.92828e-22 -0 -1.41526e-21 7.09973e-38 0 -0 0 0)
(1.18174e-05 -1.29062e-21 -0 -1.24209e-21 1.35654e-37 0 -0 0 0)
(1.18174e-05 -1.6192e-21 -0 -1.21495e-21 1.66469e-37 0 -0 0 0)
(1.18174e-05 -6.50888e-22 -0 -7.07728e-22 3.89808e-38 0 -0 0 0)
(1.18174e-05 1.8465e-22 -0 3.03986e-22 4.74984e-39 -0 -0 -0 0)
(1.18174e-05 8.82674e-22 -0 9.60622e-22 7.17514e-38 -0 -0 -0 0)
(1.18174e-05 1.16538e-21 -0 1.99222e-21 1.96464e-37 -0 -0 -0 0)
(1.18174e-05 2.05981e-21 -0 2.67292e-21 4.65898e-37 -0 -0 -0 0)
(1.18174e-05 2.50274e-21 -0 1.87064e-21 3.96172e-37 -0 -0 -0 0)
(1.18174e-05 3.39832e-22 -0 -3.95742e-22 -1.13803e-38 0 -0 -0 0)
(1.18174e-05 -8.10006e-22 -0 -1.03673e-21 7.10612e-38 0 -0 0 0)
(1.18174e-05 -8.675e-22 -0 -3.9467e-22 2.89722e-38 0 -0 0 0)
(1.18174e-05 5.18854e-22 -0 6.4728e-22 2.84195e-38 -0 -0 -0 0)
(1.18174e-05 8.69973e-22 -0 9.58874e-22 7.05904e-38 -0 -0 -0 0)
(1.18174e-05 6.73667e-22 -0 5.12905e-22 2.92389e-38 -0 -0 -0 0)
)
;

boundaryField
{
    movingWall
    {
        type            calculated;
        value           nonuniform List<tensor> 
20
(
(1.18175e-05 0 0 0 0 0 0 0 0)
(1.18175e-05 0 0 0 0 0 0 0 0)
(1.18175e-05 0 0 0 0 0 0 0 0)
(1.18175e-05 0 0 0 0 0 0 0 0)
(1.18175e-05 0 0 0 0 0 0 0 0)
(1.18174e-05 0 0 0 0 0 0 0 0)
(1.18174e-05 0 0 0 0 0 0 0 0)
(1.18174e-05 0 0 0 0 0 0 0 0)
(1.18174e-05 0 0 0 0 0 0 0 0)
(1.18174e-05 0 0 0 0 0 0 0 0)
(1.18174e-05 0 0 0 0 0 0 0 0)
(1.18174e-05 0 0 0 0 0 0 0 0)
(1.18174e-05 0 0 0 0 0 0 0 0)
(1.18174e-05 0 0 0 0 0 0 0 0)
(1.18174e-05 0 0 0 0 0 0 0 0)
(1.18174e-05 0 0 0 0 0 0 0 0)
(1.18174e-05 0 0 0 0 0 0 0 0)
(1.18174e-05 0 0 0 0 0 0 0 0)
(1.18174e-05 0 0 0 0 0 0 0 0)
(1.18174e-05 0 0 0 0 0 0 0 0)
)
;
    }
    fixedWalls
    {
        type            calculated;
        value           nonuniform List<tensor> 
60
(
(8.6976e-06 0 0 0 0 0 0 0 0)
(9.13932e-06 0 0 0 0 0 0 0 0)
(9.76541e-06 0 0 0 0 0 0 0 0)
(1.03364e-05 0 0 0 0 0 0 0 0)
(1.07524e-05 0 0 0 0 0 0 0 0)
(1.1019e-05 0 0 0 0 0 0 0 0)
(1.11796e-05 0 0 0 0 0 0 0 0)
(1.1276e-05 0 0 0 0 0 0 0 0)
(1.13379e-05 0 0 0 0 0 0 0 0)
(1.1383e-05 0 0 0 0 0 0 0 0)
(1.14212e-05 0 0 0 0 0 0 0 0)
(1.14581e-05 0 0 0 0 0 0 0 0)
(1.14967e-05 0 0 0 0 0 0 0 0)
(1.15389e-05 0 0 0 0 0 0 0 0)
(1.15862e-05 0 0 0 0 0 0 0 0)
(1.16389e-05 0 0 0 0 0 0 0 0)
(1.16954e-05 0 0 0 0 0 0 0 0)
(1.1751e-05 0 0 0 0 0 0 0 0)
(1.17969e-05 0 0 0 0 0 0 0 0)
(1.18175e-05 0 0 0 0 0 0 0 0)
(8.69753e-06 0 0 0 0 0 0 0 0)
(9.13568e-06 0 0 0 0 0 0 0 0)
(9.7612e-06 0 0 0 0 0 0 0 0)
(1.03317e-05 0 0 0 0 0 0 0 0)
(1.07473e-05 0 0 0 0 0 0 0 0)
(1.10136e-05 0 0 0 0 0 0 0 0)
(1.1174e-05 0 0 0 0 0 0 0 0)
(1.12703e-05 0 0 0 0 0 0 0 0)
(1.13321e-05 0 0 0 0 0 0 0 0)
(1.13772e-05 0 0 0 0 0 0 0 0)
(1.14154e-05 0 0 0 0 0 0 0 0)
(1.14522e-05 0 0 0 0 0 0 0 0)
(1.14907e-05 0 0 0 0 0 0 0 0)
(1.1533e-05 0 0 0 0 0 0 0 0)
(1.15802e-05 0 0 0 0 0 0 0 0)
(1.16328e-05 0 0 0 0 0 0 0 0)
(1.16893e-05 0 0 0 0 0 0 0 0)
(1.17448e-05 0 0 0 0 0 0 0 0)
(1.17909e-05 0 0 0 0 0 0 0 0)
(1.18174e-05 0 0 0 0 0 0 0 0)
(8.6976e-06 0 0 0 0 0 0 0 0)
(8.69759e-06 0 0 0 0 0 0 0 0)
(8.69758e-06 0 0 0 0 0 0 0 0)
(8.69757e-06 0 0 0 0 0 0 0 0)
(8.69756e-06 0 0 0 0 0 0 0 0)
(8.69756e-06 0 0 0 0 0 0 0 0)
(8.69755e-06 0 0 0 0 0 0 0 0)
(8.69755e-06 0 0 0 0 0 0 0 0)
(8.69755e-06 0 0 0 0 0 0 0 0)
(8.69754e-06 0 0 0 0 0 0 0 0)
(8.69754e-06 0 0 0 0 0 0 0 0)
(8.69754e-06 0 0 0 0 0 0 0 0)
(8.69754e-06 0 0 0 0 0 0 0 0)
(8.69753e-06 0 0 0 0 0 0 0 0)
(8.69753e-06 0 0 0 0 0 0 0 0)
(8.69753e-06 0 0 0 0 0 0 0 0)
(8.69753e-06 0 0 0 0 0 0 0 0)
(8.69753e-06 0 0 0 0 0 0 0 0)
(8.69753e-06 0 0 0 0 0 0 0 0)
(8.69753e-06 0 0 0 0 0 0 0 0)
)
;
    }
    frontAndBack
    {
        type            empty;
    }
}


// ************************************************************************* //
