/*--------------------------------*- C++ -*----------------------------------*\
| =========                 |                                                 |
| \\      /  F ield         | OpenFOAM: The Open Source CFD Toolbox           |
|  \\    /   O peration     | Version:  2312                                  |
|   \\  /    A nd           | Website:  www.openfoam.com                      |
|    \\/     M anipulation  |                                                 |
\*---------------------------------------------------------------------------*/
FoamFile
{
    version     2.0;
    format      ascii;
    arch        "LSB;label=32;scalar=64";
    class       volScalarField;
    location    "6";
    object      L_P;
}
// * * * * * * * * * * * * * * * * * * * * * * * * * * * * * * * * * * * * * //

dimensions      [0 0 0 0 0 0 0];

internalField   nonuniform List<scalar> 
400
(
-189.408
-189.408
-189.408
-189.408
-189.408
-189.408
-189.408
-189.408
-189.408
-189.408
-189.408
-189.408
-189.408
-189.408
-189.408
-189.408
-189.408
-189.408
-189.408
-189.408
-188.547
-188.625
-188.619
-188.617
-188.612
-188.61
-188.605
-188.602
-188.597
-188.594
-188.589
-188.586
-188.581
-188.578
-188.572
-188.569
-188.564
-188.561
-188.558
-188.554
-187.395
-187.477
-187.471
-187.468
-187.463
-187.461
-187.455
-187.453
-187.447
-187.444
-187.439
-187.436
-187.43
-187.427
-187.422
-187.419
-187.413
-187.41
-187.407
-187.402
-186.407
-186.492
-186.486
-186.483
-186.478
-186.475
-186.469
-186.467
-186.461
-186.458
-186.453
-186.449
-186.444
-186.441
-186.435
-186.432
-186.426
-186.422
-186.419
-186.415
-185.721
-185.808
-185.802
-185.799
-185.794
-185.791
-185.785
-185.782
-185.777
-185.774
-185.768
-185.765
-185.759
-185.756
-185.75
-185.747
-185.741
-185.737
-185.734
-185.729
-185.295
-185.384
-185.377
-185.374
-185.369
-185.366
-185.361
-185.358
-185.352
-185.349
-185.343
-185.34
-185.334
-185.331
-185.325
-185.321
-185.315
-185.312
-185.309
-185.304
-185.044
-185.133
-185.127
-185.124
-185.118
-185.115
-185.11
-185.107
-185.101
-185.098
-185.092
-185.089
-185.083
-185.08
-185.074
-185.07
-185.064
-185.061
-185.058
-185.053
-184.895
-184.984
-184.978
-184.975
-184.969
-184.967
-184.961
-184.958
-184.952
-184.949
-184.943
-184.94
-184.934
-184.931
-184.925
-184.921
-184.915
-184.912
-184.908
-184.904
-184.8
-184.889
-184.883
-184.88
-184.874
-184.872
-184.866
-184.863
-184.857
-184.854
-184.848
-184.845
-184.839
-184.836
-184.83
-184.826
-184.82
-184.817
-184.813
-184.809
-184.731
-184.821
-184.814
-184.811
-184.806
-184.803
-184.797
-184.794
-184.788
-184.785
-184.779
-184.776
-184.77
-184.767
-184.761
-184.757
-184.751
-184.748
-184.745
-184.74
-184.672
-184.763
-184.756
-184.753
-184.748
-184.745
-184.739
-184.736
-184.73
-184.727
-184.721
-184.718
-184.712
-184.709
-184.703
-184.699
-184.693
-184.689
-184.686
-184.681
-184.616
-184.707
-184.7
-184.697
-184.692
-184.689
-184.683
-184.68
-184.674
-184.671
-184.665
-184.662
-184.656
-184.653
-184.647
-184.643
-184.637
-184.633
-184.63
-184.625
-184.558
-184.648
-184.642
-184.639
-184.633
-184.631
-184.625
-184.622
-184.616
-184.613
-184.607
-184.604
-184.598
-184.594
-184.588
-184.585
-184.579
-184.575
-184.572
-184.567
-184.494
-184.585
-184.578
-184.575
-184.57
-184.567
-184.561
-184.558
-184.552
-184.549
-184.543
-184.54
-184.534
-184.531
-184.525
-184.521
-184.515
-184.511
-184.508
-184.503
-184.423
-184.514
-184.507
-184.505
-184.499
-184.496
-184.49
-184.487
-184.481
-184.478
-184.472
-184.469
-184.463
-184.46
-184.454
-184.45
-184.444
-184.44
-184.437
-184.432
-184.344
-184.435
-184.429
-184.426
-184.42
-184.417
-184.412
-184.409
-184.403
-184.4
-184.394
-184.39
-184.384
-184.381
-184.375
-184.371
-184.365
-184.362
-184.358
-184.353
-184.26
-184.351
-184.345
-184.342
-184.336
-184.333
-184.328
-184.325
-184.319
-184.316
-184.31
-184.306
-184.3
-184.297
-184.291
-184.287
-184.281
-184.277
-184.274
-184.269
-184.178
-184.269
-184.262
-184.26
-184.254
-184.251
-184.245
-184.242
-184.236
-184.233
-184.227
-184.224
-184.218
-184.215
-184.208
-184.205
-184.199
-184.195
-184.192
-184.187
-184.11
-184.2
-184.193
-184.19
-184.185
-184.182
-184.177
-184.174
-184.168
-184.165
-184.159
-184.156
-184.15
-184.146
-184.14
-184.137
-184.131
-184.127
-184.124
-184.119
-184.08
-184.08
-184.08
-184.08
-184.08
-184.08
-184.08
-184.08
-184.08
-184.08
-184.08
-184.08
-184.08
-184.08
-184.08
-184.08
-184.08
-184.08
-184.08
-184.08
)
;

boundaryField
{
    movingWall
    {
        type            calculated;
        value           nonuniform List<scalar> 
20
(
-184.08
-184.08
-184.08
-184.08
-184.08
-184.08
-184.08
-184.08
-184.08
-184.08
-184.08
-184.08
-184.08
-184.08
-184.08
-184.08
-184.08
-184.08
-184.08
-184.08
)
;
    }
    fixedWalls
    {
        type            calculated;
        value           nonuniform List<scalar> 
60
(
-189.408
-188.547
-187.395
-186.407
-185.721
-185.295
-185.044
-184.895
-184.8
-184.731
-184.672
-184.616
-184.558
-184.494
-184.423
-184.344
-184.26
-184.178
-184.11
-184.08
-189.408
-188.554
-187.402
-186.415
-185.729
-185.304
-185.053
-184.904
-184.809
-184.74
-184.681
-184.625
-184.567
-184.503
-184.432
-184.353
-184.269
-184.187
-184.119
-184.08
-189.408
-189.408
-189.408
-189.408
-189.408
-189.408
-189.408
-189.408
-189.408
-189.408
-189.408
-189.408
-189.408
-189.408
-189.408
-189.408
-189.408
-189.408
-189.408
-189.408
)
;
    }
    frontAndBack
    {
        type            empty;
    }
}


// ************************************************************************* //
