/*--------------------------------*- C++ -*----------------------------------*\
| =========                 |                                                 |
| \\      /  F ield         | OpenFOAM: The Open Source CFD Toolbox           |
|  \\    /   O peration     | Version:  2312                                  |
|   \\  /    A nd           | Website:  www.openfoam.com                      |
|    \\/     M anipulation  |                                                 |
\*---------------------------------------------------------------------------*/
FoamFile
{
    version     2.0;
    format      ascii;
    arch        "LSB;label=32;scalar=64";
    class       volScalarField;
    location    "6";
    object      Lambda2Field;
}
// * * * * * * * * * * * * * * * * * * * * * * * * * * * * * * * * * * * * * //

dimensions      [0 0 -2 0 0 0 0];

internalField   nonuniform List<scalar> 
400
(
1.09381e-23
4.99337e-24
3.71678e-25
-4.0163e-26
1.6218e-26
-4.17514e-27
3.76985e-27
0
5.31875e-28
-1.7165e-28
0
1.84597e-28
7.00361e-28
8.01121e-28
7.31716e-28
1.56595e-29
1.3533e-28
1.32442e-28
0
0
6.64003e-24
7.29444e-24
5.48854e-25
1.20936e-26
0
-1.39112e-27
8.13104e-29
7.70183e-28
8.1007e-28
-4.66132e-28
0
0
0
0
1.85312e-27
4.52783e-28
0
1.52729e-28
0
2.59412e-28
5.72152e-23
1.90392e-23
2.50173e-25
4.26625e-26
3.74919e-27
-1.7987e-27
0
0
1.16979e-28
0
0
0
0
1.5165e-28
2.17688e-28
-1.36747e-27
0
0
0
1.03007e-27
1.68606e-23
1.1671e-23
2.42134e-25
2.93874e-27
5.52316e-27
-1.30529e-27
1.27311e-27
0
0
0
3.58848e-28
8.73955e-28
9.44381e-28
-4.73257e-28
2.09291e-28
2.46791e-28
0
-3.06027e-29
0
8.85826e-29
0
3.06347e-24
3.08572e-25
0
7.34684e-28
4.73517e-28
0
-1.22365e-27
3.50174e-28
9.07367e-28
2.71082e-28
8.38011e-28
8.8238e-28
2.0354e-28
0
2.27843e-28
1.32494e-29
2.39438e-28
0
-3.22334e-28
1.24138e-23
4.94711e-24
0
4.61736e-26
2.93874e-27
9.52329e-28
0
0
1.11705e-27
0
0
0
0
-3.9315e-28
5.20558e-28
0
1.77486e-28
1.32274e-29
0
0
0
9.6356e-25
0
7.34684e-28
0
2.35372e-29
5.03994e-28
0
0
-1.5657e-27
4.5468e-27
4.19895e-28
0
3.11747e-28
2.74568e-27
3.02889e-28
1.23175e-28
1.77632e-28
0
1.50738e-28
0
0
3.53322e-26
0
2.40528e-27
8.0384e-28
1.49539e-27
1.79277e-28
1.41188e-27
0
0
-8.94969e-28
1.65111e-28
1.30748e-27
0
2.86653e-28
0
7.46301e-29
0
1.02335e-28
0
1.43998e-25
0
9.66178e-27
3.08247e-28
5.6722e-28
8.36485e-28
0
0
7.77991e-28
2.62096e-27
-8.54584e-28
0
-7.0536e-28
2.02833e-27
4.69982e-28
9.65936e-28
7.77631e-29
0
5.92686e-29
0
-1.9935e-24
0
-5.26094e-26
5.28372e-27
-1.16704e-27
6.20307e-28
-9.98186e-29
0
0
7.35016e-29
7.13101e-29
0
-7.16547e-31
0
1.87388e-28
0
3.90359e-29
0
-1.66323e-28
0
0
2.36375e-25
-3.58414e-26
8.21479e-27
0
2.06395e-28
-1.25293e-27
4.72304e-28
7.68128e-28
1.27767e-27
6.99875e-28
3.1646e-28
7.23202e-28
3.57197e-28
-1.31268e-28
0
1.88047e-28
5.64808e-30
6.59415e-28
0
1.06047e-24
0
2.96676e-26
0
0
4.37221e-28
5.75458e-28
2.32289e-27
2.50711e-27
1.99514e-27
4.30409e-28
2.64641e-28
-2.98035e-28
2.99653e-28
5.36069e-28
6.00857e-28
2.55464e-28
9.46962e-29
0
1.51613e-24
1.64713e-24
2.46599e-29
2.09405e-26
4.06161e-27
0
1.47272e-27
0
1.25693e-27
5.05989e-28
1.84143e-27
7.65239e-28
0
2.87161e-28
6.48906e-28
0
0
1.00842e-29
0
7.14568e-29
1.16322e-24
1.0616e-24
0
3.60854e-27
0
0
3.21422e-28
2.23149e-28
0
-2.81209e-27
0
0
0
0
9.04955e-28
0
5.27533e-28
-4.24453e-28
0
8.56266e-28
8.83578e-24
4.41024e-24
0
4.13046e-26
0
3.86523e-27
2.177e-27
1.3662e-27
5.2057e-29
0
4.64806e-28
0
4.82641e-28
3.2761e-29
1.38918e-27
7.05615e-29
2.19157e-28
0
5.50754e-28
1.79983e-28
5.94649e-24
5.60711e-24
7.25547e-26
6.61216e-27
0
7.24842e-29
0
-9.23582e-28
1.26443e-27
1.33701e-28
0
0
0
1.74482e-27
5.82617e-28
0
7.07191e-29
2.09019e-28
5.38162e-30
9.24247e-29
7.05814e-24
4.93867e-24
3.26593e-25
6.61216e-27
6.47217e-28
1.9723e-27
5.20358e-28
-7.10636e-28
0
1.20949e-28
1.25536e-27
4.96658e-29
0
-1.33015e-27
0
1.64114e-27
1.52561e-28
5.94261e-30
0
7.00854e-29
2.90919e-23
8.39387e-24
2.90249e-25
1.77003e-27
4.07521e-27
-1.08023e-27
1.79693e-27
3.77278e-28
0
1.20038e-29
1.77531e-28
2.37011e-29
1.78903e-28
-4.84795e-28
0
1.23865e-27
1.73614e-28
0
7.56804e-29
3.99557e-28
3.12405e-24
4.9901e-24
1.75656e-25
2.10738e-26
0
0
7.89024e-29
1.23067e-27
4.47499e-28
-2.24456e-28
0
0
7.91635e-28
0
0
6.65692e-28
3.3999e-28
-7.30296e-28
5.97234e-28
2.30759e-28
9.5708e-24
2.18509e-24
3.62092e-25
-2.65866e-26
7.89042e-27
-2.34176e-27
1.83778e-28
2.45129e-28
6.9678e-28
7.65324e-28
7.74445e-28
1.12743e-27
1.15582e-27
0
1.95946e-28
4.9174e-31
3.86254e-28
2.88413e-28
0
0
)
;

boundaryField
{
    movingWall
    {
        type            calculated;
        value           nonuniform List<scalar> 
20
(
0
0
7.10724e-25
-1.24518e-26
2.12516e-26
-5.38405e-27
4.51652e-28
1.00405e-27
3.42481e-27
4.38867e-27
3.17213e-27
4.59549e-27
2.80168e-27
1.78556e-27
3.30753e-28
1.2085e-30
1.26568e-27
1.49733e-27
0
0
)
;
    }
    fixedWalls
    {
        type            calculated;
        value           nonuniform List<scalar> 
60
(
9.12258e-23
1.14431e-22
2.92774e-22
1.67323e-22
4.71501e-23
6.29602e-23
0
0
0
-3.68832e-23
8.49799e-24
1.93504e-24
3.32282e-23
2.06513e-23
6.83152e-23
8.27513e-23
9.17094e-23
1.47074e-22
7.32446e-23
5.4291e-23
0
2.59412e-28
1.67511e-27
8.85826e-29
0
0
2.66624e-28
1.46769e-28
4.07607e-28
-4.11681e-28
1.26122e-27
0
4.43222e-28
1.78383e-27
0
6.01353e-29
7.11068e-29
8.47714e-28
7.83318e-30
0
0
0
4.7341e-25
0
3.24446e-26
-9.44152e-27
5.22483e-27
0
2.3626e-28
-3.19796e-28
0
2.05773e-28
1.14747e-27
8.43534e-28
3.0456e-27
9.30247e-28
1.31711e-27
4.82253e-28
0
0
)
;
    }
    frontAndBack
    {
        type            empty;
    }
}


// ************************************************************************* //
