/*--------------------------------*- C++ -*----------------------------------*\
| =========                 |                                                 |
| \\      /  F ield         | OpenFOAM: The Open Source CFD Toolbox           |
|  \\    /   O peration     | Version:  2312                                  |
|   \\  /    A nd           | Website:  www.openfoam.com                      |
|    \\/     M anipulation  |                                                 |
\*---------------------------------------------------------------------------*/
FoamFile
{
    version     2.0;
    format      ascii;
    arch        "LSB;label=32;scalar=64";
    class       volVectorField;
    location    "6";
    object      LambVectorField;
}
// * * * * * * * * * * * * * * * * * * * * * * * * * * * * * * * * * * * * * //

dimensions      [0 1 -2 0 0 0 0];

internalField   nonuniform List<vector> 
400
(
(-1.56701e-24 -1.07075e-11 -1.07075e-11)
(-4.23875e-25 1.37315e-11 -0)
(-2.13655e-26 -2.88537e-12 -2.88537e-12)
(-1.19657e-27 8.12362e-13 -0)
(-1.25645e-29 -3.43886e-14 -3.43886e-14)
(-7.49023e-30 1.66934e-13 -0)
(5.0324e-30 9.81245e-14 9.81245e-14)
(3.25497e-30 5.6036e-14 0)
(1.91396e-30 5.79513e-14 5.79513e-14)
(1.21119e-30 5.85808e-14 0)
(-9.28783e-31 8.69689e-14 8.69689e-14)
(-1.85237e-30 5.16526e-14 -0)
(6.15036e-31 4.12907e-14 4.12907e-14)
(2.301e-30 2.4654e-14 0)
(6.68256e-31 1.69582e-14 1.69582e-14)
(-7.41123e-31 9.71966e-15 -0)
(7.57925e-31 -1.31151e-14 -1.31151e-14)
(-4.17517e-31 -7.60496e-15 0)
(8.82636e-32 4.83395e-15 4.83395e-15)
(1.62851e-32 2.48203e-15 0)
(-5.75405e-28 -2.4251e-14 -2.4251e-14)
(-9.00265e-27 1.69091e-12 -0)
(-6.45993e-28 -4.6245e-13 -4.6245e-13)
(-2.88906e-29 6.741e-14 -0)
(8.36084e-30 -9.25288e-14 -9.25288e-14)
(5.81157e-30 -1.28027e-13 -0)
(-7.00471e-30 -6.62627e-14 -6.62627e-14)
(-3.29304e-30 -4.38295e-14 0)
(-1.00431e-31 -5.27091e-14 -5.27091e-14)
(-3.78399e-30 -6.29378e-14 0)
(-7.64009e-30 -8.56682e-14 -8.56682e-14)
(-6.60432e-30 -6.37157e-14 0)
(-1.32038e-29 -7.16669e-14 -7.16669e-14)
(-2.3548e-29 -8.46377e-14 0)
(-6.53604e-30 -3.00558e-14 -3.00558e-14)
(9.38076e-31 2.55761e-14 0)
(2.16614e-30 -5.65606e-14 -5.65606e-14)
(-3.09296e-30 -5.13928e-14 0)
(-8.23015e-31 1.23815e-14 1.23815e-14)
(8.27885e-31 -1.30104e-14 -0)
(-9.84715e-25 6.65299e-12 6.65299e-12)
(-4.07455e-25 -1.26737e-11 0)
(-2.3059e-26 2.98623e-12 2.98623e-12)
(-9.85664e-28 -6.68563e-13 0)
(-5.49457e-29 1.11215e-13 1.11215e-13)
(-8.78567e-30 -9.64444e-14 0)
(-2.38264e-29 -1.19523e-13 -1.19523e-13)
(2.1807e-30 1.07892e-14 0)
(1.90129e-30 2.07895e-14 2.07895e-14)
(-5.06126e-32 8.76169e-15 -0)
(-3.59711e-32 -9.37381e-15 -9.37381e-15)
(-1.63507e-30 -1.85885e-14 0)
(-1.30158e-29 -6.86046e-14 -6.86046e-14)
(1.19229e-29 5.14127e-14 0)
(1.38775e-29 6.3747e-14 6.3747e-14)
(1.08803e-29 7.96874e-14 0)
(-3.11088e-30 8.3906e-14 8.3906e-14)
(-1.17197e-29 7.30554e-14 -0)
(1.33529e-31 -5.9207e-16 -5.9207e-16)
(1.68375e-30 -1.08979e-14 -0)
(-6.7085e-25 -6.48945e-12 -6.48945e-12)
(-2.02277e-25 9.21665e-12 -0)
(-1.12632e-26 -2.14705e-12 -2.14705e-12)
(-5.07001e-28 4.97757e-13 -0)
(-9.15554e-30 -3.41217e-14 -3.41217e-14)
(-1.10874e-29 8.19753e-14 -0)
(-6.12705e-31 6.56587e-14 6.56587e-14)
(1.19502e-30 5.60744e-14 0)
(-2.00717e-30 7.17507e-14 7.17507e-14)
(-4.97096e-30 3.22591e-14 -0)
(2.37638e-30 -2.9886e-14 -2.9886e-14)
(-7.43834e-31 -5.1382e-15 0)
(1.91265e-29 7.87363e-14 7.87363e-14)
(1.19118e-29 6.98422e-14 0)
(5.53369e-30 6.39019e-14 6.39019e-14)
(8.12433e-31 1.10332e-14 0)
(-1.23263e-30 5.1933e-14 5.1933e-14)
(-1.19329e-29 6.83272e-14 -0)
(1.3304e-30 -8.06767e-15 -8.06767e-15)
(2.43255e-30 -2.58873e-14 -0)
(-2.7056e-26 3.37731e-12 3.37731e-12)
(-1.06709e-27 -1.33231e-12 0)
(-1.03001e-28 2.71024e-13 2.71024e-13)
(1.72424e-30 -1.44324e-13 -0)
(-8.05127e-32 3.83303e-15 3.83303e-15)
(5.57219e-30 -1.10829e-13 -0)
(-2.99102e-31 -9.70031e-14 -9.70031e-14)
(-1.34832e-29 -1.26483e-13 0)
(-1.12618e-29 -6.13031e-14 -6.13031e-14)
(-3.68569e-30 -2.07608e-14 0)
(-5.91819e-30 -4.92095e-14 -4.92095e-14)
(-2.7237e-30 -2.13582e-14 0)
(5.59212e-31 8.90519e-15 8.90519e-15)
(-7.98326e-31 -2.07501e-14 0)
(-4.44833e-33 5.90322e-15 5.90322e-15)
(1.02809e-30 -5.00072e-14 -0)
(1.13873e-30 -2.66162e-14 -2.66162e-14)
(1.33814e-30 -5.25852e-14 -0)
(-2.06234e-31 3.49362e-15 3.49362e-15)
(2.35775e-30 -3.90465e-14 -0)
(-3.11692e-25 4.05048e-12 4.05048e-12)
(-1.06735e-25 -6.62193e-12 0)
(-6.26329e-27 1.58308e-12 1.58308e-12)
(-2.31661e-28 -2.79223e-13 0)
(-5.25663e-30 6.57423e-14 6.57423e-14)
(7.82896e-30 4.54537e-14 0)
(5.632e-31 7.40487e-14 7.40487e-14)
(1.5875e-31 -6.07181e-15 -0)
(-9.78631e-31 -1.43234e-14 -1.43234e-14)
(4.29827e-30 3.67095e-14 0)
(-3.65282e-30 1.31772e-13 1.31772e-13)
(-2.68427e-31 2.30543e-15 -0)
(1.17316e-30 -2.3105e-14 -2.3105e-14)
(-5.19693e-30 -4.53415e-14 0)
(-2.16615e-30 -1.64614e-14 -1.64614e-14)
(3.882e-31 4.74507e-14 0)
(-2.37772e-30 3.30849e-14 3.30849e-14)
(5.15215e-32 -9.98139e-16 -0)
(-1.90414e-31 3.07686e-15 3.07686e-15)
(1.1886e-30 -1.44272e-14 -0)
(-6.64813e-25 -7.47144e-12 -7.47144e-12)
(-1.48458e-25 8.34517e-12 -0)
(-8.69953e-27 -1.95734e-12 -1.95734e-12)
(-2.6342e-28 4.01687e-13 -0)
(-5.84297e-29 -1.36616e-13 -1.36616e-13)
(7.84615e-30 4.66274e-14 0)
(-1.43281e-30 3.71388e-14 3.71388e-14)
(-1.31268e-29 6.46274e-14 -0)
(1.17774e-29 -8.25021e-14 -8.25021e-14)
(-8.08868e-30 -1.01355e-13 0)
(-5.40231e-30 -9.37139e-14 -9.37139e-14)
(5.33066e-30 -7.92567e-14 -0)
(-4.78292e-30 -1.29051e-13 -1.29051e-13)
(-1.25631e-29 -9.03522e-14 0)
(-9.43238e-30 -7.40186e-14 -7.40186e-14)
(-1.20284e-30 -1.82025e-14 0)
(2.11846e-31 5.51587e-15 5.51587e-15)
(6.74623e-32 6.17647e-15 0)
(-2.15596e-32 9.23005e-16 9.23005e-16)
(4.22062e-32 2.49385e-14 0)
(-5.03444e-26 2.29488e-12 2.29488e-12)
(-1.02448e-26 -2.32314e-12 0)
(-2.77333e-28 3.17055e-13 3.17055e-13)
(-1.07008e-28 -2.51072e-13 0)
(-1.70616e-29 -6.07704e-14 -6.07704e-14)
(-8.72239e-30 -3.95115e-14 0)
(-5.14579e-30 -3.84677e-14 -3.84677e-14)
(-3.22376e-30 -5.0903e-14 0)
(-9.53427e-30 -9.46816e-14 -9.46816e-14)
(-8.22897e-30 -4.17724e-14 0)
(3.82243e-30 1.54522e-14 1.54522e-14)
(2.964e-30 6.97844e-14 0)
(-9.37328e-30 5.22418e-14 5.22418e-14)
(6.52761e-31 -3.12485e-15 -0)
(2.05366e-30 -1.38599e-14 -1.38599e-14)
(1.29207e-30 -1.83808e-14 -0)
(-3.43923e-30 -9.65107e-14 -9.65107e-14)
(-4.33361e-30 -5.30683e-14 0)
(1.64981e-31 6.81239e-15 6.81239e-15)
(-3.15814e-31 -2.33296e-14 0)
(-2.67317e-25 4.90957e-12 4.90957e-12)
(-5.742e-26 -5.19895e-12 0)
(-3.09213e-27 1.25766e-12 1.25766e-12)
(-1.40591e-28 -2.20932e-13 0)
(2.84142e-30 1.30774e-13 1.30774e-13)
(6.20161e-30 4.37467e-14 0)
(7.6237e-30 6.03326e-14 6.03326e-14)
(5.2406e-30 6.50709e-14 0)
(2.68993e-30 1.51521e-13 1.51521e-13)
(-6.41073e-30 8.0723e-14 -0)
(2.15495e-30 9.10224e-14 9.10224e-14)
(8.77419e-30 9.27882e-14 0)
(-1.27597e-29 1.40131e-13 1.40131e-13)
(-2.00888e-29 9.02685e-14 -0)
(-1.74247e-29 9.64885e-14 9.64885e-14)
(-1.00809e-30 9.76576e-15 -0)
(-3.33632e-31 4.63636e-14 4.63636e-14)
(-1.30681e-30 5.27756e-14 -0)
(3.04061e-33 4.25333e-16 4.25333e-16)
(-7.23009e-31 2.49184e-14 -0)
(-4.4957e-25 -6.76584e-12 -6.76584e-12)
(-8.91063e-26 6.63715e-12 -0)
(-4.49019e-27 -1.34915e-12 -1.34915e-12)
(-2.3889e-28 5.01863e-13 -0)
(1.2349e-29 5.96865e-14 5.96865e-14)
(1.18616e-30 1.04702e-13 0)
(-2.23125e-30 8.27217e-14 8.27217e-14)
(-2.27556e-31 8.31435e-14 -0)
(-3.99874e-30 8.83574e-14 8.83574e-14)
(-4.30253e-30 5.88104e-14 -0)
(-2.22611e-30 2.43933e-14 2.43933e-14)
(-1.12684e-30 2.44742e-14 -0)
(-2.50888e-30 3.86278e-14 3.86278e-14)
(-9.2051e-30 5.70792e-14 -0)
(6.86929e-30 -7.3358e-14 -7.3358e-14)
(-3.3668e-31 -1.11447e-14 0)
(7.41806e-31 4.16601e-14 4.16601e-14)
(-6.79741e-31 5.89333e-15 -0)
(2.93886e-31 -7.14579e-15 -7.14579e-15)
(1.56249e-30 -3.56061e-14 -0)
(-2.99948e-25 5.0407e-12 5.0407e-12)
(-7.59555e-26 -5.76992e-12 0)
(-3.09112e-27 1.06946e-12 1.06946e-12)
(-4.25031e-28 -5.04102e-13 0)
(5.7891e-31 -3.26522e-14 -3.26522e-14)
(-7.32748e-30 -8.57379e-14 0)
(-2.32679e-30 -8.7812e-14 -8.7812e-14)
(-2.25935e-29 -1.50191e-13 0)
(-1.4639e-29 -8.45419e-14 -8.45419e-14)
(-1.85648e-29 -1.01614e-13 0)
(-3.97311e-30 -3.78035e-14 -3.78035e-14)
(-7.69541e-31 -4.12997e-14 0)
(3.70394e-31 -1.54297e-14 -1.54297e-14)
(-4.53067e-31 4.61748e-15 -0)
(-9.77383e-31 1.39268e-14 1.39268e-14)
(-1.08906e-30 -3.23524e-14 0)
(-1.17396e-30 6.63004e-14 6.63004e-14)
(-1.01634e-30 1.16499e-14 -0)
(-2.93039e-31 2.1835e-15 2.1835e-15)
(-3.02894e-31 2.77692e-15 -0)
(-1.84509e-25 -4.0254e-12 -4.0254e-12)
(-4.127e-26 4.27753e-12 -0)
(-2.35733e-27 -1.04871e-12 -1.04871e-12)
(-5.4141e-29 1.04882e-13 -0)
(-2.8661e-29 -2.49648e-13 -2.49648e-13)
(-1.66983e-29 -2.01385e-13 0)
(-3.56174e-29 -1.53983e-13 -1.53983e-13)
(-1.98585e-29 -7.42383e-14 0)
(-8.46815e-30 -5.27486e-14 -5.27486e-14)
(-5.5864e-31 3.07468e-14 -0)
(9.67012e-30 -6.58143e-14 -6.58143e-14)
(1.67861e-30 -9.69303e-15 -0)
(4.11467e-30 -8.22934e-14 -8.22934e-14)
(-7.16358e-30 -6.65419e-14 0)
(-1.17675e-30 -1.60498e-14 -1.60498e-14)
(1.2841e-31 -4.43214e-14 -0)
(1.44922e-30 -5.66788e-14 -5.66788e-14)
(-1.10132e-30 -5.05433e-14 0)
(-6.0895e-31 9.7844e-15 9.7844e-15)
(3.11323e-30 -4.09342e-14 -0)
(-7.0892e-27 1.01618e-12 1.01618e-12)
(-4.81767e-28 -5.47303e-13 0)
(-4.46225e-29 3.0143e-13 3.0143e-13)
(8.01975e-30 2.33396e-13 0)
(-6.27669e-30 1.47536e-13 1.47536e-13)
(-1.65696e-29 1.93246e-13 -0)
(-1.13642e-29 1.46343e-13 1.46343e-13)
(-3.56973e-29 1.84086e-13 -0)
(-4.32281e-29 1.47935e-13 1.47935e-13)
(-3.29948e-29 1.03753e-13 -0)
(-1.01389e-29 4.12919e-14 4.12919e-14)
(2.35262e-30 -1.24589e-14 -0)
(9.98206e-30 -8.25288e-14 -8.25288e-14)
(-2.44104e-30 -2.58702e-14 0)
(-5.81855e-30 -4.22399e-14 -4.22399e-14)
(-4.4258e-31 1.74622e-14 -0)
(3.04765e-30 -8.26547e-14 -8.26547e-14)
(-6.63574e-31 5.55314e-14 -0)
(-4.23004e-31 8.44566e-15 8.44566e-15)
(1.41227e-30 -1.46492e-14 -0)
(-3.08683e-25 4.92528e-12 4.92528e-12)
(-8.1264e-26 -5.9354e-12 0)
(-4.23856e-27 1.39058e-12 1.39058e-12)
(-2.84997e-28 -3.27654e-13 0)
(-5.74703e-30 1.35042e-13 1.35042e-13)
(3.92527e-30 6.38336e-14 0)
(-4.3821e-30 3.15732e-14 3.15732e-14)
(4.9313e-30 -1.93963e-14 -0)
(2.92252e-29 -1.35377e-13 -1.35377e-13)
(-2.17776e-30 -1.42052e-13 0)
(-1.06134e-30 -8.81214e-15 -8.81214e-15)
(1.03096e-30 9.96561e-15 0)
(1.47024e-30 7.07356e-14 7.07356e-14)
(-2.05715e-31 3.32856e-15 -0)
(-6.38396e-31 5.10692e-14 5.10692e-14)
(-1.78006e-30 5.85669e-14 -0)
(-3.25375e-30 5.80314e-14 5.80314e-14)
(-4.29187e-30 6.25581e-14 -0)
(-8.84854e-30 6.34081e-14 6.34081e-14)
(4.67065e-31 -2.90849e-15 -0)
(-8.02864e-25 -7.52728e-12 -7.52728e-12)
(-2.20237e-25 9.69605e-12 -0)
(-1.23181e-26 -2.29677e-12 -2.29677e-12)
(-4.69263e-28 4.25952e-13 -0)
(-4.8377e-29 -1.66492e-13 -1.66492e-13)
(-2.26644e-30 -1.07201e-13 0)
(-4.65343e-31 -6.35779e-14 -6.35779e-14)
(1.00791e-29 -6.45139e-14 -0)
(6.39741e-30 -3.98113e-14 -3.98113e-14)
(2.80788e-30 -9.62639e-14 -0)
(6.63285e-31 -5.91885e-14 -5.91885e-14)
(-1.39793e-30 -6.78108e-14 0)
(-7.34572e-30 -5.88595e-14 -5.88595e-14)
(1.2932e-30 1.92701e-14 0)
(2.6535e-30 -3.90792e-14 -3.90792e-14)
(-3.69648e-31 4.39011e-15 -0)
(-2.81521e-30 2.51804e-14 2.51804e-14)
(4.30413e-30 -6.62647e-14 -0)
(-5.03673e-31 -5.7603e-14 -5.7603e-14)
(9.10043e-31 -2.93331e-14 -0)
(-3.36136e-25 4.82125e-12 4.82125e-12)
(-9.54761e-26 -6.36427e-12 0)
(-5.05635e-27 1.50201e-12 1.50201e-12)
(-2.59538e-28 -3.26507e-13 0)
(-6.90826e-30 6.81893e-14 6.81893e-14)
(-1.13506e-30 -1.00448e-14 0)
(-9.13116e-32 1.0596e-13 1.0596e-13)
(-1.36577e-29 1.02342e-13 -0)
(-2.13511e-29 1.01128e-13 1.01128e-13)
(-2.68852e-29 8.1083e-14 -0)
(1.18949e-29 -5.69656e-14 -5.69656e-14)
(1.70424e-30 -5.16898e-14 -0)
(-1.10914e-30 -2.99455e-14 -2.99455e-14)
(1.62438e-31 -3.55764e-14 -0)
(-1.63973e-30 1.09829e-14 1.09829e-14)
(7.60088e-30 -6.64444e-14 -0)
(2.15628e-31 -7.99938e-15 -7.99938e-15)
(-5.49259e-33 1.59665e-16 -0)
(8.23852e-32 -2.88543e-15 -2.88543e-15)
(-1.31425e-31 2.36952e-14 -0)
(1.22646e-26 -4.9835e-13 -4.9835e-13)
(-1.10606e-26 -1.92643e-12 0)
(-3.13027e-28 3.10136e-13 3.10136e-13)
(-4.96877e-29 -1.05326e-13 0)
(1.6058e-30 3.6547e-14 3.6547e-14)
(1.76432e-30 1.66008e-14 0)
(-2.66452e-31 -1.7885e-15 -1.7885e-15)
(8.35913e-30 6.73229e-14 0)
(1.43282e-30 8.0259e-14 8.0259e-14)
(-1.33099e-29 9.76342e-14 -0)
(-1.08876e-29 7.4912e-14 7.4912e-14)
(-5.83434e-30 8.07044e-14 -0)
(-1.33099e-29 9.55961e-14 9.55961e-14)
(-2.10127e-29 9.76867e-14 -0)
(-1.74251e-29 5.7519e-14 5.7519e-14)
(-6.87449e-30 2.76983e-14 -0)
(2.26536e-30 -5.98863e-14 -5.98863e-14)
(-2.26164e-31 -2.8405e-15 0)
(-7.9785e-32 8.46742e-15 8.46742e-15)
(7.31468e-33 -1.44757e-15 -0)
(-2.42235e-25 -2.75026e-12 -2.75026e-12)
(-1.38602e-25 7.35971e-12 -0)
(-7.22001e-27 -1.62209e-12 -1.62209e-12)
(-4.31161e-28 4.37537e-13 -0)
(-1.10147e-30 -1.45522e-14 -1.45522e-14)
(-2.52118e-29 8.46592e-14 -0)
(3.65494e-30 -1.59744e-14 -1.59744e-14)
(6.94547e-30 -5.03079e-14 -0)
(-1.47886e-31 -4.58051e-14 -4.58051e-14)
(-1.30488e-30 -2.66622e-14 0)
(-3.7316e-32 3.10965e-14 3.10965e-14)
(-4.98021e-32 -5.51713e-15 0)
(1.59303e-30 2.95163e-14 2.95163e-14)
(-7.97575e-31 5.28691e-14 -0)
(-1.5972e-29 7.84215e-14 7.84215e-14)
(-5.51816e-30 2.14548e-14 -0)
(3.6376e-30 -2.47176e-14 -2.47176e-14)
(1.03189e-30 -1.02949e-13 -0)
(-6.10044e-31 -8.81938e-15 -8.81938e-15)
(-9.67041e-31 -1.23709e-14 0)
(-4.69422e-26 1.81937e-12 1.81937e-12)
(-1.01918e-26 -2.08118e-12 0)
(-1.06795e-27 7.28553e-13 7.28553e-13)
(8.73899e-32 1.71242e-15 0)
(-1.61921e-29 1.26779e-13 1.26779e-13)
(-1.26294e-29 9.52761e-14 -0)
(-3.06008e-29 1.14469e-13 1.14469e-13)
(-5.99605e-31 3.10611e-15 -0)
(-3.67644e-31 1.34476e-14 1.34476e-14)
(-3.3529e-30 5.9379e-14 -0)
(-2.65185e-30 3.35561e-14 3.35561e-14)
(-3.38513e-30 2.79817e-14 -0)
(4.56565e-31 -5.20042e-15 -5.20042e-15)
(2.70481e-30 -3.92159e-14 -0)
(-2.30651e-30 -6.92351e-14 -6.92351e-14)
(2.40992e-30 2.96504e-14 0)
(3.67395e-31 4.67382e-14 4.67382e-14)
(-1.04172e-29 9.05425e-14 -0)
(-1.32291e-30 1.56719e-14 1.56719e-14)
(-1.34321e-32 1.85915e-14 -0)
(-4.12026e-25 5.01448e-12 5.01448e-12)
(-1.31605e-25 -7.56973e-12 0)
(-6.32684e-27 1.47085e-12 1.47085e-12)
(-3.84543e-28 -4.93155e-13 0)
(7.76631e-30 -4.24202e-14 -4.24202e-14)
(-1.31897e-29 -1.10134e-13 0)
(-1.12176e-29 -1.06725e-13 -1.06725e-13)
(-5.10844e-30 -4.96883e-14 0)
(-2.4768e-30 -4.13568e-14 -4.13568e-14)
(1.03132e-30 -4.00924e-14 -0)
(3.24538e-30 -3.99241e-14 -3.99241e-14)
(2.12675e-30 -1.26154e-14 -0)
(6.36344e-30 -2.81338e-14 -2.81338e-14)
(8.40112e-30 -5.30723e-14 -0)
(-8.2389e-31 -2.46025e-14 -2.46025e-14)
(-4.75501e-30 -5.4201e-14 0)
(-4.29316e-31 -1.28548e-14 -1.28548e-14)
(-6.27366e-31 1.14538e-14 -0)
(2.29159e-30 -2.82421e-14 -2.82421e-14)
(1.71698e-30 -3.95594e-14 -0)
)
;

boundaryField
{
    movingWall
    {
        type            calculated;
        value           nonuniform List<vector> 
20
(
(0 8.96505e-12 -0)
(0 -9.03002e-12 -0)
(0 1.26091e-12 -0)
(0 -6.78293e-13 -0)
(0 -2.44862e-13 -0)
(0 -2.95272e-13 -0)
(0 -2.64758e-13 -0)
(0 -2.17523e-13 -0)
(0 -2.536e-13 -0)
(0 -2.96745e-13 -0)
(0 -2.07759e-13 -0)
(0 -2.51964e-13 -0)
(0 -1.34256e-13 -0)
(0 -7.03762e-14 -0)
(0 -2.46025e-14 -0)
(0 -1.33218e-13 -0)
(0 -7.45676e-14 -0)
(0 -7.7364e-14 -0)
(0 -4.5546e-14 -0)
(0 -5.68633e-14 -0)
)
;
    }
    fixedWalls
    {
        type            calculated;
        value           nonuniform List<vector> 
60
(
(0 -5.76983e-11 -0)
(0 -7.67477e-12 -0)
(0 5.42712e-11 -0)
(0 -3.96968e-11 -0)
(0 5.86074e-12 -0)
(0 2.87479e-11 -0)
(0 -3.59446e-11 -0)
(0 9.31718e-12 -0)
(0 2.23485e-11 -0)
(0 -2.80425e-11 -0)
(0 2.42087e-11 -0)
(0 -1.87411e-11 -0)
(0 3.1971e-12 -0)
(0 2.50964e-11 -0)
(0 -4.17968e-11 -0)
(0 2.72373e-11 -0)
(0 7.45894e-12 -0)
(0 -3.10566e-11 -0)
(0 1.00495e-11 -0)
(0 3.14032e-11 -0)
(0 2.62448e-15 -0)
(0 -2.5453e-14 -0)
(0 -3.46956e-14 -0)
(0 -3.75868e-14 -0)
(0 -5.12583e-14 -0)
(0 -3.29545e-14 -0)
(0 2.7782e-14 -0)
(0 -2.16902e-14 -0)
(0 1.54991e-14 -0)
(0 -4.46582e-14 -0)
(0 -1.65251e-14 -0)
(0 -5.75268e-14 -0)
(0 -3.85625e-14 -0)
(0 -3.71296e-14 -0)
(0 -3.95148e-14 -0)
(0 2.48865e-14 -0)
(0 -2.02123e-15 -0)
(0 4.16316e-15 -0)
(0 2.68161e-14 -0)
(0 -4.44661e-14 -0)
(0 -1.80315e-11 -0)
(0 1.60258e-11 -0)
(0 -2.85076e-12 -0)
(0 9.25986e-13 -0)
(0 7.92358e-14 -0)
(0 3.42271e-13 -0)
(0 2.11749e-13 -0)
(0 1.79462e-13 -0)
(0 1.36968e-13 -0)
(0 9.31885e-14 -0)
(0 1.38881e-13 -0)
(0 -2.55747e-15 -0)
(0 7.58985e-14 -0)
(0 4.19578e-14 -0)
(0 -7.18597e-14 -0)
(0 9.71966e-15 -0)
(0 3.12939e-14 -0)
(0 -7.60496e-15 -0)
(0 4.83395e-15 -0)
(0 2.48203e-15 -0)
)
;
    }
    frontAndBack
    {
        type            empty;
    }
}


// ************************************************************************* //
