/*--------------------------------*- C++ -*----------------------------------*\
| =========                 |                                                 |
| \\      /  F ield         | OpenFOAM: The Open Source CFD Toolbox           |
|  \\    /   O peration     | Version:  2312                                  |
|   \\  /    A nd           | Website:  www.openfoam.com                      |
|    \\/     M anipulation  |                                                 |
\*---------------------------------------------------------------------------*/
FoamFile
{
    version     2.0;
    format      ascii;
    arch        "LSB;label=32;scalar=64";
    class       volVectorField;
    location    "6";
    object      momentum1:momentum;
}
// * * * * * * * * * * * * * * * * * * * * * * * * * * * * * * * * * * * * * //

dimensions      [1 1 -1 0 0 0 0];

internalField   nonuniform List<vector> 
400
(
(-2.5e-07 3.65866e-20 0)
(-2.5e-07 -7.71718e-21 0)
(-2.5e-07 1.8512e-21 0)
(-2.5e-07 -3.68239e-22 0)
(-2.5e-07 9.13421e-23 0)
(-2.5e-07 -1.12174e-23 0)
(-2.5e-07 1.28215e-23 0)
(-2.5e-07 1.45218e-23 0)
(-2.5e-07 8.25676e-24 0)
(-2.5e-07 5.16887e-24 0)
(-2.5e-07 -2.66987e-24 0)
(-2.5e-07 -8.9655e-24 0)
(-2.5e-07 3.72381e-24 0)
(-2.5e-07 2.33329e-23 0)
(-2.5e-07 9.85154e-24 0)
(-2.5e-07 -1.90625e-23 0)
(-2.5e-07 -1.44476e-23 0)
(-2.5e-07 1.37252e-23 0)
(-2.5e-07 4.56478e-24 0)
(-2.5e-07 1.6403e-24 0)
(-2.5e-07 5.93176e-21 0)
(-2.5e-07 -1.33103e-21 0)
(-2.5e-07 3.49223e-22 0)
(-2.5e-07 -1.07145e-22 0)
(-2.5e-07 -2.25898e-23 0)
(-2.5e-07 -1.13483e-23 0)
(-2.5e-07 2.64278e-23 0)
(-2.5e-07 1.87832e-23 0)
(-2.5e-07 4.76348e-25 0)
(-2.5e-07 1.50307e-23 0)
(-2.5e-07 2.22956e-23 0)
(-2.5e-07 2.59132e-23 0)
(-2.5e-07 4.60596e-23 0)
(-2.5e-07 6.95553e-23 0)
(-2.5e-07 5.43659e-23 0)
(-2.5e-07 9.16945e-24 0)
(-2.5e-07 -9.57441e-24 0)
(-2.5e-07 1.50457e-23 0)
(-2.5e-07 -1.66178e-23 0)
(-2.5e-07 -1.59082e-23 0)
(-2.5e-07 -3.70027e-20 0)
(-2.5e-07 8.03744e-21 0)
(-2.5e-07 -1.93045e-21 0)
(-2.5e-07 3.68575e-22 0)
(-2.5e-07 -1.23512e-22 0)
(-2.5e-07 2.27739e-23 0)
(-2.5e-07 4.98366e-23 0)
(-2.5e-07 5.05297e-23 0)
(-2.5e-07 2.28636e-23 0)
(-2.5e-07 -1.44414e-24 0)
(-2.5e-07 9.59352e-25 0)
(-2.5e-07 2.19904e-23 0)
(-2.5e-07 4.74307e-23 0)
(-2.5e-07 5.79765e-23 0)
(-2.5e-07 5.44243e-23 0)
(-2.5e-07 3.41343e-23 0)
(-2.5e-07 -9.26893e-24 0)
(-2.5e-07 -4.01056e-23 0)
(-2.5e-07 -5.63821e-23 0)
(-2.5e-07 -3.86254e-23 0)
(-2.5e-07 2.58439e-20 0)
(-2.5e-07 -5.48674e-21 0)
(-2.5e-07 1.31147e-21 0)
(-2.5e-07 -2.54643e-22 0)
(-2.5e-07 6.708e-23 0)
(-2.5e-07 -3.38133e-23 0)
(-2.5e-07 -2.33291e-24 0)
(-2.5e-07 5.32784e-24 0)
(-2.5e-07 -6.99357e-24 0)
(-2.5e-07 -3.85237e-23 0)
(-2.5e-07 -1.98787e-23 0)
(-2.5e-07 3.61913e-23 0)
(-2.5e-07 6.07294e-23 0)
(-2.5e-07 4.26384e-23 0)
(-2.5e-07 2.16491e-23 0)
(-2.5e-07 1.84089e-23 0)
(-2.5e-07 -5.93377e-24 0)
(-2.5e-07 -4.36609e-23 0)
(-2.5e-07 -4.12264e-23 0)
(-2.5e-07 -2.34917e-23 0)
(-2.5e-07 -2.00277e-21 0)
(-2.5e-07 2.00234e-22 0)
(-2.5e-07 -9.50107e-23 0)
(-2.5e-07 -2.98675e-24 0)
(-2.5e-07 -5.25124e-24 0)
(-2.5e-07 -1.25693e-23 0)
(-2.5e-07 7.70857e-25 0)
(-2.5e-07 2.66504e-23 0)
(-2.5e-07 4.59269e-23 0)
(-2.5e-07 4.43828e-23 0)
(-2.5e-07 3.00663e-23 0)
(-2.5e-07 3.18813e-23 0)
(-2.5e-07 1.5699e-23 0)
(-2.5e-07 9.61834e-24 0)
(-2.5e-07 -1.88386e-25 0)
(-2.5e-07 -5.13972e-24 0)
(-2.5e-07 -1.06958e-23 0)
(-2.5e-07 -6.36176e-24 0)
(-2.5e-07 -1.47579e-23 0)
(-2.5e-07 -1.50958e-23 0)
(-2.5e-07 -1.9238e-20 0)
(-2.5e-07 4.0296e-21 0)
(-2.5e-07 -9.89097e-22 0)
(-2.5e-07 2.07416e-22 0)
(-2.5e-07 -1.99895e-23 0)
(-2.5e-07 4.30601e-23 0)
(-2.5e-07 1.90145e-24 0)
(-2.5e-07 -6.53634e-24 0)
(-2.5e-07 1.7081e-23 0)
(-2.5e-07 2.92722e-23 0)
(-2.5e-07 -6.93017e-24 0)
(-2.5e-07 -2.9108e-23 0)
(-2.5e-07 -1.26938e-23 0)
(-2.5e-07 2.86544e-23 0)
(-2.5e-07 3.28973e-23 0)
(-2.5e-07 2.04528e-24 0)
(-2.5e-07 -1.79668e-23 0)
(-2.5e-07 -1.29044e-23 0)
(-2.5e-07 -1.54715e-23 0)
(-2.5e-07 -2.05966e-23 0)
(-2.5e-07 2.22451e-20 0)
(-2.5e-07 -4.44743e-21 0)
(-2.5e-07 1.11114e-21 0)
(-2.5e-07 -1.63946e-22 0)
(-2.5e-07 1.06924e-22 0)
(-2.5e-07 4.20684e-23 0)
(-2.5e-07 -9.64496e-24 0)
(-2.5e-07 -5.07786e-23 0)
(-2.5e-07 -3.56881e-23 0)
(-2.5e-07 1.99513e-23 0)
(-2.5e-07 1.44117e-23 0)
(-2.5e-07 -1.68145e-23 0)
(-2.5e-07 9.26558e-24 0)
(-2.5e-07 3.47616e-23 0)
(-2.5e-07 3.18581e-23 0)
(-2.5e-07 1.65203e-23 0)
(-2.5e-07 9.60166e-24 0)
(-2.5e-07 2.73062e-24 0)
(-2.5e-07 -5.83953e-24 0)
(-2.5e-07 4.23103e-25 0)
(-2.5e-07 -5.48442e-21 0)
(-2.5e-07 1.10248e-21 0)
(-2.5e-07 -2.18679e-22 0)
(-2.5e-07 1.06551e-22 0)
(-2.5e-07 7.01887e-23 0)
(-2.5e-07 5.51889e-23 0)
(-2.5e-07 3.34423e-23 0)
(-2.5e-07 1.58328e-23 0)
(-2.5e-07 2.51746e-23 0)
(-2.5e-07 4.92488e-23 0)
(-2.5e-07 6.1843e-23 0)
(-2.5e-07 1.06184e-23 0)
(-2.5e-07 -4.48553e-23 0)
(-2.5e-07 -5.22234e-23 0)
(-2.5e-07 -3.70432e-23 0)
(-2.5e-07 -1.75736e-23 0)
(-2.5e-07 8.90894e-24 0)
(-2.5e-07 2.04152e-23 0)
(-2.5e-07 6.05446e-24 0)
(-2.5e-07 3.38427e-24 0)
(-2.5e-07 -1.3612e-20 0)
(-2.5e-07 2.76113e-21 0)
(-2.5e-07 -6.1466e-22 0)
(-2.5e-07 1.59089e-22 0)
(-2.5e-07 5.43191e-24 0)
(-2.5e-07 3.54404e-23 0)
(-2.5e-07 3.15903e-23 0)
(-2.5e-07 2.01342e-23 0)
(-2.5e-07 4.43822e-24 0)
(-2.5e-07 -1.98541e-23 0)
(-2.5e-07 5.91875e-24 0)
(-2.5e-07 2.36404e-23 0)
(-2.5e-07 -2.27639e-23 0)
(-2.5e-07 -5.56362e-23 0)
(-2.5e-07 -4.51472e-23 0)
(-2.5e-07 -2.58068e-23 0)
(-2.5e-07 -1.799e-24 0)
(-2.5e-07 -6.19042e-24 0)
(-2.5e-07 1.78719e-24 0)
(-2.5e-07 -7.25375e-24 0)
(-2.5e-07 1.66118e-20 0)
(-2.5e-07 -3.35635e-21 0)
(-2.5e-07 8.32042e-22 0)
(-2.5e-07 -1.19002e-22 0)
(-2.5e-07 5.17244e-23 0)
(-2.5e-07 2.83223e-24 0)
(-2.5e-07 -6.74324e-24 0)
(-2.5e-07 -6.84226e-25 0)
(-2.5e-07 -1.13141e-23 0)
(-2.5e-07 -1.82898e-23 0)
(-2.5e-07 -2.28147e-23 0)
(-2.5e-07 -1.15105e-23 0)
(-2.5e-07 -1.62375e-23 0)
(-2.5e-07 -4.03173e-23 0)
(-2.5e-07 -2.34101e-23 0)
(-2.5e-07 7.5525e-24 0)
(-2.5e-07 4.45153e-24 0)
(-2.5e-07 -2.88352e-23 0)
(-2.5e-07 -1.02818e-23 0)
(-2.5e-07 -1.09707e-23 0)
(-2.5e-07 -1.48763e-20 0)
(-2.5e-07 3.29101e-21 0)
(-2.5e-07 -7.22587e-22 0)
(-2.5e-07 2.10786e-22 0)
(-2.5e-07 -4.4324e-24 0)
(-2.5e-07 2.13659e-23 0)
(-2.5e-07 6.62436e-24 0)
(-2.5e-07 3.76079e-23 0)
(-2.5e-07 4.32893e-23 0)
(-2.5e-07 4.56747e-23 0)
(-2.5e-07 2.62747e-23 0)
(-2.5e-07 4.65827e-24 0)
(-2.5e-07 -6.00131e-24 0)
(-2.5e-07 -2.453e-23 0)
(-2.5e-07 -1.7545e-23 0)
(-2.5e-07 8.4156e-24 0)
(-2.5e-07 -4.42667e-24 0)
(-2.5e-07 -2.18101e-23 0)
(-2.5e-07 -3.35515e-23 0)
(-2.5e-07 -2.72689e-23 0)
(-2.5e-07 1.14591e-20 0)
(-2.5e-07 -2.41202e-21 0)
(-2.5e-07 5.61958e-22 0)
(-2.5e-07 -1.29052e-22 0)
(-2.5e-07 2.87015e-23 0)
(-2.5e-07 2.07293e-23 0)
(-2.5e-07 5.78267e-23 0)
(-2.5e-07 6.68741e-23 0)
(-2.5e-07 4.01345e-23 0)
(-2.5e-07 -4.54226e-24 0)
(-2.5e-07 -3.67326e-23 0)
(-2.5e-07 -4.32944e-23 0)
(-2.5e-07 -1.25e-23 0)
(-2.5e-07 2.69138e-23 0)
(-2.5e-07 1.83296e-23 0)
(-2.5e-07 -7.2431e-25 0)
(-2.5e-07 -6.39224e-24 0)
(-2.5e-07 5.44739e-24 0)
(-2.5e-07 -1.55592e-23 0)
(-2.5e-07 -1.90136e-23 0)
(-2.5e-07 -1.74408e-21 0)
(-2.5e-07 2.20064e-22 0)
(-2.5e-07 -3.7009e-23 0)
(-2.5e-07 8.59027e-24 0)
(-2.5e-07 -1.06359e-23 0)
(-2.5e-07 -2.14359e-23 0)
(-2.5e-07 -1.94136e-23 0)
(-2.5e-07 -4.84791e-23 0)
(-2.5e-07 -7.30527e-23 0)
(-2.5e-07 -7.9503e-23 0)
(-2.5e-07 -6.13854e-23 0)
(-2.5e-07 -4.72075e-23 0)
(-2.5e-07 -3.02381e-23 0)
(-2.5e-07 2.35893e-23 0)
(-2.5e-07 3.44375e-23 0)
(-2.5e-07 -6.33626e-24 0)
(-2.5e-07 -9.218e-24 0)
(-2.5e-07 -2.98738e-24 0)
(-2.5e-07 -1.25213e-23 0)
(-2.5e-07 -2.41015e-23 0)
(-2.5e-07 -1.56683e-20 0)
(-2.5e-07 3.42285e-21 0)
(-2.5e-07 -7.62013e-22 0)
(-2.5e-07 2.17452e-22 0)
(-2.5e-07 -1.06393e-23 0)
(-2.5e-07 1.53731e-23 0)
(-2.5e-07 -3.4698e-23 0)
(-2.5e-07 -6.35599e-23 0)
(-2.5e-07 -5.39699e-23 0)
(-2.5e-07 3.83268e-24 0)
(-2.5e-07 3.01103e-23 0)
(-2.5e-07 2.5863e-23 0)
(-2.5e-07 5.19624e-24 0)
(-2.5e-07 -1.54508e-23 0)
(-2.5e-07 -3.12516e-24 0)
(-2.5e-07 -7.59841e-24 0)
(-2.5e-07 -1.40172e-23 0)
(-2.5e-07 -1.71515e-23 0)
(-2.5e-07 -3.48872e-23 0)
(-2.5e-07 -4.01466e-23 0)
(-2.5e-07 2.66651e-20 0)
(-2.5e-07 -5.67852e-21 0)
(-2.5e-07 1.34081e-21 0)
(-2.5e-07 -2.7542e-22 0)
(-2.5e-07 7.26414e-23 0)
(-2.5e-07 5.2855e-24 0)
(-2.5e-07 1.82982e-24 0)
(-2.5e-07 -3.90578e-23 0)
(-2.5e-07 -4.01733e-23 0)
(-2.5e-07 -7.29214e-24 0)
(-2.5e-07 -2.80158e-24 0)
(-2.5e-07 5.15377e-24 0)
(-2.5e-07 3.12002e-23 0)
(-2.5e-07 1.67772e-23 0)
(-2.5e-07 -1.69751e-23 0)
(-2.5e-07 -2.105e-23 0)
(-2.5e-07 -2.79504e-23 0)
(-2.5e-07 -1.62384e-23 0)
(-2.5e-07 2.18597e-24 0)
(-2.5e-07 -7.75611e-24 0)
(-2.5e-07 -1.74299e-20 0)
(-2.5e-07 3.75047e-21 0)
(-2.5e-07 -8.41594e-22 0)
(-2.5e-07 1.98723e-22 0)
(-2.5e-07 -2.53275e-23 0)
(-2.5e-07 2.82498e-23 0)
(-2.5e-07 -2.15438e-25 0)
(-2.5e-07 -3.33628e-23 0)
(-2.5e-07 -5.27825e-23 0)
(-2.5e-07 -8.28941e-23 0)
(-2.5e-07 -5.22021e-23 0)
(-2.5e-07 -8.24264e-24 0)
(-2.5e-07 9.25964e-24 0)
(-2.5e-07 -1.14147e-24 0)
(-2.5e-07 -3.73247e-23 0)
(-2.5e-07 -2.85986e-23 0)
(-2.5e-07 -6.73889e-24 0)
(-2.5e-07 -8.60019e-24 0)
(-2.5e-07 -7.13805e-24 0)
(-2.5e-07 -1.38663e-24 0)
(-2.5e-07 -6.15261e-21 0)
(-2.5e-07 1.43538e-21 0)
(-2.5e-07 -2.52331e-22 0)
(-2.5e-07 1.17938e-22 0)
(-2.5e-07 1.09844e-23 0)
(-2.5e-07 2.65699e-23 0)
(-2.5e-07 3.72452e-23 0)
(-2.5e-07 3.10412e-23 0)
(-2.5e-07 4.46311e-24 0)
(-2.5e-07 -3.40811e-23 0)
(-2.5e-07 -3.63345e-23 0)
(-2.5e-07 -1.80732e-23 0)
(-2.5e-07 -3.48075e-23 0)
(-2.5e-07 -5.37756e-23 0)
(-2.5e-07 -7.57363e-23 0)
(-2.5e-07 -6.20479e-23 0)
(-2.5e-07 -9.4569e-24 0)
(-2.5e-07 1.99053e-23 0)
(-2.5e-07 -2.35565e-24 0)
(-2.5e-07 -1.26327e-24 0)
(-2.5e-07 2.20193e-20 0)
(-2.5e-07 -4.70815e-21 0)
(-2.5e-07 1.11277e-21 0)
(-2.5e-07 -2.46356e-22 0)
(-2.5e-07 1.89228e-23 0)
(-2.5e-07 -7.44507e-23 0)
(-2.5e-07 -5.72e-23 0)
(-2.5e-07 -3.45148e-23 0)
(-2.5e-07 8.0715e-25 0)
(-2.5e-07 1.22353e-23 0)
(-2.5e-07 -3.00002e-25 0)
(-2.5e-07 2.2567e-24 0)
(-2.5e-07 1.34928e-23 0)
(-2.5e-07 -3.77146e-24 0)
(-2.5e-07 -5.09172e-23 0)
(-2.5e-07 -6.42999e-23 0)
(-2.5e-07 -3.67916e-23 0)
(-2.5e-07 -2.50582e-24 0)
(-2.5e-07 1.72927e-23 0)
(-2.5e-07 1.95426e-23 0)
(-2.5e-07 -6.45033e-21 0)
(-2.5e-07 1.22428e-21 0)
(-2.5e-07 -3.66462e-22 0)
(-2.5e-07 1.27582e-23 0)
(-2.5e-07 -3.19298e-23 0)
(-2.5e-07 -3.31389e-23 0)
(-2.5e-07 -6.68321e-23 0)
(-2.5e-07 -4.82602e-23 0)
(-2.5e-07 -6.83475e-24 0)
(-2.5e-07 -1.41165e-23 0)
(-2.5e-07 -1.97569e-23 0)
(-2.5e-07 -3.02441e-23 0)
(-2.5e-07 -2.19485e-23 0)
(-2.5e-07 -1.72431e-23 0)
(-2.5e-07 8.32856e-24 0)
(-2.5e-07 2.03194e-23 0)
(-2.5e-07 1.96518e-24 0)
(-2.5e-07 -2.87634e-23 0)
(-2.5e-07 -2.11032e-23 0)
(-2.5e-07 -1.80621e-25 0)
(-2.5e-07 -2.05418e-20 0)
(-2.5e-07 4.34641e-21 0)
(-2.5e-07 -1.07537e-21 0)
(-2.5e-07 1.9494e-22 0)
(-2.5e-07 -4.57701e-23 0)
(-2.5e-07 2.99401e-23 0)
(-2.5e-07 2.62767e-23 0)
(-2.5e-07 2.57024e-23 0)
(-2.5e-07 1.49721e-23 0)
(-2.5e-07 -6.43088e-24 0)
(-2.5e-07 -2.03222e-23 0)
(-2.5e-07 -4.21458e-23 0)
(-2.5e-07 -5.65462e-23 0)
(-2.5e-07 -3.95739e-23 0)
(-2.5e-07 8.37202e-24 0)
(-2.5e-07 2.19323e-23 0)
(-2.5e-07 8.34934e-24 0)
(-2.5e-07 -1.36934e-23 0)
(-2.5e-07 -2.02852e-23 0)
(-2.5e-07 -1.08506e-23 0)
)
;

boundaryField
{
    movingWall
    {
        type            calculated;
        value           uniform (0 0 0);
    }
    fixedWalls
    {
        type            calculated;
        value           uniform (0 0 0);
    }
    frontAndBack
    {
        type            empty;
    }
}


// ************************************************************************* //
