/*--------------------------------*- C++ -*----------------------------------*\
| =========                 |                                                 |
| \\      /  F ield         | OpenFOAM: The Open Source CFD Toolbox           |
|  \\    /   O peration     | Version:  2312                                  |
|   \\  /    A nd           | Website:  www.openfoam.com                      |
|    \\/     M anipulation  |                                                 |
\*---------------------------------------------------------------------------*/
FoamFile
{
    version     2.0;
    format      ascii;
    arch        "LSB;label=32;scalar=64";
    class       volVectorField;
    location    "6";
    object      norm_U_composite;
}
// * * * * * * * * * * * * * * * * * * * * * * * * * * * * * * * * * * * * * //

dimensions      [0 0 0 0 0 0 0];

internalField   nonuniform List<vector> 
400
(
(-0.5 7.31732e-14 0)
(-0.5 -1.54344e-14 0)
(-0.5 3.70239e-15 0)
(-0.5 -7.36479e-16 0)
(-0.5 1.82684e-16 0)
(-0.5 -2.24348e-17 0)
(-0.5 2.56429e-17 0)
(-0.5 2.90436e-17 0)
(-0.5 1.65135e-17 0)
(-0.5 1.03377e-17 0)
(-0.5 -5.33974e-18 0)
(-0.5 -1.7931e-17 0)
(-0.5 7.44763e-18 0)
(-0.5 4.66659e-17 0)
(-0.5 1.97031e-17 0)
(-0.5 -3.81249e-17 0)
(-0.5 -2.88952e-17 0)
(-0.5 2.74503e-17 0)
(-0.5 9.12955e-18 0)
(-0.5 3.2806e-18 0)
(-0.5 1.18635e-14 0)
(-0.5 -2.66207e-15 0)
(-0.5 6.98446e-16 0)
(-0.5 -2.1429e-16 0)
(-0.5 -4.51797e-17 0)
(-0.5 -2.26966e-17 0)
(-0.5 5.28556e-17 0)
(-0.5 3.75664e-17 0)
(-0.5 9.52696e-19 0)
(-0.5 3.00613e-17 0)
(-0.5 4.45911e-17 0)
(-0.5 5.18265e-17 0)
(-0.5 9.21192e-17 0)
(-0.5 1.39111e-16 0)
(-0.5 1.08732e-16 0)
(-0.5 1.83389e-17 0)
(-0.5 -1.91488e-17 0)
(-0.5 3.00914e-17 0)
(-0.5 -3.32356e-17 0)
(-0.5 -3.18163e-17 0)
(-0.5 -7.40054e-14 0)
(-0.5 1.60749e-14 0)
(-0.5 -3.86089e-15 0)
(-0.5 7.37151e-16 0)
(-0.5 -2.47023e-16 0)
(-0.5 4.55479e-17 0)
(-0.5 9.96732e-17 0)
(-0.5 1.01059e-16 0)
(-0.5 4.57271e-17 0)
(-0.5 -2.88829e-18 0)
(-0.5 1.9187e-18 0)
(-0.5 4.39807e-17 0)
(-0.5 9.48613e-17 0)
(-0.5 1.15953e-16 0)
(-0.5 1.08849e-16 0)
(-0.5 6.82686e-17 0)
(-0.5 -1.85379e-17 0)
(-0.5 -8.02111e-17 0)
(-0.5 -1.12764e-16 0)
(-0.5 -7.72508e-17 0)
(-0.5 5.16878e-14 0)
(-0.5 -1.09735e-14 0)
(-0.5 2.62294e-15 0)
(-0.5 -5.09286e-16 0)
(-0.5 1.3416e-16 0)
(-0.5 -6.76266e-17 0)
(-0.5 -4.66583e-18 0)
(-0.5 1.06557e-17 0)
(-0.5 -1.39871e-17 0)
(-0.5 -7.70474e-17 0)
(-0.5 -3.97574e-17 0)
(-0.5 7.23827e-17 0)
(-0.5 1.21459e-16 0)
(-0.5 8.52767e-17 0)
(-0.5 4.32983e-17 0)
(-0.5 3.68178e-17 0)
(-0.5 -1.18675e-17 0)
(-0.5 -8.73218e-17 0)
(-0.5 -8.24528e-17 0)
(-0.5 -4.69835e-17 0)
(-0.5 -4.00555e-15 0)
(-0.5 4.00467e-16 0)
(-0.5 -1.90021e-16 0)
(-0.5 -5.9735e-18 0)
(-0.5 -1.05025e-17 0)
(-0.5 -2.51387e-17 0)
(-0.5 1.54171e-18 0)
(-0.5 5.33008e-17 0)
(-0.5 9.18538e-17 0)
(-0.5 8.87655e-17 0)
(-0.5 6.01326e-17 0)
(-0.5 6.37626e-17 0)
(-0.5 3.13981e-17 0)
(-0.5 1.92367e-17 0)
(-0.5 -3.76771e-19 0)
(-0.5 -1.02794e-17 0)
(-0.5 -2.13916e-17 0)
(-0.5 -1.27235e-17 0)
(-0.5 -2.95159e-17 0)
(-0.5 -3.01916e-17 0)
(-0.5 -3.8476e-14 0)
(-0.5 8.05919e-15 0)
(-0.5 -1.97819e-15 0)
(-0.5 4.14832e-16 0)
(-0.5 -3.9979e-17 0)
(-0.5 8.61201e-17 0)
(-0.5 3.8029e-18 0)
(-0.5 -1.30727e-17 0)
(-0.5 3.41619e-17 0)
(-0.5 5.85444e-17 0)
(-0.5 -1.38603e-17 0)
(-0.5 -5.82161e-17 0)
(-0.5 -2.53875e-17 0)
(-0.5 5.73088e-17 0)
(-0.5 6.57947e-17 0)
(-0.5 4.09056e-18 0)
(-0.5 -3.59336e-17 0)
(-0.5 -2.58088e-17 0)
(-0.5 -3.09429e-17 0)
(-0.5 -4.11931e-17 0)
(-0.5 4.44903e-14 0)
(-0.5 -8.89486e-15 0)
(-0.5 2.22228e-15 0)
(-0.5 -3.27891e-16 0)
(-0.5 2.13847e-16 0)
(-0.5 8.41368e-17 0)
(-0.5 -1.92899e-17 0)
(-0.5 -1.01557e-16 0)
(-0.5 -7.13761e-17 0)
(-0.5 3.99027e-17 0)
(-0.5 2.88235e-17 0)
(-0.5 -3.36291e-17 0)
(-0.5 1.85312e-17 0)
(-0.5 6.95232e-17 0)
(-0.5 6.37162e-17 0)
(-0.5 3.30406e-17 0)
(-0.5 1.92033e-17 0)
(-0.5 5.46123e-18 0)
(-0.5 -1.16791e-17 0)
(-0.5 8.46207e-19 0)
(-0.5 -1.09688e-14 0)
(-0.5 2.20495e-15 0)
(-0.5 -4.37358e-16 0)
(-0.5 2.13101e-16 0)
(-0.5 1.40377e-16 0)
(-0.5 1.10378e-16 0)
(-0.5 6.68845e-17 0)
(-0.5 3.16657e-17 0)
(-0.5 5.03492e-17 0)
(-0.5 9.84977e-17 0)
(-0.5 1.23686e-16 0)
(-0.5 2.12369e-17 0)
(-0.5 -8.97106e-17 0)
(-0.5 -1.04447e-16 0)
(-0.5 -7.40864e-17 0)
(-0.5 -3.51472e-17 0)
(-0.5 1.78179e-17 0)
(-0.5 4.08305e-17 0)
(-0.5 1.21089e-17 0)
(-0.5 6.76854e-18 0)
(-0.5 -2.72241e-14 0)
(-0.5 5.52227e-15 0)
(-0.5 -1.22932e-15 0)
(-0.5 3.18177e-16 0)
(-0.5 1.08638e-17 0)
(-0.5 7.08808e-17 0)
(-0.5 6.31806e-17 0)
(-0.5 4.02683e-17 0)
(-0.5 8.87644e-18 0)
(-0.5 -3.97082e-17 0)
(-0.5 1.18375e-17 0)
(-0.5 4.72807e-17 0)
(-0.5 -4.55278e-17 0)
(-0.5 -1.11272e-16 0)
(-0.5 -9.02945e-17 0)
(-0.5 -5.16136e-17 0)
(-0.5 -3.598e-18 0)
(-0.5 -1.23808e-17 0)
(-0.5 3.57439e-18 0)
(-0.5 -1.45075e-17 0)
(-0.5 3.32235e-14 0)
(-0.5 -6.71269e-15 0)
(-0.5 1.66408e-15 0)
(-0.5 -2.38004e-16 0)
(-0.5 1.03449e-16 0)
(-0.5 5.66446e-18 0)
(-0.5 -1.34865e-17 0)
(-0.5 -1.36845e-18 0)
(-0.5 -2.26282e-17 0)
(-0.5 -3.65797e-17 0)
(-0.5 -4.56294e-17 0)
(-0.5 -2.3021e-17 0)
(-0.5 -3.24751e-17 0)
(-0.5 -8.06346e-17 0)
(-0.5 -4.68203e-17 0)
(-0.5 1.5105e-17 0)
(-0.5 8.90307e-18 0)
(-0.5 -5.76704e-17 0)
(-0.5 -2.05636e-17 0)
(-0.5 -2.19414e-17 0)
(-0.5 -2.97527e-14 0)
(-0.5 6.58203e-15 0)
(-0.5 -1.44517e-15 0)
(-0.5 4.21572e-16 0)
(-0.5 -8.8648e-18 0)
(-0.5 4.27319e-17 0)
(-0.5 1.32487e-17 0)
(-0.5 7.52159e-17 0)
(-0.5 8.65786e-17 0)
(-0.5 9.13494e-17 0)
(-0.5 5.25495e-17 0)
(-0.5 9.31654e-18 0)
(-0.5 -1.20026e-17 0)
(-0.5 -4.906e-17 0)
(-0.5 -3.509e-17 0)
(-0.5 1.68312e-17 0)
(-0.5 -8.85334e-18 0)
(-0.5 -4.36202e-17 0)
(-0.5 -6.71029e-17 0)
(-0.5 -5.45377e-17 0)
(-0.5 2.29182e-14 0)
(-0.5 -4.82405e-15 0)
(-0.5 1.12392e-15 0)
(-0.5 -2.58103e-16 0)
(-0.5 5.74029e-17 0)
(-0.5 4.14587e-17 0)
(-0.5 1.15653e-16 0)
(-0.5 1.33748e-16 0)
(-0.5 8.0269e-17 0)
(-0.5 -9.08451e-18 0)
(-0.5 -7.34652e-17 0)
(-0.5 -8.65887e-17 0)
(-0.5 -2.5e-17 0)
(-0.5 5.38275e-17 0)
(-0.5 3.66591e-17 0)
(-0.5 -1.44862e-18 0)
(-0.5 -1.27845e-17 0)
(-0.5 1.08948e-17 0)
(-0.5 -3.11184e-17 0)
(-0.5 -3.80272e-17 0)
(-0.5 -3.48816e-15 0)
(-0.5 4.40128e-16 0)
(-0.5 -7.40181e-17 0)
(-0.5 1.71805e-17 0)
(-0.5 -2.12718e-17 0)
(-0.5 -4.28717e-17 0)
(-0.5 -3.88272e-17 0)
(-0.5 -9.69582e-17 0)
(-0.5 -1.46105e-16 0)
(-0.5 -1.59006e-16 0)
(-0.5 -1.22771e-16 0)
(-0.5 -9.4415e-17 0)
(-0.5 -6.04762e-17 0)
(-0.5 4.71785e-17 0)
(-0.5 6.8875e-17 0)
(-0.5 -1.26725e-17 0)
(-0.5 -1.8436e-17 0)
(-0.5 -5.97476e-18 0)
(-0.5 -2.50427e-17 0)
(-0.5 -4.82031e-17 0)
(-0.5 -3.13366e-14 0)
(-0.5 6.84571e-15 0)
(-0.5 -1.52403e-15 0)
(-0.5 4.34905e-16 0)
(-0.5 -2.12787e-17 0)
(-0.5 3.07462e-17 0)
(-0.5 -6.93959e-17 0)
(-0.5 -1.2712e-16 0)
(-0.5 -1.0794e-16 0)
(-0.5 7.66536e-18 0)
(-0.5 6.02206e-17 0)
(-0.5 5.17261e-17 0)
(-0.5 1.03925e-17 0)
(-0.5 -3.09016e-17 0)
(-0.5 -6.25031e-18 0)
(-0.5 -1.51968e-17 0)
(-0.5 -2.80344e-17 0)
(-0.5 -3.43031e-17 0)
(-0.5 -6.97745e-17 0)
(-0.5 -8.02933e-17 0)
(-0.5 5.33303e-14 0)
(-0.5 -1.1357e-14 0)
(-0.5 2.68162e-15 0)
(-0.5 -5.50841e-16 0)
(-0.5 1.45283e-16 0)
(-0.5 1.0571e-17 0)
(-0.5 3.65963e-18 0)
(-0.5 -7.81155e-17 0)
(-0.5 -8.03466e-17 0)
(-0.5 -1.45843e-17 0)
(-0.5 -5.60316e-18 0)
(-0.5 1.03075e-17 0)
(-0.5 6.24005e-17 0)
(-0.5 3.35544e-17 0)
(-0.5 -3.39503e-17 0)
(-0.5 -4.21001e-17 0)
(-0.5 -5.59008e-17 0)
(-0.5 -3.24768e-17 0)
(-0.5 4.37193e-18 0)
(-0.5 -1.55122e-17 0)
(-0.5 -3.48598e-14 0)
(-0.5 7.50094e-15 0)
(-0.5 -1.68319e-15 0)
(-0.5 3.97446e-16 0)
(-0.5 -5.0655e-17 0)
(-0.5 5.64996e-17 0)
(-0.5 -4.30877e-19 0)
(-0.5 -6.67256e-17 0)
(-0.5 -1.05565e-16 0)
(-0.5 -1.65788e-16 0)
(-0.5 -1.04404e-16 0)
(-0.5 -1.64853e-17 0)
(-0.5 1.85193e-17 0)
(-0.5 -2.28294e-18 0)
(-0.5 -7.46494e-17 0)
(-0.5 -5.71973e-17 0)
(-0.5 -1.34778e-17 0)
(-0.5 -1.72004e-17 0)
(-0.5 -1.42761e-17 0)
(-0.5 -2.77325e-18 0)
(-0.5 -1.23052e-14 0)
(-0.5 2.87075e-15 0)
(-0.5 -5.04662e-16 0)
(-0.5 2.35875e-16 0)
(-0.5 2.19689e-17 0)
(-0.5 5.31398e-17 0)
(-0.5 7.44904e-17 0)
(-0.5 6.20823e-17 0)
(-0.5 8.92622e-18 0)
(-0.5 -6.81622e-17 0)
(-0.5 -7.2669e-17 0)
(-0.5 -3.61464e-17 0)
(-0.5 -6.96151e-17 0)
(-0.5 -1.07551e-16 0)
(-0.5 -1.51473e-16 0)
(-0.5 -1.24096e-16 0)
(-0.5 -1.89138e-17 0)
(-0.5 3.98105e-17 0)
(-0.5 -4.71129e-18 0)
(-0.5 -2.52654e-18 0)
(-0.5 4.40385e-14 0)
(-0.5 -9.41629e-15 0)
(-0.5 2.22553e-15 0)
(-0.5 -4.92713e-16 0)
(-0.5 3.78457e-17 0)
(-0.5 -1.48901e-16 0)
(-0.5 -1.144e-16 0)
(-0.5 -6.90296e-17 0)
(-0.5 1.6143e-18 0)
(-0.5 2.44706e-17 0)
(-0.5 -6.00004e-19 0)
(-0.5 4.51341e-18 0)
(-0.5 2.69856e-17 0)
(-0.5 -7.54293e-18 0)
(-0.5 -1.01834e-16 0)
(-0.5 -1.286e-16 0)
(-0.5 -7.35831e-17 0)
(-0.5 -5.01165e-18 0)
(-0.5 3.45854e-17 0)
(-0.5 3.90853e-17 0)
(-0.5 -1.29007e-14 0)
(-0.5 2.44855e-15 0)
(-0.5 -7.32924e-16 0)
(-0.5 2.55164e-17 0)
(-0.5 -6.38596e-17 0)
(-0.5 -6.62778e-17 0)
(-0.5 -1.33664e-16 0)
(-0.5 -9.65204e-17 0)
(-0.5 -1.36695e-17 0)
(-0.5 -2.82331e-17 0)
(-0.5 -3.95137e-17 0)
(-0.5 -6.04883e-17 0)
(-0.5 -4.3897e-17 0)
(-0.5 -3.44862e-17 0)
(-0.5 1.66571e-17 0)
(-0.5 4.06388e-17 0)
(-0.5 3.93035e-18 0)
(-0.5 -5.75268e-17 0)
(-0.5 -4.22063e-17 0)
(-0.5 -3.61242e-19 0)
(-0.5 -4.10836e-14 0)
(-0.5 8.69282e-15 0)
(-0.5 -2.15074e-15 0)
(-0.5 3.8988e-16 0)
(-0.5 -9.15403e-17 0)
(-0.5 5.98801e-17 0)
(-0.5 5.25535e-17 0)
(-0.5 5.14049e-17 0)
(-0.5 2.99443e-17 0)
(-0.5 -1.28618e-17 0)
(-0.5 -4.06443e-17 0)
(-0.5 -8.42917e-17 0)
(-0.5 -1.13092e-16 0)
(-0.5 -7.91478e-17 0)
(-0.5 1.6744e-17 0)
(-0.5 4.38646e-17 0)
(-0.5 1.66987e-17 0)
(-0.5 -2.73867e-17 0)
(-0.5 -4.05704e-17 0)
(-0.5 -2.17013e-17 0)
)
;

boundaryField
{
    movingWall
    {
        type            calculated;
        value           uniform (-0.5 -0 -0);
    }
    fixedWalls
    {
        type            calculated;
        value           uniform (-0.5 -0 -0);
    }
    frontAndBack
    {
        type            empty;
    }
}


// ************************************************************************* //
