/*--------------------------------*- C++ -*----------------------------------*\
| =========                 |                                                 |
| \\      /  F ield         | OpenFOAM: The Open Source CFD Toolbox           |
|  \\    /   O peration     | Version:  2312                                  |
|   \\  /    A nd           | Website:  www.openfoam.com                      |
|    \\/     M anipulation  |                                                 |
\*---------------------------------------------------------------------------*/
FoamFile
{
    version     2.0;
    format      ascii;
    arch        "LSB;label=32;scalar=64";
    class       volVectorField;
    location    "6";
    object      norm_U_L1;
}
// * * * * * * * * * * * * * * * * * * * * * * * * * * * * * * * * * * * * * //

dimensions      [0 0 0 0 0 0 0];

internalField   nonuniform List<vector> 
400
(
(-0.0025 3.65866e-16 0)
(-0.0025 -7.71718e-17 0)
(-0.0025 1.8512e-17 0)
(-0.0025 -3.68239e-18 0)
(-0.0025 9.13421e-19 0)
(-0.0025 -1.12174e-19 0)
(-0.0025 1.28215e-19 0)
(-0.0025 1.45218e-19 0)
(-0.0025 8.25676e-20 0)
(-0.0025 5.16887e-20 0)
(-0.0025 -2.66987e-20 0)
(-0.0025 -8.9655e-20 0)
(-0.0025 3.72381e-20 0)
(-0.0025 2.33329e-19 0)
(-0.0025 9.85154e-20 0)
(-0.0025 -1.90625e-19 0)
(-0.0025 -1.44476e-19 0)
(-0.0025 1.37252e-19 0)
(-0.0025 4.56478e-20 0)
(-0.0025 1.6403e-20 0)
(-0.0025 5.93176e-17 0)
(-0.0025 -1.33103e-17 0)
(-0.0025 3.49223e-18 0)
(-0.0025 -1.07145e-18 0)
(-0.0025 -2.25898e-19 0)
(-0.0025 -1.13483e-19 0)
(-0.0025 2.64278e-19 0)
(-0.0025 1.87832e-19 0)
(-0.0025 4.76348e-21 0)
(-0.0025 1.50307e-19 0)
(-0.0025 2.22956e-19 0)
(-0.0025 2.59132e-19 0)
(-0.0025 4.60596e-19 0)
(-0.0025 6.95553e-19 0)
(-0.0025 5.43659e-19 0)
(-0.0025 9.16945e-20 0)
(-0.0025 -9.57441e-20 0)
(-0.0025 1.50457e-19 0)
(-0.0025 -1.66178e-19 0)
(-0.0025 -1.59082e-19 0)
(-0.0025 -3.70027e-16 0)
(-0.0025 8.03744e-17 0)
(-0.0025 -1.93045e-17 0)
(-0.0025 3.68575e-18 0)
(-0.0025 -1.23512e-18 0)
(-0.0025 2.27739e-19 0)
(-0.0025 4.98366e-19 0)
(-0.0025 5.05297e-19 0)
(-0.0025 2.28636e-19 0)
(-0.0025 -1.44414e-20 0)
(-0.0025 9.59352e-21 0)
(-0.0025 2.19904e-19 0)
(-0.0025 4.74307e-19 0)
(-0.0025 5.79765e-19 0)
(-0.0025 5.44243e-19 0)
(-0.0025 3.41343e-19 0)
(-0.0025 -9.26893e-20 0)
(-0.0025 -4.01056e-19 0)
(-0.0025 -5.63821e-19 0)
(-0.0025 -3.86254e-19 0)
(-0.0025 2.58439e-16 0)
(-0.0025 -5.48674e-17 0)
(-0.0025 1.31147e-17 0)
(-0.0025 -2.54643e-18 0)
(-0.0025 6.708e-19 0)
(-0.0025 -3.38133e-19 0)
(-0.0025 -2.33291e-20 0)
(-0.0025 5.32784e-20 0)
(-0.0025 -6.99357e-20 0)
(-0.0025 -3.85237e-19 0)
(-0.0025 -1.98787e-19 0)
(-0.0025 3.61913e-19 0)
(-0.0025 6.07294e-19 0)
(-0.0025 4.26384e-19 0)
(-0.0025 2.16491e-19 0)
(-0.0025 1.84089e-19 0)
(-0.0025 -5.93377e-20 0)
(-0.0025 -4.36609e-19 0)
(-0.0025 -4.12264e-19 0)
(-0.0025 -2.34917e-19 0)
(-0.0025 -2.00277e-17 0)
(-0.0025 2.00234e-18 0)
(-0.0025 -9.50107e-19 0)
(-0.0025 -2.98675e-20 0)
(-0.0025 -5.25124e-20 0)
(-0.0025 -1.25693e-19 0)
(-0.0025 7.70857e-21 0)
(-0.0025 2.66504e-19 0)
(-0.0025 4.59269e-19 0)
(-0.0025 4.43828e-19 0)
(-0.0025 3.00663e-19 0)
(-0.0025 3.18813e-19 0)
(-0.0025 1.5699e-19 0)
(-0.0025 9.61834e-20 0)
(-0.0025 -1.88386e-21 0)
(-0.0025 -5.13972e-20 0)
(-0.0025 -1.06958e-19 0)
(-0.0025 -6.36176e-20 0)
(-0.0025 -1.47579e-19 0)
(-0.0025 -1.50958e-19 0)
(-0.0025 -1.9238e-16 0)
(-0.0025 4.0296e-17 0)
(-0.0025 -9.89097e-18 0)
(-0.0025 2.07416e-18 0)
(-0.0025 -1.99895e-19 0)
(-0.0025 4.30601e-19 0)
(-0.0025 1.90145e-20 0)
(-0.0025 -6.53634e-20 0)
(-0.0025 1.7081e-19 0)
(-0.0025 2.92722e-19 0)
(-0.0025 -6.93017e-20 0)
(-0.0025 -2.9108e-19 0)
(-0.0025 -1.26938e-19 0)
(-0.0025 2.86544e-19 0)
(-0.0025 3.28973e-19 0)
(-0.0025 2.04528e-20 0)
(-0.0025 -1.79668e-19 0)
(-0.0025 -1.29044e-19 0)
(-0.0025 -1.54715e-19 0)
(-0.0025 -2.05966e-19 0)
(-0.0025 2.22451e-16 0)
(-0.0025 -4.44743e-17 0)
(-0.0025 1.11114e-17 0)
(-0.0025 -1.63946e-18 0)
(-0.0025 1.06924e-18 0)
(-0.0025 4.20684e-19 0)
(-0.0025 -9.64496e-20 0)
(-0.0025 -5.07786e-19 0)
(-0.0025 -3.56881e-19 0)
(-0.0025 1.99513e-19 0)
(-0.0025 1.44117e-19 0)
(-0.0025 -1.68145e-19 0)
(-0.0025 9.26558e-20 0)
(-0.0025 3.47616e-19 0)
(-0.0025 3.18581e-19 0)
(-0.0025 1.65203e-19 0)
(-0.0025 9.60166e-20 0)
(-0.0025 2.73062e-20 0)
(-0.0025 -5.83953e-20 0)
(-0.0025 4.23103e-21 0)
(-0.0025 -5.48442e-17 0)
(-0.0025 1.10248e-17 0)
(-0.0025 -2.18679e-18 0)
(-0.0025 1.06551e-18 0)
(-0.0025 7.01887e-19 0)
(-0.0025 5.51889e-19 0)
(-0.0025 3.34423e-19 0)
(-0.0025 1.58328e-19 0)
(-0.0025 2.51746e-19 0)
(-0.0025 4.92488e-19 0)
(-0.0025 6.1843e-19 0)
(-0.0025 1.06184e-19 0)
(-0.0025 -4.48553e-19 0)
(-0.0025 -5.22234e-19 0)
(-0.0025 -3.70432e-19 0)
(-0.0025 -1.75736e-19 0)
(-0.0025 8.90894e-20 0)
(-0.0025 2.04152e-19 0)
(-0.0025 6.05446e-20 0)
(-0.0025 3.38427e-20 0)
(-0.0025 -1.3612e-16 0)
(-0.0025 2.76113e-17 0)
(-0.0025 -6.1466e-18 0)
(-0.0025 1.59089e-18 0)
(-0.0025 5.43191e-20 0)
(-0.0025 3.54404e-19 0)
(-0.0025 3.15903e-19 0)
(-0.0025 2.01342e-19 0)
(-0.0025 4.43822e-20 0)
(-0.0025 -1.98541e-19 0)
(-0.0025 5.91875e-20 0)
(-0.0025 2.36404e-19 0)
(-0.0025 -2.27639e-19 0)
(-0.0025 -5.56362e-19 0)
(-0.0025 -4.51472e-19 0)
(-0.0025 -2.58068e-19 0)
(-0.0025 -1.799e-20 0)
(-0.0025 -6.19042e-20 0)
(-0.0025 1.78719e-20 0)
(-0.0025 -7.25375e-20 0)
(-0.0025 1.66118e-16 0)
(-0.0025 -3.35635e-17 0)
(-0.0025 8.32042e-18 0)
(-0.0025 -1.19002e-18 0)
(-0.0025 5.17244e-19 0)
(-0.0025 2.83223e-20 0)
(-0.0025 -6.74324e-20 0)
(-0.0025 -6.84226e-21 0)
(-0.0025 -1.13141e-19 0)
(-0.0025 -1.82898e-19 0)
(-0.0025 -2.28147e-19 0)
(-0.0025 -1.15105e-19 0)
(-0.0025 -1.62375e-19 0)
(-0.0025 -4.03173e-19 0)
(-0.0025 -2.34101e-19 0)
(-0.0025 7.5525e-20 0)
(-0.0025 4.45153e-20 0)
(-0.0025 -2.88352e-19 0)
(-0.0025 -1.02818e-19 0)
(-0.0025 -1.09707e-19 0)
(-0.0025 -1.48763e-16 0)
(-0.0025 3.29101e-17 0)
(-0.0025 -7.22587e-18 0)
(-0.0025 2.10786e-18 0)
(-0.0025 -4.4324e-20 0)
(-0.0025 2.13659e-19 0)
(-0.0025 6.62436e-20 0)
(-0.0025 3.76079e-19 0)
(-0.0025 4.32893e-19 0)
(-0.0025 4.56747e-19 0)
(-0.0025 2.62747e-19 0)
(-0.0025 4.65827e-20 0)
(-0.0025 -6.00131e-20 0)
(-0.0025 -2.453e-19 0)
(-0.0025 -1.7545e-19 0)
(-0.0025 8.4156e-20 0)
(-0.0025 -4.42667e-20 0)
(-0.0025 -2.18101e-19 0)
(-0.0025 -3.35515e-19 0)
(-0.0025 -2.72689e-19 0)
(-0.0025 1.14591e-16 0)
(-0.0025 -2.41202e-17 0)
(-0.0025 5.61958e-18 0)
(-0.0025 -1.29052e-18 0)
(-0.0025 2.87015e-19 0)
(-0.0025 2.07293e-19 0)
(-0.0025 5.78267e-19 0)
(-0.0025 6.68741e-19 0)
(-0.0025 4.01345e-19 0)
(-0.0025 -4.54226e-20 0)
(-0.0025 -3.67326e-19 0)
(-0.0025 -4.32944e-19 0)
(-0.0025 -1.25e-19 0)
(-0.0025 2.69138e-19 0)
(-0.0025 1.83296e-19 0)
(-0.0025 -7.2431e-21 0)
(-0.0025 -6.39224e-20 0)
(-0.0025 5.44739e-20 0)
(-0.0025 -1.55592e-19 0)
(-0.0025 -1.90136e-19 0)
(-0.0025 -1.74408e-17 0)
(-0.0025 2.20064e-18 0)
(-0.0025 -3.7009e-19 0)
(-0.0025 8.59027e-20 0)
(-0.0025 -1.06359e-19 0)
(-0.0025 -2.14359e-19 0)
(-0.0025 -1.94136e-19 0)
(-0.0025 -4.84791e-19 0)
(-0.0025 -7.30527e-19 0)
(-0.0025 -7.9503e-19 0)
(-0.0025 -6.13854e-19 0)
(-0.0025 -4.72075e-19 0)
(-0.0025 -3.02381e-19 0)
(-0.0025 2.35893e-19 0)
(-0.0025 3.44375e-19 0)
(-0.0025 -6.33626e-20 0)
(-0.0025 -9.218e-20 0)
(-0.0025 -2.98738e-20 0)
(-0.0025 -1.25213e-19 0)
(-0.0025 -2.41015e-19 0)
(-0.0025 -1.56683e-16 0)
(-0.0025 3.42285e-17 0)
(-0.0025 -7.62013e-18 0)
(-0.0025 2.17452e-18 0)
(-0.0025 -1.06393e-19 0)
(-0.0025 1.53731e-19 0)
(-0.0025 -3.4698e-19 0)
(-0.0025 -6.35599e-19 0)
(-0.0025 -5.39699e-19 0)
(-0.0025 3.83268e-20 0)
(-0.0025 3.01103e-19 0)
(-0.0025 2.5863e-19 0)
(-0.0025 5.19624e-20 0)
(-0.0025 -1.54508e-19 0)
(-0.0025 -3.12516e-20 0)
(-0.0025 -7.59841e-20 0)
(-0.0025 -1.40172e-19 0)
(-0.0025 -1.71515e-19 0)
(-0.0025 -3.48872e-19 0)
(-0.0025 -4.01466e-19 0)
(-0.0025 2.66651e-16 0)
(-0.0025 -5.67852e-17 0)
(-0.0025 1.34081e-17 0)
(-0.0025 -2.7542e-18 0)
(-0.0025 7.26414e-19 0)
(-0.0025 5.2855e-20 0)
(-0.0025 1.82982e-20 0)
(-0.0025 -3.90578e-19 0)
(-0.0025 -4.01733e-19 0)
(-0.0025 -7.29214e-20 0)
(-0.0025 -2.80158e-20 0)
(-0.0025 5.15377e-20 0)
(-0.0025 3.12002e-19 0)
(-0.0025 1.67772e-19 0)
(-0.0025 -1.69751e-19 0)
(-0.0025 -2.105e-19 0)
(-0.0025 -2.79504e-19 0)
(-0.0025 -1.62384e-19 0)
(-0.0025 2.18597e-20 0)
(-0.0025 -7.75611e-20 0)
(-0.0025 -1.74299e-16 0)
(-0.0025 3.75047e-17 0)
(-0.0025 -8.41594e-18 0)
(-0.0025 1.98723e-18 0)
(-0.0025 -2.53275e-19 0)
(-0.0025 2.82498e-19 0)
(-0.0025 -2.15438e-21 0)
(-0.0025 -3.33628e-19 0)
(-0.0025 -5.27825e-19 0)
(-0.0025 -8.28941e-19 0)
(-0.0025 -5.22021e-19 0)
(-0.0025 -8.24264e-20 0)
(-0.0025 9.25964e-20 0)
(-0.0025 -1.14147e-20 0)
(-0.0025 -3.73247e-19 0)
(-0.0025 -2.85986e-19 0)
(-0.0025 -6.73889e-20 0)
(-0.0025 -8.60019e-20 0)
(-0.0025 -7.13805e-20 0)
(-0.0025 -1.38663e-20 0)
(-0.0025 -6.15261e-17 0)
(-0.0025 1.43538e-17 0)
(-0.0025 -2.52331e-18 0)
(-0.0025 1.17938e-18 0)
(-0.0025 1.09844e-19 0)
(-0.0025 2.65699e-19 0)
(-0.0025 3.72452e-19 0)
(-0.0025 3.10412e-19 0)
(-0.0025 4.46311e-20 0)
(-0.0025 -3.40811e-19 0)
(-0.0025 -3.63345e-19 0)
(-0.0025 -1.80732e-19 0)
(-0.0025 -3.48075e-19 0)
(-0.0025 -5.37756e-19 0)
(-0.0025 -7.57363e-19 0)
(-0.0025 -6.20479e-19 0)
(-0.0025 -9.4569e-20 0)
(-0.0025 1.99053e-19 0)
(-0.0025 -2.35565e-20 0)
(-0.0025 -1.26327e-20 0)
(-0.0025 2.20193e-16 0)
(-0.0025 -4.70815e-17 0)
(-0.0025 1.11277e-17 0)
(-0.0025 -2.46356e-18 0)
(-0.0025 1.89228e-19 0)
(-0.0025 -7.44507e-19 0)
(-0.0025 -5.72e-19 0)
(-0.0025 -3.45148e-19 0)
(-0.0025 8.0715e-21 0)
(-0.0025 1.22353e-19 0)
(-0.0025 -3.00002e-21 0)
(-0.0025 2.2567e-20 0)
(-0.0025 1.34928e-19 0)
(-0.0025 -3.77146e-20 0)
(-0.0025 -5.09172e-19 0)
(-0.0025 -6.42999e-19 0)
(-0.0025 -3.67916e-19 0)
(-0.0025 -2.50582e-20 0)
(-0.0025 1.72927e-19 0)
(-0.0025 1.95426e-19 0)
(-0.0025 -6.45033e-17 0)
(-0.0025 1.22428e-17 0)
(-0.0025 -3.66462e-18 0)
(-0.0025 1.27582e-19 0)
(-0.0025 -3.19298e-19 0)
(-0.0025 -3.31389e-19 0)
(-0.0025 -6.68321e-19 0)
(-0.0025 -4.82602e-19 0)
(-0.0025 -6.83475e-20 0)
(-0.0025 -1.41165e-19 0)
(-0.0025 -1.97569e-19 0)
(-0.0025 -3.02441e-19 0)
(-0.0025 -2.19485e-19 0)
(-0.0025 -1.72431e-19 0)
(-0.0025 8.32856e-20 0)
(-0.0025 2.03194e-19 0)
(-0.0025 1.96518e-20 0)
(-0.0025 -2.87634e-19 0)
(-0.0025 -2.11032e-19 0)
(-0.0025 -1.80621e-21 0)
(-0.0025 -2.05418e-16 0)
(-0.0025 4.34641e-17 0)
(-0.0025 -1.07537e-17 0)
(-0.0025 1.9494e-18 0)
(-0.0025 -4.57701e-19 0)
(-0.0025 2.99401e-19 0)
(-0.0025 2.62767e-19 0)
(-0.0025 2.57024e-19 0)
(-0.0025 1.49721e-19 0)
(-0.0025 -6.43088e-20 0)
(-0.0025 -2.03222e-19 0)
(-0.0025 -4.21458e-19 0)
(-0.0025 -5.65462e-19 0)
(-0.0025 -3.95739e-19 0)
(-0.0025 8.37202e-20 0)
(-0.0025 2.19323e-19 0)
(-0.0025 8.34934e-20 0)
(-0.0025 -1.36934e-19 0)
(-0.0025 -2.02852e-19 0)
(-0.0025 -1.08506e-19 0)
)
;

boundaryField
{
    movingWall
    {
        type            calculated;
        value           uniform (-0.0025 -0 -0);
    }
    fixedWalls
    {
        type            calculated;
        value           uniform (-0.0025 -0 -0);
    }
    frontAndBack
    {
        type            empty;
    }
}


// ************************************************************************* //
