/*--------------------------------*- C++ -*----------------------------------*\
| =========                 |                                                 |
| \\      /  F ield         | OpenFOAM: The Open Source CFD Toolbox           |
|  \\    /   O peration     | Version:  2312                                  |
|   \\  /    A nd           | Website:  www.openfoam.com                      |
|    \\/     M anipulation  |                                                 |
\*---------------------------------------------------------------------------*/
FoamFile
{
    version     2.0;
    format      ascii;
    arch        "LSB;label=32;scalar=64";
    class       volScalarField;
    location    "6";
    object      norm_k_field;
}
// * * * * * * * * * * * * * * * * * * * * * * * * * * * * * * * * * * * * * //

dimensions      [0 0 0 0 0 0 0];

internalField   nonuniform List<scalar> 
400
(
8.6976e+09
3.39218e+09
8.69758e+09
8.69757e+09
8.69756e+09
8.69756e+09
8.69755e+09
8.69755e+09
8.69755e+09
8.69754e+09
8.69754e+09
8.69754e+09
8.69754e+09
8.69753e+09
8.69753e+09
8.69753e+09
8.69753e+09
8.69753e+09
8.69753e+09
8.69753e+09
4.53993e+09
9.13932e+09
9.1387e+09
9.13846e+09
9.13799e+09
9.1378e+09
9.13737e+09
9.13725e+09
9.13687e+09
9.13677e+09
9.13645e+09
9.13638e+09
9.13612e+09
9.13608e+09
9.13589e+09
9.13586e+09
9.13574e+09
9.13573e+09
9.13569e+09
9.13568e+09
9.76541e+09
5.34917e+09
9.7647e+09
9.76438e+09
9.7639e+09
9.76362e+09
9.7632e+09
9.76297e+09
9.76261e+09
9.76241e+09
9.76213e+09
9.76196e+09
9.76175e+09
9.76162e+09
9.76147e+09
9.76138e+09
9.76129e+09
9.76124e+09
9.76121e+09
9.7612e+09
1.03364e+10
1.03364e+10
1.03356e+10
1.03353e+10
1.03347e+10
1.03344e+10
1.03339e+10
1.03337e+10
1.03333e+10
1.03331e+10
1.03327e+10
1.03326e+10
1.03323e+10
1.03322e+10
1.0332e+10
1.03319e+10
1.03318e+10
1.03318e+10
1.03317e+10
1.03317e+10
1.07524e+10
1.07524e+10
1.07515e+10
1.07511e+10
1.07505e+10
1.07502e+10
1.07496e+10
1.07494e+10
1.07489e+10
1.07488e+10
1.07483e+10
1.07482e+10
1.07479e+10
1.07478e+10
1.07475e+10
1.07475e+10
1.07473e+10
1.07473e+10
1.07473e+10
1.07473e+10
1.1019e+10
6.21421e+09
1.10181e+10
1.10177e+10
1.10171e+10
1.10167e+10
1.10162e+10
1.10159e+10
1.10155e+10
1.10152e+10
1.10148e+10
1.10146e+10
1.10144e+10
1.10142e+10
1.1014e+10
1.10139e+10
1.10138e+10
1.10137e+10
1.10137e+10
1.10136e+10
1.11796e+10
1.11796e+10
1.11786e+10
1.11782e+10
1.11775e+10
1.11772e+10
1.11766e+10
1.11764e+10
1.11758e+10
1.11756e+10
1.11752e+10
1.11751e+10
1.11747e+10
1.11746e+10
1.11743e+10
1.11743e+10
1.11741e+10
1.11741e+10
1.1174e+10
1.1174e+10
1.1276e+10
1.1276e+10
1.12751e+10
1.12746e+10
1.1274e+10
1.12736e+10
1.1273e+10
1.12727e+10
1.12722e+10
1.1272e+10
1.12716e+10
1.12714e+10
1.12711e+10
1.12709e+10
1.12707e+10
1.12706e+10
1.12705e+10
1.12704e+10
1.12704e+10
1.12703e+10
1.13379e+10
6.69082e+09
1.13369e+10
1.13365e+10
1.13358e+10
1.13354e+10
1.13349e+10
1.13345e+10
1.13341e+10
1.13337e+10
1.13334e+10
1.13331e+10
1.13329e+10
1.13327e+10
1.13325e+10
1.13324e+10
1.13323e+10
1.13322e+10
1.13322e+10
1.13321e+10
1.1383e+10
1.13829e+10
1.1382e+10
1.13815e+10
1.13809e+10
1.13805e+10
1.13799e+10
1.13796e+10
1.13791e+10
1.13788e+10
1.13785e+10
1.13782e+10
1.13779e+10
1.13778e+10
1.13776e+10
1.13774e+10
1.13773e+10
1.13772e+10
1.13772e+10
1.13772e+10
1.14212e+10
1.14212e+10
1.14202e+10
1.14198e+10
1.14191e+10
1.14187e+10
1.14181e+10
1.14178e+10
1.14173e+10
1.1417e+10
1.14167e+10
1.14164e+10
1.14162e+10
1.1416e+10
1.14158e+10
1.14156e+10
1.14155e+10
1.14155e+10
1.14154e+10
1.14154e+10
1.14581e+10
8.75123e+09
1.14571e+10
1.14566e+10
1.14559e+10
1.14556e+10
1.1455e+10
1.14546e+10
1.14542e+10
1.14539e+10
1.14535e+10
1.14533e+10
1.1453e+10
1.14528e+10
1.14526e+10
1.14525e+10
1.14523e+10
1.14523e+10
1.14522e+10
1.14522e+10
1.14967e+10
1.14967e+10
1.14956e+10
1.14952e+10
1.14945e+10
1.14942e+10
1.14935e+10
1.14932e+10
1.14927e+10
1.14925e+10
1.1492e+10
1.14919e+10
1.14915e+10
1.14914e+10
1.14911e+10
1.1491e+10
1.14908e+10
1.14908e+10
1.14908e+10
1.14907e+10
1.15389e+10
4.57015e+09
1.15379e+10
1.15375e+10
1.15368e+10
1.15364e+10
1.15358e+10
1.15355e+10
1.1535e+10
1.15347e+10
1.15343e+10
1.1534e+10
1.15338e+10
1.15336e+10
1.15334e+10
1.15332e+10
1.15331e+10
1.1533e+10
1.1533e+10
1.1533e+10
1.15862e+10
1.15862e+10
1.15852e+10
1.15847e+10
1.15841e+10
1.15836e+10
1.15831e+10
1.15827e+10
1.15822e+10
1.15819e+10
1.15815e+10
1.15813e+10
1.1581e+10
1.15808e+10
1.15806e+10
1.15805e+10
1.15803e+10
1.15803e+10
1.15802e+10
1.15802e+10
1.16389e+10
1.16389e+10
1.16378e+10
1.16374e+10
1.16366e+10
1.16363e+10
1.16356e+10
1.16354e+10
1.16348e+10
1.16346e+10
1.16341e+10
1.1634e+10
1.16336e+10
1.16335e+10
1.16332e+10
1.16331e+10
1.16329e+10
1.16329e+10
1.16328e+10
1.16328e+10
1.16954e+10
1.16953e+10
1.16943e+10
1.16939e+10
1.16932e+10
1.16928e+10
1.16922e+10
1.16918e+10
1.16913e+10
1.1691e+10
1.16906e+10
1.16904e+10
1.16901e+10
1.16899e+10
1.16897e+10
1.16895e+10
1.16894e+10
1.16893e+10
1.16893e+10
1.16893e+10
1.1751e+10
1.17509e+10
1.17499e+10
1.17495e+10
1.17487e+10
1.17484e+10
1.17477e+10
1.17474e+10
1.17468e+10
1.17466e+10
1.17461e+10
1.1746e+10
1.17455e+10
1.17455e+10
1.17451e+10
1.17451e+10
1.17449e+10
1.17449e+10
1.17448e+10
1.17448e+10
1.17969e+10
1.17969e+10
1.17959e+10
1.17954e+10
1.17947e+10
1.17943e+10
1.17937e+10
1.17934e+10
1.17929e+10
1.17926e+10
1.17922e+10
1.1792e+10
1.17917e+10
1.17915e+10
1.17913e+10
1.17911e+10
1.1791e+10
1.17909e+10
1.17909e+10
1.17909e+10
1.18175e+10
1.13181e+10
1.18175e+10
1.18175e+10
1.18175e+10
1.18174e+10
1.18174e+10
1.18174e+10
1.18174e+10
1.18174e+10
1.18174e+10
1.18174e+10
1.18174e+10
1.18174e+10
1.18174e+10
1.18174e+10
1.18174e+10
1.18174e+10
1.18174e+10
1.18174e+10
)
;

boundaryField
{
    movingWall
    {
        type            calculated;
        value           nonuniform List<scalar> 
20
(
1.18175e+10
1.13181e+10
1.18175e+10
1.18175e+10
1.18175e+10
1.18174e+10
1.18174e+10
1.18174e+10
1.18174e+10
1.18174e+10
1.18174e+10
1.18174e+10
1.18174e+10
1.18174e+10
1.18174e+10
1.18174e+10
1.18174e+10
1.18174e+10
1.18174e+10
1.18174e+10
)
;
    }
    fixedWalls
    {
        type            calculated;
        value           nonuniform List<scalar> 
60
(
8.6976e+09
4.53993e+09
9.76541e+09
1.03364e+10
1.07524e+10
1.1019e+10
1.11796e+10
1.1276e+10
1.13379e+10
1.1383e+10
1.14212e+10
1.14581e+10
1.14967e+10
1.15389e+10
1.15862e+10
1.16389e+10
1.16954e+10
1.1751e+10
1.17969e+10
1.18175e+10
8.69753e+09
9.13568e+09
9.7612e+09
1.03317e+10
1.07473e+10
1.10136e+10
1.1174e+10
1.12703e+10
1.13321e+10
1.13772e+10
1.14154e+10
1.14522e+10
1.14907e+10
1.1533e+10
1.15802e+10
1.16328e+10
1.16893e+10
1.17448e+10
1.17909e+10
1.18174e+10
8.6976e+09
3.39218e+09
8.69758e+09
8.69757e+09
8.69756e+09
8.69756e+09
8.69755e+09
8.69755e+09
8.69755e+09
8.69754e+09
8.69754e+09
8.69754e+09
8.69754e+09
8.69753e+09
8.69753e+09
8.69753e+09
8.69753e+09
8.69753e+09
8.69753e+09
8.69753e+09
)
;
    }
    frontAndBack
    {
        type            empty;
    }
}


// ************************************************************************* //
