/*--------------------------------*- C++ -*----------------------------------*\
| =========                 |                                                 |
| \\      /  F ield         | OpenFOAM: The Open Source CFD Toolbox           |
|  \\    /   O peration     | Version:  2312                                  |
|   \\  /    A nd           | Website:  www.openfoam.com                      |
|    \\/     M anipulation  |                                                 |
\*---------------------------------------------------------------------------*/
FoamFile
{
    version     2.0;
    format      ascii;
    arch        "LSB;label=32;scalar=64";
    class       volScalarField;
    location    "6";
    object      P_A;
}
// * * * * * * * * * * * * * * * * * * * * * * * * * * * * * * * * * * * * * //

dimensions      [1 -1 -3 0 0 0 0];

internalField   nonuniform List<scalar> 
400
(
1.14604e-31
1.14603e-31
1.14603e-31
1.14603e-31
1.14602e-31
1.14602e-31
1.14602e-31
1.14601e-31
1.14601e-31
1.14601e-31
1.14601e-31
1.146e-31
1.14601e-31
1.146e-31
1.146e-31
1.146e-31
1.146e-31
1.146e-31
1.146e-31
1.146e-31
1.39747e-31
1.37238e-31
1.37422e-31
1.37499e-31
1.37653e-31
1.37735e-31
1.37891e-31
1.37978e-31
1.38137e-31
1.38228e-31
1.3839e-31
1.38484e-31
1.3865e-31
1.38747e-31
1.38917e-31
1.39017e-31
1.3919e-31
1.39294e-31
1.39382e-31
1.39524e-31
1.82197e-31
1.78764e-31
1.79019e-31
1.79124e-31
1.7934e-31
1.79449e-31
1.79668e-31
1.79783e-31
1.80005e-31
1.80124e-31
1.8035e-31
1.80473e-31
1.80704e-31
1.80831e-31
1.81066e-31
1.81196e-31
1.81436e-31
1.81571e-31
1.81692e-31
1.81882e-31
2.28731e-31
2.2429e-31
2.24616e-31
2.24752e-31
2.25028e-31
2.25172e-31
2.2545e-31
2.25602e-31
2.25885e-31
2.26042e-31
2.26331e-31
2.26492e-31
2.26788e-31
2.26953e-31
2.27255e-31
2.27426e-31
2.27733e-31
2.27909e-31
2.28064e-31
2.28311e-31
2.67851e-31
2.62535e-31
2.62923e-31
2.63087e-31
2.63413e-31
2.63587e-31
2.63918e-31
2.641e-31
2.64435e-31
2.64626e-31
2.64968e-31
2.65164e-31
2.65515e-31
2.65715e-31
2.66074e-31
2.6628e-31
2.66646e-31
2.66858e-31
2.67043e-31
2.67338e-31
2.95436e-31
2.89492e-31
2.89927e-31
2.90106e-31
2.90476e-31
2.90663e-31
2.91038e-31
2.91236e-31
2.91617e-31
2.91822e-31
2.92211e-31
2.92423e-31
2.92821e-31
2.93039e-31
2.93445e-31
2.9367e-31
2.94084e-31
2.94318e-31
2.94526e-31
2.94856e-31
3.13038e-31
3.0669e-31
3.07148e-31
3.07344e-31
3.07733e-31
3.07939e-31
3.08333e-31
3.0855e-31
3.0895e-31
3.09175e-31
3.09585e-31
3.09816e-31
3.10236e-31
3.10474e-31
3.10903e-31
3.11148e-31
3.11585e-31
3.11838e-31
3.12059e-31
3.12412e-31
3.23982e-31
3.17378e-31
3.17861e-31
3.18058e-31
3.18469e-31
3.18676e-31
3.19093e-31
3.19309e-31
3.19733e-31
3.1996e-31
3.20391e-31
3.20626e-31
3.21068e-31
3.2131e-31
3.21761e-31
3.22012e-31
3.2247e-31
3.22731e-31
3.22962e-31
3.23329e-31
3.31153e-31
3.24383e-31
3.24877e-31
3.2508e-31
3.255e-31
3.2571e-31
3.26142e-31
3.26358e-31
3.268e-31
3.27024e-31
3.27474e-31
3.27708e-31
3.28164e-31
3.28411e-31
3.28874e-31
3.29131e-31
3.29601e-31
3.29868e-31
3.30105e-31
3.3048e-31
3.36452e-31
3.29561e-31
3.30063e-31
3.3027e-31
3.30697e-31
3.30913e-31
3.31348e-31
3.31575e-31
3.32017e-31
3.32253e-31
3.32705e-31
3.32948e-31
3.3341e-31
3.33662e-31
3.34133e-31
3.34394e-31
3.34872e-31
3.35144e-31
3.35385e-31
3.35768e-31
3.41001e-31
3.34002e-31
3.34513e-31
3.34722e-31
3.35154e-31
3.35376e-31
3.35814e-31
3.36046e-31
3.36495e-31
3.36734e-31
3.37193e-31
3.3744e-31
3.37909e-31
3.38164e-31
3.38643e-31
3.38908e-31
3.39394e-31
3.3967e-31
3.39915e-31
3.40303e-31
3.45423e-31
3.38324e-31
3.38841e-31
3.39054e-31
3.39494e-31
3.39716e-31
3.40164e-31
3.40397e-31
3.40854e-31
3.41095e-31
3.41562e-31
3.41812e-31
3.42288e-31
3.42547e-31
3.43032e-31
3.43301e-31
3.43794e-31
3.44074e-31
3.44322e-31
3.44716e-31
3.50102e-31
3.42898e-31
3.43413e-31
3.43637e-31
3.44077e-31
3.4431e-31
3.44758e-31
3.45e-31
3.45457e-31
3.45709e-31
3.46173e-31
3.46438e-31
3.46911e-31
3.47183e-31
3.47667e-31
3.47947e-31
3.48442e-31
3.4873e-31
3.48981e-31
3.49381e-31
3.55284e-31
3.47954e-31
3.48488e-31
3.48707e-31
3.49161e-31
3.49392e-31
3.4985e-31
3.50094e-31
3.50561e-31
3.50813e-31
3.51293e-31
3.51551e-31
3.52043e-31
3.5231e-31
3.52811e-31
3.53088e-31
3.53597e-31
3.53886e-31
3.54143e-31
3.54549e-31
3.61145e-31
3.5368e-31
3.54223e-31
3.54445e-31
3.5491e-31
3.55142e-31
3.55613e-31
3.55856e-31
3.56337e-31
3.5659e-31
3.57079e-31
3.57343e-31
3.57842e-31
3.58115e-31
3.58625e-31
3.58908e-31
3.59426e-31
3.59721e-31
3.59982e-31
3.60396e-31
3.6776e-31
3.60146e-31
3.60689e-31
3.60926e-31
3.6139e-31
3.61636e-31
3.62106e-31
3.62366e-31
3.62844e-31
3.63114e-31
3.63604e-31
3.63882e-31
3.64384e-31
3.6467e-31
3.65183e-31
3.65478e-31
3.66001e-31
3.66305e-31
3.6657e-31
3.66993e-31
3.7496e-31
3.67173e-31
3.67738e-31
3.67971e-31
3.68452e-31
3.68696e-31
3.69186e-31
3.69442e-31
3.6994e-31
3.70206e-31
3.70716e-31
3.7099e-31
3.71512e-31
3.71796e-31
3.72328e-31
3.72623e-31
3.73163e-31
3.7347e-31
3.73742e-31
3.74174e-31
3.82142e-31
3.74191e-31
3.74766e-31
3.75007e-31
3.75492e-31
3.75748e-31
3.76239e-31
3.76509e-31
3.7701e-31
3.7729e-31
3.77801e-31
3.78092e-31
3.78614e-31
3.78914e-31
3.79448e-31
3.79756e-31
3.80302e-31
3.8062e-31
3.80897e-31
3.81338e-31
3.88156e-31
3.80229e-31
3.80792e-31
3.81026e-31
3.81507e-31
3.81754e-31
3.82245e-31
3.82508e-31
3.83009e-31
3.83284e-31
3.83799e-31
3.84083e-31
3.84612e-31
3.84908e-31
3.85449e-31
3.85757e-31
3.8631e-31
3.86633e-31
3.86913e-31
3.87361e-31
3.90877e-31
3.90874e-31
3.90873e-31
3.90871e-31
3.9087e-31
3.90869e-31
3.90867e-31
3.90867e-31
3.90865e-31
3.90866e-31
3.90864e-31
3.90865e-31
3.90864e-31
3.90864e-31
3.90863e-31
3.90864e-31
3.90863e-31
3.90863e-31
3.90863e-31
3.90863e-31
)
;

boundaryField
{
    movingWall
    {
        type            calculated;
        value           nonuniform List<scalar> 
20
(
3.90877e-31
3.90874e-31
3.90873e-31
3.90871e-31
3.9087e-31
3.90869e-31
3.90867e-31
3.90867e-31
3.90865e-31
3.90866e-31
3.90864e-31
3.90865e-31
3.90864e-31
3.90864e-31
3.90863e-31
3.90864e-31
3.90863e-31
3.90863e-31
3.90863e-31
3.90863e-31
)
;
    }
    fixedWalls
    {
        type            calculated;
        value           nonuniform List<scalar> 
60
(
1.14604e-31
1.39747e-31
1.82197e-31
2.28731e-31
2.67851e-31
2.95436e-31
3.13038e-31
3.23982e-31
3.31153e-31
3.36452e-31
3.41001e-31
3.45423e-31
3.50102e-31
3.55284e-31
3.61145e-31
3.6776e-31
3.7496e-31
3.82142e-31
3.88156e-31
3.90877e-31
1.146e-31
1.39524e-31
1.81882e-31
2.28311e-31
2.67338e-31
2.94856e-31
3.12412e-31
3.23329e-31
3.3048e-31
3.35768e-31
3.40303e-31
3.44716e-31
3.49381e-31
3.54549e-31
3.60396e-31
3.66993e-31
3.74174e-31
3.81338e-31
3.87361e-31
3.90863e-31
1.14604e-31
1.14603e-31
1.14603e-31
1.14603e-31
1.14602e-31
1.14602e-31
1.14602e-31
1.14601e-31
1.14601e-31
1.14601e-31
1.14601e-31
1.146e-31
1.14601e-31
1.146e-31
1.146e-31
1.146e-31
1.146e-31
1.146e-31
1.146e-31
1.146e-31
)
;
    }
    frontAndBack
    {
        type            empty;
    }
}


// ************************************************************************* //
