/*--------------------------------*- C++ -*----------------------------------*\
| =========                 |                                                 |
| \\      /  F ield         | OpenFOAM: The Open Source CFD Toolbox           |
|  \\    /   O peration     | Version:  2312                                  |
|   \\  /    A nd           | Website:  www.openfoam.com                      |
|    \\/     M anipulation  |                                                 |
\*---------------------------------------------------------------------------*/
FoamFile
{
    version     2.0;
    format      ascii;
    arch        "LSB;label=32;scalar=64";
    class       surfaceScalarField;
    location    "6";
    object      PecletNoField;
}
// * * * * * * * * * * * * * * * * * * * * * * * * * * * * * * * * * * * * * //

dimensions      [0 0 0 0 0 0 0];

oriented        oriented;

internalField   nonuniform List<scalar> 
760
(
429.179
4.30477e-12
429.179
6.10112e-12
429.179
1.86866e-12
429.18
2.91228e-13
429.18
2.51988e-14
429.18
9.18667e-16
429.18
5.53177e-14
429.18
4.18586e-14
429.18
1.71964e-14
429.18
2.56328e-14
429.18
1.93133e-14
429.18
1.98888e-15
429.18
2.8927e-14
429.18
7.94419e-14
429.18
6.03235e-14
429.18
2.09397e-14
429.18
5.06257e-14
429.18
1.37113e-14
429.18
1.25703e-14
1.46678e-14
427.108
3.18817e-12
426.596
4.03473e-12
426.668
1.29726e-12
426.732
1.08994e-13
426.796
1.09674e-13
426.859
1.51304e-14
426.923
5.39893e-14
426.986
6.07358e-14
427.05
2.58593e-15
427.113
2.77648e-15
427.177
1.06659e-14
427.24
3.99163e-14
427.304
8.37616e-14
427.367
1.08892e-13
427.431
1.14748e-13
427.494
7.79959e-14
427.558
1.01937e-14
427.601
4.01266e-15
427.653
7.0683e-14
5.90486e-14
425.005
2.46633e-12
424.456
2.5825e-12
424.535
5.56255e-13
424.605
1.26597e-13
424.674
4.80945e-14
424.743
1.70609e-14
424.812
2.69496e-14
424.88
4.10674e-14
424.949
4.3255e-14
425.017
1.42835e-14
425.085
1.95009e-15
425.153
5.41438e-14
425.221
8.4362e-14
425.289
8.96481e-14
425.356
5.16446e-14
425.424
2.62401e-14
425.491
1.31396e-14
425.537
8.48452e-14
425.592
8.48328e-14
8.74442e-14
423.166
2.27535e-12
422.589
3.63803e-12
422.672
1.04177e-12
422.745
1.43552e-13
422.818
6.57949e-14
422.89
1.20209e-14
422.963
1.51054e-14
423.035
2.14277e-14
423.107
2.73613e-15
423.179
2.88143e-14
423.25
1.80664e-14
423.322
6.38507e-14
423.393
9.50383e-14
423.465
4.35188e-14
423.536
1.79958e-14
423.607
8.58272e-15
423.678
7.44199e-15
423.726
4.76085e-14
423.783
4.16749e-14
5.00542e-15
421.864
1.95489e-12
421.266
2.42615e-12
421.353
9.47815e-13
421.429
5.51565e-14
421.504
3.4103e-14
421.579
2.73616e-15
421.654
8.88472e-15
421.729
3.368e-14
421.804
9.62798e-14
421.878
9.46449e-14
421.953
3.81641e-14
422.027
3.95761e-15
422.101
2.89478e-14
422.175
2.73585e-14
422.248
1.40129e-14
422.322
1.0341e-14
422.395
4.74771e-14
422.445
3.52494e-15
422.505
2.0956e-14
4.97388e-14
421.047
5.18385e-13
420.435
1.22014e-13
420.523
1.27937e-13
420.601
8.19907e-14
420.678
7.61707e-14
420.755
8.35722e-14
420.832
6.63307e-15
420.908
6.26097e-14
420.985
5.49073e-14
421.061
1.88348e-14
421.137
1.48966e-14
421.213
4.1269e-14
421.288
1.21426e-14
421.364
6.13999e-14
421.439
7.61542e-14
421.514
2.95312e-14
421.589
1.11306e-14
421.641
2.93916e-14
421.702
2.40511e-14
2.29162e-14
420.56
3.77155e-13
419.94
1.69963e-12
420.03
7.57685e-13
420.108
6.93388e-15
420.187
1.20965e-13
420.264
8.69633e-14
420.342
1.1292e-14
420.42
1.54448e-14
420.497
2.15372e-14
420.574
7.42013e-14
420.652
8.94296e-14
420.728
1.72107e-14
420.805
4.65207e-14
420.881
1.841e-14
420.958
2.01584e-14
421.034
4.62893e-15
421.11
1.41967e-14
421.162
4.82224e-14
421.224
3.02902e-15
2.29884e-14
420.27
1.62597e-12
419.645
1.73363e-12
419.736
6.97591e-13
419.815
1.49333e-13
419.894
1.35094e-13
419.972
7.63799e-14
420.051
6.15824e-14
420.129
3.44032e-16
420.207
3.99883e-14
420.285
1.32847e-15
420.362
5.24062e-14
420.44
4.91961e-14
420.517
3.94551e-14
420.594
8.58314e-14
420.671
5.60222e-14
420.748
3.76019e-14
420.824
8.69113e-15
420.877
4.15534e-15
420.939
1.41055e-14
1.14617e-14
420.084
5.17909e-13
419.457
2.01394e-13
419.548
1.59618e-13
419.627
4.43512e-14
419.707
2.31937e-14
419.785
1.93155e-14
419.864
1.95199e-14
419.943
4.29848e-14
420.021
1.03829e-14
420.099
9.76051e-15
420.177
2.24037e-14
420.255
1.31771e-14
420.333
3.79071e-14
420.41
8.71179e-14
420.488
5.79946e-14
420.565
2.01756e-14
420.642
1.1737e-14
420.694
3.93927e-14
420.757
2.15298e-14
5.40316e-15
419.95
8.24162e-13
419.32
3.19618e-13
419.412
9.17719e-14
419.491
1.31999e-13
419.571
6.70369e-14
419.65
3.40963e-14
419.729
2.32678e-15
419.808
1.96753e-14
419.887
9.83177e-15
419.965
1.44827e-14
420.043
4.83648e-16
420.121
2.01624e-14
420.199
2.18982e-14
420.277
6.94586e-14
420.355
5.86876e-14
420.432
4.45686e-15
420.509
1.02975e-14
420.562
4.84044e-14
420.625
1.8406e-14
3.14518e-14
419.836
1.42176e-13
419.205
4.21042e-13
419.296
8.10561e-14
419.376
3.66567e-15
419.456
5.3764e-14
419.535
3.65848e-14
419.615
3.4488e-14
419.694
8.01646e-14
419.773
7.19453e-14
419.851
4.67923e-14
419.93
8.31966e-15
420.008
1.68651e-14
420.086
1.20714e-14
420.164
3.22621e-14
420.242
1.02336e-14
420.32
1.73116e-14
420.397
2.30254e-14
420.45
4.5019e-15
420.513
6.34793e-14
7.07313e-14
419.727
4.14432e-13
419.094
4.32981e-14
419.186
3.47838e-13
419.266
3.09477e-14
419.346
4.57921e-14
419.425
7.49573e-16
419.505
6.72567e-14
419.584
5.13249e-14
419.663
7.41262e-15
419.742
7.84579e-14
419.821
1.05331e-13
419.899
1.04582e-13
419.978
8.53731e-14
420.056
1.53694e-14
420.134
4.31807e-14
420.212
4.87396e-15
420.29
1.30665e-14
420.343
4.34073e-15
420.406
1.11702e-14
1.57818e-14
419.613
2.97125e-13
418.978
9.95741e-13
419.07
5.9277e-13
419.15
7.67012e-14
419.231
1.62652e-14
419.31
3.18844e-14
419.39
6.98641e-14
419.469
1.23466e-13
419.549
1.12784e-13
419.628
6.26447e-14
419.707
1.05207e-14
419.786
1.39585e-15
419.865
8.56592e-15
419.943
2.88491e-14
420.021
5.54795e-14
420.099
1.91466e-14
420.177
1.7954e-14
420.23
2.6599e-14
420.294
4.64805e-14
9.28404e-14
419.488
1.20787e-13
418.851
4.61613e-13
418.943
4.44748e-13
419.024
6.35719e-14
419.104
4.25045e-14
419.184
4.0649e-14
419.265
3.0578e-14
419.344
8.80715e-14
419.424
1.03536e-13
419.503
4.92817e-15
419.583
2.56777e-14
419.662
4.25443e-14
419.741
5.65825e-14
419.819
3.1785e-14
419.898
3.9993e-14
419.976
1.81633e-15
420.054
2.67619e-14
420.108
1.32779e-14
420.171
3.15704e-14
5.15515e-14
419.349
1.56853e-12
418.71
1.82137e-12
418.803
4.24904e-13
418.883
9.73726e-14
418.964
3.86248e-14
419.044
1.16627e-14
419.125
1.04127e-14
419.205
5.16891e-14
419.285
6.26273e-14
419.364
5.72625e-14
419.444
4.03654e-14
419.523
3.28162e-14
419.603
5.70718e-15
419.681
4.24044e-14
419.76
3.65397e-14
419.839
6.14039e-14
419.917
5.19735e-14
419.971
5.8714e-14
420.034
1.03435e-14
3.28018e-14
419.194
2.8582e-12
418.553
3.71907e-12
418.646
9.06442e-13
418.727
2.14717e-13
418.808
1.3087e-14
418.889
6.87754e-14
418.97
4.21313e-14
419.05
2.39524e-15
419.13
3.80912e-14
419.21
1.39789e-13
419.29
1.04683e-13
419.369
1.77434e-14
419.449
1.09724e-15
419.528
5.66437e-14
419.607
1.1745e-13
419.686
6.56536e-14
419.765
2.55388e-14
419.819
5.1371e-14
419.883
2.38578e-14
4.12845e-14
419.029
1.9159e-12
418.385
2.2923e-12
418.479
7.14853e-13
418.56
4.98441e-14
418.642
3.10657e-14
418.722
6.22611e-14
418.804
2.03363e-14
418.884
1.66956e-14
418.965
3.3854e-15
419.045
3.72192e-15
419.125
1.54382e-14
419.205
3.36069e-15
419.285
2.64072e-14
419.364
3.39458e-14
419.444
8.49962e-14
419.523
1.41293e-13
419.602
7.4095e-14
419.656
1.40274e-14
419.72
2.89217e-14
3.3669e-14
418.868
2.51699e-12
418.221
2.50674e-12
418.315
6.34384e-13
418.396
1.85247e-13
418.478
1.72581e-14
418.56
6.94185e-14
418.641
1.1979e-13
418.722
1.19541e-13
418.803
2.22763e-14
418.883
3.65131e-15
418.964
1.61348e-14
419.044
3.37619e-14
419.124
1.23345e-14
419.204
1.32842e-14
419.284
4.15156e-14
419.363
1.23577e-14
419.443
2.84967e-14
419.497
4.5811e-14
419.561
6.78118e-15
3.73565e-14
418.749
2.47942e-12
418.112
3.89864e-12
418.203
1.22216e-12
418.282
1.19192e-13
418.361
5.74752e-14
418.44
1.51474e-14
418.52
2.23769e-14
418.599
1.9302e-14
418.678
3.36898e-14
418.757
3.56607e-15
418.836
2.42544e-14
418.915
5.91327e-14
418.995
9.62652e-14
419.074
7.98494e-14
419.153
8.28218e-15
419.232
4.01666e-14
419.311
3.08179e-14
419.365
2.70104e-14
419.43
4.17302e-14
4.21672e-14
419.393
419.393
419.394
419.394
419.394
419.394
419.394
419.394
419.394
419.394
419.394
419.394
419.394
419.394
419.394
419.394
419.394
419.394
419.394
)
;

boundaryField
{
    movingWall
    {
        type            calculated;
        value           uniform 0;
    }
    fixedWalls
    {
        type            calculated;
        value           nonuniform List<scalar> 
60
(
250
250
250
250
250
250
250
250
250
250
250
250
250
250
250
250
250
250
250
250
250
250
250
250
250
250
250
250
250
250
250
250
250
250
250
250
250
250
250
250
0
0
0
0
0
0
0
0
0
0
0
0
0
0
0
0
0
0
0
0
)
;
    }
    frontAndBack
    {
        type            empty;
        value           nonuniform List<scalar> 0();
    }
}


// ************************************************************************* //
