/*--------------------------------*- C++ -*----------------------------------*\
| =========                 |                                                 |
| \\      /  F ield         | OpenFOAM: The Open Source CFD Toolbox           |
|  \\    /   O peration     | Version:  2312                                  |
|   \\  /    A nd           | Website:  www.openfoam.com                      |
|    \\/     M anipulation  |                                                 |
\*---------------------------------------------------------------------------*/
FoamFile
{
    version     2.0;
    format      ascii;
    arch        "LSB;label=32;scalar=64";
    class       surfaceScalarField;
    location    "6";
    object      phi;
}
// * * * * * * * * * * * * * * * * * * * * * * * * * * * * * * * * * * * * * //

dimensions      [0 3 -1 0 0 0 0];

oriented        oriented;

internalField   nonuniform List<scalar> 
760
(
-5e-05
5.02395e-19
-5e-05
-7.12984e-19
-5e-05
2.18347e-19
-5e-05
-3.40275e-20
-5e-05
2.94396e-21
-5e-05
-1.07322e-22
-5e-05
6.46178e-21
-5e-05
4.88934e-21
-5e-05
2.00845e-21
-5e-05
2.99363e-21
-5e-05
2.25536e-21
-5e-05
2.32244e-22
-5e-05
3.37752e-21
-5e-05
9.27516e-21
-5e-05
7.04234e-21
-5e-05
-2.44443e-21
-5e-05
-5.90931e-21
-5e-05
1.60037e-21
-5e-05
-1.46713e-21
1.71181e-21
-5e-05
-3.73637e-19
-5e-05
4.7415e-19
-5e-05
-1.52412e-19
-5e-05
1.28041e-20
-5e-05
-1.28814e-20
-5e-05
-1.77689e-21
-5e-05
6.33913e-21
-5e-05
7.1305e-21
-5e-05
3.03532e-22
-5e-05
3.25863e-22
-5e-05
1.25156e-21
-5e-05
4.68334e-21
-5e-05
9.82572e-21
-5e-05
1.27723e-20
-5e-05
1.34564e-20
-5e-05
9.14554e-21
-5e-05
1.19505e-21
-5e-05
4.70367e-22
-5e-05
-8.2847e-21
-6.91998e-21
-5e-05
-2.90357e-19
-5e-05
3.04927e-19
-5e-05
-6.56615e-20
-5e-05
1.49421e-20
-5e-05
-5.67527e-21
-5e-05
-2.013e-21
-5e-05
3.17906e-21
-5e-05
4.84389e-21
-5e-05
5.10081e-21
-5e-05
-1.68417e-21
-5e-05
2.29886e-22
-5e-05
6.38201e-21
-5e-05
9.94177e-21
-5e-05
1.05635e-20
-5e-05
6.08415e-21
-5e-05
3.09093e-21
-5e-05
-1.54744e-21
-5e-05
-9.99102e-21
-5e-05
-9.98852e-21
-1.02943e-20
-5e-05
2.6885e-19
-5e-05
-4.31183e-19
-5e-05
1.23436e-19
-5e-05
-1.70071e-20
-5e-05
7.79311e-21
-5e-05
-1.42365e-21
-5e-05
1.78854e-21
-5e-05
2.53682e-21
-5e-05
3.23857e-22
-5e-05
-3.41014e-21
-5e-05
-2.13765e-21
-5e-05
7.55405e-21
-5e-05
1.12413e-20
-5e-05
5.14684e-21
-5e-05
2.12783e-21
-5e-05
1.01471e-21
-5e-05
-8.79647e-22
-5e-05
-5.62667e-21
-5e-05
-4.92485e-21
5.91407e-22
-5e-05
-2.31554e-19
-5e-05
2.88286e-19
-5e-05
-1.12591e-19
-5e-05
6.55122e-21
-5e-05
-4.04961e-21
-5e-05
3.24869e-22
-5e-05
-1.05465e-21
-5e-05
3.99745e-21
-5e-05
1.14247e-20
-5e-05
1.12293e-20
-5e-05
4.52698e-21
-5e-05
-4.69388e-22
-5e-05
-3.43253e-21
-5e-05
3.24368e-21
-5e-05
1.66102e-21
-5e-05
-1.22562e-21
-5e-05
-5.62571e-21
-5e-05
-4.17629e-22
-5e-05
-2.48255e-21
-5.89127e-21
-5e-05
-6.14952e-20
-5e-05
-1.45212e-20
-5e-05
1.52216e-20
-5e-05
9.75376e-21
-5e-05
9.05919e-21
-5e-05
9.93822e-21
-5e-05
7.88599e-22
-5e-05
-7.44266e-21
-5e-05
-6.52549e-21
-5e-05
2.23815e-21
-5e-05
-1.76975e-21
-5e-05
-4.90223e-21
-5e-05
1.44204e-21
-5e-05
7.29088e-21
-5e-05
9.04076e-21
-5e-05
3.50539e-21
-5e-05
1.32092e-21
-5e-05
-3.48757e-21
-5e-05
-2.85354e-21
-2.7184e-21
-5e-05
4.47818e-20
-5e-05
-2.02467e-19
-5e-05
9.02314e-20
-5e-05
8.25641e-22
-5e-05
1.44001e-20
-5e-05
1.03511e-20
-5e-05
1.34374e-21
-5e-05
-1.83769e-21
-5e-05
-2.56197e-21
-5e-05
8.82552e-21
-5e-05
1.06342e-20
-5e-05
-2.04629e-21
-5e-05
-5.52983e-21
-5e-05
-2.18808e-21
-5e-05
-2.39532e-21
-5e-05
-5.4996e-22
-5e-05
1.68631e-21
-5e-05
5.7272e-21
-5e-05
3.59704e-22
2.72944e-21
-5e-05
-1.93168e-19
-5e-05
2.06637e-19
-5e-05
-8.31228e-20
-5e-05
1.77917e-20
-5e-05
1.60914e-20
-5e-05
9.09659e-21
-5e-05
7.33246e-21
-5e-05
-4.09577e-23
-5e-05
4.75954e-21
-5e-05
-1.58098e-22
-5e-05
6.23524e-21
-5e-05
5.85252e-21
-5e-05
-4.6926e-21
-5e-05
-1.0207e-20
-5e-05
-6.66056e-21
-5e-05
-4.46996e-21
-5e-05
-1.03292e-21
-5e-05
4.93789e-22
-5e-05
1.67599e-21
-1.36161e-21
-5e-05
-6.15515e-20
-5e-05
2.40141e-20
-5e-05
1.90269e-20
-5e-05
5.28611e-21
-5e-05
-2.76371e-21
-5e-05
2.3013e-21
-5e-05
2.32508e-21
-5e-05
5.11938e-21
-5e-05
1.23628e-21
-5e-05
-1.16202e-21
-5e-05
-2.66658e-21
-5e-05
1.56818e-21
-5e-05
-4.5102e-21
-5e-05
-1.03639e-20
-5e-05
-6.89765e-21
-5e-05
-2.39929e-21
-5e-05
1.39544e-21
-5e-05
-4.68288e-21
-5e-05
-2.55909e-21
-6.42118e-22
-5e-05
-9.79767e-20
-5e-05
3.81225e-20
-5e-05
1.09428e-20
-5e-05
1.57374e-20
-5e-05
7.99036e-21
-5e-05
4.06352e-21
-5e-05
-2.77233e-22
-5e-05
2.34397e-21
-5e-05
1.171e-21
-5e-05
1.72472e-21
-5e-05
-5.75828e-23
-5e-05
-2.40021e-21
-5e-05
-2.60622e-21
-5e-05
-8.26552e-21
-5e-05
-6.98213e-21
-5e-05
5.30166e-22
-5e-05
1.22465e-21
-5e-05
-5.75583e-21
-5e-05
-2.18842e-21
-3.73886e-21
-5e-05
-1.69064e-20
-5e-05
-5.02336e-20
-5e-05
-9.66763e-21
-5e-05
4.37151e-22
-5e-05
6.41003e-21
-5e-05
4.36128e-21
-5e-05
4.11029e-21
-5e-05
9.55279e-21
-5e-05
8.57124e-21
-5e-05
5.57388e-21
-5e-05
9.90796e-22
-5e-05
-2.00821e-21
-5e-05
1.43705e-21
-5e-05
3.84018e-21
-5e-05
1.21782e-21
-5e-05
2.05985e-21
-5e-05
-2.73906e-21
-5e-05
-5.35467e-22
-5e-05
-7.54949e-21
-8.41042e-21
-5e-05
-4.92936e-20
-5e-05
-5.1672e-21
-5e-05
4.14981e-20
-5e-05
-3.69168e-21
-5e-05
-5.46105e-21
-5e-05
-8.93806e-23
-5e-05
8.01783e-21
-5e-05
6.11775e-21
-5e-05
-8.83342e-22
-5e-05
-9.34837e-21
-5e-05
-1.25473e-20
-5e-05
-1.24565e-20
-5e-05
-1.0166e-20
-5e-05
1.82991e-21
-5e-05
5.13995e-21
-5e-05
-5.80087e-22
-5e-05
-1.55478e-21
-5e-05
5.16432e-22
-5e-05
-1.3288e-21
1.87705e-21
-5e-05
-3.53507e-20
-5e-05
1.18866e-19
-5e-05
-7.07397e-20
-5e-05
9.15215e-21
-5e-05
1.94031e-21
-5e-05
-3.80306e-21
-5e-05
-8.33104e-21
-5e-05
-1.47209e-20
-5e-05
-1.3444e-20
-5e-05
-7.46634e-21
-5e-05
-1.25361e-21
-5e-05
1.66302e-22
-5e-05
-1.0203e-21
-5e-05
3.4358e-21
-5e-05
6.60578e-21
-5e-05
-2.27942e-21
-5e-05
-2.13694e-21
-5e-05
-3.16546e-21
-5e-05
-5.53084e-21
-1.10453e-20
-5e-05
-1.43751e-20
-5e-05
-5.51226e-20
-5e-05
5.30922e-20
-5e-05
7.58795e-21
-5e-05
5.07206e-21
-5e-05
4.85e-21
-5e-05
-3.64748e-21
-5e-05
-1.05041e-20
-5e-05
-1.23455e-20
-5e-05
-5.87551e-22
-5e-05
3.06062e-21
-5e-05
5.07034e-21
-5e-05
6.74173e-21
-5e-05
-3.78663e-21
-5e-05
-4.76334e-21
-5e-05
2.16304e-22
-5e-05
-3.18627e-21
-5e-05
-1.58065e-21
-5e-05
-3.75781e-21
-6.13502e-21
-5e-05
1.86739e-19
-5e-05
-2.17573e-19
-5e-05
5.07412e-20
-5e-05
-1.16265e-20
-5e-05
4.61072e-21
-5e-05
1.39202e-21
-5e-05
1.24251e-21
-5e-05
-6.16704e-21
-5e-05
-7.47023e-21
-5e-05
-6.8294e-21
-5e-05
-4.81298e-21
-5e-05
-3.91232e-21
-5e-05
6.8024e-22
-5e-05
5.05351e-21
-5e-05
-4.35354e-21
-5e-05
-7.31501e-21
-5e-05
-6.19009e-21
-5e-05
-6.99194e-21
-5e-05
1.23161e-21
3.905e-21
-5e-05
-3.40406e-19
-5e-05
4.44436e-19
-5e-05
-1.08288e-19
-5e-05
2.56477e-20
-5e-05
-1.56283e-21
-5e-05
8.21194e-21
-5e-05
5.0293e-21
-5e-05
-2.85887e-22
-5e-05
-4.54528e-21
-5e-05
-1.66782e-20
-5e-05
-1.24867e-20
-5e-05
-2.11616e-21
-5e-05
-1.3083e-22
-5e-05
-6.75302e-21
-5e-05
-1.39988e-20
-5e-05
-7.82422e-21
-5e-05
3.04283e-21
-5e-05
6.11979e-21
-5e-05
-2.84182e-21
-4.91669e-21
-5e-05
2.28266e-19
-5e-05
-2.74043e-19
-5e-05
8.54333e-20
-5e-05
-5.95617e-21
-5e-05
3.71127e-21
-5e-05
-7.43704e-21
-5e-05
-2.42853e-21
-5e-05
1.9935e-21
-5e-05
4.04125e-22
-5e-05
4.44236e-22
-5e-05
-1.8422e-21
-5e-05
4.00967e-22
-5e-05
-3.14989e-21
-5e-05
-4.04856e-21
-5e-05
-1.01346e-20
-5e-05
-1.6845e-20
-5e-05
-8.83148e-21
-5e-05
1.67171e-21
-5e-05
3.44633e-21
4.01127e-21
-5e-05
2.99986e-19
-5e-05
-2.99776e-19
-5e-05
7.58412e-20
-5e-05
-2.21436e-20
-5e-05
-2.06243e-21
-5e-05
-8.29478e-21
-5e-05
-1.431e-20
-5e-05
-1.42783e-20
-5e-05
-2.66009e-21
-5e-05
-4.35958e-22
-5e-05
-1.92599e-21
-5e-05
-4.02956e-21
-5e-05
1.47178e-21
-5e-05
-1.58489e-21
-5e-05
-4.95188e-21
-5e-05
-1.4738e-21
-5e-05
-3.39774e-21
-5e-05
-5.46142e-21
-5e-05
-8.0833e-22
4.45213e-21
-5e-05
-2.95576e-19
-5e-05
4.65542e-19
-5e-05
-1.45917e-19
-5e-05
1.42298e-20
-5e-05
-6.86085e-21
-5e-05
-1.80804e-21
-5e-05
-2.67065e-21
-5e-05
2.3035e-21
-5e-05
4.02005e-21
-5e-05
-4.25494e-22
-5e-05
-2.89362e-21
-5e-05
-7.05423e-21
-5e-05
-1.14826e-20
-5e-05
-9.52383e-21
-5e-05
9.87718e-22
-5e-05
4.78986e-21
-5e-05
3.67459e-21
-5e-05
-3.22038e-21
-5e-05
-4.97508e-21
-5.02671e-21
-5e-05
-5e-05
-5e-05
-5e-05
-5e-05
-5e-05
-5e-05
-5e-05
-5e-05
-5e-05
-5e-05
-5e-05
-5e-05
-5e-05
-5e-05
-5e-05
-5e-05
-5e-05
-5e-05
)
;

boundaryField
{
    movingWall
    {
        type            calculated;
        value           uniform 0;
    }
    fixedWalls
    {
        type            calculated;
        value           nonuniform List<scalar> 
60
(
5e-05
5e-05
5e-05
5e-05
5e-05
5e-05
5e-05
5e-05
5e-05
5e-05
5e-05
5e-05
5e-05
5e-05
5e-05
5e-05
5e-05
5e-05
5e-05
5e-05
-5e-05
-5e-05
-5e-05
-5e-05
-5e-05
-5e-05
-5e-05
-5e-05
-5e-05
-5e-05
-5e-05
-5e-05
-5e-05
-5e-05
-5e-05
-5e-05
-5e-05
-5e-05
-5e-05
-5e-05
0
0
0
0
0
0
0
0
0
0
0
0
0
0
0
0
0
0
0
0
)
;
    }
    frontAndBack
    {
        type            empty;
        value           nonuniform List<scalar> 0();
    }
}


// ************************************************************************* //
