/*--------------------------------*- C++ -*----------------------------------*\
| =========                 |                                                 |
| \\      /  F ield         | OpenFOAM: The Open Source CFD Toolbox           |
|  \\    /   O peration     | Version:  2312                                  |
|   \\  /    A nd           | Website:  www.openfoam.com                      |
|    \\/     M anipulation  |                                                 |
\*---------------------------------------------------------------------------*/
FoamFile
{
    version     2.0;
    format      ascii;
    arch        "LSB;label=32;scalar=64";
    class       volScalarField;
    location    "6";
    object      QField;
}
// * * * * * * * * * * * * * * * * * * * * * * * * * * * * * * * * * * * * * //

dimensions      [0 0 -2 0 0 0 0];

internalField   nonuniform List<scalar> 
400
(
-2.86035e-23
-8.24377e-24
-5.64924e-25
7.11674e-26
-1.47379e-26
4.25661e-27
-1.96734e-27
9.89813e-29
1.08125e-28
2.36934e-28
4.59735e-28
-3.22389e-28
-7.00361e-28
-1.07353e-27
-1.39249e-27
-2.14521e-28
-2.60447e-28
-3.11934e-28
0
0
-5.67985e-23
-1.67544e-23
-1.12029e-24
-1.20936e-26
-2.52187e-28
2.49433e-27
2.52055e-28
-9.5313e-28
7.69967e-29
4.73129e-28
3.53968e-28
1.79676e-28
9.46335e-28
-1.05435e-28
-1.79267e-27
-1.15352e-27
1.27421e-28
-1.52729e-28
0
-8.73123e-28
-5.52127e-23
-1.87424e-23
-2.59871e-25
-3.27849e-26
-3.74919e-27
1.87945e-27
1.20371e-27
0
8.0989e-29
0
0
0
7.80325e-28
-1.5165e-28
1.6228e-28
1.38113e-27
1.60982e-27
-2.51393e-28
0
-1.03007e-27
-3.92674e-23
-1.3414e-23
-3.24343e-25
-8.05697e-27
-6.07066e-27
1.50515e-27
-1.27311e-27
-1.57838e-28
9.50879e-28
1.39701e-28
3.15578e-28
-8.73955e-28
1.34338e-28
8.47419e-28
-6.67184e-29
4.25809e-28
6.72962e-28
3.99436e-28
0
-2.55108e-28
-2.10574e-23
-6.6848e-24
-5.08376e-25
8.90235e-27
-9.4401e-28
-5.72296e-28
1.32157e-27
2.08696e-27
1.23493e-28
-2.3771e-27
-2.71082e-28
-8.63747e-28
-1.59211e-27
-3.23867e-28
0
-2.27843e-28
-1.32494e-29
-4.21547e-28
0
3.23675e-28
-1.02636e-23
-4.89598e-24
4.36489e-26
-3.50479e-26
-2.4324e-27
-1.06707e-27
1.07545e-27
0
-2.65461e-27
-4.55663e-30
2.36211e-27
0
0
4.943e-28
-6.35945e-28
3.16632e-28
-2.78046e-28
1.97159e-28
0
0
2.50852e-24
-1.17043e-24
3.84563e-25
1.09358e-27
3.4895e-27
1.31501e-28
-3.41966e-28
3.22193e-28
1.53371e-27
1.62955e-27
-3.83139e-27
-5.98099e-28
1.88806e-27
-1.01891e-27
-2.10991e-27
-4.54013e-28
-2.91387e-28
-3.61252e-28
0
-3.18726e-28
4.83783e-24
6.91197e-25
-6.98159e-26
2.61666e-26
-5.70223e-28
-8.68671e-28
-1.30047e-27
-1.79277e-28
2.16791e-28
-4.65584e-28
0
1.15682e-27
1.37586e-27
-1.96019e-27
0
-4.58911e-28
1.23563e-27
-2.55341e-28
0
-1.02335e-28
5.34537e-24
6.76797e-25
2.143e-25
-1.83215e-27
3.42122e-27
-5.6722e-28
-5.39483e-28
9.46924e-28
2.16777e-27
-1.51267e-27
-2.80413e-27
9.32934e-28
3.1278e-27
7.28041e-28
-1.14583e-27
-4.69982e-28
-3.77035e-28
-7.77631e-29
0
-5.92686e-29
7.60986e-24
2.0013e-24
6.66883e-26
5.754e-26
-5.28372e-27
2.05432e-27
-1.56305e-28
1.48672e-28
5.72641e-28
2.4938e-28
-7.35016e-29
-7.13101e-29
3.12324e-28
1.55531e-28
1.03801e-27
-3.7104e-28
3.94516e-28
1.69349e-28
0
2.3042e-28
3.61596e-24
1.00288e-24
-1.79878e-25
6.16363e-26
-8.21479e-27
5.53674e-28
-1.7178e-28
1.25514e-27
-2.95427e-28
-8.86941e-28
-7.38504e-28
-6.99875e-28
-3.1646e-28
-1.45784e-27
-3.57197e-28
1.42229e-28
6.55415e-28
-7.43385e-28
-1.14435e-28
-6.59415e-28
4.74607e-24
6.77714e-25
1.31193e-25
-1.65497e-26
1.11657e-26
1.28232e-27
3.06612e-27
-5.75458e-28
-2.32289e-27
-5.42872e-27
-2.21087e-27
-1.12466e-27
9.96845e-28
6.6851e-28
-2.99653e-28
-5.36069e-28
8.18796e-29
-4.02853e-28
-2.28009e-28
3.40499e-28
1.46595e-23
2.8175e-24
9.0115e-26
1.62106e-26
3.33386e-27
5.50033e-28
-5.4029e-28
-7.53172e-28
-3.58754e-28
-5.05989e-28
-2.14972e-27
-1.49961e-27
1.53516e-27
4.59317e-28
-6.48906e-28
0
1.08926e-28
-1.73388e-28
0
-4.58249e-28
1.30693e-23
2.07673e-24
1.68889e-25
2.04634e-26
4.3819e-27
2.31975e-28
-2.30322e-28
-3.11094e-28
2.56621e-27
2.86349e-27
0
0
8.95851e-28
0
-7.27688e-28
3.9571e-28
4.0534e-30
4.52547e-28
4.98627e-28
-9.90736e-28
-6.40261e-24
-4.22612e-24
2.99805e-25
-4.20608e-26
6.08684e-27
-3.6991e-27
-1.81617e-27
-1.3662e-27
3.18655e-28
-6.65031e-28
-6.22555e-28
-2.25215e-30
2.96099e-28
-1.55142e-28
-7.86632e-29
-4.5537e-28
2.67435e-29
7.46192e-28
-1.16927e-28
-3.59845e-28
-2.38407e-23
-7.3518e-24
-1.60841e-25
-1.27944e-26
0
-2.30766e-28
2.00402e-27
1.7098e-27
6.43158e-28
-5.9977e-28
4.45808e-28
9.18197e-28
7.6991e-29
-1.77507e-27
-1.27418e-27
2.18725e-28
-2.00507e-28
-7.83741e-28
-9.84806e-29
-9.24247e-29
-2.97355e-23
-7.71826e-24
-4.74486e-25
-1.44767e-26
-9.59526e-28
-2.51168e-27
-1.23566e-27
7.10848e-28
8.31094e-28
-1.7672e-27
-1.0834e-27
-4.96658e-29
1.20716e-27
1.33125e-27
1.79375e-28
-2.21135e-27
2.36874e-28
-6.60753e-29
0
-2.26916e-28
-2.88522e-23
-8.40734e-24
-2.90249e-25
-4.56143e-27
-4.19289e-27
1.65065e-27
-2.25682e-27
-1.09066e-27
5.06865e-28
-1.20038e-29
2.87923e-28
-1.31958e-28
-7.40607e-29
6.98335e-28
4.01067e-28
-1.93921e-27
-2.47677e-28
7.03814e-28
-2.03261e-28
-4.11108e-28
-2.7792e-23
-8.22023e-24
-3.56258e-25
-2.77041e-26
1.99047e-27
1.13523e-27
-2.49275e-28
-2.60912e-27
-5.23763e-28
2.80204e-28
1.74856e-28
2.37616e-29
-2.27809e-27
-5.99064e-29
8.14507e-28
-8.65939e-28
-4.4668e-28
7.50322e-28
-1.12474e-27
-2.30759e-28
-1.2701e-23
-3.25878e-24
-4.40131e-25
3.57407e-26
-7.99816e-27
2.3434e-27
-1.83778e-28
-2.45129e-28
-6.9678e-28
-7.65324e-28
-7.74445e-28
-1.1776e-27
-1.6742e-27
-5.28177e-28
-3.62136e-28
-4.9174e-31
-3.86254e-28
-4.60317e-28
3.0821e-29
2.17974e-28
)
;

boundaryField
{
    movingWall
    {
        type            calculated;
        value           nonuniform List<scalar> 
20
(
6.31108e-24
4.78133e-24
-1.0368e-24
1.1819e-25
-2.25019e-26
7.67886e-27
-4.51652e-28
-1.00405e-27
-3.42481e-27
-4.38867e-27
-3.17213e-27
-5.68859e-27
-4.76754e-27
-2.27931e-27
-7.26157e-28
-1.2085e-30
-1.26568e-27
-1.61116e-27
5.04971e-29
8.25125e-29
)
;
    }
    fixedWalls
    {
        type            calculated;
        value           nonuniform List<scalar> 
60
(
-1.59458e-22
-3.07436e-22
-2.85342e-22
-2.07635e-22
-1.26025e-22
-5.65434e-23
9.1211e-24
1.62221e-23
2.65272e-23
3.81841e-23
1.84643e-23
2.35504e-23
6.47425e-23
5.3163e-23
-3.30624e-23
-1.23657e-22
-1.53822e-22
-1.4688e-22
-1.45688e-22
-7.49571e-23
0
-1.43052e-27
-1.67511e-27
-8.35939e-28
6.54676e-28
0
-4.07636e-28
-1.46769e-28
-5.9586e-29
4.75778e-28
-1.03973e-27
7.68321e-28
-7.50796e-28
-2.03144e-27
3.36368e-28
-6.01353e-29
-3.71778e-28
-8.66758e-28
-7.83318e-30
2.74617e-28
9.81798e-24
9.20176e-24
-1.62589e-24
1.40337e-25
-2.77486e-26
9.76365e-27
-3.39818e-27
3.24342e-28
1.40344e-28
3.88192e-28
7.53231e-28
3.88816e-28
-1.14747e-27
-1.12075e-27
-2.36067e-27
-1.65341e-27
-1.20899e-27
-5.95234e-28
0
0
)
;
    }
    frontAndBack
    {
        type            empty;
    }
}


// ************************************************************************* //
