/*--------------------------------*- C++ -*----------------------------------*\
| =========                 |                                                 |
| \\      /  F ield         | OpenFOAM: The Open Source CFD Toolbox           |
|  \\    /   O peration     | Version:  2312                                  |
|   \\  /    A nd           | Website:  www.openfoam.com                      |
|    \\/     M anipulation  |                                                 |
\*---------------------------------------------------------------------------*/
FoamFile
{
    version     2.0;
    format      ascii;
    arch        "LSB;label=32;scalar=64";
    class       surfaceScalarField;
    location    "6";
    object      surfaceK;
}
// * * * * * * * * * * * * * * * * * * * * * * * * * * * * * * * * * * * * * //

dimensions      [0 2 -2 0 0 0 0];

internalField   nonuniform List<scalar> 
760
(
8.6976e-06
8.91846e-06
8.69758e-06
8.91845e-06
8.69758e-06
8.91814e-06
8.69757e-06
8.91802e-06
8.69756e-06
8.91778e-06
8.69756e-06
8.91768e-06
8.69755e-06
8.91746e-06
8.69755e-06
8.9174e-06
8.69754e-06
8.91721e-06
8.69754e-06
8.91716e-06
8.69754e-06
8.917e-06
8.69754e-06
8.91696e-06
8.69753e-06
8.91683e-06
8.69753e-06
8.91681e-06
8.69753e-06
8.91671e-06
8.69753e-06
8.9167e-06
8.69753e-06
8.91664e-06
8.69753e-06
8.91663e-06
8.69753e-06
8.91661e-06
8.9166e-06
9.13932e-06
9.45237e-06
9.13901e-06
9.45235e-06
9.13858e-06
9.4517e-06
9.13822e-06
9.45142e-06
9.1379e-06
9.45094e-06
9.13759e-06
9.45071e-06
9.13731e-06
9.45028e-06
9.13706e-06
9.45011e-06
9.13682e-06
9.44974e-06
9.13661e-06
9.44959e-06
9.13642e-06
9.44929e-06
9.13625e-06
9.44917e-06
9.1361e-06
9.44894e-06
9.13598e-06
9.44885e-06
9.13587e-06
9.44868e-06
9.1358e-06
9.44862e-06
9.13573e-06
9.44852e-06
9.13571e-06
9.44849e-06
9.13568e-06
9.44845e-06
9.44844e-06
9.7654e-06
1.00509e-05
9.76505e-06
1.00509e-05
9.76454e-06
1.00502e-05
9.76414e-06
1.00498e-05
9.76376e-06
1.00493e-05
9.76341e-06
1.0049e-05
9.76308e-06
1.00486e-05
9.76279e-06
1.00483e-05
9.76251e-06
1.00479e-05
9.76227e-06
1.00478e-05
9.76205e-06
1.00474e-05
9.76186e-06
1.00473e-05
9.76169e-06
1.0047e-05
9.76155e-06
1.00469e-05
9.76143e-06
1.00467e-05
9.76134e-06
1.00467e-05
9.76127e-06
1.00465e-05
9.76123e-06
1.00465e-05
9.7612e-06
1.00465e-05
1.00464e-05
1.03364e-05
1.05444e-05
1.0336e-05
1.05444e-05
1.03354e-05
1.05435e-05
1.0335e-05
1.05432e-05
1.03346e-05
1.05426e-05
1.03342e-05
1.05423e-05
1.03338e-05
1.05418e-05
1.03335e-05
1.05416e-05
1.03332e-05
1.05411e-05
1.03329e-05
1.05409e-05
1.03327e-05
1.05405e-05
1.03324e-05
1.05404e-05
1.03322e-05
1.05401e-05
1.03321e-05
1.054e-05
1.0332e-05
1.05398e-05
1.03319e-05
1.05397e-05
1.03318e-05
1.05396e-05
1.03317e-05
1.05395e-05
1.03317e-05
1.05395e-05
1.05395e-05
1.07524e-05
1.08857e-05
1.07519e-05
1.08857e-05
1.07513e-05
1.08848e-05
1.07508e-05
1.08844e-05
1.07504e-05
1.08838e-05
1.07499e-05
1.08835e-05
1.07495e-05
1.08829e-05
1.07492e-05
1.08827e-05
1.07488e-05
1.08822e-05
1.07486e-05
1.0882e-05
1.07483e-05
1.08816e-05
1.07481e-05
1.08814e-05
1.07478e-05
1.08811e-05
1.07477e-05
1.0881e-05
1.07475e-05
1.08808e-05
1.07474e-05
1.08807e-05
1.07473e-05
1.08806e-05
1.07473e-05
1.08805e-05
1.07473e-05
1.08805e-05
1.08804e-05
1.1019e-05
1.10993e-05
1.10186e-05
1.10993e-05
1.10179e-05
1.10984e-05
1.10174e-05
1.1098e-05
1.10169e-05
1.10973e-05
1.10165e-05
1.1097e-05
1.10161e-05
1.10964e-05
1.10157e-05
1.10961e-05
1.10153e-05
1.10956e-05
1.1015e-05
1.10954e-05
1.10147e-05
1.1095e-05
1.10145e-05
1.10948e-05
1.10143e-05
1.10945e-05
1.10141e-05
1.10944e-05
1.10139e-05
1.10942e-05
1.10138e-05
1.10941e-05
1.10137e-05
1.10939e-05
1.10137e-05
1.10939e-05
1.10137e-05
1.10938e-05
1.10938e-05
1.11796e-05
1.12278e-05
1.11791e-05
1.12278e-05
1.11784e-05
1.12268e-05
1.11779e-05
1.12264e-05
1.11774e-05
1.12257e-05
1.11769e-05
1.12254e-05
1.11765e-05
1.12248e-05
1.11761e-05
1.12245e-05
1.11757e-05
1.1224e-05
1.11754e-05
1.12238e-05
1.11751e-05
1.12234e-05
1.11749e-05
1.12232e-05
1.11746e-05
1.12229e-05
1.11745e-05
1.12227e-05
1.11743e-05
1.12225e-05
1.11742e-05
1.12224e-05
1.11741e-05
1.12223e-05
1.1174e-05
1.12222e-05
1.1174e-05
1.12222e-05
1.12222e-05
1.1276e-05
1.1307e-05
1.12755e-05
1.13069e-05
1.12748e-05
1.1306e-05
1.12743e-05
1.13055e-05
1.12738e-05
1.13049e-05
1.12733e-05
1.13045e-05
1.12729e-05
1.1304e-05
1.12725e-05
1.13036e-05
1.12721e-05
1.13032e-05
1.12718e-05
1.13028e-05
1.12715e-05
1.13025e-05
1.12712e-05
1.13022e-05
1.1271e-05
1.1302e-05
1.12708e-05
1.13018e-05
1.12706e-05
1.13016e-05
1.12705e-05
1.13015e-05
1.12704e-05
1.13014e-05
1.12704e-05
1.13013e-05
1.12703e-05
1.13013e-05
1.13012e-05
1.13379e-05
1.13604e-05
1.13374e-05
1.13604e-05
1.13367e-05
1.13594e-05
1.13361e-05
1.1359e-05
1.13356e-05
1.13583e-05
1.13352e-05
1.13579e-05
1.13347e-05
1.13574e-05
1.13343e-05
1.1357e-05
1.13339e-05
1.13566e-05
1.13336e-05
1.13563e-05
1.13333e-05
1.1356e-05
1.1333e-05
1.13557e-05
1.13328e-05
1.13554e-05
1.13326e-05
1.13552e-05
1.13324e-05
1.1355e-05
1.13323e-05
1.13549e-05
1.13322e-05
1.13548e-05
1.13322e-05
1.13547e-05
1.13321e-05
1.13547e-05
1.13547e-05
1.1383e-05
1.14021e-05
1.13825e-05
1.14021e-05
1.13818e-05
1.14011e-05
1.13812e-05
1.14007e-05
1.13807e-05
1.14e-05
1.13802e-05
1.13996e-05
1.13798e-05
1.1399e-05
1.13794e-05
1.13987e-05
1.1379e-05
1.13982e-05
1.13787e-05
1.13979e-05
1.13783e-05
1.13976e-05
1.13781e-05
1.13973e-05
1.13778e-05
1.13971e-05
1.13777e-05
1.13969e-05
1.13775e-05
1.13967e-05
1.13774e-05
1.13965e-05
1.13773e-05
1.13964e-05
1.13772e-05
1.13963e-05
1.13772e-05
1.13963e-05
1.13963e-05
1.14212e-05
1.14396e-05
1.14207e-05
1.14396e-05
1.142e-05
1.14386e-05
1.14194e-05
1.14382e-05
1.14189e-05
1.14375e-05
1.14184e-05
1.14371e-05
1.1418e-05
1.14366e-05
1.14176e-05
1.14362e-05
1.14172e-05
1.14358e-05
1.14169e-05
1.14355e-05
1.14166e-05
1.14351e-05
1.14163e-05
1.14348e-05
1.14161e-05
1.14346e-05
1.14159e-05
1.14344e-05
1.14157e-05
1.14342e-05
1.14156e-05
1.1434e-05
1.14155e-05
1.14339e-05
1.14154e-05
1.14339e-05
1.14154e-05
1.14338e-05
1.14338e-05
1.1458e-05
1.14774e-05
1.14576e-05
1.14774e-05
1.14568e-05
1.14763e-05
1.14563e-05
1.14759e-05
1.14557e-05
1.14752e-05
1.14553e-05
1.14749e-05
1.14548e-05
1.14743e-05
1.14544e-05
1.14739e-05
1.1454e-05
1.14734e-05
1.14537e-05
1.14732e-05
1.14534e-05
1.14728e-05
1.14531e-05
1.14726e-05
1.14529e-05
1.14722e-05
1.14527e-05
1.14721e-05
1.14525e-05
1.14718e-05
1.14524e-05
1.14717e-05
1.14523e-05
1.14716e-05
1.14522e-05
1.14715e-05
1.14522e-05
1.14715e-05
1.14715e-05
1.14967e-05
1.15178e-05
1.14961e-05
1.15178e-05
1.14954e-05
1.15167e-05
1.14949e-05
1.15163e-05
1.14943e-05
1.15156e-05
1.14938e-05
1.15153e-05
1.14934e-05
1.15147e-05
1.1493e-05
1.15143e-05
1.14926e-05
1.15138e-05
1.14922e-05
1.15136e-05
1.14919e-05
1.15131e-05
1.14917e-05
1.15129e-05
1.14914e-05
1.15126e-05
1.14912e-05
1.15125e-05
1.14911e-05
1.15122e-05
1.14909e-05
1.15121e-05
1.14908e-05
1.1512e-05
1.14908e-05
1.15119e-05
1.14907e-05
1.15119e-05
1.15119e-05
1.15389e-05
1.15626e-05
1.15384e-05
1.15625e-05
1.15377e-05
1.15615e-05
1.15371e-05
1.15611e-05
1.15366e-05
1.15604e-05
1.15361e-05
1.156e-05
1.15356e-05
1.15594e-05
1.15352e-05
1.15591e-05
1.15348e-05
1.15586e-05
1.15345e-05
1.15583e-05
1.15342e-05
1.15579e-05
1.15339e-05
1.15577e-05
1.15337e-05
1.15574e-05
1.15335e-05
1.15572e-05
1.15333e-05
1.1557e-05
1.15332e-05
1.15568e-05
1.15331e-05
1.15567e-05
1.1533e-05
1.15567e-05
1.1533e-05
1.15566e-05
1.15566e-05
1.15862e-05
1.16125e-05
1.15857e-05
1.16125e-05
1.15849e-05
1.16115e-05
1.15844e-05
1.16111e-05
1.15839e-05
1.16104e-05
1.15834e-05
1.161e-05
1.15829e-05
1.16093e-05
1.15825e-05
1.1609e-05
1.15821e-05
1.16085e-05
1.15817e-05
1.16083e-05
1.15814e-05
1.16078e-05
1.15811e-05
1.16076e-05
1.15809e-05
1.16073e-05
1.15807e-05
1.16071e-05
1.15805e-05
1.16069e-05
1.15804e-05
1.16068e-05
1.15803e-05
1.16066e-05
1.15803e-05
1.16066e-05
1.15802e-05
1.16065e-05
1.16065e-05
1.16389e-05
1.16671e-05
1.16383e-05
1.16671e-05
1.16376e-05
1.16661e-05
1.1637e-05
1.16656e-05
1.16365e-05
1.16649e-05
1.1636e-05
1.16645e-05
1.16355e-05
1.16639e-05
1.16351e-05
1.16636e-05
1.16347e-05
1.16631e-05
1.16343e-05
1.16628e-05
1.1634e-05
1.16624e-05
1.16338e-05
1.16622e-05
1.16335e-05
1.16618e-05
1.16333e-05
1.16617e-05
1.16331e-05
1.16614e-05
1.1633e-05
1.16613e-05
1.16329e-05
1.16612e-05
1.16329e-05
1.16611e-05
1.16328e-05
1.16611e-05
1.1661e-05
1.16954e-05
1.17232e-05
1.16948e-05
1.17231e-05
1.16941e-05
1.17221e-05
1.16935e-05
1.17217e-05
1.1693e-05
1.17209e-05
1.16925e-05
1.17206e-05
1.1692e-05
1.17199e-05
1.16916e-05
1.17196e-05
1.16912e-05
1.17191e-05
1.16908e-05
1.17188e-05
1.16905e-05
1.17184e-05
1.16902e-05
1.17182e-05
1.169e-05
1.17178e-05
1.16898e-05
1.17177e-05
1.16896e-05
1.17174e-05
1.16895e-05
1.17173e-05
1.16894e-05
1.17172e-05
1.16893e-05
1.17171e-05
1.16893e-05
1.17171e-05
1.1717e-05
1.17509e-05
1.17739e-05
1.17504e-05
1.17739e-05
1.17497e-05
1.17729e-05
1.17491e-05
1.17725e-05
1.17485e-05
1.17717e-05
1.1748e-05
1.17713e-05
1.17475e-05
1.17707e-05
1.17471e-05
1.17704e-05
1.17467e-05
1.17699e-05
1.17464e-05
1.17696e-05
1.1746e-05
1.17692e-05
1.17458e-05
1.1769e-05
1.17455e-05
1.17686e-05
1.17453e-05
1.17685e-05
1.17451e-05
1.17682e-05
1.1745e-05
1.17681e-05
1.17449e-05
1.1768e-05
1.17448e-05
1.17679e-05
1.17448e-05
1.17678e-05
1.17678e-05
1.17969e-05
1.18072e-05
1.17964e-05
1.18072e-05
1.17957e-05
1.18067e-05
1.17951e-05
1.18065e-05
1.17945e-05
1.18061e-05
1.1794e-05
1.18059e-05
1.17936e-05
1.18056e-05
1.17932e-05
1.18054e-05
1.17928e-05
1.18052e-05
1.17924e-05
1.1805e-05
1.17921e-05
1.18048e-05
1.17918e-05
1.18047e-05
1.17916e-05
1.18045e-05
1.17914e-05
1.18044e-05
1.17912e-05
1.18043e-05
1.17911e-05
1.18043e-05
1.1791e-05
1.18042e-05
1.17909e-05
1.18042e-05
1.17909e-05
1.18041e-05
1.18041e-05
1.18175e-05
1.18175e-05
1.18175e-05
1.18175e-05
1.18174e-05
1.18174e-05
1.18174e-05
1.18174e-05
1.18174e-05
1.18174e-05
1.18174e-05
1.18174e-05
1.18174e-05
1.18174e-05
1.18174e-05
1.18174e-05
1.18174e-05
1.18174e-05
1.18174e-05
)
;

boundaryField
{
    movingWall
    {
        type            calculated;
        value           nonuniform List<scalar> 
20
(
1.18175e-05
1.18175e-05
1.18175e-05
1.18175e-05
1.18175e-05
1.18174e-05
1.18174e-05
1.18174e-05
1.18174e-05
1.18174e-05
1.18174e-05
1.18174e-05
1.18174e-05
1.18174e-05
1.18174e-05
1.18174e-05
1.18174e-05
1.18174e-05
1.18174e-05
1.18174e-05
)
;
    }
    fixedWalls
    {
        type            calculated;
        value           nonuniform List<scalar> 
60
(
8.6976e-06
9.13932e-06
9.76541e-06
1.03364e-05
1.07524e-05
1.1019e-05
1.11796e-05
1.1276e-05
1.13379e-05
1.1383e-05
1.14212e-05
1.14581e-05
1.14967e-05
1.15389e-05
1.15862e-05
1.16389e-05
1.16954e-05
1.1751e-05
1.17969e-05
1.18175e-05
8.69753e-06
9.13568e-06
9.7612e-06
1.03317e-05
1.07473e-05
1.10136e-05
1.1174e-05
1.12703e-05
1.13321e-05
1.13772e-05
1.14154e-05
1.14522e-05
1.14907e-05
1.1533e-05
1.15802e-05
1.16328e-05
1.16893e-05
1.17448e-05
1.17909e-05
1.18174e-05
8.6976e-06
8.69759e-06
8.69758e-06
8.69757e-06
8.69756e-06
8.69756e-06
8.69755e-06
8.69755e-06
8.69755e-06
8.69754e-06
8.69754e-06
8.69754e-06
8.69754e-06
8.69753e-06
8.69753e-06
8.69753e-06
8.69753e-06
8.69753e-06
8.69753e-06
8.69753e-06
)
;
    }
    frontAndBack
    {
        type            empty;
        value           nonuniform List<scalar> 0();
    }
}


// ************************************************************************* //
