/*--------------------------------*- C++ -*----------------------------------*\
| =========                 |                                                 |
| \\      /  F ield         | OpenFOAM: The Open Source CFD Toolbox           |
|  \\    /   O peration     | Version:  2312                                  |
|   \\  /    A nd           | Website:  www.openfoam.com                      |
|    \\/     M anipulation  |                                                 |
\*---------------------------------------------------------------------------*/
FoamFile
{
    version     2.0;
    format      ascii;
    arch        "LSB;label=32;scalar=64";
    class       surfaceVectorField;
    location    "6";
    object      surfaceU;
}
// * * * * * * * * * * * * * * * * * * * * * * * * * * * * * * * * * * * * * //

dimensions      [0 1 -1 0 0 0 0];

internalField   nonuniform List<vector> 
760
(
(-1 5.77389e-14 0)
(-1 8.50367e-14 0)
(-1 -1.1732e-14 0)
(-1 -1.80964e-14 0)
(-1 2.96591e-15 0)
(-1 4.40084e-15 0)
(-1 -5.53794e-16 0)
(-1 -9.50769e-16 0)
(-1 1.60249e-16 0)
(-1 1.37505e-16 0)
(-1 3.20817e-18 0)
(-1 -4.51314e-17 0)
(-1 5.46865e-17 0)
(-1 7.84985e-17 0)
(-1 4.55571e-17 0)
(-1 6.66101e-17 0)
(-1 2.68513e-17 0)
(-1 1.74662e-17 0)
(-1 4.998e-18 0)
(-1 4.03991e-17 0)
(-1 -2.32707e-17 0)
(-1 3.92514e-17 0)
(-1 -1.04834e-17 0)
(-1 3.38955e-17 0)
(-1 5.41135e-17 0)
(-1 9.95668e-17 0)
(-1 6.63689e-17 0)
(-1 1.85776e-16 0)
(-1 -1.84219e-17 0)
(-1 1.28435e-16 0)
(-1 -6.70202e-17 0)
(-1 -1.9786e-17 0)
(-1 -1.4449e-18 0)
(-1 -4.80441e-17 0)
(-1 3.65799e-17 0)
(-1 5.75417e-17 0)
(-1 1.24102e-17 0)
(-1 -2.4106e-17 0)
(-1 -2.85357e-17 0)
(-1 9.20145e-15 0)
(-1 -6.21419e-14 0)
(-1 -1.96362e-15 0)
(-1 1.34128e-14 0)
(-1 4.84156e-16 0)
(-1 -3.16244e-15 0)
(-1 -2.5947e-16 0)
(-1 5.2286e-16 0)
(-1 -6.78763e-17 0)
(-1 -2.92203e-16 0)
(-1 3.01589e-17 0)
(-1 2.28512e-17 0)
(-1 9.0422e-17 0)
(-1 1.52529e-16 0)
(-1 3.85191e-17 0)
(-1 1.38626e-16 0)
(-1 3.1014e-17 0)
(-1 4.66798e-17 0)
(-1 7.46525e-17 0)
(-1 2.7173e-17 0)
(-1 9.64176e-17 0)
(-1 4.65098e-17 0)
(-1 1.43946e-16 0)
(-1 9.58072e-17 0)
(-1 2.3123e-16 0)
(-1 1.86981e-16 0)
(-1 2.47842e-16 0)
(-1 2.55064e-16 0)
(-1 1.27071e-16 0)
(-1 2.1758e-16 0)
(-1 -8.09926e-19 0)
(-1 8.66075e-17 0)
(-1 1.09425e-17 0)
(-1 -3.76867e-17 0)
(-1 -3.14422e-18 0)
(-1 -5.01197e-17 0)
(-1 -6.50519e-17 0)
(-1 -1.46e-16 0)
(-1 -1.09067e-16 0)
(-1 -5.79306e-14 0)
(-1 -2.23177e-14 0)
(-1 1.2214e-14 0)
(-1 5.1014e-15 0)
(-1 -3.12374e-15 0)
(-1 -1.23795e-15 0)
(-1 4.90127e-16 0)
(-1 2.27865e-16 0)
(-1 -2.01476e-16 0)
(-1 -1.12863e-16 0)
(-1 1.45221e-16 0)
(-1 -2.20787e-17 0)
(-1 2.00733e-16 0)
(-1 9.50074e-17 0)
(-1 1.46787e-16 0)
(-1 1.11715e-16 0)
(-1 4.28389e-17 0)
(-1 3.174e-17 0)
(-1 -9.69585e-19 0)
(-1 -7.99357e-17 0)
(-1 4.58994e-17 0)
(-1 -3.78387e-17 0)
(-1 1.38842e-16 0)
(-1 1.16363e-16 0)
(-1 2.10814e-16 0)
(-1 2.1632e-16 0)
(-1 2.24802e-16 0)
(-1 2.0123e-16 0)
(-1 1.77117e-16 0)
(-1 1.52147e-16 0)
(-1 4.97307e-17 0)
(-1 1.05086e-16 0)
(-1 -9.8749e-17 0)
(-1 -3.04054e-17 0)
(-1 -1.92975e-16 0)
(-1 -1.67533e-16 0)
(-1 -1.90015e-16 0)
(-1 -1.95217e-16 0)
(-1 -1.24234e-16 0)
(-1 4.07143e-14 0)
(-1 4.76822e-14 0)
(-1 -8.35054e-15 0)
(-1 -1.0573e-14 0)
(-1 2.11366e-15 0)
(-1 2.43292e-15 0)
(-1 -3.75126e-16 0)
(-1 -5.15259e-16 0)
(-1 6.65335e-17 0)
(-1 1.23658e-16 0)
(-1 -7.22924e-17 0)
(-1 -9.27653e-17 0)
(-1 5.98984e-18 0)
(-1 -3.12412e-18 0)
(-1 -3.33147e-18 0)
(-1 6.39564e-17 0)
(-1 -9.10346e-17 0)
(-1 7.78667e-17 0)
(-1 -1.16805e-16 0)
(-1 1.17181e-17 0)
(-1 3.26252e-17 0)
(-1 2.03752e-17 0)
(-1 1.93842e-16 0)
(-1 1.36145e-16 0)
(-1 2.06736e-16 0)
(-1 1.52857e-16 0)
(-1 1.28575e-16 0)
(-1 1.04513e-16 0)
(-1 8.01161e-17 0)
(-1 4.29215e-17 0)
(-1 2.49502e-17 0)
(-1 2.65383e-17 0)
(-1 -9.91894e-17 0)
(-1 -3.32591e-17 0)
(-1 -1.69775e-16 0)
(-1 -1.00045e-16 0)
(-1 -1.29436e-16 0)
(-1 -1.11969e-16 0)
(-1 -7.71751e-17 0)
(-1 -3.60508e-15 0)
(-1 -4.24815e-14 0)
(-1 2.10446e-16 0)
(-1 8.45966e-15 0)
(-1 -1.95995e-16 0)
(-1 -2.16822e-15 0)
(-1 -1.6476e-17 0)
(-1 4.08858e-16 0)
(-1 -3.56411e-17 0)
(-1 -5.04815e-17 0)
(-1 -2.3597e-17 0)
(-1 6.09815e-17 0)
(-1 5.48425e-17 0)
(-1 5.34462e-18 0)
(-1 1.45155e-16 0)
(-1 4.02281e-17 0)
(-1 1.80619e-16 0)
(-1 1.26016e-16 0)
(-1 1.48898e-16 0)
(-1 1.4731e-16 0)
(-1 1.23895e-16 0)
(-1 4.62722e-17 0)
(-1 9.51607e-17 0)
(-1 5.54655e-18 0)
(-1 5.06348e-17 0)
(-1 6.01057e-18 0)
(-1 1.88599e-17 0)
(-1 7.65455e-17 0)
(-1 -1.06562e-17 0)
(-1 6.54179e-17 0)
(-1 -3.1671e-17 0)
(-1 -6.18887e-18 0)
(-1 -3.41151e-17 0)
(-1 -5.73251e-17 0)
(-1 -4.22394e-17 0)
(-1 -3.85323e-17 0)
(-1 -5.97075e-17 0)
(-1 -6.04588e-17 0)
(-1 -7.13847e-17 0)
(-1 -3.04168e-14 0)
(-1 6.01427e-15 0)
(-1 6.081e-15 0)
(-1 -8.35672e-16 0)
(-1 -1.56336e-15 0)
(-1 2.44089e-16 0)
(-1 3.74853e-16 0)
(-1 8.69404e-17 0)
(-1 4.61411e-17 0)
(-1 1.73868e-16 0)
(-1 8.9923e-17 0)
(-1 1.70257e-16 0)
(-1 -9.26978e-18 0)
(-1 -1.5487e-17 0)
(-1 2.10893e-17 0)
(-1 -1.1463e-16 0)
(-1 9.27063e-17 0)
(-1 -3.72142e-17 0)
(-1 4.4684e-17 0)
(-1 9.84471e-17 0)
(-1 -7.20764e-17 0)
(-1 1.49631e-17 0)
(-1 -8.36036e-17 0)
(-1 -9.18452e-17 0)
(-1 3.19213e-17 0)
(-1 -6.85636e-18 0)
(-1 1.23103e-16 0)
(-1 1.26832e-16 0)
(-1 6.98852e-17 0)
(-1 1.29511e-16 0)
(-1 -3.1843e-17 0)
(-1 3.71311e-17 0)
(-1 -6.17424e-17 0)
(-1 -1.67303e-17 0)
(-1 -5.67517e-17 0)
(-1 -2.03476e-17 0)
(-1 -7.2136e-17 0)
(-1 -4.2622e-17 0)
(-1 -4.03469e-17 0)
(-1 3.55954e-14 0)
(-1 3.35214e-14 0)
(-1 -6.67258e-15 0)
(-1 -6.68991e-15 0)
(-1 1.89439e-15 0)
(-1 1.78493e-15 0)
(-1 -1.14044e-16 0)
(-1 -1.1479e-16 0)
(-1 2.97984e-16 0)
(-1 3.54224e-16 0)
(-1 6.48468e-17 0)
(-1 1.94514e-16 0)
(-1 -1.20847e-16 0)
(-1 4.75946e-17 0)
(-1 -1.72933e-16 0)
(-1 -6.98916e-17 0)
(-1 -3.14734e-17 0)
(-1 -2.1027e-17 0)
(-1 6.87261e-17 0)
(-1 1.384e-16 0)
(-1 -4.80564e-18 0)
(-1 1.52509e-16 0)
(-1 -1.50979e-17 0)
(-1 -1.23922e-17 0)
(-1 8.80543e-17 0)
(-1 -7.11795e-17 0)
(-1 1.33239e-16 0)
(-1 -3.49235e-17 0)
(-1 9.67568e-17 0)
(-1 -1.03701e-17 0)
(-1 5.22439e-17 0)
(-1 -2.10658e-18 0)
(-1 2.46646e-17 0)
(-1 3.70212e-17 0)
(-1 -6.21782e-18 0)
(-1 4.62917e-17 0)
(-1 -1.08328e-17 0)
(-1 4.29874e-19 0)
(-1 7.61475e-18 0)
(-1 -8.76389e-15 0)
(-1 -3.81929e-14 0)
(-1 1.76759e-15 0)
(-1 7.72722e-15 0)
(-1 -2.24257e-16 0)
(-1 -1.66668e-15 0)
(-1 3.53479e-16 0)
(-1 5.31279e-16 0)
(-1 2.50755e-16 0)
(-1 1.51241e-16 0)
(-1 1.77262e-16 0)
(-1 1.81259e-16 0)
(-1 9.85502e-17 0)
(-1 1.30065e-16 0)
(-1 8.20148e-17 0)
(-1 7.1934e-17 0)
(-1 1.48847e-16 0)
(-1 5.92256e-17 0)
(-1 2.22184e-16 0)
(-1 5.87895e-17 0)
(-1 1.44923e-16 0)
(-1 1.35523e-16 0)
(-1 -6.84738e-17 0)
(-1 6.85176e-17 0)
(-1 -1.94157e-16 0)
(-1 -1.35238e-16 0)
(-1 -1.78533e-16 0)
(-1 -2.15719e-16 0)
(-1 -1.09234e-16 0)
(-1 -1.64381e-16 0)
(-1 -1.73293e-17 0)
(-1 -8.67608e-17 0)
(-1 5.86484e-17 0)
(-1 1.42199e-17 0)
(-1 5.29394e-17 0)
(-1 2.84496e-17 0)
(-1 1.88775e-17 0)
(-1 1.56833e-17 0)
(-1 -7.73896e-18 0)
(-1 -2.17018e-14 0)
(-1 5.99945e-15 0)
(-1 4.29295e-15 0)
(-1 -1.19042e-15 0)
(-1 -9.11142e-16 0)
(-1 4.34765e-16 0)
(-1 3.29041e-16 0)
(-1 8.01734e-17 0)
(-1 8.17446e-17 0)
(-1 1.14313e-16 0)
(-1 1.34061e-16 0)
(-1 7.65453e-17 0)
(-1 1.03449e-16 0)
(-1 4.96941e-17 0)
(-1 4.91448e-17 0)
(-1 3.88999e-17 0)
(-1 -3.08318e-17 0)
(-1 -1.37517e-17 0)
(-1 -2.78707e-17 0)
(-1 -7.62879e-17 0)
(-1 5.91182e-17 0)
(-1 -3.3792e-17 0)
(-1 1.75293e-18 0)
(-1 2.42597e-17 0)
(-1 -1.568e-16 0)
(-1 -7.80029e-17 0)
(-1 -2.01567e-16 0)
(-1 -1.91907e-16 0)
(-1 -1.41908e-16 0)
(-1 -1.37115e-16 0)
(-1 -5.52116e-17 0)
(-1 -3.65086e-17 0)
(-1 -1.59788e-17 0)
(-1 5.30507e-18 0)
(-1 -8.80645e-18 0)
(-1 -7.00512e-17 0)
(-1 -1.09331e-17 0)
(-1 -1.69892e-17 0)
(-1 -3.64489e-17 0)
(-1 2.65108e-14 0)
(-1 3.47088e-15 0)
(-1 -5.04861e-15 0)
(-1 -1.30664e-16 0)
(-1 1.42608e-15 0)
(-1 2.1891e-16 0)
(-1 -1.34555e-16 0)
(-1 1.83568e-16 0)
(-1 1.09113e-16 0)
(-1 9.45841e-17 0)
(-1 -7.82202e-18 0)
(-1 4.83963e-17 0)
(-1 -1.48549e-17 0)
(-1 -2.37767e-19 0)
(-1 -2.39966e-17 0)
(-1 7.38474e-17 0)
(-1 -5.92079e-17 0)
(-1 6.39504e-17 0)
(-1 -8.22091e-17 0)
(-1 5.47697e-17 0)
(-1 -6.86505e-17 0)
(-1 6.92004e-18 0)
(-1 -5.54961e-17 0)
(-1 -1.37045e-17 0)
(-1 -1.1311e-16 0)
(-1 -4.44777e-17 0)
(-1 -1.27455e-16 0)
(-1 -1.29695e-16 0)
(-1 -3.17153e-17 0)
(-1 -8.19103e-17 0)
(-1 2.40081e-17 0)
(-1 3.19362e-17 0)
(-1 -4.87673e-17 0)
(-1 4.97321e-20 0)
(-1 -7.82339e-17 0)
(-1 -1.01291e-16 0)
(-1 -4.2505e-17 0)
(-1 -8.76665e-17 0)
(-1 -7.64791e-17 0)
(-1 -2.31706e-14 0)
(-1 -6.8345e-15 0)
(-1 5.13685e-15 0)
(-1 1.75798e-15 0)
(-1 -1.0236e-15 0)
(-1 -3.21258e-16 0)
(-1 4.12707e-16 0)
(-1 1.63469e-16 0)
(-1 3.38671e-17 0)
(-1 4.85381e-17 0)
(-1 5.59806e-17 0)
(-1 8.41905e-17 0)
(-1 8.84646e-17 0)
(-1 1.28902e-16 0)
(-1 1.61794e-16 0)
(-1 2.08964e-16 0)
(-1 1.77928e-16 0)
(-1 1.66848e-16 0)
(-1 1.43899e-16 0)
(-1 8.22649e-17 0)
(-1 6.1866e-17 0)
(-1 -2.09157e-17 0)
(-1 -2.68607e-18 0)
(-1 -7.72722e-17 0)
(-1 -6.10627e-17 0)
(-1 -3.70026e-17 0)
(-1 -8.415e-17 0)
(-1 4.7675e-18 0)
(-1 -1.82588e-17 0)
(-1 1.56913e-18 0)
(-1 7.97786e-18 0)
(-1 1.53826e-17 0)
(-1 -5.24735e-17 0)
(-1 -2.16378e-17 0)
(-1 -1.10723e-16 0)
(-1 -3.27254e-17 0)
(-1 -1.21641e-16 0)
(-1 -9.82213e-17 0)
(-1 -9.2565e-17 0)
(-1 1.80941e-14 0)
(-1 1.943e-14 0)
(-1 -3.70013e-15 0)
(-1 -4.38392e-15 0)
(-1 8.65813e-16 0)
(-1 1.0499e-15 0)
(-1 -2.007e-16 0)
(-1 -2.40923e-16 0)
(-1 9.88616e-17 0)
(-1 3.61312e-17 0)
(-1 1.57112e-16 0)
(-1 -1.41303e-18 0)
(-1 2.49402e-16 0)
(-1 7.68261e-17 0)
(-1 2.14017e-16 0)
(-1 3.679e-17 0)
(-1 7.11845e-17 0)
(-1 -6.58364e-17 0)
(-1 -8.25497e-17 0)
(-1 -1.68091e-16 0)
(-1 -1.60054e-16 0)
(-1 -1.96236e-16 0)
(-1 -1.11589e-16 0)
(-1 -1.81004e-16 0)
(-1 2.88275e-17 0)
(-1 -8.54762e-17 0)
(-1 9.04867e-17 0)
(-1 1.01006e-16 0)
(-1 3.52105e-17 0)
(-1 1.05534e-16 0)
(-1 -1.42331e-17 0)
(-1 -1.41211e-17 0)
(-1 -1.88971e-18 0)
(-1 -3.12205e-17 0)
(-1 -2.02236e-17 0)
(-1 4.92001e-18 0)
(-1 -6.91456e-17 0)
(-1 -5.61611e-17 0)
(-1 -8.62303e-17 0)
(-1 -3.04803e-15 0)
(-1 -3.48247e-14 0)
(-1 3.6611e-16 0)
(-1 7.28583e-15 0)
(-1 -5.68375e-17 0)
(-1 -1.59804e-15 0)
(-1 -4.09124e-18 0)
(-1 4.52085e-16 0)
(-1 -6.41435e-17 0)
(-1 -4.25505e-17 0)
(-1 -8.16989e-17 0)
(-1 -1.21255e-17 0)
(-1 -1.35785e-16 0)
(-1 -1.08223e-16 0)
(-1 -2.43064e-16 0)
(-1 -2.24078e-16 0)
(-1 -3.05111e-16 0)
(-1 -2.54045e-16 0)
(-1 -2.81777e-16 0)
(-1 -1.51341e-16 0)
(-1 -2.17186e-16 0)
(-1 -6.25502e-17 0)
(-1 -1.54891e-16 0)
(-1 -4.2689e-17 0)
(-1 -1.32977e-17 0)
(-1 -5.00837e-17 0)
(-1 1.16054e-16 0)
(-1 1.6277e-17 0)
(-1 5.62025e-17 0)
(-1 6.26247e-17 0)
(-1 -3.11085e-17 0)
(-1 -2.78693e-17 0)
(-1 -2.44108e-17 0)
(-1 -4.64704e-17 0)
(-1 -3.10174e-17 0)
(-1 -4.02779e-17 0)
(-1 -7.32458e-17 0)
(-1 -9.48171e-17 0)
(-1 -1.28496e-16 0)
(-1 -2.44909e-14 0)
(-1 2.19937e-14 0)
(-1 5.32168e-15 0)
(-1 -4.51134e-15 0)
(-1 -1.08912e-15 0)
(-1 1.15759e-15 0)
(-1 4.13626e-16 0)
(-1 -1.15936e-16 0)
(-1 9.46748e-18 0)
(-1 1.24004e-16 0)
(-1 -3.86497e-17 0)
(-1 4.13172e-17 0)
(-1 -1.96516e-16 0)
(-1 -6.57363e-17 0)
(-1 -2.3506e-16 0)
(-1 -2.05235e-16 0)
(-1 -1.00275e-16 0)
(-1 -1.88286e-16 0)
(-1 6.78859e-17 0)
(-1 -6.91892e-18 0)
(-1 1.11947e-16 0)
(-1 5.46174e-17 0)
(-1 6.21186e-17 0)
(-1 6.20336e-17 0)
(-1 -2.05091e-17 0)
(-1 7.27929e-17 0)
(-1 -3.71519e-17 0)
(-1 2.65284e-18 0)
(-1 -2.14471e-17 0)
(-1 -4.02006e-17 0)
(-1 -4.32312e-17 0)
(-1 -5.72969e-17 0)
(-1 -6.23375e-17 0)
(-1 -8.39352e-17 0)
(-1 -1.04078e-16 0)
(-1 -6.67799e-17 0)
(-1 -1.50068e-16 0)
(-1 -6.54025e-17 0)
(-1 -9.58055e-17 0)
(-1 4.19732e-14 0)
(-1 1.84704e-14 0)
(-1 -8.67543e-15 0)
(-1 -3.8561e-15 0)
(-1 2.13078e-15 0)
(-1 9.9843e-16 0)
(-1 -4.05558e-16 0)
(-1 -1.53395e-16 0)
(-1 1.55854e-16 0)
(-1 9.46278e-17 0)
(-1 1.42306e-17 0)
(-1 6.70706e-17 0)
(-1 -7.44559e-17 0)
(-1 3.22876e-18 0)
(-1 -1.58462e-16 0)
(-1 -1.44841e-16 0)
(-1 -9.49309e-17 0)
(-1 -1.85912e-16 0)
(-1 -2.01874e-17 0)
(-1 -1.80372e-16 0)
(-1 4.70437e-18 0)
(-1 -1.10007e-16 0)
(-1 7.2708e-17 0)
(-1 -6.17774e-18 0)
(-1 9.59549e-17 0)
(-1 8.09197e-17 0)
(-1 -3.95839e-19 0)
(-1 3.12715e-17 0)
(-1 -7.60503e-17 0)
(-1 -1.086e-16 0)
(-1 -9.80009e-17 0)
(-1 -9.92974e-17 0)
(-1 -8.83776e-17 0)
(-1 -6.93786e-17 0)
(-1 -2.81049e-17 0)
(-1 -4.96772e-17 0)
(-1 -1.11403e-17 0)
(-1 -9.90416e-18 0)
(-1 -1.82855e-17 0)
(-1 -2.73589e-14 0)
(-1 -4.7165e-14 0)
(-1 5.81775e-15 0)
(-1 1.03717e-14 0)
(-1 -1.28574e-15 0)
(-1 -2.18785e-15 0)
(-1 3.46791e-16 0)
(-1 6.33321e-16 0)
(-1 5.84456e-18 0)
(-1 -2.86861e-17 0)
(-1 5.60687e-17 0)
(-1 1.09639e-16 0)
(-1 -6.71565e-17 0)
(-1 7.40595e-17 0)
(-1 -1.72291e-16 0)
(-1 -4.64333e-18 0)
(-1 -2.71353e-16 0)
(-1 -9.66388e-17 0)
(-1 -2.70192e-16 0)
(-1 -2.3395e-16 0)
(-1 -1.2089e-16 0)
(-1 -1.77073e-16 0)
(-1 2.034e-18 0)
(-1 -5.26317e-17 0)
(-1 1.62363e-17 0)
(-1 -5.10958e-17 0)
(-1 -7.69324e-17 0)
(-1 -1.09834e-16 0)
(-1 -1.31847e-16 0)
(-1 -2.26122e-16 0)
(-1 -7.06751e-17 0)
(-1 -1.81293e-16 0)
(-1 -3.06782e-17 0)
(-1 -3.23916e-17 0)
(-1 -3.14765e-17 0)
(-1 2.26102e-17 0)
(-1 -1.70493e-17 0)
(-1 -1.89874e-17 0)
(-1 -5.29979e-18 0)
(-1 -9.43447e-15 0)
(-1 3.17333e-14 0)
(-1 2.36609e-15 0)
(-1 -6.54554e-15 0)
(-1 -2.68787e-16 0)
(-1 1.72087e-15 0)
(-1 2.57844e-16 0)
(-1 -2.56838e-16 0)
(-1 7.51087e-17 0)
(-1 5.98145e-17 0)
(-1 1.2763e-16 0)
(-1 -9.57617e-17 0)
(-1 1.36573e-16 0)
(-1 -3.99096e-17 0)
(-1 7.10085e-17 0)
(-1 -6.94729e-18 0)
(-1 -5.9236e-17 0)
(-1 1.05405e-17 0)
(-1 -1.40831e-16 0)
(-1 -4.36916e-17 0)
(-1 -1.08815e-16 0)
(-1 -7.3269e-17 0)
(-1 -1.05761e-16 0)
(-1 -3.1633e-17 0)
(-1 -1.77166e-16 0)
(-1 -4.26295e-17 0)
(-1 -2.59024e-16 0)
(-1 -1.15094e-16 0)
(-1 -2.75568e-16 0)
(-1 -2.53307e-16 0)
(-1 -1.4301e-16 0)
(-1 -2.52695e-16 0)
(-1 2.08967e-17 0)
(-1 -9.24969e-17 0)
(-1 3.50993e-17 0)
(-1 3.47989e-17 0)
(-1 -7.23784e-18 0)
(-1 2.98741e-17 0)
(-1 3.65587e-17 0)
(-1 3.46222e-14 0)
(-1 3.11378e-14 0)
(-1 -7.19076e-15 0)
(-1 -6.96774e-15 0)
(-1 1.73282e-15 0)
(-1 1.49261e-15 0)
(-1 -4.54867e-16 0)
(-1 -4.67196e-16 0)
(-1 -1.11056e-16 0)
(-1 -2.60139e-17 0)
(-1 -2.63301e-16 0)
(-1 -2.15179e-16 0)
(-1 -1.8343e-16 0)
(-1 -2.48064e-16 0)
(-1 -6.74153e-17 0)
(-1 -1.6555e-16 0)
(-1 2.60849e-17 0)
(-1 -1.20552e-17 0)
(-1 2.38706e-17 0)
(-1 -3.76251e-18 0)
(-1 3.9134e-18 0)
(-1 -4.01137e-17 0)
(-1 3.1499e-17 0)
(-1 -5.59749e-17 0)
(-1 1.94427e-17 0)
(-1 -1.69114e-17 0)
(-1 -1.09377e-16 0)
(-1 -4.20291e-17 0)
(-1 -2.30434e-16 0)
(-1 -8.51773e-17 0)
(-1 -2.02183e-16 0)
(-1 -8.79609e-17 0)
(-1 -7.85948e-17 0)
(-1 -6.96528e-17 0)
(-1 2.95738e-17 0)
(-1 -6.25385e-17 0)
(-1 7.36707e-17 0)
(-1 -7.62089e-18 0)
(-1 3.8724e-17 0)
(-1 -1.04521e-14 0)
(-1 -5.39843e-14 0)
(-1 1.71563e-15 0)
(-1 1.11414e-14 0)
(-1 -7.07407e-16 0)
(-1 -2.88366e-15 0)
(-1 -3.83432e-17 0)
(-1 4.15397e-16 0)
(-1 -1.30137e-16 0)
(-1 -1.554e-16 0)
(-1 -1.99942e-16 0)
(-1 -6.39766e-18 0)
(-1 -2.30185e-16 0)
(-1 -8.11108e-17 0)
(-1 -1.1019e-16 0)
(-1 -4.51155e-17 0)
(-1 -4.19026e-17 0)
(-1 1.62748e-17 0)
(-1 -6.77468e-17 0)
(-1 -4.10948e-17 0)
(-1 -1.00002e-16 0)
(-1 -8.01581e-17 0)
(-1 -1.04385e-16 0)
(-1 -1.4478e-16 0)
(-1 -7.83831e-17 0)
(-1 -1.56989e-16 0)
(-1 -1.7829e-17 0)
(-1 -1.13634e-16 0)
(-1 5.72959e-17 0)
(-1 3.34012e-17 0)
(-1 4.45692e-17 0)
(-1 8.45034e-17 0)
(-1 -5.35965e-17 0)
(-1 2.0629e-17 0)
(-1 -9.97331e-17 0)
(-1 -8.49136e-17 0)
(-1 -4.25676e-17 0)
(-1 -8.27767e-17 0)
(-1 -2.20625e-17 0)
(-1 -3.23908e-14 0)
(-1 6.54209e-15 0)
(-1 -1.76086e-15 0)
(-1 2.9834e-16 0)
(-1 -3.16601e-17 0)
(-1 1.12434e-16 0)
(-1 1.03958e-16 0)
(-1 8.13492e-17 0)
(-1 1.70825e-17 0)
(-1 -5.35061e-17 0)
(-1 -1.24936e-16 0)
(-1 -1.97384e-16 0)
(-1 -1.9224e-16 0)
(-1 -6.24038e-17 0)
(-1 6.06086e-17 0)
(-1 6.05633e-17 0)
(-1 -1.06881e-17 0)
(-1 -6.79572e-17 0)
(-1 -6.22717e-17 0)
)
;

boundaryField
{
    movingWall
    {
        type            calculated;
        value           uniform (-1 -0 -0);
    }
    fixedWalls
    {
        type            calculated;
        value           uniform (-1 -0 -0);
    }
    frontAndBack
    {
        type            empty;
        value           nonuniform List<vector> 0();
    }
}


// ************************************************************************* //
