/*--------------------------------*- C++ -*----------------------------------*\
| =========                 |                                                 |
| \\      /  F ield         | OpenFOAM: The Open Source CFD Toolbox           |
|  \\    /   O peration     | Version:  2312                                  |
|   \\  /    A nd           | Website:  www.openfoam.com                      |
|    \\/     M anipulation  |                                                 |
\*---------------------------------------------------------------------------*/
FoamFile
{
    version     2.0;
    format      ascii;
    arch        "LSB;label=32;scalar=64";
    class       surfaceScalarField;
    location    "6";
    object      surfaceDivU;
}
// * * * * * * * * * * * * * * * * * * * * * * * * * * * * * * * * * * * * * //

dimensions      [0 0 -1 0 0 0 0];

internalField   nonuniform List<scalar> 
760
(
6.95884e-12
-5.86824e-12
-7.73248e-13
9.41101e-13
1.28166e-13
-1.74316e-13
-5.42214e-14
6.56294e-14
2.27898e-14
-1.91732e-15
-2.37683e-14
1.13245e-14
-1.25942e-14
-3.11074e-14
-5.1449e-15
6.97106e-15
-7.766e-15
6.41461e-15
7.96505e-15
6.75721e-15
-6.23784e-15
8.57612e-15
-2.06295e-16
-1.41348e-14
1.49818e-14
1.51022e-14
-9.23645e-15
3.42641e-15
1.08649e-14
-1.96086e-14
3.38746e-14
6.68214e-15
9.49764e-16
4.97945e-15
-1.0209e-14
-1.28103e-14
-2.4106e-15
-1.70106e-14
1.35525e-14
-1.1886e-11
-9.70361e-12
1.54003e-12
1.01116e-12
-2.36853e-13
-2.09646e-13
1.17933e-13
6.152e-14
-1.33827e-14
-1.34016e-14
3.98547e-15
1.36298e-14
-1.15421e-14
-1.5904e-14
1.85306e-14
-2.07097e-15
2.09378e-14
7.84198e-15
7.36829e-15
-5.27627e-15
6.7918e-16
8.67114e-16
1.17372e-15
-5.88799e-15
3.54683e-15
1.3225e-14
-6.94571e-15
-8.58077e-15
-2.37913e-14
-3.68485e-15
-2.2213e-14
-2.14882e-14
-8.78064e-15
-6.80921e-15
-1.96119e-14
5.33978e-15
-1.04744e-15
-2.05691e-14
1.35525e-14
3.19354e-12
1.01915e-11
-7.38515e-13
-1.279e-12
8.87272e-14
2.4147e-13
-6.9815e-14
-1.3716e-13
1.36108e-14
2.81845e-14
-6.25967e-15
-1.14844e-14
-6.43281e-15
-1.79167e-14
-1.27595e-14
4.01462e-15
-1.83721e-14
-2.59186e-15
-1.17774e-14
6.73076e-15
-5.70006e-15
1.18062e-14
6.16331e-15
-1.85419e-15
1.09742e-15
-1.72924e-14
-5.31992e-15
-1.00833e-14
-1.38174e-15
5.95431e-15
-6.08444e-15
-2.74951e-14
7.31122e-15
-6.36645e-15
4.38259e-15
3.47223e-16
-5.96916e-15
-3.6135e-15
-1.35525e-14
5.71896e-12
-2.29038e-12
-2.99013e-13
6.01817e-13
1.55834e-14
-1.09055e-13
-3.91602e-14
5.71225e-14
3.08923e-15
7.31761e-15
-2.31415e-14
-3.17838e-15
-7.46929e-15
2.2205e-16
1.41823e-14
-3.13407e-15
2.2511e-14
-6.71681e-15
3.03144e-14
-1.12023e-14
1.5652e-14
2.02173e-14
-2.53099e-14
6.16656e-16
-2.84731e-14
-1.12183e-14
1.19097e-15
4.55336e-15
-2.01591e-14
1.08339e-14
-2.77771e-14
-2.50701e-14
-1.33304e-14
-9.05842e-15
-7.64887e-15
-1.38578e-14
-1.11969e-14
9.86231e-15
-1.35525e-14
-7.40752e-12
-3.42879e-12
7.91775e-13
3.05623e-14
-6.75156e-14
2.44277e-14
1.036e-13
2.24748e-14
1.05e-15
-1.47664e-14
2.01851e-14
9.57131e-15
4.55727e-15
1.25383e-14
-2.40332e-14
-2.09927e-14
-4.04301e-14
8.88015e-15
-2.12994e-14
-1.60819e-14
5.18188e-15
1.96761e-14
1.47082e-14
-8.62986e-15
2.18081e-14
1.34679e-14
1.41963e-14
6.78521e-15
5.9229e-15
5.94035e-15
-6.3514e-15
-1.04583e-14
-9.58575e-15
-3.45106e-14
3.65342e-15
2.12171e-14
7.50665e-15
3.24445e-15
1.35525e-14
4.0093e-12
7.69784e-12
-7.36785e-13
-1.41663e-12
1.14418e-13
2.97769e-13
-9.58919e-14
-1.24758e-13
-6.2451e-15
-1.40088e-15
1.92446e-15
2.29246e-14
-1.30117e-14
-1.03418e-14
1.19206e-14
-1.84521e-14
3.32283e-14
2.12809e-14
2.48935e-14
1.01322e-14
5.86432e-15
-1.03578e-14
-9.87015e-15
-1.04237e-14
-1.55497e-15
5.74895e-15
-1.47077e-15
9.19084e-15
-1.04408e-14
1.19141e-14
-3.86175e-14
3.50246e-15
-3.70778e-15
-3.86285e-14
2.08081e-14
1.61469e-14
9.29033e-15
-4.21921e-15
3.78653e-29
2.27191e-12
-4.55365e-12
-3.82079e-13
9.98197e-13
5.85933e-14
-2.18568e-13
-3.02667e-14
6.87539e-14
2.77688e-14
-3.07686e-14
1.06584e-14
3.75773e-14
-1.57822e-14
-9.33908e-15
-9.09185e-15
1.37568e-14
-1.81519e-15
-2.32852e-14
-2.51191e-14
1.9719e-14
-2.66459e-14
-2.54068e-14
5.19536e-15
5.61254e-15
1.64948e-14
-2.06418e-14
2.25757e-14
1.55933e-14
2.58574e-14
-3.92257e-15
3.49146e-15
1.82183e-14
-1.87738e-14
-8.42842e-15
-8.88037e-15
2.10267e-14
-1.35095e-14
1.61132e-15
-1.35525e-14
-5.82736e-12
-2.72406e-12
1.16171e-12
3.96182e-13
-2.08408e-13
-1.23191e-13
6.8252e-14
3.40402e-14
-2.09601e-14
-5.49671e-16
1.75798e-14
1.22279e-14
2.01999e-14
1.79759e-14
-4.36566e-16
-1.60217e-14
-1.75102e-15
-2.25577e-14
1.94313e-14
3.89077e-14
6.85157e-15
-3.37938e-15
-2.02246e-14
-4.27479e-15
-2.15432e-14
-3.48767e-14
-1.09049e-14
1.34475e-14
-1.15616e-14
-3.0445e-15
6.29844e-15
1.47781e-14
3.1372e-14
-1.16e-14
3.15183e-14
2.29449e-14
1.56833e-15
-1.30589e-16
0
3.49948e-12
4.48589e-12
-8.88717e-13
-1.09434e-12
1.19257e-13
2.14445e-13
-3.47615e-14
-1.09151e-13
3.26383e-14
3.44422e-14
1.26239e-14
-2.81634e-14
-1.82457e-14
3.20507e-14
-3.81428e-14
-2.93829e-14
1.81011e-14
5.01987e-15
1.60971e-14
3.85058e-14
-1.45057e-14
-2.68719e-15
-1.89268e-14
-1.2497e-14
1.14078e-16
1.30447e-15
2.13079e-14
8.49743e-15
2.32952e-14
1.87551e-14
-3.12036e-15
-4.57244e-16
-2.00271e-14
-1.3017e-14
-8.70404e-15
-1.71342e-14
-1.69892e-15
-1.04656e-14
-1.35525e-14
-1.07934e-13
-1.54499e-12
8.82466e-15
6.9128e-13
-1.39623e-14
-1.32208e-13
-3.99474e-14
4.82563e-14
-2.63595e-14
-1.27928e-14
-8.73667e-15
-2.93841e-16
2.09135e-14
1.28664e-14
1.37798e-14
1.17611e-15
2.54245e-14
9.52727e-15
1.97215e-14
1.37035e-14
-6.78443e-16
-1.49521e-14
7.73431e-15
-9.09767e-15
9.68783e-15
5.4045e-15
5.94457e-15
-1.24927e-14
-4.99741e-15
1.90709e-14
-1.03539e-14
-8.82065e-15
-1.01241e-14
-2.15881e-15
-1.88957e-14
-2.69541e-14
-2.23192e-14
2.20688e-14
-1.35525e-14
-7.45774e-13
1.47723e-12
5.50248e-13
-3.30356e-13
-6.9989e-14
-8.45116e-15
7.54108e-14
5.80717e-15
1.32729e-14
3.5572e-14
2.13093e-14
3.53828e-14
-6.87096e-15
-3.36373e-14
-3.07641e-15
-2.96347e-14
-2.19381e-15
-1.70039e-14
-2.09701e-14
1.85225e-14
-2.33713e-14
-2.17152e-14
-1.14275e-14
1.483e-14
-1.6776e-14
1.48572e-14
6.33664e-16
-2.97517e-15
1.52477e-14
2.42629e-14
-6.25524e-16
1.26145e-16
-1.89889e-14
8.2667e-15
1.40104e-14
-2.98856e-14
3.08354e-14
2.52193e-14
-1.35525e-14
1.89264e-12
-3.15774e-12
-8.89056e-13
7.50977e-13
6.7345e-14
-1.9034e-13
-3.40317e-14
6.17739e-14
5.76819e-14
-1.41945e-14
-1.95637e-14
3.93037e-14
-5.6401e-14
-3.02448e-14
-4.35622e-14
-5.17628e-15
3.71236e-15
-1.84356e-14
1.77775e-14
2.2267e-14
1.64861e-14
-2.58786e-14
4.11146e-14
4.73578e-15
2.8658e-14
2.71016e-14
2.0654e-14
-1.53768e-14
9.1413e-15
3.26336e-15
9.01837e-15
-4.19905e-15
-2.63005e-15
5.78344e-15
-1.86766e-14
-3.53578e-15
-1.91686e-14
-1.50978e-14
1.35525e-14
-4.2994e-12
1.6263e-13
1.44969e-12
1.28372e-13
-1.95911e-13
-3.04925e-14
8.16111e-14
3.36149e-14
-3.25727e-14
-4.60647e-14
2.86227e-14
1.64717e-14
2.098e-14
-3.84342e-15
1.99503e-14
1.12788e-14
1.18989e-16
-3.57559e-15
-2.13891e-14
-2.27343e-15
-3.7629e-14
-1.43458e-14
-9.27727e-15
-1.16181e-14
-1.69332e-14
1.58235e-14
-3.27674e-14
-2.52121e-14
-1.0077e-14
2.24241e-15
-7.43397e-15
-2.20692e-14
4.8777e-15
5.11971e-16
4.30273e-17
2.84675e-15
1.76233e-14
-2.46944e-15
1.35525e-14
4.59041e-12
5.27193e-12
-1.35181e-12
-9.58717e-13
1.99033e-13
1.74945e-13
-9.40609e-14
-5.40381e-14
2.97961e-15
8.31067e-15
-1.59944e-14
1.08388e-14
-1.35446e-14
-1.98033e-14
-1.22471e-14
5.64993e-15
-5.96801e-15
-3.74198e-14
4.76985e-15
8.37592e-15
1.16651e-14
8.01352e-15
1.34827e-14
3.26906e-14
7.54458e-15
1.53713e-14
9.79775e-15
-1.01601e-14
-9.74975e-15
-2.84326e-14
-1.41232e-14
-2.1069e-15
-1.51898e-15
2.53262e-14
3.34284e-16
1.90682e-15
-6.54025e-15
-7.53067e-15
-1.35525e-14
-2.7719e-13
-6.76271e-12
5.68042e-13
1.13945e-12
-7.81268e-14
-2.27362e-13
4.83334e-14
8.86502e-14
1.61698e-14
-2.05109e-14
7.02993e-15
1.7671e-14
-6.08713e-16
-5.8237e-15
-1.95228e-14
2.57091e-14
-2.30759e-14
-5.53601e-14
1.16196e-14
2.63304e-14
2.90391e-14
1.19495e-14
3.45793e-14
7.67159e-15
-2.33341e-15
-1.05701e-14
-4.83904e-14
-7.85627e-15
-2.07897e-14
-1.99197e-14
3.73425e-14
2.61511e-14
2.8752e-14
1.6928e-14
-5.95814e-15
-1.62592e-14
-1.45429e-14
1.06634e-14
0
-5.34607e-12
1.30104e-12
3.44046e-13
-2.67905e-13
-6.05853e-14
6.17223e-14
1.98059e-14
-1.65618e-14
-1.90097e-14
-3.75447e-14
4.81736e-15
1.38777e-15
2.04941e-14
1.69675e-14
-1.01282e-14
1.23935e-14
-5.95386e-15
-2.21624e-14
2.66603e-14
-6.59142e-16
-9.41796e-15
2.07083e-15
-3.74778e-14
-2.1979e-14
-1.6093e-14
-9.37253e-15
2.06145e-14
4.61222e-15
2.70211e-14
1.98197e-14
5.7366e-15
2.43638e-14
-2.80832e-14
1.46162e-14
3.62278e-16
-3.49167e-14
2.52063e-14
2.81937e-14
-1.35525e-14
6.37921e-12
6.81692e-12
-5.50229e-13
-6.33044e-13
1.05746e-13
1.31613e-13
-7.39124e-14
-1.81933e-14
-1.71472e-14
-1.01725e-14
1.35379e-14
-3.98904e-15
8.86684e-15
1.18602e-14
3.59323e-16
9.85533e-15
-1.68676e-14
-1.51469e-16
-2.52486e-14
-1.82979e-14
-1.04902e-14
1.57668e-14
6.12628e-15
4.79174e-15
1.13327e-14
-5.95408e-15
3.81745e-15
1.13927e-14
1.71624e-14
6.80914e-15
3.32434e-14
6.59195e-15
7.78273e-15
-2.66244e-15
-7.08522e-15
1.07786e-14
-1.05651e-14
1.57779e-14
-2.71051e-14
-1.9533e-13
-7.98244e-12
4.87983e-14
8.64597e-13
7.67359e-15
-1.93315e-13
4.55466e-14
8.96877e-14
2.98573e-15
-4.58885e-15
-5.66677e-15
1.84999e-14
1.28487e-14
7.74008e-15
9.34454e-15
-2.10665e-14
-1.58177e-15
-1.31306e-14
2.27174e-14
-4.48573e-15
3.10487e-14
1.50779e-14
-7.28862e-15
-6.52295e-15
-5.89404e-15
9.71498e-15
1.43844e-14
1.15387e-14
-3.7613e-15
2.19274e-14
-2.93139e-14
-3.45747e-16
3.33404e-16
-3.20074e-14
3.36416e-14
1.23598e-14
-7.62089e-16
3.16178e-14
-1.35525e-14
-6.92251e-12
-2.46656e-12
6.22484e-13
2.99356e-14
-1.11301e-13
9.78947e-15
3.95522e-14
8.82097e-16
1.09253e-14
-1.554e-14
3.19067e-14
2.64653e-14
-2.61752e-14
1.8994e-14
-4.35417e-14
-3.16166e-14
-1.60345e-14
-1.1925e-14
-1.21253e-14
-4.10948e-15
-2.24938e-14
5.53672e-15
1.04807e-14
-1.4478e-14
2.71478e-14
1.14061e-14
1.90818e-14
-1.13634e-14
2.5343e-14
4.39977e-14
-3.03928e-15
-5.10219e-15
-1.9981e-14
-1.14896e-14
1.0336e-14
-8.49136e-15
1.88274e-14
3.23799e-14
-1.35525e-14
4.48589e-12
-5.82759e-13
1.21973e-13
-5.42101e-14
0
1.35525e-14
1.35525e-14
0
0
1.35525e-14
1.35525e-14
-1.35525e-14
-2.71051e-14
1.35525e-14
1.35525e-14
-1.35525e-14
0
1.35525e-14
-1.67239e-28
)
;

boundaryField
{
    movingWall
    {
        type            calculated;
        value           nonuniform List<scalar> 
20
(
1.04897e-11
-1.51788e-12
3.52366e-13
-1.0842e-13
0
0
2.71051e-14
0
0
0
2.71051e-14
0
-2.71051e-14
-2.71051e-14
5.42101e-14
-2.71051e-14
0
0
2.71051e-14
-2.71051e-14
)
;
    }
    fixedWalls
    {
        type            calculated;
        value           nonuniform List<scalar> 
60
(
1.58836e-11
-2.76201e-11
8.21283e-12
1.21702e-11
-1.67509e-11
9.89334e-12
5.50233e-12
-1.46096e-11
9.16151e-12
-1.89735e-13
-2.90024e-12
5.85469e-12
-1.21702e-11
1.24954e-11
-1.95156e-12
-1.15739e-11
1.41759e-11
-5.42101e-13
-1.54228e-11
1.04897e-11
0
2.71051e-14
0
-2.71051e-14
0
2.71051e-14
-2.71051e-14
0
0
-2.71051e-14
0
-2.71051e-14
5.42101e-14
-2.71051e-14
0
0
-2.71051e-14
-2.71051e-14
0
-2.71051e-14
1.58836e-11
-1.96588e-12
4.19382e-13
-1.63049e-13
5.4606e-14
-9.02628e-15
-3.85104e-14
1.3322e-14
-2.36118e-14
8.07981e-15
7.85028e-15
-2.0326e-14
1.99134e-14
1.00502e-14
-2.85231e-14
5.02529e-14
1.74962e-14
-1.55967e-14
-4.82121e-15
0
)
;
    }
    frontAndBack
    {
        type            empty;
        value           nonuniform List<scalar> 0();
    }
}


// ************************************************************************* //
