/*--------------------------------*- C++ -*----------------------------------*\
| =========                 |                                                 |
| \\      /  F ield         | OpenFOAM: The Open Source CFD Toolbox           |
|  \\    /   O peration     | Version:  2312                                  |
|   \\  /    A nd           | Website:  www.openfoam.com                      |
|    \\/     M anipulation  |                                                 |
\*---------------------------------------------------------------------------*/
FoamFile
{
    version     2.0;
    format      ascii;
    arch        "LSB;label=32;scalar=64";
    class       volScalarField;
    location    "6";
    object      turbulenceProperties:epsilon;
}
// * * * * * * * * * * * * * * * * * * * * * * * * * * * * * * * * * * * * * //

dimensions      [0 2 -3 0 0 0 0];

internalField   nonuniform List<scalar> 
400
(
4.12592e-06
4.12591e-06
4.1259e-06
4.1259e-06
4.12589e-06
4.12589e-06
4.12589e-06
4.12588e-06
4.12588e-06
4.12587e-06
4.12588e-06
4.12587e-06
4.12587e-06
4.12587e-06
4.12587e-06
4.12587e-06
4.12587e-06
4.12587e-06
4.12587e-06
4.12587e-06
4.44505e-06
4.36526e-06
4.37183e-06
4.37457e-06
4.38005e-06
4.38288e-06
4.38836e-06
4.39129e-06
4.39679e-06
4.3998e-06
4.40535e-06
4.40843e-06
4.41402e-06
4.41717e-06
4.4228e-06
4.42603e-06
4.43169e-06
4.43501e-06
4.43786e-06
4.44238e-06
4.9106e-06
4.8181e-06
4.82583e-06
4.82905e-06
4.83546e-06
4.83876e-06
4.84518e-06
4.84857e-06
4.85499e-06
4.85846e-06
4.86492e-06
4.86843e-06
4.87493e-06
4.87851e-06
4.88504e-06
4.88868e-06
4.89524e-06
4.89895e-06
4.90225e-06
4.90741e-06
5.34832e-06
5.2445e-06
5.25315e-06
5.25675e-06
5.26394e-06
5.26764e-06
5.27483e-06
5.27863e-06
5.28583e-06
5.28972e-06
5.29696e-06
5.3009e-06
5.30819e-06
5.3122e-06
5.31953e-06
5.32361e-06
5.33097e-06
5.33513e-06
5.33883e-06
5.34462e-06
5.67479e-06
5.5622e-06
5.57157e-06
5.57547e-06
5.58326e-06
5.58727e-06
5.59505e-06
5.59917e-06
5.60697e-06
5.61118e-06
5.61903e-06
5.6233e-06
5.6312e-06
5.63555e-06
5.64349e-06
5.64792e-06
5.6559e-06
5.66042e-06
5.66443e-06
5.67071e-06
5.88739e-06
5.76897e-06
5.77882e-06
5.78292e-06
5.7911e-06
5.79531e-06
5.80349e-06
5.80783e-06
5.81602e-06
5.82045e-06
5.82869e-06
5.8332e-06
5.8415e-06
5.84607e-06
5.85442e-06
5.85908e-06
5.86747e-06
5.87223e-06
5.87644e-06
5.88304e-06
6.01661e-06
5.89461e-06
5.90474e-06
5.90896e-06
5.91739e-06
5.92173e-06
5.93015e-06
5.93461e-06
5.94305e-06
5.94761e-06
5.9561e-06
5.96074e-06
5.96929e-06
5.974e-06
5.9826e-06
5.98741e-06
5.99604e-06
6.00095e-06
6.00528e-06
6.01209e-06
6.09468e-06
5.97051e-06
5.98082e-06
5.98511e-06
5.99369e-06
5.9981e-06
6.00667e-06
6.01121e-06
6.0198e-06
6.02444e-06
6.03308e-06
6.0378e-06
6.0465e-06
6.05129e-06
6.06004e-06
6.06493e-06
6.07372e-06
6.07871e-06
6.08313e-06
6.09005e-06
6.14493e-06
6.01937e-06
6.02979e-06
6.03414e-06
6.0428e-06
6.04727e-06
6.05593e-06
6.06052e-06
6.06921e-06
6.0739e-06
6.08263e-06
6.0874e-06
6.0962e-06
6.10105e-06
6.1099e-06
6.11484e-06
6.12373e-06
6.12878e-06
6.13324e-06
6.14025e-06
6.18166e-06
6.05508e-06
6.06558e-06
6.06996e-06
6.0787e-06
6.08319e-06
6.09192e-06
6.09656e-06
6.10531e-06
6.11004e-06
6.11884e-06
6.12365e-06
6.13252e-06
6.13741e-06
6.14633e-06
6.15131e-06
6.16027e-06
6.16536e-06
6.16986e-06
6.17692e-06
6.21289e-06
6.08543e-06
6.09601e-06
6.10041e-06
6.10921e-06
6.11374e-06
6.12253e-06
6.12719e-06
6.136e-06
6.14076e-06
6.14962e-06
6.15447e-06
6.16339e-06
6.16832e-06
6.17729e-06
6.18231e-06
6.19133e-06
6.19646e-06
6.20099e-06
6.2081e-06
6.243e-06
6.11473e-06
6.12538e-06
6.12981e-06
6.13866e-06
6.14322e-06
6.15206e-06
6.15675e-06
6.16562e-06
6.17042e-06
6.17933e-06
6.18421e-06
6.19319e-06
6.19815e-06
6.20718e-06
6.21224e-06
6.22131e-06
6.22647e-06
6.23103e-06
6.23819e-06
6.27459e-06
6.14546e-06
6.15617e-06
6.16063e-06
6.16954e-06
6.17413e-06
6.18304e-06
6.18776e-06
6.19669e-06
6.20151e-06
6.21049e-06
6.2154e-06
6.22444e-06
6.22943e-06
6.23853e-06
6.24361e-06
6.25275e-06
6.25795e-06
6.26253e-06
6.26974e-06
6.30929e-06
6.17919e-06
6.18998e-06
6.19448e-06
6.20345e-06
6.20807e-06
6.21704e-06
6.2218e-06
6.23079e-06
6.23565e-06
6.2447e-06
6.24964e-06
6.25875e-06
6.26378e-06
6.27294e-06
6.27807e-06
6.28727e-06
6.2925e-06
6.29713e-06
6.30438e-06
6.34816e-06
6.21699e-06
6.22787e-06
6.2324e-06
6.24145e-06
6.24611e-06
6.25515e-06
6.25995e-06
6.26901e-06
6.27391e-06
6.28303e-06
6.28802e-06
6.2972e-06
6.30227e-06
6.3115e-06
6.31667e-06
6.32594e-06
6.33123e-06
6.33589e-06
6.3432e-06
6.39154e-06
6.25919e-06
6.27017e-06
6.27474e-06
6.28387e-06
6.28857e-06
6.29769e-06
6.30253e-06
6.31167e-06
6.31662e-06
6.32582e-06
6.33085e-06
6.34011e-06
6.34523e-06
6.35455e-06
6.35977e-06
6.36912e-06
6.37445e-06
6.37916e-06
6.38654e-06
6.43825e-06
6.30459e-06
6.31567e-06
6.32029e-06
6.3295e-06
6.33425e-06
6.34346e-06
6.34834e-06
6.35758e-06
6.36257e-06
6.37186e-06
6.37694e-06
6.38629e-06
6.39146e-06
6.40086e-06
6.40613e-06
6.41558e-06
6.42096e-06
6.42571e-06
6.43317e-06
6.48426e-06
6.34939e-06
6.36056e-06
6.36521e-06
6.37451e-06
6.3793e-06
6.38859e-06
6.39352e-06
6.40283e-06
6.40788e-06
6.41724e-06
6.42238e-06
6.43181e-06
6.43703e-06
6.44652e-06
6.45184e-06
6.46137e-06
6.46682e-06
6.4716e-06
6.47913e-06
6.52238e-06
6.3892e-06
6.40002e-06
6.40455e-06
6.4136e-06
6.41829e-06
6.42736e-06
6.43223e-06
6.44134e-06
6.44636e-06
6.45556e-06
6.46069e-06
6.46999e-06
6.47524e-06
6.48463e-06
6.49002e-06
6.49948e-06
6.50502e-06
6.50979e-06
6.51736e-06
6.53951e-06
6.53949e-06
6.53948e-06
6.53948e-06
6.53946e-06
6.53946e-06
6.53945e-06
6.53945e-06
6.53943e-06
6.53944e-06
6.53943e-06
6.53944e-06
6.53942e-06
6.53943e-06
6.53942e-06
6.53943e-06
6.53942e-06
6.53942e-06
6.53942e-06
6.53942e-06
)
;

boundaryField
{
    movingWall
    {
        type            epsilonWallFunction;
        blending        stepwise;
        value           nonuniform List<scalar> 
20
(
6.53951e-06
6.53949e-06
6.53948e-06
6.53948e-06
6.53946e-06
6.53946e-06
6.53945e-06
6.53945e-06
6.53943e-06
6.53944e-06
6.53943e-06
6.53944e-06
6.53942e-06
6.53943e-06
6.53942e-06
6.53943e-06
6.53942e-06
6.53942e-06
6.53942e-06
6.53942e-06
)
;
    }
    fixedWalls
    {
        type            epsilonWallFunction;
        blending        stepwise;
        value           nonuniform List<scalar> 
60
(
4.12592e-06
4.44505e-06
4.9106e-06
5.34832e-06
5.67479e-06
5.88739e-06
6.01661e-06
6.09468e-06
6.14493e-06
6.18166e-06
6.21289e-06
6.243e-06
6.27459e-06
6.30929e-06
6.34816e-06
6.39154e-06
6.43825e-06
6.48426e-06
6.52238e-06
6.53951e-06
4.12587e-06
4.44238e-06
4.90741e-06
5.34462e-06
5.67071e-06
5.88304e-06
6.01209e-06
6.09005e-06
6.14025e-06
6.17692e-06
6.2081e-06
6.23819e-06
6.26974e-06
6.30438e-06
6.3432e-06
6.38654e-06
6.43317e-06
6.47913e-06
6.51736e-06
6.53942e-06
4.12592e-06
4.12591e-06
4.1259e-06
4.1259e-06
4.12589e-06
4.12589e-06
4.12589e-06
4.12588e-06
4.12588e-06
4.12587e-06
4.12588e-06
4.12587e-06
4.12587e-06
4.12587e-06
4.12587e-06
4.12587e-06
4.12587e-06
4.12587e-06
4.12587e-06
4.12587e-06
)
;
    }
    frontAndBack
    {
        type            empty;
    }
}


// ************************************************************************* //
