/*--------------------------------*- C++ -*----------------------------------*\
| =========                 |                                                 |
| \\      /  F ield         | OpenFOAM: The Open Source CFD Toolbox           |
|  \\    /   O peration     | Version:  2312                                  |
|   \\  /    A nd           | Website:  www.openfoam.com                      |
|    \\/     M anipulation  |                                                 |
\*---------------------------------------------------------------------------*/
FoamFile
{
    version     2.0;
    format      ascii;
    arch        "LSB;label=32;scalar=64";
    class       volScalarField;
    location    "6";
    object      turbulenceProperties:omega;
}
// * * * * * * * * * * * * * * * * * * * * * * * * * * * * * * * * * * * * * //

dimensions      [0 0 -1 0 0 0 0];

internalField   nonuniform List<scalar> 
400
(
5.27083
5.27082
5.27082
5.27082
5.27082
5.27081
5.27081
5.27081
5.27081
5.27081
5.27081
5.2708
5.27081
5.2708
5.27081
5.2708
5.2708
5.2708
5.2708
5.2708
5.40406
5.30706
5.3154
5.31888
5.32581
5.32936
5.33628
5.33991
5.34683
5.35055
5.35748
5.36126
5.36821
5.37207
5.37903
5.38297
5.38993
5.39397
5.39746
5.40297
5.5873
5.48206
5.49124
5.49508
5.50266
5.50657
5.5141
5.5181
5.52561
5.52966
5.53717
5.54127
5.54879
5.55294
5.56046
5.56465
5.57217
5.57642
5.58019
5.58607
5.74915
5.63755
5.6473
5.65135
5.65941
5.66352
5.67154
5.67574
5.68373
5.688
5.69599
5.70031
5.7083
5.71267
5.72067
5.72509
5.73308
5.73758
5.74158
5.74781
5.86411
5.74777
5.75793
5.76215
5.77055
5.77483
5.78319
5.78756
5.79591
5.80033
5.80868
5.81315
5.82151
5.82605
5.8344
5.839
5.84733
5.85202
5.85619
5.86269
5.93659
5.81719
5.82758
5.83194
5.84052
5.84496
5.85349
5.85802
5.86653
5.87113
5.87964
5.88429
5.89281
5.89752
5.90604
5.91081
5.91932
5.92416
5.92843
5.93511
5.97976
5.85851
5.86911
5.87348
5.88224
5.88669
5.8954
5.89996
5.90864
5.91327
5.92195
5.92663
5.93532
5.94006
5.94875
5.95356
5.96224
5.96713
5.97148
5.97825
6.00555
5.88321
5.89385
5.89832
5.9071
5.91165
5.92038
5.92504
5.93375
5.93847
5.94719
5.95196
5.96068
5.96551
5.97423
5.97912
5.98784
5.9928
5.99717
6.00401
6.02202
5.89899
5.9097
5.91418
5.92302
5.92761
5.93636
5.94109
5.94979
5.9546
5.96331
5.96815
5.9769
5.98176
5.99053
5.99545
6.00422
6.00921
6.01361
6.02048
6.03402
5.91048
5.92124
5.92574
5.93461
5.9392
5.94802
5.95272
5.96151
5.96628
5.97507
5.9799
5.9887
5.99358
6.00239
6.00733
6.01613
6.02114
6.02556
6.03247
6.0442
5.92022
5.931
5.93552
5.94444
5.94903
5.95789
5.9626
5.97142
5.97621
5.98503
5.98988
5.9987
6.0036
6.01244
6.0174
6.02623
6.03126
6.03569
6.04262
6.05396
5.92959
5.94042
5.94495
5.95388
5.95851
5.96737
5.97211
5.98095
5.98576
5.9946
5.99947
6.00832
6.01324
6.02211
6.02708
6.03594
6.04099
6.04544
6.05239
6.06417
5.93936
5.95029
5.95477
5.96378
5.96838
5.97732
5.98203
5.99094
5.99572
6.00466
6.00947
6.01843
6.02329
6.03224
6.03719
6.04612
6.05116
6.05563
6.0626
6.07537
5.95011
5.96101
5.96557
5.97457
5.97921
5.98817
5.99292
6.00185
6.00668
6.01559
6.02049
6.0294
6.03435
6.04328
6.04829
6.05721
6.0623
6.06677
6.07378
6.08785
5.96208
5.97302
5.97761
5.98662
5.99132
6.00028
6.00508
6.014
6.01888
6.02782
6.03274
6.0417
6.04667
6.05563
6.06066
6.06962
6.07472
6.07922
6.08625
6.10171
5.97536
5.98642
5.99096
6.00008
6.00472
6.0138
6.01854
6.02759
6.03241
6.04145
6.04634
6.05539
6.06033
6.06938
6.07439
6.08343
6.08853
6.09306
6.10012
6.1166
5.98965
6.00069
6.00532
6.01443
6.01915
6.02821
6.03303
6.04206
6.04697
6.05599
6.06096
6.07
6.07502
6.08406
6.08914
6.09818
6.10334
6.10788
6.11497
6.13119
6.00367
6.01477
6.01938
6.02858
6.03328
6.04242
6.04721
6.05633
6.06121
6.07033
6.07526
6.0844
6.08938
6.09852
6.10359
6.1127
6.11786
6.12243
6.12955
6.14322
6.01779
6.02849
6.03298
6.04187
6.04649
6.05534
6.0601
6.06894
6.07382
6.08269
6.08766
6.09657
6.10162
6.11058
6.11573
6.12471
6.12997
6.13449
6.14163
6.14861
6.1486
6.1486
6.1486
6.14859
6.1486
6.14859
6.14859
6.14858
6.14859
6.14858
6.14859
6.14858
6.14859
6.14858
6.14858
6.14858
6.14858
6.14858
6.14858
)
;

boundaryField
{
    movingWall
    {
        type            calculated;
        value           nonuniform List<scalar> 
20
(
6.14861
6.1486
6.1486
6.1486
6.14859
6.1486
6.14859
6.14859
6.14858
6.14859
6.14858
6.14859
6.14858
6.14859
6.14858
6.14858
6.14858
6.14858
6.14858
6.14858
)
;
    }
    fixedWalls
    {
        type            calculated;
        value           nonuniform List<scalar> 
60
(
5.27083
5.40406
5.5873
5.74915
5.86411
5.93659
5.97976
6.00555
6.02202
6.03402
6.0442
6.05396
6.06417
6.07537
6.08785
6.10171
6.1166
6.13119
6.14322
6.14861
5.2708
5.40297
5.58607
5.74781
5.86269
5.93511
5.97825
6.00401
6.02048
6.03247
6.04262
6.05239
6.0626
6.07378
6.08625
6.10012
6.11497
6.12955
6.14163
6.14858
5.27083
5.27082
5.27082
5.27082
5.27082
5.27081
5.27081
5.27081
5.27081
5.27081
5.27081
5.2708
5.27081
5.2708
5.27081
5.2708
5.2708
5.2708
5.2708
5.2708
)
;
    }
    frontAndBack
    {
        type            empty;
    }
}


// ************************************************************************* //
