/*--------------------------------*- C++ -*----------------------------------*\
| =========                 |                                                 |
| \\      /  F ield         | OpenFOAM: The Open Source CFD Toolbox           |
|  \\    /   O peration     | Version:  2312                                  |
|   \\  /    A nd           | Website:  www.openfoam.com                      |
|    \\/     M anipulation  |                                                 |
\*---------------------------------------------------------------------------*/
FoamFile
{
    version     2.0;
    format      ascii;
    arch        "LSB;label=32;scalar=64";
    class       volScalarField;
    location    "6";
    object      turbulenceProperties:nuTilda;
}
// * * * * * * * * * * * * * * * * * * * * * * * * * * * * * * * * * * * * * //

dimensions      [0 2 -1 0 0 0 0];

internalField   nonuniform List<scalar> 
400
(
1.65014e-06
1.65014e-06
1.65014e-06
1.65014e-06
1.65014e-06
1.65014e-06
1.65013e-06
1.65014e-06
1.65013e-06
1.65013e-06
1.65013e-06
1.65013e-06
1.65013e-06
1.65013e-06
1.65013e-06
1.65013e-06
1.65013e-06
1.65013e-06
1.65013e-06
1.65013e-06
1.69119e-06
1.72211e-06
1.71929e-06
1.71812e-06
1.71579e-06
1.71462e-06
1.71231e-06
1.71112e-06
1.70884e-06
1.70763e-06
1.70537e-06
1.70415e-06
1.70189e-06
1.70066e-06
1.69843e-06
1.69718e-06
1.69496e-06
1.69369e-06
1.69259e-06
1.69086e-06
1.74779e-06
1.78134e-06
1.77823e-06
1.77693e-06
1.7744e-06
1.77309e-06
1.77059e-06
1.76926e-06
1.76679e-06
1.76546e-06
1.76302e-06
1.76168e-06
1.75926e-06
1.75792e-06
1.75552e-06
1.75418e-06
1.7518e-06
1.75045e-06
1.74926e-06
1.74742e-06
1.79791e-06
1.8335e-06
1.83018e-06
1.82882e-06
1.82611e-06
1.82474e-06
1.82207e-06
1.82068e-06
1.81804e-06
1.81665e-06
1.81403e-06
1.81264e-06
1.81005e-06
1.80865e-06
1.80608e-06
1.80467e-06
1.80214e-06
1.80072e-06
1.79946e-06
1.7975e-06
1.83359e-06
1.8707e-06
1.86725e-06
1.86582e-06
1.86299e-06
1.86157e-06
1.85877e-06
1.85734e-06
1.85457e-06
1.85313e-06
1.85039e-06
1.84895e-06
1.84624e-06
1.84479e-06
1.8421e-06
1.84064e-06
1.83799e-06
1.83651e-06
1.8352e-06
1.83316e-06
1.85612e-06
1.89422e-06
1.89069e-06
1.8892e-06
1.88632e-06
1.88483e-06
1.88199e-06
1.88048e-06
1.87768e-06
1.87616e-06
1.87339e-06
1.87187e-06
1.86912e-06
1.8676e-06
1.86487e-06
1.86334e-06
1.86065e-06
1.85912e-06
1.85777e-06
1.85568e-06
1.86957e-06
1.90827e-06
1.90465e-06
1.90317e-06
1.90022e-06
1.89873e-06
1.89581e-06
1.89432e-06
1.89144e-06
1.88993e-06
1.88708e-06
1.88556e-06
1.88274e-06
1.88122e-06
1.87843e-06
1.8769e-06
1.87415e-06
1.8726e-06
1.87123e-06
1.86911e-06
1.8776e-06
1.91664e-06
1.91302e-06
1.91149e-06
1.90855e-06
1.90701e-06
1.90411e-06
1.90255e-06
1.89968e-06
1.89812e-06
1.89528e-06
1.89372e-06
1.8909e-06
1.88934e-06
1.88655e-06
1.88499e-06
1.88223e-06
1.88066e-06
1.87928e-06
1.87713e-06
1.88274e-06
1.922e-06
1.91836e-06
1.91683e-06
1.91386e-06
1.91231e-06
1.90941e-06
1.90781e-06
1.90496e-06
1.90336e-06
1.90053e-06
1.89894e-06
1.89611e-06
1.89454e-06
1.89174e-06
1.89016e-06
1.88739e-06
1.88581e-06
1.88442e-06
1.88226e-06
1.88646e-06
1.92589e-06
1.92223e-06
1.9207e-06
1.91771e-06
1.91616e-06
1.91323e-06
1.91166e-06
1.90877e-06
1.90719e-06
1.90432e-06
1.90275e-06
1.8999e-06
1.89832e-06
1.89551e-06
1.89392e-06
1.89113e-06
1.88955e-06
1.88816e-06
1.88599e-06
1.88962e-06
1.92918e-06
1.92551e-06
1.92397e-06
1.92097e-06
1.91943e-06
1.91647e-06
1.91491e-06
1.912e-06
1.91042e-06
1.90754e-06
1.90595e-06
1.9031e-06
1.90152e-06
1.89869e-06
1.89711e-06
1.89431e-06
1.89272e-06
1.89132e-06
1.88915e-06
1.89266e-06
1.93235e-06
1.92866e-06
1.92712e-06
1.92411e-06
1.92255e-06
1.9196e-06
1.91802e-06
1.91511e-06
1.91352e-06
1.91064e-06
1.90904e-06
1.90619e-06
1.90459e-06
1.90176e-06
1.90017e-06
1.89736e-06
1.89576e-06
1.89436e-06
1.89218e-06
1.89583e-06
1.93567e-06
1.93194e-06
1.93042e-06
1.92738e-06
1.92584e-06
1.92286e-06
1.92129e-06
1.91834e-06
1.91678e-06
1.91384e-06
1.91229e-06
1.90938e-06
1.90782e-06
1.90494e-06
1.90337e-06
1.90053e-06
1.89895e-06
1.89753e-06
1.89535e-06
1.8993e-06
1.93927e-06
1.93556e-06
1.93401e-06
1.93098e-06
1.92942e-06
1.92643e-06
1.92485e-06
1.9219e-06
1.92031e-06
1.9174e-06
1.9158e-06
1.91292e-06
1.91132e-06
1.90846e-06
1.90686e-06
1.90403e-06
1.90242e-06
1.90101e-06
1.89881e-06
1.90317e-06
1.94331e-06
1.93959e-06
1.93802e-06
1.93499e-06
1.9334e-06
1.93042e-06
1.92882e-06
1.92588e-06
1.92426e-06
1.92135e-06
1.91974e-06
1.91684e-06
1.91524e-06
1.91237e-06
1.91076e-06
1.90792e-06
1.9063e-06
1.90489e-06
1.90268e-06
1.90748e-06
1.94782e-06
1.94403e-06
1.9425e-06
1.93941e-06
1.93786e-06
1.93482e-06
1.93326e-06
1.93025e-06
1.92868e-06
1.92571e-06
1.92413e-06
1.92119e-06
1.91961e-06
1.9167e-06
1.91511e-06
1.91223e-06
1.91062e-06
1.90919e-06
1.90698e-06
1.91207e-06
1.95259e-06
1.94883e-06
1.94725e-06
1.94419e-06
1.94259e-06
1.93958e-06
1.93797e-06
1.93499e-06
1.93337e-06
1.93042e-06
1.9288e-06
1.92588e-06
1.92425e-06
1.92136e-06
1.91973e-06
1.91687e-06
1.91524e-06
1.91381e-06
1.91158e-06
1.91659e-06
1.95729e-06
1.95351e-06
1.95194e-06
1.94883e-06
1.94726e-06
1.9442e-06
1.94262e-06
1.93959e-06
1.938e-06
1.935e-06
1.93341e-06
1.93044e-06
1.92884e-06
1.9259e-06
1.92429e-06
1.92139e-06
1.91977e-06
1.91833e-06
1.91609e-06
1.92031e-06
1.96034e-06
1.95669e-06
1.95516e-06
1.95217e-06
1.95061e-06
1.94766e-06
1.94608e-06
1.94316e-06
1.94155e-06
1.93865e-06
1.93703e-06
1.93415e-06
1.93251e-06
1.92965e-06
1.928e-06
1.92515e-06
1.92349e-06
1.92206e-06
1.91983e-06
1.92198e-06
1.92198e-06
1.92198e-06
1.92198e-06
1.92198e-06
1.92197e-06
1.92198e-06
1.92197e-06
1.92197e-06
1.92197e-06
1.92197e-06
1.92197e-06
1.92197e-06
1.92197e-06
1.92197e-06
1.92197e-06
1.92197e-06
1.92197e-06
1.92197e-06
1.92197e-06
)
;

boundaryField
{
    movingWall
    {
        type            calculated;
        value           nonuniform List<scalar> 
20
(
1.92198e-06
1.92198e-06
1.92198e-06
1.92198e-06
1.92198e-06
1.92197e-06
1.92198e-06
1.92197e-06
1.92197e-06
1.92197e-06
1.92197e-06
1.92197e-06
1.92197e-06
1.92197e-06
1.92197e-06
1.92197e-06
1.92197e-06
1.92197e-06
1.92197e-06
1.92197e-06
)
;
    }
    fixedWalls
    {
        type            calculated;
        value           nonuniform List<scalar> 
60
(
1.65014e-06
1.69119e-06
1.74779e-06
1.79791e-06
1.83359e-06
1.85612e-06
1.86957e-06
1.8776e-06
1.88274e-06
1.88646e-06
1.88962e-06
1.89266e-06
1.89583e-06
1.8993e-06
1.90317e-06
1.90748e-06
1.91207e-06
1.91659e-06
1.92031e-06
1.92198e-06
1.65013e-06
1.69086e-06
1.74742e-06
1.7975e-06
1.83316e-06
1.85568e-06
1.86911e-06
1.87713e-06
1.88226e-06
1.88599e-06
1.88915e-06
1.89218e-06
1.89535e-06
1.89881e-06
1.90268e-06
1.90698e-06
1.91158e-06
1.91609e-06
1.91983e-06
1.92197e-06
1.65014e-06
1.65014e-06
1.65014e-06
1.65014e-06
1.65014e-06
1.65014e-06
1.65013e-06
1.65014e-06
1.65013e-06
1.65013e-06
1.65013e-06
1.65013e-06
1.65013e-06
1.65013e-06
1.65013e-06
1.65013e-06
1.65013e-06
1.65013e-06
1.65013e-06
1.65013e-06
)
;
    }
    frontAndBack
    {
        type            empty;
    }
}


// ************************************************************************* //
