/*--------------------------------*- C++ -*----------------------------------*\
| =========                 |                                                 |
| \\      /  F ield         | OpenFOAM: The Open Source CFD Toolbox           |
|  \\    /   O peration     | Version:  2312                                  |
|   \\  /    A nd           | Website:  www.openfoam.com                      |
|    \\/     M anipulation  |                                                 |
\*---------------------------------------------------------------------------*/
FoamFile
{
    version     2.0;
    format      ascii;
    arch        "LSB;label=32;scalar=64";
    class       volScalarField;
    location    "6";
    object      turbulenceProperties:I;
}
// * * * * * * * * * * * * * * * * * * * * * * * * * * * * * * * * * * * * * //

dimensions      [0 0 0 0 0 0 0];

internalField   nonuniform List<scalar> 
400
(
0.00240799
0.00240798
0.00240798
0.00240798
0.00240798
0.00240798
0.00240798
0.00240798
0.00240798
0.00240798
0.00240798
0.00240798
0.00240798
0.00240798
0.00240798
0.00240798
0.00240798
0.00240798
0.00240798
0.00240798
0.00246838
0.00246838
0.00246829
0.00246826
0.0024682
0.00246817
0.00246811
0.0024681
0.00246805
0.00246803
0.00246799
0.00246798
0.00246794
0.00246794
0.00246791
0.00246791
0.00246789
0.00246789
0.00246789
0.00246788
0.00255152
0.00255152
0.00255143
0.00255139
0.00255133
0.00255129
0.00255123
0.0025512
0.00255116
0.00255113
0.0025511
0.00255107
0.00255105
0.00255103
0.00255101
0.002551
0.00255099
0.00255098
0.00255098
0.00255097
0.00262506
0.00262506
0.00262496
0.00262492
0.00262484
0.00262481
0.00262474
0.00262472
0.00262466
0.00262464
0.00262459
0.00262457
0.00262454
0.00262452
0.0026245
0.00262449
0.00262447
0.00262447
0.00262446
0.00262446
0.00267736
0.00267736
0.00267725
0.00267721
0.00267712
0.00267709
0.00267702
0.00267699
0.00267693
0.00267691
0.00267685
0.00267684
0.0026768
0.00267679
0.00267676
0.00267675
0.00267673
0.00267673
0.00267672
0.00267672
0.00271036
0.00271035
0.00271024
0.00271019
0.00271012
0.00271007
0.00271001
0.00270997
0.00270991
0.00270988
0.00270984
0.00270981
0.00270978
0.00270976
0.00270974
0.00270972
0.00270971
0.0027097
0.00270969
0.00270969
0.00273003
0.00273003
0.00272991
0.00272986
0.00272978
0.00272974
0.00272966
0.00272964
0.00272957
0.00272955
0.00272949
0.00272948
0.00272943
0.00272942
0.00272939
0.00272938
0.00272936
0.00272936
0.00272935
0.00272935
0.00274178
0.00274177
0.00274166
0.00274161
0.00274153
0.00274148
0.00274142
0.00274137
0.00274132
0.00274128
0.00274124
0.00274121
0.00274118
0.00274115
0.00274113
0.00274112
0.0027411
0.00274109
0.00274109
0.00274109
0.00274929
0.00274928
0.00274917
0.00274912
0.00274904
0.00274899
0.00274893
0.00274888
0.00274883
0.00274878
0.00274875
0.00274871
0.00274868
0.00274866
0.00274864
0.00274862
0.00274861
0.0027486
0.00274859
0.00274859
0.00275475
0.00275475
0.00275463
0.00275458
0.0027545
0.00275445
0.00275438
0.00275434
0.00275428
0.00275425
0.00275421
0.00275418
0.00275414
0.00275412
0.00275409
0.00275408
0.00275407
0.00275406
0.00275405
0.00275405
0.00275937
0.00275937
0.00275925
0.0027592
0.00275912
0.00275907
0.002759
0.00275896
0.00275891
0.00275887
0.00275883
0.0027588
0.00275876
0.00275874
0.00275872
0.0027587
0.00275869
0.00275868
0.00275867
0.00275867
0.00276382
0.00276382
0.0027637
0.00276365
0.00276357
0.00276352
0.00276345
0.00276341
0.00276335
0.00276332
0.00276327
0.00276324
0.00276321
0.00276318
0.00276316
0.00276314
0.00276313
0.00276312
0.00276312
0.00276311
0.00276847
0.00276847
0.00276834
0.0027683
0.00276821
0.00276817
0.00276809
0.00276806
0.00276799
0.00276797
0.00276791
0.00276789
0.00276785
0.00276784
0.0027678
0.00276779
0.00276777
0.00276777
0.00276776
0.00276776
0.00277356
0.00277355
0.00277343
0.00277338
0.0027733
0.00277325
0.00277318
0.00277314
0.00277308
0.00277305
0.002773
0.00277297
0.00277294
0.00277291
0.00277289
0.00277287
0.00277286
0.00277285
0.00277284
0.00277284
0.00277923
0.00277923
0.00277911
0.00277905
0.00277898
0.00277892
0.00277886
0.00277881
0.00277876
0.00277872
0.00277867
0.00277864
0.00277861
0.00277858
0.00277856
0.00277854
0.00277853
0.00277852
0.00277852
0.00277851
0.00278554
0.00278555
0.00278541
0.00278537
0.00278528
0.00278524
0.00278515
0.00278513
0.00278505
0.00278503
0.00278497
0.00278495
0.00278491
0.0027849
0.00278486
0.00278485
0.00278483
0.00278483
0.00278482
0.00278482
0.0027923
0.00279229
0.00279217
0.00279212
0.00279203
0.00279198
0.00279191
0.00279187
0.00279181
0.00279178
0.00279173
0.0027917
0.00279166
0.00279164
0.00279162
0.0027916
0.00279158
0.00279158
0.00279157
0.00279157
0.00279892
0.00279892
0.0027988
0.00279875
0.00279865
0.00279861
0.00279853
0.0027985
0.00279843
0.00279841
0.00279834
0.00279833
0.00279828
0.00279827
0.00279823
0.00279822
0.0027982
0.0027982
0.00279819
0.00279819
0.00280439
0.00280439
0.00280427
0.00280422
0.00280413
0.00280408
0.00280401
0.00280397
0.00280392
0.00280388
0.00280383
0.0028038
0.00280377
0.00280374
0.00280372
0.0028037
0.00280369
0.00280368
0.00280367
0.00280367
0.00280684
0.00280683
0.00280683
0.00280683
0.00280683
0.00280683
0.00280683
0.00280683
0.00280683
0.00280683
0.00280683
0.00280683
0.00280683
0.00280683
0.00280683
0.00280683
0.00280683
0.00280683
0.00280683
0.00280683
)
;

boundaryField
{
    movingWall
    {
        type            calculated;
        value           nonuniform List<scalar> 
20
(
0.00280684
0.00280683
0.00280683
0.00280683
0.00280683
0.00280683
0.00280683
0.00280683
0.00280683
0.00280683
0.00280683
0.00280683
0.00280683
0.00280683
0.00280683
0.00280683
0.00280683
0.00280683
0.00280683
0.00280683
)
;
    }
    fixedWalls
    {
        type            calculated;
        value           nonuniform List<scalar> 
60
(
0.00240799
0.00246838
0.00255152
0.00262506
0.00267736
0.00271036
0.00273003
0.00274178
0.00274929
0.00275475
0.00275937
0.00276382
0.00276847
0.00277356
0.00277923
0.00278554
0.0027923
0.00279892
0.00280439
0.00280684
0.00240798
0.00246788
0.00255097
0.00262446
0.00267672
0.00270969
0.00272935
0.00274109
0.00274859
0.00275405
0.00275867
0.00276311
0.00276776
0.00277284
0.00277851
0.00278482
0.00279157
0.00279819
0.00280367
0.00280683
0.00240799
0.00240798
0.00240798
0.00240798
0.00240798
0.00240798
0.00240798
0.00240798
0.00240798
0.00240798
0.00240798
0.00240798
0.00240798
0.00240798
0.00240798
0.00240798
0.00240798
0.00240798
0.00240798
0.00240798
)
;
    }
    frontAndBack
    {
        type            empty;
    }
}


// ************************************************************************* //
