/*--------------------------------*- C++ -*----------------------------------*\
| =========                 |                                                 |
| \\      /  F ield         | OpenFOAM: The Open Source CFD Toolbox           |
|  \\    /   O peration     | Version:  2312                                  |
|   \\  /    A nd           | Website:  www.openfoam.com                      |
|    \\/     M anipulation  |                                                 |
\*---------------------------------------------------------------------------*/
FoamFile
{
    version     2.0;
    format      ascii;
    arch        "LSB;label=32;scalar=64";
    class       volScalarField;
    location    "6";
    object      turbulenceProperties:nuEff;
}
// * * * * * * * * * * * * * * * * * * * * * * * * * * * * * * * * * * * * * //

dimensions      [0 2 -1 0 0 0 0];

internalField   nonuniform List<scalar> 
400
(
1.16501e-05
1.16501e-05
1.16501e-05
1.16501e-05
1.16501e-05
1.16501e-05
1.16501e-05
1.16501e-05
1.16501e-05
1.16501e-05
1.16501e-05
1.16501e-05
1.16501e-05
1.16501e-05
1.16501e-05
1.16501e-05
1.16501e-05
1.16501e-05
1.16501e-05
1.16501e-05
1.16912e-05
1.17221e-05
1.17193e-05
1.17181e-05
1.17158e-05
1.17146e-05
1.17123e-05
1.17111e-05
1.17088e-05
1.17076e-05
1.17054e-05
1.17041e-05
1.17019e-05
1.17007e-05
1.16984e-05
1.16972e-05
1.1695e-05
1.16937e-05
1.16926e-05
1.16909e-05
1.17478e-05
1.17813e-05
1.17782e-05
1.17769e-05
1.17744e-05
1.17731e-05
1.17706e-05
1.17693e-05
1.17668e-05
1.17655e-05
1.1763e-05
1.17617e-05
1.17593e-05
1.17579e-05
1.17555e-05
1.17542e-05
1.17518e-05
1.17504e-05
1.17493e-05
1.17474e-05
1.17979e-05
1.18335e-05
1.18302e-05
1.18288e-05
1.18261e-05
1.18247e-05
1.18221e-05
1.18207e-05
1.1818e-05
1.18166e-05
1.1814e-05
1.18126e-05
1.181e-05
1.18086e-05
1.18061e-05
1.18047e-05
1.18021e-05
1.18007e-05
1.17995e-05
1.17975e-05
1.18336e-05
1.18707e-05
1.18672e-05
1.18658e-05
1.1863e-05
1.18616e-05
1.18588e-05
1.18573e-05
1.18546e-05
1.18531e-05
1.18504e-05
1.1849e-05
1.18462e-05
1.18448e-05
1.18421e-05
1.18406e-05
1.1838e-05
1.18365e-05
1.18352e-05
1.18332e-05
1.18561e-05
1.18942e-05
1.18907e-05
1.18892e-05
1.18863e-05
1.18848e-05
1.1882e-05
1.18805e-05
1.18777e-05
1.18762e-05
1.18734e-05
1.18719e-05
1.18691e-05
1.18676e-05
1.18649e-05
1.18633e-05
1.18606e-05
1.18591e-05
1.18578e-05
1.18557e-05
1.18696e-05
1.19083e-05
1.19046e-05
1.19032e-05
1.19002e-05
1.18987e-05
1.18958e-05
1.18943e-05
1.18914e-05
1.18899e-05
1.18871e-05
1.18856e-05
1.18827e-05
1.18812e-05
1.18784e-05
1.18769e-05
1.18741e-05
1.18726e-05
1.18712e-05
1.18691e-05
1.18776e-05
1.19166e-05
1.1913e-05
1.19115e-05
1.19085e-05
1.1907e-05
1.19041e-05
1.19026e-05
1.18997e-05
1.18981e-05
1.18953e-05
1.18937e-05
1.18909e-05
1.18893e-05
1.18866e-05
1.1885e-05
1.18822e-05
1.18807e-05
1.18793e-05
1.18771e-05
1.18827e-05
1.1922e-05
1.19184e-05
1.19168e-05
1.19139e-05
1.19123e-05
1.19094e-05
1.19078e-05
1.1905e-05
1.19034e-05
1.19005e-05
1.18989e-05
1.18961e-05
1.18945e-05
1.18917e-05
1.18902e-05
1.18874e-05
1.18858e-05
1.18844e-05
1.18823e-05
1.18865e-05
1.19259e-05
1.19222e-05
1.19207e-05
1.19177e-05
1.19162e-05
1.19132e-05
1.19117e-05
1.19088e-05
1.19072e-05
1.19043e-05
1.19027e-05
1.18999e-05
1.18983e-05
1.18955e-05
1.18939e-05
1.18911e-05
1.18895e-05
1.18882e-05
1.1886e-05
1.18896e-05
1.19292e-05
1.19255e-05
1.1924e-05
1.1921e-05
1.19194e-05
1.19165e-05
1.19149e-05
1.1912e-05
1.19104e-05
1.19075e-05
1.1906e-05
1.19031e-05
1.19015e-05
1.18987e-05
1.18971e-05
1.18943e-05
1.18927e-05
1.18913e-05
1.18891e-05
1.18927e-05
1.19323e-05
1.19287e-05
1.19271e-05
1.19241e-05
1.19226e-05
1.19196e-05
1.1918e-05
1.19151e-05
1.19135e-05
1.19106e-05
1.1909e-05
1.19062e-05
1.19046e-05
1.19018e-05
1.19002e-05
1.18974e-05
1.18958e-05
1.18944e-05
1.18922e-05
1.18958e-05
1.19357e-05
1.19319e-05
1.19304e-05
1.19274e-05
1.19258e-05
1.19229e-05
1.19213e-05
1.19183e-05
1.19168e-05
1.19138e-05
1.19123e-05
1.19094e-05
1.19078e-05
1.19049e-05
1.19034e-05
1.19005e-05
1.18989e-05
1.18975e-05
1.18953e-05
1.18993e-05
1.19393e-05
1.19356e-05
1.1934e-05
1.1931e-05
1.19294e-05
1.19264e-05
1.19248e-05
1.19219e-05
1.19203e-05
1.19174e-05
1.19158e-05
1.19129e-05
1.19113e-05
1.19085e-05
1.19069e-05
1.1904e-05
1.19024e-05
1.1901e-05
1.18988e-05
1.19032e-05
1.19433e-05
1.19396e-05
1.1938e-05
1.1935e-05
1.19334e-05
1.19304e-05
1.19288e-05
1.19259e-05
1.19243e-05
1.19213e-05
1.19197e-05
1.19168e-05
1.19152e-05
1.19124e-05
1.19108e-05
1.19079e-05
1.19063e-05
1.19049e-05
1.19027e-05
1.19075e-05
1.19478e-05
1.1944e-05
1.19425e-05
1.19394e-05
1.19379e-05
1.19348e-05
1.19333e-05
1.19303e-05
1.19287e-05
1.19257e-05
1.19241e-05
1.19212e-05
1.19196e-05
1.19167e-05
1.19151e-05
1.19122e-05
1.19106e-05
1.19092e-05
1.1907e-05
1.19121e-05
1.19526e-05
1.19488e-05
1.19473e-05
1.19442e-05
1.19426e-05
1.19396e-05
1.1938e-05
1.1935e-05
1.19334e-05
1.19304e-05
1.19288e-05
1.19259e-05
1.19243e-05
1.19214e-05
1.19197e-05
1.19169e-05
1.19152e-05
1.19138e-05
1.19116e-05
1.19166e-05
1.19573e-05
1.19535e-05
1.19519e-05
1.19488e-05
1.19473e-05
1.19442e-05
1.19426e-05
1.19396e-05
1.1938e-05
1.1935e-05
1.19334e-05
1.19304e-05
1.19288e-05
1.19259e-05
1.19243e-05
1.19214e-05
1.19198e-05
1.19183e-05
1.19161e-05
1.19203e-05
1.19603e-05
1.19567e-05
1.19552e-05
1.19522e-05
1.19506e-05
1.19477e-05
1.19461e-05
1.19432e-05
1.19415e-05
1.19387e-05
1.1937e-05
1.19341e-05
1.19325e-05
1.19296e-05
1.1928e-05
1.19252e-05
1.19235e-05
1.19221e-05
1.19198e-05
1.1922e-05
1.1922e-05
1.1922e-05
1.1922e-05
1.1922e-05
1.1922e-05
1.1922e-05
1.1922e-05
1.1922e-05
1.1922e-05
1.1922e-05
1.1922e-05
1.1922e-05
1.1922e-05
1.1922e-05
1.1922e-05
1.1922e-05
1.1922e-05
1.1922e-05
1.1922e-05
)
;

boundaryField
{
    movingWall
    {
        type            calculated;
        value           uniform 1e-05;
    }
    fixedWalls
    {
        type            calculated;
        value           uniform 1e-05;
    }
    frontAndBack
    {
        type            empty;
    }
}


// ************************************************************************* //
