/*--------------------------------*- C++ -*----------------------------------*\
| =========                 |                                                 |
| \\      /  F ield         | OpenFOAM: The Open Source CFD Toolbox           |
|  \\    /   O peration     | Version:  2312                                  |
|   \\  /    A nd           | Website:  www.openfoam.com                      |
|    \\/     M anipulation  |                                                 |
\*---------------------------------------------------------------------------*/
FoamFile
{
    version     2.0;
    format      ascii;
    arch        "LSB;label=32;scalar=64";
    class       volSymmTensorField;
    location    "6";
    object      turbulenceProperties:R;
}
// * * * * * * * * * * * * * * * * * * * * * * * * * * * * * * * * * * * * * //

dimensions      [0 2 -2 0 0 0 0];

internalField   nonuniform List<symmTensor> 
400
(
(5.7984e-06 -2.0442e-17 -0 5.7984e-06 -0 5.7984e-06)
(5.79839e-06 2.31957e-17 -0 5.79839e-06 -0 5.79839e-06)
(5.79839e-06 -4.94016e-18 -0 5.79839e-06 -0 5.79839e-06)
(5.79838e-06 9.82692e-19 -0 5.79838e-06 -0 5.79838e-06)
(5.79838e-06 -4.14562e-19 -0 5.79838e-06 -0 5.79838e-06)
(5.79837e-06 -1.71807e-19 -0 5.79837e-06 -0 5.79837e-06)
(5.79837e-06 -1.95897e-19 -0 5.79837e-06 -0 5.79837e-06)
(5.79837e-06 -8.64411e-20 -0 5.79837e-06 -0 5.79837e-06)
(5.79836e-06 -8.32805e-20 -0 5.79836e-06 -0 5.79836e-06)
(5.79836e-06 -8.22418e-20 -0 5.79836e-06 -0 5.79836e-06)
(5.79836e-06 -1.24851e-19 -0 5.79836e-06 -0 5.79836e-06)
(5.79836e-06 -9.36741e-20 -0 5.79836e-06 -0 5.79836e-06)
(5.79836e-06 -1.10773e-19 -0 5.79836e-06 -0 5.79836e-06)
(5.79835e-06 -4.87716e-20 -0 5.79835e-06 -0 5.79835e-06)
(5.79835e-06 2.79832e-20 -0 5.79835e-06 -0 5.79835e-06)
(5.79835e-06 1.60387e-20 -0 5.79835e-06 -0 5.79835e-06)
(5.79835e-06 -2.16416e-20 -0 5.79835e-06 -0 5.79835e-06)
(5.79835e-06 -1.25492e-20 -0 5.79835e-06 -0 5.79835e-06)
(5.79835e-06 7.97666e-21 -0 5.79835e-06 -0 5.79835e-06)
(5.79835e-06 4.09568e-21 -0 5.79835e-06 -0 5.79835e-06)
(6.09288e-06 -6.18356e-18 -0 6.09288e-06 -0 6.09288e-06)
(6.09288e-06 4.77904e-18 -0 6.09288e-06 -0 6.09288e-06)
(6.09247e-06 -8.88287e-19 -0 6.09247e-06 -0 6.09247e-06)
(6.09231e-06 3.95236e-19 -0 6.09231e-06 -0 6.09231e-06)
(6.09199e-06 2.72663e-20 -0 6.09199e-06 -0 6.09199e-06)
(6.09187e-06 1.5228e-19 -0 6.09187e-06 -0 6.09187e-06)
(6.09158e-06 7.21868e-20 -0 6.09158e-06 -0 6.09158e-06)
(6.0915e-06 1.10523e-19 -0 6.0915e-06 -0 6.0915e-06)
(6.09125e-06 9.52014e-20 -0 6.09125e-06 -0 6.09125e-06)
(6.09118e-06 7.76673e-20 -0 6.09118e-06 -0 6.09118e-06)
(6.09097e-06 1.31249e-19 -0 6.09097e-06 -0 6.09097e-06)
(6.09092e-06 7.61831e-20 -0 6.09092e-06 -0 6.09092e-06)
(6.09075e-06 6.25502e-20 -0 6.09075e-06 -0 6.09075e-06)
(6.09072e-06 1.32639e-19 -0 6.09072e-06 -0 6.09072e-06)
(6.09059e-06 1.33096e-19 -0 6.09059e-06 -0 6.09059e-06)
(6.09057e-06 4.34072e-20 -0 6.09057e-06 -0 6.09057e-06)
(6.09049e-06 8.79002e-20 -0 6.09049e-06 -0 6.09049e-06)
(6.09049e-06 9.6587e-20 -0 6.09049e-06 -0 6.09049e-06)
(6.09046e-06 2.09568e-20 -0 6.09046e-06 -0 6.09046e-06)
(6.09045e-06 -2.19988e-20 -0 6.09045e-06 -0 6.09045e-06)
(6.51028e-06 2.88721e-17 -0 6.51028e-06 -0 6.51028e-06)
(6.51026e-06 -2.74044e-17 -0 6.51026e-06 -0 6.51026e-06)
(6.5098e-06 5.59941e-18 -0 6.5098e-06 -0 6.5098e-06)
(6.50959e-06 -1.38065e-18 -0 6.50959e-06 -0 6.50959e-06)
(6.50926e-06 2.93531e-19 -0 6.50926e-06 -0 6.50926e-06)
(6.50908e-06 -7.4885e-20 -0 6.50908e-06 -0 6.50908e-06)
(6.5088e-06 1.7231e-19 -0 6.5088e-06 -0 6.5088e-06)
(6.50864e-06 1.90889e-20 -0 6.50864e-06 -0 6.50864e-06)
(6.50841e-06 3.67308e-20 -0 6.50841e-06 -0 6.50841e-06)
(6.50827e-06 1.54684e-20 -0 6.50827e-06 -0 6.50827e-06)
(6.50809e-06 -1.65262e-20 -0 6.50809e-06 -0 6.50809e-06)
(6.50797e-06 -3.27471e-20 -0 6.50797e-06 -0 6.50797e-06)
(6.50784e-06 7.0046e-20 -0 6.50784e-06 -0 6.50784e-06)
(6.50774e-06 -1.00215e-19 -0 6.50774e-06 -0 6.50774e-06)
(6.50765e-06 -7.84246e-20 -0 6.50765e-06 -0 6.50765e-06)
(6.50758e-06 -5.04024e-20 -0 6.50758e-06 -0 6.50758e-06)
(6.50753e-06 -4.29438e-20 -0 6.50753e-06 -0 6.50753e-06)
(6.5075e-06 -6.19044e-20 -0 6.5075e-06 -0 6.5075e-06)
(6.50747e-06 -1.03569e-21 -0 6.50747e-06 -0 6.50747e-06)
(6.50746e-06 -1.13771e-19 -0 6.50746e-06 -0 6.50746e-06)
(6.89096e-06 -1.76128e-17 -0 6.89096e-06 -0 6.89096e-06)
(6.89095e-06 1.90854e-17 -0 6.89095e-06 -0 6.89095e-06)
(6.8904e-06 -3.73106e-18 -0 6.8904e-06 -0 6.8904e-06)
(6.89019e-06 9.10305e-19 -0 6.89019e-06 -0 6.89019e-06)
(6.8898e-06 -2.60297e-19 -0 6.8898e-06 -0 6.8898e-06)
(6.88963e-06 -4.8255e-20 -0 6.88963e-06 -0 6.88963e-06)
(6.88928e-06 -1.76689e-19 -0 6.88928e-06 -0 6.88928e-06)
(6.88914e-06 -9.53051e-20 -0 6.88914e-06 -0 6.88914e-06)
(6.88884e-06 -6.66666e-20 -0 6.88884e-06 -0 6.88884e-06)
(6.88873e-06 -3.98772e-20 -0 6.88873e-06 -0 6.88873e-06)
(6.88848e-06 -5.42143e-20 -0 6.88848e-06 -0 6.88848e-06)
(6.88839e-06 -1.07577e-19 -0 6.88839e-06 -0 6.88839e-06)
(6.8882e-06 -1.51852e-19 -0 6.8882e-06 -0 6.8882e-06)
(6.88813e-06 -6.97739e-20 -0 6.88813e-06 -0 6.88813e-06)
(6.88799e-06 -8.04037e-20 -0 6.88799e-06 -0 6.88799e-06)
(6.88795e-06 1.99113e-20 -0 6.88795e-06 -0 6.88795e-06)
(6.88786e-06 -4.10371e-21 -0 6.88786e-06 -0 6.88786e-06)
(6.88784e-06 -7.21963e-20 -0 6.88784e-06 -0 6.88784e-06)
(6.88781e-06 -1.45174e-20 -0 6.88781e-06 -0 6.88781e-06)
(6.8878e-06 -4.65324e-20 -0 6.8878e-06 -0 6.8878e-06)
(7.16826e-06 -3.54851e-18 -0 7.16826e-06 -0 7.16826e-06)
(7.16825e-06 -3.62728e-19 -0 7.16825e-06 -0 7.16825e-06)
(7.16766e-06 -2.02498e-19 -0 7.16766e-06 -0 7.16766e-06)
(7.16743e-06 1.35303e-19 -0 7.16743e-06 -0 7.16743e-06)
(7.16699e-06 7.1409e-21 -0 7.16699e-06 -0 7.16699e-06)
(7.16682e-06 1.97347e-19 -0 7.16682e-06 -0 7.16682e-06)
(7.16643e-06 1.21986e-19 -0 7.16643e-06 -0 7.16643e-06)
(7.1663e-06 1.67825e-19 -0 7.1663e-06 -0 7.1663e-06)
(7.16594e-06 8.7382e-20 -0 7.16594e-06 -0 7.16594e-06)
(7.16586e-06 6.19861e-20 -0 7.16586e-06 -0 7.16586e-06)
(7.16555e-06 1.09563e-19 -0 7.16555e-06 -0 7.16555e-06)
(7.16549e-06 6.07416e-20 -0 7.16549e-06 -0 7.16549e-06)
(7.16525e-06 1.64411e-20 -0 7.16525e-06 -0 7.16525e-06)
(7.1652e-06 6.17266e-20 -0 7.1652e-06 -0 7.1652e-06)
(7.16503e-06 1.08743e-20 -0 7.16503e-06 -0 7.16503e-06)
(7.165e-06 1.07517e-19 -0 7.165e-06 -0 7.165e-06)
(7.16489e-06 5.07173e-20 -0 7.16489e-06 -0 7.16489e-06)
(7.16488e-06 1.02542e-19 -0 7.16488e-06 -0 7.16488e-06)
(7.16484e-06 6.41147e-21 -0 7.16484e-06 -0 7.16484e-06)
(7.16483e-06 2.77972e-20 -0 7.16483e-06 -0 7.16483e-06)
(7.34603e-06 1.50647e-17 -0 7.34603e-06 -0 7.34603e-06)
(7.34601e-06 -1.51105e-17 -0 7.34601e-06 -0 7.34601e-06)
(7.34542e-06 2.78812e-18 -0 7.34542e-06 -0 7.34542e-06)
(7.34514e-06 -9.37164e-19 -0 7.34514e-06 -0 7.34514e-06)
(7.34473e-06 1.24011e-19 -0 7.34473e-06 -0 7.34473e-06)
(7.34449e-06 -1.18681e-19 -0 7.34449e-06 -0 7.34449e-06)
(7.34414e-06 -6.46869e-20 -0 7.34414e-06 -0 7.34414e-06)
(7.34394e-06 -1.14179e-20 -0 7.34394e-06 -0 7.34394e-06)
(7.34363e-06 -2.68947e-20 -0 7.34363e-06 -0 7.34363e-06)
(7.34347e-06 -3.2834e-20 -0 7.34347e-06 -0 7.34347e-06)
(7.34322e-06 -1.59365e-19 -0 7.34322e-06 -0 7.34322e-06)
(7.34308e-06 4.31547e-21 -0 7.34308e-06 -0 7.34308e-06)
(7.3429e-06 -4.31859e-20 -0 7.3429e-06 -0 7.3429e-06)
(7.34279e-06 1.6563e-20 -0 7.34279e-06 -0 7.34279e-06)
(7.34266e-06 7.03964e-20 -0 7.34266e-06 -0 7.34266e-06)
(7.34258e-06 -1.25951e-20 -0 7.34258e-06 -0 7.34258e-06)
(7.34251e-06 -3.93065e-20 -0 7.34251e-06 -0 7.34251e-06)
(7.34247e-06 -1.85566e-21 -0 7.34247e-06 -0 7.34247e-06)
(7.34244e-06 5.7161e-21 -0 7.34244e-06 -0 7.34244e-06)
(7.34243e-06 -2.67722e-20 -0 7.34243e-06 -0 7.34243e-06)
(7.45306e-06 -1.26509e-17 -0 7.45306e-06 -0 7.45306e-06)
(7.45305e-06 1.63386e-17 -0 7.45305e-06 -0 7.45305e-06)
(7.45238e-06 -2.79878e-18 -0 7.45238e-06 -0 7.45238e-06)
(7.45216e-06 7.64479e-19 -0 7.45216e-06 -0 7.45216e-06)
(7.45168e-06 -5.35775e-20 -0 7.45168e-06 -0 7.45168e-06)
(7.45149e-06 8.85328e-20 -0 7.45149e-06 -0 7.45149e-06)
(7.45106e-06 7.04083e-20 -0 7.45106e-06 -0 7.45106e-06)
(7.45092e-06 -8.29575e-20 -0 7.45092e-06 -0 7.45092e-06)
(7.45055e-06 4.90225e-20 -0 7.45055e-06 -0 7.45055e-06)
(7.45043e-06 1.15806e-19 -0 7.45043e-06 -0 7.45043e-06)
(7.45013e-06 2.3235e-19 -0 7.45013e-06 -0 7.45013e-06)
(7.45003e-06 1.57206e-19 -0 7.45003e-06 -0 7.45003e-06)
(7.4498e-06 1.65286e-19 -0 7.4498e-06 -0 7.4498e-06)
(7.44973e-06 1.35971e-19 -0 7.44973e-06 -0 7.44973e-06)
(7.44956e-06 1.66451e-19 -0 7.44956e-06 -0 7.44956e-06)
(7.44951e-06 6.75829e-20 -0 7.44951e-06 -0 7.44951e-06)
(7.4494e-06 1.03375e-20 -0 7.4494e-06 -0 7.4494e-06)
(7.44938e-06 1.15661e-20 -0 7.44938e-06 -0 7.44938e-06)
(7.44934e-06 1.72716e-21 -0 7.44934e-06 -0 7.44934e-06)
(7.44934e-06 -5.47118e-20 -0 7.44934e-06 -0 7.44934e-06)
(7.51735e-06 2.27317e-18 -0 7.51735e-06 -0 7.51735e-06)
(7.51732e-06 -3.6214e-18 -0 7.51732e-06 -0 7.51732e-06)
(7.5167e-06 9.17646e-19 -0 7.5167e-06 -0 7.5167e-06)
(7.51641e-06 3.81882e-20 -0 7.51641e-06 -0 7.51641e-06)
(7.51598e-06 1.94404e-19 -0 7.51598e-06 -0 7.51598e-06)
(7.51573e-06 1.3141e-19 -0 7.51573e-06 -0 7.51573e-06)
(7.51536e-06 1.33197e-19 -0 7.51536e-06 -0 7.51536e-06)
(7.51513e-06 1.09429e-19 -0 7.51513e-06 -0 7.51513e-06)
(7.51483e-06 1.29081e-19 -0 7.51483e-06 -0 7.51483e-06)
(7.51464e-06 2.36083e-20 -0 7.51464e-06 -0 7.51464e-06)
(7.51438e-06 2.92861e-20 -0 7.51438e-06 -0 7.51438e-06)
(7.51424e-06 2.94933e-20 -0 7.51424e-06 -0 7.51424e-06)
(7.51405e-06 -3.72193e-21 -0 7.51405e-06 -0 7.51405e-06)
(7.51393e-06 -5.90392e-21 -0 7.51393e-06 -0 7.51393e-06)
(7.5138e-06 -2.61475e-20 -0 7.5138e-06 -0 7.5138e-06)
(7.51372e-06 -3.46477e-20 -0 7.51372e-06 -0 7.51372e-06)
(7.51365e-06 1.24452e-19 -0 7.51365e-06 -0 7.51365e-06)
(7.5136e-06 1.04098e-19 -0 7.5136e-06 -0 7.5136e-06)
(7.51357e-06 1.28024e-20 -0 7.51357e-06 -0 7.51357e-06)
(7.51356e-06 5.79669e-20 -0 7.51356e-06 -0 7.51356e-06)
(7.55859e-06 7.1001e-18 -0 7.55859e-06 -0 7.55859e-06)
(7.55857e-06 -9.99238e-18 -0 7.55857e-06 -0 7.55857e-06)
(7.55794e-06 1.58068e-18 -0 7.55794e-06 -0 7.55794e-06)
(7.55765e-06 -5.27399e-19 -0 7.55765e-06 -0 7.55765e-06)
(7.55721e-06 -6.09676e-20 -0 7.55721e-06 -0 7.55721e-06)
(7.55693e-06 -1.23675e-19 -0 7.55693e-06 -0 7.55693e-06)
(7.55661e-06 -9.18187e-20 -0 7.55661e-06 -0 7.55661e-06)
(7.55631e-06 -8.27022e-20 -0 7.55631e-06 -0 7.55631e-06)
(7.55608e-06 -2.277e-19 -0 7.55608e-06 -0 7.55608e-06)
(7.55582e-06 -1.55899e-19 -0 7.55582e-06 -0 7.55582e-06)
(7.55563e-06 -2.39121e-19 -0 7.55563e-06 -0 7.55563e-06)
(7.55542e-06 -1.32626e-19 -0 7.55542e-06 -0 7.55542e-06)
(7.55526e-06 -1.4545e-19 -0 7.55526e-06 -0 7.55526e-06)
(7.55513e-06 -1.37093e-19 -0 7.55513e-06 -0 7.55513e-06)
(7.55501e-06 -2.27674e-19 -0 7.55501e-06 -0 7.55501e-06)
(7.55492e-06 -8.40071e-20 -0 7.55492e-06 -0 7.55492e-06)
(7.55485e-06 -1.17125e-19 -0 7.55485e-06 -0 7.55485e-06)
(7.5548e-06 -1.04935e-19 -0 7.5548e-06 -0 7.5548e-06)
(7.55477e-06 8.01507e-22 -0 7.55477e-06 -0 7.55477e-06)
(7.55476e-06 -5.51346e-20 -0 7.55476e-06 -0 7.55476e-06)
(7.58864e-06 -7.24118e-18 -0 7.58864e-06 -0 7.58864e-06)
(7.58863e-06 1.15296e-17 -0 7.58863e-06 -0 7.58863e-06)
(7.58798e-06 -2.38496e-18 -0 7.58798e-06 -0 7.58798e-06)
(7.58769e-06 2.35077e-19 -0 7.58769e-06 -0 7.58769e-06)
(7.58725e-06 -3.01376e-19 -0 7.58725e-06 -0 7.58725e-06)
(7.58699e-06 -1.11e-19 -0 7.58699e-06 -0 7.58699e-06)
(7.58662e-06 -1.52883e-19 -0 7.58662e-06 -0 7.58662e-06)
(7.58639e-06 -1.51952e-19 -0 7.58639e-06 -0 7.58639e-06)
(7.58609e-06 -1.4177e-19 -0 7.58609e-06 -0 7.58609e-06)
(7.58589e-06 -9.46154e-20 -0 7.58589e-06 -0 7.58589e-06)
(7.58565e-06 -5.67808e-20 -0 7.58565e-06 -0 7.58565e-06)
(7.58548e-06 -5.65799e-20 -0 7.58548e-06 -0 7.58548e-06)
(7.5853e-06 -2.96049e-20 -0 7.5853e-06 -0 7.5853e-06)
(7.58517e-06 -9.7462e-20 -0 7.58517e-06 -0 7.58517e-06)
(7.58504e-06 6.64606e-20 -0 7.58504e-06 -0 7.58504e-06)
(7.58495e-06 -2.11072e-20 -0 7.58495e-06 -0 7.58495e-06)
(7.58487e-06 -2.37337e-20 -0 7.58487e-06 -0 7.58487e-06)
(7.58483e-06 1.11357e-20 -0 7.58483e-06 -0 7.58483e-06)
(7.5848e-06 -1.34924e-20 -0 7.5848e-06 -0 7.5848e-06)
(7.58479e-06 3.50871e-20 -0 7.58479e-06 -0 7.58479e-06)
(7.61415e-06 7.98845e-18 -0 7.61415e-06 -0 7.61415e-06)
(7.61412e-06 -1.07129e-17 -0 7.61412e-06 -0 7.61412e-06)
(7.61349e-06 2.68556e-18 -0 7.61349e-06 -0 7.61349e-06)
(7.61319e-06 -1.35489e-19 -0 7.61319e-06 -0 7.61319e-06)
(7.61273e-06 3.53821e-19 -0 7.61273e-06 -0 7.61273e-06)
(7.61249e-06 1.47589e-19 -0 7.61249e-06 -0 7.61249e-06)
(7.61209e-06 1.43387e-19 -0 7.61209e-06 -0 7.61209e-06)
(7.61188e-06 2.31434e-19 -0 7.61188e-06 -0 7.61188e-06)
(7.61156e-06 1.49305e-19 -0 7.61156e-06 -0 7.61156e-06)
(7.61136e-06 2.2013e-19 -0 7.61136e-06 -0 7.61136e-06)
(7.61112e-06 1.34704e-19 -0 7.61112e-06 -0 7.61112e-06)
(7.61095e-06 1.27929e-19 -0 7.61095e-06 -0 7.61095e-06)
(7.61077e-06 7.38031e-20 -0 7.61077e-06 -0 7.61077e-06)
(7.61064e-06 8.78022e-21 -0 7.61064e-06 -0 7.61064e-06)
(7.61051e-06 -7.64856e-20 -0 7.61051e-06 -0 7.61051e-06)
(7.61042e-06 4.14664e-20 -0 7.61042e-06 -0 7.61042e-06)
(7.61035e-06 -7.97879e-20 -0 7.61035e-06 -0 7.61035e-06)
(7.6103e-06 2.205e-20 -0 7.6103e-06 -0 7.6103e-06)
(7.61027e-06 4.1297e-21 -0 7.61027e-06 -0 7.61027e-06)
(7.61026e-06 -9.71648e-20 -0 7.61026e-06 -0 7.61026e-06)
(7.63871e-06 -6.07967e-18 -0 7.63871e-06 -0 7.63871e-06)
(7.63869e-06 8.57994e-18 -0 7.63869e-06 -0 7.63869e-06)
(7.63804e-06 -1.49985e-18 -0 7.63804e-06 -0 7.63804e-06)
(7.63775e-06 6.19998e-19 -0 7.63775e-06 -0 7.63775e-06)
(7.6373e-06 2.49794e-19 -0 7.6373e-06 -0 7.6373e-06)
(7.63703e-06 3.42379e-19 -0 7.63703e-06 -0 7.63703e-06)
(7.63666e-06 2.24723e-19 -0 7.63666e-06 -0 7.63666e-06)
(7.63643e-06 1.69538e-19 -0 7.63643e-06 -0 7.63643e-06)
(7.63612e-06 2.10436e-19 -0 7.63612e-06 -0 7.63612e-06)
(7.63592e-06 5.88346e-20 -0 7.63592e-06 -0 7.63592e-06)
(7.63568e-06 1.8498e-19 -0 7.63568e-06 -0 7.63568e-06)
(7.6355e-06 -1.85044e-20 -0 7.6355e-06 -0 7.6355e-06)
(7.63532e-06 4.98027e-20 -0 7.63532e-06 -0 7.63532e-06)
(7.63519e-06 7.97611e-20 -0 7.63519e-06 -0 7.63519e-06)
(7.63506e-06 7.25717e-20 -0 7.63506e-06 -0 7.63506e-06)
(7.63497e-06 1.21798e-19 -0 7.63497e-06 -0 7.63497e-06)
(7.63489e-06 9.8172e-20 -0 7.63489e-06 -0 7.63489e-06)
(7.63485e-06 1.09721e-19 -0 7.63485e-06 -0 7.63485e-06)
(7.63482e-06 1.85352e-20 -0 7.63482e-06 -0 7.63482e-06)
(7.6348e-06 2.51204e-20 -0 7.6348e-06 -0 7.6348e-06)
(7.66444e-06 3.84911e-19 -0 7.66444e-06 -0 7.66444e-06)
(7.66444e-06 -1.58406e-18 -0 7.66444e-06 -0 7.66444e-06)
(7.66371e-06 -2.555e-19 -0 7.66371e-06 -0 7.66371e-06)
(7.66349e-06 -4.91283e-19 -0 7.66349e-06 -0 7.66349e-06)
(7.66298e-06 -2.3806e-19 -0 7.66298e-06 -0 7.66298e-06)
(7.66277e-06 -3.58639e-19 -0 7.66277e-06 -0 7.66277e-06)
(7.66235e-06 -2.39795e-19 -0 7.66235e-06 -0 7.66235e-06)
(7.66215e-06 -2.71238e-19 -0 7.66215e-06 -0 7.66215e-06)
(7.66179e-06 -2.36178e-19 -0 7.66179e-06 -0 7.66179e-06)
(7.66165e-06 -2.16763e-19 -0 7.66165e-06 -0 7.66165e-06)
(7.66132e-06 -1.28473e-19 -0 7.66132e-06 -0 7.66132e-06)
(7.66124e-06 -2.38251e-20 -0 7.66124e-06 -0 7.66124e-06)
(7.66097e-06 4.94365e-20 -0 7.66097e-06 -0 7.66097e-06)
(7.66092e-06 -4.93558e-20 -0 7.66092e-06 -0 7.66092e-06)
(7.66072e-06 1.2607e-19 -0 7.66072e-06 -0 7.66072e-06)
(7.66068e-06 3.32371e-20 -0 7.66068e-06 -0 7.66068e-06)
(7.66056e-06 1.51996e-19 -0 7.66056e-06 -0 7.66056e-06)
(7.66054e-06 -1.00433e-19 -0 7.66054e-06 -0 7.66054e-06)
(7.6605e-06 1.60259e-20 -0 7.6605e-06 -0 7.6605e-06)
(7.66049e-06 -2.77652e-20 -0 7.66049e-06 -0 7.66049e-06)
(7.69262e-06 9.25161e-18 -0 7.69262e-06 -0 7.69262e-06)
(7.69259e-06 -1.16155e-17 -0 7.69259e-06 -0 7.69259e-06)
(7.69194e-06 2.27185e-18 -0 7.69194e-06 -0 7.69194e-06)
(7.69164e-06 -5.28843e-19 -0 7.69164e-06 -0 7.69164e-06)
(7.69119e-06 5.14058e-20 -0 7.69119e-06 -0 7.69119e-06)
(7.69093e-06 -8.60263e-20 -0 7.69093e-06 -0 7.69093e-06)
(7.69052e-06 6.08235e-20 -0 7.69052e-06 -0 7.69052e-06)
(7.69031e-06 6.70114e-20 -0 7.69031e-06 -0 7.69031e-06)
(7.68997e-06 1.56564e-19 -0 7.68997e-06 -0 7.68997e-06)
(7.68978e-06 1.43616e-19 -0 7.68978e-06 -0 7.68978e-06)
(7.68953e-06 -1.68964e-20 -0 7.68953e-06 -0 7.68953e-06)
(7.68935e-06 1.90921e-20 -0 7.68935e-06 -0 7.68935e-06)
(7.68917e-06 -7.20876e-20 -0 7.68917e-06 -0 7.68917e-06)
(7.68904e-06 6.36193e-21 -0 7.68904e-06 -0 7.68904e-06)
(7.68891e-06 -1.09452e-19 -0 7.68891e-06 -0 7.68891e-06)
(7.68882e-06 -9.50632e-20 -0 7.68882e-06 -0 7.68882e-06)
(7.68874e-06 -9.59419e-20 -0 7.68874e-06 -0 7.68874e-06)
(7.68869e-06 -8.7249e-20 -0 7.68869e-06 -0 7.68869e-06)
(7.68866e-06 -8.55684e-20 -0 7.68866e-06 -0 7.68866e-06)
(7.68865e-06 -1.08458e-19 -0 7.68865e-06 -0 7.68865e-06)
(7.72414e-06 -1.76272e-17 -0 7.72414e-06 -0 7.72414e-06)
(7.72411e-06 2.0528e-17 -0 7.72411e-06 -0 7.72411e-06)
(7.72346e-06 -3.92905e-18 -0 7.72346e-06 -0 7.72346e-06)
(7.72314e-06 1.14068e-18 -0 7.72314e-06 -0 7.72314e-06)
(7.72271e-06 -1.12369e-19 -0 7.72271e-06 -0 7.72271e-06)
(7.72242e-06 3.16788e-19 -0 7.72242e-06 -0 7.72242e-06)
(7.72205e-06 1.91213e-19 -0 7.72205e-06 -0 7.72205e-06)
(7.72179e-06 1.89249e-19 -0 7.72179e-06 -0 7.72179e-06)
(7.7215e-06 2.77304e-20 -0 7.7215e-06 -0 7.7215e-06)
(7.72127e-06 1.27707e-19 -0 7.72127e-06 -0 7.72127e-06)
(7.72102e-06 9.45912e-20 -0 7.72102e-06 -0 7.72102e-06)
(7.72085e-06 7.79594e-20 -0 7.72085e-06 -0 7.72085e-06)
(7.72066e-06 9.50001e-20 -0 7.72066e-06 -0 7.72066e-06)
(7.72053e-06 3.69069e-20 -0 7.72053e-06 -0 7.72053e-06)
(7.7204e-06 1.32606e-19 -0 7.7204e-06 -0 7.7204e-06)
(7.72031e-06 8.38845e-21 -0 7.72031e-06 -0 7.72031e-06)
(7.72023e-06 -5.53864e-20 -0 7.72023e-06 -0 7.72023e-06)
(7.72018e-06 8.03613e-20 -0 7.72018e-06 -0 7.72018e-06)
(7.72015e-06 9.6801e-20 -0 7.72015e-06 -0 7.72015e-06)
(7.72014e-06 4.7333e-20 -0 7.72014e-06 -0 7.72014e-06)
(7.75925e-06 1.16781e-17 -0 7.75925e-06 -0 7.75925e-06)
(7.75927e-06 -1.34524e-17 -0 7.75927e-06 -0 7.75927e-06)
(7.75851e-06 2.6038e-18 -0 7.75851e-06 -0 7.75851e-06)
(7.75828e-06 -6.34238e-19 -0 7.75828e-06 -0 7.75828e-06)
(7.75776e-06 1.32247e-19 -0 7.75776e-06 -0 7.75776e-06)
(7.75755e-06 -1.94655e-20 -0 7.75755e-06 -0 7.75755e-06)
(7.75708e-06 -1.09646e-19 -0 7.75708e-06 -0 7.75708e-06)
(7.75693e-06 -1.16553e-19 -0 7.75693e-06 -0 7.75693e-06)
(7.75652e-06 -1.18716e-19 -0 7.75652e-06 -0 7.75652e-06)
(7.7564e-06 -1.57279e-19 -0 7.7564e-06 -0 7.7564e-06)
(7.75607e-06 -5.30633e-21 -0 7.75607e-06 -0 7.75607e-06)
(7.75597e-06 4.84949e-21 -0 7.75597e-06 -0 7.75597e-06)
(7.75571e-06 4.6617e-20 -0 7.75571e-06 -0 7.75571e-06)
(7.75564e-06 1.39832e-19 -0 7.75564e-06 -0 7.75564e-06)
(7.75545e-06 2.10508e-20 -0 7.75545e-06 -0 7.75545e-06)
(7.75541e-06 8.03881e-20 -0 7.75541e-06 -0 7.75541e-06)
(7.75528e-06 -1.52967e-20 -0 7.75528e-06 -0 7.75528e-06)
(7.75526e-06 3.05059e-22 -0 7.75526e-06 -0 7.75526e-06)
(7.75522e-06 -5.50884e-21 -0 7.75522e-06 -0 7.75522e-06)
(7.75521e-06 -5.81914e-20 -0 7.75521e-06 -0 7.75521e-06)
(7.79693e-06 8.16865e-18 -0 7.79693e-06 -0 7.79693e-06)
(7.7969e-06 -5.45515e-18 -0 7.7969e-06 -0 7.7969e-06)
(7.79623e-06 1.44957e-18 -0 7.79623e-06 -0 7.79623e-06)
(7.79591e-06 -2.05097e-19 -0 7.79591e-06 -0 7.79591e-06)
(7.79545e-06 7.10543e-20 -0 7.79545e-06 -0 7.79545e-06)
(7.79518e-06 -7.30597e-20 -0 7.79518e-06 -0 7.79518e-06)
(7.79478e-06 -3.46893e-21 -0 7.79478e-06 -0 7.79478e-06)
(7.79454e-06 -7.96451e-20 -0 7.79454e-06 -0 7.79454e-06)
(7.79422e-06 -5.44917e-20 -0 7.79422e-06 -0 7.79422e-06)
(7.79401e-06 -1.25661e-19 -0 7.79401e-06 -0 7.79401e-06)
(7.79376e-06 -1.69334e-19 -0 7.79376e-06 -0 7.79376e-06)
(7.79358e-06 -1.58018e-19 -0 7.79358e-06 -0 7.79358e-06)
(7.79339e-06 -1.291e-19 -0 7.79339e-06 -0 7.79339e-06)
(7.79325e-06 -1.24968e-19 -0 7.79325e-06 -0 7.79325e-06)
(7.79312e-06 -9.77996e-20 -0 7.79312e-06 -0 7.79312e-06)
(7.79302e-06 -1.54965e-19 -0 7.79302e-06 -0 7.79302e-06)
(7.79294e-06 -1.08805e-20 -0 7.79294e-06 -0 7.79294e-06)
(7.79289e-06 -5.44024e-21 -0 7.79289e-06 -0 7.79289e-06)
(7.79286e-06 1.6205e-20 -0 7.79286e-06 -0 7.79286e-06)
(7.79285e-06 -2.76714e-21 -0 7.79285e-06 -0 7.79285e-06)
(7.83398e-06 -2.12715e-17 -0 7.83398e-06 -0 7.83398e-06)
(7.83396e-06 1.8331e-17 -0 7.83396e-06 -0 7.83396e-06)
(7.83326e-06 -3.80416e-18 -0 7.83326e-06 -0 7.83326e-06)
(7.83298e-06 8.54047e-19 -0 7.83298e-06 -0 7.83298e-06)
(7.83246e-06 -2.39653e-19 -0 7.83246e-06 -0 7.83246e-06)
(7.83224e-06 -4.62688e-20 -0 7.83224e-06 -0 7.83224e-06)
(7.83177e-06 -3.10573e-20 -0 7.83177e-06 -0 7.83177e-06)
(7.83161e-06 7.58048e-21 -0 7.83161e-06 -0 7.83161e-06)
(7.83121e-06 1.63023e-20 -0 7.83121e-06 -0 7.83121e-06)
(7.83107e-06 5.33878e-20 -0 7.83107e-06 -0 7.83107e-06)
(7.83073e-06 -4.47249e-20 -0 7.83073e-06 -0 7.83073e-06)
(7.83064e-06 -1.06669e-20 -0 7.83064e-06 -0 7.83064e-06)
(7.83036e-06 -4.76698e-20 -0 7.83036e-06 -0 7.83036e-06)
(7.8303e-06 -2.58665e-21 -0 7.8303e-06 -0 7.8303e-06)
(7.8301e-06 -5.77746e-20 -0 7.8301e-06 -0 7.8301e-06)
(7.83006e-06 -6.30308e-20 -0 7.83006e-06 -0 7.83006e-06)
(7.82993e-06 -4.74923e-20 -0 7.82993e-06 -0 7.82993e-06)
(7.82992e-06 1.14575e-19 -0 7.82992e-06 -0 7.82992e-06)
(7.82987e-06 -1.69184e-20 -0 7.82987e-06 -0 7.82987e-06)
(7.82986e-06 8.01678e-20 -0 7.82986e-06 -0 7.82986e-06)
(7.8646e-06 4.53476e-18 -0 7.8646e-06 -0 7.8646e-06)
(7.86459e-06 -5.46133e-18 -0 7.86459e-06 -0 7.86459e-06)
(7.86392e-06 4.709e-19 -0 7.86392e-06 -0 7.86392e-06)
(7.86363e-06 -5.26599e-19 -0 7.86363e-06 -0 7.86363e-06)
(7.86315e-06 -1.75815e-19 -0 7.86315e-06 -0 7.86315e-06)
(7.86289e-06 -1.31382e-19 -0 7.86289e-06 -0 7.86289e-06)
(7.8625e-06 -1.99385e-19 -0 7.8625e-06 -0 7.8625e-06)
(7.86228e-06 -9.94523e-20 -0 7.86228e-06 -0 7.86228e-06)
(7.86194e-06 -7.9208e-20 -0 7.86194e-06 -0 7.86194e-06)
(7.86174e-06 -9.5216e-20 -0 7.86174e-06 -0 7.86174e-06)
(7.86148e-06 -4.0041e-20 -0 7.86148e-06 -0 7.86148e-06)
(7.86131e-06 -5.08052e-20 -0 7.86131e-06 -0 7.86131e-06)
(7.86111e-06 -1.00584e-20 -0 7.86111e-06 -0 7.86111e-06)
(7.86098e-06 2.89766e-20 -0 7.86098e-06 -0 7.86098e-06)
(7.86084e-06 7.56134e-20 -0 7.86084e-06 -0 7.86084e-06)
(7.86075e-06 -4.73511e-20 -0 7.86075e-06 -0 7.86075e-06)
(7.86067e-06 -1.43846e-20 -0 7.86067e-06 -0 7.86067e-06)
(7.86062e-06 -1.3866e-19 -0 7.86062e-06 -0 7.86062e-06)
(7.86059e-06 -7.40728e-20 -0 7.86059e-06 -0 7.86059e-06)
(7.86057e-06 -6.83814e-20 -0 7.86057e-06 -0 7.86057e-06)
(7.87833e-06 1.5264e-17 -0 7.87833e-06 -0 7.87833e-06)
(7.87832e-06 -1.53824e-17 -0 7.87832e-06 -0 7.87832e-06)
(7.87831e-06 3.55628e-18 -0 7.87831e-06 -0 7.87831e-06)
(7.87831e-06 -6.3526e-19 -0 7.87831e-06 -0 7.87831e-06)
(7.8783e-06 3.35232e-19 -0 7.8783e-06 -0 7.8783e-06)
(7.87829e-06 1.00897e-19 -0 7.87829e-06 -0 7.87829e-06)
(7.87829e-06 2.11639e-19 -0 7.87829e-06 -0 7.87829e-06)
(7.87829e-06 1.12881e-19 -0 7.87829e-06 -0 7.87829e-06)
(7.87828e-06 1.28894e-19 -0 7.87828e-06 -0 7.87828e-06)
(7.87828e-06 1.31324e-19 -0 7.87828e-06 -0 7.87828e-06)
(7.87827e-06 1.31648e-19 -0 7.87827e-06 -0 7.87827e-06)
(7.87827e-06 7.99438e-20 -0 7.87827e-06 -0 7.87827e-06)
(7.87827e-06 5.01179e-20 -0 7.87827e-06 -0 7.87827e-06)
(7.87827e-06 2.18676e-21 -0 7.87827e-06 -0 7.87827e-06)
(7.87827e-06 -4.72853e-20 -0 7.87827e-06 -0 7.87827e-06)
(7.87827e-06 1.04208e-19 -0 7.87827e-06 -0 7.87827e-06)
(7.87827e-06 7.94838e-20 -0 7.87827e-06 -0 7.87827e-06)
(7.87827e-06 2.20139e-20 -0 7.87827e-06 -0 7.87827e-06)
(7.87827e-06 4.99097e-20 -0 7.87827e-06 -0 7.87827e-06)
(7.87827e-06 2.81583e-20 -0 7.87827e-06 -0 7.87827e-06)
)
;

boundaryField
{
    movingWall
    {
        type            kqRWallFunction;
        value           nonuniform List<symmTensor> 
20
(
(7.87833e-06 0 -0 7.87833e-06 -0 7.87833e-06)
(7.87832e-06 -0 -0 7.87832e-06 -0 7.87832e-06)
(7.87831e-06 0 -0 7.87831e-06 -0 7.87831e-06)
(7.87831e-06 -0 -0 7.87831e-06 -0 7.87831e-06)
(7.8783e-06 0 -0 7.8783e-06 -0 7.8783e-06)
(7.87829e-06 0 -0 7.87829e-06 -0 7.87829e-06)
(7.87829e-06 0 -0 7.87829e-06 -0 7.87829e-06)
(7.87829e-06 0 -0 7.87829e-06 -0 7.87829e-06)
(7.87828e-06 0 -0 7.87828e-06 -0 7.87828e-06)
(7.87828e-06 0 -0 7.87828e-06 -0 7.87828e-06)
(7.87827e-06 0 -0 7.87827e-06 -0 7.87827e-06)
(7.87827e-06 0 -0 7.87827e-06 -0 7.87827e-06)
(7.87827e-06 0 -0 7.87827e-06 -0 7.87827e-06)
(7.87827e-06 0 -0 7.87827e-06 -0 7.87827e-06)
(7.87827e-06 -0 -0 7.87827e-06 -0 7.87827e-06)
(7.87827e-06 0 -0 7.87827e-06 -0 7.87827e-06)
(7.87827e-06 0 -0 7.87827e-06 -0 7.87827e-06)
(7.87827e-06 0 -0 7.87827e-06 -0 7.87827e-06)
(7.87827e-06 0 -0 7.87827e-06 -0 7.87827e-06)
(7.87827e-06 0 -0 7.87827e-06 -0 7.87827e-06)
)
;
    }
    fixedWalls
    {
        type            kqRWallFunction;
        value           nonuniform List<symmTensor> 
60
(
(5.7984e-06 -0 -0 5.7984e-06 -0 5.7984e-06)
(6.09288e-06 -0 -0 6.09288e-06 -0 6.09288e-06)
(6.51028e-06 0 -0 6.51028e-06 -0 6.51028e-06)
(6.89096e-06 -0 -0 6.89096e-06 -0 6.89096e-06)
(7.16826e-06 0 -0 7.16826e-06 -0 7.16826e-06)
(7.34603e-06 0 -0 7.34603e-06 -0 7.34603e-06)
(7.45306e-06 -0 -0 7.45306e-06 -0 7.45306e-06)
(7.51735e-06 0 -0 7.51735e-06 -0 7.51735e-06)
(7.55859e-06 0 -0 7.55859e-06 -0 7.55859e-06)
(7.58864e-06 -0 -0 7.58864e-06 -0 7.58864e-06)
(7.61415e-06 0 -0 7.61415e-06 -0 7.61415e-06)
(7.63871e-06 -0 -0 7.63871e-06 -0 7.63871e-06)
(7.66444e-06 0 -0 7.66444e-06 -0 7.66444e-06)
(7.69262e-06 0 -0 7.69262e-06 -0 7.69262e-06)
(7.72414e-06 -0 -0 7.72414e-06 -0 7.72414e-06)
(7.75925e-06 0 -0 7.75925e-06 -0 7.75925e-06)
(7.79693e-06 0 -0 7.79693e-06 -0 7.79693e-06)
(7.83398e-06 -0 -0 7.83398e-06 -0 7.83398e-06)
(7.8646e-06 0 -0 7.8646e-06 -0 7.8646e-06)
(7.87833e-06 0 -0 7.87833e-06 -0 7.87833e-06)
(5.79835e-06 0 -0 5.79835e-06 -0 5.79835e-06)
(6.09045e-06 -0 -0 6.09045e-06 -0 6.09045e-06)
(6.50746e-06 -0 -0 6.50746e-06 -0 6.50746e-06)
(6.8878e-06 -0 -0 6.8878e-06 -0 6.8878e-06)
(7.16483e-06 0 -0 7.16483e-06 -0 7.16483e-06)
(7.34243e-06 -0 -0 7.34243e-06 -0 7.34243e-06)
(7.44934e-06 -0 -0 7.44934e-06 -0 7.44934e-06)
(7.51356e-06 0 -0 7.51356e-06 -0 7.51356e-06)
(7.55476e-06 -0 -0 7.55476e-06 -0 7.55476e-06)
(7.58479e-06 0 -0 7.58479e-06 -0 7.58479e-06)
(7.61026e-06 -0 -0 7.61026e-06 -0 7.61026e-06)
(7.6348e-06 -0 -0 7.6348e-06 -0 7.6348e-06)
(7.66049e-06 -0 -0 7.66049e-06 -0 7.66049e-06)
(7.68865e-06 -0 -0 7.68865e-06 -0 7.68865e-06)
(7.72014e-06 0 -0 7.72014e-06 -0 7.72014e-06)
(7.75521e-06 -0 -0 7.75521e-06 -0 7.75521e-06)
(7.79285e-06 -0 -0 7.79285e-06 -0 7.79285e-06)
(7.82986e-06 0 -0 7.82986e-06 -0 7.82986e-06)
(7.86057e-06 -0 -0 7.86057e-06 -0 7.86057e-06)
(7.87827e-06 0 -0 7.87827e-06 -0 7.87827e-06)
(5.7984e-06 -0 -0 5.7984e-06 -0 5.7984e-06)
(5.79839e-06 0 -0 5.79839e-06 -0 5.79839e-06)
(5.79839e-06 -0 -0 5.79839e-06 -0 5.79839e-06)
(5.79838e-06 0 -0 5.79838e-06 -0 5.79838e-06)
(5.79838e-06 -0 -0 5.79838e-06 -0 5.79838e-06)
(5.79837e-06 -0 -0 5.79837e-06 -0 5.79837e-06)
(5.79837e-06 -0 -0 5.79837e-06 -0 5.79837e-06)
(5.79837e-06 -0 -0 5.79837e-06 -0 5.79837e-06)
(5.79836e-06 -0 -0 5.79836e-06 -0 5.79836e-06)
(5.79836e-06 -0 -0 5.79836e-06 -0 5.79836e-06)
(5.79836e-06 -0 -0 5.79836e-06 -0 5.79836e-06)
(5.79836e-06 -0 -0 5.79836e-06 -0 5.79836e-06)
(5.79836e-06 -0 -0 5.79836e-06 -0 5.79836e-06)
(5.79835e-06 -0 -0 5.79835e-06 -0 5.79835e-06)
(5.79835e-06 0 -0 5.79835e-06 -0 5.79835e-06)
(5.79835e-06 0 -0 5.79835e-06 -0 5.79835e-06)
(5.79835e-06 -0 -0 5.79835e-06 -0 5.79835e-06)
(5.79835e-06 -0 -0 5.79835e-06 -0 5.79835e-06)
(5.79835e-06 0 -0 5.79835e-06 -0 5.79835e-06)
(5.79835e-06 0 -0 5.79835e-06 -0 5.79835e-06)
)
;
    }
    frontAndBack
    {
        type            empty;
    }
}


// ************************************************************************* //
