/*--------------------------------*- C++ -*----------------------------------*\
| =========                 |                                                 |
| \\      /  F ield         | OpenFOAM: The Open Source CFD Toolbox           |
|  \\    /   O peration     | Version:  2312                                  |
|   \\  /    A nd           | Website:  www.openfoam.com                      |
|    \\/     M anipulation  |                                                 |
\*---------------------------------------------------------------------------*/
FoamFile
{
    version     2.0;
    format      ascii;
    arch        "LSB;label=32;scalar=64";
    class       volScalarField;
    location    "6";
    object      turbulenceProperties:k;
}
// * * * * * * * * * * * * * * * * * * * * * * * * * * * * * * * * * * * * * //

dimensions      [0 2 -2 0 0 0 0];

internalField   nonuniform List<scalar> 
400
(
8.6976e-06
8.69759e-06
8.69758e-06
8.69757e-06
8.69756e-06
8.69756e-06
8.69755e-06
8.69755e-06
8.69755e-06
8.69754e-06
8.69754e-06
8.69754e-06
8.69754e-06
8.69753e-06
8.69753e-06
8.69753e-06
8.69753e-06
8.69753e-06
8.69753e-06
8.69753e-06
9.13932e-06
9.13932e-06
9.1387e-06
9.13846e-06
9.13799e-06
9.1378e-06
9.13737e-06
9.13725e-06
9.13687e-06
9.13677e-06
9.13645e-06
9.13638e-06
9.13612e-06
9.13608e-06
9.13589e-06
9.13586e-06
9.13574e-06
9.13573e-06
9.13569e-06
9.13568e-06
9.76541e-06
9.76539e-06
9.7647e-06
9.76438e-06
9.7639e-06
9.76362e-06
9.7632e-06
9.76297e-06
9.76261e-06
9.76241e-06
9.76213e-06
9.76196e-06
9.76175e-06
9.76162e-06
9.76147e-06
9.76138e-06
9.76129e-06
9.76124e-06
9.76121e-06
9.7612e-06
1.03364e-05
1.03364e-05
1.03356e-05
1.03353e-05
1.03347e-05
1.03344e-05
1.03339e-05
1.03337e-05
1.03333e-05
1.03331e-05
1.03327e-05
1.03326e-05
1.03323e-05
1.03322e-05
1.0332e-05
1.03319e-05
1.03318e-05
1.03318e-05
1.03317e-05
1.03317e-05
1.07524e-05
1.07524e-05
1.07515e-05
1.07511e-05
1.07505e-05
1.07502e-05
1.07496e-05
1.07494e-05
1.07489e-05
1.07488e-05
1.07483e-05
1.07482e-05
1.07479e-05
1.07478e-05
1.07475e-05
1.07475e-05
1.07473e-05
1.07473e-05
1.07473e-05
1.07473e-05
1.1019e-05
1.1019e-05
1.10181e-05
1.10177e-05
1.10171e-05
1.10167e-05
1.10162e-05
1.10159e-05
1.10155e-05
1.10152e-05
1.10148e-05
1.10146e-05
1.10144e-05
1.10142e-05
1.1014e-05
1.10139e-05
1.10138e-05
1.10137e-05
1.10137e-05
1.10136e-05
1.11796e-05
1.11796e-05
1.11786e-05
1.11782e-05
1.11775e-05
1.11772e-05
1.11766e-05
1.11764e-05
1.11758e-05
1.11756e-05
1.11752e-05
1.11751e-05
1.11747e-05
1.11746e-05
1.11743e-05
1.11743e-05
1.11741e-05
1.11741e-05
1.1174e-05
1.1174e-05
1.1276e-05
1.1276e-05
1.12751e-05
1.12746e-05
1.1274e-05
1.12736e-05
1.1273e-05
1.12727e-05
1.12722e-05
1.1272e-05
1.12716e-05
1.12714e-05
1.12711e-05
1.12709e-05
1.12707e-05
1.12706e-05
1.12705e-05
1.12704e-05
1.12704e-05
1.12703e-05
1.13379e-05
1.13379e-05
1.13369e-05
1.13365e-05
1.13358e-05
1.13354e-05
1.13349e-05
1.13345e-05
1.13341e-05
1.13337e-05
1.13334e-05
1.13331e-05
1.13329e-05
1.13327e-05
1.13325e-05
1.13324e-05
1.13323e-05
1.13322e-05
1.13322e-05
1.13321e-05
1.1383e-05
1.13829e-05
1.1382e-05
1.13815e-05
1.13809e-05
1.13805e-05
1.13799e-05
1.13796e-05
1.13791e-05
1.13788e-05
1.13785e-05
1.13782e-05
1.13779e-05
1.13778e-05
1.13776e-05
1.13774e-05
1.13773e-05
1.13772e-05
1.13772e-05
1.13772e-05
1.14212e-05
1.14212e-05
1.14202e-05
1.14198e-05
1.14191e-05
1.14187e-05
1.14181e-05
1.14178e-05
1.14173e-05
1.1417e-05
1.14167e-05
1.14164e-05
1.14162e-05
1.1416e-05
1.14158e-05
1.14156e-05
1.14155e-05
1.14155e-05
1.14154e-05
1.14154e-05
1.14581e-05
1.1458e-05
1.14571e-05
1.14566e-05
1.14559e-05
1.14556e-05
1.1455e-05
1.14546e-05
1.14542e-05
1.14539e-05
1.14535e-05
1.14533e-05
1.1453e-05
1.14528e-05
1.14526e-05
1.14525e-05
1.14523e-05
1.14523e-05
1.14522e-05
1.14522e-05
1.14967e-05
1.14967e-05
1.14956e-05
1.14952e-05
1.14945e-05
1.14942e-05
1.14935e-05
1.14932e-05
1.14927e-05
1.14925e-05
1.1492e-05
1.14919e-05
1.14915e-05
1.14914e-05
1.14911e-05
1.1491e-05
1.14908e-05
1.14908e-05
1.14908e-05
1.14907e-05
1.15389e-05
1.15389e-05
1.15379e-05
1.15375e-05
1.15368e-05
1.15364e-05
1.15358e-05
1.15355e-05
1.1535e-05
1.15347e-05
1.15343e-05
1.1534e-05
1.15338e-05
1.15336e-05
1.15334e-05
1.15332e-05
1.15331e-05
1.1533e-05
1.1533e-05
1.1533e-05
1.15862e-05
1.15862e-05
1.15852e-05
1.15847e-05
1.15841e-05
1.15836e-05
1.15831e-05
1.15827e-05
1.15822e-05
1.15819e-05
1.15815e-05
1.15813e-05
1.1581e-05
1.15808e-05
1.15806e-05
1.15805e-05
1.15803e-05
1.15803e-05
1.15802e-05
1.15802e-05
1.16389e-05
1.16389e-05
1.16378e-05
1.16374e-05
1.16366e-05
1.16363e-05
1.16356e-05
1.16354e-05
1.16348e-05
1.16346e-05
1.16341e-05
1.1634e-05
1.16336e-05
1.16335e-05
1.16332e-05
1.16331e-05
1.16329e-05
1.16329e-05
1.16328e-05
1.16328e-05
1.16954e-05
1.16953e-05
1.16943e-05
1.16939e-05
1.16932e-05
1.16928e-05
1.16922e-05
1.16918e-05
1.16913e-05
1.1691e-05
1.16906e-05
1.16904e-05
1.16901e-05
1.16899e-05
1.16897e-05
1.16895e-05
1.16894e-05
1.16893e-05
1.16893e-05
1.16893e-05
1.1751e-05
1.17509e-05
1.17499e-05
1.17495e-05
1.17487e-05
1.17484e-05
1.17477e-05
1.17474e-05
1.17468e-05
1.17466e-05
1.17461e-05
1.1746e-05
1.17455e-05
1.17455e-05
1.17451e-05
1.17451e-05
1.17449e-05
1.17449e-05
1.17448e-05
1.17448e-05
1.17969e-05
1.17969e-05
1.17959e-05
1.17954e-05
1.17947e-05
1.17943e-05
1.17937e-05
1.17934e-05
1.17929e-05
1.17926e-05
1.17922e-05
1.1792e-05
1.17917e-05
1.17915e-05
1.17913e-05
1.17911e-05
1.1791e-05
1.17909e-05
1.17909e-05
1.17909e-05
1.18175e-05
1.18175e-05
1.18175e-05
1.18175e-05
1.18175e-05
1.18174e-05
1.18174e-05
1.18174e-05
1.18174e-05
1.18174e-05
1.18174e-05
1.18174e-05
1.18174e-05
1.18174e-05
1.18174e-05
1.18174e-05
1.18174e-05
1.18174e-05
1.18174e-05
1.18174e-05
)
;

boundaryField
{
    movingWall
    {
        type            kqRWallFunction;
        value           nonuniform List<scalar> 
20
(
1.18175e-05
1.18175e-05
1.18175e-05
1.18175e-05
1.18175e-05
1.18174e-05
1.18174e-05
1.18174e-05
1.18174e-05
1.18174e-05
1.18174e-05
1.18174e-05
1.18174e-05
1.18174e-05
1.18174e-05
1.18174e-05
1.18174e-05
1.18174e-05
1.18174e-05
1.18174e-05
)
;
    }
    fixedWalls
    {
        type            kqRWallFunction;
        value           nonuniform List<scalar> 
60
(
8.6976e-06
9.13932e-06
9.76541e-06
1.03364e-05
1.07524e-05
1.1019e-05
1.11796e-05
1.1276e-05
1.13379e-05
1.1383e-05
1.14212e-05
1.14581e-05
1.14967e-05
1.15389e-05
1.15862e-05
1.16389e-05
1.16954e-05
1.1751e-05
1.17969e-05
1.18175e-05
8.69753e-06
9.13568e-06
9.7612e-06
1.03317e-05
1.07473e-05
1.10136e-05
1.1174e-05
1.12703e-05
1.13321e-05
1.13772e-05
1.14154e-05
1.14522e-05
1.14907e-05
1.1533e-05
1.15802e-05
1.16328e-05
1.16893e-05
1.17448e-05
1.17909e-05
1.18174e-05
8.6976e-06
8.69759e-06
8.69758e-06
8.69757e-06
8.69756e-06
8.69756e-06
8.69755e-06
8.69755e-06
8.69755e-06
8.69754e-06
8.69754e-06
8.69754e-06
8.69754e-06
8.69753e-06
8.69753e-06
8.69753e-06
8.69753e-06
8.69753e-06
8.69753e-06
8.69753e-06
)
;
    }
    frontAndBack
    {
        type            empty;
    }
}


// ************************************************************************* //
