/*--------------------------------*- C++ -*----------------------------------*\
| =========                 |                                                 |
| \\      /  F ield         | OpenFOAM: The Open Source CFD Toolbox           |
|  \\    /   O peration     | Version:  2312                                  |
|   \\  /    A nd           | Website:  www.openfoam.com                      |
|    \\/     M anipulation  |                                                 |
\*---------------------------------------------------------------------------*/
FoamFile
{
    version     2.0;
    format      ascii;
    arch        "LSB;label=32;scalar=64";
    class       volScalarField;
    location    "6";
    object      turbulenceProperties:L;
}
// * * * * * * * * * * * * * * * * * * * * * * * * * * * * * * * * * * * * * //

dimensions      [0 1 0 0 0 0 0];

internalField   nonuniform List<scalar> 
400
(
0.00102155
0.00102155
0.00102155
0.00102155
0.00102155
0.00102155
0.00102155
0.00102155
0.00102155
0.00102155
0.00102155
0.00102155
0.00102155
0.00102155
0.00102155
0.00102155
0.00102155
0.00102155
0.00102155
0.00102155
0.00102135
0.00104002
0.00103835
0.00103766
0.00103628
0.00103558
0.00103422
0.00103351
0.00103215
0.00103142
0.00103007
0.00102934
0.00102799
0.00102725
0.00102591
0.00102516
0.00102383
0.00102306
0.0010224
0.00102136
0.00102113
0.00104074
0.00103896
0.00103822
0.00103676
0.00103601
0.00103457
0.00103381
0.00103239
0.00103162
0.0010302
0.00102943
0.00102803
0.00102725
0.00102586
0.00102508
0.00102369
0.00102291
0.00102221
0.00102114
0.00102099
0.0010412
0.00103936
0.0010386
0.00103709
0.00103633
0.00103483
0.00103406
0.00103258
0.0010318
0.00103033
0.00102955
0.00102809
0.0010273
0.00102585
0.00102506
0.00102362
0.00102282
0.0010221
0.00102099
0.00102092
0.00104158
0.0010397
0.00103892
0.00103738
0.0010366
0.00103507
0.00103428
0.00103276
0.00103197
0.00103046
0.00102967
0.00102817
0.00102737
0.00102588
0.00102507
0.0010236
0.00102278
0.00102205
0.00102092
0.00102088
0.00104183
0.00103993
0.00103914
0.00103758
0.00103678
0.00103524
0.00103442
0.0010329
0.00103208
0.00103057
0.00102975
0.00102824
0.00102742
0.00102592
0.00102509
0.00102361
0.00102277
0.00102203
0.00102088
0.00102087
0.00104199
0.00104007
0.00103927
0.00103769
0.0010369
0.00103533
0.00103453
0.00103298
0.00103216
0.00103063
0.00102981
0.00102828
0.00102746
0.00102595
0.00102511
0.00102362
0.00102277
0.00102203
0.00102087
0.00102086
0.00104208
0.00104016
0.00103935
0.00103778
0.00103696
0.00103541
0.00103457
0.00103304
0.0010322
0.00103067
0.00102983
0.00102831
0.00102748
0.00102597
0.00102512
0.00102362
0.00102277
0.00102203
0.00102086
0.00102085
0.00104214
0.00104021
0.0010394
0.00103782
0.001037
0.00103545
0.0010346
0.00103308
0.00103222
0.0010307
0.00102985
0.00102833
0.00102749
0.00102598
0.00102513
0.00102363
0.00102277
0.00102202
0.00102085
0.00102085
0.00104218
0.00104025
0.00103944
0.00103785
0.00103703
0.00103547
0.00103464
0.00103309
0.00103225
0.00103071
0.00102987
0.00102834
0.0010275
0.00102598
0.00102513
0.00102363
0.00102277
0.00102202
0.00102085
0.00102084
0.00104221
0.00104028
0.00103946
0.00103787
0.00103705
0.00103549
0.00103465
0.0010331
0.00103226
0.00103073
0.00102988
0.00102835
0.0010275
0.00102599
0.00102513
0.00102363
0.00102277
0.00102202
0.00102084
0.00102083
0.00104224
0.0010403
0.00103949
0.0010379
0.00103707
0.00103551
0.00103467
0.00103312
0.00103228
0.00103074
0.00102989
0.00102836
0.00102751
0.00102599
0.00102514
0.00102363
0.00102277
0.00102201
0.00102084
0.00102083
0.00104228
0.00104032
0.00103952
0.00103792
0.0010371
0.00103552
0.00103469
0.00103313
0.0010323
0.00103074
0.00102991
0.00102836
0.00102752
0.00102598
0.00102514
0.00102362
0.00102277
0.00102201
0.00102083
0.00102082
0.00104231
0.00104036
0.00103954
0.00103795
0.00103712
0.00103554
0.00103471
0.00103315
0.0010323
0.00103076
0.00102991
0.00102837
0.00102752
0.00102599
0.00102514
0.00102362
0.00102276
0.001022
0.00102082
0.00102081
0.00104234
0.00104039
0.00103957
0.00103798
0.00103715
0.00103557
0.00103473
0.00103317
0.00103232
0.00103077
0.00102992
0.00102838
0.00102753
0.001026
0.00102514
0.00102362
0.00102276
0.001022
0.00102082
0.00102081
0.00104239
0.00104042
0.00103961
0.001038
0.00103718
0.00103558
0.00103476
0.00103318
0.00103234
0.00103078
0.00102994
0.00102838
0.00102754
0.00102599
0.00102514
0.00102361
0.00102275
0.00102199
0.00102081
0.00102079
0.00104242
0.00104046
0.00103964
0.00103803
0.0010372
0.00103562
0.00103477
0.0010332
0.00103235
0.0010308
0.00102994
0.00102839
0.00102754
0.001026
0.00102514
0.00102361
0.00102274
0.00102198
0.00102079
0.00102078
0.00104246
0.00104049
0.00103967
0.00103805
0.00103723
0.00103563
0.0010348
0.00103321
0.00103237
0.0010308
0.00102996
0.00102839
0.00102755
0.00102599
0.00102514
0.0010236
0.00102274
0.00102197
0.00102078
0.00102077
0.00104204
0.00104015
0.00103936
0.0010378
0.00103699
0.00103544
0.00103462
0.00103309
0.00103224
0.00103072
0.00102987
0.00102835
0.00102749
0.00102598
0.00102511
0.0010236
0.00102272
0.00102196
0.00102077
0.00102076
0.00102076
0.00102076
0.00102076
0.00102076
0.00102076
0.00102076
0.00102076
0.00102076
0.00102076
0.00102076
0.00102076
0.00102076
0.00102076
0.00102076
0.00102076
0.00102076
0.00102076
0.00102076
0.00102076
)
;

boundaryField
{
    movingWall
    {
        type            calculated;
        value           nonuniform List<scalar> 
20
(
0.00102076
0.00102076
0.00102076
0.00102076
0.00102076
0.00102076
0.00102076
0.00102076
0.00102076
0.00102076
0.00102076
0.00102076
0.00102076
0.00102076
0.00102076
0.00102076
0.00102076
0.00102076
0.00102076
0.00102076
)
;
    }
    fixedWalls
    {
        type            calculated;
        value           nonuniform List<scalar> 
60
(
0.00102155
0.00102135
0.00102113
0.00102099
0.00102092
0.00102088
0.00102087
0.00102086
0.00102085
0.00102085
0.00102084
0.00102083
0.00102083
0.00102082
0.00102081
0.00102081
0.00102079
0.00102078
0.00102077
0.00102076
0.00102155
0.00102136
0.00102114
0.00102099
0.00102092
0.00102088
0.00102087
0.00102086
0.00102085
0.00102085
0.00102084
0.00102084
0.00102083
0.00102082
0.00102082
0.00102081
0.00102079
0.00102078
0.00102077
0.00102076
0.00102155
0.00102155
0.00102155
0.00102155
0.00102155
0.00102155
0.00102155
0.00102155
0.00102155
0.00102155
0.00102155
0.00102155
0.00102155
0.00102155
0.00102155
0.00102155
0.00102155
0.00102155
0.00102155
0.00102155
)
;
    }
    frontAndBack
    {
        type            empty;
    }
}


// ************************************************************************* //
